/*--------------------------------*- C++ -*----------------------------------*\
  =========                 |
  \\      /  F ield         | OpenFOAM: The Open Source CFD Toolbox
   \\    /   O peration     | Website:  https://openfoam.org
    \\  /    A nd           | Version:  9
     \\/     M anipulation  |
\*---------------------------------------------------------------------------*/
FoamFile
{
    format      ascii;
    class       volScalarField;
    location    "3";
    object      Ma;
}
// * * * * * * * * * * * * * * * * * * * * * * * * * * * * * * * * * * * * * //

dimensions      [0 0 0 0 0 0 0];

internalField   nonuniform List<scalar> 
5250
(
3
2.99997
2.9999
2.99977
2.99936
2.99853
2.99615
2.99088
2.97686
2.94363
2.85874
2.65004
2.16824
1.2807
0.531679
0.270898
0.324235
0.338409
0.304528
0.248942
0.197473
0.156249
0.115041
0.0699759
0.0373273
3
2.99997
2.99991
2.99977
2.99938
2.99856
2.99614
2.9913
2.97648
2.94599
2.8591
2.65726
2.17906
1.29821
0.540807
0.271855
0.326506
0.341521
0.307918
0.253247
0.20312
0.163408
0.124561
0.0845595
0.059788
3
2.99997
2.99991
2.99979
2.99938
2.99865
2.99624
2.99154
2.97757
2.94718
2.86475
2.66811
2.20443
1.33756
0.562082
0.276446
0.333496
0.350509
0.317899
0.265465
0.218184
0.181675
0.147384
0.114844
0.0966124
3
2.99997
2.99992
2.99977
2.99949
2.99854
2.99682
2.9912
2.98017
2.94767
2.875
2.68256
2.24456
1.39965
0.594917
0.285505
0.345527
0.365511
0.33446
0.285017
0.241129
0.208327
0.178815
0.15211
0.137143
3
2.99998
2.99992
2.99981
2.99946
2.99878
2.99675
2.99243
2.98051
2.95306
2.88174
2.70781
2.29368
1.48534
0.639636
0.302107
0.363841
0.386944
0.357611
0.311474
0.270777
0.241469
0.216053
0.193698
0.180796
3
2.99998
2.99994
2.99981
2.99955
2.9988
2.99718
2.99282
2.98258
2.95671
2.89305
2.73338
2.355
1.5935
0.697126
0.331816
0.391448
0.416221
0.388426
0.345433
0.307429
0.281311
0.259731
0.241319
0.230682
3
2.99998
2.99994
2.99982
2.99961
2.99889
2.99752
2.99334
2.98465
2.96023
2.90473
2.75898
2.41799
1.71022
0.762584
0.369813
0.425486
0.44986
0.424435
0.385543
0.350728
0.327918
0.310484
0.296851
0.290529
3
2.99998
2.99995
2.99985
2.99962
2.99902
2.99771
2.99395
2.98623
2.96334
2.91438
2.78015
2.46809
1.80109
0.829702
0.405631
0.452698
0.474427
0.456865
0.426043
0.397619
0.380273
0.368983
0.362989
0.366646
3
2.99999
2.99995
2.99987
2.99965
2.99915
2.99782
2.99487
2.98662
2.9688
2.91927
2.80458
2.51347
1.89357
0.92396
0.464957
0.473749
0.488777
0.485215
0.465143
0.445878
0.436908
0.435027
0.443335
0.470393
3
2.99999
2.99996
2.99988
2.99969
2.99923
2.9981
2.99522
2.98862
2.97068
2.93024
2.82219
2.56496
1.99131
1.04329
0.536297
0.488973
0.504763
0.511966
0.502773
0.49475
0.495818
0.510504
0.548708
0.647826
3
2.99999
2.99997
2.99989
2.99974
2.99929
2.99838
2.99575
2.98998
2.97451
2.93808
2.84454
2.61612
2.09771
1.18855
0.620316
0.506311
0.523697
0.538726
0.539583
0.542307
0.556669
0.594324
0.675987
0.842558
3
2.99999
2.99997
2.99992
2.99975
2.99946
2.99847
2.99664
2.99087
2.97909
2.94557
2.86907
2.66925
2.2165
1.36719
0.719106
0.531142
0.548161
0.567647
0.576639
0.588647
0.616472
0.673141
0.778976
0.959764
3
3
2.99998
2.99992
2.99982
2.99949
2.99889
2.99687
2.99311
2.98141
2.95699
2.88912
2.73007
2.34324
1.58418
0.835521
0.574124
0.586009
0.603327
0.617103
0.635321
0.671932
0.737529
0.844559
1.00342
3
3
2.99998
2.99994
2.99985
2.9996
2.99905
2.99761
2.99413
2.98575
2.96424
2.91347
2.78383
2.47607
1.83201
0.967953
0.637605
0.635229
0.647466
0.663433
0.683501
0.722077
0.78734
0.884954
1.02014
3.00001
3
2.99999
2.99996
2.99987
2.99969
2.9992
2.99806
2.99526
2.98814
2.97156
2.9281
2.82501
2.56622
2.00663
1.10929
0.705556
0.67457
0.688467
0.706258
0.728773
0.766433
0.827443
0.913723
1.02935
3.00001
3
2.99999
2.99996
2.9999
2.99975
2.99937
2.99845
2.9961
2.99076
2.97618
2.94374
2.85655
2.64981
2.17145
1.3215
0.810341
0.706057
0.718554
0.738915
0.767243
0.804703
0.860914
0.937488
1.03679
3.00001
3
2.99999
2.99997
2.99993
2.9998
2.99951
2.99878
2.99696
2.99272
2.98142
2.95593
2.88799
2.72641
2.33882
1.58387
0.941461
0.747627
0.749662
0.769026
0.80057
0.838143
0.889668
0.95797
1.0441
3.00001
3
3
2.99998
2.99995
2.99984
2.99965
2.99902
2.99787
2.99414
2.98697
2.96557
2.91949
2.79592
2.51133
1.90213
1.10383
0.814141
0.792995
0.806934
0.835135
0.871562
0.917595
0.977609
1.05235
3.00001
3
3
2.99999
2.99996
2.99989
2.99972
2.99928
2.99834
2.99559
2.99011
2.97348
2.93937
2.84323
2.62319
2.11964
1.2881
0.889927
0.829967
0.841881
0.867069
0.90265
0.944666
0.997238
1.06214
3.00001
3.00001
3
2.99999
2.99997
2.99991
2.9998
2.99945
2.99877
2.99673
2.99242
2.98065
2.95351
2.88389
2.71485
2.31742
1.56019
1.01758
0.873131
0.874548
0.89506
0.929167
0.969526
1.0168
1.07335
3.00001
3.00001
3
3
2.99998
2.99995
2.99984
2.99965
2.99902
2.99785
2.9942
2.98687
2.96595
2.91972
2.7981
2.51758
1.91761
1.18836
0.938536
0.914752
0.927881
0.956845
0.994896
1.03721
1.08668
3.00001
3.00001
3
3
2.99999
2.99996
2.9999
2.99972
2.99938
2.99826
2.99623
2.98974
2.97686
2.93993
2.85727
2.64467
2.17894
1.39496
1.01888
0.952228
0.96104
0.985042
1.01932
1.05767
1.10153
3.00001
3.00001
3.00001
3
2.99999
2.99997
2.99993
2.99981
2.99954
2.99879
2.99728
2.99269
2.98377
2.95672
2.89986
2.74505
2.39787
1.70174
1.15524
1.00249
0.995624
1.01074
1.0405
1.07745
1.11759
3.00001
3.00001
3.00001
3
3
2.99998
2.99996
2.99986
2.9997
2.99916
2.99815
2.99507
2.98884
2.97116
2.93227
2.83009
2.59402
2.07019
1.35112
1.0789
1.03528
1.04209
1.06455
1.09759
1.13445
3.00001
3.00001
3.00001
3
3
2.99999
2.99997
2.99991
2.99979
2.99945
2.99869
2.99675
2.99207
2.98092
2.95231
2.88549
2.71666
2.33299
1.62271
1.19084
1.07968
1.07408
1.08737
1.11555
1.15115
3.00001
3.00001
3.00001
3.00001
3
3
2.99998
2.99994
2.99987
2.99963
2.99915
2.99785
2.99484
2.98746
2.9691
2.92585
2.8172
2.56325
2.01652
1.36808
1.14313
1.11018
1.11576
1.13743
1.16776
3.00001
3.00001
3.00001
3.00001
3
3
2.99999
2.99997
2.9999
2.99978
2.99939
2.99866
2.99642
2.99189
2.97917
2.95105
2.87761
2.70574
2.30574
1.61083
1.23552
1.14921
1.14488
1.15784
1.1837
3.00001
3.00001
3.00001
3.00001
3.00001
3
3
2.99998
2.99994
2.99986
2.99961
2.99912
2.99774
2.99466
2.98687
2.96814
2.92263
2.81122
2.54793
1.99196
1.40256
1.20639
1.17779
1.18317
1.20356
3.00001
3.00001
3.00001
3.00001
3.00001
3
3
2.99999
2.99996
2.99991
2.99975
2.99945
2.99852
2.99665
2.99142
2.97985
2.95009
2.87955
2.70648
2.31418
1.64716
1.30051
1.21841
1.21181
1.22256
3.00001
3.00001
3.00001
3.00001
3.00001
3.00001
3
3
2.99998
2.99994
2.99986
2.99964
2.9991
2.99789
2.99461
2.98777
2.96826
2.9273
2.81675
2.57009
2.03517
1.46991
1.27623
1.24444
1.247
3.00001
3.00001
3.00001
3.00001
3.00001
3.00001
3
3
2.99999
2.99997
2.99992
2.99977
2.99946
2.99865
2.99674
2.99216
2.98062
2.95424
2.88608
2.72874
2.35902
1.72592
1.37544
1.28516
1.27471
3.00001
3.00001
3.00001
3.00001
3.00001
3.00001
3.00001
3
3
2.99998
2.99995
2.99986
2.99968
2.99915
2.99814
2.995
2.98921
2.97112
2.9355
2.8363
2.61898
2.13374
1.55953
1.34695
1.30876
3.00001
3.00001
3.00001
3.00001
3.00001
3.00001
3.00001
3.00001
3
2.99999
2.99997
2.99993
2.99979
2.99952
2.99878
2.99712
2.99301
2.98297
2.95949
2.90003
2.76164
2.43506
1.83722
1.45116
1.34696
3.00001
3.00001
3.00001
3.00001
3.00001
3.00001
3.00001
3.00001
3
3
2.99999
2.99996
2.99988
2.99973
2.99925
2.99839
2.99567
2.99045
2.97532
2.94334
2.8588
2.66849
2.23486
1.65747
1.42019
3.00001
3.00001
3.00001
3.00001
3.00001
3.00001
3.00001
3.00001
3.00001
3
3
2.99998
2.99994
2.99982
2.99961
2.99894
2.99765
2.99396
2.98609
2.96543
2.918
2.80062
2.53025
1.99192
1.55435
3.00001
3.00001
3.00001
3.00001
3.00001
3.00001
3.00001
3.00001
3.00001
3
3
2.99999
2.99996
2.99991
2.99976
2.99942
2.99859
2.99655
2.99197
2.97982
2.95357
2.88403
2.72792
2.36207
1.79644
3.00001
3.00001
3.00001
3.00001
3.00001
3.00001
3.00001
3.00001
3.00001
3.00001
3
3
2.99998
2.99995
2.99986
2.99968
2.99917
2.99818
2.99517
2.98962
2.97238
2.93916
2.84603
2.6455
2.20065
3.00001
3.00001
3.00001
3.00001
3.00001
3.00001
3.00001
3.00001
3.00001
3.00001
3.00001
3
2.99999
2.99997
2.99993
2.99981
2.99957
2.99885
2.99753
2.99334
2.98567
2.96234
2.91505
2.78864
2.51174
3.00001
3.00001
3.00001
3.00001
3.00001
3.00001
3.00001
3.00001
3.00001
3.00001
3.00001
3
3
2.99999
2.99996
2.9999
2.99974
2.99942
2.99847
2.99668
2.99117
2.98086
2.95009
2.88701
2.72283
3.00001
3.00001
3.00001
3.00001
3.00001
3.00001
3.00001
3.00001
3.00001
3.00001
3.00001
3.00001
3
3
2.99998
2.99995
2.99987
2.99966
2.99924
2.99801
2.9957
2.98861
2.97531
2.93638
2.85596
3.00001
3.00001
3.00001
3.00001
3.00001
3.00001
3.00001
3.00001
3.00001
3.00001
3.00001
3.00001
3.00001
3
2.99999
2.99998
2.99993
2.99983
2.99954
2.99901
2.99737
2.99425
2.98524
2.96654
2.91692
3.00001
3.00001
3.00001
3.00001
3.00001
3.00001
3.00001
3.00001
3.00001
3.00001
3.00001
3.00001
3.00001
3
3
2.99999
2.99997
2.99991
2.99977
2.99945
2.99861
2.9969
2.99195
2.98244
2.95438
3.00001
3.00001
3.00001
3.00001
3.00001
3.00001
3.00001
3.00001
3.00001
3.00001
3.00001
3.00001
3.00001
3.00001
3
3
2.99999
2.99995
2.99988
2.99969
2.99932
2.9982
2.99617
2.98989
2.97795
3.00001
3.00001
3.00001
3.00001
3.00001
3.00001
3.00001
3.00001
3.00001
3.00001
3.00001
3.00001
3.00001
3.00001
3.00001
3
3
2.99998
2.99994
2.99986
2.99961
2.99913
2.99779
2.99498
2.98775
3.00001
3.00001
3.00001
3.00001
3.00001
3.00001
3.00001
3.00001
3.00001
3.00001
3.00001
3.00001
3.00001
3.00001
3.00001
3
3
2.99999
2.99997
2.99992
2.99981
2.99951
2.9989
2.99724
2.99366
3.00001
3.00001
3.00001
3.00001
3.00001
3.00001
3.00001
3.00001
3.00001
3.00001
3.00001
3.00001
3.00001
3.00001
3.00001
3.00001
3
3
2.99999
2.99996
2.9999
2.99976
2.99937
2.99864
2.99639
3.00001
3.00001
3.00001
3.00001
3.00001
3.00001
3.00001
3.00001
3.00001
3.00001
3.00001
3.00001
3.00001
3.00001
3.00001
3.00001
3.00001
3
3
2.99998
2.99994
2.99987
2.99965
2.99922
2.998
3.00001
3.00001
3.00001
3.00001
3.00001
3.00001
3.00001
3.00001
3.00001
3.00001
3.00001
3.00001
3.00001
3.00001
3.00001
3.00001
3.00001
3
3
2.99999
2.99997
2.99991
2.99977
2.99942
2.99866
3.00001
3.00001
3.00001
3.00001
3.00001
3.00001
3.00001
3.00001
3.00001
3.00001
3.00001
3.00001
3.00001
3.00001
3.00001
3.00001
3.00001
3.00001
3
2.99999
2.99998
2.99992
2.99982
2.99949
2.99889
3.00001
3.00001
3.00001
3.00001
3.00001
3.00001
3.00001
3.00001
3.00001
3.00001
3.00001
3.00001
3.00001
3.00001
3.00001
3.00001
3.00001
3.00001
3
2.99999
2.99998
2.99993
2.99983
2.99955
2.99889
1.11817
1.32323
1.3884
1.35257
1.28182
1.19578
1.11546
1.07514
1.06829
1.07073
1.07357
1.07389
1.07203
1.06871
1.06436
1.06078
1.05922
1.0585
1.05786
1.05702
1.05565
1.05311
1.04812
1.03776
1.01568
0.968303
0.867067
0.657004
0.34493
0.130502
0.102593
0.168635
0.258958
0.332294
0.373069
0.384175
0.370722
0.345368
0.306147
0.251291
0.191716
0.132335
0.0776167
0.0390776
0.0515155
0.0898938
0.130537
0.167998
0.201736
0.232086
0.262529
0.292878
0.321776
0.348753
0.37498
0.399821
0.424332
0.447701
0.470929
0.493145
0.515347
0.536644
0.558015
0.578521
0.599186
0.618984
0.639004
0.658162
0.677592
0.696211
0.715157
0.733348
0.751904
0.76973
0.787929
0.805394
0.823233
0.840317
0.857815
0.874493
0.89167
0.907934
0.924802
0.940641
0.957207
0.972609
0.988882
1.00385
1.01985
1.0344
1.05012
1.06427
1.07965
1.09342
1.10822
1.12142
1.13513
1.14659
1.15646
1.1627
1.13324
1.25217
1.31909
1.36448
1.4104
1.44655
1.45678
1.45252
1.43659
1.41376
1.39591
1.39005
1.39017
1.39161
1.39231
1.39209
1.39127
1.3896
1.3876
1.38618
1.38504
1.38323
1.37963
1.37163
1.35373
1.31407
1.22831
1.0457
0.739041
0.483981
0.358927
0.276983
0.202343
0.126972
0.0610743
0.0477161
0.081735
0.0731554
0.0598696
0.0797805
0.11878
0.160779
0.202722
0.240901
0.27618
0.309836
0.343364
0.374681
0.404519
0.431088
0.457619
0.484131
0.510566
0.534877
0.558762
0.581371
0.603954
0.62554
0.647135
0.667861
0.688612
0.708593
0.72861
0.747921
0.767288
0.786008
0.804817
0.823019
0.84136
0.859098
0.877054
0.894355
0.911999
0.928877
0.946268
0.962731
0.979898
0.995951
1.01289
1.02853
1.04523
1.06045
1.07691
1.09173
1.10792
1.12241
1.13826
1.1525
1.16799
1.18202
1.19718
1.21101
1.22589
1.23948
1.25399
1.26706
1.28061
1.2921
1.30209
1.30836
1.13389
1.24214
1.33993
1.43343
1.51988
1.58827
1.62172
1.62507
1.62026
1.60596
1.58627
1.57043
1.56113
1.55801
1.55792
1.5583
1.55851
1.55842
1.5581
1.55726
1.55622
1.55464
1.55185
1.54599
1.53331
1.50536
1.44427
1.31192
1.06148
0.780306
0.641695
0.562308
0.486756
0.411036
0.336743
0.275773
0.245147
0.249494
0.286596
0.327704
0.366314
0.399177
0.429583
0.456894
0.483088
0.507829
0.532984
0.556982
0.580832
0.602357
0.623654
0.64509
0.667836
0.689036
0.710015
0.729835
0.749931
0.769165
0.788748
0.807466
0.826547
0.844718
0.863315
0.880947
0.899104
0.916219
0.933981
0.950618
0.968062
0.984295
1.0015
1.01739
1.03434
1.0499
1.06653
1.08179
1.09805
1.11309
1.12897
1.1438
1.15935
1.17395
1.18925
1.20355
1.21863
1.23263
1.2475
1.26127
1.27598
1.28953
1.30401
1.31734
1.33149
1.3446
1.35832
1.37106
1.38392
1.3954
1.40508
1.41151
1.14258
1.25037
1.34999
1.44134
1.52265
1.59042
1.64326
1.68183
1.7029
1.70843
1.7067
1.69926
1.68743
1.67605
1.6693
1.66687
1.66726
1.66799
1.66922
1.66971
1.66958
1.66895
1.66727
1.66347
1.65513
1.63674
1.5963
1.50915
1.31899
1.04794
0.871194
0.77552
0.701133
0.629601
0.556225
0.49691
0.470493
0.4809
0.513233
0.550715
0.584115
0.608144
0.6266
0.64288
0.659365
0.675485
0.692935
0.710164
0.728545
0.745569
0.762687
0.779361
0.798198
0.816667
0.835362
0.852742
0.870844
0.887985
0.906021
0.922975
0.940778
0.957348
0.974783
0.990946
1.00804
1.02392
1.04074
1.05638
1.07285
1.08821
1.10431
1.11939
1.13516
1.14999
1.16546
1.18005
1.19525
1.20959
1.22457
1.23866
1.25346
1.26726
1.28185
1.29533
1.30974
1.32298
1.3372
1.35017
1.36412
1.37685
1.39058
1.4031
1.41665
1.42887
1.44219
1.45389
1.46659
1.477
1.48684
1.49218
1.14448
1.24952
1.34554
1.43325
1.5131
1.58477
1.64779
1.70124
1.74282
1.77019
1.78078
1.78096
1.77868
1.772
1.76231
1.75444
1.74881
1.7464
1.74567
1.74586
1.74593
1.74574
1.74496
1.74284
1.73773
1.72619
1.70034
1.64399
1.51741
1.30222
1.05656
0.93557
0.864018
0.785637
0.70631
0.647462
0.627731
0.640745
0.675632
0.715758
0.749164
0.772464
0.785454
0.793223
0.801143
0.810105
0.821111
0.832773
0.846445
0.859968
0.874353
0.887976
0.903733
0.919854
0.937052
0.952936
0.969516
0.985183
1.00171
1.01739
1.03388
1.04948
1.06583
1.08115
1.09717
1.11204
1.12768
1.14217
1.15754
1.17179
1.18697
1.20103
1.21604
1.22992
1.2447
1.25833
1.27277
1.28606
1.30017
1.31313
1.32705
1.33985
1.35378
1.36647
1.38028
1.3927
1.40635
1.41849
1.43192
1.44377
1.45694
1.46853
1.48142
1.4928
1.50539
1.51648
1.52849
1.53868
1.54818
1.55366
1.14186
1.24129
1.3332
1.41782
1.49558
1.56677
1.6308
1.68734
1.73528
1.77459
1.8047
1.82421
1.83192
1.83218
1.83042
1.8252
1.81717
1.81005
1.80453
1.8023
1.80175
1.80208
1.80221
1.80172
1.79975
1.79404
1.77974
1.74636
1.67266
1.51255
1.26486
1.08266
0.978238
0.884964
0.796488
0.737776
0.726369
0.744418
0.783933
0.830487
0.867124
0.889885
0.904499
0.911319
0.914313
0.918097
0.924341
0.932328
0.94311
0.95444
0.967212
0.979299
0.993033
1.00754
1.02369
1.0388
1.05424
1.06892
1.08428
1.09897
1.11418
1.12856
1.14346
1.15755
1.17229
1.18618
1.20076
1.21432
1.22859
1.24175
1.25573
1.26861
1.28247
1.29519
1.30893
1.32142
1.33498
1.34716
1.36056
1.37257
1.38589
1.39767
1.4108
1.42239
1.43532
1.44674
1.45946
1.47076
1.48328
1.49449
1.50681
1.5179
1.53004
1.54093
1.55286
1.5634
1.57488
1.58453
1.5938
1.59884
1.13816
1.23059
1.31767
1.39889
1.4742
1.54394
1.60792
1.66626
1.71847
1.76464
1.80352
1.8351
1.85792
1.87131
1.87579
1.87562
1.87376
1.86904
1.8628
1.85764
1.85401
1.85206
1.85109
1.85035
1.84873
1.84505
1.83653
1.81687
1.77259
1.67557
1.4771
1.22742
1.07027
0.941394
0.831
0.781323
0.779461
0.803123
0.851392
0.905462
0.946173
0.97167
0.987585
0.998566
1.00639
1.01032
1.01387
1.01911
1.02737
1.03692
1.04851
1.05962
1.07173
1.08414
1.09852
1.11266
1.12698
1.14019
1.15384
1.16677
1.18044
1.19337
1.207
1.21965
1.23299
1.24527
1.25842
1.27056
1.28373
1.29582
1.30891
1.32075
1.33356
1.34507
1.35765
1.36898
1.38157
1.39298
1.40566
1.41697
1.42957
1.44069
1.4531
1.46399
1.47618
1.48687
1.49887
1.50943
1.52125
1.53173
1.5434
1.55381
1.56535
1.57567
1.58706
1.59719
1.6082
1.61765
1.62671
1.63177
1.1359
1.22069
1.30249
1.37985
1.45238
1.52013
1.58307
1.64127
1.69451
1.74271
1.78536
1.82246
1.85321
1.87778
1.89498
1.90501
1.90844
1.90821
1.90649
1.90227
1.89659
1.89155
1.88772
1.8857
1.88452
1.8824
1.8775
1.86599
1.83923
1.77896
1.64813
1.40741
1.15369
0.956969
0.817477
0.783373
0.792956
0.832206
0.890224
0.947034
0.992238
1.02577
1.04895
1.06555
1.08001
1.09095
1.09721
1.10152
1.10731
1.11429
1.12354
1.13279
1.14294
1.15251
1.16398
1.17574
1.18862
1.20052
1.21295
1.2243
1.23629
1.24727
1.25913
1.27012
1.2822
1.29337
1.3056
1.31669
1.32879
1.33961
1.35151
1.3622
1.3741
1.38483
1.39686
1.40766
1.41969
1.43031
1.44219
1.45265
1.46441
1.47478
1.48641
1.49669
1.5082
1.5184
1.5298
1.53996
1.55127
1.56141
1.57263
1.58273
1.59385
1.60386
1.61486
1.62468
1.63538
1.64453
1.65347
1.65831
1.13567
1.2126
1.28863
1.36182
1.43117
1.49661
1.55788
1.61522
1.6683
1.7174
1.76204
1.80247
1.83802
1.86884
1.89416
1.91412
1.92748
1.93481
1.93704
1.93675
1.93528
1.93188
1.9277
1.92399
1.92068
1.91771
1.91344
1.90461
1.88562
1.84398
1.75398
1.57052
1.25735
0.941622
0.771804
0.757737
0.779464
0.833848
0.903757
0.96829
1.02253
1.067
1.10211
1.12827
1.14819
1.16403
1.17547
1.18214
1.18545
1.18853
1.19315
1.19895
1.20649
1.21343
1.22141
1.22965
1.23986
1.24958
1.26044
1.27039
1.2814
1.29136
1.30237
1.31225
1.32322
1.33305
1.34405
1.35392
1.36504
1.37502
1.38626
1.3963
1.4076
1.41771
1.42903
1.43906
1.45031
1.46032
1.47156
1.48159
1.49283
1.50287
1.51408
1.52406
1.53519
1.5451
1.55615
1.56602
1.57701
1.58687
1.59782
1.60767
1.61855
1.62834
1.6391
1.64873
1.65921
1.66823
1.67709
1.6819
1.13809
1.20717
1.27711
1.34567
1.41159
1.47435
1.53368
1.58959
1.64195
1.69087
1.73616
1.77794
1.81588
1.85003
1.87993
1.90547
1.92622
1.94256
1.95337
1.95927
1.96097
1.96062
1.95917
1.95582
1.95123
1.94631
1.94107
1.93294
1.91627
1.88087
1.80531
1.64949
1.33975
0.947819
0.741154
0.737976
0.774015
0.844457
0.928982
1.00315
1.06494
1.11592
1.15813
1.19041
1.21389
1.23016
1.24208
1.25019
1.25467
1.25566
1.2556
1.25698
1.26009
1.26446
1.27
1.27539
1.28279
1.2907
1.3003
1.30904
1.31879
1.32739
1.33717
1.34591
1.35602
1.36509
1.3755
1.38482
1.39543
1.40493
1.41565
1.42529
1.43614
1.44581
1.45666
1.46631
1.47717
1.48684
1.49771
1.50744
1.51833
1.52811
1.53901
1.54881
1.5597
1.56944
1.58029
1.58998
1.60077
1.61041
1.62112
1.63073
1.64136
1.65089
1.66144
1.67084
1.68116
1.69004
1.69883
1.70361
1.14334
1.20502
1.26866
1.3322
1.39417
1.45399
1.51098
1.56525
1.61641
1.66477
1.70996
1.75229
1.7914
1.82752
1.86025
1.88967
1.91534
1.93716
1.95473
1.96837
1.9772
1.98169
1.98254
1.98195
1.98006
1.97592
1.96918
1.95921
1.94107
1.90462
1.83047
1.68505
1.41516
1.06097
0.831558
0.819986
0.858749
0.91835
0.990853
1.05778
1.11456
1.16144
1.20052
1.23281
1.25773
1.27612
1.28865
1.29858
1.30435
1.30831
1.30903
1.30836
1.30788
1.30922
1.31216
1.31595
1.32064
1.32602
1.33376
1.34159
1.35088
1.35917
1.3687
1.3771
1.38673
1.39523
1.40504
1.41379
1.42389
1.43293
1.44327
1.45254
1.46292
1.47223
1.48264
1.49201
1.50248
1.51193
1.52247
1.53198
1.54256
1.55208
1.56267
1.57221
1.58278
1.59233
1.60287
1.61237
1.62289
1.63231
1.64281
1.65214
1.66259
1.67185
1.68222
1.69137
1.70154
1.71023
1.71898
1.72369
1.15157
1.20632
1.26369
1.32198
1.37961
1.43596
1.4903
1.54242
1.59218
1.63936
1.68417
1.72628
1.766
1.80294
1.83742
1.86891
1.89771
1.92317
1.94559
1.96406
1.97915
1.99012
1.99702
1.99896
1.99818
1.99551
1.98932
1.97657
1.95195
1.90319
1.80956
1.63637
1.41653
1.1998
1.00378
0.928803
0.936389
0.9647
1.00992
1.06832
1.12363
1.17126
1.21256
1.24791
1.27735
1.30096
1.31876
1.33194
1.34172
1.34856
1.35278
1.35459
1.35456
1.35374
1.35412
1.35595
1.35907
1.36266
1.36774
1.37384
1.38223
1.38999
1.39912
1.40711
1.41632
1.4244
1.43375
1.44207
1.45168
1.46037
1.47026
1.47909
1.48907
1.49798
1.50802
1.51704
1.52719
1.53638
1.54663
1.55591
1.5662
1.57547
1.5858
1.59503
1.6054
1.6146
1.62492
1.6341
1.64432
1.6535
1.66365
1.6728
1.68297
1.69206
1.70229
1.71125
1.72136
1.72988
1.73862
1.74325
1.16207
1.21068
1.26211
1.3152
1.3685
1.42112
1.47262
1.52237
1.57038
1.6163
1.66015
1.70192
1.74142
1.77889
1.81392
1.84691
1.87721
1.90536
1.93044
1.95304
1.97223
1.98818
2.00043
2.00697
2.00714
2.00463
1.99737
1.98055
1.94491
1.87272
1.73362
1.54503
1.39619
1.29802
1.18059
1.06648
1.01414
1.01433
1.03671
1.07225
1.12064
1.16804
1.21271
1.25217
1.28637
1.31477
1.33839
1.35698
1.37072
1.38157
1.38992
1.39448
1.39772
1.39849
1.39819
1.39768
1.39868
1.40094
1.40442
1.40824
1.41393
1.42041
1.42896
1.43669
1.44569
1.45347
1.46245
1.47035
1.47961
1.48786
1.49732
1.50575
1.51533
1.52389
1.5336
1.54229
1.55213
1.56096
1.57091
1.57984
1.58986
1.59882
1.60886
1.6178
1.62786
1.63678
1.64684
1.65575
1.6658
1.67473
1.6848
1.69373
1.7038
1.71272
1.72275
1.73157
1.74144
1.74978
1.75837
1.7628
1.17394
1.21699
1.26314
1.31112
1.36029
1.40929
1.45768
1.5051
1.55098
1.59551
1.63814
1.67921
1.71826
1.75569
1.79089
1.82457
1.85572
1.88539
1.91218
1.93733
1.95923
1.9788
1.9946
2.0046
2.00532
2.00198
1.99157
1.96648
1.9121
1.80213
1.62324
1.47037
1.39486
1.35332
1.30831
1.23569
1.15349
1.10056
1.09033
1.10534
1.12955
1.16542
1.2068
1.2485
1.28648
1.32006
1.3489
1.3731
1.39283
1.40813
1.41996
1.42918
1.43579
1.43909
1.44113
1.44143
1.44096
1.4411
1.44262
1.44519
1.4485
1.45265
1.45917
1.46614
1.47482
1.48243
1.49125
1.49895
1.50785
1.51568
1.52468
1.53267
1.54184
1.55
1.55937
1.56769
1.57722
1.58566
1.59529
1.60385
1.61358
1.62221
1.63205
1.64072
1.65063
1.65934
1.66925
1.67799
1.68785
1.69656
1.70637
1.715
1.7248
1.73335
1.74312
1.75159
1.76124
1.76939
1.77785
1.78238
1.18681
1.22511
1.26654
1.31032
1.35511
1.40093
1.44617
1.49109
1.53493
1.57767
1.61896
1.65904
1.69713
1.73435
1.76907
1.80309
1.83437
1.86491
1.89263
1.91916
1.94301
1.96429
1.98272
1.99251
1.9922
1.98649
1.96972
1.92929
1.84155
1.68419
1.5244
1.43644
1.40383
1.39391
1.38256
1.3565
1.30976
1.24703
1.18959
1.1646
1.16702
1.18263
1.20852
1.2442
1.28099
1.31807
1.35151
1.38115
1.40618
1.42708
1.44395
1.45673
1.46745
1.47504
1.47953
1.48245
1.48348
1.48349
1.483
1.4839
1.48589
1.48854
1.49215
1.49683
1.50392
1.51102
1.51973
1.52721
1.53573
1.54309
1.55166
1.55922
1.56807
1.57586
1.58493
1.59289
1.60212
1.61026
1.61963
1.62791
1.63741
1.64576
1.65534
1.66372
1.67332
1.68173
1.69133
1.69975
1.70934
1.71775
1.72733
1.73573
1.74533
1.75376
1.76339
1.77181
1.78131
1.78937
1.7977
1.80214
1.20085
1.23553
1.27265
1.31233
1.35364
1.39551
1.43831
1.48033
1.52206
1.56312
1.60261
1.64178
1.67869
1.71521
1.74954
1.78304
1.8147
1.84487
1.8737
1.90026
1.92555
1.94728
1.96578
1.97242
1.96913
1.95815
1.929
1.86175
1.72709
1.56327
1.46259
1.42775
1.42119
1.42509
1.43029
1.42911
1.41648
1.38729
1.33872
1.28317
1.24265
1.22913
1.23875
1.25509
1.28103
1.31493
1.34818
1.38152
1.41133
1.43749
1.45964
1.47791
1.49255
1.50379
1.51303
1.51949
1.52253
1.52456
1.52515
1.52504
1.52482
1.52609
1.52826
1.53084
1.53472
1.54002
1.54781
1.55491
1.56325
1.57045
1.57879
1.58599
1.59444
1.60181
1.6105
1.61813
1.62704
1.6349
1.64395
1.65193
1.66107
1.66909
1.67828
1.68633
1.69557
1.70366
1.71295
1.72111
1.73045
1.7387
1.74806
1.75633
1.76571
1.77394
1.78333
1.79154
1.80087
1.80878
1.81704
1.82142
1.21596
1.24863
1.2821
1.31771
1.3553
1.39419
1.43319
1.47349
1.5121
1.55171
1.58932
1.62691
1.66313
1.69809
1.73247
1.76459
1.79673
1.82605
1.85543
1.88176
1.90728
1.9287
1.94317
1.94404
1.9367
1.91587
1.86464
1.75408
1.58988
1.47625
1.43585
1.43085
1.43885
1.45078
1.46442
1.4756
1.47864
1.47441
1.45732
1.42374
1.37688
1.32984
1.30223
1.29591
1.30679
1.32366
1.34898
1.37961
1.41004
1.44002
1.46697
1.49044
1.51056
1.5269
1.5396
1.54986
1.55727
1.56226
1.56457
1.56581
1.56604
1.5657
1.56632
1.56772
1.5698
1.5726
1.57727
1.583
1.59087
1.59794
1.60614
1.61312
1.62126
1.62827
1.6365
1.64371
1.65212
1.65957
1.66815
1.67579
1.68455
1.6923
1.7012
1.709
1.71801
1.72589
1.73492
1.74285
1.75185
1.75983
1.76889
1.77695
1.78611
1.7942
1.80339
1.81141
1.8205
1.82813
1.83621
1.84036
1.23208
1.2619
1.29343
1.32572
1.35988
1.39565
1.43177
1.46889
1.50611
1.54251
1.57951
1.61454
1.65018
1.68367
1.71714
1.74903
1.77977
1.8098
1.83765
1.86483
1.88835
1.90812
1.91388
1.90871
1.89305
1.85421
1.76418
1.60751
1.48105
1.43233
1.42707
1.43718
1.4521
1.47144
1.49153
1.50806
1.51924
1.52578
1.5263
1.51865
1.49884
1.46544
1.42385
1.38576
1.36547
1.36226
1.37275
1.38879
1.41264
1.44039
1.46799
1.49521
1.52014
1.54143
1.55952
1.57396
1.58486
1.5942
1.60057
1.60393
1.60598
1.60673
1.60673
1.60632
1.60725
1.60883
1.61078
1.61378
1.61909
1.62509
1.63279
1.63962
1.64766
1.65453
1.6625
1.66935
1.67736
1.68438
1.69258
1.69981
1.70823
1.71564
1.72422
1.73173
1.74041
1.74807
1.75688
1.7647
1.77363
1.78145
1.79036
1.79809
1.80698
1.81466
1.82357
1.83124
1.8401
1.84751
1.85545
1.8596
1.24618
1.27667
1.30577
1.33624
1.3667
1.39976
1.4332
1.4674
1.50213
1.53693
1.57115
1.60567
1.63863
1.67209
1.70346
1.73526
1.7649
1.79428
1.82179
1.84717
1.86957
1.88022
1.87769
1.8657
1.83419
1.75993
1.6154
1.47964
1.42005
1.41288
1.42441
1.44189
1.46512
1.49001
1.51215
1.53044
1.54644
1.55903
1.56845
1.57324
1.57312
1.56462
1.54533
1.51545
1.47931
1.44713
1.42982
1.42671
1.43617
1.45043
1.47195
1.49746
1.52267
1.54748
1.57068
1.59032
1.60651
1.61945
1.62944
1.63748
1.64285
1.64511
1.64621
1.6465
1.64624
1.64582
1.6466
1.64799
1.65023
1.65388
1.65993
1.66608
1.67384
1.6805
1.68833
1.69497
1.70273
1.70941
1.71726
1.72407
1.73212
1.73912
1.74741
1.75462
1.76302
1.77032
1.77875
1.78611
1.79466
1.80215
1.81082
1.81841
1.82718
1.83479
1.84364
1.85122
1.86
1.86727
1.8751
1.87913
1.26454
1.29084
1.31891
1.34715
1.37613
1.40574
1.43709
1.46872
1.50096
1.53358
1.56622
1.59841
1.63065
1.66174
1.69306
1.72251
1.75246
1.77978
1.80688
1.82969
1.84518
1.84584
1.83581
1.80905
1.74836
1.61764
1.47307
1.40255
1.39265
1.40471
1.42389
1.44989
1.4788
1.50497
1.52787
1.54817
1.56579
1.5817
1.5962
1.60863
1.61806
1.62272
1.62263
1.61471
1.59655
1.56944
1.53766
1.50922
1.49301
1.48908
1.49743
1.50967
1.52832
1.55204
1.57549
1.59835
1.61968
1.63756
1.65202
1.66351
1.67286
1.67929
1.68309
1.68441
1.68504
1.68495
1.68418
1.6846
1.68558
1.68707
1.68983
1.69407
1.70068
1.70682
1.71436
1.7208
1.72829
1.73464
1.74208
1.7484
1.75591
1.76234
1.77006
1.77677
1.78481
1.79184
1.80013
1.80739
1.81578
1.8232
1.83164
1.83913
1.84764
1.85511
1.86369
1.87109
1.87963
1.88668
1.89437
1.89819
1.28272
1.30384
1.33171
1.35909
1.38605
1.414
1.44236
1.4722
1.5022
1.53262
1.56328
1.59405
1.62422
1.65453
1.68382
1.71311
1.74064
1.76783
1.79149
1.80998
1.81333
1.80502
1.78264
1.73007
1.61591
1.46394
1.38077
1.36743
1.37971
1.40009
1.42838
1.4602
1.4891
1.51501
1.53868
1.56073
1.58117
1.59993
1.61694
1.63295
1.64787
1.66018
1.66948
1.67399
1.67414
1.66736
1.65124
1.62689
1.599
1.57294
1.55641
1.55017
1.557
1.5666
1.5817
1.60319
1.62548
1.64679
1.66621
1.68275
1.69609
1.70666
1.71472
1.71985
1.72209
1.72304
1.72332
1.723
1.72245
1.72306
1.72411
1.7259
1.72927
1.73375
1.74016
1.74598
1.75303
1.75911
1.76627
1.77247
1.77977
1.78608
1.79362
1.8001
1.80793
1.81464
1.82267
1.82961
1.83774
1.84484
1.85299
1.86018
1.86833
1.87554
1.88368
1.89082
1.89894
1.90574
1.91314
1.91685
1.30741
1.321
1.34417
1.37155
1.39759
1.42338
1.4501
1.47712
1.50545
1.53386
1.56256
1.59144
1.62031
1.64871
1.67698
1.70438
1.73119
1.75492
1.77539
1.78104
1.7739
1.7548
1.70833
1.61195
1.45483
1.35837
1.34028
1.35177
1.37263
1.40278
1.43666
1.4679
1.49588
1.52195
1.54639
1.56989
1.59212
1.61355
1.63343
1.65186
1.66889
1.68522
1.70008
1.71253
1.72183
1.72678
1.72733
1.72207
1.70843
1.68635
1.66129
1.6364
1.61834
1.60968
1.61366
1.62132
1.63344
1.65218
1.67352
1.6935
1.71116
1.72663
1.73918
1.74848
1.75509
1.75866
1.75999
1.76041
1.7603
1.75969
1.75948
1.76009
1.76112
1.76315
1.76723
1.77208
1.77866
1.78447
1.7914
1.79728
1.80421
1.81011
1.81725
1.82334
1.83076
1.8371
1.84474
1.85134
1.85915
1.86594
1.87382
1.88072
1.88864
1.8956
1.90356
1.91046
1.91842
1.925
1.93225
1.93589
1.33282
1.33931
1.35804
1.38325
1.40866
1.43334
1.45839
1.48396
1.51005
1.5369
1.56384
1.59099
1.61809
1.64547
1.67178
1.69781
1.72166
1.74231
1.75012
1.74417
1.72741
1.68671
1.60126
1.44193
1.33275
1.31026
1.32157
1.34302
1.37468
1.41042
1.44342
1.47325
1.50101
1.52733
1.55272
1.57721
1.60095
1.62373
1.64574
1.66668
1.68634
1.70449
1.72193
1.73832
1.753
1.76543
1.77485
1.78038
1.78137
1.77768
1.76644
1.7464
1.7231
1.6987
1.67882
1.66816
1.66721
1.67368
1.6836
1.69915
1.71831
1.73748
1.75522
1.76986
1.78101
1.78947
1.79457
1.79733
1.79785
1.7979
1.79701
1.79632
1.79598
1.79654
1.79774
1.80016
1.80461
1.80945
1.81584
1.82141
1.82814
1.83378
1.84066
1.84646
1.85357
1.85958
1.86687
1.87308
1.88054
1.88698
1.8945
1.90109
1.90862
1.91527
1.9229
1.92957
1.93724
1.94368
1.95069
1.95429
1.3705
1.36514
1.37416
1.39408
1.41953
1.44388
1.4676
1.49147
1.51594
1.54077
1.56629
1.59196
1.61756
1.64307
1.66826
1.69141
1.71202
1.72122
1.7167
1.70066
1.66263
1.58182
1.43192
1.31418
1.2853
1.29397
1.31474
1.34678
1.38369
1.41777
1.44873
1.47759
1.50526
1.53205
1.55811
1.58333
1.60796
1.63193
1.65539
1.67801
1.69986
1.72036
1.73956
1.7574
1.77481
1.79107
1.80597
1.81847
1.82809
1.83396
1.83525
1.83292
1.82376
1.80588
1.78395
1.76011
1.73894
1.72543
1.71978
1.72488
1.73214
1.74388
1.76048
1.77894
1.79586
1.80986
1.82068
1.82823
1.8324
1.83391
1.83389
1.83344
1.83198
1.83115
1.83113
1.8317
1.83313
1.83599
1.84085
1.84561
1.85196
1.85731
1.86394
1.86948
1.87631
1.88206
1.88904
1.89498
1.90203
1.90819
1.91532
1.92163
1.92886
1.93521
1.94251
1.94887
1.95626
1.96241
1.96925
1.97267
1.41605
1.39223
1.39378
1.40757
1.42943
1.45403
1.47727
1.49995
1.52279
1.54611
1.56977
1.59393
1.61807
1.64194
1.66439
1.68428
1.69433
1.69071
1.67499
1.63837
1.55989
1.41839
1.29287
1.25831
1.26533
1.2858
1.31866
1.35674
1.39175
1.42353
1.45329
1.48191
1.50974
1.5368
1.56326
1.58917
1.61466
1.6396
1.66403
1.6877
1.71062
1.73259
1.75361
1.77345
1.79219
1.81027
1.82763
1.84388
1.85859
1.87099
1.88042
1.88668
1.8883
1.88718
1.88006
1.86461
1.84388