/*--------------------------------*- C++ -*----------------------------------*\
  =========                 |
  \\      /  F ield         | OpenFOAM: The Open Source CFD Toolbox
   \\    /   O peration     | Website:  https://openfoam.org
    \\  /    A nd           | Version:  9
     \\/     M anipulation  |
\*---------------------------------------------------------------------------*/
FoamFile
{
    format      ascii;
    class       volScalarField;
    location    "3";
    object      p;
}
// * * * * * * * * * * * * * * * * * * * * * * * * * * * * * * * * * * * * * //

dimensions      [1 -1 -2 0 0 0 0];

internalField   nonuniform List<scalar> 
5250
(
1.00001
1.00003
1.00008
1.00021
1.00053
1.00134
1.00319
1.00828
1.01938
1.05047
1.12221
1.32013
1.85974
3.45197
8.07914
11.6433
11.2638
11.0294
11.1118
11.3367
11.56
11.6944
11.794
11.8721
11.9291
1.00001
1.00003
1.00008
1.0002
1.00055
1.00124
1.00336
1.00757
1.02036
1.0472
1.12392
1.31013
1.84873
3.40476
7.96432
11.6569
11.2637
11.0198
11.1031
11.329
11.5522
11.687
11.7881
11.8675
11.9259
1.00001
1.00003
1.00008
1.0002
1.00052
1.00124
1.00313
1.00769
1.01878
1.04731
1.11703
1.30207
1.81346
3.31055
7.70574
11.6842
11.2597
10.9899
11.0717
11.2954
11.5164
11.6496
11.7505
11.83
11.8897
1
1.00003
1.00007
1.0002
1.00047
1.00123
1.00288
1.00737
1.01783
1.04459
1.11106
1.28523
1.76493
3.16693
7.3071
11.7252
11.2545
10.9404
11.0177
11.2349
11.4531
11.583
11.6813
11.7598
11.8221
1
1.00002
1.00007
1.00018
1.00045
1.00112
1.00268
1.00693
1.0162
1.04231
1.10159
1.26508
1.70238
2.98355
6.77985
11.7658
11.2483
10.8743
10.9436
11.1493
11.3639
11.4891
11.5832
11.6598
11.7257
1
1.00002
1.00006
1.00016
1.00042
1.001
1.00257
1.00597
1.01573
1.03665
1.09551
1.23662
1.63513
2.77017
6.14815
11.7596
11.2322
10.793
10.85
11.0366
11.2448
11.3615
11.4468
11.5174
11.5867
1
1.00002
1.00006
1.00015
1.00036
1.00093
1.00227
1.00553
1.01395
1.03356
1.08525
1.21325
1.564
2.56302
5.51588
11.6299
11.1669
10.691
10.7343
10.8933
11.0887
11.1912
11.2602
11.316
11.3832
1
1.00002
1.00005
1.00014
1.00032
1.00087
1.00196
1.00531
1.01191
1.03209
1.0746
1.19653
1.50481
2.40583
5.06166
11.2101
10.9815
10.5736
10.5974
10.7145
10.8866
10.9662
11.0063
11.0283
11.0737
1
1.00002
1.00005
1.00012
1.00032
1.00072
1.00194
1.00438
1.01179
1.02686
1.07129
1.17194
1.4587
2.25402
4.61636
10.5066
10.6865
10.4978
10.4498
10.5095
10.6355
10.6772
10.667
10.6159
10.5713
1
1.00001
1.00004
1.00011
1.00026
1.0007
1.00159
1.00428
1.00963
1.02604
1.06003
1.15868
1.40093
2.11071
4.16757
9.62765
10.524
10.397
10.2699
10.2905
10.3421
10.3252
10.2355
10.0157
9.68317
1
1.00001
1.00004
1.0001
1.00024
1.00059
1.00149
1.00352
1.00912
1.02135
1.05558
1.13475
1.35397
1.95502
3.72092
8.58853
10.4113
10.2986
10.0842
10.0509
10.0255
9.93108
9.67392
9.07464
7.52316
1
1.00001
1.00003
1.00008
1.00021
1.0005
1.00128
1.00307
1.00761
1.01891
1.04625
1.11674
1.29791
1.80169
3.25895
7.39234
10.3276
10.2008
9.91808
9.80414
9.71431
9.51916
9.10424
8.2759
6.6331
1
1.00001
1.00003
1.00007
1.00017
1.00044
1.00102
1.00261
1.0063
1.01554
1.03873
1.0956
1.24392
1.64611
2.79571
6.0884
10.2208
10.0959
9.77727
9.56376
9.40692
9.12891
8.61285
7.75444
6.41535
1
1.00001
1.00002
1.00005
1.00014
1.00034
1.00088
1.002
1.00532
1.01199
1.03214
1.07441
1.19514
1.49828
2.36524
4.79806
9.91167
9.89662
9.66593
9.34359
9.1135
8.78838
8.25458
7.45825
6.38584
1
1.00001
1.00002
1.00005
1.00011
1.00029
1.00067
1.00176
1.00399
1.01064
1.02417
1.0642
1.1531
1.40642
2.09005
4.07362
9.02419
9.62195
9.46829
9.14046
8.85243
8.50376
7.99161
7.27832
6.38357
1
1
1.00001
1.00004
1.00009
1.00022
1.00058
1.0013
1.0035
1.00785
1.02114
1.04849
1.12771
1.31743
1.86414
3.40425
7.54846
9.34459
9.25127
8.9855
8.63632
8.26912
7.78702
7.15008
6.37917
1
1
1.00001
1.00003
1.00007
1.00017
1.00045
1.00103
1.00274
1.00617
1.01653
1.03786
1.09959
1.24413
1.65594
2.79882
5.98798
9.15426
9.10761
8.88257
8.47059
8.07853
7.62113
7.04823
6.37174
1
1
1.00001
1.00002
1.00005
1.00014
1.00032
1.00084
1.00193
1.00494
1.01181
1.02927
1.07221
1.18057
1.46579
2.24815
4.37427
8.73767
8.97053
8.78686
8.37323
7.93281
7.4859
6.96434
6.36279
1
1
1.00001
1.00002
1.00004
1.00011
1.00024
1.00064
1.00143
1.00386
1.00866
1.02306
1.05336
1.13887
1.34661
1.93703
3.56788
7.66967
8.71917
8.59977
8.27684
7.81375
7.37289
6.8925
6.35225
1
1
1
1.00001
1.00003
1.00008
1.00019
1.00046
1.00114
1.00271
1.00695
1.01618
1.04202
1.10023
1.25985
1.67867
2.86128
6.02617
8.44841
8.40672
8.19028
7.7385
7.28478
6.83114
6.34054
1
1
1
1.00001
1.00002
1.00005
1.00014
1.00032
1.00083
1.00197
1.00486
1.01201
1.02884
1.07237
1.17852
1.46072
2.219
4.22452
7.99074
8.27091
8.1108
7.71909
7.23037
6.78467
6.3314
1
1
1
1.00001
1.00002
1.00004
1.00009
1.00025
1.00057
1.00148
1.00344
1.00865
1.02098
1.05155
1.12817
1.32539
1.8584
3.3161
6.8941
8.04288
7.95248
7.67767
7.20438
6.75603
6.32739
1
1
1
1
1.00001
1.00003
1.00007
1.00018
1.0004
1.00107
1.00238
1.00633
1.01439
1.03755
1.0888
1.22933
1.58891
2.5872
5.19982
7.70637
7.73893
7.59078
7.21847
6.75723
6.33018
1
1
1
1
1.00001
1.00002
1.00005
1.00012
1.00028
1.00071
1.0017
1.00412
1.01025
1.02437
1.06138
1.14931
1.38202
1.99297
3.58284
6.9948
7.60279
7.50145
7.21709
6.77249
6.34211
1
1
1
1
1.00001
1.00001
1.00003
1.00008
1.0002
1.00047
1.00121
1.00273
1.00721
1.0162
1.04293
1.09965
1.25977
1.66296
2.76708
5.53369
7.34977
7.33888
7.19317
6.83074
6.37311
1
1
1
1
1
1.00001
1.00002
1.00005
1.00013
1.00031
1.00079
1.00182
1.00471
1.01063
1.02799
1.0641
1.16611
1.41008
2.06723
3.6974
6.81414
7.2378
7.14055
6.87939
6.43538
1
1
1
1
1
1.00001
1.00002
1.00003
1.00009
1.00021
1.00052
1.00125
1.00299
1.00749
1.01748
1.0447
1.10623
1.2716
1.69554
2.82487
5.58797
7.0162
7.00811
6.86993
6.54176
1
1
1
1
1
1
1.00001
1.00002
1.00006
1.00014
1.00033
1.00082
1.00191
1.00489
1.01111
1.02897
1.06685
1.17185
1.42608
2.10336
3.77919
6.50778
6.89837
6.82017
6.59565
1
1
1
1
1
1
1.00001
1.00001
1.00004
1.00009
1.00022
1.00052
1.00125
1.00309
1.00724
1.01839
1.0428
1.10918
1.2657
1.6892
2.76736
5.3513
6.66626
6.68748
6.57935
1
1
1
1
1
1
1
1.00001
1.00002
1.00005
1.00014
1.00031
1.00082
1.00182
1.00481
1.01069
1.02815
1.06412
1.16557
1.40471
2.03825
3.56985
6.13524
6.57554
6.5231
1
1
1
1
1
1
1
1.00001
1.00001
1.00004
1.00008
1.0002
1.0005
1.00115
1.00297
1.0067
1.0175
1.0396
1.10296
1.24503
1.63651
2.60728
4.94391
6.32354
6.4044
1
1
1
1
1
1
1
1
1.00001
1.00002
1.00005
1.00013
1.00029
1.00075
1.00167
1.00432
1.00982
1.02491
1.05836
1.14584
1.35767
1.8973
3.17265
5.7401
6.28511
1
1
1
1
1
1
1
1
1.00001
1.00001
1.00003
1.00008
1.00018
1.00045
1.00103
1.00264
1.00595
1.01549
1.03492
1.09068
1.21398
1.55244
2.38557
4.42645
5.97292
1
1
1
1
1
1
1
1
1
1.00001
1.00002
1.00004
1.00011
1.00025
1.00065
1.00149
1.00367
1.00884
1.02097
1.05196
1.12418
1.30993
1.76908
2.87881
5.238
1
1
1
1
1
1
1
1
1
1
1.00001
1.00003
1.00006
1.00016
1.00037
1.0009
1.00218
1.00512
1.01282
1.02958
1.07488
1.17773
1.44993
2.11519
3.71582
1
1
1
1
1
1
1
1
1
1
1.00001
1.00002
1.00004
1.00009
1.00021
1.00054
1.00121
1.00313
1.00696
1.01814
1.04072
1.10478
1.24804
1.62513
2.52721
1
1
1
1
1
1
1
1
1
1
1
1.00001
1.00002
1.00005
1.00013
1.00028
1.00074
1.00164
1.0042
1.00947
1.02395
1.05537
1.13762
1.33101
1.81012
1
1
1
1
1
1
1
1
1
1
1
1.00001
1.00001
1.00003
1.00007
1.00018
1.00039
1.00101
1.00225
1.00574
1.01315
1.03257
1.07744
1.19035
1.46759
1
1
1
1
1
1
1
1
1
1
1
1
1.00001
1.00002
1.00004
1.00009
1.00024
1.00052
1.00135
1.00301
1.00769
1.01737
1.04384
1.10215
1.25444
1
1
1
1
1
1
1
1
1
1
1
1
1
1.00001
1.00002
1.00005
1.00012
1.00031
1.00068
1.00176
1.0039
1.00994
1.02252
1.05602
1.13154
1
1
1
1
1
1
1
1
1
1
1
1
1
1
1.00001
1.00003
1.00007
1.00016
1.0004
1.00092
1.00226
1.00534
1.01263
1.03091
1.07252
1
1
1
1
1
1
1
1
1
1
1
1
1
1
1.00001
1.00002
1.00004
1.00009
1.00022
1.00049
1.00126
1.00276
1.00712
1.01581
1.04041
1
1
1
1
1
1
1
1
1
1
1
1
1
1
1
1.00001
1.00002
1.00005
1.00011
1.00028
1.00062
1.00157
1.00354
1.00875
1.02036
1
1
1
1
1
1
1
1
1
1
1
1
1
1
1
1
1.00001
1.00002
1.00006
1.00014
1.00034
1.00081
1.0019
1.00467
1.01054
1
1
1
1
1
1
1
1
1
1
1
1
1
1
1
1
1.00001
1.00001
1.00003
1.00008
1.00018
1.00043
1.00103
1.00238
1.0059
1
1
1
1
1
1
1
1
1
1
1
1
1
1
1
1
1
1.00001
1.00002
1.00004
1.0001
1.00022
1.00056
1.00125
1.00315
1
1
1
1
1
1
1
1
1
1
1
1
1
1
1
1
1
1
1.00001
1.00002
1.00006
1.00013
1.00031
1.00074
1.00173
1
1
1
1
1
1
1
1
1
1
1
1
1
1
1
1
1
1
1.00001
1.00002
1.00004
1.00009
1.0002
1.00053
1.00118
1
1
1
1
1
1
1
1
1
1
1
1
1
1
1
1
1
1
1
1.00001
1.00003
1.00007
1.00017
1.00044
1.00104
1
1
1
1
1
1
1
1
1
1
1
1
1
1
1
1
1
1
1
1.00001
1.00003
1.00007
1.00017
1.00039
1.00103
3.03447
1.53815
1.04231
0.943442
0.9699
1.05221
1.22517
1.36212
1.40426
1.40237
1.39623
1.39272
1.39385
1.39762
1.40577
1.41456
1.41897
1.41958
1.41956
1.41973
1.42056
1.42295
1.4288
1.44221
1.47212
1.53825
1.68459
2.01158
2.72398
3.51832
3.58484
3.61219
3.57239
3.55643
3.5537
3.5768
3.62735
3.71006
3.82923
3.9801
4.13124
4.2654
4.37567
4.46246
4.53518
4.5874
4.61661
4.63173
4.63476
4.63112
4.61909
4.59577
4.56723
4.53583
4.50106
4.46431
4.42497
4.38408
4.34114
4.29698
4.25123
4.20454
4.15663
4.108
4.05838
4.00819
3.95726
3.90598
3.8543
3.80256
3.75077
3.69918
3.64775
3.59664
3.5458
3.49532
3.44515
3.39536
3.34594
3.29695
3.24843
3.2004
3.15294
3.10604
3.0598
3.01417
2.96927
2.92499
2.88144
2.83846
2.79627
2.75467
2.71387
2.67368
2.6346
2.59666
2.5605
2.52724
2.4988
2.48323
3.73589
2.3445
1.74939
1.49757
1.38021
1.29613
1.27667
1.28474
1.30751
1.35439
1.40004
1.41819
1.41769
1.41573
1.41169
1.4119
1.41295
1.41544
1.41952
1.42237
1.42351
1.42558
1.43017
1.44071
1.46489
1.51975
1.64351
1.92092
2.54186
3.45785
3.62787
3.60774
3.56109
3.54451
3.5555
3.5851
3.62442
3.68432
3.79039
3.95007
4.10092
4.23808
4.35002
4.44046
4.51374
4.56682
4.59844
4.61559
4.61977
4.6177
4.60902
4.58902
4.55913
4.52789
4.49414
4.45815
4.41939
4.3788
4.33622
4.29229
4.24683
4.20032
4.15261
4.10408
4.05463
4.00456
3.95382
3.90271
3.85126
3.79971
3.74811
3.69666
3.64537
3.59435
3.54362
3.49318
3.4431
3.39335
3.34402
3.29507
3.24665
3.19865
3.15129
3.1044
3.05826
3.01263
2.96781
2.92353
2.88003
2.83704
2.79496
2.75346
2.7128
2.6728
2.63367
2.5955
2.55904
2.52537
2.49593
2.47984
4.56045
3.26528
2.44876
1.93097
1.59614
1.38993
1.26864
1.25375
1.26119
1.2829
1.3282
1.37126
1.39968
1.41301
1.41399
1.41346
1.41221
1.41232
1.41286
1.41411
1.41634
1.41849
1.42245
1.43077
1.44895
1.48941
1.58088
1.78405
2.23417
3.18899
3.59663
3.60479
3.58463
3.57553
3.58408
3.60568
3.64175
3.71609
3.81611
3.94569
4.08242
4.2113
4.322
4.41265
4.48357
4.53652
4.57033
4.58963
4.59612
4.59509
4.58974
4.57576
4.54763
4.51621
4.48287
4.44765
4.40981
4.36992
4.32795
4.28448
4.23947
4.1933
4.14593
4.09765
4.04848
3.99864
3.94822
3.89738
3.84628
3.795
3.74374
3.6925
3.64147
3.59059
3.54004
3.4897
3.43976
3.39009
3.34089
3.29204
3.24375
3.19587
3.14863
3.1019
3.0559
3.01035
2.96563
2.92148
2.87815
2.8354
2.79334
2.75181
2.71112
2.67105
2.63191
2.59367
2.55695
2.52283
2.49226
2.4749
5.01487
3.84168
2.97288
2.36737
1.96061
1.68705
1.51433
1.40534
1.34144
1.32409
1.32756
1.33928
1.36432
1.39401
1.41475
1.42562
1.42549
1.42452
1.42224
1.41948
1.41963
1.42037
1.42269
1.42801
1.44008
1.46709
1.52773
1.66299
1.96728
2.63863
3.4606
3.61256
3.63674
3.64659
3.67201
3.72544
3.78498
3.83958
3.90139
3.98216
4.07563
4.17001
4.27131
4.36177
4.43529
4.49104
4.5283
4.55093
4.56081
4.5609
4.55844
4.54999
4.53047
4.49909
4.4655
4.43085
4.39411
4.35531
4.31435
4.27168
4.22738
4.18176
4.13493
4.08709
4.0384
3.98899
3.93907
3.8887
3.83809
3.78726
3.73643
3.68554
3.63485
3.58423
3.53391
3.48377
3.43403
3.38454
3.33555
3.28689
3.23883
3.19115
3.14408
3.09754
3.05181
3.00659
2.96208
2.918
2.87476
2.83204
2.79013
2.7487
2.70812
2.66809
2.62901
2.5907
2.55377
2.51915
2.48753
2.46856
5.28923
4.25934
3.42289
2.7904
2.32784
1.99114
1.74618
1.57038
1.44707
1.36974
1.32864
1.32874
1.3325
1.34315
1.36511
1.38657
1.40202
1.41148
1.41417
1.41397
1.41343
1.4136
1.41457
1.41754
1.42493
1.44211
1.48111
1.56944
1.76371
2.18566
3.08141
3.56418
3.69947
3.76523
3.85596
3.96007
4.02449
4.05541
4.07154
4.08048
4.09864
4.14038
4.20283
4.28506
4.36535
4.42939
4.47413
4.50273
4.51701
4.52086
4.5196
4.51477
4.50266
4.47771
4.44467
4.41014
4.37416
4.33639
4.2966
4.25497
4.21162
4.1668
4.1207
4.07351
4.02547
3.97668
3.92741
3.87764
3.82767
3.7774
3.72713
3.6767
3.62645
3.57616
3.52619
3.47631
3.42687
3.37761
3.32895
3.28056
3.23281
3.18544
3.13892
3.09265
3.04713
3.00202
2.95773
2.91382
2.87077
2.82816
2.78641
2.7451
2.70466
2.6647
2.62567
2.58733
2.55024
2.51522
2.48279
2.462
5.47357
4.58006
3.80328
3.17423
2.6829
2.30536
2.01725
1.79984
1.63701
1.51948
1.4349
1.38077
1.35206
1.35161
1.35443
1.36264
1.3797
1.3981
1.41278
1.42203
1.42406
1.42376
1.42296
1.42342
1.42582
1.43366
1.45419
1.50389
1.61779
1.87144
2.41907
3.35037
3.70179
3.93311
4.14891
4.31716
4.37124
4.36309
4.32549
4.23643
4.14934
4.1381
4.15262
4.19284
4.27015
4.34273
4.40046
4.44041
4.46343
4.47372
4.4735
4.47121
4.46428
4.44863
4.4187
4.38478
4.34929
4.31235
4.2737
4.23326
4.19108
4.1473
4.10219
4.0559
4.00875
3.9608
3.91236
3.86339
3.81419
3.76461
3.715
3.66514
3.6154
3.56554
3.51599
3.46644
3.41739
3.36845
3.3202
3.27226
3.22509
3.17814
3.13197
3.08601
3.0408
2.99592
2.95187
2.90818
2.86533
2.8229
2.78132
2.74018
2.69989
2.66005
2.62112
2.58283
2.54567
2.51038
2.47743
2.45504
5.60232
4.82437
4.11433
3.50773
3.00907
2.60804
2.28886
2.03666
1.83766
1.68245
1.56191
1.4739
1.40926
1.37118
1.3533
1.35371
1.35659
1.36383
1.37844
1.3918
1.40199
1.40812
1.41096
1.41213
1.41453
1.41992
1.43256
1.46196
1.53019
1.68451
2.03325
2.79705
3.6109
4.12972
4.58134
4.79807
4.79503
4.75194
4.62773
4.40234
4.23571
4.1521
4.13934
4.147
4.17518
4.23501
4.30123
4.35679
4.3943
4.41554
4.42209
4.42122
4.41741
4.40765
4.38694
4.35507
4.32017
4.28387
4.24622
4.20701
4.16621
4.12378
4.07999
4.03491
3.98893
3.94203
3.89464
3.84663
3.79837
3.74962
3.70079
3.65158
3.60244
3.5531
3.50407
3.45495
3.40645
3.35821
3.3106
3.26318
3.21646
3.1699
3.12406
3.07843
3.03355
2.98895
2.94518
2.90174
2.85916
2.81696
2.7756
2.73467
2.69458
2.65494
2.61616
2.57798
2.54083
2.50539
2.47213
2.44849
5.69429
5.01013
4.3645
3.79033
3.29897
2.88861
2.55055
2.27451
2.04997
1.8687
1.72285
1.60765
1.51791
1.45143
1.4033
1.37546
1.36186
1.36228
1.36489
1.37132
1.38426
1.39674
1.40692
1.41378
1.41589
1.41911
1.42636
1.44344
1.48372
1.57754
1.79119
2.26232
3.26448
4.25708
5.1675
5.36105
5.31791
5.1779
4.88608
4.58481
4.36095
4.21854
4.14459
4.1246
4.12739
4.14437
4.18442
4.24538
4.29858
4.33615
4.35675
4.36277
4.36149
4.35647
4.34429
4.31937
4.28641
4.25099
4.21427
4.1762
4.13683
4.09596
4.05382
4.0103
3.96578
3.9202
3.87405
3.82714
3.77993
3.73212
3.68413
3.63566
3.5872
3.53845
3.49002
3.44173
3.39397
3.34636
3.29934
3.25241
3.20612
3.15996
3.11449
3.06924
3.02473
2.9805
2.93706
2.89396
2.85168
2.80978
2.7687
2.72803
2.68818
2.64876
2.61017
2.57216
2.53511
2.49961
2.46623
2.4417
5.76132
5.15308
4.56604
4.02811
3.55289
3.14356
2.79643
2.50522
2.26219
2.06051
1.89348
1.75611
1.6439
1.55368
1.48303
1.42988
1.39231
1.37135
1.36221
1.36266
1.36488
1.37012
1.38027
1.38888
1.39679
1.40346
1.4101
1.42364
1.45263
1.51699
1.66159
1.98716
2.70542
4.19562
5.80606
5.92019
5.81736
5.54797
5.12621
4.77397
4.50885
4.31954
4.19383
4.12201
4.09559
4.09039
4.09918
4.12499
4.1772
4.22693
4.26473
4.28725
4.29434
4.29302
4.28756
4.27432
4.24747
4.21436
4.17876
4.14165
4.10354
4.06424
4.02392
3.98223
3.93948
3.89549
3.85079
3.80519
3.75917
3.71239
3.66534
3.61767
3.56998
3.52207
3.47456
3.4271
3.38011
3.33315
3.28671
3.24032
3.19451
3.14883
3.10381
3.059
3.01491
2.9711
2.92805
2.88533
2.8434
2.80184
2.76108
2.72071
2.68114
2.64198
2.60363
2.56582
2.52893
2.49347
2.46006
2.43489
5.81119
5.26494
4.72956
4.22792
3.77357
3.37217
3.02338
2.72392
2.46852
2.25193
2.06868
1.91429
1.78467
1.67667
1.58776
1.5157
1.45979
1.41712
1.38686
1.37006
1.36287
1.36333
1.36544
1.3704
1.38034
1.39078
1.40192
1.4145
1.44015
1.49469
1.61511
1.88609
2.50741
3.91041
6.29901
6.39557
6.24407
5.87709
5.38878
4.99271
4.68727
4.45539
4.28455
4.16506
4.09255
4.06153
4.04508
4.04885
4.06472
4.09966
4.14447
4.18273
4.20777
4.2172
4.21625
4.21138
4.19892
4.17322
4.14053
4.10453
4.06726
4.02914
3.99049
3.95072
3.90993
3.86781
3.82482
3.78072
3.73601
3.69033
3.64422
3.59747
3.55082
3.50399
3.45747
3.41082
3.36456
3.31825
3.27241
3.22661
3.18135
3.13622
3.09171
3.0474
3.00378
2.96042
2.91781
2.8755
2.83397
2.79279
2.75239
2.71236
2.67312
2.63426
2.59619
2.55863
2.52196
2.4866
2.45327
2.42761
5.85093
5.35486
4.86405
4.39674
3.96518
3.57603
3.23084
2.92852
2.66574
2.43875
2.24326
2.07544
1.93167
1.80895
1.70472
1.61684
1.54396
1.48439
1.43815
1.40269
1.37825
1.36434
1.36012
1.36084
1.36353
1.36966
1.38196
1.39959
1.42777
1.48513
1.60535
1.86538
2.43355
3.65549
6.146
6.6251
6.51018
6.20455
5.72577
5.28052
4.91929
4.63625
4.41843
4.25536
4.13869
4.06206
4.02219
3.99645
3.99357
4.00019
4.01923
4.05788
4.09367
4.11959
4.13347
4.13308
4.12954
4.11919
4.09717
4.06514
4.0292
3.992
3.95447
3.91617
3.87715
3.83694
3.79584
3.75345
3.71021
3.66573
3.62082
3.57535
3.52993
3.48418
3.43862
3.39284
3.34736
3.30179
3.25663
3.2115
3.16687
3.12234
3.0784
3.03465
2.99156
2.94871
2.90658
2.86474
2.82364
2.78288
2.74287
2.70321
2.66433
2.6258
2.58806
2.55078
2.51438
2.47917
2.44599
2.41996
5.88311
5.42846
4.97635
4.54083
4.13243
3.75786
3.41981
3.11852
2.8523
2.61849
2.41404
2.23571
2.08054
1.94576
1.82906
1.72834
1.64216
1.56894
1.50817
1.4583
1.41998
1.39063
1.37127
1.36208
1.36285
1.36636
1.37532
1.39425
1.43221
1.50755
1.66075
1.97555
2.62416
3.58287
5.1481
6.26243
6.38419
6.28837
6.02935
5.60441
5.19815
4.86699
4.60094
4.39398
4.23449
4.11515
4.03131
3.97998
3.94826
3.93041
3.93269
3.94318
3.96671
4.00014
4.02644
4.04249
4.04562
4.04339
4.03573
4.01841
3.98809
3.95358
3.91705
3.87942
3.84144
3.80276
3.76345
3.72287
3.68123
3.63841
3.59511
3.55112
3.50697
3.46234
3.41778
3.37294
3.32833
3.28359
3.23921
3.19482
3.1509
3.10705
3.06376
3.02063
2.97812
2.93583
2.89423
2.85289
2.81227
2.77196
2.73238
2.69314
2.65464
2.61649
2.5791
2.54214
2.50605
2.47105
2.43809
2.41175
5.91099
5.49086
5.0726
4.66608
4.28007
3.92081
3.59179
3.29405
3.02709
2.78929
2.57843
2.39212
2.22779
2.08324
1.95617
1.8449
1.74765
1.66323
1.59056
1.52861
1.47738
1.4349
1.40434
1.37955
1.37682
1.3795
1.38887
1.41248
1.46422
1.57356
1.79837
2.25641
2.98778
3.57402
4.23381
5.16508
5.91611
6.09763
6.04019
5.85679
5.49722
5.15836
4.84195
4.585
4.38048
4.21876
4.09279
3.99983
3.93702
3.89796
3.86861
3.86106
3.86504
3.87755
3.90335
3.92825
3.94652
3.95442
3.95327
3.9483
3.9358
3.91055
3.87798
3.84135
3.80389
3.76601
3.7279
3.68879
3.64893
3.60809
3.56668
3.52433
3.48161
3.43823
3.39479
3.35098
3.30735
3.26353
3.22003
3.17648
3.13337
3.0903
3.04775
3.00532
2.96348
2.92182
2.88081
2.84001
2.79992
2.76009
2.72099
2.68218
2.64411
2.60635
2.56936
2.53275
2.49701
2.46226
2.42957
2.403
5.94109
5.54866
5.15948
4.77828
4.41265
4.06829
3.74884
3.45611
3.19019
2.95047
2.73527
2.54305
2.3715
2.21908
2.08345
1.96344
1.85702
1.76336
1.68103
1.6092
1.54777
1.49456
1.45393
1.41797
1.41059
1.41403
1.42727
1.46188
1.54074
1.70837
2.0507
2.71123
3.24925
3.55625
3.81853
4.22783
4.85281
5.47409
5.77331
5.7494
5.64215
5.40131
5.11834
4.83287
4.58326
4.37589
4.20685
4.07174
3.96815
3.89325
3.84496
3.80853
3.78494
3.78572
3.79113
3.8037
3.82771
3.84649
3.85951
3.8599
3.85746
3.84937
3.83155
3.80028
3.76524
3.72803
3.69021
3.65189
3.61356
3.57456
3.53504
3.4945
3.45343
3.41153
3.36942
3.32679
3.28425
3.24146
3.19895
3.15635
3.11416
3.07196
3.03026
2.9886
2.94752
2.90654
2.86618
2.826
2.78647
2.74718
2.70859
2.67026
2.63266
2.59535
2.55879
2.52259
2.48724
2.45278
2.42041
2.39365
5.97954
5.60717
5.24053
4.88082
4.53284
4.20217
3.89216
3.60507
3.34148
3.10139
2.88357
2.68723
2.51016
2.35158
2.20901
2.08181
1.96783
1.86644
1.77619
1.6962
1.62649
1.56474
1.51645
1.47272
1.46893
1.47477
1.49625
1.55356
1.683
1.95575
2.51096
3.08166
3.3943
3.53208
3.62817
3.78058
4.03596
4.44225
4.98859
5.38579
5.4767
5.43945
5.31957
5.077
4.83768
4.58834
4.37552
4.19821
4.05315
3.93819
3.85138
3.79135
3.74744
3.71542
3.70067
3.70247
3.70947
3.72467
3.74463
3.75905
3.7657
3.76451
3.75943
3.74701
3.72182
3.68842
3.65129
3.61336
3.57573
3.53789
3.49992
3.46116
3.42191
3.38176
3.34125
3.30006
3.25883
3.21723
3.17585
3.13432
3.09316
3.05193
3.01117
2.9704
2.93015
2.88995
2.85031
2.8108
2.77192
2.73322
2.69519
2.6574
2.62031
2.58349
2.5474
2.51163
2.47672
2.44259
2.41059
2.38369
6.03439
5.66873
5.31736
4.97422
4.64187
4.32348
4.02278
3.74179
3.48138
3.24227
3.0232
2.82424
2.64324
2.47981
2.3319
2.19866
2.07862
1.97064
1.8739
1.7872
1.71054
1.64332
1.58795
1.54847
1.55037
1.56338
1.60428
1.70543
1.92755
2.38891
2.9907
3.33716
3.4747
3.52114
3.53967
3.57088
3.64578
3.79993
4.06651
4.48896
4.92517
5.21255
5.20948
5.16265
5.04027
4.80647
4.59778
4.37881
4.19305
4.03923
3.91247
3.81348
3.7395
3.68844
3.64705
3.62036
3.6149
3.61754
3.62548
3.64193
3.6576
3.66858
3.66874
3.66642
3.65885
3.64196
3.61034
3.57429
3.53713
3.49963
3.46234
3.42479
3.38715
3.3488
3.31009
3.27064
3.23101
3.19088
3.15083
3.11053
3.07051
3.03036
2.9906
2.95079
2.91142
2.87206
2.83321
2.79443
2.75623
2.71818
2.68076
2.64356
2.60703
2.57074
2.53517
2.49989
2.46545
2.4317
2.40011
2.37314
6.10736
5.73265
5.3895
5.05992
4.74031
4.43362
4.14166
3.8674
3.61081
3.37366
3.1547
2.95415
2.77076
2.60353
2.45163
2.31343
2.18846
2.07502
1.97282
1.88078
1.79849
1.72874
1.66869
1.65039
1.65733
1.68613
1.76542
1.94778
2.33293
2.96292
3.35532
3.50085
3.52416
3.51874
3.49794
3.4615
3.46671
3.50063
3.58939
3.7678
4.05243
4.4606
4.79393
4.98224
4.96852
4.90846
4.77224
4.57035
4.3828
4.19288
4.02782
3.89201
3.77968
3.69201
3.62881
3.58211
3.54706
3.52642
3.52702
3.53077
3.5393
3.55542
3.56717
3.57288
3.57177
3.56701
3.55515
3.53069
3.4979
3.46144
3.42444
3.38729
3.35045
3.31333
3.27621
3.23854
3.2007
3.1623
3.12383
3.08497
3.04624
3.00729
2.96861
2.9298
2.89137
2.85289
2.81486
2.77687
2.7394
2.70206
2.66531
2.62875
2.59282
2.55712
2.52211
2.48735
2.45344
2.42009
2.38897
2.362
6.18018
5.79881
5.45806
5.13806
4.8303
4.53445
4.25087
3.983
3.73126
3.49642
3.27876
3.07751
2.89271
2.72291
2.56775
2.42591
2.29661
2.17895
2.07217
1.97581
1.89099
1.81872
1.77229
1.77538
1.7955
1.85839
2.01067
2.33356
2.97817
3.42471
3.59194
3.60071
3.58863
3.55094
3.47567
3.41306
3.37497
3.36632
3.37847
3.42603
3.53159
3.71466
3.98988
4.33801
4.6029
4.73738
4.72295
4.66608
4.53566
4.3556
4.18922
4.02438
3.87494
3.753
3.65258
3.57465
3.52028
3.47763
3.44855
3.43673
3.43799
3.44263
3.45276
3.46592
3.47539
3.47537
3.47326
3.46612
3.45014
3.41984
3.38592
3.34975
3.31326
3.27661
3.24041
3.20411
3.16794
3.13133
3.09463
3.05744
3.02023
2.98264
2.94518
2.90748
2.87005
2.8325
2.79533
2.75816
2.72146
2.68486
2.64882
2.61294
2.57768
2.54261
2.50821
2.47403
2.44069
2.40781
2.37719
2.35026
6.30319
5.88721
5.53088
5.21357
4.91413
4.62725
4.3524
4.09071
3.84379
3.61212
3.39595
3.19524
3.00942
2.8382
2.68046
2.53583
2.40315
2.28195
2.17196
2.07256
1.98899
1.91883
1.91291
1.9263
1.97637
2.11078
2.40564
3.00985
3.52849
3.73162
3.73631
3.71915
3.66721
3.56286
3.46931
3.39925
3.34392
3.30541
3.27806
3.27846
3.2926
3.34238
3.44945
3.62114
3.86651
4.1603
4.38112
4.49567
4.48267
4.43357
4.32204
4.16043
4.0115
3.86821
3.73113
3.61963
3.52987
3.46214
3.41476
3.37727
3.35302
3.34747
3.34914
3.3543
3.36509
3.37569
3.38058
3.3796
3.37538
3.36438
3.34183
3.31069
3.27602
3.24
3.20429
3.16875
3.1337
3.09852
3.06343
3.0279
2.99231
2.95622
2.92013
2.88366
2.84734
2.8108
2.77457
2.73828
2.70242
2.66662
2.63134
2.5962
2.56165
2.52725
2.49351
2.45994
2.42721
2.39483
2.36477
2.33794
6.34489
5.97887
5.61103
5.28954
4.99475
4.71508
4.44763
4.19249
3.94997
3.72157
3.50743
3.30755
3.12167
2.94934
2.79009
2.64307
2.50804
2.38421
2.2721
2.17417
2.09225
2.06173
2.07183
2.11498
2.23652
2.51154
3.08453
3.67532
3.91884
3.92234
3.90045
3.83456
3.70242
3.58153
3.48271
3.40209
3.33771
3.28911
3.24198
3.20649
3.1788
3.17933
3.19284
3.23824
3.33545
3.49338
3.7045
3.95792
4.14855
4.26289
4.25267
4.21367
4.12702
3.98505
3.84853
3.71993
3.59497
3.49296
3.41336
3.35454
3.31033
3.278
3.25925
3.25938
3.26131
3.26653
3.27722
3.28479
3.28452
3.2822
3.27558
3.26076
3.23321
3.20117
3.16732
3.13276
3.0985
3.06431
3.03047
2.9964
2.96237
2.92786
2.89328
2.8582
2.82316
2.78776
2.75257
2.71724
2.68228
2.64733
2.61287
2.57852
2.54471
2.51105
2.47801
2.4451
2.41303
2.3812
2.35173
2.32507
6.3227
6.10161
5.71353
5.37388
5.07538
4.79957
4.5379
4.28822
4.05098
3.82583
3.61391
3.41534
3.22976
3.05704
2.8966
2.74815
2.61137
2.48625
2.37552
2.28092
2.22878
2.2353
2.27094
2.37813
2.6332
3.17478
3.85511
4.14854
4.1526
4.12612
4.04619
3.88731
3.74377
3.62446
3.52403
3.43668
3.35959
3.29001
3.23287
3.18251
3.13486
3.0976
3.06917
3.0664
3.07754
3.11631
3.19985
3.34315
3.52288
3.74454
3.91617
4.039
4.0331
4.00747
3.9487
3.82763
3.6984
3.57747
3.46533
3.37286
3.3011
3.24816
3.20789
3.18114
3.17049
3.17112
3.17384
3.18008
3.18782
3.18994
3.18892
3.18504
3.17496
3.15471
3.12705
3.09545
3.06272
3.02954
2.99662
2.96361
2.93084
2.89775
2.86464
2.83102
2.79734
2.76321
2.72919
2.69493
2.66096
2.62696
2.59339
2.55989
2.5269
2.49403
2.46173
2.42954
2.39818
2.36695
2.33812
2.31168
6.25769
6.12409
5.83053
5.47129
5.16068
4.88367
4.62564
4.38052
4.14724
3.92586
3.71624
3.51922
3.3344
3.16167
3.00069
2.85146
2.71418
2.59055
2.48502
2.4114
2.41474
2.44406
2.5404
2.78328
3.30191
4.06572
4.41321
4.42059
4.38948
4.29466
4.11191
3.94587
3.80729
3.68922
3.58462
3.48936
3.40127
3.31972
3.24484
3.17819
3.12232
3.06755
3.01862
2.97963
2.9506
2.94391
2.95279
2.98428
3.05303
3.17991
3.3341
3.52707
3.69054
3.81695
3.83356
3.81724
3.77323
3.67995
3.55551
3.44073
3.34133
3.25749
3.19092
3.14167
3.10672
3.08715
3.08312
3.08407
3.08705
3.09312
3.09854
3.09832
3.09641
3.0906
3.07792
3.0534
3.02508
2.99406
2.96228
2.93011
2.89825
2.86626
2.83441
2.80216
2.76987
2.7371
2.70436
2.67131
2.63847
2.60552
2.57292
2.54036
2.50824
2.4762
2.44471
2.41328
2.38266
2.35209
2.32393
2.29778
6.15694
6.09411
5.91932
5.57186
5.25067
4.96881
4.71167
4.46994
4.24036
4.02221
3.81564
3.62008
3.43607
3.26375
3.10274
2.95404
2.81805
2.7029
2.60858
2.60834
2.63176
2.71604
2.94161
3.42327
4.29112
4.70386
4.71666
4.68121
4.57295
4.36739
4.17961
4.02238
3.88753
3.76717
3.65648
3.55293
3.45543
3.36357
3.27735
3.19742
3.12345
3.05983
3.00144
2.9462
2.89666
2.85693
2.82747
2.81662
2.82327
2.84735
2.90178
3.00784
3.14512
3.31217
3.47429
3.59643
3.64766
3.63803
3.60525
3.53221
3.42378
3.31729
3.21927
3.1383
3.07713
3.03361
3.007
2.99319
2.99369
2.99564
2.99974
3.00721
3.01047
3.00972
3.00644
2.99807
2.98083
2.95548
2.92684
2.89626
2.86533
2.83413
2.80318
2.772
2.74091
2.70944
2.67801
2.64627
2.61467
2.58291
2.55142
2.5199
2.48875
2.45762
2.427
2.39638
2.36657
2.3367
2.30927
2.28347
5.98384
5.99483
5.91162
5.70223
5.36158
5.06184
4.79899
4.55791
4.33115
4.11597
3.91164
3.71827
3.5356
3.36402
3.20427
3.05754
2.93059
2.82705
2.80929
2.83107
2.91278
3.13203
3.60506
4.53142
5.00411
5.03449
4.9956
4.876
4.64787
4.43899
4.2637
4.11281
3.97747
3.85227
3.73447
3.62275
3.51667
3.416
3.32081
3.23111
3.14717
3.0694
2.99853
2.93677
2.87665
2.82179
2.77251
2.73198
2.70211
2.68719
2.69194
2.70982
2.75253
2.83719
2.96052
3.10652
3.26515
3.38448
3.4705
3.46364
3.43939
3.39357
3.31074
3.21217
3.11948
3.04218
2.98295
2.94175
2.91831
2.90719
2.90778
2.9102
2.91518
2.92253
2.92287
2.9216
2.91707
2.90665
2.88587
2.86013
2.83161
2.80162
2.77149
2.7411
2.71091
2.68048
2.65024
2.61978
2.5895
2.55905
2.52879
2.49844
2.46837
2.43826
2.40858
2.37885
2.34991
2.3208
2.29414
2.26879
5.54682
5.88851
5.86107
5.74055
5.47906
5.1641
4.88982
4.6461
4.42075
4.20808
4.00615
3.81448
3.63321
3.4637
3.30682
3.16959
3.05606
3.02539
3.04591
3.127
3.34861
3.83349
4.80765
5.33873
5.37987
5.3369
5.20289
4.9505
4.7199
4.52667
4.36035
4.21068
4.07162
3.94013
3.81489
3.6954
3.58151
3.47315
3.37031
3.27294
3.18105
3.09462
3.01402
2.939
2.87172
2.81036
2.75087
2.69623
2.64781
2.60686
2.57755
2.5589
2.56201
2.57498
2.60726
2.67297
2.78091
2.91308
3.062
3.18733
3.28876
3.302
3.29007
3.25534
3.18203
3.09197
3.01149
2.94503
2.89385
2.85662
2.83526
2.82555
2.82618
2.82867
2.8333
2.83825
2.83777
2.83546
2.82913
2.8158
2.79377
2.76741
2.73919
2.70988
2.68044
2.65079
2.62147
2.59213
2.56308
2.53394
2.50499
2.47591
2.44705
2.41808
2.38946
2.36072
2.33272
2.30447
2.27863
2.25382
4.56576
5.64469
5.76949
5.71819
5.57334
5.27876
4.99026
4.73873
4.5117
4.29989
4.09958
3.90981
3.73108
3.56471
3.41786
3.29556
3.25409
3.27402
3.35618
3.58429
4.08996
5.11147
5.70755
5.75649
5.70748
5.55486
5.27539
5.02144
4.80964
4.62782
4.46412
4.31153
4.16667
4.02818
3.89558
3.7688
3.64781
3.53261
3.4231
3.31921
3.22078
3.12772
3.03996
2.95743
2.88052
2.80891
2.74478
2.68334
2.62568
2.57197
2.52505
2.48378
2.45487
2.43311
2.43495
2.44403
2.46764
2.51799
2.61141
2.73291
2.86879
3.0046
3.10975
3.15589
3.14628
3.11707
3.05554
2.98066
2.91296
2.85566
2.80915
2.77589
2.75744
2.74883
2.74947
2.75165
2.75448
2.75625
2.75529
2.7518
2.74349
2.7265
2.70364
2.67702
2.64922
2.62069
2.59228
2.56388
2.53588
2.50789
2.48017
2.45237
2.42477
2.39703
2.36959
2.34197
2.31503
2.28774
2.26281
2.23866
2.89421
5.0682
5.63763
5.64543
5.57631
5.40533
5.11028
4.84247
4.60711
4.39271
4.19262
4.00483
3.82986
3.67431
3.54409
3.49507
3.51518
3.60031
3.83953
4.37112
5.4478
6.09474
6.15098
6.0964
5.92764
5.62135
5.34374
5.11299
4.91538
4.73741
4.57113
4.41278
4.2609
4.1151
3.97535
3.84171
3.71421
3.5928
3.47734
3.36768
3.26363
3.165
3.07159
2.98326
2.89992
2.82153
2.74827
2.68047
2.61891
2.55846
2.50245
2.45017
2.40463
2.36423
2.33522
2.31218
2.3113
2.31706
2.3349
2.37553
2.45419
2.56382
2.69079
2.83149
2.94406
3.01532
3.00805
2.98452
2.93856
2.87583
2.81798
2.76754
2.72671
2.69916
2.68358
2.67601
2.67589
2.67665
2.67786
2.67758
2.67557
2.67025
2.65888
2.63842
2.61492
2.58915
2.56254
2.53543
2.50847
2.4815
2.45483
2.42816
2.40175
2.37524
2.34904
2.32261
2.29684
2.27066
2.24672
2.22342
2.15315
3.77069
5.26692
5.55371
5.53763
5.44681
5.24139
4.95831
4.70757
4.48648
4.28579
4.10128
3.93779
3.80064
3.74745
3.76871
3.85927
4.11545