/*--------------------------------*- C++ -*----------------------------------*\
  =========                 |
  \\      /  F ield         | OpenFOAM: The Open Source CFD Toolbox
   \\    /   O peration     | Website:  https://openfoam.org
    \\  /    A nd           | Version:  9
     \\/     M anipulation  |
\*---------------------------------------------------------------------------*/
FoamFile
{
    format      ascii;
    class       surfaceScalarField;
    location    "3";
    object      phi;
}
// * * * * * * * * * * * * * * * * * * * * * * * * * * * * * * * * * * * * * //

dimensions      [1 0 -1 0 0 0 0];

internalField   nonuniform List<scalar> 
10325
(
0.00840002
-1.14186e-11
0.00840002
9.55591e-10
0.00840001
6.94802e-10
0.00840001
9.42894e-09
0.00840002
5.97797e-09
0.00839973
6.23101e-08
0.00840044
2.72675e-08
0.00839754
3.72967e-07
0.00840277
2.35331e-07
0.00839136
1.93629e-06
0.00840076
2.67573e-06
0.00838091
1.07609e-05
0.00835945
2.97277e-05
0.00824415
0.000114541
0.00767538
0.00058003
0.00700362
0.000670044
0.00636555
0.000635807
0.00570731
0.000656326
0.00501648
0.000688725
0.00428532
0.000729537
0.00350455
0.000779906
0.00267335
0.000828056
0.00180486
0.00086626
0.000909681
0.000894726
0.000908478
0.00840002
2.29985e-10
0.00840005
8.83166e-10
0.00839995
4.42442e-09
0.00840021
8.54892e-09
0.00839956
3.29098e-08
0.00840115
5.31036e-08
0.00839744
2.17034e-07
0.00840594
3.15334e-07
0.00838735
1.32351e-06
0.00841989
2.259e-06
0.00836595
7.7397e-06
0.00841429
1.89696e-05
0.00833465
6.32025e-05
0.00824897
0.000228203
0.00768694
0.00114726
0.00699981
0.00135513
0.00636935
0.00126381
0.00572065
0.00130315
0.00503487
0.00137245
0.00429715
0.00146568
0.00350968
0.00156657
0.00267437
0.00166031
0.00180008
0.00173838
0.000899639
0.00179476
0.00180696
0.00840002
2.29902e-10
0.00840003
1.57671e-09
0.00839998
5.36341e-09
0.00840012
1.53887e-08
0.0083998
3.98241e-08
0.00840031
1.10942e-07
0.00839931
2.28584e-07
0.00840007
7.57052e-07
0.00839773
1.31526e-06
0.00840017
4.68028e-06
0.00838889
9.46889e-06
0.00839343
3.05124e-05
0.00835256
9.0724e-05
0.00825692
0.000334154
0.00775932
0.00165384
0.00706145
0.00205098
0.00642993
0.00189303
0.00578697
0.00194433
0.00510686
0.00205074
0.00436909
0.00220181
0.00357752
0.00235731
0.00273366
0.00250077
0.00184603
0.00262358
0.000925216
0.00271535
0.00273126
0.00840003
3.78962e-10
0.00840001
1.86925e-09
0.00840007
7.5519e-09
0.00839991
1.82973e-08
0.00840027
5.60378e-08
0.00839946
1.17092e-07
0.00840099
3.73825e-07
0.00839759
6.92827e-07
0.00840299
2.3882e-06
0.00839136
4.42204e-06
0.00840588
1.45508e-05
0.00837473
3.56205e-05
0.00837336
0.000117241
0.00828366
0.000415286
0.00790933
0.0020395
0.00720675
0.00275253
0.00656332
0.0025341
0.00591994
0.00258584
0.0052428
0.00272599
0.0045065
0.00293631
0.00371059
0.00315269
0.00285779
0.00335091
0.0019467
0.00353343
0.000983053
0.00367948
0.0037142
0.00840002
2.60372e-10
0.00840002
2.62337e-09
0.00840001
6.52492e-09
0.00840003
2.58986e-08
0.00840001
4.9139e-08
0.00839984
1.74205e-07
0.00840039
3.01461e-07
0.00839809
1.09941e-06
0.00840269
1.89186e-06
0.00839295
6.68549e-06
0.0084035
1.38209e-05
0.00838873
4.37664e-05
0.00838291
0.00012832
0.00833489
0.000462723
0.00817368
0.00221124
0.00746554
0.00345905
0.00678841
0.00320925
0.00613442
0.0032384
0.00545736
0.00340143
0.00472207
0.0036706
0.0039204
0.00395366
0.00304648
0.0042233
0.00209912
0.00447998
0.00107522
0.00470382
0.00478935
0.00840002
3.90516e-10
0.00840003
2.11082e-09
0.00840002
8.35151e-09
0.00840002
2.09008e-08
0.00839996
6.12491e-08
0.0084002
1.43158e-07
0.00839921
3.82417e-07
0.00840188
9.15003e-07
0.00839518
2.36074e-06
0.00840798
5.84427e-06
0.00838978
1.52576e-05
0.00840951
4.14274e-05
0.0083984
0.000126733
0.00843156
0.000439978
0.00863816
0.00200948
0.00791626
0.00418074
0.0071485
0.00397533
0.00646211
0.00392332
0.00577213
0.0040895
0.00503462
0.00440683
0.00422335
0.0047643
0.00332453
0.00512094
0.00232679
0.00547662
0.00121504
0.00581607
0.00600448
0.00840003
4.04122e-10
0.00840002
1.86609e-09
0.00840006
8.15592e-09
0.00839996
1.82899e-08
0.00840015
6.00827e-08
0.00839984
1.21373e-07
0.00840016
3.82179e-07
0.00840002
7.45495e-07
0.00839985
2.3263e-06
0.00840048
4.76495e-06
0.00840526
1.40413e-05
0.00840304
3.44753e-05
0.00843633
0.000105951
0.00852117
0.000350594
0.00901515
0.00151906
0.00843188
0.00476626
0.00756255
0.00484414
0.00685517
0.00462966
0.00617009
0.00477399
0.00543392
0.00514091
0.0046132
0.0055852
0.00369122
0.00604138
0.00264427
0.00652123
0.00142807
0.00703327
0.00743334
0.00840003
2.19481e-10
0.00840001
2.33539e-09
0.00840006
5.50422e-09
0.00839994
2.29349e-08
0.00840028
4.28445e-08
0.0083994
1.46526e-07
0.00840175
2.82038e-07
0.00839642
8.73122e-07
0.00840953
1.79488e-06
0.00838407
5.18046e-06
0.0084282
1.18739e-05
0.00837533
3.34837e-05
0.00843628
9.46687e-05
0.008443
0.000316082
0.00864088
0.00133205
0.00836811
0.00504105
0.00768227
0.00553052
0.00712689
0.00518404
0.00650316
0.00539674
0.00582932
0.0058127
0.00504513
0.00636891
0.00413389
0.00695143
0.00306669
0.00758706
0.00175175
0.00834842
0.00918651
0.00840003
3.99272e-10
0.00840004
1.60299e-09
0.0084
7.96967e-09
0.00840009
1.58055e-08
0.00839984
5.80181e-08
0.00840053
1.08963e-07
0.00839873
3.59869e-07
0.00840333
6.93669e-07
0.00839305
2.14944e-06
0.00841491
4.4586e-06
0.00837778
1.28899e-05
0.00842695
3.14469e-05
0.00838427
9.43212e-05
0.00842035
0.000304397
0.00851452
0.0012321
0.00822502
0.00533504
0.00795237
0.005803
0.00736103
0.00577463
0.00676434
0.00599205
0.00617907
0.00639559
0.00549188
0.00705522
0.00466977
0.00777254
0.00367047
0.00858506
0.00228224
0.00973653
0.0114705
0.00840003
2.46872e-10
0.00840002
2.26202e-09
0.00840004
5.96573e-09
0.00839998
2.2157e-08
0.00840015
4.49652e-08
0.00839964
1.4588e-07
0.00840104
2.82968e-07
0.00839735
8.99694e-07
0.00840654
1.75571e-06
0.00838699
5.44049e-06
0.00842211
1.1635e-05
0.00837226
3.41298e-05
0.00842398
9.20155e-05
0.00838491
0.000304104
0.00847006
0.00116843
0.00832666
0.00547762
0.00792225
0.00620719
0.0074981
0.00619805
0.0070538
0.00643502
0.00654867
0.00689815
0.00600729
0.00759569
0.005371
0.00840823
0.00447572
0.00947959
0.00316418
0.0110473
0.0146363
0.00840003
3.58987e-10
0.00840003
1.92771e-09
0.00840003
7.42155e-09
0.00840001
1.90516e-08
0.00840003
5.56689e-08
0.00840004
1.25125e-07
0.00839974
3.5882e-07
0.00840067
7.54107e-07
0.00839755
2.24567e-06
0.00840382
4.65158e-06
0.00839255
1.38009e-05
0.00840492
3.23548e-05
0.00839345
9.65263e-05
0.0084029
0.000300509
0.00844338
0.00112554
0.00851048
0.00541369
0.00809401
0.00662367
0.00767305
0.00661857
0.00733252
0.00677425
0.00696127
0.00726742
0.00659691
0.00795827
0.00616891
0.008835
0.00575469
0.00989309
0.00571362
0.0110883
0.0114517
0.00889927
0.00840003
3.04714e-10
0.00840003
2.05636e-09
0.00840001
6.94883e-09
0.00840008
2.01719e-08
0.00839994
5.1755e-08
0.00840024
1.36951e-07
0.00839966
3.2048e-07
0.00840047
8.77276e-07
0.00839902
1.92091e-06
0.00840097
5.51968e-06
0.00839679
1.22629e-05
0.0084051
3.49631e-05
0.00839245
9.24838e-05
0.00841461
0.000294336
0.00847715
0.00105685
0.0089128
0.00498107
0.00846169
0.00707561
0.00799506
0.00708529
0.00764655
0.00712186
0.00736127
0.00755103
0.00710185
0.008216
0.00690425
0.00903115
0.00686831
0.00992784
0.00731135
0.0106441
0.0104366
0.0083272
0.00840003
2.84123e-10
0.00840002
1.96601e-09
0.00840005
6.28866e-09
0.00839999
1.92883e-08
0.00840013
4.74106e-08
0.00839984
1.27005e-07
0.00840047
3.04325e-07
0.00839938
7.78523e-07
0.00840122
1.92221e-06
0.00839834
4.78615e-06
0.00840481
1.21691e-05
0.00839664
3.12881e-05
0.00842228
8.56163e-05
0.00843798
0.000259759
0.00859867
0.000907308
0.00965023
0.00392935
0.00908003
0.00764578
0.00848713
0.00767794
0.00809798
0.00751033
0.0078318
0.00781631
0.00765696
0.00838938
0.00762504
0.00906134
0.0078459
0.00970587
0.00838625
0.0101023
0.00981165
0.00901104
0.00840003
2.88246e-10
0.00840003
1.44106e-09
0.00840003
5.96182e-09
0.00840004
1.42518e-08
0.00840001
4.41654e-08
0.00840014
9.46171e-08
0.00839978
2.7766e-07
0.00840114
5.84377e-07
0.00839811
1.67729e-06
0.00840762
3.58956e-06
0.00839199
1.01613e-05
0.00842901
2.32198e-05
0.00841496
6.55164e-05
0.00852123
0.000183207
0.00880224
0.000608297
0.0102766
0.00246276
0.00977739
0.00814413
0.00931236
0.00814361
0.00870722
0.0081145
0.00838602
0.00813636
0.00825851
0.00851609
0.00830473
0.00901394
0.00855445
0.00945526
0.00901822
0.00963731
0.00931103
0.0095178
0.00840003
1.82508e-10
0.00840003
1.47428e-09
0.00840003
4.28457e-09
0.00840003
1.44165e-08
0.00840006
3.20583e-08
0.00839995
9.49004e-08
0.00840036
2.02258e-07
0.00839929
5.77715e-07
0.00840274
1.23933e-06
0.00839554
3.45334e-06
0.00841426
7.67893e-06
0.00838753
2.10041e-05
0.00844109
5.16865e-05
0.00843328
0.000150461
0.00859889
0.000475839
0.00919795
0.00184567
0.00991645
0.00743021
0.00958904
0.00847117
0.00916569
0.00853782
0.00888826
0.00841267
0.00878925
0.00861414
0.00886055
0.00894125
0.009094
0.00922062
0.0094674
0.0092627
0.00891121
0.00986668
0.00840003
1.8899e-10
0.00840003
1.16315e-09
0.00840002
4.13041e-09
0.00840004
1.14302e-08
0.0084
3.07421e-08
0.00840014
7.5976e-08
0.00839976
1.92904e-07
0.00840098
4.69632e-07
0.00839809
1.17546e-06
0.00840615
2.87073e-06
0.00839061
7.19726e-06
0.00842394
1.79799e-05
0.00838405
4.66705e-05
0.00845519
0.000129079
0.00848643
0.000403646
0.00888143
0.00147184
0.00989221
0.00641507
0.00976647
0.00859703
0.00953838
0.00876549
0.00930408
0.00864688
0.0092279
0.00868926
0.00930612
0.00886214
0.00951468
0.00901173
0.00981153
0.00896477
0.00860539
0.0101163
0.00840003
1.74715e-10
0.00840003
9.62019e-10
0.00840003
3.72949e-09
0.00840004
9.49988e-09
0.00840001
2.75169e-08
0.00840011
6.41576e-08
0.00839986
1.7228e-07
0.0084007
4.01292e-07
0.00839869
1.04683e-06
0.00840454
2.49826e-06
0.00839314
6.37008e-06
0.00841956
1.58299e-05
0.00838724
4.08663e-05
0.00845074
0.000110825
0.00847823
0.000336252
0.00880118
0.00117116
0.0103756
0.00483514
0.0102155
0.0087568
0.00997432
0.00900617
0.00970239
0.0089186
0.00962571
0.00876555
0.00968301
0.00880354
0.00985046
0.00884342
0.0100824
0.00873245
0.00837698
0.0103099
0.00840003
1.28966e-10
0.00840003
7.91068e-10
0.00840004
2.79413e-09
0.00840002
7.77308e-09
0.00840008
2.09143e-08
0.00839997
5.10627e-08
0.0084003
1.31947e-07
0.00839979
3.11025e-07
0.00840125
8.02677e-07
0.0083995
1.87468e-06
0.00840499
4.86168e-06
0.00840187
1.14768e-05
0.00842586
3.0033e-05
0.00843879
7.67385e-05
0.00857639
0.000222088
0.0090198
0.000714607
0.0110781
0.00277894
0.01092
0.00891455
0.0106713
0.0092549
0.010311
0.00927886
0.0100865
0.00898989
0.010059
0.00883011
0.0101575
0.00874418
0.0103186
0.00857039
0.00821559
0.0104798
0.00840003
9.12673e-11
0.00840003
6.52856e-10
0.00840003
2.07539e-09
0.00840002
6.44346e-09
0.00840006
1.55298e-08
0.00839998
4.26735e-08
0.00840026
9.74314e-08
0.00839967
2.61609e-07
0.00840155
5.90553e-07
0.00839805
1.57707e-06
0.00840843
3.60099e-06
0.0083915
9.48978e-06
0.00843354
2.26352e-05
0.00839865
6.02947e-05
0.00851553
0.000164219
0.00866048
0.000518343
0.0095343
0.00193368
0.010976
0.00746372
0.0109176
0.00931285
0.0107072
0.00948891
0.0104712
0.00922592
0.0103976
0.00890326
0.0104378
0.008703
0.0105342
0.00847341
0.0081133
0.0106359
0.00840003
8.18136e-11
0.00840003
5.16463e-10
0.00840003
1.76109e-09
0.00840003
5.04122e-09
0.00840005
1.31642e-08
0.00840002
3.29368e-08
0.00840009
8.42994e-08
0.00840008
1.99367e-07
0.0084001
5.21744e-07
0.00840087
1.18953e-06
0.00839948
3.21028e-06
0.00840574
7.25593e-06
0.00840037
1.98238e-05
0.00842452
4.77387e-05
0.00844366
0.000134564
0.00856901
0.000400669
0.00908005
0.00141804
0.0110159
0.00552635
0.0111595
0.00917017
0.0110724
0.00957669
0.0108455
0.00945369
0.0107151
0.00903379
0.0106994
0.00871815
0.0107412
0.00843067
0.00806176
0.0107919
0.00840003
6.23636e-11
0.00840003
3.72455e-10
0.00840003
1.36751e-09
0.00840004
3.6817e-09
0.00840002
1.00995e-08
0.00840008
2.47013e-08
0.0084
6.21614e-08
0.00840027
1.53153e-07
0.00839999
3.69432e-07
0.00840085
9.37701e-07
0.00840096
2.17918e-06
0.00840323
5.72696e-06
0.00840802
1.32044e-05
0.00842526
3.5222e-05
0.00846026
8.85009e-05
0.00861818
0.000256633
0.00920369
0.000824532
0.0116435
0.003083
0.0117338
0.0090809
0.0116399
0.00967186
0.0113819
0.00971252
0.0110962
0.00931947
0.0109844
0.00882995
0.0109643
0.00845016
0.00805948
0.0109656
0.00840003
4.63926e-11
0.00840003
2.86876e-10
0.00840003
1.00794e-09
0.00840003
2.81965e-09
0.00840005
7.47909e-09
0.00840001
1.85397e-08
0.00840012
4.69991e-08
0.00839996
1.12287e-07
0.0084005
2.84041e-07
0.00839984
6.70519e-07
0.008402
1.70774e-06
0.00840044
4.01524e-06
0.00840889
1.03009e-05
0.00840908
2.48421e-05
0.00844928
6.50745e-05
0.00850584
0.000176091
0.00880394
0.000548161
0.00987987
0.00199383
0.0117373
0.00722534
0.0118507
0.00955931
0.0117037
0.0098603
0.0114158
0.00960813
0.0112804
0.00896469
0.0111986
0.00853152
0.00809925
0.0111581
0.00840003
3.25766e-11
0.00840003
2.20828e-10
0.00840003
7.29676e-10
0.00840003
2.16954e-09
0.00840004
5.4264e-09
0.00840002
1.43598e-08
0.00840009
3.39792e-08
0.00839995
8.81044e-08
0.00840047
2.06102e-07
0.00839957
5.3039e-07
0.00840257
1.2439e-06
0.00839784
3.19367e-06
0.00841293
7.60926e-06
0.00839418
1.94945e-05
0.00845032
4.85313e-05
0.0084421
0.000131093
0.00865603
0.000385096
0.00929359
0.00132486
0.0117164
0.0048076
0.0120077
0.00926761
0.0120779
0.00979022
0.0119279
0.00975821
0.0115897
0.0093027
0.0114523
0.00866817
0.00818929
0.0113617
0.00840003
2.36419e-11
0.00840003
1.58271e-10
0.00840003
5.26659e-10
0.00840003
1.55514e-09
0.00840004
3.92788e-09
0.00840002
1.01957e-08
0.00840008
2.46036e-08
0.00840002
6.17994e-08
0.00840023
1.48678e-07
0.00840012
3.67538e-07
0.00840076
8.93881e-07
0.00840147
2.17913e-06
0.00840335
5.37799e-06
0.00841001
1.31224e-05
0.0084263
3.3092e-05
0.00846707
8.47159e-05
0.00862555
0.000236111
0.00920337
0.00074076
0.0113671
0.00264273
0.0124187
0.00821565
0.0124133
0.00979502
0.0122311
0.00993956
0.0118905
0.00964273
0.0117291
0.00882912
0.00833468
0.0115825
0.00840003
1.7788e-11
0.00840003
1.11126e-10
0.00840003
3.88369e-10
0.00840003
1.09019e-09
0.00840003
2.89455e-09
0.00840003
7.15192e-09
0.00840004
1.81173e-08
0.00840006
4.34689e-08
0.00840006
1.08836e-07
0.00840032
2.61066e-07
0.0084
6.50548e-07
0.00840223
1.55997e-06
0.00839927
3.8988e-06
0.00841395
9.45269e-06
0.00840036
2.37738e-05
0.0084618
5.99204e-05
0.00849276
0.000161277
0.00879037
0.000482378
0.00971303
0.00169602
0.0121799
0.00574798
0.0125172
0.00945717
0.0125939
0.00986234
0.0124546
0.00978165
0.0120546
0.00922863
0.00855784
0.0118312
0.00840003
1.19818e-11
0.00840003
7.66293e-11
0.00840003
2.61188e-10
0.00840003
7.55391e-10
0.00840003
1.93642e-09
0.00840003
4.9364e-09
0.00840005
1.21906e-08
0.00840004
2.94999e-08
0.00840009
7.40301e-08
0.00840021
1.73123e-07
0.00840016
4.44399e-07
0.00840152
1.01685e-06
0.00840017
2.65389e-06
0.00841037
6.03098e-06
0.00840251
1.59395e-05
0.00845323
3.73674e-05
0.00847492
0.000100783
0.00872198
0.000274752
0.00950674
0.000882997
0.0122399
0.00301511
0.0129587
0.00873684
0.0129648
0.00985622
0.0127428
0.0100036
0.0124014
0.0095696
0.00881509
0.012144
0.00840003
8.46353e-12
0.00840003
5.17002e-11
0.00840003
1.8403e-10
0.00840003
5.08646e-10
0.00840003
1.35915e-09
0.00840004
3.3479e-09
0.00840003
8.42291e-09
0.00840007
2.03664e-08
0.00840003
5.0202e-08
0.0084002
1.21514e-07
0.00840014
2.96416e-07
0.00840062
7.26178e-07
0.00840152
1.7456e-06
0.00840203
4.33749e-06
0.00841017
1.04183e-05
0.00841612
2.63375e-05
0.00845582
6.57361e-05
0.00855256
0.000177654
0.00890095
0.000531735
0.0100598
0.00185786
0.0126812
0.00610888
0.0129908
0.00954641
0.013175
0.00981929
0.0129066
0.00983822
0.00919181
0.0125297
0.00840003
5.38678e-12
0.00840003
3.55401e-11
0.00840003
1.20839e-10
0.00840003
3.48422e-10
0.00840003
8.96024e-10
0.00840003
2.28128e-09
0.00840003
5.54563e-09
0.00840005
1.37928e-08
0.00840004
3.306e-08
0.00840011
8.21042e-08
0.00840019
1.95208e-07
0.0084003
4.84273e-07
0.00840147
1.15562e-06
0.00840076
2.86388e-06
0.00840996
6.86173e-06
0.00840638
1.71348e-05
0.00845128
4.21867e-05
0.00849214
0.000109846
0.00874248
0.00030616
0.00959981
0.000983758
0.0124161
0.00328724
0.0133035
0.00865876
0.0133681
0.00975495
0.0132365
0.0099701
0.00957159
0.0128581
0.00840003
3.69876e-12
0.00840003
2.3093e-11
0.00840003
8.21533e-11
0.00840003
2.26861e-10
0.00840003
6.05751e-10
0.00840003
1.49884e-09
0.00840003
3.71805e-09
0.00840005
9.17148e-09
0.00840003
2.19383e-08
0.00840011
5.4873e-08
0.00840008
1.28669e-07
0.00840036
3.26927e-07
0.00840066
7.56071e-07
0.00840119
1.9338e-06
0.00840508
4.48918e-06
0.00840571
1.1515e-05
0.00843076
2.73216e-05
0.0084534
7.12562e-05
0.00859103
0.000186167
0.00899123
0.00056402
0.010375
0.00191353
0.013005
0.00602252
0.0133477
0.00941173
0.0135784
0.00974012
0.00977217
0.0133788
0.00840003
2.44351e-12
0.00840003
1.49791e-11
0.00840003
5.33548e-11
0.00840003
1.47169e-10
0.00840003
3.94358e-10
0.00840003
9.62785e-10
0.00840003
2.44265e-09
0.00840004
5.79153e-09
0.00840004
1.45176e-08
0.00840008
3.43555e-08
0.00840004
8.51429e-08
0.00840041
2.03107e-07
0.00839998
4.98178e-07
0.00840256
1.20015e-06
0.00839964
2.92327e-06
0.00841483
7.11169e-06
0.00840226
1.73967e-05
0.0084713
4.3361e-05
0.00848535
0.000111008
0.00880405
0.000309189
0.00969243
0.000981774
0.0125492
0.00316834
0.0136111
0.00834904
0.0136751
0.00967659
0.0097817
0.0136661
0.00840003
1.55584e-12
0.00840003
9.8429e-12
0.00840003
3.39411e-11
0.00840003
9.65724e-11
0.00840003
2.52173e-10
0.00840003
6.26819e-10
0.00840003
1.57324e-09
0.00840003
3.7421e-09
0.00840004
9.4118e-09
0.00840005
2.19926e-08
0.00840008
5.56726e-08
0.00840018
1.28959e-07
0.00840016
3.2769e-07
0.0084012
7.61891e-07
0.00840035
1.91685e-06
0.00840782
4.5296e-06
0.00840206
1.13272e-05
0.00844303
2.74591e-05
0.00844099
6.99678e-05
0.00862392
0.000183355
0.0089992
0.000546609
0.0103804
0.00182142
0.0131875
0.00552895
0.0137054
0.00915696
0.00961041
0.0138769
0.00840003
9.21503e-13
0.00840003
6.32691e-12
0.00840003
2.07643e-11
0.00840003
6.21488e-11
0.00840003
1.53627e-10
0.00840003
4.04932e-10
0.00840003
9.48256e-10
0.00840003
2.419e-09
0.00840004
5.64081e-09
0.00840003
1.41146e-08
0.0084001
3.33773e-08
0.00840003
8.17029e-08
0.00840045
1.96752e-07
0.0084001
4.72931e-07
0.00840233
1.15877e-06
0.00840094
2.73998e-06
0.0084124
6.82821e-06
0.00840915
1.61319e-05
0.00846489
4.10199e-05
0.00850453
0.000101844
0.00881424
0.000282179
0.00973557
0.000869593
0.0125449
0.00272359
0.0139031
0.00779601
0.0095513
0.0139619
0.00840003
6.02511e-13
0.00840003
3.84902e-12
0.00840003
1.3398e-11
0.00840003
3.77619e-11
0.00840003
9.87155e-11
0.00840003
2.47117e-10
0.00840003
6.04718e-10
0.00840003
1.49198e-09
0.00840003
3.55557e-09
0.00840004
8.79885e-09
0.00840004
2.07264e-08
0.00840009
5.17336e-08
0.00840016
1.20667e-07
0.00840024
3.0201e-07
0.00840105
7.07374e-07
0.00840067
1.75951e-06
0.00840715
4.16481e-06
0.00840321
1.03038e-05
0.00844041
2.50034e-05
0.00844226
6.28602e-05
0.0086112
0.00016313
0.00895309
0.000474625
0.0101524
0.00155396
0.0132146
0.00472063
0.00874854
0.014014
0.00840003
3.92856e-13
0.00840003
2.29774e-12
0.00840003
8.50315e-12
0.00840003
2.25727e-11
0.00840003
6.25462e-11
0.00840003
1.47396e-10
0.00840003
3.8345e-10
0.00840003
8.84468e-10
0.00840003
2.24725e-09
0.00840004
5.22654e-09
0.00840003
1.29985e-08
0.00840009
3.07317e-08
0.00840005
7.49841e-08
0.00840037
1.80831e-07
0.00840025
4.31061e-07
0.00840161
1.06361e-06
0.00840232
2.48396e-06
0.00840689
6.27115e-06
0.00841659
1.45085e-05
0.00844353
3.74437e-05
0.00850944
9.08723e-05
0.00874369
0.000249574
0.00954545
0.000746438
0.0119028
0.00235765
0.00670202
0.013948
0.00840003
2.17381e-13
0.00840003
1.49334e-12
0.00840003
4.87021e-12
0.00840003
1.46274e-11
0.00840003
3.60338e-11
0.00840003
9.45623e-11
0.00840003
2.22951e-10
0.00840003
5.6017e-10
0.00840003
1.32453e-09
0.00840003
3.24913e-09
0.00840005
7.81042e-09
0.00840004
1.87069e-08
0.00840011
4.58545e-08
0.0084001
1.07784e-07
0.00840038
2.6855e-07
0.00840068
6.22018e-07
0.00840147
1.56769e-06
0.00840486
3.61251e-06
0.0084071
9.16695e-06
0.00842974
2.1401e-05
0.00845393
5.49915e-05
0.00857983
0.000137503
0.00891891
0.000391575
0.0100468
0.00123771
0.00371053
0.013026
0.00840003
1.38641e-13
0.00840003
8.60766e-13
0.00840003
3.06236e-12
0.00840003
8.46288e-12
0.00840003
2.24906e-11
0.00840003
5.54425e-11
0.00840003
1.36675e-10
0.00840003
3.34214e-10
0.00840003
7.96034e-10
0.00840003
1.97015e-09
0.00840003
4.5994e-09
0.00840004
1.15342e-08
0.00840006
2.65791e-08
0.00840008
6.71149e-08
0.00840028
1.54416e-07
0.00840021
3.88963e-07
0.00840176
9.00591e-07
0.00840068
2.24791e-06
0.0084108
5.29704e-06
0.00840515
1.31005e-05
0.00845674
3.17151e-05
0.00846764
7.98488e-05
0.00870432
0.00020889
0.00928617
0.000615154
0.00193326
0.0110749
0.00840003
8.26178e-14
0.00840003
5.13936e-13
0.00840003
1.7958e-12
0.00840003
5.04295e-12
0.00840003
1.31932e-11
0.00840003
3.25434e-11
0.00840003
8.14316e-11
0.00840003
1.9167e-10
0.00840003
4.81276e-10
0.00840003
1.1062e-09
0.00840003
2.80056e-09
0.00840004
6.39375e-09
0.00840004
1.61393e-08
0.00840011
3.70278e-08
0.00840006
9.26042e-08
0.00840051
2.14835e-07
0.00840026
5.28904e-07
0.0084027
1.25077e-06
0.0084019
3.01844e-06
0.00841458
7.29836e-06
0.00841407
1.74284e-05
0.00847863
4.339e-05
0.00853415
0.00010757
0.00890857
0.000292604
0.000885693
0.00991803
0.00840003
4.65528e-14
0.00840003
3.03316e-13
0.00840003
1.04229e-12
0.00840003
2.97398e-12
0.00840003
7.65863e-12
0.00840003
1.93721e-11
0.00840003
4.63654e-11
0.00840003
1.15826e-10
0.00840003
2.68904e-10
0.00840003
6.76673e-10
0.00840003
1.55093e-09
0.00840003
3.90584e-09
0.00840005
8.95633e-09
0.00840004
2.24481e-08
0.00840014
5.18406e-08
0.00840008
1.28365e-07
0.00840066
3.00971e-07
0.00840042
7.33189e-07
0.00840338
1.74804e-06
0.00840295
4.19177e-06
0.00841695
1.02186e-05
0.00842272
2.43927e-05
0.00849165
6.12846e-05
0.0085924
0.000154996
0.000439822
0.00907826
0.00840003
2.80149e-14
0.00840003
1.7477e-13
0.00840003
6.07976e-13
0.00840003
1.71457e-12
0.00840003
4.4561e-12
0.00840003
1.10643e-11
0.00840003
2.73517e-11
0.00840003
6.50289e-11
0.00840003
1.61091e-10
0.00840003
3.73858e-10
0.00840003
9.3571e-10
0.00840003
2.14892e-09
0.00840003
5.39173e-09
0.00840005
1.23742e-08
0.00840004
3.09489e-08
0.00840018
7.15544e-08
0.0084001
1.77036e-07
0.00840092
4.14314e-07
0.00840056
1.012e-06
0.0084049
2.40726e-06
0.00840365
5.80581e-06
0.0084262
1.40769e-05
0.00842927
3.4099e-05
0.00853772
8.5494e-05
0.000222867
0.00870607
0.00840003
1.53403e-14
0.00840003
9.97929e-14
0.00840003
3.4471e-13
0.00840003
9.76602e-13
0.00840003
2.52988e-12
0.00840003
6.32291e-12
0.00840003
1.52971e-11
0.00840003
3.76753e-11
0.00840003
8.8241e-11
0.00840003
2.19384e-10
0.00840003
5.04156e-10
0.00840003
1.26382e-09
0.00840004
2.8893e-09
0.00840004
7.22248e-09
0.00840007
1.65856e-08
0.00840005
4.11484e-08
0.00840025
9.54026e-08
0.00840016
2.33312e-07
0.00840125
5.49584e-07
0.00840099
1.32283e-06
0.00840668
3.164e-06
0.00840666
7.51918e-06
0.00843543
1.83886e-05
0.00845194
4.3974e-05
0.000112034
0.00860289
0.00840003
9.00826e-15
0.00840003
5.6069e-14
0.00840003
1.97374e-13
0.00840003
5.48171e-13
0.00840003
1.44419e-12
0.00840003
3.53408e-12
0.00840003
8.79164e-12
0.00840003
2.07828e-11
0.00840003
5.12097e-11
0.00840003
1.19516e-10
0.00840003
2.94097e-10
0.00840003
6.86423e-10
0.00840003
1.67457e-09
0.00840004
3.94754e-09
0.00840004
9.5097e-09
0.00840008
2.26648e-08
0.00840006
5.39484e-08
0.0084003
1.30125e-07
0.00840028
3.06036e-07
0.00840132
7.44947e-07
0.008402
1.73965e-06
0.0084058
4.27203e-06
0.00841382
9.95219e-06
0.00843178
2.47325e-05
5.91838e-05
0.00848456
0.00840003
4.86644e-15
0.00840003
3.17471e-14
0.00840003
1.06988e-13
0.00840003
3.12064e-13
0.00840003
7.85312e-13
0.00840003
2.00324e-12
0.00840003
4.80133e-12
0.00840003
1.17094e-11
0.00840003
2.81023e-11
0.00840003
6.68274e-11
0.00840003
1.62461e-10
0.00840003
3.79467e-10
0.00840003
9.34281e-10
0.00840003
2.15513e-09
0.00840004
5.35203e-09
0.00840005
1.22772e-08
0.00840006
3.05106e-08
0.00840018
7.01965e-08
0.00840013
1.73399e-07
0.00840094
4.0232e-07
0.00840058
9.83674e-07
0.00840522
2.31538e-06
0.00840363
5.59404e-06
0.00842853
1.34288e-05
3.24651e-05
0.00842765
0.00840003
2.63288e-15
0.00840003
1.73343e-14
0.00840003
5.99777e-14
0.00840003
1.69556e-13
0.00840003
4.39228e-13
0.00840003
1.09443e-12
0.00840003
2.64318e-12
0.00840003
6.48045e-12
0.00840003
1.51908e-11
0.00840003
3.74587e-11
0.00840003
8.63278e-11
0.00840003
2.14482e-10
0.00840003
4.91614e-10
0.00840003
1.21903e-09
0.00840004
2.80242e-09
0.00840003
6.91118e-09
0.00840007
1.6008e-08
0.00840006
3.90104e-08
0.00840024
9.15858e-08
0.0084002
2.19909e-07
0.00840115
5.24161e-07
0.00840124
1.23792e-06
0.00840572
2.99996e-06
0.00840852
7.00763e-06
1.72719e-05
0.00842951
0.00840003
1.57914e-15
0.00840003
9.30831e-15
0.00840003
3.29541e-14
0.00840003
9.18758e-14
0.00840003
2.4032e-13
0.00840003
5.89479e-13
0.00840003
1.46407e-12
0.00840003
3.43054e-12
0.00840003
8.51048e-12
0.00840003
1.95641e-11
0.00840003
4.86437e-11
0.00840003
1.11244e-10
0.00840003
2.75772e-10
0.00840003
6.34248e-10
0.00840003
1.55591e-09
0.00840004
3.61587e-09
0.00840004
8.75942e-09
0.00840007
2.06483e-08
0.00840008
4.91515e-08
0.00840024
1.1787e-07
0.0084004
2.75478e-07
0.00840099
6.71967e-07
0.00840264
1.5461e-06
0.00840444
3.82175e-06
8.7515e-06
0.00841719
0.00840003
6.76678e-16
0.00840003
5.21995e-15
0.00840003
1.75302e-14
0.00840003
4.98824e-14
0.00840003
1.28894e-13
0.00840003
3.21262e-13
0.00840003
7.73566e-13
0.00840003
1.89153e-12
0.00840003
4.42045e-12
0.00840003
1.08609e-11
0.00840003
2.50367e-11
0.00840003
6.17846e-11
0.00840003
1.41501e-10
0.00840003
3.49438e-10
0.00840003
8.02319e-10
0.00840003
1.96756e-09
0.00840004
4.55535e-09
0.00840004
1.1044e-08
0.00840008
2.58822e-08
0.0084001
6.18791e-08
0.00840029
1.47186e-07
0.00840054
3.45895e-07
0.00840118
8.35939e-07
0.0084035
1.94058e-06
4.74454e-06
0.00840545
0.00840003
5.15132e-16
0.00840003
2.64017e-15
0.00840003
9.30809e-15
0.00840003
2.62536e-14
0.00840003
6.72056e-14
0.00840003
1.68072e-13
0.00840003
4.05293e-13
0.00840003
9.79458e-13
0.00840003
2.32994e-12
0.00840003
5.55655e-12
0.00840003
1.32314e-11
0.00840003
3.12518e-11
0.00840003
7.47682e-11
0.00840003
1.75551e-10
0.00840003
4.21455e-10
0.00840003
9.84751e-10
0.00840003
2.36975e-09
0.00840004
5.52794e-09
0.00840004
1.32959e-08
0.00840011
3.09544e-08
0.0084001
7.45105e-08
0.00840046
1.73685e-07
0.00840046
4.1618e-07
0.00840234
9.72619e-07
2.32722e-06
0.00840287
0.00840003
2.78288e-16
0.00840003
1.257e-15
0.00840003
4.39449e-15
0.00840003
1.33431e-14
0.00840003
3.33079e-14
0.00840003
8.44926e-14
0.00840003
2.01163e-13
0.00840003
4.8634e-13
0.00840003
1.15365e-12
0.00840003
2.72305e-12
0.00840003
6.51087e-12
0.00840003
1.5113e-11
0.00840003
3.64758e-11
0.00840003
8.35866e-11
0.00840003
2.02918e-10
0.00840003
4.61787e-10
0.00840003
1.12282e-09
0.00840004
2.54525e-09
0.00840004
6.17434e-09
0.00840007
1.40062e-08
0.00840008
3.36551e-08
0.00840023
7.70802e-08
0.00840037
1.8166e-07
0.00840095
4.22586e-07
9.74604e-07
0.0084024
0.00840003
-4.8518e-18
0.00840003
6.25015e-16
0.00840003
2.26514e-15
0.00840003
5.79202e-15
0.00840003
1.63416e-14
0.00840003
3.82201e-14
0.00840003
9.71925e-14
0.00840003
2.21845e-13
0.00840003
5.49076e-13
0.00840003
1.23454e-12
0.00840003
3.04298e-12
0.00840003
6.78435e-12
0.00840003
1.66672e-11
0.00840003
3.72733e-11
0.00840003
9.01409e-11
0.00840003
2.04157e-10
0.00840003
4.82473e-10
0.00840003
1.11727e-09
0.00840004
2.54821e-09
0.00840004
6.06502e-09
0.00840008
1.33811e-08
0.00840006
3.2495e-08
0.00840034
6.95749e-08
0.00840011
1.71768e-07
3.56904e-07
0.00840188
0.00840003
5.01986e-17
0.00840003
2.55357e-16
0.00840003
8.85902e-16
0.00840003
2.46027e-15
0.00840003
6.32803e-15
0.00840003
1.49588e-14
0.00840003
3.82027e-14
0.00840003
8.47843e-14
0.00840003
2.1303e-13
0.00840003
4.73599e-13
0.00840003
1.137e-12
0.00840003
2.64671e-12
0.00840003
5.96283e-12
0.00840003
1.46044e-11
0.00840003
3.11789e-11
0.00840003
7.95589e-11
0.00840003
1.6245e-10
0.00840003
4.28145e-10
0.00840004
8.38501e-10
0.00840003
2.26855e-09
0.00840006
4.34603e-09
0.00840003
1.16807e-08
0.00840018
2.24335e-08
0.00840006
5.82063e-08
1.16168e-07
0.00840051
0.00840003
0.00840003
0.00840003
0.00840003
0.00840003
0.00840003
0.00840003
0.00840003
0.00840003
0.00840003
0.00840003
0.00840003
0.00840003
0.00840003
0.00840003
0.00840003
0.00840003
0.00840003
0.00840003
0.00840003
0.00840003
0.00840006
0.0084
0.00840025
0.00839966
0.00484815
0.00405187
0.00322772
0.00162067
0.00253259
0.000695029
0.00225501
0.00027707
0.00223678
1.70881e-05
0.00242645
-0.000190433
0.00264522
-0.000219701
0.0027683
-0.000123882
0.00281047
-4.30454e-05
0.00280478
4.74688e-06
0.00278054
2.31878e-05
0.00276574
1.3589e-05
0.00276074
3.7287e-06
0.00276638
-7.03635e-06
0.00277504
-1.00868e-05
0.00278127
-7.89222e-06
0.00278314
-3.32564e-06
0.00278077
2.09808e-07
0.00277658
1.91103e-06
0.00277165
2.61305e-06
0.00276644
2.58036e-06
0.00276048
2.75661e-06
0.00275166
4.31722e-06
0.00273555
8.89456e-06
0.00270277
1.96108e-05
0.00263328
4.36192e-05
0.00248132
9.90956e-05
0.00212026
0.00024408
0.00120696
0.000661533
0.000145797
0.000946523
-0.000622663
0.0007685
-0.00123708
0.000644124
-0.00165437
0.000459943
-0.00196083
0.000321382
-0.00213806
0.000173871
-0.00216981
2.5644e-05
-0.00210468
-7.17074e-05
-0.00198152
-0.000129695
-0.00178
-0.000209436
-0.00146939
-0.000321501
-0.00110499
-0.000375431
-0.000716428
-0.000398531
-0.000323371
-0.000401649
8.03246e-05
-0.000411601
0.000445927
-0.000372361
0.000775482
-0.000335502
0.00107699
-0.000307384
0.00135357
-0.00028308
0.00160601
-0.000259703
0.00183504
-0.000237049
0.0020477
-0.000222076
0.00225253
-0.000214274
0.00244539
-0.000201498
0.00262538
-0.000187587
0.00279424
-0.000175184
0.00295272
-0.000163423
0.00310218
-0.000153255
0.00324294
-0.000143599
0.00337609
-0.000135119
0.00350172
-0.000126896
0.00362083
-0.00011953
0.00373337
-0.000112334
0.00383993
-0.00010584
0.00394051
-9.95127e-05
0.00403545
-9.38099e-05
0.00412463
-8.82356e-05
0.00420848
-8.31558e-05
0.00428687
-7.81209e-05