/*--------------------------------*- C++ -*----------------------------------*\
  =========                 |
  \\      /  F ield         | OpenFOAM: The Open Source CFD Toolbox
   \\    /   O peration     | Website:  https://openfoam.org
    \\  /    A nd           | Version:  9
     \\/     M anipulation  |
\*---------------------------------------------------------------------------*/
FoamFile
{
    format      ascii;
    class       volScalarField;
    location    "3";
    object      T;
}
// * * * * * * * * * * * * * * * * * * * * * * * * * * * * * * * * * * * * * //

dimensions      [0 0 0 1 0 0 0];

internalField   nonuniform List<scalar> 
5250
(
1
1.00001
1.00004
1.0001
1.00028
1.00062
1.00167
1.00389
1.01
1.02448
1.06293
1.16424
1.44346
2.10825
2.64851
2.75887
2.74181
2.73812
2.75003
2.7682
2.78072
2.7891
2.79882
2.80062
2.79934
1
1.00001
1.00004
1.0001
1.00028
1.0006
1.0017
1.00363
1.01038
1.02302
1.06335
1.15987
1.43704
2.09387
2.6436
2.75861
2.74103
2.73699
2.74891
2.76701
2.77947
2.78783
2.79754
2.79934
2.79807
1
1.00001
1.00004
1.00009
1.00028
1.00056
1.00165
1.00356
1.0098
1.02271
1.06045
1.15465
1.42066
2.06177
2.63204
2.75727
2.73862
2.73366
2.74552
2.76341
2.77591
2.78404
2.79423
2.79627
2.79508
1
1.00002
1.00003
1.00011
1.00021
1.00065
1.00132
1.00388
1.00836
1.02304
1.05489
1.14855
1.39384
2.01299
2.61315
2.75455
2.73421
2.72805
2.73962
2.75817
2.77071
2.77943
2.78852
2.78965
2.78858
1
1.00001
1.00004
1.00008
1.00024
1.00052
1.00142
1.00322
1.00844
1.02029
1.05243
1.13494
1.36486
1.94254
2.58693
2.74932
2.72742
2.71928
2.73084
2.74868
2.76144
2.76985
2.78036
2.78261
2.78106
1
1.00001
1.00003
1.00009
1.00019
1.00052
1.0012
1.00309
1.0075
1.01875
1.04715
1.12263
1.32726
1.85785
2.55052
2.7393
2.71645
2.70726
2.71943
2.73707
2.75119
2.75785
2.76737
2.77044
2.76938
1
1.00001
1.00003
1.00008
1.00017
1.00049
1.00104
1.00291
1.00651
1.01738
1.04158
1.11051
1.29005
1.76769
2.50733
2.72512
2.70173
2.69188
2.70385
2.72102
2.73626
2.74332
2.75232
2.75487
2.75263
1
1.00001
1.00003
1.00007
1.00016
1.00043
1.00096
1.00266
1.00577
1.01618
1.03699
1.10053
1.26152
1.69891
2.46073
2.71051
2.68936
2.68012
2.6884
2.7042
2.71683
2.72334
2.73122
2.73082
2.72579
1
1.00001
1.00002
1.00006
1.00015
1.00037
1.00095
1.00217
1.00586
1.01325
1.03576
1.08761
1.23751
1.63064
2.39146
2.68377
2.67923
2.67303
2.67502
2.68561
2.69701
2.69865
2.70309
2.69829
2.68072
1
1.00001
1.00002
1.00005
1.00014
1.00033
1.00081
1.00207
1.00482
1.01284
1.03012
1.08033
1.20852
1.56209
2.29912
2.64749
2.67224
2.66467
2.66155
2.66609
2.67262
2.67172
2.66485
2.64501
2.58118
1
1.00001
1.00002
1.00005
1.00011
1.00031
1.00068
1.00185
1.00428
1.01103
1.02691
1.06954
1.18174
1.4898
2.18275
2.59962
2.66358
2.65438
2.64785
2.64758
2.6468
2.63958
2.61883
2.56962
2.45465
1
1.00001
1.00002
1.00004
1.00011
1.00023
1.00068
1.0014
1.004
1.00886
1.02391
1.05768
1.15522
1.41155
2.03891
2.5372
2.65052
2.6413
2.63073
2.62696
2.62071
2.60484
2.57037
2.50026
2.36676
1
1.00001
1.00001
1.00004
1.00008
1.00023
1.00046
1.00138
1.00288
1.00815
1.01838
1.04935
1.12359
1.33532
1.86365
2.45682
2.62704
2.62036
2.61043
2.60254
2.59236
2.57113
2.52858
2.45541
2.33222
1
1
1.00001
1.00003
1.00007
1.00018
1.00041
1.00103
1.00254
1.00607
1.0156
1.03773
1.09826
1.25771
1.67538
2.35811
2.58949
2.59131
2.58392
2.57443
2.56131
2.53725
2.49281
2.42584
2.32115
1
1
1.00001
1.00002
1.00006
1.00013
1.00034
1.00084
1.00202
1.00515
1.01215
1.03166
1.07818
1.20876
1.55077
2.24713
2.54638
2.56687
2.55787
2.54737
2.53227
2.50798
2.46311
2.40288
2.31471
1
1
1.00001
1.00002
1.00004
1.00011
1.00027
1.00066
1.00169
1.00391
1.01043
1.02417
1.0643
1.16402
1.44155
2.0751
2.47495
2.54646
2.5381
2.52512
2.5051
2.48188
2.43924
2.3827
2.3078
1
1
1.00001
1.00001
1.00003
1.00009
1.00021
1.00052
1.00132
1.00309
1.0081
1.01889
1.0498
1.12556
1.33754
1.86446
2.37835
2.51897
2.51762
2.5056
2.48126
2.45703
2.41926
2.36679
2.30052
1
1
1
1.00001
1.00002
1.00007
1.00015
1.00044
1.00088
1.00258
1.00547
1.01511
1.03486
1.09287
1.23744
1.62544
2.25102
2.47255
2.48775
2.47823
2.4577
2.43146
2.39844
2.35212
2.29349
1
1
1
1.00001
1.00002
1.00005
1.00012
1.00032
1.0007
1.00194
1.00413
1.01171
1.02591
1.07076
1.17737
1.47593
2.1017
2.41738
2.46154
2.4531
2.43497
2.40834
2.37737
2.33766
2.28624
1
1
1
1.00001
1.00001
1.00004
1.00008
1.00024
1.00052
1.00142
1.00322
1.00837
1.02011
1.05142
1.13151
1.35046
1.88266
2.32008
2.43001
2.42904
2.41423
2.38829
2.35752
2.32147
2.27758
1
1
1
1
1.00001
1.00003
1.00007
1.00015
1.00044
1.0009
1.00254
1.00555
1.01489
1.03485
1.09174
1.2341
1.61409
2.18347
2.38123
2.39926
2.38944
2.3677
2.3382
2.3051
2.26624
1
1
1
1
1.00001
1.00002
1.00004
1.00013
1.00026
1.00077
1.00157
1.00451
1.00979
1.02646
1.06304
1.16792
1.43536
2.01634
2.3191
2.37085
2.36411
2.3455
2.31922
2.28918
2.25418
1
1
1
1
1.00001
1.00001
1.00003
1.00009
1.0002
1.00053
1.00114
1.00322
1.00679
1.01914
1.04343
1.11773
1.30137
1.77402
2.2102
2.33218
2.33763
2.32589
2.30224
2.27342
2.24147
1
1
1
1
1
1.00001
1.00002
1.00006
1.00013
1.00037
1.00077
1.00215
1.00472
1.01258
1.02931
1.07657
1.19298
1.50849
2.05086
2.27165
2.30658
2.30131
2.28387
2.25713
2.22793
1
1
1
1
1
1.00001
1.00002
1.00004
1.00009
1.00024
1.00057
1.00139
1.00343
1.00814
1.02088
1.0503
1.13115
1.3405
1.83417
2.18193
2.27122
2.2759
2.26543
2.24339
2.21407
1
1
1
1
1
1
1.00001
1.00003
1.00006
1.00016
1.00037
1.00093
1.00222
1.00536
1.01344
1.03223
1.08245
1.20993
1.54388
2.03811
2.22062
2.24731
2.24288
2.22535
2.20178
1
1
1
1
1
1
1.00001
1.00002
1.00005
1.00009
1.00027
1.00057
1.00156
1.00344
1.00905
1.02111
1.05444
1.13582
1.35789
1.84258
2.14603
2.21586
2.21947
2.20902
2.18802
1
1
1
1
1
1
1.00001
1.00001
1.00003
1.00006
1.00017
1.00038
1.00098
1.00229
1.00563
1.01381
1.03378
1.08507
1.21844
1.56062
2.01033
2.16958
2.19302
2.1887
2.17207
1
1
1
1
1
1
1
1.00001
1.00002
1.00004
1.00011
1.00023
1.00065
1.00142
1.00371
1.00865
1.0217
1.05324
1.13605
1.35166
1.81579
2.09277
2.15997
2.16546
2.15674
1
1
1
1
1
1
1
1
1.00001
1.00003
1.00007
1.00016
1.00039
1.00089
1.00236
1.00514
1.01398
1.03126
1.08318
1.20557
1.53186
1.95568
2.11291
2.13896
2.13687
1
1
1
1
1
1
1
1
1.00001
1.00002
1.00004
1.0001
1.00023
1.00058
1.00141
1.00334
1.00843
1.01965
1.05071
1.12433
1.32569
1.75459
2.03197
2.10583
2.11458
1
1
1
1
1
1
1
1
1
1.00001
1.00002
1.00006
1.00014
1.00037
1.00078
1.00221
1.00449
1.01277
1.02758
1.07406
1.17956
1.46638
1.88365
2.05517
2.08645
1
1
1
1
1
1
1
1
1
1.00001
1.00002
1.00003
1.00009
1.0002
1.00053
1.00124
1.00299
1.00738
1.0174
1.04428
1.10839
1.28125
1.67155
1.97076
2.05539
1
1
1
1
1
1
1
1
1
1
1.00001
1.00002
1.00006
1.00012
1.00033
1.00067
1.0019
1.00403
1.01078
1.02439
1.06326
1.15437
1.40144
1.80695
1.99593
1
1
1
1
1
1
1
1
1
1
1.00001
1.00001
1.00003
1.00008
1.00017
1.00046
1.00099
1.00262
1.00594
1.015
1.03584
1.09024
1.22749
1.56154
1.88834
1
1
1
1
1
1
1
1
1
1
1
1.00001
1.00002
1.00004
1.00011
1.00025
1.0006
1.0015
1.0034
1.00882
1.01986
1.05174
1.12476
1.32378
1.70166
1
1
1
1
1
1
1
1
1
1
1
1
1.00001
1.00002
1.00006
1.00014
1.00036
1.00076
1.00213
1.00432
1.01222
1.02593
1.0696
1.16572
1.42326
1
1
1
1
1
1
1
1
1
1
1
1
1.00001
1.00001
1.00003
1.00009
1.00018
1.00051
1.00103
1.00294
1.00599
1.01662
1.03669
1.09663
1.23683
1
1
1
1
1
1
1
1
1
1
1
1
1
1.00001
1.00002
1.00004
1.00012
1.00025
1.00067
1.00139
1.0039
1.00802
1.0221
1.04921
1.12866
1
1
1
1
1
1
1
1
1
1
1
1
1
1
1.00001
1.00003
1.00006
1.00015
1.00032
1.00088
1.00179
1.00503
1.01038
1.02821
1.06336
1
1
1
1
1
1
1
1
1
1
1
1
1
1
1.00001
1.00001
1.00004
1.00007
1.00021
1.00041
1.00116
1.00242
1.00644
1.01431
1.03667
1
1
1
1
1
1
1
1
1
1
1
1
1
1
1
1.00001
1.00002
1.00004
1.0001
1.00024
1.00061
1.0013
1.00354
1.00736
1.02022
1
1
1
1
1
1
1
1
1
1
1
1
1
1
1
1
1.00001
1.00002
1.00005
1.00014
1.00028
1.0008
1.0016
1.00445
1.00931
1
1
1
1
1
1
1
1
1
1
1
1
1
1
1
1
1.00001
1.00001
1.00003
1.00006
1.00018
1.00037
1.00096
1.00214
1.00527
1
1
1
1
1
1
1
1
1
1
1
1
1
1
1
1
1
1.00001
1.00001
1.00004
1.00008
1.00022
1.00047
1.0012
1.00272
1
1
1
1
1
1
1
1
1
1
1
1
1
1
1
1
1
1
1.00001
1.00002
1.00005
1.0001
1.00028
1.00057
1.00159
1
1
1
1
1
1
1
1
1
1
1
1
1
1
1
1
1
1
1
1.00001
1.00003
1.00006
1.00016
1.00033
1.00087
1
1
1
1
1
1
1
1
1
1
1
1
1
1
1
1
1
1
1
1.00001
1.00002
1.00004
1.0001
1.00026
1.00057
1
1
1
1
1
1
1
1
1
1
1
1
1
1
1
1
1
1
1
1.00001
1.00001
1.00004
1.00008
1.00023
1.00047
1
1
1
1
1
1
1
1
1
1
1
1
1
1
1
1
1
1
1
1.00001
1.00001
1.00003
1.00008
1.0002
1.00048
2.23729
2.07122
2.01837
2.04707
2.10453
2.17395
2.23959
2.27166
2.2778
2.27635
2.27332
2.27294
2.2745
2.27774
2.28152
2.28503
2.28677
2.28802
2.28925
2.29053
2.29227
2.29514
2.30001
2.30954
2.32913
2.37016
2.45474
2.61954
2.83039
2.97912
2.98378
3.01807
3.09728
3.11846
3.10259
3.0868
3.08356
3.08314
3.09381
3.10669
3.11349
3.11928
3.12094
3.12189
3.11647
3.11408
3.10797
3.10406
3.09453
3.08961
3.07946
3.07301
3.0591
3.05166
3.03685
3.02879
3.01422
3.00586
2.99132
2.98231
2.96746
2.95751
2.94209
2.93146
2.91546
2.90437
2.88816
2.87693
2.86094
2.84963
2.83383
2.82235
2.80663
2.795
2.77944
2.76782
2.75246
2.74097
2.72566
2.71441
2.699
2.68805
2.67258
2.66208
2.64661
2.63673
2.62136
2.61218
2.59694
2.58839
2.57333
2.56522
2.55053
2.54251
2.52867
2.52066
2.50805
2.50133
2.49227
2.49023
2.23166
2.13246
2.07786
2.04002
2.00327
1.97403
1.96624
1.96978
1.98298
2.00133
2.01642
2.02205
2.02222
2.02122
2.02124
2.0216
2.02257
2.02437
2.02644
2.0281
2.02955
2.03161
2.03519
2.04275
2.05914
2.09504
2.1727
2.3477
2.59837
2.85661
2.92016
2.9611
3.02609
3.08447
3.11098
3.11476
3.10559
3.09181
3.0706
3.05569
3.02165
3.00685
2.97725
2.96156
2.93689
2.92562
2.90459
2.89491
2.87582
2.86627
2.8483
2.83717
2.81871
2.80758
2.79066
2.77939
2.76326
2.75162
2.73596
2.72392
2.70847
2.69608
2.68077
2.66814
2.65287
2.63996
2.62459
2.61143
2.59593
2.5828
2.56725
2.55452
2.53897
2.52686
2.51121
2.49971
2.48386
2.4729
2.45686
2.4464
2.43022
2.42028
2.40407
2.39457
2.37857
2.36931
2.35382
2.34456
2.32977
2.32044
2.30631
2.29703
2.28339
2.27421
2.26112
2.25229
2.24021
2.23277
2.22391
2.22115
2.23037
2.14262
2.06213
1.98652
1.91687
1.86289
1.83656
1.8342
1.83803
1.84934
1.865
1.87761
1.88518
1.88779
1.88816
1.88806
1.88817
1.88845
1.88894
1.89002
1.89111
1.89282
1.8954
1.90063
1.9117
1.93579
1.98875
2.10958
2.30167
2.63844
2.7373
2.78869
2.8411
2.89408
2.95106
2.99033
2.99701
2.9891
2.95964
2.93058
2.90137
2.88027
2.85428
2.83888
2.81831
2.80627
2.78745
2.77569
2.75774
2.74669
2.73002
2.71836
2.70002
2.68708
2.67
2.65785
2.64144
2.62922
2.61302
2.60085
2.5848
2.57282
2.55679
2.54501
2.52891
2.51736
2.50113
2.48984
2.4734
2.46227
2.44558
2.43468
2.41812
2.40757
2.39163
2.38133
2.36618
2.35581
2.34136
2.33077
2.31673
2.30608
2.2922
2.28173
2.26797
2.25789
2.24439
2.2347
2.22149
2.21216
2.19938
2.1902
2.17795
2.16873
2.1571
2.14789
2.13713
2.12879
2.1207
2.11662
2.22243
2.13563
2.05432
1.98048
1.91509
1.86167
1.82024
1.79069
1.77447
1.77056
1.77196
1.77795
1.78695
1.79614
1.80129
1.8036
1.8034
1.80306
1.80227
1.80233
1.80264
1.80336
1.80498
1.80837
1.81543
1.83083
1.86473
1.93832
2.12034
2.35829
2.5019
2.6331
2.69251
2.73287
2.78935
2.82984
2.84258
2.83405
2.80971
2.77993
2.74992
2.73155
2.71689
2.70438
2.68816
2.67847
2.66356
2.65364
2.63756
2.62759
2.61192
2.60171
2.5853
2.57401
2.55781
2.54698
2.53066
2.51926
2.50239
2.49093
2.47429
2.46333
2.44713
2.43643
2.42034
2.40928
2.39311
2.38162
2.3658
2.35433
2.33921
2.32796
2.31345
2.30241
2.28842
2.2776
2.26405
2.25338
2.23996
2.22944
2.216
2.20579
2.19257
2.18294
2.17007
2.16099
2.14858
2.13994
2.12796
2.11953
2.1078
2.09951
2.0879
2.07992
2.0684
2.06106
2.05002
2.04406
2.03554
2.03409
2.22236
2.13672
2.05819
1.98707
1.92284
1.86607
1.8169
1.77577
1.74426
1.72376
1.71596
1.71602
1.71781
1.72287
1.73059
1.73645
1.74117
1.74294
1.74398
1.74401
1.74419
1.74453
1.74537
1.74729
1.75165
1.76117
1.78231
1.82884
1.94729
2.09148
2.38573
2.50047
2.53677
2.60651
2.67475
2.71511
2.72309
2.71259
2.68415
2.65473
2.62233
2.60142
2.59224
2.58631
2.5767
2.56911
2.55889
2.5531
2.54178
2.53424
2.5205
2.51153
2.49641
2.48594
2.47044
2.46
2.4449
2.43392
2.41861
2.40718
2.39172
2.37993
2.36426
2.35259
2.33735
2.32644
2.31185
2.30143
2.28704
2.27666
2.26224
2.25178
2.23746
2.22701
2.21309
2.20296
2.18975
2.18024
2.16766
2.15866
2.14633
2.13747
2.12495
2.11615
2.1036
2.09508
2.08265
2.07453
2.06244
2.05475
2.04312
2.03572
2.02456
2.01732
2.00655
1.99945
1.98925
1.98278
1.97477
1.97215
2.22453
2.1441
2.06894
1.99992
1.93722
1.88035
1.83011
1.78629
1.74983
1.72033
1.69798
1.6837
1.67816
1.67821
1.67959
1.68352
1.68985
1.69505
1.69956
1.70113
1.70197
1.70186
1.702
1.70258
1.70432
1.70901
1.72047
1.74714
1.80675
1.94807
2.15371
2.3394
2.45353
2.5303
2.59237
2.64245
2.64679
2.63221
2.59891
2.55807
2.52474
2.50364
2.49163
2.48686
2.48245
2.47828
2.4711
2.46596
2.4558
2.44989
2.43881
2.43038
2.4162
2.40458
2.38942
2.37843
2.36471
2.35362
2.33927
2.32765
2.31368
2.30287
2.28959
2.27908
2.26557
2.2549
2.24126
2.23102
2.21789
2.20842
2.19575
2.18666
2.174
2.16494
2.15227
2.14349
2.13106
2.12283
2.11065
2.10275
2.09068
2.08303
2.07116
2.06368
2.0521
2.0447
2.03346
2.02603
2.0151
2.00759
1.99696
1.98946
1.9791
1.97182
1.9617
1.95486
1.94518
1.93922
1.93147
1.92939
2.22664
2.15258
2.08214
2.01613
1.95541
1.89956
1.84911
1.80362
1.76364
1.72856
1.6996
1.67625
1.65976
1.65001
1.64701
1.6472
1.64865
1.65221
1.65693
1.66076
1.66359
1.6651
1.66599
1.66666
1.66803
1.67102
1.67775
1.69314
1.72807
1.80614
1.97116
2.21894
2.34862
2.47875
2.56914
2.60634
2.6044
2.58349
2.54195
2.49415
2.45594
2.43153
2.41815
2.41178
2.40193
2.39641
2.39203
2.38817
2.38039
2.37511
2.36566
2.35874
2.34724
2.33719
2.32339
2.31239
2.29962
2.29035
2.27876
2.26964
2.25745
2.24788
2.23541
2.22628
2.21433
2.20589
2.19411
2.18557
2.17328
2.16441
2.15203
2.1436
2.13191
2.12421
2.11304
2.10556
2.09419
2.08636
2.07458
2.06667
2.05487
2.04719
2.03575
2.02847
2.01751
2.01056
2.00002
1.99322
1.98302
1.97623
1.9663
1.95948
1.94977
1.94299
1.93349
1.92686
1.91774
1.91169
1.90426
1.90179
2.22702
2.15905
2.0932
2.03075
1.97244
1.9183
1.86854
1.82306
1.78203
1.74536
1.71349
1.68594
1.66349
1.6456
1.63334
1.62612
1.62382
1.62403
1.62533
1.62846
1.63265
1.63635
1.63924
1.64079
1.6418
1.64349
1.64733
1.65622
1.67686
1.72392
1.83027
2.02909
2.27605
2.46216
2.57842
2.598
2.5895
2.55926
2.50927
2.45511
2.41286
2.38295
2.36487
2.35347
2.33936
2.32897
2.32295
2.31789
2.3114
2.30676
2.29886
2.29416
2.28572
2.27955
2.26887
2.26045
2.24827
2.23906
2.22729
2.21922
2.20873
2.2017
2.19149
2.1842
2.17309
2.165
2.15324
2.14518
2.13377
2.12638
2.11553
2.10841
2.09747
2.09007
2.07877
2.07115
2.05984
2.05254
2.04156
2.03456
2.02391
2.01706
2.00674
2.00003
1.99001
1.98342
1.97363
1.96703
1.95743
1.95077
1.94138
1.93471
1.92551
1.91894
1.90993
1.90361
1.89493
1.88926
1.88205
1.87995
2.22752
2.16519
2.10369
2.04441
1.98871
1.93632
1.88791
1.84288
1.80191
1.76426
1.73072
1.70048
1.67446
1.65195
1.63384
1.6195
1.61016
1.60493
1.60353
1.60377
1.60488
1.60741
1.61045
1.6132
1.61566
1.61793
1.62116
1.62782
1.64214
1.67384
1.74374
1.88913
2.16474
2.46426
2.60852
2.61327
2.59688
2.55742
2.49799
2.43443
2.38431
2.34597
2.31754
2.29679
2.27946
2.2647
2.25452
2.24792
2.24478
2.24285
2.2391
2.23587
2.2294
2.22557
2.2185
2.21375
2.20494
2.19852
2.18812
2.18078
2.16982
2.16243
2.15167
2.14482
2.13457
2.12816
2.11811
2.11171
2.10148
2.09485
2.0844
2.07762
2.06716
2.06033
2.04995
2.04323
2.03305
2.02634
2.01626
2.00951
1.9995
1.99274
1.98289
1.97624
1.96665
1.96014
1.95075
1.9443
1.93505
1.92856
1.91942
1.91289
1.90393
1.89747
1.88873
1.88251
1.8741
1.86849
1.86144
1.8593
2.22568
2.16976
2.1129
2.05713
2.0038
1.9534
1.90627
1.86225
1.8216
1.78397
1.74967
1.71832
1.6903
1.66525
1.64369
1.62532
1.61068
1.59908
1.59163
1.58747
1.58645
1.58674
1.58783
1.5903
1.59361
1.59724
1.60106
1.60703
1.61931
1.64563
1.70295
1.82545
2.12197
2.41071
2.61872
2.63556
2.61142
2.55863
2.47728
2.40706
2.35143
2.30691
2.26745
2.23881
2.21734
2.20438
2.19466
2.18763
2.1842
2.18449
2.18564
2.18497
2.18309
2.18069
2.17583
2.17246
2.16557
2.16034
2.15104
2.14525
2.13627
2.13108
2.12228
2.11696
2.10767
2.10186
2.09214
2.08595
2.07608
2.06968
2.05979
2.05323
2.04328
2.03666
2.02675
2.02018
2.01035
2.00382
1.9941
1.9875
1.97788
1.97115
1.96159
1.95487
1.94539
1.9388
1.92946
1.92299
1.91385
1.90745
1.89854
1.89224
1.88353
1.87737
1.86886
1.86288
1.85466
1.84917
1.84221
1.84004
2.22149
2.17164
2.11998
2.0682
2.01794
1.96948
1.92398
1.88082
1.84086
1.8033
1.76884
1.73677
1.70767
1.68097
1.6572
1.63594
1.61769
1.60222
1.59
1.58043
1.57445
1.57132
1.57093
1.5714
1.5728
1.57582
1.58073
1.58788
1.60102
1.6277
1.68314
1.79392
2.03599
2.29663
2.5589
2.57081
2.54081
2.49054
2.42574
2.36299
2.30965
2.26836
2.23384
2.20383
2.18153
2.16453
2.15522
2.14547
2.14199
2.13866
2.13881
2.13969
2.14172
2.14115
2.13948
2.13754
2.13364
2.13033
2.12325
2.11842
2.10975
2.10438
2.09527
2.08981
2.08085
2.07553
2.06656
2.06098
2.05173
2.04577
2.03632
2.03001
2.02058
2.01414
2.00475
1.99824
1.98886
1.98229
1.97293
1.96635
1.95706
1.9505
1.94131
1.93476
1.92569
1.91914
1.91022
1.90377
1.89495
1.88871
1.88001
1.87399
1.86545
1.85961
1.85127
1.84556
1.83748
1.83218
1.82527
1.82315
2.21437
2.17041
2.1241
2.07666
2.03008
1.9844
1.94077
1.89924
1.85994
1.8232
1.78855
1.75656
1.72653
1.69916
1.67368
1.65089
1.63006
1.61204
1.59609
1.58332
1.57271
1.56532
1.5605
1.55941
1.56002
1.56199
1.56644
1.57563
1.59318
1.62891
1.69755
1.83236
2.01901
2.19485
2.38714
2.47045
2.46689
2.44696
2.41511
2.35949
2.30289
2.25969
2.2234
2.19169
2.16532
2.14446
2.12903
2.11768
2.10986
2.10437
2.10101
2.10069
2.10121
2.10285
2.10323
2.10244
2.10026
2.09816
2.09377
2.08999
2.08219
2.07721
2.06872
2.0638
2.05541
2.05036
2.04185
2.03655
2.02787
2.02217
2.01323
2.00729
1.9983
1.99226
1.98328
1.97708
1.96805
1.96161
1.95255
1.94603
1.93705
1.93066
1.92172
1.91548
1.90656
1.90043
1.89168
1.88561
1.87718
1.87114
1.86295
1.85699
1.84882
1.84305
1.83478
1.82922
1.82106
1.81591
1.80894
1.80686
2.20564
2.1663
2.12493
2.08175
2.0386
1.99622
1.95468
1.91505
1.87694
1.84095
1.80693
1.77482
1.74494
1.71673
1.69088
1.66653
1.64474
1.62435
1.60676
1.59066
1.57748
1.5663
1.55804
1.55357
1.55367
1.55558
1.5608
1.57279
1.59829
1.6509
1.75696
1.90343
2.03386
2.11482
2.22149
2.33919
2.39436
2.39984
2.38403
2.35946
2.30979
2.26624
2.22688
2.19084
2.1593
2.13466
2.1137
2.09725
2.08575
2.07661
2.06917
2.0668
2.0637
2.06378
2.06442
2.0661
2.06559
2.06433
2.06156
2.0593
2.05453
2.05067
2.04286
2.03815
2.02996
2.02518
2.01711
2.0122
2.00387
1.99844
1.9899
1.98422
1.97563
1.96984
1.9612
1.95529
1.94659
1.94054
1.93181
1.92566
1.91697
1.91087
1.90227
1.89629
1.88775
1.88186
1.87338
1.86755
1.85918
1.85337
1.84506
1.83928
1.83105
1.82536
1.81728
1.81176
1.80392
1.79893
1.79219
1.79039
2.19643
2.16152
2.12398
2.08541
2.04526
2.00579
1.96693
1.9289
1.89263
1.8574
1.82431
1.79244
1.76274
1.73425
1.70818
1.68299
1.66053
1.63871
1.61991
1.60168
1.58672
1.5727
1.56218
1.55501
1.55499
1.55743
1.56489
1.58277
1.62193
1.704
1.84182
1.9694
2.03241
2.07341
2.11128
2.17668
2.25838
2.31526
2.33521
2.32553
2.30418
2.27072
2.23516
2.19659
2.16242
2.132
2.10636
2.08503
2.0676
2.05408
2.0441
2.03696
2.03063
2.02859
2.02755
2.02786
2.02883
2.02942
2.02877
2.02742
2.02516
2.02268
2.01709
2.01297
2.00497
2.00024
1.99229
1.98742
1.97939
1.97424
1.96615
1.96086
1.9527
1.94726
1.93895
1.93341
1.92503
1.91943
1.91106
1.90537
1.89695
1.89119
1.88269
1.87691
1.86835
1.86253
1.85407
1.84826
1.84002
1.83435
1.82633
1.82089
1.81303
1.80782
1.80008
1.79503
1.78747
1.78262
1.77604
1.77391
2.18558
2.15493
2.1212
2.08542
2.04967
2.01207
1.97604
1.93995
1.90517
1.87144
1.83928
1.80801
1.7792
1.75042
1.72491
1.69901
1.67658
1.65379
1.63429
1.61497
1.59837
1.58331
1.57055
1.56394
1.56427
1.56855
1.58058
1.60968
1.67495
1.79353
1.9244
1.99934
2.02895
2.03721
2.04808
2.07269
2.11639
2.1737
2.2368
2.26697
2.26722
2.25707
2.23784
2.20333
2.17077
2.13658
2.10661
2.07959
2.05781
2.03961
2.02458
2.0141
2.00445
1.99857
1.9954
1.99253
1.99254
1.99305
1.99456
1.99416
1.99299
1.99172
1.98918
1.98642
1.98033
1.97606
1.96821
1.96357
1.95608
1.9515
1.94391
1.93893
1.93094
1.92574
1.9176
1.91236
1.90421
1.89883
1.89065
1.88513
1.87688
1.87133
1.86304
1.85752
1.8493
1.84379
1.8357
1.83023
1.8223
1.81694
1.80916
1.8039
1.79619
1.79095
1.78327
1.77805
1.77059
1.76569
1.75925
1.75719
2.1741
2.14621
2.11648
2.08398
2.05024
2.01695
1.98175
1.94853
1.91523
1.88248
1.85209
1.82094
1.79324
1.76482
1.73938
1.71405
1.69077
1.66874
1.64764
1.62889
1.61054
1.59563
1.5823
1.57823
1.5807
1.58871
1.60984
1.65911
1.76079
1.89227
1.97829
2.00786
2.01454
2.01197
2.00832
2.00981
2.02169
2.04871
2.09389
2.14884
2.19057
2.21403
2.2064
2.19344
2.17431
2.14263
2.11301
2.08237
2.05568
2.03254
2.01357
1.99781
1.98471
1.97549
1.96751
1.96142
1.95987
1.95857
1.95878
1.95936
1.96064
1.96017
1.95907
1.95778
1.95492
1.95172
1.94504
1.94073
1.93344
1.92889
1.9215
1.91684
1.90925
1.9044
1.8966
1.89151
1.88364
1.87835
1.87048
1.86515
1.85733
1.85208
1.84432
1.83911
1.83136
1.82615
1.81843
1.81317
1.8055
1.80015
1.79255
1.78726
1.77978
1.77466
1.76723
1.76219
1.75486
1.75005
1.74363
1.74154
2.16285
2.13516
2.1084
2.07972
2.04907
2.01729
1.98665
1.95295
1.92358
1.89096
1.8623
1.83253
1.8046
1.77812
1.75155
1.72819
1.70347
1.68278
1.66057
1.64237
1.62341
1.60896
1.59827
1.59838
1.6039
1.61919
1.65695
1.74007
1.87047
1.96645
2.00171
2.00689
2.00031
1.9907
1.98005
1.96996
1.96879
1.97288
1.98853
2.02016
2.06288
2.11316
2.14283
2.15697
2.14985
2.13554
2.11476
2.08792
2.06038
2.03328
2.00966
1.98934
1.97164
1.95702
1.94583
1.93687
1.93154
1.92719
1.92587
1.92588
1.92629
1.92736
1.92722
1.92678
1.92584
1.92427
1.92061
1.91716
1.91013
1.90552
1.89829
1.89383
1.88663
1.88212
1.87488
1.87017
1.8629
1.858
1.85071
1.84567
1.83827
1.83317
1.82566
1.82057
1.81301
1.8079
1.80045
1.79533
1.78811
1.78301
1.77582
1.77068
1.76339
1.75828
1.75106
1.74613
1.7391
1.73461
1.72842
1.72666
2.14906
2.12568
2.09872
2.07307
2.04536
2.01595
1.98752
1.95733
1.92726
1.89908
1.86888
1.84258
1.81394
1.78899
1.76299
1.73909
1.71634
1.69372
1.67388
1.6536
1.63734
1.62268
1.61942
1.62335
1.63507
1.66392
1.73282
1.85387
1.96059
2.0042
2.00941
2.00108
1.98911
1.97321
1.9565
1.94282
1.93397
1.92908
1.9299
1.93737
1.95589
1.98744
2.02699
2.06852
2.09093
2.1002
2.09333
2.08042
2.05991
2.03575
2.01115
1.98712
1.96529
1.947
1.93107
1.91826
1.90958
1.9014
1.89647
1.89447
1.89287
1.89296
1.89343
1.89468
1.89436
1.89371
1.89269
1.89087
1.88669
1.88322
1.8765
1.8721
1.86497
1.86048
1.8535
1.84907
1.84221
1.83768
1.83076
1.82607
1.81898
1.81416
1.80696
1.8021
1.79491
1.78991
1.78262
1.77744
1.7701
1.76504
1.75788
1.75314
1.74619
1.74162
1.73475
1.73026
1.72348
1.71918
1.71316
1.71129
2.13742
2.11292
2.09011
2.06384
2.04066
2.01276
1.98612
1.95882
1.9309
1.90304
1.87643
1.8487
1.82386
1.79714
1.77404
1.74909
1.72747
1.70518
1.68514
1.66666
1.65037
1.64313
1.64515
1.65455
1.67821
1.7346
1.84698
1.96094
2.01363
2.02056
2.01106
1.99695
1.97792
1.95759
1.93893
1.92432
1.91069
1.90119
1.89376
1.89132
1.89248
1.9007
1.91874
1.94659
1.98133
2.01633
2.03581
2.04515
2.0392
2.02811
2.00987
1.98777
1.96569
1.94445
1.92413
1.90688
1.89271
1.88145
1.8736
1.86722
1.86267
1.86157
1.86134
1.86168
1.86234
1.86381
1.86367
1.86316
1.86185
1.85959
1.85447
1.85067
1.84388
1.83959
1.83272
1.82841
1.82171
1.81742
1.81076
1.80642
1.79965
1.79518
1.78821
1.78357
1.77662
1.77201
1.76521
1.76064
1.75382
1.74914
1.74222
1.73747
1.73052
1.72581
1.71886
1.71428
1.70748
1.70322
1.69727
1.69549
2.12265
2.10083
2.07872
2.05552
2.03165
2.0084
1.98244
1.95744
1.93188
1.90586
1.87995
1.85496
1.82944
1.80593
1.78125
1.75969
1.73617
1.71669
1.69571
1.67978
1.6681
1.66833
1.67616
1.69656
1.74313
1.84498
1.96586
2.02741
2.03655
2.02657
2.01101
1.99
1.96597
1.94428
1.92562
1.90885
1.89466
1.88214
1.87096
1.86145
1.85409
1.85177
1.85295
1.86079
1.87811
1.9041
1.93501
1.96568
1.98336
1.99281
1.98716
1.97733
1.96224
1.94178
1.92182
1.90244
1.88374
1.86828
1.85623
1.84703
1.83937
1.83482
1.83178
1.83137
1.83157
1.83207
1.8334
1.83331
1.83301
1.83223
1.83022
1.82764
1.82203
1.81808
1.81143
1.80725
1.80088
1.79692
1.79077
1.78699
1.78091
1.77715
1.77095
1.76691
1.76036
1.75592
1.74912
1.74443
1.73764
1.73281
1.72609
1.72125
1.71456
1.70986
1.70319
1.69869
1.69213
1.68805
1.68224
1.68069
2.10808
2.09057
2.0684
2.04597
2.02431
2.00121
1.97893
1.95434
1.93061
1.90666
1.88244
1.85804
1.83487
1.81101
1.78886
1.76601
1.74585
1.72474
1.70781
1.69355
1.692
1.69846
1.7157
1.75632
1.84556
1.97184
2.04437
2.0568
2.04661
2.02987
2.00715
1.98067
1.95668
1.93543
1.91618
1.89819
1.88184
1.86681
1.85351
1.84105
1.82944
1.82052
1.8137
1.81181
1.813
1.81976
1.83482
1.85845
1.88505
1.91216
1.92959
1.9414
1.93618
1.92933
1.91877
1.90085
1.88198
1.86348
1.84664
1.83279
1.82203
1.81347
1.80684
1.80279
1.80146
1.80097
1.80117
1.80173
1.80303
1.80285
1.80239
1.80145
1.79915
1.79659
1.79134
1.78788
1.78213
1.77842
1.77252
1.76861
1.76255
1.75857
1.75231
1.74827
1.74179
1.73761
1.73101
1.72662
1.72009
1.71556
1.70915
1.70459
1.69832
1.69385
1.68775
1.68348
1.67748
1.67363
1.66816
1.66668
2.08778
2.07659
2.05797
2.03572
2.01466
1.99403
1.97211
1.95102
1.92783
1.90548
1.88299
1.86029
1.83767
1.81593
1.79407
1.77331
1.75257
1.73541
1.71938
1.716
1.72158
1.7365
1.77267
1.84848
1.97795
2.06226
2.07894
2.06953
2.05244
2.02763
1.99972
1.97355
1.95066
1.92915
1.9094
1.89024
1.87266
1.85545
1.83998
1.82548
1.81263
1.80024
1.78903
1.77999
1.77347
1.77091
1.77188
1.77712
1.78953
1.8112
1.83466
1.85953
1.87877
1.89175
1.8893
1.88482
1.87705
1.8619
1.84335
1.82598
1.81164
1.79902
1.78853
1.78103
1.77568
1.77306
1.77252
1.77267
1.7731
1.77405
1.77485
1.77477
1.77439
1.77323
1.77016
1.76729
1.76172
1.7581
1.75243
1.74885
1.74325
1.73971
1.73388
1.73019
1.72414
1.72028
1.71411
1.71001
1.70377
1.6995
1.69332
1.689
1.68293
1.67863
1.67262
1.66852
1.66257
1.65886
1.65351
1.652
2.06723
2.06196
2.04677
2.02645
2.00569
1.98598
1.96563
1.94505
1.92433
1.90268
1.88154
1.86035
1.83941
1.81777
1.79804
1.77799
1.76005
1.74451
1.73909
1.74372
1.75744
1.78921
1.85765
1.98711
2.08152
2.10322
2.09433
2.07692
2.0505
2.02101
1.99337
1.96859
1.94556
1.92402
1.90331
1.88368
1.86476
1.84701
1.82979
1.81362
1.79829
1.7845
1.77123
1.75904
1.7484
1.73955
1.73308
1.72968
1.73045
1.73429
1.74456
1.76414
1.78564
1.80931
1.8307
1.8432
1.84733
1.8439
1.83708
1.82427
1.8081
1.7924
1.77761
1.76535
1.75616
1.74891
1.74545
1.74324
1.74326
1.74361
1.74494
1.74581
1.74686
1.74685
1.74644
1.7452
1.74188
1.73909
1.73389
1.7305
1.72499
1.72159
1.71596
1.71247
1.70667
1.70306
1.69721
1.69347
1.68759
1.68362
1.67781
1.67374
1.66809
1.66406
1.65841
1.65444
1.6488
1.64508
1.63997
1.6384
2.0362
2.04085
2.0336
2.01756
1.99712
1.97762
1.95865
1.93958
1.91992
1.90032
1.87983
1.85953
1.83968
1.81994
1.80023
1.78289
1.76691
1.76058
1.76423
1.77739
1.80732
1.87335
1.99331
2.09582
2.12359
2.11696
2.10002
2.07323
2.04276
2.01437
1.98854
1.9646
1.94162
1.9196
1.89848
1.87855
1.85919
1.84049
1.822
1.80437
1.78726
1.77163
1.75702
1.74404
1.73112
1.71924
1.70831
1.69948
1.69296
1.6893
1.69002
1.69279
1.70152
1.71868
1.73842
1.76079
1.78265
1.7966
1.80624
1.80297
1.7977
1.78945
1.77706
1.76166
1.74711
1.73544
1.72669
1.7205
1.71729
1.71622
1.7164
1.71701
1.71893
1.72004
1.72052
1.72043
1.71976
1.71821
1.71454
1.71184
1.70664
1.70347
1.6981
1.69482
1.68933
1.68587
1.68032
1.67672
1.67125
1.66744
1.66202
1.65814
1.65277
1.64898
1.64365
1.63995
1.63456
1.63108
1.6261
1.62468
1.99945
2.01881
2.01756
2.00647
1.98872
1.96902
1.95053
1.93253
1.91446
1.89599
1.87747
1.85836
1.83945
1.82082
1.80362
1.7883
1.78096
1.78393
1.79687
1.82585
1.89058
2.00361
2.11296
2.14597
2.14064
2.12382
2.09594
2.06457
2.03572
2.00933
1.9844
1.96037
1.93726
1.91533
1.89423
1.87375
1.85357
1.8339
1.8146
1.79617
1.77848
1.76184
1.74612
1.73139
1.71752
1.70414
1.69152
1.67972
1.66921
1.66066
1.65477
1.65078
1.65128
1.65316
1.66011
1.67438
1.69244
1.71471
1.73705
1.75388
1.76573
1.76578
1.76277
1.75638
1.74377
1.72943
1.71741
1.70757
1.69975
1.69416
1.69139
1.69113
1.69143
1.69234
1.69414
1.69532
1.6956
1.69539
1.69449
1.69272
1.68872
1.68596
1.68075
1.67763
1.67231
1.6691
1.66383
1.66046
1.65528
1.65178
1.64666
1.64306
1.63795
1.63431
1.62924
1.62571
1.62063
1.61736
1.61262
1.61121
1.92405
1.98635
1.99691
1.9931
1.98016
1.96168
1.94327
1.92578
1.90836
1.89119
1.87336
1.85571
1.83835
1.82171
1.80707
1.79969
1.80243
1.81548
1.84405
1.90765
2.01703
2.13432
2.1707
2.16588
2.14822
2.1188
2.08605
2.05642
2.0294
2.00386
1.97925
1.95561
1.93298
1.91093
1.88954
1.86842
1.84782
1.82755
1.80803
1.78909
1.77122
1.75388
1.73749
1.72136
1.70625
1.69169
1.6784
1.66538
1.65337
1.64219
1.63222
1.62375
1.61769
1.61288
1.61323
1.61483
1.62016
1.63129
1.64867
1.6706
1.69193
1.71253
1.72601
1.73152
1.72842
1.72287
1.71168
1.70022
1.69005
1.6814
1.67448
1.66974
1.66757
1.66762
1.66806
1.66912
1.67039
1.67133
1.67169
1.6713
1.66992
1.66794
1.66364
1.66077
1.65565
1.65259
1.64762
1.64447
1.63957
1.63628
1.63146
1.62806
1.62333
1.61989
1.61514
1.61183
1.60702
1.60401
1.59956
1.5983
1.78129
1.93794
1.9699
1.97412
1.96838
1.9546
1.93654
1.91923
1.9024
1.88597
1.86961
1.85303
1.83747
1.82347
1.8163
1.81921
1.83271
1.86149
1.9253
2.03473
2.1519
2.19076
2.18672
2.16963
2.13978
2.10615
2.07602
2.04879
2.02322
1.99839
1.97438
1.95104
1.9283
1.90612
1.88427
1.86279
1.84172
1.82123
1.80154
1.78262
1.76445
1.74679
1.72967
1.71299
1.69701
1.68172
1.66732
1.65372
1.64096
1.62842
1.61656
1.60547
1.59563
1.58736
1.58134
1.57651
1.57682
1.5782
1.5821
1.59138
1.60783
1.62852
1.65035
1.67329
1.68932
1.69835
1.69601
1.69113
1.68231
1.67329
1.66441
1.65633
1.65071
1.6473
1.64558
1.64565
1.64614
1.64746
1.64796
1.64928
1.64915
1.64833
1.64611
1.644
1.63969
1.63698
1.63222
1.62922
1.62457
1.62143
1.61691
1.61367
1.60919
1.606
1.60142
1.59833
1.59368
1.59086
1.58661
1.58555
1.56885
1.84943
1.93945
1.95567
1.95519
1.94629
1.93067
1.91273
1.89574
1.87979
1.86434
1.85005
1.83724
1.83098
1.83443
1.84871
1.87829
1.94316
2.05399
2.17031
2.21036
2.2067
2.18984
2.16006
2.12571
2.09519
2.06793
2.04232
2.01742
1.99304
1.96926
1.94598
1.92317
1.90067
1.87853
1.85684