/*--------------------------------*- C++ -*----------------------------------*\
  =========                 |
  \\      /  F ield         | OpenFOAM: The Open Source CFD Toolbox
   \\    /   O peration     | Website:  https://openfoam.org
    \\  /    A nd           | Version:  9
     \\/     M anipulation  |
\*---------------------------------------------------------------------------*/
FoamFile
{
    format      ascii;
    class       volScalarField;
    location    "0.001";
    object      mag(U);
}
// * * * * * * * * * * * * * * * * * * * * * * * * * * * * * * * * * * * * * //

dimensions      [0 1 -1 0 0 0 0];

internalField   nonuniform List<scalar> 
1000
(
7.29365e-14
2.46125e-28
1.45873e-14
1.45873e-13
1.45873e-13
2.47984e-13
8.75238e-14
1.6046e-13
1.6046e-13
8.75238e-14
8.75238e-14
2.33397e-13
2.47984e-13
4.37619e-14
5.83492e-14
3.20921e-13
2.91746e-14
4.08444e-13
1.89635e-13
3.35508e-13
2.91746e-14
5.83492e-14
3.8812e-28
1.16698e-13
1.89635e-13
8.75238e-14
1.45873e-14
1.45873e-14
5.83492e-14
2.91746e-14
7.29365e-14
5.83492e-14
1.45873e-14
1.31286e-13
2.91746e-14
2.04222e-13
5.83492e-14
7.29365e-14
1.16698e-13
1.43881e-27
1.6046e-13
4.37619e-14
8.75238e-14
1.89635e-13
2.1881e-13
5.83492e-14
1.45873e-13
1.31286e-13
1.16698e-13
2.91746e-14
1.45873e-14
4.37619e-14
1.75048e-13
5.83492e-14
1.02111e-13
1.02111e-13
1.16698e-13
1.16698e-13
1.16698e-13
1.16698e-13
2.33397e-13
1.02111e-13
1.45873e-13
1.75048e-13
1.02111e-13
8.75238e-14
4.37619e-14
1.31286e-13
1.31286e-13
2.04222e-13
5.83492e-14
1.75048e-13
1.02111e-13
2.04222e-13
7.29365e-14
2.91746e-14
2.91746e-14
1.16698e-13
1.45873e-14
1.45873e-13
1.02111e-13
1.6046e-13
8.75238e-14
4.37619e-14
7.29365e-14
4.37619e-14
8.75238e-14
3.06333e-13
1.6046e-13
2.1881e-13
1.45873e-14
5.83492e-14
7.29365e-14
4.37619e-14
1.16698e-13
1.45873e-13
4.37619e-14
2.33397e-13
5.83492e-14
4.37619e-14
1.75048e-13
1.45873e-13
3.35508e-13
2.04222e-13
3.20921e-13
3.06333e-13
2.47984e-13
7.29365e-14
7.29365e-14
1.02111e-13
2.33397e-13
2.91746e-14
1.45873e-14
8.75238e-14
3.7927e-13
1.89635e-13
4.08444e-13
3.20921e-13
1.6046e-13
1.6046e-13
1.45873e-14
2.91746e-14
1.16698e-13
1.6046e-13
1.45873e-14
1.45873e-13
5.83492e-14
4.37619e-14
1.02111e-13
2.91746e-14
1.31286e-13
7.29365e-14
2.62571e-13
1.02111e-13
2.77159e-13
2.33397e-13
4.37619e-14
2.91746e-14
1.89635e-13
4.37619e-14
1.31286e-13
1.45873e-13
5.83492e-14
4.37619e-14
5.83492e-14
1.75048e-13
1.45873e-14
1.45873e-14
1.45873e-13
7.29365e-14
2.1881e-13
4.37619e-14
8.75238e-14
4.37619e-14
1.02111e-13
2.04222e-13
4.37619e-14
4.37619e-14
5.83492e-14
1.31286e-13
1.45873e-14
1.16698e-13
1.45873e-14
1.89635e-13
2.1881e-13
2.1881e-13
5.83492e-14
1.31286e-13
1.31286e-13
1.45873e-14
1.31286e-13
4.37619e-14
1.31286e-13
7.29365e-14
2.04222e-13
8.75238e-14
2.91746e-14
2.62571e-13
7.29365e-14
1.45873e-14
1.45873e-14
1.02111e-13
5.83492e-14
4.37619e-14
5.83492e-14
1.02111e-13
1.45873e-14
2.1881e-13
7.29365e-14
4.37619e-14
2.33397e-13
8.75238e-14
3.20921e-13
8.75238e-14
7.29365e-14
1.16698e-13
2.33397e-13
1.6046e-13
3.20921e-13
5.83492e-14
1.45873e-13
5.83492e-14
2.1881e-13
1.75048e-13
1.45873e-14
2.91746e-14
7.29365e-14
7.29365e-14
1.02111e-13
7.29365e-14
5.42736e-28
1.75048e-13
1.75048e-13
2.91746e-14
1.45873e-14
8.75238e-14
3.7927e-13
3.93857e-13
1.6046e-13
1.6046e-13
7.29365e-14
7.29365e-14
1.31286e-13
1.16698e-13
8.75238e-14
5.83492e-14
5.83492e-14
1.31286e-13
2.91746e-14
1.75048e-13
5.83492e-14
8.75238e-14
5.83492e-14
1.45873e-14
4.37619e-14
8.75238e-14
1.31286e-13
1.31286e-13
2.91746e-13
1.6046e-13
6.31089e-29
7.29365e-14
1.45873e-14
2.1881e-13
5.83492e-14
1.75048e-13
1.57772e-28
1.45873e-14
4.37619e-14
2.47984e-13
2.77159e-13
2.91746e-13
3.20921e-13
1.45873e-14
2.1881e-13
1.45873e-14
1.02111e-13
1.45873e-13
8.75238e-14
4.37619e-14
1.45873e-14
5.83492e-14
5.83492e-14
1.16698e-13
1.89635e-13
8.75238e-14
1.02111e-13
7.29365e-14
1.16698e-13
2.1881e-13
4.95405e-28
5.83492e-14
1.75048e-13
1.02111e-13
8.75238e-14
4.37619e-14
2.47984e-13
1.45873e-14
1.02111e-13
4.37619e-14
2.04222e-13
1.45873e-14
1.89635e-13
7.29365e-14
5.83492e-14
4.37619e-14
1.16698e-13
1.6046e-13
1.6046e-13
3.06333e-13
2.77159e-13
1.31286e-13
2.62571e-13
1.16698e-13
1.16698e-13
4.37619e-14
1.6046e-13
1.6046e-13
2.62571e-13
1.31286e-13
3.93857e-13
3.64683e-13
4.95968e-13
5.3973e-13
7.0019e-13
8.02302e-13
9.77349e-13
6.71016e-13
1.05029e-12
7.87714e-13
7.5854e-13
9.62762e-13
8.31476e-13
1.41497e-12
9.77349e-13
1.23992e-12
8.75238e-13
1.06487e-12
8.16889e-13
6.85603e-13
5.98079e-13
3.64683e-13
2.91746e-13
1.75048e-13
2.91746e-14
8.75238e-14
1.31286e-13
7.29365e-14
2.91746e-14
3.59721e-28
1.31286e-13
2.04222e-13
1.31286e-13
5.83492e-14
8.75238e-14
1.02111e-13
8.75238e-14
5.83492e-14
2.1881e-13
7.29365e-14
1.75048e-13
8.75238e-14
1.02111e-13
7.29365e-14
5.83492e-14
1.6046e-13
1.16698e-13
5.83492e-14
4.37619e-14
1.6046e-13
7.29365e-14
1.02111e-13
1.31286e-13
8.75238e-14
2.62571e-13
4.37619e-14
8.75238e-14
4.37619e-14
1.45873e-13
2.91746e-14
1.31286e-13
5.83492e-14
1.89635e-13
8.75238e-14
5.83492e-14
1.45873e-14
2.04222e-13
1.02111e-13
7.29365e-14
1.31286e-13
2.91746e-14
4.37619e-14
1.75048e-13
2.91746e-14
8.75238e-14
1.6046e-13
1.16698e-13
1.31286e-13
1.75048e-13
2.62571e-13
1.75048e-13
1.75048e-13
2.47984e-13
3.06333e-13
1.89635e-13
4.37619e-14
1.6046e-13
2.1881e-13
8.75238e-14
2.1881e-13
1.75048e-13
1.89635e-13
1.89635e-13
1.45873e-13
1.02111e-13
2.1881e-13
2.1881e-13
1.6046e-13
5.83492e-14
1.02111e-13
1.45873e-14
2.91746e-14
4.37619e-14
2.91746e-13
5.10556e-13
2.62571e-13
4.66794e-13
2.1881e-13
3.35508e-13
1.02111e-13
1.75048e-13
1.6046e-13
3.64683e-13
1.02111e-13
2.1881e-13
1.16698e-13
2.47984e-13
5.83492e-14
2.1881e-13
1.2691e-12
2.757e-12
8.05219e-12
2.2056e-11
6.12812e-11
1.68367e-10
4.56422e-10
1.22204e-09
3.23374e-09
8.44826e-09
2.17892e-08
5.54538e-08
1.39222e-07
3.44673e-07
8.41134e-07
2.0226e-06
4.79024e-06
1.11691e-05
2.56265e-05
5.78302e-05
0.000128289
0.000279608
0.000598384
0.00125663
0.00258784
0.00522229
0.0103191
0.0199492
0.0376993
0.0695766
0.125284
0.219887
0.375785
0.624737
1.00946
1.58415
2.4132
3.56763
5.11923
7.13323
9.66084
12.7332
16.3585
20.5217
25.1887
30.3131
35.842
41.7222
47.9036
54.3409
60.9952
67.8332
74.8273
81.9544
89.1948
96.532
103.951
111.44
118.986
126.578
134.205
141.86
149.525
157.207
164.865
172.535
180.154
187.751
195.306
202.781
210.191
217.51
224.704
231.757
238.649
245.338
251.78
257.934
263.751
269.173
274.132
278.57
282.434
285.687
288.307
290.303
291.724
292.646
293.181
293.425
293.485
293.468
293.387
293.257
293.139
293.061
293.023
293.004
292.998
293.012
293.07
293.102
293.085
293.168
293.413
293.349
293.06
292.907
292.795
292.796
292.848
292.911
292.968
293.007
293.032
293.044
293.048
293.052
293.054
293.052
293.036
292.998
292.958
292.94
292.921
292.882
292.821
292.729
292.58
292.304
291.784
290.683
288.194
282.568
269.669
240.578
185.738
112.475
50.1543
17.1135
4.93658
1.29776
0.327905
0.0818322
0.0203555
0.00505906
0.00125696
0.000312232
7.75413e-05
1.92516e-05
4.77807e-06
1.1854e-06
2.93945e-07
7.28491e-08
1.80425e-08
4.46525e-09
1.10406e-09
2.72564e-10
6.71163e-11
1.64107e-11
3.92399e-12
8.02303e-13
1.45873e-14
4.23032e-13
5.83493e-14
2.77159e-13
1.45873e-13
1.60461e-13
5.83493e-14
2.91746e-14
1.16699e-13
2.04222e-13
2.1881e-13
2.47984e-13
4.23032e-13
3.06334e-13
4.95969e-13
4.3762e-13
3.50096e-13
3.20921e-13
3.35508e-13
4.3762e-13
4.66794e-13
2.47984e-13
3.64683e-13
1.89635e-13
3.35508e-13
1.89635e-13
3.64683e-13
1.60461e-13
1.89635e-13
1.16699e-13
1.45873e-14
4.3762e-14
4.3762e-14
4.3762e-14
1.75048e-13
4.3762e-14
1.17205e-28
8.75239e-14
1.45873e-14
4.3762e-14
7.29366e-14
1.89635e-13
8.75239e-14
1.31286e-13
1.31286e-13
1.02111e-13
8.75239e-14
1.75048e-13
1.02111e-13
1.89635e-13
1.45873e-13
2.91746e-14
1.45873e-14
2.91746e-14
8.75239e-14
8.75239e-14
1.45873e-14
1.89635e-13
5.83493e-14
3.7927e-13
7.29366e-14
1.02111e-13
1.45873e-13
1.31286e-13
5.83493e-14
1.60461e-13
4.73317e-28
8.75239e-14
7.29366e-14
1.89635e-13
1.16699e-13
1.31286e-13
5.83493e-14
7.29366e-14
4.3762e-14
1.75048e-13
1.75048e-13
1.31286e-13
2.1881e-13
5.83493e-14
1.45873e-13
1.45873e-13
1.16699e-13
1.02111e-13
2.62572e-13
1.02111e-13
8.29635e-28
1.16699e-13
2.1881e-13
1.75048e-13
1.45873e-13
7.29366e-14
1.45873e-14
2.47984e-13
1.60461e-13
3.35508e-13
2.91746e-14
1.45873e-14
1.45873e-13
1.45873e-14
2.04222e-13
7.29366e-14
7.29366e-14
1.75048e-13
2.77159e-13
3.50096e-13
3.50096e-13
4.08445e-13
4.3762e-13
4.95969e-13
6.41842e-13
4.66794e-13
5.54318e-13
5.25144e-13
5.10556e-13
8.31477e-13
7.14779e-13
7.29366e-13
8.89827e-13
7.29366e-13
1.05029e-12
7.14779e-13
9.04414e-13
9.19001e-13
9.04414e-13
8.46065e-13
8.1689e-13
3.93858e-13
7.29366e-13
2.04222e-13
3.50096e-13
2.91746e-14
4.23032e-13
2.1881e-13
2.77159e-13
2.62572e-13
4.3762e-13
1.60461e-13
3.93858e-13
2.33397e-13
4.3762e-14
1.60461e-13
1.31286e-13
3.64683e-13
8.75239e-14
1.75048e-13
1.31286e-13
1.45873e-14
2.1881e-13
5.83493e-14
2.91746e-14
1.16699e-13
2.33397e-13
1.45873e-14
1.75048e-13
2.91746e-13
1.75048e-13
1.31286e-13
1.16699e-13
5.83493e-14
1.89635e-13
8.75239e-14
2.91746e-14
3.06334e-13
8.75239e-14
2.91746e-14
2.91746e-13
1.89635e-13
1.89635e-13
1.89635e-13
7.29366e-14
1.75048e-13
3.00035e-27
1.60461e-13
1.60461e-13
4.3762e-14
2.47984e-13
1.16699e-13
4.3762e-14
2.91746e-14
1.45873e-14
1.31286e-13
1.02111e-13
2.91746e-14
3.64683e-13
4.3762e-14
2.04222e-13
1.02111e-13
2.04222e-13
1.16699e-13
8.75239e-14
1.02111e-13
1.60461e-13
2.04222e-13
1.45873e-13
7.29366e-14
4.3762e-14
2.1881e-13
3.40788e-28
2.91746e-14
7.29366e-14
1.02111e-13
4.3762e-14
7.29366e-14
1.02111e-13
2.62572e-13
1.45873e-14
8.75239e-14
1.31286e-13
1.45873e-14
4.3762e-14
1.02111e-13
2.47984e-13
4.3762e-14
2.62572e-13
1.75048e-13
3.20921e-13
4.3762e-14
4.3762e-14
7.29366e-14
8.75239e-14
2.77159e-13
2.91746e-14
8.75239e-14
1.31286e-13
1.16699e-13
1.45873e-13
8.75239e-14
8.75239e-14
1.31286e-13
2.47984e-13
2.91746e-13
1.45873e-14
1.75048e-13
2.91746e-14
1.45873e-13
1.60461e-13
2.91746e-14
2.1881e-13
7.29366e-14
2.91746e-14
1.16699e-13
2.33397e-13
8.75239e-14
4.08445e-13
1.45873e-13
2.47984e-13
1.89635e-13
2.77159e-13
2.77159e-13
1.75048e-13
1.89635e-13
3.20921e-13
1.16699e-13
4.23032e-13
1.75048e-13
3.50096e-13
1.45873e-13
4.3762e-14
2.1881e-13
2.33397e-13
3.20921e-13
1.89635e-13
1.85225e-27
7.29366e-14
4.3762e-14
4.3762e-14
1.31286e-13
5.83493e-14
7.29366e-14
2.91746e-14
3.20921e-13
1.02111e-13
3.50096e-13
1.02111e-13
3.20921e-13
1.45873e-13
2.77159e-13
4.08445e-13
1.89635e-13
4.52207e-13
5.83493e-14
3.20921e-13
1.60461e-13
1.60461e-13
5.83493e-14
1.45873e-13
2.04222e-13
1.16699e-13
5.83493e-14
1.16699e-13
1.75048e-13
8.43497e-28
2.62572e-13
1.60461e-13
1.16699e-13
4.3762e-14
1.16699e-13
8.75239e-14
5.83493e-14
2.04222e-13
2.91746e-14
3.06334e-13
1.45873e-13
3.35508e-13
5.83493e-14
2.33397e-13
5.83493e-14
1.45873e-14
1.89635e-13
2.91746e-14
1.60461e-13
1.02111e-13
1.45873e-13
1.31286e-13
1.45873e-14
2.04222e-13
1.02111e-13
5.83493e-14
7.29366e-14
1.44204e-27
5.49047e-28
1.02111e-13
1.31286e-13
2.04222e-13
2.33397e-13
1.45873e-13
1.31286e-13
1.45873e-14
2.91746e-14
2.91746e-14
1.16699e-13
2.91746e-14
1.75048e-13
2.07628e-27
2.04222e-13
1.45873e-14
2.04222e-13
2.47984e-13
5.83493e-14
2.91746e-14
1.45873e-13
1.45873e-13
1.45873e-14
5.83493e-14
2.91746e-14
4.3762e-14
2.04222e-13
8.75239e-14
1.45873e-13
1.16699e-13
4.3762e-14
2.91746e-14
5.83493e-14
2.91746e-14
4.3762e-14
4.3762e-14
1.75048e-13
4.3762e-14
2.91746e-14
2.77159e-13
1.45873e-13
2.77159e-13
8.75239e-14
1.45873e-14
1.45873e-13
1.16699e-13
1.45873e-13
1.45873e-13
1.02111e-13
5.83493e-14
2.91746e-14
8.75239e-14
1.45873e-14
1.45873e-13
1.16699e-13
1.60461e-13
1.75048e-13
2.1881e-13
8.75239e-14
1.45873e-14
4.3762e-14
3.06334e-13
8.75239e-14
1.75048e-13
1.45873e-14
1.02111e-13
2.33397e-13
1.31286e-13
2.91746e-14
1.02111e-13
1.45873e-14
1.75048e-13
4.3762e-14
4.3762e-14
5.83493e-14
8.75239e-14
1.89635e-13
1.16699e-13
4.3762e-14
2.62572e-13
1.31286e-13
1.45873e-14
1.31286e-13
1.45873e-13
4.3762e-14
2.47984e-13
2.91746e-14
1.31286e-13
1.45873e-13
1.16699e-13
1.45873e-13
1.16699e-13
1.73865e-27
1.31286e-13
1.75048e-13
3.50096e-13
2.1881e-13
8.75239e-14
)
;

boundaryField
{
    sides
    {
        type            calculated;
        value           nonuniform List<scalar> 2(8.75239e-14 7.29365e-14);
    }
    empty
    {
        type            empty;
    }
}


// ************************************************************************* //
