/*--------------------------------*- C++ -*----------------------------------*\
  =========                 |
  \\      /  F ield         | OpenFOAM: The Open Source CFD Toolbox
   \\    /   O peration     | Website:  https://openfoam.org
    \\  /    A nd           | Version:  9
     \\/     M anipulation  |
\*---------------------------------------------------------------------------*/
FoamFile
{
    format      ascii;
    class       surfaceScalarField;
    location    "0.001";
    object      phi;
}
// * * * * * * * * * * * * * * * * * * * * * * * * * * * * * * * * * * * * * //

dimensions      [1 0 -1 0 0 0 0];

internalField   nonuniform List<scalar> 
999
(
-1.7053e-13
-1.13687e-13
-1.13687e-13
-7.38964e-13
-7.95808e-13
-6.25278e-13
-5.11591e-13
-5.68434e-13
-5.11591e-13
-3.41061e-13
-5.11591e-13
-1.08002e-12
-7.38964e-13
-1.13687e-13
4.54747e-13
6.25278e-13
9.66338e-13
1.3074e-12
9.66338e-13
7.38964e-13
1.13687e-13
1.7053e-13
3.41061e-13
7.38964e-13
7.95808e-13
2.27374e-13
5.68434e-14
1.7053e-13
1.13687e-13
-3.41061e-13
-1.13687e-13
-1.13687e-13
-2.84217e-13
-3.97904e-13
-4.54747e-13
-4.54747e-13
0
5.68434e-14
1.7053e-13
5.11591e-13
1.7053e-13
1.7053e-13
4.54747e-13
1.08002e-12
1.7053e-13
-1.7053e-13
-6.82121e-13
-6.82121e-13
-4.54747e-13
0
0
5.68434e-13
5.68434e-13
5.68434e-14
-4.54747e-13
-6.25278e-13
-3.41061e-13
-5.11591e-13
0
9.09495e-13
7.95808e-13
-1.13687e-13
0
9.66338e-13
2.84217e-13
5.68434e-14
2.27374e-13
7.38964e-13
6.25278e-13
3.41061e-13
2.84217e-13
5.68434e-14
2.84217e-13
4.54747e-13
2.84217e-13
-5.68434e-14
-3.97904e-13
-5.68434e-14
2.27374e-13
1.7053e-13
-6.82121e-13
-3.41061e-13
-1.13687e-13
-4.54747e-13
5.68434e-14
-1.7053e-13
-9.66338e-13
-7.95808e-13
-8.52651e-13
-3.41061e-13
0
-1.7053e-13
2.27374e-13
0
6.25278e-13
3.97904e-13
1.13687e-13
8.52651e-13
-1.13687e-13
-2.84217e-13
-9.09495e-13
-6.82121e-13
-1.19371e-12
-1.19371e-12
-1.36424e-12
-1.02318e-12
-5.11591e-13
-3.41061e-13
-5.68434e-13
-3.41061e-13
-6.82121e-13
-1.7053e-13
3.97904e-13
9.09495e-13
9.66338e-13
1.47793e-12
1.42109e-12
1.19371e-12
5.68434e-13
2.84217e-13
0
4.54747e-13
-1.7053e-13
-2.27374e-13
-4.54747e-13
-2.84217e-13
-2.84217e-13
-1.13687e-13
-3.97904e-13
-4.54747e-13
-3.97904e-13
-8.52651e-13
-7.95808e-13
-5.68434e-13
-1.19371e-12
-5.68434e-13
0
4.54747e-13
5.68434e-13
2.27374e-13
5.11591e-13
3.97904e-13
5.68434e-14
-2.27374e-13
-6.25278e-13
-4.54747e-13
0
-3.97904e-13
-2.84217e-13
-2.27374e-13
-3.97904e-13
-2.84217e-13
0
-1.7053e-13
-5.11591e-13
-4.54747e-13
-1.7053e-13
-2.84217e-13
1.13687e-13
6.25278e-13
5.68434e-14
2.84217e-13
2.84217e-13
8.52651e-13
9.66338e-13
8.52651e-13
1.13687e-13
1.7053e-13
-3.41061e-13
2.84217e-13
5.11591e-13
5.11591e-13
5.11591e-13
4.54747e-13
3.97904e-13
-1.13687e-13
-5.11591e-13
-3.97904e-13
1.13687e-13
0
-1.13687e-13
-1.13687e-13
-1.13687e-13
-1.13687e-13
1.7053e-13
5.68434e-14
4.54747e-13
6.82121e-13
1.7053e-13
-6.25278e-13
-5.11591e-13
-1.02318e-12
-9.09495e-13
-2.84217e-13
-1.13687e-13
-8.52651e-13
-9.09495e-13
-1.08002e-12
-7.95808e-13
-4.54747e-13
-4.54747e-13
-6.25278e-13
-1.13687e-13
4.54747e-13
-1.7053e-13
-1.7053e-13
-5.68434e-14
0
-3.97904e-13
-2.84217e-13
-1.13687e-13
-1.13687e-13
5.11591e-13
0
3.41061e-13
1.19371e-12
1.36424e-12
1.08002e-12
5.11591e-13
6.25278e-13
2.84217e-13
3.97904e-13
6.25278e-13
5.68434e-13
1.7053e-13
4.54747e-13
-1.7053e-13
-4.54747e-13
-4.54747e-13
-6.25278e-13
-1.7053e-13
-5.68434e-13
-1.13687e-13
0
3.41061e-13
3.97904e-13
6.25278e-13
7.95808e-13
8.52651e-13
4.54747e-13
1.13687e-13
1.13687e-13
5.68434e-13
5.68434e-13
6.82121e-13
3.41061e-13
1.13687e-13
-2.84217e-13
-2.84217e-13
-1.08002e-12
-1.42109e-12
-9.66338e-13
-6.25278e-13
-4.54747e-13
-2.84217e-13
-4.54747e-13
-7.38964e-13
-2.27374e-13
-4.54747e-13
-1.13687e-13
5.68434e-14
2.27374e-13
3.41061e-13
5.68434e-13
4.54747e-13
5.68434e-13
4.54747e-13
3.41061e-13
5.11591e-13
3.97904e-13
2.27374e-13
4.54747e-13
3.97904e-13
3.41061e-13
3.97904e-13
6.82121e-13
3.41061e-13
2.84217e-13
4.54747e-13
3.41061e-13
5.68434e-13
3.41061e-13
3.41061e-13
5.68434e-13
1.13687e-13
3.97904e-13
6.82121e-13
5.11591e-13
1.19371e-12
1.13687e-12
6.25278e-13
9.09495e-13
7.38964e-13
5.68434e-13
2.84217e-13
3.97904e-13
7.95808e-13
7.95808e-13
1.02318e-12
1.08002e-12
1.47793e-12
1.64846e-12
2.10321e-12
2.21689e-12
3.29692e-12
3.69482e-12
3.46745e-12
3.35376e-12
3.46745e-12
3.24007e-12
3.41061e-12
3.58114e-12
4.54747e-12
4.54747e-12
4.43379e-12
3.58114e-12
3.86535e-12
3.75167e-12
3.0127e-12
2.78533e-12
1.87583e-12
1.19371e-12
1.25056e-12
3.41061e-13
5.68434e-14
-5.68434e-14
-5.68434e-13
-1.13687e-13
0
2.27374e-13
8.52651e-13
7.95808e-13
4.54747e-13
2.84217e-13
5.11591e-13
2.84217e-13
3.41061e-13
6.82121e-13
4.54747e-13
5.68434e-14
1.7053e-13
2.27374e-13
-1.13687e-13
5.68434e-14
5.11591e-13
6.25278e-13
3.41061e-13
2.27374e-13
-1.7053e-13
-3.41061e-13
-1.13687e-13
-5.68434e-13
-5.68434e-13
-7.95808e-13
-7.95808e-13
-4.54747e-13
0
1.7053e-13
5.11591e-13
-1.7053e-13
-2.84217e-13
-6.25278e-13
-6.82121e-13
-1.7053e-13
-5.68434e-14
2.27374e-13
5.68434e-13
3.41061e-13
3.97904e-13
2.27374e-13
1.13687e-13
-3.41061e-13
-3.41061e-13
-1.13687e-13
-3.97904e-13
-5.68434e-13
-6.25278e-13
-5.11591e-13
-7.38964e-13
-9.09495e-13
-6.82121e-13
-7.95808e-13
-1.36424e-12
-9.09495e-13
-4.54747e-13
-5.68434e-13
-6.82121e-13
-6.25278e-13
-7.38964e-13
-7.38964e-13
-8.52651e-13
-8.52651e-13
-7.95808e-13
-6.25278e-13
-6.82121e-13
-9.09495e-13
-7.38964e-13
-3.41061e-13
-1.13687e-13
-2.27374e-13
5.68434e-14
0
-7.38964e-13
-1.42109e-12
-1.98952e-12
-1.47793e-12
-1.02318e-12
-1.36424e-12
-8.52651e-13
-6.82121e-13
-5.11591e-13
-1.19371e-12
-8.52651e-13
-5.68434e-13
-5.68434e-13
-7.38964e-13
-5.68434e-13
6.82121e-13
2.6148e-12
6.48015e-12
1.78488e-11
4.98517e-11
1.38414e-10
3.82897e-10
1.04552e-09
2.82051e-09
7.51771e-09
1.97922e-08
5.14446e-08
1.31977e-07
3.34063e-07
8.34002e-07
2.05285e-06
4.98001e-06
1.19017e-05
2.80099e-05
6.48837e-05
0.000147869
0.00033137
0.000729814
0.0015788
0.00335266
0.00698428
0.0142633
0.0285339
0.0558729
0.106997
0.200204
0.365668
0.651291
1.13
1.9078
3.13103
4.9903
7.71786
11.5756
16.8322
23.7319
32.4595
43.1101
55.6713
70.0214
85.9435
103.155
121.344
140.205
159.454
178.842
198.164
217.25
235.969
254.217
271.916
289.009
305.45
321.209
336.264
350.595
364.205
377.05
389.239
400.515
411.374
421.138
430.391
439.251
446.589
454.094
460.877
466.376
471.679
476.744
480.922
484.214
487.201
490.078
492.436
493.901
494.873
495.83
496.778
497.283
497.14
496.802
496.703
496.719
496.535
496.263
495.921
495.627
495.367
495.176
495.02
494.838
494.602
494.28
493.883
493.391
492.932
492.064
490.82
489.494
488.616
483.488
468.651
447.214
422.587
398.059
375.94
357.477
342.965
332.134
324.413
319.132
315.655
313.46
312.155
311.434
311.088
310.949
310.902
311.019
311.149
311.209
311.216
311.138
310.948
310.587
309.88
308.439
305.343
298.33
282.025
245.663
181.43
106.97
48.0524
16.519
4.65999
1.1985
0.299901
0.0746044
0.018541
0.00460712
0.00114467
0.000284358
7.06255e-05
1.75367e-05
4.3531e-06
1.08015e-06
2.67903e-07
6.6411e-08
1.64526e-08
4.07303e-09
1.00748e-09
2.48953e-10
6.13909e-11
1.5099e-11
3.64508e-12
8.52651e-13
1.42109e-13
-1.20792e-13
-1.13687e-13
-6.39488e-14
-1.42109e-14
-2.84217e-14
-7.10543e-15
-7.10543e-15
2.84217e-14
7.81597e-14
9.9476e-14
1.13687e-13
1.98952e-13
1.56319e-13
2.20268e-13
1.98952e-13
2.27374e-13
1.49214e-13
1.42109e-13
2.06057e-13
2.13163e-13
1.7053e-13
1.42109e-13
1.63425e-13
1.27898e-13
1.42109e-13
1.42109e-13
1.49214e-13
8.52651e-14
6.39488e-14
3.55271e-14
7.10543e-15
2.13163e-14
1.42109e-14
7.10543e-15
7.81597e-14
2.13163e-14
1.42109e-14
3.55271e-14
0
3.55271e-14
4.9738e-14
9.23706e-14
-1.42109e-14
1.42109e-14
4.9738e-14
7.10543e-14
7.10543e-14
6.39488e-14
9.9476e-14
-1.42109e-14
-2.84217e-14
-2.84217e-14
-7.10543e-15
2.13163e-14
2.84217e-14
6.39488e-14
2.13163e-14
7.81597e-14
1.27898e-13
8.52651e-14
6.39488e-14
6.39488e-14
4.9738e-14
2.13163e-14
5.68434e-14
1.42109e-14
-2.84217e-14
7.10543e-15
-3.55271e-14
-3.55271e-14
4.9738e-14
7.10543e-14
1.42109e-14
7.10543e-15
-6.39488e-14
-6.39488e-14
-8.52651e-14
2.84217e-14
7.81597e-14
-2.13163e-14
-7.10543e-15
9.23706e-14
4.26326e-14
1.13687e-13
1.13687e-13
2.13163e-14
2.84217e-14
9.9476e-14
7.81597e-14
9.23706e-14
6.39488e-14
-7.10543e-15
9.9476e-14
7.81597e-14
1.42109e-13
8.52651e-14
1.42109e-14
-5.68434e-14
-2.13163e-14
-4.9738e-14
-7.10543e-14
-4.9738e-14
-4.26326e-14
-1.20792e-13
-1.77636e-13
-1.63425e-13
-1.98952e-13
-2.4869e-13
-2.27374e-13
-2.77112e-13
-3.19744e-13
-2.4869e-13
-2.55795e-13
-2.84217e-13
-3.69482e-13
-3.55271e-13
-4.05009e-13
-3.76588e-13
-4.33431e-13
-4.26326e-13
-4.40536e-13
-3.90799e-13
-4.47642e-13
-4.83169e-13
-4.68958e-13
-3.83693e-13
-3.41061e-13
-2.41585e-13
-2.55795e-13
-1.20792e-13
-7.10543e-14
-1.27898e-13
-1.42109e-13
-1.27898e-13
-1.77636e-13
-1.13687e-13
-1.91847e-13
-1.35003e-13
-1.42109e-13
-8.52651e-14
-6.39488e-14
7.10543e-15
-7.10543e-14
-7.81597e-14
-3.55271e-14
-7.10543e-15
1.42109e-14
6.39488e-14
3.55271e-14
-7.10543e-15
-2.13163e-14
1.42109e-14
7.10543e-14
4.26326e-14
-2.13163e-14
-4.9738e-14
2.13163e-14
-1.42109e-14
7.10543e-14
6.39488e-14
1.42109e-14
0
-5.68434e-14
-6.39488e-14
1.42109e-14
-7.10543e-14
-1.13687e-13
-1.27898e-13
0
4.9738e-14
7.10543e-15
3.55271e-14
6.39488e-14
0
-2.13163e-14
-4.9738e-14
-9.9476e-14
-4.26326e-14
-7.10543e-15
1.42109e-14
2.13163e-14
0
-5.68434e-14
-7.10543e-14
-1.13687e-13
-5.68434e-14
-2.13163e-14
-2.13163e-14
-2.84217e-14
3.55271e-14
7.10543e-14
9.23706e-14
5.68434e-14
1.06581e-13
0
-2.13163e-14
-9.23706e-14
-4.26326e-14
-1.42109e-14
2.13163e-14
4.26326e-14
7.10543e-15
-3.55271e-14
-4.9738e-14
-1.06581e-13
-7.10543e-14
-2.13163e-14
-7.81597e-14
-3.55271e-14
-7.10543e-15
5.68434e-14
8.52651e-14
8.52651e-14
5.68434e-14
1.35003e-13
1.20792e-13
8.52651e-14
2.84217e-14
2.13163e-14
4.9738e-14
9.9476e-14
1.06581e-13
2.13163e-14
6.39488e-14
4.9738e-14
-7.10543e-15
-4.9738e-14
-5.68434e-14
7.10543e-15
-4.9738e-14
7.10543e-15
7.81597e-14
4.9738e-14
4.9738e-14
4.26326e-14
7.10543e-15
-4.9738e-14
-4.26326e-14
-8.52651e-14
-2.13163e-14
-1.42109e-14
2.84217e-14
4.26326e-14
7.81597e-14
9.23706e-14
3.55271e-14
7.10543e-15
2.84217e-14
0
-4.26326e-14
1.42109e-14
1.42109e-14
7.81597e-14
7.81597e-14
4.9738e-14
6.39488e-14
4.26326e-14
-2.84217e-14
-5.68434e-14
-1.06581e-13
-1.35003e-13
-1.27898e-13
-5.68434e-14
-1.42109e-14
-4.9738e-14
-2.13163e-14
1.42109e-14
2.13163e-14
7.10543e-15
1.42109e-14
4.26326e-14
1.20792e-13
1.35003e-13
1.06581e-13
9.23706e-14
8.52651e-14
2.13163e-14
-1.42109e-14
-7.81597e-14
-6.39488e-14
-1.06581e-13
-9.9476e-14
-2.13163e-14
-2.13163e-14
-2.84217e-14
-5.68434e-14
0
5.68434e-14
-8.52651e-14
-6.39488e-14
-7.10543e-14
-2.13163e-14
-8.52651e-14
-2.84217e-14
2.84217e-14
-3.55271e-14
-7.10543e-15
-1.42109e-14
1.42109e-14
1.42109e-14
9.9476e-14
4.9738e-14
1.27898e-13
1.27898e-13
7.81597e-14
6.39488e-14
7.10543e-14
-3.55271e-14
-4.9738e-14
-3.55271e-14
-4.9738e-14
-2.13163e-14
0
-1.42109e-14
4.26326e-14
2.84217e-14
5.68434e-14
6.39488e-14
0
-3.55271e-14
7.10543e-15
-2.84217e-14
-9.23706e-14
-7.10543e-14
-1.06581e-13
-1.06581e-13
-7.81597e-14
-4.9738e-14
2.13163e-14
-7.10543e-15
3.55271e-14
2.84217e-14
3.55271e-14
5.68434e-14
6.39488e-14
2.84217e-14
7.10543e-14
-1.42109e-14
-7.81597e-14
-1.42109e-14
-2.13163e-14
-7.10543e-15
4.26326e-14
1.42109e-14
1.42109e-14
7.10543e-15
-7.81597e-14
-4.9738e-14
-5.68434e-14
-2.13163e-14
6.39488e-14
2.84217e-14
1.42109e-14
3.55271e-14
2.13163e-14
3.55271e-14
-3.55271e-14
-2.13163e-14
1.42109e-14
9.23706e-14
1.13687e-13
1.13687e-13
7.81597e-14
2.84217e-14
-4.9738e-14
-4.26326e-14
-8.52651e-14
-5.68434e-14
-5.68434e-14
-6.39488e-14
-1.42109e-14
-3.55271e-14
7.10543e-15
2.13163e-14
7.10543e-14
5.68434e-14
9.9476e-14
8.52651e-14
6.39488e-14
2.84217e-14
2.13163e-14
-9.9476e-14
-9.23706e-14
-5.68434e-14
-2.84217e-14
2.13163e-14
1.06581e-13
1.20792e-13
2.84217e-14
5.68434e-14
0
-2.13163e-14
-6.39488e-14
-2.13163e-14
-2.13163e-14
-3.55271e-14
-7.81597e-14
-9.23706e-14
-2.13163e-14
-4.26326e-14
-5.68434e-14
6.39488e-14
2.84217e-14
0
-4.9738e-14
-9.9476e-14
-6.39488e-14
-4.26326e-14
2.13163e-14
4.9738e-14
6.39488e-14
7.81597e-14
4.26326e-14
-5.68434e-14
-7.10543e-14
-1.27898e-13
-1.63425e-13
-7.81597e-14
)
;

boundaryField
{
    sides
    {
        type            calculated;
        value           nonuniform List<scalar> 2(-3.01804e-14 4.03134e-13);
    }
    empty
    {
        type            empty;
        value           nonuniform List<scalar> 0();
    }
}


// ************************************************************************* //
