/*--------------------------------*- C++ -*----------------------------------*\
  =========                 |
  \\      /  F ield         | OpenFOAM: The Open Source CFD Toolbox
   \\    /   O peration     | Website:  https://openfoam.org
    \\  /    A nd           | Version:  9
     \\/     M anipulation  |
\*---------------------------------------------------------------------------*/
FoamFile
{
    format      ascii;
    class       volVectorField;
    location    "0.001";
    object      U;
}
// * * * * * * * * * * * * * * * * * * * * * * * * * * * * * * * * * * * * * //

dimensions      [0 1 -1 0 0 0 0];

internalField   nonuniform List<vector> 
1000
(
(-7.29365e-14 0 0)
(2.46125e-28 0 0)
(-1.45873e-14 0 0)
(-1.45873e-13 0 0)
(-1.45873e-13 0 0)
(-2.47984e-13 0 0)
(-8.75238e-14 0 0)
(-1.6046e-13 0 0)
(-1.6046e-13 0 0)
(-8.75238e-14 0 0)
(-8.75238e-14 0 0)
(-2.33397e-13 0 0)
(-2.47984e-13 0 0)
(-4.37619e-14 0 0)
(-5.83492e-14 0 0)
(3.20921e-13 0 0)
(2.91746e-14 0 0)
(4.08444e-13 0 0)
(1.89635e-13 0 0)
(3.35508e-13 0 0)
(2.91746e-14 0 0)
(5.83492e-14 0 0)
(3.8812e-28 0 0)
(1.16698e-13 0 0)
(1.89635e-13 0 0)
(8.75238e-14 0 0)
(1.45873e-14 0 0)
(-1.45873e-14 0 0)
(5.83492e-14 0 0)
(-2.91746e-14 0 0)
(-7.29365e-14 0 0)
(-5.83492e-14 0 0)
(-1.45873e-14 0 0)
(-1.31286e-13 0 0)
(-2.91746e-14 0 0)
(-2.04222e-13 0 0)
(-5.83492e-14 0 0)
(-7.29365e-14 0 0)
(1.16698e-13 0 0)
(1.43881e-27 0 0)
(1.6046e-13 0 0)
(-4.37619e-14 0 0)
(8.75238e-14 0 0)
(1.89635e-13 0 0)
(2.1881e-13 0 0)
(-5.83492e-14 0 0)
(-1.45873e-13 0 0)
(-1.31286e-13 0 0)
(-1.16698e-13 0 0)
(-2.91746e-14 0 0)
(-1.45873e-14 0 0)
(4.37619e-14 0 0)
(1.75048e-13 0 0)
(5.83492e-14 0 0)
(-1.02111e-13 0 0)
(-1.02111e-13 0 0)
(-1.16698e-13 0 0)
(-1.16698e-13 0 0)
(-1.16698e-13 0 0)
(1.16698e-13 0 0)
(2.33397e-13 0 0)
(1.02111e-13 0 0)
(-1.45873e-13 0 0)
(1.75048e-13 0 0)
(1.02111e-13 0 0)
(8.75238e-14 0 0)
(-4.37619e-14 0 0)
(1.31286e-13 0 0)
(1.31286e-13 0 0)
(2.04222e-13 0 0)
(-5.83492e-14 0 0)
(1.75048e-13 0 0)
(-1.02111e-13 0 0)
(2.04222e-13 0 0)
(7.29365e-14 0 0)
(2.91746e-14 0 0)
(-2.91746e-14 0 0)
(-1.16698e-13 0 0)
(1.45873e-14 0 0)
(1.45873e-13 0 0)
(-1.02111e-13 0 0)
(-1.6046e-13 0 0)
(-8.75238e-14 0 0)
(-4.37619e-14 0 0)
(-7.29365e-14 0 0)
(4.37619e-14 0 0)
(-8.75238e-14 0 0)
(-3.06333e-13 0 0)
(-1.6046e-13 0 0)
(-2.1881e-13 0 0)
(1.45873e-14 0 0)
(-5.83492e-14 0 0)
(7.29365e-14 0 0)
(-4.37619e-14 0 0)
(1.16698e-13 0 0)
(1.45873e-13 0 0)
(-4.37619e-14 0 0)
(2.33397e-13 0 0)
(5.83492e-14 0 0)
(-4.37619e-14 0 0)
(-1.75048e-13 0 0)
(-1.45873e-13 0 0)
(-3.35508e-13 0 0)
(-2.04222e-13 0 0)
(-3.20921e-13 0 0)
(-3.06333e-13 0 0)
(-2.47984e-13 0 0)
(-7.29365e-14 0 0)
(-7.29365e-14 0 0)
(-1.02111e-13 0 0)
(-2.33397e-13 0 0)
(-2.91746e-14 0 0)
(-1.45873e-14 0 0)
(8.75238e-14 0 0)
(3.7927e-13 0 0)
(1.89635e-13 0 0)
(4.08444e-13 0 0)
(3.20921e-13 0 0)
(1.6046e-13 0 0)
(1.6046e-13 0 0)
(-1.45873e-14 0 0)
(2.91746e-14 0 0)
(1.16698e-13 0 0)
(-1.6046e-13 0 0)
(-1.45873e-14 0 0)
(-1.45873e-13 0 0)
(-5.83492e-14 0 0)
(-4.37619e-14 0 0)
(-1.02111e-13 0 0)
(-2.91746e-14 0 0)
(-1.31286e-13 0 0)
(-7.29365e-14 0 0)
(-2.62571e-13 0 0)
(-1.02111e-13 0 0)
(-2.77159e-13 0 0)
(-2.33397e-13 0 0)
(-4.37619e-14 0 0)
(2.91746e-14 0 0)
(1.89635e-13 0 0)
(4.37619e-14 0 0)
(1.31286e-13 0 0)
(1.45873e-13 0 0)
(5.83492e-14 0 0)
(-4.37619e-14 0 0)
(-5.83492e-14 0 0)
(-1.75048e-13 0 0)
(-1.45873e-14 0 0)
(-1.45873e-14 0 0)
(-1.45873e-13 0 0)
(7.29365e-14 0 0)
(-2.1881e-13 0 0)
(4.37619e-14 0 0)
(-8.75238e-14 0 0)
(4.37619e-14 0 0)
(-1.02111e-13 0 0)
(-2.04222e-13 0 0)
(-4.37619e-14 0 0)
(-4.37619e-14 0 0)
(-5.83492e-14 0 0)
(1.31286e-13 0 0)
(1.45873e-14 0 0)
(1.16698e-13 0 0)
(-1.45873e-14 0 0)
(1.89635e-13 0 0)
(2.1881e-13 0 0)
(2.1881e-13 0 0)
(5.83492e-14 0 0)
(1.31286e-13 0 0)
(-1.31286e-13 0 0)
(1.45873e-14 0 0)
(1.31286e-13 0 0)
(4.37619e-14 0 0)
(1.31286e-13 0 0)
(7.29365e-14 0 0)
(2.04222e-13 0 0)
(-8.75238e-14 0 0)
(2.91746e-14 0 0)
(-2.62571e-13 0 0)
(7.29365e-14 0 0)
(1.45873e-14 0 0)
(1.45873e-14 0 0)
(-1.02111e-13 0 0)
(5.83492e-14 0 0)
(-4.37619e-14 0 0)
(-5.83492e-14 0 0)
(1.02111e-13 0 0)
(1.45873e-14 0 0)
(2.1881e-13 0 0)
(7.29365e-14 0 0)
(-4.37619e-14 0 0)
(-2.33397e-13 0 0)
(-8.75238e-14 0 0)
(-3.20921e-13 0 0)
(-8.75238e-14 0 0)
(-7.29365e-14 0 0)
(-1.16698e-13 0 0)
(-2.33397e-13 0 0)
(-1.6046e-13 0 0)
(-3.20921e-13 0 0)
(-5.83492e-14 0 0)
(-1.45873e-13 0 0)
(-5.83492e-14 0 0)
(-2.1881e-13 0 0)
(1.75048e-13 0 0)
(-1.45873e-14 0 0)
(-2.91746e-14 0 0)
(-7.29365e-14 0 0)
(7.29365e-14 0 0)
(-1.02111e-13 0 0)
(-7.29365e-14 0 0)
(-5.42736e-28 0 0)
(-1.75048e-13 0 0)
(1.75048e-13 0 0)
(2.91746e-14 0 0)
(1.45873e-14 0 0)
(8.75238e-14 0 0)
(3.7927e-13 0 0)
(3.93857e-13 0 0)
(1.6046e-13 0 0)
(1.6046e-13 0 0)
(7.29365e-14 0 0)
(7.29365e-14 0 0)
(1.31286e-13 0 0)
(1.16698e-13 0 0)
(8.75238e-14 0 0)
(5.83492e-14 0 0)
(5.83492e-14 0 0)
(-1.31286e-13 0 0)
(-2.91746e-14 0 0)
(-1.75048e-13 0 0)
(-5.83492e-14 0 0)
(-8.75238e-14 0 0)
(-5.83492e-14 0 0)
(1.45873e-14 0 0)
(4.37619e-14 0 0)
(8.75238e-14 0 0)
(1.31286e-13 0 0)
(1.31286e-13 0 0)
(2.91746e-13 0 0)
(1.6046e-13 0 0)
(6.31089e-29 0 0)
(7.29365e-14 0 0)
(1.45873e-14 0 0)
(2.1881e-13 0 0)
(5.83492e-14 0 0)
(1.75048e-13 0 0)
(-1.57772e-28 0 0)
(-1.45873e-14 0 0)
(-4.37619e-14 0 0)
(-2.47984e-13 0 0)
(-2.77159e-13 0 0)
(-2.91746e-13 0 0)
(-3.20921e-13 0 0)
(1.45873e-14 0 0)
(-2.1881e-13 0 0)
(-1.45873e-14 0 0)
(-1.02111e-13 0 0)
(-1.45873e-13 0 0)
(-8.75238e-14 0 0)
(-4.37619e-14 0 0)
(-1.45873e-14 0 0)
(5.83492e-14 0 0)
(5.83492e-14 0 0)
(1.16698e-13 0 0)
(1.89635e-13 0 0)
(8.75238e-14 0 0)
(1.02111e-13 0 0)
(7.29365e-14 0 0)
(1.16698e-13 0 0)
(2.1881e-13 0 0)
(4.95405e-28 0 0)
(5.83492e-14 0 0)
(1.75048e-13 0 0)
(1.02111e-13 0 0)
(8.75238e-14 0 0)
(4.37619e-14 0 0)
(2.47984e-13 0 0)
(1.45873e-14 0 0)
(1.02111e-13 0 0)
(4.37619e-14 0 0)
(2.04222e-13 0 0)
(1.45873e-14 0 0)
(1.89635e-13 0 0)
(7.29365e-14 0 0)
(5.83492e-14 0 0)
(4.37619e-14 0 0)
(1.16698e-13 0 0)
(1.6046e-13 0 0)
(1.6046e-13 0 0)
(3.06333e-13 0 0)
(2.77159e-13 0 0)
(1.31286e-13 0 0)
(2.62571e-13 0 0)
(1.16698e-13 0 0)
(1.16698e-13 0 0)
(4.37619e-14 0 0)
(1.6046e-13 0 0)
(1.6046e-13 0 0)
(2.62571e-13 0 0)
(1.31286e-13 0 0)
(3.93857e-13 0 0)
(3.64683e-13 0 0)
(4.95968e-13 0 0)
(5.3973e-13 0 0)
(7.0019e-13 0 0)
(8.02302e-13 0 0)
(9.77349e-13 0 0)
(6.71016e-13 0 0)
(1.05029e-12 0 0)
(7.87714e-13 0 0)
(7.5854e-13 0 0)
(9.62762e-13 0 0)
(8.31476e-13 0 0)
(1.41497e-12 0 0)
(9.77349e-13 0 0)
(1.23992e-12 0 0)
(8.75238e-13 0 0)
(1.06487e-12 0 0)
(8.16889e-13 0 0)
(6.85603e-13 0 0)
(5.98079e-13 0 0)
(3.64683e-13 0 0)
(2.91746e-13 0 0)
(1.75048e-13 0 0)
(-2.91746e-14 0 0)
(8.75238e-14 0 0)
(-1.31286e-13 0 0)
(-7.29365e-14 0 0)
(2.91746e-14 0 0)
(3.59721e-28 0 0)
(1.31286e-13 0 0)
(2.04222e-13 0 0)
(1.31286e-13 0 0)
(5.83492e-14 0 0)
(8.75238e-14 0 0)
(1.02111e-13 0 0)
(8.75238e-14 0 0)
(5.83492e-14 0 0)
(2.1881e-13 0 0)
(-7.29365e-14 0 0)
(1.75048e-13 0 0)
(-8.75238e-14 0 0)
(1.02111e-13 0 0)
(-7.29365e-14 0 0)
(5.83492e-14 0 0)
(1.6046e-13 0 0)
(1.16698e-13 0 0)
(5.83492e-14 0 0)
(4.37619e-14 0 0)
(-1.6046e-13 0 0)
(7.29365e-14 0 0)
(-1.02111e-13 0 0)
(-1.31286e-13 0 0)
(-8.75238e-14 0 0)
(-2.62571e-13 0 0)
(-4.37619e-14 0 0)
(-8.75238e-14 0 0)
(4.37619e-14 0 0)
(1.45873e-13 0 0)
(2.91746e-14 0 0)
(-1.31286e-13 0 0)
(-5.83492e-14 0 0)
(-1.89635e-13 0 0)
(-8.75238e-14 0 0)
(-5.83492e-14 0 0)
(-1.45873e-14 0 0)
(2.04222e-13 0 0)
(1.02111e-13 0 0)
(7.29365e-14 0 0)
(1.31286e-13 0 0)
(2.91746e-14 0 0)
(4.37619e-14 0 0)
(-1.75048e-13 0 0)
(2.91746e-14 0 0)
(-8.75238e-14 0 0)
(-1.6046e-13 0 0)
(-1.16698e-13 0 0)
(-1.31286e-13 0 0)
(-1.75048e-13 0 0)
(-2.62571e-13 0 0)
(-1.75048e-13 0 0)
(-1.75048e-13 0 0)
(-2.47984e-13 0 0)
(-3.06333e-13 0 0)
(-1.89635e-13 0 0)
(-4.37619e-14 0 0)
(-1.6046e-13 0 0)
(-2.1881e-13 0 0)
(-8.75238e-14 0 0)
(-2.1881e-13 0 0)
(-1.75048e-13 0 0)
(-1.89635e-13 0 0)
(-1.89635e-13 0 0)
(-1.45873e-13 0 0)
(-1.02111e-13 0 0)
(-2.1881e-13 0 0)
(-2.1881e-13 0 0)
(-1.6046e-13 0 0)
(5.83492e-14 0 0)
(-1.02111e-13 0 0)
(-1.45873e-14 0 0)
(2.91746e-14 0 0)
(-4.37619e-14 0 0)
(-2.91746e-13 0 0)
(-5.10556e-13 0 0)
(-2.62571e-13 0 0)
(-4.66794e-13 0 0)
(-2.1881e-13 0 0)
(-3.35508e-13 0 0)
(-1.02111e-13 0 0)
(-1.75048e-13 0 0)
(-1.6046e-13 0 0)
(-3.64683e-13 0 0)
(-1.02111e-13 0 0)
(-2.1881e-13 0 0)
(-1.16698e-13 0 0)
(-2.47984e-13 0 0)
(5.83492e-14 0 0)
(2.1881e-13 0 0)
(1.2691e-12 0 0)
(2.757e-12 0 0)
(8.05219e-12 0 0)
(2.2056e-11 0 0)
(6.12812e-11 0 0)
(1.68367e-10 0 0)
(4.56422e-10 0 0)
(1.22204e-09 0 0)
(3.23374e-09 0 0)
(8.44826e-09 0 0)
(2.17892e-08 0 0)
(5.54538e-08 0 0)
(1.39222e-07 0 0)
(3.44673e-07 0 0)
(8.41134e-07 0 0)
(2.0226e-06 0 0)
(4.79024e-06 0 0)
(1.11691e-05 0 0)
(2.56265e-05 0 0)
(5.78302e-05 0 0)
(0.000128289 0 0)
(0.000279608 0 0)
(0.000598384 0 0)
(0.00125663 0 0)
(0.00258784 0 0)
(0.00522229 0 0)
(0.0103191 0 0)
(0.0199492 0 0)
(0.0376993 0 0)
(0.0695766 0 0)
(0.125284 0 0)
(0.219887 0 0)
(0.375785 0 0)
(0.624737 0 0)
(1.00946 0 0)
(1.58415 0 0)
(2.4132 0 0)
(3.56763 0 0)
(5.11923 0 0)
(7.13323 0 0)
(9.66084 0 0)
(12.7332 0 0)
(16.3585 0 0)
(20.5217 0 0)
(25.1887 0 0)
(30.3131 0 0)
(35.842 0 0)
(41.7222 0 0)
(47.9036 0 0)
(54.3409 0 0)
(60.9952 0 0)
(67.8332 0 0)
(74.8273 0 0)
(81.9544 0 0)
(89.1948 0 0)
(96.532 0 0)
(103.951 0 0)
(111.44 0 0)
(118.986 0 0)
(126.578 0 0)
(134.205 0 0)
(141.86 0 0)
(149.525 0 0)
(157.207 0 0)
(164.865 0 0)
(172.535 0 0)
(180.154 0 0)
(187.751 0 0)
(195.306 0 0)
(202.781 0 0)
(210.191 0 0)
(217.51 0 0)
(224.704 0 0)
(231.757 0 0)
(238.649 0 0)
(245.338 0 0)
(251.78 0 0)
(257.934 0 0)
(263.751 0 0)
(269.173 0 0)
(274.132 0 0)
(278.57 0 0)
(282.434 0 0)
(285.687 0 0)
(288.307 0 0)
(290.303 0 0)
(291.724 0 0)
(292.646 0 0)
(293.181 0 0)
(293.425 0 0)
(293.485 0 0)
(293.468 0 0)
(293.387 0 0)
(293.257 0 0)
(293.139 0 0)
(293.061 0 0)
(293.023 0 0)
(293.004 0 0)
(292.998 0 0)
(293.012 0 0)
(293.07 0 0)
(293.102 0 0)
(293.085 0 0)
(293.168 0 0)
(293.413 0 0)
(293.349 0 0)
(293.06 0 0)
(292.907 0 0)
(292.795 0 0)
(292.796 0 0)
(292.848 0 0)
(292.911 0 0)
(292.968 0 0)
(293.007 0 0)
(293.032 0 0)
(293.044 0 0)
(293.048 0 0)
(293.052 0 0)
(293.054 0 0)
(293.052 0 0)
(293.036 0 0)
(292.998 0 0)
(292.958 0 0)
(292.94 0 0)
(292.921 0 0)
(292.882 0 0)
(292.821 0 0)
(292.729 0 0)
(292.58 0 0)
(292.304 0 0)
(291.784 0 0)
(290.683 0 0)
(288.194 0 0)
(282.568 0 0)
(269.669 0 0)
(240.578 0 0)
(185.738 0 0)
(112.475 0 0)
(50.1543 0 0)
(17.1135 0 0)
(4.93658 0 0)
(1.29776 0 0)
(0.327905 0 0)
(0.0818322 0 0)
(0.0203555 0 0)
(0.00505906 0 0)
(0.00125696 0 0)
(0.000312232 0 0)
(7.75413e-05 0 0)
(1.92516e-05 0 0)
(4.77807e-06 0 0)
(1.1854e-06 0 0)
(2.93945e-07 0 0)
(7.28491e-08 0 0)
(1.80425e-08 0 0)
(4.46525e-09 0 0)
(1.10406e-09 0 0)
(2.72564e-10 0 0)
(6.71163e-11 0 0)
(1.64107e-11 0 0)
(3.92399e-12 0 0)
(8.02303e-13 0 0)
(1.45873e-14 0 0)
(-4.23032e-13 0 0)
(5.83493e-14 0 0)
(-2.77159e-13 0 0)
(1.45873e-13 0 0)
(-1.60461e-13 0 0)
(5.83493e-14 0 0)
(-2.91746e-14 0 0)
(1.16699e-13 0 0)
(2.04222e-13 0 0)
(2.1881e-13 0 0)
(2.47984e-13 0 0)
(4.23032e-13 0 0)
(3.06334e-13 0 0)
(4.95969e-13 0 0)
(4.3762e-13 0 0)
(3.50096e-13 0 0)
(3.20921e-13 0 0)
(3.35508e-13 0 0)
(4.3762e-13 0 0)
(4.66794e-13 0 0)
(2.47984e-13 0 0)
(3.64683e-13 0 0)
(1.89635e-13 0 0)
(3.35508e-13 0 0)
(1.89635e-13 0 0)
(3.64683e-13 0 0)
(1.60461e-13 0 0)
(1.89635e-13 0 0)
(1.16699e-13 0 0)
(1.45873e-14 0 0)
(4.3762e-14 0 0)
(4.3762e-14 0 0)
(-4.3762e-14 0 0)
(1.75048e-13 0 0)
(4.3762e-14 0 0)
(-1.17205e-28 0 0)
(8.75239e-14 0 0)
(-1.45873e-14 0 0)
(4.3762e-14 0 0)
(7.29366e-14 0 0)
(1.89635e-13 0 0)
(8.75239e-14 0 0)
(-1.31286e-13 0 0)
(1.31286e-13 0 0)
(1.02111e-13 0 0)
(8.75239e-14 0 0)
(1.75048e-13 0 0)
(1.02111e-13 0 0)
(1.89635e-13 0 0)
(-1.45873e-13 0 0)
(-2.91746e-14 0 0)
(-1.45873e-14 0 0)
(-2.91746e-14 0 0)
(8.75239e-14 0 0)
(8.75239e-14 0 0)
(-1.45873e-14 0 0)
(1.89635e-13 0 0)
(5.83493e-14 0 0)
(3.7927e-13 0 0)
(7.29366e-14 0 0)
(1.02111e-13 0 0)
(1.45873e-13 0 0)
(1.31286e-13 0 0)
(-5.83493e-14 0 0)
(1.60461e-13 0 0)
(4.73317e-28 0 0)
(-8.75239e-14 0 0)
(7.29366e-14 0 0)
(-1.89635e-13 0 0)
(1.16699e-13 0 0)
(1.31286e-13 0 0)
(5.83493e-14 0 0)
(7.29366e-14 0 0)
(-4.3762e-14 0 0)
(-1.75048e-13 0 0)
(-1.75048e-13 0 0)
(-1.31286e-13 0 0)
(2.1881e-13 0 0)
(5.83493e-14 0 0)
(-1.45873e-13 0 0)
(1.45873e-13 0 0)
(1.16699e-13 0 0)
(1.02111e-13 0 0)
(2.62572e-13 0 0)
(1.02111e-13 0 0)
(8.29635e-28 0 0)
(1.16699e-13 0 0)
(2.1881e-13 0 0)
(1.75048e-13 0 0)
(1.45873e-13 0 0)
(7.29366e-14 0 0)
(-1.45873e-14 0 0)
(2.47984e-13 0 0)
(1.60461e-13 0 0)
(3.35508e-13 0 0)
(2.91746e-14 0 0)
(-1.45873e-14 0 0)
(-1.45873e-13 0 0)
(1.45873e-14 0 0)
(-2.04222e-13 0 0)
(-7.29366e-14 0 0)
(-7.29366e-14 0 0)
(-1.75048e-13 0 0)
(-2.77159e-13 0 0)
(-3.50096e-13 0 0)
(-3.50096e-13 0 0)
(-4.08445e-13 0 0)
(-4.3762e-13 0 0)
(-4.95969e-13 0 0)
(-6.41842e-13 0 0)
(-4.66794e-13 0 0)
(-5.54318e-13 0 0)
(-5.25144e-13 0 0)
(-5.10556e-13 0 0)
(-8.31477e-13 0 0)
(-7.14779e-13 0 0)
(-7.29366e-13 0 0)
(-8.89827e-13 0 0)
(-7.29366e-13 0 0)
(-1.05029e-12 0 0)
(-7.14779e-13 0 0)
(-9.04414e-13 0 0)
(-9.19001e-13 0 0)
(-9.04414e-13 0 0)
(-8.46065e-13 0 0)
(-8.1689e-13 0 0)
(-3.93858e-13 0 0)
(-7.29366e-13 0 0)
(-2.04222e-13 0 0)
(-3.50096e-13 0 0)
(2.91746e-14 0 0)
(-4.23032e-13 0 0)
(-2.1881e-13 0 0)
(-2.77159e-13 0 0)
(-2.62572e-13 0 0)
(-4.3762e-13 0 0)
(-1.60461e-13 0 0)
(-3.93858e-13 0 0)
(-2.33397e-13 0 0)
(-4.3762e-14 0 0)
(-1.60461e-13 0 0)
(1.31286e-13 0 0)
(-3.64683e-13 0 0)
(8.75239e-14 0 0)
(-1.75048e-13 0 0)
(1.31286e-13 0 0)
(1.45873e-14 0 0)
(2.1881e-13 0 0)
(-5.83493e-14 0 0)
(2.91746e-14 0 0)
(-1.16699e-13 0 0)
(2.33397e-13 0 0)
(-1.45873e-14 0 0)
(1.75048e-13 0 0)
(-2.91746e-13 0 0)
(1.75048e-13 0 0)
(-1.31286e-13 0 0)
(1.16699e-13 0 0)
(5.83493e-14 0 0)
(1.89635e-13 0 0)
(-8.75239e-14 0 0)
(2.91746e-14 0 0)
(-3.06334e-13 0 0)
(8.75239e-14 0 0)
(-2.91746e-14 0 0)
(-2.91746e-13 0 0)
(-1.89635e-13 0 0)
(-1.89635e-13 0 0)
(1.89635e-13 0 0)
(-7.29366e-14 0 0)
(1.75048e-13 0 0)
(3.00035e-27 0 0)
(1.60461e-13 0 0)
(-1.60461e-13 0 0)
(4.3762e-14 0 0)
(-2.47984e-13 0 0)
(-1.16699e-13 0 0)
(-4.3762e-14 0 0)
(2.91746e-14 0 0)
(-1.45873e-14 0 0)
(1.31286e-13 0 0)
(-1.02111e-13 0 0)
(-2.91746e-14 0 0)
(-3.64683e-13 0 0)
(-4.3762e-14 0 0)
(-2.04222e-13 0 0)
(1.02111e-13 0 0)
(-2.04222e-13 0 0)
(1.16699e-13 0 0)
(8.75239e-14 0 0)
(1.02111e-13 0 0)
(1.60461e-13 0 0)
(2.04222e-13 0 0)
(1.45873e-13 0 0)
(-7.29366e-14 0 0)
(-4.3762e-14 0 0)
(-2.1881e-13 0 0)
(-3.40788e-28 0 0)
(-2.91746e-14 0 0)
(7.29366e-14 0 0)
(1.02111e-13 0 0)
(-4.3762e-14 0 0)
(-7.29366e-14 0 0)
(-1.02111e-13 0 0)
(-2.62572e-13 0 0)
(1.45873e-14 0 0)
(-8.75239e-14 0 0)
(-1.31286e-13 0 0)
(-1.45873e-14 0 0)
(4.3762e-14 0 0)
(1.02111e-13 0 0)
(2.47984e-13 0 0)
(4.3762e-14 0 0)
(2.62572e-13 0 0)
(1.75048e-13 0 0)
(3.20921e-13 0 0)
(4.3762e-14 0 0)
(4.3762e-14 0 0)
(7.29366e-14 0 0)
(8.75239e-14 0 0)
(2.77159e-13 0 0)
(2.91746e-14 0 0)
(8.75239e-14 0 0)
(1.31286e-13 0 0)
(1.16699e-13 0 0)
(-1.45873e-13 0 0)
(-8.75239e-14 0 0)
(-8.75239e-14 0 0)
(1.31286e-13 0 0)
(-2.47984e-13 0 0)
(2.91746e-13 0 0)
(-1.45873e-14 0 0)
(1.75048e-13 0 0)
(2.91746e-14 0 0)
(1.45873e-13 0 0)
(-1.60461e-13 0 0)
(2.91746e-14 0 0)
(-2.1881e-13 0 0)
(-7.29366e-14 0 0)
(2.91746e-14 0 0)
(-1.16699e-13 0 0)
(2.33397e-13 0 0)
(-8.75239e-14 0 0)
(4.08445e-13 0 0)
(-1.45873e-13 0 0)
(2.47984e-13 0 0)
(-1.89635e-13 0 0)
(2.77159e-13 0 0)
(-2.77159e-13 0 0)
(1.75048e-13 0 0)
(-1.89635e-13 0 0)
(3.20921e-13 0 0)
(-1.16699e-13 0 0)
(4.23032e-13 0 0)
(-1.75048e-13 0 0)
(3.50096e-13 0 0)
(-1.45873e-13 0 0)
(4.3762e-14 0 0)
(-2.1881e-13 0 0)
(-2.33397e-13 0 0)
(-3.20921e-13 0 0)
(-1.89635e-13 0 0)
(1.85225e-27 0 0)
(-7.29366e-14 0 0)
(-4.3762e-14 0 0)
(-4.3762e-14 0 0)
(1.31286e-13 0 0)
(-5.83493e-14 0 0)
(7.29366e-14 0 0)
(-2.91746e-14 0 0)
(3.20921e-13 0 0)
(1.02111e-13 0 0)
(3.50096e-13 0 0)
(1.02111e-13 0 0)
(3.20921e-13 0 0)
(-1.45873e-13 0 0)
(2.77159e-13 0 0)
(-4.08445e-13 0 0)
(1.89635e-13 0 0)
(-4.52207e-13 0 0)
(5.83493e-14 0 0)
(-3.20921e-13 0 0)
(1.60461e-13 0 0)
(-1.60461e-13 0 0)
(-5.83493e-14 0 0)
(-1.45873e-13 0 0)
(2.04222e-13 0 0)
(-1.16699e-13 0 0)
(-5.83493e-14 0 0)
(-1.16699e-13 0 0)
(-1.75048e-13 0 0)
(-8.43497e-28 0 0)
(-2.62572e-13 0 0)
(1.60461e-13 0 0)
(-1.16699e-13 0 0)
(4.3762e-14 0 0)
(-1.16699e-13 0 0)
(8.75239e-14 0 0)
(-5.83493e-14 0 0)
(2.04222e-13 0 0)
(2.91746e-14 0 0)
(3.06334e-13 0 0)
(1.45873e-13 0 0)
(3.35508e-13 0 0)
(5.83493e-14 0 0)
(2.33397e-13 0 0)
(-5.83493e-14 0 0)
(-1.45873e-14 0 0)
(-1.89635e-13 0 0)
(-2.91746e-14 0 0)
(-1.60461e-13 0 0)
(1.02111e-13 0 0)
(-1.45873e-13 0 0)
(1.31286e-13 0 0)
(-1.45873e-14 0 0)
(2.04222e-13 0 0)
(1.02111e-13 0 0)
(5.83493e-14 0 0)
(-7.29366e-14 0 0)
(-1.44204e-27 0 0)
(5.49047e-28 0 0)
(-1.02111e-13 0 0)
(-1.31286e-13 0 0)
(-2.04222e-13 0 0)
(-2.33397e-13 0 0)
(-1.45873e-13 0 0)
(-1.31286e-13 0 0)
(1.45873e-14 0 0)
(2.91746e-14 0 0)
(-2.91746e-14 0 0)
(1.16699e-13 0 0)
(2.91746e-14 0 0)
(1.75048e-13 0 0)
(2.07628e-27 0 0)
(2.04222e-13 0 0)
(-1.45873e-14 0 0)
(2.04222e-13 0 0)
(-2.47984e-13 0 0)
(-5.83493e-14 0 0)
(2.91746e-14 0 0)
(-1.45873e-13 0 0)
(1.45873e-13 0 0)
(1.45873e-14 0 0)
(5.83493e-14 0 0)
(-2.91746e-14 0 0)
(4.3762e-14 0 0)
(-2.04222e-13 0 0)
(-8.75239e-14 0 0)
(-1.45873e-13 0 0)
(1.16699e-13 0 0)
(4.3762e-14 0 0)
(2.91746e-14 0 0)
(5.83493e-14 0 0)
(2.91746e-14 0 0)
(4.3762e-14 0 0)
(4.3762e-14 0 0)
(-1.75048e-13 0 0)
(4.3762e-14 0 0)
(2.91746e-14 0 0)
(2.77159e-13 0 0)
(1.45873e-13 0 0)
(2.77159e-13 0 0)
(8.75239e-14 0 0)
(1.45873e-14 0 0)
(-1.45873e-13 0 0)
(-1.16699e-13 0 0)
(-1.45873e-13 0 0)
(-1.45873e-13 0 0)
(-1.02111e-13 0 0)
(-5.83493e-14 0 0)
(2.91746e-14 0 0)
(-8.75239e-14 0 0)
(1.45873e-14 0 0)
(1.45873e-13 0 0)
(1.16699e-13 0 0)
(1.60461e-13 0 0)
(1.75048e-13 0 0)
(2.1881e-13 0 0)
(8.75239e-14 0 0)
(-1.45873e-14 0 0)
(4.3762e-14 0 0)
(-3.06334e-13 0 0)
(-8.75239e-14 0 0)
(-1.75048e-13 0 0)
(1.45873e-14 0 0)
(1.02111e-13 0 0)
(2.33397e-13 0 0)
(1.31286e-13 0 0)
(2.91746e-14 0 0)
(1.02111e-13 0 0)
(-1.45873e-14 0 0)
(-1.75048e-13 0 0)
(-4.3762e-14 0 0)
(-4.3762e-14 0 0)
(-5.83493e-14 0 0)
(-8.75239e-14 0 0)
(-1.89635e-13 0 0)
(-1.16699e-13 0 0)
(4.3762e-14 0 0)
(-2.62572e-13 0 0)
(1.31286e-13 0 0)
(1.45873e-14 0 0)
(1.31286e-13 0 0)
(-1.45873e-13 0 0)
(-4.3762e-14 0 0)
(-2.47984e-13 0 0)
(-2.91746e-14 0 0)
(-1.31286e-13 0 0)
(1.45873e-13 0 0)
(1.16699e-13 0 0)
(1.45873e-13 0 0)
(1.16699e-13 0 0)
(1.73865e-27 0 0)
(-1.31286e-13 0 0)
(-1.75048e-13 0 0)
(-3.50096e-13 0 0)
(-2.1881e-13 0 0)
(-8.75239e-14 0 0)
)
;

boundaryField
{
    sides
    {
        type            zeroGradient;
    }
    empty
    {
        type            empty;
    }
}


// ************************************************************************* //
