/*--------------------------------*- C++ -*----------------------------------*\
  =========                 |
  \\      /  F ield         | OpenFOAM: The Open Source CFD Toolbox
   \\    /   O peration     | Website:  https://openfoam.org
    \\  /    A nd           | Version:  9
     \\/     M anipulation  |
\*---------------------------------------------------------------------------*/
FoamFile
{
    format      ascii;
    class       volVectorField;
    location    "0.003";
    object      U;
}
// * * * * * * * * * * * * * * * * * * * * * * * * * * * * * * * * * * * * * //

dimensions      [0 1 -1 0 0 0 0];

internalField   nonuniform List<vector> 
10000
(
(2.91746e-14 0 0)
(1.45873e-14 0 0)
(-7.29365e-14 0 0)
(-2.62571e-13 0 0)
(-4.83382e-25 0 0)
(-4.66794e-13 0 0)
(-4.66794e-13 0 0)
(-2.47984e-13 0 0)
(-6.27254e-13 0 0)
(-6.27254e-13 0 0)
(-4.23032e-13 0 0)
(-7.5854e-13 0 0)
(-7.43952e-13 0 0)
(-5.3973e-13 0 0)
(-8.89825e-13 0 0)
(-6.85603e-13 0 0)
(-9.19e-13 0 0)
(-9.77349e-13 0 0)
(-1.13781e-12 0 0)
(-8.16889e-13 0 0)
(-8.60651e-13 0 0)
(-7.0019e-13 0 0)
(-8.31476e-13 0 0)
(-8.31476e-13 0 0)
(-6.71016e-13 0 0)
(-7.87714e-13 0 0)
(-4.52206e-13 0 0)
(-6.71016e-13 0 0)
(-7.5854e-13 0 0)
(-8.02302e-13 0 0)
(-9.33587e-13 0 0)
(-1.07946e-12 0 0)
(-9.62762e-13 0 0)
(-9.19e-13 0 0)
(-8.02302e-13 0 0)
(-6.85603e-13 0 0)
(-3.93857e-13 0 0)
(-6.41841e-13 0 0)
(-4.66794e-13 0 0)
(-5.83492e-14 0 0)
(-4.66794e-13 0 0)
(-7.14778e-13 0 0)
(-3.06333e-13 0 0)
(-9.48175e-13 0 0)
(-1.1524e-12 0 0)
(-1.19616e-12 0 0)
(-1.57543e-12 0 0)
(-1.66295e-12 0 0)
(-1.79424e-12 0 0)
(-1.99846e-12 0 0)
(-2.33397e-12 0 0)
(-2.58195e-12 0 0)
(-2.90287e-12 0 0)
(-3.15086e-12 0 0)
(-3.01957e-12 0 0)
(-3.5593e-12 0 0)
(-3.676e-12 0 0)
(-3.9094e-12 0 0)
(-4.09903e-12 0 0)
(-4.41995e-12 0 0)
(-4.31784e-12 0 0)
(-4.68252e-12 0 0)
(-4.81381e-12 0 0)
(-4.95968e-12 0 0)
(-5.25143e-12 0 0)
(-5.36813e-12 0 0)
(-5.35354e-12 0 0)
(-5.41189e-12 0 0)
(-6.00997e-12 0 0)
(-5.84951e-12 0 0)
(-6.11208e-12 0 0)
(-6.68098e-12 0 0)
(-6.60805e-12 0 0)
(-6.34548e-12 0 0)
(-6.88521e-12 0 0)
(-6.53511e-12 0 0)
(-7.0019e-12 0 0)
(-7.04567e-12 0 0)
(-6.69557e-12 0 0)
(-6.94355e-12 0 0)
(-7.48329e-12 0 0)
(-6.57887e-12 0 0)
(-7.54163e-12 0 0)
(-6.6664e-12 0 0)
(-7.39576e-12 0 0)
(-6.69557e-12 0 0)
(-6.69557e-12 0 0)
(-6.433e-12 0 0)
(-6.60805e-12 0 0)
(-5.76198e-12 0 0)
(-6.21419e-12 0 0)
(-5.52859e-12 0 0)
(-6.00997e-12 0 0)
(-5.23684e-12 0 0)
(-5.83492e-12 0 0)
(-4.88675e-12 0 0)
(-5.01803e-12 0 0)
(-4.05527e-12 0 0)
(-4.44913e-12 0 0)
(-3.85105e-12 0 0)
(-3.98233e-12 0 0)
(-3.28214e-12 0 0)
(-3.45719e-12 0 0)
(-2.58195e-12 0 0)
(-2.90287e-12 0 0)
(-2.50902e-12 0 0)
(-2.47984e-12 0 0)
(-2.11516e-12 0 0)
(-2.61113e-12 0 0)
(-2.12975e-12 0 0)
(-2.72783e-12 0 0)
(-2.29021e-12 0 0)
(-2.62571e-12 0 0)
(-2.29021e-12 0 0)
(-2.72783e-12 0 0)
(-2.50902e-12 0 0)
(-2.66948e-12 0 0)
(-2.47984e-12 0 0)
(-2.66948e-12 0 0)
(-2.71324e-12 0 0)
(-2.65489e-12 0 0)
(-3.03416e-12 0 0)
(-2.62571e-12 0 0)
(-3.18003e-12 0 0)
(-3.13627e-12 0 0)
(-3.50095e-12 0 0)
(-3.39884e-12 0 0)
(-3.63224e-12 0 0)
(-3.676e-12 0 0)
(-4.06986e-12 0 0)
(-4.06986e-12 0 0)
(-4.55124e-12 0 0)
(-4.84298e-12 0 0)
(-5.30978e-12 0 0)
(-5.00344e-12 0 0)
(-5.92244e-12 0 0)
(-5.55776e-12 0 0)
(-6.21419e-12 0 0)
(-6.53511e-12 0 0)
(-6.30171e-12 0 0)
(-6.47676e-12 0 0)
(-7.49787e-12 0 0)
(-6.38924e-12 0 0)
(-7.57081e-12 0 0)
(-6.57887e-12 0 0)
(-7.68751e-12 0 0)
(-7.45411e-12 0 0)
(-7.352e-12 0 0)
(-7.5854e-12 0 0)
(-7.43952e-12 0 0)
(-6.68098e-12 0 0)
(-7.13319e-12 0 0)
(-7.03108e-12 0 0)
(-6.52052e-12 0 0)
(-6.60805e-12 0 0)
(-6.89979e-12 0 0)
(-5.80575e-12 0 0)
(-6.34548e-12 0 0)
(-6.12667e-12 0 0)
(-5.67446e-12 0 0)
(-5.54317e-12 0 0)
(-5.55776e-12 0 0)
(-4.79922e-12 0 0)
(-4.98886e-12 0 0)
(-4.90133e-12 0 0)
(-4.78463e-12 0 0)
(-4.12821e-12 0 0)
(-4.7117e-12 0 0)
(-4.01151e-12 0 0)
(-4.23032e-12 0 0)
(-3.71976e-12 0 0)
(-3.85105e-12 0 0)
(-3.12168e-12 0 0)
(-3.41343e-12 0 0)
(-2.82994e-12 0 0)
(-3.47178e-12 0 0)
(-2.69865e-12 0 0)
(-3.23838e-12 0 0)
(-2.46525e-12 0 0)
(-2.97581e-12 0 0)
(-2.02763e-12 0 0)
(-2.68406e-12 0 0)
(-2.50902e-12 0 0)
(-2.42149e-12 0 0)
(-2.10057e-12 0 0)
(-2.37773e-12 0 0)
(-2.1881e-12 0 0)
(-1.98387e-12 0 0)
(-2.01305e-12 0 0)
(-1.6046e-12 0 0)
(-1.7213e-12 0 0)
(-1.92552e-12 0 0)
(-1.82341e-12 0 0)
(-1.42956e-12 0 0)
(-1.98387e-12 0 0)
(-1.67754e-12 0 0)
(-1.80883e-12 0 0)
(-1.91094e-12 0 0)
(-1.69213e-12 0 0)
(-1.76506e-12 0 0)
(-1.61919e-12 0 0)
(-1.73589e-12 0 0)
(-1.57543e-12 0 0)
(-2.04222e-12 0 0)
(-2.08598e-12 0 0)
(-2.27562e-12 0 0)
(-2.39232e-12 0 0)
(-2.90287e-12 0 0)
(-2.81535e-12 0 0)
(-3.61765e-12 0 0)
(-3.15086e-12 0 0)
(-4.08444e-12 0 0)
(-3.57389e-12 0 0)
(-4.72629e-12 0 0)
(-4.01151e-12 0 0)
(-4.95968e-12 0 0)
(-4.41995e-12 0 0)
(-5.32436e-12 0 0)
(-4.55124e-12 0 0)
(-5.58694e-12 0 0)
(-4.58041e-12 0 0)
(-5.35354e-12 0 0)
(-4.68252e-12 0 0)
(-5.3973e-12 0 0)
(-4.2449e-12 0 0)
(-5.17849e-12 0 0)
(-4.2449e-12 0 0)
(-4.85757e-12 0 0)
(-4.20114e-12 0 0)
(-4.75546e-12 0 0)
(-4.25949e-12 0 0)
(-4.46371e-12 0 0)
(-3.95316e-12 0 0)
(-4.15738e-12 0 0)
(-3.77811e-12 0 0)
(-4.11362e-12 0 0)
(-3.80729e-12 0 0)
(-4.05527e-12 0 0)
(-3.74894e-12 0 0)
(-3.58848e-12 0 0)
(-3.61765e-12 0 0)
(-3.31132e-12 0 0)
(-3.25297e-12 0 0)
(-3.38425e-12 0 0)
(-2.80076e-12 0 0)
(-2.90287e-12 0 0)
(-2.68406e-12 0 0)
(-2.68406e-12 0 0)
(-2.30479e-12 0 0)
(-2.81535e-12 0 0)
(-2.58195e-12 0 0)
(-2.9904e-12 0 0)
(-3.10709e-12 0 0)
(-2.97581e-12 0 0)
(-2.78617e-12 0 0)
(-2.96122e-12 0 0)
(-2.84452e-12 0 0)
(-3.19462e-12 0 0)
(-3.01957e-12 0 0)
(-3.28214e-12 0 0)
(-3.15086e-12 0 0)
(-3.28214e-12 0 0)
(-3.48636e-12 0 0)
(-3.28214e-12 0 0)
(-3.41343e-12 0 0)
(-3.31132e-12 0 0)
(-3.15086e-12 0 0)
(-3.29673e-12 0 0)
(-3.12168e-12 0 0)
(-3.12168e-12 0 0)
(-3.26756e-12 0 0)
(-3.16544e-12 0 0)
(-3.09251e-12 0 0)
(-3.03416e-12 0 0)
(-3.25297e-12 0 0)
(-2.88829e-12 0 0)
(-3.10709e-12 0 0)
(-3.15086e-12 0 0)
(-3.23838e-12 0 0)
(-2.93205e-12 0 0)
(-3.20921e-12 0 0)
(-2.61113e-12 0 0)
(-2.69865e-12 0 0)
(-2.43608e-12 0 0)
(-2.39232e-12 0 0)
(-2.26103e-12 0 0)
(-2.05681e-12 0 0)
(-2.01305e-12 0 0)
(-1.80883e-12 0 0)
(-1.96929e-12 0 0)
(-1.41497e-12 0 0)
(-1.98387e-12 0 0)
(-1.07946e-12 0 0)
(-2.05681e-12 0 0)
(-1.37121e-12 0 0)
(-1.7213e-12 0 0)
(-1.99846e-12 0 0)
(-2.31938e-12 0 0)
(-2.17351e-12 0 0)
(-2.65489e-12 0 0)
(-2.31938e-12 0 0)
(-2.94663e-12 0 0)
(-2.9904e-12 0 0)
(-3.53013e-12 0 0)
(-3.61765e-12 0 0)
(-3.7927e-12 0 0)
(-4.2449e-12 0 0)
(-4.02609e-12 0 0)
(-4.40536e-12 0 0)
(-4.53665e-12 0 0)
(-4.78463e-12 0 0)
(-4.63876e-12 0 0)
(-5.14932e-12 0 0)
(-4.8284e-12 0 0)
(-5.54317e-12 0 0)
(-5.2806e-12 0 0)
(-5.55776e-12 0 0)
(-5.17849e-12 0 0)
(-5.48482e-12 0 0)
(-4.88675e-12 0 0)
(-5.00344e-12 0 0)
(-4.88675e-12 0 0)
(-5.17849e-12 0 0)
(-4.68252e-12 0 0)
(-5.3973e-12 0 0)
(-4.81381e-12 0 0)
(-5.47024e-12 0 0)
(-4.95968e-12 0 0)
(-5.20767e-12 0 0)
(-4.66794e-12 0 0)
(-5.38271e-12 0 0)
(-4.72629e-12 0 0)
(-5.09097e-12 0 0)
(-4.84298e-12 0 0)
(-4.81381e-12 0 0)
(-4.55124e-12 0 0)
(-4.595e-12 0 0)
(-4.52206e-12 0 0)
(-3.99692e-12 0 0)
(-4.05527e-12 0 0)
(-3.95316e-12 0 0)
(-3.76352e-12 0 0)
(-3.95316e-12 0 0)
(-3.28214e-12 0 0)
(-3.70517e-12 0 0)
(-3.03416e-12 0 0)
(-3.28214e-12 0 0)
(-2.90287e-12 0 0)
(-2.90287e-12 0 0)
(-2.49443e-12 0 0)
(-2.46525e-12 0 0)
(-1.82341e-12 0 0)
(-1.91094e-12 0 0)
(-1.34203e-12 0 0)
(-9.62762e-13 0 0)
(-8.60651e-13 0 0)
(-5.83492e-14 0 0)
(-3.50095e-13 0 0)
(1.02111e-13 0 0)
(1.45873e-14 0 0)
(2.91746e-14 0 0)
(2.04222e-13 0 0)
(1.45873e-13 0 0)
(-1.89635e-13 0 0)
(-2.04222e-13 0 0)
(-4.66794e-13 0 0)
(-4.95968e-13 0 0)
(-3.20921e-13 0 0)
(-1.12322e-12 0 0)
(-2.77159e-13 0 0)
(-1.45873e-12 0 0)
(-7.14778e-13 0 0)
(-1.61919e-12 0 0)
(-1.44414e-12 0 0)
(-2.34856e-12 0 0)
(-2.36314e-12 0 0)
(-2.9904e-12 0 0)
(-3.00498e-12 0 0)
(-3.53013e-12 0 0)
(-3.7927e-12 0 0)
(-3.99692e-12 0 0)
(-4.23032e-12 0 0)
(-4.7117e-12 0 0)
(-4.46371e-12 0 0)
(-5.01803e-12 0 0)
(-4.97427e-12 0 0)
(-5.35354e-12 0 0)
(-5.54317e-12 0 0)
(-5.64529e-12 0 0)
(-5.61611e-12 0 0)
(-5.76198e-12 0 0)
(-5.79116e-12 0 0)
(-6.05373e-12 0 0)
(-6.12667e-12 0 0)
(-6.03914e-12 0 0)
(-6.24336e-12 0 0)
(-6.49135e-12 0 0)
(-6.18502e-12 0 0)
(-6.3163e-12 0 0)
(-5.86409e-12 0 0)
(-6.24336e-12 0 0)
(-5.99538e-12 0 0)
(-6.27254e-12 0 0)
(-6.12667e-12 0 0)
(-6.3163e-12 0 0)
(-6.53511e-12 0 0)
(-6.30171e-12 0 0)
(-6.69557e-12 0 0)
(-6.62263e-12 0 0)
(-6.6664e-12 0 0)
(-6.88521e-12 0 0)
(-7.01649e-12 0 0)
(-7.17695e-12 0 0)
(-7.07484e-12 0 0)
(-7.61457e-12 0 0)
(-7.55622e-12 0 0)
(-7.41035e-12 0 0)
(-8.09595e-12 0 0)
(-7.65833e-12 0 0)
(-8.271e-12 0 0)
(-8.44605e-12 0 0)
(-7.95008e-12 0 0)
(-8.271e-12 0 0)
(-8.32935e-12 0 0)
(-7.93549e-12 0 0)
(-8.19806e-12 0 0)
(-7.93549e-12 0 0)
(-8.05219e-12 0 0)
(-7.87714e-12 0 0)
(-7.61457e-12 0 0)
(-7.81879e-12 0 0)
(-7.55622e-12 0 0)
(-7.68751e-12 0 0)
(-7.5854e-12 0 0)
(-7.62916e-12 0 0)
(-7.80421e-12 0 0)
(-7.38117e-12 0 0)
(-8.05219e-12 0 0)
(-7.38117e-12 0 0)
(-8.271e-12 0 0)
(-7.76044e-12 0 0)
(-8.271e-12 0 0)
(-7.41035e-12 0 0)
(-8.47522e-12 0 0)
(-7.08943e-12 0 0)
(-8.21265e-12 0 0)
(-7.17695e-12 0 0)
(-7.76044e-12 0 0)
(-6.46217e-12 0 0)
(-7.43952e-12 0 0)
(-6.65181e-12 0 0)
(-7.17695e-12 0 0)
(-6.57887e-12 0 0)
(-6.88521e-12 0 0)
(-6.5497e-12 0 0)
(-6.71016e-12 0 0)
(-6.433e-12 0 0)
(-7.03108e-12 0 0)
(-6.41841e-12 0 0)
(-6.89979e-12 0 0)
(-6.62263e-12 0 0)
(-6.98732e-12 0 0)
(-6.33089e-12 0 0)
(-7.06025e-12 0 0)
(-5.82033e-12 0 0)
(-6.57887e-12 0 0)
(-6.09749e-12 0 0)
(-6.47676e-12 0 0)
(-6.34548e-12 0 0)
(-6.52052e-12 0 0)
(-6.33089e-12 0 0)
(-6.50594e-12 0 0)
(-5.98079e-12 0 0)
(-6.49135e-12 0 0)
(-5.79116e-12 0 0)
(-6.36006e-12 0 0)
(-5.54317e-12 0 0)
(-5.67446e-12 0 0)
(-5.07638e-12 0 0)
(-5.49941e-12 0 0)
(-4.93051e-12 0 0)
(-5.36813e-12 0 0)
(-4.98886e-12 0 0)
(-5.60152e-12 0 0)
(-5.32436e-12 0 0)
(-6.0829e-12 0 0)
(-5.6307e-12 0 0)
(-6.28713e-12 0 0)
(-5.95162e-12 0 0)
(-6.88521e-12 0 0)
(-6.17043e-12 0 0)
(-6.75392e-12 0 0)
(-6.68098e-12 0 0)
(-6.73933e-12 0 0)
(-6.79768e-12 0 0)
(-7.01649e-12 0 0)
(-6.78309e-12 0 0)
(-7.26448e-12 0 0)
(-6.82686e-12 0 0)
(-6.92897e-12 0 0)
(-7.08943e-12 0 0)
(-7.07484e-12 0 0)
(-7.0019e-12 0 0)
(-7.24989e-12 0 0)
(-7.14778e-12 0 0)
(-6.92897e-12 0 0)
(-7.01649e-12 0 0)
(-6.82686e-12 0 0)
(-6.84144e-12 0 0)
(-6.1996e-12 0 0)
(-6.72475e-12 0 0)
(-6.09749e-12 0 0)
(-6.33089e-12 0 0)
(-5.95162e-12 0 0)
(-6.15584e-12 0 0)
(-6.12667e-12 0 0)
(-6.28713e-12 0 0)
(-5.6307e-12 0 0)
(-6.5497e-12 0 0)
(-5.6307e-12 0 0)
(-6.34548e-12 0 0)
(-6.03914e-12 0 0)
(-6.02455e-12 0 0)
(-5.71822e-12 0 0)
(-5.92244e-12 0 0)
(-5.6307e-12 0 0)
(-5.76198e-12 0 0)
(-5.29519e-12 0 0)
(-5.41189e-12 0 0)
(-5.17849e-12 0 0)
(-5.33895e-12 0 0)
(-5.2806e-12 0 0)
(-5.54317e-12 0 0)
(-5.07638e-12 0 0)
(-5.06179e-12 0 0)
(-4.93051e-12 0 0)
(-5.04721e-12 0 0)
(-4.93051e-12 0 0)
(-5.13473e-12 0 0)
(-4.66794e-12 0 0)
(-5.17849e-12 0 0)
(-4.30325e-12 0 0)
(-4.8284e-12 0 0)
(-4.28867e-12 0 0)
(-5.00344e-12 0 0)
(-4.37619e-12 0 0)
(-5.22225e-12 0 0)
(-4.90133e-12 0 0)
(-5.58694e-12 0 0)
(-4.72629e-12 0 0)
(-5.3973e-12 0 0)
(-4.84298e-12 0 0)
(-5.82033e-12 0 0)
(-5.14932e-12 0 0)
(-5.67446e-12 0 0)
(-5.22225e-12 0 0)
(-5.84951e-12 0 0)
(-5.33895e-12 0 0)
(-5.96621e-12 0 0)
(-5.7474e-12 0 0)
(-5.89327e-12 0 0)
(-5.93703e-12 0 0)
(-6.15584e-12 0 0)
(-5.99538e-12 0 0)
(-6.36006e-12 0 0)
(-6.25795e-12 0 0)
(-6.50594e-12 0 0)
(-6.30171e-12 0 0)
(-7.14778e-12 0 0)
(-6.36006e-12 0 0)
(-6.94355e-12 0 0)
(-6.87062e-12 0 0)
(-7.06025e-12 0 0)
(-6.82686e-12 0 0)
(-7.1186e-12 0 0)
(-7.07484e-12 0 0)
(-7.1186e-12 0 0)
(-7.45411e-12 0 0)
(-6.81227e-12 0 0)
(-7.45411e-12 0 0)
(-7.22071e-12 0 0)
(-6.98732e-12 0 0)
(-7.71668e-12 0 0)
(-6.81227e-12 0 0)
(-7.67292e-12 0 0)
(-7.10402e-12 0 0)
(-7.39576e-12 0 0)
(-7.64375e-12 0 0)
(-7.52705e-12 0 0)
(-7.01649e-12 0 0)
(-7.54163e-12 0 0)
(-7.20613e-12 0 0)
(-7.03108e-12 0 0)
(-7.1186e-12 0 0)
(-6.81227e-12 0 0)
(-6.94355e-12 0 0)
(-6.49135e-12 0 0)
(-7.14778e-12 0 0)
(-6.68098e-12 0 0)
(-6.37465e-12 0 0)
(-6.72475e-12 0 0)
(-6.21419e-12 0 0)
(-6.09749e-12 0 0)
(-6.28713e-12 0 0)
(-6.11208e-12 0 0)
(-5.61611e-12 0 0)
(-6.24336e-12 0 0)
(-5.73281e-12 0 0)
(-6.34548e-12 0 0)
(-5.83492e-12 0 0)
(-5.99538e-12 0 0)
(-5.77657e-12 0 0)
(-6.05373e-12 0 0)
(-5.73281e-12 0 0)
(-5.84951e-12 0 0)
(-5.1639e-12 0 0)
(-5.70363e-12 0 0)
(-4.75546e-12 0 0)
(-4.8284e-12 0 0)
(-4.50748e-12 0 0)
(-4.55124e-12 0 0)
(-4.31784e-12 0 0)
(-4.55124e-12 0 0)
(-4.46371e-12 0 0)
(-4.53665e-12 0 0)
(-4.56582e-12 0 0)
(-4.69711e-12 0 0)
(-4.63876e-12 0 0)
(-4.63876e-12 0 0)
(-4.78463e-12 0 0)
(-4.90133e-12 0 0)
(-4.63876e-12 0 0)
(-4.97427e-12 0 0)
(-4.79922e-12 0 0)
(-4.7117e-12 0 0)
(-4.69711e-12 0 0)
(-4.78463e-12 0 0)
(-4.62417e-12 0 0)
(-5.1639e-12 0 0)
(-4.37619e-12 0 0)
(-5.30978e-12 0 0)
(-5.12014e-12 0 0)
(-5.29519e-12 0 0)
(-5.92244e-12 0 0)
(-5.84951e-12 0 0)
(-6.17043e-12 0 0)
(-6.56429e-12 0 0)
(-6.40382e-12 0 0)
(-7.22071e-12 0 0)
(-7.36659e-12 0 0)
(-7.43952e-12 0 0)
(-7.99384e-12 0 0)
(-8.47522e-12 0 0)
(-7.9209e-12 0 0)
(-7.99384e-12 0 0)
(-8.79614e-12 0 0)
(-8.06678e-12 0 0)
(-8.63568e-12 0 0)
(-8.73779e-12 0 0)
(-8.32935e-12 0 0)
(-8.59192e-12 0 0)
(-8.69403e-12 0 0)
(-8.28559e-12 0 0)
(-8.1543e-12 0 0)
(-8.88367e-12 0 0)
(-8.25641e-12 0 0)
(-7.67292e-12 0 0)
(-8.78155e-12 0 0)
(-7.22071e-12 0 0)
(-8.16889e-12 0 0)
(-7.65833e-12 0 0)
(-7.70209e-12 0 0)
(-7.2353e-12 0 0)
(-7.77503e-12 0 0)
(-6.79768e-12 0 0)
(-7.48329e-12 0 0)
(-6.46217e-12 0 0)
(-7.20613e-12 0 0)
(-6.87062e-12 0 0)
(-6.88521e-12 0 0)
(-6.40382e-12 0 0)
(-6.81227e-12 0 0)
(-5.84951e-12 0 0)
(-6.62263e-12 0 0)
(-5.61611e-12 0 0)
(-5.93703e-12 0 0)
(-5.13473e-12 0 0)
(-5.57235e-12 0 0)
(-4.85757e-12 0 0)
(-4.84298e-12 0 0)
(-4.43454e-12 0 0)
(-4.66794e-12 0 0)
(-3.9094e-12 0 0)
(-3.83646e-12 0 0)
(-3.31132e-12 0 0)
(-3.47178e-12 0 0)
(-2.91746e-12 0 0)
(-3.16544e-12 0 0)
(-3.25297e-12 0 0)
(-3.28214e-12 0 0)
(-3.51554e-12 0 0)
(-3.36967e-12 0 0)
(-3.38425e-12 0 0)
(-3.58848e-12 0 0)
(-3.48636e-12 0 0)
(-3.48636e-12 0 0)
(-3.54471e-12 0 0)
(-3.71976e-12 0 0)
(-3.23838e-12 0 0)
(-3.70517e-12 0 0)
(-3.35508e-12 0 0)
(-3.70517e-12 0 0)
(-3.04875e-12 0 0)
(-3.25297e-12 0 0)
(-3.26756e-12 0 0)
(-2.88829e-12 0 0)
(-3.18003e-12 0 0)
(-3.04875e-12 0 0)
(-3.36967e-12 0 0)
(-2.90287e-12 0 0)
(-3.29673e-12 0 0)
(-2.91746e-12 0 0)
(-3.18003e-12 0 0)
(-2.9904e-12 0 0)
(-3.53013e-12 0 0)
(-3.22379e-12 0 0)
(-3.57389e-12 0 0)
(-3.22379e-12 0 0)
(-3.61765e-12 0 0)
(-3.34049e-12 0 0)
(-3.73435e-12 0 0)
(-3.41343e-12 0 0)
(-3.61765e-12 0 0)
(-3.70517e-12 0 0)
(-3.93857e-12 0 0)
(-3.53013e-12 0 0)
(-3.93857e-12 0 0)
(-3.74894e-12 0 0)
(-3.99692e-12 0 0)
(-3.69059e-12 0 0)
(-4.18656e-12 0 0)
(-4.09903e-12 0 0)
(-4.30325e-12 0 0)
(-4.33243e-12 0 0)
(-4.15738e-12 0 0)
(-4.28867e-12 0 0)
(-4.31784e-12 0 0)
(-4.41995e-12 0 0)
(-4.69711e-12 0 0)
(-4.78463e-12 0 0)
(-5.13473e-12 0 0)
(-4.90133e-12 0 0)
(-5.32436e-12 0 0)
(-4.77005e-12 0 0)
(-5.38271e-12 0 0)
(-5.22225e-12 0 0)
(-5.77657e-12 0 0)
(-5.70363e-12 0 0)
(-6.12667e-12 0 0)
(-5.96621e-12 0 0)
(-6.15584e-12 0 0)
(-6.14125e-12 0 0)
(-6.27254e-12 0 0)
(-6.78309e-12 0 0)
(-6.76851e-12 0 0)
(-6.97273e-12 0 0)
(-7.52705e-12 0 0)
(-7.36659e-12 0 0)
(-8.02302e-12 0 0)
(-7.76044e-12 0 0)
(-8.51898e-12 0 0)
(-8.44605e-12 0 0)
(-8.86908e-12 0 0)
(-8.9566e-12 0 0)
(-9.7589e-12 0 0)
(-8.98578e-12 0 0)
(-1.02986e-11 0 0)
(-9.86101e-12 0 0)
(-1.04445e-11 0 0)
(-9.91936e-12 0 0)
(-1.11447e-11 0 0)
(-9.7589e-12 0 0)
(-1.05466e-11 0 0)
(-1.04299e-11 0 0)
(-1.0109e-11 0 0)
(-1.00361e-11 0 0)
(-1.00798e-11 0 0)
(-9.77349e-12 0 0)
(-9.3067e-12 0 0)
(-9.8756e-12 0 0)
(-9.23376e-12 0 0)
(-8.43146e-12 0 0)
(-9.10248e-12 0 0)
(-7.9209e-12 0 0)
(-8.43146e-12 0 0)
(-7.78962e-12 0 0)
(-7.45411e-12 0 0)
(-6.46217e-12 0 0)
(-7.13319e-12 0 0)
(-5.79116e-12 0 0)
(-6.14125e-12 0 0)
(-5.26602e-12 0 0)
(-5.38271e-12 0 0)
(-4.63876e-12 0 0)
(-4.72629e-12 0 0)
(-4.20114e-12 0 0)
(-4.01151e-12 0 0)
(-3.74894e-12 0 0)
(-3.66141e-12 0 0)
(-3.18003e-12 0 0)
(-3.29673e-12 0 0)
(-2.9904e-12 0 0)
(-2.72783e-12 0 0)
(-2.81535e-12 0 0)
(-2.55278e-12 0 0)
(-2.5236e-12 0 0)
(-2.72783e-12 0 0)
(-2.50902e-12 0 0)
(-2.77159e-12 0 0)
(-2.61113e-12 0 0)
(-3.39884e-12 0 0)
(-2.66948e-12 0 0)
(-3.61765e-12 0 0)
(-3.20921e-12 0 0)
(-3.63224e-12 0 0)
(-3.83646e-12 0 0)
(-4.14279e-12 0 0)
(-4.09903e-12 0 0)
(-4.7117e-12 0 0)
(-4.56582e-12 0 0)
(-4.69711e-12 0 0)
(-4.65335e-12 0 0)
(-5.35354e-12 0 0)
(-4.58041e-12 0 0)
(-5.45565e-12 0 0)
(-4.98886e-12 0 0)
(-5.68905e-12 0 0)
(-5.73281e-12 0 0)
(-5.89327e-12 0 0)
(-6.00997e-12 0 0)
(-6.0829e-12 0 0)
(-6.40382e-12 0 0)
(-6.6664e-12 0 0)
(-6.71016e-12 0 0)
(-6.79768e-12 0 0)
(-6.84144e-12 0 0)
(-6.84144e-12 0 0)
(-7.13319e-12 0 0)
(-6.92897e-12 0 0)
(-6.22878e-12 0 0)
(-7.2353e-12 0 0)
(-6.25795e-12 0 0)
(-6.49135e-12 0 0)
(-6.40382e-12 0 0)
(-6.12667e-12 0 0)
(-5.48482e-12 0 0)
(-5.93703e-12 0 0)
(-5.23684e-12 0 0)
(-5.23684e-12 0 0)
(-4.88675e-12 0 0)
(-4.40536e-12 0 0)
(-4.40536e-12 0 0)
(-4.18656e-12 0 0)
(-3.86563e-12 0 0)
(-3.58848e-12 0 0)
(-3.42802e-12 0 0)
(-3.35508e-12 0 0)
(-2.94663e-12 0 0)
(-3.04875e-12 0 0)
(-2.50902e-12 0 0)
(-2.78617e-12 0 0)
(-1.94011e-12 0 0)
(-2.31938e-12 0 0)
(-1.80883e-12 0 0)
(-2.30479e-12 0 0)
(-1.56084e-12 0 0)
(-1.76506e-12 0 0)
(-1.13781e-12 0 0)
(-1.2691e-12 0 0)
(-8.46063e-13 0 0)
(-7.5854e-13 0 0)
(-7.87714e-13 0 0)
(-7.87714e-13 0 0)
(-7.73127e-13 0 0)
(-1.22533e-12 0 0)
(-1.16698e-12 0 0)
(-1.57543e-12 0 0)
(-1.80883e-12 0 0)
(-1.75048e-12 0 0)
(-2.34856e-12 0 0)
(-1.92552e-12 0 0)
(-2.34856e-12 0 0)
(-2.50902e-12 0 0)
(-2.71324e-12 0 0)
(-2.88829e-12 0 0)
(-3.07792e-12 0 0)
(-3.42802e-12 0 0)
(-4.27408e-12 0 0)
(-4.05527e-12 0 0)
(-5.00344e-12 0 0)
(-4.62417e-12 0 0)
(-5.26602e-12 0 0)
(-5.38271e-12 0 0)
(-5.52859e-12 0 0)
(-5.54317e-12 0 0)
(-5.76198e-12 0 0)
(-5.60152e-12 0 0)
(-5.92244e-12 0 0)
(-6.02455e-12 0 0)
(-6.38924e-12 0 0)
(-6.14125e-12 0 0)
(-7.04567e-12 0 0)
(-6.59346e-12 0 0)
(-7.27906e-12 0 0)
(-7.17695e-12 0 0)
(-7.43952e-12 0 0)
(-6.65181e-12 0 0)
(-7.97925e-12 0 0)
(-6.72475e-12 0 0)
(-7.80421e-12 0 0)
(-7.64375e-12 0 0)
(-7.71668e-12 0 0)
(-7.41035e-12 0 0)
(-7.76044e-12 0 0)
(-7.13319e-12 0 0)
(-7.77503e-12 0 0)
(-7.1186e-12 0 0)
(-7.36659e-12 0 0)
(-7.10402e-12 0 0)
(-7.08943e-12 0 0)
(-6.76851e-12 0 0)
(-6.57887e-12 0 0)
(-6.33089e-12 0 0)
(-6.21419e-12 0 0)
(-5.93703e-12 0 0)
(-6.0829e-12 0 0)
(-6.14125e-12 0 0)
(-5.96621e-12 0 0)
(-5.7474e-12 0 0)
(-6.28713e-12 0 0)
(-5.60152e-12 0 0)
(-6.1996e-12 0 0)
(-5.42648e-12 0 0)
(-5.73281e-12 0 0)
(-5.2806e-12 0 0)
(-5.89327e-12 0 0)
(-5.03262e-12 0 0)
(-5.68905e-12 0 0)
(-5.42648e-12 0 0)
(-5.87868e-12 0 0)
(-5.23684e-12 0 0)
(-5.87868e-12 0 0)
(-4.98886e-12 0 0)
(-5.86409e-12 0 0)
(-5.23684e-12 0 0)
(-5.98079e-12 0 0)
(-5.36813e-12 0 0)
(-6.1996e-12 0 0)
(-5.47024e-12 0 0)
(-6.14125e-12 0 0)
(-5.47024e-12 0 0)
(-5.86409e-12 0 0)
(-4.93051e-12 0 0)
(-6.15584e-12 0 0)
(-5.77657e-12 0 0)
(-6.21419e-12 0 0)
(-5.47024e-12 0 0)
(-6.38924e-12 0 0)
(-5.89327e-12 0 0)
(-6.21419e-12 0 0)
(-5.89327e-12 0 0)
(-6.36006e-12 0 0)
(-5.70363e-12 0 0)
(-6.52052e-12 0 0)
(-6.14125e-12 0 0)
(-7.08943e-12 0 0)
(-6.5497e-12 0 0)
(-7.55622e-12 0 0)
(-6.94355e-12 0 0)
(-7.95008e-12 0 0)
(-7.352e-12 0 0)
(-8.21265e-12 0 0)
(-7.74586e-12 0 0)
(-8.28559e-12 0 0)
(-8.24182e-12 0 0)
(-8.08136e-12 0 0)
(-8.271e-12 0 0)
(-8.72321e-12 0 0)
(-8.13971e-12 0 0)
(-9.20459e-12 0 0)
(-8.05219e-12 0 0)
(-9.10248e-12 0 0)
(-9.17541e-12 0 0)
(-8.46063e-12 0 0)
(-9.54009e-12 0 0)
(-8.98578e-12 0 0)
(-9.68597e-12 0 0)
(-9.7589e-12 0 0)
(-9.8756e-12 0 0)
(-9.58386e-12 0 0)
(-1.00506e-11 0 0)
(-9.74432e-12 0 0)
(-1.00215e-11 0 0)
(-1.01673e-11 0 0)
(-1.02986e-11 0 0)
(-9.35046e-12 0 0)
(-1.07217e-11 0 0)
(-9.8756e-12 0 0)
(-1.00506e-11 0 0)
(-9.72973e-12 0 0)
(-1.02695e-11 0 0)
(-9.45257e-12 0 0)
(-1.00361e-11 0 0)
(-9.77349e-12 0 0)
(-9.67138e-12 0 0)
(-9.13165e-12 0 0)
(-9.68597e-12 0 0)
(-8.57733e-12 0 0)
(-9.04413e-12 0 0)
(-9.11706e-12 0 0)
(-8.28559e-12 0 0)
(-8.22724e-12 0 0)
(-8.13971e-12 0 0)
(-7.73127e-12 0 0)
(-7.49787e-12 0 0)
(-7.38117e-12 0 0)
(-6.89979e-12 0 0)
(-7.27906e-12 0 0)
(-6.3163e-12 0 0)
(-6.89979e-12 0 0)
(-5.89327e-12 0 0)
(-6.41841e-12 0 0)
(-5.98079e-12 0 0)
(-6.00997e-12 0 0)
(-5.65987e-12 0 0)
(-5.76198e-12 0 0)
(-5.3973e-12 0 0)
(-5.55776e-12 0 0)
(-5.13473e-12 0 0)
(-5.42648e-12 0 0)
(-5.32436e-12 0 0)
(-5.33895e-12 0 0)
(-5.26602e-12 0 0)
(-5.25143e-12 0 0)
(-5.35354e-12 0 0)
(-5.07638e-12 0 0)
(-5.1639e-12 0 0)
(-4.97427e-12 0 0)
(-4.8284e-12 0 0)
(-4.74087e-12 0 0)
(-4.49289e-12 0 0)
(-4.43454e-12 0 0)
(-4.28867e-12 0 0)
(-4.23032e-12 0 0)
(-4.11362e-12 0 0)
(-4.04068e-12 0 0)
(-3.80729e-12 0 0)
(-4.08444e-12 0 0)
(-3.93857e-12 0 0)
(-4.14279e-12 0 0)
(-3.93857e-12 0 0)
(-3.74894e-12 0 0)
(-3.88022e-12 0 0)
(-3.3259e-12 0 0)
(-3.96775e-12 0 0)
(-3.18003e-12 0 0)
(-3.89481e-12 0 0)
(-3.7927e-12 0 0)
(-4.06986e-12 0 0)
(-3.89481e-12 0 0)
(-4.37619e-12 0 0)
(-4.06986e-12 0 0)
(-4.34702e-12 0 0)
(-4.27408e-12 0 0)
(-4.75546e-12 0 0)
(-4.41995e-12 0 0)
(-5.25143e-12 0 0)
(-4.56582e-12 0 0)
(-5.22225e-12 0 0)
(-5.03262e-12 0 0)
(-5.06179e-12 0 0)
(-4.95968e-12 0 0)
(-5.35354e-12 0 0)
(-5.41189e-12 0 0)
(-5.68905e-12 0 0)
(-5.48482e-12 0 0)
(-5.67446e-12 0 0)
(-5.77657e-12 0 0)
(-6.22878e-12 0 0)
(-6.1996e-12 0 0)
(-6.50594e-12 0 0)
(-6.15584e-12 0 0)
(-6.1996e-12 0 0)
(-6.15584e-12 0 0)
(-5.76198e-12 0 0)
(-5.99538e-12 0 0)
(-5.7474e-12 0 0)
(-5.7474e-12 0 0)
(-5.57235e-12 0 0)
(-5.79116e-12 0 0)
(-5.87868e-12 0 0)
(-5.82033e-12 0 0)
(-6.0829e-12 0 0)
(-5.64529e-12 0 0)
(-6.47676e-12 0 0)
(-5.82033e-12 0 0)
(-6.50594e-12 0 0)
(-5.87868e-12 0 0)
(-6.27254e-12 0 0)
(-6.02455e-12 0 0)
(-6.47676e-12 0 0)
(-6.1996e-12 0 0)
(-6.41841e-12 0 0)
(-6.40382e-12 0 0)
(-6.84144e-12 0 0)
(-6.59346e-12 0 0)
(-7.19154e-12 0 0)
(-7.03108e-12 0 0)
(-7.54163e-12 0 0)
(-7.39576e-12 0 0)
(-8.05219e-12 0 0)
(-7.77503e-12 0 0)
(-8.24182e-12 0 0)
(-8.0376e-12 0 0)
(-8.0376e-12 0 0)
(-8.40228e-12 0 0)
(-8.271e-12 0 0)
(-8.66486e-12 0 0)
(-8.22724e-12 0 0)
(-9.02954e-12 0 0)
(-7.64375e-12 0 0)
(-9.58386e-12 0 0)
(-8.0376e-12 0 0)
(-9.10248e-12 0 0)
(-8.16889e-12 0 0)
(-9.4234e-12 0 0)
(-8.25641e-12 0 0)
(-8.69403e-12 0 0)
(-8.37311e-12 0 0)
(-8.76697e-12 0 0)
(-7.96467e-12 0 0)
(-8.43146e-12 0 0)
(-7.41035e-12 0 0)
(-8.12513e-12 0 0)
(-7.39576e-12 0 0)
(-7.43952e-12 0 0)
(-6.73933e-12 0 0)
(-6.68098e-12 0 0)
(-6.34548e-12 0 0)
(-6.14125e-12 0 0)
(-5.76198e-12 0 0)
(-5.73281e-12 0 0)
(-5.48482e-12 0 0)
(-5.06179e-12 0 0)
(-5.01803e-12 0 0)
(-4.53665e-12 0 0)
(-4.49289e-12 0 0)
(-3.69059e-12 0 0)
(-3.50095e-12 0 0)
(-3.19462e-12 0 0)
(-2.85911e-12 0 0)
(-2.4069e-12 0 0)
(-2.39232e-12 0 0)
(-2.01305e-12 0 0)
(-1.86717e-12 0 0)
(-2.0714e-12 0 0)
(-1.7213e-12 0 0)
(-1.838e-12 0 0)
(-1.70671e-12 0 0)
(-2.0714e-12 0 0)
(-1.41497e-12 0 0)
(-2.08598e-12 0 0)
(-2.17351e-12 0 0)
(-2.36314e-12 0 0)
(-2.55278e-12 0 0)
(-2.96122e-12 0 0)
(-2.6403e-12 0 0)
(-3.76352e-12 0 0)
(-3.42802e-12 0 0)
(-3.76352e-12 0 0)
(-3.7927e-12 0 0)
(-4.31784e-12 0 0)
(-4.01151e-12 0 0)
(-4.4783e-12 0 0)
(-4.4783e-12 0 0)
(-5.09097e-12 0 0)
(-5.2806e-12 0 0)
(-5.61611e-12 0 0)
(-5.60152e-12 0 0)
(-6.25795e-12 0 0)
(-6.0829e-12 0 0)
(-6.33089e-12 0 0)
(-6.49135e-12 0 0)
(-6.81227e-12 0 0)
(-6.433e-12 0 0)
(-7.62916e-12 0 0)
(-6.85603e-12 0 0)
(-7.2353e-12 0 0)
(-6.97273e-12 0 0)
(-7.52705e-12 0 0)
(-7.10402e-12 0 0)
(-7.41035e-12 0 0)
(-7.49787e-12 0 0)
(-7.42494e-12 0 0)
(-7.48329e-12 0 0)
(-7.43952e-12 0 0)
(-7.32282e-12 0 0)
(-7.33741e-12 0 0)
(-6.84144e-12 0 0)
(-6.78309e-12 0 0)
(-6.18502e-12 0 0)
(-6.06832e-12 0 0)
(-5.7474e-12 0 0)
(-5.30978e-12 0 0)
(-5.19308e-12 0 0)
(-5.00344e-12 0 0)
(-4.74087e-12 0 0)
(-4.56582e-12 0 0)
(-4.53665e-12 0 0)
(-4.25949e-12 0 0)
(-4.33243e-12 0 0)
(-4.09903e-12 0 0)
(-3.70517e-12 0 0)
(-3.73435e-12 0 0)
(-3.70517e-12 0 0)
(-3.47178e-12 0 0)
(-3.15086e-12 0 0)
(-3.10709e-12 0 0)
(-2.757e-12 0 0)
(-3.15086e-12 0 0)
(-3.04875e-12 0 0)
(-3.25297e-12 0 0)
(-3.41343e-12 0 0)
(-3.92398e-12 0 0)
(-3.69059e-12 0 0)
(-3.86563e-12 0 0)
(-4.15738e-12 0 0)
(-4.43454e-12 0 0)
(-4.37619e-12 0 0)
(-4.98886e-12 0 0)
(-4.84298e-12 0 0)
(-4.93051e-12 0 0)
(-5.04721e-12 0 0)
(-5.47024e-12 0 0)
(-5.49941e-12 0 0)
(-5.47024e-12 0 0)
(-5.67446e-12 0 0)
(-6.09749e-12 0 0)
(-6.06832e-12 0 0)
(-6.1996e-12 0 0)
(-6.56429e-12 0 0)
(-6.38924e-12 0 0)
(-6.68098e-12 0 0)
(-7.06025e-12 0 0)
(-7.2353e-12 0 0)
(-6.94355e-12 0 0)
(-7.83338e-12 0 0)
(-7.41035e-12 0 0)
(-7.48329e-12 0 0)
(-7.33741e-12 0 0)
(-8.0376e-12 0 0)
(-7.42494e-12 0 0)
(-7.77503e-12 0 0)
(-7.74586e-12 0 0)
(-7.65833e-12 0 0)
(-7.78962e-12 0 0)
(-7.55622e-12 0 0)
(-6.85603e-12 0 0)
(-7.41035e-12 0 0)
(-6.78309e-12 0 0)
(-6.65181e-12 0 0)
(-6.28713e-12 0 0)
(-6.30171e-12 0 0)
(-6.00997e-12 0 0)
(-5.79116e-12 0 0)
(-5.67446e-12 0 0)
(-5.65987e-12 0 0)
(-5.17849e-12 0 0)
(-5.14932e-12 0 0)
(-4.85757e-12 0 0)
(-4.85757e-12 0 0)
(-4.8284e-12 0 0)
(-4.44913e-12 0 0)
(-4.55124e-12 0 0)
(-4.46371e-12 0 0)
(-4.33243e-12 0 0)
(-3.92398e-12 0 0)
(-3.96775e-12 0 0)
(-3.39884e-12 0 0)
(-3.7927e-12 0 0)
(-3.54471e-12 0 0)
(-3.69059e-12 0 0)
(-3.26756e-12 0 0)
(-3.28214e-12 0 0)
(-3.26756e-12 0 0)
(-2.81535e-12 0 0)
(-3.13627e-12 0 0)
(-2.62571e-12 0 0)
(-3.09251e-12 0 0)
(-2.8737e-12 0 0)
(-3.13627e-12 0 0)
(-3.25297e-12 0 0)
(-3.57389e-12 0 0)
(-3.48636e-12 0 0)
(-3.676e-12 0 0)
(-3.5593e-12 0 0)
(-4.01151e-12 0 0)
(-3.98233e-12 0 0)
(-4.08444e-12 0 0)
(-4.04068e-12 0 0)
(-4.28867e-12 0 0)
(-4.44913e-12 0 0)
(-4.91592e-12 0 0)
(-4.8284e-12 0 0)
(-5.01803e-12 0 0)
(-4.75546e-12 0 0)
(-5.06179e-12 0 0)
(-5.06179e-12 0 0)
(-5.42648e-12 0 0)
(-4.98886e-12 0 0)
(-5.68905e-12 0 0)
(-5.12014e-12 0 0)
(-5.29519e-12 0 0)
(-4.88675e-12 0 0)
(-5.25143e-12 0 0)
(-4.63876e-12 0 0)
(-4.85757e-12 0 0)
(-4.91592e-12 0 0)
(-4.43454e-12 0 0)
(-4.66794e-12 0 0)
(-4.3616e-12 0 0)
(-3.95316e-12 0 0)
(-4.02609e-12 0 0)
(-3.74894e-12 0 0)
(-3.53013e-12 0 0)
(-3.88022e-12 0 0)
(-3.45719e-12 0 0)
(-3.53013e-12 0 0)
(-3.25297e-12 0 0)
(-3.18003e-12 0 0)
(-3.00498e-12 0 0)
(-2.65489e-12 0 0)
(-2.68406e-12 0 0)
(-2.20268e-12 0 0)
(-2.17351e-12 0 0)
(-1.85259e-12 0 0)
(-1.82341e-12 0 0)
(-1.4879e-12 0 0)
(-1.41497e-12 0 0)
(-1.21075e-12 0 0)
(-1.41497e-12 0 0)
(-1.07946e-12 0 0)
(-1.25451e-12 0 0)
(-1.13781e-12 0 0)
(-1.31286e-12 0 0)
(-1.10863e-12 0 0)
(-1.2691e-12 0 0)
(-1.23992e-12 0 0)
(-1.89635e-12 0 0)
(-1.56084e-12 0 0)
(-2.1881e-12 0 0)
(-1.82341e-12 0 0)
(-2.34856e-12 0 0)
(-2.27562e-12 0 0)
(-2.50902e-12 0 0)
(-2.66948e-12 0 0)
(-2.61113e-12 0 0)
(-3.09251e-12 0 0)
(-3.22379e-12 0 0)
(-3.76352e-12 0 0)
(-3.50095e-12 0 0)
(-4.01151e-12 0 0)
(-3.69059e-12 0 0)
(-4.20114e-12 0 0)
(-3.47178e-12 0 0)
(-3.82187e-12 0 0)
(-3.45719e-12 0 0)
(-3.71976e-12 0 0)
(-3.3259e-12 0 0)
(-3.86563e-12 0 0)
(-3.03416e-12 0 0)
(-3.98233e-12 0 0)
(-3.07792e-12 0 0)
(-3.63224e-12 0 0)
(-2.93205e-12 0 0)
(-3.53013e-12 0 0)
(-2.90287e-12 0 0)
(-3.22379e-12 0 0)
(-2.93205e-12 0 0)
(-3.13627e-12 0 0)
(-3.01957e-12 0 0)
(-2.757e-12 0 0)
(-2.6403e-12 0 0)
(-2.37773e-12 0 0)
(-2.39232e-12 0 0)
(-1.73589e-12 0 0)
(-1.92552e-12 0 0)
(-1.2691e-12 0 0)
(-1.69213e-12 0 0)
(-1.29827e-12 0 0)
(-1.40038e-12 0 0)
(-1.25451e-12 0 0)
(-1.12322e-12 0 0)
(-1.44414e-12 0 0)
(-1.19616e-12 0 0)
(-1.70671e-12 0 0)
(-1.34203e-12 0 0)
(-1.64836e-12 0 0)
(-1.28368e-12 0 0)
(-1.73589e-12 0 0)
(-1.7213e-12 0 0)
(-1.64836e-12 0 0)
(-1.67754e-12 0 0)
(-1.41497e-12 0 0)
(-1.70671e-12 0 0)
(-1.37121e-12 0 0)
(-1.89635e-12 0 0)
(-1.4879e-12 0 0)
(-2.14433e-12 0 0)
(-1.82341e-12 0 0)
(-2.23186e-12 0 0)
(-2.1881e-12 0 0)
(-2.49443e-12 0 0)
(-2.53819e-12 0 0)
(-2.91746e-12 0 0)
(-2.56736e-12 0 0)
(-3.19462e-12 0 0)
(-2.91746e-12 0 0)
(-3.26756e-12 0 0)
(-3.01957e-12 0 0)
(-3.51554e-12 0 0)
(-3.4426e-12 0 0)
(-3.5593e-12 0 0)
(-3.676e-12 0 0)
(-3.85105e-12 0 0)
(-3.42802e-12 0 0)
(-3.83646e-12 0 0)
(-3.66141e-12 0 0)
(-3.89481e-12 0 0)
(-4.15738e-12 0 0)
(-4.43454e-12 0 0)
(-4.46371e-12 0 0)
(-5.04721e-12 0 0)
(-5.48482e-12 0 0)
(-4.93051e-12 0 0)
(-6.1996e-12 0 0)
(-5.6307e-12 0 0)
(-6.14125e-12 0 0)
(-5.71822e-12 0 0)
(-6.85603e-12 0 0)
(-5.70363e-12 0 0)
(-6.59346e-12 0 0)
(-6.85603e-12 0 0)
(-6.27254e-12 0 0)
(-6.78309e-12 0 0)
(-6.65181e-12 0 0)
(-6.17043e-12 0 0)
(-6.68098e-12 0 0)
(-6.14125e-12 0 0)
(-5.86409e-12 0 0)
(-5.84951e-12 0 0)
(-5.90786e-12 0 0)
(-4.97427e-12 0 0)
(-5.52859e-12 0 0)
(-4.49289e-12 0 0)
(-4.84298e-12 0 0)
(-4.31784e-12 0 0)
(-4.31784e-12 0 0)
(-3.80729e-12 0 0)
(-3.9094e-12 0 0)
(-3.31132e-12 0 0)
(-3.04875e-12 0 0)
(-2.82994e-12 0 0)
(-2.82994e-12 0 0)
(-2.55278e-12 0 0)
(-2.62571e-12 0 0)
(-2.29021e-12 0 0)
(-2.46525e-12 0 0)
(-2.34856e-12 0 0)
(-2.55278e-12 0 0)
(-2.27562e-12 0 0)
(-2.42149e-12 0 0)
(-2.30479e-12 0 0)
(-2.37773e-12 0 0)
(-2.43608e-12 0 0)
(-2.46525e-12 0 0)
(-2.58195e-12 0 0)
(-2.757e-12 0 0)
(-2.50902e-12 0 0)
(-3.23838e-12 0 0)
(-3.03416e-12 0 0)
(-3.18003e-12 0 0)
(-2.9904e-12 0 0)
(-3.69059e-12 0 0)
(-3.12168e-12 0 0)
(-3.41343e-12 0 0)
(-3.12168e-12 0 0)
(-3.36967e-12 0 0)
(-3.3259e-12 0 0)
(-3.3259e-12 0 0)
(-3.28214e-12 0 0)
(-2.97581e-12 0 0)
(-2.84452e-12 0 0)
(-2.62571e-12 0 0)
(-2.66948e-12 0 0)
(-2.10057e-12 0 0)
(-2.71324e-12 0 0)
(-1.76506e-12 0 0)
(-2.1881e-12 0 0)
(-1.51708e-12 0 0)
(-2.10057e-12 0 0)
(-1.45873e-12 0 0)
(-1.86717e-12 0 0)
(-1.1524e-12 0 0)
(-1.4879e-12 0 0)
(-7.5854e-13 0 0)
(-1.0357e-12 0 0)
(-5.83492e-13 0 0)
(-7.87714e-13 0 0)
(-6.41841e-13 0 0)
(-7.87714e-13 0 0)
(-6.56429e-13 0 0)
(-4.81381e-13 0 0)
(-4.95968e-13 0 0)
(-3.06333e-13 0 0)
(-4.95968e-13 0 0)
(-3.50095e-13 0 0)
(-4.52206e-13 0 0)
(-1.31286e-13 0 0)
(-2.1881e-13 0 0)
(-1.75048e-13 0 0)
(-2.91746e-13 0 0)
(1.45873e-14 0 0)
(-2.1881e-13 0 0)
(-1.89635e-13 0 0)
(-2.33397e-13 0 0)
(-1.75048e-13 0 0)
(-3.50095e-13 0 0)
(-2.1881e-13 0 0)
(-1.89635e-13 0 0)
(-5.68905e-13 0 0)
(-2.77159e-13 0 0)
(-4.37619e-13 0 0)
(-5.83492e-13 0 0)
(-8.31476e-13 0 0)
(-3.35508e-13 0 0)
(-1.06487e-12 0 0)
(-7.0019e-13 0 0)
(-9.19e-13 0 0)
(-1.02111e-12 0 0)
(-1.06487e-12 0 0)
(-1.12322e-12 0 0)
(-1.70671e-12 0 0)
(-1.41497e-12 0 0)