/*--------------------------------*- C++ -*----------------------------------*\
  =========                 |
  \\      /  F ield         | OpenFOAM: The Open Source CFD Toolbox
   \\    /   O peration     | Website:  https://openfoam.org
    \\  /    A nd           | Version:  9
     \\/     M anipulation  |
\*---------------------------------------------------------------------------*/
FoamFile
{
    format      ascii;
    class       surfaceScalarField;
    location    "0.46";
    object      alphaPhi0.phase1;
}
// * * * * * * * * * * * * * * * * * * * * * * * * * * * * * * * * * * * * * //

dimensions      [0 3 -1 0 0 0 0];

internalField   nonuniform List<scalar> 
19800
(
6.2308766e-103
7.6933689e-103
5.6704984e-103
8.2465292e-103
9.0450852e-103
1.2245968e-102
6.9146267e-101
8.0930311e-101
6.1550568e-99
1.029979e-98
4.1463218e-97
1.2383693e-96
1.3222031e-95
1.4739873e-94
-2.437285e-93
1.9775727e-92
-9.0125425e-91
3.3113701e-90
-5.7277685e-88
7.854053e-88
-9.0017214e-85
3.6948605e-85
-2.6942952e-82
1.101236e-82
-1.031671e-80
6.0162427e-81
-9.7717164e-80
7.520487e-80
-4.818699e-79
3.8673291e-79
-1.7172133e-78
1.3171724e-78
-3.7151136e-78
3.4296085e-78
-6.4076984e-78
6.6516285e-78
-2.7362774e-77
1.6623013e-77
-1.8435556e-75
8.409051e-76
-1.4608907e-73
6.2548845e-74
-1.0098414e-71
4.0890852e-72
-5.6109923e-70
2.1624266e-70
-1.8869198e-68
6.660183e-69
4.4615594e-67
-6.0265961e-67
1.9836202e-64
-2.3126565e-64
3.1521062e-62
-2.8756804e-62
3.9544234e-60
-2.985047e-60
4.6873798e-58
-3.021991e-58
5.1063221e-56
-2.8066498e-56
5.2298496e-54
-2.485729e-54
5.1637528e-52
-2.5029905e-52
2.0381625e-50
-1.0904876e-50
2.2174999e-49
-9.4235361e-50
1.2420405e-48
-2.8558513e-49
2.3419306e-48
-4.8676642e-49
1.1450768e-48
-2.6868462e-49
4.4725246e-49
-5.8311948e-50
4.5829491e-49
-2.8307729e-49
4.8817246e-49
-4.1550546e-50
8.1856661e-48
-8.7280809e-50
1.2052617e-46
2.1830736e-48
1.397639e-45
6.1082582e-47
1.3258584e-44
9.2466855e-46
9.8077272e-44
9.5248925e-45
5.616166e-43
7.0838129e-44
2.5650868e-42
3.9981354e-43
9.4107177e-42
1.7513502e-42
2.6701523e-41
5.7898845e-42
4.4612062e-41
1.4271964e-41
4.2543392e-41
1.4204637e-41
1.6316287e-41
7.6768278e-42
3.6179148e-42
2.1525081e-42
6.8308391e-43
3.9037954e-43
1.1226266e-43
4.6566137e-44
1.3851166e-44
2.4410049e-45
1.068868e-45
-4.0168588e-46
4.5464183e-47
-8.7881015e-47
1.0829303e-48
-5.4139606e-48
5.2339994e-49
-1.7724668e-49
4.1384202e-49
-5.3115378e-49
4.8854553e-49
-7.1945869e-49
1.7305039e-47
-2.2300283e-48
2.1724236e-47
-3.9071112e-48
1.5681841e-48
-1.3529722e-48
1.0597259e-49
-2.2222014e-49
3.4048675e-51
-8.7567785e-51
1.5256746e-52
-1.53077e-51
1.5966131e-54
-1.323973e-52
5.789624e-57
-6.0845687e-55
1.6792457e-60
-7.1355468e-58
6.8390998e-61
1.4426536e-62
1.0821131e-63
1.0054841e-63
1.0712699e-65
2.0673215e-65
1.6463263e-67
4.0801225e-67
2.2797682e-69
7.2654529e-69
2.9750195e-71
1.1795749e-70
3.6749961e-73
1.7614676e-72
4.9332966e-75
2.444924e-74
5.34105e-76
4.1068477e-76
3.4963123e-76
8.2007392e-77
2.6048485e-76
5.9504214e-77
1.4265787e-76
3.9286908e-77
4.5335348e-77
1.7148852e-77
1.329277e-77
5.9326208e-78
3.915242e-78
1.9959155e-78
8.5891e-79
5.5699096e-79
1.1264316e-79
1.1452867e-79
4.0237772e-81
1.0480955e-80
1.9104225e-83
2.2551067e-82
2.0272946e-86
9.7577766e-85
3.2094541e-89
2.2962856e-87
7.289732e-92
5.7856401e-90
1.4798356e-94
1.3810236e-92
3.2331662e-97
3.1741694e-95
1.0108273e-99
9.0833866e-98
8.073235e-102
3.597199e-100
3.1910837e-102
5.061227e-102
1.459332e-102
3.8184916e-102
3.6511286e-102
7.9098021e-103
1.0143421e-102
3.1067731e-101
4.4486707e-101
1.3070896e-100
2.4570876e-100
4.136439e-100
8.3618365e-100
1.9766984e-98
3.8974289e-98
1.0655755e-96
2.5676773e-96
6.4857901e-95
2.6285222e-94
2.5491429e-93
4.1875559e-92
-9.2479025e-91
1.0125201e-89
-8.4926862e-88
3.0836498e-87
-8.0820563e-85
8.0971584e-85
-2.2720001e-82
1.2894106e-82
-9.6408341e-81
6.6068181e-81
-9.7384786e-80
8.4497748e-80
-3.9729972e-79
4.1869497e-79
-1.0151154e-78
1.2837084e-78
-4.7274654e-78
4.8267215e-78
-2.3242108e-76
2.3658222e-76
-2.3433751e-74
2.078062e-74
-2.2300079e-72
1.7032814e-72
-1.9267671e-70
1.2186192e-70
-1.4874395e-68
7.0770086e-69
-9.9700777e-67
2.4963092e-67
-5.9221098e-65
-8.006361e-66
-2.1236749e-63
-3.7513805e-63
6.4333437e-62
-5.3941356e-61
2.7088582e-59
-5.977415e-59
4.1574081e-57
-5.9310689e-57
5.3535845e-55
-5.8500678e-55
5.9972591e-53
-5.3087429e-53
6.3872292e-51
-4.7016943e-51
7.8818319e-49
-4.9841878e-49
3.5736361e-47
-2.0889013e-47
2.2730869e-46
-1.5276329e-46
3.191284e-46
-2.5715174e-46
5.7569968e-47
-9.7376475e-47
8.0850636e-49
-9.1172992e-49
8.3959992e-49
-3.546781e-49
5.3119091e-48
-8.2864226e-49
1.4085387e-46
-1.2962465e-47
2.0486433e-45
-5.8066098e-47
2.5250509e-44
8.584811e-46
2.656968e-43
2.5958392e-44
2.2613551e-42
3.7618795e-43
1.411015e-41
3.3867639e-42
5.8270002e-41
1.9150167e-41
1.576754e-40
6.7918887e-41
3.1616657e-40
1.6590558e-40
5.6230496e-40
3.3481117e-40
7.4093024e-40
5.8172469e-40
6.9503977e-40
5.5808261e-40
3.8435189e-40
3.6033975e-40
1.5966137e-40
1.498469e-40
6.0470793e-41
4.4583673e-41
1.6986273e-41
7.0475445e-42
2.7589452e-42
-4.6439905e-43
2.3104982e-43
-3.6521816e-43
1.0246467e-44
-4.5811213e-44
2.9794842e-46
-2.6555107e-45
6.1220488e-48
-9.6084423e-47
1.8784289e-48
-1.5916569e-48
6.2523333e-47
-2.2535218e-47
2.6370971e-45
-1.0691618e-45
5.5300129e-45
-3.1256677e-45
4.4906317e-45
-2.6772881e-45
3.5907496e-46
-6.0180587e-46
1.0108382e-47
-2.7144556e-47
3.3305422e-49
-7.2085002e-48
4.138857e-51
-3.3571373e-49
1.7494595e-53
-1.9323657e-51
4.3457589e-56
-3.9673778e-54
3.2926014e-59
-1.7797275e-57
3.4012898e-59
2.7545745e-60
3.693986e-62
1.2975337e-61
2.3202858e-64
1.7244965e-63
3.296418e-66
2.7929643e-65
4.0981115e-68
4.2969209e-67
4.7967181e-70
6.1513622e-69
5.2926962e-72
8.1699481e-71
5.7291738e-74
1.0055635e-72
3.2460418e-75
1.2445639e-74
1.2209101e-75
1.3070293e-75
4.9237884e-76
5.0219536e-76
7.0124568e-77
9.5191823e-77
1.548251e-77
1.6235648e-77
4.4139981e-78
4.2405804e-78
8.740183e-79
9.6666872e-79
1.0509948e-79
1.6580317e-79
3.7921525e-81
1.4273349e-80
2.2642148e-83
3.5617837e-82
4.2004916e-86
2.732425e-84
8.5479717e-89
1.1121016e-86
1.5179092e-91
2.9149177e-89
2.9207639e-94
5.6260775e-92
1.3995125e-96
1.7797261e-94
1.5166674e-98
1.3179119e-96
1.1348932e-99
1.8128731e-98
1.6121246e-100
2.5737408e-99
5.8546686e-102
3.1122305e-100
6.1135563e-102
5.3174767e-100
1.0903882e-99
5.087433e-98
6.0332131e-98
2.4419554e-96
3.5589468e-96
1.417673e-95
2.8737665e-95
4.2052456e-95
1.0614261e-94
4.4167771e-94
1.329212e-93
3.3176433e-92
1.471999e-91
4.0552601e-90
3.6593916e-89
6.3027581e-89
2.0800373e-86
-4.9690591e-84
1.3835501e-83
-5.6304988e-82
1.5829437e-81
-6.4683394e-81
2.8949589e-80
-5.2448759e-80
1.8137233e-79
-1.4973824e-78
1.7555596e-78
-1.8688505e-77
3.6297574e-77
-1.1186632e-76
2.8727472e-76
-1.9304897e-75
2.4909093e-75
-2.0359374e-73
2.0052698e-73
-2.1961551e-71
1.8078806e-71
-2.1727506e-69
1.4466777e-69
-1.9626381e-67
9.7768971e-68
-1.5981178e-65
4.9087478e-66
-1.1913944e-63
5.0459982e-65
-7.5851469e-62
-3.1435183e-62
-3.8866518e-60
-5.4933295e-60
-9.2556149e-59
-6.7511595e-58
1.2558423e-56
-7.0849722e-56
2.8060785e-54
-6.8978739e-54
4.0470221e-52
-6.734103e-52
4.7883897e-50
-6.0943596e-50
5.3897916e-48
-5.5199439e-48
6.5698216e-46
-5.6722979e-46
2.6508889e-44
-2.0843118e-44
1.5414421e-43
-1.3791121e-43
2.1419399e-43
-2.2342326e-43
4.3189272e-44
-8.8959708e-44
4.3864683e-46
-5.9997318e-46
4.6956597e-46
-2.5980293e-46
1.0521945e-45
-2.6311372e-46
3.0274932e-44
-3.7520433e-45
4.197067e-43
-2.1126175e-44
4.8979956e-42
1.6233904e-43
4.9179956e-41
5.3416092e-42
4.0331177e-40
7.6330054e-41
2.4627499e-39
6.8832866e-40
1.0124876e-38
3.9559095e-39
2.7448482e-38
1.4291222e-38
5.438036e-38
3.5448734e-38
9.3944784e-38
7.1413391e-38
1.2307824e-37
1.2666803e-37
1.1193471e-37
1.2058503e-37
5.9096443e-38
7.5246627e-38
2.3693104e-38
3.0208001e-38
8.6832772e-39
8.225555e-39
2.3683311e-39
1.0119487e-39
3.9610891e-40
-3.0877782e-40
3.5438667e-41
-1.0973252e-40
1.7874702e-42
-1.3054601e-41
6.0937318e-44
-7.9822678e-43
1.8046119e-45
-3.0649391e-44
9.8496011e-46
-9.7385866e-46
8.696468e-44
-4.4223724e-44
3.3266723e-42
-1.987417e-42
5.9577335e-42
-4.7422358e-42
4.3474324e-42
-3.8026568e-42
3.832742e-43
-8.6450608e-43
1.2834895e-44
-4.3942009e-44
4.296794e-46
-9.4461888e-45
6.2921178e-48
-4.9155902e-46
3.0837147e-50
-3.4056634e-48
9.0202031e-53
-8.8279253e-51
2.6584072e-56
-9.7408226e-54
2.3755647e-56
1.5519008e-57
3.9268623e-59
1.2525351e-58
2.0786903e-61
1.7663765e-60
2.9180567e-63
2.9182267e-62
3.6429961e-65
4.5745932e-64
4.2539036e-67
6.6300832e-66
4.6686345e-69
8.8753398e-68
4.8843857e-71
1.0956544e-69
1.775865e-72
1.2966952e-71
6.2698563e-73
9.0311555e-73
2.625372e-73
3.7494501e-73
2.6039513e-74
7.0297776e-74
3.307685e-75
9.1806544e-75
6.6923099e-76
1.8562726e-75
7.8489772e-77
3.0109109e-76
5.599897e-78
3.2221673e-77
3.1120617e-79
2.5250904e-78
1.103836e-80
1.5203401e-79
1.0427979e-82
3.9213512e-81
2.4706957e-85
2.9959457e-83
4.9095257e-88
1.0880514e-85
1.3197109e-90
3.5012728e-88
6.888806e-93
1.1647524e-90
2.2658582e-94
1.0214979e-92
1.6037012e-95
4.8699772e-94
5.2436397e-97
3.3433736e-95
1.3039055e-99
4.7166983e-97
9.4867123e-99
1.8754035e-97
3.3445407e-97
1.8492803e-95
1.9074247e-95
2.294602e-93
2.6956712e-93
1.6327164e-91
2.4107972e-91
1.478343e-90
3.3196046e-90
3.2805596e-90
9.716615e-90
3.9149525e-89
1.3604584e-88
5.5487037e-87
3.0496271e-86
1.0866604e-84
1.5777057e-83
-1.1086968e-81
9.4864647e-81
-2.0757272e-79
1.0685529e-78
-3.3542221e-78
2.211425e-77
-1.270193e-76
2.2912401e-76
-6.4373703e-75
7.1346642e-75
-3.5663861e-74
9.0969269e-74
-1.1473399e-73
3.2430151e-73
-1.2375864e-72
1.5718252e-72
-1.4122421e-70
1.3763611e-70
-1.5801122e-68
1.2414113e-68
-1.6141485e-66
9.7701815e-67
-1.5028759e-64
6.314646e-65
-1.2675944e-62
2.6868151e-63
-9.9473347e-61
-5.946443e-62
-7.0983886e-59
-3.2739117e-59
-4.3156547e-57
-5.0225273e-57
-1.9252817e-55
-5.8681748e-55
-1.5996775e-54
-5.9822855e-53
1.1230555e-51
-5.7490203e-51
2.1025946e-49
-5.5567177e-49
2.7757238e-47
-5.0639954e-47
3.4373452e-45
-4.7827906e-45
4.1831552e-43
-4.7632302e-43
1.4801608e-41
-1.5096736e-41
7.6997455e-41
-8.8623258e-41
1.0522213e-40
-1.3578299e-40
2.2865312e-41
-5.5837808e-41
1.9039247e-43
-3.7793216e-43
1.8197447e-43
-1.3961172e-43
1.9035585e-43
-8.8324013e-44
5.137308e-42
-7.8416299e-43
6.4092499e-41
-4.226394e-42
7.1191538e-40
1.8460885e-41
6.8460518e-39
8.1660767e-40
5.3887879e-38
1.1784633e-38
3.1990531e-37
1.0571013e-37
1.2983703e-36
6.0751728e-37
3.4942519e-36
2.2118612e-36
6.8059784e-36
5.5138424e-36
1.1414313e-35
1.1000182e-35
1.4681996e-35
1.9804331e-35
1.2851762e-35
1.8786886e-35
6.4577329e-36
1.1501343e-35
2.5254182e-36
4.4839006e-36
9.0557171e-37
1.1744498e-36
2.5121617e-37
9.0810266e-38
4.2504895e-38
-6.0602404e-38
4.0579907e-39
-1.974353e-38
2.3154393e-40
-2.4207891e-39
9.0987747e-42
-1.6041356e-40
5.0936865e-43
-6.5060149e-42
4.5334804e-43
-5.6983046e-43
8.3495465e-41
-5.66287e-41
2.9507201e-39
-2.41043e-39
4.7881813e-39
-5.0311893e-39
3.1686246e-39
-3.7835981e-39
3.0418276e-40
-8.6607367e-40
1.1695429e-41
-4.863599e-41
3.986009e-43
-8.4346629e-42
6.6735299e-45
-4.9072893e-43
3.774376e-47
-3.9761581e-45
1.2319206e-49
-1.2031647e-47
2.3464774e-53
-1.7014335e-50
1.7741286e-53
8.6732458e-55
2.7224694e-56
9.8051518e-56
1.5288451e-58
1.4773206e-57
2.0951362e-60
2.4635168e-59
2.5754364e-62
3.8500479e-61
2.9665324e-64
5.5519426e-63
3.2088582e-66
7.3749775e-65
3.2571406e-68
9.0208909e-67
8.1053004e-70
1.0256712e-68
2.6077473e-70
4.669415e-70
1.1216438e-70
1.935052e-70
1.2406412e-71
3.8463475e-71
1.7788892e-72
5.59313e-72
3.9437548e-73
1.2421171e-72
5.4781537e-74
2.2671475e-73
5.1614753e-75
3.1049404e-74
2.8191926e-76
2.7889369e-75
7.6455793e-78
1.4875121e-76
6.7611327e-80
3.4128561e-78
2.2981206e-82
2.9061456e-80
8.568132e-85
1.5255393e-82
4.8079666e-87
8.7069781e-85
3.7076323e-89
5.7964659e-87
7.7970093e-91
5.9825892e-89
2.1214794e-92
1.9755026e-90
9.852362e-95
3.0414306e-92
2.9213435e-97
2.3015386e-94
3.6420442e-96
5.316213e-95
7.6514533e-95
6.3220998e-93
5.4292185e-93
7.1012882e-91
6.8825719e-91
7.2789232e-89
8.6884984e-89
4.5617691e-87
6.9951272e-87
5.4659972e-86
1.2112665e-85
1.9014432e-85
5.6427213e-85
6.5605523e-84
2.5643939e-83
1.2671142e-81
8.9596227e-81
1.4396923e-79
4.713041e-78
-6.0187649e-77
5.6222749e-76
-1.5876728e-75
1.2960285e-74
-6.9468325e-74
1.5000204e-73
-3.1662596e-72
4.1368284e-72
-1.5987325e-71
4.7129225e-71
-5.3315202e-71
1.5738181e-70
-6.8683372e-70
8.7088179e-70
-8.3242011e-68
8.0894159e-68
-9.6290154e-66
7.3480235e-66
-1.0171089e-63
5.7861648e-64
-9.7578307e-62
3.6540771e-62
-8.5527357e-60
1.3947508e-60
-7.0286219e-58
-6.5044309e-59
-5.2924534e-56
-2.3406201e-56
-3.5488756e-54
-3.4247984e-54
-1.980202e-52
-3.9351071e-52
-7.5537616e-51
-3.976045e-50
1.0897136e-49
-3.7830483e-48
7.6451755e-47
-3.6094374e-46
1.2519416e-44
-3.3269412e-44
1.7652691e-42
-3.3102062e-42
2.1716167e-40
-3.1949611e-40
6.7366652e-39
-8.6923483e-39
3.0761382e-38
-4.4338764e-38
4.1217902e-38
-6.3193371e-38
9.3650013e-39
-2.6500214e-38
6.5890333e-41
-1.6176939e-40
5.1812732e-41
-5.7088903e-41
5.131483e-41
-2.8768401e-41
7.6075658e-40
-1.4126723e-40
8.0778355e-39
-6.7512981e-40
8.2680219e-38
2.0547289e-39
7.5568256e-37
1.0040469e-37
5.6920979e-36
1.4150743e-36
3.2777118e-35
1.2553118e-35
1.3077309e-34
7.1951617e-35
3.4684754e-34
2.6421208e-34
6.5937033e-34
6.6121799e-34
1.0622082e-33
1.3074817e-33
1.3215562e-33
2.3709703e-33
1.097255e-33
2.2479201e-33
5.1231618e-34
1.3715466e-33
1.8523474e-34
5.3638186e-34
6.2809057e-35
1.37252e-34
1.6751317e-35
9.40498e-36
2.9666824e-36
-7.9092396e-36
3.1387569e-37
-2.5351344e-36
2.0933554e-38
-3.2656361e-37
9.7478577e-40
-2.369947e-38
2.0039709e-40
-1.0210297e-39
2.3792328e-40
-4.4766838e-40
5.8267345e-38
-5.2191698e-38
1.9414955e-36
-2.1063001e-36
2.9844479e-36
-4.0092595e-36
1.8255345e-36
-2.8497801e-36
1.8906466e-37
-6.5580959e-37
7.5979489e-39
-4.0030798e-38
2.8360676e-40
-3.6113324e-39
5.3430577e-42
-3.6057013e-40
3.4532743e-44
-3.3762852e-42
1.2448661e-46
-1.1643267e-44
1.4357395e-50
-1.904567e-47
6.8639208e-51
3.7959232e-52
1.97335e-53
6.3042344e-53
9.8064823e-56
1.0526841e-54
1.2778421e-57
1.7522792e-56
1.5409261e-59
2.7141975e-58
1.7392412e-61
3.8592564e-60
1.842673e-63
5.0494715e-62
1.8207306e-65
6.071468e-64
3.1824312e-67
6.7090666e-66
8.2353916e-68
1.9650353e-67
3.3195918e-68
7.2999047e-68
4.072436e-69
1.4341862e-68
7.2732902e-70
2.434812e-69
1.7893815e-70
6.1887314e-70
2.6750205e-71
1.22859e-70
2.8670727e-72
1.9082273e-71
1.5646362e-73
1.8343711e-72
3.7966597e-75
9.4219722e-74
3.2644921e-77
2.0642799e-75
1.3600736e-79
1.8763038e-77
6.6560375e-82
1.2376072e-79
3.883963e-84
8.0914773e-82
3.5092439e-86
5.6603339e-84
5.6370309e-88
7.9034497e-86
5.7989692e-90
1.3106719e-87
2.0083109e-92
1.2388456e-89
4.9018501e-95
7.8893057e-92
1.0451552e-93
1.2400994e-92
1.317483e-92
1.7074858e-90
1.1494821e-90
2.0909388e-88
1.6208293e-88
1.965538e-86
1.9278482e-86
1.7002403e-84
2.0857888e-84
7.8932632e-83
1.2744619e-82
1.0898217e-81
2.461478e-81
7.132131e-81
2.2197949e-80
9.1390588e-79
4.2511191e-78
1.8282141e-76
1.9050172e-75
-5.2901296e-75
2.3578584e-73
-5.4055503e-73
5.9024613e-72
-3.2769085e-71
7.8611081e-71
-1.2406912e-69
2.020347e-69
-5.3565735e-69
1.8810094e-68
-1.8657252e-68
5.7177997e-68
-3.3026088e-67
4.2437658e-67
-4.2420179e-65
4.1669091e-65
-5.0808828e-63
3.8539623e-63
-5.5243024e-61
3.068785e-61
-5.4570539e-59
1.9565993e-59
-4.9299127e-57
7.4610764e-58
-4.1711972e-55
-3.6751004e-56
-3.2632244e-53
-1.2854006e-53
-2.3136529e-51
-1.8742626e-51
-1.4357154e-49
-2.1474744e-49
-7.2505009e-48
-2.1694832e-47
-2.2385358e-46
-2.0546485e-45
1.4323888e-44
-1.9336094e-43
4.2872861e-42
-1.8110743e-41
7.4631614e-40
-1.9250745e-39
9.3724453e-38
-1.7838847e-37
2.5673222e-36
-4.159584e-36
1.0245798e-35
-1.8279731e-35
1.3504825e-35
-2.39702e-35
3.1161015e-36
-1.0039571e-35
1.8439057e-38
-7.0807637e-38
1.2991503e-38
-1.7746126e-38
1.2626699e-38
-8.1979019e-39
1.0524338e-37
-2.4135374e-38
8.620093e-37
-8.5814461e-38
7.8434906e-36
1.7212302e-37
6.8302498e-35
9.8775531e-36
4.8959614e-34
1.3660444e-34
2.7221163e-33
1.1905394e-33
1.0627054e-32
6.7855547e-33
2.7636188e-32
2.504735e-32
5.0952711e-32
6.2793427e-32
7.7905879e-32
1.2341854e-31
9.1334267e-32
2.2448476e-31
6.8986519e-32
2.1360076e-31
2.8008933e-32
1.3064683e-31
8.5115065e-33
5.1621233e-32
2.3783132e-33
1.3413978e-32
5.7223156e-34
1.0265562e-33
1.1165744e-34
-7.410715e-34
1.4811637e-35
-2.4824602e-34
1.2837256e-36
-3.3991996e-35
7.6397615e-38
-2.7195548e-36
2.6224341e-38
-1.1678213e-37
2.151513e-37
-3.3188454e-37
3.1044565e-35
-3.6532695e-35
9.8869811e-34
-1.3963068e-33
1.4795282e-33
-2.4821356e-33
8.5488804e-34
-1.6834581e-33
9.4940591e-35
-3.8987382e-34
3.1419661e-36
-2.5565452e-35
1.6091586e-37
-5.8431357e-37
3.3316292e-39
-2.0349051e-37
2.4610074e-41
-2.1828186e-39
9.8355486e-44
-8.5488813e-42
1.4452556e-46
-1.5572931e-44
1.3204332e-49
1.1366149e-49
9.2367724e-50
2.7305403e-50
6.2458305e-53
6.5604098e-52
6.7492821e-55
1.0744597e-53
8.0223592e-57
1.6463506e-55
8.8270914e-59
2.2998948e-57
9.1091723e-61
2.9455418e-59
8.7495574e-63
3.461317e-61
1.1969199e-64
3.7271555e-63
2.2601139e-65
7.8085705e-65
7.8519649e-66
2.3282598e-65
1.0641206e-66
4.2460004e-66
2.3964018e-67
8.4821612e-67
6.3659291e-68
2.424294e-67
9.7661451e-69
5.0550664e-68
1.1562681e-69
8.564425e-69
6.5020964e-71
8.8434205e-70
1.4149951e-72
4.4098459e-71
1.1554049e-74
9.1209477e-73
5.5440484e-77
8.775395e-75
2.6954893e-79
6.3178937e-77
1.4007164e-81
3.6084347e-79
1.6396664e-83
2.8898958e-81
2.2662273e-85
4.7407495e-83
1.0521364e-87
4.7626179e-85
3.2169442e-90
3.4796045e-87
4.0398828e-93
2.0262023e-89
2.3668275e-91
2.4594485e-90
1.6532159e-90
3.7685831e-88
1.8248516e-88
4.9649556e-86
2.9402892e-86
4.944196e-84
3.8607134e-84
4.5025609e-82
4.4787364e-82
3.6984762e-80
4.81745e-80
9.3733758e-79
1.6938729e-78
6.9888953e-78
1.7206202e-77
4.4766225e-76
1.5372535e-75
9.5891253e-74
5.8862693e-73
3.0699031e-72
7.2815005e-71
-1.2184265e-70
2.0648595e-69
-1.2687578e-68
3.5320496e-68
-3.9636399e-67
8.3054785e-67
-1.5046835e-66
6.2447145e-66
-5.3713766e-66
1.7131697e-65
-1.3859311e-64
1.8370231e-64
-1.882523e-62
1.9021118e-62
-2.3357942e-60
1.8049988e-60
-2.6184636e-58
1.4733773e-58
-2.6557098e-56
9.6739669e-57
-2.4503329e-54
4.0061777e-55
-2.1218972e-52
-1.2903049e-53
-1.7080388e-50
-5.692588e-51
-1.2568209e-48
-8.5559366e-49
-8.2543136e-47
-9.9077341e-47
-4.7188047e-45
-1.0018219e-44
-2.180046e-43
-9.4747884e-43
-3.6692421e-42
-8.879561e-41
1.0216491e-39
-8.4591964e-39
2.5917466e-37
-9.6224265e-37
3.4336218e-35
-8.485047e-35
8.3868733e-34
-1.6975231e-33
2.9621396e-33
-6.4841379e-33
3.8651715e-33
-7.8100612e-33
8.8088762e-34
-3.2219541e-33
4.4202107e-36
-3.5049707e-35
2.7172846e-36
-4.3844735e-36
2.7376231e-36
-2.0237237e-36
1.4349844e-35
-4.1013082e-36
8.2873527e-35
-9.8392668e-36
6.1762961e-34
1.1477944e-35
5.1187437e-33
8.0039005e-34
3.4832776e-32
1.0751454e-32
1.8622173e-31
9.1583027e-32
7.0643991e-31
5.1875593e-31
1.7824888e-30
1.9023787e-30
3.1212014e-30
4.7353495e-30
4.4403359e-30
9.1208133e-30
4.764679e-30
1.6606402e-29
3.0596021e-30
1.5889068e-29
8.7777589e-31
9.8049946e-30
8.8515845e-32
3.9744109e-30
-3.849593e-32
1.074213e-30
-1.7572174e-32
1.0263502e-31
-1.9952557e-33
-5.2333073e-32
7.0406264e-35
-1.9107677e-32
3.8653841e-35
-2.8233409e-33
4.0689681e-36
-2.511818e-34
2.1913559e-36
-1.1132373e-35
1.0217941e-34
-1.9883409e-34
1.2902678e-32
-2.0030515e-32
3.9800061e-31
-7.2925783e-31
5.9061218e-31
-1.2178578e-30
3.2919342e-31
-7.9527883e-31
3.9115454e-32
-1.857709e-31
1.0803532e-33
-1.2979767e-32
7.3896205e-35
-2.2924193e-34
1.6525998e-36
-9.0884605e-35
1.3960713e-38
-1.101844e-36
6.1862388e-41
-4.8783365e-39
1.653396e-43
-9.5946988e-42
7.1140713e-47
9.9108442e-47
4.6305508e-47
1.6563939e-47
3.7665065e-50
4.4791303e-49
3.2131552e-52
6.3774384e-51
3.7417601e-54
9.2038458e-53
3.9714605e-56
1.2284181e-54
3.9569053e-58
1.5145691e-56
3.6649536e-60
1.7179267e-58
4.1273877e-62
1.7852966e-60
5.343864e-63
2.8216112e-62
1.5404765e-63
6.2910736e-63
2.3793097e-64
1.055807e-63
6.475203e-65
2.4483069e-64
1.817332e-65
7.6436923e-65
2.9029886e-66
1.679626e-65
3.7363708e-67
3.0851328e-66
2.1176469e-68
3.3662268e-67
4.0178259e-70
1.5929412e-68
3.1675871e-72
3.1010189e-70
1.6291625e-74
3.1810005e-72
6.9658986e-77
2.0673257e-74
5.4519659e-79
1.2809817e-76
6.6535714e-81
1.6489677e-78
3.5976882e-83
1.5720037e-80
1.432801e-85
1.146433e-82
3.8535529e-88
7.5712559e-85
-3.5276516e-91
4.1527713e-87
4.4057786e-89
4.2536943e-88
1.152516e-88
7.050394e-86
2.1556333e-86
9.8360728e-84
4.1551977e-84
1.0593962e-81
6.3398259e-82
9.2394352e-80
7.4080883e-80
7.1784985e-78
7.5889279e-78
4.21103e-76
5.9453756e-76
1.0958314e-74
2.1419225e-74
1.5609431e-73
4.2997134e-73
3.1970946e-71
1.3649958e-70
1.9434846e-69
1.8786029e-68
-1.0399236e-68
6.3932349e-67
-3.1353523e-66
1.2471282e-65
-9.1206155e-65
2.4750344e-64
-3.4317367e-64
1.6405695e-63
-1.3376504e-63
4.4261947e-63
-5.1077229e-62
7.0785976e-62
-7.3331218e-60
7.7277151e-60
-9.4576207e-58
7.5892339e-58
-1.0929367e-55
6.40092e-56
-1.1400729e-53
4.405462e-54
-1.0704463e-51
2.0568405e-52
-9.4448435e-50
-1.7318323e-51
-7.7761684e-48
-2.0504359e-48
-5.8687255e-46
-3.3093879e-46
-4.0056547e-44
-3.9149036e-44
-2.4381042e-42
-3.9934992e-42
-1.3011795e-40
-3.7826562e-40
-4.9984136e-39
-3.5592442e-38
5.7330412e-38
-3.5118614e-36
7.0550795e-35
-4.1914848e-34
1.04623e-32
-3.4462811e-32
2.37627e-31
-6.0051552e-31
7.7675403e-31
-2.0575843e-30
1.0212238e-30
-2.3430091e-30
2.2505142e-31
-9.1612125e-31
1.1632862e-33
-1.9180354e-32
5.0055669e-34
-8.793435e-34
5.2146017e-34
-4.2386115e-34
1.9292598e-33
-6.7791932e-34
7.5576478e-33
-1.0993893e-33
4.1108141e-32
5.9842373e-34
3.1979606e-31
5.3478125e-32
2.069606e-30
6.9673888e-31
1.0506863e-29
5.7698746e-30
3.8459742e-29
3.1918093e-29
9.2883185e-29
1.1573947e-28
1.5199063e-28
2.8109897e-28
1.9432195e-28
5.2377878e-28
1.8381356e-28
9.5320796e-28
8.2611366e-29
9.2189089e-28
-3.3029023e-30
5.7451146e-28
-1.9978673e-29
2.4150952e-28
-1.2791086e-29
7.0466936e-29
-3.9102432e-30
8.0647621e-30
-6.1014994e-31
-2.7196656e-30
-4.8439017e-32
-1.1638838e-30
-1.6050391e-33
-1.9105706e-31
8.8192626e-35
-1.903646e-32
1.8964754e-34
-1.3850141e-33
3.3531556e-32
-9.626108e-32
4.2180978e-30
-8.8009933e-30
1.2871868e-28
-3.0471343e-28
1.9122287e-28
-4.7946544e-28
1.0497671e-28
-3.0406544e-28
1.3349742e-29
-7.1814983e-29
4.1948469e-31
-5.3211867e-30
2.7950468e-32
-1.0706341e-31
6.6264982e-34
-3.2505261e-32
6.390369e-36
-4.3961531e-34
3.1326546e-38
-2.1892137e-36
2.6263136e-41
-4.4859893e-39
4.293426e-44
6.1037459e-44
2.198144e-44
1.0069899e-44
1.3691193e-47
2.0516355e-46
1.4660765e-49
3.2013254e-48
1.5803981e-51
4.517027e-50
1.6053657e-53
5.8213296e-52
1.5303059e-55
6.9014798e-54
1.3523581e-57
7.5067168e-56
1.3024032e-59
7.4575267e-58
1.1054072e-60
9.3789461e-60
2.5793685e-61
1.4665613e-60
4.6648432e-62
2.2596619e-61
1.4893633e-62
6.0384843e-62
4.3515044e-63
2.0333597e-62
7.1201387e-64
4.6428577e-63
9.8133214e-65
9.1365459e-64
5.5044267e-66
1.0308493e-64
9.6339783e-68
4.7394623e-66
7.3783241e-70
9.0321192e-68
3.592173e-72
9.0762826e-70
1.7995607e-74
5.4851135e-72
1.7587944e-76
5.2905189e-74
1.1397283e-78
5.1561974e-76
4.3346523e-81
3.49295e-78
1.5031765e-83
2.1972116e-80
2.3681203e-86
1.3476052e-82
-1.9538229e-88
7.0602368e-85
6.9502666e-87
6.5170394e-86
-8.3990265e-87
1.1477616e-83
1.5921452e-84
1.6756446e-81
4.3707343e-82
1.8931879e-79
8.418817e-80
1.7630592e-77
1.1139948e-77
1.4505492e-75
1.2509532e-75
1.0450972e-73
1.21644e-73
3.6695289e-72
5.8772613e-72
5.7670537e-71
1.2799509e-70
7.1124697e-69
2.3090933e-68
6.515336e-67
3.9104433e-66
6.603286e-66
1.7484959e-64
-5.5622729e-64
3.7740754e-63
-1.6698058e-62
6.1918439e-62
-6.6494399e-62
3.6663166e-61
-2.9404874e-61
1.0112228e-60
-1.6291016e-59
2.3926714e-59
-2.4922512e-57
2.7726023e-57
-3.3619235e-55
2.8436314e-55
-4.0225034e-53
2.5001665e-53
-4.3142429e-51
1.8158426e-51
-4.1365932e-49
9.571217e-50
-3.6988111e-47
1.1914871e-48
-3.0886096e-45
-5.9613039e-46
-2.3763928e-43
-1.0898135e-43
-1.6636452e-41
-1.3387164e-41
-1.0504135e-39
-1.3884205e-39
-6.0047434e-38
-1.3245769e-37
-2.998884e-36
-1.2620968e-35
-1.3290905e-34
-1.3070374e-33
1.250715e-32
-1.5927353e-31
2.6011817e-30
-1.1993599e-29
5.8632633e-29
-1.862843e-28
1.9310654e-28
-6.0210216e-28
2.6302189e-28
-6.7901238e-28
5.5738548e-29
-2.4403159e-28
5.1506924e-31
-1.1296328e-29
8.1582066e-32
-2.0817244e-31
8.6617274e-32
-7.4444074e-32
2.4787704e-31
-1.0444735e-31
6.7498971e-31
-1.2352878e-31
2.3954521e-30
2.2841365e-32
1.6475472e-29
2.8717276e-30
1.026168e-28
3.7142555e-29
4.9410816e-28
2.9471985e-28
1.7427186e-27
1.6048735e-27
4.115833e-27
5.8539609e-27
6.427147e-27
1.4350969e-26
7.4152123e-27
2.6150135e-26
5.6788271e-27
4.7610753e-26
5.7008868e-28
4.6316999e-26
-2.165837e-27
2.9679516e-26
-2.0735945e-27
1.2900541e-26
-1.0700083e-27
3.893961e-27
-3.1615734e-28
5.135004e-28
-5.3366102e-29
-1.0763648e-28
-5.2800883e-30
-5.7699235e-29
-2.9040675e-31
-1.0663731e-29
-1.9699133e-32
-1.1517495e-30
1.0373554e-32
-3.6452033e-31
7.781551e-30
-3.7730997e-29
1.0812552e-27
-3.138748e-27
3.3413328e-26
-1.0240015e-25
5.0521722e-26
-1.5253006e-25
2.7795779e-26
-9.4630108e-26
3.7945648e-27
-2.2680124e-26
1.3555759e-28
-1.7800062e-27
8.8041156e-30
-4.0602186e-29
2.1612981e-31
-9.3406355e-30
2.3749816e-33
-1.3925834e-31
1.2969905e-35
-7.7904296e-34
2.2997129e-39
-1.6074148e-36
4.2162379e-40
1.0108412e-40
1.0387091e-42
7.6843006e-42
5.9137092e-45
1.1792044e-43
6.3423707e-47
1.6898577e-45
6.3583376e-49
2.1992931e-47
6.0590679e-51
2.6399795e-49
5.4253008e-53
2.9317917e-51
4.4907958e-55
2.994419e-53
3.7611267e-57
2.7874837e-55
2.0229256e-58
2.8857897e-57
3.7722944e-59
2.9842706e-58
8.171764e-60
4.2350381e-59
2.9912063e-60
1.3064034e-59
8.9483505e-61
4.6804497e-60
1.5092057e-61
1.1065569e-60
2.2581104e-62
2.3665962e-61
1.214174e-63
2.7280579e-62
1.92714e-65
1.2014254e-63
1.3903289e-67
2.2518112e-65
6.1068449e-70
1.9501082e-67
4.3575815e-72
1.4823162e-69
3.6221209e-74
1.6237501e-71
1.2595801e-76
1.1230467e-73
3.8364981e-79
6.1013346e-76
8.2669545e-82
3.5269894e-78
-2.6369455e-84
2.0277233e-80
-4.7986357e-86
1.024387e-82
9.4803883e-85
8.9633219e-84
-4.6976112e-84
1.6574414e-81
-2.8505667e-83
2.4979317e-79
2.9237616e-80
2.9478484e-77
8.9378474e-78
2.89253e-75
1.405044e-75
2.4311049e-73
1.6993712e-73
1.8074673e-71
1.7384156e-71
1.0116669e-69
1.3335364e-69
3.3557451e-68
6.127081e-68
1.16167e-66
3.0420464e-66
1.514533e-64
6.4896075e-64
4.120402e-63
4.3563503e-62
-6.1737075e-62
1.1342738e-60
-2.5497484e-60
1.4632225e-59
-1.1084563e-59
7.17203e-59
-5.6894993e-59
2.053372e-58
-4.4125655e-57
6.9358106e-57
-7.304547e-55
8.6601242e-55
-1.0405069e-52
9.3831024e-53
-1.29801e-50
8.6866824e-51
-1.4375428e-48
6.6974208e-49
-1.4174064e-46
3.9457887e-47
-1.2789527e-44
1.1276691e-45
-1.0798138e-42
-1.2858027e-43
-8.4219654e-41
-3.0385898e-41
-5.9987798e-39
-3.9599226e-39
-3.8844484e-37
-4.2079012e-37
-2.3157391e-35
-4.0850678e-35
-1.3547098e-33
-3.9831453e-33
-1.0126801e-31
-4.3398355e-31
-5.5734954e-31
-5.2830737e-29
4.9823666e-28
-3.5187148e-27
1.2518401e-26
-5.0272599e-26
4.6502295e-26
-1.6778403e-25
6.8043726e-26
-2.1130949e-25
1.5250914e-26
-9.2913715e-26
3.2626364e-28
-7.2462057e-27
1.2147505e-29
-7.751448e-29
1.2741238e-29
-1.0948722e-29
2.9171444e-29
-1.4329719e-29
5.9182645e-29
-1.3707981e-29
1.3090206e-28
1.5370443e-32
6.8896405e-28
1.2508584e-28
4.1903089e-27
1.5830139e-27
1.9554044e-26
1.2403226e-26
6.8863205e-26
6.8416395e-26
1.6944099e-25
2.6391518e-25
2.8123946e-25
7.1499704e-25
3.1775934e-25
1.4532412e-24
1.6469542e-25
2.5860267e-24
-1.0262592e-25
2.4936963e-24
-2.0173683e-25
1.6559273e-24
-1.4630885e-25
7.1893313e-25
-6.4591543e-26
2.0408728e-25
-1.8080191e-26
2.8453895e-26
-3.1327269e-27
-3.611158e-27
-3.4637068e-28
-2.4208404e-27
-1.9543568e-29
-4.7893858e-28
-5.7376979e-30
-5.1451464e-29
-1.18208e-29
-1.2427071e-28
1.0170704e-27
-1.2088992e-26
2.1352028e-25
-9.1031833e-25
6.9571599e-24
-2.8019489e-23
1.097996e-23
-4.0202798e-23
6.0774937e-24
-2.4314095e-23
9.0165714e-25
-5.8822668e-24
3.6517249e-26
-4.8776512e-25
2.2977127e-27
-1.2434785e-26
5.7218881e-29
-2.1805394e-27
7.1423616e-31
-3.5035733e-29
4.3919162e-33
-2.1910723e-31
1.0826177e-36
-4.3013196e-34
2.3229841e-37
7.7220258e-38
4.1455905e-40
4.1620525e-39
2.4549325e-42
5.8429771e-41
2.5107511e-44
7.9262612e-43
2.3609656e-46
9.7165032e-45
2.0952285e-48
1.0922167e-46
1.7356094e-50
1.1298879e-48
1.3174967e-52
1.0687465e-50
9.5898138e-55
9.1327577e-53
3.3044645e-56
7.9320047e-55
5.0123216e-57
5.3696048e-56
1.3065208e-57
7.0824996e-57
5.4291762e-58
2.5474093e-57
1.6520971e-58
9.7381098e-58
2.7653012e-59
2.3408982e-58
4.3319598e-60
5.2735858e-59
2.2378646e-61
6.1571564e-60
3.2078561e-63
2.6057937e-61
2.172787e-65
4.6792716e-63
1.1157029e-67
4.0313601e-65
9.0138009e-70
4.3246177e-67
3.6865169e-72
3.4503192e-69
9.1547773e-75
1.8269141e-71
1.6575082e-77
9.0138556e-74
-7.2082537e-80
4.8725456e-76
-1.106174e-81
2.6542706e-78
-8.5418007e-84
1.2947039e-80
1.1357716e-82
1.1194602e-81
-9.975207e-82
2.1482587e-79
-3.4627537e-80
3.311249e-77
-3.5111148e-79
4.0388187e-75
7.1918277e-76
4.1264695e-73
1.4801336e-73
3.6294988e-71
2.029351e-71
2.9194185e-69
2.3276087e-69
2.0947897e-67
2.3047334e-67
8.7559265e-66
1.3438179e-65
2.1668636e-64
4.6805311e-64
3.3136038e-62
1.0919413e-61
1.5565099e-60
1.0126707e-59
5.1072163e-60
2.6627838e-58
-3.0821351e-58
2.8059718e-57
-1.581393e-57
1.2344469e-56
-9.265807e-57
3.6087937e-56
-9.7094827e-55
1.6413893e-54
-1.7969566e-52
2.2854125e-52
-2.7573193e-50
2.671744e-50
-3.6265718e-48
2.6353658e-48
-4.1778036e-46
2.1692744e-46
-4.2569119e-44
1.4116843e-44
-3.8791014e-42
5.7999882e-43
-3.3061949e-40
-1.4749965e-41
-2.6157762e-38
-6.9740713e-39
-1.8873034e-36
-1.009471e-36
-1.2417349e-34
-1.1144948e-34
-7.6713177e-33
-1.1102521e-32
-5.0602639e-31
-1.1203885e-30
-4.8823549e-29
-1.276453e-28
-3.151063e-27
-1.5018741e-26
6.2213971e-26
-8.5815162e-25
2.2631709e-24
-1.1759163e-23
1.0885762e-23
-4.6818722e-23
1.7854588e-23
-8.2644993e-23
5.9109305e-24
-5.6192587e-23
1.9401787e-25
-9.7521203e-24