/*--------------------------------*- C++ -*----------------------------------*\
  =========                 |
  \\      /  F ield         | OpenFOAM: The Open Source CFD Toolbox
   \\    /   O peration     | Website:  https://openfoam.org
    \\  /    A nd           | Version:  9
     \\/     M anipulation  |
\*---------------------------------------------------------------------------*/
FoamFile
{
    format      ascii;
    class       volScalarField;
    location    "0.46";
    object      p_rgh;
}
// * * * * * * * * * * * * * * * * * * * * * * * * * * * * * * * * * * * * * //

dimensions      [1 -1 -2 0 0 0 0];

internalField   nonuniform List<scalar> 
10000
(
0
-0.0073403573
-0.017379336
-0.029615846
-0.046035516
-0.065387864
-0.088355458
-0.11490006
-0.14525961
-0.17943115
-0.21786947
-0.26071349
-0.30823274
-0.36084445
-0.41879246
-0.48249662
-0.55245043
-0.62899744
-0.71261683
-0.80388634
-0.90329485
-1.0113931
-1.1287328
-1.2553259
-1.3885632
-1.5268227
-1.6754125
-1.8364919
-2.0096304
-2.194208
-2.3896904
-2.5952294
-2.8097458
-3.0317782
-3.2594389
-3.4905672
-3.7236194
-3.9571719
-4.1864379
-4.4075127
-4.6214293
-4.8220197
-5.0003458
-5.1546155
-5.2817024
-5.3785608
-5.4426051
-5.471952
-5.4655725
-5.4233405
-5.3461598
-5.2359091
-5.095694
-4.9287828
-4.7396482
-4.5328963
-4.3154369
-4.0971322
-3.8778895
-3.6645928
-3.4638751
-3.2812341
-3.1177052
-2.9755078
-2.8564916
-2.7616503
-2.6912208
-2.6445883
-2.6206014
-2.6176458
-2.6388959
-2.6659977
-2.701511
-2.7489599
-2.8063105
-2.8712294
-2.9416862
-3.0158489
-3.0920666
-3.1689158
-3.2451427
-3.3197039
-3.3917913
-3.460752
-3.5260973
-3.5874769
-3.6446357
-3.6974374
-3.7458495
-3.7898268
-3.8293982
-3.8646226
-3.8955785
-3.9223974
-3.9451785
-3.9641004
-3.9792185
-3.9912067
-3.9976182
-4.0024573
0.0096860507
0.0021632837
-0.0078633973
-0.020091024
-0.036326748
-0.05553328
-0.078198064
-0.10452448
-0.13442464
-0.16811479
-0.20604095
-0.24828458
-0.29525725
-0.34715529
-0.40433156
-0.46728412
-0.53631038
-0.61180228
-0.69429545
-0.78417254
-0.88179055
-0.98759423
-1.1018688
-1.2242938
-1.3576908
-1.4986539
-1.6498731
-1.8124649
-1.9867547
-2.1726893
-2.3697642
-2.577296
-2.7943199
-3.0195477
-3.2513383
-3.4878947
-3.7273589
-3.9674813
-4.2050629
-4.4368514
-4.6587791
-4.86155
-5.0466035
-5.2081539
-5.3421896
-5.4449983
-5.5137199
-5.5461968
-5.5412005
-5.4984141
-5.4185932
-5.3035949
-5.1564042
-4.981158
-4.782217
-4.5652039
-4.341834
-4.109521
-3.8784961
-3.6555482
-3.4461958
-3.254914
-3.0845352
-2.9373973
-2.8151333
-2.7185149
-2.6475068
-2.6012948
-2.578373
-2.5770616
-2.5956365
-2.6263985
-2.6714044
-2.7257517
-2.7885061
-2.858047
-2.932493
-3.0100747
-3.0891767
-3.1683929
-3.2465294
-3.3225973
-3.3958451
-3.4656751
-3.5316278
-3.5934073
-3.650812
-3.7037399
-3.7521672
-3.7960732
-3.8355017
-3.8705477
-3.9013254
-3.9279628
-3.9505518
-3.9692908
-3.984264
-3.9961452
-4.0024158
-4.0070119
0.024804559
0.017127306
0.0071549038
-0.0049732258
-0.020986529
-0.039868156
-0.062229705
-0.08800558
-0.11753865
-0.15016397
-0.18740127
-0.22892236
-0.27496418
-0.32583072
-0.38197331
-0.44370758
-0.51138989
-0.5855228
-0.66651286
-0.75467481
-0.85042099
-0.95389287
-1.0647822
-1.1902313
-1.3229353
-1.4645359
-1.6164853
-1.7797272
-1.9548402
-2.1419131
-2.3407274
-2.5508226
-2.7714231
-3.0013749
-3.2392149
-3.4832104
-3.7312838
-3.9808227
-4.2285336
-4.4706925
-4.7027923
-4.9169052
-5.1127798
-5.2852278
-5.4292934
-5.5407529
-5.6162784
-5.6532179
-5.6499023
-5.6059019
-5.5217605
-5.3994416
-5.2421607
-5.0548391
-4.8434277
-4.616965
-4.3705223
-4.1203087
-3.8730484
-3.6351972
-3.4124599
-3.2096154
-3.0301476
-2.8766139
-2.7505062
-2.6524177
-2.5819411
-2.5379153
-2.5185612
-2.5214643
-2.5437101
-2.5810711
-2.6311634
-2.6927742
-2.7624396
-2.838167
-2.9180529
-3.0003329
-3.0834161
-3.165946
-3.2467831
-3.325017
-3.39993
-3.4710052
-3.537842
-3.6002375
-3.658025
-3.7111186
-3.7595417
-3.8033401
-3.8426113
-3.8774425
-3.9079973
-3.9343867
-3.95674
-3.9752638
-3.9900421
-4.0017593
-4.0078428
-4.0122805
0.038430063
0.030780811
0.021095559
0.0091949289
-0.0062565419
-0.024661892
-0.046263494
-0.071265655
-0.099778156
-0.13179068
-0.1678903
-0.20820977
-0.2529181
-0.30246309
-0.35715568
-0.4172816
-0.48331459
-0.5557192
-0.63489219
-0.72136518
-0.8157404
-0.91877031
-1.0317758
-1.1502373
-1.2800319
-1.4204199
-1.5719148
-1.7352915
-1.9110196
-2.0993546
-2.3003186
-2.5136703
-2.7387939
-2.9747095
-3.2201266
-3.473326
-3.7320728
-3.9935022
-4.2540554
-4.5095093
-4.7550683
-4.987785
-5.2007427
-5.3887442
-5.5468329
-5.6704835
-5.7553982
-5.7983205
-5.7970906
-5.7508296
-5.6601903
-5.5271597
-5.3551216
-5.1487943
-4.9146715
-4.6594231
-4.3939224
-4.1226135
-3.8544216
-3.5970221
-3.3569183
-3.1395229
-2.9488639
-2.7876853
-2.6574074
-2.558324
-2.4896991
-2.449849
-2.4364493
-2.446549
-2.47676
-2.5235344
-2.583952
-2.654231
-2.7324692
-2.8162098
-2.9032821
-2.9918339
-3.0802788
-3.1672786
-3.2517535
-3.33288
-3.4100343
-3.4827659
-3.5507875
-3.6139321
-3.6721346
-3.7253782
-3.7737445
-3.8173347
-3.8563247
-3.8907948
-3.9209467
-3.9469718
-3.9689456
-3.9871294
-4.0015752
-4.0130582
-4.0188442
-4.0230957
0.056272446
0.048616931
0.039149548
0.027543588
0.012506949
-0.0052282426
-0.026111397
-0.050229789
-0.07766335
-0.10868678
-0.14351512
-0.1823228
-0.22551225
-0.27336007
-0.3261202
-0.38423174
-0.44815087
-0.51825849
-0.59503104
-0.6790519
-0.7708724
-0.87107715
-0.98017569
-1.0978273
-1.2258072
-1.364741
-1.515369
-1.6784466
-1.854586
-2.0442308
-2.2476655
-2.46487
-2.6954561
-2.9387101
-3.1935401
-3.4582897
-3.7306879
-4.0077984
-4.2859805
-4.5609454
-4.8279275
-5.0815085
-5.315466
-5.5239607
-5.7009226
-5.8407445
-5.9383081
-5.9894719
-5.9913908
-5.942664
-5.8436178
-5.696298
-5.5046506
-5.2745472
-5.01353
-4.7274074
-4.4284027
-4.1247681
-3.8268744
-3.5428225
-3.2797365
-3.0436049
-2.8389251
-2.6685251
-2.5337059
-2.4343581
-2.3691528
-2.335774
-2.331144
-2.3516069
-2.3932433
-2.4521199
-2.5245751
-2.6070194
-2.6965654
-2.7905851
-2.8867997
-2.9832918
-3.0784722
-3.1710605
-3.2600661
-3.3447556
-3.4246197
-3.4993241
-3.5687089
-3.6326881
-3.6913129
-3.7446343
-3.7928306
-3.8360676
-3.8745722
-3.9085191
-3.9380611
-3.9634947
-3.9849449
-4.0026085
-4.0166117
-4.027822
-4.0332796
-4.0373315
0.077387702
0.069693142
0.060500465
0.049136242
0.034737832
0.017640475
-0.0024129108
-0.025453156
-0.051758732
-0.081496037
-0.11480675
-0.1518956
-0.19324602
-0.23899214
-0.28950469
-0.34523517
-0.40654232
-0.47386638
-0.54774671
-0.6287085
-0.71728752
-0.81414022
-0.91991869
-1.0350729
-1.1605849
-1.2974035
-1.4464648
-1.6086371
-1.7847371
-1.97549
-2.1814339
-2.4028201
-2.6395912
-2.8913547
-3.1572597
-3.4357872
-3.7247271
-4.0211382
-4.321244
-4.620438
-4.91332
-5.1937706
-5.4551188
-5.6901479
-5.8916803
-6.0527741
-6.1671235
-6.2294174
-6.2358134
-6.184207
-6.0745465
-5.9089037
-5.6915764
-5.4292549
-5.1309421
-4.8068653
-4.4674098
-4.1215467
-3.7860003
-3.4680915
-3.1761403
-2.9169138
-2.6953832
-2.5144753
-2.3751928
-2.276889
-2.2174027
-2.1935028
-2.2011603
-2.2358285
-2.2927997
-2.3674515
-2.4554444
-2.5528534
-2.6562788
-2.7628339
-2.8700998
-2.9760959
-3.0792613
-3.1784091
-3.2726662
-3.3614353
-3.4443422
-3.5212202
-3.5920404
-3.6568395
-3.7157736
-3.7690211
-3.8168401
-3.8595391
-3.8973313
-3.9305103
-3.959331
-3.9839298
-4.0046612
-4.0216696
-4.0350892
-4.0459409
-4.0511019
-4.054851
0.10090001
0.09326561
0.084258039
0.073425302
0.059646405
0.043325834
0.024329353
0.0024199351
-0.02254931
-0.050678224
-0.082250005
-0.11744892
-0.15653709
-0.19986322
-0.24780707
-0.30070069
-0.35893457
-0.42301688
-0.49344918
-0.57074217
-0.6555302
-0.74853366
-0.85044159
-0.96197533
-1.0841282
-1.2179756
-1.3645823
-1.5250278
-1.7004096
-1.8917633
-2.0999469
-2.3255468
-2.5689499
-2.8301579
-3.1086154
-3.4030734
-3.7115307
-4.0310599
-4.3577046
-4.6865126
-5.0114881
-5.3257008
-5.6214153
-5.8901478
-6.1231482
-6.3118593
-6.4482994
-6.5255622
-6.5384776
-6.4839864
-6.3616143
-6.1733821
-5.9235673
-5.6198782
-5.2756152
-4.9026553
-4.513827
-4.109053
-3.7285022
-3.3683217
-3.0407266
-2.7534867
-2.5121584
-2.3196744
-2.1765908
-2.0813643
-2.0307497
-2.0202997
-2.0446993
-2.0982321
-2.1751208
-2.2698229
-2.3772644
-2.4929842
-2.6131687
-2.7346617
-2.854923
-2.9719703
-3.0842966
-3.1908625
-3.2909419
-3.3841546
-3.4703014
-3.5494016
-3.6215751
-3.6870246
-3.7460377
-3.7989864
-3.8461802
-3.8880343
-3.9248808
-3.957018
-3.9848164
-4.0084569
-4.0282313
-4.0443945
-4.0570858
-4.0674197
-4.0723366
-4.0757154
0.12684988
0.11914527
0.1105938
0.10022573
0.087157712
0.071808155
0.05388262
0.03326807
0.0098950142
-0.016477584
-0.046090423
-0.079081291
-0.11559081
-0.15623766
-0.20119612
-0.25081488
-0.30555379
-0.36588398
-0.43227353
-0.50530534
-0.58568067
-0.6741111
-0.77135025
-0.87832204
-0.9961234
-1.1259288
-1.2689853
-1.4266502
-1.60034
-1.7914141
-2.001221
-2.2307199
-2.4808385
-2.7520621
-3.0442976
-3.3567233
-3.6876471
-4.034226
-4.3923911
-4.7567804
-5.1207547
-5.4764666
-5.8150319
-6.1261679
-6.3992484
-6.6236127
-6.7890237
-6.8864451
-6.9088268
-6.8518944
-6.7145956
-6.499145
-6.2039109
-5.8524909
-5.4503158
-5.0131658
-4.5568457
-4.0966098
-3.6533812
-3.2377168
-2.8663067
-2.5454773
-2.2813614
-2.076718
-1.9313006
-1.8422937
-1.8049525
-1.8131529
-1.859919
-1.9379838
-2.0402005
-2.159933
-2.2912551
-2.4290542
-2.5691222
-2.7080658
-2.8432826
-2.9728433
-3.0953843
-3.2100676
-3.3164056
-3.4142376
-3.5036164
-3.5847648
-3.6580288
-3.7238252
-3.7826113
-3.8348696
-3.8810873
-3.9217611
-3.9572773
-3.988104
-4.0145407
-4.0369255
-4.0555761
-4.0707085
-4.0825313
-4.0920564
-4.0967847
-4.0997657
0.15494253
0.14738882
0.13919211
0.12933443
0.11716229
0.10277019
0.086052722
0.066963613
0.04529439
0.02084665
-0.0064997657
-0.036963627
-0.070803196
-0.10835121
-0.14991195
-0.19587215
-0.24665944
-0.30268489
-0.36446542
-0.43264079
-0.50788368
-0.59091283
-0.68260197
-0.78399658
-0.896281
-1.0207629
-1.1589417
-1.3124886
-1.4831548
-1.6727222
-1.8829992
-2.1156916
-2.3721111
-2.6534349
-2.9602713
-3.2924421
-3.6486577
-4.0263193
-4.4213389
-4.8279691
-5.2388165
-5.6449042
-6.0365577
-6.4008019
-6.724648
-6.9947658
-7.1980462
-7.3226424
-7.3589837
-7.3006665
-7.1456278
-6.8930933
-6.5524527
-6.1366352
-5.6606162
-5.1431544
-4.6044597
-4.065694
-3.548483
-3.0704501
-2.643602
-2.2827393
-1.9929091
-1.7763031
-1.6312701
-1.5531407
-1.5350798
-1.56873
-1.6449574
-1.7545123
-1.888582
-2.039188
-2.1993965
-2.3634248
-2.526699
-2.68566
-2.8377274
-2.9811201
-3.114732
-3.2379873
-3.3507329
-3.4530986
-3.5454487
-3.6282762
-3.7022126
-3.7678507
-3.8259158
-3.8770224
-3.9217623
-3.9608095
-3.9946177
-4.0236725
-4.0484478
-4.0692763
-4.0865324
-4.1004458
-4.1113162
-4.1197685
-4.124052
-4.1267874
0.18510705
0.17757047
0.16982771
0.16064553
0.14929313
0.13598072
0.12067193
0.10318139
0.083345368
0.061081008
0.036206774
0.0084540746
-0.022376349
-0.056466275
-0.094297268
-0.1362067
-0.18254614
-0.23374925
-0.29037316
-0.35302497
-0.42234489
-0.49910908
-0.58427851
-0.67894494
-0.78436942
-0.90205553
-1.0337766
-1.1815136
-1.3473998
-1.5337254
-1.7428575
-1.9774753
-2.2391071
-2.5299867
-2.8516554
-3.2048486
-3.5889465
-4.0017859
-4.439391
-4.8957052
-5.3624565
-5.8286641
-6.2862632
-6.7166292
-7.1045808
-7.4334124
-7.6862869
-7.8475816
-7.9042681
-7.8470229
-7.6714682
-7.3785267
-6.9773503
-6.4823919
-5.9136026
-5.2953833
-4.6533917
-4.0152343
-3.4066479
-2.8496271
-2.3609886
-1.9520114
-1.6339874
-1.406885
-1.2667488
-1.2062182
-1.2155622
-1.2835333
-1.3982181
-1.5478708
-1.7215988
-1.909855
-2.1045749
-2.2993438
-2.4892684
-2.6707681
-2.8414202
-2.9997296
-3.1449494
-3.2769049
-3.3958534
-3.5023541
-3.5971538
-3.6810427
-3.7549668
-3.819805
-3.8764485
-3.9257354
-3.9684616
-4.0052793
-4.0368672
-4.0637303
-4.0864194
-4.1053472
-4.1209057
-4.1333473
-4.1430315
-4.1503024
-4.1541671
-4.1566147
0.21692894
0.20952048
0.20233969
0.19375626
0.1833308
0.17126703
0.15740208
0.14160873
0.12383354
0.10392173
0.08166394
0.056890192
0.029413186
-0.00097279859
-0.034728319
-0.072158426
-0.11359304
-0.15949676
-0.21038653
-0.26680651
-0.32941502
-0.3990294
-0.47660604
-0.5632533
-0.66034495
-0.76957953
-0.89296018
-1.0327769
-1.191642
-1.3724791
-1.5783984
-1.8125389
-2.0777072
-2.3767411
-2.7125895
-3.0873411
-3.5015035
-3.953549
-4.4397989
-4.9541162
-5.4878187
-6.0299743
-6.5643748
-7.076123
-7.5448801
-7.9491922
-8.2671965
-8.4782012
-8.5644026
-8.5125751
-8.3155575
-7.9739245
-7.4973261
-6.9035475
-6.218242
-5.4728264
-4.7009932
-3.9380791
-3.2163136
-2.5632881
-2.0004214
-1.5354479
-1.1882957
-0.95430688
-0.82619128
-0.79274237
-0.84039795
-0.95422805
-1.1187588
-1.3190713
-1.5417666
-1.7754592
-2.0108912
-2.2411634
-2.4612086
-2.6675978
-2.858246
-3.0321384
-3.189069
-3.3294198
-3.4539982
-3.5638571
-3.6601707
-3.7442177
-3.8171835
-3.8803064
-3.9347071
-3.9813289
-4.0212411
-4.0552313
-4.0839982
-4.1081587
-4.1283294
-4.1449519
-4.1584636
-4.1691594
-4.1774347
-4.1834276
-4.186695
-4.1888873
0.25009554
0.24307239
0.23629231
0.22842458
0.2190892
0.20828391
0.19594359
0.18204038
0.16644864
0.14900057
0.12958389
0.10806288
0.084187993
0.057706956
0.028414751
-0.0041481333
-0.040282047
-0.080406329
-0.12496237
-0.17447963
-0.22962521
-0.2911702
-0.36001145
-0.43729021
-0.52447141
-0.62337437
-0.73617052
-0.8654999
-1.0145414
-1.1869583
-1.3866749
-1.6176081
-1.883639
-2.1880873
-2.5362172
-2.9320556
-3.3776594
-3.8725706
-4.4136168
-4.994675
-5.6063819
-6.2361591
-6.8672658
-7.4806716
-8.0517454
-8.5533585
-8.9570982
-9.2355075
-9.3643617
-9.3249867
-9.1061013
-8.706466
-8.136579
-7.4185155
-6.5856282
-5.6796108
-4.7434501
-3.8241581
-2.9620913
-2.1910763
-1.5373156
-1.0158534
-0.63594128
-0.40160865
-0.29628618
-0.30304898
-0.40349127
-0.57807555
-0.8067855
-1.0706597
-1.3532761
-1.6412865
-1.9240739
-2.1946887
-2.4481112
-2.6813203
-2.892855
-3.0824136
-3.2505829
-3.3984821
-3.5275612
-3.639558
-3.7360952
-3.8189983
-3.8897817
-3.9499914
-4.0010229
-4.0440947
-4.0803127
-4.1106474
-4.1359186
-4.1568017
-4.1739291
-4.1878196
-4.1989318
-4.2075924
-4.2141767
-4.218803
-4.2213134
-4.2231437
0.2843816
0.27782674
0.27161074
0.26453307
0.25622832
0.24674171
0.2360868
0.22415501
0.21081941
0.19601731
0.17966124
0.16155928
0.14147608
0.11921434
0.094685025
0.067298101
0.036850179
0.0029898801
-0.034690862
-0.076709331
-0.12366049
-0.1762121
-0.23520225
-0.30176538
-0.37735959
-0.46379606
-0.56341032
-0.67922454
-0.81501132
-0.97528442
-1.1650598
-1.3894023
-1.652619
-1.9579608
-2.3146473
-2.7294566
-3.2067314
-3.7474534
-4.3494005
-5.0066767
-5.7092863
-6.4432924
-7.1913635
-7.9308301
-8.6315877
-9.2588934
-9.7756392
-10.145427
-10.335604
-10.319861
-10.080528
-9.6127842
-8.9274473
-8.0524452
-7.0310632
-5.9183061
-4.7748002
-3.6590699
-2.6231775
-1.7091356
-0.94859214
-0.36272327
0.051018552
0.2715471
0.33785753
0.2729094
0.10076777
-0.15365414
-0.46448024
-0.80749658
-1.1626202
-1.5145445
-1.8517578
-2.1674191
-2.4569827
-2.7182432
-2.9507592
-3.1553065
-3.3334397
-3.4873075
-3.6191446
-3.7314701
-3.8264951
-3.9065448
-3.9735637
-4.0294545
-4.0758257
-4.1141321
-4.1456799
-4.1715021
-4.1924916
-4.2094332
-4.222911
-4.2336435
-4.2419753
-4.2482791
-4.2528944
-4.2559369
-4.2576375
-4.2589054
0.31944307
0.31368299
0.30803625
0.30168012
0.2944677
0.28642622
0.27748795
0.26756042
0.25662469
0.2446388
0.23145824
0.21691519
0.20086313
0.1831168
0.16348122
0.14161356
0.11723763
0.090062946
0.059700709
0.025713311
-0.012360857
-0.055082691
-0.103209
-0.1577468
-0.22000422
-0.29168304
-0.37525549
-0.47403488
-0.59237005
-0.7357866
-0.91091669
-1.124722
-1.3821194
-1.6800528
-2.0385118
-2.4680087
-2.9754975
-3.5638591
-4.2325017
-4.9761216
-5.7842381
-6.6421532
-7.5295969
-8.4250556
-9.2905781
-10.080739
-10.746521
-11.239973
-11.517863
-11.543358
-11.288644
-10.741875
-9.9136568
-8.8395446
-7.576033
-6.1966556
-4.786948
-3.4229872
-2.1718845
-1.0849619
-0.19792947
0.46625904
0.89817261
1.0851863
1.0912889
0.94472026
0.6765856
0.31801948
-0.097191255
-0.53785014
-0.97971693
-1.4053298
-1.8041713
-2.1689631
-2.4964694
-2.7859422
-3.038402
-3.2561266
-3.4419984
-3.5993789
-3.7314905
-3.8416526
-3.9328405
-4.0078894
-4.0692311
-4.1190493
-4.1593001
-4.1915441
-4.217261
-4.2375598
-4.2534128
-4.2656995
-4.2750341
-4.2820453
-4.2871914
-4.2907858
-4.2931907
-4.294447
-4.2951087
-4.2956745
0.35530942
0.35034633
0.34517689
0.33961779
0.33358186
0.32696294
0.31973516
0.31192032
0.30350662
0.29439507
0.28448126
0.27367809
0.26185496
0.24879307
0.23428445
0.2182441
0.20025186
0.18007402
0.1573933
0.13189813
0.10325344
0.071017737
0.034621402
-0.0066677456
-0.05387744
-0.10859866
-0.17307742
-0.25079338
-0.34656723
-0.46712522
-0.62142076
-0.82017481
-1.0724204
-1.3487808
-1.6984026
-2.1340522
-2.6677953
-3.3037365
-4.0440606
-4.884747
-5.8145579
-6.8165986
-7.8697421
-8.9584902
-10.034524
-11.036773
-11.898733
-12.558345
-12.961126
-13.05605
-12.79748
-12.160602
-11.155112
-9.8263958
-8.2492305
-6.5236795
-4.7664412
-3.0867428
-1.5696994
-0.27683776
0.75632225
1.5058796
1.9567065
2.0610196
1.9769875
1.7185112
1.324954
0.831776
0.28460238
-0.27511674
-0.8193448
-1.3290287
-1.7950299
-2.2115067
-2.5771076
-2.8932578
-3.1630933
-3.3907987
-3.5809692
-3.7382976
-3.8672619
-3.9720859
-4.0565399
-4.1239813
-4.1773051
-4.2190842
-4.2514609
-4.276159
-4.2947804
-4.3084954
-4.318356
-4.325247
-4.329794
-4.3325773
-4.3341009
-4.3346466
-4.3345437
-4.3338044
-4.3332217
-4.3328978
0.3918087
0.38739175
0.38283293
0.37811086
0.37316171
0.36793596
0.36249571
0.35685976
0.35097212
0.34478483
0.33827291
0.33135751
0.32388883
0.31568022
0.306567
0.29653221
0.28516418
0.27222683
0.2575197
0.24084254
0.22197104
0.20065478
0.17663134
0.14953221
0.11870198
0.082940569
0.040666398
-0.011564454
-0.078772073
-0.16873755
-0.29320433
-0.46955321
-0.72745126
-0.96700271
-1.2982513
-1.7151244
-2.2644748
-2.9434881
-3.7594732
-4.7088532
-5.778326
-6.9480225
-8.1938869
-9.5212777
-10.869227
-12.150334
-13.268719
-14.147634
-14.72719
-14.937744
-14.699266
-13.961245
-12.734267
-11.078368
-9.0906129
-6.9042138
-4.6888974
-2.6049049
-0.76104818
0.77029778
1.9654769
2.8065706
3.2709919
3.2344439
3.0167784
2.5987947
2.041951
1.3755149
0.66291956
-0.039728098
-0.70063562
-1.3040258
-1.8413517
-2.3097911
-2.7112582
-3.0503143
-3.3329255
-3.5656229
-3.755092
-3.9076349
-4.0290495
-4.1245455
-4.1986872
-4.2554662
-4.298122
-4.3295555
-4.352105
-4.367656
-4.3778345
-4.3838885
-4.38682
-4.3875409
-4.3866762
-4.3847276
-4.3821645
-4.3793163
-4.3764206
-4.3734672
-4.3714343
-4.3699929
0.42864998
0.4246668
0.42075429
0.41673241
0.41281777
0.40902179
0.40538246
0.40188182
0.39852606
0.39535009
0.39233673
0.38938924
0.38638738
0.38321526
0.37972922
0.37578323
0.37121782
0.36571528
0.35916148
0.35143478
0.34245137
0.33222298
0.32084453
0.30839035
0.2948165
0.27982788
0.26213029
0.23979213
0.20798221
0.15803383
0.075919464
-0.066091192
-0.36816032
-0.54223989
-0.81090084
-1.1962666
-1.7515311
-2.4543869
-3.3459009
-4.4172686
-5.6490733
-7.0149122
-8.5067894
-10.096612
-11.80196
-13.457928
-14.905409
-16.060069
-16.887605
-17.296785
-17.12739
-16.273531
-14.765109
-12.68965
-10.160809
-7.3497789
-4.5128526
-1.9035064
0.33863821
2.1299107
3.4909055
4.4299851
4.8599347
4.6401613
4.2241208
3.582806
2.8207647
1.9247491
1.0067938
0.13718444
-0.65291651
-1.3556631
-1.9645079
-2.4814142
-2.913131
-3.2683133
-3.5564733
-3.7870737
-3.9691207
-4.1106928
-4.2190498
-4.3003937
-4.3600764
-4.4025798
-4.4315984
-4.4501776
-4.4608271
-4.4654933
-4.4658086
-4.4630514
-4.4581458
-4.4519347
-4.4450122
-4.4378483
-4.4308024
-4.4242144
-4.4182452
-4.4128845
-4.4091631
-4.4063711
0.46568382
0.46194574
0.45852211
0.45514494
0.45227197
0.44987619
0.44792309
0.44650954
0.44571829
0.44558668
0.44609191
0.44717676
0.44877588
0.45078097
0.45304234
0.45537453
0.45763802
0.45971391
0.46135599
0.46252597
0.46331464
0.46398557
0.46497478
0.46688691
0.47049794
0.47663429
0.48564162
0.49692518
0.50798522
0.51086607
0.49007901
0.39925272
0.061305749
0.4734706
0.98693841
-0.37094673
-1.0891253
-1.7818247
-2.7569291
-3.9681139
-5.3912214
-6.9673708
-8.6986168
-10.632002
-12.845154
-15.033096
-16.895834
-18.348093
-19.511001
-20.284029
-20.276085
-19.266813
-17.38924
-14.802828
-11.573475
-7.9190461
-4.1734624
-0.85622294
1.8626215
3.8953798
5.3755908
6.494258
7.1279679
6.8090259
6.0085675
4.7742692
3.6355248
2.4189845
1.2582858
0.21110111
-0.71448617
-1.5152758
-2.1898402
-2.7464452
-3.1982449
-3.5590221
-3.8424729
-4.0613723
-4.227305
-4.3502501
-4.4388936
-4.5004208
-4.540884
-4.5651775
-4.5772651
-4.5803156
-4.5768367
-4.5688681
-4.557909
-4.5451731
-4.5315247
-4.517666
-4.5041126
-4.4912572
-4.4793692
-4.4687283
-4.459423
-4.4514763
-4.4458206
-4.4414066
0.50266669
0.49883795
0.49584646
0.49310579
0.49116605
0.49000304
0.48965674
0.49029587
0.49203051
0.49489993
0.4989307
0.50411868
0.51040817
0.51767307
0.52576926
0.53451578
0.54376487
0.55342062
0.56316849
0.57303538
0.58322354
0.59416949
0.60661618
0.62175575
0.64130051
0.66747593
0.70273239
0.74847589
0.80955177
0.88408148
0.95988808
0.97230117
1.2863409
4.0750334
4.0262078
2.7108294
-0.015422579
-0.80969216
-1.9311513
-3.3066732
-4.9836494
-6.8067684
-8.751992
-10.982092
-13.959866
-16.961991
-19.33532
-21.007444
-22.650709
-24.162085
-24.513465
-23.201549
-20.770807
-17.541149
-13.442056
-8.6662398
-3.4608211
0.78672587
4.0421317
6.2012324
7.5881459
9.0963411
9.1815529
8.8170797
7.7291152
6.3225062
4.6711742
2.7308424
1.3181102
0.11308759
-0.93182052
-1.8193288
-2.5458756
-3.1266206
-3.582796
-3.9341433
-4.1990342
-4.3939122
-4.5329999
-4.6281979
-4.6893908
-4.7247225
-4.7407075
-4.7425088
-4.7341299
-4.7188128
-4.6990792
-4.6766875
-4.6530739
-4.6292698
-4.6060271
-4.5838636
-4.5631787
-4.5442266
-4.5271962
-4.5122396
-4.4993743
-4.4886596
-4.4808887
-4.4743825
0.53935117
0.53510799
0.53248929
0.53025174
0.52905306
0.52898374
0.53012208
0.53274027
0.53686997
0.54265636
0.55020799
0.55952802
0.57053844
0.58314068
0.59720233
0.61251344
0.62884359
0.64603244
0.6637808
0.68203167
0.70099236
0.72117672
0.74356938
0.76985126
0.80256748
0.84547727
0.90392626
0.98373896
1.0867645
1.2256497
1.4044087
1.5446878
2.2352615
4.2928387
4.5856569
4.2280831
1.4601126
0.34880568
-0.8242245
-2.3694863
-4.4569602
-6.5235743
-8.5650167
-10.820404
-15.455612
-20.295344
-22.928307
-23.549662
-25.643581
-29.19489
-30.345929
-27.949876
-24.702658
-21.537679
-16.763264
-10.013171
-1.9387733
3.5132517
7.2469857
9.2886374
10.24198
11.737663
11.295734
9.9707854
8.4174531
6.921085
5.6589522
3.0296605
1.1070427
-0.22601474
-1.3542474
-2.3052539
-3.061541
-3.643592
-4.0822716
-4.4042546
-4.6329968
-4.7887195
-4.8882264
-4.9451087
-4.9702766
-4.97238
-4.958251
-4.9330202
-4.9005741
-4.8642106
-4.825995
-4.7875173
-4.7499613
-4.7141387
-4.6805757
-4.6495813
-4.6213502
-4.595987
-4.5735618
-4.554097
-4.5375102
-4.5238748
-4.5138324
-4.5048411
0.57557206
0.57053277
0.56808676
0.56616018
0.56553218
0.56641243
0.56892849
0.57319214
0.57956044
0.58820283
0.59920615
0.61259745
0.62837077
0.64642589
0.66660191
0.68861392
0.71210826
0.73689788
0.76253345
0.78878533
0.81575517
0.84389065
0.87422818
0.9086126
0.94996693
1.0030433
1.0751536
1.1720682
1.2986781
1.4898669
1.7756128
2.0457409
2.253129
4.6802141
5.4598192
5.4790084
2.8635968
1.8396823
0.73607074
-1.0649718
-3.8599838
-6.4997651
-8.441801
-9.9178909
-14.147284
-22.930753
-28.245651
-27.762398
-30.418958
-37.431175
-40.371918
-34.745268
-31.424392
-27.701328
-20.12059
-13.558569
0.019445479
8.0482156
11.735486
13.555787
14.090226
15.612581
13.579316
12.112897
10.097744
7.6364845
5.6044883
3.4997308
0.68808911
-0.80430876
-2.0229444
-3.0090264
-3.7643784
-4.3174334
-4.7101396
-4.9776109
-5.1488293
-5.2476539
-5.2930982
-5.2999516
-5.2797487
-5.2412648
-5.1912448
-5.1343274
-5.0745616
-5.01441
-4.9556999
-4.8996485
-4.8470774
-4.7984735
-4.7540192
-4.7137922
-4.6777293
-4.6457541
-4.6177818
-4.5936828
-4.5732471
-4.5566034
-4.544224
-4.5325298
0.61098539
0.60476621
0.60226486
0.60046756
0.60016544
0.60168765
0.60518518
0.61093905
0.61939487
0.6307152
0.64503388
0.66247053
0.68305599
0.70668861
0.73314422
0.76204405
0.79292968
0.82535033
0.85890797
0.89285665
0.92713628
0.96193665
0.99801826
1.0369558
1.0814604
1.1365058
1.21021
1.3064201
1.4338885
1.6550118
1.985523
2.2804232
2.6279405
4.0258684
7.0906899
6.6017865
4.0562843
3.6329847
2.6094781
1.1694865
-1.8533108
-7.7236089
-9.0434347
-13.280483
-27.123664
-37.331057
-38.891453
-24.663408
-26.817434
-39.526638
-45.783273
-36.859953
-32.879754
-39.003724
-42.577696
-25.559519
5.6317915
15.251379
18.158105
19.357388
19.46991
20.189108
16.604215
14.045708
11.090675
7.986628
4.9955089
2.4588116
0.22594858
-1.6019711
-2.9551353
-3.9622464
-4.6794036
-5.1648545
-5.4762362
-5.6588432
-5.7475802
-5.7695411
-5.7451022
-5.6895732
-5.6143807
-5.5278915
-5.4361201
-5.3435494
-5.2531244
-5.1668224
-5.0859321
-5.0111343
-4.9427397
-4.8808017
-4.8251102
-4.7754199
-4.7314028
-4.6927443
-4.6591844
-4.6304092
-4.6060612
-4.5863707
-4.5716147
-4.5568787
0.64516903
0.6374159
0.63470024
0.63274871
0.63241721
0.63421659
0.63840589
0.64530209
0.6555527
0.66927141
0.68673721
0.70815669
0.73359259
0.76292717
0.79586831
0.83195309
0.87055807
0.91095222
0.95253574
0.99414737
1.0353387
1.0758015
1.1156943
1.1558912
1.1982239
1.246678
1.3087704
1.3866332
1.4872225
1.6824784
2.0057065
2.4424094
3.0958838
4.0005811
5.1533036
6.1927942
6.5668182
6.1657601
6.527119
6.4407922
6.7923809
-1.1804237
-13.23875
9.8693931
24.195294
-32.212855
-34.043555
458.96864
2076.1667
3994.4281
4326.3023
2519.3395
549.46336
-53.511388
-45.404957
-10.185779
42.417513
42.313133
26.340194
26.518082
25.466256
23.759612
19.604493
16.053964
12.204084
8.6724569
5.0266806
1.7379691
-0.81584608
-2.8088719
-4.2371997
-5.213711
-5.8350436
-6.1996469
-6.3852502
-6.4473026
-6.4257018
-6.349339
-6.2387228
-6.1083883
-5.9688194
-5.8272197
-5.6886565
-5.5565237
-5.4327555
-5.3184509
-5.2141276
-5.1197938
-5.0351125
-4.9595759
-4.8925535
-4.8333942
-4.7814823
-4.7362266
-4.6971652
-4.6637771
-4.6356195
-4.6128045
-4.5956481
-4.5777016
0.67773972
0.66817517
0.66496566
0.66250554
0.66174339
0.66345799
0.66798037
0.6757827
0.68714047
0.70285997
0.72322328
0.74849452
0.77876207
0.8139233
0.85365137
0.8973697
0.94422422
0.99318311
1.0431715
1.0928943
1.1410846
1.1868217
1.2294185
1.2686903
1.3049837
1.3400494
1.3790364
1.4228453
1.4661255
1.5620819
1.8083546
2.3030117
3.2110761
4.6228734
6.4773103
8.1680145
8.9829341
8.4236989
8.4021579
10.841931
13.725924
-2.0798969
-67.609814
85.014177
317.44173
2131.995
5401.2765
6936.0675
7353.7674
7964.3588
8276.8687
7924.6226
6859.772
4742.4977
2366.8456
602.71725
86.267903
42.221704
32.175174
36.585731
33.385888
27.892074
21.843478
17.561383
13.391971
9.8142147
5.3468452
0.96508509
-2.3172622
-4.5514564
-5.9774551
-6.8214689
-7.2580185
-7.4293914
-7.4342196
-7.3352528
-7.1737716
-6.977508
-6.7648715
-6.5481407
-6.3356645
-6.132884
-5.9432938
-5.7685651
-5.6094467
-5.4659284
-5.3375037
-5.223314
-5.1222774
-5.0332528
-4.9551101
-4.8867432
-4.827184
-4.7755699
-4.7312073
-4.6933719
-4.6614368
-4.6356235
-4.6161192
-4.5948027
0.70839494
0.69666078
0.69262022
0.68926067
0.68764508
0.68875275
0.69297601
0.70088305
0.71302648
0.73029546
0.75315556
0.78200534
0.81703731
0.8581988
0.90511189
0.95705857
1.0129287
1.071357
1.1307351
1.1894461
1.2454343
1.2969811
1.3424664
1.3804382
1.4094871
1.4285998
1.4394922
1.4429551
1.4265399
1.409473
1.5094717
1.8964609
2.9001983
4.7079352
7.0604245
9.0689505
9.7709407
7.4148367
4.7980492
5.7356597
11.717981
33.53665
297.5552
2538.6403
4959.4896
6389.6542
6730.0385
6856.1416
7046.5217
7309.9925
7421.0742
7256.3141
6942.0725
6889.7323
6857.4389
4631.6804
1872.5201
40.698667
23.823081
35.00025
35.403954
30.489633
22.30519
17.755438
14.912837
11.770026
5.43591
-0.63853893
-4.6436188
-7.0161025
-8.2760385
-8.832837
-8.9592902
-8.8461503
-8.6075005
-8.3052189
-7.9751274
-7.639256
-7.3108111
-6.9979755
-6.7056638
-6.437309
-6.1935474
-5.9743256
-5.7788118
-5.6056537
-5.4531377
-5.3193726
-5.202419
-5.1004251
-5.0116774
-4.9346156
-4.8678799
-4.8103228
-4.7609785
-4.7189247
-4.683413
-4.6547262
-4.6329566
-4.6081094
0.73680119
0.72249559
0.717306
0.71263865
0.70958581
0.70936292
0.71251087
0.71974713
0.73193391
0.75008289
0.77486587
0.80688537
0.84654406
0.89388215
0.94847132
1.0094201
1.0753842
1.144595
1.2148642
1.2841719
1.3495182
1.4084583
1.4584728
1.4968591
1.5206319
1.5262203
1.5119629
1.4784073
1.4193472
1.3332429
1.2738894
1.4293712
2.2086472
4.3944607
7.6908979
10.297016
10.868286
7.5118824
0.45879978
-6.3880509
33.54369
290.90816
2830.4904
5365.0155
6179.1149
6339.8332
6471.0905
6547.0346
6665.6098
6788.3995
6830.4795
6750.2715
6610.1773
6528.4766
6308.5905
5858.1265
4478.1641
2226.6819
105.92788
54.116147
32.526375
31.587133
21.885574
17.4284
16.283943
14.098459
3.730438
-5.3323397
-8.900221
-10.649602
-11.292893
-11.277872
-10.919988
-10.416625
-9.8709818
-9.3271744
-8.8050545
-8.3146302
-7.8606046
-7.4444169
-7.0686702
-6.7318379
-6.4323837
-6.1681163
-5.9363239
-5.7340638
-5.5582516
-5.4058445
-5.273949
-5.1599199
-5.0614226
-4.976427
-4.9031802
-4.8402035
-4.7863214
-4.740419
-4.7015844
-4.6702221
-4.6463075
-4.6177865
0.76271911
0.74543554
0.73873796
0.73219658
0.72694458
0.72452381
0.72567201
0.73131188
0.74260311
0.7604675
0.7862606
0.82086056
0.86489995
0.9185431
0.9813757
1.052354
1.1298669
1.2116855
1.2950085
1.3769428
1.4540929
1.5230235
1.5804386
1.6226838
1.6457242
1.6441477
1.6127635
1.5517119
1.4550493
1.277195
0.92245268
0.52394828
0.15042915
2.939633
7.7408457
12.390825
14.971832
13.271032
2.831088
-72.309574
260.50434
3078.6327
4602.8796
5321.8218
5672.81
5908.9635
6061.0942
6170.8316
6268.5511
6340.8382
6357.7509
6305.3042
6204.0958
6080.9249
5878.4877
5574.6304
5293.1388
4690.9451
2292.931
152.89478
25.581608
48.93792
34.130476
19.148189
14.463844
7.31769
-9.0607916
-16.463945
-16.278137
-15.676632
-15.086122
-14.12984
-13.074347
-12.072324
-11.167989
-10.357877
-9.6312767
-8.9795022
-8.3964585
-7.8730053
-7.4129368
-7.0074469
-6.6527099
-6.344347
-6.0776271
-5.8478406
-5.650395
-5.4809728