/*--------------------------------*- C++ -*----------------------------------*\
  =========                 |
  \\      /  F ield         | OpenFOAM: The Open Source CFD Toolbox
   \\    /   O peration     | Website:  https://openfoam.org
    \\  /    A nd           | Version:  9
     \\/     M anipulation  |
\*---------------------------------------------------------------------------*/
FoamFile
{
    format      ascii;
    class       volVectorField;
    location    "0.001";
    object      U;
}
// * * * * * * * * * * * * * * * * * * * * * * * * * * * * * * * * * * * * * //

dimensions      [0 1 -1 0 0 0 0];

internalField   nonuniform List<vector> 
10000
(
(3.20921e-13 0 0)
(4.37619e-13 0 0)
(5.25143e-13 0 0)
(4.81381e-13 0 0)
(4.37619e-13 0 0)
(4.37619e-13 0 0)
(4.66794e-13 0 0)
(8.31476e-13 0 0)
(6.85603e-13 0 0)
(6.12667e-13 0 0)
(7.87714e-13 0 0)
(6.56429e-13 0 0)
(7.5854e-13 0 0)
(8.89825e-13 0 0)
(8.60651e-13 0 0)
(7.14778e-13 0 0)
(9.19e-13 0 0)
(4.23032e-13 0 0)
(4.23032e-13 0 0)
(3.93857e-13 0 0)
(3.7927e-13 0 0)
(5.83492e-13 0 0)
(2.62571e-13 0 0)
(2.62571e-13 0 0)
(1.45873e-14 0 0)
(1.75048e-13 0 0)
(7.29365e-14 0 0)
(7.29365e-14 0 0)
(-2.62571e-13 0 0)
(-3.20921e-13 0 0)
(-5.3973e-13 0 0)
(-6.71016e-13 0 0)
(-8.46063e-13 0 0)
(-7.87714e-13 0 0)
(-8.46063e-13 0 0)
(-7.73127e-13 0 0)
(-9.77349e-13 0 0)
(-1.16698e-12 0 0)
(-1.21075e-12 0 0)
(-1.12322e-12 0 0)
(-1.37121e-12 0 0)
(-1.35662e-12 0 0)
(-1.50249e-12 0 0)
(-1.32744e-12 0 0)
(-1.37121e-12 0 0)
(-1.45873e-12 0 0)
(-1.57543e-12 0 0)
(-1.77965e-12 0 0)
(-1.69213e-12 0 0)
(-1.75048e-12 0 0)
(-1.75048e-12 0 0)
(-1.82341e-12 0 0)
(-1.61919e-12 0 0)
(-1.98387e-12 0 0)
(-1.75048e-12 0 0)
(-2.17351e-12 0 0)
(-1.86717e-12 0 0)
(-1.80883e-12 0 0)
(-1.82341e-12 0 0)
(-1.96929e-12 0 0)
(-1.88176e-12 0 0)
(-2.08598e-12 0 0)
(-2.05681e-12 0 0)
(-1.76506e-12 0 0)
(-1.80883e-12 0 0)
(-1.47332e-12 0 0)
(-1.1524e-12 0 0)
(-8.75238e-13 0 0)
(-6.12667e-13 0 0)
(-3.50095e-13 0 0)
(-2.77159e-13 0 0)
(1.31286e-13 0 0)
(3.35508e-13 0 0)
(5.98079e-13 0 0)
(8.89825e-13 0 0)
(1.00652e-12 0 0)
(1.21075e-12 0 0)
(1.45873e-12 0 0)
(1.59002e-12 0 0)
(1.77965e-12 0 0)
(2.0714e-12 0 0)
(1.73589e-12 0 0)
(1.69213e-12 0 0)
(1.38579e-12 0 0)
(1.19616e-12 0 0)
(9.62762e-13 0 0)
(7.14778e-13 0 0)
(4.66794e-13 0 0)
(2.04222e-13 0 0)
(5.83492e-14 0 0)
(-1.31286e-13 0 0)
(-7.29365e-14 0 0)
(-6.27254e-13 0 0)
(-5.83492e-13 0 0)
(-9.33587e-13 0 0)
(-7.0019e-13 0 0)
(-1.09405e-12 0 0)
(-1.2691e-12 0 0)
(-1.59002e-12 0 0)
(-1.66295e-12 0 0)
(-1.98387e-12 0 0)
(-1.88176e-12 0 0)
(-1.9547e-12 0 0)
(-1.9547e-12 0 0)
(-2.31938e-12 0 0)
(-1.92552e-12 0 0)
(-2.33397e-12 0 0)
(-1.9547e-12 0 0)
(-2.31938e-12 0 0)
(-2.17351e-12 0 0)
(-1.86717e-12 0 0)
(-1.94011e-12 0 0)
(-1.92552e-12 0 0)
(-1.35662e-12 0 0)
(-1.76506e-12 0 0)
(-1.00652e-12 0 0)
(-1.02111e-12 0 0)
(-4.95968e-13 0 0)
(-4.37619e-14 0 0)
(5.83492e-14 0 0)
(2.77159e-13 0 0)
(3.64683e-13 0 0)
(7.14778e-13 0 0)
(8.02302e-13 0 0)
(1.12322e-12 0 0)
(7.5854e-13 0 0)
(1.2691e-12 0 0)
(1.06487e-12 0 0)
(1.31286e-12 0 0)
(1.21075e-12 0 0)
(1.45873e-12 0 0)
(1.1524e-12 0 0)
(1.67754e-12 0 0)
(1.51708e-12 0 0)
(1.86717e-12 0 0)
(2.01305e-12 0 0)
(2.1881e-12 0 0)
(2.1881e-12 0 0)
(2.6403e-12 0 0)
(2.1881e-12 0 0)
(2.80076e-12 0 0)
(2.62571e-12 0 0)
(2.47984e-12 0 0)
(2.6403e-12 0 0)
(2.37773e-12 0 0)
(2.757e-12 0 0)
(2.66948e-12 0 0)
(2.45067e-12 0 0)
(2.8737e-12 0 0)
(2.74241e-12 0 0)
(2.47984e-12 0 0)
(2.74241e-12 0 0)
(2.71324e-12 0 0)
(2.23186e-12 0 0)
(2.37773e-12 0 0)
(2.4069e-12 0 0)
(2.14433e-12 0 0)
(2.17351e-12 0 0)
(2.05681e-12 0 0)
(1.92552e-12 0 0)
(1.59002e-12 0 0)
(1.59002e-12 0 0)
(1.16698e-12 0 0)
(9.77349e-13 0 0)
(8.31476e-13 0 0)
(4.08444e-13 0 0)
(3.06333e-13 0 0)
(1.75048e-13 0 0)
(2.1881e-13 0 0)
(1.45873e-14 0 0)
(7.29365e-14 0 0)
(-1.16698e-13 0 0)
(8.75238e-14 0 0)
(5.83492e-14 0 0)
(1.45873e-14 0 0)
(-1.45873e-14 0 0)
(8.75238e-14 0 0)
(-1.02111e-13 0 0)
(4.37619e-14 0 0)
(-1.45873e-14 0 0)
(1.89635e-13 0 0)
(1.16698e-13 0 0)
(2.1881e-13 0 0)
(2.77159e-13 0 0)
(-1.02111e-13 0 0)
(-4.37619e-14 0 0)
(2.91746e-14 0 0)
(7.29365e-14 0 0)
(2.91746e-14 0 0)
(5.83492e-14 0 0)
(5.83492e-14 0 0)
(-1.6046e-13 0 0)
(-1.02111e-13 0 0)
(-7.29365e-14 0 0)
(-8.75238e-14 0 0)
(1.02111e-13 0 0)
(1.45873e-14 0 0)
(-8.75238e-14 0 0)
(-4.37619e-14 0 0)
(-1.31286e-13 0 0)
(-1.75048e-13 0 0)
(-1.45873e-13 0 0)
(-4.37619e-14 0 0)
(-4.37619e-14 0 0)
(2.59725e-26 0 0)
(-4.37619e-14 0 0)
(1.45873e-13 0 0)
(1.31286e-13 0 0)
(1.6046e-13 0 0)
(-1.45873e-14 0 0)
(1.45873e-14 0 0)
(-1.45873e-13 0 0)
(1.45873e-14 0 0)
(-7.29365e-14 0 0)
(-5.83492e-14 0 0)
(-1.89635e-13 0 0)
(-6.99015e-26 0 0)
(-2.62571e-13 0 0)
(-1.16698e-13 0 0)
(-3.35508e-13 0 0)
(-2.62571e-13 0 0)
(-3.64683e-13 0 0)
(-2.62571e-13 0 0)
(-4.66794e-13 0 0)
(-3.93857e-13 0 0)
(-6.85603e-13 0 0)
(-5.10556e-13 0 0)
(-6.41841e-13 0 0)
(-5.25143e-13 0 0)
(-6.56429e-13 0 0)
(-5.25143e-13 0 0)
(-4.66794e-13 0 0)
(-6.12667e-13 0 0)
(-5.83492e-13 0 0)
(-7.29365e-13 0 0)
(-5.3973e-13 0 0)
(-7.73127e-13 0 0)
(-6.56429e-13 0 0)
(-8.16889e-13 0 0)
(-9.19e-13 0 0)
(-8.16889e-13 0 0)
(-5.98079e-13 0 0)
(-7.87714e-13 0 0)
(-6.27254e-13 0 0)
(-5.3973e-13 0 0)
(-4.52206e-13 0 0)
(-5.10556e-13 0 0)
(-1.45873e-13 0 0)
(-4.37619e-14 0 0)
(-1.16698e-13 0 0)
(-7.29365e-14 0 0)
(2.33397e-13 0 0)
(2.1881e-13 0 0)
(5.83492e-13 0 0)
(3.64683e-13 0 0)
(4.52206e-13 0 0)
(2.47984e-13 0 0)
(6.56429e-13 0 0)
(3.64683e-13 0 0)
(5.25143e-13 0 0)
(4.95968e-13 0 0)
(4.08444e-13 0 0)
(5.25143e-13 0 0)
(5.98079e-13 0 0)
(4.08444e-13 0 0)
(6.56429e-13 0 0)
(3.93857e-13 0 0)
(4.95968e-13 0 0)
(5.98079e-13 0 0)
(4.23032e-13 0 0)
(6.41841e-13 0 0)
(3.20921e-13 0 0)
(3.64683e-13 0 0)
(2.77159e-13 0 0)
(4.81381e-13 0 0)
(3.20921e-13 0 0)
(3.93857e-13 0 0)
(4.81381e-13 0 0)
(2.62571e-13 0 0)
(4.23032e-13 0 0)
(2.04222e-13 0 0)
(2.04222e-13 0 0)
(-5.83492e-14 0 0)
(1.16698e-13 0 0)
(-3.35508e-13 0 0)
(-1.6046e-13 0 0)
(-4.23032e-13 0 0)
(-1.31286e-13 0 0)
(-7.29365e-14 0 0)
(1.45873e-13 0 0)
(1.45873e-13 0 0)
(3.64683e-13 0 0)
(4.23032e-13 0 0)
(7.14778e-13 0 0)
(7.29365e-13 0 0)
(1.05029e-12 0 0)
(1.13781e-12 0 0)
(8.60651e-13 0 0)
(1.34203e-12 0 0)
(9.04413e-13 0 0)
(1.05029e-12 0 0)
(9.04413e-13 0 0)
(1.13781e-12 0 0)
(9.62762e-13 0 0)
(1.18157e-12 0 0)
(1.18157e-12 0 0)
(1.16698e-12 0 0)
(1.16698e-12 0 0)
(1.16698e-12 0 0)
(1.0357e-12 0 0)
(7.14778e-13 0 0)
(8.46063e-13 0 0)
(6.71016e-13 0 0)
(5.83492e-13 0 0)
(7.73127e-13 0 0)
(5.54317e-13 0 0)
(6.85603e-13 0 0)
(5.25143e-13 0 0)
(6.71016e-13 0 0)
(4.81381e-13 0 0)
(4.95968e-13 0 0)
(6.41841e-13 0 0)
(5.83492e-13 0 0)
(4.66794e-13 0 0)
(3.35508e-13 0 0)
(3.35508e-13 0 0)
(2.33397e-13 0 0)
(4.95968e-13 0 0)
(1.75048e-13 0 0)
(4.52206e-13 0 0)
(4.37619e-13 0 0)
(3.64683e-13 0 0)
(2.1881e-13 0 0)
(3.50095e-13 0 0)
(2.77159e-13 0 0)
(3.7927e-13 0 0)
(4.66794e-13 0 0)
(3.20921e-13 0 0)
(4.23032e-13 0 0)
(4.08444e-13 0 0)
(5.83492e-13 0 0)
(4.37619e-13 0 0)
(3.64683e-13 0 0)
(3.20921e-13 0 0)
(3.06333e-13 0 0)
(1.31286e-13 0 0)
(1.16698e-13 0 0)
(-1.02111e-13 0 0)
(5.83492e-14 0 0)
(-8.75238e-14 0 0)
(2.91746e-14 0 0)
(-2.47984e-13 0 0)
(-2.91746e-14 0 0)
(-3.06333e-13 0 0)
(-8.75238e-14 0 0)
(-3.50095e-13 0 0)
(-1.02111e-13 0 0)
(-2.47984e-13 0 0)
(-1.31286e-13 0 0)
(-1.75048e-13 0 0)
(-2.1881e-13 0 0)
(-4.95968e-13 0 0)
(-3.93857e-13 0 0)
(-6.27254e-13 0 0)
(-6.12667e-13 0 0)
(-5.98079e-13 0 0)
(-5.25143e-13 0 0)
(-5.68905e-13 0 0)
(-4.08444e-13 0 0)
(-5.3973e-13 0 0)
(-4.66794e-13 0 0)
(-4.23032e-13 0 0)
(-7.29365e-14 0 0)
(4.37619e-14 0 0)
(1.02111e-13 0 0)
(3.93857e-13 0 0)
(4.23032e-13 0 0)
(4.66794e-13 0 0)
(5.25143e-13 0 0)
(9.19e-13 0 0)
(6.27254e-13 0 0)
(8.16889e-13 0 0)
(9.33587e-13 0 0)
(7.73127e-13 0 0)
(7.43952e-13 0 0)
(1.07946e-12 0 0)
(9.19e-13 0 0)
(8.60651e-13 0 0)
(9.91936e-13 0 0)
(5.98079e-13 0 0)
(8.75238e-13 0 0)
(6.41841e-13 0 0)
(4.95968e-13 0 0)
(5.25143e-13 0 0)
(5.3973e-13 0 0)
(5.83492e-13 0 0)
(3.93857e-13 0 0)
(5.3973e-13 0 0)
(6.12667e-13 0 0)
(8.02302e-13 0 0)
(4.81381e-13 0 0)
(6.56429e-13 0 0)
(2.77159e-13 0 0)
(2.62571e-13 0 0)
(-4.37619e-14 0 0)
(-8.75238e-14 0 0)
(-2.33397e-13 0 0)
(-1.02111e-13 0 0)
(-2.91746e-14 0 0)
(-1.6046e-13 0 0)
(-2.04222e-13 0 0)
(-5.83492e-14 0 0)
(-7.29365e-14 0 0)
(-1.31286e-13 0 0)
(2.91746e-14 0 0)
(-4.37619e-14 0 0)
(-1.45873e-14 0 0)
(-1.45873e-13 0 0)
(1.31286e-13 0 0)
(4.23032e-13 0 0)
(5.54317e-13 0 0)
(6.56429e-13 0 0)
(8.60651e-13 0 0)
(7.5854e-13 0 0)
(9.62762e-13 0 0)
(1.05029e-12 0 0)
(1.18157e-12 0 0)
(1.42956e-12 0 0)
(1.53167e-12 0 0)
(1.6046e-12 0 0)
(1.63378e-12 0 0)
(1.38579e-12 0 0)
(1.21075e-12 0 0)
(1.07946e-12 0 0)
(1.07946e-12 0 0)
(6.85603e-13 0 0)
(6.27254e-13 0 0)
(4.95968e-13 0 0)
(5.68905e-13 0 0)
(7.43952e-13 0 0)
(7.73127e-13 0 0)
(6.71016e-13 0 0)
(5.54317e-13 0 0)
(5.83492e-13 0 0)
(3.50095e-13 0 0)
(2.04222e-13 0 0)
(4.37619e-14 0 0)
(-8.75238e-14 0 0)
(-3.64683e-13 0 0)
(-2.77159e-13 0 0)
(-5.25143e-13 0 0)
(-3.06333e-13 0 0)
(-4.52206e-13 0 0)
(-5.54317e-13 0 0)
(-6.85603e-13 0 0)
(-7.87714e-13 0 0)
(-7.5854e-13 0 0)
(-1.22533e-12 0 0)
(-9.33587e-13 0 0)
(-1.40038e-12 0 0)
(-1.19616e-12 0 0)
(-1.25451e-12 0 0)
(-1.25451e-12 0 0)
(-1.6046e-12 0 0)
(-1.23992e-12 0 0)
(-1.73589e-12 0 0)
(-1.29827e-12 0 0)
(-1.66295e-12 0 0)
(-1.18157e-12 0 0)
(-1.73589e-12 0 0)
(-1.23992e-12 0 0)
(-1.47332e-12 0 0)
(-1.1524e-12 0 0)
(-1.32744e-12 0 0)
(-8.16889e-13 0 0)
(-9.48175e-13 0 0)
(-5.3973e-13 0 0)
(-7.73127e-13 0 0)
(-4.52206e-13 0 0)
(-4.81381e-13 0 0)
(-2.91746e-13 0 0)
(-7.29365e-14 0 0)
(-7.29365e-14 0 0)
(-1.45873e-14 0 0)
(1.45873e-14 0 0)
(7.29365e-14 0 0)
(5.83492e-14 0 0)
(8.92044e-27 0 0)
(7.59831e-27 0 0)
(-1.45873e-14 0 0)
(-2.91746e-14 0 0)
(1.31286e-13 0 0)
(-1.6046e-13 0 0)
(1.45873e-13 0 0)
(-4.37619e-14 0 0)
(2.91746e-14 0 0)
(-7.29365e-14 0 0)
(1.02111e-13 0 0)
(2.33397e-13 0 0)
(2.77159e-13 0 0)
(5.10556e-13 0 0)
(4.66794e-13 0 0)
(4.81381e-13 0 0)
(5.68905e-13 0 0)
(7.29365e-13 0 0)
(7.87714e-13 0 0)
(7.73127e-13 0 0)
(1.12322e-12 0 0)
(1.05029e-12 0 0)
(9.91936e-13 0 0)
(1.00652e-12 0 0)
(1.02111e-12 0 0)
(6.85603e-13 0 0)
(9.48175e-13 0 0)
(4.81381e-13 0 0)
(9.19e-13 0 0)
(3.06333e-13 0 0)
(7.29365e-13 0 0)
(3.20921e-13 0 0)
(7.43952e-13 0 0)
(5.3973e-13 0 0)
(6.85603e-13 0 0)
(5.10556e-13 0 0)
(6.56429e-13 0 0)
(4.08444e-13 0 0)
(5.3973e-13 0 0)
(2.1881e-13 0 0)
(-7.29365e-14 0 0)
(-1.02111e-13 0 0)
(-1.6046e-13 0 0)
(-3.50095e-13 0 0)
(-5.10556e-13 0 0)
(-6.27254e-13 0 0)
(-8.16889e-13 0 0)
(-8.75238e-13 0 0)
(-9.48175e-13 0 0)
(-1.07946e-12 0 0)
(-8.75238e-13 0 0)
(-1.16698e-12 0 0)
(-8.89825e-13 0 0)
(-9.04413e-13 0 0)
(-5.3973e-13 0 0)
(-8.46063e-13 0 0)
(-3.50095e-13 0 0)
(-7.87714e-13 0 0)
(-5.98079e-13 0 0)
(-8.02302e-13 0 0)
(-5.68905e-13 0 0)
(-9.33587e-13 0 0)
(-4.23032e-13 0 0)
(-7.87714e-13 0 0)
(-5.83492e-13 0 0)
(-9.48175e-13 0 0)
(-5.3973e-13 0 0)
(-1.02111e-12 0 0)
(-5.68905e-13 0 0)
(-1.02111e-12 0 0)
(-8.60651e-13 0 0)
(-1.19616e-12 0 0)
(-1.16698e-12 0 0)
(-1.28368e-12 0 0)
(-1.41497e-12 0 0)
(-1.32744e-12 0 0)
(-1.34203e-12 0 0)
(-1.38579e-12 0 0)
(-1.18157e-12 0 0)
(-1.41497e-12 0 0)
(-1.38579e-12 0 0)
(-1.38579e-12 0 0)
(-1.40038e-12 0 0)
(-1.25451e-12 0 0)
(-1.10863e-12 0 0)
(-9.33587e-13 0 0)
(-1.05029e-12 0 0)
(-1.00652e-12 0 0)
(-1.09405e-12 0 0)
(-7.5854e-13 0 0)
(-9.04413e-13 0 0)
(-1.06487e-12 0 0)
(-7.43952e-13 0 0)
(-8.31476e-13 0 0)
(-7.87714e-13 0 0)
(-9.91936e-13 0 0)
(-5.83492e-13 0 0)
(-9.91936e-13 0 0)
(-7.14778e-13 0 0)
(-9.62762e-13 0 0)
(-8.89825e-13 0 0)
(-8.75238e-13 0 0)
(-6.41841e-13 0 0)
(-9.19e-13 0 0)
(-8.46063e-13 0 0)
(-1.00652e-12 0 0)
(-7.43952e-13 0 0)
(-1.07946e-12 0 0)
(-8.02302e-13 0 0)
(-1.13781e-12 0 0)
(-1.1524e-12 0 0)
(-9.48175e-13 0 0)
(-6.41841e-13 0 0)
(-6.27254e-13 0 0)
(-6.27254e-13 0 0)
(-3.7927e-13 0 0)
(-4.08444e-13 0 0)
(-1.6046e-13 0 0)
(-1.6046e-13 0 0)
(1.6046e-13 0 0)
(7.29365e-14 0 0)
(7.29365e-14 0 0)
(1.6046e-13 0 0)
(2.04222e-13 0 0)
(4.52206e-13 0 0)
(4.52206e-13 0 0)
(7.43952e-13 0 0)
(5.68905e-13 0 0)
(9.91936e-13 0 0)
(9.33587e-13 0 0)
(1.41497e-12 0 0)
(1.19616e-12 0 0)
(1.70671e-12 0 0)
(1.32744e-12 0 0)
(1.838e-12 0 0)
(1.57543e-12 0 0)
(1.94011e-12 0 0)
(1.35662e-12 0 0)
(1.64836e-12 0 0)
(1.42956e-12 0 0)
(1.47332e-12 0 0)
(1.1524e-12 0 0)
(1.42956e-12 0 0)
(1.19616e-12 0 0)
(1.1524e-12 0 0)
(1.2691e-12 0 0)
(9.91936e-13 0 0)
(7.29365e-13 0 0)
(7.29365e-13 0 0)
(4.23032e-13 0 0)
(4.95968e-13 0 0)
(3.35508e-13 0 0)
(3.20921e-13 0 0)
(-8.75238e-14 0 0)
(1.45873e-14 0 0)
(-4.37619e-13 0 0)
(-4.23032e-13 0 0)
(-5.98079e-13 0 0)
(-4.52206e-13 0 0)
(-8.89825e-13 0 0)
(-4.23032e-13 0 0)
(-6.56429e-13 0 0)
(-4.23032e-13 0 0)
(-3.50095e-13 0 0)
(-3.64683e-13 0 0)
(-4.95968e-13 0 0)
(-4.37619e-13 0 0)
(-5.68905e-13 0 0)
(-4.37619e-13 0 0)
(-6.85603e-13 0 0)
(-6.27254e-13 0 0)
(-7.73127e-13 0 0)
(-5.10556e-13 0 0)
(-6.85603e-13 0 0)
(-7.14778e-13 0 0)
(-7.0019e-13 0 0)
(-6.56429e-13 0 0)
(-7.0019e-13 0 0)
(-6.71016e-13 0 0)
(-6.12667e-13 0 0)
(-6.85603e-13 0 0)
(-3.50095e-13 0 0)
(-5.3973e-13 0 0)
(-2.33397e-13 0 0)
(-1.16698e-13 0 0)
(2.04222e-13 0 0)
(1.6046e-13 0 0)
(2.77159e-13 0 0)
(3.06333e-13 0 0)
(2.62571e-13 0 0)
(4.08444e-13 0 0)
(4.23032e-13 0 0)
(5.83492e-14 0 0)
(3.06333e-13 0 0)
(-2.04222e-13 0 0)
(-1.02111e-13 0 0)
(-4.23032e-13 0 0)
(-2.77159e-13 0 0)
(-6.71016e-13 0 0)
(-5.68905e-13 0 0)
(-6.12667e-13 0 0)
(-9.19e-13 0 0)
(-7.0019e-13 0 0)
(-1.00652e-12 0 0)
(-9.04413e-13 0 0)
(-1.22533e-12 0 0)
(-8.02302e-13 0 0)
(-1.31286e-12 0 0)
(-1.25451e-12 0 0)
(-1.66295e-12 0 0)
(-1.38579e-12 0 0)
(-1.70671e-12 0 0)
(-1.57543e-12 0 0)
(-1.838e-12 0 0)
(-1.57543e-12 0 0)
(-1.7213e-12 0 0)
(-1.57543e-12 0 0)
(-1.67754e-12 0 0)
(-1.86717e-12 0 0)
(-1.6046e-12 0 0)
(-2.08598e-12 0 0)
(-1.45873e-12 0 0)
(-2.0714e-12 0 0)
(-1.59002e-12 0 0)
(-1.66295e-12 0 0)
(-1.73589e-12 0 0)
(-1.98387e-12 0 0)
(-1.56084e-12 0 0)
(-2.04222e-12 0 0)
(-1.57543e-12 0 0)
(-1.80883e-12 0 0)
(-1.79424e-12 0 0)
(-2.1881e-12 0 0)
(-2.23186e-12 0 0)
(-2.78617e-12 0 0)
(-3.00498e-12 0 0)
(-3.15086e-12 0 0)
(-3.03416e-12 0 0)
(-3.50095e-12 0 0)
(-3.35508e-12 0 0)
(-3.25297e-12 0 0)
(-3.5593e-12 0 0)
(-2.97581e-12 0 0)
(-2.85911e-12 0 0)
(-2.77159e-12 0 0)
(-2.58195e-12 0 0)
(-2.36314e-12 0 0)
(-2.59654e-12 0 0)
(-1.86717e-12 0 0)
(-2.31938e-12 0 0)
(-2.12975e-12 0 0)
(-2.1881e-12 0 0)
(-2.42149e-12 0 0)
(-2.26103e-12 0 0)
(-2.53819e-12 0 0)
(-2.42149e-12 0 0)
(-2.4069e-12 0 0)
(-2.5236e-12 0 0)
(-2.36314e-12 0 0)
(-2.33397e-12 0 0)
(-2.42149e-12 0 0)
(-2.43608e-12 0 0)
(-2.34856e-12 0 0)
(-2.37773e-12 0 0)
(-2.56736e-12 0 0)
(-2.27562e-12 0 0)
(-2.24644e-12 0 0)
(-2.12975e-12 0 0)
(-2.01305e-12 0 0)
(-1.9547e-12 0 0)
(-1.91094e-12 0 0)
(-1.94011e-12 0 0)
(-1.73589e-12 0 0)
(-2.10057e-12 0 0)
(-1.85259e-12 0 0)
(-2.08598e-12 0 0)
(-1.91094e-12 0 0)
(-2.04222e-12 0 0)
(-2.02763e-12 0 0)
(-2.26103e-12 0 0)
(-1.98387e-12 0 0)
(-2.21727e-12 0 0)
(-2.24644e-12 0 0)
(-2.5236e-12 0 0)
(-2.49443e-12 0 0)
(-2.46525e-12 0 0)
(-2.47984e-12 0 0)
(-2.61113e-12 0 0)
(-2.33397e-12 0 0)
(-2.45067e-12 0 0)
(-2.31938e-12 0 0)
(-2.26103e-12 0 0)
(-2.42149e-12 0 0)
(-2.29021e-12 0 0)
(-2.24644e-12 0 0)
(-2.02763e-12 0 0)
(-1.99846e-12 0 0)
(-1.89635e-12 0 0)
(-1.94011e-12 0 0)
(-1.69213e-12 0 0)
(-1.61919e-12 0 0)
(-1.54625e-12 0 0)
(-1.38579e-12 0 0)
(-1.1524e-12 0 0)
(-1.00652e-12 0 0)
(-7.5854e-13 0 0)
(-4.95968e-13 0 0)
(-4.81381e-13 0 0)
(-2.91746e-13 0 0)
(-1.75048e-13 0 0)
(-1.31286e-13 0 0)
(-4.23032e-13 0 0)
(-4.23032e-13 0 0)
(-7.0019e-13 0 0)
(-9.48175e-13 0 0)
(-1.12322e-12 0 0)
(-1.63378e-12 0 0)
(-2.02763e-12 0 0)
(-2.37773e-12 0 0)
(-2.82994e-12 0 0)
(-2.9904e-12 0 0)
(-3.31132e-12 0 0)
(-3.5593e-12 0 0)
(-3.76352e-12 0 0)
(-4.05527e-12 0 0)
(-4.43454e-12 0 0)
(-4.05527e-12 0 0)
(-4.58041e-12 0 0)
(-4.49289e-12 0 0)
(-4.37619e-12 0 0)
(-4.50748e-12 0 0)
(-4.88675e-12 0 0)
(-4.33243e-12 0 0)
(-4.8284e-12 0 0)
(-4.62417e-12 0 0)
(-4.65335e-12 0 0)
(-4.60959e-12 0 0)
(-4.68252e-12 0 0)
(-4.60959e-12 0 0)
(-4.87216e-12 0 0)
(-5.13473e-12 0 0)
(-4.87216e-12 0 0)
(-5.33895e-12 0 0)
(-5.3973e-12 0 0)
(-4.93051e-12 0 0)
(-5.30978e-12 0 0)
(-4.72629e-12 0 0)
(-5.17849e-12 0 0)
(-4.72629e-12 0 0)
(-4.78463e-12 0 0)
(-4.46371e-12 0 0)
(-4.33243e-12 0 0)
(-3.80729e-12 0 0)
(-3.89481e-12 0 0)
(-3.36967e-12 0 0)
(-3.23838e-12 0 0)
(-2.8737e-12 0 0)
(-2.66948e-12 0 0)
(-2.39232e-12 0 0)
(-2.26103e-12 0 0)
(-1.6046e-12 0 0)
(-1.70671e-12 0 0)
(-1.38579e-12 0 0)
(-1.12322e-12 0 0)
(-9.91936e-13 0 0)
(-1.18157e-12 0 0)
(-6.71016e-13 0 0)
(-1.07946e-12 0 0)
(-9.48175e-13 0 0)
(-1.07946e-12 0 0)
(-1.00652e-12 0 0)
(-1.16698e-12 0 0)
(-1.07946e-12 0 0)
(-1.18157e-12 0 0)
(-1.50249e-12 0 0)
(-1.64836e-12 0 0)
(-1.67754e-12 0 0)
(-1.85259e-12 0 0)
(-1.79424e-12 0 0)
(-1.75048e-12 0 0)
(-1.63378e-12 0 0)
(-1.838e-12 0 0)
(-1.82341e-12 0 0)
(-2.08598e-12 0 0)
(-2.0714e-12 0 0)
(-2.23186e-12 0 0)
(-2.72783e-12 0 0)
(-2.90287e-12 0 0)
(-3.13627e-12 0 0)
(-3.51554e-12 0 0)
(-3.5593e-12 0 0)
(-3.73435e-12 0 0)
(-4.20114e-12 0 0)
(-3.89481e-12 0 0)
(-4.11362e-12 0 0)
(-4.28867e-12 0 0)
(-4.15738e-12 0 0)
(-3.83646e-12 0 0)
(-4.52206e-12 0 0)
(-4.01151e-12 0 0)
(-4.27408e-12 0 0)
(-4.41995e-12 0 0)
(-3.95316e-12 0 0)
(-4.15738e-12 0 0)
(-4.27408e-12 0 0)
(-4.02609e-12 0 0)
(-4.28867e-12 0 0)
(-4.08444e-12 0 0)
(-4.18656e-12 0 0)
(-4.43454e-12 0 0)
(-4.25949e-12 0 0)
(-4.56582e-12 0 0)
(-4.63876e-12 0 0)
(-4.20114e-12 0 0)
(-4.8284e-12 0 0)
(-4.81381e-12 0 0)
(-4.69711e-12 0 0)
(-4.595e-12 0 0)
(-5.12014e-12 0 0)
(-4.43454e-12 0 0)
(-4.85757e-12 0 0)
(-4.41995e-12 0 0)
(-4.37619e-12 0 0)
(-4.43454e-12 0 0)
(-4.30325e-12 0 0)
(-4.25949e-12 0 0)
(-3.95316e-12 0 0)
(-4.18656e-12 0 0)
(-4.06986e-12 0 0)
(-3.61765e-12 0 0)
(-4.14279e-12 0 0)
(-3.20921e-12 0 0)
(-3.53013e-12 0 0)
(-3.09251e-12 0 0)
(-3.01957e-12 0 0)
(-2.56736e-12 0 0)
(-2.61113e-12 0 0)
(-2.21727e-12 0 0)
(-2.4069e-12 0 0)
(-2.02763e-12 0 0)
(-2.45067e-12 0 0)
(-2.05681e-12 0 0)
(-2.46525e-12 0 0)
(-2.04222e-12 0 0)
(-2.43608e-12 0 0)
(-1.99846e-12 0 0)
(-2.26103e-12 0 0)
(-1.7213e-12 0 0)
(-1.99846e-12 0 0)
(-1.70671e-12 0 0)
(-1.838e-12 0 0)
(-1.89635e-12 0 0)
(-2.10057e-12 0 0)
(-2.05681e-12 0 0)
(-2.88829e-12 0 0)
(-2.42149e-12 0 0)
(-3.07792e-12 0 0)
(-2.77159e-12 0 0)
(-3.50095e-12 0 0)
(-3.07792e-12 0 0)
(-3.66141e-12 0 0)
(-3.38425e-12 0 0)
(-3.7927e-12 0 0)
(-3.53013e-12 0 0)
(-3.92398e-12 0 0)
(-3.86563e-12 0 0)
(-4.09903e-12 0 0)
(-4.31784e-12 0 0)
(-4.69711e-12 0 0)
(-4.17197e-12 0 0)
(-4.93051e-12 0 0)
(-4.08444e-12 0 0)
(-4.84298e-12 0 0)
(-4.37619e-12 0 0)
(-4.79922e-12 0 0)
(-4.25949e-12 0 0)
(-4.60959e-12 0 0)
(-3.98233e-12 0 0)
(-4.69711e-12 0 0)
(-4.14279e-12 0 0)
(-4.41995e-12 0 0)
(-3.80729e-12 0 0)
(-3.93857e-12 0 0)
(-3.61765e-12 0 0)
(-3.5593e-12 0 0)
(-3.41343e-12 0 0)
(-3.13627e-12 0 0)
(-2.85911e-12 0 0)
(-3.01957e-12 0 0)
(-2.45067e-12 0 0)
(-2.74241e-12 0 0)
(-2.5236e-12 0 0)
(-2.58195e-12 0 0)
(-2.42149e-12 0 0)
(-2.56736e-12 0 0)
(-2.08598e-12 0 0)
(-2.34856e-12 0 0)
(-1.82341e-12 0 0)
(-2.01305e-12 0 0)
(-1.44414e-12 0 0)
(-1.82341e-12 0 0)
(-1.45873e-12 0 0)
(-1.13781e-12 0 0)
(-1.59002e-12 0 0)
(-1.4879e-12 0 0)
(-1.21075e-12 0 0)
(-1.96929e-12 0 0)
(-1.56084e-12 0 0)
(-2.20268e-12 0 0)
(-1.98387e-12 0 0)
(-2.58195e-12 0 0)
(-2.69865e-12 0 0)
(-2.91746e-12 0 0)
(-3.13627e-12 0 0)
(-3.19462e-12 0 0)
(-3.36967e-12 0 0)
(-3.5593e-12 0 0)
(-3.70517e-12 0 0)
(-3.50095e-12 0 0)
(-4.41995e-12 0 0)
(-3.82187e-12 0 0)
(-4.12821e-12 0 0)
(-3.71976e-12 0 0)
(-3.89481e-12 0 0)
(-3.53013e-12 0 0)
(-4.06986e-12 0 0)
(-3.70517e-12 0 0)
(-3.7927e-12 0 0)
(-3.61765e-12 0 0)
(-4.05527e-12 0 0)
(-3.69059e-12 0 0)
(-3.93857e-12 0 0)
(-3.69059e-12 0 0)
(-3.64683e-12 0 0)
(-3.48636e-12 0 0)
(-3.86563e-12 0 0)
(-3.39884e-12 0 0)
(-3.77811e-12 0 0)
(-3.42802e-12 0 0)
(-3.7927e-12 0 0)
(-3.64683e-12 0 0)
(-3.7927e-12 0 0)
(-3.61765e-12 0 0)
(-3.31132e-12 0 0)
(-2.93205e-12 0 0)
(-2.97581e-12 0 0)
(-2.78617e-12 0 0)
(-2.4069e-12 0 0)
(-2.39232e-12 0 0)
(-2.14433e-12 0 0)
(-2.1881e-12 0 0)
(-1.86717e-12 0 0)
(-1.88176e-12 0 0)
(-1.54625e-12 0 0)
(-1.53167e-12 0 0)
(-1.28368e-12 0 0)
(-1.13781e-12 0 0)
(-1.16698e-12 0 0)
(-8.75238e-13 0 0)
(-7.5854e-13 0 0)
(-9.77349e-13 0 0)
(-6.41841e-13 0 0)
(-8.16889e-13 0 0)
(-8.89825e-13 0 0)
(-7.87714e-13 0 0)
(-9.48175e-13 0 0)
(-6.27254e-13 0 0)
(-9.91936e-13 0 0)
(-9.77349e-13 0 0)
(-1.56084e-12 0 0)
(-1.19616e-12 0 0)
(-1.69213e-12 0 0)
(-1.29827e-12 0 0)
(-1.79424e-12 0 0)
(-1.64836e-12 0 0)
(-2.17351e-12 0 0)
(-2.20268e-12 0 0)
(-2.42149e-12 0 0)
(-2.29021e-12 0 0)
(-2.43608e-12 0 0)
(-2.59654e-12 0 0)
(-2.9904e-12 0 0)
(-2.81535e-12 0 0)
(-3.01957e-12 0 0)
(-3.25297e-12 0 0)
(-3.38425e-12 0 0)
(-3.48636e-12 0 0)
(-3.64683e-12 0 0)
(-3.38425e-12 0 0)
(-3.73435e-12 0 0)
(-3.64683e-12 0 0)
(-3.63224e-12 0 0)
(-3.70517e-12 0 0)
(-3.88022e-12 0 0)
(-3.39884e-12 0 0)
(-4.02609e-12 0 0)
(-3.35508e-12 0 0)
(-3.92398e-12 0 0)
(-3.51554e-12 0 0)
(-3.95316e-12 0 0)
(-3.41343e-12 0 0)
(-3.676e-12 0 0)
(-3.53013e-12 0 0)
(-3.63224e-12 0 0)
(-3.4426e-12 0 0)
(-3.31132e-12 0 0)
(-3.00498e-12 0 0)
(-2.72783e-12 0 0)
(-2.71324e-12 0 0)
(-2.24644e-12 0 0)
(-2.50902e-12 0 0)
(-2.04222e-12 0 0)
(-1.91094e-12 0 0)
(-1.7213e-12 0 0)
(-1.54625e-12 0 0)
(-1.85259e-12 0 0)
(-1.28368e-12 0 0)
(-1.67754e-12 0 0)
(-1.18157e-12 0 0)
(-1.63378e-12 0 0)
(-8.16889e-13 0 0)
(-1.23992e-12 0 0)
(-6.85603e-13 0 0)
(-8.60651e-13 0 0)
(-4.23032e-13 0 0)
(-4.52206e-13 0 0)
(-5.83492e-14 0 0)
(-2.91746e-14 0 0)
(1.6046e-13 0 0)
(1.16698e-13 0 0)
(8.75238e-14 0 0)
(2.91746e-14 0 0)
(-1.16698e-13 0 0)
(-2.62571e-13 0 0)
(-4.95968e-13 0 0)
(-6.12667e-13 0 0)
(-8.16889e-13 0 0)
(-7.5854e-13 0 0)
(-7.73127e-13 0 0)
(-5.83492e-13 0 0)
(-8.89825e-13 0 0)
(-8.02302e-13 0 0)
(-9.19e-13 0 0)
(-5.68905e-13 0 0)
(-1.02111e-12 0 0)
(-7.0019e-13 0 0)
(-1.09405e-12 0 0)
(-7.29365e-13 0 0)
(-1.06487e-12 0 0)
(-7.43952e-13 0 0)
(-1.00652e-12 0 0)
(-7.5854e-13 0 0)
(-9.77349e-13 0 0)
(-7.14778e-13 0 0)
(-6.27254e-13 0 0)
(-5.25143e-13 0 0)
(-6.27254e-13 0 0)
(-6.71016e-13 0 0)
(-7.43952e-13 0 0)
(-6.85603e-13 0 0)
(-8.75238e-13 0 0)
(-8.16889e-13 0 0)
(-8.31476e-13 0 0)
(-6.71016e-13 0 0)
(-5.83492e-13 0 0)
(-8.16889e-13 0 0)
(-8.46063e-13 0 0)
(-9.48175e-13 0 0)
(-8.46063e-13 0 0)
(-9.04413e-13 0 0)
(-8.46063e-13 0 0)
(-9.04413e-13 0 0)
(-5.54317e-13 0 0)
(-7.43952e-13 0 0)
(-4.23032e-13 0 0)
(-3.64683e-13 0 0)
(-3.7927e-13 0 0)
(-1.16698e-13 0 0)
(-2.1881e-13 0 0)
(-5.95054e-26 0 0)
(-2.33397e-13 0 0)
(-4.37619e-14 0 0)
(-1.89635e-13 0 0)
(-2.33397e-13 0 0)
(-3.06333e-13 0 0)
(-5.83492e-14 0 0)
(-3.7927e-13 0 0)
(-1.02111e-13 0 0)
(-2.62571e-13 0 0)
(-1.02111e-13 0 0)
(-2.62571e-13 0 0)
(1.45873e-14 0 0)
(-3.20921e-13 0 0)
(-1.02111e-13 0 0)
(-6.56429e-13 0 0)
(-5.83492e-14 0 0)
(-5.10556e-13 0 0)
(-7.29365e-14 0 0)
(-4.08444e-13 0 0)
(-5.83492e-14 0 0)
(-7.29365e-14 0 0)
(-2.33397e-13 0 0)
(-8.75238e-14 0 0)
(-1.02111e-13 0 0)
(-2.77159e-13 0 0)
(-3.06333e-13 0 0)
(-4.95968e-13 0 0)
(-4.95968e-13 0 0)
(-3.35508e-13 0 0)
(-5.54317e-13 0 0)
(-6.71016e-13 0 0)
(-8.16889e-13 0 0)
(-8.46063e-13 0 0)
(-1.0357e-12 0 0)
(-9.91936e-13 0 0)
(-1.29827e-12 0 0)
(-1.06487e-12 0 0)
(-1.47332e-12 0 0)
(-1.35662e-12 0 0)
(-1.13781e-12 0 0)
(-1.41497e-12 0 0)
(-1.09405e-12 0 0)
(-1.0357e-12 0 0)
(-8.75238e-13 0 0)
(-7.73127e-13 0 0)
(-4.23032e-13 0 0)
(-5.98079e-13 0 0)
(-2.47984e-13 0 0)
(-5.3973e-13 0 0)
(-3.50095e-13 0 0)
(-5.98079e-13 0 0)
(-4.37619e-13 0 0)
(-4.08444e-13 0 0)
(-4.08444e-13 0 0)
(-1.6046e-13 0 0)
(-2.47984e-13 0 0)
(-1.75048e-13 0 0)
(-3.06333e-13 0 0)
(-2.33397e-13 0 0)
(-2.62571e-13 0 0)
(-4.52206e-13 0 0)
(1.31286e-13 0 0)
(-1.75048e-13 0 0)
(1.16698e-13 0 0)
(-2.77159e-13 0 0)
(1.02111e-13 0 0)
(-2.91746e-13 0 0)
(-7.29365e-14 0 0)
(-1.45873e-13 0 0)
(-1.16698e-13 0 0)
(4.37619e-14 0 0)
(-4.37619e-14 0 0)
(1.45873e-14 0 0)
(7.29365e-14 0 0)
(-5.83492e-14 0 0)
(-1.45873e-14 0 0)
(-2.91746e-14 0 0)
(2.04222e-13 0 0)
(-1.45873e-13 0 0)
(7.29365e-14 0 0)
(-3.35508e-13 0 0)
(-1.45873e-13 0 0)
(-2.04222e-13 0 0)
(-8.75238e-14 0 0)
(-1.45873e-13 0 0)
(-1.45873e-14 0 0)
(-1.45873e-14 0 0)
(-1.16698e-13 0 0)
(-1.16698e-13 0 0)
(-1.6046e-13 0 0)
(-1.75048e-13 0 0)
(-1.6046e-13 0 0)
(-1.16698e-13 0 0)
(-4.37619e-14 0 0)
(-2.91746e-14 0 0)
(-8.75238e-14 0 0)
(1.31286e-13 0 0)
(-2.04222e-13 0 0)
(4.37619e-14 0 0)
(-1.31286e-13 0 0)
(-1.16698e-13 0 0)
(-8.75238e-14 0 0)
(-2.62571e-13 0 0)
(-1.45873e-14 0 0)
(-3.06333e-13 0 0)
(1.02111e-13 0 0)
(-5.83492e-14 0 0)
(5.83492e-14 0 0)
(1.45873e-14 0 0)
(-1.45873e-14 0 0)
(-2.91746e-14 0 0)
(2.1881e-13 0 0)
(1.75048e-13 0 0)
(4.95968e-13 0 0)
(3.50095e-13 0 0)
(4.95968e-13 0 0)
(3.64683e-13 0 0)
(2.47984e-13 0 0)
(2.91746e-13 0 0)
(2.77159e-13 0 0)
(2.47984e-13 0 0)
(-8.75238e-14 0 0)
(2.91746e-14 0 0)
(1.45873e-14 0 0)
(1.31286e-13 0 0)
(4.37619e-14 0 0)
(-1.45873e-14 0 0)
(5.83492e-14 0 0)
(1.6046e-13 0 0)
(-5.83492e-14 0 0)
(1.02111e-13 0 0)
(-7.29365e-14 0 0)
(2.62571e-13 0 0)
(8.75238e-14 0 0)
(1.16698e-13 0 0)
(-4.37619e-14 0 0)
(5.83492e-14 0 0)
(-1.16698e-13 0 0)
(1.6046e-13 0 0)
(-8.75238e-14 0 0)
(1.6046e-13 0 0)
(-5.83492e-14 0 0)
(1.16698e-13 0 0)
(-2.47984e-13 0 0)
(-2.91746e-13 0 0)
(-8.75238e-14 0 0)
(-8.75238e-14 0 0)
(1.89635e-13 0 0)
(-4.37619e-14 0 0)
(3.06333e-13 0 0)
(-4.37619e-14 0 0)
(3.20921e-13 0 0)
(6.13997e-27 0 0)
(3.20921e-13 0 0)
(1.16698e-13 0 0)
(2.1881e-13 0 0)
(-1.6046e-13 0 0)
(1.89635e-13 0 0)
(1.45873e-14 0 0)
(-5.83492e-14 0 0)
(1.45873e-14 0 0)
(7.29365e-14 0 0)
(7.29365e-14 0 0)
(1.45873e-14 0 0)
(1.75048e-13 0 0)
(-5.83492e-14 0 0)
(5.83492e-14 0 0)
(-1.45873e-14 0 0)
(4.37619e-14 0 0)
(1.75048e-13 0 0)
(1.45873e-13 0 0)
(5.83492e-14 0 0)
(2.33397e-13 0 0)
(-7.29365e-14 0 0)
(3.06333e-13 0 0)
(-7.29365e-14 0 0)
(3.20921e-13 0 0)
(7.29365e-14 0 0)
(2.47984e-13 0 0)
(-5.83492e-14 0 0)
(2.62571e-13 0 0)
(1.45873e-13 0 0)
(2.62571e-13 0 0)
(4.37619e-14 0 0)
(1.02111e-13 0 0)
(5.29281e-26 0 0)
(3.35508e-13 0 0)
(1.45873e-13 0 0)
(3.20921e-13 0 0)
(2.33397e-13 0 0)
(3.7927e-13 0 0)
(2.91746e-13 0 0)
(3.7927e-13 0 0)
(2.33397e-13 0 0)
(2.62571e-13 0 0)
(2.1881e-13 0 0)
(3.7927e-13 0 0)
(2.1881e-13 0 0)
(3.35508e-13 0 0)
(1.45873e-13 0 0)
(2.47984e-13 0 0)
(2.91746e-14 0 0)
(2.1881e-13 0 0)
(1.6046e-13 0 0)
(1.6046e-13 0 0)
(3.20921e-13 0 0)
(5.83492e-14 0 0)
(4.08444e-13 0 0)
(1.02111e-13 0 0)
(1.89635e-13 0 0)
(2.47984e-13 0 0)
(-1.45873e-14 0 0)
(1.75048e-13 0 0)
(2.33397e-13 0 0)
(2.62571e-13 0 0)
(4.66794e-13 0 0)
(1.6046e-13 0 0)
(3.64683e-13 0 0)
(2.04222e-13 0 0)
(3.64683e-13 0 0)
(2.91746e-13 0 0)
(3.35508e-13 0 0)
(1.45873e-13 0 0)
(2.1881e-13 0 0)
(7.29365e-14 0 0)
(2.77159e-13 0 0)
(8.75238e-14 0 0)
(-1.45873e-14 0 0)
(-1.6046e-13 0 0)
(-4.37619e-14 0 0)
(-4.37619e-13 0 0)
(-1.89635e-13 0 0)
(-8.02302e-13 0 0)
(-6.71016e-13 0 0)
(-1.05029e-12 0 0)
(-1.29827e-12 0 0)
(-1.34203e-12 0 0)
(-1.22533e-12 0 0)
(-1.44414e-12 0 0)
(-1.42956e-12 0 0)
(-1.66295e-12 0 0)
(-1.96929e-12 0 0)
(-1.82341e-12 0 0)
(-2.24644e-12 0 0)
(-2.02763e-12 0 0)
(-2.21727e-12 0 0)
(-2.27562e-12 0 0)
(-1.98387e-12 0 0)
(-1.61919e-12 0 0)
(-1.85259e-12 0 0)
(-1.45873e-12 0 0)
(-1.47332e-12 0 0)
(-1.1524e-12 0 0)
(-1.0357e-12 0 0)
(-9.19e-13 0 0)
(-9.04413e-13 0 0)
(-4.66794e-13 0 0)
(-4.37619e-13 0 0)
(-1.6046e-13 0 0)
(-8.75238e-14 0 0)
(1.45873e-14 0 0)
(-1.45873e-14 0 0)
(2.1881e-13 0 0)
(1.45873e-14 0 0)
(1.31286e-13 0 0)
(2.1881e-13 0 0)
(2.47984e-13 0 0)
(4.95968e-13 0 0)
(5.25143e-13 0 0)
(8.75238e-13 0 0)
(7.5854e-13 0 0)
(9.48175e-13 0 0)
(8.75238e-13 0 0)
(1.0357e-12 0 0)
(8.60651e-13 0 0)
(1.05029e-12 0 0)
(1.09405e-12 0 0)
(1.09405e-12 0 0)
(1.38579e-12 0 0)
(1.23992e-12 0 0)
(9.19e-13 0 0)
(1.09405e-12 0 0)
(9.19e-13 0 0)
(8.46063e-13 0 0)
(6.41841e-13 0 0)
(6.85603e-13 0 0)
(3.64683e-13 0 0)
(3.06333e-13 0 0)
(7.29365e-14 0 0)
(8.75238e-14 0 0)
(-2.33397e-13 0 0)
(-1.89635e-13 0 0)
(-1.02111e-13 0 0)
(-1.02111e-13 0 0)
(-1.45873e-14 0 0)
(-1.45873e-14 0 0)
(4.37619e-14 0 0)
(8.75238e-14 0 0)
(2.77159e-13 0 0)
(3.93857e-13 0 0)
(2.04222e-13 0 0)
(3.20921e-13 0 0)
(2.62571e-13 0 0)
(1.6046e-13 0 0)
(1.45873e-14 0 0)
(1.89635e-13 0 0)
(-2.1881e-13 0 0)
(-1.45873e-14 0 0)
(-2.04222e-13 0 0)
(-4.52206e-13 0 0)
(-7.87714e-13 0 0)
(-9.91936e-13 0 0)
(-1.16698e-12 0 0)
(-1.28368e-12 0 0)
(-1.34203e-12 0 0)
(-1.35662e-12 0 0)
(-1.41497e-12 0 0)
(-1.61919e-12 0 0)
(-1.64836e-12 0 0)
(-1.7213e-12 0 0)
(-1.98387e-12 0 0)
(-1.80883e-12 0 0)
(-2.37773e-12 0 0)
(-2.04222e-12 0 0)
(-2.11516e-12 0 0)
(-1.85259e-12 0 0)
(-1.98387e-12 0 0)
(-1.51708e-12 0 0)
(-1.25451e-12 0 0)
(-9.04413e-13 0 0)
(-8.60651e-13 0 0)
(-4.08444e-13 0 0)
(-2.47984e-13 0 0)
(-1.02111e-13 0 0)
(4.37619e-14 0 0)
(1.75048e-13 0 0)
(1.31286e-13 0 0)
(2.77159e-13 0 0)
(2.77159e-13 0 0)
(3.64683e-13 0 0)
(4.23032e-13 0 0)
(5.25143e-13 0 0)
(3.06333e-13 0 0)
(3.06333e-13 0 0)
(1.02111e-13 0 0)
(-1.6046e-13 0 0)
(-5.25143e-13 0 0)
(-6.27254e-13 0 0)
(-8.60651e-13 0 0)
(-1.1524e-12 0 0)
(-1.19616e-12 0 0)
(-1.6046e-12 0 0)
(-1.91094e-12 0 0)
(-1.92552e-12 0 0)
(-2.1881e-12 0 0)
(-2.45067e-12 0 0)
(-2.26103e-12 0 0)
(-2.58195e-12 0 0)
(-2.49443e-12 0 0)
(-2.42149e-12 0 0)
(-2.4069e-12 0 0)
(-2.30479e-12 0 0)
(-1.98387e-12 0 0)
(-1.99846e-12 0 0)
(-1.51708e-12 0 0)
(-1.50249e-12 0 0)
(-1.29827e-12 0 0)
(-1.28368e-12 0 0)
(-9.04413e-13 0 0)
(-6.71016e-13 0 0)
(-4.08444e-13 0 0)
(-3.50095e-13 0 0)
(-5.83492e-14 0 0)
(2.98631e-26 0 0)
(7.29365e-14 0 0)
(2.1881e-13 0 0)
(-7.57306e-29 0 0)
(1.16698e-13 0 0)
(2.62571e-13 0 0)
(1.45873e-13 0 0)
(2.47984e-13 0 0)
(2.77159e-13 0 0)
(3.20921e-13 0 0)
(5.10556e-13 0 0)
(6.12667e-13 0 0)
(5.68905e-13 0 0)
(5.54317e-13 0 0)
(6.41841e-13 0 0)
(3.64683e-13 0 0)
(6.12667e-13 0 0)
(5.98079e-13 0 0)
(5.83492e-13 0 0)
(6.56429e-13 0 0)
(5.98079e-13 0 0)
(7.29365e-13 0 0)
(4.95968e-13 0 0)
(5.25143e-13 0 0)
(4.37619e-13 0 0)
(6.12667e-13 0 0)
(5.25143e-13 0 0)
(6.85603e-13 0 0)
(7.0019e-13 0 0)
(7.5854e-13 0 0)
(5.83492e-13 0 0)
(6.71016e-13 0 0)
(3.64683e-13 0 0)
(5.3973e-13 0 0)
(3.35508e-13 0 0)
(3.20921e-13 0 0)
(-1.89635e-13 0 0)
(-1.02111e-13 0 0)
(-6.56429e-13 0 0)
(-5.3973e-13 0 0)
(-1.18157e-12 0 0)
(-7.29365e-13 0 0)
(-1.51708e-12 0 0)