/*--------------------------------*- C++ -*----------------------------------*\
  =========                 |
  \\      /  F ield         | OpenFOAM: The Open Source CFD Toolbox
   \\    /   O peration     | Website:  https://openfoam.org
    \\  /    A nd           | Version:  9
     \\/     M anipulation  |
\*---------------------------------------------------------------------------*/
FoamFile
{
    format      ascii;
    class       surfaceScalarField;
    location    "1";
    object      alphaPhi0.phase1;
}
// * * * * * * * * * * * * * * * * * * * * * * * * * * * * * * * * * * * * * //

dimensions      [0 3 -1 0 0 0 0];

internalField   nonuniform List<scalar> 
19800
(
-3.0919875e-88
3.8343289e-88
-6.1729608e-87
1.7824541e-87
-1.3035166e-85
7.4017592e-86
-2.0658612e-85
3.0629043e-85
-1.3757834e-85
3.4299369e-85
-4.4249122e-86
1.2822384e-85
-6.5706765e-86
5.0925331e-86
-9.073504e-86
5.9146914e-86
-2.8267438e-83
1.057956e-83
-2.1692335e-80
7.4114667e-81
-1.4963188e-77
4.720027e-78
-9.3167165e-75
2.7333483e-75
-5.2739384e-72
1.4455129e-72
-2.7332765e-69
7.0167521e-70
-1.3052534e-66
3.1460099e-67
-5.7741905e-64
1.3084497e-64
-2.3767922e-61
5.0707114e-62
-9.1268897e-59
1.8348243e-59
-3.2787074e-56
6.2419673e-57
-1.1048925e-53
2.0011216e-54
-3.5002552e-51
6.0625998e-52
-1.0440592e-48
1.7459771e-49
-2.9349735e-46
4.7811304e-47
-7.7721686e-44
1.2476006e-44
-1.9338377e-41
3.0928363e-42
-4.4971019e-39
7.2444251e-40
-9.6934105e-37
1.5891456e-37
-1.9157401e-34
3.2240855e-35
-3.4284766e-32
5.9591554e-33
-5.4797447e-30
9.8711305e-31
-7.7074947e-28
1.4408881e-28
-9.3976009e-26
1.8230652e-26
-9.7674612e-24
1.9684076e-24
-8.5475705e-22
1.7878304e-22
-6.6147497e-20
1.3544644e-20
-4.7086793e-18
8.5445299e-19
-1.5102666e-16
3.972964e-17
-7.2100883e-16
1.2390186e-15
-3.5673553e-15
4.4203309e-14
-6.5812868e-13
1.6012064e-12
-2.6156868e-11
4.4946083e-11
-1.0208074e-08
1.1709283e-09
-5.7994732e-08
1.0337438e-08
-6.0978927e-08
1.7895868e-09
-6.0416141e-08
-6.2714545e-09
-1.2395323e-09
-1.171023e-10
-1.2322046e-09
-1.7187114e-10
-1.3240754e-09
-2.3478416e-10
-8.2003978e-09
-1.2543963e-09
-5.497195e-09
-2.1991677e-09
-4.5755911e-09
-2.5054583e-10
-1.7018768e-09
0
1.2317233e-09
-1.3375306e-09
4.0200663e-09
-2.2687807e-09
6.2493691e-09
-1.2880803e-09
3.2197779e-09
-9.3777633e-10
1.0658694e-09
-4.2249852e-10
1.0189462e-09
-3.4623543e-10
1.3941817e-09
-7.2546551e-10
7.7764282e-09
-6.6591254e-09
2.8694247e-07
-4.8320053e-08
1.3323161e-07
-1.3583573e-08
6.7275363e-09
2.2509756e-09
6.2638795e-09
1.7118996e-08
2.0071505e-09
5.6203914e-09
8.4161258e-10
3.1941349e-09
3.6718637e-10
2.3964009e-09
1.9836234e-12
3.7075322e-10
7.6569357e-14
2.3347342e-12
6.3993749e-15
8.9895301e-14
2.6015421e-15
3.5505484e-15
4.1293676e-16
6.6993345e-16
2.4032617e-17
8.0835021e-17
8.1621568e-19
4.7454148e-18
2.7953526e-20
2.0169425e-19
9.6847708e-22
7.681931e-21
3.0224458e-23
2.6229701e-22
8.2311993e-25
7.8781815e-24
1.9566576e-26
2.0755983e-25
4.0508962e-28
4.801003e-27
7.2615359e-30
9.7294078e-29
1.1192862e-31
1.7189494e-30
1.4721908e-33
2.6304396e-32
1.6380357e-35
3.4595623e-34
1.5263215e-37
3.8761365e-36
1.1770225e-39
3.6628928e-38
7.4060592e-42
2.8863469e-40
3.7373746e-44
1.8706482e-42
1.4806166e-46
9.8127704e-45
4.4802254e-49
4.082238e-47
9.978983e-52
1.3134378e-49
1.5504776e-54
3.160468e-52
1.5468868e-57
5.4356763e-55
8.3663635e-61
6.2367032e-58
2.5919916e-61
3.9619477e-61
2.5196141e-63
4.8378462e-62
-1.5114573e-61
1.6742258e-61
-1.463807e-59
3.5013724e-60
-2.7513732e-58
4.080393e-59
1.0245381e-58
-3.0405339e-88
4.4037246e-88
-3.4539771e-86
2.8251122e-86
-6.8145749e-85
9.5179019e-85
-1.4370358e-84
4.0902859e-84
-1.5925372e-84
5.3677736e-84
-1.0398118e-84
4.1380499e-84
-6.6356075e-85
2.2511582e-84
-7.8763192e-85
1.5235259e-84
-2.1252496e-83
1.127446e-83
-1.2146042e-80
5.1694036e-81
-7.8007041e-78
2.9123294e-78
-4.7598806e-75
1.6428398e-75
-2.6272548e-72
6.5441067e-73
-1.3210427e-69
2.3025401e-70
-6.1047982e-67
9.2027945e-68
-2.6074213e-64
3.558929e-65
-1.0340604e-61
1.298276e-62
-3.8259745e-59
4.4362091e-60
-1.3254063e-56
1.428264e-57
-4.313594e-54
4.3554382e-55
-1.3233466e-51
1.2643684e-52
-3.8348937e-49
3.5171246e-50
-1.0518625e-46
9.4102306e-48
-2.7312389e-44
2.4303243e-45
-6.7016034e-42
6.0529086e-43
-1.5472592e-39
1.4474028e-40
-3.3386554e-37
3.2991446e-38
-6.6706135e-35
7.0858503e-36
-1.2197555e-32
1.4121726e-33
-2.0131673e-30
2.5647573e-31
-2.9531527e-28
4.1629925e-29
-3.7874706e-26
5.9206126e-27
-4.1680248e-24
7.2369745e-25
-3.8796458e-22
7.4675052e-23
-3.1873466e-20
6.431228e-21
-2.3645724e-18
4.606057e-19
-9.2564229e-17
2.4684081e-17
-1.0962926e-15
8.0010721e-16
-2.6699173e-15
2.6921403e-14
0
1.2553984e-12
0
3.9839572e-11
-6.0193925e-09
1.4066033e-09
-3.3661909e-08
1.7411449e-08
-3.5937551e-08
8.1744553e-09
-4.4601364e-10
-5.9345387e-10
-4.684246e-10
-1.0601293e-10
-4.5118459e-10
-1.9867413e-10
-4.1845123e-10
-2.8152787e-10
-5.3102659e-10
-1.2055172e-09
-8.6730831e-10
-2.2254378e-09
-1.1021592e-09
-1.5106142e-09
-1.132861e-10
-8.4542671e-09
5.7717335e-10
0
5.6405718e-10
-2.42966e-09
6.8944363e-10
-1.4709402e-09
8.3173921e-10
-1.1416688e-09
9.7002348e-10
-6.2238185e-10
2.1076093e-09
-1.545446e-09
7.1058489e-09
-5.7271381e-09
2.4804137e-07
-2.8526875e-09
4.6793112e-07
-6.5278166e-08
5.0247226e-07
-2.6919469e-08
4.6151639e-07
6.5338176e-08
3.3283856e-08
8.0589155e-08
2.7473853e-09
3.6115762e-08
1.4215955e-08
1.4532382e-08
8.4882688e-09
1.3836422e-08
9.5708915e-10
2.9422816e-09
2.994094e-12
8.7535839e-11
1.2389425e-13
3.1870022e-12
5.035646e-15
1.3205954e-13
8.2946154e-16
5.1605515e-15
1.2692838e-16
5.2332422e-16
4.9064722e-18
4.3601573e-17
1.2094184e-19
1.7636944e-18
3.3942446e-21
5.6265642e-20
9.581151e-23
1.6808589e-21
2.4301696e-24
4.5956817e-23
5.403977e-26
1.1239145e-24
1.049408e-27
2.4361034e-26
1.7667915e-29
4.6407337e-28
2.5552665e-31
7.6997268e-30
3.1451925e-33
1.1026382e-31
3.2623718e-35
1.3496603e-33
2.8199756e-37
1.3971178e-35
2.0050555e-39
1.2084919e-37
1.1548395e-41
8.6107606e-40
5.2844719e-44
4.9614816e-42
1.8644477e-46
2.2441267e-44
4.8421586e-49
7.6990844e-47
8.8343996e-52
2.1736311e-49
1.0643147e-54
4.4514877e-52
7.4881539e-58
5.5022846e-55
5.0164057e-60
4.6444119e-58
1.0562334e-60
2.7613054e-59
-5.8219591e-60
2.3117945e-59
-8.2652189e-58
7.0221115e-58
-1.8569203e-56
1.0103678e-56
-2.9146741e-56
3.2433259e-56
2.258519e-56
-1.2396683e-85
5.1491191e-85
-3.4745468e-83
4.1916397e-83
-4.6049841e-82
9.8704442e-82
-8.2098817e-82
3.2921514e-81
-9.003573e-82
3.8917787e-81
-5.9859811e-82
2.8189928e-81
-2.722313e-82
1.4601382e-81
-3.2321476e-82
7.6463212e-82
-3.82627e-81
3.8637507e-81
-6.5184278e-79
6.1525635e-79
-9.2842134e-77
8.2711141e-77
-1.1416363e-74
9.1020627e-75
-1.5353863e-72
7.9706228e-73
-3.2518274e-70
1.313518e-70
-1.0793772e-67
3.7477405e-68
-4.3408587e-65
1.3434326e-65
-1.7227736e-62
5.0136834e-63
-6.3276312e-60
1.088851e-60
-2.1568e-57
1.7707543e-58
-6.8895015e-55
4.2830103e-56
-2.0768998e-52
1.182071e-53
-5.9343539e-50
3.2942969e-51
-1.6118315e-47
8.9776804e-49
-4.1672352e-45
2.3730933e-46
-1.0255452e-42
6.1098897e-44
-2.3968835e-40
1.5320062e-41
-5.2958561e-38
3.7266712e-39
-1.0978706e-35
8.7061856e-37
-2.113056e-33
1.925069e-34
-3.725452e-31
3.9555323e-32
-5.923109e-29
7.396839e-30
-8.3450511e-27
1.231528e-27
-1.0195869e-24
1.7858881e-25
-1.0636486e-22
2.209301e-23
-1.0152088e-20
2.304753e-21
-9.097719e-19
2.023945e-19
-3.6170035e-17
1.2748279e-17
-2.9931049e-16
4.9722676e-16
-6.1990332e-16
2.2464588e-14
-1.2477073e-13
1.3877369e-12
-2.6090798e-11
6.2307122e-11
-9.4617172e-09
4.3771681e-09
-2.4464382e-08
2.5234501e-08
-2.5583738e-08
1.452633e-08
-5.1788543e-10
4.3457223e-10
-5.5113491e-10
-8.2958247e-11
-5.2859965e-10
-2.3394692e-10
-8.7403265e-10
-6.500741e-10
-2.1986379e-09
-2.332187e-09
-8.2731908e-09
0
-1.2499358e-08
-1.0051388e-07
-2.7675e-09
-1.565763e-07
1.3919516e-09
-5.5981346e-08
7.5962092e-10
-2.0707645e-09
9.0922193e-10
-1.8745449e-09
1.4900904e-09
-1.8137017e-09
2.307316e-09
-1.5011804e-09
3.7986634e-08
-1.5976701e-08
6.6339174e-08
-6.6440678e-08
1.5452993e-07
-5.6897561e-08
4.6721945e-07
-5.4848345e-08
4.9061669e-07
-2.7623963e-08
4.9691373e-07
8.0246378e-08
4.0790122e-07
1.9229439e-07
9.8673387e-09
1.4889508e-07
1.6856076e-09
5.2863687e-08
6.3026562e-09
1.1421315e-08
0
1.1517491e-09
0
4.2581469e-11
0
2.2585955e-12
2.1007391e-15
1.1001349e-13
1.5061451e-15
6.8506386e-15
2.8860696e-16
1.0734935e-15
1.3786661e-17
1.0171641e-16
3.5078019e-19
4.5575223e-18
9.5693158e-21
1.4943192e-19
2.6383751e-22
4.4533118e-21
6.5159976e-24
1.1953741e-22
1.4010356e-25
2.8076653e-24
2.5958303e-27
5.6856877e-26
4.076394e-29
9.9428842e-28
5.4159515e-31
1.5793354e-29
6.0717425e-33
2.1534579e-31
5.6811906e-35
2.4903201e-33
4.3809869e-37
2.419191e-35
2.7414877e-39
1.9514912e-37
1.3648887e-41
1.2885862e-39
5.2739786e-44
6.8398426e-42
1.5465485e-46
2.8570834e-44
3.3814841e-49
9.1665501e-47
5.1718045e-52
2.0313042e-49
4.9298099e-55
3.2433042e-52
3.3392451e-58
3.3761853e-55
2.8584522e-59
8.8026724e-58
-9.1958927e-59
6.8799212e-58
-1.3662606e-56
2.7662222e-56
-9.8842775e-55
7.4679118e-55
-1.673591e-53
9.233134e-54
-3.063388e-53
2.856852e-53
2.1039433e-53
-9.6391043e-83
3.09292e-82
-2.13586e-80
3.4124222e-80
-2.0775791e-79
6.0487725e-79
-3.3373056e-79
1.6658282e-78
-3.6514034e-79
1.8589719e-78
-2.3824537e-79
1.3240091e-78
-1.05783e-79
6.7065111e-79
-1.2536384e-79
3.4449461e-79
-1.2533883e-78
1.4433453e-78
-2.2654429e-76
2.4222974e-76
-3.4805685e-74
3.4350905e-74
-4.687712e-72
4.2933983e-72
-5.6020164e-70
4.7860261e-70
-6.0007025e-68
4.8114409e-68
-5.8102755e-66
4.3817431e-66
-5.0501346e-64
3.5996113e-64
-3.9016865e-62
2.4417634e-62
-3.0552845e-60
1.3124145e-60
-3.5136211e-58
1.28173e-58
-7.0331991e-56
2.2148396e-56
-1.8982236e-53
5.4868326e-54
-5.4458495e-51
1.5188484e-51
-1.4983744e-48
2.4608832e-49
-3.885614e-46
2.5201583e-47
-9.5951755e-44
4.4143291e-45
-2.2701917e-41
1.0241664e-42
-5.145148e-39
2.5438424e-40
-1.1120325e-36
6.4406289e-38
-2.2735871e-34
1.6008667e-35
-4.3443388e-32
3.7601856e-33
-7.6368538e-30
8.2218778e-31
-1.2120311e-27
1.635311e-28
-1.6987346e-25
2.8828799e-26
-2.0632251e-23
4.3903672e-24
-2.2108464e-21
5.634814e-22
-2.0523986e-19
5.9244655e-20
-1.1034663e-17
4.9389749e-18
-2.0147652e-16
3.0839456e-16
0
1.4206885e-14
0
9.2850277e-13
0
5.927547e-11
-1.8119327e-08
5.1597633e-09
-1.9740419e-08
3.1545822e-08
-1.9471229e-08
2.0572577e-08
-6.3123217e-10
2.3685739e-09
-6.8549799e-10
-4.1460433e-11
-6.7833792e-10
-2.6877883e-10
0
-2.1167626e-09
-1.539695e-08
-6.6883994e-08
-1.037668e-07
-4.4653376e-07
-1.5301242e-07
-5.2788224e-07
-1.2757835e-07
-5.7178324e-07
5.3384679e-09
-6.1474535e-07
8.5235157e-10
-2.0410732e-07
1.7241228e-09
-5.1348081e-09
4.139447e-09
-4.6931169e-09
1.3645342e-08
-1.0988602e-08
1.7058515e-07
-7.8506479e-08
2.1315536e-07
-1.0065168e-07
1.8769305e-07
-8.57186e-08
2.1189873e-07
-5.7806807e-08
3.2426736e-07
-9.9161156e-09
4.5369106e-07
4.6861981e-08
4.5892597e-07
2.1512271e-07
3.5135865e-07
2.8840862e-07
0
2.370784e-07
0
9.921119e-09
0
4.0100839e-10
0
2.4800465e-11
0
1.3887143e-12
1.1190142e-14
6.8994274e-14
2.8878178e-15
8.1980653e-15
3.7924631e-16
1.4421908e-15
1.8323968e-17
1.3073966e-16
4.6754475e-19
6.4955582e-18
1.1862248e-20
2.065327e-19
3.0775374e-22
5.6808781e-21
7.1008258e-24
1.4270522e-22
1.3929287e-25
3.2771641e-24
2.348991e-27
6.5145779e-26
3.4471852e-29
1.1274398e-27
4.3319143e-31
1.6279132e-29
4.5767322e-33
2.0224987e-31
4.0265691e-35
2.1351375e-33
2.9093405e-37
1.8907234e-35
1.696022e-39
1.3846073e-37
7.8005633e-42
8.2465304e-40
2.7473812e-44
3.915493e-42
7.0510424e-47
1.4397502e-44
1.2120968e-49
3.7449824e-47
1.2592841e-52
6.3802603e-50
6.1307755e-56
6.4312756e-53
2.6493778e-58
1.2014568e-55
-1.7315495e-57
1.3886072e-56
-2.160749e-55
6.4017453e-55
-1.7691686e-53
2.3369168e-53
-8.8707016e-52
5.6431094e-52
-1.1797982e-50
5.9660445e-51
-2.2439231e-50
1.6601486e-50
1.1059756e-50
-3.779194e-80
1.3119594e-79
-7.9748158e-78
1.6246074e-77
-6.7772589e-77
2.527039e-76
-1.0263641e-76
6.2765389e-76
-1.1306656e-76
6.7576736e-76
-7.3400047e-77
4.7850501e-76
-3.2050432e-77
2.3930338e-76
-3.8025001e-77
1.2087148e-76
-3.2196306e-76
4.2174805e-76
-6.2037211e-74
7.5466294e-74
-1.0015288e-71
1.1234822e-71
-1.4019841e-69
1.4573407e-69
-1.7332491e-67
1.6768376e-67
-1.9140694e-65
1.7303113e-65
-1.9075389e-63
1.616815e-63
-1.7269617e-61
1.3780232e-61
-1.4302656e-59
1.07878e-59
-1.0881458e-57
7.797001e-58
-7.6424892e-56
5.2283147e-56
-5.009299e-54
3.2711018e-54
-3.0323204e-52
1.8939304e-52
-1.5751487e-50
9.2658908e-51
-7.2489245e-49
3.3145969e-49
-4.4356899e-47
1.8158461e-47
-5.0177738e-45
1.93418e-45
-8.5404001e-43
3.4378978e-43
-1.8104432e-40
7.7032549e-41
-4.2780042e-38
1.8860374e-38
-9.6317903e-36
7.2091597e-37
-2.0184312e-33
9.4894398e-35
-3.9719683e-31
2.4617991e-32
-7.2328283e-29
6.2673801e-30
-1.1904865e-26
1.4255686e-27
-1.7252417e-24
2.8321061e-25
-2.1518259e-22
4.7572047e-23
-2.2975434e-20
6.5161156e-21
-1.9098237e-18
7.3491459e-19
-6.7527474e-17
6.6450283e-17
0
3.3748349e-15
0
2.3133749e-13
0
1.737383e-11
-2.9280057e-09
9.0555058e-10
-1.3894639e-08
1.3478535e-08
-9.9596911e-09
2.3155229e-08
-5.940415e-10
3.1167198e-09
-6.8991993e-10
2.674256e-11
-8.7396514e-10
-1.3857321e-10
-1.7710061e-09
-1.7984238e-09
-3.4678932e-07
-7.1430334e-08
-3.4209092e-07
-4.0203173e-07
-2.7569561e-07
-5.4440199e-07
-1.6589761e-07
-6.310159e-07
-1.2006366e-08
-7.1347232e-07
3.7404516e-08
-6.1983613e-07
2.1035946e-09
-3.1131237e-07
1.5680165e-08
-1.0072549e-07
6.1887873e-08
-4.4210946e-08
1.7944501e-07
-1.3558046e-07
2.0971501e-07
-1.2568895e-07
2.2549097e-07
-9.7461342e-08
2.3760735e-07
-6.5576215e-08
8.0015963e-08
-7.1784763e-09
1.9615873e-07
2.7589746e-09
4.1627019e-07
1.2658326e-07
4.2505614e-07
3.0861628e-07
7.3946959e-08
2.658929e-07
4.6309613e-10
1.9085264e-08
2.0045794e-11
9.8101037e-10
0
4.5750568e-11
8.0305939e-15
1.8955228e-12
6.5129187e-15
7.3972378e-14
1.8274225e-15
4.9528362e-15
3.0025202e-16
9.7773467e-16
2.0979097e-17
1.3804937e-16
5.9053004e-19
8.7646989e-18
1.2174778e-20
2.7133044e-19
2.6818313e-22
6.6023695e-21
5.6809198e-24
1.5092862e-22
1.049476e-25
3.0777987e-24
1.6524793e-27
5.517324e-26
2.2050991e-29
8.4790535e-28
2.4852101e-31
1.1061972e-29
2.3437409e-33
1.2205611e-31
1.8180975e-35
1.1245477e-33
1.1372516e-37
8.5084119e-36
5.5939651e-40
5.1750132e-38
2.0927025e-42
2.4616021e-40
5.6749725e-45
8.8234703e-43
1.031451e-47
2.2561263e-45
1.0899269e-50
3.8061064e-48
4.4355962e-54
3.4179337e-51
-4.0767381e-57
1.2954915e-53
-4.4053152e-56
3.3905124e-55
-3.0504143e-54
9.5232694e-54
-2.4921929e-52
4.5040958e-52
-1.6147864e-50
1.520556e-50
-6.2346814e-49
3.2592244e-49
-6.7094554e-48
2.9036052e-48
-1.2576303e-47
6.7957563e-48
3.18557e-48
-9.3533559e-78
4.218067e-77
-2.1088741e-75
5.474882e-75
-1.7095004e-74
7.9988585e-74
-2.518762e-74
1.8791106e-73
-2.8143011e-74
1.9774177e-73
-1.8341228e-74
1.4001081e-73
-7.8651163e-75
6.952133e-74
-9.3630399e-75
3.4435807e-74
-6.430231e-74
9.4932564e-74
-1.3585236e-71
1.8689217e-71
-2.3419747e-69
2.9716653e-69
-3.4478643e-67
4.0475611e-67
-4.4336229e-65
4.8330559e-65
-5.0575749e-63
5.1384662e-63
-5.176898e-61
4.9176339e-61
-4.7938267e-59
4.2724772e-59
-4.0357506e-57
3.3895659e-57
-3.1069923e-55
2.4703218e-55
-2.2019822e-53
1.6638476e-53
-1.4496288e-51
1.0411052e-51
-8.8143471e-50
6.0723255e-50
-4.6740561e-48
3.2628531e-48
-2.0481292e-46
1.5900544e-46
-8.9094421e-45
7.4712701e-45
-6.2609978e-43
4.2236651e-43
-5.9061834e-41
3.2458174e-41
-2.6909719e-39
1.9146535e-39
-3.7111744e-38
3.9429724e-38
-3.8134153e-37
4.8270711e-37
-1.9303358e-35
1.9640024e-35
-4.359273e-33
4.7519074e-33
-9.8372098e-31
1.1714235e-31
-1.9208683e-28
1.4292075e-29
-3.284468e-26
3.9153828e-27
-4.7668106e-24
9.5039672e-25
-5.7658254e-22
1.895862e-22
-6.1709357e-20
3.1103339e-20
-3.1161139e-18
4.1531443e-18
0
3.2628738e-16
0
2.0025527e-14
4.8558204e-12
1.6689294e-12
1.2067422e-10
3.1836114e-11
-1.4952426e-09
1.8011581e-10
-6.4325577e-09
8.3480984e-09
-3.018832e-10
2.8487214e-09
-4.5060487e-10
1.2159491e-10
-6.2761391e-10
-1.4897707e-11
-1.7513904e-09
-4.4467809e-10
-9.1933974e-08
-1.0373449e-08
-2.2885762e-07
-7.5624455e-08
-2.6439854e-07
-4.5965308e-07
-1.9777492e-07
-6.4418845e-07
-7.091842e-08
-7.8052656e-07
6.2937449e-08
-6.5060225e-07
6.7941929e-08
-1.0183024e-06
3.8558609e-08
-4.411941e-07
8.464428e-08
-1.2773195e-07
1.5970626e-07
-7.2962926e-08
2.11786e-07
-1.1918672e-07
1.8251592e-07
-6.2958531e-08
1.1566558e-07
-3.2390396e-08
2.2888542e-08
-1.8265554e-09
2.3203552e-08
2.3581741e-09
1.6547365e-07
1.4476815e-08
3.1098312e-07
1.8914779e-07
5.8095211e-08
2.6659235e-07
0
2.7298437e-08
2.5379392e-11
2.1453823e-09
5.5842554e-14
7.5380492e-11
4.3862405e-15
2.8938995e-12
2.7675636e-15
1.0381307e-13
9.7458588e-16
4.6155155e-15
3.3256661e-16
9.9876065e-16
3.7315412e-17
1.9867244e-16
9.7123975e-19
1.3816839e-17
1.3638274e-20
3.8295933e-19
2.3811529e-22
8.1519004e-21
4.3981172e-24
1.6629396e-22
7.1944319e-26
2.9055905e-24
1.0089696e-27
4.5232198e-26
1.1948159e-29
6.1195152e-28
1.1797052e-31
7.0343678e-30
9.5641301e-34
6.7489459e-32
6.2287033e-36
5.3022876e-34
3.168188e-38
3.3298549e-36
1.2104026e-40
1.620103e-38
3.2778119e-43
5.8435545e-41
5.7208162e-46
1.4638105e-43
5.3137409e-49
2.2963158e-46
1.1456225e-52
1.8991096e-49
-5.7656357e-55
6.6177697e-52
-5.8017949e-54
8.5501396e-54
-3.3199986e-53
9.7506341e-53
-3.0178276e-51
5.9618336e-51
-2.0505172e-49
2.569493e-49
-1.1424356e-47
8.000044e-48
-3.5475472e-46
1.4953438e-46
-3.1617636e-45
1.0925124e-45
-5.6784303e-45
1.9149592e-45
-6.8802937e-48
-1.4242829e-75
1.2000799e-74
-4.161275e-73
1.4362239e-72
-3.442821e-72
2.0416445e-71
-5.0774212e-72
4.6583717e-71
-5.7881518e-72
4.8350875e-71
-3.8357584e-72
3.4376003e-71
-1.5935119e-72
1.7020377e-71
-1.908313e-72
8.1494178e-72
-9.561644e-72
1.559124e-71
-2.3551444e-69
3.6312254e-69
-4.4710079e-67
6.3880071e-67
-7.0365385e-65
9.2972226e-65
-9.5189942e-63
1.1652425e-62
-1.1305657e-60
1.285507e-60
-1.1949512e-58
1.266036e-58
-1.1351268e-56
1.1239731e-56
-9.761888e-55
9.0645422e-55
-7.6322838e-53
6.6758257e-53
-5.4616417e-51
4.5138496e-51
-3.5995481e-49
2.8157442e-49
-2.1717522e-47
1.624399e-47
-1.1546594e-45
8.594444e-46
-5.2483419e-44
4.1402473e-44
-2.2477143e-42
1.893924e-42
-1.1726425e-40
9.3817174e-41
-7.7141116e-39
5.5457486e-39
-3.97733e-37
3.1094871e-37
-1.0219578e-35
1.1094232e-35
-1.0773275e-34
2.0922012e-34
-5.3669561e-34
2.1542444e-33
-1.8802295e-33
1.2220664e-32
-6.7914445e-33
8.1667987e-32
5.1408625e-33
3.1922523e-30
8.0943853e-29
5.4397325e-28
3.6719595e-26
9.749736e-26
1.0692573e-23
8.3059233e-24
2.3454642e-21
6.8792575e-22
3.8327041e-19
1.1014382e-19
4.257489e-17
1.6044728e-17
8.7385555e-15
9.5039139e-16
1.5169761e-12
5.3400112e-14
3.0107978e-11
2.1448492e-12
2.1142821e-10
2.1823848e-11
4.9630559e-10
5.7367614e-11
-3.4226373e-10
5.0108578e-11
-7.0647546e-10
9.5486805e-10
-5.0030332e-10
5.1831814e-11
-8.2179437e-10
-3.1129654e-10
-1.5243601e-09
-8.4319979e-09
-5.0204076e-08
-2.4192976e-08
-3.5913451e-08
-5.7323616e-08
-3.941988e-08
-3.455071e-08
-2.2842686e-08
-3.300449e-08
4.8122251e-08
-3.3523613e-08
1.1998273e-07
-2.6814595e-07
1.9908584e-07
-1.4836893e-07
6.7387626e-08
-2.0418629e-08
3.2878465e-08
-1.2979645e-07
2.060134e-08
-4.0818175e-08
3.0295565e-08
-1.6975797e-08
5.4474497e-09
-2.7147649e-09
3.7579917e-09
-1.9064433e-10
5.0694058e-09
1.0383417e-09
1.6816483e-08
2.7990593e-09
1.4566268e-07
1.3102068e-07
1.9390972e-08
4.9653465e-07
0
5.4694035e-08
0
2.9975578e-09
0
9.4159137e-11
8.0671465e-15
3.5271905e-12
3.2178634e-15
1.1635221e-13
1.1619739e-15
6.8888865e-15
3.3151459e-16
1.5640476e-15
2.6850929e-17
2.1523819e-16
6.3586614e-19
1.090507e-17
9.9850544e-21
3.0044497e-19
1.763615e-22
6.7175473e-21
3.0362638e-24
1.3212287e-22
4.438715e-26
2.2135979e-24
5.4399642e-28
3.1267236e-26
5.5876709e-30
3.7389886e-28
4.7090711e-32
3.7371619e-30
3.1693431e-34
3.0541918e-32
1.6487522e-36
1.9854396e-34
6.3301693e-39
9.9110056e-37
1.6695831e-41
3.6153122e-39
2.6551803e-44
8.940464e-42
1.8270659e-47
1.3241505e-44
-1.7003432e-51
1.0298632e-47
-5.1323083e-53
5.4834355e-51
-8.6900129e-53
4.3503876e-52
-2.7410751e-52
7.3659812e-52
-2.9340279e-50
5.7659873e-50
-2.1914386e-48
3.1027221e-48
-1.3395199e-46
1.2294868e-46
-6.5738403e-45
3.4869593e-45
-1.6767341e-43
5.5459228e-44
-1.2301727e-42
3.1538721e-43
-2.2068128e-42
2.812566e-43
-5.9844909e-43
-6.2471439e-74
6.1160564e-72
-6.0716057e-71
3.1023824e-70
-5.5588005e-70
4.3631891e-69
-8.5276217e-70
9.8389363e-69
-1.0000337e-69
1.0140479e-68
-6.9211889e-70
7.2708068e-69
-2.8409858e-70
3.6294612e-69
-2.7401711e-70
1.5559447e-69
-8.7286524e-70
1.3942758e-69
-3.0130243e-67
5.0769479e-67
-6.7339139e-65
1.0759268e-64
-1.1695019e-62
1.7339436e-62
-1.6935989e-60
2.3230237e-60
-2.117895e-58
2.6893801e-58
-2.3328254e-56
2.7472402e-56
-2.2913619e-54
2.5088642e-54
-2.022477e-52
2.0648803e-52
-1.6152772e-50
1.5424607e-50
-1.1737023e-48
1.050438e-48
-7.7942061e-47
6.5509556e-47
-4.6888431e-45
3.7421213e-45
-2.4888273e-43
1.9456663e-43
-1.1612458e-41
9.2085635e-42
-5.1015509e-40
4.1131295e-40
-2.2831111e-38
1.8646795e-38
-9.9104797e-37
8.7478623e-37
-3.9277508e-35
3.9314266e-35
-1.2484245e-33
1.5421228e-33
-1.8410521e-32
4.3633131e-32
-4.8022306e-32
6.4823061e-31
4.0286536e-31
4.6813522e-30
3.5484993e-30
2.0784163e-29
2.230919e-29
9.0317363e-29
4.40231e-28
9.1509739e-28
6.1127455e-26
8.7782864e-26
4.9229554e-24
6.7871072e-24
2.5403004e-22
3.3587062e-22
2.8516057e-20
1.7255311e-20
4.5268815e-18
5.5574442e-19
3.7674128e-16
4.9532979e-17
5.2174641e-14
8.1763559e-16
2.0872766e-12
9.3232452e-14
2.0059865e-11
1.5880703e-12
5.9629771e-11
5.6281536e-12
1.0737965e-10
7.935056e-12
2.893173e-10
1.3421482e-10
0
3.256581e-10
-3.5495398e-09
-3.0744976e-10
-4.4979503e-09
-1.8760365e-08
-6.7813217e-09
-5.156213e-09
-4.0248624e-09
-4.4490839e-08
-1.8137716e-09
-3.7155582e-08
1.1377851e-09
-3.634664e-08
4.4352442e-09
-3.7307562e-08
2.2089869e-08
-3.4545961e-08
1.8341778e-07
-6.765164e-08
3.1781276e-07
-3.3409816e-07
1.9981378e-07
-6.3321706e-07
1.0145224e-08
-1.2620251e-07
3.8017635e-09
-1.1272542e-08
2.7105261e-09
-1.6654599e-09
2.5517181e-09
-4.0254238e-11
2.5199775e-09
1.0645922e-09
3.2039036e-09
2.1150466e-09
2.789319e-07
1.7537023e-07
1.5862051e-07
9.0766047e-07
0
1.7162089e-07
0
3.4445755e-09
0
1.4074582e-10
0
5.3624248e-12
5.0272961e-15
1.7655632e-13
1.5221022e-15
1.4568438e-14
2.3154136e-16
1.9035768e-15
1.2138538e-17
1.5109668e-16
2.7547461e-19
5.6775987e-18
5.0437872e-21
1.527842e-19
8.9744875e-23
3.4335409e-21
1.4067764e-24
6.3842385e-23
1.8377127e-26
9.8883506e-25
1.9672749e-28
1.2636004e-26
1.714705e-30
1.324495e-28
1.1845633e-32
1.121997e-30
6.2364025e-35
7.4840508e-33
2.3620434e-37
3.7856966e-35
5.848801e-40
1.3738795e-37
7.6904517e-43
3.2822728e-40
1.8228214e-46
4.6301006e-43
-3.7913043e-49
3.1404361e-46
-7.909543e-52
1.2537294e-49
-6.1995906e-52
3.9029932e-51
-1.8213882e-51
4.2149595e-51
-2.2592824e-49
4.3278137e-49
-1.9500645e-47
2.8452379e-47
-1.2898316e-45
1.3798966e-45
-7.2753903e-44
5.0240979e-44
-3.1549726e-42
1.2721499e-42
-6.6404866e-41
1.65994e-41
-4.206744e-40
6.4795159e-41
-7.3775061e-40
-5.6484516e-41
-3.9092506e-40
6.9694885e-71
7.9551834e-69
-5.7956822e-69
5.9690604e-68
-7.0733127e-68
8.0172732e-67
-1.1868636e-67
1.8095895e-66
-1.4568379e-67
1.8603574e-66
-1.0693715e-67
1.3472216e-66
-5.5475929e-68
6.8290811e-67
-6.6472488e-69
2.5804329e-67
-3.3509187e-68
4.0322354e-68
-2.4277038e-65
4.0630028e-65
-7.4683336e-63
1.3014299e-62
-1.5165115e-60
2.5021098e-60
-2.4166026e-58
3.6951369e-58
-3.2311618e-56
4.5604528e-56
-3.7446758e-54
4.8784203e-54
-3.8319476e-52
4.6117277e-52
-3.4992102e-50
3.8981679e-50
-2.8688139e-48
2.9648815e-48
-2.1287739e-46
2.0416899e-46
-1.4335181e-44
1.2770247e-44
-8.6838612e-43
7.2497168e-43
-4.6392863e-41
3.7122688e-41
-2.202179e-39
1.7162227e-39
-9.7728243e-38
7.389189e-38
-4.0041368e-36
3.0678098e-36
-1.3396988e-34
1.2079081e-34
-4.0396556e-33
4.4734981e-33
-1.2750305e-31
1.7557501e-31
-8.2569821e-31
6.6274305e-30
3.3327354e-29
1.3100355e-28
4.1357901e-28
1.0350103e-27
1.7381543e-27
3.9291711e-27
5.4556182e-27
1.1174886e-26
3.0954123e-26
5.1598737e-26
4.5672676e-24
6.6110298e-24
2.3793917e-22
3.6022048e-22
2.5092428e-21
3.8319225e-21
1.8277979e-20
1.488432e-20
3.5744351e-19
2.6640394e-19
2.7671321e-17
4.9711484e-18
1.14282e-15
1.4147754e-16
9.2805071e-14
3.9850285e-15
1.4817342e-12
1.2168007e-13
6.1039305e-12
9.8339079e-13
5.6410123e-12
8.2645967e-12
8.7551351e-11
0
1.8821575e-09
9.9632235e-11
4.611404e-09
3.5433737e-10
6.6168286e-09
-1.7790183e-08
1.7014021e-09
-4.3221561e-08
3.0447599e-09
-6.6196439e-08
3.8681653e-09
-3.8825558e-08
5.3363633e-09
-3.8385e-08
7.3400922e-09
-3.9714519e-08
8.983929e-09
-3.6850782e-08
8.2631809e-08
-1.4032515e-07
2.599086e-07
-6.3653487e-07
2.5898531e-07
-6.3451253e-07
4.4616132e-08
-4.883456e-07
1.9148739e-09
-2.4043571e-08
1.5629028e-09
-1.3404014e-09
1.3925118e-09
1.2464654e-10
1.3164426e-09
1.1368442e-09
1.3345764e-09
2.0912802e-09
1.4607729e-07
5.2388912e-07
1.3323153e-07
9.0622582e-07
0
2.5446719e-07
0
2.5266121e-09
0
1.085106e-10
0
4.971813e-12
6.421299e-15
2.0996287e-13
1.2783806e-15
1.7211047e-14
1.1755203e-16
1.6854291e-15
4.1549447e-18
7.8745835e-17
8.5879382e-20
2.2631534e-18
1.6250382e-21
5.3599835e-20
2.7239179e-23
1.0767723e-21
3.7678317e-25
1.7686254e-23
4.243388e-27
2.3739279e-25
3.8189698e-29
2.5924389e-27
2.6742682e-31
2.2583676e-29
1.3955639e-33
1.5276841e-31
5.0367322e-36
7.7206386e-34
1.0862774e-38
2.743384e-36
8.4115323e-42
6.3221129e-39
-8.6455802e-45
8.4389247e-42
-1.9590728e-47
6.2142102e-45
-1.4165797e-50
2.7090726e-48
-3.8692721e-51
4.4357673e-50
-1.0487169e-50
2.223557e-50
-1.4243449e-48
2.6789218e-48
-1.4220008e-46
2.0784499e-46
-1.0609421e-44
1.2092868e-44
-6.4119883e-43
5.3201885e-43
-3.3590526e-41
1.7649047e-41
-1.2787527e-39
3.8849701e-40
-2.220521e-38
3.9040212e-39
-1.3101954e-37
6.0353994e-39
-2.1728237e-37
-6.1976588e-38
-1.7065404e-37
2.1795485e-67
1.0733286e-65
-6.8676531e-68
1.3610524e-65
-6.3520213e-66
1.2953966e-64
-1.3102377e-65
2.9431892e-64
-1.7639536e-65
3.0315247e-64
-1.3747107e-65
2.2198722e-64
-7.4960206e-66
1.1332619e-64
-4.7588524e-67
4.2590291e-65
-9.1171089e-67
3.570014e-66
-6.5544796e-64
1.0430888e-63
-3.07782e-61
5.7807852e-61
-7.7301076e-59
1.4297762e-58
-1.4081141e-56
2.4133439e-56
-2.0684604e-54
3.264536e-54
-2.5714178e-52
3.725497e-52
-2.7818824e-50
3.697698e-50
-2.6655135e-48
3.2492406e-48
-2.2812821e-46
2.5529628e-46
-1.7519955e-44
1.8012965e-44
-1.2127606e-42
1.1459414e-42
-7.5779591e-41
6.5800425e-41
-4.287543e-39
3.4087832e-39
-2.1761499e-37
1.5871164e-37
-9.3520967e-36
6.5236092e-36
-3.0809727e-34
2.31874e-34
-8.1827489e-33
7.412329e-33
-3.3245797e-31
2.7248637e-31
-2.0499604e-29
1.7947292e-29
4.0024604e-28
1.1780752e-27
2.7333772e-26
2.8202254e-26
2.2347292e-25
2.1646607e-25
6.3379713e-25
7.1886815e-25
1.2678035e-24
1.5203634e-24
4.2345086e-24
4.414813e-24
5.3804972e-22
4.5721501e-22
1.7303822e-20
1.6263758e-20
1.2565636e-19
1.3953226e-19
3.8202541e-19
4.9317791e-19
9.1049976e-19
9.6546712e-19
6.861376e-18
3.6500244e-18
1.4132875e-16
5.6799659e-17
8.0417168e-15
1.7359544e-15
1.222102e-13
6.0802743e-15
1.0251666e-12
5.8146792e-14
8.8186276e-12
4.7138887e-13
6.3905865e-10
8.7963824e-10
2.1262745e-09
1.3491563e-10
2.1713469e-08
6.4038207e-10
2.6194191e-08
-2.0725816e-08
2.5250342e-08
-4.1416563e-08
2.5636653e-08
-6.5296018e-08
1.0541366e-08
-4.5584357e-08
1.0004125e-08
-3.8422715e-08
1.383623e-08
-4.3265588e-08
2.0613328e-08
-4.2655788e-08
1.7380078e-07
-2.2710292e-07
2.2787008e-07
-6.9037694e-07
1.7160162e-07
-5.7517389e-07
1.1342045e-07
-4.3435095e-07
1.2597844e-09
-1.8469262e-08
4.7332205e-10
-5.6808709e-10
1.8399073e-10
3.9947935e-10
7.0113964e-11
1.2466554e-09
6.6378851e-09
2.0527475e-07
-8.380218e-09
7.6660358e-07
1.140787e-08
8.7036972e-07
0
2.5243179e-07
0
1.4649999e-09
0
6.6572756e-11
0
2.934531e-12
4.5820019e-15
1.3822162e-13
6.4712371e-16
1.1885087e-14
3.8145108e-17
7.5507684e-16
9.3157411e-19
2.4626082e-17
1.75111e-20
5.720803e-19
3.0483963e-22
1.1392166e-20
4.4489606e-24
1.9090943e-22
5.186983e-26
2.6221356e-24
4.7635397e-28
2.9147716e-26
3.3405246e-30
2.5842993e-28
1.6838306e-32
1.7727246e-30
5.4432567e-35
8.9962964e-33
7.9952216e-38
3.197281e-35
-6.5242376e-41
7.4409458e-38
-4.0883031e-43
1.0484064e-40
-5.8535932e-46
1.0245146e-43
-3.891298e-49
5.2285527e-47
-3.7420433e-50
9.315202e-49
-7.2245309e-50
1.8833947e-49
-7.7077779e-48
1.4359063e-47
-8.6516751e-46
1.2676926e-45
-7.3834233e-44
8.6288898e-44
-4.9039649e-42
4.4841895e-42
-2.7436755e-40
1.7887627e-40
-1.3264373e-38
5.3264138e-39
-4.3597509e-37
9.819513e-38
-6.7471335e-36
6.6032331e-37
-3.634522e-35
-2.1561772e-36
-5.7501187e-35
-2.8222501e-35
-5.9568043e-35
3.8681961e-64
1.1512349e-62
9.7980564e-65
6.4060541e-63
-1.257452e-64
1.9071875e-62
-9.7192585e-64
4.2811542e-62
-1.6783432e-63
4.4434095e-62
-1.4568789e-63
3.2943041e-62
-9.4026459e-64
1.7118664e-62
-3.764273e-65
7.1776358e-63
-5.1085086e-65
3.6017332e-64
-1.0000286e-62
2.0958363e-62
-1.1910303e-59
1.7270147e-59
-6.0930906e-57
1.1491331e-56
-1.5819164e-54
2.9930055e-54
-2.7745686e-52
4.9120824e-52
-3.8460745e-50
6.2333336e-50
-4.4944195e-48
6.6330372e-48
-4.5618836e-46
6.1200351e-46
-4.0924512e-44
4.9809798e-44
-3.2713647e-42
3.6083305e-42
-2.3405926e-40
2.3315088e-40
-1.5012815e-38
1.3443798e-38
-8.6225434e-37
6.8850036e-37
-4.3969045e-35
3.0984784e-35
-1.9112279e-33
1.1998774e-33
-6.5323294e-32
3.8525005e-32
-1.7805869e-30
1.0045169e-30
-5.1864452e-29
2.2444684e-29
-3.2174563e-27
3.7387041e-28
1.355434e-25
-6.6036112e-26
6.0475865e-24
-8.818223e-25
4.1713952e-23
5.8848521e-24
1.1458107e-22
4.3437405e-23
1.8788121e-22
1.1017418e-22
3.4594017e-22
2.327694e-22
1.8251504e-20
9.0033358e-21
4.4091211e-19
2.5634396e-19
2.8662601e-18
2.014899e-18
9.1455986e-18
7.8580591e-18
1.8409392e-17
1.7362282e-17
3.8584783e-17
3.3931663e-17
1.0473631e-16
4.5092071e-17
1.1197371e-15
3.1221616e-16
6.327949e-15
6.6206215e-16
5.9249591e-14
4.5314686e-15
5.0840443e-13
2.1522639e-14
1.9538433e-09
1.1126536e-09
3.3973994e-09
1.8985744e-10
3.4461822e-08
-8.7822875e-12
4.0445765e-08
-2.2013389e-08
4.1274303e-08
-4.0476674e-08
4.1067424e-08
-6.476186e-08
1.828167e-08
-6.7726601e-08