/*--------------------------------*- C++ -*----------------------------------*\
  =========                 |
  \\      /  F ield         | OpenFOAM: The Open Source CFD Toolbox
   \\    /   O peration     | Website:  https://openfoam.org
    \\  /    A nd           | Version:  9
     \\/     M anipulation  |
\*---------------------------------------------------------------------------*/
FoamFile
{
    format      ascii;
    class       volScalarField;
    location    "1";
    object      p;
}
// * * * * * * * * * * * * * * * * * * * * * * * * * * * * * * * * * * * * * //

dimensions      [1 -1 -2 0 0 0 0];

internalField   nonuniform List<scalar> 
10000
(
0
-0.0043829194
-0.013858279
-0.026772643
-0.04355009
-0.064153177
-0.088446595
-0.11639362
-0.14777715
-0.18259707
-0.22069312
-0.26196164
-0.30636934
-0.35369841
-0.40388143
-0.45679516
-0.51222508
-0.57010096
-0.6302598
-0.69242752
-0.75640578
-0.82192406
-0.88858331
-0.95598105
-1.0236225
-1.0908668
-1.1570842
-1.2216949
-1.2839232
-1.3428541
-1.3976028
-1.4474078
-1.4917682
-1.5308318
-1.5660456
-1.6007004
-1.641627
-1.7029576
-1.8005917
-1.9549113
-2.2485366
-2.8077625
-3.5933155
-4.2283882
-4.693541
-4.9404561
-4.332708
-3.2035176
-1.7352965
0.024440755
1.7234201
3.2126603
4.3736904
5.079966
5.3113485
5.0448435
4.3453321
3.5575586
2.8421129
2.3165803
2.6371753
2.3520347
3.602717
4.1403217
4.1821352
4.188072
4.0642552
3.9268743
3.8499907
3.8209219
3.8237357
3.8467194
3.876921
3.9045358
3.9250789
3.936802
3.9391642
3.93243
3.9174533
3.8953198
3.8672128
3.8343218
3.7978174
3.7588338
3.7184255
3.6775447
3.6370456
3.5975649
3.5597095
3.5239026
3.4905525
3.4599318
3.4321842
3.4074576
3.385886
3.3675749
3.352638
3.3414873
3.332931
3.3274313
0.0041193323
-0.00057570413
-0.010307698
-0.023276656
-0.040207643
-0.060847475
-0.085308625
-0.1133142
-0.14488709
-0.17984966
-0.21806952
-0.25955824
-0.3040938
-0.35161093
-0.40202273
-0.45510407
-0.51078899
-0.56896603
-0.62940052
-0.69194414
-0.75642543
-0.82254532
-0.89004542
-0.95868098
-1.0280515
-1.0977277
-1.1673675
-1.2365889
-1.3049356
-1.372046
-1.437739
-1.5020903
-1.5657401
-1.6303668
-1.6992661
-1.7781259
-1.8765984
-2.0109001
-2.2050211
-2.5076194
-3.0298872
-3.8392498
-4.79742
-5.4066674
-6.126103
-6.0693717
-5.4510091
-4.2870126
-2.7010184
-0.877203
0.95281776
2.5463673
3.8657407
4.6557393
4.8213125
4.5235744
3.8537891
2.9663162
2.2576484
1.8605772
2.1009991
2.5538655
2.5774572
2.8218667
3.3310554
3.3153373
3.3867992
3.4138803
3.438333
3.5331716
3.6162051
3.6882585
3.746914
3.7928673
3.8267062
3.848669
3.8594092
3.8598905
3.8513343
3.8350473
3.8123807
3.7845899
3.7529164
3.7185308
3.6824449
3.6455916
3.6088024
3.572719
3.537898
3.504798
3.4737891
3.4451753
3.4192235
3.3961448
3.3760813
3.3590934
3.3453507
3.3350705
3.3271765
3.3224441
0.012049013
0.0071855629
-0.002609958
-0.015795516
-0.032851906
-0.053768426
-0.078378736
-0.10665337
-0.13846438
-0.17364998
-0.21220681
-0.25393248
-0.29874403
-0.34658183
-0.3972382
-0.45062939
-0.50668076
-0.56518841
-0.62602472
-0.68908745
-0.75415512
-0.82102548
-0.88955741
-0.9595303
-1.0306655
-1.102745
-1.175572
-1.2489155
-1.3226405
-1.3968247
-1.4717924
-1.5483122
-1.6280265
-1.7139574
-1.8111476
-1.9276498
-2.0764126
-2.2773696
-2.5587165
-2.9726622
-3.6238818
-4.5542298
-5.4738839
-6.2032435
-7.1692689
-7.29239
-6.8662246
-5.8623387
-4.3990532
-2.5675134
-0.64194035
1.2137871
2.782293
3.7526306
3.9521225
3.5938813
2.8204982
1.7469234
0.83749178
0.39539246
-0.28538365
0.73623388
0.78706741
1.436452
2.1103227
2.2797914
2.6370181
2.8510485
3.1131677
3.307759
3.4398586
3.5426923
3.6236942
3.6868389
3.7343959
3.7676043
3.7878601
3.7965461
3.795148
3.7851085
3.7679422
3.7450272
3.7176734
3.6871758
3.654586
3.6208578
3.5867788
3.5531022
3.5204035
3.4891954
3.459904
3.4328665
3.4082988
3.3864191
3.3673449
3.3511915
3.3381739
3.3284046
3.3208289
3.3166618
0.023647577
0.018818846
0.0088166781
-0.00448976
-0.021859839
-0.043011157
-0.067984797
-0.096612788
-0.12874928
-0.16438441
-0.20332733
-0.24546218
-0.29074058
-0.33896944
-0.39004369
-0.44391293
-0.50040635
-0.55940174
-0.62084571
-0.68458625
-0.75046344
-0.81839672
-0.88826571
-0.95991055
-1.0332391
-1.108182
-1.1846502
-1.2626338
-1.3423145
-1.424086
-1.5086588
-1.5973592
-1.692524
-1.7980316
-1.9201851
-2.0684299
-2.2573208
-2.5084564
-2.8508154
-3.3318199
-4.0570004
-5.1236099
-6.1355716
-7.1692325
-8.3728525
-8.7030111
-8.5549841
-7.8512099
-6.5957936
-4.3362906
-1.6929555
0.95753249
2.0417129
2.7562615
2.8922921
2.4537663
1.5776442
0.40587565
-0.58730168
-1.771061
-1.9379917
-1.9631823
-1.5235046
-0.44313225
0.68582367
1.0678927
1.6547347
2.3296192
2.836741
3.1336276
3.3053543
3.429681
3.5264176
3.6020261
3.6596117
3.7008565
3.7276795
3.7418368
3.7450707
3.7390646
3.7254559
3.705774
3.6814474
3.6537454
3.6238037
3.5925777
3.5608711
3.5293906
3.4987437
3.4694256
3.4418543
3.4163647
3.3931645
3.3724987
3.3544957
3.3392586
3.3270422
3.3178088
3.3106499
3.3070466
0.039546842
0.034511916
0.024296223
0.010672507
-0.0069575746
-0.028507883
-0.0539142
-0.082954804
-0.11562989
-0.15176006
-0.19121137
-0.23393129
-0.27973234
-0.32848858
-0.38014665
-0.43455815
-0.49160074
-0.55124057
-0.61337527
-0.67787873
-0.74471193
-0.81383281
-0.88515215
-0.95865458
-1.0344011
-1.1124244
-1.1927965
-1.2757748
-1.3618082
-1.4515612
-1.5461391
-1.6473825
-1.7581185
-1.8826914
-2.0288381
-2.2067833
-2.4319869
-2.7271368
-3.1230638
-3.6648081
-4.4435383
-5.612795
-6.8231298
-8.0014833
-9.5062654
-10.200558
-10.539106
-10.344194
-9.3241256
-5.0963084
-3.2780615
-0.886072
1.4473859
1.6016523
1.209873
0.96318093
0.2333295
-1.436245
-2.7841578
-4.0555221
-4.861405
-4.828315
-3.9598137
-3.3376661
-0.74956563
-0.029243259
0.72896845
1.8911146
2.6125903
2.9783122
3.1771666
3.3178341
3.427312
3.5139946
3.5806736
3.6290812
3.661682
3.6807261
3.6882156
3.6860559
3.6760582
3.6597912
3.6387863
3.6142584
3.5873626
3.5589964
3.5299881
3.5010221
3.4726896
3.4454908
3.4198346
3.3960368
3.3743543
3.355013
3.3382015
3.3240089
3.3126635
3.3040544
3.2974421
3.2943763
0.059609103
0.054435865
0.043766784
0.029859106
0.011789724
-0.01023698
-0.036124129
-0.065787765
-0.09906961
-0.13581936
-0.17597385
-0.219349
-0.26579426
-0.31524416
-0.36755312
-0.42258383
-0.48030477
-0.54065009
-0.60350822
-0.66885196
-0.73669472
-0.80700823
-0.87981465
-0.95522782
-1.0333807
-1.1144338
-1.1986645
-1.2865426
-1.3787143
-1.4760989
-1.5801661
-1.6931743
-1.8182098
-1.9588645
-2.1258944
-2.3289128
-2.5838849
-2.9143927
-3.3534976
-3.9484342
-4.7523566
-5.9673985
-7.4920007
-8.8475998
-10.534828
-11.762704
-12.8511
-13.534281
-13.261554
-10.211298
-7.5800325
-4.8388297
-1.7280678
0.68125206
1.0662904
-1.1488644
-2.3952429
-3.5266024
-5.6070032
-6.7536003
-7.5012949
-8.3391336
-7.4285423
-6.2193064
-2.6409268
-1.6878527
-0.040718291
1.5067303
2.3615343
2.7831276
3.0229898
3.1882942
3.3152849
3.4159035
3.4930852
3.5495225
3.5885455
3.6129534
3.625162
3.6273287
3.621354
3.6089368
3.5915706
3.5705183
3.5468637
3.5215371
3.495328
3.4689424
3.4429882
3.4179391
3.3942336
3.3721901
3.3521061
3.334209
3.3186389
3.3056006
3.2952175
3.2872971
3.2813187
3.279098
0.083932545
0.078507803
0.067413845
0.053048491
0.034459817
0.011901862
-0.01467829
-0.045040248
-0.079049804
-0.11662801
-0.15758304
-0.20174005
-0.24901314
-0.29924561
-0.35227776
-0.40805648
-0.4665229
-0.5275796
-0.59119882
-0.6574055
-0.7262091
-0.79766121
-0.87191564
-0.94914819
-1.0295535
-1.1134605
-1.2013413
-1.2937929
-1.3916564
-1.4960865
-1.6087761
-1.732464
-1.8709423
-2.0213259
-2.2056338
-2.4265903
-2.7008522
-3.0515617
-3.5113135
-4.1246453
-4.9587424
-6.1453484
-7.7477773
-9.5948035
-11.385577
-13.173658
-15.31406
-17.037862
-17.539322
-16.597007
-13.991862
-10.416019
-6.6737795
-4.0517776
-2.7786164
-2.6431325
-5.0028273
-6.6909768
-8.1824173
-10.119039
-11.337625
-11.691251
-10.97578
-9.5373458
-6.0369198
-3.6553397
-0.94889638
0.91630025
1.959664
2.502526
2.8232529
3.0350023
3.1914042
3.3112458
3.4011173
3.4665541
3.5124076
3.5423416
3.5592819
3.5657691
3.5637759
3.5551177
3.5412638
3.5235332
3.5029979
3.4805796
3.4570853
3.4332355
3.4096284
3.3867396
3.3650268
3.3448352
3.326441
3.3100789
3.2958929
3.2840664
3.274748
3.2676392
3.2622292
3.2603982
0.11253306
0.10695319
0.095188013
0.080353491
0.061195267
0.037892704
0.010536815
-0.020646612
-0.055601599
-0.094121259
-0.13600735
-0.18114621
-0.22936081
-0.28045915
-0.33435345
-0.39096845
-0.4501937
-0.51198854
-0.57637942
-0.64337986
-0.71304314
-0.78553316
-0.86106672
-0.93986162
-1.0222365
-1.1086778
-1.1997986
-1.2963042
-1.3992859
-1.5100883
-1.6300736
-1.7628331
-1.9103594
-2.0758003
-2.2693829
-2.5000372
-2.7826299
-3.1387625
-3.5993433
-4.2063642
-5.0191345
-6.1391512
-7.6907914
-9.6450212
-11.808281
-14.149414
-17.032592
-20.073337
-21.518822
-21.121674
-18.813987
-15.174046
-10.53444
-6.5359969
-4.9311825
-5.9118445
-7.5209804
-8.0833895
-11.594132
-12.919228
-14.234472
-14.512104
-13.580743
-11.670476
-8.9754725
-4.2353384
-2.4183955
0.048241381
1.4015717
2.1553646
2.592575
2.8679361
3.0621144
3.2042615
3.3079014
3.3825765
3.4350914
3.4702203
3.4915746
3.5019384
3.5035769
3.4983289
3.4877588
3.4731197
3.4555219
3.4358995
3.4150814
3.3937251
3.3725006
3.3518639
3.3322048
3.3139048
3.2972901
3.2825408
3.2698586
3.2594022
3.2512674
3.245148
3.240682
3.2401197
0.14585999
0.13961513
0.12716956
0.11193913
0.091994331
0.067869893
0.039609482
0.0073786424
-0.028652513
-0.068257391
-0.11129409
-0.15755767
-0.20681792
-0.25894259
-0.31382245
-0.37131234
-0.43133318
-0.49389135
-0.55899002
-0.62666341
-0.69705797
-0.77039573
-0.8469153
-0.92692865
-1.0108795
-1.099349
-1.1930703
-1.2930083
-1.4004743
-1.5165744
-1.644565
-1.7854443
-1.9415949
-2.1164708
-2.3165268
-2.5504565
-2.8314622
-3.1789141
-3.6205174
-4.1942657
-4.9511433
-5.972466
-7.393146
-9.2862575
-11.6057
-14.293948
-17.617731
-21.207328
-23.222361
-23.657749
-21.760352
-18.135455
-13.12593
-8.4513965
-6.3622366
-6.558154
-8.0491926
-9.0709578
-12.159072
-14.231677
-15.633344
-15.924979
-14.8348
-12.900651
-10.381722
-1.5846358
-2.9039776
-0.56678683
0.94299276
1.8529265
2.3792671
2.7102296
2.938246
3.1002389
3.2161422
3.2989299
3.3572326
3.3968335
3.4219749
3.4357083
3.44053
3.4383573
3.4307776
3.4190723
3.4042959
3.3873685
3.3691689
3.3503704
3.3315352
3.3131382
3.2956233
3.2793147
3.2645546
3.2515521
3.2404839
3.2315401
3.2247835
3.2198208
3.2165754
3.2174386
0.18352803
0.17707667
0.16345386
0.14791916
0.1270275
0.10193958
0.072537873
0.039122436
0.0018605241
-0.039074196
-0.083438793
-0.13096451
-0.181467
-0.2347875
-0.29073339
-0.34916851
-0.41004693
-0.4733352
-0.53903352
-0.6072487
-0.67818322
-0.75206935
-0.82920332
-0.9100113
-0.99502533
-1.0848711
-1.1803853
-1.2829399
-1.3940711
-1.5160984
-1.6510573
-1.8001722
-1.9647853
-2.1468396
-2.3503685
-2.582135
-2.852971
-3.1790005
-3.5834672
-4.0986891
-4.7676915
-5.6545522
-6.8706631
-8.540449
-10.716665
-13.357591
-16.569565
-20.071421
-22.514866
-23.339291
-22.048433
-18.785199
-13.801365
-9.0077363
-6.8661188
-7.333588
-8.381465
-9.8540224
-11.530602
-13.949835
-15.50196
-15.612818
-14.316595
-12.613641
-9.4859907
-2.63166
-2.8912086
-0.84870126
0.72477368
1.6684618
2.2240731
2.5837517
2.8312991
3.005589
3.1294156
3.2176511
3.2799395
3.3228344
3.3508527
3.3673264
3.3748306
3.3753467
3.3704406
3.3613996
3.3492557
3.3349814
3.3193575
3.3030312
3.2865802
3.270458
3.255116
3.2408769
3.2280523
3.2168887
3.2075706
3.2002978
3.1950767
3.1914988
3.1898101
3.192636
0.22560504
0.21828559
0.20523932
0.18886703
0.16637267
0.14012328
0.10944936
0.074676003
0.035917758
-0.0065524697
-0.052419467
-0.10144822
-0.15342028
-0.20807691
-0.26521204
-0.32470679
-0.38646516
-0.45042057
-0.51661416
-0.58520194
-0.65638711
-0.73044391
-0.80777256
-0.88886461
-0.97428622
-1.0647474
-1.1612972
-1.2655287
-1.3795577
-1.5069724
-1.6495259
-1.8082855
-1.9825481
-2.1716196
-2.3770416
-2.6030672
-2.857398
-3.1520395
-3.5046553
-3.9399825
-4.4907649
-5.2034613
-6.1557283
-7.4650114
-9.2260527
-11.438675
-14.131684
-17.162941
-19.495599
-20.529659
-19.670216
-16.840475
-12.301537
-7.8798737
-5.9551005
-6.9610872
-8.462968
-9.9343103
-10.992022
-12.525096
-13.973093
-13.927777
-12.925868
-11.521115
-7.5137048
-2.9838886
-2.1584008
-0.56688263
0.78646557
1.626298
2.1437334
2.4998838
2.7491305
2.9254723
3.0511144
3.1410046
3.2048474
3.2492974
3.2789875
3.2972292
3.3067527
3.3093975
3.3067515
3.300072
3.2903537
3.2785301
3.2653444
3.2514527
3.2373594
3.2235337
3.2104262
3.1983243
3.1875455
3.1783042
3.1708351
3.1654023
3.161865
3.1598527
3.1599782
3.1650967
0.27270341
0.26486361
0.25177863
0.23447426
0.20965563
0.18259021
0.15048631
0.11406779
0.073579078
0.029363525
-0.018298927
-0.069117061
-0.12276522
-0.17895484
-0.23747003
-0.2981273
-0.36076687
-0.42534411
-0.49192471
-0.56064548
-0.63173291
-0.70555401
-0.7825789
-0.86334192
-0.94846843
-1.0388051
-1.1354747
-1.2401949
-1.356042
-1.488441
-1.6401657
-1.8119902
-1.9991759
-2.1969379
-2.4046657
-2.6238834
-2.858734
-3.1163859
-3.4082681
-3.7499468
-4.1611192
-4.6685882
-5.3156192
-6.1815765
-7.3578203
-8.872499
-10.75497
-12.912633
-14.887356
-15.812132
-15.330378
-13.201328
-9.3461552
-5.5456816
-3.9743957
-5.1995671
-7.839973
-9.7201722
-10.569872
-10.081931
-10.886538
-11.326384
-9.9887157
-8.5124003
-5.3526842
-2.0494466
-1.5378446
-0.057645893
1.0019885
1.7072784
2.1195436
2.4579377
2.6943524
2.8626756
2.9836206
3.070793
3.133204
3.1771404
3.207034
3.2257308
3.2364182
3.2405312
3.2396454
3.2348871
3.2272813
3.2177086
3.2068554
3.195327
3.1836032
3.1720876
3.1612306
3.1513261
3.1426513
3.1354413
3.1299519
3.1264625
3.1247652
3.1243737
3.1265538
3.1341753
0.32498395
0.31664908
0.30274984
0.28371557
0.25892243
0.22988191
0.19575753
0.15742933
0.11495543
0.06865404
0.018849022
-0.034044559
-0.089648068
-0.14765298
-0.20774951
-0.26967295
-0.33324799
-0.39841902
-0.46522678
-0.53380158
-0.60443673
-0.6775748
-0.75373667
-0.83352483
-0.91772185
-1.0072693
-1.1030711
-1.2066574
-1.3221828
-1.458863
-1.6227355
-1.8138326
-2.0188662
-2.2297344
-2.4426569
-2.6569926
-2.8735318
-3.0940398
-3.3240324
-3.569003
-3.8337192
-4.1234559
-4.4503168
-4.8510195
-5.3875363
-6.0884734
-7.030101
-8.1941824
-9.4196746
-10.20823
-10.046115
-8.8571862
-6.5528656
-3.0641581
-1.5163464
-2.9837947
-6.3490238
-8.849396
-10.021612
-8.3168982
-8.9234669
-7.1890411
-6.772198
-5.5683844
-3.4105811
-1.7962097
-0.75428555
0.43015194
1.2484481
1.8024666
2.1804094
2.4618782
2.66785
2.8180039
2.9280123
3.0079691
3.0657697
3.1068134
3.1350372
3.1532758
3.1639205
3.1686359
3.168823
3.1655522
3.1597643
3.1522213
3.1435595
3.1342882
3.12487
3.1157159
3.1071262
3.09945
3.0929331
3.087789
3.0843721
3.0829497
3.0831433
3.0844635
3.0889442
3.0992694
0.38283082
0.37383649
0.35892005
0.33855079
0.3125953
0.28158644
0.24555732
0.20492112
0.16008325
0.1112936
0.058999551
0.0036657347
-0.05429141
-0.1144231
-0.17633029
-0.23970557
-0.30432717
-0.37005984
-0.43691154
-0.50506909
-0.57488281
-0.64684513
-0.72158442
-0.79985413
-0.88253752
-0.97068711
-1.064915
-1.1658978
-1.2787352
-1.4157672
-1.5972731
-1.8210691
-2.0511816
-2.2779301
-2.4998671
-2.7148869
-2.9199676
-3.109051
-3.2845251
-3.4413214
-3.5686069
-3.649947
-3.6697799
-3.6274907
-3.5436156
-3.441127
-3.3956733
-3.5754194
-4.0098807
-4.566109
-5.0633811
-5.9087011
-5.313252
3.2160211
-0.15816342
-1.2177255
-3.8806369
-6.2400587
-9.063665
-5.2796667
-6.8970772
-4.4887193
-4.1201733
-3.2492787
-2.0934277
-0.93385778
0.1026318
0.94157366
1.5319337
1.954917
2.2626561
2.4921556
2.6628621
2.7892931
2.8833013
2.9524156
3.002616
3.0383994
3.0631439
3.0793434
3.0888863
3.0933563
3.0939622
3.0916966
3.0873552
3.0815846
3.0749391
3.0678753
3.0607097
3.0538465
3.0475671
3.0421308
3.037768
3.0347175
3.0334282
3.0341745
3.0362475
3.0393983
3.0464656
3.059738
0.44647916
0.43668349
0.42070059
0.39888511
0.37122288
0.33813457
0.29979463
0.2566451
0.20904995
0.15734105
0.10209675
0.043837721
-0.01692086
-0.079549512
-0.14360553
-0.20872529
-0.27453564
-0.34081379
-0.40757136
-0.47503386
-0.54360067
-0.61384536
-0.6866081
-0.76286344
-0.84356752
-0.93001413
-1.0232452
-1.1206126
-1.22058
-1.3577526
-1.5600565
-1.8413569
-2.1033628
-2.3492459
-2.5853236
-2.8069327
-3.0057757
-3.1805149
-3.3206651
-3.4124464
-3.4294055
-3.3295201
-3.0745765
-2.636217
-2.0075776
-1.1907942
-0.3214429
0.38236175
0.63166487
0.26724302
-1.1020789
-1.4564102
14.090894
2.346236
2.1135523
0.8881203
-0.14187351
-2.104423
-5.3737104
-3.9097636
-5.0977988
-3.1495865
-2.6269817
-2.1735636
-0.8480794
0.12087928
0.87341494
1.4395337
1.838524
2.1414932
2.3702815
2.5441351
2.6754898
2.7742166
2.8483494
2.9032422
2.9432029
2.9716022
2.9910695
3.0037052
3.0110379
3.0143603
3.0146971
3.0128724
3.0095561
3.005263
3.0004401
2.9954242
2.9904871
2.9859131
2.9819283
2.9787458
2.9765086
2.9754839
2.9762584
2.9791099
2.9830909
2.988217
2.9983073
3.0148342
0.51620546
0.50558898
0.48836773
0.46488478
0.43524129
0.39981381
0.35878893
0.31264094
0.2618383
0.20690748
0.14805165
0.086353214
0.022190069
-0.043409857
-0.11009145
-0.17734064
-0.24454095
-0.31142904
-0.37799198
-0.44444742
-0.51127086
-0.57920502
-0.64938271
-0.72317283
-0.80179227
-0.88781364
-0.98530208
-1.0827917
-1.1614595
-1.3007099
-1.5405619
-1.9022286
-2.1838157
-2.4438155
-2.7034282
-2.9478458
-3.1626024
-3.3423475
-3.475196
-3.5335538
-3.4701999
-3.2280837
-2.7427599
-1.9641302
-0.87071357
0.50799684
2.0547388
3.4056197
4.119364
3.8986833
3.1895447
13.632852
10.815507
3.4302425
3.1329862
2.2822831
1.4075771
0.37058274
-1.7126449
-1.7835365
-2.2610483
-2.0934393
-1.4183221
-0.36615295
0.52819027
1.1255401
1.5702068
1.9021273
2.1475196
2.3430901
2.4943439
2.6113148
2.7011837
2.7696312
2.8211948
2.8593173
2.8867252
2.9057923
2.9183409
2.9259671
2.9299056
2.9311177
2.9304117
2.9284367
2.9257215
2.922577
2.919377
2.9163294
2.9135509
2.9112447
2.9095118
2.9085189
2.9083387
2.9092426
2.9119248
2.9165904
2.9223003
2.9295877
2.9433809
2.9636605
0.59241686
0.58084881
0.56223535
0.53693946
0.50507318
0.46692944
0.42280233
0.37319459
0.31860023
0.25959116
0.19684016
0.13139679
0.06265188
-0.0064292163
-0.07631814
-0.14631983
-0.21523613
-0.28286598
-0.34915844
-0.41425444
-0.47875663
-0.54367061
-0.61053687
-0.68147614
-0.75816981
-0.84510735
-0.95698144
-1.1020904
-1.1892683
-1.2774862
-1.5486631
-2.0686601
-2.3067531
-2.5571012
-2.8523561
-3.1402491
-3.3940526
-3.6105623
-3.7753674
-3.8456984
-3.7500383
-3.4062169
-2.7364872
-1.6900781
-0.2401093
1.5850503
3.6221486
5.4000945
6.4559153
6.9644307
13.944108
12.635088
6.2168458
5.0951707
4.6360853
3.8681016
2.8224887
1.9705098
1.411274
1.1419239
0.6716175
0.64114446
0.96072701
1.4213009
1.7740378
2.0120334
2.1933075
2.3336171
2.4487623
2.5463
2.6242789
2.6863389
2.7348943
2.771945
2.7994351
2.818958
2.8320278
2.8400333
2.844137
2.8454113
2.8447269
2.8428462
2.8403068
2.837563
2.8349477
2.8326696
2.8309158
2.8297308
2.8290884
2.8290278
2.8295326
2.8306353
2.8323287
2.8349526
2.8392607
2.8451592
2.8520711
2.8618111
2.8804437
2.9054622
0.67546234
0.66287645
0.64282228
0.61552352
0.58109709
0.5398864
0.4922288
0.43860476
0.37955856
0.31580316
0.248174
0.1775665
0.10475364
0.031210129
-0.042701154
-0.11674311
-0.18776689
-0.25630609
-0.32225477
-0.38567777
-0.44722154
-0.50810657
-0.57028558
-0.63713811
-0.71245213
-0.8054088
-0.96991463
-1.2790355
-0.46650726
2.0901334
2.2874283
-1.5000691
-2.3040169
-2.6472139
-3.0185892
-3.3748543
-3.6975794
-3.9907626
-4.2259413
-4.3370225
-4.2703743
-3.8840844
-3.0931265
-1.8591447
-0.16246882
1.9360436
4.2882025
6.3537578
7.9972889
12.186241
14.171679
5.8792855
7.0419815
6.5928904
5.9577057
5.2936752
4.6702501
4.1557974
3.7833683
3.3887717
3.0011257
2.7589433
2.7000906
2.7280151
2.7407562
2.7325547
2.7237809
2.7205547
2.726966
2.7385042
2.7505645
2.7619271
2.7710948
2.777212
2.7801885
2.7801543
2.7776042
2.7731273
2.7673716
2.7609909
2.7545369
2.7485397
2.7433351
2.7391972
2.7362508
2.7345472
2.7340785
2.7346763
2.7361679
2.7383641
2.7410841
2.7441656
2.7475032
2.7514891
2.7567082
2.7627551
2.7697946
2.7823662
2.8078501
2.8391254
0.76583471
0.75227697
0.73063946
0.70110674
0.66385221
0.61921973
0.56751245
0.50922964
0.44502723
0.3757272
0.30225729
0.22565893
0.14716813
0.068302095
-0.0090818378
-0.090604431
-0.16334617
-0.23311321
-0.29883094
-0.36032156
-0.41822895
-0.47386474
-0.52928946
-0.58831304
-0.6560635
-0.73372367
-0.83186623
-0.88434683
3.8081529
4.3281117
3.7065999
1.7773673
-2.1343015
-2.712416
-3.1922013
-3.6243947
-4.0459388
-4.4689278
-4.8326745
-5.0516172
-5.0540278
-4.6773859
-3.8317207
-2.4498994
-0.68704001
1.5321404
4.2836672
7.0495912
9.2587903
10.942744
12.675574
9.6069934
8.2953315
7.6344319
6.9792328
6.5080616
6.1448802
5.8252171
5.4980768
5.1297683
4.7532934
4.3225783
3.9844285
3.7221043
3.5029857
3.3180639
3.167601
3.0524393
2.9690508
2.9087253
2.864518
2.8312117
2.8044834
2.7814724
2.7604928
2.7406355
2.7216405
2.7035736
2.6867166
2.6714373
2.658089
2.6469554
2.638263
2.6320691
2.6283098
2.6269132
2.6276157
2.630018
2.6337041
2.6382635
2.6432469
2.6481807
2.6528978
2.6578262
2.6630117
2.6673487
2.672281
2.6872603
2.7224267
2.7624787
0.86416008
0.84960761
0.8262503
0.79433837
0.75400211
0.70551127
0.64918964
0.58559992
0.51546202
0.43964067
0.35917855
0.27534119
0.189599
0.10349158
0.018489582
-0.064817687
-0.14241308
-0.21487432
-0.28093441
-0.34030497
-0.3937539
-0.44267637
-0.48858032
-0.53319072
-0.58225499
-0.6256958
-0.64000178
-0.61197533
3.667996
4.184087
3.4573629
0.59692764
-2.0919683
-2.9042678
-3.4267857
-3.8807852
-4.408374
-5.019714
-5.5670677
-5.9605323
-6.1375896
-5.8653392
-4.9697163
-3.5054449
-1.7580383
0.7937823
3.933365
8.9696347
10.072755
11.104956
9.849991
9.4828201
8.951636
8.2659021
7.7644207
7.4972023
7.3528175
7.1811636
6.8962444
6.4848314
5.9587535
5.4847594
4.9853328
4.5262309
4.1297067
3.7982097
3.5306554
3.323049
3.1665049
3.0486397
2.9588711
2.8883744
2.8306602
2.7813231
2.7376985
2.6982681
2.6623553
2.6297813
2.6006632
2.575263
2.553829
2.5365487
2.5234725
2.5145614
2.5095833
2.5082498
2.5100637
2.5143824
2.5204727
2.5276277
2.5350268
2.5417693
2.5475899
2.5531361
2.5577712
2.5581012
2.5557402
2.5698853
2.6218327
2.6789108
0.97101824
0.95549663
0.93040636
0.8959709
0.8522426
0.7994667
0.73800771
0.66842101
0.59142501
0.50795175
0.41920804
0.32666327
0.23199263
0.13704268
0.04381957
-0.045600468
-0.12867595
-0.20384652
-0.27132944
-0.32845742
-0.37685397
-0.4182281
-0.45391367
-0.48632911
-0.53544334
-0.57777063
-0.50845462
-0.93056619
-0.54411738
2.136029
1.3716546
-1.3955734
-2.3083311
-3.1165451
-3.6518987
-4.0940413
-4.757362
-5.6583081
-6.5374192
-7.2521021
-7.700587
-7.5403822
-6.4185802
-4.8724757
-2.8948749
0.17562437
6.4748109
12.461152
11.958269
11.229431
9.9194606
9.9433399
9.3256938
8.6531237
8.3139014
8.3453832
8.4708764
8.4265663
8.148757
7.6948044
7.1241828
6.4963931
5.8339917
5.1967517
4.6356465
4.1711222
3.8032914
3.5218704
3.3104753
3.1509497
3.0278227
2.9290497
2.8463048
2.7742544
2.7097683
2.6512487
2.5980907
2.5501384
2.5075746
2.4707625
2.4399685
2.4153777
2.397022
2.3847137
2.3780979
2.3766471
2.3796085
2.3860437
2.3949384
2.405202
2.4154721
2.4241909
2.4309535
2.4372316
2.4411971
2.4332232
2.4107142
2.4128222
2.4970664
2.5876195
1.0870794
1.0707588
1.0439195
1.0067916
0.95941622
0.9020108
0.83488437
0.7585278
0.67366685
0.58131702
0.48280257
0.37975278
0.27412157
0.1682217
0.064670619
-0.033758516
-0.12426352
-0.20446111
-0.2726497
-0.32810948
-0.37107523
-0.40425651
-0.43077197
-0.45853594
-0.51265353
-0.4918058
-0.27142776
-0.71766836
-0.72742629
-0.82651425
-0.84777937
-1.2153001
-2.3327041
-3.1204498
-3.6535818
-4.1834941
-5.1505236
-6.5462413
-8.0678916
-9.6637745
-10.778556
-10.656745
-8.9873354
-7.17568
-5.0425922
-3.1741788
11.860279
15.995223
12.26157
12.479955
12.174185
11.338574
9.8470338
8.7585509
8.5553749
9.1080517
9.690392
9.7560561
9.3879965
8.8433182
8.2070866
7.4531667
6.5913187
5.7442122
5.0074007
4.4166761
3.9671801
3.6353374
3.3919543
3.2098412
3.0678033
2.9509605
2.8498323
2.7589454
2.6754716
2.598326
2.5274008
2.4629888
2.4056402
2.3559255
2.314383
2.2812246
2.2565011
2.2400245
2.2313164
2.2296311
2.2339428
2.2429568
2.2553059
2.2695222
2.2836134
2.2949765
2.3023195
2.3074151
2.3090026
2.2863719
2.2150977
2.1377988
2.2589319
2.4302601
1.213165
1.1962277
1.1676292
1.1277524
1.076586
1.0142279
0.94088314
0.85698156
0.7632407
0.66067273
0.55064382
0.43494457
0.31588681
0.19629273
0.079402619
-0.031203856
-0.1318498
-0.21911227
-0.29017461
-0.3438792
-0.3804585
-0.40372134
-0.42047862
-0.44331812
-0.49374488
-0.555016
-0.60402966
-0.54459413
-0.56262418
-0.68633984
-0.80271471
-1.135172
-2.0742444
-2.7684994
-3.412919
-4.2607038
-5.7212525
-7.6904559
-9.9540147
-12.837116
-13.879423
-13.787331
-12.673345
-9.69275
5.4818288
11.426499
5.2477749
14.511936
14.130793
14.888418
14.924522
12.952036
9.8668267
8.000241
8.1064798
9.8385407
11.33727
11.37037
10.630022
9.9160175
9.3253573
8.4510914
7.2809734
6.1423532
5.2022918
4.4974234
3.9968802
3.6489991
3.4040598
3.2229101
3.078691
2.9547348
2.8418425
2.735611
2.6345195
2.5386982
2.4490599
2.3667166
2.2928384
2.2284673
2.1744241
2.1312006
2.0989277
2.0774061
2.0661192
2.0641109
2.0700824
2.0824245
2.0993041
2.118853
2.1385088
2.1545292
2.1643994
2.1706353
2.1759291
2.1373066
1.9711111
1.7076154
2.0060059
2.5606546
1.350109
1.3327729
1.3025531
1.2599812
1.2049274
1.1373357
1.0573099
0.96517906
0.86153098
0.74727396
0.62376895
0.49297193
0.3575077
0.22069982
0.086529258
-0.040383812
-0.15508005
-0.25266747
-0.32895664
-0.38162136
-0.40980777
-0.4187401
-0.41635045
-0.42193735
-0.43490993
-0.48981075
-0.48995911
-0.38833411
-0.35798289
-0.69031087
-0.98701731
-0.81121704
-1.5326935
-2.1853601
-3.0710537
-4.351586
-6.3332316
-8.1148856
-11.211128
-14.813476
-18.578779
-20.50929
-8.2706873
3.165837
1.5876448
3.0283777
9.5916743
14.282376
14.899782
17.560485
19.235245
15.510318
8.7998347
5.36649
6.1936055
10.867082
14.265859
13.384282
11.39835
10.64381
10.716071
9.6177287
7.8689834
6.2971515
5.131967
4.354039
3.8610092
3.5508421
3.3456556
3.1939533
3.0655645
2.9449463
2.8256472
2.7061869
2.5876054
2.4720533
2.3619429
2.2595451
2.1668723
2.0855792
2.016938
1.9617809
1.9204731
1.8928794
1.8784561
1.876091
1.8842363
1.9009152
1.9238403
1.9507352
1.9781175
2.0002457
2.0138203
2.021932
2.047201
2.0514665
1.9532447
2.0066553
6.2778647
9.52471
1.4988215
1.481441
1.4498308
1.4046606
1.3457117
1.2727802
1.1857907
1.0848441
0.97028634
0.84284486
0.7038025
0.5551298
0.39968091
0.24124588
0.084685458
-0.064108891
-0.19846507
-0.3114162
-0.39661264
-0.44933006
-0.46703082
-0.4549657
-0.42112774
-0.39050989
-0.36619289
-0.36001146
-0.34455342
-0.22418912
-0.10298307
-0.57682422
-0.71092695
0.94481367
-0.7839485
-1.4477796
-2.4948022
-4.3384974
-6.5518558
-9.7351466
-12.366628
-14.378567
-17.6051
-20.920011
-15.275323
-3.6262061
1.9776053
1.6635119
0.44535113
0.041222471
8.6732704
21.066297
27.397062
19.073904
4.1123716
-1.2248348
1.22865
12.797483
21.219598
15.269767
10.230242
10.50546
13.005809
11.124165
8.1896669
5.9915995
4.6452908
3.9084517
3.5317721
3.3403953
3.2279044
3.1367551
3.0406338
2.9308316
2.8074112
2.6742528
2.5362942
2.3984043
2.2648931
2.1393802
2.0248752
1.9237742
1.8379149
1.7685734
1.7163893
1.6814392
1.6631457
1.6603295
1.6713036
1.6937233
1.7248783
1.7620342
1.8009497
1.8357127
1.8686699
1.9216728
1.986367
2.0440431
2.0870383
3.5961489
8.9123709
9.3316995
1.6603839
1.6433513
1.6105853
1.5630317
1.5004033
1.4222593
1.3282253
1.21806
1.0917802
0.94979549
0.79309053
0.62347837
0.44381579
0.25836762
0.072850068
-0.10535473
-0.26748282
-0.40349206
-0.50355521
-0.55911726
-0.56500637
-0.52375805
-0.44767161
-0.35671305
-0.29557649
-0.21679794
-0.15236693
-0.009537632
0.24973785
-0.13971293
0.60065182
8.7210886
1.0305517
-0.36606056
-1.6267846
-3.8986566
-7.2695199
-11.324809
-15.019903
-16.345869
-18.121458
-18.295234
-10.261749
3.8996585
-0.53351812
4.3464982
-4.5707649
-10.091205
-0.46418896
30.218774
49.779713
23.221685
-15.368267
-18.38385
-3.6928292
16.2215
27.502993
10.367636
2.3725753
12.053418
19.245507
13.206673
7.6148738
4.7599202
3.5174959
3.0836537
3.0059939
3.0443572
3.083474
3.0797202
3.0250004
2.9264403
2.7956832
2.6443637
2.4823663
2.3175896
2.1563053
2.0035346
1.8632393
1.7386423
1.6322694
1.5459316
1.4806325
1.4366725
1.4135483
1.4101224
1.4245855
1.4541188
1.4954315
1.5456389
1.6000766
1.6511519
1.6970324
1.7498107
1.8236015
1.8699786
1.7567347
3.8290584
9.057255
9.5136719
1.8359562
1.819575
1.7859525
1.7364472
1.6706031
1.5876279
1.4867757
1.3673547
1.2289116
1.0713004
0.89492918
0.7011248
0.49251342
0.27350767
0.05071894
-0.16710045
-0.36866395
-0.53936499
-0.66447061
-0.7293419
-0.72391214
-0.64685195
-0.51337281
-0.34967155
-0.18365393
-0.009959581
0.12744495
0.26276434
0.54643184
0.19815133
0.74233073
10.112759
1.4133293
0.60566042
-0.79610913
-2.6909447
-7.5793073
-14.874068
-22.513587
-20.257369
-17.677353
-19.530719
-4.2277339
34.021427
85.026902
66.610863
387.07971
953.72556
1107.349
621.65399
303.31716
320.8989
171.11955
-12.106628
4.2182203
36.335983
23.215021
-10.89622
-12.314946
31.789935
37.161776
13.50523
3.9694392
2.0255992
1.58543
1.8841832
2.3538683
2.7413281
2.9773541
3.069007
3.0481041
2.9491553
2.7998454
2.6207544
2.4268228
2.2284917
2.033581
1.8481686
1.6771575
1.5245571
1.3936284
1.2868066
1.2055848
1.1504688
1.1211427
1.1165265
1.1346347
1.1725758
1.2279825
1.299518
1.3808116
1.458085
1.5194393
1.5579326
1.6084454
1.6812408
1.7143936
2.5687278
8.3474526
8.9051187
2.0267209
2.0111725
1.9770808
1.9262273
1.8578838
1.7708317
1.6638663
1.5357296
1.3852303
1.2114197
1.0137805
0.79265358
0.54973424
0.28977693
0.019337157
-0.25102138
-0.50903399
-0.73220255
-0.89924834
-0.98565111
-0.97182169
-0.84994224
-0.63253446
-0.35120912
-0.044496706
0.26107124
0.49452236
0.62592193
0.73242732
0.69932924
1.3837409
8.9584521
2.4269168
1.0559752
-0.11497487
-2.6689126
-4.9710402
-13.550814
-33.212813
-23.526023
2.3187158
100.84423
192.7272
-358.79617
-215.15095
2194.6325
4865.7372
6337.7347
5933.8892
4017.199
2902.9491
4491.031
6388.5013
4508.6656
213.59251
-511.76264