/*--------------------------------*- C++ -*----------------------------------*\
  =========                 |
  \\      /  F ield         | OpenFOAM: The Open Source CFD Toolbox
   \\    /   O peration     | Website:  https://openfoam.org
    \\  /    A nd           | Version:  9
     \\/     M anipulation  |
\*---------------------------------------------------------------------------*/
FoamFile
{
    format      ascii;
    class       surfaceScalarField;
    location    "1";
    object      phi;
}
// * * * * * * * * * * * * * * * * * * * * * * * * * * * * * * * * * * * * * //

dimensions      [0 3 -1 0 0 0 0];

internalField   nonuniform List<scalar> 
19800
(
-1.1590559e-05
6.825681e-05
-2.1843801e-05
6.9196093e-05
-3.232835e-05
7.0483022e-05
-4.3017464e-05
7.1920428e-05
-5.4044377e-05
7.3698582e-05
-6.5352855e-05
7.5499314e-05
-7.7014852e-05
7.7530481e-05
-8.9044766e-05
7.9659055e-05
-0.00010144775
8.1859974e-05
-0.000114247
8.4094391e-05
-0.00012743371
8.6291135e-05
-0.0001410171
8.8484371e-05
-0.00015502968
9.0558409e-05
-0.00016949634
9.2453525e-05
-0.00018452558
9.4259046e-05
-0.00020022116
9.5952092e-05
-0.00021683205
9.7637335e-05
-0.00023442463
9.9285789e-05
-0.0002531346
0.00010136438
-0.00027321007
0.0001039594
-0.00029498818
0.00010728023
-0.00031892338
0.00011200158
-0.00034573001
0.00011842309
-0.00037646711
0.00012738983
-0.00041257744
0.00013962056
-0.00045593397
0.0001561516
-0.00050886637
0.00017831864
-0.00057412782
0.00020770492
-0.00065519165
0.00024620003
-0.0007563468
0.00029615573
-0.00088276841
0.0003605079
-0.001040624
0.00044290552
-0.0012372479
0.0005479314
-0.0014813494
0.00068134678
-0.0017831394
0.00085046642
-0.0021544894
0.0010644805
-0.0026081039
0.0013343247
-0.0031524138
0.0016853422
-0.0037925331
0.0021918481
-0.0045635237
0.0028825318
-0.005552593
0.0033972751
-0.0067835069
0.0030574645
-0.0080477763
0.0017849911
-0.0090257703
0.00021462103
-0.0095802125
-0.00097658009
-0.0095692186
-0.0022654256
-0.0090494978
-0.0033002794
-0.0080552132
-0.0041752288
-0.0066412197
-0.0049376939
-0.004952353
-0.0054199083
-0.0031076943
-0.0056340434
-0.001166273
-0.0057032499
0.00075364485
-0.0055655024
0.0026272207
-0.0053542891
0.0043758847
-0.0049780205
0.005898886
-0.0044640098
0.0071306821
-0.0038502553
0.0081447965
-0.0033357708
0.0091160308
-0.0030515868
0.010032593
-0.0026123584
0.010449405
-0.0014453206
0.010305204
-0.00034163363
0.0098812239
0.00028754162
0.0087720147
0.0017946085
0.0075604335
0.0025514449
0.0065139682
0.0022755588
0.0056848728
0.0016045896
0.005053553
0.0012316174
0.0045689593
0.001317848
0.0041917042
0.001602822
0.0038778079
0.0018262476
0.0035941149
0.0019135542
0.0033268386
0.001900127
0.0030727628
0.0018260731
0.0028300354
0.0017132861
0.0025968843
0.0015750477
0.0023722463
0.0014234165
0.0021556688
0.0012703548
0.0019471485
0.0011255108
0.0017470714
0.0009942593
0.001556093
0.00087772823
0.0013749619
0.00077469697
0.0012043911
0.00068336616
0.001044984
0.00060199866
0.00089715845
0.00052914283
0.00076114304
0.0004636898
0.00063700969
0.00040481604
0.00052466843
0.00035170664
0.00042394653
0.00030384108
0.00033451295
0.00026056278
0.00025591917
0.0002214885
0.00018751057
0.00018620859
0.00012879575
0.00015467983
7.92951e-05
0.00012669062
3.8472236e-05
0.00010180309
5.5794403e-06
8.0132134e-05
-2.0251088e-05
6.1328569e-05
-4.0118944e-05
4.6192767e-05
-5.4534349e-05
3.285798e-05
2.0776356e-05
-1.0533399e-05
7.7871145e-05
-2.0371901e-05
7.9042905e-05
-3.0491061e-05
8.0598831e-05
-4.0865215e-05
8.2299312e-05
-5.1604253e-05
8.44332e-05
-6.2684522e-05
8.6589077e-05
-7.4180064e-05
8.9025913e-05
-8.6095682e-05
9.1580077e-05
-9.8453323e-05
9.4219051e-05
-0.00011126381
9.6900316e-05
-0.00012453706
9.9571069e-05
-0.0001382585
0.00010220399
-0.00015248975
0.00010478946
-0.0001672143
0.00010718163
-0.00018251253
0.00010955138
-0.00019831695
0.00011175372
-0.00021468602
0.00011400782
-0.00023177575
0.00011637116
-0.00024963403
0.00011922128
-0.00026846858
0.0001227981
-0.00028858778
0.00012739975
-0.0003102695
0.0001336836
-0.00033415118
0.00014231067
-0.00036106457
0.00015430743
-0.00039219288
0.00017074888
-0.00042900163
0.00019296303
-0.00047340866
0.00022273066
-0.00052786559
0.00026216376
-0.00059545178
0.00031378702
-0.00067993531
0.00038064232
-0.00078583662
0.00046641117
-0.00091850745
0.00057557515
-0.0010842637
0.00071368752
-0.001290615
0.0008877005
-0.001546559
0.0011064109
-0.0018629668
0.0013808855
-0.0022520032
0.001723359
-0.0027197447
0.0021530833
-0.0032584336
0.002730535
-0.0038879957
0.0035120896
-0.0047141167
0.0042233939
-0.0057887517
0.0041321017
-0.0068635524
0.0028597951
-0.007846625
0.0011976929
-0.0085050882
-0.0003181209
-0.0087451811
-0.0020253347
-0.0084115296
-0.0036339306
-0.0074582766
-0.0051284828
-0.0060120099
-0.006383963
-0.0042739086
-0.0071580116
-0.0023702564
-0.007537696
-0.00034580112
-0.0077277054
0.0017141214
-0.0076254262
0.003718249
-0.0073584178
0.0056300713
-0.0068898435
0.0073757638
-0.0062097017
0.0088020891
-0.0052765794
0.0098304101
-0.0043640923
0.010696179
-0.003917357
0.011609295
-0.0035254724
0.01260223
-0.0024382542
0.01303684
-0.00077624417
0.011848907
0.0014754759
0.010122406
0.0035211094
0.008247974
0.0044258782
0.0065467085
0.0039768257
0.0053638281
0.0027874697
0.004722543
0.0018729011
0.0043454656
0.0016949212
0.0040594932
0.0018887935
0.0037958185
0.0020899234
0.003533343
0.0021760315
0.0032724551
0.0021610131
0.0030189676
0.0020795561
0.0027754368
0.001956814
0.0025413383
0.0018091441
0.0023156054
0.0016491484
0.0020976419
0.0014883169
0.0018874526
0.001335697
0.0016856466
0.0011960625
0.0014932172
0.0010701561
0.0013112312
0.00095668209
0.0011406302
0.0008539671
0.0009820639
0.00076056674
0.00083586117
0.00067534384
0.00070210823
0.00059744048
0.00058074362
0.00052618375
0.00047143379
0.00046101971
0.00037396252
0.00040131429
0.00028791566
0.00034661095
0.00021279799
0.00029660456
0.00014826236
0.00025074173
9.3718449e-05
0.00020922294
4.852275e-05
0.00017188499
1.1744557e-05
0.00013857994
-1.7141807e-05
0.00010901933
-3.9462061e-05
8.3648953e-05
-5.5538812e-05
6.2272013e-05
-6.6205536e-05
4.3528355e-05
2.6579375e-05
-9.2218957e-06
8.7255929e-05
-1.8813569e-05
8.863047e-05
-2.8643319e-05
9.0433431e-05
-3.880522e-05
9.2456789e-05
-4.9238431e-05
9.4870404e-05
-6.015006e-05
9.7495185e-05
-7.1481718e-05
0.00010035955
-8.3298311e-05
0.00010339881
-9.5605768e-05
0.00010652217
-0.00010839709
0.00010969709
-0.00012171772
0.00011289016
-0.00013553275
0.0001160186
-0.00014979745
0.00011906034
-0.00016460484
0.00012198793
-0.00017985529
0.00012480173
-0.00019561337
0.00012751582
-0.00021188358
0.00013027582
-0.00022858629
0.00013307157
-0.00024577673
0.00013641472
-0.00026351055
0.00014053209
-0.00028190658
0.00014579419
-0.00030119298
0.00015297342
-0.00032179786
0.00016291918
-0.00034421608
0.00017672524
-0.00036935217
0.00019588601
-0.0003983055
0.00022192042
-0.00043261594
0.00025704304
-0.00047421295
0.00030376093
-0.00052551337
0.00036508991
-0.00058945675
0.00044458858
-0.00066952283
0.00054647669
-0.00076973334
0.00067578403
-0.00089463567
0.00083859072
-0.0010493053
0.0010423713
-0.0012394465
0.0012965505
-0.0014715616
0.0016129987
-0.0017528283
0.0020046264
-0.0020861312
0.0024863866
-0.0024646881
0.0031090892
-0.0029156784
0.0039630775
-0.0035773846
0.0048851016
-0.0045607506
0.0051154704
-0.0056947261
0.0039937705
-0.0066806185
0.0021835822
-0.0073820109
0.00038326885
-0.0078408613
-0.0015664837
-0.0078262643
-0.0036485266
-0.0072179307
-0.0057368186
-0.006115402
-0.007486495
-0.0046892525
-0.0085841622
-0.0030229275
-0.00920402
-0.0010739349
-0.0096766978
0.0012265815
-0.009925945
0.0035469652
-0.0096788024
0.0056935314
-0.009036409
0.0077094932
-0.0082256625
0.0095400953
-0.007107181
0.010818624
-0.0056426217
0.011700985
-0.0047997207
0.012309698
-0.0041341845
0.012824395
-0.0029529489
0.01312772
-0.0010795672
0.01273336
0.0018698381
0.011531151
0.0047233176
0.0096511901
0.006305839
0.0075506243
0.0060773928
0.0059285306
0.0044095648
0.0049777342
0.0028236969
0.0044467703
0.0022258835
0.0040607184
0.0022748466
0.0037355155
0.0024151257
0.0034445946
0.002466951
0.0031688228
0.0024367847
0.002904727
0.002343651
0.0026545607
0.0022069797
0.0024175811
0.0020461241
0.0021913547
0.0018753755
0.0019742053
0.0017054639
0.0017657921
0.0015441095
0.0015668192
0.0013950318
0.0013784905
0.0012584852
0.0012019265
0.0011332491
0.0010378318
0.0010180568
0.00088649664
0.00091190014
0.00074788484
0.0008139568
0.00062176141
0.00072356825
0.00050782172
0.00064012336
0.00040575073
0.00056309403
0.00031511962
0.00049194427
0.00023548363
0.00042624756
0.00016643497
0.00036565219
0.00010720736
0.00030996817
5.70078e-05
0.00025941923
1.5667387e-05
0.00021322735
-1.7305739e-05
0.00017155153
-4.2782625e-05
0.00013449556
-6.1182032e-05
0.00010204833
-7.3493294e-05
7.4580772e-05
-8.0218134e-05
5.0255006e-05
2.8626639e-05
-8.0449527e-06
9.6186953e-05
-1.7236297e-05
9.7824908e-05
-2.6706085e-05
9.9897988e-05
-3.6523366e-05
0.00010228207
-4.6744385e-05
0.00010508863
-5.7433242e-05
0.00010818499
-6.8582929e-05
0.00011151051
-8.0258733e-05
0.00011506967
-9.2472996e-05
0.00011874143
-0.00010525397
0.00012247764
-0.00011854993
0.00012618399
-0.00013243682
0.00012990982
-0.00014677794
0.00013340046
-0.00016165744
0.00013686658
-0.00017691363
0.00014006275
-0.00019259375
0.00014319639
-0.00020856595
0.00014624652
-0.00022482686
0.00014933577
-0.00024116594
0.00015275527
-0.0002575666
0.00015693068
-0.00027405024
0.00016227924
-0.00029058613
0.00016951232
-0.00030735501
0.00017968752
-0.00032456029
0.00019393029
-0.00034280559
0.00021413459
-0.00036280673
0.00024192392
-0.00038567538
0.00027991171
-0.00041286628
0.00033095371
-0.00044623659
0.00039846379
-0.00048803236
0.00048638509
-0.00054083819
0.0005992806
-0.00060748032
0.0007424254
-0.00069090721
0.00092201816
-0.00079399695
0.0011454605
-0.00091952906
0.0014220817
-0.0010698607
0.0017633311
-0.0012472815
0.0021820487
-0.0014514253
0.0026905299
-0.0016708602
0.0033285222
-0.0019133141
0.0042055317
-0.0023027156
0.0052745056
-0.003036264
0.0058490191
-0.0040705981
0.0050281016
-0.0051149299
0.0032279119
-0.0060217413
0.0012900805
-0.0068509497
-0.00073727494
-0.0074234409
-0.0030760368
-0.0074209499
-0.005739313
-0.0068432948
-0.0080641517
-0.005904209
-0.0095232474
-0.0045174472
-0.010590781
-0.0024654256
-0.01172872
0.00028408629
-0.01267546
0.0030052575
-0.012399974
0.0053075848
-0.011338734
0.0073473168
-0.010265394
0.0093335838
-0.0090934505
0.011078423
-0.0073874631
0.012295847
-0.0060171457
0.013018532
-0.0048568668
0.013376683
-0.0033110954
0.01304081
-0.00074369459
0.012532787
0.0023778606
0.011834344
0.0054217617
0.010844102
0.0072960819
0.0091513181
0.0077701779
0.0073400676
0.0062208148
0.0058783528
0.0042854116
0.0048813952
0.0032228393
0.0041946094
0.0029616315
0.0037083554
0.0029013798
0.0033422793
0.0028330292
0.0030308295
0.0027482362
0.0027478268
0.0026266544
0.0024888141
0.0024659913
0.0022499948
0.0022849412
0.0020262356
0.0020991364
0.0018141437
0.0019175549
0.0016126982
0.001745554
0.0014223061
0.0015854226
0.001243837
0.0014369513
0.0010778399
0.001299244
0.0009243958
0.0011715007
0.00078331839
0.0010529777
0.00065423669
0.00094303924
0.00053675479
0.00084105021
0.00043054039
0.00074633794
0.00033526335
0.00065837538
0.00025058487
0.00057662173
0.00017617649
0.00050065527
0.00011158916
0.00043023819
5.6520801e-05
0.00036503572
1.0944473e-05
0.00030499402
-2.5844146e-05
0.00025001866
-5.4486047e-05
0.00020019473
-7.531224e-05
0.00015532005
-8.9160028e-05
0.00011589592
-9.6830037e-05
8.2247914e-05
-9.8769712e-05
5.2192556e-05
2.5672211e-05
-6.4020116e-06
0.00010457641
-1.5139677e-05
0.00010655578
-2.4277009e-05
0.00010903789
-3.3715334e-05
0.00011171698
-4.3635272e-05
0.00011501052
-5.4063455e-05
0.00011861534
-6.5039978e-05
0.00012248163
-7.655693e-05
0.00012659005
-8.8683901e-05
0.00013086854
-0.00010143076
0.00013522259
-0.00011481542
0.00013957331
-0.00012870601
0.00014380078
-0.00014324317
0.00014793653
-0.00015819854
0.00015182665
-0.00017359578
0.00015546183
-0.00018922436
0.00015882365
-0.00020504815
0.00016207337
-0.00022089144
0.00016518174
-0.00023646781
0.00016832997
-0.00025158513
0.00017204815
-0.00026602546
0.00017672215
-0.00027963623
0.00018312286
-0.00029216866
0.0001922191
-0.00030360133
0.00020536576
-0.00031402852
0.00022456489
-0.00032381757
0.00025171336
-0.00033355822
0.00028965375
-0.00034421959
0.00034161919
-0.00035713911
0.00041138565
-0.00037397041
0.00050321501
-0.00039661836
0.00062192715
-0.00042701293
0.00077282029
-0.00046691253
0.00096191747
-0.00051733806
0.001195885
-0.00057914211
0.0014838864
-0.00065187066
0.0018360615
-0.00073443821
0.0022646164
-0.00082452624
0.0027806164
-0.00090445196
0.0034084474
-0.0009439263
0.0042450074
-0.0010162456
0.0053468255
-0.0013939116
0.0062266825
-0.0022568705
0.005891057
-0.0033726378
0.004343679
-0.0044886052
0.0024060493
-0.0057702833
0.00054440163
-0.0070149275
-0.0018313964
-0.0077770675
-0.0049771757
-0.00780929
-0.0080319287
-0.0071548132
-0.010177723
-0.0058598864
-0.011885709
-0.0036494152
-0.013939193
-0.00059299852
-0.015731878
0.0024253403
-0.015418311
0.0048843442
-0.013797735
0.0068666098
-0.01224766
0.0087447317
-0.010971577
0.010584237
-0.0092269697
0.011949662
-0.0073825685
0.012826279
-0.0057334797
0.013456672
-0.0039414869
0.013545647
-0.00083267198
0.013106562
0.0028169451
0.01223071
0.0062976154
0.011397477
0.0081293144
0.010269353
0.0088983026
0.0085909361
0.0078992308
0.0067855509
0.0060907951
0.0053169603
0.0046914295
0.0043100931
0.0039685009
0.003658556
0.0035529193
0.0032111048
0.0032804808
0.0028595643
0.0030997754
0.0025585097
0.0029277078
0.0022939927
0.0027305086
0.0020568975
0.0025220377
0.0018391418
0.0023168921
0.0016358636
0.0021208344
0.0014452078
0.001936208
0.0012668988
0.0017637272
0.0011008934
0.0016029601
0.00094689388
0.0014532448
0.00080449658
0.0013139004
0.00067323185
0.0011842372
0.00055272472
0.001063549
0.00044278182
0.00095099158
0.00034322394
0.00084589409
0.00025393446
0.00074766576
0.00017476206
0.00065579269
0.00010555992
0.00056985322
4.6180377e-05
0.00048961807
-3.6074531e-06
0.00041482427
-4.4149496e-05
0.00034553615
-7.5974788e-05
0.00028184126
-9.9307614e-05
0.00022352668
-0.00011486631
0.00017087388
-0.00012335675
0.00012438737
-0.00012545983
8.4352899e-05
-0.00012152012
4.8250305e-05
1.6914306e-05
-4.6562628e-06
0.00011239152
-1.2791371e-05
0.0001146978
-2.143811e-05
0.00011767756
-3.0472429e-05
0.00012075144
-4.0059877e-05
0.00012459987
-5.0150313e-05
0.00012870104
-6.0869454e-05
0.00013320432
-7.2237078e-05
0.00013795762
-8.4274558e-05
0.00014290281
-9.6984107e-05
0.00014793548
-0.00011037785
0.00015296741
-0.00012446714
0.0001578884
-0.00013913058
0.00016260425
-0.0001543146
0.00016701348
-0.00016991332
0.00017105946
-0.00018580553
0.00017471838
-0.00020164367
0.0001779149
-0.00021722897
0.00018076606
-0.00023232846
0.00018342897
-0.00024637853
0.00018610052
-0.00025899092
0.00018933487
-0.00026971421
0.00019384522
-0.00027809952
0.00020060702
-0.00028367365
0.00021094408
-0.0002859195
0.00022681224
-0.00028480798
0.00025060305
-0.00028037213
0.00028522193
-0.00027307016
0.00033432088
-0.00026372861
0.00040204396
-0.00025342863
0.00049291345
-0.00024355704
0.00061205569
-0.00023534001
0.00076460373
-0.0002298718
0.00095644824
-0.00022577192
0.0011917845
-0.00022303503
0.001481151
-0.00021862622
0.0018316535
-0.00020863816
0.0022546263
-0.00018854087
0.002760517
-0.00014064123
0.003360548
-8.6690885e-06
0.0041130358
0.00019934549
0.0051388091
0.00020029396
0.0062257307
-0.00032927717
0.0064206259
-0.0013971035
0.005411506
-0.0026456017
0.003654548
-0.0041941813
0.0020929781
-0.0059486045
-7.697713e-05
-0.0073676412
-0.00355814
-0.0080790899
-0.0073204783
-0.0077261582
-0.010530654
-0.0065696339
-0.013042236
-0.0045017556
-0.016007073
-0.0016708572
-0.018562775
0.0014961629
-0.01858533
0.0043155347
-0.016617108
0.0064962569
-0.014428384
0.0085742324
-0.013049555
0.010436354
-0.01108909
0.011680057
-0.0086262699
0.012321166
-0.0063745874
0.012447689
-0.0040680083
0.01255714
-0.00094212338
0.012474779
0.0028993058
0.012271317
0.0065010788
0.011439224
0.0089614066
0.010227386
0.01011014
0.0086161341
0.0095104809
0.0068221281
0.0078848024
0.0052891733
0.0062243875
0.0042101996
0.0050474761
0.0035056966
0.0042574234
0.0030185372
0.0037676402
0.0026437205
0.0034745929
0.0023355771
0.0032358537
0.0020737161
0.0029923707
0.0018439531
0.0027518019
0.0016362728
0.0025245703
0.0014450603
0.0023120451
0.0012676715
0.002113596
0.001102835
0.0019285669
0.00094957241
0.0017562226
0.0008070856
0.0015957292
0.00067486767
0.001446117
0.00055249594
0.001306608
0.00044002145
0.0011760266
0.00033735242
0.0010536626
0.00024449338
0.00093875531
0.00016149663
0.00083066151
8.8363352e-05
0.00072892613
2.4994607e-05
0.0006332218
-2.8701135e-05
0.00054331377
-7.3001026e-05
0.00045912097
-0.00010810336
0.00038063606
-0.00013419393
0.00030792967
-0.00015180938
0.00024113725
-0.00016145021
0.00018051535
-0.00016378861
0.00012672561
-0.00015949829
8.0056766e-05
-0.00014865412
3.7406951e-05
1.576265e-06
-2.5447632e-06
0.00011952206
-1.0065824e-05
0.00012221668
-1.815642e-05
0.00012576902
-2.6745116e-05
0.00012934082
-3.5886344e-05
0.00013373552
-4.5654774e-05
0.00013847309
-5.6075663e-05
0.00014362636
-6.7248996e-05
0.00014912845
-7.9158259e-05
0.00015481513
-9.1859131e-05
0.00016063638
-0.00010533098
0.00016643634
-0.00011953554
0.00017209568
-0.00013445201
0.00017752316
-0.00014997915
0.00018253906
-0.00016594957
0.00018703141
-0.00018212674
0.00019089905
-0.00019829756
0.00019408528
-0.00021404427
0.00019651198
-0.00022893076
0.00019831773
-0.00024234639
0.0001995172
-0.00025366922
0.0002006569
-0.00026203212
0.00020221048
-0.00026660797
0.00020518788
-0.00026652237
0.00021086131
-0.00026084882
0.00022114013
-0.00024875269
0.00023851053
-0.00022975236
0.00026622553
-0.00020369317
0.00030826222
-0.00017101304
0.00036936248
-0.00013228152
0.00045418203
-8.8420304e-05
0.00056819526
-4.0036776e-05
0.00071621948
1.3851995e-05
0.00090255826
7.0321031e-05
0.0011353159
0.00013522071
0.0014162522
0.00021210286
0.0017547697
0.00030731816
0.0021594073
0.00042874368
0.0026390893
0.00058929176
0.0032
0.00083624287
0.0038660836
0.0012372496
0.0047377993
0.0016452526
0.0058177257
0.0015688835
0.0064969954
0.00085555696
0.0061248333
-0.0003485949
0.0048586984
-0.0018375783
0.0035819578
-0.0036833553
0.0017687977
-0.0054075316
-0.0018339634
-0.006489617
-0.0062383923
-0.0066300551
-0.010390217
-0.005555752
-0.014116541
-0.0035890992
-0.017973727
-0.0011614893
-0.020990384
0.0014538041
-0.021200624
0.0040091425
-0.019172449
0.0064032311
-0.016822474
0.0083201721
-0.014966495
0.0098161535
-0.012585071
0.010899382
-0.0097094971
0.011350146
-0.006825351
0.011158534
-0.0038763956
0.01078947
-0.00057305893
0.010644385
0.0030443932
0.010696808
0.0064486572
0.0099073771
0.0097508378
0.0089470511
0.011070466
0.0074269467
0.011030584
0.0059752433
0.0093365069
0.0047395032
0.0074601293
0.0038390327
0.0059479465
0.003207582
0.0048888731
0.0027384605
0.0042367617
0.002370615
0.0038424419
0.0020739699
0.0035325025
0.0018264896
0.0032398553
0.0016114668
0.0029668261
0.0014187333
0.0027173044
0.0012427513
0.0024880323
0.0010802655
0.0022760768
0.00092931867
0.0020795162
0.00078852945
0.0018970086
0.00065717003
0.0017270909
0.00053474328
0.0015685413
0.00042139061
0.0014199597
0.00031701385
0.0012804019
0.00022179925
0.0011488765
0.00013591776
0.0010246349
5.9483221e-05
0.00090709582
-7.5389364e-06
0.00079594839
-6.4987994e-05
0.00069066868
-0.00011295443
0.00059127756
-0.00015149311
0.00049766048
-0.00018071556
0.00040985625
-0.00020085136
0.00032806854
-0.00021223264
0.00025251906
-0.00021528693
0.00018356771
-0.0002107347
0.00012217784
-0.00019909295
6.8418206e-05
-0.0001802811
1.8594834e-05
-2.1192489e-05
5.8165783e-09
0.00012577408
-6.8764608e-06
0.00012910329
-1.4376356e-05
0.00013327056
-2.240628e-05
0.00013736555
-3.1060668e-05
0.00014239347
-4.0447823e-05
0.00014786068
-5.0599132e-05
0.00015377568
-6.1522939e-05
0.00016005616
-7.3272198e-05
0.00016656506
-8.5941695e-05
0.00017330261
-9.9493418e-05
0.00017998958
-0.00011392767
0.0001865315
-0.00012915214
0.00019274503
-0.00014511388
0.00019850083
-0.00016163594
0.00020355635
-0.00017849884
0.00020776165
-0.00019527887
0.00021086425
-0.00021164823
0.00021288355
-0.00022689348
0.00021356473
-0.00024037358
0.00021299669
-0.00025108282
0.00021136786
-0.00025791941
0.00020905209
-0.00025962159
0.00020689372
-0.00025462804
0.00020586932
-0.00024154193
0.00020805692
-0.00021878601
0.00021575811
-0.00018546352
0.00023290331
-0.00014019905
0.00026299567
-8.3254605e-05
0.00031241779
-1.4990558e-05
0.00038591943
6.3531784e-05
0.00048967255
0.00014980818
0.00062994113
0.0002438406
0.0008085255
0.00035046138
0.001028696
0.00047190288
0.0012948095
0.0006145382
0.0016121304
0.00078630958
0.0019876321
0.00099682641
0.0024285712
0.0012579367
0.0029388896
0.0016013954
0.0035226227
0.002103049
0.0042361428
0.002744339
0.0051764359
0.0031514947
0.0060898416
0.0029482192
0.0063281088
0.0021285038
0.0056784115
0.00099075391
0.0047197056
-0.00037533853
0.0031348903
-0.0017308468
-0.00047845468
-0.0027732491
-0.0051959915
-0.0030412254
-0.010122242
-0.0023149274
-0.01484284
-0.00092772019
-0.019360934
0.00091739481
-0.022835499
0.002988994
-0.023272223
0.0046656552
-0.020849112
0.0062424716
-0.01839929
0.0073125947
-0.016036617
0.0077451507
-0.013017624
0.0081494592
-0.010113804
0.0085359114
-0.0072118034
0.0085103533
-0.0038508353
0.0081549926
-0.0002176963
0.0078777361
0.0033216499
0.0077635645
0.0065628274
0.0072170714
0.010297331
0.0060515931
0.012235945
0.0053369583
0.011745219
0.0045801143
0.010093353
0.0038605324
0.0081797138
0.0032581772
0.0065503018
0.0027672793
0.0053797706
0.0023626231
0.0046414163
0.0020346508
0.0041704155
0.0017707959
0.0037963578
0.0015508044
0.0034598514
0.0013588822
0.003158748
0.001186491
0.0028896956
0.0010288116
0.0026457104
0.00088274211
0.0024221451
0.00074624615
0.0022160118
0.00061811619
0.0020251389
0.00049787609
0.0018473302
0.00038561088
0.0016808056
0.00028120338
0.0015243677
0.00018499646
0.0013766074
9.7243721e-05
0.0012366302
1.8166634e-05
0.001103713
-5.1992929e-05
0.00097725463
-0.00011284431
0.00085679706
-0.00016444132
0.00074226907
-0.0002065854
0.00063342092
-0.00023926476
0.00053033893
-0.00026241342
0.0004330055
-0.00027622754
0.00034188139
-0.00028090599
0.00025719516
-0.00027680815
0.00017947139
-0.00026464046
0.00011000517
-0.0002446277
4.840119e-05
-0.00021676754
-9.2632951e-06
-5.2599864e-05
2.9487787e-06
0.00013110275
-3.2442147e-06
0.00013529736
-1.0068441e-05
0.00014009019
-1.7452759e-05
0.00014475474
-2.5560287e-05
0.00015050158
-3.4471362e-05
0.00015676961
-4.4206599e-05
0.00016351519
-5.4859524e-05
0.0001707105
-6.651741e-05
0.00017822011
-7.9125014e-05
0.00018591141
-9.2789924e-05
0.00019365555
-0.00010745874
0.00020119686
-0.00012314236
0.00020842728
-0.00013970387
0.00021506429
-0.00015701927
0.00022087121
-0.00017481209
0.00022555303
-0.00019278123
0.00022883544
-0.00021023475
0.00023033935
-0.00022665132
0.00022998083
-0.0002410395
0.0002273856
-0.00025225366
0.00022258606
-0.00025882428
0.00021562611
-0.0002588481
0.00020691873
-0.00025062552
0.00019764868
-0.00023168054
0.00018911455
-0.00019959499
0.00018367215
-0.00015232028
0.00018562534
-8.8126063e-05
0.00019879986
-6.0613866e-06
0.00023035437
9.3002181e-05
0.0002868563
0.00020387288
0.0003787998
0.00032775608
0.00050605655
0.00046466221
0.00067162051
0.00061702227
0.00087633613
0.00078972431
0.0011221039
0.00098956966
0.0014122806
0.0012258099
0.0017513898
0.0015088198
0.002145561
0.0018507382
0.0025969704
0.0022714601
0.0031018994
0.0028260825
0.0036815202
0.0035689119
0.0044336083
0.004309966
0.0053487889
0.0046545305
0.0059835433
0.0044509929
0.0058819477
0.0039904655
0.0051802326
0.0033928412
0.0037325149
0.0026348361
0.0002795502
0.0019328189
-0.0044939754
0.0016728283
-0.0098622518
0.0020030579
-0.01517307
0.0027394772
-0.020097354
0.0037550943
-0.023851117
0.0048158928
-0.024333022
0.0055352885
-0.021568508
0.005952394
-0.018816396
0.0059343701
-0.01601859
0.0052387379
-0.01232199
0.0046807888
-0.0095558536
0.0048428667
-0.007373881
0.0048491511
-0.0038571175
0.0044246304
0.0002068269
0.0042321666
0.0035141132
0.0042139187
0.0065810729
0.003711617
0.010799632
0.0029104722
0.013037089
0.0030226944
0.011632997
0.0030167032
0.010099344
0.0028221511
0.0083742695
0.0025236352
0.0068488191
0.002201599
0.0057018061
0.0018976447
0.0049453689
0.0016396185
0.0044284428
0.0014282924
0.0040076824
0.001248084
0.0036400634
0.0010873507
0.0033194788
0.00094051281
0.003036538
0.00080418766
0.0027820323
0.0006759962
0.0025503384
0.00055459021
0.0023374138
0.00043954537
0.0021401831
0.00033086036
0.0019560126
0.00022841921
0.0017832476
0.000132963
0.0016198253
4.4615161e-05
0.0014649581
-3.6048257e-05
0.0013172938
-0.00010851352
0.0011761745
-0.00017243974
0.0010411807
-0.00022753866
0.00091189562
-0.00027338969
0.00078811623
-0.00030975742
0.00066978889
-0.00033643323
0.00055701251
-0.000353409
0.00044997853
-0.00036065417
0.00034912756
-0.00035822184
0.00025476118
-0.00034646943
0.00016772244
-0.00032599982
8.9536711e-05
-0.00029658132
1.8982707e-05
-0.00025838534
-4.7459204e-05
-9.4622877e-05
6.2809181e-06
0.00013563989
6.4063175e-07
0.00014093256
-5.1627172e-06
0.00014589833
-1.1775858e-05
0.00015136711
-1.925878e-05
0.00015798313
-2.7652146e-05
0.00016516768
-3.7003454e-05
0.00017286808
-4.7330634e-05
0.00018103554
-5.8730093e-05
0.00018962127
-7.127586e-05
0.00019845834
-8.5003684e-05
0.00020737963
-0.00010000158
0.00021619259
-0.00011619885
0.00022462581
-0.0001335173
0.00023238189
-0.00015188303
0.00023923507
-0.00017100079
0.00024467259
-0.00019052709
0.00024836446
-0.00020995241
0.00024976443
-0.00022833299
0.00024836122
-0.00024478101
0.00024383624
-0.00025785497
0.00023566227
-0.00026585552
0.00022362667
-0.00026670413
0.00020776795
-0.00025728985
0.00018823614
-0.00023468158
0.00016650532
-0.00019564698
0.00014463319
-0.00013570795
0.0001256833
-5.2750817e-05
0.00011584334
5.4899592e-05
0.0001227047
0.0001843911
0.00015736295
0.00033216363
0.00023102522
0.00049419372
0.0003440269
0.00067030255
0.00049551299
0.00086376216
0.00068287528
0.0010804328
0.00090542973
0.0013285895
0.0011641217
0.00161731
0.0014626694
0.0019576413
0.0018052289
0.0023615115
0.0021930986
0.0028448717
0.0026185394
0.0034414829
0.003084911
0.0042125922
0.0036625007
0.0051201621
0.0044412194
0.0058924577
0.0052112472
0.0063215451
0.0054528604
0.0065196096
0.0049821682
0.0066564006
0.0035957239
0.0065242594
0.00041169165
0.0063174822
-0.004287199
0.0062250445
-0.0097698154
0.0063453331
-0.015293358
0.0067580642
-0.020510085
0.0071002795
-0.024193333
0.0069249109
-0.024157653
0.0063551114
-0.020998707
0.0056694953
-0.018130778
0.0045892235
-0.014938316
0.0034042821
-0.011137046
0.002236344
-0.0083879155
0.0018742376
-0.007011775
0.0013701687
-0.0033530492
0.00057813524
0.00099886513
0.00023292827
0.0038593207
0.00022811829
0.006585883
-0.00019432887
0.01122208
4.0483987e-05
0.012802277
0.00098332192
0.01069016
0.0015321433
0.009550523
0.0017117437
0.0081946693
0.0016816398
0.0068789231
0.0015433498
0.0058400961
0.0013658012
0.0051229172
0.0011998624
0.0045943813
0.0010558211
0.0041517294
0.00092481562
0.003771069
0.00080151639
0.0034427794
0.00068409416
0.0031539582
0.00057126329
0.0028948618
0.00046212779
0.0026594718
0.00035655005
0.0024429924
0.000254735
0.002241999
0.00015714887
0.0020535978
6.4475104e-05
0.001875924
-2.2821319e-05
0.0017071258
-0.00010359825
0.0015457316
-0.00017743964
0.0013911333
-0.00024378802
0.0012425254
-0.00030197031
0.0010993606
-0.00035147683
0.0009614026
-0.00039178959
0.00082842811
-0.00042250482
0.00070050478
-0.00044338334
0.00057789073
-0.0004540799
0.00046067222
-0.00045460936
0.00034965387
-0.00044478821
0.00024494425
-0.00042498581
0.00014792316
-0.00039550998
6.0059243e-05
-0.00035574323
-2.0784564e-05
-0.00030623799
-9.6965797e-05
-0.00014863772
1.0345062e-05
0.00013923066
5.7956187e-06
0.00014548715
7.1626108e-07
0.00015097475
-5.1892159e-06
0.00015726972
-1.2111318e-05
0.00016491016
-1.9879751e-05
0.00017293745
-2.8717539e-05
0.00018170408
-3.8646151e-05
0.00019096663
-4.9805418e-05
0.0002007823
-6.2250561e-05
0.00021090013
-7.6000913e-05
0.00022112781
-9.12459e-05
0.0002314386
-0.00010805169
0.00024143058
-0.00012630824
0.00025063627
-0.0001459476
0.00025887594
-0.00016678071
0.0002655087
-0.00018840622
0.00026999009
-0.00021032245
0.00027168
-0.00023187243
0.00026991264
-0.00025183371
0.00026379854
-0.00026872764
0.00025255481
-0.0002805242
0.00023542235
-0.0002844289
0.00021167362
-0.00027727501
0.00018108132
-0.00025469125
0.00014391691
-0.00021146715
0.00010140492
-0.00014202219
5.6238215e-05
-4.1021838e-05
1.4844186e-05
9.4452354e-05
-1.2770748e-05
0.00025931804
-7.5050313e-06
0.00044589527
4.4447899e-05
0.00064610243
0.00014382091
0.00085796987
0.00028364508
0.001086144
0.00045469941
0.0013387922
0.00065278075
0.0016254433
0.00087747125
0.001956167
0.0011319459
0.0023410555
0.001420339
0.0027914037
0.0017427489
0.0033219642
0.0020879797
0.0039546702
0.0024522069
0.004730596
0.0028865761
0.0056772462
0.0034945697
0.006685535
0.0042029581
0.0075931737
0.004545222
0.0083619994
0.0042133434
0.0090818867
0.002875837
0.0095369122
-4.3334549e-05
0.0098669088
-0.0046171971
0.010072546
-0.0099754532
0.010314753
-0.015535564
0.010596048
-0.020791379
0.010181667
-0.023778953
0.0084434503
-0.022419438
0.0062164115
-0.018771666
0.004612903
-0.016527266
0.0031695486
-0.013494959
0.0020709178
-0.010038411
0.0004651663
-0.0067821623
-0.000845866
-0.0057007412
-0.002024269
-0.0021746455
-0.0030631951
0.0020377943
-0.0032337257
0.004029853
-0.0036490982
0.0070012544
-0.0031019409
0.010674922
-0.0014581327
0.011158469
-0.00046312527
0.0096951527
0.0002008585
0.0088865399
0.00060879151
0.0077867352
0.00081243289
0.006675282
0.00084962832
0.0058029006
0.00080490102
0.0051676494
0.00074057545
0.0046587051
0.00067011411
0.0042221959