/*--------------------------------*- C++ -*----------------------------------*\
  =========                 |
  \\      /  F ield         | OpenFOAM: The Open Source CFD Toolbox
   \\    /   O peration     | Website:  https://openfoam.org
    \\  /    A nd           | Version:  9
     \\/     M anipulation  |
\*---------------------------------------------------------------------------*/
FoamFile
{
    format      ascii;
    class       volScalarField;
    location    "0.5";
    object      p;
}
// * * * * * * * * * * * * * * * * * * * * * * * * * * * * * * * * * * * * * //

dimensions      [1 -1 -2 0 0 0 0];

internalField   nonuniform List<scalar> 
5250
(
1
1
1
1.00001
1.00003
1.00008
1.00019
1.00055
1.00126
1.00352
1.00824
1.02247
1.05501
1.14648
1.39162
2.12754
4.4667
11.2832
12.5214
11.8021
11.7949
12.0532
12.3865
12.4743
12.5944
1
1
1
1.00001
1.00003
1.00008
1.00019
1.00054
1.00123
1.00347
1.00801
1.02227
1.05364
1.14428
1.38379
2.10632
4.40114
11.1472
12.5358
11.795
11.7856
12.0457
12.3844
12.4713
12.592
1
1
1
1.00001
1.00003
1.00008
1.00018
1.00052
1.00118
1.00333
1.00771
1.02144
1.05157
1.13879
1.36851
2.06036
4.2608
10.8321
12.5634
11.7739
11.7486
12.0066
12.3519
12.4353
12.5584
1
1
1
1.00001
1.00003
1.00008
1.00017
1.00049
1.00112
1.00314
1.00726
1.02021
1.04852
1.13066
1.34589
1.99186
4.05017
10.3226
12.6085
11.7478
11.6843
11.9337
12.2839
12.3649
12.4911
1
1
1
1.00001
1.00003
1.00007
1.00016
1.00045
1.00104
1.0029
1.0067
1.01865
1.04466
1.12022
1.3169
1.9037
3.77688
9.61043
12.6646
11.7252
11.5996
11.8314
12.1807
12.2593
12.3905
1
1
1
1.00001
1.00002
1.00006
1.00015
1.00041
1.00095
1.00264
1.00607
1.01685
1.0402
1.10802
1.28276
1.79938
3.44528
8.68661
12.6943
11.71
11.4996
11.697
12.0315
12.106
12.2382
1
1
1
1.00001
1.00002
1.00006
1.00014
1.00037
1.00086
1.00237
1.00544
1.01502
1.0355
1.09512
1.24585
1.68671
3.07089
7.53504
12.6818
11.6952
11.3825
11.5287
11.8227
11.8823
12.0064
1
1
1
1.00001
1.00002
1.00005
1.00012
1.00033
1.00077
1.00212
1.00488
1.01339
1.03146
1.08374
1.21251
1.5816
2.69073
6.1789
12.5213
11.6485
11.2314
11.3183
11.5338
11.5661
11.6517
1
1
1
1.00001
1.00002
1.00004
1.00011
1.00029
1.00069
1.00187
1.00435
1.01182
1.02789
1.07392
1.18627
1.50497
2.43726
5.29197
11.9441
11.506
11.04
11.0514
11.1374
11.1093
11.0822
1
1
1
1.00001
1.00001
1.00004
1.00009
1.00025
1.0006
1.0016
1.00374
1.01019
1.02403
1.06389
1.1599
1.43187
2.21737
4.60252
10.8627
11.1572
10.8839
10.6926
10.6353
10.46
10.1063
1
1
1
1
1.00001
1.00003
1.00008
1.0002
1.00049
1.00133
1.00311
1.00853
1.02004
1.05376
1.13351
1.35949
2.00503
3.978
9.53787
10.9021
10.6467
10.2745
10.0038
9.41034
7.81196
1
1
1
1
1.00001
1.00003
1.00006
1.00017
1.00039
1.00107
1.00253
1.00677
1.01646
1.04291
1.10862
1.28779
1.80036
3.36806
8.00985
10.7144
10.4094
9.85785
9.37904
8.56532
6.91076
1
1
1
1
1.00001
1.00002
1.00005
1.00012
1.00032
1.0008
1.00198
1.00518
1.01262
1.03312
1.08276
1.2192
1.59577
2.75188
6.24119
10.4307
10.1362
9.49683
8.88994
8.01698
6.64648
1
1
1
1
1.00001
1.00001
1.00004
1.00009
1.00025
1.00059
1.00161
1.00373
1.01028
1.02417
1.06479
1.16236
1.43995
2.24014
4.58836
9.77296
9.68874
9.25314
8.54054
7.68193
6.56802
1
1
1
1
1
1.00001
1.00003
1.00007
1.00017
1.00047
1.00111
1.00301
1.00724
1.019
1.04732
1.12305
1.32448
1.907
3.64974
8.29889
9.23612
8.96609
8.32735
7.46776
6.51223
1
1
1
1
1
1.00001
1.00002
1.00005
1.00012
1.00034
1.00077
1.00216
1.00499
1.01392
1.03289
1.0888
1.22713
1.62937
2.83071
6.31506
8.91868
8.74138
8.21208
7.35736
6.48642
1
1
1
1
1
1.00001
1.00001
1.00003
1.00009
1.00022
1.00056
1.00146
1.00354
1.00944
1.02282
1.06023
1.15185
1.40763
2.12961
4.15284
8.29014
8.41335
8.10191
7.36319
6.49479
1
1
1
1
1
1
1.00001
1.00002
1.00006
1.00014
1.0004
1.00092
1.00257
1.00593
1.01652
1.03907
1.10524
1.27049
1.75156
3.14079
6.81375
8.09911
7.90766
7.35809
6.53192
1
1
1
1
1
1
1.00001
1.00002
1.00004
1.0001
1.00023
1.00065
1.0015
1.00417
1.00962
1.02644
1.06327
1.16966
1.44557
2.24953
4.44112
7.56621
7.58756
7.31783
6.6502
1
1
1
1
1
1
1
1.00001
1.00002
1.00006
1.00016
1.00037
1.00104
1.0024
1.00666
1.01553
1.04233
1.10333
1.27925
1.75149
3.09482
6.34962
7.33677
7.20249
6.76981
1
1
1
1
1
1
1
1.00001
1.00001
1.00004
1.00009
1.00024
1.00058
1.00155
1.00369
1.00997
1.02363
1.06309
1.15757
1.42392
2.15153
4.06802
6.80106
6.95346
6.73682
1
1
1
1
1
1
1
1
1.00001
1.00002
1.00005
1.00014
1.00034
1.00092
1.00218
1.00582
1.01418
1.03698
1.09307
1.24573
1.65796
2.79121
5.54809
6.65709
6.5976
1
1
1
1
1
1
1
1
1
1.00001
1.00003
1.00007
1.00021
1.00048
1.00132
1.00307
1.0084
1.01985
1.05287
1.13099
1.34675
1.9108
3.30172
5.98791
6.38598
1
1
1
1
1
1
1
1
1
1.00001
1.00002
1.00004
1.0001
1.00028
1.00065
1.00179
1.00416
1.01147
1.02709
1.07294
1.18346
1.49224
2.31105
4.38656
5.96183
1
1
1
1
1
1
1
1
1
1
1.00001
1.00002
1.00005
1.00014
1.00035
1.00092
1.00221
1.006
1.01426
1.03851
1.09482
1.25278
1.66026
2.70386
4.98025
1
1
1
1
1
1
1
1
1
1
1
1.00001
1.00003
1.00007
1.00018
1.00043
1.0012
1.00277
1.00771
1.01796
1.04894
1.11895
1.31512
1.79644
2.9277
1
1
1
1
1
1
1
1
1
1
1
1.00001
1.00001
1.00003
1.00008
1.00021
1.00056
1.00135
1.00363
1.00856
1.02331
1.05577
1.14927
1.37727
1.9803
1
1
1
1
1
1
1
1
1
1
1
1
1.00001
1.00002
1.00004
1.0001
1.00024
1.00066
1.00153
1.00426
1.00997
1.0273
1.06613
1.17731
1.44955
1
1
1
1
1
1
1
1
1
1
1
1
1
1.00001
1.00002
1.00004
1.0001
1.00029
1.00067
1.00186
1.00435
1.01214
1.02867
1.07849
1.19551
1
1
1
1
1
1
1
1
1
1
1
1
1
1
1.00001
1.00002
1.00005
1.00011
1.0003
1.00071
1.00198
1.00465
1.01295
1.03097
1.08362
1
1
1
1
1
1
1
1
1
1
1
1
1
1
1
1.00001
1.00002
1.00004
1.00012
1.00028
1.00078
1.00183
1.00512
1.0122
1.03325
1
1
1
1
1
1
1
1
1
1
1
1
1
1
1
1
1.00001
1.00002
1.00004
1.00011
1.00026
1.00074
1.00176
1.00487
1.01179
1
1
1
1
1
1
1
1
1
1
1
1
1
1
1
1
1
1.00001
1.00001
1.00004
1.0001
1.00024
1.00065
1.00161
1.0044
1
1
1
1
1
1
1
1
1
1
1
1
1
1
1
1
1
1
1
1.00001
1.00003
1.00008
1.0002
1.00055
1.00136
1
1
1
1
1
1
1
1
1
1
1
1
1
1
1
1
1
1
1
1
1.00001
1.00003
1.00006
1.00017
1.0004
1
1
1
1
1
1
1
1
1
1
1
1
1
1
1
1
1
1
1
1
1
1.00001
1.00002
1.00004
1.00013
1
1
1
1
1
1
1
1
1
1
1
1
1
1
1
1
1
1
1
1
1
1
1
1.00001
1.00003
1
1
1
1
1
1
1
1
1
1
1
1
1
1
1
1
1
1
1
1
1
1
1
1
1.00001
1
1
1
1
1
1
1
1
1
1
1
1
1
1
1
1
1
1
1
1
1
1
1
1
1
1
1
1
1
1
1
1
1
1
1
1
1
1
1
1
1
1
1
1
1
1
1
1
1
1
1
1
1
1
1
1
1
1
1
1
1
1
1
1
1
1
1
1
1
1
1
1
1
1
1
1
1
1
1
1
1
1
1
1
1
1
1
1
1
1
1
1
1
1
1
1
1
1
1
1
1
1
1
1
1
1
1
1
1
1
1
1
1
1
1
1
1
1
1
1
1
1
1
1
1
1
1
1
1
1
1
1
1
1
1
1
1
1
1
1
1
1
1
1
1
1
1
1
1
1
1
1
1
1
1
1
1
1
1
1
1
1
1
1
1
1
1
1
1
1
1
1
1
1
1
1
1
1
1
1
1
1
1
1
1
1
1
1
1
1
1
1
1
1
1
1
1
1
1
1
1
1
1
1
1
1
1
1
1
1
1
1
1
1
1
1
1
1
1
1
1
1
1
1
1
1
1
1
1
1
1
1
1
1
1
1
1
1
1
1
1
1
1
1
1
1
1
1
1
1
1
1
1
1
1
1
1
1
1
1
1
1
1
1
1
1
1
1
1
1
1
1
1
1
1
1
1
1
1
1
1
1
1
1
1
1
1
1
1
1
1
1
1
1
1
1
1
1
1
1
3.14799
1.56105
1.03593
0.879575
0.892094
0.940038
1.04354
1.14038
1.16908
1.16526
1.15194
1.12261
1.08962
1.06619
1.05224
1.04116
1.03069
1.01922
1.0063
0.992335
0.978
0.963904
0.95044
0.937779
0.92594
0.914906
0.904693
0.895314
0.88678
0.879214
0.872673
0.866915
0.862157
0.858828
0.855981
0.853522
0.852323
0.852026
0.852065
0.852286
0.852897
0.854319
0.856497
0.860436
0.8649
0.868983
0.873625
0.878885
0.884765
0.891209
0.898155
0.905456
0.91295
0.92046
0.927796
0.934778
0.941259
0.947163
0.952505
0.957394
0.962016
0.966593
0.971332
0.976405
0.981921
0.987889
0.994215
1.00072
1.00714
1.01316
1.01845
1.02273
1.02581
1.02767
1.02849
1.02866
1.02865
1.02851
1.02807
1.02685
1.02387
1.02001
1.01588
1.01199
1.00885
1.00637
1.00447
1.00306
1.00203
1.00126
1.00078
1.0005
1.00031
1.00019
1.00011
1.00006
1.00003
1.00001
1
0.999992
3.87136
2.37973
1.73104
1.44192
1.29896
1.19513
1.12597
1.09944
1.10052
1.10449
1.11278
1.11223
1.10805
1.0971
1.07474
1.05088
1.03085
1.01459
1.00074
0.988179
0.976137
0.964094
0.951875
0.939602
0.927526
0.915962
0.905179
0.895338
0.886558
0.878911
0.87233
0.866806
0.862336
0.858757
0.855974
0.853987
0.85277
0.852218
0.852049
0.852236
0.852823
0.854231
0.856279
0.859127
0.863891
0.869278
0.873283
0.878291
0.884068
0.890445
0.897272
0.904446
0.911832
0.919265
0.926561
0.933542
0.940068
0.946061
0.951525
0.95655
0.961298
0.965976
0.970809
0.975966
0.981529
0.987521
0.993865
1.00038
1.00683
1.01288
1.01821
1.02251
1.02561
1.0275
1.02837
1.02858
1.02858
1.02847
1.02808
1.02699
1.02433
1.02015
1.01569
1.01192
1.00885
1.00641
1.00454
1.00307
1.00193
1.00123
1.00081
1.00051
1.00032
1.00019
1.00011
1.00006
1.00003
1.00001
1
0.99999
4.67522
3.29678
2.43086
1.8818
1.52427
1.29334
1.14993
1.06682
1.04854
1.05081
1.05764
1.0715
1.07622
1.0748
1.06961
1.058
1.03764
1.01717
0.998983
0.984302
0.971535
0.959593
0.947906
0.936375
0.925032
0.91406
0.903666
0.894016
0.885288
0.877585
0.870919
0.865368
0.860878
0.857251
0.854604
0.852718
0.851336
0.850972
0.85102
0.85126
0.85196
0.853434
0.855487
0.858524
0.863324
0.868432
0.87275
0.87788
0.883718
0.890128
0.896999
0.904221
0.911654
0.919132
0.926472
0.933496
0.940068
0.94611
0.951622
0.956687
0.961465
0.966166
0.971002
0.976156
0.981747
0.987786
0.994176
1.00073
1.00718
1.01323
1.01854
1.02282
1.02586
1.0277
1.02853
1.02873
1.02873
1.02863
1.02824
1.02713
1.02452
1.01991
1.01552
1.01182
1.00878
1.00637
1.00449
1.003
1.00188
1.00123
1.0008
1.00051
1.00031
1.00019
1.00011
1.00006
1.00003
1.00001
1
0.99999
5.0997
3.84961
2.93143
2.29465
1.86496
1.57184
1.37479
1.2467
1.1569
1.10056
1.06977
1.05701
1.05566
1.05586
1.05529
1.05308
1.04751
1.03589
1.01725
0.997371
0.979177
0.963289
0.949437
0.937167
0.925902
0.915382
0.905452
0.896057
0.887308
0.879374
0.872375
0.866476
0.86167
0.857787
0.854955
0.852957
0.851486
0.851085
0.851122
0.851341
0.852001
0.853361
0.855512
0.858419
0.863114
0.868268
0.872664
0.877802
0.883628
0.890026
0.896893
0.904112
0.91154
0.919008
0.926331
0.933336
0.939896
0.945941
0.951482
0.956604
0.961463
0.966258
0.971206
0.976486
0.982203
0.988359
0.994863
1.00153
1.00806
1.01415
1.01945
1.02369
1.02668
1.02843
1.02916
1.02931
1.0293
1.02917
1.02871
1.02739
1.0245
1.01971
1.0154
1.01175
1.00875
1.00635
1.00442
1.00288
1.00185
1.00124
1.00081
1.00051
1.00032
1.00019
1.00011
1.00006
1.00003
1.00001
1
0.999989
5.34429
4.24757
3.36403
2.69969
2.2146
1.86129
1.60166
1.40942
1.26753
1.16536
1.09622
1.05054
1.02977
1.02074
1.01839
1.01787
1.01666
1.01373
1.00756
0.995537
0.980527
0.964761
0.949489
0.935549
0.922787
0.91157
0.901651
0.892529
0.884171
0.876683
0.870087
0.864493
0.859883
0.85606
0.853242
0.851215
0.849696
0.849335
0.849393
0.849663
0.850357
0.85187
0.854045
0.857903
0.862024
0.866591
0.871576
0.877078
0.883112
0.889643
0.896588
0.903841
0.911277
0.91872
0.925978
0.932891
0.939347
0.94531
0.950805
0.95592
0.960805
0.965647
0.970663
0.976046
0.981901
0.988225
0.994915
1.00176
1.00846
1.01466
1.02003
1.02427
1.02724
1.02896
1.02965
1.02978
1.02976
1.02959
1.02906
1.02751
1.02451
1.01952
1.01519
1.01156
1.00859
1.00621
1.00428
1.00277
1.00183
1.00123
1.0008
1.0005
1.00031
1.00018
1.0001
1.00005
1.00003
1.00001
1
0.99999
5.50305
4.54455
3.71945
3.05753
2.54479
2.15158
1.85099
1.62124
1.44521
1.31044
1.20823
1.13469
1.08003
1.04215
1.01996
1.00782
1.00185
0.999849
0.997997
0.994248
0.986667
0.974681
0.961006
0.946542
0.932544
0.919011
0.906649
0.895711
0.886286
0.878408
0.871759
0.866204
0.861639
0.857818
0.854932
0.852785
0.851123
0.850491
0.850498
0.850669
0.851203
0.852395
0.85483
0.858112
0.861995
0.866477
0.871492
0.87703
0.883071
0.889585
0.896513
0.90371
0.911098
0.9185
0.9257
0.932538
0.938915
0.944811
0.95027
0.955385
0.960303
0.965185
0.970245
0.975699
0.981666
0.988141
0.994992
1.00199
1.00883
1.01515
1.0206
1.0249
1.02789
1.02957
1.03024
1.03033
1.03017
1.02996
1.02943
1.02793
1.02476
1.01951
1.01506
1.01142
1.00848
1.00609
1.00412
1.00268
1.00183
1.00122
1.0008
1.0005
1.00031
1.00018
1.0001
1.00006
1.00003
1.00001
1
0.99999
5.61671
4.77146
4.01402
3.37392
2.85234
2.43499
2.10376
1.84126
1.63282
1.4669
1.33487
1.23097
1.14937
1.08768
1.0421
1.01035
0.989714
0.978165
0.97169
0.967998
0.96512
0.960765
0.95387
0.944235
0.93285
0.920482
0.908057
0.896347
0.885701
0.877014
0.86967
0.863539
0.858641
0.854689
0.85181
0.849798
0.848318
0.847959
0.848008
0.84827
0.848972
0.850445
0.853069
0.856377
0.860371
0.865025
0.870296
0.87614
0.882499
0.889284
0.896455
0.903863
0.911432
0.919013
0.926381
0.933355
0.939825
0.945718
0.95119
0.956476
0.961548
0.966499
0.971596
0.977086
0.98306
0.989528
0.996377
1.00337
1.01016
1.01642
1.02177
1.0259
1.02867
1.03015
1.03064
1.03076
1.03093
1.03077
1.03015
1.02832
1.02441
1.01914
1.01478
1.01119
1.00827
1.00589
1.00394
1.0026
1.00179
1.00119
1.00077
1.00049
1.0003
1.00018
1.0001
1.00005
1.00003
1.00001
1
0.99999
5.71662
4.95502
4.25922
3.64923
3.13213
2.70308
2.3512
2.06427
1.8306
1.64035
1.48526
1.35943
1.2577
1.17623
1.11118
1.06094
1.02327
0.995486
0.976366
0.964106
0.956591
0.951722
0.947183
0.941516
0.934221
0.925519
0.915627
0.905145
0.894991
0.884885
0.875614
0.867821
0.861531
0.85663
0.852884
0.850392
0.848593
0.84786
0.84788
0.848093
0.848718
0.85005
0.85256
0.855842
0.859852
0.864573
0.869958
0.875947
0.882459
0.889404
0.896717
0.904301
0.912037
0.919711
0.927156
0.934254
0.940921
0.946977
0.952321
0.957643
0.96317
0.968215
0.973367
0.979
0.98521
0.991969
0.999025
1.00609
1.01284
1.01895
1.02404
1.02782
1.03019
1.03134
1.03187
1.03238
1.03235
1.03208
1.03112
1.02872
1.02394
1.01885
1.01458
1.01103
1.00812
1.00571
1.00379
1.00257
1.00177
1.00118
1.00077
1.00048
1.0003
1.00018
1.0001
1.00005
1.00003
1.00001
1
0.999991
5.83984
5.11951
4.47126
3.89173
3.3862
2.95401
2.5897
2.28471
2.03099
1.82005
1.64505
1.49985
1.37948
1.27982
1.19743
1.12991
1.07521
1.03153
0.997796
0.972515
0.953954
0.940607
0.931175
0.924525
0.919241
0.913863
0.907844
0.901049
0.8935
0.885453
0.877894
0.87072
0.864243
0.858714
0.854142
0.850616
0.848159
0.846382
0.846011
0.846105
0.846513
0.847514
0.849586
0.852866
0.856925
0.861703
0.867164
0.87325
0.879844
0.886865
0.894229
0.901814
0.909571
0.917343
0.924787
0.931861
0.938473
0.944591
0.950336
0.955847
0.961347
0.967289
0.973544
0.979381
0.985779
0.993055
1.00059
1.00802
1.01497
1.0211
1.02605
1.02959
1.03173
1.03284
1.03368
1.03382
1.03367
1.03313
1.03156
1.02816
1.02302
1.01825
1.01412
1.01066
1.0078
1.00541
1.0036
1.00251
1.00171
1.00114
1.00074
1.00046
1.00028
1.00017
1.00009
1.00005
1.00003
1.00001
1
0.999991
5.98189
5.27744
4.65916
4.10452
3.61318
3.1839
2.8138
2.49741
2.22886
2.00168
1.81006
1.64849
1.5124
1.39768
1.30108
1.21976
1.15173
1.0952
1.04843
1.01028
0.980083
0.956612
0.938941
0.925614
0.915801
0.908292
0.902308
0.897108
0.892201
0.887175
0.881807
0.876274
0.870736
0.865459
0.860632
0.856472
0.853158
0.850625
0.84893
0.848619
0.848707
0.849103
0.850125
0.85229
0.855979
0.860433
0.865617
0.871485
0.877859
0.884521
0.891645
0.89928
0.906879
0.914378
0.92165
0.928587
0.935123
0.941243
0.947022
0.952668
0.95844
0.964567
0.971204
0.978224
0.985027
0.992548
1.00076
1.00874
1.01604
1.02236
1.02741
1.03096
1.03322
1.03479
1.03534
1.03526
1.03496
1.03408
1.03191
1.02773
1.02249
1.01777
1.01371
1.01032
1.00749
1.00515
1.00349
1.00245
1.00167
1.00111
1.00072
1.00045
1.00028
1.00017
1.0001
1.00005
1.00003
1.00001
1.00001
0.999992
6.20141
5.46803
4.84062
4.30146
3.82103
3.39622
3.02387
2.70052
2.42152
2.18187
1.97681
1.80186
1.6523
1.52454
1.41524
1.32174
1.24173
1.17342
1.11516
1.06577
1.02414
0.989487
0.961056
0.938361
0.920404
0.906486
0.896118
0.888395
0.882581
0.877967
0.874039
0.87062
0.867313
0.864042
0.860842
0.85779
0.855031
0.852618
0.850953
0.850515
0.850561
0.850848
0.851683
0.853515
0.856962
0.861383
0.866764
0.872842
0.879255
0.886054
0.89362
0.901354
0.908915
0.916297
0.923336
0.929916
0.936034
0.941759
0.947209
0.952585
0.95815
0.964179
0.970788
0.977939
0.985348
0.992751
1.00106
1.0093
1.01675
1.02307
1.02809
1.03174
1.03433
1.03588
1.03617
1.03605
1.03567
1.03471
1.03234
1.02776
1.02212
1.01728
1.01324
1.0099
1.0071
1.00485
1.00336
1.00235
1.0016
1.00106
1.00068
1.00043
1.00026
1.00016
1.00009
1.00005
1.00003
1.00001
1
0.999993
6.3002
5.68148
5.0387
4.48798
4.01461
3.59492
3.22247
2.89431
2.60798
2.35932
2.14361
1.957
1.79584
1.65673
1.53632
1.43217
1.34168
1.26335
1.19517
1.13614
1.08499
1.041
1.00337
0.971495
0.944985
0.923483
0.906286
0.89265
0.88256
0.875054
0.869616
0.865548
0.862394
0.859738
0.857632
0.85585
0.854065
0.852713
0.852126
0.852092
0.852215
0.852682
0.853904
0.856632
0.860438
0.865236
0.87124
0.877908
0.884885
0.892749
0.901343
0.909643
0.917722
0.925401
0.932525
0.938996
0.944834
0.95017
0.955186
0.960074
0.964991
0.970328
0.976321
0.98297
0.990057
0.997143
1.00488
1.01278
1.01984
1.02572
1.03031
1.03392
1.03644
1.03725
1.03733
1.03728
1.03698
1.03601
1.03336
1.02785
1.02176
1.01687
1.01286
1.00955
1.00677
1.00463
1.00327
1.00227
1.00154
1.00102
1.00066
1.00042
1.00026
1.00015
1.00009
1.00005
1.00003
1.00001
1.00001
0.999994
6.25224
5.89242
5.25565
4.68746
4.20208
3.78223
3.41202
3.08139
2.78949
2.53318
2.30901
2.11297
1.94184
1.79262
1.66239
1.54856
1.44882
1.36134
1.28444
1.21682
1.15728
1.10504
1.0593
1.01956
0.985151
0.955814
0.930987
0.910563
0.893708
0.880352
0.870276
0.862707
0.857117
0.853041
0.84991
0.84766
0.845739
0.844944
0.844949
0.845152
0.845774
0.847143
0.849944
0.85387
0.858477
0.864518
0.87198
0.879759
0.887805
0.897263
0.90693
0.916173
0.925087
0.933399
0.940916
0.947594
0.953459
0.958697
0.963569
0.968328
0.973357
0.978793
0.984775
0.991421
0.99829
1.00501
1.01211
1.0193
1.02584
1.03098
1.03504
1.03811
1.03932
1.03968
1.03972
1.03963
1.03914
1.03735
1.03304
1.02638
1.02086
1.01621
1.01232
1.00908
1.00637
1.0044
1.00312
1.00216
1.00146
1.00096
1.00062
1.00039
1.00024
1.00014
1.00008
1.00005
1.00002
1.00001
1.00001
0.999994
6.07401
5.89378
5.47901
4.90711
4.40275
3.97127
3.59472
3.2643
2.96865
2.70563
2.47331
2.269
2.08916
1.93103
1.79193
1.6694
1.56127
1.46554
1.38068
1.30528
1.2384
1.17887
1.12623
1.07957
1.03856
1.00269
0.971438
0.944582
0.921539
0.902197
0.885698
0.872331
0.86185
0.853622
0.847384
0.842707
0.83948
0.837369
0.836289
0.836304
0.836582
0.837415
0.839233
0.842984
0.847915
0.85412
0.861903
0.86972
0.877786
0.887832
0.897861
0.907705
0.917406
0.926699
0.935399
0.943416
0.950767
0.957654
0.964174
0.970499
0.976889
0.983421
0.990291
0.997564
1.00522
1.01273
1.01995
1.02697
1.03312
1.03802
1.0417
1.04342
1.04378
1.0438
1.04371
1.0432
1.04142
1.03733
1.03111
1.02526
1.02005
1.01556
1.01177
1.0086
1.00601
1.00422
1.00299
1.00206
1.00139
1.00092
1.00059
1.00038
1.00023
1.00014
1.00008
1.00005
1.00003
1.00001
1.00001
0.999996
5.79705
5.77658
5.57684
5.15244
4.63214
4.17549
3.7846
3.44334
3.14281
2.87589
2.63738
2.42545
2.23797
2.07197
1.92472
1.79419
1.67809
1.57472
1.48253
1.40012
1.32644
1.26049
1.20156
1.14892
1.10208
1.06044
1.02367
0.991231
0.962805
0.938006
0.916351
0.897645
0.881039
0.86731
0.856177
0.847306
0.840336
0.835184
0.831834
0.829917
0.82992
0.830182
0.831057
0.832968
0.836454
0.840365
0.846018
0.852384
0.858252
0.866825
0.875782
0.884803
0.894154
0.903643
0.913102
0.922475
0.931773
0.941082
0.95038
0.959712
0.969105
0.978566
0.988151
0.997799
1.00716
1.01624
1.02455
1.03212
1.03856
1.04373
1.04702
1.04767
1.0477
1.04756
1.04705
1.04553
1.04193
1.03649
1.03014
1.02431
1.01917
1.01479
1.01112
1.00804
1.00562
1.00401
1.00282
1.00194
1.00131
1.00086
1.00056
1.00035
1.00022
1.00013
1.00008
1.00004
1.00002
1.00001
1.00001
0.999996
5.10779
5.55369
5.5014
5.29403
4.87379
4.40604
3.99282
3.63528
3.32237
3.04567
2.80111
2.58349
2.38883
2.21507
2.06037
1.92226
1.79887
1.6884
1.58935
1.50039
1.42044
1.34855
1.28391
1.22588
1.17379
1.12719
1.0855
1.04837
1.0153
0.9859
0.959862
0.936654
0.916246
0.898022
0.88151
0.867582
0.856222
0.846956
0.839864
0.834548
0.831194
0.828914
0.828941
0.829296
0.830326
0.832626
0.836621
0.841548
0.846045
0.851531
0.858691
0.865627
0.873237
0.881482
0.89025
0.899596
0.909609
0.920273
0.9315
0.943193
0.9552
0.967461
0.979765
0.991915
1.00384
1.01498
1.02494
1.0337
1.04105
1.04658
1.04977
1.0502
1.05015
1.04986
1.04892
1.04664
1.042
1.03589
1.02926
1.02335
1.01827
1.014
1.01046
1.0075
1.0053
1.0038
1.00266
1.00183
1.00123
1.00081
1.00053
1.00033
1.00021
1.00013
1.00007
1.00004
1.00002
1.00001
1.00001
0.999997
3.43502
5.02696
5.31758
5.24851
5.04379
4.63352
4.21402
3.83997
3.5121
3.22405
2.96876
2.74199
2.54079
2.36129
2.19974
2.05452
1.92411
1.80679
1.70116
1.60591
1.52001
1.44248
1.37253
1.30944
1.25257
1.20138
1.15532
1.11394
1.07678
1.04338
1.01344
0.986457
0.962343
0.940565
0.921381
0.903966
0.888294
0.874826
0.86373
0.854785
0.847963
0.842601
0.83928
0.836881
0.83645
0.836655
0.837368
0.838944
0.842106
0.845107
0.850494
0.856179
0.862635
0.870013
0.878137
0.887049
0.89693
0.907824
0.919582
0.932027
0.944944
0.958311
0.972196
0.986014
0.999384
1.01191
1.02312
1.0328
1.04085
1.04687
1.05033
1.05081
1.05076
1.05044
1.04946
1.04704
1.04192
1.03507
1.02815
1.02223
1.01726
1.01315
1.00972
1.00694
1.00497
1.00354
1.00247
1.00169
1.00114
1.00075
1.00049
1.00031
1.00019
1.00012
1.00007
1.00004
1.00002
1.00001
1.00001
0.999998
2.15506
3.74732
4.9001
5.09654
5.01917
4.81946
4.43225
4.0555
3.71427
3.4117
3.14448
2.90792
2.69739
2.5094
2.3414
2.19046
2.05385
1.93016
1.81816
1.71686
1.6252
1.54225
1.46719
1.39927
1.33785
1.28233
1.23217
1.18686
1.14593
1.10893
1.07547
1.0452
1.01785
0.993161
0.970972
0.951074
0.933454
0.917716
0.903804
0.890942
0.880906
0.872644
0.866025
0.861186
0.857622
0.855396
0.85419
0.854298
0.854693
0.855555
0.85728
0.860846
0.865227
0.87087
0.877524
0.885283
0.894378
0.904844
0.91631
0.928532
0.941581
0.955633
0.97003
0.9844
0.998339
1.01142
1.0231
1.03311
1.04138
1.04743
1.05057
1.05116
1.05114
1.05085
1.04995
1.04749
1.04204
1.03417
1.02697
1.02108
1.01625
1.01228
1.009
1.00643
1.00464
1.00328
1.00228
1.00156
1.00105
1.00069
1.00045
1.00029
1.00018
1.00011
1.00007
1.00004
1.00002
1.00001
1.00001
0.999999
1.50897
2.24739
3.86327
4.74722
4.88748
4.80837
4.61838
4.26993
3.9286
3.61346
3.33157
3.08213
2.86119
2.66467
2.48864
2.33002
2.18679
2.05723
1.93981
1.83298
1.73592
1.64776
1.56778
1.49521
1.42941
1.36973
1.31562
1.26655
1.22202
1.1816
1.14488
1.11154
1.08125
1.05386
1.02908
1.00686
0.986974
0.969323
0.953542
0.940273
0.927868
0.917154
0.907548
0.899867
0.893812
0.888935
0.885378
0.883104
0.881493
0.881502
0.881734
0.882561
0.884474
0.888336
0.893444
0.899786
0.907619
0.916996
0.927366
0.938724
0.951122
0.964511
0.978288
0.992036
1.00537
1.01778
1.02877
1.03812
1.04558
1.05057
1.05269
1.05323
1.05321
1.0529
1.05184
1.04874
1.04185
1.03271
1.02557
1.01985
1.0152
1.0114
1.00831
1.00595
1.00427
1.00301
1.00208
1.00142
1.00095
1.00063
1.00041
1.00026
1.00016
1.0001
1.00006
1.00004
1.00002
1.00001
1.00001
0.999999
1.20906
1.5332
2.27044
3.84841
4.57404
4.687
4.61322
4.44115
4.13735
3.82777
3.53404
3.26953
3.03512
2.82756
2.64267
2.47656
2.32632
2.18985
2.06579
1.95324
1.85108
1.75826
1.6738
1.5969
1.52691
1.46322
1.40527
1.35251
1.30448
1.26073
1.22086
1.18455
1.15151
1.12152
1.09435
1.06987
1.04789
1.02823
1.01077
0.995421
0.981915
0.970006
0.959966
0.950776
0.942832
0.936049
0.929955
0.925377
0.922194
0.919574
0.918837
0.918911
0.919431
0.920837
0.923862
0.928725
0.935119
0.943137
0.95228
0.962332
0.973544
0.985552
0.998009
1.01024
1.02204
1.0328
1.04212
1.04981
1.05516
1.05804
1.05921
1.0594
1.05928
1.05868
1.05615
1.04934
1.03874
1.03065
1.02406
1.01861
1.01417
1.01056
1.00767
1.00548
1.00391
1.00274
1.00189
1.00129
1.00086
1.00057
1.00037
1.00023
1.00015
1.00009
1.00006
1.00003
1.00002
1.00001
1.00001
1
1.08202
1.21444
1.52749
2.23695
3.73389
4.38237
4.49471
4.4328
4.28586
4.02933
3.74776
3.4724
3.223
3.00183
2.80579
2.6306
2.47258
2.32919
2.1988
2.0802
1.97227
1.87408
1.78475
1.70345
1.62937
1.56182
1.50018
1.44391
1.39251
1.34555
1.30265
1.26345
1.2277
1.19515
1.16562
1.13892
1.11489
1.0934
1.07426
1.05722
1.04204
1.02871
1.01704
1.00684
0.9979
0.990157
0.983754
0.978019
0.973447
0.96984
0.966999
0.965935
0.965865
0.966243
0.967375
0.969837
0.974819
0.981448
0.989279
0.997943
1.00757
1.01782
1.02804
1.03804
1.04732
1.05561
1.06245
1.06712
1.07003
1.07122
1.0714
1.0713
1.07041
1.06609
1.05492
1.04493
1.03649
1.0291
1.02276
1.01747
1.0132
1.00979
1.00709
1.00505
1.00358
1.00251
1.00172
1.00117
1.00078
1.00051
1.00033
1.00021
1.00013
1.00008
1.00005
1.00003
1.00002
1.00001
1.00001
1
1.03177
1.07904
1.20472
1.49845
2.15495
3.53818
4.17376
4.30913
4.26504
4.15002
3.94187
3.68379
3.42565
3.19068
2.98159
2.79532
2.62792
2.4764
2.3388
2.21374
2.10004
1.99659
1.90239
1.81649
1.73807
1.6664
1.60086
1.54088
1.48598
1.43571
1.38968
1.34756
1.30914
1.27415
1.24237
1.2136
1.18766
1.16429
1.14327
1.12443
1.10773
1.09293
1.07979
1.06815
1.0579
1.04893
1.04115
1.0345
1.02894
1.02464
1.02123
1.01901
1.01875
1.01884
1.01936
1.02071
1.02363
1.02852
1.03461
1.04155
1.04896
1.05678
1.06461
1.07205
1.07863
1.08378
1.08756
1.08984
1.09049
1.09052
1.08997
1.08543
1.07385
1.06318
1.0532
1.04385
1.03536
1.02792
1.02163
1.01646
1.01233
1.0091
1.00659
1.00468
1.0033
1.00229
1.00157
1.00106
1.00071
1.00047
1.0003
1.00019
1.00012
1.00008
1.00005
1.00003
1.00002
1.00001
1.00001
1
1.01062
1.02905
1.07122
1.18564
1.44666
2.03295
3.26957
3.94827
4.13044
4.10742
4.02455
3.86515
3.62841
3.38992
3.17084
2.97352
2.79562
2.63455
2.48837
2.35574
2.2354
2.12609
2.02658
1.93581
1.85286
1.77694
1.70737
1.64359
1.5851
1.53149
1.4824
1.43748
1.39638
1.35888
1.32478
1.29384
1.26575
1.24035
1.21755
1.19711
1.17872
1.16222
1.14746
1.13429
1.12259
1.11227
1.10326
1.0954
1.08888
1.08345
1.07923
1.07613
1.07447
1.07425
1.07442
1.07501
1.07647
1.07959
1.08417
1.08942
1.09493
1.10052
1.10575
1.11022
1.11389
1.11612
1.11724
1.11741
1.11637
1.11032
1.09865
1.0874
1.07579
1.06427
1.05328
1.04322
1.03435
1.02681
1.02056
1.01551
1.01152
1.00843
1.00608
1.00432
1.00302
1.00209
1.00143
1.00097
1.00064
1.00042
1.00027
1.00018
1.00011
1.00007
1.00004
1.00003
1.00002
1.00001
1.00001
1
1.00374
1.00903
1.02476
1.06058
1.15802
1.37889
1.87613
2.9298
3.70968
3.95768
3.95465
3.89668
3.77538
3.57004
3.36138
3.16267
2.97764
2.8071
2.65126
2.5096
2.38117
2.26475
2.15901
2.06273
1.97482
1.89436
1.8206
1.75293
1.69083
1.6338
1.58145
1.53346
1.48954
1.44938
1.41271
1.37938
1.34924
1.32196
1.29721
1.27479
1.25454
1.23627
1.21984
1.2051
1.19192
1.18022
1.1699
1.16088
1.15316
1.14676
1.14144
1.13734
1.13483
1.13298
1.13278
1.13295
1.13353
1.13489
1.13772
1.14117
1.14433
1.14752
1.14986
1.15159
1.15235
1.15214
1.14945
1.14145
1.13124
1.11937
1.10603
1.09202
1.07809
1.06486
1.05277
1.0421
1.03299
1.02541
1.01927
1.0144
1.0106
1.0077
1.00552
1.0039
1.00273
1.00188
1.00128
1.00086
1.00057
1.00038
1.00024
1.00016
1.0001
1.00006
1.00004
1.00002
1.00001
1.00001
1.00001
1
1.00116
1.00273
1.00779
1.01834
1.05111
1.12271
1.30511
1.6987
2.53782
3.47437
3.76885
3.81375
3.77102
3.66974
3.51388
3.34118
3.16387
2.9912
2.82833
2.67814
2.54125
2.41692
2.30396
2.2011
2.10723
2.02132
1.94256
1.87028
1.80392
1.74296
1.687
1.63561
1.58851
1.54558
1.50652
1.47091
1.43842
1.40883
1.38191
1.35747
1.33531
1.31524
1.29711
1.28077
1.26609
1.25298
1.24133
1.23107
1.22216
1.21459
1.2082
1.20302
1.19931
1.19655
1.19431
1.19363
1.19367
1.19393
1.19459
1.19566
1.19633
1.19662
1.19621
1.1941
1.18904
1.18176
1.17174
1.159
1.14405
1.12767
1.11069
1.09394
1.07809
1.06359
1.05076
1.03981
1.03073
1.02337
1.01752
1.01296
1.00947
1.00683
1.00486
1.00342
1.00238
1.00164
1.00111
1.00075
1.0005
1.00033
1.00021
1.00014
1.00009
1.00005
1.00003
1.00002
1.00001
1.00001
1
1
1.0003
1.00086
1.00204
1.00576
1.01365
1.03807
1.09092
1.23034
1.52502
2.1581
3.20915
3.54749
3.66786
3.64068
3.56325
3.45254
3.31638
3.16358
3.00736
2.85588
2.71345
2.58204
2.46155
2.35131
2.2504
2.15814
2.07356
1.996
1.92484
1.85955
1.79971
1.74495
1.69483
1.64891
1.60689
1.5685
1.53345
1.50149
1.47236
1.44583
1.42172
1.3998
1.37992
1.36191
1.34566
1.33105
1.31797
1.30634
1.29611
1.28723
1.2796
1.27321
1.26811
1.26396
1.26027
1.2577
1.25621
1.25467
1.2531
1.25119
1.24851
1.24458
1.23885
1.23078
1.21992
1.20613
1.18962
1.17101
1.1511
1.13079
1.11087
1.09196
1.07465
1.05945
1.04657
1.03594
1.02735
1.02054
1.01523
1.01116
1.00808
1.00579
1.0041
1.00287
1.00199
1.00137
1.00093
1.00062
1.00041
1.00027
1.00018
1.00011
1.00007
1.00005
1.00003
1.00002
1.00001
1.00001
1
1
1.00009
1.00021
1.00058
1.00143
1.0039
1.00963
1.02584
1.06405
1.1594
1.36749
1.81692
2.68531
3.28649
3.48718
3.49491
3.45886
3.37957
3.27664
3.15313
3.01905
2.88454
2.75377
2.62985
2.51414
2.40703
2.30827
2.21752
2.13418
2.05772
1.98764
1.92329
1.86421
1.81006
1.76052
1.71525
1.67389
1.63611
1.6016
1.57007
1.5413
1.51503
1.49109
1.46926
1.44941
1.43137
1.41505
1.40032
1.38711
1.37534
1.36493
1.35581
1.34787
1.34104
1.33496
1.32931
1.3245
1.32054
1.31607
1.31089
1.30481
1.29724
1.28759
1.27534
1.26014
1.242
1.22131
1.1987
1.17501
1.15099
1.12727
1.10477
1.08448
1.06698
1.05231
1.04029
1.03061
1.02298
1.01705
1.01251
1.00909
1.00653
1.00465
1.00328
1.00229
1.00158
1.00108
1.00073
1.00049
1.00033
1.00021
1.00014
1.00009
1.00006
1.00004
1.00002
1.00001
1.00001
1.00001
1
1
1.00002
1.00005
1.00014
1.00035
1.00096
1.00233
1.00645
1.01558
1.04203
1.10074
1.23931
1.53389
2.13491
2.9651
3.23893
3.36481
3.34543
3.2936
3.21603
3.12405
3.01769
2.90552
2.79191
2.67989
2.57211
2.47007
2.37458
2.28588
2.20389
2.1284
2.05901
1.99529
1.93686
1.88337
1.83444
1.78969
1.74874
1.71124
1.67688
1.64543
1.61662
1.59022
1.56605
1.54398
1.52385
1.50551
1.48884
1.47372
1.46006
1.44772
1.43658
1.42647
1.41717
1.40832
1.3998
1.39197
1.38403
1.37479
1.36427
1.352
1.33745
1.32018
1.30007
1.27729
1.25224
1.22552
1.1975
1.16865
1.14028
1.11414
1.09132
1.07197
1.05593
1.04289
1.0325
1.02435
1.01806
1.01326
1.00965
1.00695
1.00497
1.00352
1.00247
1.00172
1.00118
1.00081
1.00055
1.00037
1.00024
1.00016
1.00011
1.00007
1.00004
1.00003
1.00002
1.00001
1.00001
1
1
1
1
1.00001
1.00003
1.00008
1.0002
1.00057
1.00134
1.00382
1.00889
1.02491
1.05772
1.14562
1.31572
1.6799
2.3618
2.97526
3.13584
3.21644
3.19499
3.1424
3.07057
2.99289
2.90553
2.8127
2.7174
2.62253
2.52987
2.44117
2.35739
2.27898
2.206
2.13832
2.07578
2.01818
1.96525
1.91665
1.87199
1.83093
1.79318
1.75848
1.72659
1.69725
1.67037
1.64572
1.62307
1.60222
1.58304
1.56541
1.54916
1.53408
1.51994