/*--------------------------------*- C++ -*----------------------------------*\
  =========                 |
  \\      /  F ield         | OpenFOAM: The Open Source CFD Toolbox
   \\    /   O peration     | Website:  https://openfoam.org
    \\  /    A nd           | Version:  9
     \\/     M anipulation  |
\*---------------------------------------------------------------------------*/
FoamFile
{
    format      ascii;
    class       volScalarField;
    location    "0.5";
    object      rho;
}
// * * * * * * * * * * * * * * * * * * * * * * * * * * * * * * * * * * * * * //

dimensions      [1 -3 0 0 0 0 0];

internalField   nonuniform List<scalar> 
5250
(
1.40001
1.40001
1.40001
1.40001
1.40003
1.40007
1.40015
1.40039
1.40095
1.40247
1.40618
1.41566
1.43923
1.49559
1.62532
1.90297
2.7094
5.30721
6.00446
5.75275
5.71454
5.74014
5.62126
5.14239
5.23009
1.40001
1.40001
1.40001
1.40001
1.40003
1.40007
1.40014
1.40039
1.40091
1.40248
1.40592
1.41569
1.43801
1.49469
1.62128
1.89609
2.68782
5.2488
6.01501
5.75318
5.71364
5.74005
5.62814
5.14754
5.22966
1.40001
1.40001
1.40001
1.40001
1.40002
1.40006
1.40014
1.40038
1.40087
1.40239
1.40568
1.41513
1.43656
1.49145
1.61415
1.88088
2.64313
5.11352
6.03724
5.75254
5.70524
5.73041
5.63167
5.14803
5.21893
1.40001
1.40001
1.40001
1.40001
1.40002
1.40006
1.40013
1.40036
1.40082
1.40226
1.40534
1.41429
1.43446
1.48655
1.60349
1.85791
2.57513
4.89757
6.07596
5.75478
5.68922
5.71053
5.63215
5.1412
5.19737
1.40001
1.40001
1.40001
1.40001
1.40002
1.40006
1.40012
1.40034
1.40075
1.40209
1.40491
1.41321
1.43177
1.48016
1.58942
1.82764
2.48562
4.59841
6.12929
5.76164
5.66601
5.68168
5.62613
5.13764
5.16974
1.40001
1.40001
1.40001
1.40001
1.40002
1.40005
1.40011
1.40031
1.40068
1.40192
1.40441
1.41199
1.42856
1.47258
1.5721
1.7908
2.37073
4.22144
6.18561
5.77152
5.63748
5.64164
5.60566
5.12184
5.12452
1.40001
1.40001
1.40001
1.40001
1.40002
1.40005
1.4001
1.40028
1.40061
1.40174
1.40388
1.41078
1.42505
1.46447
1.55214
1.74933
2.22742
3.77847
6.22347
5.78937
5.60227
5.58729
5.56763
5.10987
5.06659
1.40001
1.40001
1.40001
1.40001
1.40002
1.40005
1.40009
1.40026
1.40054
1.40158
1.40345
1.40968
1.42208
1.45718
1.53313
1.70691
2.06471
3.27229
6.20405
5.79094
5.54401
5.51794
5.50224
5.06756
4.9658
1.40001
1.40001
1.40001
1.40001
1.40002
1.40004
1.40008
1.40023
1.40048
1.40141
1.40303
1.4087
1.41937
1.45129
1.51777
1.67536
1.95177
2.96245
6.00054
5.73111
5.46263
5.42707
5.39818
5.00734
4.83381
1.40001
1.40001
1.40001
1.40001
1.40001
1.40003
1.40007
1.4002
1.40041
1.40122
1.40261
1.40755
1.41673
1.44485
1.50287
1.64324
1.90983
2.73255
5.55898
5.57694
5.41773
5.30495
5.24503
4.8975
4.5537
1.40001
1.40001
1.40001
1.40001
1.40001
1.40003
1.40006
1.40016
1.40034
1.40102
1.40218
1.40634
1.41405
1.43814
1.48766
1.60971
1.86214
2.54045
4.99375
5.48504
5.34878
5.17194
5.06172
4.64662
3.82781
1.40001
1.40001
1.40001
1.40001
1.40001
1.40002
1.40005
1.40012
1.40031
1.40073
1.40198
1.40463
1.41244
1.42945
1.47452
1.57349
1.79121
2.37578
4.29811
5.41777
5.27078
5.04037
4.88095
4.45701
3.61531
1.40001
1.40001
1.40001
1.40001
1.40001
1.40002
1.40004
1.4001
1.40022
1.40063
1.40135
1.404
1.40868
1.42442
1.45584
1.5403
1.71292
2.18621
3.45362
5.32598
5.19139
4.91897
4.74902
4.34816
3.63
1.40001
1.40001
1.40001
1.40001
1.40001
1.40001
1.40003
1.40007
1.4002
1.40042
1.40122
1.40265
1.40758
1.41709
1.4456
1.50543
1.64863
1.95177
2.75106
5.13794
5.09673
4.9105
4.64961
4.31736
3.74166
1.40001
1.40001
1.40001
1.40001
1.40001
1.40001
1.40002
1.40006
1.40014
1.40033
1.40088
1.40205
1.4056
1.41311
1.43444
1.48142
1.59477
1.83309
2.4481
4.54501
4.96566
4.85746
4.59056
4.26307
3.8017
1.40001
1.40001
1.40001
1.40001
1.40001
1.40001
1.40002
1.40004
1.40009
1.40026
1.40056
1.40161
1.40364
1.41011
1.42367
1.46138
1.54438
1.73073
2.22536
3.60425
4.85395
4.78352
4.5623
4.22345
3.83217
1.40001
1.40001
1.40001
1.40001
1.40001
1.40001
1.40001
1.40003
1.40007
1.40018
1.40039
1.40114
1.40246
1.40718
1.41596
1.44333
1.49956
1.63673
1.93181
2.6091
4.67077
4.71711
4.58987
4.26245
3.87387
1.40001
1.40001
1.40001
1.40001
1.40001
1.40001
1.40001
1.40002
1.40005
1.40011
1.40031
1.40067
1.40192
1.40432
1.41208
1.42793
1.47231
1.56778
1.78185
2.29023
4.01855
4.61893
4.5361
4.28382
3.89943
1.40001
1.40001
1.40001
1.40001
1.40001
1.40001
1.40001
1.40002
1.40003
1.40008
1.40018
1.40049
1.40112
1.40302
1.40721
1.41883
1.44518
1.51182
1.65589
1.98328
2.82675
4.46539
4.45522
4.33256
3.99232
1.40001
1.40001
1.40001
1.40001
1.40001
1.40001
1.40001
1.40001
1.40002
1.40005
1.40013
1.40027
1.40079
1.40177
1.40492
1.4114
1.43041
1.47119
1.57454
1.78316
2.28823
3.93778
4.38646
4.3205
4.10351
1.40001
1.40001
1.40001
1.40001
1.40001
1.40001
1.40001
1.40001
1.40002
1.40003
1.40007
1.40019
1.40041
1.40121
1.40262
1.40757
1.41683
1.44558
1.50447
1.64881
1.94268
2.72548
4.23065
4.27607
4.17052
1.40001
1.40001
1.40001
1.40001
1.40001
1.40001
1.40001
1.40001
1.40001
1.40002
1.40004
1.40011
1.40027
1.40065
1.40174
1.40408
1.411
1.42604
1.46627
1.55656
1.74951
2.19535
3.63179
4.17984
4.15076
1.40001
1.40001
1.40001
1.40001
1.40001
1.40001
1.40001
1.40001
1.40001
1.40001
1.40003
1.40006
1.40016
1.40037
1.40096
1.4024
1.40598
1.4152
1.43722
1.49089
1.61062
1.84343
2.4096
3.96178
4.10635
1.40001
1.40001
1.40001
1.40001
1.40001
1.40001
1.40001
1.40001
1.40001
1.40001
1.40002
1.40004
1.40008
1.40022
1.40048
1.40139
1.40304
1.40869
1.41976
1.45261
1.52258
1.68148
2.02568
3.05014
3.97094
1.40001
1.40001
1.40001
1.40001
1.40001
1.40001
1.40001
1.40001
1.40001
1.40001
1.40001
1.40002
1.40004
1.40012
1.40025
1.40074
1.40159
1.40469
1.41035
1.42897
1.46625
1.56588
1.74765
2.17708
3.49658
1.40001
1.40001
1.40001
1.40001
1.40001
1.40001
1.40001
1.40001
1.40001
1.40001
1.40001
1.40001
1.40003
1.40005
1.40015
1.40032
1.40092
1.4021
1.40581
1.41352
1.43583
1.4835
1.59831
1.78925
2.32006
1.40001
1.40001
1.40001
1.40001
1.40001
1.40001
1.40001
1.40001
1.40001
1.40001
1.40001
1.40001
1.40002
1.40003
1.40007
1.40016
1.40046
1.40098
1.4029
1.40624
1.41802
1.44005
1.50511
1.62666
1.88875
1.40001
1.40001
1.40001
1.40001
1.40001
1.40001
1.40001
1.40001
1.40001
1.40001
1.40001
1.40001
1.40001
1.40002
1.40003
1.40008
1.40019
1.4005
1.40121
1.40316
1.40789
1.42001
1.44948
1.5214
1.66323
1.40001
1.40001
1.40001
1.40001
1.40001
1.40001
1.40001
1.40001
1.40001
1.40001
1.40001
1.40001
1.40001
1.40001
1.40002
1.40004
1.40008
1.40023
1.40051
1.40146
1.40335
1.40925
1.42199
1.45711
1.53532
1.40001
1.40001
1.40001
1.40001
1.40001
1.40001
1.40001
1.40001
1.40001
1.40001
1.40001
1.40001
1.40001
1.40001
1.40001
1.40002
1.40004
1.40009
1.40024
1.40057
1.4015
1.40376
1.40967
1.42426
1.46093
1.40001
1.40001
1.40001
1.40001
1.40001
1.40001
1.40001
1.40001
1.40001
1.40001
1.40001
1.40001
1.40001
1.40001
1.40001
1.40001
1.40002
1.40004
1.4001
1.40023
1.4006
1.40149
1.40386
1.4099
1.42474
1.40001
1.40001
1.40001
1.40001
1.40001
1.40001
1.40001
1.40001
1.40001
1.40001
1.40001
1.40001
1.40001
1.40001
1.40001
1.40001
1.40001
1.40002
1.40004
1.40009
1.40022
1.40056
1.40148
1.40363
1.40978
1.40001
1.40001
1.40001
1.40001
1.40001
1.40001
1.40001
1.40001
1.40001
1.40001
1.40001
1.40001
1.40001
1.40001
1.40001
1.40001
1.40001
1.40001
1.40002
1.40003
1.40009
1.40019
1.40056
1.40122
1.40366
1.40001
1.40001
1.40001
1.40001
1.40001
1.40001
1.40001
1.40001
1.40001
1.40001
1.40001
1.40001
1.40001
1.40001
1.40001
1.40001
1.40001
1.40001
1.40001
1.40002
1.40003
1.40008
1.40016
1.40048
1.40104
1.40001
1.40001
1.40001
1.40001
1.40001
1.40001
1.40001
1.40001
1.40001
1.40001
1.40001
1.40001
1.40001
1.40001
1.40001
1.40001
1.40001
1.40001
1.40001
1.40001
1.40001
1.40003
1.40005
1.40014
1.40034
1.40001
1.40001
1.40001
1.40001
1.40001
1.40001
1.40001
1.40001
1.40001
1.40001
1.40001
1.40001
1.40001
1.40001
1.40001
1.40001
1.40001
1.40001
1.40001
1.40001
1.40001
1.40001
1.40002
1.40004
1.40011
1.40001
1.40001
1.40001
1.40001
1.40001
1.40001
1.40001
1.40001
1.40001
1.40001
1.40001
1.40001
1.40001
1.40001
1.40001
1.40001
1.40001
1.40001
1.40001
1.40001
1.40001
1.40001
1.40001
1.40002
1.40003
1.40001
1.40001
1.40001
1.40001
1.40001
1.40001
1.40001
1.40001
1.40001
1.40001
1.40001
1.40001
1.40001
1.40001
1.40001
1.40001
1.40001
1.40001
1.40001
1.40001
1.40001
1.40001
1.40001
1.40001
1.40001
1.40001
1.40001
1.40001
1.40001
1.40001
1.40001
1.40001
1.40001
1.40001
1.40001
1.40001
1.40001
1.40001
1.40001
1.40001
1.40001
1.40001
1.40001
1.40001
1.40001
1.40001
1.40001
1.40001
1.40001
1.40001
1.40001
1.40001
1.40001
1.40001
1.40001
1.40001
1.40001
1.40001
1.40001
1.40001
1.40001
1.40001
1.40001
1.40001
1.40001
1.40001
1.40001
1.40001
1.40001
1.40001
1.40001
1.40001
1.40001
1.40001
1.40001
1.40001
1.40001
1.40001
1.40001
1.40001
1.40001
1.40001
1.40001
1.40001
1.40001
1.40001
1.40001
1.40001
1.40001
1.40001
1.40001
1.40001
1.40001
1.40001
1.40001
1.40001
1.40001
1.40001
1.40001
1.40001
1.40001
1.40001
1.40001
1.40001
1.40001
1.40001
1.40001
1.40001
1.40001
1.40001
1.40001
1.40001
1.40001
1.40001
1.40001
1.40001
1.40001
1.40001
1.40001
1.40001
1.40001
1.40001
1.40001
1.40001
1.40001
1.40001
1.40001
1.40001
1.40001
1.40001
1.40001
1.40001
1.40001
1.40001
1.40001
1.40001
1.40001
1.40001
1.40001
1.40001
1.40001
1.40001
1.40001
1.40001
1.40001
1.40001
1.40001
1.40001
1.40001
1.40001
1.40001
1.40001
1.40001
1.40001
1.40001
1.40001
1.40001
1.40001
1.40001
1.40001
1.40001
1.40001
1.40001
1.40001
1.40001
1.40001
1.40001
1.40001
1.40001
1.40001
1.40001
1.40001
1.40001
1.40001
1.40001
1.40001
1.40001
1.40001
1.40001
1.40001
1.40001
1.40001
1.40001
1.40001
1.40001
1.40001
1.40001
1.40001
1.40001
1.40001
1.40001
1.40001
1.40001
1.40001
1.40001
1.40001
1.40001
1.40001
1.40001
1.40001
1.40001
1.40001
1.40001
1.40001
1.40001
1.40001
1.40001
1.40001
1.40001
1.40001
1.40001
1.40001
1.40001
1.40001
1.40001
1.40001
1.40001
1.40001
1.40001
1.40001
1.40001
1.40001
1.40001
1.40001
1.40001
1.40001
1.40001
1.40001
1.40001
1.40001
1.40001
1.40001
1.40001
1.40001
1.40001
1.40001
1.40001
1.40001
1.40001
1.40001
1.40001
1.40001
1.40001
1.40001
1.40001
1.40001
1.40001
1.40001
1.40001
1.40001
1.40001
1.40001
1.40001
1.40001
1.40001
1.40001
1.40001
1.40001
1.40001
1.40001
1.40001
1.40001
1.40001
1.40001
1.40001
1.40001
1.40001
1.40001
1.40001
1.40001
1.40001
1.40001
1.40001
1.40001
1.40001
1.40001
1.40001
1.40001
1.40001
1.40001
1.40001
1.40001
1.40001
1.40001
1.40001
1.40001
1.40001
1.40001
1.40001
1.40001
1.40001
1.40001
1.40001
1.40001
1.40001
1.40001
1.40001
1.40001
1.40001
1.40001
1.40001
1.40001
1.40001
1.40001
1.40001
1.40001
1.40001
1.40001
1.40001
1.40001
1.40001
1.40001
1.40001
1.40001
1.40001
1.40001
1.40001
1.40001
1.40001
1.40001
1.40001
1.40001
1.40001
1.40001
1.40001
1.6152
0.868094
0.594589
0.502464
0.49832
0.51262
0.557877
0.603806
0.619832
0.620402
0.616867
0.606627
0.593874
0.584752
0.580658
0.578463
0.576929
0.575026
0.572416
0.569158
0.565357
0.56111
0.556708
0.552533
0.548863
0.545901
0.543811
0.542583
0.541938
0.541478
0.540846
0.539666
0.537876
0.535949
0.53395
0.53158
0.529185
0.527393
0.526179
0.525712
0.526073
0.527433
0.5308
0.539528
0.55631
0.578467
0.605953
0.638776
0.67668
0.719054
0.765116
0.813958
0.864533
0.915693
0.966225
1.01497
1.06088
1.10318
1.14134
1.17519
1.20483
1.23057
1.25282
1.27209
1.28894
1.30398
1.31778
1.33075
1.34309
1.35481
1.36575
1.37574
1.38465
1.39239
1.39895
1.40447
1.40914
1.41297
1.41594
1.41792
1.41816
1.41655
1.41506
1.41331
1.41131
1.40924
1.40729
1.40557
1.40415
1.40301
1.40212
1.40145
1.40097
1.40063
1.4004
1.40025
1.40015
1.40009
1.40005
1.40002
2.05249
1.30257
0.971987
0.825735
0.75882
0.712826
0.682262
0.668852
0.669246
0.670909
0.675525
0.67529
0.67391
0.670083
0.660963
0.650538
0.642132
0.636145
0.631786
0.628101
0.624344
0.620211
0.615755
0.611143
0.606494
0.602012
0.597997
0.594752
0.592487
0.591275
0.59097
0.591245
0.591622
0.591569
0.590875
0.589845
0.588974
0.588319
0.587212
0.585768
0.585269
0.586087
0.58773
0.590973
0.598638
0.612427
0.631949
0.656593
0.686023
0.719934
0.757927
0.799362
0.843423
0.889167
0.935623
0.981872
1.02708
1.07048
1.11142
1.14937
1.184
1.2152
1.24314
1.26812
1.29047
1.31049
1.32842
1.34445
1.35882
1.37169
1.38315
1.39315
1.40157
1.40837
1.41364
1.41762
1.42069
1.42302
1.42462
1.4253
1.42407
1.42177
1.41937
1.4167
1.41394
1.41128
1.40888
1.4068
1.40506
1.40365
1.40257
1.40178
1.40121
1.40081
1.40053
1.40034
1.40022
1.40013
1.40008
1.40004
2.57494
1.84029
1.38958
1.11091
0.932465
0.817142
0.744785
0.698918
0.687874
0.688985
0.692586
0.700366
0.704305
0.704436
0.703078
0.698586
0.688936
0.679436
0.671326
0.665378
0.66029
0.655506
0.650589
0.645583
0.640548
0.635798
0.631445
0.627629
0.624554
0.622222
0.620599
0.619894
0.620158
0.62082
0.621374
0.621905
0.6227
0.623782
0.624498
0.624876
0.625448
0.626705
0.62861
0.632247
0.639585
0.651793
0.669113
0.691493
0.718747
0.750603
0.78667
0.826386
0.869008
0.913657
0.95939
1.00525
1.05037
1.09396
1.13529
1.17373
1.20876
1.24015
1.26787
1.29219
1.31348
1.33217
1.34863
1.36309
1.37578
1.38684
1.39644
1.40463
1.41137
1.4166
1.42037
1.42298
1.42484
1.42618
1.42699
1.42697
1.42535
1.4227
1.41997
1.41706
1.41413
1.41135
1.40888
1.40675
1.40499
1.40358
1.40252
1.40173
1.40117
1.40078
1.40051
1.40032
1.4002
1.40012
1.40008
1.40004
2.94079
2.25014
1.74762
1.403
1.17013
1.01111
0.903667
0.834238
0.786114
0.75558
0.740644
0.734215
0.733332
0.733207
0.731688
0.730022
0.726817
0.720453
0.711119
0.701789
0.693159
0.685705
0.67895
0.673227
0.668037
0.663432
0.659061
0.655056
0.651483
0.648548
0.646298
0.645007
0.644966
0.645925
0.647268
0.64868
0.650338
0.6523
0.653705
0.654415
0.65505
0.656329
0.658401
0.662171
0.669591
0.682825
0.702137
0.727242
0.757684
0.792889
0.832073
0.874295
0.918501
0.963621
1.00859
1.05242
1.09429
1.13356
1.16988
1.2031
1.23317
1.26019
1.28428
1.30566
1.32462
1.34153
1.35672
1.37039
1.38266
1.39351
1.40286
1.4107
1.41704
1.42195
1.42551
1.428
1.42971
1.43075
1.431
1.43007
1.42825
1.42512
1.42187
1.41854
1.41528
1.41225
1.40955
1.40724
1.40533
1.40383
1.40271
1.40188
1.40128
1.40086
1.40057
1.40037
1.40024
1.40015
1.40009
1.40005
3.16679
2.5479
2.04772
1.67308
1.40273
1.20677
1.06232
0.957187
0.881461
0.827695
0.790961
0.765605
0.75092
0.743536
0.739616
0.736599
0.734619
0.732701
0.729245
0.722971
0.716024
0.708083
0.700743
0.693624
0.687318
0.681906
0.677357
0.673224
0.669769
0.667064
0.665032
0.66385
0.663794
0.664725
0.666172
0.667928
0.670171
0.672889
0.674961
0.676265
0.677577
0.679832
0.683889
0.692622
0.70648
0.725098
0.748416
0.776264
0.808269
0.843848
0.882267
0.922675
0.964231
1.00608
1.0474
1.08745
1.12557
1.16123
1.19414
1.2242
1.25149
1.27615
1.29836
1.31829
1.33612
1.35206
1.36638
1.37926
1.39082
1.40107
1.40991
1.41721
1.42293
1.42708
1.42986
1.43159
1.43264
1.43302
1.43258
1.43144
1.42939
1.42573
1.42217
1.41865
1.41527
1.41215
1.40941
1.40709
1.40519
1.40372
1.40261
1.4018
1.40122
1.40081
1.40053
1.40034
1.40022
1.40013
1.40008
1.40004
3.32513
2.79677
2.32508
1.94317
1.64651
1.41985
1.25015
1.1207
1.02126
0.944806
0.88497
0.840907
0.806342
0.780598
0.763929
0.754278
0.748824
0.747057
0.745985
0.74429
0.740889
0.734916
0.727879
0.720534
0.713338
0.706454
0.700388
0.695105
0.690749
0.687649
0.685564
0.684369
0.684385
0.685548
0.687057
0.688594
0.690535
0.693336
0.696061
0.698141
0.700613
0.705304
0.713805
0.726705
0.744286
0.76649
0.79287
0.822927
0.856153
0.891934
0.929581
0.968329
1.0075
1.04643
1.08454
1.12116
1.15572
1.18781
1.21716
1.24372
1.26765
1.28924
1.3088
1.32662
1.34286
1.35765
1.37109
1.38332
1.39439
1.40435
1.41303
1.42028
1.42595
1.43004
1.43276
1.43439
1.43503
1.43514
1.43496
1.43377
1.43123
1.42702
1.42314
1.41939
1.41583
1.41256
1.4097
1.40727
1.40532
1.40382
1.40269
1.40187
1.40127
1.40086
1.40057
1.40037
1.40024
1.40015
1.40009
1.40005
3.43218
2.97733
2.55339
2.1871
1.88516
1.64262
1.45101
1.29937
1.17805
1.0785
0.996926
0.9291
0.87445
0.832788
0.802078
0.781372
0.768156
0.760799
0.756755
0.75415
0.752211
0.749447
0.745524
0.740309
0.734177
0.727552
0.720908
0.714575
0.70911
0.705274
0.70278
0.701298
0.701031
0.701956
0.703353
0.704651
0.706479
0.709796
0.714009
0.718746
0.724728
0.733369
0.74597
0.762947
0.784444
0.810036
0.839016
0.870566
0.904038
0.93874
0.974506
1.01049
1.04642
1.08175
1.11583
1.14827
1.17898
1.20772
1.23431
1.25861
1.28046
1.30014
1.31805
1.33456
1.34982
1.36392
1.37689
1.38874
1.39948
1.40911
1.41751
1.4245
1.42988
1.43359
1.43576
1.43679
1.43729
1.43749
1.43695
1.43523
1.43178
1.42742
1.42335
1.41942
1.41572
1.41239
1.40949
1.40707
1.40515
1.40368
1.40259
1.40179
1.40121
1.40081
1.40053
1.40034
1.40022
1.40014
1.40009
1.40004
3.50989
3.12553
2.75155
2.40979
2.1139
1.86514
1.65737
1.48503
1.3407
1.22029
1.11884
1.0357
0.967805
0.914176
0.872367
0.840415
0.816736
0.798932
0.786006
0.777545
0.772332
0.768876
0.765751
0.762179
0.75779
0.752286
0.746047
0.739979
0.734341
0.729036
0.724729
0.721915
0.720345
0.720179
0.721166
0.72281
0.725249
0.729808
0.736748
0.745303
0.755326
0.76768
0.78365
0.803536
0.827375
0.854596
0.884417
0.915971
0.948556
0.981616
1.01485
1.04803
1.08084
1.11291
1.14384
1.17323
1.20087
1.22658
1.25015
1.27167
1.29162
1.30998
1.3266
1.34182
1.35615
1.36971
1.38235
1.39391
1.40429
1.41344
1.42135
1.42792
1.43298
1.43643
1.43844
1.4395
1.44003
1.43992
1.43895
1.43665
1.43248
1.42812
1.42385
1.41972
1.41588
1.41245
1.4095
1.40706
1.40514
1.40368
1.40259
1.40179
1.40122
1.40082
1.40054
1.40035
1.40023
1.40014
1.40009
1.40005
3.60107
3.2392
2.90855
2.59827
2.31545
2.06492
1.84864
1.66135
1.50172
1.36418
1.24815
1.15108
1.07149
1.00693
0.953957
0.91097
0.875547
0.846879
0.824697
0.807575
0.79514
0.786307
0.779466
0.774339
0.770006
0.765708
0.761019
0.756238
0.751574
0.747431
0.74426
0.741806
0.740061
0.73941
0.740279
0.742666
0.746679
0.753031
0.762751
0.774811
0.788493
0.804117
0.822773
0.844897
0.869987
0.897613
0.927076
0.957621
0.98851
1.01927
1.04954
1.07923
1.10837
1.13697
1.16465
1.19097
1.2156
1.23856
1.25994
1.27975
1.29795
1.31484
1.33081
1.34579
1.35979
1.37318
1.38597
1.39786
1.40852
1.41769
1.42533
1.43146
1.43613
1.43939
1.44145
1.44256
1.44276
1.4421
1.44025
1.43675
1.43245
1.42811
1.42374
1.41951
1.41561
1.41215
1.40921
1.40681
1.40494
1.40352
1.40247
1.40171
1.40116
1.40078
1.40051
1.40033
1.40021
1.40013
1.40008
1.40004
3.70441
3.36648
3.05019
2.75857
2.48888
2.24193
2.01994
1.82307
1.65147
1.50363
1.37825
1.27237
1.18423
1.10995
1.04755
0.994034
0.948984
0.911242
0.879686
0.854591
0.83435
0.818281
0.806125
0.796079
0.787906
0.781735
0.77689
0.773026
0.770164
0.767912
0.766006
0.764785
0.764348
0.764842
0.766992
0.771286
0.777847
0.786712
0.798261
0.812713
0.828863
0.846204
0.865271
0.886892
0.911239
0.93751
0.96528
0.993974
1.02285
1.05113
1.07841
1.10492
1.13093
1.1564
1.18114
1.20483
1.22711
1.24778
1.26697
1.28496
1.30194
1.31792
1.33295
1.34733
1.36115
1.37448
1.38742
1.39972
1.41089
1.42047
1.42826
1.43421
1.43852
1.44162
1.44378
1.44497
1.44499
1.44392
1.44142
1.43713
1.4327
1.42819
1.42367
1.41935
1.41539
1.41192
1.40899
1.40664
1.40481
1.40343
1.40241
1.40166
1.40113
1.40076
1.4005
1.40033
1.40021
1.40013
1.40008
1.40004
3.88043
3.50173
3.19132
2.90773
2.64201
2.39786
2.17453
1.97339
1.795
1.63986
1.50649
1.39369
1.29747
1.21544
1.14429
1.08252
1.0291
0.983205
0.944419
0.911256
0.883486
0.860039
0.839907
0.823906
0.810858
0.800468
0.793504
0.788948
0.786113
0.785067
0.78529
0.78663
0.789325
0.793227
0.798177
0.804946
0.814032
0.825126
0.838031
0.852982
0.869648
0.887636
0.906941
0.927758
0.950644
0.975204
1.00148
1.02874
1.05592
1.0821
1.10716
1.13132
1.15465
1.17727
1.19915
1.22016
1.24004
1.25863
1.27586
1.29189
1.30715
1.32187
1.33604
1.34968
1.36282
1.37568
1.38836
1.40077
1.41233
1.42238
1.43051
1.43659
1.44078
1.44355
1.44537
1.44636
1.44632
1.44521
1.44262
1.43787
1.43289
1.42805
1.42334
1.41891
1.41493
1.41147
1.40861
1.40633
1.40457
1.40325
1.40228
1.40157
1.40106
1.40071
1.40047
1.4003
1.4002
1.40012
1.40008
1.40004
3.99873
3.67418
3.33682
3.04852
2.78995
2.54468
2.32039
2.1166
1.93496
1.77591
1.63765
1.51794
1.41382
1.32332
1.24368
1.1747
1.11362
1.06187
1.01605
0.977222
0.942839
0.912997
0.887309
0.865064
0.846907
0.832948
0.821864
0.814484
0.810336
0.808374
0.809067
0.811786
0.815963
0.821868
0.829236
0.838057
0.848847
0.861958
0.876384
0.891586
0.908011
0.926016
0.945299
0.965929
0.98773
1.01098
1.03618
1.06256
1.08873
1.11376
1.13742
1.15992
1.18153
1.20228
1.22207
1.24081
1.25853
1.27524
1.29081
1.3053
1.31881
1.33176
1.34449
1.35705
1.36925
1.38111
1.3928
1.40445
1.41565
1.42561
1.43374
1.43976
1.44389
1.44629
1.44745
1.44791
1.44775
1.44671
1.44399
1.4387
1.43312
1.42791
1.42298
1.41846
1.41445
1.41104
1.40824
1.40604
1.40436
1.4031
1.40216
1.40149
1.40101
1.40068
1.40045
1.40029
1.40019
1.40012
1.40008
1.40004
4.03571
3.84473
3.50855
3.20074
2.92993
2.68997
2.46414
2.2588
2.07475
1.91183
1.76893
1.6435
1.53261
1.43435
1.34732
1.27102
1.20407
1.14579
1.09494
1.05053
1.01077
0.976173
0.944942
0.918329
0.895502
0.876731
0.8622
0.851091
0.843256
0.83917
0.837524
0.838931
0.84297
0.848755
0.856496
0.866241
0.877271
0.890785
0.906093
0.921646
0.937585
0.955203
0.974992
0.995861
1.01722
1.03986
1.06449
1.09049
1.11602
1.14028
1.16307
1.18444
1.20469
1.2239
1.24217
1.25951
1.27564
1.29058
1.30464
1.31807
1.3309
1.34324
1.35528
1.3672
1.3788
1.38993
1.40067
1.41122
1.42152
1.43098
1.43889
1.44477
1.4484
1.45014
1.45067
1.45065
1.45
1.448
1.44385
1.43809
1.43263
1.42731
1.42229
1.41776
1.4138
1.41046
1.40778
1.40568
1.40408
1.40289
1.40202
1.40139
1.40094
1.40063
1.40041
1.40027
1.40017
1.40011
1.40007
1.40004
4.01072
3.91828
3.69001
3.37487
3.08747
2.83439
2.61237
2.40903
2.22278
2.0551
1.90498
1.77154
1.6531
1.54782
1.45452
1.37227
1.30036
1.2372
1.18178
1.13205
1.08826
1.04796
1.01348
0.982163
0.955884
0.933832
0.915228
0.901112
0.890005
0.882162
0.877666
0.875592
0.876478
0.880755
0.8866
0.894755
0.905487
0.91747
0.930971
0.946357
0.961757
0.977492
0.995126
1.01503
1.03583
1.05706
1.08001
1.10436
1.12834
1.15109
1.17238
1.19233
1.21131
1.22962
1.24727
1.26422
1.28037
1.29564
1.31019
1.32388
1.33717
1.35015
1.3627
1.37481
1.38678
1.39845
1.40939
1.4195
1.42896
1.43773
1.4453
1.45095
1.4542
1.45539
1.45538
1.45453
1.45223
1.44795
1.4428
1.43745
1.43193
1.42651
1.42147
1.41698
1.41309
1.40987
1.40731
1.40532
1.40381
1.4027
1.40188
1.40129
1.40087
1.40058
1.40038
1.40025
1.40016
1.4001
1.40007
1.40004
3.92594
3.91907
3.81188
3.56575
3.26575
3.00192
2.76846
2.5613
2.3756
2.20525
2.04951
1.90813
1.78071
1.66743
1.56764
1.48008
1.40345
1.33582
1.27575
1.2218
1.17316
1.12948
1.09045
1.05616
1.02658
1.00076
0.97993
0.961809
0.947835
0.937095
0.928796
0.924327
0.921414
0.921181
0.924483
0.929545
0.936419
0.946006
0.956962
0.96905
0.983857
0.998865
1.01397
1.03119
1.05016
1.06809
1.08696
1.10773
1.12831
1.14796
1.16637
1.18375
1.20068
1.21753
1.23445
1.25132
1.268
1.28445
1.30057
1.31637
1.33184
1.34693
1.36169
1.37605
1.38977
1.4026
1.41454
1.42535
1.4349
1.44327
1.45041
1.45581
1.45909
1.46016
1.45948
1.45725
1.45281
1.44758
1.44224
1.43661
1.43092
1.42545
1.42044
1.41602
1.41227
1.4092
1.40678
1.40492
1.40351
1.40248
1.40172
1.40118
1.4008
1.40053
1.40035
1.40023
1.40015
1.40009
1.40006
1.40003
3.65304
3.85143
3.82629
3.70751
3.4641
3.18821
2.94277
2.72555
2.53102
2.35626
2.19678
2.05024
1.91668
1.79675
1.69046
1.59702
1.51492
1.44225
1.37739
1.31893
1.26615
1.21864
1.17616
1.1388
1.10587
1.07775
1.05316
1.03298
1.01572
1.00195
0.991548
0.983146
0.978259
0.97534
0.973507
0.975125
0.978258
0.982972
0.990558
0.999369
1.00955
1.02157
1.03593
1.05012
1.06554
1.08158
1.09703
1.11366
1.13148
1.14747
1.16228
1.17623
1.19011
1.2045
1.21955
1.23527
1.25156
1.26827
1.28533
1.30265
1.32003
1.33734
1.35436
1.37092
1.38678
1.40177
1.41547
1.4276
1.438
1.44657
1.4534
1.45856
1.46194
1.4631
1.46205
1.45889
1.45322
1.44742
1.44156
1.4356
1.42974
1.42423
1.41928
1.41499
1.41139
1.4085
1.40624
1.40451
1.40321
1.40226
1.40157
1.40107
1.40072
1.40048
1.40032
1.40021
1.40013
1.40009
1.40006
1.40003
2.63804
3.65393
3.77334
3.74248
3.62392
3.382
3.12845
2.90261
2.69959
2.51509
2.34722
2.1952
2.05731
1.93283
1.8214
1.72249
1.63492
1.55692
1.48698
1.42378
1.36679
1.31549
1.26974
1.22921
1.19354
1.16244
1.13537
1.11217
1.09243
1.07593
1.06249
1.05199
1.04367
1.03803
1.03439
1.03201
1.03173
1.03252
1.03513
1.04077
1.0477
1.05554
1.06644
1.07748
1.08948
1.1027
1.11448
1.12502
1.13879
1.15245
1.16448
1.17597
1.1877
1.20027
1.21384
1.22834
1.24363
1.25972
1.27652
1.29392
1.31172
1.32969
1.34766
1.36544
1.38266
1.39893
1.4139
1.4272
1.43847
1.44762
1.45455
1.45943
1.46264
1.46387
1.46295
1.45979
1.4536
1.44697
1.44057
1.43429
1.42829
1.42279
1.41795
1.41382
1.41043
1.40774
1.40566
1.40408
1.40289
1.40203
1.4014
1.40096
1.40064
1.40043
1.40028
1.40018
1.40012
1.40008
1.40005
1.40003
1.98299
2.8841
3.62379
3.70527
3.66689
3.55072
3.32002
3.08759
2.87663
2.68514
2.50923
2.34876
2.20383
2.07411
1.95826
1.85489
1.7622
1.67896
1.60388
1.53605
1.47485
1.41986
1.37079
1.32717
1.28865
1.25469
1.2249
1.19891
1.17642
1.15729
1.14118
1.12797
1.11729
1.10864
1.10236
1.09754
1.09443
1.0934
1.09353
1.09447
1.09862
1.10381
1.10998
1.11844
1.12672
1.13484
1.14447
1.15311
1.16057
1.17136
1.18105
1.1886
1.19744
1.20747
1.2189
1.23164
1.24546
1.26038
1.27632
1.29306
1.31041
1.32824
1.34635
1.36447
1.38212
1.39889
1.41426
1.42794
1.43956
1.44888
1.45569
1.46017
1.46297
1.46411
1.46333
1.46039
1.45424
1.4465
1.43942
1.43276
1.42663
1.42118
1.4165
1.4126
1.40944
1.40697
1.40507
1.40364
1.40257
1.4018
1.40124
1.40084
1.40057
1.40038
1.40025
1.40016
1.40011
1.40007
1.40004
1.40003
1.68447
2.03929
3.01395
3.57292
3.64452
3.5989
3.48785
3.27819
3.0626
2.86257
2.68004
2.51281
2.36063
2.22389
2.10163
1.99253
1.8949
1.80702
1.72749
1.65543
1.59029
1.53164
1.47919
1.43239
1.39083
1.35386
1.3211
1.29217
1.26686
1.24497
1.22618
1.21033
1.19684
1.18577
1.17654
1.16944
1.16415
1.16072
1.15933
1.15985
1.1612
1.16426
1.16712
1.17106
1.17629
1.18087
1.18586
1.19201
1.19673
1.20293
1.21195
1.21841
1.22303
1.23061
1.2399
1.25075
1.26282
1.27605
1.29038
1.30566
1.32175
1.33846
1.35562
1.37286
1.38978
1.40583
1.42049
1.4334
1.44422
1.45278
1.45878
1.46259
1.46485
1.46573
1.46492
1.46166
1.45448
1.44554
1.43781
1.43085
1.42469
1.4194
1.41495
1.41132
1.40843
1.40619
1.40448
1.4032
1.40225
1.40157
1.40108
1.40073
1.40049
1.40033
1.40021
1.40014
1.40009
1.40006
1.40004
1.40002
1.54369
1.69591
2.06436
3.05882
3.51277
3.58308
3.53806
3.43549
3.25054
3.05043
2.85898
2.68417
2.5252
2.38162
2.25284
2.13757
2.03413
1.94105
1.85692
1.78076
1.71182
1.64962
1.59377
1.54373
1.49896
1.45884
1.423
1.39105
1.36285
1.33808
1.3165
1.29777
1.28161
1.26782
1.25619
1.24686
1.23956
1.23457
1.2314
1.23012
1.23015
1.23086
1.23271
1.23407
1.23551
1.23771
1.23887
1.24138
1.245
1.24716
1.25265
1.26003
1.2644
1.26816
1.27458
1.28354
1.2939
1.30533
1.31787
1.33134
1.34578
1.36082
1.3764
1.39192
1.40721
1.42154
1.43443
1.44554
1.45452
1.46126
1.46586
1.46882
1.47057
1.47104
1.46898
1.46237
1.452
1.44334
1.43554
1.42859
1.42259
1.41755
1.4134
1.41007
1.40745
1.40543
1.40391
1.40278
1.40195
1.40135
1.40093
1.40063
1.40042
1.40028
1.40018
1.40012
1.40008
1.40005
1.40003
1.40002
1.46238
1.54563
1.69373
2.07005
3.03343
3.44289
3.52084
3.48188
3.39307
3.23444
3.04895
2.86637
2.69879
2.54757
2.41198
2.29054
2.18125
2.08252
1.99313
1.91214
1.83887
1.77274
1.71325
1.65978
1.61172
1.56842
1.52946
1.49446
1.46326
1.43552
1.41104
1.38945
1.3706
1.35426
1.34047
1.32917
1.32032
1.31378
1.30909
1.30594
1.3035
1.30184
1.30039
1.2995
1.29895
1.29873
1.2994
1.29972
1.30136
1.30315
1.30462
1.30968
1.31531
1.31837
1.32195
1.32772
1.3364
1.34626
1.35699
1.36866
1.38111
1.39417
1.40738
1.42057
1.4332
1.44487
1.45526
1.46373
1.47035
1.47501
1.47821
1.4805
1.48137
1.47825
1.46822
1.4583
1.44926
1.44079
1.43306
1.42627
1.4205
1.41575
1.41191
1.40888
1.40652
1.40472
1.40338
1.40239
1.40167
1.40115
1.40078
1.40053
1.40035
1.40023
1.40015
1.4001
1.40007
1.40004
1.40003
1.40002
1.42363
1.46105
1.5402
1.68334
2.0464
2.94771
3.36331
3.45768
3.43009
3.35977
3.22882
3.05673
2.88439
2.72527
2.58133
2.45207
2.33578
2.23085
2.13593
2.0499
1.97184
1.90121
1.83756
1.78028
1.72866
1.68195
1.63969
1.60148
1.56715
1.53641
1.50904
1.48471
1.4634
1.44492
1.42938
1.41654
1.40626
1.39795
1.39104
1.38499
1.37964
1.37497
1.37096
1.36772
1.36494
1.36305
1.36162
1.36075
1.36078
1.36178
1.36283
1.36483
1.37027
1.37446
1.37699
1.38103
1.38708
1.39504
1.40386
1.41332
1.42333
1.43385
1.44456
1.45501
1.46496
1.47365
1.48121
1.48721
1.49134
1.49459
1.49687
1.49495
1.48543
1.47582
1.46613
1.45638
1.44696
1.43828
1.43061
1.42403
1.41852
1.41405
1.41052
1.40776
1.40565
1.40407
1.40289
1.40203
1.40141
1.40097
1.40066
1.40044
1.40029
1.4002
1.40013
1.40008
1.40006
1.40004
1.40003
1.40002
1.40811
1.42338
1.45326
1.53283
1.66006
1.99549
2.80615
3.27208
3.39465
3.3814
3.33001
3.22843
3.07065
2.9106
2.76038
2.62316
2.4991
2.38705
2.28557
2.19355
2.11019
2.03475
1.96666
1.90522
1.84968
1.79929
1.75352
1.712
1.67453
1.64089
1.61089
1.58426
1.5609
1.54067
1.52337
1.50867
1.49604
1.48482
1.47474
1.46561
1.45746
1.45021
1.44391
1.43846
1.43387
1.43003
1.42709
1.42487
1.42341
1.42316
1.42353
1.42417
1.42689
1.43125
1.43409
1.43691
1.44105
1.44686
1.45398
1.46159
1.4696
1.47781
1.48596
1.49361
1.50073
1.50658
1.51138
1.51516
1.51763
1.51542
1.50653
1.49755
1.48739
1.47646
1.46532
1.45455
1.44459
1.43574
1.42813
1.42176
1.41658
1.41244
1.4092
1.40672
1.40485
1.40346
1.40244
1.4017
1.40118
1.4008
1.40054
1.40036
1.40024
1.40016
1.40011
1.40007
1.40005
1.40003
1.40002
1.40001
1.40314
1.40697
1.42019
1.44596
1.51618
1.63275
1.91705
2.61018
3.16503
3.32789
3.33031
3.29702
3.21756
3.08062
2.93852
2.80037
2.67102
2.55195
2.44326
2.34461
2.25527
2.17424
2.10091
2.03472
1.97497
1.92083
1.87165
1.82702
1.78673
1.75054
1.7182
1.68933
1.66368
1.64098
1.62092
1.60304
1.58712
1.57279
1.5598
1.548
1.53733
1.52776
1.51931
1.5119
1.5055
1.50007
1.49558
1.49204
1.48937
1.48766
1.48701
1.48676
1.48769
1.49005
1.49285
1.49544
1.49837
1.50209
1.50729
1.51312
1.51881
1.52474
1.53014
1.53514
1.53946
1.54294
1.54425
1.54039
1.53381
1.52525
1.51458
1.50236
1.48933
1.47621
1.46361
1.452
1.44168
1.43281
1.42541
1.41937
1.41456