/*--------------------------------*- C++ -*----------------------------------*\
  =========                 |
  \\      /  F ield         | OpenFOAM: The Open Source CFD Toolbox
   \\    /   O peration     | Website:  https://openfoam.org
    \\  /    A nd           | Version:  9
     \\/     M anipulation  |
\*---------------------------------------------------------------------------*/
FoamFile
{
    format      ascii;
    class       volScalarField;
    location    "0.5";
    object      T;
}
// * * * * * * * * * * * * * * * * * * * * * * * * * * * * * * * * * * * * * //

dimensions      [0 0 0 1 0 0 0];

internalField   nonuniform List<scalar> 
5250
(
1
1
1
1.00001
1.00001
1.00004
1.00009
1.00027
1.00058
1.00175
1.00381
1.01117
1.02625
1.07321
1.1987
1.56521
2.30804
2.97643
2.9195
2.87219
2.88964
2.93975
3.08492
3.39611
3.3713
1
1
1
1.00001
1.00001
1.00004
1.00009
1.00026
1.00059
1.0017
1.00377
1.01094
1.02579
1.0718
1.19493
1.55523
2.29242
2.97329
2.91774
2.87024
2.88781
2.93796
3.08063
3.39189
3.37093
1
1
1
1.00001
1.00001
1.00004
1.00009
1.00025
1.00057
1.00163
1.00364
1.01052
1.02481
1.06897
1.18695
1.53359
2.25685
2.96566
2.91338
2.86543
2.88299
2.93336
3.07062
3.38177
3.36886
1
1
1
1.00001
1.00001
1.00004
1.00009
1.00023
1.00054
1.00153
1.00344
1.00991
1.02333
1.06483
1.1751
1.50095
2.20193
2.95078
2.90522
2.85798
2.87529
2.9257
3.05345
3.36711
3.36469
1
1
1
1
1.00001
1.00003
1.00008
1.00021
1.0005
1.00141
1.00319
1.00913
1.02148
1.05955
1.15996
1.45827
2.1273
2.92594
2.89276
2.84908
2.86613
2.91533
3.03105
3.34066
3.35544
1
1
1
1
1.00001
1.00003
1.00007
1.00019
1.00047
1.00127
1.00292
1.00822
1.01941
1.05341
1.14234
1.40671
2.03457
2.88084
2.87312
2.84052
2.8558
2.90269
3.00484
3.30905
3.34345
1
1
1
1
1.00001
1.00003
1.00007
1.00017
1.00043
1.00113
1.00266
1.00727
1.01731
1.04691
1.12374
1.34989
1.93016
2.7919
2.85285
2.82817
2.84448
2.88875
2.97286
3.25551
3.31763
1
1
1
1
1.00001
1.00002
1.00006
1.00015
1.00039
1.001
1.00241
1.00643
1.01544
1.04121
1.10722
1.29723
1.82448
2.64355
2.82556
2.81613
2.83623
2.87167
2.9347
3.19534
3.28496
1
1
1
1
1.00001
1.00002
1.00006
1.00013
1.00035
1.00086
1.00218
1.00557
1.01387
1.03597
1.09423
1.25762
1.74824
2.5009
2.7867
2.8107
2.82941
2.85089
2.88847
3.10607
3.2097
1
1
1
1
1.00001
1.00002
1.00005
1.00011
1.0003
1.00073
1.00188
1.00478
1.01194
1.03087
1.08051
1.21993
1.62545
2.35807
2.73572
2.80085
2.81254
2.82184
2.83878
2.99011
3.10712
1
1
1
1
1.00001
1.00001
1.00004
1.00009
1.00025
1.00061
1.00156
1.00398
1.00991
1.02582
1.06672
1.18239
1.50743
2.19222
2.67396
2.78266
2.7867
2.78124
2.76691
2.83529
2.85719
1
1
1
1
1
1.00001
1.00003
1.00008
1.00018
1.00054
1.00112
1.00345
1.00751
1.02143
1.05259
1.1458
1.40716
1.98474
2.60901
2.7687
2.76489
2.7381
2.6902
2.69048
2.67614
1
1
1
1
1
1.00001
1.00003
1.00005
1.00016
1.00035
1.00102
1.00232
1.00638
1.01541
1.04123
1.10816
1.30425
1.76225
2.53001
2.74186
2.73351
2.70293
2.62074
2.58128
2.56339
1
1
1
1
1
1.00001
1.00002
1.00005
1.00011
1.00029
1.00074
1.00184
1.00484
1.01183
1.0312
1.08096
1.22279
1.60685
2.33501
2.66297
2.66137
2.63811
2.57157
2.49105
2.45754
1
1
1
1
1
1.00001
1.00001
1.00004
1.00008
1.00024
1.00049
1.00154
1.00323
1.00955
1.02218
1.06133
1.16272
1.45645
2.08719
2.55632
2.604
2.58418
2.53963
2.45244
2.39818
1
1
1
1
1
1
1.00001
1.00002
1.00006
1.00015
1.00038
1.00102
1.00239
1.00665
1.01573
1.04308
1.11242
1.31801
1.78084
2.45297
2.57238
2.55836
2.51999
2.43884
2.36968
1
1
1
1
1
1
1.00001
1.00001
1.00005
1.0001
1.00029
1.00065
1.00178
1.00429
1.0113
1.0284
1.07538
1.20404
1.54335
2.22835
2.48486
2.49703
2.47125
2.41844
2.3472
1
1
1
1
1
1
1
1.00001
1.00003
1.00007
1.00018
1.00045
1.0012
1.00284
1.00783
1.01874
1.05097
1.13454
1.37621
1.91995
2.37381
2.45485
2.44059
2.40471
2.34514
1
1
1
1
1
1
1
1.00001
1.00002
1.00005
1.00011
1.00031
1.0007
1.00202
1.00445
1.01282
1.03004
1.08316
1.22219
1.58795
2.19956
2.37218
2.38431
2.36466
2.33206
1
1
1
1
1
1
1
1
1.00001
1.00003
1.00007
1.00018
1.00048
1.00114
1.00314
1.00733
1.02018
1.04995
1.13745
1.37514
1.8935
2.25749
2.34164
2.33388
2.30967
1
1
1
1
1
1
1
1
1.00001
1.00002
1.00005
1.0001
1.00029
1.00069
1.00181
1.00454
1.01148
1.02957
1.07719
1.20905
1.55051
2.08963
2.25061
2.2766
2.26149
1
1
1
1
1
1
1
1
1
1.00001
1.00002
1.00007
1.00015
1.00046
1.00094
1.00291
1.00628
1.01805
1.04367
1.12043
1.32675
1.77999
2.13871
2.22974
2.22529
1
1
1
1
1
1
1
1
1
1.00001
1.00001
1.00003
1.0001
1.00021
1.00064
1.00135
1.00411
1.0089
1.02561
1.06205
1.17064
1.45117
1.91834
2.11599
2.17721
1
1
1
1
1
1
1
1
1
1
1.00001
1.00002
1.00005
1.00012
1.00032
1.0008
1.00198
1.00523
1.01279
1.03408
1.08819
1.24244
1.59723
2.01342
2.10192
1
1
1
1
1
1
1
1
1
1
1
1.00001
1.00003
1.00006
1.00017
1.0004
1.00107
1.00265
1.00682
1.01746
1.04535
1.12008
1.33
1.73876
1.99405
1
1
1
1
1
1
1
1
1
1
1
1
1.00001
1.00003
1.00008
1.0002
1.00054
1.00128
1.00354
1.00822
1.02277
1.05597
1.15195
1.40563
1.76668
1
1
1
1
1
1
1
1
1
1
1
1
1.00001
1.00002
1.00003
1.0001
1.00023
1.00065
1.00156
1.00409
1.01031
1.02642
1.06902
1.18536
1.46787
1
1
1
1
1
1
1
1
1
1
1
1
1
1.00001
1.00002
1.00005
1.0001
1.00031
1.00067
1.002
1.00432
1.01283
1.02974
1.08336
1.22014
1
1
1
1
1
1
1
1
1
1
1
1
1
1
1.00001
1.00002
1.00005
1.00012
1.00031
1.00082
1.00196
1.00549
1.01277
1.03622
1.09014
1
1
1
1
1
1
1
1
1
1
1
1
1
1
1
1.00001
1.00002
1.00005
1.00014
1.0003
1.00092
1.00196
1.00601
1.01341
1.03843
1
1
1
1
1
1
1
1
1
1
1
1
1
1
1
1
1.00001
1.00002
1.00005
1.00012
1.00035
1.00077
1.00236
1.0051
1.01532
1
1
1
1
1
1
1
1
1
1
1
1
1
1
1
1
1
1.00001
1.00002
1.00005
1.00011
1.00034
1.00071
1.00228
1.00478
1
1
1
1
1
1
1
1
1
1
1
1
1
1
1
1
1
1
1.00001
1.00002
1.00004
1.00011
1.00026
1.00074
1.00178
1
1
1
1
1
1
1
1
1
1
1
1
1
1
1
1
1
1
1
1
1.00001
1.00003
1.00009
1.00022
1.00062
1
1
1
1
1
1
1
1
1
1
1
1
1
1
1
1
1
1
1
1
1
1.00001
1.00002
1.00007
1.00017
1
1
1
1
1
1
1
1
1
1
1
1
1
1
1
1
1
1
1
1
1
1
1.00001
1.00002
1.00005
1
1
1
1
1
1
1
1
1
1
1
1
1
1
1
1
1
1
1
1
1
1
1
1
1.00001
1
1
1
1
1
1
1
1
1
1
1
1
1
1
1
1
1
1
1
1
1
1
1
1
1
1
1
1
1
1
1
1
1
1
1
1
1
1
1
1
1
1
1
1
1
1
1
1
1
1
1
1
1
1
1
1
1
1
1
1
1
1
1
1
1
1
1
1
1
1
1
1
1
1
1
1
1
1
1
1
1
1
1
1
1
1
1
1
1
1
1
1
1
1
1
1
1
1
1
1
1
1
1
1
1
1
1
1
1
1
1
1
1
1
1
1
1
1
1
1
1
1
1
1
1
1
1
1
1
1
1
1
1
1
1
1
1
1
1
1
1
1
1
1
1
1
1
1
1
1
1
1
1
1
1
1
1
1
1
1
1
1
1
1
1
1
1
1
1
1
1
1
1
1
1
1
1
1
1
1
1
1
1
1
1
1
1
1
1
1
1
1
1
1
1
1
1
1
1
1
1
1
1
1
1
1
1
1
1
1
1
1
1
1
1
1
1
1
1
1
1
1
1
1
1
1
1
1
1
1
1
1
1
1
1
1
1
1
1
1
1
1
1
1
1
1
1
1
1
1
1
1
1
1
1
1
1
1
1
1
1
1
1
1
1
1
1
1
1
1
1
1
1
1
1
1
1
1
1
1
1
1
1
1
1
1
1
1
1
1
1
1
1
1
1
1
1
1
1
1
1
1
1
1
1
1
1
1
1
1
1
1
1
1
1
1
1
1
1
1
1
1
1
1
1
2.72858
2.51756
2.43918
2.45074
2.50629
2.56732
2.61879
2.64412
2.64057
2.62953
2.61439
2.59081
2.56868
2.55265
2.53703
2.51982
2.50113
2.48148
2.4612
2.44093
2.42184
2.405
2.39016
2.37614
2.36183
2.34635
2.32907
2.31014
2.29085
2.27323
2.25895
2.24896
2.24406
2.24343
2.24437
2.24789
2.25489
2.26177
2.26709
2.26969
2.26976
2.26768
2.25905
2.23272
2.1766
2.10311
2.01844
1.92625
1.83052
1.73519
1.64344
1.55738
1.47841
1.40729
1.34432
1.28939
1.24214
1.20201
1.16837
1.14055
1.11786
1.09968
1.08544
1.07459
1.06653
1.06063
1.05625
1.0528
1.04982
1.04697
1.044
1.04077
1.03719
1.03329
1.02926
1.02539
1.02198
1.01907
1.01649
1.01388
1.01076
1.0081
1.00507
1.00247
1.00077
0.999777
0.999272
0.999087
0.999071
0.999115
0.999266
0.999468
0.999623
0.999739
0.999822
0.999882
0.999923
0.999951
0.99997
0.999981
2.64066
2.55774
2.49331
2.44472
2.39656
2.34726
2.3105
2.30128
2.30219
2.30476
2.30621
2.30587
2.3019
2.29217
2.27643
2.26157
2.2475
2.23288
2.21759
2.2026
2.18885
2.17625
2.16422
2.15244
2.14106
2.13011
2.11917
2.10756
2.09487
2.08106
2.06655
2.0525
2.04062
2.03233
2.02812
2.02695
2.02705
2.028
2.03142
2.03687
2.04001
2.04053
2.0397
2.03526
2.02034
1.98717
1.93465
1.87272
1.80417
1.73159
1.6574
1.58405
1.51356
1.4474
1.38645
1.33109
1.2814
1.23729
1.1986
1.16514
1.13668
1.11288
1.09331
1.07747
1.06484
1.05497
1.04742
1.04172
1.03734
1.03379
1.03062
1.02755
1.02446
1.02139
1.01845
1.0158
1.0136
1.01184
1.01032
1.00877
1.00702
1.00453
1.00183
0.999994
0.998905
0.99837
0.998209
0.998224
0.998327
0.998631
0.998974
0.999246
0.999456
0.999615
0.999732
0.999818
0.999877
0.999919
0.999948
0.999965
2.54194
2.50803
2.4491
2.37151
2.28854
2.21588
2.16157
2.13695
2.13406
2.13524
2.13793
2.14189
2.13929
2.13608
2.12987
2.12029
2.10862
2.09591
2.08331
2.07104
2.05994
2.04946
2.0398
2.03061
2.02179
2.01273
2.00356
1.99421
1.98447
1.97457
1.9647
1.9544
1.94343
1.93318
1.92549
1.9196
1.91404
1.90991
1.90782
1.90721
1.90703
1.9065
1.90529
1.90106
1.88976
1.86533
1.82608
1.77737
1.72134
1.66024
1.59635
1.53187
1.46871
1.40839
1.35197
1.30008
1.25299
1.21079
1.17351
1.14112
1.11358
1.09071
1.07219
1.0576
1.04642
1.03808
1.03205
1.02783
1.02492
1.02285
1.02114
1.01945
1.01761
1.01566
1.01378
1.01212
1.0108
1.00975
1.00879
1.00772
1.0063
1.00364
1.00124
0.999642
0.998711
0.998275
0.998161
0.998189
0.998331
0.998677
0.999014
0.999278
0.999481
0.999635
0.999747
0.999829
0.999886
0.999926
0.999953
0.999968
2.42779
2.39517
2.34834
2.28974
2.23132
2.17639
2.12989
2.0922
2.06035
2.03922
2.02214
2.01551
2.01537
2.01609
2.01918
2.01956
2.01774
2.01297
2.00269
1.98967
1.97769
1.96675
1.95775
1.94888
1.94041
1.93168
1.9234
1.91508
1.90678
1.89828
1.88973
1.88071
1.8704
1.8592
1.84922
1.84088
1.83302
1.82665
1.8228
1.8213
1.82094
1.82029
1.81914
1.81493
1.80463
1.78022
1.74002
1.68985
1.63272
1.57152
1.50907
1.44775
1.38939
1.33519
1.28582
1.24159
1.20248
1.16828
1.13864
1.11317
1.09154
1.07346
1.05872
1.04705
1.0381
1.03144
1.02661
1.02317
1.02071
1.01887
1.01737
1.01593
1.01434
1.01256
1.01074
1.00913
1.00791
1.00705
1.00643
1.00579
1.00424
1.00175
0.999789
0.998527
0.99786
0.997622
0.997619
0.997722
0.998054
0.998512
0.998885
0.999179
0.999406
0.999578
0.999705
0.999799
0.999864
0.99991
0.999942
0.99996
2.36266
2.33393
2.29995
2.25906
2.2103
2.15934
2.11078
2.06146
2.0132
1.97114
1.94031
1.92104
1.91989
1.92195
1.92768
1.9346
1.9375
1.93698
1.93431
1.92782
1.91717
1.9075
1.89697
1.88831
1.87964
1.87152
1.86359
1.85606
1.84817
1.83994
1.83168
1.82315
1.81358
1.80298
1.79314
1.78418
1.77504
1.76711
1.76181
1.75897
1.757
1.75429
1.74833
1.73409
1.70824
1.6732
1.63039
1.58183
1.52964
1.47598
1.42273
1.37143
1.32312
1.27844
1.2377
1.20102
1.16838
1.13969
1.11472
1.0932
1.07483
1.05936
1.04665
1.03655
1.02885
1.02327
1.0194
1.01683
1.01511
1.01389
1.01287
1.01183
1.01069
1.00943
1.00816
1.00706
1.0063
1.00587
1.00565
1.00495
1.00344
1.00113
0.999365
0.998266
0.997718
0.997553
0.997577
0.99772
0.99813
0.998581
0.99894
0.999222
0.999439
0.999604
0.999725
0.999813
0.999875
0.999918
0.999948
0.999965
2.31699
2.27491
2.2396
2.20288
2.1638
2.12151
2.07287
2.0253
1.98118
1.9418
1.91139
1.88912
1.87519
1.86911
1.86921
1.87059
1.87307
1.87374
1.87296
1.87017
1.86443
1.85675
1.8484
1.83914
1.83022
1.82124
1.8123
1.80404
1.79632
1.78838
1.78024
1.77198
1.7626
1.75181
1.74208
1.73383
1.72558
1.71734
1.71063
1.70588
1.70092
1.69198
1.6766
1.65316
1.62142
1.58263
1.53883
1.49205
1.44402
1.39632
1.3502
1.30658
1.26605
1.22884
1.19496
1.16447
1.13737
1.11359
1.09302
1.07544
1.06057
1.04811
1.03786
1.02967
1.02344
1.01897
1.01597
1.01408
1.01289
1.01201
1.01119
1.01027
1.00918
1.00795
1.00669
1.00564
1.00503
1.00475
1.00435
1.00373
1.0024
1.00021
0.998559
0.997608
0.997208
0.997146
0.997221
0.997497
0.998039
0.998504
0.998879
0.999174
0.999403
0.999576
0.999704
0.999797
0.999863
0.999909
0.999941
0.999959
2.29108
2.24364
2.20086
2.15971
2.11827
2.07534
2.0298
1.98386
1.94045
1.90419
1.87459
1.85488
1.84016
1.8285
1.81895
1.81028
1.80381
1.8
1.79764
1.79699
1.79627
1.79476
1.79125
1.78565
1.77885
1.77125
1.76345
1.75614
1.74865
1.74092
1.73246
1.72389
1.71476
1.70462
1.6955
1.68838
1.68108
1.67252
1.66275
1.6523
1.64002
1.6235
1.601
1.57145
1.53551
1.49505
1.4522
1.40897
1.36665
1.32625
1.28787
1.25228
1.21941
1.18939
1.16231
1.13797
1.11602
1.09629
1.07888
1.06393
1.05132
1.04074
1.03201
1.025
1.01961
1.01571
1.0131
1.0115
1.01054
1.00985
1.00915
1.00826
1.00717
1.00601
1.00498
1.00437
1.00418
1.00389
1.00367
1.00309
1.00168
0.99957
0.998132
0.99736
0.997077
0.997067
0.997182
0.997563
0.998115
0.998569
0.998931
0.999216
0.999434
0.9996
0.999722
0.999811
0.999873
0.999916
0.999946
0.999964
2.28021
2.21948
2.16712
2.12008
2.07436
2.02898
1.98609
1.94608
1.91158
1.88193
1.85851
1.83761
1.81936
1.80133
1.78325
1.76737
1.75404
1.74444
1.73907
1.73592
1.73401
1.73294
1.73171
1.72942
1.72596
1.72239
1.71823
1.71249
1.70628
1.69929
1.69148
1.68296
1.6744
1.66526
1.65571
1.64712
1.6381
1.62647
1.61118
1.59309
1.57311
1.55022
1.52311
1.49114
1.45496
1.41635
1.37712
1.33883
1.30245
1.26849
1.23703
1.20801
1.18135
1.15696
1.1348
1.11484
1.09695
1.08087
1.06647
1.05429
1.044
1.03475
1.02722
1.02145
1.01707
1.01391
1.01179
1.01048
1.00975
1.00926
1.00866
1.00773
1.00648
1.00519
1.0043
1.00405
1.00366
1.00347
1.00321
1.00248
1.00072
0.998792
0.997588
0.996987
0.996813
0.996847
0.997035
0.997544
0.998106
0.99856
0.998923
0.999208
0.999427
0.999593
0.999716
0.999806
0.999869
0.999913
0.999944
0.999961
2.27038
2.21269
2.1522
2.09695
2.04742
2.00281
1.96122
1.9253
1.89342
1.86785
1.8452
1.82419
1.80241
1.77943
1.75733
1.73648
1.71927
1.70526
1.69386
1.68594
1.67963
1.67473
1.67249
1.67154
1.67134
1.67089
1.67011
1.66809
1.66438
1.65853
1.65138
1.6433
1.63493
1.6259
1.61534
1.6035
1.59028
1.57356
1.55283
1.52883
1.50302
1.47556
1.44563
1.41321
1.37899
1.344
1.30953
1.27666
1.2461
1.21814
1.19283
1.16986
1.1489
1.12957
1.11167
1.09542
1.08084
1.06772
1.05599
1.04566
1.03694
1.02994
1.02416
1.01884
1.01493
1.01245
1.01072
1.00956
1.00884
1.00836
1.00782
1.00697
1.00577
1.00458
1.00396
1.00332
1.00304
1.00297
1.00273
1.00187
0.99985
0.998206
0.997219
0.996773
0.99669
0.996761
0.997046
0.997656
0.998189
0.998626
0.998975
0.999248
0.999459
0.999617
0.999734
0.999819
0.999878
0.999919
0.999948
0.999965
2.26073
2.19471
2.13851
2.08309
2.03243
1.98823
1.95022
1.91785
1.88947
1.86373
1.83863
1.81386
1.78797
1.76293
1.73883
1.71792
1.6991
1.68263
1.66855
1.65506
1.64454
1.63668
1.63067
1.62781
1.62726
1.62666
1.62602
1.62473
1.62184
1.61744
1.61165
1.60409
1.59487
1.58418
1.57093
1.55463
1.53555
1.51374
1.48887
1.46186
1.43352
1.4048
1.3755
1.34538
1.3151
1.2849
1.25546
1.22748
1.20156
1.1781
1.15754
1.13945
1.12265
1.10699
1.09243
1.07901
1.06688
1.05607
1.04646
1.03796
1.03063
1.02465
1.02006
1.01647
1.01314
1.01098
1.00984
1.00894
1.00821
1.00763
1.00708
1.00637
1.00555
1.00491
1.00395
1.00305
1.00274
1.00263
1.00226
1.00118
0.999153
0.997683
0.996861
0.996549
0.996539
0.996666
0.997091
0.997719
0.998242
0.998666
0.999004
0.99927
0.999473
0.999627
0.99974
0.999822
0.999881
0.99992
0.999949
0.999964
2.23738
2.18614
2.12354
2.07105
2.02477
1.9829
1.94683
1.91587
1.88866
1.86274
1.83708
1.81002
1.78287
1.75604
1.7315
1.70939
1.68927
1.67086
1.65311
1.63739
1.62289
1.61073
1.60194
1.59449
1.58914
1.58543
1.58105
1.57648
1.57181
1.56567
1.55822
1.54948
1.53833
1.52499
1.50992
1.49191
1.47052
1.44665
1.42159
1.39596
1.36928
1.34198
1.31471
1.28797
1.26204
1.2366
1.21168
1.18784
1.16577
1.14636
1.12998
1.11542
1.10205
1.08966
1.07799
1.06698
1.05678
1.04754
1.03938
1.0323
1.02621
1.02117
1.01726
1.01441
1.01223
1.0103
1.00946
1.00875
1.00788
1.00698
1.00617
1.00547
1.00506
1.00463
1.00365
1.00284
1.0025
1.00235
1.00185
1.0007
0.998662
0.997299
0.996626
0.996437
0.996476
0.99668
0.99723
0.99784
0.998338
0.998742
0.999063
0.999315
0.999507
0.999652
0.999758
0.999835
0.99989
0.999927
0.999953
0.999967
2.20578
2.16486
2.11405
2.06106
2.01454
1.97781
1.94427
1.91442
1.88696
1.85992
1.83254
1.80495
1.7783
1.75274
1.72942
1.70685
1.68672
1.66564
1.64681
1.62768
1.61108
1.59629
1.58313
1.57225
1.56214
1.55217
1.54381
1.53436
1.52479
1.51549
1.50478
1.49272
1.47967
1.46452
1.44795
1.42973
1.40861
1.38499
1.36125
1.33799
1.31398
1.28913
1.26465
1.24159
1.21958
1.19818
1.17715
1.15671
1.13788
1.12219
1.10942
1.09792
1.08742
1.07759
1.0683
1.05947
1.05105
1.04313
1.03599
1.02973
1.0244
1.02005
1.01664
1.01409
1.01229
1.01078
1.01008
1.00957
1.00858
1.0073
1.00607
1.00537
1.00494
1.00405
1.00332
1.00295
1.00278
1.00256
1.00189
1.00021
0.998147
0.996992
0.996502
0.996415
0.996486
0.996774
0.997404
0.997967
0.998435
0.998816
0.999119
0.999356
0.999537
0.999673
0.999773
0.999845
0.999896
0.99993
0.999956
0.999969
2.16893
2.14565
2.09715
2.0503
2.00788
1.96847
1.93855
1.90985
1.88231
1.85501
1.82745
1.79992
1.77382
1.74969
1.7274
1.70571
1.68458
1.66338
1.6423
1.62161
1.60293
1.58482
1.56944
1.55433
1.54016
1.52629
1.5117
1.49784
1.48377
1.46871
1.45475
1.43968
1.4235
1.40707
1.38924
1.36998
1.34968
1.32796
1.30553
1.28381
1.26291
1.24163
1.22045
1.20039
1.18152
1.16394
1.14682
1.12946
1.11372
1.10163
1.09168
1.08292
1.07507
1.06771
1.06047
1.0533
1.04642
1.03998
1.034
1.02852
1.02389
1.02016
1.01727
1.01521
1.01364
1.01229
1.01163
1.0112
1.01031
1.00866
1.00706
1.00595
1.00459
1.00374
1.0034
1.00334
1.00331
1.00297
1.00167
0.999192
0.997608
0.996772
0.996458
0.99644
0.996553
0.996955
0.99758
0.998112
0.99855
0.998905
0.999187
0.999407
0.999575
0.9997
0.999792
0.999858
0.999905
0.999937
0.99996
0.999972
2.12023
2.10585
2.07876
2.03563
1.99642
1.96155
1.92646
1.89705
1.86978
1.84317
1.81768
1.79313
1.76931
1.74663
1.72477
1.70314
1.6809
1.6584
1.63564
1.61423
1.59315
1.57488
1.55575
1.53885
1.52109
1.50323
1.48599
1.46754
1.44961
1.4318
1.41282
1.39479
1.37664
1.35688
1.33808
1.31857
1.29795
1.27778
1.25762
1.2372
1.21779
1.19938
1.18068
1.1627
1.14602
1.13123
1.11728
1.10255
1.08913
1.07982
1.07219
1.06581
1.06032
1.05511
1.04994
1.04475
1.03961
1.03479
1.03027
1.0263
1.02279
1.01973
1.0174
1.01585
1.01481
1.01385
1.01316
1.01286
1.01218
1.01079
1.00905
1.00679
1.00488
1.00408
1.00399
1.0041
1.00397
1.00298
1.00052
0.998548
0.997315
0.996688
0.996489
0.996521
0.996689
0.997191
0.997781
0.998271
0.998674
0.999
0.999259
0.99946
0.999613
0.999727
0.999811
0.999871
0.999914
0.999942
0.999963
0.999974
2.06725
2.06356
2.04823
2.02298
1.98577
1.94732
1.91387
1.88212
1.85214
1.82576
1.80157
1.77957
1.7595
1.73966
1.71889
1.69712
1.67398
1.65038
1.62693
1.60433
1.58292
1.56239
1.54266
1.52297
1.50297
1.48349
1.46249
1.44283
1.42212
1.40137
1.38125
1.35959
1.33866
1.31813
1.29656
1.27614
1.25635
1.236
1.21695
1.199
1.18096
1.16358
1.14746
1.13088
1.1151
1.10152
1.08967
1.07729
1.06492
1.05714
1.05121
1.04644
1.04259
1.03907
1.03556
1.03209
1.02877
1.02575
1.02304
1.02069
1.01871
1.01713
1.01595
1.01517
1.01458
1.01436
1.01402
1.01377
1.0133
1.01244
1.01063
1.00751
1.00527
1.00441
1.00438
1.00445
1.00406
1.00243
0.999975
0.998208
0.997154
0.996675
0.996576
0.996633
0.996889
0.997463
0.997993
0.998438
0.998805
0.9991
0.999334
0.999516
0.999654
0.999757
0.999832
0.999885
0.999923
0.999949
0.999967
0.999977
1.95753
2.01878
2.01292
1.9991
1.96973
1.93478
1.89956
1.86729
1.83773
1.80963
1.78514
1.76414
1.74488
1.72595
1.70636
1.68512
1.66241
1.63894
1.61544
1.59263
1.57061
1.54925
1.52827
1.50706
1.48599
1.46422
1.44299
1.42087
1.39943
1.37757
1.35527
1.3338
1.31126
1.28902
1.2677
1.2456
1.22536
1.20628
1.18702
1.16911
1.15267
1.13598
1.12027
1.1056
1.09096
1.07776
1.06767
1.05793
1.04683
1.03894
1.03432
1.03031
1.02725
1.02456
1.02198
1.01956
1.0175
1.01586
1.01461
1.01368
1.01307
1.01279
1.01278
1.01296
1.01341
1.01371
1.01375
1.01371
1.01354
1.01289
1.0112
1.00804
1.00566
1.00458
1.00441
1.00439
1.00384
1.00196
0.999584
0.997973
0.997095
0.996754
0.996733
0.99683
0.997189
0.997743
0.998218
0.998615
0.998941
0.999205
0.999413
0.999574
0.999696
0.999786
0.999852
0.999899
0.999933
0.999955
0.999972
0.999979
1.82297
1.92608
1.97296
1.96339
1.94853
1.91808
1.8858
1.85212
1.82137
1.79464
1.77072
1.74873
1.72901
1.71034
1.69081
1.66987
1.64764
1.6247
1.60166
1.57909
1.55694
1.53516
1.51334
1.49138
1.46924
1.4469
1.42461
1.40223
1.37995
1.35765
1.33537
1.3128
1.29092
1.26856
1.24705
1.2263
1.20537
1.18618
1.16819
1.14983
1.1331
1.11758
1.10179
1.08739
1.07486
1.06223
1.0519
1.044
1.03527
1.02664
1.02251
1.01929
1.01683
1.01479
1.01281
1.01102
1.00971
1.00892
1.00854
1.00844
1.00854
1.00899
1.00996
1.01097
1.01192
1.01268
1.01307
1.01312
1.01301
1.01244
1.01094
1.00802
1.00577
1.00461
1.00431
1.00416
1.0035
1.00148
0.999202
0.997796
0.997119
0.996921
0.996945
0.9971
0.997536
0.998028
0.998443
0.998791
0.999077
0.999308
0.99949
0.999631
0.999737
0.999815
0.999872
0.999913
0.999942
0.999961
0.999976
0.999982
1.52149
1.81903
1.89309
1.92568
1.9163
1.90025
1.86902
1.83888
1.80767
1.77882
1.75444
1.7333
1.71354
1.69382
1.67392
1.65328
1.63171
1.60947
1.58705
1.5648
1.54272
1.52068
1.49846
1.47606
1.45346
1.43085
1.40831
1.38594
1.36372
1.3415
1.31939
1.29728
1.27539
1.25418
1.23314
1.21317
1.19408
1.17506
1.15711
1.13966
1.12256
1.10681
1.09231
1.07798
1.06564
1.05527
1.04491
1.03722
1.03102
1.02256
1.01621
1.01395
1.01159
1.00973
1.00791
1.0063
1.00536
1.00508
1.00511
1.00532
1.00596
1.00727
1.00869
1.01004
1.01126
1.01223
1.01279
1.0129
1.01277
1.01209
1.01038
1.00785
1.0059
1.00484
1.00451
1.00418
1.00317
1.00093
0.998848
0.997734
0.997282
0.997198
0.99725
0.997464
0.997908
0.998316
0.998669
0.998968
0.999214
0.999411
0.999567
0.999687
0.999777
0.999843
0.999892
0.999926
0.999951
0.999967
0.999979
0.999984
1.25415
1.54287
1.79452
1.86014
1.87748
1.8705
1.85379
1.82354
1.79588
1.76725
1.74036
1.7172
1.69687
1.67749
1.65781
1.63713
1.61566
1.59386
1.57207
1.55016
1.52821
1.50615
1.48385
1.4614
1.43884
1.41642
1.39419
1.37224
1.35046
1.32875
1.30719
1.28574
1.2648
1.24427
1.22454
1.20537
1.18694
1.16916
1.1515
1.13496
1.11869
1.10286
1.08864
1.07579
1.0638
1.0539
1.04526
1.03719
1.03122
1.02592
1.01855
1.0141
1.01246
1.01062
1.00881
1.00716
1.00622
1.00607
1.00615
1.00656
1.00744
1.00886
1.01032
1.01165
1.01276
1.01356
1.01394
1.01393
1.01357
1.01241
1.01028
1.00816
1.00659
1.00568
1.00523
1.0045
1.00283
1.00018
0.998599
0.997859
0.997607
0.997585
0.997652
0.997883
0.998257
0.998596
0.99889
0.99914
0.999345
0.999511
0.99964
0.99974
0.999815
0.99987
0.99991
0.999939
0.999959
0.999972
0.999983
0.999987
1.09652
1.26568
1.53977
1.7614
1.82297
1.83134
1.82544
1.80983
1.78195
1.75677
1.73057
1.70532
1.68271
1.66215
1.64226
1.62202
1.60111
1.57946
1.55748
1.53561
1.5139
1.49221
1.4703
1.44822
1.42612
1.40421
1.38256
1.36121
1.34004
1.31908
1.2983
1.27787
1.25788
1.23845
1.21963
1.20128
1.18352
1.16601
1.14917
1.1329
1.1175
1.10331
1.09024
1.07861
1.06836
1.05878
1.05091
1.04363
1.03701
1.03228
1.02692
1.02099
1.01804
1.01658
1.01477
1.01299
1.0118
1.01154
1.01163
1.01197
1.01277
1.01394
1.01512
1.01611
1.01681
1.01715
1.01711
1.01674
1.01561
1.01369
1.01163
1.00977
1.00846
1.00756
1.00655
1.00459
1.00155
0.999706
0.998709
0.99823
0.998065
0.998054
0.998113
0.998304
0.998601
0.998871
0.999107
0.999308
0.999473
0.999606
0.99971
0.999791
0.999851
0.999895
0.999928
0.999951
0.999967
0.999978
0.999986
0.999989
1.03588
1.10002
1.26259
1.51288
1.72329
1.78204
1.78725
1.78235
1.76838
1.74407
1.72088
1.69601
1.67194
1.64964
1.62859
1.60786
1.58699
1.56583
1.54447
1.52305
1.50157
1.48003
1.45843
1.43683
1.41534
1.39411
1.3732
1.35264
1.33231
1.31226
1.29246
1.27305
1.25404
1.23553
1.21739
1.19961
1.18218
1.16517
1.14887
1.13338
1.11919
1.10629
1.09494
1.08471
1.07553
1.06737
1.05992
1.05348
1.04724
1.04192
1.0377
1.03255
1.02806
1.02607
1.0245
1.02263
1.02121
1.02063
1.02064
1.0208
1.02135
1.02208
1.02266
1.02301
1.02306
1.02283
1.02211
1.02066
1.01884
1.01675
1.01471
1.01305
1.01162
1.00966
1.00591
1.00316
1.00126
0.999975
0.999167
0.998735
0.998574
0.998557
0.998595
0.998724
0.998939
0.999139
0.999317
0.999469
0.999595
0.999697
0.999776
0.999838
0.999884
0.999919
0.999944
0.999961
0.999974
0.999982
0.999989
0.999991
1.01464
1.03396
1.09506
1.24624
1.47426
1.68045
1.73736
1.74476
1.74079
1.7293
1.70918
1.6872
1.66272
1.63909
1.61709
1.59598
1.5751
1.5541
1.53297
1.5119
1.49103
1.47024
1.4494
1.42848
1.40763
1.38706
1.36685
1.34703
1.32749
1.30824
1.28927
1.27069
1.25243
1.23454
1.21684
1.19944
1.18238
1.16601
1.15063
1.13662
1.12408
1.11283
1.10267
1.09336
1.08508
1.07737
1.0705
1.06434
1.0586
1.0534
1.04908
1.04528
1.04086
1.03777
1.03639
1.03474
1.03317
1.03219
1.03177
1.03174
1.03177
1.03184
1.03178
1.03153
1.03081
1.02962
1.02794
1.02594
1.0237
1.02151
1.01944
1.01649
1.0121
1.00856
1.0057
1.00345
1.00176
1.00056
0.999777
0.999319
0.999115
0.999071
0.999082
0.999139
0.999264
0.999395
0.999515
0.99962
0.999708
0.99978
0.999837
0.999881
0.999915
0.99994
0.999958
0.999971
0.999981
0.999987
0.999992
0.999993
1.0048
1.01216
1.03196
1.0829
1.22004
1.42629
1.63121
1.68933
1.70346
1.7006
1.692
1.67611
1.65431
1.63056
1.60818
1.587
1.56612
1.54516
1.52423
1.50352
1.48307
1.46285
1.44266
1.42248
1.40241
1.38261
1.36316
1.34406
1.32524
1.30666
1.28834
1.27029
1.25244
1.23481
1.2175
1.20065
1.1845
1.16949
1.15584
1.14353
1.13226
1.12198
1.11257
1.10397
1.09608
1.08892
1.08232
1.07628
1.07098
1.06582
1.0614
1.05787
1.05422
1.0508
1.04888
1.0474
1.04581
1.04463
1.04393
1.04351
1.04308
1.04257
1.04178
1.04064
1.03913
1.03717
1.03491
1.03248
1.02984
1.02576
1.02096
1.01657
1.01259
1.00915
1.00633
1.0041
1.00243
1.00125
1.00046
0.99997
0.999686
0.99955
0.999522
0.999528
0.99956
0.999625
0.999692
0.999753
0.999807
0.999853
0.999889
0.999918
0.999941
0.999958
0.99997
0.999979
0.999986
0.99999
0.999994
0.999995
1.0015
1.00404
1.0102
1.02688
1.06929
1.18233
1.37013
1.57144
1.64092
1.66495
1.66247
1.65464
1.64272
1.62242
1.60147
1.58114
1.56072
1.53998
1.51919
1.49852
1.47817
1.45828
1.43872
1.41928
1.3999
1.38072
1.36182
1.34323
1.32486
1.30664
1.28858
1.27083
1.25347
1.23655
1.22018
1.20467
1.19017
1.17673
1.16431
1.15291
1.14247
1.13289
1.12405
1.11591
1.1084
1.10149
1.09514
1.08927
1.08397
1.07919
1.07465
1.07098
1.06794
1.06451
1.06233
1.06065
1.05911
1.05776
1.05674
1.05586
1.05482
1.05365
1.05206
1.05022
1.04796
1.04541
1.04208
1.03742
1.03255
1.02745
1.02236
1.01761
1.01342
1.00989
1.00702
1.00479
1.00312
1.00193
1.00111
1.00056
1.00021
0.999999
0.999883
0.999826
0.999817
0.99982
0.999837
0.999863
0.999889
0.999912
0.999932
0.999949
0.999962
0.999973
0.999981
0.999986
0.999991
0.999993
0.999996
0.999996
1.0005
1.00111
1.00338
1.00744
1.02238
1.05234
1.14456
1.30265
1.49589
1.5964
1.62804
1.62536
1.61896
1.60923
1.59343
1.57602
1.55736
1.53769
1.51724
1.49678
1.4767
1.45713
1.43794
1.41887
1.39977
1.38079
1.36208
1.3437
1.32557
1.3077
1.29015
1.27308
1.2567
1.24113
1.22627
1.21209
1.19865
1.1861
1.17456
1.16397
1.15424
1.14522
1.13683
1.12901
1.12174
1.11502
1.1088
1.10306
1.09782
1.09309
1.08877
1.08497
1.08195
1.07899
1.07607
1.07442
1.07291
1.07138
1.0699
1.0684
1.06669
1.06472
1.06243
1.0595
1.05581
1.05146
1.04639
1.04072
1.03473
1.0288
1.02324
1.01824
1.01394
1.01036
1.0075
1.00529
1.00365
1.00246
1.0016
1.00101
1.0006
1.00033
1.00016
1.00005
0.999991
0.999959
0.999947
0.999946
0.99995
0.999957
0.999965
0.999972
0.999979
0.999984
0.999988
0.999992
0.999994
0.999996
0.999998
0.999997
1.00013
1.00034
1.00087
1.00232
1.0058
1.01559
1.03939
1.10258
1.23566
1.41162
1.55907
1.59003
1.58721
1.58429
1.57761
1.56648
1.55219
1.53535
1.51652
1.49709
1.47741
1.45801
1.43894
1.42005
1.40122
1.3825
1.36414
1.34616
1.3285
1.31122
1.29457
1.27867
1.26351
1.2489
1.23483
1.22139
1.20879
1.19714
1.18642
1.17659
1.16745
1.15886
1.15074
1.14312
1.13601
1.12939
1.12327
1.11761
1.11244
1.10774
1.10349
1.09973
1.09654
1.09361
1.09064
1.08843
1.08686
1.08495
1.08286
1.08057
1.07798
1.07495
1.07134
1.06698
1.06179
1.05579
1.04919
1.04234
1.03556
1.02915
1.02332
1.01819
1.01384
1.01031
1.00756
1.00546
1.00388
1.00272
1.00187
1.00126
1.00082
1.00053
1.00032
1.00019
1.0001
1.00005
1.00002
0.999998
0.99999
0.999987
0.999987
0.999988
0.99999
0.999992
0.999994
0.999995
0.999997
0.999998
0.999999
0.999998
1.00003
1.00009
1.00021
1.00063
1.00147
1.00417
1.01007
1.02752
1.06768
1.16959
1.3198
1.48729
1.54086
1.55413
1.55092
1.54687
1.54022
1.52927
1.51457
1.49741
1.47991
1.46162
1.44319
1.4248
1.40648
1.38829
1.37032
1.35284
1.33571
1.31895
1.30282
1.28743
1.27275
1.25873
1.2453
1.23262
1.22084
1.21007
1.20013
1.19086
1.1821
1.17371
1.16575
1.15821
1.15118
1.14463
1.13856
1.13297
1.12782
1.12312
1.11888
1.11506
1.11166
1.10846
1.10534
1.10273
1.10064
1.09805
1.09502
1.0917
1.08792
1.08346
1.07817
1.07198
1.06503
1.05756
1.04987
1.04226
1.03499
1.0282
1.02214
1.01702
1.01289
1.00965
1.00714
1.00522
1.00376
1.00268
1.00188
1.0013
1.00088
1.00059
1.00038
1.00024
1.00015
1.00009
1.00005
1.00003
1.00001
1
1
0.999998
0.999997
0.999997
0.999997
0.999998
0.999998
0.999999
0.999999
0.999999
1.00001
1.00002
1.00006
1.00012
1.00042
1.00084
1.00281
1.00571
1.01808
1.04015
1.10894
1.2189
1.37841
1.492
1.51796
1.52072
1.51707
1.51203
1.50549
1.4947
1.48008
1.46444
1.44819
1.43143
1.41426
1.39676
1.37933
1.3622
1.34552
1.32911
1.31335
1.29851
1.28445
1.27097
1.25819
1.24622
1.23521
1.22513
1.21574
1.20679
1.19811
1.18977
1.18176
1.17425
1.16725
1.16076
1.15471
1.1491
1.14391
1.13913
1.13474
1.13071
1.12693
1.12327
1.11978
1.11677
1.11364
1.10977
1.10547
1.10062
1.09506
1.08869
1.08153
1.07371
1.06544
1.05696
1.04842
1.03998
1.03205
1.02514
1.01946
1.0149
1.01128
1.00845
1.00625
1.00457
1.00331
1.00237
1.00167
1.00117
1.00081
1.00055
1.00037
1.00024
1.00016
1.0001
1.00006
1.00004
1.00002
1.00001
1.00001
1
1
1
0.999999
0.999999
0.999999
0.999999
1
0.999999
1
1.00001
1.00001
1.00004
1.00007
1.00024
1.0005
1.00154
1.00341
1.00993
1.02307
1.06062
1.14005
1.25267
1.40459
1.47584
1.48185
1.4876
1.48537
1.48028
1.47257
1.46191
1.44843
1.43415
1.41908
1.40349
1.38758
1.37174
1.35625
1.34099
1.326
1.31175
1.29838
1.28559
1.27341
1.26207
1.25162
1.24198
1.23283
1.22392
1.21514
1.20665
1.19864
1.19112
1.18411
1.17754
1.1714
1.16565
1.1603
1.15525
1.15051
1.14594
1.14152
1.13715
1.13302
1.12889
1.12383
1.11826
1.11219
1.10547
1.09808
1.09005
1.08148
1.07243
1.06284
1.05279
1.0429
1.03411
1.0268
1.02085
1.01604
1.0122
1.00917
1.00683
1.00503
1.00367
1.00265
1.0019
1.00134
1.00094
1.00065
1.00045
1.0003
1.0002
1.00013
1.00009
1.00006
1.00003
1.00002
1.00001
1.00001
1
1
1
1
1
1
1
1
1
1
1
1
1.00001
1.00002
1.00004
1.00012
1.00028
1.00075
1.00189
1.00481
1.01238
1.03038