/*--------------------------------*- C++ -*----------------------------------*\
  =========                 |
  \\      /  F ield         | OpenFOAM: The Open Source CFD Toolbox
   \\    /   O peration     | Website:  https://openfoam.org
    \\  /    A nd           | Version:  9
     \\/     M anipulation  |
\*---------------------------------------------------------------------------*/
FoamFile
{
    format      ascii;
    class       volScalarField;
    location    "0.99";
    object      alpha.phase1;
}
// * * * * * * * * * * * * * * * * * * * * * * * * * * * * * * * * * * * * * //

dimensions      [0 0 0 0 0 0 0];

internalField   nonuniform List<scalar> 
10000
(
5.5537125e-84
2.490256e-83
1.032009e-81
4.2339063e-81
4.6457359e-81
1.7031301e-81
6.2192412e-82
6.2196437e-82
2.9132236e-80
1.6528067e-77
8.8015254e-75
4.3044124e-72
1.934749e-69
8.0362121e-67
3.1014426e-64
1.1175336e-61
3.7723002e-59
1.1956913e-56
3.5648028e-54
1.001101e-51
2.6507272e-49
6.621121e-47
1.5603858e-44
3.4674054e-42
7.252653e-40
1.4230209e-37
2.6024938e-35
4.3974791e-33
6.7934727e-31
9.4845854e-29
1.1817335e-26
1.2968481e-24
1.2369728e-22
1.0103287e-20
6.9967548e-19
4.4350752e-17
2.8076767e-15
5.8335641e-14
2.1775524e-13
4.349067e-12
1.189311e-10
2.8710484e-09
1.0117914e-06
7.5898199e-06
7.5898199e-06
7.3934304e-06
9.1044083e-07
5.1106126e-08
3.9076949e-07
2.0711463e-06
2.2417049e-06
2.2581824e-06
2.2581824e-06
2.2581824e-06
2.2409061e-06
1.1842843e-06
1.4822005e-07
1.6415008e-07
2.5617194e-07
1.846992e-05
2.1643493e-05
7.681672e-06
1.7112618e-06
1.7051628e-06
1.2581493e-06
7.0136859e-07
4.1541868e-08
9.0792302e-11
8.5913673e-12
1.1050276e-12
7.7374021e-13
1.722051e-13
1.2744447e-14
5.6292253e-16
2.3285141e-17
9.3806292e-19
3.4226642e-20
1.102879e-21
3.1334901e-23
7.8383391e-25
1.7191329e-26
3.2884244e-28
5.4531944e-30
7.7862971e-32
9.4979682e-34
9.8089259e-36
8.4860995e-38
6.0736565e-40
3.5425319e-42
1.6529621e-44
6.0264821e-47
1.6635514e-49
3.3267889e-52
4.5116642e-55
3.4850279e-58
2.7226586e-58
2.7379333e-57
7.5110524e-56
1.2316063e-54
5.0067288e-54
5.5537125e-84
1.8814849e-82
6.3896016e-81
2.7062686e-80
3.4348671e-80
2.5036919e-80
1.3148856e-80
6.949348e-81
5.9887662e-80
1.7128849e-77
6.6149534e-75
2.9744921e-72
1.3374643e-69
5.4800156e-67
2.0823512e-64
7.3698874e-62
2.4429642e-59
7.6071484e-57
2.2326719e-54
6.1884266e-52
1.6222499e-49
4.0289958e-47
9.4839329e-45
2.1161841e-42
4.4677883e-40
8.8934805e-38
1.6594467e-35
2.8781711e-33
4.5910292e-31
6.6533334e-29
8.6441927e-27
9.9269568e-25
9.9273117e-23
8.502661e-21
6.2348063e-19
4.2759217e-17
2.6203863e-15
5.1172986e-14
1.9483827e-13
4.4807572e-12
1.3985912e-10
3.8810057e-09
2.1831132e-06
7.5331727e-06
7.1427896e-06
2.8616498e-07
5.1066351e-08
5.1026645e-08
5.1066589e-08
5.1785029e-08
5.5096016e-08
3.1713717e-07
6.2858123e-07
1.3660625e-07
9.5778358e-08
9.787299e-08
1.0799732e-07
1.2712764e-07
1.3775115e-06
3.9805235e-05
4.2173139e-05
4.2115043e-05
1.9692592e-05
1.4890822e-06
1.2926873e-06
3.6608819e-06
3.5032021e-06
5.5078809e-07
1.6814028e-10
8.2139456e-12
1.0683813e-12
2.4980331e-13
5.505254e-14
3.7768572e-15
1.21049e-16
3.8807389e-18
1.2877647e-19
3.9238856e-21
1.0611381e-22
2.5329832e-24
5.3065414e-26
9.6878917e-28
1.5303243e-29
2.0761344e-31
2.3994886e-33
2.3409396e-35
1.9080732e-37
1.2841831e-39
6.9406956e-42
2.9442021e-44
9.2982279e-47
2.1626137e-49
3.5516298e-52
3.2336685e-55
6.6757396e-56
1.0865554e-55
4.2301196e-54
8.1516895e-53
3.8150865e-52
4.3992953e-52
2.9450668e-81
2.3361675e-79
5.4500864e-78
1.7920453e-77
2.0709818e-77
1.4652709e-77
7.4012847e-78
3.7367515e-78
1.6656689e-77
2.5861331e-75
3.4421278e-73
4.132288e-71
4.6582302e-69
5.7070829e-67
9.6260251e-65
2.4032247e-62
7.3851012e-60
2.3602198e-57
6.992722e-55
1.9393958e-52
5.080562e-50
1.2657241e-47
3.0072489e-45
6.8236846e-43
1.4780088e-40
3.0476323e-38
5.9532824e-36
1.0933919e-33
1.8683563e-31
2.9301159e-29
4.1505804e-27
5.2235838e-25
5.7442099e-23
5.4180717e-21
4.383721e-19
3.3573103e-17
2.1951526e-15
4.4305723e-14
1.8517059e-13
5.0176678e-12
1.9508819e-10
8.7516435e-08
4.8916235e-06
7.4765255e-06
4.242373e-06
5.1109043e-08
5.1026338e-08
5.1109074e-08
5.1785029e-08
5.5016621e-08
6.5489892e-08
2.1463488e-07
1.0999561e-07
9.674164e-08
9.5572529e-08
1.3783699e-07
5.4289416e-07
1.98691e-06
2.2071387e-06
1.7014428e-05
4.2059204e-05
4.2173139e-05
4.2059204e-05
2.8105255e-05
2.0566201e-06
3.6578932e-06
3.1150297e-06
3.7884402e-07
1.0346712e-09
5.086235e-11
3.1720473e-12
1.0351874e-12
1.7956896e-13
1.1583458e-14
4.0846671e-16
1.3249025e-17
4.2837656e-19
1.2702996e-20
3.3332217e-22
7.6290755e-24
1.4986594e-25
2.5310596e-27
3.6757346e-29
4.5548491e-31
4.7706829e-33
4.1759443e-35
3.0122491e-37
1.7593982e-39
8.2953185e-42
3.1175496e-44
9.5027987e-47
2.1550356e-49
3.4215255e-52
2.2961227e-54
2.1218289e-54
1.0487835e-52
3.6795365e-51
6.2304051e-50
2.919348e-49
3.8254937e-49
1.5990761e-78
1.7288543e-76
3.0295653e-75
8.2047532e-75
8.9353064e-75
6.2069155e-75
3.0622961e-75
1.5148858e-75
5.580147e-75
9.0779234e-73
1.2484318e-70
1.5135046e-68
1.6404592e-66
1.6057896e-64
1.4327839e-62
1.1755749e-60
8.9994962e-59
6.5465006e-57
4.938927e-55
4.8159844e-53
7.5133964e-51
1.6127591e-48
4.0203957e-46
9.6697309e-44
2.1919806e-41
4.7493835e-39
9.8860234e-37
1.9674998e-34
3.7089528e-32
6.5335581e-30
1.056749e-27
1.5388801e-25
1.9773057e-23
2.1972046e-21
2.0873838e-19
1.7278697e-17
1.1641779e-15
4.2746315e-14
7.8631526e-13
2.635847e-11
8.5426884e-10
8.7594205e-08
4.9926552e-06
7.4066949e-06
4.1563192e-06
5.1175856e-08
5.1109074e-08
5.8313666e-08
2.3938465e-07
1.1410001e-07
4.4591039e-07
2.4361991e-06
3.593205e-07
1.0999467e-07
9.674164e-08
1.1468694e-07
3.0842636e-06
1.7855329e-05
1.8295052e-05
1.0523041e-05
7.1838318e-06
3.6767391e-05
4.1743259e-05
4.1426772e-05
2.7164449e-05
2.7208411e-06
8.943532e-07
2.7558989e-08
8.9289849e-10
5.6985015e-11
4.096051e-12
1.4889562e-12
2.7255677e-13
1.8136067e-14
5.9740085e-16
1.7972577e-17
5.5222578e-19
1.5466569e-20
3.7790545e-22
7.9970251e-24
1.4961741e-25
2.448928e-27
3.4505888e-29
4.1505257e-31
4.2219595e-33
3.5925621e-35
2.5247964e-37
1.4426489e-39
6.5208595e-42
2.2489536e-44
5.5476182e-47
9.6351537e-50
1.0850627e-52
2.7476241e-53
1.6431202e-51
7.6125154e-50
2.4359299e-48
3.6501556e-47
1.6404919e-46
2.2791482e-46
6.2399015e-76
7.5753679e-74
1.1615882e-72
2.8329899e-72
2.9705357e-72
2.0479516e-72
9.95903e-73
4.8407892e-73
1.4811972e-72
2.5666547e-70
3.7011255e-68
4.6548708e-66
5.1978008e-64
5.216229e-62
4.7499613e-60
3.9541861e-58
3.0270571e-56
2.1427993e-54
1.4085377e-52
8.6417744e-51
4.9683704e-49
2.6527809e-47
1.2963648e-45
6.3308622e-44
4.148899e-42
4.2077129e-40
5.349814e-38
9.6661513e-36
2.31319e-33
4.8831052e-31
9.3936112e-29
1.6540437e-26
2.6021871e-24
3.5603744e-22
4.1320061e-20
3.9785218e-18
3.1236046e-16
1.7832863e-14
5.0482957e-13
1.874503e-11
7.8770677e-10
3.222712e-08
3.0619143e-06
7.3019342e-06
2.6877942e-06
5.1235834e-08
5.1445684e-08
5.3212814e-08
5.148179e-07
1.0507229e-05
3.0718079e-05
4.5034009e-05
2.79572e-05
7.1626405e-07
1.2156278e-07
1.2863981e-07
9.4919568e-06
1.8295052e-05
1.8314006e-05
1.8308218e-05
6.270405e-06
1.0735422e-06
1.7797403e-05
4.101277e-05
3.3772171e-05
5.0151957e-06
6.4220751e-07
8.06322e-08
5.8063803e-10
2.9022508e-11
2.4605815e-12
6.6470432e-13
1.85097e-13
2.2353777e-14
9.6649345e-16
2.4179273e-17
6.2212062e-19
1.5983973e-20
3.6355491e-22
7.1951044e-24
1.2345233e-25
1.8308841e-27
2.3313344e-29
2.5211137e-31
2.2850884e-33
1.7094576e-35
1.0369023e-37
4.9870715e-40
1.8329649e-42
4.9407643e-45
9.1389474e-48
7.742062e-51
5.0130007e-52
1.7419266e-50
1.0218941e-48
4.4517311e-47
1.301266e-45
1.7302356e-44
7.3095164e-44
1.0385258e-43
1.8697747e-73
2.3773189e-71
3.4117318e-70
7.8553176e-70
8.0314806e-70
5.5284543e-70
2.6638309e-70
1.268143e-70
3.0528809e-70
5.8194218e-68
8.9569016e-66
1.1813735e-63
1.3680218e-61
1.413638e-59
1.3182088e-57
1.1189557e-55
8.7008579e-54
6.2301438e-52
4.1293169e-50
2.5447255e-48
1.4611857e-46
7.7180597e-45
3.6600071e-43
1.6168834e-41
8.1720735e-40
5.7837632e-38
3.294599e-36
8.3827731e-35
1.0628364e-33
1.2152213e-32
1.1138018e-30
3.5731194e-28
8.3462491e-26
1.5846301e-23
2.4895548e-21
3.1669626e-19
3.232159e-17
2.6452912e-15
1.3444047e-13
5.362433e-12
2.8943979e-10
1.3351816e-08
6.3641932e-07
3.0871048e-06
1.651799e-06
2.0131634e-07
5.3219185e-08
5.6774128e-08
2.7173394e-07
2.932295e-05
5.4047268e-05
5.4164741e-05
5.4047268e-05
2.346308e-05
1.062311e-06
2.2590194e-07
1.3702659e-05
1.81548e-05
1.8295052e-05
1.8309849e-05
1.2918203e-05
5.5526809e-07
3.2636605e-07
5.1587436e-06
4.4559011e-05
1.3567514e-05
8.4209839e-07
2.5084677e-07
1.0617317e-09
5.0437579e-11
3.0004755e-12
3.680406e-13
1.9972474e-13
3.723156e-14
1.7375863e-15
3.3945596e-17
7.2687147e-19
1.655869e-20
3.3883374e-22
6.208366e-24
9.7882027e-26
1.3102747e-27
1.4804538e-29
1.3960395e-31
1.0831663e-33
6.7847198e-36
3.3423858e-38
1.2502794e-40
3.3826982e-43
6.1673796e-46
2.9305244e-49
1.3049414e-50
1.3197537e-49
9.7779474e-48
5.3121293e-46
2.1851385e-44
5.8070877e-43
6.8501888e-42
2.6945309e-41
3.8286695e-41
5.0141739e-71
5.8662057e-69
8.1598813e-68
1.8199056e-67
1.8315481e-67
1.2630129e-67
6.0566108e-68
2.7829891e-68
4.6098821e-68
1.0411482e-65
1.7736601e-63
2.4980835e-61
3.0329138e-59
3.2490588e-57
3.1171156e-55
2.7057413e-53
2.1419916e-51
1.5554012e-49
1.0407198e-47
6.4500434e-46
3.7062172e-44
1.9564496e-42
9.350421e-41
4.1590363e-39
1.9418396e-37
1.0701042e-35
5.5700245e-34
1.786851e-32
2.9265248e-31
2.554236e-30
1.5240738e-29
1.0701534e-28
1.3121799e-27
1.1282568e-25
2.7575805e-23
5.9583471e-21
1.100647e-18
1.4416345e-16
1.2796993e-14
6.1485555e-13
1.3941647e-11
1.6457483e-09
1.7059451e-08
9.1436247e-08
3.6424786e-07
4.6131721e-07
1.5767416e-07
1.2292212e-07
1.6783246e-07
1.9800671e-05
5.2700377e-05
5.4047268e-05
5.4163482e-05
5.3657376e-05
2.763137e-05
1.8346446e-05
1.7654943e-05
1.583109e-05
1.4612016e-05
5.9258009e-06
3.1390385e-07
3.1245126e-07
3.1184436e-07
3.2583408e-07
5.3059439e-05
2.6220642e-05
6.4204008e-07
2.5288236e-07
3.3453929e-09
1.5798905e-10
6.5257643e-12
1.0600308e-12
2.9575241e-13
3.2385625e-14
1.2984053e-15
3.0792394e-17
7.1033705e-19
1.5624345e-20
3.0098113e-22
4.8969263e-24
6.8344618e-26
8.0967734e-28
8.0047962e-30
6.4829469e-32
4.2105004e-34
2.1335792e-36
8.1110437e-39
2.1875267e-41
3.847563e-44
3.3610567e-47
4.0339704e-49
7.5986943e-49
7.0092411e-47
4.6634772e-45
2.3760402e-43
9.2042585e-42
2.2108092e-40
2.3152444e-39
8.4437749e-39
1.1834099e-38
2.4348496e-68
1.2026056e-66
1.6480405e-65
3.6224983e-65
3.6116346e-65
2.5043583e-65
1.2078743e-65
4.9705321e-66
3.7250853e-66
1.3413631e-63
2.7646159e-61
4.3115095e-59
5.5911173e-57
6.2780477e-55
6.242461e-53
5.5734605e-51
4.5098856e-49
3.3302911e-47
2.2572464e-45
1.4106294e-43
8.1328448e-42
4.294543e-40
2.0643531e-38
9.291425e-37
4.1855224e-35
1.9228377e-33
8.1825691e-32
2.9146521e-30
7.1944593e-29
9.0006739e-28
5.3056449e-27
1.90164e-26
6.8607482e-26
7.6680312e-25
7.3735343e-23
4.2553688e-21
1.143333e-19
3.9733099e-18
5.3319609e-16
4.4413786e-14
5.3164359e-13
3.0489366e-12
3.3206685e-10
7.4416377e-10
5.9734181e-10
1.758418e-07
1.2152643e-07
1.3629446e-07
8.0001536e-07
8.8876628e-07
3.5793396e-06
2.2265948e-05
5.0563992e-05
5.0655733e-05
4.82462e-05
4.4067745e-05
1.4749201e-05
1.1488616e-06
3.5412946e-07
3.143476e-07
3.1199689e-07
3.1189737e-07
3.1131031e-07
3.1171471e-07
5.6319301e-05
4.2645095e-05
1.8447055e-06
1.3765868e-07
7.4597194e-09
4.1021235e-10
1.7790868e-11
2.4118509e-12
3.1466439e-13
2.155699e-14
7.5403104e-16
1.9896518e-17
4.6711876e-19
9.5623812e-21
1.6733398e-22
2.4532437e-24
3.0308694e-26
3.1195748e-28
2.6240359e-30
1.760181e-32
9.1268612e-35
3.5031685e-37
9.339881e-40
1.563226e-42
1.3549236e-45
4.7520417e-48
3.578876e-48
3.9592447e-46
3.1690861e-44
1.934022e-42
9.2940885e-41
3.3671025e-39
7.2692682e-38
6.7907367e-37
2.2919295e-36
3.142585e-36
3.0380081e-65
2.2118686e-64
2.8847008e-63
6.3273656e-63
6.2750873e-63
4.380901e-63
2.1387347e-63
7.7977601e-64
7.3949903e-65
9.7594685e-62
3.1106588e-59
5.8042936e-57
8.2882275e-55
9.9055391e-53
1.0297366e-50
9.5080636e-49
7.9002482e-47
5.9540876e-45
4.0969368e-43
2.5882921e-41
1.5020181e-39
7.9630901e-38
3.8496123e-36
1.7411833e-34
7.6311213e-33
3.1564637e-31
1.1760462e-29
4.3801824e-28
1.4843463e-26
2.4439662e-25
1.5094673e-24
4.4320151e-24
9.916303e-24
3.8060814e-23
4.2278047e-21
1.9899883e-19
1.886364e-18
8.4012208e-18
8.0757969e-17
2.6745202e-15
1.3465141e-13
5.4782387e-12
6.2605665e-12
2.2973605e-11
5.757136e-11
4.3628186e-08
1.2169463e-07
1.1033023e-06
4.5386812e-06
1.4976423e-06
1.6454675e-06
1.6401393e-06
2.9645672e-06
1.0879378e-05
8.6038815e-06
6.0789941e-06
1.8669464e-05
3.1663342e-05
4.6450826e-06
3.1680803e-07
3.1182489e-07
3.1171346e-07
3.1149097e-07
3.1170133e-07
6.2295174e-05
6.7427368e-05
9.5223206e-06
1.8896941e-08
3.5996974e-09
3.324311e-10
2.06195e-11
2.4432558e-12
2.3324687e-13
1.098358e-14
3.2944969e-16
8.3773617e-18
1.8336725e-19
3.3784084e-21
5.2215606e-23
6.7348638e-25
7.169479e-27
6.1952736e-29
4.2434967e-31
2.2289174e-33
8.5545826e-36
2.229905e-38
3.5064993e-41
2.7913025e-44
2.7455699e-47
1.5101226e-47
1.8591917e-45
1.7335172e-43
1.2488162e-41
7.0617274e-40
3.2016141e-38
1.0767289e-36
2.0843029e-35
1.7452161e-34
5.4671132e-34
7.2984345e-34
3.9592603e-62
4.8488441e-62
4.4773523e-61
9.8450803e-61
9.7498422e-61
6.8582785e-61
3.3606132e-61
1.2151399e-61
8.7272525e-63
2.1803325e-60
1.2823534e-57
3.0881065e-55
5.0313789e-53
6.580505e-51
7.2818166e-49
7.0467226e-47
6.0789232e-45
4.732733e-43
3.3470539e-41
2.1628724e-39
1.2827844e-37
7.0009697e-36
3.5176524e-34
1.6092304e-32
6.5570847e-31
2.4335117e-29
1.0153683e-27
7.4509538e-26
4.8987411e-24
9.4590332e-23
5.1027707e-22
1.1649519e-21
1.7682091e-21
4.0538751e-21
3.692729e-19
1.1038689e-17
7.8926767e-17
2.3346772e-16
4.2969174e-16
1.7837732e-15
1.5697758e-14
1.2860199e-12
2.9646702e-13
1.3115562e-12
2.2975444e-11
3.1462776e-07
9.4623357e-08
3.4690867e-06
4.5630189e-06
3.4171293e-06
1.6403651e-06
1.6323103e-06
1.6403825e-06
1.6364431e-06
1.6462584e-06
3.2855304e-06
4.6786332e-05
5.1527993e-05
2.139737e-05
3.1474429e-07
3.1158266e-07
3.1164038e-07
3.1160888e-07
4.1155365e-05
6.7567364e-05
6.7395385e-05
2.188006e-05
2.3888092e-08
3.6364959e-09
2.2514042e-10
1.3460212e-11
1.4543424e-12
9.7405121e-14
3.5220294e-15
9.3123779e-17
2.1168769e-18
4.0801589e-20
6.5653094e-22
8.7749363e-24
9.659094e-26
8.591493e-28
6.0225646e-30
3.2133042e-32
1.2374585e-34
3.1686788e-37
4.7531987e-40
3.7810334e-43
1.9354851e-46
1.0218579e-46
7.5732075e-45
7.9397658e-43
6.6116848e-41
4.336676e-39
2.2821758e-37
9.7308596e-36
3.0173321e-34
5.257781e-33
3.9826884e-32
1.1551465e-31
1.5007508e-31
4.1322707e-59
2.2064398e-59
6.3744964e-59
1.3789405e-58
1.3704376e-58
9.7281986e-59
4.8323634e-59
1.9440741e-59
9.0779698e-61
3.6732475e-59
3.8450736e-56
2.2182344e-53
5.7231803e-51
9.1253956e-49
1.1220364e-46
1.1617187e-44
1.0503275e-42
8.4584095e-41
6.1399242e-39
4.0415616e-37
2.4253806e-35
1.3294332e-33
6.6536106e-32
3.0235519e-30
1.2307827e-28
4.5621999e-27
1.8019636e-25
1.0237564e-23
5.5925514e-22
1.1454491e-20
6.8652935e-20
1.6335923e-19
2.1518248e-19
3.007359e-19
1.0149834e-17
2.2933957e-16
1.4394018e-15
4.5408714e-15
8.4232123e-15
1.5590713e-14
2.3563293e-14
4.2918686e-14
6.6917507e-14
1.4627298e-13
5.6133892e-08
3.7238601e-07
5.1835767e-08
3.5659481e-06
4.580377e-06
4.5730194e-06
3.4185133e-06
1.6402811e-06
1.6323019e-06
1.6462983e-06
1.6560268e-06
3.0905326e-05
5.1527993e-05
5.1538298e-05
4.436708e-05
6.4583627e-07
3.170751e-07
8.4126944e-07
4.0021599e-05
6.7580887e-05
6.752561e-05
6.7559531e-05
1.6528129e-05
1.9409222e-07
5.698874e-09
1.8057503e-10
6.7680656e-12
4.9002845e-13
2.2442633e-14
6.6213288e-16
1.5530458e-17
3.0821537e-19
5.1435268e-21
7.1533718e-23
8.1972182e-25
7.6013997e-27
5.5519602e-29
3.0717625e-31
1.214777e-33
3.1614765e-36
5.1003356e-39
4.2088624e-42
2.0153811e-45
9.4375728e-46
2.7979904e-44
3.2351921e-42
2.9807009e-40
2.2256062e-38
1.3325353e-36
6.5330586e-35
2.6105939e-33
7.4397265e-32
1.1754188e-30
8.0875904e-30
2.1748856e-29
2.7505877e-29
3.4564675e-56
1.5650115e-56
8.9702498e-57
1.7620247e-56
1.7596838e-56
1.2631273e-56
6.4109092e-57
2.2360217e-57
9.7618086e-59
1.0466953e-58
1.1029691e-56
2.5601558e-51
2.9005639e-48
7.0391196e-46
1.0379764e-43
1.1926516e-41
1.1600367e-39
9.8905489e-38
7.5476676e-36
5.2179616e-34
3.2683526e-32
1.8286786e-30
9.1404664e-29
4.5358626e-27
3.0385651e-25
3.0636315e-23
1.4915764e-21
2.298287e-20
1.6231066e-19
9.6962499e-19
4.5703274e-18
1.2671091e-17
1.7761318e-17
2.0202637e-17
2.2874617e-16
7.0498124e-15
4.9927294e-14
1.0309204e-13
1.4400865e-13
1.5142678e-13
1.3068904e-13
8.3408075e-14
8.5005694e-14
9.2782619e-14
7.2394015e-08
3.7216155e-07
4.2602222e-08
3.0897253e-06
4.5559103e-06
4.580377e-06
4.5559103e-06
2.1563413e-06
1.6587877e-06
1.759805e-06
1.7261288e-06
3.3937976e-05
5.1538298e-05
5.1559191e-05
5.1560461e-05
2.0374837e-06
3.5370108e-07
2.9767762e-05
6.7590139e-05
6.7575926e-05
6.7542818e-05
6.6867307e-05
1.5805152e-06
1.8272824e-08
3.2399611e-09
1.0209523e-10
2.7469575e-12
1.1031029e-13
3.2952631e-15
7.8802055e-17
1.6081821e-18
2.7829197e-20
4.0498239e-22
4.8927965e-24
4.8049975e-26
3.7263284e-28
2.1869138e-30
9.1915626e-33
2.6456934e-35
4.7206233e-38
6.7428457e-41
2.5074088e-44
9.7963649e-45
9.0710239e-44
1.201507e-41
1.1972361e-39
9.8425519e-38
6.6113363e-36
3.6202936e-34
1.6534603e-32
6.181486e-31
1.6247943e-29
2.3457613e-28
1.4614347e-27
3.6482212e-27
4.4959966e-27
2.3701682e-53
1.0461716e-53
1.6277748e-54
2.1105509e-54
2.0793484e-54
1.5174116e-54
6.7093695e-55
4.8049061e-56
1.0483149e-58
8.2490411e-57
9.2076526e-54
1.4625054e-48
4.6643868e-44
2.0650933e-41
3.7629824e-39
4.9658528e-37
5.4503735e-35
5.2298877e-33
4.4038804e-31
3.2838091e-29
2.8539082e-27
6.875341e-25
1.0822231e-22
3.0189836e-21
2.5629819e-20
3.499073e-19
9.913066e-18
8.5423427e-17
2.1816395e-16
2.5373305e-17
3.1061163e-17
1.1730324e-15
7.5842642e-16
2.33504e-15
1.0611719e-14
6.3821898e-14
1.0225408e-12
1.6291941e-12
1.456607e-12
1.0151559e-12
6.3766225e-13
2.4323376e-13
9.5059569e-14
1.0100705e-13
2.1680834e-07
1.7215102e-07
4.2269834e-08
6.6059488e-07
3.4064494e-06
4.5051217e-06
4.0481356e-06
1.6774803e-06
1.8202331e-06
4.8041596e-06
7.8185255e-06
8.1041877e-06
5.1045143e-05
5.1538298e-05
5.1568297e-05
1.1796836e-05
1.1583494e-05
6.7590139e-05
6.7590139e-05
6.7590139e-05
6.7575926e-05
1.1133284e-05
1.2907782e-09
3.9232489e-11
4.0796066e-10
2.6704733e-11
6.6901752e-13
1.5514942e-14
3.2076758e-16
6.3467386e-18
1.1297464e-19
1.7304393e-21
2.2273382e-23
2.3498748e-25
1.9690438e-27
1.2592151e-29
5.9699625e-32
1.9622687e-34
4.9745567e-37
9.1335547e-40
4.5584034e-43
1.0261088e-43
2.0550521e-43
4.0087884e-41
4.3787301e-39
3.8837283e-37
2.8568561e-35
1.7278311e-33
8.6781382e-32
3.6981018e-30
1.2908718e-28
3.1456568e-27
4.1379377e-26
2.3361289e-25
5.4215331e-25
6.5136765e-25
1.3584081e-50
5.9818412e-51
5.4794282e-52
2.3646913e-52
2.287365e-52
1.6606868e-52
8.375505e-53
3.0962841e-53
1.1455822e-52
2.8357418e-50
2.1813152e-47
1.0200189e-44
3.9999795e-42
1.2989082e-39
2.4770406e-37
3.4859293e-35
3.9156082e-33
3.7399998e-31
3.1547579e-29
2.3892828e-27
1.6343759e-25
1.0489405e-23
7.1981081e-22
6.9176698e-20
9.8026875e-18
5.6947227e-16
8.7562064e-15
3.8149364e-14
6.4421017e-14
8.4309797e-15
1.7075258e-14
2.2615689e-13
1.0877992e-13
1.4190111e-13
3.969109e-13
1.1394808e-12
4.1294106e-12
6.374257e-12
5.9193821e-12
3.9341908e-12
1.7749834e-12
3.7065797e-13
1.0100705e-13
3.0385315e-08
2.245991e-07
2.2471948e-07
4.141195e-08
1.0346688e-08
1.2753829e-08
3.319287e-08
1.6946544e-07
1.1395679e-06
2.0361004e-06
5.1309243e-05
2.474664e-05
9.5976458e-06
5.1653103e-05
5.1623063e-05
5.1568297e-05
9.112409e-06
7.5856788e-06
6.7393122e-05
6.7590139e-05
6.4863963e-05
1.5010032e-05
6.4160682e-09
-8.9610748e-12
1.0680174e-11
6.652469e-13
5.1984737e-12
9.2055796e-14
1.236025e-15
2.0326439e-17
3.5832501e-19
5.785198e-21
8.0553887e-23
9.3388235e-25
8.7258008e-27
6.3659133e-29
3.4746957e-31
1.5302246e-33
4.9590187e-36
1.2322489e-38
9.9026125e-42
1.1797214e-42
1.0969788e-43
1.0531293e-40
1.4346768e-38
1.3970991e-36
1.1066872e-34
7.2774954e-33
3.9665848e-31
1.8312166e-29
7.3024094e-28
2.3834832e-26
5.3749616e-25
6.3760412e-24
3.2632166e-23
7.0603684e-23
8.2374625e-23
6.6043626e-48
2.9281067e-48
2.4707356e-49
2.6180265e-50
2.3579405e-50
1.7052379e-50
9.414523e-51
3.8537896e-51
7.9759575e-51
1.1065105e-48
5.2510565e-46
3.2217764e-43
1.3386677e-40
4.8776768e-38
1.0619005e-35
1.5690519e-33
1.7919841e-31
1.7256866e-29
1.4602879e-27
1.1078827e-25
7.5227035e-24
4.5767548e-22
2.8903215e-20
3.1777561e-18
5.1853397e-16
2.7311615e-14
3.3316268e-13
1.2929665e-12
3.4111501e-12
1.9793653e-12
3.9876317e-12
2.5240871e-11
3.775667e-12
2.0131703e-12
2.5762097e-12
4.413106e-12
7.99015e-12
8.2146253e-12
5.3372399e-12
7.3301166e-13
1.0770581e-13
1.0300061e-13
1.0223489e-13
1.0814588e-08
9.5866291e-08
7.7799598e-08
1.6664555e-08
8.6677146e-09
9.8404654e-09
2.8670727e-08
3.9604556e-07
1.234287e-05
8.6795517e-05
7.9626278e-05
8.988707e-06
9.446378e-06
5.1609091e-05
5.1714706e-05
5.0274861e-05
5.5714971e-06
6.5423408e-07
2.1202657e-05
3.2926718e-05
6.6729082e-06
3.0051045e-08
3.7423373e-10
1.0940426e-11
5.9861911e-12
3.1973299e-13
1.1685498e-12
8.7905114e-15
8.2311912e-17
1.1599735e-18
1.8552611e-20
2.7492104e-22
3.5081252e-24
3.7379975e-26
3.2417754e-28
2.242327e-30
1.1864683e-32
5.100419e-35
1.698301e-37
2.9266684e-40
1.3198735e-41
1.2297806e-42
6.1665778e-41
3.7856184e-38
4.580699e-36
3.9532082e-34
2.7726517e-32
1.620299e-30
7.978546e-29
3.3985567e-27
1.2666321e-25
3.8389872e-24
7.8804677e-23
8.4011309e-22
3.9319966e-21
8.0507249e-21
9.1392283e-21
2.7555068e-45
1.2377669e-45
1.0774868e-46
3.5644258e-48
2.269036e-48
1.6425235e-48
9.1958449e-49
4.186207e-49
3.938278e-49
7.180906e-47
2.4017997e-44
1.2159275e-41
6.8212688e-39
1.7722588e-36
2.7541076e-34
3.323271e-32
3.3646892e-30
2.9730534e-28
2.3456927e-26
1.6700605e-24
1.0652104e-22
6.0979628e-21
3.6898855e-19
3.8887916e-17
4.6518298e-15
1.7149999e-13
1.9765968e-12
4.1165433e-11
4.3039579e-10
2.7273926e-10
5.2027104e-10
2.2620907e-09
2.1817173e-10
7.0333538e-12
7.7214223e-12
7.6109245e-12
1.3530208e-10
1.9024451e-11
5.4695392e-12
1.6283888e-09
3.2416922e-09
1.5960613e-09
4.5961549e-10
4.1046693e-09
5.7643321e-09
6.5623325e-09
6.7396852e-09
6.8193908e-09
1.5214299e-08
2.5972902e-07
2.5544652e-05
0.00021670877
0.00019566908
5.5447608e-05
3.1386204e-07
8.2833556e-07
3.3002429e-05
5.1488695e-05
2.884375e-05
3.0652348e-09
2.7280766e-08
1.3930374e-07
6.0751285e-08
2.883545e-08
2.4616137e-09
2.3162502e-11
6.3864906e-12
9.1188075e-11
7.8742433e-14
2.2237828e-13
8.250814e-16
9.8140815e-18
1.2241814e-19
1.7110981e-21
2.2749489e-23
2.5754409e-25
2.4781605e-27
2.009274e-29
1.364321e-31
7.6625464e-34
3.7188043e-36
1.3622961e-38
1.7518901e-40
1.4768089e-41
1.3451834e-41
3.0426974e-38
1.2226511e-35
1.2812098e-33
9.7170823e-32
6.014696e-30
3.1315526e-28
1.4000611e-26
5.5083692e-25
1.9026118e-23
5.308036e-22
9.6493148e-21
9.210448e-20
4.0568534e-19
8.4737563e-19
1.0368877e-18
9.9569974e-43
4.5540371e-43
4.1986761e-44
7.7463033e-46
2.085737e-46
1.5101214e-46
8.1021459e-47
3.3281293e-47
3.0868203e-47
1.2583505e-44
4.2489084e-42
8.6914934e-40
1.425945e-37
1.9663657e-35
2.2876809e-33
2.2912322e-31
2.0185216e-29
1.588273e-27
1.1293669e-25
7.271592e-24
4.1799835e-22
2.1609801e-20
1.2037521e-18
1.1360684e-16
8.3821484e-15
1.0512507e-13
1.4214246e-12
6.2472971e-09
5.2950027e-08
3.0795563e-07
9.3684312e-07
1.3908695e-07
1.0330988e-08
7.1205785e-11
1.6125297e-11
7.6276384e-12
4.6940333e-10
7.4040608e-09
9.0059216e-09
8.2378128e-09
6.2043287e-09
1.1687947e-08
1.928317e-08
1.0143801e-08
6.3246739e-09
6.5838415e-09
6.586055e-09
7.5967479e-09
1.8183946e-07
3.7793562e-05
0.00028304717
0.00028632192
0.0001559593
3.9846836e-06
2.8005978e-07
3.3092129e-08
6.919458e-06
2.97669e-05
3.1281404e-06
2.6302583e-09
1.5269697e-09
1.5121285e-08
1.936461e-08
1.008676e-08
2.5043981e-09
4.2727184e-10
8.8066248e-13
8.5849929e-11
2.1976285e-15
2.662444e-14
1.2005005e-16
2.5521054e-18
3.1497642e-20
3.968066e-22
4.6586376e-24
4.8049515e-26
4.372048e-28
3.5378915e-30
2.5170394e-32
1.5351947e-34
8.009643e-37
2.9814384e-39
2.1296517e-40
6.8372691e-41
6.5941378e-39
1.4583351e-35
3.4686194e-33
3.0921816e-31
2.0495034e-29
1.1195628e-27
5.2141325e-26
2.1244584e-24
7.7230517e-23
2.4399093e-21
6.0673457e-20
9.686261e-19
8.3536834e-18
3.5384691e-17
7.9409617e-17
1.1978067e-16
3.1383391e-40
1.4677782e-40
1.4441959e-41
2.3547895e-43
1.8406084e-44
1.3010712e-44
7.012874e-45
2.757109e-45
2.2429365e-45
8.2891341e-44
2.1968526e-41
4.0810429e-39
5.869941e-37
6.5256978e-35
6.6041497e-33
6.1128278e-31
5.0833163e-29
3.8029672e-27
2.5708802e-25
1.5738824e-23
8.7035831e-22
5.0952069e-20
5.7344313e-18
4.1542236e-16
5.3079075e-15
5.8261425e-13
6.084784e-11
8.7436644e-08
1.5345595e-05
5.9370874e-05
6.6099479e-05
8.6391901e-06
5.4780631e-07
2.0740663e-08
5.4654127e-10
8.0090331e-12
8.8379329e-12
3.3494726e-08
2.1564994e-07
2.6226627e-07
2.0204975e-07
1.0606485e-07
2.3615221e-08
6.621384e-09
6.5820761e-09
6.6005615e-09
4.7831819e-09
9.7583311e-08
5.2300662e-05
0.0003071004
0.00030528525
0.00027910344
1.5298905e-05
4.1348547e-09
3.1499822e-07
3.3556967e-08
3.904653e-09
1.0410282e-10
5.7258983e-07
2.8049931e-08
7.9123961e-11
9.4544898e-10
1.9093687e-08
3.1006137e-08
1.6938442e-08
1.1485585e-09
3.7481958e-14
2.7256864e-11
2.0365416e-15
2.7467419e-15
2.8288238e-17
7.880902e-19
1.0265834e-20
1.1687843e-22
1.3420159e-24
1.4049286e-26
1.3147925e-28
1.0803924e-30
7.4429305e-33
4.1074128e-35
1.1094501e-37
3.8176578e-39
4.875982e-40
2.5868309e-38
2.8468753e-36
5.5057359e-33
8.3706507e-31
6.3164496e-29
3.655896e-27
1.7682122e-25
7.3981412e-24
2.7450505e-22
9.1144607e-21
2.5859053e-19
5.6687994e-18
8.0900855e-17
6.2882075e-16
2.283812e-15
4.0140008e-15
4.3783306e-15
8.675935e-38
4.1702939e-38
4.4065436e-39
7.5594799e-41
7.6391426e-43
1.0104973e-42
6.0824295e-43
2.1511482e-43
5.1320388e-44
1.1067486e-43
1.4497332e-41
3.1794491e-39
6.0836598e-37
1.0866665e-34
1.6427655e-32
1.9912123e-30
2.0215439e-28
1.7734652e-26
1.3716713e-24
9.396512e-23
6.1249463e-21
6.7866394e-19
6.282798e-17
6.6842653e-16
8.8092075e-14
9.0312414e-12
1.0702252e-09
7.798063e-06
9.0954723e-05
0.00010186687
0.00010187159
7.1284892e-05
7.7344429e-06
8.9683379e-08
1.2308355e-09
9.9158479e-12
9.3078801e-12
2.9154622e-08
2.7505063e-07
3.3743567e-07
3.375749e-07
3.3753476e-07
1.2051214e-07
6.8501187e-09
6.6216905e-09
6.2150422e-09
2.4704904e-08
6.2484182e-05
0.0003071004
0.0003071004
0.0003071004
4.9383099e-05
3.0513608e-10
4.0277608e-09
7.3664932e-09
5.7592976e-08
2.8900025e-08
6.7112487e-11
2.6822695e-11
4.9960073e-09
5.2672309e-11
4.5670545e-10
1.3773833e-08
2.6604379e-08
1.7517927e-08
6.6744174e-11
5.5219482e-15
1.6177109e-12
2.0174564e-15
3.5656206e-16
6.7093517e-18
1.8857647e-19
1.6832451e-21
2.36799e-23
3.6877283e-25
4.1322019e-27
3.8976456e-29
2.9587994e-31
1.6938922e-33
5.1962509e-36
1.2726907e-37
5.2433585e-39
1.1824606e-37
9.6298371e-36
9.8503307e-34
1.5561585e-30
1.6674058e-28
1.0692395e-26
5.4135021e-25
2.3232754e-23
8.7500464e-22
2.9583765e-20
8.9613403e-19
2.2728671e-17
4.2173273e-16
4.9860453e-15
3.1492912e-14
8.1607426e-14
8.616158e-14
2.7548632e-14
2.113396e-35
1.0497163e-35
1.1980181e-36
2.2084451e-38
7.2671221e-41
1.2119131e-40
5.0612754e-41
1.6741004e-41
4.2367144e-42
2.8146357e-42
9.4951331e-41
3.0721497e-38
5.8197593e-36
8.4422952e-34
1.036199e-31
1.0734243e-29
9.617706e-28
7.6091871e-26
5.4040182e-24
3.4463767e-22
2.3609325e-20
2.6499932e-18
1.793742e-16
1.8358711e-15
2.2949628e-13
2.0796529e-11
6.9702321e-09
1.9959411e-05
0.00010184591
0.00010188914
0.00010184591
9.2480439e-05
1.1675118e-05
7.421903e-08
8.0649474e-10
6.1254361e-11
2.4087373e-11
2.7855361e-11
4.6512048e-11
1.1083317e-07
3.1562379e-07
3.1504581e-07
8.3875366e-08
1.0285061e-08
6.7526407e-09
1.1325217e-08
5.2284213e-05
0.00030677124
0.00030693582
0.0003071004
0.00026744407
6.5443209e-06
1.6621128e-10
8.8887837e-09
1.61091e-08
5.9278994e-09
7.360828e-11
6.8120219e-10
2.6136402e-11
1.1433003e-11
4.3818964e-11
6.5676381e-10
2.4706045e-09
3.355728e-09
3.3055316e-09
5.5219536e-15
3.9579371e-15
3.281463e-14
1.195372e-15
4.3773462e-17
1.1664745e-18
1.8827657e-20
2.6210023e-23
9.2147607e-24
7.7140502e-26
8.2540659e-28
6.9937106e-30
4.213797e-32
1.9249109e-34
3.3293092e-36
1.3323426e-37
5.1445709e-37
3.9017678e-35
2.7871689e-33
3.3070433e-31
3.2856865e-28
2.6622714e-26
1.4581119e-24
6.4522994e-23
2.4547544e-21
8.3685515e-20
2.6077589e-18
7.1365935e-17
1.5125841e-15
2.1155991e-14
1.7523014e-13
8.9428699e-13
2.8840618e-12
4.2729569e-12
5.393844e-13
4.5546177e-33
2.3507704e-33
2.9173962e-34
5.7956488e-36
2.1896916e-38
5.5632743e-39
3.3383014e-39
1.3370973e-39
3.0776271e-40
1.067963e-40
2.5369649e-39
1.2657736e-37
1.6145478e-35
2.2713378e-33
2.7139926e-31
2.7670754e-29
2.4195438e-27
1.7901446e-25
1.0698136e-23
6.2579891e-22
2.6361451e-20
3.8951771e-19
9.084815e-17
2.014244e-14
3.3692802e-12
1.0556402e-09
2.3787148e-06
4.5357225e-06
3.9035282e-05
9.8037047e-05
8.963477e-05
5.168159e-06
4.9467956e-06
3.500326e-08
2.7990015e-09
4.9599683e-10
2.9787356e-10
4.6512048e-11
1.9053058e-10
7.1799079e-09
1.4662725e-08
6.8470379e-08
6.0496821e-08
1.2455066e-08
1.1401438e-08
2.2150309e-05
0.00030471199
0.00030603823
0.00030677124
0.00028725329
1.5362521e-05
4.7387947e-11
1.4923904e-10
1.6950137e-09
2.8969479e-09
4.1328661e-11
7.0400952e-11
8.5336937e-11
1.6516045e-11
1.1323582e-11
2.1248238e-11
5.5655644e-11
1.2877881e-11
4.0507445e-12
2.3164018e-13
3.9579371e-15
3.9059335e-15
2.2582411e-15
3.2921325e-16
6.8683067e-18
9.5338276e-20
1.1412747e-23
-2.5825273e-21
1.026423e-23
1.0552973e-26
1.6596687e-28
1.8888493e-30
1.9884099e-32
1.7853219e-34
3.4418368e-36
2.1116097e-36
1.4426471e-34
9.6281298e-33
6.4393234e-31
2.5868892e-28
5.1711059e-26
3.3241064e-24
1.5570215e-22
5.9967845e-21
2.0248996e-19
6.2660244e-18
1.71536e-16
3.6094386e-15
5.2850834e-14
5.9677498e-13
6.7758002e-12
4.9996927e-11
2.2082827e-10
3.8495745e-10
3.764306e-11
8.7158369e-31
4.7033684e-31
6.3874402e-32
1.3753211e-33
5.6871593e-36
1.7965908e-38
1.9770366e-37
1.0297738e-37
2.3367805e-38
1.1902045e-38
9.1414419e-38