/*--------------------------------*- C++ -*----------------------------------*\
  =========                 |
  \\      /  F ield         | OpenFOAM: The Open Source CFD Toolbox
   \\    /   O peration     | Website:  https://openfoam.org
    \\  /    A nd           | Version:  9
     \\/     M anipulation  |
\*---------------------------------------------------------------------------*/
FoamFile
{
    format      ascii;
    class       volScalarField;
    location    "0.99";
    object      p;
}
// * * * * * * * * * * * * * * * * * * * * * * * * * * * * * * * * * * * * * //

dimensions      [1 -1 -2 0 0 0 0];

internalField   nonuniform List<scalar> 
10000
(
0
0.00044396981
0.00039179963
0.0015876246
0.0035527206
0.0064054739
0.010213752
0.015126212
0.021308336
0.02889546
0.03811494
0.049146592
0.062217887
0.077566214
0.095371159
0.11586298
0.13926684
0.16576078
0.19555099
0.22882035
0.26571313
0.30642072
0.35114846
0.4000996
0.45357902
0.51194765
0.57546698
0.64424588
0.71857794
0.7988822
0.88558171
0.97906925
1.0796165
1.1871098
1.3005766
1.4177219
1.5342107
1.6400223
1.7199847
1.7630017
1.7188854
1.4499896
0.92324974
0.33658241
0.20687118
0.56198355
1.0509624
2.4326696
4.0129144
5.8054188
7.2975525
8.4420592
9.2213581
9.5779451
9.5263447
9.0116694
8.3761096
7.7705893
7.2526171
7.0392269
6.5387213
7.4300175
7.8282499
7.6189477
7.4307329
7.2327142
7.138321
7.060264
7.0304625
7.0183875
7.0099728
7.0006275
6.9834644
6.9550813
6.9156068
6.8660758
6.8078184
6.7424174
6.6714643
6.5965166
6.5190203
6.4402356
6.3613228
6.2833135
6.2071787
6.1337105
6.0635621
5.9971804
5.9349916
5.8773017
5.8242977
5.776066
5.7326064
5.693918
5.6600292
5.6309598
5.6066894
5.5880477
5.5727796
5.5625159
-0.0021005406
-0.0013304441
-0.0013368874
-0.00018482941
0.0016823235
0.0043903798
0.0080007239
0.012710561
0.018621712
0.025964852
0.034914414
0.045686499
0.058533281
0.073635596
0.091218495
0.11151288
0.13470788
0.1610217
0.19063554
0.22368108
0.26032075
0.30071351
0.34495775
0.3931655
0.44551635
0.50212769
0.56299597
0.62807992
0.69734409
0.77066467
0.84778958
0.92827848
1.0112671
1.095106
1.1769004
1.2518888
1.3124822
1.3458042
1.3325242
1.2437478
1.0001274
0.46718841
-0.31205282
-0.67877289
-0.9793266
-0.7045153
0.10189474
1.4866087
3.2053291
4.987416
6.577935
7.8494858
8.6356081
9.0286695
8.9899779
8.5609795
7.8814887
7.2150661
6.6606314
7.2089378
7.2426697
6.8262134
6.4307604
6.7037263
6.5543065
6.5417354
6.726862
6.6696197
6.7739226
6.8278989
6.8579043
6.8692847
6.8641854
6.8451589
6.8137871
6.7715482
6.7200649
6.6610439
6.5961414
6.5269563
6.4549809
6.3814992
6.3076848
6.234584
6.1630983
6.0939698
6.0278271
5.9651374
5.9062649
5.8515125
5.8010839
5.7550979
5.7136803
5.6769347
5.6448636
5.6174398
5.5948221
5.5772369
5.5630698
5.5540615
-0.0042070431
-0.0033572679
-0.0034342925
-0.0024114793
-0.00076891164
0.001622834
0.0048878862
0.0091610172
0.014642163
0.021509481
0.029973144
0.040293922
0.052668838
0.067327131
0.084508917
0.10441239
0.1272652
0.15327958
0.18259787
0.21537196
0.25175625
0.29182887
0.33564057
0.38326339
0.43472618
0.48995843
0.5488159
0.61109211
0.67643911
0.74431576
0.81396068
0.88422326
0.95323513
1.0180311
1.0740404
1.1142401
1.1278522
1.0983864
1.0028132
0.80646286
0.4294473
-0.23865037
-1.0114835
-1.4131496
-2.062874
-1.8760292
-1.1859764
0.12128325
1.8611734
3.6663653
5.3411659
6.697854
7.6374478
8.1232005
8.1110584
7.6340667
6.8011398
5.9612532
5.3349342
4.4011775
5.4126278
5.1034429
5.5990958
5.2654445
5.3362122
5.76257
6.1844368
6.4009089
6.6067041
6.6931577
6.734443
6.7526547
6.754324
6.7426316
6.7186498
6.6836998
6.639326
6.5870742
6.5285154
6.4652123
6.3986439
6.3301604
6.2609498
6.1921004
6.124487
6.0588888
5.9959284
5.9361148
5.8798373
5.8274164
5.7791251
5.7351778
5.6956102
5.6604635
5.62982
5.6036479
5.5821775
5.5654366
5.5519564
5.5437677
-0.0067652837
-0.005890415
-0.0061184351
-0.0053321507
-0.004059649
-0.0021072104
0.00059157656
0.0042684308
0.0090847678
0.015240947
0.023001321
0.032588944
0.044241757
0.058220745
0.074743767
0.094040475
0.11634836
0.14184246
0.17068306
0.2030377
0.23899402
0.27858127
0.32184453
0.36877597
0.41924263
0.47303655
0.52987483
0.5893219
0.6507257
0.71320414
0.77555341
0.83600534
0.89190658
0.93934529
0.97257958
0.98306593
0.95800629
0.87907511
0.72187166
0.45264826
-0.0053936332
-0.78387781
-1.7024494
-2.2827951
-3.1935339
-3.2030757
-2.680769
-1.5399126
0.085491353
1.8198939
3.6265701
5.1419266
6.3820072
7.0440992
7.0493326
6.4597537
5.4235614
4.8079392
3.5261938
3.0609515
2.7419366
2.5373291
3.7362645
4.4880908
4.1451227
4.8460463
5.6388862
6.2113185
6.4945574
6.5972007
6.6391653
6.658558
6.6634846
6.6561006
6.6365374
6.605842
6.5655895
6.5173172
6.4625914
6.403024
6.3401024
6.2751857
6.209462
6.144016
6.0797302
6.0173351
5.9574259
5.9004882
5.8469366
5.7970823
5.7511482
5.7093274
5.6717108
5.6383263
5.6092464
5.584497
5.5642787
5.5484499
5.5357908
5.5283851
-0.0096728123
-0.0087510441
-0.0092126913
-0.0087800065
-0.0079710291
-0.0066401094
-0.0046365536
-0.0017518807
0.0021894023
0.0074478688
0.014257604
0.022871237
0.033576512
0.046618312
0.062247389
0.080723367
0.10225617
0.12704083
0.15528418
0.18711129
0.22255815
0.26165998
0.30442686
0.35073259
0.40031774
0.45285242
0.50787511
0.5646935
0.62237281
0.6796967
0.73499815
0.785926
0.82916045
0.86000032
0.87174633
0.85472601
0.79418116
0.67052747
0.45775388
0.12152073
-0.40602588
-1.2660691
-2.3713053
-3.1209875
-4.2507962
-4.5759514
-4.3748022
-3.5632925
-2.2085846
-0.31334285
2.3372852
4.818406
5.7815139
5.9603501
5.9336975
5.2022973
3.8213253
2.8012036
1.3290579
0.062921927
-0.24702198
-0.053901126
-0.51788586
1.7647378
2.6690994
3.9308223
5.2169976
6.0100833
6.3404487
6.4625743
6.5184209
6.5468514
6.5592143
6.558174
6.5437035
6.5172354
6.4808112
6.4362611
6.3852895
6.3295379
6.2705254
6.2096002
6.147923
6.0864847
6.0261114
5.967477
5.9111707
5.857657
5.8072913
5.760383
5.7171393
5.6777718
5.6423518
5.6109669
5.583669
5.5604902
5.541626
5.5268613
5.5151656
5.5085967
-0.012629407
-0.011808316
-0.012637067
-0.012644457
-0.012474093
-0.011888327
-0.010768221
-0.0088882117
-0.0060132363
-0.0019065913
0.0036934479
0.011094238
0.020575798
0.032417728
0.046912528
0.064312962
0.084852326
0.10878368
0.13630562
0.16750595
0.20243294
0.24112443
0.28351238
0.32938502
0.37841262
0.43012675
0.48387062
0.53872861
0.59351396
0.64668325
0.69613799
0.73906185
0.77163489
0.7885416
0.78241739
0.74345927
0.65339593
0.49261482
0.23294516
-0.16224908
-0.75117876
-1.6578401
-2.9413511
-4.198227
-5.283464
-6.0026462
-6.365381
-6.1388446
-5.0991548
-2.4346717
1.8140704
3.7553913
4.884295
4.5346864
4.5411973
3.7734037
1.7418796
0.47878443
-1.151991
-2.4723272
-3.7713514
-3.7965843
-3.2907365
-2.1726401
2.1208461
2.3451454
4.3876882
5.4924832
5.9928081
6.2293037
6.3441378
6.4018393
6.4320415
6.4424469
6.4356302
6.4149636
6.3834773
6.3435053
6.2970303
6.245818
6.1914228
6.1351627
6.0781111
6.0211883
5.9651871
5.9107316
5.8583494
5.808513
5.7615788
5.7178488
5.6775058
5.6408055
5.6077927
5.5785977
5.5532501
5.5318308
5.5144743
5.500912
5.4902937
5.4848242
-0.015560767
-0.014922504
-0.016188198
-0.016801384
-0.017383034
-0.017726923
-0.017705275
-0.017028351
-0.015484221
-0.012810357
-0.0086860618
-0.0028001382
0.0051603011
0.015528057
0.028599262
0.044655292
0.064007731
0.086927682
0.11358346
0.14409021
0.17853657
0.21692298
0.25911097
0.30485545
0.35377258
0.40524799
0.45843602
0.51224721
0.56523647
0.6155564
0.66077726
0.69774247
0.72234873
0.72890125
0.70932925
0.65881849
0.54694871
0.36153036
0.07135316
-0.36247643
-0.99627884
-1.9325657
-3.2565967
-4.7917171
-6.2075521
-7.4421037
-8.7263861
-9.428568
-8.9342929
-6.7749539
-2.2412378
0.33080001
2.7018567
3.9056124
2.004704
0.7271748
-0.47611256
-2.3402329
-4.3600513
-5.9807357
-7.1530574
-7.2723933
-6.5920282
-4.9839559
1.1237292
1.2845061
3.414564
4.8009735
5.5353438
5.9303273
6.1287123
6.2315473
6.2881497
6.3138876
6.3167213
6.3030364
6.2772088
6.242317
6.2007431
6.1544269
6.1049214
6.053517
6.0012648
5.9490332
5.8975495
5.847408
5.7991441
5.7531737
5.7098696
5.669523
5.6323237
5.5984802
5.5681133
5.5413039
5.5181257
5.4986649
5.4829755
5.4707739
5.4613647
5.4572785
-0.018237346
-0.017832536
-0.019689259
-0.020993828
-0.022501075
-0.023981009
-0.02525592
-0.026054201
-0.026139559
-0.02518584
-0.022861811
-0.018821575
-0.01269161
-0.0041276112
0.0071989315
0.021658105
0.039606183
0.061304124
0.086952843
0.11673203
0.15073912
0.18893939
0.23118891
0.27723519
0.32661423
0.37858453
0.43214329
0.48604502
0.53855526
0.58751613
0.63032472
0.66372871
0.68344206
0.68450201
0.65889873
0.59609409
0.47710565
0.28174688
-0.020331642
-0.4688997
-1.1169872
-2.0519586
-3.3813694
-5.0673856
-6.8931605
-8.8140077
-11.162745
-12.984068
-13.304906
-11.834701
-8.5662262
-4.6393504
-0.59291519
2.033366
2.7026732
0.67632455
-2.6432287
-3.919229
-6.4332661
-8.6258395
-9.8902505
-9.9813745
-8.9488278
-6.9147726
-1.3406536
0.88689269
2.4270704
4.1223495
5.0897224
5.6278857
5.9031553
6.0518081
6.1353217
6.1766276
6.1894471
6.1829876
6.1630111
6.1333795
6.096854
6.0555122
6.0109622
5.964514
5.9171711
5.8697585
5.8229467
5.7773081
5.7333825
5.691559
5.6520982
5.6153989
5.5815889
5.5508664
5.5233597
5.4991746
5.4783726
5.4610458
5.4472284
5.4365598
5.4285334
5.4260194
-0.020351425
-0.02032952
-0.022859076
-0.024994088
-0.027615164
-0.030419345
-0.033260841
-0.035840031
-0.037860415
-0.038973909
-0.038810932
-0.036961742
-0.03303431
-0.026652417
-0.017392316
-0.0048170421
0.011438249
0.031677202
0.05618772
0.085189004
0.11877421
0.15693206
0.19956002
0.24638739
0.29689348
0.35026222
0.40534971
0.46064459
0.51417402
0.56345984
0.60530792
0.63710693
0.65491969
0.65380697
0.62662603
0.56271154
0.44610926
0.25566
-0.038283328
-0.4753076
-1.1065691
-2.0117112
-3.3121305
-5.0784763
-7.2486953
-9.7875282
-12.904865
-15.845516
-16.878141
-15.905265
-12.894186
-8.6758518
-4.3203182
-1.6071175
-1.5406788
-1.73111
-4.4798392
-6.1863642
-9.0431341
-10.450979
-11.563498
-11.444947
-9.9997656
-7.4606435
-2.8077695
2.5650858
1.6671507
3.5841742
4.7315503
5.3644344
5.6926701
5.8753878
5.979244
6.0331761
6.0547436
6.0549898
6.0406977
6.0162967
5.9848378
5.9485644
5.9091252
5.8678018
5.825548
5.7831755
5.7412771
5.7004419
5.6610726
5.6236215
5.5883603
5.5555206
5.5253221
5.4979819
5.4735832
5.4522249
5.4340145
5.4190256
5.4072889
5.398334
5.3919203
5.3910911
-0.021545699
-0.022175328
-0.025440179
-0.028545628
-0.032450947
-0.036840952
-0.041553861
-0.046222314
-0.050534074
-0.054099386
-0.056476121
-0.057233694
-0.055947747
-0.052142706
-0.045313712
-0.035000529
-0.020784209
-0.00225136
0.020951934
0.049065557
0.082225051
0.12049692
0.16382727
0.21194174
0.26431023
0.32010752
0.37808943
0.43630827
0.49224935
0.5437228
0.58644683
0.61801012
0.63560453
0.63549155
0.61179529
0.55522991
0.45169221
0.28138089
0.016560558
-0.38045568
-0.9588267
-1.7920481
-3.0028929
-4.7361518
-7.0476473
-9.913788
-13.408678
-16.807051
-18.522027
-18.187434
-15.369635
-10.951498
-5.8582339
-2.2605459
-1.1940275
-1.6831405
-3.1009247
-4.6571987
-8.7688606
-10.351063
-11.482177
-11.18409
-9.5421854
-8.0221144
-2.5445391
1.5749514
2.1951929
3.4609555
4.5586435
5.1755562
5.5140761
5.710433
5.8243967
5.8860591
5.9139928
5.9197979
5.9106442
5.8912429
5.8648022
5.8336456
5.7994548
5.763423
5.7264808
5.6893613
5.6526037
5.6167603
5.582245
5.5494033
5.5185216
5.4898061
5.463489
5.4397475
5.4186949
5.4004224
5.3850388
5.3726283
5.3631708
5.3561263
5.3515971
5.3526159
-0.021776505
-0.022851518
-0.027072747
-0.031308094
-0.036761733
-0.043020244
-0.049906191
-0.057026067
-0.064021009
-0.070435146
-0.075802453
-0.079659037
-0.081481491
-0.080700795
-0.076774872
-0.069179522
-0.057376769
-0.040858211
-0.0192183
0.007837772
0.040547161
0.079061666
0.12337344
0.17328049
0.22832441
0.28769134
0.34997561
0.41306151
0.47362106
0.52885955
0.57313714
0.60494084
0.62297114
0.62586102
0.60970093
0.56718669
0.48648176
0.35039647
0.13475734
-0.19368497
-0.67883834
-1.3844398
-2.4189679
-3.9521827
-6.1045217
-8.8663459
-12.308018
-15.717174
-17.809306
-17.819434
-15.470218
-11.126418
-5.6945215
-1.804671
-0.83775225
-1.5862068
-2.7212603
-4.4561014
-6.9319051
-8.7638225
-9.8721285
-9.4133168
-7.6975831
-5.8601541
-1.90861
1.567527
2.2636381
3.5342184
4.5027161
5.0496274
5.3686204
5.5606592
5.6740308
5.7377931
5.7690683
5.7787653
5.7739035
5.7590223
5.7372056
5.7111144
5.6822376
5.6515725
5.62007
5.5883214
5.5568948
5.526252
5.4967707
5.4687713
5.4425123
5.4181765
5.3959669
5.3760617
5.3586022
5.3436537
5.3313311
5.3217753
5.3148177
5.3099343
5.3075893
5.3109132
-0.020617581
-0.022094552
-0.027477736
-0.032978314
-0.040248668
-0.048656861
-0.058064732
-0.06802655
-0.078109405
-0.087841762
-0.096733437
-0.10421495
-0.10966748
-0.11247722
-0.11202368
-0.10765302
-0.098708433
-0.084618366
-0.064899047
-0.039131156
-0.006966032
0.031827043
0.077347477
0.1295193
0.1880206
0.25208405
0.32015843
0.39042091
0.45775997
0.51824146
0.56497527
0.59564959
0.61266068
0.61897487
0.61261272
0.58878217
0.5382323
0.44733671
0.29691467
0.060958036
-0.2941955
-0.81630333
-1.5880935
-2.7624197
-4.4791586
-6.7925103
-9.715238
-12.719973
-14.777063
-15.011606
-12.988696
-8.9599004
-3.6105078
0.15097172
0.99189045
-0.31342369
-2.3979319
-4.3256011
-5.753864
-6.2287269
-6.5930017
-6.9304265
-5.0215629
-3.3046373
-0.4405549
2.1042291
2.4805629
3.6984228
4.5039408
4.9709131
5.2538308
5.4282094
5.529657
5.5904131
5.6218619
5.6334152
5.6315801
5.6206046
5.6024315
5.5812899
5.5576802
5.5323521
5.5063089
5.4800497
5.4540736
5.4287986
5.4045536
5.3816211
5.3601882
5.3404575
5.3226086
5.3067934
5.2931467
5.2817346
5.2727162
5.2662645
5.2620199
5.2595378
5.2597134
5.2657204
-0.017676081
-0.020025526
-0.025783971
-0.033112258
-0.042518404
-0.053411452
-0.065719483
-0.078914261
-0.092563695
-0.10616921
-0.11915255
-0.13084793
-0.14057874
-0.14765386
-0.15130593
-0.15075251
-0.14524784
-0.13411749
-0.11675374
-0.092599723
-0.061201003
-0.022215942
0.024600319
0.07936262
0.14191767
0.21178229
0.2879872
0.36806099
0.44579272
0.51504751
0.56242696
0.58740889
0.60029332
0.60746193
0.61068266
0.60768981
0.59112337
0.55129036
0.47515055
0.34595528
0.14459635
-0.1548763
-0.60453229
-1.3163732
-2.4008196
-3.9579613
-6.0134916
-8.2466951
-9.8411392
-10.091802
-8.5909957
-4.8947888
-0.23186188
3.0705714
3.5949025
1.7632124
-1.5830768
-4.0340367
-5.9926299
-4.8533797
-4.7746757
-2.1561697
-1.9545225
-0.95362779
0.82572873
1.9947958
3.0732471
3.9793576
4.5686278
4.9336323
5.1670761
5.3182321
5.3893351
5.4453986
5.4738681
5.4848641
5.4846142
5.4774323
5.4599256
5.444365
5.4258605
5.4058369
5.3851848
5.3644298
5.3440017
5.3242498
5.3054168
5.2877315
5.2713562
5.2564558
5.2431701
5.2316678
5.2220487
5.2143755
5.2089051
5.2058099
5.2046169
5.2046105
5.2076336
5.2166579
-0.012250681
-0.015441544
-0.022259383
-0.031415036
-0.043205165
-0.056874041
-0.072449473
-0.089350676
-0.10712604
-0.12519554
-0.14289542
-0.15951854
-0.17430124
-0.18639012
-0.19488297
-0.19889185
-0.19755224
-0.19002653
-0.17555624
-0.15347948
-0.12322373
-0.084311851
-0.036363836
0.020916095
0.087695829
0.16389023
0.24936822
0.34351956
0.43907516
0.51701824
0.56492216
0.5738245
0.57545981
0.58181053
0.5946247
0.6106961
0.6271304
0.63745966
0.6359146
0.61463687
0.57131022
0.50639427
0.4020984
0.19917298
-0.16683428
-0.79333465
-1.7520595
-2.8595773
-3.818544
-3.955133
-2.7880348
-0.50698446
2.8908777
7.5135558
6.5971405
4.9330944
0.035326995
-2.21174
-4.4655327
-3.3647322
-2.8875336
0.49735545
0.62356221
1.0307504
1.7242095
2.8367654
3.6792887
4.2972937
4.6792172
4.9336396
5.101423
5.2086305
5.2693873
5.3066514
5.326354
5.3337189
5.3326392
5.3257855
5.3141368
5.3012858
5.2870338
5.271942
5.2565962
5.2413478
5.2265396
5.2124011
5.1991308
5.1868715
5.1757303
5.1658483
5.1573191
5.1502992
5.1448768
5.1411348
5.1394201
5.1398635
5.1418088
5.144604
5.1509048
5.1633136
-0.0038620942
-0.0079940502
-0.01619159
-0.027415605
-0.041729997
-0.058509403
-0.077821744
-0.098963356
-0.12144391
-0.1446232
-0.16779761
-0.19018463
-0.21086691
-0.22883843
-0.24307557
-0.25256032
-0.25624094
-0.25309531
-0.24221904
-0.22283146
-0.19425194
-0.15588062
-0.10726619
-0.047979244
0.02253905
0.10468791
0.19929441
0.3106957
0.43537576
0.53195598
0.57972182
0.54714205
0.52848459
0.5309819
0.5504898
0.58423586
0.63050776
0.68512755
0.74363242
0.81289685
0.9091972
1.0649124
1.2945034
1.5917643
1.9372235
2.2921105
2.5592527
2.4997755
2.3124889
2.3336913
2.5850194
2.8976064
5.5101643
10.140236
6.8707455
6.3471551
3.2522201
1.5686243
-0.45618007
-1.0637957
-0.21514445
-0.26662603
0.81570754
1.4552741
2.7727333
3.6628
4.2123321
4.5806922
4.8007898
4.9522991
5.0514806
5.1134061
5.1490022
5.1685342
5.1775924
5.1794151
5.1762518
5.1697285
5.1608999
5.1511876
5.1409564
5.1305781
5.1204001
5.1105926
5.1014039
5.0929571
5.0853467
5.07867
5.0729494
5.0682619
5.064659
5.0622579
5.0611415
5.0614481
5.063613
5.0677845
5.0729418
5.0788158
5.0889553
5.1051609
0.0080075074
0.0028500293
-0.0069097595
-0.020354198
-0.03753087
-0.057878499
-0.081372764
-0.10727319
-0.13508601
-0.16413186
-0.19365017
-0.22271543
-0.25027251
-0.27517468
-0.29625206
-0.31227346
-0.32198187
-0.32417856
-0.31777686
-0.30184853
-0.27562689
-0.23846127
-0.18992318
-0.12966262
-0.056920384
0.028562085
0.12719239
0.25521418
0.43247505
0.55967362
0.59864995
0.49325567
0.4494176
0.44913425
0.47115557
0.51384206
0.57703731
0.65475381
0.74815922
0.87833598
1.0888615
1.4300708
1.9567549
2.70787
3.6909216
4.9227346
6.1585106
7.1037063
7.6146511
7.7166917
7.0884183
10.953252
15.372878
6.3939186
7.9367724
8.3481471
5.8865218
6.1362327
3.2586057
2.3943628
2.3803756
2.1879463
2.6036017
3.3344307
4.0427951
4.4616846
4.7011654
4.8401609
4.9205655
4.9746711
5.0058819
5.0217902
5.028125
5.0286861
5.0259272
5.021064
5.0149306
5.008106
5.0009692
4.9940341
4.987494
4.9815485
4.9763151
4.9718429
4.9682442
4.965532
4.9636828
4.96272
4.962571
4.9632301
4.9646922
4.9670019
4.9702424
4.9746044
4.9806366
4.9884444
4.9969192
5.0062462
5.0210174
5.0415871
0.02393161
0.017682525
0.0062346932
-0.0096751212
-0.029992392
-0.05430452
-0.082414907
-0.11368592
-0.14756761
-0.18333527
-0.22011533
-0.25687583
-0.29246784
-0.32555994
-0.3547504
-0.37856622
-0.3955338
-0.40424684
-0.40340676
-0.39185757
-0.36877849
-0.33360524
-0.28613126
-0.22653237
-0.15426435
-0.070476263
0.017580524
0.13030053
0.37462259
0.55569587
0.53180399
0.34283936
0.30761104
0.32989896
0.35245334
0.39263436
0.45628624
0.53110968
0.62154191
0.76782931
1.040165
1.5288509
2.3169169
3.4561221
4.9960604
6.8551807
8.866415
10.539964
11.60739
12.019472
14.938865
18.956653
8.9497057
8.0414326
9.3123521
9.2421551
7.9204742
8.0065373
5.9325161
5.5218572
5.1902928
4.8313904
4.8055865
4.9684731
5.1101984
5.1370087
5.1116001
5.0653913
5.0217481
4.9850549
4.9523874
4.9248041
4.9022061
4.883867
4.8692567
4.8574555
4.8479313
4.8402854
4.83422
4.8296235
4.8263849
4.8245293
4.82399
4.8246702
4.8265986
4.8296459
4.8336611
4.8385198
4.844064
4.8501816
4.8568062
4.8638779
4.8714284
4.879716
4.8894262
4.9005593
4.9121256
4.9254238
4.9460942
4.9720804
0.044531663
0.037208853
0.023961966
0.0053824894
-0.018414695
-0.04705349
-0.080288058
-0.11755502
-0.15828039
-0.20164398
-0.2467081
-0.29236354
-0.3373646
-0.38010076
-0.41887148
-0.45200258
-0.47777276
-0.49442538
-0.50040481
-0.49434607
-0.47530473
-0.44282317
-0.39703442
-0.33922485
-0.27059902
-0.19747513
-0.16220504
-0.21450107
0.43668479
2.2985467
2.7530318
0.35610084
0.14518583
0.18808101
0.20340026
0.22914289
0.27270104
0.31200457
0.36797428
0.47500558
0.74666702
1.3194442
2.2792782
3.6830331
5.5776066
7.8987975
10.42501
12.591249
14.216402
16.578835
17.564867
15.302154
11.317869
11.211541
11.328257
10.976066
10.167666
9.483163
8.7543923
8.1433327
7.5727176
6.9809493
6.5141105
6.1811176
5.9055908
5.6487058
5.420635
5.2301039
5.0809277
4.9659986
4.8783159
4.813025
4.7650798
4.7301492
4.7050239
4.6870327
4.6743536
4.6657211
4.6603071
4.6576065
4.6572431
4.6590675
4.6629021
4.6685448
4.6758712
4.6846354
4.6945882
4.7054076
4.7168004
4.7285075
4.7403445
4.752138
4.7638448
4.775821
4.7887184
4.8022887
4.8162224
4.8341876
4.8629673
4.8960876
0.070539992
0.062176371
0.0469935
0.025578058
-0.0019514485
-0.035284237
-0.074171783
-0.11809512
-0.16641289
-0.21833473
-0.27283482
-0.32869472
-0.38481714
-0.43879731
-0.48890821
-0.53322313
-0.56963583
-0.59597925
-0.61030809
-0.61102146
-0.59701472
-0.56782841
-0.52381325
-0.46716397
-0.40281139
-0.33549632
-0.2946893
-0.241977
4.0609542
5.304791
5.3363309
3.1633076
0.2367749
0.08022166
0.0504901
0.056968638
0.058462946
0.017316581
-0.022188187
-0.006617341
0.20587476
0.78547145
1.8186746
3.3507368
5.4459025
8.046739
10.944843
13.494113
15.748198
17.305352
18.061832
15.490926
14.104137
13.675076
13.334376
12.934894
12.366086
11.742066
11.02165
10.264387
9.4352943
8.5814023
7.773024
7.076945
6.4965916
6.0159981
5.6249005
5.3157774
5.0794992
4.9021647
4.7717767
4.6777401
4.6108173
4.5636787
4.5308773
4.5083085
4.4932155
4.4837486
4.4787372
4.477489
4.4795088
4.4845553
4.4923492
4.502673
4.5152476
4.5297013
4.545629
4.5625593
4.5800133
4.597507
4.6146444
4.6310579
4.6466498
4.6619182
4.6771384
4.69147
4.706025
4.7290157
4.7691484
4.8120381
0.10272324
0.093355225
0.076182327
0.051823892
0.020333375
-0.018046122
-0.063084964
-0.11429365
-0.17106482
-0.23258889
-0.2977501
-0.36500803
-0.43452619
-0.50163327
-0.56513671
-0.62281973
-0.67220472
-0.71040156
-0.73497194
-0.74396785
-0.73596617
-0.71034122
-0.66695177
-0.60583916
-0.53196628
-0.44133748
-0.30384002
0.10533723
4.9771171
5.3602795
5.1424242
4.6764071
0.26611943
-0.10858445
-0.13633471
-0.098728778
-0.13951096
-0.31488264
-0.52325556
-0.68004351
-0.6345303
-0.15684608
0.89635222
2.4696027
4.7815012
8.0356498
11.455951
14.623653
16.204124
17.38451
17.904913
16.162588
15.882607
15.625776
15.365087
14.994878
14.46761
13.802505
12.980383
12.005694
10.940152
9.806627
8.7042954
7.72229
6.8994784
6.2330455
5.7066648
5.302161
5.0002014
4.7798282
4.6223744
4.5116707
4.4346682
4.38148
4.3449904
4.3201845
4.3038351
4.2938464
4.2890281
4.2887028
4.2924753
4.3001201
4.3113836
4.326004
4.3436237
4.3637638
4.3857952
4.4090399
4.4328109
4.456372
4.4789999
4.4999545
4.5190834
4.5371568
4.55387
4.5666452
4.5774416
4.60373
4.662025
4.72221
0.141903
0.13165681
0.11251285
0.085120586
0.049481951
0.0057701412
-0.045833416
-0.10494545
-0.17103656
-0.24333888
-0.32074151
-0.40183769
-0.4851625
-0.56792672
-0.64764243
-0.72121044
-0.78674679
-0.83942028
-0.87662894
-0.895896
-0.89529304
-0.87414369
-0.8316627
-0.76691977
-0.69428829
-0.60432987
-0.40224481
-0.55090118
0.71732615
4.3813586
3.5512267
0.40481513
0.039988289
-0.38621775
-0.35010942
-0.21051292
-0.27767479
-0.64106221
-1.1275738
-1.5940301
-1.8783274
-1.6665338
-0.66169968
1.111994
3.9134766
8.5839836
13.828965
16.41921
17.227414
17.693751
15.80095
16.407018
16.988461
17.389347
17.476331
17.201049
16.624083
15.832448
14.8525
13.664565
12.2855
10.819225
9.4009284
8.1431978
7.0991355
6.2711785
5.636623
5.1651757
4.8252956
4.5863417
4.4216501
4.3095891
4.2336573
4.1820541
4.14671
4.1224003
4.1060032
4.0957003
4.0906693
4.0905546
4.0952391
4.1046633
4.1187375
4.1371828
4.1595975
4.1853937
4.2137126
4.2436038
4.2741121
4.3042208
4.3327266
4.358254
4.3805334
4.4010943
4.4189862
4.4261602
4.4211172
4.443588
4.5365127
4.6297273
0.18903431
0.17809817
0.15701697
0.12656244
0.086689316
0.037461255
-0.021072199
-0.088678371
-0.16491807
-0.24909429
-0.34015079
-0.43665168
-0.53672153
-0.63774915
-0.73670259
-0.83012517
-0.91440935
-0.98498378
-1.0376795
-1.0701404
-1.0788163
-1.0637925
-1.0246497
-0.96574504
-0.90605274
-0.80240161
-0.24538021
-0.61523016
-0.39514556
-0.15069258
0.23587869
0.31377783
-0.27029123
-0.53610423
-0.42795743
-0.18940602
-0.34631671
-1.0355527
-2.1653443
-3.4005808
-4.2898173
-4.5779339
-3.7599534
-1.5834833
2.2507362
16.639109
17.469821
18.508769
17.701624
16.711795
16.713852
17.496218
18.528858
19.51762
19.974697
19.718645
18.953161
17.941983
16.783799
15.367566
13.613722
11.699581
9.8771147
8.3087162
7.0489795
6.0860528
5.3794163
4.8797272
4.5383991
4.3118699
4.1645789
4.0695571
4.0076212
3.9660752
3.936941
3.9157069
3.900149
3.8893486
3.8832544
3.8822111
3.8865972
3.8967143
3.9126947
3.9343708
3.9612811
3.9927089
4.027589
4.064655
4.1026028
4.1400663
4.1752522
4.2058305
4.2308646
4.2524942
4.2696754
4.2658024
4.2156597
4.1951703
4.3284445
4.4868776
0.24516744
0.23372667
0.21080567
0.17738223
0.13329518
0.078437121
0.012690823
-0.063861303
-0.15094735
-0.24803656
-0.35422162
-0.46810099
-0.58765174
-0.71010907
-0.83202968
-0.9492303
-1.0569458
-1.1498354
-1.222507
-1.2708723
-1.2910629
-1.2837188
-1.249893
-1.2014564
-1.1485021
-1.1107182
-0.97243247
-0.73179692
-0.48266392
-0.24914589
0.075507905
0.15108832
-0.29885215
-0.43581387
-0.25750167
-0.059677938
-0.47126749
-1.7023858
-3.8546553
-6.1832634
-6.5857113
-8.2021855
-8.9728334
-7.4645937
15.725586
22.497912
18.608984
17.004737
18.60668
17.913063
17.340399
18.034954
19.958989
22.127357
23.1667
22.731801
21.492937
20.145431
18.886641
17.306842
15.017426
12.423332
10.050698
8.1268808
6.6692432
5.6172685
4.8943898
4.4214935
4.1270954
3.9520526
3.8516256
3.7944539
3.7602381
3.7370417
3.718548
3.7021279
3.6874154
3.6750761
3.6663391
3.6625685
3.6649092
3.6742235
3.6909596
3.7150788
3.7461308
3.7832399
3.8251127
3.8701328
3.9165825
3.9626749
4.0060106
4.0430393
4.0715545
4.0949799
4.1167998
4.1129403
3.9740215
3.7700591
3.9355646
4.3022273
0.31137537
0.29965165
0.27509565
0.23887404
0.19068179
0.13021481
0.057187855
-0.02854871
-0.1270051
-0.23794985
-0.36072365
-0.49405493
-0.63595089
-0.78351494
-0.93286638
-1.0790172
-1.2160052
-1.3370376
-1.4350435
-1.5038748
-1.5379403
-1.5392793
-1.5016435
-1.4578909
-1.3861013
-1.3320574
-1.1929648
-0.90368705
-0.59071008
-0.50681738
-0.46842162
-0.072714914
-0.10899337
-0.091552146
0.016277905
0.0188099
-0.64166793
-2.3901221
-4.1614817
-6.5434888
-9.2800906
-12.938425
-12.376544
3.5463515
2.7353778
2.9109149
10.939603
17.380856
19.162158
17.926722
16.467148
17.246154
21.04761
25.800473
27.770112
26.4742
24.04894
22.208876
21.230712
19.825572
16.633169
12.840063
9.7136762
7.4314758
5.8474048
4.7920794
4.1399576
3.771432
3.5872278
3.5113961
3.49126
3.4936857
3.5001284
3.5019809
3.4966762
3.4850293
3.4695472
3.4532776
3.4392103
3.4300689
3.4279867
3.4344837
3.4504661
3.4760546
3.5108156
3.5537155
3.6031685
3.6571955
3.7136378
3.7703147
3.8241161
3.8693874
3.9016237
3.9238008
3.9349408
3.8993515
3.7533775
3.5769034
6.5382822
9.832915
0.38876194
0.37701819
0.35107761
0.31229896
0.26027071
0.19448407
0.11439018
0.019498541
-0.090602722
-0.21611006
-0.35674506
-0.51157807
-0.67884864
-0.85570902
-1.0378963
-1.2195959
-1.3934001
-1.5505401
-1.6814319
-1.7764113
-1.8271122
-1.8320544
-1.7923304
-1.7368279
-1.6456567
-1.5415689
-1.4089536
-1.1149615
-0.71816325
-0.85678204
-1.0711899
0.032022928
0.25604018
0.22182225
0.2618696
0.0089015858
-0.93510295
-2.9485924
-6.019809
-7.9361343
-9.1102431
-11.997325
-16.313153
-13.989281
-1.8825108
4.4987082
14.511739
20.610916
21.483316
17.752791
13.193152
13.428663
21.107073
32.18222
35.677955
31.377175
26.188618
23.312287
23.897854
23.885253
18.712617
12.452236
8.4691734
5.987648
4.4585334
3.5362441
3.0831418
2.9242409
2.9296807
3.0082616
3.1033403
3.1851777
3.241767
3.271632
3.2786364
3.2688257
3.2486738
3.2242488
3.2007286
3.1824645
3.1727329
3.1738254
3.1871147
3.2129493
3.2508619
3.2996614
3.3574701
3.4219482
3.4905032
3.5606378
3.6286708
3.6882106
3.7380202
3.7928367
3.8607482
3.9024765
3.8928695
4.8287472
11.092022
11.396439
0.47839593
0.46686573
0.43981644
0.39888674
0.34356095
0.27304758
0.186432
0.082771685
-0.038856091
-0.17917667
-0.33856133
-0.51677623
-0.71254906
-0.92332834
-1.1447923
-1.3702722
-1.5908283
-1.7950541
-1.9697496
-2.1002873
-2.1738159
-2.1838406
-2.1357669
-2.0480752
-1.9319997
-1.7601364
-1.6191245
-1.3390298
-0.91334071
-1.1343279
-1.1154
5.4862561
3.4874399
0.53276862
0.52587131
-0.21515671
-1.1856199
-3.7640211
-6.6089284
-9.2072008
-9.5355516
-9.7115995
-9.6661139
-7.673105
-7.487336
-5.8731532
5.3585377
21.069184
24.809794
14.588305
3.2206127
3.2256248
18.929225
45.393357
51.393804
37.892285
26.281291
21.299808
27.798663
32.481688
21.173637
10.45719
5.6741821
3.5902175
2.338715
1.7754611
1.7114176
1.8995125
2.1895359
2.4811583
2.7226603
2.8969081
3.0058413
3.0601617
3.0733726
3.058457
3.0267421
2.9876556
2.9488523
2.9163928
2.8948114
2.8872293
2.8954552
2.9200385
2.960439
3.0152485
3.0823048
3.1587874
3.2415386
3.3280675
3.4148923
3.4945718
3.5652984
3.6405177
3.7278479
3.7779801
3.694169
5.7381723
11.177341
11.421301
0.5811665
0.5700465
0.54225753
0.49982103
0.44202475
0.36770705
0.27553574
0.1639994
0.031617462
-0.12316254
-0.30159522
-0.50460372
-0.73176809
-0.98144357
-1.2495334
-1.5292415
-1.8094357
-2.0757826
-2.3112464
-2.4926837
-2.5993555
-2.6169572
-2.5471528
-2.4073721
-2.214669
-1.9774913
-1.7537846
-1.5046462
-1.119641
-1.4012255
-1.3488852
9.7506659
3.5503017
1.398286
0.52328656
-0.88204145
-1.7276243
-3.4102687
-7.7620899
-11.328015
-11.492433
-13.983642
-18.718755
-19.138667
-11.795362
-0.39359653
15.231143
38.014457
38.205987
6.9579108
-22.374371
-25.345305
14.27318
74.344295
83.649521
41.743318
13.560554
16.652856
42.698284
53.183734
22.347747
2.9437157
0.23543405
0.26831415
-0.53460805
-0.51849825
0.037181995
0.75861007
1.4391147
1.9969243
2.4023223
2.6673777
2.8184663
2.883892
2.8901333
2.8582719
2.8046174
2.7418197
2.6799817
2.6268931
2.5882795
2.5680591
2.568403
2.5899307
2.6319648
2.6927668
2.7696969
2.8594717
2.959414
3.0689878
3.1848755
3.2941293
3.3868092
3.4669362
3.5406162
3.623073
3.6600873
4.6387529
10.508268
11.050611
0.69770498
0.68720709
0.65917034
0.61607067
0.55691684
0.48013079
0.38390315
0.26611894
0.1244843
-0.043478975
-0.24024886
-0.46864305
-0.72935486
-1.0226204
-1.3458894
-1.6918377
-2.0481939
-2.3969846
-2.7200899
-2.9772313
-3.1346282
-3.1653167
-3.058293
-2.8286096
-2.5073356
-2.137396
-1.8014361
-1.5717237
-1.4464703
-1.6272215
-1.3964282
8.7561609
3.2088488
0.47654301
-0.76287022
-2.4151372
-1.1329539
-2.3759825