/*--------------------------------*- C++ -*----------------------------------*\
  =========                 |
  \\      /  F ield         | OpenFOAM: The Open Source CFD Toolbox
   \\    /   O peration     | Website:  https://openfoam.org
    \\  /    A nd           | Version:  9
     \\/     M anipulation  |
\*---------------------------------------------------------------------------*/
FoamFile
{
    format      ascii;
    class       surfaceScalarField;
    location    "0.99";
    object      phi;
}
// * * * * * * * * * * * * * * * * * * * * * * * * * * * * * * * * * * * * * //

dimensions      [0 3 -1 0 0 0 0];

internalField   nonuniform List<scalar> 
19800
(
-1.5939789e-05
7.1427521e-05
-2.944507e-05
7.2295759e-05
-4.3093258e-05
7.3478844e-05
-5.6866338e-05
7.4815141e-05
-7.0894773e-05
7.6469698e-05
-8.5097519e-05
7.8128649e-05
-9.9543664e-05
7.9994041e-05
-0.00011422959
8.1945328e-05
-0.0001291597
8.3950243e-05
-0.00014434664
8.5980496e-05
-0.00015977244
8.797114e-05
-0.00017544246
8.9955007e-05
-0.00019137408
9.1827774e-05
-0.00020759172
9.3522828e-05
-0.00022419889
9.5130764e-05
-0.00024128789
9.6632999e-05
-0.00025911667
9.8135897e-05
-0.00027773581
9.9581699e-05
-0.00029725986
0.00010144327
-0.00031790959
0.00010378584
-0.00033997794
0.00010678049
-0.00036385359
0.00011108615
-0.00039016583
0.00011692855
-0.00041987148
0.00012507289
-0.00045430358
0.00013611852
-0.00049526188
0.00015096011
-0.00054501239
0.00017079309
-0.0006060156
0.00019707376
-0.0006814156
0.00023145576
-0.00077514838
0.00027594723
-0.00089198033
0.00033302665
-0.0010376031
0.00040573749
-0.001218816
0.00049785579
-0.0014437826
0.00061406453
-0.0017222447
0.00076022974
-0.0020657341
0.00094392978
-0.0024876351
0.0011742271
-0.0030008543
0.0014633441
-0.0036146156
0.0018504011
-0.0043496533
0.0024093403
-0.0052678552
0.0030396264
-0.0064225146
0.0031905406
-0.0076732404
0.0023122006
-0.0086045848
0.00064678627
-0.0091175014
-0.00077634722
-0.0091352685
-0.0020843219
-0.0085781676
-0.0033200519
-0.0075728389
-0.0041371938
-0.0061751543
-0.0047726353
-0.0044669655
-0.0052626116
-0.0026262968
-0.00542506
-0.00073240497
-0.0054149991
0.0011173447
-0.0052376115
0.0028656326
-0.0049257094
0.0044341463
-0.0045031782
0.0057831095
-0.0040564184
0.006979331
-0.0036295317
0.0081987039
-0.0033688197
0.0093585891
-0.0029813527
0.0102135
-0.0022037931
0.01039342
-0.0010729358
0.010129401
-0.00016072497
0.0091057822
0.0014543994
0.0078742329
0.0023304468
0.0067933909
0.0021605938
0.0059961257
0.0014280884
0.0054222989
0.00091337075
0.0049558992
0.00095796888
0.0045861223
0.0012857518
0.004275574
0.0016194252
0.0039913443
0.0018095501
0.0037165803
0.0018679069
0.0034496206
0.0018422448
0.0031917246
0.0017636786
0.0029427118
0.0016496769
0.0027021197
0.0015129643
0.0024697533
0.0013656289
0.0022456321
0.0012190004
0.002030012
0.0010814894
0.0018234071
0.00095727934
0.0016265045
0.00084683897
0.0014400147
0.00074888189
0.0012645883
0.000661792
0.0011007409
0.000584003
0.00094879886
0.00051420486
0.00080890625
0.00045139486
0.00068106904
0.0003948181
0.00056513846
0.00034369324
0.00046088797
0.00029755011
0.00036793387
0.00025576651
0.0002857865
0.00021799702
0.00021378516
0.0001838477
0.00015145284
0.00015331881
9.8322309e-05
0.00012622142
5.3878329e-05
0.00010213271
1.735696e-05
8.1192489e-05
-1.1988529e-05
6.2987459e-05
-3.5384368e-05
4.8340339e-05
-5.3226242e-05
3.5405117e-05
2.3771123e-05
-1.5012546e-05
8.4394644e-05
-2.8100533e-05
8.538118e-05
-4.1375205e-05
8.6752735e-05
-5.4840764e-05
8.8277436e-05
-6.8583933e-05
9.021134e-05
-8.2577394e-05
9.2120889e-05
-9.6868715e-05
9.4285633e-05
-0.00011145787
9.6536585e-05
-0.00012635329
9.8847369e-05
-0.00014155491
0.00010118377
-0.00015707448
0.0001034919
-0.0001728788
0.00010576008
-0.00018903195
0.00010798209
-0.00020551396
0.00011000565
-0.00022239916
0.00011201546
-0.00023962172
0.00011385397
-0.00025723037
0.00011574259
-0.00027537584
0.00011772595
-0.00029409471
0.0001201624
-0.00031357963
0.00012327177
-0.00033411015
0.00012731159
-0.00035591501
0.000132891
-0.00037958858
0.00014060214
-0.0004058998
0.00015138444
-0.0004359725
0.00016619151
-0.00047120643
0.00018619369
-0.00051341792
0.00021300363
-0.00056487838
0.00024853366
-0.00062845021
0.00029502826
-0.00070765104
0.00035514947
-0.00080670544
0.00043208187
-0.00093061879
0.00052965061
-0.0010852962
0.00065253281
-0.0012777411
0.00080650981
-0.0015163081
0.00099879757
-0.0018110098
0.0012386315
-0.0021736652
0.0015368814
-0.0026153343
0.001905012
-0.0031396006
0.0023746672
-0.0037559029
0.0030256428
-0.0045315031
0.0038152258
-0.0055381207
0.0041971549
-0.0066150716
0.0033891455
-0.0074896306
0.0015213391
-0.0080889294
-0.00017705252
-0.0082568909
-0.0019163635
-0.0079406638
-0.0036362814
-0.0069733118
-0.0051045467
-0.0054002554
-0.0063456921
-0.0034703312
-0.0071925361
-0.0014397544
-0.0074556372
0.00061570382
-0.0074704578
0.002515386
-0.0071372943
0.0043062695
-0.006716594
0.0059742225
-0.0061711326
0.0074124216
-0.0054946187
0.0086369492
-0.0048540596
0.0098766521
-0.0046085227
0.011297491
-0.004402191
0.012621383
-0.0035276844
0.013391244
-0.0018427954
0.012586195
0.00064432634
0.010960865
0.0030797313
0.0090946758
0.004196635
0.0073623312
0.0038929366
0.0060940822
0.0026963367
0.0053171378
0.0016903156
0.0048570645
0.0014180422
0.004509733
0.001633082
0.0042170265
0.001912131
0.0039421742
0.0020844023
0.0036686274
0.0021414547
0.0033986195
0.0021122503
0.0031373754
0.0020249185
0.0028861971
0.001900851
0.0026443079
0.001754852
0.0024109041
0.0015990304
0.0021856516
0.0014442524
0.0019687417
0.0012983987
0.0017608869
0.0011651344
0.0015630737
0.0010446546
0.0013762818
0.00093567632
0.0012013309
0.00083674268
0.0010387349
0.00074659982
0.00088871341
0.0006642295
0.00075127233
0.00058883891
0.00062629513
0.00051979672
0.00051338638
0.00045660324
0.00041231629
0.00039862149
0.0003226501
0.00034543457
0.00024387647
0.00029677283
0.00017570909
0.00025201714
0.00011752972
0.0002114981
6.8679304e-05
0.00017507483
2.8209854e-05
0.00014260469
-4.3151944e-06
0.00011371662
-3.0383911e-05
8.9059414e-05
-5.0122006e-05
6.8075608e-05
-6.4458661e-05
4.9733242e-05
3.3239071e-05
-1.3879813e-05
9.6925376e-05
-2.6681409e-05
9.818426e-05
-3.97004e-05
9.9770687e-05
-5.2989675e-05
0.00010156693
-6.6464603e-05
0.00010368624
-8.0317489e-05
0.00010597448
-9.4476751e-05
0.00010844702
-0.00010899128
0.00011105269
-0.00012385169
0.00011370906
-0.00013905069
0.00011638349
-0.0001546189
0.00011906013
-0.00017051986
0.00012166132
-0.00018670485
0.00012416725
-0.00020326461
0.00012656471
-0.00022010127
0.00012885067
-0.00023728366
0.00013103463
-0.00025480913
0.00013326688
-0.00027259603
0.00013551296
-0.00029070556
0.00013827292
-0.00030917921
0.00014174636
-0.00032812306
0.00014625595
-0.00034775151
0.00015251979
-0.00036846844
0.0001613194
-0.00039073046
0.00017364661
-0.00041541677
0.00019087757
-0.00044358607
0.00021436246
-0.00047672276
0.00024614009
-0.00051667956
0.00028849104
-0.0005657886
0.00034413836
-0.00062690521
0.00041626672
-0.00070344139
0.00050861785
-0.0007993933
0.00062560202
-0.00091934707
0.00077248637
-0.0010684783
0.00095564083
-0.0012525815
0.0011829
-0.0014781531
0.0014642015
-0.001752493
0.0018112195
-0.0020820295
0.0022345472
-0.0024686075
0.0027612446
-0.0029252738
0.0034823079
-0.0035289504
0.0044189004
-0.0043850627
0.0050532648
-0.0054162203
0.0044202996
-0.0064157097
0.0025208246
-0.0070681458
0.0004753812
-0.0073799649
-0.0016045454
-0.0072066321
-0.0038096151
-0.0063991761
-0.0059120033
-0.0048797693
-0.0078650997
-0.0029424157
-0.0091298906
-0.00093219002
-0.0094658634
0.0011362402
-0.0095388882
0.0030587281
-0.0090597822
0.0049188176
-0.008576684
0.006753882
-0.0080061978
0.008468831
-0.0072095693
0.0098027587
-0.0061879889
0.010879232
-0.0056849974
0.011795516
-0.0053184732
0.012608643
-0.0043408089
0.013311779
-0.0025459295
0.013334865
0.00062124006
0.012654738
0.0037598583
0.011085291
0.0057660837
0.0090734031
0.0059048257
0.0072727927
0.0044969471
0.0060230098
0.0029400972
0.0052494063
0.0021916445
0.0046864485
0.002196041
0.0042433843
0.002355197
0.0038915669
0.0024362172
0.0035841192
0.0024489008
0.0032944784
0.0024018905
0.0030204384
0.0022989578
0.0027626851
0.002158602
0.0025186549
0.0019988801
0.0022855281
0.0018321532
0.0020618458
0.0016679337
0.0018474801
0.0015127656
0.0016432325
0.001369385
0.0014502218
0.001237664
0.0012694016
0.0011164979
0.001101298
0.0010048443
0.00094607325
0.00090183048
0.00080360939
0.00080669382
0.00067363916
0.00071880929
0.00055585032
0.00063758673
0.00044993417
0.00056252099
0.0003554652
0.00049309309
0.00027199341
0.00042890622
0.00019912804
0.00036963496
0.00013604974
0.00031509756
8.1969672e-05
0.00026557846
3.6757521e-05
0.00022028601
-3.2044887e-08
0.00017939981
-2.9400102e-05
0.00014308814
-5.1583297e-05
0.00011124392
-6.7700853e-05
8.420018e-05
-7.8284513e-05
6.0311857e-05
3.902371e-05
-1.2832744e-05
0.00010907541
-2.5293184e-05
0.00011064591
-3.799307e-05
0.0001124726
-5.0994865e-05
0.00011457002
-6.4314519e-05
0.00011700731
-7.7997832e-05
0.00011966014
-9.2019224e-05
0.00012246996
-0.0001064259
0.00012546033
-0.00012122646
0.00012850996
-0.00013643283
0.00013158939
-0.00015198561
0.00013461252
-0.00016796578
0.00013764105
-0.00018422457
0.0001404249
-0.00020085435
0.00014319282
-0.00021769612
0.00014569074
-0.00023480078
0.0001481381
-0.00025204009
0.00015050603
-0.00026942787
0.00015290134
-0.00028674941
0.0001555951
-0.00030399531
0.00015899265
-0.00032119692
0.00016345785
-0.00033831704
0.00016964006
-0.00035553368
0.00017853583
-0.00037304091
0.00019115328
-0.00039144733
0.00020928348
-0.00041145385
0.00023436901
-0.00043415964
0.00026884658
-0.00046101062
0.0003153429
-0.00049386555
0.00037699367
-0.0005350063
0.00045740728
-0.00058712241
0.00056073361
-0.0006532567
0.00069173603
-0.00073676159
0.00085599067
-0.00084121611
0.001060094
-0.00097027181
0.0013119538
-0.0011274351
0.0016213631
-0.0013162428
0.0020000255
-0.0015396732
0.0024579758
-0.0017949618
0.0030165316
-0.0020812791
0.0037686238
-0.0024553945
0.0047930142
-0.0030540118
0.0056518805
-0.0039083668
0.0052746529
-0.0049033612
0.0035158167
-0.005683026
0.0012550448
-0.0062635564
-0.0010240147
-0.0065293843
-0.0035437878
-0.0061590377
-0.0062823516
-0.0049860911
-0.0090380482
-0.0033875476
-0.010728435
-0.0016078558
-0.011245555
0.0003578579
-0.011504602
0.0024317633
-0.011133688
0.0044953821
-0.010640303
0.0064887429
-0.0099995597
0.0084837027
-0.0092045314
0.010303154
-0.0080074416
0.011612459
-0.0069943019
0.012537622
-0.0062436334
0.013284333
-0.0050875181
0.013291945
-0.0025535407
0.013156927
0.00075625845
0.013238994
0.003677792
0.012646361
0.0063587181
0.01124037
0.0073108164
0.0093154347
0.0064218801
0.0074478773
0.0048076547
0.0060331226
0.0036064009
0.0050295546
0.0031996097
0.0043269311
0.003057821
0.0038428378
0.0029203086
0.0034734941
0.0028182448
0.0031522208
0.0027231645
0.0028612692
0.0025899084
0.0025965228
0.0024233453
0.0023520349
0.0022433669
0.0021222965
0.0020618918
0.0019043845
0.0018858476
0.0016976195
0.0017195281
0.0015024428
0.0015645603
0.0013195647
0.0014205402
0.0011493299
0.001286737
0.00099167317
0.0011625015
0.00084636705
0.0010471367
0.00071303054
0.00094003082
0.00059128776
0.00084055204
0.00048083306
0.00074804316
0.00038134663
0.00066200519
0.00029250989
0.00058192753
0.00021399675
0.00050741861
0.0001453514
0.00043827992
8.6262324e-05
0.00037418514
3.6709985e-05
0.00031512931
-4.0301838e-06
0.00026102736
-3.6612193e-05
0.00021198391
-6.1340212e-05
0.00016781778
-7.9081406e-05
0.000128989
-9.0664307e-05
9.5785104e-05
-9.6594939e-05
6.6240012e-05
3.9946539e-05
-1.1281695e-05
0.00012080483
-2.3387063e-05
0.00012275476
-3.5850542e-05
0.00012493814
-4.8550285e-05
0.00012727154
-6.1647214e-05
0.00013010656
-7.5140639e-05
0.00013315485
-8.9045859e-05
0.00013637568
-0.00010334659
0.00013976095
-0.00011809506
0.00014325765
-0.00013329155
0.0001467852
-0.0001489545
0.0001502748
-0.00016493824
0.00015362339
-0.00018139527
0.00015687994
-0.00019809589
0.00015989153
-0.00021507244
0.00016266594
-0.00023211921
0.00016518434
-0.00024922441
0.0001676111
-0.00026622464
0.0001699012
-0.00028284485
0.00017221466
-0.0002989167
0.00017506398
-0.00031424361
0.00017878431
-0.00032869185
0.00018408751
-0.00034202365
0.0001918664
-0.00035424556
0.00020337413
-0.0003654722
0.0002205099
-0.00037609651
0.00024499393
-0.00038673371
0.00027948454
-0.00039838978
0.00032699913
-0.00041245678
0.00039106036
-0.00043069605
0.00047564645
-0.0004552125
0.00058525033
-0.00048825881
0.00072478234
-0.00053216455
0.00089989564
-0.00058920965
0.0011171379
-0.00066134492
0.001384088
-0.00074979501
0.0017098122
-0.00085543948
0.0021056685
-0.00097929981
0.002581834
-0.0011145598
0.0031517902
-0.0012353667
0.0038894303
-0.0013558182
0.0049134649
-0.0016511247
0.0059471855
-0.002340112
0.0059636391
-0.0033311489
0.0045068527
-0.0043093131
0.0022332085
-0.0052631035
-7.0224461e-05
-0.0061189989
-0.0026878936
-0.006335122
-0.0060662301
-0.0056563359
-0.0097168357
-0.0044947735
-0.011889999
-0.002905037
-0.012835292
-0.0010033291
-0.013406309
0.0015284038
-0.01366542
0.00392974
-0.013041641
0.0059773496
-0.012047171
0.0078409761
-0.011068159
0.0096296102
-0.0097960737
0.011245506
-0.0086101952
0.012462284
-0.0074604113
0.013372139
-0.0059973734
0.013937582
-0.0031189825
0.014169427
0.00052441459
0.013899996
0.0039472231
0.013425263
0.0068334494
0.012551603
0.0081844762
0.010581759
0.0083917252
0.0084404063
0.0069490083
0.0065812095
0.0054655973
0.0052347408
0.004546077
0.0043439876
0.0039485747
0.0037561643
0.0035081318
0.0033279426
0.0032464679
0.0029762602
0.003074848
0.0026722524
0.0028939167
0.002404447
0.0026911508
0.0021628167
0.0024849982
0.0019396977
0.002285008
0.0017310137
0.0020945294
0.001535265
0.0019152773
0.0013521509
0.0017476773
0.0011814282
0.0015912653
0.0010226763
0.0014454891
0.00087548449
0.0013096957
0.00073942249
0.0011832014
0.0006141482
0.0010653064
0.00049952098
0.00095517768
0.00039537799
0.00085218533
0.00030160758
0.00075577428
0.00021806421
0.00066547165
0.00014459385
0.00058088819
8.1024414e-05
0.00050184497
2.7095632e-05
0.00042811665
-1.7523383e-05
0.00035975225
-5.3390889e-05
0.00029689745
-8.0731989e-05
0.00023932926
-0.00010027625
0.00018736311
-0.00011275482
0.00014146729
-0.00011887022
0.00010190094
-0.00011898741
6.635597e-05
3.5295005e-05
-9.6155433e-06
0.00013211195
-2.1266599e-05
0.00013440784
-3.3356609e-05
0.00013702955
-4.5766468e-05
0.00013968314
-5.8632095e-05
0.00014297276
-7.1870693e-05
0.00014639314
-8.5597066e-05
0.00015010119
-9.980864e-05
0.00015397126
-0.00011451229
0.00015796052
-0.00012970576
0.00016197819
-0.00014539176
0.0001659596
-0.00016158203
0.00016981163
-0.00017815875
0.00017345451
-0.00019507418
0.00017680538
-0.00021223206
0.00017982301
-0.00022953599
0.00018248759
-0.00024665056
0.00018472426
-0.00026340127
0.00018664981
-0.00027959456
0.00018840598
-0.00029468792
0.00019015585
-0.00030832919
0.00019242407
-0.00032011257
0.00019586897
-0.00032963708
0.000201389
-0.00033647212
0.00021020808
-0.00034013222
0.00022416993
-0.00034066404
0.00024552603
-0.00033815897
0.0002769793
-0.00033314675
0.00032198643
-0.00032654459
0.00038445819
-0.00031958426
0.00046868696
-0.00031392384
0.00057959097
-0.00031109843
0.00072195751
-0.00031253607
0.00090133357
-0.00031951036
0.0011241127
-0.00033257693
0.001397155
-0.00035046101
0.001727696
-0.00037179607
0.0021270027
-0.00039558696
0.0026056238
-0.00041452815
0.0031707304
-0.00038943633
0.0038643379
-0.00028434714
0.0048083746
-0.00025451464
0.0059173513
-0.00065958662
0.0063687101
-0.001578602
0.0054258673
-0.0027754204
0.0034300255
-0.0041608227
0.001315177
-0.0056193133
-0.0012294037
-0.0065048597
-0.0051806852
-0.0065643698
-0.0096573274
-0.0056841241
-0.012770246
-0.0041449247
-0.014374491
-0.0018328204
-0.015718413
0.0011193405
-0.016617581
0.0036741753
-0.015596476
0.0056571576
-0.014030153
0.0073775796
-0.012788578
0.0092340921
-0.011652584
0.010829772
-0.010205874
0.011844485
-0.0084751236
0.012371371
-0.0065242584
0.012890108
-0.0036377186
0.013104173
0.00031034761
0.013075335
0.003976058
0.012511484
0.007397301
0.011224299
0.0094716624
0.0098061259
0.0098098991
0.0080361115
0.0087190229
0.0063561378
0.0071455714
0.005074588
0.0058276268
0.0041952737
0.0048278902
0.0035845656
0.0041188386
0.0031271543
0.0037038783
0.0027598095
0.0034421937
0.0024532419
0.003200488
0.0021896542
0.0029547388
0.0019557806
0.0027188699
0.0017429203
0.0024978656
0.0015463084
0.0022911423
0.0013635591
0.0020980281
0.0011933696
0.0019178652
0.0010346869
0.0017499448
0.00088674632
0.00159343
0.00074912063
0.0014473218
0.00062142973
0.0013108914
0.00050379754
0.0011829385
0.00039613162
0.0010628427
0.00029843011
0.00094988497
0.00021073624
0.00084346928
0.00013304368
0.00074316272
6.5240929e-05
0.00064869114
7.1899218e-06
0.00055989814
-4.135756e-05
0.00047666342
-8.064483e-05
0.00039904077
-0.0001108535
0.00032711046
-0.00013255359
0.00026102921
-0.00014625784
0.00020106789
-0.00015265204
0.00014785945
-0.00015245719
0.00010170631
-0.00014576058
5.96605e-05
2.418282e-05
-7.5805715e-06
0.00014299181
-1.8809158e-05
0.00014563687
-3.0492328e-05
0.00014871348
-4.2599087e-05
0.00015178949
-5.5135693e-05
0.00015550813
-6.8166164e-05
0.00015942179
-8.1685683e-05
0.00016361865
-9.5776107e-05
0.00016806055
-0.00011041038
0.00017259452
-0.00012563167
0.0001771988
-0.00014141363
0.00018173984
-0.00015772182
0.00018611762
-0.00017453716
0.00019026809
-0.00019176695
0.0001940343
-0.0002092638
0.00019731923
-0.00022681351
0.00020003565
-0.00024423082
0.00020213864
-0.00026112994
0.00020354571
-0.00027711861
0.00020439201
-0.00029162807
0.00020466311
-0.00030409181
0.00020488545
-0.00031369993
0.00020547456
-0.000319694
0.00020738099
-0.00032127447
0.00021178738
-0.00031759372
0.00022048855
-0.00030789318
0.00023582475
-0.00029178142
0.00026086673
-0.00026920932
0.0002994142
-0.00024072024
0.00035597012
-0.00020702289
0.00043499135
-0.00016952757
0.00054209743
-0.00012928211
0.00068171371
-8.6610752e-05
0.00085866396
-4.1890516e-05
0.0010793942
6.3965866e-06
0.0013488691
5.8265155e-05
0.0016758278
0.00011718897
0.002068079
0.00018870568
0.0025341066
0.00027964166
0.0030797927
0.00042178708
0.0037221905
0.00067764433
0.0045525158
0.00097087287
0.0056241209
0.00090217945
0.0064374015
0.00020871034
0.0061193351
-0.0010305745
0.0046693095
-0.0026637989
0.0029484012
-0.0044686288
0.00057542544
-0.0059153476
-0.0037339692
-0.006711434
-0.0088612434
-0.0063913436
-0.013090337
-0.0050449429
-0.015720892
-0.0027966092
-0.017966747
8.4832975e-05
-0.019499022
0.002940431
-0.018452073
0.0050127892
-0.016102509
0.0069144974
-0.014690286
0.0088617304
-0.013599817
0.010404804
-0.011748947
0.011173285
-0.0092436031
0.011336061
-0.0066870339
0.01111325
-0.0034149069
0.011019047
0.00040455103
0.010926744
0.0040683614
0.010758808
0.0075652373
0.009516233
0.010714237
0.0082412108
0.01108492
0.0068962007
0.010064032
0.0056274466
0.0084143268
0.004620469
0.0068346043
0.0038726394
0.0055757197
0.0033025071
0.0046889696
0.0028528099
0.0041535763
0.0024932066
0.0038017976
0.002199326
0.0034943684
0.0019498914
0.0032041719
0.0017303458
0.0029384178
0.0015321098
0.0026961037
0.0013502821
0.0024729725
0.0011817742
0.0022665344
0.0010246994
0.0020749402
0.00087775811
0.001896887
0.00074033815
0.00173085
0.00061198576
0.0015756756
0.00049293707
0.0014299401
0.00038306421
0.0012928118
0.00028255445
0.0011633533
0.00019157198
0.0010408668
0.0001101926
0.00092484853
3.8458728e-05
0.00081489895
-2.3627195e-05
0.00071077899
-7.6072986e-05
0.00061234442
-0.0001189811
0.00051957225
-0.00015246814
0.00043253081
-0.0001768007
0.00035144017
-0.00019232661
0.00027655462
-0.00019949328
0.00020823594
-0.00019905264
0.00014741413
-0.00019158927
9.4244867e-05
-0.00017704177
4.5113369e-05
5.6334109e-06
-5.2238023e-06
0.00015333958
-1.5962104e-05
0.00015637486
-2.7212918e-05
0.00015996313
-3.8926173e-05
0.00016350099
-5.1131861e-05
0.00016771136
-6.3909848e-05
0.00017219697
-7.7269673e-05
0.00017697678
-9.1202041e-05
0.00018199263
-0.00010574052
0.00018713284
-0.00012097241
0.00019242958
-0.00013685665
0.00019762215
-0.00015339104
0.0002026502
-0.00017048543
0.00020736171
-0.00018810662
0.00021165543
-0.00020609888
0.00021531069
-0.00022426971
0.00021820409
-0.00024222876
0.00022009433
-0.00025969963
0.00022101339
-0.00027600931
0.00022069904
-0.00029058314
0.00021923443
-0.00030248043
0.00021678013
-0.00031067927
0.00021367094
-0.00031400517
0.00021070491
-0.00031098105
0.00020876166
-0.00030033778
0.00020984385
-0.00028061309
0.0002160989
-0.00025107211
0.0002313254
-0.00021035027
0.00025869313
-0.00015885197
0.00030447341
-9.7250368e-05
0.00037339159
-2.5567253e-05
0.00047041628
5.2461597e-05
0.00060368694
0.00013612074
0.00077500676
0.00022816763
0.000987349
0.00032997907
0.0012470591
0.00044577818
0.0015600296
0.00058000009
0.0019338569
0.00073783318
0.0023762722
0.00092560171
0.0028920218
0.0011628553
0.0034849343
0.0015074537
0.0042079153
0.0019606415
0.0051709301
0.0022178259
0.0061802144
0.0018520696
0.0064850907
0.00079145031
0.005729929
-0.00067401826
0.0044138691
-0.0023517931
0.0022531987
-0.0039363882
-0.002149376
-0.005073282
-0.0077243508
-0.0054161981
-0.012747422
-0.0045148607
-0.016622231
-0.0026028859
-0.019878722
-0.00022525009
-0.021876657
0.0021102818
-0.020787602
0.004326074
-0.0183183
0.0063204109
-0.016684623
0.0080518501
-0.015331254
0.0091630701
-0.012860165
0.0095062867
-0.0095868194
0.009314518
-0.0064952663
0.0088559197
-0.0029563079
0.0083495798
0.00091089296
0.0080498504
0.004368093
0.007972262
0.0076428258
0.0069288
0.011757699
0.0061423423
0.011871379
0.005373012
0.010833361
0.0046413461
0.0091459911
0.0039613736
0.0075145741
0.0033823217
0.0061547721
0.0028954335
0.0051758612
0.0024928738
0.0045561389
0.0021694187
0.0041252538
0.0019063895
0.003757399
0.0016827947
0.0034277676
0.0014853227
0.0031358912
0.0013066974
0.0028747278
0.0011423994
0.002637272
0.00098950406
0.0024194328
0.00084611979
0.002218326
0.00071118359
0.0020318223
0.00058432282
0.001857711
0.00046571901
0.0016942792
0.00035519829
0.0015404626
0.00025314677
0.0013948657
0.00015978722
0.0012567097
7.5368732e-05
0.0011252839
1.2494086e-07
0.0010000917
-6.5757477e-05
0.00088077917
-0.00012211899
0.00076714146
-0.00016885387
0.00065907914
-0.00020598739
0.00055670391
-0.00023346521
0.00046001011
-0.00025151903
0.00036949805
-0.00026037514
0.00028541449
-0.00026042047
0.0002082829
-0.00025239123
0.0001393833
-0.00023661574
7.8470105e-05
-0.00021311236
2.1608561e-05
-2.1581549e-05
-2.4555626e-06
0.00016296332
-1.2695522e-05
0.00016661334
-2.3481041e-05
0.00017074719
-3.4778148e-05
0.00017479589
-4.6612239e-05
0.00017954258
-5.906471e-05
0.00018464749
-7.2136002e-05
0.00019004775
-8.5898781e-05
0.00019575572
-0.00010042557
0.0002016593
-0.00011564773
0.00020765038
-0.0001316657
0.00021363849
-0.00014842028
0.00021940408
-0.00016593662
0.00022487858
-0.00018409333
0.00022981267
-0.00020279181
0.00023400838
-0.00022178908
0.0002371992
-0.00024083386
0.00023913641
-0.00025927574
0.00023945264
-0.00027666412
0.00023808494
-0.00029207565
0.00023464359
-0.000304449
0.00022915132
-0.00031240193
0.00022162191
-0.00031412331
0.00021242435
-0.0003080835
0.0002027199
-0.00029193325
0.0001936921
-0.00026341424
0.00018757941
-0.00022067679
0.00018858846
-0.00016210829
0.00020012559
-8.6594585e-05
0.00022896057
5.3491391e-06
0.0002814486
0.00010755949
0.00036820673
0.0002221371
0.00048911026
0.00034869744
0.00064844744
0.00048780608
0.00084824165
0.00064287227
0.0010919944
0.00081827224
0.00138463
0.001019984
0.0017321436
0.0012536356
0.0021426181
0.0015257704
0.0026198844
0.0018476883
0.0031630135
0.0022550152
0.0038005853
0.0027811753
0.004644768
0.0032573101
0.0057040787
0.0032773681
0.0064650328
0.0026720583
0.0063352378
0.0016495097
0.0054364157
0.00046103864
0.0034416692
-0.00064763262
-0.0010407043
-0.0017138539
-0.0066581311
-0.002196595
-0.012264684
-0.0016462992
-0.017172528
-0.00021050507
-0.021314516
0.0015157288
-0.023602891
0.003176764
-0.022448638
0.0042898321
-0.019431369
0.0055727142
-0.017967503
0.0063429748
-0.016101512
0.0062310452
-0.012748233
0.0059269931
-0.0092827643
0.0057566796
-0.0063249516
0.005344476
-0.0025441045
0.0046612233
0.0015941456
0.004227277
0.0048020382
0.0040204695
0.0078496326
0.0037117064
0.012066463
0.003347846
0.012235242
0.0035810771
0.01060013
0.0034142758
0.0093127913
0.0030776129
0.0078512375
0.002711418
0.0065209684
0.002358749
0.0055285303
0.0020464354
0.0048684528
0.0017887955
0.0043828964
0.0015751981
0.0039710001
0.0013893173
0.0036136491
0.0012217518
0.0033034553
0.0010676435
0.0030288373
0.00092372594
0.0027811935
0.00078778951
0.0025553677
0.00065870953
0.0023474093
0.00053623343
0.0021542982
0.00042042502
0.0019735201
0.00031112783
0.0018035764
0.0002091465
0.0016424437
0.00011461453
0.0014893968
2.8056418e-05
0.0013432697
-5.0066747e-05
0.0012034084
-0.00011937568
0.0010694003
-0.00017954942
0.0009409571
-0.00023027048
0.00081786422
-0.00027132204
0.00070012868
-0.00030250447
0.00058788925
-0.00032384772
0.00048135448
-0.00033535305
0.00038100416
-0.00033710156
0.00028716504
-0.00032948701
0.00020066804
-0.00031315645
0.00012305414
-0.00028799767
5.3312053e-05
-0.00025418628
-1.2203961e-05
-5.923638e-05
8.4884613e-07
0.00017165747
-8.981595e-06
0.00017644324
-1.9253596e-05
0.00018101815
-3.0080444e-05
0.00018562075
-4.1471628e-05
0.00019093229
-5.3582743e-05
0.00019675858
-6.6420368e-05
0.00020288623
-7.9977962e-05
0.00020931391
-9.4335217e-05
0.0002160161
-0.00010955066
0.00022286464
-0.00012564668
0.00022973388
-0.00014271475
0.0002364729
-0.00016069031
0.00024285562
-0.00017951146
0.00024863473
-0.00019913813
0.00025363477
-0.00021931649
0.00025737624
-0.00023975262
0.00025957052
-0.00026000066
0.00025969831
-0.000279179
0.00025726106
-0.00029649528
0.00025195821
-0.00031059566
0.00024325044
-0.0003198911
0.0002309159
-0.00032245008
0.00021498148
-0.00031526111
0.00019552924
-0.00029561058
0.00017404083
-0.00026055165
0.00015252074
-0.00020572667
0.00013376393
-0.00012933031
0.00012372901
-2.9840977e-05
0.00012947026
9.0674519e-05
0.00016093175
0.0002292906
0.00022958936
0.00038228031
0.00033611997
0.00054930367
0.0004814246
0.00073240324
0.0006651432
0.00093572795
0.00088867035
0.001165366
0.0011549914
0.0014271238
0.0014703841
0.0017280374
0.0018417021
0.0020747419
0.0022731769
0.0024764819
0.0027612701
0.0029520503
0.0033250149
0.0035315679
0.004065251
0.0041549338
0.0050807133
0.0045521608
0.006067805
0.004540547
0.0063468505
0.0042113779
0.0057655847
0.0038062127
0.0038468351
0.0031618038
-0.00039629626
0.0024758257
-0.0059721557
0.0021313685
-0.011920229
0.0023190958
-0.017360256
0.0029713133
-0.021966735
0.0037893071
-0.024420885
0.0044640191
-0.023123349
0.0047681632
-0.019735511
0.0049004393
-0.018099778
0.0044316197
-0.015632691
0.0032817756
-0.011598388
0.0024930376
-0.0084940251
0.0022783638
-0.0061102745
0.00175974
-0.0020254788
0.00081667741
0.0025372078
0.00038070094
0.0052380147
0.0003571119
0.0078732215
0.00069115271
0.011732421
0.0015289525
0.01139744
0.0018858342
0.010243249
0.0020274065
0.0091712232
0.0020102973
0.0078683503
0.0018966946
0.006634572
0.0017212475
0.0057039768
0.0015328027
0.0050568983
0.0013642293
0.0045514698
0.0012147988
0.0041204293
0.0010759893
0.0037524606
0.00094431808
0.0034351311
0.00081828238
0.0031548729
0.00069668685
0.0029027886
0.00057884051
0.0026732167
0.00046480788
0.0024614409
0.00035487158
0.0022642349
0.00024950514
0.0020788843
0.00014952917
0.00190355
5.5302048e-05
0.0017366738
-3.2098917e-05
0.0015767983
-0.00011214796
0.0014233174
-0.00018433539
0.0012755966
-0.00024804427
0.0011331096
-0.00030278252
0.0009956961
-0.00034806743
0.00086314794
-0.0003835258
0.00073558995
-0.0004089528
0.00061332149
-0.00042401987
0.0004964226
-0.00042879426
0.0003857801
-0.00042312126
0.00028149347
-0.00040740915
0.00018495355
-0.00038203446
9.7679027e-05
-0.00034648006
1.775708e-05
-0.00030125159
-5.7433511e-05
-0.00010905392
4.2990873e-06
0.00017981472
-4.773232e-06
0.00018551599
-1.445351e-05
0.00019069785
-2.4712967e-05
0.00019587978
-3.5684792e-05
0.0002019047
-4.7370539e-05
0.0002084458
-5.9868093e-05
0.00021538531
-7.3170429e-05
0.00022261684
-8.7395194e-05
0.0002302404
-0.00010257309
0.00023804207
-0.00011870805
0.00024586947
-0.00013599484
0.00025376136
-0.00015450591
0.00026136851
-0.0001741464
0.00026827645
-0.00019488552
0.00027437414
-0.00021658137
0.0002790711
-0.00023888508
0.00028187212
-0.00026136789
0.00028217874
-0.00028347128
0.00027936282
-0.00030405547
0.00027254171
-0.00032174934
0.00026094374
-0.00033464553
0.00024381085
-0.00034006644
0.00022040067
-0.00033504304
0.00019050461
-0.00031540496
0.00015440246
-0.00027620705
0.00011332282
-0.0002122984
6.9854518e-05
-0.00011883046
3.025905e-05
7.2222862e-06
3.4144929e-06
0.00016060066
7.5502537e-06
0.0003365887
5.3599203e-05
0.00052814474
0.00014456359
0.0007334219
0.00027614838
0.00095568879
0.00044287696
0.0012016566
0.00064270213
0.0014788346
0.00087781276
0.0017948156
0.0011544021
0.0021563374
0.0014801781
0.0025708885
0.0018586229
0.0030482444
0.0022839127
0.0035994077
0.0027738522
0.0042410827
0.003423577
0.0049712194
0.0043505759
0.005681554
0.0053574695
0.0062210022
0.0058074037
0.0065438664
0.0054427221
0.0067854172
0.0036052838
0.006744483
-0.00035536359
0.0065671435
-0.0057948173
0.006402718
-0.011755805
0.0064403594
-0.017397899
0.0066073952
-0.022133771
0.0065314726
-0.024344962
0.0060591903
-0.022651065
0.0054059713
-0.019082289
0.0045071768
-0.017200983
0.0030630721
-0.014188588
0.0017021994
-0.010237515
0.00053040475
-0.007322229
-0.00044663694
-0.0051332317
-0.0014416454
-0.0010304693
-0.0026115517
0.0037071157
-0.0028239702
0.0054504353
-0.0029434614
0.0079927118
-0.0018955142
0.010684471
-0.00074812272
0.010250046
6.5579218e-05
0.0094295469
0.00055695688
0.0086798461
0.00088807591
0.0075372306
0.0010373457
0.0064853028
0.0010459876
0.0056953358
0.00099165903
0.0051112231
0.00092173956
0.0046213875
0.00084222981
0.0041999406
0.0007541978