/*--------------------------------*- C++ -*----------------------------------*\
  =========                 |
  \\      /  F ield         | OpenFOAM: The Open Source CFD Toolbox
   \\    /   O peration     | Website:  https://openfoam.org
    \\  /    A nd           | Version:  9
     \\/     M anipulation  |
\*---------------------------------------------------------------------------*/
FoamFile
{
    format      ascii;
    class       volScalarField;
    location    "0.005";
    object      mag(U);
}
// * * * * * * * * * * * * * * * * * * * * * * * * * * * * * * * * * * * * * //

dimensions      [0 1 -1 0 0 0 0];

internalField   nonuniform List<scalar> 
1000
(
2.47984e-13
2.91746e-13
4.37619e-13
3.64683e-13
4.08444e-13
4.52206e-13
2.04222e-13
1.89635e-13
1.45873e-13
1.02111e-13
1.45873e-14
7.29365e-14
3.05381e-27
7.29365e-14
1.45873e-13
5.83492e-14
7.29365e-14
4.37619e-14
1.31286e-13
1.02111e-13
2.91746e-14
2.1881e-13
2.91746e-14
3.64683e-13
2.1881e-13
3.35508e-13
8.75238e-14
2.91746e-13
2.47984e-13
2.04222e-13
1.45873e-14
1.89635e-13
5.83492e-14
2.04222e-13
5.83492e-14
1.31286e-13
1.75048e-13
2.47984e-13
2.47984e-13
3.06333e-13
2.47984e-13
7.29365e-14
8.75238e-14
7.70244e-27
2.47984e-13
7.29365e-14
1.31286e-13
3.06333e-13
2.91746e-14
3.50095e-13
4.37619e-14
2.47984e-13
1.45873e-14
8.75238e-14
7.29365e-14
1.02111e-13
1.6046e-13
1.75048e-13
2.47984e-13
1.16698e-13
3.35508e-13
2.77159e-13
4.08444e-13
3.20921e-13
3.20921e-13
3.50095e-13
2.62571e-13
5.10556e-13
4.66794e-13
3.06333e-13
3.06333e-13
4.37619e-14
4.52206e-13
2.1881e-13
3.93857e-13
5.83492e-14
2.33397e-13
2.91746e-14
3.7927e-13
2.91746e-14
1.45873e-14
1.31286e-13
2.1881e-13
2.62571e-13
2.1881e-13
2.77159e-13
2.74208e-27
1.45873e-14
5.83492e-14
1.45873e-14
4.37619e-14
8.75238e-14
5.83492e-14
2.26245e-27
1.16698e-13
1.75048e-13
1.6046e-13
2.1881e-13
3.64683e-13
4.37619e-13
4.37619e-13
5.10556e-13
3.06333e-13
5.83492e-13
2.04222e-13
4.95968e-13
2.47984e-13
4.66794e-13
1.75048e-13
1.45873e-13
1.31286e-13
1.6046e-13
1.31286e-13
1.45873e-13
4.18412e-27
2.91746e-14
1.31286e-13
3.7927e-13
1.6046e-13
2.77159e-13
1.02111e-13
3.7927e-13
1.6046e-13
5.10556e-13
4.23032e-13
5.10556e-13
3.20921e-13
3.35508e-13
2.1881e-13
3.50095e-13
8.75238e-14
3.93857e-13
3.20921e-13
3.7927e-13
3.64683e-13
3.35508e-13
3.50095e-13
3.35508e-13
1.31286e-13
1.89635e-13
4.37619e-14
1.31286e-13
1.6046e-13
1.6046e-13
1.45873e-13
4.37619e-14
1.6046e-13
4.37619e-14
4.37619e-14
3.06333e-13
1.6046e-13
2.77159e-13
1.16698e-13
1.6046e-13
4.37619e-14
1.75048e-13
7.29365e-14
3.06333e-13
2.1881e-13
5.25143e-13
3.06333e-13
5.54317e-13
3.93857e-13
5.83492e-13
5.68905e-13
9.04413e-13
7.5854e-13
1.16698e-12
1.02111e-12
1.25451e-12
9.48175e-13
1.23992e-12
9.33587e-13
1.07946e-12
1.16698e-12
1.02111e-12
1.09405e-12
8.75238e-13
1.09405e-12
9.19e-13
1.10863e-12
1.12322e-12
1.35662e-12
1.28368e-12
1.19616e-12
1.32744e-12
1.09405e-12
1.34203e-12
1.34203e-12
1.35662e-12
1.44414e-12
1.31286e-12
1.57543e-12
1.51708e-12
1.7213e-12
1.50249e-12
1.77965e-12
1.57543e-12
1.75048e-12
1.91094e-12
1.50249e-12
2.12975e-12
1.57543e-12
2.02763e-12
1.23992e-12
1.77965e-12
1.41497e-12
1.57543e-12
1.50249e-12
1.6046e-12
1.82341e-12
1.51708e-12
1.64836e-12
1.61919e-12
1.61919e-12
1.53167e-12
1.37121e-12
1.54625e-12
1.21075e-12
1.53167e-12
1.0357e-12
1.19616e-12
8.31476e-13
1.12322e-12
6.56429e-13
1.05029e-12
6.27254e-13
9.33587e-13
1.00652e-12
8.89825e-13
1.12322e-12
9.04413e-13
1.38579e-12
1.51708e-12
2.56736e-12
3.53013e-12
5.89327e-12
1.02986e-11
1.838e-11
3.29527e-11
5.91953e-11
1.06429e-10
1.90437e-10
3.39928e-10
6.03593e-10
1.0669e-09
1.87597e-09
3.28042e-09
5.70667e-09
9.87368e-09
1.69901e-08
2.90767e-08
4.94843e-08
8.37453e-08
1.40924e-07
2.35789e-07
3.92235e-07
6.48675e-07
1.06645e-06
1.74282e-06
2.83102e-06
4.57065e-06
7.33378e-06
1.1694e-05
1.85291e-05
2.9172e-05
4.56319e-05
7.09132e-05
0.000109473
0.000167871
0.000255679
0.000386749
0.000580951
0.000866541
0.00128333
0.00188688
0.00275402
0.00398994
0.00573717
0.00818685
0.0115926
0.016287
0.0227016
0.0313891
0.0430491
0.0585557
0.0789859
0.105649
0.140113
0.184226
0.240135
0.310288
0.397433
0.504591
0.635024
0.79218
0.979623
1.20095
1.4597
1.75927
2.10277
2.49299
2.93232
3.42263
3.9653
4.56115
5.21048
5.91306
6.66818
7.47472
8.33117
9.23574
10.1864
11.1809
12.217
13.2923
14.4044
15.5511
16.73
17.9389
19.1758
20.4387
21.7257
23.0351
24.3653
25.7147
27.0821
28.4661
29.8655
31.2793
32.7066
34.1464
35.5978
37.0602
38.5329
40.0151
41.5064
43.0062
44.5139
46.0292
47.5516
49.0807
50.6161
52.1575
53.7046
55.257
56.8145
58.3768
59.9436
61.5148
63.09
64.6691
66.2519
67.8382
69.4277
71.0204
72.6161
74.2145
75.8156
77.4193
79.0253
80.6336
82.2441
83.8566
85.471
87.0873
88.7053
90.325
91.9462
93.5689
95.193
96.8184
98.4451
100.073
101.702
103.332
104.963
106.595
108.228
109.862
111.496
113.132
114.768
116.404
118.042
119.68
121.318
122.957
124.596
126.236
127.876
129.517
131.158
132.799
134.441
136.082
137.724
139.366
141.009
142.651
144.293
145.936
147.579
149.221
150.864
152.506
154.149
155.791
157.433
159.075
160.717
162.359
164.001
165.641
167.283
168.923
170.564
172.203
173.843
175.481
177.12
178.758
180.395
182.032
183.668
185.304
186.939
188.573
190.206
191.839
193.47
195.101
196.731
198.359
199.987
201.613
203.238
204.862
206.485
208.106
209.725
211.343
212.959
214.573
216.186
217.796
219.404
221.01
222.614
224.215
225.813
227.408
229.001
230.59
232.175
233.757
235.335
236.909
238.478
240.042
241.602
243.156
244.704
246.245
247.781
249.308
250.829
252.341
253.844
255.337
256.82
258.293
259.753
261.201
262.634
264.053
265.456
266.842
268.21
269.558
270.884
272.187
273.466
274.718
275.942
277.136
278.297
279.424
280.514
281.566
282.577
283.545
284.468
285.344
286.172
286.95
287.676
288.351
288.972
289.542
290.059
290.525
290.941
291.309
291.631
291.911
292.15
292.353
292.524
292.665
292.78
292.873
292.946
293.004
293.049
293.083
293.109
293.128
293.142
293.153
293.16
293.165
293.169
293.172
293.174
293.175
293.177
293.178
293.179
293.18
293.18
293.18
293.18
293.18
293.181
293.181
293.181
293.182
293.182
293.182
293.183
293.183
293.184
293.184
293.184
293.185
293.185
293.186
293.186
293.186
293.187
293.187
293.188
293.188
293.188
293.189
293.189
293.189
293.189
293.19
293.19
293.19
293.19
293.191
293.191
293.191
293.191
293.191
293.191
293.191
293.192
293.192
293.192
293.192
293.192
293.192
293.192
293.192
293.192
293.192
293.192
293.192
293.192
293.192
293.192
293.192
293.193
293.193
293.193
293.193
293.193
293.193
293.193
293.193
293.194
293.194
293.194
293.194
293.194
293.195
293.195
293.195
293.196
293.196
293.196
293.196
293.195
293.195
293.194
293.193
293.192
293.192
293.191
293.19
293.19
293.19
293.19
293.189
293.189
293.189
293.189
293.189
293.189
293.189
293.189
293.189
293.189
293.189
293.189
293.189
293.189
293.189
293.189
293.188
293.187
293.185
293.181
293.176
293.17
293.162
293.155
293.147
293.141
293.136
293.133
293.132
293.134
293.138
293.143
293.15
293.156
293.162
293.168
293.173
293.177
293.18
293.182
293.184
293.185
293.185
293.186
293.186
293.186
293.185
293.185
293.185
293.185
293.185
293.184
293.184
293.184
293.183
293.183
293.183
293.183
293.183
293.183
293.183
293.183
293.183
293.183
293.183
293.183
293.182
293.182
293.182
293.181
293.181
293.181
293.18
293.18
293.18
293.18
293.179
293.179
293.179
293.179
293.179
293.179
293.179
293.179
293.179
293.179
293.179
293.178
293.178
293.177
293.177
293.176
293.175
293.175
293.174
293.174
293.174
293.174
293.174
293.174
293.174
293.174
293.173
293.173
293.173
293.173
293.172
293.172
293.171
293.17
293.17
293.169
293.168
293.168
293.167
293.166
293.166
293.166
293.165
293.165
293.165
293.165
293.164
293.164
293.164
293.163
293.163
293.162
293.161
293.161
293.16
293.159
293.158
293.157
293.156
293.155
293.154
293.153
293.152
293.151
293.151
293.15
293.15
293.148
293.146
293.144
293.14
293.133
293.111
293.074
293.005
292.868
292.57
291.932
290.634
287.814
281.182
265.807
231.739
171.269
97.3986
40.6859
13.2687
3.72613
0.966103
0.242703
0.0604049
0.0149988
0.00372225
0.000923644
0.000229189
5.68696e-05
1.41113e-05
3.50151e-06
8.68848e-07
2.15591e-07
5.34953e-08
1.32735e-08
3.29304e-09
8.16657e-10
2.01874e-10
4.96261e-11
1.14656e-11
2.56737e-12
5.83493e-14
1.89635e-13
3.93858e-13
7.29366e-14
4.3762e-14
2.33397e-13
1.75048e-13
3.06334e-13
3.06334e-13
8.75239e-14
4.52207e-13
2.33397e-13
2.62572e-13
2.77159e-13
8.75239e-14
3.93858e-13
3.35508e-13
8.02303e-13
5.68906e-13
1.09405e-12
6.41842e-13
1.0357e-12
4.81382e-13
1.12322e-12
2.1881e-13
7.87715e-13
1.45873e-14
6.41842e-13
2.77159e-13
5.25144e-13
3.7927e-13
3.7927e-13
2.33397e-13
4.81382e-13
2.33397e-13
2.91746e-13
2.33397e-13
1.45873e-14
1.45873e-14
1.31286e-13
2.1881e-13
1.02111e-13
2.33397e-13
1.75048e-13
1.89635e-13
1.75048e-13
2.04222e-13
4.23032e-13
2.62572e-13
4.08445e-13
3.7927e-13
4.08445e-13
3.20921e-13
4.81382e-13
1.16699e-13
5.68906e-13
2.48397e-26
3.7927e-13
1.60461e-13
3.64683e-13
1.31286e-13
1.45873e-13
4.3762e-14
8.75239e-14
1.45873e-14
1.45873e-14
1.60461e-13
1.07285e-28
1.31286e-13
2.91746e-14
3.06334e-13
8.75239e-14
4.3762e-13
1.31286e-13
5.83493e-13
2.47984e-13
5.39731e-13
5.54318e-13
5.83493e-13
2.77159e-13
6.85604e-13
3.20921e-13
2.91746e-13
3.06334e-13
5.83493e-13
6.56429e-13
4.66794e-13
5.83493e-13
3.93858e-13
3.50096e-13
2.47984e-13
3.20921e-13
1.02111e-13
3.35508e-13
2.91746e-14
2.62572e-13
1.89635e-13
4.3762e-14
2.04222e-13
1.75048e-13
4.3762e-14
1.31286e-13
2.04222e-13
8.75239e-14
4.3762e-14
2.91746e-14
2.91746e-14
7.29366e-14
1.16699e-13
7.29366e-14
1.75048e-13
1.89635e-13
1.31286e-13
2.04222e-13
1.31286e-13
2.62572e-13
1.02111e-13
2.77159e-13
1.45873e-14
1.45873e-13
2.91746e-14
1.45873e-13
1.02111e-13
1.31286e-13
2.91746e-14
1.16699e-13
2.47984e-13
1.45873e-13
1.45873e-13
1.60461e-13
2.62572e-13
3.06334e-13
5.83493e-14
8.75239e-14
1.45873e-14
4.3762e-14
2.62572e-13
1.16699e-13
1.16699e-13
1.89635e-13
1.45873e-14
2.04222e-13
1.31286e-13
2.04222e-13
1.02111e-13
1.31286e-13
2.33397e-13
4.3762e-14
2.91746e-14
1.16699e-13
1.45873e-13
4.53753e-27
4.3762e-14
1.45873e-13
2.47984e-13
2.91746e-13
1.45873e-14
4.19822e-27
2.1881e-13
2.91746e-14
1.75048e-13
1.45873e-13
3.06334e-13
1.02111e-13
3.35508e-13
4.3762e-14
3.50096e-13
3.06334e-13
3.20921e-13
4.3762e-14
3.20921e-13
2.1881e-13
3.64683e-13
2.77159e-13
1.75048e-13
5.83493e-14
2.91746e-14
1.89635e-13
1.02111e-13
1.60461e-13
5.83493e-14
2.91746e-14
1.45873e-13
1.75048e-13
4.3762e-14
4.3762e-14
1.16699e-13
2.03978e-26
1.75048e-13
2.91746e-14
2.91746e-13
2.91746e-14
7.29366e-14
1.45873e-14
4.08445e-13
7.29366e-14
5.83493e-13
2.62572e-13
4.23032e-13
)
;

boundaryField
{
    sides
    {
        type            calculated;
        value           nonuniform List<scalar> 2(4.23032e-13 2.47984e-13);
    }
    empty
    {
        type            empty;
    }
}


// ************************************************************************* //
