/*--------------------------------*- C++ -*----------------------------------*\
  =========                 |
  \\      /  F ield         | OpenFOAM: The Open Source CFD Toolbox
   \\    /   O peration     | Website:  https://openfoam.org
    \\  /    A nd           | Version:  9
     \\/     M anipulation  |
\*---------------------------------------------------------------------------*/
FoamFile
{
    format      ascii;
    class       volVectorField;
    location    "0.005";
    object      U;
}
// * * * * * * * * * * * * * * * * * * * * * * * * * * * * * * * * * * * * * //

dimensions      [0 1 -1 0 0 0 0];

internalField   nonuniform List<vector> 
1000
(
(2.47984e-13 0 0)
(2.91746e-13 0 0)
(4.37619e-13 0 0)
(3.64683e-13 0 0)
(4.08444e-13 0 0)
(4.52206e-13 0 0)
(2.04222e-13 0 0)
(1.89635e-13 0 0)
(1.45873e-13 0 0)
(1.02111e-13 0 0)
(1.45873e-14 0 0)
(-7.29365e-14 0 0)
(-3.05381e-27 0 0)
(-7.29365e-14 0 0)
(1.45873e-13 0 0)
(5.83492e-14 0 0)
(7.29365e-14 0 0)
(-4.37619e-14 0 0)
(1.31286e-13 0 0)
(1.02111e-13 0 0)
(-2.91746e-14 0 0)
(2.1881e-13 0 0)
(2.91746e-14 0 0)
(3.64683e-13 0 0)
(2.1881e-13 0 0)
(3.35508e-13 0 0)
(8.75238e-14 0 0)
(2.91746e-13 0 0)
(2.47984e-13 0 0)
(2.04222e-13 0 0)
(-1.45873e-14 0 0)
(1.89635e-13 0 0)
(5.83492e-14 0 0)
(2.04222e-13 0 0)
(5.83492e-14 0 0)
(1.31286e-13 0 0)
(1.75048e-13 0 0)
(2.47984e-13 0 0)
(2.47984e-13 0 0)
(3.06333e-13 0 0)
(2.47984e-13 0 0)
(7.29365e-14 0 0)
(8.75238e-14 0 0)
(7.70244e-27 0 0)
(2.47984e-13 0 0)
(-7.29365e-14 0 0)
(1.31286e-13 0 0)
(-3.06333e-13 0 0)
(-2.91746e-14 0 0)
(-3.50095e-13 0 0)
(-4.37619e-14 0 0)
(-2.47984e-13 0 0)
(-1.45873e-14 0 0)
(-8.75238e-14 0 0)
(-7.29365e-14 0 0)
(-1.02111e-13 0 0)
(-1.6046e-13 0 0)
(-1.75048e-13 0 0)
(-2.47984e-13 0 0)
(-1.16698e-13 0 0)
(-3.35508e-13 0 0)
(-2.77159e-13 0 0)
(-4.08444e-13 0 0)
(-3.20921e-13 0 0)
(-3.20921e-13 0 0)
(-3.50095e-13 0 0)
(-2.62571e-13 0 0)
(-5.10556e-13 0 0)
(-4.66794e-13 0 0)
(-3.06333e-13 0 0)
(-3.06333e-13 0 0)
(-4.37619e-14 0 0)
(-4.52206e-13 0 0)
(-2.1881e-13 0 0)
(-3.93857e-13 0 0)
(-5.83492e-14 0 0)
(-2.33397e-13 0 0)
(2.91746e-14 0 0)
(-3.7927e-13 0 0)
(-2.91746e-14 0 0)
(-1.45873e-14 0 0)
(-1.31286e-13 0 0)
(-2.1881e-13 0 0)
(-2.62571e-13 0 0)
(-2.1881e-13 0 0)
(-2.77159e-13 0 0)
(-2.74208e-27 0 0)
(-1.45873e-14 0 0)
(5.83492e-14 0 0)
(1.45873e-14 0 0)
(4.37619e-14 0 0)
(8.75238e-14 0 0)
(-5.83492e-14 0 0)
(2.26245e-27 0 0)
(1.16698e-13 0 0)
(1.75048e-13 0 0)
(1.6046e-13 0 0)
(2.1881e-13 0 0)
(3.64683e-13 0 0)
(4.37619e-13 0 0)
(4.37619e-13 0 0)
(5.10556e-13 0 0)
(3.06333e-13 0 0)
(5.83492e-13 0 0)
(2.04222e-13 0 0)
(4.95968e-13 0 0)
(2.47984e-13 0 0)
(4.66794e-13 0 0)
(1.75048e-13 0 0)
(1.45873e-13 0 0)
(1.31286e-13 0 0)
(1.6046e-13 0 0)
(-1.31286e-13 0 0)
(1.45873e-13 0 0)
(4.18412e-27 0 0)
(-2.91746e-14 0 0)
(1.31286e-13 0 0)
(3.7927e-13 0 0)
(1.6046e-13 0 0)
(2.77159e-13 0 0)
(1.02111e-13 0 0)
(3.7927e-13 0 0)
(1.6046e-13 0 0)
(5.10556e-13 0 0)
(4.23032e-13 0 0)
(5.10556e-13 0 0)
(3.20921e-13 0 0)
(3.35508e-13 0 0)
(2.1881e-13 0 0)
(3.50095e-13 0 0)
(8.75238e-14 0 0)
(3.93857e-13 0 0)
(3.20921e-13 0 0)
(3.7927e-13 0 0)
(3.64683e-13 0 0)
(3.35508e-13 0 0)
(3.50095e-13 0 0)
(3.35508e-13 0 0)
(1.31286e-13 0 0)
(1.89635e-13 0 0)
(-4.37619e-14 0 0)
(-1.31286e-13 0 0)
(-1.6046e-13 0 0)
(-1.6046e-13 0 0)
(-1.45873e-13 0 0)
(4.37619e-14 0 0)
(-1.6046e-13 0 0)
(4.37619e-14 0 0)
(-4.37619e-14 0 0)
(3.06333e-13 0 0)
(1.6046e-13 0 0)
(2.77159e-13 0 0)
(1.16698e-13 0 0)
(1.6046e-13 0 0)
(4.37619e-14 0 0)
(1.75048e-13 0 0)
(7.29365e-14 0 0)
(3.06333e-13 0 0)
(2.1881e-13 0 0)
(5.25143e-13 0 0)
(3.06333e-13 0 0)
(5.54317e-13 0 0)
(3.93857e-13 0 0)
(5.83492e-13 0 0)
(5.68905e-13 0 0)
(9.04413e-13 0 0)
(7.5854e-13 0 0)
(1.16698e-12 0 0)
(1.02111e-12 0 0)
(1.25451e-12 0 0)
(9.48175e-13 0 0)
(1.23992e-12 0 0)
(9.33587e-13 0 0)
(1.07946e-12 0 0)
(1.16698e-12 0 0)
(1.02111e-12 0 0)
(1.09405e-12 0 0)
(8.75238e-13 0 0)
(1.09405e-12 0 0)
(9.19e-13 0 0)
(1.10863e-12 0 0)
(1.12322e-12 0 0)
(1.35662e-12 0 0)
(1.28368e-12 0 0)
(1.19616e-12 0 0)
(1.32744e-12 0 0)
(1.09405e-12 0 0)
(1.34203e-12 0 0)
(1.34203e-12 0 0)
(1.35662e-12 0 0)
(1.44414e-12 0 0)
(1.31286e-12 0 0)
(1.57543e-12 0 0)
(1.51708e-12 0 0)
(1.7213e-12 0 0)
(1.50249e-12 0 0)
(1.77965e-12 0 0)
(1.57543e-12 0 0)
(1.75048e-12 0 0)
(1.91094e-12 0 0)
(1.50249e-12 0 0)
(2.12975e-12 0 0)
(1.57543e-12 0 0)
(2.02763e-12 0 0)
(1.23992e-12 0 0)
(1.77965e-12 0 0)
(1.41497e-12 0 0)
(1.57543e-12 0 0)
(1.50249e-12 0 0)
(1.6046e-12 0 0)
(1.82341e-12 0 0)
(1.51708e-12 0 0)
(1.64836e-12 0 0)
(1.61919e-12 0 0)
(1.61919e-12 0 0)
(1.53167e-12 0 0)
(1.37121e-12 0 0)
(1.54625e-12 0 0)
(1.21075e-12 0 0)
(1.53167e-12 0 0)
(1.0357e-12 0 0)
(1.19616e-12 0 0)
(8.31476e-13 0 0)
(1.12322e-12 0 0)
(6.56429e-13 0 0)
(1.05029e-12 0 0)
(6.27254e-13 0 0)
(9.33587e-13 0 0)
(1.00652e-12 0 0)
(8.89825e-13 0 0)
(1.12322e-12 0 0)
(9.04413e-13 0 0)
(1.38579e-12 0 0)
(1.51708e-12 0 0)
(2.56736e-12 0 0)
(3.53013e-12 0 0)
(5.89327e-12 0 0)
(1.02986e-11 0 0)
(1.838e-11 0 0)
(3.29527e-11 0 0)
(5.91953e-11 0 0)
(1.06429e-10 0 0)
(1.90437e-10 0 0)
(3.39928e-10 0 0)
(6.03593e-10 0 0)
(1.0669e-09 0 0)
(1.87597e-09 0 0)
(3.28042e-09 0 0)
(5.70667e-09 0 0)
(9.87368e-09 0 0)
(1.69901e-08 0 0)
(2.90767e-08 0 0)
(4.94843e-08 0 0)
(8.37453e-08 0 0)
(1.40924e-07 0 0)
(2.35789e-07 0 0)
(3.92235e-07 0 0)
(6.48675e-07 0 0)
(1.06645e-06 0 0)
(1.74282e-06 0 0)
(2.83102e-06 0 0)
(4.57065e-06 0 0)
(7.33378e-06 0 0)
(1.1694e-05 0 0)
(1.85291e-05 0 0)
(2.9172e-05 0 0)
(4.56319e-05 0 0)
(7.09132e-05 0 0)
(0.000109473 0 0)
(0.000167871 0 0)
(0.000255679 0 0)
(0.000386749 0 0)
(0.000580951 0 0)
(0.000866541 0 0)
(0.00128333 0 0)
(0.00188688 0 0)
(0.00275402 0 0)
(0.00398994 0 0)
(0.00573717 0 0)
(0.00818685 0 0)
(0.0115926 0 0)
(0.016287 0 0)
(0.0227016 0 0)
(0.0313891 0 0)
(0.0430491 0 0)
(0.0585557 0 0)
(0.0789859 0 0)
(0.105649 0 0)
(0.140113 0 0)
(0.184226 0 0)
(0.240135 0 0)
(0.310288 0 0)
(0.397433 0 0)
(0.504591 0 0)
(0.635024 0 0)
(0.79218 0 0)
(0.979623 0 0)
(1.20095 0 0)
(1.4597 0 0)
(1.75927 0 0)
(2.10277 0 0)
(2.49299 0 0)
(2.93232 0 0)
(3.42263 0 0)
(3.9653 0 0)
(4.56115 0 0)
(5.21048 0 0)
(5.91306 0 0)
(6.66818 0 0)
(7.47472 0 0)
(8.33117 0 0)
(9.23574 0 0)
(10.1864 0 0)
(11.1809 0 0)
(12.217 0 0)
(13.2923 0 0)
(14.4044 0 0)
(15.5511 0 0)
(16.73 0 0)
(17.9389 0 0)
(19.1758 0 0)
(20.4387 0 0)
(21.7257 0 0)
(23.0351 0 0)
(24.3653 0 0)
(25.7147 0 0)
(27.0821 0 0)
(28.4661 0 0)
(29.8655 0 0)
(31.2793 0 0)
(32.7066 0 0)
(34.1464 0 0)
(35.5978 0 0)
(37.0602 0 0)
(38.5329 0 0)
(40.0151 0 0)
(41.5064 0 0)
(43.0062 0 0)
(44.5139 0 0)
(46.0292 0 0)
(47.5516 0 0)
(49.0807 0 0)
(50.6161 0 0)
(52.1575 0 0)
(53.7046 0 0)
(55.257 0 0)
(56.8145 0 0)
(58.3768 0 0)
(59.9436 0 0)
(61.5148 0 0)
(63.09 0 0)
(64.6691 0 0)
(66.2519 0 0)
(67.8382 0 0)
(69.4277 0 0)
(71.0204 0 0)
(72.6161 0 0)
(74.2145 0 0)
(75.8156 0 0)
(77.4193 0 0)
(79.0253 0 0)
(80.6336 0 0)
(82.2441 0 0)
(83.8566 0 0)
(85.471 0 0)
(87.0873 0 0)
(88.7053 0 0)
(90.325 0 0)
(91.9462 0 0)
(93.5689 0 0)
(95.193 0 0)
(96.8184 0 0)
(98.4451 0 0)
(100.073 0 0)
(101.702 0 0)
(103.332 0 0)
(104.963 0 0)
(106.595 0 0)
(108.228 0 0)
(109.862 0 0)
(111.496 0 0)
(113.132 0 0)
(114.768 0 0)
(116.404 0 0)
(118.042 0 0)
(119.68 0 0)
(121.318 0 0)
(122.957 0 0)
(124.596 0 0)
(126.236 0 0)
(127.876 0 0)
(129.517 0 0)
(131.158 0 0)
(132.799 0 0)
(134.441 0 0)
(136.082 0 0)
(137.724 0 0)
(139.366 0 0)
(141.009 0 0)
(142.651 0 0)
(144.293 0 0)
(145.936 0 0)
(147.579 0 0)
(149.221 0 0)
(150.864 0 0)
(152.506 0 0)
(154.149 0 0)
(155.791 0 0)
(157.433 0 0)
(159.075 0 0)
(160.717 0 0)
(162.359 0 0)
(164.001 0 0)
(165.641 0 0)
(167.283 0 0)
(168.923 0 0)
(170.564 0 0)
(172.203 0 0)
(173.843 0 0)
(175.481 0 0)
(177.12 0 0)
(178.758 0 0)
(180.395 0 0)
(182.032 0 0)
(183.668 0 0)
(185.304 0 0)
(186.939 0 0)
(188.573 0 0)
(190.206 0 0)
(191.839 0 0)
(193.47 0 0)
(195.101 0 0)
(196.731 0 0)
(198.359 0 0)
(199.987 0 0)
(201.613 0 0)
(203.238 0 0)
(204.862 0 0)
(206.485 0 0)
(208.106 0 0)
(209.725 0 0)
(211.343 0 0)
(212.959 0 0)
(214.573 0 0)
(216.186 0 0)
(217.796 0 0)
(219.404 0 0)
(221.01 0 0)
(222.614 0 0)
(224.215 0 0)
(225.813 0 0)
(227.408 0 0)
(229.001 0 0)
(230.59 0 0)
(232.175 0 0)
(233.757 0 0)
(235.335 0 0)
(236.909 0 0)
(238.478 0 0)
(240.042 0 0)
(241.602 0 0)
(243.156 0 0)
(244.704 0 0)
(246.245 0 0)
(247.781 0 0)
(249.308 0 0)
(250.829 0 0)
(252.341 0 0)
(253.844 0 0)
(255.337 0 0)
(256.82 0 0)
(258.293 0 0)
(259.753 0 0)
(261.201 0 0)
(262.634 0 0)
(264.053 0 0)
(265.456 0 0)
(266.842 0 0)
(268.21 0 0)
(269.558 0 0)
(270.884 0 0)
(272.187 0 0)
(273.466 0 0)
(274.718 0 0)
(275.942 0 0)
(277.136 0 0)
(278.297 0 0)
(279.424 0 0)
(280.514 0 0)
(281.566 0 0)
(282.577 0 0)
(283.545 0 0)
(284.468 0 0)
(285.344 0 0)
(286.172 0 0)
(286.95 0 0)
(287.676 0 0)
(288.351 0 0)
(288.972 0 0)
(289.542 0 0)
(290.059 0 0)
(290.525 0 0)
(290.941 0 0)
(291.309 0 0)
(291.631 0 0)
(291.911 0 0)
(292.15 0 0)
(292.353 0 0)
(292.524 0 0)
(292.665 0 0)
(292.78 0 0)
(292.873 0 0)
(292.946 0 0)
(293.004 0 0)
(293.049 0 0)
(293.083 0 0)
(293.109 0 0)
(293.128 0 0)
(293.142 0 0)
(293.153 0 0)
(293.16 0 0)
(293.165 0 0)
(293.169 0 0)
(293.172 0 0)
(293.174 0 0)
(293.175 0 0)
(293.177 0 0)
(293.178 0 0)
(293.179 0 0)
(293.18 0 0)
(293.18 0 0)
(293.18 0 0)
(293.18 0 0)
(293.18 0 0)
(293.181 0 0)
(293.181 0 0)
(293.181 0 0)
(293.182 0 0)
(293.182 0 0)
(293.182 0 0)
(293.183 0 0)
(293.183 0 0)
(293.184 0 0)
(293.184 0 0)
(293.184 0 0)
(293.185 0 0)
(293.185 0 0)
(293.186 0 0)
(293.186 0 0)
(293.186 0 0)
(293.187 0 0)
(293.187 0 0)
(293.188 0 0)
(293.188 0 0)
(293.188 0 0)
(293.189 0 0)
(293.189 0 0)
(293.189 0 0)
(293.189 0 0)
(293.19 0 0)
(293.19 0 0)
(293.19 0 0)
(293.19 0 0)
(293.191 0 0)
(293.191 0 0)
(293.191 0 0)
(293.191 0 0)
(293.191 0 0)
(293.191 0 0)
(293.191 0 0)
(293.192 0 0)
(293.192 0 0)
(293.192 0 0)
(293.192 0 0)
(293.192 0 0)
(293.192 0 0)
(293.192 0 0)
(293.192 0 0)
(293.192 0 0)
(293.192 0 0)
(293.192 0 0)
(293.192 0 0)
(293.192 0 0)
(293.192 0 0)
(293.192 0 0)
(293.192 0 0)
(293.193 0 0)
(293.193 0 0)
(293.193 0 0)
(293.193 0 0)
(293.193 0 0)
(293.193 0 0)
(293.193 0 0)
(293.193 0 0)
(293.194 0 0)
(293.194 0 0)
(293.194 0 0)
(293.194 0 0)
(293.194 0 0)
(293.195 0 0)
(293.195 0 0)
(293.195 0 0)
(293.196 0 0)
(293.196 0 0)
(293.196 0 0)
(293.196 0 0)
(293.195 0 0)
(293.195 0 0)
(293.194 0 0)
(293.193 0 0)
(293.192 0 0)
(293.192 0 0)
(293.191 0 0)
(293.19 0 0)
(293.19 0 0)
(293.19 0 0)
(293.19 0 0)
(293.189 0 0)
(293.189 0 0)
(293.189 0 0)
(293.189 0 0)
(293.189 0 0)
(293.189 0 0)
(293.189 0 0)
(293.189 0 0)
(293.189 0 0)
(293.189 0 0)
(293.189 0 0)
(293.189 0 0)
(293.189 0 0)
(293.189 0 0)
(293.189 0 0)
(293.189 0 0)
(293.188 0 0)
(293.187 0 0)
(293.185 0 0)
(293.181 0 0)
(293.176 0 0)
(293.17 0 0)
(293.162 0 0)
(293.155 0 0)
(293.147 0 0)
(293.141 0 0)
(293.136 0 0)
(293.133 0 0)
(293.132 0 0)
(293.134 0 0)
(293.138 0 0)
(293.143 0 0)
(293.15 0 0)
(293.156 0 0)
(293.162 0 0)
(293.168 0 0)
(293.173 0 0)
(293.177 0 0)
(293.18 0 0)
(293.182 0 0)
(293.184 0 0)
(293.185 0 0)
(293.185 0 0)
(293.186 0 0)
(293.186 0 0)
(293.186 0 0)
(293.185 0 0)
(293.185 0 0)
(293.185 0 0)
(293.185 0 0)
(293.185 0 0)
(293.184 0 0)
(293.184 0 0)
(293.184 0 0)
(293.183 0 0)
(293.183 0 0)
(293.183 0 0)
(293.183 0 0)
(293.183 0 0)
(293.183 0 0)
(293.183 0 0)
(293.183 0 0)
(293.183 0 0)
(293.183 0 0)
(293.183 0 0)
(293.183 0 0)
(293.182 0 0)
(293.182 0 0)
(293.182 0 0)
(293.181 0 0)
(293.181 0 0)
(293.181 0 0)
(293.18 0 0)
(293.18 0 0)
(293.18 0 0)
(293.18 0 0)
(293.179 0 0)
(293.179 0 0)
(293.179 0 0)
(293.179 0 0)
(293.179 0 0)
(293.179 0 0)
(293.179 0 0)
(293.179 0 0)
(293.179 0 0)
(293.179 0 0)
(293.179 0 0)
(293.178 0 0)
(293.178 0 0)
(293.177 0 0)
(293.177 0 0)
(293.176 0 0)
(293.175 0 0)
(293.175 0 0)
(293.174 0 0)
(293.174 0 0)
(293.174 0 0)
(293.174 0 0)
(293.174 0 0)
(293.174 0 0)
(293.174 0 0)
(293.174 0 0)
(293.173 0 0)
(293.173 0 0)
(293.173 0 0)
(293.173 0 0)
(293.172 0 0)
(293.172 0 0)
(293.171 0 0)
(293.17 0 0)
(293.17 0 0)
(293.169 0 0)
(293.168 0 0)
(293.168 0 0)
(293.167 0 0)
(293.166 0 0)
(293.166 0 0)
(293.166 0 0)
(293.165 0 0)
(293.165 0 0)
(293.165 0 0)
(293.165 0 0)
(293.164 0 0)
(293.164 0 0)
(293.164 0 0)
(293.163 0 0)
(293.163 0 0)
(293.162 0 0)
(293.161 0 0)
(293.161 0 0)
(293.16 0 0)
(293.159 0 0)
(293.158 0 0)
(293.157 0 0)
(293.156 0 0)
(293.155 0 0)
(293.154 0 0)
(293.153 0 0)
(293.152 0 0)
(293.151 0 0)
(293.151 0 0)
(293.15 0 0)
(293.15 0 0)
(293.148 0 0)
(293.146 0 0)
(293.144 0 0)
(293.14 0 0)
(293.133 0 0)
(293.111 0 0)
(293.074 0 0)
(293.005 0 0)
(292.868 0 0)
(292.57 0 0)
(291.932 0 0)
(290.634 0 0)
(287.814 0 0)
(281.182 0 0)
(265.807 0 0)
(231.739 0 0)
(171.269 0 0)
(97.3986 0 0)
(40.6859 0 0)
(13.2687 0 0)
(3.72613 0 0)
(0.966103 0 0)
(0.242703 0 0)
(0.0604049 0 0)
(0.0149988 0 0)
(0.00372225 0 0)
(0.000923644 0 0)
(0.000229189 0 0)
(5.68696e-05 0 0)
(1.41113e-05 0 0)
(3.50151e-06 0 0)
(8.68848e-07 0 0)
(2.15591e-07 0 0)
(5.34953e-08 0 0)
(1.32735e-08 0 0)
(3.29304e-09 0 0)
(8.16657e-10 0 0)
(2.01874e-10 0 0)
(4.96261e-11 0 0)
(1.14656e-11 0 0)
(2.56737e-12 0 0)
(-5.83493e-14 0 0)
(-1.89635e-13 0 0)
(-3.93858e-13 0 0)
(-7.29366e-14 0 0)
(-4.3762e-14 0 0)
(-2.33397e-13 0 0)
(-1.75048e-13 0 0)
(-3.06334e-13 0 0)
(-3.06334e-13 0 0)
(-8.75239e-14 0 0)
(-4.52207e-13 0 0)
(-2.33397e-13 0 0)
(-2.62572e-13 0 0)
(-2.77159e-13 0 0)
(-8.75239e-14 0 0)
(-3.93858e-13 0 0)
(-3.35508e-13 0 0)
(-8.02303e-13 0 0)
(-5.68906e-13 0 0)
(-1.09405e-12 0 0)
(-6.41842e-13 0 0)
(-1.0357e-12 0 0)
(-4.81382e-13 0 0)
(-1.12322e-12 0 0)
(-2.1881e-13 0 0)
(-7.87715e-13 0 0)
(1.45873e-14 0 0)
(-6.41842e-13 0 0)
(2.77159e-13 0 0)
(-5.25144e-13 0 0)
(3.7927e-13 0 0)
(-3.7927e-13 0 0)
(2.33397e-13 0 0)
(-4.81382e-13 0 0)
(2.33397e-13 0 0)
(-2.91746e-13 0 0)
(2.33397e-13 0 0)
(-1.45873e-14 0 0)
(-1.45873e-14 0 0)
(-1.31286e-13 0 0)
(-2.1881e-13 0 0)
(-1.02111e-13 0 0)
(-2.33397e-13 0 0)
(1.75048e-13 0 0)
(-1.89635e-13 0 0)
(1.75048e-13 0 0)
(-2.04222e-13 0 0)
(4.23032e-13 0 0)
(-2.62572e-13 0 0)
(4.08445e-13 0 0)
(-3.7927e-13 0 0)
(4.08445e-13 0 0)
(-3.20921e-13 0 0)
(4.81382e-13 0 0)
(-1.16699e-13 0 0)
(5.68906e-13 0 0)
(2.48397e-26 0 0)
(3.7927e-13 0 0)
(-1.60461e-13 0 0)
(3.64683e-13 0 0)
(-1.31286e-13 0 0)
(1.45873e-13 0 0)
(-4.3762e-14 0 0)
(8.75239e-14 0 0)
(1.45873e-14 0 0)
(-1.45873e-14 0 0)
(-1.60461e-13 0 0)
(1.07285e-28 0 0)
(1.31286e-13 0 0)
(-2.91746e-14 0 0)
(3.06334e-13 0 0)
(-8.75239e-14 0 0)
(4.3762e-13 0 0)
(-1.31286e-13 0 0)
(5.83493e-13 0 0)
(-2.47984e-13 0 0)
(5.39731e-13 0 0)
(-5.54318e-13 0 0)
(5.83493e-13 0 0)
(-2.77159e-13 0 0)
(6.85604e-13 0 0)
(-3.20921e-13 0 0)
(2.91746e-13 0 0)
(-3.06334e-13 0 0)
(5.83493e-13 0 0)
(-6.56429e-13 0 0)
(4.66794e-13 0 0)
(-5.83493e-13 0 0)
(3.93858e-13 0 0)
(-3.50096e-13 0 0)
(2.47984e-13 0 0)
(-3.20921e-13 0 0)
(1.02111e-13 0 0)
(-3.35508e-13 0 0)
(2.91746e-14 0 0)
(-2.62572e-13 0 0)
(1.89635e-13 0 0)
(-4.3762e-14 0 0)
(2.04222e-13 0 0)
(1.75048e-13 0 0)
(-4.3762e-14 0 0)
(1.31286e-13 0 0)
(-2.04222e-13 0 0)
(-8.75239e-14 0 0)
(-4.3762e-14 0 0)
(2.91746e-14 0 0)
(2.91746e-14 0 0)
(-7.29366e-14 0 0)
(1.16699e-13 0 0)
(7.29366e-14 0 0)
(1.75048e-13 0 0)
(1.89635e-13 0 0)
(1.31286e-13 0 0)
(2.04222e-13 0 0)
(1.31286e-13 0 0)
(2.62572e-13 0 0)
(1.02111e-13 0 0)
(2.77159e-13 0 0)
(1.45873e-14 0 0)
(1.45873e-13 0 0)
(-2.91746e-14 0 0)
(1.45873e-13 0 0)
(1.02111e-13 0 0)
(1.31286e-13 0 0)
(-2.91746e-14 0 0)
(1.16699e-13 0 0)
(-2.47984e-13 0 0)
(-1.45873e-13 0 0)
(-1.45873e-13 0 0)
(1.60461e-13 0 0)
(-2.62572e-13 0 0)
(3.06334e-13 0 0)
(5.83493e-14 0 0)
(-8.75239e-14 0 0)
(-1.45873e-14 0 0)
(4.3762e-14 0 0)
(2.62572e-13 0 0)
(-1.16699e-13 0 0)
(1.16699e-13 0 0)
(-1.89635e-13 0 0)
(1.45873e-14 0 0)
(-2.04222e-13 0 0)
(1.31286e-13 0 0)
(-2.04222e-13 0 0)
(-1.02111e-13 0 0)
(-1.31286e-13 0 0)
(-2.33397e-13 0 0)
(-4.3762e-14 0 0)
(2.91746e-14 0 0)
(-1.16699e-13 0 0)
(-1.45873e-13 0 0)
(-4.53753e-27 0 0)
(-4.3762e-14 0 0)
(-1.45873e-13 0 0)
(-2.47984e-13 0 0)
(-2.91746e-13 0 0)
(-1.45873e-14 0 0)
(-4.19822e-27 0 0)
(-2.1881e-13 0 0)
(2.91746e-14 0 0)
(-1.75048e-13 0 0)
(-1.45873e-13 0 0)
(-3.06334e-13 0 0)
(-1.02111e-13 0 0)
(-3.35508e-13 0 0)
(4.3762e-14 0 0)
(-3.50096e-13 0 0)
(3.06334e-13 0 0)
(-3.20921e-13 0 0)
(4.3762e-14 0 0)
(-3.20921e-13 0 0)
(-2.1881e-13 0 0)
(-3.64683e-13 0 0)
(-2.77159e-13 0 0)
(-1.75048e-13 0 0)
(5.83493e-14 0 0)
(-2.91746e-14 0 0)
(-1.89635e-13 0 0)
(-1.02111e-13 0 0)
(-1.60461e-13 0 0)
(5.83493e-14 0 0)
(2.91746e-14 0 0)
(-1.45873e-13 0 0)
(-1.75048e-13 0 0)
(-4.3762e-14 0 0)
(4.3762e-14 0 0)
(1.16699e-13 0 0)
(-2.03978e-26 0 0)
(-1.75048e-13 0 0)
(-2.91746e-14 0 0)
(-2.91746e-13 0 0)
(-2.91746e-14 0 0)
(-7.29366e-14 0 0)
(1.45873e-14 0 0)
(-4.08445e-13 0 0)
(-7.29366e-14 0 0)
(-5.83493e-13 0 0)
(-2.62572e-13 0 0)
(-4.23032e-13 0 0)
)
;

boundaryField
{
    sides
    {
        type            zeroGradient;
    }
    empty
    {
        type            empty;
    }
}


// ************************************************************************* //
