/*--------------------------------*- C++ -*----------------------------------*\
  =========                 |
  \\      /  F ield         | OpenFOAM: The Open Source CFD Toolbox
   \\    /   O peration     | Website:  https://openfoam.org
    \\  /    A nd           | Version:  9
     \\/     M anipulation  |
\*---------------------------------------------------------------------------*/
FoamFile
{
    format      ascii;
    class       volScalarField;
    location    "11";
    object      p;
}
// * * * * * * * * * * * * * * * * * * * * * * * * * * * * * * * * * * * * * //

dimensions      [0 2 -2 0 0 0 0];

internalField   nonuniform List<scalar> 
1000
(
1.6755942
1.5545163
1.4585358
1.3948797
1.3463702
1.3038982
1.2663629
1.2341912
1.2067908
1.1829533
1.1615589
1.1417951
1.123118
1.1051784
1.0877631
1.0707489
1.054068
1.0376838
1.0215757
1.0057297
0.99013476
0.97477965
0.95965295
0.94474271
0.9300367
0.91552271
0.90118875
0.88702325
0.87301519
0.85915419
0.84543048
0.83183493
0.81835902
0.80499485
0.79173501
0.77857265
0.76550135
0.75251515
0.73960848
0.72677617
0.71401337
0.70131555
0.68867851
0.67609828
0.6635712
0.65109381
0.63866288
0.6262754
0.61392856
0.60161971
0.58934639
0.57710628
0.56489724
0.55271725
0.54056442
0.52843698
0.51633328
0.50425178
0.49219102
0.48014964
0.4681264
0.45612009
0.44412963
0.43215397
0.42019216
0.40824329
0.3963065
0.38438102
0.37246609
0.36056102
0.34866516
0.33677791
0.32489872
0.31302705
0.30116243
0.28930438
0.27745248
0.26560631
0.25376549
0.24192967
0.23009853
0.21827176
0.20644909
0.19463025
0.182815
0.1710031
0.15919432
0.14738847
0.13558535
0.12378478
0.11198661
0.10019069
0.088396884
0.076605071
0.064815115
0.053026901
0.041240343
0.029455276
0.017671845
0.0058894861
1.5583745
1.5034455
1.442493
1.3909252
1.3476552
1.3086869
1.2731006
1.241328
1.2133671
1.1885892
1.1661874
1.145486
1.1260044
1.1074163
1.0895028
1.072118
1.0551662
1.0385848
1.0223321
1.0063786
0.99070158
0.97528204
0.96010318
0.94514952
0.93040646
0.91586024
0.90149784
0.88730697
0.87327614
0.85939456
0.84565219
0.83203968
0.81854832
0.80517003
0.79189727
0.77872307
0.76564089
0.7526447
0.73972883
0.72688803
0.71411738
0.70141232
0.68876857
0.67618213
0.66364929
0.65116656
0.63873067
0.62633859
0.61398747
0.60167464
0.58939762
0.57715407
0.56494182
0.55275884
0.54060322
0.52847319
0.51636708
0.50428332
0.49222046
0.48017713
0.46815206
0.45614405
0.44415199
0.43217485
0.42021165
0.40826148
0.3963235
0.38439689
0.37248091
0.36057486
0.34867809
0.33678999
0.32490999
0.31303758
0.30117225
0.28931356
0.27746105
0.26561432
0.25377297
0.24193666
0.23010506
0.21827785
0.20645477
0.19463555
0.18281994
0.17100771
0.15919862
0.14739249
0.13558909
0.12378826
0.11198984
0.10019369
0.088399655
0.076607631
0.064817481
0.053029064
0.041242345
0.029456994
0.01767337
0.0058902187
1.4975533
1.4713782
1.4329813
1.3918484
1.3527631
1.3161724
1.2818747
1.2501572
1.2213011
1.1952
1.171446
1.149556
1.1291062
1.1097653
1.0912851
1.0734841
1.0562322
1.0394366
1.0230306
1.0069654
0.99120508
0.97572139
0.96049152
0.94549601
0.93071774
0.91614125
0.90175243
0.88753826
0.87348672
0.85958666
0.84582774
0.83220036
0.81869562
0.80530525
0.79202159
0.7788375
0.76574637
0.75274203
0.73981874
0.72697117
0.71419434
0.7014836
0.68883465
0.67624343
0.66370619
0.6512194
0.63877978
0.62638425
0.61402994
0.60171416
0.5894344
0.57718831
0.56497371
0.55278854
0.5406309
0.52849898
0.51639112
0.50430574
0.49224137
0.48019663
0.46817025
0.45616102
0.44416782
0.43218962
0.42022543
0.40827434
0.3963355
0.38440809
0.37249137
0.36058463
0.34868721
0.3367985
0.32491794
0.31304499
0.30117917
0.28932001
0.27746708
0.26561995
0.25377824
0.24194159
0.23010966
0.21828215
0.20645877
0.19463928
0.18282341
0.17101095
0.15920165
0.14739532
0.13559173
0.12379074
0.11199213
0.10019582
0.088401624
0.076609455
0.06481914
0.05303058
0.041243655
0.029458118
0.017674039
0.0058906568
1.4681448
1.4526467
1.4257767
1.3918529
1.3560519
1.3211005
1.2877986
1.2564456
1.2273149
1.2005234
1.1759359
1.1532437
1.1320918
1.1121631
1.0932049
1.0750252
1.0574794
1.0404584
1.0238798
1.0076818
0.99181783
0.97625208
0.96095611
0.94590642
0.93108298
0.91646825
0.90204662
0.88780399
0.87372754
0.85980554
0.84602716
0.83238246
0.81886224
0.80545798
0.79216182
0.77896645
0.76586511
0.75285151
0.7399198
0.72706456
0.71428072
0.70156358
0.68890875
0.67631214
0.66376994
0.65127858
0.63883475
0.62643534
0.61407744
0.60175834
0.58947551
0.57722658
0.56500935
0.55282174
0.54066182
0.52852779
0.51641797
0.50433076
0.4922647
0.48021839
0.46819054
0.45617995
0.44418549
0.4322061
0.4202408
0.40828868
0.39634888
0.38442058
0.37250302
0.36059551
0.34869737
0.336808
0.3249268
0.31305327
0.30118689
0.28932722
0.2774738
0.26562622
0.2537841
0.24194707
0.23011478
0.21828694
0.20646325
0.19464346
0.18282731
0.17101459
0.15920504
0.14739849
0.1355947
0.12379352
0.11199474
0.10019827
0.088403881
0.076611572
0.064821043
0.05303237
0.04124514
0.029459535
0.017674924
0.005891679
1.4554132
1.4434599
1.4212255
1.3909379
1.3570767
1.3230812
1.2903836
1.259378
1.2302806
1.2032688
1.1783417
1.1552922
1.1338106
1.113593
1.0943894
1.0760072
1.0582983
1.0411478
1.024467
1.0081878
0.99225886
0.9766403
0.96130078
0.94621462
0.93136015
0.91671867
0.90227369
0.8880105
0.87391581
0.85997753
0.84618456
0.83252674
0.81899467
0.80557969
0.79227382
0.77906963
0.76596026
0.75293935
0.74000097
0.72713962
0.71435019
0.70162793
0.68896839
0.67636746
0.66382127
0.65132625
0.63887903
0.62647649
0.6141157
0.60179393
0.58950863
0.57725741
0.56503805
0.55284847
0.54068672
0.52855099
0.51643958
0.50435091
0.49228348
0.4802359
0.46820688
0.45619519
0.44419971
0.43221936
0.42025317
0.40830022
0.39635964
0.38443062
0.3725124
0.36060426
0.34870555
0.33681563
0.32493394
0.31305993
0.30119311
0.28933301
0.2774792
0.26563127
0.25378881
0.24195147
0.23011891
0.2182908
0.20646686
0.19464683
0.18283045
0.17101752
0.15920777
0.14740104
0.13559708
0.12379577
0.11199684
0.10020026
0.088405718
0.076613306
0.064822596
0.053033852
0.041246371
0.029460768
0.017675782
0.0058926936
1.4554132
1.4434599
1.4212255
1.3909379
1.3570767
1.3230812
1.2903836
1.259378
1.2302806
1.2032688
1.1783417
1.1552922
1.1338106
1.113593
1.0943894
1.0760072
1.0582983
1.0411478
1.024467
1.0081878
0.99225886
0.9766403
0.96130078
0.94621462
0.93136015
0.91671866
0.90227369
0.8880105
0.87391581
0.85997753
0.84618456
0.83252674
0.81899467
0.80557969
0.79227382
0.77906963
0.76596026
0.75293935
0.74000097
0.72713962
0.7143502
0.70162793
0.6889684
0.67636746
0.66382127
0.65132625
0.63887903
0.62647649
0.6141157
0.60179393
0.58950863
0.57725742
0.56503805
0.55284847
0.54068672
0.52855099
0.51643958
0.50435091
0.49228348
0.48023591
0.46820688
0.4561952
0.44419971
0.43221936
0.42025317
0.40830022
0.39635963
0.38443062
0.3725124
0.36060427
0.34870555
0.33681564
0.32493394
0.31305993
0.3011931
0.28933301
0.2774792
0.26563126
0.25378881
0.24195148
0.23011891
0.21829081
0.20646686
0.19464683
0.18283045
0.17101751
0.15920777
0.14740104
0.13559709
0.12379578
0.11199685
0.10020026
0.088405721
0.076613305
0.064822591
0.053033846
0.041246366
0.029460767
0.017675782
0.005892695
1.4681448
1.4526467
1.4257767
1.3918529
1.3560519
1.3211005
1.2877986
1.2564456
1.2273149
1.2005234
1.1759359
1.1532437
1.1320918
1.1121631
1.0932049
1.0750252
1.0574794
1.0404584
1.0238798
1.0076818
0.99181783
0.97625208
0.96095611
0.94590642
0.93108298
0.91646825
0.90204661
0.88780399
0.87372754
0.85980554
0.84602717
0.83238247
0.81886224
0.80545798
0.79216182
0.77896645
0.76586511
0.75285151
0.7399198
0.72706456
0.71428072
0.70156358
0.68890875
0.67631213
0.66376993
0.65127857
0.63883474
0.62643533
0.61407744
0.60175835
0.58947552
0.57722659
0.56500935
0.55282173
0.54066181
0.52852778
0.51641796
0.50433076
0.4922647
0.4802184
0.46819056
0.45617996
0.44418549
0.43220609
0.42024079
0.40828867
0.39634886
0.38442057
0.37250303
0.36059553
0.34869739
0.33680801
0.32492681
0.31305326
0.30118688
0.2893272
0.27747379
0.26562622
0.25378411
0.24194709
0.23011481
0.21828696
0.20646326
0.19464345
0.1828273
0.17101457
0.15920503
0.14739849
0.13559471
0.12379354
0.11199476
0.10019829
0.088403887
0.076611566
0.06482103
0.053032358
0.041245132
0.029459535
0.017674929
0.005891682
1.4975533
1.4713782
1.4329813
1.3918484
1.3527631
1.3161724
1.2818747
1.2501572
1.2213011
1.1952
1.171446
1.149556
1.1291062
1.1097653
1.0912851
1.0734841
1.0562322
1.0394366
1.0230306
1.0069655
0.99120509
0.97572139
0.96049151
0.94549601
0.93071774
0.91614125
0.90175243
0.88753826
0.87348672
0.85958667
0.84582774
0.83220036
0.81869561
0.80530525
0.79202158
0.7788375
0.76574637
0.75274203
0.73981875
0.72697118
0.71419434
0.70148361
0.68883465
0.67624343
0.66370618
0.65121939
0.63877978
0.62638425
0.61402994
0.60171416
0.5894344
0.57718831
0.56497371
0.55278854
0.54063089
0.52849897
0.51639112
0.50430574
0.49224138
0.48019664
0.46817026
0.45616102
0.44416782
0.4321896
0.42022541
0.40827433
0.39633549
0.3844081
0.37249139
0.36058465
0.34868723
0.33679851
0.32491794
0.31304498
0.30117916
0.28932
0.27746708
0.26561996
0.25377826
0.24194161
0.23010968
0.21828216
0.20645877
0.19463927
0.1828234
0.17101094
0.15920165
0.14739533
0.13559175
0.12379076
0.11199216
0.10019584
0.088401622
0.076609442
0.064819124
0.053030568
0.041243651
0.029458119
0.017674042
0.0058906582
1.5583745
1.5034455
1.442493
1.3909252
1.3476552
1.3086869
1.2731006
1.241328
1.2133671
1.1885892
1.1661874
1.145486
1.1260044
1.1074163
1.0895027
1.072118
1.0551662
1.0385848
1.0223321
1.0063786
0.99070158
0.97528203
0.96010318
0.94514951
0.93040646
0.91586024
0.90149784
0.88730698
0.87327614
0.85939456
0.84565219
0.83203968
0.81854832
0.80517002
0.79189727
0.77872306
0.7656409
0.7526447
0.73972883
0.72688803
0.71411738
0.70141232
0.68876856
0.67618212
0.66364928
0.65116655
0.63873067
0.6263386
0.61398748
0.60167465
0.58939762
0.57715406
0.56494181
0.55275883
0.54060321
0.52847319
0.51636708
0.50428333
0.49222047
0.48017714
0.46815206
0.45614404
0.44415198
0.43217483
0.42021164
0.40826148
0.3963235
0.38439691
0.37248093
0.36057488
0.3486781
0.33678998
0.32490998
0.31303756
0.30117224
0.28931356
0.27746106
0.26561434
0.253773
0.24193669
0.23010507
0.21827785
0.20645476
0.19463553
0.18281993
0.17100771
0.15919863
0.14739251
0.13558911
0.12378828
0.11198984
0.10019368
0.088399642
0.076607616
0.064817468
0.053029056
0.041242339
0.029456991
0.017673367
0.0058902177
1.6755942
1.5545163
1.4585358
1.3948797
1.3463702
1.3038982
1.2663629
1.2341912
1.2067908
1.1829533
1.1615589
1.1417951
1.123118
1.1051784
1.0877631
1.0707489
1.054068
1.0376839
1.0215757
1.0057297
0.99013476
0.97477965
0.95965295
0.9447427
0.9300367
0.91552271
0.90118875
0.88702325
0.8730152
0.85915419
0.84543048
0.83183492
0.81835902
0.80499484
0.79173501
0.77857265
0.76550135
0.75251515
0.73960849
0.72677618
0.71401337
0.70131555
0.6886785
0.67609828
0.6635712
0.65109381
0.63866289
0.62627541
0.61392857
0.60161971
0.58934638
0.57710627
0.56489723
0.55271724
0.54056441
0.52843698
0.51633329
0.50425179
0.49219103
0.48014965
0.46812639
0.45612008
0.44412961
0.43215396
0.42019215
0.40824329
0.39630652
0.38438104
0.3724661
0.36056102
0.34866516
0.3367779
0.3248987
0.31302704
0.30116243
0.28930439
0.2774525
0.26560633
0.25376551
0.24192968
0.23009853
0.21827175
0.20644908
0.19463024
0.182815
0.17100311
0.15919434
0.14738849
0.13558536
0.12378479
0.1119866
0.10019068
0.088396872
0.076605061
0.064815108
0.053026897
0.041240338
0.029455271
0.017671842
0.0058894839
)
;

boundaryField
{
    top
    {
        type            zeroGradient;
    }
    inlet
    {
        type            zeroGradient;
    }
    outlet
    {
        type            fixedValue;
        value           uniform 0;
    }
    bottom
    {
        type            zeroGradient;
    }
    back
    {
        type            empty;
    }
    front
    {
        type            empty;
    }
}


// ************************************************************************* //
