/*--------------------------------*- C++ -*----------------------------------*\
  =========                 |
  \\      /  F ield         | OpenFOAM: The Open Source CFD Toolbox
   \\    /   O peration     | Website:  https://openfoam.org
    \\  /    A nd           | Version:  9
     \\/     M anipulation  |
\*---------------------------------------------------------------------------*/
FoamFile
{
    format      ascii;
    class       surfaceScalarField;
    location    "11";
    object      phi;
}
// * * * * * * * * * * * * * * * * * * * * * * * * * * * * * * * * * * * * * //

dimensions      [0 3 -1 0 0 0 0];

internalField   nonuniform List<scalar> 
1890
(
0.0093061957
0.00069380425
0.0082843931
0.0010218027
0.0073298986
0.00095449449
0.0064869553
0.00084294334
0.0057695845
0.0007173708
0.00518986
0.00057972444
0.004738168
0.00045169205
0.00439519
0.00034297801
0.0041390268
0.00025616318
0.003949107
0.00018991983
0.003807888
0.00014121897
0.0037013782
0.00010650979
0.003619058
8.2320217e-05
0.0035534117
6.5646242e-05
0.0034992845
5.4127254e-05
0.0034532444
4.6040051e-05
0.0034130501
4.0194297e-05
0.0033772574
3.579276e-05
0.0033449386
3.231876e-05
0.0033154893
2.9449278e-05
0.0032885008
2.6988571e-05
0.0032636805
2.4820294e-05
0.003240805
2.2875475e-05
0.0032196926
2.1112417e-05
0.0032001879
1.9504661e-05
0.0031821539
1.8034027e-05
0.0031654672
1.6686739e-05
0.0031500158
1.5451374e-05
0.0031356979
1.4317867e-05
0.0031224209
1.3277068e-05
0.0031101003
1.2320581e-05
0.0030986596
1.1440707e-05
0.0030880291
1.0630422e-05
0.0030781458
9.8833592e-06
0.003068952
9.1937743e-06
0.0030603955
8.5565081e-06
0.0030524285
7.9669368e-06
0.0030450076
7.4209224e-06
0.0030380929
6.9147595e-06
0.0030316477
6.4451276e-06
0.0030256387
6.0090447e-06
0.0030200349
5.603826e-06
0.0030148078
5.2270486e-06
0.0030099313
4.8765182e-06
0.0030053811
4.5502433e-06
0.0030011346
4.2464107e-06
0.0029971713
3.9633655e-06
0.0029934717
3.6995951e-06
0.002990018
3.4537121e-06
0.0029867935
3.2244436e-06
0.0029837829
3.0106178e-06
0.0029809718
2.8111545e-06
0.0029783467
2.6250567e-06
0.0029758953
2.4514011e-06
0.002973606
2.2893331e-06
0.0029714679
2.13806e-06
0.0029694711
1.9968462e-06
0.0029676061
1.8650101e-06
0.0029658641
1.7419182e-06
0.0029642372
1.6269833e-06
0.0029627175
1.5196596e-06
0.0029612981
1.419439e-06
0.0029599722
1.325849e-06
0.0029587338
1.2384469e-06
0.0029575769
1.1568202e-06
0.0029564963
1.080583e-06
0.002955487
1.009375e-06
0.0029545441
9.4286217e-07
0.0029536634
8.8073331e-07
0.0029528407
8.2269963e-07
0.0029520722
7.6849419e-07
0.0029513544
7.1786397e-07
0.0029506838
6.7057768e-07
0.0029500574
6.2640914e-07
0.0029494722
5.8515434e-07
0.0029489256
5.4661113e-07
0.002948415
5.1060375e-07
0.002947938
4.7695247e-07
0.0029474925
4.4551633e-07
0.0029470764
4.1612856e-07
0.0029466877
3.8868779e-07
0.0029463247
3.6302004e-07
0.0029459856
3.3906734e-07
0.002945669
3.1662524e-07
0.0029453732
2.9569896e-07
0.0029450972
2.7602554e-07
0.0029448395
2.5772215e-07
0.0029445991
2.4041392e-07
0.0029443747
2.2441043e-07
0.0029441656
2.0912428e-07
0.0029439705
1.9517104e-07
0.0029437889
1.8160307e-07
0.0029436194
1.6950243e-07
0.002943462
1.5740057e-07
0.002943315
1.4701392e-07
0.0029431787
1.3632577e-07
0.0029430511
1.2760627e-07
0.002942932
1.1923854e-07
0.0029428188
1.1311949e-07
1.1571243e-07
0.010339525
0.00035427932
0.010570754
0.00079057335
0.010606301
0.00091894821
0.010547572
0.00090167137
0.010422317
0.00084262624
0.010244356
0.00075768559
0.010039421
0.00065662744
0.0098287426
0.00055365586
0.009625135
0.00045977083
0.0094353013
0.00037975354
0.0092624277
0.00031409258
0.0091075332
0.00026140425
0.008970154
0.00021969948
0.0088489023
0.00018689786
0.0087419716
0.00016105802
0.0086474927
0.00014051895
0.008563694
0.00012399297
0.0084890107
0.000110476
0.0084221096
9.9219869e-05
0.0083618775
8.9681398e-05
0.0083073955
8.147066e-05
0.0082579079
7.4307839e-05
0.0082127929
6.7990492e-05
0.0081715353
6.2369991e-05
0.0081337049
5.7335022e-05
0.0080989388
5.2800196e-05
0.0080669272
4.8698279e-05
0.0080374036
4.4974966e-05
0.0080101361
4.1585396e-05
0.0079849213
3.8491844e-05
0.0079615798
3.5662146e-05
0.0079399519
3.3068598e-05
0.0079198952
3.0687159e-05
0.0079012817
2.8496843e-05
0.0078839962
2.6479245e-05
0.0078679345
2.461816e-05
0.0078530022
2.2899267e-05
0.0078391132
2.1309872e-05
0.0078261893
1.9838681e-05
0.0078141589
1.8475618e-05
0.0078029562
1.721166e-05
0.0077925214
1.6038705e-05
0.007782799
1.4949456e-05
0.0077737382
1.3937317e-05
0.0077652921
1.2996314e-05
0.0077574174
1.2121017e-05
0.0077500743
1.1306481e-05
0.0077432257
1.054819e-05
0.0077368374
9.842012e-06
0.0077308777
9.184159e-06
0.0077253172
8.571152e-06
0.0077201286
7.9997904e-06
0.0077152865
7.4671266e-06
0.0077107675
6.9704408e-06
0.0077065496
6.5072212e-06
0.0077026125
6.0751445e-06
0.0076989372
5.6720592e-06
0.0076955063
5.2959711e-06
0.0076923032
4.9450306e-06
0.0076893127
4.6175211e-06
0.0076865205
4.3118493e-06
0.0076839134
4.0265348e-06
0.0076814791
3.7602033e-06
0.0076792059
3.511576e-06
0.0076770832
3.2794643e-06
0.007675101
3.0627604e-06
0.0076732499
2.860432e-06
0.0076715213
2.6715158e-06
0.007669907
2.4951147e-06
0.0076683993
2.3303902e-06
0.0076669913
2.1765648e-06
0.0076656763
2.0329088e-06
0.0076644481
1.8987528e-06
0.007663301
1.7734583e-06
0.0076622296
1.6564487e-06
0.007661229
1.5471565e-06
0.0076602945
1.4450882e-06
0.0076594218
1.3497269e-06
0.0076586067
1.2606638e-06
0.0076578455
1.1774117e-06
0.0076571346
1.0996629e-06
0.0076564706
1.0269269e-06
0.0076558506
9.5902991e-07
0.0076552717
8.9541433e-07
0.0076547313
8.3610086e-07
0.0076542269
7.8035665e-07
0.0076537561
7.2852561e-07
0.007653317
6.7951143e-07
0.0076529073
6.3423073e-07
0.0076525256
5.9089215e-07
0.0076521693
5.514409e-07
0.0076518381
5.1279213e-07
0.0076515287
4.7873865e-07
0.0076512422
4.4382144e-07
0.007650974
4.1516529e-07
0.0076507273
3.8300624e-07
0.0076504943
3.6068881e-07
0.0076502829
3.3064337e-07
0.0076500776
3.1830928e-07
2.8840662e-07
0.010188704
0.00016557515
0.010530487
0.00044879099
0.010851453
0.00059798177
0.011124174
0.00062895025
0.011350581
0.00061621886
0.011524486
0.00058378055
0.01164633
0.0005347842
0.011724155
0.00047583049
0.011767999
0.00041592665
0.011786639
0.000361114
0.011787114
0.00031361712
0.011775058
0.00027346026
0.011754861
0.00023989719
0.011729768
0.00021199031
0.011702054
0.00018877261
0.011673239
0.00016933388
0.011644339
0.00015289296
0.011616003
0.00013881183
0.011588629
0.00012659379
0.011562446
0.00011586445
0.011537572
0.00010634494
0.011514052
9.7827e-05
0.01149189
9.0153364e-05
0.011471056
8.3203369e-05
0.011451509
7.6882618e-05
0.011433193
7.1115566e-05
0.011416051
6.5840298e-05
0.011400021
6.1004913e-05
0.011385042
5.6565072e-05
0.011371051
5.2482337e-05
0.01135799
4.8723025e-05
0.011345801
4.5257385e-05
0.01133443
4.2058993e-05
0.011323822
3.9104273e-05
0.011313929
3.6372127e-05
0.011304704
3.3843617e-05
0.011296101
3.1501704e-05
0.01128808
2.9331027e-05
0.011280601
2.7317708e-05
0.011273628
2.5449181e-05
0.011267125
2.3714048e-05
0.011261062
2.2101951e-05
0.011255408
2.0603454e-05
0.011250135
1.9209951e-05
0.011245218
1.7913577e-05
0.011240632
1.6707129e-05
0.011236354
1.5584004e-05
0.011232364
1.4538139e-05
0.011228642
1.3563955e-05
0.01122517
1.2656317e-05
0.011221931
1.1810489e-05
0.011218909
1.1022103e-05
0.011216089
1.0287122e-05
0.011213457
9.601814e-06
0.011211002
8.9627252e-06
0.01120871
8.3666559e-06
0.011206572
7.8106412e-06
0.011204576
7.2919284e-06
0.011202713
6.8079639e-06
0.011200974
6.3563759e-06
0.011199351
5.9349595e-06
0.011197836
5.5416681e-06
0.011196421
5.174597e-06
0.011195101
4.8319761e-06
0.011193868
4.5121599e-06
0.011192717
4.2136132e-06
0.011191643
3.9349105e-06
0.01119064
3.674717e-06
0.011189703
3.4317945e-06
0.011188828
3.2049829e-06
0.011188012
2.9932069e-06
0.011187249
2.7954569e-06
0.011186537
2.6108053e-06
0.011185872
2.4383669e-06
0.011185251
2.277347e-06
0.011184672
2.1269577e-06
0.01118413
1.9865252e-06
0.011183624
1.8553312e-06
0.011183152
1.7328224e-06
0.011182712
1.6183159e-06
0.0111823
1.5114049e-06
0.011181915
1.4113855e-06
0.011181556
1.318059e-06
0.011181221
1.2305913e-06
0.011180908
1.1491097e-06
0.011180616
1.0724604e-06
0.011180343
1.0013361e-06
0.011180089
9.3391019e-07
0.011179851
8.7192212e-07
0.01117963
8.121998e-07
0.011179423
7.5846433e-07
0.011179231
7.0491496e-07
0.01117905
6.5903526e-07
0.011178884
6.0998544e-07
0.011178727
5.7233804e-07
0.011178584
5.258029e-07
0.011178446
4.9809536e-07
0.011178325
4.5171514e-07
0.011178206
4.3721971e-07
3.898896e-07
0.010097182
6.8393554e-05
0.010346961
0.00019901112
0.010662469
0.00028247387
0.010982753
0.00030866649
0.011290229
0.00030874342
0.011575251
0.00029875788
0.011829022
0.00028101346
0.012047865
0.00025698755
0.012233272
0.00023051982
0.01238924
0.0002051459
0.012520295
0.00018256236
0.012630755
0.00016299957
0.012724428
0.00014622491
0.012804515
0.00013190312
0.012873613
0.00011967426
0.012933772
0.00010917461
0.012986596
0.00010006907
0.013033332
9.2076364e-05
0.01307495
8.4975253e-05
0.013112216
7.8598615e-05
0.013145739
7.2822306e-05
0.013176012
6.7553941e-05
0.013203441
6.2723927e-05
0.013228366
5.8278898e-05
0.013251071
5.4176989e-05
0.013271802
5.0384434e-05
0.01329077
4.6873165e-05
0.013308155
4.3619181e-05
0.013324119
4.0601462e-05
0.0133388
3.7801282e-05
0.013352321
3.5201756e-05
0.013364791
3.2787534e-05
0.013376306
3.0544598e-05
0.01338695
2.8460097e-05
0.0133968
2.652223e-05
0.013405923
2.4720144e-05
0.013414381
2.3043849e-05
0.013422228
2.1484147e-05
0.013429513
2.003256e-05
0.013436281
1.8681269e-05
0.013442572
1.7423062e-05
0.013448423
1.625128e-05
0.013453866
1.5159769e-05
0.013458933
1.4142843e-05
0.013463652
1.319524e-05
0.013468047
1.2312092e-05
0.013472142
1.148889e-05
0.013475958
1.0721457e-05
0.013479516
1.0005922e-05
0.013482834
9.3386931e-06
0.013485928
8.7164403e-06
0.013488814
8.1360698e-06
0.013491507
7.5947093e-06
0.013494019
7.0896904e-06
0.013496363
6.6185312e-06
0.013498551
6.1789268e-06
0.013500593
5.7687313e-06
0.013502499
5.3859487e-06
0.013504278
5.0287264e-06
0.013505939
4.6953356e-06
0.01350749
4.384171e-06
0.013508938
4.0937352e-06
0.01351029
3.8226347e-06
0.013511552
3.569571e-06
0.013512731
3.3333321e-06
0.013513832
3.1127909e-06
0.01351486
2.9068926e-06
0.01351582
2.7146566e-06
0.013516716
2.535174e-06
0.013517554
2.3675906e-06
0.013518336
2.2111183e-06
0.013519066
2.0650126e-06
0.013519749
1.9285886e-06
0.013520386
1.8011909e-06
0.013520981
1.6822293e-06
0.013521537
1.5711189e-06
0.013522056
1.4673635e-06
0.013522541
1.3704261e-06
0.013522993
1.2799132e-06
0.013523417
1.1953065e-06
0.013523812
1.1163337e-06
0.013524181
1.0424482e-06
0.013524525
9.7354353e-07
0.013524847
9.089392e-07
0.013525147
8.4881355e-07
0.013525427
7.9218363e-07
0.013525689
7.3974721e-07
0.013525933
6.8988477e-07
0.01352616
6.4427719e-07
0.013526373
6.0003207e-07
0.01352657
5.6067792e-07
0.013526755
5.2085443e-07
0.013526926
4.8755328e-07
0.013527085
4.5078581e-07
0.013527233
4.2389343e-07
0.013527371
3.8854663e-07
0.013527499
3.6925995e-07
0.013527618
3.3331159e-07
0.013527732
3.2347851e-07
2.8836274e-07
0.010068394
-1.5003778e-12
0.010267405
-1.9819144e-12
0.010549879
-9.7153017e-13
0.010858545
1.3289845e-14
0.011167288
6.2845106e-13
0.011466046
6.3608342e-13
0.01174706
7.6301308e-14
0.012004047
-7.9837323e-13
0.012234567
-1.6138711e-12
0.012439713
-1.9632834e-12
0.012622275
-1.7645361e-12
0.012785275
-8.8911914e-13
0.0129315
5.7792623e-13
0.013063403
2.1867424e-12
0.013183077
3.016728e-12
0.013292252
2.910449e-12
0.013392321
1.7572902e-12
0.013484397
1.2451934e-13
0.013569373
-2.0992439e-12
0.013647971
-3.2773635e-12
0.013720794
-3.0950015e-12
0.013788347
-1.6783553e-12
0.013851071
8.9426918e-13
0.01390935
3.706542e-12
0.013963527
6.1995014e-12
0.014013912
6.1359757e-12
0.014060785
4.4832963e-12
0.014104404
1.7544489e-12
0.014145005
-1.8830337e-12
0.014182807
-4.2415041e-12
0.014218009
-4.1669613e-12
0.014250796
-2.1442957e-12
0.014281341
1.6735579e-12
0.014309801
5.6246172e-12
0.014336323
8.9347591e-12
0.014361043
1.0075652e-11
0.014384087
8.2032274e-12
0.014405571
4.4650923e-12
0.014425604
3.5904816e-13
0.014444285
-1.78042e-12
0.014461708
-2.2316968e-12
0.014477959
3.999844e-13
0.014493119
5.6771491e-12
0.014507262
1.1349814e-11
0.014520457
1.6437271e-11
0.014532769
1.8269987e-11
0.014544258
1.6436303e-11
0.014554979
1.2469877e-11
0.014564985
7.4869565e-12
0.014574324
4.0951751e-12
0.01458304
3.7074314e-12
0.014591177
7.3487848e-12
0.014598771
1.4737648e-11
0.014605861
2.299506e-11
0.014612479
3.0216348e-11
0.014618658
3.3282978e-11
0.014624427
3.0931348e-11
0.014629813
2.516814e-11
0.014634842
1.7523738e-11
0.014639537
1.1160127e-11
0.014643921
9.1793199e-12
0.014648015
1.3174624e-11
0.014651837
2.2861106e-11
0.014655407
3.3872878e-11
0.01465874
4.3136583e-11
0.014661853
4.5341331e-11
0.01466476
3.8798308e-11
0.014667475
2.6426397e-11
0.01467001
1.0872117e-11
0.014672377
-1.078945e-12
0.014674588
-7.2779323e-12
0.014676653
-4.4993683e-12
0.014678582
5.5085832e-12
0.014680383
1.6421193e-11
0.014682065
2.6742264e-11
0.014683637
2.2663283e-11
0.014685104
7.4680272e-12
0.014686474
-1.3892664e-11
0.014687754
-3.9275873e-11
0.014688949
-5.9367613e-11
0.014690066
-6.6794265e-11
0.014691108
-6.4828841e-11
0.014692082
-5.3022287e-11
0.014692991
-4.3249263e-11
0.01469384
-3.4282555e-11
0.014694632
-3.8284967e-11
0.014695372
-5.3209269e-11
0.014696062
-7.4991471e-11
0.014696706
-9.5918599e-11
0.014697306
-1.1071304e-10
0.014697867
-1.0565304e-10
0.014698388
-9.5340598e-11
0.014698876
-7.1275103e-11
0.014699327
-5.068136e-11
0.014699751
-3.2478263e-11
0.014700139
-1.9534192e-11
0.014700508
-1.2584019e-11
0.014700842
-1.3783393e-11
0.014701165
1.0022728e-11
5.4949192e-11
0.010068394
-6.8393557e-05
0.010267405
-0.00019901112
0.010549879
-0.00028247387
0.010858545
-0.00030866649
0.011167288
-0.00030874342
0.011466046
-0.00029875788
0.01174706
-0.00028101346
0.012004047
-0.00025698756
0.012234567
-0.00023051982
0.012439713
-0.0002051459
0.012622275
-0.00018256236
0.012785275
-0.00016299957
0.0129315
-0.00014622491
0.013063403
-0.00013190312
0.013183077
-0.00011967426
0.013292252
-0.0001091746
0.013392321
-0.00010006906
0.013484397
-9.2076366e-05
0.013569373
-8.4975258e-05
0.013647971
-7.8598621e-05
0.013720793
-7.2822311e-05
0.013788347
-6.7553942e-05
0.013851071
-6.2723923e-05
0.01390935
-5.827889e-05
0.013963527
-5.4176978e-05
0.014013912
-5.0384423e-05
0.014060785
-4.6873159e-05
0.014104404
-4.361918e-05
0.014145005
-4.0601467e-05
0.014182807
-3.780129e-05
0.014218009
-3.5201762e-05
0.014250796
-3.2787536e-05
0.014281341
-3.0544593e-05
0.014309801
-2.8460084e-05
0.014336323
-2.6522211e-05
0.014361043
-2.4720124e-05
0.014384087
-2.3043834e-05
0.014405571
-2.1484139e-05
0.014425604
-2.0032559e-05
0.014444285
-1.8681273e-05
0.014461708
-1.7423066e-05
0.014477959
-1.6251277e-05
0.014493119
-1.5159755e-05
0.014507262
-1.4142818e-05
0.014520457
-1.3195206e-05
0.014532769
-1.2312055e-05
0.014544258
-1.1488857e-05
0.014554979
-1.0721434e-05
0.014564985
-1.0005909e-05
0.014574324
-9.3386862e-06
0.01458304
-8.7164327e-06
0.014591177
-8.1360534e-06
0.014598771
-7.5946784e-06
0.014605861
-7.0896435e-06
0.01461248
-6.6184721e-06
0.014618658
-6.1788632e-06
0.014624427
-5.7686723e-06
0.014629813
-5.3859046e-06
0.014634842
-5.0286973e-06
0.014639537
-4.695317e-06
0.014643921
-4.3841538e-06
0.014648015
-4.0937071e-06
0.014651838
-3.8225872e-06
0.014655407
-3.5695017e-06
0.01465874
-3.3332467e-06
0.014661853
-3.1127014e-06
0.01466476
-2.9068171e-06
0.014667475
-2.714609e-06
0.01467001
-2.5351569e-06
0.014672377
-2.3675951e-06
0.014674588
-2.2111311e-06
0.014676653
-2.0650148e-06
0.014678582
-1.9285707e-06
0.014680383
-1.8011533e-06
0.014682066
-1.682183e-06
0.014683637
-1.5710837e-06
0.014685104
-1.4673582e-06
0.014686474
-1.3704651e-06
0.014687754
-1.279998e-06
0.01468895
-1.1954268e-06
0.014690066
-1.1164714e-06
0.014691109
-1.0425759e-06
0.014692082
-9.7364625e-07
0.014692991
-9.090187e-07
0.01469384
-8.4888196e-07
0.014694632
-7.9226144e-07
0.014695372
-7.3985569e-07
0.014696062
-6.9003465e-07
0.014696706
-6.4446509e-07
0.014697306
-6.0023947e-07
0.014697867
-5.6088336e-07
0.014698388
-5.2103048e-07
0.014698876
-4.8769383e-07
0.014699327
-4.5087736e-07
0.014699751
-4.2396784e-07
0.014700139
-3.8859875e-07
0.014700508
-3.6932058e-07
0.014700842
-3.3334577e-07
0.014701165
-3.2349993e-07
-2.8830846e-07
0.010097182
-0.00016557515
0.010346961
-0.000448791
0.010662469
-0.00059798177
0.010982753
-0.00062895025
0.011290229
-0.00061621886
0.011575251
-0.00058378055
0.011829022
-0.00053478421
0.012047865
-0.0004758305
0.012233272
-0.00041592666
0.01238924
-0.000361114
0.012520295
-0.00031361712
0.012630755
-0.00027346026
0.012724428
-0.00023989718
0.012804515
-0.00021199031
0.012873613
-0.0001887726
0.012933772
-0.00016933388
0.012986596
-0.00015289296
0.013033332
-0.00013881183
0.01307495
-0.0001265938
0.013112216
-0.00011586445
0.013145739
-0.00010634494
0.013176012
-9.7826997e-05
0.013203441
-9.0153356e-05
0.013228366
-8.3203359e-05
0.013251071
-7.6882608e-05
0.013271803
-7.111556e-05
0.01329077
-6.5840297e-05
0.013308155
-6.1004917e-05
0.013324119
-5.6565079e-05
0.0133388
-5.2482345e-05
0.013352321
-4.8723028e-05
0.013364791
-4.5257382e-05
0.013376306
-4.2058983e-05
0.01338695
-3.9104258e-05
0.0133968
-3.6372111e-05
0.013405923
-3.3843603e-05
0.013414381
-3.1501696e-05
0.013422228
-2.9331026e-05
0.013429513
-2.7317712e-05
0.013436281
-2.5449186e-05
0.013442572
-2.3714049e-05
0.013448423
-2.2101943e-05
0.013453866
-2.0603437e-05
0.013458933
-1.9209926e-05
0.013463652
-1.7913549e-05
0.013468047
-1.6707103e-05
0.013472142
-1.5583986e-05
0.013475958
-1.453813e-05
0.013479516
-1.3563952e-05
0.013482834
-1.2656314e-05
0.013485928
-1.181048e-05
0.013488814
-1.1022082e-05
0.013491507
-1.0287088e-05
0.013494019
-9.6017687e-06
0.013496363
-8.9626766e-06
0.013498551
-8.3666115e-06
0.013500593
-7.8106069e-06
0.013502499
-7.2919079e-06
0.013504278
-6.8079529e-06
0.013505939
-6.3563671e-06
0.01350749
-5.9349428e-06
0.013508938
-5.5416345e-06
0.01351029
-5.1745454e-06
0.013511552
-4.8319099e-06
0.013512731
-4.512091e-06
0.013513832
-4.2135542e-06
0.01351486
-3.9348709e-06
0.01351582
-3.6747025e-06
0.013516716
-3.4317986e-06
0.013517554
-3.2049949e-06
0.013518336
-2.9932131e-06
0.013519067
-2.7954465e-06
0.013519749
-2.6107779e-06
0.013520386
-2.4383289e-06
0.013520981
-2.277314e-06
0.013521537
-2.1269467e-06
0.013522056
-1.9865463e-06
0.013522541
-1.8553889e-06
0.013522994
-1.7329072e-06
0.013523417
-1.6184143e-06
0.013523812
-1.5115013e-06
0.013524181
-1.4114669e-06
0.013524526
-1.3181223e-06
0.013524847
-1.2306434e-06
0.013525147
-1.1491641e-06
0.013525427
-1.0725343e-06
0.013525689
-1.0014374e-06
0.013525933
-9.3404189e-07
0.01352616
-8.7207193e-07
0.013526373
-8.1235292e-07
0.01352657
-7.5860413e-07
0.013526755
-7.0502847e-07
0.013526926
-6.591218e-07
0.013527085
-6.1004609e-07
0.013527234
-5.723918e-07
0.013527371
-5.2585273e-07
0.013527499
-4.9816476e-07
0.013527618
-4.517779e-07
0.013527732
-4.3730105e-07
-3.899492e-07
0.010188704
-0.00035427932
0.010530487
-0.00079057335
0.010851453
-0.00091894821
0.011124174
-0.00090167137
0.011350581
-0.00084262624
0.011524486
-0.00075768559
0.01164633
-0.00065662744
0.011724155
-0.00055365587
0.011767999
-0.00045977084
0.011786639
-0.00037975354
0.011787114
-0.00031409258
0.011775058
-0.00026140425
0.011754861
-0.00021969948
0.011729768
-0.00018689786
0.011702054
-0.00016105802
0.011673239
-0.00014051895
0.011644339
-0.00012399297
0.011616003
-0.00011047601
0.011588629
-9.9219876e-05
0.011562446
-8.9681401e-05
0.011537572
-8.1470658e-05
0.011514052
-7.4307831e-05
0.01149189
-6.7990481e-05
0.011471056
-6.2369981e-05
0.011451509
-5.7335016e-05
0.011433193
-5.2800196e-05
0.011416051
-4.8698286e-05
0.011400021
-4.4974975e-05
0.011385041
-4.1585405e-05
0.011371051
-3.8491849e-05
0.01135799
-3.5662143e-05
0.011345801
-3.3068588e-05
0.01133443
-3.0687145e-05
0.011323822
-2.8496829e-05
0.011313929
-2.6479235e-05
0.011304704
-2.4618157e-05
0.011296101
-2.2899272e-05
0.01128808
-2.1309881e-05
0.011280601
-1.983869e-05
0.011273628
-1.8475621e-05
0.011267125
-1.7211654e-05
0.011261062
-1.603869e-05
0.011255408
-1.4949434e-05
0.011250135
-1.3937295e-05
0.011245218
-1.2996297e-05
0.011240632
-1.2121009e-05
0.011236354
-1.1306483e-05
0.011232364
-1.0548198e-05
0.011228643
-9.8420196e-06
0.01122517
-9.1841586e-06
0.011221931
-8.5711384e-06
0.011218909
-7.9997636e-06
0.011216089
-7.4670906e-06
0.011213458
-6.9704041e-06
0.011211002
-6.5071924e-06
0.01120871
-6.0751291e-06
0.011206572
-5.6720584e-06
0.011204576
-5.2959792e-06
0.011202713
-4.9450386e-06
0.011200974
-4.617518e-06
0.011199351
-4.3118273e-06
0.011197836
-4.0264938e-06
0.011196422
-3.7601493e-06
0.011195101
-3.5115226e-06
0.011193869
-3.279425e-06
0.011192718
-3.062744e-06
0.011191643
-2.8604404e-06
0.01119064
-2.6715395e-06
0.011189703
-2.4951399e-06
0.011188829
-2.3304011e-06
0.011188012
-2.1765525e-06
0.01118725
-2.0328757e-06
0.011186538
-1.8987091e-06
0.011185873
-1.7734221e-06
0.011185252
-1.6564366e-06
0.011184672
-1.5471775e-06
0.01118413
-1.445141e-06
0.011183625
-1.3497982e-06
0.011183153
-1.2607358e-06
0.011182712
-1.1774686e-06
0.0111823
-1.0996955e-06
0.011181916
-1.0269397e-06
0.011181557
-9.5903314e-07
0.011181221
-8.9542691e-07
0.011180908
-8.3613654e-07
0.011180616
-7.8042196e-07
0.011180343
-7.2861404e-07
0.011180089
-6.7961009e-07
0.011179851
-6.3431936e-07
0.01117963
-5.9096096e-07
0.011179423
-5.5148147e-07
0.011179231
-5.1281362e-07
0.01117905
-4.7875029e-07
0.011178884
-4.4383966e-07
0.011178726
-4.1519348e-07
0.011178583
-3.8304665e-07
0.011178446
-3.6073337e-07
0.011178325
-3.3070919e-07
0.011178206
-3.1841498e-07
-2.8853595e-07
0.010339525
-0.00069380425
0.010570754
-0.0010218027
0.010606301
-0.00095449448
0.010547573
-0.00084294334
0.010422317
-0.0007173708
0.010244356
-0.00057972444
0.01003942
-0.00045169205
0.0098287426
-0.00034297801
0.009625135
-0.00025616318
0.0094353013
-0.00018991983
0.0092624277
-0.00014121897
0.0091075333
-0.00010650979
0.008970154
-8.2320213e-05
0.0088489023
-6.564624e-05
0.0087419716
-5.4127256e-05
0.0086474926
-4.6040056e-05
0.008563694
-4.0194303e-05
0.0084890107
-3.5792765e-05
0.0084221097
-3.2318762e-05
0.0083618776
-2.9449275e-05
0.0083073955
-2.6988563e-05
0.0082579079
-2.4820285e-05
0.0082127929
-2.2875468e-05
0.0081715353
-2.1112414e-05
0.0081337049
-1.9504663e-05
0.0080989387
-1.8034034e-05
0.0080669272
-1.6686747e-05
0.0080374036
-1.5451381e-05
0.0080101361
-1.4317869e-05
0.0079849214
-1.3277065e-05
0.0079615798
-1.2320573e-05
0.0079399519
-1.1440697e-05
0.0079198952
-1.0630414e-05
0.0079012817
-9.8833555e-06
0.0078839962
-9.1937767e-06
0.0078679345
-8.5565158e-06
0.0078530022
-7.9669469e-06
0.0078391133
-7.4209304e-06
0.0078261894
-6.9147622e-06
0.0078141589
-6.4451228e-06
0.0078029563
-6.0090334e-06
0.0077925214
-5.6038118e-06
0.007782799
-5.2270359e-06
0.0077737382
-4.8765119e-06
0.0077652921
-4.5502451e-06
0.0077574175
-4.2464198e-06
0.0077500744
-3.9633778e-06
0.0077432258
-3.6996044e-06
0.0077368375
-3.4537138e-06
0.0077308779
-3.2244346e-06
0.0077253174
-3.0105998e-06
0.0077201287
-2.8111326e-06
0.0077152867
-2.6250374e-06
0.0077107676
-2.4513911e-06
0.0077065497
-2.2893348e-06
0.0077026125
-2.1380721e-06
0.0076989373
-1.9968629e-06
0.0076955064
-1.8650226e-06
0.0076923034
-1.7419195e-06
0.0076893129
-1.6269689e-06
0.0076865208
-1.519632e-06
0.0076839137
-1.4194058e-06
0.0076814793
-1.3258203e-06
0.0076792061
-1.2384332e-06
0.0076770834
-1.1568254e-06
0.0076751012
-1.0806046e-06
0.0076732502
-1.0094037e-06
0.0076715216
-9.4288418e-07
0.0076699073
-8.8073893e-07
0.0076683997
-8.2268375e-07
0.0076669917
-7.6846223e-07
0.0076656766
-7.1782858e-07
0.0076644484
-6.7055238e-07
0.0076633012
-6.2640626e-07
0.0076622299
-5.8517641e-07
0.0076612293
-5.4665167e-07
0.0076602948
-5.1065054e-07
0.0076594221
-4.7698836e-07
0.007658607
-4.4553302e-07
0.0076578458
-4.1612241e-07
0.0076571348
-3.8866751e-07
0.0076564709
-3.6299952e-07
0.0076558507
-3.390611e-07
0.0076552718
-3.166424e-07
0.0076547312
-2.957405e-07
0.0076542268
-2.7607938e-07
0.007653756
-2.5777731e-07
0.007653317
-2.4045256e-07
0.0076529072
-2.2443027e-07
0.0076525254
-2.0912363e-07
0.0076521691
-1.9516423e-07
0.0076518378
-1.8159822e-07
0.0076515283
-1.6951732e-07
0.0076512418
-1.5742603e-07
0.0076509735
-1.4705418e-07
0.0076507268
-1.3636274e-07
0.0076504937
-1.2764843e-07
0.0076502823
-1.1927637e-07
0.0076500769
-1.1318737e-07
-1.1579568e-07
0.0093061958
0.0082843931
0.0073298986
0.0064869553
0.0057695845
0.00518986
0.004738168
0.00439519
0.0041390268
0.003949107
0.003807888
0.0037013782
0.003619058
0.0035534117
0.0034992845
0.0034532444
0.0034130501
0.0033772574
0.0033449386
0.0033154894
0.0032885008
0.0032636805
0.003240805
0.0032196926
0.0032001879
0.0031821539
0.0031654672
0.0031500158
0.0031356979
0.0031224209
0.0031101003
0.0030986596
0.0030880291
0.0030781458
0.003068952
0.0030603955
0.0030524286
0.0030450076
0.0030380929
0.0030316478
0.0030256387
0.0030200349
0.0030148078
0.0030099313
0.0030053811
0.0030011347
0.0029971713
0.0029934717
0.002990018
0.0029867936
0.002983783
0.0029809718
0.0029783468
0.0029758953
0.002973606
0.0029714679
0.0029694711
0.0029676061
0.0029658642
0.0029642373
0.0029627176
0.0029612982
0.0029599723
0.0029587338
0.002957577
0.0029564964
0.0029554871
0.0029545442
0.0029536636
0.0029528409
0.0029520724
0.0029513545
0.0029506839
0.0029500574
0.0029494722
0.0029489256
0.0029484151
0.0029479381
0.0029474926
0.0029470765
0.0029466878
0.0029463247
0.0029459856
0.0029456689
0.0029453732
0.0029450972
0.0029448395
0.0029445991
0.0029443747
0.0029441655
0.0029439703
0.0029437886
0.0029436191
0.0029434617
0.0029433147
0.0029431784
0.0029430508
0.0029429316
0.0029428184
)
;

boundaryField
{
    top
    {
        type            calculated;
        value           uniform 0;
    }
    inlet
    {
        type            calculated;
        value           nonuniform List<scalar> 10(-0.01 -0.01 -0.01 -0.01 -0.01 -0.01 -0.01 -0.01 -0.01 -0.01);
    }
    outlet
    {
        type            calculated;
        value           nonuniform List<scalar> 10(0.0029427032 0.0076499048 0.011178105 0.013527833 0.014701453 0.014701454 0.013527833 0.011178105 0.0076499041 0.0029427026);
    }
    bottom
    {
        type            calculated;
        value           uniform 0;
    }
    back
    {
        type            empty;
        value           nonuniform List<scalar> 0();
    }
    front
    {
        type            empty;
        value           nonuniform List<scalar> 0();
    }
}


// ************************************************************************* //
