/*--------------------------------*- C++ -*----------------------------------*\
  =========                 |
  \\      /  F ield         | OpenFOAM: The Open Source CFD Toolbox
   \\    /   O peration     | Website:  https://openfoam.org
    \\  /    A nd           | Version:  9
     \\/     M anipulation  |
\*---------------------------------------------------------------------------*/
FoamFile
{
    format      ascii;
    class       volVectorField;
    location    "11";
    object      U;
}
// * * * * * * * * * * * * * * * * * * * * * * * * * * * * * * * * * * * * * //

dimensions      [0 1 -1 0 0 0 0];

internalField   nonuniform List<vector> 
1000
(
(0.91890839 0.035821913 0)
(0.86271384 0.062195638 0)
(0.7870597 0.06251009 0)
(0.69536033 0.054550395 0)
(0.61089745 0.044531651 0)
(0.54411592 0.034015971 0)
(0.49343012 0.024187539 0)
(0.45479413 0.01614423 0)
(0.42544582 0.010265786 0)
(0.40347313 0.0063041454 0)
(0.38715766 0.0037976295 0)
(0.3749622 0.0023103381 0)
(0.36566193 0.0014930148 0)
(0.35836272 0.0010851181 0)
(0.35244268 0.00090607225 0)
(0.34748201 0.00084105184 0)
(0.34320348 0.00082372439 0)
(0.33942726 0.0008193107 0)
(0.33603793 0.0008118522 0)
(0.33296114 0.00079580127 0)
(0.33014778 0.00077081132 0)
(0.32756384 0.0007387092 0)
(0.3251842 0.00070188901 0)
(0.32298902 0.00066256547 0)
(0.32096172 0.00062249959 0)
(0.31908785 0.00058295772 0)
(0.31735449 0.00054477202 0)
(0.31574995 0.00050843463 0)
(0.3142636 0.00047419192 0)
(0.31288574 0.00044212464 0)
(0.31160755 0.00041220916 0)
(0.31042101 0.00038436106 0)
(0.30931883 0.00035846432 0)
(0.30829438 0.00033438979 0)
(0.30734165 0.00031200648 0)
(0.30645515 0.00029118781 0)
(0.30562991 0.00027181482 0)
(0.30486136 0.00025377752 0)
(0.30414535 0.00023697503 0)
(0.30347806 0.00022131526 0)
(0.30285601 0.00020671418 0)
(0.30227596 0.00019309507 0)
(0.30173496 0.00018038781 0)
(0.30123029 0.00016852801 0)
(0.30075942 0.00015745652 0)
(0.30032002 0.00014711879 0)
(0.29990993 0.00013746444 0)
(0.29952715 0.00012844691 0)
(0.29916983 0.00012002308 0)
(0.29883624 0.00011215306 0)
(0.29852478 0.00010479987 0)
(0.29823396 9.7929212e-05 0)
(0.29796241 9.1509223e-05 0)
(0.29770882 8.5510189e-05 0)
(0.29747201 7.9904387e-05 0)
(0.29725084 7.4665876e-05 0)
(0.29704429 6.9770371e-05 0)
(0.29685137 6.5195228e-05 0)
(0.29667119 6.0919288e-05 0)
(0.2965029 5.6922934e-05 0)
(0.29634571 5.3187938e-05 0)
(0.29619889 4.9697367e-05 0)
(0.29606175 4.6435498e-05 0)
(0.29593366 4.3387525e-05 0)
(0.295814 4.053957e-05 0)
(0.29570223 3.7878463e-05 0)
(0.29559783 3.5391764e-05 0)
(0.29550031 3.3067822e-05 0)
(0.29540921 3.0895767e-05 0)
(0.29532412 2.8865604e-05 0)
(0.29524463 2.6968273e-05 0)
(0.29517038 2.5195308e-05 0)
(0.29510102 2.3539092e-05 0)
(0.29503623 2.1992046e-05 0)
(0.2949757 2.0547206e-05 0)
(0.29491916 1.919738e-05 0)
(0.29486635 1.7936146e-05 0)
(0.29481702 1.675685e-05 0)
(0.29477094 1.5654404e-05 0)
(0.2947279 1.4622918e-05 0)
(0.29468769 1.3659273e-05 0)
(0.29465014 1.2757641e-05 0)
(0.29461506 1.1916671e-05 0)
(0.29458231 1.112911e-05 0)
(0.29455171 1.0395433e-05 0)
(0.29452316 9.7055611e-06 0)
(0.29449649 9.0636652e-06 0)
(0.29447161 8.4555363e-06 0)
(0.29444838 7.8926931e-06 0)
(0.29442674 7.3542177e-06 0)
(0.29440652 6.8627097e-06 0)
(0.29438772 6.3862588e-06 0)
(0.29437017 5.961107e-06 0)
(0.29435384 5.5424333e-06 0)
(0.29433866 5.1780591e-06 0)
(0.29432443 4.8255757e-06 0)
(0.29431147 4.520004e-06 0)
(0.29429863 4.3084846e-06 0)
(0.29428831 4.1359397e-06 0)
(0.29427335 4.575081e-06 0)
(1.0016583 0.05381943 0)
(1.0359761 0.10128444 0)
(1.0597199 0.11073663 0)
(1.0628947 0.10592202 0)
(1.0515569 0.096228728 0)
(1.0340529 0.083934061 0)
(1.0142795 0.070327063 0)
(0.99360703 0.056981333 0)
(0.97292577 0.045107479 0)
(0.9531074 0.03523675 0)
(0.93479538 0.02740165 0)
(0.91829012 0.021387227 0)
(0.90362379 0.016884499 0)
(0.89068067 0.013569709 0)
(0.87928174 0.011147749 0)
(0.86923242 0.0093736591 0)
(0.86034423 0.0080569286 0)
(0.85244667 0.0070571278 0)
(0.84539241 0.0062752385 0)
(0.83905793 0.0056438284 0)
(0.83334126 0.0051180906 0)
(0.82815884 0.0046686717 0)
(0.82344212 0.0042764167 0)
(0.81913467 0.0039287382 0)
(0.81518962 0.0036172033 0)
(0.81156765 0.0033359706 0)
(0.80823544 0.0030808044 0)
(0.8051644 0.0028484694 0)
(0.80232979 0.0026363696 0)
(0.79970999 0.0024423385 0)
(0.79728597 0.0022645183 0)
(0.79504086 0.0021012891 0)
(0.79295963 0.0019512245 0)
(0.7910288 0.0018130624 0)
(0.78923627 0.0016856834 0)
(0.7875711 0.0015680929 0)
(0.78602338 0.0014594067 0)
(0.78458411 0.001358837 0)
(0.78324511 0.0012656816 0)
(0.78199889 0.0011793124 0)
(0.7808386 0.0010991672 0)
(0.77975799 0.0010247406 0)
(0.77875128 0.00095557757 0)
(0.77781318 0.00089126692 0)
(0.77693881 0.00083143613 0)
(0.77612367 0.00077574663 0)
(0.77536362 0.00072388992 0)
(0.7746548 0.0006755842 0)
(0.77399367 0.00063057137 0)
(0.77337693 0.00058861466 0)
(0.77280153 0.00054949642 0)
(0.77226464 0.00051301628 0)
(0.77176363 0.00047898956 0)
(0.77129606 0.00044724571 0)
(0.77085966 0.00041762711 0)
(0.77045233 0.00038998778 0)
(0.77007211 0.00036419238 0)
(0.76971716 0.00034011532 0)
(0.7693858 0.00031763988 0)
(0.76907643 0.00029665762 0)
(0.76878759 0.00027706776 0)
(0.7685179 0.00025877658 0)
(0.76826609 0.00024169713 0)
(0.76803095 0.00022574839 0)
(0.76781138 0.00021085513 0)
(0.76760634 0.00019694713 0)
(0.76741486 0.0001839589 0)
(0.76723606 0.00017182923 0)
(0.76706908 0.00016050089 0)
(0.76691313 0.00014992032 0)
(0.7667675 0.00014003783 0)
(0.76663148 0.00013080672 0)
(0.76650444 0.00012218436 0)
(0.7663858 0.00011413008 0)
(0.76627498 0.00010660732 0)
(0.76617149 9.9580021e-05 0)
(0.76607483 9.3016617e-05 0)
(0.76598456 8.6884094e-05 0)
(0.76590024 8.1155824e-05 0)
(0.76582151 7.580052e-05 0)
(0.76574797 7.0797935e-05 0)
(0.7656793 6.6116862e-05 0)
(0.76561516 6.1745629e-05 0)
(0.76555528 5.7649713e-05 0)
(0.76549935 5.3829121e-05 0)
(0.76544718 5.0239634e-05 0)
(0.76539844 4.6899244e-05 0)
(0.76535303 4.3743637e-05 0)
(0.76531058 4.0821626e-05 0)
(0.76527111 3.803266e-05 0)
(0.76523417 3.547871e-05 0)
(0.7651999 3.2997141e-05 0)
(0.76516785 3.0778018e-05 0)
(0.76513807 2.855569e-05 0)
(0.76511053 2.6660271e-05 0)
(0.76508431 2.4665146e-05 0)
(0.76506153 2.3121649e-05 0)
(0.7650369 2.1387041e-05 0)
(0.76502119 2.0369492e-05 0)
(0.76499245 1.9313558e-05 0)
(1.0014244 0.026824854 0)
(1.0291272 0.062791352 0)
(1.0654292 0.077736553 0)
(1.098962 0.0805972 0)
(1.1253149 0.078285171 0)
(1.145053 0.0731539 0)
(1.1594858 0.066111278 0)
(1.1694287 0.058162063 0)
(1.1755354 0.050296754 0)
(1.1785738 0.043150708 0)
(1.1793571 0.036972825 0)
(1.1785949 0.031771632 0)
(1.1768304 0.027451839 0)
(1.1744518 0.023886768 0)
(1.1717287 0.02094762 0)
(1.1688444 0.018515781 0)
(1.1659195 0.016488085 0)
(1.1630317 0.014779503 0)
(1.1602295 0.013322985 0)
(1.1575415 0.012067132 0)
(1.1549828 0.010973 0)
(1.1525601 0.010011061 0)
(1.1502747 0.0091587466 0)
(1.1481246 0.0083986042 0)
(1.1461059 0.0077169508 0)
(1.1442134 0.0071028885 0)
(1.1424414 0.0065475922 0)
(1.1407838 0.0060437956 0)
(1.1392344 0.0055854262 0)
(1.1377869 0.0051673445 0)
(1.1364353 0.0047851567 0)
(1.1351738 0.0044350758 0)
(1.1339968 0.0041138165 0)
(1.1328987 0.0038185128 0)
(1.1318746 0.0035466533 0)
(1.1309195 0.0032960278 0)
(1.1300289 0.0030646841 0)
(1.1291985 0.0028508915 0)
(1.1284242 0.0026531109 0)
(1.1277022 0.0024699688 0)
(1.1270291 0.0023002354 0)
(1.1264014 0.0021428065 0)
(1.1258161 0.0019966877 0)
(1.1252702 0.0018609805 0)
(1.1247612 0.0017348716 0)
(1.1242865 0.001617622 0)
(1.1238437 0.0015085595 0)
(1.1234307 0.0014070703 0)
(1.1230455 0.0013125937 0)
(1.1226861 0.0012246157 0)
(1.1223509 0.0011426646 0)
(1.1220381 0.001066307 0)
(1.1217462 0.00099514379 0)
(1.1214739 0.00092880704 0)
(1.1212198 0.00086695734 0)
(1.1209827 0.00080928106 0)
(1.1207614 0.00075548814 0)
(1.1205548 0.00070530997 0)
(1.120362 0.00065849767 0)
(1.1201821 0.00061482037 0)
(1.1200142 0.00057406371 0)
(1.1198574 0.00053602872 0)
(1.1197111 0.00050053048 0)
(1.1195744 0.00046739716 0)
(1.1194469 0.00043646915 0)
(1.1193278 0.00040759782 0)
(1.1192166 0.00038064514 0)
(1.1191129 0.00035548224 0)
(1.1190159 0.00033198948 0)
(1.1189255 0.00031005478 0)
(1.118841 0.00028957409 0)
(1.1187621 0.00027044964 0)
(1.1186884 0.00025259141 0)
(1.1186197 0.00023591374 0)
(1.1185554 0.00022033943 0)
(1.1184954 0.00020579279 0)
(1.1184394 0.00019220846 0)
(1.1183871 0.00017951796 0)
(1.1183382 0.00016766718 0)
(1.1182927 0.00015659135 0)
(1.11825 0.00014624917 0)
(1.1182103 0.00013657481 0)
(1.1181731 0.00012754459 0)
(1.1181385 0.00011908336 0)
(1.118106 0.00011119489 0)
(1.1180759 0.00010378008 0)
(1.1180475 9.6888822e-05 0)
(1.1180213 9.0369908e-05 0)
(1.1179966 8.4355726e-05 0)
(1.1179739 7.8590505e-05 0)
(1.1179522 7.3360807e-05 0)
(1.1179326 6.8207653e-05 0)
(1.1179137 6.3710637e-05 0)
(1.1178966 5.9020119e-05 0)
(1.1178803 5.5272802e-05 0)
(1.1178652 5.087447e-05 0)
(1.1178519 4.8014934e-05 0)
(1.1178373 4.3721245e-05 0)
(1.1178287 4.2101753e-05 0)
(1.1178117 3.782373e-05 0)
(1.0007347 0.011814721 0)
(1.0178472 0.030860926 0)
(1.0462163 0.041434441 0)
(1.0799018 0.04519357 0)
(1.1132664 0.045502351 0)
(1.143782 0.044080308 0)
(1.1708941 0.041439982 0)
(1.1945687 0.037973678 0)
(1.2148582 0.034195729 0)
(1.2319652 0.030536887 0)
(1.2462683 0.027222045 0)
(1.2582339 0.02431392 0)
(1.2683135 0.021797888 0)
(1.2768875 0.01963366 0)
(1.2842554 0.017773827 0)
(1.2906479 0.016169652 0)
(1.296243 0.01477559 0)
(1.3011791 0.013552297 0)
(1.3055645 0.012467863 0)
(1.3094838 0.011497466 0)
(1.3130042 0.010622161 0)
(1.3161792 0.0098275129 0)
(1.3190526 0.0091024109 0)
(1.3216607 0.0084381769 0)
(1.3240343 0.0078279042 0)
(1.3261995 0.007265975 0)
(1.3281786 0.0067477093 0)
(1.3299913 0.0062691172 0)
(1.3316544 0.0058267276 0)
(1.3331829 0.0054174731 0)
(1.3345896 0.0050386119 0)
(1.3358862 0.0046876732 0)
(1.3370827 0.0043624191 0)
(1.3381883 0.0040608146 0)
(1.3392108 0.0037810049 0)
(1.3401576 0.0035212961 0)
(1.3410349 0.0032801397 0)
(1.3418486 0.0030561186 0)
(1.3426038 0.0028479346 0)
(1.3433051 0.0026543976 0)
(1.3439569 0.0024744157 0)
(1.3445629 0.0023069856 0)
(1.3451267 0.0021511856 0)
(1.3456513 0.0020061672 0)
(1.3461398 0.0018711492 0)
(1.3465947 0.0017454115 0)
(1.3470185 0.0016282899 0)
(1.3474135 0.0015191713 0)
(1.3477816 0.0014174893 0)
(1.3481249 0.0013227202 0)
(1.3484449 0.0012343796 0)
(1.3487435 0.001152019 0)
(1.349022 0.0010752226 0)
(1.3492818 0.0010036054 0)
(1.3495242 0.00093680989 0)
(1.3497505 0.00087450438 0)
(1.3499616 0.00081638093 0)
(1.3501587 0.00076215343 0)
(1.3503427 0.00071155637 0)
(1.3505145 0.00066434288 0)
(1.3506748 0.00062028351 0)
(1.3508245 0.00057916485 0)
(1.3509643 0.00054078827 0)
(1.3510948 0.00050496884 0)
(1.3512167 0.00047153422 0)
(1.3513305 0.00044032387 0)
(1.3514368 0.00041118817 0)
(1.3515361 0.00038398757 0)
(1.3516287 0.00035859279 0)
(1.3517153 0.00033488288 0)
(1.3517962 0.00031274599 0)
(1.3518717 0.00029207666 0)
(1.3519422 0.00027277805 0)
(1.3520081 0.00025475728 0)
(1.3520696 0.00023793064 0)
(1.3521271 0.00022221513 0)
(1.3521807 0.00020754013 0)
(1.3522309 0.00019383019 0)
(1.3522777 0.00018102865 0)
(1.3523214 0.00016906366 0)
(1.3523623 0.00015789494 0)
(1.3524005 0.00014744729 0)
(1.352436 0.00013770287 0)
(1.3524694 0.00012856964 0)
(1.3525003 0.0001200664 0)
(1.3525294 0.00011206279 0)
(1.3525562 0.00010464463 0)
(1.3525818 9.7601254e-05 0)
(1.3526049 9.1144014e-05 0)
(1.3526274 8.4901229e-05 0)
(1.3526472 7.9319253e-05 0)
(1.3526672 7.3713435e-05 0)
(1.3526837 6.8969184e-05 0)
(1.3527019 6.3814775e-05 0)
(1.3527151 5.9940784e-05 0)
(1.3527321 5.5018558e-05 0)
(1.3527418 5.2161482e-05 0)
(1.3527589 4.7227748e-05 0)
(1.3527643 4.5662526e-05 0)
(1.3527833 4.0477636e-05 0)
(1.0005903 0.0034629157 0)
(1.0136865 0.0093660195 0)
(1.0370283 0.013046806 0)
(1.0674202 0.014563261 0)
(1.1000315 0.014854525 0)
(1.1316428 0.014564991 0)
(1.1610745 0.013888338 0)
(1.1880674 0.012919245 0)
(1.2125205 0.011806506 0)
(1.2343939 0.010696427 0)
(1.2538077 0.009672742 0)
(1.2710339 0.008762822 0)
(1.286401 0.0079659738 0)
(1.3002112 0.0072722148 0)
(1.3127102 0.0066688089 0)
(1.3240903 0.0061419255 0)
(1.3345036 0.0056780723 0)
(1.3440716 0.0052653209 0)
(1.3528927 0.0048939349 0)
(1.3610463 0.0045563955 0)
(1.3685975 0.0042470695 0)
(1.3756004 0.0039617757 0)
(1.3821012 0.0036973977 0)
(1.3881402 0.0034515829 0)
(1.3937533 0.0032225191 0)
(1.3989728 0.0030087705 0)
(1.403828 0.0028091584 0)
(1.4083456 0.0026226793 0)
(1.4125503 0.0024484494 0)
(1.4164646 0.0022856702 0)
(1.4201094 0.0021336068 0)
(1.423504 0.0019915756 0)
(1.4266661 0.0018589361 0)
(1.4296121 0.0017350863 0)
(1.4323573 0.0016194596 0)
(1.4349159 0.0015115228 0)
(1.4373007 0.0014107743 0)
(1.4395241 0.001316743 0)
(1.441597 0.0012289866 0)
(1.4435301 0.0011470904 0)
(1.4453328 0.001070666 0)
(1.4470143 0.00099934958 0)
(1.4485827 0.00093280065 0)
(1.4500459 0.0008707008 0)
(1.451411 0.00081275237 0)
(1.4526846 0.00075867727 0)
(1.4538731 0.00070821591 0)
(1.4549822 0.00066112609 0)
(1.4560172 0.00061718178 0)
(1.4569831 0.00057617206 0)
(1.4578847 0.00053790027 0)
(1.4587262 0.00050218281 0)
(1.4595117 0.00046884838 0)
(1.460245 0.00043773697 0)
(1.4609295 0.00040869927 0)
(1.4615685 0.000381596 0)
(1.4621651 0.0003562973 0)
(1.4627221 0.00033268245 0)
(1.4632422 0.00031063866 0)
(1.4637278 0.000290061 0)
(1.4641811 0.00027085179 0)
(1.4646045 0.0002529197 0)
(1.4649998 0.00023617954 0)
(1.4653689 0.00022055147 0)
(1.4657136 0.00020596091 0)
(1.4660355 0.00019233813 0)
(1.4663361 0.00017961843 0)
(1.4666168 0.0001677416 0)
(1.466879 0.00015665173 0)
(1.4671238 0.00014629648 0)
(1.4673524 0.00013662787 0)
(1.467566 0.00012760012 0)
(1.4677654 0.00011917119 0)
(1.4679516 0.00011130016 0)
(1.4681256 0.00010395033 0)
(1.4682881 9.7085132e-05 0)
(1.4684398 9.0673624e-05 0)
(1.4685815 8.4682691e-05 0)
(1.4687138 7.9088589e-05 0)
(1.4688374 7.3859724e-05 0)
(1.4689528 6.8980577e-05 0)
(1.4690607 6.4416171e-05 0)
(1.4691613 6.0161442e-05 0)
(1.4692555 5.6172078e-05 0)
(1.469343 5.2461488e-05 0)
(1.4694253 4.8963962e-05 0)
(1.4695014 4.5728387e-05 0)
(1.4695733 4.2646847e-05 0)
(1.4696392 3.9834696e-05 0)
(1.4697023 3.7099763e-05 0)
(1.469759 3.4678694e-05 0)
(1.4698148 3.2217929e-05 0)
(1.4698627 3.0174186e-05 0)
(1.4699129 2.7902389e-05 0)
(1.4699521 2.6248943e-05 0)
(1.4699989 2.406665e-05 0)
(1.4700282 2.2862587e-05 0)
(1.470075 2.0662406e-05 0)
(1.4700918 2.0005489e-05 0)
(1.4701442 1.7678957e-05 0)
(1.0005903 -0.003462916 0)
(1.0136865 -0.0093660198 0)
(1.0370283 -0.013046806 0)
(1.0674202 -0.014563261 0)
(1.1000315 -0.014854524 0)
(1.1316428 -0.014564991 0)
(1.1610745 -0.013888338 0)
(1.1880674 -0.012919245 0)
(1.2125205 -0.011806506 0)
(1.2343939 -0.010696427 0)
(1.2538077 -0.0096727423 0)
(1.2710339 -0.0087628222 0)
(1.286401 -0.0079659735 0)
(1.3002112 -0.0072722143 0)
(1.3127102 -0.0066688082 0)
(1.3240903 -0.006141925 0)
(1.3345036 -0.0056780721 0)
(1.3440716 -0.0052653211 0)
(1.3528927 -0.0048939354 0)
(1.3610463 -0.0045563963 0)
(1.3685975 -0.0042470701 0)
(1.3756004 -0.0039617759 0)
(1.3821012 -0.0036973973 0)
(1.3881402 -0.0034515819 0)
(1.3937533 -0.0032225178 0)
(1.3989728 -0.0030087692 0)
(1.403828 -0.0028091577 0)
(1.4083456 -0.0026226793 0)
(1.4125503 -0.00244845 0)
(1.4164646 -0.0022856711 0)
(1.4201094 -0.0021336077 0)
(1.423504 -0.0019915759 0)
(1.4266661 -0.0018589355 0)
(1.4296121 -0.0017350848 0)
(1.4323573 -0.0016194575 0)
(1.4349159 -0.0015115207 0)
(1.4373007 -0.0014107727 0)
(1.4395241 -0.0013167423 0)
(1.441597 -0.0012289867 0)
(1.4435301 -0.0011470911 0)
(1.4453328 -0.0010706666 0)
(1.4470143 -0.0009993494 0)
(1.4485827 -0.00093279918 0)
(1.4500459 -0.000870698 0)
(1.451411 -0.00081274863 0)
(1.4526846 -0.00075867345 0)
(1.4538731 -0.00070821276 0)
(1.4549822 -0.00066112403 0)
(1.4560172 -0.00061718081 0)
(1.4569831 -0.00057617175 0)
(1.4578847 -0.0005378998 0)
(1.4587262 -0.00050218124 0)
(1.4595117 -0.000468845 0)
(1.460245 -0.00043773171 0)
(1.4609295 -0.00040869263 0)
(1.4615685 -0.00038158913 0)
(1.4621651 -0.00035629139 0)
(1.4627221 -0.00033267806 0)
(1.4632422 -0.00031063604 0)
(1.4637278 -0.00029005958 0)
(1.4641811 -0.00027085038 0)
(1.4646045 -0.00025291688 0)
(1.4649998 -0.00023617424 0)
(1.4653689 -0.00022054358 0)
(1.4657136 -0.00020595129 0)
(1.4660355 -0.00019232874 0)
(1.4663361 -0.00017961101 0)
(1.4666168 -0.00016773723 0)
(1.466879 -0.00015665057 0)
(1.4671238 -0.00014629773 0)
(1.4673524 -0.0001366297 0)
(1.467566 -0.00012760052 0)
(1.4677654 -0.00011916889 0)
(1.4679517 -0.00011129535 0)
(1.4681256 -0.00010394445 0)
(1.4682881 -9.7080385e-05 0)
(1.4684398 -9.0672551e-05 0)
(1.4685815 -8.4686808e-05 0)
(1.4687138 -7.9098083e-05 0)
(1.4688375 -7.3872743e-05 0)
(1.4689528 -6.8994321e-05 0)
(1.4690607 -6.4428204e-05 0)
(1.4691613 -6.0170674e-05 0)
(1.4692555 -5.617851e-05 0)
(1.4693431 -5.2466816e-05 0)
(1.4694253 -4.8971011e-05 0)
(1.4695014 -4.5739649e-05 0)
(1.4695733 -4.2663568e-05 0)
(1.4696392 -3.9855808e-05 0)
(1.4697023 -3.7123006e-05 0)
(1.469759 -3.4700238e-05 0)
(1.4698148 -3.2235943e-05 0)
(1.4698627 -3.0187118e-05 0)
(1.4699129 -2.7910849e-05 0)
(1.4699521 -2.6255308e-05 0)
(1.4699989 -2.4071336e-05 0)
(1.4700282 -2.286773e-05 0)
(1.470075 -2.0665775e-05 0)
(1.4700918 -2.0006375e-05 0)
(1.4701443 -1.7668513e-05 0)
(1.0007347 -0.011814722 0)
(1.0178472 -0.030860927 0)
(1.0462163 -0.041434441 0)
(1.0799018 -0.04519357 0)
(1.1132664 -0.045502351 0)
(1.143782 -0.044080308 0)
(1.1708941 -0.041439982 0)
(1.1945687 -0.037973678 0)
(1.2148582 -0.03419573 0)
(1.2319652 -0.030536887 0)
(1.2462683 -0.027222045 0)
(1.2582339 -0.02431392 0)
(1.2683135 -0.021797888 0)
(1.2768875 -0.019633659 0)
(1.2842554 -0.017773826 0)
(1.2906479 -0.016169652 0)
(1.296243 -0.01477559 0)
(1.3011791 -0.013552298 0)
(1.3055645 -0.012467864 0)
(1.3094838 -0.011497466 0)
(1.3130042 -0.010622162 0)
(1.3161792 -0.0098275128 0)
(1.3190526 -0.0091024102 0)
(1.3216607 -0.0084381758 0)
(1.3240343 -0.0078279032 0)
(1.3261995 -0.0072659742 0)
(1.3281786 -0.006747709 0)
(1.3299913 -0.0062691175 0)
(1.3316544 -0.0058267283 0)
(1.3331829 -0.0054174739 0)
(1.3345896 -0.0050386122 0)
(1.3358862 -0.0046876729 0)
(1.3370827 -0.0043624182 0)
(1.3381883 -0.0040608132 0)
(1.3392108 -0.0037810032 0)
(1.3401576 -0.0035212946 0)
(1.3410349 -0.0032801388 0)
(1.3418486 -0.0030561183 0)
(1.3426038 -0.0028479349 0)
(1.3433051 -0.002654398 0)
(1.3439569 -0.0024744156 0)
(1.3445629 -0.0023069847 0)
(1.3451267 -0.0021511837 0)
(1.3456513 -0.0020061645 0)
(1.3461398 -0.0018711461 0)
(1.3465947 -0.0017454086 0)
(1.3470185 -0.0016282877 0)
(1.3474135 -0.00151917 0)
(1.3477816 -0.0014174886 0)
(1.3481249 -0.0013227196 0)
(1.3484449 -0.0012343784 0)
(1.3487435 -0.0011520165 0)
(1.349022 -0.0010752189 0)
(1.3492818 -0.0010036005 0)
(1.3495242 -0.00093680453 0)
(1.3497505 -0.00087449925 0)
(1.3499616 -0.00081637664 0)
(1.3501587 -0.00076215049 0)
(1.3503427 -0.00071155442 0)
(1.3505145 -0.00066434119 0)
(1.3506748 -0.00062028113 0)
(1.3508245 -0.00057916092 0)
(1.3509643 -0.00054078257 0)
(1.3510949 -0.00050496166 0)
(1.3512167 -0.00047152661 0)
(1.3513306 -0.00044031691 0)
(1.3514368 -0.00041118299 0)
(1.3515361 -0.00038398487 0)
(1.3516288 -0.0003585922 0)
(1.3517153 -0.00033488327 0)
(1.3517962 -0.00031274601 0)
(1.3518717 -0.00029207522 0)
(1.3519423 -0.00027277495 0)
(1.3520081 -0.00025475306 0)
(1.3520697 -0.00023792679 0)
(1.3521271 -0.0002222135 0)
(1.3521808 -0.00020754188 0)
(1.3522309 -0.00019383582 0)
(1.3522777 -0.00018103734 0)
(1.3523215 -0.00016907411 0)
(1.3523623 -0.00015790569 0)
(1.3524005 -0.00014745681 0)
(1.352436 -0.00013771063 0)
(1.3524694 -0.00012857637 0)
(1.3525003 -0.00012007365 0)
(1.3525295 -0.00011207208 0)
(1.3525563 -0.00010465687 0)
(1.3525818 -9.7616568e-05 0)
(1.3526049 -9.1161276e-05 0)
(1.3526274 -8.4918932e-05 0)
(1.3526472 -7.933596e-05 0)
(1.3526672 -7.3727569e-05 0)
(1.3526837 -6.8980815e-05 0)
(1.3527019 -6.3823288e-05 0)
(1.3527151 -5.9948271e-05 0)
(1.3527321 -5.5024693e-05 0)
(1.3527418 -5.2168433e-05 0)
(1.3527589 -4.7232124e-05 0)
(1.3527643 -4.5666346e-05 0)
(1.3527833 -4.0477485e-05 0)
(1.0014244 -0.026824854 0)
(1.0291272 -0.062791352 0)
(1.0654292 -0.077736552 0)
(1.098962 -0.0805972 0)
(1.1253149 -0.078285171 0)
(1.145053 -0.0731539 0)
(1.1594858 -0.066111279 0)
(1.1694287 -0.058162064 0)
(1.1755354 -0.050296754 0)
(1.1785738 -0.043150708 0)
(1.1793571 -0.036972825 0)
(1.178595 -0.031771632 0)
(1.1768304 -0.027451839 0)
(1.1744518 -0.023886768 0)
(1.1717287 -0.02094762 0)
(1.1688444 -0.018515781 0)
(1.1659195 -0.016488085 0)
(1.1630317 -0.014779503 0)
(1.1602295 -0.013322985 0)
(1.1575415 -0.012067132 0)
(1.1549828 -0.010973 0)
(1.1525601 -0.010011061 0)
(1.1502747 -0.0091587458 0)
(1.1481246 -0.0083986035 0)
(1.1461059 -0.0077169503 0)
(1.1442134 -0.0071028885 0)
(1.1424414 -0.0065475925 0)
(1.1407838 -0.0060437961 0)
(1.1392344 -0.0055854266 0)
(1.1377869 -0.0051673446 0)
(1.1364353 -0.0047851564 0)
(1.1351738 -0.0044350751 0)
(1.1339968 -0.0041138155 0)
(1.1328987 -0.0038185118 0)
(1.1318746 -0.0035466526 0)
(1.1309195 -0.0032960274 0)
(1.1300289 -0.003064684 0)
(1.1291985 -0.0028508917 0)
(1.1284242 -0.002653111 0)
(1.1277022 -0.0024699686 0)
(1.1270291 -0.0023002346 0)
(1.1264014 -0.0021428052 0)
(1.1258161 -0.001996686 0)
(1.1252703 -0.0018609788 0)
(1.1247612 -0.0017348701 0)
(1.1242865 -0.0016176209 0)
(1.1238437 -0.0015085588 0)
(1.1234307 -0.0014070699 0)
(1.1230455 -0.0013125931 0)
(1.1226861 -0.0012246146 0)
(1.1223509 -0.0011426628 0)
(1.1220381 -0.0010663044 0)
(1.1217463 -0.0009951406 0)
(1.1214739 -0.00092880375 0)
(1.1212198 -0.00086695445 0)
(1.1209827 -0.00080927882 0)
(1.1207614 -0.0007554866 0)
(1.1205548 -0.00070530886 0)
(1.1203621 -0.00065849643 0)
(1.1201821 -0.00061481844 0)
(1.1200142 -0.00057406071 0)
(1.1198574 -0.00053602467 0)
(1.1197111 -0.0005005258 0)
(1.1195745 -0.00046739254 0)
(1.1194469 -0.00043646534 0)
(1.1193279 -0.00040759523 0)
(1.1192167 -0.00038064385 0)
(1.1191129 -0.00035548188 0)
(1.119016 -0.00033198925 0)
(1.1189255 -0.00031005399 0)
(1.118841 -0.00028957241 0)
(1.1187622 -0.00027044727 0)
(1.1186885 -0.00025258903 0)
(1.1186197 -0.00023591222 0)
(1.1185555 -0.00022033962 0)
(1.1184955 -0.00020579507 0)
(1.1184394 -0.00019221256 0)
(1.1183871 -0.00017952325 0)
(1.1183383 -0.00016767281 0)
(1.1182927 -0.00015659685 0)
(1.1182501 -0.0001462543 0)
(1.1182103 -0.00013657985 0)
(1.1181732 -0.00012754995 0)
(1.1181385 -0.0001190897 0)
(1.118106 -0.00011120246 0)
(1.1180759 -0.00010378888 0)
(1.1180475 -9.6898247e-05 0)
(1.1180213 -9.0379591e-05 0)
(1.1179966 -8.4365016e-05 0)
(1.1179739 -7.8599418e-05 0)
(1.1179522 -7.3369153e-05 0)
(1.1179326 -6.8215444e-05 0)
(1.1179137 -6.3717885e-05 0)
(1.1178966 -5.9026549e-05 0)
(1.1178803 -5.5278491e-05 0)
(1.1178652 -5.0878865e-05 0)
(1.1178518 -4.8018833e-05 0)
(1.1178373 -4.3724438e-05 0)
(1.1178287 -4.210719e-05 0)
(1.1178117 -3.783454e-05 0)
(1.0016583 -0.05381943 0)
(1.0359761 -0.10128444 0)
(1.0597199 -0.11073663 0)
(1.0628947 -0.10592202 0)
(1.0515569 -0.096228728 0)
(1.0340529 -0.083934061 0)
(1.0142795 -0.070327063 0)
(0.99360702 -0.056981334 0)
(0.97292577 -0.045107479 0)
(0.9531074 -0.03523675 0)
(0.93479539 -0.02740165 0)
(0.91829012 -0.021387227 0)
(0.90362379 -0.016884498 0)
(0.89068067 -0.013569709 0)
(0.87928174 -0.011147749 0)
(0.86923241 -0.0093736594 0)
(0.86034423 -0.008056929 0)
(0.85244667 -0.0070571283 0)
(0.84539241 -0.0062752388 0)
(0.83905793 -0.0056438284 0)
(0.83334127 -0.0051180902 0)
(0.82815884 -0.0046686711 0)
(0.82344212 -0.004276416 0)
(0.81913467 -0.0039287377 0)
(0.81518961 -0.0036172031 0)
(0.81156765 -0.0033359707 0)
(0.80823544 -0.0030808049 0)
(0.8051644 -0.00284847 0)
(0.80232979 -0.00263637 0)
(0.79970999 -0.0024423386 0)
(0.79728598 -0.002264518 0)
(0.79504087 -0.0021012884 0)
(0.79295963 -0.0019512236 0)
(0.79102881 -0.0018130616 0)
(0.78923627 -0.001685683 0)
(0.7875711 -0.0015680929 0)
(0.78602338 -0.0014594071 0)
(0.78458411 -0.0013588376 0)
(0.78324511 -0.001265682 0)
(0.78199889 -0.0011793124 0)
(0.78083861 -0.0010991666 0)
(0.77975799 -0.0010247396 0)
(0.77875128 -0.00095557628 0)
(0.77781318 -0.00089126574 0)
(0.77693881 -0.00083143532 0)
(0.77612368 -0.00077574638 0)
(0.77536362 -0.00072389018 0)
(0.77465481 -0.00067558465 0)
(0.77399368 -0.00063057163 0)
(0.77337694 -0.00058861431 0)
(0.77280154 -0.0005494953 0)
(0.77226465 -0.00051301449 0)
(0.77176364 -0.00047898742 0)
(0.77129607 -0.00044724376 0)
(0.77085967 -0.00041762575 0)
(0.77045234 -0.00038998725 0)
(0.77007212 -0.00036419259 0)
(0.76971718 -0.00034011581 0)
(0.76938582 -0.00031764012 0)
(0.76907646 -0.00029665701 0)
(0.76878762 -0.00027706603 0)
(0.76851793 -0.00025877393 0)
(0.76826611 -0.000241694 0)
(0.76803097 -0.00022574564 0)
(0.7678114 -0.00021085341 0)
(0.76760636 -0.00019694681 0)
(0.76741489 -0.00018395986 0)
(0.76723608 -0.00017183074 0)
(0.76706911 -0.00016050218 0)
(0.76691317 -0.00014992059 0)
(0.76676753 -0.00014003683 0)
(0.76663152 -0.00013080485 0)
(0.76650448 -0.00012218231 0)
(0.76638582 -0.00011412891 0)
(0.766275 -0.0001066077 0)
(0.76617151 -9.9582187e-05 0)
(0.76607485 -9.3020277e-05 0)
(0.76598458 -8.6888327e-05 0)
(0.76590028 -8.1159865e-05 0)
(0.76582154 -7.5803622e-05 0)
(0.765748 -7.0799914e-05 0)
(0.76567933 -6.6118112e-05 0)
(0.76561517 -6.1746732e-05 0)
(0.76555529 -5.7651511e-05 0)
(0.76549935 -5.383212e-05 0)
(0.76544718 -5.0243834e-05 0)
(0.76539843 -4.6904387e-05 0)
(0.76535303 -4.3748909e-05 0)
(0.76531057 -4.0826422e-05 0)
(0.7652711 -3.8036434e-05 0)
(0.76523415 -3.5481368e-05 0)
(0.76519987 -3.2998898e-05 0)
(0.76516781 -3.0779643e-05 0)
(0.76513803 -2.8557257e-05 0)
(0.76511049 -2.6662331e-05 0)
(0.76508427 -2.4667273e-05 0)
(0.76506148 -2.3124498e-05 0)
(0.76503685 -2.1391643e-05 0)
(0.76502113 -2.037899e-05 0)
(0.76499238 -1.9327117e-05 0)
(0.91890839 -0.035821913 0)
(0.86271384 -0.062195638 0)
(0.7870597 -0.06251009 0)
(0.69536033 -0.054550395 0)
(0.61089745 -0.044531651 0)
(0.54411592 -0.034015971 0)
(0.49343012 -0.024187539 0)
(0.45479413 -0.01614423 0)
(0.42544582 -0.010265786 0)
(0.40347313 -0.0063041455 0)
(0.38715767 -0.0037976294 0)
(0.3749622 -0.0023103378 0)
(0.36566193 -0.0014930144 0)
(0.35836272 -0.0010851178 0)
(0.35244267 -0.00090607217 0)
(0.34748201 -0.000841052 0)
(0.34320348 -0.00082372473 0)
(0.33942726 -0.00081931109 0)
(0.33603793 -0.00081185249 0)
(0.33296114 -0.00079580131 0)
(0.33014778 -0.00077081108 0)
(0.32756384 -0.00073870874 0)
(0.3251842 -0.00070188847 0)
(0.32298902 -0.00066256507 0)
(0.32096172 -0.00062249947 0)
(0.31908785 -0.00058295794 0)
(0.31735449 -0.00054477251 0)
(0.31574995 -0.00050843519 0)
(0.3142636 -0.00047419235 0)
(0.31288574 -0.00044212474 0)
(0.31160755 -0.00041220888 0)
(0.31042101 -0.00038436049 0)
(0.30931883 -0.00035846365 0)
(0.30829438 -0.00033438927 0)
(0.30734165 -0.0003120063 0)
(0.30645515 -0.00029118805 0)
(0.30562991 -0.0002718154 0)
(0.30486136 -0.00025377821 0)
(0.30414535 -0.00023697557 0)
(0.30347807 -0.0002213154 0)
(0.30285601 -0.00020671383 0)
(0.30227596 -0.00019309432 0)
(0.30173496 -0.00018038689 0)
(0.30123029 -0.00016852727 0)
(0.30075942 -0.00015745622 0)
(0.30032002 -0.00014711906 0)
(0.29990993 -0.00013746518 0)
(0.29952715 -0.0001284478 0)
(0.29916983 -0.00012002375 0)
(0.29883624 -0.00011215317 0)
(0.29852478 -0.0001047993 0)
(0.29823397 -9.7928095e-05 0)
(0.29796241 -9.1507903e-05 0)
(0.29770883 -8.550915e-05 0)
(0.29747201 -7.9903986e-05 0)
(0.29725084 -7.4666281e-05 0)
(0.29704429 -6.9771438e-05 0)
(0.29685138 -6.5196503e-05 0)
(0.2966712 -6.0920249e-05 0)
(0.29650291 -5.6923061e-05 0)
(0.29634573 -5.3187049e-05 0)
(0.29619891 -4.9695661e-05 0)
(0.29606176 -4.6433494e-05 0)
(0.29593366 -4.3385996e-05 0)
(0.29581401 -4.0539086e-05 0)
(0.29570224 -3.7879277e-05 0)
(0.29559784 -3.5393609e-05 0)
(0.29550032 -3.3069952e-05 0)
(0.29540922 -3.0897366e-05 0)
(0.29532413 -2.8865959e-05 0)
(0.29524465 -2.6967216e-05 0)
(0.29517039 -2.5193261e-05 0)
(0.29510103 -2.3536846e-05 0)
(0.29503624 -2.1990606e-05 0)
(0.29497571 -2.0547238e-05 0)
(0.29491917 -1.9199013e-05 0)
(0.29486636 -1.7938964e-05 0)
(0.29481703 -1.6759836e-05 0)
(0.29477095 -1.5656646e-05 0)
(0.29472791 -1.4623635e-05 0)
(0.2946877 -1.3658408e-05 0)
(0.29465014 -1.2755735e-05 0)
(0.29461506 -1.1914708e-05 0)
(0.2945823 -1.1128102e-05 0)
(0.29455171 -1.0396079e-05 0)
(0.29452315 -9.7077159e-06 0)
(0.29449648 -9.0668341e-06 0)
(0.29447161 -8.4584766e-06 0)
(0.29444837 -7.8946581e-06 0)
(0.29442673 -7.3545545e-06 0)
(0.29440651 -6.8618516e-06 0)
(0.2943877 -6.3847716e-06 0)
(0.29437014 -5.9603073e-06 0)
(0.29435382 -5.5424859e-06 0)
(0.29433863 -5.1795677e-06 0)
(0.2943244 -4.8278605e-06 0)
(0.29431144 -4.5233533e-06 0)
(0.2942986 -4.3122741e-06 0)
(0.29428827 -4.1411897e-06 0)
(0.2942733 -4.5802194e-06 0)
)
;

boundaryField
{
    top
    {
        type            fixedValue;
        value           uniform (0 0 0);
    }
    inlet
    {
        type            fixedValue;
        value           uniform (1 0 0);
    }
    outlet
    {
        type            zeroGradient;
    }
    bottom
    {
        type            fixedValue;
        value           uniform (0 0 0);
    }
    back
    {
        type            empty;
    }
    front
    {
        type            empty;
    }
}


// ************************************************************************* //
