/*--------------------------------*- C++ -*----------------------------------*\
  =========                 |
  \\      /  F ield         | OpenFOAM: The Open Source CFD Toolbox
   \\    /   O peration     | Website:  https://openfoam.org
    \\  /    A nd           | Version:  9
     \\/     M anipulation  |
\*---------------------------------------------------------------------------*/
FoamFile
{
    format      ascii;
    class       volScalarField;
    location    "30";
    object      p;
}
// * * * * * * * * * * * * * * * * * * * * * * * * * * * * * * * * * * * * * //

dimensions      [0 2 -2 0 0 0 0];

internalField   nonuniform List<scalar> 
918
(
0.56362223
1.8246305
0.01362616
0.53055276
-0.0026123549
1.7952926
-0.92450086
1.3527202
0.58629923
-0.14349542
-0.020252437
0.78211672
1.6666836
1.4261362
-0.67419566
0.0065583077
1.2034844
-0.73863871
0.58623905
-0.011344847
1.4513241
0.53410608
0.56096114
0.53511789
0.95636835
1.401141
1.529648
0.0164389
-0.0025124471
-0.0095120422
0.0072623978
-0.021590476
-0.0091785047
1.6715691
1.7255896
1.7492779
0.56276212
0.57894373
-0.68554099
-0.79015842
-0.75585527
-1.0081484
1.3351256
1.3306745
-0.27858073
1.3597496
1.3765369
0.54751256
0.58148926
0.59253045
0.52979582
0.5606289
0.57655526
0.50493364
-0.15835682
-0.21819434
-0.10280136
-0.081350843
0.091678969
-0.013566594
-0.016795403
-0.0088579359
-0.0060583405
0.59853393
0.74947049
0.72670507
0.7996387
0.83671379
1.7617266
1.7251694
1.7521477
1.6989716
1.6892766
1.6465281
1.6096786
1.4649351
1.4723314
1.423551
1.3871896
-1.2080828
-2.2563077
-0.091713817
0.21723937
-0.0063656061
0.024798043
0.037860984
1.1776185
1.1640197
1.2207834
1.2444622
1.3194662
-0.67619394
-0.94871136
0.58927447
0.583483
0.57272655
0.55443555
0.60094931
0.64616527
-0.0097906393
-0.0043400614
-0.0307737
-0.01109737
-0.0067945449
1.4319279
1.4234152
0.54953349
0.55390719
0.85458392
0.91341994
0.89373637
0.43620578
0.97371257
1.0011641
1.201062
1.3952668
1.4052464
1.3870266
1.5158723
1.4712595
1.5763124
1.6018929
0.017908345
-0.0013532914
0.028873544
0.0069311055
0.028181558
0.57340747
0.57656695
0.59842066
0.56069167
0.56439801
0.52368644
0.38403363
0.66546421
0.68230524
-0.51658889
-0.58265402
-0.79880076
-0.82009422
-1.0304248
0.93240859
1.3122052
1.3051818
-0.34814553
-0.2105488
-0.40894649
-0.12645595
-0.1763929
0.55818418
0.55947742
0.55679769
0.54914969
0.5507985
0.55175292
0.56805465
0.5679892
0.58326763
0.57678645
0.71665966
0.45317399
0.39621507
-0.43873662
-0.24526078
-0.41862586
-0.062845634
-0.051979742
0.11581651
0.1629928
0.09530855
0.090862892
-0.039218663
-0.023054142
-0.030337246
-0.0085204221
-0.0075563998
0.58881182
0.587609
0.59400581
0.5995346
0.65515748
0.66404124
0.70149682
0.68409371
1.5356486
1.5593153
1.6040042
1.5669377
-3.6545112
-6.3450628
0.54753815
0.73038081
-0.0062025062
-0.012747563
0.00011103566
0.011326707
0.00019787224
-0.0007357797
0.053827071
0.044974907
0.039133508
0.048171017
1.1291048
1.1134472
1.2674113
1.3047643
1.1848186
1.1748098
0.59352139
0.59065091
0.59756103
0.58891148
-0.0101401
-0.009839301
-0.0064417331
1.3832495
1.4095133
1.4005411
0.3522932
0.2596597
0.47601504
0.51722333
1.0807412
1.0322776
1.0634558
1.2761135
1.3103221
1.5913809
1.603404
1.6412733
1.6380411
1.686334
1.6786553
1.6371289
0.58971416
0.57919496
0.59343843
0.59100177
0.59615027
0.59461812
0.63475963
0.61598642
0.62338116
0.21868118
-0.11868098
0.75042735
0.74453529
0.72665691
0.71888219
1.0080948
1.0995901
1.255492
1.2846285
1.2758029
-0.019868749
-0.049129539
0.32783403
0.3009844
0.5398997
0.57140773
0.56567425
1.509756
1.510067
1.5564733
1.5187261
1.4600568
1.482826
-0.14511052
-1.3120936
-0.69495674
1.1344083
0.91396803
1.0187083
0.053546416
0.052350344
0.033068308
1.2774009
1.3388224
0.77610498
1.0254789
1.0271575
1.3579006
1.3805827
1.4522763
1.3780536
1.4043831
1.4286816
1.4116778
0.87793908
0.78502447
0.80789606
1.146686
1.1997938
0.18911802
0.086031253
0.071882342
0.17562917
0.23311642
0.19929079
1.3052164
1.2437216
1.3146548
0.56061352
0.55273183
0.013446556
0.032622883
0.59350797
0.56800083
-0.0020187525
0.017609185
0.99481719
-0.42162585
0.22581281
0.59775234
0.57239433
0.57535895
-0.13460283
0.46601703
-0.0090349797
0.088757103
0.032132081
0.76328526
0.61792412
0.59403919
0.00058140268
0.0067237574
0.010010286
-0.34722225
0.56754736
0.546569
0.56464404
0.54862733
0.58169405
-0.00037021572
0.0057123717
0.0089534985
0.0038052865
0.010417219
0.0067942215
0.58251551
0.62336255
-0.24129068
0.58041015
0.56829297
0.58455029
0.54690807
0.6044705
0.55818386
0.028274574
0.023733594
0.031443922
0.38657633
0.53461709
1.3130726
1.4619245
1.3349075
0.94533354
0.61359367
1.1690764
1.2666921
1.1313473
1.3077725
1.291158
1.341937
0.29737988
0.093392639
0.3280876
0.23092252
0.59405192
0.59655269
0.56851367
0.56206773
0.58287749
0.55485321
0.58465903
0.58811212
0.58612698
0.60184063
-0.061364386
-0.09992772
-0.12647049
-0.21505129
0.48032728
0.75578616
0.38001821
0.41894226
0.21623792
-0.0031387025
-0.0079935428
-0.0073570486
-0.019974975
0.056678593
-0.00045646452
0.11135122
0.11207378
0.088980115
0.038663592
0.023193345
-0.0020164972
0.036558822
0.71797496
0.69616223
0.75679151
0.80860864
0.61153803
0.5987115
0.59844946
0.61432786
0.59886196
0.54330203
0.59391937
0.55929063
0.0076125418
0.010951861
-0.0033280196
0.020846031
0.037178949
0.038795823
0.023060174
0.01135472
0.013469782
0.012830141
0.013543393
0.00071528348
-0.29678979
-0.4586996
1.2219023
1.0804303
0.27357976
0.54360168
0.54496177
0.53091904
0.57226649
0.56056656
0.56449465
0.56454752
0.56091452
0.57533887
0.57302486
0.62335089
0.63931617
-0.16511436
-0.3884122
-0.13871443
-0.19190706
0.44648856
1.0822925
0.54186546
0.4521044
0.4516888
0.88636524
1.5368441
1.3989436
1.4079921
1.4398842
-0.062304373
0.42044528
0.13409651
0.81283535
1.0382589
1.2827948
1.3405057
1.344793
1.3146654
1.2515103
0.022715979
1.0319653
-0.04561711
-0.028798951
0.32294281
0.12549332
1.3585467
1.2601329
1.2588451
1.3282356
1.3634301
1.2836005
1.2298471
1.2497948
1.3141245
1.3126454
0.94784561
0.42413277
0.33186732
0.30189335
1.1988673
1.0194847
1.1178928
0.91624331
0.58152552
0.60199108
0.58506735
0.55206528
0.5672555
0.54747515
0.59652606
0.62122747
0.59789781
0.57202715
0.59990571
0.5739489
-0.057181677
-0.057392126
-0.010392338
-0.21846865
-0.20369729
-0.3199139
-0.092555705
0.13815544
0.101464
0.32392899
0.45335016
0.094500877
-0.10448189
-0.046702247
0.015480115
0.23870205
0.29565748
0.15307784
0.21490638
0.20177653
0.17816479
0.32093816
0.32611304
0.020795586
0.025918126
0.0040500295
0.0059405707
0.075755324
0.18416678
0.18722742
0.04811343
0.034068402
-0.0029491056
-0.0061120805
0.042163465
0.011784288
0.032191023
0.051498392
0.025641078
0.054910256
0.046875233
0.034199758
0.061670316
0.052227746
0.66116881
0.67542884
0.6621459
0.83527727
0.83067129
0.8667156
0.83823489
0.58665113
0.59451735
0.58576065
0.63818279
0.61145087
0.64788561
0.66846959
0.70933841
0.72137061
0.63464981
0.61282099
0.69082312
0.64738579
0.63903703
0.65163904
0.66851141
0.60595622
0.62225318
0.021841194
0.022832293
0.056920501
-0.024768787
0.041290174
0.025001294
0.042089712
0.076370701
0.030897297
0.05250981
0.041804603
0.017410382
0.03166217
-0.11809646
0.046934145
-0.34930407
-0.38299077
-0.48159516
1.114611
1.2721267
1.0148289
0.73795159
0.77081026
1.0536091
1.1952162
0.70851742
0.84167439
0.9543745
0.89504082
1.1354226
0.56702091
0.55903772
0.5713762
0.5477153
0.57815043
0.025473393
0.22763686
0.15238711
0.33526163
0.56227467
0.61167819
0.42115241
0.36231479
0.5234142
0.41955878
1.0816519
1.1179947
0.97825693
1.0398982
1.0313589
0.69277102
0.91531478
1.0463768
0.9177659
0.98661568
1.0263336
0.96206376
1.0249001
0.92366319
0.80299002
0.83140638
0.62770416
0.70516971
0.65881631
0.61680001
0.74412551
0.69967549
0.74140988
0.72549281
0.79130606
0.89222557
0.87242037
0.88412581
0.93594906
0.78109206
0.70172979
0.72632705
0.80085666
0.67282871
0.6935034
0.73539713
0.42467095
0.43531656
0.31446386
0.21981738
0.30269624
0.14525297
0.12294671
0.15450391
0.46590306
-0.1618418
-0.14708311
-0.51654129
0.89463714
1.5594191
1.2841564
1.2765779
1.3645635
1.3276912
1.3185843
1.3790959
1.384993
1.1920284
1.244544
1.2391178
1.1644198
1.209195
1.3055127
1.2849988
0.98738812
0.69384774
0.65837301
0.61512455
0.35119617
0.43489146
0.82927875
0.67416942
0.52691438
0.5120305
0.82679666
0.56596366
0.69730437
0.83254337
0.66140312
0.56166899
1.0047428
1.1380132
1.1256236
1.0723952
0.90608248
0.95114429
1.031686
1.1024027
1.1424391
1.2178538
0.57207381
0.58364934
0.57784379
0.55935951
0.58555057
0.59297299
0.59176759
0.57975518
0.58552363
0.58792155
0.59903701
-0.020023048
-0.0083755133
-0.030660217
-0.037561452
0.014279778
-0.0047322197
0.072760142
0.046403707
0.023507634
0.030836344
-0.006768125
-0.024495735
-0.0033542376
0.013310303
0.18642264
0.22310321
0.1691806
0.15599068
0.36218034
0.4979194
0.55288868
0.47266471
0.28988452
0.31374397
0.38195224
0.066142498
0.083511299
0.095856389
0.11725943
0.12131265
0.0032908011
0.0031238022
0.008587771
0.0071285139
0.021993648
0.0041793011
0.0042255147
0.010939242
0.0090909559
6.3056428e-05
-0.0055764961
0.58729275
0.60535655
0.65504029
0.61842479
0.6165717
0.64314348
0.6170418
0.63393697
0.63838653
0.66610286
0.6513355
0.68707016
0.67783725
0.023602312
0.022026036
0.0021922398
0.015747419
0.023875825
0.023410764
0.018705481
0.27683903
0.13528322
0.1709574
0.047027628
-0.19162531
-0.083614722
0.64442777
0.77376932
0.76975569
1.003538
0.79033194
0.73763609
0.88222734
1.0070546
0.44382309
0.67071354
0.48348613
1.1362069
1.0404914
1.2142696
0.76077812
0.43806674
0.67836934
0.76193492
0.45301957
0.56686295
0.56244797
0.39028088
0.46331134
0.48685992
0.64121273
0.4462086
0.49884305
0.42671132
0.44864843
0.50871838
0.52837927
0.62711709
0.68652445
0.37241359
0.33927023
0.27053015
1.1044255
1.1205408
1.1591174
1.1422314
1.1720095
0.95299797
0.9442048
0.9851057
0.98691158
0.95803477
-0.3474513
-0.44610945
-0.78563628
-0.23731903
0.37431824
0.93643868
0.81455392
1.4010245
1.1266117
1.358333
1.3042202
1.2481475
1.1566808
1.1425774
1.2303362
0.65703885
0.85034517
0.82802885
0.78693506
0.59366188
0.50211259
1.1043198
1.0801997
1.1588143
1.1909739
1.1280634
1.2119027
0.59355751
0.61194272
0.59081036
0.60489812
0.58962764
0.5983583
0.11014861
0.054341511
0.17028884
0.15107563
0.07209562
0.043860595
0.02829505
0.029371844
0.014928442
0.022003086
0.04083904
0.045876984
0.29619469
0.25529883
0.063193064
0.17664454
0.0016493666
-0.096882722
-0.1581064
0.029277912
0.1580703
0.17499847
0.57349784
0.85623299
0.70074926
0.812616
0.63953169
0.74952784
0.71929086
0.67958253
0.71688992
0.59908292
0.61617419
0.61901371
-0.17070183
0.16362197
1.44679
1.3798931
0.98148111
0.83201232
0.77704039
1.1125614
1.025696
0.86242775
0.97054049
1.0925548
1.0778313
0.39785976
0.37616664
0.73061321
0.86507085
0.50419547
0.38781236
0.35269004
0.52088827
0.5696199
)
;

boundaryField
{
    wall-4
    {
        type            zeroGradient;
    }
    velocity-inlet-5
    {
        type            zeroGradient;
    }
    velocity-inlet-6
    {
        type            zeroGradient;
    }
    pressure-outlet-7
    {
        type            fixedValue;
        value           uniform 0;
    }
    wall-8
    {
        type            zeroGradient;
    }
    frontAndBackPlanes
    {
        type            empty;
    }
}


// ************************************************************************* //
