/*--------------------------------*- C++ -*----------------------------------*\
  =========                 |
  \\      /  F ield         | OpenFOAM: The Open Source CFD Toolbox
   \\    /   O peration     | Website:  https://openfoam.org
    \\  /    A nd           | Version:  9
     \\/     M anipulation  |
\*---------------------------------------------------------------------------*/
FoamFile
{
    format      ascii;
    class       surfaceScalarField;
    location    "30";
    object      phi;
}
// * * * * * * * * * * * * * * * * * * * * * * * * * * * * * * * * * * * * * //

dimensions      [0 3 -1 0 0 0 0];

internalField   nonuniform List<scalar> 
1300
(
1.7582594
5.6264299
-5.186478
1.7582594
-8.1713412
5.6264299
-6.0672
6.0672
-1.2996645
1.2996645
3.7337991
3.6508902
-4.265381
4.265381
-3.7255061
3.7255061
-1.5372084
1.5372084
-5.2377142
5.2377142
-5.0570479
5.0570479
4.7539721
-4.7539721
-6.921384
6.921384
-1.6299336
1.6299336
-5.4358609
5.4358609
1.4907418
-1.4907418
-3.789
3.789
-0.28233257
0.28233258
-0.57330769
5.144782
1.1849517
1.1849517
-1.6786939
1.6786939
-4.8526545
4.8526545
6.2142428
-6.2142428
7.9099599
-7.9099599
-2.7234819
-3.1703613
1.7010198
-12.233348
-6.4703214
-6.4703214
-8.4382662
8.4382662
-2.8118364
2.8145936
1.4731584
-1.4731584
-1.7702177
1.7702177
-5.9620352
-0.10516482
-5.9620352
6.1260196
-0.058819649
6.1260196
-1.4503146
0.15065008
-1.4503146
4.9354766
-4.9354766
1.1162531
0.18341131
1.1162531
1.2502519
-1.2502519
-3.7379318
7.4717308
3.6467575
-3.0527002
8.1974823
-3.3942507
7.045141
-6.54917
6.54917
-4.5471932
0.28181219
-4.5471932
4.0666696
0.19871136
4.0666696
-7.4566951
7.4566951
-3.7775625
0.052056451
-3.7775625
3.6884624
0.037043603
3.6884624
2.2234945
-2.2234945
-1.4379128
-0.099295626
-1.4379128
1.620944
-0.083735584
1.620944
0.35898304
5.2674469
-5.9854129
8.8000065
-5.267447
0.029732819
5.2000741
0.037640088
5.2000741
-5.0936004
0.036552418
-5.0936004
5.0142132
0.042834791
5.0142132
4.8513479
-0.097375746
4.8513479
-4.8547893
0.10081712
-4.8547893
-4.1966351
-4.7516111
-7.0870178
0.16563373
-7.0870178
-1.5651102
-0.064823449
-1.5651102
1.6707198
-0.040786137
1.6707198
-4.1147058
4.1147058
-5.8789552
0.44309425
-5.8789552
1.3619666
0.12877518
1.3619666
2.0098706
2.5616037
3.76813
-3.76813
2.2773881
-3.731354
-0.057645908
-3.731354
-3.8684041
-4.0415558
3.8684042
-0.079404175
-0.66978107
0.38744849
-0.66978106
1.235568
-0.050616348
1.235568
1.6801198
-0.059175823
-1.6801198
0.0014258829
3.4429033
-3.4429033
1.2098677
0.46882616
1.2098677
-5.5751584
5.5751584
4.9534831
0.060730091
-4.9534831
0.10082859
6.1537449
0.060497914
6.1537449
-6.1926985
-0.021544316
-6.1926984
3.341315
-6.5116764
-3.3129983
6.7195558
0.20182816
-6.7195558
0.24923445
1.6217102
-0.14855181
1.6217102
-1.1707144
1.1707144
-1.4109705
-0.062187885
-1.4109705
-2.1055396
0.33532191
-2.1055396
1.4973278
0.27288996
1.4973277
-5.6498538
-0.31218137
-5.6498538
-6.081303
0.20234785
6.0813031
0.044716541
1.399372
-1.399372
-1.5760422
0.12572764
-1.5760423
-5.2603279
-0.38952591
5.2603279
-0.32485132
-4.7198602
-0.2156163
-4.7198602
-1.3176813
-0.093289216
1.3176813
-0.067429439
1.2607413
-0.02517332
-1.2607413
0.010489451
-3.0518071
5.6134108
-3.3951438
7.0419014
-6.1675201
-0.38164993
-6.1675201
6.8898934
-0.34072342
6.8898934
5.010241
0.42561992
-5.010241
0.46304776
3.9294435
0.13722616
3.9294434
-7.4250889
-0.031606195
-7.4250889
7.463344
-0.0066489675
7.463344
3.8409283
0.088515154
-3.8409283
0.063365704
3.665871
0.022591398
3.665871
2.4447178
-0.22122334
2.4447178
-2.0130999
-0.21039461
-2.0130999
1.2694224
-1.2694224
1.353022
-0.08359964
-1.353022
-0.084890785
-11.148727
11.127183
-0.035779754
-11.112947
5.1642944
5.1642944
4.0619176
0.78943023
4.0619177
-5.0446851
0.1898958
-5.0446851
3.6095522
-6.9225505
3.8730236
-8.0696587
5.2591757
-17.492524
4.7001636
-9.4517747
7.3173214
-7.3173214
7.2076658
0.10965565
-7.2076658
0.12064809
-1.4780365
-0.087073732
-1.4780364
-3.4956011
-0.61910472
-3.4956011
4.7795381
-0.66483226
4.7795381
-1.3011969
1.3011969
-1.3151055
0.013908611
1.3151055
0.04686109
3.6796867
-0.013815695
-3.6796868
-0.051667168
0.90801779
0.20823534
-0.9080178
0.23823674
3.8591055
-0.41620224
3.8591055
-3.0057049
-0.43719837
-3.0057049
-1.3543976
-0.12363883
1.3543976
-0.14452987
-5.8201552
0.24499684
-5.8201552
-11.213437
0.1004896
-11.175797
-6.0922088
-6.0922088
2.3460575
11.146064
-1.8106213
-0.20247854
1.8106213
-0.18891113
1.2663276
0.034869314
-1.2663276
0.095613201
-1.1981047
-0.071317684
1.1981047
-0.027390317
-2.5337371
0.4281975
-2.5337371
-1.2101762
1.2101762
-1.3040321
0.09385593
1.3040322
0.1932956
1.7081431
-0.30877103
1.7081431
1.6500971
0.020622626
-1.6500971
0.074054871
-4.459356
-0.26050417
-4.4593561
7.1539398
-0.26404634
7.1539397
-2.7126808
-0.29302412
2.7126808
-0.26796295
-0.035216861
11.1624
-5.1290775
0.035477195
5.1290775
-11.222898
11.258375
-3.113752
0.58001486
3.113752
0.94816563
5.3075427
0.26761574
-5.3075427
0.26285753
7.4011282
0.062215841
-7.4011282
0.083806805
-2.9862283
-0.5093728
-2.9862283
-5.5258886
-0.64163155
5.5258886
-0.74635053
-11.475596
-0.19575549
11.671352
-11.432762
6.0159107
0.1378342
-6.0159107
11.396209
-1.2304428
-0.16892923
1.2304428
-0.020266566
2.0576051
-0.34946199
2.0576051
4.2106841
-0.35157855
-4.2106841
-0.24867199
-7.3140922
-0.11099678
7.3140922
-0.16015243
-2.5006683
-0.48556004
2.5006683
-0.44306318
-5.3366262
5.2860098
2.8608561
-3.2952705
-3.2164059
-7.3368262
2.5456714
3.0677394
4.8230595
-11.018614
-6.4739097
-10.76938
7.2735092
-7.0106517
-9.500554
9.4031782
9.8717949
-10.087411
-7.3263844
7.3732455
8.7165559
-8.7839853
3.7821088
3.689622
10.897585
-10.615772
-16.789373
16.407723
10.269666
-10.21761
17.03784
-17.069446
-19.256315
19.318531
-7.3708712
7.2715756
-9.1381117
8.9277171
-9.358286
9.090323
-3.9582964
-4.1113623
14.162258
-13.996624
11.609431
-11.667077
-11.55319
11.996284
4.0437335
1.2422763
4.0185602
-3.6171532
7.3992621
-3.4279877
6.2888438
3.404703
-7.3629993
3.5178476
-6.7342534
5.8678237
5.7416074
-5.7884197
-1.5484064
-8.1464421
7.9978903
-7.5486361
7.5212458
11.944116
-12.049281
-3.6056653
7.2952873
-3.4362361
6.5039755
-3.6970942
-3.6292902
3.5683191
1.2547405
8.718627
5.4436306
-8.9204549
-1.8489251
-10.519869
10.16829
-11.119807
10.682608
-0.45251359
5.7873851
-5.3348715
4.4001409
-1.4719882
7.2593733
5.801521
5.9914168
5.8677545
-5.6001387
1.1428973
-6.4777688
-6.3769401
-3.2418365
3.3675641
3.2469982
-3.0635869
7.7752876
2.0965073
7.4504363
-7.113804
-2.9736074
-7.3743082
4.4314617
2.9417838
4.4453703
5.2590562
3.4574996
5.165767
5.8646817
-5.9571629
0.092481175
-5.4675502
11.332232
1.3381244
-9.0968404
-7.8420999
6.914809
3.9827756
7.1135204
-7.541411
-3.0743614
-7.0783633
-10.217123
-6.5722496
-10.858755
10.964648
5.443075
10.623924
-12.900016
12.739864
6.7130373
3.5566291
6.7500809
-6.8160008
-3.4016093
-6.7526352
13.238936
-3.1586564
-10.08028
-11.151703
-8.1046116
11.158352
5.8794876
11.849684
7.4688471
11.933491
4.8510182
8.3879183
-10.730506
2.6258942
-4.5084023
-2.862469
-4.5932931
4.5357514
2.7358242
4.4520158
-5.379055
-3.7590567
-5.5815336
-5.3482898
-4.0099962
5.5695132
3.3582039
-5.5250544
-5.5947523
5.8180786
3.2722444
4.492329
-10.966239
4.9594459
-9.0708082
-9.927078
-4.069546
-9.8064298
4.4426611
3.2729866
-7.7156476
-2.9203383
11.202998
-5.4613904
9.6545918
-7.2006847
-4.4663928
-7.2523516
-9.1767349
-2.3764548
-8.974387
-9.5037963
8.9944235
-9.8941449
9.2293126
13.849872
-6.7306863
-7.1191853
-4.8816433
-3.902342
4.8711539
-0.85259367
-7.2116352
7.3041164
0.18762688
6.4764707
7.718747
6.8661534
-4.5178827
-3.0307535
-4.4222695
4.6421832
2.8790625
4.5708655
9.1274157
2.8167008
9.068596
-8.4042576
-3.6450237
-8.7164389
9.5450567
-9.2097348
3.1127149
-3.2363538
6.9769297
3.7056787
-6.5607274
-3.9591416
9.2626505
-4.3063308
-4.9563197
-12.070016
10.64928
1.4207359
-4.8106423
-0.4105015
-0.12816895
-5.5765125
-3.9240415
5.4756954
0.51572143
11.165001
7.2409598
-5.5171913
5.7621881
6.1541606
6.2148907
-0.16204944
6.0808411
-5.5008263
7.2522392
-3.2607237
-3.9915155
6.7856192
-7.1751451
-1.9308198
-7.2915736
5.360754
0.27529123
2.2295518
-1.8421033
-2.4520823
-0.78975421
-2.3780275
1.925828
1.3211703
2.1340633
1.202593
2.1649712
-3.9267948
0.74796577
3.178829
-2.7242018
-2.3156212
-5.0604373
-1.6668887
6.727326
7.3428095
2.8254809
-7.0941374
-0.28017073
3.0692544
-3.1100405
-0.83400736
-4.2264299
3.0274673
-3.8614746
-5.7222434
-2.333149
8.0553924
-3.737653
-0.6846164
3.7027837
0.74258655
-4.7846867
-3.3617554
4.8468746
0.31889241
-5.3522088
11.000462
-5.6482533
-8.3829622
4.5184686
6.8137633
7.4602524
-9.1637241
4.7623845
4.4013396
-2.3499608
5.9308642
1.1826561
6.0680903
-9.1897698
6.1154083
7.878293
4.1179909
-8.3039129
1.2255496
-7.9642202
10.584521
-9.2613375
-1.3231831
5.2226651
5.3618555
7.5616641
6.2882074
-6.0144841
13.576148
-1.5122061
-7.7491315
9.4764263
-5.3584354
6.1646803
-11.523116
-12.452888
4.7037563
-9.8362733
11.917755
-2.0814814
-3.8654961
-9.0345203
13.70177
-1.3253578
-12.376412
9.2985667
-5.5251593
-5.5746616
11.099821
-8.6838158
8.9762709
-2.5806164
-6.3956545
-10.881404
-6.188042
10.992401
1.7474628
-11.719814
14.345709
-3.3318962
5.8243986
0.92568233
5.84699
4.1519291
-6.7550336
2.6031046
4.5318868
-7.1125032
2.5966458
-9.3516795
-7.1605329
13.169354
-6.0088215
-11.230079
-10.207274
-1.0228047
2.7474082
11.5983
-10.216255
7.9705578
2.2456975
3.8979753
0.67289017
-3.8143757
-0.77891741
0.61783669
6.7029701
-7.3208068
5.0698524
5.0106766
5.0834877
1.6194825
5.1012893
2.896601
-4.9123782
-0.66915544
-6.3254244
2.3154282
-2.9672205
-6.2656495
8.5810778
-7.014886
0.74923653
-4.2337915
-6.1468536
10.380645
-7.0962605
5.2938562
5.7066058
8.1729188
-8.6330898
2.4862362
-4.3861046
-4.2469852
4.5286498
-7.4958704
3.2475414
5.3335364
6.5197858
0.92503348
6.4617738
6.7075806
-9.7347603
0.66395212
12.151211
-10.302286
2.6646593
9.2688313
-10.635217
0.42794283
-9.378487
1.323958
-6.7853485
-6.3916895
6.7546636
-9.1311184
-4.7684521
8.3177426
0.75085345
-8.3624592
-0.61192779
-6.4829232
-3.0208731
-6.9684832
-3.2928683
-6.6012766
-9.3073524
-1.7740422
-7.5333102
7.2203813
-7.2013518
-3.657403
7.9477024
1.2816102
-7.9836196
7.8146904
-8.024237
7.674775
0.26996805
7.0341483
7.1361214
3.2337794
-4.6841875
7.917967
-6.8427679
9.6594687
-11.438229
4.5954608
5.3824597
-9.0274834
-6.055769
5.4521554
4.0929013
5.7250454
9.3597941
-10.842677
1.4828824
-11.040957
12.584
-1.5430428
-17.086048
6.0450908
-7.726254
2.9698829
0.142832
2.8828092
0.88071671
2.8772019
-3.7579186
-2.3556371
-2.5001669
-3.5666825
-5.3877041
8.9543866
1.8720788
-5.133544
3.2614652
-4.731669
6.6037478
0.14760334
-5.2811473
7.1174871
-4.2402852
7.2603191
-4.5840656
2.6762535
5.0223653
8.8478299
-3.8254646
6.4932918
-2.7876131
2.8535538
-6.6790185
-2.5341502
-4.9020325
7.6378567
-5.4786125
6.227849
-0.31704984
6.5448989
-5.7628732
1.4565424
-0.67938549
4.3312911
4.332717
6.8000907
-5.1806083
4.8352474
-7.6228604
-1.8437711
-6.697827
-1.3642906
-0.51167294
-5.0842555
5.5959284
6.7065093
-7.2181822
-5.3681554
9.761209
-4.3930536
8.0688517
-5.5445026
-2.5243491
-4.5539605
-4.6557743
4.125763
1.9550781
10.02393
0.27201144
-5.8165141
-5.2288148
-4.2806492
4.4733886
2.7788506
-2.341094
3.7618299
2.4692629
-0.23971111
0.77066736
1.3633959
2.4922199
-1.7215525
0.2404707
2.2517492
-1.6016326
2.3357704
0.73348401
-2.3563929
-0.021634538
-1.7647856
4.7922529
1.4140433
-2.7352135
1.013661
1.6096605
-4.8703841
6.6487591
-3.298826
-3.3499331
8.2584196
1.6557901
-4.9546157
5.6357838
-5.3604926
3.2383051
-4.9051935
-1.7163111
-7.0768037
-4.9802963
-4.0858112
7.3472763
-4.8685754
7.6940563
1.6250329
-7.4138856
9.0389185
-4.7894339
2.4562849
-4.1985126
4.9319966
-1.8143139
-2.3841987
4.1502005
3.9051919
-4.1414167
-0.085013233
0.0087837944
3.2134276
-3.2046438
-0.6480471
-3.3722489
-7.5453422
7.8642347
-3.8301243
8.5925088
4.0878426
-3.5365999
12.129109
3.2371136
-6.7737135
-5.1458487
-5.8304651
-2.3723739
5.0878786
-0.83319409
-5.9194411
-7.2288486
5.830926
0.23716435
-9.2543115
10.324886
-1.0705741
-5.2715359
-0.84387245
6.0665375
-7.7542305
0.64172724
-5.1575847
5.1673009
6.3499571
6.5871214
-12.136016
-0.24039624
-6.6929405
1.3157384
-8.0086789
6.6775938
-3.7793851
8.4831414
-11.078373
7.4209702
-9.796763
7.1599584
-0.84872058
7.1343837
-4.5312792
2.9458964
-9.1339384
-7.3864756
7.1878756
-3.6312464
8.1135578
-4.1366782
12.250236
-7.4685744
7.0018609
5.2483752
-1.3798675
-5.8724842
-6.9625511
5.5826837
0.039309867
5.8862998
7.7729255
-4.8763245
7.10377
4.151157
-8.5372617
-3.3447133
-11.813616
3.2763542
-6.1070101
-3.1126519
6.3890061
5.0602669
5.733157
2.1420209
-4.9542396
8.3083221
-9.3311268
-2.2995006
-4.0921889
6.9081122
-1.3254285
4.343629
-8.4358178
-2.4417196
5.7224184
-0.70063359
-5.0217848
1.0082679
-5.77672
2.3116571
-8.0883771
6.8194613
-7.4313892
2.3410027
-10.067257
-5.6426169
-5.6628835
-2.4156718
-5.6085651
-7.9424451
5.5267733
-1.8973543
5.9173361
-8.8838121
8.1831785
-3.7001881
9.2269614
-5.8320017
-1.1364816
6.2750648
1.3997102
10.626672
0.31271525
-6.3684843
-2.6965945
5.5145478
-2.8179533
1.7767941
-4.7715401
0.7430077
3.478988
4.7794316
-8.839742
-0.18774145
-6.5562256
-4.1526989
8.2456002
5.6085102
12.31502
1.472343
9.4053721
-1.1597719
10.877715
4.5652735
4.7585691
-4.0714247
5.5543071
1.5245037
6.1199645
-0.87792634
3.5541798
2.0048829
1.9400594
1.1699811
2.6516271
1.6810898
4.1081695
0.35025093
-2.149916
4.7049322
-8.9855814
-1.1115819
-8.1961512
1.207027
5.8824458
-4.6754188
4.307152
-1.5283015
1.4891988
0.02042305
-2.3538681
2.3334451
-3.9710926
-2.5935792
-0.34183005
-2.2012604
3.2149214
2.5909925
-2.8730913
-1.0980013
0.52978582
-5.5100822
4.3754078
-4.4604211
-0.55522916
8.4836893
-3.738192
0.53354823
-1.2819071
-2.8387007
-3.6284549
3.6500895
11.52864
0.60046833
5.8803871
8.464703
5.1029476
0.22662306
4.7982979
-6.8797794
-4.5533816
-7.1201756
-0.44258177
5.6239557
2.2504472
9.3478532
7.4988223
6.1733937
-2.262424
-11.593551
8.1810532
-2.6267461
6.6380105
-1.6162257
-6.4721514
6.6316201
3.0278485
-7.3824736
-0.048915588
-6.521067
-9.147813
-0.49758263
8.6807611
-10.129089
8.9926074
5.9717344
1.5615759
-4.80562
-0.85726352
4.711764
0.046805031
10.92452
-1.2005846
-7.1325146
8.3330992
-4.6818612
3.5702793
0.94849821
2.8133317
3.2819434
1.7536419
-5.3788726
-10.054291
-2.7450172
-2.125367
-6.0949502
0.63237572
-3.2233683
6.2964159
-2.7261366
3.7720668
5.6069626
7.0961613
-2.0558284
-5.1623538
6.448882
-2.6768152
4.4193461
)
;

boundaryField
{
    wall-4
    {
        type            calculated;
        value           uniform 0;
    }
    velocity-inlet-5
    {
        type            calculated;
        value           nonuniform List<scalar> 8(-1.7582594 -1.7582594 -7.3846893 -4.5714743 -7.3846893 -6.446951 -4.5714743 -6.446951);
    }
    velocity-inlet-6
    {
        type            calculated;
        value           uniform -5.6264299;
    }
    pressure-outlet-7
    {
        type            calculated;
        value           nonuniform List<scalar> 8(5.186478 8.1713413 5.8938432 10.532328 8.9482462 6.6543134 7.4825759 9.9593392);
    }
    wall-8
    {
        type            calculated;
        value           uniform 0;
    }
    frontAndBackPlanes
    {
        type            empty;
        value           nonuniform List<scalar> 0();
    }
}


// ************************************************************************* //
