/*--------------------------------*- C++ -*----------------------------------*\
  =========                 |
  \\      /  F ield         | OpenFOAM: The Open Source CFD Toolbox
   \\    /   O peration     | Website:  https://openfoam.org
    \\  /    A nd           | Version:  9
     \\/     M anipulation  |
\*---------------------------------------------------------------------------*/
FoamFile
{
    format      ascii;
    class       volVectorField;
    location    "30";
    object      U;
}
// * * * * * * * * * * * * * * * * * * * * * * * * * * * * * * * * * * * * * //

dimensions      [0 1 -1 0 0 0 0];

internalField   nonuniform List<vector> 
918
(
(0.40905261 -0.00016580137 0)
(0.0090456276 2.9576279 0)
(-0.016438832 1.3722145 0)
(0.29001094 -0.0085631795 0)
(-0.048354148 2.1760064 1.5934652e-20)
(-0.011744045 2.9485781 -3.5239077e-18)
(1.0576741 1.6425308 7.7268922e-19)
(0.40233973 0.24040759 -2.9004918e-20)
(1.9883827 0.0034451008 0)
(0.024549505 1.213712 0)
(0.0042711694 1.0318337 0)
(0.35194989 -0.015322174 0)
(0.012837968 2.9163499 0)
(0.013764037 2.7908319 0)
(0.10136913 3.1828487 3.134901e-19)
(-0.0094160649 2.1297068 -1.3124116e-20)
(0.46607311 0.10694013 1.8282765e-18)
(0.2269063 1.7019114 5.6707281e-19)
(0.36603434 0.004536004 0)
(-0.016959623 1.0636806 0)
(0.058354964 0.23538622 -1.4489507e-18)
(1.047559 -0.022113045 0)
(0.5427947 -0.028605436 0)
(0.24755132 -0.007374135 0)
(0.45338889 -0.0091182495 0)
(0.023746292 2.6165887 0)
(-0.0099597487 2.9059029 1.3030516e-18)
(-0.02268754 1.402548 0)
(-0.03260294 1.5744039 0)
(-0.019953634 1.384685 0)
(-0.07030744 2.8077715 0)
(-0.038904307 2.2854895 -1.2514339e-20)
(-0.022937592 2.0690569 0)
(-0.018161828 2.9813224 -1.3151525e-22)
(-0.018375343 3.0070228 2.7359199e-18)
(0.00085970263 3.0015935 0)
(0.29131958 0.003561199 0)
(0.43115151 0.91196216 3.3502629e-19)
(1.1439529 1.6171084 -8.4864226e-19)
(1.202447 1.4823045 9.2631318e-19)
(0.97230802 1.7650508 -1.7561595e-19)
(0.87068625 1.7717734 1.0316289e-18)
(0.50443548 0.28770298 2.8215095e-20)
(0.43173126 0.22033589 0)
(1.3581403 0.79778719 0)
(0.44886399 0.29086296 1.2955438e-19)
(0.36180153 0.24237659 -1.349254e-19)
(0.24382822 -0.013526588 0)
(1.9896017 0.00029415509 0)
(1.988697 -0.0023685824 0)
(1.3551345 0.00091298629 0)
(1.867587 0.0050541024 0)
(1.7380873 0.0029980989 0)
(0.026359173 2.0254109 -8.9467498e-19)
(0.048049101 1.4425135 0)
(0.049672577 1.3137184 0)
(0.028508981 1.3914751 0)
(0.017627367 1.135927 0)
(-0.0026223969 2.2306914 0)
(0.011075845 1.2640069 0)
(0.010092216 1.0509093 0)
(0.0044759339 1.2637354 0)
(0.0030608753 1.0111761 0)
(0.56219695 0.028413546 0)
(0.58526935 -0.02616943 0)
(0.30965524 -0.0094542728 0)
(0.5999493 -0.022714592 0)
(0.39589116 -0.011434181 0)
(0.016738891 3.0145158 1.3505859e-18)
(0.012390975 3.0113807 0)
(0.0077280354 3.0035767 0)
(0.013327491 3.000489 1.4403094e-23)
(0.010556737 2.9476306 -1.9288779e-18)
(0.016841939 2.9848918 0)
(0.013435798 2.8938389 0)
(0.017676132 2.9239121 3.1268249e-24)
(0.013858248 2.8181654 0)
(0.01766768 2.9103027 0)
(0.011209423 2.7540854 0)
(0.25202173 3.6436074 0)
(0.17940735 3.5807799 0)
(0.13517074 3.3159944 -2.9326413e-19)
(0.049992867 3.0058701 0)
(-0.045507169 2.3872217 0)
(-0.013168087 2.3481533 1.2935103e-20)
(-0.0081002308 2.1543552 -3.1470989e-20)
(0.59760506 0.12436057 -6.2715087e-19)
(0.45136068 0.072335678 -5.9749997e-19)
(0.60818749 0.16409676 -1.910411e-18)
(0.47296643 0.14170863 -1.2759807e-18)
(0.17874748 1.1540216 0)
(0.34987302 1.848549 -6.405102e-19)
(0.43809935 1.8321569 1.0773548e-18)
(0.54602979 0.038702184 0)
(0.30877133 0.025119137 0)
(1.2188359 -0.0014072072 0)
(0.73789976 -0.035298392 0)
(0.6489732 0.01706963 -3.0423837e-18)
(0.64857468 -0.026216385 2.3843623e-18)
(-0.017351825 1.2555889 0)
(-0.011717753 1.0492482 0)
(-0.030995264 1.4198815 0)
(-0.024898576 1.2867843 0)
(-0.016983681 1.0818648 0)
(0.12994747 0.27841433 4.4220174e-19)
(0.21993517 0.22432279 0)
(0.5029802 0.018581476 0)
(0.24445517 0.01346231 0)
(0.60027055 -0.017418081 0)
(0.58831687 -0.015847032 0)
(0.43817529 -0.0078233875 0)
(0.97434915 0.052628859 0)
(0.56031409 0.01073923 0)
(0.36410153 0.0067701829 2.4373833e-18)
(0.002044231 2.861273 1.1543201e-18)
(0.021472151 2.8992467 0)
(0.035909889 2.874281 0)
(0.01583442 2.7031466 0)
(-0.010418378 2.9857632 1.2614032e-18)
(-0.0090852213 2.8907976 0)
(-0.011756676 2.9907592 -3.8693387e-18)
(-0.0095918839 2.9158687 1.3227491e-18)
(0.0069281357 1.7437186 0)
(0.0078085158 1.7767541 0)
(-0.010711275 2.3389031 -8.0446298e-22)
(-0.021091751 2.2983055 0)
(-0.015202243 2.093252 0)
(0.63892295 0.032587222 0)
(0.33143001 0.021006935 0)
(0.22856815 0.017549146 0)
(0.60141536 0.010055669 0)
(0.27916752 0.016508928 0)
(0.51821215 1.0919933 -4.1068131e-19)
(0.55240764 1.129591 0)
(0.40775054 0.89505731 5.348478e-20)
(0.31652561 0.68466832 0)
(1.2506801 1.4250201 -2.5607901e-19)
(1.2800969 1.2496943 4.7817039e-19)
(0.56239837 1.9023382 0)
(0.77776158 1.8706791 0)
(0.66260975 1.8430882 0)
(0.1487782 0.24991443 -4.3369041e-19)
(0.55167103 0.26920692 0)
(0.45415119 0.20062366 3.6560516e-19)
(1.3263135 1.2010128 0)
(1.3773379 0.97227791 0)
(1.3263337 1.0153653 -3.4205137e-19)
(1.4193774 0.75819472 0)
(1.38117 0.60708641 6.5038207e-20)
(0.5748522 0.025035684 0)
(0.53599181 0.0135976 0)
(0.25496992 0.012606299 0)
(0.52042919 0.0067152467 0)
(0.52741854 -0.014680542 0)
(0.25293882 0.0066540779 0)
(1.4987542 -0.0020315646 0)
(1.8698475 -0.0022501795 0)
(1.7318346 0.00024817669 0)
(0.041118116 2.2477105 4.8372173e-19)
(0.050468314 1.9490766 0)
(0.033322551 2.3384245 7.8831625e-19)
(0.020114444 2.0880608 -6.6509912e-19)
(0.16796779 1.6906113 -4.6466077e-19)
(0.080420795 1.5318768 0)
(0.10094673 1.4959539 0)
(0.020768248 1.3451068 0)
(0.011885671 1.0921071 0)
(-0.0047538759 2.4133298 -1.3047237e-21)
(0.0018382842 2.22725 0)
(0.0010421725 2.4145503 -7.2587471e-20)
(-0.0012024191 2.2298382 1.2860029e-19)
(0.014141934 1.3135508 0)
(0.011444823 1.2879175 0)
(0.009824043 1.0644594 0)
(0.0030909367 1.2518147 0)
(-0.00013634609 1.0111159 0)
(0.83881493 0.047984009 0)
(0.633787 0.028986299 0)
(0.77942671 0.045249224 0)
(0.48237999 0.020373407 0)
(0.24692285 -0.015442483 0)
(0.54345413 -0.019434467 0)
(0.56519669 -0.016459695 0)
(0.27959714 -0.0124111 0)
(0.0037167283 3.071987 -1.162923e-20)
(0.010793181 3.0616355 0)
(0.01616899 2.9688059 0)
(0.013254357 2.8677221 0)
(0.73217582 4.2318765 0)
(1.2326103 3.2962932 8.7960546e-19)
(0.072717418 3.1368841 0)
(0.030185058 2.9078743 0)
(0.031726475 1.8272008 0)
(0.0092247428 2.1547231 0)
(-0.0070840519 1.9920901 0)
(-0.058042527 2.7506643 2.7656685e-21)
(-0.035052225 2.5358743 0)
(-0.070235067 2.6559067 0)
(-0.0019103309 2.1739373 2.9207726e-21)
(-0.0055961847 2.3928576 3.8665613e-20)
(-0.0064084969 2.3725653 3.2090219e-20)
(-0.0048446606 2.1589373 0)
(0.59278587 0.079692724 9.0902482e-19)
(0.43319352 0.037678988 -8.9944389e-19)
(0.30444312 1.6954344 0)
(0.20635375 0.93298836 -3.8221372e-19)
(0.2257744 1.8372833 -1.1952298e-18)
(0.13767065 1.3955437 1.1992604e-18)
(0.27482825 -0.0042836773 0)
(0.52912121 -0.0022598456 0)
(0.52405669 0.0138344 0)
(0.28186107 0.0037578546 0)
(-0.0047273866 1.2428046 0)
(-0.013081135 1.2437011 0)
(-0.0060432354 1.0236578 0)
(0.38545593 0.28978776 1.1974768e-18)
(0.3015183 0.28078235 -1.4299115e-18)
(0.30165451 0.2385459 0)
(1.2219416 0.12909795 3.9431634e-20)
(1.1641936 0.11686896 0)
(1.085441 0.087829555 0)
(0.8218662 0.037540634 0)
(0.5744193 0.040089821 0)
(0.5514623 0.013272842 -3.9200432e-18)
(0.39916552 0.016801103 1.4912137e-18)
(0.0031215326 2.9856549 1.1498314e-18)
(-0.0033174396 2.8656265 4.6598349e-20)
(0.0038443067 3.0539403 -2.4285306e-20)
(0.012752988 3.0472581 8.7446293e-19)
(-0.0093907475 2.9952593 4.2933715e-20)
(-0.0083897341 2.9361795 -1.7226538e-22)
(-0.013157866 3.0201635 -8.0743264e-19)
(0.0012158981 3.0231471 5.8197547e-19)
(0.0066760475 3.0398165 -8.7509222e-19)
(0.73615514 0.040881646 0)
(0.69465448 0.042769235 0)
(0.39844522 0.019948729 0)
(0.52019903 0.0086205354 0)
(0.50486703 0.029589316 0)
(0.26628355 0.00080724971 0)
(0.52363186 -0.025094826 0)
(0.49617667 -0.0076226774 0)
(0.22794386 -0.011495088 0)
(0.70625445 1.3792422 -1.3561268e-19)
(0.77447745 1.4610826 0)
(0.16087933 0.34580171 1.0398882e-19)
(0.32902107 0.75796809 7.9313732e-19)
(0.34957086 0.79000286 -4.6839734e-19)
(0.22552309 0.48123129 9.1422179e-19)
(0.41853043 0.9591106 2.2152514e-18)
(0.16591232 0.3355456 4.9493257e-19)
(0.60301956 0.20482418 1.3530958e-18)
(0.5870367 0.24267519 3.5189037e-19)
(0.47108059 0.16971013 6.7989478e-19)
(1.4273127 0.56132203 8.1463494e-20)
(1.3520985 0.41036366 4.2215708e-20)
(0.02348328 2.3954838 3.0105264e-19)
(0.010793582 2.1614886 0)
(0.98365265 0.061148796 0)
(0.90597297 0.05475307 0)
(0.72822083 0.033458087 0)
(0.010035608 3.0770198 0)
(0.016984208 2.9387119 1.7124925e-18)
(0.016544816 2.9536993 0)
(0.013507518 2.8433648 -1.7094581e-18)
(0.0095432603 3.0917467 3.9315501e-19)
(0.0037810908 3.0887648 0)
(0.86517747 1.7508086 -9.070676e-20)
(1.1312276 2.3625071 3.8882427e-20)
(0.84478104 1.8674879 -7.9880412e-19)
(0.015027778 2.9993638 -1.0585745e-18)
(0.03653989 3.040278 0)
(0.012838561 2.8745816 0)
(-0.0092474718 2.3975421 -2.2378924e-20)
(-0.0035897386 2.4024294 -7.5431661e-20)
(-0.0011541663 2.2100436 -4.443305e-22)
(0.34363955 1.5324619 1.205358e-18)
(0.21096626 0.75005025 -8.2684701e-19)
(0.088714261 2.1576608 8.4435726e-19)
(0.16701032 2.0178081 -1.0326811e-18)
(0.082924027 1.6842832 1.2262741e-19)
(0.014338268 3.1141625 -2.6099726e-18)
(0.016924595 3.119614 2.9544974e-18)
(-0.0085736719 2.980343 1.2100704e-18)
(-0.0051561887 2.9775312 -1.1915068e-18)
(-0.0075385303 2.8763423 -1.2326891e-18)
(0.004720614 3.1054913 -3.0610541e-18)
(0.0096157937 3.1047653 3.0398729e-18)
(0.37730306 0.82788064 0)
(0.32892262 0.76582179 -1.7662738e-18)
(0.13291663 0.2730903 7.845192e-19)
(0.41309268 1.080301 1.4182366e-18)
(0.19058414 0.42950877 -2.202324e-18)
(1.3538553 0.21693419 1.0128452e-19)
(1.4110421 0.37553051 0)
(1.2974307 0.24117701 -3.0751983e-20)
(0.0071905369 2.4219308 -2.2463774e-21)
(0.0079424133 2.4092332 0)
(0.0043525884 2.1999913 0)
(0.39194533 1.396037 -4.3347652e-19)
(0.42224703 1.250518 -9.716243e-19)
(0.20054332 0.5703114 1.7506511e-18)
(1.1924088 0.0054169927 0)
(1.3364916 0.0015551922 4.9451295e-19)
(0.0094288179 1.7362634 0)
(-0.014251854 1.7463435 0)
(1.513112 -0.0013191005 3.0166301e-21)
(1.1019943 0.015629448 1.0849175e-18)
(-0.04872047 2.7560089 -3.5871135e-21)
(-0.0381799 2.7894947 0)
(0.063688612 3.1808886 8.5566309e-19)
(0.5409441 3.5563777 0)
(1.4477159 0.88362138 -1.0628669e-19)
(1.2803975 0.0088010602 2.3940066e-20)
(1.3721426 0.023848673 0)
(1.9988849 0.0072469104 7.9871628e-21)
(0.11367782 1.8740873 0)
(0.1229442 2.7507865 0)
(0.017010356 1.7930448 0)
(0.002284208 2.8258704 6.7194798e-20)
(-0.022070644 2.7709344 4.5144778e-20)
(1.2740905 -0.019251664 1.9288841e-20)
(1.4085999 0.067278041 0)
(1.4434457 0.094503515 0)
(0.023266379 2.1395035 0)
(-0.012852374 2.7818208 0)
(-0.0069261189 1.7746179 0)
(0.35238567 1.9939615 -2.5973647e-19)
(1.298674 0.0092634925 0)
(1.0946322 0.0081497543 0)
(1.970895 0.010114709 6.4201484e-19)
(1.6574555 0.0154786 -7.3974302e-19)
(1.9058526 0.0099004055 0)
(0.039235092 1.9366201 0)
(0.027115031 1.7814979 0)
(0.039246389 1.8574856 0)
(-0.0051571739 1.7668748 0)
(-0.0049402205 1.7173626 0)
(-0.01360402 1.7233854 0)
(1.404023 0.047806353 0)
(1.3113545 -0.0042515996 2.382348e-20)
(1.0021853 1.7205053 4.1826476e-19)
(1.9566715 0.00071594959 -6.5260432e-19)
(1.7071952 -0.0050774579 7.7791875e-19)
(1.8971717 -0.0065084733 0)
(1.3098876 0.0015803566 6.425063e-19)
(1.1840802 0.0016450085 -8.0743519e-19)
(0.93045237 0.02087231 0)
(-0.020426179 2.8185991 0)
(-0.03141862 2.7950428 2.8771037e-20)
(-0.02504176 2.8099794 -2.1820761e-20)
(1.5859243 0.36386215 8.8749103e-19)
(1.5395163 0.16366088 0)
(0.080838749 3.0545398 -1.5665743e-18)
(0.045530137 2.8445927 -1.0977848e-19)
(0.1845944 3.1806965 2.3690069e-18)
(0.16881346 3.2463968 -3.8750763e-19)
(0.16684198 3.2937655 0)
(0.032453593 3.1351642 4.4694661e-19)
(0.086734524 3.1741055 1.5409455e-18)
(0.083149253 3.2017874 -8.3186789e-19)
(0.051109767 3.1084739 0)
(0.83063359 0.40122743 0)
(0.7424142 0.48449469 0)
(1.4026514 0.95559967 2.5952321e-19)
(1.3708578 1.1202873 -2.5718782e-19)
(1.5015167 0.76479454 0)
(1.5079897 0.70725304 0)
(1.2789959 0.014980658 -1.2887295e-18)
(1.0967241 0.011597537 1.6530406e-18)
(1.3888897 0.022299022 0)
(1.2382553 0.023509492 0)
(2.0040063 0.012109277 0)
(1.8778452 0.0021620434 0)
(1.9371239 0.0077395864 0)
(1.7290116 -0.0075355121 0)
(1.6673023 -0.002544221 0)
(1.7985784 -0.002427613 0)
(0.099243086 1.8623123 0)
(0.073554976 1.8522687 0)
(0.14512454 1.9043047 0)
(0.15619556 1.931326 0)
(0.14416888 2.7790685 0)
(0.18284441 2.8564254 -5.1718734e-19)
(0.10066479 2.852029 0)
(0.082452247 2.8680323 2.403797e-19)
(0.029002725 2.886242 -2.2408e-19)
(0.015313973 1.7993284 0)
(0.014486013 1.7718455 0)
(0.020660467 1.8032688 0)
(0.022444806 1.7889081 0)
(0.0043497344 2.2580029 -2.7977998e-20)
(-0.021111773 2.8198927 -1.1654036e-21)
(-0.0041350943 2.8718077 6.7724766e-20)
(-0.0089348478 2.9032043 0)
(-0.020539637 2.8232363 -1.1202162e-19)
(-0.018666213 2.818803 -4.7052433e-20)
(0.0059100006 2.2526107 2.5493249e-20)
(-0.016489635 2.5847594 1.5389921e-21)
(-0.021800702 2.6229745 -8.6057897e-20)
(1.3021547 -0.018187727 1.5626832e-18)
(1.1222511 -0.029124611 -1.921295e-18)
(1.2562179 -0.011614668 -1.6736149e-18)
(1.1565615 -0.016111418 2.216855e-18)
(1.4444762 0.059711944 0)
(1.3207444 0.065203278 0)
(1.4727286 0.08536056 0)
(1.4476068 0.068681052 0)
(1.2929383 0.068774973 0)
(1.5446308 0.14772559 0)
(1.4847797 0.10358319 0)
(1.3493112 0.094110855 0)
(-0.040086077 2.6467175 -3.581537e-21)
(0.012193082 2.3272632 0)
(-0.018734867 2.5039876 0)
(-0.011872092 2.8091717 2.2001629e-20)
(-0.011322972 2.8218919 -8.4932371e-22)
(0.023281129 2.0164052 3.3950243e-20)
(0.030317044 1.9493138 -3.4199188e-20)
(0.008122615 1.8400196 0)
(0.023393787 1.8323193 0)
(0.026181409 1.8257576 0)
(-0.0055895763 1.7829246 0)
(-0.012272325 1.7576617 0)
(0.48948277 2.0022612 4.3498399e-19)
(0.50722966 2.0259272 2.2817777e-19)
(0.59100181 2.6295679 -2.7787832e-19)
(0.38151473 2.7617293 7.3522461e-19)
(0.40259129 2.2445519 1.0811219e-19)
(1.4043824 0.022349819 0)
(1.3334362 0.02205434 0)
(1.1450711 0.013662838 0)
(1.9812758 0.015766022 0)
(1.9610073 0.011291527 0)
(1.7244045 0.017286335 0)
(1.6308288 0.015876851 0)
(1.6465623 0.020475302 0)
(1.3483362 -0.002718366 1.2649351e-18)
(1.0615457 0.015183678 -1.5916421e-18)
(1.3050585 -0.0013035318 -1.356486e-18)
(1.1616887 -0.0097394615 1.7704998e-18)
(0.96366604 1.7409843 0)
(0.86026016 1.8845635 3.9380701e-19)
(1.0937912 1.6072923 1.3376837e-19)
(1.1365769 1.5972947 -1.7823441e-19)
(1.2701702 2.7106362 8.4819762e-19)
(0.88328799 0.0820038 9.742511e-19)
(1.55146 0.18527087 0)
(1.5944031 0.27459743 -6.9785562e-19)
(1.5059492 0.22877208 -2.7760265e-20)
(1.5104694 0.15508191 0)
(0.22801843 2.9280344 1.0530858e-18)
(0.1109881 2.8178108 -2.2623994e-18)
(0.040569266 2.378359 1.4225612e-18)
(0.07758813 0.00026192185 -7.2080864e-19)
(0.37272609 3.4702091 2.3351468e-20)
(0.23998438 3.3751785 0)
(0.25250877 3.4384793 -3.291683e-20)
(0.27303633 3.0908506 -2.5750757e-18)
(0.40766237 3.1794782 0)
(0.014409814 3.1193121 8.045216e-20)
(0.017480304 3.1324722 -8.5874416e-19)
(0.032170452 3.1177821 1.3347187e-18)
(0.039289323 3.1486417 0)
(0.037313998 3.1571711 0)
(1.3553426 2.8070557 0)
(0.7552078 1.100819 -8.8983459e-19)
(1.2850499 1.3539553 2.0682655e-20)
(1.2081746 1.4235528 0)
(1.0854521 1.3304481 -1.9157407e-19)
(1.3188534 1.196687 4.0568142e-20)
(0.44918947 0.50773125 -1.6952323e-18)
(0.89782843 0.39022939 -3.4956498e-20)
(0.81389628 0.31981156 7.5690111e-19)
(0.76694899 0.53478758 5.5454005e-20)
(0.64901121 0.48227676 -2.2815254e-18)
(0.86686306 0.44570764 0)
(0.95303423 0.55360882 1.2491147e-18)
(0.96313541 0.51087364 0)
(0.82002362 0.4943796 0)
(0.76134058 0.41693083 0)
(1.1388182 0.84590013 7.4054701e-19)
(1.5912735 0.39411429 -7.6153207e-19)
(1.5673005 0.56383557 0)
(1.5592047 0.50659995 0)
(0.8645544 0.2108229 1.1111153e-18)
(1.1839596 0.71766503 -7.1000496e-19)
(1.0361719 0.6616172 1.2710314e-18)
(1.4068263 0.5215782 -1.3075506e-18)
(1.267169 0.0018300571 8.5205331e-19)
(1.243036 0.0082966476 -8.8418148e-19)
(1.016987 0.0081277758 0)
(1.4319737 0.043736978 0)
(1.3812138 0.033017854 -7.928451e-19)
(1.2020978 0.027850113 7.8366098e-19)
(1.8229886 0.0084977943 0)
(1.7049327 -0.0067325913 0)
(1.9107362 0.00061747401 0)
(1.677136 0.0038123641 0)
(1.9539521 0.013365164 0)
(1.9402877 0.011372427 0)
(0.064292028 1.8451471 0)
(0.04980483 1.8233319 0)
(0.17651591 1.8286193 -1.8829293e-20)
(0.33058753 1.984027 1.3348032e-19)
(0.20531025 1.9697346 2.98188e-19)
(0.2310677 1.9908583 -4.7946127e-19)
(0.21934853 1.8672703 0)
(0.18023278 1.9772015 -1.1729252e-19)
(0.16088739 1.9647405 0)
(0.37505596 2.2018212 -1.4983438e-19)
(0.35986639 2.5008112 7.0070937e-19)
(0.23909568 1.9138431 1.0507599e-19)
(0.32109906 1.8659706 3.8524042e-20)
(0.26777059 1.8511063 -3.1375491e-20)
(0.34911924 1.7894831 -1.4492113e-19)
(0.27457096 1.9505665 0)
(0.32220766 1.9655713 1.4574465e-19)
(0.042916719 2.4761472 -5.2831685e-20)
(0.035517637 2.8770175 0)
(0.06888216 2.5817123 1.9383034e-19)
(0.059757953 2.5879447 0)
(0.060426683 2.8890324 -2.6725237e-19)
(0.046027873 2.9301991 0)
(0.020979409 1.8481182 -1.2305265e-20)
(0.028478025 1.8949861 0)
(0.032997015 1.8310077 0)
(0.024619061 1.8195209 1.3952445e-20)
(0.0055396687 2.8581646 -1.4170675e-21)
(0.015973428 2.8906012 2.6128735e-19)
(0.0084204373 2.9283573 1.8521509e-21)
(-0.0030745862 2.1504215 2.7805214e-20)
(-0.0023673095 2.053061 9.4917929e-21)
(0.012727071 1.7912795 0)
(0.0089870838 1.7659542 0)
(0.048991129 1.9731802 6.1504755e-20)
(0.037182589 1.8688118 2.8058029e-20)
(0.039883478 1.9285393 -4.4673482e-20)
(0.056918424 1.9931949 0)
(-0.031250979 2.4638209 -5.9442109e-20)
(-0.029510619 2.7134505 4.3520586e-20)
(-0.029820615 2.6328874 -1.380343e-20)
(-0.0065492216 2.1484323 -3.2905964e-20)
(-0.027502373 2.6666291 -1.7334093e-20)
(-0.029261338 2.6407429 8.6545783e-20)
(1.2661547 -0.014590162 -9.5817711e-19)
(1.2749647 -0.024537957 1.0091731e-18)
(1.0828359 -0.025195684 0)
(1.4883465 0.057074099 1.6545683e-18)
(1.1985677 -0.0048454938 -1.8470389e-18)
(1.1560676 -0.0085458414 2.0896058e-18)
(1.5134577 0.090024165 -2.2725278e-19)
(1.412838 0.048454945 0)
(1.4182489 0.056862064 8.3540099e-19)
(1.309529 0.055368825 -8.2755564e-19)
(1.6430594 0.089128757 -5.3143204e-20)
(1.6256248 0.074251785 4.5159647e-19)
(1.7499712 0.092379909 0)
(1.8184756 0.086806735 -1.7578255e-19)
(1.7149806 0.025854184 0)
(1.5922943 0.0078852852 0)
(1.8476486 0.007335308 0)
(1.6569275 -0.0054388848 0)
(1.8374039 0.04137769 3.439219e-19)
(1.8270991 0.022901742 -7.1728303e-19)
(1.8031393 0.074012646 -3.5258018e-19)
(1.8125164 0.069284538 -4.0502645e-19)
(1.7723157 0.11299314 8.2458955e-19)
(1.6308171 0.11558851 0)
(1.6735232 0.15824221 0)
(-0.023798369 2.4651232 1.962179e-21)
(0.013473344 2.3130693 -4.7257838e-21)
(0.0063961729 2.2771506 0)
(-0.027742819 2.6548391 -2.0149793e-21)
(-0.02829251 2.6169423 7.9004169e-21)
(-0.02730398 2.6563388 -6.6608767e-21)
(-0.019795669 2.8324279 4.116396e-20)
(-0.018221164 2.7444342 -4.9749447e-21)
(-0.021995919 2.7107883 1.1699455e-20)
(-0.011340794 2.8225517 -2.7927982e-20)
(-0.018690517 2.8249469 3.5691362e-20)
(0.011015719 1.9157996 -1.5731801e-21)
(0.02021578 2.026554 3.0198002e-20)
(0.48971751 1.9017955 -1.8385339e-19)
(0.44805525 1.82078 9.0690933e-20)
(0.83190653 1.9024312 -3.8207287e-19)
(0.66882852 1.9908622 -2.2039124e-19)
(0.69340239 1.9912726 0)
(0.64126305 2.5921879 2.5698352e-19)
(0.69707653 2.6061527 4.0384388e-19)
(0.44745809 2.691331 1.1127951e-19)
(0.457596 2.6966406 -7.293251e-19)
(0.54337039 2.6266104 6.9862747e-19)
(0.55263725 2.6466783 0)
(0.4839828 2.7049468 -6.483748e-19)
(0.22900865 2.7776809 1.3176629e-18)
(0.33502812 2.7618325 -4.9691074e-20)
(0.2703345 2.8532276 -1.7968225e-18)
(1.0215872 2.537275 1.0292367e-18)
(0.89118715 2.5489243 0)
(1.9540198 0.021914269 2.5340736e-20)
(1.6585441 0.022149777 -2.1668162e-20)
(1.6778603 0.022437586 -3.8249011e-19)
(1.8777232 0.027489271 3.8339802e-19)
(1.9885842 0.026941562 0)
(0.86740911 1.6974341 0)
(0.84243832 1.5875689 0)
(1.0063406 1.5036377 0)
(0.86630538 1.5129294 0)
(1.2769945 2.7455652 -8.083828e-22)
(1.1867716 2.5693365 0)
(0.93195095 2.281511 6.3080581e-21)
(0.87581223 2.5382612 0)
(0.99312365 2.6105503 -5.4687251e-19)
(1.0204813 2.5995606 3.736975e-19)
(0.91954946 0.11875118 0)
(0.87325407 0.13095895 2.7063342e-19)
(1.1031801 0.10926729 1.5025392e-18)
(0.94332159 0.076685006 -5.7494357e-19)
(0.87833589 0.026335463 -1.7519837e-18)
(1.6579491 0.31775996 -1.3396177e-18)
(1.5368988 0.38805368 -2.5954592e-20)
(1.279529 0.31239154 1.4958907e-18)
(1.5181878 0.27629278 1.2203388e-18)
(1.2912176 0.15841196 -2.0202055e-18)
(1.2441856 0.17189022 2.5678702e-19)
(1.2908765 0.2450928 -5.6082699e-19)
(1.26222 0.21353797 0)
(1.5085493 0.19904835 9.9247186e-19)
(1.6223356 0.23718706 0)
(1.6180293 0.28542788 0)
(1.6387765 0.19922901 4.1121204e-19)
(1.7278617 0.243696 -2.2541504e-20)
(1.670789 0.32168454 -2.3444233e-19)
(1.6450235 0.28245744 0)
(1.5470579 0.01303677 8.4356614e-19)
(1.7819077 0.064920985 1.0347424e-18)
(1.741232 0.037586665 -8.0216833e-19)
(1.7318981 0.084062439 -7.0567582e-19)
(1.5385896 0.050848612 -1.187708e-18)
(1.3969073 0.12101298 0)
(1.4184971 0.10669112 0)
(1.1483581 0.018744436 -7.5734311e-19)
(1.0736276 0.021629703 3.0765264e-19)
(1.6550737 0.11510661 1.0445803e-18)
(1.7454684 0.18326995 -1.1987734e-18)
(1.7230524 0.19981501 1.0939741e-18)
(1.6721455 0.18070594 0)
(1.7380042 0.15112689 0)
(1.7753577 0.1318129 -4.6802165e-19)
(1.7497885 0.11775474 -8.532701e-19)
(0.73019693 1.4925048 2.5036882e-19)
(0.81559003 1.8358458 -2.7489545e-19)
(1.1796831 2.7856878 -3.0833479e-19)
(1.2992415 3.1368039 5.8702906e-20)
(1.3409083 2.8260909 -6.5898924e-19)
(1.3967776 2.895299 8.9110456e-20)
(1.2671474 2.5672914 2.6865059e-20)
(1.3309083 3.0603534 -2.2917529e-19)
(1.3380675 3.0779502 4.3805658e-19)
(1.3183892 3.3432362 -5.4095596e-20)
(1.4353575 3.1095166 5.5842549e-20)
(1.4527844 3.0373726 0)
(0.758133 1.1778397 -7.8805184e-20)
(0.26700013 1.3518895 9.147529e-19)
(0.65369016 0.71254778 1.1193465e-18)
(0.42899639 0.28496656 1.2839448e-18)
(0.67762652 0.53807691 1.2804371e-18)
(0.74053548 0.64883882 -2.115191e-18)
(0.72335166 0.66646444 1.7147855e-18)
(0.62597269 0.5652957 -6.6129149e-19)
(0.52469056 0.45196144 1.4970912e-18)
(0.91462419 0.26162426 -6.2455623e-19)
(0.88894947 0.31676215 0)
(0.81367671 0.26733268 1.7915144e-20)
(0.98377858 0.67814545 6.7173262e-19)
(0.94727583 0.63928881 -2.4392027e-18)
(0.80212384 0.66084853 2.9092552e-20)
(0.83375935 0.6170301 0)
(0.88482507 1.0488605 7.1148055e-19)
(1.1091687 1.0746981 6.5178083e-19)
(1.0132925 1.2002504 -7.4738184e-19)
(1.1587253 1.1049395 -2.6774252e-19)
(1.2307299 1.1712749 -6.4250894e-20)
(1.2033428 1.1717038 6.475633e-20)
(1.2152336 0.88009211 -1.233231e-18)
(1.2305889 0.99640342 2.51231e-19)
(1.3143181 1.002991 0)
(1.3489658 0.95027988 -3.3857201e-19)
(1.5690035 0.41883094 3.6880139e-19)
(1.6320551 0.42092673 4.5114999e-19)
(1.6432549 0.37951717 5.6712803e-19)
(1.5376224 0.50832747 -7.4698622e-19)
(1.5266328 0.57629289 0)
(1.5519034 0.54953311 0)
(1.2631864 0.43924158 2.0239986e-20)
(1.1124456 0.30817293 0)
(1.1608753 0.28193502 7.2649696e-19)
(1.2612264 0.32300392 -1.9427689e-20)
(1.3906683 0.57398726 3.4083058e-18)
(1.2936368 0.67281092 9.4383653e-19)
(1.2872677 0.58397333 -1.050283e-18)
(1.1269027 0.53718665 1.1401305e-18)
(1.0811471 0.54576531 6.7620831e-19)
(1.0195071 0.50754623 -6.6258234e-19)
(1.663256 0.037296496 6.5865353e-19)
(1.9460141 0.028924195 0)
(1.9106223 0.036234061 4.4496305e-19)
(1.682314 0.035494137 -9.9781309e-19)
(1.9262027 0.022454268 4.9008625e-19)
(1.8731243 0.0038230042 -1.0384124e-18)
(1.6926638 -9.3767325e-05 0)
(1.5806802 0.0060794303 -2.1338587e-19)
(1.8411927 0.0050392068 5.339804e-19)
(1.6712812 0.0068436119 -2.7530166e-19)
(1.6091711 0.010009488 2.0146962e-19)
(0.028239995 1.810102 0)
(0.035765233 1.8138834 0)
(0.041871298 1.821077 0)
(0.030451098 1.8053773 0)
(0.08659989 1.8333834 7.0771934e-21)
(0.10151872 1.8182993 6.8759143e-21)
(0.14349023 1.9066101 -3.9289161e-20)
(0.12656758 1.8067554 1.0283796e-20)
(0.045557211 1.877824 -3.7381348e-20)
(0.049472765 1.8732144 2.8808343e-20)
(0.078282749 1.8225631 -2.1553508e-20)
(0.068445125 1.8291575 2.1762885e-20)
(0.049634017 1.8105575 2.5070315e-21)
(0.042161399 1.8173409 -3.1619246e-21)
(0.096909328 2.5208202 -2.0855111e-19)
(0.10004973 2.5545042 0)
(0.16870228 2.261196 1.2212815e-19)
(0.15607303 2.0537057 7.3179467e-20)
(0.27265571 2.2254668 -1.1204598e-19)
(0.23663078 2.5993259 0)
(0.27934894 2.5855637 -6.9928826e-19)
(0.3285403 2.484018 5.0289458e-19)
(0.23623678 2.1887634 -2.8347102e-19)
(0.18395416 2.3513822 1.9238925e-19)
(0.17284634 2.4875326 0)
(0.022375965 2.2110209 -1.0553965e-19)
(0.018920938 2.5945023 -1.3924786e-19)
(0.015274959 2.3598171 0)
(0.018104754 2.6530035 -1.6049209e-20)
(0.037689705 2.4852054 6.2435164e-20)
(0.0090814014 1.8393178 5.4411764e-22)
(0.0064382841 1.8348145 -1.4043273e-20)
(0.0075333947 1.8372422 2.1071362e-21)
(0.010944481 1.8272165 7.3928024e-21)
(0.019905681 1.8549573 0)
(0.0029404061 1.8185803 0)
(-0.0023767187 1.7857144 1.9497935e-21)
(0.00048446623 1.8115442 -2.4537916e-21)
(0.0019721001 1.8165565 0)
(0.0063876898 1.7872999 -2.1118335e-21)
(-0.0021883097 1.7632122 2.8255265e-21)
(1.6204138 0.045483888 0)
(1.6140087 0.047209764 -7.7490328e-20)
(1.9072749 0.041973312 -5.9430939e-19)
(1.7756714 0.053922421 0)
(1.6149015 0.048526278 0)
(1.8828862 0.03228469 9.9483909e-21)
(1.8874201 0.033446484 8.7562282e-19)
(1.764627 0.0075084309 1.1287418e-18)
(1.6489249 -0.0023554384 0)
(1.5714232 -0.0025475041 0)
(1.7470034 0.019090104 5.9499361e-19)
(1.5900166 0.0069479412 0)
(1.5684797 -0.0090415492 0)
(-0.02480081 2.2633663 0)
(0.0023166776 2.0479202 -8.7945119e-21)
(-0.013136754 2.1499047 8.2592253e-21)
(-0.00033480418 1.8288043 0)
(-0.0094009638 1.9662822 1.4208347e-20)
(-2.1832318e-05 1.8945958 -8.0245964e-21)
(0.004776749 1.8263364 0)
(0.49230114 1.903359 0)
(0.44534308 1.7083548 -1.9109268e-19)
(0.40617454 1.7153755 0)
(0.53702881 1.7451779 8.5398428e-20)
(0.6326165 1.9137275 0)
(0.5700232 1.85812 1.0720961e-20)
(1.1109563 2.800445 -2.1320869e-20)
(1.0419615 2.5573831 -1.1843244e-18)
(1.0361304 2.4481338 1.3626695e-18)
(0.91785088 2.5366124 3.3988499e-19)
(0.90881358 2.6001446 0)
(0.973548 2.5817876 0)
(0.99573734 2.5407795 0)
(0.97650041 2.5360533 -1.2275898e-18)
(0.73287941 2.5457547 -5.6426865e-19)
(0.85770927 2.5719389 -1.3116157e-19)
(0.85675534 2.5271176 1.0494154e-19)
(0.74694915 2.5689936 0)
(0.84752154 2.5611593 0)
(0.8026707 2.5792327 -4.4150097e-19)
(0.80347801 2.5915196 0)
(0.81605594 1.4684741 0)
(0.70318935 1.281369 -8.0281489e-19)
(0.78422567 1.3076836 -4.9029891e-20)
(0.73697954 1.3962656 0)
(0.72917709 1.366561 1.2218637e-18)
(1.0263427 1.2435655 -2.0724687e-19)
(1.0175187 1.3720071 0)
(1.0286012 1.3038552 3.1877129e-19)
(0.85378415 1.4294426 0)
(0.88245909 1.3148497 0)
(1.2473122 2.8246627 -3.7125105e-19)
(1.2076342 2.8647465 -2.6672854e-19)
(0.9978117 2.374627 4.6198778e-19)
(0.99736978 2.4044697 -1.5748574e-19)
(1.2164666 2.8125965 0)
(1.1735373 2.7673025 1.9995336e-19)
(1.200283 2.6428127 -3.6866026e-19)
(1.1100324 2.482143 -2.8871135e-20)
(0.67308476 1.689961 0)
(0.6817949 1.4826754 -2.2040917e-19)
(0.7268914 1.5525238 0)
(1.1019507 0.2221623 0)
(0.89276708 0.14906353 0)
(0.79096642 0.15173917 0)
(1.0839249 0.23115261 -1.1321491e-18)
(0.91110415 0.19325962 6.5552113e-19)
(1.0724156 0.020344114 -6.0853949e-19)
(1.1655316 0.081172091 0)
(1.1414848 0.10128382 2.7094887e-19)
(0.96528146 0.030858517 1.0997512e-18)
(0.90507394 0.0076565882 -6.9541355e-19)
(1.3282031 3.4675769 -2.6749535e-19)
(1.3098478 3.3997035 0)
(1.349063 3.4216723 -6.1228537e-19)
(0.53606147 3.5216202 5.8132457e-19)
(0.78359117 3.0534705 -3.8521236e-19)
(0.65259868 1.1725091 9.8494984e-19)
(0.6222074 1.1927127 0)
(0.55744103 0.73621898 -2.8063941e-19)
(0.66528214 1.0254366 1.4728262e-18)
(0.68573861 0.68752021 -3.8948935e-19)
(0.67049554 0.73902455 4.3604144e-19)
(0.86265209 0.71786728 9.116638e-19)
(0.94619889 0.7388121 0)
(0.86973457 0.85679263 0)
(0.79830326 0.80599106 0)
(1.384225 0.83036191 1.3811848e-19)
(1.3112605 0.74118391 -8.9909127e-19)
(1.3023298 0.79659636 6.9172116e-19)
(1.3882314 0.69313759 -6.9246426e-19)
(1.486954 0.68887962 0)
(1.4853586 0.76252136 -1.6794518e-19)
(1.131779 0.47512125 -1.5152413e-18)
(1.1592541 0.46028259 -1.8169766e-18)
(1.069378 0.45585993 1.1839143e-18)
(1.0516389 0.42252735 -1.2051553e-18)
(1.1169007 0.3504568 -9.3815357e-19)
(1.0310313 0.34421911 1.1639198e-18)
(1.9080038 0.023411449 -5.3425231e-19)
(1.9347961 0.025640024 1.0818715e-18)
(1.6632427 0.037320789 6.7342077e-19)
(1.677464 0.043913642 -8.0140344e-19)
(1.7667313 0.046342199 0)
(1.9259642 0.03925927 -1.417416e-18)
(0.077786899 2.0349792 2.9754142e-20)
(0.071729323 1.9757255 0)
(0.11341825 2.0291555 3.0608473e-19)
(0.1270089 2.0203548 -2.774042e-19)
(0.10885854 1.9340892 6.9605322e-20)
(0.097471427 1.9250594 0)
(-0.0056083463 2.0606612 0)
(-0.0074578584 1.9090818 -6.8896368e-21)
(-0.0069839006 1.8813538 6.2337198e-21)
(-0.013260057 1.9646496 4.5400277e-21)
(-0.016673666 2.1885575 -1.6300506e-20)
(-0.016312464 2.2097157 1.4192956e-20)
(0.65396869 1.6946214 -5.2023462e-19)
(0.61638371 1.7273653 5.4849235e-19)
(0.57397784 1.7172963 -5.9299113e-20)
(0.57370551 1.6685955 1.9044521e-20)
(0.80875955 1.7308477 0)
(0.69440746 1.8316947 1.5414962e-19)
(0.76143343 1.8422023 -1.4971064e-19)
(0.60819877 1.7373474 5.8839218e-20)
(0.67642681 1.6628434 0)
(0.72533449 1.6366019 0)
(0.71061838 2.5146273 8.2633826e-19)
(0.71299542 2.5793517 1.502639e-18)
(0.75863548 2.5810757 -1.0795944e-18)
(0.6317722 2.5871573 -2.2484279e-19)
(0.61925435 2.6460611 3.7430591e-19)
(0.57380281 2.6164114 -9.4038552e-19)