/*--------------------------------*- C++ -*----------------------------------*\
  =========                 |
  \\      /  F ield         | OpenFOAM: The Open Source CFD Toolbox
   \\    /   O peration     | Website:  https://openfoam.org
    \\  /    A nd           | Version:  9
     \\/     M anipulation  |
\*---------------------------------------------------------------------------*/
FoamFile
{
    format      ascii;
    class       surfaceScalarField;
    location    "0.93";
    object      alphaPhi0.phase1;
}
// * * * * * * * * * * * * * * * * * * * * * * * * * * * * * * * * * * * * * //

dimensions      [0 3 -1 0 0 0 0];

internalField   nonuniform List<scalar> 
19800
(
3.8577255e-89
3.0387624e-88
2.7825359e-89
1.2527426e-87
-2.1571281e-86
5.6183233e-86
-5.7000252e-86
2.5070643e-85
-4.8493508e-86
2.8869746e-85
-1.4476837e-86
1.1183156e-85
-1.7998514e-86
3.802864e-86
-7.4333511e-86
3.9191063e-86
-1.7222929e-85
1.3560777e-85
-2.5688061e-83
1.8361086e-83
-3.3669827e-81
2.2638401e-81
-3.9114977e-79
2.4963168e-79
-4.1044328e-77
2.4991532e-77
-3.9259054e-75
2.289486e-75
-3.4527739e-73
1.9302037e-73
-2.7931489e-71
1.5042063e-71
-1.9732671e-69
1.0884711e-69
-1.1903447e-67
7.4322692e-68
-9.0819342e-66
5.7740122e-66
-2.6533324e-63
1.1937593e-63
-1.7837454e-60
6.7257644e-61
-1.22883e-57
4.2432617e-58
-7.6168966e-55
2.4285766e-55
-4.16224e-52
1.2297926e-52
-1.9824869e-49
5.4439148e-50
-8.1468897e-47
2.0875718e-47
-2.863035e-44
6.8788013e-45
-8.5435577e-42
1.9338096e-42
-2.1531211e-39
4.6110103e-40
-4.5644658e-37
9.2845074e-38
-8.1184474e-35
1.5742348e-35
-1.2100041e-32
2.2442478e-33
-1.5114521e-30
2.6895619e-31
-1.5845009e-28
2.7122301e-29
-1.397293e-26
2.3054417e-27
-1.0395395e-24
1.6558106e-25
-6.543086e-23
1.0078645e-23
-3.4900728e-21
5.2154182e-22
-1.5952645e-19
2.3028048e-20
-6.627641e-18
8.7448936e-19
-2.223095e-16
2.8394602e-17
-3.2740659e-15
7.3519025e-16
-4.0290321e-14
2.7781519e-14
-1.2817761e-12
1.0930056e-12
-2.7236968e-11
2.2797204e-11
-6.4435249e-10
4.450697e-10
-1.7012181e-08
-5.0158504e-09
-1.7579483e-08
-3.0052257e-08
-1.8571805e-08
-2.8434208e-08
-9.2242352e-09
-6.7846557e-08
1.5498917e-09
-6.9568322e-08
6.8981682e-09
-3.5686138e-08
1.1858755e-08
-2.2906799e-08
1.9080442e-08
-1.2661811e-08
2.2290243e-08
-9.0031285e-09
2.6082451e-08
-6.7349787e-10
2.1326384e-08
-7.0048516e-10
5.9804618e-09
-1.7587524e-10
5.448517e-09
-4.4832643e-10
5.0617753e-09
-7.7538465e-10
1.5201001e-08
-8.5749808e-10
1.1094525e-08
-2.5071101e-09
3.8065234e-09
-8.3679874e-10
9.1358219e-11
8.0849706e-10
7.1707045e-12
8.6042418e-11
3.3057638e-13
6.8385801e-12
8.574584e-15
3.1377593e-13
1.2207177e-15
7.0530731e-15
1.4076562e-16
3.3541517e-16
7.2245372e-18
2.7886222e-17
2.4519557e-19
1.4685949e-18
7.4694847e-21
5.7872017e-20
2.1278166e-22
1.9702224e-21
5.331733e-24
5.8222726e-23
1.1556048e-25
1.4805784e-24
2.1648013e-27
3.2418926e-26
3.488017e-29
6.1198473e-28
4.792996e-31
9.9466978e-30
5.5552446e-33
1.3853607e-31
5.3555317e-35
1.639816e-33
4.2197295e-37
1.6295076e-35
2.6568778e-39
1.3389817e-37
1.2975462e-41
8.9183666e-40
4.7162808e-44
4.6898132e-42
1.2000093e-46
1.8787663e-44
1.9323549e-49
5.4458556e-47
1.6161966e-52
1.0521925e-49
4.019153e-56
1.1574565e-52
-1.4651811e-65
4.6859652e-56
-1.4440677e-67
6.3231227e-65
-4.232798e-69
1.2566957e-67
-9.972391e-69
3.3045357e-69
-3.2109357e-68
3.3406485e-69
-5.464378e-66
4.0822387e-67
-4.8977283e-64
1.197152e-65
-3.1937719e-62
-1.3139011e-63
-1.417477e-60
-1.7558616e-61
-4.5549673e-59
-6.7002242e-60
-6.7954654e-58
-8.5252438e-59
-3.4953382e-58
4.5065433e-89
3.356959e-88
8.1926941e-88
2.1873614e-86
-8.6837184e-86
7.755937e-85
-3.6931728e-85
3.5126582e-84
-5.3209236e-85
4.7050942e-84
-4.2954737e-85
3.7086599e-84
-2.1011414e-85
2.0622026e-84
-2.5958425e-85
1.0529872e-84
-3.4902544e-84
6.1039017e-84
-5.7084465e-82
9.1659659e-82
-8.0479973e-80
1.199386e-79
-9.9940538e-78
1.4010967e-77
-1.1118571e-75
1.478271e-75
-1.1200609e-73
1.4191402e-73
-1.034179e-71
1.2528472e-71
-8.8176515e-70
1.0218049e-69
-6.9376486e-68
7.7599113e-68
-4.8284952e-66
5.5019282e-66
-2.8615401e-64
3.7062649e-64
-2.0459335e-62
2.7002998e-62
-5.1160317e-60
4.3963575e-60
-3.1275607e-57
2.1232059e-57
-1.9976203e-54
1.147326e-54
-1.1460903e-51
5.9114951e-52
-5.7815422e-49
2.8695915e-49
-2.5331944e-46
1.2249161e-46
-9.5398233e-44
4.5037381e-44
-3.0609891e-41
1.4150025e-41
-8.3102448e-39
3.7679708e-39
-1.8989125e-36
8.4507972e-37
-3.63897e-34
1.5894911e-34
-5.8372561e-32
2.5012889e-32
-7.8350935e-30
3.2913425e-30
-8.809373e-28
3.625202e-28
-8.3156642e-26
3.3498923e-26
-6.609864e-24
2.6055964e-24
-4.4370762e-22
1.7130315e-22
-2.5376303e-20
9.5686545e-21
-1.2825114e-18
4.577148e-19
-5.2270754e-17
1.8653518e-17
-1.216746e-15
6.0593786e-16
-2.6040555e-14
1.8082576e-14
-7.5261683e-13
5.6828341e-13
-1.9260993e-11
1.5210413e-11
-3.8204163e-10
3.074626e-10
-3.4176195e-08
5.9731834e-09
-6.1772937e-08
-1.8218356e-08
-4.5178012e-08
-3.2666055e-08
-2.5493857e-08
-3.4137237e-08
-4.3960118e-09
-3.584177e-10
1.1670534e-08
-3.6500046e-08
2.6491458e-08
-1.9894547e-08
2.3143881e-08
-3.8599105e-08
3.4637029e-08
-1.0252607e-08
1.0926193e-07
-1.22853e-09
1.9949801e-07
-1.6995145e-08
1.241376e-07
-5.4609601e-09
1.107006e-08
0
9.987949e-09
-2.5700868e-10
9.3458963e-09
-5.4525322e-10
8.3506666e-09
-5.7761895e-10
3.5470767e-08
-2.9507455e-10
4.6587336e-08
2.9859733e-09
1.0998757e-08
6.0015678e-09
2.058513e-10
4.2157142e-09
7.675655e-12
1.9823878e-10
3.4764863e-13
7.0048586e-12
1.0497408e-14
3.063809e-13
5.5915445e-16
8.0151248e-15
2.6887102e-17
3.1745891e-16
8.4607593e-19
1.2929198e-17
2.3556557e-20
4.3556447e-19
6.0510674e-22
1.287228e-20
1.3807408e-23
3.351986e-22
2.7616963e-25
7.6561659e-24
4.8060062e-27
1.5279271e-25
7.20717e-29
2.6521932e-27
9.2022067e-31
3.9774706e-29
9.8616715e-33
5.1035456e-31
8.7189856e-35
5.5296381e-33
6.2245972e-37
4.9736815e-35
3.4898766e-39
3.6365092e-37
1.4799308e-41
2.1010347e-39
4.4933556e-44
9.2090414e-42
8.9454692e-47
2.8678486e-44
9.9261651e-50
6.273592e-47
4.105052e-53
9.0008419e-50
-9.3331098e-60
2.3555973e-53
-1.7791887e-64
1.3977652e-58
-7.8542393e-67
4.5477228e-64
-1.3227836e-67
1.026553e-66
-4.7948948e-67
1.9403029e-67
-1.0926711e-64
3.2843504e-65
-1.2643894e-62
2.1780858e-63
-9.543193e-61
4.7275934e-62
-6.0439166e-59
-3.4397283e-60
-3.0677334e-57
-3.5390803e-58
-6.0947098e-56
-1.1165455e-56
-1.5914912e-55
-9.7754329e-56
-2.2407003e-55
3.0564181e-86
4.309819e-85
1.6913088e-84
3.2924389e-83
-3.9789387e-83
8.1270885e-82
-1.9313404e-82
2.8266663e-81
-2.8732473e-82
3.3753855e-81
-2.288473e-82
2.4816671e-81
-1.0763283e-82
1.3042971e-81
-1.3296459e-82
6.498213e-82
-1.3577336e-81
2.7425411e-81
-2.3109754e-79
4.2473378e-79
-3.3630165e-77
5.6900441e-77
-4.2865939e-75
6.7702092e-75
-4.8571161e-73
7.2449971e-73
-4.967709e-71
7.0510634e-71
-4.6273547e-69
6.2909004e-69
-3.9682479e-67
5.1844671e-67
-3.1602288e-65
3.9786321e-65
-2.3505981e-63
2.8538473e-63
-1.6369348e-61
1.9297437e-61
-1.0379445e-59
1.2311152e-59
-5.5222112e-58
7.4522785e-58
-3.0483297e-56
4.5468616e-56
-4.3069778e-54
4.3704745e-54
-1.8744777e-51
1.345097e-51
-9.8084207e-49
6.168817e-49
-4.5547888e-46
2.1397347e-46
-1.8256086e-43
8.149105e-44
-6.2893556e-41
2.6823946e-41
-1.8455996e-38
7.6417501e-39
-4.5739103e-36
1.8351766e-36
-9.511349e-34
3.6951357e-34
-1.6527841e-31
6.2165824e-32
-2.3950405e-29
8.7214874e-30
-2.8932969e-27
1.0201249e-27
-2.9167871e-25
9.9609807e-26
-2.4569771e-23
8.1404129e-24
-1.7337519e-21
5.5885478e-22
-1.0794385e-19
3.2467609e-20
-6.5810923e-18
1.616878e-18
-1.7885072e-16
6.462101e-17
-2.1130325e-15
1.9829113e-15
-7.853857e-14
6.8209113e-14
-2.5248487e-12
2.2060329e-12
-6.8323459e-11
6.0611375e-11
-1.1554981e-08
1.6904541e-09
-5.9222941e-08
7.5245263e-09
-3.6661078e-08
-2.2678367e-08
-1.6748356e-08
-3.6127538e-10
-8.6778368e-11
-6.3507916e-10
-7.9396156e-11
-3.6566546e-10
1.5635193e-09
-3.5795652e-10
6.8645524e-09
-2.1997147e-09
2.140131e-08
-2.0636962e-09
7.4630116e-08
-3.9826043e-08
3.6568721e-07
-2.7660376e-07
5.000439e-07
-2.4516626e-07
2.8156584e-07
-1.3332478e-07
2.8521398e-08
-5.5465865e-08
1.5368085e-08
-1.9161236e-09
1.3347064e-08
5.290551e-10
1.1011142e-08
1.0177957e-09
8.8153475e-09
1.1121375e-09
4.3425533e-08
6.8958727e-09
4.6453117e-08
1.442621e-08
8.728533e-09
3.0130269e-08
9.652303e-11
3.8589291e-09
4.4379228e-12
8.3263435e-11
1.8682052e-13
3.8537059e-12
7.2156883e-15
1.5841874e-13
3.3976279e-16
5.8730569e-15
1.5652246e-17
2.5199748e-16
4.6911489e-19
1.0118333e-17
9.284099e-21
2.79725e-19
1.8113775e-22
6.4329115e-21
3.2480565e-24
1.3340684e-22
5.0548862e-26
2.4240263e-24
6.7234465e-28
3.8095709e-26
7.5466039e-30
5.1293312e-28
7.0291638e-32
5.8410792e-30
5.3220482e-34
5.5289604e-32
3.1899641e-36
4.2537085e-34
1.4606747e-38
2.5772984e-36
4.8496302e-41
1.1680593e-38
1.0735537e-43
3.6695549e-41
1.3659678e-46
9.6613339e-44
7.0379244e-50
1.5827355e-46
1.1296598e-54
1.2259731e-49
-6.5850884e-61
4.0747948e-55
-2.3996664e-63
1.6403322e-60
-7.9553403e-66
4.4419022e-63
-1.2120129e-65
1.8167191e-65
-1.1274495e-63
5.7376896e-64
-1.7898551e-61
5.7350409e-62
-1.6726344e-59
3.0254251e-60
-1.1423788e-57
4.1859478e-59
-6.6392127e-56
-5.5895319e-57
-2.8088687e-54
-4.49054e-55
-4.78305e-53
-1.2311149e-53
-1.4547813e-52
-1.0320358e-52
-2.5246269e-52
1.8574095e-83
2.5424444e-82
1.6957842e-81
2.7102603e-80
-8.817462e-81
5.0065254e-79
-7.0262167e-80
1.4237241e-78
-1.1247309e-79
1.5951831e-78
-8.9943531e-80
1.1489733e-78
-4.1701263e-80
5.8768002e-79
-5.1689637e-80
2.8579241e-79
-4.4456906e-79
9.9778337e-79
-7.9276886e-77
1.6083052e-76
-1.1944808e-74
2.2226199e-74
-1.5679403e-72
2.7149738e-72
-1.8166801e-70
2.9649996e-70
-1.8910289e-68
2.9395392e-68
-1.7831562e-66
2.6632599e-66
-1.5410603e-64
2.2284943e-64
-1.2300236e-62
1.7326713e-62
-9.1454405e-61
1.2601993e-60
-6.3640462e-59
8.6264339e-59
-4.2006289e-57
5.5974054e-57
-2.6374718e-55
3.4537228e-55
-1.5052242e-53
2.0106879e-53
-7.3922501e-52
1.0903533e-51
-3.577133e-50
5.7406375e-50
-2.3743511e-48
3.3910154e-48
-2.9654107e-46
2.7839201e-46
-7.7999987e-44
5.2009751e-44
-2.6822267e-41
1.5475667e-41
-8.3874836e-39
3.2395161e-39
-2.2238814e-36
7.8828812e-37
-4.9741155e-34
1.7798305e-34
-9.315091e-32
3.3659928e-32
-1.4513462e-29
5.2760077e-30
-1.8747201e-27
6.8261986e-28
-2.0052026e-25
7.2744682e-26
-1.7744215e-23
6.3868832e-24
-1.3028585e-21
4.6307945e-22
-8.2748611e-20
2.7945529e-20
-5.0115391e-18
1.4217249e-18
-1.4895797e-16
5.6708616e-17
-2.6756827e-16
1.5568956e-15
-1.4506046e-15
5.0541843e-14
-2.6453476e-13
1.8502608e-12
-1.6343324e-11
5.9418139e-11
-1.3312622e-08
2.1139482e-09
-3.5801014e-08
1.7359098e-09
-2.5053428e-10
-1.2960939e-08
-1.4091943e-10
-4.7115578e-10
-6.8419676e-11
-7.0747796e-10
-4.1805139e-12
-4.2987468e-10
5.6674034e-11
-4.1855262e-10
3.3459047e-10
-2.4777519e-09
9.7974328e-09
-1.1599608e-08
3.0221219e-07
-2.432409e-07
5.5907251e-07
-5.089304e-07
7.2300455e-07
-3.936113e-07
8.3471535e-07
-2.3697608e-07
8.9428876e-07
-1.0336531e-07
8.6119061e-08
-3.4833492e-09
5.272065e-08
2.9805995e-08
1.8499063e-08
3.4120584e-08
1.0378648e-08
8.6653777e-09
1.3336486e-08
4.5053263e-09
6.7932839e-08
1.4519302e-08
3.4401618e-08
6.5824147e-08
4.9429845e-10
1.9899469e-08
2.3833034e-11
4.8368128e-10
1.0432789e-12
2.2920764e-11
4.0550065e-14
9.9521769e-13
1.400006e-15
3.8217065e-14
6.4272077e-17
1.3633003e-15
1.8528446e-18
4.5432017e-17
3.7248478e-20
1.195366e-18
6.8445136e-22
2.6164166e-20
1.1111953e-23
4.9453529e-22
1.5473435e-25
8.0025992e-24
1.821563e-27
1.0944783e-25
1.7824994e-29
1.2395345e-27
1.4166432e-31
1.1438525e-29
8.9040801e-34
9.7174816e-32
4.3026107e-36
6.6532051e-34
1.518103e-38
3.5693406e-36
3.6145393e-41
1.4397471e-38
5.047431e-44
3.943661e-41
2.9542249e-47
4.9843103e-44
8.2480576e-52
2.3708229e-47
-8.5648763e-57
9.6017789e-52
-5.0300071e-60
8.0908045e-57
-1.9948371e-62
1.124662e-59
-2.2536883e-63
3.100209e-62
-7.7639127e-63
4.6037523e-63
-1.6837041e-60
8.2687247e-61
-2.0916499e-58
6.5002765e-59
-1.6103623e-56
2.6830537e-57
-1.0227797e-54
1.1372226e-56
-5.5577976e-53
-6.3970723e-54
-2.0236762e-51
-4.170929e-52
-2.9745831e-50
-9.9852305e-51
-9.6147184e-50
-7.8416207e-50
-1.9622082e-49
8.389089e-81
1.0778232e-79
9.9931291e-79
1.3071238e-77
8.3000947e-79
2.1078951e-76
-1.8551299e-77
5.3676025e-76
-3.3337555e-77
5.7747464e-76
-2.7402556e-77
4.1204131e-76
-1.2686498e-77
2.0712837e-76
-1.5828532e-77
9.857994e-77
-1.1565643e-76
2.8646326e-76
-2.1936473e-74
4.882947e-74
-3.467837e-72
7.0482536e-72
-4.6982207e-70
8.8779074e-70
-5.6019671e-68
9.9617614e-68
-5.9364048e-66
1.0073637e-65
-5.6768797e-64
9.2903438e-64
-4.9351993e-62
7.882707e-62
-3.94722e-60
6.2130168e-60
-2.9253205e-58
4.5736656e-58
-2.0191714e-56
3.1622683e-56
-1.3149844e-54
2.0705339e-54
-8.1385355e-53
1.2886558e-52
-4.6285923e-51
7.5826884e-51
-2.265175e-49
4.1452751e-49
-1.0976371e-47
2.1724734e-47
-8.7603087e-46
1.3201103e-45
-9.1371432e-44
1.0687937e-43
-3.6536265e-42
6.4638297e-42
-6.7704454e-41
1.7620921e-40
-2.8999271e-39
3.3865265e-39
-6.0175117e-37
4.5921447e-37
-1.5028373e-34
7.0871035e-35
-3.1268225e-32
1.1067324e-32
-5.3798194e-30
1.9091693e-30
-7.651535e-28
2.770334e-28
-8.9461853e-26
3.2897022e-26
-8.5619033e-24
3.1804767e-24
-6.7142871e-22
2.5010407e-22
-4.5232238e-20
1.6115536e-20
-2.8765186e-18
8.6399495e-19
-8.882189e-17
3.5977422e-17
-2.0108096e-16
1.0304123e-15
-2.5130258e-16
3.4631743e-14
0
1.4506576e-12
-7.1583353e-12
5.8380778e-11
-7.9968787e-09
2.404231e-09
-3.2827209e-09
0
-3.3152298e-10
-2.5514789e-09
-1.7156878e-10
-6.3222952e-10
-4.5736317e-11
-8.333342e-10
1.0372229e-11
-4.8596623e-10
8.124104e-11
-4.895534e-10
3.8491058e-09
-1.3362551e-08
7.4708321e-08
-2.9004176e-08
5.5262232e-07
-1.8432022e-07
6.7381811e-07
-4.5548775e-07
7.0280662e-07
-3.9806588e-07
7.4091896e-07
-2.5960122e-07
6.6530987e-07
-1.1592518e-07
8.6789555e-07
-3.049689e-08
8.5241613e-07
1.2738932e-07
5.6510303e-07
2.7468573e-07
1.4187963e-07
2.1237297e-07
2.5703227e-08
1.2335678e-07
2.8505176e-08
2.8187209e-08
1.6488778e-08
7.5847682e-08
1.0702294e-09
2.466258e-08
2.3486093e-11
8.4183478e-10
9.9876517e-13
3.9956199e-11
3.7202078e-14
1.6991785e-12
1.2985098e-15
6.386097e-14
1.1944776e-16
2.2281667e-15
3.7367713e-18
7.688315e-17
6.46759e-20
1.9223978e-18
1.0587229e-21
3.9516597e-20
1.5153416e-23
6.9831602e-22
1.8259938e-25
1.0512656e-23
1.8254207e-27
1.3375128e-25
1.4896277e-29
1.4234082e-27
9.7368744e-32
1.2245581e-29
4.9345596e-34
7.5596686e-32
1.8190457e-36
3.6274856e-34
4.5061461e-39
1.268719e-36
6.4245157e-42
2.9426658e-39
3.5684645e-45
3.7881613e-42
-7.3598207e-51
1.5562388e-45
-1.0097153e-53
3.0435988e-50
-6.4950252e-57
6.2786228e-54
-2.887918e-59
1.2182337e-56
-1.2203829e-61
4.4471078e-59
-1.717231e-61
2.9575757e-61
-1.2488884e-59
8.3973878e-60
-1.8415111e-57
8.3885558e-58
-1.8390799e-55
5.2783541e-56
-1.2472491e-53
1.6783148e-54
-7.4689259e-52
-1.696117e-53
-3.7603901e-50
-5.6360854e-51
-1.1877629e-48
-3.0224748e-49
-1.5177982e-47
-6.3045834e-48
-4.9264373e-47
-4.586599e-47
-1.1394675e-46
2.8633367e-78
3.5066323e-77
3.9540324e-76
4.4819766e-75
1.1464259e-75
6.7513284e-74
-3.7666375e-75
1.6176455e-73
-8.0754164e-75
1.6939882e-73
-6.8781309e-75
1.2025788e-73
-3.1687321e-75
5.9790979e-74
-3.9925651e-75
2.7782066e-74
-2.3715553e-74
6.3739999e-74
-4.9120863e-72
1.1840101e-71
-8.2450288e-70
1.8152901e-69
-1.1692605e-67
2.387039e-67
-1.4353487e-65
2.7613908e-65
-1.5545486e-63
2.8603076e-63
-1.5064207e-61
2.6878892e-61
-1.3217712e-59
2.3166104e-59
-1.0547506e-57
1.8453649e-57
-7.7337305e-56
1.3700004e-55
-5.2635135e-54
9.5491157e-54
-3.3434811e-52
6.2770382e-52
-1.9998282e-50
3.914746e-50
-1.1034621e-48
2.3094044e-48
-5.3304518e-47
1.2703254e-46
-2.4100042e-45
6.6261319e-45
-1.5394588e-43
3.7769134e-43
-1.6156966e-41
2.8559915e-41
-1.170958e-39
2.0153131e-39
-3.1517423e-38
7.0724586e-38
-3.2468795e-37
1.1067396e-36
-2.5458661e-36
1.0359366e-35
-4.7223997e-35
9.1431187e-35
-5.2778001e-33
5.8538633e-33
-1.0118039e-30
9.692129e-31
-1.7209416e-28
1.0473266e-28
-2.3968155e-26
1.187466e-26
-2.6735857e-24
1.0745745e-24
-2.3620884e-22
8.746981e-23
-1.7033284e-20
6.0687964e-21
-1.0298535e-18
3.4374218e-19
-4.0310348e-17
1.5320468e-17
-6.284053e-16
5.4191199e-16
0
1.4721092e-14
0
5.9089607e-13
-3.3558628e-11
2.2017283e-11
-1.6344583e-09
2.8658516e-10
-1.581952e-09
0
-7.452792e-10
-1.7987898e-09
-2.8031673e-10
-1.6131145e-09
-1.4419854e-11
-1.3391235e-09
4.8320166e-11
-5.4873003e-10
1.3441902e-10
-5.7573227e-10
3.1601349e-08
-4.0128306e-08
7.732643e-08
-1.7916571e-07
5.447929e-08
-2.1138858e-07
8.0443067e-08
-2.2897967e-07
8.6081926e-08
-9.7308231e-08
1.5258911e-07
-3.177602e-08
6.1585717e-07
-9.2403492e-09
9.2340364e-07
-6.3662463e-10
9.3367595e-07
1.457937e-07
8.7566316e-07
3.6658624e-07
6.9297461e-07
4.3416027e-07
2.5931981e-07
3.8036994e-07
1.0804271e-08
2.3806858e-07
1.0350494e-08
7.9377475e-08
4.3987762e-11
2.1861398e-08
1.6216432e-12
7.7256048e-10
0
3.6668718e-11
1.9342406e-15
1.4657194e-12
1.4261203e-15
5.180551e-14
1.1871735e-16
2.0302683e-15
2.874864e-18
7.0550997e-17
4.6225559e-20
1.6118424e-18
6.8995917e-22
2.9493205e-20
8.8165833e-24
4.5282872e-22
9.2856089e-26
5.7517002e-24
7.9264455e-28
5.9740587e-26
5.3428137e-30
4.9924075e-28
2.7230273e-32
3.2474435e-30
9.9134438e-35
1.4902602e-32
2.3781071e-37
4.8646866e-35
3.113957e-40
1.0045239e-37
1.3128363e-43
1.0446732e-40
-7.5320793e-48
3.6973568e-44
-1.700686e-51
3.2104117e-48
-3.787874e-54
3.7366849e-51
-2.1568037e-56
6.7419236e-54
-1.1095124e-58
3.4568788e-56
-2.4051098e-59
1.6331471e-58
-7.3426097e-59
5.0936609e-59
-1.3258429e-56
8.0060546e-57
-1.5518064e-54
6.3748007e-55
-1.2794119e-52
3.2371726e-53
-8.0630375e-51
7.4546264e-52
-4.5882323e-49
-2.7784144e-50
-2.1105173e-47
-3.9443076e-48
-5.772259e-46
-1.7603309e-46
-6.4439305e-45
-3.1902878e-45
-2.0219686e-44
-2.1356442e-44
-5.1590353e-44
8.8274543e-76
1.0239006e-74
1.2000435e-73
1.2036276e-72
5.0069426e-73
1.7527338e-71
-5.7118557e-73
4.061866e-71
-1.6167402e-72
4.1741948e-71
-1.4752676e-72
2.9630908e-71
-6.6795514e-73
1.4634974e-71
-8.5088192e-73
6.5398493e-72
-3.6792642e-72
1.0402675e-71
-8.8449344e-70
2.2583062e-69
-1.6262073e-67
3.8118406e-67
-2.4410351e-65
5.3199161e-65
-3.1164004e-63
6.4132788e-63
-3.4663725e-61
6.8416014e-61
-3.4106078e-59
6.568419e-59
-3.001384e-57
5.7466264e-57
-2.3887841e-55
4.6311952e-55
-1.7275545e-53
3.4642505e-53
-1.1444647e-51
2.4249559e-51
-6.9920733e-50
1.5965625e-49
-3.9628711e-48
9.9523334e-48
-2.0441337e-46
5.8539573e-46
-9.3429243e-45
3.2246132e-44
-4.0078589e-43
1.6908929e-42
-2.0531879e-41
9.2435806e-41
-1.4444314e-39
5.919401e-39
-9.5175344e-38
3.7725188e-37
-3.7367468e-36
1.5933004e-35
-7.4676537e-35
3.6150338e-34
-7.9145634e-34
4.4869301e-33
-5.4817018e-33
3.6263947e-32
-4.1709507e-32
2.6894273e-31
-9.0856323e-31
2.9748613e-30
-8.4547974e-29
1.2681011e-28
-8.1925666e-27
1.0756958e-26
-6.047345e-25
7.6847228e-25
-4.5614329e-23
4.9125089e-23
-3.6722414e-21
3.2459547e-21
-2.5008795e-19
1.0106508e-19
-1.2307099e-17
4.0552971e-18
-2.9150556e-16
1.4286091e-16
0
3.5329799e-15
0
1.0096805e-13
0
2.3596651e-12
-2.3833375e-10
2.513603e-11
-4.9907465e-10
8.9240192e-13
-1.2665498e-10
-1.3732761e-09
0
-1.0912737e-09
6.6211695e-11
-5.3623585e-10
1.1933628e-10
-6.0335512e-10
2.0732819e-10
-6.6384073e-10
1.7616595e-08
-2.3776253e-09
9.6265082e-08
-1.6676176e-07
3.8057327e-08
-2.793005e-07
3.3928717e-08
-3.4680344e-07
1.3026064e-08
-1.631942e-07
1.0235015e-08
-2.8092736e-08
5.9519231e-09
-5.2828448e-09
5.4307745e-09
-6.0680988e-10
6.8511331e-07
7.7766273e-08
7.4927001e-07
3.4152828e-07
6.7749631e-07
5.3787587e-07
5.5615649e-07
5.2649479e-07
7.9926019e-08
4.2861811e-07
0
1.1811669e-07
7.6061172e-11
2.6007444e-08
0
8.1310546e-10
0
3.0917208e-11
5.3950098e-15
1.0645835e-12
1.2107673e-15
3.48401e-14
6.4410015e-17
1.3505231e-15
1.3711138e-18
3.8401768e-17
2.0157657e-20
7.6683173e-19
2.5874914e-22
1.2005418e-20
2.7552093e-24
1.5133626e-22
2.3463378e-26
1.5225811e-24
1.557624e-28
1.2034379e-26
7.7490536e-31
7.2784365e-29
2.7044326e-33
3.2356641e-31
5.9251972e-36
9.9125367e-34
6.3981514e-39
1.8559496e-36
1.0708836e-42
1.8087658e-39
-1.0130983e-45
8.4114029e-43
-7.4534605e-49
1.4795014e-45
-3.4219704e-51
2.2657278e-48
-2.2684174e-53
7.8772077e-51
-1.1119902e-55
4.2172016e-53
-6.9735401e-58
1.4853489e-55
-1.0475527e-57
1.5951428e-57
-8.6537561e-56
6.4583504e-56
-1.0889989e-53
5.8240429e-54
-1.04453e-51
3.7754114e-52
-7.3229457e-50
1.5464984e-50
-4.4200343e-48
2.1227867e-49
-2.3928417e-46
-2.3783605e-47
-9.8891317e-45
-2.2328127e-45
-2.3365589e-43
-8.3311223e-44
-2.287741e-42
-1.3130556e-42
-6.7743283e-42
-8.0566836e-42
-1.8676237e-41
4.9598731e-73
5.450962e-72
2.9605101e-71
2.679121e-70
1.5006928e-70
3.832192e-69
-5.3153895e-71
8.7424153e-69
-2.7663458e-70
8.872802e-69
-2.7942836e-70
6.3235492e-69
-1.439795e-70
3.1369185e-69
-1.1111189e-70
1.2670457e-69
-3.5344002e-70
9.1160805e-70
-1.1955814e-67
3.0889561e-67
-2.5767169e-65
6.2795354e-65
-4.2262189e-63
9.6427369e-63
-5.6933072e-61
1.231823e-60
-6.5511894e-59
1.3664811e-58
-6.5769774e-57
1.3477072e-56
-5.8402762e-55
1.2017543e-54
-4.6162751e-53
9.7940302e-53
-3.2788163e-51
7.3834227e-51
-2.0913383e-49
5.180235e-49
-1.2042047e-47
3.4113695e-47
-6.1985719e-46
2.1182689e-45
-2.7706897e-44
1.2389877e-43
-1.0378123e-42
6.8072218e-42
-3.2456009e-41
3.579011e-40
-8.2288756e-40
1.9182579e-38
-3.7967514e-39
1.0825196e-36
1.1819901e-36
5.8382326e-35
7.7154729e-35
2.6945325e-33
2.076271e-33
9.2106512e-32
8.4202394e-33
1.6710797e-30
-2.556187e-31
1.4285276e-29
-2.5920897e-30
7.4565354e-29
-2.2257553e-29
4.0078841e-28
-1.4649346e-27
6.6394566e-27
-3.6721085e-25
8.5825607e-25
-1.6653287e-23
5.400892e-23
-2.1980472e-22
9.245425e-22
-2.6635761e-21
6.680247e-21
-6.3276949e-20
8.4961977e-20
-2.5981602e-18
2.5363289e-18
-1.0282796e-16
7.6244901e-17
-2.6118245e-15
1.7526722e-15
-7.2763702e-15
3.9937657e-14
0
2.2704296e-12
-2.3603186e-11
4.7742926e-11
-9.8031164e-11
0
2.6509896e-11
-1.430903e-09
6.8077523e-11
-4.7661779e-10
9.8659608e-11
-5.7084618e-10
1.5357352e-10
-6.6194309e-10
2.3308965e-10
-7.4570721e-10
4.751973e-09
-8.3319794e-10
1.038604e-07
-3.1599472e-08
1.5805634e-07
-3.1878761e-07
1.750705e-07
-3.5832719e-07
7.5243109e-08
-2.9353887e-07
7.2586756e-09
-2.799259e-08
4.9819785e-09
-3.4881144e-09
4.8709913e-09
-6.1271371e-10
7.9069994e-08
3.2236908e-09
5.2445282e-07
1.4965735e-07
5.5565047e-07
5.3146325e-07
4.8062042e-07
6.2630987e-07
3.5226224e-07
5.8176134e-07
0
1.5635915e-07
0
3.6325616e-08
0
1.3869005e-09
0
3.2187357e-11
3.5536543e-15
8.8583718e-13
5.3984634e-16
2.3203105e-14
2.2936369e-17
7.3840386e-16
4.1885615e-19
1.5650154e-17
5.2933699e-21
2.4836794e-19
5.464171e-23
3.0665558e-21
4.4680791e-25
2.9303811e-23
2.795137e-27
2.1535868e-25
1.2826968e-29
1.1946612e-27
4.0076056e-32
4.8336003e-30
7.3494217e-35
1.3499193e-32
4.9316513e-38
2.5503407e-35
-2.6013641e-41
4.3855508e-38
-1.1505239e-43
1.4347828e-40
-6.8235031e-46
5.6429111e-43
-4.3841322e-48
2.0653065e-45
-2.3512179e-50
1.1012796e-47
-1.0388556e-52
4.146952e-50
-3.8518217e-55
1.2717709e-52
-1.7609851e-55
6.0435142e-55
-4.9048527e-55
3.5605023e-55
-7.001432e-53
4.5894213e-53
-7.1517351e-51
3.3597766e-51
-5.77699e-49
1.7907986e-49
-3.5342751e-47
5.8243392e-48
-2.0795847e-45
1.154543e-47
-1.0578685e-43
-1.4620365e-44
-3.8645318e-42
-1.0265086e-42
-7.8867276e-41
-3.2185859e-41
-6.7981346e-40
-4.4297595e-40
-1.8741696e-39
-2.4871258e-39
-5.4930852e-39
7.0955973e-70
7.3717177e-69
6.1588404e-69
5.3577656e-68
3.5714621e-68
7.248354e-67
2.7545241e-69
1.6468085e-66
-4.0972745e-68
1.6623811e-66
-4.6885664e-68
1.1897305e-66
-2.9909436e-68
5.9355399e-67
-2.5960308e-69
2.2324895e-67
-1.368697e-68
2.2890672e-68
-1.0285984e-65
2.3536904e-65
-3.0707588e-63
7.39687e-63
-5.8301941e-61
1.3511326e-60
-8.5184011e-59
1.8863562e-58
-1.0278014e-56
2.2059516e-56
-1.0600262e-54
2.2511066e-54
-9.5142885e-53
2.0509617e-52
-7.5108421e-51
1.6955794e-50
-5.192308e-49
1.2843771e-48
-3.1532497e-47
9.0247803e-47
-1.6501889e-45
5.9197983e-45
-7.0803272e-44
3.6496599e-43
-2.075903e-42
2.1149212e-41
-4.3836734e-43
1.1511292e-39
5.2729124e-39
6.0602187e-38
5.1195862e-37
3.1914007e-36
3.5929637e-35
1.6645402e-34
2.0046786e-33
8.0547342e-33
1.0229566e-31
3.9388934e-31
4.7050312e-30
1.9042826e-29
9.7675701e-29
4.656832e-28
6.5732939e-28
4.2015577e-27
1.9593335e-27
1.8094295e-26
4.3986811e-27
6.2237555e-26
1.2527316e-26
4.0858752e-25
-6.5930142e-24
8.6889538e-23
-1.0487447e-21
6.897485e-21
-1.496832e-20
1.037132e-19
-7.1681916e-20
5.2678968e-19
-3.7092076e-19
1.7862754e-18
-6.8716882e-18
9.9530516e-18
-5.1242222e-17
8.5618522e-17
-1.5465806e-15
3.2356932e-15
-3.6833577e-13
3.9691183e-13
-2.7436686e-11
2.9341826e-11
-8.7201851e-10
8.1468466e-10
-5.5460951e-10
-2.1548855e-09
2.0823725e-11
-3.4853391e-09
6.5037603e-11
-5.2264281e-10
1.3523321e-10
-6.4396389e-10
2.0613974e-10
-7.3675273e-10
3.1039977e-10
-8.55347e-10
3.3806522e-10
-9.1343596e-10
2.3140227e-08
-1.0194982e-09
1.2127377e-07
-2.82448e-07
1.3971751e-07
-3.6386435e-07
5.8508738e-08
-2.0702413e-07
4.22456e-09
-8.3117268e-09
3.0550436e-09
-2.3689181e-09
3.1025238e-09
-6.7256046e-10
5.4286452e-09
9.1829735e-10
1.46813e-07
8.827738e-09
3.7541541e-07
1.5441563e-07
3.7850954e-07
6.4800079e-07
1.1448403e-07
2.70766e-07
0
6.1470475e-08
0
2.7679804e-08
0
2.3085562e-09
0
3.5366753e-11
0
6.6712114e-13
2.6430309e-16
2.0573509e-14
8.6487143e-18
5.7104482e-16
7.8270333e-20
6.4267323e-18
7.3952205e-22
5.9370071e-20
5.7019281e-24
4.7465759e-22
3.1766632e-26
3.0105577e-24
1.2550001e-28
1.5049519e-26
3.1814127e-31
6.113141e-29
3.7506015e-34
2.4501397e-31
-3.125631e-37
1.2816729e-33
-4.865073e-39
6.6177756e-36
-4.6752152e-41
3.3214567e-38
-4.0626517e-43
1.8508562e-40
-2.7806505e-45
1.1449643e-42
-1.5197917e-47
5.6847932e-45
-6.5187925e-50
2.1381325e-47
-2.3396071e-52
7.0457301e-50
-2.3670446e-54
2.2791871e-52
-4.4998853e-54
4.8946726e-54
-4.4368352e-52
3.4232674e-52
-4.4833289e-50
2.5825314e-50
-3.8195788e-48
1.5658423e-48
-2.6585177e-46
6.9403724e-47
-1.5409434e-44
1.7328354e-45
-8.5529324e-43
-3.1358823e-44
-3.9269982e-41
-6.9368966e-42
-1.2543116e-39
-3.8313173e-40
-2.2181505e-38
-1.0172676e-38
-1.6909654e-37
-1.2306354e-37
-4.3130625e-37
-6.3258238e-37
-1.3270552e-36
1.0540504e-66
1.033302e-65
1.0431954e-66
1.2854901e-65
7.0545233e-66
1.2154833e-64
2.1734116e-66
2.7624769e-64
-5.3370974e-66
2.7836701e-64
-7.0523366e-66
2.0048122e-64
-4.7493204e-66
1.0008303e-64
-2.8649609e-67
3.7627981e-65
-4.9025072e-67
2.6901713e-66
-3.0369903e-64
5.6586159e-64
-1.4000721e-61
3.1825665e-61
-3.2565405e-59
7.5044763e-59
-5.3469439e-57
1.1849172e-56
-6.9409172e-55
1.499386e-54
-7.4898284e-53
1.6086385e-52
-6.8854829e-51
1.5134076e-50
-5.4638237e-49
1.277462e-48
-3.7385112e-47
9.8169954e-47
-2.1461784e-45
6.9320707e-45
-9.7837076e-44
4.5531465e-43
-2.7358532e-42
2.8014832e-41
5.5700135e-41
1.6305693e-39
1.5101932e-38
9.0666683e-38
1.4198409e-36
4.7764791e-36
9.7401128e-35
2.3688578e-34
5.5636117e-33
1.1190505e-32
3.2852713e-31
5.9550923e-31
3.2626401e-29
5.7594935e-29
3.1103612e-27
5.7871817e-27
7.71866e-26
1.6844054e-25
4.5928266e-25
1.3326444e-24
1.1103734e-24
4.3579695e-24
2.1398984e-24
1.017607e-23
9.0142965e-24
4.6010983e-23
1.4286923e-21
9.5427127e-21
3.4700482e-20
4.8516272e-19
-9.5554729e-21
5.3244265e-18
-1.5261156e-18
2.344518e-17
-6.1621532e-18
6.4843158e-17
-2.1802053e-17
1.3448521e-16
-2.1895977e-15
2.4340682e-15
-1.7046524e-13
1.7352605e-13
-8.8735318e-12
9.1036216e-12
-9.381738e-10
5.5721778e-10
-3.1793447e-09
1.2814243e-09
-1.0999884e-09
-2.4679716e-09
-2.4528844e-10
-8.9379519e-10
3.0898158e-11
-5.7503199e-10
1.308363e-10
-7.4571317e-10
2.49217e-10
-8.5199601e-10
3.9275757e-10
-9.7804222e-10
4.8540086e-10
-1.0321488e-09
8.8356663e-10
-1.5997947e-09
7.5980693e-08
-4.631865e-08
7.564386e-08
-3.4982026e-07
3.910952e-09
-9.2367424e-08
1.7160464e-09
-6.1264182e-09
1.3857571e-09
-2.0487e-09
1.3715394e-09
-6.2876218e-10
1.6129493e-09
7.5255939e-10
6.7422522e-09
3.7312971e-09
9.8260839e-08
3.7384416e-08
1.6828656e-07
6.0634703e-08
2.0809173e-08
7.7679383e-09
0
1.1239727e-08
0
6.1754496e-10
0
1.3870006e-09
0
2.1081616e-11
0
7.1104514e-13
2.4349406e-16
2.9934919e-14
1.9487573e-18
4.559166e-16
9.1714449e-21
2.3823803e-18
4.7580006e-23
1.0634454e-20
1.9826369e-25
4.6965641e-23
6.0212179e-28
2.7727504e-25
7.9557555e-31
2.2588655e-27
-8.8184516e-33
1.9525671e-29
-1.7147293e-34
1.623523e-31
-2.1619529e-36
1.2364347e-33
-2.1124372e-38
9.4686444e-36
-1.6433076e-40
6.1072978e-38
-1.0487882e-42
3.3404912e-40
-5.6379878e-45
1.6157903e-42
-2.4669916e-47
6.759167e-45
-1.0323718e-49
2.4636921e-47
-3.9733652e-52
8.6866575e-50
-4.2248825e-52
7.4865938e-52
-2.6965924e-51
2.175238e-51
-2.7408148e-49
1.8488961e-49
-2.3075964e-47
1.1690901e-47
-1.6883636e-45
5.9538262e-46
-1.0399475e-43
2.2080785e-44
-5.8196915e-42
3.7365194e-43
-2.9856152e-40
-2.3080686e-41
-1.2124833e-38
-2.5948477e-39
-3.3714466e-37
-1.1614013e-37
-5.1956652e-36
-2.6370348e-36
-3.5226938e-35
-2.8256828e-35
-8.303837e-35
-1.3326708e-34
-2.6540679e-34
1.252961e-63
1.1586181e-62
4.8106588e-64
6.3907325e-63
1.1686316e-63
1.8723252e-62
5.4974162e-64
4.1748051e-62
-6.264812e-64
4.2196936e-62
-9.7064677e-64
3.0632204e-62
-7.5733214e-64
1.5427155e-62
-2.9514316e-65
6.4579336e-63
-3.8812642e-65
2.8655382e-64
-5.0153674e-63
1.1400601e-62
-5.8687124e-60
8.2406788e-60
-2.8748986e-57
5.7144479e-57
-6.7086279e-55
1.4129446e-54
-1.0217985e-52
2.1500016e-52
-1.1990445e-50
2.5225939e-50
-1.1553111e-48
2.4934454e-48
-9.3160082e-47
2.1581827e-46
-6.2838091e-45
1.6728437e-44
-3.4342512e-43
1.1807902e-42
-1.3151535e-41
7.6487042e-41
-8.3138889e-41
4.5954979e-39
4.2342624e-38
2.5991061e-37
5.1027718e-36
1.3875953e-35
4.058598e-34
7.0282043e-34
2.60537e-32
3.3863031e-32
1.4460024e-30
1.5748228e-30
8.0929124e-29
8.046046e-29
6.4285462e-27
6.2766045e-27
5.12835e-25
5.3129485e-25
1.3980501e-23
1.6972593e-23
9.3938613e-23
1.5392717e-22
2.199082e-22
5.1373046e-22
3.5389395e-22
1.0098996e-21
9.4263661e-22
2.7395243e-21
1.022604e-19
2.9503345e-19
2.7932131e-18
1.1855127e-17
1.5045531e-17
1.1514192e-16
2.3043594e-17
5.0887678e-16
-4.4343056e-17
1.3932428e-15
-2.6683957e-16
2.4875171e-15
-7.6317704e-15
1.448325e-14
-7.7081284e-13
9.5496003e-13
-4.4195563e-11
5.2604429e-11
-4.1312896e-09
2.0348845e-09
-3.7558436e-09