/*--------------------------------*- C++ -*----------------------------------*\
  =========                 |
  \\      /  F ield         | OpenFOAM: The Open Source CFD Toolbox
   \\    /   O peration     | Website:  https://openfoam.org
    \\  /    A nd           | Version:  9
     \\/     M anipulation  |
\*---------------------------------------------------------------------------*/
FoamFile
{
    format      ascii;
    class       volScalarField;
    location    "0.93";
    object      p_rgh;
}
// * * * * * * * * * * * * * * * * * * * * * * * * * * * * * * * * * * * * * //

dimensions      [1 -1 -2 0 0 0 0];

internalField   nonuniform List<scalar> 
10000
(
0
0.0028735134
0.00730595
0.0123898
0.01841755
0.025316762
0.032687875
0.040290663
0.047855484
0.054899467
0.061118996
0.065894777
0.068706539
0.069064348
0.066289488
0.05984904
0.049163935
0.033522311
0.012294987
-0.015204562
-0.049799405
-0.092224877
-0.14320597
-0.20353132
-0.27391649
-0.35483374
-0.44649847
-0.54900604
-0.66224304
-0.78586655
-0.91928757
-1.0615092
-1.2109873
-1.3656021
-1.5225696
-1.6782524
-1.8280387
-1.9662761
-2.0863095
-2.1811269
-2.242924
-2.2599393
-2.2235776
-2.1542279
-2.0772874
-1.8708426
-1.4160257
-0.98178538
0.082003447
0.99165758
1.6804738
2.0835257
2.2681364
2.2780994
2.0059711
1.3153926
0.29249123
-0.72732948
-1.5051549
-1.9875343
-2.1811181
-2.1532454
-2.1725408
-2.114537
-2.2470485
-2.4251741
-2.6434341
-2.8764179
-3.1224368
-3.3836829
-3.6582123
-3.943377
-4.2361292
-4.5332461
-4.8317615
-5.1289622
-5.4224706
-5.7103101
-5.9908222
-6.262581
-6.5243698
-6.7751865
-7.0142033
-7.2407331
-7.4542115
-7.6542164
-7.8404558
-8.0127519
-8.1708152
-8.3145357
-8.4441819
-8.5599928
-8.6624356
-8.7519454
-8.8288725
-8.893125
-8.945839
-8.9845544
-9.0110708
-9.0227772
-0.0018823734
0.00098056729
0.0055038331
0.010833794
0.017173387
0.02444536
0.032184891
0.040290753
0.04826782
0.055889715
0.062611735
0.067943166
0.071450922
0.072453973
0.070416672
0.064796974
0.054858709
0.039954051
0.01943048
-0.0075197421
-0.041659241
-0.083701877
-0.13447293
-0.19479529
-0.26534068
-0.34670284
-0.43938353
-0.54369403
-0.65975134
-0.7875345
-0.92675991
-1.0767125
-1.2362212
-1.4036417
-1.5766879
-1.7522462
-1.9263422
-2.094071
-2.2495568
-2.387087
-2.5006686
-2.5791232
-2.6220986
-2.670579
-2.7339455
-2.6335225
-1.9763707
-0.9313293
0.092424797
0.85532029
1.6422631
2.2784
2.201482
2.3554691
1.9382766
1.4016632
0.18343155
-1.3720314
-2.1218966
-2.528917
-2.5508353
-2.3145542
-1.9385465
-2.1954543
-2.3373725
-2.5548208
-2.7951535
-3.0273729
-3.2691809
-3.5221739
-3.7862007
-4.0609326
-4.3436633
-4.6311526
-4.9206437
-5.2096395
-5.4957847
-5.7770255
-6.0516286
-6.3180707
-6.5750496
-6.8215323
-7.0566441
-7.2796553
-7.489999
-7.6872495
-7.8710998
-8.0413245
-8.1976694
-8.3403891
-8.4694383
-8.5849044
-8.6869806
-8.7759361
-8.8520514
-8.9156948
-8.9664214
-9.0045566
-9.0308095
-9.0420863
-0.005394056
-0.0023561224
0.0024165337
0.0081391183
0.015002226
0.022849132
0.031367025
0.040208954
0.049156425
0.05774247
0.065501339
0.072053645
0.076763799
0.079076524
0.078481828
0.074267066
0.065782434
0.052411927
0.03337099
0.0078661044
-0.024822247
-0.065519222
-0.11511193
-0.17439705
-0.24414671
-0.32514523
-0.41806635
-0.52344495
-0.64173958
-0.77328103
-0.91810853
-1.075927
-1.2461175
-1.4276055
-1.6186609
-1.8167988
-2.0187636
-2.220359
-2.4161872
-2.6011944
-2.7712064
-2.9148699
-3.0364027
-3.2221875
-3.5093445
-3.3407473
-2.5853944
-2.1544898
-1.0127067
0.11913942
0.75831431
1.1342389
1.6359802
1.6728675
1.7593761
1.7795262
0.27503424
-1.9164691
-2.7140089
-2.874711
-2.7368828
-2.4821964
-2.4360496
-2.2109855
-2.5523661
-2.7494321
-2.9436811
-3.1662368
-3.4050526
-3.6521775
-3.9092512
-4.1768674
-4.4523085
-4.7322831
-5.0142672
-5.2960998
-5.5756472
-5.8509181
-6.1201763
-6.381884
-6.6346885
-6.8774842
-7.1093466
-7.329501
-7.5373366
-7.7323933
-7.9143375
-8.0828494
-8.2379027
-8.3794333
-8.5074535
-8.6220423
-8.7233608
-8.8116523
-8.8872178
-8.9501595
-9.0000407
-9.0375603
-9.0634405
-9.0743195
-0.010499414
-0.00723167
-0.0020529011
0.0042373219
0.011735456
0.02049337
0.029942351
0.039981779
0.050189862
0.060131683
0.069474529
0.077652413
0.084113392
0.088359803
0.089734264
0.087575061
0.08129147
0.070141453
0.053316119
0.030074825
-0.00039978356
-0.039021947
-0.086657425
-0.1441743
-0.21252874
-0.29266196
-0.38543483
-0.4917282
-0.61239623
-0.74814299
-0.89945093
-1.0666147
-1.2496847
-1.4482709
-1.6613897
-1.8873932
-2.1238704
-2.3673992
-2.6130832
-2.8560288
-3.0933509
-3.3165806
-3.5359871
-3.8678299
-4.3977561
-4.0473068
-3.748271
-3.1938011
-2.0161929
-0.96066722
-0.21109857
0.45468299
0.86853127
0.90527681
3.2540255
1.9780316
0.24371058
-1.5694494
-4.3625011
-4.0597781
-3.9789541
-3.3795709
-2.739707
-2.8335823
-2.5924947
-3.0777839
-3.1660435
-3.3260201
-3.5385818
-3.7745983
-4.024753
-4.2869255
-4.5576974
-4.8330825
-5.1104579
-5.3877776
-5.6630197
-5.934263
-6.1997685
-6.4579965
-6.7075954
-6.9474261
-7.1765384
-7.3941319
-7.5995884
-7.7924561
-7.9723763
-8.1391164
-8.2925546
-8.4326153
-8.5593089
-8.6727173
-8.7729868
-8.8602848
-8.9347713
-8.9966192
-9.0457674
-9.0826233
-9.1079662
-9.1183718
-0.017229479
-0.01364973
-0.007915841
-0.00090934175
0.0075228373
0.017338905
0.028147416
0.039687485
0.051527398
0.063373637
0.074726891
0.085059575
0.093898903
0.10062943
0.10460049
0.10523855
0.10184217
0.093615347
0.079812789
0.059634108
0.032155621
-0.0035308345
-0.048325424
-0.1032547
-0.16943914
-0.24795021
-0.33991506
-0.44669659
-0.56954546
-0.70960508
-0.86796447
-1.0456513
-1.2434968
-1.4619832
-1.7011391
-1.9603872
-2.2382972
-2.5322901
-2.8379799
-3.1498132
-3.4638587
-3.7733244
-4.0841665
-4.4875137
-5.016304
-5.2291965
-5.0818885
-4.2504551
-3.139574
-2.111158
-1.3726667
-0.8638029
-0.5812307
-0.25304665
1.0331649
-0.8666722
-3.0381391
-4.47196
-6.8238815
-6.4271337
-5.0322053
-4.9600664
-3.9362662
-3.6360547
-3.2549667
-3.4684661
-3.4475815
-3.5323578
-3.7083686
-3.9265919
-4.1650131
-4.4185067
-4.6826634
-4.9524256
-5.2247525
-5.4974291
-5.7683288
-6.0354809
-6.2971002
-6.5516373
-6.7977582
-7.034312
-7.2603294
-7.4750137
-7.6777383
-7.8681021
-8.0456652
-8.210268
-8.3617507
-8.5000311
-8.6251102
-8.7370647
-8.8360043
-8.9220655
-8.9954171
-9.0561822
-9.1043826
-9.1404496
-9.1651087
-9.1749164
-0.025834065
-0.02185183
-0.015466515
-0.0075345202
0.0019471537
0.013220734
0.025646651
0.038993269
0.052968779
0.067122403
0.080958905
0.094045304
0.10580233
0.11560021
0.12288208
0.1269965
0.12718043
0.1226784
0.11272028
0.096425226
0.072852253
0.041081498
9.1932496e-05
-0.051263421
-0.1142255
-0.19004776
-0.28007996
-0.38642887
-0.51067074
-0.65446549
-0.81963243
-1.0080343
-1.2214189
-1.4613636
-1.7291656
-2.0255468
-2.3502395
-2.7015531
-3.0753345
-3.4643706
-3.8604687
-4.2531508
-4.6328936
-5.0373625
-5.4911125
-5.8244939
-5.68269
-5.0865001
-4.1982663
-3.2685264
-2.6711973
-2.3784342
-2.5796489
-3.2152447
-3.830529
-4.78114
-6.69556
-9.2299508
-9.4128613
-8.5758095
-8.1309491
-6.6072842
-5.2161629
-5.0739344
-4.3639222
-4.0498747
-3.8113193
-3.7905682
-3.9222349
-4.1181484
-4.3382106
-4.5777777
-4.8317867
-5.0935068
-5.359147
-5.6260591
-5.891803
-6.1542431
-6.4114991
-6.6619483
-6.9042557
-7.1372279
-7.3598754
-7.5713973
-7.7711893
-7.9587703
-8.1338038
-8.2960502
-8.4453494
-8.5816218
-8.7048481
-8.8151002
-8.9124559
-8.9970388
-9.0690196
-9.1285135
-9.1756077
-9.2108012
-9.2346765
-9.2437492
-0.036545465
-0.032114092
-0.0248434
-0.015940186
-0.0051253389
0.0077981103
0.022122431
0.037741357
0.05422135
0.071101019
0.087986416
0.10434294
0.11956315
0.13311225
0.14438049
0.15263418
0.15715348
0.15719456
0.15189976
0.1403702
0.12168746
0.094848626
0.058720675
0.012131337
-0.046433723
-0.11835037
-0.20462381
-0.30927227
-0.43365244
-0.58000891
-0.75098915
-0.94941703
-1.1781298
-1.440025
-1.7379152
-2.0741359
-2.449996
-2.8650563
-3.3150219
-3.7905775
-4.2772331
-4.7551899
-5.1894637
-5.55007
-5.8550837
-6.0734086
-5.9999286
-5.6582719
-5.0251209
-4.320867
-3.9302019
-4.0184188
-3.7289123
-5.0981527
-5.956963
-7.4325681
-10.142772
-12.550662
-13.901853
-13.95053
-11.774592
-9.0777488
-6.7299555
-5.5219692
-5.467325
-4.7357571
-4.2559623
-4.1130885
-4.1896464
-4.3502779
-4.5423134
-4.7618594
-5.0018031
-5.2530165
-5.5104787
-5.7707293
-6.0308203
-6.2882936
-6.5410876
-6.7874577
-7.0259833
-7.2553837
-7.4747232
-7.6830417
-7.8798038
-8.0645247
-8.236865
-8.3965658
-8.5434613
-8.6774641
-8.7985728
-8.9068477
-9.0023755
-9.0852624
-9.1556489
-9.2136509
-9.259443
-9.2935961
-9.3165434
-9.3246622
-0.04970091
-0.044632543
-0.036445747
-0.026193696
-0.014138819
0.00071567841
0.017392165
0.035629278
0.054989324
0.075121159
0.095540418
0.11567303
0.13500702
0.15296567
0.16885069
0.18196894
0.1916258
0.19700337
0.19723142
0.19143498
0.17865774
0.15779407
0.12769867
0.087454788
0.034450888
-0.032855266
-0.11156171
-0.21344799
-0.33621947
-0.48325468
-0.65818351
-0.86500537
-1.1077727
-1.3909121
-1.7190006
-2.0965028
-2.5270172
-3.0127717
-3.5486152
-4.124301
-4.7195952
-5.3036942
-5.8124927
-6.1484197
-6.2752574
-6.2669947
-6.2062255
-5.9459969
-5.5105414
-5.1131494
-4.9799974
-5.2490156
-5.7231906
-6.0977594
-8.1228017
-10.550695
-14.11972
-16.351083
-17.522566
-17.083438
-14.844979
-11.496736
-8.2235274
-5.7652151
-6.4662386
-5.4747606
-4.7719407
-4.50147
-4.5090143
-4.6186467
-4.7735787
-4.9677822
-5.1901946
-5.4288382
-5.6770054
-5.9301025
-6.1844517
-6.4370602
-6.6855677
-6.9280985
-7.1630131
-7.3890154
-7.6049827
-7.81011
-8.0037804
-8.1855254
-8.3549909
-8.5119184
-8.6561674
-8.7876477
-8.9063756
-9.0124031
-9.1058307
-9.1867779
-9.2553066
-9.3116104
-9.3559012
-9.3888203
-9.4106553
-9.4175308
-0.06559824
-0.059922225
-0.050472881
-0.038366094
-0.02580594
-0.0082774958
0.011113863
0.032314543
0.05503959
0.078873153
0.10329125
0.12781054
0.15188776
0.17485966
0.19605337
0.21480795
0.23036319
0.24189734
0.24856662
0.24949432
0.2436534
0.22989992
0.20687621
0.1756102
0.130004
0.070879654
-0.0036078875
-0.0985111
-0.21645592
-0.36124951
-0.53735871
-0.7497791
-1.0040452
-1.3062325
-1.662815
-2.0812207
-2.5678472
-3.1328188
-3.7656186
-4.4607289
-5.1964442
-5.9356756
-6.5884806
-6.9959323
-7.0629357
-6.8543291
-6.5087322
-6.1208093
-5.7550204
-5.6159673
-5.7490781
-6.160882
-6.8919696
-7.6849369
-9.4651068
-12.57954
-16.606804
-19.188925
-20.440867
-20.014271
-17.704411
-14.165584
-9.3830939
-6.8694093
-7.5237277
-6.1278067
-5.2755486
-4.9130552
-4.8528694
-4.9071187
-5.0226879
-5.1900468
-5.3936136
-5.6190226
-5.8576397
-6.103624
-6.3524961
-6.6005661
-6.8451154
-7.0841693
-7.3156018
-7.5382203
-7.7508941
-7.952786
-8.1432723
-8.3218864
-8.4882751
-8.6422053
-8.7835588
-8.9122739
-9.0283545
-9.1318616
-9.2228969
-9.301555
-9.3680614
-9.4224573
-9.4650079
-9.4964897
-9.5169882
-9.5222885
-0.084772134
-0.078306907
-0.067727889
-0.054335383
-0.0389967
-0.019267417
0.0029537707
0.027517809
0.054012358
0.081968172
0.11095169
0.14045445
0.16984542
0.19848156
0.22572461
0.25085443
0.27307605
0.29161305
0.30566318
0.31428769
0.31651843
0.3113891
0.29764612
0.27435517
0.23880446
0.18946337
0.12387058
0.038051048
-0.071991941
-0.21101362
-0.38454136
-0.59876931
-0.86067483
-1.1781273
-1.5599467
-2.0157425
-2.5535639
-3.2129904
-3.9505352
-4.7891187
-5.7119063
-6.6873149
-7.6012717
-8.2254302
-8.3339354
-7.9837938
-7.4689567
-6.8312144
-6.2837564
-6.1175864
-6.3310232
-6.7752023
-7.5449689
-8.9762002
-9.7217046
-14.160089
-17.634339
-20.491935
-21.888256
-21.691286
-19.723059
-16.610521
-12.604414
-10.289505
-8.4742565
-6.6769519
-5.6889721
-5.2925654
-5.1829983
-5.192229
-5.2749209
-5.4193069
-5.6060327
-5.8200164
-6.0502145
-6.2899558
-6.5342831
-6.7785292
-7.0196447
-7.2553511
-7.4836467
-7.7030931
-7.9125586
-8.111206
-8.2984254
-8.4737644
-8.636888
-8.7876105
-8.9258329
-9.0515234
-9.1646924
-9.2654134
-9.3538012
-9.4299687
-9.4941156
-9.5463177
-9.5868679
-9.6166899
-9.6355688
-9.6389385
-0.10753284
-0.10030409
-0.088470521
-0.073329685
-0.055348204
-0.03293354
-0.0074800283
0.02079711
0.05143832
0.084046988
0.11816114
0.15318519
0.18850341
0.22351099
0.2575123
0.28974029
0.31944558
0.34585895
0.36813848
0.38538645
0.39668383
0.40149782
0.39796168
0.38509641
0.36108397
0.32385377
0.27056544
0.1972215
0.099013152
-0.029883279
-0.19620422
-0.40734301
-0.67162146
-0.99873494
-1.4003663
-1.8908922
-2.4877198
-3.2137253
-4.0743279
-5.0863578
-6.2556283
-7.5795404
-8.9305741
-10.005362
-10.42676
-10.42441
-9.8857466
-8.9140954
-7.7542315
-6.9954492
-6.8516845
-7.089694
-7.6213115
-8.8699875
-9.5919951
-13.989273
-17.291633
-20.088987
-21.533046
-21.553204
-20.029695
-16.977814
-14.078964
-11.162446
-8.7051535
-6.9028601
-5.984687
-5.6076054
-5.4703276
-5.4526205
-5.5159022
-5.6451584
-5.8198306
-6.0277288
-6.2519772
-6.4875332
-6.7284164
-6.9699056
-7.2085074
-7.441595
-7.6671692
-7.8837205
-8.0901238
-8.2855614
-8.4694481
-8.6413733
-8.8010565
-8.9483516
-9.0831927
-9.2055854
-9.3155777
-9.4132472
-9.4987091
-9.5720947
-9.6336233
-9.6833372
-9.7216257
-9.7495497
-9.7664911
-9.7675711
-0.13446728
-0.12638929
-0.11305036
-0.095988659
-0.075335047
-0.049738328
-0.02071996
0.011612025
0.046891682
0.084685057
0.12442967
0.16555661
0.20748678
0.24954811
0.29099962
0.33109901
0.36910811
0.40422173
0.43560024
0.46242673
0.48384111
0.49954735
0.50742087
0.50681219
0.49634542
0.47378214
0.43618223
0.37936902
0.29774784
0.18418923
0.030528485
-0.17160676
-0.43157285
-0.76054327
-1.1729092
-1.6876642
-2.3291238
-3.1271547
-4.1111081
-5.3136992
-6.7893963
-8.5849738
-10.59042
-12.457933
-13.810048
-14.385206
-13.959075
-12.426964
-10.189758
-8.2361578
-7.2272306
-7.0036074
-7.1324237
-8.2961537
-9.0731547
-12.603083
-15.849989
-18.36614
-19.651855
-19.888059
-19.099479
-17.560489
-12.863836
-11.573349
-8.8336068
-7.0356365
-6.1979287
-5.8348708
-5.7021313
-5.6761511
-5.7354086
-5.8606232
-6.032204
-6.2360289
-6.4592878
-6.6940193
-6.9339895
-7.1744014
-7.4116451
-7.6429944
-7.8664094
-8.0804049
-8.283907
-8.4761622
-8.6566404
-8.8249998
-8.9810448
-9.1246877
-9.2558987
-9.3747325
-9.4812777
-9.5756182
-9.6578892
-9.7282162
-9.786839
-9.8337665
-9.8695221
-9.8953039
-9.9099661
-9.9083983
-0.16609697
-0.15700833
-0.14212242
-0.12292652
-0.09932179
-0.070321496
-0.037372439
-0.00051433134
0.039887813
0.083323774
0.12925018
0.17712947
0.22632921
0.27611666
0.3257698
0.37454531
0.42165083
0.4662818
0.50764331
0.54494121
0.57732919
0.60489312
0.62522899
0.63821463
0.64342118
0.63813045
0.6197012
0.58401193
0.52460953
0.43258401
0.29759764
0.1110607
-0.13684134
-0.45802151
-0.868814
-1.3924936
-2.0610969
-2.9179039
-4.0157736
-5.4210198
-7.2368751
-9.62028
-12.538078
-15.63853
-18.156014
-19.353004
-18.738675
-16.331387
-12.809977
-9.3664128
-7.1368855
-6.3075881
-5.9624264
-7.0548142
-7.6809525
-11.064413
-13.389249
-16.467129
-16.940717
-16.947802
-16.88973
-14.907038
-11.583367
-10.678922
-8.5945157
-7.0065109
-6.3003911
-5.9873685
-5.8703288
-5.8562682
-5.9263073
-6.0594234
-6.2368227
-6.4446078
-6.6713708
-6.9088095
-7.1506062
-7.3919607
-7.6292646
-7.8598441
-8.081734
-8.2935456
-8.4943153
-8.6833959
-8.8603709
-9.025007
-9.1771922
-9.3169335
-9.4442654
-9.5592877
-9.6621015
-9.7528139
-9.8315549
-9.8986298
-9.9540813
-9.9979271
-10.030871
-10.054277
-10.06631
-10.061747
-0.20295054
-0.19287772
-0.17629479
-0.1547402
-0.12811749
-0.095114689
-0.057907286
-0.016120106
0.029806647
0.079391707
0.1321225
0.18738854
0.2445011
0.30275403
0.36140442
0.41963915
0.47662828
0.53159451
0.58377743
0.63239684
0.67673573
0.71641293
0.75035477
0.77725846
0.80054621
0.81484764
0.81895223
0.80931086
0.778783
0.71601895
0.60552256
0.44126915
0.21354974
-0.088729243
-0.48257114
-0.9950987
-1.6661509
-2.5533697
-3.7362079
-5.3265708
-7.5117356
-10.532903
-14.555781
-19.055949
-22.509631
-23.762746
-22.430722
-19.287026
-14.551284
-9.8208064
-4.8764617
-4.3480937
-3.9526608
-4.7507889
-5.6061542
-9.0705765
-10.312449
-14.393908
-14.127502
-14.571316
-14.275406
-12.675032
-10.121176
-9.4375434
-7.8316673
-6.7384279
-6.2512742
-6.0391883
-5.9679862
-5.9898991
-6.0867143
-6.2401515
-6.4328174
-6.6521458
-6.8878235
-7.1319952
-7.3785963
-7.6230361
-7.8619108
-8.0927237
-8.313713
-8.5236701
-8.7218285
-8.907703
-9.0810379
-9.2417476
-9.3898456
-9.525432
-9.6486167
-9.7595746
-9.8584199
-9.9452814
-10.020307
-10.08381
-10.135804
-10.176274
-10.206166
-10.226973
-10.235984
-10.228061
-0.24575671
-0.23458171
-0.21612403
-0.1921306
-0.16234312
-0.12473772
-0.082941295
-0.035895706
0.016014737
0.072320663
0.13244501
0.19572393
0.26147718
0.32898688
0.39742466
0.46590774
0.53360286
0.59971609
0.66344494
0.72404466
0.78090892
0.83372014
0.88276521
0.92841394
0.96636092
1.0009443
1.0303257
1.0521683
1.0579347
1.0276901
0.95240546
0.81725525
0.61702908
0.34517309
-0.014081943
-0.49071865
-1.1315643
-2.0060747
-3.2195756
-4.9357752
-7.4469846
-11.129443
-16.15316
-21.692812
-25.617364
-26.700871
-24.814258
-20.635646
-14.907049
-8.8207785
2.9317048
1.9831211
-0.89105955
-0.93535585
-3.4482516
-6.2274253
-9.2047603
-11.575645
-11.747076
-12.134685
-11.669707
-10.452545
-9.0835372
-8.1559806
-6.9819422
-6.3464753
-6.0931916
-6.0014725
-6.0021059
-6.0806629
-6.2194817
-6.4046602
-6.6216023
-6.8596397
-7.109665
-7.3646111
-7.6189709
-7.8686101
-8.1105045
-8.3424827
-8.5631092
-8.7714707
-8.9670588
-9.1496235
-9.3191352
-9.4756753
-9.619412
-9.750574
-9.8693612
-9.9759864
-10.070625
-10.153441
-10.224515
-10.284251
-10.332565
-10.369411
-10.396052
-10.414047
-10.419592
-10.40795
-0.29512126
-0.28271798
-0.26235592
-0.23579478
-0.2026014
-0.15987517
-0.11325852
-0.060565969
-0.0021630322
0.061408986
0.12951825
0.20152013
0.27670903
0.35427466
0.43331149
0.51290672
0.5921685
0.67020346
0.74615905
0.81930957
0.88914037
0.95544621
1.0185636
1.0783613
1.135165
1.1913858
1.2478261
1.3060851
1.3614705
1.3764253
1.3391988
1.2355039
1.0671027
0.83626717
0.52922368
0.11605591
-0.45548893
-1.261152
-2.4234854
-4.1512274
-6.8356806
-10.935798
-16.594582
-22.573387
-26.5776
-27.410867
-24.92668
-19.918396
-13.774552
-7.5083671
5.3057028
4.8064002
2.3488383
2.2477053
-0.62333192
-3.1233296
-6.2472372
-8.3906404
-9.4629443
-9.1077363
-8.789908
-8.5603882
-7.5620914
-6.8325558
-6.2052254
-5.9402953
-5.8789738
-5.9048277
-5.992902
-6.139907
-6.331852
-6.5579577
-6.8069796
-7.0699986
-7.3392756
-7.6087112
-7.8735517
-8.1302807
-8.376421
-8.6103028
-8.8309222
-9.037772
-9.2306891
-9.4097329
-9.5751334
-9.7271943
-9.8662736
-9.9927192
-10.106832
-10.208885
-10.299111
-10.377727
-10.444754
-10.500627
-10.545121
-10.57818
-10.601434
-10.616393
-10.617934
-10.602174
-0.35171667
-0.33808473
-0.31567941
-0.28632452
-0.24977035
-0.20127329
-0.14968172
-0.090914564
-0.025537404
0.045847952
0.12263025
0.20413785
0.28956861
0.37802556
0.46857039
0.5602153
0.65193006
0.74268945
0.83157347
0.9178036
1.0008216
1.0805423
1.1568658
1.2309631
1.3043416
1.3804155
1.4629586
1.558727
1.6851931
1.7515541
1.7619186
1.6868651
1.5527556
1.3710309
1.1314552
0.81107991
0.35290703
-0.3160801
-1.3199538
-2.8908455
-5.4668495
-9.5473688
-15.200835
-21.026115
-24.856088
-25.458552
-22.791694
-17.544339
-11.322955
-5.3547855
7.1855737
5.5936397
4.4733187
3.9563443
1.8895671
-0.020950791
-2.5342202
-5.4231464
-6.419325
-7.3776586
-7.3203256
-6.6861759
-6.0865086
-5.7304849
-5.5363255
-5.5458705
-5.6402343
-5.7783514
-5.9599627
-6.1812554
-6.4332192
-6.7070702
-6.994352
-7.2875424
-7.5802432
-7.867326
-8.1449034
-8.4102183
-8.6614806
-8.8976702
-9.1183562
-9.3235351
-9.5134834
-9.6886343
-9.8495324
-9.9967381
-10.130805
-10.252229
-10.36141
-10.458696
-10.544338
-10.618498
-10.68167
-10.733741
-10.774415
-10.803673
-10.823508
-10.835158
-10.831999
-10.811641
-0.41638368
-0.40141092
-0.37675066
-0.34436308
-0.30389689
-0.25056136
-0.19326366
-0.12790188
-0.055023602
0.024819405
0.11100668
0.20279526
0.29932277
0.39963782
0.50271296
0.60741
0.71252924
0.81693412
0.91954901
1.0194041
1.1155539
1.2079278
1.2970051
1.3835937
1.4699518
1.5600958
1.662597
1.7851645
2.0140798
2.1269918
2.2173831
2.1543347
2.0519502
1.9378188
1.7707632
1.5775448
1.2835283
0.82020304
0.099408345
-1.1201724
-3.2667601
-6.8381154
-11.881502
-17.145066
-20.637382
-21.333174
-19.052731
-14.204762
-8.2840995
-3.1887723
7.8141671
5.2562099
4.7862102
4.5174501
3.0346421
2.2498705
0.3478806
-2.5105711
-3.7531295
-4.6233977
-4.9173462
-4.8491493
-4.8249296
-4.8641672
-4.9784823
-5.1732627
-5.3971626
-5.6437538
-5.9183716
-6.2168173
-6.5330356
-6.8597343
-7.1901025
-7.5177017
-7.837189
-8.1443878
-8.4363289
-8.7111572
-8.9679115
-9.2063567
-9.4267808
-9.6297981
-9.816228
-9.9869326
-10.142797
-10.284677
-10.413314
-10.529382
-10.633416
-10.72582
-10.806896
-10.876902
-10.936176
-10.98461
-11.021658
-11.047332
-11.063892
-11.071881
-11.063026
-11.037411
-0.48991677
-0.47347227
-0.44648641
-0.41080687
-0.36585762
-0.30863239
-0.24498408
-0.17251013
-0.091551583
-0.0025915395
0.093724278
0.19661594
0.30520369
0.41846084
0.53518104
0.6540482
0.77370936
0.89283808
1.0101461
1.1242747
1.2333859
1.3382518
1.4390002
1.5356853
1.6301544
1.7220269
1.8234255
1.9506787
2.2413577
2.3839024
2.6295135
2.5807568
2.5367679
2.5217657
2.4938628
2.4101766
2.3248868
2.1388087
1.7744714
1.0562793
-0.42382231
-3.1699572
-7.3346484
-11.946386
-15.394435
-16.58189
-14.8834
-10.649844
-5.2698428
-2.315606
6.2353777
3.656028
3.7183175
3.8597419
3.1310889
1.9106621
0.52277878
-0.90940421
-2.0354544
-2.8916014
-3.3842366
-3.662874
-3.9316103
-4.2124817
-4.51089
-4.8330715
-5.1660084
-5.5144624
-5.8793769
-6.256444
-6.6401155
-7.0238301
-7.4012973
-7.7667699
-8.1156507
-8.4446763
-8.7518588
-9.0363804
-9.2983021
-9.5383506
-9.7576731
-9.9576363
-10.13966
-10.30511
-10.455261
-10.591259
-10.714037
-10.82442
-10.923119
-11.010613
-11.087238
-11.153307
-11.209086
-11.254357
-11.288328
-11.311097
-11.324903
-11.328739
-11.312609
-11.280613
-0.57317825
-0.55525447
-0.52589109
-0.48675378
-0.43726247
-0.37581757
-0.3056752
-0.22569257
-0.13612365
-0.03744345
0.069731673
0.1846524
0.30638322
0.43374329
0.56536123
0.69974154
0.83529404
0.97040094
1.1035125
1.2329958
1.3550979
1.4725112
1.5843593
1.6909583
1.7952094
1.8759872
1.9184609
1.9964276
3.4911236
4.4165471
4.1565501
3.0056949
2.9675384
3.0878786
3.157459
3.244139
3.3693667
3.4845112
3.53934
3.3713816
2.5892779
0.67131005
-2.738841
-7.1595751
-10.712255
-12.834665
-12.43558
-8.9375107
-3.5833972
-2.7055491
3.3749411
0.94539868
1.9350153
2.7435567
2.6931157
1.9320759
0.88804528
-0.18045985
-1.1142463
-1.8924129
-2.4682369
-2.9077664
-3.3068202
-3.7016653
-4.1043601
-4.5220256
-4.9527574
-5.3969828
-5.8505903
-6.3080038
-6.7626282
-7.2074099
-7.6357244
-8.0420012
-8.4221815
-8.773876
-9.0962342
-9.3896846
-9.6555579
-9.8957661
-10.112494
-10.307984
-10.484343
-10.643478
-10.78707
-10.916538
-11.033027
-11.137482
-11.230718
-11.313355
-11.385783
-11.448364
-11.501321
-11.544256
-11.576198
-11.597491
-11.609793
-11.60894
-11.583109
-11.543072
-0.66716633
-0.64769724
-0.61589779
-0.57326973
-0.51931595
-0.453054
-0.37630118
-0.28852083
-0.18993184
-0.080953479
0.037879466
0.16581239
0.30181363
0.44458482
0.59260066
0.74411635
0.8971698
1.0496877
1.1998268
1.3421739
1.4817764
1.6121933
1.7329382
1.8361886
1.9262658
1.9951412
2.0621693
4.6084648
9.4451179
9.9147895
9.8963988
6.1910053
3.5238114
3.6431768
3.7978641
4.0571648
4.3855411
4.7568024
5.1483066
5.4665295
5.2864569
3.8743099
0.62657002
-3.9344289
-7.7615803
-11.230976
-12.221452
-11.415097
-8.1928439
-3.5660269
-1.2814773
-0.78122861
0.60927629
1.7193455
2.1005407
1.7089928
0.96949355
0.14605717
-0.6194174
-1.2836845
-1.837011
-2.31914
-2.7784891
-3.2420644
-3.7240163
-4.2292555
-4.7541314
-5.2924489
-5.8363788
-6.3779163
-6.9083586
-7.4190076
-7.9021367
-8.3518357
-8.7644597
-9.1386303
-9.4749096
-9.7753136
-10.04279
-10.280718
-10.492552
-10.681543
-10.850558
-11.002066
-11.138138
-11.260403
-11.370177
-11.468534
-11.556334
-11.634278
-11.702889
-11.762655
-11.813784
-11.855598
-11.887061
-11.909251
-11.922798
-11.917222
-11.876928
-11.825183
-0.77280434
-0.75167529
-0.71749256
-0.67140749
-0.61300064
-0.54155063
-0.45807426
-0.36229929
-0.25432977
-0.13446359
-0.0031838181
0.13874398
0.29024941
0.4499631
0.61617105
0.78678063
0.95932369
1.1309747
1.2983755
1.4619244
1.6173575
1.7622847
1.8984801
2.0186547
2.1424691
2.1982044
2.3885215
6.3368451
9.2175156
9.385836
10.008666
8.2451768
4.0569903
4.0983713
4.4194813
4.8376806
5.3514289
5.9018757
6.4951332
7.0863172
7.1053498
5.6275591
1.8983148
-2.6422464
-6.2900644
-9.364037
-4.8589843
1.8079769
-0.096819163
-7.9122374
-4.7195986
-2.4057542
-0.42346588
0.95867233
1.6185496
1.493466
0.99546877
0.37432821
-0.24072433
-0.8021178
-1.3069262
-1.7863965
-2.2752003
-2.7933004
-3.3494902
-3.9424545
-4.562945
-5.1990444
-5.8390715
-6.4717822
-7.0853493
-7.668249
-8.2108063
-8.7063566
-9.1516915
-9.5467799
-9.8941053
-10.197863
-10.463111
-10.695109
-10.898804
-11.078595
-11.238188
-11.380569
-11.508082
-11.622516
-11.725273
-11.817451
-11.899949
-11.973521
-12.038832
-12.096615
-12.147143
-12.189402
-12.222342
-12.24918
-12.270717
-12.262064
-12.194579
-12.121443
-0.89097658
-0.86818255
-0.83167603
-0.78217777
-0.71933576
-0.64259504
-0.55239575
-0.44848711
-0.33081456
-0.19954316
-0.055091242
0.10184575
0.2702451
0.44865586
0.63514568
0.82727109
1.0220967
1.2163505
1.4064525
1.5896206
1.7625901
1.9211113
2.0746978
2.1838279
2.3299519
2.33206
2.8632557
3.1244719
4.2522105
5.9182373
4.8512269
3.9663027
4.0834788
4.3260324
4.7468124
5.4733815
6.2185001
6.9035609
7.5883743
8.1211795
7.7745381
5.5780617
0.23754909
-5.2801736
-6.1363728
-6.4940394
-5.2179148
-2.5720658
-8.8986415
-8.5292687
-5.4178292
-2.9671383
-0.99436211
0.58013916
1.3971277
1.4204423
1.0638447
0.58350587
0.09797975
-0.36352639
-0.80681796
-1.2644913
-1.7693425
-2.3354506
-2.9645322
-3.6482242
-4.3707179
-5.1135953
-5.8602056
-6.595358
-7.3028916
-7.9668263
-8.5744684
-9.1180567
-9.5950905
-10.007608
-10.360915
-10.662257
-10.919539
-11.140399
-11.331604
-11.498814
-11.646521
-11.778132
-11.896122
-12.002272
-12.09791
-12.184065
-12.261579
-12.331211
-12.393767
-12.450359
-12.501679
-12.546599
-12.584033
-12.62254
-12.670977
-12.676272
-12.561716
-12.448378
-1.0226381
-0.99821036
-0.95934512
-0.90658022
-0.83949024
-0.75756445
-0.66075235
-0.54867512
-0.42111919
-0.27808177
-0.11979453
0.05321474
0.23998931
0.43903595
0.64821252
0.86473381
1.0851459
1.3055768
1.521055
1.7268913
1.9187639
2.0920145
2.2544172
2.3844353
2.5380994
2.7022989
2.8781545
3.3027531
3.9208361
4.2351276
4.245033
4.2100962
4.3224523
4.6452358
5.2637442
6.1221564
6.9736765
7.6616594
8.4433376
8.4419607
7.7176899
4.7752915
2.1768084
-2.4165526
-6.2274786
-8.3708773
-8.2055202
-9.7149685
-9.0194322
-7.1634907
-4.9208123
-2.8298996
-0.95469884
0.66186228
1.4771879
1.4925399
1.1458861
0.74352707
0.3868977
0.041024181
-0.31559767
-0.72309631
-1.2300935
-1.8404302
-2.5463963
-3.330207
-4.1675225
-5.0318727
-5.9009423
-6.7552365
-7.5726065
-8.3298775
-9.009669
-9.6029359
-10.108639
-10.532206
-10.883278
-11.173474
-11.414571
-11.617237
-11.790363
-11.940913
-12.074029
-12.193283
-12.301042
-12.398823
-12.487629
-12.568236
-12.641264
-12.707417
-12.767744
-12.823829
-12.877292
-12.927822
-12.97469
-13.034903
-13.149323
-13.249089
-13.066106
-12.845487
-1.1686914
-1.1425541
-1.101391
-1.0456716
-0.97471957
-0.88786772
-0.78470678
-0.66465275
-0.52727067
-0.3722733
-0.19958758
-0.0095086263
0.19715049
0.41891462
0.65355997
0.89793605
1.1478517
1.399126
1.6445372
1.8775239
2.0915806
2.2823908
2.448674
2.589182
2.7043187
2.8458042
2.9651598
3.3217555
3.8732463
4.1972045
4.3461585
4.6061212
5.1202466
5.5896994
6.1865416
6.8589251
7.6625689
8.2120235
8.5902904
8.0708481
7.4839355
9.4087731
2.7501316
-2.7273476
-6.5894684
-7.7079518
-7.5242984
-7.9168432
-7.3434142
-5.9703054
-4.2716354
-2.3180789
-0.34593816
1.23746
1.8731535
1.6638283
1.1266102
0.74194151
0.58455208
0.41769489
0.18325305
-0.12273787
-0.62021414
-1.2768462
-2.0705933
-2.9691264
-3.9395306
-4.9466559
-5.9613336
-6.9592403
-7.9100384
-8.7781196
-9.5387885
-10.182076
-10.710054
-11.133867
-11.469891
-11.736141
-11.94965
-12.12486
-12.273018
-12.402285
-12.518111
-12.623826
-12.721245
-12.811202
-12.894083
-12.97014
-13.039506
-13.102657
-13.161024
-13.216866
-13.272217
-13.328899
-13.388214
-13.467532
-13.649185
-13.946844
-13.491518
-12.669569
-1.3298509
-1.3018836
-1.2586974
-1.2004984
-1.1262238
-1.0349467
-0.92597343
-0.79843952
-0.65154617
-0.48461588
-0.29720698
-0.089277821
0.13865788
0.38537738
0.64867245
0.92500091
1.2092736
1.4972932
1.7788095
2.0447265
2.2848454
2.4928401
2.6609113
2.7823314
2.8683122
2.9482444
3.0333451
3.3169253
3.8533061
4.4119295
4.1221581
4.8392607
6.5195208
7.2655662
7.6153653
8.0057017
8.4039077
8.8550133
8.4888982
7.5824548
12.267852
13.527438
0.059985765
-1.4951099
-4.1368738
-5.2101321
-6.1477815
-6.851405
-6.446074
-5.1454767
-3.2416894
-1.0088081
1.0791764
2.4412113
2.6847661
1.9526369
0.85972854
0.34170333
0.53330458
0.72156709
0.62488856
0.56568865
0.10685843
-0.59832642
-1.5053336
-2.5455856
-3.6743213
-4.8503658
-6.0419572
-7.2187248
-8.337736
-9.3412096
-10.192973
-10.883782
-11.421987
-11.828346
-12.129822
-12.353775
-12.524252
-12.660259
-12.775413
-12.878591
-12.974909
-13.066767
-13.154759
-13.238498
-13.317301
-13.390514
-13.45748
-13.518243
-13.574574
-13.628842
-13.680203
-13.730126
-13.778086
-13.832134
-13.943697
-13.818545
-9.2281608
-5.6196585
-1.5067398
-1.4766731
-1.4319915
-1.371982
-1.2951689
-1.2003466
-1.0864357
-0.95221665
-0.7964516
-0.61801014
-0.41597751
-0.18977333
0.060656976
0.33454444
0.62993197
0.94326005
1.2688868
1.6001534
1.9258676
2.2333312
2.5078556
2.7372715
2.9132258
3.0168059
3.0597518
3.0689865
3.085554
3.3148164
3.7844528
4.1617618
2.7711197
3.6535168
7.287611
8.8963009
8.9335719
8.8523029
8.9120046
9.7445767
9.8901061
8.6620602
17.853133
3.8541645
-1.0148434
-1.3455797
-3.039324
-4.2993602
-5.5797241
-6.2412745
-5.4594177
-3.5477006
-1.0218691
1.568469
3.58446
4.5040996
4.1025679
2.3010621
-0.19838482
-1.2592722
-0.27299064
0.90024728
0.86004391
1.5099816
1.0590313
0.26792765
-0.81038717
-2.0222329
-3.3394058
-4.7274182