/*--------------------------------*- C++ -*----------------------------------*\
  =========                 |
  \\      /  F ield         | OpenFOAM: The Open Source CFD Toolbox
   \\    /   O peration     | Website:  https://openfoam.org
    \\  /    A nd           | Version:  9
     \\/     M anipulation  |
\*---------------------------------------------------------------------------*/
FoamFile
{
    format      ascii;
    class       surfaceScalarField;
    location    "0.93";
    object      phi;
}
// * * * * * * * * * * * * * * * * * * * * * * * * * * * * * * * * * * * * * //

dimensions      [0 3 -1 0 0 0 0];

internalField   nonuniform List<scalar> 
19800
(
6.73441e-06
5.6006546e-05
2.3661049e-07
5.7042338e-05
-6.3513791e-06
5.8382586e-05
-1.2837691e-05
5.9700771e-05
-1.930814e-05
6.1332443e-05
-2.5547227e-05
6.2941128e-05
-3.1583972e-05
6.4766942e-05
-3.73753e-05
6.6703334e-05
-4.2865278e-05
6.8741144e-05
-4.806577e-05
7.0854879e-05
-5.293459e-05
7.3004563e-05
-5.7535408e-05
7.5234588e-05
-6.1976644e-05
7.7433948e-05
-6.6374572e-05
7.9558297e-05
-7.0979042e-05
8.17408e-05
-7.6043812e-05
8.3975061e-05
-8.1980127e-05
8.6381694e-05
-8.9084253e-05
8.886804e-05
-9.7791962e-05
9.1934677e-05
-0.00010855568
9.5620759e-05
-0.00012186557
9.9974906e-05
-0.00013833236
0.00010567624
-0.00015864005
0.00011268948
-0.00018374541
0.00012156804
-0.0002147892
0.00013251037
-0.00025303534
0.00014589917
-0.0002998645
0.00016215783
-0.00035686444
0.00018165015
-0.00042583259
0.00020471837
-0.00050874296
0.0002317191
-0.00060770537
0.00026302385
-0.00072491575
0.00029896949
-0.00086263339
0.00033988021
-0.0010232431
0.00038606993
-0.0012093625
0.0004377787
-0.0014239338
0.00049528389
-0.001670336
0.00055909888
-0.0019525452
0.00063005452
-0.0022753803
0.00070950797
-0.0026451777
0.00079983877
-0.0030699428
0.00090285212
-0.003559806
0.0010215324
-0.0041413922
0.0011822185
-0.0048601617
0.0013942841
-0.0056572799
0.0014226635
-0.0061766808
0.00072627832
-0.0058582329
-0.00096264119
-0.004734296
-0.0025676738
-0.003183153
-0.0035299738
-0.0014335687
-0.0039877324
0.00031890542
-0.0039190791
0.0018579154
-0.0036186069
0.0031836055
-0.003265348
0.004482591
-0.0031070353
0.0055810485
-0.002685777
0.0063321829
-0.0020576697
0.0064571676
-0.00090276439
0.0062509472
-0.00027202539
0.0060393707
-0.00038171408
0.0059671043
-0.00076658396
0.0061105615
-0.00095131011
0.0062480475
-0.00064973525
0.0060921497
-0.00015931827
0.0056591428
0.00032729797
0.005145776
0.0008253104
0.0047127932
0.0011921765
0.0043404222
0.0014193009
0.0039852787
0.0015512396
0.0036372956
0.0016265617
0.0033044624
0.0016461819
0.00299033
0.0016169811
0.0026950354
0.0015527566
0.0024184556
0.0014630327
0.0021601399
0.0013546121
0.0019191726
0.0012348254
0.0016944353
0.0011113838
0.0014848794
0.00099111237
0.0012896899
0.00087872513
0.0011083135
0.00077633333
0.00094042995
0.00068416025
0.00078590894
0.00060123577
0.00064459456
0.00052682753
0.00051631355
0.00045995534
0.00040081424
0.00039964634
0.00029777319
0.00034509509
0.00020679922
0.00029566213
0.0001274445
0.00025084445
5.9444822e-05
0.00020987048
2.2939717e-06
0.00017247837
-4.5035979e-05
0.00013837202
-8.3582251e-05
0.00010744108
-0.00011396669
7.9388215e-05
-0.00013619837
5.4291598e-05
-0.0001501995
3.209208e-05
-0.00015558616
1.2293581e-05
-0.00015581251
-4.0772673e-06
-0.00014904878
-1.7885906e-05
-0.00013639494
-2.9275015e-05
-0.00011904718
-3.8502419e-05
-4.6986683e-05
7.9027604e-06
6.2024301e-05
1.7397157e-06
6.3215798e-05
-4.4960991e-06
6.4620376e-05
-1.0691508e-05
6.5904664e-05
-1.6865658e-05
6.7508538e-05
-2.288191e-05
6.8968565e-05
-2.8759498e-05
7.0635268e-05
-3.4415621e-05
7.2371741e-05
-3.9845655e-05
7.4160219e-05
-4.5006862e-05
7.6017175e-05
-4.9917717e-05
7.7923391e-05
-5.4589256e-05
7.9896807e-05
-5.9169522e-05
8.201869e-05
-6.373783e-05
8.4128013e-05
-6.8525645e-05
8.6515831e-05
-7.3591986e-05
8.904169e-05
-7.9223714e-05
9.2016694e-05
-8.5858309e-05
9.5495969e-05
-9.3746019e-05
9.9823282e-05
-0.00010338594
0.00010526599
-0.0001153807
0.00011196446
-0.00013010087
0.00012039209
-0.00014837983
0.00013097412
-0.00017112477
0.00014431593
-0.00019947596
0.0001608579
-0.00023460405
0.00018102723
-0.00027790125
0.00020545847
-0.00033096118
0.00023471022
-0.00039558687
0.00026934446
-0.0004737679
0.00030990559
-0.00056763652
0.0003568965
-0.00067942563
0.00041075474
-0.0008114295
0.00047187804
-0.00096599711
0.00054063709
-0.0011455876
0.00061737103
-0.00135283
0.00070252422
-0.0015906299
0.00079689764
-0.0018624603
0.00090188962
-0.0021726839
0.0010197355
-0.0025268384
0.0011539934
-0.0029336643
0.0013096814
-0.0034167824
0.0015046566
-0.004039197
0.0018046361
-0.0048580628
0.0022131509
-0.0056681971
0.0022327991
-0.0059080414
0.00096612225
-0.0052194836
-0.0016511977
-0.0039636703
-0.0038234873
-0.0021044421
-0.0053892042
-0.00043999032
-0.0056521835
0.001339565
-0.0056986361
0.0029881118
-0.0052671523
0.0046406302
-0.0049178687
0.0062135394
-0.0046799426
0.0080361557
-0.0045083929
0.0087411371
-0.0027626492
0.0089769921
-0.0011386166
0.009132595
-0.00042762259
0.0090275705
-0.00027669531
0.0087168326
-0.00045584582
0.008339088
-0.00057356744
0.0080063867
-0.000317036
0.0074282494
0.00041881289
0.0064926898
0.0012628551
0.0055176561
0.0018003413
0.0047636528
0.0019461801
0.0042855348
0.0018974217
0.0039210753
0.0019157002
0.0035719566
0.0019756772
0.0032304845
0.0019876521
0.002909409
0.001938059
0.0026124685
0.0018497006
0.0023377372
0.0017377612
0.002082778
0.0016095697
0.0018454571
0.0014721538
0.0016239256
0.0013329213
0.0014168567
0.0011981835
0.0012235585
0.0010720287
0.0010437944
0.00095609984
0.00087757946
0.00085037424
0.0007248965
0.00075391856
0.00058567265
0.00066605001
0.00045977514
0.00058585097
0.00034683622
0.00051258438
0.00024645309
0.00044547865
0.00015819011
0.00038392578
8.1650165e-05
0.00032738628
1.596441e-05
0.00027555799
-3.9289395e-05
0.00022773193
-8.456037e-05
0.00018363882
-0.00012049723
0.00014337092
-0.00014686465
0.00010575003
-0.00016453011
7.1955369e-05
-0.00017425399
4.1817966e-05
-0.00017701996
1.5064887e-05
-0.00017294052
-8.1530801e-06
-0.00016273627
-2.8087279e-05
-0.0001472061
-4.4801047e-05
-0.00012706171
-5.8644188e-05
-7.14165e-05
9.1397719e-06
6.7868101e-05
3.0605064e-06
6.9296094e-05
-3.0591183e-06
7.073738e-05
-9.216683e-06
7.205756e-05
-1.516735e-05
7.346595e-05
-2.1119239e-05
7.4908209e-05
-2.6878126e-05
7.6403846e-05
-3.2462491e-05
7.7945714e-05
-3.7803254e-05
7.9498938e-05
-4.2869667e-05
8.1090941e-05
-4.7721218e-05
8.276563e-05
-5.2337753e-05
8.4516148e-05
-5.6710071e-05
8.6396686e-05
-6.1091949e-05
8.8501787e-05
-6.5490993e-05
9.0915502e-05
-7.0171127e-05
9.3726402e-05
-7.535844e-05
9.7197327e-05
-8.1165595e-05
0.00010130094
-8.8024682e-05
0.00010668849
-9.6286301e-05
0.0001135268
-0.0001063894
0.00012206457
-0.00011892183
0.00013292972
-0.0001346451
0.00014670191
-0.00015428039
0.00016394906
-0.00017892933
0.00018550686
-0.00020972031
0.00021182271
-0.00024807131
0.00024381126
-0.00029557973
0.00028221821
-0.00035404938
0.00032781694
-0.00042547511
0.0003813348
-0.0005120156
0.00044343592
-0.00061596909
0.00051470472
-0.0007397309
0.00059563819
-0.00088572129
0.00068662774
-0.0010563397
0.00078798946
-0.0012539435
0.0009001261
-0.0014808504
0.0010238035
-0.0017396148
0.0011606572
-0.0020330939
0.0013132181
-0.0023638131
0.0014847124
-0.0027400868
0.0016859571
-0.0032053988
0.001969975
-0.0038526238
0.0024518644
-0.0046734302
0.0030339571
-0.0052922011
0.0028515718
-0.0050314015
0.0007053242
-0.0042340714
-0.002448526
-0.0030586601
-0.0049988986
-0.0017387426
-0.0067091246
-0.00018116146
-0.0072097634
0.0011744718
-0.00705427
0.0026796829
-0.0067723613
0.0046953461
-0.0069335331
0.0069666764
-0.0069512698
0.0094459447
-0.0069876608
0.011438051
-0.0047547546
0.012765373
-0.002465942
0.013281327
-0.00094357466
0.013233411
-0.00022877883
0.012535676
0.00024189147
0.011019738
0.00094237072
0.0094157806
0.0012869175
0.0082808885
0.0015537035
0.0073415469
0.0022021941
0.0062392917
0.0029025962
0.0051402907
0.0030451819
0.0043824171
0.0026552918
0.0038995008
0.0023986145
0.0035036875
0.0023714913
0.00312663
0.0023647109
0.0027797611
0.0022849265
0.0024703834
0.0021590787
0.0021927177
0.0020154308
0.0019400114
0.001862278
0.0017074654
0.0017047059
0.0014917167
0.0015486765
0.0012907872
0.0013991102
0.0011038861
0.0012589264
0.000930905
0.001129081
0.00077192388
0.001009355
0.00062680403
0.00089903951
0.00049531469
0.00079754242
0.00037696484
0.00070420264
0.00027126792
0.00061828079
0.00017773634
0.00053901059
9.5847691e-05
0.00046581592
2.5091589e-05
0.00039814337
-3.4899653e-05
0.00033554938
-8.4683235e-05
0.00027751183
-0.00012481443
0.00022376498
-0.00015550097
0.00017405163
-0.00017803719
0.0001282854
-0.0001928605
8.6781978e-05
-0.00020013211
4.9093384e-05
-0.00020000814
1.4942541e-05
-0.00019276824
-1.5394167e-05
-0.0001794132
-4.1438175e-05
-0.00016075911
-6.345165e-05
-0.00013741636
-8.1987259e-05
-9.918983e-05
1.0212171e-05
7.3676764e-05
4.1998192e-06
7.5314942e-05
-1.8438096e-06
7.6775455e-05
-7.8910504e-06
7.8111086e-05
-1.3908541e-05
7.9470647e-05
-1.9821398e-05
8.0829543e-05
-2.5542533e-05
8.2116899e-05
-3.1054171e-05
8.3454009e-05
-3.6314317e-05
8.4766378e-05
-4.1324995e-05
8.6092117e-05
-4.5989142e-05
8.7427894e-05
-5.0454744e-05
8.8986859e-05
-5.4596972e-05
9.0532531e-05
-5.8632919e-05
9.2537481e-05
-6.251006e-05
9.4798659e-05
-6.6505936e-05
9.7717237e-05
-7.0693693e-05
0.00010138062
-7.541251e-05
0.00010602573
-8.0734758e-05
0.00011201387
-8.7069597e-05
0.00011986039
-9.4897139e-05
0.00012989662
-0.00010460313
0.000142641
-0.0001168787
0.00015897605
-0.00013236314
0.00017943269
-0.00015218701
0.00020533556
-0.00017741617
0.00023705498
-0.00020944265
0.00027583603
-0.000249879
0.00032265452
-0.00030057679
0.00037851768
-0.00036360761
0.00044436578
-0.00044121285
0.00052103862
-0.00053575368
0.00060924579
-0.00064964723
0.00070953346
-0.00078529704
0.00082227616
-0.0009449879
0.00094767861
-0.0011307222
0.0010858617
-0.0013440847
0.0012371672
-0.0015861681
0.0014027406
-0.0018570083
0.0015840597
-0.0021538144
0.0017815202
-0.0024788558
0.0020110008
-0.0028686772
0.0023598013
-0.0033723026
0.0029554927
-0.0038871657
0.0035488197
-0.0040928591
0.0030572669
-0.0038349304
0.00044739696
-0.0034710157
-0.00281244
-0.0026770505
-0.0057928634
-0.0014253171
-0.0079608603
-0.00016564178
-0.0084694371
0.0010491244
-0.0082690359
0.0027474658
-0.0084707006
0.0048524126
-0.0090384816
0.0074200791
-0.0095189335
0.0098667811
-0.0094343645
0.012474565
-0.0073625368
0.014515548
-0.0045069233
0.015562664
-0.0019906907
0.01576602
-0.00043213327
0.015089707
0.00091820455
0.013314565
0.0027175134
0.011126817
0.0034746606
0.0093256976
0.0033548232
0.0080191034
0.0035087862
0.0068279203
0.0040937763
0.0056728169
0.0042002845
0.0046944407
0.0036336685
0.003987822
0.0031052302
0.003462264
0.0028970486
0.0030189376
0.002808038
0.0026350523
0.0026688146
0.0023064425
0.0024876925
0.0020215983
0.0023002755
0.0017691184
0.0021147557
0.0015411817
0.0019326448
0.0013326912
0.0017571717
0.0011407338
0.0015910686
0.00096394657
0.0014357137
0.00080184945
0.0012911776
0.00065371611
0.0011574867
0.00051916924
0.0010335864
0.00039754921
0.00091916288
0.00028820507
0.00081354537
0.00019068425
0.00071580003
0.00010442806
0.00062526744
2.8909545e-05
0.00054133544
-3.623806e-05
0.00046329112
-9.1380569e-05
0.00039069199
-0.00013694251
0.000323073
-0.00017328136
0.00026010351
-0.00020097447
0.00020174522
-0.00022016429
0.0001474781
-0.00023097459
9.759236e-05
-0.00023388698
5.2004165e-05
-0.00022960291
1.0659852e-05
-0.00021870096
-2.6294639e-05
-0.00020151248
-5.8624899e-05
-0.00017880983
-8.6152866e-05
-0.00015125454
-0.00010954046
-0.00013125254
1.1716452e-05
7.9433152e-05
5.6789779e-06
8.1351819e-05
-4.6322242e-07
8.2923076e-05
-6.5046391e-06
8.413924e-05
-1.2532029e-05
8.5505366e-05
-1.8479563e-05
8.6769882e-05
-2.4243836e-05
8.7878278e-05
-2.9722497e-05
8.8941912e-05
-3.4943797e-05
8.9981094e-05
-3.9859058e-05
9.1004823e-05
-4.4480593e-05
9.2055423e-05
-4.8628314e-05
9.3130508e-05
-5.2584397e-05
9.4488176e-05
-5.6125413e-05
9.6085697e-05
-5.9470072e-05
9.8140081e-05
-6.2556737e-05
0.0001007972
-6.566553e-05
0.00010449327
-6.8941118e-05
0.00010930617
-7.2461876e-05
0.00011553445
-7.6527471e-05
0.0001239293
-8.1472468e-05
0.00013484682
-8.7781397e-05
0.0001489489
-9.5783759e-05
0.00016697601
-0.00010622963
0.00018988192
-0.00012001175
0.00021912125
-0.00013828307
0.000255324
-0.0001623186
0.00029986827
-0.00019375004
0.00035408693
-0.00023449455
0.00041926429
-0.00028672529
0.00049659609
-0.00035282479
0.00058713782
-0.00043532169
0.00069174554
-0.00053680567
0.00081102011
-0.00065979342
0.00094526273
-0.00080654052
0.001094425
-0.00097875848
0.0012580831
-0.0011772534
0.0014356637
-0.001401363
0.0016268467
-0.0016475248
0.00183022
-0.0019069477
0.0020409462
-0.0021699192
0.0022739746
-0.002437583
0.0026274667
-0.0026948393
0.0032127503
-0.0028547054
0.0037086862
-0.0028354843
0.0030380477
-0.0028620063
0.00047391911
-0.0026058614
-0.003068587
-0.0019107156
-0.0064880094
-0.00095411569
-0.0089174612
0.00016612305
-0.0095896738
0.0016131963
-0.0097161083
0.0033344078
-0.01019191
0.0051311538
-0.01083523
0.0074295918
-0.011817368
0.0098008526
-0.011805624
0.012048436
-0.0096101233
0.014126674
-0.0065851588
0.015637803
-0.0035018205
0.015786592
-0.00058091842
0.01482141
0.0018833859
0.013228709
0.0043102167
0.011607805
0.0050955585
0.010019226
0.0049434045
0.0085841806
0.0049438306
0.0071549066
0.0055230492
0.0059833137
0.0053718733
0.0049065039
0.0047104743
0.0040318685
0.0039798617
0.0033781778
0.0035507379
0.0028723158
0.0033139009
0.0024601011
0.0030810278
0.0021185985
0.0028291945
0.0018304501
0.0025884282
0.0015809159
0.0023642938
0.0013598554
0.0021537065
0.0011608469
0.001956182
0.00098011866
0.0017717971
0.00081549002
0.0016003406
0.00066533929
0.0014413279
0.00052880708
0.0012940212
0.00040476553
0.0011576307
0.0002924323
0.0010314981
0.00019139669
0.00091458201
0.00010109778
0.00080609781
2.1201668e-05
0.00070516173
-4.8608765e-05
0.0006111421
-0.00010859293
0.00052327319
-0.00015899295
0.00044109001
-0.00020008447
0.00036416035
-0.00023210694
0.00029212062
-0.00025524481
0.00022487751
-0.00026994325
0.00016217212
-0.00027647171
0.00010411903
-0.00027517344
5.0704872e-05
-0.00026647703
1.9625557e-06
-0.00025092556
-4.1847341e-05
-0.00022911802
-8.0432846e-05
-0.00020164427
-0.00011362475
-0.00016893747
-0.00014224828
-0.00016852359
1.3155429e-05
8.522045e-05
7.1180329e-06
8.7398134e-05
9.2384396e-07
8.9103903e-05
-5.2206865e-06
9.0291797e-05
-1.1387757e-05
9.166516e-05
-1.7325573e-05
9.2704749e-05
-2.3106594e-05
9.3670011e-05
-2.8652261e-05
9.4483543e-05
-3.3878257e-05
9.5204598e-05
-3.8718157e-05
9.5851054e-05
-4.3155019e-05
9.6489572e-05
-4.7206772e-05
9.7181582e-05
-5.0747456e-05
9.8037219e-05
-5.3832784e-05
9.9170515e-05
-5.6485428e-05
0.00010078545
-5.8809964e-05
0.00010312319
-6.0659021e-05
0.00010634692
-6.2225268e-05
0.00011087209
-6.3797458e-05
0.00011710825
-6.5254688e-05
0.0001253911
-6.6882716e-05
0.00013647434
-6.9059872e-05
0.00015112275
-7.2245791e-05
0.00017016368
-7.6910442e-05
0.00019454981
-8.3477433e-05
0.00022568577
-9.3352951e-05
0.00026519472
-0.00010769192
0.00031420665
-0.00012816595
0.00037456311
-0.00015676162
0.0004478611
-0.00019578336
0.00053561889
-0.00024780979
0.00063916663
-0.00031562428
0.00075956267
-0.00040210225
0.00089750017
-0.00051006618
0.0010532279
-0.00064205933
0.0012264187
-0.00079991298
0.0014159376
-0.00098420795
0.0016199576
-0.0011932631
0.0018358972
-0.0014209797
0.0020579346
-0.0016542962
0.0022742659
-0.0018731959
0.002492876
-0.0020463094
0.0028005794
-0.0021099854
0.0032764265
-0.0019982057
0.0035969065
-0.001802126
0.0028419687
-0.0017282176
0.00040001009
-0.0014478704
-0.003348937
-0.00094652391
-0.0069893557
-0.0002413318
-0.0096226537
0.00093097061
-0.010761977
0.0026423429
-0.011427481
0.0043731269
-0.011922693
0.0057856188
-0.01224772
0.0069983819
-0.013030128
0.0085481761
-0.013355413
0.010786038
-0.011847989
0.012697814
-0.008496937
0.013766485
-0.0045704934
0.014665383
-0.0014798144
0.014390326
0.0021584438
0.013238583
0.0054619618
0.011629018
0.0067051202
0.0099827387
0.0065896858
0.0083128872
0.0066136825
0.0069742458
0.0068616847
0.0058094515
0.006536665
0.0047483663
0.0057715577
0.0038324297
0.004895799
0.003145265
0.0042379008
0.0026313678
0.003827797
0.0022218449
0.0034905549
0.0018868525
0.003164189
0.0016078907
0.0028673876
0.0013694508
0.0026027313
0.0011605907
0.0023625645
0.00097473367
0.0021420381
0.00080748865
0.001939043
0.00065600168
0.0017518282
0.0005182539
0.0015790763
0.00039303789
0.0014192393
0.0002790735
0.0012715973
0.00017581919
0.001134753
8.2932086e-05
0.0010074677
1.3293794e-09
0.00088902568
-7.3266447e-05
0.00077842966
-0.00013691053
0.00067478928
-0.00019119367
0.0005775601
-0.00023626382
0.00048616155
-0.00027224839
0.00040014257
-0.00029939269
0.00031926217
-0.0003178519
0.00024333625
-0.00032790425
0.00017222585
-0.00032977
0.00010598378
-0.00032369036
4.462451e-05
-0.00031011979
-1.1606624e-05
-0.00028948948
-6.2477375e-05
-0.00026229627
-0.00010762981
-0.00022931119
-0.00014660781
-0.00019055242
-0.00018100527
-0.00021185168
1.4826894e-05
9.1088479e-05
8.6488035e-06
9.3565707e-05
2.3561772e-06
9.5405715e-05
-3.9988983e-06
9.6638658e-05
-1.0240785e-05
9.790427e-05
-1.6367708e-05
9.8842583e-05
-2.2258495e-05
9.955867e-05
-2.7898666e-05
0.00010012265
-3.3153576e-05
0.00010046655
-3.800208e-05
0.00010069715
-4.234858e-05
0.00010083388
-4.6125066e-05
0.00010096584
-4.9334665e-05
0.00010124815
-5.1936483e-05
0.00010176558
-5.3866562e-05
0.00010271567
-5.5071546e-05
0.00010433233
-5.5652845e-05
0.00010692734
-5.5532344e-05
0.00011075139
-5.4784617e-05
0.00011636457
-5.3410471e-05
0.00012401777
-5.1585608e-05
0.00013464659
-4.9319601e-05
0.00014885785
-4.69153e-05
0.00016776318
-4.4843536e-05
0.00019247665
-4.3517368e-05
0.00022435435
-4.3787384e-05
0.00026546348
-4.6783277e-05
0.0003172055
-5.4345016e-05
0.00038212627
-6.852432e-05
0.0004620401
-9.1817278e-05
0.00055891388
-0.00012706952
0.00067442215
-0.00017744643
0.00080994046
-0.0002462678
0.00096632191
-0.00033685003
0.0011438122
-0.00045244197
0.0013420108
-0.00059560384
0.0015590959
-0.00076776019
0.0017921103
-0.00096794066
0.0020360754
-0.0011899072
0.0022799005
-0.0014199394
0.0025043004
-0.0016364533
0.0027093913
-0.0018009648
0.0029650905
-0.0018372302
0.0033126924
-0.0016682927
0.0034279677
-0.001339126
0.0025127996
-0.0009740382
3.4920188e-05
-0.00048117084
-0.0038418059
0.00013259661
-0.0076031221
0.00084968513
-0.01033974
0.0020254462
-0.011937739
0.0035861142
-0.012988148
0.0051773008
-0.01351388
0.0060746103
-0.013145029
0.0069306731
-0.013886194
0.008450176
-0.014874915
0.0100754
-0.013473211
0.011597954
-0.01001949
0.012779045
-0.0057515834
0.012985058
-0.0016858275
0.012634889
0.0025086132
0.011740409
0.0063564421
0.010293812
0.0081517158
0.0088689913
0.0080145053
0.0073784955
0.0081041809
0.0061400534
0.0081001266
0.0050804264
0.0075962904
0.004090061
0.0067619223
0.0032948051
0.0056910536
0.0027134317
0.0048192686
0.0022663904
0.0042748342
0.0019008116
0.0038561356
0.0015985354
0.0034664688
0.0013455907
0.0031203372
0.0011289368
0.0028193887
0.00093942833
0.00255207
0.00077114047
0.0023103209
0.00061988485
0.0020902971
0.00048312632
0.001888587
0.00035856774
0.0017036362
0.00024507405
0.0015327358
0.00014174952
0.0013749233
4.8275152e-05
0.0012282254
-3.5974425e-05
0.0010917139
-0.00011107734
0.00096412803
-0.00017715951
0.00084451188
-0.00023434445
0.00073197424
-0.00028267402
0.00062588765
-0.00032220285
0.00052568692
-0.00035301317
0.00043095109
-0.00037520302
0.00034145363
-0.00038880258
0.00025693634
-0.00039399225
0.00017741496
-0.00039087212
0.00010286335
-0.00037971581
3.3466126e-05
-0.0003607936
-3.0534561e-05
-0.00033447266
-8.880153e-05
-0.00030133332
-0.00014076723
-0.0002620788
-0.00018585958
-0.0002164139
-0.00022667061
-0.00026208847
1.6653028e-05
9.7102153e-05
1.031719e-05
9.9913748e-05
3.8082151e-06
0.00010190445
-2.7517103e-06
0.00010319554
-9.2116616e-06
0.00010437401
-1.5582124e-05
0.00010520963
-2.174205e-05
0.00010571786
-2.7529161e-05
0.0001059176
-3.2868364e-05
0.00010580369
-3.7757896e-05
0.00010558299
-4.204648e-05
0.00010512858
-4.5682087e-05
0.00010460312
-4.8535529e-05
0.00010409526
-5.060036e-05
0.00010383003
-5.1788635e-05
0.00010390819
-5.2061705e-05
0.00010460449
-5.1223526e-05
0.00010608766
-4.9395893e-05
0.00010892739
-4.6300681e-05
0.00011327194
-4.2045683e-05
0.0001197615
-3.6433602e-05
0.00012903586
-2.9470745e-05
0.00014189967
-2.1261932e-05
0.0001595552
-1.1583053e-05
0.00018279404
-1.1326957e-06
0.00021390253
9.8212242e-06
0.00025451222
1.9173151e-05
0.0003078554
2.6359223e-05
0.00037493894
2.8938324e-05
0.00045946008
2.4137553e-05
0.00056371637
8.7176177e-06
0.00068984366
-2.1015136e-05
0.00083967182
-6.9014766e-05
0.0010143196
-0.00013920606
0.0012140038
-0.0002362267
0.0014390307
-0.00036397663
0.0016868413
-0.00052588758
0.0019540182
-0.00072380719
0.0022339959
-0.0009536817
0.0025097759
-0.0012056324
0.0027562521
-0.0014691346
0.0029728943
-0.0017256999
0.0032216559
-0.0019090814
0.0034960755
-0.001889084
0.00340797
-0.0015467562
0.0021704692
-0.00076201057
-0.00074982857
0.00011282064
-0.004716639
0.0010098864
-0.0085001887
0.0020136218
-0.011343473
0.0031338482
-0.013057967
0.0041499324
-0.014004231
0.0050269038
-0.014390852
0.0060396013
-0.014157727
0.0067203218
-0.014566915
0.0074395482
-0.015594146
0.0084252788
-0.014458943
0.0095646595
-0.011158873
0.010487362
-0.0066742816
0.010845672
-0.0020441389
0.010583747
0.0027705439
0.0098201671
0.0071200214
0.0085256641
0.009446218
0.0071563258
0.009383849
0.0060344536
0.0092260547
0.0049037601
0.0092308237
0.0038601887
0.008639858
0.0030438216
0.0075782854
0.0025063379
0.006228538
0.0021206909
0.0052049131
0.0017909459
0.0046045749
0.0015029449
0.0041441356
0.0012565292
0.0037128866
0.0010449125
0.0033319574
0.00086009919
0.0030042055
0.00069659973
0.0027155703
0.00055015362
0.0024567656
0.00041785898
0.0022225907
0.0002972321
0.002009213
0.00018733876
0.001813529
8.664604e-05
0.0016334282
-5.1431742e-06
0.0014667116
-8.8631177e-05
0.0013117141
-0.00016385981
0.0011669439
-0.00023090389
0.0010311743
-0.00028976477
0.000903374
-0.00034042638
0.00078263567
-0.00038280347
0.00066826509
-0.00041682832
0.00055971289
-0.00044245369
0.00045657546
-0.00045957709
0.00035857448
-0.00046819157
0.00026555166
-0.00046839075
0.00017761344
-0.00046005654
9.4526894e-05
-0.00044344678
1.6855502e-05
-0.0004187855
-5.5198673e-05
-0.00038628811
-0.00012130266
-0.00034663173
-0.00018042375
-0.00030031896
-0.00023217022
-0.00024693141
-0.00028005753
-0.0003201088
1.8707775e-05
0.00010333186
1.2112286e-05
0.00010649905
5.3087224e-06
0.00010870661
-1.6209054e-06
0.00011013324
-8.3521939e-06
0.00011109972
-1.5013041e-05
0.00011186883
-2.1403267e-05
0.00011211545
-2.7458292e-05
0.00011197049
-3.3099506e-05
0.00011144045
-3.8088785e-05
0.00011057693
-4.242512e-05
0.00010946607
-4.5927607e-05
0.00010809931
-4.8565105e-05
0.00010673226
-5.0167548e-05
0.0001054372
-5.0683337e-05
0.00010442353
-4.9961434e-05
0.00010388046
-4.7970421e-05
0.00010410008
-4.4288278e-05
0.00010524933
-3.9022864e-05
0.00010800666
-3.1823775e-05
0.0001125638
-2.2475492e-05
0.00011969251
-1.0636336e-05
0.00013006293
4.2615167e-06
0.00014465534
2.1340158e-05
0.00016571473
4.1079525e-05
0.0001941657
6.3256352e-05
0.00023233609
8.7337138e-05
0.00028377171
0.00011160911
0.00035066476
0.0001337897
0.00043727986
0.00015065176
0.00054685426
0.00015835361
0.00068213967
0.00015286662
0.0008451561
0.00012963714
0.0010375471
8.3162923e-05
0.001260477
8.8477192e-06
0.0015133451
-0.00010065254
0.0017963394
-0.00025108295
0.0021044476
-0.00045014518
0.0024330607
-0.00069716054
0.0027567929
-0.00099050541
0.0030495968
-0.0013454659
0.0033278553
-0.0017788306
0.0036550204
-0.0021976485
0.0039148938
-0.0023246744
0.0035349954
-0.0018928394
0.0017386336
-0.0010304576
-0.0016122109
-5.1624085e-05
-0.0056954712
0.0011375751
-0.0096893884
0.0026129839
-0.012818883
0.0039401251
-0.014385113
0.0046300076
-0.014694116
0.004831226
-0.014592067
0.005181102
-0.014507606
0.0056415885
-0.015027401
0.0061048472
-0.016057407
0.0065445214
-0.014898615
0.0071469442
-0.011761298
0.0076239557
-0.0071512873
0.0079272675
-0.0023474523
0.0081034673
0.0025943435
0.0081488409
0.0070746513
0.007369973
0.010225085
0.0060114362
0.010742391
0.0047533438
0.010484149
0.0035090053
0.010475161
0.0024574294
0.0096914325
0.0018979309
0.0081377846
0.0016476955
0.0064787727
0.0014562628
0.0053963431
0.0012510308
0.0048098038
0.0010542335
0.0043409282
0.00087631809
0.0038907987
0.00071531166
0.0034929645
0.00056890695
0.0031506133
0.00043608698
0.0028483935
0.00031507319
0.0025777825
0.0002039559
0.0023337115
0.00010153501
0.002111637
6.9305215e-06
0.0019081354
-8.0329324e-05
0.0017206892
-0.00016052459
0.0015469084
-0.00023370267
0.0013848931
-0.00029984885
0.0012330904
-0.00035887652
0.0010902026
-0.00041060153
0.00095510141
-0.0004548307
0.0008268656
-0.00049136975
0.00070480218
-0.00051994579
0.0005882856
-0.00054039459
0.0004770244
-0.00055250309
0.0003706852
-0.00055613904
0.00026918864
-0.00055110485
0.00017257562
-0.00053747271
8.0886807e-05
-0.00051518319
-5.4376946e-06
-0.00048438155
-8.6003684e-05
-0.00044533337
-0.0001603487
-0.00039862443
-0.0002271303
-0.00034446678
-0.00028632632
-0.00028248806
-0.0003420376
-0.00038684981
2.1003001e-05
0.00010983907
1.4087773e-05
0.0001134166
6.9247641e-06
0.00011587804
-2.7130441e-07
0.00011732101
-7.534499e-06
0.00011836144
-1.4677313e-05
0.00011901842
-2.1567079e-05
0.00011900252
-2.8004182e-05
0.00011840338
-3.3886012e-05
0.00011732669
-3.9105849e-05
0.00011579751
-4.351954e-05
0.0001138733
-4.7072023e-05
0.00011165129
-4.9546605e-05
0.00010921219
-5.0791651e-05
0.00010668249
-5.0749796e-05
0.00010437925
-4.9193714e-05
0.00010232755
-4.5971295e-05
0.00010088282
-4.092662e-05
0.00010020571
-3.3475878e-05
0.00010055636
-2.3505283e-05
0.00010259665
-1.0465642e-05
0.00010665526
6.005811e-06
0.00011359027
2.6013872e-05
0.0001246468
5.0977779e-05
0.00014075319
8.0982962e-05
0.00016416098
0.00011601966
0.00019729515
0.00015620869
0.00024357846
0.00019967222
0.00030720127
0.00024419259
0.00039276047
0.00028639937
0.00050464464
0.00032177696
0.00064675755
0.00034528062
0.00082165123
0.00035156319
0.0010312657
0.00033482021
0.0012772196
0.00028651815
0.0015616461
0.00020028006
0.0018825773
6.29473e-05
0.0022417802
-0.00013045808
0.002626467
-0.00039446432
0.0030207996
-0.00074185738
0.0033969897
-0.0012294722
0.0038154721
-0.0018846984
0.0043102478
-0.0025161162
0.0045463106
-0.0027573088
0.0037761846
-0.0025126251
0.0014939487
-0.0020108871
-0.002113949
-0.0011161028
-0.0065902554
0.00033900962
-0.011144502
0.0023274717
-0.014807347
0.0041436158
-0.016201258
0.0049595756
-0.015510079
0.004794672
-0.014427161
0.0045931572
-0.014306093
0.004699431
-0.015133678
0.0047270512
-0.016085031
0.0047244134
-0.014895976
0.0046364736
-0.011673355
0.0044538902
-0.0069687059
0.0044432827
-0.0023368439
0.0047739894
0.0022636385
0.005163205
0.0066854357
0.0053706973
0.010017594
0.0044348487
0.011678239
0.0030726625
0.011846339
0.0018757358
0.011672087
0.0010977304
0.010469434
0.000852962
0.0083825509
0.00084565096
0.0064860813
0.00079773375
0.0054442588
0.00069598382
0.0049115528
0.00058663737
0.0044502739
0.00047788547
0.0039995515
0.00036845008
0.0036023994
0.00026336358
0.003255697
0.00016422391
0.0029475314
7.0204342e-05
0.0026718018
-1.850791e-05
0.0024224227
-0.00010223674
0.0021953644
-0.00018100669
0.0019869053
-0.00025461747
0.0017942975
-0.0003229535
0.0016152395
-0.00038585253
0.0014477872
-0.00044304901
0.0012902853
-0.00049419261
0.0011413492
-0.00053895559
0.00099986486
-0.00057696667
0.00086487069
-0.00060780933
0.00073564
-0.00063113167
0.00061160638
-0.0006466314
0.00049252065
-0.00065386334
0.00037791178
-0.0006525391
0.00026786164
-0.00064255551
0.00016259205
-0.00062345087
6.1780298e-05
-0.00059531355
-3.3576351e-05
-0.00055812495
-0.00012319217
-0.00051211544
-0.00020635362
-0.00045778069
-0.00028146472
-0.00039501495
-0.0003490923
-0.00032361696
-0.00041343766
-0.0004631326
2.3587616e-05
0.0001167175
1.6255239e-05
0.00012075862
8.6052759e-06
0.00012352026
8.498987e-07
0.00012507583
-6.9433265e-06
0.00012616121
-1.4605063e-05
0.00012667702
-2.2026338e-05
0.00012642067
-2.896292e-05
0.0001253454
-3.5343984e-05
0.00012370879
-4.0953105e-05
0.0001214003
-4.5541508e-05
0.00011846131
-4.9143013e-05
0.00011525855
-5.163466e-05
0.00011170462
-5.2727152e-05
0.00010777239
-5.2267059e-05
0.00010392194
-5.0078425e-05
0.00010014467
-4.5833525e-05
9.6639746e-05
-3.9283091e-05
9.3654875e-05
-3.0280934e-05
9.1555453e-05
-1.8156888e-05
9.0473207e-05
-2.3346462e-06
9.0831169e-05
1.7920835e-05
9.3334237e-05
4.3702113e-05
9.8867835e-05
7.5842336e-05
0.00010861337
0.00011559683
0.0001244022
0.00016386793
0.00014901954
0.00022089472
0.00018655139
0.00028611894
0.00024197861
0.0003569427
0.00032193549
0.00042892708
0.00043265649
0.00049667329
0.00057900904
0.00055431777
0.0007640081
0.00059554254
0.00099004347
0.00061369376
0.0012590682
0.00060222013
0.0015731185
0.00054897052
0.0019358274
0.00044002614
0.0023507239
0.00025437404
0.002812117
-2.0494492e-05
0.0032956668
-0.00043482848
0.0038113236
-0.0010704137
0.0044510593
-0.0019014699
0.0051413049
-0.0026741348
0.0053189747
-0.0031801279
0.0042821747
-0.0034874227
0.0018012418
-0.003282517
-0.0023188556
-0.0022662204
-0.0076065572
-0.00057291637
-0.012837808
0.0016716197
-0.017051884
0.0038550616
-0.018384698
0.0049539109
-0.016608928
0.0046716495
-0.014144902
0.0040764239
-0.013710865
0.0038301248
-0.01488738
0.0031463502
-0.015401254
0.0026033304
-0.014352963
0.0020101114
-0.011080133
0.0012734575
-0.0062320531
0.00074049608
-0.0018038882
0.0010071097
0.001997029
0.0016152562
0.0060772909
0.0020484157
0.009584431
0.0019410627
0.011785592
0.0010203393
0.012767064
0.00010606572
0.01258636
-0.00017873987
0.010754241
-5.7742196e-05
0.0082615539