/*--------------------------------*- C++ -*----------------------------------*\
  =========                 |
  \\      /  F ield         | OpenFOAM: The Open Source CFD Toolbox
   \\    /   O peration     | Website:  https://openfoam.org
    \\  /    A nd           | Version:  9
     \\/     M anipulation  |
\*---------------------------------------------------------------------------*/
FoamFile
{
    format      ascii;
    class       volVectorField;
    location    "0.93";
    object      U;
}
// * * * * * * * * * * * * * * * * * * * * * * * * * * * * * * * * * * * * * //

dimensions      [0 1 -1 0 0 0 0];

internalField   nonuniform List<vector> 
10000
(
(0.001158742 0.0051928591 0)
(0.00025587101 0.0052777248 0)
(-0.00017215852 0.0053971711 0)
(-0.0011057352 0.0055269573 0)
(-0.0015000335 0.005678118 0)
(-0.002278484 0.0058393195 0)
(-0.0028483813 0.0060157807 0)
(-0.0034388261 0.0062030677 0)
(-0.0040018953 0.0063974484 0)
(-0.0045324227 0.0065940963 0)
(-0.0050354789 0.0067891727 0)
(-0.0055122103 0.0069840443 0)
(-0.0059602704 0.0071673594 0)
(-0.0063997035 0.0073326782 0)
(-0.0068480145 0.0074822807 0)
(-0.0073270443 0.0076168654 0)
(-0.0078465885 0.0077314306 0)
(-0.0084955242 0.0078337598 0)
(-0.009307588 0.0079671772 0)
(-0.010245574 0.0081289195 0)
(-0.011423529 0.008317398 0)
(-0.012903324 0.0085934398 0)
(-0.014729631 0.008946002 0)
(-0.017032195 0.0094139663 0)
(-0.019858399 0.010008118 0)
(-0.023310288 0.010753207 0)
(-0.027553277 0.011672244 0)
(-0.032727981 0.012783045 0)
(-0.039007581 0.014102476 0)
(-0.046581704 0.015652071 0)
(-0.055651212 0.017460664 0)
(-0.066432598 0.019559722 0)
(-0.079158263 0.021981171 0)
(-0.094058382 0.024749583 0)
(-0.11136917 0.027871767 0)
(-0.1313623 0.031348749 0)
(-0.15435537 0.035193935 0)
(-0.18070276 0.03943756 0)
(-0.21079845 0.044138752 0)
(-0.24526236 0.04940136 0)
(-0.28497352 0.055260836 0)
(-0.33018283 0.061794161 0)
(-0.38149248 0.070125904 0)
(-0.44580798 0.079576739 0)
(-0.5315689 0.075970086 0)
(-0.61306563 0.030066154 0)
(-0.62288713 -0.071039453 0)
(-0.53750723 -0.17131303 0)
(-0.39481307 -0.2403235 0)
(-0.22771624 -0.27395674 0)
(-0.055505102 -0.26636911 0)
(0.11462522 -0.25650762 0)
(0.25447206 -0.23708443 0)
(0.38425434 -0.22346706 0)
(0.50782119 -0.19466777 0)
(0.60233864 -0.16273587 0)
(0.64518243 -0.09349383 0)
(0.63834914 -0.051656394 0)
(0.6134274 -0.067744633 0)
(0.59861746 -0.098866903 0)
(0.60380556 -0.095536267 0)
(0.62368567 -0.059101627 0)
(0.62670805 -0.036699381 0)
(0.59319733 -0.011701985 0)
(0.53832469 0.035145471 0)
(0.48977022 0.082279114 0)
(0.45195121 0.11215891 0)
(0.41618406 0.12743684 0)
(0.38056665 0.13585171 0)
(0.34631532 0.13925743 0)
(0.31392477 0.13796529 0)
(0.28346339 0.13308971 0)
(0.25491106 0.12557562 0)
(0.22822259 0.11608796 0)
(0.20332273 0.10534021 0)
(0.18009958 0.094108265 0)
(0.15843584 0.0831014 0)
(0.13823805 0.072827903 0)
(0.119438 0.063531679 0)
(0.10200975 0.055259046 0)
(0.085919102 0.04792987 0)
(0.07113584 0.041467478 0)
(0.057675674 0.03577035 0)
(0.04551587 0.030731545 0)
(0.034622405 0.026261647 0)
(0.024945825 0.02228884 0)
(0.016448336 0.018756253 0)
(0.0091017212 0.01559637 0)
(0.002881171 0.012769022 0)
(-0.0023031665 0.010184025 0)
(-0.0065704557 0.0078257176 0)
(-0.010009454 0.0056946634 0)
(-0.012644918 0.0038517641 0)
(-0.014448021 0.0022916261 0)
(-0.015430391 0.00097672214 0)
(-0.015696323 -0.00019097842 0)
(-0.015172456 -0.0011231543 0)
(-0.014410306 -0.0018628298 0)
(-0.013647824 -0.0024520004 0)
(-0.0093140041 -0.0029829822 0)
(0.0012375386 0.0061353776 0)
(0.00040322803 0.0062579655 0)
(7.583134e-06 0.0064140714 0)
(-0.00089777695 0.0065589895 0)
(-0.0012685645 0.0067439111 0)
(-0.0020254534 0.0069206222 0)
(-0.00257303 0.0071202788 0)
(-0.0031479182 0.0073302135 0)
(-0.0037016758 0.0075486772 0)
(-0.0042290731 0.0077757642 0)
(-0.0047289079 0.0080049221 0)
(-0.0052086561 0.0082433666 0)
(-0.0056723334 0.008484048 0)
(-0.0061279437 0.0087167354 0)
(-0.0065866405 0.0089671839 0)
(-0.0070772121 0.0092150464 0)
(-0.0076043579 0.0094848793 0)
(-0.0082101654 0.0097887489 0)
(-0.008939116 0.01017011 0)
(-0.0098004402 0.010648359 0)
(-0.010849605 0.01123357 0)
(-0.012161445 0.011983591 0)
(-0.013800291 0.012917471 0)
(-0.015876869 0.014097953 0)
(-0.018451503 0.015549918 0)
(-0.021610502 0.017316063 0)
(-0.025519257 0.019447086 0)
(-0.030318807 0.021989288 0)
(-0.036181901 0.024987786 0)
(-0.043298853 0.02848635 0)
(-0.051875919 0.032524596 0)
(-0.062133051 0.037134022 0)
(-0.074298745 0.042344429 0)
(-0.0886036 0.048190047 0)
(-0.10528266 0.054706564 0)
(-0.12458437 0.061941601 0)
(-0.14678584 0.069974518 0)
(-0.17219023 0.078927679 0)
(-0.2011102 0.088992801 0)
(-0.23414127 0.10049345 0)
(-0.27222448 0.1137109 0)
(-0.31536208 0.12918313 0)
(-0.36633607 0.15077975 0)
(-0.43982269 0.18095406 0)
(-0.53867613 0.18911679 0)
(-0.60854139 0.098673344 0)
(-0.57845143 -0.12455692 0)
(-0.45860494 -0.33155194 0)
(-0.3025641 -0.46253623 0)
(-0.12417259 -0.49702867 0)
(0.043211551 -0.50062316 0)
(0.2153284 -0.45069303 0)
(0.38137138 -0.40293885 0)
(0.5421617 -0.37226864 0)
(0.71989728 -0.33426508 0)
(0.85446067 -0.20822413 0)
(0.89152988 -0.074852029 0)
(0.90238717 -0.016674705 0)
(0.9145265 -0.024962629 0)
(0.89908346 -0.074137525 0)
(0.85415954 -0.11114313 0)
(0.81599161 -0.078029821 0)
(0.78471875 0.0055738445 0)
(0.70536246 0.082693634 0)
(0.59371411 0.12695989 0)
(0.50469207 0.14862724 0)
(0.44813861 0.16130959 0)
(0.40940481 0.17192684 0)
(0.37456628 0.17852213 0)
(0.33961213 0.17932792 0)
(0.30616346 0.17526828 0)
(0.27528463 0.1678676 0)
(0.24679387 0.1580558 0)
(0.22038053 0.14650176 0)
(0.19583057 0.13393381 0)
(0.17294397 0.12110214 0)
(0.15155355 0.10865377 0)
(0.13155967 0.097020594 0)
(0.1129221 0.086381896 0)
(0.095640567 0.076740854 0)
(0.07971121 0.067989358 0)
(0.065131702 0.060054979 0)
(0.05189844 0.052841539 0)
(0.039980656 0.046260974 0)
(0.029343982 0.040236488 0)
(0.019940535 0.034708193 0)
(0.011713615 0.029627504 0)
(0.0046301162 0.024941946 0)
(-0.0013751229 0.020607605 0)
(-0.0063822181 0.016561044 0)
(-0.010429401 0.012811857 0)
(-0.013530052 0.0093972681 0)
(-0.015708485 0.0063444302 0)
(-0.017055338 0.0036414942 0)
(-0.017696494 0.0012480029 0)
(-0.017613447 -0.00089421427 0)
(-0.016711768 -0.0026698755 0)
(-0.01563772 -0.0041296498 0)
(-0.014611825 -0.0053226491 0)
(-0.0099059429 -0.0064257772 0)
(0.0013348024 0.0063005135 0)
(0.00054800471 0.0064264342 0)
(0.00014193915 0.0065640566 0)
(-0.00075021683 0.0066876888 0)
(-0.0011068079 0.0068346797 0)
(-0.0018580861 0.0069720018 0)
(-0.0023894654 0.0071244977 0)
(-0.0029571385 0.0072815976 0)
(-0.0035002815 0.0074425882 0)
(-0.0040190392 0.0076094321 0)
(-0.0045105544 0.0077854096 0)
(-0.0049753832 0.0079654056 0)
(-0.0054311704 0.0081666536 0)
(-0.0058630753 0.0083754834 0)
(-0.0062987735 0.0086200716 0)
(-0.0067618691 0.0088894195 0)
(-0.0072303376 0.0092202929 0)
(-0.0077706998 0.009610335 0)
(-0.0084101742 0.010106875 0)
(-0.0091474244 0.01073258 0)
(-0.010053187 0.011507807 0)
(-0.0111819 0.012482521 0)
(-0.012571759 0.013711833 0)
(-0.014348381 0.0152553 0)
(-0.016579258 0.017175343 0)
(-0.019336109 0.019518694 0)
(-0.022779267 0.022363381 0)
(-0.027052749 0.025775828 0)
(-0.032329696 0.029823023 0)
(-0.038800181 0.034568774 0)
(-0.046671814 0.040072497 0)
(-0.056168994 0.046387433 0)
(-0.067527724 0.053559155 0)
(-0.08098982 0.061624722 0)
(-0.096795041 0.070616937 0)
(-0.11517431 0.08058026 0)
(-0.13636373 0.091599017 0)
(-0.1606047 0.10383347 0)
(-0.1880592 0.11754931 0)
(-0.21906853 0.1331418 0)
(-0.25450534 0.15129087 0)
(-0.2943607 0.1751354 0)
(-0.34312406 0.21439498 0)
(-0.42187238 0.2662625 0)
(-0.52266704 0.25890688 0)
(-0.55146519 0.080431648 0)
(-0.46577786 -0.21846895 0)
(-0.35943048 -0.45236304 0)
(-0.24396996 -0.61055645 0)
(-0.088294485 -0.65119943 0)
(0.047949318 -0.64466686 0)
(0.18458772 -0.59950928 0)
(0.36258438 -0.5778518 0)
(0.57966991 -0.56029455 0)
(0.82103406 -0.55519021 0)
(1.0511227 -0.34970625 0)
(1.2231078 -0.14476085 0)
(1.3163388 -0.048081604 0)
(1.3435891 -0.014999672 0)
(1.3125965 0.0045380151 0)
(1.1983393 0.020693106 0)
(1.0156527 0.024530427 0)
(0.8691572 0.075700322 0)
(0.78366537 0.16988604 0)
(0.6844958 0.23796062 0)
(0.56189343 0.24697546 0)
(0.46564764 0.22207185 0)
(0.40969932 0.21305886 0)
(0.36967523 0.21756813 0)
(0.33093593 0.21868089 0)
(0.29414558 0.21243407 0)
(0.26141465 0.20190861 0)
(0.23230307 0.18922951 0)
(0.2059357 0.17517658 0)
(0.18177459 0.16039961 0)
(0.1594307 0.14559262 0)
(0.13863444 0.13132683 0)
(0.11925941 0.11795216 0)
(0.10127904 0.105592 0)
(0.08469553 0.094221485 0)
(0.069507526 0.083753565 0)
(0.055702408 0.074131798 0)
(0.043239388 0.065280268 0)
(0.032065533 0.05713821 0)
(0.022131728 0.049644063 0)
(0.013389258 0.042749404 0)
(0.0057848405 0.036404792 0)
(-0.00072394413 0.030575526 0)
(-0.0061912446 0.025209652 0)
(-0.010664776 0.020299525 0)
(-0.014180173 0.01583161 0)
(-0.016825613 0.01177793 0)
(-0.018678051 0.0080838992 0)
(-0.019768426 0.0047291817 0)
(-0.020144183 0.0017161213 0)
(-0.019747425 -0.00094345703 0)
(-0.018537608 -0.0032473388 0)
(-0.017156609 -0.0051813809 0)
(-0.015840362 -0.0067981876 0)
(-0.010684328 -0.008296439 0)
(0.0014263194 0.0071588183 0)
(0.00066746323 0.0073153726 0)
(0.00026336975 0.0074555274 0)
(-0.00063001937 0.0075858371 0)
(-0.00098909872 0.0077162967 0)
(-0.0017316841 0.007850139 0)
(-0.0022566509 0.0079821093 0)
(-0.0028193129 0.0081198801 0)
(-0.0033583053 0.0082556975 0)
(-0.0038659821 0.0083927281 0)
(-0.004348802 0.0085366784 0)
(-0.0047979018 0.0086932864 0)
(-0.0052272146 0.0088594471 0)
(-0.0056341561 0.0090592462 0)
(-0.0060277569 0.0092836681 0)
(-0.006427947 0.0095668826 0)
(-0.0068303926 0.0099209834 0)
(-0.0072669105 0.010351672 0)
(-0.0077576108 0.010922101 0)
(-0.0083376556 0.011657794 0)
(-0.0090361014 0.01258226 0)
(-0.0098944453 0.013766163 0)
(-0.010965912 0.015274452 0)
(-0.012354687 0.017159588 0)
(-0.014137788 0.01953124 0)
(-0.016379797 0.022429723 0)
(-0.019226599 0.025961858 0)
(-0.022828576 0.03021284 0)
(-0.02736053 0.035271691 0)
(-0.033020007 0.041221122 0)
(-0.040023335 0.048135793 0)
(-0.048602424 0.056080828 0)
(-0.058998074 0.065110176 0)
(-0.071452822 0.07526512 0)
(-0.086201959 0.086576924 0)
(-0.10345625 0.099078139 0)
(-0.12339886 0.11283307 0)
(-0.14618519 0.12799371 0)
(-0.17176881 0.14478804 0)
(-0.19998847 0.16343717 0)
(-0.23122461 0.1853008 0)
(-0.26498501 0.21765947 0)
(-0.30346338 0.27349626 0)
(-0.36226703 0.33447201 0)
(-0.42618941 0.29717816 0)
(-0.4185463 0.052911642 0)
(-0.36131803 -0.27398164 0)
(-0.31361891 -0.55031264 0)
(-0.20281857 -0.74544729 0)
(-0.076555517 -0.79569759 0)
(0.039700429 -0.7656199 0)
(0.18237117 -0.76168299 0)
(0.3724054 -0.80182295 0)
(0.60810278 -0.83099231 0)
(0.86305056 -0.82768955 0)
(1.1170063 -0.61139527 0)
(1.3578974 -0.34596128 0)
(1.5276109 -0.13418396 0)
(1.5876034 -0.032842118 0)
(1.5666675 0.041718073 0)
(1.4540714 0.17416657 0)
(1.2311409 0.24036675 0)
(0.99972415 0.24303 0)
(0.854705 0.27874317 0)
(0.74713175 0.34650866 0)
(0.62398328 0.36046026 0)
(0.50887698 0.31073694 0)
(0.42628261 0.27003713 0)
(0.36942482 0.26031443 0)
(0.32254478 0.25759204 0)
(0.28100511 0.24756412 0)
(0.2455948 0.23260127 0)
(0.21533106 0.21625343 0)
(0.1887149 0.19941129 0)
(0.16484412 0.18244205 0)
(0.14311984 0.16583749 0)
(0.1231481 0.15000115 0)
(0.10474044 0.13515717 0)
(0.087819191 0.12136015 0)
(0.072332034 0.10859663 0)
(0.058229086 0.096795534 0)
(0.045453933 0.085914626 0)
(0.033938569 0.075892954 0)
(0.023621324 0.066654018 0)
(0.014454958 0.058135291 0)
(0.0063924437 0.050280559 0)
(-0.00061637132 0.043021971 0)
(-0.0066070952 0.036309012 0)
(-0.011618795 0.030086266 0)
(-0.015694234 0.024312486 0)
(-0.018882111 0.01894141 0)
(-0.021213022 0.013941979 0)
(-0.022696149 0.0093339986 0)
(-0.023370546 0.0051441556 0)
(-0.023317966 0.0013847376 0)
(-0.022522305 -0.0019490529 0)
(-0.020939415 -0.0048664266 0)
(-0.019171132 -0.0073351497 0)
(-0.01747633 -0.0094256109 0)
(-0.011732018 -0.01136441 0)
(0.0015554868 0.0076662892 0)
(0.00083391778 0.007850319 0)
(0.00041120461 0.00800667 0)
(-0.0004930055 0.0081417784 0)
(-0.00085178864 0.0082778243 0)
(-0.0015952624 0.0084136853 0)
(-0.0021223214 0.0085354327 0)
(-0.0026830846 0.0086564378 0)
(-0.0032230028 0.0087741507 0)
(-0.0037297638 0.0088925306 0)
(-0.0041969454 0.0090109036 0)
(-0.0046340858 0.0091445993 0)
(-0.0050393409 0.009287598 0)
(-0.0054055836 0.0094702392 0)
(-0.0057492328 0.0096866836 0)
(-0.0060738083 0.0099677373 0)
(-0.0063858072 0.010338114 0)
(-0.0067001492 0.010814501 0)
(-0.0070247278 0.011429936 0)
(-0.0073991209 0.012247378 0)
(-0.0078493234 0.013301107 0)
(-0.0083882837 0.014649416 0)
(-0.0090736468 0.016374798 0)
(-0.009983588 0.018550917 0)
(-0.011207174 0.021316522 0)
(-0.012810025 0.024717327 0)
(-0.014906764 0.028888134 0)
(-0.017657494 0.033942961 0)
(-0.021238383 0.039996352 0)
(-0.02585665 0.047154807 0)
(-0.031741325 0.055512692 0)
(-0.039140233 0.06514786 0)
(-0.048311872 0.076117749 0)
(-0.059515652 0.088457616 0)
(-0.072995277 0.10217887 0)
(-0.088948623 0.11727401 0)
(-0.10750661 0.13374391 0)
(-0.12872418 0.15165106 0)
(-0.15233742 0.17102865 0)
(-0.17758555 0.19169425 0)
(-0.20400293 0.21538558 0)
(-0.23009801 0.25200062 0)
(-0.25270728 0.31387101 0)
(-0.27752668 0.37053744 0)
(-0.30216019 0.30967936 0)
(-0.29841795 0.043699178 0)
(-0.2755052 -0.29938009 0)
(-0.230122 -0.62370672 0)
(-0.13584739 -0.85624355 0)
(-0.050024955 -0.9052449 0)
(0.079173798 -0.89382713 0)
(0.24796648 -0.93460229 0)
(0.42582223 -1.0139501 0)
(0.62334746 -1.0931908 0)
(0.84956272 -1.0802411 0)
(1.0876583 -0.86187737 0)
(1.3112916 -0.5686603 0)
(1.5051781 -0.28769413 0)
(1.6122697 -0.045454424 0)
(1.5621333 0.14445865 0)
(1.4167669 0.35189592 0)
(1.2443878 0.43756877 0)
(1.0738858 0.41890546 0)
(0.92389117 0.41637058 0)
(0.78785754 0.47436194 0)
(0.6553106 0.47855373 0)
(0.53723408 0.41684577 0)
(0.43831663 0.35159453 0)
(0.36494583 0.3198811 0)
(0.30979081 0.30481763 0)
(0.26442601 0.28686279 0)
(0.22711087 0.26546177 0)
(0.19617211 0.2441984 0)
(0.16962106 0.22380913 0)
(0.1462805 0.20422767 0)
(0.1254027 0.18560805 0)
(0.1064933 0.16810309 0)
(0.089275558 0.15177293 0)
(0.073593002 0.13659818 0)
(0.059304137 0.12255643 0)
(0.046297446 0.10955641 0)
(0.034521743 0.097549684 0)
(0.023880148 0.086453654 0)
(0.01432318 0.076173652 0)
(0.0058335695 0.066629826 0)
(-0.0016308939 0.057756293 0)
(-0.008103713 0.049475959 0)
(-0.013602538 0.041743968 0)
(-0.018159799 0.034513292 0)
(-0.021799879 0.027748836 0)
(-0.024542422 0.021440588 0)
(-0.026418978 0.015593621 0)
(-0.02746154 0.010201036 0)
(-0.027708779 0.0052563785 0)
(-0.027225322 0.00075627496 0)
(-0.025978459 -0.0032778045 0)
(-0.023946263 -0.0068232058 0)
(-0.021714556 -0.0098601309 0)
(-0.019546208 -0.012454629 0)
(-0.01309016 -0.014857329 0)
(0.0016846644 0.0082561851 0)
(0.00098928837 0.008454172 0)
(0.00055961422 0.0086167725 0)
(-0.0003546002 0.0087403814 0)
(-0.000721306 0.0088793318 0)
(-0.0014706752 0.0089933939 0)
(-0.0020113347 0.0090943605 0)
(-0.0025763173 0.0091848815 0)
(-0.0031143214 0.0092710346 0)
(-0.0036180882 0.0093530559 0)
(-0.004082354 0.0094365047 0)
(-0.0045025993 0.0095230183 0)
(-0.0048776646 0.0096313532 0)
(-0.0052051714 0.0097683268 0)
(-0.0054940077 0.0099509651 0)
(-0.0057329687 0.010202647 0)
(-0.005931763 0.010548793 0)
(-0.0061155543 0.011019138 0)
(-0.0062574956 0.011645439 0)
(-0.0063913854 0.01248351 0)
(-0.0065538357 0.013589152 0)
(-0.006737506 0.015033176 0)
(-0.006979954 0.016893 0)
(-0.0073250839 0.019264757 0)
(-0.0078860267 0.022295175 0)
(-0.0087267511 0.026089232 0)
(-0.0099206477 0.030775228 0)
(-0.011637103 0.036513051 0)
(-0.014058613 0.043444787 0)
(-0.017404139 0.051705375 0)
(-0.021919789 0.061412951 0)
(-0.027876587 0.072662681 0)
(-0.035560746 0.085518549 0)
(-0.045262831 0.10000905 0)
(-0.057260515 0.11611917 0)
(-0.071778574 0.13377761 0)
(-0.088945789 0.15287588 0)
(-0.1087711 0.17328964 0)
(-0.1308864 0.19468817 0)
(-0.15412206 0.21627258 0)
(-0.17720324 0.23933034 0)
(-0.1979059 0.27356184 0)
(-0.20884087 0.32879511 0)
(-0.20582699 0.37218602 0)
(-0.19812572 0.30346794 0)
(-0.18777608 0.052760495 0)
(-0.15908807 -0.31173267 0)
(-0.12097146 -0.67269373 0)
(-0.057985996 -0.93159365 0)
(0.017007673 -1.0168696 0)
(0.1701867 -1.0567443 0)
(0.3619881 -1.1100533 0)
(0.51825297 -1.1676552 0)
(0.63114458 -1.2628766 0)
(0.76315934 -1.2738447 0)
(0.95773928 -1.0838 0)
(1.1779824 -0.75924678 0)
(1.3379191 -0.40252582 0)
(1.4356835 -0.089473019 0)
(1.4844808 0.21515617 0)
(1.4073669 0.49722822 0)
(1.2512882 0.59304854 0)
(1.0837482 0.57379988 0)
(0.91013267 0.57511707 0)
(0.75588027 0.61914498 0)
(0.63658939 0.59738707 0)
(0.5246939 0.52533281 0)
(0.4196159 0.44486425 0)
(0.34190096 0.39031746 0)
(0.28581846 0.35764108 0)
(0.24034496 0.32891431 0)
(0.20343163 0.2999063 0)
(0.17335178 0.27298379 0)
(0.14785517 0.24852864 0)
(0.1256971 0.22598715 0)
(0.10610786 0.20509976 0)
(0.088549655 0.1857465 0)
(0.072689623 0.16782446 0)
(0.058306251 0.15124331 0)
(0.045196994 0.13589668 0)
(0.033254089 0.12169803 0)
(0.022438177 0.10855046 0)
(0.012647773 0.096337212 0)
(0.0038570331 0.084983162 0)
(-0.0039331139 0.074392927 0)
(-0.010761869 0.064492819 0)
(-0.016646447 0.055217823 0)
(-0.021592927 0.046519665 0)
(-0.025631856 0.038358248 0)
(-0.028775109 0.030704906 0)
(-0.031038499 0.023541023 0)
(-0.032450111 0.016852456 0)
(-0.033029856 0.010634497 0)
(-0.03281068 0.0048941681 0)
(-0.031838255 -0.00035307552 0)
(-0.030082419 -0.0050847494 0)
(-0.02754526 -0.0092716209 0)
(-0.024789125 -0.012878292 0)
(-0.022053815 -0.016018265 0)
(-0.014770225 -0.018884563 0)
(0.0018378357 0.0088278755 0)
(0.0011667224 0.0090590666 0)
(0.0007064102 0.0092355118 0)
(-0.00022100395 0.0093575342 0)
(-0.00059979615 0.0094898331 0)
(-0.0013718036 0.0095919828 0)
(-0.0019238205 0.0096749606 0)
(-0.0024965817 0.0097364138 0)
(-0.0030406865 0.0097831329 0)
(-0.0035459459 0.0098243673 0)
(-0.0040045048 0.0098610423 0)
(-0.0044113507 0.0099003933 0)
(-0.0047603666 0.0099565885 0)
(-0.0050463599 0.010038955 0)
(-0.0052690399 0.010167094 0)
(-0.005423404 0.010366907 0)
(-0.0055081509 0.010660031 0)
(-0.0055337427 0.011079758 0)
(-0.0054829753 0.011678364 0)
(-0.0053696261 0.012480576 0)
(-0.0052079327 0.013573416 0)
(-0.004988948 0.015026321 0)
(-0.0047451354 0.016932936 0)
(-0.0044819401 0.019398522 0)
(-0.0042795541 0.022559219 0)
(-0.0042303291 0.026606516 0)
(-0.0043843845 0.031655725 0)
(-0.004886229 0.037930524 0)
(-0.0059374979 0.045599825 0)
(-0.0077701666 0.054835933 0)
(-0.010653507 0.065788067 0)
(-0.014891885 0.078576164 0)
(-0.020814157 0.09327706 0)
(-0.028758741 0.10991627 0)
(-0.039066531 0.12845832 0)
(-0.05204006 0.1487565 0)
(-0.0678904 0.17057561 0)
(-0.086714 0.19355366 0)
(-0.10823896 0.21687709 0)
(-0.13122133 0.23901709 0)
(-0.15403979 0.26036499 0)
(-0.17488852 0.28871145 0)
(-0.1860185 0.33019214 0)
(-0.176717 0.35360392 0)
(-0.15412651 0.2760709 0)
(-0.12781626 0.035522358 0)
(-0.075290299 -0.34577938 0)
(-0.017042274 -0.72391559 0)
(0.046643092 -0.99637442 0)
(0.13319471 -1.1407276 0)
(0.27802067 -1.2358106 0)
(0.44412489 -1.2865974 0)
(0.57193769 -1.2731303 0)
(0.65219704 -1.3520503 0)
(0.75565512 -1.4285084 0)
(0.91223691 -1.286591 0)
(1.0803094 -0.94399109 0)
(1.2273086 -0.52547017 0)
(1.3040521 -0.17320993 0)
(1.3093833 0.21873026 0)
(1.2492078 0.58929194 0)
(1.1143985 0.74081679 0)
(0.95591075 0.73009293 0)
(0.80636698 0.73934319 0)
(0.67028914 0.75255155 0)
(0.56007761 0.70656432 0)
(0.4527957 0.62839575 0)
(0.35818365 0.53374624 0)
(0.29414343 0.45661907 0)
(0.24688524 0.40727768 0)
(0.20634721 0.36865802 0)
(0.17303372 0.33249431 0)
(0.14587957 0.3001225 0)
(0.12274848 0.2717074 0)
(0.102636 0.24625923 0)
(0.084884535 0.22310228 0)
(0.06902042 0.201911 0)
(0.054710202 0.18242892 0)
(0.041705312 0.16450915 0)
(0.029830948 0.14793376 0)
(0.019019925 0.1326242 0)
(0.0092033045 0.11841274 0)
(0.00032282836 0.10518862 0)
(-0.0076313494 0.092858725 0)
(-0.014672739 0.081324059 0)
(-0.020822638 0.070496466 0)
(-0.026083618 0.060318203 0)
(-0.030460842 0.050730586 0)
(-0.03396793 0.041691628 0)
(-0.03660527 0.03317028 0)
(-0.038379675 0.02514781 0)
(-0.03930866 0.017617086 0)
(-0.039400742 0.010576707 0)
(-0.038676862 0.0040437596 0)
(-0.037176432 -0.0019617658 0)
(-0.034869166 -0.0074138295 0)
(-0.031758291 -0.012269168 0)
(-0.028421013 -0.016462019 0)
(-0.025026812 -0.020206214 0)
(-0.016803614 -0.023535149 0)
(0.0020114399 0.009429145 0)
(0.0013570103 0.0096906025 0)
(0.00086663967 0.0098806569 0)
(-8.9895359e-05 0.01001014 0)
(-0.00048910478 0.01012766 0)
(-0.0012767984 0.010221886 0)
(-0.0018587869 0.010285027 0)
(-0.002457079 0.010325876 0)
(-0.0030110901 0.010328312 0)
(-0.0035195837 0.010318588 0)
(-0.0039793048 0.010299145 0)
(-0.0043738022 0.010277517 0)
(-0.0046986868 0.010264976 0)
(-0.0049464836 0.010277288 0)
(-0.005109312 0.010329326 0)
(-0.0051748352 0.010445823 0)
(-0.0051444282 0.010651808 0)
(-0.0050119129 0.010990339 0)
(-0.0047615294 0.011492958 0)
(-0.0043907944 0.012206804 0)
(-0.0038937546 0.013211641 0)
(-0.0032569191 0.014576482 0)
(-0.0024832761 0.016417374 0)
(-0.0015720726 0.018829994 0)
(-0.00054566728 0.021990942 0)
(0.00050321652 0.026095054 0)
(0.001534303 0.03136651 0)
(0.0024397131 0.037981599 0)
(0.0029841236 0.046213512 0)
(0.0029286015 0.056276708 0)
(0.0019742078 0.068357371 0)
(-0.00022674669 0.082615619 0)
(-0.0040609925 0.09914616 0)
(-0.0099292932 0.11796507 0)
(-0.018274282 0.13906607 0)
(-0.029537562 0.16223066 0)
(-0.044103914 0.18714804 0)
(-0.062320976 0.21325782 0)
(-0.084216788 0.23917613 0)
(-0.10877253 0.26264636 0)
(-0.13472496 0.28345643 0)
(-0.1623729 0.30786408 0)
(-0.18682151 0.33791623 0)
(-0.19344177 0.34055933 0)
(-0.17579074 0.24011745 0)
(-0.12773969 -0.024001697 0)
(-0.035529294 -0.41896456 0)
(0.057772512 -0.79667159 0)
(0.15122246 -1.0739952 0)
(0.26064531 -1.2506426 0)
(0.37125151 -1.3653253 0)
(0.45932412 -1.4173753 0)
(0.55385259 -1.3784446 0)
(0.64510779 -1.427156 0)
(0.70182301 -1.5347196 0)
(0.77716862 -1.4170625 0)
(0.88984325 -1.0834548 0)
(1.0047363 -0.64647275 0)
(1.0779221 -0.19967808 0)
(1.095696 0.26124921 0)
(1.0511276 0.68268312 0)
(0.93358484 0.89006605 0)
(0.78344948 0.87542325 0)
(0.65587562 0.86822541 0)
(0.54612273 0.86428419 0)
(0.43429829 0.81000962 0)
(0.3327638 0.72059402 0)
(0.26590693 0.60224821 0)
(0.22742097 0.50559136 0)
(0.19485419 0.44651467 0)
(0.16319532 0.40176034 0)
(0.13634441 0.36026085 0)
(0.11396626 0.32358444 0)
(0.094396626 0.29194023 0)
(0.077142358 0.26402282 0)
(0.061765172 0.23889557 0)
(0.047939003 0.21610938 0)
(0.035385432 0.1952878 0)
(0.023904512 0.17620148 0)
(0.013375026 0.15860153 0)
(0.0037727755 0.14233839 0)
(-0.0049760291 0.12722115 0)
(-0.012894308 0.11313222 0)
(-0.01999492 0.099944708 0)
(-0.026277866 0.087560509 0)
(-0.031745046 0.075886078 0)
(-0.036384796 0.064858492 0)
(-0.040195127 0.054419441 0)
(-0.043170881 0.044525426 0)
(-0.045298862 0.035146365 0)
(-0.046573617 0.026269383 0)
(-0.047003998 0.017890812 0)
(-0.04658673 0.01002155 0)
(-0.045332789 0.0026763205 0)
(-0.043273187 -0.0041176091 0)
(-0.040368988 -0.010328236 0)
(-0.036616733 -0.015879831 0)
(-0.032653264 -0.020703232 0)
(-0.028500426 -0.025131542 0)
(-0.01923185 -0.028920236 0)
(0.0022095637 0.01004388 0)
(0.0015672099 0.010340514 0)
(0.0010347655 0.010548977 0)
(3.8203989e-05 0.01068417 0)
(-0.00039056462 0.010788734 0)
(-0.0012047101 0.010868792 0)
(-0.0018106183 0.010910178 0)
(-0.0024409939 0.010916836 0)
(-0.0030306727 0.010888389 0)
(-0.0035520732 0.01081964 0)
(-0.0040150983 0.010734891 0)
(-0.0044077259 0.010636765 0)
(-0.0047148174 0.010540216 0)
(-0.0049269644 0.010461372 0)
(-0.0050356404 0.010414778 0)
(-0.0050261678 0.010424291 0)
(-0.0048785861 0.010510155 0)
(-0.0045965691 0.010714994 0)
(-0.0041586138 0.01107704 0)
(-0.0035313936 0.011636373 0)
(-0.0027083195 0.012466308 0)
(-0.0016447694 0.013639887 0)
(-0.00034822473 0.015270279 0)
(0.001238532 0.017500777 0)
(0.0031343697 0.020499837 0)
(0.0053012985 0.024455478 0)
(0.0076598017 0.029719675 0)
(0.010121059 0.036441335 0)
(0.012519043 0.045016056 0)
(0.014539325 0.055720187 0)
(0.015856492 0.068796309 0)
(0.016071083 0.084427306 0)
(0.014699628 0.10274941 0)
(0.011301555 0.12383735 0)
(0.0053116366 0.14767401 0)
(-0.0039032149 0.17413401 0)
(-0.01694258 0.20276546 0)
(-0.034627259 0.23300318 0)
(-0.057463255 0.2627719 0)
(-0.084823888 0.28946247 0)
(-0.11676879 0.31344771 0)
(-0.15754606 0.34086377 0)
(-0.20485566 0.36772374 0)
(-0.23473739 0.34880801 0)
(-0.21903799 0.2020171 0)
(-0.14854224 -0.11686048 0)
(-0.058621792 -0.51349046 0)
(0.047156713 -0.89206897 0)
(0.18559132 -1.1866688 0)
(0.34101709 -1.3579401 0)
(0.44981101 -1.4353006 0)
(0.47868887 -1.4628008 0)
(0.49354973 -1.4501609 0)
(0.54321625 -1.4907402 0)
(0.58471408 -1.5942792 0)
(0.62063912 -1.4831225 0)
(0.67298415 -1.1662945 0)
(0.73185007 -0.716545 0)
(0.7782249 -0.2352567 0)
(0.81656206 0.26269011 0)
(0.83843575 0.71263998 0)
(0.80431093 0.98602564 0)
(0.68060562 1.0089296 0)
(0.53676052 0.98381492 0)
(0.41398639 0.97978663 0)
(0.28638596 0.91716056 0)
(0.19956997 0.79244551 0)
(0.16769547 0.64100156 0)
(0.15373214 0.53335034 0)
(0.13567485 0.47284186 0)
(0.11418291 0.42596379 0)
(0.095369025 0.38152733 0)
(0.078793389 0.34225876 0)
(0.063542015 0.30853281 0)
(0.049718082 0.27884485 0)
(0.037114048 0.25226087 0)
(0.025577696 0.22826323 0)
(0.014938605 0.20642274 0)
(0.0051150039 0.18641105 0)
(-0.0039660256 0.16799384 0)
(-0.012314568 0.15093701 0)
(-0.019964132 0.13506044 0)
(-0.026919307 0.12021104 0)
(-0.033169649 0.10626018 0)
(-0.038700335 0.093101218 0)
(-0.043492582 0.080642886 0)
(-0.047521268 0.068813864 0)
(-0.050772136 0.057557425 0)
(-0.053222918 0.046834328 0)
(-0.054845988 0.036615225 0)
(-0.055622871 0.026889464 0)
(-0.055542771 0.017656318 0)
(-0.054599329 0.0089311383 0)
(-0.052798323 0.00074391363 0)
(-0.050155297 -0.0068762769 0)
(-0.046607245 -0.013888078 0)
(-0.042155531 -0.020172692 0)
(-0.037541057 -0.025697983 0)
(-0.032511239 -0.030875774 0)
(-0.022090928 -0.035129291 0)
(0.0024368916 0.010680893 0)
(0.0017985577 0.011017309 0)
(0.0012197552 0.01124723 0)
(0.00016380875 0.011391309 0)
(-0.00030654221 0.011487137 0)
(-0.0011443938 0.0115595 0)
(-0.0018006794 0.011573334 0)
(-0.0024659258 0.011537883 0)
(-0.0030894918 0.011463881 0)
(-0.0036474624 0.011338993 0)
(-0.0041290346 0.011174848 0)
(-0.0045268146 0.010989089 0)
(-0.0048234373 0.010796487 0)
(-0.0050113314 0.010602999 0)
(-0.005074727 0.01043679 0)
(-0.0049963351 0.010307944 0)
(-0.0047593217 0.010250429 0)
(-0.0043381753 0.010275326 0)
(-0.003720923 0.010439015 0)
(-0.0028706278 0.010778968 0)
(-0.0017489007 0.011348173 0)
(-0.00030268173 0.012228109 0)
(0.0015380912 0.013528498 0)
(0.0038226179 0.01540837 0)
(0.006575924 0.01802683 0)
(0.009895048 0.021618696 0)
(0.013700461 0.026533771 0)
(0.017924239 0.033087599 0)
(0.022450862 0.041728233 0)
(0.026897379 0.052821306 0)
(0.030871724 0.06669865 0)
(0.033912925 0.083595054 0)
(0.035513449 0.10368154 0)
(0.035114718 0.12706889 0)
(0.032075299 0.15381561 0)
(0.025496689 0.18383586 0)
(0.014531791 0.21696848 0)
(-0.0022088677 0.25240599 0)
(-0.025759297 0.28805331 0)
(-0.056027017 0.32090112 0)
(-0.096655656 0.35421382 0)
(-0.15692702 0.39449785 0)
(-0.22958015 0.42270534 0)
(-0.27585988 0.36954608 0)
(-0.26555589 0.15970289 0)
(-0.22306933 -0.18794445 0)
(-0.16818077 -0.59620565 0)
(-0.054151784 -1.0188372 0)
(0.12656821 -1.360038 0)
(0.33873662 -1.5108658 0)
(0.48999015 -1.5009399 0)
(0.50507874 -1.4544531 0)
(0.46025173 -1.4525791 0)
(0.46520293 -1.5197769 0)
(0.47149598 -1.6218524 0)
(0.460373 -1.5053054 0)
(0.45728942 -1.1852272 0)
(0.44569809 -0.72535227 0)
(0.43352715 -0.24820162 0)
(0.46482478 0.23610326 0)
(0.51540373 0.68467585 0)
(0.55890158 1.0193826 0)
(0.51120931 1.1259045 0)
(0.38483325 1.1141519 0)
(0.24471748 1.1086157 0)
(0.12970188 1.0169863 0)
(0.080152889 0.8343916 0)
(0.079345459 0.65265909 0)
(0.082683839 0.5440027 0)
(0.075315568 0.48759067 0)
(0.063269654 0.44112568 0)
(0.052703183 0.39580281 0)
(0.041910584 0.35576818 0)
(0.031250851 0.32114166 0)
(0.021052668 0.29047169 0)
(0.011393429 0.26304311 0)
(0.0022779352 0.2382824 0)
(-0.0063413569 0.21576103 0)
(-0.014434647 0.195108 0)
(-0.022030637 0.1760622 0)
(-0.029109953 0.15838101 0)
(-0.03565963 0.14187645 0)
(-0.041658656 0.12638425 0)
(-0.04707115 0.11177229 0)
(-0.051864377 0.097925983 0)
(-0.056000716 0.084753146 0)
(-0.059442181 0.072180227 0)
(-0.062153018 0.060147805 0)
(-0.06409406 0.048621521 0)
(-0.065225802 0.037579204 0)
(-0.065516397 0.027003391 0)
(-0.064944142 0.016899701 0)
(-0.06347906 0.007300597 0)
(-0.061117603 -0.0017645148 0)
(-0.057870485 -0.010260304 0)
(-0.053633963 -0.018122561 0)
(-0.048444971 -0.025201609 0)
(-0.043138772 -0.031519422 0)
(-0.037099063 -0.037511429 0)
(-0.025447782 -0.042243208 0)
(0.0026966402 0.011352964 0)
(0.0020549189 0.01173188 0)
(0.00141769 0.011990129 0)
(0.00029337638 0.012139042 0)
(-0.00022429476 0.012241696 0)
(-0.0011069322 0.012299215 0)
(-0.0018222407 0.012283283 0)
(-0.0025369733 0.012205789 0)
(-0.0032098916 0.012072295 0)
(-0.0038134921 0.011886093 0)
(-0.0043294007 0.011638269 0)
(-0.0047410433 0.011351744 0)
(-0.0050456933 0.011046519 0)
(-0.0052202908 0.010720591 0)
(-0.0052521538 0.01041104 0)
(-0.0051207163 0.010119111 0)
(-0.0048066122 0.0098743274 0)
(-0.0042897123 0.0096956882 0)
(-0.00352159 0.0096105898 0)
(-0.0024762684 0.0096713041 0)
(-0.0011017747 0.0099064491 0)
(0.00070198887 0.01039485 0)
(0.0030115335 0.01124307 0)
(0.0059206095 0.0125649 0)
(0.0095300114 0.014554818 0)
(0.013993957 0.017483323 0)
(0.019327989 0.021716627 0)
(0.025523566 0.027720883 0)
(0.03247177 0.036047187 0)
(0.039725296 0.047220533 0)
(0.046831054 0.061668321 0)
(0.053240195 0.079663025 0)
(0.058331446 0.10140989 0)
(0.061529664 0.12710165 0)
(0.062029911 0.15695936 0)
(0.058981349 0.19106517 0)
(0.051183618 0.22958975 0)
(0.036825239 0.27146952 0)
(0.013783785 0.31471845 0)