/*--------------------------------*- C++ -*----------------------------------*\
  =========                 |
  \\      /  F ield         | OpenFOAM: The Open Source CFD Toolbox
   \\    /   O peration     | Website:  https://openfoam.org
    \\  /    A nd           | Version:  9
     \\/     M anipulation  |
\*---------------------------------------------------------------------------*/
FoamFile
{
    format      ascii;
    class       volScalarField;
    location    "0.35";
    object      alpha.phase1;
}
// * * * * * * * * * * * * * * * * * * * * * * * * * * * * * * * * * * * * * //

dimensions      [0 0 0 0 0 0 0];

internalField   nonuniform List<scalar> 
10000
(
5.8991489e-98
5.8991489e-98
7.7655716e-98
3.9293656e-96
4.2697504e-94
4.2423571e-92
3.8480281e-90
3.2008622e-88
2.3006146e-86
1.781805e-84
2.9154373e-82
1.9844092e-79
4.4584072e-77
9.6893015e-76
6.3335126e-75
2.304589e-74
5.7030367e-74
1.8534639e-73
2.2902611e-73
2.428105e-73
2.5445215e-73
2.6406092e-73
3.5371364e-73
1.8932951e-71
2.1765407e-69
2.3743873e-67
2.7069318e-65
3.5207207e-63
1.1878759e-60
2.4374549e-58
5.1605407e-57
2.4441427e-56
2.449041e-55
1.2348136e-54
1.5926034e-53
4.9381956e-52
1.54967e-50
4.4365942e-49
1.1443368e-47
2.6141817e-46
5.1673122e-45
8.690753e-44
1.2430549e-42
1.5027149e-41
1.4716788e-40
1.1188547e-39
6.6706342e-39
3.1557792e-38
1.1264496e-37
2.8629068e-37
2.9175636e-37
1.2291468e-37
3.3539954e-38
6.7502365e-39
1.0121291e-39
1.0684964e-40
6.9247059e-42
2.3644673e-43
3.8081944e-45
2.8087613e-47
1.4512575e-49
6.2582526e-52
4.743202e-54
5.4164246e-56
3.8061372e-56
3.8064372e-56
5.2415588e-56
4.6195935e-56
1.5752787e-56
1.3624455e-57
4.6352514e-59
2.2973628e-61
1.2156097e-63
1.1972499e-65
9.3704546e-68
6.9827924e-70
9.3258059e-72
3.562365e-72
1.8791117e-72
1.1283133e-72
8.6913812e-73
6.1245173e-73
3.1559249e-73
1.0370484e-73
4.5618482e-74
1.5189564e-74
4.0118696e-75
8.0370365e-76
4.1979241e-77
3.6252955e-79
1.4714416e-81
5.6430354e-84
1.7109572e-86
4.5944266e-89
1.6561964e-91
9.7200848e-94
5.9118748e-96
1.1539936e-97
9.4898044e-98
9.4898044e-98
6.0684951e-98
1.6465756e-96
8.6973263e-96
2.5918798e-95
1.1260997e-93
6.8259933e-92
5.3177561e-90
4.818606e-88
5.6319213e-86
1.576531e-83
4.2353653e-81
3.7262355e-79
4.5258498e-77
9.6747264e-76
6.287378e-75
2.5907143e-74
6.4681078e-74
1.8390721e-73
7.5663431e-73
2.6989865e-72
3.2642764e-72
1.8244546e-72
1.7575219e-72
2.2664379e-71
2.43035e-69
1.6381105e-67
1.9278936e-65
2.4805279e-63
8.8173436e-61
1.9706899e-58
5.5540552e-57
3.1158635e-55
2.2447041e-53
2.0640797e-52
3.9499045e-51
1.2018772e-49
3.4630758e-48
9.0039287e-47
2.1145076e-45
4.3910132e-44
7.9052752e-43
1.2128852e-41
1.56927e-40
1.689921e-39
1.4384707e-38
8.6946784e-38
3.3746661e-37
8.6196755e-37
1.8619871e-36
3.381632e-36
3.4224293e-36
1.9611704e-36
8.9187065e-37
3.383865e-37
8.1631906e-38
1.0910421e-38
7.7403341e-40
2.9169013e-41
5.4738593e-43
5.184357e-45
2.5994557e-47
1.0176192e-49
7.2895919e-52
7.9610732e-54
8.5163907e-54
1.3743695e-53
1.3120398e-53
4.1898804e-54
1.1413527e-55
1.363998e-57
5.2470063e-59
5.4919502e-61
8.7251648e-64
3.4916111e-66
2.379378e-68
8.4235462e-70
1.0593883e-70
3.5720809e-71
5.6054665e-72
2.9423288e-72
8.1620085e-72
5.6083272e-72
1.0451894e-72
1.4918712e-73
7.9515668e-74
1.8511622e-74
4.6052806e-75
8.3019793e-76
4.5807001e-77
6.5739537e-79
5.7396154e-81
2.7761907e-83
5.6882499e-86
1.0446186e-88
8.161865e-91
9.1005819e-93
1.4268977e-94
2.2669207e-95
2.9130038e-96
9.7397423e-98
4.9528462e-95
1.6362947e-93
1.1073808e-91
8.9485059e-91
2.9018408e-90
2.6719302e-89
1.7305722e-87
2.1511745e-85
5.7080475e-83
1.9937168e-80
5.3074826e-78
2.6381424e-76
2.1424052e-75
8.7117534e-75
4.0285528e-74
3.0734936e-72
7.2808624e-72
6.7087962e-72
3.7947832e-70
1.3442562e-69
1.50222e-69
5.4004381e-70
1.6869061e-70
1.2164168e-68
1.5867195e-66
2.0062618e-64
3.2308551e-62
1.3821405e-59
2.119057e-57
8.6098576e-56
1.8596786e-54
6.3416693e-52
2.702605e-50
1.335401e-49
1.0418419e-48
2.8437763e-47
7.4476913e-46
1.6200757e-44
3.5584531e-43
7.0796124e-42
1.2185778e-40
1.7900267e-39
2.2223762e-38
2.3048963e-37
1.9087506e-36
1.1440421e-35
4.4842017e-35
1.1549763e-34
2.4551406e-34
4.5353132e-34
4.5901217e-34
2.5842175e-34
1.1888255e-34
4.4755208e-35
1.0685724e-35
1.4434192e-36
1.0711859e-37
4.4058991e-39
9.5038819e-41
1.0772976e-42
6.4746229e-45
2.7579193e-47
1.8738734e-49
3.3019696e-51
8.3336105e-51
1.2718481e-50
1.1496396e-50
3.3870014e-51
8.0197305e-53
2.7960343e-55
1.2958695e-56
5.2256888e-58
4.5132098e-60
5.3324503e-63
1.8022378e-65
1.7072302e-67
1.0331553e-67
2.6104948e-68
2.9076883e-69
8.5190078e-70
3.883423e-69
3.4713416e-69
5.9217277e-70
3.4733192e-71
2.7399243e-71
3.8767197e-72
6.8959318e-73
7.6297228e-74
6.508487e-75
4.2258948e-76
7.2718457e-78
5.2016832e-80
2.7248599e-82
1.123627e-84
4.7268024e-87
5.9479444e-89
3.2834325e-90
2.368592e-91
3.0801213e-93
7.5666335e-95
1.7039707e-92
7.8171266e-91
6.9968804e-89
4.3971649e-87
9.2663684e-86
2.3448884e-85
1.9903198e-84
2.5975108e-82
6.1014503e-80
1.7883406e-77
4.1914807e-75
2.1727305e-73
1.9384635e-72
9.0670402e-72
1.1584752e-70
4.398225e-69
4.2109592e-69
3.5544257e-69
1.6665237e-67
4.9256937e-67
5.1297904e-67
1.442603e-67
1.3517626e-67
1.2725564e-65
1.6588648e-63
2.1831083e-61
5.3078111e-59
1.9263152e-56
1.6290868e-54
5.1995563e-53
2.4638287e-51
9.109835e-49
2.8270187e-47
9.9207772e-47
3.8709912e-46
1.2479586e-44
4.0281946e-43
2.4185816e-42
4.5785995e-41
8.7843428e-40
1.4450837e-38
2.0288292e-37
2.4105742e-36
2.4020019e-35
1.9294536e-34
1.1398154e-33
4.4759571e-33
1.1574573e-32
2.4287556e-32
4.5483542e-32
4.6037433e-32
2.5562566e-32
1.1854422e-32
4.4446377e-33
1.0582451e-33
1.4533713e-34
1.1321194e-35
5.0890053e-37
1.2603186e-38
1.6972771e-40
1.1901167e-42
6.1865966e-45
5.5082675e-47
2.2588551e-48
6.6671067e-48
9.161121e-48
7.2279333e-48
1.7364242e-48
3.400123e-50
1.4847669e-52
7.3634984e-54
3.3458583e-55
3.7940396e-57
1.9064448e-59
2.1988818e-62
1.2290001e-64
6.1818172e-65
1.545927e-65
1.7670355e-66
2.2094777e-67
1.1355003e-66
1.6225168e-66
3.1117418e-67
1.9330467e-68
1.5321576e-68
2.5546976e-69
4.9179768e-70
7.3613958e-71
5.8696446e-72
3.3974878e-73
6.2156491e-75
5.7624526e-77
4.2562639e-79
3.142417e-81
2.468853e-83
3.0273462e-85
1.1478145e-86
1.7111755e-88
1.4597122e-90
2.5231211e-92
4.5570193e-90
2.5220062e-88
2.5758565e-86
2.0176247e-84
1.1916555e-82
2.8987812e-81
1.1256722e-80
3.1383707e-79
5.160683e-77
1.1210058e-74
2.326849e-72
1.1984793e-70
1.2020163e-69
6.6340348e-69
8.8188065e-68
2.0965858e-66
1.6998919e-66
2.9223357e-66
5.7122814e-65
1.4754573e-64
1.4363724e-64
3.6315143e-65
7.5257395e-65
7.4531785e-63
9.9096475e-61
1.4528827e-58
4.9899713e-56
1.3702023e-53
8.2574817e-52
2.1154444e-50
1.0730795e-48
3.9544197e-46
1.3341886e-44
5.0616562e-44
2.0402061e-43
1.2595528e-41
3.4698444e-40
1.8507542e-40
4.6617704e-39
8.6635201e-38
1.3575146e-36
1.8161013e-35
2.0592647e-34
1.9654285e-33
1.5272644e-32
8.8716151e-32
3.4776803e-31
8.9916271e-31
1.8579205e-30
3.4999323e-30
3.5432567e-30
1.9556422e-30
9.1628261e-31
3.435415e-31
8.1840959e-32
1.1439693e-32
9.3514749e-34
4.5956287e-35
1.3017997e-36
2.0586596e-38
1.7491506e-40
1.4456568e-42
5.3081544e-44
2.266059e-45
4.4325764e-45
5.4255789e-45
3.2754499e-45
5.2309368e-46
7.106765e-48
5.866052e-50
2.952145e-51
1.3815482e-52
1.6689104e-54
1.0316951e-56
4.420171e-59
1.7190443e-61
2.6268052e-62
7.5062902e-63
9.3379476e-64
7.0256904e-65
2.2511057e-64
5.9494559e-64
1.1282947e-64
8.3375955e-66
6.5163941e-66
1.2622873e-66
2.502415e-67
4.4258922e-68
3.40892e-69
1.9448454e-70
3.6275929e-72
3.8745811e-74
3.5433522e-76
2.7460727e-78
2.2412148e-80
3.7502625e-82
6.6220706e-84
6.5121254e-86
4.6324781e-88
6.5418824e-90
9.936047e-88
6.2311703e-86
6.9927136e-84
6.0109314e-82
4.2864813e-80
2.333634e-78
5.0035658e-77
3.3605654e-76
3.2902606e-74
5.2704816e-72
9.9331261e-70
5.3786553e-68
5.4562385e-67
3.6514904e-66
6.8481489e-65
7.1704646e-64
5.5288822e-64
9.6083464e-64
1.5973878e-62
3.8068215e-62
3.379309e-62
7.682139e-63
2.3715757e-62
1.9060423e-60
2.7058327e-58
6.4231571e-56
2.3141977e-53
3.3701636e-51
1.3882184e-49
7.2953352e-48
1.5080128e-46
4.1417216e-44
2.4340811e-42
1.6985726e-41
1.1433311e-40
8.245093e-39
1.8808512e-37
2.528292e-38
3.9945768e-37
7.0029502e-36
1.0420282e-34
1.3224635e-33
1.4242458e-32
1.2963345e-31
9.7042087e-31
5.5234692e-30
2.1557468e-29
5.5626174e-29
1.1307621e-28
2.1338376e-28
2.1609728e-28
1.1905214e-28
5.6412839e-29
2.1191498e-29
5.0591241e-30
7.2064397e-31
6.1917229e-32
3.3333044e-33
1.0790741e-34
1.9854609e-36
2.0397404e-38
4.9040809e-40
1.4122813e-40
2.7369295e-42
2.4258698e-42
2.6656997e-42
1.236084e-42
1.2963222e-43
1.3046251e-45
2.0336923e-47
7.959109e-49
4.0014247e-50
5.0985905e-52
3.2565957e-54
3.8713518e-56
1.8408301e-58
1.1489124e-59
3.1373095e-60
4.0306903e-61
3.2079742e-62
6.341039e-62
1.8103133e-61
3.3408646e-62
2.9453676e-63
2.2773936e-63
4.870383e-64
9.7929905e-65
1.9711408e-65
1.5421792e-66
8.3293151e-68
1.5900925e-69
1.9008571e-71
1.7665431e-73
1.1249624e-75
1.1362714e-77
2.1226845e-79
2.1350293e-81
1.7564771e-83
1.1233479e-85
1.3815065e-87
1.8239455e-85
1.2542537e-83
1.4937895e-81
1.3981342e-79
1.0730314e-77
7.0289147e-76
3.4389585e-74
2.848448e-73
1.3683538e-71
2.0396366e-69
3.492017e-67
1.8009668e-65
2.0208323e-64
1.6998757e-63
3.3444382e-62
1.9832375e-61
1.5047031e-61
2.5330572e-61
3.8797418e-60
8.693156e-60
6.513483e-60
1.3638253e-60
5.3072001e-60
1.5897635e-58
2.508569e-56
9.5274048e-54
1.8581801e-51
1.5702396e-49
5.3408651e-48
7.4026967e-46
2.337648e-44
2.5716016e-42
2.4669996e-40
5.4950631e-39
5.9791995e-38
4.3071542e-36
8.2727216e-35
1.1501546e-35
3.1162913e-35
4.7040906e-34
6.6693377e-33
7.9940226e-32
8.1387058e-31
7.0281482e-30
5.0428418e-29
2.8017156e-28
1.0857964e-27
2.7919882e-27
5.580353e-27
1.0507366e-26
1.0645365e-26
5.8772422e-27
2.8182137e-27
1.0615425e-27
2.5424063e-28
3.6977509e-29
3.3476421e-30
1.9778018e-31
7.2825204e-33
1.539283e-34
1.8882088e-36
1.0935341e-37
2.4338224e-37
5.2432442e-39
1.0640996e-39
1.0778765e-39
3.9474337e-40
3.0196793e-41
2.7888422e-43
5.8365335e-45
1.0183474e-46
1.2400078e-47
1.8517122e-49
1.1068957e-51
1.4453092e-53
3.9821098e-56
5.0164901e-57
1.1224452e-57
1.4927863e-58
1.0713389e-59
1.5807925e-59
4.7013319e-59
8.5242378e-60
8.7458256e-61
6.6021928e-61
1.5378076e-61
3.2118568e-62
7.0715486e-63
5.6779065e-64
2.7803106e-65
5.6132016e-67
7.2171849e-69
5.3708081e-71
4.1754574e-73
6.5053627e-75
6.2469252e-77
5.0892412e-79
3.7185837e-81
2.2141163e-83
2.4520956e-85
2.8847994e-83
2.1335738e-81
2.6519105e-79
2.6423371e-77
2.1870414e-75
1.5353249e-73
9.2174452e-72
3.6830596e-70
4.5372174e-69
5.8393913e-67
9.1301353e-65
5.1504359e-63
6.6296824e-62
6.3020638e-61
1.0031813e-59
4.6107339e-59
3.5276389e-59
5.837627e-59
8.4920974e-58
1.7894151e-57
9.1879718e-58
2.0539474e-58
1.6026709e-57
2.4695524e-56
2.805438e-54
5.5233548e-52
4.947697e-50
5.458224e-48
7.869466e-46
3.876387e-44
8.6665302e-42
9.4343995e-40
4.5449975e-38
1.6880307e-36
2.7759314e-35
1.8878362e-33
3.0373386e-32
4.5120423e-33
1.2427214e-33
2.6462569e-32
3.6049166e-31
4.0591737e-30
3.8861596e-29
3.1661924e-28
2.1660122e-27
1.1696446e-26
4.491221e-26
1.1491779e-25
2.2551114e-25
4.2183002e-25
4.2761068e-25
2.3757403e-25
1.1541494e-25
4.3618998e-26
1.0492904e-26
1.5612862e-27
1.4928654e-28
9.6623604e-30
4.0062393e-31
9.5816406e-33
1.6881347e-34
1.984006e-35
1.5614231e-34
4.0279199e-36
3.7579822e-37
3.3847246e-37
9.2072489e-38
5.598207e-39
6.0341576e-41
1.478441e-42
2.068096e-44
9.7046891e-45
3.3628126e-46
7.6550142e-49
1.0810665e-51
6.0382063e-54
1.9899789e-54
3.684597e-55
4.7689198e-56
2.8186308e-57
3.5378021e-57
1.0579471e-56
1.9056255e-57
2.2331178e-58
1.6453287e-58
4.1498057e-59
8.8457038e-60
2.1149832e-60
1.6997967e-61
8.148169e-63
1.698506e-64
2.0701037e-66
1.4306308e-68
1.8447586e-70
1.8839292e-72
1.3686363e-74
9.7113795e-77
6.5305638e-79
3.6798977e-81
3.742277e-83
3.9998683e-81
3.1431932e-79
4.0394621e-77
4.2128507e-75
3.7280533e-73
2.8137988e-71
1.8640994e-69
1.0050622e-67
1.6463587e-66
1.2525384e-64
1.7192678e-62
1.2837905e-60
1.901636e-59
2.0503968e-58
2.3839134e-57
9.3259039e-57
7.2670514e-57
1.234159e-56
1.699502e-55
3.372142e-55
1.1779177e-55
4.1966511e-56
5.2714961e-55
7.6911703e-54
6.8692718e-52
8.1400345e-50
9.3712843e-48
1.0574282e-45
1.0842156e-43
1.2760935e-41
3.4286633e-39
2.7599638e-37
6.402038e-36
3.4601863e-34
1.0952062e-32
7.1015676e-31
9.4666819e-30
1.4823809e-30
9.8022476e-32
1.2840169e-30
1.6617616e-29
1.7486027e-28
1.5650149e-27
1.194248e-26
7.7327237e-26
4.0351396e-25
1.5289583e-24
3.8740778e-24
7.4141619e-24
1.3728433e-23
1.3930825e-23
7.8115781e-24
3.8659761e-24
1.4730218e-24
3.5693352e-25
5.4452888e-26
5.5254839e-27
3.9244215e-28
1.8218203e-29
4.7993522e-31
9.6938472e-33
9.375641e-33
7.4134942e-32
2.2964681e-33
9.7546232e-35
6.6792082e-35
1.0391449e-35
4.8367636e-37
1.0519079e-38
3.1359815e-40
2.2080914e-42
4.0600429e-43
1.4628218e-44
4.9112146e-47
3.0464521e-50
1.5792286e-51
5.8627606e-52
1.0629972e-52
1.2774186e-53
7.2682776e-55
7.1606521e-55
2.0917122e-54
3.7726585e-55
4.9928498e-56
3.6270621e-56
9.7168257e-57
2.1511106e-57
5.6179108e-58
4.3931303e-59
2.094838e-60
4.4772106e-62
4.2845479e-64
4.4206321e-66
5.5977235e-68
3.9220711e-70
2.4356668e-72
1.5625869e-74
9.8277452e-77
5.2859225e-79
4.9956486e-81
4.9273122e-79
4.0814536e-77
5.3928265e-75
5.8320022e-73
5.422269e-71
4.3987913e-69
3.1533936e-67
1.9775975e-65
8.7721707e-64
2.1495443e-62
2.6757851e-60
2.7399459e-58
5.0242143e-57
6.8333548e-56
4.8432658e-55
1.6708625e-54
1.332533e-54
2.4285526e-54
3.0751888e-53
5.9064313e-53
2.0156634e-53
9.7487197e-54
1.4073067e-52
2.0257057e-51
1.6906519e-49
2.0481549e-47
2.6892342e-45
2.7564106e-43
2.1132545e-41
2.4703773e-39
4.6559969e-37
3.5542754e-35
1.0421863e-33
7.1708965e-32
3.8155359e-30
2.3159696e-28
2.5447373e-27
4.1084909e-28
2.1938344e-29
5.3622333e-29
6.5816695e-28
6.4395351e-27
5.3509926e-26
3.7932615e-25
2.2981975e-24
1.1474836e-23
4.2673487e-23
1.0652443e-22
1.9730928e-22
3.6309338e-22
3.6907956e-22
2.0786807e-22
1.0537907e-22
4.0714692e-23
9.967461e-24
1.5690186e-24
1.7053441e-25
1.3342865e-26
6.9208649e-28
2.0219776e-29
1.5660601e-30
3.922524e-30
2.950352e-29
1.1197621e-30
1.8053236e-32
9.7639451e-33
4.7914452e-34
2.2318999e-35
2.5854848e-36
8.0692583e-38
2.8811859e-40
3.0450279e-42
3.3814975e-43
2.1567672e-45
1.987235e-48
5.0420955e-49
1.6096824e-49
2.7411117e-50
2.7135458e-51
1.637599e-52
1.320369e-52
3.7051324e-52
6.6923562e-53
9.9289003e-54
7.2940305e-54
2.0700592e-54
4.6260582e-55
1.2896451e-55
1.0114459e-56
4.6821069e-58
9.817394e-60
9.5273601e-62
1.3820403e-63
1.1285824e-65
6.6506462e-68
3.6988849e-70
2.1844021e-72
1.2952197e-74
6.680201e-77
5.9113716e-79
5.4501644e-77
4.7336911e-75
6.4071937e-73
7.1437546e-71
6.9122879e-69
5.9218333e-67
4.5849798e-65
3.1957658e-63
1.944221e-61
4.3120624e-60
3.8451552e-58
5.4545316e-56
1.2349514e-54
1.5080157e-53
8.4089303e-53
2.6818545e-52
2.1944827e-52
4.4258534e-52
4.9020466e-51
9.479642e-51
3.1862967e-51
2.1510454e-51
3.5898583e-50
5.5534069e-49
4.5149378e-47
5.7918384e-45
7.3944258e-43
6.8633579e-41
5.5231202e-39
5.1702289e-37
5.0563912e-35
3.1369477e-33
2.1973362e-31
1.5940532e-29
1.1918322e-27
6.6306586e-26
5.9546736e-25
9.7057732e-26
4.0237594e-27
1.9664385e-27
2.2437548e-26
2.0361909e-25
1.5592249e-24
1.0181146e-23
5.6922094e-23
2.6845232e-22
9.8372787e-22
2.4930921e-21
4.6408182e-21
8.5668388e-21
8.7111389e-21
4.8925615e-21
2.4493307e-21
9.284089e-22
2.2702433e-22
3.7210573e-23
4.3957345e-24
3.8115709e-25
2.2085883e-26
7.2253035e-28
4.1476848e-28
1.3769829e-27
9.982557e-27
4.8424317e-28
4.1762956e-30
2.4422172e-30
9.7461283e-32
3.3017897e-33
8.0692026e-34
3.0358592e-35
8.3196961e-38
2.7878935e-40
1.8303284e-42
1.4506426e-44
2.1979867e-46
1.6051846e-46
4.0082053e-47
6.2587823e-48
5.419028e-49
3.2897456e-50
2.2254949e-50
5.9253602e-50
1.079053e-50
1.7889234e-51
1.4187472e-51
4.4315421e-52
9.2366042e-53
2.6379603e-53
2.0731615e-54
9.4207242e-56
1.7130404e-57
2.4329659e-59
2.7484752e-61
1.8310229e-63
9.6720724e-66
4.9335706e-68
2.7065893e-70
1.518801e-72
7.5288253e-75
6.2666156e-77
5.4597204e-75
4.9548662e-73
6.8532214e-71
7.8488671e-69
7.8580037e-67
7.0379339e-65
5.798667e-63
4.428981e-61
3.2127447e-59
1.8946766e-57
5.657272e-56
9.9184687e-54
2.8061287e-52
2.6566333e-51
1.2791985e-50
3.8870703e-50
3.2675425e-50
7.4829503e-50
7.1320905e-49
1.3927755e-48
4.659916e-49
3.9163305e-49
7.2899833e-48
1.4225566e-46
1.45803e-44
1.9288762e-42
2.2038061e-40
2.1876797e-38
1.9531499e-36
1.7399677e-34
1.4755199e-32
8.8471685e-31
6.1816435e-29
4.4106914e-27
3.4065131e-25
1.6664462e-23
1.2195513e-22
1.9723459e-23
2.9205212e-25
7.6203206e-26
6.6872259e-25
5.5540829e-24
3.8878938e-23
2.3250253e-22
1.1997293e-21
5.3382409e-21
1.9634933e-20
5.4531734e-20
1.1342569e-19
2.04429e-19
2.0651657e-19
1.1993005e-19
5.418773e-20
1.8383593e-20
4.3459363e-21
7.4241752e-22
9.5376068e-23
9.143852e-24
5.9518483e-25
2.2856433e-26
5.0610416e-26
4.0602832e-25
2.8961e-24
1.8437702e-25
7.4504054e-28
4.9960007e-28
1.8691428e-29
3.6780374e-31
1.48777e-31
8.5203922e-33
3.0750114e-35
3.5300867e-38
3.4687457e-40
7.6185914e-43
4.9723232e-44
3.8580322e-44
8.5156679e-45
1.2778655e-45
9.4729957e-47
6.3223982e-48
3.5409057e-48
8.58104e-48
1.6080245e-48
2.8972407e-49
2.4878136e-49
8.0410961e-50
1.8078043e-50
4.6834774e-51
3.9454414e-52
1.7227383e-53
3.0562534e-55
4.9633465e-57
4.2836696e-59
2.5450652e-61
1.2421743e-63
5.8891627e-66
3.016259e-68
1.6040928e-70
7.6488335e-73
6.0031574e-75
4.9885025e-73
4.720057e-71
6.6594113e-69
7.8151441e-67
8.064762e-65
7.5052501e-63
6.5075706e-61
5.3673512e-59
4.4419735e-57
3.8621997e-55
1.6537712e-53
1.8100063e-51
5.2920254e-50
3.9764331e-49
1.7333078e-48
5.1122627e-48
4.5145753e-48
1.1705127e-47
9.6246197e-47
1.8752318e-46
6.2983543e-47
6.1135731e-47
1.2224741e-45
2.6564183e-44
3.7226271e-42
5.7008874e-40
6.8626043e-38
6.9207321e-36
6.1321282e-34
5.0483478e-32
3.609476e-30
2.2299271e-28
1.4326939e-26
1.1152623e-24
8.6578471e-23
3.6697964e-21
2.1982734e-20
3.4686768e-21
2.4269229e-23
4.3738912e-24
1.8648238e-23
1.3110595e-22
8.427646e-22
4.5984797e-21
2.2328334e-20
9.5096132e-20
3.4716145e-19
1.0247687e-18
2.3252953e-18
3.8860491e-18
3.8770645e-18
2.4378307e-18
1.0388988e-18
3.229502e-19
7.4748195e-20
1.3141815e-20
1.7848592e-21
1.8793596e-22
1.3983902e-23
7.7787143e-25
3.0096406e-24
1.0131262e-22
7.2256076e-22
6.2198845e-23
1.8180236e-25
7.667643e-26
2.5610112e-27
4.5158096e-29
1.4230864e-29
7.0664176e-31
2.4972641e-33
2.8457223e-36
1.8431159e-38
1.7113024e-40
1.9206448e-41
7.5235664e-42
1.5604549e-42
2.067598e-43
1.4784563e-44
1.1170419e-45
5.0147563e-46
1.1298686e-45
2.2538445e-46
4.1774478e-47
3.7063921e-47
1.2072056e-47
2.89388e-48
7.1020394e-49
6.7516258e-50
2.8682357e-51
6.0304885e-53
7.5300506e-55
5.686288e-57
3.1286325e-59
1.4348852e-61
6.3771074e-64
3.0579197e-66
1.540994e-68
7.0666638e-71
5.2342338e-73
4.1821764e-71
4.1204512e-69
5.922398e-67
7.1100664e-65
7.5422839e-63
7.263825e-61
6.5843229e-59
5.7898208e-57
5.3387887e-55
5.748475e-53
6.1583707e-51
3.5311865e-49
7.8998512e-48
5.1752094e-47
2.1136796e-46
6.1048716e-46
6.0974159e-46
1.6946221e-45
1.2039811e-44
2.313757e-44
7.8492423e-45
8.1590947e-45
1.3887278e-43
7.1323747e-42
7.1842948e-40
1.3752862e-37
1.8798125e-35
1.982398e-33
1.7507415e-31
1.3546923e-29
9.3459428e-28
5.7265904e-26
3.3917303e-24
2.5205755e-22
1.9425641e-20
7.0301051e-19
3.4974285e-18
5.2879733e-19
2.0224242e-21
3.3677333e-22
6.0694998e-22
2.7422876e-21
1.685238e-20
8.2406939e-20
3.6204589e-19
1.4055325e-18
4.7126205e-18
1.2853008e-17
2.8692325e-17
4.5427843e-17
4.4727463e-17
2.9670217e-17
1.334462e-17
4.3416053e-18
1.0694841e-18
1.9977175e-19
2.9785918e-20
3.5894314e-21
3.1339341e-22
3.9489e-23
2.5482007e-22
2.1495268e-20
1.5459036e-19
1.8243269e-20
9.127868e-23
9.5844839e-24
2.6141098e-25
5.029809e-27
8.1579028e-28
2.3562669e-29
6.0243146e-32
1.0546313e-34
9.4121349e-37
1.2464493e-38
4.6496236e-39
1.4786783e-39
2.654009e-40
3.0149616e-41
2.050247e-42
1.652173e-43
6.6944107e-44
1.3677505e-43
2.9710752e-44
5.4278292e-45
4.8252896e-45
1.5590065e-45
3.8331213e-46
9.1784276e-47
1.0268164e-47
4.3943611e-49
9.0372127e-51
9.6017045e-53
6.6683299e-55
3.4665448e-57
1.5100859e-59
6.3301676e-62
2.8468209e-64
1.3577806e-66
5.9814342e-69
4.179377e-71
3.2336176e-69
3.3155927e-67
4.8499838e-65
5.9489692e-63
6.4749429e-61
6.4350551e-59
6.0722839e-57
5.6514696e-55
5.7067216e-53
7.1522615e-51
1.024919e-48
6.3832016e-47
1.0033498e-45
5.9833867e-45
2.3376245e-44
6.4961714e-44
7.5612185e-44
2.2451465e-43
1.3965953e-42
2.6109691e-42
8.9222369e-43
8.2781377e-43
2.6178519e-41
2.3400231e-39
2.317331e-37
2.4369762e-35
4.1736384e-33
4.8644544e-31
4.4101129e-29
3.3561144e-27
2.2294912e-25
1.3091345e-23
7.1540356e-22
5.0108465e-20
3.8078944e-18
1.1471172e-16
4.6558286e-16
6.9583796e-17
1.5718982e-19
3.8906092e-20
3.4064985e-20
5.7530138e-20
3.3311342e-19
1.3843705e-18
4.8025738e-18
1.5198947e-17
4.3244454e-17
1.0097804e-16
2.0980179e-16
3.3866291e-16
3.3921201e-16
2.2365265e-16
1.0673455e-16
3.815023e-17
1.0361289e-17
2.2629901e-18
4.3133117e-19
6.5768252e-20
7.6248049e-21
2.2954232e-21
2.3114359e-20
3.8415257e-18
2.7924209e-17
4.5585186e-18
4.8009258e-20
1.3423859e-21
3.0281457e-23
3.8386369e-25
4.2041641e-26
1.2134059e-27
3.2569278e-30
7.9243777e-33
8.7138206e-35
9.746818e-37
9.4905792e-37
2.6378347e-37
4.079995e-38
4.272509e-39
2.7002687e-40
2.3103086e-41
8.0073722e-42
1.5324335e-41
3.6658966e-42
6.4122269e-43
5.5671167e-43
1.7773392e-43
4.401224e-44
1.0352373e-44
1.3074087e-45
6.022333e-47
1.1123907e-48
1.0770641e-50
7.0526642e-53
3.5068287e-55
1.4620046e-57
5.8089826e-60
2.4530305e-62
1.1052182e-64
4.6683603e-67
3.0722752e-69
2.3160998e-67
2.4713974e-65
3.6766671e-63
4.6028432e-61
5.1330867e-59
5.253731e-57
5.1459362e-55
5.0470965e-53
5.5287387e-51
7.805073e-49
1.3109894e-46
8.4799775e-45
1.11355e-43
6.2303929e-43
2.3617258e-42
6.3579624e-42
8.4888412e-42
2.6942761e-41
1.503689e-40
2.6808033e-40
9.424329e-41
9.3010833e-41
6.2245223e-39
6.8248834e-37
6.8089579e-35
5.9323402e-33
6.8522328e-31
9.7432048e-29
9.4551903e-27
7.2406245e-25
4.6757453e-23
2.6163796e-21
1.3382862e-19
8.7799739e-18
6.5216329e-16
1.3407438e-14
3.5621256e-14
7.8418134e-15
1.0355879e-17
7.3966682e-18
1.141902e-17
1.404998e-18
7.2085881e-18
2.2686639e-17
5.5382009e-17
1.3516541e-16
3.0017228e-16
6.5284949e-16
1.0012863e-15
1.5556968e-15
1.6316455e-15
1.1271542e-15
5.3485513e-16
2.1785117e-16
7.001501e-17
2.0305796e-17
5.0615046e-18
9.6998951e-19
2.260773e-19
1.3368942e-19
1.9557817e-18
5.7230395e-16
3.4213693e-15
8.9814998e-16
1.9217901e-17
2.5917797e-19
5.2579571e-21
7.0877533e-23
1.6424266e-24
2.2685079e-26
9.7109551e-29
7.9203322e-31
9.5035037e-33
1.2681165e-34
1.599249e-34
4.1228642e-35
5.732287e-36
5.4638467e-37
3.3887387e-38
2.6531285e-39
8.7103666e-40
1.5955119e-39
4.2012143e-40
7.0445261e-41
5.7285548e-41
1.8159301e-41
4.4858529e-42
1.038407e-42
1.4200278e-43
6.8485171e-45
1.195566e-46
1.0884686e-48
6.8186045e-51
3.270021e-53
1.3123199e-55
4.9631124e-58
1.9699992e-60
8.3652251e-63
3.3790773e-65
2.0889878e-67
1.5427633e-65
1.7138904e-63
2.5916715e-61
3.30891e-59
3.7765274e-57
3.9746221e-55
4.0329681e-53
4.1579577e-51
4.9141412e-49
7.6675617e-47
1.4292246e-44
9.4092428e-43
1.1045605e-41
5.8953993e-41
2.1864049e-40
5.7726893e-40
8.7095056e-40
2.9332054e-39
1.5031778e-38
2.5113252e-38
9.2745724e-39
1.3817822e-38
1.4567711e-36
1.7304653e-34
1.753574e-32
1.504316e-30
1.1329195e-28
1.3989943e-26
1.5754555e-24
1.2555418e-22
8.0229314e-21
4.2981305e-19
2.0515282e-17
1.2119638e-15
8.1082504e-14
1.3792018e-12
3.1864562e-12
7.2851651e-13
3.1168867e-16
1.6238425e-16
8.1012399e-16
4.650651e-17
2.345711e-16
5.228571e-16
9.9082424e-16
1.7890158e-15
3.0363655e-15
1.2445109e-14
7.4637165e-15
6.6022099e-15
5.9187005e-15
8.4498442e-15
3.4775585e-15
1.2697571e-15
6.4297633e-16
3.3993115e-16
8.1562744e-17
1.4897349e-17
1.5460409e-17
4.5172351e-18
1.4748963e-16
6.7534973e-14
3.3086109e-13
1.3179142e-13
5.3504218e-15
6.5356619e-17
1.2930334e-18
1.9313219e-20
3.0787987e-22
2.8626101e-24
1.154681e-26
1.5091442e-28
1.8925341e-30
2.3132826e-32
2.179107e-32
5.6452111e-33
7.0187534e-34
6.4896214e-35
3.8377918e-36
2.6820796e-37
8.8457022e-38
1.5491809e-37
4.4878541e-38
7.6046272e-39
5.2550339e-39
1.6791164e-39
4.1149969e-40
9.3938177e-41
1.362482e-41
6.814012e-43
1.1541925e-44
1.0057133e-46
6.0852245e-49
2.8318903e-51
1.099162e-53
3.9721654e-56
1.4838065e-58
5.9230731e-61
2.2804962e-63
1.3194314e-65
9.5901582e-64
1.1101904e-61
1.7055553e-59
2.2192052e-57
2.5896353e-55
2.7992318e-53
2.9384841e-51
3.1802574e-49
4.0430074e-47
6.8884341e-45
1.383741e-42
9.1671622e-41
9.9285843e-40
5.101418e-39
1.8602608e-38
4.857315e-38
8.1969753e-38
2.9091008e-37
1.3964828e-36
2.1487651e-36
8.5407348e-37
1.8498645e-36
2.0701915e-34
3.461698e-32
3.615608e-30
3.1273621e-28
2.276559e-26
1.4670564e-24
1.7481622e-22
1.5501283e-20
1.0104962e-18
5.2409463e-17
2.0342967e-15
6.9443672e-14
7.274813e-12
1.1573575e-10
2.4076799e-10
5.7168499e-11
1.006534e-15
5.7218977e-16
4.7834594e-15
1.9237885e-15
9.6138884e-15
1.3445363e-14
2.2322421e-14
3.1960453e-14
4.6641923e-14
1.2959095e-13
9.0581339e-14
4.8692345e-14
3.1277154e-14
7.786049e-14
4.5907627e-14
1.7435384e-14
1.1172133e-14
7.3761861e-15
2.1168955e-15
5.9832246e-16
6.2342392e-16
1.7315387e-16
9.5196646e-15
6.4846732e-12
2.6811583e-11
1.572261e-11
8.7342079e-13
4.4075416e-15
1.4368011e-16
3.2104495e-18
5.9316217e-20
1.0573909e-21
3.6023666e-24
4.9022042e-26
6.2644342e-28
6.6995979e-30
2.725767e-30
7.2358386e-31
7.8786922e-32
7.1535043e-33
3.6701197e-34
2.4424194e-35
8.2667424e-36
1.4036648e-35
4.4646169e-36
8.3180198e-37
4.3565597e-37
1.4140286e-37
3.4286691e-38
7.7364745e-39
1.1779929e-39
6.0937802e-41
1.0177204e-42
8.5846519e-45
5.0511242e-47
2.2918336e-49
8.6382804e-52
2.9939523e-54
1.0542281e-56
3.9461732e-59
1.4424029e-61
7.7722095e-64
5.5809901e-62
6.7401929e-60
1.0515388e-57
1.393616e-55
1.6614128e-53
1.8426102e-51
1.9994108e-49
2.2708302e-47
3.1000853e-45
5.7182591e-43
1.2153841e-40
8.0344926e-39
8.1600604e-38
4.0562962e-37
1.459243e-36
3.7889832e-36
7.089766e-36
2.6373612e-35
1.2031119e-34
1.6872348e-34
7.4196399e-35
1.5217251e-34
1.4301915e-32
2.9682739e-30
4.497178e-28
4.6414603e-26
3.3823917e-24
2.0749707e-22
1.241119e-20
1.26418e-18
1.0118447e-16
3.4009218e-15
2.3519415e-14
6.6850484e-13
4.470369e-10
7.566849e-09
1.4376814e-08
3.449965e-09
1.6468882e-13
2.6759031e-14
5.6392001e-15
6.4320081e-14
2.5768451e-13
1.38795e-13
1.3351809e-13
1.9601582e-13
1.8192543e-13
3.0715151e-13
2.9038386e-13
1.6788968e-13
1.1799488e-13
1.6551699e-13
1.4880335e-13
1.1234999e-13
7.2429278e-14
4.3289866e-14
1.3860538e-14
8.1368071e-15
2.6565248e-15
3.5055931e-15
5.4380903e-13
4.7653871e-10
1.4746497e-09
1.3635749e-09
7.9763243e-11
6.2001234e-14
2.1947236e-15
6.6863059e-17
4.2340561e-18
2.7070204e-19
1.7670458e-20
3.6077962e-23
1.4489306e-25
1.4544974e-27
3.1692251e-28
8.4066415e-29
8.3531656e-30
6.349091e-31
3.1057547e-32
2.0510305e-33
7.0836426e-34
1.182803e-33
3.9936051e-34
7.8662333e-35
3.3651259e-35
1.0884571e-35
2.6117401e-36
5.8397644e-37
9.2912027e-38
4.9762106e-39
8.2898077e-41
6.8234187e-43
3.9240669e-45
1.7427171e-47
6.4011792e-50
2.1355283e-52
7.1031673e-55
2.4877511e-57
8.5938753e-60
4.2864098e-62
3.0495964e-60
3.8478142e-58
6.0937946e-56
8.2214006e-54
1.0005698e-51
1.1377408e-49
1.2754515e-47
1.5207658e-45
2.22842e-43
4.4210353e-41
9.8137801e-39
6.4265887e-37
6.1724529e-36
2.9753934e-35
1.0579174e-34
2.7415988e-34
5.6436708e-34
2.1853568e-33
9.5940924e-33
1.2207909e-32
5.9404542e-33
1.3366154e-32
5.0645673e-31
1.2929391e-28
2.299713e-26
2.9063288e-24
2.7847254e-22
2.0500176e-20
1.0597197e-18
6.2005259e-17
3.3250423e-15
6.0068406e-14
1.5615953e-12
4.1708826e-11
1.6900158e-09
3.2621006e-07
2.9138176e-06
5.7451732e-06
-1.4043831e-14
4.2370164e-14
1.8842553e-14
1.3469277e-12
2.1375982e-11
5.7635868e-12
4.3740779e-12
6.6787603e-12
2.1771444e-12
3.5804746e-13
3.496522e-13
2.1770695e-13
1.7338956e-13
1.4103694e-13
1.4103694e-13
1.6840046e-13
1.3379465e-13
1.5416123e-13
4.9946533e-14
1.2343901e-13
4.9725061e-15
1.2758235e-14
1.654556e-11
5.398586e-07
5.0322485e-07
1.104622e-07
1.1746533e-10
6.724584e-12
2.2500016e-13
1.2858089e-14
1.4495256e-14
1.0247567e-15
1.1103644e-18
2.1185813e-21
2.6506982e-23
2.4737012e-25
2.7008023e-26
8.574642e-27
7.797723e-28
4.94224e-29
2.2885313e-30
1.5733253e-31
5.6189494e-32
9.2543587e-32
3.2222445e-32
6.5742051e-33
2.4027243e-33
7.6927096e-34
1.8276671e-34
4.0602524e-35
6.7424963e-36
3.7501486e-37
6.2915764e-39
5.0835899e-41
2.8688099e-43
1.2510482e-45
4.4922249e-48
1.4477217e-50
4.5612183e-53
1.4924518e-55
4.8487177e-58
2.2220246e-60
1.5690088e-58
2.0716817e-56
3.3291791e-54
4.5699725e-52
5.6738502e-50
6.6108185e-48
7.6565549e-46
9.5939921e-44
1.5089331e-41
3.2024962e-39
7.3521665e-37
4.7362662e-35
4.3177209e-34
2.0194182e-33
7.1046762e-33
1.8414647e-32
4.1364222e-32
1.6571779e-31
7.0510648e-31
8.1921856e-31
4.2735242e-31
1.7544089e-30
1.2010166e-29
1.7388007e-27
3.8273926e-25
5.5669567e-23
5.7796625e-21
4.5595694e-19
2.8619899e-17
1.4465718e-15
6.067792e-14
1.9641733e-12
5.5363121e-11
1.4002197e-09
7.0195414e-08
9.9512655e-06
5.93907e-05
6.8033202e-05
5.5055628e-06
1.0544685e-13
2.1794664e-13
5.5187167e-12
1.1087376e-09
7.6427058e-09
1.6341322e-10
2.4330785e-10
5.7218077e-11
2.3418169e-12
2.4755774e-12
1.1529559e-12
3.4691745e-13
1.5031045e-13
1.4103694e-13
1.5714159e-13
1.8965412e-12
3.0947477e-12
8.0050965e-13
2.6813287e-11
1.2716262e-14
2.7959224e-13
2.4223602e-06
1.7954824e-05
1.9546533e-05
1.1486688e-05
1.6031809e-06
5.5495897e-10
2.2867483e-11
9.3439988e-13
4.4857575e-14
1.7865036e-15
3.5808005e-17
5.5944939e-19
4.5890965e-21
1.9434193e-23
2.7857533e-24
7.9819064e-25
6.2454348e-26
2.8482051e-27
1.6032744e-28
1.030681e-29
4.0490967e-30
6.6944267e-30
2.3516971e-30
4.9209866e-31
1.5837893e-31
5.0089672e-32
1.1794899e-32
2.6106339e-33
4.5298935e-34
2.6289608e-35
4.4808714e-37
3.5706941e-39
1.9832428e-41
8.5151764e-44
2.9975441e-46
9.3646455e-49
2.8041564e-51
8.5679753e-54
2.6051932e-56
1.0873084e-58
7.6213335e-57
1.05497e-54
1.7195339e-52
2.4002817e-50
3.0380381e-48
3.6251413e-46
4.3396727e-44
5.7258785e-42
9.6705747e-40
2.1851714e-37
5.1461368e-35