/*--------------------------------*- C++ -*----------------------------------*\
  =========                 |
  \\      /  F ield         | OpenFOAM: The Open Source CFD Toolbox
   \\    /   O peration     | Website:  https://openfoam.org
    \\  /    A nd           | Version:  9
     \\/     M anipulation  |
\*---------------------------------------------------------------------------*/
FoamFile
{
    format      ascii;
    class       volScalarField;
    location    "0.35";
    object      p;
}
// * * * * * * * * * * * * * * * * * * * * * * * * * * * * * * * * * * * * * //

dimensions      [1 -1 -2 0 0 0 0];

internalField   nonuniform List<scalar> 
10000
(
0
0.034078847
0.080940153
0.12940203
0.19532052
0.27601674
0.36994123
0.47268696
0.57697744
0.68382952
0.79820282
0.91831935
1.0397327
1.16481
1.2986774
1.4478878
1.6072335
1.7755111
1.9515574
2.1343095
2.3227278
2.5157449
2.7123088
2.9113194
3.1116787
3.3122476
3.51188
3.7094243
3.903651
4.0931835
4.2758575
4.4511737
4.6183548
4.7755152
4.9218593
5.0632919
5.1998899
5.3283294
5.4484645
5.5603289
5.6631101
5.7561756
5.8386537
5.9100029
5.9698682
6.0159407
6.0572976
6.0892478
6.1147459
6.1312071
6.1329651
6.1192103
6.0900171
6.0459519
5.987736
5.9161241
5.8314911
5.7343953
5.6251733
5.5037529
5.3700427
5.2233991
5.0663398
4.8986746
4.7204812
4.5322977
4.335263
4.1304364
3.9186223
3.7001441
3.4760749
3.2479219
3.0168775
2.7840565
2.5506345
2.3177924
2.0867448
1.8587296
1.6349709
1.4166775
1.2050982
1.0015835
0.80793183
0.62555574
0.45588127
0.28568873
0.12060125
-0.037365247
-0.19708973
-0.34985758
-0.48928382
-0.61807705
-0.73497118
-0.8387693
-0.92972482
-1.0082193
-1.0740353
-1.1268693
-1.1711821
-1.2009386
-0.046237128
-0.013084589
0.032274566
0.075136169
0.13862674
0.21314872
0.29761683
0.39278797
0.50076713
0.61645752
0.73451251
0.8570881
0.98423397
1.117614
1.259756
1.4126453
1.5750612
1.7460864
1.9247266
2.1099697
2.3009366
2.4965582
2.6957971
2.8976144
3.1009039
3.3045338
3.5073574
3.7082036
3.9058498
4.0990108
4.2863591
4.467003
4.6401542
4.8052998
4.9668713
5.1150439
5.2543885
5.3874053
5.5128203
5.6294134
5.7365951
5.8338126
5.9208928
5.9979784
6.0663429
6.128897
6.1783954
6.2174513
6.2405588
6.2475956
6.241263
6.2212495
6.1870944
6.1386762
6.0761075
5.999582
5.9094904
5.806049
5.6895952
5.5604439
5.4186068
5.2634625
5.1011797
4.9285324
4.7452
4.5525439
4.35136
4.1423813
3.9263908
3.7041993
3.4767768
3.2453589
3.0110568
2.7751193
2.5386729
2.3029301
2.0690987
1.8383831
1.6119417
1.3909497
1.1765157
0.96975171
0.77173249
0.58314827
0.40372174
0.2295686
0.059845613
-0.10748488
-0.26209892
-0.40538177
-0.53718551
-0.66365702
-0.77896153
-0.88025511
-0.96915471
-1.046251
-1.1111118
-1.1632564
-1.2069652
-1.2362229
-0.11251709
-0.077283891
-0.026660927
0.017345443
0.083626899
0.15871056
0.24350041
0.33842333
0.4437279
0.55719263
0.67660644
0.80209713
0.93397076
1.0731629
1.2207953
1.3776585
1.5434513
1.7175328
1.8991247
2.0874505
2.2814816
2.4802951
2.6828582
2.8881147
3.0949466
3.3022425
3.508888
3.7137129
3.9155271
4.1131944
4.3056399
4.4920174
4.6718688
4.8450777
5.0072873
5.1615841
5.3075383
5.4456243
5.5753441
5.6959095
5.8067612
5.9075489
5.9981319
6.0785382
6.1491158
6.2101485
6.259315
6.2959656
6.3182289
6.3255355
6.318426
6.2968473
6.2607931
6.2102752
6.1453326
6.0661234
5.9731027
5.8665369
5.7469233
5.6146523
5.4706759
5.3169959
5.1486171
4.9699913
4.7809004
4.5831017
4.3770744
4.1634212
3.9428686
3.7162944
3.4847388
3.2492715
3.0110448
2.7712235
2.5310068
2.2916076
2.0542334
1.8200658
1.5902685
1.3659072
1.148065
0.93769136
0.73558117
0.5420057
0.35683844
0.17869141
0.0069976094
-0.1580079
-0.3133004
-0.45886717
-0.59685015
-0.71962247
-0.8340733
-0.93165916
-1.0183738
-1.0946994
-1.1590972
-1.2108693
-1.2541961
-1.2832143
-0.17031229
-0.13630988
-0.088878227
-0.043100486
0.021274356
0.095644091
0.17994427
0.27430434
0.37841574
0.49120958
0.6117675
0.73981444
0.87552352
1.0192348
1.1714532
1.332502
1.5022176
1.6801124
1.8655541
2.0577592
2.2558345
2.4588337
2.6657539
2.8755282
3.0870611
3.2992387
3.510908
3.7208894
3.9280289
4.1312211
4.3294034
4.5216355
4.7071493
4.8854282
5.0549258
5.2158994
5.368332
5.5120671
5.6467377
5.7718693
5.8870313
5.9918274
6.0860205
6.1694688
6.2420476
6.3033522
6.3523069
6.3880246
6.4095444
6.4163281
6.4082785
6.3853132
6.3474058
6.2945828
6.2270236
6.1449464
6.0486446
5.93864
5.8151815
5.678892
5.530448
5.3704938
5.1980272
5.0142642
4.8215532
4.6193157
4.4083687
4.189577
3.9637952
3.7319726
3.4951743
3.2545187
3.0111509
2.7662584
2.5210643
2.276808
2.0347198
1.7959777
1.5617128
1.3330052
1.1108539
0.89613413
0.68950165
0.49136572
0.3016691
0.12014077
-0.053275396
-0.21824235
-0.37356362
-0.51873967
-0.65358712
-0.77536576
-0.88216347
-0.98300213
-1.0709372
-1.1492098
-1.2140515
-1.2658595
-1.3089667
-1.3377786
-0.24172791
-0.20891554
-0.16337717
-0.11573569
-0.052743646
0.021028772
0.10510044
0.19929435
0.30327153
0.41651923
0.53853276
0.66909407
0.80816752
0.95589202
1.1124609
1.2779028
1.4520126
1.6343922
1.8244616
2.0214594
2.2245384
2.4327807
2.6451675
2.8606287
3.0780678
3.296334
3.5142475
3.7306211
3.9442952
4.1541386
4.3590584
4.5580583
4.7503281
4.9352376
5.1116554
5.2793471
5.4381349
5.5877166
5.7277146
5.85773
5.9773843
6.0862979
6.1841394
6.2706177
6.3453761
6.4078766
6.4573672
6.493107
6.5143658
6.5206746
6.5117745
6.4875219
6.447851
6.3928015
6.3225797
6.2374693
6.137814
6.0240567
5.8965941
5.7559221
5.602704
5.4373599
5.2599908
5.0714256
4.8727781
4.6646597
4.4476915
4.2227085
3.9906229
3.7524271
3.5091996
3.2621033
3.0123196
2.7610734
2.5096282
2.2592662
2.011245
1.7667375
1.526905
1.2928265
1.0654807
0.84572076
0.63423043
0.43143791
0.23754352
0.052668263
-0.12304624
-0.28922637
-0.44525625
-0.59064591
-0.72496065
-0.84749269
-0.95625663
-1.0567113
-1.1464381
-1.221172
-1.2845647
-1.3356319
-1.3781031
-1.4064513
-0.32411335
-0.29225941
-0.24774464
-0.19909068
-0.13713641
-0.063645177
0.020299814
0.11457699
0.21893823
0.33307762
0.45674403
0.58974891
0.73201004
0.88356061
1.0443909
1.2143915
1.3933223
1.5807803
1.776181
1.978806
2.1878389
2.4023357
2.6212665
2.8435552
3.0680722
3.2936208
3.5189835
3.7429556
3.9643208
4.1818911
4.394527
4.6011695
4.8010018
4.9931142
5.1766932
5.3513363
5.5166961
5.6723739
5.8179886
5.9531675
6.0775526
6.1907713
6.2924443
6.3821848
6.4595248
6.5238746
6.5745791
6.6109916
6.6324986
6.6386435
6.6290709
6.6035902
6.5621354
6.5047796
6.4317656
6.3434183
6.240097
6.1222525
5.9903782
5.8449539
5.6865627
5.5156944
5.332719
5.1383696
4.9334775
4.7187456
4.4949222
4.2628335
4.0234379
3.7777646
3.5269412
3.2721702
3.0146938
2.7558119
2.4968408
2.2391078
1.9839044
1.7324697
1.4859874
1.2455694
1.0122189
0.78680135
0.57002107
0.36239453
0.16427067
-0.024069937
-0.20236371
-0.37027642
-0.52739895
-0.67335855
-0.8078413
-0.93032263
-1.0407223
-1.1401673
-1.228023
-1.3031787
-1.3662106
-1.4168433
-1.4587462
-1.4866725
-0.41767119
-0.38658351
-0.34284851
-0.29365944
-0.23220468
-0.15888472
-0.074900607
0.019659092
0.12466349
0.23997357
0.36542842
0.50089887
0.64633126
0.80167202
0.96681887
1.1416114
1.325771
1.5188493
1.7202744
1.9293538
2.1452477
2.3669971
2.5935601
2.8238228
3.0566112
3.2906663
3.524736
3.7575426
3.9877827
4.2141882
4.4355675
4.650808
4.8589024
5.0589751
5.2502441
5.4322057
5.6043995
5.7664087
5.9178745
6.0584488
6.1877993
6.3055648
6.4113381
6.5046735
6.5850172
6.6517621
6.7042805
6.7419388
6.7641521
6.7704556
6.7604098
6.7338083
6.6905831
6.6308379
6.5548384
6.4629644
6.3556557
6.2333753
6.0966998
5.9461638
5.7822269
5.6054469
5.4162961
5.2154115
5.0035457
4.7815152
4.550022
4.3099014
4.0621607
3.8078612
3.5482042
3.2844723
3.0179936
2.7501452
2.4823209
2.2159048
1.9522668
1.692723
1.4385165
1.190799
0.9506218
0.71887813
0.49631555
0.28351385
0.080923023
-0.11111172
-0.29228415
-0.46230206
-0.62085569
-0.7676649
-0.90256646
-1.0254681
-1.1362807
-1.2352816
-1.3223417
-1.3971835
-1.4598485
-1.5099816
-1.551164
-1.5786884
-0.52224296
-0.49193202
-0.44885832
-0.39954813
-0.33797471
-0.2648649
-0.18080887
-0.08587404
0.019933132
0.13653844
0.26385206
0.40184252
0.55046459
0.70963388
0.87924067
1.0590934
1.2488633
1.448101
1.6562462
1.8725853
2.0962594
2.3262851
2.5615996
2.8010409
3.0433438
3.2872164
3.531307
3.7742308
4.0146007
4.2510572
4.482289
4.7071056
4.9243813
5.1331009
5.3326044
5.5222755
5.7015689
5.8701174
6.0276437
6.1738421
6.3084049
6.4309921
6.5411886
6.6384918
6.7222911
6.7919535
6.8468497
6.8863168
6.9097068
6.9165297
6.9062644
6.8786659
6.8336561
6.7713925
6.6921631
6.5964031
6.4847153
6.3576377
6.215765
6.0597178
5.8898916
5.7067974
5.5109665
5.3028951
5.0832729
4.8532515
4.6132312
4.3641104
4.1069021
3.8427626
3.5729971
3.2989625
3.0220877
2.7438553
2.4657618
2.1892856
1.9158985
1.6470241
1.3839749
1.1279544
0.88008129
0.64130869
0.41241862
0.19403491
-0.013337185
-0.20932183
-0.39362248
-0.56600965
-0.72627202
-0.87380662
-1.009533
-1.1328153
-1.2437226
-1.342414
-1.4289246
-1.5032576
-1.5654018
-1.6150542
-1.6551568
-1.6824924
-0.63781642
-0.60822786
-0.56576344
-0.51644936
-0.45490711
-0.38190866
-0.29776226
-0.20238633
-0.095744007
0.022171429
0.15138661
0.29191772
0.44374588
0.60683219
0.78107185
0.96624283
1.1620168
1.3679704
1.5835237
1.8079246
2.0403099
2.2796789
2.5249083
2.7747624
3.0279143
3.2829645
3.5384564
3.7928675
4.0447183
4.2925223
4.5348016
4.7702557
4.9976173
5.2158307
5.4241042
5.6218046
5.8084322
5.9837146
6.1474997
6.299562
6.4396063
6.5672986
6.6822352
6.7839205
6.8716781
6.9448244
7.0026838
7.0445153
7.0695701
7.0774733
7.0672628
7.0387823
6.9919403
6.9269304
6.8441268
6.7440835
6.6275582
6.4952596
6.3477654
6.1857551
6.0097236
5.8199452
5.6168918
5.401047
5.1728963
4.9342257
4.6847955
4.425649
4.1578019
3.8825583
3.6013284
3.3155653
3.0268088
2.7366769
2.4468132
2.1588312
1.874317
1.5948073
1.3217191
1.056355
0.79988962
0.55333181
0.31752004
0.093120229
-0.11934323
-0.31950353
-0.50712498
-0.68205881
-0.8436623
-0.99279632
-1.1291172
-1.2526445
-1.3634705
-1.4617841
-1.5477481
-1.6214701
-1.6829844
-1.7321758
-1.772371
-1.7984187
-0.76432924
-0.73546505
-0.69365778
-0.64445505
-0.58312117
-0.51026452
-0.42604487
-0.33030414
-0.22288272
-0.10369759
0.027381769
0.17041368
0.3254617
0.49254538
0.67156153
0.86230936
1.0644969
1.2777073
1.5013432
1.7346467
1.9767249
2.2265415
2.482895
2.7444632
3.0098429
3.2775126
3.5458705
3.8132718
4.0780709
4.3386197
4.5932741
4.8404981
5.0789207
5.3074315
5.5250383
5.7310849
5.9252478
6.107415
6.277567
6.4356453
6.5814252
6.7145471
6.8346078
6.94114
7.0334049
7.1106583
7.1721413
7.2169735
7.2442412
7.2539447
7.2440592
7.2148437
7.1660993
7.0980352
7.011203
6.9063731
6.7843989
6.6462621
6.4927312
6.3243877
6.14177
5.9450686
5.7344093
5.5102149
5.2731119
5.0248217
4.7651021
4.4947704
4.2150655
3.9273869
3.6332294
3.3341848
3.0319441
2.7283004
2.4250603
2.1240072
1.8268784
1.535344
1.2509621
0.9751499
0.70915647
0.45404105
0.21069505
-0.020172623
-0.23802347
-0.44253709
-0.63352837
-0.81084904
-0.97457221
-1.1248211
-1.2616719
-1.3852789
-1.4958341
-1.5936017
-1.6788541
-1.751785
-1.81247
-1.860858
-1.8998216
-1.9257168
-0.9017522
-0.87366724
-0.83257087
-0.78370147
-0.72276726
-0.65017477
-0.56593216
-0.47000705
-0.36196947
-0.24165823
-0.1088547
0.036602715
0.19483766
0.36593324
0.54983981
0.7464152
0.95540809
1.1763993
1.4087998
1.6518633
1.9046521
2.1660621
2.4348172
2.7094907
2.9885626
3.27038
3.5531966
3.8352114
4.1145602
4.3894059
4.657887
4.9181847
5.1688229
5.40835
5.635851
5.8506028
6.0523841
6.2413442
6.4178001
6.5819515
6.733684
6.8726246
6.9983063
7.1101939
7.2075607
7.2896112
7.3554798
7.4041458
7.4346076
7.4463308
7.4373691
7.4076402
7.3569238
7.2854706
7.1939625
7.0835275
6.9553588
6.810638
6.6504736
6.4755388
6.2861331
6.0822762
5.8638083
5.630667
5.3825769
5.1253114
4.854472
4.5718395
4.2789485
3.9773455
3.6686592
3.3546565
3.0372141
2.718323
2.3999685
2.084146
1.7727907
1.4677441
1.1707268
0.88328399
0.60677283
0.34230179
0.090793646
-0.1470257
-0.37046593
-0.57926452
-0.77383128
-0.95380141
-1.1192564
-1.2704458
-1.4076191
-1.5310608
-1.6410977
-1.7380758
-1.8223692
-1.894263
-1.9538849
-2.0013987
-2.0403187
-2.0647605
-1.0500436
-1.0227884
-0.98257925
-0.9342802
-0.87394847
-0.80186295
-0.71792847
-0.62187486
-0.51335722
-0.39233876
-0.25800288
-0.11027189
0.050995897
0.22605271
0.41492761
0.61753193
0.83366544
1.0629487
1.3048155
1.5585071
1.8230377
2.097231
2.3797327
2.6690049
2.9633541
3.26099
3.559999
3.8583844
4.1540559
4.4449048
4.7288213
5.0037172
5.2676814
5.519196
5.7571787
5.9808135
6.1900341
6.3854745
6.5679932
6.7381816
6.8961104
7.0413151
7.1731373
7.2909343
7.3940505
7.481662
7.5528095
7.6063171
7.6409452
7.6555585
7.6482369
7.6183196
7.5654753
7.4900669
7.3930303
7.2758406
7.1403661
6.9882327
6.8207534
6.6388388
6.4426327
6.2317068
6.0054931
5.7637424
5.5070673
5.2369914
4.953424
4.6571792
4.3496446
4.0324879
3.7075467
3.3767717
3.0422615
2.7062217
2.3708732
2.0384434
1.7111043
1.3909349
1.0798586
0.77953134
0.49145384
0.21680247
-0.043476393
-0.2888012
-0.51731688
-0.73122571
-0.92926765
-1.1116206
-1.2785188
-1.430334
-1.5674677
-1.6903646
-1.7995152
-1.8953549
-1.9783578
-2.048921
-2.1071631
-2.1529612
-2.1910508
-2.2147565
-1.2091048
-1.1828287
-1.1437019
-1.0962191
-1.0367981
-0.96554411
-0.88223853
-0.78650609
-0.67790356
-0.55600896
-0.42075083
-0.27101526
-0.10706381
0.071866873
0.26570922
0.47444385
0.69800425
0.93606994
1.1880924
1.453291
1.7306313
2.0188669
2.3165443
2.6219927
2.9333368
3.2486107
3.5656949
3.8823659
4.1963027
4.5051033
4.8063035
5.097477
5.3762565
5.6406088
5.8896813
6.1221362
6.3382954
6.5395564
6.7276098
6.9037725
7.0682474
7.2202418
7.3587682
7.4830873
7.5926065
7.6866111
7.7641256
7.8237488
7.8638316
7.8826571
7.8778893
7.8482851
7.7931992
7.7129714
7.6090629
7.4836438
7.3392788
7.178442
7.002889
6.813703
6.6108401
6.3932788
6.1595211
5.9084603
5.6401456
5.3589109
5.0620186
4.7508834
4.4272066
4.0928209
3.7497892
3.400321
3.0467287
2.691442
2.3369959
1.9859219
1.6406814
1.3036093
0.97687829
0.6623295
0.36160868
0.07598675
-0.1935029
-0.44594778
-0.6813177
-0.89964988
-1.1008728
-1.285253
-1.4531832
-1.6051678
-1.7417841
-1.863628
-1.971368
-2.065595
-2.1469157
-2.2158223
-2.2727628
-2.3187106
-2.3536551
-2.3758688
-1.3788414
-1.3536963
-1.3159067
-1.2695607
-1.2114262
-1.1413879
-1.0591512
-0.96423302
-0.85605265
-0.73403156
-0.59764815
-0.44618351
-0.28052976
-0.097788994
0.10090976
0.31573514
0.54695834
0.79426605
1.0571062
1.3346861
1.6259595
1.9295827
2.2439678
2.5672792
2.8974646
3.2323324
3.5695279
3.9065766
4.2408941
4.5697992
4.8904668
5.1998912
5.4950367
5.7731527
6.0342363
6.2751634
6.497161
6.7028673
6.8955563
7.0777196
7.2493791
7.4089576
7.5548612
7.6862518
7.8027208
7.9039223
7.9890582
8.0564897
8.1039951
8.1288858
8.1280273
8.0993859
8.0418672
7.9557679
7.8430976
7.7071493
7.5516647
7.3802227
7.1955284
6.9989409
6.790093
6.5668565
6.3260865
6.0656144
5.7854074
5.4917551
5.1803851
4.8530016
4.5116062
4.158251
3.7952107
3.4249665
3.0500722
2.6732359
2.2973764
1.9253854
1.5600934
1.2041682
0.8600532
0.52985591
0.21537827
-0.081903038
-0.36100922
-0.62154835
-0.86311776
-1.085813
-1.2898869
-1.4757976
-1.6441581
-1.7956652
-1.9311115
-2.0512519
-2.1569247
-2.2489082
-2.3279732
-2.3947069
-2.4497907
-2.493156
-2.5268273
-2.5476588
-1.5590447
-1.5352807
-1.4991093
-1.4543193
-1.3978781
-1.3295588
-1.2489523
-1.1554318
-1.048279
-0.92679222
-0.79026665
-0.6379733
-0.46943567
-0.28398273
-0.080798808
0.13973729
0.37881831
0.63577279
0.91006444
1.2009206
1.5072777
1.8277082
2.1604542
2.5034646
2.8544801
3.2110425
3.5705352
3.930208
4.2872244
4.6386082
4.9811494
5.311285
5.6249531
5.9162585
6.1921301
6.4407964
6.6663867
6.8739396
7.0698633
7.2583996
7.4384688
7.6069317
7.7610655
7.8998373
8.0234929
8.1325531
8.2266827
8.3040389
8.3616117
8.3955505
8.4009474
8.3744386
8.3141906
8.2205663
8.0964184
7.9465354
7.7766098
7.5919647
7.3966136
7.1925788
6.9790511
6.7520574
6.5054865
6.2355427
5.942437
5.635365
5.3082483
4.963245
4.6025335
4.2284395
3.8434511
3.4502269
3.0516062
2.6507063
2.2508511
1.8554055
1.4676691
1.0907064
0.72730106
0.37990642
0.050680981
-0.25912648
-0.54862393
-0.81717936
-1.0646689
-1.2913369
-1.497696
-1.6844453
-1.8524119
-2.0025807
-2.1359821
-2.2535748
-2.3563609
-2.4453338
-2.5214903
-2.5856109
-2.6381012
-2.6790006
-2.7107544
-2.7299393
-1.7494502
-1.7274291
-1.6931961
-1.6503906
-1.5961821
-1.5301897
-1.4518684
-1.3604643
-1.2551359
-1.1350071
-0.99916012
-0.84666508
-0.67665428
-0.48819909
-0.28031682
-0.055810691
0.19158143
0.45855916
0.74486773
1.0498873
1.3725379
1.7112707
2.0641466
2.4288664
2.8028786
3.1833962
3.5674948
3.9521267
4.3342451
4.7106163
5.0776977
5.4316285
5.7685385
6.085226
6.3669869
6.6193126
6.8441944
7.0498028
7.2469942
7.4432134
7.6343474
7.814071
7.9774864
8.1233074
8.2535461
8.3707288
8.4754028
8.5655404
8.6370255
8.6841773
8.6994865
8.6772889
8.6142333
8.5106874
8.37091
8.2020906
8.0127739
7.8110009
7.6028645
7.3914915
7.1756325
6.9483669
6.6976132
6.4178807
6.1114301
5.7890914
5.444662
5.0805882
4.6991805
4.3027453
3.8938759
3.4753606
3.0504527
2.6227259
2.1960088
1.7742588
1.3613474
0.96085326
0.5760626
0.21002881
-0.13533569
-0.45857852
-0.75864352
-1.0351238
-1.2881133
-1.5180929
-1.7258647
-1.9124549
-2.0789772
-2.2267283
-2.3570007
-2.4709993
-2.5698721
-2.6547769
-2.7274061
-2.788499
-2.8375967
-2.875722
-2.9051383
-2.9224045
-1.949831
-1.9298487
-1.8979569
-1.8576515
-1.8062916
-1.743315
-1.6680707
-1.5796877
-1.4771553
-1.3593837
-1.2252355
-1.073555
-0.90319103
-0.71303701
-0.50217961
-0.27043025
-0.016559851
0.26032805
0.55904073
0.87906833
1.2192671
1.5779298
1.9528721
2.3415184
2.7408766
3.1477569
3.5588642
3.9708276
4.380322
4.7839892
5.178171
5.5582425
5.9193076
6.2552839
6.5538113
6.8076785
7.0279407
7.2281186
7.4215517
7.6291377
7.836639
8.0316466
8.2051355
8.3561896
8.490746
8.6152201
8.7320415
8.8389375
8.9300852
8.9968543
9.0276876
9.0134098
8.9478393
8.8309925
8.6693334
8.4740742
8.2581035
8.033373
7.8092135
7.590739
7.3765112
7.1549333
6.9006667
6.6089238
6.2888681
5.9485479
5.5860464
5.2026413
4.7999297
4.3799854
3.9455266
3.4995568
3.0456514
2.5879882
2.1311115
1.6797501
1.2384989
0.81170078
0.40340516
0.016757523
-0.34602217
-0.6832534
-0.99401129
-1.2780792
-1.5358582
-1.7681393
-1.9761176
-2.1612031
-2.3249214
-2.4688912
-2.5947178
-2.7038999
-2.7976864
-2.8769123
-2.9465235
-3.0028345
-3.0479897
-3.082835
-3.109505
-3.1245861
-2.1598357
-2.1421741
-2.1130918
-2.07587
-2.0280309
-1.9688844
-1.8976818
-1.8133947
-1.7148095
-1.6006274
-1.4694755
-1.3199087
-1.1504556
-0.95970694
-0.74640801
-0.50956125
-0.24808924
0.038175846
0.34955131
0.68540976
1.0444765
1.4248813
1.8240992
2.2390881
2.6663718
3.1022061
3.5428013
3.9843917
4.4233228
4.8562361
5.2799154
5.68898
6.0770059
6.4382611
6.7552977
7.0106054
7.2165742
7.3997462
7.5845267
7.8119771
8.0458812
8.2626645
8.4466294
8.5983009
8.731518
8.8600391
8.9906221
9.1196419
9.2389346
9.3359484
9.3916733
9.3911009
9.3236723
9.1885409
8.9957467
8.7628594
8.5093908
8.2529285
8.0075052
7.7817887
7.5765216
7.3764382
7.1130734
6.7994794
6.4655412
6.106713
5.7276149
5.3259732
4.9023583
4.4584545
3.9972805
3.5218507
3.0360522
2.5449638
2.05411
1.5692607
1.0960493
0.63981541
0.20534244
-0.20393557
-0.58526619
-0.93695052
-1.2582375
-1.5492022
-1.8106425
-2.0437943
-2.2503471
-2.4321881
-2.5913386
-2.7298127
-2.8496061
-2.9526107
-3.0404946
-3.1168259
-3.1777586
-3.2283036
-3.2687439
-3.2997343
-3.3232543
-3.3359074
-2.3788297
-2.3639343
-2.3381623
-2.3046458
-2.2611137
-2.2067606
-2.1407088
-2.0617632
-1.9685174
-1.8594409
-1.7328772
-1.5870376
-1.4201
-1.230256
-1.0158154
-0.77525422
-0.50727962
-0.21114391
0.11328892
0.4653025
0.84459945
1.2487367
1.6747272
2.1188515
2.5769842
3.0446651
3.5173293
3.9906239
4.4604478
4.923358
5.3769652
5.8153138
6.229845
6.6216976
6.9632523
7.2069716
7.3538069
7.5070691
7.7115176
7.9811357
8.2660021
8.5147993
8.7085599
8.8514076
8.9710249
9.0963899
9.2425022
9.4010648
9.5603153
9.7038787
9.8001719
9.8231717
9.7550404
9.5936969
9.3553202
9.0680667
8.7614532
8.4604917
8.1858051
7.9507409
7.7650268
7.6029385
7.3201804
6.9697014
6.6086522
6.241722
5.8549831
5.4423522
5.0021412
4.5359337
4.0479624
3.5412118
3.0204278
2.4919286
1.9625661
1.4396067
0.93011403
0.4407845
-0.023015887
-0.45688886
-0.85783955
-1.2242034
-1.5554642
-1.8521412
-2.1155642
-2.3476319
-2.550594
-2.7269761
-2.8793248
-3.0101714
-3.1219557
-3.2169604
-3.2979323
-3.364815
-3.4195267
-3.4639634
-3.4990636
-3.5256592
-3.545635
-3.555685
-2.6062785
-2.5945005
-2.5725918
-2.5434899
-2.5051252
-2.4566587
-2.3970152
-2.3248662
-2.2386139
-2.136466
-2.0164248
-1.8763387
-1.7139706
-1.5270265
-1.3132722
-1.0706345
-0.79736777
-0.49223598
-0.15462887
0.21510669
0.61539849
1.0454487
1.5010444
1.9776458
2.4701708
2.9730451
3.4805494
3.9874177
4.4889611
4.9813028
5.4652662
5.9371129
6.3708799
6.7530976
7.0807483
7.3185122
7.4233827
7.6176217
7.7642088
8.1360204
8.5131563
8.8078612
9.0044721
9.1189206
9.2004958
9.3083191
9.4727731
9.6705631
9.8864633
10.102754
10.264633
10.327871
10.261423
10.061813
9.7558448
9.3884457
9.0051701
8.6412094
8.3246916
8.0690633
7.920327
7.7537627
7.4083262
7.0036632
6.6569348
6.3333327
5.9619569
5.5489245
5.0965581
4.6105877
4.0966151
3.5569458
2.9977333
2.4269246
1.8534044
1.2865934
0.73570116
0.20865618
-0.28764136
-0.74816056
-1.1696492
-1.5504971
-1.8906134
-2.1911653
-2.4542044
-2.6824713
-2.8790125
-3.0470911
-3.1898995
-3.310544
-3.411943
-3.4971571
-3.5675888
-3.625229
-3.6718679
-3.70913
-3.7380762
-3.7596808
-3.7757114
-3.7829745
-2.8413832
-2.8330206
-2.815738
-2.7917978
-2.7594546
-2.718065
-2.6662912
-2.6026521
-2.5253235
-2.4322342
-2.3210614
-2.1892552
-2.0340477
-1.8525659
-1.6419289
-1.3994187
-1.1226166
-0.80965167
-0.45938075
-0.071642009
0.35236062
0.8101762
1.298745
1.8118734
2.3431323
2.8853299
3.4310297
3.9732535
4.5059395
5.0240439
5.5303732
6.0131023
6.4238753
6.797174
7.2064319
7.7790692
10.038095
10.784755
7.983361
8.3332881
8.820753
9.1729263
9.3485487
9.3987622
9.4029589
9.4604999
9.6503476
9.9034122
10.205611
10.534532
10.803255
10.934026
10.872065
10.613571
10.206256
9.7212582
9.2276668
8.7721469
8.3861724
8.0804561
8.0279927
8.2815614
8.0033604
7.2955925
6.5194191
6.2565779
5.9824753
5.6274392
5.1811497
4.681186
4.1435209
3.5693364
2.9672776
2.3477729
1.7228634
1.1050882
0.50613399
-0.063696473
-0.59617136
-1.0854308
-1.5279933
-1.9225107
-2.2695524
-2.571206
-2.8305761
-3.0514347
-3.2378895
-3.3940744
-3.5239695
-3.6313948
-3.7200631
-3.7921775
-3.8504133
-3.8970568
-3.9340093
-3.9628538
-3.9847292
-4.0006574
-4.0123709
-4.0167954
-3.0832874
-3.0784076
-3.0671114
-3.0488968
-3.0231226
-2.990269
-2.9480366
-2.8948636
-2.8286656
-2.7471429
-2.6476745
-2.527205
-2.382374
-2.209631
-2.0053356
-1.7659254
-1.488086
-1.1691011
-0.80703459
-0.40115144
0.047779987
0.53710624
1.0625586
1.617423
2.1929992
2.7799559
3.368396
3.9486758
4.5119119
5.0507902
5.5681781
6.046227
6.4400001
6.844616
7.308426
9.6949569
11.336839
11.497749
9.9973944
8.4816403
9.202766
9.6384178
9.7604553
9.7197073
9.5485091
9.4707194
9.7151623
10.057005
10.495791
10.992705
11.449143
11.699123
11.646875
11.288517
10.712086
10.048785
9.4015441
8.8163356
8.3073294
7.9083543
8.3357343
8.457987
8.4202196
8.1981289
6.5471741
6.0391049
5.9142046
5.6734191
5.2528758
4.7491953
4.1916459
3.580446
2.9290116
2.2521474
1.566119
0.88817633
0.23324256
-0.38561461
-0.95842124
-1.4784156
-1.9419975
-2.3484091
-2.6992558
-2.99795
-3.249071
-3.4577773
-3.6294675
-3.7693473
-3.8822921
-3.973247
-4.0452438
-4.1016342
-4.1454628
-4.1791585
-4.2047632
-4.223865
-4.2376813
-4.2472653
-4.2542414
-4.2558676
-3.3432824
-3.3399251
-3.3284373
-3.3144832
-3.2942822
-3.2725622
-3.2414652
-3.2009507
-3.1483947
-3.0813403
-2.9969267
-2.8915014
-2.7610367
-2.6012075
-2.407443
-2.1751174
-1.8997851
-1.5775382
-1.2053308
-0.78151764
-0.30626216
0.21788929
0.78560722
1.3889399
2.0167122
2.6563242
3.2943241
3.9175262
4.5133455
5.0704976
5.5899722
6.0520924
6.3987502
6.7217203
7.2069306
11.038348
11.09633
10.736901
10.482287
8.6453862
9.7302422
10.241944
10.286734
10.216251
9.6584974
9.3206048
9.6809822
10.128364
10.710925
11.44506
12.225816
12.665687
12.62343
12.115757
11.283529
10.340365
9.477531
8.7248406
8.0474809
7.5313809
7.9205252
7.8552024
6.727848
6.0499399
5.6152589
5.5585784
5.7391167
5.6715099
5.3114872
4.8233067
4.2492414
3.5958735
2.8844994
2.1373187
1.376692
0.62642558
-0.0944702
-0.76975404
-1.3873709
-1.9395859
-2.4230458
-2.8380852
-3.1879312
-3.4778768
-3.7144899
-3.9048091
-4.0558355
-4.1740293
-4.2658516
-4.3353006
-4.3869009
-4.4245742
-4.4514321
-4.4700686
-4.4825689
-4.4905878
-4.4952881
-4.4977628
-4.4995697
-4.4983334
-3.5960554
-3.5963179
-3.5922462
-3.5873739
-3.5811483
-3.5656276
-3.5453387
-3.5200671
-3.4838344
-3.434446
-3.3691453
-3.2832649
-3.1720605
-3.0303966
-2.8525883
-2.632693
-2.3648056
-2.0434264
-1.6639603
-1.2232777
-0.72047559
-0.15774285
0.45897395
1.1196428
1.8105543
2.5144283
3.2128851
3.8878287
4.5226009
5.1011551
5.6192921
6.0597414
6.3398113
6.4945701
6.7110838
8.9145938
10.687967
9.3931015
7.3053918
9.007178
10.434024
10.92046
10.800076
10.511488
9.4098929
8.8080872
9.5537316
10.022953
10.818827
11.90041
13.131243
13.789934
13.699665
12.975065
11.870156
10.583423
9.3886978
8.4491205
7.6665603
7.2986206
7.8812924
6.576991
5.8853234
5.0486361
4.6906457
5.0812074
5.5954621
5.6983229
5.4061192
4.9358182
4.3364615
3.6269624
2.8376355
1.9986125
1.1455223
0.30652189
-0.4930822
-1.2334159
-1.9002055
-2.485125
-2.9855136
-3.4036338
-3.7452166
-4.0182109
-4.2318242
-4.3955997
-4.5187205
-4.6097697
-4.673646
-4.7166103
-4.7438475
-4.7594093
-4.7665351
-4.7678882
-4.7655166
-4.761038
-4.75559
-4.7501558
-4.7462489
-4.741681
-3.8506014
-3.8549504
-3.8576744
-3.8613377
-3.8645343
-3.8647104
-3.8620335
-3.8514106
-3.8338277
-3.8053333
-3.7642613
-3.7032828
-3.6172509
-3.5003166
-3.3454502
-3.1451107
-2.8915296
-2.5771428
-2.1950786
-1.7399766
-1.2090624
-0.60348274
0.070398991
0.8001573
1.569509
2.3542875
3.1299437
3.8713827
4.5572196
5.1676399
5.6927702
6.1206295
6.3669514
6.4438894
6.6086156
7.1094003
7.2720898
6.7936905
7.5557018
8.6586398
10.728432
13.689765
14.486085
9.8616301
8.5093469
7.884468
8.9621748
9.0552589
10.786025
12.508479
14.268567
15.274352
15.133408
14.143647
12.332636
10.459108
9.0013154
7.8549102
7.2446146
7.1349997
8.1019904
6.5870387
5.8358461
5.1344231
4.9409548
5.3519075
5.8587765
5.934781
5.6384162
5.1439341
4.4864735
3.6908284
2.7917296
1.8306562
0.85747189
-0.092110783
-0.98620362
-1.8009124
-2.5202484
-3.1360463
-3.6474127
-4.0596386
-4.3821405
-4.6267025
-4.8059401
-4.932715
-5.0212637
-5.0753682
-5.1045726
-5.1157071
-5.1141122
-5.1039658
-5.0885217
-5.0703137
-5.0513306
-5.0330206
-5.016391
-5.0022993
-4.9920513
-4.9836215
-4.1045026
-4.1134425
-4.123267
-4.1363171
-4.1513071
-4.1667306
-4.1814495
-4.1928521
-4.1980171
-4.1914225
-4.1819676
-4.1518724
-4.0978638
-4.0138711
-3.8909342
-3.7195641
-3.4898127
-3.1912669
-2.8140392
-2.3493074
-1.791102
-1.1383728
-0.39711875
0.41801139
1.2845285
2.1747957
3.0519101
3.8820131
4.6381227
5.2981452
5.8492351
6.2886807
6.5665228
6.6952441
6.9461366
7.2826741
7.4296828
7.5781194
7.6107761
8.16939
11.052528
12.786998
12.100375
8.4026666
6.2978927
6.6288855
11.041895
23.674539
30.3421
18.486999
16.793764
17.944393
17.659015
16.655037
13.74316
9.9679587
8.1031003
6.705509
6.919942
6.6470219
7.9531642
7.0030211
6.6748107
6.2585689
6.2003688
6.3918572
6.5885127
6.468151
6.0794137
5.4971132
4.7328804
3.8076226
2.7441304
1.6190879
0.48659833
-0.60221466
-1.608553
-2.5063709
-3.2792368
-3.9201111
-4.4314705
-4.8234292
-5.1111315
-5.3117229
-5.4416249
-5.5243733
-5.5616376
-5.5695059
-5.5566755
-5.5300151
-5.494888
-5.455366
-5.4145095
-5.3745995
-5.3373284
-5.3039468
-5.2751948
-5.2517793
-5.2346445
-5.2218945
-4.3553433
-4.3693468
-4.3867911
-4.4101381
-4.4383909
-4.470445
-4.5052194
-4.5410101
-4.576066
-4.609558
-4.6243087
-4.6290421
-4.6139086
-4.5734485
-4.4940254
-4.3640665
-4.1710729
-3.9012691
-3.5404002
-3.0746192
-2.4926756
-1.7892545
-0.96856536
-0.047514541
0.94434716
1.9719687
2.9863024
3.9345752
4.7863842
5.5182938
6.1158525
6.5796478
6.8845362
7.0151549
7.1009375
7.1537403
7.0640751
6.822947
6.370911
5.8813726
9.701845
10.431846
9.6108005
6.2379949
0.20825478
7.2488035
15.678228
23.179166
30.10061
34.263051
21.217039
22.18276
21.316877
20.305829
18.149041
23.141181
18.211614
5.4361335
6.9228274
7.777668
7.7946588
8.3108644
7.6536903
7.7223067
7.7673182
7.7256923
7.5908718
7.2564713
6.7350173
6.0161973
5.0971628
3.9956205
2.6790558
1.3316798
-0.014600619
-1.2786379
-2.4140674
-3.3994423
-4.2210475
-4.8738616
-5.3661354
-5.7155909
-5.9458765
-6.082171
-6.1508174
-6.1618799
-6.1374042
-6.0892081
-6.0263689
-5.9557037
-5.8822922
-5.8098329
-5.7409086
-5.677353
-5.620408
-5.5709041
-5.529301
-5.4959962
-5.4715823
-5.4541533
-4.6006147
-4.6200691
-4.6456282
-4.6800276
-4.7226225
-4.7726741
-4.8294285
-4.8916028
-4.9573721
-5.0238175
-5.084173
-5.1337561
-5.1624713
-5.1811575
-5.1595136
-5.0867848
-4.9482003
-4.725718
-4.399096
-3.9470879
-3.3499683
-2.5945536
-1.6804729
-0.62625089
0.52922711
1.7341856
2.9435567
4.0465413
5.0237904
5.8513346
6.5151142
7.0159653
7.3378651
7.4195693
7.2529889
6.865452
6.4849028
6.5741617
5.6841657
4.9358881
8.9251409
7.3365933
9.1124092
6.5053795
-0.25380797
6.4593271
22.373884
20.87573
25.757395
28.402393
29.463842
27.996203
26.04291
25.193589
22.503247
31.858443
31.310988
10.55655
6.8617676
8.208224
7.6108044
8.4358041
8.5503112
8.9585622
9.0739041
8.9574109
8.6589973
8.2079166
7.5705221
6.6928954
5.5759092
4.2457104
2.5725846
0.91838752
-0.7292786
-2.2168755
-3.49159
-4.5569617
-5.4093581
-6.0455182
-6.4854841
-6.7584376
-6.8991136
-6.9433217
-6.9174099
-6.8449902
-6.7447243
-6.6294816
-6.5082924
-6.3874524
-6.2712817
-6.1626638
-6.0634328
-5.9746763
-5.8970304
-5.8307123
-5.7757948
-5.7322534
-5.7003341
-5.6779601
-4.837697
-4.862873
-4.8968733
-4.9428111
-5.0004812
-5.0696118
-5.1499469
-5.2407567
-5.3406914
-5.4474024
-5.5570592
-5.6658296
-5.7702398
-5.8416406
-5.8912788
-5.8950558
-5.8347122