/*--------------------------------*- C++ -*----------------------------------*\
  =========                 |
  \\      /  F ield         | OpenFOAM: The Open Source CFD Toolbox
   \\    /   O peration     | Website:  https://openfoam.org
    \\  /    A nd           | Version:  9
     \\/     M anipulation  |
\*---------------------------------------------------------------------------*/
FoamFile
{
    format      ascii;
    class       surfaceScalarField;
    location    "0.35";
    object      phi;
}
// * * * * * * * * * * * * * * * * * * * * * * * * * * * * * * * * * * * * * //

dimensions      [0 3 -1 0 0 0 0];

internalField   nonuniform List<scalar> 
19800
(
3.5103233e-05
-1.8791679e-05
1.1802622e-05
-1.712527e-05
-1.2372139e-05
-1.5210903e-05
-3.7712495e-05
-1.280308e-05
-6.4091542e-05
-1.0011051e-05
-9.1805473e-05
-6.2933592e-06
-0.00012054747
-2.2482489e-06
-0.00014967269
2.1293015e-06
-0.00017923235
7.7042861e-06
-0.00020994931
1.4704538e-05
-0.00024159192
2.1666351e-05
-0.00027356597
2.8553519e-05
-0.00030607565
3.4980354e-05
-0.00033985906
4.0313294e-05
-0.00037609799
4.4609054e-05
-0.00041384949
4.8568819e-05
-0.00045293839
5.2120553e-05
-0.00049300654
5.5195971e-05
-0.00053367976
5.7726599e-05
-0.00057469728
5.9692174e-05
-0.00061558915
6.0955315e-05
-0.00065594226
6.1447043e-05
-0.00069534747
6.133562e-05
-0.00073324592
6.0126933e-05
-0.00076907734
5.8064287e-05
-0.00080227453
5.5062082e-05
-0.00083226131
5.1291653e-05
-0.00085850878
4.6958952e-05
-0.00088029758
4.1959925e-05
-0.00089638725
3.6698468e-05
-0.00090573811
3.084144e-05
-0.00090879826
2.4098704e-05
-0.00090518659
1.6203147e-05
-0.0008947041
7.9172699e-06
-0.00087832418
3.3923914e-07
-0.00085695091
-7.3075295e-06
-0.00082928038
-1.5946923e-05
-0.00079569596
-2.2649512e-05
-0.0007554425
-2.7030326e-05
-0.0007087926
-3.034717e-05
-0.00065593352
-3.2158877e-05
-0.00059651797
-3.1821867e-05
-0.0005308466
-2.9652225e-05
-0.00045929927
-2.5466488e-05
-0.00038226238
-2.0290296e-05
-0.00030110055
-1.3496806e-05
-0.00021555821
-8.0594426e-06
-0.00012669633
-2.7315275e-06
-3.5887509e-05
1.9793865e-06
5.5928864e-05
5.3843021e-06
0.00014693225
8.4307105e-06
0.00023614782
1.0694694e-05
0.00032236949
1.2042924e-05
0.00040440195
1.2767515e-05
0.00048137803
1.2783301e-05
0.00055264649
1.2832399e-05
0.0006174664
1.2684478e-05
0.00067523621
1.3300179e-05
0.00072599135
1.4472275e-05
0.00076936689
1.6239279e-05
0.00080546129
1.9753686e-05
0.00083397991
2.3317288e-05
0.00085533349
2.8219284e-05
0.00086967187
3.2991285e-05
0.00087677419
3.9337665e-05
0.00087707219
4.4773039e-05
0.00087067757
5.0760512e-05
0.00085813178
5.5556977e-05
0.00083930877
5.983277e-05
0.00081370093
6.2803293e-05
0.00078277765
6.5836056e-05
0.00074801055
6.8099771e-05
0.00071020103
7.017755e-05
0.00067006943
7.1282006e-05
0.00062825871
7.1637261e-05
0.0005853689
7.1122565e-05
0.0005420012
6.9715881e-05
0.00049871444
6.7453135e-05
0.00045597027
6.4391698e-05
0.00041429752
6.0583271e-05
0.00037410818
5.6127768e-05
0.00033578046
5.1021756e-05
0.00029969068
4.5362288e-05
0.00026660102
3.9076165e-05
0.00023586567
3.1593662e-05
0.00020528592
2.2292011e-05
0.00017605599
1.2367636e-05
0.000147812
2.6879241e-06
0.0001195497
-4.3798277e-06
9.3023916e-05
-1.1648126e-05
6.8913944e-05
-1.8478842e-05
4.6690481e-05
-2.4156274e-05
2.6313061e-05
-2.9188708e-05
7.819667e-06
-3.3742917e-05
-8.9892681e-06
-3.7606489e-05
-2.4354686e-05
-4.0826581e-05
-3.8486439e-05
-4.3492669e-05
-5.1600639e-05
-4.5560377e-05
-6.3848706e-05
-4.7045449e-05
-4.8422248e-05
3.6607713e-05
3.2252675e-06
1.3940477e-05
5.5369073e-06
-9.4312986e-06
8.162436e-06
-3.3722017e-05
1.1486947e-05
-5.8834356e-05
1.5101184e-05
-8.4962774e-05
1.9835727e-05
-0.00011228479
2.5070439e-05
-0.0001412946
3.1141471e-05
-0.00017128692
3.7693226e-05
-0.00020185344
4.5273339e-05
-0.00023331906
5.3131481e-05
-0.00026565488
6.0886316e-05
-0.00029909548
6.8422394e-05
-0.00033399979
7.5216441e-05
-0.00037067678
8.1284933e-05
-0.00040884909
8.6743438e-05
-0.0004483105
9.1582084e-05
-0.00048886951
9.5754146e-05
-0.00053031012
9.9168466e-05
-0.00057193832
0.0001013206
-0.00061366945
0.00010268599
-0.00065492044
0.00010269989
-0.00069511452
0.00010153179
-0.00073379712
9.880976e-05
-0.00077038051
9.4648237e-05
-0.00080438777
8.907109e-05
-0.00083505653
8.1961437e-05
-0.00086161883
7.3521534e-05
-0.00088339029
6.3732497e-05
-0.00089953433
5.284386e-05
-0.00090945737
4.07646e-05
-0.00091289233
2.7533827e-05
-0.00090993818
1.3251215e-05
-0.00090095742
-1.0610746e-06
-0.00088489793
-1.5719896e-05
-0.00086167764
-3.0527625e-05
-0.0008324371
-4.5186681e-05
-0.00079674808
-5.8338859e-05
-0.0007541157
-6.9663082e-05
-0.0007053075
-7.9154753e-05
-0.00065094992
-8.6515952e-05
-0.00059045821
-9.2314273e-05
-0.00052399723
-9.6115051e-05
-0.00045178534
-9.767996e-05
-0.00037455534
-9.7522168e-05
-0.00029203573
-9.6017491e-05
-0.00020628445
-9.381163e-05
-0.00011823814
-9.0780919e-05
-2.8581071e-05
-8.7679781e-05
6.1134468e-05
-8.433226e-05
0.00015055247
-8.0987369e-05
0.00023783334
-7.6587494e-05
0.00032247099
-7.2594854e-05
0.00040317452
-6.7936809e-05
0.00047936423
-6.3406471e-05
0.00055005935
-5.7864067e-05
0.0006146857
-5.1941649e-05
0.00067272809
-4.4741326e-05
0.00072390837
-3.6707754e-05
0.00076773217
-2.7583396e-05
0.00080470997
-1.7222457e-05
0.00083368728
-5.6594955e-06
0.00085623266
5.6745913e-06
0.00087088893
1.833591e-05
0.00087839944
3.1827745e-05
0.00087845974
4.4712889e-05
0.00087182116
5.7399132e-05
0.00085838647
6.8992202e-05
0.00083864787
7.9570009e-05
0.0008127131
8.8735299e-05
0.00078204009
9.6507142e-05
0.00074691234
0.00010322432
0.0007088227
0.00010826359
0.00066804299
0.00011206013
0.0006254839
0.00011419669
0.00058177795
0.00011482995
0.00053760412
0.00011389001
0.00049350952
0.00011154642
0.00045016855
0.00010773248
0.00040780153
0.00010295172
0.0003669587
9.6973139e-05
0.00032795695
9.0021975e-05
0.00029125167
8.2065281e-05
0.00025670126
7.362731e-05
0.00022446477
6.3832318e-05
0.00019349478
5.3265192e-05
0.00016346386
4.2398884e-05
0.00013453505
3.1620819e-05
0.00010809594
2.2061308e-05
8.3823134e-05
1.2626806e-05
6.1542924e-05
3.8002314e-06
4.0315156e-05
-2.9278437e-06
2.0864963e-05
-9.7360142e-06
3.3384781e-06
-1.6213032e-05
-1.2599619e-05
-2.1667432e-05
-2.7217782e-05
-2.6210539e-05
-4.0667214e-05
-3.0041756e-05
-5.3152622e-05
-3.3078033e-05
-6.4872805e-05
-3.5330774e-05
-3.7443699e-05
3.8602789e-05
2.4813142e-05
1.6456213e-05
2.768591e-05
-6.626272e-06
3.1242803e-05
-2.9766493e-05
3.4626319e-05
-5.4275729e-05
3.96127e-05
-7.9726985e-05
4.5285404e-05
-0.00010662386
5.1969893e-05
-0.00013456679
5.9080348e-05
-0.00016382007
6.6947465e-05
-0.00019438889
7.5842392e-05
-0.00022596382
8.4704146e-05
-0.00025883861
9.3762723e-05
-0.0002927937
0.00010237661
-0.00032832754
0.00011074819
-0.00036556271
0.00011852153
-0.00040453233
0.00012571374
-0.0004448883
0.00013193778
-0.00048640307
0.0001372704
-0.00052850669
0.00014127257
-0.00057153001
0.00014434292
-0.00061437678
0.00014553362
-0.000656958
0.000145283
-0.00069860221
0.00014317634
-0.00073893304
0.0001391405
-0.00077719459
0.00013291025
-0.00081271436
0.00012459038
-0.00084475552
0.00011400124
-0.00087264795
0.00010141332
-0.00089570515
8.6789484e-05
-0.00091316475
7.030279e-05
-0.00092446453
5.2063911e-05
-0.00092926685
3.2336692e-05
-0.00092756682
1.1552581e-05
-0.00091789412
-1.0733037e-05
-0.00090100132
-3.2613928e-05
-0.00087717757
-5.4352627e-05
-0.00084636826
-7.599566e-05
-0.00080859855
-9.6108384e-05
-0.00076385844
-0.00011440296
-0.00071257679
-0.00013043496
-0.00065479272
-0.00014429887
-0.00059114983
-0.00015595768
-0.00052209341
-0.00016517282
-0.00044795113
-0.00017182182
-0.00036920383
-0.00017626867
-0.0002866204
-0.00017860129
-0.00020079586
-0.0001796372
-0.0001130169
-0.00017856254
-2.4034247e-05
-0.00017666436
6.5176858e-05
-0.00017354474
0.00015334097
-0.00016915187
0.00024018136
-0.00016342963
0.00032451175
-0.00015692625
0.00040513787
-0.00014856249
0.0004812454
-0.00013951284
0.00055292654
-0.00012954438
0.00061851271
-0.00011752807
0.00067840276
-0.00010463026
0.00073133511
-8.9638824e-05
0.00077732504
-7.3571233e-05
0.00081594212
-5.5837893e-05
0.00084753092
-3.7250776e-05
0.00087083471
-1.7628397e-05
0.00088554638
3.6235697e-06
0.00089273925
2.4636049e-05
0.00089233603
4.5116694e-05
0.00088482819
6.4906122e-05
0.00087033058
8.3489659e-05
0.0008493571
0.00010054201
0.00082236371
0.0001157267
0.0007902468
0.00012862325
0.00075385293
0.00013961692
0.00071394402
0.00014817085
0.00067149766
0.00015450576
0.00062728905
0.00015840473
0.00058193224
0.00016018597
0.00053618274
0.00015963807
0.00049083009
0.00015689742
0.00044602841
0.00015253394
0.00040262004
0.0001463597
0.00036083644
0.00013875808
0.00032111992
0.00012974024
0.00028318349
0.0001200014
0.00024800334
0.00010880834
0.00021455437
9.7282015e-05
0.00018294058
8.4883721e-05
0.00015332868
7.201163e-05
0.0001251555
5.9796225e-05
9.921347e-05
4.8001863e-05
7.5133384e-05
3.6707357e-05
5.2679769e-05
2.6253571e-05
3.2570731e-05
1.7183386e-05
1.391642e-05
8.9184991e-06
-2.5039111e-06
2.0821907e-07
-1.7460782e-05
-6.7131296e-06
-3.1302023e-05
-1.2367756e-05
-4.4047787e-05
-1.7296229e-05
-5.5862374e-05
-2.1259853e-05
-6.6930733e-05
-2.4262215e-05
-2.7081401e-05
4.0911831e-05
4.5496048e-05
1.9754687e-05
4.8844347e-05
-2.1145346e-06
5.3112195e-05
-2.4893684e-05
5.7406851e-05
-4.8558041e-05
6.3275019e-05
-7.3439737e-05
7.0169868e-05
-9.9442899e-05
7.7969748e-05
-0.00012660306
8.6240885e-05
-0.00015554671
9.5891656e-05
-0.00018557882
0.00010587258
-0.00021701924
0.00011614649
-0.00024975163
0.00012649543
-0.00028439981
0.00013702275
-0.00032076484
0.000147114
-0.00035882567
0.00015658326
-0.00039835963
0.00016524753
-0.00043947504
0.00017305457
-0.00048206697
0.00017986315
-0.00052580158
0.00018500596
-0.0005700095
0.00018855093
-0.00061462844
0.00019015454
-0.0006590598
0.00018971537
-0.00070264177
0.00018675825
-0.00074497304
0.00018147191
-0.00078515796
0.00017309443
-0.00082274706
0.00016217733
-0.00085687507
0.00014812763
-0.0008868175
0.0001313553
-0.00091171951
0.00011169064
-0.00093086588
8.9448098e-05
-0.00094363305
6.4831571e-05
-0.00094958658
3.8291281e-05
-0.00094795752
9.9232839e-06
-0.00093937577
-1.9315786e-05
-0.00092287411
-4.9116872e-05
-0.00089832326
-7.8904601e-05
-0.00086662038
-0.00010769826
-0.00082757116
-0.00013515682
-0.00078140469
-0.00016056903
-0.00072791308
-0.00018392587
-0.00066814411
-0.0002040672
-0.00060241983
-0.00022168168
-0.00053093058
-0.00023666175
-0.00045456478
-0.00024818621
-0.00037377411
-0.00025705868
-0.00028911541
-0.00026326169
-0.00020149052
-0.00026726442
-0.00011157153
-0.00026848402
-2.097828e-05
-0.00026725871
6.9578887e-05
-0.00026410306
0.00015921378
-0.000258787
0.00024720258
-0.00025141825
0.00033298796
-0.0002427117
0.00041542237
-0.00023099532
0.00049336051
-0.00021745022
0.00056625808
-0.00020244081
0.00063364798
-0.00018491741
0.0006947376
-0.00016571844
0.00074919304
-0.00014409293
0.00079646957
-0.0001208472
0.00083596027
-9.5326534e-05
0.00086753969
-6.8833383e-05
0.00089071393
-4.0802869e-05
0.00090594503
-1.1606693e-05
0.00091314981
1.7433947e-05
0.0009121261
4.6141077e-05
0.00090333767
7.3691397e-05
0.00088714219
9.9685011e-05
0.00086421485
0.00012347062
0.00083520982
0.00014472988
0.00080082604
0.00016300437
0.00076210433
0.00017833675
0.00071984229
0.00019043149
0.00067509112
0.00019925762
0.00062868696
0.00020480809
0.00058114762
0.00020772153
0.00053350118
0.00020728186
0.00048610338
0.00020429505
0.0004399017
0.00019873827
0.00039503383
0.00019122901
0.00035196359
0.00018182913
0.00031084308
0.00017086276
0.00027251212
0.00015833286
0.00023603516
0.00014528556
0.00020211171
0.00013120393
0.00017066376
0.00011633368
0.00014086568
0.00010180841
0.00011330282
8.7358767e-05
8.7951864e-05
7.3351594e-05
6.4644557e-05
6.0016646e-05
4.3491573e-05
4.7407145e-05
2.4582482e-05
3.6093434e-05
7.6408686e-06
2.5857682e-05
-8.4234606e-06
1.6271416e-05
-2.2582873e-05
7.4421506e-06
-3.5793726e-05
8.4161837e-07
-4.7747435e-05
-5.3429157e-06
-5.8730399e-05
-1.0276813e-05
-6.8963775e-05
-1.4027356e-05
-1.7416367e-05
4.399946e-05
6.5150244e-05
2.3636116e-05
6.9210812e-05
2.8538952e-06
7.3898803e-05
-1.9002693e-05
7.9262449e-05
-4.1751251e-05
8.6026145e-05
-6.5630715e-05
9.4045905e-05
-9.0739465e-05
0.00010307855
-0.00011750363
0.00011300608
-0.00014553232
0.0001239189
-0.00017511595
0.00013545822
-0.00020641345
0.00014744503
-0.00023954521
0.0001596252
-0.00027445762
0.00017193519
-0.00031118633
0.00018384341
-0.00034996712
0.00019536374
-0.00039060704
0.00020588858
-0.00043308089
0.00021552957
-0.00047694235
0.00022372362
-0.00052210851
0.00023017176
-0.0005684251
0.00023486943
-0.00061510068
0.00023683186
-0.00066177374
0.00023638903
-0.00070802398
0.00023300901
-0.00075293668
0.00022638462
-0.00079621439
0.00021637087
-0.00083662588
0.00020258748
-0.00087358051
0.00018508201
-0.00090619261
0.00016396749
-0.00093368125
0.00013917887
-0.00095517027
0.00011093721
-0.00096996489
7.9627606e-05
-0.00097738424
4.5711474e-05
-0.00097693717
9.4748953e-06
-0.00096858492
-2.7669345e-05
-0.00095186897
-6.5832839e-05
-0.00092665492
-0.00010411918
-0.0008935218
-0.00014083234
-0.0008525269
-0.00017615227
-0.00080395829
-0.00020913822
-0.00074845985
-0.00023942442
-0.00068601517
-0.00026651115
-0.00061741074
-0.00029028509
-0.00054342863
-0.0003106433
-0.00046427133
-0.00032734365
-0.00038073014
-0.00034060156
-0.00029353444
-0.00035046019
-0.00020360936
-0.00035719119
-0.00011168125
-0.00036041311
-1.8589921e-05
-0.00036034978
7.4664479e-05
-0.00035735749
0.00016732044
-0.00035144271
0.00025772545
-0.00034182116
0.00034492986
-0.00032991502
0.00042917823
-0.00031524297
0.0005094703
-0.00029774321
0.00058408703
-0.00027705836
0.00065331133
-0.00025414056
0.00071633321
-0.00022873893
0.00077253542
-0.00020029364
0.00082125825
-0.00016957062
0.00086247201
-0.0001365401
0.00089511193
-0.00010147215
0.00091932436
-6.5014105e-05
0.00093451371
-2.6796583e-05
0.00094123721
1.0710253e-05
0.00093917067
4.8208139e-05
0.00092881827
8.4041756e-05
0.00091054781
0.00011795378
0.00088513052
0.00014888798
0.00085330182
0.00017655721
0.0008159241
0.00020037895
0.00077400936
0.00022024914
0.00072862466
0.00023581474
0.00068062607
0.00024725501
0.00063080107
0.00025463043
0.00058072024
0.00025779909
0.00053031225
0.0002576899
0.00048074563
0.0002538633
0.00043223904
0.00024724869
0.00038554652
0.0002379254
0.00034096909
0.00022640857
0.0002987709
0.00021306087
0.0002589733
0.00019813101
0.00022204313
0.00018221813
0.00018770853
0.00016553824
0.00015571595
0.00014832632
0.00012633065
0.00013119419
9.938618e-05
0.00011430588
7.4826574e-05
9.7912631e-05
5.2512667e-05
8.2331017e-05
3.2255048e-05
6.76654e-05
1.4138997e-05
5.4210204e-05
-2.0954662e-06
4.2094531e-05
-1.6719865e-05
3.0892775e-05
-3.0247713e-05
2.0972251e-05
-4.2026286e-05
1.2621314e-05
-5.2776807e-05
5.4095257e-06
-6.2652133e-05
-4.0025897e-07
-7.183108e-05
-4.8501252e-06
-8.7740159e-06
4.7340844e-05
8.3684204e-05
2.8245542e-05
8.8310876e-05
8.5663185e-06
9.3579235e-05
-1.2044918e-05
9.9878208e-05
-3.3759163e-05
0.00010773773
-5.6612214e-05
0.00011689883
-8.0834323e-05
0.0001273016
-0.00010661202
0.00013878258
-0.0001340111
0.00015132038
-0.00016319707
0.00016464626
-0.00019424741
0.00017849396
-0.0002274249
0.00019280229
-0.00026255372
0.00020706413
-0.00030001632
0.00022130494
-0.00033945653
0.00023480422
-0.00038124374
0.00024767682
-0.00042491072
0.00025919582
-0.00047048362
0.00026929595
-0.00051775234
0.00027744218
-0.00056612573
0.0002832448
-0.00061550065
0.00028620764
-0.00066519643
0.00028608572
-0.00071459391
0.0002824074
-0.00076313031
0.00027492083
-0.00080973672
0.00026297676
-0.00085396527
0.00024681634
-0.00089459942
0.00022571665
-0.00093085937
0.0002002276
-0.00096174634
0.00017006649
-0.0009863098
0.00013550205
-0.0010036305
9.694958e-05
-0.0010127426
5.4823858e-05
-0.0010139633
1.0694998e-05
-0.0010062261
-3.5406937e-05
-0.00098872446
-8.3334395e-05
-0.00096299228
-0.00012985309
-0.00092817316
-0.00017565489
-0.00088487625
-0.00021945128
-0.00083360091
-0.00026041398
-0.00077493248
-0.00029809259
-0.00070933108
-0.0003321118
-0.00063743982
-0.00036217629
-0.00055983063
-0.00038825373
-0.00047720547
-0.00040997031
-0.00039026799
-0.00042754099
-0.00029956464
-0.00044116522
-0.00020665939
-0.00045009645
-0.00011153113
-0.00045554117
-1.5234899e-05
-0.00045664549
8.0988182e-05
-0.00045357986
0.00017602856
-0.00044648297
0.00026945293
-0.000435245
0.00035991515
-0.00042037726
0.00044681278
-0.00040214163
0.00052920914
-0.00038014067
0.00060673737
-0.00035458872
0.0006784353
-0.00032583735
0.00074409214
-0.0002943955
0.00080258328
-0.00025878489
0.00085333734
-0.00022032328
0.0008967344
-0.00017993858
0.00093105265
-0.00013579036
0.00095621822
-9.0178552e-05
0.0009718808
-4.2459822e-05
0.00097795102
4.6390182e-06
0.00097470433
5.1453867e-05
0.00096233157
9.6411972e-05
0.00094129592
0.0001389866
0.00091255968
0.00017762201
0.00087700308
0.00021211216
0.00083562133
0.00024176036
0.00078956314
0.00026630701
0.00073991716
0.00028545924
0.00068782713
0.00029934292
0.00063444363
0.00030801102
0.00058036262
0.00031187663
0.0005267644
0.00031128763
0.00047399599
0.00030663315
0.0004230167
0.00029822946
0.00037400847
0.00028693462
0.00032762024
0.00027279868
0.00028379601
0.00025688535
0.00024307224
0.00023885218
0.00020530022
0.00021998833
0.00017052962
0.00020030923
0.00013859534
0.00018026299
0.00010949918
0.00016029289
8.3197548e-05
0.00014060797
5.9338347e-05
0.00012177291
3.7994098e-05
0.00010367545
1.8782336e-05
8.6877503e-05
1.706989e-06
7.1282244e-05
-1.3285092e-05
5.7091042e-05
-2.6634166e-05
4.4241188e-05
-3.8580125e-05
3.291826e-05
-4.9147596e-05
2.3188607e-05
-5.8619589e-05
1.4881713e-05
-6.7212707e-05
8.1921337e-06
-7.5128586e-05
3.0658069e-06
-1.3288777e-06
5.1180944e-05
0.00010089824
3.348356e-05
0.00010600897
1.5118023e-05
0.00011195011
-4.2055752e-06
0.00011920041
-2.4586301e-05
0.00012811958
-4.6290184e-05
0.00013860397
-6.9406832e-05
0.00015041687
-9.4213227e-05
0.00016359118
-0.0001207101
0.00017781991
-0.00014931774
0.00019325339
-0.00018009061
0.00020926683
-0.00021299547
0.0002257073
-0.00024843472
0.00024250167
-0.0002861926
0.00025906186
-0.00032661608
0.00027522803
-0.00036945825
0.00029051819
-0.00041480126
0.00030453796
-0.00046235759
0.00031685344
-0.00051185969
0.00032694583
-0.00056317695
0.00033456233
-0.00061562344
0.0003386544
-0.00066878607
0.00033924928
-0.00072212956
0.00033575116
-0.00077456009
0.00032735077
-0.00082577354
0.00031418996
-0.00087436827
0.00029541124
-0.00091989911
0.00027124726
-0.00096076692
0.00024109552
-0.00099603136
0.00020533243
-0.0010245534
0.00016402573
-0.0010453666
0.00011776321
-0.0010575659
6.7023385e-05
-0.0010602374
1.336716e-05
-0.001053046
-4.2598634e-05
-0.0010357894
-0.00010059292
-0.0010084532
-0.00015719281
-0.0009714623
-0.00021264971
-0.00092537557
-0.00026553954
-0.00087080278
-0.00031498623
-0.00080846942
-0.00036042602
-0.00073896444
-0.00040161701
-0.00066302502
-0.00043811599
-0.00058143275
-0.000469847
-0.00049441355
-0.00049698969
-0.00040334087
-0.00051861406
-0.00030871141
-0.00053579582
-0.00021116403
-0.0005476444
-0.00011211658
-0.00055458911
-1.1971887e-05
-0.00055679099
8.8004909e-05
-0.00055355683
0.00018679125
-0.00054526925
0.00028372965
-0.00053218476
0.00037785471
-0.0005145043
0.00046844533
-0.00049273531
0.00055394862
-0.00046564476
0.00063510338
-0.0004357456
0.00071024312
-0.00040097651
0.00077879329
-0.0003629451
0.00084060138
-0.00032059489
0.00089465264
-0.00027437446
0.00093993261
-0.00022521925
0.00097617279
-0.00017203233
0.0010020147
-0.00011602125
0.0010184401
-5.8886394e-05
0.0010238045
-7.2659094e-07
0.0010191872
5.6071125e-05
0.0010040345
0.00011156532
0.00097963283
0.00016338785
0.00094667131
0.00021058266
0.0009063124
0.00025247022
0.00085981025
0.00028826011
0.00080852644
0.00031758782
0.00075364611
0.00034033734
0.00069658989
0.00035639714
0.0006382598
0.00036633901
0.00057973969
0.00037039474
0.00052190956
0.00036911669
0.00046571351
0.00036282988
0.00041147874
0.0003524656
0.00036000933
0.00033840572
0.00031141298
0.00032139538
0.00026627689
0.00030202093
0.0002242021
0.00028092711
0.00018560834
0.00025858367
0.00015047038
0.00023545001
0.00011864671
0.0002120881
9.0015741e-05
0.00018892476
6.4247361e-05
0.00016637574
4.1422606e-05
0.00014459942
2.1037025e-05
0.00012406334
3.1528527e-06
0.00010476102
-1.2491446e-05
8.6923158e-05
-2.6134878e-05
7.0732779e-05
-3.7972876e-05
5.6078387e-05
-4.8288577e-05
4.323e-05
-5.7378833e-05
3.2279809e-05
-6.5356079e-05
2.2859508e-05
-7.2461841e-05
1.5295897e-05
-7.8880484e-05
9.4826838e-06
4.7035944e-06
5.5517447e-05
0.00011656409
3.9392494e-05
0.00012213942
2.25643e-05
0.00012877647
4.8133641e-06
0.00013695337
-1.4126801e-05
0.00014706163
-3.4405595e-05
0.00015888167
-5.6226359e-05
0.00017223965
-7.9869729e-05
0.00018723712
-0.00010564114
0.00020359125
-0.00013330705
0.00022091996
-0.00016349658
0.00023945714
-0.00019632835
0.00025853739
-0.00023174614
0.0002779177
-0.0002700926
0.00029740781
-0.00031127963
0.00031641388
-0.0003554401
0.00033467742
-0.0004025065
0.00035160488
-0.00045220551
0.0003665532
-0.00050449795
0.00037923746
-0.00055874827
0.00038881164
-0.00061496908
0.00039487525
-0.00067248612
0.00039676617
-0.00073022282
0.00039348658
-0.00078806987
0.00038519613
-0.00084452139
0.00037064002
-0.00089887752
0.00034976601
-0.0009498786
0.00032224752
-0.00099633924
0.00028755665
-0.001036946
0.00024594055
-0.0010704103
0.00019749086
-0.0010955688
0.00014292169
-0.001110983
8.2438178e-05
-0.0011157162
1.810104e-05
-0.0011090681
-4.9248e-05
-0.0010919481
-0.00011771645
-0.0010631662
-0.00018597781
-0.0010236147
-0.00025220298
-0.00097403189
-0.00031512312
-0.00091522984
-0.00037378819
-0.00084843622
-0.00042722049
-0.00077468281
-0.0004753703
-0.000694296
-0.0005185007
-0.00060772844
-0.00055641349
-0.00051631881
-0.00058839878
-0.00042024301
-0.00061469042
-0.0003205466
-0.00063549421
-0.00021805344
-0.00065013989
-0.00011379338
-0.00065885079
-8.8045614e-06
-0.00066178196
9.6028645e-05
-0.00065839228
0.00019975098
-0.00064899183
0.0003012803
-0.00063371457
0.00040005228
-0.00061327677
0.00049424679
-0.00058693246
0.00058450135
-0.00055590169
0.00066930398
-0.00052055048
0.0007482095
-0.00047988273
0.00082034323
-0.00043507887
0.00088617112
-0.00038642316
0.00094366788
-0.0003318723
0.0009917891
-0.00027334117
0.0010312248
-0.00021146925
0.0010594156
-0.00014421258
0.0010760753
-7.554352e-05
0.0010809267
-5.5759581e-06
0.0010739157
6.3081639e-05
0.0010551887
0.00013029206
0.0010264102
0.0001921667
0.00098812155
0.00024886997
0.00094176734
0.00029882278
0.0008888659
0.000341159
0.00083105245
0.00037539787
0.00076975209
0.0004016347
0.00070637167
0.00041977626
0.00064218495
0.00043052613
0.00057832725
0.00043425226
0.0005157757
0.00043166793
0.0004553088
0.00042330092
0.00039737718
0.00041040107
0.00034293316
0.00039284952
0.00029203104
0.00037229553
0.00024491138
0.0003491406
0.00020173987
0.00032410234
0.00016252339
0.00029780331
0.0001271324
0.00027084271
9.5438183e-05
0.00024378227
6.7244177e-05
0.00021711879
4.2406503e-05
0.00019121469
2.0617283e-05
0.0001663873
1.6783251e-06
0.00014300528
-1.467193e-05
0.00012111218
-2.8705108e-05
0.00010095651
-4.0629684e-05
8.2657519e-05
-5.0813897e-05
6.6261334e-05
-5.9472338e-05
5.1888346e-05
-6.6734522e-05
3.9546221e-05
-7.2944517e-05
2.9070194e-05
-7.8387946e-05
2.0741377e-05
-8.3024921e-05
1.4120649e-05
9.147767e-06
6.0334438e-05
0.00013045612
4.5970318e-05
0.00013650227
3.091936e-05
0.00014383009
1.4912823e-05
0.00015296166
-2.3222605e-06
0.0001642956
-2.0984084e-05
0.00017754551
-4.1362911e-05
0.00019262068
-6.3522723e-05
0.00020939676
-8.7967488e-05
0.0002280371
-0.00011483882
0.00024779287
-0.00014439795
0.0002690152
-0.00017679173
0.00029092927
-0.0002122945
0.00031341946
-0.00025097082
0.0003360826
-0.00029309607
0.00035853755
-0.00033858512
0.00038016655
-0.00038739445
0.00040041446
-0.00043950519
0.00041866235
-0.00049488498
0.00043461522
-0.00055288181
0.00044680779
-0.0006132268
0.00045521974
-0.00067530828
0.00045884578
-0.00073871243
0.0004568879
-0.00080221136
0.00044869232
-0.00086529267
0.00043371895
-0.00092630892
0.00041078069
-0.00098430051
0.00038023888
-0.0010376498
0.00034090644
-0.0010849506
0.00029324154
-0.001124533
0.00023707315
-0.0011547162
0.00017310564
-0.0011747266
0.00010244969
-0.0011823894
2.5763968e-05
-0.0011777265
-5.3912608e-05
-0.0011595544
-0.00013589136
-0.0011283191
-0.00021721466
-0.0010845421
-0.0002959807
-0.001030445
-0.00036922185
-0.00096715082
-0.00043708289
-0.00089553243
-0.00049883828
-0.0008165797
-0.00055432099
-0.00073130455
-0.00060377235
-0.00063930384
-0.00064841356
-0.0005422244
-0.00068547952
-0.00044048513
-0.00071643166
-0.00033502391
-0.0007409574
-0.00022672647
-0.00075843989
-0.00011655097
-0.00076902763
-5.5671572e-06
-0.00077276651
0.0001053064
-0.00076926801
0.00021497965
-0.00075866573
0.00032183517
-0.00074056984
0.000425025
-0.00071646635
0.0005247349
-0.00068664159
0.00061973854
-0.00065090814
0.00070862813
-0.00060944315
0.00079263829
-0.00056389312
0.00086957946
-0.0005120192
0.00093876051
-0.00045560394
0.0010013801
-0.00039449325
0.0010541031
-0.00032606372
0.0010956067
-0.0002529712
0.0011271761
-0.00017578222
0.0011445764
-9.2942864e-05
0.0011488221
-9.820126e-06
0.0011387515
7.3152864e-05
0.0011168547
0.00015218836
0.0010824278
0.00022659098
0.0010373933
0.00029390178
0.00098357971
0.0003526338
0.00092284947
0.00040188739
0.00085705321
0.00044119411
0.00078796498
0.00047072232
0.00071705661
0.00049068187
0.00064586909
0.00050171284
0.00057565047
0.00050447293
0.00050745983
0.00049985907
0.00044202765
0.00048873398
0.00038027517
0.00047215537
0.00032234419
0.00045078075
0.000268814
0.00042582595
0.00021982041
0.00039813368
0.00017540116
0.00036852084
0.00013553166
0.00033767266
0.00010000121
0.00030637349
6.8657669e-05
0.00027512666
4.1247896e-05
0.00024452726
1.7503745e-05
0.00021496155
-2.9491404e-06
0.0001868375
-2.0280191e-05
0.00016033492
-3.4872731e-05
0.00013570513
-4.7031259e-05
0.00011311047
-5.7041919e-05
9.2667144e-05
-6.5217766e-05
7.4435477e-05
-7.1827188e-05
5.8496611e-05
-7.7117745e-05
4.483577e-05
-8.1342055e-05
3.329333e-05
-8.4762418e-05
2.4163029e-05
-8.7681685e-05
1.7039187e-05
1.1656296e-05
6.5563928e-05
0.00014235547
5.3247003e-05
0.0001488232
4.0219069e-05
0.00015685979
2.619918e-05
0.00016698046
1.0933186e-05
0.00017956348
-5.8622754e-06
0.00019434248
-2.4465216e-05
0.00021122288
-4.5288597e-05
0.00023022113
-6.8195812e-05
0.00025094633
-9.3997802e-05
0.00027359451
-0.00012245776
0.00029747368
-0.0001542586
0.00032272911
-0.00018955484
0.00034871405
-0.00022849762
0.00037502366
-0.00027135736
0.00040139724
-0.00031836672
0.00042717616
-0.00036909828
0.00045114444
-0.00042390093
0.00047346286
-0.00048234612
0.00049305982
-0.000544399
0.00050886071
-0.00060954346
0.00052036279
-0.00067723674
0.00052653636
-0.00074687966
0.00052652822
-0.00081744014
0.00051925086
-0.00088775399
0.00050403164
-0.00095688851
0.00047991497
-0.0010231391
0.00044648953
-0.0010849527
0.00040271969
-0.0011405968
0.00034888496
-0.0011879604
0.00028443713
-0.0012251816
0.00021032883
-0.0012504039
0.00012767379
-0.0012615437
3.6903615e-05
-0.0012583894
-5.7068329e-05
-0.0012392869
-0.00015499552
-0.0012052143
-0.00025128889
-0.0011581634
-0.00034303295
-0.0010989652
-0.00042842209
-0.0010297659
-0.00050628217
-0.00095188479
-0.00057671758
-0.00086628507
-0.00063991905
-0.00077399027
-0.00069606529
-0.00067634806
-0.00074605669
-0.00057271698
-0.00078911281
-0.00046438237
-0.00082476864
-0.00035216037
-0.0008531805
-0.00023692225
-0.00087367915
-0.00011944779
-0.00088650269
-1.4761781e-06
-0.00089073622
0.00011612008
-0.00088686281
0.00023187782
-0.00087442335
0.0003452552
-0.00085394585
0.00045533609
-0.00082654963
0.00056045439
-0.00079176011
0.00066042179
-0.00075087621
0.00075496538
-0.00070398641
0.0008429647
-0.00065189292
0.0009255194
-0.00059457399
0.0010007556
-0.00053083957
0.0010672168
-0.00046095654
0.001126119
-0.00038496571
0.0011733747
-0.00030022634
0.00120669
-0.00020909823
0.0012269579
-0.00011321055
0.0012300238
-1.2885874e-05
0.0012180421
8.5134133e-05
0.0011902434
0.00017998644
0.0011488098
0.00026802187
0.0010953084
0.00034740249
0.0010322432
0.00041570008
0.00096182472
0.00047230688
0.00088634278
0.00051667795
0.00080782874
0.0005492384
0.00072800111
0.00057051029
0.00064861008
0.00058110448
0.00057097689
0.00058210774
0.00049625894
0.00057457733
0.00042529267
0.00055970024
0.00035884142
0.00053860796
0.00029734317
0.00051228023
0.00024106897
0.00048210191
0.00019013213
0.0004490725
0.0001445197
0.00041413443
0.00010410964
0.00037808512
6.8692198e-05
0.00034179167
3.7954316e-05
0.00030586329
1.156165e-05
0.00027091896
-1.0837317e-05
0.00023736174
-2.9549236e-05
0.00020555085
-4.4990103e-05
0.00017577206
-5.7526167e-05
0.00014823939
-6.7513137e-05
0.00012309641
-7.5295611e-05
0.00010044917
-8.1190192e-05
8.0336224e-05
-8.5505862e-05
6.2817809e-05
-8.8537097e-05
4.7868211e-05
-9.0574453e-05
3.5329664e-05
-9.1850838e-05
2.5437067e-05
-9.252148e-05
1.7709319e-05
1.2172981e-05
7.1231397e-05
0.0001520259
6.122238e-05
0.00015883378
5.0490741e-05
0.00016759071
3.8732601e-05
0.00017874107
2.5716237e-05
0.00019258065
1.1090405e-05
0.00020896673
-5.4108069e-06
0.00022772462
-2.4125015e-05
0.00024893723
-4.5476366e-05
0.00027229767
-6.9649576e-05
0.00029776676
-9.7173402e-05
0.00032499679
-0.00012822294
0.00035377706
-0.00016316561
0.00038365493
-0.00020234892
0.00041420692
-0.00024582233
0.0004448712
-0.00029394831
0.00047530109
-0.00034681478
0.00050400934
-0.0004042876
0.00053093584
-0.00046632229
0.00055509566
-0.00053282375
0.00057536205
-0.00060330278
0.00059084027
-0.0006771852
0.00060041751
-0.00075406526
0.00060340822
-0.00083257908
0.00059776528
-0.00091173588
0.0005831891
-0.00099030233
0.00055848163
-0.0010664579
0.00052264417
-0.001138475
0.00047473553
-0.0012040611
0.00041447144
-0.0012612355
0.00034161375
-0.0013070298
0.00025612557
-0.0013385694