/*--------------------------------*- C++ -*----------------------------------*\
  =========                 |
  \\      /  F ield         | OpenFOAM: The Open Source CFD Toolbox
   \\    /   O peration     | Website:  https://openfoam.org
    \\  /    A nd           | Version:  9
     \\/     M anipulation  |
\*---------------------------------------------------------------------------*/
FoamFile
{
    format      ascii;
    class       volVectorField;
    location    "0.35";
    object      U;
}
// * * * * * * * * * * * * * * * * * * * * * * * * * * * * * * * * * * * * * //

dimensions      [0 1 -1 0 0 0 0];

internalField   nonuniform List<vector> 
10000
(
(0.0045725662 -0.0030200514 0)
(0.0032864583 -0.0029242653 0)
(-0.00028502004 -0.0028127521 0)
(-0.0024702185 -0.0026741334 0)
(-0.0050261342 -0.002491931 0)
(-0.0077568328 -0.0022258282 0)
(-0.010604245 -0.0018816516 0)
(-0.013502472 -0.00146484 0)
(-0.016429957 -0.0010397846 0)
(-0.01944104 -0.00063816615 0)
(-0.022556474 -0.00022736835 0)
(-0.0257348 0.0001908196 0)
(-0.028956921 0.00059287139 0)
(-0.032268536 0.00094667929 0)
(-0.035766711 0.0012449433 0)
(-0.039461851 0.0015195406 0)
(-0.043299506 0.0017707183 0)
(-0.047252765 0.0020011097 0)
(-0.051285546 0.0022057476 0)
(-0.055367208 0.0023705198 0)
(-0.059459342 0.0025042563 0)
(-0.063540015 0.0025928492 0)
(-0.067520344 0.002655155 0)
(-0.071356896 0.0026525439 0)
(-0.075041959 0.0026121729 0)
(-0.078492144 0.0025240072 0)
(-0.081667969 0.0024061768 0)
(-0.084481586 0.0022713128 0)
(-0.086878745 0.0021134023 0)
(-0.088778851 0.0019683817 0)
(-0.090047218 0.0018205158 0)
(-0.090681872 0.0016540361 0)
(-0.090640513 0.0014501091 0)
(-0.089917199 0.0012283045 0)
(-0.088599073 0.00094205845 0)
(-0.086698893 0.00063586914 0)
(-0.084222024 0.00042497096 0)
(-0.081242858 0.0003313414 0)
(-0.077554172 0.00045667676 0)
(-0.073130574 0.00064591293 0)
(-0.068158283 0.00093926538 0)
(-0.06256914 0.001431165 0)
(-0.056385214 0.0020485572 0)
(-0.049570981 0.00279315 0)
(-0.042134484 0.0035878907 0)
(-0.034186664 0.0043863413 0)
(-0.025804135 0.0051817984 0)
(-0.017078124 0.0059252101 0)
(-0.0081042578 0.0065577503 0)
(0.0010246258 0.0070375218 0)
(0.010154747 0.0073191562 0)
(0.019161453 0.0074346752 0)
(0.027922879 0.0073508562 0)
(0.03634388 0.0071013025 0)
(0.044277222 0.0067144839 0)
(0.051689565 0.0062828196 0)
(0.058494363 0.0057739462 0)
(0.06459882 0.0052896953 0)
(0.070027507 0.0048691646 0)
(0.074723132 0.0044746095 0)
(0.078717485 0.0042504999 0)
(0.081935236 0.0039981269 0)
(0.084461659 0.003878436 0)
(0.086246205 0.0037635117 0)
(0.087317469 0.0037742671 0)
(0.087690222 0.0037390488 0)
(0.08733657 0.0037741628 0)
(0.086392738 0.0037695943 0)
(0.084796706 0.0037631598 0)
(0.082581207 0.0036978892 0)
(0.079745988 0.003681695 0)
(0.076454294 0.0036332659 0)
(0.072821289 0.0036160044 0)
(0.06891895 0.0035501107 0)
(0.064819694 0.0034599343 0)
(0.060582797 0.0033302854 0)
(0.056271368 0.0031607435 0)
(0.0519461 0.0029509893 0)
(0.047654598 0.0026965555 0)
(0.043440276 0.0024102818 0)
(0.03935547 0.0020895872 0)
(0.035437281 0.0017283851 0)
(0.031720492 0.0013316249 0)
(0.028262752 0.00090710438 0)
(0.025077878 0.00041095965 0)
(0.022019403 -0.00016538358 0)
(0.019032707 -0.00076124823 0)
(0.016163482 -0.0014090653 0)
(0.013340814 -0.0020812595 0)
(0.010595222 -0.0026614909 0)
(0.0080628578 -0.0031208775 0)
(0.005749796 -0.0034934518 0)
(0.0036290023 -0.003809431 0)
(0.0016901472 -0.0040847117 0)
(-9.8947684e-05 -0.004310387 0)
(-0.0016768645 -0.0044927768 0)
(-0.0029687567 -0.0046391758 0)
(-0.0042291561 -0.0047466693 0)
(-0.0069227796 -0.0048145814 0)
(-0.0062685931 -0.0048716003 0)
(0.0046602391 -0.0017218112 0)
(0.0034916035 -0.0014881892 0)
(-3.5276236e-05 -0.0012423796 0)
(-0.002151953 -0.00092427002 0)
(-0.0045818367 -0.00055223883 0)
(-0.0071512841 -6.1361273e-05 0)
(-0.0098496253 0.00053891747 0)
(-0.012668772 0.0012328691 0)
(-0.015612789 0.0019857322 0)
(-0.018639118 0.00275195 0)
(-0.021738656 0.003533534 0)
(-0.024925856 0.0043087158 0)
(-0.028211765 0.005057593 0)
(-0.031625859 0.0057157052 0)
(-0.035201307 0.0062874999 0)
(-0.038940029 0.0068084628 0)
(-0.042817197 0.007269547 0)
(-0.04681283 0.0076675955 0)
(-0.0509083 0.007994049 0)
(-0.055057199 0.0082490797 0)
(-0.059221151 0.0084042937 0)
(-0.063368861 0.0084634046 0)
(-0.067437529 0.0084332316 0)
(-0.071376039 0.0082646105 0)
(-0.075148218 0.0079754186 0)
(-0.078678432 0.0075612071 0)
(-0.081905091 0.0070326322 0)
(-0.084766859 0.0064144138 0)
(-0.08718584 0.0056963002 0)
(-0.089089148 0.0049160557 0)
(-0.090390927 0.0040498462 0)
(-0.091090537 0.0030822584 0)
(-0.091110164 0.0020032458 0)
(-0.090472476 0.00081196973 0)
(-0.089244089 -0.00042938943 0)
(-0.087285166 -0.0016754192 0)
(-0.084631764 -0.0028650934 0)
(-0.081376249 -0.0039188564 0)
(-0.077483217 -0.0047330861 0)
(-0.072982199 -0.0054554799 0)
(-0.067809304 -0.0060201926 0)
(-0.062001193 -0.0064243366 0)
(-0.055657838 -0.0066246817 0)
(-0.048730292 -0.0066034251 0)
(-0.041264078 -0.0064577848 0)
(-0.033291121 -0.0061851361 0)
(-0.024887215 -0.0057886105 0)
(-0.01619665 -0.0053617089 0)
(-0.0073173343 -0.0048709442 0)
(0.0016452815 -0.0043926439 0)
(0.010599105 -0.0039514419 0)
(0.019426263 -0.0035674755 0)
(0.02800196 -0.0032135655 0)
(0.036267233 -0.0028449387 0)
(0.044120777 -0.002514276 0)
(0.05145968 -0.0021385525 0)
(0.058206238 -0.0017432186 0)
(0.064348124 -0.0012070678 0)
(0.069790454 -0.00063340031 0)
(0.074592339 1.5706044e-05 0)
(0.078632321 0.00081002112 0)
(0.081860845 0.0016042785 0)
(0.084441906 0.0025963359 0)
(0.086293177 0.0035143764 0)
(0.087402704 0.0044954805 0)
(0.087777384 0.0053559207 0)
(0.08744325 0.0062337591 0)
(0.086448329 0.006994442 0)
(0.084779907 0.0076796299 0)
(0.082540932 0.0082241736 0)
(0.079709336 0.0087192559 0)
(0.07640207 0.009117926 0)
(0.072739747 0.0094354355 0)
(0.068755877 0.0096371103 0)
(0.06458858 0.0097222414 0)
(0.060269896 0.0096880484 0)
(0.055877312 0.0095288524 0)
(0.051468076 0.0092510273 0)
(0.047103111 0.0088670093 0)
(0.042827283 0.0083788513 0)
(0.038672735 0.0078031765 0)
(0.034682108 0.007147332 0)
(0.030903576 0.0064213986 0)
(0.027348166 0.0056023297 0)
(0.024014577 0.004684072 0)
(0.020859677 0.0036257163 0)
(0.017803565 0.0025160336 0)
(0.014859088 0.0013870094 0)
(0.012104805 0.00025837072 0)
(0.009572078 -0.00075916705 0)
(0.0072464327 -0.001643455 0)
(0.005074692 -0.0024500323 0)
(0.0030481029 -0.0031452716 0)
(0.001195938 -0.0037610711 0)
(-0.00050338665 -0.004271748 0)
(-0.0020038106 -0.0046930816 0)
(-0.0032227622 -0.0050435127 0)
(-0.004410673 -0.0053169653 0)
(-0.0070538299 -0.0055160215 0)
(-0.0063279222 -0.0057080859 0)
(0.0047967719 0.0021801899 0)
(0.0037460153 0.0024568354 0)
(0.00027681629 0.0027606876 0)
(-0.0017825833 0.0030945277 0)
(-0.0041616932 0.0035437246 0)
(-0.0066609634 0.0040636653 0)
(-0.0093043381 0.0046437754 0)
(-0.012049185 0.005291259 0)
(-0.014903405 0.0060317588 0)
(-0.017884472 0.0068258095 0)
(-0.020989749 0.0076461238 0)
(-0.024199788 0.0084671208 0)
(-0.027538121 0.0092688507 0)
(-0.031025728 0.01001012 0)
(-0.034660443 0.010677085 0)
(-0.038466494 0.011274278 0)
(-0.042428101 0.011802544 0)
(-0.046517307 0.012246333 0)
(-0.050693685 0.012585786 0)
(-0.054946856 0.012809921 0)
(-0.0592359 0.012903667 0)
(-0.063503195 0.012850271 0)
(-0.067712531 0.012637831 0)
(-0.071808745 0.012244389 0)
(-0.075739549 0.011673314 0)
(-0.07942918 0.010930448 0)
(-0.0828074 0.0099965716 0)
(-0.085805724 0.0088904921 0)
(-0.088355122 0.0076117187 0)
(-0.090388795 0.0061826751 0)
(-0.091826081 0.0046016642 0)
(-0.092651034 0.0028857425 0)
(-0.09280424 0.0010637387 0)
(-0.092204351 -0.00083826723 0)
(-0.090888843 -0.0027543373 0)
(-0.088870326 -0.0046338664 0)
(-0.086119472 -0.0064618918 0)
(-0.082669014 -0.008145463 0)
(-0.078543965 -0.0096484918 0)
(-0.073768209 -0.010949687 0)
(-0.068383379 -0.011975311 0)
(-0.062353224 -0.012835986 0)
(-0.055700798 -0.013485703 0)
(-0.048536371 -0.01389722 0)
(-0.040884886 -0.014081694 0)
(-0.032764961 -0.014088588 0)
(-0.024347583 -0.013995395 0)
(-0.015680002 -0.013819912 0)
(-0.0068259189 -0.013546532 0)
(0.0020729585 -0.013201988 0)
(0.010933906 -0.012783964 0)
(0.019674265 -0.012322521 0)
(0.028245729 -0.011806796 0)
(0.036483369 -0.011185847 0)
(0.044290645 -0.010510414 0)
(0.051669271 -0.009761425 0)
(0.058580382 -0.0089185163 0)
(0.064852724 -0.0078859761 0)
(0.070424411 -0.0068047018 0)
(0.075401502 -0.0055490843 0)
(0.079625385 -0.004180013 0)
(0.083139841 -0.0026526187 0)
(0.085891762 -0.00096504112 0)
(0.087760918 0.00073473699 0)
(0.088856476 0.0024769502 0)
(0.089193165 0.0042021944 0)
(0.088794881 0.0058845664 0)
(0.087699852 0.0074557957 0)
(0.085919608 0.008901334 0)
(0.083539268 0.010187713 0)
(0.080579041 0.011275539 0)
(0.077125538 0.012226909 0)
(0.073307245 0.012958156 0)
(0.069178576 0.01352381 0)
(0.064846397 0.013883647 0)
(0.060366223 0.014056261 0)
(0.055811795 0.014034035 0)
(0.051261839 0.013840222 0)
(0.046760012 0.013474559 0)
(0.042354401 0.012980586 0)
(0.038102192 0.012340442 0)
(0.034034429 0.011590675 0)
(0.030155583 0.010734994 0)
(0.02650571 0.0097964295 0)
(0.023081749 0.0087593361 0)
(0.019832815 0.0076363324 0)
(0.016777579 0.0064887789 0)
(0.013891673 0.0053599505 0)
(0.011182326 0.0042915081 0)
(0.0086827651 0.0032773127 0)
(0.0063627559 0.0023117618 0)
(0.004239788 0.0014031464 0)
(0.0023103851 0.00061119055 0)
(0.00055598548 -5.5485141e-05 0)
(-0.0010384894 -0.00064634656 0)
(-0.0024539575 -0.0011499635 0)
(-0.003595719 -0.0015879339 0)
(-0.0047093199 -0.0019407343 0)
(-0.0073046462 -0.0022079662 0)
(-0.0064660381 -0.0024627358 0)
(0.004942112 0.0031869263 0)
(0.0040485905 0.0035241562 0)
(0.00059981578 0.0038866637 0)
(-0.0013796544 0.004256532 0)
(-0.0036230165 0.0048121769 0)
(-0.0060603712 0.0054426532 0)
(-0.0086319146 0.0061498096 0)
(-0.011291911 0.0069499657 0)
(-0.014090029 0.0078090312 0)
(-0.017036751 0.0087301278 0)
(-0.020109415 0.0096932439 0)
(-0.023314758 0.010678941 0)
(-0.026679375 0.011633402 0)
(-0.030226912 0.012558314 0)
(-0.033944651 0.01342198 0)
(-0.037819744 0.014208822 0)
(-0.041847612 0.01491051 0)
(-0.046029336 0.015506292 0)
(-0.050341286 0.015984314 0)
(-0.054732675 0.016308521 0)
(-0.059170499 0.01646744 0)
(-0.063620327 0.016432601 0)
(-0.068024935 0.016192635 0)
(-0.072318626 0.015721025 0)
(-0.076437068 0.015019575 0)
(-0.080327371 0.014068117 0)
(-0.083915819 0.012868122 0)
(-0.087123272 0.011424796 0)
(-0.089868213 0.0097402218 0)
(-0.092079041 0.00783677 0)
(-0.093675127 0.0057279436 0)
(-0.094624217 0.0034435424 0)
(-0.094838509 0.0010184201 0)
(-0.094304097 -0.001460327 0)
(-0.093062732 -0.0040123362 0)
(-0.09102704 -0.0065831418 0)
(-0.088193636 -0.0090749213 0)
(-0.084631785 -0.011450506 0)
(-0.080369762 -0.01365091 0)
(-0.075394109 -0.015642438 0)
(-0.069766481 -0.017389203 0)
(-0.063552706 -0.018849586 0)
(-0.056719313 -0.020057422 0)
(-0.049280807 -0.02101518 0)
(-0.041366511 -0.021696093 0)
(-0.033081144 -0.022148718 0)
(-0.02447783 -0.022437399 0)
(-0.0156151 -0.022478509 0)
(-0.0065992189 -0.022375817 0)
(0.0024532845 -0.022088992 0)
(0.011454294 -0.021609495 0)
(0.020320952 -0.020925599 0)
(0.029014061 -0.020090484 0)
(0.037417189 -0.019134727 0)
(0.045403271 -0.018009241 0)
(0.05293363 -0.016676999 0)
(0.060001514 -0.015206375 0)
(0.06642484 -0.013543084 0)
(0.072131984 -0.011713757 0)
(0.077253739 -0.0097121119 0)
(0.081585955 -0.0075187846 0)
(0.085137023 -0.0052095252 0)
(0.087882762 -0.0028520226 0)
(0.089776541 -0.00041084699 0)
(0.090901267 0.0020526992 0)
(0.091209175 0.0045015982 0)
(0.090713767 0.0068589468 0)
(0.089472328 0.0090726432 0)
(0.087509756 0.011098946 0)
(0.084904498 0.012897862 0)
(0.081729802 0.014426356 0)
(0.078060478 0.015716109 0)
(0.074008567 0.016716816 0)
(0.069652724 0.017456206 0)
(0.065093253 0.017910587 0)
(0.060395286 0.018113066 0)
(0.055639395 0.018052981 0)
(0.050890641 0.017759338 0)
(0.046229425 0.017252666 0)
(0.04168304 0.016561123 0)
(0.037276517 0.015704203 0)
(0.033073779 0.014706118 0)
(0.029109065 0.013583523 0)
(0.025374759 0.012369435 0)
(0.02185954 0.011065234 0)
(0.018597002 0.0097171133 0)
(0.01553729 0.0083499553 0)
(0.012673629 0.006992752 0)
(0.010035117 0.0056986131 0)
(0.0076058662 0.0044779147 0)
(0.0053858356 0.0033443939 0)
(0.0033872442 0.0023188892 0)
(0.0016013654 0.0013788681 0)
(-5.1860956e-05 0.00057684851 0)
(-0.0015900796 -0.00013553537 0)
(-0.0029371709 -0.00077820202 0)
(-0.0040059871 -0.0013234219 0)
(-0.0050341213 -0.0017587074 0)
(-0.0075576812 -0.0020872193 0)
(-0.0065945209 -0.0023841972 0)
(0.0051420051 0.0055836541 0)
(0.0044214996 0.0059823956 0)
(0.0010100764 0.0064083652 0)
(-0.00086712185 0.0068934045 0)
(-0.0029852246 0.0075323898 0)
(-0.0053317357 0.0082748006 0)
(-0.0078066439 0.0091173038 0)
(-0.010400905 0.010052541 0)
(-0.013135005 0.011055039 0)
(-0.016012939 0.012134663 0)
(-0.019053965 0.013259121 0)
(-0.022272523 0.01440181 0)
(-0.025671439 0.015529291 0)
(-0.029249405 0.016623447 0)
(-0.033021089 0.017679447 0)
(-0.036988029 0.018648769 0)
(-0.041139798 0.019517196 0)
(-0.045451509 0.020244186 0)
(-0.049897704 0.020822615 0)
(-0.054467597 0.021221896 0)
(-0.0591133 0.021411538 0)
(-0.063777417 0.021362922 0)
(-0.068421844 0.021049489 0)
(-0.072978218 0.020450334 0)
(-0.077387961 0.019531805 0)
(-0.081575984 0.01829167 0)
(-0.085446487 0.016714828 0)
(-0.088929664 0.014815503 0)
(-0.09193845 0.012595374 0)
(-0.09439435 0.010075953 0)
(-0.0962103 0.0072879187 0)
(-0.097350051 0.0042663069 0)
(-0.097695599 0.0010330803 0)
(-0.097217787 -0.002288753 0)
(-0.095985538 -0.0056667723 0)
(-0.093898925 -0.0090660963 0)
(-0.090953562 -0.012331055 0)
(-0.087226421 -0.015468327 0)
(-0.082742656 -0.018391751 0)
(-0.077544062 -0.021057684 0)
(-0.071660395 -0.023457731 0)
(-0.065122445 -0.025536885 0)
(-0.057994208 -0.027266498 0)
(-0.050322054 -0.028679684 0)
(-0.042174147 -0.02980354 0)
(-0.033656973 -0.03062703 0)
(-0.024810134 -0.031186222 0)
(-0.015718835 -0.031426423 0)
(-0.0064982922 -0.031410422 0)
(0.0028156734 -0.031128345 0)
(0.012106355 -0.030556117 0)
(0.021244735 -0.029720217 0)
(0.030128941 -0.028620373 0)
(0.038690264 -0.02731677 0)
(0.046898273 -0.025762499 0)
(0.054632219 -0.023945762 0)
(0.061871325 -0.021918794 0)
(0.068486826 -0.019673071 0)
(0.074372478 -0.017166304 0)
(0.079682603 -0.014464336 0)
(0.084180791 -0.0115194 0)
(0.087826871 -0.0084179588 0)
(0.090682815 -0.0052115628 0)
(0.09264052 -0.0018555238 0)
(0.093739049 0.0014863644 0)
(0.093973227 0.0047950221 0)
(0.093345455 0.007956273 0)
(0.091922745 0.010941068 0)
(0.089729441 0.013670435 0)
(0.086852724 0.016111887 0)
(0.083386089 0.018216793 0)
(0.079408701 0.019976398 0)
(0.075041667 0.021363584 0)
(0.070367155 0.022387884 0)
(0.065498211 0.023036617 0)
(0.060504325 0.023336906 0)
(0.055454592 0.023309378 0)
(0.050459068 0.022980418 0)
(0.045560964 0.022386112 0)
(0.04080729 0.021533573 0)
(0.036250546 0.02048841 0)
(0.031918958 0.019276787 0)
(0.027826228 0.017928166 0)
(0.023996642 0.016457433 0)
(0.02043927 0.014921927 0)
(0.017128273 0.013343501 0)
(0.014064875 0.01173859 0)
(0.011252604 0.01016821 0)
(0.0086799327 0.008649194 0)
(0.0063404651 0.0072088476 0)
(0.0042146829 0.0058654767 0)
(0.002284378 0.0046259809 0)
(0.00057751202 0.0034787697 0)
(-0.00095067185 0.0024304843 0)
(-0.0023870252 0.0015186727 0)
(-0.0036340705 0.00071550811 0)
(-0.0045685799 3.8005873e-05 0)
(-0.0054775923 -0.00050349317 0)
(-0.0079093166 -0.00091688281 0)
(-0.0067746166 -0.0012867754 0)
(0.0053548457 0.0074496583 0)
(0.0048465525 0.0078861259 0)
(0.0015161601 0.0083845931 0)
(-0.00026409519 0.0089686758 0)
(-0.0022489198 0.0097007977 0)
(-0.0044809461 0.010561742 0)
(-0.0068603987 0.011534383 0)
(-0.0093608446 0.012606605 0)
(-0.012014499 0.013781293 0)
(-0.014839125 0.01502646 0)
(-0.017848332 0.016320233 0)
(-0.02104963 0.017646479 0)
(-0.024461591 0.018977373 0)
(-0.028078913 0.02028613 0)
(-0.031919741 0.021537967 0)
(-0.035980481 0.022707849 0)
(-0.040248566 0.023765979 0)
(-0.044717722 0.024679388 0)
(-0.049354794 0.025406663 0)
(-0.054132762 0.025915658 0)
(-0.059016035 0.026173284 0)
(-0.06396597 0.026140975 0)
(-0.068918492 0.025783343 0)
(-0.073815211 0.025069192 0)
(-0.078573097 0.023957086 0)
(-0.083120359 0.022468003 0)
(-0.087366642 0.020534749 0)
(-0.091216078 0.018204817 0)
(-0.09458003 0.015457706 0)
(-0.097357805 0.01232036 0)
(-0.099454882 0.0088331628 0)
(-0.1008468 0.0050394765 0)
(-0.10135599 0.0010248679 0)
(-0.10095936 -0.0031670426 0)
(-0.099781694 -0.0074319844 0)
(-0.097611616 -0.011659796 0)
(-0.09449506 -0.015774989 0)
(-0.090578886 -0.019719128 0)
(-0.085842958 -0.023413998 0)
(-0.080348578 -0.026812346 0)
(-0.074142683 -0.029870265 0)
(-0.06727026 -0.032569241 0)
(-0.059788629 -0.034891027 0)
(-0.051767196 -0.036830226 0)
(-0.043288095 -0.038379795 0)
(-0.034459629 -0.039563591 0)
(-0.025289771 -0.040354242 0)
(-0.015858231 -0.040797379 0)
(-0.006315 -0.040847478 0)
(0.0033022986 -0.040518686 0)
(0.012864987 -0.039849205 0)
(0.022274614 -0.038848636 0)
(0.031443424 -0.037515212 0)
(0.040298801 -0.03586743 0)
(0.048786208 -0.033865914 0)
(0.056768466 -0.03156042 0)
(0.064240125 -0.028956376 0)
(0.071119435 -0.026119395 0)
(0.077260862 -0.022906669 0)
(0.082802598 -0.019445521 0)
(0.087523248 -0.015769946 0)
(0.091328944 -0.011812171 0)
(0.094329907 -0.0077221479 0)
(0.096370935 -0.0034440709 0)
(0.097467829 0.00079446643 0)
(0.097614003 0.0050071661 0)
(0.096807498 0.0090395429 0)
(0.095140622 0.012855922 0)
(0.092638378 0.016328229 0)
(0.089411172 0.019430096 0)
(0.085556657 0.022100815 0)
(0.081171429 0.02431518 0)
(0.076385312 0.026055188 0)
(0.071292595 0.027325778 0)
(0.066010837 0.028137336 0)
(0.06063841 0.028494119 0)
(0.05525483 0.0284582 0)
(0.049941869 0.028047001 0)
(0.044760083 0.027302726 0)
(0.039765748 0.026270232 0)
(0.035003508 0.024998788 0)
(0.030500647 0.023524967 0)
(0.026280018 0.02189142 0)
(0.022362115 0.020154329 0)
(0.018742427 0.018332543 0)
(0.015413318 0.016469909 0)
(0.012364252 0.014610659 0)
(0.0095885254 0.012780926 0)
(0.0070814359 0.011016003 0)
(0.0048287004 0.0093283915 0)
(0.002809897 0.0077516192 0)
(0.0010078108 0.0062962897 0)
(-0.00058649349 0.0049786329 0)
(-0.0020047126 0.003773443 0)
(-0.0032981658 0.002709587 0)
(-0.0044088514 0.001804446 0)
(-0.0052161508 0.0010266101 0)
(-0.0059943699 0.000399966 0)
(-0.0083152089 -8.0935738e-05 0)
(-0.0069790882 -0.00049824993 0)
(0.0055958922 0.0092392914 0)
(0.0053273192 0.0097286568 0)
(0.0020999292 0.010289761 0)
(0.00044069973 0.010967667 0)
(-0.0013996985 0.011809051 0)
(-0.0035037343 0.012792333 0)
(-0.0057681952 0.013904545 0)
(-0.0081612325 0.015138467 0)
(-0.010722493 0.016479359 0)
(-0.013481136 0.017919649 0)
(-0.016440734 0.019415399 0)
(-0.019621305 0.020955514 0)
(-0.023036087 0.022510635 0)
(-0.026691495 0.024052371 0)
(-0.030600281 0.025536415 0)
(-0.034758752 0.026944683 0)
(-0.039164101 0.02822136 0)
(-0.043803883 0.029338872 0)
(-0.048651745 0.03024807 0)
(-0.053688124 0.030905027 0)
(-0.058871753 0.031267142 0)
(-0.064148001 0.031284823 0)
(-0.0694715 0.030910016 0)
(-0.074780247 0.030117504 0)
(-0.079962437 0.028857062 0)
(-0.084970147 0.02710367 0)
(-0.089680395 0.024841825 0)
(-0.093976946 0.022058805 0)
(-0.097792832 0.018760989 0)
(-0.10098864 0.014975913 0)
(-0.10346153 0.010745164 0)
(-0.10512842 0.0061119252 0)
(-0.10586902 0.0012374701 0)
(-0.10563933 -0.00389591 0)
(-0.1044369 -0.0091625544 0)
(-0.10218348 -0.014281949 0)
(-0.09893505 -0.019340956 0)
(-0.094772669 -0.024175207 0)
(-0.089735911 -0.028706914 0)
(-0.083896401 -0.032878419 0)
(-0.077308804 -0.0366541 0)
(-0.070029757 -0.039996289 0)
(-0.062139073 -0.04288737 0)
(-0.053697783 -0.045319149 0)
(-0.044801805 -0.047314847 0)
(-0.035537419 -0.048869242 0)
(-0.025964029 -0.049911116 0)
(-0.016148473 -0.050523638 0)
(-0.0061746765 -0.050653899 0)
(0.0038321915 -0.050366225 0)
(0.013759825 -0.049606562 0)
(0.023540208 -0.048406142 0)
(0.033055782 -0.046781481 0)
(0.042268554 -0.04474204 0)
(0.051116286 -0.042313081 0)
(0.059439592 -0.039544349 0)
(0.067198516 -0.036347314 0)
(0.074417479 -0.032875949 0)
(0.080924774 -0.028959903 0)
(0.08669853 -0.024710146 0)
(0.091698115 -0.020228904 0)
(0.095762317 -0.015346684 0)
(0.098945907 -0.010264693 0)
(0.10106919 -0.0050538684 0)
(0.10212151 0.00023160801 0)
(0.1021649 0.0054081036 0)
(0.10114853 0.010417268 0)
(0.099168661 0.015127997 0)
(0.096262312 0.019412684 0)
(0.092585551 0.023224094 0)
(0.088233171 0.026492508 0)
(0.083326868 0.029179959 0)
(0.07801717 0.031274078 0)
(0.072415301 0.032778693 0)
(0.066633771 0.033725125 0)
(0.060793896 0.034124362 0)
(0.054978693 0.034034572 0)
(0.049277564 0.033498889 0)
(0.043761702 0.032572962 0)
(0.038484367 0.031299897 0)
(0.033489589 0.02975423 0)
(0.028799401 0.027980512 0)
(0.02444689 0.02604098 0)
(0.02043278 0.023977753 0)
(0.016752868 0.021840414 0)
(0.013407447 0.019667668 0)
(0.010379448 0.017505967 0)
(0.0076631563 0.015392659 0)
(0.0052338617 0.01335802 0)
(0.0030832576 0.011422036 0)
(0.0011901741 0.0096132232 0)
(-0.00048074838 0.0079404896 0)
(-0.001937279 0.0064180072 0)
(-0.0032121646 0.0050484934 0)
(-0.0043487638 0.0038389509 0)
(-0.0053074625 0.0027916874 0)
(-0.0059635144 0.0019023407 0)
(-0.0065909355 0.0011888323 0)
(-0.0087787764 0.00063871191 0)
(-0.0072084441 0.00017685892 0)
(0.0058636892 0.010886039 0)
(0.0058658668 0.011424586 0)
(0.0027642412 0.012052057 0)
(0.0012473994 0.012824057 0)
(-0.00043126673 0.013779342 0)
(-0.0023899405 0.014893964 0)
(-0.0045194891 0.016156194 0)
(-0.0067921343 0.017565499 0)
(-0.0092390058 0.019097604 0)
(-0.011908164 0.020739019 0)
(-0.014816826 0.022469596 0)
(-0.017957708 0.024248893 0)
(-0.021366291 0.026060728 0)
(-0.02505249 0.027865819 0)
(-0.029024159 0.0296261 0)
(-0.033289615 0.031304039 0)
(-0.03784552 0.032844354 0)
(-0.04267894 0.034210754 0)
(-0.047772929 0.035348521 0)
(-0.053094449 0.03618915 0)
(-0.058613124 0.036695114 0)
(-0.064296292 0.036804445 0)
(-0.070055936 0.036465055 0)
(-0.075835564 0.035621009 0)
(-0.08155189 0.034242897 0)
(-0.087098855 0.032248042 0)
(-0.092373089 0.029663478 0)
(-0.097257055 0.026418688 0)
(-0.1016219 0.022545453 0)
(-0.10533177 0.018067715 0)
(-0.108278 0.013035066 0)
(-0.11031321 0.0074845136 0)
(-0.11132027 0.0015988308 0)
(-0.11131233 -0.0045800884 0)
(-0.11011141 -0.010860649 0)
(-0.10771606 -0.017079403 0)
(-0.10429203 -0.023144445 0)
(-0.099833778 -0.028939097 0)
(-0.094433435 -0.034356006 0)
(-0.088187847 -0.03931604 0)
(-0.081157881 -0.043802857 0)
(-0.07340428 -0.047807424 0)
(-0.065015015 -0.051306248 0)
(-0.056100953 -0.054246646 0)
(-0.046746661 -0.056681745 0)
(-0.036969163 -0.058598283 0)
(-0.026864347 -0.059937014 0)
(-0.016532808 -0.060719865 0)
(-0.0061057599 -0.060955308 0)
(0.0043687906 -0.060663363 0)
(0.014798121 -0.059788563 0)
(0.025046402 -0.058364645 0)
(0.035039226 -0.056443087 0)
(0.044686006 -0.054011688 0)
(0.053892204 -0.051125004 0)
(0.062637618 -0.047856132 0)
(0.070806043 -0.044063126 0)
(0.078401547 -0.039896225 0)
(0.085318751 -0.035340493 0)
(0.091420954 -0.030277214 0)
(0.096767308 -0.024874148 0)
(0.10117011 -0.019113811 0)
(0.10450126 -0.01294542 0)
(0.10676358 -0.0066933263 0)
(0.1078454 -0.00027434607 0)
(0.10773139 0.0059878797 0)
(0.10646634 0.012109262 0)
(0.10407918 0.017782221 0)
(0.10067976 0.022963195 0)
(0.09643794 0.027543379 0)
(0.091460938 0.031446041 0)
(0.08590282 0.034628097 0)
(0.079935719 0.037079887 0)
(0.073697448 0.038809186 0)
(0.067312579 0.039852155 0)
(0.060906537 0.040249208 0)
(0.054591055 0.040056041 0)
(0.048445179 0.039346853 0)
(0.042530046 0.038175171 0)
(0.03691977 0.036618684 0)
(0.031661411 0.03474474 0)
(0.026769236 0.032622415 0)
(0.022263806 0.030317144 0)
(0.018152417 0.027880491 0)
(0.01442695 0.025377807 0)
(0.011076545 0.022854458 0)
(0.0080895257 0.020359017 0)
(0.005443125 0.017931518 0)
(0.0031150829 0.015596027 0)
(0.0010893026 0.013394897 0)
(-0.00066537102 0.01133058 0)
(-0.002180294 0.0094292634 0)
(-0.0034707623 0.0077006201 0)
(-0.0045763666 0.006153504 0)
(-0.0055478769 0.0047910805 0)
(-0.0063357157 0.0036117294 0)
(-0.0068091151 0.0026148741 0)
(-0.0072642205 0.0018185915 0)
(-0.0092959659 0.0012108459 0)
(-0.0074590369 0.00070335741 0)
(0.0061565123 0.012368955 0)
(0.0064602669 0.012950658 0)
(0.0035090992 0.013647135 0)
(0.0021602674 0.014514516 0)
(0.0006632797 0.015589249 0)
(-0.0011311285 0.016843484 0)
(-0.0031013455 0.018269135 0)
(-0.0052250588 0.019859568 0)
(-0.0075538159 0.021612398 0)
(-0.010113063 0.023470479 0)
(-0.012933757 0.025462264 0)
(-0.016031605 0.027515819 0)
(-0.019418935 0.029612927 0)
(-0.023123363 0.031723785 0)
(-0.027156058 0.033799374 0)
(-0.031531278 0.035793208 0)
(-0.03624485 0.037645957 0)
(-0.041283162 0.03931076 0)
(-0.046652531 0.040718403 0)
(-0.052315865 0.041823009 0)
(-0.058226332 0.042528584 0)
(-0.064344038 0.042786344 0)
(-0.070617095 0.042535089 0)
(-0.07696086 0.041684576 0)
(-0.0832913 0.040197924 0)
(-0.089501931 0.038013168 0)
(-0.095460231 0.035090786 0)
(-0.10104374 0.03139794 0)
(-0.10609069 0.026934842 0)
(-0.11044483 0.021708005 0)
(-0.11399129 0.015785192 0)
(-0.11651053 0.0092483226 0)
(-0.11787892 0.0022161234 0)
(-0.1180405 -0.005149491 0)
(-0.11686825 -0.012597231 0)
(-0.11438309 -0.020061212 0)
(-0.11068356 -0.027296266 0)
(-0.10584871 -0.034110857 0)
(-0.099968142 -0.040437152 0)
(-0.093200997 -0.046217579 0)
(-0.085665568 -0.051418575 0)
(-0.077407514 -0.056067142 0)
(-0.068462956 -0.060190412 0)
(-0.058967349 -0.063693203 0)
(-0.049056784 -0.066574151 0)
(-0.038705323 -0.068856141 0)
(-0.028008199 -0.070477909 0)
(-0.017100852 -0.071458078 0)
(-0.0060684448 -0.071803542 0)
(0.0050140701 -0.071438979 0)
(0.016026018 -0.070421352 0)
(0.026829055 -0.068783072 0)
(0.037340895 -0.066541034 0)
(0.047504715 -0.063736539 0)
(0.057178832 -0.060388323 0)
(0.066398546 -0.056528694 0)
(0.075044997 -0.052201503 0)
(0.083017197 -0.047337151 0)
(0.090410981 -0.042067917 0)
(0.097022274 -0.036271716 0)
(0.10270794 -0.029896823 0)
(0.10753295 -0.023135852 0)
(0.1112171 -0.015929591 0)
(0.11361418 -0.0083536237 0)
(0.11470351 -0.00072847553 0)
(0.11446463 0.0068440426 0)
(0.11286684 0.01413507 0)
(0.10995099 0.020926527 0)
(0.10595532 0.027110115 0)
(0.10100212 0.032529105 0)
(0.095253091 0.037108588 0)
(0.088897521 0.040792764 0)
(0.082137133 0.043588044 0)
(0.075128568 0.04551626 0)
(0.068017953 0.046616558 0)
(0.060945319 0.046958228 0)
(0.054027933 0.046608687 0)
(0.047353273 0.045647123 0)
(0.040995231 0.044160563 0)
(0.035020311 0.042247666 0)
(0.029465024 0.039979109 0)
(0.024349019 0.037440136 0)
(0.019687523 0.034707637 0)
(0.015480856 0.031850914 0)
(0.011718612 0.028933511 0)
(0.0083839645 0.026016768 0)
(0.0054547166 0.023148376 0)
(0.0029008681 0.020368833 0)
(0.00069991866 0.017714964 0)
(-0.0011780462 0.01521464 0)
(-0.0027700907 0.012882759 0)
(-0.0041039233 0.010740518 0)
(-0.0052051797 0.0087989613 0)
(-0.0061139514 0.0070640082 0)
(-0.006883063 0.0055451131 0)
(-0.0074735187 0.0042411752 0)
(-0.0077461501 0.0031407428 0)
(-0.0080007854 0.0022621655 0)
(-0.0098610602 0.0015946455 0)
(-0.0077355108 0.0010531375 0)
(0.0064699183 0.013663562 0)
(0.0071085925 0.014285303 0)
(0.0043377123 0.015053202 0)
(0.0031815393 0.016018005 0)
(0.0018904117 0.017216505 0)
(0.00028573354 0.018619424 0)
(-0.0015077292 0.020221142 0)
(-0.0034535439 0.022012533 0)
(-0.0056323413 0.023984429 0)
(-0.0080613338 0.026109032 0)
(-0.010773103 0.028369083 0)
(-0.013806971 0.030732104 0)
(-0.017155985 0.033160191 0)
(-0.020860978 0.035612557 0)
(-0.024946204 0.038056948 0)
(-0.029430589 0.040412514 0)
(-0.034311026 0.042638907 0)
(-0.039584839 0.044665836 0)
(-0.045233982 0.046416033 0)
(-0.051252061 0.047833897 0)
(-0.057611774 0.048822593 0)
(-0.064246448 0.049302841 0)
(-0.071109936 0.049192247 0)
(-0.078120186 0.048405362 0)
(-0.085166565 0.046863346 0)
(-0.092145251 0.044515528 0)
(-0.098924733 0.041285506 0)
(-0.1053465 0.037143135 0)
(-0.11124275 0.03206329 0)
(-0.1164112 0.026033242 0)
(-0.12066788 0.019142742 0)
(-0.12381119 0.011498619 0)
(-0.12564811 0.0031458982 0)
(-0.12605039 -0.005561726 0)
(-0.12494292 -0.01447732 0)
(-0.12232057 -0.023306514 0)
(-0.11821551 -0.031799912 0)
(-0.11281176 -0.039736677 0)
(-0.10635463 -0.047030895 0)
(-0.098981878 -0.053671147 0)
(-0.09083032 -0.059630418 0)
(-0.082009166 -0.064937435 0)
(-0.072484432 -0.069667374 0)
(-0.062339242 -0.073723908 0)
(-0.05177733 -0.077073598 0)
(-0.040757313 -0.079736866 0)
(-0.029368666 -0.081651907 0)
(-0.017778793 -0.082839105 0)
(-0.0060288082 -0.083248598 0)
(0.005767007 -0.082867697 0)
(0.017416026 -0.081697515 0)
(0.02885946 -0.079794522 0)
(0.04000075 -0.077193179 0)
(0.050736121 -0.073983435 0)
(0.060982463 -0.070147965 0)
(0.070690053 -0.065691044 0)
(0.079849299 -0.060798535 0)
(0.08837174 -0.055320391 0)
(0.096208689 -0.049270899 0)
(0.10340428 -0.042698499 0)
(0.10970402 -0.035461701 0)
(0.11493698 -0.027546221 0)
(0.11910396 -0.019135326 0)
(0.12181851 -0.010227591 0)
(0.12292943 -0.0010916164 0)
(0.12249497 0.0079514261 0)
(0.12045641 0.016605751 0)
(0.11696458 0.024696071 0)
(0.1121957 0.032015272 0)
(0.10635123 0.038357827 0)
(0.099641242 0.043658668 0)
(0.092301598 0.047851501 0)
(0.084581638 0.050969066 0)
(0.076651818 0.053047104 0)
(0.06868445 0.054145614 0)
(0.06083311 0.054354682 0)
(0.053219663 0.053763831 0)
(0.045942992 0.052473978 0)
(0.039082795 0.050596578 0)
(0.032696774 0.04823278 0)
(0.026819111 0.045484072 0)
(0.021469541 0.042451603 0)
(0.016652625 0.039223147 0)
(0.012362006 0.035879469 0)
(0.0085814984 0.032493424 0)
(0.0052842425 0.029132857 0)
(0.0024378571 0.025849056 0)
(8.9261822e-06 0.022685493 0)
(-0.0020374174 0.019681255 0)
(-0.0037393821 0.016859803 0)
(-0.0051345052 0.01424499 0)
(-0.0062572674 0.011852407 0)
(-0.0071388636 0.0096927172 0)
(-0.0078217109 0.0077713975 0)
(-0.0083624201 0.0060948639 0)
(-0.0087289802 0.0046598178 0)
(-0.008776597 0.0034558591 0)
(-0.0088147857 0.0024984895 0)
(-0.010470535 0.0017762261 0)
(-0.0080207457 0.0012055306 0)
(0.006804665 0.014740917 0)