/*--------------------------------*- C++ -*----------------------------------*\
  =========                 |
  \\      /  F ield         | OpenFOAM: The Open Source CFD Toolbox
   \\    /   O peration     | Website:  https://openfoam.org
    \\  /    A nd           | Version:  9
     \\/     M anipulation  |
\*---------------------------------------------------------------------------*/
FoamFile
{
    format      ascii;
    class       surfaceScalarField;
    location    "0.1";
    object      alphaPhi0.phase1;
}
// * * * * * * * * * * * * * * * * * * * * * * * * * * * * * * * * * * * * * //

dimensions      [0 3 -1 0 0 0 0];

internalField   nonuniform List<scalar> 
8032
(
0
0
-4.39718e-322
0
-8.1175e-315
4.29837e-322
-6.61105e-308
4.9312e-315
-3.02492e-301
1.99695e-308
-1.00036e-294
5.08194e-302
-2.73542e-288
9.55779e-296
-6.69396e-282
1.08668e-289
-1.39524e-275
-1.61741e-276
-1.44422e-269
-1.80143e-269
-6.23641e-264
-2.90116e-263
-6.72108e-259
-1.61378e-257
-6.93314e-255
-2.12163e-252
-4.67312e-252
-2.8117e-248
-5.07957e-251
-2.80907e-245
8.60558e-252
-6.4687e-244
6.82178e-251
-6.47218e-244
5.46004e-252
-2.81399e-245
7.28618e-255
-2.64334e-248
3.07839e-259
-8.85384e-253
1.09654e-264
-2.61e-258
2.4948e-271
-4.46681e-265
6.49435e-278
-7.39401e-272
1.81482e-284
-6.38866e-279
7.11132e-291
1.73352e-292
3.1154e-297
2.103e-298
1.21906e-303
1.4513e-304
4.01519e-310
7.52464e-311
1.02368e-316
2.98237e-317
1.97626e-323
9.88131e-324
0
0
0
-3.24404e-320
0
-2.96611e-313
5.23561e-320
-1.96111e-306
2.60157e-313
-8.07417e-300
1.17704e-306
-2.4397e-293
3.08982e-300
-5.99458e-287
5.85906e-294
-1.28822e-280
8.23048e-288
-2.5655e-274
6.71048e-282
-4.11307e-268
-8.47346e-269
-3.47446e-262
-4.58006e-262
-1.24479e-256
-5.94782e-256
-1.12041e-251
-2.74444e-250
-1.00852e-247
-3.01203e-245
-6.30141e-245
-3.47007e-241
-6.87293e-244
-3.17438e-238
4.49685e-245
-7.0013e-237
7.76828e-244
-6.99215e-237
6.69159e-245
-3.16058e-238
9.81705e-248
-3.22609e-241
4.76462e-252
-1.23443e-245
2.01803e-257
-4.32302e-251
5.21462e-264
-8.43204e-258
1.53174e-270
-1.5743e-264
4.75962e-277
-1.48661e-271
2.09196e-283
9.50197e-285
1.02629e-289
1.3055e-290
4.49894e-296
1.0115e-296
1.66077e-302
5.88164e-303
4.74635e-309
2.61389e-309
9.11981e-316
8.39217e-316
8.39912e-323
1.67982e-322
0
-1.50439e-312
5.24653e-319
-1.40651e-305
3.86127e-312
-7.11631e-299
1.71753e-305
-2.30014e-292
5.30903e-299
-5.70001e-286
1.11565e-292
-1.18111e-279
1.75387e-286
-2.18002e-273
2.05118e-280
-3.76997e-267
1.31413e-274
-5.08274e-261
-1.29131e-261
-3.6472e-255
-5.09556e-255
-1.10377e-249
-5.5444e-249
-8.37147e-245
-2.1484e-243
-6.60738e-241
-1.98117e-238
-3.82852e-238
-1.9935e-234
-4.14702e-237
-1.67401e-231
-3.13545e-239
-3.54253e-230
4.07457e-237
-3.53475e-230
3.77123e-238
-1.66232e-231
6.07726e-241
-1.84424e-234
3.38696e-245
-8.06347e-239
1.70841e-250
-3.36277e-244
5.03539e-257
-7.55869e-251
1.66483e-263
-1.62676e-257
5.54389e-270
-1.71006e-264
2.63151e-276
1.69717e-277
1.416e-282
2.58397e-283
6.81039e-289
2.20105e-289
2.75858e-295
1.40557e-295
8.65353e-302
6.85767e-302
1.82578e-308
2.417e-308
1.87748e-315
5.35936e-315
5.2371e-322
-2.5439e-305
1.17585e-311
-2.47451e-298
1.00501e-304
-1.08987e-291
3.98165e-298
-3.10556e-285
1.02385e-291
-6.83265e-279
1.88544e-285
-1.26272e-272
2.62406e-279
-2.08234e-266
2.70714e-273
-3.21746e-260
1.48227e-267
-3.79059e-254
-1.06844e-254
-2.34364e-248
-3.47858e-248
-6.02027e-243
-3.21167e-242
-3.85856e-238
-1.04784e-236
-2.6705e-234
-8.1442e-232
-1.42651e-231
-7.17695e-228
-1.49616e-230
-5.54177e-225
-3.60203e-232
-1.12638e-223
1.42024e-230
-1.12371e-223
1.37986e-231
-5.50003e-225
2.42387e-234
-6.63349e-228
1.54545e-238
-3.31405e-232
9.28631e-244
-1.6487e-237
3.15238e-250
-4.30729e-244
1.19838e-256
-1.08992e-250
4.36388e-263
-1.30438e-257
2.26848e-269
1.83649e-270
1.35777e-275
3.13001e-276
7.26392e-282
2.9698e-282
3.27311e-288
2.11069e-288
1.14185e-294
1.14585e-294
2.67818e-301
4.49178e-301
3.06772e-308
1.10724e-307
1.20888e-314
-3.57954e-298
2.09967e-304
-3.11924e-291
1.73055e-297
-1.2136e-284
6.10326e-291
-3.08868e-278
1.37847e-284
-6.03895e-272
2.24032e-278
-9.89803e-266
2.75542e-272
-1.44568e-259
2.50784e-266
-1.97573e-253
1.20246e-260
-2.03255e-247
-6.03409e-248
-1.07819e-241
-1.67734e-241
-2.34308e-236
-1.31324e-235
-1.26897e-231
-3.60111e-230
-7.70296e-228
-2.36077e-225
-3.78695e-225
-1.82432e-221
-3.81619e-224
-1.29637e-218
-9.0014e-226
-2.53208e-217
3.62725e-224
-2.52645e-217
3.66759e-225
-1.28724e-218
7.00375e-228
-1.68789e-221
5.10204e-232
-9.63526e-226
3.65614e-237
-5.72505e-231
1.44163e-243
-1.74843e-237
6.43261e-250
-5.27724e-244
2.63903e-256
-7.35474e-251
1.53823e-262
1.45132e-263
1.0452e-268
2.81811e-269
6.3476e-275
3.03773e-275
3.24613e-281
2.45159e-281
1.28533e-287
1.5107e-287
3.42221e-294
6.721e-294
4.44221e-301
1.8802e-300
2.32709e-307
-4.78952e-291
3.49194e-297
-3.46783e-284
2.48699e-290
-1.17068e-277
7.71385e-284
-2.59858e-271
1.51431e-277
-4.42242e-265
2.13567e-271
-6.30292e-259
2.28122e-265
-8.00007e-253
1.80422e-259
-9.49459e-247
7.55156e-254
-8.43275e-241
-2.56025e-241
-3.80481e-235
-6.11033e-235
-6.96055e-230
-4.03819e-229
-3.18251e-225
-9.27943e-224
-1.69482e-221
-5.13013e-219
-7.66706e-219
-3.47824e-215
-7.41385e-218
-2.27537e-212
-1.4803e-219
-4.27177e-211
7.10345e-218
-4.26353e-211
7.46322e-219
-2.26148e-212
1.54858e-221
-3.22401e-215
1.28857e-225
-2.10284e-219
1.10252e-230
-1.49351e-224
5.07963e-237
-5.35006e-231
2.70089e-243
-1.94342e-237
1.28318e-249
-3.21734e-244
8.57522e-256
8.98055e-257
6.73827e-262
2.02028e-262
4.732e-268
2.51936e-268
2.79833e-274
2.35141e-274
1.28079e-280
1.6756e-280
3.93987e-287
8.61628e-287
5.9206e-294
2.7844e-293
3.98978e-300
-5.78761e-284
5.20636e-290
-3.49534e-277
3.16119e-283
-1.00065e-270
8.40139e-277
-1.89404e-264
1.40655e-270
-2.75224e-258
1.69232e-264
-3.3512e-252
1.54453e-258
-3.63489e-246
1.04566e-252
-3.68639e-240
3.77896e-247
-2.79336e-234
-8.53195e-235
-1.06329e-228
-1.7421e-228
-1.63015e-223
-9.66814e-223
-6.28603e-219
-1.85639e-217
-2.93683e-215
-8.65097e-213
-1.22249e-212
-5.14688e-209
-1.1341e-211
-3.09979e-206
-1.80115e-213
-5.59406e-205
1.09638e-211
-5.58516e-205
1.19669e-212
-3.08421e-206
2.69785e-215
-4.78048e-209
2.56408e-219
-3.56248e-213
2.62169e-224
-3.02598e-218
1.4164e-230
-1.27351e-224
9.05884e-237
-5.58977e-231
5.09799e-243
-1.11695e-237
3.97828e-249
4.47461e-250
3.66894e-255
1.1823e-255
3.02377e-261
1.73064e-261
2.09802e-267
1.89574e-267
1.12674e-273
1.58498e-273
4.06776e-280
9.56168e-280
7.16176e-287
3.62504e-286
6.08738e-293
-6.2678e-277
6.90723e-283
-3.12095e-270
3.50625e-276
-7.47008e-264
7.85387e-270
-1.18902e-257
1.10746e-263
-1.45583e-251
1.12293e-257
-1.49507e-245
8.64939e-252
-1.36846e-239
4.95171e-246
-1.1715e-233
1.5269e-240
-7.49784e-228
-2.28497e-228
-2.3918e-222
-3.96502e-222
-3.06192e-217
-1.8392e-216
-9.94908e-213
-2.94358e-211
-4.07746e-209
-1.15571e-206
-1.56168e-206
-6.03347e-203
-1.39008e-205
-3.34525e-200
-1.68269e-207
-5.80299e-199
1.35488e-205
-5.79566e-199
1.53661e-206
-3.33191e-200
3.764e-209
-5.61491e-203
4.08599e-213
-4.78049e-207
4.9954e-218
-4.85776e-212
3.17014e-224
-2.40281e-218
2.44928e-230
-1.27393e-224
1.66185e-236
-3.11166e-231
1.53579e-242
1.81427e-243
1.68067e-248
5.68846e-249
1.64345e-254
9.88032e-255
1.35301e-260
1.28409e-260
8.61882e-267
1.27378e-266
3.68892e-273
9.11313e-273
7.71489e-280
4.09509e-279
8.16899e-286
-5.84252e-270
7.87268e-276
-2.40806e-263
3.33621e-269
-4.79177e-257
6.24625e-263
-6.35955e-251
7.35348e-257
-6.50304e-245
6.22989e-251
-5.58282e-239
4.01454e-245
-4.27428e-233
1.92626e-239
-3.06174e-227
5.01767e-234
-1.64237e-221
-4.97424e-222
-4.3684e-216
-7.2864e-216
-4.65703e-211
-2.81419e-210
-1.27425e-206
-3.747e-205
-4.58053e-203
-1.23899e-200
-1.61409e-200
-5.67528e-197
-1.37879e-199
-2.89648e-194
-1.22727e-201
-4.82942e-193
1.35315e-199
-4.82473e-193
1.59505e-200
-2.8876e-194
4.2457e-203
-5.2906e-197
5.26417e-207
-5.14587e-201
7.69814e-212
-6.25674e-206
5.74114e-218
-3.63597e-212
5.35749e-224
-2.31836e-218
4.44332e-230
-6.99242e-225
4.9141e-236
6.00527e-237
6.43164e-242
2.25098e-242
7.52141e-248
4.67545e-248
7.40375e-254
7.26652e-254
5.63947e-260
8.618e-260
2.88691e-266
7.37107e-266
7.20984e-273
3.96002e-272
9.43559e-279
-4.66747e-263
7.66899e-269
-1.58277e-256
2.68953e-262
-2.60535e-250
4.18256e-256
-2.86812e-244
4.08973e-250
-2.43569e-238
2.87902e-244
-1.73776e-232
1.54295e-238
-1.1062e-226
6.16587e-233
-6.59028e-221
1.3463e-227
-2.94595e-215
-8.85523e-216
-6.50918e-210
-1.08839e-209
-5.76739e-205
-3.48976e-204
-1.32831e-200
-3.85989e-199
-4.18771e-197
-1.07464e-194
-1.35761e-194
-4.31865e-191
-1.11317e-193
-2.02859e-188
-7.04884e-196
-3.25077e-187
1.09846e-193
-3.2484e-187
1.3462e-194
-2.02392e-188
3.89416e-197
-4.0316e-191
5.51478e-201
-4.47952e-195
9.64856e-206
-6.51754e-200
8.45366e-212
-4.44676e-206
9.48783e-218
-3.38119e-212
9.72321e-224
-1.26961e-218
1.29701e-229
1.62287e-230
2.04148e-235
7.31036e-236
2.87088e-241
1.82573e-241
3.39842e-247
3.41182e-247
3.1121e-253
4.86558e-253
1.91447e-259
5.00225e-259
5.75524e-266
3.22865e-265
9.26064e-272
-3.12838e-256
6.26507e-262
-8.74887e-250
1.81874e-255
-1.18919e-243
2.34197e-249
-1.08228e-237
1.8949e-243
-7.60443e-232
1.10416e-237
-4.49119e-226
4.90158e-232
-2.36743e-220
1.62426e-226
-1.16823e-214
2.95581e-221
-4.33393e-209
-1.29269e-209
-7.93381e-204
-1.32664e-203
-5.83465e-199
-3.52353e-198
-1.1309e-194
-3.23415e-193
-3.12678e-191
-7.58067e-189
-9.32523e-189
-2.67262e-185
-7.34095e-188
-1.15528e-182
-3.20196e-190
-1.77915e-181
7.27419e-188
-1.7782e-181
9.271e-189
-1.15333e-182
2.91474e-191
-2.49776e-185
4.71461e-195
-3.17014e-189
9.86992e-200
-5.51963e-194
1.01528e-205
-4.41878e-200
1.35905e-211
-3.95539e-206
1.73586e-217
-1.86061e-212
2.80996e-223
3.57474e-224
5.33947e-229
1.94228e-229
9.06445e-235
5.85475e-235
1.29509e-240
1.32065e-240
1.43152e-246
2.27296e-246
1.0632e-252
2.82005e-252
3.85362e-259
2.1967e-258
7.59832e-265
-1.75728e-249
4.28435e-255
-4.03967e-243
1.02508e-248
-4.52428e-237
1.08998e-242
-3.39678e-231
7.28136e-237
-1.96998e-225
3.50349e-231
-9.6065e-220
1.2848e-225
-4.18205e-214
3.51996e-220
-1.70459e-208
5.31669e-215
-5.2328e-203
-1.54942e-203
-7.92188e-198
-1.32259e-197
-4.83116e-193
-2.90512e-192
-7.88015e-189
-2.21129e-187
-1.91078e-185
-4.36383e-183
-5.24226e-183
-1.34971e-179
-3.96272e-182
-5.36839e-177
-1.1487e-184
-7.94452e-176
3.93874e-182
-7.94147e-176
5.22177e-183
-5.36183e-177
1.78441e-185
-1.26247e-179
3.29661e-189
-1.83021e-183
8.25842e-194
-3.8134e-188
9.96822e-200
-3.582e-194
1.57113e-205
-3.70741e-200
2.51745e-211
-2.19215e-206
4.97147e-217
6.39961e-218
1.14346e-222
4.20477e-223
2.3495e-228
1.53382e-228
4.06312e-234
4.18704e-234
5.43489e-240
8.72153e-240
4.88294e-246
1.30921e-245
2.14384e-252
1.23335e-251
5.16792e-258
-8.18184e-243
2.42849e-248
-1.54826e-236
4.79124e-242
-1.42784e-230
4.20131e-236
-8.83111e-225
2.31335e-230
-4.22058e-219
9.17544e-225
-1.69642e-213
2.77458e-219
-6.08813e-208
6.27197e-214
-2.04592e-202
7.83994e-209
-5.1865e-197
-1.52543e-197
-6.48496e-192
-1.07989e-191
-3.27777e-187
-1.95943e-186
-4.49973e-183
-1.2363e-181
-9.56954e-180
-2.05441e-177
-2.41506e-177
-5.57464e-174
-1.75326e-176
-2.04e-171
-3.26388e-179
-2.90086e-170
1.74645e-176
-2.90008e-170
2.40891e-177
-2.03822e-171
8.94808e-180
-5.21762e-174
1.88809e-183
-8.6394e-178
5.66013e-188
-2.15413e-182
8.01663e-194
-2.37666e-188
1.46131e-199
-2.77817e-194
2.94771e-205
-2.05978e-200
7.13911e-211
9.26841e-212
1.99119e-216
7.37729e-217
4.96111e-222
3.2625e-222
1.04019e-227
1.07981e-227
1.687e-233
2.72671e-233
1.83806e-239
4.96185e-239
9.77572e-246
5.66672e-245
2.87679e-251
-3.15811e-236
1.14059e-241
-4.91028e-230
1.85134e-235
-3.72495e-224
1.33699e-229
-1.89614e-218
6.06213e-224
-7.46001e-213
1.97988e-218
-2.46871e-207
4.93085e-213
-7.295e-202
9.18397e-208
-2.01866e-196
9.48081e-203
-4.21988e-191
-1.2336e-191
-4.35409e-186
-7.22647e-186
-1.8234e-181
-1.08231e-180
-2.10723e-177
-5.65917e-176
-3.93084e-174
-7.92073e-172
-9.12511e-172
-1.88578e-168
-6.3628e-171
-6.34858e-166
-7.26419e-174
-8.6741e-165
6.34764e-171
-8.67247e-165
9.11048e-172
-6.34469e-166
3.67882e-174
-1.76581e-168
8.86568e-178
-3.33939e-172
3.1805e-182
-9.96396e-177
5.29143e-188
-1.29487e-182
1.08962e-193
-1.66159e-188
2.76032e-199
-1.52102e-194
8.25055e-205
1.07783e-205
2.79398e-210
1.04063e-210
8.45161e-216
5.58618e-216
2.15145e-221
2.24441e-221
4.23561e-227
6.88029e-227
5.60036e-233
1.51956e-232
3.61838e-239
2.10554e-238
1.29857e-244
-1.00463e-229
4.41557e-235
-1.28458e-223
5.89903e-229
-8.01421e-218
3.50658e-223
-3.35547e-212
1.30821e-217
-1.08598e-206
3.51545e-212
-2.95656e-201
7.20467e-207
-7.18783e-196
1.10463e-201
-1.63645e-190
9.40364e-197
-2.81812e-185
-8.19266e-186
-2.39814e-180
-3.96492e-180
-8.31981e-176
-4.89893e-175
-8.09655e-172
-2.12265e-170
-1.32496e-168
-2.50312e-166
-2.82917e-166
-5.22947e-163
-1.89493e-165
-1.61951e-160
-1.23404e-168
-2.12597e-159
1.89233e-165
-2.12569e-159
2.82643e-166
-1.61882e-160
1.24075e-168
-4.89836e-163
3.41498e-172
-1.05796e-166
1.46607e-176
-3.77759e-171
2.8732e-182
-5.81326e-177
6.49651e-188
-7.95876e-183
2.03506e-193
-8.6136e-189
7.56508e-199
9.92884e-200
3.11324e-204
1.16385e-204
1.14437e-209
7.59047e-210
3.53952e-215
3.70546e-215
8.46694e-221
1.38003e-220
1.36047e-226
3.70275e-226
1.06725e-232
6.23315e-232
4.66812e-238
-2.6353e-223
1.40927e-228
-2.76816e-217
1.54766e-222
-1.41953e-211
7.56744e-217
-4.88655e-206
2.32195e-211
-1.30038e-200
5.13136e-206
-2.91103e-195
8.6492e-201
-5.8194e-190
1.09091e-195
-1.08944e-184
7.65036e-191
-1.54446e-179
-4.4671e-180
-1.08358e-174
-1.78388e-174
-3.11425e-170
-1.81775e-169
-2.55305e-166
-6.52686e-165
-3.66571e-163
-6.48736e-161
-7.19202e-161
-1.18806e-157
-4.36206e-160
-2.54006e-155
-1.30321e-163
-8.49492e-155
4.35892e-160
-8.49477e-155
7.18852e-161
-2.53948e-155
3.43408e-163
-1.11317e-157
1.07946e-166
-2.74885e-161
5.5458e-171
-1.17461e-165
1.28713e-176
-2.15915e-171
3.10574e-182
-3.11683e-177
1.15195e-187
-3.67006e-183
5.34291e-193
7.03717e-194
2.67373e-198
1.00221e-198
1.19504e-203
7.94631e-204
4.49441e-209
4.7162e-209
1.30709e-214
2.13553e-214
2.55276e-220
6.96499e-220
2.43598e-226
1.42482e-225
1.29804e-231
-5.68152e-217
3.69723e-222
-4.90553e-211
3.3389e-216
-2.06762e-205
1.34257e-210
-5.85012e-200
3.38678e-205
-1.27963e-194
6.15294e-200
-2.35463e-189
8.52641e-195
-3.8691e-184
8.84292e-190
-5.9537e-179
5.10475e-185
-6.94489e-174
-1.99908e-174
-4.01637e-169
-6.58132e-169
-9.56367e-165
-5.52991e-164
-6.60739e-161
-1.64562e-159
-7.31499e-158
-1.21137e-155
-9.0911e-157
-5.65232e-155
-4.75864e-155
-1.52164e-153
-6.59288e-159
-1.8057e-152
4.75691e-155
-1.80559e-152
9.16047e-157
-1.52132e-153
7.36691e-158
-5.8972e-155
2.80059e-161
-5.53254e-156
1.72195e-165
-2.99665e-160
4.77415e-171
-6.6537e-166
1.2149e-176
-1.04912e-171
4.90949e-182
-1.29781e-177
2.74613e-187
3.62686e-188
1.672e-192
6.27939e-193
9.09183e-198
6.05612e-198
4.15944e-203
4.37231e-203
1.4715e-208
2.40807e-208
3.49622e-214
9.55229e-214
4.05593e-220
2.37669e-219
2.63244e-225
-1.00726e-210
7.9757e-216
-7.14396e-205
5.91863e-210
-2.47418e-199
1.95642e-204
-5.75279e-194
4.05663e-199
-1.03409e-188
6.0573e-194
-1.56368e-183
6.89903e-189
-2.11144e-178
5.88158e-184
-2.66985e-173
2.79335e-179
-2.56168e-168
-7.3398e-169
-1.22111e-163
-1.9908e-163
-2.40907e-159
-1.3791e-158
-3.23977e-156
-7.84834e-155
-3.91874e-155
-6.3853e-154
-1.16203e-151
-8.74804e-151
-7.72503e-150
-2.12039e-148
-2.24454e-154
-2.47073e-147
7.72416e-150
-2.47063e-147
1.31411e-151
-2.12005e-148
2.01855e-154
-9.29469e-151
3.71477e-156
-1.05226e-152
4.38907e-160
-3.90768e-155
1.47e-165
-1.70599e-160
4.08684e-171
-3.08755e-166
1.73729e-176
-4.2132e-172
1.12839e-181
1.49353e-182
8.36172e-187
3.14483e-187
5.53343e-192
3.69055e-192
3.0807e-197
3.24212e-197
1.32613e-202
2.17274e-202
3.83306e-208
1.04856e-207
5.41259e-214
3.1732e-213
4.27807e-219
-1.46555e-204
1.41222e-209
-8.54166e-199
8.61391e-204
-2.43073e-193
2.34043e-198
-4.64383e-188
3.9881e-193
-6.85869e-183
4.89346e-188
-8.52132e-178
4.57998e-183
-9.45361e-173
3.20883e-178
-9.82076e-168
1.25331e-173
-7.74893e-163
-2.21015e-163
-3.04241e-158
-4.93245e-158
-1.38487e-155
-7.84443e-155
-1.20853e-153
-1.47827e-152
-6.36814e-150
-8.89885e-149
-1.72047e-146
-1.11332e-145
-1.05419e-144
-2.48487e-143
3.60758e-149
-2.78214e-142
1.05422e-144
-2.78207e-142
1.96718e-146
-2.48457e-143
3.35624e-149
-1.19606e-145
6.5431e-152
-1.62379e-147
7.48082e-155
-6.76158e-151
3.76727e-160
-2.97169e-155
1.20241e-165
-7.90346e-161
5.64514e-171
-1.26559e-166
4.27206e-176
5.66448e-177
3.85348e-181
1.45085e-181
3.10384e-186
2.07204e-186
2.10307e-191
2.21528e-191
1.10175e-196
1.80659e-196
3.87578e-202
1.0609e-201
6.65727e-208
3.90667e-207
6.40693e-213
-1.75066e-198
2.05291e-203
-8.38117e-193
1.02876e-197
-1.95943e-187
2.29708e-192
-3.0755e-182
3.21639e-187
-3.73178e-177
3.24268e-182
-3.80889e-172
2.49361e-177
-3.47125e-167
1.43553e-172
-2.96214e-162
4.60973e-168
-1.91691e-157
-5.44254e-158
-2.5049e-155
-4.03324e-155
-2.40918e-152
-1.21104e-151
-1.99406e-148
-2.0749e-147
-8.83331e-145
-1.05859e-143
-2.09319e-141
-1.16484e-140
-1.1821e-139
-2.39432e-138
7.52894e-144
-2.57592e-137
1.18222e-139
-2.57587e-137
2.421e-141
-2.39408e-138
4.57169e-144
-1.26597e-140
9.60052e-147
-2.05507e-142
1.07367e-149
-9.74888e-146
6.95789e-155
-4.36068e-150
3.07773e-160
-1.4652e-155
1.69751e-165
-3.26699e-161
1.53697e-170
2.04094e-171
1.68763e-175
6.35933e-176
1.65458e-180
1.10533e-180
1.36457e-185
1.43824e-185
8.70016e-191
1.42749e-190
3.72422e-196
1.02009e-195
7.78731e-202
4.57021e-201
9.12409e-207
-1.71469e-192
2.44722e-197
-6.74471e-187
1.00775e-191
-1.29545e-181
1.84905e-186
-1.67038e-176
2.12722e-181
-1.66496e-171
1.76192e-176
-1.39591e-166
1.11311e-171
-1.04494e-161
5.26458e-167
-7.26977e-157
1.39973e-162
-3.4116e-155
-9.57308e-156
-2.82038e-151
-4.29829e-151
-3.45878e-147
-1.68392e-146
-2.70768e-143
-2.39681e-142
-1.0069e-139
-1.035e-138
-2.09272e-136
-1.00214e-135
-1.08922e-134
-1.89736e-133
7.88289e-139
-1.96149e-132
1.08935e-134
-1.96146e-132
2.44915e-136
-1.89719e-133
5.1167e-139
-1.10219e-135
1.1576e-141
-2.13663e-137
1.51471e-144
-1.15456e-140
1.04414e-149
-6.29183e-145
5.43544e-155
-2.20812e-150
4.38677e-160
-5.76243e-156
4.81182e-165
6.39772e-166
6.43248e-170
2.4255e-170
7.67742e-175
5.13157e-175
7.70733e-180
8.12764e-180
5.98146e-185
9.81847e-185
3.11673e-190
8.53934e-190
7.92955e-196
4.65623e-195
1.13107e-200
-1.37842e-186
2.39435e-191
-4.45361e-181
8.09987e-186
-7.02674e-176
1.22112e-180
-7.44264e-171
1.15415e-175
-6.09363e-166
7.85309e-171
-4.19624e-161
4.07551e-166
-2.51441e-156
1.62308e-161
-4.74759e-155
3.43873e-157
-1.72368e-150
-4.72249e-151
-3.96436e-146
-5.94331e-146
-4.09231e-142
-1.92202e-141
-3.01922e-138
-2.27399e-137
-9.43185e-135
-8.31839e-134
-1.71933e-131
-7.09087e-131
-8.2472e-130
-1.23681e-128
5.71877e-134
-1.2287e-127
8.24815e-130
-1.22868e-127
2.03639e-131
-1.23671e-128
4.70534e-134
-7.89375e-131
1.14759e-136
-1.8249e-132
1.75443e-139
-1.12296e-135
1.51636e-144
-7.45587e-140
6.92618e-150
-3.22211e-145
5.91762e-155
-7.33376e-151
1.25481e-159
2.16955e-160
2.04249e-164
7.70601e-165
2.968e-169
1.98467e-169
3.62743e-174
3.8266e-174
3.42692e-179
5.62722e-179
2.17337e-184
5.95694e-184
6.73202e-190
3.95286e-189
1.16901e-194
-9.08873e-181
1.92163e-185
-2.41246e-175
5.34109e-180
-3.12669e-170
6.61565e-175
-2.72027e-165
5.13674e-170
-1.82931e-160
2.87105e-165
-9.37474e-156
1.33364e-160
-1.53282e-154
3.90855e-156
-6.53418e-150
7.01233e-152
-2.39845e-145
-6.50429e-146
-4.58359e-141
-6.74397e-141
-3.99217e-137
-1.80086e-136
-2.7644e-133
-1.77219e-132
-7.2601e-130
-5.49664e-129
-1.16078e-126
-4.12738e-126
-5.13131e-125
-6.6337e-124
3.08692e-129
-6.33314e-123
5.13181e-125
-6.33306e-123
1.39144e-126
-6.63318e-124
3.55528e-129
-4.65083e-126
9.35169e-132
-1.2804e-127
1.66831e-134
-8.9702e-131
1.80893e-139
-7.25611e-135
1.01254e-144
-3.86437e-140
3.90287e-150
-1.07081e-145
7.59645e-155
6.34501e-155
5.34009e-159
2.38222e-159
9.44909e-164
6.32106e-164
1.40603e-168
1.48371e-168
1.61713e-173
2.65613e-173
1.24859e-178
3.42274e-178
4.70683e-184
2.76468e-183
9.9503e-189
-4.91504e-175
1.26492e-179
-1.07159e-169
2.88808e-174
-1.14078e-164
2.93886e-169
-8.15188e-160
1.87451e-164
-3.12541e-155
1.08558e-159
-5.82256e-154
3.01473e-155
-2.3128e-149
7.95648e-151
-9.06278e-145
1.1742e-146
-2.74211e-140
-7.35055e-141
-4.36065e-136
-6.27994e-136
-3.21254e-132
-1.38521e-131
-2.07818e-128
-1.13462e-127
-4.59208e-125
-2.98673e-124
-6.43999e-122
-1.97678e-121
-2.6235e-120
-2.92836e-119
1.27363e-124
-2.6868e-118
2.62368e-120
-2.68677e-118
7.81175e-122
-2.92813e-119
2.20716e-124
-2.25438e-121
6.26232e-127
-7.37966e-123
1.30236e-129
-5.88464e-126
1.7725e-134
-5.79927e-130
1.21689e-139
-3.80924e-135
5.6993e-145
-1.28532e-140
1.26421e-152
1.12987e-149
9.46772e-155
4.33491e-154
2.47003e-158
1.75369e-158
4.47648e-163
4.72611e-163
6.26846e-168
1.02984e-167
5.89184e-173
1.61552e-172
2.70429e-178
1.58833e-177
6.95994e-183
-2.17817e-169
6.82387e-174
-3.90105e-164
1.27998e-168
-3.41103e-159
1.07004e-163
-6.92139e-155
6.81904e-159
-2.45937e-153
2.11506e-154
-9.30271e-149
6.12421e-150
-3.20583e-144
1.32856e-145
-1.03256e-139
1.61213e-141
-2.57635e-135
-6.81556e-136
-3.41488e-131
-4.79901e-131
-2.13351e-127
-8.74787e-127
-1.28265e-123
-5.96865e-123
-2.38662e-120
-1.33485e-119
-2.93602e-117
-7.79238e-117
-1.1022e-115
-1.06426e-114
4.02424e-120
-9.38501e-114
1.10225e-115
-9.38488e-114
3.60268e-117
-1.06417e-114
1.12578e-119
-8.99103e-117
3.44599e-122
-3.49378e-118
8.34588e-125
-3.17029e-121
1.42648e-129
-3.80611e-125
1.2023e-134
-3.08615e-130
6.842e-140
-1.2683e-135
1.8614e-147
1.65406e-144
5.41166e-152
7.71709e-149
8.50653e-155
3.55755e-153
1.16823e-157
1.25526e-157
1.99427e-162
3.28085e-162
2.28231e-167
6.25862e-167
1.27512e-172
7.49109e-172
3.99543e-177
-7.90914e-164
3.01637e-168
-1.1633e-158
4.64807e-163
-9.37499e-155
3.44138e-158
-1.0744e-152
1.37443e-153
-4.04946e-148
4.28611e-149
-1.28815e-143
1.01999e-144
-3.65072e-139
1.81867e-140
-9.66543e-135
1.81459e-136
-1.98974e-130
-5.18469e-131
-2.20226e-126
-3.00966e-126
-1.25738e-122
-4.5361e-122
-6.4988e-119
-2.5803e-118
-1.01916e-115
-4.90815e-115
-1.09993e-112
-2.52902e-112
-3.80508e-111
-3.1855e-110
9.64532e-116
-2.70009e-109
3.80516e-111
-2.70005e-109
1.36459e-112
-3.18524e-110
4.71767e-115
-2.95071e-112
1.55819e-117
-1.35864e-113
4.39012e-120
-1.40254e-116
9.42817e-125
-2.05116e-120
9.76576e-130
-2.05498e-125
6.75228e-135
-1.02881e-130
2.26628e-142
1.99075e-139
8.01151e-147
1.12944e-143
2.51519e-151
6.33475e-148
5.52474e-155
2.66203e-152
5.17886e-157
8.59501e-157
7.25422e-162
2.00006e-161
4.93512e-167
2.89916e-166
1.88274e-171
-2.35069e-158
1.09196e-162
-9.47491e-155
1.41994e-157
-4.43582e-152
7.80443e-153
-1.79415e-147
2.77766e-148
-5.59794e-143
7.11914e-144
-1.4655e-138
1.39242e-139
-3.41621e-134
2.0406e-135
-7.43498e-130
1.67421e-131
-1.26354e-125
-3.23573e-126
-1.17011e-121
-1.54911e-121
-6.37426e-118
-1.93159e-117
-2.70285e-114
-9.16913e-114
-3.57573e-111
-1.48521e-110
-3.38614e-108
-6.76026e-108
-1.07942e-106
-7.85598e-106
1.67937e-111
-6.40107e-105
1.07942e-106
-6.40096e-105
4.24402e-108
-7.85531e-106
1.62418e-110
-7.9698e-108
5.7896e-113
-4.33953e-109
1.89547e-115
-5.09495e-112
5.11726e-120
-9.07609e-116
6.52133e-125
-1.12463e-120
5.47795e-130
-6.86038e-126
2.27419e-137
1.96994e-134
9.77409e-142
1.35899e-138
3.72856e-146
9.27358e-143
1.19504e-150
4.74155e-147
3.94105e-155
1.85006e-151
1.86031e-156
5.20741e-156
1.57027e-161
9.39814e-161
7.294e-166
-8.7373e-155
3.28468e-157
-1.49149e-151
3.37061e-152
-7.42072e-147
1.57249e-147
-2.47374e-142
4.59995e-143
-6.35774e-138
9.6899e-139
-1.37015e-133
1.55769e-134
-2.62753e-129
1.87636e-130
-4.70116e-125
1.26597e-126
-6.59982e-121
-1.65671e-121
-5.12455e-117
-6.54458e-117
-2.6489e-113
-6.7558e-113
-9.2263e-110
-2.67899e-109
-1.03069e-106
-3.69992e-106
-8.56577e-104
-1.48899e-103
-2.51611e-102
-1.59705e-101
1.86985e-107
-1.25103e-100
2.51606e-102
-1.251e-100
1.08358e-103
-1.5969e-101
4.59362e-106
-1.77201e-103
1.76763e-108
-1.13837e-104
6.71679e-111
-1.51966e-107
2.28064e-115
-3.29719e-111
3.58023e-120
-5.05843e-116
3.65327e-125
-3.76057e-121
1.88189e-132
1.60285e-129
9.83142e-137
1.34443e-133
4.55585e-141
1.11614e-137
1.77269e-145
6.94332e-142
5.31786e-150
3.2962e-146
1.20099e-154
1.12683e-150
3.94662e-156
2.41659e-155
2.41528e-160
-2.94921e-151
7.8717e-152
-2.48255e-146
6.76874e-147
-1.01915e-141
2.59561e-142
-2.80162e-137
6.24087e-138
-5.93371e-133
1.08055e-133
-1.05302e-128
1.42772e-129
-1.66158e-124
1.41364e-125
-2.44419e-120
7.84415e-122
-2.83655e-116
-6.95914e-117
-1.85082e-112
-2.26973e-112
-9.02214e-109
-1.94118e-108
-2.58467e-105
-6.43782e-105
-2.44064e-102
-7.59128e-102
-1.78051e-99
-2.70359e-99
-4.81929e-98
-2.67768e-97
4.03111e-104
-2.01676e-96
4.81912e-98
-2.01673e-96
2.27069e-99
-2.67744e-97
1.06726e-101
-3.24423e-99
4.43445e-104
-2.45243e-100
1.95336e-106
-3.72134e-103
8.3453e-111
-9.83326e-107
1.616e-115
-1.86989e-111
2.00279e-120
-1.69451e-116
1.28485e-127
1.07243e-124
8.15766e-132
1.09357e-128
4.59063e-136
1.1045e-132
2.16751e-140
8.35939e-137
7.88496e-145
4.82816e-141
1.9208e-149
2.0081e-145
2.42866e-154
5.23677e-150
6.09151e-155
-4.87506e-146
1.57506e-146
-3.39017e-141
1.11323e-141
-1.14923e-136
3.50901e-137
-2.60687e-132
6.93504e-133
-4.55219e-128
9.86962e-129
-6.65475e-124
1.0719e-124
-8.64209e-120
8.72437e-121
-1.04526e-115
3.98193e-117
-1.00357e-111
-2.3984e-112
-5.51506e-108
-6.46302e-108
-2.51823e-104
-4.58356e-104
-5.94159e-101
-1.27291e-100
-4.74749e-98
-1.28339e-97
-3.04112e-95
-4.04903e-95
-7.58474e-94
-3.70494e-93
-3.22201e-99
-2.68336e-92
7.58439e-94
-2.68331e-92
3.90472e-95
-3.70459e-93
2.03681e-97
-4.89263e-95
9.14088e-100
-4.33865e-96
4.66176e-102
-7.48112e-99
2.50697e-106
-2.40723e-102
5.99698e-111
-5.68072e-107
9.02553e-116
-6.27644e-112
7.24236e-123
5.90098e-120
5.58708e-127
7.31433e-124
3.81672e-131
8.98676e-128
2.18572e-135
8.27476e-132
9.6358e-140
5.81448e-136
2.84253e-144
2.94206e-140
4.08778e-149
9.33359e-145
1.3206e-149
-6.60444e-141
2.58008e-141
-3.79843e-136
1.49905e-136
-1.06422e-131
3.88423e-132
-1.99343e-127
6.31031e-128
-2.87162e-123
7.38206e-124
-3.45949e-119
6.59036e-120
-3.69834e-115
4.40964e-116
-3.67832e-111
1.65571e-112
-2.92414e-107
-6.78237e-108
-1.3564e-103
-1.51138e-103
-5.75902e-100
-8.89671e-100
-1.12064e-96
-2.07177e-96
-7.58534e-94
-1.78875e-93
-4.268e-91
-5.00468e-91
-9.8084e-90
-4.23312e-89
-7.9028e-95
-2.94863e-88
9.80785e-90
-2.94858e-88
5.50923e-91
-4.23271e-89
3.19279e-93
-6.08077e-91
1.5482e-95
-6.30266e-92
9.12921e-98
-1.23454e-94
6.18202e-102
-4.83671e-98
1.82977e-106
-1.41829e-102
3.3434e-111
-1.91094e-107
3.37266e-118
2.67061e-115
3.16056e-122
4.02299e-119
2.61997e-126
6.01259e-123
1.81874e-130
6.73496e-127
9.70972e-135
5.75718e-131
3.46571e-139
3.54379e-135
6.02592e-144
1.36768e-139
2.35393e-144
-7.33292e-136
3.4592e-136
-3.49212e-131
1.6522e-131
-8.0947e-127
3.5194e-127
-1.25308e-122
4.70029e-123
-1.49005e-118
4.52018e-119
-1.47995e-114
3.31738e-115
-1.30277e-110
1.8249e-111
-1.0656e-106
5.638e-108
-7.02025e-103
-1.57393e-103
-3.09552e-99
-2.90331e-99
-1.07893e-95
-1.42008e-95
-1.73396e-92
-2.77702e-92
-9.95407e-90
-2.05654e-89
-4.92162e-87
-5.10848e-87
-1.04219e-85
-3.9966e-85
-1.12323e-90
-2.67778e-84
1.04213e-85
-2.67773e-84
6.37686e-87
-3.99621e-85
4.11053e-89
-6.23148e-87
2.15451e-91
-7.51734e-88
1.46687e-93
-1.67215e-90
1.25121e-97
-7.97557e-94
4.59031e-102
-2.90994e-98
1.01805e-106
-4.78221e-103
1.29855e-113
9.94223e-111
1.47781e-117
1.81974e-114
1.4859e-121
3.30804e-118
1.2496e-125
4.50748e-122
8.07223e-130
4.68712e-126
3.48242e-134
3.50955e-130
7.31278e-139
1.64756e-134
3.44954e-139
-6.6715e-131
3.79436e-131
-2.63461e-126
1.48997e-126
-5.05848e-122
2.60937e-122
-6.47742e-118
2.86507e-118
-6.36218e-114
2.26519e-114
-5.21213e-110
1.36675e-110
-3.77906e-106
6.18189e-107
-2.54242e-102
1.57188e-103
-1.38926e-98
-2.99774e-99
-5.78634e-95
-4.58281e-95
-1.65556e-91
-1.86483e-91
-2.2007e-88
-3.06723e-88
-1.07276e-85
-1.95158e-85
-4.6631e-83
-4.30909e-83
-9.09874e-82
-3.12016e-81
-1.14756e-86
-2.01116e-80
9.09813e-82
-2.01112e-80
6.05483e-83
-3.11984e-81
4.34604e-85
-5.26867e-83
2.46345e-87
-7.36095e-84
1.9337e-89
-1.85879e-86
2.07824e-93
-1.0792e-89
9.4684e-98
-4.90619e-94
2.54804e-102
-9.83645e-99
4.13693e-109
3.04516e-106
5.71589e-113
6.7701e-110
6.96778e-117
1.49681e-113
7.09396e-121
2.48076e-117
5.53999e-125
3.13772e-121
2.88544e-129
2.85769e-125
7.30659e-134
1.63178e-129
4.15541e-134
-4.97359e-126
3.40391e-126
-1.63135e-121
1.099e-121
-2.59779e-117
1.5825e-117
-2.7543e-113
1.42867e-113
-2.23617e-109
9.28715e-110
-1.51178e-105
4.60735e-106
-9.03098e-102
1.71367e-102
-4.99793e-98
3.58726e-99
-2.26702e-94
-4.68696e-95
-8.85036e-91
-5.94623e-91
-2.08026e-87
-2.01565e-87
-2.29067e-84
-2.79313e-84
-9.4936e-82
-1.52957e-81
-3.63005e-79
-3.0057e-79
-6.52663e-78
-2.01567e-77
-8.96535e-83
-1.25007e-76
6.52617e-78
-1.25005e-76
4.7158e-79
-2.01546e-77
3.77326e-81
-3.67763e-79
2.31419e-83
-5.91677e-80
2.09114e-85
-1.69555e-82
2.83244e-89
-1.19816e-85
1.60586e-93
-6.79706e-90
5.24177e-98
-1.66283e-94
1.09141e-104
7.67481e-102
1.83024e-108
2.07184e-105
2.70362e-112
5.57037e-109
3.33006e-116
1.12283e-112
3.14083e-120
1.72729e-116
1.97235e-124
1.91328e-120
6.01334e-129
1.3287e-124
4.11538e-129
-3.03777e-121
2.4962e-121
-8.29165e-117
6.62732e-117
-1.09665e-112
7.84738e-113
-9.63717e-109
5.82568e-109
-6.4722e-105
3.11408e-105
-3.61263e-101
1.27039e-101
-1.7786e-97
3.88614e-98
-8.09815e-94
6.69957e-95
-3.08965e-90
-6.01706e-91
-1.10733e-86
-6.34446e-87
-2.14001e-83
-1.79416e-83
-1.95511e-80
-2.0983e-80
-6.8983e-78
-9.90731e-78
-2.32173e-75
-1.7348e-75
-3.84645e-74
-1.07821e-73
-5.5029e-79
-6.4346e-73
3.84617e-74
-6.43446e-73
3.01272e-75
-1.0781e-73
2.68978e-77
-2.12068e-75
1.7861e-79
-3.90358e-76
1.85494e-81
-1.26901e-78
3.16708e-85
-1.0913e-81
2.23943e-89
-7.73723e-86
8.86254e-94
-2.31004e-90
2.38635e-100
1.592e-97
4.85558e-104
5.21615e-101
8.68742e-108
1.70518e-104
1.29356e-111
4.17988e-108
1.47199e-115
7.81949e-112
1.11296e-119
1.05331e-115
4.07746e-124
8.89549e-120
3.35045e-124
-1.55088e-116
1.49573e-116
-3.45995e-112
3.26585e-112