/*--------------------------------*- C++ -*----------------------------------*\
  =========                 |
  \\      /  F ield         | OpenFOAM: The Open Source CFD Toolbox
   \\    /   O peration     | Website:  https://openfoam.org
    \\  /    A nd           | Version:  9
     \\/     M anipulation  |
\*---------------------------------------------------------------------------*/
FoamFile
{
    format      ascii;
    class       volScalarField;
    location    "0.1";
    object      p;
}
// * * * * * * * * * * * * * * * * * * * * * * * * * * * * * * * * * * * * * //

dimensions      [1 -1 -2 0 0 0 0];

internalField   nonuniform List<scalar> 
4096
(
1.5704e-07
0
-9.22123e-07
-1.9714e-06
-2.73772e-06
-3.13998e-06
-3.32843e-06
-3.39189e-06
-3.37928e-06
-3.32354e-06
-3.24558e-06
-3.1601e-06
-3.07771e-06
-3.0065e-06
-2.9526e-06
-2.92052e-06
-2.91316e-06
-2.93192e-06
-2.97672e-06
-3.04612e-06
-3.13745e-06
-3.24699e-06
-3.37014e-06
-3.5016e-06
-3.63566e-06
-3.76636e-06
-3.88792e-06
-3.99503e-06
-4.08323e-06
-4.14883e-06
-4.18868e-06
-4.20455e-06
-0.0519321
-0.0519323
-0.0519331
-0.0519339
-0.0519345
-0.0519349
-0.051935
-0.0519351
-0.051935
-0.051935
-0.0519349
-0.0519348
-0.0519347
-0.0519347
-0.0519346
-0.0519346
-0.0519346
-0.0519346
-0.0519346
-0.0519347
-0.0519348
-0.0519349
-0.051935
-0.0519352
-0.0519353
-0.0519354
-0.0519356
-0.0519357
-0.0519358
-0.0519358
-0.0519359
-0.0519359
-0.103865
-0.103865
-0.103865
-0.103866
-0.103866
-0.103867
-0.103867
-0.103867
-0.103867
-0.103867
-0.103867
-0.103866
-0.103866
-0.103866
-0.103866
-0.103866
-0.103866
-0.103866
-0.103866
-0.103866
-0.103866
-0.103867
-0.103867
-0.103867
-0.103867
-0.103867
-0.103867
-0.103867
-0.103867
-0.103868
-0.103868
-0.103868
-0.155797
-0.155797
-0.155797
-0.155798
-0.155798
-0.155798
-0.155798
-0.155798
-0.155798
-0.155798
-0.155798
-0.155798
-0.155798
-0.155798
-0.155798
-0.155798
-0.155798
-0.155798
-0.155798
-0.155798
-0.155798
-0.155798
-0.155798
-0.155798
-0.155799
-0.155799
-0.155799
-0.155799
-0.155799
-0.155799
-0.155799
-0.155799
-0.207729
-0.207729
-0.207729
-0.20773
-0.20773
-0.20773
-0.20773
-0.20773
-0.20773
-0.20773
-0.20773
-0.20773
-0.207729
-0.207729
-0.207729
-0.207729
-0.207729
-0.207729
-0.207729
-0.207729
-0.20773
-0.20773
-0.20773
-0.20773
-0.20773
-0.20773
-0.207731
-0.207731
-0.207731
-0.207731
-0.207731
-0.207731
-0.259661
-0.259661
-0.259661
-0.259661
-0.259662
-0.259662
-0.259662
-0.259662
-0.259661
-0.259661
-0.259661
-0.259661
-0.259661
-0.259661
-0.259661
-0.259661
-0.259661
-0.259661
-0.259661
-0.259661
-0.259661
-0.259661
-0.259661
-0.259662
-0.259662
-0.259662
-0.259662
-0.259662
-0.259663
-0.259663
-0.259663
-0.259663
-0.311593
-0.311593
-0.311593
-0.311593
-0.311593
-0.311593
-0.311593
-0.311593
-0.311593
-0.311593
-0.311593
-0.311592
-0.311592
-0.311592
-0.311592
-0.311592
-0.311592
-0.311592
-0.311592
-0.311592
-0.311592
-0.311593
-0.311593
-0.311593
-0.311593
-0.311594
-0.311594
-0.311594
-0.311594
-0.311595
-0.311595
-0.311595
-0.363525
-0.363525
-0.363525
-0.363525
-0.363525
-0.363525
-0.363525
-0.363525
-0.363525
-0.363524
-0.363524
-0.363524
-0.363524
-0.363523
-0.363523
-0.363523
-0.363523
-0.363523
-0.363523
-0.363524
-0.363524
-0.363524
-0.363524
-0.363525
-0.363525
-0.363525
-0.363526
-0.363526
-0.363526
-0.363526
-0.363526
-0.363526
-0.415457
-0.415457
-0.415457
-0.415457
-0.415457
-0.415457
-0.415457
-0.415456
-0.415456
-0.415456
-0.415455
-0.415455
-0.415455
-0.415455
-0.415455
-0.415454
-0.415454
-0.415455
-0.415455
-0.415455
-0.415455
-0.415455
-0.415456
-0.415456
-0.415457
-0.415457
-0.415457
-0.415458
-0.415458
-0.415458
-0.415458
-0.415458
-0.467389
-0.467389
-0.467389
-0.467389
-0.467389
-0.467389
-0.467388
-0.467388
-0.467388
-0.467387
-0.467387
-0.467386
-0.467386
-0.467386
-0.467386
-0.467386
-0.467386
-0.467386
-0.467386
-0.467386
-0.467386
-0.467387
-0.467387
-0.467388
-0.467388
-0.467389
-0.467389
-0.46739
-0.46739
-0.46739
-0.46739
-0.46739
-0.519321
-0.519321
-0.519321
-0.519321
-0.519321
-0.51932
-0.51932
-0.51932
-0.519319
-0.519318
-0.519318
-0.519318
-0.519317
-0.519317
-0.519317
-0.519317
-0.519317
-0.519317
-0.519317
-0.519317
-0.519318
-0.519318
-0.519319
-0.519319
-0.51932
-0.51932
-0.519321
-0.519321
-0.519322
-0.519322
-0.519322
-0.519322
-0.571254
-0.571254
-0.571253
-0.571253
-0.571253
-0.571252
-0.571252
-0.571251
-0.57125
-0.57125
-0.571249
-0.571249
-0.571248
-0.571248
-0.571247
-0.571247
-0.571247
-0.571248
-0.571248
-0.571248
-0.571249
-0.571249
-0.57125
-0.571251
-0.571251
-0.571252
-0.571253
-0.571253
-0.571254
-0.571254
-0.571254
-0.571254
-0.623186
-0.623186
-0.623186
-0.623185
-0.623185
-0.623184
-0.623183
-0.623183
-0.623182
-0.623181
-0.62318
-0.62318
-0.623179
-0.623179
-0.623178
-0.623178
-0.623178
-0.623178
-0.623179
-0.623179
-0.62318
-0.62318
-0.623181
-0.623182
-0.623183
-0.623184
-0.623185
-0.623185
-0.623186
-0.623186
-0.623187
-0.623187
-0.675119
-0.675118
-0.675118
-0.675118
-0.675117
-0.675116
-0.675115
-0.675114
-0.675113
-0.675112
-0.675111
-0.67511
-0.67511
-0.675109
-0.675109
-0.675109
-0.675109
-0.675109
-0.675109
-0.67511
-0.675111
-0.675111
-0.675112
-0.675113
-0.675115
-0.675116
-0.675116
-0.675117
-0.675118
-0.675119
-0.675119
-0.675119
-0.727051
-0.727051
-0.727051
-0.72705
-0.727049
-0.727048
-0.727047
-0.727046
-0.727045
-0.727043
-0.727042
-0.727041
-0.72704
-0.72704
-0.727039
-0.727039
-0.727039
-0.727039
-0.72704
-0.72704
-0.727041
-0.727042
-0.727044
-0.727045
-0.727046
-0.727047
-0.727049
-0.72705
-0.72705
-0.727051
-0.727052
-0.727052
-0.778984
-0.778984
-0.778983
-0.778983
-0.778982
-0.77898
-0.778979
-0.778978
-0.778976
-0.778974
-0.778973
-0.778972
-0.778971
-0.77897
-0.778969
-0.778969
-0.778969
-0.778969
-0.77897
-0.778971
-0.778972
-0.778973
-0.778975
-0.778976
-0.778978
-0.778979
-0.778981
-0.778982
-0.778983
-0.778984
-0.778984
-0.778985
-0.830917
-0.830917
-0.830916
-0.830915
-0.830914
-0.830913
-0.830911
-0.830909
-0.830907
-0.830905
-0.830904
-0.830902
-0.830901
-0.8309
-0.830899
-0.830899
-0.830899
-0.830899
-0.8309
-0.830901
-0.830902
-0.830904
-0.830906
-0.830907
-0.830909
-0.830911
-0.830913
-0.830914
-0.830916
-0.830917
-0.830917
-0.830918
-0.882851
-0.882851
-0.88285
-0.882849
-0.882847
-0.882845
-0.882843
-0.882841
-0.882839
-0.882836
-0.882834
-0.882832
-0.882831
-0.882829
-0.882828
-0.882828
-0.882828
-0.882828
-0.882829
-0.882831
-0.882832
-0.882834
-0.882836
-0.882839
-0.882841
-0.882843
-0.882845
-0.882847
-0.882849
-0.88285
-0.882851
-0.882851
-0.934785
-0.934784
-0.934783
-0.934782
-0.93478
-0.934778
-0.934775
-0.934773
-0.93477
-0.934767
-0.934764
-0.934762
-0.93476
-0.934758
-0.934757
-0.934757
-0.934757
-0.934757
-0.934758
-0.93476
-0.934762
-0.934764
-0.934767
-0.93477
-0.934773
-0.934775
-0.934778
-0.93478
-0.934782
-0.934784
-0.934785
-0.934785
-0.986719
-0.986719
-0.986718
-0.986716
-0.986714
-0.986711
-0.986708
-0.986704
-0.986701
-0.986698
-0.986694
-0.986691
-0.986689
-0.986687
-0.986686
-0.986685
-0.986685
-0.986686
-0.986687
-0.986689
-0.986691
-0.986694
-0.986698
-0.986701
-0.986704
-0.986708
-0.986711
-0.986714
-0.986716
-0.986718
-0.986719
-0.98672
-1.03865
-1.03865
-1.03865
-1.03865
-1.03865
-1.03864
-1.03864
-1.03864
-1.03863
-1.03863
-1.03862
-1.03862
-1.03862
-1.03862
-1.03861
-1.03861
-1.03861
-1.03861
-1.03862
-1.03862
-1.03862
-1.03862
-1.03863
-1.03863
-1.03864
-1.03864
-1.03864
-1.03865
-1.03865
-1.03865
-1.03865
-1.03865
-1.09059
-1.09059
-1.09059
-1.09059
-1.09058
-1.09058
-1.09057
-1.09057
-1.09056
-1.09056
-1.09055
-1.09055
-1.09055
-1.09054
-1.09054
-1.09054
-1.09054
-1.09054
-1.09054
-1.09055
-1.09055
-1.09055
-1.09056
-1.09056
-1.09057
-1.09057
-1.09058
-1.09058
-1.09059
-1.09059
-1.09059
-1.09059
-1.14253
-1.14253
-1.14252
-1.14252
-1.14252
-1.14251
-1.14251
-1.1425
-1.14249
-1.14249
-1.14248
-1.14248
-1.14247
-1.14247
-1.14247
-1.14247
-1.14247
-1.14247
-1.14247
-1.14247
-1.14248
-1.14248
-1.14249
-1.14249
-1.1425
-1.14251
-1.14251
-1.14252
-1.14252
-1.14252
-1.14253
-1.14253
-1.19447
-1.19446
-1.19446
-1.19446
-1.19445
-1.19445
-1.19444
-1.19443
-1.19442
-1.19442
-1.19441
-1.1944
-1.1944
-1.19439
-1.19439
-1.19439
-1.19439
-1.19439
-1.19439
-1.1944
-1.1944
-1.19441
-1.19442
-1.19442
-1.19443
-1.19444
-1.19445
-1.19445
-1.19446
-1.19446
-1.19446
-1.19447
-1.24641
-1.2464
-1.2464
-1.2464
-1.24639
-1.24638
-1.24637
-1.24636
-1.24636
-1.24635
-1.24634
-1.24633
-1.24632
-1.24632
-1.24631
-1.24631
-1.24631
-1.24631
-1.24632
-1.24632
-1.24633
-1.24634
-1.24635
-1.24636
-1.24636
-1.24637
-1.24638
-1.24639
-1.2464
-1.2464
-1.2464
-1.24641
-1.29835
-1.29834
-1.29834
-1.29834
-1.29833
-1.29832
-1.29831
-1.2983
-1.29829
-1.29827
-1.29826
-1.29825
-1.29825
-1.29824
-1.29824
-1.29823
-1.29823
-1.29824
-1.29824
-1.29825
-1.29825
-1.29826
-1.29827
-1.29829
-1.2983
-1.29831
-1.29832
-1.29833
-1.29834
-1.29834
-1.29834
-1.29835
-1.35029
-1.35029
-1.35028
-1.35028
-1.35027
-1.35026
-1.35024
-1.35023
-1.35022
-1.3502
-1.35019
-1.35018
-1.35017
-1.35016
-1.35016
-1.35015
-1.35015
-1.35016
-1.35016
-1.35017
-1.35018
-1.35019
-1.3502
-1.35022
-1.35023
-1.35024
-1.35026
-1.35027
-1.35028
-1.35028
-1.35029
-1.35029
-1.40224
-1.40223
-1.40223
-1.40222
-1.40221
-1.40219
-1.40218
-1.40216
-1.40215
-1.40213
-1.40211
-1.4021
-1.40209
-1.40208
-1.40207
-1.40207
-1.40207
-1.40207
-1.40208
-1.40209
-1.4021
-1.40211
-1.40213
-1.40215
-1.40216
-1.40218
-1.40219
-1.40221
-1.40222
-1.40223
-1.40223
-1.40224
-1.45419
-1.45418
-1.45418
-1.45417
-1.45415
-1.45414
-1.45412
-1.4541
-1.45408
-1.45406
-1.45404
-1.45402
-1.45401
-1.45399
-1.45399
-1.45398
-1.45398
-1.45399
-1.45399
-1.45401
-1.45402
-1.45404
-1.45406
-1.45408
-1.4541
-1.45412
-1.45414
-1.45415
-1.45417
-1.45418
-1.45418
-1.45419
-1.50614
-1.50614
-1.50613
-1.50611
-1.5061
-1.50608
-1.50605
-1.50603
-1.50601
-1.50598
-1.50596
-1.50594
-1.50592
-1.50591
-1.5059
-1.50589
-1.50589
-1.5059
-1.50591
-1.50592
-1.50594
-1.50596
-1.50598
-1.50601
-1.50603
-1.50605
-1.50608
-1.5061
-1.50611
-1.50613
-1.50614
-1.50614
-1.5581
-1.55809
-1.55808
-1.55807
-1.55805
-1.55802
-1.55799
-1.55797
-1.55794
-1.55791
-1.55788
-1.55785
-1.55783
-1.55781
-1.5578
-1.5578
-1.5578
-1.5578
-1.55781
-1.55783
-1.55785
-1.55788
-1.55791
-1.55794
-1.55797
-1.55799
-1.55802
-1.55805
-1.55807
-1.55808
-1.55809
-1.5581
-1.61006
-1.61006
-1.61004
-1.61002
-1.61
-1.60997
-1.60994
-1.6099
-1.60986
-1.60983
-1.60979
-1.60976
-1.60974
-1.60972
-1.6097
-1.60969
-1.60969
-1.6097
-1.60972
-1.60974
-1.60976
-1.60979
-1.60983
-1.60986
-1.6099
-1.60994
-1.60997
-1.61
-1.61002
-1.61004
-1.61006
-1.61006
-1.66203
-1.66203
-1.66201
-1.66199
-1.66196
-1.66192
-1.66188
-1.66184
-1.66179
-1.66175
-1.66171
-1.66167
-1.66164
-1.66161
-1.66159
-1.66158
-1.66158
-1.66159
-1.66161
-1.66164
-1.66167
-1.66171
-1.66175
-1.66179
-1.66184
-1.66188
-1.66192
-1.66196
-1.66199
-1.66201
-1.66203
-1.66203
-1.71401
-1.71401
-1.71399
-1.71396
-1.71392
-1.71388
-1.71383
-1.71377
-1.71372
-1.71367
-1.71362
-1.71357
-1.71353
-1.7135
-1.71348
-1.71347
-1.71347
-1.71348
-1.7135
-1.71353
-1.71357
-1.71362
-1.71367
-1.71372
-1.71377
-1.71383
-1.71388
-1.71392
-1.71396
-1.71399
-1.714
-1.71401
-1.766
-1.76599
-1.76597
-1.76594
-1.76589
-1.76584
-1.76578
-1.76571
-1.76565
-1.76558
-1.76552
-1.76546
-1.76542
-1.76538
-1.76535
-1.76534
-1.76534
-1.76535
-1.76538
-1.76542
-1.76546
-1.76552
-1.76558
-1.76565
-1.76571
-1.76578
-1.76584
-1.76589
-1.76594
-1.76597
-1.76599
-1.766
-1.81801
-1.818
-1.81797
-1.81793
-1.81787
-1.81781
-1.81773
-1.81765
-1.81757
-1.81749
-1.81742
-1.81735
-1.81729
-1.81725
-1.81721
-1.8172
-1.8172
-1.81721
-1.81725
-1.81729
-1.81735
-1.81742
-1.81749
-1.81757
-1.81765
-1.81773
-1.81781
-1.81787
-1.81793
-1.81797
-1.818
-1.81801
-1.87003
-1.87001
-1.86998
-1.86993
-1.86986
-1.86978
-1.86969
-1.8696
-1.8695
-1.8694
-1.86931
-1.86923
-1.86915
-1.8691
-1.86906
-1.86904
-1.86904
-1.86906
-1.8691
-1.86915
-1.86923
-1.86931
-1.8694
-1.8695
-1.8696
-1.86969
-1.86978
-1.86986
-1.86993
-1.86998
-1.87001
-1.87003
-1.92207
-1.92205
-1.92201
-1.92194
-1.92186
-1.92177
-1.92166
-1.92154
-1.92142
-1.9213
-1.92119
-1.92109
-1.921
-1.92094
-1.92089
-1.92086
-1.92086
-1.92089
-1.92094
-1.921
-1.92109
-1.92119
-1.9213
-1.92142
-1.92154
-1.92166
-1.92177
-1.92186
-1.92194
-1.92201
-1.92205
-1.92207
-1.97413
-1.9741
-1.97406
-1.97398
-1.97388
-1.97376
-1.97363
-1.97349
-1.97334
-1.9732
-1.97306
-1.97294
-1.97283
-1.97275
-1.97269
-1.97266
-1.97266
-1.97269
-1.97275
-1.97283
-1.97294
-1.97306
-1.9732
-1.97334
-1.97349
-1.97363
-1.97376
-1.97388
-1.97398
-1.97406
-1.9741
-1.97413
-2.02622
-2.02619
-2.02613
-2.02604
-2.02592
-2.02578
-2.02561
-2.02544
-2.02526
-2.02509
-2.02492
-2.02477
-2.02464
-2.02454
-2.02447
-2.02444
-2.02444
-2.02447
-2.02454
-2.02464
-2.02477
-2.02492
-2.02509
-2.02526
-2.02544
-2.02561
-2.02578
-2.02592
-2.02604
-2.02613
-2.02619
-2.02622
-2.07834
-2.07831
-2.07824
-2.07812
-2.07798
-2.0778
-2.07761
-2.0774
-2.07718
-2.07697
-2.07677
-2.07658
-2.07642
-2.0763
-2.07622
-2.07617
-2.07617
-2.07622
-2.0763
-2.07642
-2.07658
-2.07677
-2.07697
-2.07718
-2.0774
-2.07761
-2.0778
-2.07798
-2.07812
-2.07824
-2.07831
-2.07834
-2.13051
-2.13047
-2.13038
-2.13024
-2.13007
-2.12986
-2.12962
-2.12936
-2.1291
-2.12884
-2.12859
-2.12837
-2.12817
-2.12802
-2.12792
-2.12787
-2.12787
-2.12792
-2.12802
-2.12817
-2.12837
-2.12859
-2.12884
-2.1291
-2.12936
-2.12962
-2.12986
-2.13007
-2.13024
-2.13038
-2.13047
-2.13051
-2.18273
-2.18268
-2.18257
-2.1824
-2.18219
-2.18193
-2.18164
-2.18133
-2.18101
-2.18069
-2.18039
-2.18012
-2.17988
-2.1797
-2.17957
-2.17951
-2.17951
-2.17957
-2.1797
-2.17988
-2.18012
-2.18039
-2.18069
-2.18101
-2.18133
-2.18164
-2.18193
-2.18219
-2.1824
-2.18257
-2.18268
-2.18273
-2.235
-2.23494
-2.23481
-2.23462
-2.23435
-2.23404
-2.23369
-2.23331
-2.23292
-2.23253
-2.23217
-2.23183
-2.23155
-2.23132
-2.23117
-2.23109
-2.23109
-2.23117
-2.23132
-2.23155
-2.23183
-2.23217
-2.23253
-2.23292
-2.23331
-2.23369
-2.23404
-2.23435
-2.23462
-2.23481
-2.23494
-2.235
-2.28736
-2.28728
-2.28713
-2.28689
-2.28657
-2.28619
-2.28576
-2.2853
-2.28483
-2.28436
-2.28391
-2.2835
-2.28315
-2.28288
-2.28268
-2.28259
-2.28259
-2.28268
-2.28288
-2.28315
-2.2835
-2.28391
-2.28436
-2.28483
-2.2853
-2.28576
-2.28619
-2.28657
-2.28689
-2.28713
-2.28728
-2.28736
-2.3398
-2.33971
-2.33952
-2.33923
-2.33885
-2.33839
-2.33787
-2.33731
-2.33673
-2.33616
-2.33561
-2.33511
-2.33468
-2.33435
-2.33411
-2.33399
-2.33399
-2.33411
-2.33435
-2.33468
-2.33511
-2.33561
-2.33616
-2.33673
-2.33731
-2.33787
-2.33839
-2.33885
-2.33923
-2.33952
-2.33971
-2.3398
-2.39236
-2.39225
-2.39202
-2.39167
-2.3912
-2.39064
-2.39001
-2.38933
-2.38863
-2.38793
-2.38726
-2.38665
-2.38613
-2.38572
-2.38543
-2.38528
-2.38528
-2.38543
-2.38572
-2.38613
-2.38665
-2.38726
-2.38793
-2.38863
-2.38933
-2.39001
-2.39064
-2.3912
-2.39167
-2.39202
-2.39225
-2.39236
-2.44505
-2.44492
-2.44464
-2.44421
-2.44365
-2.44297
-2.44221
-2.44138
-2.44053
-2.43968
-2.43886
-2.43811
-2.43747
-2.43696
-2.43661
-2.43643
-2.43643
-2.43661
-2.43696
-2.43747
-2.43811
-2.43886
-2.43968
-2.44053
-2.44138
-2.44221
-2.44297
-2.44365
-2.44421
-2.44464
-2.44492
-2.44505
-2.4979
-2.49774
-2.49741
-2.49689
-2.49621
-2.49539
-2.49447
-2.49346
-2.49242
-2.49138
-2.49039
-2.48948
-2.48869
-2.48806
-2.48762
-2.4874
-2.4874
-2.48762
-2.48806
-2.48869
-2.48948
-2.49039
-2.49138
-2.49242
-2.49346
-2.49447
-2.49539
-2.49621
-2.49689
-2.4974
-2.49774
-2.4979
-2.55094
-2.55075
-2.55035
-2.54973
-2.54891
-2.54792
-2.5468
-2.54559
-2.54432
-2.54306
-2.54184
-2.54072
-2.53975
-2.53897
-2.53843
-2.53815
-2.53815
-2.53843
-2.53897
-2.53975
-2.54072
-2.54184
-2.54306
-2.54432
-2.54559
-2.5468
-2.54792
-2.54891
-2.54973
-2.55035
-2.55075
-2.55094
-2.60423
-2.604
-2.60351
-2.60276
-2.60177
-2.60058
-2.59923
-2.59776
-2.59622
-2.59468
-2.59319
-2.59182
-2.59062
-2.58966
-2.58899
-2.58864
-2.58864
-2.58899
-2.58966
-2.59062
-2.59182
-2.59319
-2.59468
-2.59622
-2.59776
-2.59923
-2.60058
-2.60177
-2.60276
-2.60351
-2.604
-2.60423
-2.65779
-2.65752
-2.65694
-2.65603
-2.65484
-2.65341
-2.65178
-2.65
-2.64814
-2.64626
-2.64444
-2.64275
-2.64127
-2.64008
-2.63923
-2.6388
-2.6388
-2.63923
-2.64008
-2.64127
-2.64275
-2.64444
-2.64626
-2.64814
-2.65
-2.65178
-2.65341
-2.65484
-2.65603
-2.65694
-2.65752
-2.65779
-2.71171
-2.71138
-2.71068
-2.70959
-2.70817
-2.70644
-2.70448
-2.70234
-2.70008
-2.6978
-2.69557
-2.69349
-2.69165
-2.69016
-2.6891
-2.68855
-2.68855
-2.6891
-2.69016
-2.69165
-2.69349
-2.69557
-2.6978
-2.70008
-2.70234
-2.70448
-2.70644
-2.70817
-2.70959
-2.71068
-2.71138
-2.71171
-2.76604
-2.76564
-2.7648
-2.7635
-2.76179
-2.75973
-2.75737
-2.75479
-2.75207
-2.74929
-2.74656
-2.74399
-2.74171
-2.73983
-2.73849
-2.73778
-2.73778
-2.73849
-2.73983
-2.74171
-2.74399
-2.74656
-2.74929
-2.75207
-2.75479
-2.75737
-2.75973
-2.76179
-2.7635
-2.7648
-2.76564
-2.76604
-2.82086
-2.82039
-2.81938
-2.81783
-2.81579
-2.81332
-2.8105
-2.8074
-2.80412
-2.80075
-2.79742
-2.79424
-2.79138
-2.78901
-2.78728
-2.78637
-2.78637
-2.78728
-2.78901
-2.79138
-2.79424
-2.79742
-2.80075
-2.80412
-2.8074
-2.8105
-2.81332
-2.81579
-2.81783
-2.81938
-2.82039
-2.82086
-2.8763
-2.87573
-2.87452
-2.87266
-2.87023
-2.86728
-2.86392
-2.86022
-2.85628
-2.85221
-2.84814
-2.84421
-2.84062
-2.8376
-2.83534
-2.83414
-2.83414
-2.83534
-2.8376
-2.84062
-2.84421
-2.84814
-2.85221
-2.85628
-2.86022
-2.86392
-2.86728
-2.87023
-2.87266
-2.87452
-2.87573
-2.8763
-2.93246
-2.93178
-2.93033
-2.92811
-2.9252
-2.92171
-2.91771
-2.91331
-2.9086
-2.90371
-2.89874
-2.8939
-2.88937
-2.88548
-2.88248
-2.88084
-2.88084
-2.88248
-2.88548
-2.88937
-2.8939
-2.89874
-2.90371
-2.9086
-2.91331
-2.91771
-2.92171
-2.9252
-2.92811
-2.93033
-2.93178
-2.93246
-2.98951
-2.98868
-2.98693
-2.98427
-2.98082
-2.97669
-2.97196
-2.96676
-2.96117
-2.95532
-2.94929
-2.94332
-2.93756
-2.93254
-2.92842
-2.9261
-2.9261
-2.92842
-2.93254
-2.93756
-2.94332
-2.94929
-2.95532
-2.96117
-2.96676
-2.97196
-2.97669
-2.98082
-2.98427
-2.98693
-2.98868
-2.98951
-3.04764
-3.04661
-3.04448
-3.0413
-3.0372
-3.03232
-3.02676
-3.02067
-3.01407
-3.00717
-2.99988
-2.99255
-2.98514
-2.97864
-2.97287
-2.9695
-2.9695
-2.97287
-2.97864
-2.98514
-2.99255
-2.99988
-3.00717
-3.01407
-3.02067
-3.02676
-3.03232
-3.0372
-3.0413
-3.04448
-3.04661
-3.04764
-3.10711
-3.10581
-3.10317
-3.09933
-3.09446
-3.08873
-3.0822
-3.07515
-3.06741
-3.05943
-3.05063
-3.04176
-3.03224
-3.02408
-3.01611
-3.0112
-3.0112
-3.01612
-3.02409
-3.03224
-3.04176
-3.05063
-3.05943
-3.06741
-3.07515
-3.0822
-3.08873
-3.09446
-3.09933
-3.10317
-3.10581
-3.10711
-3.16825
-3.16657
-3.1632
-3.15853
-3.15271
-3.14602
-3.13834
-3.13031
-3.1212
-3.11234
-3.10185
-3.09153
-3.07955
-3.07086
-3.05796
-3.04961
-3.04961
-3.05796
-3.07086
-3.07955
-3.09153
-3.10185
-3.11234
-3.1212
-3.13031
-3.13834
-3.14602
-3.15271
-3.15853
-3.1632
-3.16657
-3.16825
-3.23156
-3.2293
-3.22481
-3.21905
-3.21203
-3.20427
-3.19516
-3.18628
-3.17532
-3.1666
-3.15375
-3.14412
-3.12508
-3.12256
-3.11521
-3.11593
-3.11593
-3.11521
-3.12256
-3.12508
-3.14412
-3.15375
-3.1666
-3.17532
-3.18628
-3.19516
-3.20427
-3.21203
-3.21905
-3.22481
-3.2293
-3.23156
-3.29775
-3.29459
-3.28809
-3.28092
-3.27249
-3.26376
-3.25239
-3.24444
-3.22989
-3.22678
-3.21602
-3.21976
-3.22965
-3.2241
-3.2363
-3.24292
-3.24292
-3.2363
-3.2241
-3.22965
-3.21976
-3.21602
-3.22678
-3.22989
-3.24444
-3.25239
-3.26376
-3.27249
-3.28092
-3.28809
-3.29459
-3.29775
-3.36789
-3.36326
-3.35238
-3.34372
-3.33382
-3.32644
-3.30975
-3.30916
-3.30964
-3.30397
-3.34204
-3.38028
-3.44219
-3.47555
-3.50294
-3.51462
-3.51462
-3.50294
-3.47555
-3.44219
-3.38028
-3.34204
-3.30397
-3.30964
-3.30916
-3.30975
-3.32644
-3.33382
-3.34372
-3.35238
-3.36326
-3.36789
-3.44273
-3.43763
-3.41531
-3.40815
-3.39143
-3.39628
-3.43394
-3.47159
-3.53943
-3.58894
-3.6465
-3.69397
-3.73924
-3.77203
-3.79585
-3.80795
-3.80795
-3.79585
-3.77203
-3.73924
-3.69397
-3.6465
-3.58894
-3.53943
-3.47159
-3.43394
-3.39628
-3.39143
-3.40815
-3.41531
-3.43763
-3.44273
-3.52236
-3.52769
-3.54206
-3.57759
-3.62968
-3.68824
-3.76087
-3.8172
-3.87689
-3.92741
-3.97603
-4.01902
-4.05624
-4.08476
-4.10438
-4.11437
-4.11437
-4.10438
-4.08476
-4.05624
-4.01902
-3.97603
-3.9274
-3.87689
-3.8172
-3.76087
-3.68824
-3.62968
-3.57759
-3.54206
-3.52769
-3.52236
-3.78524
-3.80544
-3.88233
-3.93343
-4.00245
-4.06025
-4.12135
-4.1754
-4.22645
-4.27242
-4.3145
-4.35156
-4.38288
-4.40715
-4.42376
-4.43218
-4.43218
-4.42376
-4.40715
-4.38288
-4.35156
-4.3145
-4.27242
-4.22645
-4.1754
-4.12135
-4.06025
-4.00245
-3.93343
-3.88233
-3.80544
-3.78524
-4.19844
-4.2261
-4.28548
-4.33523
-4.3886
-4.43963
-4.4904
-4.53772
-4.582
-4.62241
-4.65887
-4.69077
-4.71746
-4.73814
-4.75226
-4.75941
-4.75941
-4.75226
-4.73814
-4.71746
-4.69077
-4.65887
-4.62241
-4.582
-4.53772
-4.4904
-4.43963
-4.3886
-4.33523
-4.28548
-4.2261
-4.19844
-4.64129
-4.65976
-4.69616
-4.73557
-4.77835
-4.82111
-4.86354
-4.90402
-4.94209
-4.97704
-5.00849
-5.03591
-5.05873
-5.07638
-5.0884
-5.09449
-5.09449
-5.0884
-5.07638
-5.05873
-5.03591
-5.00849
-4.97704
-4.94209
-4.90402
-4.86354
-4.82111
-4.77835
-4.73557
-4.69616
-4.65976
-4.64129
-5.06632
-5.07957
-5.10471
-5.13511
-5.16898
-5.20403
-5.23925
-5.27341
-5.3058
-5.33573
-5.36269
-5.38616
-5.40566
-5.42072
-5.43097
-5.43616
-5.43616
-5.43097
-5.42072
-5.40566
-5.38616
-5.36269
-5.33573
-5.3058
-5.27341
-5.23925
-5.20403
-5.16898
-5.13511
-5.10472
-5.07958
-5.06632
-5.48134
-5.49089
-5.50889
-5.5322
-5.55894
-5.58741
-5.61646
-5.64504
-5.67237
-5.6978
-5.72076
-5.74077
-5.75738
-5.77021
-5.77894
-5.78336
-5.78336
-5.77894
-5.77021
-5.75738
-5.74077
-5.72076
-5.6978
-5.67237
-5.64504
-5.61646
-5.58741
-5.55894
-5.5322
-5.50889
-5.49089
-5.48134
-5.8881
-5.89514
-5.90846
-5.92643
-5.94759
-5.97062
-5.99447
-6.01822
-6.04115
-6.0626
-6.08205
-6.09903
-6.11314
-6.12404
-6.13146
-6.13521
-6.13521
-6.13146
-6.12404
-6.11314
-6.09903
-6.08205
-6.0626
-6.04115
-6.01823
-5.99447
-5.97062
-5.94759
-5.92643
-5.90846
-5.89514
-5.8881
-6.28846
-6.29376
-6.30387
-6.31786
-6.33467
-6.35328
-6.37281
-6.39247
-6.4116
-6.4296
-6.446
-6.46035
-6.47229
-6.48152
-6.48781
-6.49099
-6.49099
-6.48781
-6.48152
-6.47229
-6.46035
-6.446
-6.4296
-6.4116
-6.39247
-6.37281
-6.35328
-6.33467
-6.31786
-6.30387
-6.29376
-6.28846
-6.68387
-6.68794
-6.69577
-6.70676
-6.72017
-6.73522
-6.75119
-6.76741
-6.78331
-6.79836
-6.81212
-6.8242
-6.83427
-6.84206
-6.84737
-6.85006
-6.85006
-6.84737
-6.84206
-6.83427
-6.8242
-6.81212
-6.79836
-6.78331
-6.76742
-6.75119
-6.73522
-6.72017
-6.70676
-6.69577
-6.68794
-6.68387
-7.07542
-7.07859
-7.08473
-7.09344
-7.10419
-7.11637
-7.12942
-7.14278
-7.15596
-7.16849
-7.18
-7.19013
-7.1986
-7.20516
-7.20963
-7.2119
-7.2119
-7.20963
-7.20516
-7.1986
-7.19013
-7.18
-7.16849
-7.15596
-7.14278
-7.12942
-7.11637
-7.10419
-7.09344
-7.08473
-7.07859
-7.07542
-7.46391
-7.46641
-7.47127
-7.47823
-7.48687
-7.49676
-7.50742
-7.51841
-7.52931
-7.53972
-7.54932
-7.55779
-7.56489
-7.57039
-7.57415
-7.57606
-7.57606
-7.57415
-7.57039
-7.56489
-7.55779
-7.54932
-7.53973
-7.52931
-7.51841
-7.50742
-7.49676
-7.48687
-7.47823
-7.47127
-7.46641
-7.46391
-7.84996
-7.85195
-7.85583
-7.86142
-7.8684
-7.87643
-7.88515
-7.89418
-7.90318
-7.91182
-7.9198
-7.92687
-7.9328
-7.93741
-7.94055
-7.94215
-7.94215
-7.94055
-7.93741
-7.9328
-7.92687
-7.9198
-7.91182
-7.90318
-7.89418
-7.88515
-7.87643
-7.8684
-7.86142
-7.85583
-7.85195
-7.84996
-8.23405
-8.23565
-8.23877
-8.24327
-8.24893
-8.25547
-8.2626
-8.27002
-8.27744
-8.2846
-8.29122
-8.29711
-8.30205
-8.30589
-8.30853
-8.30986
-8.30986
-8.30853
-8.30589
-8.30205
-8.29711
-8.29122
-8.2846
-8.27744
-8.27002
-8.2626
-8.25547
-8.24893
-8.24327
-8.23877
-8.23565
-8.23405
-8.61657
-8.61786
-8.62037
-8.62402
-8.62862
-8.63395
-8.63978
-8.64588
-8.652
-8.65791
-8.66341
-8.66829
-8.67241
-8.67561
-8.67781
-8.67892
-8.67892
-8.67781
-8.67561
-8.67241
-8.66829
-8.66341
-8.65791
-8.652
-8.64588
-8.63978
-8.63395
-8.62862
-8.62402
-8.62037
-8.61786
-8.61657
-8.99781
-8.99885
-9.00089
-9.00385
-9.00759
-9.01195
-9.01673
-9.02174
-9.02678
-9.03166
-9.03621
-9.04026
-9.04368
-9.04634
-9.04817
-9.0491
-9.0491
-9.04817
-9.04634
-9.04368
-9.04026
-9.03621
-9.03166
-9.02678
-9.02174
-9.01673
-9.01195
-9.00759
-9.00385
-9.00089
-8.99885
-8.99781
-9.37801
-9.37886
-9.38052
-9.38293
-9.38598
-9.38954
-9.39346
-9.39757
-9.40172
-9.40575
-9.40952
-9.41287
-9.4157
-9.41792
-9.41943
-9.4202
-9.4202
-9.41943
-9.41792
-9.4157
-9.41287
-9.40952
-9.40575
-9.40172
-9.39757
-9.39346
-9.38954
-9.38598
-9.38293
-9.38052
-9.37886
-9.37801
-9.75737
-9.75806
-9.75941
-9.76138
-9.76387
-9.76678
-9.77
-9.77338
-9.7768
-9.78012
-9.78323
-9.786
-9.78835
-9.79018
-9.79144
-9.79208
-9.79208
-9.79144
-9.79018
-9.78835
-9.786
-9.78323
-9.78012
-9.7768
-9.77338
-9.77
-9.76678
-9.76387
-9.76138
-9.75941
-9.75806
-9.75737
-10.136
-10.1366
-10.1377
-10.1393
-10.1414
-10.1437
-10.1464
-10.1492
-10.152
-10.1547
-10.1573
-10.1596
-10.1615
-10.163
-10.1641
-10.1646
-10.1646
-10.1641
-10.163
-10.1615
-10.1596
-10.1573
-10.1547
-10.152
-10.1492
-10.1464
-10.1437
-10.1414
-10.1393
-10.1377
-10.1366
-10.136
-10.5142
-10.5146
-10.5155
-10.5168
-10.5185
-10.5204
-10.5226
-10.5249
-10.5272
-10.5295
-10.5316
-10.5335
-10.5351
-10.5363
-10.5372
-10.5376
-10.5376
-10.5372
-10.5363
-10.5351
-10.5335
-10.5316
-10.5295
-10.5272
-10.5249
-10.5226
-10.5204
-10.5185
-10.5168
-10.5155
-10.5146
-10.5142
-10.8918
-10.8922
-10.8929
-10.894
-10.8954
-10.897
-10.8987
-10.9006
-10.9025
-10.9044
-10.9061
-10.9077
-10.909
-10.9101
-10.9108
-10.9111
-10.9111
-10.9108
-10.9101
-10.909
-10.9077
-10.9061
-10.9044
-10.9025
-10.9006
-10.8987
-10.897
-10.8954
-10.894
-10.8929
-10.8922
-10.8918
-11.2691
-11.2694
-11.27
-11.2709
-11.272
-11.2733
-11.2748
-11.2763
-11.2779
-11.2794
-11.2808
-11.2821
-11.2832
-11.2841
-11.2847
-11.285
-11.285
-11.2847
-11.2841
-11.2832
-11.2821
-11.2808
-11.2794
-11.2779
-11.2763
-11.2748
-11.2733
-11.272
-11.2709
-11.27
-11.2694
-11.2691
-11.646
-11.6463
-11.6468
-11.6475
-11.6484
-11.6495
-11.6507
-11.652
-11.6533
-11.6545
-11.6557
-11.6568
-11.6577
-11.6584
-11.6589
-11.6591
-11.6591
-11.6589
-11.6584
-11.6577
-11.6568
-11.6557
-11.6545
-11.6533
-11.652
-11.6507
-11.6495
-11.6484
-11.6475
-11.6468
-11.6463
-11.646
-12.0227
-12.0229
-12.0233
-12.0239
-12.0247
-12.0256
-12.0266
-12.0276
-12.0287
-12.0297
-12.0307
-12.0316
-12.0323
-12.0329
-12.0333
-12.0335
-12.0335
-12.0333
-12.0329
-12.0323
-12.0316
-12.0307
-12.0297
-12.0287
-12.0276
-12.0266
-12.0256
-12.0247
-12.0239
-12.0233
-12.0229
-12.0227
-12.3992
-12.3994
-12.3997
-12.4002
-12.4008
-12.4016
-12.4024
-12.4032
-12.4041
-12.405
-12.4058
-12.4065
-12.4071
-12.4076
-12.4079
-12.4081
-12.4081
-12.4079
-12.4076
-12.4071
-12.4065
-12.4058
-12.405
-12.4041
-12.4032
-12.4024
-12.4016
-12.4008
-12.4002
-12.3997
-12.3994
-12.3992
-12.7756
-12.7757
-12.776
-12.7764
-12.7769
-12.7775
-12.7781
-12.7789
-12.7796
-12.7803
-12.7809
-12.7815
-12.782
-12.7824
-12.7827
-12.7829
-12.7829
-12.7827
-12.7824
-12.782
-12.7815
-12.7809
-12.7803
-12.7796
-12.7789
-12.7781
-12.7775
-12.7769
-12.7764
-12.776
-12.7757
-12.7756
-13.1517
-13.1519
-13.1521
-13.1524
-13.1528
-13.1533
-13.1539
-13.1545
-13.155
-13.1556
-13.1562
-13.1567
-13.1571
-13.1574
-13.1576
-13.1577
-13.1577
-13.1576
-13.1574
-13.1571
-13.1567
-13.1562
-13.1556
-13.155
-13.1545
-13.1539
-13.1533
-13.1528
-13.1524
-13.1521
-13.1519
-13.1517
-13.5278
-13.5279
-13.5281
-13.5284
-13.5287
-13.5291
-13.5296
-13.53
-13.5305
-13.531
-13.5315
-13.5319
-13.5322
-13.5325
-13.5327
-13.5328
-13.5328
-13.5327
-13.5325
-13.5322
-13.5319
-13.5315
-13.531
-13.5305
-13.53
-13.5296
-13.5291
-13.5287
-13.5284
-13.5281
-13.5279
-13.5278
-13.9038
-13.9039
-13.904
-13.9042
-13.9045
-13.9049
-13.9052
-13.9056
-13.906
-13.9064
-13.9068
-13.9071
-13.9074
-13.9076
-13.9078
-13.9079
-13.9079
-13.9078
-13.9076
-13.9074
-13.9071
-13.9068
-13.9064
-13.906
-13.9056
-13.9052
-13.9049
-13.9045
-13.9042
-13.904
-13.9039
-13.9038
-14.2797
-14.2798
-14.2799
-14.2801
-14.2803
-14.2806
-14.2809
-14.2812
-14.2815
-14.2819
-14.2822
-14.2824
-14.2827
-14.2828
-14.283
-14.283
-14.283
-14.283
-14.2828
-14.2827
-14.2824
-14.2822
-14.2819
-14.2815
-14.2812
-14.2809
-14.2806
-14.2803
-14.2801
-14.2799
-14.2798
-14.2797
-14.6555
-14.6556
-14.6557
-14.6558
-14.656
-14.6563
-14.6565
-14.6568
-14.657
-14.6573
-14.6576
-14.6578
-14.658
-14.6581
-14.6582
-14.6583
-14.6583
-14.6582
-14.6581
-14.658
-14.6578
-14.6576
-14.6573
-14.657
-14.6568
-14.6565
-14.6563
-14.656
-14.6558
-14.6557
-14.6556
-14.6555
-15.0313
-15.0314
-15.0314
-15.0316
-15.0317
-15.0319
-15.0321
-15.0323
-15.0326
-15.0328
-15.033
-15.0332
-15.0333
-15.0334
-15.0335
-15.0336
-15.0336
-15.0335
-15.0334
-15.0333
-15.0332
-15.033
-15.0328
-15.0326
-15.0323
-15.0321
-15.0319
-15.0317
-15.0316
-15.0314
-15.0314
-15.0313
-15.4071
-15.4071
-15.4072
-15.4073
-15.4074
-15.4075
-15.4077
-15.4079
-15.4081
-15.4083
-15.4084
-15.4086
-15.4087
-15.4088
-15.4089
-15.4089
-15.4089
-15.4089
-15.4088
-15.4087
-15.4086
-15.4084
-15.4083
-15.4081
-15.4079
-15.4077
-15.4075
-15.4074
-15.4073
-15.4072
-15.4071
-15.4071
-15.7828
-15.7828
-15.7828
-15.7829
-15.783
-15.7832
-15.7833
-15.7834
-15.7836
-15.7837
-15.7839
-15.784
-15.7841
-15.7842
-15.7843
-15.7843
-15.7843
-15.7843
-15.7842
-15.7841
-15.784
-15.7839
-15.7837
-15.7836
-15.7834
-15.7833
-15.7832
-15.783
-15.7829
-15.7828
-15.7828
-15.7828
-16.1584
-16.1585
-16.1585
-16.1586
-16.1587
-16.1588
-16.1589
-16.159
-16.1591
-16.1592
-16.1594
-16.1595
-16.1596
-16.1596
-16.1597
-16.1597
-16.1597
-16.1597
-16.1596
-16.1596
-16.1595
-16.1594
-16.1592
-16.1591
-16.159
-16.1589
-16.1588
-16.1587
-16.1586
-16.1585
-16.1585
-16.1584
-16.5341
-16.5341
-16.5341
-16.5342
-16.5343
-16.5344
-16.5344
-16.5346
-16.5347
-16.5348
-16.5348
-16.5349
-16.535
-16.5351
-16.5351
-16.5351
-16.5351
-16.5351
-16.5351
-16.535
-16.5349
-16.5348
-16.5348
-16.5347
-16.5346
-16.5345
-16.5344
-16.5343
-16.5342
-16.5341
-16.5341
-16.5341
-16.9097
-16.9097
-16.9098
-16.9098
-16.9099
-16.9099
-16.91
-16.9101
-16.9102
-16.9103
-16.9103
-16.9104
-16.9105
-16.9105
-16.9106
-16.9106
-16.9106