/*--------------------------------*- C++ -*----------------------------------*\
  =========                 |
  \\      /  F ield         | OpenFOAM: The Open Source CFD Toolbox
   \\    /   O peration     | Website:  https://openfoam.org
    \\  /    A nd           | Version:  9
     \\/     M anipulation  |
\*---------------------------------------------------------------------------*/
FoamFile
{
    format      ascii;
    class       volScalarField;
    location    "0.1";
    object      p_rgh;
}
// * * * * * * * * * * * * * * * * * * * * * * * * * * * * * * * * * * * * * //

dimensions      [1 -1 -2 0 0 0 0];

internalField   nonuniform List<scalar> 
4096
(
-3.29766
-3.29766
-3.29766
-3.29766
-3.29766
-3.29767
-3.29767
-3.29767
-3.29767
-3.29767
-3.29767
-3.29767
-3.29767
-3.29767
-3.29767
-3.29767
-3.29767
-3.29767
-3.29767
-3.29767
-3.29767
-3.29767
-3.29767
-3.29767
-3.29767
-3.29767
-3.29767
-3.29767
-3.29767
-3.29767
-3.29767
-3.29767
-3.29766
-3.29766
-3.29766
-3.29766
-3.29766
-3.29767
-3.29767
-3.29767
-3.29767
-3.29767
-3.29767
-3.29767
-3.29767
-3.29767
-3.29767
-3.29767
-3.29767
-3.29767
-3.29767
-3.29767
-3.29767
-3.29767
-3.29767
-3.29767
-3.29767
-3.29767
-3.29767
-3.29767
-3.29767
-3.29767
-3.29767
-3.29767
-3.29766
-3.29766
-3.29766
-3.29766
-3.29767
-3.29767
-3.29767
-3.29767
-3.29767
-3.29767
-3.29767
-3.29767
-3.29767
-3.29767
-3.29766
-3.29766
-3.29766
-3.29766
-3.29767
-3.29767
-3.29767
-3.29767
-3.29767
-3.29767
-3.29767
-3.29767
-3.29767
-3.29767
-3.29767
-3.29767
-3.29767
-3.29767
-3.29766
-3.29766
-3.29766
-3.29766
-3.29767
-3.29767
-3.29767
-3.29767
-3.29767
-3.29767
-3.29767
-3.29767
-3.29766
-3.29766
-3.29766
-3.29766
-3.29766
-3.29766
-3.29766
-3.29766
-3.29767
-3.29767
-3.29767
-3.29767
-3.29767
-3.29767
-3.29767
-3.29767
-3.29767
-3.29767
-3.29767
-3.29767
-3.29766
-3.29766
-3.29766
-3.29767
-3.29767
-3.29767
-3.29767
-3.29767
-3.29767
-3.29767
-3.29767
-3.29766
-3.29766
-3.29766
-3.29766
-3.29766
-3.29766
-3.29766
-3.29766
-3.29766
-3.29766
-3.29767
-3.29767
-3.29767
-3.29767
-3.29767
-3.29767
-3.29767
-3.29767
-3.29767
-3.29767
-3.29767
-3.29766
-3.29766
-3.29767
-3.29767
-3.29767
-3.29767
-3.29767
-3.29767
-3.29767
-3.29767
-3.29766
-3.29766
-3.29766
-3.29766
-3.29766
-3.29766
-3.29766
-3.29766
-3.29766
-3.29766
-3.29766
-3.29766
-3.29767
-3.29767
-3.29767
-3.29767
-3.29767
-3.29767
-3.29767
-3.29767
-3.29767
-3.29767
-3.29767
-3.29767
-3.29767
-3.29767
-3.29767
-3.29767
-3.29767
-3.29767
-3.29767
-3.29766
-3.29766
-3.29766
-3.29766
-3.29766
-3.29766
-3.29766
-3.29766
-3.29766
-3.29766
-3.29766
-3.29766
-3.29766
-3.29766
-3.29767
-3.29767
-3.29767
-3.29767
-3.29767
-3.29767
-3.29767
-3.29767
-3.29767
-3.29767
-3.29767
-3.29767
-3.29767
-3.29767
-3.29767
-3.29767
-3.29767
-3.29766
-3.29766
-3.29766
-3.29766
-3.29766
-3.29766
-3.29766
-3.29766
-3.29766
-3.29766
-3.29766
-3.29766
-3.29766
-3.29766
-3.29766
-3.29767
-3.29767
-3.29767
-3.29767
-3.29767
-3.29767
-3.29767
-3.29767
-3.29767
-3.29767
-3.29767
-3.29767
-3.29767
-3.29767
-3.29767
-3.29767
-3.29767
-3.29766
-3.29766
-3.29766
-3.29766
-3.29766
-3.29766
-3.29766
-3.29766
-3.29766
-3.29766
-3.29766
-3.29766
-3.29766
-3.29766
-3.29766
-3.29766
-3.29767
-3.29767
-3.29767
-3.29767
-3.29767
-3.29767
-3.29767
-3.29767
-3.29767
-3.29767
-3.29767
-3.29767
-3.29767
-3.29767
-3.29767
-3.29766
-3.29766
-3.29766
-3.29766
-3.29766
-3.29766
-3.29766
-3.29766
-3.29766
-3.29766
-3.29766
-3.29766
-3.29766
-3.29766
-3.29766
-3.29766
-3.29766
-3.29767
-3.29767
-3.29767
-3.29767
-3.29767
-3.29767
-3.29767
-3.29767
-3.29767
-3.29767
-3.29767
-3.29767
-3.29767
-3.29767
-3.29767
-3.29766
-3.29766
-3.29766
-3.29766
-3.29766
-3.29766
-3.29766
-3.29766
-3.29766
-3.29766
-3.29766
-3.29766
-3.29766
-3.29766
-3.29766
-3.29766
-3.29766
-3.29767
-3.29767
-3.29767
-3.29767
-3.29767
-3.29767
-3.29767
-3.29767
-3.29767
-3.29767
-3.29767
-3.29767
-3.29767
-3.29767
-3.29767
-3.29766
-3.29766
-3.29766
-3.29766
-3.29766
-3.29766
-3.29766
-3.29766
-3.29766
-3.29766
-3.29766
-3.29766
-3.29766
-3.29766
-3.29766
-3.29766
-3.29766
-3.29766
-3.29767
-3.29767
-3.29767
-3.29767
-3.29767
-3.29767
-3.29767
-3.29767
-3.29767
-3.29767
-3.29767
-3.29767
-3.29767
-3.29767
-3.29766
-3.29766
-3.29766
-3.29766
-3.29766
-3.29766
-3.29766
-3.29766
-3.29766
-3.29766
-3.29766
-3.29766
-3.29766
-3.29766
-3.29766
-3.29766
-3.29766
-3.29766
-3.29767
-3.29767
-3.29767
-3.29767
-3.29767
-3.29767
-3.29767
-3.29767
-3.29767
-3.29767
-3.29767
-3.29767
-3.29767
-3.29767
-3.29766
-3.29766
-3.29766
-3.29766
-3.29766
-3.29766
-3.29766
-3.29766
-3.29766
-3.29766
-3.29766
-3.29766
-3.29766
-3.29766
-3.29766
-3.29766
-3.29766
-3.29766
-3.29767
-3.29767
-3.29767
-3.29767
-3.29767
-3.29767
-3.29767
-3.29767
-3.29767
-3.29767
-3.29767
-3.29767
-3.29767
-3.29767
-3.29766
-3.29766
-3.29766
-3.29766
-3.29766
-3.29766
-3.29766
-3.29766
-3.29766
-3.29766
-3.29766
-3.29766
-3.29766
-3.29766
-3.29766
-3.29766
-3.29766
-3.29766
-3.29767
-3.29767
-3.29767
-3.29767
-3.29767
-3.29767
-3.29767
-3.29767
-3.29767
-3.29767
-3.29767
-3.29767
-3.29767
-3.29767
-3.29766
-3.29766
-3.29766
-3.29766
-3.29766
-3.29766
-3.29766
-3.29766
-3.29766
-3.29766
-3.29766
-3.29766
-3.29766
-3.29766
-3.29766
-3.29766
-3.29766
-3.29766
-3.29767
-3.29767
-3.29767
-3.29767
-3.29767
-3.29767
-3.29767
-3.29767
-3.29767
-3.29767
-3.29767
-3.29767
-3.29767
-3.29767
-3.29766
-3.29766
-3.29766
-3.29766
-3.29766
-3.29766
-3.29765
-3.29765
-3.29765
-3.29765
-3.29765
-3.29765
-3.29766
-3.29766
-3.29766
-3.29766
-3.29766
-3.29766
-3.29767
-3.29767
-3.29767
-3.29767
-3.29767
-3.29767
-3.29767
-3.29767
-3.29767
-3.29767
-3.29767
-3.29767
-3.29767
-3.29767
-3.29766
-3.29766
-3.29766
-3.29766
-3.29766
-3.29765
-3.29765
-3.29765
-3.29765
-3.29765
-3.29765
-3.29765
-3.29765
-3.29766
-3.29766
-3.29766
-3.29766
-3.29766
-3.29767
-3.29767
-3.29767
-3.29767
-3.29767
-3.29767
-3.29767
-3.29768
-3.29768
-3.29768
-3.29767
-3.29767
-3.29767
-3.29767
-3.29766
-3.29766
-3.29766
-3.29766
-3.29765
-3.29765
-3.29765
-3.29765
-3.29765
-3.29765
-3.29765
-3.29765
-3.29765
-3.29765
-3.29766
-3.29766
-3.29766
-3.29766
-3.29767
-3.29767
-3.29767
-3.29767
-3.29768
-3.29768
-3.29768
-3.29768
-3.29768
-3.29768
-3.29768
-3.29767
-3.29767
-3.29767
-3.29766
-3.29766
-3.29766
-3.29765
-3.29765
-3.29765
-3.29765
-3.29765
-3.29765
-3.29765
-3.29765
-3.29765
-3.29765
-3.29765
-3.29765
-3.29766
-3.29766
-3.29766
-3.29767
-3.29767
-3.29767
-3.29768
-3.29768
-3.29768
-3.29768
-3.29768
-3.29768
-3.29768
-3.29768
-3.29768
-3.29767
-3.29767
-3.29766
-3.29766
-3.29766
-3.29765
-3.29765
-3.29765
-3.29764
-3.29764
-3.29764
-3.29764
-3.29764
-3.29764
-3.29765
-3.29765
-3.29765
-3.29766
-3.29766
-3.29766
-3.29767
-3.29767
-3.29768
-3.29768
-3.29768
-3.29768
-3.29768
-3.29769
-3.29769
-3.29768
-3.29768
-3.29768
-3.29767
-3.29767
-3.29766
-3.29766
-3.29765
-3.29765
-3.29765
-3.29764
-3.29764
-3.29764
-3.29764
-3.29764
-3.29764
-3.29764
-3.29764
-3.29765
-3.29765
-3.29765
-3.29766
-3.29766
-3.29767
-3.29767
-3.29768
-3.29768
-3.29768
-3.29769
-3.29769
-3.29769
-3.29769
-3.29769
-3.29769
-3.29768
-3.29768
-3.29767
-3.29767
-3.29766
-3.29765
-3.29765
-3.29764
-3.29764
-3.29763
-3.29763
-3.29763
-3.29763
-3.29763
-3.29763
-3.29764
-3.29764
-3.29765
-3.29765
-3.29766
-3.29767
-3.29767
-3.29768
-3.29768
-3.29769
-3.29769
-3.29769
-3.29769
-3.2977
-3.2977
-3.2977
-3.29769
-3.29769
-3.29768
-3.29767
-3.29767
-3.29766
-3.29765
-3.29764
-3.29764
-3.29763
-3.29763
-3.29762
-3.29762
-3.29762
-3.29762
-3.29763
-3.29763
-3.29764
-3.29764
-3.29765
-3.29766
-3.29767
-3.29767
-3.29768
-3.29769
-3.29769
-3.2977
-3.2977
-3.2977
-3.29771
-3.29771
-3.2977
-3.2977
-3.29769
-3.29768
-3.29768
-3.29767
-3.29766
-3.29765
-3.29764
-3.29763
-3.29762
-3.29762
-3.29762
-3.29761
-3.29761
-3.29762
-3.29762
-3.29762
-3.29763
-3.29764
-3.29765
-3.29766
-3.29767
-3.29768
-3.29768
-3.29769
-3.2977
-3.2977
-3.29771
-3.29771
-3.29772
-3.29771
-3.29771
-3.29771
-3.2977
-3.29769
-3.29768
-3.29767
-3.29766
-3.29764
-3.29763
-3.29762
-3.29762
-3.29761
-3.29761
-3.2976
-3.2976
-3.29761
-3.29761
-3.29762
-3.29762
-3.29763
-3.29764
-3.29766
-3.29767
-3.29768
-3.29769
-3.2977
-3.29771
-3.29771
-3.29771
-3.29772
-3.29773
-3.29773
-3.29772
-3.29771
-3.29771
-3.29769
-3.29768
-3.29767
-3.29765
-3.29764
-3.29763
-3.29762
-3.29761
-3.2976
-3.29759
-3.29759
-3.29759
-3.29759
-3.2976
-3.29761
-3.29762
-3.29763
-3.29764
-3.29765
-3.29767
-3.29768
-3.29769
-3.29771
-3.29771
-3.29772
-3.29773
-3.29773
-3.29774
-3.29774
-3.29773
-3.29773
-3.29771
-3.2977
-3.29769
-3.29767
-3.29765
-3.29764
-3.29762
-3.29761
-3.29759
-3.29759
-3.29758
-3.29758
-3.29758
-3.29758
-3.29759
-3.29759
-3.29761
-3.29762
-3.29764
-3.29765
-3.29767
-3.29769
-3.2977
-3.29771
-3.29773
-3.29773
-3.29774
-3.29774
-3.29776
-3.29776
-3.29775
-3.29774
-3.29773
-3.29771
-3.29769
-3.29767
-3.29765
-3.29763
-3.29761
-3.2976
-3.29758
-3.29757
-3.29756
-3.29756
-3.29756
-3.29756
-3.29757
-3.29758
-3.2976
-3.29761
-3.29763
-3.29765
-3.29767
-3.29769
-3.29771
-3.29773
-3.29774
-3.29775
-3.29776
-3.29776
-3.29778
-3.29778
-3.29777
-3.29776
-3.29774
-3.29772
-3.2977
-3.29767
-3.29765
-3.29762
-3.2976
-3.29758
-3.29756
-3.29755
-3.29754
-3.29753
-3.29753
-3.29754
-3.29755
-3.29756
-3.29758
-3.2976
-3.29762
-3.29765
-3.29767
-3.2977
-3.29772
-3.29774
-3.29776
-3.29777
-3.29778
-3.29778
-3.29781
-3.2978
-3.29779
-3.29778
-3.29776
-3.29773
-3.29771
-3.29768
-3.29765
-3.29762
-3.29759
-3.29756
-3.29754
-3.29752
-3.29751
-3.29751
-3.29751
-3.29751
-3.29752
-3.29754
-3.29756
-3.29759
-3.29762
-3.29765
-3.29768
-3.29771
-3.29773
-3.29776
-3.29778
-3.29779
-3.2978
-3.29781
-3.29784
-3.29784
-3.29782
-3.2978
-3.29778
-3.29775
-3.29772
-3.29768
-3.29764
-3.29761
-3.29757
-3.29754
-3.29752
-3.2975
-3.29748
-3.29747
-3.29747
-3.29748
-3.2975
-3.29752
-3.29754
-3.29757
-3.29761
-3.29764
-3.29768
-3.29772
-3.29775
-3.29778
-3.2978
-3.29782
-3.29784
-3.29784
-3.29788
-3.29787
-3.29786
-3.29784
-3.29781
-3.29777
-3.29773
-3.29769
-3.29764
-3.2976
-3.29755
-3.29752
-3.29748
-3.29746
-3.29744
-3.29743
-3.29743
-3.29744
-3.29746
-3.29748
-3.29752
-3.29755
-3.2976
-3.29764
-3.29769
-3.29773
-3.29777
-3.29781
-3.29784
-3.29786
-3.29787
-3.29788
-3.29793
-3.29792
-3.2979
-3.29787
-3.29784
-3.29779
-3.29774
-3.29769
-3.29764
-3.29758
-3.29753
-3.29749
-3.29745
-3.29742
-3.29739
-3.29738
-3.29738
-3.29739
-3.29742
-3.29745
-3.29749
-3.29753
-3.29758
-3.29764
-3.29769
-3.29774
-3.29779
-3.29784
-3.29787
-3.2979
-3.29792
-3.29793
-3.29799
-3.29798
-3.29796
-3.29792
-3.29788
-3.29782
-3.29776
-3.2977
-3.29763
-3.29757
-3.2975
-3.29745
-3.2974
-3.29736
-3.29734
-3.29732
-3.29732
-3.29734
-3.29736
-3.2974
-3.29745
-3.2975
-3.29757
-3.29763
-3.2977
-3.29776
-3.29782
-3.29788
-3.29792
-3.29796
-3.29798
-3.29799
-3.29806
-3.29805
-3.29802
-3.29798
-3.29792
-3.29786
-3.29779
-3.29771
-3.29763
-3.29755
-3.29747
-3.2974
-3.29734
-3.2973
-3.29727
-3.29725
-3.29725
-3.29727
-3.2973
-3.29734
-3.2974
-3.29747
-3.29755
-3.29763
-3.29771
-3.29779
-3.29786
-3.29792
-3.29798
-3.29802
-3.29805
-3.29806
-3.29815
-3.29813
-3.2981
-3.29805
-3.29798
-3.2979
-3.29781
-3.29772
-3.29762
-3.29752
-3.29743
-3.29735
-3.29728
-3.29722
-3.29718
-3.29716
-3.29716
-3.29718
-3.29722
-3.29728
-3.29735
-3.29743
-3.29752
-3.29762
-3.29772
-3.29781
-3.2979
-3.29798
-3.29805
-3.2981
-3.29813
-3.29815
-3.29826
-3.29824
-3.2982
-3.29813
-3.29805
-3.29796
-3.29785
-3.29773
-3.29761
-3.29749
-3.29738
-3.29728
-3.29719
-3.29712
-3.29708
-3.29705
-3.29705
-3.29708
-3.29712
-3.29719
-3.29728
-3.29738
-3.29749
-3.29761
-3.29773
-3.29785
-3.29796
-3.29805
-3.29813
-3.2982
-3.29824
-3.29826
-3.29839
-3.29836
-3.29831
-3.29824
-3.29814
-3.29802
-3.29789
-3.29775
-3.2976
-3.29746
-3.29732
-3.2972
-3.29709
-3.29701
-3.29695
-3.29692
-3.29692
-3.29695
-3.29701
-3.29709
-3.2972
-3.29732
-3.29746
-3.2976
-3.29775
-3.29789
-3.29802
-3.29814
-3.29824
-3.29831
-3.29836
-3.29839
-3.29854
-3.29852
-3.29846
-3.29836
-3.29824
-3.2981
-3.29794
-3.29777
-3.29759
-3.29741
-3.29725
-3.2971
-3.29697
-3.29687
-3.2968
-3.29676
-3.29676
-3.2968
-3.29687
-3.29697
-3.2971
-3.29725
-3.29741
-3.29759
-3.29777
-3.29794
-3.2981
-3.29824
-3.29836
-3.29846
-3.29852
-3.29854
-3.29874
-3.2987
-3.29863
-3.29852
-3.29837
-3.2982
-3.298
-3.29779
-3.29758
-3.29736
-3.29716
-3.29698
-3.29682
-3.2967
-3.29661
-3.29657
-3.29657
-3.29661
-3.2967
-3.29682
-3.29698
-3.29716
-3.29736
-3.29758
-3.29779
-3.298
-3.2982
-3.29837
-3.29852
-3.29863
-3.2987
-3.29874
-3.29897
-3.29893
-3.29884
-3.29871
-3.29853
-3.29832
-3.29808
-3.29782
-3.29756
-3.2973
-3.29705
-3.29683
-3.29664
-3.29649
-3.29638
-3.29633
-3.29633
-3.29638
-3.29649
-3.29664
-3.29683
-3.29705
-3.2973
-3.29756
-3.29782
-3.29808
-3.29832
-3.29853
-3.29871
-3.29884
-3.29893
-3.29897
-3.29926
-3.29921
-3.2991
-3.29894
-3.29872
-3.29846
-3.29817
-3.29786
-3.29754
-3.29722
-3.29692
-3.29665
-3.29642
-3.29623
-3.2961
-3.29604
-3.29604
-3.2961
-3.29623
-3.29642
-3.29665
-3.29692
-3.29722
-3.29754
-3.29786
-3.29817
-3.29846
-3.29872
-3.29894
-3.2991
-3.29921
-3.29926
-3.2996
-3.29954
-3.29941
-3.29921
-3.29895
-3.29864
-3.29829
-3.29791
-3.29752
-3.29713
-3.29677
-3.29643
-3.29615
-3.29592
-3.29577
-3.29569
-3.29569
-3.29577
-3.29592
-3.29615
-3.29643
-3.29677
-3.29713
-3.29752
-3.29791
-3.29829
-3.29864
-3.29895
-3.29921
-3.29941
-3.29954
-3.2996
-3.30003
-3.29995
-3.2998
-3.29955
-3.29924
-3.29886
-3.29843
-3.29797
-3.29749
-3.29702
-3.29658
-3.29617
-3.29582
-3.29554
-3.29535
-3.29525
-3.29525
-3.29535
-3.29554
-3.29582
-3.29617
-3.29658
-3.29702
-3.29749
-3.29797
-3.29843
-3.29886
-3.29924
-3.29955
-3.2998
-3.29995
-3.30003
-3.30054
-3.30045
-3.30026
-3.29997
-3.29958
-3.29912
-3.2986
-3.29804
-3.29747
-3.29689
-3.29635
-3.29585
-3.29542
-3.29508
-3.29485
-3.29473
-3.29473
-3.29485
-3.29508
-3.29542
-3.29585
-3.29635
-3.29689
-3.29747
-3.29804
-3.2986
-3.29912
-3.29958
-3.29997
-3.30026
-3.30045
-3.30054
-3.30116
-3.30105
-3.30083
-3.30047
-3.30001
-3.29945
-3.29882
-3.29814
-3.29743
-3.29674
-3.29607
-3.29546
-3.29494
-3.29452
-3.29423
-3.29408
-3.29408
-3.29423
-3.29452
-3.29494
-3.29546
-3.29607
-3.29674
-3.29743
-3.29814
-3.29882
-3.29945
-3.30001
-3.30047
-3.30083
-3.30105
-3.30116
-3.30192
-3.30179
-3.30151
-3.30108
-3.30052
-3.29985
-3.29908
-3.29826
-3.2974
-3.29655
-3.29573
-3.29499
-3.29435
-3.29384
-3.29348
-3.2933
-3.2933
-3.29348
-3.29384
-3.29435
-3.29499
-3.29573
-3.29655
-3.2974
-3.29826
-3.29908
-3.29985
-3.30052
-3.30108
-3.30151
-3.30179
-3.30192
-3.30284
-3.30268
-3.30235
-3.30183
-3.30115
-3.30033
-3.29941
-3.29841
-3.29737
-3.29633
-3.29533
-3.29442
-3.29363
-3.293
-3.29256
-3.29234
-3.29234
-3.29256
-3.293
-3.29363
-3.29442
-3.29533
-3.29633
-3.29737
-3.29841
-3.29941
-3.30033
-3.30115
-3.30183
-3.30235
-3.30268
-3.30284
-3.30395
-3.30376
-3.30336
-3.30274
-3.30192
-3.30093
-3.29981
-3.29859
-3.29733
-3.29607
-3.29485
-3.29373
-3.29276
-3.29198
-3.29144
-3.29116
-3.29116
-3.29144
-3.29198
-3.29276
-3.29373
-3.29485
-3.29607
-3.29733
-3.29859
-3.29981
-3.30093
-3.30192
-3.30274
-3.30336
-3.30376
-3.30395
-3.3053
-3.30508
-3.30459
-3.30384
-3.30285
-3.30166
-3.30031
-3.29884
-3.2973
-3.29576
-3.29427
-3.2929
-3.2917
-3.29074
-3.29007
-3.28972
-3.28972
-3.29007
-3.29074
-3.2917
-3.2929
-3.29427
-3.29576
-3.2973
-3.29884
-3.30031
-3.30166
-3.30285
-3.30384
-3.30459
-3.30508
-3.3053
-3.30694
-3.30667
-3.30608
-3.30518
-3.30399
-3.30256
-3.30092
-3.29915
-3.29729
-3.29541
-3.29359
-3.2919
-3.29042
-3.28922
-3.28838
-3.28794
-3.28794
-3.28838
-3.28922
-3.29042
-3.2919
-3.29359
-3.29541
-3.29729
-3.29915
-3.30092
-3.30256
-3.30399
-3.30518
-3.30608
-3.30667
-3.30694
-3.30892
-3.30859
-3.30789
-3.30681
-3.30538
-3.30366
-3.30169
-3.29955
-3.2973
-3.29501
-3.29278
-3.2907
-3.28886
-3.28737
-3.28631
-3.28576
-3.28576
-3.28631
-3.28737
-3.28886
-3.2907
-3.29278
-3.29501
-3.2973
-3.29955
-3.30169
-3.30366
-3.30538
-3.30681
-3.30789
-3.30859
-3.30892
-3.31132
-3.31092
-3.31008
-3.30878
-3.30707
-3.30501
-3.30265
-3.30007
-3.29735
-3.29457
-3.29184
-3.28928
-3.28699
-3.28511
-3.28377
-3.28306
-3.28306
-3.28377
-3.28511
-3.28699
-3.28928
-3.29184
-3.29457
-3.29735
-3.30007
-3.30265
-3.30501
-3.30707
-3.30878
-3.31008
-3.31092
-3.31132
-3.31422
-3.31374
-3.31273
-3.31118
-3.30914
-3.30667
-3.30385
-3.30075
-3.29747
-3.2941
-3.29077
-3.2876
-3.28474
-3.28236
-3.28063
-3.27972
-3.27972
-3.28063
-3.28236
-3.28474
-3.2876
-3.29077
-3.2941
-3.29747
-3.30075
-3.30385
-3.30667
-3.30914
-3.31118
-3.31273
-3.31374
-3.31422
-3.31772
-3.31715
-3.31594
-3.31408
-3.31165
-3.3087
-3.30534
-3.30164
-3.2977
-3.29363
-3.28956
-3.28563
-3.28204
-3.27902
-3.27676
-3.27555
-3.27555
-3.27676
-3.27902
-3.28204
-3.28563
-3.28956
-3.29363
-3.2977
-3.30164
-3.30534
-3.3087
-3.31165
-3.31408
-3.31594
-3.31715
-3.31772
-3.32195
-3.32126
-3.31981
-3.31759
-3.31469
-3.3112
-3.3072
-3.3028
-3.29809
-3.2932
-3.28823
-3.28338
-3.27886
-3.27497
-3.27197
-3.27033
-3.27033
-3.27197
-3.27497
-3.27886
-3.28338
-3.28823
-3.2932
-3.29809
-3.3028
-3.3072
-3.3112
-3.31469
-3.31759
-3.31981
-3.32126
-3.32195
-3.32707
-3.32623
-3.32448
-3.32183
-3.31838
-3.31424
-3.30952
-3.30432
-3.29872
-3.29288
-3.28685
-3.28087
-3.27512
-3.27009
-3.26598
-3.26365
-3.26365
-3.26598
-3.27009
-3.27512
-3.28087
-3.28685
-3.29288
-3.29872
-3.30432
-3.30952
-3.31424
-3.31838
-3.32183
-3.32448
-3.32623
-3.32707
-3.33327
-3.33224
-3.33011
-3.32692
-3.32282
-3.31794
-3.31238
-3.30629
-3.2997
-3.2928
-3.2855
-3.27817
-3.27077
-3.26427
-3.25849
-3.25512
-3.25512
-3.25849
-3.26427
-3.27077
-3.27817
-3.2855
-3.2928
-3.2997
-3.30629
-3.31238
-3.31794
-3.32282
-3.32692
-3.33011
-3.33224
-3.33327
-3.3408
-3.3395
-3.33686
-3.33302
-3.32815
-3.32242
-3.31589
-3.30884
-3.3011
-3.29312
-3.28433
-3.27546
-3.26593
-3.25779
-3.24983
-3.24493
-3.24493
-3.24983
-3.25779
-3.26593
-3.27546
-3.28433
-3.29312
-3.3011
-3.30884
-3.31589
-3.32242
-3.32815
-3.33302
-3.33686
-3.3395
-3.3408
-3.35001
-3.34833
-3.34496
-3.34029
-3.33447
-3.32778
-3.3201
-3.31207
-3.30296
-3.29411
-3.28361
-3.27329
-3.26132
-3.25292
-3.24022
-3.23218
-3.23218
-3.24022
-3.25291
-3.26132
-3.27329
-3.28361
-3.29411
-3.30296
-3.31207
-3.3201
-3.32778
-3.33447
-3.34029
-3.34496
-3.34833
-3.35001
-3.36139
-3.35913
-3.35464
-3.34888
-3.34186
-3.3341
-3.32499
-3.31611
-3.30515
-3.29648
-3.28359
-3.27417
-3.25513
-3.25626
-3.49333
-3.56084
-3.56084
-3.49333
-3.25626
-3.25513
-3.27416
-3.28359
-3.29647
-3.30515
-3.31611
-3.32499
-3.3341
-3.34186
-3.34888
-3.35464
-3.35913
-3.36139
-3.37565
-3.37249
-3.36599
-3.35882
-3.35039
-3.34165
-3.33029
-3.32234
-3.30779
-3.3075
-3.34606
-3.34527
-3.45993
-3.43969
-3.79961
-3.80623
-3.80623
-3.79961
-3.43969
-3.45992
-3.34527
-3.34606
-3.3075
-3.30779
-3.32234
-3.33029
-3.34165
-3.35039
-3.35882
-3.36599
-3.37248
-3.37565
-3.39385
-3.38922
-3.37835
-3.36969
-3.35978
-3.35269
-3.33873
-3.33513
-3.35826
-3.34032
-3.519
-3.56805
-3.62996
-3.66332
-3.69071
-3.70239
-3.70239
-3.69071
-3.66332
-3.62996
-3.56805
-3.519
-3.34032
-3.35826
-3.33513
-3.33873
-3.35269
-3.35978
-3.36969
-3.37835
-3.38922
-3.39385
-3.41676
-3.41167
-3.38935
-3.38218
-3.36546
-3.37031
-3.2701
-3.2905
-3.35166
-3.40117
-3.45873
-3.5062
-3.55147
-3.58426
-3.60809
-3.62018
-3.62018
-3.60808
-3.58426
-3.55147
-3.5062
-3.45873
-3.40117
-3.35166
-3.2905
-3.2701
-3.37031
-3.36546
-3.38218
-3.38935
-3.41167
-3.41676
-3.44446
-3.44979
-3.12547
-3.11804
-3.08454
-3.15924
-3.20152
-3.2539
-3.31358
-3.3641
-3.41272
-3.45571
-3.49293
-3.52145
-3.54107
-3.55106
-3.55106
-3.54107
-3.52145
-3.49293
-3.45571
-3.41272
-3.3641
-3.31358
-3.2539
-3.20152
-3.15924
-3.08454
-3.11803
-3.12547
-3.44979
-3.44446
-3.17941
-3.18815
-2.97386
-2.99468
-3.06361
-3.12141
-3.1825
-3.23656
-3.2876
-3.33358
-3.37565
-3.41271
-3.44403
-3.4683
-3.48491
-3.49333
-3.49333
-3.48491
-3.4683
-3.44403
-3.41271
-3.37565
-3.33358
-3.2876
-3.23656
-3.1825
-3.12141
-3.06361
-2.99468
-2.97386
-3.18814
-3.17941
-2.8848
-2.91229
-2.9717
-3.02087
-3.07421
-3.12524
-3.17602
-3.22333
-3.26761
-3.30802
-3.34448
-3.37638
-3.40308
-3.42376
-3.43787
-3.44502
-3.44502
-3.43787
-3.42376
-3.40308
-3.37638
-3.34448
-3.30802
-3.26761
-3.22333
-3.17602
-3.12524
-3.07421
-3.02086
-2.97168
-2.91229
-2.8848
-2.95138
-2.96985
-3.00624
-3.04565
-3.08843
-3.13119
-3.17362
-3.21409
-3.25216
-3.28712
-3.31857
-3.34598
-3.3688
-3.38645
-3.39848
-3.40456
-3.40456
-3.39848
-3.38645
-3.3688
-3.34598
-3.31857
-3.28712
-3.25216
-3.2141
-3.17362
-3.13119
-3.08843
-3.04565
-3.00624
-2.96985
-2.95138
-3.00086
-3.01411
-3.03925
-3.06964
-3.10351
-3.13857
-3.17379
-3.20795
-3.24034
-3.27027
-3.29723
-3.3207
-3.34019
-3.35525
-3.36551
-3.37069
-3.37069
-3.36551
-3.35525
-3.34019
-3.3207
-3.29723
-3.27027
-3.24034
-3.20795
-3.17379
-3.13857
-3.10351
-3.06964
-3.03925
-3.01411
-3.00086
-3.04033
-3.04988
-3.06789
-3.09119
-3.11794
-3.14641
-3.17546
-3.20403
-3.23137
-3.25679
-3.27975
-3.29976
-3.31638
-3.32921
-3.33794
-3.34235
-3.34235
-3.33794
-3.32921
-3.31638
-3.29976
-3.27975
-3.25679
-3.23137
-3.20403
-3.17546
-3.14641
-3.11794
-3.09119
-3.06789
-3.04988
-3.04033
-3.07156
-3.0786
-3.09191
-3.10988
-3.13104
-3.15408
-3.17793
-3.20168
-3.2246
-3.24606
-3.26551
-3.28249
-3.2966
-3.3075
-3.31492
-3.31867
-3.31867
-3.31492
-3.3075
-3.2966
-3.28249
-3.26551
-3.24606
-3.2246
-3.20168
-3.17793
-3.15408
-3.13104
-3.10988
-3.09191
-3.0786
-3.07156
-3.09637
-3.10168
-3.11179
-3.12578
-3.14259
-3.1612
-3.18073
-3.20039
-3.21951
-3.23752
-3.25391
-3.26827
-3.28021
-3.28944
-3.29573
-3.29891
-3.29891
-3.29573
-3.28944
-3.28021
-3.26827
-3.25391
-3.23752
-3.21951
-3.20039
-3.18073
-3.1612
-3.14259
-3.12578
-3.11179
-3.10168
-3.09637
-3.11625
-3.12032
-3.12814
-3.13914
-3.15255
-3.1676
-3.18357
-3.19979
-3.21568
-3.23074
-3.24449
-3.25657
-3.26665
-3.27444
-3.27975
-3.28244
-3.28244
-3.27975
-3.27444
-3.26665
-3.25657
-3.24449
-3.23074
-3.21569
-3.19979
-3.18357
-3.1676
-3.15255
-3.13914
-3.12814
-3.12032
-3.11625
-3.13226
-3.13543
-3.14157
-3.15028
-3.16103
-3.17321
-3.18626
-3.19962
-3.2128
-3.22533
-3.23684
-3.24697
-3.25544
-3.262
-3.26647
-3.26874
-3.26874
-3.26647
-3.262
-3.25544
-3.24697
-3.23684
-3.22533
-3.2128
-3.19962
-3.18626
-3.17321
-3.16103
-3.15028
-3.14157
-3.13543
-3.13226
-3.14521
-3.14771
-3.15257
-3.15953
-3.16817
-3.17806
-3.18872
-3.19971
-3.21061
-3.22103
-3.23062
-3.23909
-3.24619
-3.25169
-3.25545
-3.25736
-3.25736
-3.25545
-3.25169
-3.24619
-3.2391
-3.23062
-3.22103
-3.21061
-3.19971
-3.18872
-3.17806
-3.16817
-3.15953
-3.15257
-3.14771
-3.14521
-3.15572
-3.15771
-3.16159
-3.16718
-3.17416
-3.18219
-3.19091
-3.19994
-3.20894
-3.21758
-3.22556
-3.23263
-3.23856
-3.24317
-3.24632
-3.24791
-3.24791
-3.24632
-3.24317
-3.23856
-3.23263
-3.22556
-3.21758
-3.20894
-3.19994
-3.19091
-3.18219
-3.17416
-3.16718
-3.16159
-3.15771
-3.15572
-3.16427
-3.16587
-3.16899
-3.17349
-3.17915
-3.18569
-3.19282
-3.20024
-3.20767
-3.21482
-3.22145
-3.22733
-3.23227
-3.23612
-3.23875
-3.24009
-3.24009
-3.23875
-3.23612
-3.23227
-3.22733
-3.22145
-3.21482
-3.20767
-3.20024
-3.19282
-3.18569
-3.17915
-3.17349
-3.16899
-3.16587
-3.16428
-3.17125
-3.17254
-3.17506
-3.1787
-3.1833
-3.18863
-3.19447
-3.20057
-3.20669
-3.2126
-3.21809
-3.22298
-3.22709
-3.23029
-3.23249
-3.2336
-3.2336
-3.23249
-3.23029
-3.22709
-3.22298
-3.21809
-3.2126
-3.20669
-3.20057
-3.19447
-3.18863
-3.1833
-3.1787
-3.17506
-3.17254
-3.17125
-3.17696
-3.178
-3.18004
-3.183
-3.18674
-3.19109
-3.19587
-3.20088
-3.20592
-3.21081
-3.21536
-3.21941
-3.22282
-3.22549
-3.22731
-3.22824
-3.22824
-3.22731
-3.22549
-3.22282
-3.21941
-3.21536
-3.21081
-3.20592
-3.20088
-3.19587
-3.19109
-3.18674
-3.183
-3.18004
-3.178
-3.17696
-3.18162
-3.18247
-3.18412
-3.18653
-3.18958
-3.19314
-3.19706
-3.20118
-3.20533
-3.20936
-3.21312
-3.21648
-3.21931
-3.22152
-3.22304
-3.22381
-3.22381
-3.22304
-3.22152
-3.21931
-3.21648
-3.21312
-3.20936
-3.20533
-3.20118
-3.19706
-3.19314
-3.18958
-3.18653
-3.18412
-3.18247
-3.18162
-3.18544
-3.18613
-3.18748
-3.18944
-3.19194
-3.19485
-3.19806
-3.20144
-3.20486
-3.20819
-3.21129
-3.21407
-3.21642
-3.21825
-3.21951
-3.22015
-3.22015
-3.21951
-3.21825
-3.21642
-3.21407
-3.21129
-3.20819
-3.20486
-3.20144
-3.19806
-3.19485
-3.19194
-3.18944
-3.18748
-3.18613
-3.18544
-3.18857
-3.18913
-3.19023
-3.19184
-3.19388
-3.19626
-3.1989
-3.20168
-3.20449
-3.20723
-3.2098
-3.21209
-3.21403
-3.21555
-3.2166
-3.21713
-3.21713
-3.2166
-3.21555
-3.21404
-3.21209
-3.2098
-3.20723
-3.20449
-3.20168
-3.1989
-3.19626
-3.19388
-3.19184
-3.19023
-3.18913
-3.18857
-3.19114
-3.1916
-3.1925
-3.19381
-3.19548
-3.19744
-3.1996
-3.20188
-3.2042
-3.20646
-3.20858
-3.21047
-3.21208
-3.21333
-3.21419
-3.21463
-3.21463
-3.21419
-3.21333
-3.21208
-3.21047
-3.20858
-3.20646
-3.2042
-3.20188
-3.1996
-3.19744
-3.19548
-3.19381
-3.1925
-3.1916
-3.19114
-3.19325
-3.19362
-3.19436
-3.19543
-3.1968
-3.19841
-3.20018
-3.20206
-3.20397
-3.20583
-3.20757
-3.20914
-3.21046
-3.2115
-3.21221
-3.21258
-3.21258
-3.21221
-3.2115
-3.21046
-3.20914
-3.20757
-3.20583
-3.20397
-3.20206
-3.20018
-3.19841
-3.1968
-3.19543
-3.19436
-3.19362
-3.19325
-3.19498
-3.19528
-3.19589
-3.19677
-3.19789
-3.19921
-3.20067
-3.20221
-3.20378
-3.20531
-3.20675
-3.20804
-3.20913
-3.20999
-3.21058
-3.21088
-3.21088
-3.21058
-3.20999
-3.20914
-3.20804
-3.20675
-3.20531
-3.20378
-3.20221
-3.20067
-3.19921
-3.19789
-3.19677
-3.19589
-3.19528
-3.19498
-3.1964
-3.19665
-3.19715
-3.19787
-3.19879
-3.19987
-3.20107
-3.20234
-3.20363
-3.20489
-3.20608
-3.20714
-3.20804
-3.20875
-3.20924
-3.20948
-3.20948
-3.20924
-3.20875
-3.20804
-3.20714
-3.20608
-3.20489
-3.20363
-3.20234
-3.20107
-3.19987
-3.19879
-3.19787
-3.19715
-3.19665
-3.1964
-3.19757
-3.19777
-3.19818
-3.19877
-3.19953
-3.20041
-3.2014
-3.20244
-3.20351
-3.20455
-3.20552
-3.2064
-3.20714
-3.20773
-3.20813
-3.20833
-3.20833
-3.20813
-3.20773
-3.20714
-3.2064
-3.20552
-3.20455
-3.20351
-3.20244
-3.2014
-3.20042
-3.19953
-3.19877
-3.19818
-3.19777
-3.19757
-3.19853
-3.1987
-3.19903
-3.19951
-3.20014
-3.20086
-3.20167
-3.20253
-3.20341
-3.20426
-3.20507
-3.20579
-3.2064
-3.20689
-3.20722
-3.20739
-3.20739
-3.20722
-3.20689
-3.2064
-3.20579
-3.20507
-3.20426
-3.20341
-3.20253
-3.20168
-3.20087
-3.20014
-3.19952
-3.19903
-3.1987
-3.19853
-3.19931
-3.19945
-3.19973
-3.20013
-3.20064
-3.20124
-3.2019
-3.20261
-3.20333
-3.20403
-3.20469
-3.20529
-3.20579
-3.20619
-3.20646
-3.2066
-3.2066
-3.20646
-3.20619
-3.2058
-3.20529
-3.20469
-3.20403
-3.20333
-3.20261
-3.2019
-3.20124
-3.20064
-3.20013
-3.19973
-3.19945
-3.19932
-3.19996
-3.20008
-3.2003
-3.20063
-3.20105
-3.20154
-3.20209
-3.20267
-3.20326
-3.20384
-3.20439
-3.20488
-3.20529
-3.20562
-3.20585
-3.20596
-3.20596
-3.20585
-3.20562
-3.20529
-3.20488
-3.20439
-3.20384
-3.20326
-3.20267
-3.20209
-3.20154
-3.20105
-3.20063
-3.2003
-3.20008
-3.19996
-3.2005
-3.20059
-3.20077
-3.20104
-3.20139
-3.20179
-3.20224
-3.20272
-3.20321
-3.20369
-3.20413
-3.20454
-3.20488
-3.20515
-3.20534
-3.20543
-3.20543
-3.20534
-3.20515
-3.20488
-3.20454
-3.20413
-3.20369
-3.20321
-3.20272
-3.20224
-3.20179
-3.20139
-3.20104
-3.20077
-3.20059
-3.2005
-3.20093
-3.20101
-3.20116
-3.20138
-3.20167
-3.202
-3.20237
-3.20276
-3.20316
-3.20356
-3.20393
-3.20426
-3.20454
-3.20476
-3.20492
-3.20499
-3.20499
-3.20492
-3.20476
-3.20454
-3.20426
-3.20393
-3.20356
-3.20317
-3.20276
-3.20237
-3.202
-3.20167
-3.20139
-3.20116
-3.20101
-3.20093
-3.20129
-3.20136
-3.20148
-3.20167
-3.2019
-3.20217
-3.20248
-3.2028
-3.20313
-3.20345
-3.20376
-3.20403
-3.20426
-3.20445
-3.20457
-3.20464
-3.20464
-3.20457
-3.20445
-3.20426
-3.20403
-3.20376
-3.20345
-3.20313
-3.2028
-3.20248
-3.20217
-3.2019
-3.20167
-3.20148
-3.20136
-3.2013
-3.20159
-3.20164
-3.20175
-3.2019
-3.20209
-3.20231
-3.20256
-3.20283
-3.2031
-3.20337
-3.20362
-3.20384
-3.20403
-3.20418
-3.20429
-3.20434
-3.20434
-3.20429
-3.20418
-3.20403
-3.20384
-3.20362
-3.20337
-3.2031
-3.20283
-3.20256
-3.20231
-3.20209
-3.2019
-3.20175
-3.20164
-3.20159
-3.20184
-3.20188
-3.20196
-3.20209
-3.20224
-3.20243
-3.20263
-3.20285
-3.20308
-3.20329
-3.2035
-3.20369
-3.20384
-3.20397
-3.20405
-3.2041
-3.2041
-3.20405
-3.20397
-3.20384
-3.20369
-3.2035
-3.2033
-3.20308
-3.20285
-3.20263
-3.20243
-3.20224
-3.20209
-3.20196
-3.20188
-3.20184
-3.20204
-3.20207
-3.20214
-3.20224
-3.20237
-3.20252
-3.20269
-3.20287
-3.20306
-3.20324
-3.20341
-3.20356
-3.20369
-3.20379
-3.20386
-3.2039
-3.2039
-3.20386
-3.20379
-3.20369
-3.20356
-3.20341
-3.20324
-3.20306
-3.20287
-3.20269
-3.20252
-3.20237
-3.20224
-3.20214
-3.20207
-3.20204
-3.2022
-3.20223
-3.20229
-3.20237
-3.20248
-3.2026
-3.20274
-3.20289
-3.20304
-3.20319
-3.20333
-3.20345
-3.20356
-3.20364
-3.2037
-3.20373
-3.20373
-3.2037
-3.20364
-3.20356
-3.20345
-3.20333
-3.20319
-3.20304
-3.20289
-3.20274
-3.2026
-3.20248
-3.20237
-3.20229
-3.20223
-3.2022
-3.20234
-3.20236
-3.20241
-3.20248
-3.20256
-3.20267
-3.20278
-3.2029
-3.20303
-3.20315
-3.20326
-3.20337
-3.20345
-3.20352
-3.20357
-3.2036
-3.2036
-3.20357
-3.20352
-3.20345
-3.20337
-3.20326
-3.20315
-3.20303
-3.2029
-3.20278
-3.20267
-3.20256
-3.20248
-3.20241
-3.20236
-3.20234
-3.20245
-3.20247
-3.20251
-3.20256
-3.20263
-3.20272
-3.20281
-3.20291
-3.20302
-3.20312
-3.20321
-3.2033
-3.20337
-3.20342
-3.20346
-3.20348
-3.20348
-3.20346
-3.20342
-3.20337
-3.2033
-3.20321
-3.20312
-3.20302
-3.20291
-3.20281
-3.20272
-3.20263
-3.20256
-3.20251
-3.20247
-3.20245
-3.20254
-3.20256
-3.20259
-3.20263
-3.20269
-3.20276
-3.20284
-3.20292
-3.20301
-3.20309
-3.20317
-3.20324
-3.2033
-3.20334
-3.20338
-3.20339
-3.20339
-3.20338
-3.20334
-3.2033
-3.20324
-3.20317
-3.20309
-3.20301
-3.20292
-3.20284
-3.20276
-3.20269
-3.20263
-3.20259
-3.20256
-3.20254
-3.20261
-3.20263
-3.20265
-3.20269
-3.20274
-3.2028
-3.20286
-3.20293
-3.203
-3.20307
-3.20313
-3.20319
-3.20324
-3.20328
-3.2033
-3.20332
-3.20332
-3.2033
-3.20328
-3.20324
-3.20319
-3.20313
-3.20307
-3.203
-3.20293
-3.20286
-3.2028
-3.20274
-3.20269
-3.20265
-3.20263
-3.20261
-3.20268
-3.20269
-3.20271
-3.20274
-3.20278
-3.20283
-3.20288
-3.20294
-3.20299
-3.20305
-3.2031
-3.20315
-3.20319
-3.20322
-3.20324
-3.20325
-3.20325
-3.20324
-3.20322
-3.20319
-3.20315
-3.2031
-3.20305
-3.20299
-3.20294
-3.20288