/*--------------------------------*- C++ -*----------------------------------*\
  =========                 |
  \\      /  F ield         | OpenFOAM: The Open Source CFD Toolbox
   \\    /   O peration     | Website:  https://openfoam.org
    \\  /    A nd           | Version:  9
     \\/     M anipulation  |
\*---------------------------------------------------------------------------*/
FoamFile
{
    format      ascii;
    class       volVectorField;
    location    "0.1";
    object      U;
}
// * * * * * * * * * * * * * * * * * * * * * * * * * * * * * * * * * * * * * //

dimensions      [0 1 -1 0 0 0 0];

internalField   nonuniform List<vector> 
4096
(
(-3.44657e-07 1.41744e-07 0)
(-3.96822e-07 2.64504e-07 0)
(-4.80179e-07 3.70906e-08 0)
(-8.96581e-07 1.27373e-07 0)
(-1.11222e-06 1.41087e-07 0)
(-1.45859e-06 1.14386e-07 0)
(-1.72562e-06 8.08289e-08 0)
(-1.88014e-06 3.93679e-08 0)
(-1.93485e-06 -3.66041e-09 0)
(-1.89336e-06 -4.62299e-08 0)
(-1.76251e-06 -8.57108e-08 0)
(-1.55092e-06 -1.21138e-07 0)
(-1.26957e-06 -1.51e-07 0)
(-9.31264e-07 -1.74593e-07 0)
(-5.50567e-07 -1.90849e-07 0)
(-1.43347e-07 -1.99446e-07 0)
(2.73658e-07 -1.99915e-07 0)
(6.83483e-07 -1.92443e-07 0)
(1.06949e-06 -1.77212e-07 0)
(1.41612e-06 -1.54986e-07 0)
(1.70936e-06 -1.26539e-07 0)
(1.9374e-06 -9.3111e-08 0)
(2.09097e-06 -5.59374e-08 0)
(2.16383e-06 -1.65686e-08 0)
(2.15286e-06 2.34861e-08 0)
(2.05834e-06 6.26077e-08 0)
(1.88391e-06 9.92486e-08 0)
(1.63637e-06 1.31817e-07 0)
(1.32552e-06 1.58808e-07 0)
(9.65627e-07 1.7845e-07 0)
(5.76617e-07 1.86635e-07 0)
(1.81587e-07 1.77917e-07 0)
(-1.44047e-07 5.42309e-07 0)
(-6.15657e-07 4.44484e-07 0)
(-1.15159e-06 1.86393e-07 0)
(-1.40805e-06 4.01103e-07 0)
(-1.6415e-06 4.14026e-07 0)
(-1.94889e-06 3.40154e-07 0)
(-2.17054e-06 2.35469e-07 0)
(-2.29311e-06 1.09287e-07 0)
(-2.3169e-06 -2.40894e-08 0)
(-2.2428e-06 -1.56304e-07 0)
(-2.07496e-06 -2.80839e-07 0)
(-1.82143e-06 -3.92835e-07 0)
(-1.49291e-06 -4.88051e-07 0)
(-1.10292e-06 -5.63026e-07 0)
(-6.67125e-07 -6.14966e-07 0)
(-2.03006e-07 -6.42018e-07 0)
(2.71015e-07 -6.4324e-07 0)
(7.3606e-07 -6.18649e-07 0)
(1.17365e-06 -5.69297e-07 0)
(1.56641e-06 -4.97203e-07 0)
(1.89877e-06 -4.05236e-07 0)
(2.15752e-06 -2.97067e-07 0)
(2.33236e-06 -1.76967e-07 0)
(2.41631e-06 -4.97018e-08 0)
(2.406e-06 7.96931e-08 0)
(2.30177e-06 2.06086e-07 0)
(2.10771e-06 3.24398e-07 0)
(1.8315e-06 4.2963e-07 0)
(1.48435e-06 5.16677e-07 0)
(1.08136e-06 5.79493e-07 0)
(6.46898e-07 6.07852e-07 0)
(2.04673e-07 5.77592e-07 0)
(-1.74227e-07 1.27998e-06 0)
(-7.4496e-07 8.62297e-07 0)
(-1.3341e-06 7.71851e-07 0)
(-1.70508e-06 8.23421e-07 0)
(-2.03443e-06 7.1369e-07 0)
(-2.32587e-06 5.55424e-07 0)
(-2.53637e-06 3.62717e-07 0)
(-2.64804e-06 1.47043e-07 0)
(-2.65597e-06 -7.88787e-08 0)
(-2.55962e-06 -3.03135e-07 0)
(-2.36294e-06 -5.16022e-07 0)
(-2.0738e-06 -7.08376e-07 0)
(-1.70363e-06 -8.72553e-07 0)
(-1.26686e-06 -1.00185e-06 0)
(-7.80601e-07 -1.09133e-06 0)
(-2.63879e-07 -1.13736e-06 0)
(2.63118e-07 -1.13829e-06 0)
(7.7974e-07 -1.09404e-06 0)
(1.26562e-06 -1.00646e-06 0)
(1.70175e-06 -8.78981e-07 0)
(2.07097e-06 -7.16705e-07 0)
(2.35879e-06 -5.25991e-07 0)
(2.55389e-06 -3.14416e-07 0)
(2.64863e-06 -9.02866e-08 0)
(2.63929e-06 1.37519e-07 0)
(2.52631e-06 3.59994e-07 0)
(2.31424e-06 5.6819e-07 0)
(2.01153e-06 7.53351e-07 0)
(1.63019e-06 9.06466e-07 0)
(1.18875e-06 1.01746e-06 0)
(7.10942e-07 1.06696e-06 0)
(2.241e-07 1.01566e-06 0)
(-2.04094e-07 1.85728e-06 0)
(-7.94597e-07 1.55972e-06 0)
(-1.42193e-06 1.38782e-06 0)
(-1.90879e-06 1.25043e-06 0)
(-2.29965e-06 1.05222e-06 0)
(-2.62219e-06 7.99678e-07 0)
(-2.85305e-06 5.07678e-07 0)
(-2.97582e-06 1.89034e-07 0)
(-2.98317e-06 -1.41531e-07 0)
(-2.87431e-06 -4.69505e-07 0)
(-2.65357e-06 -7.80802e-07 0)
(-2.32978e-06 -1.06251e-06 0)
(-1.91567e-06 -1.30294e-06 0)
(-1.42743e-06 -1.49241e-06 0)
(-8.84097e-07 -1.62321e-06 0)
(-3.06927e-07 -1.69015e-06 0)
(2.81587e-07 -1.69048e-06 0)
(8.58411e-07 -1.62424e-06 0)
(1.40092e-06 -1.49398e-06 0)
(1.88787e-06 -1.30487e-06 0)
(2.3002e-06 -1.06431e-06 0)
(2.62173e-06 -7.81814e-07 0)
(2.8399e-06 -4.68484e-07 0)
(2.94615e-06 -1.36679e-07 0)
(2.93638e-06 2.00535e-07 0)
(2.81106e-06 5.29792e-07 0)
(2.57525e-06 8.3789e-07 0)
(2.23841e-06 1.11186e-06 0)
(1.81454e-06 1.33843e-06 0)
(1.32178e-06 1.50221e-06 0)
(7.9108e-07 1.57627e-06 0)
(2.50647e-07 1.50057e-06 0)
(-2.35955e-07 2.35943e-06 0)
(-8.73132e-07 2.1716e-06 0)
(-1.54689e-06 1.94056e-06 0)
(-2.11427e-06 1.72679e-06 0)
(-2.58522e-06 1.44204e-06 0)
(-2.96177e-06 1.08812e-06 0)
(-3.22862e-06 6.83215e-07 0)
(-3.37131e-06 2.45715e-07 0)
(-3.38232e-06 -2.05829e-07 0)
(-3.26081e-06 -6.52565e-07 0)
(-3.01174e-06 -1.07613e-06 0)
(-2.64514e-06 -1.45911e-06 0)
(-2.17558e-06 -1.78592e-06 0)
(-1.62155e-06 -2.04327e-06 0)
(-1.00478e-06 -2.2208e-06 0)
(-3.49433e-07 -2.31129e-06 0)
(3.18856e-07 -2.3111e-06 0)
(9.73909e-07 -2.22015e-06 0)
(1.59001e-06 -2.04198e-06 0)
(2.14304e-06 -1.78355e-06 0)
(2.61132e-06 -1.45504e-06 0)
(2.9765e-06 -1.06935e-06 0)
(3.22427e-06 -6.41655e-07 0)
(3.34494e-06 -1.88786e-07 0)
(3.33384e-06 2.71404e-07 0)
(3.1915e-06 7.20719e-07 0)
(2.92371e-06 1.14112e-06 0)
(2.54119e-06 1.51491e-06 0)
(2.05906e-06 1.82395e-06 0)
(1.5012e-06 2.04756e-06 0)
(8.97497e-07 2.14757e-06 0)
(2.82912e-07 2.04574e-06 0)
(-2.91754e-07 2.94868e-06 0)
(-1.00335e-06 2.84259e-06 0)
(-1.7396e-06 2.59049e-06 0)
(-2.4011e-06 2.29182e-06 0)
(-2.96018e-06 1.90405e-06 0)
(-3.40384e-06 1.4312e-06 0)
(-3.71647e-06 8.95181e-07 0)
(-3.88428e-06 3.19202e-07 0)
(-3.89951e-06 -2.7307e-07 0)
(-3.76128e-06 -8.57742e-07 0)
(-3.47523e-06 -1.41124e-06 0)
(-3.05291e-06 -1.91128e-06 0)
(-2.51116e-06 -2.33769e-06 0)
(-1.87143e-06 -2.67333e-06 0)
(-1.15889e-06 -2.90467e-06 0)
(-4.01582e-07 -3.02241e-06 0)
(3.70817e-07 -3.02174e-06 0)
(1.12799e-06 -2.9026e-06 0)
(1.84018e-06 -2.66958e-06 0)
(2.47947e-06 -2.33182e-06 0)
(3.02077e-06 -1.90254e-06 0)
(3.44286e-06 -1.39864e-06 0)
(3.72919e-06 -8.39911e-07 0)
(3.86854e-06 -2.48341e-07 0)
(3.85552e-06 3.52771e-07 0)
(3.69073e-06 9.39647e-07 0)
(3.3808e-06 1.48874e-06 0)
(2.93816e-06 1.97693e-06 0)
(2.38134e-06 2.38051e-06 0)
(1.73395e-06 2.67182e-06 0)
(1.03732e-06 2.80268e-06 0)
(3.28912e-07 2.66985e-06 0)
(-3.5288e-07 3.64694e-06 0)
(-1.17659e-06 3.62281e-06 0)
(-2.02019e-06 3.3439e-06 0)
(-2.79301e-06 2.95588e-06 0)
(-3.45367e-06 2.44992e-06 0)
(-3.97777e-06 1.83883e-06 0)
(-4.34647e-06 1.14968e-06 0)
(-4.54471e-06 4.11509e-07 0)
(-4.56401e-06 -3.45905e-07 0)
(-4.40336e-06 -1.0924e-06 0)
(-4.06926e-06 -1.79833e-06 0)
(-3.5751e-06 -2.43555e-06 0)
(-2.9406e-06 -2.97867e-06 0)
(-2.19089e-06 -3.40597e-06 0)
(-1.35556e-06 -3.70039e-06 0)
(-4.67526e-07 -3.85011e-06 0)
(4.38331e-07 -3.84908e-06 0)
(1.32641e-06 -3.69721e-06 0)
(2.16176e-06 -3.40039e-06 0)
(2.91161e-06 -2.97022e-06 0)
(3.54651e-06 -2.42358e-06 0)
(4.04153e-06 -1.78194e-06 0)
(4.37725e-06 -1.07054e-06 0)
(4.54051e-06 -3.17338e-07 0)
(4.52496e-06 4.4799e-07 0)
(4.3313e-06 1.19518e-06 0)
(3.96737e-06 1.89424e-06 0)
(3.44776e-06 2.51574e-06 0)
(2.79301e-06 3.02935e-06 0)
(2.03557e-06 3.40003e-06 0)
(1.21655e-06 3.56503e-06 0)
(3.83738e-07 3.39766e-06 0)
(-4.32313e-07 4.47828e-06 0)
(-1.40665e-06 4.52943e-06 0)
(-2.39019e-06 4.22211e-06 0)
(-3.30208e-06 3.73697e-06 0)
(-4.0859e-06 3.09577e-06 0)
(-4.70844e-06 2.32333e-06 0)
(-5.14606e-06 1.45423e-06 0)
(-5.38136e-06 5.24738e-07 0)
(-5.40464e-06 -4.27869e-07 0)
(-5.21479e-06 -1.36589e-06 0)
(-4.81936e-06 -2.25228e-06 0)
(-4.23412e-06 -3.05198e-06 0)
(-3.48231e-06 -3.7333e-06 0)
(-2.59372e-06 -4.2692e-06 0)
(-1.60343e-06 -4.63837e-06 0)
(-5.50494e-07 -4.82608e-06 0)
(5.23676e-07 -4.82479e-06 0)
(1.57682e-06 -4.63442e-06 0)
(2.56748e-06 -4.26238e-06 0)
(3.45673e-06 -3.72321e-06 0)
(4.20962e-06 -3.03808e-06 0)
(4.79659e-06 -2.23391e-06 0)
(5.19457e-06 -1.3423e-06 0)
(5.38795e-06 -3.98321e-07 0)
(5.36919e-06 5.60844e-07 0)
(5.13913e-06 1.49726e-06 0)
(4.70699e-06 2.37336e-06 0)
(4.09008e-06 3.1522e-06 0)
(3.31429e-06 3.79574e-06 0)
(2.41259e-06 4.25919e-06 0)
(1.44276e-06 4.46556e-06 0)
(4.57669e-07 4.2564e-06 0)
(-5.23818e-07 5.47594e-06 0)
(-1.68898e-06 5.60266e-06 0)
(-2.85943e-06 5.25946e-06 0)
(-3.94517e-06 4.66301e-06 0)
(-4.88071e-06 3.86395e-06 0)
(-5.62429e-06 2.90122e-06 0)
(-6.1468e-06 1.81886e-06 0)
(-6.42749e-06 6.62041e-07 0)
(-6.455e-06 -5.22911e-07 0)
(-6.22804e-06 -1.68917e-06 0)
(-5.75558e-06 -2.7908e-06 0)
(-5.05633e-06 -3.78437e-06 0)
(-4.15799e-06 -4.63066e-06 0)
(-3.09608e-06 -5.29622e-06 0)
(-1.91252e-06 -5.75468e-06 0)
(-6.53993e-07 -5.98784e-06 0)
(6.29982e-07 -5.9864e-06 0)
(1.88886e-06 -5.7503e-06 0)
(3.07306e-06 -5.28872e-06 0)
(4.13603e-06 -4.61975e-06 0)
(5.03597e-06 -3.76967e-06 0)
(5.7375e-06 -2.77186e-06 0)
(6.21306e-06 -1.66557e-06 0)
(6.44397e-06 -4.94303e-07 0)
(6.4212e-06 6.95805e-07 0)
(6.14576e-06 1.85769e-06 0)
(5.62873e-06 2.94471e-06 0)
(4.89086e-06 3.911e-06 0)
(3.96144e-06 4.70919e-06 0)
(2.88615e-06 5.28361e-06 0)
(1.72453e-06 5.53739e-06 0)
(5.44445e-07 5.28011e-06 0)
(-6.3962e-07 6.68188e-06 0)
(-2.04325e-06 6.88668e-06 0)
(-3.44276e-06 6.49727e-06 0)
(-4.74444e-06 5.76927e-06 0)
(-5.86724e-06 4.78305e-06 0)
(-6.76011e-06 3.59359e-06 0)
(-7.38724e-06 2.25654e-06 0)
(-7.72372e-06 8.27792e-07 0)
(-7.75604e-06 -6.35395e-07 0)
(-7.48277e-06 -2.07521e-06 0)
(-6.91461e-06 -3.43498e-06 0)
(-6.07402e-06 -4.66117e-06 0)
(-4.9942e-06 -5.70547e-06 0)
(-3.71776e-06 -6.5267e-06 0)
(-2.29507e-06 -7.09242e-06 0)
(-7.82231e-07 -7.38025e-06 0)
(7.61223e-07 -7.37875e-06 0)
(2.27452e-06 -7.08788e-06 0)
(3.69804e-06 -6.51899e-06 0)
(4.9758e-06 -5.69441e-06 0)
(6.05755e-06 -4.64652e-06 0)
(6.90073e-06 -3.41651e-06 0)
(7.4722e-06 -2.05275e-06 0)
(7.7495e-06 -6.08891e-07 0)
(7.72179e-06 8.58202e-07 0)
(7.39027e-06 2.2905e-06 0)
(6.76818e-06 3.63049e-06 0)
(5.88043e-06 4.82161e-06 0)
(4.76423e-06 5.80531e-06 0)
(3.46748e-06 6.51187e-06 0)
(2.07297e-06 6.8236e-06 0)
(6.57652e-07 6.50758e-06 0)
(-7.76482e-07 8.14197e-06 0)
(-2.4732e-06 8.43283e-06 0)
(-4.16152e-06 7.98441e-06 0)
(-5.72988e-06 7.09859e-06 0)
(-7.08317e-06 5.8881e-06 0)
(-8.15943e-06 4.42656e-06 0)
(-8.91513e-06 2.78346e-06 0)
(-9.32011e-06 1.02774e-06 0)
(-9.35818e-06 -7.70215e-07 0)
(-9.02767e-06 -2.53935e-06 0)
(-8.34155e-06 -4.21e-06 0)
(-7.32683e-06 -5.71645e-06 0)
(-6.02353e-06 -6.99938e-06 0)
(-4.48304e-06 -8.00826e-06 0)
(-2.76608e-06 -8.70331e-06 0)
(-9.40329e-07 -9.0571e-06 0)
(9.2235e-07 -9.05562e-06 0)
(2.74862e-06 -8.69883e-06 0)
(4.46653e-06 -8.00071e-06 0)
(6.0085e-06 -6.98867e-06 0)
(7.31387e-06 -5.70247e-06 0)
(8.33128e-06 -4.1927e-06 0)
(9.02072e-06 -2.51872e-06 0)
(9.3551e-06 -7.46416e-07 0)
(9.3213e-06 1.05442e-06 0)
(8.92078e-06 2.81253e-06 0)
(8.1696e-06 4.45734e-06 0)
(7.09791e-06 5.91932e-06 0)
(5.7485e-06 7.12637e-06 0)
(4.18697e-06 7.99261e-06 0)
(2.50145e-06 8.37225e-06 0)
(7.90365e-07 7.98715e-06 0)
(-9.46784e-07 9.91437e-06 0)
(-3.00355e-06 1.03017e-05 0)
(-5.04252e-06 9.77892e-06 0)
(-6.93844e-06 8.70247e-06 0)
(-8.57457e-06 7.2217e-06 0)
(-9.87586e-06 5.432e-06 0)
(-1.07892e-05 3.41964e-06 0)
(-1.12782e-05 1.26922e-06 0)
(-1.13233e-05 -9.32966e-07 0)
(-1.09226e-05 -3.09985e-06 0)
(-1.00917e-05 -5.14609e-06 0)
(-8.8634e-06 -6.99119e-06 0)
(-7.28601e-06 -8.56253e-06 0)
(-5.4217e-06 -9.79826e-06 0)
(-3.34392e-06 -1.06497e-05 0)
(-1.13454e-06 -1.10833e-05 0)
(1.11949e-06 -1.10819e-05 0)
(3.32942e-06 -1.06454e-05 0)
(5.4082e-06 -9.79114e-06 0)
(7.27403e-06 -8.55252e-06 0)
(8.85351e-06 -6.9783e-06 0)
(1.00845e-05 -5.13036e-06 0)
(1.09185e-05 -3.08143e-06 0)
(1.13229e-05 -9.12104e-07 0)
(1.12816e-05 1.29214e-06 0)
(1.07966e-05 3.44409e-06 0)
(9.88705e-06 5.45733e-06 0)
(8.5895e-06 7.24672e-06 0)
(6.95814e-06 8.72379e-06 0)
(5.06381e-06 9.78206e-06 0)
(3.02662e-06 1.02449e-05 0)
(9.60107e-07 9.77525e-06 0)
(-1.15059e-06 1.20668e-05 0)
(-3.64672e-06 1.2566e-05 0)
(-6.11956e-06 1.19507e-05 0)
(-8.41671e-06 1.06432e-05 0)
(-1.0399e-05 8.83541e-06 0)
(-1.19756e-05 6.64869e-06 0)
(-1.30819e-05 4.18943e-06 0)
(-1.36738e-05 1.5613e-06 0)
(-1.37275e-05 -1.1302e-06 0)
(-1.32409e-05 -3.77863e-06 0)
(-1.22329e-05 -6.27966e-06 0)
(-1.07433e-05 -8.53487e-06 0)
(-8.8306e-06 -1.04555e-05 0)
(-6.5702e-06 -1.1966e-05 0)
(-4.05108e-06 -1.30069e-05 0)
(-1.37249e-06 -1.35371e-05 0)
(1.36017e-06 -1.35358e-05 0)
(4.03932e-06 -1.3003e-05 0)
(6.55943e-06 -1.19595e-05 0)
(8.82133e-06 -1.04464e-05 0)
(1.0736e-05 -8.52328e-06 0)
(1.22282e-05 -6.26571e-06 0)
(1.3239e-05 -3.76254e-06 0)
(1.37289e-05 -1.11227e-06 0)
(1.36786e-05 1.58066e-06 0)
(1.30901e-05 4.20971e-06 0)
(1.19872e-05 6.66927e-06 0)
(1.04139e-05 8.85523e-06 0)
(8.43359e-06 1.06592e-05 0)
(6.14133e-06 1.19506e-05 0)
(3.66877e-06 1.25122e-05 0)
(1.15996e-06 1.19419e-05 0)
(-1.40192e-06 1.46835e-05 0)
(-4.43489e-06 1.53137e-05 0)
(-7.43387e-06 1.4584e-05 0)
(-1.02213e-05 1.2996e-05 0)
(-1.26266e-05 1.07917e-05 0)
(-1.45395e-05 8.12363e-06 0)
(-1.58816e-05 5.12253e-06 0)
(-1.65992e-05 1.91515e-06 0)
(-1.66636e-05 -1.36972e-06 0)
(-1.60721e-05 -4.60212e-06 0)
(-1.4848e-05 -7.65471e-06 0)
(-1.30393e-05 -1.04073e-05 0)
(-1.07172e-05 -1.27517e-05 0)
(-7.97307e-06 -1.45955e-05 0)
(-4.91503e-06 -1.58662e-05 0)
(-1.66348e-06 -1.65137e-05 0)
(1.65364e-06 -1.65125e-05 0)
(4.90574e-06 -1.58627e-05 0)
(7.96473e-06 -1.45897e-05 0)
(1.07102e-05 -1.27436e-05 0)
(1.30342e-05 -1.03972e-05 0)
(1.48452e-05 -7.6426e-06 0)
(1.6072e-05 -4.58833e-06 0)
(1.66664e-05 -1.35458e-06 0)
(1.66049e-05 1.93123e-06 0)
(1.58903e-05 5.1391e-06 0)
(1.4551e-05 8.14012e-06 0)
(1.26406e-05 1.08072e-05 0)
(1.02388e-05 1.30079e-05 0)
(7.45105e-06 1.4581e-05 0)
(4.45271e-06 1.52637e-05 0)
(1.41224e-06 1.45702e-05 0)
(-1.70471e-06 1.78652e-05 0)
(-5.39145e-06 1.86512e-05 0)
(-9.03631e-06 1.77808e-05 0)
(-1.2422e-05 1.5852e-05 0)
(-1.53435e-05 1.31664e-05 0)
(-1.76667e-05 9.91391e-06 0)
(-1.92965e-05 6.25501e-06 0)
(-2.01676e-05 2.34438e-06 0)
(-2.02451e-05 -1.66087e-06 0)
(-1.95259e-05 -5.60228e-06 0)
(-1.80381e-05 -9.32454e-06 0)
(-1.58402e-05 -1.26811e-05 0)
(-1.30188e-05 -1.554e-05 0)
(-9.68468e-06 -1.77885e-05 0)
(-5.96927e-06 -1.93382e-05 0)
(-2.01883e-06 -2.01281e-05 0)
(2.01119e-06 -2.01271e-05 0)
(5.96215e-06 -1.93351e-05 0)
(9.67844e-06 -1.77834e-05 0)
(1.30138e-05 -1.5533e-05 0)
(1.5837e-05 -1.26724e-05 0)
(1.8037e-05 -9.31424e-06 0)
(1.95271e-05 -5.59069e-06 0)
(2.02489e-05 -1.64832e-06 0)
(2.01739e-05 2.35753e-06 0)
(1.93053e-05 6.26833e-06 0)
(1.76779e-05 9.92692e-06 0)
(1.5357e-05 1.31783e-05 0)
(1.24362e-05 1.58604e-05 0)
(9.05456e-06 1.77762e-05 0)
(5.40887e-06 1.86039e-05 0)
(1.711e-06 1.77625e-05 0)
(-2.07621e-06 2.17355e-05 0)
(-6.56008e-06 2.27078e-05 0)
(-1.09886e-05 2.16651e-05 0)
(-1.51037e-05 1.93218e-05 0)
(-1.86545e-05 1.60513e-05 0)
(-2.14781e-05 1.20888e-05 0)
(-2.34587e-05 7.63069e-06 0)
(-2.4517e-05 2.8656e-06 0)
(-2.46107e-05 -2.01496e-06 0)
(-2.37359e-05 -6.81787e-06 0)
(-2.19268e-05 -1.13538e-05 0)
(-1.92547e-05 -1.54443e-05 0)
(-1.58245e-05 -1.89283e-05 0)
(-1.17713e-05 -2.16686e-05 0)
(-7.25466e-06 -2.35575e-05 0)
(-2.45236e-06 -2.45204e-05 0)
(2.44662e-06 -2.45195e-05 0)
(7.24941e-06 -2.35548e-05 0)
(1.17669e-05 -2.16643e-05 0)
(1.58212e-05 -1.89224e-05 0)
(1.92529e-05 -1.54369e-05 0)
(2.19269e-05 -1.13452e-05 0)
(2.3738e-05 -6.8083e-06 0)
(2.4615e-05 -2.00474e-06 0)
(2.45235e-05 2.87614e-06 0)
(2.34674e-05 7.64118e-06 0)
(2.14887e-05 1.20989e-05 0)
(1.86668e-05 1.60602e-05 0)
(1.51189e-05 1.93276e-05 0)
(1.10022e-05 2.16588e-05 0)
(6.57405e-06 2.26639e-05 0)
(2.08462e-06 2.16416e-05 0)
(-2.52546e-06 2.6444e-05 0)
(-7.9795e-06 2.76404e-05 0)
(-1.33664e-05 2.63872e-05 0)
(-1.83702e-05 2.35399e-05 0)
(-2.26877e-05 1.95583e-05 0)
(-2.61209e-05 1.47326e-05 0)
(-2.85291e-05 9.30285e-06 0)
(-2.98157e-05 3.49899e-06 0)
(-2.99292e-05 -2.44568e-06 0)
(-2.88649e-05 -8.29592e-06 0)
(-2.66646e-05 -1.38212e-05 0)
(-2.34147e-05 -1.88039e-05 0)
(-1.92431e-05 -2.30479e-05 0)
(-1.43138e-05 -2.63862e-05 0)
(-8.82102e-06 -2.86872e-05 0)
(-2.98087e-06 -2.98605e-05 0)
(2.97676e-06 -2.98597e-05 0)
(8.81734e-06 -2.8685e-05 0)
(1.43109e-05 -2.63825e-05 0)
(1.92411e-05 -2.3043e-05 0)
(2.34141e-05 -1.87978e-05 0)
(2.66656e-05 -1.38141e-05 0)
(2.88677e-05 -8.2882e-06 0)
(2.99339e-05 -2.43754e-06 0)
(2.98222e-05 3.50725e-06 0)
(2.85375e-05 9.31091e-06 0)
(2.6131e-05 1.47402e-05 0)
(2.26995e-05 1.95647e-05 0)
(1.83818e-05 2.35433e-05 0)
(1.33818e-05 2.63802e-05 0)
(7.99357e-06 2.75989e-05 0)
(2.52957e-06 2.63583e-05 0)
(-3.07501e-06 3.21731e-05 0)
(-9.71086e-06 3.36401e-05 0)
(-1.62613e-05 3.21299e-05 0)
(-2.23476e-05 2.86694e-05 0)
(-2.75989e-05 2.38231e-05 0)
(-3.17748e-05 1.79477e-05 0)
(-3.47038e-05 1.13363e-05 0)
(-3.62685e-05 4.26915e-06 0)
(-3.64063e-05 -2.96964e-06 0)
(-3.51115e-05 -1.00936e-05 0)
(-3.24348e-05 -1.6822e-05 0)
(-2.84814e-05 -2.28898e-05 0)
(-2.34068e-05 -2.80582e-05 0)
(-1.74107e-05 -3.21237e-05 0)
(-1.0729e-05 -3.49261e-05 0)
(-3.62488e-06 -3.63552e-05 0)
(3.6221e-06 -3.63546e-05 0)
(1.07266e-05 -3.49243e-05 0)
(1.74089e-05 -3.21207e-05 0)
(2.3406e-05 -2.80542e-05 0)
(2.84817e-05 -2.28849e-05 0)
(3.24365e-05 -1.68164e-05 0)
(3.51148e-05 -1.00875e-05 0)
(3.64112e-05 -2.96335e-06 0)
(3.62749e-05 4.27541e-06 0)
(3.47118e-05 1.13423e-05 0)
(3.17842e-05 1.79531e-05 0)
(2.76094e-05 2.38273e-05 0)
(2.23606e-05 2.8671e-05 0)
(1.6272e-05 3.21217e-05 0)
(9.72199e-06 3.36016e-05 0)
(3.0822e-06 3.20943e-05 0)
(-3.74103e-06 3.91444e-05 0)
(-1.18149e-05 4.09388e-05 0)
(-1.97856e-05 3.91154e-05 0)
(-2.71897e-05 3.4909e-05 0)
(-3.35783e-05 2.90108e-05 0)
(-3.86584e-05 2.18586e-05 0)
(-4.22217e-05 1.38098e-05 0)
(-4.41252e-05 5.206e-06 0)
(-4.42928e-05 -3.60701e-06 0)
(-4.27174e-05 -1.22804e-05 0)
(-3.94608e-05 -2.04724e-05 0)
(-3.46509e-05 -2.78603e-05 0)
(-2.84769e-05 -3.41532e-05 0)
(-2.11818e-05 -3.91034e-05 0)
(-1.30525e-05 -4.25158e-05 0)
(-4.40932e-06 -4.4256e-05 0)
(4.40763e-06 -4.42555e-05 0)
(1.30512e-05 -4.25143e-05 0)
(2.11809e-05 -3.9101e-05 0)
(2.84769e-05 -3.41501e-05 0)
(3.46519e-05 -2.78565e-05 0)
(3.9463e-05 -2.04681e-05 0)
(4.27209e-05 -1.22758e-05 0)
(4.42977e-05 -3.60234e-06 0)
(4.41314e-05 5.21052e-06 0)
(4.22292e-05 1.3814e-05 0)
(3.86672e-05 2.18621e-05 0)
(3.35884e-05 2.90133e-05 0)
(2.71991e-05 3.4909e-05 0)
(1.97988e-05 3.9107e-05 0)
(1.18265e-05 4.09024e-05 0)
(3.74352e-06 3.90724e-05 0)
(-4.55426e-06 4.76278e-05 0)
(-1.43791e-05 4.98191e-05 0)
(-2.40752e-05 4.7614e-05 0)
(-3.30838e-05 4.25002e-05 0)
(-4.08567e-05 3.53223e-05 0)
(-4.70379e-05 2.66167e-05 0)
(-5.13736e-05 1.68193e-05 0)
(-5.36897e-05 6.34597e-06 0)
(-5.38938e-05 -4.38229e-06 0)
(-5.19771e-05 -1.49409e-05 0)
(-4.80147e-05 -2.49136e-05 0)
(-4.21622e-05 -3.39076e-05 0)
(-3.46499e-05 -4.15688e-05 0)
(-2.57732e-05 -4.75954e-05 0)
(-1.58816e-05 -5.17499e-05 0)
(-5.36462e-06 -5.38687e-05 0)
(5.36377e-06 -5.38683e-05 0)
(1.58811e-05 -5.17488e-05 0)
(2.57731e-05 -4.75936e-05 0)
(3.46505e-05 -4.15664e-05 0)
(4.21637e-05 -3.39048e-05 0)
(4.80172e-05 -2.49104e-05 0)
(5.19807e-05 -1.49376e-05 0)
(5.38986e-05 -4.37905e-06 0)
(5.36957e-05 6.34898e-06 0)
(5.13806e-05 1.68219e-05 0)
(4.7046e-05 2.66186e-05 0)
(4.08656e-05 3.53232e-05 0)
(3.3095e-05 4.2499e-05 0)
(2.40835e-05 4.76048e-05 0)
(1.43881e-05 4.97854e-05 0)
(4.56068e-06 4.75614e-05 0)
(-5.54116e-06 5.79514e-05 0)
(-1.74965e-05 6.06245e-05 0)
(-2.92961e-05 5.79546e-05 0)
(-4.02577e-05 5.17367e-05 0)
(-4.97159e-05 4.30019e-05 0)
(-5.72374e-05 3.24064e-05 0)
(-6.25134e-05 2.04815e-05 0)
(-6.53322e-05 7.73342e-06 0)
(-6.55809e-05 -5.32525e-06 0)
(-6.3249e-05 -1.81777e-05 0)
(-5.84276e-05 -3.03173e-05 0)
(-5.13062e-05 -4.12658e-05 0)
(-4.21647e-05 -5.0592e-05 0)
(-3.13629e-05 -5.79285e-05 0)
(-1.93259e-05 -6.29862e-05 0)
(-6.52778e-06 -6.55657e-05 0)
(6.52756e-06 -6.55654e-05 0)
(1.93259e-05 -6.29854e-05 0)
(3.13633e-05 -5.79272e-05 0)
(4.21657e-05 -5.05903e-05 0)
(5.13079e-05 -4.12638e-05 0)
(5.84302e-05 -3.03151e-05 0)
(6.32525e-05 -1.81756e-05 0)
(6.55855e-05 -5.32326e-06 0)
(6.53378e-05 7.73511e-06 0)
(6.25199e-05 2.04827e-05 0)
(5.72449e-05 3.2407e-05 0)
(4.97245e-05 4.30016e-05 0)
(4.02651e-05 5.17343e-05 0)
(2.93076e-05 5.79454e-05 0)
(1.75062e-05 6.05923e-05 0)
(5.54238e-06 5.78906e-05 0)
(-6.74479e-06 7.05146e-05 0)
(-2.12934e-05 7.37728e-05 0)
(-3.56499e-05 7.05371e-05 0)
(-4.89886e-05 6.2976e-05 0)
(-6.04982e-05 5.2347e-05 0)
(-6.96513e-05 3.9452e-05 0)
(-7.60722e-05 2.49384e-05 0)
(-7.9503e-05 9.42243e-06 0)
(-7.98065e-05 -6.47202e-06 0)
(-7.69694e-05 -2.21159e-05 0)
(-7.11028e-05 -3.68924e-05 0)
(-6.24369e-05 -5.02195e-05 0)
(-5.13126e-05 -6.15721e-05 0)
(-3.81674e-05 -7.05029e-05 0)
(-2.35189e-05 -7.66597e-05 0)
(-7.9439e-06 -7.98e-05 0)
(7.94409e-06 -7.97998e-05 0)
(2.35193e-05 -7.66592e-05 0)
(3.81681e-05 -7.0502e-05 0)
(5.13138e-05 -6.15711e-05 0)
(6.24388e-05 -5.02183e-05 0)
(7.11054e-05 -3.68912e-05 0)
(7.69729e-05 -2.21147e-05 0)
(7.98108e-05 -6.47113e-06 0)
(7.95082e-05 9.42295e-06 0)
(7.60782e-05 2.49384e-05 0)
(6.96581e-05 3.94514e-05 0)
(6.05055e-05 5.23455e-05 0)
(4.89984e-05 6.29728e-05 0)
(3.56563e-05 7.05273e-05 0)
(2.13008e-05 7.37431e-05 0)
(6.75074e-06 7.04584e-05 0)
(-8.20668e-06 8.58032e-05 0)
(-2.59107e-05 8.97727e-05 0)
(-4.33823e-05 8.58484e-05 0)
(-5.96141e-05 7.6653e-05 0)
(-7.36205e-05 6.37193e-05 0)
(-8.47596e-05 4.80264e-05 0)
(-9.25743e-05 3.03629e-05 0)
(-9.67506e-05 1.14789e-05 0)
(-9.71211e-05 -7.86646e-06 0)
(-9.36697e-05 -2.69074e-05 0)
(-8.65313e-05 -4.48932e-05 0)
(-7.59859e-05 -6.11152e-05 0)
(-6.2448e-05 -7.49342e-05 0)
(-4.64505e-05 -8.58054e-05 0)
(-2.86231e-05 -9.33002e-05 0)
(-9.66787e-06 -9.71229e-05 0)
(9.6683e-06 -9.71228e-05 0)
(2.86236e-05 -9.32999e-05 0)
(4.64514e-05 -8.5805e-05 0)
(6.24494e-05 -7.49337e-05 0)
(7.59877e-05 -6.11147e-05 0)
(8.65338e-05 -4.48927e-05 0)
(9.3673e-05 -2.69071e-05 0)
(9.71251e-05 -7.86654e-06 0)
(9.67553e-05 1.14784e-05 0)
(9.25798e-05 3.03619e-05 0)
(8.47659e-05 4.80248e-05 0)
(7.36277e-05 6.37168e-05 0)
(5.96198e-05 7.66489e-05 0)
(4.33925e-05 8.58388e-05 0)
(2.59191e-05 8.97442e-05 0)
(8.20684e-06 8.57516e-05 0)
(-9.98823e-06 0.000104408 0)
(-3.15326e-05 0.000109243 0)
(-5.27916e-05 0.000104481 0)
(-7.25445e-05 9.3297e-05 0)
(-8.95897e-05 7.75592e-05 0)
(-0.000103146 5.8462e-05 0)
(-0.000112658 3.69656e-05 0)
(-0.000117742 1.3983e-05 0)
(-0.000118195 -9.5618e-06 0)
(-0.000113997 -3.2737e-05 0)
(-0.000105311 -5.46288e-05 0)
(-9.24779e-05 -7.43744e-05 0)
(-7.60028e-05 -9.11954e-05 0)
(-5.65334e-05 -0.000104429 0)
(-3.48364e-05 -0.000113552 0)
(-1.17666e-05 -0.000118206 0)
(1.17671e-05 -0.000118206 0)
(3.4837e-05 -0.000113552 0)
(5.65343e-05 -0.000104429 0)
(7.6004e-05 -9.11954e-05 0)
(9.24797e-05 -7.43744e-05 0)
(0.000105313 -5.46291e-05 0)
(0.000114 -3.27376e-05 0)
(0.000118199 -9.56275e-06 0)
(0.000117746 1.39816e-05 0)
(0.000112663 3.69637e-05 0)
(0.000103152 5.84594e-05 0)
(8.95956e-05 7.75559e-05 0)
(7.2553e-05 9.32922e-05 0)
(5.27964e-05 0.00010447 0)
(3.15387e-05 0.000109216 0)
(9.99392e-06 0.00010436 0)
(-1.21532e-05 0.000127049 0)
(-3.837e-05 0.000132935 0)
(-6.42416e-05 0.000127154 0)
(-8.82793e-05 0.000113552 0)
(-0.000109023 9.44025e-05 0)
(-0.000125522 7.11632e-05 0)
(-0.0001371 4.5003e-05 0)
(-0.00014329 1.7033e-05 0)
(-0.000143844 -1.16226e-05 0)
(-0.000138737 -3.98295e-05 0)
(-0.000128169 -6.64754e-05 0)
(-0.000112553 -9.05099e-05 0)
(-9.25024e-05 -0.000110985 0)
(-6.88071e-05 -0.000127094 0)
(-4.24e-05 -0.0001382 0)
(-1.43214e-05 -0.000143865 0)
(1.43218e-05 -0.000143865 0)
(4.24005e-05 -0.0001382 0)
(6.88079e-05 -0.000127094 0)
(9.25035e-05 -0.000110986 0)
(0.000112554 -9.05106e-05 0)
(0.000128171 -6.64763e-05 0)
(0.00013874 -3.98308e-05 0)
(0.000143847 -1.16243e-05 0)
(0.000143294 1.70308e-05 0)
(0.000137104 4.50002e-05 0)
(0.000125527 7.11598e-05 0)
(0.000109029 9.43983e-05 0)
(8.82835e-05 0.000113546 0)
(6.42508e-05 0.000127144 0)
(3.83773e-05 0.00013291 0)
(1.21524e-05 0.000127005 0)
(-1.47901e-05 0.000154599 0)
(-4.66929e-05 0.000161767 0)
(-7.81737e-05 0.000154746 0)
(-0.000107426 0.000138201 0)
(-0.000132671 0.000114901 0)
(-0.000152752 8.66224e-05 0)
(-0.000166845 5.47874e-05 0)
(-0.000174382 2.07482e-05 0)
(-0.000175061 -1.4127e-05 0)
(-0.00016885 -4.84579e-05 0)
(-0.000155991 -8.08905e-05 0)
(-0.000136988 -0.000110146 0)
(-0.000112587 -0.00013507 0)
(-8.37481e-05 -0.00015468 0)
(-5.16074e-05 -0.0001682 0)
(-1.74316e-05 -0.000175096 0)
(1.74318e-05 -0.000175096 0)
(5.16077e-05 -0.0001682 0)
(8.37486e-05 -0.00015468 0)
(0.000112588 -0.000135071 0)
(0.000136989 -0.000110147 0)
(0.000155993 -8.0892e-05 0)
(0.000168852 -4.84598e-05 0)
(0.000175063 -1.41294e-05 0)
(0.000174385 2.07453e-05 0)
(0.000166849 5.47838e-05 0)
(0.000152757 8.66182e-05 0)
(0.000132676 0.000114896 0)
(0.000107433 0.000138195 0)
(7.81769e-05 0.000154735 0)
(4.66979e-05 0.000161743 0)
(1.47957e-05 0.000154559 0)
(-1.79955e-05 0.000188125 0)
(-5.6816e-05 0.000196851 0)
(-9.51258e-05 0.000188323 0)
(-0.000130723 0.000168199 0)
(-0.000161447 0.00013985 0)
(-0.000185888 0.000105439 0)
(-0.000203043 6.66993e-05 0)
(-0.000212222 2.52748e-05 0)
(-0.000213054 -1.71697e-05 0)
(-0.000205502 -5.89543e-05 0)
(-0.000189857 -9.84308e-05 0)
(-0.000166732 -0.000134042 0)
(-0.000137036 -0.000164383 0)
(-0.000101936 -0.000188254 0)
(-6.28162e-05 -0.000204714 0)
(-2.12178e-05 -0.000213109 0)
(2.12177e-05 -0.000213109 0)
(6.28162e-05 -0.000204714 0)
(0.000101937 -0.000188255 0)
(0.000137036 -0.000164384 0)
(0.000166733 -0.000134044 0)
(0.000189858 -9.84328e-05 0)
(0.000205503 -5.89568e-05 0)
(0.000213056 -1.71728e-05 0)
(0.000212225 2.52712e-05 0)
(0.000203046 6.66951e-05 0)
(0.000185892 0.000105434 0)
(0.000161451 0.000139844 0)
(0.000130726 0.000168192 0)
(9.5134e-05 0.000188312 0)
(5.68223e-05 0.000196828 0)
(1.79938e-05 0.000188087 0)
(-2.1898e-05 0.000228919 0)
(-6.91357e-05 0.000239543 0)
(-0.000115751 0.000229182 0)
(-0.00015907 0.000204705 0)
(-0.00019646 0.000170213 0)
(-0.000226209 0.000128343 0)
(-0.000247094 8.12025e-05 0)
(-0.000258273 3.07912e-05 0)
(-0.000259295 -2.08652e-05 0)
(-0.000250112 -7.17221e-05 0)
(-0.000231079 -0.000119773 0)
(-0.00020294 -0.000163122 0)
(-0.000166799 -0.000200058 0)
(-0.000124079 -0.000229119 0)
(-7.64622e-05 -0.000249158 0)
(-2.58275e-05 -0.000259379 0)
(2.58269e-05 -0.00025938 0)
(7.64617e-05 -0.000249158 0)
(0.000124079 -0.00022912 0)
(0.000166799 -0.000200059 0)
(0.00020294 -0.000163124 0)
(0.00023108 -0.000119776 0)
(0.000250113 -7.17251e-05 0)
(0.000259296 -2.08688e-05 0)
(0.000258275 3.07869e-05 0)
(0.000247096 8.11976e-05 0)
(0.000226212 0.000128338 0)
(0.000196464 0.000170207 0)
(0.000159077 0.000204697 0)
(0.000115753 0.00022917 0)
(6.91396e-05 0.000239522 0)
(2.19036e-05 0.000228884 0)
(-2.66426e-05 0.000278557 0)
(-8.41199e-05 0.000291491 0)
(-0.000140844 0.000278902 0)
(-0.000193558 0.00024913 0)
(-0.000239063 0.000207168 0)
(-0.000275272 0.000156224 0)
(-0.000300698 9.88622e-05 0)
(-0.000314316 3.75156e-05 0)
(-0.000315574 -2.53516e-05 0)
(-0.000304411 -8.72511e-05 0)
(-0.000281257 -0.000145741 0)
(-0.000247017 -0.000198511 0)
(-0.000203033 -0.000243477 0)
(-0.000151036 -0.000278859 0)
(-9.30762e-05 -0.000303256 0)
(-3.14398e-05 -0.000315702 0)
(3.14387e-05 -0.000315702 0)
(9.30751e-05 -0.000303257 0)
(0.000151036 -0.00027886 0)
(0.000203033 -0.000243478 0)
(0.000247017 -0.000198513 0)
(0.000281257 -0.000145743 0)
(0.000304411 -8.72547e-05 0)
(0.000315574 -2.53558e-05 0)
(0.000314317 3.75106e-05 0)
(0.0003007 9.88566e-05 0)
(0.000275275 0.000156218 0)
(0.000239066 0.000207161 0)
(0.00019356 0.000249122 0)
(0.000140851 0.000278891 0)
(8.41253e-05 0.00029147 0)
(2.664e-05 0.000278525 0)
(-3.24171e-05 0.000338953 0)
(-0.000102351 0.0003547 0)
(-0.00017137 0.000339403 0)
(-0.000235517 0.000303194 0)
(-0.000290896 0.000252146 0)
(-0.00033497 0.000190164 0)
(-0.000365928 0.000120367 0)
(-0.000382519 4.5715e-05 0)
(-0.000384069 -3.07955e-05 0)
(-0.000370503 -0.000106136 0)
(-0.000342339 -0.000177334 0)
(-0.000300676 -0.000241576 0)
(-0.000247147 -0.000296321 0)
(-0.000183859 -0.000339402 0)
(-0.000113305 -0.000369109 0)
(-3.82734e-05 -0.000384264 0)
(3.82717e-05 -0.000384264 0)
(0.000113304 -0.00036911 0)
(0.000183857 -0.000339403 0)
(0.000247146 -0.000296323 0)
(0.000300675 -0.000241579 0)
(0.000342338 -0.000177337 0)
(0.000370502 -0.00010614 0)
(0.000384069 -3.08003e-05 0)
(0.000382519 4.57096e-05 0)
(0.000365929 0.000120361 0)
(0.000334972 0.000190157 0)
(0.000290897 0.000252138 0)
(0.000235522 0.000303185 0)
(0.00017137 0.000339391 0)
(0.000102354 0.00035468 0)
(3.24228e-05 0.000338922 0)
(-3.94376e-05 0.000412436 0)
(-0.000124524 0.000431609 0)
(-0.000208503 0.000413021 0)
(-0.000286559 0.000368985 0)
(-0.000353955 0.000306888 0)
(-0.000407604 0.000231482 0)
(-0.0004453 0.000146559 0)
(-0.000465518 5.57171e-05 0)
(-0.000467434 -3.73974e-05 0)
(-0.000450951 -0.0001291 0)
(-0.000416697 -0.00021577 0)
(-0.000366004 -0.000293982 0)
(-0.000300859 -0.000360639 0)
(-0.000223824 -0.000413098 0)
(-0.000137938 -0.000449274 0)
(-4.65949e-05 -0.000467729 0)
(4.65924e-05 -0.00046773 0)
(0.000137936 -0.000449275 0)
(0.000223822 -0.000413099 0)
(0.000300857 -0.000360641 0)
(0.000366002 -0.000293985 0)
(0.000416695 -0.000215774 0)
(0.00045095 -0.000129104 0)
(0.000467434 -3.74027e-05 0)
(0.000465517 5.5711e-05 0)
(0.0004453 0.000146552 0)
(0.000407605 0.000231474 0)
(0.000353957 0.000306879 0)
(0.000286559 0.000368976 0)
(0.000208509 0.00041301 0)
(0.000124529 0.000431588 0)
(3.94342e-05 0.000412407 0)
(-4.79794e-05 0.000501835 0)
(-0.000151496 0.000525181 0)
(-0.000253667 0.000502597 0)
(-0.000348647 0.000449047 0)
(-0.000430667 0.000373515 0)
(-0.000495973 0.000281784 0)
(-0.000541878 0.000178462 0)
(-0.000566522 6.79233e-05 0)
(-0.000568897 -4.53978e-05 0)
(-0.000548877 -0.000157017 0)
(-0.000507221 -0.000262527 0)
(-0.000445545 -0.000357753 0)
(-0.000366263 -0.000438921 0)
(-0.000272493 -0.000502806 0)
(-0.000167937 -0.000546865 0)
(-5.67294e-05 -0.000569344 0)
(5.67261e-05 -0.000569344 0)
(0.000167934 -0.000546867 0)
(0.00027249 -0.000502808 0)
(0.00036626 -0.000438924 0)
(0.000445542 -0.000357756 0)
(0.000507219 -0.000262531 0)
(0.000548875 -0.000157022 0)
(0.000568896 -4.54035e-05 0)
(0.000566521 6.79166e-05 0)
(0.000541877 0.000178455 0)
(0.000495973 0.000281776 0)