/*--------------------------------*- C++ -*----------------------------------*\
  =========                 |
  \\      /  F ield         | OpenFOAM: The Open Source CFD Toolbox
   \\    /   O peration     | Website:  https://openfoam.org
    \\  /    A nd           | Version:  9
     \\/     M anipulation  |
\*---------------------------------------------------------------------------*/
FoamFile
{
    format      ascii;
    class       volScalarField;
    location    "0.4";
    object      alpha.phase1;
}
// * * * * * * * * * * * * * * * * * * * * * * * * * * * * * * * * * * * * * //

dimensions      [0 0 0 0 0 0 0];

internalField   nonuniform List<scalar> 
10000
(
5.899336e-98
5.8995072e-98
7.9934859e-98
4.4198573e-96
5.0067992e-94
5.2111629e-92
5.1059033e-90
5.0248571e-88
5.6295022e-86
9.1161434e-84
3.0809037e-81
1.3119681e-78
1.0658477e-76
1.6337834e-75
9.1039558e-75
3.1492594e-74
9.3467987e-74
2.0319805e-73
2.6111865e-73
2.2996832e-72
1.7432491e-70
1.4008172e-68
1.0752983e-66
7.9140378e-65
5.6140469e-63
3.860394e-61
2.5870426e-59
1.7012038e-57
1.1395713e-55
8.3331185e-54
5.695546e-52
3.3315761e-50
1.740829e-48
5.3783354e-47
6.5291394e-46
4.2698567e-45
1.2070158e-44
1.6135583e-45
1.6135583e-45
1.6140698e-45
1.2112268e-44
1.8912036e-43
2.420138e-42
2.6007199e-41
2.2362334e-40
1.503417e-39
8.0682141e-39
3.4846402e-38
1.1622034e-37
2.8620794e-37
2.9279637e-37
1.4723795e-37
4.3514432e-38
9.5687782e-39
1.6329288e-39
2.0436793e-40
1.6628492e-41
7.6981027e-43
1.9108822e-44
2.6072257e-46
2.0676869e-46
1.8218774e-46
5.7142238e-47
8.9915718e-48
9.6376742e-49
2.4877829e-50
2.269949e-53
3.3003112e-55
6.3274205e-56
5.4393119e-57
3.1028693e-58
6.4051437e-60
6.2639337e-62
7.1561551e-64
9.8848824e-66
1.3408175e-67
1.7164824e-69
2.4809575e-71
2.4033416e-72
1.2391344e-72
9.3163832e-73
6.8734852e-73
3.9580865e-73
1.4440387e-73
5.4919446e-74
1.9248778e-74
5.2230043e-75
1.0650536e-75
7.660537e-77
9.8747142e-79
2.9892186e-81
8.7734288e-84
2.5899849e-86
6.6062206e-89
2.0472993e-91
1.0595605e-93
6.1880174e-96
1.1602865e-97
9.4989076e-98
9.4988569e-98
6.3648424e-98
1.6116261e-96
8.3315546e-96
2.6316803e-95
1.217996e-93
7.9376319e-92
6.8747399e-90
7.6693958e-88
1.2851441e-85
3.4861128e-83
8.2280097e-81
1.4890829e-78
1.0455339e-76
1.6166074e-75
9.4226782e-75
3.1890561e-74
8.2469413e-74
4.9120305e-73
2.4527584e-71
2.1520162e-69
1.855951e-67
1.5199313e-65
1.1862995e-63
8.8717004e-62
6.3907243e-60
4.4599666e-58
3.0304849e-56
2.0192613e-54
1.3741831e-52
1.0128705e-50
6.7570935e-49
3.8586583e-47
2.3335412e-45
9.3320236e-44
7.5403838e-43
1.2275057e-42
1.2451367e-44
4.0592395e-45
6.0680469e-45
1.4996144e-43
2.4510568e-42
3.3031077e-41
3.8197267e-40
3.6873031e-39
2.7427469e-38
1.4071976e-37
4.7267652e-37
1.1212596e-36
2.2969289e-36
4.0771858e-36
4.1232058e-36
2.6777209e-36
1.2816478e-36
5.2384042e-37
1.5364012e-37
2.6773169e-38
2.506182e-39
1.2599279e-40
3.6630526e-42
7.0674831e-44
6.3395156e-46
2.4209886e-46
1.1060611e-44
1.5079267e-44
3.4928148e-45
8.5917068e-47
7.4339298e-50
2.269949e-53
3.1920429e-53
3.0909749e-54
1.9584662e-56
2.3355411e-58
3.1905452e-60
4.2262323e-62
5.429223e-64
6.7256615e-66
7.9842528e-68
9.4287884e-70
1.6801235e-71
2.8673931e-72
6.1756173e-72
5.7528391e-72
2.1108729e-72
2.6156647e-73
8.7147618e-74
2.5387669e-74
5.891478e-75
1.0948643e-75
7.81835e-77
1.3081567e-78
8.4300182e-81
3.7580961e-83
8.4626651e-86
1.480981e-88
8.8554074e-91
9.3499783e-93
1.4465601e-94
2.252318e-95
2.8291175e-96
9.8000949e-98
4.5660042e-95
1.8223374e-93
1.109709e-91
8.4004221e-91
2.7445978e-90
2.7582923e-89
2.1724359e-87
3.7499381e-85
1.3137893e-82
7.6417893e-80
1.3640273e-77
3.4809435e-76
2.2742825e-75
1.3499677e-74
3.6339935e-73
3.3844218e-72
9.0726841e-72
2.0835227e-70
1.8544366e-68
1.6631979e-66
1.4436388e-64
1.1872829e-62
9.29315e-61
6.9586673e-59
5.0115819e-57
3.491177e-55
2.3638219e-53
1.5667002e-51
1.060225e-49
7.7366794e-48
5.0825325e-46
2.8781016e-44
1.7083265e-42
6.2439437e-41
4.6769798e-40
7.4218025e-40
3.5678537e-42
1.9964872e-42
1.1885922e-42
2.7224887e-41
4.3391838e-40
5.5538051e-39
6.1392313e-38
5.6982961e-37
4.1367685e-36
2.1158013e-35
7.1830765e-35
1.7139139e-34
3.4648075e-34
6.2734695e-34
6.3411351e-34
4.0677766e-34
1.9506753e-34
7.9387188e-35
2.308019e-35
4.0393891e-36
3.9186787e-37
2.134286e-38
7.039243e-40
1.4910042e-41
3.6918071e-43
9.1458706e-44
8.4115248e-42
1.3578506e-41
3.5096457e-42
9.8750831e-44
1.0716743e-46
5.4351577e-50
6.9447946e-52
3.1970315e-51
5.2016181e-53
3.1199678e-55
4.1814709e-57
5.5817157e-59
7.1555842e-61
8.81827e-63
1.0396683e-64
1.192708e-66
1.6110041e-68
8.2028882e-70
2.64065e-69
3.0148692e-69
1.2493471e-69
1.0246075e-70
2.680531e-71
5.9127558e-72
8.4464712e-73
9.3095602e-74
7.824155e-75
4.9904709e-76
1.0711528e-77
7.1353064e-80
3.1614189e-82
1.2331918e-84
4.9188121e-87
5.8191307e-89
3.1596251e-90
2.2675437e-91
2.9741349e-93
7.2464634e-95
1.5204659e-92
7.1542153e-91
7.3486264e-89
5.5989064e-87
8.4141677e-86
2.1380396e-85
2.1687029e-84
3.5202419e-82
1.0890027e-79
5.4848816e-77
9.4939443e-75
2.5555594e-73
2.0253594e-72
3.4136337e-71
9.1467858e-70
3.7881374e-69
4.4397573e-69
1.137883e-67
1.0400603e-65
9.4842511e-64
8.2899451e-62
6.8486502e-60
5.3731375e-58
4.0238267e-56
2.8930486e-54
2.0079951e-52
1.3518992e-50
8.8910496e-49
5.9622712e-47
4.3069458e-45
2.7992896e-43
1.5807139e-41
9.214766e-40
3.0565791e-38
2.1003621e-37
3.2386883e-37
1.7973223e-38
9.0984249e-40
2.4155854e-40
3.9899429e-39
5.8942461e-38
7.1179025e-37
7.5130075e-36
6.6982655e-35
4.7329088e-34
2.3972032e-33
8.1613528e-33
1.950047e-32
3.8931424e-32
7.1448061e-32
7.2194218e-32
4.5926022e-32
2.2075246e-32
8.9789471e-33
2.6067243e-33
4.6109881e-34
4.6446995e-35
2.7310465e-36
1.0105723e-37
2.223065e-39
7.1448798e-41
7.2518524e-41
4.5227812e-39
8.3794796e-39
2.3647105e-39
7.5356673e-41
1.0158458e-43
6.4051351e-47
7.7270266e-49
2.3169143e-48
4.1302955e-50
2.610076e-52
3.5177567e-54
4.7134892e-56
6.0469158e-58
7.43429e-60
8.719928e-62
9.845115e-64
1.2381605e-65
2.6585708e-67
7.0613587e-67
1.2445701e-66
5.6819862e-67
5.2809634e-68
1.4278743e-68
3.4569348e-69
5.6391729e-70
8.1812314e-71
7.1308482e-72
3.9291212e-73
8.2373906e-75
6.9847625e-77
4.5695203e-79
3.194741e-81
2.4386496e-83
2.8989896e-85
1.0758527e-86
1.6292195e-88
1.3450648e-90
2.3621278e-92
3.9436456e-90
2.2192838e-88
2.3423609e-86
2.0861972e-84
1.4293113e-82
2.5739886e-81
1.0210383e-80
3.4005e-79
7.1446072e-77
2.7620994e-74
4.6682889e-72
1.3620888e-70
1.2189757e-69
1.9624098e-68
4.4287553e-67
1.6745929e-66
1.7504435e-66
5.2147926e-65
4.7776285e-63
4.4273067e-61
3.8975842e-59
3.2331339e-57
2.5399199e-55
1.8996296e-53
1.3601369e-51
9.3767433e-50
6.253588e-48
4.0637849e-46
2.6839803e-44
1.9070646e-42
1.2241225e-40
6.8954637e-39
3.9482865e-37
1.180209e-35
7.3567992e-35
1.0922795e-34
1.1050306e-35
2.9538282e-37
5.8926602e-38
4.9538422e-37
6.4174749e-36
7.1658398e-35
7.1932278e-34
6.1417728e-33
4.2130065e-32
2.1082464e-31
7.175044e-31
1.71253e-30
3.371792e-30
6.2274451e-30
6.2917247e-30
3.9904102e-30
1.9284824e-30
7.86379e-31
2.2861487e-31
4.0908906e-32
4.2751965e-33
2.7077496e-34
1.1191808e-35
2.6391105e-37
1.0247873e-38
3.9782912e-38
1.8632362e-36
3.9177229e-36
1.1997961e-36
4.3273563e-38
7.6499981e-41
5.0417529e-44
6.1760846e-46
1.2778078e-45
2.4375845e-47
1.6766014e-49
2.2896473e-51
3.0848094e-53
3.9698823e-55
4.8785516e-57
5.6948294e-59
6.3461686e-61
7.6129145e-63
1.2251131e-64
1.432184e-64
3.9399894e-64
1.8995106e-64
1.9181022e-65
5.7507614e-66
1.5465962e-66
2.7282102e-67
4.5865701e-68
4.0875044e-69
2.1569093e-70
4.496047e-72
4.330283e-74
3.5845186e-76
2.7003586e-78
2.1366421e-80
3.4649461e-82
6.105852e-84
5.9704125e-86
4.1479785e-88
5.9928741e-90
8.3432494e-88
5.2934152e-86
6.0878215e-84
5.4466441e-82
4.3774357e-80
2.3728251e-78
4.3370831e-77
3.1545271e-76
3.7660875e-74
1.1062134e-71
1.856948e-69
5.665808e-68
5.5067753e-67
1.0025314e-65
1.6784754e-64
5.4304785e-64
5.6672195e-64
1.9594547e-62
1.8651459e-60
1.7565927e-58
1.5588029e-56
1.2984946e-54
1.0206255e-52
7.6103435e-51
5.4147001e-49
3.6973364e-47
2.4349081e-45
1.5574181e-43
1.0078408e-41
7.0012092e-40
4.42975e-38
2.4899485e-36
1.3980824e-34
3.749743e-33
2.1022452e-32
2.9807892e-32
4.2178572e-33
7.3028866e-35
1.2637045e-35
5.647419e-35
5.9165047e-34
5.8636993e-33
5.5593139e-32
4.5236654e-31
2.9994945e-30
1.4779876e-29
5.0153645e-29
1.194223e-28
2.3192979e-28
4.292434e-28
4.3366034e-28
2.75088e-28
1.3392546e-28
5.4831918e-29
1.5982415e-29
2.8980452e-30
3.1483297e-31
2.1501208e-32
9.9176804e-34
2.6102408e-35
1.0541806e-36
1.4529357e-35
6.1950674e-34
1.4691133e-33
4.8685323e-34
1.9886302e-35
5.2862781e-38
3.0264853e-41
3.8094804e-43
6.2397707e-43
1.1876432e-44
9.0105553e-47
1.2480285e-48
1.694164e-50
2.1898975e-52
2.691248e-54
3.1262587e-56
3.4383505e-58
3.9279993e-60
6.0302957e-62
4.2199728e-62
1.1232359e-61
5.366108e-62
5.6350546e-63
1.9002634e-63
5.5157548e-64
1.0153073e-64
1.9114765e-65
1.787048e-66
8.931592e-68
1.8315311e-69
1.9747571e-71
1.7166437e-73
1.0764166e-75
1.0323444e-77
1.9038492e-79
1.9400267e-81
1.5562165e-83
9.796178e-86
1.2397583e-87
1.4875017e-85
1.0279106e-83
1.2528401e-81
1.1972734e-79
9.8809977e-78
8.0796975e-76
2.8881393e-74
2.4499406e-73
1.4168204e-71
3.5800603e-69
5.5667417e-67
1.788708e-65
2.0874123e-64
4.2819138e-63
5.2385394e-62
1.4314525e-61
1.5614242e-61
6.3509781e-60
6.2934941e-58
6.0339878e-56
5.407472e-54
4.5267726e-52
3.559586e-50
2.644432e-48
1.8666572e-46
1.2597511e-44
8.1680972e-43
5.1251063e-41
3.2334518e-39
2.1847414e-37
1.3616813e-35
7.6541439e-34
4.1965638e-32
1.0051221e-30
5.0476364e-30
6.7788592e-30
1.2016931e-30
1.375887e-32
2.3133114e-33
6.4260016e-33
4.8919093e-32
3.9966613e-31
3.5376321e-30
2.7300743e-29
1.7418435e-28
8.4237898e-28
2.8408534e-27
6.7225652e-27
1.2843827e-26
2.3689163e-26
2.3941578e-26
1.5255922e-26
7.5133964e-27
3.0977532e-27
9.0786322e-28
1.672692e-28
1.8922333e-29
1.3945158e-30
7.1699161e-32
1.9962606e-33
2.6080344e-34
3.397778e-33
1.7375289e-31
4.566138e-31
1.6352941e-31
7.6120556e-33
2.8625814e-35
1.4636395e-38
1.9127316e-40
2.6196413e-40
4.8754711e-42
4.1637569e-44
5.8598721e-46
8.0315657e-48
1.0433567e-49
1.2815596e-51
1.479458e-53
1.6033998e-55
1.7481956e-57
2.3960212e-59
1.0552514e-59
2.7537065e-59
1.2972976e-59
1.4182686e-60
5.2182912e-61
1.606128e-61
3.1361857e-62
6.4622887e-63
6.2847575e-64
2.8933216e-65
5.9336644e-67
7.044904e-69
5.106094e-71
3.7484953e-73
5.6865641e-75
5.5608835e-77
4.4409105e-79
3.2011424e-81
1.8828539e-83
2.1584129e-85
2.2876473e-83
1.6882871e-81
2.1431599e-79
2.1805409e-77
1.8487507e-75
1.3849519e-73
8.9055172e-72
2.9827194e-70
4.1914177e-69
8.4786954e-67
1.3357385e-64
4.9548526e-63
6.7951487e-62
1.2886765e-60
1.2646267e-59
3.1817055e-59
3.7506991e-59
1.7972418e-57
1.8556289e-55
1.8185282e-53
1.6512771e-51
1.3920367e-49
1.0962566e-47
8.1108098e-46
5.6738583e-44
3.7760217e-42
2.4036417e-40
1.474385e-38
9.0293713e-37
5.8994123e-35
3.6123408e-33
2.0341246e-31
1.0837572e-29
2.3083928e-28
1.0358967e-27
1.3130599e-27
2.7463561e-28
2.1791251e-30
3.7183813e-31
7.4431468e-31
3.8549761e-30
2.3301287e-29
1.8721179e-28
1.3641491e-27
8.3233101e-27
3.9294709e-26
1.3082122e-25
3.0407639e-25
5.6446918e-25
1.0342031e-24
1.047217e-24
6.7236565e-25
3.3823325e-25
1.4208814e-25
4.2234233e-26
7.9343995e-27
9.3648637e-28
7.4642065e-29
4.2760529e-30
1.2249193e-31
3.8766454e-32
6.6897262e-31
4.2054083e-29
1.2049178e-28
4.6553175e-29
2.4873323e-30
1.2713408e-32
5.9043879e-36
4.8998831e-37
9.8606387e-38
1.3755333e-39
1.6955289e-41
2.4339085e-43
3.3770727e-45
4.4039618e-47
5.3963696e-49
6.1761681e-51
6.5752809e-53
6.831281e-55
8.0720289e-57
2.2905453e-57
5.8812029e-57
2.7241127e-57
3.1051682e-58
1.2312743e-58
3.9949055e-59
8.144825e-60
1.8197006e-60
1.7979312e-61
8.0481875e-63
1.6743005e-64
1.9294496e-66
1.2964221e-68
1.5678279e-70
1.6238261e-72
1.1739185e-74
8.2077227e-77
5.4737258e-79
3.055001e-81
3.2358953e-83
3.0886255e-81
2.404358e-79
3.1452465e-77
3.3407039e-75
3.0071922e-73
2.3729086e-71
1.7561076e-69
7.8764481e-68
1.3476449e-66
1.4650289e-64
2.50312e-62
1.2033806e-60
1.9338385e-59
3.2379624e-58
2.5722417e-57
6.1431026e-57
7.8801836e-57
4.4012702e-55
4.7664621e-53
4.8101308e-51
4.4481506e-49
3.7889859e-47
2.9935331e-45
2.2077795e-43
1.5302002e-41
1.0034335e-39
6.2606171e-38
3.7451178e-36
2.2193015e-34
1.3937929e-32
8.3698476e-31
4.7240421e-29
2.4290108e-27
4.5907464e-26
1.8404235e-25
2.2027413e-25
5.1764986e-26
2.5330987e-28
5.1418236e-29
8.4722016e-29
3.0317966e-28
1.2163509e-27
8.2816246e-27
5.6683501e-26
3.2707328e-25
1.4930478e-24
4.8809844e-24
1.108507e-23
1.9803212e-23
3.6186567e-23
3.6772415e-23
2.377249e-23
1.2252547e-23
5.276013e-24
1.5978827e-24
3.0752903e-25
3.8230357e-26
3.3267595e-27
2.1274283e-28
6.4686106e-30
3.9321881e-30
1.1475153e-28
8.9067756e-27
2.7377575e-26
1.1415216e-26
7.0417481e-28
4.7495779e-30
2.0313346e-33
3.6300564e-34
3.1047384e-35
4.4618948e-37
6.0898643e-39
8.9039151e-41
1.2485103e-42
1.6387793e-44
2.0037235e-46
2.2650384e-48
2.3535558e-50
2.3207962e-52
2.4775915e-54
4.3866463e-55
1.1095694e-54
5.0284698e-55
5.9865458e-56
2.5649689e-56
8.6682935e-57
1.8540632e-57
4.5467378e-58
4.4614974e-59
1.945003e-60
4.1216596e-62
3.882066e-64
3.687637e-66
4.6252593e-68
3.3011494e-70
2.0122488e-72
1.2836953e-74
8.0338105e-77
4.2893777e-79
4.2508952e-81
3.7114399e-79
3.0218707e-77
4.0514809e-75
4.4459453e-73
4.194132e-71
3.4684356e-69
2.5931558e-67
1.6368777e-65
6.5801583e-64
2.0521347e-62
3.7362842e-60
2.5536375e-58
5.4072734e-57
7.8120568e-56
4.5771744e-55
1.0460754e-54
1.4253758e-54
9.1315761e-53
1.055597e-50
1.1112461e-48
1.0562322e-46
9.1433479e-45
7.2718396e-43
5.3553277e-41
3.6793921e-39
2.3760742e-37
1.4513347e-35
8.4497366e-34
4.8305076e-32
2.8996848e-30
1.7039647e-28
9.6420708e-27
4.7489558e-25
7.9612629e-24
2.8573298e-23
3.2186292e-23
8.2853956e-24
2.4743036e-26
6.1982119e-27
8.8970054e-27
2.4036294e-26
6.111682e-26
3.0794275e-25
1.9536262e-24
1.0586345e-23
4.657065e-23
1.5247639e-22
3.544182e-22
6.3264712e-22
1.1506521e-21
1.1683619e-21
7.6573294e-22
3.9265111e-22
1.6541352e-22
4.9460819e-23
9.7237165e-24
1.2903998e-24
1.2381136e-25
8.8426471e-27
3.0003261e-28
1.3668824e-28
1.7166017e-26
1.6765332e-24
5.4115321e-24
2.4378073e-24
1.7373294e-25
1.505202e-27
1.4689369e-30
2.0436715e-31
8.4801348e-33
1.3079379e-34
1.9476187e-36
2.9166841e-38
4.1355631e-40
5.4494657e-42
6.6211683e-44
7.3464407e-46
7.3741353e-48
6.7852399e-50
6.3637562e-52
7.4477273e-53
1.8867031e-52
8.2433952e-53
1.0261499e-53
4.8553668e-54
1.7158335e-54
3.7496823e-55
9.826573e-56
9.6669892e-57
4.0931498e-58
8.4771022e-60
8.0863107e-62
1.0958772e-63
9.1763856e-66
5.3505659e-68
2.9596895e-70
1.747731e-72
1.0334353e-74
5.3058734e-77
4.960169e-79
4.0123431e-77
3.3981689e-75
4.6522026e-73
5.2432219e-71
5.1235316e-69
4.4351796e-67
3.5319388e-65
2.6663058e-63
1.3929106e-61
3.3962226e-60
5.4045749e-58
5.1933181e-56
1.2369772e-54
1.447339e-53
7.1674436e-53
1.5847974e-52
2.1102606e-52
1.5247729e-50
1.9599161e-48
2.204665e-46
2.1854019e-44
1.9402422e-42
1.5622231e-40
1.1529388e-38
7.86637e-37
5.0045376e-35
2.9907346e-33
1.6917512e-31
9.2997275e-30
5.3126881e-28
3.0551183e-26
1.7313025e-24
8.0740019e-23
1.2020762e-21
3.8996155e-21
4.1583202e-21
1.1500399e-21
1.9895939e-24
6.4259855e-25
8.3103376e-25
1.8832278e-24
3.1723062e-24
9.967258e-24
5.5693453e-23
2.8690731e-22
1.243864e-21
4.2605752e-21
1.1005811e-20
2.2043579e-20
3.8592408e-20
3.8526564e-20
2.6221846e-20
1.2790156e-20
4.8289741e-21
1.337901e-21
2.614657e-22
3.6565302e-23
3.8372744e-24
3.0557613e-25
1.206396e-26
1.6624617e-26
2.2736514e-24
2.8322558e-22
9.4156481e-22
4.543492e-22
3.7320413e-23
4.0989408e-25
7.4101139e-28
7.53898e-29
2.1762017e-30
3.532925e-32
5.5975626e-34
8.5903988e-36
1.2302449e-37
1.621305e-39
1.9448591e-41
2.0949739e-43
1.9937924e-45
1.6646164e-47
1.3140804e-49
1.1500664e-50
2.8973703e-50
1.1993587e-50
1.5810825e-51
8.8214854e-52
3.4063503e-52
7.1686837e-53
1.8945969e-53
1.8337827e-54
7.6912874e-56
1.4041973e-57
1.8861135e-59
2.1229769e-61
1.4263632e-63
7.4990233e-66
3.8363924e-68
2.1114842e-70
1.1848179e-72
5.8629408e-75
5.1973197e-77
3.9357676e-75
3.4550822e-73
4.818018e-71
5.5563626e-69
5.5927663e-67
5.034047e-65
4.1716659e-63
3.2604408e-61
2.3755009e-59
1.2958273e-57
7.7551727e-56
9.9475444e-54
2.4470029e-52
2.2358926e-51
1.0096253e-50
2.1355004e-50
2.2332521e-50
1.8011156e-48
2.8797687e-46
3.6456946e-44
3.8691085e-42
3.5759531e-40
2.9416467e-38
2.1872799e-36
1.4869676e-34
9.3354782e-33
5.4608621e-31
2.9988498e-29
1.5806332e-27
8.556372e-26
4.8184244e-24
2.727825e-22
1.1815593e-20
1.5693288e-19
4.7981027e-19
5.3147638e-19
1.6394275e-19
1.2535863e-22
5.945186e-23
6.8875299e-23
1.3921685e-22
1.7297622e-22
3.1355897e-22
1.3402249e-21
6.5184664e-21
2.8162602e-20
9.9058794e-20
2.7213317e-19
6.5157161e-19
1.1186505e-18
1.1108996e-18
7.5325989e-19
3.5605591e-19
1.2545851e-19
3.2630473e-20
6.1646754e-21
8.7527587e-22
9.9695711e-23
8.9691192e-24
5.311794e-25
1.4566999e-24
2.6740302e-22
4.6059324e-20
1.4531553e-19
7.4173818e-20
6.9589872e-21
9.6446185e-23
2.5629178e-25
2.1166811e-26
5.1414373e-28
8.8160145e-30
1.4568084e-31
2.2843378e-33
3.3010101e-35
4.3295853e-37
5.0781187e-39
5.2154191e-41
4.5418567e-43
3.1774591e-45
1.7495497e-47
1.6042808e-48
4.0175877e-48
1.5784536e-48
2.2140682e-49
1.4457952e-49
5.8002156e-50
1.2958816e-50
3.2083722e-51
3.1270496e-52
1.3153339e-53
2.3370348e-55
3.6382738e-57
3.1967452e-59
1.8981336e-61
9.3227803e-64
4.4556442e-66
2.2959442e-68
1.2253394e-70
5.8518564e-73
4.9341201e-75
3.5291848e-73
3.2024104e-71
4.5416264e-69
5.3467737e-67
5.521766e-65
5.1343409e-63
4.4329981e-61
3.658228e-59
3.1349398e-57
2.5402053e-55
1.6864607e-53
1.7846427e-51
4.0445868e-50
2.9799194e-49
1.2491533e-48
2.5306695e-48
1.0336665e-48
1.6171076e-46
3.014775e-44
4.7287874e-42
5.6852634e-40
5.6173229e-38
4.7905521e-36
3.619074e-34
2.4639453e-32
1.5310161e-30
8.7788213e-29
4.6807084e-27
2.3613436e-25
1.2064014e-23
6.6617532e-22
3.7710592e-20
1.4818348e-18
1.7448767e-17
5.3486123e-17
8.0152937e-17
2.6002302e-17
5.9451166e-21
8.5850535e-21
5.0535482e-21
9.1939261e-21
9.7958764e-21
1.112297e-20
2.9318186e-20
1.204642e-19
4.7572287e-19
1.5578103e-18
4.0351196e-18
1.0315363e-17
1.871988e-17
1.9424629e-17
1.2174682e-17
5.8024937e-18
2.1558019e-18
5.8493869e-19
1.1245105e-19
1.7003025e-20
2.2400039e-21
2.4237693e-22
4.1434655e-23
8.4100524e-23
2.8056455e-20
6.911193e-18
2.0122541e-17
1.0571472e-17
1.1125853e-18
1.9390554e-20
1.0829205e-22
4.8597178e-24
1.0841095e-25
1.9755954e-27
3.3971037e-29
5.4302219e-31
7.8790325e-33
1.0193085e-34
1.1495193e-36
1.0876345e-38
7.9530582e-41
4.7517749e-43
2.8170522e-45
1.6847311e-46
5.0026278e-46
1.9047661e-46
2.828715e-47
2.0226574e-47
8.1138368e-48
1.9097524e-48
4.6020841e-49
4.813485e-50
2.0459374e-51
4.2520457e-53
5.3000072e-55
4.0382954e-57
2.2466427e-59
1.0436266e-61
4.6951631e-64
2.2741935e-66
1.1548023e-68
5.3241099e-71
4.276165e-73
2.9116192e-71
2.7240361e-69
3.9262573e-67
4.7112906e-65
4.978803e-63
4.7654402e-61
4.2715399e-59
3.6886704e-57
3.3778819e-55
3.9288901e-53
4.8849389e-51
2.9664519e-49
5.4130362e-48
3.4756991e-47
1.3887034e-46
2.8468448e-46
1.48248e-46
1.9974438e-44
2.5850142e-42
4.4649163e-40
6.6127537e-38
7.3901157e-36
6.7039509e-34
5.2173109e-32
3.5855344e-30
2.2154683e-28
1.2481998e-26
6.4698559e-25
3.1286161e-23
1.4986734e-21
7.9755467e-20
4.6378595e-18
1.7535816e-16
1.7502363e-15
3.7733448e-15
3.0138152e-15
8.5875644e-16
2.9069527e-19
8.5193926e-19
3.4618509e-19
5.7589392e-19
5.76655e-19
4.6722053e-19
6.9027021e-19
1.9662559e-18
6.1019607e-18
1.8063402e-17
4.4364368e-17
9.1605904e-17
1.6586419e-16
1.7825365e-16
1.1330046e-16
5.6839867e-17
2.2399682e-17
6.5873475e-18
1.4494934e-18
2.7397261e-19
4.5526661e-20
7.315627e-21
2.8055966e-21
3.8244993e-21
2.6032814e-18
4.3705774e-16
2.0323802e-15
1.217052e-15
1.5218249e-16
3.4203419e-18
3.0953887e-20
9.1278683e-22
2.0187035e-23
3.893542e-25
6.9260509e-27
1.1219366e-28
1.6203782e-30
2.0366825e-32
2.1433364e-34
1.7339647e-36
1.1392375e-38
6.9096049e-41
4.4467921e-43
6.9785807e-45
5.6467842e-44
2.1350724e-44
3.3074261e-45
2.4774515e-45
9.6824578e-46
2.3343799e-46
5.5879461e-47
6.6364439e-48
2.9120075e-49
5.9682903e-51
6.4127186e-53
4.5271142e-55
2.3982555e-57
1.0645732e-59
4.5390979e-62
2.0722885e-64
1.0006327e-66
4.4517655e-69
3.4048692e-71
2.2225989e-69
2.1407514e-67
3.1285599e-65
3.8243735e-63
4.1284004e-61
4.0579247e-59
3.7665612e-57
3.4150326e-55
3.3580559e-53
4.6698395e-51
7.9606932e-49
4.4732046e-47
6.2218038e-46
3.6040265e-45
1.3641729e-44
2.8549759e-44
2.0639809e-44
2.733989e-42
3.0944481e-40
3.621718e-38
5.5422284e-36
7.5135197e-34
7.6204454e-32
6.2491603e-30
4.3870547e-28
2.7142315e-26
1.5084618e-24
7.6180582e-23
3.5325671e-21
1.5818797e-19
8.1813389e-18
4.9689108e-16
1.5771478e-14
1.0485699e-13
1.37702e-13
1.2948977e-14
2.6029155e-15
1.3041007e-17
1.2557339e-17
2.1777847e-17
3.9513432e-17
3.9427617e-17
2.6115542e-17
2.3324615e-17
4.2912172e-17
9.4018219e-17
2.9948352e-16
8.0741075e-16
7.9361967e-16
1.0078202e-15
9.9851001e-16
9.0105582e-16
5.263993e-16
2.0079051e-16
6.0307002e-17
1.7082861e-17
4.6464454e-18
9.0583059e-19
3.3721937e-19
7.9335466e-20
9.0205681e-20
2.1386389e-16
1.5410511e-14
9.8025911e-14
8.8417216e-14
1.701896e-14
5.4737879e-16
6.5204853e-18
1.4641046e-19
3.3187121e-21
6.7456362e-23
1.232786e-24
2.0091488e-26
2.8532233e-28
3.4010863e-30
3.1439902e-32
2.2645427e-34
1.4206129e-36
1.0765582e-38
1.0253242e-40
8.8461123e-43
5.860934e-42
2.2297362e-42
3.5414686e-43
2.6897826e-43
1.009738e-43
2.4731019e-44
5.9001516e-45
7.7574259e-46
3.6709678e-47
6.8867976e-49
6.8200317e-51
4.5830897e-53
2.3390019e-55
9.995952e-58
4.0637124e-60
1.7519295e-62
8.0324421e-65
3.4430437e-67
2.5049208e-69
1.5775473e-67
1.5630414e-65
2.3122927e-63
2.8724076e-61
3.1661131e-59
3.189883e-57
3.0606362e-55
2.9142926e-53
3.0767607e-51
4.7133248e-49
9.3789848e-47
5.2144583e-45
6.2653682e-44
3.3844761e-43
1.2174337e-42
2.6042708e-42
2.4151247e-42
2.7935805e-40
3.6134651e-38
3.7700635e-36
4.0147967e-34
5.3884678e-32
6.4427556e-30
5.7975446e-28
4.2322464e-26
2.6466647e-24
1.4585203e-22
7.1938118e-21
3.2061032e-19
1.3522804e-17
6.500662e-16
3.6169668e-14
9.6757014e-13
7.2126877e-12
9.8151518e-12
1.077636e-12
2.189e-13
6.7398424e-17
4.5776578e-17
9.3476856e-16
2.169111e-15
2.1875668e-15
1.4254618e-15
1.0506031e-15
1.6100808e-15
2.6989761e-15
7.228164e-15
1.6419843e-14
9.7832273e-15
6.2079213e-15
5.2119031e-15
8.7094585e-15
6.1925723e-15
2.4373623e-15
7.6978158e-16
3.0056699e-16
1.0538596e-16
1.9925038e-17
1.3733894e-17
7.8712497e-19
1.0777511e-18
1.5657565e-14
1.3748067e-12
6.8302826e-12
7.4070146e-12
1.5614035e-12
6.3723243e-14
9.618763e-16
1.9578874e-17
4.5647656e-19
9.687344e-21
1.808327e-22
2.9378881e-24
4.026011e-26
4.3425629e-28
3.5028499e-30
2.4056972e-32
2.0890499e-34
2.2444547e-36
2.1569874e-38
1.7979801e-40
5.6446837e-40
2.1660248e-40
3.5147585e-41
2.600701e-41
9.3388874e-42
2.32465e-42
5.5248388e-43
7.7873664e-44
3.8659333e-45
6.9510875e-47
6.5449555e-49
4.2436049e-51
2.1044332e-53
8.7183823e-56
3.3960252e-58
1.3843954e-60
6.0158981e-63
2.4781059e-65
1.7114889e-67
1.0456738e-65
1.0654e-63
1.5937061e-61
2.007113e-59
2.2520247e-57
2.3236256e-55
2.302262e-53
2.3002035e-51
2.6107215e-49
4.2257164e-47
9.0397784e-45
5.1413677e-43
5.6305667e-42
2.8950949e-41
1.0071921e-40
2.1984978e-40
2.2990852e-40
1.3934471e-38
2.3259395e-36
3.1480544e-34
3.3849197e-32
3.2390726e-30
3.7011942e-28
3.7678544e-26
2.943679e-24
1.8818688e-22
1.0327124e-20
4.9900578e-19
2.1521883e-17
8.2828939e-16
2.9110733e-14
1.2451021e-12
6.8419101e-11
4.7823124e-10
6.5478816e-10
9.7990425e-11
1.7928578e-11
7.0171872e-16
1.7203095e-16
1.8317226e-14
3.775648e-14
3.5257001e-14
2.0161334e-14
2.4059485e-14
3.1048975e-14
4.102595e-14
6.5428407e-14
1.1059642e-13
7.0100773e-14
4.0286671e-14
3.8521643e-14
7.1890163e-14
5.814565e-14
2.739407e-14
1.1252753e-14
5.8312487e-15
2.1913019e-15
4.6024485e-16
2.3534404e-16
2.8067896e-18
4.3482025e-18
9.7563659e-13
1.0604971e-10
4.0299557e-10
5.5511174e-10
1.281866e-10
4.1402328e-12
6.4592403e-14
1.8450574e-15
4.763928e-17
1.0392589e-18
1.9577084e-20
3.1229972e-22
3.985706e-24
3.7062126e-26
2.9955533e-28
2.9699222e-30
3.6028681e-32
3.8986876e-34
3.5144068e-36
2.9934417e-38
5.0539956e-38
1.9624545e-38
3.3836569e-39
2.2330114e-39
7.7656661e-40
1.965618e-40
4.6513582e-41
6.9365169e-42
3.5806541e-43
6.3157711e-45
5.7476385e-47
3.6305605e-49
1.7619166e-51
7.1134617e-54
2.666035e-56
1.0293207e-58
4.2306429e-61
1.6699186e-63
1.0910259e-65
6.4982463e-64
6.8135754e-62
1.0292534e-59
1.3121913e-57
1.4946952e-55
1.5725484e-53
1.6029599e-51
1.679741e-49
2.0535885e-47
3.4623675e-45
7.5293848e-43
4.4610144e-41
4.5737287e-40
2.2651814e-39
7.7965296e-39
1.7283726e-38
1.6427108e-38
3.8698454e-37
7.3644306e-35
1.2027939e-32
1.5171494e-30
1.5936607e-28
1.566151e-26
1.5389434e-24
1.2838839e-22
8.4884989e-21
4.6726625e-19
2.4627954e-17
1.3103827e-15
2.5614642e-14
1.0412796e-13
2.9483342e-12
2.0261756e-09
2.5813621e-08
3.5133525e-08
7.3437424e-09
1.3890033e-09
4.4227787e-14
3.5609216e-15
1.8634371e-13
1.7666987e-13
1.3080333e-13
4.3467053e-14
1.6218823e-13
1.6526425e-13
1.6402841e-13
1.7170144e-13
2.788455e-13
2.4257533e-13
2.1280966e-13
2.3008914e-13
3.3285937e-13
3.1847472e-13
1.8442933e-13
1.0251253e-13
6.3259024e-14
2.7337489e-14
8.3609173e-15
2.2731496e-15
1.5926263e-17
3.7664958e-17
5.9372489e-11
4.124367e-08
3.8518819e-08
3.4428676e-08
9.3099534e-09
3.0279898e-11
3.371482e-13
4.1983032e-14
3.4995633e-15
8.4157529e-17
1.2612784e-18
1.8355754e-20
2.1220042e-22
2.2057088e-24
2.6330433e-26
3.2001537e-28
3.3509464e-30
2.9813431e-32
2.2212251e-34
3.4611541e-36
4.2245795e-36
1.664096e-36
3.2506403e-37
1.7157712e-37
5.9120421e-38
1.5098704e-38
3.5600108e-39
5.5728661e-40
2.9896104e-41
5.2457861e-43
4.6680857e-45
2.8947776e-47
1.3816283e-49
5.4614789e-52
1.977721e-54
7.2477217e-57
2.8113414e-59
1.0595084e-61
6.5170459e-64
3.7999738e-62
4.1021956e-60
6.252532e-58
8.0611871e-56
9.3092044e-54
9.9625937e-52
1.0402831e-49
1.1345244e-47
1.4837202e-45
2.6329194e-43
5.6127982e-41
3.4847557e-39
3.3869234e-38
1.6235056e-37
5.583875e-37
1.2353751e-36
7.5702258e-37
8.5713351e-36
1.4994654e-33
2.7932708e-31
4.1512501e-29
4.655686e-27
4.4787057e-25
4.2911758e-23
3.7050581e-21
2.589493e-19
1.6617827e-17
9.5495462e-16
1.8274156e-14
8.014588e-14
2.1675261e-12
7.1497007e-11
2.1279536e-09
8.7589021e-07
1.374472e-05
2.304715e-05
6.5092545e-06
2.0306003e-12
3.3703634e-14
4.6730531e-12
4.4567019e-12
3.6200498e-12
1.1515073e-12
3.21522e-13
2.5089929e-13
1.7263659e-13
1.7414351e-13
4.4311771e-13
6.7591112e-13
1.1845536e-12
1.702749e-12
1.4916449e-12
1.0374191e-12
7.6521067e-13
6.1930662e-13
3.6135016e-13
2.0423848e-13
1.1572811e-13
2.9371832e-14
3.7961718e-17
6.8581268e-17
2.1969173e-06
1.2434524e-05
1.2303898e-05
4.9422215e-06
1.3448468e-07
4.2570645e-10
1.4408153e-11
5.3664454e-13
3.0684012e-14
2.5535201e-15
5.7351022e-17
6.5715312e-19
7.923827e-21
8.4509272e-23
1.0679641e-24
1.271378e-26
1.2935889e-28
1.0962545e-30
7.6534695e-33
2.201574e-34
3.2458227e-34
1.2786515e-34
2.6970348e-35
1.2123238e-35
4.1469305e-36
1.0595044e-36
2.4974305e-37
4.0863611e-38
2.2792954e-39
4.0284198e-41
3.5357499e-43
2.1651084e-45
1.0210812e-47
3.9685197e-50
1.3940108e-52
4.861628e-55
1.7762742e-57
6.3664339e-60
3.6634252e-62
2.0984105e-60
2.3346417e-58
3.5871795e-56
4.6713873e-54
5.4614998e-52
5.9381085e-50
6.3391721e-48
7.1793258e-46
9.9647391e-44
1.8726943e-41
3.9693274e-39
2.485598e-37
2.3041213e-36
1.0664624e-35
3.5785922e-35
8.3446003e-35
1.1057142e-34
2.4407751e-34
2.5224113e-32
4.2170769e-30
7.1592725e-28
9.3993893e-26
9.3028395e-24
8.1958303e-22
7.3508664e-20
6.1049887e-18
4.2034928e-16
9.800998e-15
5.9222938e-14
1.8224966e-12
6.1491785e-11
1.8475501e-09
3.9211137e-07
2.6453246e-05
7.6109642e-05
7.6125312e-05
6.4261928e-05
7.2187347e-06
2.0414096e-12
7.3865215e-11
1.0826991e-10
1.1004231e-10
6.8751187e-11
1.3026049e-11
1.2803326e-11
1.0726178e-12
3.1444261e-13
6.485365e-13
5.0297125e-12
4.6776378e-11
5.7544762e-11
4.1389924e-11
1.7096916e-11
8.3980265e-12
5.9174145e-12
1.4887986e-12
1.0778687e-12
1.5118314e-12
6.877622e-13
4.2510345e-16
-6.014555e-14
2.0071329e-05
2.2176224e-05
2.2180171e-05
2.2173538e-05
6.3666397e-06
8.5938377e-09
4.6420398e-10
1.5535454e-11
4.8847736e-13
1.5782265e-14
9.3429219e-16
1.5845547e-17
1.6780041e-19
2.0520477e-21
2.8004271e-23
3.301081e-25
3.2372105e-27
2.5801371e-29
1.6779825e-31
8.4544383e-33
2.2965828e-32
8.8588335e-33
1.9741091e-33
7.8413625e-34
2.669266e-34
6.828876e-35
1.6157836e-35
2.7600796e-36
1.6051043e-37
2.8868416e-39
2.5166012e-41
1.5291105e-43
7.1517399e-46
2.7421805e-48
9.3856477e-51
3.1244494e-53
1.074201e-55
3.6439793e-58
1.9465208e-60
1.0978363e-58
1.260775e-56
1.9509141e-54
2.5637314e-52
3.029851e-50
3.342762e-48
3.6455839e-46
4.2854493e-44
6.3006217e-42
1.2490565e-39
2.6844325e-37
1.641112e-35
1.4463732e-34
6.4666146e-34
2.1369475e-33
5.1593443e-33
1.0037409e-32
1.1144442e-32
2.1303584e-31
3.4434444e-29
5.9456212e-27
9.3541713e-25
1.0730288e-22
1.2053307e-20
1.1783184e-18
9.1761999e-17
4.2355043e-15
6.5534964e-14
4.5883439e-13
1.4562619e-11
4.7055303e-10
1.3242434e-08
7.9089084e-06
7.5449684e-05
7.6125356e-05
7.6113343e-05
7.6097391e-05
3.9738575e-05
1.0955711e-10
1.4884493e-09
4.3429817e-09
4.6412151e-09
3.9835993e-09
1.0416157e-08
2.0860195e-08
1.1669182e-08
5.3476938e-12
2.8270114e-12
2.3947871e-10
2.178061e-09
1.8015223e-09
1.1748167e-09
3.6246401e-10
2.2969607e-10
1.9830184e-10
4.0254346e-11
4.7586114e-11
6.6804665e-11
2.9235052e-11
8.3245432e-15
1.0483499e-05
2.2071938e-05
2.2153189e-05
2.217311e-05
2.2180171e-05
2.1852726e-05
3.4608552e-06
6.4206223e-09
2.2476366e-10
6.8265116e-12
1.9861917e-13
1.363615e-14
4.0641533e-16
4.4873338e-18
3.9515658e-20
4.2514431e-22
4.8387983e-24
4.5329515e-26
3.3233956e-28
2.6224345e-30
7.7700149e-31
1.490042e-30
5.5171592e-31
1.2892316e-31
4.6541937e-32
1.5812176e-32
4.0608566e-33
9.6982075e-34
1.7299299e-34
1.0534917e-35
1.9468943e-37
1.6946372e-39
1.0252372e-41
4.7718044e-44
1.8110723e-46
6.0647255e-49
1.933991e-51
6.254464e-54
1.9990231e-56
9.8233914e-59
5.4592929e-57
6.484095e-55
1.0095421e-52
1.337038e-50
1.595325e-48
1.7833388e-46
1.9871256e-44
2.4269047e-42
3.7762935e-40
7.8446245e-38
1.7022056e-35