/*--------------------------------*- C++ -*----------------------------------*\
  =========                 |
  \\      /  F ield         | OpenFOAM: The Open Source CFD Toolbox
   \\    /   O peration     | Website:  https://openfoam.org
    \\  /    A nd           | Version:  9
     \\/     M anipulation  |
\*---------------------------------------------------------------------------*/
FoamFile
{
    format      ascii;
    class       volScalarField;
    location    "0.4";
    object      p;
}
// * * * * * * * * * * * * * * * * * * * * * * * * * * * * * * * * * * * * * //

dimensions      [1 -1 -2 0 0 0 0];

internalField   nonuniform List<scalar> 
10000
(
0
0.011175386
0.019596178
0.032455709
0.047626775
0.064947134
0.084266502
0.10546389
0.12831845
0.15259975
0.17811602
0.20458264
0.23181483
0.25956404
0.28750384
0.315381
0.3429022
0.36975195
0.39567695
0.42038544
0.44353706
0.46488207
0.48422822
0.50135293
0.51606895
0.52826627
0.53773751
0.54454405
0.5488021
0.55065371
0.54907364
0.54498264
0.53857776
0.53002543
0.51953269
0.50734935
0.49366617
0.47867515
0.46263744
0.44575209
0.42817472
0.41005317
0.39151691
0.37273638
0.35390485
0.33521754
0.31691859
0.29927486
0.28254294
0.26701738
0.25297684
0.24087993
0.23118083
0.22437176
0.22092185
0.22120915
0.22557928
0.23423585
0.24724845
0.26454661
0.28593546
0.31106977
0.33950036
0.37060162
0.40369996
0.43790247
0.47218984
0.50713715
0.54799497
0.58740759
0.62434553
0.65867818
0.68957944
0.71716218
0.74140394
0.76220254
0.77952082
0.79333447
0.8037344
0.81083908
0.81481065
0.81586759
0.81422502
0.8100899
0.80372998
0.79540097
0.78533985
0.77379113
0.76098655
0.74713644
0.73242252
0.71700993
0.70103895
0.68460262
0.66780756
0.65071862
0.63337808
0.61593937
0.6001424
0.57775539
-0.013541087
-0.001775545
0.0069768879
0.020040517
0.035440849
0.052983763
0.072593232
0.094078867
0.11722607
0.14188374
0.16776616
0.19470193
0.2224817
0.25078117
0.27935827
0.30793912
0.33619993
0.36388539
0.39070708
0.41630714
0.44039849
0.46273876
0.48307522
0.50117244
0.51683857
0.52991313
0.54026842
0.54787553
0.55272206
0.55482201
0.55382595
0.55012571
0.54399177
0.53564304
0.52527968
0.51317739
0.49960362
0.48478994
0.46893576
0.45226008
0.43498833
0.41727161
0.39921847
0.38095343
0.36263652
0.34444205
0.32659457
0.3093325
0.29288743
0.27759042
0.26368497
0.25168618
0.24203496
0.23520856
0.23169708
0.23189454
0.23616139
0.24470688
0.25763433
0.27487233
0.29624783
0.32140828
0.34986338
0.38101397
0.41426287
0.44905505
0.48506785
0.52334117
0.55894918
0.59475857
0.62949428
0.66196102
0.69152509
0.71789748
0.74092306
0.76051077
0.77659666
0.7892046
0.79844485
0.80445499
0.80742061
0.80753265
0.80502126
0.8001382
0.79312507
0.78421895
0.77368439
0.76175438
0.74865426
0.73458143
0.71971807
0.70423837
0.68824963
0.67184993
0.65512077
0.63813103
0.62089932
0.60351478
0.58777355
0.5652757
-0.024038651
-0.011833696
-0.0027768872
0.010683726
0.026461714
0.044446136
0.0644977
0.086432071
0.11013492
0.13533335
0.16184357
0.18949177
0.21797918
0.2470661
0.27650089
0.30595526
0.3351523
0.36381311
0.39158314
0.41813563
0.44318408
0.46644197
0.48761988
0.50647694
0.52278515
0.5363486
0.54703973
0.55478874
0.55952261
0.56112553
0.55983422
0.55571694
0.54902477
0.54000144
0.52891989
0.51606687
0.50174166
0.48622122
0.46975781
0.45257158
0.43483006
0.41668975
0.39828914
0.37973049
0.36115021
0.34269603
0.3245283
0.30687079
0.28998846
0.2742328
0.25985697
0.24740887
0.23740221
0.23035572
0.22677046
0.22703231
0.23155067
0.24057996
0.25422149
0.27233981
0.29476662
0.32112041
0.35091416
0.38353413
0.41830553
0.45465482
0.49210232
0.53018678
0.56750227
0.6035616
0.63798321
0.6700014
0.69910527
0.72494493
0.74729838
0.76611043
0.78135524
0.79304303
0.80130224
0.80629666
0.80823539
0.80734255
0.8038837
0.79808302
0.7902253
0.7805589
0.76934099
0.75681388
0.74321827
0.72874769
0.71355845
0.69785609
0.6817355
0.66526099
0.64851053
0.63151095
0.6142382
0.59680143
0.58100271
0.55819214
-0.038950412
-0.026387779
-0.016982553
-0.0031096468
0.013177961
0.031690217
0.052281636
0.074858539
0.099210732
0.12514978
0.15251844
0.18105055
0.21051759
0.24067917
0.27122807
0.30188317
0.3323678
0.36232889
0.39141304
0.41931518
0.44570237
0.47022975
0.49259962
0.5125475
0.52981125
0.54417354
0.55547947
0.56361809
0.56852291
0.57025851
0.56878602
0.56430606
0.5570494
0.54731241
0.53541065
0.52168457
0.5064894
0.49015671
0.47299254
0.45524738
0.4370649
0.41855906
0.39985852
0.38104319
0.36218494
0.34335986
0.32469793
0.30641865
0.28876999
0.27216616
0.25688446
0.24352654
0.2326556
0.22480484
0.22057654
0.22045842
0.22488874
0.23415935
0.24838986
0.26745901
0.29118504
0.31910948
0.35065782
0.38515184
0.42185964
0.46006827
0.4990375
0.53802572
0.57600142
0.61278296
0.6474695
0.67946903
0.70830584
0.73364394
0.75533975
0.77329343
0.78750897
0.79807349
0.80511571
0.80884727
0.80951339
0.80733925
0.80262461
0.79565618
0.78670564
0.77603874
0.76392893
0.75061895
0.73635527
0.72134694
0.70575127
0.68972098
0.67338015
0.65680183
0.64002328
0.62303532
0.6057606
0.58825972
0.57231764
0.54888619
-0.057056855
-0.043963629
-0.034164068
-0.019729572
-0.0028380062
0.016287614
0.037601685
0.060922277
0.086095125
0.11299604
0.14138012
0.17102672
0.20173259
0.23321734
0.26519339
0.29738422
0.32945336
0.36104794
0.39184356
0.42147933
0.4495615
0.47573122
0.49966378
0.52104002
0.53956505
0.5549905
0.56711609
0.57578824
0.58093532
0.58257157
0.58071358
0.57554855
0.56738225
0.55654281
0.54337448
0.52831054
0.51180411
0.49426226
0.47603026
0.45736808
0.438443
0.41935528
0.40017157
0.38090082
0.36153741
0.3420983
0.32266065
0.30341334
0.2845842
0.26671376
0.24996626
0.23508939
0.22275328
0.21359029
0.20830433
0.20749204
0.21168977
0.22123761
0.2363199
0.25677142
0.28237854
0.3126089
0.34678279
0.38408014
0.42355251
0.4644404
0.50580418
0.54678777
0.58652323
0.6243949
0.65976497
0.69206434
0.72082268
0.74575496
0.76672431
0.78370131
0.79675776
0.80597239
0.81153595
0.81372691
0.81279469
0.80903324
0.80280134
0.79435931
0.78403162
0.77213268
0.75890296
0.74461005
0.72951398
0.7138329
0.69772227
0.68129986
0.66469284
0.64798207
0.63117879
0.61427142
0.59712336
0.57972785
0.56373666
0.53870194
-0.078176779
-0.064386108
-0.053978105
-0.03886116
-0.021283195
-0.0013752579
0.020736434
0.044941251
0.071144488
0.099141654
0.12873366
0.15974432
0.19192308
0.22500694
0.25872714
0.29275781
0.32674291
0.36035828
0.39324533
0.42497459
0.45512391
0.48330561
0.50914044
0.53225814
0.55231664
0.56900781
0.58207042
0.59131926
0.59666226
0.59808092
0.59562669
0.58948811
0.5800332
0.56761729
0.55266497
0.53576527
0.51747985
0.49830547
0.4786496
0.4588011
0.43894146
0.41913228
0.39935679
0.37953337
0.35955357
0.33933958
0.31888492
0.29832461
0.27787966
0.25828976
0.2394508
0.22239079
0.2079058
0.19678405
0.18988419
0.18795998
0.19168266
0.20145426
0.21755114
0.2398125
0.2679376
0.30127327
0.33892778
0.37994872
0.42325293
0.46774678
0.5124233
0.5562873
0.59850833
0.63824982
0.67486127
0.70788943
0.73687429
0.76156049
0.78186648
0.7978123
0.80951614
0.81715562
0.82097824
0.82130083
0.81846787
0.81281471
0.80473393
0.79451792
0.78254926
0.76914113
0.75456131
0.73910762
0.72301309
0.70651202
0.68975779
0.67286723
0.65595953
0.63908425
0.62226928
0.60552875
0.58871643
0.57189337
0.55694639
0.52770039
-0.10272152
-0.087826934
-0.07659401
-0.060673735
-0.042247639
-0.021511558
0.0015016071
0.026750071
0.054078283
0.083319132
0.11433195
0.14690535
0.18079964
0.21577326
0.25152155
0.28769874
0.32398271
0.36001801
0.39537258
0.42958193
0.46220139
0.49279348
0.52091249
0.5461295
0.56803573
0.58623814
0.60043222
0.61038682
0.61594796
0.6170548
0.61379657
0.60638238
0.59517125
0.58060541
0.56329478
0.54396648
0.52331873
0.50199689
0.48051162
0.4592022
0.43824837
0.41765025
0.39727964
0.37691777
0.35629382
0.33520646
0.31355295
0.29137107
0.26880775
0.24687804
0.22518696
0.20515881
0.18770825
0.17382695
0.16460258
0.16100981
0.16392022
0.17382874
0.19111643
0.2157088
0.24708423
0.28442657
0.32673228
0.37265788
0.42092906
0.4702171
0.5192818
0.56699366
0.6124201
0.65469448
0.69311528
0.72719382
0.75659608
0.78112901
0.80073877
0.81553801
0.82572263
0.83154079
0.83332118
0.83144336
0.82633618
0.8184337
0.80814543
0.79582911
0.7819156
0.76671639
0.75055001
0.73372824
0.7164815
0.69902921
0.68152628
0.66410094
0.64686281
0.62983228
0.61305581
0.59655528
0.58020258
0.5642501
0.55019603
0.5196341
-0.13141968
-0.11445217
-0.10205252
-0.085155291
-0.065865041
-0.044237244
-0.020208529
0.0061323818
0.034684196
0.06533995
0.097932328
0.13226528
0.16813179
0.20525943
0.24332376
0.28201402
0.32099393
0.35983806
0.39806857
0.43520462
0.47075503
0.50421191
0.53506997
0.56281947
0.58695264
0.60700648
0.62259295
0.63340622
0.63921887
0.63990343
0.63561661
0.62651938
0.61298563
0.5955985
0.57520023
0.55268407
0.52895209
0.50487792
0.48113673
0.45812649
0.436
0.41466968
0.39384829
0.37310464
0.35195494
0.33001232
0.30702701
0.28293757
0.2578785
0.23246249
0.20721916
0.18324548
0.16176917
0.14411875
0.13165392
0.12561078
0.12718658
0.13713924
0.15583877
0.18326988
0.2188068
0.26134332
0.30958951
0.36192016
0.41656927
0.47199155
0.52667872
0.57931722
0.62882895
0.6743005
0.71501656
0.75051905
0.78051954
0.80488967
0.82371906
0.83719453
0.84554387
0.84917383
0.84853228
0.84407336
0.83627856
0.82571168
0.81281798
0.79805456
0.7818583
0.76458866
0.74660801
0.72821243
0.70964459
0.69110213
0.67276612
0.6547513
0.63714367
0.61999288
0.60329457
0.58704899
0.5711578
0.55586841
0.54155988
0.51556452
-0.16193003
-0.14366053
-0.13002652
-0.11226754
-0.092119922
-0.06955179
-0.044514627
-0.017035915
0.012852182
0.045033256
0.079348883
0.11564805
0.15370769
0.19323726
0.23395114
0.27553596
0.31759364
0.35965666
0.40122495
0.4417786
0.4807689
0.51761674
0.55173444
0.58251204
0.60933628
0.63164346
0.64893603
0.66080231
0.66694531
0.66718488
0.66151725
0.6502193
0.63370868
0.61271536
0.58826425
0.56154352
0.53381689
0.50627792
0.47982779
0.45494543
0.43171366
0.4098758
0.38892285
0.3681688
0.34682016
0.32419361
0.2998091
0.2734633
0.24523675
0.21572366
0.18575948
0.15657204
0.12972141
0.10691785
0.089942362
0.080477058
0.080040353
0.089725627
0.1100276
0.14094763
0.18171412
0.2309523
0.28682949
0.34731748
0.41016342
0.47328754
0.53498082
0.59374869
0.64828854
0.697661
0.7411791
0.77841436
0.80914908
0.83335157
0.85119997
0.86302204
0.86919827
0.87022422
0.86667878
0.85914144
0.84820226
0.83450395
0.81857706
0.80095561
0.78212223
0.76249405
0.74242825
0.72225751
0.70222475
0.68249964
0.663254
0.64462425
0.62665837
0.60937646
0.59277868
0.5768664
0.56150792
0.54696265
0.53289464
0.51122351
-0.19351571
-0.17482802
-0.16040168
-0.14194379
-0.12100375
-0.097581429
-0.071558175
-0.042888586
-0.011619009
0.022161998
0.05835053
0.096779829
0.13722222
0.17943519
0.22314342
0.26798177
0.31350559
0.35924335
0.40466934
0.44919568
0.4922034
0.5330421
0.57101372
0.60539299
0.63545275
0.66049493
0.67988281
0.69307166
0.69964339
0.69932717
0.69203608
0.67798755
0.65770088
0.63205566
0.60230241
0.57007609
0.53718053
0.50527403
0.47559147
0.44872792
0.42463487
0.40278341
0.38234989
0.362264
0.34129705
0.31836512
0.29267747
0.26380234
0.23172379
0.19710125
0.16104116
0.12505798
0.091067862
0.061327151
0.038186678
0.023919104
0.020510307
0.029451942
0.051498153
0.08668291
0.13405373
0.19183724
0.25755673
0.32840666
0.40156741
0.47439559
0.5447317
0.61085927
0.67147471
0.72554
0.77234536
0.8115594
0.84305423
0.86694257
0.88356335
0.89334833
0.89687852
0.89477395
0.88776778
0.87658295
0.8619597
0.84459194
0.82516987
0.80427067
0.78241485
0.76009252
0.73769763
0.71556602
0.69389071
0.67288128
0.65270862
0.63343395
0.61510094
0.59773578
0.58130935
0.5657867
0.55104109
0.53750255
0.52391264
0.5056472
-0.22790723
-0.2080024
-0.19316423
-0.17418937
-0.15264842
-0.1284743
-0.10148602
-0.071653186
-0.038989982
-0.0035292304
0.034630176
0.075315452
0.11835477
0.16354051
0.21055464
0.25899848
0.30842783
0.35834723
0.4081839
0.45728978
0.5049684
0.55047377
0.59298579
0.63164252
0.66557569
0.6939306
0.71590894
0.7307934
0.73799532
0.73709899
0.72787525
0.71046844
0.68544973
0.65380864
0.61713066
0.57765686
0.53798274
0.5005425
0.46704539
0.43817512
0.41369872
0.39272075
0.3739144
0.35561291
0.33602104
0.31350052
0.28678309
0.25511509
0.2184081
0.17737251
0.13355047
0.088681541
0.045273188
0.0062855779
-0.025224703
-0.046239207
-0.05399786
-0.046485836
-0.022564385
0.017850063
0.073605813
0.14230406
0.22059532
0.3046738
0.39075034
0.47555024
0.55645975
0.63151773
0.69930782
0.75879196
0.80936654
0.85075051
0.88297197
0.9063396
0.92134499
0.92857694
0.92882627
0.92294066
0.91180932
0.89631632
0.87734638
0.85573529
0.83226447
0.80758579
0.78232296
0.75699731
0.7320127
0.70768649
0.6842517
0.66190012
0.64076154
0.62086821
0.60224499
0.58486761
0.56865827
0.55356117
0.53946326
0.52719177
0.51434966
0.498715
-0.26647263
-0.24214659
-0.22816408
-0.20915867
-0.1872241
-0.16240213
-0.13454986
-0.10360984
-0.06953688
-0.032366332
0.0078126452
0.050897693
0.09675744
0.14516423
0.19577863
0.248207
0.30200857
0.35664529
0.41148772
0.4658314
0.51889325
0.56981568
0.61765275
0.66138559
0.69996712
0.73236135
0.75756853
0.77465253
0.78278847
0.78132682
0.76990055
0.74852228
0.71765128
0.67832753
0.63250746
0.58331412
0.53466482
0.49019367
0.45222823
0.42150878
0.39751218
0.37879676
0.36331103
0.3485953
0.33201467
0.31106561
0.28380141
0.24910454
0.20676412
0.15764062
0.10402209
0.047582612
-0.0082134612
-0.059558439
-0.10236411
-0.13262921
-0.14665789
-0.14161604
-0.1158153
-0.06901848
-0.0026617091
0.080066637
0.17454862
0.27545455
0.37776216
0.47732578
0.57098325
0.656602
0.73282058
0.7985154
0.85325492
0.89694523
0.92977505
0.95223304
0.96503226
0.96904205
0.965253
0.95478837
0.93872843
0.91815534
0.89409508
0.86755087
0.83940552
0.81045511
0.78137395
0.75269016
0.72485526
0.69816617
0.67286617
0.64913891
0.62705304
0.6066261
0.5878114
0.57052841
0.554645
0.54000614
0.52626405
0.51623914
0.50397417
0.49042827
-0.30349761
-0.28094135
-0.26614928
-0.24716976
-0.22495168
-0.19964341
-0.17104563
-0.13904677
-0.10360284
-0.064744851
-0.022484167
0.023141523
0.071995397
0.12383829
0.17835344
0.23516238
0.29380435
0.35370425
0.41419085
0.47449449
0.53372663
0.5909086
0.64496317
0.6947028
0.73887618
0.77621644
0.80545974
0.82539536
0.83491139
0.83304907
0.81919036
0.7931671
0.755198
0.70611725
0.64816112
0.58578178
0.52504204
0.47146461
0.42832219
0.39625941
0.37415206
0.35980428
0.35023672
0.34186923
0.33075635
0.3131596
0.28620472
0.24829565
0.19909276
0.13956421
0.073528878
0.0019586918
-0.07007733
-0.13777095
-0.19575761
-0.2386208
-0.26150789
-0.26044675
-0.23297664
-0.178474
-0.098619406
0.0023010995
0.117678
0.239989
0.36263192
0.48033966
0.58930141
0.68706372
0.77310577
0.84583512
0.905117
0.95111651
0.98425679
1.00527
1.015151
1.0151103
1.0063946
0.99038538
0.96843316
0.94181707
0.91179605
0.87955764
0.84610376
0.81231021
0.77891441
0.74652764
0.71559721
0.68640068
0.65919682
0.63412219
0.61117119
0.59033025
0.57147913
0.55446982
0.53914802
0.52527155
0.51272748
0.50317711
0.49221594
0.48076651
-0.34216895
-0.32248625
-0.30715281
-0.28841603
-0.26612392
-0.24049055
-0.21125226
-0.17830838
-0.14159479
-0.10107478
-0.056683072
-0.0084352186
0.043531609
0.099013221
0.15772429
0.21929315
0.28324541
0.34898485
0.41579324
0.48282771
0.54910555
0.61351249
0.6748177
0.7316519
0.78253217
0.82590487
0.8601805
0.88380179
0.89530383
0.8933726
0.87698191
0.84564626
0.79920734
0.73797242
0.66398171
0.58338136
0.50586665
0.44028607
0.39133222
0.35892281
0.34085784
0.33404188
0.3342847
0.33639658
0.33447118
0.32293841
0.29754568
0.25612847
0.19848172
0.12613518
0.042859032
-0.047847341
-0.14104953
-0.23027789
-0.30847658
-0.36843275
-0.40369495
-0.40887087
-0.38024766
-0.31648756
-0.21943489
-0.094647588
0.047917556
0.1973656
0.3453566
0.48534933
0.6126713
0.72484635
0.82161075
0.90198854
0.96605596
1.0142529
1.0473117
1.0662298
1.0723379
1.0671777
1.0523848
1.0296772
1.0006667
0.96692521
0.9299967
0.89118893
0.85166269
0.81240547
0.77422112
0.73777473
0.70352786
0.67175375
0.64265946
0.61630416
0.59263381
0.57158487
0.5529012
0.53645776
0.5219482
0.50903705
0.49766837
0.48891257
0.47915289
0.46970869
-0.38358913
-0.36674129
-0.35138175
-0.33325136
-0.31104495
-0.28520615
-0.25549432
-0.22178797
-0.18392947
-0.14179858
-0.095308234
-0.044430527
0.010740848
0.070032351
0.13319834
0.19988871
0.26963135
0.34181181
0.41566111
0.49025776
0.56453461
0.63725544
0.70701001
0.77220504
0.83108896
0.88177712
0.92229338
0.95065767
0.96497169
0.96341839
0.94437773
0.90715401
0.8510312
0.77515824
0.67989795
0.57349233
0.47225019
0.39061759
0.33546327
0.30447732
0.29364872
0.29898808
0.31476256
0.33366745
0.34668536
0.34525217
0.32308262
0.27741334
0.20865582
0.11945928
0.0145624
-0.10104266
-0.22195582
-0.33948348
-0.4443542
-0.5272972
-0.57971572
-0.59427251
-0.56554034
-0.49093764
-0.37210819
-0.21598535
-0.037917855
0.14582039
0.32584418
0.49315386
0.64193134
0.77079229
0.87936709
0.96811672
1.037345
1.0876434
1.1200622
1.1359885
1.1371789
1.1255985
1.1033178
1.072492
1.0350795
0.99298783
0.94798501
0.90161569
0.85521144
0.80984511
0.76640333
0.72557236
0.68781831
0.65340883
0.62247433
0.59502876
0.57086299
0.54996504
0.53169898
0.51631258
0.50275921
0.49105015
0.48103355
0.47334351
0.46489494
0.45738129
-0.42852229
-0.4140089
-0.39881839
-0.38206212
-0.35991558
-0.33406902
-0.30413995
-0.26987934
-0.23105008
-0.18745609
-0.13897956
-0.085528175
-0.027113293
0.036114838
0.10395488
0.17611018
0.25212437
0.33135414
0.41299017
0.49604622
0.57936649
0.66159713
0.74114684
0.81615684
0.88456176
0.94410062
0.99233413
1.0267718
1.0449575
1.0444081
1.0227425
0.97885098
0.91171642
0.81883916
0.69627795
0.55226693
0.41744467
0.31373201
0.25317305
0.22642005
0.22697794
0.25083994
0.29039996
0.33590845
0.37287787
0.38750099
0.37052702
0.31885612
0.23475866
0.12322359
-0.0096985632
-0.15685549
-0.31390245
-0.46838483
-0.60817492
-0.72149671
-0.79739174
-0.82596328
-0.79914474
-0.71211531
-0.56561653
-0.36780688
-0.14396427
0.080885794
0.30213395
0.50403058
0.67750778
0.82463258
0.94695354
1.0453348
1.1202565
1.1725237
1.2035967
1.2154084
1.2102675
1.1906666
1.1592455
1.1186048
1.0711728
1.0192621
0.964887
0.90983483
0.85563869
0.80349432
0.75431294
0.70883202
0.66748037
0.6304574
0.59780932
0.56962974
0.54511495
0.52526136
0.5077913
0.493356
0.48128355
0.47116165
0.46282275
0.45655343
0.44955879
0.44390997
-0.47718019
-0.46484432
-0.45044827
-0.43424346
-0.41279536
-0.38737003
-0.35753116
-0.32300152
-0.28347882
-0.23867758
-0.18840124
-0.1324908
-0.070885832
-0.0036536599
0.06904573
0.1469756
0.2297119
0.31659739
0.40677764
0.49923466
0.59273382
0.68578356
0.77660738
0.86308228
0.94278014
1.0129978
1.0707248
1.1127523
1.1358664
1.1368835
1.1124997
1.060151
0.97976748
0.87070253
0.71714427
0.51119329
0.32941747
0.19578265
0.13677948
0.11668732
0.13252485
0.18332843
0.258473
0.34650795
0.42187967
0.46100058
0.4507237
0.38907151
0.28250577
0.14073212
-0.027269618
-0.2154117
-0.41919126
-0.62143266
-0.80600122
-0.95867613
-1.066117
-1.1154962
-1.0948242
-0.99497773
-0.81317169
-0.55515655
-0.27278916
-0.0039046247
0.27260818
0.51653284
0.71691704
0.88500479
1.0238961
1.134094
1.2157702
1.270101
1.2991599
1.305518
1.2922525
1.2626489
1.2200071
1.1675124
1.1081902
1.044754
0.97954654
0.9146054
0.85164047
0.79197453
0.7365771
0.6862207
0.64129683
0.60179536
0.5675649
0.53969844
0.51558846
0.49607538
0.48019361
0.46751256
0.45743381
0.44940556
0.4430979
0.4385867
0.43333787
0.42946874
-0.52963571
-0.51933467
-0.50590908
-0.49051332
-0.47006383
-0.44529517
-0.41603391
-0.38165464
-0.34181347
-0.29613759
-0.24436833
-0.18621114
-0.12153681
-0.05032531
0.027355227
0.11131711
0.20117709
0.29629102
0.3957651
0.49858611
0.60346043
0.70876502
0.81251831
0.91233445
1.0053936
1.0884712
1.1578713
1.209465
1.2389157
1.2417131
1.2126696
1.1465265
1.0477403
0.92336077
0.73743202
0.43943759
0.18561823
0.013733076
-0.02315678
-0.037912613
-0.0035056204
0.086705897
0.21407976
0.37093157
0.50847593
0.58388124
0.57992979
0.49971912
0.35794956
0.1738729
-0.037925084
-0.27662912
-0.5425011
-0.80647859
-1.0468732
-1.248431
-1.3970714
-1.4770232
-1.4697994
-1.3607014
-1.1385418
-0.79516209
-0.44214756
-0.13675272
0.23089851
0.52718313
0.74970982
0.94681297
1.1096392
1.2356232
1.3256243
1.3822068
1.4083216
1.4075043
1.3838722
1.3417609
1.2853425
1.2185739
1.1450856
1.0681045
0.9904068
0.91424446
0.84147737
0.77355952
0.71155296
0.65617967
0.60788923
0.56630435
0.53166627
0.50327355
0.48034262
0.46239875
0.44869263
0.43851234
0.43109427
0.42573878
0.42199538
0.41966109
0.4164658
0.41441232
-0.58583852
-0.57746858
-0.56528501
-0.55104223
-0.53193913
-0.50833994
-0.47995603
-0.446179
-0.40668308
-0.36056605
-0.30779717
-0.24771731
-0.18020459
-0.10511773
-0.022427899
0.067732813
0.16505104
0.26890574
0.37841113
0.49255605
0.61002622
0.72912363
0.84766157
0.96297282
1.0718319
1.1703723
1.2539736
1.3172082
1.3539917
1.3575976
1.3200202
1.2306276
1.0922334
0.95033204
0.95730094
0.67463541
0.08274198
-0.26211004
-0.24440011
-0.2618374
-0.21103795
-0.063034206
0.14204027
0.41559487
0.65875936
0.78585399
0.78173468
0.66494813
0.4656768
0.2212411
-0.042803999
-0.33756406
-0.68796187
-1.0326369
-1.341052
-1.6013835
-1.8026157
-1.9277154
-1.946908
-1.8395982
-1.5746503
-1.1062604
-0.4045668
-0.17244166
0.19202798
0.50561661
0.77176658
1.0017275
1.1997717
1.3493022
1.4515128
1.5112289
1.533261
1.5229102
1.4859721
1.4281373
1.3547611
1.2707343
1.1803878
1.0875838
0.99548939
0.90660178
0.82297377
0.74614201
0.67718457
0.61670304
0.5659267
0.52257922
0.48750124
0.45992217
0.43889307
0.42354002
0.41292908
0.4061273
0.40218556
0.40020572
0.39963299
0.40001431
0.39924248
0.39927791
-0.64569416
-0.63914857
-0.62854841
-0.61585574
-0.59856945
-0.57670379
-0.54985944
-0.51735103
-0.47849547
-0.43260448
-0.37980271
-0.31818982
-0.24818223
-0.16947861
-0.081872054
0.014562361
0.11955896
0.2325916
0.35284564
0.47927898
0.61057982
0.74504903
0.88039999
1.0137
1.1412965
1.2585809
1.3597618
1.4380077
1.4853551
1.4888466
1.4288051
1.2898164
1.0797027
1.6816133
3.4424053
3.3065694
2.1601306
-0.3591245
-0.53947923
-0.59151785
-0.55068813
-0.31939522
-0.0051571475
0.48413488
0.92184936
1.1121403
1.0779424
0.89044175
0.59922353
0.26987122
-0.044922441
-0.40900283
-0.88002827
-1.3261017
-1.7054308
-2.0281315
-2.2942004
-2.4889851
-2.5679722
-2.5139327
-2.2132384
-1.1412491
-0.28146151
0.46126909
0.76810444
0.49148956
0.68146685
1.0273256
1.2951282
1.4813087
1.5990977
1.6615722
1.6773052
1.6539134
1.5995297
1.5217352
1.4273696
1.3224491
1.2121495
1.1008896
0.99226573
0.88906366
0.7934961
0.70716654
0.63104281
0.56663224
0.5123438
0.46826851
0.43391923
0.40832935
0.39035043
0.37878267
0.37245547
0.37013366
0.37064334
0.37293681
0.3763143
0.38006911
0.38217515
0.38460118
-0.70883048
-0.70419507
-0.69554885
-0.68493456
-0.67005595
-0.65061937
-0.62607121
-0.59561217
-0.55843783
-0.51375119
-0.46085238
-0.39878179
-0.32691633
-0.24511833
-0.15283877
-0.050180359
0.062636151
0.18520291
0.31681252
0.45643824
0.60283426
0.75432651
0.9086504
1.0627629
1.2126321
1.3528137
1.4759784
1.5733579
1.6333949
1.6300466
1.5288975
1.3475312
1.2048833
4.5024517
3.5064375
3.1000583
2.9109288
0.2515984
-0.83633101
-1.0468238
-1.0809683
-0.75894291
-0.27647605
0.56418152
1.4027864
1.6301593
1.4624743
1.1600938
0.73239081
0.25035373
-0.11555593
-0.5922205
-1.2204316
-1.7769253
-2.190951
-2.5482378
-2.8791441
-3.1818542
-3.394249
-3.5010682
-3.2260159
-2.0530173
-0.96781781
-0.12640973
0.7389184
1.27243
0.593783
1.0019446
1.3843982
1.6365171
1.7763107
1.840054
1.8452995
1.803292
1.725605
1.6223315
1.5019167
1.371665
1.2377149
1.1050106
0.97751448
0.85833233
0.74975313
0.65346677
0.57081428
0.50147817
0.44527006
0.40151694
0.36922746
0.34710357
0.33367657
0.32740536
0.32676625
0.33027949
0.33648463
0.34416892
0.35244888
0.36034874
0.36596254
0.37127485
-0.7746718
-0.7723261
-0.76609272
-0.75819327
-0.74643483
-0.7302525
-0.70895686
-0.68161302
-0.64716839
-0.60458541
-0.55286762
-0.49096873
-0.41804133
-0.33409751
-0.23751391
-0.12883377
-0.008149414
0.12420372
0.26763468
0.42122797
0.58387479
0.75406525
0.92972497
1.1078913
1.284334
1.4529577
1.6047809
1.7288761
1.81072
1.8087805
1.6822947
1.510845
1.3385509
2.4773852
2.8955323
2.5393794
1.857
-0.95740084
-1.2724315
-1.9370545
-2.1045057
-1.6015223
-0.5025397
0.88525147
2.2429453
2.4148987
1.8844721
1.4305646
0.85123479
-0.028966836
-0.50348692
-0.97151837
-1.7770603
-2.5019554
-2.8608624
-3.1724698
-3.5311017
-3.9888726
-4.4945154
-4.864779
-4.2622694
-2.9826735
-2.1584497
-0.88358839
-0.43559185
0.58153574
0.49144943
1.0001899
1.5135895
1.8418973
2.0017394
2.058864
2.0444267
1.9746922
1.8653981
1.7292627
1.5764315
1.4155487
1.253594
1.0960079
0.94707613
0.81014854
0.68759986
0.58131828
0.4916348
0.41868031
0.36180015
0.31988415
0.2914307
0.27468386
0.26773998
0.2686537
0.27549479
0.28644882
0.2998336
0.31420933
0.32849184
0.3414624
0.35139199
0.36061347
-0.8427533
-0.84311505
-0.83988906
-0.83542438
-0.82765641
-0.81576298
-0.79892638
-0.77596474
-0.74556027
-0.70641867
-0.65725129
-0.59681041
-0.52401862
-0.43807348
-0.33828078
-0.22406543
-0.095680984
0.04658626
0.20217892
0.37032944
0.55014973
0.74054557
0.93995512
1.1458656
1.3542097
1.5586649
1.7490536
1.9122662
2.0298312
2.0522103
1.9582396
1.8679429
1.6578413
1.121694
0.82177454
1.0450865
-1.3244409
-1.8085113
-3.2874872
-4.448724
-4.6241576
-3.7441101
0.47162184
2.0479051
4.0028748
3.8625665
2.1370773
1.5400553
1.0620918
-0.30536172
-1.0140277
-1.2240426
-2.5236625
-3.6274027
-3.7653143
-3.8254978
-4.0886179
-4.7497354
-5.910705
-6.4997415
-5.7806464
-3.3746719
-2.5426055
-1.247174
-0.9758876
-0.58010742
0.24200422
1.1165212
1.7653882
2.1389307
2.298381
2.3327599
2.2829794
2.1719328
2.019589
1.8409419
1.6478434
1.4499825
1.254961
1.0686458
0.89559434
0.73917315
0.60203399
0.48525739
0.38945959
0.31425256
0.25850767
0.22054476
0.19827929
0.18934339
0.19133665
0.20175025
0.21825436
0.23864293
0.26096292
0.28351394
0.30505255
0.32417358
0.33929783
0.35319081
-0.91208963
-0.91600046
-0.91648146
-0.91629218
-0.91360821
-0.9072951
-0.89633492
-0.87928881
-0.8545668
-0.8205603
-0.77562867
-0.71820413
-0.64685609
-0.56041454
-0.45795856
-0.33899656
-0.20329103
-0.051212015
0.11663427
0.29966736
0.49732296
0.70912065
0.93444166
1.1718974
1.4184105
1.6681791
1.9105643
2.130003
2.3035427
2.3770689
2.3204315
2.2435905
2.0969299
1.6628263
0.92705983
0.34361085
-0.88956623
-3.5847034
-3.8554792
-6.8405573
-9.654816
-9.9522521
-3.7729078
3.4271022
7.7802111
6.9635562
1.8949714
1.5619382
1.6097186
0.87063647
0.070687484
-1.2683567
-3.7132351
-5.2952502
-5.0530421
-4.1966924
-4.0271552
-5.0732492
-8.265001
-9.0227557
-7.7530049
-3.6098722
-2.5166406
-1.0843259
-0.72244556
-0.42136033
0.32069992
1.3689312
2.1480422
2.5546176
2.6892843
2.6758929
2.5684994
2.3977037
2.1873092
1.9541431
1.7113109
1.4690696
1.2353433
1.0161792
0.81617499
0.63876609
0.48613477
0.35947443
0.25886875
0.18340886
0.13132796
0.10019659
0.087189352
0.089264707
0.10321539
0.12601898
0.15480414
0.18698932
0.22027071
0.25268713
0.2828822
0.30937877
0.33089967
0.34972459
-0.98216543
-0.99038254
-0.99529753
-1.0004473
-1.0041033
-1.0048651
-1.001462
-0.99220689
-0.97519995
-0.94844188
-0.90989487
-0.85751604
-0.78944516
-0.70413885
-0.60034856
-0.47734545
-0.33493536
-0.17338061
0.0065524592
0.20441988
0.42007061
0.65381383
0.90651782
1.1788691
1.470137
1.7764183
2.0878259
2.3864885
2.6433097
2.7967409
2.7871412
2.6865392
2.5304521
2.2183651
1.7775942
1.2087614
0.065950671
-1.2093809
-0.85752077
-6.9032683
-17.866716
-20.537405
-6.9990462
8.0671947
18.127977
13.05668
0.58065976
-2.6065271
2.7288523
6.1410082
6.6324345
2.3742464
-5.4871941
-9.7803565
-6.9616287
-2.3145062
-1.9084102
-3.6750946
-13.071052
-13.959357
-9.6931585
-4.6974446
-1.5621474
0.060982182
0.59471694
0.86372585
1.4190985
2.2443702
2.8799775
3.1761532
3.2146092
3.1068764
2.9080991
2.6524444
2.3650536
2.0630495
1.759512
1.4646517
1.1862305
0.92984151
0.69998459
0.50000436
0.33191545
0.1964457
0.093113923
0.020279171
-0.024657122
-0.045056548
-0.044742005
-0.027637534
0.0021713282
0.040896333
0.08510919
0.13182838
0.17836666
0.22251218
0.26284725
0.29785202
0.32824463
0.35092541
-1.0521986
-1.0654427
-1.0756786
-1.0873152
-1.0987804
-1.1083625
-1.1145528
-1.1153872
-1.1086013
-1.0917483
-1.0622577
-1.0175294
-0.95520875
-0.87314275
-0.76968156
-0.64385946
-0.49543438
-0.32486232
-0.13312899
0.079082347
0.31199021
0.56694786
0.84698832
1.1561201
1.497805
1.8724162
2.2732232
2.6818821
3.0628673
3.3448566
3.431597
3.3163137
3.0686112
2.6991192
2.3210282
2.0364148
2.2737748
2.4112532
2.0173076
-3.3965992
-32.219664
-39.44504
-17.844153
22.033208
42.998827
29.014668
-18.212947
-32.705201
-3.0142101
21.926521
34.076895
22.109187
-9.3009537
-30.058785
-8.5212779
7.4399202
3.1316883
-8.087797
-26.672459
-25.364552
-12.201855
-2.3446045
0.96035033
2.3249494
2.755246
2.8628698
3.1869834
3.6465005
3.9610339
4.0257465
3.8898616
3.6319429
3.3006553
2.9301908
2.5440581
2.1572348
1.7812774
1.425381
1.0960636
0.79764666
0.53538804
0.31203935
0.1291643
-0.013150467
-0.11612293
-0.18227421
-0.21530241
-0.21978383
-0.20078465
-0.16350833
-0.1130438
-0.054090624
0.0093473886
0.073833346
0.13636449
0.19414284
0.24579147
0.28831102
0.3197372
0.35410993
-1.1210815
-1.1401309
-1.1566474
-1.1760791
-1.1970152
-1.2175073
-1.2357689
-1.2495084
-1.2560296
-1.2523642
-1.2353054
-1.2016629
-1.1482747
-1.0722169
-0.97132003
-0.84427867
-0.69076611
-0.51162374
-0.30840642
-0.082708242
0.16556934
0.43904334
0.74362838
1.0881876
1.4828278
1.935818
2.4479959
3.0051874
3.5687693
4.0567768
4.3342847
4.2917443
3.924305
3.3059986
2.6718753
2.0576704
3.084718
4.848283
6.4432791
25.922981
-15.449188
-73.985677
-43.312877
58.820043
124.44386
138.84116
94.905029
716.88145
839.61795
783.87343
729.74056
684.3483
449.83523
99.101749
7.2129991
63.016964
39.166516
-24.243171
-63.053996
-41.968033
-6.6762606
5.4474846
5.0369578
5.0594173
4.9984998
4.9164131
5.0709113
5.2272299
5.2407115
5.0459556
4.6885522
4.2326256