/*--------------------------------*- C++ -*----------------------------------*\
  =========                 |
  \\      /  F ield         | OpenFOAM: The Open Source CFD Toolbox
   \\    /   O peration     | Website:  https://openfoam.org
    \\  /    A nd           | Version:  9
     \\/     M anipulation  |
\*---------------------------------------------------------------------------*/
FoamFile
{
    format      ascii;
    class       surfaceScalarField;
    location    "0.4";
    object      phi;
}
// * * * * * * * * * * * * * * * * * * * * * * * * * * * * * * * * * * * * * //

dimensions      [0 3 -1 0 0 0 0];

internalField   nonuniform List<scalar> 
19800
(
-4.8603037e-05
6.3016248e-05
-8.6489772e-05
6.4287728e-05
-0.0001247582
6.5348611e-05
-0.00016368859
6.7028417e-05
-0.00020321185
6.8600321e-05
-0.00024340862
7.0554069e-05
-0.00028431472
7.2614435e-05
-0.0003259179
7.4762054e-05
-0.00036820502
7.6942735e-05
-0.00041114115
7.9068312e-05
-0.00045461311
8.1092087e-05
-0.00049846638
8.2883186e-05
-0.00054257178
8.4445836e-05
-0.00058668901
8.559654e-05
-0.00063062734
8.6304888e-05
-0.00067412321
8.6456389e-05
-0.00071685434
8.595833e-05
-0.00075847791
8.4717571e-05
-0.00079863538
8.2656335e-05
-0.00083695758
7.9718169e-05
-0.00087300969
7.5797069e-05
-0.0009063931
7.0931583e-05
-0.00093668099
6.5150256e-05
-0.0009633987
5.8259948e-05
-0.00098600988
5.0453865e-05
-0.0010037426
4.1715829e-05
-0.0010163438
3.1990779e-05
-0.0010239353
2.1241872e-05
-0.0010261552
9.2576744e-06
-0.001024521
-2.3400136e-06
-0.0010164325
-1.4341758e-05
-0.0010021916
-2.6000887e-05
-0.00098188185
-3.74424e-05
-0.00095558934
-4.8403945e-05
-0.0009235553
-5.8701341e-05
-0.00088599301
-6.8292637e-05
-0.00084302457
-7.7096848e-05
-0.00079486904
-8.4590225e-05
-0.00074178044
-9.0582424e-05
-0.00068397287
-9.5913306e-05
-0.00062159579
-0.00010018876
-0.00055456929
-0.00010330476
-0.00048318318
-0.000105362
-0.00040775173
-0.00010634035
-0.00032852241
-0.00010680393
-0.00024592325
-0.00010683156
-0.00016047207
-0.00010679825
-7.2545086e-05
-0.00010682083
1.7133456e-05
-0.00010672195
0.00010788013
-0.00010659048
0.00019895802
-0.00010656096
0.00028972657
-0.00010646204
0.00037943452
-0.00010629088
0.00046718497
-0.00010575751
0.00055235309
-0.00010501265
0.00063423914
-0.00010349474
0.00071222297
-0.0001014319
0.00078550091
-9.8175589e-05
0.00085369531
-9.3801322e-05
0.00091633779
-8.8422682e-05
0.00097301496
-8.1250441e-05
0.0010233875
-7.3210242e-05
0.0010669533
-6.3543127e-05
0.0011035005
-5.3031314e-05
0.0011326957
-4.1116741e-05
0.0011543118
-2.8558474e-05
0.0011677136
-1.4857418e-05
0.001176113
5.3860165e-07
0.0011803132
1.3611028e-05
0.0011771836
2.7490716e-05
0.0011668731
4.0075773e-05
0.0011495636
5.0785116e-05
0.0011256014
6.0252638e-05
0.0010962458
6.876227e-05
0.0010622632
7.6294147e-05
0.0010242933
8.2782418e-05
0.000982952
8.8142742e-05
0.00093883179
9.2348917e-05
0.00089247157
9.5408425e-05
0.00084442069
9.7354394e-05
0.00079518736
9.8272924e-05
0.00074521235
9.8212986e-05
0.00069487835
9.7303824e-05
0.00064461203
9.5644278e-05
0.00059471489
9.3404314e-05
0.00054548888
9.0607825e-05
0.00049721295
8.7391607e-05
0.00045002249
8.3842642e-05
0.00040409263
8.0113447e-05
0.00035955696
7.6260316e-05
0.00031646315
7.245288e-05
0.00027485478
6.8657128e-05
0.00023474016
6.5026313e-05
0.00019609842
6.1526954e-05
0.00015886534
5.8268208e-05
0.00012298244
5.5250101e-05
8.8401973e-05
5.2535621e-05
5.5005373e-05
4.994618e-05
2.2503075e-05
4.8121337e-05
4.5636175e-05
-4.7510887e-05
9.9923428e-05
-8.4968213e-05
0.0001017373
-0.00012287854
0.0001032635
-0.00016142308
0.00010556917
-0.0002006955
0.00010787572
-0.00024070905
0.0001105598
-0.00028148357
0.00011338577
-0.00032304263
0.00011632196
-0.000365362
0.00011925303
-0.00040836523
0.00012207786
-0.00045198821
0.00012471352
-0.00049611287
0.00012700141
-0.00054059806
0.00012893647
-0.00058524236
0.00013023985
-0.00062978857
0.0001308491
-0.0006739615
0.0001306358
-0.000717493
0.00012948966
-0.00076005398
0.00012727378
-0.00080125841
0.00012386244
-0.00084066917
0.0001191294
-0.00087789953
0.00011302348
-0.00091246386
0.00010549573
-0.00094383672
9.6525333e-05
-0.00097155807
8.5981198e-05
-0.00099512138
7.4018908e-05
-0.0010140682
6.066725e-05
-0.0010280035
4.5927346e-05
-0.0010366732
2.9909171e-05
-0.0010401894
1.2774406e-05
-0.001037691
-4.8346273e-06
-0.0010291183
-2.2912351e-05
-0.0010142939
-4.0826113e-05
-0.00099323935
-5.849755e-05
-0.00096604346
-7.5599274e-05
-0.0009328463
-9.1898309e-05
-0.00089392497
-0.00010721332
-0.00084959873
-0.00012142099
-0.00080008529
-0.00013410338
-0.00074541029
-0.00014525942
-0.00068618562
-0.00015513781
-0.00062285468
-0.0001635166
-0.00055524034
-0.00017091428
-0.00048347899
-0.00017711859
-0.00040771727
-0.00018210005
-0.00032831924
-0.00018620062
-0.00024559533
-0.00018955498
-0.00016006968
-0.00019232488
-7.2264522e-05
-0.0001946272
1.7265081e-05
-0.00019625155
0.00010801106
-0.00019733277
0.0001992336
-0.00019778234
0.00029019522
-0.00019742286
0.00038018155
-0.00019627651
0.00046833482
-0.0001939087
0.00055395894
-0.00019063042
0.00063645998
-0.00018599281
0.00071513428
-0.00018010412
0.00078927206
-0.00017231206
0.00085859646
-0.00016312244
0.00092242248
-0.00015224714
0.00098060967
-0.00013943508
0.0010323951
-0.00012499481
0.0010774566
-0.00010860068
0.0011153253
-9.0903404e-05
0.0011459139
-7.1706692e-05
0.0011688876
-5.1525352e-05
0.0011843858
-3.0355762e-05
0.0011933649
-8.4386436e-06
0.0011943378
1.2639591e-05
0.0011888349
3.2994171e-05
0.0011769263
5.1985896e-05
0.0011583397
6.9369032e-05
0.0011335975
8.499357e-05
0.0011033165
9.9043242e-05
0.0010682291
0.00011138459
0.0010290461
0.0001219722
0.00098644807
0.00013074683
0.00094106108
0.0001377386
0.00089351906
0.00014295203
0.0008443171
0.0001465594
0.00079401971
0.00014857364
0.00074308778
0.00014914619
0.00069197409
0.00014841823
0.00064101511
0.00014660542
0.00059061134
0.00014380901
0.00054102738
0.00014019211
0.00049246669
0.00013595265
0.00044508132
0.00013122821
0.0003990741
0.00012612176
0.00035455639
0.00012077658
0.00031160729
0.00011539929
0.00027021749
0.00011004788
0.00023039599
0.0001048501
0.00019208074
9.9844764e-05
0.00015521626
9.5131541e-05
0.00011970743
9.075742e-05
8.5529169e-05
8.6718891e-05
5.2460056e-05
8.3021834e-05
2.0386537e-05
8.0200289e-05
7.6571452e-05
-4.625939e-05
0.00013643371
-8.3294741e-05
0.00013877761
-0.00012089261
0.00014085865
-0.0001591138
0.00014379492
-0.00019818681
0.00014694365
-0.00023800161
0.00015037272
-0.00027874508
0.00015413164
-0.00032030031
0.00015786813
-0.00036266547
0.00016162293
-0.00040599458
0.00016540707
-0.00045001723
0.00016872976
-0.00049469708
0.00017168587
-0.00053966822
0.0001739076
-0.00058494096
0.00017550899
-0.00063029499
0.00017620754
-0.00067552349
0.000175865
-0.00072019892
0.00017416065
-0.00076397862
0.00017105492
-0.00080639194
0.00016627793
-0.00084725724
0.00015999195
-0.00088587836
0.00015164381
-0.00092189524
0.00014151493
-0.00095475714
0.00012938772
-0.00098403403
0.00011525903
-0.0010091154
9.9104028e-05
-0.0010294919
8.1045292e-05
-0.0010447192
6.1152425e-05
-0.0010544761
3.9665608e-05
-0.0010584546
1.6756094e-05
-0.0010558499
-7.4370586e-06
-0.0010472883
-3.1474629e-05
-0.0010321512
-5.5964745e-05
-0.0010105414
-8.010818e-05
-0.00098241712
-0.0001037237
-0.00094801786
-0.00012629707
-0.00090770514
-0.00014752505
-0.00086172325
-0.00016740152
-0.00081035831
-0.00018546843
-0.00075388772
-0.00020173143
-0.00069283281
-0.00021619137
-0.00062731803
-0.00022902826
-0.00055782719
-0.00024040295
-0.00048462101
-0.00025032267
-0.00040786519
-0.00025885512
-0.00032786237
-0.00026620316
-0.00024498106
-0.00027243573
-0.0001593601
-0.00027794487
-7.18576e-05
-0.00028212777
1.7418916e-05
-0.00028552729
0.00010790638
-0.00028781782
0.00019887227
-0.00028874767
0.00028973838
-0.00028828724
0.00037987828
-0.00028641368
0.00046843921
-0.00028246881
0.00055479589
-0.00027698352
0.0006385447
-0.00026973984
0.00071861969
-0.00026017686
0.00079491915
-0.00024860969
0.00086637432
-0.0002345728
0.00093255734
-0.00021842748
0.00099293258
-0.00019981015
0.0010469145
-0.0001789808
0.0010940734
-0.00015575927
0.0011337531
-0.00013057799
0.0011656757
-0.0001036289
0.0011896326
-7.5485517e-05
0.001205793
-4.6514506e-05
0.0012146855
-1.7330849e-05
0.0012155601
1.1763486e-05
0.0012089712
3.9579746e-05
0.0011953871
6.5571678e-05
0.0011750659
8.9687581e-05
0.0011484906
0.00011156719
0.0011163992
0.00013113932
0.0010795039
0.00014828323
0.0010384599
0.0001630178
0.00099400498
0.0001752053
0.00094689969
0.00018484776
0.00089759916
0.00019225445
0.00084684004
0.00019732057
0.0007951175
0.00020029933
0.00074297374
0.00020129218
0.00069060891
0.00020078348
0.00063876039
0.00019845416
0.00058745282
0.00019511788
0.00053709269
0.00019055453
0.00048807524
0.00018497354
0.00044035979
0.00017894223
0.00039415656
0.00017232509
0.00034953482
0.00016539986
0.00030655524
0.0001583756
0.00026520127
0.0001514025
0.00022555567
0.00014449738
0.00018749288
0.00013790807
0.00015089464
0.00013173051
0.00011566568
0.00012598425
8.187171e-05
0.00012051102
4.9199336e-05
0.00011569496
1.7490674e-05
0.00011191095
0.00010713608
-4.4622363e-05
0.00017233071
-8.1109467e-05
0.00017526191
-0.00011823614
0.00017799049
-0.00015608318
0.00018163751
-0.00019477733
0.00018563628
-0.00023445398
0.00019005284
-0.00027504995
0.00019471925
-0.00031655868
0.00019937984
-0.00035925579
0.0002043207
-0.00040276979
0.000208914
-0.00044715301
0.00021311596
-0.0004922119
0.00021674581
-0.00053808333
0.00021977473
-0.00058440584
0.00022183405
-0.00063089856
0.00022270176
-0.00067721411
0.00022217659
-0.00072318734
0.0002201346
-0.00076851134
0.00021638197
-0.00081275716
0.00021052166
-0.00085529183
0.00020252449
-0.00089585369
0.00019220728
-0.00093382702
0.00017948929
-0.00096860929
0.00016417047
-0.00099974096
0.00014639358
-0.0010265536
0.00012591869
-0.0010486153
0.00010310535
-0.0010653228
7.7859125e-05
-0.0010762345
5.0580238e-05
-0.0010809554
2.1479801e-05
-0.0010795599
-8.8335246e-06
-0.0010710862
-3.9950524e-05
-0.0010557949
-7.1256824e-05
-0.0010334969
-0.00010240693
-0.0010045536
-0.00013266749
-0.00096905777
-0.00016179163
-0.00092729878
-0.00018928256
-0.00087995143
-0.00021474824
-0.00082721442
-0.00023820558
-0.0007694939
-0.0002594528
-0.00070692505
-0.00027875926
-0.00064019733
-0.00029575404
-0.00056952446
-0.00031107597
-0.00049496921
-0.00032487764
-0.00041704481
-0.00033677878
-0.00033590476
-0.00034734261
-0.00025173182
-0.00035660734
-0.00016491364
-0.00036476062
-7.5732191e-05
-0.00037130522
1.5023149e-05
-0.00037628119
0.00010692299
-0.00037971642
0.00019947479
-0.00038130041
0.00029203668
-0.0003808484
0.00038418067
-0.00037855351
0.00047502721
-0.00037331415
0.00056370116
-0.00036565526
0.00064958575
-0.00035562234
0.00073202507
-0.00034261083
0.0008104557
-0.00032703741
0.00088421246
-0.00030832923
0.00095262958
-0.00028684824
0.0010150285
-0.00026220855
0.0010708782
-0.00023482761
0.0011196617
-0.00020454176
0.0011607157
-0.00017163472
0.0011937392
-0.00013665466
0.0012183556
-0.00010010066
0.0012344834
-6.2644161e-05
0.0012421078
-2.4954176e-05
0.001242089
1.1784559e-05
0.0012342219
4.7445121e-05
0.0012187699
8.1020694e-05
0.0011963215
0.00011213465
0.0011674749
0.00014041583
0.0011330163
0.0001656006
0.0010937312
0.00018757383
0.0010502462
0.00020650528
0.0010034743
0.00022197554
0.00095396302
0.0002343595
0.00090258962
0.00024363086
0.00084978802
0.00025012443
0.00079615779
0.00025393244
0.00074212586
0.00025532336
0.00068853171
0.0002543768
0.00063518172
0.00025180682
0.00058285256
0.00024744984
0.00053183529
0.00024157429
0.00048195632
0.00023485332
0.00043370922
0.00022718739
0.00038716305
0.00021887031
0.00034238793
0.00021017524
0.00029951224
0.00020125323
0.00025843824
0.00019247607
0.00021903413
0.00018390225
0.00018127387
0.00017567079
0.00014520569
0.00016780117
0.00011063099
0.00016056236
7.7180624e-05
0.00015396295
4.5029729e-05
0.00014784559
1.3943606e-05
0.00014299957
0.00013700615
-4.2358684e-05
0.00020743913
-7.8216033e-05
0.00021112396
-0.00011471574
0.00021448638
-0.00015210651
0.0002190274
-0.00019041294
0.00022394715
-0.00022977193
0.00022940457
-0.00027021604
0.00023516625
-0.00031191206
0.00024107777
-0.00035463183
0.00024703379
-0.00039847245
0.00025275679
-0.00044340926
0.00025805488
-0.00048935823
0.00026269036
-0.00053610664
0.00026652374
-0.00058344712
0.00026917562
-0.00063129379
0.00027054407
-0.00067927282
0.00027015481
-0.00072711251
0.00026797716
-0.00077432561
0.00026359323
-0.00082059665
0.000256789
-0.00086554157
0.00024746945
-0.0009084586
0.00023512519
-0.0009488676
0.00021989834
-0.00098626472
0.00020156945
-0.0010198891
0.00018002011
-0.0010492946
0.0001553235
-0.0010736256
0.00012743578
-0.0010923841
9.662028e-05
-0.0011050178
6.3216969e-05
-0.0011110674
2.7528834e-05
-0.0011102818
-9.6216524e-06
-0.0011020138
-4.8219493e-05
-0.0010863503
-8.6919932e-05
-0.0010631998
-0.00012555813
-0.0010328276
-0.0001630402
-0.00099565785
-0.00019895945
-0.00095201991
-0.00023291849
-0.00090254558
-0.00026422263
-0.00084768889
-0.00029306277
-0.00078790018
-0.00031924262
-0.00072370253
-0.00034295763
-0.0006551991
-0.00036425698
-0.000582877
-0.0003833992
-0.00050712841
-0.00040062684
-0.00042791208
-0.00041599369
-0.00034547942
-0.00042977351
-0.00026005749
-0.00044202763
-0.00017201289
-0.00045280396
-8.1525248e-05
-0.00046179032
1.0988178e-05
-0.00046879399
0.00010517774
-0.00047390413
0.00020037348
-0.00047649529
0.00029541406
-0.00047588864
0.00038960612
-0.0004727422
0.0004828203
-0.00046652697
0.00057421232
-0.00045704456
0.00066259445
-0.00044400311
0.00074772233
-0.00042773606
0.00082886313
-0.00040817769
0.00090541235
-0.00038487566
0.00097653626
-0.00035797313
0.0010418664
-0.00032753926
0.0011004284
-0.00029339328
0.001151686
-0.00025580049
0.0011947735
-0.00021471474
0.0012293645
-0.00017125186
0.0012549693
-0.00012570372
0.0012713988
-7.9071315e-05
0.0012788826
-3.2438401e-05
0.0012773902
1.3273808e-05
0.0012674667
5.7364815e-05
0.0012495408
9.8947736e-05
0.0012242622
0.00013741876
0.0011924238
0.00017225833
0.0011547745
0.0002032512
0.0011121005
0.00023024641
0.0010655763
0.00025302611
0.0010156113
0.00027194175
0.00096319879
0.00028677302
0.00090887559
0.00029795308
0.00085343926
0.00030556071
0.00079743736
0.00030993609
0.00074139052
0.00031136999
0.00068565443
0.00031011303
0.00063086628
0.00030659664
0.00057721034
0.00030110562
0.00052486922
0.00029391695
0.00047426486
0.00028545942
0.00042548811
0.00027596553
0.00037864477
0.00026571399
0.00033377573
0.00025504398
0.00029085977
0.00024417068
0.00024992793
0.00023340856
0.00021084229
0.00022298659
0.0001736187
0.00021289284
0.00013800965
0.0002034123
0.00010393453
0.00019464065
7.1148258e-05
0.0001867512
3.9642527e-05
0.00017934971
9.1369936e-06
0.00017350568
0.00016612653
-3.9616453e-05
0.00024150865
-7.45706e-05
0.00024607213
-0.00011034108
0.00025025626
-0.00014706484
0.0002557555
-0.00018497295
0.00026184843
-0.00022402022
0.00026845473
-0.00026433614
0.00027548454
-0.00030597363
0.00028270865
-0.00034893782
0.00028999934
-0.00039324241
0.00029706424
-0.00043881157
0.00030362024
-0.00048565642
0.000309535
-0.00053349126
0.00031435957
-0.00058232844
0.00031800815
-0.00063171265
0.00031992587
-0.00068161571
0.00032005991
-0.00073150945
0.00031786896
-0.00078113124
0.00031320987
-0.00083005036
0.00030570632
-0.00087766714
0.00029508648
-0.00092359915
0.00028105671
-0.00096714693
0.00026344688
-0.0010076577
0.000242082
-0.0010445121
0.00021687444
-0.0010768508
0.00018766176
-0.0011041434
0.00015473084
-0.0011255239
0.00011800368
-0.0011403809
7.8073187e-05
-0.0011481309
3.5276293e-05
-0.0011481363
-9.6168211e-06
-0.0011401945
-5.6160356e-05
-0.0011240524
-0.00010306187
-0.001099969
-0.00014964221
-0.0010680191
-0.00019498956
-0.0010284562
-0.00023851953
-0.00098256375
-0.00027880919
-0.00093050088
-0.00031628688
-0.0008730429
-0.00035052201
-0.00081075656
-0.00038152986
-0.00074419233
-0.00040952375
-0.00067367355
-0.00043477644
-0.0005995077
-0.00045756618
-0.00052190814
-0.00047822791
-0.00044108261
-0.00049681901
-0.00035715062
-0.00051370413
-0.00027012222
-0.00052905412
-0.0001805959
-0.00054232934
-8.8260328e-05
-0.00055412434
6.4167247e-06
-0.00056347155
0.00010287886
-0.00057036516
0.00020026051
-0.00057387488
0.00029820506
-0.00057383258
0.00039569995
-0.00057023405
0.00049208291
-0.00056290783
0.00058642879
-0.00055138708
0.00067825683
-0.00053583094
0.00076672886
-0.00051620774
0.00085134779
-0.00049279798
0.00093135888
-0.00046488308
0.0010060176
-0.00043263258
0.001075025
-0.00039654815
0.001137126
-0.00035549103
0.0011915019
-0.00031017866
0.0012373233
-0.0002605336
0.0012739021
-0.00020783231
0.0013006919
-0.00015249415
0.0013175317
-9.5910527e-05
0.0013241568
-3.9068828e-05
0.0013210249
1.6404438e-05
0.0013086405
6.9747953e-05
0.0012876322
0.00011995197
0.0012588354
0.00016621927
0.001223134
0.00020796511
0.0011814951
0.00024489131
0.0011349355
0.00027680706
0.0010842382
0.00030372312
0.0010304612
0.00032571871
0.00097424041
0.00034299455
0.00091650055
0.0003556924
0.0008577863
0.00036427422
0.0007988523
0.00036886803
0.00074007196
0.00037014696
0.00068214523
0.00036803999
0.00062533731
0.00036340506
0.00057002487
0.00035642111
0.00051644003
0.00034750488
0.0004648331
0.00033706858
0.00041539692
0.00032540561
0.00036805416
0.00031305629
0.00032300517
0.00030009399
0.00028008474
0.00028709403
0.00023936452
0.0002741315
0.00020077846
0.00026157486
0.00016412927
0.00024954158
0.00012924069
0.0002382998
9.5900802e-05
0.00022798279
6.3985117e-05
0.00021866866
3.3131428e-05
0.00021020038
2.8473545e-06
0.00020378773
0.00019377014
-3.6226731e-05
0.00027420011
-7.0081233e-05
0.00027992403
-0.0001049623
0.00028514007
-0.00014102825
0.0002918136
-0.00017835515
0.00029917857
-0.00021705646
0.00030715827
-0.00025715988
0.00031558077
-0.00029880417
0.00032435297
-0.00034191061
0.00033310804
-0.00038668839
0.00034183805
-0.00043302611
0.00034995713
-0.00048074493
0.00035725498
-0.00052993354
0.00036354389
-0.00058023007
0.0003683016
-0.00063160356
0.00037130117
-0.00068364845
0.00037210344
-0.00073612932
0.00037034425
-0.00078859937
0.00036567688
-0.00084057875
0.00035768546
-0.0008916419
0.00034614883
-0.00094108248
0.00033049697
-0.00098832433
0.00031068968
-0.0010326823
0.00028643986
-0.0010732555
0.00025744698
-0.0011094424
0.00022385013
-0.0011402075
0.00018549814
-0.0011649494
0.00014274454
-0.0011826128
9.5733427e-05
-0.0011925032
4.5166007e-05
-0.0011940042
-8.113744e-06
-0.0011867072
-6.345674e-05
-0.0011701177
-0.00011965225
-0.0011446141
-0.00017514514
-0.0011104709
-0.00022913019
-0.0010684467
-0.00028054118
-0.0010192741
-0.00032798137
-0.00096394624
-0.00037161717
-0.00090331942
-0.00041115039
-0.00083807323
-0.00044677632
-0.00076878074
-0.00047881874
-0.00069581838
-0.0005077409
-0.00061949632
-0.00053388903
-0.00054006078
-0.0005576652
-0.00045737781
-0.00057950413
-0.00037180429
-0.00059927888
-0.00028321172
-0.00061764546
-0.00019150392
-0.00063403496
-9.7121898e-05
-0.0006485027
-3.1237536e-09
-0.00066058925
9.9219497e-05
-0.00066958791
0.0001998426
-0.00067449753
0.00030127715
-0.00067526714
0.0004025953
-0.0006715497
0.00050297857
-0.00066329076
0.00060119946
-0.00064960595
0.0006971841
-0.00063181187
0.00078984135
-0.00060885883
0.00087846725
-0.00058142588
0.00096276882
-0.00054918812
0.0010420369
-0.00051189771
0.001115159
-0.00046966801
0.0011814934
-0.00042183074
0.0012396684
-0.00036834934
0.0012890798
-0.00030994192
0.0013280793
-0.00024683608
0.0013563826
-0.00018080304
0.001373321
-0.00011284924
0.0013789064
-4.4657265e-05
0.001373664
2.1645243e-05
0.0013581504
8.5261766e-05
0.001333272
0.00014483147
0.0013000883
0.00019940343
0.0012596588
0.00024839627
0.0012131709
0.00029138151
0.0011616204
0.00032835528
0.0011060713
0.00035926712
0.0010474912
0.00038429725
0.00098687048
0.00040361704
0.00092488476
0.00041767943
0.00086240453
0.0004267535
0.00079993753
0.00043133316
0.00073824634
0.00043183768
0.00067751435
0.00042877432
0.00061835474
0.00042256513
0.00056112092
0.00041365902
0.00050604798
0.0004025799
0.00045332953
0.0003897879
0.00040297738
0.0003757578
0.00035523701
0.00036079653
0.00030989835
0.00034543431
0.00026714983
0.00032984397
0.00022682557
0.00031445739
0.00018875945
0.00029964394
0.00015288134
0.00028542037
0.00011894255
0.00027223843
8.66108e-05
0.0002603159
5.5730746e-05
0.00024955041
2.6024034e-05
0.00023990628
-2.7164781e-06
0.00023252758
0.00022148426
-3.1925243e-05
0.0003049903
-6.4547584e-05
0.00031254542
-9.8487377e-05
0.00031906978
-0.00013370756
0.00032703647
-0.00017038384
0.00033585624
-0.00020857843
0.00034534488
-0.00024839208
0.0003553931
-0.00028997426
0.00036593594
-0.00033346375
0.00037659248
-0.00037858218
0.00038695467
-0.00042564793
0.0003970239
-0.00047456781
0.00040617101
-0.00052511663
0.00041408959
-0.0005772908
0.00042047802
-0.00063078698
0.00042479744
-0.0006854121
0.00042672388
-0.00074081698
0.00042574606
-0.00079651753
0.00042137741
-0.00085215452
0.00041332194
-0.00090703909
0.00040103257
-0.0009607408
0.00038419881
-0.0010124987
0.00036244691
-0.0010613507
0.00033529036
-0.0011067341
0.00030283046
-0.0011474741
0.00026459118
-0.0011827343
0.00022075689
-0.0012114458
0.00017145266
-0.0012326082
0.00011689455
-0.0012452325
5.7792036e-05
-0.0012484696
-4.8752436e-06
-0.0012417549
-7.0172206e-05
-0.0012247802
-0.00013662713
-0.0011974577
-0.00020246478
-0.0011603395
-0.00026624565
-0.0011148886
-0.00032599179
-0.0010617823
-0.00038108795
-0.0010024831
-0.00043091741
-0.00093801131
-0.00047562376
-0.00086914084
-0.00051564797
-0.00079664747
-0.00055131552
-0.00072109344
-0.0005832987
-0.00064255386
-0.00061242999
-0.00056103927
-0.00063918081
-0.0004768608
-0.00066368419
-0.00038961127
-0.00068652959
-0.00029922917
-0.00070802667
-0.00020555501
-0.00072770795
-0.00010861868
-0.00074543692
-8.6264782e-06
-0.00076058018
9.408233e-05
-0.00077229511
0.0001988516
-0.00077926467
0.00030470053
-0.00078111671
0.00041078381
-0.00077763222
0.00051557798
-0.00076808371
0.00061888181
-0.00075290546
0.0007193647
-0.00073229269
0.00081659324
-0.0007060851
0.00090993124
-0.0006747629
0.00099923341
-0.00063848996
0.0010835112
-0.00059617704
0.0011618894
-0.00054803869
0.0012338017
-0.0004937432
0.0012972425
-0.00043179227
0.001350841
-0.00036353841
0.0013932658
-0.00028926542
0.0014232464
-0.00021078562
0.0014401985
-0.00012980174
0.0014445047
-4.8968111e-05
0.001436465
2.9682549e-05
0.0014169623
0.00010476643
0.0013872072
0.00017458881
0.0013485331
0.00023807899
0.0013022709
0.00029465915
0.0012497358
0.00034391428
0.0011922043
0.00038588587
0.0011308407
0.0004206308
0.0010667191
0.000448418
0.0010008001
0.000469534
0.00093386326
0.0004846172
0.00086688216
0.0004937374
0.0008003964
0.00049781681
0.00073500691
0.0004972273
0.0006712326
0.0004925473
0.00060948998
0.00048430934
0.00055007728
0.00047307615
0.00049324513
0.00045941294
0.00043916599
0.00044386841
0.00038798901
0.00042693491
0.00033970764
0.00040907772
0.00029436731
0.00039077542
0.00025181375
0.00037239894
0.00021196132
0.00035430882
0.00017468374
0.00033692114
0.00013971403
0.00032039315
0.00010682165
0.00030513521
7.5793591e-05
0.00029134417
4.6308897e-05
0.0002790358
1.8024212e-05
0.00026819344
-8.9871041e-06
0.00025954192
0.00024857826
-2.6024606e-05
0.00033530722
-5.7761291e-05
0.00034426927
-9.0660608e-05
0.00035197198
-0.00012505349
0.00036142888
-0.00016089136
0.00037168538
-0.00019847669
0.0003829283
-0.00023796181
0.00039487739
-0.00027933093
0.00040729849
-0.00032287912
0.00042013767
-0.00036858272
0.0004326587
-0.00041651019
0.00044494746
-0.00046658327
0.00045624082
-0.00051878335
0.00046629229
-0.00057293253
0.00047462877
-0.00062892847
0.0004807901
-0.00068642052
0.00048421352
-0.00074508595
0.00048441216
-0.00080454944
0.00048084118
-0.00086438952
0.00047316139
-0.00092387615
0.00046051917
-0.00098241713
0.00044273903
-0.0010392484
0.00041927598
-0.0010936448
0.0003896853
-0.0011444709
0.00035365642
-0.0011908944
0.00031101309
-0.0012315407
0.00026139989
-0.0012653118
0.00020522232
-0.0012909004
0.00014248442
-0.00130709
7.3982221e-05
-0.0013126732
7.070255e-07
-0.0013069481
-7.5897503e-05
-0.0012892566
-0.00015431657
-0.0012596345
-0.00023208424
-0.0012191767
-0.00030670317
-0.0011688115
-0.00037635865
-0.0011104101
-0.00043948859
-0.0010456016
-0.00049572493
-0.00097628221
-0.00054494567
-0.00090342256
-0.00058851066
-0.00082752892
-0.00062721177
-0.00074902197
-0.00066180909
-0.00066825946
-0.00069319589
-0.00058481583
-0.00072262669
-0.00049896087
-0.00074953911
-0.0004102675
-0.00077522081
-0.00031835456
-0.00079993698
-0.00022279832
-0.00082326438
-0.00012327147
-0.00084496508
-1.9877048e-05
-0.00086397545
8.7013201e-05
-0.00087918328
0.00019675423
-0.00088900231
0.0003078832
-0.00089224581
0.00041921974
-0.00088896648
0.00052994301
-0.00087880414
0.00063874168
-0.0008617004
0.00074440877
-0.00083795912
0.00084703736
-0.00080871079
0.00094569224
-0.00077341942
0.0010400667
-0.00073286464
0.0011305753
-0.00068667754
0.0012155515
-0.00063301489
0.0012936324
-0.00057182412
0.0013640644
-0.00050222524
0.0014233568
-0.00042282886
0.0014700469
-0.00033595619
0.0015022053
-0.00024294648
0.0015196664
-0.00014726496
0.0015221149
-5.141822e-05
0.0015103423
4.1451042e-05
0.001485747
0.00012936195
0.0014499026
0.00021043672
0.0014044609
0.00028352374
0.0013510996
0.00034802197
0.0012913237
0.00040368819
0.0012266389
0.00045056891
0.0011583672
0.00048890313
0.0010876826
0.0005191045
0.0010155805
0.00054163865
0.0009431063
0.0005570911
0.00087088866
0.00056595398
0.00079975808
0.00056894465
0.00073029237
0.00056669491
0.000662984
0.00055985615
0.00059825706
0.00054903623
0.00053639513
0.00053493737
0.00047765743
0.00051815207
0.0004222014
0.00049932368
0.00037011755
0.00047901782
0.00032137607
0.00045782219
0.00027593264
0.00043622174
0.0002337018
0.00041462961
0.00019457751
0.00039343384
0.00015824615
0.00037325532
0.00012449045
0.00035415189
9.3014383e-05
0.00033661385
6.3573766e-05
0.00032078498
3.5897401e-05
0.00030671077
9.1427439e-06
0.00029494938
-1.6316823e-05
0.00028500303
0.00027405054
-1.9017298e-05
0.0003643411
-4.9704217e-05
0.0003749587
-8.1409999e-05
0.00038367617
-0.00011464323
0.00039465315
-0.00014963329
0.00040667414
-0.0001864994
0.00041979289
-0.00022546867
0.00043383915
-0.00026678849
0.00044861467
-0.00031035422
0.00046370319
-0.00035659227
0.00047889222
-0.00040522086
0.00049357199
-0.00045654281
0.00050756491
-0.00051044646
0.000520198
-0.00056679345
0.00053097329
-0.00062546785
0.00053946242
-0.0006862681
0.00054501472
-0.00074863244
0.00054677731
-0.00081235748
0.00054456607
-0.00087680743
0.00053761178
-0.00094151671
0.0005252284
-0.0010057292
0.00050694963
-0.001068638
0.00048218256
-0.0011293839
0.0004504301
-0.0011868654
0.00041113658
-0.0012398546
0.00036400005
-0.0012871564
0.00030870084
-0.0013271926
0.00024525944
-0.0013584448
0.00017373674
-0.0013793023
9.4837774e-05
-0.0013881254
9.5291295e-06
-0.0013836182
-8.0402951e-05
-0.0013652476
-0.00017268541
-0.00133265
-0.00026468198
-0.0012871003
-0.00035225379
-0.0012302515
-0.00043320786
-0.001164927
-0.00050481218
-0.0010940466
-0.00056660552
-0.0010192059
-0.00061979037
-0.00094159834
-0.00066612182
-0.00086167792
-0.00070713251
-0.00077972997
-0.0007437577
-0.00069605548
-0.00077687374
-0.00061101461
-0.00080767132
-0.00052373364
-0.00083682137
-0.00043396011
-0.0008649931
-0.00034087755
-0.00089301773
-0.00024362075
-0.00092052058
-0.00014147308
-0.00094711145
-3.4549812e-05
-0.00097089855
7.7340865e-05
-0.00099107351
0.00019267764
-0.001004336
0.00031037559
-0.0010099432
0.0004289211
-0.0010075118
0.0005463028
-0.00099618636
0.00066124982
-0.00097664431
0.00077303042
-0.00094973704
0.00088081667
-0.00091649317
0.00098518986
-0.00087778529
0.0010857886
-0.00083346874
0.0011823746
-0.0007832594
0.0012754116
-0.0007260498
0.0013624676
-0.00065888713
0.0014408219
-0.00058057932
0.0015084143
-0.00049041968
0.0015607954
-0.00038833685
0.0015962524
-0.00027840266
0.0016137657
-0.00016477933
0.0016134212
-5.1079708e-05
0.0015967776
5.8091993e-05
0.0015656209
0.00016052324
0.0015220486
0.00025401089
0.0014682317
0.00033734243
0.0014061873
0.00041006883
0.0013377487
0.00047212574
0.001264632
0.00052368244
0.0011882793
0.00056525592
0.0011099832
0.00059740412
0.0010308358
0.00062078672
0.00095183643
0.00063609109
0.00087380512
0.00064398266
0.00079746503
0.00064528549
0.00072341184
0.00064074715
0.00065216166
0.0006311078
0.00058411932
0.00061708007
0.00051961087
0.00059944381
0.00045881115
0.00057894982
0.00040188375
0.00055625062
0.0003488885
0.00053201586
0.00029979891
0.00050691242
0.00025448887
0.0004815321
0.00021274922
0.00045637215
0.00017437648
0.00043180769
0.00013917775
0.00040845476
0.00010691798
0.00038641504
7.7168576e-05
0.00036636645
4.962552e-05
0.00034833005
2.3783714e-05
0.00033255324
-7.3255011e-07
0.00031946694
-2.4166501e-05
0.00030843766
0.00029729544
-1.0782913e-05
0.00039165236
-4.0164193e-05
0.00040433613
-7.0615703e-05
0.00041411993
-0.00010269913
0.00042673706
-0.00013655221
0.00044052554
-0.00017244183
0.00045567516
-0.00021070661
0.00047210094
-0.00025144678
0.00048935473
-0.0002951288
0.00050738023
-0.00034164794
0.00052540637
-0.00039124979
0.0005431748
-0.0004439183
0.00056023474
-0.000499679
0.00057595587
-0.0005584819
0.00058977361
-0.0006200681
0.00060104902
-0.00068430162
0.00060924872
-0.00075086723
0.00061334267
-0.00081927216
0.00061297194
-0.00088903926
0.00060738017
-0.00095962951
0.00059581807
-0.001030295
0.00057761333
-0.0011001517
0.00055203808
-0.0011683438
0.00051862105
-0.0012335829
0.0004763746
-0.0012945964
0.00042501387
-0.0013499207
0.00036402657
-0.0013977483
0.00029308686
-0.0014361543
0.00021214026
-0.0014630211
0.00012170304
-0.0014763376
2.2846821e-05
-0.0014739537
-8.2785529e-05
-0.001454511
-0.00019212955
-0.0014179789
-0.00030121618
-0.0013651825
-0.00040504927
-0.0012998902
-0.00049849884
-0.0012255597
-0.00057914391
-0.0011462057
-0.0006459618
-0.00106446
-0.00070153925
-0.00098137027