/*--------------------------------*- C++ -*----------------------------------*\
  =========                 |
  \\      /  F ield         | OpenFOAM: The Open Source CFD Toolbox
   \\    /   O peration     | Website:  https://openfoam.org
    \\  /    A nd           | Version:  9
     \\/     M anipulation  |
\*---------------------------------------------------------------------------*/
FoamFile
{
    format      ascii;
    class       volScalarField;
    location    "0.58";
    object      alpha.phase1;
}
// * * * * * * * * * * * * * * * * * * * * * * * * * * * * * * * * * * * * * //

dimensions      [0 0 0 0 0 0 0];

internalField   nonuniform List<scalar> 
10000
(
4.6272963e-84
4.6272963e-84
8.126335e-83
3.599471e-81
5.745858e-81
2.9436554e-81
8.6706367e-82
2.4529914e-82
2.1478218e-82
2.1478218e-82
5.7371829e-81
1.5657063e-78
8.2457267e-77
1.0874799e-75
6.2615208e-75
2.3560019e-74
6.8520583e-74
1.5148953e-73
1.9859206e-73
2.4743809e-72
2.5477807e-70
2.4180419e-68
1.9495699e-66
1.3734796e-64
9.1907582e-63
6.5895149e-61
4.6702383e-59
3.7632362e-57
6.1291084e-55
2.7735708e-53
5.2757628e-52
7.9525546e-48
4.2301206e-44
9.3382742e-44
3.482905e-43
3.4390143e-43
1.6751405e-43
2.4127492e-44
2.6945035e-45
2.4058168e-45
6.2073627e-45
7.8490738e-44
1.0087792e-42
1.0914191e-41
9.536713e-41
6.5993605e-40
3.6744112e-39
1.6706745e-38
5.9940031e-38
1.7365286e-37
2.254977e-36
2.5713814e-34
2.2788179e-32
1.2790382e-30
3.7032e-29
2.9373206e-28
1.3098985e-28
1.7100236e-29
1.9765694e-30
1.9754719e-32
2.1720371e-34
6.8108615e-36
1.9263072e-36
6.8681843e-37
2.0480446e-37
3.0250056e-38
1.9141662e-39
6.0042014e-41
8.8957669e-43
7.7170151e-45
6.7546629e-47
5.7849149e-49
4.1462757e-51
2.6889697e-53
1.785918e-55
8.1574432e-58
3.0291353e-60
1.4454565e-62
8.0766749e-65
4.5106912e-67
2.3927642e-69
1.2728693e-71
5.3035109e-73
2.0744973e-73
7.2809154e-74
2.389087e-74
6.6356882e-75
1.3455593e-75
1.306182e-76
3.3154113e-78
1.4627529e-80
4.3525252e-83
4.3525252e-83
5.2276248e-83
1.1876897e-82
3.9201608e-82
6.9461014e-82
2.6806365e-82
2.1525122e-82
2.1525122e-82
5.1235601e-84
8.1912706e-83
2.8972028e-81
4.2235662e-80
7.3481238e-80
6.454351e-80
4.7341377e-80
2.2603609e-80
4.5940716e-81
3.5977269e-82
4.7268238e-81
9.9811666e-79
6.2560961e-77
8.6712638e-76
5.7973906e-75
2.2401422e-74
6.4182097e-74
1.3310733e-73
1.9199813e-73
3.1842292e-71
4.2352163e-69
3.5817178e-67
2.4363293e-65
1.515816e-63
9.1101954e-62
7.2989341e-60
8.4516655e-58
9.7113173e-56
7.549511e-54
7.2450214e-52
5.3682001e-49
1.3385241e-46
1.8663772e-42
1.5384968e-42
8.9492375e-43
1.174925e-40
1.2396642e-40
4.4764694e-41
2.5652149e-42
1.480535e-43
9.961823e-43
1.2849007e-41
1.4548094e-40
1.3977789e-39
1.0607513e-38
5.8360995e-38
2.2322299e-37
6.1113834e-37
1.3626946e-36
2.8977243e-36
2.6051171e-34
2.3154772e-32
1.3008126e-30
3.7663991e-29
2.9408371e-28
1.3378062e-27
4.9272675e-28
4.8516596e-27
1.1629855e-27
1.4902112e-29
9.5800654e-33
2.1720496e-34
8.6472203e-34
2.0105e-34
5.9396246e-35
1.3182447e-35
1.4316499e-36
7.1494554e-38
1.3262259e-39
9.2654454e-42
5.6985415e-44
4.0444028e-46
2.4414439e-48
1.3240668e-50
1.1668365e-52
7.0577229e-55
2.1712473e-57
1.1223774e-59
6.9424222e-62
3.9046553e-64
2.0532949e-66
1.0187366e-68
4.9251916e-71
6.4135547e-73
9.681532e-74
2.7848691e-74
7.1673905e-75
1.3408489e-75
1.2369295e-76
3.2868427e-78
1.9276038e-80
3.4474783e-82
2.0493394e-81
5.9937796e-81
1.7552825e-80
1.5680994e-80
8.2604406e-81
9.1361792e-82
2.4888771e-82
2.3853391e-82
6.3043801e-81
1.2840822e-79
4.7187493e-78
4.175881e-77
5.9224433e-77
4.9323794e-77
3.3933316e-77
1.5660376e-77
3.337087e-78
3.0837906e-79
2.4839891e-80
8.2818662e-79
5.1405437e-77
3.6714863e-76
1.3120359e-75
4.1796081e-73
7.7904433e-73
2.0867513e-73
1.2052112e-72
5.5711783e-68
5.2397089e-66
4.4079213e-64
2.9595265e-62
1.8178277e-60
1.0952806e-58
9.1621394e-57
1.1583595e-54
1.3064155e-52
9.7228323e-51
1.029416e-48
4.1109839e-46
2.1554637e-43
1.6473737e-39
1.3140805e-39
5.0966191e-40
1.2617894e-37
1.3956448e-37
5.4253039e-38
3.5828683e-39
5.6526407e-41
1.8560927e-40
2.1455648e-39
2.3151791e-38
2.1425988e-37
1.5964176e-36
8.8234582e-36
3.4483563e-35
9.680348e-35
2.2776837e-34
1.2893049e-33
1.0427976e-31
8.2916643e-30
4.3245286e-28
1.1990196e-26
1.2770578e-25
4.1139107e-25
2.0372646e-25
1.191548e-24
3.255453e-25
7.3330507e-27
4.7701661e-30
7.7077253e-31
1.0704454e-30
2.0530753e-31
5.2356207e-32
8.8924579e-33
8.3022927e-34
4.4147595e-35
9.366588e-37
6.5558873e-39
3.3085987e-41
1.9844381e-43
9.9663494e-46
4.8313478e-48
5.1824874e-50
3.5876009e-52
1.4618394e-54
8.8020289e-57
5.5073172e-59
3.0899494e-61
1.6272029e-63
8.0595251e-66
3.8127678e-68
3.2389589e-70
2.2738212e-71
4.435427e-72
7.638576e-73
8.7082373e-74
7.0161921e-75
4.2677012e-76
1.2149912e-77
6.8195039e-79
3.2667032e-78
7.9511599e-78
2.0942287e-77
1.8912671e-77
1.2371064e-77
2.2825701e-78
5.6711803e-79
3.6589918e-79
3.4339523e-78
1.1145927e-76
4.2368326e-75
2.4611785e-74
3.1123369e-74
2.5652674e-74
1.7231795e-74
7.7976158e-75
1.658565e-75
2.2991113e-76
1.1699304e-77
1.0649476e-78
5.5187685e-77
8.7400506e-76
1.8113445e-70
1.9607461e-69
9.4499027e-70
3.8079187e-71
1.5381213e-72
2.1177387e-65
3.998584e-63
3.5628783e-61
2.4759848e-59
1.5557991e-57
9.5076108e-56
8.0532917e-54
1.0277771e-51
1.2270724e-49
8.9485173e-48
9.7577966e-46
3.1023976e-43
2.3263707e-40
1.0618804e-36
8.272416e-37
3.4888568e-37
9.7066145e-35
1.1529067e-34
4.8728645e-35
3.7544629e-36
3.5382398e-38
3.2136597e-38
2.7319419e-37
2.8072079e-36
2.4964939e-35
1.8185041e-34
1.001952e-33
3.9661193e-33
1.1368417e-32
3.0315561e-32
4.8646403e-31
2.9786157e-29
1.7065006e-27
8.2495842e-26
2.2045614e-24
3.5735753e-23
6.9725941e-23
5.2664808e-23
2.0490121e-22
6.3393555e-23
2.3475285e-24
1.4674643e-27
3.5512252e-27
8.72283e-28
1.590969e-28
3.5207217e-29
4.5722517e-30
3.6253335e-31
2.0269193e-32
4.8780737e-34
3.4820988e-36
1.3588752e-38
5.8646825e-41
1.6714715e-43
6.7320015e-46
2.0717939e-47
1.7340175e-49
8.2449636e-52
5.3758544e-54
3.3258475e-56
1.8607984e-58
9.7883059e-61
4.8188927e-63
2.2365726e-65
1.5853483e-67
1.0339137e-68
2.2424696e-69
4.3760202e-70
6.2898203e-71
5.9475702e-72
3.2879267e-73
8.5219083e-75
8.2235927e-76
3.5690263e-75
7.5961865e-75
1.7989481e-74
1.6096485e-74
1.1054001e-74
2.5329462e-75
5.9959621e-76
2.6684067e-76
1.4230632e-75
5.7257634e-74
2.2128186e-72
1.0664691e-71
1.2558328e-71
1.0313354e-71
6.822627e-72
3.0481368e-72
6.4937971e-73
1.1922072e-73
3.007698e-75
2.7716887e-76
7.0319337e-75
2.604018e-72
1.4255824e-67
1.0328945e-66
4.2407014e-67
9.1981654e-69
2.1245374e-70
1.1431195e-64
1.7947597e-60
1.999833e-58
1.4848379e-56
9.7108392e-55
6.016355e-53
4.92496e-51
6.4899159e-49
8.1128295e-47
5.9559639e-45
6.535683e-43
1.8227743e-40
1.6700801e-37
5.4040786e-34
4.1344477e-34
1.8475867e-34
5.597104e-32
7.4305841e-32
3.4391677e-32
3.1709005e-33
3.5033424e-35
4.8840489e-36
2.7154896e-35
2.6058915e-34
2.2178489e-33
1.5740904e-32
8.626547e-32
3.446833e-31
1.0151942e-30
3.4631392e-30
1.0661277e-28
7.2160026e-27
3.7535636e-25
1.2304283e-23
2.8133944e-22
5.5914145e-21
8.5200573e-21
1.0040183e-20
2.6468888e-20
9.131512e-21
4.8937564e-22
1.2168442e-24
2.0695919e-24
4.2791203e-25
9.3980841e-26
1.8783954e-26
1.9197369e-27
1.2548284e-28
7.1738603e-30
1.935434e-31
1.4296882e-33
3.8746929e-36
5.0057893e-39
1.4759097e-41
9.4280442e-44
8.3172776e-45
8.4752141e-47
4.0397293e-49
2.6725759e-51
1.6194662e-53
9.0667441e-56
4.7463338e-58
2.3094182e-60
1.0458916e-62
6.0793482e-65
3.4499958e-66
8.6389412e-67
1.8561856e-67
3.0177799e-68
3.0909948e-69
1.6631264e-70
4.4209915e-72
7.8880697e-73
2.96758e-72
5.5725499e-72
1.1653783e-71
1.1010553e-71
7.0239738e-72
1.7988449e-72
4.0273872e-73
1.455033e-73
4.7676801e-73
2.1490178e-71
8.3631581e-70
3.6505443e-69
4.1076579e-69
3.3698172e-69
2.2092981e-69
9.7897802e-70
2.101897e-70
4.6549203e-71
2.0739373e-71
4.0575553e-73
1.0924222e-71
2.036617e-66
7.0951812e-65
3.7641414e-64
1.0904814e-64
1.0251883e-66
2.5303532e-67
1.3969614e-64
9.5097749e-59
8.2892442e-56
1.0498608e-53
4.6743835e-52
3.0406001e-50
2.3224923e-48
3.1275465e-46
3.9402089e-44
3.0433386e-42
3.2046971e-40
9.6310664e-38
1.0690836e-34
2.2544562e-31
1.7049763e-31
7.6601266e-32
2.5035427e-29
3.8175296e-29
1.9371763e-29
2.1555223e-30
3.1124357e-32
6.2815715e-34
2.260122e-33
1.9168788e-32
1.5461872e-31
1.0612565e-30
5.7598296e-30
2.3118474e-29
7.0708735e-29
3.8351122e-28
1.6786337e-26
1.0809776e-24
5.5441597e-23
1.951699e-21
4.0104685e-20
6.0377202e-19
7.8974145e-19
1.3429644e-18
2.6579379e-18
1.0086412e-18
7.2512034e-20
1.7326338e-21
7.0154369e-22
1.5986182e-22
4.1621869e-23
7.994011e-24
6.8993638e-25
3.6014227e-26
2.0077219e-27
6.0012256e-29
4.7111397e-31
7.0713689e-34
6.6022999e-37
4.8575364e-39
2.4399405e-41
3.6987848e-42
3.4696541e-44
1.6375792e-46
1.0818971e-48
6.4943054e-51
3.6247246e-53
1.8773271e-55
8.9407335e-58
3.9021461e-60
1.9249289e-62
9.3537975e-64
2.6534488e-64
6.0648656e-65
1.0756536e-65
1.187375e-66
6.296308e-68
1.7525399e-69
6.5835653e-70
1.9528966e-69
3.2980868e-69
6.0671121e-69
5.9289021e-69
3.5188089e-69
9.4178274e-70
2.0029688e-70
6.2633339e-71
1.3452997e-70
6.4397864e-69
2.5105489e-67
1.0326235e-66
1.1288096e-66
9.2611041e-67
6.0436417e-67
2.668314e-67
5.795283e-68
1.411351e-68
5.3460269e-68
6.2573889e-70
1.567951e-68
1.8029757e-63
2.59836e-62
1.0873939e-61
1.9632095e-62
1.0498349e-64
1.0236864e-63
5.6644679e-62
9.7651131e-59
6.6650537e-54
1.7434353e-51
2.0563196e-49
1.2372997e-47
8.4203087e-46
1.1742853e-43
1.5745016e-41
1.2177851e-39
1.2103307e-37
2.3899944e-35
5.1719108e-32
7.9267039e-29
5.7756097e-29
2.475661e-29
8.9962069e-27
1.5744788e-26
8.7854525e-27
1.1799334e-27
2.2052662e-29
1.2034507e-31
1.9529672e-31
1.1501916e-30
8.7166353e-30
5.6748493e-29
3.013438e-28
1.204926e-27
3.9402066e-27
4.1137617e-26
2.2028541e-24
1.2114087e-22
5.7253031e-21
1.964741e-19
4.1296496e-18
4.9983328e-17
5.8125584e-17
1.4063541e-16
2.1818259e-16
8.7175929e-17
8.0789078e-18
4.9822935e-19
1.7322804e-19
4.9143198e-20
1.3841327e-20
2.6321817e-21
2.0682855e-22
8.6379691e-24
4.4904124e-25
1.4707038e-26
1.2545636e-28
3.9574949e-32
1.7921163e-34
9.2471945e-37
3.7776032e-39
1.3579623e-39
1.0489964e-41
5.5273915e-44
3.5802915e-46
2.1500443e-48
1.1895619e-50
6.0266788e-53
2.7599576e-55
1.1283942e-57
4.7575423e-60
2.1030578e-61
6.6375014e-62
1.613692e-62
3.109885e-63
3.6255968e-64
1.8552181e-65
5.7508545e-67
4.4909611e-67
1.0440936e-66
1.6096988e-66
2.6180855e-66
2.5878075e-66
1.4386148e-66
3.8847759e-67
7.8744258e-68
2.2031027e-68
3.2953172e-68
1.6151532e-66
6.2835908e-65
2.4895571e-64
2.6709389e-64
2.1951662e-64
1.4303619e-64
6.3125048e-65
1.3927736e-65
3.4465627e-66
3.0076975e-65
6.1636318e-67
2.6405497e-63
6.4374112e-61
6.9231151e-60
2.4727576e-59
2.3697592e-59
9.4465321e-61
6.9744257e-60
1.4092538e-58
4.4878126e-57
7.6044795e-54
1.7772455e-51
2.8059902e-47
3.7998644e-45
3.7187741e-43
3.3559882e-41
5.1397161e-39
3.7481278e-37
4.5169169e-35
1.407857e-34
2.1392723e-29
2.4024491e-26
1.6592541e-26
6.7014281e-27
2.6909499e-24
5.2503639e-24
3.2063499e-24
5.1314081e-25
1.216299e-26
5.7730642e-29
1.6297583e-29
6.849075e-29
4.6357361e-28
2.4279967e-27
1.2220398e-26
4.8494374e-26
1.8687841e-25
3.9573467e-24
2.2800526e-22
1.1500435e-20
4.6252708e-19
1.4789335e-17
3.1656345e-16
2.9129539e-15
3.4898933e-15
7.2078171e-15
1.19736e-14
5.7287691e-15
7.0330967e-16
8.3178337e-17
3.2890108e-17
1.1765318e-17
3.539413e-18
6.5931838e-19
4.8711127e-20
1.6923136e-21
8.0213447e-23
2.8678561e-24
2.7204071e-26
7.0616925e-30
2.9262817e-32
9.3263314e-35
5.2911759e-36
3.7591355e-37
2.359082e-39
1.5098133e-41
9.7332932e-44
5.811504e-46
3.1483976e-48
1.5252475e-50
6.4454145e-53
2.2849889e-55
7.3927026e-58
3.9331998e-59
1.4131297e-59
3.5981016e-60
7.4373351e-61
8.9456855e-62
4.5119697e-63
1.8032991e-64
2.4750385e-64
4.6310815e-64
6.5759539e-64
9.5213278e-64
9.3944859e-64
4.9074264e-64
1.3115391e-64
2.5411615e-65
6.4841202e-66
7.1777254e-66
3.4957241e-64
1.3518129e-62
5.2304624e-62
5.5449394e-62
4.5725317e-62
2.9813912e-62
1.3181263e-62
2.9621021e-63
6.9483065e-64
6.2046007e-63
6.3850902e-62
5.9045483e-60
1.8572832e-58
1.528844e-57
4.7714891e-57
2.3948978e-56
1.2974802e-54
4.6039497e-53
5.6739449e-54
5.6269121e-53
2.4102311e-51
3.8099557e-50
3.144976e-47
2.8509856e-43
6.814517e-41
9.608476e-39
1.3085796e-36
9.1984145e-35
1.6544835e-32
1.0466233e-32
8.8560411e-27
6.3306571e-24
3.8847643e-24
2.5987878e-24
7.0774193e-22
1.4259853e-21
9.3196002e-22
1.7384766e-22
5.2242967e-24
3.0470677e-26
1.2550925e-27
1.4149601e-26
3.3543093e-26
7.9230331e-26
3.8233007e-25
1.544257e-24
8.607175e-24
3.1262536e-22
1.8165645e-20
8.6985556e-19
3.2228344e-17
9.2614284e-16
1.328046e-14
6.751932e-14
9.6140731e-14
1.0080014e-13
2.2014505e-13
2.1900997e-13
4.6203871e-14
5.9367331e-15
2.9746542e-15
1.3819654e-15
5.0895667e-16
1.2149649e-16
1.1422229e-17
3.4745516e-19
1.1414803e-20
4.208695e-22
4.6073511e-24
1.0921525e-27
2.3462667e-30
7.6145666e-33
3.8755668e-33
8.3748385e-35
4.9371965e-37
3.3086104e-39
2.1397183e-41
1.2521322e-43
6.4658626e-46
2.8377172e-48
9.8876351e-51
1.9769901e-53
3.5084881e-56
5.9899551e-57
2.6509935e-57
6.9858814e-58
1.562405e-58
1.9132358e-59
9.4331379e-61
5.6025679e-62
1.1192158e-61
1.7275086e-61
2.2792533e-61
2.9559302e-61
2.8837191e-61
1.4205887e-61
3.7143856e-62
6.8998862e-63
1.6244862e-63
1.418463e-63
6.6739139e-62
2.553574e-60
9.7375436e-60
1.0251153e-59
8.4919338e-60
5.549159e-60
2.4627261e-60
5.6228314e-61
1.2924933e-61
9.5805716e-61
5.970895e-59
2.6983393e-57
4.6213314e-56
2.9069883e-55
8.9701345e-55
9.3278732e-54
8.8926056e-52
7.7454968e-50
5.2728845e-48
2.8681312e-46
6.084555e-47
6.7104985e-46
2.2719998e-44
5.9173886e-43
1.2789197e-40
1.6289086e-36
2.7600848e-34
2.2833003e-32
4.1155743e-30
2.40862e-30
2.6008465e-24
1.4744214e-21
7.5302599e-22
3.0214467e-20
2.0874369e-19
3.2288614e-19
2.149378e-19
4.4661598e-20
1.6618805e-21
1.2346092e-23
2.6268768e-25
8.8092222e-24
3.4799333e-24
2.7207473e-24
9.3355688e-24
4.0957331e-23
3.9782658e-22
1.9426428e-20
1.1024828e-18
5.1789753e-17
1.974506e-15
3.4277938e-14
1.8156746e-13
1.1039245e-12
8.9128813e-13
3.2095279e-12
3.8134408e-12
5.6522736e-12
1.5257617e-12
1.0619061e-13
1.1921822e-13
9.5800074e-14
3.4660074e-14
7.975894e-15
1.0988579e-15
5.1531981e-17
1.462046e-18
5.2343137e-20
6.5668128e-22
1.0491753e-25
8.6702875e-29
1.0395966e-30
1.021004e-30
1.3217946e-32
8.4485499e-35
5.7797119e-37
3.6887258e-39
2.0527014e-41
9.4270643e-44
4.1925134e-46
2.0725816e-49
5.3336697e-52
2.8323993e-54
6.6205102e-55
4.9478625e-55
1.2077085e-55
2.8265752e-56
3.4791079e-57
1.7099443e-58
1.7622281e-59
4.1899304e-59
5.5165313e-59
6.7332206e-59
7.9259992e-59
7.5723394e-59
3.535134e-59
8.9786039e-60
1.6030826e-60
3.5104949e-61
2.5873127e-61
1.1430492e-59
4.3028799e-58
1.6275457e-57
1.7075875e-57
1.4223531e-57
9.3261067e-58
4.1613368e-58
9.5928505e-59
2.4755187e-59
1.7928107e-58
2.1007241e-56
7.1794642e-55
8.8867928e-54
4.8201661e-53
1.4128365e-52
2.0720489e-51
2.8570696e-49
3.0823083e-47
2.7309173e-45
2.1503853e-43
1.5328418e-41
9.7955697e-40
5.1477415e-38
1.1481162e-36
5.0049161e-37
4.2639381e-36
4.2924311e-32
3.4313182e-30
5.3305668e-29
2.9948574e-25
8.1782408e-23
3.2423481e-19
1.5897858e-19
2.2061288e-18
3.4740302e-17
5.4279739e-17
3.7161978e-17
8.6471466e-18
4.0323831e-19
4.0118859e-21
1.3125394e-22
4.890249e-21
9.5281052e-22
5.684393e-22
1.7593164e-22
8.8217892e-22
1.6219114e-20
9.1989726e-19
5.171388e-17
2.6080237e-15
6.3877644e-14
4.0548995e-13
4.9091155e-12
2.7563253e-11
1.9856256e-11
8.8669537e-11
7.4371291e-11
1.6614846e-10
3.5538867e-11
2.0177357e-13
1.1017864e-13
9.6013778e-14
5.0378924e-13
4.5919174e-13
1.1410691e-13
4.3570762e-15
1.0968077e-16
6.2026729e-18
1.1807373e-19
1.3308405e-23
2.1110458e-28
1.4865234e-28
1.4688161e-28
1.5405298e-30
1.107749e-32
7.6805231e-35
4.646941e-37
2.2691838e-39
1.1575315e-41
6.8385042e-46
7.3649444e-48
5.4672081e-50
2.5584909e-52
5.3869371e-53
8.9113325e-53
1.9905818e-53
4.5223863e-54
5.376516e-55
2.7596038e-56
5.3701503e-57
1.3188702e-56
1.5322696e-56
1.7053249e-56
1.8519347e-56
1.7161195e-56
7.6360217e-57
1.8781042e-57
3.2270386e-58
6.613576e-59
4.4188251e-59
1.7805939e-57
6.5465555e-56
2.4681193e-55
2.5878046e-55
2.1693387e-55
1.4280479e-55
6.4129118e-56
1.4883021e-56
4.7271548e-57
4.4807436e-56
5.3525199e-54
1.473801e-52
1.4454826e-51
7.199837e-51
1.6109494e-50
2.4874036e-49
5.2906358e-47
7.7513987e-45
8.1163713e-43
7.2363172e-41
6.0163421e-39
4.7431417e-37
3.5473682e-35
2.4748591e-33
1.4462524e-31
1.9331511e-30
8.988905e-31
2.1980292e-29
1.4395199e-26
1.0155254e-18
8.2119143e-23
5.7591586e-17
3.017992e-17
9.9800997e-18
1.4013255e-15
4.7590045e-15
3.8730856e-15
1.1737396e-15
7.7132102e-17
1.1268472e-18
8.152289e-20
2.7614496e-18
2.874368e-19
8.8145623e-20
3.1526376e-21
1.423283e-20
5.2854415e-19
3.2813876e-17
1.9642703e-15
6.2309523e-14
5.7979851e-13
1.4933106e-11
1.8001285e-10
5.8036609e-10
3.8264606e-10
1.815955e-09
1.6951765e-09
4.1823061e-09
1.3923254e-09
2.4780535e-09
1.9601742e-09
6.436021e-10
6.7149867e-11
3.8113558e-11
8.3655432e-12
3.1807782e-13
5.8662357e-15
5.5021971e-16
1.9412614e-17
4.414112e-20
2.3056848e-25
1.4829781e-26
1.3358488e-26
1.3813163e-28
1.0396235e-30
6.9210399e-33
7.2658335e-35
1.2230964e-37
1.3314515e-41
2.4780308e-44
6.0912799e-46
4.8198687e-48
2.8257407e-50
9.1146939e-51
1.301005e-50
2.9143888e-51
6.3659069e-52
7.2838703e-53
4.1113188e-54
1.5701823e-54
3.5168961e-54
3.7288229e-54
3.7355247e-54
3.7916982e-54
3.3839737e-54
1.4422401e-54
3.4335689e-55
5.6822551e-56
1.0955385e-56
7.1451574e-57
2.5526366e-55
9.0837528e-54
3.4256124e-53
3.5970841e-53
3.0367272e-53
2.0074691e-53
9.0768673e-54
2.1369435e-54
7.6749488e-55
1.4957502e-53
1.0995194e-51
2.3909775e-50
1.968309e-49
9.1062926e-49
1.496312e-48
2.3742451e-47
5.8294164e-45
1.2015661e-42
1.676513e-40
1.7095338e-38
1.5281242e-36
1.2925076e-34
1.0457991e-32
8.2076581e-31
6.1032564e-29
3.8419308e-27
1.7392252e-25
2.9968009e-23
1.3830894e-20
2.5600701e-16
4.9654011e-15
1.4614291e-14
6.4578085e-15
8.2121181e-16
1.1695693e-14
6.5099047e-14
2.1207535e-13
9.2854185e-14
7.7667329e-15
2.1065182e-16
9.0889567e-17
1.2365917e-15
1.1994358e-16
1.624481e-17
9.6314751e-20
1.9200092e-19
1.3086222e-17
9.0412079e-16
3.5408289e-14
3.5541591e-13
1.0269081e-11
6.7559619e-10
5.6662407e-09
9.1852431e-09
4.1670059e-09
2.8809188e-07
5.3700933e-07
2.2056073e-07
1.9186469e-08
1.5019935e-08
1.2880986e-08
4.0557397e-11
4.32408e-12
2.2394183e-12
2.1690703e-12
2.7893065e-13
1.107963e-13
6.6407299e-14
4.4431843e-15
1.5384663e-17
7.0793512e-23
1.1331995e-24
9.730829e-25
8.4261355e-27
1.3951981e-28
5.4776262e-31
8.2310782e-35
2.4080829e-37
5.6667077e-40
4.2696266e-42
7.237769e-44
4.6304895e-46
2.9467285e-48
1.3233561e-48
1.5584158e-48
3.436273e-49
7.5291118e-50
8.9269136e-51
5.3710402e-52
4.1342808e-52
7.9595765e-52
8.0053449e-52
7.1600295e-52
6.851197e-52
5.8316651e-52
2.3979657e-52
5.5312734e-53
8.8184473e-54
1.6061892e-54
1.1018852e-54
3.4017988e-53
1.1595272e-51
4.3832399e-51
4.6169912e-51
3.9280315e-51
2.6069201e-51
1.1869457e-51
2.8607103e-52
1.0651003e-52
3.7486276e-51
1.8783828e-49
3.1346168e-48
2.2100527e-47
8.8369277e-47
1.9253851e-46
6.7870772e-45
6.6301307e-43
1.2154395e-40
2.2293433e-38
2.9388891e-36
2.9441758e-34
2.6198612e-32
2.2229066e-30
1.8268211e-28
1.4023057e-26
9.4781195e-25
6.7155446e-23
1.1244607e-20
2.6415147e-18
6.4225752e-16
6.5052766e-12
4.8905207e-12
8.2982339e-13
8.6532222e-15
5.529837e-15
1.4343759e-11
1.0722267e-11
9.3066147e-14
4.718552e-13
2.554371e-14
3.709735e-14
3.1814779e-13
4.0358071e-14
3.2448017e-15
1.6873178e-17
3.2241754e-18
2.5668568e-16
1.2361215e-14
1.7803929e-13
6.2473854e-12
3.2459796e-10
1.8699841e-08
6.8217575e-08
1.160856e-07
5.0340046e-07
1.2725873e-06
1.2952639e-06
1.2334397e-06
4.5895487e-07
1.7135284e-08
1.3831715e-08
2.1243655e-07
2.7781918e-08
2.4852671e-12
3.0309601e-13
1.4709693e-13
1.4938534e-13
5.9050027e-13
2.3093254e-13
6.6531008e-15
5.0813358e-19
2.6061494e-21
4.2147265e-23
5.7706603e-25
1.5117066e-28
6.3186409e-31
1.0663507e-33
1.0616996e-35
6.657878e-38
9.0325914e-40
6.9670574e-42
3.6200821e-44
3.003257e-46
1.5509844e-46
1.5899065e-46
3.3370956e-47
7.5728742e-48
1.0205873e-48
6.7495273e-50
9.3057222e-50
1.5477132e-49
1.5107711e-49
1.2110616e-49
1.1062082e-49
8.7932633e-50
3.5304863e-50
7.8976489e-51
1.2134724e-51
2.0948262e-52
1.6259712e-52
4.2503417e-51
1.3729281e-49
5.2018577e-49
5.5034391e-49
4.7226089e-49
3.1437743e-49
1.4410836e-49
3.5866804e-50
1.2398273e-50
5.6670422e-49
2.5575055e-47
3.4896746e-46
2.2071326e-45
7.5061548e-45
2.7077777e-44
1.7891674e-42
1.5336664e-40
1.4115747e-38
2.1024488e-36
3.4186409e-34
4.1711572e-32
4.0091613e-30
3.5316107e-28
2.8756186e-26
2.075083e-24
1.5403632e-22
2.3921954e-20
2.3626557e-18
1.7381476e-16
1.7439234e-16
1.2584287e-10
8.1441966e-11
3.766695e-12
5.6888632e-15
4.8562839e-15
6.7025777e-10
4.2504908e-11
1.4768731e-10
9.5260641e-12
1.5304242e-13
6.6644978e-12
3.6879275e-11
9.1319486e-12
6.5467579e-13
9.0482696e-16
5.9447174e-17
2.6418079e-15
6.897867e-14
3.1729568e-12
1.0828038e-10
1.5371518e-08
3.2699204e-07
5.5631369e-07
1.0850164e-06
1.5460672e-06
9.3173682e-07
1.1903798e-06
1.4435262e-06
1.4560727e-06
4.2035951e-07
2.4210502e-08
4.0177595e-07
1.2574462e-09
7.3631751e-12
7.7323992e-14
3.8446364e-14
6.7914957e-14
5.2125484e-13
2.4505139e-13
7.3983857e-15
1.6593466e-16
6.2539529e-18
5.9609786e-21
9.5188253e-25
4.937135e-28
7.109651e-30
9.363308e-32
6.5838443e-34
7.3413843e-36
8.8787173e-38
5.8767626e-40
2.6040826e-42
2.2989571e-44
1.5283367e-44
1.3938556e-44
2.7785065e-45
6.7854572e-46
1.1011809e-46
1.0909065e-47
1.834933e-47
2.6064318e-47
2.4990037e-47
1.815051e-47
1.5742871e-47
1.1793419e-47
4.624209e-48
1.0036719e-48
1.4875525e-49
2.4404601e-50
2.2946682e-50
5.0131626e-49
1.5184835e-47
5.7531172e-47
6.124282e-47
5.303809e-47
3.5367092e-47
1.631533e-47
4.2051886e-48
1.2690888e-48
6.0989205e-47
2.7103305e-45
3.3328173e-44
1.9822582e-43
6.1054667e-43
2.6231522e-42
2.3571348e-40
2.3454459e-38
2.2693513e-36
2.216131e-34
2.8541913e-32
3.8470629e-30
4.1174568e-28
3.6343214e-26
2.7974282e-24
2.1267484e-22
3.161957e-20
6.5126075e-18
2.8037632e-16
3.0421831e-15
1.7450139e-13
1.984807e-10
8.8573566e-11
4.0978619e-13
4.8856336e-15
4.8562839e-15
6.2814493e-15
1.3874115e-11
2.5353955e-09
8.2591555e-12
9.2166567e-11
2.5975043e-09
8.9743678e-10
1.1867322e-09
1.3238224e-10
6.3023193e-14
-1.6826231e-16
6.8612735e-15
7.0751762e-13
3.6041904e-11
1.3525885e-09
3.2484479e-08
7.0933577e-06
5.3558123e-05
3.9627846e-05
7.4655709e-07
2.8851899e-07
3.0034133e-07
9.8387078e-07
3.034687e-06
8.7982216e-07
5.7979503e-08
1.8113149e-07
1.1412353e-06
7.1242631e-07
1.6179986e-14
1.25156e-14
1.727105e-14
1.2518606e-13
1.016496e-13
4.1618335e-15
2.7268178e-16
2.8009498e-17
4.1300531e-19
1.5698251e-23
1.9447325e-26
3.3734497e-28
3.6453304e-30
2.3609952e-32
4.7461831e-34
4.7831813e-36
2.1081572e-38
7.3924004e-41
1.4013303e-42
1.2580768e-42
1.0520464e-42
2.071193e-43
6.0187908e-44
1.2520359e-44
1.6211309e-45
3.1573136e-45
3.8961241e-45
3.587805e-45
2.411884e-45
1.980815e-45
1.4134808e-45
5.4101402e-46
1.1403689e-46
1.6319073e-47
2.5485068e-48
3.0861804e-48
5.6091975e-47
1.5766767e-45
5.94931e-45
6.4007896e-45
5.5834551e-45
3.7246957e-45
1.7286714e-45
4.6089412e-46
1.1917493e-46
5.1952165e-45
2.4034507e-43
2.7771954e-42
1.5847676e-41
5.0295448e-41
1.6269896e-40
1.3919273e-38
1.6690505e-36
1.784698e-34
1.7348852e-32
1.6906589e-30
2.034577e-28
2.3463377e-26
2.0419238e-24
1.6828749e-22
2.5992096e-20
5.6688991e-18
3.6039016e-16
1.2531688e-14
5.6275178e-13
1.2554377e-11
2.7049223e-11
2.3282385e-11
6.6109659e-13
1.795805e-05
2.8593808e-05
6.9479371e-12
8.5471149e-08
4.068337e-10
1.4437197e-11
1.4449382e-10
1.0104022e-06
3.43772e-06
7.4314602e-08
2.5793366e-08
3.807022e-09
5.5212554e-15
6.6695638e-13
2.4706113e-12
1.5283291e-10
8.3473704e-09
1.8586419e-07
4.5912552e-05
0.00012102587
0.00011228381
2.8851899e-07
2.80723e-07
5.1349523e-07
3.3872507e-06
6.0347788e-06
5.0175644e-06
4.9095613e-07
1.8404341e-07
3.4744607e-06
1.5738911e-05
9.6316792e-07
1.2510591e-14
1.2510591e-14
1.2510591e-14
3.2120926e-14
6.0247763e-16
1.6772014e-16
2.3876295e-17
5.3125596e-19
8.621619e-23
9.9902569e-25
1.6537112e-26
1.2175405e-28
2.3246664e-30
1.9380856e-32
1.1810581e-34
4.4421876e-37
1.947683e-39
1.6075693e-40
1.2481324e-40
4.8878946e-41
1.5296239e-41
5.9895293e-42
1.9037693e-42
1.7552819e-43
4.5771071e-43
5.5351143e-43
4.3747433e-43
2.8526353e-43
2.2229972e-43
1.5176923e-43
5.6724089e-44
1.162395e-44
1.6081183e-45
2.3928241e-46
3.9351111e-46
5.970395e-45
1.5421113e-43
5.770477e-43
6.3094315e-43
5.5269965e-43
3.683729e-43
1.7194225e-43
4.7278829e-44
1.0578948e-44
3.6916409e-43
1.8432279e-41
2.0488454e-40
1.1367026e-39
4.1410678e-39
8.7387791e-39
4.0687503e-37
6.5197705e-35
6.2531751e-33
5.9720909e-31
5.641264e-29
6.3091175e-27
7.7028547e-25
8.0842381e-23
1.1720613e-20
2.8621506e-18
2.1312327e-16
3.753282e-15
6.463267e-14
1.2154182e-11
1.2507529e-10
3.8759416e-11
2.3277047e-11
1.7316512e-05
7.4532438e-05
7.7044629e-05
1.7926717e-05
2.1592749e-08
4.3366548e-10
4.2934582e-10
1.9473649e-07
2.0977391e-06
2.3701038e-05
5.7838376e-05
2.8418831e-05
4.5373399e-07
7.8444134e-11
2.4706787e-12
2.0740129e-10
5.365111e-10
2.2772287e-08
4.8139396e-06
9.9741609e-05
0.00012119271
0.0001122498
2.8392827e-07
2.3889125e-07
1.0189957e-06
6.0347788e-06
6.0347788e-06
5.9832155e-06
4.0384707e-07
3.5055264e-07
1.5379818e-05
1.9037593e-05
1.121548e-05
1.25156e-14
1.2510591e-14
6.2974912e-09
4.3404012e-08
8.374261e-17
-2.5359158e-16
-5.2409358e-16
3.9687897e-19
3.1956226e-21
5.1185535e-23
4.4946977e-25
4.9295106e-27
5.5444029e-29
3.4204463e-31
1.7734646e-33
9.0732537e-36
4.4109459e-38
1.1646734e-38
8.3896805e-39
2.8460115e-39
1.2672634e-39
7.1300843e-40
3.1945352e-40
1.2167804e-41
5.8701504e-41
6.8320702e-41
4.8202317e-41
3.0111562e-41
2.2317088e-41
1.4637615e-41
5.346322e-42
1.0663651e-42
1.4272149e-43
2.0254163e-44
4.730107e-44
6.0500988e-43
1.4242429e-41
5.2641441e-41
5.8811454e-41
5.1568986e-41
3.430509e-41
1.609691e-41
4.5497515e-42
9.012987e-43
2.3192566e-41
1.2490435e-39
1.3529826e-38
7.3561291e-38
2.9559895e-37
4.8410724e-37
6.8012562e-36
1.3077206e-33
1.3929482e-31
1.3867893e-29
1.3899307e-27
1.6248642e-25
2.3517238e-23
5.6035997e-21
1.014678e-18
7.0457323e-17
1.5534255e-15
1.7743267e-14
1.7747188e-14
4.4305749e-11
4.8556328e-10
1.4143948e-10
2.3174624e-11
2.69059e-05
7.7044629e-05
7.7292573e-05
7.7532434e-05
5.2954747e-06
2.2718801e-08
3.8272756e-07
1.83113e-06
4.4595557e-07
7.8692964e-06
0.00013280073
0.00013263698
3.7987357e-05
1.904141e-08
3.8390987e-10
5.3807803e-10
1.3614492e-09
2.880933e-08
1.3940757e-05
0.0001196655
0.00012077089
7.0084059e-05
2.3861107e-07
2.0365744e-07
3.5719551e-07
4.6812795e-06
6.0347788e-06
3.0929735e-06
4.656702e-07
1.1065677e-06
1.9405119e-05
1.9262752e-05
1.9037593e-05
5.5752554e-06
8.3675909e-11
2.9687526e-09
1.2177042e-08
-1.6540535e-16
-5.4089341e-16
-7.5163385e-16
4.8390636e-19
2.2027978e-19
9.2027216e-22
9.4518321e-24
7.3313918e-26
6.4004938e-28
7.87656e-30
4.2835654e-32
1.6979867e-34
1.4207684e-36
6.9201008e-37
4.7350736e-37
1.9195387e-37
1.2411291e-37
1.0605919e-37
5.1567993e-38
1.4294248e-39
6.6330599e-39
7.3922652e-39
4.7716616e-39
2.845147e-39
2.0100412e-39
1.2713245e-39
4.5426873e-40
8.8296747e-41
1.1441936e-41
1.5494027e-42
5.3313972e-42
5.8309523e-41
1.2442477e-39
4.5285049e-39
5.1864691e-39
4.5462666e-39
3.0146909e-39
1.4213434e-39
4.1188685e-40
7.3926254e-41
1.3660908e-39
7.5980658e-38
8.0513383e-37
4.2714133e-36
1.6326396e-35
3.2006542e-35
1.0993848e-34
1.1235649e-32
2.1452839e-30
2.8111089e-28
3.4117545e-26
4.0957139e-24
5.8961165e-22
1.5525474e-19
1.8981465e-17
4.7115922e-16
3.9711446e-15
2.8921388e-14
1.8066131e-14
1.4997471e-12
1.7272286e-09
6.3420707e-10
2.41378e-11
3.7871347e-11
7.1477175e-05
7.7155769e-05
7.7401731e-05
3.289822e-05
1.1035664e-07
1.4506722e-06
2.9085624e-06
4.2492286e-07
1.0181053e-07
4.295755e-05
0.00013477469
0.0001342731
2.2694753e-05
3.2085549e-08
1.3615154e-09
3.1265194e-08
5.232895e-08
2.2243694e-05
0.00011855207
0.00012030409
7.3500721e-05
2.007155e-07
1.7904691e-07
1.3467059e-07
9.1049367e-07
3.1194182e-06
2.9807578e-06
2.9285752e-06
1.7569363e-05
1.947303e-05
1.9267378e-05
1.9188253e-05
1.8660543e-05
4.5610102e-06
2.3785595e-10
-2.7119427e-22
-1.3000219e-16
-2.4177386e-16
-8.2585885e-17
3.79641e-16
1.5087732e-17
4.3429741e-19
3.5864784e-21
2.8790224e-23
1.8455256e-25
8.4218617e-28
2.756877e-30
9.4813687e-33
7.9610308e-35
3.6623744e-35
2.3112494e-35
1.6349959e-35
1.6305575e-35
1.5003074e-35
7.3445274e-36
1.5316715e-37
6.6036385e-37
7.044697e-37
4.2417754e-37
2.4130531e-37
1.628656e-37
9.9675251e-38
3.4888934e-38
6.6170779e-39
8.3083642e-40
1.0736713e-40
5.6080389e-40
5.3289192e-39
1.0287092e-37
3.6789595e-37
4.3283198e-37
3.7921437e-37
2.5041945e-37
1.1857706e-37
3.5173992e-38
5.8471926e-39
7.7020448e-38
4.1886037e-36
4.3283254e-35
2.2344447e-34
7.9513237e-34
2.122116e-33
3.520675e-33
5.9492984e-32
1.7354316e-29
2.7603911e-27
3.4432457e-25
3.8088135e-23
4.4298674e-21
7.3315072e-19
6.6585443e-17
1.6021397e-15
1.3400258e-14
7.6465846e-14
2.4560123e-14
2.4797156e-14
9.7202272e-09
8.0201381e-09
1.4953387e-09
7.1161226e-10
4.9076606e-06
6.6144152e-05
7.7646019e-05
6.7243758e-05
3.2321047e-06
4.3848789e-06
2.876718e-06
2.6773627e-07
8.4912298e-08
1.0165815e-07
9.0876249e-05
0.00013477469
6.4859992e-05
1.6566653e-07
2.6619771e-08
4.2144342e-08
8.8427591e-08
1.5405676e-05
0.00011989507
0.00012160883
0.0001064766
1.7505241e-07
1.3494358e-07
1.0422637e-07
1.0706015e-07
2.5436082e-07
6.4681013e-06
1.9114469e-05
1.947303e-05
1.9679788e-05
1.7641113e-05
8.4591587e-06
1.3102115e-05
1.2474184e-05
5.7894259e-06
7.5860382e-17
-9.6338098e-25
3.59344e-15
5.7320844e-15
2.4552881e-15
1.1589699e-16
2.9586299e-18
2.0751161e-20
1.7464934e-22
1.2232351e-24
6.4733129e-27
2.5386675e-29
5.0872214e-32
3.1119235e-33
1.9871204e-33
1.6331026e-33
1.9253891e-33
2.2232577e-33
1.928528e-33
8.8199133e-34
1.4279868e-35
5.8107141e-35
5.9373831e-35
3.3899896e-35
1.8416017e-35
1.1901733e-35
7.070528e-36
2.4282204e-36
4.499613e-37
5.4775043e-38
6.7549111e-39
5.4828971e-38
4.6009635e-37
8.0456526e-36
2.8240259e-35
3.4169428e-35
2.9935694e-35
1.9692647e-35
9.364526e-36
2.8389399e-36
4.4696523e-37