/*--------------------------------*- C++ -*----------------------------------*\
  =========                 |
  \\      /  F ield         | OpenFOAM: The Open Source CFD Toolbox
   \\    /   O peration     | Website:  https://openfoam.org
    \\  /    A nd           | Version:  9
     \\/     M anipulation  |
\*---------------------------------------------------------------------------*/
FoamFile
{
    format      ascii;
    class       volScalarField;
    location    "0.58";
    object      p;
}
// * * * * * * * * * * * * * * * * * * * * * * * * * * * * * * * * * * * * * //

dimensions      [1 -1 -2 0 0 0 0];

internalField   nonuniform List<scalar> 
10000
(
0
0.0053574364
0.019300533
0.038695368
0.064060795
0.095655244
0.13350169
0.17770386
0.22835814
0.28561113
0.34959291
0.42045617
0.49843094
0.58372434
0.67663278
0.77757849
0.88726555
1.006799
1.1305297
1.2626842
1.4044232
1.5562439
1.7183289
1.8910154
2.0746879
2.2697086
2.476406
2.6950882
2.9260071
3.1692892
3.4249073
3.6926694
3.9721758
4.2627528
4.5634607
4.872816
5.1891355
5.5100313
5.8328042
6.1535729
6.468089
6.7722946
7.0619861
7.3458078
7.6115666
7.8600579
8.1027677
8.3113041
8.4784157
8.5998977
8.674765
8.701918
8.6812443
8.6141499
8.5038839
8.3557789
8.177187
7.9771881
7.7659711
7.5539379
7.3507358
7.1646875
6.9998248
6.8583618
6.7409337
6.6467518
6.5740889
6.520713
6.4842126
6.462237
6.4525367
6.4530424
6.4619791
6.4777165
6.4988398
6.5241528
6.5525854
6.5831593
6.6149375
6.6486921
6.6816267
6.7143869
6.7464844
6.7775908
6.8074967
6.8361531
6.8635705
6.8895976
6.9142243
6.9375445
6.9595544
6.979723
6.9975482
7.0131521
7.0266141
7.0380259
7.0474283
7.0546846
7.05946
7.0647692
-0.012357688
-0.0068917323
0.0069581337
0.026249153
0.051620926
0.083192259
0.12103964
0.16521655
0.21584658
0.27303728
0.33689373
0.4076053
0.48530771
0.57018714
0.66248953
0.76245538
0.87036633
0.98639164
1.1119202
1.2448421
1.3865521
1.5378388
1.6991755
1.8710227
2.0538164
2.2479573
2.4538405
2.6718389
2.9022509
3.1452909
3.4010229
3.6693266
3.9498841
4.2421501
4.5452246
4.8578769
5.1783983
5.5046784
5.8339138
6.1629118
6.4882014
6.8073032
7.1198652
7.4117898
7.6902576
7.9501105
8.1938745
8.4006138
8.5679147
8.6905039
8.7652942
8.7904143
8.7653224
8.6910677
8.5707335
8.4097521
8.2159422
7.9992174
7.7708349
7.5423048
7.3241993
7.1247489
6.9492427
6.8001589
6.6780667
6.5819422
6.5096729
6.4585387
6.4256678
6.4082767
6.4037531
6.409719
6.4241091
6.4451621
6.4713297
6.5012944
6.5339435
6.5682969
6.6036072
6.6395757
6.6751127
6.7099712
6.74381
6.7763646
6.8074622
6.8369857
6.8649092
6.8911653
6.915765
6.9387716
6.9599549
6.9792816
6.9965292
7.011694
7.0247908
7.0358742
7.0450288
7.0520797
7.0566913
7.0620363
-0.031151287
-0.025670141
-0.011906737
0.0072724454
0.032512954
0.064001359
0.10174889
0.14583075
0.19633232
0.25333475
0.3170041
0.38745842
0.46483362
0.54932187
0.64110489
0.7404154
0.84747127
0.96250691
1.0870498
1.2194071
1.3604493
1.5108372
1.6711451
1.8418841
2.0235282
2.216553
2.421437
2.6386078
2.8684492
3.1112895
3.3673204
3.6365287
3.9187057
4.213508
4.5201963
4.8376504
5.1643416
5.4982327
5.8368552
6.1772227
6.516247
6.8505343
7.1745886
7.4846716
7.7782142
8.0507601
8.2982611
8.5115111
8.6838458
8.8096703
8.8852488
8.9080507
8.8768314
8.7922335
8.6571459
8.4771954
8.2610118
8.0198921
7.7668869
7.5152577
7.2770271
7.0625921
6.8764812
6.7212331
6.596942
6.5018334
6.4330097
6.3870523
6.3604321
6.3498496
6.3522882
6.3651399
6.3861163
6.4133135
6.4451412
6.4802289
6.5174444
6.5557988
6.5945842
6.6333627
6.6714118
6.7083199
6.7438025
6.7776337
6.8096773
6.8398313
6.8680581
6.8942936
6.9185561
6.9408559
6.9615069
6.9801455
6.9967604
7.0113698
7.0239987
7.0347058
7.0435426
7.0503453
7.0547641
7.0600897
-0.055452947
-0.050078899
-0.036361619
-0.017336579
0.0077624064
0.039098835
0.07670104
0.12060488
0.17086241
0.22760818
0.29094972
0.36099751
0.43790494
0.5218173
0.61294153
0.71153767
0.81786862
0.9322154
1.0544606
1.1852881
1.3249186
1.4738316
1.6325657
1.8016495
1.981612
2.1730006
2.3763701
2.5922595
2.8211748
3.0635786
3.3198254
3.5900707
3.8742727
4.1723222
4.4837151
4.8075162
5.1423454
5.486359
5.8371479
6.1918721
6.5470819
6.8989882
7.2429098
7.5738711
7.8869728
8.176742
8.4371859
8.6611498
8.8443104
8.9763236
9.0542431
9.0748356
9.0359862
8.9374378
8.7816076
8.5742499
8.3251228
8.0477415
7.758234
7.4731363
7.2071207
6.9709435
6.7705953
6.6080676
6.4823476
6.3903205
6.327757
6.2900902
6.2729454
6.272332
6.2847331
6.3071839
6.337167
6.3726582
6.4120197
6.4538536
6.4970078
6.5405191
6.5837673
6.6262397
6.667388
6.7068446
6.7443598
6.7797478
6.8129325
6.8438504
6.8725029
6.89891
6.9231312
6.945205
6.9652548
6.9832588
6.9992482
7.0132468
7.025334
7.0355836
7.0440475
7.0505903
7.0548034
7.060151
-0.085868668
-0.080612184
-0.067031751
-0.048151798
-0.023244152
0.0078946297
0.045268961
0.088874158
0.13882029
0.19519347
0.25807084
0.32756797
0.40379585
0.48690822
0.57711731
0.67462483
0.77964894
0.89243
1.0131614
1.1422072
1.2799601
1.4268951
1.5835214
1.7503918
1.9281052
2.1172784
2.3185554
2.5326145
2.7601253
3.0017123
3.2579363
3.5291965
3.815649
4.1174212
4.4344592
4.7659915
5.1108433
5.4673434
5.8332813
6.2057529
6.5811025
6.9549829
7.3237008
7.6799945
8.0177727
8.3302494
8.6101602
8.8489153
9.0514464
9.1911787
9.2730745
9.2919005
9.2439212
9.1274922
8.9440883
8.6993847
8.4046241
8.0765951
7.7359505
7.4040416
7.0994836
6.8373307
6.6213235
6.4524129
6.3278249
6.2424837
6.190325
6.1652466
6.1617052
6.174855
6.200638
6.2357321
6.2774358
6.3235976
6.3725166
6.4228122
6.4733589
6.523254
6.571999
6.6190792
6.6640501
6.7066065
6.7465649
6.7838128
6.8183373
6.8501277
6.87925
6.9057941
6.9298413
6.9515174
6.9709702
6.9883101
7.0035964
7.0169105
7.0283814
7.0380767
7.0460876
7.0523127
7.056284
7.0616812
-0.12237659
-0.11729778
-0.10384916
-0.085142895
-0.060437027
-0.029541736
0.0075121551
0.050777213
0.10032703
0.15621766
0.2185273
0.28732499
0.36271951
0.44487729
0.53396074
0.63014938
0.73368773
0.84482221
0.96350478
1.0903652
1.2257881
1.3702147
1.5241541
1.6881972
1.8630047
2.0492745
2.2477598
2.4592874
2.6847198
2.9249084
3.1806682
3.4526926
3.7414332
4.0469995
4.3704015
4.7108442
5.0674097
5.4387277
5.8227549
6.2166618
6.6165678
7.0166663
7.4162374
7.8036123
8.1721994
8.5141892
8.8212663
9.0855758
9.3007465
9.4570716
9.546452
9.5649507
9.5070091
9.3689148
9.1502468
8.8561056
8.4993067
8.1015379
7.6908912
7.2965545
6.9431584
6.6495162
6.4170911
6.2444947
6.1259535
6.0532342
6.0175534
6.0108045
6.0260686
6.0575961
6.1007654
6.1519334
6.2082626
6.2675375
6.328082
6.3885442
6.447822
6.5052628
6.5604386
6.61287
6.6622102
6.7082572
6.7509302
6.7902016
6.8261374
6.8587997
6.8883217
6.9148827
6.9386467
6.9598303
6.9786318
6.9952042
7.0096848
7.022211
7.0329514
7.0420201
7.0495158
7.0553278
7.0590172
7.0644574
-0.16500214
-0.16008692
-0.14680366
-0.12827464
-0.10380023
-0.073219769
-0.036498217
0.0063804503
0.055456277
0.11078802
0.17240862
0.24038204
0.31483192
0.39587452
0.48363024
0.578279
0.68004801
0.78926161
0.90556167
1.0298947
1.1625387
1.3039175
1.4545642
1.6151139
1.7862772
1.9688406
2.1636783
2.3717776
2.5942303
2.8321681
3.0867105
3.3589398
3.6497845
3.9585152
4.2888041
4.6390179
5.008682
5.3967838
5.8016879
6.2208325
6.6507265
7.0871394
7.5197078
7.9443412
8.3510803
8.7300451
9.0716189
9.366404
9.6054885
9.7793963
9.8797389
9.9002986
9.8321609
9.66876
9.4058476
9.0467676
8.6056786
8.1116604
7.6051196
7.1276176
6.7116033
6.3847743
6.1387283
5.9692204
5.8655997
5.8147655
5.804278
5.8236252
5.8643594
5.9198792
5.9851065
6.0561968
6.1303037
6.2052882
6.2795598
6.3518543
6.4212624
6.4874011
6.549859
6.6082747
6.6624619
6.7123252
6.7579135
6.7993135
6.8366662
6.8701367
6.8999631
6.9264167
6.9497559
6.9702975
6.98828
7.0039146
7.0174395
7.0290487
7.0389173
7.0472206
7.0540858
7.0594169
7.0627819
7.0682597
-0.21368778
-0.20896123
-0.19583728
-0.17750858
-0.15332105
-0.12305212
-0.086692194
-0.044252907
0.0043044328
0.058995606
0.11984409
0.18692708
0.26032013
0.3400946
0.42636012
0.51925445
0.61890698
0.72542004
0.83951387
0.96103668
1.0904493
1.2282313
1.3749538
1.5312804
1.6979682
1.8758849
2.0660366
2.269592
2.4878926
2.722377
2.9745223
3.2458532
3.5378374
3.8498105
4.1866711
4.5469945
4.930706
5.3372705
5.7654353
6.213182
6.6772235
7.1523182
7.6294442
8.1007741
8.5549748
8.9801174
9.3645917
9.6971746
9.9673463
10.164674
10.279189
10.305925
10.228611
10.036677
9.7189773
9.2747213
8.7179355
8.0891796
7.4500148
6.8628211
6.3677432
6.0118326
5.7604986
5.6072625
5.5333229
5.5182549
5.5450496
5.6006306
5.6751806
5.7614275
5.8540811
5.9493584
6.0446075
6.1379751
6.2281683
6.3139012
6.3947982
6.4706571
6.5411654
6.6061392
6.6655706
6.7195184
6.7681513
6.8116779
6.8503582
6.8845102
6.9144783
6.9406239
6.9633286
6.9829808
6.9999082
7.0144137
7.0267802
7.0372709
7.0460983
7.053499
7.0596224
7.0643883
7.0673869
7.0728875
-0.26843138
-0.2638837
-0.25093526
-0.23284971
-0.2089229
-0.17897689
-0.14301588
-0.10104095
-0.053056066
0.00094271059
0.060992332
0.12712206
0.19935436
0.27775223
0.36240204
0.45338305
0.55080277
0.65481351
0.76595637
0.88417266
1.0098551
1.1434696
1.2855973
1.4369128
1.5981966
1.7703921
1.9546392
2.1522977
2.3649455
2.5943524
2.8424424
3.1112573
3.4027207
3.717933
4.0603046
4.4305284
4.8287445
5.2548061
5.708201
6.1877179
6.6907832
7.2121097
7.7426881
8.2715387
8.7846111
9.2670758
9.7045424
10.083732
10.392503
10.619552
10.753849
10.7834
10.704929
10.483937
10.096534
9.5376007
8.8171531
7.995453
7.1723927
6.4474988
5.8967191
5.4862158
5.2448485
5.1326875
5.1125632
5.1538181
5.234483
5.3393879
5.4579416
5.5827734
5.7088712
5.832923
5.9527913
6.0672032
6.1756491
6.2762973
6.369909
6.4563709
6.5355886
6.6075859
6.6725322
6.7306877
6.7823689
6.827929
6.8677743
6.902375
6.932203
6.9577402
6.9795207
6.997976
7.0135457
7.0266309
7.0375757
7.0467049
7.0542965
7.060626
7.0658694
7.0699754
7.0725631
7.0780725
-0.32919973
-0.32484498
-0.31210438
-0.29422518
-0.27056055
-0.24095424
-0.20539447
-0.16391255
-0.11652208
-0.063210513
-0.003987619
0.06112356
0.1321373
0.20909164
0.29201348
0.38095074
0.47601372
0.57733726
0.68522275
0.79971033
0.92117181
1.0500551
1.1868982
1.3323539
1.48722
1.6525024
1.8294436
2.0195636
2.2246761
2.4469296
2.6887864
2.952978
3.2421943
3.5588473
3.9048371
4.2846476
4.6972477
5.1430457
5.6225945
6.1363471
6.6832891
7.2592022
7.8544113
8.4545277
9.0410398
9.5946627
10.097233
10.532849
10.888014
11.150736
11.309008
11.349381
11.251033
11.023877
10.544523
9.8304827
8.8673309
7.7549381
6.6654912
5.7526803
5.1061582
4.7100494
4.5332936
4.5113884
4.5844381
4.711536
4.867978
5.0386116
5.2133488
5.3856258
5.551621
5.7092147
5.8571686
5.9958211
6.1233788
6.240768
6.3482692
6.4460953
6.5345202
6.6138467
6.6844482
6.7467966
6.8013837
6.8487542
6.8894945
6.9241985
6.9534979
6.9779893
6.9984623
7.0153271
7.029174
7.0404867
7.0496889
7.0571648
7.0632681
7.0683218
7.0725331
7.07586
7.0779831
7.0834564
-0.39599031
-0.39184695
-0.37926753
-0.36159994
-0.3382048
-0.30892089
-0.27376862
-0.23277515
-0.18594449
-0.13331532
-0.074949746
-0.010873927
0.058904456
0.13436362
0.21548845
0.30230322
0.39486944
0.49327923
0.59770325
0.70811214
0.82492236
0.94852583
1.0793926
1.2181192
1.36551
1.5225775
1.6906065
1.8712437
2.066551
2.2790653
2.5118317
2.7683902
3.0524494
3.368142
3.7155703
4.1039896
4.5299457
4.9943966
5.4991974
6.0477783
6.6427448
7.2823663
7.9568529
8.6465185
9.3260269
9.9687269
10.550949
11.053648
11.462584
11.76525
11.949108
12.001828
11.905952
11.628109
11.073233
10.17218
8.8421055
7.280135
5.7804759
4.6027049
3.893812
3.5761486
3.5544729
3.7032173
3.9284976
4.1822455
4.4428401
4.6991753
4.9439701
5.1732347
5.3857536
5.5815418
5.7612375
5.9251198
6.074245
6.2095214
6.3317419
6.4415185
6.53947
6.6262487
6.702487
6.7688701
6.8260969
6.8749161
6.9161193
6.9504671
6.9787765
7.0018696
7.0203437
7.0351015
7.0467368
7.0558231
7.0628858
7.0683885
7.0727446
7.0762682
7.0792788
7.0816791
7.08325
7.0887216
-0.4687981
-0.4648154
-0.45241277
-0.43495506
-0.41180421
-0.38283335
-0.34806159
-0.30750099
-0.26120364
-0.2092571
-0.15172654
-0.088655416
-0.020106953
0.053848609
0.13316309
0.21781286
0.30778577
0.40311119
0.50394172
0.60994515
0.72173994
0.83954739
0.96377387
1.0949365
1.2337549
1.3812055
1.5385637
1.7075405
1.8903793
2.0899735
2.3098795
2.5546879
2.8289346
3.1387381
3.4891429
3.8829616
4.3200443
4.8002903
5.3262492
5.9063873
6.5509458
7.2642164
8.0372728
8.8429439
9.6430267
10.398922
11.078541
11.658978
12.127095
12.470396
12.673129
12.725346
12.615117
12.297437
11.654458
10.435771
8.4962382
6.2055131
4.1164277
2.6035762
1.9400868
1.8800166
2.203699
2.6627614
3.1273554
3.560983
3.9602623
4.3253851
4.6552254
4.9510145
5.2162011
5.4541277
5.6675801
5.8591565
6.0310356
6.1850383
6.3224839
6.4445239
6.5521556
6.6463408
6.7280108
6.7980896
6.8575236
6.9072655
6.9483059
6.9816461
7.0082734
7.0291408
7.0451459
7.0572203
7.0660908
7.0724607
7.0769287
7.0800628
7.0823148
7.0840495
7.0856492
7.0869982
7.087893
7.0933942
-0.5475607
-0.54375636
-0.53153861
-0.51425365
-0.49133471
-0.46263783
-0.42817795
-0.38800987
-0.34222453
-0.2909054
-0.23413638
-0.17201423
-0.10464666
-0.032137875
0.045408781
0.12788829
0.21521206
0.3073277
0.40423837
0.50586042
0.61237385
0.72396135
0.84094529
0.96372683
1.0929029
1.2293185
1.3741716
1.5291317
1.6964615
1.8793046
2.0816456
2.309368
2.5675862
2.8663344
3.2172483
3.6140898
4.0602166
4.5511072
5.0882009
5.6891678
6.3796544
7.176909
8.0753869
9.0367499
9.9989566
10.902251
11.700985
12.366649
12.894329
13.274162
13.4753
13.487665
13.308083
12.889295
11.996541
9.9340484
6.6165051
2.9378779
0.10892794
-1.2953202
-1.5207336
-0.75709411
0.34142487
1.3494809
2.173683
2.8512555
3.4290656
3.9281085
4.3570429
4.7271104
5.049406
5.3319601
5.5810437
5.8014349
5.9967977
6.16997
6.3228775
6.457231
6.5744447
6.675803
6.762509
6.835743
6.8967206
6.9466317
6.9867275
7.0182397
7.0423275
7.060227
7.0729661
7.0816203
7.0870605
7.0901246
7.0914703
7.0917806
7.091538
7.0912213
7.0911713
7.0912894
7.0913861
7.0969668
-0.63228578
-0.62866815
-0.61661932
-0.59949346
-0.57676559
-0.548275
-0.51408495
-0.47427366
-0.42892313
-0.37812721
-0.32202098
-0.26074711
-0.19444113
-0.1232614
-0.047391012
0.032987952
0.11770662
0.20660143
0.29949692
0.39672909
0.49774808
0.60277975
0.71201462
0.82569895
0.94425384
1.0683027
1.198833
1.3373007
1.4857898
1.647524
1.826596
2.0303856
2.2630225
2.5395607
2.8854887
3.2987771
3.7439407
4.239322
4.7677993
5.3622965
6.0828642
6.9735552
8.0346413
9.2158426
10.407468
11.508269
12.452626
13.19886
13.776899
14.190832
14.345551
14.22151
13.827999
13.099402
11.394306
7.4148333
1.2962366
-4.6308921
-8.4596301
-9.4896434
-8.1193473
-5.256824
-2.3938534
-0.31159823
1.0853807
2.0742433
2.8657078
3.5244769
4.0633985
4.5119624
4.8933539
5.2213702
5.5064025
5.7558051
5.9748067
6.1671532
6.3354828
6.4819772
6.6084415
6.7164887
6.8075893
6.8831927
6.9448374
6.9939797
7.0321371
7.0607905
7.0813552
7.0952661
7.1038103
7.1081623
7.1093704
7.1084129
7.1060618
7.1030269
7.0998942
7.0971541
7.0952577
7.0939926
7.0931266
7.0988421
-0.72296328
-0.71954192
-0.70765726
-0.69066151
-0.66807369
-0.63975821
-0.60579826
-0.56624998
-0.5212106
-0.47081917
-0.41523771
-0.35463853
-0.28921113
-0.21918553
-0.14482253
-0.066382134
0.015883355
0.10172316
0.19094252
0.28364198
0.37888903
0.47714328
0.57828526
0.68236076
0.78949854
0.90003202
1.0145638
1.1341616
1.2604433
1.3964081
1.5456668
1.7172907
1.9107732
2.1435734
2.4810166
2.9112561
3.3963767
3.8552
4.3362232
4.8647394
5.5691835
6.5551347
7.8365534
9.3527872
10.893243
12.265205
13.394166
14.297812
14.928708
15.25592
15.275063
14.86803
14.048116
12.712985
9.2168738
2.272079
-7.4117731
-15.513769
-20.273048
-20.984273
-17.816628
-12.019006
-6.3328978
-2.4376362
-0.12458162
1.2603481
2.3068393
3.1468118
3.7955426
4.3193988
4.7571924
5.1288365
5.4485701
5.7262629
5.9684594
6.1796199
6.3630252
6.521263
6.6564305
6.7704201
6.8650114
6.9419532
7.0030948
7.0502365
7.0851814
7.1096918
7.1255012
7.1342735
7.137525
7.1365893
7.1326819
7.1268962
7.1201742
7.1132251
7.1067453
7.1012324
7.0972265
7.0943866
7.0924486
7.098362
-0.81956991
-0.81641607
-0.80464188
-0.78775618
-0.76531059
-0.73713656
-0.70331129
-0.66390037
-0.61903762
-0.56889023
-0.5136337
-0.45348047
-0.38869274
-0.3195758
-0.24646233
-0.169703
-0.089650518
-0.0066603112
0.078909579
0.16669601
0.25677315
0.34833475
0.44127775
0.53544803
0.63065643
0.72683765
0.82407803
0.92276685
1.0237319
1.1293231
1.24151
1.3730764
1.5107954
1.6458515
1.9821016
2.4275665
2.9856492
3.402376
3.7612922
4.0892659
4.6513725
5.6983511
7.3258827
9.3405317
11.490616
13.234669
14.558466
15.504544
16.141982
16.434196
16.271525
15.562806
14.335193
13.715321
7.3092107
-4.1790292
-15.886331
-25.192992
-30.851797
-31.541361
-27.589178
-19.47096
-10.93002
-4.8102792
-1.3083163
0.49911522
1.8496543
2.8461494
3.5792571
4.1638751
4.6497317
5.060213
5.4120105
5.7165491
5.9810438
6.2104463
6.408407
6.5777739
6.7208578
6.8397962
6.9367026
7.0136671
7.0728581
7.1164485
7.1465958
7.1654096
7.1750235
7.1772428
7.1738813
7.1665037
7.1564804
7.1450021
7.1331193
7.1216681
7.1112957
7.1026358
7.096244
7.0916194
7.0885291
7.0946826
-0.92212943
-0.91930612
-0.90760763
-0.89085779
-0.86854667
-0.84043179
-0.80662695
-0.76723416
-0.72238969
-0.67226662
-0.61707618
-0.55709108
-0.49264185
-0.42410697
-0.35189727
-0.27645217
-0.19824553
-0.11775942
-0.035474313
0.048147479
0.13290919
0.21783022
0.30269201
0.38697076
0.47010473
0.55153483
0.6307041
0.70711886
0.78056456
0.85195807
0.92260289
1.0070926
1.0669721
0.97404324
1.8429401
2.7827633
2.582478
2.8266044
2.9917856
2.8474516
2.9233754
4.0154297
6.2608714
9.0105877
12.289198
14.488095
16.001888
16.884903
17.492341
17.693864
17.357464
16.592565
16.016952
18.755543
10.384795
-8.5856414
-21.27037
-31.362776
-37.676032
-38.37947
-34.073383
-24.968149
-14.488777
-6.6472248
-1.47013
0.063656709
1.5948434
2.6632579
3.4310733
4.0535635
4.5757697
5.0191417
5.4000243
5.729844
6.0157259
6.2627688
6.4747033
6.6544531
6.804464
6.9270998
7.0248291
7.1001094
7.1555166
7.1936572
7.2170994
7.228449
7.2300204
7.2240729
7.2126051
7.1974424
7.1801148
7.1619549
7.1440854
7.1274309
7.1126716
7.1004688
7.0913746
7.084749
7.0804302
7.0868858
-1.0306746
-1.028268
-1.0166852
-1.0000644
-0.97783345
-0.94969945
-0.91581925
-0.8763044
-0.83127362
-0.78091594
-0.72549158
-0.66533574
-0.60084592
-0.53247422
-0.4607133
-0.38610528
-0.30926269
-0.23081048
-0.15134981
-0.071501261
0.0080963403
0.087115128
0.16431427
0.23908067
0.31037986
0.37723846
0.43826322
0.49184375
0.53670727
0.56966215
0.60109422
0.64878541
0.69184086
1.140501
5.4466589
5.5510713
2.6719166
2.3308406
2.0286582
0.79880512
-0.44534971
0.56717703
4.9140758
10.5743
13.999281
16.085773
17.557161
18.382098
18.829044
18.880409
18.341645
17.53274
17.975252
17.63009
6.9313046
-10.215129
-23.239361
-33.899121
-40.523492
-41.644735
-36.847332
-27.027034
-15.928108
-6.9401643
-1.5309432
0.15951742
1.6100554
2.620395
3.3554049
3.9969713
4.5363865
5.0074432
5.4147821
5.7687636
6.0754894
6.3398153
6.5652434
6.7545601
6.9103116
7.035097
7.1317587
7.2032578
7.2526349
7.2829693
7.2973621
7.2989618
7.2904624
7.2744149
7.2531327
7.2286756
7.2027485
7.1767934
7.15208
7.1295106
7.1098002
7.0936275
7.0815596
7.0727484
7.0670951
7.0739474
-1.1452901
-1.1434469
-1.1320003
-1.1154729
-1.093289
-1.0650867
-1.0310235
-0.99120713
-0.94575346
-0.89487472
-0.83887188
-0.77813366
-0.71312917
-0.64438942
-0.57250286
-0.49814222
-0.42205412
-0.34499983
-0.26771474
-0.19096141
-0.11557196
-0.042371105
0.02787103
0.094027868
0.15406277
0.20698109
0.25036852
0.28117703
0.29655691
0.2840029
0.27560663
0.29770642
0.34650394
0.90230315
3.9120436
4.0849087
3.4782301
1.6266008
0.70603639
-1.8707003
-5.2530174
-4.7108755
0.18091565
17.271608
20.323458
18.296981
19.05662
19.605285
19.843195
19.697923
18.927111
18.036237
19.175387
16.705297
3.9537445
-9.4107334
-21.989798
-32.348108
-39.013463
-40.012994
-35.317744
-25.618562
-14.821416
-6.3437204
-1.4411521
0.76147436
1.7663839
2.6700434
3.3235601
3.9583921
4.5279812
5.0247086
5.4573448
5.8354197
6.163209
6.4450111
6.6837069
6.8818127
7.0419456
7.1670275
7.260293
7.3253362
7.36587
7.3855713
7.3882369
7.3772742
7.356165
7.3277705
7.2947152
7.2592606
7.2233075
7.1884255
7.1558981
7.1266628
7.1014279
7.0809006
7.0655919
7.0544245
7.0474155
7.0547704
-1.2661305
-1.2649797
-1.2536894
-1.2372664
-1.215133
-1.1868047
-1.1524293
-1.1121184
-1.0659817
-1.0142515
-0.95726731
-0.89546223
-0.82936275
-0.75960051
-0.68689864
-0.61205704
-0.53594213
-0.45946387
-0.38354144
-0.3091086
-0.23715474
-0.16871437
-0.10488439
-0.04712514
0.0035627246
0.044133719
0.071093397
0.080573156
0.06448957
0.0044937902
-0.056107988
-0.067209208
-0.023073797
-0.029540042
2.0384999
3.028385
3.1977662
0.31109768
-1.1677986
-4.3328884
-8.3576925
-8.2558523
-3.1224932
4.8436309
19.758704
21.692837
19.155758
19.938754
20.123561
19.7795
18.709949
17.433042
17.803348
15.093332
3.6259744
-7.0346184
-18.016482
-26.95116
-32.892008
-33.809271
-29.424933
-21.197342
-12.065176
-4.9517935
-1.0064883
1.1169895
2.2476283
2.7529662
3.2838037
3.9323951
4.5417586
5.0663373
5.5267386
5.9311094
6.281751
6.5822242
6.8344685
7.0406966
7.2036222
7.3266388
7.4136002
7.4688541
7.4969656
7.5024997
7.4898608
7.4633067
7.4267145
7.3833873
7.3362949
7.2879377
7.2403892
7.1953269
7.1540444
7.1174178
7.0861218
7.0608943
7.0421482
7.0284855
7.0201466
7.0280991
-1.3933514
-1.3930389
-1.3819902
-1.3657165
-1.3436382
-1.3151248
-1.2803104
-1.2393077
-1.1922079
-1.1392468
-1.0808025
-1.0173586
-0.94950216
-0.87796237
-0.80360235
-0.72736064
-0.65024119
-0.57333871
-0.49779717
-0.42472963
-0.35526505
-0.2905848
-0.23192897
-0.18069248
-0.13859377
-0.10868246
-0.095426144
-0.10389233
-0.15145788
-0.26081491
-0.39210177
-0.45735307
-0.46359236
-0.46160015
0.030305321
1.4003521
2.934194
2.0454022
-2.8207496
-5.3374269
-8.6349714
-8.5146666
-3.9089072
4.1714785
11.577367
21.751452
17.332267
18.830787
19.223076
18.783764
17.420754
15.228126
15.022004
12.713983
4.5319117
-3.8942172
-12.613496
-19.36569
-23.701964
-24.227285
-20.904807
-13.93209
-7.7780578
-3.2801348
-0.6880275
0.92353115
2.0325808
2.7334691
3.2569985
3.8589919
4.5543309
5.1234119
5.6201953
6.0566633
6.4344222
6.7562387
7.0229835
7.2367624
7.4005721
7.5184714
7.5953577
7.6366287
7.647887
7.6348012
7.6027946
7.5568157
7.5012692
7.4400316
7.3764156
7.3130954
7.2523112
7.1957726
7.1447649
7.1000603
7.0622626
7.0320623
7.0097273
6.9935002
6.9838781
6.992573
-1.5271525
-1.5279062
-1.5172156
-1.5011378
-1.4791363
-1.4504091
-1.4150453
-1.3731445
-1.3247792
-1.2701807
-1.2097388
-1.1439868
-1.0736062
-0.99941234
-0.92238027
-0.84361617
-0.76433007
-0.68581707
-0.60946587
-0.536596
-0.4684975
-0.40650275
-0.35192582
-0.30613762
-0.27090744
-0.24927333
-0.24644452
-0.26933463
-0.3434894
-0.50490905
-0.73029666
-0.93407867
-1.1077253
-1.2168204
-1.1373021
-1.3668322
-1.8559832
-1.9885896
-3.3055413
-5.2393744
-7.0026195
-6.6126036
-3.0257415
3.924582
10.62734
20.92263
17.41271
17.294646
17.494532
16.835618
15.343601
12.318149
10.755706
10.234045
5.3345855
-1.513389
-7.4716239
-12.008675
-14.780156
-15.097503
-12.922362
-8.3865639
-4.7208859
-2.0408468
0.15878554
1.0719912
1.8533589
2.7484154
3.184577
3.7956151
4.5631506
5.18946
5.7353044
6.2137549
6.6259714
6.9735103
7.256489
7.4771464
7.6392494
7.7480098
7.8098504
7.8317158
7.8206253
7.7835469
7.7270749
7.6570875
7.5786241
7.4961039
7.4131735
7.3327034
7.2569673
7.1876789
7.1260223
7.0726507
7.0279859
6.9926335
6.9666385
6.947897
6.9371411
6.9467613
-1.6678215
-1.6699048
-1.6597123
-1.6439195
-1.6220665
-1.5931265
-1.5571228
-1.5141332
-1.464192
-1.4075098
-1.3444853
-1.2756917
-1.2018832
-1.1239703
-1.0430609
-0.96046032
-0.8776284
-0.79610963
-0.71753004
-0.64350157
-0.57552623
-0.5150929
-0.46358678
-0.42226871
-0.39276737
-0.37792788
-0.38313504
-0.41662153
-0.50704685
-0.70582917
-1.0275283
-1.4041958
-1.7903708
-2.1735884
-2.446921
-2.7721907
-3.3324864
-4.0891102
-4.6992922
-5.3354898
-5.8103217
-4.938488
-1.8429539
4.419544
10.138038
18.792356
17.682839
15.18419
15.360664
14.593284
13.111971
9.8210687
6.8337807
6.7187782
5.34954
-0.83584111
-3.4885267
-6.2497613
-8.0612463
-8.4096116
-7.3020526
-5.3019092
-3.1091271
-1.3256983
-0.16168401
0.62857192
1.6301009
2.3336883
2.8091828
3.7555949
4.5733788
5.2636939
5.8731342
6.4070567
6.8641141
7.2433897
7.5447419
7.7711117
7.9277466
8.0218989
8.0620943
8.0573716
8.016732
7.9491663
7.862261
7.7628921
7.656955
7.5493549
7.4440463
7.3440845
7.251703
7.1684733
7.0954073
7.0329127
6.9811799
6.940674
6.9111349
6.8899964
6.8783509
6.8891575
-1.8156784
-1.8193845
-1.8099113
-1.7945597
-1.772984
-1.7438812
-1.7071891
-1.6629515
-1.6111343
-1.5519015
-1.4856525
-1.4129866
-1.3346983
-1.2518208
-1.1656323
-1.0776601
-0.98962684
-0.90339102
-0.82093167
-0.74423931
-0.67502903
-0.61508078
-0.56586833
-0.52859535
-0.50460493
-0.49638184
-0.50948771
-0.552798
-0.6555729
-0.87818761
-1.2794042
-1.824426
-2.4522769
-3.1110863
-3.7240195
-4.2917776
-4.9617819
-5.8358213
-6.5455894
-6.7028975
-6.340165
-4.9796729
-1.7702526
4.3809501
7.9871021
16.171302
15.988111
12.986924
13.346959
12.725793
11.317231
8.3364093
4.2460537
2.6553678
3.1972864
1.9798336
-0.45646622
-2.1785332
-3.9118643
-4.6943183
-4.4272603
-3.4805764
-2.3852864
-1.5113806
-0.83311777
-0.12413636
0.49903084
1.5241195
2.6095897
3.6581136
4.5544242
5.3372414
6.035449
6.6450066
7.1607526
7.5793039
7.900971
8.1306999
8.2762224
8.3479883
8.357694
8.3172882
8.2384654
8.131929
8.0071692
7.8721326
7.7335134
7.5966733
7.4657969
7.3439517
7.2332722
7.1350564
7.0500222
6.9782154
6.9194972
6.8740524
6.8412947
6.8180606
6.8058581
6.8181904
-1.9710886
-1.9768073
-1.9683564
-1.9536633
-1.9325676
-1.9034488
-1.8661025
-1.8205021
-1.7665278
-1.7042769
-1.6341112
-1.5566206
-1.4726584
-1.3834096
-1.2903406
-1.1951938
-1.0999852
-1.0069689
-0.91861117
-0.83753026
-0.76549287
-0.7050363
-0.65793511
-0.62521081
-0.60798136
-0.60851225
-0.63341477
-0.69154797
-0.82074505
-1.093137
-1.625984
-2.3635659
-3.219968
-4.114891
-5.0540994
-5.988046
-6.9621867
-8.0716343
-9.0479985
-9.286487
-9.0468568
-6.9259063
-3.7375136
1.2253098
4.6580413
11.024755
12.793928
10.937316
11.95944
11.771546
10.665926
8.3107629
4.4791704
1.4072666
0.40110594
4.3906856
1.4703356
0.54353834
-1.628868
-3.0611279
-3.5577164
-3.4324715
-3.0834633
-2.5706595
-2.0015306
-1.2306022
-0.17575183
1.056154
2.2963277
3.4521637
4.4810932
5.4043849
6.2284805
6.941243
7.5331776
7.9997888
8.3427328
8.5713079
8.6969194
8.7352391
8.702485
8.6145635
8.4862173
8.3307939
8.159512
7.9816301
7.8045084
7.6338783
7.4740819
7.3280681
7.1976443
7.0837423
6.9865557
6.9056128
6.8403276
6.7904971
6.7550722
6.73026
6.7180194
6.7322745
-2.1344799
-2.142732
-2.1356958
-2.1219742
-2.101684
-2.0728139
-2.0349439
-1.9879466
-1.9315845
-1.8658415
-1.7910098
-1.7076709
-1.6167514
-1.5195602
-1.4177389
-1.3132615
-1.208437
-1.1060843
-1.0093395
-0.92216882
-0.84511609
-0.78317352
-0.73860568
-0.7120469
-0.70479623
-0.71870452
-0.76327015
-0.84533537
-1.0256448
-1.3872764
-2.1356428
-3.1546718
-4.2788534
-5.3385531
-6.6320947
-8.0639307
-9.3123359
-10.663263
-12.278692
-13.072145
-11.590022
-7.954579
-1.8329383
20.162035
5.0995729
4.1107729
8.3170838
10.208527
11.660932
11.879259
11.223504
9.6732768
6.9164986
4.069226
2.8227186
4.5506334
8.4168873
2.6777512
0.305
-2.3903619
-3.7013552
-4.1818822
-4.3224803
-4.1178854
-3.4589488
-2.4122357
-1.130833
0.29832534
1.7461545
3.105429
4.3468333
5.4718773
6.4690278
7.3186171
8.0072811
8.5307493
8.8948653
9.1124014
9.2042597
9.193536
9.1022839
8.9515129
8.7598661
8.54345
8.315532
8.0865412
7.8644814
7.6553506
7.4633806
7.2911653
7.1400104
7.0101905
6.9011879
6.8117895
6.7408108
6.6875606
6.6503247
6.6247226
6.6131776
6.629935
-2.306313
-2.3177561
-2.3126841
-2.300416
-2.2814256
-2.2532143
-2.2150761
-2.166758
-2.1078516
-2.0381647
-1.9578986
-1.867644
-1.7683808
-1.6614685
-1.5487558
-1.4324927
-1.3154546
-1.2008112
-1.0921449
-0.99301347
-0.91107481
-0.84663319
-0.80624854
-0.78846745
-0.79660778
-0.83122055
-0.90967712
-1.0311021
-1.2856955
-1.8119445
-2.818124
-4.0198289
-5.4070072
-6.4631236
-7.8766763
-9.5727543
-11.293737
-13.23412
-14.997733
-15.111373
-11.83402
-5.8428135
4.5241575
20.845899
-3.2043346
3.164404
8.04981
10.902056
12.397244
12.840404
12.585933
11.715539
10.081859
8.1334219
6.9100898
6.9663519
11.945324
8.3784284
3.6991106
-1.7337504
-4.3900842
-5.5358668
-6.2304543
-6.4151402
-5.6656659
-4.265695
-2.6651909
-0.87589424
0.93244782
2.6125645
4.1581155
5.5574967
6.7854588
7.8128972
8.6209041
9.2067605
9.583585
9.7757179
9.8144377
9.7329026
9.5618528
9.3287934
9.0570793
8.765157
8.469061
8.1799097
7.9061383
7.653757
7.4266433
7.226713
7.054482
6.9092484
6.7894925
6.6930221
6.6178467
6.5626753
6.5249653
6.4997283
6.489814
6.5099101
-2.4871222
-2.5026026
-2.5002492
-2.4901083
-2.4731103
-2.4461834
-2.4082363
-2.3588295
-2.2973255
-2.2233115
-2.1368729
-2.038569
-1.929392
-1.8107481
-1.6847642
-1.5539875
-1.4215347
-1.2911508
-1.1672524
-1.0549282
-0.96007919
-0.8908252
-0.85864821
-0.8523717
-0.87901802
-0.95017671
-1.078926
-1.2609654
-1.5867006
-2.4273772
-3.1247809
-3.5126
-6.1927745
-7.0312772
-8.7671001
-11.584666
-14.436618
-17.104373
-18.872673
-18.118875
-13.385128
-8.6678847
17.206341
12.425741
3.1322756
6.4214358
10.018087
12.59815
13.837353
14.293848
14.315062
13.944733
13.157561
12.164262
11.343433
11.203874
11.580302
15.210451
4.2012938
-3.0499081
-7.6557829
-9.1354744
-9.95718
-10.32028
-9.0842903
-6.8815905
-4.7596989
-2.4455729
-0.10044731
1.9933477
3.9291391
5.6879996
7.2196793
8.4747121
9.4255523
10.074322
10.447807
10.588135
10.543948
10.361807
10.083293
9.7437987
9.3715724
8.9882133
8.6109791
8.2519036
7.9195147
7.6194449
7.3548321
7.1266104
6.9340168
6.7749624
6.646514
6.5452913
6.4682343
6.4132466
6.377004
6.3537267
6.3466582
6.3711049
-2.6775149
-2.6981897
-2.6995465
-2.6924277
-2.6783667
-2.6536308
-2.6166156
-2.5665978
-2.5026305
-2.4240204
-2.3306676
-2.2230625
-2.1022446
-1.9695796
-1.8277276
-1.6792897
-1.5277335
-1.3774001
-1.2336607
-1.1030595
-0.99291088
-0.90797003