/*--------------------------------*- C++ -*----------------------------------*\
  =========                 |
  \\      /  F ield         | OpenFOAM: The Open Source CFD Toolbox
   \\    /   O peration     | Website:  https://openfoam.org
    \\  /    A nd           | Version:  9
     \\/     M anipulation  |
\*---------------------------------------------------------------------------*/
FoamFile
{
    format      ascii;
    class       volScalarField;
    location    "10";
    object      Ma;
}
// * * * * * * * * * * * * * * * * * * * * * * * * * * * * * * * * * * * * * //

dimensions      [0 0 0 0 0 0 0];

internalField   nonuniform List<scalar> 
5250
(
2.99999
2.99996
2.99988
2.99965
2.9992
2.99782
2.99501
2.98691
2.96895
2.92105
2.80627
2.51851
1.90018
0.912657
0.370009
0.336779
0.34767
0.338413
0.304059
0.251361
0.203003
0.162216
0.120983
0.0754796
0.0419326
2.99999
2.99996
2.99987
2.99967
2.99917
2.99793
2.99484
2.98755
2.9682
2.92356
2.80629
2.52465
1.90907
0.923739
0.377643
0.33846
0.349477
0.340708
0.306902
0.255154
0.207948
0.168463
0.129401
0.0891184
0.0651904
2.99999
2.99996
2.99988
2.99967
2.9992
2.99792
2.99515
2.98718
2.97044
2.92254
2.81375
2.5324
1.9302
0.94881
0.395073
0.342672
0.354187
0.346867
0.314573
0.265289
0.220972
0.184896
0.150933
0.119251
0.10367
2.99999
2.99996
2.99989
2.99967
2.99925
2.99795
2.99532
2.98774
2.97097
2.92604
2.81892
2.54824
1.96035
0.988057
0.421206
0.348416
0.36131
0.356667
0.326734
0.281045
0.240648
0.209077
0.180907
0.156568
0.145719
2.99999
2.99996
2.99988
2.99972
2.99922
2.99818
2.99531
2.98867
2.97181
2.93015
2.82639
2.56943
2.00099
1.04247
0.45624
0.355299
0.37054
0.369723
0.342717
0.301331
0.265363
0.23866
0.216109
0.197654
0.190086
3
2.99996
2.9999
2.9997
2.99934
2.99813
2.9959
2.98882
2.97434
2.93319
2.83846
2.59342
2.05396
1.11468
0.500278
0.363191
0.381983
0.386111
0.362381
0.325802
0.294649
0.273107
0.256302
0.243521
0.239454
3
2.99997
2.9999
2.99975
2.99932
2.99846
2.99578
2.99063
2.97443
2.94137
2.84723
2.62767
2.11664
1.2078
0.554387
0.37301
0.396398
0.40627
0.385863
0.35435
0.328346
0.312346
0.301806
0.29563
0.296978
3
2.99997
2.99991
2.99978
2.99939
2.9986
2.9962
2.99149
2.97692
2.94703
2.86201
2.6637
2.19356
1.32609
0.619373
0.38714
0.415259
0.43086
0.413462
0.387041
0.366451
0.35665
0.353533
0.356299
0.368261
3
2.99998
2.99993
2.99979
2.9995
2.99868
2.99683
2.99209
2.98042
2.95201
2.8801
2.70218
2.28329
1.47183
0.695935
0.411037
0.442475
0.461673
0.446593
0.424801
0.409672
0.406211
0.41211
0.429367
0.463895
3
2.99998
2.99994
2.99981
2.99958
2.99881
2.99741
2.99279
2.98393
2.95721
2.89904
2.74252
2.38198
1.6467
0.784882
0.452049
0.482784
0.500264
0.487355
0.468922
0.458507
0.461035
0.480337
0.524788
0.626536
3
2.99998
2.99995
2.99984
2.99963
2.999
2.99772
2.99385
2.98619
2.96295
2.91402
2.77891
2.46733
1.80562
0.876165
0.495994
0.521894
0.537717
0.530998
0.516739
0.510789
0.521014
0.557932
0.639304
0.798766
3
2.99999
2.99995
2.99988
2.99964
2.99922
2.9978
2.99519
2.98692
2.97
2.92214
2.81171
2.53085
1.9317
0.987324
0.555029
0.549161
0.563978
0.567844
0.561803
0.562748
0.581865
0.632252
0.729355
0.885954
3
2.99999
2.99996
2.99989
2.99972
2.99928
2.99822
2.99569
2.98899
2.97405
2.93295
2.83845
2.59393
2.05861
1.14195
0.63686
0.566453
0.583342
0.596265
0.600712
0.610474
0.638023
0.693338
0.784606
0.911924
3
2.99999
2.99997
2.99991
2.99975
2.99943
2.99845
2.99642
2.99073
2.97784
2.94425
2.86303
2.65777
2.19003
1.33171
0.734348
0.584412
0.600681
0.620047
0.634494
0.652344
0.684778
0.738782
0.818281
0.923159
3
3
2.99998
2.99993
2.99981
2.99951
2.99876
2.99705
2.99232
2.9823
2.95343
2.88996
2.71967
2.32998
1.55886
0.851824
0.618421
0.628269
0.647332
0.667354
0.688734
0.722204
0.772435
0.841595
0.929755
3
3
2.99998
2.99994
2.99986
2.99959
2.99908
2.99752
2.99429
2.98531
2.96484
2.912
2.78416
2.47393
1.83154
0.98873
0.676273
0.670368
0.684071
0.703802
0.724043
0.754281
0.799135
0.85883
0.933579
3.00001
3
2.99999
2.99996
2.99987
2.99971
2.99917
2.99819
2.99506
2.98881
2.97071
2.93073
2.82429
2.57269
2.0155
1.13005
0.737662
0.704778
0.718732
0.736648
0.755882
0.782767
0.821137
0.871827
0.934543
3.00001
3
2.99999
2.99997
2.9999
2.99975
2.99937
2.99851
2.99612
2.99112
2.97639
2.94556
2.85889
2.65838
2.1877
1.34989
0.840941
0.732988
0.743313
0.760118
0.780684
0.805387
0.838367
0.881096
0.933277
3.00001
3
2.99999
2.99998
2.99993
2.99981
2.99953
2.99878
2.99721
2.99252
2.98318
2.95512
2.89527
2.73225
2.36248
1.62306
0.971135
0.771906
0.767266
0.779752
0.800703
0.823548
0.851642
0.887721
0.928972
3.00001
3
3
2.99998
2.99994
2.99987
2.99962
2.99917
2.99768
2.99499
2.9862
2.9691
2.91914
2.80735
2.52522
1.93608
1.1326
0.831288
0.798474
0.805288
0.82155
0.840724
0.863646
0.890836
0.921036
3.00001
3
3
2.99999
2.99996
2.9999
2.99973
2.99934
2.9983
2.9961
2.98963
2.9765
2.93817
2.85397
2.63264
2.15008
1.32372
0.902281
0.822793
0.826936
0.839397
0.855564
0.872182
0.889341
0.909433
3.00001
3.00001
3
2.99999
2.99997
2.99992
2.99981
2.99949
2.99878
2.99697
2.99251
2.98201
2.95432
2.89034
2.72462
2.34387
1.60151
1.02298
0.855744
0.845231
0.851865
0.863577
0.873005
0.881541
0.894342
3.00001
3.00001
3
3
2.99998
2.99994
2.99986
2.99963
2.99914
2.99777
2.99468
2.98691
2.96772
2.92155
2.80592
2.53099
1.94673
1.18512
0.907009
0.865988
0.862746
0.865172
0.867581
0.870712
0.878996
3.00001
3.00001
3
3
2.99999
2.99996
2.9999
2.99973
2.99936
2.99838
2.99606
2.99039
2.97607
2.94234
2.85584
2.64843
2.17831
1.38069
0.967062
0.874466
0.860848
0.857699
0.85685
0.858188
0.865158
3.00001
3.00001
3.00001
3
3
2.99997
2.99993
2.9998
2.99955
2.99878
2.99721
2.9928
2.98287
2.95724
2.89551
2.74095
2.38044
1.67151
1.07362
0.883462
0.85061
0.845175
0.8428
0.844436
0.853526
3.00001
3.00001
3.00001
3
3
2.99998
2.99995
2.99986
2.99967
2.99911
2.99805
2.99459
2.98823
2.96815
2.92708
2.8131
2.55417
1.98798
1.21613
0.900415
0.83614
0.8276
0.824193
0.829273
0.844099
3.00001
3.00001
3.00001
3
3
2.99999
2.99996
2.9999
2.99974
2.99938
2.99846
2.99616
2.99085
2.97655
2.94468
2.85924
2.65862
2.19553
1.39749
0.930803
0.805308
0.794664
0.798025
0.81231
0.83619
3.00001
3.00001
3.00001
3.00001
3
3
2.99997
2.99993
2.9998
2.99956
2.99879
2.99723
2.99285
2.98292
2.95738
2.89554
2.74082
2.37894
1.66873
0.996088
0.769795
0.75389
0.76732
0.793982
0.828016
3.00001
3.00001
3.00001
3.00001
3
3
2.99998
2.99995
2.99985
2.99966
2.99905
2.99792
2.99419
2.9873
2.96565
2.92059
2.79639
2.5118
1.90206
1.06657
0.728773
0.702494
0.729972
0.771045
0.816378
3.00001
3.00001
3.00001
3.00001
3
3
2.99999
2.99996
2.99988
2.99971
2.99924
2.99824
2.9953
2.98941
2.97147
2.93423
2.82942
2.58641
2.0383
1.15299
0.696052
0.634618
0.675608
0.733363
0.792873
3.00001
3.00001
3.00001
3.00001
3
3
2.99999
2.99997
2.9999
2.99976
2.99937
2.99852
2.99605
2.99104
2.97588
2.94429
2.85492
2.64651
2.15784
1.29606
0.699387
0.556812
0.61053
0.68782
0.75854
3.00001
3.00001
3.00001
3.00001
3.00001
3
2.99999
2.99997
2.99992
2.99978
2.99951
2.9986
2.99697
2.99153
2.98103
2.94942
2.87953
2.6923
2.26592
1.45238
0.717388
0.486293
0.556065
0.64909
0.721573
3.00001
3.00001
3.00001
3.00001
3.00001
3
3
2.99998
2.99993
2.99982
2.99953
2.99891
2.99706
2.9934
2.98197
2.95908
2.89185
2.7386
2.35701
1.6128
0.749598
0.443929
0.526519
0.623415
0.68904
3.00001
3.00001
3.00001
3.00001
3.00001
3
3
2.99998
2.99994
2.99984
2.99959
2.99898
2.99751
2.99367
2.98499
2.96106
2.90712
2.76343
2.42631
1.72837
0.783839
0.414229
0.502489
0.59406
0.653662
3.00001
3.00001
3.00001
3.00001
3.00001
3
3
2.99998
2.99994
2.99985
2.99963
2.99905
2.99777
2.99406
2.98646
2.96381
2.91523
2.78152
2.46931
1.80052
0.82711
0.406556
0.481165
0.55715
0.614964
3.00001
3.00001
3.00001
3.00001
3.00001
3
3
2.99998
2.99995
2.99986
2.99966
2.9991
2.99794
2.99444
2.98746
2.96623
2.92119
2.79631
2.5037
1.86404
0.888473
0.42663
0.459926
0.520355
0.58179
3.00001
3.00001
3.00001
3.00001
3.00001
3
3
2.99999
2.99995
2.99988
2.99966
2.99922
2.99795
2.99511
2.98769
2.96957
2.92464
2.8115
2.53275
1.92577
0.957119
0.453023
0.44003
0.496262
0.557953
3.00001
3.00001
3.00001
3.00001
3.00001
3
3
2.99999
2.99996
2.99988
2.99971
2.99924
2.99812
2.99539
2.98833
2.97197
2.92825
2.82446
2.55976
1.982
1.02445
0.480135
0.424015
0.478296
0.541096
3.00001
3.00001
3.00001
3.00001
3.00001
3
3
2.99999
2.99996
2.9999
2.9997
2.99933
2.99817
2.99578
2.98898
2.97361
2.93299
2.83469
2.58561
2.03341
1.09277
0.506167
0.407262
0.463766
0.530331
3.00001
3.00001
3.00001
3.00001
3.00001
3
3
2.99999
2.99997
2.99989
2.99975
2.99933
2.99836
2.99592
2.98981
2.97514
2.93703
2.84475
2.61004
2.08243
1.16094
0.530434
0.38856
0.451538
0.523909
3.00001
3.00001
3.00001
3.00001
3.00001
3
3
2.99999
2.99997
2.9999
2.99977
2.99934
2.99857
2.99592
2.99107
2.97546
2.943
2.85154
2.63546
2.12862
1.22931
0.552172
0.367976
0.440873
0.520075
3.00001
3.00001
3.00001
3.00001
3.00001
3
3
2.99999
2.99997
2.99991
2.99977
2.99942
2.99855
2.99646
2.99094
2.97836
2.94404
2.86384
2.65423
2.17553
1.29707
0.571025
0.346369
0.431272
0.517499
3.00001
3.00001
3.00001
3.00001
3.00001
3.00001
3
2.99999
2.99997
2.99992
2.99978
2.99949
2.99856
2.99686
2.99113
2.98026
2.94675
2.87286
2.67382
2.21928
1.36353
0.58754
0.325018
0.423242
0.516473
3.00001
3.00001
3.00001
3.00001
3.00001
3.00001
3
2.99999
2.99998
2.99992
2.99981
2.99948
2.99874
2.99684
2.99211
2.98072
2.95076
2.87934
2.69374
2.25916
1.4285
0.602581
0.304833
0.416599
0.516119
3.00001
3.00001
3.00001
3.00001
3.00001
3.00001
3
2.99999
2.99998
2.99993
2.99981
2.99953
2.99876
2.99712
2.99226
2.9823
2.95253
2.88725
2.70923
2.29705
1.48988
0.615305
0.286011
0.410578
0.514848
3.00001
3.00001
3.00001
3.00001
3.00001
3.00001
3
3
2.99997
2.99994
2.99981
2.99957
2.99878
2.99731
2.99259
2.983
2.95527
2.89204
2.72406
2.32964
1.54433
0.627118
0.270658
0.405439
0.512336
3.00001
3.00001
3.00001
3.00001
3.00001
3.00001
3
3
2.99998
2.99993
2.99982
2.99957
2.99884
2.99738
2.99282
2.98387
2.95647
2.89722
2.73466
2.35712
1.58959
0.640077
0.260102
0.401196
0.509132
3.00001
3.00001
3.00001
3.00001
3.00001
3.00001
3
3
2.99998
2.99993
2.99984
2.99954
2.99899
2.99712
2.99378
2.98259
2.9607
2.89581
2.74736
2.37461
1.62521
0.652623
0.253265
0.397466
0.505849
3.00001
3.00001
3.00001
3.00001
3.00001
3.00001
3
2.99999
2.99998
2.99993
2.99984
2.99955
2.99897
2.99728
2.99352
2.98363
2.9597
2.89963
2.74934
2.38673
1.64514
0.661356
0.249847
0.394366
0.502919
3.00001
3.00001
3.00001
3.00001
3.00001
3.00001
3
3
2.99998
2.99994
2.99982
2.99959
2.99892
2.99737
2.99347
2.98372
2.96019
2.89989
2.75134
2.39132
1.65284
0.666183
0.249289
0.392622
0.50117
0.972148
0.770818
0.265765
0.232321
0.295439
0.379577
0.405903
0.417871
0.431868
0.450684
0.464539
0.468574
0.466805
0.462895
0.457462
0.448586
0.43544
0.418531
0.398606
0.376324
0.352356
0.32703
0.300833
0.27392
0.245846
0.217336
0.188844
0.160578
0.132688
0.105144
0.0778869
0.0512328
0.0265763
0.0153937
0.036494
0.0608444
0.0858961
0.110294
0.133889
0.156974
0.178555
0.199918
0.222298
0.24488
0.266522
0.287577
0.308025
0.328247
0.347972
0.367409
0.386486
0.405268
0.423683
0.441905
0.459703
0.477379
0.494637
0.511763
0.528485
0.545071
0.561341
0.577387
0.593226
0.60878
0.624168
0.639294
0.65422
0.668934
0.683404
0.697678
0.711702
0.725517
0.739092
0.752448
0.765574
0.778477
0.791146
0.803585
0.815769
0.8277
0.83936
0.850706
0.861783
0.872435
0.882795
0.892625
0.902073
0.910895
0.919159
0.926661
0.933373
0.939082
0.943754
0.947043
0.949019
0.950207
0.95117
0.95178
0.952258
0.956543
0.951454
0.831426
0.571854
0.427571
0.30154
0.165549
0.054371
0.0707103
0.130527
0.179042
0.205058
0.207888
0.199319
0.193931
0.188111
0.178137
0.164483
0.148518
0.129953
0.109725
0.0884785
0.0670142
0.0466437
0.0325338
0.0335642
0.0504405
0.0717677
0.0948521
0.118307
0.141916
0.165238
0.188176
0.21066
0.232231
0.253199
0.273973
0.294863
0.31537
0.335655
0.355457
0.374406
0.392711
0.411797
0.431203
0.45011
0.468246
0.486087
0.503597
0.520797
0.537785
0.554448
0.570922
0.587071
0.603043
0.618721
0.634193
0.649452
0.664446
0.679303
0.693872
0.708315
0.722513
0.736542
0.750394
0.764032
0.777527
0.790795
0.803913
0.816819
0.829554
0.842098
0.854447
0.866626
0.878591
0.890394
0.901972
0.913388
0.924556
0.935564
0.946275
0.956838
0.967042
0.977072
0.986689
0.996043
1.00497
1.01347
1.02149
1.02892
1.0357
1.04173
1.04684
1.05097
1.05382
1.0554
1.05636
1.05714
1.05755
1.05759
1.06157
0.963301
0.93194
0.828467
0.738487
0.643427
0.534599
0.444651
0.35888
0.289237
0.238405
0.199904
0.173319
0.148599
0.130105
0.13094
0.139611
0.150465
0.163414
0.178351
0.194514
0.211588
0.229394
0.247823
0.266497
0.28507
0.303852
0.322797
0.341861
0.360984
0.379948
0.398662
0.417124
0.43514
0.452715
0.469874
0.486789
0.503696
0.520341
0.536979
0.553166
0.568787
0.583812
0.599192
0.615215
0.631109
0.64638
0.661338
0.675999
0.690586
0.704883
0.719149
0.73304
0.746982
0.760472
0.774088
0.787217
0.800504
0.813313
0.826272
0.838787
0.851426
0.863651
0.875998
0.887936
0.900021
0.911679
0.923508
0.93489
0.946448
0.957548
0.968812
0.979625
0.990569
1.00111
1.01172
1.02198
1.03224
1.0422
1.05208
1.06167
1.07115
1.08033
1.08932
1.09802
1.10642
1.1145
1.12219
1.1294
1.13613
1.14214
1.14755
1.15206
1.15565
1.15806
1.15928
1.16012
1.16071
1.16089
1.16046
1.16423
0.986987
1.00069
0.967904
0.915812
0.853965
0.783694
0.712649
0.649179
0.596805
0.557786
0.529623
0.507842
0.49383
0.483974
0.480051
0.479605
0.480235
0.48277
0.487399
0.49417
0.502474
0.512144
0.522629
0.534038
0.545901
0.558212
0.570843
0.583628
0.596553
0.609396
0.622216
0.634799
0.64731
0.659503
0.671572
0.683609
0.695632
0.707775
0.719889
0.73199
0.743598
0.754853
0.766269
0.77852
0.791016
0.803155
0.815003
0.826677
0.838368
0.849907
0.861534
0.87294
0.884458
0.895731
0.907113
0.918272
0.929511
0.940561
0.951653
0.962583
0.97352
0.984307
0.995081
1.00571
1.01631
1.02675
1.03718
1.04741
1.05764
1.06765
1.07765
1.08743
1.09718
1.10673
1.11622
1.12551
1.13475
1.14378
1.15277
1.16159
1.17029
1.17882
1.18712
1.19521
1.20301
1.21043
1.21753
1.22414
1.23023
1.23577
1.24049
1.24442
1.24741
1.24906
1.2499
1.25047
1.25059
1.25025
1.24882
1.25195
0.999428
1.03508
1.03654
1.01383
0.977812
0.933005
0.88596
0.842464
0.809511
0.785393
0.769221
0.7566
0.74817
0.743365
0.74276
0.745103
0.746902
0.747044
0.74724
0.749032
0.751798
0.75527
0.759493
0.764123
0.769103
0.774343
0.779904
0.785717
0.791816
0.798173
0.804688
0.811507
0.818276
0.825371
0.832474
0.839903
0.847431
0.855412
0.863535
0.871976
0.88004
0.888019
0.896116
0.905149
0.914688
0.924146
0.933445
0.942664
0.951984
0.961294
0.970786
0.98023
0.989851
0.999383
1.00908
1.01866
1.02842
1.03803
1.04783
1.05745
1.06726
1.07687
1.08665
1.09622
1.10591
1.11542
1.12498
1.1344
1.1438
1.15307
1.16231
1.17138
1.18044
1.18935
1.19825
1.20711
1.2159
1.22462
1.23322
1.24161
1.24989
1.25791
1.26575
1.27337
1.28063
1.2877
1.29424
1.30047
1.30608
1.31113
1.31546
1.31887
1.32133
1.32242
1.32294
1.32324
1.32307
1.32206
1.31974
1.32224
1.00083
1.04565
1.06438
1.06204
1.04471
1.01911
0.990449
0.965057
0.946529
0.935644
0.92998
0.927751
0.926974
0.927127
0.92772
0.929668
0.931807
0.931955
0.929862
0.928257
0.927337
0.926895
0.926775
0.926928
0.927298
0.927911
0.928846
0.930126
0.931823
0.93391
0.93649
0.939331
0.942706
0.94629
0.950336
0.954669
0.959457
0.964621
0.970285
0.976191
0.982117
0.987858
0.994042
1.00089
1.00873
1.01642
1.02441
1.0321
1.0402
1.04808
1.05639
1.06452
1.07303
1.08137
1.09
1.09852
1.10723
1.11589
1.12465
1.1334
1.14222
1.151
1.15985
1.16864
1.1775
1.18628
1.19511
1.20388
1.21263
1.22137
1.23002
1.23868
1.24735
1.25596
1.26458
1.27295
1.28137
1.28949
1.29762
1.30549
1.31325
1.3208
1.32811
1.33521
1.34196
1.34844
1.35447
1.36006
1.36511
1.36946
1.37314
1.37584
1.3774
1.378
1.37821
1.37812
1.37712
1.37546
1.37253
1.37453
0.99519
1.04145
1.06838
1.07741
1.07364
1.06201
1.04833
1.03699
1.03098
1.03034
1.03372
1.03883
1.04417
1.0485
1.0512
1.05319
1.0559
1.05769
1.0569
1.05391
1.05103
1.04851
1.0464
1.04451
1.04281
1.04129
1.03999
1.03903
1.03839
1.03823
1.03849
1.03922
1.04042
1.04201
1.04408
1.04647
1.04942
1.05268
1.05665
1.06076
1.06509
1.06918
1.07382
1.07902
1.08526
1.09157
1.0983
1.10491
1.11189
1.1188
1.12609
1.13338
1.14097
1.14861
1.15645
1.16434
1.17236
1.18044
1.18858
1.19681
1.20503
1.21336
1.22163
1.23
1.23832
1.24667
1.25503
1.26333
1.27171
1.28003
1.28844
1.29677
1.30505
1.31326
1.32134
1.3294
1.33729
1.34511
1.35281
1.36029
1.36772
1.3748
1.38181
1.38841
1.39483
1.40081
1.4064
1.4115
1.41595
1.41982
1.42274
1.42485
1.42565
1.42592
1.42596
1.42547
1.42358
1.42129
1.4179
1.41959
0.985093
1.0275
1.05669
1.07209
1.07712
1.07663
1.07471
1.07498
1.07902
1.08682
1.09683
1.10779
1.11767
1.12606
1.13163
1.13506
1.13742
1.1401
1.14127
1.13992
1.13649
1.13296
1.1298
1.12683
1.12404
1.12127
1.11869
1.11625
1.11411
1.11233
1.11092
1.11001
1.10953
1.10956
1.11006
1.11103
1.1125
1.11446
1.11709
1.12006
1.12323
1.12635
1.13001
1.13426
1.13944
1.1449
1.15079
1.15677
1.16303
1.16938
1.17598
1.18272
1.18967
1.19678
1.20403
1.21145
1.21896
1.22662
1.23438
1.24222
1.25021
1.25821
1.26638
1.27455
1.28282
1.2911
1.29938
1.30776
1.31602
1.32431
1.33244
1.34058
1.34863
1.35657
1.36451
1.37225
1.38002
1.38754
1.39506
1.40232
1.40946
1.41638
1.42299
1.42942
1.43537
1.44108
1.44616
1.45078
1.45471
1.45783
1.46015
1.46123
1.46161
1.46165
1.46126
1.45983
1.45673
1.45385
1.44989
1.45119
0.970879
1.00743
1.03502
1.0539
1.06581
1.0741
1.08205
1.09148
1.10344
1.11728
1.13235
1.14701
1.16052
1.17167
1.18027
1.18588
1.18958
1.19216
1.19486
1.19603
1.19493
1.19184
1.1885
1.18515
1.18188
1.17869
1.17556
1.17255
1.16968
1.16711
1.16485
1.16305
1.1617
1.16086
1.16052
1.16067
1.16133
1.16253
1.16433
1.16657
1.16894
1.17137
1.17425
1.17777
1.18205
1.18677
1.19193
1.19737
1.20307
1.209
1.21512
1.22144
1.22794
1.23463
1.24148
1.24851
1.25565
1.26294
1.27031
1.27785
1.28542
1.29314
1.30088
1.30869
1.31658
1.32444
1.33244
1.34028
1.34824
1.35606
1.36396
1.37176
1.37954
1.38728
1.39489
1.40249
1.4099
1.41728
1.42443
1.43146
1.43827
1.4448
1.45114
1.45704
1.46269
1.46772
1.47234
1.47625
1.47945
1.48184
1.48315
1.48362
1.48366
1.48342
1.48219
1.47993
1.47614
1.47302
1.4693
1.47058
0.952879
0.983034
1.00861
1.02947
1.04696
1.0627
1.07835
1.09489
1.11238
1.13061
1.14866
1.166
1.18154
1.19519
1.20596
1.2143
1.22006
1.22451
1.2275
1.23035
1.23182
1.23155
1.22933
1.22639
1.22316
1.21999
1.21677
1.21368
1.21058
1.20775
1.20511
1.20285
1.20102
1.19962
1.19874
1.19833
1.19846
1.19911
1.20037
1.20213
1.20399
1.20601
1.20849
1.21156
1.21536
1.2196
1.22432
1.22941
1.23478
1.24048
1.2463
1.25242
1.25869
1.26515
1.27183
1.27859
1.28565
1.29269
1.30003
1.30736
1.31488
1.32248
1.33012
1.33794
1.34568
1.35357
1.36132
1.36921
1.37697
1.38482
1.39259
1.40032
1.40805
1.41562
1.42323
1.4306
1.43799
1.44511
1.45216
1.45894
1.46549
1.47179
1.4777
1.48332
1.48834
1.49294
1.4968
1.50002
1.5024
1.50379
1.50431
1.50436
1.50418
1.50321
1.50067
1.49768
1.49373
1.4908
1.48753
1.48887
0.932757
0.957568
0.981873
1.00481
1.02682
1.04816
1.06934
1.09047
1.11153
1.1322
1.15209
1.17075
1.18784
1.20285
1.21586
1.22644
1.23493
1.24147
1.24667
1.25051
1.25336
1.25553
1.25627
1.25528
1.25298
1.25028
1.24751
1.24454
1.24165
1.2389
1.23626
1.23402
1.23198
1.23049
1.22932
1.22871
1.22854
1.2289
1.22989
1.23132
1.23287
1.23465
1.2368
1.23963
1.24299
1.24689
1.25123
1.25598
1.26111
1.2665
1.27215
1.27803
1.28406
1.29035
1.2967
1.30335
1.31003
1.31698
1.32398
1.33117
1.33847
1.34586
1.35342
1.36092
1.36856
1.37609
1.38376
1.39132
1.39897
1.40656
1.41414
1.42171
1.42917
1.43665
1.44393
1.45121
1.45823
1.46519
1.47188
1.47836
1.48459
1.49044
1.49601
1.50098
1.50556
1.50937
1.51259
1.51492
1.51638
1.51691
1.51698
1.51681
1.51589
1.51382
1.51039
1.50719
1.50354
1.50112
1.49851
1.50001
0.912061
0.933764
0.957898
0.983061
1.00847
1.03368
1.05822
1.08216
1.10507
1.12687
1.14756
1.16686
1.18484
1.20102
1.21569
1.22828
1.23916
1.24805
1.25564
1.26161
1.26663
1.27001
1.27255
1.27418
1.27451
1.27325
1.27131
1.26903
1.26654
1.26393
1.26162
1.25954
1.25771
1.25628
1.25514
1.25446
1.25422
1.25446
1.2553
1.25658
1.25806
1.25968
1.26171
1.26434
1.26746
1.27113
1.27517
1.27974
1.28465
1.28988
1.29544
1.30113
1.30714
1.3132
1.31954
1.32597
1.33261
1.33941
1.3463
1.35341
1.36055
1.36789
1.37516
1.38258
1.38993
1.39737
1.40479
1.4122
1.41966
1.42701
1.43446
1.44172
1.44907
1.4562
1.46333
1.47027
1.47706
1.4837
1.49001
1.49617
1.50189
1.5074
1.5123
1.51675
1.52054
1.52359
1.52589
1.52723
1.52772
1.52771
1.52749
1.52651
1.52408
1.52114
1.51755
1.51456
1.51157
1.50985
1.50802
1.50975
0.893975
0.914615
0.939323
0.966043
0.993437
1.02043
1.04652
1.07127
1.09485
1.11697
1.13799
1.15759
1.17615
1.19332
1.20928
1.22376
1.23671
1.24804
1.25788
1.26619
1.2732
1.27875
1.28326
1.28626
1.28849
1.28977
1.28988
1.28907
1.28761
1.28565
1.28378
1.2821
1.2806
1.27939
1.2784
1.27783
1.27761
1.27782
1.27858
1.27982
1.2812
1.28272
1.28465
1.28707
1.29006
1.29349
1.29735
1.3017
1.30634
1.31144
1.3167
1.32231
1.32806
1.33402
1.3402
1.34646
1.35301
1.35957
1.36644
1.3733
1.38042
1.38744
1.39463
1.40178
1.409
1.41626
1.42348
1.4308
1.438
1.4453
1.45246
1.45965
1.4667
1.47366
1.48052
1.48714
1.49365
1.4998
1.5058
1.51135
1.51667
1.52142
1.52571
1.52934
1.53225
1.5344
1.53563
1.53605
1.53602
1.53571
1.53456
1.53235
1.52906
1.52594
1.52275
1.5204
1.5183
1.51741
1.51638
1.51837
0.879897
0.901213
0.926868
0.954561
0.98267
1.01002
1.03616
1.06066
1.08386
1.10562
1.12639
1.1461
1.16501
1.18295
1.19999
1.21589
1.23055
1.24381
1.25568
1.26615
1.27526
1.28313
1.28962
1.29493
1.299
1.30194
1.30397
1.30537
1.30569
1.3052
1.30423
1.30317
1.30201
1.3011
1.30037
1.29995
1.29983
1.30011
1.30086
1.30211
1.30345
1.30501
1.30686
1.30922
1.31213
1.31538
1.31916
1.32324
1.32777
1.33261
1.33773
1.34317
1.34874
1.35463
1.36057
1.3668
1.37308
1.3796
1.38623
1.39299
1.39982
1.40668
1.41365
1.42059
1.42766
1.43465
1.44175
1.44876
1.45583
1.46283
1.46977
1.47669
1.48342
1.49015
1.49657
1.50295
1.50894
1.51475
1.52015
1.52524
1.52986
1.53387
1.53735
1.54
1.54198
1.54296
1.54327
1.54317
1.5427
1.54136
1.53874
1.53569
1.53234
1.52955
1.52705
1.52547
1.5243
1.52409
1.52376
1.526
0.870535
0.893609
0.919949
0.947626
0.975109
1.00159
1.02671
1.05034
1.07268
1.09392
1.11434
1.13407
1.15321
1.17175
1.18957
1.20666
1.22274
1.23775
1.25145
1.26398
1.27511
1.28508
1.29368
1.30115
1.30732
1.31239
1.31629
1.31917
1.32115
1.32272
1.3233
1.32322
1.32279
1.32232
1.32197
1.32177
1.32187
1.32227
1.32308
1.3243
1.32566
1.3272
1.32893
1.33125
1.33397
1.33715
1.34073
1.34466
1.34903
1.35363
1.35866
1.36383
1.36935
1.375
1.38086
1.38688
1.39303
1.39941
1.40581
1.41239
1.41894
1.42566
1.43234
1.43915
1.44595
1.45278
1.45964
1.46644
1.4733
1.47999
1.48675
1.49328
1.4998
1.50608
1.51221
1.51807
1.52359
1.52887
1.53364
1.53811
1.54182
1.5451
1.54747
1.54926
1.54997
1.55014
1.54996
1.5493
1.54756
1.54481
1.5416
1.53842
1.53551
1.53338
1.53164
1.53096
1.53052
1.53089
1.53131
1.53375
0.86504
0.890179
0.917071
0.944146
0.970371
0.995309
1.01892
1.04124
1.06262
1.08321
1.10331
1.12302
1.14236
1.16137
1.17985
1.1978
1.21504
1.23133
1.2466
1.26073
1.27369
1.28546
1.29605
1.30544
1.31368
1.32069
1.32663
1.3314
1.33519
1.33805
1.34034
1.342
1.343
1.34341
1.34358
1.34377
1.34406
1.34457
1.34544
1.34661
1.34799
1.34943
1.35111
1.35331
1.35586
1.35895
1.36225
1.36607
1.37012
1.37459
1.37934
1.38436
1.38968
1.39514
1.4009
1.40671
1.41283
1.41896
1.42527
1.43159
1.438
1.44449
1.45097
1.45757
1.4641
1.47075
1.47727
1.48388
1.49036
1.49681
1.50318
1.50938
1.51552
1.52134
1.52707
1.53232
1.5374
1.54193
1.54618
1.54964
1.55265
1.55477
1.55628
1.55674
1.55673
1.55643
1.55556
1.55351
1.55058
1.54717
1.54409
1.54112
1.53911
1.5375
1.53689
1.53678
1.53726
1.53795
1.53876
1.54142
0.862449
0.889662
0.916546
0.942451
0.966994
0.990178
1.01222
1.03333
1.05383
1.07395
1.0938
1.11353
1.13306
1.15239
1.17139
1.18993
1.208
1.22525
1.24171
1.2572
1.27167
1.28512
1.29744
1.30869
1.31879
1.32777
1.33563
1.34238
1.34807
1.35264
1.35649
1.35951
1.36164
1.36332
1.3645
1.36527
1.36582
1.36651
1.36742
1.36856
1.36996
1.37131
1.37304
1.37507
1.37762
1.38045
1.38361
1.38717
1.39098
1.39523
1.39967
1.40454
1.40956
1.41493
1.42043
1.42619
1.4321
1.43811
1.44425
1.45039
1.45668
1.46293
1.4693
1.47563
1.48199
1.48836
1.49464
1.50099
1.50712
1.51332
1.51922
1.52514
1.5307
1.53616
1.54119
1.54593
1.55027
1.55417
1.55746
1.5601
1.56199
1.56315
1.56341
1.56323
1.56271
1.56155
1.55911
1.55603
1.55246
1.54937
1.54651
1.54445
1.54309
1.54237
1.54256
1.54315
1.54401
1.54509
1.54623
1.54899
0.860071
0.889194
0.915864
0.940435
0.963426
0.985078
1.00591
1.02616
1.04615
1.06599
1.08579
1.10556
1.12526
1.14484
1.16419
1.18325
1.20189
1.21993
1.23731
1.2539
1.26963
1.28446
1.29829
1.31111
1.32291
1.33361
1.34323
1.35178
1.35921
1.36549
1.37083
1.37533
1.37891
1.38169
1.38373
1.38537
1.38663
1.38782
1.38879
1.39003
1.39127
1.39265
1.3943
1.39622
1.39858
1.40112
1.40412
1.40735
1.41101
1.41495
1.41923
1.42383
1.42866
1.43383
1.43914
1.44478
1.45047
1.45633
1.46224
1.46824
1.47431
1.48038
1.48656
1.49265
1.49886
1.50493
1.51107
1.51706
1.52301
1.52882
1.53444
1.53992
1.54505
1.54997
1.55438
1.55852
1.5621
1.56518
1.56747
1.56913
1.56988
1.56998
1.56965
1.56887
1.56729
1.56444
1.56117
1.55755
1.55438
1.55164
1.54951
1.54834
1.54758
1.54792
1.54856
1.54942
1.55065
1.55237
1.55413
1.55694
0.854191
0.885178
0.911728
0.935439
0.957471
0.97844
0.998797
1.01883
1.03875
1.05869
1.07862
1.09857
1.11846
1.13825
1.15788
1.17727
1.19634
1.21501
1.23312
1.25054
1.26726
1.28314
1.29821
1.31233
1.32553
1.33773
1.34893
1.35903
1.36804
1.37597
1.38277
1.38863
1.39375
1.39773
1.40098
1.40342
1.4054
1.40702
1.4083
1.40963
1.41083
1.41226
1.41369
1.41546
1.41745
1.41977
1.42245
1.42541
1.42882
1.43244
1.43654
1.44083
1.44553
1.45043
1.45563
1.46104
1.46655
1.47228
1.478
1.48392
1.4898
1.49579
1.50177
1.50773
1.51376
1.51963
1.52561
1.5313
1.53707
1.54248
1.54785
1.55279
1.55755
1.56174
1.56569
1.56901
1.57189
1.57388
1.57533
1.57575
1.57569
1.57526
1.57422
1.57223
1.56902
1.56561
1.56201
1.55881
1.55616
1.554
1.55294
1.55221
1.55259
1.55326
1.55413
1.55535
1.55721
1.55965
1.56186
1.56471
0.837387
0.8709
0.89837
0.922685
0.945325
0.96697
0.988031
1.00875
1.02924
1.04966
1.07004
1.09038
1.11068
1.13087
1.15091
1.17071
1.19025
1.20941
1.22809
1.24618
1.26367
1.28045
1.29647
1.31169
1.32599
1.33945
1.35187
1.36337
1.3738
1.3832
1.39144
1.39861
1.4048
1.41013
1.41442
1.41778
1.42056
1.42267
1.42445
1.42588
1.4272
1.42851
1.42982
1.43137
1.43304
1.43516
1.43745
1.44025
1.44328
1.44677
1.45057
1.45471
1.45923
1.46396
1.46907
1.47428
1.47976
1.48534
1.49103
1.49686
1.50264
1.50862
1.51441
1.52041
1.52615
1.53204
1.53765
1.54329
1.54861
1.55385
1.55868
1.5633
1.56737
1.57113
1.57431
1.57699
1.57879
1.57999
1.58024
1.58006
1.57949
1.57811
1.57573
1.57229
1.56873
1.56518
1.56196
1.55946
1.55731
1.55633
1.55563
1.55602
1.55667
1.55755
1.55885
1.5607
1.56321
1.56602
1.56851
1.5714
0.80821
0.844516
0.874121
0.900473
0.925056
0.948589
0.971349
0.993609
1.01546
1.037
1.05829
1.07937
1.10023
1.12094
1.14141
1.16173
1.18176
1.20154
1.22077
1.23948
1.25757
1.27502
1.29179
1.30781
1.32306
1.3375
1.35102
1.36365
1.37523
1.3858
1.39529
1.40366
1.41102
1.41751
1.42296
1.42741
1.43098
1.43386
1.43609
1.43786
1.43939
1.44071
1.44212
1.44351
1.44522
1.44708
1.44933
1.45185
1.45474
1.45801
1.46156
1.46554
1.46975
1.47435
1.47918
1.48423
1.48954
1.49491
1.50056
1.50616
1.512
1.51772
1.52361
1.52935
1.53515
1.54077
1.54634
1.55169
1.55684
1.5617
1.56619
1.57025
1.57385
1.57694
1.57943
1.58112
1.58204
1.58222
1.58204
1.58128
1.57942
1.57663
1.57314
1.56949
1.56605
1.56281
1.56048
1.55835
1.55744
1.55683
1.55723
1.55789
1.55879
1.56008
1.56205
1.56451
1.56738
1.57042
1.5731
1.57604
0.771301
0.808883
0.840802
0.869909
0.897196
0.923285
0.948353
0.972615
0.996182
1.01915
1.04163
1.0637
1.08543
1.10686
1.128
1.14885
1.16938
1.18957
1.20935
1.22859
1.24731
1.26543
1.28296
1.29977
1.31589
1.33116
1.3456
1.3591
1.37163
1.38314
1.39362
1.40302
1.41134
1.41872
1.42526
1.43079
1.43536
1.43909
1.44215
1.44462
1.4466
1.44831
1.44984
1.45138
1.45297
1.45473
1.45674
1.45898
1.46162
1.46451
1.46784
1.47147
1.47547
1.47984
1.4844
1.48933
1.49438
1.49974
1.50517
1.51081
1.51648
1.52227
1.52802
1.53379
1.53945
1.54503
1.55042
1.55561
1.56048
1.56501
1.56907
1.57263
1.57567
1.57808
1.57968
1.58053
1.58073
1.58058
1.57959
1.57736
1.57429
1.5708
1.56714
1.56392
1.5607
1.55853
1.55649
1.55565
1.55515
1.5556
1.55627
1.5572
1.55852
1.56048
1.56302
1.56584
1.56897
1.5722
1.57502
1.57799
0.734381
0.770824
0.803529
0.834241
0.86352
0.891584
0.91862
0.944718
0.96999
0.994541
1.01842
1.04173
1.06452
1.08686
1.10882
1.13038
1.15162
1.17246
1.19295
1.21282
1.2321
1.25076
1.26873
1.28604
1.30259
1.3184
1.3334
1.34755
1.36083
1.37323
1.38467
1.39521
1.40477
1.41329
1.42102
1.42783
1.4336
1.43836
1.4423
1.44547
1.44806
1.45021
1.45203
1.45372
1.45532
1.45702
1.45884
1.4609
1.46324
1.46589
1.46892
1.47228
1.47605
1.48011
1.48452
1.48919
1.49413
1.49931
1.50467
1.51022
1.51585
1.52157
1.52729
1.533
1.5386
1.54407
1.54932
1.55428
1.55889
1.56301
1.56663
1.56966
1.57214
1.57367
1.57461
1.57496
1.57477
1.5734
1.57092
1.56775
1.56445
1.56081
1.55784
1.55477
1.55274
1.55088
1.5501
1.54973
1.55024
1.551
1.55195
1.55334
1.55534
1.55783
1.56072
1.56379
1.56713
1.5705
1.57346
1.57644
0.695482
0.730538
0.76315
0.79448
0.824788
0.854145
0.88256
0.910107
0.936822
0.962749
0.987978
1.01251
1.03647
1.05986
1.08273
1.10511
1.12699
1.1484
1.16938
1.18969
1.20942
1.22852
1.24708
1.26496
1.28222
1.29877
1.31455
1.32959
1.34376
1.35716
1.36962
1.38127
1.39189
1.4016
1.4103
1.41816
1.42511
1.431
1.43607
1.44027
1.44379
1.44666
1.44902
1.45105
1.4528
1.45452
1.4562
1.45808
1.46014
1.46252
1.46526
1.46834
1.47184
1.47564
1.47984
1.48429
1.48909
1.49411
1.49934
1.50478
1.51028
1.51595
1.5215
1.52717
1.53252
1.53791
1.54279
1.54757
1.55164
1.55541
1.55838
1.56094
1.56249
1.56369
1.56414
1.56371
1.56204
1.55964
1.55639
1.55335
1.54983
1.54705
1.54417
1.54227
1.54058
1.53993
1.53968
1.54027
1.54105
1.54212
1.54351
1.54555
1.54805
1.55088
1.55405
1.55732
1.56085
1.56436
1.56742
1.57044
0.656089
0.690043
0.721779
0.752787
0.783227
0.813089