/*--------------------------------*- C++ -*----------------------------------*\
  =========                 |
  \\      /  F ield         | OpenFOAM: The Open Source CFD Toolbox
   \\    /   O peration     | Website:  https://openfoam.org
    \\  /    A nd           | Version:  9
     \\/     M anipulation  |
\*---------------------------------------------------------------------------*/
FoamFile
{
    format      ascii;
    class       volScalarField;
    location    "10";
    object      p;
}
// * * * * * * * * * * * * * * * * * * * * * * * * * * * * * * * * * * * * * //

dimensions      [1 -1 -2 0 0 0 0];

internalField   nonuniform List<scalar> 
5250
(
1.00001
1.00004
1.00011
1.00029
1.00074
1.00179
1.00458
1.01082
1.02813
1.06724
1.1738
1.44937
2.2439
4.60136
10.6861
11.2184
11.0925
11.0931
11.1885
11.417
11.632
11.7707
11.881
11.9679
12.0349
1.00001
1.00004
1.00012
1.00028
1.00076
1.00172
1.00465
1.01047
1.02837
1.06563
1.17332
1.44285
2.2305
4.55792
10.6036
11.2114
11.0865
11.0851
11.1799
11.4079
11.6225
11.7619
11.8738
11.9621
12.0306
1.00001
1.00004
1.0001
1.0003
1.00068
1.00185
1.00414
1.01125
1.02551
1.06821
1.16372
1.43858
2.19543
4.46786
10.4192
11.1948
11.07
11.0583
11.1499
11.3731
11.5848
11.7223
11.8334
11.9209
11.9891
1.00001
1.00004
1.0001
1.00028
1.00069
1.00169
1.00429
1.01015
1.02631
1.06293
1.16224
1.41817
2.15416
4.32647
10.131
11.174
11.0459
11.0128
11.0987
11.3126
11.5188
11.652
11.7596
11.8445
11.913
1.00001
1.00003
1.0001
1.00026
1.00064
1.00166
1.00388
1.01027
1.02366
1.06257
1.151
1.40119
2.09058
4.14615
9.73074
11.1532
11.0171
10.9503
11.0283
11.2292
11.4277
11.5541
11.6561
11.7372
11.8071
1.00001
1.00003
1.00009
1.00025
1.0006
1.00155
1.00375
1.00929
1.02322
1.05687
1.14431
1.37238
2.01857
3.91948
9.20861
11.1407
10.986
10.87
10.9379
11.1214
11.3086
11.4239
11.5155
11.5888
11.6588
1.00001
1.00003
1.00009
1.00021
1.0006
1.00135
1.00364
1.00827
1.02196
1.05166
1.13414
1.33994
1.93178
3.65311
8.55238
11.1441
10.9562
10.7727
10.828
10.9886
11.1589
11.2563
11.3293
11.3852
11.4492
1.00001
1.00003
1.00008
1.00019
1.00054
1.00121
1.0033
1.00744
1.01996
1.04643
1.12128
1.30452
1.83075
3.35028
7.75478
11.1616
10.9293
10.6595
10.6997
10.8308
10.9766
11.0458
11.0864
11.1056
11.1433
1
1.00002
1.00007
1.00018
1.00046
1.0011
1.00289
1.00659
1.01766
1.04069
1.1072
1.26581
1.72071
3.02075
6.83592
11.1827
10.903
10.5352
10.5556
10.6477
10.7586
10.7859
10.7735
10.7182
10.6662
1
1.00002
1.00006
1.00016
1.00038
1.00101
1.00234
1.00608
1.01448
1.03642
1.09007
1.2293
1.60474
2.68326
5.8272
11.1316
10.8456
10.4119
10.3944
10.4422
10.5006
10.4782
10.3839
10.1663
9.84676
1
1.00002
1.00005
1.00014
1.00032
1.00089
1.00197
1.00536
1.01208
1.03219
1.07561
1.19735
1.50811
2.40707
5.01459
10.8136
10.6777
10.3083
10.2044
10.219
10.2111
10.1286
9.88433
9.31983
7.88518
1
1.00002
1.00005
1.00011
1.0003
1.00071
1.00184
1.0044
1.01092
1.0271
1.06669
1.16868
1.43834
2.20191
4.43319
10.022
10.3696
10.1903
10.013
9.98401
9.9203
9.75377
9.37546
8.61706
7.16364
1
1.00001
1.00004
1.0001
1.00026
1.0006
1.00161
1.00364
1.00979
1.0222
1.05941
1.14125
1.37646
2.01159
3.88487
8.8822
10.1732
10.0637
9.84196
9.75177
9.63774
9.40062
8.93383
8.18169
7.06805
1
1.00001
1.00003
1.00008
1.00021
1.00053
1.00128
1.00328
1.0077
1.02005
1.04736
1.12254
1.30877
1.83791
3.35574
7.59818
10.0588
9.95987
9.7111
9.53501
9.37104
9.09123
8.62404
7.94843
7.07568
1
1.00001
1.00003
1.00007
1.00018
1.00042
1.00112
1.00251
1.00678
1.01523
1.04105
1.09586
1.25354
1.66163
2.85104
6.219
9.97114
9.88164
9.6094
9.34212
9.1329
8.84359
8.40839
7.8159
7.09368
1
1.00001
1.00002
1.00006
1.00014
1.00035
1.00086
1.00205
1.00525
1.01223
1.03193
1.07541
1.19543
1.5014
2.36779
4.77824
9.71613
9.73859
9.5342
9.18366
8.93463
8.64995
8.25369
7.73475
7.12122
1
1.00001
1.00002
1.00004
1.00012
1.00027
1.0007
1.00166
1.00412
1.01022
1.02467
1.06227
1.15389
1.39966
2.08041
4.02804
8.87719
9.51218
9.37157
9.05472
8.77653
8.50001
8.14387
7.69226
7.16492
1
1
1.00001
1.00003
1.00009
1.00021
1.00057
1.00127
1.00343
1.00769
1.02065
1.0475
1.12504
1.31008
1.84392
3.34149
7.36529
9.25879
9.1869
8.96459
8.66516
8.39179
8.07459
7.69246
7.23295
1
1
1.00001
1.00003
1.00007
1.00018
1.0004
1.00109
1.00242
1.00653
1.01473
1.03912
1.09223
1.24115
1.6266
2.73059
5.77349
9.0655
9.07671
8.93273
8.62177
8.3325
8.04763
7.70809
7.32729
1
1
1.00001
1.00002
1.00005
1.00012
1.00033
1.00075
1.00197
1.00456
1.01165
1.02791
1.06989
1.17336
1.44913
2.19969
4.24895
8.60234
9.02894
8.90436
8.61965
8.32583
8.05658
7.7576
7.45926
1
1
1.00001
1.00002
1.00004
1.00009
1.00025
1.00056
1.00152
1.00337
1.0091
1.02052
1.05437
1.12896
1.33916
1.89431
3.47236
7.46816
8.90028
8.83424
8.62975
8.34302
8.09576
7.86465
7.64209
1
1
1
1.00001
1.00003
1.00007
1.00018
1.00043
1.00112
1.00254
1.00678
1.01525
1.04092
1.09521
1.2507
1.64862
2.78297
5.83005
8.6806
8.77395
8.66135
8.41177
8.19592
8.04094
7.8759
1
1
1
1.00001
1.00002
1.00005
1.00013
1.00032
1.0008
1.00186
1.00486
1.01102
1.02925
1.06757
1.17613
1.44275
2.18411
4.14517
8.21077
8.79361
8.73203
8.56978
8.40137
8.28149
8.14659
1
1
1
1.00001
1.00002
1.00004
1.0001
1.00023
1.00059
1.00137
1.00358
1.00812
1.0216
1.04958
1.12988
1.32102
1.86426
3.34572
7.09603
8.76022
8.85278
8.79966
8.68031
8.56417
8.43118
1
1
1
1
1.00001
1.00003
1.00007
1.00018
1.00042
1.00102
1.00257
1.00604
1.01561
1.03646
1.09427
1.23158
1.61417
2.65794
5.46141
8.62638
9.09944
9.06839
8.9885
8.87305
8.71578
1
1
1
1
1.00001
1.00002
1.00005
1.00013
1.00029
1.00078
1.00176
1.00462
1.01067
1.02735
1.06558
1.1663
1.42301
2.12803
4.01954
8.1923
9.38215
9.37916
9.33135
9.21587
8.99222
1
1
1
1
1.00001
1.00002
1.00004
1.00009
1.00022
1.00058
1.00131
1.00349
1.00783
1.021
1.04807
1.12654
1.31246
1.84477
3.31076
7.12954
9.5694
9.75522
9.69622
9.5412
9.23626
1
1
1
1
1
1.00001
1.00003
1.00007
1.00017
1.00042
1.00102
1.00256
1.00602
1.01563
1.03648
1.0947
1.2329
1.62013
2.68638
5.60188
9.73989
10.1945
10.0936
9.84194
9.44143
1
1
1
1
1
1.00001
1.00002
1.00005
1.00014
1.00031
1.00083
1.00188
1.00497
1.01154
1.02953
1.07155
1.18192
1.4687
2.2735
4.51717
9.59563
10.5582
10.432
10.1055
9.60989
1
1
1
1
1
1.00001
1.00002
1.00004
1.00011
1.00025
1.00068
1.00152
1.00415
1.00931
1.02501
1.05818
1.15241
1.38586
2.06124
3.99754
9.02971
10.778
10.6598
10.3049
9.73062
1
1
1
1
1
1.00001
1.00002
1.00004
1.00009
1.00021
1.00057
1.00129
1.00349
1.00786
1.02118
1.04911
1.12926
1.32452
1.89056
3.52024
8.05498
11.038
10.8834
10.4213
9.80211
1
1
1
1
1
1.00001
1.00001
1.00003
1.00007
1.0002
1.00045
1.00119
1.00277
1.00716
1.0173
1.04339
1.10866
1.27897
1.74994
3.12669
7.11365
11.405
11.1224
10.4402
9.83434
1
1
1
1
1
1
1.00001
1.00003
1.00007
1.00016
1.00043
1.00096
1.00258
1.00584
1.01569
1.03633
1.09576
1.2365
1.64053
2.79329
6.20756
11.704
11.2915
10.4302
9.867
1
1
1
1
1
1
1.00001
1.00002
1.00006
1.00015
1.00035
1.00093
1.00211
1.00571
1.01284
1.03479
1.08098
1.21453
1.55544
2.5586
5.50533
11.6895
11.2785
10.4358
9.91857
1
1
1
1
1
1
1.00001
1.00002
1.00005
1.00014
1.00032
1.00086
1.00192
1.00525
1.01177
1.03186
1.07433
1.19637
1.50686
2.41939
5.12142
11.426
11.1608
10.5
9.99857
1
1
1
1
1
1
1.00001
1.00002
1.00005
1.00013
1.00029
1.0008
1.00179
1.00487
1.01101
1.02946
1.06944
1.1819
1.46964
2.31014
4.79758
10.9788
10.9887
10.6449
10.0953
1
1
1
1
1
1
1.00001
1.00002
1.00005
1.00012
1.00029
1.00072
1.0017
1.0045
1.01031
1.02756
1.06472
1.16992
1.43731
2.21659
4.51846
10.498
11.0029
10.7287
10.1734
1
1
1
1
1
1
1.00001
1.00002
1.00004
1.00011
1.00028
1.00064
1.00171
1.00389
1.0105
1.02391
1.0643
1.15399
1.41392
2.12832
4.27621
10.0158
11.0561
10.7928
10.2368
1
1
1
1
1
1
1.00001
1.00002
1.00004
1.0001
1.00025
1.00063
1.00152
1.00391
1.00918
1.02407
1.05732
1.14897
1.38256
2.05788
4.05152
9.54314
11.1479
10.8683
10.2768
1
1
1
1
1
1
1.00001
1.00002
1.00004
1.00009
1.00024
1.00057
1.0015
1.00342
1.00926
1.0211
1.0567
1.13576
1.36304
1.98431
3.85072
9.08319
11.2693
10.9528
10.2968
1
1
1
1
1
1
1.00001
1.00002
1.00003
1.00009
1.00021
1.00057
1.00131
1.00344
1.00819
1.02078
1.0515
1.13004
1.337
1.92284
3.6603
8.6404
11.4203
11.0434
10.3043
1
1
1
1
1
1
1.00001
1.00001
1.00003
1.00008
1.00021
1.00049
1.00132
1.003
1.00816
1.01858
1.0501
1.11948
1.31927
1.85927
3.48678
8.21539
11.5936
11.1283
10.3146
1
1
1
1
1
1
1.00001
1.00001
1.00003
1.00007
1.0002
1.00046
1.00124
1.00286
1.00757
1.01785
1.04617
1.1137
1.29805
1.80491
3.32389
7.81099
11.7808
11.2099
10.326
1
1
1
1
1
1
1
1.00001
1.00003
1.00007
1.00019
1.00044
1.00117
1.00266
1.00721
1.01636
1.04457
1.10523
1.28204
1.75255
3.17604
7.42725
11.972
11.2879
10.3403
1
1
1
1
1
1
1
1.00001
1.00003
1.00007
1.00018
1.00041
1.00111
1.0025
1.00685
1.01549
1.04203
1.09958
1.26584
1.70697
3.04124
7.06813
12.1553
11.3611
10.3593
1
1
1
1
1
1
1
1.00001
1.00003
1.00006
1.00017
1.0004
1.00103
1.00249
1.00622
1.01557
1.03831
1.09722
1.24898
1.67041
2.92104
6.73586
12.3186
11.4296
10.3852
1
1
1
1
1
1
1
1.00001
1.00003
1.00006
1.00017
1.00037
1.00102
1.0023
1.00624
1.01435
1.03791
1.09139
1.24006
1.63628
2.82103
6.43102
12.451
11.4953
10.4196
1
1
1
1
1
1
1
1.00001
1.00002
1.00007
1.00015
1.0004
1.00092
1.00243
1.0057
1.01465
1.03564
1.09038
1.22908
1.61497
2.73848
6.17172
12.5321
11.5472
10.4573
1
1
1
1
1
1
1
1.00001
1.00002
1.00006
1.00016
1.00038
1.00096
1.00226
1.00595
1.01373
1.03645
1.08671
1.22765
1.59848
2.69193
5.9934
12.5646
11.5865
10.4921
1
1
1
1
1
1
1
1.00001
1.00003
1.00006
1.00015
1.00039
1.00091
1.0024
1.00547
1.01474
1.03388
1.08995
1.221
1.59766
2.67175
5.93675
12.5473
11.6016
10.5134
3.82433
3.31194
4.30229
4.35326
4.11757
4.03321
3.9981
3.9722
3.92464
3.86983
3.83985
3.82849
3.82592
3.82805
3.83893
3.86104
3.89758
3.94649
4.00454
4.06938
4.1389
4.21134
4.28511
4.35937
4.43452
4.50775
4.57782
4.64371
4.70497
4.76149
4.81318
4.85987
4.90088
4.93878
4.97271
4.99992
5.02006
5.03447
5.04375
5.04761
5.04722
5.04378
5.03515
5.02047
5.00268
4.98172
4.95773
4.93049
4.90056
4.86796
4.83297
4.79577
4.75659
4.71552
4.67287
4.62863
4.58313
4.53639
4.48866
4.44002
4.39066
4.34068
4.29024
4.23948
4.1885
4.13745
4.08645
4.03561
3.98506
3.93489
3.8852
3.83609
3.78763
3.73989
3.69292
3.64677
3.60149
3.55711
3.51369
3.47129
3.42996
3.38977
3.3508
3.31318
3.27705
3.24254
3.20983
3.17914
3.15074
3.12498
3.10225
3.08304
3.06791
3.05744
3.05286
3.05308
3.05412
3.05672
3.06171
3.06641
4.75281
4.28253
4.42429
4.30983
4.09722
4.04352
4.0426
4.00661
3.93365
3.86627
3.82627
3.81182
3.81131
3.82306
3.83714
3.85859
3.89372
3.94223
3.99994
4.06434
4.13339
4.20529
4.27847
4.35101
4.42746
4.50019
4.5703
4.63626
4.69791
4.75464
4.80646
4.85328
4.89502
4.93254
4.96583
4.99321
5.01381
5.02856
5.03782
5.04189
5.04154
5.03884
5.03124
5.0159
4.99747
4.9767
4.95294
4.92606
4.89629
4.86384
4.829
4.79194
4.75289
4.71197
4.66942
4.62535
4.57995
4.53338
4.48577
4.43728
4.38805
4.33823
4.28792
4.23729
4.18644
4.1355
4.08461
4.03388
3.98342
3.93333
3.88373
3.83469
3.78631
3.73863
3.69172
3.64562
3.60038
3.55604
3.51266
3.47029
3.42899
3.38883
3.34989
3.31234
3.27627
3.24182
3.20917
3.17856
3.15025
3.12459
3.10198
3.08288
3.06791
3.05765
3.05376
3.05411
3.05544
3.05859
3.06478
3.07178
5.60277
4.87828
4.61542
4.37131
4.17064
4.07601
4.02328
3.97348
3.91932
3.86618
3.83276
3.82375
3.82581
3.82816
3.83386
3.85103
3.88742
3.93659
3.99418
4.05869
4.12809
4.20045
4.27424
4.34831
4.42296
4.4958
4.56583
4.63191
4.6934
4.75009
4.80187
4.84861
4.89037
4.92753
4.96001
4.98693
5.00758
5.02233
5.03146
5.03531
5.03492
5.03258
5.02591
5.01163
4.99174
4.97014
4.94637
4.91976
4.89018
4.8579
4.82315
4.78621
4.74724
4.70645
4.66401
4.62009
4.57484
4.52842
4.48099
4.43268
4.38365
4.33401
4.2839
4.23345
4.18279
4.13202
4.08131
4.03073
3.98044
3.93049
3.88104
3.83212
3.78387
3.73631
3.68951
3.64351
3.59836
3.5541
3.51083
3.46857
3.42739
3.38734
3.34845
3.31109
3.27523
3.24099
3.20858
3.17823
3.15023
3.1249
3.10273
3.08412
3.06969
3.06012
3.05757
3.05812
3.05998
3.06428
3.07221
3.08258
5.99825
5.22084
4.78685
4.50639
4.30866
4.1729
4.09551
4.0395
3.97883
3.91542
3.86721
3.83948
3.82976
3.83151
3.84036
3.86117
3.89746
3.9446
4.00066
4.06339
4.13098
4.20177
4.27428
4.34721
4.42036
4.49211
4.56092
4.62605
4.68685
4.74289
4.79401
4.84009
4.88119
4.91753
4.94905
4.9753
4.99576
5.01039
5.01941
5.02295
5.02257
5.02053
5.0148
5.00218
4.98147
4.95897
4.93494
4.90854
4.87932
4.84735
4.81288
4.77617
4.73744
4.6969
4.65472
4.61107
4.56612
4.52002
4.47291
4.42494
4.37623
4.32692
4.27714
4.22701
4.17665
4.12618
4.07575
4.02544
3.97541
3.92574
3.87653
3.82788
3.77988
3.73254
3.68598
3.6402
3.59526
3.55113
3.50806
3.46602
3.42507
3.38531
3.34691
3.30972
3.27405
3.2401
3.20807
3.17819
3.15075
3.12616
3.10475
3.08706
3.07371
3.06556
3.06478
3.06563
3.06812
3.07396
3.08446
3.09844
6.23027
5.50205
5.01698
4.70626
4.49703
4.35271
4.25472
4.18169
4.10604
4.02732
3.96166
3.91786
3.89572
3.88964
3.89112
3.89879
3.91932
3.96189
4.01848
4.07929
4.1439
4.21181
4.28178
4.35258
4.42321
4.49245
4.55909
4.62228
4.6813
4.73572
4.78535
4.83021
4.87027
4.90551
4.93594
4.9613
4.98127
4.99562
5.00447
5.00769
5.00729
5.00542
5.00035
4.98919
4.9688
4.94569
4.9211
4.89456
4.86556
4.83396
4.79986
4.76349
4.72509
4.68487
4.64303
4.59973
4.55515
4.50943
4.46272
4.41515
4.36685
4.31794
4.26856
4.2188
4.16883
4.11873
4.06866
4.01871
3.96903
3.91971
3.87083
3.82256
3.77493
3.72787
3.68155
3.63603
3.59138
3.54772
3.50494
3.46319
3.42256
3.38314
3.34505
3.30836
3.27324
3.23989
3.20853
3.17942
3.15288
3.12933
3.10919
3.09306
3.08142
3.07603
3.07633
3.07778
3.08159
3.08983
3.10313
3.12101
6.41259
5.76841
5.28773
4.95994
4.73866
4.58593
4.47495
4.38228
4.2887
4.19238
4.10401
4.03351
3.98484
3.95755
3.95105
3.95403
3.96518
3.99206
4.04471
4.10425
4.16631
4.23043
4.296
4.36228
4.42848
4.49382
4.55709
4.61744
4.67417
4.72651
4.77449
4.81775
4.85635
4.89021
4.91935
4.94366
4.9629
4.97684
4.98544
4.98835
4.98794
4.98618
4.98154
4.97145
4.95217
4.92919
4.90421
4.87739
4.84844
4.81711
4.78342
4.74748
4.7095
4.66969
4.62827
4.58541
4.54129
4.49604
4.44982
4.40273
4.35492
4.3065
4.25759
4.2083
4.15877
4.10912
4.05949
4.00999
3.96075
3.91186
3.86335
3.81552
3.76835
3.72188
3.67609
3.63105
3.58685
3.54354
3.50118
3.45984
3.41966
3.38073
3.34319
3.30718
3.27284
3.24036
3.20998
3.18202
3.15684
3.13484
3.11652
3.10252
3.09348
3.09151
3.09225
3.09467
3.10044
3.11233
3.12832
3.14989
6.5775
6.02385
5.57903
5.25574
5.02948
4.86806
4.74215
4.6285
4.51306
4.39456
4.28155
4.18455
4.11068
4.06292
4.03908
4.03709
4.04085
4.05354
4.0829
4.13577
4.19477
4.255
4.31556
4.37633
4.43707
4.49731
4.5562
4.61286
4.66648
4.71635
4.76217
4.80357
4.84045
4.87275
4.90046
4.92358
4.94189
4.95519
4.96341
4.9659
4.96546
4.96372
4.95929
4.9498
4.93189
4.90965
4.88471
4.85766
4.82861
4.79742
4.76405
4.72854
4.69105
4.65175
4.61085
4.56852
4.52494
4.48025
4.43459
4.38808
4.34084
4.29298
4.24462
4.19589
4.1469
4.09781
4.04874
3.99982
3.95115
3.90293
3.8553
3.80806
3.76139
3.7154
3.6701
3.62553
3.58178
3.53893
3.49709
3.45632
3.41678
3.37856
3.34184
3.30676
3.27348
3.24221
3.21326
3.18697
3.1637
3.1439
3.12811
3.11695
3.11168
3.11197
3.11341
3.1174
3.12598
3.14289
3.16135
3.18529
6.74489
6.27897
5.88588
5.58363
5.35897
5.18663
5.0408
4.90206
4.76055
4.6176
4.48078
4.35984
4.26214
4.19179
4.14835
4.12923
4.12951
4.13371
4.14663
4.17557
4.22576
4.28112
4.33679
4.39194
4.44668
4.50105
4.55453
4.60652
4.65631
4.70316
4.7465
4.78588
4.82103
4.85173
4.87801
4.89992
4.91722
4.9298
4.93759
4.93967
4.93921
4.93748
4.93318
4.92409
4.90753
4.88643
4.86205
4.83513
4.80607
4.77496
4.74185
4.70676
4.66979
4.63107
4.59078
4.54908
4.50613
4.46208
4.41705
4.37117
4.32455
4.2773
4.22954
4.18139
4.13301
4.08453
4.03609
3.9879
3.94009
3.89267
3.84571
3.79915
3.75308
3.70762
3.66287
3.61888
3.57574
3.53354
3.49241
3.45243
3.41376
3.37653
3.34092
3.30711
3.27522
3.24561
3.21859
3.19451
3.17379
3.1569
3.14443
3.13703
3.13616
3.13704
3.1399
3.14673
3.16065
3.18128
3.20157
3.22575
6.92996
6.54687
6.20981
5.93271
5.70934
5.52075
5.34864
5.18051
5.01208
4.84616
4.68952
4.54989
4.4335
4.34419
4.28222
4.24577
4.22993
4.23007
4.23319
4.24362
4.26764
4.31093
4.35891
4.40777
4.45651
4.5049
4.55248
4.59919
4.64451
4.68775
4.72824
4.76538
4.79871
4.82789
4.85281
4.87352
4.88983
4.90169
4.90904
4.91069
4.9102
4.90844
4.9042
4.89531
4.87989
4.86004
4.83658
4.81016
4.7813
4.75033
4.71744
4.68272
4.64626
4.60816
4.56854
4.52753
4.48529
4.44194
4.3976
4.3524
4.30645
4.25986
4.21274
4.16527
4.11758
4.06992
4.02246
3.97523
3.92828
3.88163
3.83535
3.78949
3.74412
3.69934
3.65526
3.61198
3.5696
3.52823
3.48798
3.449
3.41143
3.37546
3.34127
3.30894
3.2789
3.25143
3.22686
3.20557
3.18803
3.17474
3.16628
3.1637
3.1643
3.1665
3.17203
3.18365
3.20251
3.22507
3.24524
3.26847
7.14632
6.83543
6.54609
6.28771
6.05771
5.84639
5.64474
5.44807
5.25605
5.07223
4.90164
4.74956
4.62008
4.5159
4.43717
4.38329
4.34971
4.33254
4.32686
4.32822
4.33455
4.35064
4.38343
4.4225
4.46475
4.50709
4.54893
4.59044
4.631
4.67011
4.70725
4.74173
4.77295
4.80048
4.82408
4.84368
4.85912
4.87037
4.87735
4.87864
4.87813
4.87636
4.87214
4.86341
4.84895
4.83031
4.80796
4.78235
4.75401
4.72338
4.69078
4.65644
4.62048
4.58299
4.54407
4.5038
4.46232
4.41971
4.37612
4.33163
4.28638
4.24048
4.19406
4.1474
4.10071
4.05408
4.00757
3.96121
3.91505
3.86916
3.82363
3.77854
3.73396
3.68999
3.64676
3.60435
3.56291
3.52255
3.48342
3.44569
3.40954
3.3752
3.3427
3.31243
3.28472
3.25993
3.23843
3.22064
3.20702
3.19811
3.19458
3.19499
3.19676
3.20152
3.21172
3.2296
3.25062
3.27306
3.29142
3.31226
7.39866
7.14094
6.88113
6.62728
6.38224
6.14569
5.91727
5.69756
5.48866
5.29348
5.11489
4.95557
4.81761
4.70214
4.60985
4.5384
4.48648
4.45098
4.42855
4.41534
4.41281
4.41496
4.42321
4.44207
4.47386
4.50804
4.54348
4.57981
4.6158
4.65077
4.68427
4.71562
4.74429
4.76985
4.79202
4.81058
4.82533
4.83604
4.84279
4.84387
4.84335
4.84157
4.83741
4.82884
4.81521
4.79766
4.77644
4.75183
4.72427
4.69423
4.66211
4.62824
4.5928
4.55593
4.5177
4.47819
4.43749
4.39568
4.35286
4.30913
4.26461
4.21947
4.17402
4.12842
4.08278
4.03714
3.99154
3.94606
3.90077
3.85575
3.8111
3.76691
3.72326
3.68026
3.63803
3.59669
3.55639
3.51728
3.47954
3.44336
3.409
3.37648
3.34616
3.31845
3.29364
3.27213
3.25434
3.24071
3.23167
3.22776
3.22808
3.22967
3.23404
3.24357
3.2606
3.28084
3.3016
3.32193
3.33704
3.35453
7.67777
7.44802
7.19651
6.93412
6.67012
6.41155
6.16344
5.92926
5.7114
5.51096
5.32896
5.16588
5.02227
4.89794
4.79303
4.70613
4.63668
4.58269
4.54213
4.51244
4.49293
4.48084
4.48056
4.48313
4.49184
4.51091
4.53942
4.56692
4.59774
4.62899
4.65904
4.68708
4.71286
4.73616
4.75668
4.77411
4.78815
4.79848
4.80507
4.80612
4.8056
4.80386
4.79982
4.79154
4.77863
4.76205
4.74192
4.7184
4.69183
4.66262
4.63122
4.59797
4.56315
4.52692
4.48939
4.45063
4.41072
4.36972
4.3277
4.28474
4.24107
4.19697
4.15263
4.10812
4.0635
4.01884
3.9742
3.92967
3.88535
3.8413
3.79765
3.75447
3.71188
3.67
3.62895
3.58889
3.54997
3.51239
3.47634
3.44211
3.40981
3.37959
3.352
3.32737
3.30606
3.2885
3.27511
3.2663
3.26239
3.26268
3.26425
3.26865
3.27822
3.295
3.31458
3.33456
3.35307
3.36983
3.38086
3.39481
7.96595
7.73895
7.47845
7.20051
6.9195
6.6462
6.38759
6.14731
5.9267
5.72556
5.54322
5.37855
5.23069
5.09886
4.98281
4.88187
4.79612
4.72452
4.666
4.61919
4.58309
4.556
4.5385
4.52827
4.52849
4.5314
4.54016
4.55893
4.57867
4.60508
4.63113
4.65568
4.6786
4.69958
4.71831
4.73445
4.74766
4.75758
4.764
4.76522
4.76473
4.76308
4.75925
4.75143
4.73924
4.72353
4.70442
4.68202
4.65657
4.62843
4.59798
4.56559
4.53152
4.49602
4.45922
4.42122
4.3821
4.34189
4.30067
4.25862
4.21606
4.17313
4.12993
4.0865
4.04295
3.99933
3.95573
3.91226
3.869
3.82605
3.78351
3.7415
3.70014
3.65956
3.61991
3.58137
3.54413
3.50841
3.47447
3.44256
3.4126
3.38535
3.36107
3.34015
3.323
3.31006
3.30169
3.29815
3.2985
3.30026
3.30502
3.31522
3.33213
3.35136
3.37058
3.38823
3.40308
3.41549
3.42235
3.43291
8.24348
8.00057
7.72194
7.42838
7.13633
6.85683
6.59612
6.35656
6.13809
5.93909
5.7576
5.59156
5.43954
5.30059
5.17441
5.06074
4.96039
4.87278
4.79758
4.73415
4.68163
4.6392
4.60628
4.58198
4.5664
4.55766
4.55796
4.56069
4.56844
4.58387
4.60214
4.6218
4.64165
4.66021
4.67704
4.69173
4.70391
4.71322
4.71946
4.72088
4.72043
4.71891
4.7154
4.70819
4.69673
4.68187
4.66375
4.64249
4.61829
4.59141
4.56215
4.53082
4.49769
4.46304
4.42704
4.38985
4.35152
4.31212
4.27183
4.23093
4.18958
4.14785
4.10581
4.06353
4.02111
3.97862
3.93618
3.89386
3.85179
3.81006
3.76879
3.72812
3.68817
3.64912
3.61113
3.57442
3.53919
3.50573
3.47438
3.44491
3.41812
3.39437
3.37403
3.35747
3.34514
3.33745
3.33451
3.33497
3.33704
3.34245
3.35378
3.37097
3.39008
3.4088
3.42563
3.43961
3.45024
3.45819
3.46168
3.46882
8.49718
8.22714
7.92911
7.62488
7.32952
7.0518
6.7956
6.56135
6.34749
6.15142
5.97054
5.80258
5.64606
5.50022
5.36489
5.24034
5.12677
5.02491
4.93477
4.85609
4.78831
4.73079
4.68297
4.64421
4.61408
4.59194
4.57771
4.56939
4.56948
4.57124
4.57672
4.5884
4.60336
4.61833
4.63295
4.64596
4.65691
4.66548
4.6714
4.67292
4.67252
4.67115
4.66797
4.66145
4.65074
4.63673
4.61965
4.59963
4.5768
4.55133
4.52344
4.49337
4.46139
4.42775
4.3927
4.35639
4.31891
4.28046
4.24132
4.20167
4.16157
4.12108
4.08026
4.03922
3.99803
3.95679
3.91561
3.87458
3.83384
3.79349
3.75368
3.71454
3.67626
3.63901
3.60299
3.56845
3.53566
3.50501
3.47628
3.45012
3.42709
3.40751
3.39176
3.38021
3.37335
3.3713
3.37195
3.37446
3.38075
3.39365
3.41144
3.43051
3.44884
3.46501
3.47818
3.4878
3.49437
3.49792
3.49946
3.50307
8.72108
8.41909
8.10617
7.79901
7.50815
7.23852
6.99109
6.76433
6.5556
6.3619
6.18063
6.00986
5.84841
5.69585
5.55222
5.41797
5.29322
5.1791
5.07587
4.98345
4.90156
4.82984
4.76776
4.71488
4.67076
4.63493
4.60702
4.58639
4.5729
4.56595
4.56281
4.56392
4.56766
4.57585
4.58681
4.59705
4.60657
4.61419
4.61957
4.62118
4.62084
4.61962
4.61677
4.61088
4.60086
4.58777
4.57186
4.55321
4.53188
4.50795
4.48157
4.45294
4.4223
4.3899
4.35598
4.32069
4.28426
4.247
4.20915
4.17078
4.13198
4.0928
4.05331
4.0136
3.97376
3.9339
3.89411
3.85454
3.81529
3.77653
3.73839
3.70106
3.66472
3.62959
3.59593
3.564
3.53422
3.50649
3.48115
3.45902
3.44039
3.42565
3.41514
3.40908
3.40826
3.40914
3.4123
3.41965
3.43453
3.45287
3.47211
3.49024
3.50594
3.51842
3.52734
3.53247
3.53508
3.53584
3.53579
3.53649
8.90886
8.57991
8.26064
7.95926
7.67986
7.42273
7.18604
6.96692
6.76236
6.56964
6.3867
6.21225
6.04559
5.88661
5.73552
5.59273
5.45855
5.33402
5.21937
5.11471
5.02002
4.93513
4.85969
4.79337
4.73579
4.68655
4.64532
4.61173
4.58547
4.56609
4.55326
4.54318
4.53997
4.54047
4.54243
4.54694
4.55387
4.55956
4.56401
4.56559
4.56531
4.56424
4.56164
4.5562
4.54683
4.53479
4.52021
4.50306
4.48331
4.46102
4.43628
4.40927
4.38017
4.34923
4.31666
4.28266
4.24757
4.21171
4.17524
4.13824
4.10082
4.06303
4.02497
3.98671
3.94835
3.91001
3.8718
3.83387
3.79634
3.75941
3.72321
3.68799
3.65394
3.62135
3.59048
3.56175
3.53526
3.51094
3.48994
3.47247
3.45893
3.44976
3.44477
3.44493
3.44628
3.45042
3.45951
3.47601
3.49514
3.51457
3.53257
3.54794
3.55992
3.56827
3.57238
3.57377
3.57351
3.57244
3.56959
3.56945
9.06146
8.71623
8.40173
8.11452
7.85131
7.60834
7.38199
7.16897
6.96672
6.77334
6.58762
6.40894
6.23708
6.07215
5.91441
5.76422
5.62171
5.48829
5.36372
5.24831
5.14221
5.04538
4.95764
4.87869
4.80831
4.74621
4.69208
4.64571
4.60684
4.57509
4.55083
4.5311
4.5165
4.5078
4.50277
4.50188
4.50228
4.50343
4.50581
4.50662
4.50629
4.50512
4.50241
4.4969
4.48856
4.47783
4.4647
4.44908
4.43096
4.41036
4.38738
4.36213
4.33479
4.30556
4.27459
4.2422
4.20876
4.17449
4.13955
4.10405
4.06812
4.03184
3.99532
3.95864
3.92194
3.88529
3.84887
3.81279
3.77725
3.74241
3.7085
3.67575
3.64442
3.61484
3.58734
3.56234
3.53931
3.51961
3.50355
3.4914
3.48371
3.48045
3.48092
3.48306
3.4887
3.50052
3.51806
3.53785
3.5576
3.57552
3.59063
3.6022
3.61006
3.61369
3.61402
3.61352
3.61187
3.60806
3.60019
3.59831
9.18541
8.83666
8.53816
8.27169
8.02654
7.7966
7.57824
7.36886
7.16693
6.97161
6.78251
6.59954
6.42279
6.25247
6.08885
5.93223
5.78311
5.64124
5.50779
5.38294
5.26674
5.15917
5.06016
4.96957
4.88719
4.81286
4.74647
4.68778
4.63658
4.5927
4.556
4.52677
4.50105
4.48191
4.46819
4.45906
4.4532
4.44967
4.44792
4.44661
4.4449
4.44243
4.43888
4.43369
4.42647
4.41705
4.40532
4.39123
4.37476
4.35593
4.33482
4.31149
4.2861
4.25879
4.22975
4.19932
4.16776
4.13528
4.10204
4.06821
4.03392
3.99931
3.96449
3.92957
3.89468
3.85995
3.82554
3.79159
3.75833
3.72595
3.69471
3.66487
3.63678
3.61077
3.58741
3.56594
3.54774
3.53331
3.5229
3.51666
3.51552
3.5164
3.5195
3.52692
3.54189
3.56073
3.58102
3.60083
3.61865
3.63357
3.64492
3.65233
3.65556
3.65547
3.65476
3.65266
3.648
3.63982
3.62777
3.6244
9.28368
8.9491
8.67588
8.43264
8.20449
7.98512
7.77185
7.56385
7.36091
7.1631
6.97062
6.7837
6.60258
6.42749
6.25865
6.09627
5.94069
5.79192
5.65091
5.51773
5.39248
5.27521
5.16594
5.06464
4.97119
4.88553
4.80749
4.73695
4.67388
4.61822
4.56975
4.52851
4.49424
4.46337
4.43997
4.42205
4.40867
4.39884
4.39178
4.38655
4.38222
4.37804
4.37348
4.36806
4.36129
4.35279
4.34231
4.32972
4.31494
4.29797
4.27882
4.25756
4.23428
4.20911
4.18225
4.154
4.12454
4.09407
4.06276
4.0308
3.99835
3.9656
3.93265
3.89969
3.86684
3.83427
3.80213
3.77064
3.74001
3.7105
3.68238
3.656
3.63172
3.61013
3.59052
3.57408
3.56149
3.55307
3.54878
3.54904
3.55073
3.55553
3.56585
3.5832
3.60335
3.62425
3.64418
3.66199
3.67663
3.68767
3.69484
3.69755
3.69738
3.69647
3.69401
3.68881
3.67923
3.66847
3.65417
3.64926
9.36789
9.0645
8.82016
8.59717
8.38124
8.16831
7.95777
7.7501
7.54596
7.34598
7.15069
6.9605
6.77569
6.59648
6.42305
6.25559
6.0943
5.93931
5.79162
5.65103
5.51771
5.39177
5.27329
5.16227
5.05869
4.96253
4.87372
4.79227
4.7181
4.65116
4.59143
4.53867
4.49313
4.45379
4.41908
4.39176
4.36981
4.35256
4.33918
4.32883
4.32065
4.31376
4.30744
4.30103
4.29401
4.2859
4.27634
4.26507
4.25192
4.23681
4.21967
4.20056
4.1795
4.1567
4.1322
4.1063
4.07914
4.0509
4.02175
3.99189
3.96154
3.93086
3.90004
3.86927
3.83872
3.80858
3.77906
3.75038
3.72281
3.69664
3.6722
3.64986
3.63027
3.61283
3.59835
3.58796
3.58145
3.5799
3.58069
3.58362
3.59083
3.60534
3.62424
3.64549
3.66694
3.68707
3.70481
3.7193
3.73013
3.73705
3.73941
3.73917
3.73809
3.73534
3.72957
3.7199
3.70764
3.69501
3.67922
3.67292
9.44892
9.1843
8.9643
8.75547
8.5476
8.33913
8.13082
7.92387
7.71937
7.51823
7.32113
7.12856
6.94085
6.75823
6.58088
6.409
6.24276
6.08252
5.92839
5.7811
5.64068
5.50708
5.38039
5.26064
5.1479
5.0422
4.94355
4.85198
4.76747
4.69003
4.61966
4.55636
4.50007
4.4511
4.4069
4.36919
4.33792
4.31222
4.29141
4.2749
4.26177
4.25113
4.24209
4.23392
4.22597
4.21767
4.20857
4.19826
4.18651
4.17309
4.15791
4.14093
4.12217
4.10169
4.07977
4.05641
4.03174
4.00593
3.97918
3.95169
3.92368
3.89536
3.86695
3.83866
3.81072
3.78336
3.75682
3.73138
3.70735
3.68505
3.66489
3.64746
3.63253
3.62022
3.61223
3.60813
3.60844
3.61024
3.61529
3.6261
3.64391
3.66472
3.68685
3.70867
3.72897
3.74669
3.76124
3.77193
3.77862
3.78075
3.78046
3.77925
3.77629
3.77011
3.76017
3.74798
3.73388
3.71973
3.70274
3.6953
9.53647
9.30354
9.09911
8.89892
8.6969
8.49269
8.28741
8.08238
7.87882
7.67776
7.47998
7.28603
7.0963
6.91107
6.73056
6.55497
6.38449
6.21933
6.05977
5.90671
5.76
5.61959
5.48559
5.35807
5.23714
5.12288
5.01534
4.9146
4.82066
4.7336
4.6534
4.58013
4.51379
4.45431
4.40226
4.35407
4.31343
4.27911
4.25049
4.22689
4.20765
4.192
4.17912
4.16821
4.1585
4.14933
4.1401
4.13033
4.11962
4.10768
4.09433
4.07942
4.06296
4.04496
4.02557
4.00479
3.98274
3.95955
3.93541
3.91054
3.88514
3.85947
3.83377
3.8083
3.78332
3.75912
3.736
3.71427
3.69434
3.67651
3.66147
3.64913
3.63953
3.63352
3.63299
3.63398
3.63744
3.64542
3.66138
3.68103
3.70336
3.72648
3.74888
3.76943
3.78726
3.80178
3.81246
3.81914
3.82112
3.82079
3.8195
3.81639
3.80996
3.79997
3.78762
3.77366
3.75811
3.74266
3.72465
3.71624
9.62146
9.40746
9.21401
9.02156
8.82583
8.62681
8.42562
8.22364
8.02219
7.82237
7.62501
7.43073
7.23997
7.05303
6.87021
6.69171
6.51777
6.34849
6.18425
6.02612
5.87383
5.72741
5.58697
5.4526
5.32444
5.20259
5.08716
4.97822
4.87584
4.78009
4.69098
4.60861
4.53299
4.46418
4.40224
4.3467
4.2964
4.25332
4.2164
4.18518
4.15916
4.13771
4.1201
4.10554
4.09322
4.0824
4.07237
4.06255
4.05243
4.04161
4.02981
4.0168
4.00251
3.9869
3.97002
3.95188
3.93255
3.91216
3.89085
3.86886
3.84636
3.82368
3.801
3.77873
3.75708
3.73651
3.71726
3.69984
3.68453
3.67197
3.66252
3.65539
3.65287
3.65348
3.65607
3.66245
3.67554
3.69409
3.71611
3.7398
3.76377
3.7868
3.80782
3.82597
3.84065
3.85146
3.85811
3.86012
3.85977
3.85844
3.85527
3.84876
3.83879
3.82653
3.8125
3.79715
3.78039
3.76384
3.74498
3.73577
9.69895
9.49073
9.30675
9.12311
8.93453
8.74124
8.54468
8.34644
8.14794
7.95031
7.75437
7.56073
7.36987
7.18215
6.99787
6.81734
6.64079
6.46847
6.30064
6.13762
5.98028
5.82862
5.68262
5.54237
5.40799
5.27961
5.15734
5.04127
4.93147
4.82803
4.73099
4.64046
4.55646
4.47912
4.40839
4.34472
4.28628
4.23453
4.18933
4.15035
4.11721
4.08939
4.06631
4.04725
4.03146
4.01816
4.00659
3.99608
3.986
3.97587
3.96526
3.9539
3.94159
3.92825
3.91383
3.89831
3.88178
3.86428
3.84601
3.8271
3.80781
3.78836
3.76913
3.75038
3.73257
3.71606
3.70128
3.68875
3.67867
3.67237
3.66791
3.66822
3.67004
3.67511
3.68586
3.70312
3.72427
3.74808
3.77311
3.79812
3.82189
3.84348
3.8621
3.87716
3.88829
3.89509
3.89722
3.89687
3.89557
3.89247
3.88609
3.87628
3.86418
3.85034
3.83499
3.81848
3.80072
3.78323
3.7637
3.75384
9.76398
9.55407
9.37928
9.20517
9.02398
8.83637
8.64453
8.45042
8.25549
8.06079
7.86707
7.67491
7.48478
7.29709
7.11218
6.9304
6.75204
6.57736
6.4065
6.23995
6.07854
5.92242
5.77167
5.62639
5.4867
5.35273
5.22458
5.10235
4.98612
4.87596
4.77196
4.6742
4.58276
4.49774
4.41921
4.34727
4.28212
4.22193
4.16894
4.12238
4.08201
4.04751
4.01845
3.99424
3.97423
3.95768
3.94382
3.93192
3.92129
3.91133
3.90153
3.89149
3.88093
3.86968
3.85762
3.84473
3.83102
3.81657
3.80147
3.78587
3.77
3.75413
3.73862
3.72388
3.71031
3.69848
3.68864
3.68172
3.6774
3.67728
3.67845
3.68237
3.69111
3.70764
3.72721
3.75057
3.77612
3.80255
3.82871
3.85349
3.8759
3.89517
3.91075
3.92244
3.92951
3.93216
3.93184
3.93061
3.92766
3.9216
3.9121
3.90033
3.88674
3.87165
3.8552
3.83772
3.81913
3.80086
3.78082
3.77043