/*--------------------------------*- C++ -*----------------------------------*\
  =========                 |
  \\      /  F ield         | OpenFOAM: The Open Source CFD Toolbox
   \\    /   O peration     | Website:  https://openfoam.org
    \\  /    A nd           | Version:  9
     \\/     M anipulation  |
\*---------------------------------------------------------------------------*/
FoamFile
{
    format      ascii;
    class       surfaceScalarField;
    location    "10";
    object      phi;
}
// * * * * * * * * * * * * * * * * * * * * * * * * * * * * * * * * * * * * * //

dimensions      [1 0 -1 0 0 0 0];

internalField   nonuniform List<scalar> 
10325
(
0.00840002
4.42533e-11
0.00840003
4.77262e-10
0.00840002
1.0357e-09
0.00839998
5.34285e-09
0.00839997
7.64474e-09
0.00840003
3.50227e-08
0.00839908
6.35211e-08
0.00840092
2.02201e-07
0.00839573
4.77102e-07
0.00840061
1.18703e-06
0.00839309
3.33102e-06
0.00838386
9.06319e-06
0.0083506
3.06308e-05
0.00822166
0.000126666
0.00762152
0.000588372
0.00701435
0.000607377
0.00640766
0.000606851
0.00577931
0.000628345
0.00511749
0.000661575
0.00440759
0.000709507
0.00364026
0.000766872
0.0028155
0.000824196
0.00193721
0.000877757
0.00100227
0.000934377
0.00100165
0.00840002
3.60435e-10
0.00840004
3.81187e-10
0.00839996
6.32052e-09
0.00840013
3.48348e-09
0.00839963
4.42247e-08
0.00840092
1.82798e-08
0.00839731
2.67612e-07
0.00840603
1.43197e-07
0.00838631
1.50154e-06
0.00841783
1.6736e-06
0.00837239
7.63366e-06
0.00839956
1.78179e-05
0.00834423
6.28928e-05
0.00821921
0.000254239
0.00761694
0.00117846
0.00700769
0.00121717
0.00641131
0.00120364
0.00578644
0.00125311
0.00512683
0.00132089
0.00441035
0.00142562
0.00363445
0.00154228
0.0028
0.00165806
0.00190872
0.00176848
0.000967784
0.00187474
0.0019688
0.00840003
1.5337e-10
0.00839999
1.95547e-09
0.00840009
3.97173e-09
0.00839982
1.93783e-08
0.00840053
2.68357e-08
0.00839859
1.30906e-07
0.00840345
1.46993e-07
0.00839218
8.2077e-07
0.00841584
9.66645e-07
0.00837207
4.56962e-06
0.00842647
8.60871e-06
0.00835677
2.95243e-05
0.00837011
9.14143e-05
0.0082226
0.000375189
0.0076379
0.00175619
0.00702578
0.00183012
0.00643604
0.00179383
0.00581992
0.00186893
0.00516504
0.00197539
0.00445074
0.00213951
0.00367265
0.00231975
0.00283294
0.00249717
0.00192999
0.00267094
0.000975511
0.00282856
0.00294358
0.00840002
4.38248e-10
0.00840001
1.65162e-09
0.00840005
8.33671e-09
0.00839994
1.59649e-08
0.00840001
6.39946e-08
0.0084
9.48187e-08
0.00839911
4.27211e-07
0.00840088
5.38128e-07
0.00839607
2.5863e-06
0.00840005
3.83096e-06
0.00839371
1.46082e-05
0.0083821
3.54552e-05
0.00835305
0.000123344
0.00823877
0.000482701
0.00767188
0.00231242
0.00706326
0.00243955
0.00648516
0.00237232
0.00588047
0.00247335
0.00523544
0.00262002
0.0045301
0.00284444
0.00375664
0.00309259
0.00291303
0.00334019
0.00199831
0.00358495
0.00101666
0.00380953
0.00395958
0.00840002
3.13558e-10
0.00840001
2.69752e-09
0.00840002
7.34994e-09
0.00839999
2.67757e-08
0.00840009
5.35653e-08
0.00839946
1.85459e-07
0.00840119
3.14011e-07
0.00839561
1.19459e-06
0.00840702
1.92662e-06
0.00838488
7.12614e-06
0.00840918
1.46278e-05
0.00837265
4.78573e-05
0.00836712
0.000147658
0.00825171
0.000582428
0.00772267
0.00282996
0.00712014
0.00304301
0.00655518
0.00293801
0.00596579
0.00306247
0.00533625
0.00324921
0.00464608
0.00353418
0.00388338
0.00385462
0.00303944
0.00418346
0.00210665
0.0045173
0.00108451
0.004831
0.00504337
0.00840002
4.45924e-10
0.00840001
3.06094e-09
0.00840008
9.43992e-09
0.0083999
2.96082e-08
0.00840023
7.17792e-08
0.00839953
1.84541e-07
0.0084004
4.86834e-07
0.0083985
1.07014e-06
0.00840047
3.13318e-06
0.00839401
6.79541e-06
0.0084009
1.99185e-05
0.00837666
5.34576e-05
0.008362
0.000175675
0.00826831
0.000664713
0.00780424
0.00328203
0.00720823
0.00364086
0.00665244
0.0034946
0.00608092
0.0036337
0.00547214
0.00385763
0.00480354
0.00420232
0.00405728
0.00460043
0.00321832
0.00502174
0.00226715
0.00546781
0.00118939
0.005908
0.00623193
0.00840002
5.09911e-10
0.00840005
3.23543e-09
0.00839994
1.11688e-08
0.00840022
3.19786e-08
0.00839957
8.32945e-08
0.00840109
2.15434e-07
0.00839763
5.23531e-07
0.00840528
1.34661e-06
0.00838866
3.25539e-06
0.0084162
8.46986e-06
0.00837175
2.17274e-05
0.00840988
6.18806e-05
0.00834956
0.000195998
0.008299
0.000730399
0.00795231
0.00360919
0.00735038
0.00424434
0.00679397
0.00405212
0.00623919
0.00418825
0.00565504
0.00444147
0.00501527
0.0048415
0.00429178
0.00532326
0.00346345
0.00584928
0.00249904
0.00643142
0.0013541
0.00705222
0.00758509
0.00840002
5.19431e-10
0.00840005
3.55469e-09
0.00839995
1.19261e-08
0.00840021
3.48681e-08
0.00839959
8.92073e-08
0.00840107
2.36592e-07
0.00839768
5.57705e-07
0.00840546
1.51319e-06
0.00838871
3.44136e-06
0.00841753
9.53241e-06
0.00837183
2.32189e-05
0.0084152
6.7307e-05
0.00835986
0.000208393
0.00834576
0.000761418
0.0082215
0.00371239
0.00758814
0.00488021
0.00700906
0.00463272
0.00646121
0.00473597
0.00590209
0.00500035
0.00529431
0.00544881
0.00460385
0.00601322
0.00379827
0.00665409
0.00283654
0.00739229
0.00162585
0.00826198
0.00920992
0.00840002
6.00419e-10
0.00840003
3.25493e-09
0.00840001
1.29969e-08
0.00840003
3.20719e-08
0.00839991
9.80681e-08
0.00840031
2.19068e-07
0.00839881
6.22991e-07
0.0084029
1.399e-06
0.0083927
3.8101e-06
0.00841165
9.1151e-06
0.00838366
2.44282e-05
0.00841164
6.63561e-05
0.0083884
0.000207115
0.00842423
0.000735205
0.00867213
0.00344326
0.00800172
0.00555376
0.00734177
0.00529435
0.006791
0.0052868
0.0062397
0.00555145
0.00566481
0.00602314
0.00501236
0.00666487
0.00427646
0.00738915
0.00337877
0.00828908
0.00210215
0.00953765
0.0113109
0.00840003
5.51119e-10
0.00840001
3.08523e-09
0.00840008
1.16779e-08
0.00839993
3.03644e-08
0.00840029
8.6683e-08
0.00839954
2.03583e-07
0.00840128
5.51744e-07
0.00839797
1.26663e-06
0.00840455
3.42214e-06
0.00839393
8.00508e-06
0.00841583
2.1726e-05
0.00839607
5.69393e-05
0.00845643
0.000173724
0.0085803
0.00059324
0.0094218
0.0025859
0.00870131
0.0062767
0.00783483
0.00616236
0.00728526
0.00583701
0.00670488
0.00613164
0.00616231
0.00656535
0.00558967
0.00723664
0.0049614
0.00801633
0.00413995
0.00910923
0.00293506
0.0107411
0.0142444
0.00840003
4.45705e-10
0.00840001
2.91791e-09
0.00840008
9.41906e-09
0.00839991
2.89317e-08
0.00840035
6.99281e-08
0.00839939
1.87199e-07
0.00840185
4.50512e-07
0.00839682
1.11295e-06
0.00840923
2.85233e-06
0.00838691
6.70214e-06
0.00842974
1.79453e-05
0.00838879
4.5841e-05
0.00847429
0.00013512
0.00859336
0.000444819
0.00932204
0.00185577
0.00902912
0.00656293
0.00841907
0.00676983
0.00778596
0.00647053
0.00726621
0.00665086
0.00676792
0.00706291
0.00632487
0.00767858
0.0058491
0.00849071
0.00542725
0.00952943
0.00538955
0.0107768
0.0113395
0.0082918
0.00840002
3.49675e-10
0.00840004
2.72119e-09
0.0084
8.17411e-09
0.0084001
2.67278e-08
0.00839989
6.10953e-08
0.00840036
1.7772e-07
0.0083995
3.80361e-07
0.00840096
1.10228e-06
0.00839863
2.3126e-06
0.00840344
6.70559e-06
0.00839665
1.49703e-05
0.00841575
4.26117e-05
0.008414
0.000117198
0.00848093
0.000386259
0.00880202
0.00152736
0.00891361
0.00643693
0.00863654
0.00704454
0.00811421
0.00699188
0.00769282
0.00707095
0.00729595
0.00745848
0.00695038
0.00802262
0.00668257
0.00875667
0.00658494
0.00962469
0.0069808
0.0103781
0.0104271
0.00788944
0.00840003
4.38221e-10
0.00840003
2.15677e-09
0.00840001
9.01157e-09
0.00840007
2.11186e-08
0.00839991
6.68091e-08
0.00840037
1.40527e-07
0.00839909
4.23462e-07
0.00840264
8.76165e-07
0.00839424
2.5781e-06
0.00841402
5.52776e-06
0.00837845
1.57583e-05
0.00843281
3.80589e-05
0.00838302
0.000111979
0.00845928
0.00035212
0.00862532
0.00133242
0.008909
0.00614366
0.00862604
0.00732626
0.00828168
0.00733501
0.00799866
0.00735303
0.00773413
0.00772112
0.00750697
0.00824757
0.00739623
0.00886477
0.00755588
0.00946239
0.00801423
0.00991585
0.00985497
0.00858019
0.00840003
3.08709e-10
0.00840003
2.47843e-09
0.00840002
7.28312e-09
0.00840004
2.43996e-08
0.00840001
5.46572e-08
0.0084
1.61667e-07
0.00840018
3.44747e-07
0.00839929
9.9628e-07
0.0084017
2.14708e-06
0.0083961
6.08585e-06
0.00840651
1.38698e-05
0.00839534
3.86476e-05
0.00841083
0.000103317
0.00842731
0.000328973
0.00857009
0.0011892
0.00914997
0.00554671
0.00887033
0.00760526
0.00856925
0.00763517
0.00831043
0.00760968
0.00814027
0.00788978
0.00803496
0.00834981
0.00805929
0.00883673
0.00825999
0.00925707
0.00866063
0.00951088
0.00938516
0.00912426
0.00840003
3.41313e-10
0.00840003
2.00647e-09
0.00840001
7.44502e-09
0.00840006
1.97254e-08
0.00839994
5.52433e-08
0.00840032
1.3452e-07
0.00839932
3.45235e-07
0.00840211
8.58288e-07
0.00839583
2.10179e-06
0.00841165
5.38399e-06
0.00838245
1.31965e-05
0.00843276
3.48225e-05
0.00838604
9.41564e-05
0.00847212
0.000288097
0.00862065
0.00101181
0.00978293
0.00437261
0.00938176
0.00800443
0.0089751
0.00804042
0.00869433
0.00788891
0.00854104
0.00804027
0.00850172
0.00838522
0.00857926
0.00875547
0.00879107
0.00903976
0.00913774
0.00915784
0.00898454
0.00953084
0.00840003
2.83381e-10
0.00840003
1.64134e-09
0.00840004
5.95155e-09
0.00840001
1.62173e-08
0.00840008
4.45873e-08
0.00840002
1.06037e-07
0.00840008
2.86782e-07
0.00840053
6.34373e-07
0.00839939
1.78192e-06
0.00840464
3.81834e-06
0.00839829
1.09084e-05
0.00842169
2.47692e-05
0.00843088
7.0085e-05
0.00853342
0.000196177
0.00888251
0.00065123
0.0106196
0.00263123
0.010099
0.00851474
0.0097399
0.00839648
0.00921566
0.00841069
0.00899558
0.0082575
0.00894604
0.00842959
0.00902122
0.00867458
0.00921473
0.00883956
0.00951059
0.00885384
0.00864316
0.00984282
0.00840003
2.02336e-10
0.00840003
1.47564e-09
0.00840002
4.66098e-09
0.00840006
1.44175e-08
0.00839998
3.4887e-08
0.00840019
9.50955e-08
0.00839987
2.17706e-07
0.00840049
5.85884e-07
0.00840005
1.31363e-06
0.00840105
3.5602e-06
0.0084021
8.08442e-06
0.00840887
2.17339e-05
0.00841541
5.40867e-05
0.00846915
0.000156054
0.00861222
0.000494172
0.0093253
0.00191698
0.0102385
0.00758122
0.00995947
0.00867034
0.00964636
0.00871897
0.009402
0.00849758
0.00933974
0.00848648
0.00940496
0.00860255
0.00956846
0.00866726
0.00981862
0.00859312
0.00835528
0.0100945
0.00840003
2.1232e-10
0.00840003
1.10191e-09
0.00840002
4.47576e-09
0.00840005
1.08766e-08
0.00839999
3.29968e-08
0.00840018
7.32302e-08
0.0083997
2.05161e-07
0.00840118
4.60067e-07
0.00839792
1.23186e-06
0.00840694
2.86348e-06
0.00838972
7.41671e-06
0.00842756
1.81955e-05
0.00838058
4.75848e-05
0.00846664
0.000130655
0.00849784
0.000408242
0.00895237
0.00148501
0.0101445
0.0063625
0.0100781
0.00873184
0.00990116
0.0088911
0.00970969
0.00868452
0.00965885
0.00852921
0.00972292
0.00852973
0.00986611
0.00851355
0.0100955
0.00835066
0.00811776
0.0103185
0.00840003
1.46423e-10
0.00840003
1.07625e-09
0.00840004
3.29408e-09
0.00840002
1.0507e-08
0.00840008
2.48639e-08
0.00839992
6.85686e-08
0.00840042
1.60305e-07
0.00839937
4.15927e-07
0.00840233
9.99428e-07
0.00839661
2.50267e-06
0.00841158
6.24332e-06
0.00838722
1.54132e-05
0.00843739
4.03218e-05
0.0084049
0.000107858
0.00853369
0.000325807
0.00885745
0.00113035
0.010624
0.0045795
0.0104308
0.00891783
0.0103123
0.00900421
0.0100919
0.00889847
0.00997957
0.00863335
0.0100116
0.00848566
0.0101462
0.00836491
0.0103233
0.00815934
0.00790414
0.010521
0.00840003
1.19843e-10
0.00840003
7.81836e-10
0.00840002
2.66806e-09
0.00840005
7.72619e-09
0.0084
1.98445e-08
0.00840015
5.14549e-08
0.0083999
1.23162e-07
0.00840065
3.17096e-07
0.00839951
7.39794e-07
0.00840297
1.92264e-06
0.00839857
4.46228e-06
0.00841379
1.16804e-05
0.00840537
2.81185e-05
0.00846647
7.56144e-05
0.00854728
0.00021183
0.00900563
0.000686895
0.0109203
0.00264894
0.0110856
0.0087365
0.0107832
0.0092978
0.01049
0.00918269
0.0103346
0.00877714
0.0103282
0.0084777
0.0104199
0.00825868
0.0105342
0.00802858
0.00770035
0.0107195
0.00840003
9.70237e-11
0.00840003
6.0102e-10
0.00840003
2.13816e-09
0.00840004
5.89525e-09
0.00840002
1.59045e-08
0.0084001
3.92023e-08
0.00839991
9.90351e-08
0.0084006
2.42181e-07
0.00839918
5.93891e-07
0.00840355
1.47238e-06
0.00839566
3.56312e-06
0.00841754
8.99781e-06
0.00838805
2.20298e-05
0.00845718
5.77121e-05
0.00844985
0.000158015
0.00868811
0.000495087
0.00946099
0.00183969
0.0110246
0.00715015
0.0110143
0.00929432
0.0108484
0.00933484
0.0106473
0.00896509
0.010618
0.00849142
0.0106638
0.00819644
0.0107636
0.00790813
0.00750294
0.0109404
0.00840003
7.84848e-11
0.00840003
4.66313e-10
0.00840003
1.70358e-09
0.00840003
4.60284e-09
0.00840003
1.25896e-08
0.00840005
3.07751e-08
0.00840002
7.9003e-08
0.00840024
1.90436e-07
0.00839973
4.81174e-07
0.00840181
1.15742e-06
0.00839755
2.92082e-06
0.00841145
7.14323e-06
0.00839015
1.80538e-05
0.00844175
4.60202e-05
0.00842512
0.000124652
0.00858536
0.000374692
0.00907739
0.00131454
0.0111182
0.00508258
0.0112016
0.00919303
0.0111617
0.00935682
0.0109822
0.00912733
0.0108714
0.00858649
0.0108851
0.00816306
0.0110081
0.00776367
0.00731079
0.0111806
0.00840003
5.47926e-11
0.00840003
3.56795e-10
0.00840003
1.20889e-09
0.00840003
3.5032e-09
0.00840004
9.05744e-09
0.00840003
2.29741e-08
0.00840007
5.71481e-08
0.00840012
1.39143e-07
0.00840006
3.45418e-07
0.00840109
8.33061e-07
0.00839936
2.07733e-06
0.00840814
5.00001e-06
0.00839808
1.26069e-05
0.00843873
3.11585e-05
0.00844692
8.21126e-05
0.0086183
0.000231494
0.00915914
0.000747398
0.0114176
0.00281159
0.0117301
0.0088474
0.011444
0.00962022
0.0113012
0.0092475
0.0111702
0.0086957
0.011183
0.00812576
0.0112968
0.00762878
0.00713149
0.0114621
0.00840003
4.28806e-11
0.00840003
2.5665e-10
0.00840003
9.30806e-10
0.00840003
2.52546e-09
0.00840003
6.89511e-09
0.00840004
1.66958e-08
0.00840004
4.29081e-08
0.00840012
1.02137e-07
0.00839998
2.57497e-07
0.00840089
6.1593e-07
0.00839921
1.53599e-06
0.00840618
3.70405e-06
0.00839589
9.26254e-06
0.00842926
2.29002e-05
0.00841354
5.91052e-05
0.00852239
0.000161637
0.00872353
0.000503392
0.00968513
0.00185455
0.0115663
0.0069112
0.011553
0.00960788
0.0115596
0.00921825
0.0115004
0.00873246
0.0115019
0.00810262
0.0116064
0.00750859
0.00696461
0.0117671
0.00840003
3.213e-11
0.00840003
1.88143e-10
0.00840003
6.87579e-10
0.00840003
1.85179e-09
0.00840004
5.07104e-09
0.00840002
1.22473e-08
0.00840007
3.18656e-08
0.00840003
7.4719e-08
0.00840016
1.93557e-07
0.00840029
4.48903e-07
0.00840015
1.16159e-06
0.0084027
2.72355e-06
0.00839966
7.00392e-06
0.00841561
1.68938e-05
0.00841368
4.39411e-05
0.00847362
0.000115903
0.00860878
0.000347276
0.00926006
0.00119813
0.0115956
0.00451174
0.0118163
0.00935063
0.0117499
0.0092604
0.0117454
0.00871434
0.0117983
0.00803431
0.0119337
0.00736541
0.00680206
0.0120974
0.00840003
2.10089e-11
0.00840003
1.37601e-10
0.00840003
4.61765e-10
0.00840003
1.35478e-09
0.00840004
3.44879e-09
0.00840002
8.8425e-09
0.00840008
2.17334e-08
0.00839997
5.30327e-08
0.00840035
1.31879e-07
0.00839978
3.12853e-07
0.00840173
7.93516e-07
0.00839906
1.84688e-06
0.00840852
4.75935e-06
0.00839912
1.11271e-05
0.00843844
2.91408e-05
0.00844095
7.31795e-05
0.00861279
0.000209593
0.00910991
0.000667242
0.0110699
0.00251972
0.0119865
0.00836833
0.0119788
0.00923555
0.012053
0.00861894
0.01216
0.00792024
0.0122801
0.00724863
0.00666915
0.0124262
0.00840003
1.40066e-11
0.00840003
9.98579e-11
0.00840003
3.17881e-10
0.00840003
9.72912e-10
0.00840003
2.38196e-09
0.00840003
6.34374e-09
0.00840004
1.49325e-08
0.00840003
3.85461e-08
0.00840016
9.03866e-08
0.00839988
2.28912e-07
0.00840114
5.44271e-07
0.00839866
1.35729e-06
0.00840737
3.29131e-06
0.00839368
8.14147e-06
0.0084329
2.03461e-05
0.00840327
5.19573e-05
0.00852036
0.00014289
0.00868381
0.000443594
0.00955301
0.00164351
0.0115864
0.00622297
0.0119863
0.00880246
0.0121866
0.00841848
0.0124028
0.00770615
0.0125812
0.00708116
0.00653543
0.012738
0.00840003
9.84455e-12
0.00840003
6.58529e-11
0.00840003
2.21366e-10
0.00840003
6.53784e-10
0.00840003
1.6326e-09
0.00840004
4.32361e-09
0.00840002
1.00998e-08
0.00840007
2.63857e-08
0.00840003
6.05045e-08
0.00840016
1.58309e-07
0.0084003
3.60676e-07
0.00840011
9.43909e-07
0.00840284
2.17609e-06
0.00839942
5.64054e-06
0.00841648
1.34742e-05
0.00841349
3.51359e-05
0.00847689
9.2406e-05
0.00861475
0.000277289
0.00928666
0.000953502
0.0115945
0.00377513
0.0119723
0.00837552
0.0123154
0.00809394
0.0125626
0.00747897
0.0127884
0.00688393
0.00638035
0.0129703
0.00840003
6.8349e-12
0.00840003
4.27724e-11
0.00840003
1.51716e-10
0.00840003
4.19815e-10
0.00840003
1.12439e-09
0.00840004
2.78078e-09
0.00840002
6.90112e-09
0.00840009
1.69708e-08
0.00839996
4.07704e-08
0.00840035
1.01701e-07
0.00839972
2.38677e-07
0.0084017
6.05491e-07
0.0083987
1.40101e-06
0.00840778
3.60242e-06
0.00839775
8.40711e-06
0.00843334
2.19462e-05
0.00843009
5.55342e-05
0.0085749
0.000160216
0.00897073
0.000517965
0.0106008
0.00208616
0.0115992
0.00728356
0.0121712
0.00753649
0.0125634
0.00710946
0.0128687
0.00661484
0.00619977
0.0130782
0.00840003
4.78006e-12
0.00840003
2.96756e-11
0.00840003
1.04968e-10
0.00840003
2.92403e-10
0.00840003
7.81018e-10
0.00840003
1.93057e-09
0.00840002
4.85084e-09
0.00840006
1.16802e-08
0.00839997
2.90684e-08
0.00840028
6.98693e-08
0.00839959
1.72998e-07
0.0084016
4.14282e-07
0.00839761
1.03002e-06
0.00840853
2.49683e-06
0.0083893
6.17687e-06
0.00843083
1.54242e-05
0.00839019
3.98331e-05
0.00848698
0.000111614
0.00858578
0.00035459
0.00926234
0.00138063
0.0106494
0.00573509
0.0114517
0.00674607
0.0121525
0.00643029
0.0125997
0.00620266
0.00592698
0.0129004
0.00840003
4.11603e-12
0.00840003
1.92635e-11
0.00840003
8.48472e-11
0.00840003
1.9107e-10
0.00840003
6.22997e-10
0.00840003
1.28725e-09
0.00840003
3.8809e-09
0.00840005
8.05295e-09
0.00839998
2.30812e-08
0.0084002
5.01172e-08
0.00839966
1.35349e-07
0.00840121
3.118e-07
0.0083978
7.9621e-07
0.0084067
1.93903e-06
0.00838931
4.72331e-06
0.00842447
1.22354e-05
0.00837958
3.05239e-05
0.0084526
8.65394e-05
0.00847232
0.000268813
0.00883112
0.000999344
0.00984221
0.00453623
0.0107075
0.00591815
0.0115199
0.00565572
0.0120532
0.00570229
0.00554134
0.0124654
0.00840003
1.96222e-12
0.00840003
1.80347e-11
0.00840003
4.72711e-11
0.00840003
1.77642e-10
0.00840003
3.60567e-10
0.00840003
1.16651e-09
0.00840004
2.33235e-09
0.00840001
7.07498e-09
0.00840009
1.48385e-08
0.00839992
4.18025e-08
0.00840036
9.4262e-08
0.00839952
2.46128e-07
0.00840137
5.95954e-07
0.00839802
1.45632e-06
0.00840433
3.80968e-06
0.00839456
8.97675e-06
0.00841543
2.4789e-05
0.00839934
6.59381e-05
0.00846844
0.000208296
0.00865997
0.000754027
0.00954287
0.00346313
0.0102715
0.00524537
0.0108814
0.00508793
0.0114151
0.00518494
0.00506641
0.0119069
0.00840003
2.21733e-12
0.00840003
1.01536e-11
0.00840003
4.38121e-11
0.00840003
9.90069e-11
0.00840003
3.27366e-10
0.00840003
6.39902e-10
0.00840003
2.11261e-09
0.00840005
3.91855e-09
0.00839999
1.29264e-08
0.00840016
2.39535e-08
0.00839974
7.77395e-08
0.00840091
1.50058e-07
0.00839835
4.60586e-07
0.00840504
9.55683e-07
0.00839132
2.74135e-06
0.00842116
6.27431e-06
0.00837828
1.72216e-05
0.00844834
4.53392e-05
0.00844781
0.000140558
0.00868913
0.000495522
0.00967078
0.00227936
0.0101708
0.00478473
0.0104032
0.00488504
0.0109142
0.00469406
0.0045906
0.0114104
0.00840003
1.38065e-12
0.00840003
7.84485e-12
0.00840003
3.00103e-11
0.00840003
7.87565e-11
0.00840003
2.19975e-10
0.00840003
5.34715e-10
0.00840003
1.35623e-09
0.00840003
3.28806e-09
0.00840005
8.06909e-09
0.00839998
2.03261e-08
0.0084002
4.77129e-08
0.00839955
1.24075e-07
0.00840147
2.86984e-07
0.0083968
7.54277e-07
0.00840902
1.75378e-06
0.00838563
4.63137e-06
0.0084291
1.1267e-05
0.00838847
3.09762e-05
0.00847079
9.03279e-05
0.00860236
0.000307358
0.00943189
0.00137027
0.00979081
0.00438284
0.00993149
0.00472463
0.0104147
0.00421671
0.00412243
0.0108899
0.00840003
1.01564e-12
0.00840003
6.51469e-12
0.00840003
2.27833e-11
0.00840003
6.36857e-11
0.00840003
1.69294e-10
0.00840003
4.27697e-10
0.00840003
1.0544e-09
0.00840002
2.69735e-09
0.00840006
6.34292e-09
0.00839995
1.6272e-08
0.00840028
3.81898e-08
0.0083994
9.74305e-08
0.00840173
2.29253e-07
0.0083964
5.86153e-07
0.00840928
1.37354e-06
0.00838384
3.60507e-06
0.00842725
8.76525e-06
0.00837472
2.39568e-05
0.0084368
6.89976e-05
0.00846266
0.000230251
0.00877564
0.00099063
0.00922397
0.00382298
0.00954893
0.00433892
0.00991349
0.00386754
0.00368832
0.0103588
0.00840003
6.28393e-13
0.00840003
6.87903e-12
0.00840003
1.6035e-11
0.00840003
6.6062e-11
0.00840003
1.25425e-10
0.00840003
4.18259e-10
0.00840003
8.28215e-10
0.00840002
2.4745e-09
0.00840006
5.34658e-09
0.00839994
1.4104e-08
0.00840028
3.42317e-08
0.00839943
8.08783e-08
0.00840152
2.14598e-07
0.0083968
4.65116e-07
0.00840744
1.3484e-06
0.00838583
2.8012e-06
0.00842098
8.24408e-06
0.00837327
1.99051e-05
0.00841856
5.99197e-05
0.00840744
0.000195184
0.0085389
0.00080207
0.00871667
0.00351517
0.00930432
0.00374414
0.00956758
0.00361744
0.00333592
0.00993217
0.00840003
8.71837e-13
0.00840003
4.68395e-12
0.00840003
1.87148e-11
0.00840003
4.74046e-11
0.00840003
1.35188e-10
0.00840003
3.40605e-10
0.00840003
7.87482e-10
0.00840004
2.2559e-09
0.00840002
4.29421e-09
0.00840003
1.48011e-08
0.00840003
2.35562e-08
0.00839985
9.22789e-08
0.00840045
1.35615e-07
0.00839814
5.63039e-07
0.00840373
8.34867e-07
0.00839065
3.32588e-06
0.00841102
5.87449e-06
0.00838375
1.97129e-05
0.00840299
5.07746e-05
0.00840494
0.000172446
0.008464
0.00068528
0.00860332
0.00323087
0.00894969
0.00339744
0.0093112
0.00326137
0.00301683
0.00964456
0.00840003
6.5712e-13
0.00840003
5.27763e-12
0.00840003
1.4904e-11
0.00840003
5.16406e-11
0.00840003
1.14638e-10
0.00840003
3.19575e-10
0.00840003
7.84688e-10
0.00840003
1.78909e-09
0.00840002
5.21104e-09
0.00840004
9.82695e-09
0.00839991
3.36487e-08
0.0084003
5.40756e-08
0.008399
2.09993e-07
0.0084024
3.11944e-07
0.00839369
1.27498e-06
0.00841233
1.9638e-06
0.00837675
7.38517e-06
0.00842202
1.51331e-05
0.0083702
4.92246e-05
0.00840799
0.00015234
0.00841222
0.00060648
0.0085267
0.00296363
0.00880646
0.00312739
0.00916926
0.00291008
0.00273701
0.00946167
0.00840003
8.16582e-13
0.00840003
4.16353e-12
0.00840003
1.72283e-11
0.00840003
4.11819e-11
0.00840003
1.25877e-10
0.00840003
2.91908e-10
0.00840003
7.32006e-10
0.00840004
1.9498e-09
0.00840001
4.00526e-09
0.00840005
1.27004e-08
0.00839998
2.17746e-08
0.00839996
8.09334e-08
0.00840014
1.19882e-07
0.00839887
4.98681e-07
0.00840143
7.08457e-07
0.00839468
2.95782e-06
0.00840282
4.94046e-06
0.00839014
1.70443e-05
0.00839097
4.21969e-05
0.00838045
0.000143033
0.00838911
0.000544391
0.00846587
0.00271383
0.00873947
0.00287489
0.00907159
0.00259709
0.00247624
0.00934409
0.00840003
8.43757e-13
0.00840003
3.75098e-12
0.00840003
1.70021e-11
0.00840003
3.68423e-11
0.00840003
1.23353e-10
0.00840003
2.40966e-10
0.00840003
7.77384e-10
0.00840003
1.44183e-09
0.00840003
4.83932e-09
0.00840003
8.60965e-09
0.00839995
2.8803e-08
0.0084002
5.35866e-08
0.00839922
1.70025e-07
0.00840177
3.38383e-07
0.00839478
9.72058e-07
0.00840907
2.17022e-06
0.00838076
5.73316e-06
0.00841438
1.44548e-05
0.00837062
4.12549e-05
0.00839116
0.000130396
0.00836746
0.000496446
0.00842044
0.00247383
0.00869813
0.00263449
0.00900163
0.00232209
0.00222383
0.00926423
0.00840003
4.45707e-13
0.00840003
4.50154e-12
0.00840003
1.09308e-11
0.00840003
4.4471e-11
0.00840003
8.09264e-11
0.00840003
2.97481e-10
0.00840003
5.01662e-10
0.00840002
1.84176e-09
0.00840006
3.09316e-09
0.00839996
1.09702e-08
0.00840018
1.95615e-08
0.00839969
6.37346e-08
0.0084007
1.24958e-07
0.00839841
3.63412e-07
0.00840217
8.13583e-07
0.00839374
2.08592e-06
0.00840536
5.28488e-06
0.00838042
1.34858e-05
0.00840092
3.81451e-05
0.00836671
0.000120308
0.00836421
0.000451587
0.00838881
0.00223621
0.00867307
0.00240628
0.00894443
0.0020867
0.00196993
0.00921354
0.00840003
4.66576e-13
0.00840003
3.7912e-12
0.00840003
1.0476e-11
0.00840003
3.71842e-11
0.00840003
8.23891e-11
0.00840003
2.36298e-10
0.00840003
5.54985e-10
0.00840003
1.37811e-09
0.00840002
3.57184e-09
0.00840005
7.92892e-09
0.00839992
2.27016e-08
0.00840026
4.52993e-08
0.00839918
1.41918e-07
0.00840182
2.65159e-07
0.00839478
8.80439e-07
0.00840947
1.65263e-06
0.0083788
5.32272e-06
0.00841735
1.17733e-05
0.00836333
3.5701e-05
0.00838813
0.000108913
0.00835188
0.000407361
0.00836166
0.00199763
0.00866414
0.00218129
0.00894285
0.00185462
0.00173249
0.00920129
0.00840003
6.18627e-13
0.00840003
2.3412e-12
0.00840003
1.23279e-11
0.00840003
2.28379e-11
0.00840003
8.86692e-11
0.00840003
1.66619e-10
0.00840003
5.36265e-10
0.00840004
1.14742e-09
0.0084
3.03622e-09
0.00840009
7.69917e-09
0.00839988
1.73721e-08
0.00840033
5.06469e-08
0.00839926
9.88585e-08
0.00840158
3.27725e-07
0.00839581
5.8387e-07
0.00840625
2.03869e-06
0.00838439
3.7465e-06
0.00841051
1.22338e-05
0.00836511
3.02332e-05
0.00838443
9.91164e-05
0.00834979
0.000361014
0.00834342
0.00175316
0.00867167
0.00194985
0.00895819
0.00162296
0.00149792
0.0092183
0.00840003
2.59129e-13
0.00840003
2.58266e-12
0.00840003
6.33545e-12
0.00840003
2.56315e-11
0.00840003
4.97877e-11
0.00840003
1.68598e-10
0.00840003
3.38323e-10
0.00840003
1.02362e-09
0.00840003
2.28418e-09
0.00840003
6.04823e-09
0.00839998
1.51107e-08
0.00840014
3.57195e-08
0.00839942
9.91011e-08
0.00840132
2.14198e-07
0.00839566
6.31196e-07
0.00840816
1.32826e-06
0.00838004
4.01983e-06
0.00841696
9.24156e-06
0.00836358
2.772e-05
0.00838793
8.4424e-05
0.00835058
0.000313098
0.00833571
0.00149933
0.00868822
0.00170728
0.00898183
0.00139312
0.00126693
0.00924402
0.00840003
2.39776e-13
0.00840003
1.70311e-12
0.00840003
5.13411e-12
0.00840003
1.67418e-11
0.00840003
4.16071e-11
0.00840003
1.0496e-10
0.00840003
2.99582e-10
0.00840003
6.084e-10
0.00840002
2.09788e-09
0.00840006
3.55885e-09
0.0083999
1.38548e-08
0.00840034
2.22853e-08
0.00839913
8.92494e-08
0.00840211
1.36843e-07
0.00839485
5.74675e-07
0.00841057
9.14419e-07
0.00837763
3.48195e-06
0.0084223
7.233e-06
0.00835807
2.31482e-05
0.00839384
6.92845e-05
0.00835158
0.000259749
0.00832321
0.00124326
0.00869575
0.00145403
0.00899302
0.00116808
0.00104722
0.00924657
0.00840003
2.14083e-13
0.00840003
9.89435e-13
0.00840003
4.25646e-12
0.00840003
1.01929e-11
0.00840003
3.06219e-11
0.00840003
7.77761e-11
0.00840003
1.75286e-10
0.00840004
5.49712e-10
0.00840001
1.03295e-09
0.00840007
3.83002e-09
0.00839994
6.12622e-09
0.00840019
2.55548e-08
0.00839966
3.80396e-08
0.00840029
1.70089e-07
0.00839877
2.53567e-07
0.00840016
1.05909e-06
0.0083943
1.97012e-06
0.00840022
6.40308e-06
0.00837796
1.66272e-05
0.00838473
5.42193e-05
0.0083517
0.000201572
0.00833092
0.000977447
0.00870917
0.00118922
0.00898908
0.000952959
0.000842226
0.00922262
0.00840003
2.69988e-13
0.00840003
2.66341e-13
0.00840003
4.76622e-12
0.00840003
2.6905e-12
0.00840003
3.4386e-11
0.00840003
1.95538e-11
0.00840003
2.23161e-10
0.00840004
1.29634e-10
0.00840001
1.32314e-09
0.00840008
7.11565e-10
0.0083999
7.64038e-09
0.00840035
6.96963e-09
0.00839927
4.2741e-08
0.00840179
7.31935e-08
0.00839594
2.30115e-07
0.00840775
6.38456e-07
0.00838339
1.33887e-06
0.0084172
4.48411e-06
0.00836525
1.08855e-05
0.0084003
3.74888e-05
0.00835427
0.000141198
0.0083841
0.000690315
0.00873116
0.000918966
0.00897668
0.000750548
0.000646568
0.00919455
0.00840003
7.91292e-14
0.00840003
4.5112e-13
0.00840003
1.51022e-12
0.00840003
4.67166e-12
0.00840003
1.0283e-11
0.00840003
3.56997e-11
0.00840003
6.50332e-11
0.00840002
2.60179e-10
0.00840005
3.56783e-10
0.00839998
1.84713e-09
0.00840014
1.66119e-09
0.00839978
1.27796e-08
0.00840059
6.64645e-09
0.00839883
7.8305e-08
0.00840236
4.54728e-08
0.00839419
4.466e-07
0.00840906
5.95744e-07
0.00838053
2.49296e-06
0.00841321
5.98311e-06
0.00837435
2.01206e-05
0.00838329
7.57894e-05
0.00844891
0.000375649
0.00872624
0.000649865
0.00895696
0.000542158
0.000447065
0.00917663
0.00840003
-6.18345e-14
0.00840003
7.75299e-13
0.00840003
-1.02157e-12
0.00840003
7.05699e-12
0.00840003
-3.08985e-12
0.00840003
3.23624e-11
0.00840003
2.21073e-11
0.00840003
1.28383e-10
0.00840004
4.08815e-10
0.00840002
3.5934e-11
0.00840003
4.18146e-09
0.00840004
-3.17093e-09
0.00839978
3.20656e-08
0.00840055
-3.15172e-08
0.00839773
2.16771e-07
0.00840386
-1.73424e-07
0.00839038
1.17369e-06
0.00840848
-1.36873e-07
0.00838499
4.57182e-06
0.00839877
6.67183e-06
0.00839475
3.17743e-05
0.00848003
0.000144717
0.00869601
0.000350271
0.00893867
0.000291818
0.000230147
0.00916787
0.00840003
0.00840003
0.00840003
0.00840003
0.00840003
0.00840003
0.00840003
0.00840003
0.00840002
0.00840003
0.00840004
0.00839991
0.00840031
0.00839883
0.00840271
0.00839296
0.00841154
0.00838087
0.00841226
0.00838023
0.00839733
0.00842399
0.00865946
0.00892885
0.00916534
0.0039613
0.00432675
0.00156213
0.00239047
-0.000688539
0.0022454
-0.00161155
0.000920113
-0.00222898
0.000615096
-0.00257229
0.000342103
-0.00267338
0.000100711
-0.0027097
3.58417e-05
-0.00277273
6.23219e-05
-0.00283208
5.84786e-05
-0.00288089
4.84152e-05
-0.0028988
1.76899e-05
-0.0028908
-8.35845e-06
-0.00286777
-2.3493e-05
-0.00283571
-3.24177e-05
-0.00279145
-4.41731e-05
-0.00272676
-6.41111e-05
-0.00264384
-8.21095e-05
-0.00254505
-9.75658e-05
-0.00243225
-0.000111637
-0.00230604
-0.000124845
-0.00216786
-0.000136921
-0.00201849
-0.0001485
-0.00185943
-0.000158396
-0.00168561
-0.000173627
-0.00150306
-0.000182653
-0.00131306
-0.000190159
-0.00111809
-0.000195282
-0.000919074
-0.000199456
-0.000715839
-0.000203938
-0.000507767
-0.000208783
-0.000295272
-0.000212808
-7.69098e-05
-0.000218456
0.000147157
-0.000224381
0.000365191
-0.00021834
0.000576107
-0.000210905
0.000782278
-0.000205819
0.000984198
-0.000201626
0.00118004
-0.000195427
0.00137047
-0.000189786
0.00155423
-0.000182858
0.00173406
-0.000178733
0.00191264
-0.000177552
0.00208825
-0.000174253
0.00225783
-0.000168124
0.00242071
-0.00016179
0.0025771
-0.000155184
0.00272821
-0.00014947
0.00287295
-0.000143609
0.00301211
-0.000137972
0.00314558
-0.000132394
0.00327313
-0.0001269
0.00339538
-0.000121422
0.003512
-0.000116137
0.00362324
-0.00011079
0.00372938
-0.000105703
0.00383011
-0.000100571
0.00392569
-9.56765e-05
0.00401593
-9.07687e-05
0.00410167
-8.60791e-05
0.00418224
-8.14325e-05
0.0042585
-7.69243e-05
0.00433011
-7.2525e-05
0.00439743
-6.82107e-05
0.00446078
-6.40253e-05
0.00452001
-5.99253e-05
0.00457565
-5.59456e-05
0.00462755
-5.20785e-05
0.00467599
-4.83318e-05
0.0047211