/*--------------------------------*- C++ -*----------------------------------*\
  =========                 |
  \\      /  F ield         | OpenFOAM: The Open Source CFD Toolbox
   \\    /   O peration     | Website:  https://openfoam.org
    \\  /    A nd           | Version:  9
     \\/     M anipulation  |
\*---------------------------------------------------------------------------*/
FoamFile
{
    format      ascii;
    class       volScalarField;
    location    "10";
    object      rho;
}
// * * * * * * * * * * * * * * * * * * * * * * * * * * * * * * * * * * * * * //

dimensions      [1 -3 0 0 0 0 0];

internalField   nonuniform List<scalar> 
5250
(
1.40001
1.40003
1.40009
1.40019
1.40057
1.40118
1.40346
1.40717
1.42047
1.44401
1.51169
1.64334
1.93218
2.68386
5.48515
5.73246
5.67662
5.66995
5.69406
5.77735
5.86054
5.91295
5.95399
5.98724
6.01456
1.40001
1.40003
1.40009
1.40019
1.40056
1.40118
1.40338
1.40723
1.41997
1.44402
1.51021
1.64137
1.92747
2.66801
5.44886
5.73031
5.67515
5.66776
5.69169
5.77494
5.85814
5.91092
5.95288
5.98701
6.0154
1.40001
1.40003
1.40007
1.40022
1.40048
1.40132
1.40295
1.40783
1.418
1.44579
1.50418
1.64074
1.91649
2.63587
5.36795
5.72504
5.67036
5.65877
5.68183
5.76327
5.84565
5.89735
5.94036
5.97397
6.00172
1.40001
1.40003
1.40008
1.40018
1.40053
1.40111
1.40324
1.40673
1.41918
1.44127
1.50509
1.62931
1.90559
2.58536
5.24106
5.71859
5.66348
5.64291
5.66431
5.74209
5.82267
5.87328
5.91384
5.94798
5.97698
1.40001
1.40003
1.40007
1.4002
1.40043
1.40125
1.40261
1.40753
1.41595
1.4435
1.49505
1.62567
1.88198
2.52436
5.06339
5.71327
5.65602
5.62115
5.64008
5.71313
5.79053
5.83971
5.87831
5.91049
5.94081
1.40001
1.40002
1.40007
1.40017
1.40046
1.40102
1.40286
1.40612
1.41707
1.43731
1.49473
1.60834
1.86178
2.44645
4.8305
5.71313
5.64952
5.59343
5.60879
5.6755
5.74827
5.79338
5.82992
5.85977
5.89138
1.40001
1.40002
1.40007
1.40016
1.40042
1.40099
1.40248
1.4061
1.41476
1.43635
1.48553
1.59626
1.83009
2.36085
4.53441
5.72275
5.64634
5.56061
5.57146
5.62931
5.6967
5.73397
5.7635
5.78834
5.82034
1.40001
1.40002
1.40006
1.40014
1.40038
1.40088
1.40228
1.40543
1.41354
1.43265
1.4782
1.5789
1.79512
2.26569
4.17038
5.74355
5.64908
5.52372
5.52887
5.57342
5.63225
5.66015
5.67796
5.69034
5.71807
1.40001
1.40002
1.40006
1.40012
1.40035
1.40074
1.40214
1.40448
1.41275
1.42738
1.47185
1.55725
1.75745
2.16529
3.74499
5.77576
5.66111
5.48877
5.48522
5.51254
5.55608
5.5671
5.56564
5.55254
5.55803
1.40001
1.40002
1.40005
1.40011
1.40029
1.40068
1.40177
1.40404
1.41076
1.42416
1.46183
1.53829
1.71391
2.06915
3.26937
5.78779
5.67055
5.46241
5.44014
5.44717
5.46767
5.45845
5.42817
5.35969
5.30553
1.40001
1.40002
1.40004
1.40011
1.40023
1.40063
1.40143
1.4037
1.40879
1.42178
1.45196
1.52222
1.67319
1.98766
2.89124
5.66825
5.62442
5.44815
5.38591
5.37852
5.36787
5.33512
5.24578
5.03689
4.44209
1.40001
1.40002
1.40003
1.40009
1.40021
1.40055
1.40121
1.40335
1.40722
1.41985
1.4437
1.50896
1.6395
1.92292
2.64824
5.31523
5.4924
5.4142
5.32532
5.30347
5.27077
5.20358
5.05887
4.76345
4.14095
1.40001
1.40001
1.40003
1.40007
1.4002
1.40041
1.40118
1.40253
1.40696
1.41549
1.44051
1.49086
1.61349
1.85886
2.44875
4.79737
5.40794
5.36912
5.26545
5.22295
5.17342
5.0788
4.89238
4.59021
4.1187
1.40001
1.40001
1.40003
1.40007
1.40015
1.40041
1.40085
1.40247
1.40516
1.41462
1.43152
1.48155
1.57853
1.80085
2.27282
4.20531
5.36846
5.33472
5.22504
5.14559
5.08056
4.96689
4.77974
4.50186
4.13668
1.40001
1.40001
1.40003
1.40005
1.40014
1.40029
1.40081
1.40177
1.40478
1.41082
1.42811
1.46397
1.55301
1.73358
2.11857
3.55744
5.36142
5.32539
5.20233
5.0828
4.99364
4.87723
4.70044
4.45804
4.15417
1.40001
1.40001
1.40002
1.40004
1.40011
1.40023
1.40066
1.40136
1.40395
1.40818
1.42314
1.4495
1.52458
1.66905
1.97879
2.85481
5.29774
5.30164
5.20774
5.04145
4.93238
4.81133
4.6475
4.43278
4.17601
1.40001
1.40001
1.40002
1.40004
1.40008
1.40021
1.40047
1.40127
1.40274
1.40766
1.41641
1.4439
1.49677
1.62698
1.88414
2.52885
4.91695
5.22278
5.16465
5.01184
4.8825
4.76678
4.6135
4.42448
4.20178
1.40001
1.40001
1.40002
1.40003
1.40007
1.40015
1.40042
1.4009
1.40242
1.40554
1.41421
1.43319
1.48107
1.58204
1.80314
2.28062
4.19911
5.12118
5.0947
4.99614
4.85307
4.73344
4.59854
4.43462
4.23885
1.40001
1.40001
1.40001
1.40003
1.40005
1.40013
1.40029
1.40077
1.40175
1.40451
1.41069
1.42645
1.46257
1.54593
1.72218
2.08425
3.42794
5.06612
5.06518
5.00307
4.85642
4.72368
4.59977
4.4533
4.28691
1.40001
1.40001
1.40001
1.40002
1.40004
1.4001
1.40023
1.40057
1.40131
1.40347
1.40774
1.42052
1.44597
1.51233
1.64744
1.92533
2.66781
4.89019
5.08256
5.02187
4.88323
4.74107
4.6194
4.48345
4.35096
1.40001
1.40001
1.40001
1.40002
1.40004
1.40007
1.40019
1.4004
1.40108
1.40243
1.40633
1.41473
1.43677
1.48498
1.59648
1.82378
2.34379
4.33652
5.04425
5.01278
4.91546
4.77202
4.65263
4.54213
4.44036
1.40001
1.40001
1.40001
1.40001
1.40003
1.40005
1.40014
1.40029
1.40084
1.40174
1.40494
1.41056
1.42866
1.46302
1.55319
1.73022
2.10527
3.52047
4.96591
5.00148
4.94749
4.82203
4.70995
4.6305
4.55219
1.40001
1.40001
1.40001
1.40001
1.40002
1.40004
1.40011
1.40022
1.40061
1.40127
1.4036
1.40755
1.42102
1.44517
1.51382
1.64538
1.92028
2.65218
4.77294
5.0441
5.00039
4.91098
4.81801
4.75277
4.68572
1.40001
1.40001
1.40001
1.40001
1.40002
1.40003
1.40008
1.40016
1.40045
1.40094
1.40264
1.4056
1.41551
1.43368
1.48604
1.58736
1.81608
2.3101
4.20217
5.03824
5.0663
5.02965
4.95777
4.89297
4.82675
1.40001
1.40001
1.40001
1.40001
1.40001
1.40002
1.40006
1.40012
1.40033
1.40069
1.40194
1.40409
1.41148
1.4246
1.46457
1.54078
1.72174
2.07289
3.35027
4.97048
5.19034
5.16073
5.11122
5.04824
4.97292
1.40001
1.40001
1.40001
1.40001
1.40001
1.40002
1.40004
1.4001
1.40022
1.40054
1.40133
1.40311
1.40804
1.41832
1.44644
1.50497
1.64076
1.90353
2.60175
4.74161
5.325
5.30804
5.27174
5.21402
5.11015
1.40001
1.40001
1.40001
1.40001
1.40001
1.40002
1.40003
1.40008
1.40015
1.40043
1.40091
1.40254
1.40551
1.41488
1.43322
1.48347
1.58446
1.80999
2.30213
4.16267
5.37856
5.47074
5.44294
5.3776
5.24329
1.40001
1.40001
1.40001
1.40001
1.40001
1.40001
1.40002
1.40006
1.40012
1.40033
1.40069
1.40194
1.40409
1.41152
1.42472
1.46507
1.54222
1.72645
2.0933
3.33859
5.40075
5.63876
5.60606
5.51104
5.34305
1.40001
1.40001
1.40001
1.40001
1.40001
1.40001
1.40002
1.40004
1.4001
1.40024
1.40057
1.40143
1.40334
1.4087
1.4198
1.45043
1.51398
1.66161
1.95529
2.76914
5.26611
5.76226
5.73484
5.62584
5.42056
1.40001
1.40001
1.40001
1.40001
1.40001
1.40001
1.40002
1.40003
1.40009
1.40018
1.4005
1.4011
1.4029
1.4068
1.41714
1.4408
1.49759
1.62073
1.88415
2.53519
4.90684
5.77678
5.77106
5.66861
5.44788
1.40001
1.40001
1.40001
1.40001
1.40001
1.40001
1.40002
1.40003
1.40007
1.40015
1.40042
1.40093
1.40245
1.40573
1.41458
1.43457
1.48395
1.59064
1.82295
2.35953
4.37652
5.81588
5.80517
5.66764
5.43715
1.40001
1.40001
1.40001
1.40001
1.40001
1.40001
1.40001
1.40003
1.40006
1.40014
1.40035
1.4008
1.40213
1.40478
1.41293
1.42884
1.47415
1.56507
1.77334
2.23226
3.87841
5.92433
5.86267
5.62132
5.39503
1.40001
1.40001
1.40001
1.40001
1.40001
1.40001
1.40001
1.40002
1.40006
1.40012
1.40031
1.4007
1.4018
1.40432
1.41071
1.42613
1.46315
1.54647
1.72923
2.1351
3.40973
6.02449
5.90549
5.57417
5.36201
1.40001
1.40001
1.40001
1.40001
1.40001
1.40001
1.40001
1.40002
1.40004
1.40012
1.40024
1.40069
1.40147
1.40412
1.40902
1.4243
1.45457
1.5338
1.69327
2.0446
3.0751
5.99994
5.87667
5.54126
5.34003
1.40001
1.40001
1.40001
1.40001
1.40001
1.40001
1.40001
1.40002
1.40004
1.40011
1.40023
1.40062
1.40138
1.40369
1.40847
1.42187
1.45088
1.52264
1.6726
1.98952
2.90689
5.85368
5.77954
5.52539
5.33328
1.40001
1.40001
1.40001
1.40001
1.40001
1.40001
1.40001
1.40002
1.40004
1.4001
1.40021
1.40057
1.4013
1.40337
1.40803
1.42005
1.44798
1.514
1.65653
1.95135
2.77664
5.64105
5.67722
5.56397
5.34718
1.40001
1.40001
1.40001
1.40001
1.40001
1.40001
1.40001
1.40002
1.40004
1.40009
1.40019
1.40056
1.40114
1.40335
1.40699
1.41985
1.44309
1.50953
1.63999
1.92733
2.67686
5.41563
5.6659
5.58092
5.3617
1.40001
1.40001
1.40001
1.40001
1.40001
1.40001
1.40001
1.40002
1.40004
1.40008
1.40021
1.40044
1.40127
1.40269
1.40756
1.41653
1.44427
1.49801
1.63238
1.89902
2.59189
5.18683
5.67718
5.59601
5.37631
1.40001
1.40001
1.40001
1.40001
1.40001
1.40001
1.40001
1.40002
1.40003
1.40008
1.40017
1.40049
1.40101
1.40296
1.40614
1.41762
1.438
1.49784
1.61463
1.87887
2.51646
4.96028
5.70748
5.6209
5.38637
1.40001
1.40001
1.40001
1.40001
1.40001
1.40001
1.40001
1.40002
1.40003
1.40007
1.40019
1.40039
1.40112
1.40235
1.40675
1.41448
1.43954
1.48717
1.60926
1.85106
2.45426
4.73636
5.75175
5.65327
5.38995
1.40001
1.40001
1.40001
1.40001
1.40001
1.40001
1.40001
1.40002
1.40003
1.40007
1.40016
1.40038
1.40101
1.40228
1.40624
1.4138
1.43694
1.48291
1.59763
1.82969
2.39644
4.5181
5.80927
5.68827
5.38976
1.40001
1.40001
1.40001
1.40001
1.40001
1.40001
1.40001
1.40001
1.40003
1.40006
1.40017
1.40034
1.40098
1.4021
1.40588
1.413
1.43474
1.47827
1.58785
1.80825
2.34483
4.30506
5.87755
5.72191
5.39317
1.40001
1.40001
1.40001
1.40001
1.40001
1.40001
1.40001
1.40001
1.40003
1.40006
1.40015
1.40035
1.40084
1.40218
1.40506
1.41327
1.43087
1.47664
1.5754
1.79061
2.29583
4.1018
5.95428
5.75554
5.39718
1.40001
1.40001
1.40001
1.40001
1.40001
1.40001
1.40001
1.40001
1.40003
1.40005
1.40015
1.4003
1.40088
1.40182
1.40529
1.41128
1.43143
1.46912
1.57028
1.76903
2.25467
3.90857
6.03302
5.78726
5.40393
1.40001
1.40001
1.40001
1.40001
1.40001
1.40001
1.40001
1.40001
1.40003
1.40005
1.40014
1.40029
1.4008
1.4018
1.4048
1.41119
1.42877
1.46709
1.56041
1.75328
2.21442
3.7257
6.11112
5.82071
5.41471
1.40001
1.40001
1.40001
1.40001
1.40001
1.40001
1.40001
1.40001
1.40002
1.40005
1.40012
1.40031
1.40069
1.40191
1.40414
1.41163
1.42561
1.46664
1.55004
1.74099
2.17149
3.56126
6.18691
5.85408
5.42585
1.40001
1.40001
1.40001
1.40001
1.40001
1.40001
1.40001
1.40001
1.40003
1.40005
1.40013
1.40027
1.40072
1.4017
1.40427
1.41055
1.42561
1.46246
1.54587
1.72696
2.12907
3.42407
6.25185
5.88324
5.43669
1.40001
1.40001
1.40001
1.40001
1.40001
1.40001
1.40001
1.40001
1.40002
1.40005
1.40012
1.40028
1.40071
1.40161
1.40437
1.40965
1.42614
1.45858
1.54309
1.71576
2.09327
3.31673
6.29029
5.90362
5.4487
1.40001
1.40001
1.40001
1.40001
1.40001
1.40001
1.40001
1.40001
1.40002
1.40005
1.40012
1.40025
1.40073
1.40151
1.40444
1.40929
1.42608
1.45698
1.5416
1.70875
2.07242
3.24455
6.30162
5.91776
5.46062
1.40001
1.40001
1.40001
1.40001
1.40001
1.40001
1.40001
1.40001
1.40002
1.40005
1.40011
1.4003
1.40062
1.40178
1.40375
1.41068
1.42303
1.46124
1.53477
1.71176
2.06247
3.22191
6.29293
5.92346
5.46851
2.27122
1.86017
2.16965
1.99885
1.88661
1.87356
1.86501
1.85666
1.83918
1.81988
1.81124
1.80779
1.80699
1.80819
1.81342
1.8228
1.83775
1.85749
1.88096
1.9068
1.93539
1.96454
1.99531
2.02624
2.05824
2.08959
2.12067
2.15026
2.17833
2.20536
2.23139
2.25463
2.27439
2.29323
2.31078
2.32656
2.33963
2.35187
2.35934
2.36733
2.37142
2.37707
2.37845
2.37923
2.37741
2.37558
2.37034
2.36608
2.35926
2.35187
2.34309
2.33362
2.32252
2.31168
2.29869
2.28648
2.27228
2.25864
2.24317
2.22813
2.21208
2.19572
2.1792
2.16197
2.14489
2.12733
2.10976
2.09213
2.07431
2.05662
2.03881
2.02115
2.00352
1.98608
1.96879
1.95171
1.93484
1.91825
1.90187
1.88583
1.8701
1.85464
1.83977
1.82503
1.81119
1.7975
1.78484
1.77259
1.76144
1.75111
1.74208
1.73424
1.72827
1.72378
1.72201
1.72235
1.72293
1.72422
1.72681
1.73114
2.80365
2.43214
2.36669
2.14606
1.91885
1.86758
1.81631
1.75726
1.72523
1.70078
1.68664
1.68091
1.68153
1.68802
1.69621
1.70874
1.72808
1.75507
1.78771
1.82339
1.86024
1.89544
1.9316
1.96884
2.00861
2.04752
2.08603
2.1243
2.16006
2.19473
2.22695
2.25677
2.28589
2.31215
2.33821
2.36044
2.38158
2.39791
2.41318
2.42567
2.43655
2.44533
2.45342
2.45634
2.45937
2.45964
2.45939
2.4572
2.45319
2.44831
2.44159
2.43424
2.4251
2.41539
2.40423
2.39231
2.37961
2.36578
2.35174
2.33647
2.3211
2.30486
2.28827
2.27132
2.25382
2.23625
2.21817
2.20008
2.18169
2.1633
2.14486
2.12641
2.10812
2.08981
2.07177
2.05375
2.03606
2.01839
2.00119
1.98396
1.96743
1.95082
1.93504
1.91934
1.90447
1.89001
1.87626
1.86333
1.85121
1.84017
1.8304
1.82192
1.81533
1.81056
1.80863
1.80881
1.80948
1.81102
1.81386
1.81987
3.31764
2.8563
2.61551
2.42219
2.22293
2.06311
1.97221
1.85658
1.7779
1.72641
1.6972
1.68517
1.68279
1.68025
1.67618
1.68447
1.70381
1.73422
1.77226
1.81436
1.85832
1.90368
1.95082
1.99926
2.04928
2.09994
2.14998
2.1983
2.24546
2.2902
2.33236
2.37259
2.40967
2.44464
2.47695
2.50568
2.53188
2.55358
2.57366
2.58932
2.60315
2.61503
2.62501
2.63116
2.63436
2.63576
2.6362
2.63422
2.63117
2.6255
2.61933
2.61027
2.60142
2.58939
2.57816
2.56372
2.55037
2.53409
2.51887
2.50114
2.48436
2.46541
2.44745
2.42753
2.4088
2.38821
2.36901
2.34804
2.32856
2.30746
2.28788
2.2669
2.24734
2.22674
2.20731
2.18724
2.16808
2.1486
2.12987
2.11106
2.09296
2.07496
2.05758
2.04074
2.02448
2.00894
1.99413
1.98008
1.96727
1.95523
1.94495
1.93597
1.92897
1.92423
1.92275
1.92305
1.92405
1.92633
1.93004
1.93882
3.5809
3.12743
2.83326
2.6254
2.46221
2.32345
2.21798
2.13546
2.0477
1.96595
1.90793
1.8642
1.84379
1.83173
1.83063
1.84114
1.86104
1.89024
1.92625
1.96972
2.01733
2.06879
2.12053
2.17498
2.23048
2.28643
2.34152
2.39448
2.44509
2.49176
2.53538
2.57454
2.61111
2.64356
2.67313
2.6996
2.72222
2.74196
2.75783
2.77098
2.78104
2.79009
2.79675
2.80047
2.79957
2.79746
2.79424
2.7892
2.78289
2.77416
2.76477
2.75294
2.74092
2.72664
2.71235
2.69618
2.68001
2.66236
2.64462
2.62572
2.60667
2.5867
2.56659
2.54571
2.52482
2.50324
2.48186
2.45984
2.43821
2.41606
2.39436
2.37235
2.35079
2.32906
2.30783
2.28648
2.26574
2.24488
2.22475
2.20482
2.18539
2.16647
2.14803
2.13011
2.11285
2.09619
2.08054
2.06571
2.05194
2.0397
2.02854
2.01936
2.01218
2.0071
2.00637
2.00643
2.00701
2.00988
2.01383
2.02441
3.73363
3.33609
3.04144
2.8292
2.67274
2.54714
2.44981
2.3689
2.29837
2.22706
2.1745
2.13331
2.11221
2.101
2.09955
2.10518
2.11879
2.14579
2.17976
2.21923
2.26202
2.30725
2.35503
2.4031
2.45097
2.4975
2.54238
2.58476
2.62453
2.6615
2.69518
2.72688
2.75439
2.78039
2.8028
2.82332
2.83996
2.85481
2.86578
2.87484
2.88058
2.88617
2.88937
2.8904
2.88612
2.88035
2.87359
2.86549
2.85639
2.84536
2.83363
2.82002
2.80603
2.79032
2.77447
2.75707
2.73975
2.72098
2.70252
2.6826
2.66318
2.64232
2.62202
2.60047
2.57937
2.55735
2.53564
2.51338
2.49135
2.46902
2.44697
2.42475
2.40294
2.38101
2.35947
2.33822
2.31727
2.29674
2.27658
2.25662
2.23734
2.21829
2.19996
2.18223
2.16494
2.14886
2.13316
2.11896
2.1056
2.0938
2.08361
2.07514
2.06908
2.06558
2.06563
2.06616
2.06794
2.07184
2.0769
2.08991
3.8427
3.50978
3.23572
3.03209
2.87832
2.76164
2.66758
2.5896
2.51699
2.45031
2.39173
2.3475
2.3164
2.29939
2.29569
2.2987
2.30635
2.323
2.35234
2.38638
2.42248
2.45995
2.49808
2.5366
2.57499
2.61283
2.64963
2.68489
2.71839
2.74956
2.77914
2.8056
2.83077
2.85276
2.87316
2.89078
2.9063
2.91898
2.92932
2.9364
2.94203
2.94624
2.95002
2.95039
2.94747
2.94084
2.9348
2.92576
2.91738
2.9057
2.8944
2.88008
2.86607
2.84965
2.83335
2.81525
2.79704
2.77759
2.75784
2.73727
2.71632
2.69469
2.67285
2.65034
2.62791
2.60495
2.58217
2.55917
2.53628
2.51349
2.49069
2.46826
2.4461
2.42407
2.40253
2.3807
2.35971
2.33838
2.31791
2.29741
2.27757
2.25817
2.23932
2.22124
2.20373
2.18725
2.17156
2.1571
2.14395
2.13218
2.12245
2.11457
2.10911
2.10761
2.10758
2.10862
2.11092
2.1172
2.12417
2.13994
3.93271
3.65893
3.41938
3.22903
3.08548
2.97345
2.88291
2.80242
2.72701
2.65448
2.5892
2.53451
2.49443
2.46848
2.4562
2.45598
2.4604
2.46893
2.48592
2.5149
2.54792
2.58159
2.61603
2.65064
2.6855
2.72025
2.75437
2.78765
2.81918
2.84927
2.87725
2.90314
2.92697
2.94822
2.9676
2.98401
2.99867
3.00982
3.01947
3.02478
3.02948
3.03195
3.03444
3.03331
3.02931
3.02157
3.01383
3.00354
2.99348
2.98101
2.96843
2.95376
2.93877
2.92219
2.90513
2.88689
2.86806
2.8484
2.82803
2.80718
2.78547
2.76359
2.74079
2.71802
2.69461
2.67114
2.64763
2.62385
2.60045
2.57688
2.55389
2.53076
2.50783
2.48519
2.46258
2.44044
2.41833
2.3967
2.37549
2.35446
2.33438
2.31433
2.29554
2.27697
2.25969
2.24306
2.22769
2.21369
2.20094
2.19031
2.18121
2.17495
2.17121
2.17109
2.17161
2.17353
2.17685
2.18648
2.19505
2.21276
4.01907
3.79305
3.59186
3.42431
3.29036
3.1836
3.09144
3.00673
2.92433
2.84503
2.77031
2.70669
2.65484
2.61916
2.59637
2.58762
2.58898
2.59391
2.60187
2.61827
2.64568
2.6761
2.70725
2.738
2.76888
2.79923
2.82949
2.8587
2.88701
2.91389
2.93882
2.96204
2.9829
3.00166
3.01829
3.03266
3.04478
3.05449
3.06229
3.06659
3.07012
3.0722
3.07405
3.07289
3.0688
3.06149
3.05319
3.04284
3.03181
3.01918
3.00574
2.99096
2.97525
2.95851
2.94077
2.92238
2.90307
2.8833
2.86285
2.84183
2.82055
2.79859
2.77671
2.75427
2.73188
2.70925
2.6864
2.66383
2.64085
2.61825
2.59526
2.57249
2.54968
2.52687
2.50454
2.48203
2.46033
2.43849
2.41753
2.39671
2.37667
2.35726
2.33842
2.32079
2.30361
2.28803
2.27328
2.26029
2.24888
2.23929
2.23222
2.22722
2.22637
2.22633
2.22747
2.23033
2.23577
2.24759
2.25622
2.27354
4.10902
3.92811
3.75895
3.61461
3.49216
3.38559
3.28922
3.19621
3.10625
3.01839
2.93748
2.865
2.80605
2.76032
2.72981
2.71126
2.7047
2.70602
2.71041
2.71699
2.73082
2.75449
2.78104
2.80799
2.835
2.86185
2.88821
2.91427
2.9395
2.96388
2.98671
3.00811
3.02755
3.045
3.06035
3.07359
3.08462
3.09352
3.10026
3.10385
3.10631
3.1078
3.10843
3.10652
3.10161
3.09419
3.08509
3.07434
3.06235
3.04921
3.03498
3.01975
3.0035
2.98637
2.96834
2.94955
2.92989
2.90968
2.88862
2.86726
2.84511
2.82279
2.79987
2.77667
2.75335
2.72966
2.70646
2.6827
2.6596
2.63603
2.61298
2.58976
2.56678
2.54403
2.52136
2.49924
2.47717
2.45583
2.43469
2.41432
2.3945
2.37535
2.35729
2.33972
2.32375
2.30856
2.29524
2.2833
2.27336
2.26567
2.26019
2.25815
2.2579
2.25879
2.26077
2.26658
2.27496
2.28795
2.29718
2.31424
4.20958
4.0661
3.92585
3.7966
3.67973
3.57066
3.46666
3.36621
3.26836
3.17563
3.08916
3.013
2.94734
2.89598
2.85608
2.83024
2.81324
2.80678
2.80463
2.80857
2.81274
2.82253
2.84063
2.86214
2.88521
2.90861
2.93143
2.95448
2.97654
2.99837
3.01885
3.03819
3.05597
3.07169
3.08572
3.09758
3.10756
3.11546
3.12126
3.12418
3.12599
3.12715
3.12746
3.12529
3.12063
3.11347
3.10466
3.09415
3.08197
3.06895
3.05439
3.03931
3.02307
3.00604
2.98844
2.96958
2.95069
2.93037
2.91017
2.88882
2.86731
2.84528
2.82268
2.80027
2.77727
2.75476
2.73162
2.70901
2.68594
2.66324
2.64043
2.61771
2.5953
2.57271
2.55082
2.52869
2.50745
2.4862
2.46584
2.44587
2.42667
2.40839
2.39074
2.37445
2.35901
2.34543
2.33311
2.32295
2.31487
2.30908
2.30633
2.30597
2.30657
2.30849
2.31206
2.32189
2.3317
2.34482
2.35332
2.36895
4.32876
4.21098
4.08987
3.96819
3.85026
3.73485
3.62302
3.51481
3.412
3.31578
3.2275
3.14858
3.08051
3.02317
2.97819
2.94307
2.91826
2.90143
2.89179
2.88648
2.88711
2.89031
2.89556
2.90644
2.92415
2.94269
2.96249
2.98227
3.00211
3.02152
3.03973
3.05751
3.07321
3.08809
3.10078
3.11211
3.12129
3.12861
3.13412
3.13643
3.13782
3.13883
3.1385
3.13639
3.1314
3.12462
3.11592
3.1054
3.09345
3.08002
3.06554
3.05017
3.0337
3.0168
2.9986
2.98025
2.96058
2.94078
2.91994
2.89879
2.87708
2.85486
2.83274
2.81005
2.78771
2.76479
2.74225
2.71927
2.6966
2.67382
2.65117
2.62881
2.60635
2.58448
2.56246
2.5412
2.51997
2.49957
2.47958
2.46037
2.44212
2.4245
2.40828
2.3929
2.37943
2.36714
2.35713
2.349
2.34335
2.34037
2.34004
2.34057
2.3422
2.34657
2.35421
2.36544
2.3754
2.3875
2.39444
2.40794
4.46042
4.35596
4.24196
4.12142
3.99878
3.87785
3.75982
3.64876
3.54396
3.44645
3.35787
3.27782
3.20813
3.14691
3.09644
3.05378
3.02083
2.99461
2.97638
2.96257
2.95528
2.95013
2.95253
2.95516
2.96062
2.97116
2.98731
3.00195
3.01909
3.03595
3.05271
3.0684
3.08283
3.09641
3.10828
3.11888
3.12776
3.1348
3.14015
3.14233
3.14391
3.14472
3.14452
3.1423
3.13742
3.13111
3.12255
3.1127
3.10102
3.08799
3.074
3.05856
3.0428
3.02562
3.00823
2.98974
2.97077
2.95115
2.93069
2.90998
2.88834
2.86691
2.84471
2.82278
2.8003
2.77793
2.75535
2.73267
2.7102
2.68744
2.66525
2.6427
2.6209
2.59888
2.57754
2.55642
2.53581
2.51598
2.49656
2.47848
2.46085
2.44473
2.42947
2.41599
2.40404
2.39391
2.38608
2.38038
2.37733
2.37683
2.37724
2.37885
2.38213
2.39099
2.40028
2.41135
2.42046
2.43058
2.4355
2.44686
4.60219
4.49854
4.38147
4.25514
4.12664
4.00012
3.87965
3.76611
3.66228
3.56617
3.47969
3.4002
3.3296
3.26593
3.21052
3.16217
3.1216
3.08771
3.06051
3.03871
3.02242
3.00981
3.00307
2.99874
3.00118
3.00356
3.00907
3.02009
3.03107
3.04595
3.06069
3.07481
3.08793
3.10037
3.11132
3.12138
3.12976
3.13655
3.14164
3.14404
3.14542
3.14603
3.14585
3.14338
3.13896
3.13262
3.12452
3.11502
3.10347
3.09102
3.07675
3.06188
3.04578
3.02896
3.01155
2.99313
2.9746
2.95479
2.93507
2.91413
2.89349
2.87195
2.8506
2.82874
2.80681
2.78483
2.76254
2.74058
2.71824
2.69642
2.67434
2.65274
2.63119
2.60996
2.5892
2.56864
2.549
2.5296
2.51153
2.49402
2.47786
2.46272
2.44933
2.43754
2.42765
2.42003
2.41463
2.41186
2.41147
2.41198
2.41358
2.41819
2.42606
2.43644
2.44607
2.45612
2.46369
2.4716
2.47451
2.4838
4.74059
4.63127
4.50708
4.3753
4.24318
4.11489
3.99453
3.88186
3.77949
3.68495
3.59932
3.52023
3.44824
3.38202
3.3222
3.26796
3.22034
3.17864
3.14305
3.11317
3.08864
3.06953
3.05466
3.04435
3.0382
3.0355
3.03766
3.04098
3.04612
3.05573
3.06638
3.07823
3.08968
3.10086
3.11095
3.12016
3.12798
3.13449
3.13949
3.14212
3.14335
3.14436
3.14421
3.14228
3.13831
3.13219
3.12485
3.11543
3.10477
3.09248
3.07885
3.06432
3.04838
3.03209
3.01446
2.99669
2.97777
2.9586
2.93865
2.91844
2.89787
2.8769
2.85588
2.83432
2.81299
2.79108
2.76954
2.74761
2.72598
2.70435
2.6828
2.66171
2.64053
2.62019
2.59977
2.58045
2.5613
2.5434
2.52626
2.51012
2.49535
2.48193
2.47055
2.46072
2.45349
2.44825
2.44585
2.44554
2.44607
2.44802
2.45257
2.46147
2.47091
2.4812
2.48987
2.49802
2.50369
2.50892
2.51027
2.5174
4.87399
4.75409
4.61976
4.48227
4.34747
4.21989
4.10156
3.9925
3.89259
3.80057
3.71564
3.63652
3.56279
3.49405
3.43008
3.37149
3.31776
3.27
3.22751
3.19106
3.1594
3.1333
3.11135
3.09437
3.08112
3.07221
3.06684
3.06453
3.06642
3.06935
3.07314
3.08075
3.09005
3.09927
3.10861
3.1169
3.12433
3.13052
3.13545
3.13794
3.13925
3.14032
3.14005
3.13864
3.1346
3.12911
3.12205
3.11326
3.10339
3.09154
3.07895
3.06456
3.04953
3.03318
3.01614
2.99831
2.97965
2.96067
2.94092
2.92123
2.90078
2.8805
2.85957
2.83877
2.81762
2.79643
2.77527
2.75388
2.73291
2.71163
2.69101
2.6702
2.65015
2.63023
2.61103
2.59247
2.57457
2.55802
2.54192
2.52764
2.51432
2.50343
2.49384
2.48711
2.48217
2.48038
2.48024
2.48087
2.48282
2.48861
2.49759
2.50746
2.51691
2.52605
2.53275
2.53886
2.54218
2.54482
2.5461
2.5507
4.98842
4.85603
4.71711
4.57928
4.447
4.32313
4.20895
4.10342
4.00641
3.91578
3.83113
3.75134
3.6757
3.60452
3.53712
3.47436
3.41599
3.36254
3.31437
3.27118
3.23304
3.19979
3.17118
3.14699
3.12722
3.1112
3.09938
3.09074
3.08608
3.08443
3.08504
3.0877
3.09133
3.09742
3.10502
3.11216
3.11891
3.12459
3.12927
3.13156
3.13303
3.1338
3.13369
3.1324
3.12838
3.12347
3.11642
3.10866
3.09892
3.08817
3.07588
3.06228
3.04773
3.03177
3.01537
2.99762
2.97973
2.96086
2.94199
2.92251
2.90281
2.88289
2.8625
2.84225
2.82142
2.80094
2.77995
2.75938
2.7386
2.71813
2.69795
2.67792
2.6587
2.63958
2.62172
2.60407
2.58811
2.57251
2.55871
2.54585
2.5354
2.5264
2.52012
2.5156
2.51463
2.51459
2.51552
2.518
2.52525
2.53419
2.54455
2.55354
2.56254
2.56894
2.57441
2.57734
2.5794
2.58017
2.58068
2.58339
5.09687
4.95077
4.80759
4.67171
4.54443
4.42626
4.31703
4.21528
4.12022
4.03071
3.94554
3.86468
3.78712
3.71321
3.64292
3.57614
3.51373
3.45537
3.40187
3.35297
3.30871
3.26936
3.23435
3.2039
3.17753
3.15525
3.13685
3.12217
3.11123
3.10343
3.09935
3.09604
3.09627
3.09863
3.10114
3.10511
3.11025
3.11488
3.11896
3.12123
3.12295
3.12355
3.12405
3.12256
3.11935
3.1145
3.10835
3.10104
3.09195
3.08194
3.07002
3.05739
3.04303
3.0281
3.01186
2.99503
2.97751
2.95945
2.9412
2.92229
2.90343
2.88389
2.86444
2.84452
2.82455
2.80452
2.7842
2.76433
2.74405
2.7246
2.70483
2.68611
2.6674
2.64987
2.63278
2.61705
2.60234
2.5887
2.57673
2.5666
2.55844
2.5527
2.54887
2.54853
2.54857
2.54998
2.55324
2.56176
2.57099
2.58156
2.59073
2.59921
2.60592
2.61032
2.61318
2.61435
2.61464
2.61444
2.61335
2.61567
5.18054
5.02899
4.88918
4.75975
4.64074
4.52915
4.4251
4.32651
4.2331
4.14368
4.05789
3.97538
3.89588
3.81962
3.74644
3.67674
3.61046
3.54828
3.49027
3.43643
3.38702
3.34204
3.30125
3.26465
3.23217
3.2035
3.17871
3.15772
3.14029
3.12616
3.11603
3.10782
3.10205
3.09939
3.09819
3.09967
3.10117
3.1037
3.10629
3.10863
3.10985
3.11073
3.11095
3.10929
3.10657
3.102
3.09677
3.08973
3.08176
3.07216
3.06133
3.04928
3.03584
3.02163
3.00605
2.99007
2.97307
2.95586
2.93798
2.91983
2.90141
2.88252
2.86376
2.84437
2.82537
2.80583
2.78674
2.76741
2.7485
2.72979
2.71145
2.69383
2.67657
2.66054
2.64512
2.63145
2.61825
2.60716
2.59755
2.59032
2.58512
2.58251
2.58224
2.58258
2.5847
2.58943
2.59849
2.60824
2.61884
2.62832
2.63627
2.64322
2.64699
2.64975
2.65021
2.65026
2.64999
2.64839
2.64441
2.64549
5.2412
5.09128
4.96157
4.84369
4.73433
4.63065
4.53146
4.43578
4.34341
4.25419
4.16759
4.08374
4.00237
3.92381
3.84813
3.7756
3.70646
3.64052
3.57847
3.52024
3.46616
3.41585
3.3697
3.32728
3.28885
3.25412
3.22332
3.19595
3.17215
3.15187
3.13505
3.12204
3.11076
3.10219
3.09686
3.09341
3.09177
3.09143
3.09162
3.09258
3.09256
3.0928
3.09176
3.09031
3.08747
3.08359
3.07866
3.0722
3.06493
3.05584
3.0461
3.03462
3.02245
3.00888
2.99448
2.97932
2.96326
2.947
2.92984
2.91273
2.89491
2.87709
2.85897
2.84062
2.82253
2.80395
2.78612
2.76775
2.7504
2.73274
2.71623
2.69977
2.68473
2.67009
2.65748
2.6451
2.635
2.62622
2.6202
2.61566
2.61461
2.61454
2.61532
2.6184
2.62518
2.63502
2.64527
2.65578
2.66547
2.67311
2.68021
2.6837
2.68623
2.68639
2.68631
2.68558
2.68386
2.67989
2.67329
2.67335
5.26695
5.12885
5.01549
4.91362
4.8169
4.72211
4.62845
4.53595
4.44471
4.35538
4.26837
4.18365
4.10157
4.0219
3.94486
3.87031
3.79868
3.72978
3.66445
3.60244
3.54411
3.48924
3.43798
3.39043
3.34619
3.30591
3.26871
3.23545
3.20555
3.17936
3.15627
3.13689
3.12059
3.10566
3.09468
3.08611
3.08038
3.07591
3.07324
3.07112
3.06955
3.06803
3.06604
3.06402
3.06081
3.05742
3.05243
3.04703
3.04004
3.03231
3.02331
3.01317
3.00218
2.98982
2.97695
2.96287
2.94845
2.93319
2.91742
2.90141
2.8846
2.86817
2.85079
2.83413
2.81664
2.79996
2.78276
2.76642
2.74991
2.7344
2.71911
2.70508
2.69165
2.68009
2.66901
2.65997
2.65241
2.6476
2.64438
2.64427
2.64471
2.64634
2.65118
2.65957
2.67015
2.68103
2.69148
2.70155
2.70887
2.71595
2.7193
2.72145
2.72155
2.72133
2.72053
2.71815
2.71368
2.70828
2.7004
2.69933
5.2729
5.15824
5.06456
4.97674
4.88913
4.80108
4.71208
4.62333
4.53494
4.44735
4.36104
4.27627
4.19317
4.11236
4.03355
3.95765
3.88398
3.81325
3.7452
3.68011
3.61783
3.55864
3.50276
3.45016
3.40101
3.35535
3.31291
3.27411
3.23832
3.20595
3.1768
3.15077
3.12848
3.10926
3.09169
3.07813
3.06708
3.05849
3.05158
3.04618
3.04212
3.03848
3.03571
3.03255
3.02982
3.02619
3.02232
3.01743
3.01165
3.00499
2.99697
2.98821
2.97804
2.9672
2.95526
2.9425
2.92924
2.91495
2.90061
2.88524
2.87014
2.85423
2.83876
2.82275
2.80725
2.79154
2.77638
2.76141
2.74704
2.73333
2.72038
2.7085
2.69806
2.68858
2.68064
2.67467
2.67079
2.66956
2.66978
2.6709
2.67371
2.6811
2.69064
2.70176
2.71336
2.72372
2.73414
2.74127
2.74831
2.75165
2.75362
2.7537
2.75344
2.75234
2.74998
2.74509
2.73911
2.73264
2.7239
2.72193
5.25714
5.16808
5.09387
5.02044
4.94288
4.86292
4.78041
4.69651
4.61165
4.52634
4.44131
4.35711
4.27422
4.19296
4.11352
4.03603
3.96054
3.88739
3.81662
3.74865
3.68376
3.62166
3.56275
3.50652
3.4535
3.40316
3.35589
3.31146
3.26998
3.23147
3.19614
3.16387
3.13494
3.10973
3.08677
3.0671
3.05068
3.03705
3.02624
3.01773
3.01085
3.0055
3.00089
2.99705
2.99333
2.98956
2.98555
2.98078
2.97558
2.96922
2.96226
2.9542
2.94529
2.93563
2.92493
2.91382
2.90159
2.88914
2.87578
2.86232
2.84829
2.8343
2.82004
2.80598
2.79194
2.77827
2.7649
2.75213
2.73995
2.72867
2.71835
2.70945
2.70175
2.69527
2.69098
2.68876
2.68894
2.68997
2.69241
2.69743
2.70685
2.71789
2.72942
2.74172
2.75198
2.76268
2.76996
2.77695
2.78039
2.7823
2.78239
2.78213
2.78097
2.77826
2.7736
2.76736
2.76035
2.75303
2.74362
2.74085
5.24831
5.17427
5.10949
5.04327
4.97324
4.89937
4.82282
4.74401
4.6637
4.58259
4.50087
4.41928
4.33815
4.25787
4.17893
4.10141
4.02588
3.95203
3.88047
3.81096
3.74375
3.67859
3.61556
3.55503
3.49682
3.44136
3.38865
3.33875
3.29184
3.2481
3.2074
3.17023
3.13636
3.10577
3.07932
3.05408
3.03281
3.01447
2.99902
2.98603
2.97541
2.96683
2.95974
2.95402
2.94888
2.94436
2.93976
2.93511
2.93003
2.92438
2.91819
2.91116
2.90358
2.8951
2.88611
2.87631
2.8659
2.85492
2.84338
2.83156
2.81938
2.80715
2.79482
2.78269
2.77075
2.75923
2.74824
2.73791
2.7285
2.72002
2.71303
2.70725
2.70295
2.70002
2.70068
2.7014
2.70359
2.70773
2.71634
2.72669
2.73928
2.75128
2.76453
2.77507
2.78601
2.79359
2.80062
2.80433
2.8062
2.80652
2.80623
2.80517
2.80244
2.7976
2.79162
2.78441
2.77666
2.76856
2.75862
2.75516
5.23487
5.16649
5.10679
5.04579
4.98111
4.91276
4.84101
4.76698
4.69123
4.61426
4.53681
4.45873
4.38092
4.30319
4.22606
4.14959
4.07386
3.99911
3.92556
3.85379
3.78399
3.716
3.65057
3.58718
3.52642
3.46801
3.41199
3.3588
3.30794
3.26032
3.21521
3.17355
3.13456
3.09897
3.06648
3.03714
3.01029
2.98693
2.96707
2.94994
2.93579
2.92397
2.91418
2.90614
2.89912
2.8932
2.88756
2.88241
2.87714
2.87184
2.86628
2.86022
2.85391
2.84682
2.83951
2.83137
2.82292
2.81383
2.8043
2.79454
2.78426
2.77428
2.76379
2.75414
2.7441
2.73542
2.72652
2.71948
2.71252
2.70786
2.70394
2.70183
2.70138
2.70327
2.70534
2.70944
2.71681
2.72773
2.73939
2.75351
2.76605
2.77998
2.79111
2.80237
2.81032
2.81755
2.82146
2.82354
2.8238
2.82383
2.82263
2.82002
2.81532
2.80927
2.80249
2.79452
2.78619
2.77748
2.76707
2.76311
5.22548
5.1568
5.09942
5.04203
4.98051
4.91537
4.84665
4.77583
4.70323
4.62948
4.55468
4.47908
4.40282
4.32637
4.2498
4.17384
4.09836
4.02401
3.95073
3.87893
3.80889
3.74049
3.67378
3.60877
3.54558
3.48436
3.42547
3.3689
3.31491
3.26374
3.21495
3.16942
3.12624
3.08663
3.04961
3.01653
2.98564
2.958
2.93368
2.91208
2.89361
2.87749
2.86396
2.85258
2.84296
2.83517
2.82822
2.82266
2.81711
2.81239
2.80721
2.8022
2.7968
2.79088
2.78502
2.77808
2.77163
2.76394
2.75695
2.74886