/*--------------------------------*- C++ -*----------------------------------*\
  =========                 |
  \\      /  F ield         | OpenFOAM: The Open Source CFD Toolbox
   \\    /   O peration     | Website:  https://openfoam.org
    \\  /    A nd           | Version:  9
     \\/     M anipulation  |
\*---------------------------------------------------------------------------*/
FoamFile
{
    format      ascii;
    class       volScalarField;
    location    "10";
    object      T;
}
// * * * * * * * * * * * * * * * * * * * * * * * * * * * * * * * * * * * * * //

dimensions      [0 0 0 1 0 0 0];

internalField   nonuniform List<scalar> 
5250
(
1.00001
1.00002
1.00005
1.00016
1.00034
1.00095
1.00211
1.00568
1.01332
1.03472
1.08708
1.23476
1.62587
2.40025
2.72746
2.73981
2.73572
2.73907
2.75092
2.76665
2.77872
2.78695
2.79366
2.79846
2.80136
1.00001
1.00002
1.00006
1.00015
1.00036
1.00088
1.00224
1.00529
1.01391
1.03315
1.0877
1.23068
1.62011
2.39171
2.72445
2.73911
2.73494
2.73816
2.74995
2.76559
2.77761
2.78582
2.79249
2.79722
2.79997
1.00001
1.00002
1.00006
1.00014
1.00034
1.00091
1.00204
1.00563
1.0125
1.03438
1.08313
1.22751
1.60377
2.37304
2.71741
2.73759
2.73316
2.73587
2.74734
2.76274
2.7745
2.78282
2.78887
2.79366
2.79668
1.00001
1.00002
1.00005
1.00015
1.00031
1.0009
1.00198
1.00532
1.01244
1.0325
1.08109
1.21858
1.58263
2.34284
2.70622
2.73558
2.73054
2.73228
2.74318
2.75817
2.76958
2.77746
2.7839
2.7879
2.79042
1.00001
1.00002
1.00006
1.00012
1.00034
1.00077
1.00202
1.00487
1.01214
1.03056
1.07783
1.20669
1.55518
2.29945
2.69051
2.73303
2.727
2.72729
2.73749
2.75171
2.76293
2.76997
2.77606
2.78017
2.78244
1.00001
1.00002
1.00004
1.00014
1.00027
1.00083
1.00171
1.0049
1.01089
1.02944
1.07179
1.19461
1.51791
2.24297
2.6689
2.73004
2.72244
2.72071
2.7302
2.74337
2.75423
2.76065
2.76536
2.76876
2.77055
1.00001
1.00002
1.00005
1.00011
1.0003
1.00064
1.00187
1.0039
1.0113
1.02505
1.06884
1.1752
1.4778
2.16633
2.64056
2.72627
2.71659
2.71225
2.72088
2.73285
2.74239
2.74834
2.75198
2.75371
2.75394
1
1.00001
1.00004
1.0001
1.00027
1.00059
1.00167
1.00355
1.01019
1.02259
1.06196
1.15672
1.4278
2.07019
2.60329
2.72066
2.70861
2.70168
2.70936
2.72062
2.72844
2.73212
2.73357
2.73234
2.7283
1
1.00001
1.00003
1.0001
1.00021
1.00057
1.00136
1.00338
1.00848
1.02073
1.05316
1.138
1.37074
1.95311
2.5555
2.71062
2.69634
2.68719
2.69413
2.70417
2.71091
2.71242
2.71
2.70247
2.68669
1
1.00001
1.00003
1.00009
1.00018
1.00053
1.00107
1.00319
1.00675
1.01884
1.04397
1.11879
1.31083
1.81552
2.49531
2.69261
2.67767
2.66855
2.67498
2.68379
2.6887
2.68749
2.67816
2.65553
2.59833
1
1.00001
1.00003
1.00007
1.00016
1.00044
1.00096
1.00271
1.00577
1.01638
1.03712
1.10121
1.26188
1.69541
2.42818
2.67085
2.65784
2.64891
2.6525
2.65996
2.66317
2.65787
2.63795
2.59045
2.48516
1
1.00001
1.00003
1.00005
1.00016
1.00032
1.00097
1.00201
1.00574
1.01275
1.0344
1.0843
1.22822
1.60313
2.34363
2.63974
2.64319
2.635
2.63236
2.63557
2.635
2.62422
2.59459
2.5326
2.42194
1
1.00001
1.00002
1.00005
1.00012
1.00031
1.00077
1.00183
1.0048
1.01102
1.02962
1.0717
1.19434
1.51503
2.22107
2.59207
2.63364
2.62413
2.61683
2.61395
2.60811
2.59135
2.55651
2.4954
2.40253
1
1.00001
1.00002
1.00004
1.00011
1.00024
1.00068
1.00152
1.00401
1.00951
1.0243
1.06076
1.16075
1.42881
2.06706
2.52954
2.62318
2.6138
2.60201
2.59427
2.5823
2.56252
2.52602
2.47183
2.39467
1
1.00001
1.00001
1.00004
1.00009
1.00021
1.00054
1.00125
1.00336
1.00745
1.02057
1.04798
1.13004
1.3419
1.88404
2.44744
2.60372
2.59781
2.586
2.57319
2.56048
2.53855
2.5044
2.45451
2.39066
1
1
1.00001
1.00003
1.00006
1.00018
1.00039
1.00108
1.00243
1.00635
1.01516
1.03869
1.09775
1.25938
1.67522
2.34326
2.56763
2.57167
2.56309
2.55029
2.536
2.51697
2.48633
2.44286
2.38739
1
1
1.00001
1.00002
1.00006
1.00012
1.00037
1.00076
1.00217
1.00473
1.01279
1.02998
1.0793
1.2044
1.54584
2.22998
2.52761
2.54981
2.54039
2.52934
2.51657
2.49645
2.47133
2.434
2.38731
1
1
1.00001
1.00002
1.00004
1.00011
1.00027
1.00063
1.0017
1.00372
1.0104
1.02324
1.06346
1.15934
1.43167
2.05124
2.45562
2.53112
2.52452
2.51203
2.49971
2.48203
2.45827
2.4285
2.3889
1
1
1.00001
1.00001
1.00003
1.00009
1.0002
1.00054
1.00117
1.0033
1.00705
1.01985
1.04551
1.12399
1.3223
1.83416
2.35795
2.50522
2.50878
2.49964
2.48548
2.46959
2.44941
2.42323
2.39292
1
1
1
1.00001
1.00003
1.00006
1.00017
1.00035
1.00103
1.00208
1.00609
1.01306
1.03587
1.08621
1.23148
1.59951
2.22976
2.46275
2.48705
2.48237
2.47122
2.45856
2.44171
2.42239
2.40016
1
1
1
1.00001
1.00002
1.00005
1.00012
1.00028
1.00075
1.00164
1.00456
1.0099
1.02739
1.06436
1.17436
1.45415
2.07413
2.41102
2.47022
2.46729
2.4579
2.44766
2.43606
2.42409
2.40948
1
1
1
1.00001
1.00001
1.00004
1.00008
1.00022
1.00053
1.0013
1.00325
1.00766
1.02004
1.04804
1.12735
1.33398
1.85067
2.31847
2.44726
2.45599
2.45093
2.44223
2.43619
2.43113
2.4222
1
1
1
1
1.00001
1.00003
1.00006
1.00017
1.00037
1.00096
1.00229
1.0056
1.01403
1.0342
1.0877
1.22759
1.59236
2.1881
2.40839
2.44069
2.44479
2.44304
2.44125
2.43945
2.43405
1
1
1
1
1.00001
1.00002
1.00004
1.00012
1.00028
1.0007
1.0017
1.0041
1.01041
1.02493
1.06447
1.1651
1.43714
2.02763
2.36413
2.43425
2.44635
2.44939
2.4512
2.45043
2.44547
1
1
1
1
1.00001
1.00002
1.00003
1.00009
1.00019
1.00054
1.00118
1.00312
1.00735
1.01856
1.04603
1.11906
1.31254
1.79514
2.2822
2.42974
2.45441
2.46008
2.46202
2.46072
2.45372
1
1
1
1
1
1.00001
1.00002
1.00007
1.00014
1.0004
1.00081
1.0024
1.0049
1.01408
1.03137
1.08496
1.2142
1.56513
2.16292
2.41886
2.46668
2.47377
2.47811
2.47453
2.46356
1
1
1
1
1
1.00001
1.00002
1.00004
1.00011
1.00027
1.00066
1.00167
1.00388
1.01027
1.02378
1.06316
1.15966
1.42691
2.01339
2.39783
2.49085
2.49644
2.49401
2.48396
2.46616
1
1
1
1
1
1.00001
1.00002
1.00003
1.00009
1.00019
1.00053
1.00118
1.0031
1.00734
1.0185
1.04608
1.11921
1.31379
1.79666
2.34909
2.52481
2.53112
2.52069
2.50021
2.47388
1
1
1
1
1
1
1.00001
1.00002
1.00007
1.00015
1.00043
1.00086
1.00258
1.0053
1.01518
1.0343
1.09295
1.23746
1.62785
2.28377
2.55102
2.56524
2.54669
2.51477
2.48201
1
1
1
1
1
1
1.00001
1.00002
1.00005
1.00013
1.00033
1.00074
1.00207
1.00443
1.01262
1.02822
1.07732
1.19713
1.53159
2.20756
2.57633
2.61205
2.58598
2.54506
2.50059
1
1
1
1
1
1
1.00001
1.00002
1.00004
1.00011
1.00028
1.00063
1.00174
1.00375
1.01066
1.02383
1.06539
1.16578
1.45193
2.08871
2.57671
2.65708
2.62469
2.57424
2.52393
1
1
1
1
1
1
1.00001
1.00002
1.00003
1.0001
1.00021
1.00062
1.00126
1.00374
1.008
1.02233
1.0529
1.14408
1.38153
1.96097
2.56784
2.69518
2.65603
2.60016
2.552
1
1
1
1
1
1
1.00001
1.00001
1.00003
1.00008
1.00021
1.00046
1.0013
1.00275
1.00798
1.01735
1.04847
1.1194
1.32819
1.83158
2.54877
2.71984
2.67686
2.61964
2.57624
1
1
1
1
1
1
1.00001
1.00001
1.00003
1.00007
1.00018
1.00044
1.00106
1.00276
1.00636
1.01714
1.04044
1.10859
1.28604
1.75196
2.50642
2.72758
2.6869
2.63662
2.60037
1
1
1
1
1
1
1
1.00001
1.00003
1.00007
1.00016
1.00042
1.00094
1.00261
1.00568
1.016
1.03666
1.10001
1.26127
1.7025
2.46656
2.73273
2.70353
2.66045
2.62466
1
1
1
1
1
1
1
1.00001
1.00002
1.00006
1.00014
1.0004
1.00086
1.00245
1.00525
1.01493
1.03401
1.09291
1.24205
1.65741
2.41898
2.72475
2.70981
2.67846
2.64316
1
1
1
1
1
1
1
1.00001
1.00003
1.00005
1.00015
1.00033
1.00089
1.0021
1.00529
1.0132
1.03292
1.08504
1.22698
1.61012
2.36317
2.71385
2.71873
2.69134
2.65639
1
1
1
1
1
1
1
1.00001
1.00002
1.00006
1.00013
1.00033
1.00081
1.00196
1.00508
1.01196
1.03168
1.07849
1.21265
1.56906
2.30979
2.70342
2.72645
2.70013
2.6657
1
1
1
1
1
1
1
1.00001
1.00002
1.00005
1.00013
1.00029
1.0008
1.00179
1.00478
1.01135
1.02938
1.07392
1.19879
1.53339
2.25402
2.69349
2.73449
2.70699
2.6711
1
1
1
1
1
1
1
1.00001
1.00002
1.00005
1.00011
1.00029
1.00071
1.00175
1.00442
1.01065
1.02768
1.06919
1.1858
1.50078
2.1966
2.68487
2.743
2.71241
2.67452
1
1
1
1
1
1
1
1.00001
1.00002
1.00005
1.0001
1.0003
1.00059
1.00181
1.00373
1.01082
1.02448
1.06687
1.17161
1.47128
2.13835
2.67737
2.75225
2.71803
2.67657
1
1
1
1
1
1
1
1.00001
1.00002
1.00004
1.0001
1.00025
1.00063
1.00151
1.00395
1.00921
1.02468
1.06021
1.1632
1.43951
2.08182
2.67164
2.76154
2.72281
2.67756
1
1
1
1
1
1
1
1.00001
1.00002
1.00004
1.0001
1.00022
1.00064
1.0013
1.00394
1.00829
1.0236
1.05591
1.15353
1.41118
2.02692
2.66601
2.76998
2.72674
2.67853
1
1
1
1
1
1
1
1.00001
1.00001
1.00004
1.00008
1.00023
1.00054
1.00136
1.00342
1.00823
1.02164
1.05323
1.14302
1.38696
1.97211
2.66036
2.77818
2.73068
2.67888
1
1
1
1
1
1
1
1.00001
1.00001
1.00003
1.00009
1.0002
1.00054
1.00121
1.00342
1.00744
1.02105
1.0493
1.13571
1.36303
1.92273
2.65599
2.78466
2.73259
2.67846
1
1
1
1
1
1
1
1
1.00001
1.00003
1.00009
1.00018
1.00054
1.00113
1.00325
1.00721
1.01966
1.04737
1.12809
1.34325
1.88326
2.648
2.78752
2.7334
2.67963
1
1
1
1
1
1
1
1.00001
1.00001
1.00003
1.00008
1.00018
1.00051
1.00109
1.00318
1.00677
1.01927
1.04478
1.12305
1.32649
1.85502
2.62947
2.78821
2.73547
2.68317
1
1
1
1
1
1
1
1.00001
1.00001
1.00003
1.00007
1.00021
1.00042
1.00128
1.00258
1.00771
1.01666
1.04659
1.11511
1.31777
1.83153
2.60511
2.78922
2.73834
2.68694
1
1
1
1
1
1
1
1.00001
1.00001
1.00003
1.00007
1.0002
1.00044
1.00118
1.00278
1.00705
1.0175
1.04421
1.11489
1.30966
1.81851
2.58612
2.79143
2.74111
2.69
1
1
1
1
1
1
1
1
1.00001
1.00003
1.00008
1.00018
1.00047
1.00113
1.00279
1.00706
1.01715
1.04428
1.11379
1.30668
1.81358
2.57967
2.79144
2.74203
2.69157
2.35736
2.49264
2.77612
3.04905
3.05554
3.0138
3.00125
2.99521
2.98748
2.97699
2.96803
2.96488
2.96422
2.96389
2.96376
2.96548
2.96919
2.97451
2.98058
2.98781
2.99396
3.00116
3.00665
3.01206
3.01634
3.02015
3.02215
3.02345
3.02386
3.02269
3.01985
3.01773
3.01675
3.01509
3.01275
3.0087
3.00395
2.99688
2.99291
2.98509
2.9797
2.9706
2.96379
2.95419
2.94596
2.93588
2.92821
2.91736
2.90804
2.89777
2.88772
2.87712
2.86726
2.85583
2.84599
2.8341
2.82377
2.81186
2.80146
2.78981
2.77881
2.76765
2.75622
2.74532
2.7339
2.72287
2.71171
2.70053
2.68962
2.6786
2.66789
2.65718
2.64669
2.63628
2.62604
2.61591
2.60595
2.59611
2.58649
2.57702
2.56775
2.55882
2.54985
2.54158
2.53307
2.52549
2.51775
2.51091
2.50424
2.49842
2.4931
2.48885
2.4852
2.48317
2.48199
2.48169
2.4817
2.48195
2.48226
2.47986
2.37332
2.46514
2.61717
2.81156
2.98937
3.03117
3.11603
3.19205
3.19212
3.18254
3.17601
3.17481
3.17321
3.17076
3.16707
3.16142
3.1545
3.14468
3.13246
3.12061
3.11077
3.1061
3.101
3.09391
3.08596
3.07702
3.06729
3.0555
3.04487
3.03295
3.02165
3.01077
2.99797
2.98665
2.9733
2.96154
2.94735
2.93589
2.92269
2.90999
2.8968
2.88485
2.871
2.85884
2.84483
2.83269
2.81946
2.80665
2.79425
2.78127
2.76894
2.75599
2.74384
2.73115
2.71904
2.7068
2.69454
2.68274
2.67041
2.65881
2.64672
2.6351
2.62343
2.61179
2.60048
2.58903
2.57802
2.56693
2.55618
2.5455
2.53501
2.52472
2.51449
2.50458
2.49469
2.48516
2.47564
2.46656
2.4574
2.44884
2.44004
2.432
2.42366
2.41609
2.40843
2.40135
2.39458
2.38819
2.38243
2.37719
2.37259
2.36895
2.36601
2.36431
2.36383
2.36385
2.36401
2.36444
2.36551
2.36309
2.3643
2.39107
2.4705
2.52658
2.62667
2.76594
2.85599
2.99631
3.08627
3.13522
3.1616
3.1767
3.1829
3.18968
3.20218
3.20068
3.19425
3.17794
3.15522
3.13178
3.10998
3.0891
3.0674
3.04495
3.02164
2.99729
2.97313
2.94987
2.92626
2.90374
2.88234
2.86104
2.84128
2.82191
2.80347
2.78636
2.76894
2.75351
2.73698
2.72251
2.70784
2.69428
2.68049
2.66662
2.65282
2.63993
2.62687
2.6147
2.602
2.59039
2.57793
2.56706
2.55482
2.54464
2.53267
2.52295
2.51132
2.50181
2.49056
2.48118
2.47031
2.46111
2.4505
2.44151
2.43105
2.42226
2.41192
2.4033
2.39317
2.38474
2.3749
2.36667
2.35721
2.34911
2.34011
2.33213
2.32359
2.31582
2.30774
2.30027
2.29261
2.28548
2.27833
2.2715
2.26495
2.25861
2.25262
2.24715
2.24186
2.23753
2.23339
2.23029
2.22792
2.22643
2.22629
2.22635
2.22654
2.22704
2.2285
2.22591
2.3451
2.33713
2.36534
2.40305
2.44989
2.5144
2.58512
2.6483
2.72031
2.78827
2.83769
2.88343
2.90796
2.92844
2.93698
2.93604
2.93194
2.92157
2.9077
2.88811
2.86685
2.84345
2.82195
2.79825
2.77453
2.75056
2.727
2.70476
2.68359
2.66481
2.6472
2.63198
2.61716
2.60428
2.59198
2.58018
2.56926
2.55823
2.54809
2.53779
2.52841
2.51919
2.51032
2.50067
2.49113
2.48174
2.47257
2.46378
2.45467
2.44626
2.43711
2.42892
2.41979
2.41165
2.40257
2.39432
2.38529
2.37686
2.36786
2.35933
2.35041
2.34187
2.33307
2.32463
2.31594
2.30768
2.29911
2.29106
2.28266
2.2748
2.26664
2.25897
2.2511
2.24364
2.23603
2.22888
2.22151
2.21463
2.20758
2.20084
2.19417
2.18764
2.18139
2.1753
2.16943
2.16401
2.15873
2.15398
2.14971
2.14573
2.14275
2.14024
2.13858
2.13831
2.13854
2.13907
2.14019
2.14121
2.1443
2.14276
2.33617
2.30896
2.30937
2.32885
2.35558
2.39241
2.43146
2.47135
2.50112
2.53171
2.55063
2.57114
2.58214
2.59187
2.59465
2.59281
2.58971
2.5849
2.58097
2.57342
2.56473
2.55566
2.54541
2.53574
2.52655
2.51829
2.51054
2.5036
2.49715
2.49109
2.48574
2.47987
2.47547
2.47006
2.46551
2.46016
2.4556
2.44986
2.44481
2.43867
2.43362
2.428
2.42285
2.41658
2.41027
2.40388
2.39755
2.39136
2.38476
2.37845
2.37146
2.36485
2.35748
2.35057
2.34288
2.33569
2.32767
2.3202
2.31185
2.30419
2.29561
2.28781
2.27916
2.27127
2.26272
2.25477
2.24643
2.2385
2.23039
2.22259
2.21465
2.20707
2.19935
2.19194
2.18447
2.17707
2.16977
2.16255
2.1554
2.14856
2.14165
2.13517
2.12872
2.12247
2.11671
2.11082
2.10577
2.10065
2.09634
2.0924
2.0891
2.08675
2.08499
2.08486
2.08502
2.08546
2.08625
2.0879
2.09177
2.09073
2.33629
2.30094
2.28785
2.29015
2.30487
2.32483
2.34855
2.36917
2.38547
2.39536
2.4023
2.40551
2.40838
2.40959
2.40951
2.40817
2.40695
2.4059
2.40723
2.40782
2.4078
2.40762
2.40761
2.40763
2.40774
2.40788
2.40786
2.40771
2.40725
2.40661
2.40518
2.40408
2.40179
2.3999
2.39705
2.39421
2.3907
2.387
2.38268
2.37832
2.37358
2.36935
2.36411
2.35902
2.35221
2.34657
2.33949
2.33388
2.32668
2.32095
2.31372
2.30774
2.30048
2.29417
2.28691
2.28029
2.27306
2.26617
2.25893
2.25183
2.24455
2.23741
2.23007
2.22297
2.21556
2.20841
2.20098
2.19368
2.1863
2.17889
2.17157
2.16418
2.15678
2.14955
2.14213
2.13529
2.12807
2.12155
2.1147
2.10837
2.10203
2.09596
2.09013
2.08445
2.0792
2.07407
2.06948
2.0652
2.06142
2.05835
2.05571
2.0541
2.05341
2.05357
2.0541
2.05469
2.05627
2.05804
2.06182
2.06074
2.34152
2.30488
2.28423
2.27872
2.28207
2.29206
2.30289
2.31226
2.31693
2.31775
2.31507
2.31145
2.30713
2.3043
2.30223
2.3013
2.2993
2.29855
2.29938
2.30232
2.3049
2.30751
2.30954
2.31148
2.31314
2.31459
2.31585
2.31665
2.31737
2.31741
2.31716
2.31647
2.31525
2.31389
2.31186
2.31
2.30725
2.30489
2.30133
2.29844
2.29467
2.292
2.28807
2.28455
2.27929
2.27482
2.26908
2.26425
2.25827
2.25307
2.24688
2.24121
2.23478
2.22863
2.22201
2.21551
2.20879
2.20207
2.19532
2.18844
2.18175
2.17478
2.16817
2.16123
2.15456
2.14775
2.14088
2.13418
2.12719
2.12044
2.11341
2.1066
2.09981
2.09303
2.0865
2.07986
2.07354
2.06723
2.06103
2.05519
2.04915
2.04378
2.03812
2.03318
2.02811
2.02362
2.01939
2.01554
2.01241
2.00952
2.00777
2.00636
2.00643
2.00672
2.00717
2.00797
2.01042
2.0124
2.01631
2.01532
2.34952
2.31755
2.29415
2.28283
2.28017
2.28085
2.28281
2.28251
2.27908
2.27226
2.26441
2.25508
2.2476
2.24062
2.23686
2.23408
2.23305
2.23108
2.2312
2.2327
2.23613
2.23968
2.24269
2.24571
2.24834
2.25115
2.25354
2.25597
2.25799
2.25968
2.26115
2.26204
2.26272
2.2629
2.26262
2.26201
2.26096
2.25954
2.25735
2.25513
2.25233
2.25001
2.2467
2.24341
2.23885
2.23454
2.22943
2.22464
2.21931
2.21417
2.20865
2.20313
2.19737
2.19148
2.18552
2.1793
2.17308
2.16659
2.16005
2.15342
2.14653
2.13973
2.13251
2.12542
2.11804
2.11068
2.10339
2.09589
2.08878
2.08145
2.07455
2.06758
2.06078
2.0542
2.0475
2.04125
2.03471
2.02871
2.02247
2.01669
2.01092
2.00536
2.0002
1.995
1.9905
1.98594
1.98218
1.97865
1.97579
1.9737
1.97213
1.9719
1.97211
1.9727
1.97349
1.97525
1.97915
1.98159
1.98661
1.98636
2.36114
2.33335
2.31282
2.29785
2.28887
2.28293
2.27656
2.26917
2.25898
2.24777
2.23503
2.22334
2.21198
2.20333
2.19617
2.19237
2.18949
2.1885
2.18657
2.18665
2.18788
2.19109
2.19432
2.19762
2.20075
2.20377
2.20672
2.20943
2.21205
2.21428
2.21634
2.21786
2.21903
2.21973
2.21999
2.21986
2.21933
2.21831
2.21681
2.21499
2.21301
2.21116
2.2088
2.20615
2.20269
2.19899
2.19483
2.19047
2.18585
2.18105
2.1761
2.17098
2.16573
2.16029
2.15473
2.149
2.14323
2.13726
2.13135
2.12516
2.11909
2.11274
2.10647
2.10014
2.09368
2.0874
2.08075
2.07453
2.06783
2.06155
2.05494
2.04857
2.04216
2.03578
2.02962
2.02333
2.01741
2.01135
2.00567
1.99999
1.99458
1.98946
1.98439
1.97995
1.97546
1.9718
1.96825
1.96549
1.96329
1.96173
1.96125
1.96143
1.96201
1.96261
1.96431
1.96645
1.97082
1.97343
1.9778
1.97727
2.3767
2.35352
2.33442
2.31861
2.30474
2.29228
2.27962
2.26585
2.25143
2.23614
2.22142
2.2069
2.19456
2.18312
2.17503
2.16824
2.16463
2.16104
2.15987
2.15752
2.15746
2.15796
2.16037
2.16325
2.16645
2.1694
2.1725
2.17521
2.17817
2.18058
2.18301
2.185
2.18659
2.18794
2.1887
2.18919
2.18911
2.18861
2.18768
2.18621
2.18472
2.18311
2.18101
2.17861
2.17538
2.172
2.16808
2.16386
2.15954
2.15473
2.15006
2.14491
2.13977
2.13444
2.12878
2.12331
2.11722
2.11155
2.10523
2.09923
2.09288
2.08651
2.08019
2.07351
2.06714
2.06034
2.05395
2.04714
2.04066
2.03393
2.02736
2.02084
2.01424
2.008
2.00151
1.99554
1.9893
1.98358
1.97775
1.9723
1.96705
1.96201
1.95747
1.95305
1.94939
1.94588
1.94325
1.94103
1.93957
1.93903
1.9392
1.93975
1.94032
1.9416
1.94476
1.94731
1.95175
1.95422
1.95809
1.95748
2.39287
2.37411
2.35548
2.33815
2.32067
2.30371
2.28654
2.26943
2.25209
2.23504
2.2187
2.20347
2.18947
2.17752
2.16702
2.15889
2.15234
2.1477
2.144
2.14153
2.13984
2.13851
2.13862
2.1397
2.14197
2.14473
2.14715
2.14996
2.15253
2.15491
2.15743
2.15924
2.16126
2.16244
2.1636
2.16407
2.16432
2.16405
2.16326
2.16216
2.16096
2.15947
2.15784
2.15547
2.15281
2.14962
2.14608
2.14227
2.13807
2.13373
2.12914
2.12433
2.11951
2.11427
2.10925
2.10368
2.09841
2.09264
2.08704
2.08115
2.07519
2.0692
2.0629
2.05683
2.05039
2.04428
2.03781
2.03162
2.02518
2.01886
2.01253
2.00611
1.99996
1.99359
1.98765
1.9815
1.9758
1.97002
1.9646
1.95935
1.9543
1.94972
1.94522
1.94151
1.93791
1.93525
1.9329
1.93146
1.93072
1.93084
1.9313
1.93182
1.93308
1.93517
1.93902
1.94179
1.94589
1.94795
1.95114
1.95036
2.40984
2.39379
2.37512
2.35545
2.33526
2.31474
2.29501
2.27502
2.25623
2.23864
2.22182
2.20643
2.19169
2.179
2.16709
2.15752
2.14887
2.14244
2.13649
2.13242
2.12844
2.12641
2.12455
2.12388
2.12408
2.12553
2.1274
2.12985
2.13205
2.13462
2.13668
2.13855
2.14025
2.1414
2.14246
2.14301
2.14321
2.14301
2.14229
2.14127
2.13997
2.13864
2.13698
2.1348
2.13236
2.12925
2.12605
2.12221
2.1182
2.11389
2.10921
2.10464
2.09953
2.09468
2.08932
2.0841
2.07859
2.07297
2.06736
2.06141
2.05568
2.04952
2.04369
2.03749
2.03154
2.02539
2.01931
2.01325
2.00705
2.0011
1.99483
1.98898
1.98278
1.97701
1.97108
1.96543
1.95991
1.95445
1.94944
1.94433
1.93988
1.93536
1.93162
1.92813
1.9253
1.92318
1.92164
1.92105
1.92121
1.92179
1.92238
1.92367
1.92665
1.92933
1.93329
1.93601
1.93943
1.94101
1.94342
1.94239
2.42328
2.40847
2.38958
2.36908
2.34751
2.32611
2.30502
2.28519
2.26564
2.24774
2.23024
2.21458
2.19936
2.18573
2.17285
2.16138
2.15101
2.14216
2.13443
2.12817
2.12291
2.11921
2.11581
2.11409
2.11247
2.11216
2.11236
2.11336
2.11482
2.11663
2.11835
2.1198
2.12118
2.12215
2.1231
2.1235
2.12372
2.12356
2.12297
2.1219
2.12075
2.1196
2.11803
2.1162
2.11375
2.111
2.10791
2.10427
2.10062
2.09634
2.0922
2.08755
2.08293
2.07809
2.07299
2.06798
2.06245
2.05723
2.05139
2.04593
2.03993
2.0343
2.02832
2.0225
2.01657
2.01057
2.0047
1.99855
1.99269
1.98652
1.98065
1.97461
1.96877
1.96302
1.95732
1.95198
1.94657
1.94172
1.93677
1.93247
1.92814
1.9245
1.92115
1.91842
1.91635
1.91489
1.91432
1.91447
1.91498
1.9156
1.91708
1.91934
1.92287
1.92573
1.92915
1.93132
1.93382
1.93466
1.93627
1.93497
2.43449
2.41852
2.39862
2.37692
2.35458
2.33289
2.31181
2.29251
2.27368
2.25641
2.2395
2.22378
2.20849
2.19421
2.18054
2.16804
2.15647
2.14617
2.13698
2.12896
2.12207
2.11593
2.11114
2.10712
2.1042
2.10205
2.10068
2.09964
2.09967
2.10013
2.10119
2.10204
2.10324
2.10404
2.10479
2.10517
2.10535
2.10514
2.10457
2.10344
2.10242
2.10107
2.0996
2.09768
2.09522
2.09267
2.08947
2.08623
2.08249
2.07859
2.07448
2.07001
2.06562
2.06072
2.05605
2.05087
2.04588
2.04049
2.03515
2.02962
2.02405
2.0185
2.01274
2.00717
2.00128
1.99568
1.98974
1.98406
1.97819
1.97242
1.96672
1.96092
1.95546
1.94978
1.94463
1.93927
1.93452
1.92972
1.92544
1.92138
1.91772
1.91469
1.91199
1.9102
1.9088
1.90848
1.90867
1.90918
1.90995
1.91152
1.91445
1.9173
1.92081
1.9234
1.92616
1.92771
1.9293
1.92971
1.93062
1.92912
2.44073
2.42276
2.40289
2.38158
2.36031
2.33953
2.31958
2.3008
2.28293
2.26598
2.24962
2.2339
2.21863
2.20384
2.18971
2.17605
2.16336
2.15134
2.14057
2.1305
2.12181
2.11379
2.10718
2.10121
2.09655
2.09254
2.08971
2.08748
2.08624
2.08505
2.08498
2.08513
2.08564
2.08619
2.08651
2.08681
2.08675
2.08645
2.08582
2.08484
2.08379
2.08247
2.08124
2.07926
2.07715
2.07453
2.07157
2.06841
2.06469
2.06107
2.05682
2.05274
2.04817
2.04369
2.03896
2.03413
2.02927
2.02409
2.01905
2.01366
2.0085
2.00296
1.99764
1.99203
1.98652
1.98093
1.97525
1.96974
1.96398
1.95856
1.95286
1.94756
1.94208
1.93695
1.93188
1.92707
1.92263
1.91829
1.91462
1.91095
1.90825
1.9056
1.90408
1.90274
1.90265
1.90287
1.90334
1.90428
1.90633
1.90915
1.91226
1.91538
1.91838
1.9204
1.9226
1.92328
1.92439
1.92434
1.92422
1.92273
2.44758
2.42725
2.40586
2.38436
2.36372
2.34413
2.32541
2.30785
2.2908
2.27456
2.25858
2.24289
2.22755
2.21229
2.19759
2.18319
2.16937
2.15634
2.14407
2.13283
2.12253
2.1132
2.10486
2.09752
2.09103
2.08566
2.08101
2.07748
2.0745
2.07246
2.07062
2.06934
2.0686
2.06824
2.06812
2.06798
2.06778
2.06743
2.06675
2.06596
2.06484
2.06379
2.06259
2.0608
2.05897
2.05634
2.05384
2.05057
2.04737
2.04366
2.03982
2.03578
2.03143
2.02716
2.02243
2.01793
2.01292
2.00814
2.00301
1.99798
1.99283
1.98757
1.98241
1.97698
1.9718
1.9663
1.9611
1.95565
1.95042
1.94515
1.93991
1.9349
1.92975
1.9251
1.92024
1.91608
1.91179
1.90829
1.90472
1.90217
1.89972
1.89832
1.89721
1.89725
1.89753
1.89805
1.8991
1.90132
1.90411
1.90753
1.91035
1.91356
1.91542
1.91745
1.91823
1.91883
1.91872
1.91855
1.91815
1.91651
2.44708
2.42627
2.40556
2.38521
2.36594
2.34778
2.33042
2.3139
2.29777
2.28186
2.26621
2.25043
2.2349
2.21945
2.20421
2.18947
2.1749
2.16118
2.14798
2.1356
2.12411
2.11332
2.10354
2.09455
2.08657
2.07945
2.07325
2.06793
2.06339
2.05983
2.05675
2.05439
2.05279
2.05145
2.05067
2.05008
2.04982
2.04933
2.04864
2.04786
2.04661
2.04573
2.04424
2.04278
2.04068
2.03844
2.03591
2.03297
2.03
2.02647
2.02306
2.01904
2.01518
2.01082
2.00652
2.0019
1.99718
1.9924
1.98741
1.98254
1.97738
1.97243
1.96721
1.96216
1.95703
1.95186
1.94689
1.94168
1.93688
1.93173
1.92711
1.92218
1.9178
1.91327
1.90927
1.90538
1.9019
1.89877
1.89618
1.89413
1.89276
1.89199
1.89209
1.89243
1.89314
1.89437
1.89694
1.89964
1.90324
1.90599
1.90897
1.91101
1.91253
1.91379
1.9139
1.91378
1.91344
1.913
1.91228
1.9105
2.44879
2.42648
2.40581
2.38676
2.36856
2.35181
2.3355
2.31979
2.30409
2.28847
2.27278
2.25703
2.24133
2.22563
2.21015
2.19486
2.17989
2.16545
2.15147
2.13817
2.12551
2.11355
2.10245
2.09217
2.0827
2.0742
2.06654
2.05972
2.05382
2.04889
2.04465
2.04116
2.03837
2.03619
2.03471
2.03333
2.03253
2.03139
2.03077
2.0296
2.02866
2.02756
2.02619
2.02479
2.02281
2.02095
2.01842
2.01595
2.01293
2.00983
2.00643
2.00277
1.99903
1.99489
1.9908
1.98628
1.98189
1.97719
1.97257
1.96782
1.96297
1.95821
1.95319
1.94845
1.94337
1.93862
1.9336
1.92886
1.92402
1.91934
1.91481
1.91032
1.90625
1.90217
1.89871
1.89526
1.89251
1.88998
1.88831
1.88702
1.88665
1.88679
1.88725
1.88815
1.88966
1.89259
1.89545
1.89898
1.90186
1.90455
1.90682
1.90794
1.90938
1.90931
1.90915
1.90885
1.90817
1.90731
1.90602
1.90425
2.45357
2.42992
2.40921
2.39082
2.37355
2.35718
2.34132
2.32574
2.31011
2.29428
2.27842
2.26248
2.24665
2.23087
2.21521
2.19969
2.1844
2.16941
2.15481
2.1408
2.12727
2.11452
2.10234
2.09102
2.08039
2.07061
2.06156
2.05351
2.04632
2.04
2.03455
2.02992
2.02571
2.02267
2.01995
2.01807
2.01648
2.0151
2.01419
2.01297
2.01221
2.01094
2.01001
2.0086
2.00717
2.00542
2.00329
2.00109
1.99832
1.99563
1.99231
1.98908
1.98533
1.98157
1.97753
1.97329
1.96908
1.96451
1.96013
1.95539
1.95085
1.94609
1.94136
1.9367
1.9318
1.92726
1.9223
1.91789
1.91306
1.90883
1.90434
1.90047
1.89647
1.89323
1.88991
1.88739
1.88495
1.88356
1.88233
1.88226
1.8824
1.88292
1.88402
1.88577
1.88888
1.89184
1.89525
1.89819
1.90065
1.90303
1.90392
1.90531
1.90519
1.90504
1.90472
1.90414
1.90294
1.90149
1.89987
1.89806
2.46769
2.4428
2.42175
2.40266
2.38459
2.36742
2.35082
2.33456
2.31856
2.30253
2.28633
2.27008
2.25369
2.23738
2.22115
2.2052
2.18944
2.17404
2.15893
2.14434
2.13015
2.1166
2.10366
2.09133
2.07989
2.06895
2.05907
2.04971
2.04129
2.03359
2.02697
2.02109
2.01627
2.01205
2.0086
2.00605
2.0037
2.00214
2.00066
1.99966
1.99871
1.99779
1.997
1.99584
1.99484
1.99316
1.99161
1.98935
1.98712
1.98436
1.9814
1.97818
1.97457
1.97094
1.96683
1.96283
1.95845
1.95409
1.94963
1.94496
1.94055
1.93568
1.9313
1.92637
1.922
1.91717
1.91285
1.90822
1.90407
1.89976
1.89597
1.89215
1.88896
1.88584
1.88337
1.88112
1.87983
1.8788
1.87881
1.87904
1.87961
1.881
1.88301
1.8862
1.8893
1.89255
1.89556
1.89773
1.90016
1.90091
1.90225
1.90214
1.90198
1.90167
1.90097
1.89995
1.89814
1.89636
1.89448
1.89268
2.48726
2.46021
2.43817
2.41847
2.39997
2.3819
2.36433
2.34683
2.32955
2.31248
2.29555
2.27879
2.26225
2.2457
2.22938
2.2129
2.19673
2.18057
2.16498
2.14979
2.13521
2.12118
2.10766
2.09474
2.08238
2.07059
2.05959
2.04917
2.03975
2.03111
2.02342
2.0167
2.01069
2.00541
2.00108
1.99747
1.99465
1.99236
1.99073
1.9895
1.98839
1.9876
1.9865
1.98561
1.98416
1.98278
1.98089
1.97888
1.97656
1.9739
1.97118
1.968
1.96482
1.96125
1.95756
1.95372
1.94959
1.94558
1.94114
1.93699
1.93237
1.92809
1.92341
1.91905
1.91441
1.91007
1.90561
1.90141
1.8973
1.89341
1.88984
1.88659
1.88372
1.88129
1.8793
1.87805
1.87736
1.87741
1.87767
1.87843
1.88023
1.88262
1.88578
1.88903
1.89202
1.89518
1.89704
1.8995
1.90015
1.90136
1.9012
1.90102
1.90066
1.90002
1.89871
1.89716
1.89504
1.89306
1.89101
1.88914
2.5163
2.48798
2.46376
2.44156
2.42099
2.40078
2.38122
2.36206
2.34345
2.3254
2.30779
2.29051
2.27345
2.25653
2.23975
2.22314
2.20674
2.19056
2.17464
2.15907
2.14373
2.12884
2.11426
2.10035
2.0869
2.07428
2.06234
2.0513
2.04114
2.03191
2.02355
2.01618
2.00965
2.00389
1.99875
1.99436
1.99074
1.98782
1.9853
1.98324
1.98167
1.98024
1.97906
1.97778
1.97652
1.97512
1.97351
1.97183
1.96975
1.96764
1.96509
1.9624
1.95942
1.9561
1.95276
1.94898
1.9453
1.94118
1.93717
1.93283
1.92859
1.92411
1.91974
1.91525
1.91087
1.90648
1.90227
1.89815
1.8943
1.8907
1.88749
1.88469
1.88232
1.88045
1.87929
1.87871
1.87874
1.87896
1.87989
1.882
1.88466
1.88773
1.8911
1.89376
1.89702
1.89866
1.90103
1.90162
1.90264
1.90241
1.9022
1.90177
1.90107
1.89981
1.89798
1.8961
1.89376
1.8916
1.88942
1.88753
2.54389
2.51726
2.49316
2.47033
2.44824
2.42681
2.40573
2.38519
2.36516
2.3456
2.32666
2.30817
2.29012
2.27239
2.25484
2.23752
2.22022
2.2032
2.18626
2.16991
2.154
2.13872
2.12411
2.11006
2.09677
2.08407
2.07207
2.06079
2.05021
2.04029
2.03117
2.02263
2.01486
2.0079
2.00148
1.99593
1.99116
1.98734
1.98421
1.98179
1.97981
1.97815
1.97679
1.97545
1.97428
1.97296
1.97164
1.97011
1.96841
1.96649
1.96426
1.96184
1.95902
1.95606
1.95274
1.94928
1.94559
1.9417
1.93769
1.93348
1.92923
1.92483
1.92044
1.916
1.91164
1.90734
1.90319
1.89926
1.89558
1.89231
1.88943
1.88708
1.88511
1.88404
1.88331
1.88332
1.88358
1.88483
1.88708
1.89001
1.89273
1.89624
1.8985
1.90166
1.90315
1.90526
1.90581
1.90663
1.90635
1.90597
1.90552
1.90469
1.90333
1.90162
1.8995
1.8974
1.89485
1.89259
1.89027
1.88837
2.57315
2.54921
2.52598
2.50312
2.48061
2.45841
2.43666
2.41518
2.39406
2.37337
2.35299
2.33319
2.31367
2.29464
2.27595
2.25767
2.23987
2.22247
2.20554
2.18917
2.1732
2.15781
2.14262
2.12804
2.11383
2.10024
2.08735
2.07501
2.06358
2.0526
2.0426
2.03308
2.02459
2.01675
2.00985
2.00366
1.99814
1.99358
1.9895
1.98624
1.9834
1.98114
1.97934
1.9778
1.97664
1.97545
1.97445
1.97321
1.9719
1.97026
1.96832
1.96612
1.96346
1.96067
1.9574
1.95406
1.95032
1.94647
1.94245
1.93821
1.93406
1.92957
1.92541
1.92083
1.91681
1.91237
1.90873
1.9047
1.90168
1.89847
1.89633
1.89411
1.89312
1.89211
1.89201
1.89244
1.89405
1.89599
1.89917
1.90148
1.90499
1.90704
1.90998
1.91138
1.91328
1.91374
1.91438
1.91398
1.91363
1.91295
1.91219
1.91072
1.90895
1.90696
1.90456
1.9023
1.89957
1.89719
1.89478
1.89283
2.59853
2.57661
2.55509
2.53319
2.51146
2.4897
2.46822
2.44671
2.42539
2.40426
2.38351
2.36322
2.34346
2.32413
2.3053
2.2867
2.2685
2.25046
2.23273
2.21522
2.19813
2.18156
2.16553
2.15014
2.1354
2.12133
2.10783
2.09499
2.08274
2.07102
2.06019
2.0498
2.04049
2.0316
2.02379
2.01643
2.00989
2.00418
1.99923
1.99531
1.99201
1.98964
1.98775
1.98633
1.98528
1.98417
1.98332
1.98201
1.98091
1.97918
1.97755
1.97541
1.97306
1.97055
1.96745
1.96454
1.96076
1.95735
1.95304
1.94916
1.94449
1.94032
1.93552
1.93137
1.92668
1.92288
1.91862
1.91547
1.91207
1.9098
1.90759
1.90629
1.90506
1.90492
1.90556
1.9074
1.90897
1.91216
1.91421
1.91755
1.91949
1.92222
1.92356
1.92521
1.92575
1.92603
1.92571
1.92509
1.92457
1.92346
1.92232
1.92035
1.9184
1.91619
1.91372
1.91134
1.90855
1.90607
1.90363
1.90162
2.61801
2.59813
2.57885
2.55945
2.53913
2.51892
2.4982
2.47766
2.45692
2.43658
2.41631
2.39645
2.37661
2.357
2.33753
2.3182
2.29924
2.28049
2.26227
2.24431
2.22692
2.20998
2.19353
2.1775
2.162
2.14693
2.13249
2.11871
2.10557
2.09325
2.08161
2.07062
2.0604
2.05065
2.04187
2.03358
2.02636
2.01967
2.01408
2.00927
2.00513
2.00179
1.99879
1.99647
1.99435
1.99271
1.99122
1.98999
1.98884
1.98768
1.98652
1.98503
1.98353
1.98143
1.97928
1.97648
1.97353
1.97008
1.96639
1.96239
1.95817
1.95388
1.94942
1.94514
1.94092
1.93696
1.93341
1.93025
1.9277
1.92556
1.92396
1.92285
1.92287
1.92368
1.92552
1.92707
1.93002
1.93205
1.93512
1.937
1.93953
1.94082
1.94223
1.94283
1.94293
1.94249
1.94204
1.94123
1.94045
1.93879
1.93734
1.93506
1.93295
1.93044
1.92778
1.92512
1.9221
1.91938
1.91674
1.91452
2.63194
2.6139
2.59716
2.58004
2.5623
2.54389
2.52544
2.5065
2.4874
2.46775
2.44794
2.42811
2.40818
2.38857
2.36915
2.34999
2.33112
2.31237
2.29381
2.2754
2.25713
2.23935
2.22191