/*--------------------------------*- C++ -*----------------------------------*\
  =========                 |
  \\      /  F ield         | OpenFOAM: The Open Source CFD Toolbox
   \\    /   O peration     | Website:  https://openfoam.org
    \\  /    A nd           | Version:  9
     \\/     M anipulation  |
\*---------------------------------------------------------------------------*/
FoamFile
{
    format      ascii;
    class       volVectorField;
    location    "10";
    object      U;
}
// * * * * * * * * * * * * * * * * * * * * * * * * * * * * * * * * * * * * * //

dimensions      [0 1 -1 0 0 0 0];

internalField   nonuniform List<vector> 
5250
(
(2.99999 9.91221e-09 0)
(2.99998 4.68423e-08 0)
(2.99995 1.54215e-07 0)
(2.99988 6.0744e-07 0)
(2.9997 1.12205e-06 0)
(2.99924 3.83105e-06 0)
(2.99816 1.01596e-05 0)
(2.99538 2.19114e-05 0)
(2.98865 7.3199e-05 0)
(2.97131 0.000151933 0)
(2.9259 0.000446133 0)
(2.79856 0.00113937 0)
(2.4229 0.0031942 0)
(1.41392 0.0094267 0)
(0.61069 0.0215186 0)
(0.556986 0.022678 0)
(0.574556 0.0237045 0)
(0.559509 0.0252261 0)
(0.503584 0.027007 0)
(0.417079 0.0291147 0)
(0.336911 0.0316596 0)
(0.268588 0.0345788 0)
(0.198673 0.0376763 0)
(0.119306 0.0413431 0)
(0.0524794 0.0466009 0)
(2.99999 6.13732e-08 0)
(2.99998 8.43941e-08 0)
(2.99995 1.10636e-06 0)
(2.99988 8.65679e-07 0)
(2.9997 7.66362e-06 0)
(2.99925 6.74457e-06 0)
(2.99818 4.79252e-05 0)
(2.99543 4.77158e-05 0)
(2.98876 0.000280315 0)
(2.97161 0.000400223 0)
(2.92675 0.00150836 0)
(2.80074 0.00338037 0)
(2.4299 0.010034 0)
(1.42828 0.0290987 0)
(0.619932 0.0650174 0)
(0.556332 0.065368 0)
(0.574217 0.0656071 0)
(0.559667 0.067985 0)
(0.503959 0.0709799 0)
(0.417659 0.0748984 0)
(0.337345 0.0794229 0)
(0.268278 0.0841871 0)
(0.197241 0.0886267 0)
(0.116473 0.093003 0)
(0.0491206 0.0973981 0)
(2.99999 5.76322e-08 0)
(2.99998 3.39026e-07 0)
(2.99995 1.30546e-06 0)
(2.99988 3.19812e-06 0)
(2.9997 9.49895e-06 0)
(2.99928 2.20213e-05 0)
(2.9982 5.72073e-05 0)
(2.99557 0.000142836 0)
(2.98894 0.000345752 0)
(2.97234 0.000897973 0)
(2.92836 0.002235 0)
(2.8057 0.00601088 0)
(2.44435 0.0167497 0)
(1.46077 0.0494078 0)
(0.641599 0.111755 0)
(0.5561 0.110504 0)
(0.575147 0.109886 0)
(0.562216 0.114381 0)
(0.507401 0.120037 0)
(0.42207 0.127643 0)
(0.342012 0.136021 0)
(0.272407 0.144671 0)
(0.200353 0.15294 0)
(0.1181 0.160563 0)
(0.0487794 0.166366 0)
(2.99999 7.94113e-08 0)
(2.99998 4.97193e-07 0)
(2.99996 1.67514e-06 0)
(2.99988 4.9463e-06 0)
(2.99972 1.28491e-05 0)
(2.99929 3.18865e-05 0)
(2.99828 8.40267e-05 0)
(2.99567 0.000192747 0)
(2.98939 0.000520917 0)
(2.9732 0.00119973 0)
(2.93098 0.00321247 0)
(2.81296 0.00830324 0)
(2.46605 0.0234576 0)
(1.51079 0.0686689 0)
(0.674389 0.159124 0)
(0.555001 0.155098 0)
(0.577066 0.153142 0)
(0.567424 0.16002 0)
(0.514225 0.168583 0)
(0.430579 0.18016 0)
(0.351049 0.192754 0)
(0.281125 0.205863 0)
(0.20801 0.218726 0)
(0.123554 0.23038 0)
(0.0506747 0.238083 0)
(3 1.04987e-07 0)
(2.99998 6.134e-07 0)
(2.99996 2.29357e-06 0)
(2.99989 6.0662e-06 0)
(2.99973 1.72374e-05 0)
(2.99934 4.05029e-05 0)
(2.99833 0.000108121 0)
(2.99593 0.000252678 0)
(2.98978 0.00065527 0)
(2.97458 0.00157803 0)
(2.93431 0.00406902 0)
(2.82248 0.0106868 0)
(2.49519 0.0299151 0)
(1.57837 0.0873491 0)
(0.718853 0.208062 0)
(0.552502 0.199379 0)
(0.579846 0.195431 0)
(0.575225 0.204748 0)
(0.524194 0.21622 0)
(0.442879 0.231762 0)
(0.364216 0.248804 0)
(0.294193 0.266877 0)
(0.219928 0.285099 0)
(0.132363 0.301815 0)
(0.0543957 0.312374 0)
(3 1.02691e-07 0)
(2.99998 8.65974e-07 0)
(2.99996 2.40392e-06 0)
(2.9999 8.44394e-06 0)
(2.99975 1.81173e-05 0)
(2.99937 5.50447e-05 0)
(2.99845 0.00011624 0)
(2.99613 0.000334473 0)
(2.99049 0.000735305 0)
(2.97604 0.00201618 0)
(2.93857 0.00481512 0)
(2.83453 0.0131136 0)
(2.53028 0.0361452 0)
(1.66606 0.105424 0)
(0.775064 0.259304 0)
(0.548397 0.243662 0)
(0.584029 0.236944 0)
(0.586268 0.248791 0)
(0.537798 0.263252 0)
(0.459472 0.282992 0)
(0.382167 0.305064 0)
(0.312424 0.329092 0)
(0.237127 0.354158 0)
(0.145669 0.37812 0)
(0.0605914 0.393936 0)
(3 1.46672e-07 0)
(2.99999 9.29815e-07 0)
(2.99996 3.10158e-06 0)
(2.9999 9.14007e-06 0)
(2.99977 2.32319e-05 0)
(2.99942 5.93902e-05 0)
(2.99856 0.000150959 0)
(2.99645 0.000357287 0)
(2.99118 0.000944232 0)
(2.97797 0.00221901 0)
(2.94359 0.00584756 0)
(2.84852 0.0150922 0)
(2.57273 0.0422515 0)
(1.77347 0.122378 0)
(0.845039 0.312197 0)
(0.544042 0.288689 0)
(0.591081 0.278358 0)
(0.601829 0.292353 0)
(0.55611 0.309602 0)
(0.481451 0.333693 0)
(0.406181 0.36149 0)
(0.337394 0.392802 0)
(0.261622 0.426876 0)
(0.165915 0.461669 0)
(0.0709839 0.487695 0)
(3 1.52979e-07 0)
(2.99999 1.01406e-06 0)
(2.99997 3.46265e-06 0)
(2.99991 9.98711e-06 0)
(2.99979 2.59044e-05 0)
(2.99947 6.74815e-05 0)
(2.9987 0.000161999 0)
(2.99679 0.000425723 0)
(2.99204 0.000994198 0)
(2.98012 0.00262984 0)
(2.94933 0.00636819 0)
(2.86477 0.0171148 0)
(2.62067 0.0469838 0)
(1.9031 0.136512 0)
(0.931445 0.362062 0)
(0.54454 0.333527 0)
(0.603919 0.319926 0)
(0.623871 0.335146 0)
(0.58076 0.354799 0)
(0.510411 0.383443 0)
(0.438018 0.417768 0)
(0.371287 0.457894 0)
(0.296561 0.503694 0)
(0.197693 0.554782 0)
(0.0892901 0.601687 0)
(3 1.66855e-07 0)
(2.99999 1.01964e-06 0)
(2.99997 3.74156e-06 0)
(2.99992 1.00476e-05 0)
(2.99981 2.81719e-05 0)
(2.99953 6.84104e-05 0)
(2.99886 0.000177583 0)
(2.99714 0.000436576 0)
(2.99302 0.00108374 0)
(2.98245 0.00275109 0)
(2.95564 0.00683503 0)
(2.88254 0.018068 0)
(2.67277 0.0497824 0)
(2.05185 0.144551 0)
(1.03742 0.401806 0)
(0.559911 0.38008 0)
(0.627512 0.366235 0)
(0.655186 0.378789 0)
(0.614391 0.399816 0)
(0.548805 0.432196 0)
(0.480103 0.473788 0)
(0.41689 0.52323 0)
(0.346551 0.583226 0)
(0.250183 0.660017 0)
(0.123823 0.750224 0)
(3 1.71644e-07 0)
(2.99999 9.47168e-07 0)
(2.99997 3.69322e-06 0)
(2.99993 9.34936e-06 0)
(2.99984 2.76904e-05 0)
(2.9996 6.33734e-05 0)
(2.99901 0.000176233 0)
(2.99754 0.000399206 0)
(2.99397 0.00107994 0)
(2.98492 0.00252908 0)
(2.96208 0.0066602 0)
(2.90079 0.0168744 0)
(2.72675 0.0468251 0)
(2.21468 0.134706 0)
(1.17616 0.392245 0)
(0.613322 0.417211 0)
(0.670639 0.417556 0)
(0.699287 0.42289 0)
(0.660667 0.44594 0)
(0.599748 0.480034 0)
(0.535035 0.528182 0)
(0.476945 0.586305 0)
(0.41904 0.665069 0)
(0.340648 0.784407 0)
(0.19096 0.991714 0)
(3 1.4875e-07 0)
(2.99999 8.91114e-07 0)
(2.99998 3.13242e-06 0)
(2.99994 8.81636e-06 0)
(2.99986 2.32184e-05 0)
(2.99965 5.80313e-05 0)
(2.99914 0.00014825 0)
(2.9979 0.000351875 0)
(2.99479 0.00092249 0)
(2.98711 0.00214435 0)
(2.9676 0.00566064 0)
(2.91611 0.0139975 0)
(2.77136 0.0382186 0)
(2.34858 0.107813 0)
(1.32674 0.322148 0)
(0.676976 0.445822 0)
(0.707752 0.472236 0)
(0.737614 0.470985 0)
(0.710445 0.493115 0)
(0.65774 0.526911 0)
(0.601063 0.577541 0)
(0.554672 0.643296 0)
(0.526287 0.737686 0)
(0.526709 0.883919 0)
(0.563077 1.12629 0)
(3 1.16959e-07 0)
(2.99999 8.35198e-07 0)
(2.99998 2.59328e-06 0)
(2.99995 8.23538e-06 0)
(2.99988 1.92966e-05 0)
(2.9997 5.39051e-05 0)
(2.99925 0.000122159 0)
(2.99819 0.000325983 0)
(2.99547 0.000754898 0)
(2.98887 0.00194783 0)
(2.97197 0.00468158 0)
(2.92778 0.0120957 0)
(2.80464 0.0315777 0)
(2.44421 0.0884198 0)
(1.48874 0.261198 0)
(0.75625 0.491197 0)
(0.724472 0.52179 0)
(0.753651 0.519735 0)
(0.748276 0.537471 0)
(0.711432 0.570705 0)
(0.670444 0.620457 0)
(0.642269 0.689898 0)
(0.644365 0.788643 0)
(0.698856 0.926732 0)
(0.825858 1.10407 0)
(3 1.15433e-07 0)
(2.99999 7.22264e-07 0)
(2.99998 2.54101e-06 0)
(2.99996 7.06125e-06 0)
(2.9999 1.89105e-05 0)
(2.99974 4.69655e-05 0)
(2.99937 0.00011879 0)
(2.99842 0.000291804 0)
(2.99615 0.000720596 0)
(2.99038 0.00178779 0)
(2.97606 0.00443308 0)
(2.93841 0.0111929 0)
(2.83464 0.0295071 0)
(2.53254 0.0818139 0)
(1.68503 0.238767 0)
(0.871793 0.539716 0)
(0.732633 0.555244 0)
(0.763201 0.557207 0)
(0.776705 0.571921 0)
(0.758578 0.606473 0)
(0.736186 0.655754 0)
(0.729095 0.723382 0)
(0.752967 0.813629 0)
(0.825869 0.924184 0)
(0.965892 1.03199 0)
(3 1.11291e-07 0)
(2.99999 6.88428e-07 0)
(2.99999 2.42519e-06 0)
(2.99996 6.76724e-06 0)
(2.99991 1.80749e-05 0)
(2.99978 4.49588e-05 0)
(2.99946 0.000114194 0)
(2.99869 0.000278317 0)
(2.99671 0.000699928 0)
(2.99196 0.00171234 0)
(2.9798 0.00430762 0)
(2.94869 0.0108062 0)
(2.86328 0.0283548 0)
(2.61662 0.078433 0)
(1.90111 0.227151 0)
(1.0166 0.574994 0)
(0.74718 0.581059 0)
(0.775952 0.583951 0)
(0.8031 0.596144 0)
(0.803053 0.632067 0)
(0.796685 0.681315 0)
(0.805639 0.743345 0)
(0.842613 0.817735 0)
(0.918872 0.900426 0)
(1.04945 0.969244 0)
(3 9.69904e-08 0)
(3 6.71707e-07 0)
(2.99999 2.21264e-06 0)
(2.99997 6.62708e-06 0)
(2.99993 1.65606e-05 0)
(2.99982 4.45194e-05 0)
(2.99956 0.000104005 0)
(2.99891 0.000278888 0)
(2.99734 0.000639245 0)
(2.99338 0.00171695 0)
(2.98364 0.00400516 0)
(2.95846 0.01061 0)
(2.89096 0.0268771 0)
(2.698 0.0749579 0)
(2.12872 0.216374 0)
(1.19237 0.595081 0)
(0.787614 0.612729 0)
(0.803944 0.615697 0)
(0.836319 0.619837 0)
(0.849493 0.651425 0)
(0.853169 0.697619 0)
(0.870987 0.751949 0)
(0.914129 0.811556 0)
(0.988678 0.872348 0)
(1.10535 0.919117 0)
(3 9.29862e-08 0)
(3 5.42253e-07 0)
(2.99999 1.99479e-06 0)
(2.99998 5.34877e-06 0)
(2.99994 1.48633e-05 0)
(2.99986 3.58223e-05 0)
(2.99965 9.41615e-05 0)
(2.99913 0.000222213 0)
(2.99791 0.000578135 0)
(2.99477 0.00136366 0)
(2.98721 0.0035456 0)
(2.96778 0.008578 0)
(2.91697 0.0225717 0)
(2.77563 0.0603845 0)
(2.36418 0.173684 0)
(1.42494 0.510167 0)
(0.885243 0.625006 0)
(0.859539 0.645663 0)
(0.880876 0.650738 0)
(0.901302 0.671494 0)
(0.909114 0.709206 0)
(0.929051 0.754229 0)
(0.972584 0.801175 0)
(1.04258 0.845489 0)
(1.14491 0.877465 0)
(3 7.18512e-08 0)
(3 4.60005e-07 0)
(2.99999 1.5634e-06 0)
(2.99998 4.5154e-06 0)
(2.99995 1.16851e-05 0)
(2.99989 2.96023e-05 0)
(2.99972 7.40651e-05 0)
(2.99931 0.000179001 0)
(2.99829 0.000452465 0)
(2.99586 0.00107513 0)
(2.98965 0.00274141 0)
(2.97432 0.00660558 0)
(2.93407 0.0169208 0)
(2.82305 0.044191 0)
(2.5029 0.122561 0)
(1.64731 0.366153 0)
(0.977418 0.648098 0)
(0.898019 0.67829 0)
(0.915317 0.688835 0)
(0.942382 0.696029 0)
(0.958141 0.720988 0)
(0.979666 0.754906 0)
(1.02094 0.789941 0)
(1.08492 0.820359 0)
(1.17384 0.840885 0)
(3 6.10869e-08 0)
(3 3.82429e-07 0)
(2.99999 1.35456e-06 0)
(2.99999 3.74336e-06 0)
(2.99996 1.0069e-05 0)
(2.99991 2.48941e-05 0)
(2.99978 6.26714e-05 0)
(2.99945 0.000154534 0)
(2.99866 0.000376732 0)
(2.99668 0.00094601 0)
(2.99182 0.00227445 0)
(2.97958 0.0057681 0)
(2.94816 0.0142456 0)
(2.86209 0.0374562 0)
(2.61562 0.102612 0)
(1.90987 0.300239 0)
(1.12559 0.685273 0)
(0.924382 0.710922 0)
(0.936194 0.719978 0)
(0.967805 0.717459 0)
(0.995269 0.730015 0)
(1.0208 0.753606 0)
(1.05947 0.778034 0)
(1.11748 0.797834 0)
(1.19493 0.808011 0)
(3 5.33807e-08 0)
(3 3.24443e-07 0)
(3 1.15703e-06 0)
(2.99999 3.18866e-06 0)
(2.99997 8.62069e-06 0)
(2.99993 2.11661e-05 0)
(2.99983 5.45122e-05 0)
(2.99958 0.000130846 0)
(2.99895 0.000333223 0)
(2.99744 0.000800353 0)
(2.99367 0.00203177 0)
(2.9843 0.0049416 0)
(2.96039 0.0126362 0)
(2.8965 0.0323726 0)
(2.71518 0.0890653 0)
(2.18303 0.257077 0)
(1.3265 0.6813 0)
(0.975479 0.735624 0)
(0.964945 0.738775 0)
(0.990801 0.733565 0)
(1.02574 0.735761 0)
(1.05521 0.749322 0)
(1.09157 0.764856 0)
(1.1429 0.776785 0)
(1.20871 0.777219 0)
(3 3.97422e-08 0)
(3 2.76578e-07 0)
(3 8.87289e-07 0)
(2.99999 2.71509e-06 0)
(2.99998 6.64968e-06 0)
(2.99995 1.78694e-05 0)
(2.99987 4.21371e-05 0)
(2.99968 0.000109182 0)
(2.99922 0.000258288 0)
(2.99809 0.0006581 0)
(2.99527 0.00158244 0)
(2.98842 0.00398225 0)
(2.97102 0.00983742 0)
(2.92574 0.0252723 0)
(2.80147 0.0674729 0)
(2.44101 0.19252 0)
(1.59586 0.559929 0)
(1.07714 0.735944 0)
(1.01263 0.748471 0)
(1.02431 0.748712 0)
(1.05603 0.743465 0)
(1.0864 0.746647 0)
(1.11991 0.753017 0)
(1.16299 0.754866 0)
(1.2166 0.745617 0)
(3 3.21186e-08 0)
(3 2.04619e-07 0)
(3 7.10106e-07 0)
(2.99999 2.00609e-06 0)
(2.99998 5.27231e-06 0)
(2.99996 1.33332e-05 0)
(2.9999 3.27153e-05 0)
(2.99976 8.21054e-05 0)
(2.99941 0.000195821 0)
(2.99854 0.000496698 0)
(2.99644 0.0011713 0)
(2.99118 0.00299242 0)
(2.97813 0.00714571 0)
(2.94431 0.0183176 0)
(2.85254 0.047082 0)
(2.58947 0.129974 0)
(1.86698 0.385668 0)
(1.19148 0.737021 0)
(1.04357 0.763723 0)
(1.0491 0.765884 0)
(1.07808 0.754675 0)
(1.11061 0.747128 0)
(1.14102 0.742421 0)
(1.17575 0.731361 0)
(1.21893 0.712047 0)
(3 2.61002e-08 0)
(3 1.58598e-07 0)
(3 5.70257e-07 0)
(3 1.55746e-06 0)
(2.99999 4.2272e-06 0)
(2.99997 1.03801e-05 0)
(2.99993 2.64169e-05 0)
(2.99982 6.41953e-05 0)
(2.99956 0.000159608 0)
(2.9989 0.000390209 0)
(2.99735 0.000960995 0)
(2.99339 0.00238257 0)
(2.98376 0.00585481 0)
(2.9589 0.0147827 0)
(2.89266 0.0379753 0)
(2.70513 0.103726 0)
(2.1577 0.301594 0)
(1.37134 0.73869 0)
(1.07975 0.791361 0)
(1.06811 0.783401 0)
(1.09162 0.766119 0)
(1.12486 0.745659 0)
(1.15242 0.727059 0)
(1.18036 0.704275 0)
(1.21642 0.676534 0)
(3 1.98083e-08 0)
(3 1.2212e-07 0)
(3 4.3145e-07 0)
(3 1.20088e-06 0)
(2.99999 3.20396e-06 0)
(2.99998 7.96096e-06 0)
(2.99995 2.01558e-05 0)
(2.99987 4.88204e-05 0)
(2.99968 0.00012236 0)
(2.99921 0.000294753 0)
(2.9981 0.000738638 0)
(2.99526 0.00179092 0)
(2.98846 0.0044803 0)
(2.97107 0.0110839 0)
(2.92623 0.02835 0)
(2.80322 0.0758954 0)
(2.44698 0.216696 0)
(1.64303 0.611269 0)
(1.16857 0.784693 0)
(1.10104 0.786169 0)
(1.10916 0.767781 0)
(1.1339 0.736838 0)
(1.15789 0.704841 0)
(1.18146 0.673493 0)
(1.21262 0.640448 0)
(3 1.44918e-08 0)
(3 9.0744e-08 0)
(3 3.15612e-07 0)
(3 8.8806e-07 0)
(2.99999 2.34825e-06 0)
(2.99998 5.83667e-06 0)
(2.99996 1.47121e-05 0)
(2.9999 3.54359e-05 0)
(2.99977 8.84641e-05 0)
(2.99942 0.000212288 0)
(2.9986 0.000528332 0)
(2.99651 0.00126764 0)
(2.9915 0.00315926 0)
(2.97877 0.00769441 0)
(2.94639 0.0193532 0)
(2.85826 0.0501204 0)
(2.60775 0.137401 0)
(1.92348 0.406804 0)
(1.27423 0.766335 0)
(1.11488 0.786438 0)
(1.11222 0.758842 0)
(1.13163 0.722002 0)
(1.15577 0.68106 0)
(1.1797 0.642665 0)
(1.20938 0.60648 0)
(3 1.11376e-08 0)
(3 6.59302e-08 0)
(3 2.39626e-07 0)
(3 6.46766e-07 0)
(3 1.76933e-06 0)
(2.99999 4.2738e-06 0)
(2.99997 1.10524e-05 0)
(2.99993 2.61137e-05 0)
(2.99983 6.67076e-05 0)
(2.99958 0.000157282 0)
(2.99898 0.000398809 0)
(2.99745 0.000947891 0)
(2.99381 0.00239167 0)
(2.98454 0.00579228 0)
(2.96137 0.0146234 0)
(2.89928 0.0373313 0)
(2.72528 0.101412 0)
(2.22006 0.294618 0)
(1.45124 0.724202 0)
(1.13069 0.786106 0)
(1.10404 0.746285 0)
(1.12311 0.7042 0)
(1.14749 0.657305 0)
(1.1745 0.612539 0)
(1.20687 0.575338 0)
(3 7.88845e-09 0)
(3 4.82088e-08 0)
(3 1.69604e-07 0)
(3 4.73017e-07 0)
(3 1.25489e-06 0)
(2.99999 3.10838e-06 0)
(2.99998 7.89306e-06 0)
(2.99995 1.88208e-05 0)
(2.99988 4.79209e-05 0)
(2.9997 0.000112124 0)
(2.99926 0.000287703 0)
(2.99817 0.000670991 0)
(2.99554 0.00172304 0)
(2.98896 0.00406811 0)
(2.97261 0.0104181 0)
(2.93005 0.0258378 0)
(2.8136 0.0694572 0)
(2.4793 0.196257 0)
(1.69887 0.559209 0)
(1.18058 0.753189 0)
(1.09397 0.726458 0)
(1.11036 0.679287 0)
(1.13436 0.62974 0)
(1.16689 0.583158 0)
(1.2063 0.547844 0)
(3 5.19386e-09 0)
(3 3.50945e-08 0)
(3 1.14753e-07 0)
(3 3.42396e-07 0)
(3 8.56185e-07 0)
(2.99999 2.23104e-06 0)
(2.99998 5.37851e-06 0)
(2.99996 1.34386e-05 0)
(2.99991 3.25599e-05 0)
(2.99978 7.93767e-05 0)
(2.99944 0.000195641 0)
(2.99865 0.00046784 0)
(2.99664 0.00117107 0)
(2.99178 0.00278335 0)
(2.97948 0.00704163 0)
(2.9481 0.0171896 0)
(2.86265 0.0450184 0)
(2.61977 0.12242 0)
(1.94949 0.362778 0)
(1.24769 0.721607 0)
(1.05623 0.706925 0)
(1.07411 0.650201 0)
(1.10942 0.59789 0)
(1.15389 0.554577 0)
(1.20403 0.524109 0)
(3 3.53476e-09 0)
(3 2.45044e-08 0)
(3 7.94808e-08 0)
(3 2.39421e-07 0)
(3 5.90592e-07 0)
(3 1.56832e-06 0)
(2.99999 3.68057e-06 0)
(2.99997 9.5484e-06 0)
(2.99993 2.22009e-05 0)
(2.99983 5.70055e-05 0)
(2.99958 0.000133186 0)
(2.99898 0.000338832 0)
(2.99747 0.000803864 0)
(2.99384 0.00201991 0)
(2.9846 0.00490828 0)
(2.96147 0.0123266 0)
(2.89941 0.0315619 0)
(2.72541 0.0857987 0)
(2.22272 0.250151 0)
(1.3861 0.639886 0)
(1.02371 0.669462 0)
(1.02897 0.616255 0)
(1.07867 0.56622 0)
(1.1392 0.527611 0)
(1.20126 0.503082 0)
(3 2.46377e-09 0)
(3 1.59887e-08 0)
(3 5.46932e-08 0)
(3 1.56912e-07 0)
(3 4.0292e-07 0)
(3 1.03655e-06 0)
(2.99999 2.48102e-06 0)
(2.99998 6.32094e-06 0)
(2.99995 1.47593e-05 0)
(2.99987 3.78768e-05 0)
(2.99968 8.71994e-05 0)
(2.99921 0.000225376 0)
(2.99804 0.000518573 0)
(2.9952 0.00133606 0)
(2.98806 0.00313085 0)
(2.97024 0.00800204 0)
(2.92339 0.0198135 0)
(2.79365 0.0532004 0)
(2.42213 0.150104 0)
(1.55041 0.440663 0)
(1.00466 0.587811 0)
(0.972775 0.565373 0)
(1.03634 0.532 0)
(1.1149 0.502045 0)
(1.19139 0.484532 0)
(3 1.71584e-09 0)
(3 1.06489e-08 0)
(3 3.75365e-08 0)
(3 1.03876e-07 0)
(3 2.77619e-07 0)
(3 6.85968e-07 0)
(2.99999 1.70983e-06 0)
(2.99998 4.16654e-06 0)
(2.99996 1.01399e-05 0)
(2.99989 2.49047e-05 0)
(2.99974 5.96364e-05 0)
(2.99934 0.000147635 0)
(2.99839 0.000350444 0)
(2.99602 0.000876906 0)
(2.99015 0.00207606 0)
(2.97533 0.00522759 0)
(2.93673 0.0127963 0)
(2.82967 0.0334875 0)
(2.52089 0.0910681 0)
(1.69181 0.269234 0)
(0.986501 0.524416 0)
(0.889402 0.510818 0)
(0.969785 0.489766 0)
(1.0696 0.474067 0)
(1.16408 0.465733 0)
(3 1.31309e-09 0)
(3 7.19864e-09 0)
(3 2.78886e-08 0)
(3 7.07802e-08 0)
(3 2.0579e-07 0)
(3 4.71234e-07 0)
(2.99999 1.28017e-06 0)
(2.99998 2.88876e-06 0)
(2.99996 7.64945e-06 0)
(2.99991 1.75662e-05 0)
(2.99978 4.52492e-05 0)
(2.99945 0.000106276 0)
(2.99865 0.00026775 0)
(2.99664 0.000647981 0)
(2.99168 0.00158619 0)
(2.97916 0.00396373 0)
(2.94675 0.00977255 0)
(2.85735 0.0256396 0)
(2.59916 0.0700305 0)
(1.86203 0.203379 0)
(1.01 0.490169 0)
(0.786543 0.45293 0)
(0.88921 0.433183 0)
(1.01276 0.438378 0)
(1.12147 0.441048 0)
(3 8.88327e-10 0)
(3 5.48714e-09 0)
(3 1.93665e-08 0)
(3 5.41102e-08 0)
(3 1.44362e-07 0)
(3 3.60253e-07 0)
(2.99999 9.14741e-07 0)
(2.99999 2.22516e-06 0)
(2.99997 5.59928e-06 0)
(2.99992 1.35486e-05 0)
(2.99981 3.39588e-05 0)
(2.99953 8.24118e-05 0)
(2.99885 0.000206132 0)
(2.99712 0.000501089 0)
(2.99291 0.00125694 0)
(2.98216 0.00308662 0)
(2.95469 0.00782561 0)
(2.87965 0.0203043 0)
(2.66273 0.0561049 0)
(2.02731 0.162753 0)
(1.06055 0.443561 0)
(0.693285 0.395866 0)
(0.823159 0.379041 0)
(0.967279 0.399824 0)
(1.07744 0.409704 0)
(3 6.10543e-10 0)
(3 4.12316e-09 0)
(3 1.32812e-08 0)
(3 4.03668e-08 0)
(3 1.00374e-07 0)
(3 2.63665e-07 0)
(3 6.4968e-07 0)
(2.99999 1.60856e-06 0)
(2.99997 4.06497e-06 0)
(2.99993 9.64444e-06 0)
(2.99984 2.52121e-05 0)
(2.99959 5.81754e-05 0)
(2.999 0.000155045 0)
(2.99752 0.000353632 0)
(2.99384 0.000957166 0)
(2.98463 0.00221148 0)
(2.96109 0.00594308 0)
(2.89744 0.0149533 0)
(2.71607 0.0418958 0)
(2.17927 0.12213 0)
(1.14044 0.362673 0)
(0.644109 0.348036 0)
(0.788232 0.347523 0)
(0.940129 0.366423 0)
(1.04049 0.374863 0)
(3 5.27354e-10 0)
(3 2.61359e-09 0)
(3 1.08025e-08 0)
(3 2.56804e-08 0)
(3 7.98325e-08 0)
(3 1.70166e-07 0)
(3 5.04657e-07 0)
(2.99999 1.04396e-06 0)
(2.99998 3.04971e-06 0)
(2.99994 6.40612e-06 0)
(2.99985 1.81912e-05 0)
(2.99964 3.95742e-05 0)
(2.99909 0.000108194 0)
(2.99779 0.000245979 0)
(2.99446 0.000645709 0)
(2.98632 0.00154708 0)
(2.9653 0.00397785 0)
(2.90957 0.0100913 0)
(2.75139 0.0276872 0)
(2.28631 0.0796467 0)
(1.21663 0.244458 0)
(0.615094 0.299453 0)
(0.754696 0.329937 0)
(0.903507 0.337866 0)
(0.997773 0.339874 0)
(3 3.49249e-10 0)
(3 2.10709e-09 0)
(3 7.72811e-09 0)
(3 2.07514e-08 0)
(3 5.69733e-08 0)
(3 1.40188e-07 0)
(3 3.52565e-07 0)
(2.99999 8.72201e-07 0)
(2.99998 2.10543e-06 0)
(2.99995 5.33482e-06 0)
(2.99986 1.25279e-05 0)
(2.99967 3.2273e-05 0)
(2.99917 7.50862e-05 0)
(2.99796 0.000194968 0)
(2.99492 0.000451679 0)
(2.98741 0.00118227 0)
(2.96818 0.0028074 0)
(2.91728 0.0073546 0)
(2.77312 0.0193349 0)
(2.34868 0.0545474 0)
(1.28875 0.162819 0)
(0.612554 0.276515 0)
(0.722603 0.322124 0)
(0.854054 0.310541 0)
(0.9484 0.30517 0)
(3 2.48361e-10 0)
(3 1.9756e-09 0)
(3 5.74669e-09 0)
(3 1.91276e-08 0)
(3 4.34124e-08 0)
(3 1.24387e-07 0)
(3 2.77046e-07 0)
(2.99999 7.59852e-07 0)
(2.99998 1.72293e-06 0)
(2.99995 4.46201e-06 0)
(2.99987 1.06801e-05 0)
(2.99969 2.6224e-05 0)
(2.99923 6.53542e-05 0)
(2.9981 0.000154507 0)
(2.99528 0.000398545 0)
(2.98828 0.000929904 0)
(2.97044 0.00242508 0)
(2.92331 0.00597262 0)
(2.79026 0.0160743 0)
(2.39934 0.0448555 0)
(1.37548 0.132497 0)
(0.650542 0.269689 0)
(0.695535 0.299067 0)
(0.803745 0.281492 0)
(0.905736 0.272569 0)
(3 2.05631e-10 0)
(3 1.7195e-09 0)
(3 5.02106e-09 0)
(3 1.68101e-08 0)
(3 3.7942e-08 0)
(3 1.12528e-07 0)
(3 2.34719e-07 0)
(2.99999 7.01624e-07 0)
(2.99998 1.39532e-06 0)
(2.99995 4.2813e-06 0)
(2.99988 8.37969e-06 0)
(2.99971 2.55705e-05 0)
(2.99928 5.11507e-05 0)
(2.99824 0.000151127 0)
(2.99557 0.000320119 0)
(2.9891 0.000891646 0)
(2.97239 0.00202235 0)
(2.92859 0.00546111 0)
(2.80547 0.01398 0)
(2.4433 0.0396319 0)
(1.46682 0.115237 0)
(0.699614 0.259804 0)
(0.675596 0.264548 0)
(0.773177 0.254966 0)
(0.875438 0.246107 0)
(3 2.20259e-10 0)
(3 1.43409e-09 0)
(3 4.90235e-09 0)
(3 1.42862e-08 0)
(3 3.65045e-08 0)
(3 9.55716e-08 0)
(3 2.29835e-07 0)
(2.99999 5.83528e-07 0)
(2.99998 1.38534e-06 0)
(2.99995 3.55273e-06 0)
(2.99989 8.31603e-06 0)
(2.99973 2.12032e-05 0)
(2.99933 5.03416e-05 0)
(2.99833 0.000127531 0)
(2.9959 0.000306839 0)
(2.98969 0.000767032 0)
(2.97427 0.00189625 0)
(2.9332 0.00480363 0)
(2.81878 0.0127295 0)
(2.48244 0.0354351 0)
(1.55351 0.103455 0)
(0.749096 0.24914 0)
(0.657886 0.239516 0)
(0.751912 0.228746 0)
(0.854998 0.222372 0)
(3 2.1712e-10 0)
(3 1.37146e-09 0)
(3 4.75222e-09 0)
(3 1.35341e-08 0)
(3 3.56001e-08 0)
(3 8.93563e-08 0)
(3 2.24595e-07 0)
(2.99999 5.44214e-07 0)
(2.99998 1.36168e-06 0)
(2.99996 3.26775e-06 0)
(2.9999 8.18155e-06 0)
(2.99975 1.96777e-05 0)
(2.99936 4.86271e-05 0)
(2.99845 0.000118628 0)
(2.9961 0.000290367 0)
(2.99042 0.000717651 0)
(2.97575 0.00177249 0)
(2.93759 0.00447029 0)
(2.83093 0.0117512 0)
(2.51776 0.0327158 0)
(1.63786 0.0949936 0)
(0.795578 0.239033 0)
(0.63709 0.218318 0)
(0.735471 0.203215 0)
(0.843157 0.200833 0)
(3 2.36422e-10 0)
(3 1.18347e-09 0)
(3 5.06831e-09 0)
(3 1.16558e-08 0)
(3 3.70107e-08 0)
(3 7.98308e-08 0)
(3 2.2331e-07 0)
(2.99999 5.08848e-07 0)
(2.99998 1.30225e-06 0)
(2.99996 3.19462e-06 0)
(2.9999 7.45353e-06 0)
(2.99976 2.00771e-05 0)
(2.99942 4.2904e-05 0)
(2.99853 0.000124148 0)
(2.9964 0.000248698 0)
(2.99093 0.000752562 0)
(2.97739 0.00154887 0)
(2.94151 0.00440435 0)
(2.84216 0.0108218 0)
(2.55092 0.0307237 0)
(1.71835 0.0882589 0)
(0.838419 0.229056 0)
(0.611987 0.199011 0)
(0.721413 0.180508 0)
(0.837458 0.181006 0)
(3 1.9081e-10 0)
(3 1.21764e-09 0)
(3 4.15362e-09 0)
(3 1.20257e-08 0)
(3 3.03433e-08 0)
(3 7.95837e-08 0)
(3 1.89979e-07 0)
(2.99999 4.85673e-07 0)
(2.99999 1.17858e-06 0)
(2.99996 2.90467e-06 0)
(2.99991 7.17835e-06 0)
(2.99978 1.74441e-05 0)
(2.99945 4.37334e-05 0)
(2.99863 0.000104373 0)
(2.99663 0.00026385 0)
(2.99151 0.000626971 0)
(2.97879 0.00159918 0)
(2.94533 0.00392454 0)
(2.85262 0.0103722 0)
(2.58177 0.0285422 0)
(1.79575 0.0823946 0)
(0.876693 0.218441 0)
(0.583194 0.180426 0)
(0.708818 0.160861 0)
(0.835345 0.161702 0)
(3 1.31213e-10 0)
(3 1.22732e-09 0)
(3 3.12218e-09 0)
(3 1.21118e-08 0)
(3 2.39843e-08 0)
(3 7.93258e-08 0)
(3 1.5644e-07 0)
(2.99999 4.7827e-07 0)
(2.99999 9.90046e-07 0)
(2.99997 2.80354e-06 0)
(2.99992 6.28499e-06 0)
(2.99979 1.61528e-05 0)
(2.99949 3.96176e-05 0)
(2.99871 9.27172e-05 0)
(2.99684 0.000250062 0)
(2.99204 0.000549369 0)
(2.98013 0.00153607 0)
(2.94879 0.00356797 0)
(2.86261 0.00969203 0)
(2.61005 0.02643 0)
(1.86992 0.0763611 0)
(0.910225 0.206466 0)
(0.55219 0.162451 0)
(0.697095 0.143127 0)
(0.834665 0.142817 0)
(3 1.57617e-10 0)
(3 9.17732e-10 0)
(3 3.39406e-09 0)
(3 9.00613e-09 0)
(3 2.55226e-08 0)
(3 6.05635e-08 0)
(3 1.63249e-07 0)
(2.99999 3.79288e-07 0)
(2.99999 9.87669e-07 0)
(2.99997 2.34653e-06 0)
(2.99992 5.97247e-06 0)
(2.9998 1.43889e-05 0)
(2.99951 3.57685e-05 0)
(2.9988 8.88075e-05 0)
(2.99701 0.000216701 0)
(2.99258 0.000547655 0)
(2.98131 0.00132589 0)
(2.95207 0.00339816 0)
(2.87173 0.00874712 0)
(2.63623 0.0242718 0)
(1.94 0.0698343 0)
(0.939808 0.192536 0)
(0.521206 0.144757 0)
(0.687478 0.125783 0)
(0.836047 0.124518 0)
(3 1.23308e-10 0)
(3 7.46496e-10 0)
(3 2.76119e-09 0)
(3 7.30206e-09 0)
(3 2.06103e-08 0)
(3 5.01781e-08 0)
(3 1.30318e-07 0)
(3 3.25335e-07 0)
(2.99999 7.91155e-07 0)
(2.99997 2.06375e-06 0)
(2.99993 4.82041e-06 0)
(2.99981 1.29733e-05 0)
(2.99955 2.93558e-05 0)
(2.99886 8.13877e-05 0)
(2.99722 0.000179813 0)
(2.99296 0.00050083 0)
(2.98251 0.00113522 0)
(2.95497 0.00305935 0)
(2.87992 0.00772455 0)
(2.6605 0.0216742 0)
(2.00509 0.0625355 0)
(0.967006 0.175729 0)
(0.492056 0.126635 0)
(0.679829 0.108409 0)
(0.838035 0.106259 0)
(3 7.73571e-11 0)
(3 6.08355e-10 0)
(3 1.68573e-09 0)
(3 6.06336e-09 0)
(3 1.33891e-08 0)
(3 3.95341e-08 0)
(3 9.38352e-08 0)
(3 2.38211e-07 0)
(2.99999 6.45798e-07 0)
(2.99997 1.41086e-06 0)
(2.99993 4.27735e-06 0)
(2.99983 8.58874e-06 0)
(2.99957 2.78841e-05 0)
(2.99893 5.19003e-05 0)
(2.99736 0.000178217 0)
(2.99337 0.000329901 0)
(2.98344 0.00109374 0)
(2.95756 0.00233989 0)
(2.88721 0.00681628 0)
(2.68171 0.0183019 0)
(2.06519 0.0541954 0)
(0.990601 0.155769 0)
(0.464904 0.107958 0)
(0.672549 0.0912191 0)
(0.837933 0.0885548 0)
(3 5.90977e-11 0)
(3 3.93551e-10 0)
(3 1.29453e-09 0)
(3 3.96246e-09 0)
(3 1.00558e-08 0)
(3 2.6755e-08 0)
(3 6.67849e-08 0)
(3 1.68941e-07 0)
(2.99999 4.46067e-07 0)
(2.99997 1.07616e-06 0)
(2.99993 2.90573e-06 0)
(2.99983 6.99424e-06 0)
(2.99959 1.88541e-05 0)
(2.99899 4.51432e-05 0)
(2.99745 0.000123255 0)
(2.99373 0.000290126 0)
(2.98418 0.000798889 0)
(2.95975 0.00194343 0)
(2.89325 0.00535351 0)
(2.69997 0.0148407 0)
(2.11884 0.0445398 0)
(1.01189 0.132192 0)
(0.443021 0.089067 0)
(0.666094 0.0750609 0)
(0.835546 0.0723387 0)
(3 6.83989e-11 0)
(3 1.39515e-10 0)
(3 1.31522e-09 0)
(3 1.40704e-09 0)
(3 9.36157e-09 0)
(3 1.14762e-08 0)
(3 5.66502e-08 0)
(3 8.54322e-08 0)
(2.99999 3.26831e-07 0)
(2.99997 6.51183e-07 0)
(2.99994 1.8928e-06 0)
(2.99984 4.79951e-06 0)
(2.9996 1.09291e-05 0)
(2.99901 3.58549e-05 0)
(2.99756 6.57089e-05 0)
(2.99394 0.00025186 0)
(2.98482 0.000451259 0)
(2.96137 0.00154902 0)
(2.89802 0.00368351 0)
(2.71475 0.0110384 0)
(2.16473 0.0336244 0)
(1.03281 0.102872 0)
(0.428668 0.069811 0)
(0.660813 0.0601683 0)
(0.832006 0.0572838 0)
(3 4.43311e-11 0)
(3 7.44825e-11 0)
(3 8.44972e-10 0)
(3 7.34989e-10 0)
(3 5.89804e-09 0)
(3 6.3391e-09 0)
(3 3.50511e-08 0)
(3 4.8702e-08 0)
(2.99999 1.98859e-07 0)
(2.99997 3.80955e-07 0)
(2.99994 1.0769e-06 0)
(2.99984 2.89625e-06 0)
(2.99961 6.11462e-06 0)
(2.99903 2.10864e-05 0)
(2.99763 3.59109e-05 0)
(2.99405 0.000147886 0)
(2.98526 0.000253989 0)
(2.96249 0.000939511 0)
(2.90117 0.00220769 0)
(2.7259 0.00683144 0)
(2.19935 0.0212581 0)
(1.05127 0.0662932 0)
(0.419923 0.0507347 0)
(0.656118 0.045908 0)
(0.828094 0.0424064 0)
(3 -4.69266e-12 0)
(3 1.80323e-10 0)
(3 -1.15443e-11 0)
(3 1.73114e-09 0)
(3 5.2297e-10 0)
(3 9.4035e-09 0)
(3 8.366e-09 0)
(3 4.80276e-08 0)
(2.99999 9.23289e-08 0)
(2.99997 2.04912e-07 0)
(2.99994 7.76081e-07 0)
(2.99984 8.5055e-07 0)
(2.99962 5.8906e-06 0)
(2.99904 3.26049e-06 0)
(2.99767 4.04762e-05 0)
(2.99412 1.67995e-05 0)
(2.98548 0.000253624 0)
(2.96303 0.000259108 0)
(2.90297 0.00134124 0)
(2.73138 0.00313024 0)
(2.21848 0.0104143 0)
(1.06307 0.0319238 0)
(0.416199 0.0320723 0)
(0.652241 0.0298145 0)
(0.824428 0.0262382 0)
(3 -7.56516e-13 0)
(3 8.12265e-11 0)
(3 -7.33096e-11 0)
(3 7.2961e-10 0)
(3 1.44526e-11 0)
(3 2.40557e-09 0)
(3 7.07267e-09 0)
(3 2.43759e-09 0)
(2.99999 8.30468e-08 0)
(2.99997 -8.8253e-08 0)
(2.99994 7.28908e-07 0)
(2.99985 -9.56822e-07 0)
(2.99961 5.06838e-06 0)
(2.99906 -6.91911e-06 0)
(2.99764 3.18899e-05 0)
(2.99423 -3.56334e-05 0)
(2.98546 0.000160466 0)
(2.96339 -5.66614e-05 0)
(2.90365 0.000580986 0)
(2.73351 0.000753894 0)
(2.22586 0.00311065 0)
(1.06994 0.00895415 0)
(0.41634 0.0115676 0)
(0.650055 0.0107565 0)
(0.822166 0.0092509 0)
(1.11503 0.992253 0)
(0.996297 0.698864 0)
(0.110851 0.42871 0)
(-0.405132 0.0208281 0)
(-0.516261 -0.0132077 0)
(-0.658489 -0.0247991 0)
(-0.702893 -0.0204036 0)
(-0.723193 -0.000966918 0)
(-0.746331 0.0134125 0)
(-0.777422 0.0168826 0)
(-0.800157 0.0153561 0)
(-0.806766 0.00998954 0)
(-0.803683 0.00358066 0)
(-0.796913 -0.00195317 0)
(-0.787537 -0.00365436 0)
(-0.772477 -0.0041451 0)
(-0.750304 -0.00485695 0)
(-0.721804 -0.00591494 0)
(-0.688131 -0.00690645 0)
(-0.650437 -0.00782133 0)
(-0.60962 -0.00870114 0)
(-0.566461 -0.00955132 0)
(-0.52153 -0.010416 0)
(-0.475257 -0.0113877 0)
(-0.426769 -0.0132782 0)
(-0.377415 -0.0146313 0)
(-0.327906 -0.0159257 0)
(-0.278689 -0.0171164 0)
(-0.229996 -0.018446 0)
(-0.181743 -0.0196474 0)
(-0.133759 -0.02069 0)
(-0.0863243 -0.0216564 0)
(-0.0399551 -0.0231151 0)
(0.00876089 -0.025253 0)
(0.0586271 -0.0239848 0)
(0.103145 -0.022349 0)
(0.147308 -0.0215387 0)
(0.189776 -0.0209981 0)
(0.230743 -0.0202266 0)
(0.270503 -0.0195806 0)
(0.307644 -0.0187819 0)
(0.344073 -0.0184391 0)
(0.382243 -0.0186962 0)
(0.420488 -0.0184609 0)
(0.457107 -0.0177816 0)
(0.492447 -0.0171297 0)
(0.526832 -0.016519 0)
(0.560424 -0.0160158 0)
(0.593192 -0.0155055 0)
(0.625253 -0.0150125 0)
(0.656604 -0.0145269 0)
(0.687273 -0.0140462 0)
(0.717292 -0.0135667 0)
(0.746667 -0.0130978 0)
(0.775416 -0.0126229 0)
(0.803562 -0.0121627 0)
(0.831106 -0.0116983 0)
(0.858079 -0.0112477 0)
(0.884487 -0.0107962 0)
(0.910355 -0.0103569 0)
(0.935686 -0.00991933 0)
(0.960506 -0.00948882 0)
(0.984821 -0.00906348 0)
(1.00865 -0.00864201 0)
(1.032 -0.00822635 0)
(1.05488 -0.00781467 0)
(1.07729 -0.00740893 0)
(1.09925 -0.00700952 0)
(1.12076 -0.00661766 0)
(1.14183 -0.00623475 0)
(1.16245 -0.00586217 0)
(1.18264 -0.00550109 0)
(1.20239 -0.00515356 0)
(1.22171 -0.0048198 0)
(1.24061 -0.00450101 0)
(1.25908 -0.00419697 0)
(1.27713 -0.00390847 0)
(1.29476 -0.00363453 0)
(1.31196 -0.00337626 0)
(1.32871 -0.00313304 0)
(1.345 -0.00290558 0)
(1.36081 -0.00269251 0)
(1.37611 -0.00249342 0)
(1.39086 -0.0023146 0)
(1.40502 -0.00215581 0)
(1.41854 -0.00201497 0)