/*--------------------------------*- C++ -*----------------------------------*\
  =========                 |
  \\      /  F ield         | OpenFOAM: The Open Source CFD Toolbox
   \\    /   O peration     | Website:  https://openfoam.org
    \\  /    A nd           | Version:  9
     \\/     M anipulation  |
\*---------------------------------------------------------------------------*/
FoamFile
{
    format      ascii;
    class       volScalarField;
    location    "24";
    object      p;
}
// * * * * * * * * * * * * * * * * * * * * * * * * * * * * * * * * * * * * * //

dimensions      [0 2 -2 0 0 0 0];

internalField   nonuniform List<scalar> 
400
(
5.5172158e-07
-0.00067225224
-0.0013847188
-0.0019420693
-0.0022193563
-0.0021558483
-0.00172714
-0.00092554728
0.00023607316
0.0017080559
0.0033879334
0.0051128405
0.0066741209
0.0078497461
0.0084590367
0.0084243376
0.0078140588
0.0068451878
0.0058619744
0.0052996203
0.00065845569
-3.9900872e-05
-0.00056903087
-0.00093999133
-0.0011102237
-0.0010392767
-0.00070514174
-9.4893109e-05
0.00078975234
0.0019168385
0.0032102356
0.0045553526
0.0057826111
0.0067169081
0.0072150806
0.0072151902
0.0067706205
0.0060534388
0.0053112012
0.0047391624
0.001424313
0.00044127023
-0.00011597534
-0.00045261334
-0.00061417297
-0.0005841701
-0.00034593404
0.00012039306
0.0008291113
0.0017705585
0.002894943
0.0040988155
0.0052288914
0.006111628
0.0065945281
0.0065983277
0.006156404
0.0054221803
0.0045944194
0.0037489106
0.0020148047
0.00068230254
1.7391188e-05
-0.00035822611
-0.0005709161
-0.00062591977
-0.00050943603
-0.00018997829
0.0003691584
0.0011850442
0.0022305716
0.0034180852
0.0045920245
0.0055576012
0.0061242176
0.0061672283
0.0056842917
0.004817725
0.0037479709
0.0024742811
0.0021678733
0.00049673178
-0.00029563888
-0.00074807888
-0.0010576193
-0.0012446279
-0.001292097
-0.0011506414
-0.0007543827
-5.2429506e-05
0.00095769525
0.0022109528
0.0035453791
0.0047333335
0.0055225145
0.0057105565
0.005229962
0.0042022841
0.0028068687
0.00098465136
0.0016545655
-0.00031386408
-0.0012381654
-0.0017986711
-0.0022520225
-0.0026272588
-0.0028979586
-0.0029904078
-0.002801852
-0.0022369867
-0.0012504054
0.00013158079
0.0017453331
0.0033277955
0.0045423267
0.0050664593
0.0047181764
0.0035668835
0.0017902842
-0.00072522337
0.00028763481
-0.001918949
-0.0029723694
-0.0036707439
-0.0043196457
-0.0049525349
-0.0055294393
-0.0059472575
-0.0060582939
-0.0057066619
-0.0047749931
-0.0032579776
-0.0012657974
0.0009078842
0.0028238277
0.0039875316
0.0040257864
0.0028884013
0.0007160779
-0.0026797918
-0.0020758068
-0.0044505584
-0.0056261623
-0.0064916705
-0.0073922533
-0.008365077
-0.0093562147
-0.010231057
-0.010790229
-0.010804087
-0.0100626
-0.0084610035
-0.0060400184
-0.0030824801
-0.0001255815
0.0021133375
0.0029645335
0.0021362856
-0.00036532579
-0.0048718911
-0.0055235264
-0.0079914641
-0.0092772619
-0.010333118
-0.011537312
-0.012934708
-0.014461974
-0.015955561
-0.017161686
-0.017765242
-0.017437281
-0.015918674
-0.013122168
-0.0092509836
-0.0048982504
-0.0010292761
0.0012701351
0.0012784813
-0.0013332393
-0.0072009478
-0.01007625
-0.012564427
-0.013935987
-0.015183312
-0.016717671
-0.018601893
-0.020773442
-0.023047978
-0.025120874
-0.026585524
-0.026968514
-0.025812105
-0.022844847
-0.018073635
-0.012050299
-0.0059511853
-0.0013699927
0.00030132602
-0.0019464746
-0.0093814871
-0.0156843
-0.018131725
-0.01953686
-0.020926097
-0.022757007
-0.025129123
-0.027996231
-0.031165597
-0.034290632
-0.036875991
-0.038293307
-0.037843412
-0.035064998
-0.029600627
-0.021821678
-0.012984784
-0.0051842096
-0.00071500555
-0.0017634641
-0.010791514
-0.02224289
-0.024612329
-0.025944881
-0.027334233
-0.029323413
-0.032078453
-0.035588147
-0.039663833
-0.043926425
-0.047800429
-0.050529304
-0.051235603
-0.048956009
-0.043142695
-0.033768186
-0.021925539
-0.010036107
-0.001414692
-9.1300459e-06
-0.010224882
-0.029640492
-0.031923173
-0.032978021
-0.034079137
-0.035938759
-0.038830732
-0.042794805
-0.047650758
-0.052989687
-0.058162718
-0.062283366
-0.064264655
-0.062874297
-0.057111347
-0.046475925
-0.031648294
-0.015037092
-0.00086364241
0.0046474937
-0.0055208139
-0.037865273
-0.040047788
-0.040439407
-0.040751781
-0.042014305
-0.044652295
-0.048757389
-0.054143231
-0.060355189
-0.066664492
-0.072059828
-0.07526743
-0.074810529
-0.06926846
-0.057627526
-0.039960749
-0.01824723
0.0027897638
0.014445869
0.0069082466
-0.047229852
-0.049133641
-0.048139861
-0.046881566
-0.046904768
-0.048797948
-0.052667515
-0.058275207
-0.065075272
-0.072231159
-0.078594934
-0.082711502
-0.082879417
-0.077308631
-0.064523209
-0.043934248
-0.016747295
0.012503633
0.032939463
0.032409618
-0.058896057
-0.059639174
-0.05588322
-0.051940348
-0.049971601
-0.050629152
-0.053927903
-0.059494568
-0.06661106
-0.074284484
-0.081190362
-0.08567862
-0.085831046
-0.079521482
-0.064875424
-0.040688617
-0.0072402848
0.032140006
0.064982085
0.077749806
-0.076225798
-0.072613034
-0.063515515
-0.055434718
-0.050724342
-0.049780897
-0.052311619
-0.057663618
-0.064891048
-0.072774186
-0.079778587
-0.084035991
-0.083390936
-0.075348286
-0.05760204
-0.028374538
0.012933911
0.065397065
0.1155521
0.15150681
-0.10809156
-0.089555669
-0.071233197
-0.057232389
-0.049071504
-0.046329559
-0.048076573
-0.053201883
-0.060433873
-0.068295103
-0.075026636
-0.078526179
-0.076388309
-0.065809022
-0.04386487
-0.007817873
0.044394225
0.1129987
0.18838098
0.27186132
-0.17684491
-0.10828905
-0.076201863
-0.054650641
-0.04299178
-0.038997405
-0.040569848
-0.045927343
-0.053440808
-0.061437614
-0.068026843
-0.070961836
-0.067550448
-0.054739188
-0.029148208
0.013564172
0.078147506
0.1700649
0.289496
0.47421876
-0.37208294
-0.1247079
-0.054972478
-0.031961931
-0.022062967
-0.020299911
-0.024358813
-0.031957318
-0.041260846
-0.050640154
-0.058316165
-0.062186741
-0.059781859
-0.048056156
-0.022657914
0.021474788
0.092819278
0.21015331
0.40288897
0.77640983
)
;

boundaryField
{
    movingWall
    {
        type            zeroGradient;
    }
    fixedWalls
    {
        type            zeroGradient;
    }
    frontAndBack
    {
        type            empty;
    }
}


// ************************************************************************* //
