/*--------------------------------*- C++ -*----------------------------------*\
  =========                 |
  \\      /  F ield         | OpenFOAM: The Open Source CFD Toolbox
   \\    /   O peration     | Website:  https://openfoam.org
    \\  /    A nd           | Version:  9
     \\/     M anipulation  |
\*---------------------------------------------------------------------------*/
FoamFile
{
    format      ascii;
    class       surfaceScalarField;
    location    "24";
    object      phi_0;
}
// * * * * * * * * * * * * * * * * * * * * * * * * * * * * * * * * * * * * * //

dimensions      [0 3 -1 0 0 0 0];

internalField   nonuniform List<scalar> 
760
(
1.2699841e-05
-1.270623e-05
-2.8724716e-05
4.1424564e-05
-0.00012229247
9.3567762e-05
-0.00025039642
0.00012810396
-0.00039607526
0.00014567885
-0.00054539161
0.00014931635
-0.00068627239
0.00014088079
-0.00080689323
0.00012062085
-0.00089495375
8.8060525e-05
-0.00093839188
4.3438135e-05
-0.00092727562
-1.1116257e-05
-0.00085686268
-7.0412936e-05
-0.00073042957
-0.0001264331
-0.00056134171
-0.00016908783
-0.00037276024
-0.00018858146
-0.00019447407
-0.00017828617
-5.6522166e-05
-0.0001379519
1.9614147e-05
-7.6136302e-05
3.0411143e-05
-1.0796979e-05
3.0411153e-05
-4.3184114e-05
3.047789e-05
-0.00020456714
0.0002028076
-0.0004683248
0.00035732544
-0.00080070714
0.00046048632
-0.001167349
0.00051232071
-0.0015364471
0.00051841451
-0.0018782245
0.00048265821
-0.0021636784
0.00040607477
-0.0023645401
0.00028892218
-0.0024553468
0.0001342449
-0.00241814
-4.8323073e-05
-0.0022453559
-0.00024319698
-0.0019475545
-0.00042423455
-0.0015544675
-0.00056217479
-0.0011143201
-0.00062872885
-0.00068747407
-0.00060513215
-0.00033452544
-0.00049090052
-0.00010089687
-0.00030976487
-1.5520684e-06
-0.00011014176
2.8859092e-05
-0.00011002766
0.00014050556
-0.0004030323
0.00049581226
-0.00083138899
0.00078568214
-0.0013456181
0.00097471546
-0.0018985993
0.001065302
-0.0024465812
0.0010663964
-0.0029480324
0.00098410941
-0.0033626181
0.00082066051
-0.0036518895
0.00057819356
-0.0037823159
0.00026467136
-0.0037298213
-0.0001008177
-0.0034858092
-0.00048720907
-0.0030632706
-0.00084677311
-0.0024999897
-0.0011254557
-0.0018582313
-0.0012704872
-0.0012181421
-0.0012452213
-0.00066373567
-0.0010453069
-0.00026308939
-0.00071041113
-4.7956381e-05
-0.00032527476
-1.9097278e-05
-0.00017343989
0.00031394546
-0.0005932931
0.00091566548
-0.0011776966
0.0013700857
-0.001858372
0.0016553909
-0.0025769112
0.0017838412
-0.0032813105
0.0017707957
-0.0039227955
0.0016255944
-0.004454137
0.001352002
-0.0048302591
0.00095431562
-0.0050112316
0.00044564391
-0.0049672493
-0.00014480002
-0.0046844261
-0.00077003223
-0.0041723419
-0.0013588573
-0.0034691199
-0.0018286777
-0.002644004
-0.0020956032
-0.0017931972
-0.0020960281
-0.0010258485
-0.0018126556
-0.00044021419
-0.0012960454
-9.672376e-05
-0.00066876517
-0.00011582103
-0.00022979569
0.00054374116
-0.00076507524
0.001450945
-0.0014914865
0.0020964969
-0.0023225492
0.0024864536
-0.0031901426
0.0026514346
-0.0040368246
0.0026174777
-0.0048100386
0.0023988084
-0.005458966
0.0020009295
-0.005934182
0.0014295317
-0.0061898123
0.00070127423
-0.0061883929
-0.00014621948
-0.005905564
-0.0010528611
-0.0053404022
-0.0019240191
-0.0045231038
-0.002645976
-0.0035229673
-0.0030957397
-0.0024497986
-0.0031691967
-0.0014425359
-0.0028199182
-0.00064122977
-0.0020973515
-0.0001488366
-0.0011611583
-0.00026465762
-0.00027729789
0.00082103905
-0.00091154729
0.0020851945
-0.0017607308
0.0029456805
-0.0027228094
0.0034485322
-0.003722212
0.0036508372
-0.0046986951
0.0035939609
-0.0055988912
0.0032990045
-0.0063711905
0.0027732287
-0.0069637272
0.0020220685
-0.0073248345
0.0010623816
-0.0074074568
-6.3597123e-05
-0.0071716889
-0.001288629
-0.0065988796
-0.0024968284
-0.0057016699
-0.0035431857
-0.0045400099
-0.0042573997
-0.0032318352
-0.0044773714
-0.0019490162
-0.0041027372
-0.00088728553
-0.0031590822
-0.0002115937
-0.0018368501
-0.00047625131
-0.00031411531
0.0011351544
-0.001026337
0.0027974162
-0.0019735041
0.0038928476
-0.0030417485
0.0045167766
-0.0041507091
0.0047597978
-0.0052399345
0.0046831863
-0.0062580625
0.0043171325
-0.0071555138
0.00367068
-0.0078803547
0.0027469094
-0.0083768291
0.0015588561
-0.008585376
0.00014494982
-0.0084513065
-0.0014226985
-0.0079294865
-0.0030186484
-0.0070049517
-0.0044677206
-0.0057150332
-0.0055473182
-0.0041735729
-0.0060188317
-0.002581839
-0.005694471
-0.0012041019
-0.0045368193
-0.00029450332
-0.0027464487
-0.00077075462
-0.00033824737
0.0014734017
-0.0011031656
0.0035623344
-0.0021176274
0.0049073094
-0.0032598795
0.0056590288
-0.0044473936
0.0059473119
-0.0056219454
0.0058577381
-0.0067369297
0.0054321169
-0.0077479457
0.004681696
-0.008606352
0.0036053157
-0.0092552278
0.0022077318
-0.0096269916
0.00051671371
-0.0096491838
-0.0014005062
-0.0092489602
-0.003418872
-0.0083739253
-0.0053427554
-0.0070220578
-0.0068991857
-0.0052818026
-0.0077590868
-0.0033676596
-0.007608614
-0.0016173598
-0.0062871191
-0.00040826797
-0.0039555406
-0.0011790226
-0.00034815513
0.0018215569
-0.0011372117
0.004351391
-0.0021827823
0.00595288
-0.0033586106
0.0068348571
-0.0045822303
0.0071709316
-0.0057998075
0.0070753153
-0.0069721781
0.0066044876
-0.0080636501
0.005773168
-0.0090334231
0.0045750887
-0.0098289749
0.0030032837
-0.010381256
0.0010689947
-0.010604508
-0.0011772543
-0.010400761
-0.003622619
-0.0096748801
-0.0060686361
-0.0083686616
-0.0082054042
-0.0065156748
-0.0096120735
-0.0043098774
-0.0098144114
-0.0021483195
-0.008448677
-0.00056492419
-0.0055389359
-0.0017439468
-0.00034393418
0.0021654911
-0.0011278576
0.0051353144
-0.0021647059
0.0069897284
-0.0033258963
0.0079960474
-0.004530795
0.0083758303
-0.0057319354
0.0082764557
-0.0069002116
0.0077727637
-0.0080123711
0.0068853276
-0.0090408155
0.0056035332
-0.0099449564
0.0039074246
-0.010663384
0.0017874228
-0.011106735
-0.00073390339
-0.01116341
-0.0035659443
-0.010697118
-0.0065349284
-0.0095825895
-0.0093199324
-0.0077667685
-0.011427895
-0.0053714946
-0.012209685
-0.0028071748
-0.011012997
-0.0007783677
-0.007567743
-0.0025223145
-0.00032890786
0.0024943989
-0.0010824211
0.0058888276
-0.0020707762
0.0079780835
-0.0031636114
0.0090888826
-0.0042838999
0.0094961189
-0.0053928511
0.009385407
-0.0064741383
0.0088540508
-0.0075205464
0.0079317357
-0.0085229169
0.0066059037
-0.0094603441
0.0048448519
-0.010291332
0.0026184105
-0.010933226
-9.2008817e-05
-0.011283211
-0.0032159599
-0.011173631
-0.0066445082
-0.01041571
-0.010077853
-0.0088467317
-0.012996873
-0.0064557494
-0.014600668
-0.0035815237
-0.013887222
-0.0010642216
-0.010085045
-0.003586536
-0.00031178472
0.0028061837
-0.0010206804
0.0065977233
-0.0019261025
0.0088835056
-0.0028949525
0.010057733
-0.0038568872
0.010458054
-0.0047855688
0.010314089
-0.0056807729
0.0097492549
-0.0065544635
0.0088054261
-0.0074198982
0.0074713385
-0.0082818347
0.0057067883
-0.0091251654
0.0034617413
-0.0099086495
0.00069147534
-0.010527265
-0.0025973443
-0.01082702
-0.0063447531
-0.010573632
-0.010331241
-0.0094932095
-0.014077295
-0.0073911376
-0.016702739
-0.0044189127
-0.016859447
-0.0014372105
-0.013066747
-0.0050237465
-0.00031004395
0.0031162276
-0.00098036792
0.0072680474
-0.0017790543
0.0096821919
-0.0025693738
0.010848052
-0.0032946058
0.011183286
-0.0039479088
0.010967392
-0.0045499842
0.01035133
-0.0051348012
0.0093902431
-0.0057399371
0.0080764743
-0.0063985422
0.0063653935
-0.007130145
0.0041933441
-0.0079302765
0.0014916069
-0.0087388218
-0.001788799
-0.0094303725
-0.0056532023
-0.0097685915
-0.0099930225
-0.0094003502
-0.014445537
-0.0079305822
-0.018172507
-0.0052061614
-0.019583868
-0.0019026114
-0.016370297
-0.006926358
-0.00035604178
0.0034722694
-0.0010240017
0.0079360073
-0.0017042383
0.010362429
-0.0022608098
0.011404624
-0.0026657362
0.011588212
-0.0029440269
0.011245683
-0.0031442682
0.010551572
-0.0033248877
0.0095708626
-0.0035472142
0.0082988009
-0.0038710676
0.0066892469
-0.0043491927
0.0046714692
-0.0050184015
0.0021608157
-0.005876633
-0.00093056746
-0.0068578533
-0.004671982
-0.0077763033
-0.0090745724
-0.0082658464
-0.013955994
-0.0077687466
-0.018669607
-0.0057511019
-0.021601513
-0.0024366713
-0.019684728
-0.0093630292
-0.00050826294
0.0039805323
-0.001245637
0.0086733813
-0.0017958938
0.010912685
-0.0020480132
0.011656743
-0.002032524
0.011572723
-0.0018254473
0.011038606
-0.0015122161
0.010238341
-0.0011778854
0.009236532
-0.00090473964
0.0080256552
-0.00077374702
0.0065582543
-0.00086351666
0.0047612389
-0.0012473832
0.0025446822
-0.0019828558
-0.00019509485
-0.0030818897
-0.0035729481
-0.00446005
-0.0076964121
-0.0058275012
-0.012588542
-0.0065661732
-0.017930935
-0.0057684515
-0.022399235
-0.0029512259
-0.022501953
-0.012314255
-0.00086855521
0.0048490877
-0.0017629888
0.0095678149
-0.0021213651
0.011271061
-0.0019368585
0.011472237
-0.0013509378
0.010986802
-0.00051621071
0.010203879
0.0004370215
0.0092851084
0.0013995932
0.0082739602
0.0022723565
0.0071528919
0.0029608956
0.0058697153
0.0033691315
0.004353003
0.0033967811
0.0025170327
0.0029385282
0.00026315805
0.0019095946
-0.0025440145
0.00026967018
-0.0060564877
-0.0018541758
-0.010464696
-0.0039516051
-0.015833506
-0.0048608395
-0.02149
-0.003254705
-0.024108088
-0.01556896
-0.0015910855
0.0064401732
-0.0026108571
0.010587587
-0.0025131443
0.011173348
-0.0015899174
0.01054901
-0.00017218402
0.0095690689
0.0014927854
0.0085389094
0.0032328805
0.0075450134
0.004923219
0.0065836216
0.0064629778
0.0056131331
0.0077574827
0.0045752104
0.0087074893
0.0034029964
0.0092014787
0.0020230433
0.0091033252
0.00036131163
0.0082750758
-0.0017157651
0.0065654474
-0.0043468593
0.0039042241
-0.0078034731
0.00055894608
-0.012488228
-0.0024680596
-0.018462994
-0.0030273187
-0.023548829
-0.018596279
-0.0027183603
0.0091585334
-0.0031498676
0.011019095
-0.0018030031
0.0098264835
0.00046669401
0.0082793127
0.0030894134
0.0069463494
0.0057737985
0.0058545243
0.0083628836
0.0049559283
0.01076038
0.0041861254
0.012893475
0.0034800384
0.014690643
0.002778042
0.016068329
0.0020253107
0.016923269
0.0011681032
0.017119699
0.00016488154
0.016490817
-0.0010868833
0.01481683
-0.0026728718
0.011846649
-0.0048332921
0.0074354862
-0.0080770648
0.0022629254
-0.013290434
-0.0012724683
-0.020013435
-0.019868747
-0.0024132792
0.011571812
2.8056959e-05
0.0085777593
0.0042551371
0.0055994039
0.0084161188
0.0041183311
0.012231478
0.00313099
0.015656254
0.0024297482
0.018686535
0.0019256474
0.021329177
0.0015434838
0.023583476
0.0012257389
0.025429211
0.00093230706
0.026820155
0.00063436651
0.027677168
0.00031109028
0.027900194
-5.8144123e-05
0.027347217
-0.00053390621
0.025771626
-0.0010972811
0.022843043
-0.0019047089
0.018054767
-0.0032887892
0.011113585
-0.0063492512
0.0033886747
-0.012288525
-0.016480072
0.011571812
0.020149571
0.025748975
0.029867306
0.032998296
0.035428044
0.037353691
0.038897175
0.040122914
0.041055221
0.041689588
0.042000678
0.041942534
0.041408628
0.040311346
0.038406638
0.035117848
0.028768597
0.016480072
)
;

boundaryField
{
    movingWall
    {
        type            calculated;
        value           uniform 0;
    }
    fixedWalls
    {
        type            calculated;
        value           uniform 0;
    }
    frontAndBack
    {
        type            empty;
        value           nonuniform List<scalar> 0();
    }
}


// ************************************************************************* //
