/*--------------------------------*- C++ -*----------------------------------*\
  =========                 |
  \\      /  F ield         | OpenFOAM: The Open Source CFD Toolbox
   \\    /   O peration     | Website:  https://openfoam.org
    \\  /    A nd           | Version:  9
     \\/     M anipulation  |
\*---------------------------------------------------------------------------*/
FoamFile
{
    format      ascii;
    class       volVectorField;
    location    "24";
    object      U;
}
// * * * * * * * * * * * * * * * * * * * * * * * * * * * * * * * * * * * * * //

dimensions      [0 1 -1 0 0 0 0];

internalField   nonuniform List<vector> 
400
(
(0.00028440786 -0.0002814287 0)
(0.00011064512 7.9949604e-05 0)
(-0.0013272125 0.00047802454 0)
(-0.0036219051 0.00073592756 0)
(-0.0064236569 0.00086752062 0)
(-0.0094314868 0.0009072705 0)
(-0.012388015 0.00087486845 0)
(-0.015056464 0.00077153252 0)
(-0.017194575 0.00058849059 0)
(-0.01855288 0.00032008437 0)
(-0.018902646 -2.4812513e-05 0)
(-0.018086164 -0.00041826748 0)
(-0.016079903 -0.00079972202 0)
(-0.013048944 -0.0010930818 0)
(-0.0093663882 -0.0012212104 0)
(-0.005577657 -0.0011294789 0)
(-0.0023003426 -0.00081287003 0)
(-8.2958544e-05 -0.00033798309 0)
(0.00076014566 0.0001522924 0)
(0.00040943967 0.00038933667 0)
(-8.6079393e-05 -0.00012362928 0)
(-0.0018692868 0.0017872267 0)
(-0.0063065418 0.0036260456 0)
(-0.012452705 0.0048624951 0)
(-0.019600679 0.0054985341 0)
(-0.027106999 0.0056206784 0)
(-0.034358956 0.0052860375 0)
(-0.040768954 0.0045043835 0)
(-0.045758256 0.00326622 0)
(-0.048775991 0.0015896502 0)
(-0.049366748 -0.00043547219 0)
(-0.047253934 -0.0026181926 0)
(-0.042452088 -0.0046645453 0)
(-0.035361559 -0.0062189245 0)
(-0.026778655 -0.0069375956 0)
(-0.017827282 -0.0065922754 0)
(-0.0097755442 -0.0051797844 0)
(-0.0037463007 -0.0029994393 0)
(-0.00038875738 -0.00066554096 0)
(0.00028989257 0.00078354314 0)
(-0.00058808656 0.0014336105 0)
(-0.0042428184 0.0063775008 0)
(-0.011758588 0.01064059 0)
(-0.021468741 0.013483627 0)
(-0.032366269 0.014898328 0)
(-0.043588112 0.015017408 0)
(-0.054287535 0.013936176 0)
(-0.063642694 0.011684244 0)
(-0.070855997 0.0082813582 0)
(-0.075188528 0.0038286469 0)
(-0.076039714 -0.0014059132 0)
(-0.073057908 -0.0069356592 0)
(-0.066266778 -0.012071763 0)
(-0.056169425 -0.016000274 0)
(-0.043780853 -0.017942765 0)
(-0.030569207 -0.01737997 0)
(-0.018250661 -0.014289986 0)
(-0.0084179743 -0.0093123061 0)
(-0.0021511234 -0.0037618404 0)
(-1.9718638e-06 0.00031696008 0)
(-0.0010530669 0.0043003714 0)
(-0.0065148665 0.013565733 0)
(-0.016999147 0.020864102 0)
(-0.030030944 0.025561262 0)
(-0.044300665 0.027761479 0)
(-0.058784406 0.027687973 0)
(-0.072487669 0.02548764 0)
(-0.084447064 0.021218413 0)
(-0.093729083 0.014945107 0)
(-0.099464355 0.0068783741 0)
(-0.10093027 -0.0025012782 0)
(-0.097662924 -0.012378434 0)
(-0.089593114 -0.02160541 0)
(-0.077182228 -0.028824794 0)
(-0.061505075 -0.032706075 0)
(-0.044253623 -0.032299928 0)
(-0.027562204 -0.027445901 0)
(-0.01358175 -0.019080703 0)
(-0.0040263501 -0.0092706991 0)
(-0.00026772107 -0.0011081976 0)
(-0.0014558629 0.0083650135 0)
(-0.0085490529 0.023181197 0)
(-0.021746198 0.034051607 0)
(-0.037792413 0.040763017 0)
(-0.055096842 0.043701681 0)
(-0.072519486 0.043258954 0)
(-0.088984313 0.039661402 0)
(-0.10345833 0.033001297 0)
(-0.11493208 0.023384201 0)
(-0.12243675 0.011116748 0)
(-0.12511516 -0.0031289064 0)
(-0.12231972 -0.018219318 0)
(-0.11376137 -0.032541536 0)
(-0.099698112 -0.04413254 0)
(-0.081100382 -0.050966201 0)
(-0.059776242 -0.051441156 0)
(-0.03829113 -0.045013581 0)
(-0.019520427 -0.032755512 0)
(-0.0060923331 -0.01749184 0)
(-0.00051102199 -0.0035220321 0)
(-0.0017889294 0.013475415 0)
(-0.010269692 0.034960769 0)
(-0.025805451 0.049908512 0)
(-0.04446667 0.058794659 0)
(-0.064427588 0.062458225 0)
(-0.084477391 0.061550763 0)
(-0.10351638 0.056415922 0)
(-0.12050332 0.047182116 0)
(-0.13440374 0.0339703 0)
(-0.1441737 0.017132369 0)
(-0.14880324 -0.002535861 0)
(-0.14739309 -0.02363632 0)
(-0.13931094 -0.044142508 0)
(-0.1244354 -0.061442011 0)
(-0.1034315 -0.072642203 0)
(-0.078055799 -0.075173816 0)
(-0.051260854 -0.067706668 0)
(-0.026809415 -0.051124122 0)
(-0.0086122892 -0.028965631 0)
(-0.00078707193 -0.0070521524 0)
(-0.0020420286 0.019436463 0)
(-0.01160562 0.048528782 0)
(-0.028995721 0.067998153 0)
(-0.049757606 0.079225813 0)
(-0.071891457 0.083657188 0)
(-0.09416186 0.082297536 0)
(-0.11549978 0.07564952 0)
(-0.13491472 0.06387678 0)
(-0.15140296 0.047075918 0)
(-0.16388443 0.025567777 0)
(-0.17119206 0.00016311619 0)
(-0.17215425 -0.027610481 0)
(-0.16571539 -0.05539613 0)
(-0.15119174 -0.079945513 0)
(-0.1287004 -0.097350963 0)
(-0.099669863 -0.10369837 0)
(-0.067241739 -0.096285942 0)
(-0.036119072 -0.0752201 0)
(-0.011929714 -0.044539765 0)
(-0.0011708155 -0.012001477 0)
(-0.0022012812 0.026013283 0)
(-0.012484687 0.063419377 0)
(-0.03113984 0.087764186 0)
(-0.053354444 0.10148994 0)
(-0.07701755 0.10677681 0)
(-0.10091184 0.10507347 0)
(-0.12404982 0.097087941 0)
(-0.14555145 0.083021199 0)
(-0.16450929 0.0629021 0)
(-0.1798756 0.036930821 0)
(-0.19039889 0.0057956264 0)
(-0.19465535 -0.029033228 0)
(-0.19113599 -0.065017841 0)
(-0.17848949 -0.098390788 0)
(-0.15602468 -0.12417717 0)
(-0.12444473 -0.13676251 0)
(-0.0866465 -0.13132883 0)
(-0.048063685 -0.10623266 0)
(-0.01642934 -0.065393137 0)
(-0.0017537892 -0.018878395 0)
(-0.0022557028 0.032933138 0)
(-0.012853684 0.079088214 0)
(-0.032098855 0.10853464 0)
(-0.05498173 0.12486385 0)
(-0.079334709 0.13109247 0)
(-0.10399401 0.12919891 0)
(-0.12810009 0.12015103 0)
(-0.15094481 0.10420125 0)
(-0.17179702 0.081278228 0)
(-0.18974441 0.051375579 0)
(-0.20357593 0.014915523 0)
(-0.21172878 -0.026875894 0)
(-0.21232488 -0.071532048 0)
(-0.20333789 -0.11502571 0)
(-0.18306257 -0.1514467 0)
(-0.1510177 -0.17328469 0)
(-0.10916544 -0.17282153 0)
(-0.06302628 -0.14524357 0)
(-0.022524934 -0.092977908 0)
(-0.0026589564 -0.028422145 0)
(-0.0022086296 0.039904364 0)
(-0.01271706 0.094943882 0)
(-0.031841246 0.12953971 0)
(-0.054496733 0.14845802 0)
(-0.078499959 0.15563499 0)
(-0.10277085 0.15366599 0)
(-0.12662125 0.14384567 0)
(-0.1495764 0.12651311 0)
(-0.17117072 0.10149237 0)
(-0.19075555 0.068517123 0)
(-0.20732689 0.027627683 0)
(-0.21937752 -0.020394024 0)
(-0.22488759 -0.073461618 0)
(-0.22130638 -0.1276884 0)
(-0.20585459 -0.17662014 0)
(-0.17647608 -0.21099155 0)
(-0.13334641 -0.21961269 0)
(-0.080899062 -0.19275355 0)
(-0.030641849 -0.12885236 0)
(-0.0040700639 -0.041636967 0)
(-0.0020933495 0.046663122 0)
(-0.012189724 0.11041817 0)
(-0.030536201 0.14996529 0)
(-0.052017568 0.17124245 0)
(-0.074464966 0.17919198 0)
(-0.096919867 0.17712062 0)
(-0.11891401 0.16672941 0)
(-0.14026647 0.14850251 0)
(-0.16086205 0.12219234 0)
(-0.1804432 0.087272653 0)
(-0.19840291 0.043352733 0)
(-0.21353681 -0.009389421 0)
(-0.22401459 -0.069676344 0)
(-0.22708284 -0.13413307 0)
(-0.21908953 -0.19645287 0)
(-0.1962664 -0.24625173 0)
(-0.15621918 -0.26885985 0)
(-0.10070616 -0.24798767 0)
(-0.041145968 -0.17433473 0)
(-0.0062706092 -0.059833832 0)
(-0.0019963343 0.053057305 0)
(-0.011565523 0.12508312 0)
(-0.028660995 0.16904466 0)
(-0.048056675 0.19210858 0)
(-0.067638513 0.20035613 0)
(-0.086643979 0.19791236 0)
(-0.10489601 0.18696688 0)
(-0.12256956 0.16821836 0)
(-0.13996415 0.14140901 0)
(-0.15729776 0.10579909 0)
(-0.17451577 0.060571952 0)
(-0.19108388 0.0052259915 0)
(-0.20560176 -0.05992212 0)
(-0.215506 -0.13260755 0)
(-0.21690146 -0.20752749 0)
(-0.20457809 -0.27431772 0)
(-0.17317488 -0.31571737 0)
(-0.12017093 -0.3080794 0)
(-0.05414745 -0.22988344 0)
(-0.0096748928 -0.084653029 0)
(-0.0020996122 0.059184131 0)
(-0.011414904 0.13881552 0)
(-0.027115464 0.18617291 0)
(-0.043624982 0.20994659 0)
(-0.058981405 0.21760105 0)
(-0.072778038 0.21419733 0)
(-0.085250207 0.20247331 0)
(-0.097001438 0.18339396 0)
(-0.10878891 0.15675613 0)
(-0.12135063 0.12168635 0)
(-0.1352543 0.077015588 0)
(-0.1507031 0.021618455 0)
(-0.16712239 -0.045110463 0)
(-0.18274033 -0.12251575 0)
(-0.1940538 -0.20712583 0)
(-0.19523522 -0.29011438 0)
(-0.17829435 -0.35358472 0)
(-0.13540548 -0.36743772 0)
(-0.069089005 -0.29415263 0)
(-0.014795018 -0.11798433 0)
(-0.0027677096 0.065619844 0)
(-0.012741051 0.15199827 0)
(-0.027330099 0.20099687 0)
(-0.040244699 0.22368322 0)
(-0.049928805 0.22933044 0)
(-0.05664366 0.22403715 0)
(-0.061232832 0.21108032 0)
(-0.064816261 0.19168161 0)
(-0.068620964 0.16572039 0)
(-0.07387527 0.13227361 0)
(-0.08172847 0.089960423 0)
(-0.093120375 0.037200366 0)
(-0.10846954 -0.027478819 0)
(-0.12721408 -0.10497611 0)
(-0.14705448 -0.19422047 0)
(-0.16280368 -0.28948615 0)
(-0.1650909 -0.37509908 0)
(-0.14090155 -0.41772664 0)
(-0.084061578 -0.36281372 0)
(-0.022011628 -0.16157393 0)
(-0.0047195979 0.073834685 0)
(-0.017222485 0.16572618 0)
(-0.031284458 0.21337802 0)
(-0.039683358 0.23217385 0)
(-0.041883655 0.23380212 0)
(-0.039351288 0.22539434 0)
(-0.033812776 0.21061231 0)
(-0.027000616 0.19081069 0)
(-0.020592276 0.16589798 0)
(-0.016215695 0.13493933 0)
(-0.015476638 0.096471051 0)
(-0.019925838 0.048690219 0)
(-0.030918901 -0.010412487 0)
(-0.049234539 -0.082920259 0)
(-0.074399346 -0.17014293 0)
(-0.10327686 -0.27050235 0)
(-0.12725474 -0.37369512 0)
(-0.12973508 -0.44868755 0)
(-0.094914849 -0.42750672 0)
(-0.030930666 -0.21612791 0)
(-0.0093000134 0.086952117 0)
(-0.02743215 0.18185327 0)
(-0.040981734 0.22303338 0)
(-0.042679566 0.2337894 0)
(-0.034405501 0.22880212 0)
(-0.019622693 0.21592284 0)
(-0.0012384795 0.19877995 0)
(0.018345493 0.17856472 0)
(0.037071474 0.1550836 0)
(0.053055687 0.12735945 0)
(0.064421579 0.093936385 0)
(0.069230939 0.053014698 0)
(0.065415047 0.0024627334 0)
(0.051047336 -0.060339219 0)
(0.024642843 -0.13837651 0)
(-0.013702109 -0.23417132 0)
(-0.058753968 -0.34517021 0)
(-0.093511052 -0.44953985 0)
(-0.094469973 -0.4755881 0)
(-0.039216127 -0.28048273 0)
(-0.018580325 0.11087148 0)
(-0.046039685 0.20177649 0)
(-0.055230092 0.22793156 0)
(-0.043984872 0.22501756 0)
(-0.019372465 0.21061286 0)
(0.012333443 0.19227997 0)
(0.046993176 0.17278492 0)
(0.081754269 0.15265397 0)
(0.11443799 0.13135286 0)
(0.14315331 0.10779558 0)
(0.16601686 0.080591665 0)
(0.18098115 0.048112218 0)
(0.18557601 0.0084493286 0)
(0.1771656 -0.040817476 0)
(0.15275932 -0.1031762 0)
(0.10948865 -0.18390621 0)
(0.047240387 -0.28855466 0)
(-0.021439391 -0.41051038 0)
(-0.072253004 -0.49101697 0)
(-0.0411475 -0.3505429 0)
(-0.033352251 0.15561546 0)
(-0.068601656 0.22040441 0)
(-0.055187349 0.2172922 0)
(-0.016078678 0.19532436 0)
(0.034511122 0.17092344 0)
(0.088507763 0.14849461 0)
(0.14176855 0.12861259 0)
(0.191969 0.11057759 0)
(0.23754066 0.09329761 0)
(0.27712013 0.075575103 0)
(0.30921811 0.056181503 0)
(0.33204326 0.033823342 0)
(0.3431756 0.007027291 0)
(0.33982877 -0.025910459 0)
(0.3181324 -0.067741758 0)
(0.27327715 -0.12410796 0)
(0.20044716 -0.20584712 0)
(0.10213972 -0.32506912 0)
(-0.012387314 -0.45457168 0)
(-0.023756667 -0.40864069 0)
(-0.033081122 0.23907319 0)
(-0.042647155 0.21792012 0)
(0.042207219 0.16426627 0)
(0.12760457 0.12783576 0)
(0.20769793 0.10143547 0)
(0.28028153 0.081658136 0)
(0.34487301 0.066648114 0)
(0.40158291 0.054703037 0)
(0.45055052 0.044399479 0)
(0.49162028 0.034639944 0)
(0.52416173 0.024550615 0)
(0.54698594 0.013381734 0)
(0.55822225 0.00039977323 0)
(0.55570932 -0.015137303 0)
(0.53552614 -0.03496916 0)
(0.49244652 -0.062488178 0)
(0.41797267 -0.10694762 0)
(0.30410591 -0.19317543 0)
(0.1231378 -0.33691905 0)
(0.052374199 -0.39437913 0)
(0.24299926 0.1525748 0)
(0.30529619 0.11854289 0)
(0.45481217 0.07610815 0)
(0.56000886 0.050840194 0)
(0.63223322 0.035126081 0)
(0.68654914 0.024812301 0)
(0.72943825 0.017960094 0)
(0.7637963 0.013255923 0)
(0.79127926 0.0097622024 0)
(0.81275143 0.0068543651 0)
(0.82841134 0.004118526 0)
(0.83794394 0.0012768654 0)
(0.84057071 -0.0018441922 0)
(0.83497554 -0.0053262515 0)
(0.81886696 -0.0098289575 0)
(0.78942866 -0.016232744 0)
(0.73784287 -0.026935705 0)
(0.65316764 -0.051286551 0)
(0.45609767 -0.11374603 0)
(0.31788988 -0.17206002 0)
)
;

boundaryField
{
    movingWall
    {
        type            fixedValue;
        value           uniform (1 0 0);
    }
    fixedWalls
    {
        type            fixedValue;
        value           uniform (0 0 0);
    }
    frontAndBack
    {
        type            empty;
    }
}


// ************************************************************************* //
