/*--------------------------------*- C++ -*----------------------------------*\
  =========                 |
  \\      /  F ield         | OpenFOAM: The Open Source CFD Toolbox
   \\    /   O peration     | Website:  https://openfoam.org
    \\  /    A nd           | Version:  9
     \\/     M anipulation  |
\*---------------------------------------------------------------------------*/
FoamFile
{
    format      ascii;
    class       volScalarField;
    location    "28";
    object      p;
}
// * * * * * * * * * * * * * * * * * * * * * * * * * * * * * * * * * * * * * //

dimensions      [0 2 -2 0 0 0 0];

internalField   nonuniform List<scalar> 
918
(
0.54692242
1.7927991
0.011966292
0.51201932
-0.0049479627
1.76346
-0.9583929
1.3341392
0.56891102
-0.16622011
-0.042689084
0.78099592
1.6348527
1.3944049
-0.70799738
0.014697455
1.2050835
-0.76258192
0.56691324
-0.036248577
1.4285155
0.51728473
0.54425572
0.51839791
0.95623595
1.3711389
1.4977951
-0.0040836904
-0.0064126422
-0.019289126
0.0032048646
-0.017550613
-0.0030438364
1.6397363
1.693757
1.7174459
0.55394176
0.54949195
-0.71240069
-0.82976482
-0.78046364
-1.0382679
1.3163558
1.3149985
-0.29472252
1.3387918
1.3559015
0.531679
0.56391084
0.57464214
0.51292463
0.5434146
0.55949869
0.48100838
-0.18244745
-0.24274162
-0.12518029
-0.10233801
0.074213065
-0.035485758
-0.038053628
-0.033365687
-0.030956056
0.60058386
0.74759018
0.72609448
0.79829555
0.83496771
1.7298952
1.6933376
1.7203164
1.6671404
1.6574455
1.6146983
1.5778493
1.4331602
1.4405379
1.3918725
1.3556125
-1.2418603
-2.2895417
-0.12583505
0.18331854
-0.019513883
0.026984579
0.031774049
1.1798634
1.1671446
1.2189123
1.2408409
1.296962
-0.70073125
-0.97254244
0.569803
0.56359125
0.55424281
0.53598271
0.58236517
0.62760758
-0.03926562
-0.027768543
-0.054014548
-0.039691258
-0.032992263
1.4090541
1.4007387
0.53285105
0.53733608
0.85246899
0.91173234
0.89174904
0.44159052
0.97553543
1.0079298
1.1685799
1.363834
1.3744808
1.3558976
1.4840072
1.4393734
1.5444665
1.5700514
0.0014266721
-0.013968562
0.041524313
0.026163604
0.024821298
0.56519612
0.57241417
0.58267685
0.54975787
0.5525339
0.49390986
0.3539952
0.6368684
0.65362468
-0.54191255
-0.62043769
-0.82301072
-0.84527871
-1.0562409
0.91228212
1.2966031
1.2931328
-0.36493812
-0.21653956
-0.43781415
-0.12899321
-0.18387526
0.54452879
0.54401575
0.54233925
0.53269411
0.53467576
0.53533617
0.54957579
0.54985943
0.56498602
0.55250037
0.69276836
0.42962188
0.3730748
-0.46404906
-0.27067092
-0.4437324
-0.084339927
-0.072641558
0.09595585
0.14284713
0.076132866
0.072590928
-0.05855275
-0.041803626
-0.050634174
-0.036084257
-0.030866148
0.59031047
0.59023454
0.59389863
0.59987557
0.64846854
0.65764224
0.70004413
0.68191687
1.5038161
1.5274853
1.5721757
1.5351113
-3.6864606
-6.3748296
0.51388154
0.69690074
-0.037683224
-0.039533412
-0.013419048
0.0024147098
-0.016158399
-0.0067702224
0.040513139
0.033244656
0.034151593
0.038822235
1.1334264
1.1177541
1.244598
1.2818161
1.161988
1.1519311
0.57430722
0.57141395
0.57808676
0.56974352
-0.035943677
-0.035687848
-0.027592494
1.361108
1.3866378
1.3786487
0.35712471
0.26177725
0.48086743
0.52132592
1.085097
1.0367292
1.0681045
1.2437921
1.278148
1.5595479
1.5715726
1.6094349
1.6062056
1.6545005
1.6468238
1.6052956
0.58863793
0.57577069
0.59202687
0.57190026
0.57847402
0.57582588
0.62537765
0.60299031
0.61396314
0.18846196
-0.14884873
0.7264105
0.71866896
0.69846316
0.69190336
0.98807684
1.0791698
1.2493168
1.2735084
1.2686239
-0.012812304
-0.047750448
0.3049547
0.27890142
0.54371195
0.57422428
0.56990998
1.4779281
1.4782567
1.5246495
1.4869088
1.428236
1.4509943
-0.17559127
-1.3428228
-0.72536807
1.1017356
0.88080598
0.98578789
0.035644857
0.035596015
0.018321751
1.2545678
1.316127
0.75226821
1.0023326
1.0040831
1.3260086
1.3487566
1.4203587
1.3460051
1.3724143
1.3968495
1.37986
0.85771623
0.76270964
0.78715139
1.125627
1.1780979
0.19136769
0.09455582
0.075567837
0.15460994
0.2112641
0.17841382
1.2826302
1.2217039
1.2922202
0.54378188
0.53582864
-0.02102309
-0.010851735
0.57494263
0.54904229
-0.003875422
0.01024609
0.96138276
-0.45645831
0.23664246
0.5779025
0.55722268
0.55786563
-0.15657125
0.44050567
-0.033866768
0.070278097
0.021335336
0.76260508
0.61943862
0.59805019
-0.05991111
-0.0069802282
-0.011828138
-0.370226
0.55077665
0.52997522
0.54742767
0.53175749
0.56453774
-0.046455123
-0.040256658
-0.033886039
-0.032742072
-0.033545309
-0.026277274
0.57642894
0.61086386
-0.26149487
0.5625343
0.54989304
0.56640302
0.52725632
0.5853216
0.53864807
0.0090880823
0.018250898
0.024290298
0.39746692
0.53871647
1.2801609
1.4323967
1.299566
0.91137274
0.5803088
1.1363568
1.2342955
1.0982542
1.2760904
1.273697
1.3204157
0.30499027
0.098528383
0.33425828
0.24798169
0.57479691
0.57724992
0.55398933
0.5480062
0.56549211
0.53756055
0.5668625
0.56969067
0.56752662
0.58344291
-0.083382293
-0.12099046
-0.14950466
-0.23782722
0.45521512
0.73183983
0.35509209
0.39539252
0.19571999
-0.024063497
-0.032996739
-0.031753691
-0.041234821
0.039133332
-0.0133075
0.094709801
0.097630836
0.081517223
0.025960415
0.0046324265
-0.016511747
0.018637587
0.71823314
0.6968947
0.75520961
0.80789193
0.61220633
0.59909092
0.6017079
0.61511904
0.60116045
0.54795731
0.59634633
0.56349743
-0.01512409
-0.054317127
-0.029123408
0.0043977437
0.023529577
-0.024531908
-0.040198763
-0.030699538
-0.020883091
-0.037751856
-0.00205111
-0.012515022
-0.31904524
-0.48216134
1.1980399
1.0567221
0.24889048
0.52786266
0.52835652
0.51469895
0.55519618
0.54344215
0.54784181
0.54809016
0.54457746
0.56289992
0.5565791
0.61182282
0.63138101
-0.18020418
-0.41158926
-0.15406809
-0.20455949
0.41731747
1.0793557
0.54464238
0.45987537
0.45802779
0.88351423
1.4967672
1.361065
1.3796385
1.4156925
-0.096998591
0.38712624
0.099852119
0.7780553
1.001756
1.2505826
1.30872
1.3131493
1.2828859
1.2191669
-0.0077296526
0.99212569
-0.050691949
-0.038618319
0.30748646
0.1201731
1.3316469
1.2454579
1.2464887
1.3040789
1.3397122
1.263187
1.2062293
1.22597
1.2930482
1.292534
0.91908668
0.43327649
0.34314753
0.31835592
1.1893921
0.99195453
1.0898124
0.90624112
0.56360085
0.58296556
0.56602855
0.54496504
0.555187
0.53792733
0.58546001
0.60778855
0.58093133
0.55421893
0.58417597
0.55821806
-0.078687101
-0.077736312
-0.033708676
-0.24131249
-0.22698672
-0.3432
-0.11595022
0.11195189
0.075415601
0.29774439
0.42716743
0.069152538
-0.12771159
-0.070549828
-0.0083933136
0.21360518
0.2708973
0.12931496
0.19362771
0.17792175
0.15469925
0.2976896
0.30356123
0.00045868312
0.0060940643
-0.018402594
-0.0164434
0.057456855
0.16419927
0.16770857
0.036784826
0.020805029
-0.024675511
-0.028533567
0.020194905
-0.009064535
0.012094782
0.029646891
-0.027870795
0.021762848
0.024158753
0.020630606
0.052946482
0.044816155
0.6547591
0.67301312
0.65812504
0.83169703
0.82845815
0.86466337
0.83520622
0.58125847
0.59167931
0.58266566
0.63864632
0.61091347
0.64816062
0.66762908
0.70628094
0.71795777
0.62530562
0.60332073
0.6874704
0.64381484
0.6367806
0.64880315
0.66778179
0.60620325
0.62446888
-0.031732676
-0.044526753
-0.001746032
-0.07145367
-0.019308226
-0.037074618
0.030413367
0.061515475
0.016649164
0.040300247
0.030744672
-0.023380842
-0.023307501
-0.14067335
0.024241417
-0.36972209
-0.40471131
-0.50529891
1.0909295
1.2491937
0.99096567
0.71317856
0.74669343
1.0301232
1.1719027
0.68444763
0.81770171
0.93095583
0.87497653
1.1138329
0.55049378
0.5428089
0.55540058
0.53262369
0.5622083
0.009304961
0.20534566
0.13525192
0.31526699
0.53394748
0.58301171
0.40055994
0.34320471
0.50238195
0.39736892
1.0787684
1.1160389
0.97663151
1.0376026
1.0308703
0.69397893
0.91234959
1.0414993
0.90802135
0.98614921
1.0266051
0.95488204
1.0194162
0.92065532
0.79862854
0.82462213
0.62911153
0.70295415
0.659027
0.62123375
0.741067
0.69754041
0.73817448
0.72397665
0.78830506
0.88979754
0.86927537
0.88081326
0.93297142
0.77926108
0.70049548
0.72506752
0.79840871
0.67288061
0.69291302
0.73377793
0.40093404
0.4121753
0.28787912
0.18979296
0.27309448
0.11519103
0.092852298
0.12523031
0.43800709
-0.19309769
-0.17795026
-0.54789769
0.86090439
1.5207633
1.257004
1.2491338
1.3393299
1.3001487
1.2895125
1.3522536
1.3599228
1.1846601
1.2333895
1.229169
1.1380598
1.183114
1.2767873
1.2577386
0.95181881
0.67071891
0.63207456
0.59719695
0.34293482
0.42178339
0.81024091
0.65931
0.5186624
0.5107049
0.82648012
0.56869015
0.69834382
0.82639437
0.6595814
0.56610626
0.99249197
1.1291167
1.1172025
1.0648797
0.89365745
0.9330892
1.0104389
1.0767004
1.1167453
1.1939378
0.56067006
0.57032182
0.56455145
0.54701107
0.5736712
0.57893472
0.57781939
0.56443344
0.56952714
0.57059483
0.58209083
-0.041500671
-0.030833373
-0.051030656
-0.05711512
-0.0086156852
-0.02823061
0.047117483
0.021864845
0.002097527
0.0086550105
-0.029881134
-0.046984367
-0.024393537
-0.0079710016
0.16123229
0.19614407
0.14180099
0.1302053
0.33606858
0.4718819
0.52718258
0.44572054
0.2633493
0.28714032
0.35535393
0.044379113
0.063765992
0.076360366
0.096185102
0.099255267
-0.012668076
-0.016273864
-0.012521138
-0.0076411412
0.0045341338
-0.018980709
-0.010258731
-0.013132592
-0.012343528
-0.017668213
-0.023508591
0.58132488
0.60081119
0.65179203
0.61608584
0.61342974
0.63788044
0.60986095
0.62714603
0.63081445
0.65959629
0.64668813
0.6830698
0.67283785
0.0010676956
-0.013101983
-0.025151412
-0.0029034974
-0.0043130608
-0.010507405
-0.0074441973
0.25660188
0.11280895
0.14896974
0.0249543
-0.21279205
-0.10490994
0.62190789
0.75294825
0.74822365
0.98173328
0.76819111
0.71622448
0.86173902
0.98687046
0.4222984
0.64822927
0.46208314
1.1131661
1.0182072
1.1915496
0.73850018
0.41504479
0.64947762
0.73506061
0.42760897
0.53972413
0.53860902
0.37019431
0.44346542
0.46542245
0.61687889
0.42010596
0.47386781
0.40261631
0.42601441
0.48307982
0.50410949
0.59883822
0.65865868
0.35132079
0.31715524
0.24879475
1.1018542
1.1173929
1.1575556
1.1347188
1.1653428
0.94935611
0.94184249
0.98301792
0.98680628
0.95870998
-0.37942101
-0.4784519
-0.8188558
-0.27300735
0.33811023
0.90057767
0.78201692
1.3575869
1.0946309
1.3232805
1.2713176
1.2175932
1.1293551
1.1103346
1.1987642
0.65193872
0.83831418
0.81368243
0.78080646
0.59349238
0.50395739
1.0865147
1.0658321
1.1419936
1.1745189
1.112186
1.195719
0.58293297
0.60187416
0.58013542
0.59536124
0.58133242
0.58908162
0.086851881
0.03166441
0.14607542
0.12657703
0.047799217
0.020737896
0.016069888
0.01092632
-0.0033562902
0.0026110275
0.024564859
0.037660819
0.27603537
0.23443909
0.042264808
0.15631791
-0.016443915
-0.11626004
-0.17771059
0.0089409946
0.13786293
0.15539759
0.55051797
0.8323625
0.67796732
0.78894507
0.61539925
0.72618792
0.69636726
0.65337379
0.69196187
0.57489797
0.59289195
0.58427201
-0.20407431
0.12892871
1.405419
1.3388869
0.94438997
0.79425519
0.73929304
1.0744197
0.99223589
0.83551693
0.9391641
1.0604617
1.0471497
0.3659533
0.34698866
0.69717857
0.83189482
0.47874043
0.36000321
0.32582978
0.49373321
0.54350115
)
;

boundaryField
{
    wall-4
    {
        type            zeroGradient;
    }
    velocity-inlet-5
    {
        type            zeroGradient;
    }
    velocity-inlet-6
    {
        type            zeroGradient;
    }
    pressure-outlet-7
    {
        type            fixedValue;
        value           uniform 0;
    }
    wall-8
    {
        type            zeroGradient;
    }
    frontAndBackPlanes
    {
        type            empty;
    }
}


// ************************************************************************* //
