/*--------------------------------*- C++ -*----------------------------------*\
  =========                 |
  \\      /  F ield         | OpenFOAM: The Open Source CFD Toolbox
   \\    /   O peration     | Website:  https://openfoam.org
    \\  /    A nd           | Version:  9
     \\/     M anipulation  |
\*---------------------------------------------------------------------------*/
FoamFile
{
    format      ascii;
    class       surfaceScalarField;
    location    "28";
    object      phi;
}
// * * * * * * * * * * * * * * * * * * * * * * * * * * * * * * * * * * * * * //

dimensions      [0 3 -1 0 0 0 0];

internalField   nonuniform List<scalar> 
1300
(
1.7582594
5.6264299
-5.3829783
1.7582594
-7.4764003
5.6264299
-6.1251311
6.1251311
-1.377444
1.377444
3.7340589
3.6506304
-4.2934307
4.2934307
-3.7497311
3.7497311
-1.7182393
1.7182393
-5.2377133
5.2377133
-5.0569878
5.0569878
4.754559
-4.754559
-6.8448956
6.8448956
-1.81294
1.81294
-5.4302759
5.4302759
1.4878869
-1.4878869
-3.8864076
3.8864076
-0.31953988
0.31953988
-0.57404948
5.1455238
1.1842099
1.1842099
-1.9093028
1.9093028
-4.8514443
4.8514443
6.2142541
-6.2142541
8.016448
-8.016448
-2.6334698
-3.3624862
1.4118393
-11.813921
-6.0645611
-6.0645611
-8.4382665
8.4382665
-2.8118366
2.8145933
1.5031116
-1.5031116
-1.7673208
1.7673208
-6.0691159
-0.056015166
-6.0691159
6.1516196
-0.02648849
6.1516196
-1.5373748
0.15993078
-1.5373748
5.1318349
-5.1318349
1.1863622
0.19108185
1.1863622
1.2493261
-1.2493261
-3.7375324
7.4715912
3.6471569
-3.05251
8.1980338
-3.394441
7.0450714
-6.5579549
6.5579549
-4.5636751
0.27024431
-4.5636751
4.1040513
0.18937944
4.1040513
-7.4530133
7.4530133
-3.8108087
0.061077637
-3.8108087
3.7166007
0.033130328
3.7166008
2.2976446
-2.2976446
-1.6005173
-0.11772193
-1.6005173
1.820441
-0.10220178
1.820441
0.35898306
5.2674469
-5.985413
8.8000063
-5.2674469
0.02973357
5.2000724
0.037640843
5.2000724
-5.093578
0.03659021
-5.093578
5.0140689
0.042918855
5.0140689
4.8514071
-0.096848118
4.8514071
-4.8556172
0.1010582
-4.8556172
-3.9061475
-5.2410326
-7.0819063
0.23701062
-7.0819064
-1.7683569
-0.044583089
-1.7683569
1.8222249
-0.0092848797
1.8222249
-4.1227581
4.1227581
-5.8735012
0.44322533
-5.8735012
1.3596395
0.12824736
1.3596395
2.0099324
2.5615419
3.7681918
-3.7681918
2.2803049
-3.8426833
-0.04372434
-3.8426833
-3.9616481
-4.0548
3.9616481
-0.075240448
-0.71545077
0.39591088
-0.71545077
1.2341211
-0.049911202
1.2341211
1.8957785
-0.075337424
-1.8957785
-0.013524358
3.5120681
-3.5120681
1.4243042
0.48499868
1.4243042
-5.5755242
5.5755242
4.9530638
0.061005182
-4.9530638
0.10161948
6.1537781
0.06047599
6.1537781
-6.1927026
-0.021551531
-6.1927026
3.0166749
-6.3791611
-3.7201372
6.4956954
0.34920004
-6.495695
0.4311339
1.6682597
-0.16514807
1.6682597
-1.2114658
1.2114658
-1.4247849
-0.07832669
-1.4247849
-2.1023306
0.33500982
-2.1023306
1.4953824
0.27193852
1.4953824
-5.8119337
-0.25718219
-5.8119337
-6.0857372
0.21223605
6.0857372
0.065882381
1.4075969
-1.4075969
-1.6784691
0.14109439
-1.6784691
-5.456335
-0.35559871
5.4563349
-0.32449989
-4.8851495
-0.24668542
-4.8851495
-1.3219155
-0.10286942
1.3219155
-0.07258939
1.2588118
-0.024690707
-1.2588117
0.0094855937
-3.0520949
5.6136368
-3.394856
7.042013
-6.1782807
-0.3796742
-6.1782807
6.895652
-0.33769714
6.895652
5.0131823
0.41709351
-5.0131823
0.44950726
3.974879
0.12917225
3.974879
-7.4220808
-0.030932457
-7.4220808
7.464965
-0.011951702
7.464965
3.8871167
0.087762298
-3.8871167
0.07630801
3.7229233
-0.0063225806
3.7229233
2.5234347
-0.22579016
2.5234347
-2.0815046
-0.21613997
-2.0815046
1.3716672
-1.3716672
1.487259
-0.11559182
-1.487259
-0.11325835
-11.148726
11.127175
-0.035781789
-11.112945
5.1642906
5.1642906
4.0605789
0.79082828
4.0605789
-5.045493
0.18987583
-5.045493
3.243001
-6.9631381
4.4960761
-8.4022236
5.5261488
-17.34007
4.4218368
-9.6628695
7.3407063
-7.3407063
7.2339246
0.10678169
-7.2339245
0.15201814
-1.6880843
-0.08027259
-1.6880843
-3.5025547
-0.62020342
-3.5025547
4.7888737
-0.66611556
4.7888737
-1.3067503
1.3067503
-1.3170212
0.010270914
1.3170212
0.042618254
3.7730678
-0.05014444
-3.7730678
-0.069615444
0.9673024
0.21905976
-0.96730241
0.25185164
3.9267634
-0.41469534
3.9267634
-3.0803863
-0.43168171
-3.0803863
-1.5663821
-0.12170218
1.5663821
-0.14207794
-5.8203705
0.2448463
-5.8203704
-11.213437
0.10049203
-11.175796
-6.0922106
-6.0922106
2.3460559
11.146062
-1.8688016
-0.21270306
1.8688016
-0.20054189
1.2817781
0.024972201
-1.2817781
0.070312284
-1.2699608
-0.10170633
1.2699608
-0.058495046
-2.5308886
0.42855798
-2.5308886
-1.213596
1.213596
-1.3041217
0.090525727
1.3041216
0.19126084
1.7166529
-0.30905603
1.7166529
1.7747323
0.047492579
-1.7747323
0.096263172
-4.5819273
-0.3032222
-4.5819273
7.1563962
-0.26074419
7.1563962
-2.7910035
-0.28938287
2.7910035
-0.26756874
-0.035222039
11.162397
-5.1290686
0.035490597
5.1290686
-11.222873
11.258363
-3.1115341
0.58064556
3.1115341
0.94904475
5.3081185
0.26740564
-5.3081186
0.26262554
7.4128998
0.052065231
-7.4128998
0.072193538
-2.992849
-0.50970575
-2.992849
-5.5363882
-0.64189252
5.5363882
-0.74751448
-11.475652
-0.19562794
11.67128
-11.432733
6.0159984
0.13777975
-6.0159984
11.396143
-1.2374731
-0.1701238
1.237473
-0.023876958
2.0656237
-0.34897075
2.0656237
4.3032231
-0.3764597
-4.3032231
-0.27870415
-7.3135655
-0.10851535
7.3135655
-0.15716926
-2.5077617
-0.48508727
2.5077618
-0.44213807
-5.3373677
5.2874565
2.8606661
-3.0429497
-3.3362114
-7.0977497
2.5469827
3.0666541
4.8272875
-11.071393
-6.2686766
-10.64026
7.2744669
-7.0118414
-9.5022199
9.4053717
9.8114535
-10.058139
-7.338132
7.3807503
8.7090204
-8.7816098
3.7794457
3.6921455
10.876284
-10.606039
-16.819911
16.440237
10.309162
-10.248084
17.024215
-17.055148
-19.194602
19.246667
-7.3783438
7.2606218
-9.0510426
8.8349026
-9.2369103
8.9693416
-3.6437769
-4.7584467
14.200332
-13.963322
11.332483
-11.376208
-11.545818
11.989043
4.0451247
1.2423318
4.020434
-3.6180485
7.3974942
-3.4270228
6.2876889
3.6899219
-7.3336988
3.2732161
-6.6094274
5.6569487
5.6755347
-5.5817084
-1.5160413
-8.1188337
7.9536856
-7.5799126
7.5214175
12.019658
-12.075673
-3.6045077
7.2966532
-3.4375052
6.5041593
-3.7018478
-3.6362843
3.5736005
1.2536871
8.6257771
5.5745554
-8.9749773
-1.6652822
-10.35956
9.9831005
-10.954395
10.522713
-0.45424464
5.7885602
-5.3343156
4.3971997
-1.4722957
7.2608559
5.8021713
5.9920471
5.8680701
-5.6006644
1.1437713
-6.4780868
-6.3764673
-3.3519406
3.493035
3.3071619
-3.11608
7.8192628
1.9921908
7.4947629
-7.0251309
-3.033008
-7.328353
4.4462866
2.9344637
4.4565574
5.2636193
3.4454011
5.1607498
5.8673944
-5.9543277
0.086933233
-5.4638876
11.331282
1.3423255
-9.1001719
-7.8464848
6.9138722
3.9624114
7.1032516
-7.5256605
-3.0803788
-7.0761533
-10.239095
-6.580816
-10.880988
10.979121
5.4611154
10.641424
-12.903701
12.746532
6.7430517
3.5661104
6.776182
-6.8306341
-3.4174503
-6.7543261
13.190519
-3.108359
-10.08216
-11.12963
-8.0649721
11.141581
5.882634
11.816049
7.4306176
11.888243
4.8140761
8.3764429
-10.69671
2.631738
-4.5080292
-2.8703146
-4.6212875
4.5486014
2.7120204
4.4463996
-5.3335281
-3.7175144
-5.5462312
-5.2819508
-3.9549595
5.5077409
3.3271617
-5.4419403
-5.5124547
5.7313231
3.2380185
4.8985372
-11.167214
4.7643322
-9.5227788
-9.9266806
-4.0366414
-9.7746625
4.5095853
3.387013
-7.8965983
-2.8241135
10.949582
-5.2740476
9.433541
-7.0737896
-4.302418
-7.143405
-9.190498
-2.3553199
-8.978262
-9.5153185
9.0056127
-9.9118166
9.245701
13.849204
-6.7470303
-7.1021732
-4.882408
-3.8992018
4.8729224
-0.85248846
-7.2127494
7.2996826
0.1847448
6.4724337
7.7147654
6.862277
-4.5277638
-3.0521487
-4.4574516
4.6749765
2.846441
4.5732702
9.1474944
2.8721632
9.1210059
-8.4916564
-3.5840163
-8.7488386
9.5389657
-9.2039559
3.2153842
-3.3370864
6.8725306
3.6501828
-6.4578353
-3.9017249
9.1950216
-4.2498863
-4.9451354
-12.075052
10.653683
1.4213684
-4.8141957
-0.41699604
-0.097456158
-5.5774792
-3.9247407
5.476421
0.51562614
11.169309
7.2445686
-5.5173611
5.7622074
6.1539191
6.2149243
-0.16154304
6.0781694
-5.4975239
7.1860832
-3.168946
-4.0171371
6.8670344
-7.2226331
-1.8818042
-7.2197472
5.337943
0.27212981
2.2563494
-1.8604385
-2.5861889
-0.76575165
-2.4899257
1.95299
1.3541719
2.1720498
1.2668969
2.2261381
-3.9833598
0.73001105
3.2533487
-2.7164629
-2.386069
-5.0416305
-1.4968397
6.5384701
7.2501837
2.7329169
-6.9714796
-0.35687344
3.2605077
-3.2697926
-0.97237332
-4.0692571
2.9498334
-3.9222067
-5.5318956
-2.330229
7.8621246
-3.7524666
-0.70498494
3.7274944
0.729063
-4.7697354
-3.3490983
4.8480621
0.31268772
-5.3238158
10.970873
-5.6470567
-8.3759645
4.5269552
6.8043269
7.4614189
-9.158596
4.7506758
4.4079203
-2.3542692
5.9302131
1.1730386
6.0593853
-9.1572585
6.0768797
7.8718256
4.1172178
-8.2889191
1.2127658
-7.9444927
10.566326
-9.2439672
-1.3223587
5.2206764
5.3456495
7.5760827
6.2731208
-6.0169535
13.593036
-1.5119704
-7.7319968
9.4564632
-5.3392454
6.1691748
-11.50842
-12.442296
4.7102988
-9.8617357
11.924743
-2.0630076
-3.8584248
-9.0452766
13.720161
-1.3354035
-12.384757
9.3060208
-5.5411106
-5.5607192
11.10183
-8.6494696
8.9781695
-2.5996207
-6.3785488
-10.879086
-6.1760615
10.987602
1.7589305
-11.666138
14.297875
-3.2896946
5.8428
0.93338193
5.8364775
4.1536733
-6.728221
2.5745477
4.4957963
-7.095417
2.6085546
-9.3367757
-7.2260246
13.393707
-6.1676822
-11.262666
-10.185034
-1.077632
2.7401677
11.557708
-10.170785
7.9646718
2.2061136
3.9318604
0.64140979
-3.8162686
-0.80501893
0.63900956
6.679627
-7.3186365
5.0854092
5.0100718
5.0981506
1.5814763
5.0807446
2.872941
-4.8802027
-0.66602844
-6.258375
2.3034155
-2.9312133
-6.1939434
8.4973588
-6.9611047
0.76716134
-4.1890153
-6.1300051
10.31902
-7.0593299
5.2999261
5.6709464
8.1463672
-8.5852468
2.4552416
-4.378561
-4.2066858
4.5058631
-7.4370764
3.2031997
5.2941591
6.4412182
0.92876344
6.6084094
6.7852974
-9.9954227
0.47264391
12.359853
-10.69457
2.6464708
9.2417721
-10.611143
0.42610865
-9.3485538
1.4807023
-6.7547498
-6.4158959
6.7648538
-9.1201737
-4.7435664
8.3287048
0.79230107
-8.3945872
-0.58367478
-6.4903529
-3.0249656
-6.9754402
-3.2997073
-6.6121093
-9.3166607
-1.7733
-7.5433608
7.2323127
-7.2159912
-3.6649963
7.9635057
1.2821953
-7.9812215
7.8110977
-8.0260569
7.6770861
0.26792028
7.0317623
7.1301972
3.2309954
-4.6774931
7.9084885
-6.7835083
9.6556715
-11.36265
4.5791415
5.3647498
-8.948766
-5.9979
5.4495091
4.0894567
5.7214476
9.3501492
-10.826353
1.4762033
-11.019301
12.571794
-1.5524938
-17.061175
6.0418748
-7.711026
3.0967079
0.11867639
3.0164353
0.91595986
2.8506462
-3.7666061
-2.4211265
-2.5632045
-3.5033366
-5.2923789
8.7957156
1.8660059
-5.0460671
3.1800612
-4.7154171
6.581423
0.20454275
-5.2506098
7.0866297
-4.2359835
7.2053061
-4.5108743
2.6944318
4.9590382
8.7539464
-3.7949083
6.390242
-2.7400593
2.8038618
-6.59877
-2.4885171
-4.8920151
7.6040355
-5.4270054
6.1941667
-0.28539904
6.4795657
-5.7373143
1.487428
-0.63916362
4.3709082
4.3573838
6.7421454
-5.1606691
4.8017599
-7.5418192
-1.7970101
-6.6130558
-1.3188966
-0.51441949
-5.0505397
5.5649592
6.6948217
-7.2092412
-5.3673259
9.7549641
-4.3876382
8.0645542
-5.5448835
-2.5196708
-4.5511806
-4.6527752
4.1226227
1.9555468
10.020101
0.26997537
-5.8148588
-5.2275485
-4.2785037
4.4458828
2.7402004
-2.3621012
3.7834697
2.4595573
-0.20320794
0.78965344
1.3823964
2.4993759
-1.7097225
0.22619049
2.2731855
-1.634248
2.4682855
0.79222226
-2.5157781
0.025852357
-1.8523673
4.8022007
1.4009815
-2.7551534
1.0454309
1.6219199
-4.7908659
6.5128853
-3.1888572
-3.3240281
8.1348052
1.6456141
-4.8344713
5.5741331
-5.3020032
3.2206547
-4.7174943
-1.6138166
-6.9158199
-4.9236291
-3.9978113
7.1778725
-4.7979043
7.5308212
1.6459769
-7.1739478
8.8199247
-4.7527208
2.4224918
-4.2251936
5.0174159
-1.8287022
-2.3964914
4.0118997
3.850225
-4.0732386
0.0039815417
-0.061338902
3.1999099
-3.2612488
-0.72229677
-3.4387597
-7.5214321
7.8341199
-3.8324574
8.5831332
4.076031
-3.5174526
12.100586
3.2480395
-6.7654921
-5.127925
-5.83291
-2.3575719
5.103847
-0.8371086
-5.9172175
-7.2156574
5.8294553
0.22993003
-9.2202134
10.299551
-1.0793379
-5.257802
-0.81907764
6.039754
-7.7472662
0.65184919
-5.1387116
5.1608397
6.3338782
6.5638083
-12.156467
-0.22828968
-6.695352
1.3220074
-8.0173593
6.6676569
-3.7755895
8.4858883
-11.099642
7.4346457
-9.8174467
7.1635296
-0.85382973
7.1195
-4.5449523
2.96266
-9.1387215
-7.379791
7.2136074
-3.647497
8.1469894
-4.1646382
12.311628
-7.4543328
6.9919784
5.3196492
-1.3307947
-5.8126103
-6.9657013
5.6349067
0.026277148
5.8627547
7.7116731
-4.8387321
7.0456447
4.1089462
-8.4875071
-3.3281302
-11.770765
3.2832577
-6.0998185
-3.0819625
6.3652202
5.0644046
5.7058144
2.1585344
-4.9007955
8.2974584
-9.3750904
-2.1297765
-4.2861195
6.8664582
-1.2315515
4.1907095
-8.476829
-2.5640402
5.7042004
-0.67866211
-5.0255383
1.0428299
-5.7863963
2.2861919
-8.0725882
6.8339818
-7.4176566
2.3421525
-10.053178
-5.639069
-5.662946
-2.4174008
-5.6086561
-7.9352604
5.5178597
-1.8933857
5.9177121
-8.8692723
8.1906102
-3.702522
9.2203817
-5.8370327
-1.1384075
6.2791708
1.3979153
10.618297
0.30987661
-6.3077766
-2.6620885
5.4719419
-2.8098534
1.7837943
-4.7406631
0.73127885
3.4300423
4.7047629
-8.7679853
-0.18078064
-6.4885572
-4.149969
8.2394257
5.6049951
12.299817
1.4734643
9.3964022
-1.1569765
10.869867
4.5644711
4.755732
-4.0561841
5.5323874
1.5087752
6.0879167
-0.89521149
3.5896433
2.1212238
2.0766407
1.1931519
2.6475369
1.7098469
4.1349649
0.36835887
-2.1948456
4.7064619
-8.9849656
-1.1083969
-8.1941373
1.2112344
5.8851638
-4.6739294
4.2818865
-1.5416861
1.4720331
0.061523555
-2.3855719
2.3240484
-3.9556135
-2.5887799
-0.31559442
-2.1778474
3.2232783
2.6243533
-2.9076839
-1.0479296
0.42862405
-5.3522531
4.2888702
-4.2848887
-0.43466366
8.3852611
-3.741887
0.4806382
-1.3193952
-2.9581215
-3.7238731
3.6980208
11.505308
0.5952782
5.8582508
8.429398
5.0802998
0.24156767
4.8052817
-6.8682893
-4.531494
-7.096579
-0.4289221
5.6108319
2.2302059
9.3275019
7.5498552
6.3183037
-2.1585252
-11.533616
8.1746758
-2.6422883
6.622182
-1.5966437
-6.4759444
6.6058543
3.0498173
-7.3981554
-0.019501206
-6.4954456
-9.137734
-0.4877057
8.6783159
-10.130591
8.9921837
5.9672181
1.5761427
-4.8025624
-0.86038355
4.7120366
0.043695345
10.913562
-1.2040782
-7.1364712
8.3405493
-4.6810857
3.5726888
0.96551714
2.8179525
3.2895655
1.7478794
-5.3885918
-10.062521
-2.64529
-2.1455759
-5.9693181
0.56915214
-3.1935054
6.2947036
-2.7220148
3.7750329
5.6185345
7.0905676
-2.0578756
-5.1513655
6.4455138
-2.670481
4.4200867
)
;

boundaryField
{
    wall-4
    {
        type            calculated;
        value           uniform 0;
    }
    velocity-inlet-5
    {
        type            calculated;
        value           nonuniform List<scalar> 8(-1.7582594 -1.7582594 -7.3846893 -4.5714743 -7.3846893 -6.446951 -4.5714743 -6.446951);
    }
    velocity-inlet-6
    {
        type            calculated;
        value           uniform -5.6264299;
    }
    pressure-outlet-7
    {
        type            calculated;
        value           nonuniform List<scalar> 8(5.3829783 7.4764003 5.995956 10.402082 9.1471802 6.7368121 7.7390769 9.9479855);
    }
    wall-8
    {
        type            calculated;
        value           uniform 0;
    }
    frontAndBackPlanes
    {
        type            empty;
        value           nonuniform List<scalar> 0();
    }
}


// ************************************************************************* //
