/*--------------------------------*- C++ -*----------------------------------*\
  =========                 |
  \\      /  F ield         | OpenFOAM: The Open Source CFD Toolbox
   \\    /   O peration     | Website:  https://openfoam.org
    \\  /    A nd           | Version:  9
     \\/     M anipulation  |
\*---------------------------------------------------------------------------*/
FoamFile
{
    format      ascii;
    class       volVectorField;
    location    "28";
    object      U;
}
// * * * * * * * * * * * * * * * * * * * * * * * * * * * * * * * * * * * * * //

dimensions      [0 1 -1 0 0 0 0];

internalField   nonuniform List<vector> 
918
(
(0.40893669 -0.00015411591 0)
(0.0090456194 2.9576279 0)
(-0.031273991 1.4221499 0)
(0.2899097 -0.0086181695 0)
(-0.056027251 1.9907518 1.5447906e-20)
(-0.011744051 2.948578 -3.4603218e-18)
(1.0731181 1.6562794 8.0033616e-19)
(0.42740861 0.25339871 -2.8546836e-20)
(1.988394 0.0033794411 0)
(0.023636035 1.2248986 0)
(0.0040408529 1.0427026 0)
(0.41464931 -0.018173843 0)
(0.012838165 2.9163492 0)
(0.013772616 2.7907944 0)
(0.10133675 3.1833221 3.4039028e-19)
(-0.031050671 2.1153775 -1.7502955e-20)
(0.52598637 0.1243474 1.8230159e-18)
(0.22600356 1.700513 5.8995283e-19)
(0.36391709 0.0041412557 0)
(-0.016561977 1.1100097 0)
(0.071392059 0.24729771 -1.4231126e-18)
(1.0474722 -0.022185259 0)
(0.54285269 -0.028770002 0)
(0.24716975 -0.0073623952 0)
(0.52357175 -0.010841278 0)
(0.024016066 2.6158469 0)
(-0.0099575977 2.9059102 1.2768485e-18)
(-0.039727751 1.4133351 0)
(-0.085909393 1.5983535 0)
(-0.035501665 1.4082253 0)
(-0.13191734 2.7747484 0)
(-0.063567317 2.1312332 -1.2107794e-20)
(-0.044428607 1.9241338 0)
(-0.018161804 2.9813226 -1.2901072e-22)
(-0.018375257 3.0070229 2.6865525e-18)
(0.00085979173 3.0015936 0)
(0.29992142 0.0067850843 0)
(0.43051324 0.91007286 3.166461e-19)
(1.1663703 1.6320842 -8.8676086e-19)
(1.2315877 1.5067418 9.7110754e-19)
(0.98430526 1.7729082 -1.8099363e-19)
(0.87759138 1.7781937 1.062261e-18)
(0.53506098 0.30276442 2.7764788e-20)
(0.45908355 0.23283859 0)
(1.4209018 0.83157486 0)
(0.47694792 0.30681426 1.2731613e-19)
(0.38563509 0.25730834 -1.3261145e-19)
(0.24247257 -0.01295198 0)
(1.9895729 0.00018309563 0)
(1.9886926 -0.0024661814 0)
(1.3553814 0.00072883616 0)
(1.8675599 0.0049613557 0)
(1.7380618 0.0029535732 0)
(0.026079725 2.028367 -8.5261008e-19)
(0.045938999 1.4476178 0)
(0.048111351 1.3203076 0)
(0.026965083 1.3980846 0)
(0.01705347 1.152179 0)
(-0.002150566 2.2308974 0)
(0.013041259 1.2706751 0)
(0.011924182 1.0631056 0)
(0.0025639706 1.2653873 0)
(-0.0015359671 1.0261619 0)
(0.59324628 0.029788168 0)
(0.63121796 -0.029799835 0)
(0.36699342 -0.013806361 0)
(0.65231434 -0.026359036 0)
(0.46186147 -0.01503458 0)
(0.016738913 3.0145158 1.325561e-18)
(0.012391043 3.0113802 0)
(0.007728109 3.0035768 0)
(0.013327784 3.0004887 1.4130005e-23)
(0.01055678 2.9476306 -1.8931379e-18)
(0.016842272 2.9848914 0)
(0.013436089 2.8938375 0)
(0.017687908 2.9238922 3.0581638e-24)
(0.0138611 2.8181522 0)
(0.017700302 2.9102548 0)
(0.011233661 2.7539933 0)
(0.25176255 3.6437889 0)
(0.17925322 3.5808642 0)
(0.13513136 3.3164485 -3.1842525e-19)
(0.050049312 3.0064506 0)
(-0.17532806 2.4411586 0)
(-0.029639083 2.3321771 1.7231482e-20)
(-0.018348535 2.1578046 -2.6946651e-20)
(0.66012 0.14193292 -6.2599794e-19)
(0.52144229 0.087935515 -5.9686108e-19)
(0.6604255 0.18544125 -1.9019284e-18)
(0.52125236 0.15901369 -1.2674302e-18)
(0.17907971 1.1563587 0)
(0.34932776 1.8463163 -6.595097e-19)
(0.43806645 1.8303689 1.1075524e-18)
(0.5469678 0.038387662 0)
(0.30546386 0.024265073 0)
(1.2187857 -0.0013968919 0)
(0.73819498 -0.035278607 0)
(0.64957947 0.017125931 -2.949606e-18)
(0.64823181 -0.026245766 2.3135375e-18)
(-0.016937398 1.2744128 0)
(-0.013910667 1.0951727 0)
(-0.042306496 1.4152999 0)
(-0.021920864 1.2979699 0)
(-0.014140184 1.1304055 0)
(0.14858309 0.2917365 4.3432557e-19)
(0.23647036 0.23994048 0)
(0.50286997 0.018435231 0)
(0.2437793 0.01336937 0)
(0.66146957 -0.020667872 0)
(0.65762853 -0.017082177 0)
(0.50524644 -0.011521616 0)
(1.0024637 0.052778817 0)
(0.63433065 0.0083072853 0)
(0.45129994 0.0091120645 2.4390746e-18)
(0.0020904461 2.8614786 1.1220744e-18)
(0.021561218 2.8991198 0)
(0.036177041 2.873944 0)
(0.015897369 2.7028768 0)
(-0.010410969 2.9857699 1.2350115e-18)
(-0.0090792914 2.8908177 0)
(-0.011753877 2.9907612 -3.7906024e-18)
(-0.0095911139 2.9158718 1.2962434e-18)
(-0.068895645 1.7079935 0)
(-0.1064044 1.7979515 0)
(-0.043078931 2.2780763 -8.8191424e-22)
(-0.055925134 2.1939096 0)
(-0.041066245 2.0295582 0)
(0.64926387 0.036911324 0)
(0.35012493 0.022891824 0)
(0.23498261 0.012978503 0)
(0.60908767 0.014905462 0)
(0.28171284 0.017825344 0)
(0.51736664 1.0902848 -3.8864096e-19)
(0.55133402 1.1279188 0)
(0.40796694 0.89433167 5.0993344e-20)
(0.31589977 0.68149096 0)
(1.286084 1.4471508 -2.684119e-19)
(1.3258732 1.2839177 5.0797404e-19)
(0.56373776 1.9015895 0)
(0.78286842 1.8737283 0)
(0.66471408 1.8438507 0)
(0.14977512 0.25331751 -4.2460142e-19)
(0.58453864 0.2845681 0)
(0.48685237 0.21438332 3.6158423e-19)
(1.3724774 1.2279555 0)
(1.4271688 0.99931595 0)
(1.3857174 1.0532123 -3.6512188e-19)
(1.4645182 0.78355 0)
(1.4370652 0.63313003 7.0896673e-20)
(0.57909637 0.027928837 0)
(0.53767533 0.015239772 0)
(0.2551327 0.014169028 0)
(0.52016683 0.0065742635 0)
(0.52763542 -0.014332826 0)
(0.25183546 0.0065980005 0)
(1.4987965 -0.0020907639 0)
(1.8698625 -0.0023918575 0)
(1.7318404 0.00018368856 0)
(0.04069855 2.2510228 4.6211109e-19)
(0.050438298 1.9526571 0)
(0.032815193 2.3407169 7.4717844e-19)
(0.019861013 2.0900463 -6.25878e-19)
(0.16624744 1.6894746 -4.8397425e-19)
(0.078001632 1.5338078 0)
(0.099483222 1.4975147 0)
(0.019429761 1.3520043 0)
(0.011789593 1.1129677 0)
(-0.0044612967 2.4114599 -1.0671302e-21)
(0.0021428139 2.2270094 0)
(0.0025302977 2.4114802 -5.7985089e-20)
(0.00065522933 2.2333926 9.9955686e-20)
(0.014472399 1.3213065 0)
(0.014612109 1.2963919 0)
(0.011146044 1.0844898 0)
(-0.0061073148 1.2576952 0)
(-0.0081717555 1.0360494 0)
(0.85334253 0.0487334 0)
(0.66732813 0.030170379 0)
(0.79393684 0.046918815 0)
(0.51074575 0.022482659 0)
(0.27778547 -0.017636346 0)
(0.57777649 -0.024712367 0)
(0.60390873 -0.022516153 0)
(0.32606537 -0.014488833 0)
(0.0037200791 3.0719829 -1.139208e-20)
(0.010794744 3.0616376 0)
(0.016169683 2.9688048 0)
(0.013254847 2.8677197 0)
(0.73170037 4.2316569 0)
(1.2318209 3.2955858 8.8653119e-19)
(0.072742817 3.137331 0)
(0.030175351 2.9083775 0)
(-0.088769003 1.8422052 0)
(-0.1285558 2.2504066 0)
(-0.15674428 2.0604876 0)
(-0.12981289 2.7482887 -9.0908931e-22)
(-0.14546964 2.5852549 0)
(-0.15921531 2.653389 0)
(-0.0015139835 2.1871423 9.41692e-22)
(-0.0056185014 2.3948337 2.8858649e-20)
(-0.013998608 2.3709601 2.7372611e-20)
(-0.0081428561 2.1743978 0)
(0.65810919 0.094216292 9.0972974e-19)
(0.51074688 0.05075941 -8.9926229e-19)
(0.3049483 1.6987198 0)
(0.20666603 0.93495555 -3.7543613e-19)
(0.22612534 1.840805 -1.171948e-18)
(0.13786439 1.3983283 1.1758317e-18)
(0.27300754 -0.0047282974 0)
(0.53357359 -0.0029894419 0)
(0.52738613 0.012693194 0)
(0.27878694 0.0032324064 0)
(-0.015088797 1.258301 0)
(-0.019839995 1.2656582 0)
(-0.011524449 1.061486 0)
(0.40987471 0.30704296 1.1749225e-18)
(0.32112665 0.29753979 -1.4022734e-18)
(0.32247073 0.25468718 0)
(1.236697 0.12855472 3.9939075e-20)
(1.1915837 0.11771093 0)
(1.1001071 0.086778631 0)
(0.85376258 0.038457384 0)
(0.64142812 0.050744995 0)
(0.62050536 0.020097125 -3.9212815e-18)
(0.48291879 0.024503644 1.4912175e-18)
(0.0031801817 2.9857845 1.1211618e-18)
(-0.0032836541 2.8657531 4.6719803e-20)
(0.0038452061 3.0539369 -2.3808986e-20)
(0.012753295 3.0472605 8.5728289e-19)
(-0.009389885 2.9952597 4.209163e-20)
(-0.0083895427 2.9361808 -1.6891738e-22)
(-0.013157519 3.0201635 -7.9216187e-19)
(0.0012161482 3.0231481 5.7096873e-19)
(0.006676294 3.0398143 -8.5789984e-19)
(0.74860091 0.042967645 0)
(0.7050883 0.04464358 0)
(0.42275904 0.021134203 0)
(0.52699043 0.0064956027 0)
(0.5178278 0.023289496 0)
(0.26668057 -0.00080876033 0)
(0.55325967 -0.031296051 0)
(0.52076141 -0.015569086 0)
(0.24491985 -0.015115501 0)
(0.70508542 1.3776162 -1.1143849e-19)
(0.77335359 1.4596326 0)
(0.1612839 0.34555806 1.0083442e-19)
(0.33122631 0.76023696 7.6563416e-19)
(0.35106334 0.7912734 -4.5122613e-19)
(0.22495138 0.47880528 8.7940892e-19)
(0.41955236 0.96288801 2.1708382e-18)
(0.16692024 0.33894013 4.8621345e-19)
(0.64749115 0.22366654 1.3446815e-18)
(0.62378271 0.25914452 3.4764274e-19)
(0.50966025 0.18572924 6.7423907e-19)
(1.4612154 0.5775678 8.1616905e-20)
(1.3988763 0.42503907 4.0951965e-20)
(0.023047635 2.3966317 2.8192047e-19)
(0.010565326 2.1625324 0)
(0.99765256 0.060298991 0)
(0.92105512 0.054830123 0)
(0.76173906 0.034102128 0)
(0.010039791 3.0770212 0)
(0.016988226 2.9387039 1.6765178e-18)
(0.016546407 2.9536962 0)
(0.013508693 2.8433595 -1.6735471e-18)
(0.0095540779 3.0917451 3.8449961e-19)
(0.0037906483 3.0887604 0)
(0.86402212 1.7494632 -9.720618e-20)
(1.1302696 2.3616294 5.9119252e-20)
(0.84367784 1.866348 -8.1910448e-19)
(0.015090347 2.9996133 -1.0290718e-18)
(0.036576122 3.0406689 0)
(0.012869797 2.8749046 0)
(-0.0063578927 2.396372 -2.1051164e-20)
(-0.0010242747 2.4032326 -5.1189539e-20)
(0.00078603775 2.2174742 8.4567305e-25)
(0.34402845 1.5354785 1.1837386e-18)
(0.21132176 0.75210389 -8.1233642e-19)
(0.088672697 2.1614906 8.2227916e-19)
(0.16723332 2.0216541 -1.0092327e-18)
(0.082995298 1.6875478 1.2284602e-19)
(0.014403932 3.1141378 -2.5492895e-18)
(0.01697528 3.1196194 2.8858027e-18)
(-0.008554617 2.9803634 1.1830026e-18)
(-0.00511591 2.9775858 -1.1630274e-18)
(-0.007523618 2.8763948 -1.2051133e-18)
(0.0047445835 3.1054882 -2.9925719e-18)
(0.0096429418 3.1047503 2.9717288e-18)
(0.37865581 0.83159255 0)
(0.33149875 0.76907279 -1.7167328e-18)
(0.13393094 0.27535466 7.6307874e-19)
(0.41373697 1.0838967 1.3921765e-18)
(0.19130829 0.43258856 -2.1618731e-18)
(1.3709507 0.22319773 1.0315725e-19)
(1.4342651 0.38340728 0)
(1.3348398 0.25029314 -3.2281722e-20)
(0.0071217261 2.4205823 -1.9940565e-21)
(0.0076610087 2.4090969 0)
(0.004289397 2.2004347 0)
(0.39231321 1.3991616 -4.2575058e-19)
(0.42262976 1.2539573 -9.5515513e-19)
(0.20089542 0.57267144 1.7199143e-18)
(1.1929959 0.0052052465 0)
(1.3362627 0.0014004217 4.7933815e-19)
(-0.036607796 1.7011023 0)
(-0.040937943 1.6801455 0)
(1.5132273 -0.0015968365 2.7056862e-21)
(1.1026628 0.015735385 1.0498583e-18)
(-0.11786403 2.7473544 1.1794814e-21)
(-0.10578064 2.7751091 0)
(0.064006069 3.1813389 8.2584655e-19)
(0.54062679 3.5570185 0)
(1.4369199 0.90057926 -1.100413e-19)
(1.2824568 0.0075788064 2.4133726e-20)
(1.3724344 0.024443579 0)
(1.9988367 0.0068559239 7.6530763e-21)
(0.1095087 1.8715846 0)
(0.12192638 2.7554341 0)
(0.019502622 1.80038 0)
(0.0007953838 2.8231123 5.2028663e-20)
(-0.021670389 2.761048 3.8822961e-20)
(1.2737219 -0.02555143 1.8373367e-20)
(1.3945067 0.0676736 0)
(1.4240677 0.09348678 0)
(-0.084760771 2.2229218 0)
(-0.035052099 2.7809214 0)
(0.0047382099 1.7294491 0)
(0.35337615 1.9926224 -2.7802103e-19)
(1.2985769 0.0091531512 0)
(1.0956914 0.0080337938 0)
(1.9707256 0.0096295264 6.2247541e-19)
(1.6571036 0.015364839 -7.1705633e-19)
(1.9058291 0.0096921967 0)
(-0.027514277 1.9647553 0)
(-0.015192586 1.7436894 0)
(-0.04288437 1.8602967 0)
(0.0042740289 1.7182864 0)
(-0.0070982093 1.6621149 0)
(-0.014115193 1.6547263 0)
(1.3990493 0.050966205 0)
(1.3146955 -0.012106833 2.426926e-20)
(1.0193176 1.7208391 4.3732129e-19)
(1.9566492 0.00028490399 -6.3260959e-19)
(1.7073105 -0.0054336078 7.5314243e-19)
(1.8972238 -0.0068053714 0)
(1.3114011 0.00065735481 6.2015868e-19)
(1.1853992 0.0014569455 -7.8129003e-19)
(0.93213164 0.02089623 0)
(-0.05611944 2.8168789 0)
(-0.0876282 2.7894132 1.353317e-20)
(-0.07246351 2.8004702 -1.6564139e-20)
(1.5602936 0.36925133 9.08828e-19)
(1.5174365 0.16157734 0)
(0.081916958 3.0547641 -1.5265048e-18)
(0.045957241 2.8438718 -1.0732448e-19)
(0.18475715 3.1817666 2.3079189e-18)
(0.16883272 3.2469621 -3.7143583e-19)
(0.16680204 3.2941099 0)
(0.032624698 3.1353277 4.3413259e-19)
(0.087037827 3.174356 1.5013694e-18)
(0.083484866 3.2021738 -8.0841688e-19)
(0.051549707 3.108448 0)
(0.8595475 0.42405237 0)
(0.75467237 0.49717646 0)
(1.3891003 0.96464119 2.6861287e-19)
(1.3763302 1.1371452 -2.6381136e-19)
(1.4763303 0.77477767 0)
(1.4915649 0.7242873 0)
(1.2804419 0.013276927 -1.2466536e-18)
(1.1012199 0.010214482 1.5996329e-18)
(1.3865278 0.023368105 0)
(1.240487 0.025734893 0)
(2.0037488 0.011179915 0)
(1.8777038 0.00086338371 0)
(1.9371747 0.006967574 0)
(1.7294948 -0.0089623827 0)
(1.6676399 -0.0033795726 0)
(1.7987952 -0.0031413524 0)
(0.09514691 1.8599209 0)
(0.070434384 1.8510398 0)
(0.14024644 1.9009522 0)
(0.15182592 1.9298607 0)
(0.14338282 2.7846197 0)
(0.18279799 2.8623036 -5.0002777e-19)
(0.099140046 2.8578363 0)
(0.080981562 2.8715627 2.2497463e-19)
(0.027125387 2.8866877 -2.0143064e-19)
(0.017271874 1.8056393 0)
(0.014371692 1.7804525 0)
(0.020961334 1.8074193 0)
(0.025247882 1.7910018 0)
(-0.0034627589 2.2532778 -1.4049771e-20)
(-0.022461994 2.8120663 -1.3269006e-20)
(-0.0052411789 2.869436 5.0978941e-20)
(-0.0084415084 2.8981284 0)
(-0.019112261 2.8133512 -9.8048587e-20)
(-0.015506273 2.8097434 -3.2949393e-20)
(-0.0024426481 2.2459271 1.4508433e-20)
(-0.021580907 2.5750263 1.7520306e-20)
(-0.026899975 2.6164521 -6.4795812e-20)
(1.3002362 -0.024206197 1.5629563e-18)
(1.1292611 -0.037158347 -1.9201148e-18)
(1.2566668 -0.017350336 -1.6713351e-18)
(1.1578082 -0.021902878 2.2130793e-18)
(1.4306055 0.059643537 0)
(1.3119438 0.067948691 0)
(1.4542518 0.083974508 0)
(1.4319281 0.068456796 0)
(1.2778094 0.070033224 0)
(1.5213636 0.14402759 0)
(1.4646461 0.10198467 0)
(1.3282874 0.092686113 0)
(-0.10923886 2.6869171 2.5625445e-21)
(-0.066605105 2.4233439 0)
(-0.11633615 2.5668271 0)
(-0.026376161 2.8072042 7.6474342e-21)
(-0.018373715 2.8156711 -6.471888e-22)
(0.039723379 2.0648412 -3.549993e-20)
(0.014866324 1.9570241 3.5835715e-20)
(0.038946843 1.8040418 0)
(0.026000326 1.7870325 0)
(0.011433965 1.7857059 0)
(0.010314 1.746154 0)
(-0.012270667 1.7223146 0)
(0.49316388 2.0020356 4.7239651e-19)
(0.51148152 2.0272282 2.403834e-19)
(0.59199853 2.6330811 -2.7266402e-19)
(0.38245805 2.7666212 7.1637373e-19)
(0.40613759 2.2436167 9.8997007e-20)
(1.4032743 0.022474872 0)
(1.3330776 0.021972227 0)
(1.1465278 0.013728466 0)
(1.9809066 0.014925034 0)
(1.9608375 0.010674991 0)
(1.7240445 0.01687824 0)
(1.6298478 0.015589053 0)
(1.6458691 0.020403172 0)
(1.3501601 -0.00957743 1.2352513e-18)
(1.0716593 0.0087195667 -1.5473853e-18)
(1.3063339 -0.0094863466 -1.3332631e-18)
(1.1701233 -0.018905996 1.7467779e-18)
(0.97822074 1.74149 0)
(0.87361384 1.8879055 4.1700344e-19)
(1.1094102 1.6046124 1.4467059e-19)
(1.1576315 1.5997979 -1.9273795e-19)
(1.2695064 2.7092602 7.8808729e-19)
(0.91013798 0.083535189 9.7024092e-19)
(1.526851 0.18350451 0)
(1.5679833 0.27226198 -7.1402715e-19)
(1.4840971 0.22855205 -2.8175081e-20)
(1.5015864 0.1463058 0)
(0.22937567 2.9299701 1.012012e-18)
(0.11285685 2.8191135 -2.2048867e-18)
(0.043336788 2.3768436 1.3900971e-18)
(0.078382275 0.023074757 -7.0556295e-19)
(0.37267809 3.4708056 6.8494604e-21)
(0.23986985 3.3755366 0)
(0.25235459 3.4390118 -9.6552691e-21)
(0.27375666 3.0916944 -2.4871797e-18)
(0.40801499 3.1803223 0)
(0.014493289 3.119299 7.842348e-20)
(0.017580994 3.1324836 -8.3847576e-19)
(0.032339149 3.117746 1.3032125e-18)
(0.039506351 3.1486752 0)
(0.037574019 3.1573295 0)
(1.3538757 2.8059891 0)
(0.74107195 1.1010266 -8.6174433e-19)
(1.3032494 1.3640132 1.7471794e-20)
(1.2243562 1.4234465 0)
(1.0821279 1.3148018 -1.8308985e-19)
(1.325226 1.202472 4.3308046e-20)
(0.4548157 0.5197052 -1.659055e-18)
(0.92812339 0.41556891 -3.7118762e-20)
(0.85729014 0.34753062 7.455406e-19)
(0.77637259 0.5471412 5.4393508e-20)
(0.65890578 0.49402163 -2.239508e-18)
(0.89001273 0.46724544 0)
(0.95773302 0.57553731 1.2224373e-18)
(0.97327948 0.53512989 0)
(0.83355934 0.51099199 0)
(0.78514347 0.4347138 0)
(1.0964444 0.84610714 7.210165e-19)
(1.5614872 0.39635569 -7.7594478e-19)
(1.5381741 0.57001996 0)
(1.5368496 0.51643881 0)
(0.91480721 0.23819046 1.1016605e-18)
(1.1426076 0.72972544 -6.9317286e-19)
(1.0302593 0.68366654 1.2371599e-18)
(1.3686788 0.52044491 -1.2923769e-18)
(1.2710786 -0.0025160176 8.2626991e-19)
(1.2460498 0.0056107866 -8.5578984e-19)
(1.0257313 0.0051918294 0)
(1.4252957 0.045870432 0)
(1.3784717 0.034760994 -7.774767e-19)
(1.2027876 0.031614739 7.6853727e-19)
(1.8188015 0.0036125771 0)
(1.7025291 -0.012451393 0)
(1.9104023 -0.0010355905 0)
(1.6773505 0.00094123368 0)
(1.9523161 0.011412775 0)
(1.939146 0.0096510232 0)
(0.061745995 1.8433641 0)
(0.047324813 1.822214 0)
(0.17323106 1.8218928 5.1228944e-21)
(0.33092833 1.9821694 1.4473885e-19)
(0.20242523 1.9668965 3.2458172e-19)
(0.22856899 1.9890967 -5.2123692e-19)
(0.21672269 1.8613297 0)
(0.17917539 1.9740332 -9.1608619e-20)
(0.15834789 1.9605851 0)
(0.37923248 2.201268 -1.3720154e-19)
(0.3627025 2.5032792 6.7243331e-19)
(0.23943052 1.9096373 8.2065588e-20)
(0.32222127 1.8624775 5.0026069e-20)
(0.26751064 1.8462344 -4.0741823e-20)
(0.3516581 1.7858081 -1.1583747e-19)
(0.27651039 1.9479044 0)
(0.32565758 1.9632624 1.2406869e-19)
(0.039331199 2.4776924 -4.3195853e-20)
(0.033178175 2.8795551 0)
(0.06596454 2.5843157 1.6928353e-19)
(0.056414974 2.590123 0)
(0.058638476 2.8932312 -2.5021274e-19)
(0.044564195 2.9325507 0)
(0.014987881 1.8482311 8.0728345e-21)
(0.019639439 1.8890657 0)
(0.028313493 1.8289296 0)
(0.019485491 1.8216382 -9.1534667e-21)
(0.0035156015 2.8566339 -2.1702105e-21)
(0.01385959 2.8914562 2.3329628e-19)
(0.0069475946 2.9271878 1.6441401e-21)
(-0.0046157073 2.1431966 1.9194593e-20)
(-0.011302315 2.0503578 3.7003411e-21)
(0.013055687 1.7983356 0)
(0.0035500628 1.7673419 0)
(0.044493907 1.9668223 3.2878916e-20)
(0.031342776 1.865124 1.0610596e-21)
(0.034335097 1.923485 -1.0497901e-20)
(0.053151177 1.9877468 0)
(-0.023839854 2.4996674 2.9437058e-20)
(-0.036261035 2.7250479 -2.6030096e-21)
(-0.023484611 2.6339217 -6.1601852e-21)
(-0.0048658161 2.140385 -2.2716981e-20)
(-0.023134062 2.654678 -1.4644144e-20)
(-0.02700098 2.6293444 7.7016781e-20)
(1.2672185 -0.023789929 -9.4762473e-19)
(1.2759711 -0.032695841 1.007483e-18)
(1.0921973 -0.035388341 0)
(1.4833913 0.052031194 1.6478478e-18)
(1.1986061 -0.0098481749 -1.8428694e-18)
(1.1577043 -0.013674838 2.0835545e-18)
(1.5077679 0.084100058 -2.2658025e-19)
(1.4043779 0.051542362 0)
(1.408432 0.05872375 8.3142996e-19)
(1.3042421 0.059363653 -8.2359875e-19)
(1.6246171 0.085016319 -5.3185175e-20)
(1.6099377 0.071668877 4.5108297e-19)
(1.733592 0.087649896 0)
(1.8043135 0.082219676 -1.7547717e-19)
(1.7051345 0.020600063 0)
(1.5829834 0.0026320001 0)
(1.8420845 0.0021413097 0)
(1.6524989 -0.012537175 0)
(1.8267606 0.036108587 3.4249557e-19)
(1.8180834 0.018055017 -7.1306167e-19)
(1.7881559 0.070314224 -3.5203301e-19)
(1.7990635 0.066150618 -4.0340439e-19)
(1.7558791 0.10784519 8.2453239e-19)
(1.6120664 0.11200969 0)
(1.6532468 0.15355622 0)
(-0.021793901 2.5152123 6.0521391e-20)
(-0.035295781 2.4004967 4.7507788e-21)
(0.0058051733 2.3405264 0)
(-0.049169965 2.6853668 -6.215876e-20)
(-0.088788992 2.6688584 -6.9645192e-21)
(-0.07056278 2.7015131 1.4690261e-21)
(-0.017258954 2.8230017 2.9459016e-20)
(-0.016950937 2.7395793 -3.9247541e-21)
(-0.017273305 2.7049148 7.5718162e-21)
(-0.012587416 2.8131803 -2.0832565e-20)
(-0.017416743 2.8162629 2.6875224e-20)
(0.059254548 1.900174 2.4901633e-21)
(0.055805899 2.0528747 -2.3159182e-20)
(0.49387218 1.8989303 -2.0359637e-19)
(0.45248572 1.818471 6.286964e-20)
(0.8431917 1.9051264 -4.0446048e-19)
(0.67599993 1.9928315 -2.3220215e-19)
(0.70182589 1.9944199 0)
(0.64224251 2.5946877 2.5069601e-19)
(0.69760856 2.6095233 3.9664477e-19)
(0.44864507 2.6957555 1.1159834e-19)
(0.45919564 2.6998438 -6.948701e-19)
(0.54551778 2.6285451 6.7670088e-19)
(0.55381125 2.6502127 0)
(0.48494844 2.7097153 -6.3446292e-19)
(0.22938979 2.7833832 1.2772504e-18)
(0.33584378 2.7671147 -4.9522604e-20)
(0.27079491 2.858984 -1.7474539e-18)
(1.0222963 2.5358568 1.0038294e-18)
(0.8914674 2.5495914 0)
(1.9533724 0.020981922 2.4604887e-20)
(1.6572841 0.022085716 -2.1039136e-20)
(1.6763099 0.022619262 -3.7189956e-19)
(1.8759007 0.02695386 3.7279886e-19)
(1.9875136 0.025621513 0)
(0.87430895 1.6897381 0)
(0.8411172 1.5745543 0)
(1.0048098 1.4865109 0)
(0.86331124 1.4986866 0)
(1.2762309 2.7433381 3.0986229e-22)
(1.1867341 2.5680627 0)
(0.93090281 2.2772291 5.9946232e-21)
(0.87655138 2.5336471 0)
(0.99315198 2.6064644 -5.2267261e-19)
(1.020361 2.5954341 3.5713238e-19)
(0.95868193 0.11876294 0)
(0.90731535 0.13677056 2.7035542e-19)
(1.1087029 0.100168 1.500094e-18)
(0.97036419 0.074118077 -5.7137587e-19)
(0.90499094 0.029061103 -1.7473694e-18)
(1.6304772 0.31042331 -1.3447009e-18)
(1.5079049 0.37540659 -2.2914551e-20)
(1.2722453 0.30254103 1.4879955e-18)
(1.5080064 0.26606603 1.2110914e-18)
(1.2854348 0.14826291 -2.0181572e-18)
(1.2415514 0.16066034 2.5688492e-19)
(1.3027636 0.23093938 -5.5582886e-19)
(1.2557698 0.20307586 0)
(1.4972308 0.19008916 9.9138655e-19)
(1.6074414 0.22967319 0)
(1.6002078 0.27649837 0)
(1.6150995 0.19496426 4.1177052e-19)
(1.7075817 0.23655433 -2.1999147e-20)
(1.6397671 0.31702878 -2.3373105e-19)
(1.617221 0.27803761 0)
(1.5415 0.0085145035 8.402845e-19)
(1.7690596 0.05926669 1.0324901e-18)
(1.7304488 0.032202308 -7.9925137e-19)
(1.7202078 0.078080652 -7.0425012e-19)
(1.5325487 0.045660802 -1.1831191e-18)
(1.3913552 0.11153868 0)
(1.4132719 0.098440715 0)
(1.1485734 0.012651246 -7.5511817e-19)
(1.0795286 0.015982251 3.0640091e-19)
(1.6446377 0.10822473 1.0426471e-18)
(1.7264824 0.17635461 -1.1984281e-18)
(1.7056128 0.19285299 1.0925752e-18)
(1.6593753 0.17366259 0)
(1.7196796 0.14525928 0)
(1.7588393 0.12583618 -4.679862e-19)
(1.7359511 0.11134674 -8.5190055e-19)
(0.72568082 1.4836763 2.3550362e-19)
(0.81260796 1.832537 -2.5982215e-19)
(1.1783033 2.7845392 -2.8622042e-19)
(1.2974172 3.1366186 5.2898152e-20)
(1.3398288 2.824515 -6.0543411e-19)
(1.3953631 2.8940956 6.9070742e-20)
(1.2658152 2.5656714 2.6811542e-20)
(1.3294608 3.0596895 -2.0628253e-19)
(1.3369986 3.0768084 4.0228543e-19)
(1.3168754 3.3429404 -6.498463e-20)
(1.4339097 3.1088911 6.7089006e-20)
(1.4514221 3.0368153 0)
(0.74444199 1.1732078 -7.598127e-20)
(0.26943072 1.3590867 8.9118496e-19)
(0.65064382 0.72421064 1.0972005e-18)
(0.42561804 0.29727434 1.2593761e-18)
(0.6840902 0.54955682 1.255812e-18)
(0.7396945 0.65612507 -2.0695716e-18)
(0.72133199 0.67496811 1.6765853e-18)
(0.62826198 0.57719505 -6.4790952e-19)
(0.53437929 0.46611265 1.4695191e-18)
(0.96098055 0.28762209 -6.180509e-19)
(0.93073944 0.34628053 0)
(0.86742525 0.29731482 1.8180012e-20)
(0.97656632 0.6970007 6.5693707e-19)
(0.94601645 0.65789522 -2.3844532e-18)
(0.80069642 0.6711054 3.018555e-20)
(0.83680772 0.62981407 0)
(0.86412235 1.044053 6.8803972e-19)
(1.0798346 1.060134 6.2831151e-19)
(0.99272375 1.1846851 -7.2095171e-19)
(1.1300924 1.0893398 -2.6136738e-19)
(1.2188804 1.1609746 -6.2545192e-20)
(1.1886761 1.1585159 6.3046111e-20)
(1.1672865 0.87533772 -1.20407e-18)
(1.1921244 0.98778875 2.4522199e-19)
(1.284724 0.99715389 0)
(1.3150858 0.95020349 -3.3706094e-19)
(1.5356557 0.41049889 3.6725491e-19)
(1.595782 0.4209871 4.5706235e-19)
(1.6105453 0.37248499 5.6873793e-19)
(1.493735 0.50317012 -7.451795e-19)
(1.4849244 0.57874154 0)
(1.5133233 0.55391184 0)
(1.250282 0.43814314 1.63143e-20)
(1.1254292 0.31973227 0)
(1.1670416 0.2829121 7.2124717e-19)
(1.2550699 0.3162278 -2.3305779e-20)
(1.3447413 0.5757785 3.3747279e-18)
(1.244422 0.67576768 9.3027011e-19)
(1.2481454 0.59304738 -1.0285076e-18)
(1.122212 0.5570944 1.1139304e-18)
(1.0794607 0.57124415 6.6115381e-19)
(1.0283384 0.53654866 -6.477773e-19)
(1.6573599 0.037695176 6.4508688e-19)
(1.9435488 0.027465453 0)
(1.9077477 0.035145294 4.3497202e-19)
(1.6770425 0.035624734 -9.7633534e-19)
(1.9223113 0.019689707 4.7919942e-19)
(1.8711628 0.00018039006 -1.0146296e-18)
(1.6908574 -0.0055579261 0)
(1.5802843 0.00078298959 -2.075444e-19)
(1.8404741 0.0020189973 5.1946098e-19)
(1.6714293 0.0035976496 -2.6752051e-19)
(1.6087809 0.0057894141 1.9595469e-19)
(0.027423838 1.8101108 0)
(0.034258313 1.8120871 0)
(0.039361982 1.8195394 0)
(0.029669475 1.8043378 0)
(0.083975318 1.8277674 -3.8974817e-20)
(0.098782011 1.8126351 2.0656483e-20)
(0.13971013 1.9008437 -2.5842465e-20)
(0.12207012 1.7982343 -2.7026146e-21)
(0.041445597 1.873422 -6.8853955e-21)
(0.046204024 1.8688798 5.3074844e-21)
(0.076366518 1.8174315 -2.1291157e-20)
(0.066576625 1.8244413 5.0580366e-20)
(0.048431757 1.8062458 6.4406276e-21)
(0.039450679 1.8123237 4.8612009e-22)
(0.094166287 2.5241357 -1.8208303e-19)
(0.097559 2.5582737 0)
(0.16694165 2.2625906 1.0993749e-19)
(0.1532576 2.0508788 6.1224639e-20)
(0.27455629 2.2260905 -1.0302814e-19)
(0.23767574 2.6042039 0)
(0.28111885 2.59004 -6.6383639e-19)
(0.3309876 2.4870133 4.7745108e-19)
(0.23684644 2.1890784 -2.5752089e-19)
(0.18334178 2.3538737 1.7921585e-19)
(0.17237426 2.4919302 0)
(0.017056239 2.209541 -7.413738e-20)
(0.015322581 2.5944766 -1.0720964e-19)
(0.010377682 2.3580572 0)
(0.015007026 2.6538047 -1.5995078e-20)
(0.034070406 2.4866124 4.7966822e-20)
(0.0079974778 1.8442418 -2.4474863e-21)
(0.0080165021 1.8414074 4.0843022e-20)
(0.0071029804 1.8449998 -1.5943367e-20)
(0.0043949876 1.8322592 -9.3915023e-21)
(0.011855407 1.8554006 0)
(0.0075387145 1.8287762 0)
(0.00059673891 1.7690955 -1.5911064e-20)
(0.017081299 1.8089611 3.8210626e-21)
(0.010158834 1.8157545 0)
(0.0045191032 1.7845892 -1.5737953e-20)
(-0.0094183919 1.7459485 2.9038339e-20)
(1.6086984 0.043779389 0)
(1.6008989 0.045074343 -7.7067389e-20)
(1.8972403 0.03834523 -5.9069179e-19)
(1.7623425 0.051182423 0)
(1.5989582 0.045845448 0)
(1.8743138 0.028884993 1.1620615e-20)
(1.8801556 0.029172222 8.6381242e-19)
(1.7577263 0.0019672666 1.1182263e-18)
(1.6438047 -0.0094193708 0)
(1.565966 -0.0096142704 0)
(1.7386715 0.013525979 5.9188882e-19)
(1.5821361 0.00076616349 0)
(1.5619579 -0.015557874 0)
(-0.0052871189 2.2678542 0)
(0.041743193 2.0759046 1.2777075e-22)
(0.018847492 2.1780167 -1.7717891e-20)
(0.021400183 1.8233344 0)
(0.035188218 1.9644814 -6.7232281e-22)
(0.045828336 1.8815216 6.6248323e-21)
(0.037981682 1.8088408 0)
(0.49560594 1.8991717 0)
(0.45035595 1.7060901 -1.4433328e-19)
(0.41112239 1.7125461 0)
(0.54244469 1.7430295 3.2892105e-20)
(0.63850102 1.911626 0)
(0.57589416 1.8562019 3.320415e-20)
(1.1109275 2.7967535 -2.0694465e-20)
(1.0426807 2.5553698 -1.1552616e-18)
(1.0376585 2.447186 1.323045e-18)
(0.91877182 2.5366709 3.3279224e-19)
(0.90917701 2.5975188 0)
(0.97386984 2.5788895 0)
(0.99669017 2.5398409 0)
(0.97688055 2.5360724 -1.2027229e-18)
(0.73529744 2.5419082 -5.4013437e-19)
(0.85857356 2.5685503 -1.2625676e-19)
(0.85775188 2.5228482 1.0102238e-19)
(0.74755871 2.5710514 0)
(0.8479834 2.5620205 0)
(0.80311815 2.5816682 -4.3340591e-19)
(0.80430444 2.5896582 0)
(0.80861982 1.4557469 0)
(0.69536032 1.272792 -7.6624571e-19)
(0.77301417 1.2976585 -4.697326e-20)
(0.73181439 1.3867216 0)
(0.72301628 1.3576831 1.1671331e-18)
(1.0085404 1.2263477 -1.9877919e-19)
(1.0141833 1.3574207 0)
(1.0203685 1.2854489 3.0495151e-19)
(0.84331287 1.4154517 0)
(0.86815773 1.299428 0)
(1.2465652 2.8225828 -3.5140218e-19)
(1.2066671 2.8630162 -2.5284044e-19)
(0.99637135 2.3721129 4.3714194e-19)
(0.99624163 2.4015091 -1.49988e-19)
(1.2162682 2.8098668 0)
(1.1735615 2.7641411 1.9044639e-19)
(1.200185 2.6406548 -3.5296671e-19)
(1.1110012 2.4814558 -2.8903145e-20)
(0.6712288 1.6834138 0)
(0.67918148 1.4751909 -2.0731384e-19)
(0.72454747 1.5428235 0)
(1.1093145 0.21694723 0)
(0.93843782 0.15935223 0)
(0.84733951 0.17299708 0)
(1.0978552 0.23171809 -1.1235765e-18)
(0.95524925 0.21118876 6.4905593e-19)
(1.0764313 0.014816271 -6.0599019e-19)
(1.16704 0.073155067 0)
(1.1431715 0.092837485 2.7054046e-19)
(0.98362672 0.028301462 1.0982456e-18)
(0.92819233 0.0063227868 -6.9480198e-19)
(1.3268568 3.4675919 -2.8466174e-19)
(1.3082955 3.3997523 0)
(1.347801 3.421768 -6.4900512e-19)
(0.53546709 3.522439 6.167007e-19)
(0.78231784 3.0548772 -3.5901345e-19)
(0.64365418 1.1702556 9.4796065e-19)
(0.61377244 1.1870232 0)
(0.55534284 0.74410751 -2.7268284e-19)
(0.65749967 1.0255237 1.4252106e-18)
(0.68045409 0.69959365 -3.8059306e-19)
(0.66614021 0.74619152 4.2406398e-19)
(0.85697481 0.73008769 8.9032628e-19)
(0.93760941 0.75473203 0)
(0.85820255 0.86383803 0)
(0.7919392 0.8139713 0)
(1.3357541 0.83209763 1.4287993e-19)
(1.2581151 0.74174237 -8.8680924e-19)
(1.2507342 0.79654095 6.8474462e-19)
(1.3356362 0.69492152 -6.8668388e-19)
(1.4413329 0.69411452 0)
(1.4423064 0.76927491 -1.6743385e-19)
(1.1325783 0.49239451 -1.4920922e-18)
(1.1588359 0.46907245 -1.7938953e-18)
(1.0787387 0.48287953 1.1643359e-18)
(1.0654181 0.45054448 -1.1879164e-18)
(1.1314805 0.36789871 -9.2418837e-19)
(1.0537247 0.37080041 1.1464911e-18)
(1.9040593 0.020577968 -5.2526448e-19)
(1.92972 0.022661894 1.0640533e-18)
(1.6565021 0.03756933 6.6234954e-19)
(1.6699275 0.043694221 -7.8828196e-19)
(1.7579507 0.044314861 0)
(1.919229 0.036483696 -1.3973423e-18)
(0.074329124 2.0305872 2.3539126e-20)
(0.068649867 1.9702521 0)
(0.109713 2.0252076 2.5903713e-19)
(0.12329645 2.0165386 -2.3523426e-19)
(0.10429805 1.9279319 4.5792217e-20)
(0.093230472 1.9189337 0)
(0.00026975334 2.0582694 0)
(0.0017098307 1.9261733 -1.2743849e-21)
(0.013378057 1.8864172 1.1531196e-21)
(0.023680222 1.9664627 7.9394674e-21)
(0.00057189788 2.1906519 -7.0210856e-21)
(-0.0038904278 2.1966767 1.1990793e-20)
(0.65495985 1.6892034 -4.8141724e-19)
(0.61835908 1.7224122 5.0788507e-19)
(0.57873897 1.7142109 -3.297403e-20)
(0.57690141 1.6651715 1.7174038e-20)
(0.81587 1.724542 0)
(0.70178955 1.8288232 1.7783173e-19)
(0.76906224 1.8393181 -1.7265639e-19)
(0.61385644 1.7335279 3.2721831e-20)
(0.67984676 1.6570166 0)
(0.72822591 1.6291144 0)
(0.71347139 2.5114163 7.9090831e-19)
(0.71435689 2.5789412 1.4582043e-18)
(0.76012222 2.5792382 -1.0478067e-18)
(0.63327118 2.5873549 -2.193913e-19)
(0.62207163 2.6446067 3.6163539e-19)
(0.57632711 2.6168395 -9.0972028e-19)