/*--------------------------------*- C++ -*----------------------------------*\
  =========                 |
  \\      /  F ield         | OpenFOAM: The Open Source CFD Toolbox
   \\    /   O peration     | Website:  https://openfoam.org
    \\  /    A nd           | Version:  9
     \\/     M anipulation  |
\*---------------------------------------------------------------------------*/
FoamFile
{
    format      ascii;
    class       volScalarField;
    location    "0.19";
    object      p;
}
// * * * * * * * * * * * * * * * * * * * * * * * * * * * * * * * * * * * * * //

dimensions      [1 -1 -2 0 0 0 0];

internalField   nonuniform List<scalar> 
10000
(
0
-0.013681703
-0.013818844
-0.0075705859
0.0055601732
0.025570974
0.052515058
0.086146437
0.1263873
0.17310658
0.2261044
0.28521543
0.35017893
0.42070181
0.4965031
0.57724067
0.66248063
0.75174314
0.8444819
0.94004638
1.0376673
1.1365241
1.2357039
1.3342374
1.4310806
1.5251574
1.6153762
1.7005713
1.7795328
1.8511494
1.9144715
1.9686377
2.0131871
2.0476652
2.07146
2.0804979
2.0720849
2.0519173
2.0223224
1.9841778
1.9385318
1.8866661
1.8301683
1.7706659
1.7097071
1.6487683
1.5891562
1.5319963
1.4782146
1.4285216
1.3833771
1.3428284
1.3066065
1.2742592
1.2451519
1.2184439
1.1931136
1.1679976
1.1419227
1.1138101
1.0826302
1.0474
1.0074702
0.962513
0.91200044
0.8498247
0.77563964
0.69555672
0.61042887
0.52088611
0.42695995
0.32940614
0.22898596
0.12648684
0.022816505
-0.081113571
-0.18451427
-0.28665161
-0.38680703
-0.48436332
-0.57876555
-0.66953969
-0.75625701
-0.83852549
-0.91605809
-0.98863544
-1.0560317
-1.118067
-1.174615
-1.2254901
-1.2706231
-1.3099445
-1.343377
-1.3708513
-1.3923833
-1.4078539
-1.417312
-1.4209212
-1.4190806
-1.4044873
0.012453055
-0.0010370928
-0.00088781089
0.0057828075
0.019156389
0.039547728
0.066814811
0.10083204
0.14151762
0.1886905
0.24222639
0.30189285
0.36739743
0.4384912
0.51488192
0.59618623
0.68200378
0.77186707
0.86518536
0.96124779
1.0593318
1.1585709
1.2580614
1.3567717
1.4536356
1.5475635
1.6373821
1.7218885
1.7998585
1.8700129
1.9312674
1.9826598
2.0233132
2.0522907
2.0680876
2.0714965
2.0598295
2.0353582
1.9998601
1.9547385
1.901493
1.841832
1.777582
1.7105713
1.6426259
1.5755033
1.5107435
1.4496472
1.3932505
1.3422543
1.2969107
1.257256
1.2232276
1.1943845
1.1699849
1.1490044
1.1302137
1.1122322
1.0936298
1.0729997
1.0490538
1.0205786
0.98651249
0.94596487
0.89762962
0.83915665
0.77381404
0.69986382
0.61903946
0.53246767
0.44089352
0.3451465
0.24611135
0.14470011
0.041877777
-0.061455433
-0.16446996
-0.26641346
-0.36650218
-0.46408884
-0.55864375
-0.64962172
-0.73661298
-0.81924308
-0.89715373
-0.97011983
-1.0379383
-1.1003895
-1.1573562
-1.2086803
-1.2542419
-1.2939582
-1.3277793
-1.3555953
-1.3774385
-1.3931784
-1.4028552
-1.4067282
-1.4050924
-1.3905931
0.010287993
-0.0031487103
-0.0026413361
0.0042344261
0.017956284
0.038634353
0.066239913
0.10066507
0.14176816
0.18945403
0.24354967
0.30380865
0.37000914
0.44190098
0.51916745
0.60146132
0.68836082
0.77936136
0.87387274
0.97124714
1.0707179
1.1714427
1.2724409
1.372698
1.4711473
1.5666014
1.6578019
1.7434605
1.8222549
1.8928506
1.953993
2.0045301
2.0433923
2.0696774
2.0826675
2.0818644
2.0664275
2.0373612
1.9960261
1.9439438
1.8828766
1.8147789
1.7417684
1.6660879
1.5898842
1.5152087
1.4439211
1.3775827
1.3174238
1.2642947
1.2186265
1.1804613
1.1495462
1.1252621
1.1066619
1.0924712
1.081175
1.0710874
1.0604596
1.0475479
1.0307318
1.0085702
0.97985145
0.94344721
0.89834847
0.84372475
0.78064958
0.70934302
0.63051564
0.54512814
0.45414104
0.3585053
0.25922319
0.15735946
0.053913096
-0.050187671
-0.15404081
-0.25678433
-0.35768842
-0.4560804
-0.5513748
-0.64310441
-0.73075317
-0.81399273
-0.89252427
-0.96606772
-1.0343824
-1.0972854
-1.1546693
-1.206373
-1.2522626
-1.2922652
-1.326351
-1.3544053
-1.3764448
-1.3924225
-1.4022528
-1.4062643
-1.4047984
-1.3903834
0.0010404455
-0.012130219
-0.011416792
-0.0041673269
0.0098841349
0.030955406
0.059036495
0.0939548
0.13565225
0.18401487
0.23884453
0.29995276
0.36714178
0.44015518
0.51868588
0.60238479
0.69084065
0.78355284
0.87995096
0.97939075
1.0811075
1.1842264
1.2877703
1.3907044
1.4918924
1.5900785
1.6839202
1.7720168
1.8529346
1.9252302
1.9874611
2.0382916
2.0765008
2.1010366
2.1110064
2.1056946
2.0849929
2.0494416
2.0002125
1.9388819
1.8674074
1.7880684
1.7034108
1.6161532
1.5289458
1.4442821
1.364412
1.2912386
1.2262541
1.1704727
1.1243805
1.0880073
1.0610176
1.0426136
1.0315731
1.0262713
1.0247902
1.0250186
1.0247754
1.0218925
1.0143537
1.0004131
0.97863861
0.94790098
0.90734697
0.85664768
0.79633825
0.72673956
0.64881089
0.56360024
0.47218031
0.37563374
0.27513785
0.17184956
0.066819941
-0.038926329
-0.14440223
-0.24871016
-0.35108595
-0.45087524
-0.54747044
-0.64036277
-0.72909494
-0.81331293
-0.89270508
-0.96700608
-1.036007
-1.0995192
-1.1574252
-1.209588
-1.2558745
-1.2962301
-1.3306232
-1.3589711
-1.3812751
-1.3974806
-1.4075423
-1.4117597
-1.4104469
-1.3961787
-0.015883229
-0.028900232
-0.027819617
-0.020251844
-0.0058259833
0.015721203
0.04430853
0.079840177
0.12225261
0.17140087
0.22713994
0.28931943
0.35773961
0.4321532
0.51228065
0.59779368
0.68828495
0.78326972
0.8822021
0.98444311
1.0892219
1.1956614
1.3027969
1.4095518
1.5147159
1.6169606
1.7148613
1.8068839
1.8914194
1.9668535
2.0315545
2.0839137
2.122441
2.145818
2.1531005
2.1435911
2.1168216
2.0732457
2.0140279
1.9408133
1.8558215
1.7618026
1.6618437
1.5592651
1.4574092
1.3594248
1.2681323
1.1858926
1.1145423
1.0553037
1.0086976
0.97473111
0.95298508
0.94242065
0.94144444
0.94795511
0.95948011
0.97330508
0.98662686
0.9966951
1.0010112
0.99747128
0.9843643
0.9605052
0.92516256
0.87820769
0.82003469
0.75154953
0.67365419
0.58753802
0.49451151
0.39588812
0.29301631
0.18718342
0.079544792
-0.028774175
-0.13671887
-0.24336926
-0.34793173
-0.44970764
-0.54809689
-0.64260704
-0.73277766
-0.81826312
-0.89875947
-0.97401699
-1.0438531
-1.1080927
-1.1666003
-1.2192474
-1.2659905
-1.3067422
-1.3414833
-1.3701592
-1.3927492
-1.4091806
-1.4194585
-1.4238896
-1.422784
-1.4086672
-0.040749204
-0.053470649
-0.052099657
-0.044183151
-0.029324621
-0.0073061834
0.021863027
0.058090627
0.10128032
0.15132934
0.20813529
0.27155632
0.34140695
0.4174766
0.4995213
0.58722815
0.68020552
0.77800186
0.88009294
0.98584129
1.0944938
1.2052025
1.3169981
1.4287614
1.5392257
1.6469907
1.7505134
1.8481124
1.9379783
2.0182623
2.0870868
2.1425301
2.18275
2.2061152
2.2113952
2.1976448
2.1641232
2.1111038
2.039719
1.9517604
1.8497993
1.7371442
1.6176089
1.4953607
1.3746247
1.2594321
1.1533891
1.0594628
0.97991063
0.9162272
0.86903162
0.83829822
0.82343112
0.82305698
0.8351269
0.85694439
0.88528381
0.91657033
0.94716375
0.9735901
0.99267398
1.0018339
0.99908747
0.98314613
0.95341537
0.91007159
0.85346844
0.78499544
0.70585786
0.61748249
0.52145701
0.41939824
0.31282636
0.20317411
0.091783858
-0.020124273
-0.13146877
-0.24126241
-0.34867821
-0.45303201
-0.55372022
-0.65026472
-0.7422221
-0.82925217
-0.91106065
-0.98744866
-1.0582505
-1.1232718
-1.1824468
-1.2356389
-1.282845
-1.3240137
-1.3590995
-1.388122
-1.4109903
-1.4276498
-1.4381742
-1.4427958
-1.4419417
-1.4280405
-0.073505005
-0.085985755
-0.08428696
-0.075972013
-0.060698102
-0.038152695
-0.0083424937
0.028611742
0.072650962
0.12371302
0.18170578
0.24650495
0.31796932
0.3959379
0.48019265
0.57043993
0.66632749
0.76744441
0.873284
0.98323125
1.0965801
1.2125151
1.3300625
1.4480752
1.5652405
1.680068
1.790872
1.8958107
1.9928914
2.0799574
2.1547965
2.2151149
2.2586189
2.2832377
2.2872838
2.2694709
2.2286279
2.1647282
2.0788147
1.972861
1.8498717
1.7138302
1.5695314
1.422298
1.2775715
1.1405489
1.0158359
0.90717965
0.81735791
0.7481826
0.70035292
0.67378569
0.66770106
0.68034077
0.7090828
0.75044492
0.80022398
0.8537478
0.90619787
0.95304926
0.99031279
1.014793
1.0241979
1.0171821
0.99329121
0.95290653
0.89733922
0.82778884
0.74599582
0.6538377
0.55328474
0.44625126
0.33452269
0.21973801
0.10339126
-0.013191408
-0.12885673
-0.24261096
-0.35359582
-0.46112538
-0.56460041
-0.6635617
-0.75761316
-0.8464233
-0.92974764
-1.0073938
-1.0792401
-1.1451494
-1.2050148
-1.2587752
-1.3064668
-1.3480744
-1.3835315
-1.4128374
-1.4359649
-1.4528776
-1.4636328
-1.4684841
-1.467885
-1.4542524
-0.11430204
-0.12647233
-0.1243967
-0.11571102
-0.099976094
-0.076862305
-0.046406059
-0.008690242
0.036264488
0.088406609
0.14766148
0.21395117
0.28719225
0.3672601
0.45396146
0.54704766
0.64622151
0.75110762
0.86123689
0.97605534
1.0949122
1.2170174
1.3414089
1.4669368
1.5922476
1.7157572
1.8356497
1.949907
2.0563068
2.1523794
2.2354846
2.3028612
2.3516737
2.3792558
2.3832933
2.3617806
2.3131231
2.2368404
2.1337505
2.005935
1.8568887
1.6915405
1.5160025
1.3370901
1.1619032
0.99723301
0.84898963
0.72189452
0.61934683
0.54346885
0.49499307
0.47376863
0.47884891
0.50806012
0.55807818
0.6244087
0.7015636
0.78337111
0.86346207
0.93585826
0.99548527
1.0384221
1.0620334
1.0649836
1.0471141
1.0092837
0.95324882
0.88102084
0.79481889
0.69702802
0.5901194
0.47637612
0.35786345
0.23648924
0.11390951
-0.0084809045
-0.12944152
-0.24796461
-0.36319168
-0.47443477
-0.58113843
-0.68287429
-0.77928976
-0.87007498
-0.95504103
-1.0340697
-1.1070049
-1.1737988
-1.234373
-1.2887242
-1.3368892
-1.3788854
-1.4147283
-1.4443221
-1.4676628
-1.4848117
-1.4957526
-1.5008696
-1.5005592
-1.4871905
-0.1631521
-0.17495188
-0.1725149
-0.16341224
-0.1471908
-0.12352207
-0.092410088
-0.053902909
-0.0080118318
0.045229463
0.10579337
0.17366201
0.24879569
0.3310977
0.42042286
0.51658858
0.61935336
0.72839392
0.84331343
0.96363563
1.0887679
1.2179567
1.3502739
1.4845923
1.6195296
1.7534292
1.8843704
2.010151
2.1282706
2.2359095
2.3299469
2.4070429
2.4637072
2.4964987
2.5021968
2.4778748
2.4212494
2.3311194
2.2078775
2.053627
1.8724597
1.6704614
1.4553959
1.2361887
1.0222628
0.82258634
0.64478873
0.49478406
0.37661649
0.29265497
0.24358383
0.2291596
0.24831539
0.29848308
0.37558757
0.47384493
0.58602886
0.70393902
0.8190726
0.92350807
1.0106726
1.0757281
1.1157323
1.1295377
1.1174363
1.0809595
1.0228137
0.94584494
0.85299331
0.74733778
0.63193088
0.50948608
0.38241979
0.25287772
0.1226657
-0.006698057
-0.13393599
-0.2580129
-0.37810387
-0.49356123
-0.60386098
-0.7086457
-0.80761241
-0.90056143
-0.98729832
-1.0677113
-1.1417592
-1.2094601
-1.2707499
-1.325662
-1.3742267
-1.4165717
-1.4527012
-1.4825551
-1.5061357
-1.5234717
-1.5346048
-1.5399706
-1.5399712
-1.5268933
-0.22008062
-0.23150259
-0.22863271
-0.21909701
-0.20241509
-0.1781975
-0.14642586
-0.10714268
-0.060341995
-0.0060101384
0.055887183
0.1253752
0.20244237
0.28704403
0.37910735
0.47851769
0.58510006
0.69861962
0.81877286
0.94515896
1.0772524
1.2143777
1.3556749
1.5000526
1.6461322
1.7922241
1.9363181
2.0760361
2.2085793
2.3307421
2.4388875
2.5289824
2.5966971
2.637621
2.6473902
2.6219788
2.5576948
2.4523734
2.3057497
2.1197627
1.8990125
1.6508772
1.3854181
1.1146684
0.85130451
0.60723825
0.39244233
0.21423662
0.077180777
-0.016318253
-0.065842945
-0.071761681
-0.035091393
0.041343261
0.15274719
0.29187282
0.44916066
0.61353227
0.77341475
0.91820589
1.039302
1.1307414
1.1894078
1.2146119
1.2075646
1.170564
1.1078927
1.0234163
0.92110041
0.80487486
0.6784324
0.54501714
0.40740722
0.26798896
0.12874052
-0.0087377418
-0.14318631
-0.27357372
-0.39909469
-0.51917928
-0.63337681
-0.74142199
-0.84309999
-0.93826067
-1.0267902
-1.1086056
-1.1837509
-1.2522796
-1.314194
-1.3696355
-1.4185752
-1.4612029
-1.4975103
-1.5275396
-1.5513465
-1.5688313
-1.5801511
-1.5857286
-1.5860218
-1.5733146
-0.28513108
-0.29608226
-0.29276721
-0.28282926
-0.26569286
-0.24093478
-0.20854361
-0.16854473
-0.12088597
-0.065493123
-0.0022873557
0.06878493
0.1477561
0.23465752
0.32949505
0.43222979
0.54278292
0.66102864
0.78675938
0.91966169
1.0593105
1.2051458
1.3564088
1.5120775
1.6708255
1.8309734
1.9904433
2.1466994
2.2966803
2.4367746
2.5627785
2.6698652
2.7526975
2.805662
2.8229841
2.7988375
2.7281533
2.6069405
2.4338045
2.2098396
1.9399182
1.6331905
1.3030058
0.96576146
0.63882579
0.33835057
0.077471523
-0.13502727
-0.29444392
-0.39888797
-0.44861247
-0.44414723
-0.38613023
-0.27716158
-0.12244234
0.069187494
0.28507549
0.50980399
0.72735976
0.92332001
1.0863164
1.2090237
1.2884321
1.3248351
1.3207618
1.2809278
1.2103791
1.1147639
0.99945626
0.8693818
0.7289715
0.58201551
0.43169634
0.2806429
0.13093851
-0.015794882
-0.15827255
-0.29555532
-0.42698158
-0.55204313
-0.67039704
-0.78183717
-0.88627429
-0.9836423
-1.0739103
-1.1570721
-1.2332149
-1.3024649
-1.3649165
-1.4207297
-1.4699369
-1.5127564
-1.5491751
-1.579287
-1.6031843
-1.6208191
-1.6323058
-1.6381006
-1.6386859
-1.6264013
-0.35826017
-0.36869047
-0.36496631
-0.35462897
-0.33704591
-0.3117946
-0.27886168
-0.23822631
-0.18977793
-0.13340095
-0.068988893
0.0035583278
0.084344188
0.17347315
0.2710342
0.377091
0.49167925
0.61478155
0.74629812
0.88604026
1.0337236
1.1889287
1.3510365
1.5191489
1.6920381
1.8680955
2.0452334
2.220816
2.3915664
2.5534733
2.7016871
2.8305697
2.9337018
3.0039294
3.0336197
3.0148724
2.9405619
2.8035546
2.6006652
2.3312979
2.0002661
1.6187596
1.204479
0.78015618
0.37041591
-0.0020248232
-0.31992166
-0.57332915
-0.75829021
-0.87468727
-0.92422187
-0.90762641
-0.82443753
-0.67585593
-0.46654971
-0.20699447
0.085774234
0.38990635
0.68269638
0.94396521
1.1587696
1.3184192
1.4202934
1.4666538
1.4627443
1.4153711
1.3321038
1.2206584
1.0879669
0.94011186
0.7823779
0.61910141
0.45381381
0.28930899
0.12776161
-0.029208261
-0.18044994
-0.32513497
-0.46277603
-0.59301781
-0.71562983
-0.83049647
-0.93763095
-1.0371267
-1.1289862
-1.2133388
-1.2903458
-1.3601495
-1.422981
-1.4790389
-1.528381
-1.5712472
-1.6076638
-1.6378057
-1.6616888
-1.6794246
-1.691027
-1.6969983
-1.6978913
-1.6860926
-0.43946055
-0.44935018
-0.44520858
-0.43448106
-0.41649768
-0.39083396
-0.35744908
-0.31626945
-0.26714509
-0.20993371
-0.14448656
-0.070634116
0.011805567
0.10300843
0.20315815
0.31243962
0.43100484
0.55894912
0.6963111
0.84306697
0.99910511
1.1641788
1.3378534
1.5194164
1.7077954
1.9015285
2.0986274
2.2964367
2.4915227
2.6795246
2.8550329
3.0115299
3.1413379
3.2356153
3.284471
3.2773182
3.2032991
3.0530681
2.8180111
2.4952454
2.0883343
1.6103664
1.0850796
0.54492344
0.025686865
-0.43956511
-0.82767938
-1.1280814
-1.3401516
-1.4683236
-1.5171569
-1.487517
-1.376412
-1.1810707
-0.9034121
-0.55524387
-0.16010822
0.2502818
0.64277341
0.98832225
1.2670431
1.4694326
1.5945888
1.6477775
1.6382017
1.5769633
1.4746278
1.3413019
1.1858086
1.0155701
0.83674604
0.65418054
0.47164391
0.29203371
0.11742386
-0.050645615
-0.21123969
-0.36371176
-0.50772145
-0.64314635
-0.76992469
-0.88812635
-0.99777407
-1.0991416
-1.1924046
-1.2777496
-1.3553839
-1.4255674
-1.4885371
-1.5446183
-1.5939207
-1.6367041
-1.6729992
-1.7030044
-1.7268
-1.7445203
-1.7562225
-1.7623521
-1.7635474
-1.7522871
-0.5287007
-0.53799052
-0.53346293
-0.52236364
-0.50405171
-0.47806741
-0.44433348
-0.40274526
-0.3531283
-0.29529452
-0.22903222
-0.15410564
-0.070260361
0.022774194
0.12528643
0.23757266
0.35990605
0.49252356
0.63563137
0.78939412
0.95390003
1.1291181
1.3148449
1.5106306
1.7156583
1.9286798
2.1479195
2.3708239
2.5939416
2.8126895
3.0211985
3.2121183
3.3764757
3.5036426
3.5811942
3.5950981
3.5301094
3.370654
3.103116
2.7187498
2.2174375
1.6133952
0.93880737
0.24080098
-0.42664904
-1.0129301
-1.4857658
-1.836397
-2.0732039
-2.2101432
-2.2576182
-2.2164166
-2.0779366
-1.8306866
-1.4690057
-1.0041012
-0.46924097
0.086724911
0.61360642
1.0693176
1.4269705
1.6770398
1.8232782
1.8768183
1.8530983
1.7687087
1.6385749
1.4756932
1.2909699
1.0931714
0.88921096
0.68434501
0.48241832
0.28622068
0.097603997
-0.082167706
-0.25244806
-0.41283582
-0.56316245
-0.70361522
-0.83433414
-0.95551151
-1.0674017
-1.1703457
-1.2646395
-1.3506122
-1.4285331
-1.4988012
-1.5617139
-1.6175709
-1.6666229
-1.7090932
-1.7451309
-1.7748434
-1.7984613
-1.8160756
-1.8277968
-1.8340711
-1.83553
-1.8248523
-0.62587299
-0.63455368
-0.62963399
-0.61822777
-0.59966683
-0.57346367
-0.53952781
-0.4977311
-0.44785829
-0.38965882
-0.32285688
-0.24715882
-0.16223616
-0.067709674
0.036816957
0.15174585
0.27748692
0.41444582
0.56301078
0.72354561
0.89637542
1.0817334
1.2797
1.4901512
1.7126539
1.9463105
2.189626
2.4403208
2.6951203
2.9494702
3.1971682
3.4302394
3.6385999
3.8097921
3.9287201
3.9772018
3.9340139
3.7762878
3.4804153
3.0273196
2.4090628
1.6384278
0.75808551
-0.16201879
-1.0362417
-1.7818709
-2.3528756
-2.7485495
-2.9977489
-3.1346332
-3.1800645
-3.1343033
-2.9780465
-2.6809371
-2.2193092
-1.5985748
-0.86693722
-0.10514287
0.60713601
1.2080305
1.6624084
1.9632245
2.1233674
2.1647909
2.1132997
1.9925346
1.8229374
1.6210301
1.3996796
1.1687665
0.93567186
0.70568935
0.4825432
0.26862453
0.065398246
-0.12631493
-0.30618435
-0.47422498
-0.63056283
-0.77554764
-0.90971341
-1.0334268
-1.147071
-1.2511195
-1.3460432
-1.4322412
-1.5101087
-1.5800348
-1.6425522
-1.6979054
-1.7464527
-1.7883795
-1.8239297
-1.8532015
-1.8764612
-1.8939066
-1.9055838
-1.9119699
-1.9136926
-1.903578
-0.73085447
-0.73890483
-0.73361693
-0.72197703
-0.70325733
-0.67697721
-0.64304172
-0.60127902
-0.55141897
-0.49315965
-0.42616718
-0.35007771
-0.26448285
-0.16891289
-0.06285817
0.054208231
0.1828443
0.32362716
0.47713321
0.64394285
0.8246524
1.0198085
1.2298378
1.4550061
1.6953439
1.9504577
2.2193197
2.5001475
2.7900009
3.0846427
3.3779464
3.6616014
3.9247806
4.1535768
4.3304298
4.4328283
4.4323
4.2952397
3.984062
3.4608415
2.6992724
1.7050308
0.53221173
-0.7132252
-1.8863002
-2.8416079
-3.515257
-3.9338115
-4.168461
-4.2848633
-4.3278269
-4.2963151
-4.1452499
-3.8148654
-3.2434998
-2.4139917
-1.3954543
-0.33072602
0.64548341
1.4403183
2.0106573
2.3583564
2.5151343
2.5238477
2.4234081
2.2477478
2.0238442
1.7716823
1.5056566
1.2361192
0.97026097
0.71299421
0.4674411
0.23526728
0.017431063
-0.1858305
-0.3747501
-0.54972507
-0.71132968
-0.86022922
-0.99710887
-1.1226458
-1.2374268
-1.3419866
-1.4369519
-1.5228728
-1.6002013
-1.6694215
-1.7311453
-1.7856889
-1.8333964
-1.8745296
-1.9093328
-1.9380004
-1.9607593
-1.9778875
-1.9894209
-1.9958435
-1.9978106
-1.9882788
-0.84347802
-0.85085562
-0.84526601
-0.83346013
-0.81471551
-0.7885516
-0.7548471
-0.71338415
-0.66384669
-0.60588917
-0.53911987
-0.46310094
-0.37734023
-0.28128398
-0.17430922
-0.055749129
0.075097613
0.21897168
0.37665181
0.54896638
0.73679176
0.94101156
1.1624592
1.4018679
1.6598011
1.9365104
2.2316549
2.5441504
2.8718035
3.2108903
3.5558546
3.8986416
4.2283236
4.5305034
4.786284
4.9695316
5.0437127
4.960588
4.6623446
4.0817724
3.1517597
1.8568129
0.26010832
-1.4868051
-3.1344826
-4.3901519
-5.1456166
-5.4951307
-5.6173581
-5.6688482
-5.7105476
-5.7363764
-5.6812286
-5.3986444
-4.7277825
-3.5943923
-2.1175644
-0.58445446
0.77324261
1.8268124
2.5300261
2.9068845
3.0273545
2.9665435
2.7849095
2.5290805
2.2325656
1.9177613
1.599164
1.2862868
0.98516316
0.69960368
0.43153109
0.18172898
-0.049795299
-0.26351737
-0.46030581
-0.64113021
-0.80693116
-0.95869892
-1.0973945
-1.2239124
-1.3390164
-1.4434202
-1.5377429
-1.6227557
-1.6989947
-1.7670614
-1.8275356
-1.8808466
-1.9273499
-1.9673708
-2.0011729
-2.0290022
-2.0511154
-2.0677696
-2.0790773
-2.0854591
-2.0875907
-2.0787062
-0.9635126
-0.9702271
-0.9643582
-0.95250161
-0.93391111
-0.90807675
-0.87485379
-0.83398917
-0.78513242
-0.72789067
-0.66181791
-0.5864095
-0.50109063
-0.40520772
-0.29803183
-0.17877004
-0.046583709
0.099432665
0.26027177
0.43702463
0.63085211
0.84296954
1.0746436
1.3271499
1.6016715
1.8992119
2.2203505
2.5648742
2.9317091
3.3181606
3.7195294
4.1288691
4.5365808
4.9297451
5.2904855
5.5908938
5.7875209
5.8155848
5.5865225
4.9791126
3.8556297
2.1437792
-0.083174538
-2.6027937
-4.9378695
-6.5523855
-7.3155261
-7.4989355
-7.4408385
-7.3745572
-7.4196727
-7.5611319
-7.6622984
-7.5063297
-6.7871034
-5.2751052
-3.1274501
-0.87156029
1.0520529
2.4617959
3.3109156
3.6718577
3.6919476
3.5024785
3.193143
2.8234686
2.4325599
2.0428445
1.6655067
1.3068734
0.97029597
0.65742394
0.36852412
0.1030742
-0.1400905
-0.36232678
-0.56516535
-0.75015697
-0.91869518
-1.0720403
-1.2114029
-1.3378531
-1.4522958
-1.5556192
-1.6486477
-1.7320578
-1.8065863
-1.8729187
-1.931685
-1.9833077
-2.028234
-2.0667835
-2.099294
-2.126057
-2.1473309
-2.1633553
-2.174298
-2.1805403
-2.1828238
-2.1745675
-1.0907063
-1.0967304
-1.0906991
-1.0789288
-1.0606597
-1.0353768
-1.0029154
-0.96298723
-0.91520633
-0.85914313
-0.79430626
-0.72012252
-0.63592833
-0.54097205
-0.43443545
-0.3154225
-0.18294892
-0.035933468
0.12681993
0.30663165
0.50494378
0.72330805
0.96342268
1.2271349
1.5163268
1.8328017
2.1782018
2.5535594
2.9590779
3.3934318
3.8530842
4.3324722
4.8250222
5.3237793
5.819784
6.2892196
6.6790588
6.9021699
6.8472756
6.3268487
5.0460039
2.7966027
-0.45685674
-4.5347155
-8.3898762
-10.578975
-10.88884
-10.326078
-9.6131518
-9.1926255
-9.2554806
-9.7569561
-10.467306
-10.970641
-10.613682
-8.4874705
-4.8563915
-1.1380099
1.7067456
3.5637924
4.5113955
4.7371601
4.5401798
4.1328837
3.6271505
3.0976924
2.5901512
2.1190877
1.6832295
1.2817655
0.91343852
0.57722899
0.27144161
-0.0059908332
-0.25741737
-0.48523449
-0.69162411
-0.87860687
-1.0479756
-1.2012498
-1.3398474
-1.4649804
-1.5777189
-1.6790111
-1.7698291
-1.8509079
-1.9230943
-1.9870642
-2.0435266
-2.0929554
-2.1358546
-2.1725503
-2.2034438
-2.2288725
-2.2490858
-2.2643408
-2.2747667
-2.2807759
-2.2831528
-2.2755746
-1.2247556
-1.2301389
-1.2240072
-1.2124667
-1.1947097
-1.1702262
-1.138831
-1.1002042
-1.0539353
-0.99956638
-0.93655888
-0.86426795
-0.78194902
-0.68877759
-0.5838523
-0.46617875
-0.3346203
-0.18792931
-0.024742679
0.15645387
0.35734339
0.57980433
0.8259436
1.0981392
1.3989923
1.7311571
2.097328
2.500171
2.9413978
3.4212947
3.9379139
4.4860793
5.0613709
5.6673446
6.3198118
7.0236765
7.7239344
8.274805
8.5481819
8.2879097
6.9700151
4.2671756
-0.11334649
-6.6611158
-13.300934
-16.336366
-15.325906
-13.404367
-11.79944
-10.930123
-11.054232
-12.061227
-13.589692
-15.292463
-16.065044
-12.977969
-6.6364128
-0.69380427
3.1475101
5.3704732
6.2984428
6.2015619
5.6009506
4.8362723
4.0339274
3.2932612
2.6564208
2.1111045
1.6269508
1.1923416
0.80078053
0.44895745
0.13303079
-0.15062001
-0.4054987
-0.63487052
-0.84150049
-1.0277524
-1.1956966
-1.3470278
-1.4832241
-1.6056771
-1.7154529
-1.8137108
-1.9013448
-1.9792513
-2.0483316
-2.1093175
-2.1628789
-2.2095923
-2.2500005
-2.2844686
-2.3134063
-2.3371726
-2.3560694
-2.3703593
-2.3801263
-2.3858191
-2.3882499
-2.3813345
-1.3653338
-1.3700866
-1.3639607
-1.3528005
-1.3357643
-1.3123425
-1.2823334
-1.2454024
-1.2011261
-1.1490106
-1.0884634
-1.0187829
-0.93917002
-0.84874626
-0.746515
-0.63137055
-0.50205593
-0.35718644
-0.19526954
-0.014637148
0.18658767
0.41054598
0.65967693
0.9367887
1.2451077
1.5881482
1.9696922
2.3937567
2.8636772
3.3816642
3.9482775
4.5604084
5.2168482
5.9360862
6.7531384
7.7514717
8.909092
9.9856552
10.806733
11.201494
9.8418504
5.8069272
-1.0186927
-11.805028
-25.127359
-28.706732
-22.782597
-18.636091
-15.681974
-12.87911
-13.111594
-16.33002
-19.020377
-22.44237
-27.72832
-23.842537
-10.985107
-1.0136927
4.8472603
8.1434969
9.0195382
8.1836993
6.8930536
5.5779406
4.3586918
3.3494262
2.5842952
1.9792856
1.4639499
1.0142594
0.61565994
0.26179139
-0.053579642
-0.33522363
-0.58720703
-0.81313971
-1.0160056
-1.1983794
-1.3623516
-1.5096521
-1.6417448
-1.7599892
-1.8655663
-1.9596326
-2.043121
-2.1170102
-2.1821849
-2.2394571
-2.2895018
-2.3329481
-2.3703693
-2.4022084
-2.4288299
-2.4506244
-2.4679553
-2.4810528
-2.4900236
-2.495291
-2.4977013
-2.4914438
-1.5120477
-1.5161753
-1.5101616
-1.4995398
-1.4834457
-1.4613611
-1.4330856
-1.398284
-1.356512
-1.3072332
-1.2498164
-1.1835306
-1.1075378
-1.0208941
-0.92251279
-0.81116949
-0.68553367
-0.54413586
-0.3853716
-0.2074677
-0.0084220361
0.21406641
0.46262848
0.74033037
1.0508293
1.3983199
1.7876401
2.2235845
2.7101362
3.2493206
3.83879
4.4740156
5.1547709
5.9425669
6.9067958
8.3309302
10.202029
12.054618
13.669411
15.697333
15.331177
10.997028
0.8198594
-21.06523
-51.000532
-57.411888
-31.961065
-21.962177
-17.587943
-11.230598
-11.679925
-18.890309
-22.734056
-31.308768
-55.322267
-48.094844
-19.455878
0.79973126
9.7734149
13.449379
13.225
10.810466
8.4128335
6.2022291
4.3470782
2.9829932
2.1730968
1.6004719
1.125031
0.71091826
0.3397983
0.0064267393
-0.2933003
-0.56271892
-0.80426106
-1.0209997
-1.2157272
-1.3907579
-1.5480546
-1.689131
-1.8153742
-1.9279172
-2.0279897
-2.1166879
-2.1950201
-2.2639279
-2.3243496
-2.377176
-2.4230682
-2.4626662
-2.4966054
-2.5253717
-2.5493155
-2.5688603
-2.5843608
-2.5960377
-2.6040419
-2.6087678
-2.6110722
-2.6054868
-1.664418
-1.6679409
-1.6621537
-1.6522329
-1.6372938
-1.616843
-1.5906859
-1.5584694
-1.5197249
-1.4738932
-1.4203321
-1.3582937
-1.2868909
-1.2051005
-1.1117702
-1.0055857
-0.88515794
-0.74897367
-0.59535403
-0.42247765
-0.22829991
-0.010508823
0.23352628
0.50685738
0.81325319
1.1573277
1.5445371
1.9807554
2.4701137
3.0110686
3.5844307
4.1411038
4.5771272
5.0247534
5.8000067
7.8098907
11.257565
13.971494
16.739523
21.44108
24.795492
25.724201
20.21284
11.851523
-62.780163
-84.30283
-30.520911
187.94207
831.80099
1173.2614
1180.8624
835.59547
182.35646
-27.827829
-79.035751
-56.677552
13.191486
20.41964
23.674495
22.827159
19.256708
14.054389
9.0376325
5.8522413
3.0734147
1.3770357
0.89974033
0.72889311
0.53433871
0.26336991
-0.031998581
-0.31916376
-0.5873275
-0.83394016
-1.0567474
-1.2581111
-1.4401423
-1.604436
-1.7523852
-1.8851692
-2.0037618
-2.1091629
-2.2024361
-2.2846152
-2.3567527
-2.4197618
-2.4745735
-2.5221581
-2.5632174
-2.5983573
-2.6283009
-2.6535146
-2.6743963
-2.6913663
-2.7047495
-2.714806
-2.7216744
-2.7257591
-2.7278632
-2.7229632
-1.8218898
-1.82486
-1.8193967
-1.8103415
-1.7967876
-1.7782928
-1.7546501
-1.7254744
-1.6902929
-1.6485623
-1.59964
-1.5427424
-1.4769241
-1.4010961
-1.3140578
-1.2144585
-1.1008364
-0.97164122
-0.82518706
-0.65966026
-0.47308688
-0.26331073
-0.027973231
0.23562265
0.53082553
0.861979
1.234504
1.6562154
2.1322996
2.6616594
3.2200965
3.6367438
3.5348624
3.3133682
3.4462719
5.793214
11.082934
14.641753
15.272653
24.48729
32.331018
30.206248
28.301787
99.929015
259.40544
1379.8206
4337.405
6254.6558
6692.2196
6601.2891
6624.1394
6732.8009
6254.9194
4227.9751
1214.5159
215.98559
107.74864
28.394436
27.491719
28.825972
23.681912
12.108256
7.6463455
5.4045812
0.98238952
-1.3134068
-1.2589152
-0.67756935
-0.27042469
-0.29772348
-0.49014084
-0.71167684
-0.93344864
-1.1482664
-1.3430684
-1.5227106
-1.6877012
-1.838163
-1.9744102
-2.0969597
-2.2063512
-2.3032242
-2.3884659
-2.4630332
-2.5278948
-2.5840294
-2.632407
-2.6739588
-2.7094724
-2.7395831
-2.7649874
-2.7861706
-2.8035875
-2.8176306
-2.8286216
-2.8368413
-2.8424071
-2.8457036
-2.8475683
-2.8433266
-1.9838689
-1.9863129
-1.9812903
-1.9732656
-1.9613504
-1.9451333
-1.9243848
-1.8987118
-1.8676681
-1.8307348
-1.7872569
-1.7364025
-1.6771794
-1.6084644
-1.5290101
-1.4374428
-1.3322503
-1.2118327
-1.0745176
-0.9185687
-0.74221029
-0.54364041
-0.32103745
-0.072510856
0.20407686
0.51139393
0.85257923
1.2381602
1.667257
2.1500955
2.6755786
2.9106208
2.6864222
2.7278555
2.7308745
5.3750411
15.525837
18.215269
15.390775
26.693369
46.190233
33.883903
-64.090549
1062.1535
2914.2157
6869.9661
7578.0602
7214.5278
6921.2578
6696.0277
6701.7035
6931.264
7190.2924
7466.8292
6653.8385
2796.8595
1096.0659
-72.714073
28.370661
47.36667
29.10636
5.858855
6.9780554
8.8047705
0.5907704
-3.1030867
-3.2051337
-2.0726032
-1.187429
-0.97052117
-1.0459777
-1.1757277
-1.326141
-1.5066638
-1.6595852
-1.8114247
-1.9557811
-2.0899567
-2.2127284
-2.3235475
-2.4223487
-2.5094642
-2.5855267
-2.6513712
-2.7079487
-2.7562687
-2.797352
-2.8321106
-2.8613574
-2.8858135
-2.9060969
-2.9227715
-2.9362844
-2.9470334
-2.9553752
-2.9615552
-2.9656794
-2.968071
-2.9696242
-2.9659603
-2.1497061
-2.1516307
-2.1471815
-2.1403744
-2.1303319
-2.1166874
-2.0992055
-2.0775203
-2.0512227
-2.0197932
-1.9825544
-1.9386475
-1.8870625
-1.8266559
-1.7561309
-1.6740606
-1.5789023
-1.4690147
-1.3427326
-1.1984244
-1.0345493
-0.84983532
-0.64331052
-0.41440422
-0.1630147
0.11035619
0.40463473
0.7201436
1.0536488
1.4090323
1.6796794
1.6099246
1.7449465
2.7283888
3.6923122
10.778623
14.867821
26.448279
39.501047
38.543083
68.236754
105.13449
969.81439
4966.7558
6233.9465
6560.5369
6724.0116
6706.295
6603.5149
6508.0926
6507.8916
6599.1572
6681.7915
6671.778
6506.444
6280.8212
5180.7948
1213.8297
91.0848
76.069034
38.546525
39.047136
11.381612
6.031289
4.4340365
-1.7203457
-3.8690696
-3.248396
-2.407976
-1.8342732
-1.7014744
-1.7111253
-1.7746916
-1.8789517
-1.9944992
-2.1184025
-2.2406667
-2.3572246
-2.4654438
-2.5636042
-2.6508581
-2.727192
-2.7930432
-2.849113
-2.8963859
-2.9359541
-2.9688528
-2.9960026
-3.0182515
-3.0363709
-3.0509816
-3.0626666
-3.0718676
-3.078994
-3.0844057
-3.0883468
-3.0908675
-3.0922739
-3.0934097
-3.0903175
-2.3187038
-2.3201348
-2.3163751
-2.3109479
-2.3029886
-2.2921966
-2.2783678
-2.2611701
-2.2402152
-2.2149779
-2.1847702
-2.1487376
-2.1058711
-2.0550006
-1.9947788
-1.9237174
-1.8402171
-1.7425843
-1.6291081
-1.4982244
-1.3486703
-1.1795388
-0.99104858
-0.78451432
-0.56241958
-0.33097244
-0.09815903
0.13035554
0.34135254
0.46269308
0.34823155
0.057432787
-0.16455084
1.1276025
1.301872
3.9312092
2.8739662
27.454681
56.67927
0.52024642
-14.168435
2421.1258
4370.8306
5297.4897
5821.3988
6106.6718
6220.2137
6251.3309
6241.6993
6221.17
6220.0891
6237.0071
6238.916
6202.6539
6101.1868
5870.752
5429.9807
4530.7062
2343.9624
41.117551
19.770336
50.199505
10.143362
-9.0083177
-4.3606808
-5.2599168
-5.0941
-5.5035654
-3.973109
-2.8966178
-2.4254009
-2.2658838
-2.2374497
-2.2749663
-2.3453951
-2.4360444
-2.5382851
-2.6368455
-2.7305074
-2.8157135
-2.8908834
-2.9556484
-3.0103719
-3.0556965
-3.0926647
-3.1224933
-3.1462542
-3.1649441
-3.1794526
-3.1905447
-3.1989258
-3.205133
-3.2096281
-3.2128265
-3.2150322
-3.2165224
-3.2173166
-3.2176761
-3.2182999
-3.2157814
-2.490138
-2.4911195
-2.4881066
-2.4841731
-2.4784927
-2.4708353
-2.4610477
-2.4488209
-2.4337772
-2.4154097
-2.3930471
-2.3658528
-2.3328084
-2.2927164
-2.2441969
-2.185705
-2.1155485