/*--------------------------------*- C++ -*----------------------------------*\
  =========                 |
  \\      /  F ield         | OpenFOAM: The Open Source CFD Toolbox
   \\    /   O peration     | Website:  https://openfoam.org
    \\  /    A nd           | Version:  9
     \\/     M anipulation  |
\*---------------------------------------------------------------------------*/
FoamFile
{
    format      ascii;
    class       surfaceScalarField;
    location    "0.19";
    object      phi;
}
// * * * * * * * * * * * * * * * * * * * * * * * * * * * * * * * * * * * * * //

dimensions      [0 3 -1 0 0 0 0];

internalField   nonuniform List<scalar> 
19800
(
8.4710002e-05
-8.1855733e-05
0.00013958703
-8.2035188e-05
0.00019469987
-8.2255087e-05
0.00025013434
-8.2794969e-05
0.00030593968
-8.3363884e-05
0.00036219694
-8.4102242e-05
0.00041897625
-8.4984878e-05
0.00047634073
-8.6010054e-05
0.00053435961
-8.7173313e-05
0.00059308906
-8.8476993e-05
0.00065260601
-8.9920032e-05
0.00071295614
-9.1497908e-05
0.00077414565
-9.3204635e-05
0.00083617733
-9.5023582e-05
0.00089903441
-9.694856e-05
0.00096260545
-9.8928045e-05
0.0010268151
-0.00010090879
0.0010915982
-0.00010282197
0.0011568439
-0.00010463737
0.0012222874
-0.00010623191
0.0012876737
-0.00010751979
0.001352645
-0.00010838499
0.0014168391
-0.00010872758
0.0014797978
-0.00010830865
0.0015408628
-0.00010700878
0.0015994102
-0.00010468435
0.0016547337
-0.00010124371
0.001706137
-9.6112633e-05
0.0017527364
-8.9482544e-05
0.0017934986
-8.1304683e-05
0.0018271221
-7.1567321e-05
0.0018506218
-6.0262352e-05
0.001862521
-4.6394767e-05
0.0018623609
-2.8050594e-05
0.001852429
-8.0085007e-06
0.0018345473
1.5328871e-05
0.0018028255
4.0904436e-05
0.0017552355
6.6727971e-05
0.001691457
9.3434294e-05
0.0016110492
0.00012059945
0.001513671
0.00014841461
0.0013994972
0.00017635421
0.0012689078
0.00020353074
0.0011226523
0.00022931137
0.00096200155
0.00025303631
0.00078856661
0.00027408596
0.0006043124
0.0002918367
0.0004115294
0.0003057529
0.00021274889
0.00031541282
1.0631579e-05
0.00032058412
-0.00019175298
0.00032105943
-0.00039132471
0.00031682576
-0.00058538691
0.0003080613
-0.00077135546
0.00029498286
-0.00094690286
0.00027799877
-0.0011100193
0.00025759497
-0.0012590579
0.00023438349
-0.0013927327
0.0002090114
-0.0015101634
0.00018223247
-0.0016108839
0.0001547658
-0.001694683
0.00012688609
-0.0017617244
9.923367e-05
-0.0018125237
7.2274715e-05
-0.0018475118
4.6149791e-05
-0.0018672945
2.0700153e-05
-0.00187858
-4.1990164e-06
-0.0018809479
-2.4543431e-05
-0.0018710527
-4.3929365e-05
-0.0018495251
-5.8437478e-05
-0.0018171818
-7.0435326e-05
-0.0017772831
-8.071652e-05
-0.0017312342
-8.9414738e-05
-0.0016800782
-9.6493536e-05
-0.0016246309
-0.00010205203
-0.0015657732
-0.00010594919
-0.0015042376
-0.00010841558
-0.001440658
-0.00011002374
-0.0013756543
-0.00011067427
-0.0013097243
-0.00011054243
-0.0012432937
-0.00010977499
-0.0011767599
-0.00010854222
-0.0011103363
-0.0001069944
-0.001044333
-0.0001052128
-0.00097894209
-0.00010327248
-0.00091420894
-0.0001012746
-0.00085019128
-9.924383e-05
-0.000786974
-9.7251264e-05
-0.00072463102
-9.5330979e-05
-0.00066316717
-9.3526173e-05
-0.00060255196
-9.1855527e-05
-0.00054276056
-9.0332398e-05
-0.00048374309
-8.8954418e-05
-0.00042544037
-8.7723388e-05
-0.00036776497
-8.6635681e-05
-0.00031065199
-8.568666e-05
-0.00025401783
-8.488051e-05
-0.00019778411
-8.4226373e-05
-0.00014186635
-8.3685911e-05
-8.6185414e-05
-8.3321621e-05
-8.3080312e-05
8.4530735e-05
-0.00013647269
0.00013929645
-0.00013681041
0.00019429874
-0.00013726727
0.00024959131
-0.00013808389
0.00030525548
-0.0001390232
0.00036136406
-0.00014020441
0.0004179843
-0.00014160633
0.00047519825
-0.00014322145
0.00053307525
-0.00014504991
0.00059167515
-0.0001470751
0.00065103118
-0.00014926936
0.00071118164
-0.00015163955
0.00077217534
-0.00015418868
0.00083400359
-0.00015684875
0.00089661485
-0.0001595606
0.00096011221
-0.0001624241
0.001024403
-0.00016520325
0.0010892667
-0.00016769316
0.0011545182
-0.00016988961
0.0012202075
-0.00017191914
0.0012858473
-0.00017316179
0.0013513378
-0.00017387556
0.0014160923
-0.00017347699
0.0014797474
-0.0001719629
0.0015418514
-0.00016911906
0.0016016386
-0.00016447736
0.0016582955
-0.00015790264
0.0017113577
-0.00014917561
0.0017594997
-0.00013762363
0.0018016479
-0.00012344804
0.0018365148
-0.00010642874
0.001862515
-8.626101e-05
0.0018785812
-6.2462134e-05
0.0018848581
-3.4326523e-05
0.0018793183
-2.4660607e-06
0.001861414
3.3232204e-05
0.0018299714
7.2344193e-05
0.0017832398
0.00011346175
0.0017201664
0.0001565126
0.001639951
0.00020081652
0.0015423672
0.00024599762
0.0014275358
0.0002911825
0.0012955607
0.00033550052
0.0011472232
0.00037764539
0.00098375554
0.00041650349
0.00080682477
0.00045101944
0.00061850319
0.00048016176
0.00042123229
0.00050302535
0.00021776641
0.00051887905
1.114981e-05
0.00052719894
-0.00019573901
0.00052794956
-0.00040001851
0.00052110658
-0.00059862528
0.00050666483
-0.0007887706
0.00048512475
-0.00096796301
0.00045719116
-0.0011340874
0.00042372391
-0.001285444
0.00038574455
-0.0014207631
0.00034433257
-0.001539169
0.00030063758
-0.0016400398
0.00025563315
-0.0017234906
0.00021033792
-0.0017900306
0.00016577495
-0.0018399158
0.00012216237
-0.001874394
8.0627095e-05
-0.0018944951
4.0799411e-05
-0.0019026068
3.9143739e-06
-0.0018981283
-2.9017677e-05
-0.0018840666
-5.7990175e-05
-0.0018596291
-8.2877372e-05
-0.0018259688
-0.00010409296
-0.0017846386
-0.0001220441
-0.0017370324
-0.00013702096
-0.0016842745
-0.00014924773
-0.0016273798
-0.00015894391
-0.0015672662
-0.00016606054
-0.0015045878
-0.00017109295
-0.0014401895
-0.00017442117
-0.0013744593
-0.00017640262
-0.0013079987
-0.00017700243
-0.0012412945
-0.00017647702
-0.0011744152
-0.0001754204
-0.0011079681
-0.00017344291
-0.001041979
-0.00017120189
-0.00097647454
-0.00016878142
-0.00091170088
-0.00016604582
-0.00084785135
-0.00016309113
-0.00078488475
-0.00016022003
-0.0007227456
-0.00015746724
-0.00066146739
-0.00015480164
-0.00060103949
-0.00015227762
-0.00054143188
-0.00014993427
-0.00048257173
-0.00014780756
-0.00042440764
-0.00014588886
-0.0003668703
-0.00014416853
-0.00030989396
-0.00014266471
-0.00025339527
-0.00014137542
-0.00019728407
-0.00014032786
-0.00014148241
-0.0001394845
-8.5924763e-05
-0.00013887509
-0.00013849398
8.4181241e-05
-0.00019086877
0.00013870559
-0.00019134837
0.00019351115
-0.00019207011
0.00024857249
-0.00019314238
0.00030402011
-0.00019446124
0.00035991954
-0.00019609979
0.00041634479
-0.00019802544
0.0004733606
-0.00020023511
0.00053103404
-0.00020272323
0.00058943336
-0.00020547186
0.0006486311
-0.00020846276
0.00070867349
-0.00021167508
0.00076956506
-0.00021507727
0.00083135633
-0.00021863981
0.00089420924
-0.00022240963
0.00095785387
-0.00022606794
0.0010222112
-0.0002295654
0.0010872542
-0.0002327365
0.0011531149
-0.00023574675
0.0012194525
-0.00023825719
0.0012859868
-0.00023969685
0.0013525563
-0.00024044076
0.001418632
-0.00023954916
0.0014840743
-0.00023740668
0.0015479991
-0.00023304492
0.0016099356
-0.00022641158
0.0016690462
-0.00021701132
0.0017244488
-0.0002045777
0.0017753516
-0.00018852476
0.0018205513
-0.00016864566
0.0018587065
-0.00014458362
0.0018884593
-0.00011601491
0.0019088032
-8.28079e-05
0.0019191566
-4.4682733e-05
0.0019169773
-2.8966075e-07
0.0019019498
4.8256731e-05
0.0018728279
0.00010146341
0.0018279708
0.00015831912
0.0017663082
0.0002181774
0.0016869226
0.00028020139
0.0015891387
0.00034377947
0.0014727804
0.00040753986
0.0013385194
0.00046975956
0.001186956
0.00052920751
0.0010191218
0.0005843373
0.00083674377
0.00063339801
0.00064203652
0.0006748704
0.00043765164
0.00070741225
0.000226558
0.00072997768
1.1932945e-05
0.00074182702
-0.0002029977
0.00074288073
-0.00041499799
0.00073310525
-0.00062088616
0.000712549
-0.00081754302
0.00068177893
-0.0010023264
0.00064197383
-0.0011730279
0.00059442611
-0.0013279057
0.0005406218
-0.0014656947
0.00048212181
-0.0015854574
0.00042040513
-0.0016869407
0.0003571202
-0.0017699826
0.00029338081
-0.0018350305
0.00023082012
-0.0018833881
0.00017051949
-0.0019154429
0.00011268231
-0.0019331977
5.8552318e-05
-0.001937867
8.5826972e-06
-0.0019298897
-3.6993789e-05
-0.0019112119
-7.6666024e-05
-0.001882855
-0.00011123518
-0.0018457768
-0.00014117234
-0.0018013105
-0.00016650919
-0.0017507688
-0.00018756233
-0.0016952517
-0.00020476301
-0.0016361173
-0.00021807805
-0.0015738508
-0.00022832568
-0.0015092674
-0.00023567371
-0.0014429627
-0.00024072583
-0.0013760273
-0.00024333596
-0.001308416
-0.00024461116
-0.0012405836
-0.00024430749
-0.0011732405
-0.00024276086
-0.0011060269
-0.00024066211
-0.0010396255
-0.00023760254
-0.00097411465
-0.00023429082
-0.00090930618
-0.00023085857
-0.00084528482
-0.00022711608
-0.00078216455
-0.00022333929
-0.00072009556
-0.00021953333
-0.0006589583
-0.00021593187
-0.00059869177
-0.00021254061
-0.00053924598
-0.00020938076
-0.00048057861
-0.00020647322
-0.00042263439
-0.00020383517
-0.00036532988
-0.00020147188
-0.00030858057
-0.0001994083
-0.00025232033
-0.00019764363
-0.00019645005
-0.00019618923
-0.00014087146
-0.0001950535
-8.5546804e-05
-0.0001942022
-0.00019368828
8.3751413e-05
-0.00024501333
0.00013800781
-0.00024560869
0.000192541
-0.00024660367
0.00024730921
-0.00024790669
0.00030246231
-0.00024961241
0.00035807444
-0.0002517051
0.00041421839
-0.00025416491
0.00047096146
-0.00025697715
0.00052838249
-0.00026014325
0.00058656044
-0.00026364812
0.00064556067
-0.00026745786
0.00070544237
-0.00027155313
0.00076626009
-0.00027589331
0.00082805168
-0.00028042512
0.00089073936
-0.00028509219
0.00095437436
-0.00028970473
0.0010190005
-0.00029419167
0.0010846442
-0.0002983755
0.0011510619
-0.00030216297
0.0012180335
-0.00030522978
0.0012856634
-0.00030732405
0.0013533971
-0.00030817039
0.0014211693
-0.00030732059
0.0014882722
-0.00030450808
0.0015544369
-0.00029920372
0.0016189618
-0.00029093117
0.0016810818
-0.00027913056
0.0017399642
-0.00026346078
0.0017947513
-0.00024331138
0.0018441632
-0.00021805816
0.0018869519
-0.00018737552
0.0019217992
-0.00015086527
0.001947129
-0.0001081407
0.0019615674
-5.9126398e-05
0.0019652435
-3.9708769e-06
0.0019546588
5.8839598e-05
0.0019292851
0.00012683572
0.0018876437
0.00019995774
0.0018282299
0.00027758977
0.0017499692
0.00035846149
0.0016523048
0.00044144409
0.0015349357
0.00052491023
0.001397815
0.00060687887
0.0012416795
0.00068534016
0.0010679506
0.00075806479
0.00087818234
0.00082316742
0.0006747126
0.00087834411
0.00046047281
0.00092165675
0.00023872252
0.00095173369
1.2978886e-05
0.00096757246
-0.00021308742
0.00096894406
-0.00043579322
0.00095580655
-0.00065157452
0.00092832581
-0.00085721033
0.00088741153
-0.0010497644
0.00083452548
-0.0012267754
0.00077143747
-0.0013863284
0.00070017876
-0.0015270722
0.00062286904
-0.0016483253
0.00054166063
-0.0017498397
0.00045863549
-0.0018320029
0.0003755431
-0.0018953171
0.00029413213
-0.0019405556
0.00021575479
-0.0019693177
0.00014144378
-0.0019827595
7.1993546e-05
-0.0019814099
7.2315183e-06
-0.0019693038
-4.9095819e-05
-0.0019458507
-0.00010011544
-0.00191244
-0.0001446476
-0.001870689
-0.00018292545
-0.0018219166
-0.00021527958
-0.001767447
-0.00024203224
-0.0017085424
-0.00026366656
-0.0016461011
-0.00028051771
-0.0015810278
-0.00029339757
-0.0015139804
-0.00030271679
-0.0014460275
-0.00030868066
-0.0013772108
-0.00031215448
-0.0013083199
-0.00031349911
-0.0012395688
-0.00031305966
-0.0011711468
-0.00031118225
-0.0011035304
-0.00030827912
-0.0010365758
-0.00030455838
-0.00097054427
-0.0003003263
-0.00090561755
-0.00029578807
-0.00084168961
-0.0002910465
-0.0007787652
-0.00028626388
-0.0007167683
-0.00028152093
-0.0006557482
-0.00027694797
-0.0005956627
-0.00027262873
-0.00053645072
-0.00026859261
-0.00047804108
-0.00026487653
-0.00042036142
-0.00026151135
-0.00036334506
-0.00025848951
-0.00030688579
-0.00025585899
-0.00025092051
-0.00025361401
-0.00019535051
-0.0002517551
-0.00014008134
-0.00025031822
-8.5053255e-05
-0.00024922772
-0.00024858966
8.3163002e-05
-0.00029878969
0.00013706186
-0.00029951219
0.0001912106
-0.00030074752
0.00024562302
-0.00030231881
0.00030042747
-0.00030441111
0.00035567755
-0.00030694999
0.00041144695
-0.00030993223
0.00046783649
-0.00031336568
0.00052491937
-0.00031722602
0.00058278898
-0.00032151488
0.0006415079
-0.00032617437
0.00070114869
-0.00033119279
0.0007617776
-0.00033651541
0.00082343801
-0.00034207735
0.00088613903
-0.00034779185
0.00094996027
-0.00035352523
0.0010149088
-0.00035913465
0.001080988
-0.000364451
0.0011480606
-0.00036923619
0.0012160836
-0.00037325175
0.0012849015
-0.00037613912
0.0013543956
-0.00037766404
0.0014241498
-0.00037707407
0.0014938194
-0.00037417209
0.0015629394
-0.00036831683
0.0016309835
-0.00035897312
0.0016971853
-0.00034533392
0.0017606054
-0.00032688199
0.0018202497
-0.0003029558
0.0018751663
-0.0002729766
0.0019238394
-0.00023605307
0.0019648821
-0.00019191198
0.0019969242
-0.00014018486
0.002018342
-8.0546625e-05
0.0020273677
-1.2999969e-05
0.0020228068
6.3398508e-05
0.0020027264
0.00014691369
0.0019653946
0.00023728517
0.0019093412
0.00033364143
0.001833237
0.00043456716
0.0017360706
0.00053861141
0.0016170926
0.00064388838
0.0014765415
0.00074742826
0.0013147744
0.00084710558
0.0011329579
0.00093988268
0.00093322737
0.0010229015
0.000718149
0.001093426
0.00049073559
0.0011490711
0.00025478835
0.0011876809
1.4369339e-05
0.00120799
-0.00022640186
0.0012097124
-0.00046341268
0.0011928146
-0.00069259526
0.0011575054
-0.00091018701
0.0011050011
-0.0011129408
0.0010372791
-0.0012981512
0.00095664883
-0.0014637575
0.00086578676
-0.001608415
0.00076752761
-0.0017315285
0.00066477295
-0.0018332429
0.00056034927
-0.0019136756
0.00045597266
-0.0019738994
0.00035435444
-0.0020151238
0.00025697712
-0.0020387664
0.00016508714
-0.0020464908
7.9723859e-05
-0.0020403848
1.1258601e-06
-0.0020210726
-6.8408275e-05
-0.0019908119
-0.00013037133
-0.0019511067
-0.00018434949
-0.0019033761
-0.00023065693
-0.001849078
-0.00026957538
-0.0017894494
-0.00030166035
-0.0017258789
-0.00032723714
-0.0016592093
-0.00034718432
-0.0015904275
-0.00036217975
-0.001520479
-0.00037266317
-0.0014496961
-0.00037946272
-0.0013787273
-0.00038312467
-0.0013079907
-0.00038423639
-0.0012377958
-0.00038325451
-0.0011683657
-0.00038061111
-0.0010998941
-0.00037675531
-0.0010324404
-0.00037201345
-0.00096610525
-0.0003666619
-0.00090094587
-0.00036094853
-0.00083693451
-0.00035505519
-0.00077405966
-0.00034914253
-0.00071225246
-0.00034332936
-0.00065147137
-0.00033772899
-0.00059166329
-0.00033242821
-0.00053277232
-0.00032748589
-0.00047471131
-0.00032293327
-0.00041740278
-0.00031881447
-0.00036075675
-0.00031514133
-0.00030467977
-0.00031193927
-0.00024909997
-0.00030919014
-0.00019390949
-0.00030694102
-0.00013904547
-0.00030518826
-8.4409797e-05
-0.00030385909
-0.00030307774
8.2470333e-05
-0.00035211625
0.00013591629
-0.00035296032
0.00018958394
-0.00035441533
0.00024354873
-0.00035627861
0.00029788583
-0.00035874367
0.00035268418
-0.00036174605
0.00040803098
-0.00036527754
0.00046400441
-0.00036933859
0.00052070142
-0.00037392017
0.00057816939
-0.00037898052
0.00063653348
-0.00038453803
0.0006958764
-0.0003905299
0.00075627311
-0.00039690323
0.00081778876
-0.00040359016
0.0008804894
-0.0004104917
0.00094445429
-0.00041748446
0.0010097003
-0.00042437534
0.0010763356
-0.0004310857
0.0011442279
-0.00043712797
0.0012133955
-0.00044241745
0.0012837761
-0.0004465203
0.0013551022
-0.00044899177
0.0014272977
-0.00044926696
0.0014999709
-0.00044684016
0.0015726937
-0.00044103745
0.0016448234
-0.00043110367
0.0017159062
-0.00041641679
0.001784823
-0.00039579812
0.001850678
-0.00036881174
0.0019122982
-0.00033459956
0.0019682573
-0.0002920153
0.0020170685
-0.0002407249
0.0020570828
-0.00018019831
0.0020865276
-0.00010999052
0.0021036876
-3.0162436e-05
0.002106765
6.0316868e-05
0.002093548
0.00016012757
0.0020621755
0.00026865531
0.0020106486
0.00038516827
0.0019375104
0.00050770741
0.0018412495
0.00063487263
0.0017211328
0.00076400512
0.0015764767
0.00089208566
0.0014077363
0.0010158473
0.0012162582
0.0011313624
0.0010039513
0.0012352094
0.00077379638
0.0013235802
0.00052954331
0.0013933211
0.0002753693
0.0014418526
1.6036272e-05
0.0014673213
-0.00024369617
0.0014694424
-0.00049903776
0.0014481543
-0.00074522694
0.0014036953
-0.00097801604
0.0013377928
-0.0011935788
0.0012528441
-0.001388894
0.0011519621
-0.0015618195
0.0010387069
-0.0017113691
0.00091707473
-0.0018365
0.0007899017
-0.0019375277
0.00066137686
-0.0020155939
0.00053403733
-0.0020717155
0.00041047684
-0.0021074097
0.00029267158
-0.002124519
0.00018219558
-0.0021249164
8.0126271e-05
-0.0021105971
-1.318654e-05
-0.0020834517
-9.5551099e-05
-0.0020452416
-0.00016857883
-0.0019977141
-0.00023187416
-0.0019425338
-0.00028584047
-0.0018811957
-0.00033091522
-0.0018154166
-0.00036743768
-0.0017461229
-0.00039652984
-0.0016744453
-0.00041886052
-0.0016014161
-0.00043521092
-0.0015276108
-0.0004464705
-0.0014536254
-0.00045345156
-0.0013800701
-0.00045667887
-0.0013072628
-0.00045703785
-0.0012353564
-0.00045516063
-0.0011647
-0.00045126879
-0.0010953
-0.00044615796
-0.0010272056
-0.00044010959
-0.00096049777
-0.000433372
-0.00089513793
-0.00042631203
-0.0008310909
-0.0004191042
-0.00076830612
-0.0004119295
-0.00070670213
-0.00040492716
-0.00064621186
-0.00039821745
-0.00058675698
-0.00039187909
-0.00052826039
-0.0003859838
-0.00047061284
-0.00038058078
-0.000413741
-0.00037568658
-0.00035754892
-0.00037133241
-0.00030195145
-0.00036753553
-0.00024684402
-0.00036429116
-0.0001921514
-0.00036163079
-0.00013777111
-0.00035955957
-8.3624203e-05
-0.00035800514
-0.00035708265
8.1638636e-05
-0.00040490863
0.0001345586
-0.00040588749
0.00018768001
-0.00040753355
0.00024111082
-0.0004097067
0.00029491483
-0.00041254676
0.00034918145
-0.00041601175
0.00040400047
-0.00042009621
0.00045945079
-0.00042478571
0.00051563651
-0.0004301027
0.00057265865
-0.00043600194
0.00063060051
-0.00044247483
0.00068956082
-0.00044948166
0.00074965238
-0.00045699183
0.00081096718
-0.00046490507
0.0008736066
-0.0004731264
0.00093765935
-0.00048153116
0.001003243
-0.00048995719
0.0010703329
-0.00049817459
0.0011391067
-0.00050589906
0.0012095242
-0.00051283446
0.0012815742
-0.00051857282
0.0013551278
-0.0005225458
0.0014300569
-0.00052419347
0.0015060876
-0.00052286955
0.0015829765
-0.00051792698
0.0016600346
-0.00050816042
0.0017365881
-0.00049296655
0.001812196
-0.00047140481
0.0018854262
-0.00044204509
0.0019550493
-0.00040422578
0.0020198466
-0.00035681251
0.002078048
-0.00029892465
0.0021278235
-0.00022997275
0.002167187
-0.00014935419
0.0021942723
-5.7250577e-05
0.0022069071
4.7678069e-05
0.002202493
0.00016454022
0.0021788096
0.00029233862
0.0021337928
0.00043018523
0.002064924
0.00057657858
0.0019703896
0.00072940985
0.0018491527
0.0008852449
0.0017001381
0.0010411039
0.0015235314
0.0011924549
0.0013202501
0.0013346413
0.0010925776
0.0014628788
0.00084387254
0.001572283
0.00057845594
0.0016587359
0.00030135411
0.0017189541
1.8160411e-05
0.0017505156
-0.00026546799
0.0017530706
-0.00054388611
0.0017265721
-0.00081148443
0.0016712943
-0.0010631032
0.0015894109
-0.001294438
0.0014841763
-0.0015021954
0.0013597183
-0.0016838863
0.0012203953
-0.001838126
0.0010713122
-0.0019650896
0.00091686309
-0.0020651094
0.00076139701
-0.0021393978
0.00060832804
-0.0021898963
0.00046097723
-0.0022182811
0.00032105633
-0.0022269205
0.00019083301
-0.0022180045
7.1210552e-05
-0.0021941833
-3.7003825e-05
-0.0021570426
-0.00013268896
-0.0021090076
-0.00021661263
-0.0020520012
-0.00028887976
-0.0019878969
-0.00034994795
-0.0019183898
-0.00040042746
-0.0018449455
-0.00044088486
-0.0017688576
-0.00047261754
-0.0016912552
-0.00049646193
-0.0016130477
-0.0005134222
-0.0015347846
-0.00052473554
-0.0014573068
-0.00053092488
-0.0013806946
-0.0005332884
-0.0013055119
-0.00053221889
-0.0012318814
-0.00052879356
-0.0011597706
-0.00052338217
-0.0010893652
-0.00051656497
-0.0010206547
-0.00050882165
-0.00095354731
-0.00050048346
-0.0008880255
-0.00049183917
-0.00082399829
-0.00048313301
-0.00076136974
-0.00047455545
-0.00070004624
-0.00046625694
-0.00063992736
-0.00045834011
-0.00058089658
-0.00045090861
-0.00052286934
-0.00044401994
-0.00046574365
-0.00043771499
-0.0004094106
-0.00043202113
-0.00035377669
-0.00042697821
-0.00029873682
-0.00042257627
-0.00024419729
-0.00041882945
-0.00019008111
-0.00041576337
-0.00013628668
-0.00041335972
-8.2695084e-05
-0.00041159022
-0.00041052162
8.0677236e-05
-0.00045709314
0.00013299524
-0.00045820683
0.00018548791
-0.00046002667
0.00023830361
-0.00046252375
0.00029148425
-0.00046572831
0.00034512865
-0.00046965665
0.00039932928
-0.00047429381
0.00045418481
-0.00047963753
0.00050977734
-0.00048569383
0.00056622519
-0.00049244486
0.00062363917
-0.00049988075
0.00068213951
-0.00050797961
0.00074181484
-0.00051666867
0.00080282313
-0.00052591023
0.00086529874
-0.00053559618
0.00092936834
-0.00054559821
0.00099514507
-0.00055573208
0.0010627738
-0.00056579886
0.0011323809
-0.00057550269
0.0012040459
-0.00058449988
0.0012779093
-0.00059243681
0.0013537743
-0.0005984095
0.0014317285
-0.00060214687
0.0015115882
-0.0006027292
0.0015930186
-0.0005993549
0.0016757059
-0.00059084235
0.0017589951
-0.00057625224
0.0018419748
-0.00055438618
0.0019237413
-0.00052381598
0.002002929
-0.00048341553
0.0020781777
-0.00043205959
0.0021475177
-0.00036826365
0.0022089839
-0.00029144086
0.0022603443
-0.00020071709
0.0022994132
-9.6320869e-05
0.002324051
2.3038605e-05
0.0023307417
0.0001578491
0.0023171656
0.00030591588
0.0022803747
0.00046697813
0.0022176887
0.0006392688
0.0021267442
0.0008203588
0.0020050696
0.0010069214
0.0018515028
0.0011946725
0.0016656328
0.0013783265
0.001448289
0.0015519842
0.0012020894
0.0017090764
0.0009306504
0.0018437209
0.00063907996
0.0019503056
0.00033354746
0.0020244862
2.0730229e-05
0.0020633332
-0.00029256528
0.0020663676
-0.00059957558
0.0020335836
-0.00089357533
0.0019652934
-0.0011684314
0.001864265
-0.0014189435
0.0017346853
-0.0016412449
0.0015820178
-0.0018329138
0.0014120643
-0.0019926477
0.0012310483
-0.0021207771
0.0010449959
-0.0022183299
0.00085894734
-0.0022873371
0.00067733161
-0.0023299366
0.00050357565
-0.0023489561
0.00034007572
-0.0023469949
0.0001888686
-0.002326455
5.0669917e-05
-0.002290677
-7.2779407e-05
-0.0022415972
-0.00018177127
-0.002181802
-0.00027641188
-0.002113493
-0.00035718909
-0.0020387838
-0.0004246571
-0.0019594491
-0.00047976264
-0.0018771241
-0.00052321029
-0.0017931416
-0.00055660369
-0.0017087101
-0.00058089768
-0.0016245975
-0.00059753372
-0.0015414769
-0.00060785338
-0.001459872
-0.00061252632
-0.0013801509
-0.00061301009
-0.0013023602
-0.00061000834
-0.0012267377
-0.00060441777
-0.001153158
-0.0005969664
-0.0010817916
-0.00058793909
-0.0010124497
-0.00057816783
-0.00094503348
-0.00056789584
-0.00087941801
-0.00055744419
-0.0008155007
-0.00054705455
-0.00075313418
-0.00053692278
-0.00069219279
-0.00052719831
-0.00063253031
-0.00051800245
-0.00057403816
-0.00050939647
-0.00051659083
-0.00050146217
-0.0004600792
-0.00049423481
-0.00040438484
-0.00048772581
-0.00034940299
-0.00048196567
-0.00029502181
-0.00047695424
-0.00024114898
-0.00047270305
-0.0001876869
-0.00046922322
-0.00013456671
-0.00046648248
-8.1637286e-05
-0.00046451784
-0.00046329826
7.9602176e-05
-0.00050859639
0.00013122861
-0.00050983675
0.00018301239
-0.00051181406
0.00023513198
-0.00051464601
0.00028759721
-0.00051819612
0.00034053955
-0.00052259729
0.00039402681
-0.00052777789
0.00044816601
-0.0005337751
0.0005030639
-0.00054058651
0.0005588341
-0.00054820711
0.00061558894
-0.00055663372
0.00067348175
-0.00056587532
0.00073264506
-0.00057583063
0.00079322107
-0.00058648127
0.00085541572
-0.00059778827
0.0009193378
-0.00060951826
0.0009852277
-0.00062161624
0.0010532595
-0.00063382421
0.0011236218
-0.00064586199
0.0011965808
-0.00065745724
0.0012720494
-0.00066790306
0.0013503846
-0.00067674309
0.0014315361
-0.00068329787
0.001515475
-0.00068666526
0.0016020218
-0.00068589559
0.001690859
-0.00067967538
0.0017814504
-0.00066684496
0.0018730826
-0.00064602273
0.0019647219
-0.00061545824
0.0020551019
-0.00057379671
0.002142394
-0.00051935283
0.0022248978
-0.00045076929
0.0023003599
-0.00036690544
0.0023661813
-0.00026654021
0.0024195471
-0.00014968759
0.0024589513
-1.6367382e-05
0.0024794571
0.00013734288
0.0024786535
0.00030672344
0.0024529619
0.00049267498
0.0023989746
0.00069325931
0.0023131281
0.00090620662
0.0021926167
0.0011274327
0.0020349291
0.0013523623
0.0018388634
0.001574397
0.001605327
0.0017855233
0.0013366413
0.0019777634
0.0010373769
0.0021429872
0.000713741
0.0022739426
0.00037314043
0.0023650856
2.3801975e-05
0.0024126679
-0.00032608538
0.0024162505
-0.00066831326
0.002375811
-0.00099470653
0.0022916898
-0.0012978383
0.0021674
-0.0015713916
0.00200824
-0.0018109973
0.001821623
-0.002013666
0.0016147356
-0.0021786292
0.0013960113
-0.0023068953
0.0011732618
-0.0024002052
0.00095225701
-0.0024614293
0.00073855237
-0.0024939619
0.00053610127
-0.0025007516
0.00034686495
-0.0024854223
0.00017353973
-0.0024504089
1.5653423e-05
-0.0024000929
-0.00012309709
-0.0023368963
-0.0002449676
-0.0022631001
-0.00035021092
-0.002181399
-0.00043889328
-0.0020940863
-0.00051197122
-0.0020034967
-0.00057035282
-0.001911025
-0.00061568411
-0.001818144
-0.00064948578
-0.0017259077
-0.00067313306
-0.0016351858
-0.00068825566
-0.0015467594
-0.00069628326
-0.0014607567
-0.00069853142
-0.0013774991
-0.00069626454
-0.0012970493
-0.00069045686
-0.0012194053
-0.00068206878
-0.0011445504
-0.00067182351
-0.0010722154
-0.0006602756
-0.0010023262
-0.00064805423
-0.00093469448
-0.00063552813
-0.00086913653
-0.00062300614
-0.00080545017
-0.00061074276
-0.00074347353
-0.00059889951
-0.00068303167
-0.00058764543
-0.0006239626
-0.00057707352
-0.00056613333
-0.00056723662
-0.00050938829
-0.0005582055
-0.00045359763
-0.00055001865
-0.00039865592
-0.00054268177
-0.00034442998
-0.00053619954
-0.00029080258
-0.00053057534
-0.00023769138
-0.00052580891
-0.00018497519
-0.00052193811
-0.00013261995
-0.00051884145
-8.0450613e-05
-0.00051669358
-0.00051533462
7.8419921e-05
-0.00055935283
0.00012923827
-0.00056065904
0.00018024974
-0.00056282852
0.00023157645
-0.0005659759
0.0002832633
-0.00056988326
0.00033538159
-0.00057471447
0.00038805667
-0.00058045234
0.00044138673
-0.00058710013
0.00049547942
-0.00059467131
0.00055045759
-0.00060318364
0.00060645972
-0.00061263954
0.00066358244
-0.00062299799
0.00072206039
-0.00063430464
0.00078205792
-0.00064647692
0.00084373067
-0.00065945978
0.0009073642
-0.00067314636
0.00097317269
-0.00068741712
0.0010414145
-0.00070206081
0.0011123658
-0.00071680987
0.0011863362
-0.00073142378
0.0012635167
-0.0007450805
0.0013442255
-0.00075745048
0.0014286238
-0.00076769413
0.0015168225
-0.0007748597
0.0016088065
-0.00077787621
0.0017043838
-0.00077525387
0.0018031552
-0.00076562056
0.0019043823
-0.00074725292
0.002007226
-0.00071830326
0.0021101524
-0.00067672549
0.0022116363
-0.00062084036
0.0023094812
-0.00054861593
0.0024012762
-0.00045870038
0.0024842535
-0.00034951896
0.0025555703
-0.00022100749
0.0026111869
-7.1985778e-05
0.0026493179
9.9213768e-05
0.002664541
0.00029150498
0.0026534311
0.00050378715
0.0026117576
0.00073493162
0.0025343504
0.00098361549
0.0024171112
0.0012446773
0.0022563368
0.001513142
0.0020496137
0.001781124
0.0017970854
0.0020380524
0.0015014814
0.002273369
0.0011682996
0.0024761731
0.00080531864
0.0026369252
0.00042163358
0.002748768
2.7413382e-05
0.0028068847
-0.00036741984
0.0028110814
-0.00075292624
0.0027613182
-0.0011189999
0.0026577662
-0.0014566683
0.0025050697
-0.0017578338
0.0023094107
-0.0020171812
0.002080972
-0.0022317567
0.0018293096
-0.0024012932
0.001565547
-0.0025275713
0.0012995378
-0.0026137671
0.0010384513
-0.0026643362
0.00078912258
-0.0026832192
0.00055498125
-0.002674671
0.00033831372
-0.0026424977
0.00014136507
-0.0025910624
-3.5783836e-05
-0.002523353
-0.00019081016
-0.0024428275
-0.00032549384
-0.002352468
-0.00044057022
-0.0022551629
-0.00053619927
-0.0021535446
-0.00061359389
-0.0020497047
-0.00067419628
-0.0019455269
-0.00071986314
-0.0018425563
-0.00075245769
-0.0017417714
-0.00077391914
-0.0016439824
-0.0007860468
-0.0015495987
-0.00079066506
-0.0014589531
-0.00078918146
-0.0013721042
-0.00078312177
-0.0012889781
-0.0007735876
-0.0012094328
-0.00076161248
-0.0011332611
-0.00074798803
-0.0010601824
-0.0007333465
-0.00098995097
-0.00071828573
-0.00092229426
-0.00070318232
-0.00085695726
-0.00068834149
-0.00079369949
-0.00067399785
-0.00073227619
-0.00066031903
-0.00067250322
-0.00064741959
-0.0006141666
-0.00063540088
-0.00055714297
-0.00062426392
-0.00050122046
-0.00061413445
-0.00044628102
-0.0006049632
-0.00039218733
-0.00059677687
-0.00033881828
-0.00058957047
-0.00028607355
-0.00058333674
-0.00023381341
-0.0005780738
-0.00018194775
-0.00057380447
-0.00013043104
-0.00057036472
-7.9138944e-05
-0.00056798489
-0.00056654702
7.7147088e-05
-0.00060927559
0.00012707205
-0.0006105849
0.00017722709
-0.00061298576
0.00022769021
-0.00061643905
0.00027847301
-0.00062066697
0.00032968668
-0.00062592955
0.00038144513
-0.00063220679
0.00043384474
-0.00063949252
0.00048700079
-0.00064782609
0.00054103916
-0.00065722594
0.00059609094
-0.00066769177
0.00065233342
-0.00067923719
0.00070995927
-0.00069192944
0.00076914966
-0.00070566748
0.00083014718
-0.00072045354
0.00089322647
-0.00073621906
0.00095868859
-0.00075287445
0.0010268733
-0.00077024264
0.0010981408
-0.00078807396
0.0011728932
-0.00080617289
0.0012515105
-0.00082369621
0.0013344167
-0.00084035551
0.001421972
-0.00085524769
0.0015144619
-0.00086734914
0.0016120721
-0.00087548907
0.0017147907
-0.00087797596
0.0018223655
-0.0008731969
0.0019342387
-0.00085912674
0.0020494335
-0.00083349995
0.0021669992
-0.00079429393
0.0022846029
-0.00073844516
0.0024000278
-0.00066404023
0.0025106155
-0.0005692889
0.0026138174
-0.00045272483
0.002705665
-0.00031285863
0.0027825778
-0.00014889693
0.0028415115
4.0283901e-05
0.0028775954
0.00025542128
0.0028862737
0.00049510616
0.0028612211
0.00075998328
0.002796547
0.0010482954
0.0026860727
0.0013551597
0.0025235921