/*--------------------------------*- C++ -*----------------------------------*\
  =========                 |
  \\      /  F ield         | OpenFOAM: The Open Source CFD Toolbox
   \\    /   O peration     | Website:  https://openfoam.org
    \\  /    A nd           | Version:  9
     \\/     M anipulation  |
\*---------------------------------------------------------------------------*/
FoamFile
{
    format      ascii;
    class       volScalarField;
    location    "0.77";
    object      alpha.phase1;
}
// * * * * * * * * * * * * * * * * * * * * * * * * * * * * * * * * * * * * * //

dimensions      [0 0 0 0 0 0 0];

internalField   nonuniform List<scalar> 
10000
(
5.1967209e-84
1.7751916e-83
8.9618057e-82
4.2673776e-81
4.8474781e-81
1.7488536e-81
5.7399766e-82
5.7404202e-82
1.5925313e-81
2.0199403e-79
2.362346e-77
2.4625828e-75
2.3273379e-73
2.0136836e-71
1.5994873e-69
1.1710614e-67
7.9390968e-66
5.0043939e-64
2.9437566e-62
1.6211723e-60
8.3833354e-59
4.0807709e-57
1.8716846e-55
8.0898046e-54
3.3230831e-52
1.3303287e-50
5.1923211e-49
1.7987436e-47
5.0500877e-46
1.2686767e-44
3.6135568e-43
1.2369984e-41
4.5040997e-40
1.6427507e-38
5.9610892e-37
2.1591089e-35
7.8467445e-34
2.8836188e-32
1.080063e-30
4.1395251e-29
1.6259682e-27
6.5751253e-26
2.7317052e-24
1.1441736e-22
4.7081647e-21
1.8619996e-19
6.9620367e-18
2.1786839e-16
3.5109713e-15
4.1142411e-14
7.5673608e-13
6.0117549e-12
2.0787635e-11
5.674611e-11
1.882779e-10
8.5271912e-11
3.3180263e-11
1.5140274e-11
8.6023199e-12
5.1144569e-12
2.0495346e-12
4.4004639e-13
5.7638204e-14
5.3347968e-15
4.138265e-16
2.8823227e-17
1.798078e-18
9.9468323e-20
4.8647308e-21
2.1090172e-22
8.1391991e-24
2.8051987e-25
8.6500596e-27
2.3879398e-28
5.8992422e-30
1.3024845e-31
2.5650206e-33
4.4944014e-35
6.986672e-37
9.605022e-39
1.1637022e-40
1.2378778e-42
1.1515498e-44
9.3286139e-47
6.5509659e-49
3.9684203e-51
2.0627593e-53
9.1468919e-56
3.4378392e-58
1.0871344e-60
2.8682053e-63
6.2564359e-66
1.1188094e-68
1.6314583e-71
1.9416743e-74
1.9058798e-77
2.2152449e-80
6.674727e-81
6.6746499e-81
6.7139162e-81
5.3044402e-84
1.9310267e-82
7.5084278e-81
3.5551517e-80
4.6414238e-80
3.5275905e-80
1.9380571e-80
9.4534512e-81
4.5166862e-80
6.5389674e-78
8.1938091e-76
9.1503548e-74
9.201539e-72
8.4037327e-70
7.0195804e-68
5.3949091e-66
3.8347688e-64
2.5324866e-62
1.5600648e-60
8.9970784e-59
4.8733187e-57
2.4853931e-55
1.1952377e-53
5.4363e-52
2.3623309e-50
9.9058262e-49
3.92605e-47
1.4054406e-45
4.5977746e-44
1.5101995e-42
5.2851892e-41
1.9039139e-39
6.8076601e-38
2.4018953e-36
8.3958717e-35
2.917726e-33
1.0126338e-31
3.5555967e-30
1.2887342e-28
4.8753017e-27
1.9147196e-25
7.7568635e-24
3.2383418e-22
1.371413e-20
5.7516775e-19
2.4672046e-17
1.1141296e-15
2.6777339e-14
2.7106438e-13
8.0454686e-13
6.0766917e-12
2.0941728e-11
5.7667608e-11
1.9031637e-10
3.1372191e-10
5.8754503e-10
5.576913e-10
1.6123987e-10
1.5257077e-10
2.6420134e-10
1.1877922e-10
2.9573084e-11
4.5407937e-12
4.5338665e-13
3.2189474e-14
1.894509e-15
9.8501214e-17
4.5896119e-18
1.9019641e-19
7.0025225e-21
2.3061127e-22
6.8387425e-24
1.8334463e-25
4.4503031e-27
9.7719808e-29
1.9360513e-30
3.4484513e-32
5.5002224e-34
7.8245164e-36
9.8866374e-38
1.1049624e-39
1.0876462e-41
9.3851509e-44
7.0637546e-46
4.612229e-48
2.5963234e-50
1.2516066e-52
5.1289942e-55
1.7723493e-57
5.1196633e-60
1.225442e-62
2.418584e-65
3.9489451e-68
5.4398245e-71
6.5365771e-74
6.9040665e-77
1.253508e-79
3.8866982e-80
7.3356145e-81
7.1446145e-81
3.8462196e-81
2.6561726e-79
7.1055672e-78
2.5423369e-77
2.9860909e-77
2.1568235e-77
1.1349096e-77
5.3886804e-78
1.9311549e-77
2.9174923e-75
3.7669778e-73
4.3121567e-71
4.4273419e-69
4.1148801e-67
3.4879861e-65
2.7133429e-63
1.9474154e-61
1.2953088e-59
8.0157938e-58
4.6310288e-56
2.5053713e-54
1.2712425e-52
6.0432464e-51
2.7004728e-49
1.1671277e-47
5.0700612e-46
2.0536813e-44
6.34865e-43
1.4387029e-41
3.0569957e-40
8.2199014e-39
2.6903558e-37
9.1045803e-36
3.0364843e-34
9.9620751e-33
3.2067531e-31
1.006435e-29
3.1308079e-28
1.0197564e-26
3.635784e-25
1.3999546e-23
5.6304708e-22
2.3289203e-20
9.9030318e-19
4.3926397e-17
1.9500793e-15
4.9189609e-14
6.2929521e-13
2.376765e-11
1.2716617e-10
3.559159e-10
9.7006092e-10
2.3324993e-09
8.2712871e-09
1.4064562e-08
2.5716813e-08
5.9140796e-08
5.9522868e-08
9.8057943e-09
1.2393446e-08
8.7839093e-09
7.8523037e-10
2.8559525e-12
4.5191839e-13
2.3207626e-13
5.603072e-14
4.4439203e-15
1.5924906e-16
5.1015687e-18
1.7716459e-19
5.7788011e-21
1.6712094e-22
4.3163625e-24
1.0041451e-25
2.1061757e-27
3.9765224e-29
6.7404118e-31
1.0224057e-32
1.3826323e-34
1.6601404e-36
1.7620428e-38
1.645491e-40
1.344835e-42
9.5635571e-45
5.8801867e-47
3.1038069e-49
1.3957424e-51
5.306685e-54
1.693692e-56
4.5122454e-59
1.0032601e-61
1.8839665e-64
3.0830934e-67
4.5680151e-70
6.1187545e-73
7.5025473e-76
8.7917027e-77
4.8847494e-77
1.2975887e-77
9.4600713e-78
2.0286093e-78
2.0791638e-76
4.1481654e-75
1.1962372e-74
1.3204414e-74
9.350901e-75
4.8075441e-75
2.247719e-75
6.791865e-75
1.0791011e-72
1.4473884e-70
1.709931e-68
1.8035571e-66
1.7162153e-64
1.4854762e-62
1.1774616e-60
8.5955856e-59
5.8063318e-57
3.6443516e-55
2.1331442e-53
1.1682515e-51
5.9962937e-50
2.8773786e-48
1.2937743e-46
5.6947059e-45
2.6794208e-43
1.2341883e-41
3.8028264e-40
6.6490931e-39
8.6135659e-38
1.3951929e-36
3.6744179e-35
1.1643714e-33
3.7271023e-32
1.1757295e-30
3.5938122e-29
1.016521e-27
2.6185099e-26
6.7909114e-25
2.0712038e-23
7.532347e-22
2.9733124e-20
1.2165701e-18
5.5548396e-17
2.9344404e-15
5.9889154e-14
2.6645523e-13
2.7849893e-11
1.9602035e-09
6.8077395e-09
1.4794774e-08
2.1028624e-07
1.3531919e-06
8.4112514e-06
1.1769967e-05
8.2023183e-06
1.8312823e-06
8.6983741e-07
2.8311872e-06
2.1276994e-06
5.1890666e-09
5.4413687e-10
3.4125053e-11
1.9943821e-12
1.3603839e-13
2.2852537e-14
1.191228e-14
3.5986069e-15
2.6818193e-16
5.3314917e-18
9.9536741e-20
2.6187172e-21
6.6150363e-23
1.4693025e-24
2.9218885e-26
5.2347192e-28
8.4252993e-30
1.2138551e-31
1.5590553e-33
1.776764e-35
1.7877091e-37
1.5794675e-39
1.2181722e-41
8.1509442e-44
4.6999393e-46
2.3208202e-48
9.7563618e-51
3.4790142e-53
1.0532393e-55
2.729663e-58
6.1821964e-61
1.2618739e-63
2.4121108e-66
4.3906321e-69
7.330478e-72
7.5447536e-74
6.9326538e-74
3.9298851e-74
1.1630344e-74
6.7418971e-75
7.8475913e-76
9.4847003e-74
1.6503495e-72
4.2341599e-72
4.4936819e-72
3.1514642e-72
1.5969244e-72
7.3781552e-73
1.8910933e-72
3.2198776e-70
4.5378181e-68
5.5738591e-66
6.0712668e-64
5.9375689e-62
5.263169e-60
4.2607421e-58
3.1696425e-56
2.1779815e-54
1.3883911e-52
8.2425152e-51
4.5738791e-49
2.3772774e-47
1.1544567e-45
5.242234e-44
2.3273969e-42
1.1319465e-40
5.7587719e-39
1.9409418e-37
3.2398704e-36
3.2332713e-35
3.1489661e-34
5.193929e-33
1.3801373e-31
4.1854989e-30
1.3079133e-28
4.0670159e-27
1.1194011e-25
2.4132341e-24
4.4326444e-23
9.5526323e-22
2.9566577e-20
1.1213443e-18
4.9034743e-17
2.4340221e-15
5.2440745e-14
2.984129e-13
9.9287215e-12
3.6038487e-10
8.4684081e-08
3.4805522e-06
1.0405554e-05
1.5335229e-05
2.0333038e-05
2.2961056e-05
2.2792983e-05
2.2720863e-05
4.7722898e-06
3.5788972e-07
2.2822196e-05
3.5389343e-05
3.4754971e-05
6.3871094e-06
5.2816019e-10
3.3757686e-11
1.9949674e-12
1.1923708e-13
2.1951921e-14
1.1215384e-14
1.6931792e-15
5.8136306e-17
1.1070184e-18
2.3768752e-20
5.3415928e-22
1.1018642e-23
2.0424872e-25
3.4264779e-27
5.1970502e-29
7.0894707e-31
8.64924e-33
9.3843135e-35
9.0042812e-37
7.595543e-39
5.5946664e-41
3.5701179e-43
1.9599322e-45
9.2465154e-48
3.7699845e-50
1.3433974e-52
4.274778e-55
1.2446653e-57
3.3606621e-60
8.4083594e-63
1.9382545e-65
4.0780987e-68
9.3458377e-71
4.1809195e-71
4.1226947e-71
2.9874977e-71
9.3657375e-69
7.3849582e-69
2.3609065e-73
3.0794297e-71
4.9988989e-70
1.2000834e-69
1.2418748e-69
8.668749e-70
4.3549883e-70
1.9815759e-70
4.0738353e-70
7.705896e-68
1.1625839e-65
1.501002e-63
1.6999593e-61
1.7162611e-59
1.5624977e-57
1.2940909e-55
9.8181314e-54
6.8626716e-52
4.4401773e-50
2.6702027e-48
1.4982108e-46
7.8604186e-45
3.848243e-43
1.759795e-41
7.8223233e-40
3.7455956e-38
1.9009159e-36
6.9015861e-35
1.2865805e-33
1.3284826e-32
1.0652729e-31
1.0308829e-30
1.6880991e-29
4.2818869e-28
1.3101713e-26
4.3516117e-25
1.292075e-23
2.5543768e-22
3.3405273e-21
4.1714753e-20
8.6655594e-19
3.1499692e-17
1.5269971e-15
3.3495222e-14
1.9137542e-13
6.7133322e-12
2.5208928e-10
7.8883696e-09
6.5604928e-06
2.4440011e-05
2.4779711e-05
2.4779711e-05
2.4356391e-05
2.3432091e-05
2.0873777e-05
1.1012372e-05
2.6250162e-07
2.622401e-07
1.6524335e-05
3.654076e-05
3.654076e-05
3.654076e-05
2.2608821e-05
2.1166741e-07
1.5677854e-09
8.5174694e-11
4.3193633e-12
2.0353555e-13
9.0427515e-15
9.2578673e-16
2.8262309e-17
3.5719668e-19
5.1729017e-21
8.076846e-23
1.1594741e-24
1.5164226e-26
1.8213155e-28
1.997225e-30
1.9799002e-32
1.7612477e-34
1.4015907e-36
1.0006546e-38
6.5182561e-41
3.979911e-43
2.3378214e-45
1.307854e-47
6.7871442e-50
3.2251092e-52
1.3369215e-54
4.6459515e-57
1.4125267e-59
3.9395492e-62
9.9421734e-65
1.936486e-67
1.7342203e-68
1.9768723e-68
1.9644537e-68
1.2131784e-67
9.9750978e-65
9.7145125e-65
5.82101e-71
7.8505817e-69
1.22917e-67
2.8367363e-67
2.8879442e-67
2.0127394e-67
1.0075419e-67
4.4444958e-68
6.3508548e-68
1.452526e-65
2.4357363e-63
3.3691578e-61
4.0115475e-59
4.210244e-57
3.9550709e-55
3.3618431e-53
2.6067862e-51
1.8559867e-49
1.2196357e-47
7.4305758e-46
4.2136967e-44
2.2288892e-42
1.0979083e-40
5.0503185e-39
2.2515662e-37
1.0507067e-35
4.9818894e-34
1.8133507e-32
3.9713739e-31
5.2014938e-30
4.5723155e-29
3.2645881e-28
2.6958373e-27
4.1861381e-26
1.163319e-24
4.1231915e-23
1.3849557e-21
2.7421114e-20
2.8307525e-19
2.1148273e-18
2.2972155e-17
7.4086195e-16
1.7011538e-14
7.4911544e-14
2.3727517e-12
9.7050495e-11
3.4009153e-09
2.8898656e-06
2.5745939e-05
2.5768088e-05
2.3133915e-05
1.3381674e-05
9.1233643e-06
2.7382955e-06
2.8708893e-07
2.6419599e-07
2.6197337e-07
2.6268381e-07
2.6279366e-07
3.5683474e-07
1.7910992e-05
3.6249107e-05
3.5206119e-05
1.3273619e-05
3.4680037e-08
2.4414868e-09
9.3500819e-11
3.0752061e-12
9.5615493e-14
6.1151484e-15
2.4353309e-16
4.8043369e-18
7.7804971e-20
1.2437736e-21
1.8527757e-23
2.498815e-25
3.0364219e-27
3.3052668e-29
3.2043008e-31
2.7568616e-33
2.0975709e-35
1.4056202e-37
8.31044e-40
4.5185328e-42
2.2785012e-44
1.1285048e-46
5.0188102e-49
1.7469663e-51
5.5381701e-54
1.7326612e-56
4.9521492e-59
1.2871863e-61
2.7820693e-64
4.8140377e-66
4.9804908e-66
7.7884535e-66
8.2147208e-66
1.0746928e-63
3.9584785e-61
5.1003068e-61
1.2219425e-68
1.6521179e-66
2.5472539e-65
5.7509003e-65
5.7939285e-65
4.0445717e-65
2.0350128e-65
8.1377156e-66
5.0846181e-66
1.9530958e-63
4.0061287e-61
6.1654207e-59
7.867324e-57
8.6807738e-55
8.4753948e-53
7.4296901e-51
5.9081656e-49
4.2951444e-47
2.8717166e-45
1.7747378e-43
1.0181056e-41
5.4332027e-40
2.6939413e-38
1.2472838e-36
5.5891687e-35
2.5539958e-33
1.1265725e-31
3.9835805e-30
1.0248016e-28
1.8360727e-27
1.9564128e-26
1.2109753e-25
5.9531189e-25
4.480463e-24
9.6784235e-23
3.663003e-21
1.4177244e-19
2.8680809e-18
2.4543065e-17
1.2075808e-16
6.6888882e-16
1.0006154e-14
9.4002378e-14
2.8095632e-13
9.1700722e-12
3.7726277e-10
1.4619278e-07
1.552522e-05
2.5768088e-05
1.7057501e-05
2.4961441e-07
6.4057388e-07
6.0764938e-07
3.9058719e-07
3.0485739e-07
2.6690146e-07
2.6381876e-07
2.6279366e-07
2.6268274e-07
2.6278227e-07
2.6553932e-07
2.8201647e-05
3.5657482e-05
3.4701632e-05
3.6630738e-06
9.6459187e-09
3.3618367e-10
9.8086545e-12
2.7383205e-13
3.1435452e-14
1.697325e-15
3.2437167e-17
5.0145985e-19
8.079733e-21
1.2062758e-22
1.6091755e-24
1.9374383e-26
2.1135429e-28
2.0833385e-30
1.8506368e-32
1.4810453e-34
1.0759195e-36
7.0186327e-39
3.6098173e-41
1.5484111e-43
5.5422541e-46
1.7236971e-48
5.1910619e-51
1.4441729e-53
3.8807103e-56
1.0234186e-58
2.4127954e-61
1.0891333e-63
7.7140722e-64
1.8100355e-63
2.6516675e-63
2.0428033e-62
6.7025323e-60
8.8950351e-58
1.3363623e-57
2.2550696e-66
2.9671096e-64
4.5694503e-63
1.0209765e-62
1.0219798e-62
7.1587935e-63
3.6156509e-63
1.3554754e-63
1.2000966e-64
1.4227868e-61
4.6890471e-59
8.7424267e-57
1.2348854e-54
1.455267e-52
1.4897876e-50
1.3541435e-48
1.108138e-46
8.2439561e-45
5.6159043e-43
3.5234896e-41
2.0457041e-39
1.1018092e-37
5.5023222e-36
2.5644359e-34
1.1521657e-32
5.1541906e-31
2.1584081e-29
7.6200514e-28
2.3280346e-26
5.5359626e-25
6.7538367e-24
3.7926246e-23
1.3540612e-22
5.7166764e-22
8.8546851e-21
4.0703174e-19
1.8010014e-17
3.0308223e-16
1.764358e-15
5.2449474e-15
1.4547073e-14
7.2590446e-14
2.8782303e-13
9.6831733e-13
3.4530383e-11
1.4337362e-09
2.4931682e-06
2.4144132e-05
2.3002648e-05
2.1208953e-07
2.3085199e-07
1.5916352e-06
3.5473596e-06
1.8715877e-06
3.8196233e-07
2.9462085e-07
2.6468254e-07
2.6356882e-07
2.6279366e-07
2.6356265e-07
2.6434129e-07
4.5077772e-06
3.5847622e-05
3.8030794e-05
1.0851757e-05
1.7940626e-08
5.1135511e-10
1.2494207e-11
3.1834414e-13
6.9144908e-14
5.633874e-15
1.1247347e-16
1.4864174e-18
2.4015713e-20
3.915676e-22
5.6334473e-24
6.8596092e-26
7.2329549e-28
6.6997967e-30
5.4523018e-32
3.8719262e-34
2.3780794e-36
1.2659099e-38
6.245223e-41
2.6686075e-43
9.9358442e-46
3.2604398e-48
1.014977e-50
3.0642816e-53
8.4748296e-56
2.1122189e-58
4.8597603e-61
1.2913307e-61
2.7055285e-61
5.7445176e-61
9.9455042e-61
1.3401441e-58
2.1106826e-56
1.3091603e-54
2.1385052e-54
3.76634e-64
4.6484803e-62
7.2282614e-61
1.6132535e-60
1.6087234e-60
1.1321404e-60
5.7083346e-61
2.1599346e-61
1.8593572e-62
3.3735485e-60
1.9896671e-57
4.8791399e-55
7.891603e-53
1.0220853e-50
1.1171037e-48
1.0665121e-46
9.0782421e-45
6.9813173e-43
4.8954949e-41
3.1526059e-39
1.8752277e-37
1.0353603e-35
5.3296484e-34
2.5677114e-32
1.1588945e-30
4.906427e-29
2.0505853e-27
1.0348614e-25
6.763122e-24
2.5108151e-22
2.9504632e-21
1.2714782e-20
3.1327077e-20
7.9313768e-20
9.3371674e-19
5.7540239e-17
2.1120195e-15
2.1167753e-14
7.1061256e-14
1.3136113e-13
2.248642e-13
3.1758546e-13
3.381806e-13
1.1599498e-12
4.4922581e-11
7.8277212e-09
6.9477784e-06
2.0027568e-05
4.4381788e-07
2.0149153e-07
2.2320992e-07
5.2918106e-06
5.6563662e-06
4.5363735e-06
1.8846475e-06
5.7156451e-07
5.8000604e-07
2.6703827e-07
2.636256e-07
2.6430029e-07
2.643211e-07
2.672787e-07
2.2366227e-05
3.8810161e-05
1.7446993e-05
1.446491e-08
9.9212708e-10
4.4524758e-11
1.5950526e-12
1.2111736e-13
7.2665169e-15
1.8298325e-16
2.5772457e-18
3.733824e-20
5.5542435e-22
7.6541598e-24
9.5537021e-26
1.0373349e-27
9.7380681e-30
7.9076948e-32
5.5605022e-34
3.3832891e-36
1.7969384e-38
8.5887317e-41
3.6528047e-43
1.5121007e-45
5.9466828e-48
2.141327e-50
7.0214766e-53
2.0205793e-55
4.7701819e-58
3.1329604e-59
3.7766192e-59
8.2420431e-59
1.5968688e-58
1.9936169e-57
4.3267497e-55
3.7871074e-53
1.3543683e-51
2.3166282e-51
5.8577929e-62
6.4611994e-60
1.0231105e-58
2.2975443e-58
2.2865291e-58
1.6181102e-58
8.1953727e-59
3.0540767e-59
1.4252351e-60
2.4036995e-58
5.9799934e-56
3.5372485e-53
9.4806038e-51
1.5200824e-48
1.8554408e-46
1.8997003e-44
1.6973427e-42
1.3517856e-40
9.7236695e-39
6.3760718e-37
3.8381519e-35
2.1320039e-33
1.096725e-31
5.2488635e-30
2.357078e-28
1.0012393e-26
4.1385005e-25
1.9102698e-23
1.0689759e-21
3.667163e-20
4.2015373e-19
1.7456718e-18
3.7779471e-18
7.2792555e-18
5.176527e-17
3.0187227e-15
7.9107537e-14
5.6434137e-13
1.6542678e-12
3.2300415e-12
3.4101979e-12
1.4360036e-12
1.0510697e-12
2.84261e-12
1.5915268e-10
5.0420883e-07
9.2393628e-06
8.4502618e-07
1.2906584e-07
1.5018754e-07
4.8466479e-07
2.5345192e-06
4.1673628e-06
1.148577e-05
3.4376776e-05
1.6939187e-05
9.2156809e-07
6.4332681e-07
5.7908683e-07
2.6413299e-07
2.6483084e-07
2.6514295e-07
1.1283172e-05
4.0443099e-05
1.4243948e-05
1.1418178e-07
2.9682392e-09
6.7170161e-11
1.5815917e-12
1.0848409e-13
6.4078661e-15
1.709356e-16
2.6405618e-18
4.0357649e-20
6.018827e-22
7.8934697e-24
9.2274122e-26
9.6337476e-28
8.822678e-30
7.0449425e-32
4.9371197e-34
3.0967777e-36
1.7764961e-38
9.5728432e-41
5.3869242e-43
2.7193084e-45
1.1998798e-47
4.592863e-50
1.4696549e-52
3.270942e-55
5.1823322e-57
5.9246303e-57
1.0929862e-56
2.1751603e-56
5.5573423e-56
6.2814213e-54
7.6334091e-52
4.3609681e-50
1.0298587e-48
1.8044379e-48
8.7200355e-60
8.0711018e-58
1.3103873e-56
2.9794992e-56
2.9628278e-56
2.1055688e-56
1.1119674e-56
3.6959345e-57
2.5204435e-58
4.2446069e-56
6.4350843e-54
3.662175e-51
4.8047927e-48
1.2314165e-45
1.825906e-43
2.081244e-41
2.0002906e-39
1.6843849e-37
1.2689505e-35
8.6717544e-34
5.430401e-32
3.1301865e-30
1.6576216e-28
8.2546053e-27
4.3972754e-25
2.9373768e-23
1.6164396e-21
3.9122004e-20
4.0430698e-19
3.0205303e-18
2.5945098e-17
1.3868015e-16
3.5119164e-16
6.0482596e-16
1.5809115e-15
8.9968242e-14
2.4819158e-12
9.6006092e-12
5.6879209e-12
2.1112105e-12
1.7378217e-12
1.47024e-12
1.4535591e-12
8.8356526e-12
4.0947662e-09
2.1680097e-06
4.1147085e-06
5.9024572e-08
7.9354046e-08
1.3786238e-07
5.8305766e-07
7.1556526e-07
1.7117351e-06
2.8896124e-05
4.888014e-05
4.8707381e-05
1.1062993e-06
1.2794905e-06
1.2817517e-06
5.9969527e-07
2.6533434e-07
3.7603276e-07
3.6850118e-05
4.1068418e-05
6.7135382e-06
7.9941073e-08
2.262899e-09
5.0878444e-11
1.1840542e-12
8.0209546e-14
4.7272338e-15
1.3658623e-16
2.1027271e-18
3.03284e-20
4.5766957e-22
6.1821501e-24
7.1742901e-26
7.425954e-28
6.9587457e-30
5.9398762e-32
4.5705931e-34
3.1661648e-36
1.9896428e-38
1.1213103e-40
5.7234882e-43
2.6435015e-45
1.0652453e-47
3.3687136e-50
8.8320945e-53
9.015593e-55
6.5849812e-55
1.6508534e-54
2.7089935e-54
5.1141491e-54
6.6796376e-53
1.1085294e-50
8.4494506e-49
3.4717263e-47
5.9362805e-46
1.0513731e-45
1.2718002e-57
9.1523064e-56
1.5328716e-54
3.5486855e-54
3.5177588e-54
2.562023e-54
1.1307599e-54
5.518433e-57
3.2727446e-55
5.5131417e-53
8.2628336e-51
2.4696233e-48
7.800021e-44
3.6501322e-41
6.6432295e-39
8.5878819e-37
9.1325001e-35
8.4644759e-33
7.0313724e-31
5.2741118e-29
3.6004068e-27
2.6799423e-25
3.889668e-23
4.0236009e-21
7.1541093e-20
2.6994206e-19
5.0142186e-19
5.6330552e-18
3.0300406e-17
7.4000969e-17
2.4284017e-16
5.4072721e-16
9.6754438e-16
3.5693224e-15
2.6409995e-14
4.7049304e-14
4.7391071e-14
2.7674595e-11
9.6059443e-10
2.0114082e-12
1.8086603e-12
3.228814e-09
2.0903406e-09
3.6434612e-10
1.113913e-06
2.3936503e-06
5.3684909e-08
5.3683453e-08
5.6022046e-08
6.1041822e-06
2.0920092e-06
7.7771724e-07
1.1944073e-06
3.6835821e-05
4.8874652e-05
4.8884483e-05
7.7463371e-06
4.2219252e-07
4.2258539e-07
4.0186991e-07
2.6618843e-07
4.3477558e-06
4.2074578e-05
4.1766292e-05
2.9664447e-07
1.1032747e-09
7.5134149e-10
1.5569619e-11
6.0567846e-13
5.459679e-14
3.746804e-15
1.1654944e-16
1.7467363e-18
2.4017195e-20
3.6312069e-22
5.0774338e-24
6.1770082e-26
6.6375163e-28
6.3533315e-30
5.4419597e-32
4.2120046e-34
2.8778043e-36
1.7311924e-38
9.1430545e-41
4.1050305e-43
1.5246622e-45
3.7764128e-48
1.5934436e-50
5.1655209e-52
9.5854896e-53
1.925203e-52
3.8258237e-52
5.9272829e-52
1.4572048e-51
1.0836455e-49
1.1879429e-47
6.3894603e-46
2.0091858e-44
2.6564025e-43
4.7128824e-43
1.8466214e-55
9.5178252e-54
1.6500203e-52
3.9133076e-52
3.8866966e-52
2.8000612e-52
1.4182902e-52
1.4599844e-52
1.240045e-50
2.3332768e-48
3.8884411e-46
5.812332e-44
9.7596124e-42
2.5567124e-39
4.6343469e-37
6.4266314e-35
7.0837572e-33
6.583363e-31
5.3747398e-29
3.9445784e-27
2.6390533e-25
1.6144522e-23
9.1127772e-22
5.383195e-20
4.8074797e-18
4.139172e-16
1.0225082e-14
6.4105564e-14
1.459421e-13
1.8657667e-13
1.9829286e-13
2.548061e-13
5.7022017e-13
7.7551296e-13
3.313022e-12
7.107795e-11
2.3361783e-10
2.3409786e-10
2.8477293e-10
7.714915e-08
4.3217795e-07
2.7285374e-07
1.1562676e-07
1.2430999e-06
2.4121348e-06
1.7056508e-06
5.3663207e-08
5.3683453e-08
2.1427028e-05
9.2392358e-05
3.3212728e-05
8.1102828e-07
8.652577e-07
2.0710317e-05
4.9061308e-05
4.930123e-05
2.8612222e-05
4.2785996e-07
4.2177298e-07
4.2154015e-07
3.9252659e-07
1.493094e-05
4.2074578e-05
3.9560341e-05
4.8394155e-10
1.23488e-10
1.4089004e-10
8.1259465e-12
4.0071788e-13
4.1767187e-14
3.0767458e-15
9.6102979e-17
1.4908864e-18
2.1414743e-20
3.2163866e-22
4.4179181e-24
5.3083368e-26
5.5882342e-28
5.136137e-30
4.0997986e-32
2.8546558e-34
1.7257047e-36
8.8592959e-39
3.8103179e-41
1.2478426e-43
2.521782e-46
2.4695138e-48
2.6586186e-49
4.4029318e-50
1.7308831e-50
4.5500192e-50
7.7129768e-50
1.1698921e-49
9.4232042e-49
1.1479867e-46
8.5267958e-45
3.4862749e-43
8.7873728e-42
9.4029373e-41
1.6593318e-40
2.6821261e-53
9.1686258e-52
1.6449287e-50
4.0201172e-50
4.00985e-50
2.8780768e-50
1.622259e-50
1.2257219e-50
7.0591307e-49
1.329939e-46
2.2274828e-44
3.2911781e-42
4.6547708e-40
1.0515339e-37
2.0972095e-35
3.0226432e-33
3.3437573e-31
3.1006613e-29
2.5078225e-27
1.8122821e-25
1.1876425e-23
7.0887348e-22
3.8679412e-20
2.1214833e-18
1.6400393e-16
1.4562725e-14
4.2583007e-13
3.0114983e-12
7.0966981e-12
8.8862496e-12
8.7616714e-12
8.7126063e-12
1.3742065e-11
1.4919761e-11
9.6109998e-12
1.7038807e-11
4.1934336e-11
3.850865e-11
2.3671631e-09
4.345556e-07
6.4973076e-07
2.7423158e-07
3.0304628e-07
2.098916e-06
2.099052e-06
5.3973159e-08
5.3683453e-08
1.812872e-07
7.7413003e-05
0.00010992868
7.2873347e-05
8.2614322e-07
8.5441961e-07
8.0580627e-06
4.9467266e-05
4.9640068e-05
4.5637546e-05
4.9604254e-07
4.2964814e-07
4.7591714e-07
4.5009804e-06
4.1160146e-05
4.2074578e-05
1.0007154e-05
9.3422271e-11
9.851291e-11
1.5923252e-10
5.7682278e-12
3.1865192e-13
3.2450751e-14
2.1487689e-15
6.3328772e-17
1.0863357e-18
1.6431759e-20
2.4201847e-22
3.1217948e-24
3.456558e-26
3.2676128e-28
2.6288877e-30
1.7707572e-32
9.7484202e-35
4.4872093e-37
1.6763933e-39
4.8405153e-42
9.4645108e-45
3.5168899e-46
6.5644722e-47
1.8953828e-47
4.6594573e-48
3.6266132e-48
8.912207e-48
1.3679846e-47
2.4194307e-47
8.3542977e-46
8.0082114e-44
4.3684886e-42
1.4304878e-40
2.9833442e-39
2.6719547e-38
4.6670194e-38
3.8809033e-51
8.2689101e-50
1.5281121e-48
3.868729e-48
3.8805985e-48
2.7958568e-48
1.5813711e-48
8.571055e-49
1.1569613e-47
2.0779692e-45
3.4966484e-43
5.3748569e-41
1.6290633e-38
3.8651327e-36
5.5664784e-34
6.2875216e-32
5.9736921e-30
4.9351984e-28
3.6132487e-26
2.3749879e-24
1.4138418e-22
7.6311238e-21
3.7438957e-19
1.822102e-17
1.1830404e-15
8.5685916e-14
2.222447e-12
1.4799793e-11
3.3884129e-11
4.1429098e-11
3.5213462e-11
2.1284404e-11
1.8269719e-11
1.6892335e-11
9.6118829e-12
1.6254301e-10
2.4632751e-08
3.8487154e-11
1.4522044e-10
3.8608133e-10
8.4811903e-09
5.9938517e-07
2.0178688e-07
2.9586284e-07
5.7025001e-08
5.4124125e-08
5.3973159e-08
2.6503344e-07
3.4236433e-05
0.00011008399
8.3655337e-05
8.029742e-07
8.156415e-07
1.3410123e-06
3.2427952e-05
4.9801752e-05
5.0408736e-05
3.9574921e-05
4.9177308e-06
2.3963025e-05
4.3712603e-05
4.2170577e-05
2.7794815e-05
2.6261873e-10
1.4001686e-11
9.6203882e-11
1.7237963e-10
6.6161781e-12
2.3660235e-13
2.3119671e-14
1.2879349e-15
3.8493725e-17
5.1592262e-19
7.56461e-21
1.1320037e-22
1.3193994e-24
1.2363633e-26
9.4402182e-29
5.8133267e-31
2.880337e-33
1.0905102e-35
3.2581585e-38
7.314951e-41
2.0033119e-43
2.8381576e-44
1.7012378e-44
4.0805148e-45
1.4531681e-45
6.0799214e-46
6.9132326e-46
1.509441e-45
2.1627618e-45
7.54007e-45
5.6004091e-43
3.9304018e-41
1.6700164e-39
4.5420656e-38
8.0329067e-37
6.1786454e-36
1.0639595e-35
5.5455337e-49
7.0542248e-48
1.3261825e-46
3.501428e-46
3.5419529e-46
2.5894411e-46
1.3637958e-46
5.7818761e-47
1.0881178e-46
3.3032011e-44
9.9002926e-42
1.8915019e-39
2.8419113e-37
3.5533744e-35
3.7701808e-33
3.4714716e-31
2.8132569e-29
2.0264126e-27
1.3068965e-25
7.5932834e-24
3.9935529e-22
1.900176e-20
8.1868742e-19
3.4408117e-17
1.8480028e-15
1.1691756e-13
2.951472e-12
1.9538566e-11
4.3937319e-11
5.2550863e-11
4.9310413e-11
2.9402743e-11
1.8359843e-11
1.8291208e-11
2.5194046e-11
3.1697842e-10
1.8714356e-10
1.1266821e-05
1.8577631e-05
3.0313659e-05
5.4182415e-05
7.4213249e-05
4.1001008e-05
4.2841408e-06
4.9021863e-07
1.3375295e-07
5.6207361e-08
8.2237515e-08
6.8558078e-08
0.00010922152
5.7815626e-05
7.9118625e-07
7.8426944e-07
6.9940896e-07
1.2590272e-05
5.0624032e-05
5.0507502e-05
5.0474754e-05
5.0485544e-05
5.0396378e-05
4.9829905e-05
2.374451e-05
2.7590454e-08
2.7582453e-11
1.289432e-11
9.6161019e-11
1.6178012e-10
3.0703207e-12
1.4654676e-13
1.4151361e-14
1.3133888e-15
4.2913108e-17
5.0270717e-19
3.2870202e-21
2.5316562e-23
2.4053494e-25
1.7453556e-27
9.3800506e-30
4.244037e-32
1.9519395e-34
8.8546777e-37
3.1654291e-39
1.4704081e-41
1.8927829e-42
1.51191e-42
6.7827343e-43
3.1545141e-43
1.4853207e-43
8.8035582e-44
1.1466026e-43
2.2611726e-43
3.2050153e-43
3.4074052e-42
2.6579633e-40
1.4253427e-38
4.9198173e-37
1.1414413e-35
1.7449106e-34
1.1758744e-33
1.9912893e-33
7.7511051e-47
5.781389e-46
1.0790434e-44
2.9912194e-44
3.0616528e-44
2.2565677e-44
1.1580122e-44
4.6797997e-45
4.955698e-45
1.3109539e-43
3.1723351e-41
5.450682e-39
7.6068916e-37
8.8366929e-35
8.8671102e-33
7.8611787e-31
6.1894939e-29
4.3489955e-27
2.7410349e-25
1.5571341e-23
7.9951472e-22
3.6993976e-20
1.5543345e-18
6.5961383e-17
3.6999933e-15
1.9975272e-13
3.7677198e-12
1.9633961e-11
4.0373229e-11
4.83085e-11
4.4840091e-11
3.1707219e-11
3.3130609e-11
1.8630512e-11
8.4044194e-11
2.9279954e-09
1.8576072e-10
6.8569162e-06
7.7642572e-05
8.3732391e-05
8.4001606e-05
8.4012806e-05
8.4010084e-05
8.1283487e-05
1.0442583e-05
1.3267095e-07
6.2647944e-08
6.7999267e-08
6.8427411e-08
7.4085268e-05
3.4724817e-05
7.84294e-07
7.7476688e-07
5.3186374e-07
3.0403417e-08
1.1359531e-05
4.9186905e-05
5.0474754e-05
5.0394859e-05
4.1916779e-05
6.0111804e-06
3.6876255e-08
5.0266646e-10
9.5700728e-12
1.2093628e-11
7.9028274e-11
9.6925686e-11
7.8827419e-13
1.879714e-14
1.8152179e-15
1.8130455e-15
5.9982024e-17
2.1478891e-19
5.1639337e-21
8.8501672e-24
5.1206425e-26
4.3392921e-28
3.6693584e-30
3.8896516e-32
2.7528222e-34
1.8326484e-36
1.0393655e-38
1.6076149e-40
1.0616583e-40
7.8256743e-41
4.5718783e-41
3.2803788e-41
1.8904383e-41
1.2410182e-41
1.6215987e-41
3.0050713e-41
5.1632148e-41
1.4491808e-39
9.2597716e-38
3.9569288e-36
1.1445143e-34
2.3102603e-33
3.0995066e-32
1.8612818e-31
3.0933664e-31
1.0512802e-44
4.6574437e-44
8.2494116e-43
2.4191717e-42
2.5182135e-42
1.8557609e-42
9.6573911e-43
3.3701722e-43
7.8738544e-44
2.5703995e-43
3.2095462e-41
4.9897253e-39
6.9999219e-37
1.4476447e-34
2.707441e-32
3.454834e-30
3.4927239e-28
2.9695194e-26
2.181534e-24
1.4051209e-22
7.9719698e-21
3.9731784e-19
1.8148611e-17
9.3165406e-16
5.42043e-14
1.4375039e-12
1.1267935e-11
3.2815803e-11
4.919499e-11
4.8441136e-11
4.4930221e-11
1.4039564e-10
1.2435723e-09
4.5782437e-11
1.0229598e-10
7.9178746e-10
2.0761001e-10
4.7396779e-10
2.7477776e-05
8.369792e-05
8.398145e-05
8.4001606e-05
8.4010084e-05
4.7422425e-05
1.3415334e-06
1.3436688e-07
7.2576764e-08
7.0479922e-08
6.8558078e-08
9.5410091e-06
2.5838247e-05
7.8996566e-07
1.2192355e-06
5.3448128e-07
2.1814712e-08
2.3699753e-08
3.71304e-08
4.8741497e-06
6.5946581e-06
2.2115587e-06
1.272953e-07
3.2881121e-10
1.9969695e-11
6.6543599e-12
1.0330426e-11
3.1244607e-11
2.8665181e-11
7.1592981e-12
9.8812709e-12
6.4561679e-12
7.3399879e-19
6.932864e-17
-3.0401889e-18
1.3627867e-20
1.2195328e-23
7.9978123e-26
9.8652013e-28
1.2166908e-29
1.8085763e-31
2.2346463e-33
1.7124049e-35
1.0600311e-37
6.5664201e-39
5.7015159e-39
4.8659634e-39
4.6452692e-39
4.5690174e-39
2.622561e-39
1.6179135e-39
2.033345e-39
3.5866031e-39
1.0391356e-38
4.8021452e-37
2.456149e-35
8.6334997e-34
2.1414287e-32
3.8198303e-31
4.5517286e-30
2.470457e-29
4.0265306e-29
1.3760239e-42
3.8018044e-42
5.9485556e-41
1.8561307e-40
1.9753688e-40
1.4519901e-40
7.5770424e-41
2.5695421e-41
6.8676672e-42
7.4365169e-42
3.705719e-40
7.9496099e-38
1.3078332e-35
1.708486e-33
1.8967819e-31
1.8023937e-29
1.481085e-27
1.0611605e-25
6.6627841e-24
3.6706225e-22
1.7647553e-20
7.3115373e-19
2.6306857e-17
8.904124e-16
3.0169187e-14
7.6068087e-13
9.1399458e-12
4.770767e-11
1.4280567e-10
3.1271949e-10
4.2254645e-10
6.7591811e-10
4.7556947e-09
2.1485494e-08
5.3215906e-09
1.6752563e-09
4.7396778e-10
1.2379097e-09
2.0709206e-08
6.1439628e-06
4.4650452e-05
4.7590278e-05
2.0804649e-05
2.6128608e-06
1.9920666e-06
1.4005293e-06
3.4751342e-07
1.1059658e-07
3.7652745e-07
4.893126e-06
2.5640629e-05
8.1534869e-07
1.6554061e-06
1.4005654e-06
2.1814712e-08
2.11081e-08
2.3621747e-08
2.4757048e-08
8.7418973e-09
2.6776387e-09
3.2853827e-10
1.9409609e-11
5.9433684e-12
6.6543599e-12
6.654351e-12
6.6588533e-12
2.3194478e-11
8.76395e-11
1.5868306e-10
1.5635896e-10
2.4651903e-34
3.3128924e-17
-1.0752558e-17
4.3355911e-20
2.3878376e-22
9.8916133e-24
1.4237265e-25
1.7763553e-27
1.6879359e-29
1.1422843e-31
5.446956e-34
3.4321918e-36
3.1683222e-37
3.4405477e-37
4.6635788e-37
5.9311111e-37
6.0214582e-37
2.9320461e-37
1.8410549e-37
2.2437441e-37
3.9509015e-37
2.4298289e-36
1.2248952e-34
5.1021974e-33
1.5101454e-31
3.2694892e-30
5.2153959e-29
5.5781654e-28
2.76995e-27
4.427606e-27
1.7314822e-40
3.2420863e-40
4.0677306e-39
1.3520336e-38
1.4801804e-38
1.0853716e-38
5.6485776e-39
1.9377216e-39
4.4331719e-40
1.6828136e-40
9.1472987e-39
2.5338419e-37
2.0306873e-35
2.7445395e-33
3.1494063e-31
3.0779574e-29
2.5955026e-27
1.9006339e-25
1.2156544e-23
6.9576517e-22
3.6499735e-20
1.6199085e-18
5.178121e-17
1.2000055e-15
2.8761412e-14
9.2456438e-13
1.176969e-11
3.8844259e-11
1.408029e-10
1.3566778e-09
6.6793376e-09
4.5354657e-09
4.7442754e-09
3.5002845e-07
1.1275774e-06
1.9554793e-07
8.7482939e-09
2.0707648e-08
1.4716596e-05
1.6057648e-05
1.3258535e-05
1.3095502e-05
1.1275467e-05
9.563431e-06
7.9643801e-06
3.7615344e-06
3.0592199e-07
1.5682467e-07
2.8696799e-07
2.4798638e-05
2.5394597e-05
4.7937871e-06
6.5007463e-06
4.6530647e-06
2.1105306e-08
8.8470673e-08
1.8759245e-07
5.3051393e-08
2.510307e-08
6.614882e-09
1.3521376e-09
8.0290266e-11
2.9301271e-12
6.5932366e-12
2.655973e-11
7.1610907e-12
2.1275757e-11
4.6546769e-11
2.5150949e-10
2.9477841e-10
-5.5777823e-18
-2.2144069e-18
-1.7242947e-17
3.8367008e-19
4.4988915e-21
1.9484301e-22
2.3313382e-24
2.9085831e-26
2.8171945e-28
1.9785181e-30
1.1474742e-32
3.8842885e-35
1.8928243e-35
3.4812022e-35
5.9041205e-35
7.2208794e-35
6.6298923e-35
2.7551544e-35
1.8175222e-35
2.2197199e-35
4.2308378e-35
5.3751922e-34
2.4528167e-32
8.4863392e-31
2.1512115e-29
4.1185793e-28
5.9306245e-27
5.7466603e-26
2.6404394e-25
4.1416611e-25
2.0928689e-38
2.9694395e-38
2.6474576e-37
9.3521042e-37
1.0606068e-36
7.7688963e-37
4.0280029e-37
1.3884505e-37
3.0494199e-38
1.3402713e-38