/*--------------------------------*- C++ -*----------------------------------*\
  =========                 |
  \\      /  F ield         | OpenFOAM: The Open Source CFD Toolbox
   \\    /   O peration     | Website:  https://openfoam.org
    \\  /    A nd           | Version:  9
     \\/     M anipulation  |
\*---------------------------------------------------------------------------*/
FoamFile
{
    format      ascii;
    class       surfaceScalarField;
    location    "0.77";
    object      alphaPhi0.phase1;
}
// * * * * * * * * * * * * * * * * * * * * * * * * * * * * * * * * * * * * * //

dimensions      [0 3 -1 0 0 0 0];

internalField   nonuniform List<scalar> 
19800
(
-1.4767574e-87
7.5560569e-88
-2.4872296e-86
2.6728977e-87
-6.4440411e-85
1.3169316e-85
-1.0508159e-84
6.2935992e-85
-6.8348478e-85
7.1775477e-85
-1.7678683e-85
2.6014667e-85
-2.0988645e-85
8.5570164e-86
-2.430926e-85
8.7307793e-86
-2.9397402e-84
4.7820186e-85
-4.0257714e-82
5.9366166e-83
-4.8900326e-80
6.6720728e-81
-5.2955579e-78
6.7092163e-79
-5.1793762e-76
6.1101375e-77
-4.6040713e-74
5.07535e-75
-3.7377548e-72
3.8590219e-73
-2.7859005e-70
2.6964808e-71
-1.9158834e-68
1.7388044e-69
-1.2210443e-66
1.038579e-67
-7.2400243e-65
5.7652639e-66
-4.0081117e-63
2.9831202e-64
-2.0786202e-61
1.4428268e-62
-1.012059e-59
6.5422611e-61
-4.6242671e-58
2.7877842e-59
-1.9879683e-56
1.1195702e-57
-8.229157e-55
4.2750998e-56
-3.3827487e-53
1.5753776e-54
-1.3104741e-51
5.5521659e-53
-4.1390747e-50
1.7460191e-51
-1.066225e-48
4.6579559e-50
-2.8364408e-47
1.1802833e-48
-9.1545811e-46
3.4641707e-47
-3.3450169e-44
1.1973173e-45
-1.2599497e-42
4.3851343e-44
-4.7733822e-41
1.6273152e-42
-1.8225522e-39
6.121075e-41
-7.0543471e-38
2.3521864e-39
-2.7958355e-36
9.1962697e-38
-1.1465897e-34
3.6350957e-36
-4.8916782e-33
1.4326561e-34
-2.1672409e-31
5.4510574e-33
-9.935012e-30
1.8377809e-31
-4.7290484e-28
3.6816014e-30
-2.3246172e-26
-2.9317418e-28
-1.1229761e-24
-6.6607829e-26
-5.0926745e-23
-6.661496e-24
-2.1011457e-21
-5.1112927e-22
-7.522021e-20
-3.448658e-20
-1.9433543e-18
-1.7681096e-18
-3.3771447e-17
-2.5705773e-17
6.3771057e-17
-9.3801053e-16
4.7798657e-15
-1.7968695e-14
3.4451874e-14
-1.2588341e-13
1.5054053e-13
-3.9777683e-13
5.6973031e-13
-1.2286687e-12
1.0476559e-12
-2.8208391e-12
4.5014627e-13
-6.639332e-13
1.7559746e-13
-1.6103977e-13
8.077398e-14
0
4.0569596e-14
0
1.9361479e-14
0
5.2329966e-15
2.4152131e-15
7.4422384e-16
7.1850535e-16
7.1543768e-17
4.1724366e-17
5.4952287e-18
4.6523636e-18
3.7731527e-19
4.6650187e-19
2.3155561e-20
3.9111029e-20
1.2539516e-21
2.7867617e-21
5.9732267e-23
1.7029323e-22
2.5088035e-24
8.9827534e-24
9.330031e-26
4.116573e-25
3.0830219e-27
1.6481744e-26
9.0694239e-29
5.789086e-28
2.3762184e-30
1.7890724e-29
5.5402563e-32
4.8751375e-31
1.1472367e-33
1.1730641e-32
2.103759e-35
2.4940853e-34
3.4039072e-37
4.6836592e-36
4.8388825e-39
7.7567084e-38
6.0143125e-41
1.1298282e-39
6.5000609e-43
1.4423892e-41
6.0714797e-45
1.6067677e-43
4.8687415e-47
1.5537043e-45
3.3272279e-49
1.2967509e-47
1.9220351e-51
9.2820743e-50
9.3028255e-54
5.6588788e-52
3.7367869e-56
2.917557e-54
1.2332678e-58
1.2625733e-56
3.3097015e-61
4.5518927e-59
7.1455108e-64
1.357902e-61
1.2267825e-66
3.3333904e-64
1.6505525e-69
6.7084433e-67
1.7012956e-72
1.1039598e-69
1.2838155e-75
1.4815808e-72
6.2158279e-79
1.6226375e-75
6.3645584e-83
1.4555536e-78
-2.4758492e-85
1.0855395e-81
-7.8877493e-86
1.0172977e-84
-9.3807484e-86
2.4690735e-85
-9.721442e-86
2.0276315e-85
1.6245349e-85
-7.9624036e-88
1.0758091e-87
-2.115452e-85
7.2550791e-86
-4.7070251e-84
2.7303072e-84
-1.001874e-83
1.2937516e-83
-1.0946002e-83
1.7063295e-83
-7.7928575e-84
1.3358555e-83
-3.4629745e-84
7.4197271e-84
-4.1519846e-84
3.6989411e-84
-9.7074394e-83
3.9543583e-83
-1.4318575e-80
5.3511879e-81
-1.8488827e-78
6.3534722e-79
-2.1220728e-76
6.7373953e-77
-2.1866888e-74
6.4366331e-75
-2.0398001e-72
5.5795326e-73
-1.7346514e-70
4.4153323e-71
-1.3529765e-68
3.2061391e-69
-9.7300946e-67
2.1460186e-67
-6.4820293e-65
1.3293148e-65
-4.0169552e-63
7.6483226e-64
-2.324578e-61
4.1005269e-62
-1.2604035e-59
2.0550653e-60
-6.4169558e-58
9.6583246e-59
-3.0727385e-56
4.2693303e-57
-1.3941275e-54
1.7833192e-55
-6.085924e-53
7.1002452e-54
-2.5493773e-51
2.710205e-52
-9.7877355e-50
9.7829461e-51
-3.3566854e-48
3.2673395e-49
-1.105941e-46
1.0382328e-47
-3.8290536e-45
3.4066567e-46
-1.3942969e-43
1.201072e-44
-5.1311951e-42
4.4140967e-43
-1.8770927e-40
1.6445953e-41
-6.8458469e-39
6.1819988e-40
-2.5056167e-37
2.3508706e-38
-9.273837e-36
9.0548622e-37
-3.5238305e-34
3.5388185e-35
-1.4044482e-32
1.4104754e-33
-5.940068e-31
5.7348824e-32
-2.6442509e-29
2.3256736e-30
-1.2187933e-27
8.9316213e-29
-5.7343563e-26
2.8960246e-27
-2.7493321e-24
5.0028843e-26
-1.3127567e-22
-4.1909735e-24
-5.9674566e-21
-6.660678e-22
-2.6476376e-19
-6.4066554e-20
-9.630177e-18
-5.72063e-18
-2.6870726e-16
-7.5460242e-17
-4.6296576e-15
0
-1.9438428e-14
0
1.5179249e-13
-2.7489295e-13
1.0787612e-12
-1.3008361e-12
4.5030916e-12
-4.5284421e-12
1.6501248e-11
-1.5098784e-11
2.200354e-11
-1.1825017e-11
1.6055921e-11
0
7.019096e-12
0
2.9284055e-12
0
1.6136755e-12
0
1.3801179e-12
0
3.3810617e-13
9.8357702e-13
5.8044678e-14
1.585988e-13
6.3370082e-15
1.0725123e-14
4.8156831e-16
9.3604804e-16
2.9495339e-17
1.044914e-16
1.5724147e-18
8.0132999e-18
7.4061659e-20
4.9748824e-19
3.0759924e-21
2.6152238e-20
1.1251215e-22
1.1835399e-21
3.6416258e-24
4.6565508e-23
1.0489402e-25
1.6046917e-24
2.6982241e-27
4.8727019e-26
6.205959e-29
1.3094396e-27
1.2753814e-30
3.1225054e-29
2.3364487e-32
6.6148264e-31
3.8019873e-34
1.2445251e-32
5.4713848e-36
2.0762178e-34
6.9286942e-38
3.0630639e-36
7.6782229e-40
3.9815935e-38
7.4000866e-42
4.5400614e-40
6.1606197e-44
4.5172366e-42
4.3970394e-46
3.8985253e-44
2.668358e-48
2.8993685e-46
1.3643111e-50
1.8448403e-48
5.8187624e-53
9.9651887e-51
2.0478076e-55
4.5329925e-53
5.8797103e-58
1.722106e-55
1.3605459e-60
5.4220572e-58
2.5020158e-63
1.4054021e-60
3.5914856e-66
2.9845048e-63
3.9091041e-69
5.1828968e-66
3.0296473e-72
7.3832822e-69
1.281252e-75
8.7474453e-72
-5.2309639e-79
8.8893598e-75
-1.9257975e-81
8.2992464e-78
-4.2313272e-84
7.1964322e-81
-1.4165176e-84
1.1148264e-83
-1.7254432e-85
2.6334119e-84
-1.4933458e-85
2.2660307e-85
1.5098928e-85
-1.0666468e-84
1.8952853e-84
-2.6236513e-82
1.2873479e-82
-3.7072121e-81
3.4023682e-81
-6.443933e-81
1.2179003e-80
-6.8425855e-81
1.430651e-80
-4.6276803e-81
1.0333653e-80
-1.9607706e-81
5.4332322e-81
-2.3161949e-81
2.6517106e-81
-4.4252137e-80
2.2337564e-80
-6.704559e-78
3.0961312e-78
-8.8519776e-76
3.744481e-76
-1.0356934e-73
4.0306302e-74
-1.085095e-71
3.8975704e-72
-1.0267e-69
3.4103971e-70
-8.8360331e-68
2.7169647e-68
-6.9594368e-66
1.981273e-66
-5.0423564e-64
1.328008e-64
-3.3760506e-62
8.2147363e-63
-2.097166e-60
4.7049321e-61
-1.2131471e-58
2.5024328e-59
-6.5549552e-57
1.2395816e-57
-3.3083006e-55
5.7328042e-56
-1.5565372e-53
2.4809793e-54
-6.9375095e-52
1.0114555e-52
-3.0904929e-50
3.9625148e-51
-1.3891709e-48
1.5124083e-49
-5.2503976e-47
5.2773734e-48
-1.3664568e-45
1.4630222e-46
-2.8251873e-44
3.2038458e-45
-6.6792275e-43
7.0906353e-44
-2.0430491e-41
2.0239698e-42
-6.9837073e-40
6.9685096e-41
-2.4077718e-38
2.5220054e-39
-8.2316527e-37
9.2030093e-38
-2.7923896e-35
3.3607051e-36
-9.3727639e-34
1.2226155e-34
-3.161511e-32
4.4268735e-33
-1.132358e-30
1.6368036e-31
-4.5179995e-29
6.399524e-30
-1.984196e-27
2.6394569e-28
-9.1780197e-26
1.0826517e-26
-4.3200854e-24
4.0840849e-25
-2.0272097e-22
1.2311097e-23
-9.6816505e-21
1.0567962e-22
-4.6646702e-19
-3.752442e-20
-1.9715021e-17
-4.7204156e-18
-4.4156021e-16
-1.1593406e-16
-4.4833854e-15
-5.3564125e-16
-4.1976474e-13
0
-2.9789436e-12
0
1.6099455e-12
-9.7253897e-12
4.0853044e-11
-5.0762759e-11
1.9018676e-10
-1.8175093e-10
7.4398043e-10
-6.4125562e-10
9.9003533e-10
-6.5322135e-10
7.3993751e-10
0
4.3899698e-10
-2.5665422e-10
3.5314871e-10
-1.0026898e-09
1.1307337e-10
0
7.4336252e-11
1.9266759e-10
2.2958188e-11
7.4891106e-11
6.9725822e-13
9.2825353e-12
3.0531408e-14
6.5911042e-13
2.3773043e-15
2.5891036e-14
5.1559846e-16
1.2466423e-15
6.1505404e-17
1.4625884e-16
2.6584541e-18
1.5662969e-17
8.5129061e-20
9.1699098e-19
2.8649339e-21
3.9222171e-20
9.0893681e-23
1.4859917e-21
2.5425216e-24
4.9501967e-23
6.2628145e-26
1.4463127e-24
1.3691159e-27
3.7191211e-26
2.6603259e-29
8.4479678e-28
4.5873499e-31
1.6982665e-29
7.0003636e-33
3.0218938e-31
9.4189269e-35
4.754122e-33
1.112317e-36
6.5974155e-35
1.1467399e-38
8.0490615e-37
1.0256945e-40
8.5968243e-39
7.9034368e-43
7.9968548e-41
5.2048096e-45
6.4396868e-43
2.9032601e-47
4.4592939e-45
1.3580559e-49
2.6356724e-47
5.2680542e-52
1.3190429e-49
1.6738535e-54
5.5431014e-52
4.296776e-57
1.9402143e-54
8.7750648e-60
5.6169211e-57
1.3981681e-62
1.3395151e-59
1.6813665e-65
2.6346137e-62
1.4037829e-68
4.3132408e-65
5.0089934e-72
6.0074929e-68
-8.6716262e-75
7.4405492e-71
-2.6404561e-77
8.8539946e-74
-4.1489405e-80
9.6094481e-77
-4.1758004e-81
9.469955e-80
-2.306859e-81
8.6933794e-81
-5.1658494e-82
3.4016004e-81
-2.6184774e-82
6.2467573e-82
2.4582875e-82
-9.593159e-82
1.2103493e-81
-1.8813391e-79
1.1972499e-79
-1.8453499e-78
2.3690371e-78
-2.8481036e-78
6.8335537e-78
-2.995302e-78
7.5403631e-78
-1.9774138e-78
5.3360316e-78
-8.1817305e-79
2.7388742e-78
-9.6153978e-79
1.3121231e-78
-1.7002829e-77
1.012467e-77
-2.658873e-75
1.446444e-75
-3.608005e-73
1.7944898e-73
-4.32506e-71
1.974591e-71
-4.6307792e-69
1.9461094e-69
-4.4683402e-67
1.7313993e-67
-3.9147592e-65
1.3995667e-65
-3.1337786e-63
1.0334712e-63
-2.3044433e-61
7.0024515e-62
-1.5639019e-59
4.370737e-60
-9.8355715e-58
2.5218242e-58
-5.7552768e-56
1.3494068e-56
-3.1440055e-54
6.7166123e-55
-1.6026193e-52
3.1185098e-53
-7.5846354e-51
1.3540024e-51
-3.3965124e-49
5.550834e-50
-1.5774045e-47
2.2168103e-48
-8.1611782e-46
8.9424792e-47
-3.5897816e-44
3.3550119e-45
-8.6064624e-43
8.8944698e-44
-1.1568281e-41
1.4590161e-42
-1.4943459e-40
1.9427623e-41
-3.0592178e-39
3.5192277e-40
-9.1361749e-38
1.0269818e-38
-2.9855894e-36
3.5842607e-37
-9.8029632e-35
1.2850273e-35
-3.192198e-33
4.5795139e-34
-9.896465e-32
1.5819595e-32
-2.8138886e-30
5.1312803e-31
-8.0112046e-29
1.5955561e-29
-2.7068274e-27
5.3404184e-28
-1.1228732e-25
2.0853576e-26
-5.1789757e-24
8.8309507e-25
-2.4417074e-22
3.6391007e-23
-1.1533331e-20
1.331244e-21
-6.1215884e-19
3.6576552e-20
-3.1643444e-17
3.7869369e-20
-4.546821e-16
-6.0442383e-17
-2.8606183e-15
-8.0743241e-16
-5.2803034e-13
-7.8216718e-15
-3.3388566e-11
0
-1.3959969e-10
0
1.7630776e-10
-5.2236916e-10
2.4487708e-09
-1.0043088e-08
1.8208828e-08
-3.7041363e-08
6.7878042e-08
-1.1019048e-07
6.2734698e-08
-1.0008764e-07
2.5381567e-08
-8.3669848e-08
4.9159084e-10
-1.6665858e-08
1.0574596e-08
-1.7253579e-09
2.4478518e-08
-6.2855553e-09
1.4558773e-08
9.7257173e-09
1.0451535e-09
1.3592534e-08
6.9841045e-11
9.8402757e-10
2.4618357e-12
6.8024539e-11
1.4135348e-13
2.3470828e-12
6.6111051e-15
1.3627509e-13
8.6083037e-17
6.7117483e-15
2.1504918e-17
1.5086205e-16
3.6305706e-18
1.4545398e-17
9.8405546e-20
1.1841175e-18
1.7838819e-21
3.9168336e-20
4.2716066e-23
1.1108941e-21
1.0044245e-24
2.9996589e-23
2.0660113e-26
7.2133329e-25
3.7314124e-28
1.5259701e-26
5.9657105e-30
2.8482115e-28
8.428221e-32
4.6967466e-30
1.0482074e-33
6.836628e-32
1.1424334e-35
8.7651099e-34
1.0850154e-37
9.8652937e-36
8.919278e-40
9.7044402e-38
6.2976595e-42
8.2976004e-40
3.7856791e-44
6.1285546e-42
1.9180511e-46
3.8830123e-44
8.1004362e-49
2.0946781e-46
2.8160481e-51
9.5493035e-49
7.9503544e-54
3.6550699e-51
1.7954028e-56
1.1706504e-53
3.1799314e-59
3.1444181e-56
4.2539724e-62
7.1544326e-59
3.7604517e-65
1.4032697e-61
1.3541969e-69
2.4440982e-64
-9.21355e-71
3.8998123e-67
-2.9412938e-73
6.2879415e-70
-6.3055273e-76
9.3574571e-73
-3.9694294e-78
1.239987e-75
-3.7368325e-78
1.0199758e-77
-2.596466e-78
6.5961502e-78
-6.8106047e-79
2.3278253e-78
-2.4337529e-79
3.9642384e-79
3.9932718e-80
-4.7804834e-79
5.4806419e-79
-8.3420451e-77
6.3352456e-77
-6.7722555e-76
1.0951357e-75
-9.6982819e-76
2.8105334e-75
-1.0155011e-75
2.9809761e-75
-6.6135913e-76
2.0887755e-75
-2.6931823e-76
1.0563534e-75
-3.1578512e-76
4.996776e-76
-5.3750867e-75
3.6789328e-75
-8.7318369e-73
5.4564519e-73
-1.2236456e-70
6.9829624e-71
-1.5082036e-68
7.8882797e-69
-1.6548032e-66
7.9515943e-67
-1.6319357e-64
7.214115e-65
-1.4580273e-62
5.9317377e-63
-1.1879805e-60
4.4453013e-61
-8.8773404e-59
3.0507543e-59
-6.1133152e-57
1.9250624e-57
-3.8960506e-55
1.1207347e-55
-2.3074661e-53
6.0403947e-54
-1.2748391e-51
3.0235626e-52
-6.5708393e-50
1.4099073e-50
-3.1425584e-48
6.1443261e-49
-1.4166354e-46
2.5270951e-47
-6.6374028e-45
1.0155105e-45
-3.6492145e-43
4.1898693e-44
-1.8582802e-41
1.6692892e-42
-4.9395631e-40
4.661925e-41
-5.9317212e-39
7.115147e-40
-4.9244777e-38
7.0566053e-39
-5.5139459e-37
7.56197e-38
-1.1544938e-35
1.4672245e-36
-3.3556201e-34
4.5244745e-35
-1.0639543e-32
1.5954502e-33
-3.5321015e-31
5.7803671e-32
-1.1312867e-29
2.0355312e-30
-2.8988967e-28
6.2806722e-29
-5.9092226e-27
1.5787394e-27
-1.3533471e-25
3.7718769e-26
-4.6032528e-24
1.1702312e-24
-2.0303641e-22
4.7655005e-23
-9.7157812e-21
2.0586126e-21
-5.2162841e-19
8.4356629e-20
-2.5724696e-17
2.9868818e-18
-4.0322431e-16
7.127682e-17
-5.1599813e-15
1.9377362e-15
-1.2951879e-13
-6.0120125e-15
-3.6939006e-12
-9.1771398e-13
-1.1128467e-09
0
-7.8462674e-10
-4.8997011e-08
3.0516325e-08
-1.5009172e-07
8.3483355e-08
-1.3995648e-07
1.0514737e-07
-1.2354307e-07
1.6305074e-07
-1.5837227e-07
2.0175912e-07
-1.3326316e-07
2.1293065e-07
-8.3538966e-08
4.4947767e-08
-8.4423072e-09
4.4653358e-08
-1.2073047e-09
3.6221308e-07
-7.6347054e-09
3.6458501e-07
7.5446049e-08
1.8894604e-07
1.2837691e-07
2.1642044e-08
5.1841195e-08
6.5976313e-10
2.1049945e-08
3.5220291e-11
6.2688034e-10
1.6117237e-12
3.3745263e-11
4.3166151e-14
1.5753854e-12
7.525546e-16
4.2614438e-14
3.839083e-17
6.8471095e-16
1.3228295e-18
2.5491914e-17
2.9624131e-20
8.5609827e-19
6.3684373e-22
2.2773023e-20
1.2831312e-23
5.3705423e-22
2.3131462e-25
1.127999e-23
3.6810124e-27
2.0948108e-25
5.176108e-29
3.4349177e-27
6.4306545e-31
4.9753061e-29
7.0361316e-33
6.359742e-31
6.7492706e-35
7.1554939e-33
5.6444137e-37
7.0572949e-35
4.0890079e-39
6.0670351e-37
2.5471805e-41
4.5132565e-39
1.3529349e-43
2.8790222e-41
6.0662016e-46
1.5586222e-43
2.2683627e-48
7.0902199e-46
6.9824951e-51
2.7129006e-48
1.7473706e-53
9.239925e-51
3.4950483e-56
3.0791599e-53
5.2894747e-59
9.3024741e-56
4.3329419e-62
2.4187045e-58
-8.12158e-65
5.7291557e-61
-5.7846662e-67
1.301801e-63
-1.9848046e-69
2.7871094e-66
-5.1245199e-72
5.3007955e-69
-1.0124819e-74
8.750887e-72
-3.0584602e-75
1.6806865e-74
-2.9429258e-75
5.5325109e-75
-1.9574841e-75
3.5187814e-75
-5.3124796e-73
1.2708676e-75
-7.3359991e-70
2.5014076e-73
-7.9368226e-70
-1.6267536e-76
1.8851148e-76
-2.6827375e-74
2.3418361e-74
-1.9644146e-73
3.78021e-73
-2.68119e-73
9.0800304e-73
-2.8049179e-73
9.3933446e-73
-1.8159472e-73
6.5512381e-73
-7.2636321e-74
3.2852874e-73
-8.5020476e-74
1.530216e-73
-1.4047172e-72
1.0829307e-72
-2.3902955e-70
1.6827671e-70
-3.4791319e-68
2.2360505e-68
-4.4263819e-66
2.6048086e-66
-4.990302e-64
2.6942453e-64
-5.0386363e-62
2.4983022e-62
-4.595237e-60
2.0925192e-60
-3.812037e-58
1.5926828e-58
-2.8936176e-56
1.1071845e-56
-2.0199154e-54
7.0582624e-55
-1.3023907e-52
4.1409687e-53
-7.7889935e-51
2.2428491e-51
-4.3372817e-49
1.1250463e-49
-2.2495672e-47
5.2405043e-48
-1.0819843e-45
2.2734908e-46
-4.8930566e-44
9.2698146e-45
-2.2616787e-42
3.6649298e-43
-1.1983664e-40
1.4723137e-41
-6.2062681e-39
5.7733028e-40
-1.888246e-37
1.6847304e-38
-2.6623333e-36
2.7891812e-37
-2.1676595e-35
2.7897715e-36
-1.6126404e-34
2.3673243e-35
-1.7957253e-33
2.6856477e-34
-3.5980897e-32
5.5036594e-33
-1.0227614e-30
1.7385064e-31
-3.495806e-29
6.4696738e-30
-1.2874872e-27
2.4792488e-28
-3.558773e-26
8.1684399e-27
-5.6536464e-25
1.826646e-25
-7.2083699e-24
2.8893286e-24
-1.4478677e-22
5.2633834e-23
-5.45669e-21
1.701313e-21
-2.9197245e-19
7.3676556e-20
-1.5159923e-17
3.1813528e-18
-2.9656624e-16
1.032637e-16
-6.3357147e-15
4.1449574e-15
-3.1219462e-13
2.2314873e-13
-6.4823071e-12
3.0021117e-12
-8.09428e-11
-2.1126512e-11
-9.34464e-09
-1.0777697e-07
2.5331222e-08
-1.1981814e-07
6.7426526e-08
-1.7095156e-07
1.0164634e-07
-1.5294083e-07
1.3789237e-07
-1.3874099e-07
1.3535128e-07
-1.3479083e-07
1.011139e-07
-2.9097252e-08
2.7555486e-08
-6.9736245e-09
2.1452254e-08
-2.2685977e-09
2.1220509e-08
-9.118378e-10
4.3229083e-07
-1.3727521e-10
4.7886473e-07
7.3282976e-08
4.597937e-07
1.9185878e-07
3.0271949e-07
2.5332624e-07
3.9107907e-08
1.8005083e-07
7.4619237e-10
3.0915721e-08
3.2324342e-11
7.2608671e-10
1.240257e-12
3.1426445e-11
3.6821186e-14
1.1918222e-12
1.0850733e-15
3.399681e-14
3.2067663e-17
1.0159648e-15
8.8097597e-19
3.0666211e-17
1.6736803e-20
7.7387577e-19
2.7986068e-22
1.5793947e-20
4.27867e-24
2.8467463e-22
5.7559248e-26
4.5158816e-24
6.7536696e-28
6.2692978e-26
6.892302e-30
7.6034353e-28
6.0830872e-32
8.033457e-30
4.6051477e-34
7.3578975e-32
2.9603663e-36
5.8014466e-34
1.5975067e-38
3.902873e-36
7.1506893e-41
2.2164815e-38
2.6314387e-43
1.0498835e-40
8.0061315e-46
4.1051547e-43
2.1050396e-48
1.3323751e-45
5.2573638e-51
3.8543413e-48
1.2970052e-53
1.2225212e-50
2.5684851e-56
4.8693073e-53
3.6985884e-61
2.0391009e-55
-2.8585574e-61
7.289545e-58
-1.5725464e-63
2.225171e-60
-5.8928402e-66
5.7232402e-63
-1.7585948e-68
1.3089131e-65
-3.5880751e-71
2.5869794e-68
-1.7424808e-72
4.3790458e-71
-1.9094986e-72
3.2077251e-72
-1.8645005e-72
2.4196297e-72
-1.8813108e-72
1.4167329e-72
-7.9752908e-69
2.1899679e-71
-6.9888279e-66
-5.65898e-68
-9.1482977e-66
-4.2416369e-74
5.2228846e-74
-6.8227418e-72
6.6985052e-72
-4.7136434e-71
1.0437504e-70
-6.2396994e-71
2.4110642e-70
-6.53055e-71
2.454703e-70
-4.2366816e-71
1.7100108e-70
-1.6370952e-71
8.5486979e-71
-1.9138955e-71
3.8614527e-71
-3.0641987e-70
2.6159948e-70
-5.5274969e-68
4.3138629e-68
-8.4261565e-66
6.0082614e-66
-1.1127259e-63
7.262789e-64
-1.293896e-61
7.741338e-62
-1.341053e-59
7.3588382e-60
-1.2507118e-57
6.2923552e-58
-1.0576171e-55
4.8718094e-56
-8.1603548e-54
3.4339036e-54
-5.7751917e-52
2.2125447e-52
-3.7659815e-50
1.3078396e-50
-2.2724127e-48
7.1131266e-49
-1.2733989e-46
3.5691725e-47
-6.6284779e-45
1.6558997e-45
-3.1954343e-43
7.1179659e-44
-1.4488118e-41
2.8574073e-42
-6.6148548e-40
1.1000835e-40
-3.2632277e-38
4.2030902e-39
-1.5318081e-36
1.5309802e-37
-4.9540761e-35
4.3844422e-36
-9.2755706e-34
8.1996488e-35
-1.0213404e-32
1.0045189e-33
-7.3115804e-32
9.1135248e-33
-4.5725643e-31
7.4554517e-32
-4.3718182e-30
7.9246442e-31
-8.8719194e-29
1.6985947e-29
-2.9694993e-27
6.197771e-28
-1.271218e-25
2.6327075e-26
-4.211484e-24
9.8791187e-25
-6.4170498e-23
2.218909e-23
-5.0816696e-22
2.6635826e-22
-4.4710424e-21
2.5084741e-21
-1.1079464e-19
4.2117848e-20
-6.5380651e-18
1.5074822e-18
-1.1449633e-16
4.8901125e-17
-1.5973587e-15
1.6405132e-15
-1.1704381e-13
9.4113176e-14
-5.2338396e-12
4.1965659e-12
-7.4453944e-11
3.2906284e-11
-4.1006992e-08
-1.2832391e-08
1.2271028e-08
-1.5900705e-07
3.5949564e-08
-1.7205605e-07
3.7197306e-08
-6.4517237e-08
2.4525053e-08
-3.9608873e-08
2.8604731e-08
-5.6301326e-08
2.770982e-08
-1.8205108e-08
6.1973239e-09
-7.0542407e-09
3.6281688e-09
-4.4303447e-09
3.7210377e-09
-2.3035813e-09
3.9187701e-09
-1.1284054e-09
3.8579555e-09
-9.8978262e-11
7.8829792e-08
3.4529148e-09
2.8833826e-07
7.3435355e-08
3.3298659e-07
2.4987777e-07
2.4230813e-07
3.0128395e-07
7.9970037e-09
2.6232416e-07
2.3925318e-10
8.3063572e-09
8.7473353e-12
2.5895385e-10
2.8102711e-13
9.6169957e-12
7.5855974e-15
3.0879943e-13
2.0561406e-16
8.5354449e-15
5.3698426e-18
2.296561e-16
1.0423742e-19
5.4922031e-18
1.628739e-21
1.0714818e-19
2.2830071e-23
1.785984e-21
2.8409285e-25
2.6217101e-23
3.0948732e-27
3.3892239e-25
2.9382482e-29
3.8527285e-27
2.4209665e-31
3.8484915e-29
1.7201198e-33
3.3720308e-31
1.0464563e-35
2.5842281e-33
5.4142949e-38
1.727263e-35
2.3667226e-40
1.004795e-37
8.6921988e-43
5.0881952e-40
2.7018557e-45
2.2535675e-42
7.2675243e-48
8.9851502e-45
1.6260091e-50
3.3520575e-47
1.8729598e-53
1.2480788e-49
-7.840836e-56
4.3089993e-52
-6.207641e-58
1.2294038e-54
-2.892152e-60
3.2353817e-57
-1.0396436e-62
8.2661187e-60
-3.106118e-65
1.919573e-62
-7.2212429e-68
3.9250707e-65
-6.539037e-70
7.3076123e-68
-6.5488514e-70
1.2049211e-69
-7.9521254e-70
8.7530574e-70
-9.8013409e-70
8.2829433e-70
-4.3518531e-68
3.89886e-69
-7.3320846e-65
-2.3023295e-66
-2.4744127e-62
-9.49873e-64
-4.1694127e-62
-8.9752207e-72
1.2151671e-71
-1.4367701e-69
1.5632063e-69
-9.6336094e-69
2.4001377e-68
-1.2515761e-68
5.4277062e-68
-1.3129218e-68
5.4713805e-68
-8.6798528e-69
3.8201398e-68
-3.456088e-69
1.9204187e-68
-2.9089123e-69
7.8881662e-69
-5.4847988e-68
5.1071532e-68
-1.0665767e-65
9.0914736e-66
-1.7236296e-63
1.3462181e-63
-2.3808781e-61
1.7033657e-61
-2.8705644e-59
1.8819039e-59
-3.0656497e-57
1.8416081e-57
-2.9318113e-55
1.6124961e-55
-2.5322097e-53
1.2728919e-53
-1.9888021e-51
9.1118488e-52
-1.42841e-49
5.9413118e-50
-9.4267438e-48
3.541326e-48
-5.7414177e-46
1.9349964e-46
-3.2385353e-44
9.7143767e-45
-1.6919286e-42
4.4873839e-43
-8.1743845e-41
1.9094397e-41
-3.7187348e-39
7.5335027e-40
-1.6846549e-37
2.8165455e-38
-7.7783331e-36
1.0174862e-36
-3.2324151e-34
3.3844699e-35
-1.0594143e-32
9.1518647e-34
-2.7026044e-31
1.8929772e-32
-4.4233033e-30
2.966085e-31
-3.5545412e-29
3.1703185e-30
-1.5942507e-28
2.2783236e-29
-7.2735646e-28
1.469846e-28
-7.6795899e-27
1.6611431e-27
-2.3046331e-25
5.3066417e-26
-1.152505e-23
2.542828e-24
-4.5999898e-22
1.1179761e-22
-7.1440931e-21
2.6237453e-21
-4.3026667e-20
2.6397865e-20
-1.9506787e-19
1.5176364e-19
-2.0786245e-18
1.012626e-18
-4.2512169e-17
1.612595e-17
-3.1125297e-16
2.4708744e-16
-7.8332224e-15
8.0294816e-15
-4.4069143e-13
4.6589201e-13
-1.5351791e-11
1.6305879e-11
-4.5495109e-09
-2.990423e-10
1.9813718e-09
-1.1468686e-07
2.1535241e-08
-1.5689655e-07
1.5316012e-08
-1.1376136e-08
1.3106187e-09
-3.2270426e-09
3.7542216e-09
-2.7953514e-08
5.0181992e-09
-5.8517366e-08
3.1561363e-09
-1.8171857e-08
3.1424508e-09
-7.7701334e-09
3.3946791e-09
-4.8158706e-09
3.5713497e-09
-2.5759972e-09
3.7685757e-09
-1.348152e-09
3.7494285e-09
-9.8202362e-11
5.9820461e-09
1.1986136e-09
7.0779583e-08
8.6115457e-09
3.0965925e-07
1.122896e-07
2.5626049e-07
3.3782849e-07
1.0256886e-07
3.4803835e-07
9.6829947e-10
6.3426679e-08
2.9388571e-11
1.1189566e-09
7.4994427e-13
3.5833898e-11
1.5571735e-14
9.8399471e-13
3.668033e-16
2.2614764e-14
1.6108095e-17
5.7077544e-16
3.2750913e-19
1.6980697e-17
4.3907094e-21
3.282204e-19
5.7562057e-23
5.1128151e-21
6.9574641e-25
7.2545054e-23
7.4081466e-27
9.3233473e-25
6.9281953e-29
1.0691505e-26
5.7163524e-31
1.0873211e-28
4.1545447e-33
9.8284036e-31
2.648194e-35
7.9160226e-33
1.4720592e-37
5.6870444e-35
7.08361e-40
3.6420957e-37
2.8915985e-42
2.0769655e-39
8.8445169e-45
1.0369005e-41
1.4273883e-47
4.3340819e-44
-1.0925927e-50
1.5818963e-46
-1.8001345e-52
4.825551e-49
-9.1717027e-55
1.3201951e-51
-3.4172968e-57
3.4527071e-54
-1.1038478e-59
8.2668347e-57
-3.2765779e-62
1.8420371e-59
-8.2958256e-65
3.9101227e-62
-2.5142851e-67
7.2039292e-65
-1.3872197e-67
3.2777449e-67
-2.028717e-67
1.9044886e-67
-3.0491522e-67
2.8687491e-67
-9.5431119e-67
3.5364926e-67
-1.3627928e-63
7.831995e-66
-4.1138328e-61
-4.4727448e-62
-4.8851018e-59
-4.8215001e-60
-9.7236199e-59
-1.5999892e-69
2.4569387e-69
-2.584851e-67
3.0832748e-67
-1.7150935e-66
4.731867e-66
-2.2042518e-66
1.0598891e-65
-2.3213273e-66
1.0622886e-65
-1.555427e-66
7.4493462e-66
-6.4985717e-67
3.7617578e-66
-3.3468103e-67
1.4512633e-66
-8.2113536e-66
8.5072875e-66
-1.6759199e-63
1.5409993e-63
-2.8982724e-61
2.4431885e-61
-4.2220692e-59
3.2679736e-59
-5.3042312e-57
3.7640848e-57
-5.8552114e-55
3.8058539e-55
-5.7539533e-53
3.4208752e-53
-5.0830024e-51
2.7578956e-51
-4.0673326e-49
2.0073456e-49
-2.9660874e-47
1.3255035e-47
-1.9813667e-45
7.9698126e-46
-1.2179797e-43
4.3753423e-44
-6.9144416e-42
2.1974879e-42
-3.6260861e-40
1.0103489e-40
-1.7565094e-38
4.2527492e-39
-8.0068158e-37
1.6465931e-37
-3.5839091e-35
5.9550381e-36
-1.5621272e-33
2.0247504e-34
-5.97987e-32
6.1583965e-33
-2.0570071e-30
1.5633882e-31
-7.0357094e-29
3.4004494e-30
-1.5578818e-27
6.1082199e-29
-1.3347771e-26
7.0148683e-28
-4.9280214e-26
4.8214823e-27
-1.3951823e-25
2.5074622e-26
-7.6015802e-25
1.7597122e-25
-2.0795455e-23
4.7910289e-24
-1.4071816e-21
2.8997843e-22
-5.8831712e-20
1.491901e-20
-6.9497862e-19
3.0620176e-19
-2.7845747e-18
2.1627835e-18
-7.457841e-18
7.4998997e-18
-3.0224767e-17
2.3134051e-17
-1.6008291e-16
1.1779861e-16
-2.3511689e-16
7.3153584e-16
-2.0174484e-14
2.7561608e-14
-1.1188759e-12
1.4787389e-12
-2.7783266e-11
3.8049708e-11
-9.5770455e-09
-7.4989378e-09
2.0289256e-08
-1.1425346e-07
8.8094587e-09
-6.5684699e-08
1.5219162e-10
-2.2492192e-09
8.4356402e-10
-2.8850867e-09
1.1735733e-08
-4.8593119e-08
1.3858856e-08
-4.7416393e-08
5.956368e-09
0
3.7354625e-09
-7.5088639e-09
2.9241372e-09
-4.8030493e-09
2.9562386e-09
-2.6936796e-09
3.11101e-09
-1.5409125e-09
3.1400644e-09
-1.4939235e-10
3.0475291e-09
1.2521477e-09
8.7306941e-09
2.8915845e-09
2.3948021e-07
4.7566787e-08
3.1399895e-07
2.624929e-07
1.5252393e-07
4.4892753e-07
8.3226792e-10
1.4731916e-07
1.7413634e-11
1.8478666e-09
2.6862031e-13
5.121507e-11
3.4461686e-15
1.2203306e-12
2.2010481e-16
2.5627342e-14
2.4771985e-17
7.0136933e-16
6.4943413e-19
2.6127103e-17
6.8827498e-21
5.6549949e-19
8.0073227e-23
8.2799123e-21
1.0193681e-24
1.1444628e-22
1.1935149e-26
1.5045568e-24
1.1964267e-28
1.81214e-26
1.0033982e-30
1.9623201e-28
7.1000999e-33
1.8585148e-30
4.1997553e-35
1.520783e-32
2.0199562e-37
1.0701203e-34
7.4564073e-40
6.4556464e-37
1.811247e-42
3.3234522e-39
5.9024428e-46
1.5067163e-41
-2.4339367e-47
6.1793184e-44
-1.7861238e-49
2.3737501e-46
-8.3616169e-52
8.1821022e-49
-3.2614322e-54
2.4698689e-51
-1.1454176e-56
6.8565257e-54
-3.5092573e-59
1.811141e-56
-9.3410475e-62
4.2267452e-59
-1.9354664e-64
8.4205489e-62
-2.9999211e-65
1.6666271e-64
-3.8733941e-65
4.3629711e-65
-7.1007859e-65
6.2321073e-65
-1.4396663e-64
8.3697165e-65
-1.8161082e-62
1.0833143e-63
-8.7765467e-60
-6.0270033e-61
-1.1188736e-57
-2.1211302e-58
-6.2459969e-56
-1.1395664e-56
-1.4071342e-55
-2.4633326e-67
4.4500635e-67
-4.0524227e-65
5.2619788e-65
-2.6949744e-64
8.1601353e-64
-3.4667897e-64
1.8274061e-63
-3.6609203e-64
1.8265597e-63
-2.4606689e-64
1.2882846e-63
-1.0258688e-64
6.5019588e-64
-5.0499268e-65
2.4961491e-64
-6.1164965e-64
7.1497715e-64
-1.2112042e-61
1.2270152e-61
-2.1582107e-59
1.9705646e-59
-3.2881178e-57
2.7539249e-57
-4.3173372e-55
3.3081267e-55
-4.9564444e-53
3.4770672e-53
-5.0368126e-51
3.2292867e-51
-4.5812078e-49
2.6770295e-49
-3.7620089e-47
1.9960349e-47
-2.808501e-45
1.3460776e-45
-1.9170777e-43
8.2447545e-44
-1.2024343e-41
4.6004775e-42
-6.9611318e-40
2.3437522e-40
-3.7355485e-38
1.0917965e-38
-1.8666142e-36
4.6544559e-37
-8.7149997e-35
1.8169612e-35
-3.7935571e-33
6.4969871e-34
-1.5576973e-31
2.1369604e-32
-6.8257637e-30
6.6397688e-31
-4.2212642e-28
2.0588183e-29
-2.9774864e-26
5.9523772e-28
-8.1357378e-25
8.9682358e-27
-5.777302e-24
5.79536e-26
-1.5285219e-23
4.555108e-25
-2.80413e-23
2.8768624e-24
-8.461775e-23
1.6739537e-23
-2.4574354e-21
4.4207187e-22
-2.0648158e-19
3.6913231e-20
-5.7280319e-18
1.7496532e-18
-3.6024084e-17
2.3153598e-17
-8.6610706e-17
9.8072004e-17
-1.8133012e-16
2.1568866e-16
-3.171534e-16
2.148596e-16
-4.4706699e-16
5.617772e-16
-3.4745021e-16
1.0915712e-15
-8.9392593e-15
4.7844464e-14
-6.7277342e-14
1.7556261e-12
0
6.8383572e-12
1.4450109e-08
-3.1852387e-08
1.1207325e-08
-7.2254703e-08
2.7761393e-10
-1.6726738e-09
1.9760203e-10
-1.8625167e-09
2.9067076e-09
-4.0851021e-09
1.611655e-08
-6.3541184e-08
1.9961808e-08
-7.6075819e-08
1.7915313e-08
-8.1463527e-09
1.3520131e-08
-6.4292314e-08
4.8061136e-09
-4.6162573e-09
1.8810951e-09
-8.9573288e-09
1.9771013e-09
-1.7111514e-09
2.1238466e-09
-3.3640148e-10
2.0036291e-09
1.318707e-09
2.2966154e-09
2.5442308e-09
3.9947864e-08
9.8866446e-09
2.4123808e-07
2.0041584e-07
4.9729237e-08
5.8221916e-07
1.5374668e-10
1.4552293e-07
0
1.9706308e-09
0
3.5884003e-11
2.0024286e-16
6.7483665e-13
2.2396061e-16
1.317175e-14
1.482017e-17
5.2862555e-16
5.2495068e-19
2.563632e-17
6.9636333e-21
6.4218807e-19
7.0996785e-23
9.5391035e-21
8.26638e-25
1.2956771e-22
9.2473125e-27
1.6706501e-24
9.1131791e-29
1.975743e-26
7.6732784e-31
2.1332316e-28
5.2049629e-33
2.0434447e-30
2.7261302e-35
1.6883935e-32
9.8362851e-38
1.1954349e-34
1.1654525e-40
7.245249e-37
-1.4243021e-42
3.7560647e-39
-1.5493742e-44
1.7704705e-41
-9.9087808e-47
8.2196913e-44
-5.3166355e-49
3.3856832e-46
-2.5020256e-51
1.3115447e-48
-1.0229525e-53
4.7749318e-51
-3.6712638e-56
1.5358958e-53
-1.1230168e-58
4.2999249e-56
-2.6637311e-61
9.6973825e-59
-9.1766461e-63
2.1580604e-61
-9.3504143e-63
1.4066577e-62
-1.3409174e-62
1.2212993e-62
-2.3109854e-62
1.7007303e-62
-1.9931597e-61
4.4624014e-62
-1.2487189e-58
-7.6601319e-61
-2.3875257e-56
-3.9012327e-57
-1.7366159e-54
-4.6488286e-55
-5.5812842e-53
-1.5854717e-53
-1.3901818e-52
-3.3404215e-65
7.4368717e-65
-5.6217949e-63
7.911272e-63
-3.8006209e-62
1.2504635e-61
-4.9045016e-62
2.8207135e-61
-5.2009276e-62
2.8173038e-61
-3.530089e-62
2.0007253e-61
-1.4681127e-62
1.0159373e-61
-7.0234246e-63
3.8601268e-62
-1.2529956e-61
1.3396594e-61
-2.0976045e-59
2.3071756e-59
-3.5479952e-57
3.5719114e-57
-5.692917e-55
5.1242408e-55
-7.9814516e-53
6.5746813e-53
-9.6387308e-51
7.2813693e-51
-1.0178736e-48
7.0256306e-49
-9.5382122e-47
5.9936547e-47
-8.015034e-45
4.5648543e-45
-6.0877918e-43
3.1242887e-43
-4.2060107e-41
1.9302961e-41
-2.657372e-39
1.0797938e-39
-1.5422875e-37
5.4777607e-38
-8.2508317e-36
2.5205426e-36
-4.0824715e-34
1.0504285e-34
-1.8805251e-32
3.9551739e-33
-8.1089484e-31
1.3403074e-31
-3.2835826e-29
4.0371092e-30
-1.3541025e-27
1.0491295e-28
-7.3234651e-26
2.0956529e-27
-4.6531056e-24
-2.2929921e-27
-1.2208921e-22
-3.3704623e-24
-8.7365239e-22
-1.0389327e-22
-2.0970241e-21
-1.218461e-21
-3.1255819e-21
-1.9927564e-21
-6.0788755e-21
4.9371242e-22
-1.266537e-19
1.5711886e-20
-8.5852745e-18
1.5949483e-18
-1.4337812e-16
6.3792385e-17
-6.7359803e-16
6.5677604e-16
-2.324908e-15
2.5385866e-15
-3.0665047e-15
3.1864415e-15
-1.6188234e-15
3.8950157e-15