/*--------------------------------*- C++ -*----------------------------------*\
  =========                 |
  \\      /  F ield         | OpenFOAM: The Open Source CFD Toolbox
   \\    /   O peration     | Website:  https://openfoam.org
    \\  /    A nd           | Version:  9
     \\/     M anipulation  |
\*---------------------------------------------------------------------------*/
FoamFile
{
    format      ascii;
    class       volScalarField;
    location    "0.77";
    object      p;
}
// * * * * * * * * * * * * * * * * * * * * * * * * * * * * * * * * * * * * * //

dimensions      [1 -1 -2 0 0 0 0];

internalField   nonuniform List<scalar> 
10000
(
0
-0.02338629
-0.057756361
-0.10240424
-0.15896386
-0.22737467
-0.30772301
-0.39994056
-0.50395403
-0.61965058
-0.74685451
-0.88539815
-1.0350159
-1.1954349
-1.3663338
-1.5473087
-1.7379446
-1.9377667
-2.146234
-2.3628033
-2.5869006
-2.8179004
-3.0551656
-3.2980367
-3.5458017
-3.7977108
-4.0529619
-4.3106585
-4.5698021
-4.8292858
-5.0878368
-5.3439686
-5.5959839
-5.8418766
-6.0785751
-6.3036153
-6.5143279
-6.7073893
-6.8789511
-7.0245907
-7.1391576
-7.2172104
-7.2554084
-7.2508069
-7.194241
-7.0804036
-6.9077187
-6.6816071
-6.4170511
-6.1387483
-5.8629618
-5.6644309
-5.5593665
-5.559041
-5.6230592
-5.700946
-5.7549282
-5.7610544
-5.6975573
-5.5261979
-5.2294349
-4.8202088
-4.3550272
-3.8692454
-3.3769453
-2.8889707
-2.4150729
-1.9602146
-1.5263166
-1.1138435
-0.72239997
-0.3511562
0.0008767658
0.33462325
0.65096263
0.95068245
1.2345116
1.5031661
1.7572972
1.9974954
2.2243158
2.4382261
2.6397093
2.8291385
3.0068049
3.172963
3.3278186
3.4715155
3.6041159
3.7255363
3.8357826
3.9349211
4.0231
4.1006154
4.1677913
4.2241235
4.271157
4.3074398
4.3343505
4.3519473
0.0032075569
-0.016213592
-0.049226908
-0.093389963
-0.14974247
-0.21809519
-0.29842163
-0.39065741
-0.49471626
-0.61044024
-0.73769934
-0.87626256
-1.025894
-1.1863227
-1.3571869
-1.5381207
-1.7287076
-1.9284534
-2.1368596
-2.3534
-2.5774908
-2.8085387
-3.0459423
-3.2890567
-3.5372107
-3.7897089
-4.0457886
-4.3046062
-4.5652488
-4.8266968
-5.0877629
-5.3470551
-5.6029303
-5.8533886
-6.095949
-6.3280153
-6.5466244
-6.7482879
-6.9289781
-7.0841642
-7.2089444
-7.2986326
-7.3511682
-7.3491665
-7.2926453
-7.1763751
-6.9979813
-6.7608042
-6.4786339
-6.1752934
-5.8800434
-5.6561635
-5.5518742
-5.5982308
-5.7212947
-5.8404355
-5.9084723
-5.929526
-5.9118343
-5.7654418
-5.455377
-5.0138897
-4.5205091
-4.0171714
-3.5098971
-3.0071634
-2.5192994
-2.0510485
-1.6043368
-1.1799581
-0.77775191
-0.3969716
-0.036642123
0.30424012
0.62666015
0.93155333
1.2198157
1.4922867
1.7497139
1.9927584
2.2220614
2.438155
2.6415177
2.8325728
3.0116526
3.1790077
3.3348472
3.4793473
3.612648
3.7347905
3.845849
3.9459233
4.0351429
4.1136872
4.1817778
4.2393117
4.286861
4.3239343
4.3512356
4.369287
0.024460725
0.0063393871
-0.02580241
-0.06946306
-0.12562504
-0.19391
-0.27427112
-0.36662272
-0.47082232
-0.58676125
-0.71425303
-0.85309437
-1.0030592
-1.1638347
-1.3350949
-1.5164753
-1.7075332
-1.9078102
-2.1168247
-2.3340301
-2.5588611
-2.7907514
-3.0291012
-3.2732933
-3.5227068
-3.776687
-4.0345244
-4.2954705
-4.5587161
-4.8233384
-5.0882681
-5.3522538
-5.6137839
-5.8710046
-6.1216647
-6.3631557
-6.5924394
-6.8059341
-6.9994904
-7.1684375
-7.3076921
-7.4118772
-7.4752918
-7.4886976
-7.4452662
-7.3366049
-7.1580709
-6.9104689
-6.611077
-6.2855038
-5.9582418
-5.68832
-5.583336
-5.7213086
-5.9354139
-6.1234417
-6.2294998
-6.22279
-6.2835896
-6.1715753
-5.7816084
-5.2317632
-4.6818377
-4.1557948
-3.6239874
-3.0980816
-2.5921413
-2.1088316
-1.6492226
-1.2139697
-0.80261082
-0.41408605
-0.047199652
0.29922525
0.62633568
0.9351917
1.2267983
1.5020878
1.7618853
2.0069359
2.237913
2.4554186
2.6599636
2.8519852
3.0318462
3.1998349
3.3562009
3.5011475
3.6348548
3.7574429
3.8690221
3.9696925
4.0595621
4.1387813
4.2074555
4.2656735
4.3136911
4.3513237
4.3789868
4.3975299
0.057779518
0.04001826
0.00833929
-0.035034115
-0.091072711
-0.15937878
-0.23988564
-0.33244276
-0.4369558
-0.55327034
-0.68121467
-0.82060729
-0.97118136
-1.1326451
-1.3046822
-1.4869023
-1.6788858
-1.8801937
-2.0903211
-2.3087281
-2.5348721
-2.7681865
-3.0080861
-3.2539911
-3.5053152
-3.7614436
-4.0217512
-4.2855992
-4.5522936
-4.8210527
-5.0909928
-5.3610707
-5.629985
-5.8961001
-6.1573851
-6.411345
-6.6549296
-6.8844805
-7.0957028
-7.2836946
-7.4430289
-7.5676851
-7.6507971
-7.6840701
-7.6610737
-7.5684402
-7.3966501
-7.1406188
-6.8277166
-6.5050249
-6.1595059
-5.7860131
-5.6708984
-5.995587
-6.1564466
-6.3980361
-6.8221832
-6.7845066
-6.9794827
-6.7863906
-6.2730291
-5.5792409
-4.9218715
-4.3386614
-3.7631414
-3.2050767
-2.6728467
-2.1667472
-1.6883697
-1.2382212
-0.8151554
-0.41752324
-0.04357755
0.30834609
0.63976395
0.95203298
1.2463779
1.5238999
1.785539
2.0321129
2.2643684
2.4829577
2.6884208
2.8812177
3.0617421
3.2303004
3.3871797
3.5325996
3.6667221
3.7897491
3.9017955
4.0030566
4.093443
4.1732081
4.2424197
4.3011344
4.3495004
4.3874356
4.4152236
4.4338556
0.10356641
0.085919849
0.054388806
0.011158632
-0.044871125
-0.11329607
-0.19400597
-0.28689632
-0.39183467
-0.50867948
-0.63728632
-0.77743462
-0.92887271
-1.0913259
-1.26445
-1.4478684
-1.641184
-1.8439357
-2.0556152
-2.2757037
-2.5036575
-2.7389077
-2.980892
-3.2290567
-3.4828426
-3.7417017
-4.0051102
-4.2725448
-4.5434617
-4.8172899
-5.0933975
-5.3710154
-5.6491286
-5.9263912
-6.2010353
-6.470737
-6.7324983
-6.9826056
-7.2166099
-7.4293636
-7.6151401
-7.7676245
-7.879672
-7.9431884
-7.9496687
-7.8932952
-7.7485972
-7.4882714
-7.1405465
-6.8415401
-6.655633
-6.2036449
-5.8710652
-5.4298456
-5.7008039
-6.2693363
-8.0940891
-7.8914193
-7.6826107
-5.5566196
-5.6088372
-5.8064094
-5.1436794
-4.5372658
-3.9300273
-3.3426189
-2.7760887
-2.2377725
-1.7335067
-1.263636
-0.82556483
-0.41649503
-0.0338627
0.32467055
0.66115934
0.97737435
1.2748343
1.5548402
1.8185092
2.0667707
2.300442
2.5202295
2.7267101
2.9203691
3.1016398
3.2708745
3.4283676
3.5743623
3.7089059
3.8324803
3.9450895
4.0468429
4.1378086
4.2181339
4.287884
4.3471328
4.3959395
4.4342589
4.4622991
4.4811698
0.16189546
0.14424127
0.11273061
0.069502536
0.013359167
-0.055253888
-0.13629073
-0.22961964
-0.3351205
-0.45268698
-0.58214291
-0.7232765
-0.87585941
-1.0395963
-1.2141502
-1.3991663
-1.5942301
-1.7988695
-2.0125932
-2.2348821
-2.465179
-2.7029203
-2.9475519
-3.1985261
-3.4553193
-3.7174559
-3.9845014
-4.256054
-4.5317649
-4.8113302
-5.0944243
-5.3806277
-5.6693301
-5.959593
-6.2500064
-6.538514
-6.8222616
-7.0975184
-7.3596501
-7.6032022
-7.8221688
-8.0102229
-8.1605631
-8.2659535
-8.3221175
-8.329084
-8.2510156
-7.9823787
-7.468167
-6.7891336
-6.2608779
-6.0259107
-6.2590875
-6.935722
-7.7688266
-9.4000287
-10.373574
-11.2319
-11.12691
-8.7128312
-7.9206341
-6.9898335
-5.6461518
-4.8376022
-4.1342634
-3.5082233
-2.8948656
-2.314811
-1.7779402
-1.2837872
-0.8279467
-0.40583303
-0.013571119
0.35211592
0.69396389
1.0142411
1.3148334
1.5972952
1.8629142
2.1127543
2.3477262
2.5685907
2.77598
2.9704161
3.1523498
3.3221843
3.4802627
3.6269454
3.7615241
3.8857649
3.9989142
4.1011707
4.192658
4.2734961
4.3437546
4.4034746
4.4527031
4.491392
4.5196732
4.5386367
0.23260025
0.21492416
0.18333415
0.13999846
0.083670708
0.014748719
-0.066709164
-0.16059279
-0.266824
-0.385271
-0.51576715
-0.6581308
-0.81211871
-0.97744126
-1.1537868
-1.340787
-1.538012
-1.7450042
-1.9612726
-2.1862768
-2.4194495
-2.6602212
-2.9080233
-3.1623092
-3.4225864
-3.6884289
-3.9594815
-4.2354866
-4.5163246
-4.801998
-5.092555
-5.3880358
-5.6883683
-5.9931776
-6.3015712
-6.611923
-6.9216316
-7.2269614
-7.5230025
-7.8038378
-8.0630387
-8.2943499
-8.4915545
-8.6489673
-8.7746009
-8.8988958
-8.9599256
-8.6566126
-7.8728905
-7.3079727
-7.6231878
-8.0510629
-8.5734892
-9.1634154
-10.547208
-12.489559
-14.196645
-15.48154
-15.864786
-14.88043
-13.60484
-9.1135458
-7.0273667
-5.4480572
-4.5109472
-3.7205224
-3.0282
-2.395631
-1.8181061
-1.2943665
-0.81804628
-0.38171465
0.020575213
0.39339186
0.74035512
1.0643585
1.3677051
1.6522406
1.9194541
2.17055
2.4065401
2.6282425
2.8363227
3.0313217
3.2137817
3.3840915
3.5425713
3.6895568
3.8250514
3.9495939
4.063158
4.1658782
4.2578972
4.339243
4.4099639
4.4701298
4.519758
4.5587671
4.5873087
4.6063045
0.31566315
0.29793619
0.26619944
0.22271498
0.16610583
0.096804032
0.014835807
-0.079737811
-0.1868218
-0.3062979
-0.43803459
-0.58184378
-0.73748962
-0.90471287
-1.0831972
-1.2725586
-1.4723798
-1.6822067
-1.9015233
-2.1297685
-2.3663581
-2.61069
-2.8621673
-3.1202382
-3.3844127
-3.6542805
-3.9295584
-4.2101427
-4.4961491
-4.7879255
-5.0859582
-5.3908945
-5.7033696
-6.0237763
-6.3519954
-6.687049
-7.0267536
-7.367432
-7.7037412
-8.028865
-8.3353917
-8.6166465
-8.8667513
-9.0837228
-9.2964994
-9.5842655
-9.862293
-9.4573326
-8.2116194
-9.0372869
-8.705612
-9.0809039
-10.07331
-11.391271
-13.544733
-16.270187
-18.91572
-20.819452
-21.232887
-19.85311
-16.952207
-13.353385
-8.8760221
-6.0882811
-5.1658296
-4.0628401
-3.1986213
-2.4801688
-1.8511386
-1.2924776
-0.7934179
-0.34231497
0.069837143
0.44931612
0.80081619
1.1279473
1.4334822
1.7195941
1.9879724
2.2399595
2.4766444
2.6989112
2.9074958
3.1028709
3.2857562
3.4564128
3.6153316
3.7627089
3.8987209
4.0236633
4.1376877
4.2408832
4.3333793
4.4152594
4.4865091
4.5471426
4.5971869
4.6365652
4.6654302
4.6844364
0.41111829
0.39331839
0.36142659
0.31772722
0.26079811
0.19105741
0.10847573
0.013124743
-0.094919474
-0.21557989
-0.34872742
-0.4941862
-0.65175702
-0.82118453
-1.0021428
-1.1942645
-1.3971413
-1.610296
-1.8331862
-2.0652267
-2.3057917
-2.5542292
-2.8099057
-3.0722332
-3.34068
-3.6148198
-3.8944151
-4.1794753
-4.470335
-4.7677785
-5.0727445
-5.3866726
-5.711083
-6.0474146
-6.396711
-6.7590032
-7.1328181
-7.5146786
-7.8985753
-8.2760062
-8.6372172
-8.9736608
-9.2782938
-9.5510429
-9.8320742
-10.20685
-10.666804
-8.6599901
-9.1508464
-9.7792607
-9.8721744
-10.532158
-12.010322
-13.912845
-16.795994
-20.310317
-23.846161
-26.551636
-27.142681
-25.197913
-21.141177
-16.205155
-11.03724
-6.5199482
-6.0437898
-4.4358581
-3.3616894
-2.551683
-1.8659702
-1.2706147
-0.74913522
-0.28424799
0.13654047
0.52144746
0.87637077
1.2056718
1.5125862
1.7996006
2.0685959
2.3210291
2.5580784
2.7806285
2.9895585
3.1848893
3.3681664
3.5391798
3.6983947
3.8460925
3.9825486
4.1079013
4.2223576
4.3260656
4.419089
4.501496
4.5732967
4.6344791
4.6849842
4.7248358
4.754026
4.773189
0.5190131
0.50116119
0.46906756
0.425152
0.36787273
0.29762495
0.21438095
0.11818495
0.0090673277
-0.1129013
-0.24761198
-0.39493345
-0.55468122
-0.72659873
-0.91038288
-1.1056858
-1.312085
-1.5290782
-1.7560999
-1.9925217
-2.2376583
-2.4908005
-2.7512507
-3.0183341
-3.2914307
-3.5700566
-3.8539484
-4.143132
-4.4380818
-4.7403974
-5.0511003
-5.3727412
-5.7078726
-6.0593583
-6.4301601
-6.8218069
-7.23389
-7.6634256
-8.1037041
-8.5436757
-8.9685504
-9.3659175
-9.7243871
-10.034643
-10.322417
-10.621786
-10.626801
-9.6480202
-10.724389
-10.715637
-11.008376
-11.68977
-13.366751
-16.057884
-19.45509
-23.517366
-27.745953
-31.250646
-32.136285
-29.890171
-24.978828
-18.828251
-13.186438
-7.3553563
-6.2507681
-4.6766686
-3.4795817
-2.5854916
-1.8451131
-1.2178166
-0.67792596
-0.20259822
0.22401248
0.6120518
0.96856168
1.2985624
1.6056989
1.8927225
2.161637
2.4138973
2.6509084
2.8732583
3.0821059
3.2777708
3.4610296
3.6321837
3.7916276
3.9395652
4.0763486
4.2021207
4.3170525
4.4212828
4.514888
4.5978812
4.6702706
4.7320659
4.7831567
4.823541
4.8531597
4.8726875
0.6394321
0.62150598
0.58923521
0.54510535
0.4874378
0.4166716
0.33273662
0.23562726
0.12536097
0.0019827212
-0.1344489
-0.28382693
-0.44597663
-0.62067631
-0.80765468
-1.0065616
-1.2169598
-1.4383328
-1.67008
-1.9115153
-2.1618915
-2.4204237
-2.6863019
-2.9587158
-3.2369097
-3.5202617
-3.8083775
-4.1011458
-4.3985998
-4.7049721
-5.0197722
-5.3465589
-5.6896348
-6.0540177
-6.4452913
-6.867247
-7.3211512
-7.8059973
-8.3148746
-8.8331511
-9.3345819
-9.8024382
-10.221122
-10.562513
-10.810339
-10.990871
-10.194456
-11.084443
-11.187931
-11.176264
-11.614087
-12.585784
-14.573901
-17.497607
-19.762501
-24.780848
-29.832831
-33.890991
-34.992468
-32.656608
-27.346253
-20.673566
-14.170181
-7.0682394
-6.9131603
-4.8728017
-3.5153733
-2.5459941
-1.7673197
-1.1206333
-0.57149404
-0.092246463
0.33543145
0.72312079
1.0786415
1.4074326
1.7132681
1.9992059
2.2673089
2.5184922
2.7549396
2.9770014
3.1854855
3.3809856
3.5640935
3.7352011
3.8947248
4.0428939
4.1799744
4.3061531
4.4215787
4.526347
4.6205605
4.7042301
4.7773218
4.8397865
4.8916285
4.9326551
4.9628482
4.9830298
0.7724339
0.75448176
0.72204341
0.67769579
0.61966319
0.54838306
0.46372928
0.36568001
0.25421782
0.12932956
-0.0089559518
-0.16055078
-0.32532587
-0.50310708
-0.69363899
-0.89657197
-1.1114694
-1.3377972
-1.5749117
-1.8220718
-2.0784576
-2.3431741
-2.6152583
-2.8937205
-3.1775988
-3.4660377
-3.758437
-4.0547021
-4.3559586
-4.6609416
-4.9753936
-5.3033653
-5.6512487
-6.0262412
-6.4339112
-6.8862082
-7.385112
-7.9345755
-8.5256266
-9.1461814
-9.7446792
-10.30178
-10.799931
-11.181497
-11.372968
-11.351277
-11.272541
-11.235096
-11.511471
-11.244463
-11.706472
-12.710423
-14.733016
-17.306102
-18.824546
-23.280739
-29.89725
-34.223743
-35.348771
-33.085447
-27.828143
-21.184999
-13.519884
-7.8647689
-6.7609204
-4.6975283
-3.320824
-2.3850303
-1.6086276
-0.96639641
-0.4228867
0.050793916
0.47311515
0.85600919
1.2074032
1.5327867
1.8353817
2.1188613
2.3851827
2.6352297
2.8703867
3.0915032
3.2992716
3.4942866
3.6770643
3.8480326
4.0074984
4.1558018
4.2931199
4.4196754
4.5356265
4.6410378
4.7359368
4.820349
4.8942654
4.957587
5.0102939
5.0521031
5.0830241
5.1042112
0.91814103
0.9001912
0.86759239
0.82308399
0.76471935
0.69293493
0.60758297
0.50859756
0.39589731
0.26943228
0.12920481
-0.024753322
-0.19237416
-0.37351701
-0.56794748
-0.77533816
-0.995258
-1.2271533
-1.4703474
-1.7240468
-1.9873362
-2.2591778
-2.5384273
-2.8238649
-3.1142281
-3.4083001
-3.7050639
-4.003624
-4.3043946
-4.6080719
-4.9185789
-5.2419172
-5.5871389
-5.9657273
-6.3905573
-6.8676862
-7.4087185
-8.0329537
-8.7181286
-9.4951877
-10.223494
-10.888194
-11.498886
-11.97524
-12.184688
-12.032854
-11.85357
-11.789277
-12.145155
-10.954607
-11.550531
-12.235748
-14.090304
-16.606562
-18.779193
-23.154043
-28.836133
-32.7462
-33.660314
-31.405839
-26.445544
-20.295712
-11.700641
-7.5098574
-5.9641441
-4.1828492
-2.9704367
-2.0800833
-1.3557742
-0.74882149
-0.22848393
0.22850806
0.63817211
1.0110991
1.3547528
1.6741673
1.9725236
2.2523885
2.5156494
2.7634398
2.996792
3.2165027
3.4231917
3.6174302
3.7996096
3.9702467
4.1295628
4.2779314
4.4154999
4.5424571
4.6589282
4.7650067
4.8607173
4.9460172
5.0208959
5.0852355
5.1389898
5.1817723
5.2136221
5.2361788
1.0766324
1.058717
1.0260211
0.98140806
0.92275266
0.85052914
0.76453273
0.66462731
0.55069048
0.42263694
0.2804051
0.12395502
-0.046696587
-0.2314513
-0.43012038
-0.64240874
-0.86789519
-1.1060228
-1.3560949
-1.6172592
-1.8884917
-2.1685963
-2.4562183
-2.7498539
-3.0478583
-3.3485536
-3.650539
-3.9511631
-4.2508071
-4.5495011
-4.8504787
-5.1611406
-5.4935908
-5.864395
-6.2934795
-6.7967403
-7.369415
-8.1005375
-8.879102
-9.9096665
-10.792371
-11.583207
-12.328284
-12.982105
-13.141668
-13.285462
-12.569671
-12.559491
-11.91076
-5.90655
-9.7142042
-11.130769
-12.259504
-15.829094
-17.996864
-21.578771
-27.192414
-29.776202
-30.24578
-27.996283
-23.337561
-17.88456
-10.10727
-6.4426056
-5.1952721
-3.5658596
-2.5038445
-1.7000857
-1.0402759
-0.48069845
0.0052843531
0.43717324
0.82822587
1.1871586
1.5202096
1.8314756
2.1236251
2.398668
2.6580576
2.9028068
3.1337742
3.3516134
3.556843
3.7500096
3.9314138
4.1015372
4.2606043
4.4089327
4.5466894
4.6740569
4.7911368
4.8979376
4.9945601
5.0809102
5.1569216
5.2224949
5.2775084
5.3214471
5.3544894
5.3787844
1.2479656
1.2301685
1.1974255
1.1527766
1.0939327
1.0213669
0.93479625
0.83404013
0.71893383
0.58931852
0.44505191
0.2860309
0.11220971
-0.076382978
-0.2796182
-0.49724208
-0.72886555
-0.97395189
-1.2317899
-1.5014668
-1.7818543
-2.0715963
-2.3691047
-2.6725522
-2.9798321
-3.2885489
-3.5958939
-3.9007768
-4.1991946
-4.4898438
-4.7748542
-5.0625655
-5.3685211
-5.7155899
-6.1359691
-6.6420142
-7.2957396
-8.1449494
-8.957753
-10.280563
-11.483177
-12.369759
-13.221162
-14.149282
-14.728913
-14.812076
-13.48281
-12.845361
-8.3898089
-2.3658117
-7.0042705
-9.3323831
-10.562697
-13.603491
-16.13573
-19.678168
-24.047694
-25.913684
-25.901207
-23.542969
-19.244646
-13.561058
-8.360739
-6.2114064
-4.2273071
-2.8881653
-1.9701708
-1.2613358
-0.67490027
-0.17135886
0.27252733
0.67308353
1.0408288
1.3823982
1.7023485
2.0036187
2.2880503
2.5571398
2.8118183
3.0528324
3.280853
3.4963619
3.699803
3.891578
4.0720058
4.2414248
4.4001041
4.5483206
4.6862454
4.8140031
4.9317395
5.0393946
5.137049
5.2246555
5.3019822
5.3690358
5.4255826
5.4709157
5.5054116
5.5318053
1.4322087
1.414595
1.3818725
1.3373226
1.2784164
1.2056249
1.1186108
1.0171436
0.9009798
0.76987475
0.62360913
0.46200069
0.2849137
0.092291793
-0.11580807
-0.3392011
-0.57756099
-0.83038782
-1.0969684
-1.3763472
-1.6673032
-1.9683208
-2.2775801
-2.5929485
-2.911895
-3.2314277
-3.5481035
-3.858367
-4.1566652
-4.4375356
-4.6996008
-4.9518634
-5.2147462
-5.5153093
-5.8939911
-6.3917008
-6.9643337
-7.889148
-8.9456972
-10.730129
-12.541197
-13.398253
-14.174922
-15.381793
-16.18386
-15.905914
-14.367957
-12.950993
-10.482717
-1.3960661
-5.0431527
-7.7070549
-9.1068818
-11.509311
-14.365691
-17.164784
-20.32551
-22.916357
-21.034154
-19.446804
-14.360823
-9.5766054
-7.0260147
-4.7207346
-3.1638713
-2.1106987
-1.3661234
-0.77066184
-0.26988426
0.16977275
0.5660093
0.93110547
1.2724499
1.5943268
1.8993651
2.1892083
2.46482
2.7270012
2.9762357
3.2129258
3.4374891
3.6502327
3.851523
4.0415971
4.2207973
4.3893577
4.5475362
4.6955364
4.8335822
4.9617625
5.080179
5.188822
5.2876645
5.376704
5.4556305
5.5244333
5.582806
5.6298337
5.6661159
5.6950044
1.6294086
1.6120394
1.5794546
1.5351416
1.4763266
1.4034939
1.3162393
1.2142511
1.0971961
0.96474825
0.81659425
0.65244345
0.4720545
0.27527095
0.06204554
-0.16754232
-0.41325476
-0.6746515
-0.95104764
-1.2414731
-1.5446289
-1.858843
-2.1820819
-2.5119575
-2.8455435
-3.1792347
-3.5091655
-3.8300242
-4.1327372
-4.4045525
-4.6361121
-4.8360769
-5.0351424
-5.2736911
-5.5789594
-6.0397856
-6.6823557
-6.9534504
-8.4626905
-11.025858
-12.71475
-12.583124
-14.835035
-16.067723
-16.748053
-16.211085
-14.444261
-12.188126
-10.129425
-0.44815569
-5.592395
-7.185358
-8.4766578
-10.562361
-13.111984
-15.096159
-17.178147
-17.717301
-16.06049
-12.840363
-9.258059
-7.7864833
-5.0389493
-3.233973
-2.0737664
-1.2956249
-0.72432948
-0.25186499
0.15775089
0.52998396
0.87643925
1.2046748
1.5185272
1.8197231
2.1089797
2.3866077
2.6527054
2.9073235
3.1505312
3.3823893
3.6030371
3.8126383
4.0113955
4.1994992
4.377195
4.5446722
4.7022038
4.8499326
4.9880515
5.1166712
5.2358231
5.3455614
5.4459174
5.5365167
5.6173148
5.6881957
5.748705
5.7977397
5.8362336
5.8680805
1.8398266
1.8225393
1.7901848
1.7462933
1.6877983
1.6151788
1.5279359
1.4256768
1.3079816
1.174422
1.024565
0.85799875
0.67435899
0.47335476
0.25479359
0.018615486
-0.23506414
-0.50590758
-0.79329925
-1.0962841
-1.4135058
-1.7431473
-2.0829684
-2.4304119
-2.7823364
-3.134594
-3.4835346
-3.823584
-4.1418217
-4.412848
-4.6069779
-4.7305715
-4.8357709
-4.9692114
-5.2118421
-5.552967
-6.1416229
-6.854022
-3.8470347
-6.4437514
-9.6091679
-11.340103
-11.964137
-12.427792
-17.283468
-16.43523
-14.19184
-11.192629
-9.0377787
-3.9997252
-6.280638
-7.3859935
-8.7078658
-10.888684
-13.502022
-15.687843
-16.115453
-15.469202
-12.722604
-10.695442
-8.3084847
-5.3494987
-3.2486451
-1.8933624
-1.0517365
-0.50503273
-0.089287582
0.26406675
0.58641749
0.89397579
1.1930706
1.4863183
1.7738939
2.0550089
2.3286889
2.5940186
2.8503243
3.0970413
3.3338114
3.5604204
3.776747
3.9828456
4.1787211
4.3645395
4.540465
4.7066792
4.8633692
5.0107215
5.1488726
5.2779143
5.3978631
5.5087189
5.6107637
5.7033131
5.7863116
5.8596616
5.9226896
5.9740829
6.0152587
6.0506233
2.0619262
2.0457226
2.0139875
1.9708357
1.9129655
1.8408595
1.7539435
1.6517491
1.533751
1.3993973
1.2481249
1.0793835
0.8926496
0.68745668
0.46343064
0.22032737
-0.04191869
-0.32313212
-0.62281547
-0.94006683
-1.2735058
-1.6211658
-1.9805199
-2.3488531
-2.7228826
-3.0982613
-3.4726819
-3.8450397
-4.201867
-4.5008733
-4.6585545
-4.6808849
-4.6413069
-4.6538782
-4.7724616
-4.9304269
-5.3993982
-6.4093087
-7.546672
-7.0200062
-10.258858
-13.201467
-14.534599
-17.782877
-18.880183
-17.199818
-14.170932
-10.270759
-7.5842171
-6.4594557
-5.6343919
-7.7483997
-9.5050768
-12.307023
-15.308594
-17.505206
-18.102211
-16.849227
-14.233592
-10.131278
-6.4084496
-3.5902316
-1.8024828
-0.72871361
-0.12611977
0.22930894
0.50312903
0.74942336
0.99459688
1.2463815
1.5052397
1.7687028
2.0335271
2.2967406
2.556058
2.8096812
3.056324
3.2950336
3.525121
3.7461393
3.9578038
4.1599927
4.352667
4.5358852
4.7097471
4.8744627
5.0301307
5.176966
5.3150964
5.4445906
5.5654301
5.6772622
5.7814748
5.8762653
5.9618111
6.038047
6.1040268
6.1582128
6.2026284
6.2421477
2.2959737
2.2816995
2.2509232
2.2088525
2.1519293
2.0806904
1.994496
1.8927861
1.7749127
1.640197
1.4879304
1.3173872
1.1278456
0.9186269
0.68912741
0.4388528
0.16747997
-0.1250567
-0.43846035
-0.77195815
-1.1241999
-1.4931072
-1.8757432
-2.2688125
-2.6685211
-3.0693414
-3.472206
-3.8898854
-4.3194413
-4.7059397
-4.8269943
-4.7129038
-4.4813143
-4.3511155
-4.2221273
-4.110873
-4.3412306
-5.0582458
-5.6498998
-7.8831737
-12.457173
-15.574427
-18.872969
-20.082306
-21.468359
-18.987785
-14.371036
-9.5853629
-6.5754076
-5.6617178
-5.72332
-8.8487415
-11.388083
-14.897375
-18.693131
-21.054508
-20.810748
-18.189976
-13.90048
-8.7716664
-4.577108
-1.9186353
-0.41704615
0.34846132
0.70642119
0.87827408
1.0220142
1.1773371
1.361783
1.5730348
1.8035585
2.0456714
2.2932972
2.5420621
2.7889716
3.0318994
3.269319
3.5000967
3.7233749
3.9385298
4.1452262
4.3431639
4.5322699
4.7125205
4.8840425
5.0469737
5.2014388
5.3476179
5.4856302
5.6156185
5.7377057
5.8522093
5.9573014
6.0543339
6.1427913
6.2223786
6.2917889
6.3492522
6.3976004
6.442028
2.5437232
2.5305325
2.5010954
2.4603944
2.4047521
2.3347919
2.2497829
2.1490656
2.0318677
1.897365
1.7446738
1.5728599
1.3809719
1.1680713
0.93325584
0.67570027
0.39473102
0.089920628
-0.2387883
-0.59089415
-0.96515315
-1.3594714
-1.7704562
-2.1935237
-2.6227594
-3.0480844
-3.4764747
-3.9640268
-4.515358
-5.0986409
-5.1626829
-4.8323132
-4.3947897
-4.0382447
-3.5239469
-3.1505243
-3.2458873
-4.1581378
-6.3883056
-9.629515
-14.075416
-18.126187
-20.423242
-24.944309
-28.655109
-25.298482
-18.104506
-10.941147
-7.4120151
-6.1311455
-6.8633974
-10.069997
-13.056495
-19.058269
-25.267665
-27.935793
-26.036741
-21.235008
-15.115023
-8.20349
-2.896417
-0.22801662
0.94815006
1.3422952
1.4221935
1.4139391
1.429824
1.5176034
1.6680987
1.8620031
2.0810928
2.3131006
2.550536
2.7889991
3.0258232
3.2592521
3.487987
3.71098
3.9273743
4.1364878
4.3378782
4.5312336
4.7164183
4.8933541
5.0622148
5.2230433
5.3760246
5.5213531
5.6591262
5.7894983
5.9125244
6.0282928
6.1361112
6.2360225
6.3279201
6.4114402
6.4848464
6.5461384
6.5992377
6.6494682
2.8047217
2.7924506
2.7648738
2.7254638
2.6714122
2.6031944
2.5199181
2.4208209
2.3049946
2.1714366
2.0190627
1.8467112
1.653163
1.437158
1.1974197
0.93269814
0.64183876
0.32386714
-0.021890587
-0.39549421
-0.7960465
-1.2221087
-1.6708198
-2.1349762
-2.6029271
-3.0600722
-3.5266898
-4.1523754
-5.0718761
-5.8338381
-5.7725402
-5.1466934
-4.4153954
-3.7396556
-2.7651207
-1.9408687
-1.5626995
-2.675368
-6.1743934
-10.871482
-20.04209
-22.914708
-27.788823
-37.724661
-38.200142
-36.199752
-24.923023
-15.67037
-11.071573
-10.850759
-11.024534
-12.811037
-15.738849
-25.127661
-36.775267
-41.103763
-38.472112
-29.559254
-20.557354
-9.972633
-1.7672598
1.4090233
2.2061676
2.1462312
1.9246731
1.7313473
1.6619739
1.7349937
1.896048
2.1060281
2.3352776
2.5701095
2.8046852
3.0367826
3.2655611
3.4905169
3.7110331
3.9263978
4.1358389
4.3387251
4.5345409
4.7229639
4.9038136
5.0770625
5.2428455
5.4012451
5.5524542
5.6966989
5.8340821
5.9647511
6.0887153
6.2062129
6.3166486
6.4198218
6.5156629
6.6037364
6.6817745
6.7475721
6.8064255
6.8634948
3.078823
3.0675241
3.0416058
3.0035559
2.9516932
2.8858013
2.8049297
2.7082215
2.594612
2.462908
2.3118117
2.1399062
1.9456576
1.7274303
1.4835019
1.2120788
0.91134711
0.57954064
0.21496953
-0.18354438
-0.61589332
-1.0826826
-1.5853817
-2.1158778
-2.6571093
-3.1720746
-3.6476528
-4.465771
-6.2161998
-7.6060753
-7.2701571
-5.9270947
-4.7901292
-3.7340482
-2.3430352
-0.55352274
0.49221688
-1.9990219
-10.98189
-18.098683
-28.531268
-28.359328
-37.637635
-53.698239
-66.604928
-52.017044
-33.552504
-18.124351
-14.312483
-14.686146
-12.510111
-14.696497
-19.929856
-37.79604
-59.446283
-71.484275
-63.193139
-44.036097
-27.546772
-14.342626
-0.99129832
3.0632486
3.2363342
2.5565902
2.0448418
1.7200999
1.6488132
1.7925824
2.0356972
2.3082683
2.5709212
2.8202649
3.0574832
3.2855862
3.507425
3.7244407
3.9369871
4.1447818
4.3472344
4.5437159
4.7337079
4.9168514
5.0929468
5.2620828
5.4243587
5.5799391
5.7290338
5.8718983
6.0087053
6.1396076
6.264693
6.383943
6.4970803
6.6038394
6.7041654
6.7974519
6.8808051
6.9518992
7.0177132
7.0828411
3.3653596
3.3548277
3.3307561
3.2945986
3.2453448
3.1824126
3.1047366
3.0113266
2.900949
2.772225
2.6236254
2.4534433
2.2597956
2.0406315
1.7937066
1.5165508
1.2064933
0.86068905
0.47588944
0.048974108
-0.42137688
-0.94262293
-1.5356104
-2.1891805
-2.856962
-3.531938
-4.2243354
-5.0528697
-7.7275602
-9.8714091
-9.3828101
-7.4464649
-5.9500831
-4.720277
-2.585268
0.44221726
0.57002466
-1.4736131
-9.4116522
-23.683133
-44.963242
-17.721677
-29.762532
-57.996795
-74.278948
-57.924031
-37.452209
-17.370855
153.05715
332.34574
187.98398
3.7964134
-23.662558
-56.46868
-75.642601
-74.322073
-73.975816
-43.587417
-7.3682211
-6.9533137
6.7541035
4.4148335
2.4526901
1.8471556
1.5333777
1.2323354
1.3031904
1.6785617
2.1032361
2.493823
2.8033325
3.0709746
3.3118362
3.5358416
3.7503876
3.9592504
4.1638304
4.3641452
4.5596387
4.7496337
4.9335699
5.1111007
5.2820818
5.4466168
5.6048943
5.7571892
5.9037785
6.0449194
6.1808836
6.311862
6.4380929
6.55911
6.6750924
6.7857722
6.8911527
6.9903625
7.0797667
7.1570273
7.231225
7.3058431
3.663546
3.6536734
3.6316364
3.5979618
3.5519131
3.4926334
3.4190894
3.3300519
3.2241294
3.0997612
2.9551635
2.7883248
2.5970049
2.3786951
2.1305528
1.8493299
1.5313385
1.1723645
0.76708757
0.30962467
-0.20487518
-0.79719785
-1.5182074
-2.3543516
-3.2573121
-4.5591291
-4.2413764
-2.6845132
-8.285912
-11.010712
-11.115513
-9.756193
-8.8397428
-8.0645596
-5.182639
0.68637966
2.3014206
3.8928005
2.1683649
-10.355125
-18.531631
0.709876
53.729368
107.1245
210.01067
649.45975
2988.4508
5564.6656
6184.5535
6150.5932
5691.8517
5172.0737
3503.7722
1279.0066
3.2776729
-99.79529
-1.4897468
18.395051
62.518315
32.62796
19.675827
1.0963579
-5.359828
-1.4936811
0.28279961
0.10894609
0.64301408
1.4802122
2.1756319
2.6774328
3.0449802
3.331379
3.5710268
3.7869965
3.9920705
4.1920204
4.3886371
4.581815
4.7706617
4.9543076
5.1321055
5.3036995
5.4691179
5.6285299
5.7822668
5.9307416
6.0743398
6.2133708
6.3481457
6.4788698
6.6058267
6.7289017
6.8479457
6.9628553
7.0738365
7.1797094
7.275957
7.3603559
7.4445986
7.530369
3.9723165
3.9631117
3.9434057
3.9128111
3.8706558
3.8159825
3.7475462
3.6641409
3.5641322
3.4457637
3.3069959
3.1455228
2.9587428
2.7436557
2.4967873
2.2140824
1.8907591
1.5210643
1.0974601
0.6107886
0.050798132
-0.61474765
-1.4588242
-2.4635579
-3.4963612
-4.7183752
-0.96558652
3.248984
-4.5987048
-10.131558
-11.982261
-12.678441
-13.538321
-14.666777
-14.297641
-4.1813686
4.4924896
10.576308
12.861094
11.938883
-0.96506117
357.93386
1189.7966
2292.0493
4772.2193
5588.9739
5864.9496
6319.3713
6374.3353
6239.0544
6079.9668
5971.1268
5725.1607
5118.2353
3826.5475
1470.2847
-22.42882
210.92951
47.54097
18.53792
11.736607
-11.795307
-11.405846
-0.66854476
-0.51463979
-1.9435823
-0.47869694
1.3406324
2.3658354
2.9519864
3.3362818
3.6133824
3.8356118
4.0351137
4.2273426
4.4178285
4.6072371
4.7943331
4.9774116
5.1551808
5.3269185
5.492356
5.6517038
5.8053631
5.9539115
6.0979491
6.2379869
6.3744504
6.5076554
6.6378735
6.765488
6.8903925
7.012463
7.1318319
7.2489105
7.3621785
7.4660665
7.5586383
7.6547917
7.7536486
4.2903509
4.2819262
4.2648671
4.2380524
4.2006063
4.1515785
4.0895534
4.0131181
3.9207199
3.8103019
3.6795608
3.5259142
3.3463885
3.1375091
2.8952172
2.6147062
2.290145
1.9142959
1.4777541
0.9688065
0.37181901
-0.35345091
-1.2766147
-2.3585526
-3.4536248
-4.6657337
-2.7142018
5.3767453
-2.3802887
-8.8439261
-12.978864
-16.333387
-19.614511
-22.697822
-28.826334
-16.495374
3.4799847
10.749835
14.232825
18.992116
413.27225
2498.4606
4530.1053
6263.2532
6092.0826
5846.3669
5872.0844
5994.5548
6018.2763
5950.2582
5843.4627
5720.5452
5544.2263
5267.6423
5001.98
5279.9432
5184.0604
1936.8054
525.86974
-11.092914
6.7433303
15.489567
-5.2409867
5.3180732
-4.3674012
-4.9783272
-1.6220177
1.8142131
2.9092902
3.3833989
3.6931443
3.9141523
4.0953864
4.268912
4.4465769
4.6289868
4.8139013
4.9974489
5.176512
5.3494107
5.5153773
5.6744318
5.8271111
5.9742447
6.1167989
6.2556516
6.3915092
6.5249087
6.6561265
6.7854838
6.9135968
7.0400979
7.165014
7.2888781
7.4124534
7.5338209
7.6460543
7.7477003
7.8577769
7.9721627
4.6160263
4.6083934
4.5944247
4.5722487
4.540497
4.4982773
4.4441023
4.3763479
4.2933989
4.1932238
4.0731089
3.9301785
3.7611198
3.5620676
3.3284876
3.0549461
2.7347465
2.3594478
1.9183548
1.3986435
0.78136107
0.02262912
-0.92672645
-2.0007316
-3.0382396
-4.0183829
-4.1104012
-0.35809811
-0.19264978
-11.382308
-14.969329
-19.591383
-25.354465
-21.565939
-26.523116
-20.422463
1.1177491
1.8855963
11.825243
442.30239
3557.1788
6375.7288
6365.106
6094.473
5916.9321
5780.0218
5745.9554
5766.7485
5765.0252
5719.5031
5643.1396
5546.241
5427.5311
5297.9889
5230.2504
5346.4754
5558.0095
5897.1102
5484.4436
1043.3332
-4.1630923
-17.119027
-11.975838
-2.6087254
-23.922882
-9.7009741
-2.658876
3.3129383
3.7915077
3.9279806
4.0902324
4.2042927