/*--------------------------------*- C++ -*----------------------------------*\
  =========                 |
  \\      /  F ield         | OpenFOAM: The Open Source CFD Toolbox
   \\    /   O peration     | Website:  https://openfoam.org
    \\  /    A nd           | Version:  9
     \\/     M anipulation  |
\*---------------------------------------------------------------------------*/
FoamFile
{
    format      ascii;
    class       volScalarField;
    location    "2.5";
    object      Ma;
}
// * * * * * * * * * * * * * * * * * * * * * * * * * * * * * * * * * * * * * //

dimensions      [0 0 0 0 0 0 0];

internalField   nonuniform List<scalar> 
5250
(
3
2.99997
2.99993
2.99977
2.9995
2.99856
2.99684
2.99133
2.9801
2.94807
2.87444
2.6817
2.23877
1.38585
0.558811
0.235188
0.315205
0.336787
0.300149
0.242531
0.192155
0.153025
0.114159
0.0713207
0.0410434
3
2.99998
2.99992
2.9998
2.99943
2.99876
2.99648
2.99232
2.97892
2.95138
2.87357
2.6903
2.24896
1.40559
0.568945
0.237894
0.318787
0.341512
0.305841
0.249702
0.200541
0.162233
0.124578
0.0855486
0.0630261
3
2.99998
2.99993
2.99979
2.99951
2.99866
2.99698
2.99175
2.98139
2.95042
2.882
2.69857
2.27719
1.44951
0.592616
0.247535
0.328807
0.353703
0.319842
0.266275
0.219162
0.182946
0.148741
0.116588
0.101059
3
2.99998
2.99993
2.9998
2.99954
2.99874
2.9971
2.99239
2.98193
2.95408
2.88754
2.71676
2.31547
1.51725
0.62921
0.26608
0.346462
0.374068
0.342377
0.291609
0.246502
0.2126
0.182097
0.15565
0.14392
3
2.99998
2.99993
2.99982
2.99955
2.99885
2.99728
2.99287
2.98351
2.95664
2.89685
2.73703
2.36466
1.60775
0.679527
0.297227
0.372976
0.401669
0.371386
0.322974
0.279655
0.248249
0.221506
0.199656
0.19053
3
2.99998
2.99994
2.99984
2.99956
2.999
2.99734
2.99374
2.98409
2.96116
2.90328
2.75963
2.41233
1.69885
0.732607
0.32663
0.397101
0.42563
0.398255
0.354738
0.315627
0.288102
0.266123
0.249319
0.243378
3
2.99998
2.99995
2.99984
2.99963
2.99901
2.99765
2.99405
2.98541
2.96405
2.91053
2.77756
2.45442
1.77401
0.792339
0.360493
0.418572
0.44241
0.421142
0.386
0.353457
0.331965
0.316303
0.306033
0.305455
3
2.99999
2.99995
2.99987
2.99962
2.99916
2.9977
2.99474
2.98626
2.96733
2.91705
2.79618
2.49478
1.85338
0.872228
0.413734
0.438173
0.452788
0.443535
0.418486
0.393535
0.379506
0.372653
0.371906
0.382617
3
2.99999
2.99996
2.99987
2.9997
2.99914
2.99812
2.9948
2.98825
2.96902
2.92639
2.81236
2.54054
1.94006
0.97315
0.478583
0.453936
0.467136
0.468318
0.452223
0.436611
0.431536
0.435479
0.450667
0.485484
3
2.99999
2.99996
2.99989
2.9997
2.99931
2.99812
2.9958
2.98849
2.97405
2.93137
2.83535
2.58463
2.03677
1.09737
0.553947
0.471045
0.485946
0.495596
0.488321
0.482625
0.48729
0.507592
0.553635
0.660495
3
2.99999
2.99997
2.9999
2.99975
2.99935
2.99848
2.99595
2.99082
2.9754
2.94292
2.85229
2.63873
2.141
1.24992
0.642107
0.491803
0.50887
0.525155
0.525926
0.529144
0.546041
0.588525
0.677185
0.851555
3
2.99999
2.99997
2.99992
2.99979
2.99946
2.99864
2.99676
2.99162
2.98036
2.94912
2.87763
2.69035
2.26067
1.43721
0.744976
0.523533
0.540506
0.559463
0.566185
0.576816
0.605495
0.66565
0.77717
0.964362
3
3
2.99998
2.99993
2.99983
2.99954
2.99895
2.99712
2.99366
2.98254
2.96065
2.89664
2.75041
2.38795
1.66602
0.86511
0.576283
0.587
0.601866
0.611975
0.627006
0.66261
0.729567
0.841212
1.00422
3
3
2.99998
2.99995
2.99986
2.99963
2.9991
2.99779
2.99446
2.98679
2.9662
2.91928
2.79619
2.50496
1.88414
0.994669
0.639483
0.634439
0.64655
0.660813
0.678438
0.715525
0.780193
0.880828
1.01936
3.00001
3
2.99999
2.99996
2.99988
2.99971
2.99926
2.99817
2.99559
2.98877
2.97342
2.93198
2.83528
2.5887
2.05066
1.1556
0.718738
0.669952
0.684172
0.702179
0.724493
0.762072
0.821569
0.90943
1.02795
3.00001
3
2.99999
2.99997
2.99991
2.99975
2.99943
2.99851
2.99644
2.9911
2.97811
2.94622
2.86618
2.66822
2.21282
1.37849
0.829245
0.701904
0.713999
0.734735
0.762775
0.801391
0.856737
0.932958
1.03418
3.00001
3
3
2.99998
2.99993
2.99982
2.99953
2.9989
2.99706
2.9934
2.98225
2.95934
2.89461
2.7445
2.37762
1.65206
0.965949
0.749706
0.748248
0.766977
0.797324
0.835634
0.887286
0.955016
1.04135
3.00001
3
3
2.99998
2.99995
2.99986
2.99966
2.99913
2.99787
2.99484
2.98701
2.96906
2.92182
2.81031
2.53473
1.95073
1.13208
0.819384
0.79192
0.805645
0.833087
0.869081
0.915435
0.975397
1.05046
3.00001
3
3
2.99999
2.99996
2.9999
2.99975
2.99932
2.99846
2.99582
2.99075
2.97504
2.94275
2.85246
2.64307
2.16052
1.33625
0.906826
0.82961
0.840481
0.865153
0.899927
0.942166
0.995193
1.06025
3.00001
3.00001
3
2.99999
2.99997
2.99993
2.99979
2.99954
2.99876
2.99712
2.99264
2.98228
2.9561
2.89187
2.73207
2.35752
1.62346
1.04151
0.877033
0.874771
0.893187
0.926375
0.967243
1.01525
1.07215
3.00001
3.00001
3
3
2.99998
2.99995
2.99987
2.99963
2.99919
2.99775
2.99514
2.98671
2.97013
2.92242
2.81507
2.54594
1.97827
1.22142
0.948435
0.916307
0.927241
0.954968
0.993121
1.0357
1.08577
3.00001
3.00001
3
3
2.99999
2.99997
2.9999
2.99976
2.99937
2.99849
2.99628
2.99082
2.97789
2.94453
2.86587
2.66762
2.2234
1.4465
1.03811
0.955336
0.960988
0.983533
1.01823
1.05675
1.1009
3.00001
3.00001
3.00001
3
2.99999
2.99998
2.99993
2.99983
2.99956
2.99894
2.99737
2.99352
2.98447
2.96079
2.90615
2.76532
2.43876
1.7745
1.18399
1.00942
0.997059
1.01146
1.04058
1.07759
1.11754
3.00001
3.00001
3.00001
3
3
2.99999
2.99996
2.99988
2.9997
2.99929
2.99815
2.99579
2.98884
2.97478
2.93431
2.8451
2.61688
2.12238
1.38977
1.09011
1.03773
1.04402
1.06585
1.09857
1.13588
3.00001
3.00001
3.00001
3.00001
3
2.99999
2.99997
2.99993
2.99979
2.99953
2.99871
2.99719
2.99231
2.98291
2.95517
2.89475
2.7358
2.37771
1.68605
1.2142
1.08571
1.07719
1.08933
1.11718
1.15341
3.00001
3.00001
3.00001
3.00001
3
3
2.99998
2.99995
2.99986
2.99969
2.99918
2.99807
2.99521
2.98839
2.97184
2.9308
2.832
2.59472
2.07706
1.4047
1.15683
1.1156
1.11983
1.14059
1.17064
3.00001
3.00001
3.00001
3.00001
3
3
2.99999
2.99997
2.99991
2.9998
2.99946
2.99873
2.99683
2.99231
2.98148
2.95388
2.88935
2.7269
2.35689
1.67537
1.26422
1.15868
1.15063
1.1612
1.18604
3.00001
3.00001
3.00001
3.00001
3.00001
3
3
2.99998
2.99995
2.99986
2.99968
2.99914
2.99811
2.99487
2.98882
2.9702
2.93229
2.82843
2.59591
2.07959
1.44907
1.2233
1.18651
1.1887
1.20733
3.00001
3.00001
3.00001
3.00001
3.00001
3.00001
3
2.99999
2.99997
2.99992
2.99979
2.99947
2.99875
2.99677
2.99273
2.98081
2.95658
2.88853
2.73608
2.37019
1.71434
1.32479
1.22661
1.21718
1.22686
3.00001
3.00001
3.00001
3.00001
3.00001
3.00001
3
3
2.99998
2.99995
2.99986
2.9997
2.99916
2.99817
2.99514
2.98905
2.97198
2.93441
2.83738
2.61473
2.1212
1.51388
1.29128
1.25273
1.25345
3.00001
3.00001
3.00001
3.00001
3.00001
3.00001
3.00001
3
2.99999
2.99997
2.99992
2.9998
2.9995
2.99883
2.99697
2.99322
2.98208
2.95969
2.89642
2.75609
2.416
1.79517
1.39787
1.29326
1.28088
3.00001
3.00001
3.00001
3.00001
3.00001
3.00001
3.00001
3
3
2.99998
2.99996
2.99988
2.99972
2.99925
2.99828
2.99569
2.98972
2.97517
2.93939
2.85427
2.64995
2.19703
1.60109
1.36551
1.3191
3.00001
3.00001
3.00001
3.00001
3.00001
3.00001
3.00001
3.00001
3
2.99999
2.99998
2.99993
2.99983
2.99955
2.99899
2.99728
2.99413
2.98416
2.96492
2.90958
2.78829
2.49045
1.92279
1.49118
1.36315
3.00001
3.00001
3.00001
3.00001
3.00001
3.00001
3.00001
3.00001
3
3
2.99999
2.99996
2.9999
2.99975
2.99938
2.99847
2.99641
2.99093
2.97929
2.94708
2.87724
2.69907
2.30504
1.71968
1.45021
3.00001
3.00001
3.00001
3.00001
3.00001
3.00001
3.00001
3.00001
3.00001
3
3
2.99998
2.99994
2.99986
2.99964
2.99914
2.99783
2.99509
2.98729
2.97147
2.92711
2.83086
2.59116
2.10329
1.6125
3.00001
3.00001
3.00001
3.00001
3.00001
3.00001
3.00001
3.00001
3.00001
3
3
2.99999
2.99997
2.99991
2.99981
2.99947
2.99885
2.99693
2.99316
2.98254
2.95944
2.8999
2.76235
2.43842
1.88194
3.00001
3.00001
3.00001
3.00001
3.00001
3.00001
3.00001
3.00001
3.00001
3.00001
3
3
2.99999
2.99996
2.99988
2.99973
2.9993
2.99838
2.996
2.99045
2.97725
2.94435
2.86849
2.68446
2.28017
3.00001
3.00001
3.00001
3.00001
3.00001
3.00001
3.00001
3.00001
3.00001
3.00001
3.00001
3
3
2.99998
2.99994
2.99984
2.99963
2.99906
2.99779
2.99465
2.9871
2.96946
2.92527
2.82339
2.5794
3.00001
3.00001
3.00001
3.00001
3.00001
3.00001
3.00001
3.00001
3.00001
3.00001
3.00001
3
3
2.99999
2.99997
2.99992
2.99979
2.99948
2.9988
2.99694
2.99315
2.98222
2.9604
2.89918
2.76727
3.00001
3.00001
3.00001
3.00001
3.00001
3.00001
3.00001
3.00001
3.00001
3.00001
3.00001
3.00001
3
3
2.99999
2.99996
2.99989
2.99973
2.99931
2.99846
2.99596
2.99128
2.97689
2.94923
2.87151
3.00001
3.00001
3.00001
3.00001
3.00001
3.00001
3.00001
3.00001
3.00001
3.00001
3.00001
3.00001
3.00001
3
3
2.99998
2.99994
2.99985
2.99965
2.99912
2.99801
2.99485
2.98876
2.97062
2.93479
3.00001
3.00001
3.00001
3.00001
3.00001
3.00001
3.00001
3.00001
3.00001
3.00001
3.00001
3.00001
3.00001
3.00001
3
2.99999
2.99997
2.99993
2.99981
2.99955
2.99889
2.99733
2.99377
2.98449
2.96475
3.00001
3.00001
3.00001
3.00001
3.00001
3.00001
3.00001
3.00001
3.00001
3.00001
3.00001
3.00001
3.00001
3.00001
3
3
2.99999
2.99996
2.99991
2.99975
2.99944
2.99857
2.99672
2.992
2.98109
3.00001
3.00001
3.00001
3.00001
3.00001
3.00001
3.00001
3.00001
3.00001
3.00001
3.00001
3.00001
3.00001
3.00001
3.00001
3
3
2.99999
2.99995
2.99989
2.99969
2.99931
2.99823
2.99601
2.99017
3.00001
3.00001
3.00001
3.00001
3.00001
3.00001
3.00001
3.00001
3.00001
3.00001
3.00001
3.00001
3.00001
3.00001
3.00001
3.00001
3
3
2.99998
2.99994
2.99985
2.99963
2.99913
2.99783
2.99516
3.00001
3.00001
3.00001
3.00001
3.00001
3.00001
3.00001
3.00001
3.00001
3.00001
3.00001
3.00001
3.00001
3.00001
3.00001
3.00001
3
3
2.99999
2.99997
2.99992
2.99982
2.99952
2.99897
2.99728
3.00001
3.00001
3.00001
3.00001
3.00001
3.00001
3.00001
3.00001
3.00001
3.00001
3.00001
3.00001
3.00001
3.00001
3.00001
3.00001
3.00001
3
3
2.99999
2.99997
2.9999
2.99978
2.99942
2.99873
3.00001
3.00001
3.00001
3.00001
3.00001
3.00001
3.00001
3.00001
3.00001
3.00001
3.00001
3.00001
3.00001
3.00001
3.00001
3.00001
3.00001
3.00001
3
3
2.99999
2.99995
2.99988
2.9997
2.99932
3.00001
3.00001
3.00001
3.00001
3.00001
3.00001
3.00001
3.00001
3.00001
3.00001
3.00001
3.00001
3.00001
3.00001
3.00001
3.00001
3.00001
3.00001
3.00001
3
2.99999
2.99997
2.99993
2.99982
2.99958
3.00001
3.00001
3.00001
3.00001
3.00001
3.00001
3.00001
3.00001
3.00001
3.00001
3.00001
3.00001
3.00001
3.00001
3.00001
3.00001
3.00001
3.00001
3.00001
3
3
2.99998
2.99995
2.99985
2.99966
1.12656
1.33147
1.39353
1.35277
1.27673
1.18455
1.1002
1.05925
1.05271
1.05541
1.05835
1.05871
1.05726
1.05477
1.05172
1.04973
1.04991
1.05097
1.05221
1.05386
1.05579
1.05763
1.05956
1.06177
1.06426
1.06689
1.06943
1.07109
1.07201
1.07202
1.06973
1.06184
1.04114
0.991672
0.879313
0.63659
0.278867
0.108248
0.141921
0.187201
0.221025
0.203669
0.155293
0.103126
0.0553292
0.0412802
0.0812946
0.124968
0.167296
0.206939
0.243899
0.277805
0.310074
0.342759
0.375658
0.40733
0.437897
0.467085
0.495628
0.523084
0.550107
0.576166
0.601845
0.626705
0.651331
0.675187
0.698884
0.721729
0.744458
0.766256
0.787988
0.808762
0.829538
0.849371
0.869281
0.888243
0.907361
0.925478
0.943825
0.961106
0.978706
0.995196
1.0121
1.02788
1.04414
1.05927
1.07497
1.08955
1.1048
1.11887
1.13379
1.14755
1.16225
1.17568
1.19006
1.20292
1.21646
1.22767
1.23768
1.24332
1.13848
1.25588
1.32027
1.36296
1.40722
1.44184
1.45075
1.44601
1.42907
1.40526
1.38817
1.38286
1.38363
1.38549
1.387
1.38744
1.38763
1.38737
1.38725
1.38786
1.38863
1.38976
1.39146
1.3935
1.39545
1.39739
1.39916
1.40044
1.40095
1.40079
1.39849
1.39139
1.37351
1.3313
1.23576
1.02722
0.671321
0.403507
0.288435
0.21721
0.174938
0.167428
0.199666
0.242177
0.284606
0.323148
0.359941
0.396013
0.431369
0.46547
0.498076
0.528345
0.557309
0.586017
0.615314
0.643764
0.671298
0.697698
0.72353
0.748575
0.773198
0.796903
0.820301
0.842813
0.865283
0.886862
0.908589
0.929289
0.950262
0.970049
0.990271
1.0092
1.02874
1.04691
1.0658
1.08326
1.10151
1.11829
1.13588
1.15202
1.16896
1.18447
1.20076
1.21571
1.23141
1.24589
1.26112
1.27523
1.29001
1.30377
1.31808
1.33141
1.34521
1.35809
1.37138
1.38371
1.39613
1.40691
1.41607
1.42095
1.13549
1.24321
1.34005
1.43319
1.51978
1.58821
1.62039
1.62246
1.61736
1.60218
1.58224
1.56639
1.55799
1.5553
1.55589
1.55663
1.55759
1.55824
1.55865
1.55906
1.55953
1.56012
1.561
1.56226
1.56388
1.56559
1.56712
1.56841
1.56889
1.56876
1.56732
1.56252
1.55009
1.52001
1.45043
1.29614
0.993583
0.68992
0.543833
0.459733
0.423839
0.430264
0.464174
0.502175
0.537791
0.568138
0.596149
0.623318
0.651418
0.678778
0.70621
0.73161
0.756371
0.780303
0.805354
0.8294
0.853114
0.875271
0.8975
0.918408
0.939758
0.959816
0.980512
0.999736
1.01973
1.03818
1.0575
1.07525
1.09382
1.11082
1.12866
1.145
1.16234
1.17826
1.19527
1.21085
1.22753
1.24272
1.25898
1.27374
1.28957
1.30392
1.31938
1.33335
1.3484
1.362
1.37655
1.38973
1.40381
1.41662
1.43031
1.44275
1.45602
1.46804
1.48088
1.49232
1.50443
1.51451
1.5238
1.52835
1.14186
1.24975
1.3495
1.44096
1.52249
1.59021
1.64313
1.68163
1.70219
1.70717
1.70528
1.69742
1.68555
1.67452
1.66865
1.66685
1.6676
1.66879
1.67061
1.67227
1.6733
1.67391
1.67443
1.67513
1.67626
1.67774
1.6797
1.68154
1.68241
1.68252
1.68186
1.67887
1.67059
1.65022
1.60242
1.49552
1.26286
0.941332
0.716319
0.608306
0.585969
0.603475
0.647615
0.69287
0.730861
0.762399
0.787828
0.808703
0.830385
0.852091
0.874739
0.895986
0.916702
0.935519
0.955579
0.974765
0.994608
1.01271
1.03145
1.04847
1.06622
1.08243
1.09949
1.1151
1.13165
1.14681
1.16308
1.178
1.19409
1.20875
1.2245
1.23873
1.25406
1.26789
1.28293
1.29652
1.31143
1.32484
1.33962
1.3529
1.36758
1.38069
1.39513
1.40794
1.4221
1.43463
1.4485
1.46075
1.47437
1.48635
1.49978
1.51149
1.52472
1.53612
1.54912
1.56004
1.5725
1.58229
1.59228
1.59692
1.14413
1.249
1.34477
1.43251
1.5123
1.58426
1.64753
1.70113
1.74282
1.76973
1.77991
1.78007
1.77771
1.77073
1.76171
1.75403
1.74937
1.74722
1.74744
1.74799
1.74893
1.75027
1.75135
1.7523
1.75312
1.75382
1.75474
1.75582
1.75672
1.75691
1.75655
1.75461
1.74896
1.7348
1.70119
1.62456
1.4579
1.14485
0.831665
0.68746
0.674257
0.702277
0.764385
0.827915
0.876515
0.913178
0.942995
0.965608
0.982817
0.997268
1.01264
1.02772
1.04372
1.05753
1.07175
1.08532
1.10061
1.11493
1.12996
1.14351
1.15787
1.17099
1.18512
1.19798
1.21185
1.22449
1.23832
1.25096
1.26482
1.27738
1.29114
1.30352
1.31717
1.32947
1.34318
1.35552
1.36935
1.38175
1.3956
1.40781
1.42152
1.43352
1.44715
1.45898
1.47251
1.48413
1.49756
1.50896
1.52227
1.53347
1.54669
1.55774
1.57087
1.58179
1.5947
1.60542
1.61782
1.62776
1.63791
1.64302
1.14098
1.24122
1.33334
1.41808
1.4959
1.56693
1.63085
1.68737
1.73531
1.77474
1.80512
1.82459
1.8327
1.83307
1.83143
1.82629
1.8191
1.81222
1.80778
1.8058
1.80612
1.80679
1.80805
1.81
1.81196
1.8134
1.81483
1.81595
1.81683
1.81702
1.81671
1.81517
1.81065
1.79936
1.77285
1.71242
1.58214
1.31535
0.947644
0.735983
0.727591
0.773338
0.854629
0.934883
0.995618
1.03971
1.06997
1.09173
1.10794
1.11905
1.12635
1.13271
1.14004
1.14795
1.15703
1.16542
1.17562
1.186
1.1977
1.20844
1.22022
1.23095
1.24279
1.2536
1.26569
1.27684
1.28942
1.30095
1.31378
1.32534
1.33813
1.34957
1.36233
1.37375
1.38665
1.39821
1.41125
1.42278
1.43587
1.4473
1.4604
1.47173
1.48486
1.49612
1.50928
1.52044
1.53356
1.54459
1.55763
1.56857
1.5815
1.59243
1.60525
1.61618
1.62882
1.63967
1.65188
1.66212
1.67227
1.67783
1.13649
1.23002
1.31792
1.39929
1.4751
1.54475
1.60911
1.66732
1.71995
1.76606
1.80538
1.83741
1.86047
1.87395
1.87882
1.87881
1.87723
1.87296
1.86741
1.86259
1.85956
1.85828
1.85846
1.85885
1.85966
1.86088
1.86234
1.86368
1.86427
1.86429
1.86384
1.86211
1.85746
1.84639
1.82126
1.76578
1.64981
1.42491
1.11122
0.877481
0.85767
0.898952
0.955986
1.02204
1.07952
1.1238
1.15618
1.17718
1.19059
1.19943
1.20552
1.20881
1.21039
1.21278
1.21678
1.22207
1.2282
1.23495
1.24414
1.25348
1.26415
1.27397
1.28492
1.29486
1.30608
1.3163
1.32796
1.33853
1.35048
1.36121
1.37333
1.38415
1.39649
1.40749
1.42004
1.4311
1.44379
1.45486
1.46761
1.4786
1.49137
1.50227
1.51505
1.52592
1.5387
1.54955
1.56225
1.57306
1.58561
1.59638
1.6088
1.61957
1.63191
1.64272
1.65493
1.6657
1.67759
1.6878
1.69786
1.70346
1.13449
1.21986
1.30241
1.38026
1.45326
1.52144
1.58466
1.64331
1.69677
1.7455
1.78856
1.82605
1.85723
1.88234
1.90007
1.91046
1.91432
1.91427
1.91285
1.90909
1.9041
1.89941
1.8962
1.89501
1.89536
1.89608
1.89748
1.89939
1.9003
1.90029
1.89955
1.89696
1.89026
1.87474
1.84049
1.76824
1.62682
1.42581
1.24483
1.08589
0.998973
0.993454
1.01834
1.05485
1.10124
1.14413
1.18415
1.2143
1.23507
1.24826
1.25664
1.26237
1.26616
1.26777
1.26859
1.27052
1.27403
1.27834
1.28385
1.29063
1.29989
1.30898
1.31958
1.32911
1.33996
1.34968
1.36082
1.3708
1.38222
1.39243
1.40418
1.41468
1.42673
1.43736
1.44963
1.46036
1.47277
1.48351
1.49597
1.50663
1.51908
1.52969
1.54217
1.55279
1.56529
1.57592
1.58836
1.59894
1.61126
1.62175
1.63396
1.64441
1.65656
1.66704
1.67912
1.68956
1.70141
1.71131
1.72146
1.72678
1.13442
1.21169
1.28825
1.36188
1.43175
1.49766
1.55946
1.61724
1.6709
1.7204
1.7657
1.80653
1.84287
1.87411
1.90001
1.92039
1.93421
1.94177
1.94426
1.94411
1.94285
1.93969
1.93592
1.93274
1.93061
1.9296
1.9295
1.92978
1.92987
1.92946
1.92767
1.92271
1.91078
1.88399
1.82666
1.70921
1.53063
1.39263
1.31727
1.24635
1.1683
1.10889
1.09066
1.10277
1.1252
1.15729
1.19446
1.22626
1.25479
1.27646
1.29143
1.30121
1.30796
1.31248
1.31539
1.31664
1.31765
1.31995
1.32347
1.32755
1.3335
1.34091
1.35093
1.36014
1.37077
1.38016
1.39091
1.4004
1.41138
1.42115
1.43253
1.44258
1.45429
1.46457
1.47656
1.487
1.49916
1.50965
1.52191
1.53238
1.54466
1.55508
1.56734
1.57775
1.58998
1.6004
1.61258
1.62296
1.63509
1.64539
1.65744
1.66767
1.67963
1.68981
1.70168
1.71177
1.72346
1.73306
1.7432
1.74833
1.13722
1.20666
1.27696
1.34594
1.4122
1.47546
1.53524
1.5917
1.64461
1.69412
1.73999
1.78235
1.82084
1.85553
1.88592
1.91188
1.933
1.94968
1.96073
1.96682
1.9687
1.96851
1.96729
1.96439
1.96064
1.95728
1.95497
1.95379
1.95285
1.95079
1.94614
1.93578
1.91309
1.86471
1.76287
1.59541
1.44681
1.38144
1.358
1.33646
1.30403
1.25955
1.21462
1.18699
1.18037
1.19315
1.21073
1.23514
1.26365
1.28737
1.30935
1.32689
1.339
1.34705
1.35331
1.35719
1.35964
1.36131
1.36317
1.36587
1.3694
1.37378
1.38067
1.38862
1.39875
1.40805
1.41877
1.42802
1.43877
1.44817
1.45918
1.46876
1.48005
1.48986
1.50147
1.51154
1.52344
1.53366
1.54569
1.55591
1.56792
1.57812
1.59011
1.60038
1.6124
1.62274
1.63473
1.64496
1.65683
1.66688
1.67865
1.68865
1.70043
1.71045
1.72224
1.7322
1.74382
1.75329
1.7634
1.76847
1.14279
1.20492
1.2689
1.33281
1.39524
1.4553
1.51281
1.56737
1.61904
1.66778
1.71348
1.75625
1.79584
1.83238
1.86551
1.8953
1.92129
1.94344
1.96125
1.97509
1.98406
1.98889
1.99018
1.98995
1.98882
1.98633
1.98295
1.97928
1.97545
1.97022
1.96034
1.93978
1.89698
1.80752
1.65061
1.48525
1.40415
1.38427
1.38345
1.38425
1.37975
1.36691
1.34371
1.31301
1.28121
1.2614
1.25599
1.26598
1.2794
1.29828
1.32116
1.33982
1.35734
1.37173
1.38241
1.38977
1.39588
1.39972
1.40214
1.4042
1.4065
1.40918
1.41285
1.41812
1.42642
1.43522
1.44578
1.45497
1.46559
1.47467
1.48532
1.49446
1.50536
1.51476
1.52605
1.53578
1.54739
1.55733
1.56908
1.57909
1.59083
1.60083
1.61247
1.62248
1.63412
1.6442
1.65591
1.666
1.67772
1.6877
1.69933
1.70919
1.72078
1.73061
1.74222
1.75203
1.76351
1.77284
1.78287
1.7878
1.15165
1.20669
1.2647
1.32332
1.38142
1.43829
1.49291
1.54571
1.59564
1.64348
1.68841
1.7311
1.77097
1.8084
1.84299
1.87489
1.90371
1.92951
1.95181
1.97071
1.98566
1.99726
2.00463
2.00835
2.00888
2.0083
2.00638
2.00207
1.99516
1.98466
1.96546
1.9267
1.84847
1.70241
1.52592
1.42395
1.39653
1.39629
1.40415
1.41421
1.42358
1.42934
1.42904
1.41981
1.40011
1.37359
1.34675
1.3294
1.32277
1.32927
1.33936
1.35341
1.37192
1.38831
1.40296
1.41519
1.42524
1.43226
1.43794
1.44178
1.44438
1.44656
1.44923
1.45247
1.45764
1.46428
1.47364
1.48216
1.4924
1.50115
1.51156
1.52041
1.531
1.54004
1.55096
1.56034
1.57159
1.58119
1.59248
1.60209
1.61334
1.62305
1.63441
1.6443
1.65581
1.6658
1.67736
1.68727
1.69877
1.70851
1.71993
1.72954
1.74093
1.75051
1.76191
1.77148
1.78284
1.79199
1.80204
1.80686
1.16231
1.21142
1.2634
1.31709
1.37061
1.42377
1.47552
1.5257
1.57406
1.62033
1.66457
1.7065
1.74635
1.7838
1.81915
1.85197
1.88262
1.91048
1.93602
1.95832
1.97809
1.9941
2.00726
2.01653
2.02194
2.02271
2.02163
2.01808
2.00987
1.99274
1.95815
1.88912
1.75584
1.57443
1.44882
1.40632
1.40223
1.41084
1.42291
1.43825
1.456
1.47146
1.48142
1.48532
1.48461
1.47554
1.45721
1.43462
1.41155
1.39477
1.38706
1.38882
1.39641
1.40653
1.42014
1.4346
1.4476
1.45822
1.46766
1.47475
1.48044
1.48418
1.48684
1.48915
1.49221
1.49645
1.50304
1.51017
1.51948
1.52784
1.53807
1.54682
1.5573
1.56611
1.57661
1.58549
1.59621
1.60544
1.61647
1.62598
1.6371
1.64662
1.6577
1.66725
1.67844
1.68811
1.69945
1.70911
1.72045
1.72992
1.74113
1.75045
1.76163
1.77094
1.78219
1.79147
1.80271
1.81155
1.82155
1.82621
1.17547
1.21898
1.26523
1.31387
1.36352
1.41281
1.46162
1.50924
1.55551
1.60017
1.64319
1.68426
1.72362
1.76088
1.7964
1.82963
1.86123
1.89014
1.9176
1.94195
1.96465
1.98401
2.00121
2.0147
2.02478
2.0282
2.02704
2.02236
2.01024
1.98308
1.92609
1.81137
1.63149
1.48284
1.42164
1.4106
1.41807
1.43002
1.44529
1.46394
1.48423
1.50272
1.51839
1.53016
1.53766
1.54184
1.54144
1.53379
1.51816
1.49846
1.47725
1.45937
1.44871
1.44486
1.45
1.45695
1.46681
1.47899
1.4914
1.50113
1.50991
1.51645
1.52188
1.52549
1.52841
1.53125
1.53556
1.54088
1.5484
1.55569
1.565
1.57309
1.58307
1.59168
1.60214
1.61104
1.62164
1.63058
1.6412
1.65023
1.66093
1.67007
1.68086
1.69008
1.70102
1.71035
1.72151
1.73092
1.7422
1.75149
1.76264
1.77172
1.78271
1.79169
1.80276
1.81175
1.82286
1.83149
1.84139
1.84592
1.1893
1.22784
1.26946
1.31336
1.35871
1.40488
1.45041
1.49561
1.53963
1.5825
1.62399
1.66414
1.70246
1.73952
1.77462
1.80805
1.83999
1.86952
1.89805
1.92372
1.94832
1.96987
1.98993
2.0063
2.01945
2.02372
2.02176
2.01423
1.99444
1.94945
1.85342
1.68858
1.52606
1.44435
1.42304
1.42776
1.43969
1.45438
1.47232
1.49255
1.51215
1.53059
1.54759
1.56323
1.57688
1.58767
1.5949
1.59884
1.59897
1.59326
1.58011
1.56233
1.54247
1.5236
1.50895
1.50131
1.49997
1.50519
1.5117
1.52031
1.53195
1.54198
1.55082
1.5575
1.5633
1.56677
1.57002
1.57356
1.57865
1.58442
1.59234
1.59974
1.60927
1.61743
1.62747
1.63602
1.64638
1.65512
1.66557
1.6743
1.68474
1.69352
1.70408
1.71297
1.72371
1.7327
1.74362
1.7527
1.76376
1.77288
1.78394
1.79291
1.80381
1.81259
1.82345
1.83221
1.84307
1.85157
1.86143
1.86592
1.20384
1.23888
1.27645
1.31625
1.35748
1.40001
1.44305
1.48523
1.52736
1.56829
1.60796
1.647
1.684
1.72027
1.75479
1.78788
1.81984
1.84964
1.8787
1.90514
1.931
1.95379
1.97571
1.99374
2.00729
2.00936
2.00532
1.99205
1.95816
1.88223
1.73513
1.56465
1.4671
1.43761
1.43896
1.44986
1.46488
1.48259
1.50283
1.52202
1.54023
1.55759
1.57474
1.59118
1.60671
1.62095
1.63349
1.64395
1.65147
1.65627
1.65729
1.65378
1.64289
1.62668
1.60642
1.58551
1.56731
1.55456
1.54837
1.5499
1.55458
1.56144
1.57192
1.58188
1.59125
1.59816
1.60431
1.60836
1.6126
1.61675
1.62229
1.62814
1.63599
1.64324
1.65259
1.66066
1.6707
1.67916
1.68942
1.69793
1.70818
1.71661
1.72688
1.7354
1.74591
1.75464
1.76539
1.77424
1.78507
1.79392
1.80477
1.81358
1.82438
1.83308
1.8438
1.85238
1.86305
1.87134
1.88107
1.88561
1.21907
1.25181
1.28557
1.32169
1.35959
1.39835
1.43814
1.47838
1.51717
1.55715
1.59449
1.63226
1.66835
1.70309
1.73752
1.76929
1.80156
1.83068
1.86026
1.88688
1.91326
1.93722
1.95906
1.97852
1.98743
1.9856
1.97725
1.95292
1.89401
1.76931
1.59585
1.48316
1.44679
1.44512
1.45677
1.47186
1.49176
1.5128
1.53325
1.55136
1.56856
1.58515
1.60119
1.61715
1.63285
1.64848
1.66351
1.6776
1.69031
1.70064
1.70884
1.71337
1.71511
1.71338
1.70512
1.68999
1.67032
1.64811
1.62598
1.60787
1.59654
1.59243
1.59592
1.60139
1.60998
1.62047
1.63141
1.63894
1.6455
1.64975
1.6547
1.65921
1.66521
1.67116
1.67915
1.6863
1.69559
1.70348
1.71335
1.72158
1.73167
1.73995
1.75003
1.75826
1.76844
1.77685
1.78732
1.79596
1.80661
1.81526
1.82586
1.83442
1.84491
1.85343
1.86396
1.8724
1.88291
1.89105
1.90053
1.90503
1.23545
1.26615
1.29745
1.33012
1.36463
1.40059
1.43638
1.47448
1.51117
1.54798
1.58494
1.61961
1.65545
1.68838
1.72202
1.75344
1.78428
1.81419
1.84219
1.87016
1.8954
1.92041
1.94151
1.95783
1.96053
1.9545
1.9363
1.89052
1.78716
1.61861
1.49202
1.4472
1.44454
1.45641
1.47394
1.49514
1.51879
1.53984
1.56014
1.57823
1.59556
1.61178
1.62798
1.64398
1.66002
1.67557
1.69097
1.70585
1.72032
1.734
1.74645
1.75732
1.76596
1.77128
1.77356
1.77278
1.76627
1.75206
1.73253
1.70848
1.68368
1.6606
1.64357
1.63479
1.63634
1.64085
1.64857
1.65905
1.66949
1.67701
1.68439
1.68966
1.69571
1.7008
1.7075
1.71358
1.72166
1.72865
1.7377
1.74529
1.75485
1.76283
1.77273
1.7809
1.79092
1.79916
1.80936
1.81778
1.82819
1.83673
1.84713
1.85554
1.8658
1.87402
1.88426
1.89247
1.90272
1.91075
1.92011
1.92448
1.24996
1.28067
1.31058
1.34068
1.37169
1.40494
1.43827
1.47237
1.50767
1.54189
1.57661
1.61076
1.64365
1.67697
1.70796
1.73982
1.76913
1.79888
1.82669
1.85373
1.87972
1.90266
1.92323
1.93049
1.92626
1.91235
1.87629
1.78955
1.63302
1.49428
1.43861
1.43424
1.44781
1.46675
1.49134
1.51676
1.54125
1.56235
1.58281
1.60126
1.62004
1.63776
1.65486
1.67106
1.6866
1.70214
1.71734
1.73269
1.74763
1.76258
1.7769
1.79055
1.80278
1.81333
1.82151
1.8268
1.82955
1.82968
1.82513
1.81309
1.79411
1.76954
1.7404
1.71215
1.68898
1.6749
1.67451
1.67864
1.68595
1.69614
1.70677
1.71484
1.72321
1.72935
1.73615
1.74159
1.74855
1.75458
1.76248
1.7693
1.77809
1.7855
1.79492
1.80284
1.81277
1.82098
1.83106
1.83932
1.84946
1.85778
1.868
1.87631
1.88646
1.89458
1.9046
1.9126
1.92259
1.93036
1.93962
1.94395
1.26966
1.29547
1.32464
1.35337
1.38172
1.41179
1.44294
1.47421
1.50625
1.53895
1.5711
1.60338
1.63543
1.66641
1.69763
1.72701
1.757
1.78467
1.81306
1.83879
1.86393
1.88569
1.89779
1.89674
1.88563
1.85548
1.78435
1.63818
1.48906
1.42228
1.41598
1.43021
1.45184
1.4787
1.50871
1.53529
1.55953
1.58078
1.60158
1.62094
1.64074
1.65911
1.67743
1.69461
1.71135
1.72739
1.74334
1.75893
1.7745
1.78951
1.80425
1.8181
1.83154
1.84407
1.85608
1.86691
1.87591
1.88266
1.88614
1.88675
1.88335
1.87237
1.85349
1.82698
1.79477
1.76184
1.73147
1.71383
1.71259
1.71668
1.72372
1.73362
1.74428
1.75252
1.76142
1.76797
1.77521
1.78096
1.78817
1.79427
1.80217
1.8089
1.81759
1.8249
1.83422
1.84206
1.85197
1.86015
1.87021
1.8784
1.88843
1.89656
1.90657
1.91461
1.92456
1.93241
1.94225
1.94978
1.95877
1.96306
1.28899
1.31005
1.33764
1.36575
1.39237
1.41995
1.44841
1.4778
1.50774
1.53768
1.56865
1.5987
1.62914
1.65924
1.68846
1.71794
1.74575
1.77391
1.8
1.82594
1.84813
1.86447
1.86578
1.85662
1.83118
1.77174
1.64027
1.4806
1.40098
1.3915
1.40659
1.42898
1.45906
1.49153
1.52234
1.54906
1.57404
1.59634
1.61852
1.63845
1.65849
1.677
1.69638
1.71481
1.73336
1.75079
1.76764
1.78365
1.79919
1.81429
1.82895
1.8435
1.85768
1.87181
1.88533
1.89846
1.9105
1.92141
1.9303
1.93719
1.94054
1.94152
1.93897
1.9296
1.91092
1.88354
1.848
1.80975
1.77234
1.75225
1.75015
1.75404
1.76091
1.77059
1.7813
1.78986
1.79929
1.80625
1.81395
1.81997
1.82728
1.83335
1.84113
1.84777
1.85631
1.86354
1.87283
1.88067
1.8906
1.89874
1.90872
1.91676
1.92664
1.9345
1.94433
1.95205
1.96174
1.96918
1.97789
1.98199
1.316
1.32813
1.35027
1.37813
1.4044
1.42994
1.4562
1.48298
1.51075
1.53892
1.56734
1.59636
1.62491
1.65362
1.68203
1.70977
1.73756
1.76366
1.78981
1.81238
1.83116
1.8351
1.82732
1.8058
1.75391
1.64066
1.47322
1.37873
1.36462
1.379
1.40264
1.43392
1.46966
1.50227
1.53227
1.55909
1.58491
1.6086
1.63188
1.6532
1.67468
1.6945
1.71462
1.73371
1.753
1.77151
1.78937
1.80643
1.8227
1.83846
1.85371
1.86867
1.88328
1.89757
1.91155
1.92509
1.93825
1.9508
1.96281
1.9736
1.98297
1.99029
1.99375
1.99479
1.99264
1.98366
1.9648
1.9361
1.89681
1.85261
1.81037
1.78947
1.78713
1.79119
1.79815
1.80776
1.81828
1.82692
1.83653
1.84363
1.85156
1.85765
1.86514
1.87128
1.87915
1.88583
1.89445
1.90171
1.91115
1.91904
1.92896
1.93691
1.94674
1.95446
1.96411
1.97169
1.98117
1.98852
1.99716
2.00102
1.34353
1.34799
1.36491
1.38934
1.41529
1.44001
1.46474
1.48993
1.51565
1.54205
1.5687
1.59553
1.62292
1.65007
1.67699
1.70397
1.73008
1.75568
1.77884
1.7992
1.80516
1.79839
1.77987
1.73397
1.6379
1.46564
1.35582
1.33566
1.34927
1.37276
1.40624
1.44352
1.4788
1.5102
1.53982
1.56706
1.59358
1.61823
1.64262
1.66538
1.68833
1.70948
1.731
1.75048
1.77047
1.78916
1.80809
1.82593
1.84335
1.85984
1.87598
1.89156
1.90683
1.92155
1.93597
1.95001
1.96383
1.97734
1.99043
2.00298
2.01471
2.0252
2.03426
2.04115
2.04435
2.04528
2.04332
2.03471
2.01594
1.98629
1.94366
1.89299
1.84748
1.82703
1.82377
1.82799
1.83487
1.84463
1.85498
1.86356
1.87318
1.88043
1.88855
1.89476
1.90254
1.90882
1.9169
1.92363
1.93235
1.93961
1.94906
1.9568
1.96654
1.97425
1.9838
1.99127
2.00059
2.00768
2.01627
2.01999
1.38482
1.37537
1.38245
1.40103
1.42572
1.44999
1.47337
1.4972
1.52132
1.54604
1.57139
1.59683
1.62242
1.64839
1.67399
1.69927
1.72439
1.74741
1.76792
1.77647
1.7711
1.75439
1.71321
1.62604
1.45497
1.33215
1.30561
1.31793
1.3424
1.37705
1.41676
1.45308
1.48658
1.51699
1.54635
1.5737
1.60087
1.62635
1.65189
1.67578
1.69976
1.7221
1.74467
1.76544
1.78635
1.80535
1.82466
1.84315
1.86166
1.87947
1.89657
1.91296
1.92868
1.944
1.95889
1.97349
1.98774
2.00162
2.01515
2.02822
2.04085
2.05286
2.06421
2.07436
2.08349
2.09031
2.09383
2.09472
2.09285
2.08433
2.06513
2.03294
1.98724
1.93077
1.88228
1.86401
1.86034
1.86459
1.87145
1.88123
1.89152
1.90004
1.90966
1.91688
1.92513
1.93151
1.93952
1.94593
1.9542
1.96096
1.96977
1.97695
1.98626
1.99376
2.00323
2.01063
2.0199
2.02683
2.03527
2.0388
1.43876
1.40628
1.4047
1.41556
1.43591
1.46041
1.48375
1.50636
1.52923
1.55227
1.57588
1.60001
1.62405
1.64843
1.67284
1.69668
1.71919
1.73946
1.74946
1.74557
1.72969
1.69105
1.60665
1.44825
1.31454
1.27882
1.28826
1.31211
1.34814
1.3888
1.42691
1.46109
1.49325
1.52316
1.55239
1.58024
1.60789
1.63416
1.66029
1.68499
1.70981
1.73315
1.75664
1.77831
1.80022
1.82025
1.84057
1.85924
1.87832
1.89645
1.91458
1.93183
1.94866
1.96477
1.98049
1.99566
2.01041
2.02472
2.03857
2.05206
2.06501
2.07764
2.08965
2.10126
2.11219
2.12205
2.13115
2.13779
2.14148
2.14231
2.14038
2.13172
2.11206
2.07601
2.02601
1.96698
1.91625