/*--------------------------------*- C++ -*----------------------------------*\
  =========                 |
  \\      /  F ield         | OpenFOAM: The Open Source CFD Toolbox
   \\    /   O peration     | Website:  https://openfoam.org
    \\  /    A nd           | Version:  9
     \\/     M anipulation  |
\*---------------------------------------------------------------------------*/
FoamFile
{
    format      ascii;
    class       volScalarField;
    location    "2.5";
    object      p;
}
// * * * * * * * * * * * * * * * * * * * * * * * * * * * * * * * * * * * * * //

dimensions      [1 -1 -2 0 0 0 0];

internalField   nonuniform List<scalar> 
5250
(
1
1.00003
1.00007
1.0002
1.00046
1.0012
1.0029
1.00723
1.01802
1.04426
1.11191
1.28676
1.774
3.2056
7.47983
11.9632
11.3586
11.051
11.1471
11.3966
11.6273
11.7665
11.8767
11.9651
12.0314
1
1.00002
1.00007
1.00018
1.00049
1.00112
1.00296
1.00696
1.01783
1.04342
1.11013
1.28069
1.75996
3.16029
7.35764
11.9775
11.36
11.0413
11.1373
11.3869
11.6188
11.7598
11.8724
11.9633
12.0321
1
1.00002
1.00007
1.00019
1.00043
1.00117
1.00264
1.00713
1.01639
1.04311
1.10387
1.27241
1.72478
3.06635
7.08328
12.0028
11.3596
11.0115
11.1038
11.35
11.5835
11.7253
11.8387
11.9302
11.9999
1
1.00002
1.00007
1.00017
1.00043
1.00105
1.00267
1.00633
1.01639
1.03903
1.10048
1.25312
1.68141
2.92514
6.6714
12.0324
11.3627
10.965
11.0489
11.2853
11.5203
11.6614
11.7733
11.8641
11.9358
1
1.00002
1.00006
1.00017
1.00038
1.00103
1.00232
1.0063
1.01421
1.03828
1.08986
1.23749
1.6214
2.75583
6.14397
12.0195
11.358
10.9038
10.9758
11.1959
11.4297
11.5673
11.6751
11.764
11.8393
1
1.00002
1.00006
1.00015
1.00036
1.00093
1.0022
1.00574
1.01328
1.03503
1.08318
1.21715
1.56685
2.58708
5.62113
11.891
11.3045
10.8214
10.8815
11.0775
11.3031
11.4337
11.5334
11.6164
11.694
1
1.00002
1.00005
1.00013
1.00035
1.00083
1.00215
1.00496
1.01318
1.03045
1.08002
1.19607
1.52372
2.44843
5.22105
11.5152
11.1495
10.73
10.7723
10.927
11.1339
11.2511
11.3344
11.4023
11.4766
1
1.00002
1.00005
1.00012
1.00032
1.00078
1.0019
1.00484
1.01141
1.02959
1.07096
1.18299
1.47565
2.31882
4.82069
10.9356
10.8965
10.6644
10.6598
10.7449
10.9198
11.0145
11.0663
11.0978
11.1456
1
1.00002
1.00004
1.00012
1.00028
1.00073
1.00171
1.00435
1.01065
1.02618
1.06575
1.16461
1.43014
2.1841
4.41183
10.1896
10.729
10.5821
10.5038
10.5514
10.6652
10.7188
10.7137
10.6692
10.6187
1
1.00001
1.00004
1.0001
1.00027
1.00061
1.00164
1.0037
1.00989
1.02287
1.05973
1.1454
1.38407
2.04212
3.99221
9.28198
10.6109
10.4848
10.3205
10.3336
10.3757
10.3618
10.275
10.057
9.71097
1
1.00001
1.00003
1.00009
1.00021
1.00058
1.00131
1.00354
1.00797
1.02147
1.04974
1.13071
1.32844
1.90108
3.55315
8.21255
10.5206
10.3905
10.1337
10.0897
10.0634
9.9685
9.70944
9.10413
7.53263
1
1.00001
1.00003
1.00007
1.0002
1.00045
1.00122
1.00276
1.00744
1.01685
1.04501
1.1066
1.28145
1.74464
3.10608
7.00032
10.4515
10.2972
9.96481
9.84157
9.75242
9.55673
9.1377
8.29814
6.6358
1
1.00001
1.00002
1.00007
1.00015
1.00041
1.00093
1.00248
1.00565
1.01496
1.03492
1.09034
1.22403
1.59822
2.65072
5.6809
10.2986
10.1699
9.82888
9.60304
9.44605
9.1663
8.64419
7.77443
6.41772
1
1.00001
1.00002
1.00005
1.00013
1.00031
1.00082
1.00186
1.00499
1.01121
1.03018
1.06982
1.1834
1.46747
2.28438
4.60017
9.82458
9.91313
9.70143
9.37925
9.14934
8.82259
8.28343
7.4781
6.39316
1
1.00001
1.00002
1.00004
1.0001
1.00027
1.00062
1.00165
1.00374
1.01002
1.02276
1.06049
1.14437
1.3831
2.02726
3.90362
8.71866
9.63024
9.49104
9.17908
8.88548
8.53397
8.01707
7.29725
6.39271
1
1
1.00001
1.00003
1.00009
1.00021
1.00053
1.00124
1.00326
1.00744
1.01977
1.04587
1.11982
1.29943
1.81112
3.26094
7.22651
9.38651
9.29509
9.02795
8.66933
8.29651
7.80979
7.16732
6.39031
1
1
1.00001
1.00003
1.00007
1.00016
1.00043
1.00095
1.00257
1.00578
1.01544
1.03568
1.09282
1.22892
1.61116
2.67364
5.648
9.16295
9.13803
8.93072
8.50934
8.10516
7.64262
7.06537
6.38469
1
1
1.00001
1.00002
1.00005
1.00012
1.00032
1.00073
1.00193
1.00438
1.01165
1.02651
1.06994
1.16739
1.44187
2.17643
4.20856
8.62319
8.98205
8.80797
8.40512
7.95743
7.50674
6.98166
6.37591
1
1
1.00001
1.00002
1.00004
1.0001
1.00022
1.0006
1.00136
1.00361
1.00823
1.02153
1.05074
1.13024
1.32761
1.88182
3.42464
7.37914
8.71461
8.60891
8.30562
7.84164
7.39572
6.91079
6.36591
1
1
1
1.00001
1.00003
1.00007
1.00018
1.00043
1.00104
1.00264
1.00616
1.01608
1.03737
1.09714
1.23904
1.63715
2.73203
5.70394
8.44072
8.41663
8.21798
7.78427
7.31417
6.8512
6.35511
1
1
1
1.00001
1.00002
1.00005
1.00012
1.00032
1.00073
1.00191
1.00443
1.01127
1.02696
1.06737
1.16626
1.42891
2.13109
3.99825
7.87563
8.28443
8.13409
7.76047
7.26104
6.80545
6.34606
1
1
1
1.00001
1.00002
1.00004
1.00009
1.00023
1.00053
1.00138
1.00313
1.00833
1.01879
1.04987
1.1171
1.30709
1.79868
3.17171
6.60882
8.04162
7.96817
7.71712
7.23558
6.77747
6.34156
1
1
1
1
1.00001
1.00003
1.00006
1.00016
1.00037
1.00098
1.00221
1.00588
1.0132
1.03524
1.08152
1.2131
1.5424
2.4604
4.86377
7.65465
7.7738
7.62649
7.24997
6.77915
6.34421
1
1
1
1
1.00001
1.00002
1.00005
1.0001
1.00028
1.00062
1.00165
1.00368
1.00982
1.02215
1.05811
1.13758
1.35785
1.92629
3.43277
6.81369
7.60837
7.51652
7.24438
6.79556
6.35544
1
1
1
1
1.00001
1.00001
1.00003
1.00007
1.00019
1.00043
1.00112
1.00255
1.00656
1.01547
1.03862
1.09442
1.23821
1.61536
2.6339
5.22372
7.30462
7.33547
7.206
6.85894
6.38519
1
1
1
1
1
1.00001
1.00002
1.00005
1.00012
1.0003
1.00069
1.00178
1.00405
1.0106
1.02403
1.0627
1.14815
1.38336
1.97985
3.49839
6.65359
7.21628
7.13291
6.88803
6.44484
1
1
1
1
1
1.00001
1.00001
1.00003
1.00008
1.0002
1.00046
1.00118
1.00267
1.00701
1.01575
1.04173
1.09645
1.25117
1.63587
2.67757
5.25793
6.95808
6.9817
6.86695
6.56641
1
1
1
1
1
1
1.00001
1.00002
1.00005
1.00013
1.00029
1.00076
1.0017
1.00443
1.0101
1.02582
1.06078
1.15329
1.38045
1.97546
3.43071
6.37408
6.8733
6.81008
6.60802
1
1
1
1
1
1
1.00001
1.00001
1.00003
1.00008
1.00019
1.00049
1.00109
1.00286
1.00641
1.01685
1.03846
1.09925
1.23971
1.62471
2.60899
5.05519
6.61416
6.68433
6.58577
1
1
1
1
1
1
1
1.00001
1.00002
1.00005
1.00012
1.00028
1.00072
1.0017
1.0041
1.01012
1.02384
1.05988
1.14376
1.36371
1.91585
3.26336
6.00465
6.55915
6.51838
1
1
1
1
1
1
1
1.00001
1.00001
1.00003
1.00008
1.00017
1.00046
1.00102
1.00269
1.006
1.01574
1.03582
1.0922
1.22139
1.5726
2.45776
4.64497
6.25108
6.39482
1
1
1
1
1
1
1
1
1.00001
1.00002
1.00004
1.00011
1.00027
1.00064
1.0016
1.00365
1.00944
1.02125
1.05528
1.12852
1.32891
1.81704
3.01564
5.53743
6.23622
1
1
1
1
1
1
1
1
1
1.00001
1.00003
1.00007
1.00016
1.00041
1.00091
1.00236
1.00536
1.01363
1.0319
1.07947
1.19324
1.48943
2.23228
4.03897
5.84121
1
1
1
1
1
1
1
1
1
1.00001
1.00002
1.00004
1.00009
1.00024
1.00054
1.0014
1.00311
1.00816
1.01812
1.04756
1.10906
1.2795
1.68866
2.70329
4.94858
1
1
1
1
1
1
1
1
1
1
1.00001
1.00002
1.00006
1.00013
1.00034
1.00075
1.00196
1.00433
1.01133
1.02534
1.06534
1.15249
1.38683
1.94657
3.27825
1
1
1
1
1
1
1
1
1
1
1.00001
1.00001
1.00003
1.00008
1.00018
1.00046
1.00107
1.00261
1.00637
1.01487
1.0374
1.08754
1.22043
1.54082
2.34493
1
1
1
1
1
1
1
1
1
1
1
1.00001
1.00002
1.00004
1.00011
1.00026
1.0006
1.00151
1.00342
1.0088
1.0196
1.05096
1.11647
1.29533
1.71452
1
1
1
1
1
1
1
1
1
1
1
1
1.00001
1.00003
1.00006
1.00014
1.00035
1.00081
1.00205
1.00459
1.01185
1.0265
1.06838
1.15818
1.40014
1
1
1
1
1
1
1
1
1
1
1
1
1.00001
1.00001
1.00003
1.00008
1.00019
1.00048
1.00106
1.00275
1.00609
1.01581
1.03547
1.09058
1.21311
1
1
1
1
1
1
1
1
1
1
1
1
1
1.00001
1.00002
1.00004
1.00011
1.00024
1.00062
1.00138
1.00356
1.00795
1.02024
1.04621
1.11527
1
1
1
1
1
1
1
1
1
1
1
1
1
1
1.00001
1.00002
1.00006
1.00014
1.00031
1.00081
1.00178
1.00458
1.01019
1.026
1.05918
1
1
1
1
1
1
1
1
1
1
1
1
1
1
1.00001
1.00001
1.00003
1.00007
1.00017
1.00043
1.00096
1.00246
1.00545
1.01408
1.0312
1
1
1
1
1
1
1
1
1
1
1
1
1
1
1
1.00001
1.00002
1.00004
1.00009
1.00022
1.00053
1.00123
1.00306
1.0069
1.01751
1
1
1
1
1
1
1
1
1
1
1
1
1
1
1
1
1.00001
1.00002
1.00005
1.00011
1.00028
1.00065
1.00153
1.00373
1.00849
1
1
1
1
1
1
1
1
1
1
1
1
1
1
1
1
1
1.00001
1.00002
1.00006
1.00014
1.00035
1.00077
1.00197
1.00434
1
1
1
1
1
1
1
1
1
1
1
1
1
1
1
1
1
1.00001
1.00001
1.00003
1.00008
1.00017
1.00043
1.00096
1.00237
1
1
1
1
1
1
1
1
1
1
1
1
1
1
1
1
1
1
1.00001
1.00002
1.00004
1.00009
1.00021
1.00053
1.00116
1
1
1
1
1
1
1
1
1
1
1
1
1
1
1
1
1
1
1
1.00001
1.00002
1.00005
1.00011
1.00028
1.00062
1
1
1
1
1
1
1
1
1
1
1
1
1
1
1
1
1
1
1
1.00001
1.00001
1.00003
1.00007
1.00016
1.00041
1
1
1
1
1
1
1
1
1
1
1
1
1
1
1
1
1
1
1
1
1.00001
1.00002
1.00005
1.00013
1.00033
2.99084
1.50245
1.01237
0.919509
0.947374
1.03314
1.21312
1.35189
1.39292
1.39096
1.38484
1.38215
1.38333
1.38717
1.39535
1.40346
1.40677
1.40665
1.40609
1.40479
1.40246
1.40052
1.39896
1.39724
1.39503
1.39241
1.38977
1.38822
1.38852
1.38996
1.39454
1.40678
1.43694
1.50853
1.67563
2.06721
2.96813
3.8767
3.8559
3.89158
3.94519
4.02838
4.14992
4.2834
4.39558
4.4954
4.56938
4.61803
4.6469
4.66115
4.66351
4.66063
4.65134
4.63157
4.60376
4.57333
4.54001
4.5036
4.46334
4.41985
4.3731
4.32402
4.27285
4.22024
4.1663
4.11148
4.0558
3.99959
3.94283
3.88579
3.82847
3.77117
3.71394
3.65701
3.60043
3.54435
3.48881
3.43384
3.37952
3.32584
3.27288
3.22061
3.16911
3.1183
3.06829
3.01902
2.97063
2.92292
2.87603
2.8299
2.78478
2.74035
2.69679
2.65396
2.61221
2.57154
2.53265
2.49647
2.46533
2.44615
3.69366
2.30079
1.71202
1.46769
1.35626
1.27673
1.26261
1.27148
1.29583
1.34562
1.39098
1.40813
1.40758
1.40544
1.40104
1.40108
1.40158
1.40288
1.40517
1.40524
1.40495
1.40403
1.40201
1.39871
1.39555
1.39267
1.39006
1.38765
1.38783
1.389
1.39269
1.40303
1.42833
1.4885
1.62985
1.95888
2.72881
3.85058
3.92302
3.91876
3.94542
4.0248
4.13837
4.25943
4.36952
4.46588
4.54068
4.59211
4.62354
4.63987
4.64446
4.64319
4.63756
4.62346
4.59553
4.56336
4.52926
4.49316
4.45386
4.41124
4.36536
4.317
4.26643
4.21431
4.1608
4.10633
4.05097
3.99502
3.93854
3.88171
3.82469
3.76759
3.71062
3.65384
3.59749
3.54151
3.48614
3.43124
3.37705
3.32342
3.27056
3.21833
3.167
3.11631
3.06635
3.01725
2.96907
2.92155
2.87496
2.82896
2.78375
2.73924
2.6957
2.65293
2.61119
2.57048
2.5314
2.49478
2.46332
2.44199
4.53595
3.23502
2.42017
1.90559
1.5738
1.37012
1.25081
1.24109
1.24906
1.27186
1.3191
1.36231
1.38977
1.40261
1.40272
1.40214
1.40072
1.39946
1.39948
1.39946
1.39933
1.39894
1.39807
1.39627
1.3936
1.39059
1.38777
1.38499
1.38474
1.38539
1.38771
1.39502
1.41321
1.45737
1.56262
1.80845
2.37618
3.59885
4.03254
4.09237
4.1129
4.15525
4.21436
4.28225
4.35788
4.43154
4.49906
4.55452
4.59081
4.61067
4.61749
4.61679
4.61309
4.60297
4.58124
4.54925
4.51461
4.47839
4.43963
4.39802
4.35328
4.30592
4.25628
4.20489
4.15207
4.09813
4.04332
3.98777
3.93176
3.8753
3.81872
3.76195
3.70539
3.6489
3.59288
3.53711
3.48202
3.42726
3.37336
3.31991
3.2673
3.21518
3.16408
3.11353
3.06409
3.01501
2.96688
2.91936
2.87282
2.82685
2.78184
2.73743
2.69403
2.65129
2.60962
2.56881
2.52954
2.49247
2.45962
2.43712
5.00394
3.82129
2.94968
2.34443
1.93938
1.66774
1.49761
1.38971
1.32734
1.31236
1.31618
1.32854
1.3547
1.38391
1.40376
1.41265
1.41236
1.41104
1.40804
1.40403
1.40168
1.40052
1.39995
1.39919
1.39785
1.39525
1.39186
1.38835
1.38549
1.38572
1.38712
1.39171
1.40387
1.43396
1.50562
1.67494
2.07108
2.99067
4.07141
4.45589
4.45162
4.43215
4.39141
4.34971
4.35264
4.37126
4.4179
4.47926
4.52716
4.55917
4.57471
4.57727
4.5752
4.56848
4.55321
4.525
4.4913
4.45518
4.41704
4.37668
4.33365
4.28797
4.23992
4.18979
4.13809
4.08502
4.03105
3.97618
3.92087
3.86501
3.80907
3.75285
3.69685
3.6408
3.58525
3.52985
3.47514
3.42067
3.36711
3.31404
3.26192
3.21018
3.15935
3.10897
3.05964
3.01076
2.96289
2.91552
2.86921
2.8234
2.77864
2.73436
2.69116
2.64848
2.60693
2.56609
2.52671
2.48933
2.4551
2.4319
5.28519
4.24626
3.4049
2.77085
2.3084
1.97241
1.72875
1.55441
1.43233
1.35583
1.31733
1.3176
1.32164
1.33255
1.35479
1.3751
1.38924
1.39804
1.39886
1.3984
1.39711
1.39449
1.39207
1.39023
1.38869
1.3875
1.3862
1.38453
1.38194
1.38203
1.38291
1.38569
1.39418
1.41527
1.46609
1.58718
1.8703
2.52242
3.92343
4.92284
4.91372
4.84052
4.67518
4.47221
4.36301
4.34142
4.34731
4.37006
4.41863
4.46797
4.50243
4.52134
4.5242
4.52179
4.51355
4.49499
4.46444
4.42868
4.39079
4.35104
4.30945
4.2657
4.21969
4.17132
4.12114
4.06928
4.01637
3.96238
3.90791
3.8528
3.79764
3.74211
3.68681
3.63136
3.57641
3.5215
3.46734
3.41352
3.36052
3.30776
3.25598
3.20452
3.15403
3.10389
3.05483
3.00616
2.95859
2.91141
2.86535
2.81969
2.77516
2.73102
2.68801
2.64543
2.604
2.5632
2.52372
2.48611
2.45105
2.42681
5.47473
4.57241
3.78957
3.15745
2.66529
2.28823
2.00105
1.7847
1.62274
1.50651
1.42178
1.3686
1.33977
1.339
1.34173
1.3496
1.36594
1.38326
1.39628
1.40467
1.4049
1.40433
1.40263
1.39902
1.39485
1.39141
1.38856
1.3864
1.38384
1.38366
1.38427
1.38643
1.39322
1.40995
1.45016
1.54468
1.76548
2.27372
3.43951
5.39681
5.47886
5.35835
5.07182
4.70488
4.47777
4.35678
4.31123
4.30856
4.31498
4.33635
4.37984
4.4196
4.44537
4.45465
4.45308
4.44618
4.42981
4.39774
4.36175
4.32219
4.28109
4.23859
4.19442
4.14799
4.0997
4.04948
3.998
3.94515
3.89172
3.83751
3.78323
3.72848
3.67393
3.61911
3.56485
3.51071
3.45728
3.40406
3.35159
3.29928
3.2479
3.19678
3.14667
3.09684
3.0481
2.99969
2.95241
2.90547
2.85968
2.81426
2.76998
2.72608
2.68329
2.64092
2.59966
2.559
2.51954
2.48184
2.4464
2.42117
5.60673
4.82066
4.10529
3.49498
2.99474
2.593
2.27403
2.02212
1.82361
1.66892
1.54865
1.45984
1.39525
1.35767
1.33941
1.33974
1.34235
1.34902
1.36249
1.37504
1.38418
1.38977
1.39001
1.3897
1.38871
1.38662
1.38358
1.38093
1.3787
1.37883
1.37968
1.3824
1.3894
1.40619
1.44504
1.53285
1.73314
2.179
3.16584
5.22428
5.84218
5.75493
5.50262
5.11199
4.7668
4.52732
4.37469
4.29205
4.26451
4.26116
4.26717
4.28662
4.32587
4.35559
4.37341
4.37314
4.36922
4.35725
4.33148
4.29474
4.25388
4.21118
4.1673
4.12186
4.07512
4.02664
3.97683
3.92549
3.87338
3.82036
3.76716
3.71328
3.65969
3.60592
3.55258
3.4992
3.44646
3.39376
3.34183
3.29
3.23908
3.18836
3.13865
3.0892
3.04083
2.99276
2.94581
2.8992
2.85371
2.80859
2.76456
2.72093
2.67837
2.63623
2.59513
2.55463
2.51523
2.47749
2.44187
2.41588
5.70092
5.01005
4.35944
3.78145
3.28778
2.87601
2.53728
2.26097
2.03636
1.85493
1.7092
1.59381
1.50408
1.4369
1.3881
1.36002
1.34565
1.34596
1.34826
1.35409
1.36592
1.37746
1.38706
1.39275
1.39264
1.39191
1.39008
1.38642
1.3828
1.38291
1.38398
1.38771
1.3975
1.4207
1.47307
1.5874
1.83183
2.3401
3.19113
4.26658
5.29362
5.60173
5.55425
5.39302
5.07283
4.81572
4.57528
4.39911
4.2902
4.23234
4.21301
4.20873
4.21408
4.22976
4.25939
4.27998
4.28798
4.28604
4.27819
4.26001
4.22506
4.18446
4.14008
4.09418
4.0478
4.00033
3.95196
3.90219
3.85171
3.80019
3.7483
3.69589
3.64348
3.59072
3.53828
3.48561
3.43351
3.38137
3.33001
3.27871
3.2283
3.17806
3.1288
3.07977
3.0318
2.98411
2.93752
2.89127
2.8461
2.80131
2.7576
2.71426
2.67198
2.63011
2.58926
2.54897
2.50974
2.47205
2.43642
2.40992
5.76942
5.15564
4.56393
4.02222
3.54425
3.13297
2.78453
2.49241
2.24881
2.0466
1.87928
1.74149
1.62885
1.5382
1.4672
1.41358
1.37546
1.35431
1.34476
1.34515
1.34721
1.3521
1.36175
1.36997
1.37621
1.38024
1.38127
1.38114
1.3809
1.38144
1.38378
1.39062
1.4077
1.44714
1.53405
1.71886
2.0996
2.78119
3.28976
3.73062
4.2481
4.8364
5.2249
5.25386
5.19621
5.04321
4.80206
4.61103
4.43257
4.29831
4.21739
4.17459
4.15567
4.14909
4.15286
4.16374
4.18416
4.19788
4.19726
4.193
4.18067
4.15452
4.11359
4.06787
4.02088
3.97307
3.925
3.8762
3.82722
3.77741
3.72738
3.67657
3.62562
3.57399
3.52251
3.47064
3.41928
3.36781
3.31708
3.26638
3.21655
3.16683
3.11808
3.06953
3.02201
2.97476
2.92857
2.88271
2.83792
2.79348
2.7501
2.70708
2.66511
2.62352
2.58295
2.54287
2.50386
2.46626
2.43069
2.40381
5.82096
5.26934
4.72924
4.2237
3.76624
3.36246
3.01189
2.71107
2.45468
2.23729
2.05346
1.8986
1.76861
1.66027
1.57112
1.49886
1.44277
1.39996
1.36951
1.35273
1.3453
1.34571
1.34762
1.35213
1.36088
1.36914
1.3759
1.37973
1.38153
1.38482
1.39185
1.40729
1.44118
1.51464
1.66987
1.98687
2.62124
3.12842
3.36063
3.52073
3.72715
4.01295
4.39917
4.73869
4.94834
4.93641
4.88582
4.77243
4.58907
4.44923
4.32263
4.21324
4.1464
4.11217
4.08908
4.08006
4.08278
4.09028
4.10393
4.10705
4.10474
4.09636
4.07687
4.039
3.9945
3.94627
3.89735
3.84858
3.80042
3.75204
3.70368
3.65446
3.60498
3.55464
3.50431
3.45345
3.40299
3.35231
3.30231
3.25229
3.20309
3.15399
3.1058
3.05779
3.01075
2.96398
2.91824
2.8728
2.82841
2.78436
2.74135
2.69869
2.65706
2.61578
2.57552
2.53572
2.49698
2.45954
2.42413
2.39695
5.86047
5.35978
4.86439
4.393
3.95812
3.56622
3.21896
2.91501
2.651
2.42312
2.22694
2.05868
1.9146
1.79171
1.68741
1.59957
1.52677
1.46728
1.42117
1.38595
1.36149
1.34784
1.34258
1.34299
1.34477
1.34887
1.35613
1.36425
1.37271
1.38187
1.39717
1.42851
1.49404
1.63058
1.91081
2.47879
3.06601
3.31661
3.40024
3.44453
3.5077
3.61
3.76503
3.97073
4.26194
4.51132
4.67998
4.67732
4.64691
4.56981
4.42606
4.3169
4.21999
4.13075
4.07253
4.04046
4.01677
4.00429
4.00605
4.01086
4.01401
4.01268
4.00698
3.99243
3.96237
3.91836
3.8702
3.82159
3.77367
3.72578
3.67826
3.63018
3.58201
3.53302
3.484
3.43435
3.38497
3.33525
3.28611
3.23686
3.18836
3.13993
3.09235
3.04495
2.99847
2.95224
2.90699
2.86203
2.81809
2.77444
2.73183
2.68954
2.64827
2.60733
2.5674
2.52791
2.48945
2.45222
2.41701
2.38959
5.89228
5.43327
4.97632
4.53651
4.12452
3.74707
3.40662
3.10366
2.836
2.60136
2.39621
2.2176
2.06228
1.9276
1.81109
1.71074
1.62494
1.55227
1.49187
1.4425
1.40437
1.37521
1.35536
1.34396
1.34129
1.34214
1.34505
1.35155
1.36458
1.38305
1.41266
1.4725
1.5946
1.84354
2.34845
2.99965
3.31343
3.40152
3.41919
3.41832
3.41632
3.42294
3.44922
3.51472
3.64605
3.83629
4.08333
4.2941
4.4426
4.4664
4.44758
4.39737
4.2955
4.19687
4.11872
4.04974
3.99477
3.96166
3.93863
3.92354
3.92102
3.92114
3.92022
3.91605
3.90459
3.87924
3.83959
3.7944
3.74778
3.70018
3.65281
3.60509
3.55762
3.5096
3.46172
3.41326
3.36505
3.31642
3.26825
3.21989
3.17219
3.12449
3.07758
3.03081
2.98493
2.93926
2.89454
2.85008
2.80661
2.76342
2.72124
2.67934
2.63847
2.5979
2.55834
2.51918
2.48107
2.44408
2.40914
2.38153
5.91923
5.49351
5.07096
4.66053
4.27092
3.90888
3.57751
3.27811
3.00986
2.77123
2.55989
2.37336
2.20916
2.06481
1.93827
1.82747
1.73096
1.64713
1.57517
1.51379
1.46279
1.42104
1.38871
1.36492
1.34838
1.34441
1.3458
1.35079
1.36287
1.38847
1.44075
1.54728
1.76375
2.2022
2.87622
3.28776
3.41555
3.43159
3.42557
3.40761
3.36847
3.31892
3.29564
3.30221
3.32787
3.38992
3.51469
3.68085
3.88755
4.08053
4.21766
4.27836
4.26939
4.23921
4.17859
4.09086
4.02015
3.96074
3.91241
3.87718
3.85165
3.83633
3.83148
3.8294
3.8246
3.81357
3.79088
3.7568
3.71686
3.67229
3.62612
3.57886
3.5318
3.48438
3.43738
3.39003
3.34304
3.29565
3.24866
3.20138
3.15462
3.10777
3.06162
3.01553
2.97028
2.9252
2.88105
2.83711
2.79415
2.75142
2.70971
2.66824
2.6278
2.58762
2.54847
2.50967
2.47194
2.43522
2.4006
2.37284
5.94686
5.54913
5.15569
4.77069
4.40188
4.05487
3.73333
3.439
3.17204
2.93158
2.71617
2.52385
2.35268
2.20059
2.06578
1.94631
1.84094
1.74789
1.66652
1.59535
1.53411
1.48189
1.43831
1.40343
1.37667
1.36181
1.36304
1.36911
1.38592
1.425
1.50943
1.6854
2.04242
2.71146
3.21871
3.40957
3.4431
3.43927
3.42438
3.38887
3.32276
3.26031
3.21035
3.1771
3.17122
3.17847
3.20261
3.25785
3.36674
3.51138
3.68631
3.86536
4.00356
4.09709
4.10908
4.09675
4.06434
3.9972
3.92636
3.87048
3.82467
3.78774
3.76115
3.74569
3.73876
3.73307
3.72304
3.70291
3.67436
3.63755
3.59592
3.55102
3.50511
3.45837
3.41194
3.36529
3.3192
3.27288
3.22705
3.18095
3.13533
3.0895
3.04427
2.99899
2.95447
2.91003
2.86647
2.82307
2.78065
2.73841
2.69718
2.65617
2.6162
2.57644
2.53774
2.49932
2.46203
2.42562
2.39135
2.36348
5.9825
5.60508
5.23453
4.87124
4.52088
4.18807
3.87625
3.58776
3.3233
3.08263
2.86472
2.66844
2.49188
2.33374
2.19214
2.06554
1.95275
1.85198
1.76274
1.68339
1.61367
1.5527
1.49981
1.45605
1.41973
1.39888
1.40075
1.41018
1.43725
1.50191
1.64305
1.93558
2.52818
3.10292
3.38009
3.44572
3.44442
3.43325
3.40222
3.33909
3.27221
3.21272
3.16054
3.11576
3.0798
3.05336
3.04762
3.05347
3.07267
3.11666
3.20491
3.32999
3.48382
3.65011
3.803
3.91032
3.97096
3.96442
3.94268
3.90625
3.84262
3.78045
3.73195
3.69508
3.66794
3.65204
3.64246
3.63073
3.61429
3.58844
3.55652
3.51802
3.47606
3.43146
3.38616
3.34012
3.29454
3.24884
3.20382
3.15868
3.11414
3.06941
3.02525
2.98094
2.9373
2.89363
2.85078
2.808
2.76615
2.72444
2.68373
2.64321
2.60371
2.56444
2.5262
2.48816
2.45138
2.41531
2.38143
2.3535
6.03583
5.66499
5.31032
4.96528
4.62991
4.30942
4.00715
3.72487
3.46373
3.22414
3.00504
2.80629
2.6259
2.46303
2.31614
2.1836
2.06469
1.9574
1.8615
1.77527
1.69844
1.63036
1.56966
1.5199
1.475
1.45918
1.46319
1.48038
1.52813
1.64071
1.88345
2.38528
3.00428
3.34511
3.44979
3.451
3.44047
3.40943
3.34553
3.2788
3.22049
3.168
3.11907
3.07262
3.02879
2.98952
2.95551
2.93069
2.91911
2.92307
2.93716
2.9706
3.03916
3.14535
3.28216
3.44109
3.6025
3.73287
3.82305
3.84607
3.83692
3.81128
3.75577
3.68869
3.63584
3.59573
3.56772
3.54861
3.5337
3.51689
3.49669
3.46917
3.43671
3.39868
3.35767
3.31413
3.26988
3.22486
3.18031
3.13566
3.09176
3.04782
3.00459
2.96123
2.91857
2.87579
2.83378
2.79175
2.75059
2.7095
2.66937
2.62939
2.59041
2.55162
2.51388
2.47634
2.43997
2.4043
2.37084
2.34289
6.11654
5.73171
5.38364
5.05099
4.72937
4.42006
4.12691
3.85159
3.59422
3.35682
3.13777
2.93753
2.75476
2.58813
2.43724
2.29977
2.17579
2.063
1.96141
1.86937
1.78649
1.7125
1.6459
1.59193
1.54394
1.54442
1.55404
1.58724
1.67586
1.87491
2.29467
2.95103
3.3406
3.47562
3.47804
3.467
3.43064
3.35554
3.28271
3.22169
3.17013
3.12191
3.07594
3.03075
2.98625
2.94281
2.90146
2.86364
2.83002
2.80561
2.78789
2.7906
2.80059
2.82508
2.87445
2.96548
3.08803
3.23993
3.40377
3.56062
3.67159
3.74178
3.73469
3.71245
3.67808
3.61511
3.55393
3.50542
3.46974
3.44438
3.42404
3.40276
3.37992
3.35138
3.31877
3.28151
3.2416
3.19933
3.15634
3.11254
3.06917
3.02568
2.98299
2.9403
2.89842
2.8565
2.81535
2.77417
2.7338
2.69346
2.65401
2.61466
2.57628
2.53805
2.50082
2.4638
2.4279
2.39264
2.35963
2.33171
6.19882
5.8048
5.45586
5.13138
4.82071
4.52325
4.23737
3.96858
3.71599
3.48098
3.26345
3.06246
2.8784
2.70918
2.55496
2.41381
2.28527
2.16813
2.06143
1.96454
1.87666
1.79741
1.72864
1.66901
1.64245
1.64796
1.67292
1.74398
1.91066
2.26235
2.94107
3.38368
3.54146
3.5406
3.52661
3.481
3.39171
3.31237
3.24239
3.18064
3.1258
3.07639
3.03124
2.98667
2.94272
2.89922
2.85636
2.81447
2.77471
2.73757
2.70485
2.67924
2.65863
2.65832
2.6635
2.68043
2.71792
2.79287
2.90283
3.04574
3.21189
3.3877
3.52603
3.63341
3.63366
3.62079
3.58913
3.52349
3.4627
3.41284
3.37265
3.34183
3.31625
3.29098
3.26517
3.23569
3.20296
3.16671
3.12805
3.08722
3.04567
3.00322
2.96114
2.91893
2.87753
2.8362
2.79575
2.75534
2.71577
2.67623
2.63755
2.59894
2.56124
2.52365
2.48704
2.45052
2.41519
2.38037
2.34782
2.31997
6.32442
5.90036
5.5339
5.20953
4.90587
4.61678
4.34022
4.07733
3.83018
3.59831
3.38254
3.18214
2.997
2.82641
2.66934
2.52534
2.39302
2.27201
2.16115
2.05997
1.96807
1.88576
1.8156
1.76385
1.76582
1.78327
1.84176
1.98805
2.3051
2.94971
3.46323
3.65294
3.65112
3.63138
3.57364
3.47035
3.37568
3.29516
3.22481
3.16147
3.10248
3.04677
2.99462
2.94644
2.90108
2.85688
2.81333
2.77056
2.72871
2.68813
2.64954
2.61317
2.58124
2.55388
2.5336
2.52591
2.52955
2.54188
2.57092
2.63096
2.72885
2.8616
3.02919
3.21788
3.38558
3.51564
3.53456
3.52346
3.49261
3.43061
3.37082
3.31982
3.27572
3.2401
3.20995
3.18142
3.15315
3.12289
3.09036
3.05494
3.01757
2.97811
2.93801
2.89698
2.85632
2.81553
2.77558
2.73574
2.69681
2.65799
2.62005
2.5822
2.54524
2.50836
2.47243
2.43654
2.4018
2.36748
2.33544
2.3077
6.35223
6.00183
5.61987
5.28841
4.98814
4.70577
4.4369
4.18109
3.93816
3.70986
3.49613
3.29671
3.1114
2.93957
2.78074
2.63403
2.49892
2.37439
2.26019
2.1556
2.06066
1.97914
1.90981
1.89776
1.91018
1.95787
2.0895
2.38391
2.99592
3.5872
3.81648
3.81405
3.78892
3.7179
3.58661
3.46883
3.3727
3.29134
3.22009
3.15555
3.09321
3.03334
2.97559
2.92012
2.86851
2.82063
2.7745
2.73003
2.68687
2.64487
2.60402
2.56468
2.52709
2.49181
2.46035
2.43229
2.41235
2.39892
2.40131
2.41053
2.43337
2.4804
2.56585
2.69073
2.85899
3.05593
3.25142
3.403
3.43244
3.42223
3.39318
3.33453
3.27547
3.22434
3.17806
3.13922
3.10585
3.07473
3.04479
3.01374
2.98132
2.94653
2.91032
2.87217
2.83357
2.79409
2.75501
2.71581
2.67744
2.63919
2.60186
2.56467
2.5284
2.49222
2.45698
2.42181
2.38768
2.3539
2.32243
2.29487
6.31897
6.10894
5.71984
5.37383
5.07033
4.79182
4.52895
4.27867
4.04157
3.81649
3.60511
3.40681
3.22168
3.0492
2.88882
2.7402
2.60251
2.47536
2.35837
2.2514
2.15728
2.07661
2.04257
2.05163
2.0926
2.21039
2.48481
3.06461
3.74882
4.02678
4.02434
3.99466
3.90926
3.75291
3.61127
3.49317
3.394
3.3072
3.22948
3.15748
3.09126
3.02924
2.96758
2.90764
2.8498
2.79459
2.74346
2.69576
2.6501
2.60613
2.56368
2.52265
2.48297
2.44491
2.40845
2.37445
2.34336
2.31565
2.29537
2.27835
2.28006
2.28666
2.304
2.34161
2.41714
2.5353
2.70223
2.9051
3.12727
3.29095
3.32843
3.31896
3.29126
3.23505
3.17791
3.12758
3.08019
3.03937
3.00378
2.97076
2.93955
2.90795
2.87572
2.84152
2.80658
2.76977
2.73281
2.69501
2.6576
2.62006
2.58333
2.5467
2.511
2.47544
2.4408
2.4063
2.37281
2.33963
2.30874
2.28143
6.22216
6.10683
5.84019
5.47542
5.15852
4.87812
4.61888
4.37353
4.14042
3.91933
3.71
3.51317
3.32836
3.15548
2.99404
2.84375
2.70416
2.57495
2.45612
2.34994
2.25805
2.20346
2.2092
2.24301
2.34761
2.60296
3.1505
3.93378
4.27298
4.27149
4.23924
4.14131
3.96
3.79522
3.65768
3.53995
3.43649
3.34269
3.25681
3.17657
3.10192
3.03118
2.96547
2.90323
2.84127
2.78146
2.7243
2.67069
2.62078
2.57356
2.52861
2.48555
2.44419
2.40437
2.36608
2.3294
2.29433
2.26164
2.23119
2.20439
2.18323
2.16544
2.16484
2.16896
2.18294
2.21588
2.28233
2.39353
2.56124
2.77166
3.01118
3.17785
3.22268
3.21371
3.18728
3.13381
3.07894
3.0295
2.982
2.94015
2.90336
2.86929
2.83745
2.80562
2.77387
2.74048
2.70677
2.67144
2.63606
2.59992
2.56419
2.52833
2.49324
2.45824
2.42415
2.39021
2.35731
2.32467
2.29436
2.26734
6.11763
6.06768
5.90882
5.58328
5.25436
4.96761
4.70876
4.46672
4.2371
4.01893
3.81227
3.61621
3.43178
3.25867
3.09644
2.94499
2.80402
2.67375
2.5554
2.45379
2.37845
2.38113
2.40886
2.50268
2.74452
3.26365
4.14458
4.54949
4.55519
4.51911
4.40594
4.19991
4.01305
3.8556
3.7207
3.60054
3.49144
3.3902
3.29605
3.2074
3.12445
3.04597
2.97265
2.90297
2.83861
2.77607
2.7153
2.65672
2.60097
2.54911
2.50069
2.45472
2.41093
2.3691
2.32907
2.29067
2.25388
2.21866
2.18504
2.15361
2.12405
2.09819
2.07647
2.05916
2.05553
2.05888
2.07094
2.10038
2.161
2.26678
2.4378
2.65618
2.90855
3.06781
3.11768
3.10892
3.08305
3.03107
2.97898
2.93025
2.88377
2.8419
2.80492
2.77064
2.7388
2.7072
2.676
2.64359
2.61098
2.57717
2.54326
2.50879
2.47474
2.44054
2.40709
2.3737
2.34137
2.30921
2.27945
2.25271
5.90065
5.96699
5.89481
5.70642
5.36911
5.06657
4.80153
4.55934
4.33173
4.11551
3.9104
3.71582
3.53188
3.35889
3.19634
3.04417
2.90299
2.77301
2.66178
2.56856
2.56488
2.58774
2.67102
2.89799
3.3821
4.35024
4.83862
4.86379
4.82374
4.69886
4.46831
4.25808
4.08156
3.92918
3.79357
3.66908
3.55371
3.44515
3.3433
3.24689
3.15631
3.07051
2.99001
2.91378
2.8424
2.77497
2.7123
2.65045
2.59121
2.53444
2.48102
2.43125
2.38429
2.3398
2.29751
2.25718
2.21867
2.1818
2.14655
2.1128
2.08064
2.05049
2.02199
1.99711
1.97537
1.95868
1.9532
1.95609
1.96693
1.99406
2.05079
2.15503
2.327
2.55121
2.81652
2.96224
3.01279
3.00409
2.97868
2.92827
2.87896
2.83161
2.78655
2.74558
2.70912
2.6752
2.64364
2.61252
2.58197
2.55061
2.51913
2.48677
2.45444
2.42161
2.38922
2.35665
2.32501
2.29338
2.26421
2.23773
5.3824
5.85077
5.83569
5.73477
5.50366
5.18329
4.90163
4.65288
4.42434
4.20963
4.00585
3.81285
3.62973
3.4565
3.29394
3.14221
3.00194
2.87935
2.77668
2.75573
2.77688
2.8584
3.08204
3.57327
4.56879
5.1433
5.19883
5.15615
5.01868
4.76181
4.52827
4.33152
4.16231
4.01064
3.87165
3.74165
3.6197
3.50419
3.39529
3.29192
3.19453
3.1021
3.01517
2.93272
2.8553
2.78204
2.71316
2.64861
2.58743
2.52755
2.47037
2.41581
2.36495
2.31728
2.27218
2.22939
2.18871
2.14997
2.11303
2.07772
2.04401
2.01179
1.9811
1.95231
1.92503
1.90119
1.87994
1.86384
1.85763
1.86026
1.87039
1.89621
1.95051
2.05817
2.23134
2.45286
2.72738
2.85922
2.90724
2.89881
2.87466
2.82689
2.78024
2.73489
2.69159
2.65188
2.61622
2.58295
2.55191
2.52152
2.49175
2.46152
2.43132
2.40042
2.36969
2.33844
2.30793
2.27709
2.24867
2.22258
4.21257
5.54601
5.74947
5.70824
5.57786
5.30581
5.00897
4.74937
4.51709
4.30206
4.09934
3.90719
3.72515
3.55296
3.39124
3.24062
3.10776
2.99507
2.95917
2.97859
3.05839
3.28284
3.78919
4.82678
5.49593
5.57174
5.52419
5.36766
5.08192
4.82222
4.6049
4.41751
4.2501
4.09568
3.95168
3.81558
3.68719
3.56518
3.44993
3.34035
3.23693
3.13864
3.04598
2.95794
2.8751
2.79645
2.72257
2.65262
2.5869
2.52527
2.46568
2.40821
2.35344
2.30183
2.25355
2.20791
2.16468
2.12366
2.0847
2.04764
2.01232
1.97861
1.94647
1.91578
1.88656
1.85919
1.83317
1.81042
1.79003
1.77445
1.76857
1.77112
1.78105
1.80712
1.86163
1.97199
2.14924
2.37262
2.64022
2.76065
2.80418
2.79593
2.77279
2.72792
2.68412
2.64079
2.59934
2.56104
2.52641
2.49403
2.46385
2.43437
2.40567
2.37663
2.34786
2.31833
2.28951
2.25984
2.2326
2.20723
2.71441
4.82254
5.5642
5.63127
5.56967
5.41468
5.12333
4.85185
4.61255
4.39501
4.19211
4.00045
3.819
3.64798
3.48806
3.34539
3.22339
3.17343
3.1913
3.26953
3.4952
4.01392
5.0862
5.87433
5.97859
5.92414
5.74544
5.42727
5.14042
4.90057
4.69488
4.51033
4.34061
4.18137
4.03148
3.88918
3.75464
3.62665
3.50566
3.39054
3.28176
3.17823
3.08048
2.98747
2.89977
2.81634
2.73785
2.66321
2.59316
2.52659
2.4644
2.40526
2.34802
2.29315
2.24116
2.19253
2.14657
2.10303
2.06178
2.02265
1.98548
1.95013
1.91649
1.88441
1.85385
1.82476
1.797
1.77111
1.7464
1.72474
1.70557
1.69038
1.68573
1.68839
1.6987
1.72555
1.78213
1.89477
2.07231
2.30655
2.5589
2.66554
2.70447
2.69643
2.67432
2.63182
2.59086
2.54973
2.51032
2.47365
2.44036
2.40912
2.38002
2.35161
2.32416
2.29633
2.26926
2.2412
2.21542
2.19132
1.96864
3.31748
5.09012
5.51451
5.50985
5.43444
5.25491
4.97164
4.71604
4.49043
4.28463
4.09257
3.91213
3.74333
3.59084
3.46041
3.39904
3.4159
3.4942
3.72487
4.26105
5.37864
6.2689
6.40251
6.34303
6.1463
5.79611