/*--------------------------------*- C++ -*----------------------------------*\
  =========                 |
  \\      /  F ield         | OpenFOAM: The Open Source CFD Toolbox
   \\    /   O peration     | Website:  https://openfoam.org
    \\  /    A nd           | Version:  9
     \\/     M anipulation  |
\*---------------------------------------------------------------------------*/
FoamFile
{
    format      ascii;
    class       volScalarField;
    location    "2.5";
    object      rho;
}
// * * * * * * * * * * * * * * * * * * * * * * * * * * * * * * * * * * * * * //

dimensions      [1 -3 0 0 0 0 0];

internalField   nonuniform List<scalar> 
5250
(
1.40001
1.40002
1.40006
1.40013
1.40036
1.40079
1.40221
1.40479
1.41331
1.42937
1.47511
1.56791
1.77644
2.22202
3.95525
6.03046
5.77708
5.63372
5.65618
5.74633
5.83826
5.89997
5.94691
5.98778
5.99467
1.40001
1.40002
1.40005
1.40014
1.40033
1.40086
1.40196
1.40526
1.41185
1.43107
1.47096
1.56806
1.76865
2.20901
3.89912
6.03918
5.78032
5.63238
5.65509
5.74543
5.8378
5.89994
5.94762
5.98943
5.99738
1.40001
1.40002
1.40005
1.40014
1.40031
1.40082
1.40194
1.40487
1.41191
1.42905
1.46951
1.56174
1.75718
2.18162
3.77286
6.05702
5.78755
5.6272
5.64861
5.73732
5.82846
5.89044
5.93909
5.98123
5.98935
1.40001
1.40002
1.40005
1.40012
1.40033
1.40069
1.40202
1.40423
1.41203
1.42609
1.46797
1.55096
1.74227
2.13953
3.58458
6.08348
5.80236
5.61847
5.63527
5.71935
5.81212
5.87241
5.91628
5.95718
5.9666
1.40001
1.40002
1.40004
1.40013
1.40027
1.40075
1.40165
1.40444
1.41011
1.42632
1.46014
1.54492
1.71756
2.09418
3.34338
6.09657
5.81988
5.61148
5.62301
5.69808
5.78611
5.8438
5.88727
5.92606
5.93439
1.40001
1.40002
1.40004
1.40012
1.40024
1.40071
1.40146
1.40429
1.40893
1.42508
1.45457
1.53554
1.69468
2.04197
3.10663
6.05714
5.81602
5.59206
5.59878
5.66231
5.74845
5.79545
5.83508
5.87485
5.89043
1.40001
1.40002
1.40004
1.40009
1.40027
1.40055
1.40161
1.40337
1.40959
1.42062
1.45478
1.52078
1.67978
1.99358
2.93696
5.8928
5.75426
5.55958
5.56219
5.60928
5.68985
5.73728
5.76634
5.79928
5.81631
1.40001
1.40002
1.40004
1.4001
1.40021
1.4006
1.40126
1.40365
1.40758
1.42148
1.44652
1.51682
1.6555
1.95493
2.77707
5.64219
5.64143
5.53667
5.52577
5.54773
5.61254
5.65232
5.67376
5.69204
5.70846
1.40001
1.40001
1.40004
1.40008
1.40021
1.40049
1.40131
1.40289
1.40794
1.41745
1.44594
1.50279
1.63883
1.91285
2.62405
5.31785
5.57257
5.5096
5.46861
5.4782
5.51893
5.54307
5.54449
5.53888
5.53288
1.40001
1.40001
1.40003
1.40007
1.40019
1.40044
1.40113
1.40274
1.4067
1.41654
1.43984
1.49436
1.61554
1.86878
2.47815
4.91504
5.52888
5.47829
5.4029
5.40372
5.41748
5.41463
5.38991
5.32675
5.25687
1.40001
1.40001
1.40003
1.40007
1.40015
1.40042
1.40094
1.40247
1.40577
1.41472
1.4346
1.4844
1.59005
1.82084
2.33284
4.43585
5.50363
5.45367
5.33331
5.31095
5.30006
5.26778
5.17708
4.95615
4.29307
1.40001
1.40001
1.40003
1.40005
1.40015
1.40032
1.40089
1.40194
1.40527
1.41185
1.43096
1.47022
1.56751
1.76413
2.1968
3.87917
5.50209
5.44099
5.28664
5.22667
5.19002
5.1172
4.9625
4.6403
3.91975
1.40001
1.40001
1.40002
1.40005
1.40011
1.40029
1.40069
1.40169
1.40422
1.41005
1.42515
1.45918
1.53894
1.70915
2.06345
3.25887
5.47888
5.42276
5.2603
5.15184
5.08443
4.97403
4.76833
4.43012
3.84396
1.40001
1.40001
1.40002
1.40004
1.40011
1.40021
1.40061
1.40128
1.40362
1.4078
1.42122
1.44706
1.51639
1.65478
1.95351
2.75263
5.30526
5.34479
5.24506
5.08986
4.98768
4.8566
4.63302
4.31205
3.85345
1.40001
1.40001
1.40002
1.40004
1.40007
1.40021
1.40043
1.40121
1.40261
1.40715
1.41586
1.44145
1.49271
1.61766
1.86628
2.47291
4.80198
5.23605
5.17776
5.02977
4.89661
4.75793
4.53748
4.24307
3.86694
1.40001
1.40001
1.40001
1.40003
1.40007
1.40014
1.40041
1.40084
1.40242
1.40506
1.41429
1.43087
1.4797
1.57478
1.79231
2.25058
4.10337
5.14614
5.11102
4.99251
4.82403
4.6749
4.47011
4.1947
3.86933
1.40001
1.40001
1.40001
1.40002
1.40006
1.40012
1.40031
1.40069
1.40179
1.40423
1.41058
1.42532
1.46133
1.54091
1.71536
2.06757
3.34626
5.08614
5.06891
4.98338
4.78049
4.6077
4.41744
4.17029
3.87504
1.40001
1.40001
1.40001
1.40002
1.40004
1.40009
1.40024
1.4005
1.40142
1.40304
1.40836
1.41837
1.44797
1.50614
1.64684
1.91639
2.64211
4.88431
5.04396
4.96612
4.77421
4.56455
4.37126
4.1468
3.88456
1.40001
1.40001
1.40001
1.40002
1.40003
1.40008
1.40017
1.40043
1.401
1.40248
1.4061
1.41457
1.43587
1.48387
1.59217
1.81803
2.32409
4.29043
4.94807
4.90359
4.76676
4.54451
4.34243
4.12928
3.88848
1.40001
1.40001
1.40001
1.40001
1.40002
1.40006
1.40012
1.40033
1.4007
1.40199
1.40417
1.41175
1.42521
1.46603
1.54426
1.72854
2.08587
3.46656
4.85972
4.84141
4.75395
4.55083
4.33076
4.12331
3.89938
1.40001
1.40001
1.40001
1.40001
1.40002
1.40004
1.40009
1.40022
1.40056
1.40128
1.40338
1.40753
1.4198
1.44467
1.50813
1.63957
1.90008
2.59391
4.64032
4.82776
4.75576
4.57737
4.33519
4.12162
3.91237
1.40001
1.40001
1.40001
1.40001
1.40002
1.40003
1.40007
1.40018
1.40036
1.40103
1.40215
1.40607
1.41297
1.43492
1.47642
1.58319
1.78844
2.24957
4.01103
4.74643
4.71122
4.59554
4.35902
4.13542
3.92992
1.40001
1.40001
1.40001
1.40001
1.40001
1.40003
1.40005
1.40013
1.40026
1.40073
1.40152
1.4043
1.40916
1.42488
1.45457
1.53366
1.68866
2.00603
3.10874
4.59779
4.65012
4.58383
4.40039
4.16755
3.95358
1.40001
1.40001
1.40001
1.40001
1.40001
1.40002
1.40004
1.40008
1.40021
1.40045
1.40117
1.40267
1.40684
1.41595
1.43945
1.49047
1.60777
1.83049
2.37895
4.20934
4.61469
4.56877
4.43643
4.21022
3.99044
1.40001
1.40001
1.40001
1.40001
1.40001
1.40001
1.40003
1.40006
1.40014
1.40032
1.40076
1.40193
1.40442
1.41151
1.42593
1.46489
1.54487
1.72177
2.06569
3.37721
4.50399
4.50882
4.448
4.27506
4.03346
1.40001
1.40001
1.40001
1.40001
1.40001
1.40001
1.40002
1.40004
1.40009
1.40023
1.40048
1.40134
1.40278
1.40779
1.4165
1.44398
1.49504
1.62298
1.84348
2.43843
4.21124
4.49847
4.45303
4.33205
4.09723
1.40001
1.40001
1.40001
1.40001
1.40001
1.40001
1.40001
1.40003
1.40006
1.40015
1.40031
1.40089
1.40183
1.40516
1.4109
1.42957
1.46393
1.55544
1.72661
2.09105
3.4643
4.40464
4.40563
4.34976
4.19763
1.40001
1.40001
1.40001
1.40001
1.40001
1.40001
1.40001
1.40002
1.40004
1.4001
1.40022
1.40053
1.40128
1.40302
1.40758
1.41751
1.44314
1.49826
1.62145
1.84143
2.43437
4.13485
4.39639
4.35934
4.25925
1.40001
1.40001
1.40001
1.40001
1.40001
1.40001
1.40001
1.40002
1.40003
1.40007
1.40013
1.40036
1.40079
1.40202
1.4047
1.41166
1.42749
1.46591
1.54897
1.72366
2.07193
3.40988
4.29381
4.32297
4.27455
1.40001
1.40001
1.40001
1.40001
1.40001
1.40001
1.40001
1.40001
1.40002
1.40004
1.40009
1.40022
1.40049
1.40131
1.40276
1.40765
1.41609
1.44283
1.49216
1.61479
1.81904
2.37861
3.99788
4.3008
4.27502
1.40001
1.40001
1.40001
1.40001
1.40001
1.40001
1.40001
1.40001
1.40001
1.40003
1.40006
1.40013
1.40034
1.40074
1.4019
1.40442
1.41089
1.42577
1.46149
1.53952
1.70277
2.02182
3.22529
4.16281
4.23669
1.40001
1.40001
1.40001
1.40001
1.40001
1.40001
1.40001
1.40001
1.40001
1.40002
1.40004
1.40008
1.40021
1.40044
1.40121
1.40252
1.40698
1.41467
1.43922
1.48379
1.59751
1.78488
2.28032
3.79526
4.19554
1.40001
1.40001
1.40001
1.40001
1.40001
1.40001
1.40001
1.40001
1.40001
1.40001
1.40002
1.40006
1.40012
1.40029
1.40069
1.40162
1.40407
1.40923
1.42352
1.4528
1.52525
1.66698
1.9432
2.91238
3.99759
1.40001
1.40001
1.40001
1.40001
1.40001
1.40001
1.40001
1.40001
1.40001
1.40001
1.40002
1.40004
1.40007
1.40018
1.40038
1.40103
1.40222
1.40586
1.413
1.43307
1.47342
1.5709
1.74122
2.15059
3.50864
1.40001
1.40001
1.40001
1.40001
1.40001
1.40001
1.40001
1.40001
1.40001
1.40001
1.40001
1.40002
1.40005
1.4001
1.40025
1.40054
1.40141
1.40316
1.408
1.41836
1.44476
1.50067
1.62327
1.83561
2.48755
1.40001
1.40001
1.40001
1.40001
1.40001
1.40001
1.40001
1.40001
1.40001
1.40001
1.40001
1.40002
1.40003
1.40006
1.40014
1.40032
1.40083
1.40178
1.40485
1.41011
1.42743
1.45804
1.54172
1.68551
2.00397
1.40001
1.40001
1.40001
1.40001
1.40001
1.40001
1.40001
1.40001
1.40001
1.40001
1.40001
1.40001
1.40002
1.40004
1.40008
1.4002
1.40042
1.40115
1.40238
1.40652
1.41369
1.43629
1.4772
1.58072
1.74829
1.40001
1.40001
1.40001
1.40001
1.40001
1.40001
1.40001
1.40001
1.40001
1.40001
1.40001
1.40001
1.40001
1.40002
1.40005
1.4001
1.40027
1.40056
1.40154
1.40322
1.40874
1.41853
1.44806
1.50266
1.63104
1.40001
1.40001
1.40001
1.40001
1.40001
1.40001
1.40001
1.40001
1.40001
1.40001
1.40001
1.40001
1.40001
1.40002
1.40003
1.40007
1.40014
1.40036
1.40077
1.40197
1.40449
1.41108
1.42572
1.461
1.53653
1.40001
1.40001
1.40001
1.40001
1.40001
1.40001
1.40001
1.40001
1.40001
1.40001
1.40001
1.40001
1.40001
1.40001
1.40002
1.40004
1.40009
1.40018
1.40045
1.40104
1.40249
1.40602
1.41388
1.43375
1.47615
1.40001
1.40001
1.40001
1.40001
1.40001
1.40001
1.40001
1.40001
1.40001
1.40001
1.40001
1.40001
1.40001
1.40001
1.40001
1.40002
1.40004
1.40011
1.40023
1.40059
1.40132
1.40324
1.40764
1.41799
1.44258
1.40001
1.40001
1.40001
1.40001
1.40001
1.40001
1.40001
1.40001
1.40001
1.40001
1.40001
1.40001
1.40001
1.40001
1.40001
1.40001
1.40003
1.40006
1.40012
1.40033
1.40068
1.40183
1.40392
1.41015
1.42236
1.40001
1.40001
1.40001
1.40001
1.40001
1.40001
1.40001
1.40001
1.40001
1.40001
1.40001
1.40001
1.40001
1.40001
1.40001
1.40001
1.40002
1.40003
1.40008
1.40016
1.40041
1.40086
1.40232
1.40483
1.41298
1.40001
1.40001
1.40001
1.40001
1.40001
1.40001
1.40001
1.40001
1.40001
1.40001
1.40001
1.40001
1.40001
1.40001
1.40001
1.40001
1.40001
1.40002
1.40004
1.40009
1.4002
1.40051
1.40106
1.40285
1.40592
1.40001
1.40001
1.40001
1.40001
1.40001
1.40001
1.40001
1.40001
1.40001
1.40001
1.40001
1.40001
1.40001
1.40001
1.40001
1.40001
1.40001
1.40001
1.40002
1.40005
1.4001
1.40026
1.40057
1.40143
1.40323
1.40001
1.40001
1.40001
1.40001
1.40001
1.40001
1.40001
1.40001
1.40001
1.40001
1.40001
1.40001
1.40001
1.40001
1.40001
1.40001
1.40001
1.40001
1.40002
1.40003
1.40006
1.40013
1.4003
1.40074
1.40164
1.40001
1.40001
1.40001
1.40001
1.40001
1.40001
1.40001
1.40001
1.40001
1.40001
1.40001
1.40001
1.40001
1.40001
1.40001
1.40001
1.40001
1.40001
1.40001
1.40002
1.40003
1.40007
1.40016
1.40038
1.40089
1.40001
1.40001
1.40001
1.40001
1.40001
1.40001
1.40001
1.40001
1.40001
1.40001
1.40001
1.40001
1.40001
1.40001
1.40001
1.40001
1.40001
1.40001
1.40001
1.40001
1.40002
1.40004
1.40008
1.40021
1.40047
1.40001
1.40001
1.40001
1.40001
1.40001
1.40001
1.40001
1.40001
1.40001
1.40001
1.40001
1.40001
1.40001
1.40001
1.40001
1.40001
1.40001
1.40001
1.40001
1.40001
1.40001
1.40003
1.40006
1.40012
1.40032
1.40001
1.40001
1.40001
1.40001
1.40001
1.40001
1.40001
1.40001
1.40001
1.40001
1.40001
1.40001
1.40001
1.40001
1.40001
1.40001
1.40001
1.40001
1.40001
1.40001
1.40001
1.40002
1.40005
1.40009
1.40026
1.86916
1.01426
0.700223
0.625816
0.625737
0.659159
0.750284
0.824249
0.846993
0.846358
0.843785
0.842146
0.842371
0.843594
0.847623
0.851567
0.853351
0.853336
0.853072
0.852435
0.85127
0.850284
0.849552
0.848821
0.847867
0.846639
0.845439
0.844412
0.844309
0.84464
0.846101
0.850277
0.860949
0.886424
0.944871
1.07859
1.40968
1.7386
1.73716
1.74166
1.75307
1.77121
1.80659
1.85855
1.906
1.94994
1.98538
2.01175
2.03139
2.04428
2.05409
2.06306
2.06844
2.06996
2.06889
2.06594
2.06374
2.05773
2.05231
2.04317
2.03463
2.02272
2.01124
1.99727
1.98435
1.9692
1.95527
1.93874
1.92352
1.9055
1.88896
1.86966
1.85202
1.8318
1.81341
1.79254
1.77369
1.75233
1.73319
1.71148
1.6922
1.67032
1.65101
1.62915
1.60994
1.58829
1.5694
1.54813
1.52969
1.50888
1.49123
1.47117
1.45427
1.43486
1.41872
1.4001
1.38498
1.36786
1.35505
1.344
2.31464
1.50662
1.14911
1.00202
0.942206
0.899387
0.892508
0.896991
0.907838
0.933479
0.958151
0.967301
0.967122
0.966196
0.963548
0.96353
0.963746
0.964335
0.965562
0.965654
0.965521
0.965064
0.964051
0.962288
0.960566
0.959095
0.957635
0.956153
0.956137
0.956494
0.957672
0.961355
0.970558
0.992548
1.04266
1.1472
1.41912
1.79345
1.7963
1.7745
1.77427
1.80637
1.86467
1.9309
1.99881
2.05839
2.11126
2.15164
2.1844
2.21016
2.23188
2.24872
2.26463
2.27493
2.28102
2.28352
2.28548
2.2849
2.28353
2.27928
2.27414
2.26528
2.25607
2.24345
2.23183
2.21692
2.20384
2.18698
2.17243
2.15359
2.13769
2.11725
2.10032
2.07871
2.06089
2.03839
2.01976
1.99661
1.97729
1.95378
1.93394
1.91028
1.89012
1.86653
1.84603
1.82262
1.80214
1.77901
1.7585
1.73568
1.71502
1.69245
1.67192
1.64984
1.62973
1.60838
1.58906
1.56918
1.55235
1.53695
2.84129
2.10848
1.6376
1.33794
1.145
1.02562
0.949169
0.942472
0.94644
0.957337
0.984667
1.00983
1.02662
1.03461
1.03488
1.03459
1.03379
1.03294
1.03293
1.03287
1.03277
1.03253
1.03203
1.03098
1.02951
1.02784
1.02607
1.02441
1.02413
1.02422
1.02501
1.02787
1.03512
1.05287
1.09413
1.18314
1.38805
1.81784
1.96385
1.95204
1.94476
1.96914
2.0159
2.0666
2.12649
2.18023
2.23534
2.28031
2.3202
2.34696
2.37111
2.38718
2.40582
2.41796
2.42893
2.42965
2.43134
2.42727
2.42511
2.41671
2.41103
2.39927
2.39105
2.3761
2.36515
2.34745
2.33405
2.31416
2.29824
2.27618
2.25814
2.23461
2.2156
2.19166
2.17245
2.14853
2.12915
2.10515
2.08557
2.06155
2.04173
2.01767
1.99775
1.97373
1.95363
1.92967
1.90917
1.88543
1.86491
1.84152
1.82112
1.79805
1.77782
1.75506
1.73513
1.71276
1.69348
1.67224
1.65501
1.63868
3.14332
2.49684
2.0035
1.65158
1.41292
1.2497
1.14781
1.08256
1.04321
1.03342
1.03551
1.0415
1.05666
1.07401
1.08671
1.0924
1.09244
1.09177
1.09012
1.0876
1.08607
1.08527
1.08488
1.08443
1.08375
1.08213
1.08033
1.07827
1.07611
1.07613
1.0767
1.07851
1.08355
1.09623
1.12599
1.19384
1.32664
1.69406
2.10795
2.216
2.20863
2.21174
2.22183
2.23095
2.26097
2.29469
2.34146
2.38855
2.43318
2.46749
2.49672
2.51404
2.53267
2.54227
2.55307
2.55133
2.5522
2.54536
2.54252
2.53163
2.52397
2.50865
2.49679
2.47789
2.46281
2.44143
2.42462
2.4021
2.38437
2.36091
2.34189
2.31706
2.29661
2.27073
2.24956
2.22349
2.20233
2.17641
2.15552
2.13004
2.10946
2.08425
2.06372
2.03873
2.01833
1.99362
1.97327
1.94884
1.92872
1.90463
1.88489
1.86115
1.84181
1.81839
1.79952
1.77642
1.75817
1.73608
1.71922
1.70273
3.32893
2.7779
2.30995
1.94611
1.67455
1.4744
1.32733
1.22116
1.14562
1.09708
1.07064
1.07082
1.07293
1.0783
1.09204
1.10441
1.11353
1.11918
1.11985
1.1196
1.11882
1.11724
1.11563
1.11445
1.11346
1.11265
1.11193
1.11086
1.10907
1.10903
1.10933
1.11035
1.11403
1.12326
1.1456
1.19742
1.30873
1.55394
2.10508
2.51316
2.51148
2.49688
2.4603
2.40175
2.38367
2.40432
2.43781
2.4714
2.5136
2.55244
2.58741
2.61026
2.6298
2.63934
2.6489
2.6473
2.64557
2.63698
2.63123
2.61819
2.60843
2.59227
2.57933
2.5594
2.54255
2.51941
2.5003
2.47563
2.45535
2.42952
2.40805
2.38108
2.35873
2.33124
2.30875
2.28136
2.25912
2.23205
2.20995
2.18276
2.16076
2.13371
2.11201
2.08523
2.06395
2.03751
2.01664
1.99053
1.97013
1.94449
1.92468
1.89967
1.88045
1.85619
1.8374
1.81404
1.79568
1.77371
1.75633
1.7401
3.44424
2.9852
2.56283
2.20808
1.92359
1.7005
1.52733
1.39529
1.29495
1.22278
1.1694
1.13512
1.11518
1.11452
1.11593
1.11975
1.12974
1.14033
1.14883
1.15442
1.15469
1.15444
1.15348
1.15138
1.14884
1.14648
1.14483
1.14338
1.14157
1.14133
1.14148
1.14228
1.14529
1.1528
1.17118
1.2134
1.30756
1.48697
1.99144
2.79184
2.83758
2.83048
2.76472
2.63601
2.56052
2.53167
2.53455
2.55537
2.57623
2.60141
2.63479
2.66333
2.68458
2.69603
2.7057
2.70825
2.70944
2.69834
2.68929
2.67279
2.65983
2.64143
2.62639
2.60507
2.58726
2.56377
2.54456
2.51973
2.49909
2.47272
2.45045
2.42258
2.39918
2.37047
2.34681
2.31827
2.29491
2.26656
2.24345
2.21512
2.19234
2.16431
2.14212
2.11462
2.0931
2.06615
2.0452
2.01878
1.99829
1.97259
1.95255
1.92777
1.90822
1.88437
1.86525
1.84239
1.82364
1.80223
1.78429
1.76817
3.51856
3.13248
2.75976
2.42583
2.14387
1.91002
1.72114
1.56844
1.44694
1.3507
1.27491
1.21877
1.17663
1.15173
1.13866
1.13892
1.14032
1.14375
1.15239
1.16038
1.16655
1.17043
1.17067
1.17052
1.17002
1.16872
1.16683
1.16521
1.16344
1.16345
1.16384
1.1651
1.16839
1.1764
1.19494
1.23583
1.32606
1.50131
1.9501
2.84469
3.17245
3.16722
3.09089
2.95033
2.81712
2.71872
2.66091
2.63313
2.63152
2.63801
2.64737
2.66225
2.68631
2.70557
2.71927
2.72374
2.72763
2.72497
2.71889
2.70279
2.68864
2.66909
2.65314
2.63161
2.6139
2.59033
2.57077
2.54525
2.52391
2.49687
2.47437
2.44628
2.42319
2.39484
2.37173
2.34331
2.32031
2.29183
2.26888
2.24028
2.21744
2.18901
2.16654
2.13862
2.11662
2.08936
2.06771
2.04114
2.01972
1.99389
1.97285
1.94792
1.9274
1.90347
1.88345
1.86051
1.84101
1.81939
1.80088
1.78411
3.57716
3.24371
2.91334
2.60573
2.33333
2.09932
1.90157
1.73728
1.60072
1.48927
1.3981
1.32528
1.26778
1.22462
1.1923
1.17356
1.16313
1.16336
1.16461
1.16765
1.17529
1.18267
1.18925
1.1934
1.19347
1.19317
1.19228
1.19011
1.18731
1.18732
1.18776
1.18946
1.1941
1.20528
1.23033
1.2833
1.39127
1.6254
2.05349
2.56515
3.04282
3.20216
3.19937
3.14672
3.02193
2.9126
2.81264
2.737
2.69193
2.66945
2.66553
2.66809
2.67518
2.68568
2.70385
2.71766
2.72532
2.72658
2.72643
2.71966
2.70752
2.68852
2.67202
2.64993
2.63246
2.60929
2.5902
2.56505
2.54419
2.51757
2.49562
2.4682
2.44575
2.41773
2.39497
2.3666
2.34368
2.31506
2.29198
2.26317
2.24008
2.21144
2.1887
2.16063
2.13835
2.11097
2.08901
2.06227
2.04059
2.01441
1.99313
1.96767
1.9469
1.9224
1.90222
1.87865
1.85909
1.83671
1.81809
1.80017
3.61897
3.32707
3.03251
2.75092
2.49302
2.26415
2.0648
1.89389
1.74839
1.62545
1.52222
1.4359
1.36466
1.30651
1.26047
1.22536
1.19957
1.18505
1.17791
1.17815
1.17927
1.18181
1.1883
1.19371
1.19802
1.20095
1.20171
1.2017
1.20142
1.2016
1.20256
1.2057
1.21382
1.2327
1.27331
1.35256
1.52941
1.90322
2.17745
2.39101
2.63118
2.90542
3.1005
3.13202
3.11972
3.05914
2.95836
2.87609
2.79823
2.73769
2.70344
2.68707
2.68244
2.68268
2.68813
2.69512
2.7081
2.71775
2.71951
2.71946
2.71764
2.70645
2.69159
2.6691
2.65075
2.62656
2.6068
2.58138
2.56085
2.53469
2.51346
2.48646
2.46454
2.43682
2.41438
2.38615
2.36341
2.33494
2.31211
2.28356
2.2607
2.23222
2.20944
2.18134
2.1588
2.1313
2.10907
2.08216
2.06031
2.03392
2.0125
1.98672
1.9657
1.94063
1.9201
1.89581
1.87593
1.85285
1.83402
1.81524
3.65516
3.39426
3.12865
2.87058
2.62813
2.40776
2.21068
2.03771
1.8869
1.75679
1.64469
1.549
1.46735
1.39866
1.34131
1.2944
1.25754
1.2293
1.20835
1.1968
1.1911
1.19132
1.19233
1.19469
1.20036
1.20574
1.21039
1.21302
1.21404
1.21574
1.21927
1.22696
1.24362
1.27877
1.34464
1.49133
1.83734
2.12819
2.26044
2.34296
2.44398
2.57776
2.76138
2.93296
3.03688
3.04371
3.02935
2.98201
2.90425
2.84356
2.78948
2.73961
2.71074
2.69671
2.68862
2.68596
2.68937
2.69495
2.70439
2.70769
2.70901
2.7067
2.70093
2.68167
2.66389
2.63913
2.61879
2.59293
2.57259
2.54687
2.5263
2.49965
2.47798
2.45024
2.42789
2.39972
2.37723
2.34892
2.32627
2.2978
2.27489
2.24651
2.22362
2.19582
2.17327
2.14615
2.12391
2.09709
2.07501
2.04842
2.02665
2.00067
1.97951
1.95435
1.93388
1.90952
1.88965
1.86635
1.84745
1.82819
3.68664
3.45016
3.20771
2.96969
2.74299
2.53205
2.34034
2.16803
2.0151
1.88056
1.76253
1.65988
1.57049
1.49344
1.42706
1.3707
1.32335
1.28438
1.2538
1.2303
1.21329
1.20375
1.19959
1.19981
1.20074
1.20296
1.20754
1.21271
1.21806
1.22321
1.23121
1.24714
1.27938
1.33979
1.46888
1.76669
2.10623
2.25681
2.31058
2.33959
2.37623
2.42958
2.50239
2.60035
2.74403
2.87235
2.95873
2.96881
2.96186
2.93086
2.86892
2.81864
2.77634
2.73406
2.70804
2.69416
2.68551
2.68054
2.68314
2.68701
2.69023
2.69066
2.68962
2.68394
2.67298
2.65038
2.63031
2.60451
2.58406
2.55796
2.53725
2.51051
2.48906
2.4616
2.4397
2.4119
2.38974
2.36173
2.33924
2.3111
2.28821
2.26009
2.23692
2.20909
2.18612
2.15889
2.13644
2.10977
2.08775
2.0614
2.03966
2.01369
1.9924
1.96712
1.94649
1.92204
1.90206
1.87859
1.85956
1.83973
3.7204
3.50011
3.27717
3.05573
2.84261
2.64263
2.45645
2.28812
2.13468
1.99852
1.87636
1.7689
1.67357
1.5901
1.51676
1.45301
1.39775
1.35062
1.31087
1.27825
1.25262
1.23303
1.21907
1.21087
1.20858
1.20899
1.2105
1.21387
1.22168
1.23221
1.24765
1.27784
1.33564
1.44798
1.70477
2.07844
2.26791
2.32549
2.34369
2.35146
2.3578
2.3661
2.38223
2.41524
2.4799
2.57426
2.69811
2.80796
2.88504
2.90697
2.90239
2.88295
2.84042
2.79406
2.76008
2.72752
2.70288
2.68757
2.67777
2.67074
2.67108
2.6723
2.67387
2.6733
2.67062
2.65835
2.64202
2.6172
2.59673
2.57005
2.54888
2.52184
2.50039
2.47303
2.45136
2.42393
2.40197
2.37415
2.35134
2.323
2.29956
2.27138
2.24814
2.2207
2.198
2.17116
2.14886
2.12225
2.10016
2.07366
2.05181
2.02565
2.00423
1.97871
1.95793
1.93326
1.91327
1.88962
1.87074
1.85047
3.74932
3.54437
3.33697
3.13193
2.93046
2.73991
2.56077
2.39555
2.24451
2.10728
1.98372
1.87247
1.77325
1.68442
1.60583
1.53584
1.47458
1.42038
1.37392
1.33333
1.29999
1.27172
1.25029
1.23375
1.22189
1.21852
1.21913
1.22162
1.22789
1.24122
1.26789
1.31985
1.417
1.63446
2.01544
2.26065
2.34101
2.35949
2.36648
2.36837
2.35857
2.33806
2.33035
2.33572
2.35113
2.38253
2.44463
2.53025
2.6378
2.73989
2.81561
2.85352
2.85303
2.84333
2.81814
2.77523
2.74352
2.7149
2.69371
2.67703
2.66602
2.65897
2.65774
2.65729
2.65601
2.65124
2.64212
2.62359
2.60647
2.58152
2.56102
2.53428
2.51293
2.4856
2.46353
2.43572
2.41336
2.38579
2.36342
2.33593
2.3131
2.28534
2.26209
2.23445
2.21152
2.18445
2.16213
2.13543
2.11338
2.0867
2.06476
2.0383
2.01678
1.991
1.9702
1.94519
1.92523
1.90113
1.88231
1.86151
3.78645
3.59176
3.39538
3.20184
3.0133
2.83046
2.65809
2.49666
2.34749
2.21053
2.08584
1.97232
1.87006
1.77745
1.69463
1.61976
1.55363
1.49362
1.44174
1.39472
1.355
1.31987
1.29108
1.26713
1.24873
1.23695
1.23738
1.2402
1.2485
1.26797
1.30895
1.38692
1.55464
1.9296
2.22794
2.34547
2.37567
2.38391
2.38842
2.38138
2.35434
2.3274
2.3063
2.2933
2.29462
2.30213
2.3176
2.34724
2.40396
2.48034
2.57221
2.66755
2.74376
2.79519
2.80912
2.80627
2.79458
2.76288
2.73027
2.70181
2.68058
2.66117
2.64857
2.64072
2.63838
2.6362
2.63324
2.62293
2.61091
2.58994
2.57071
2.5442
2.52242
2.49527
2.47379
2.44697
2.42531
2.39811
2.37575
2.34814
2.32525
2.29749
2.2744
2.24667
2.22381
2.19652
2.17433
2.14755
2.12587
2.09924
2.07758
2.05098
2.02942
2.00325
1.98243
1.9571
1.93722
1.91289
1.89405
1.87283
3.8286
3.63891
3.45257
3.26793
3.08762
2.91442
2.74693
2.59014
2.44299
2.3069
2.18156
2.06725
1.96218
1.86755
1.78101
1.70273
1.63261
1.56812
1.5118
1.45969
1.41486
1.37403
1.33939
1.30936
1.28447
1.26767
1.26814
1.27223
1.28497
1.3157
1.37698
1.51106
1.83342
2.16846
2.33821
2.38779
2.39831
2.40454
2.39981
2.37541
2.34677
2.322
2.30038
2.28266
2.26927
2.25948
2.26046
2.26603
2.27821
2.30261
2.34946
2.41701
2.5007
2.59173
2.67476
2.73593
2.77049
2.77087
2.76265
2.74521
2.71525
2.68301
2.66003
2.64065
2.62849
2.61946
2.61493
2.60861
2.60156
2.58725
2.57334
2.5511
2.53181
2.50539
2.48365
2.45637
2.4345
2.40739
2.38538
2.35803
2.33555
2.30795
2.28531
2.25775
2.23524
2.20786
2.1857
2.15871
2.13702
2.11049
2.08907
2.06269
2.0413
2.01512
1.99418
1.96868
1.94867
1.92433
1.90561
1.8842
3.88511
3.69457
3.51348
3.33616
3.16069
2.99251
2.83236
2.67778
2.53423
2.39929
2.27325
2.1588
2.05145
1.95473
1.86559
1.78418
1.711
1.643
1.58302
1.52683
1.47803
1.43249
1.39317
1.35914
1.32743
1.31372
1.31479
1.32206
1.34378
1.39417
1.49963
1.75881
2.12045
2.32924
2.40288
2.4129
2.42064
2.41516
2.39066
2.36205
2.33825
2.31713
2.29848
2.28011
2.26201
2.24525
2.23047
2.2205
2.21744
2.22372
2.23305
2.25297
2.28966
2.3483
2.42216
2.50878
2.59808
2.67046
2.7221
2.73893
2.73604
2.72437
2.69886
2.66205
2.63594
2.61403
2.60158
2.59072
2.58355
2.57368
2.56402
2.548
2.53284
2.51014
2.49055
2.46434
2.44283
2.41566
2.39366
2.36626
2.34393
2.31625
2.29374
2.26619
2.244
2.21686
2.19506
2.16823
2.14661
2.12
2.0986
2.07233
2.05118
2.02527
2.00444
1.979
1.95888
1.93446
1.91573
1.89433
3.95754
3.75507
3.57235
3.39954
3.2313
3.0663
2.90981
2.76188
2.61704
2.48733
2.35993
2.24577
2.13839
2.03864
1.94925
1.86362
1.78919
1.71707
1.65473
1.59489
1.54252
1.49401
1.44984
1.41447
1.37686
1.37605
1.37902
1.39271
1.43183
1.51492
1.71657
2.09787
2.33595
2.42593
2.43957
2.4455
2.44082
2.40821
2.37772
2.35153
2.33108
2.31183
2.29278
2.27398
2.25499
2.2369
2.21944
2.20339
2.18903
2.17834
2.17165
2.17591
2.1826
2.19824
2.22596
2.27681
2.34488
2.42964
2.52022
2.60757
2.67064
2.71152
2.70974
2.70094
2.68581
2.65076
2.62086
2.59323
2.57487
2.55856
2.54836
2.53547
2.52468
2.5078
2.4924
2.46966
2.45009
2.42388
2.40215
2.37476
2.35247
2.32486
2.30235
2.27469
2.25241
2.22526
2.20357
2.17701
2.15567
2.12929
2.10788
2.08163
2.06028
2.03443
2.01363
1.98832
1.96824
1.94384
1.9249
1.90337
4.03764
3.82533
3.63866
3.46562
3.30078
3.14248
2.98404
2.84137
2.70002
2.56815
2.44652
2.32775
2.22315
2.12047
2.02993
1.9433
1.86461
1.79245
1.72458
1.66448
1.60698
1.5569
1.51055
1.46959
1.44713
1.44786
1.45754
1.48824
1.55548
1.71212
2.1019
2.36742
2.47281
2.48354
2.49259
2.4807
2.44222
2.4059
2.37635
2.34821
2.32473
2.30331
2.28551
2.2675
2.24991
2.23117
2.2125
2.19343
2.1755
2.15864
2.14369
2.13283
2.12397
2.12708
2.13066
2.14173
2.16308
2.20401
2.26596
2.34565
2.44073
2.54034
2.619
2.68244
2.68393
2.67916
2.66295
2.62612
2.5948
2.5649
2.54352
2.52425
2.51173
2.49631
2.48437
2.46657
2.45076
2.42797
2.40811
2.38179
2.35971
2.33225
2.3098
2.28243
2.26014
2.23314
2.21137
2.185
2.16377
2.13785
2.11667
2.09072
2.06942
2.04349
2.02254
1.99716
1.97699
1.95272
1.93384
1.91202
4.14076
3.90868
3.70859
3.53231
3.3662
3.2122
3.05953
2.91383
2.77908
2.64724
2.52567
2.41092
2.30167
2.20285
2.10685
2.02198
1.93936
1.86599
1.79616
1.73242
1.67442
1.62006
1.57462
1.5339
1.53253
1.53776
1.56243
1.62091
1.75809
2.11171
2.41584
2.54129
2.55471
2.55973
2.54505
2.49674
2.45543
2.41746
2.38728
2.3576
2.33299
2.3086
2.28612
2.26496
2.24448
2.22486
2.20476
2.18557
2.16614
2.1479
2.13013
2.11333
2.09788
2.08423
2.07351
2.06996
2.07332
2.08192
2.09976
2.13404
2.19059
2.2674
2.3618
2.46981
2.5651
2.63945
2.65193
2.64768
2.63182
2.59696
2.56587
2.53523
2.51182
2.48973
2.47438
2.45638
2.4423
2.42314
2.40629
2.38323
2.36311
2.33699
2.31509
2.28813
2.26623
2.23962
2.21797
2.1917
2.17038
2.1446
2.12364
2.09815
2.07726
2.05171
2.03087
2.00557
1.9853
1.9609
1.94217
1.92029
4.19145
3.99998
3.78828
3.60627
3.43796
3.2832
3.13561
2.99144
2.85454
2.72655
2.60374
2.48905
2.38176
2.27953
2.18621
2.0962
2.01559
1.93715
1.86794
1.80074
1.74106
1.68795
1.63738
1.62612
1.62809
1.64612
1.70172
1.82154
2.14158
2.48715
2.6371
2.64987
2.65678
2.6339
2.57339
2.51672
2.47332
2.43451
2.40377
2.3746
2.34863
2.32068
2.29452
2.2677
2.24362
2.22118
2.20008
2.17949
2.15992
2.13988
2.1202
2.09983
2.08036
2.06136
2.0453
2.03107
2.02163
2.01593
2.01979
2.02623
2.04058
2.06666
2.11614
2.18772
2.28384
2.3982
2.50905
2.59795
2.61773
2.61404
2.59891
2.56531
2.53389
2.50246
2.47726
2.45246
2.43449
2.41426
2.39853
2.37824
2.36074
2.33752
2.31742
2.29167
2.27013
2.24377
2.22244
2.19656
2.17549
2.14989
2.12902
2.10372
2.08311
2.05803
2.03761
2.01263
1.99255
1.96813
1.94927
1.92737
4.19936
4.09324
3.87264
3.68166
3.50901
3.3532
3.20602
3.06586
2.93205
2.80253
2.68306
2.56701
2.45942
2.35811
2.2617
2.17348
2.08832
2.01137
1.93725
1.87121
1.80948
1.75506
1.72619
1.72648
1.74072
1.79034
1.90031
2.1837
2.57823
2.75586
2.77095
2.77462
2.74843
2.67303
2.60754
2.55053
2.50546
2.4635
2.42957
2.39447
2.36501
2.3346
2.30673
2.27769
2.2509
2.22397
2.19955
2.17623
2.15356
2.13134
2.10944
2.0885
2.06796
2.04884
2.03001
2.01287
1.99667
1.9822
1.97148
1.96237
1.96515
1.96974
1.98095
2.00286
2.04672
2.11582
2.21153
2.33086
2.45771
2.55493
2.57959
2.57587
2.56144
2.52867
2.49793
2.46689
2.44079
2.4143
2.39452
2.3725
2.35505
2.33352
2.31515
2.29164
2.27162
2.24634
2.22546
2.20003
2.17947
2.15439
2.13388
2.10885
2.08841
2.06349
2.04333
2.01867
1.99881
1.9747
1.95572
1.93357
4.17974
4.12221
3.97501
3.76961
3.5892
3.42833
3.28086
3.14011
3.00714
2.87989
2.75834
2.64484
2.5359
2.43408
2.33805
2.24709
2.16322
2.08242
2.00988
1.9408
1.88099
1.83761
1.83575
1.84568
1.88735
1.99099
2.24018
2.68286
2.89415
2.90877
2.91494
2.88154
2.79687
2.71749
2.65363
2.59674
2.54936
2.50397
2.46447
2.42436
2.38986
2.35453
2.32453
2.29439
2.2647
2.23484
2.2059
2.17844
2.1526
2.1281
2.1045
2.08195
2.06013
2.03903
2.01862
1.99883
1.97987
1.96207
1.94577
1.93114
1.92007
1.91041
1.91116
1.9138
1.92299
1.94202
1.97953
2.04497
2.1416
2.26591
2.40601
2.50763
2.53799
2.5346
2.52133
2.48994
2.45936
2.42815
2.40116
2.37315
2.35192
2.32832
2.30987
2.2877
2.26924
2.24599
2.22661
2.20219
2.18236
2.15795
2.13816
2.11361
2.09355
2.0688
2.04869
2.02421
2.00438
1.98054
1.96187
1.93943
4.15341
4.12671
4.04484
3.85978
3.67152
3.50592
3.35704
3.21756
3.08441
2.95787
2.83677
2.72076
2.61253
2.50953
2.41207
2.32136
2.23512
2.1554
2.08039
2.01617
1.9581
1.95419
1.96031
1.99534
2.09671
2.3157
2.80298
3.04675
3.06661
3.06914
3.03232
2.9342
2.84691
2.77131
2.70897
2.6511
2.60034
2.55031
2.50564
2.46099
2.42198
2.38191
2.34752
2.31112
2.28056
2.24791
2.21714
2.1856
2.15583
2.12763
2.10192
2.07718
2.05379
2.03103
2.00926
1.98819
1.96813
1.94893
1.93049
1.9132
1.89652
1.88153
1.86885
1.85818
1.85564
1.85764
1.86567
1.88294
1.91745
1.98125
2.08241
2.21057
2.3614
2.46235
2.4955
2.4919
2.47825
2.4476
2.41768
2.38586
2.35867
2.33009
2.30819
2.28396
2.26537
2.24307
2.22489
2.2021
2.18326
2.15966
2.14052
2.11678
2.09742
2.07334
2.05354
2.02929
2.00959
1.98562
1.96725
1.9447
4.07282
4.10269
4.06426
3.96349
3.76653
3.59
3.43422
3.29339
3.15998
3.03312
2.91291
2.79742
2.68756
2.58466
2.48643
2.39368
2.30806
2.22651
2.15653
2.08853
2.0805
2.08255
2.1108
2.20428
2.39338
2.91684
3.203
3.23388
3.23816
3.19726
3.09039
2.98933
2.90693
2.83349
2.77032
2.70917
2.6548
2.60051
2.55194
2.5029
2.45909
2.4147
2.37559
2.33535
2.29984
2.26305
2.23089
2.19713
2.16557
2.13459
2.10522
2.07772
2.05142
2.02658
2.00287
1.98038
1.95885
1.9381
1.91815
1.89877
1.88012
1.86238
1.84541
1.83018
1.81715
1.80647
1.80274
1.80455
1.81197
1.82815
1.86075
1.9234
2.02854
2.16032
2.31999
2.41664
2.45084
2.44715
2.43297
2.40261
2.37375
2.34204
2.31517
2.28654
2.26448
2.24023
2.22163
2.19943
2.18161
2.15932
2.14106
2.11815
2.09945
2.07621
2.05718
2.03351
2.01428
1.99044
1.97221
1.94945
3.79637
4.07205
4.05959
4.00676
3.87792
3.68942
3.52271
3.37496
3.23985
3.11175
2.99028
2.87539
2.76453
2.65984
2.56147
2.46841
2.38092
2.304
2.23114
2.21041
2.21107
2.23761
2.32315
2.52314
3.04383
3.37029
3.41794
3.42043
3.37807
3.25689
3.14694
3.05271
2.97379
2.9005
2.83474
2.77095
2.71266
2.6547
2.6015
2.54826
2.50028
2.45205
2.40882
2.3644
2.32493
2.28425
2.24826
2.212
2.17934
2.1453
2.11357
2.08234