/*--------------------------------*- C++ -*----------------------------------*\
  =========                 |
  \\      /  F ield         | OpenFOAM: The Open Source CFD Toolbox
   \\    /   O peration     | Website:  https://openfoam.org
    \\  /    A nd           | Version:  9
     \\/     M anipulation  |
\*---------------------------------------------------------------------------*/
FoamFile
{
    format      ascii;
    class       volScalarField;
    location    "2.5";
    object      T;
}
// * * * * * * * * * * * * * * * * * * * * * * * * * * * * * * * * * * * * * //

dimensions      [0 0 0 1 0 0 0];

internalField   nonuniform List<scalar> 
5250
(
1
1.00002
1.00003
1.0001
1.00021
1.00064
1.00132
1.0038
1.00844
1.02281
1.0553
1.14896
1.39808
2.01972
2.64757
2.77732
2.75263
2.74622
2.75911
2.77661
2.7882
2.79207
2.79598
2.79756
2.80982
1
1.00001
1.00004
1.00008
1.00025
1.00051
1.00156
1.00319
1.00929
1.02077
1.05658
1.14344
1.39313
2.0029
2.64181
2.77663
2.75141
2.74447
2.75721
2.77467
2.78639
2.79049
2.79465
2.79636
2.80872
1
1.00001
1.00003
1.00009
1.00021
1.00059
1.00126
1.00364
1.00782
1.02191
1.05166
1.14064
1.37419
1.96776
2.62841
2.77429
2.74789
2.73957
2.75208
2.76959
2.78237
2.78681
2.79071
2.79246
2.80496
1
1.00001
1.00003
1.00009
1.0002
1.00055
1.00123
1.0033
1.00773
1.02002
1.04953
1.13115
1.3511
1.91407
2.6056
2.76905
2.74163
2.73226
2.74494
2.76246
2.77497
2.78012
2.78598
2.78819
2.80061
1
1.00001
1.00003
1.00008
1.00019
1.0005
1.00115
1.00313
1.00695
1.01912
1.04497
1.12141
1.32163
1.84233
2.57272
2.76013
2.73223
2.72037
2.73273
2.75082
2.76553
2.77119
2.77635
2.7792
2.79306
1
1.00001
1.00003
1.00007
1.00019
1.00043
1.00115
1.00268
1.00686
1.01683
1.04255
1.10972
1.2944
1.77374
2.53317
2.7484
2.72116
2.70919
2.72097
2.73892
2.7528
2.76203
2.76719
2.76825
2.77935
1
1.00001
1.00003
1.00007
1.00016
1.00043
1.001
1.00256
1.0063
1.0155
1.03935
1.10108
1.26994
1.71943
2.4888
2.73577
2.71267
2.70201
2.7114
2.72723
2.73952
2.74547
2.75188
2.75264
2.76245
1
1.00001
1.00003
1.00006
1.00017
1.00035
1.00101
1.00223
1.00596
1.01403
1.03652
1.09188
1.24791
1.6606
2.43026
2.71347
2.70414
2.69659
2.70077
2.71155
2.72387
2.72816
2.73062
2.72959
2.73346
1
1.00001
1.00002
1.00006
1.00013
1.00039
1.00078
1.00229
1.00495
1.01356
1.03189
1.08495
1.22172
1.59854
2.35383
2.68256
2.69545
2.68894
2.68906
2.6965
2.70548
2.70724
2.70524
2.69673
2.68688
1
1.00001
1.00002
1.00005
1.00013
1.00029
1.00083
1.00175
1.00508
1.01093
1.03041
1.07308
1.19942
1.52986
2.25536
2.64389
2.68685
2.67945
2.67426
2.67725
2.68132
2.67913
2.66888
2.64324
2.58622
1
1.00001
1.00002
1.00005
1.00011
1.00029
1.00064
1.00178
1.00384
1.01085
1.02443
1.06642
1.16966
1.4617
2.13235
2.59197
2.67622
2.66732
2.66011
2.65973
2.65823
2.64931
2.62566
2.57172
2.45645
1
1.00001
1.00001
1.00004
1.00009
1.00023
1.00059
1.00137
1.00366
1.00832
1.0224
1.05375
1.14451
1.38454
1.97949
2.52644
2.65939
2.64953
2.63888
2.63615
2.63071
2.61461
2.5779
2.50359
2.37009
1
1
1.00001
1.00003
1.00007
1.00021
1.00044
1.00128
1.00263
1.00773
1.01666
1.04613
1.11353
1.30914
1.79845
2.44051
2.63157
2.62558
2.61591
2.60961
2.60098
2.57997
2.53798
2.45687
2.33739
1
1
1.00001
1.00003
1.00006
1.00016
1.00039
1.00094
1.0024
1.00561
1.01481
1.03504
1.09257
1.24154
1.63713
2.33968
2.59261
2.59663
2.5895
2.57984
2.56815
2.54328
2.50308
2.42794
2.32271
1
1
1.00001
1.00002
1.00005
1.00013
1.00032
1.00079
1.00187
1.00489
1.01131
1.03
1.0733
1.197
1.52076
2.20999
2.5419
2.57491
2.56626
2.55494
2.54048
2.51109
2.47361
2.40774
2.31445
1
1
1.00001
1.00002
1.00004
1.00011
1.00024
1.00065
1.00152
1.00382
1.00947
1.02332
1.05951
1.15522
1.4147
2.02851
2.46557
2.55359
2.5461
2.53163
2.51597
2.48458
2.44597
2.39213
2.31215
1
1
1.00001
1.00001
1.00003
1.00008
1.00021
1.00046
1.00129
1.00276
1.00782
1.01729
1.04696
1.11654
1.31496
1.8104
2.36301
2.52218
2.52387
2.50895
2.49203
2.46267
2.42215
2.37191
2.30671
1
1
1
1.00001
1.00002
1.00006
1.00015
1.00037
1.00092
1.0022
1.00565
1.01322
1.0345
1.08513
1.22576
1.58998
2.23004
2.47169
2.49307
2.48307
2.46475
2.44064
2.40422
2.35709
2.29789
1
1
1
1.00001
1.00002
1.00005
1.00011
1.0003
1.00064
1.00184
1.00386
1.01101
1.02449
1.06636
1.16737
1.44912
2.06297
2.40788
2.46571
2.4579
2.43937
2.41573
2.38439
2.34306
2.29197
1
1
1
1.00001
1.00002
1.00003
1.00009
1.0002
1.00054
1.00122
1.00317
1.00763
1.01902
1.04773
1.1233
1.32599
1.83369
2.30359
2.43163
2.43386
2.42014
2.39473
2.36445
2.32622
2.28169
1
1
1
1
1.00001
1.00003
1.00006
1.00017
1.00034
1.001
1.00202
1.00586
1.01264
1.03437
1.08264
1.22013
1.57021
2.15797
2.37611
2.40241
2.39452
2.37356
2.34488
2.31163
2.27088
1
1
1
1
1.00001
1.00002
1.00005
1.0001
1.00027
1.00065
1.00159
1.00397
1.00944
1.02433
1.05929
1.15585
1.40803
1.9739
2.30673
2.37195
2.36785
2.35098
2.32388
2.29444
2.25914
1
1
1
1
1.00001
1.00001
1.00003
1.00007
1.00019
1.00046
1.00113
1.0028
1.00661
1.01717
1.04095
1.10739
1.27875
1.71711
2.19038
2.33081
2.34045
2.3293
2.30661
2.27732
2.24656
1
1
1
1
1
1.00001
1.00002
1.00005
1.00013
1.0003
1.00081
1.00177
1.00491
1.01064
1.02911
1.06854
1.18238
1.47327
2.02017
2.2662
2.30823
2.30328
2.28611
2.2597
2.22974
1
1
1
1
1
1.00001
1.00002
1.00003
1.0001
1.0002
1.00057
1.00117
1.00339
1.00719
1.01973
1.04594
1.1221
1.31348
1.78511
2.16547
2.27055
2.27769
2.26809
2.24618
2.21628
1
1
1
1
1
1
1.00001
1.00002
1.00006
1.00014
1.00036
1.00083
1.00206
1.00501
1.0121
1.03034
1.07517
1.1933
1.50357
2.00857
2.21195
2.24584
2.24254
2.22603
2.20217
1
1
1
1
1
1
1.00001
1.00001
1.00004
1.00009
1.00024
1.00055
1.00136
1.00332
1.00791
1.02019
1.04857
1.12614
1.32643
1.7927
2.12485
2.21161
2.21862
2.21018
2.19005
1
1
1
1
1
1
1
1.00001
1.00002
1.00006
1.00014
1.00038
1.00079
1.00227
1.00466
1.01315
1.02907
1.07766
1.19192
1.50191
1.973
2.15818
2.18876
2.18706
2.17204
1
1
1
1
1
1
1
1.00001
1.00002
1.00004
1.00009
1.00023
1.00053
1.00142
1.00304
1.00846
1.01846
1.04983
1.12048
1.31964
1.7629
2.07553
2.15656
2.16474
2.15698
1
1
1
1
1
1
1
1
1.00001
1.00002
1.00006
1.00013
1.00037
1.00077
1.00213
1.00464
1.01221
1.02842
1.07312
1.18232
1.47451
1.92075
2.10275
2.13515
2.13467
1
1
1
1
1
1
1
1
1.00001
1.00002
1.00004
1.00009
1.00022
1.00049
1.00133
1.00284
1.0079
1.0171
1.04625
1.1107
1.29298
1.70187
2.01625
2.10232
2.11315
1
1
1
1
1
1
1
1
1
1.00001
1.00002
1.00006
1.00012
1.00033
1.00073
1.00185
1.00443
1.01066
1.02653
1.0648
1.16462
1.42523
1.85145
2.04266
2.08096
1
1
1
1
1
1
1
1
1
1.00001
1.00001
1.00003
1.00007
1.0002
1.00042
1.0012
1.00244
1.007
1.01485
1.04024
1.09526
1.25089
1.60827
1.94156
2.04566
1
1
1
1
1
1
1
1
1
1
1.00001
1.00002
1.00005
1.00011
1.00027
1.00066
1.00152
1.00396
1.00875
1.02339
1.0538
1.14031
1.35774
1.75981
1.97457
1
1
1
1
1
1
1
1
1
1
1
1.00001
1.00003
1.00006
1.00016
1.00037
1.00095
1.00206
1.00559
1.01207
1.03235
1.07518
1.19609
1.48463
1.84501
1
1
1
1
1
1
1
1
1
1
1
1.00001
1.00001
1.00004
1.00008
1.00024
1.00048
1.00135
1.0029
1.00759
1.01747
1.04425
1.10825
1.27982
1.6382
1
1
1
1
1
1
1
1
1
1
1
1
1.00001
1.00002
1.00005
1.00012
1.00031
1.0007
1.00172
1.00412
1.00974
1.0244
1.05813
1.14725
1.37296
1
1
1
1
1
1
1
1
1
1
1
1
1
1.00001
1.00003
1.00007
1.00016
1.00041
1.00095
1.00229
1.00558
1.0131
1.03292
1.07906
1.20181
1
1
1
1
1
1
1
1
1
1
1
1
1
1.00001
1.00002
1.00004
1.00009
1.00023
1.00051
1.00134
1.00287
1.00783
1.0168
1.04505
1.10532
1
1
1
1
1
1
1
1
1
1
1
1
1
1
1.00001
1.00002
1.00005
1.00012
1.00031
1.00065
1.00178
1.00363
1.01023
1.02159
1.05774
1
1
1
1
1
1
1
1
1
1
1
1
1
1
1
1.00001
1.00003
1.00007
1.00015
1.00039
1.00084
1.00227
1.00471
1.01299
1.02792
1
1
1
1
1
1
1
1
1
1
1
1
1
1
1
1.00001
1.00002
1.00003
1.00009
1.0002
1.00048
1.00116
1.00265
1.00678
1.01499
1
1
1
1
1
1
1
1
1
1
1
1
1
1
1
1
1.00001
1.00002
1.00004
1.00011
1.00024
1.00062
1.0014
1.00344
1.00816
1
1
1
1
1
1
1
1
1
1
1
1
1
1
1
1
1
1.00001
1.00003
1.00005
1.00014
1.00029
1.00077
1.0017
1.00425
1
1
1
1
1
1
1
1
1
1
1
1
1
1
1
1
1
1
1.00001
1.00003
1.00007
1.00016
1.00037
1.00095
1.00204
1
1
1
1
1
1
1
1
1
1
1
1
1
1
1
1
1
1
1.00001
1.00001
1.00004
1.00008
1.00021
1.00043
1.0012
1
1
1
1
1
1
1
1
1
1
1
1
1
1
1
1
1
1
1
1.00001
1.00002
1.00004
1.0001
1.00026
1.00053
1
1
1
1
1
1
1
1
1
1
1
1
1
1
1
1
1
1
1
1
1.00001
1.00002
1.00005
1.00013
1.00029
1
1
1
1
1
1
1
1
1
1
1
1
1
1
1
1
1
1
1
1
1.00001
1.00001
1.00003
1.00008
1.00018
1
1
1
1
1
1
1
1
1
1
1
1
1
1
1
1
1
1
1
1
1
1.00001
1.00002
1.00007
1.00015
2.24015
2.07387
2.02411
2.05702
2.11962
2.19431
2.26365
2.29622
2.30238
2.30086
2.29771
2.29772
2.29907
2.30211
2.30468
2.30734
2.30794
2.30778
2.30759
2.30717
2.3065
2.30598
2.30539
2.30453
2.30349
2.30249
2.3014
2.30163
2.3024
2.30388
2.30749
2.3163
2.33664
2.38255
2.48277
2.68324
2.94777
3.1217
3.10753
3.12818
3.15063
3.18413
3.21596
3.22659
3.22866
3.22757
3.22212
3.21375
3.20257
3.19214
3.17851
3.16272
3.14822
3.13253
3.11534
3.09916
3.07987
3.06409
3.04471
3.02853
3.00909
2.99283
2.97428
2.95821
2.93942
2.92307
2.90402
2.8882
2.86972
2.85496
2.83749
2.82386
2.8075
2.79497
2.77965
2.76821
2.75378
2.74343
2.72984
2.72056
2.70775
2.69941
2.6873
2.6797
2.66819
2.66114
2.65
2.64326
2.6322
2.62571
2.61442
2.60779
2.59616
2.58949
2.57775
2.57137
2.56013
2.55514
2.54711
2.54808
2.2341
2.13798
2.08582
2.05062
2.01524
1.98739
1.98056
1.9845
1.99834
2.01813
2.03243
2.03804
2.03761
2.03647
2.03567
2.03576
2.03604
2.03667
2.03741
2.03731
2.03717
2.0368
2.03601
2.03494
2.03399
2.0329
2.03219
2.03181
2.03211
2.03306
2.03596
2.0432
2.06033
2.09956
2.18843
2.39056
2.69204
3.00584
3.05752
3.09173
3.11317
3.11937
3.10711
3.08832
3.0605
3.03745
3.01098
2.98795
2.96327
2.93909
2.91336
2.89076
2.86696
2.8453
2.82056
2.79775
2.77447
2.75306
2.73061
2.70951
2.68741
2.66802
2.64753
2.6299
2.61003
2.59319
2.57341
2.55743
2.53816
2.52343
2.50484
2.49127
2.47338
2.46085
2.44384
2.43237
2.41643
2.40595
2.3911
2.38143
2.3676
2.35865
2.34579
2.33742
2.32549
2.31763
2.30654
2.29913
2.28886
2.28184
2.27243
2.26592
2.25727
2.25119
2.24313
2.23746
2.23023
2.22581
2.22157
2.22441
2.23502
2.14801
2.06904
1.99399
1.92429
1.87025
1.84492
1.84359
1.84765
1.85997
1.8755
1.88866
1.89523
1.89796
1.89762
1.89738
1.89691
1.89678
1.89681
1.8969
1.8969
1.89682
1.89656
1.89605
1.89512
1.89411
1.89352
1.89279
1.89297
1.89368
1.89539
1.90008
1.91138
1.93787
1.99948
2.13992
2.39664
2.77164
2.87475
2.93505
2.96082
2.95427
2.9268
2.90099
2.86907
2.84565
2.81779
2.79627
2.7701
2.75035
2.72637
2.7076
2.68447
2.66513
2.64057
2.62136
2.59958
2.58305
2.56298
2.54779
2.52781
2.51255
2.49214
2.47753
2.45774
2.4441
2.42526
2.4125
2.39508
2.38357
2.36754
2.3569
2.34138
2.33087
2.31538
2.30483
2.28957
2.27926
2.26447
2.25456
2.24037
2.23093
2.21735
2.20848
2.19578
2.18744
2.17563
2.16773
2.15665
2.1491
2.13857
2.13143
2.12151
2.11492
2.10559
2.09974
2.09118
2.0867
2.08065
2.08215
2.22871
2.14264
2.06118
1.98732
1.92166
1.86832
1.82666
1.79722
1.78131
1.7779
1.77946
1.78586
1.79488
1.80397
1.80845
1.81044
1.80999
1.80941
1.8083
1.80733
1.80684
1.80669
1.80659
1.80635
1.80577
1.80511
1.80372
1.80261
1.8025
1.80277
1.80363
1.80656
1.81387
1.83133
1.87202
1.96418
2.18562
2.47154
2.70405
2.81511
2.82178
2.8055
2.76708
2.72961
2.69518
2.66694
2.64155
2.62543
2.60484
2.58678
2.56521
2.54896
2.52907
2.51582
2.4968
2.48303
2.46369
2.45045
2.43219
2.42033
2.4038
2.39299
2.37742
2.36722
2.35233
2.34249
2.32757
2.31741
2.30217
2.29193
2.2771
2.26753
2.25359
2.24471
2.23126
2.22255
2.20912
2.20039
2.18694
2.17822
2.16487
2.1563
2.14326
2.13494
2.12231
2.11429
2.10213
2.09445
2.08268
2.07535
2.06384
2.05686
2.04561
2.0391
2.02816
2.02235
2.01198
2.00744
1.99925
1.99954
2.22272
2.14003
2.06363
1.99331
1.92993
1.87289
1.8234
1.78207
1.75037
1.73019
1.72259
1.72266
1.72454
1.7301
1.73685
1.74315
1.74666
1.74884
1.74881
1.74863
1.74824
1.74743
1.74692
1.74645
1.74606
1.74585
1.74533
1.7449
1.74446
1.74463
1.74527
1.74717
1.75207
1.76395
1.79167
1.85571
2.00074
2.27255
2.60932
2.74237
2.73912
2.71409
2.66036
2.6069
2.56253
2.52796
2.49661
2.47556
2.46106
2.45067
2.43619
2.42501
2.40851
2.39853
2.38552
2.37714
2.36253
2.35124
2.33622
2.3266
2.31298
2.30377
2.29036
2.28173
2.26923
2.26125
2.24891
2.24079
2.22823
2.22017
2.20789
2.20025
2.18828
2.18078
2.1687
2.16104
2.14875
2.14106
2.12889
2.12157
2.10962
2.1026
2.09074
2.08393
2.07213
2.06559
2.05394
2.04769
2.03616
2.03013
2.01863
2.01268
2.00124
1.99527
1.98412
1.97818
1.96763
1.96231
1.95379
1.9525
2.22535
2.14438
2.07014
2.00194
1.93982
1.88388
1.83424
1.79073
1.75438
1.72485
1.70216
1.68797
1.68196
1.68198
1.68329
1.68738
1.6927
1.69825
1.70155
1.70349
1.70337
1.70305
1.7024
1.70113
1.6998
1.6991
1.69807
1.69757
1.69711
1.69725
1.69779
1.69925
1.70308
1.7123
1.73348
1.78223
1.8903
2.14075
2.41802
2.7063
2.70316
2.65033
2.56828
2.4988
2.44829
2.40928
2.38138
2.36052
2.3449
2.3337
2.32724
2.32321
2.31826
2.31322
2.30415
2.29841
2.28894
2.28172
2.27067
2.26396
2.25336
2.24653
2.23585
2.22919
2.21841
2.21131
2.19968
2.19199
2.18016
2.17272
2.16145
2.15468
2.14387
2.13745
2.12663
2.12012
2.10911
2.10262
2.09153
2.08522
2.07407
2.06787
2.05654
2.05029
2.03877
2.03256
2.02102
2.01492
2.0035
1.99736
1.98611
1.97976
1.96866
1.9621
1.95124
1.94455
1.93424
1.92793
1.91951
1.91704
2.23087
2.15451
2.08258
2.01704
1.95565
1.90061
1.84973
1.80497
1.76446
1.72985
1.7006
1.67693
1.66014
1.65034
1.64683
1.64686
1.64804
1.65126
1.65525
1.65899
1.66119
1.66238
1.66232
1.66216
1.66168
1.66103
1.66007
1.6592
1.65904
1.65918
1.65964
1.66111
1.66483
1.67347
1.69302
1.73648
1.82978
2.03196
2.2728
2.57111
2.57816
2.54385
2.49239
2.42577
2.36892
2.33135
2.30169
2.28204
2.26877
2.26142
2.2566
2.25421
2.25448
2.25381
2.25164
2.2478
2.24258
2.23862
2.23036
2.22461
2.21505
2.20887
2.19899
2.19281
2.18263
2.17629
2.16573
2.1592
2.14855
2.14209
2.13147
2.12511
2.1144
2.10799
2.09705
2.09059
2.07949
2.07314
2.06207
2.056
2.04503
2.03915
2.02818
2.02229
2.01131
2.00534
1.99455
1.98855
1.9781
1.97204
1.96183
1.95559
1.94549
1.93895
1.92902
1.92232
1.91272
1.90641
1.89831
1.89576
2.23119
2.16237
2.09492
2.0317
1.97268
1.91797
1.86804
1.82202
1.78102
1.74375
1.71153
1.68368
1.66095
1.64269
1.62991
1.62244
1.6197
1.61974
1.62077
1.62355
1.62708
1.63059
1.63287
1.63386
1.63364
1.63319
1.63227
1.63093
1.63051
1.63063
1.63128
1.63335
1.63848
1.65022
1.67621
1.73175
1.84332
2.0156
2.17561
2.32861
2.4356
2.44912
2.43047
2.3994
2.35015
2.31478
2.27737
2.25019
2.23122
2.21967
2.21278
2.20842
2.20536
2.20491
2.20543
2.20483
2.20274
2.20074
2.19683
2.19294
2.18469
2.17899
2.16919
2.16303
2.15272
2.14637
2.13604
2.12981
2.1195
2.11326
2.10274
2.09637
2.08562
2.07923
2.06834
2.06197
2.05102
2.04485
2.03406
2.02822
2.01763
2.01194
2.00134
1.99557
1.98496
1.97908
1.96865
1.96278
1.95265
1.9469
1.93698
1.93121
1.92141
1.91541
1.90566
1.89954
1.88998
1.88429
1.87614
1.87421
2.23191
2.16945
2.10701
2.047
1.99034
1.93723
1.888
1.84244
1.80071
1.76275
1.7284
1.69796
1.67104
1.64828
1.62961
1.61505
1.60529
1.59996
1.59832
1.59845
1.59938
1.60175
1.60436
1.60672
1.60823
1.60901
1.6092
1.60906
1.60914
1.60954
1.61097
1.61473
1.62363
1.64355
1.68668
1.77916
1.92195
2.04584
2.11517
2.18439
2.26034
2.33046
2.35926
2.34846
2.33185
2.30801
2.27252
2.24453
2.2177
2.19808
2.18402
2.17502
2.16891
2.16528
2.16285
2.16289
2.16309
2.16247
2.16076
2.1586
2.1537
2.14906
2.13964
2.13369
2.12365
2.11772
2.10795
2.10224
2.09232
2.08641
2.07616
2.0701
2.05957
2.05333
2.04257
2.0363
2.02547
2.0193
2.00852
2.00255
1.99194
1.98618
1.97577
1.97006
1.95981
1.95405
1.94399
1.93828
1.9284
1.92283
1.91312
1.90763
1.89814
1.89266
1.88331
1.87784
1.86863
1.8635
1.85547
1.85394
2.22955
2.17341
2.11623
2.05993
2.00627
1.95512
1.9074
1.86263
1.82127
1.78292
1.74797
1.71598
1.68744
1.66188
1.63987
1.62115
1.60623
1.59436
1.58673
1.58242
1.58125
1.58143
1.58235
1.58451
1.58723
1.58972
1.59144
1.59241
1.59315
1.59472
1.59817
1.60577
1.62241
1.65825
1.73862
1.8652
1.99731
2.05799
2.08141
2.10376
2.13505
2.17947
2.23036
2.26194
2.28119
2.27058
2.25797
2.24057
2.21218
2.19054
2.16947
2.15307
2.14148
2.13485
2.12925
2.12665
2.12537
2.12487
2.12452
2.12354
2.12131
2.11879
2.11321
2.10862
2.09931
2.09341
2.08353
2.07797
2.06819
2.06248
2.05247
2.04679
2.03673
2.03103
2.0207
2.01475
2.0041
1.99805
1.98741
1.98156
1.97123
1.96553
1.95543
1.94957
1.9395
1.93351
1.9236
1.91787
1.90833
1.90298
1.89372
1.88846
1.8792
1.87382
1.86451
1.85912
1.84996
1.84497
1.83702
1.83555
2.22552
2.17489
2.12306
2.071
2.0202
1.97181
1.9256
1.88237
1.84181
1.80391
1.76889
1.73636
1.70676
1.67962
1.65542
1.63377
1.61521
1.59937
1.58689
1.57712
1.57101
1.56759
1.56687
1.56708
1.56794
1.56981
1.57228
1.57495
1.57777
1.58159
1.58872
1.6036
1.6349
1.70387
1.82121
1.96431
2.03797
2.05745
2.06024
2.06119
2.06663
2.08021
2.10641
2.1378
2.17445
2.19885
2.21446
2.20569
2.19649
2.18289
2.15987
2.14419
2.12798
2.11519
2.10542
2.09961
2.09401
2.09138
2.09027
2.08977
2.0889
2.08788
2.08572
2.08254
2.07534
2.06978
2.05994
2.05423
2.04452
2.03917
2.02959
2.0244
2.01475
2.00936
1.99927
1.99349
1.98305
1.9771
1.9667
1.9608
1.95075
1.94502
1.93538
1.92973
1.92024
1.91448
1.90494
1.89919
1.88975
1.88427
1.87511
1.86989
1.86087
1.85565
1.84659
1.84131
1.83236
1.8275
1.81969
1.81844
2.21729
2.17325
2.12588
2.07843
2.03136
1.98511
1.94154
1.899
1.85995
1.8223
1.78788
1.75514
1.72518
1.69715
1.67169
1.64833
1.62756
1.60903
1.59332
1.57991
1.56962
1.56144
1.55652
1.55389
1.55374
1.5542
1.55563
1.5588
1.56376
1.57138
1.58517
1.61328
1.67145
1.78247
1.92861
2.02052
2.04541
2.0478
2.04245
2.03518
2.02853
2.02532
2.02706
2.03732
2.05834
2.08636
2.11877
2.14098
2.15583
2.15103
2.14535
2.13543
2.11719
2.1029
2.08915
2.07868
2.06916
2.0637
2.05921
2.05672
2.05514
2.05427
2.05258
2.05083
2.04688
2.04298
2.03459
2.02972
2.02058
2.01563
2.00635
2.00137
1.99196
1.98682
1.97704
1.97142
1.96135
1.95565
1.94594
1.94054
1.93127
1.92583
1.91653
1.91073
1.90123
1.8953
1.88583
1.88014
1.87094
1.86569
1.85677
1.8518
1.84304
1.8381
1.82933
1.82431
1.81548
1.8108
1.80292
1.80179
2.21025
2.1699
2.12749
2.0833
2.0404
1.99731
1.95587
1.91579
1.87739
1.84111
1.80664
1.77451
1.74416
1.71617
1.68983
1.66584
1.64342
1.6235
1.60507
1.58948
1.57534
1.56439
1.55501
1.54885
1.54493
1.54465
1.54546
1.54803
1.5539
1.5661
1.59088
1.64126
1.7426
1.8863
1.99794
2.03608
2.04262
2.03614
2.02656
2.01433
1.99947
1.98733
1.97992
1.97931
1.98162
1.99196
2.01281
2.03664
2.06331
2.08504
2.09715
2.09906
2.09502
2.08731
2.07586
2.06369
2.05146
2.04245
2.0334
2.02764
2.02261
2.01991
2.01829
2.01753
2.01598
2.01378
2.00871
2.00471
1.99642
1.99155
1.98226
1.97706
1.96763
1.96257
1.95344
1.94852
1.93932
1.93392
1.92439
1.91869
1.90933
1.90383
1.89483
1.8894
1.88034
1.87475
1.86552
1.86003
1.85098
1.84598
1.83731
1.83268
1.82416
1.81953
1.81092
1.80628
1.79756
1.79332
1.78549
1.78457
2.1988
2.16295
2.12583
2.08599
2.04515
2.00562
1.96633
1.92842
1.89175
1.85667
1.82307
1.79149
1.76131
1.73329
1.70662
1.68226
1.65891
1.63834
1.61829
1.6014
1.58506
1.57187
1.55965
1.5506
1.54344
1.54132
1.54218
1.54553
1.5541
1.57338
1.61444
1.70131
1.83927
1.96728
2.02259
2.03516
2.02906
2.01979
2.00725
1.99231
1.97588
1.96118
1.94879
1.93954
1.93484
1.93293
1.93462
1.94314
1.96071
1.98196
2.00639
2.02865
2.04282
2.05208
2.04788
2.04381
2.03612
2.02546
2.01332
2.00558
1.99754
1.99267
1.9881
1.98582
1.98391
1.98252
1.97941
1.97645
1.97024
1.96629
1.95833
1.95403
1.94543
1.94036
1.93094
1.92541
1.916
1.9107
1.90167
1.89655
1.88774
1.88263
1.8739
1.86881
1.86
1.85477
1.84566
1.84039
1.83121
1.82627
1.81753
1.81311
1.80479
1.80059
1.79217
1.78788
1.77928
1.77526
1.76759
1.76678
2.18762
2.15645
2.12258
2.08688
2.04989
2.01183
1.97557
1.93924
1.90448
1.87078
1.83842
1.80715
1.77795
1.74949
1.72318
1.69831
1.67454
1.65343
1.63238
1.61456
1.59673
1.58206
1.56769
1.55685
1.54743
1.54492
1.5464
1.55181
1.56591
1.59815
1.67053
1.79333
1.93053
2.00331
2.02383
2.02029
2.01067
1.99896
1.98479
1.96797
1.95209
1.93705
1.9235
1.91097
1.90006
1.8919
1.88753
1.8865
1.88822
1.89495
1.90975
1.92883
1.9504
1.97172
1.99054
2.00095
2.00663
2.00306
1.998
1.99211
1.98128
1.97266
1.96417
1.95904
1.95364
1.95188
1.95014
1.94856
1.945
1.94176
1.9349
1.93064
1.92214
1.91749
1.90874
1.9037
1.89459
1.88935
1.88035
1.87537
1.86672
1.86191
1.8533
1.84844
1.83973
1.83485
1.82601
1.82109
1.81216
1.80728
1.79852
1.79402
1.78573
1.78164
1.77351
1.76942
1.76118
1.75721
1.74957
1.74871
2.17502
2.14667
2.11599
2.08366
2.05079
2.0161
1.98069
1.94745
1.91349
1.88131
1.85069
1.81991
1.79204
1.76406
1.73811
1.71342
1.68941
1.66791
1.64629
1.6278
1.60878
1.59339
1.57735
1.5656
1.55564
1.55502
1.55802
1.56766
1.59206
1.64758
1.75832
1.89867
1.98354
2.0106
2.00997
2.00233
1.98984
1.97636
1.95919
1.94336
1.92824
1.9141
1.89983
1.88662
1.87458
1.86409
1.85509
1.84778
1.84301
1.8403
1.84144
1.84595
1.85829
1.87519
1.89708
1.92027
1.94124
1.95698
1.96624
1.96591
1.96332
1.95855
1.94826
1.93993
1.93107
1.92578
1.91992
1.91764
1.91488
1.91308
1.90926
1.90615
1.89961
1.89558
1.88744
1.88278
1.874
1.86898
1.8601
1.85522
1.84668
1.84219
1.83388
1.82939
1.82086
1.81614
1.80738
1.8026
1.79392
1.7893
1.78077
1.77633
1.76805
1.76386
1.75583
1.75184
1.74384
1.74004
1.7326
1.73152
2.16377
2.13696
2.10985
2.08011
2.04906
2.0181
1.98559
1.95238
1.92275
1.8894
1.86145
1.83125
1.80354
1.77736
1.75049
1.72766
1.70251
1.68206
1.65947
1.64094
1.62144
1.60475
1.58933
1.57565
1.56989
1.5713
1.57768
1.59555
1.63861
1.73269
1.87149
1.96936
2.00212
2.00578
1.99596
1.98479
1.96775
1.95073
1.93286
1.91806
1.90392
1.89058
1.87821
1.86592
1.85401
1.84181
1.83022
1.81952
1.80996
1.80315
1.79728
1.7955
1.79641
1.79923
1.80787
1.82347
1.8437
1.86691
1.89083
1.9117
1.92472
1.93195
1.92956
1.92431
1.91723
1.90933
1.89843
1.89246
1.88656
1.88471
1.88109
1.8789
1.87426
1.87094
1.86419
1.86023
1.85228
1.8479
1.83956
1.83495
1.82653
1.82204
1.81389
1.80967
1.80154
1.79715
1.78869
1.78403
1.77547
1.77095
1.76273
1.75849
1.75063
1.74657
1.73873
1.7348
1.72696
1.72324
1.71619
1.71506
2.14937
2.12446
2.09919
2.07292
2.04468
2.01515
1.98802
1.95541
1.9268
1.89763
1.86749
1.84189
1.81265
1.78869
1.76211
1.73898
1.71585
1.69343
1.67345
1.65238
1.63496
1.61628
1.60213
1.58998
1.58897
1.59349
1.60689
1.64058
1.71968
1.84993
1.95895
2.00098
2.00503
1.99588
1.98078
1.96453
1.9443
1.92749
1.91023
1.8963
1.88243
1.86991
1.85681
1.84403
1.8311
1.81918
1.80743
1.7964
1.78562
1.77548
1.76649
1.75867
1.75243
1.74966
1.75012
1.75214
1.75911
1.77405
1.79349
1.81785
1.84235
1.86699
1.88487
1.89633
1.89541
1.89206
1.88693
1.8784
1.86828
1.86283
1.85638
1.85345
1.84843
1.84568
1.84001
1.83655
1.8297
1.82597
1.81856
1.81465
1.80698
1.80278
1.79479
1.79042
1.78244
1.77808
1.76997
1.76544
1.75716
1.75257
1.74452
1.74032
1.73273
1.72896
1.72154
1.71781
1.71032
1.70661
1.69971
1.69871
2.13831
2.11338
2.08906
2.06476
2.04036
2.01218
1.98604
1.95903
1.92951
1.90298
1.87498
1.84785
1.82295
1.79631
1.77378
1.74853
1.7275
1.70464
1.6845
1.66471
1.64553
1.62962
1.61426
1.60987
1.61313
1.62352
1.6503
1.71712
1.8356
1.95558
2.00698
2.01242
2.00085
1.98613
1.96582
1.94594
1.9247
1.9083
1.89117
1.87736
1.86177
1.84766
1.83389
1.82124
1.80956
1.7977
1.78644
1.77473
1.7636
1.75213
1.74139
1.73113
1.72257
1.71547
1.71065
1.70838
1.70808
1.70931
1.71415
1.726
1.744
1.7669
1.79562
1.82405
1.84782
1.86475
1.86596
1.86308
1.85791
1.84942
1.83921
1.83327
1.82578
1.82195
1.81619
1.81324
1.80749
1.8043
1.798
1.79459
1.78774
1.78408
1.7767
1.77253
1.76454
1.76001
1.75197
1.74752
1.73958
1.73515
1.72726
1.72299
1.71541
1.7116
1.7044
1.70085
1.69371
1.69028
1.68349
1.68245
2.12174
2.10066
2.07689
2.05303
2.03127
2.00661
1.98101
1.95677
1.93146
1.9049
1.87984
1.85428
1.82889
1.80538
1.78073
1.75921
1.73572
1.71601
1.69399
1.6759
1.657
1.64153
1.63294
1.63387
1.64258
1.66515
1.71903
1.83223
1.95851
2.01922
2.02612
2.01508
1.99659
1.97619
1.95123
1.92965
1.90909
1.89274
1.87544
1.86043
1.84384
1.82993
1.81556
1.80279
1.78993
1.77784
1.76553
1.75364
1.74156
1.73039
1.71948
1.70993
1.70064
1.69235
1.68411
1.67656
1.67059
1.66599
1.66446
1.66554
1.66949
1.68028
1.69753
1.7219
1.75258
1.78398
1.81424
1.83384
1.83572
1.83285
1.82787
1.8198
1.80973
1.80386
1.79606
1.79205
1.78609
1.78301
1.77722
1.77411
1.76803
1.76476
1.75819
1.75464
1.74749
1.74338
1.73549
1.73096
1.72303
1.71863
1.71094
1.70676
1.69927
1.69537
1.68814
1.68463
1.67763
1.67442
1.66801
1.66695
2.10665
2.08943
2.06779
2.04348
2.02293
2.00065
1.9777
1.95383
1.92978
1.90653
1.88112
1.85802
1.83391
1.8103
1.7882
1.76505
1.74472
1.72296
1.70434
1.68446
1.6691
1.6565
1.65661
1.66367
1.683
1.72847
1.83062
1.96477
2.03565
2.04565
2.03328
2.0156
1.99131
1.96559
1.93891
1.91743
1.89651
1.87948
1.86094
1.84612
1.82992
1.81656
1.80109
1.78721
1.7725
1.75922
1.7462
1.73423
1.7228
1.71187
1.70148
1.69103
1.68097
1.67065
1.661
1.6515
1.64309
1.63552
1.63001
1.62544
1.62435
1.62526
1.62831
1.63679
1.65338
1.67757
1.71064
1.74492
1.78141
1.80331
1.80641
1.80389
1.7989
1.79109
1.78111
1.77496
1.76676
1.76247
1.75622
1.75304
1.74748
1.74463
1.739
1.73594
1.7297
1.72623
1.71917
1.71499
1.70713
1.70261
1.69488
1.69068
1.68329
1.6795
1.67234
1.66884
1.66196
1.65873
1.65271
1.65187
2.08412
2.07403
2.05693
2.03353
2.01213
1.99204
1.97097
1.94992
1.92762
1.90531
1.88302
1.85964
1.8375
1.81493
1.7928
1.77174
1.75009
1.73113
1.71084
1.69514
1.68065
1.67874
1.6848
1.70139
1.74142
1.83033
1.96892
2.05278
2.067
2.05589
2.03605
2.01207
1.98222
1.95524
1.92973
1.90852
1.88718
1.86895
1.85011
1.83438
1.81714
1.80235
1.78603
1.77151
1.75643
1.74243
1.72902
1.71636
1.7045
1.69306
1.68214
1.67141
1.66101
1.65085
1.64098
1.63155
1.62236
1.61376
1.60537
1.5981
1.59189
1.5869
1.58584
1.58666
1.58926
1.59743
1.61416
1.63864
1.67433
1.71249
1.75214
1.77419
1.7777
1.77512
1.76978
1.76203
1.7527
1.74672
1.73867
1.7345
1.72826
1.72528
1.71976
1.71696
1.71133
1.70823
1.7019
1.69832
1.69106
1.68673
1.67896
1.6747
1.66729
1.66355
1.65659
1.65314
1.64651
1.64326
1.63727
1.63671
2.06209
2.05849
2.04516
2.02515
2.00357
1.98369
1.96372
1.94353
1.92321
1.90222
1.88143
1.86077
1.83903
1.81793
1.79723
1.77611
1.75634
1.73669
1.71967
1.70388
1.70055
1.70587
1.72034
1.75597
1.83256
1.97311
2.07009
2.09053
2.07959
2.06141
2.0342
2.00392
1.97347
1.94776
1.92287
1.90139
1.87977
1.86107
1.84164
1.82462
1.80606
1.79032
1.77281
1.75853
1.74259
1.72895
1.71457
1.70179
1.68909
1.67734
1.66561
1.65446
1.64345
1.63304
1.62284
1.613
1.60327
1.59377
1.5846
1.57593
1.56797
1.56122
1.55554
1.55143
1.55082
1.55167
1.55405
1.56168
1.57783
1.60177
1.63893
1.68222
1.72439
1.74425
1.74906
1.74666
1.74167
1.73375
1.72504
1.71945
1.71168
1.70752
1.70129
1.69832
1.69259
1.68969
1.68386
1.68069
1.67428
1.67065
1.66342
1.65928
1.65186
1.64796
1.64104
1.63762
1.63114
1.62816
1.62219
1.62174
2.02831
2.03618
2.03057
2.01565
1.99568
1.97583
1.95741
1.93816
1.91914
1.8996
1.87942
1.85963
1.83983
1.81937
1.79972
1.78046
1.76088
1.74364
1.72801
1.72178
1.72595
1.73963
1.77157
1.8406
1.97835
2.088
2.11492
2.10562
2.08553
2.05752
2.02422
1.9942
1.96572
1.94137
1.91712
1.89606
1.87404
1.85473
1.83415
1.81615
1.79695
1.78023
1.7621
1.74676
1.73028
1.7167
1.70211
1.68886
1.67518
1.66225
1.64992
1.63822
1.62718
1.61639
1.60596
1.59569
1.58571
1.57605
1.56671
1.55782
1.54931
1.54141
1.53397
1.5277
1.52191
1.51797
1.51685
1.51758
1.51974
1.52706
1.54299
1.5686
1.60598
1.65332
1.69964
1.71608
1.72101
1.71863
1.71402
1.70631
1.69797
1.69265
1.68506
1.68106
1.6749
1.67183
1.66595
1.66295
1.65693
1.6537
1.64722
1.64365
1.63673
1.63291
1.62597
1.62248
1.61598
1.61308
1.60728
1.60704
1.98489
2.01154
2.01252
2.00379
1.98693
1.96687
1.94802
1.93011
1.91185
1.89395
1.87548
1.85645
1.83816
1.81933
1.80035
1.78216
1.76517
1.74961
1.74232
1.7454
1.75827
1.78842
1.85734
1.98269
2.10141
2.13651
2.12947
2.11045
2.07994
2.04691
2.01453
1.98648
1.95954
1.93585
1.91211
1.89045
1.86813
1.848
1.82719
1.80856
1.78874
1.77115
1.75242
1.73652
1.71938
1.7051
1.6895
1.67635
1.66216
1.64946
1.63634
1.62421
1.61217
1.60082
1.58971
1.57915
1.56892
1.55909
1.54969
1.54059
1.53207
1.52377
1.51608
1.50868
1.50178
1.49587
1.49012
1.48642
1.48497
1.48557
1.48761
1.49474
1.50997
1.53897
1.57879
1.62479
1.67446
1.6898
1.69399
1.69151
1.68698
1.68015
1.67236
1.66705
1.6595
1.65553
1.64929
1.64607
1.64003
1.63692
1.63079
1.62758
1.62128
1.61798
1.61143
1.60804
1.60155
1.59865
1.5928
1.59269
1.90284
1.98026
1.99373
1.99089
1.97909
1.96083
1.94147
1.92304
1.90563
1.88781
1.87022
1.85253
1.83438
1.81709
1.79995
1.78345
1.76872
1.76093
1.76326
1.77584
1.80484
1.87238
1.99037
2.11834
2.1603
2.15454
2.13472
2.10468
2.0693
2.03728
2.00657
1.97992
1.95406
1.93106
1.90707
1.8852
1.86244
1.84208
1.82081
1.80163
1.78138
1.76331
1.74421
1.72762
1.7099
1.69512
1.67901
1.66563
1.65102
1.6382
1.62457
1.61196
1.59946
1.58766
1.57635
1.5654
1.55495
1.54483
1.53519
1.52591
1.51696
1.50839
1.50002
1.49212
1.48434
1.47718
1.47016
1.4643
1.45874
1.45488
1.45412
1.45485
1.45727
1.46492
1.4817
1.51099
1.55688
1.60335
1.64961
1.66443
1.66819
1.66562
1.66061
1.65431
1.64689
1.64183
1.63442
1.63047
1.62432
1.62115
1.61524
1.61219
1.60616
1.60312
1.59708
1.59403
1.58784
1.58499
1.57911
1.57888
1.74052
1.91945
1.96203
1.97005
1.96527
1.95227
1.9343
1.91683
1.89967
1.88339
1.86626
1.84949
1.83254
1.81544
1.79933
1.78502
1.77695
1.77892
1.79157
1.81977
1.8843
2.00028
2.13822
2.18642
2.18122
2.16045
2.12779
2.09245
2.05787
2.02744
1.99879
1.97396
1.94893
1.92556
1.90116
1.87889
1.85612
1.83569
1.81426
1.79477
1.77405
1.75537
1.73595
1.71897
1.7013
1.68612
1.66964
1.65577
1.64033
1.6274
1.61328
1.60083
1.58764
1.57557
1.56354
1.55236
1.54144
1.53112
1.52111
1.51157
1.50238
1.49353
1.48503
1.47674
1.46886
1.46112
1.45386
1.4469
1.44039
1.43487
1.42979
1.42612
1.42597
1.42676
1.42955
1.4376
1.45538
1.48589
1.53346
1.5833
1.62618
1.6388
1.64264
1.64014
1.63548
1.62964
1.62259
1.61787
1.6107
1.60689
1.60084
1.59767
1.59179
1.5887
1.58281
1.57991
1.57411
1.57147
1.56596
1.56564
1.49018
1.80794
1.92452
1.94762
1.94913
1.94186
1.92763
1.90949
1.89262
1.87643
1.86062
1.84486
1.82901
1.81414
1.79985
1.79131
1.79305
1.80577
1.83356
1.89793
2.01178
2.15259
2.20717
2.20367
2.18265
2.15103
2.1134
2.07932
2.04725
2.01967
1.9931
1.96872
1.94315
1.91922
1.89468
1.87255
1.84989
1.82924
1.80748
1.78765
1.76683
1.74839
1.72911
1.71216
1.69423