/*--------------------------------*- C++ -*----------------------------------*\
  =========                 |
  \\      /  F ield         | OpenFOAM: The Open Source CFD Toolbox
   \\    /   O peration     | Website:  https://openfoam.org
    \\  /    A nd           | Version:  9
     \\/     M anipulation  |
\*---------------------------------------------------------------------------*/
FoamFile
{
    format      ascii;
    class       volVectorField;
    location    "2.5";
    object      U;
}
// * * * * * * * * * * * * * * * * * * * * * * * * * * * * * * * * * * * * * //

dimensions      [0 1 -1 0 0 0 0];

internalField   nonuniform List<vector> 
5250
(
(3 1.75437e-08 0)
(2.99999 5.66816e-08 0)
(2.99997 2.5108e-07 0)
(2.99992 5.38258e-07 0)
(2.9998 2.01117e-06 0)
(2.99951 2.73394e-06 0)
(2.99881 1.67464e-05 0)
(2.99701 1.13308e-05 0)
(2.99264 0.000115368 0)
(2.9815 0.000102749 0)
(2.95284 0.000566743 0)
(2.8745 0.00115525 0)
(2.64713 0.00339908 0)
(1.9695 0.00979412 0)
(0.90884 0.0276096 0)
(0.391122 0.0253988 0)
(0.522356 0.0250656 0)
(0.557476 0.0266511 0)
(0.497758 0.0283236 0)
(0.403009 0.0301091 0)
(0.319279 0.0317914 0)
(0.253477 0.0336121 0)
(0.18747 0.0359566 0)
(0.112579 0.0394479 0)
(0.052001 0.0450465 0)
(3 4.27821e-08 0)
(2.99999 1.71195e-07 0)
(2.99997 8.7712e-07 0)
(2.99992 1.74781e-06 0)
(2.99981 6.5918e-06 0)
(2.99952 1.22079e-05 0)
(2.99881 4.24187e-05 0)
(2.99709 7.77666e-05 0)
(2.99272 0.000257458 0)
(2.98187 0.000522225 0)
(2.95374 0.00152507 0)
(2.87677 0.00371457 0)
(2.65443 0.0105941 0)
(1.98901 0.0302831 0)
(0.920904 0.0841458 0)
(0.389535 0.0734929 0)
(0.524281 0.0688477 0)
(0.561286 0.0710259 0)
(0.502462 0.0737297 0)
(0.408748 0.0769962 0)
(0.325168 0.0795244 0)
(0.258314 0.0819607 0)
(0.190168 0.084901 0)
(0.112216 0.0887294 0)
(0.049483 0.0933191 0)
(3 4.54264e-08 0)
(2.99999 3.81662e-07 0)
(2.99997 1.14337e-06 0)
(2.99993 3.79606e-06 0)
(2.99981 8.57355e-06 0)
(2.99954 2.63111e-05 0)
(2.99886 5.31882e-05 0)
(2.99718 0.000169089 0)
(2.99301 0.000330105 0)
(2.98256 0.00102654 0)
(2.95549 0.00227302 0)
(2.88208 0.0063612 0)
(2.66939 0.01731 0)
(2.03269 0.0503737 0)
(0.950235 0.141881 0)
(0.39319 0.124062 0)
(0.53284 0.114739 0)
(0.573334 0.118417 0)
(0.515991 0.12364 0)
(0.423456 0.130595 0)
(0.339282 0.136125 0)
(0.270543 0.141697 0)
(0.199454 0.148185 0)
(0.117621 0.155313 0)
(0.0505693 0.161522 0)
(3 7.84318e-08 0)
(2.99999 4.56768e-07 0)
(2.99997 1.65135e-06 0)
(2.99993 4.50196e-06 0)
(2.99983 1.22352e-05 0)
(2.99956 3.0191e-05 0)
(2.99893 7.89407e-05 0)
(2.99732 0.00018937 0)
(2.99343 0.000498747 0)
(2.98349 0.00119397 0)
(2.95817 0.003151 0)
(2.88941 0.00810326 0)
(2.69133 0.0226764 0)
(2.09807 0.0660993 0)
(0.997513 0.191141 0)
(0.406899 0.174575 0)
(0.550322 0.161978 0)
(0.595529 0.166311 0)
(0.540092 0.173398 0)
(0.448324 0.184153 0)
(0.362043 0.193753 0)
(0.290008 0.203844 0)
(0.214711 0.215128 0)
(0.127506 0.226476 0)
(0.054116 0.234692 0)
(3 9.78368e-08 0)
(2.99999 4.39739e-07 0)
(2.99997 1.96942e-06 0)
(2.99993 4.41212e-06 0)
(2.99983 1.47419e-05 0)
(2.9996 2.97887e-05 0)
(2.99899 9.5387e-05 0)
(2.99753 0.000187499 0)
(2.99385 0.000589953 0)
(2.98477 0.00122574 0)
(2.96126 0.00354943 0)
(2.89841 0.00867545 0)
(2.71835 0.0246575 0)
(2.18105 0.0715695 0)
(1.06912 0.212027 0)
(0.444335 0.21542 0)
(0.580224 0.208381 0)
(0.62686 0.214345 0)
(0.571838 0.223423 0)
(0.479826 0.238136 0)
(0.3903 0.25288 0)
(0.314266 0.268361 0)
(0.234326 0.285154 0)
(0.140766 0.301612 0)
(0.0594866 0.312816 0)
(3 6.02503e-08 0)
(2.99999 5.49414e-07 0)
(2.99998 1.45619e-06 0)
(2.99994 5.42291e-06 0)
(2.99985 1.13179e-05 0)
(2.99963 3.58938e-05 0)
(2.99906 7.40522e-05 0)
(2.99773 0.000221783 0)
(2.9943 0.000470717 0)
(2.98596 0.00135024 0)
(2.9644 0.00306094 0)
(2.90706 0.0084951 0)
(2.74445 0.0224176 0)
(2.26162 0.0652698 0)
(1.14972 0.194203 0)
(0.481215 0.248292 0)
(0.601668 0.25902 0)
(0.64855 0.264913 0)
(0.596711 0.27477 0)
(0.508247 0.293848 0)
(0.418465 0.314835 0)
(0.34039 0.336733 0)
(0.257242 0.36028 0)
(0.157647 0.383693 0)
(0.0672121 0.400138 0)
(3 7.2602e-08 0)
(2.99999 4.98184e-07 0)
(2.99998 1.60333e-06 0)
(2.99994 4.90311e-06 0)
(2.99986 1.20581e-05 0)
(2.99965 3.21769e-05 0)
(2.99915 7.71543e-05 0)
(2.99786 0.000197684 0)
(2.99479 0.00048084 0)
(2.98692 0.00120822 0)
(2.96724 0.00300747 0)
(2.91454 0.00773418 0)
(2.76584 0.0207197 0)
(2.32546 0.0586727 0)
(1.23785 0.173724 0)
(0.52164 0.28882 0)
(0.610902 0.319473 0)
(0.654655 0.316668 0)
(0.612693 0.324806 0)
(0.533348 0.34912 0)
(0.446665 0.377812 0)
(0.369124 0.407798 0)
(0.284933 0.440603 0)
(0.180095 0.474728 0)
(0.0786723 0.501552 0)
(3 8.22331e-08 0)
(2.99999 4.72063e-07 0)
(2.99998 1.78672e-06 0)
(2.99995 4.60848e-06 0)
(2.99987 1.33072e-05 0)
(2.99968 3.08772e-05 0)
(2.9992 8.33749e-05 0)
(2.99807 0.000193748 0)
(2.99514 0.000502864 0)
(2.98807 0.0012081 0)
(2.96984 0.00307571 0)
(2.9218 0.0077462 0)
(2.78683 0.020847 0)
(2.38762 0.058431 0)
(1.34868 0.173062 0)
(0.592675 0.336473 0)
(0.61911 0.368621 0)
(0.648906 0.362996 0)
(0.625277 0.374605 0)
(0.559592 0.402158 0)
(0.478061 0.439658 0)
(0.40313 0.480007 0)
(0.320838 0.525608 0)
(0.213094 0.576307 0)
(0.0979075 0.624965 0)
(3 7.29849e-08 0)
(2.99999 5.47444e-07 0)
(2.99998 1.69113e-06 0)
(2.99995 5.35234e-06 0)
(2.99988 1.26759e-05 0)
(2.99971 3.57553e-05 0)
(2.99928 7.98102e-05 0)
(2.99821 0.000220726 0)
(2.99563 0.000492126 0)
(2.98907 0.00133387 0)
(2.97268 0.00311326 0)
(2.92937 0.00824506 0)
(2.80801 0.0214957 0)
(2.45213 0.0606791 0)
(1.48237 0.178063 0)
(0.682254 0.385934 0)
(0.626409 0.403768 0)
(0.651075 0.40357 0)
(0.640695 0.423409 0)
(0.588122 0.453386 0)
(0.516271 0.499206 0)
(0.446556 0.552029 0)
(0.370073 0.613246 0)
(0.266216 0.690533 0)
(0.133615 0.784492 0)
(3 9.44693e-08 0)
(2.99999 5.23369e-07 0)
(2.99998 1.992e-06 0)
(2.99996 5.18882e-06 0)
(2.99989 1.46364e-05 0)
(2.99974 3.468e-05 0)
(2.99936 9.23728e-05 0)
(2.99841 0.000213414 0)
(2.99607 0.000568495 0)
(2.99025 0.00131336 0)
(2.9756 0.0034639 0)
(2.93711 0.00847242 0)
(2.83054 0.0227872 0)
(2.51843 0.0632628 0)
(1.63761 0.184911 0)
(0.787692 0.436843 0)
(0.633901 0.440832 0)
(0.661456 0.441824 0)
(0.662399 0.466973 0)
(0.621302 0.502384 0)
(0.562791 0.55481 0)
(0.502338 0.61953 0)
(0.44041 0.702618 0)
(0.357731 0.825959 0)
(0.202737 1.04266 0)
(3 8.90911e-08 0)
(2.99999 5.7603e-07 0)
(2.99999 1.97914e-06 0)
(2.99996 5.69895e-06 0)
(2.99991 1.47742e-05 0)
(2.99977 3.81042e-05 0)
(2.99943 9.30937e-05 0)
(2.99861 0.000236863 0)
(2.99655 0.000569351 0)
(2.99148 0.00145441 0)
(2.97864 0.00353663 0)
(2.94548 0.00908274 0)
(2.8537 0.0237205 0)
(2.58763 0.0660867 0)
(1.8151 0.191757 0)
(0.912111 0.486542 0)
(0.645443 0.48031 0)
(0.678904 0.479359 0)
(0.692356 0.504248 0)
(0.661881 0.545514 0)
(0.617276 0.602706 0)
(0.575056 0.677663 0)
(0.547084 0.781104 0)
(0.549338 0.936782 0)
(0.595754 1.1943 0)
(3 8.84934e-08 0)
(3 5.92448e-07 0)
(2.99999 1.97347e-06 0)
(2.99997 5.83309e-06 0)
(2.99992 1.48809e-05 0)
(2.9998 3.88827e-05 0)
(2.99952 9.50435e-05 0)
(2.99881 0.00024181 0)
(2.99708 0.000586581 0)
(2.99272 0.00149053 0)
(2.98196 0.00364665 0)
(2.95394 0.00935675 0)
(2.87808 0.0242784 0)
(2.65918 0.0674479 0)
(2.01258 0.195559 0)
(1.05964 0.528488 0)
(0.672988 0.525344 0)
(0.707505 0.522956 0)
(0.731496 0.539328 0)
(0.711585 0.58198 0)
(0.680669 0.641845 0)
(0.660083 0.723093 0)
(0.667731 0.834489 0)
(0.732643 0.987614 0)
(0.892208 1.18664 0)
(3 8.63819e-08 0)
(3 5.42439e-07 0)
(2.99999 1.89951e-06 0)
(2.99997 5.32215e-06 0)
(2.99993 1.42423e-05 0)
(2.99984 3.56327e-05 0)
(2.9996 9.03552e-05 0)
(2.99902 0.000223608 0)
(2.99759 0.000557234 0)
(2.99403 0.0013866 0)
(2.9852 0.00345718 0)
(2.96268 0.00871828 0)
(2.90224 0.0226797 0)
(2.73152 0.0621256 0)
(2.22698 0.179787 0)
(1.24903 0.516154 0)
(0.745718 0.563781 0)
(0.758226 0.574268 0)
(0.782683 0.578791 0)
(0.773214 0.616013 0)
(0.753135 0.674776 0)
(0.750766 0.75438 0)
(0.782966 0.858978 0)
(0.874001 0.987264 0)
(1.05578 1.11468 0)
(3 7.49858e-08 0)
(3 4.67595e-07 0)
(2.99999 1.62156e-06 0)
(2.99998 4.60597e-06 0)
(2.99995 1.21282e-05 0)
(2.99987 3.04141e-05 0)
(2.99968 7.71134e-05 0)
(2.9992 0.00018718 0)
(2.99805 0.000475101 0)
(2.99514 0.00114215 0)
(2.98807 0.00291237 0)
(2.96997 0.00712575 0)
(2.92267 0.0184604 0)
(2.79069 0.0492694 0)
(2.40668 0.140182 0)
(1.4626 0.419016 0)
(0.843355 0.590731 0)
(0.812382 0.62065 0)
(0.830817 0.626273 0)
(0.83713 0.652499 0)
(0.828446 0.704086 0)
(0.837877 0.774629 0)
(0.883075 0.862439 0)
(0.979453 0.961456 0)
(1.15071 1.04374 0)
(3 6.44148e-08 0)
(3 3.91967e-07 0)
(2.99999 1.40654e-06 0)
(2.99998 3.8597e-06 0)
(2.99996 1.04277e-05 0)
(2.99989 2.57241e-05 0)
(2.99973 6.52792e-05 0)
(2.99935 0.000158129 0)
(2.99839 0.0003945 0)
(2.99607 0.000960118 0)
(2.99018 0.00238311 0)
(2.97562 0.00588299 0)
(2.93731 0.0148548 0)
(2.83196 0.0389966 0)
(2.52655 0.108078 0)
(1.68776 0.320482 0)
(0.95651 0.631022 0)
(0.847178 0.661812 0)
(0.86485 0.673256 0)
(0.886695 0.688108 0)
(0.895264 0.72936 0)
(0.915007 0.788088 0)
(0.966237 0.857906 0)
(1.05993 0.931606 0)
(1.21227 0.987936 0)
(3 5.09522e-08 0)
(3 3.64883e-07 0)
(2.99999 1.15279e-06 0)
(2.99999 3.58119e-06 0)
(2.99997 8.6683e-06 0)
(2.99991 2.36325e-05 0)
(2.99979 5.49916e-05 0)
(2.99947 0.00014462 0)
(2.99872 0.000338246 0)
(2.99679 0.000872264 0)
(2.99217 0.00208015 0)
(2.98035 0.00531017 0)
(2.95018 0.0131076 0)
(2.86762 0.0346339 0)
(2.63023 0.0948636 0)
(1.94373 0.27673 0)
(1.11846 0.666696 0)
(0.880196 0.695216 0)
(0.892337 0.708321 0)
(0.924418 0.715618 0)
(0.951237 0.747661 0)
(0.980711 0.796157 0)
(1.03459 0.851436 0)
(1.12294 0.906156 0)
(1.2562 0.94598 0)
(3 4.85617e-08 0)
(3 3.03164e-07 0)
(3 1.05896e-06 0)
(2.99999 2.98376e-06 0)
(2.99997 7.93092e-06 0)
(2.99993 1.98155e-05 0)
(2.99983 5.03412e-05 0)
(2.99959 0.000122471 0)
(2.99899 0.000310207 0)
(2.99752 0.000750083 0)
(2.99388 0.00189965 0)
(2.9848 0.00465335 0)
(2.96176 0.0118084 0)
(2.89985 0.0305498 0)
(2.72517 0.0835304 0)
(2.20969 0.241563 0)
(1.3315 0.657207 0)
(0.946678 0.722087 0)
(0.9338 0.735571 0)
(0.962991 0.740635 0)
(1.00228 0.761362 0)
(1.03885 0.800274 0)
(1.09248 0.844616 0)
(1.17401 0.886003 0)
(1.29018 0.914783 0)
(3 4.15354e-08 0)
(3 2.41335e-07 0)
(3 8.97965e-07 0)
(2.99999 2.38056e-06 0)
(2.99998 6.6549e-06 0)
(2.99995 1.59851e-05 0)
(2.99987 4.16593e-05 0)
(2.99969 9.92977e-05 0)
(2.99924 0.000252499 0)
(2.99812 0.000610381 0)
(2.99543 0.0015248 0)
(2.98861 0.00375808 0)
(2.97177 0.00940097 0)
(2.92738 0.0239427 0)
(2.80555 0.0643064 0)
(2.45298 0.182418 0)
(1.60305 0.536903 0)
(1.06099 0.730582 0)
(0.994061 0.758505 0)
(1.00915 0.770246 0)
(1.05045 0.779209 0)
(1.0926 0.806007 0)
(1.14421 0.839974 0)
(1.21796 0.871267 0)
(1.31899 0.892136 0)
(3 3.27186e-08 0)
(3 1.92811e-07 0)
(3 7.01113e-07 0)
(2.99999 1.89854e-06 0)
(2.99998 5.20218e-06 0)
(2.99996 1.25517e-05 0)
(2.9999 3.27889e-05 0)
(2.99976 7.66869e-05 0)
(2.99942 0.000198673 0)
(2.99858 0.000462865 0)
(2.99651 0.00119414 0)
(2.99137 0.00280813 0)
(2.97855 0.0072091 0)
(2.94553 0.0175823 0)
(2.85531 0.0465446 0)
(2.59772 0.127085 0)
(1.88164 0.378068 0)
(1.19581 0.741696 0)
(1.04189 0.781978 0)
(1.04691 0.800159 0)
(1.0873 0.802251 0)
(1.13681 0.814911 0)
(1.18883 0.83859 0)
(1.2562 0.861699 0)
(1.34472 0.876483 0)
(3 2.43977e-08 0)
(3 1.60998e-07 0)
(3 5.40874e-07 0)
(3 1.58006e-06 0)
(2.99999 4.04936e-06 0)
(2.99997 1.04659e-05 0)
(2.99993 2.55742e-05 0)
(2.99983 6.43342e-05 0)
(2.99956 0.000156059 0)
(2.99895 0.000389887 0)
(2.99738 0.000951087 0)
(2.99363 0.00236726 0)
(2.98406 0.00583079 0)
(2.96003 0.0147054 0)
(2.89535 0.0378575 0)
(2.71274 0.103367 0)
(2.17778 0.30026 0)
(1.39432 0.744763 0)
(1.10108 0.811166 0)
(1.08704 0.825101 0)
(1.11805 0.825043 0)
(1.17198 0.825552 0)
(1.22751 0.839813 0)
(1.29022 0.856162 0)
(1.36836 0.866238 0)
(3 1.94756e-08 0)
(3 1.23362e-07 0)
(3 4.29152e-07 0)
(3 1.21037e-06 0)
(2.99999 3.19231e-06 0)
(2.99998 8.05347e-06 0)
(2.99995 2.00058e-05 0)
(2.99987 4.97378e-05 0)
(2.99969 0.000121111 0)
(2.99924 0.000301924 0)
(2.99815 0.000732878 0)
(2.99544 0.00183166 0)
(2.98884 0.00447991 0)
(2.97219 0.0112487 0)
(2.92894 0.0286134 0)
(2.81119 0.0765338 0)
(2.46929 0.21842 0)
(1.68428 0.618546 0)
(1.21612 0.811429 0)
(1.14615 0.838705 0)
(1.15824 0.846886 0)
(1.20685 0.841494 0)
(1.26399 0.845597 0)
(1.32248 0.854798 0)
(1.39161 0.860542 0)
(3 1.46155e-08 0)
(3 9.35122e-08 0)
(3 3.17723e-07 0)
(3 9.16321e-07 0)
(2.99999 2.36623e-06 0)
(2.99998 5.99385e-06 0)
(2.99996 1.4903e-05 0)
(2.99991 3.63312e-05 0)
(2.99977 9.06435e-05 0)
(2.99946 0.00021646 0)
(2.99865 0.000545665 0)
(2.99675 0.00129222 0)
(2.99191 0.00327483 0)
(2.98012 0.00786096 0)
(2.94952 0.0199755 0)
(2.8675 0.0513516 0)
(2.63452 0.140877 0)
(1.98921 0.416094 0)
(1.35853 0.800182 0)
(1.19862 0.853282 0)
(1.19537 0.870515 0)
(1.23505 0.865347 0)
(1.29389 0.857431 0)
(1.35136 0.857936 0)
(1.41416 0.859168 0)
(3 1.04236e-08 0)
(3 7.08925e-08 0)
(3 2.33866e-07 0)
(3 6.93766e-07 0)
(3 1.74173e-06 0)
(2.99999 4.58182e-06 0)
(2.99997 1.08838e-05 0)
(2.99994 2.80927e-05 0)
(2.99984 6.59148e-05 0)
(2.99962 0.00016905 0)
(2.99905 0.000397072 0)
(2.99771 0.00101425 0)
(2.99431 0.0024087 0)
(2.98608 0.0061189 0)
(2.96501 0.0149369 0)
(2.90975 0.0387575 0)
(2.75584 0.103638 0)
(2.30575 0.300676 0)
(1.58482 0.747577 0)
(1.27609 0.864012 0)
(1.24122 0.886604 0)
(1.26251 0.888277 0)
(1.31633 0.874574 0)
(1.3761 0.866468 0)
(1.43582 0.862617 0)
(3 7.70218e-09 0)
(3 5.1545e-08 0)
(3 1.72125e-07 0)
(3 5.05797e-07 0)
(3 1.27859e-06 0)
(2.99999 3.34752e-06 0)
(2.99998 7.98928e-06 0)
(2.99996 2.04556e-05 0)
(2.99989 4.82986e-05 0)
(2.99973 0.000122828 0)
(2.99936 0.000290394 0)
(2.99842 0.000734643 0)
(2.99616 0.00175574 0)
(2.99055 0.00441209 0)
(2.97668 0.0107861 0)
(2.94084 0.0274403 0)
(2.84461 0.0719853 0)
(2.56813 0.202515 0)
(1.8895 0.575882 0)
(1.40239 0.852218 0)
(1.29943 0.892833 0)
(1.29948 0.90656 0)
(1.34004 0.895197 0)
(1.39837 0.878459 0)
(1.4563 0.869508 0)
(3 5.9119e-09 0)
(3 3.53695e-08 0)
(3 1.27223e-07 0)
(3 3.4759e-07 0)
(3 9.42313e-07 0)
(2.99999 2.29663e-06 0)
(2.99999 5.8967e-06 0)
(2.99997 1.39865e-05 0)
(2.99993 3.55503e-05 0)
(2.99982 8.40997e-05 0)
(2.99956 0.000212272 0)
(2.99893 0.000504214 0)
(2.99737 0.00126786 0)
(2.99361 0.00304305 0)
(2.98417 0.00763929 0)
(2.96044 0.0187533 0)
(2.8976 0.0486103 0)
(2.72188 0.130819 0)
(2.21996 0.382596 0)
(1.58735 0.820256 0)
(1.36306 0.904691 0)
(1.3393 0.921503 0)
(1.36095 0.916086 0)
(1.41483 0.89537 0)
(1.47469 0.879603 0)
(3 4.13839e-09 0)
(3 2.50125e-08 0)
(3 8.96008e-08 0)
(3 2.45199e-07 0)
(3 6.62949e-07 0)
(3 1.62259e-06 0)
(2.99999 4.12754e-06 0)
(2.99998 9.89696e-06 0)
(2.99995 2.47834e-05 0)
(2.99988 5.94978e-05 0)
(2.99971 0.00014758 0)
(2.9993 0.000356485 0)
(2.99828 0.000878484 0)
(2.99586 0.00214418 0)
(2.98975 0.00527543 0)
(2.97488 0.0130368 0)
(2.93632 0.0330224 0)
(2.83309 0.0869792 0)
(2.53481 0.247742 0)
(1.87815 0.660144 0)
(1.47623 0.883667 0)
(1.39593 0.920012 0)
(1.39526 0.930286 0)
(1.43463 0.915299 0)
(1.4916 0.890471 0)
(3 2.74216e-09 0)
(3 1.73765e-08 0)
(3 6.05222e-08 0)
(3 1.69834e-07 0)
(3 4.47542e-07 0)
(3 1.1202e-06 0)
(2.99999 2.77346e-06 0)
(2.99999 6.8388e-06 0)
(2.99997 1.65216e-05 0)
(2.99992 4.09805e-05 0)
(2.99981 9.78732e-05 0)
(2.99954 0.000244073 0)
(2.99886 0.000579704 0)
(2.99727 0.00145166 0)
(2.99324 0.00345993 0)
(2.98352 0.00868688 0)
(2.9586 0.0212208 0)
(2.89325 0.0548603 0)
(2.71041 0.147867 0)
(2.20227 0.426478 0)
(1.6365 0.847297 0)
(1.45426 0.924285 0)
(1.43268 0.940606 0)
(1.45172 0.934166 0)
(1.50226 0.907703 0)
(3 1.84975e-09 0)
(3 1.17882e-08 0)
(3 4.07054e-08 0)
(3 1.15149e-07 0)
(3 3.01195e-07 0)
(3 7.55957e-07 0)
(3 1.87008e-06 0)
(2.99999 4.60476e-06 0)
(2.99998 1.11522e-05 0)
(2.99995 2.75428e-05 0)
(2.99988 6.60214e-05 0)
(2.9997 0.000164007 0)
(2.99928 0.000390704 0)
(2.99826 0.000975256 0)
(2.99578 0.00232882 0)
(2.98966 0.00582632 0)
(2.97457 0.0141659 0)
(2.93598 0.0360391 0)
(2.8325 0.094681 0)
(2.53429 0.269496 0)
(1.91457 0.690895 0)
(1.55717 0.897133 0)
(1.48579 0.934752 0)
(1.48285 0.944195 0)
(1.51791 0.928445 0)
(3 1.18678e-09 0)
(3 8.00175e-09 0)
(3 2.6307e-08 0)
(3 7.80017e-08 0)
(3 1.94857e-07 0)
(3 5.08119e-07 0)
(3 1.21258e-06 0)
(2.99999 3.0599e-06 0)
(2.99999 7.27785e-06 0)
(2.99997 1.80476e-05 0)
(2.99992 4.32726e-05 0)
(2.99981 0.000105951 0)
(2.99954 0.000257064 0)
(2.99888 0.000621014 0)
(2.99728 0.00152573 0)
(2.99338 0.00366803 0)
(2.98372 0.00910018 0)
(2.95954 0.0222823 0)
(2.89565 0.057214 0)
(2.7184 0.153908 0)
(2.23374 0.437576 0)
(1.70921 0.849272 0)
(1.54141 0.932072 0)
(1.51791 0.950306 0)
(1.53346 0.946112 0)
(3 7.86802e-10 0)
(3 5.14934e-09 0)
(3 1.74931e-08 0)
(3 5.02989e-08 0)
(3 1.28932e-07 0)
(3 3.31026e-07 0)
(3 7.94088e-07 0)
(3 2.00479e-06 0)
(2.99999 4.72662e-06 0)
(2.99998 1.1891e-05 0)
(2.99995 2.79716e-05 0)
(2.99988 6.99903e-05 0)
(2.99971 0.000165938 0)
(2.99931 0.000410854 0)
(2.99831 0.000985076 0)
(2.99597 0.00242314 0)
(2.99006 0.00588657 0)
(2.97577 0.0145601 0)
(2.93905 0.0363945 0)
(2.8415 0.0958601 0)
(2.56153 0.270353 0)
(1.9829 0.685663 0)
(1.64162 0.900661 0)
(1.56849 0.943692 0)
(1.56284 0.954652 0)
(3 5.29982e-10 0)
(3 3.20813e-09 0)
(3 1.15068e-08 0)
(3 3.13127e-08 0)
(3 8.46112e-08 0)
(3 2.05958e-07 0)
(3 5.20165e-07 0)
(3 1.24629e-06 0)
(2.99999 3.07089e-06 0)
(2.99999 7.416e-06 0)
(2.99997 1.79579e-05 0)
(2.99993 4.38894e-05 0)
(2.99982 0.000104726 0)
(2.99957 0.000259585 0)
(2.99896 0.00061158 0)
(2.99746 0.00153038 0)
(2.99383 0.00360697 0)
(2.98487 0.00905858 0)
(2.96256 0.0218815 0)
(2.90409 0.0562518 0)
(2.74311 0.149908 0)
(2.30333 0.423244 0)
(1.80179 0.832676 0)
(1.62609 0.933802 0)
(1.59725 0.956947 0)
(3 3.35368e-10 0)
(3 2.06959e-09 0)
(3 7.24043e-09 0)
(3 2.0194e-08 0)
(3 5.3435e-08 0)
(3 1.31503e-07 0)
(3 3.32003e-07 0)
(3 7.88045e-07 0)
(3 1.97634e-06 0)
(2.99999 4.6523e-06 0)
(2.99998 1.1634e-05 0)
(2.99995 2.73949e-05 0)
(2.99989 6.81357e-05 0)
(2.99974 0.000161846 0)
(2.99937 0.00039831 0)
(2.99846 0.000957418 0)
(2.99633 0.00233877 0)
(2.99097 0.00569988 0)
(2.97809 0.0139838 0)
(2.94507 0.0349283 0)
(2.85831 0.0909646 0)
(2.61053 0.254254 0)
(2.07926 0.650282 0)
(1.73267 0.89812 0)
(1.64831 0.950778 0)
(3 2.02985e-10 0)
(3 1.32463e-09 0)
(3 4.43805e-09 0)
(3 1.29045e-08 0)
(3 3.27308e-08 0)
(3 8.36214e-08 0)
(3 2.02838e-07 0)
(3 4.98917e-07 0)
(3 1.21114e-06 0)
(3 2.91785e-06 0)
(2.99999 7.14852e-06 0)
(2.99997 1.69932e-05 0)
(2.99993 4.21103e-05 0)
(2.99984 9.88977e-05 0)
(2.99962 0.000246859 0)
(2.99908 0.000578576 0)
(2.99778 0.00144384 0)
(2.99457 0.0034024 0)
(2.98683 0.00850018 0)
(2.96747 0.0204807 0)
(2.9176 0.0522736 0)
(2.78198 0.137896 0)
(2.40736 0.388073 0)
(1.9188 0.797176 0)
(1.71326 0.930539 0)
(3 1.24468e-10 0)
(3 8.16829e-10 0)
(3 2.75929e-09 0)
(3 7.94924e-09 0)
(3 2.03165e-08 0)
(3 5.1861e-08 0)
(3 1.24721e-07 0)
(3 3.11937e-07 0)
(3 7.37022e-07 0)
(3 1.8381e-06 0)
(2.99999 4.32258e-06 0)
(2.99998 1.07496e-05 0)
(2.99996 2.53801e-05 0)
(2.99991 6.2653e-05 0)
(2.99977 0.000149338 0)
(2.99946 0.000364533 0)
(2.99868 0.000879965 0)
(2.99685 0.00212974 0)
(2.99229 0.00520408 0)
(2.98131 0.0126732 0)
(2.95345 0.0315279 0)
(2.88106 0.0810528 0)
(2.6766 0.222958 0)
(2.20557 0.582854 0)
(1.83488 0.886518 0)
(3 7.86946e-11 0)
(3 4.8414e-10 0)
(3 1.71209e-09 0)
(3 4.71715e-09 0)
(3 1.25534e-08 0)
(3 3.08448e-08 0)
(3 7.68287e-08 0)
(3 1.85525e-07 0)
(3 4.51079e-07 0)
(3 1.09544e-06 0)
(3 2.62268e-06 0)
(2.99999 6.42896e-06 0)
(2.99998 1.52385e-05 0)
(2.99995 3.76015e-05 0)
(2.99987 8.86785e-05 0)
(2.99968 0.000219064 0)
(2.99925 0.000517657 0)
(2.99817 0.00127721 0)
(2.99561 0.00302983 0)
(2.98933 0.0075065 0)
(2.97401 0.0180827 0)
(2.93497 0.0457597 0)
(2.83133 0.119148 0)
(2.54088 0.33411 0)
(2.06304 0.735644 0)
(3 4.6258e-11 0)
(3 2.93871e-10 0)
(3 1.00515e-09 0)
(3 2.86113e-09 0)
(3 7.37843e-09 0)
(3 1.85277e-08 0)
(3 4.54611e-08 0)
(3 1.10135e-07 0)
(3 2.69539e-07 0)
(3 6.41441e-07 0)
(3 1.57768e-06 0)
(2.99999 3.72418e-06 0)
(2.99999 9.1988e-06 0)
(2.99997 2.16139e-05 0)
(2.99992 5.34172e-05 0)
(2.99982 0.000125684 0)
(2.99957 0.000309714 0)
(2.99894 0.000730975 0)
(2.99748 0.00179708 0)
(2.99383 0.00427649 0)
(2.98516 0.0105285 0)
(2.96325 0.0255542 0)
(2.90728 0.0650649 0)
(2.75308 0.173823 0)
(2.36315 0.466397 0)
(3 2.68314e-11 0)
(3 1.748e-10 0)
(3 5.9216e-10 0)
(3 1.69705e-09 0)
(3 4.34773e-09 0)
(3 1.10246e-08 0)
(3 2.66124e-08 0)
(3 6.5913e-08 0)
(3 1.56681e-07 0)
(3 3.84837e-07 0)
(3 9.14487e-07 0)
(3 2.23289e-06 0)
(2.99999 5.32503e-06 0)
(2.99998 1.2925e-05 0)
(2.99996 3.09916e-05 0)
(2.9999 7.47435e-05 0)
(2.99975 0.000180429 0)
(2.99941 0.000431668 0)
(2.99857 0.00105188 0)
(2.9966 0.00250467 0)
(2.9917 0.00614988 0)
(2.98001 0.0148388 0)
(2.95044 0.0369624 0)
(2.87374 0.0948966 0)
(2.65898 0.260783 0)
(3 1.61974e-11 0)
(3 9.9687e-11 0)
(3 3.5126e-10 0)
(3 9.69632e-10 0)
(3 2.56764e-09 0)
(3 6.30082e-09 0)
(3 1.56822e-08 0)
(3 3.75715e-08 0)
(3 9.18645e-08 0)
(3 2.19235e-07 0)
(3 5.3222e-07 0)
(3 1.27411e-06 0)
(3 3.06922e-06 0)
(2.99999 7.39607e-06 0)
(2.99998 1.7663e-05 0)
(2.99994 4.28904e-05 0)
(2.99986 0.000101597 0)
(2.99966 0.000248221 0)
(2.99921 0.00058518 0)
(2.99807 0.0014346 0)
(2.99542 0.00338958 0)
(2.98883 0.00833486 0)
(2.97296 0.0200485 0)
(2.93244 0.050254 0)
(2.82468 0.130926 0)
(3 9.0117e-12 0)
(3 5.87896e-11 0)
(3 1.97826e-10 0)
(3 5.70572e-10 0)
(3 1.45065e-09 0)
(3 3.68623e-09 0)
(3 8.87578e-09 0)
(3 2.18559e-08 0)
(3 5.208e-08 0)
(3 1.26798e-07 0)
(3 3.02764e-07 0)
(3 7.30798e-07 0)
(3 1.7548e-06 0)
(2.99999 4.20171e-06 0)
(2.99999 1.01706e-05 0)
(2.99997 2.41405e-05 0)
(2.99992 5.87878e-05 0)
(2.99982 0.000138892 0)
(2.99956 0.00033948 0)
(2.99894 0.000800065 0)
(2.99745 0.00196071 0)
(2.99387 0.00464139 0)
(2.98513 0.0114261 0)
(2.96363 0.0276244 0)
(2.90849 0.0701202 0)
(3 5.25717e-12 0)
(3 3.29434e-11 0)
(3 1.14642e-10 0)
(3 3.19541e-10 0)
(3 8.37699e-10 0)
(3 2.06872e-09 0)
(3 5.10087e-09 0)
(3 1.23114e-08 0)
(3 2.9729e-08 0)
(3 7.17231e-08 0)
(3 1.71389e-07 0)
(3 4.15518e-07 0)
(3 9.86015e-07 0)
(3 2.39751e-06 0)
(2.99999 5.67994e-06 0)
(2.99998 1.38106e-05 0)
(2.99996 3.27099e-05 0)
(2.9999 7.94242e-05 0)
(2.99976 0.00018874 0)
(2.99942 0.000456433 0)
(2.99862 0.00108947 0)
(2.99671 0.00263361 0)
(2.99206 0.00633155 0)
(2.98084 0.0154228 0)
(2.953 0.0379188 0)
(3 2.89161e-12 0)
(3 1.87873e-11 0)
(3 6.34172e-11 0)
(3 1.82427e-10 0)
(3 4.63745e-10 0)
(3 1.17444e-09 0)
(3 2.83642e-09 0)
(3 6.91762e-09 0)
(3 1.66227e-08 0)
(3 3.98521e-08 0)
(3 9.63939e-08 0)
(3 2.28291e-07 0)
(3 5.55839e-07 0)
(3 1.30836e-06 0)
(3 3.19561e-06 0)
(2.99999 7.49872e-06 0)
(2.99998 1.83127e-05 0)
(2.99995 4.30287e-05 0)
(2.99987 0.000104724 0)
(2.99969 0.000246907 0)
(2.99926 0.000597654 0)
(2.99823 0.00142067 0)
(2.99577 0.00341771 0)
(2.98984 0.00821453 0)
(2.9754 0.0199356 0)
(3 1.66437e-12 0)
(3 1.02218e-11 0)
(3 3.60279e-11 0)
(3 9.92537e-11 0)
(3 2.6264e-10 0)
(3 6.40776e-10 0)
(3 1.59221e-09 0)
(3 3.79681e-09 0)
(3 9.22682e-09 0)
(3 2.20254e-08 0)
(3 5.27967e-08 0)
(3 1.27025e-07 0)
(3 3.01203e-07 0)
(3 7.29878e-07 0)
(3 1.71774e-06 0)
(2.99999 4.18364e-06 0)
(2.99999 9.80517e-06 0)
(2.99997 2.38834e-05 0)
(2.99993 5.60545e-05 0)
(2.99983 0.00013612 0)
(2.9996 0.000320307 0)
(2.99906 0.000774922 0)
(2.99772 0.0018354 0)
(2.99458 0.00442611 0)
(2.98687 0.010599 0)
(3 9.02572e-13 0)
(3 5.65216e-12 0)
(3 1.97635e-11 0)
(3 5.47158e-11 0)
(3 1.43863e-10 0)
(3 3.52827e-10 0)
(3 8.73297e-10 0)
(3 2.0808e-09 0)
(3 5.06957e-09 0)
(3 1.20045e-08 0)
(3 2.90431e-08 0)
(3 6.90337e-08 0)
(3 1.65496e-07 0)
(3 3.96468e-07 0)
(3 9.42715e-07 0)
(3 2.2708e-06 0)
(2.99999 5.3679e-06 0)
(2.99998 1.30094e-05 0)
(2.99996 3.05447e-05 0)
(2.99991 7.43643e-05 0)
(2.99979 0.000174408 0)
(2.9995 0.000423418 0)
(2.99882 0.000999935 0)
(2.99714 0.00241582 0)
(2.99322 0.00576212 0)
(3 4.64977e-13 0)
(3 3.13277e-12 0)
(3 1.04877e-11 0)
(3 3.03038e-11 0)
(3 7.64959e-11 0)
(3 1.94672e-10 0)
(3 4.63325e-10 0)
(3 1.14624e-09 0)
(3 2.68597e-09 0)
(3 6.58146e-09 0)
(3 1.54276e-08 0)
(3 3.75184e-08 0)
(3 8.83155e-08 0)
(3 2.13253e-07 0)
(3 5.06064e-07 0)
(3 1.20947e-06 0)
(3 2.89572e-06 0)
(2.99999 6.86232e-06 0)
(2.99998 1.65643e-05 0)
(2.99995 3.89017e-05 0)
(2.99989 9.45798e-05 0)
(2.99974 0.000220997 0)
(2.99938 0.000538762 0)
(2.99855 0.00125859 0)
(2.9965 0.00307162 0)
(3 2.70322e-13 0)
(3 1.63882e-12 0)
(3 5.70499e-12 0)
(3 1.59515e-11 0)
(3 4.18376e-11 0)
(3 1.02112e-10 0)
(3 2.53337e-10 0)
(3 5.99384e-10 0)
(3 1.46606e-09 0)
(3 3.44013e-09 0)
(3 8.36717e-09 0)
(3 1.96302e-08 0)
(3 4.75108e-08 0)
(3 1.11958e-07 0)
(3 2.69059e-07 0)
(3 6.37615e-07 0)
(3 1.5223e-06 0)
(3 3.63056e-06 0)
(2.99999 8.59892e-06 0)
(2.99998 2.06285e-05 0)
(2.99994 4.85614e-05 0)
(2.99987 0.000117023 0)
(2.99968 0.00027397 0)
(2.99925 0.000662074 0)
(2.9982 0.00154935 0)
(3 1.31976e-13 0)
(3 8.95513e-13 0)
(3 3.03656e-12 0)
(3 8.48506e-12 0)
(3 2.22978e-11 0)
(3 5.42965e-11 0)
(3 1.34285e-10 0)
(3 3.18258e-10 0)
(3 7.73347e-10 0)
(3 1.82449e-09 0)
(3 4.39766e-09 0)
(3 1.0398e-08 0)
(3 2.48932e-08 0)
(3 5.91333e-08 0)
(3 1.40584e-07 0)
(3 3.36198e-07 0)
(3 7.92781e-07 0)
(3 1.90564e-06 0)
(2.99999 4.4769e-06 0)
(2.99999 1.07803e-05 0)
(2.99997 2.5264e-05 0)
(2.99993 6.08177e-05 0)
(2.99984 0.000142819 0)
(2.99961 0.000342462 0)
(2.99907 0.00080675 0)
(3 6.62623e-14 0)
(3 4.65124e-13 0)
(3 1.56987e-12 0)
(3 4.50625e-12 0)
(3 1.13667e-11 0)
(3 2.88486e-11 0)
(3 6.87447e-11 0)
(3 1.6812e-10 0)
(3 3.97266e-10 0)
(3 9.55111e-10 0)
(3 2.26921e-09 0)
(3 5.38121e-09 0)
(3 1.29192e-08 0)
(3 3.02871e-08 0)
(3 7.323e-08 0)
(3 1.70699e-07 0)
(3 4.1422e-07 0)
(3 9.62451e-07 0)
(3 2.33443e-06 0)
(2.99999 5.4398e-06 0)
(2.99998 1.3117e-05 0)
(2.99996 3.07655e-05 0)
(2.99991 7.35799e-05 0)
(2.9998 0.00017403 0)
(2.99952 0.000412314 0)
(3 3.88374e-14 0)
(3 1.96e-13 0)
(3 7.68123e-13 0)
(3 2.08913e-12 0)
(3 5.67515e-12 0)
(3 1.40194e-11 0)
(3 3.47529e-11 0)
(3 8.27125e-11 0)
(3 2.00296e-10 0)
(3 4.73542e-10 0)
(3 1.13266e-09 0)
(3 2.68398e-09 0)
(3 6.36905e-09 0)
(3 1.51813e-08 0)
(3 3.56968e-08 0)
(3 8.564e-08 0)
(3 2.0022e-07 0)
(3 4.8165e-07 0)
(3 1.12171e-06 0)
(3 2.70277e-06 0)
(2.99999 6.28828e-06 0)
(2.99998 1.5118e-05 0)
(2.99995 3.5193e-05 0)
(2.99989 8.44006e-05 0)
(2.99975 0.000197175 0)
(3 2.30621e-14 0)
(3 1.06766e-13 0)
(3 3.95952e-13 0)
(3 1.01741e-12 0)
(3 2.65593e-12 0)
(3 6.4727e-12 0)
(3 1.59084e-11 0)
(3 3.74826e-11 0)
(3 9.12119e-11 0)
(3 2.13091e-10 0)
(3 5.13413e-10 0)
(3 1.19963e-09 0)
(3 2.87025e-09 0)
(3 6.72649e-09 0)
(3 1.59582e-08 0)
(3 3.76798e-08 0)
(3 8.82453e-08 0)
(3 2.10142e-07 0)
(3 4.8645e-07 0)
(3 1.166e-06 0)
(3 2.67094e-06 0)
(2.99999 6.41826e-06 0)
(2.99997 1.46108e-05 0)
(2.99993 3.50424e-05 0)
(2.99984 7.94011e-05 0)
(3 9.21392e-15 0)
(3 4.97367e-14 0)
(3 1.52025e-13 0)
(3 3.94375e-13 0)
(3 8.5809e-13 0)
(3 2.05026e-12 0)
(3 4.65352e-12 0)
(3 1.11064e-11 0)
(3 2.57758e-11 0)
(3 6.22324e-11 0)
(3 1.42964e-10 0)
(3 3.43965e-10 0)
(3 7.9884e-10 0)
(3 1.89859e-09 0)
(3 4.42362e-09 0)
(3 1.04329e-08 0)
(3 2.43437e-08 0)
(3 5.68677e-08 0)
(3 1.33e-07 0)
(3 3.07051e-07 0)
(3 7.16219e-07 0)
(2.99999 1.64024e-06 0)
(2.99998 3.81627e-06 0)
(2.99995 8.61847e-06 0)
(2.99987 1.98476e-05 0)
(1.27866 1.09911 0)
(1.69402 0.898237 0)
(1.8793 0.631564 0)
(1.90576 0.363823 0)
(1.8536 0.138691 0)
(1.75466 -0.0103433 0)
(1.65462 -0.0472324 0)
(1.60504 -0.015183 0)
(1.59711 0.0264001 0)
(1.60023 0.04628 0)
(1.60368 0.0435615 0)
(1.60449 0.0320111 0)
(1.60294 0.0211758 0)
(1.60032 0.0128487 0)
(1.5966 0.010085 0)
(1.59448 0.0109215 0)
(1.59496 0.0130307 0)
(1.5965 0.0145408 0)
(1.59831 0.0148197 0)
(1.60068 0.0145181 0)
(1.60339 0.0133342 0)
(1.60602 0.0117024 0)
(1.60875 0.0102707 0)
(1.61181 0.00953565 0)
(1.61523 0.00922995 0)
(1.61886 0.00904042 0)
(1.62233 0.00881679 0)
(1.62494 0.00881509 0)
(1.62661 0.00894346 0)
(1.62714 0.00923748 0)
(1.62493 0.00983545 0)
(1.61601 0.0109505 0)
(1.59142 0.0135686 0)
(1.53057 0.0197267 0)
(1.3851 0.033883 0)
(1.04061 0.0671702 0)
(0.45577 0.146666 0)
(-0.00116951 0.191252 0)
(-0.230942 0.0962084 0)
(-0.33099 0.00833961 0)
(-0.39152 -0.0250153 0)
(-0.361382 -0.0385087 0)
(-0.27333 -0.0533438 0)
(-0.17464 -0.0617663 0)
(-0.074194 -0.0661754 0)
(0.0380306 -0.0636678 0)
(0.135571 -0.0539892 0)
(0.218868 -0.0478089 0)
(0.29619 -0.0436365 0)
(0.367534 -0.0402213 0)
(0.433241 -0.0371631 0)
(0.492872 -0.0340789 0)
(0.549259 -0.0316303 0)
(0.605882 -0.0304386 0)
(0.662383 -0.0296729 0)
(0.716524 -0.0282419 0)
(0.768029 -0.026566 0)
(0.817224 -0.0250803 0)
(0.864495 -0.0238517 0)
(0.910021 -0.0227101 0)
(0.954008 -0.0216241 0)
(0.99654 -0.0205597 0)
(1.03776 -0.019521 0)
(1.07774 -0.018506 0)
(1.11655 -0.0175233 0)
(1.15424 -0.0165691 0)
(1.19088 -0.01565 0)
(1.22646 -0.0147545 0)
(1.26105 -0.013893 0)
(1.29464 -0.0130487 0)
(1.32729 -0.012237 0)
(1.35902 -0.0114384 0)
(1.3899 -0.0106717 0)
(1.41995 -0.00991668 0)
(1.44926 -0.00919557 0)
(1.47782 -0.00848866 0)
(1.5057 -0.00781932 0)
(1.53288 -0.00716437 0)
(1.55939 -0.00654467 0)
(1.58525 -0.00593946 0)
(1.61047 -0.00535886 0)
(1.63508 -0.00479303 0)
(1.65913 -0.00427524 0)
(1.68261 -0.00379157 0)
(1.70556 -0.00333152 0)
(1.72798 -0.00291362 0)
(1.74992 -0.00254834 0)
(1.7714 -0.002225 0)
(1.79243 -0.00197677 0)
(1.81302 -0.00174974 0)
(1.83324 -0.00149329 0)
(1.85313 -0.00121432 0)
(1.87269 -0.000936417 0)
(1.89189 -0.000669387 0)
(1.91068 -0.000406748 0)
(1.92894 -0.000135295 0)
(1.94638 0.000177382 0)
(1.9624 0.000588574 0)
(1.97529 0.00107489 0)
(1.98467 0.00204268 0)
(1.37138 1.00748 0)
(1.68855 0.721718 0)
(1.86347 0.404113 0)
(1.94732 0.131524 0)
(1.99664 -0.0640999 0)
(2.02577 -0.166734 0)
(2.03441 -0.171991 0)
(2.03285 -0.130462 0)
(2.01852 -0.0813715 0)
(1.99587 -0.0424091 0)
(1.9789 -0.0210767 0)
(1.97411 -0.0146977 0)
(1.97499 -0.0167579 0)
(1.97703 -0.0216368 0)
(1.97878 -0.0239417 0)
(1.97945 -0.0234888 0)
(1.97988 -0.0215512 0)
(1.97984 -0.0192886 0)
(1.98006 -0.0172356 0)
(1.98089 -0.0155963 0)
(1.98192 -0.0146497 0)
(1.98336 -0.0141935 0)
(1.98541 -0.01395 0)
(1.98779 -0.0136796 0)
(1.99012 -0.0132575 0)
(1.99234 -0.0127257 0)
(1.99453 -0.0121535 0)