/*--------------------------------*- C++ -*----------------------------------*\
  =========                 |
  \\      /  F ield         | OpenFOAM: The Open Source CFD Toolbox
   \\    /   O peration     | Website:  https://openfoam.org
    \\  /    A nd           | Version:  9
     \\/     M anipulation  |
\*---------------------------------------------------------------------------*/
FoamFile
{
    format      ascii;
    class       volScalarField;
    location    "0.004";
    object      mag(U);
}
// * * * * * * * * * * * * * * * * * * * * * * * * * * * * * * * * * * * * * //

dimensions      [0 1 -1 0 0 0 0];

internalField   nonuniform List<scalar> 
1000
(
8.75238e-14
2.77159e-13
2.91746e-13
4.81381e-13
4.95968e-13
5.3973e-13
4.66794e-13
4.66794e-13
5.68905e-13
4.08444e-13
3.93857e-13
4.66794e-13
3.20921e-13
4.23032e-13
3.7927e-13
2.77159e-13
3.64683e-13
1.6046e-13
3.06333e-13
1.89635e-13
3.64683e-13
2.77159e-13
5.54317e-13
3.7927e-13
5.83492e-13
4.66794e-13
9.19e-13
6.85603e-13
7.29365e-13
5.68905e-13
7.87714e-13
5.54317e-13
5.3973e-13
5.25143e-13
3.35508e-13
5.10556e-13
3.64683e-13
5.68905e-13
2.91746e-13
3.64683e-13
1.45873e-13
3.06333e-13
2.62571e-13
2.91746e-13
2.33397e-13
4.08444e-13
2.47984e-13
4.66794e-13
2.91746e-13
3.7927e-13
2.1881e-13
3.50095e-13
2.04222e-13
2.62571e-13
4.66794e-13
3.20921e-13
5.54317e-13
2.62571e-13
4.52206e-13
3.93857e-13
5.68905e-13
3.64683e-13
5.54317e-13
3.93857e-13
4.37619e-13
2.1881e-13
1.02111e-13
1.31286e-13
2.77159e-13
5.25143e-13
3.64683e-13
7.14778e-13
4.66794e-13
6.12667e-13
5.54317e-13
5.25143e-13
2.91746e-13
2.77159e-13
2.1881e-13
1.16698e-13
1.31286e-13
2.77159e-13
2.33397e-13
1.75048e-13
7.29365e-14
1.75048e-13
1.16698e-13
2.04222e-13
2.1881e-13
6.27254e-13
5.3973e-13
6.56429e-13
6.12667e-13
5.25143e-13
3.20921e-13
2.1881e-13
8.75238e-14
1.75048e-13
2.77159e-13
4.37619e-14
1.75048e-13
2.33397e-13
1.45873e-14
2.04222e-13
5.83492e-14
2.04222e-13
1.31286e-13
1.02111e-13
5.83492e-14
1.16698e-13
1.31286e-13
4.37619e-14
2.1881e-13
1.02111e-13
1.31286e-13
4.37619e-14
1.45873e-13
4.82783e-28
1.16698e-13
8.75238e-14
2.91746e-14
4.37619e-14
1.45873e-14
2.1881e-13
4.37619e-14
3.64683e-13
1.6046e-13
3.20921e-13
1.6046e-13
2.04222e-13
1.75048e-13
2.1881e-13
1.02111e-13
1.16698e-13
1.6046e-13
2.62571e-13
2.91746e-14
4.37619e-14
5.83492e-14
1.31286e-13
1.02111e-13
4.37619e-14
1.75048e-13
7.29365e-14
2.33397e-13
7.29365e-14
3.35508e-13
1.75048e-13
1.31286e-13
1.02111e-13
5.83492e-14
1.45873e-13
1.02111e-13
2.62571e-13
2.91746e-14
1.16698e-13
4.37619e-14
1.31286e-13
7.29365e-14
8.75238e-14
1.02111e-13
2.33397e-13
8.75238e-14
3.50095e-13
1.31286e-13
2.47984e-13
7.39636e-27
4.08444e-13
1.75048e-13
2.62571e-13
1.31286e-13
2.04222e-13
1.31286e-13
1.16698e-13
2.91746e-13
2.62571e-13
2.04222e-13
2.91746e-13
3.06333e-13
1.31286e-13
3.35508e-13
1.45873e-13
4.52206e-13
3.20921e-13
3.20921e-13
3.7927e-13
2.62571e-13
5.25143e-13
2.1881e-13
4.52206e-13
2.62571e-13
2.47984e-13
5.3973e-13
3.64683e-13
4.81381e-13
2.47984e-13
2.77159e-13
4.08444e-13
3.06333e-13
6.12667e-13
4.37619e-13
9.62762e-13
7.14778e-13
1.25451e-12
5.68905e-13
9.62762e-13
8.02302e-13
9.19e-13
9.62762e-13
1.23992e-12
1.25451e-12
1.19616e-12
1.29827e-12
1.09405e-12
1.05029e-12
1.1524e-12
1.02111e-12
8.75238e-13
8.46063e-13
8.75238e-13
8.46063e-13
9.48175e-13
5.83492e-13
8.89825e-13
1.05029e-12
9.91936e-13
1.05029e-12
9.48175e-13
1.31286e-12
1.02111e-12
1.54625e-12
1.22533e-12
1.4879e-12
1.07946e-12
1.47332e-12
1.18157e-12
1.2691e-12
1.37121e-12
1.40038e-12
1.40038e-12
1.09405e-12
1.21075e-12
1.16698e-12
1.45873e-12
1.06487e-12
1.07946e-12
1.22533e-12
1.12322e-12
9.62762e-13
1.10863e-12
7.14778e-13
9.48175e-13
7.73127e-13
8.89825e-13
7.5854e-13
8.60651e-13
8.02302e-13
8.89825e-13
6.71016e-13
7.87714e-13
6.27254e-13
9.62762e-13
6.12667e-13
9.48175e-13
6.27254e-13
9.62762e-13
8.02302e-13
9.91936e-13
9.62762e-13
1.00652e-12
8.16889e-13
8.46063e-13
7.0019e-13
7.43952e-13
6.85603e-13
5.83492e-13
9.77349e-13
1.06487e-12
1.86717e-12
2.90287e-12
5.76198e-12
1.03862e-11
2.02326e-11
3.77665e-11
7.23968e-11
1.36129e-10
2.56561e-10
4.79528e-10
8.92028e-10
1.64839e-09
3.02945e-09
5.53143e-09
1.00401e-08
1.81079e-08
3.24547e-08
5.77953e-08
1.0226e-07
1.7975e-07
3.13875e-07
5.44412e-07
9.37883e-07
1.60466e-06
2.72642e-06
4.5998e-06
7.70518e-06
1.28139e-05
2.11542e-05
3.46644e-05
5.63765e-05
9.09902e-05
0.000145723
0.000231551
0.000365011
0.00057076
0.00088519
0.00136145
0.00207632
0.00313948
0.00470581
0.00699139
0.010294
0.0150189
0.0217099
0.0310871
0.0440905
0.0619279
0.0861279
0.118593
0.161649
0.21809
0.291208
0.384803
0.503168
0.651045
0.833547
1.05605
1.32403
1.64294
2.01799
2.45398
2.95512
3.52493
4.16608
4.88034
5.66857
6.53073
7.46594
8.47257
9.54833
10.6904
11.8957
13.1606
14.4817
15.8552
17.2775
18.7451
20.2546
21.8028
23.3867
25.0033
26.6502
28.3249
30.0252
31.749
33.4946
35.2604
37.0447
38.8462
40.6638
42.4962
44.3424
46.2016
48.0728
49.9553
51.8483
53.7513
55.6635
57.5845
59.5137
61.4506
63.3948
65.3458
67.3032
69.2666
71.2358
73.2103
75.1898
77.1741
79.1628
81.1557
83.1526
85.1531
87.1571
89.1644
91.1748
93.188
95.2039
97.2224
99.2432
101.266
103.291
105.318
107.347
109.378
111.41
113.443
115.478
117.514
119.551
121.59
123.629
125.669
127.71
129.752
131.794
133.837
135.88
137.924
139.968
142.013
144.058
146.102
148.147
150.192
152.237
154.282
156.326
158.371
160.415
162.458
164.502
166.544
168.587
170.628
172.669
174.709
176.748
178.787
180.824
182.86
184.895
186.929
188.961
190.992
193.021
195.049
197.074
199.098
201.12
203.139
205.156
207.171
209.183
211.191
213.197
215.2
217.198
219.193
221.184
223.171
225.152
227.129
229.1
231.066
233.025
234.977
236.922
238.859
240.787
242.706
244.615
246.514
248.4
250.274
252.134
253.979
255.808
257.619
259.411
261.183
262.931
264.655
266.352
268.02
269.657
271.259
272.824
274.35
275.832
277.268
278.654
279.988
281.264
282.481
283.634
284.722
285.74
286.688
287.562
288.362
289.089
289.741
290.321
290.83
291.272
291.651
291.97
292.237
292.455
292.631
292.77
292.879
292.961
293.023
293.069
293.101
293.124
293.14
293.151
293.158
293.163
293.166
293.168
293.17
293.171
293.172
293.173
293.173
293.173
293.173
293.173
293.174
293.174
293.175
293.175
293.175
293.176
293.177
293.177
293.178
293.178
293.179
293.179
293.18
293.18
293.181
293.181
293.182
293.182
293.183
293.183
293.183
293.184
293.184
293.185
293.185
293.185
293.185
293.186
293.186
293.186
293.186
293.187
293.187
293.187
293.187
293.187
293.187
293.188
293.188
293.188
293.188
293.188
293.188
293.188
293.188
293.189
293.189
293.189
293.189
293.189
293.19
293.189
293.19
293.19
293.19
293.19
293.191
293.191
293.191
293.191
293.192
293.192
293.193
293.193
293.194
293.194
293.193
293.193
293.193
293.188
293.186
293.184
293.188
293.191
293.184
293.181
293.175
293.169
293.161
293.151
293.141
293.131
293.121
293.115
293.111
293.112
293.116
293.123
293.131
293.14
293.149
293.156
293.163
293.167
293.171
293.174
293.176
293.177
293.178
293.178
293.178
293.177
293.177
293.177
293.176
293.176
293.175
293.175
293.175
293.174
293.174
293.174
293.174
293.174
293.174
293.174
293.174
293.174
293.173
293.173
293.173
293.172
293.171
293.171
293.17
293.169
293.169
293.168
293.168
293.167
293.167
293.167
293.166
293.166
293.166
293.166
293.166
293.165
293.165
293.164
293.164
293.163
293.162
293.162
293.161
293.16
293.159
293.158
293.158
293.157
293.156
293.156
293.155
293.154
293.154
293.153
293.153
293.152
293.152
293.151
293.15
293.15
293.149
293.148
293.147
293.145
293.144
293.142
293.141
293.14
293.138
293.137
293.135
293.134
293.133
293.131
293.127
293.12
293.112
293.092
293.053
292.961
292.79
292.467
291.775
290.226
286.804
278.926
260.723
221.453
156.229
83.4494
32.8588
10.3183
2.83621
0.728404
0.182445
0.0453748
0.0112653
0.00279578
0.000693786
0.000172163
4.27221e-05
1.06015e-05
2.63075e-06
6.52819e-07
1.61997e-07
4.01988e-08
9.97535e-09
2.47493e-09
6.14199e-10
1.52117e-10
3.76207e-11
9.02955e-12
2.02764e-12
2.91746e-14
4.95969e-13
4.52207e-13
8.1689e-13
2.33397e-13
6.85604e-13
4.52207e-13
8.02303e-13
4.95969e-13
6.85604e-13
3.7927e-13
6.56429e-13
3.20921e-13
9.62763e-13
5.25144e-13
9.33589e-13
6.12667e-13
9.33589e-13
8.31477e-13
1.00653e-12
7.73128e-13
9.91938e-13
9.04414e-13
9.48176e-13
6.85604e-13
6.71017e-13
5.9808e-13
3.35508e-13
3.93858e-13
7.29366e-14
2.47984e-13
7.29366e-14
2.91746e-14
1.45873e-14
5.83493e-14
2.04222e-13
3.93858e-13
1.02111e-13
5.83493e-13
2.04222e-13
7.00191e-13
4.81382e-13
1.02111e-12
6.56429e-13
1.00653e-12
5.39731e-13
8.60652e-13
5.54318e-13
6.85604e-13
5.68906e-13
5.39731e-13
5.39731e-13
4.23032e-13
2.62572e-13
1.16699e-13
1.60461e-13
2.91746e-14
5.83493e-14
2.91746e-14
1.45873e-13
1.45873e-14
4.3762e-14
1.31286e-13
1.75048e-13
1.75048e-13
2.1881e-13
4.26595e-27
2.91746e-14
2.33397e-13
7.29366e-14
2.91746e-13
2.91746e-14
2.62572e-13
8.75239e-14
1.60461e-13
3.64683e-13
2.77159e-13
1.60461e-13
3.93858e-13
2.33397e-13
3.7927e-13
3.7927e-13
5.68906e-13
2.62572e-13
3.50096e-13
5.25144e-13
3.20921e-13
1.16699e-13
3.64683e-13
3.20921e-13
2.04222e-13
3.20921e-13
7.29366e-14
3.50096e-13
4.3762e-14
2.91746e-14
1.45873e-14
8.75239e-14
2.91746e-14
2.1881e-13
2.33397e-13
7.29366e-14
1.16699e-13
2.62572e-13
2.77159e-13
4.3762e-13
1.60461e-13
2.77159e-13
2.77159e-13
4.23032e-13
2.1881e-13
3.06334e-13
2.47984e-13
2.04222e-13
3.50096e-13
5.83493e-14
2.1881e-13
1.31286e-13
1.16699e-13
2.91746e-14
4.3762e-14
7.29366e-14
1.75048e-13
1.31286e-13
2.04222e-13
5.83493e-14
1.16699e-13
3.64683e-13
1.16699e-13
6.12667e-13
2.91746e-13
4.08445e-13
5.10556e-13
4.81382e-13
2.77159e-13
5.25144e-13
7.29366e-14
6.41842e-13
8.75239e-14
4.3762e-13
3.64683e-13
3.93858e-13
3.20921e-13
2.62572e-13
4.23032e-13
3.64683e-13
1.75048e-13
4.08445e-13
3.06334e-13
3.20921e-13
4.3762e-14
2.47984e-13
2.04222e-13
5.83493e-14
4.25354e-27
5.83493e-14
1.56236e-29
1.60461e-13
1.45873e-13
2.04222e-13
2.33397e-13
7.29366e-14
1.45873e-14
1.75048e-13
1.16699e-13
1.02111e-13
7.29366e-14
1.60461e-13
8.75239e-14
5.83493e-14
4.3762e-14
1.45873e-14
3.20921e-13
5.83493e-14
1.45873e-13
1.89635e-13
4.3762e-14
4.3762e-14
2.77159e-13
1.45873e-14
3.64683e-13
8.75239e-14
1.31286e-13
1.75048e-13
2.47984e-13
1.75048e-13
2.04222e-13
1.60461e-13
1.45873e-14
1.02111e-13
2.93141e-27
1.75048e-13
5.83493e-14
1.16699e-13
7.29366e-14
5.83493e-14
5.83493e-14
5.83493e-14
8.75239e-14
4.3762e-14
7.29366e-14
4.08445e-13
1.75048e-13
1.75048e-13
5.83493e-14
4.3762e-14
2.04222e-13
1.89635e-13
5.83493e-14
8.75239e-14
1.60461e-13
3.64683e-13
3.20921e-13
5.39731e-13
6.85604e-13
3.64683e-13
2.1881e-13
2.1881e-13
7.29366e-14
4.3762e-13
4.3762e-14
5.83493e-13
4.3762e-14
4.3762e-13
2.91746e-14
5.54318e-13
2.33397e-13
5.68906e-13
2.04222e-13
2.91746e-13
2.91746e-14
1.45873e-14
1.45873e-14
8.75239e-14
1.16699e-13
1.89635e-13
1.45873e-14
1.45873e-14
1.16699e-13
1.02111e-13
5.83493e-14
2.33397e-13
2.91746e-13
4.52207e-13
2.62572e-13
6.27255e-13
2.62572e-13
6.12667e-13
4.52207e-13
5.68906e-13
4.81382e-13
7.00191e-13
3.93858e-13
2.91746e-13
)
;

boundaryField
{
    sides
    {
        type            calculated;
        value           nonuniform List<scalar> 2(2.91746e-13 8.75238e-14);
    }
    empty
    {
        type            empty;
    }
}


// ************************************************************************* //
