/*--------------------------------*- C++ -*----------------------------------*\
  =========                 |
  \\      /  F ield         | OpenFOAM: The Open Source CFD Toolbox
   \\    /   O peration     | Website:  https://openfoam.org
    \\  /    A nd           | Version:  9
     \\/     M anipulation  |
\*---------------------------------------------------------------------------*/
FoamFile
{
    format      ascii;
    class       volScalarField;
    location    "0.004";
    object      p;
}
// * * * * * * * * * * * * * * * * * * * * * * * * * * * * * * * * * * * * * //

dimensions      [1 -1 -2 0 0 0 0];

internalField   nonuniform List<scalar> 
1000
(
100000
100000
100000
100000
100000
100000
100000
100000
100000
100000
100000
100000
100000
100000
100000
100000
100000
100000
100000
100000
100000
100000
100000
100000
100000
100000
100000
100000
100000
100000
100000
100000
100000
100000
100000
100000
100000
100000
100000
100000
100000
100000
100000
100000
100000
100000
100000
100000
100000
100000
100000
100000
100000
100000
100000
100000
100000
100000
100000
100000
100000
100000
100000
100000
100000
100000
100000
100000
100000
100000
100000
100000
100000
100000
100000
100000
100000
100000
100000
100000
100000
100000
100000
100000
100000
100000
100000
100000
100000
100000
100000
100000
100000
100000
100000
100000
100000
100000
100000
100000
100000
100000
100000
100000
100000
100000
100000
100000
100000
100000
100000
100000
100000
100000
100000
100000
100000
100000
100000
100000
100000
100000
100000
100000
100000
100000
100000
100000
100000
100000
100000
100000
100000
100000
100000
100000
100000
100000
100000
100000
100000
100000
100000
100000
100000
100000
100000
100000
100000
100000
100000
100000
100000
100000
100000
100000
100000
100000
100000
100000
100000
100000
100000
100000
100000
100000
100000
100000
100000
100000
100000
100000
100000
100000
100000
100000
100000
100000
100000
100000
100000
100000
100000
100000
100000
100000
100000
100000
100000
100000
100000
100000
100000
100000
100000
100000
100000
100000
100000
100000
100000
100000
100000
100000
100000
100000
100000
100000
100000
100000
100000
100000
100000
100000
100000
100000
100000
100000
100000
100000
100000
100000
100000
100000
100000
100000
100000
100000
100000
100000
100000
100000
100000
100000
100000
100000
100000
100000
100000
100000
100000
100000
100000
100000
100000
100000
100000
100000
100000
100000
100000
100000
100000
100000
100000
100000
100000
100000
100000
100000
100000
100000
100000
100000
100000
100000
100000
100000
100000
100000
100000
100000
100000
100000
100000
100000
100000
100000
100000
100000
100000
100000
100000
100000
100000
100000
100000
100000
100000
100000
100000
100000
100000
100000
100000
100000
100000
100000
100000
100000
100000
100000
100000
100000
100000
100000
100000
100000
100000
100000
99999.9
99999.9
99999.9
99999.8
99999.7
99999.5
99999.2
99998.8
99998.3
99997.4
99996.2
99994.5
99992
99988.5
99983.7
99977.1
99968.1
99956.1
99940.1
99919.1
99892
99857.2
99813.2
99758.2
99690.4
99607.6
99508
99389.6
99250.4
99088.7
98903.1
98692.3
98455.6
98192.5
97902.7
97586.5
97244.5
96877.6
96486.7
96073.2
95638.5
95184
94711.4
94222.2
93718
93200.1
92670
92129.1
91578.6
91019.6
90453.3
89880.5
89302.2
88719.2
88132.2
87541.9
86948.9
86353.7
85756.8
85158.7
84559.7
83960.2
83360.5
82760.9
82161.7
81563.2
80965.5
80368.9
79773.5
79179.6
78587.3
77996.7
77408
76821.3
76236.8
75654.4
75074.5
74496.9
73921.9
73349.5
72779.7
72212.7
71648.5
71087.2
70528.8
69973.4
69420.9
68871.5
68325.2
67782.1
67242
66705.2
66171.5
65641.1
65113.9
64589.9
64069.3
63551.9
63037.8
62527
62019.5
61515.3
61014.4
60516.8
60022.6
59531.7
59044.1
58559.9
58078.9
57601.3
57127
56656
56188.3
55723.9
55262.8
54805
54350.5
53899.3
53451.4
53006.7
52565.3
52127.1
51692.3
51260.5
50832.2
50406.9
49985
49566.2
49150.7
48738.4
48329.2
47923.3
47520.6
47121
46724.6
46331.4
45941.5
45554.6
45171
44790.6
44413.3
44039.2
43668.4
43300.7
42936.2
42575
42217
41862.3
41510.8
41162.7
40817.8
40476.3
40138.2
39803.4
39472.2
39144.4
38820.1
38499.5
38182.5
37869.2
37559.7
37254.1
36952.5
36655
36361.7
36072.7
35788.1
35508.2
35233
34962.8
34697.8
34438.1
34184
33935.8
33693.7
33458
33229.1
33007.2
32792.7
32586
32387.4
32197.3
32016
31843.9
31681.4
31528.7
31386.1
31253.8
31132
31020.8
30920
30829.5
30749.2
30678.7
30617.4
30565
30520.6
30483.6
30453.3
30428.8
30409.3
30394.1
30382.5
30373.7
30367.3
30362.7
30359.4
30357.1
30355.6
30354.5
30353.8
30353.3
30353
30352.8
30352.6
30352.5
30352.3
30352.2
30352.1
30352.1
30352
30352
30351.9
30351.8
30351.7
30351.6
30351.5
30351.5
30351.4
30351.3
30351.2
30351.1
30351
30350.9
30350.8
30350.7
30350.7
30350.6
30350.5
30350.4
30350.3
30350.3
30350.2
30350.1
30350.1
30350
30349.9
30349.9
30349.8
30349.8
30349.7
30349.7
30349.6
30349.6
30349.5
30349.5
30349.5
30349.4
30349.4
30349.3
30349.3
30349.3
30349.2
30349.2
30349.2
30349.1
30349.2
30348.9
30349
30349
30349
30349
30348.9
30349
30348.9
30348.8
30348.9
30348.8
30348.8
30348.7
30348.7
30348.7
30348.8
30348.6
30348.8
30348.7
30348.6
30348.8
30348.8
30348.3
30348.1
30349
30348.8
30349.1
30348.1
30348.3
30348
30347.8
30347.5
30347.2
30347.1
30347
30346.9
30347
30347.3
30347.6
30347.9
30348.2
30348.5
30348.7
30348.8
30348.8
30348.9
30348.8
30348.7
30348.6
30348.5
30348.4
30348.3
30348.2
30348.1
30348
30348
30347.9
30347.8
30347.8
30347.8
30347.7
30347.7
30347.7
30347.6
30347.6
30347.5
30347.5
30347.4
30347.4
30347.3
30347.2
30347.2
30347.1
30347.1
30347
30347
30347
30347
30347
30346.9
30346.9
30346.9
30346.9
30346.8
30346.8
30346.7
30346.6
30346.6
30346.5
30346.4
30346.3
30346.3
30346.2
30346.1
30346.1
30346
30346
30345.9
30345.9
30345.9
30345.8
30345.8
30345.7
30345.7
30345.6
30345.5
30345.4
30345.3
30345.2
30345.1
30345
30344.9
30344.8
30344.7
30344.6
30344.5
30344.3
30344.3
30344.2
30344.1
30344.1
30344
30343.9
30343.8
30343.7
30343.7
30343.6
30343.4
30343.1
30342.7
30342.3
30341.5
30340.2
30337.8
30333
30323.3
30304.7
30264
30183.7
30004.3
29613
28682.5
26644.8
22627.5
17681.1
13623.6
11318.7
10390.3
10102.9
10026
10006.5
10001.6
10000.4
10000.1
10000
10000
10000
10000
10000
10000
10000
10000
10000
10000
10000
10000
10000
10000
10000
10000
10000
10000
10000
10000
10000
10000
10000
10000
10000
10000
10000
10000
10000
10000
10000
10000
10000
10000
10000
10000
10000
10000
10000
10000
10000
10000
10000
10000
10000
10000
10000
10000
10000
10000
10000
10000
10000
10000
10000
10000
10000
10000
10000
10000
10000
10000
10000
10000
10000
10000
10000
10000
10000
10000
10000
10000
10000
10000
10000
10000
10000
10000
10000
10000
10000
10000
10000
10000
10000
10000
10000
10000
10000
10000
10000
10000
10000
10000
10000
10000
10000
10000
10000
10000
10000
10000
10000
10000
10000
10000
10000
10000
10000
10000
10000
10000
10000
10000
10000
10000
10000
10000
10000
10000
10000
10000
10000
10000
10000
10000
10000
10000
10000
10000
10000
10000
10000
10000
10000
10000
10000
10000
10000
10000
10000
10000
10000
10000
10000
10000
10000
10000
10000
10000
10000
10000
10000
10000
10000
10000
10000
10000
10000
10000
10000
10000
10000
10000
10000
10000
10000
10000
10000
10000
10000
10000
10000
10000
10000
10000
10000
10000
10000
10000
10000
10000
10000
10000
10000
10000
10000
10000
10000
10000
10000
10000
10000
10000
10000
10000
10000
10000
10000
10000
10000
10000
10000
10000
10000
10000
10000
10000
10000
10000
10000
10000
10000
10000
10000
10000
10000
10000
10000
10000
10000
10000
10000
10000
10000
10000
10000
10000
10000
10000
10000
10000
10000
10000
10000
10000
10000
10000
10000
10000
10000
10000
10000
10000
10000
10000
10000
10000
10000
10000
10000
10000
10000
10000
10000
10000
10000
10000
10000
10000
10000
10000
10000
10000
10000
10000
10000
10000
10000
)
;

boundaryField
{
    sides
    {
        type            zeroGradient;
    }
    empty
    {
        type            empty;
    }
}


// ************************************************************************* //
