/*--------------------------------*- C++ -*----------------------------------*\
  =========                 |
  \\      /  F ield         | OpenFOAM: The Open Source CFD Toolbox
   \\    /   O peration     | Website:  https://openfoam.org
    \\  /    A nd           | Version:  9
     \\/     M anipulation  |
\*---------------------------------------------------------------------------*/
FoamFile
{
    format      ascii;
    class       volScalarField;
    location    "0.004";
    object      T;
}
// * * * * * * * * * * * * * * * * * * * * * * * * * * * * * * * * * * * * * //

dimensions      [0 0 0 1 0 0 0];

internalField   nonuniform List<scalar> 
1000
(
348.432
348.432
348.432
348.432
348.432
348.432
348.432
348.432
348.432
348.432
348.432
348.432
348.432
348.432
348.432
348.432
348.432
348.432
348.432
348.432
348.432
348.432
348.432
348.432
348.432
348.432
348.432
348.432
348.432
348.432
348.432
348.432
348.432
348.432
348.432
348.432
348.432
348.432
348.432
348.432
348.432
348.432
348.432
348.432
348.432
348.432
348.432
348.432
348.432
348.432
348.432
348.432
348.432
348.432
348.432
348.432
348.432
348.432
348.432
348.432
348.432
348.432
348.432
348.432
348.432
348.432
348.432
348.432
348.432
348.432
348.432
348.432
348.432
348.432
348.432
348.432
348.432
348.432
348.432
348.432
348.432
348.432
348.432
348.432
348.432
348.432
348.432
348.432
348.432
348.432
348.432
348.432
348.432
348.432
348.432
348.432
348.432
348.432
348.432
348.432
348.432
348.432
348.432
348.432
348.432
348.432
348.432
348.432
348.432
348.432
348.432
348.432
348.432
348.432
348.432
348.432
348.432
348.432
348.432
348.432
348.432
348.432
348.432
348.432
348.432
348.432
348.432
348.432
348.432
348.432
348.432
348.432
348.432
348.432
348.432
348.432
348.432
348.432
348.432
348.432
348.432
348.432
348.432
348.432
348.432
348.432
348.432
348.432
348.432
348.432
348.432
348.432
348.432
348.432
348.432
348.432
348.432
348.432
348.432
348.432
348.432
348.432
348.432
348.432
348.432
348.432
348.432
348.432
348.432
348.432
348.432
348.432
348.432
348.432
348.432
348.432
348.432
348.432
348.432
348.432
348.432
348.432
348.432
348.432
348.432
348.432
348.432
348.432
348.432
348.432
348.432
348.432
348.432
348.432
348.432
348.432
348.432
348.432
348.432
348.432
348.432
348.432
348.432
348.432
348.432
348.432
348.432
348.432
348.432
348.432
348.432
348.432
348.432
348.432
348.432
348.432
348.432
348.432
348.432
348.432
348.432
348.432
348.432
348.432
348.432
348.432
348.432
348.432
348.432
348.432
348.432
348.432
348.432
348.432
348.432
348.432
348.432
348.432
348.432
348.432
348.432
348.432
348.432
348.432
348.432
348.432
348.432
348.432
348.432
348.432
348.432
348.432
348.432
348.432
348.432
348.432
348.432
348.432
348.432
348.432
348.432
348.432
348.432
348.432
348.432
348.432
348.432
348.432
348.432
348.432
348.432
348.432
348.432
348.432
348.432
348.432
348.432
348.432
348.432
348.432
348.432
348.432
348.432
348.432
348.432
348.432
348.432
348.432
348.432
348.432
348.432
348.432
348.432
348.432
348.432
348.432
348.432
348.432
348.432
348.432
348.432
348.432
348.432
348.432
348.432
348.432
348.432
348.432
348.432
348.432
348.432
348.432
348.432
348.432
348.432
348.432
348.431
348.431
348.43
348.429
348.428
348.426
348.424
348.421
348.416
348.409
348.4
348.388
348.372
348.351
348.324
348.29
348.246
348.191
348.123
348.04
347.941
347.822
347.682
347.52
347.334
347.122
346.884
346.618
346.325
346.005
345.658
345.284
344.885
344.462
344.015
343.547
343.059
342.551
342.026
341.485
340.928
340.358
339.775
339.181
338.577
337.962
337.339
336.709
336.07
335.425
334.774
334.118
333.456
332.789
332.118
331.444
330.765
330.083
329.398
328.711
328.02
327.327
326.632
325.935
325.236
324.536
323.833
323.13
322.425
321.719
321.012
320.304
319.595
318.885
318.175
317.464
316.753
316.041
315.329
314.617
313.904
313.192
312.48
311.767
311.055
310.342
309.63
308.918
308.206
307.495
306.784
306.073
305.363
304.653
303.944
303.235
302.526
301.818
301.111
300.405
299.699
298.993
298.289
297.585
296.882
296.179
295.478
294.776
294.078
293.375
292.685
291.972
291.304
290.56
289.943
289.135
288.598
287.716
287.234
286.348
285.808
285.05
284.352
283.74
282.969
282.343
281.658
280.943
280.304
279.613
278.925
278.269
277.593
276.911
276.25
275.588
274.91
274.25
273.593
272.926
272.269
271.614
270.961
270.307
269.656
269.013
268.366
267.724
267.085
266.449
265.818
265.186
264.562
263.939
263.322
262.707
262.098
261.495
260.895
260.303
259.714
259.134
258.56
257.994
257.436
256.885
256.347
255.815
255.297
254.788
254.295
253.813
253.346
252.895
252.46
252.043
251.644
251.266
250.907
250.572
250.257
249.966
249.699
249.455
249.235
249.038
248.865
248.712
248.583
248.471
248.379
248.302
248.242
248.193
248.156
248.127
248.107
248.093
248.083
248.078
248.074
248.074
248.075
248.077
248.079
248.083
248.085
248.09
248.092
248.098
248.1
248.107
248.109
248.117
248.118
248.126
248.127
248.136
248.137
248.147
248.148
248.158
248.159
248.17
248.17
248.182
248.182
248.195
248.195
248.208
248.209
248.223
248.224
248.238
248.239
248.254
248.255
248.272
248.273
248.29
248.291
248.31
248.311
248.331
248.332
248.354
248.355
248.379
248.38
248.405
248.407
248.433
248.435
248.465
248.466
248.499
248.5
248.537
248.538
248.578
248.58
248.622
248.624
248.675
248.676
248.73
248.733
248.794
248.797
248.866
248.87
248.95
248.953
249.052
249.053
249.168
249.169
249.306
249.311
249.474
249.479
249.671
249.678
249.882
249.891
250.094
250.117
250.424
250.806
251.71
253.196
255.418
258.496
262.528
267.573
273.642
280.695
288.636
297.319
306.552
316.104
325.73
335.181
344.222
352.657
360.336
367.163
373.094
378.132
382.323
385.739
388.468
390.609
392.256
393.503
394.429
395.105
395.591
395.934
396.172
396.335
396.444
396.517
396.564
396.594
396.614
396.626
396.634
396.64
396.644
396.647
396.65
396.652
396.655
396.658
396.661
396.665
396.668
396.671
396.675
396.678
396.681
396.684
396.687
396.689
396.691
396.693
396.694
396.695
396.696
396.697
396.697
396.698
396.698
396.698
396.698
396.698
396.698
396.698
396.698
396.699
396.699
396.699
396.7
396.7
396.699
396.699
396.699
396.698
396.698
396.697
396.697
396.696
396.696
396.695
396.695
396.695
396.695
396.695
396.695
396.695
396.695
396.695
396.694
396.694
396.693
396.693
396.693
396.693
396.692
396.691
396.689
396.685
396.679
396.669
396.646
396.609
396.53
396.34
395.998
395.188
393.494
389.344
380.454
360.477
331.762
305.411
288.65
281.676
279.525
278.945
278.796
278.758
278.749
278.747
278.746
278.746
278.746
278.746
278.746
278.746
278.746
278.746
278.746
278.746
278.746
278.746
278.746
278.746
278.746
278.746
278.746
278.746
278.746
278.746
278.746
278.746
278.746
278.746
278.746
278.746
278.746
278.746
278.746
278.746
278.746
278.746
278.746
278.746
278.746
278.746
278.746
278.746
278.746
278.746
278.746
278.746
278.746
278.746
278.746
278.746
278.746
278.746
278.746
278.746
278.746
278.746
278.746
278.746
278.746
278.746
278.746
278.746
278.746
278.746
278.746
278.746
278.746
278.746
278.746
278.746
278.746
278.746
278.746
278.746
278.746
278.746
278.746
278.746
278.746
278.746
278.746
278.746
278.746
278.746
278.746
278.746
278.746
278.746
278.746
278.746
278.746
278.746
278.746
278.746
278.746
278.746
278.746
278.746
278.746
278.746
278.746
278.746
278.746
278.746
278.746
278.746
278.746
278.746
278.746
278.746
278.746
278.746
278.746
278.746
278.746
278.746
278.746
278.746
278.746
278.746
278.746
278.746
278.746
278.746
278.746
278.746
278.746
278.746
278.746
278.746
278.746
278.746
278.746
278.746
278.746
278.746
278.746
278.746
278.746
278.746
278.746
278.746
278.746
278.746
278.746
278.746
278.746
278.746
278.746
278.746
278.746
278.746
278.746
278.746
278.746
278.746
278.746
278.746
278.746
278.746
278.746
278.746
278.746
278.746
278.746
278.746
278.746
278.746
278.746
278.746
278.746
278.746
278.746
278.746
278.746
278.746
278.746
278.746
278.746
278.746
278.746
278.746
278.746
278.746
278.746
278.746
278.746
278.746
278.746
278.746
278.746
278.746
278.746
278.746
278.746
278.746
278.746
278.746
278.746
278.746
278.746
278.746
278.746
278.746
278.746
278.746
278.746
278.746
278.746
278.746
278.746
278.746
278.746
278.746
278.746
278.746
278.746
278.746
278.746
278.746
278.746
278.746
278.746
278.746
278.746
278.746
278.746
278.746
278.746
278.746
278.746
278.746
278.746
278.746
278.746
278.746
278.746
278.746
278.746
278.746
278.746
278.746
278.746
278.746
278.746
278.746
278.746
278.746
278.746
278.746
278.746
278.746
278.746
278.746
278.746
278.746
278.746
278.746
278.746
278.746
278.746
278.746
278.746
278.746
278.746
278.746
278.746
278.746
278.746
278.746
278.746
278.746
278.746
)
;

boundaryField
{
    sides
    {
        type            zeroGradient;
    }
    empty
    {
        type            empty;
    }
}


// ************************************************************************* //
