/*--------------------------------*- C++ -*----------------------------------*\
  =========                 |
  \\      /  F ield         | OpenFOAM: The Open Source CFD Toolbox
   \\    /   O peration     | Website:  https://openfoam.org
    \\  /    A nd           | Version:  9
     \\/     M anipulation  |
\*---------------------------------------------------------------------------*/
FoamFile
{
    format      ascii;
    class       volScalarField;
    location    "0.14";
    object      alpha.phase1;
}
// * * * * * * * * * * * * * * * * * * * * * * * * * * * * * * * * * * * * * //

dimensions      [0 0 0 0 0 0 0];

internalField   nonuniform List<scalar> 
10000
(
2.5065096e-114
2.5504262e-114
2.0883416e-111
7.3357812e-109
1.9982897e-106
4.433062e-104
8.2764524e-102
1.3314756e-99
1.8788396e-97
2.3579336e-95
2.661188e-93
2.7256818e-91
2.552936e-89
2.2008734e-87
1.7563248e-85
1.3039535e-83
9.0478751e-82
5.8922609e-80
3.6156426e-78
2.0984692e-76
1.156201e-74
6.0697154e-73
3.0473605e-71
1.4688345e-69
6.8241567e-68
3.068031e-66
1.3421535e-64
5.7974188e-63
2.5224025e-61
1.1218101e-59
5.035561e-58
2.1774557e-56
8.7415791e-55
3.2170251e-53
1.0783938e-51
3.2645499e-50
8.8311939e-49
2.1105459e-47
4.3997736e-46
7.8572583e-45
1.1737917e-43
1.4455509e-42
1.476737e-41
1.2487461e-40
8.3515331e-40
4.3021432e-39
1.7855273e-38
6.041347e-38
1.5759015e-37
3.1330728e-37
3.1148787e-37
1.5591505e-37
5.8550952e-38
1.6759596e-38
3.7250138e-39
6.2006182e-40
6.4567532e-41
3.3488938e-42
7.4751548e-44
6.537802e-46
3.6645679e-48
3.6436064e-51
6.5750814e-54
6.8377149e-56
9.2774892e-58
1.2071188e-59
1.3072921e-61
1.1050478e-62
1.0103709e-62
9.9642327e-63
5.2061649e-63
7.2705122e-64
1.9750904e-65
2.4731559e-67
4.9710824e-69
1.1936634e-70
2.7684024e-72
6.0616727e-74
1.2602718e-75
2.4889548e-77
4.6579652e-79
8.2374736e-81
1.3726256e-82
2.1483734e-84
3.1476189e-86
4.3006641e-88
5.4569336e-90
6.3997612e-92
6.8997776e-94
6.7957464e-96
6.0693862e-98
4.8716828e-100
3.4760877e-102
2.1748261e-104
1.1722558e-106
5.3172614e-109
1.9643652e-111
5.6288704e-114
7.0383714e-117
6.8124718e-117
2.5065096e-114
2.0417645e-112
1.5032713e-109
7.1174229e-107
2.2919699e-104
5.6770353e-102
1.1480227e-99
1.9650228e-97
2.9173351e-95
3.8239463e-93
4.4857652e-91
4.7599073e-89
4.6091818e-87
4.1028129e-85
3.3784048e-83
2.5876494e-81
1.8525912e-79
1.2452373e-77
7.8905882e-76
4.7317768e-74
2.6952621e-72
1.463537e-70
7.6034324e-69
3.79328e-67
1.8241297e-65
8.4894274e-64
3.8537283e-62
1.7259106e-60
7.7365776e-59
3.5129708e-57
1.5998894e-55
7.0112039e-54
2.8489938e-52
1.0588899e-50
3.575103e-49
1.0873797e-47
2.9501746e-46
7.056579e-45
1.4672157e-43
2.606827e-42
3.8808885e-41
4.7571292e-40
4.7499496e-39
3.7950721e-38
2.2674068e-37
8.9974844e-37
2.2626534e-36
4.2093547e-36
7.7451093e-36
1.1882925e-35
1.1875986e-35
7.7389689e-36
4.2121893e-36
2.2116686e-36
8.5246851e-37
1.8913423e-37
2.0955486e-38
1.1474235e-39
2.7973106e-41
3.1304352e-43
1.4142194e-45
1.5265889e-48
8.0699756e-52
6.5750204e-54
6.8375461e-56
9.2770668e-58
1.2070867e-59
1.3072921e-61
1.1050478e-62
1.0103709e-62
7.0174371e-61
3.0126776e-61
1.9781811e-62
2.0979554e-64
1.9906486e-66
3.8494945e-68
8.3747766e-70
1.7453651e-71
3.4604742e-73
6.54626e-75
1.1778918e-76
2.0079052e-78
3.2311397e-80
4.8909306e-82
6.9371728e-84
9.1817751e-86
1.1287732e-87
1.2821221e-89
1.3373583e-91
1.2719495e-93
1.0935374e-95
8.4094645e-98
5.7073178e-100
3.3586486e-102
1.6727396e-104
6.8014545e-107
2.1272651e-109
4.5619912e-112
6.7108149e-115
6.8124718e-117
8.0677773e-113
2.7514783e-110
2.0885787e-107
9.3789782e-105
3.2306702e-102
8.7392752e-100
1.8679426e-97
3.3253859e-95
5.088046e-93
6.8349906e-91
8.1872641e-89
8.8490438e-87
8.7129063e-85
7.876149e-83
6.5797714e-81
5.1091271e-79
3.7059255e-77
2.5223674e-75
1.6176278e-73
9.8128661e-72
5.651325e-70
3.100859e-68
1.6268265e-66
8.1902002e-65
3.9711896e-63
1.8625802e-61
8.5301771e-60
3.8532802e-58
1.736146e-56
7.8914941e-55
3.6001834e-53
1.5886148e-51
6.4897211e-50
2.4160077e-48
8.1470882e-47
2.4678732e-45
6.6504898e-44
1.5763116e-42
3.241267e-41
5.6850927e-40
8.3419266e-39
1.0064119e-37
9.8824884e-37
7.7772761e-36
4.615885e-35
1.8509243e-34
4.7752841e-34
9.0711901e-34
1.6671198e-33
2.6638085e-33
2.6617251e-33
1.6653432e-33
9.0684374e-34
4.6694932e-34
1.7574617e-34
3.8863179e-35
4.4470745e-36
2.6244473e-37
7.2643559e-39
9.5922334e-41
5.2844815e-43
8.7896876e-46
5.1673033e-49
2.8724648e-51
3.7379594e-53
6.3225657e-55
9.6948678e-57
1.1022289e-58
8.9362293e-61
4.981287e-58
4.8679978e-58
8.7153931e-59
2.2659836e-60
2.2910267e-62
3.8729497e-64
8.554114e-66
1.8866002e-67
3.9438584e-69
7.8226543e-71
1.4753396e-72
2.6399358e-74
4.4677037e-76
7.1283438e-78
1.0686431e-79
1.499666e-81
1.9619493e-83
2.3815974e-85
2.6678614e-87
2.7404194e-89
2.5618055e-91
2.1591218e-93
1.6215596e-95
1.0686399e-97
6.0501107e-100
2.8522302e-102
1.0619806e-104
3.3213862e-107
7.7777569e-110
1.082822e-112
2.8342792e-115
1.6797154e-110
2.8490121e-108
2.6064107e-105
1.2103077e-102
3.9250453e-100
1.0169006e-97
2.3058187e-95
4.3484894e-93
6.9330482e-91
9.6159573e-89
1.1824562e-86
1.3071121e-84
1.3128292e-82
1.2083206e-80
1.0263848e-78
8.0946888e-77
5.9581326e-75
4.1118916e-73
2.6718918e-71
1.6410713e-69
9.5621204e-68
5.3043569e-66
2.8110568e-64
1.4281843e-62
6.9811494e-61
3.2995916e-59
1.5230119e-57
6.930679e-56
3.13711e-54
1.4264628e-52
6.497573e-51
2.8688186e-49
1.1740168e-47
4.3693886e-46
1.4685174e-44
4.4213693e-43
1.1813e-41
2.7698115e-40
5.6227534e-39
9.7175006e-38
1.4020944e-36
1.6598065e-35
1.5969289e-34
1.2326835e-33
7.2248111e-33
2.8966646e-32
7.5406138e-32
1.436923e-31
2.6087991e-31
4.2516274e-31
4.2482069e-31
2.606023e-31
1.4360526e-31
7.3794251e-32
2.7572086e-32
6.1412104e-33
7.2934354e-34
4.6467427e-35
1.4617185e-36
2.263807e-38
1.4296484e-40
3.9486866e-43
4.8353897e-46
1.079209e-48
1.7905946e-50
3.624422e-52
6.2724794e-54
7.8749955e-56
6.8946658e-58
2.4047667e-55
1.7249204e-55
2.1396975e-56
4.0157671e-58
4.0278571e-60
7.4527228e-62
1.6662355e-63
3.637408e-65
7.527805e-67
1.4800393e-68
2.7653781e-70
4.8981301e-72
8.1987751e-74
1.2928165e-75
1.913894e-77
2.6499944e-79
3.4171797e-81
4.0837768e-83
4.4971657e-85
4.5324427e-87
4.1459424e-89
3.4061013e-91
2.4790774e-93
1.5686744e-95
8.3862824e-98
3.7149906e-100
1.5642032e-102
5.0979856e-105
1.1401398e-107
1.3834373e-110
6.4852663e-113
2.8371433e-108
2.1729124e-106
2.7150235e-103
1.3518484e-100
4.5407753e-98
1.1705036e-95
2.458645e-93
4.5274026e-91
7.6735141e-89
1.1115678e-86
1.4139726e-84
1.6074531e-82
1.653882e-80
1.555085e-78
1.3466872e-76
1.0810572e-74
8.0888673e-73
5.6683425e-71
3.7361085e-69
2.3252649e-67
1.3714542e-65
7.6925945e-64
4.1173849e-62
2.1101197e-60
1.0391049e-58
4.9435743e-57
2.2954893e-55
1.0499332e-53
4.7641377e-52
2.162664e-50
9.8069232e-49
4.3168528e-47
1.7638992e-45
6.5441275e-44
2.1867314e-42
6.5293647e-41
1.7260801e-39
3.9960153e-38
7.9940045e-37
1.3587236e-35
1.9234044e-34
2.2279638e-33
2.093202e-32
1.5788171e-31
9.0964163e-31
3.6231731e-30
9.4395236e-30
1.7928667e-29
3.2091005e-29
5.2894075e-29
5.2850364e-29
3.2057252e-29
1.7913422e-29
9.2445763e-30
3.4564685e-30
7.8004803e-31
9.632089e-32
6.6458229e-33
2.3698264e-34
4.2378027e-36
3.3211387e-38
1.2326991e-40
3.5217647e-43
2.24419e-45
1.5313391e-47
1.7328928e-49
3.3017684e-51
4.5134716e-53
4.2996879e-55
5.2672827e-53
4.3674308e-53
5.0082565e-54
7.7205288e-56
6.8590816e-58
1.2704682e-59
2.8240753e-61
6.072723e-63
1.2404772e-64
2.4130103e-66
4.4608169e-68
7.811538e-70
1.2915992e-71
2.010026e-73
2.9338481e-75
4.0006143e-77
5.0737804e-79
5.9538119e-81
6.4242812e-83
6.3261355e-85
5.6312225e-87
4.4751072e-89
3.1203262e-91
1.8578518e-93
1.0154989e-95
5.3116729e-98
2.190502e-100
6.7236648e-103
1.423276e-105
1.4182946e-108
1.2165907e-110
4.0257549e-106
9.0960417e-105
2.3859046e-101
1.3045023e-98
4.5487547e-96
1.2034034e-93
2.5798877e-91
4.5642443e-89
7.087339e-87
1.0711362e-84
1.4274861e-82
1.6827128e-80
1.7841172e-78
1.7215152e-76
1.525352e-74
1.2500107e-72
9.5304369e-71
6.7944919e-69
4.5495493e-67
2.8725408e-65
1.7164044e-63
9.7391152e-62
5.2652189e-60
2.7211646e-58
1.3491143e-56
6.4538688e-55
3.0103258e-53
1.3812651e-51
6.2695648e-50
2.8335323e-48
1.2743928e-46
5.5698283e-45
2.2661766e-43
8.3607373e-42
2.7706094e-40
8.1847725e-39
2.136077e-37
4.8727046e-36
9.5876292e-35
1.5995632e-33
2.2166582e-32
2.5052961e-31
2.2904451e-30
1.6815691e-29
9.4842392e-29
3.7342141e-28
9.6797701e-28
1.824044e-27
3.2140619e-27
5.3282875e-27
5.3237659e-27
3.2107356e-27
1.8221169e-27
9.4862746e-28
3.5696083e-28
8.1983674e-29
1.0543338e-29
7.8983948e-31
3.1936808e-32
6.5024346e-34
6.2837132e-36
2.9940075e-38
1.2641646e-40
1.3236402e-42
2.9260306e-44
1.8685587e-46
1.4527928e-48
2.1439838e-50
2.2081251e-52
2.4280676e-51
8.1450957e-51
9.2551031e-52
1.2377626e-53
1.0627695e-55
1.9637167e-57
4.3064957e-59
9.1166723e-61
1.8364788e-62
3.5268417e-64
6.4353806e-66
1.1114471e-67
1.8108242e-69
2.7738836e-71
3.9804422e-73
5.3285331e-75
6.6227736e-77
7.5990697e-79
7.9937543e-81
7.6418511e-83
6.5624633e-85
4.9796457e-87
3.2989748e-89
2.1490627e-91
1.3476708e-93
6.7423893e-96
2.6212716e-98
7.7878804e-101
1.5412901e-103
1.0835255e-106
1.9412335e-108
4.9119222e-104
7.5248884e-104
1.7341193e-99
1.0898651e-96
3.9947005e-94
1.0835155e-91
2.3749436e-89
4.3755254e-87
6.7828506e-85
9.1996846e-83
1.2188899e-80
1.5112594e-78
1.6660537e-76
1.6603732e-74
1.5126571e-72
1.2703342e-70
9.8997354e-69
7.1982601e-67
4.9060657e-65
3.1470958e-63
1.9070319e-61
1.0953433e-59
5.9828529e-58
3.1177553e-56
1.5554238e-54
7.4741773e-53
3.4970816e-51
1.6069899e-49
7.2818055e-48
3.2688604e-46
1.4538496e-44
6.287805e-43
2.5400951e-41
9.294796e-40
3.0465971e-38
8.8823544e-37
2.2833716e-35
5.1217863e-34
9.8936955e-33
1.617311e-31
2.1894801e-30
2.407736e-29
2.1343183e-28
1.5190065e-27
8.3528502e-27
3.2377371e-26
8.3142642e-26
1.5491077e-25
2.6840284e-25
4.4569093e-25
4.4530443e-25
2.6813115e-25
1.5472012e-25
8.1531506e-26
3.1007316e-26
7.2729908e-27
9.7611867e-28
7.9550443e-29
3.6309274e-30
8.2830616e-32
9.4463271e-34
5.8730559e-36
3.3971249e-38
5.2573138e-40
1.4935897e-41
1.2526008e-43
5.4408545e-46
8.6186325e-48
9.5694462e-50
3.5517182e-51
1.2676641e-48
1.2072687e-49
1.2257366e-51
1.2632232e-53
2.5622379e-55
5.6766886e-57
1.2001601e-58
2.4082408e-60
4.5919639e-62
8.2955707e-64
1.4151418e-65
2.2725738e-67
3.4242214e-69
4.822922e-71
6.3225269e-73
7.6745378e-75
8.5705674e-77
8.7340755e-79
8.0337507e-81
6.5607914e-83
4.9761961e-85
3.716935e-87
2.6379098e-89
1.5575852e-91
7.3603736e-94
2.788962e-96
7.9746857e-99
1.431538e-101
3.9688067e-105
2.722877e-106
5.2229174e-102
7.0187474e-102
9.9488242e-98
7.8459621e-95
3.0762344e-92
8.641486e-90
1.9328968e-87
3.6346124e-85
5.8969573e-83
8.1834995e-81
9.9318793e-79
1.1729233e-76
1.3484473e-74
1.4021275e-72
1.3226927e-70
1.1444349e-68
9.1539683e-67
6.8107727e-65
4.7373806e-63
3.0937742e-61
1.9040843e-59
1.1081757e-57
6.1187085e-56
3.215401e-54
1.6136972e-52
7.7827394e-51
3.648747e-49
1.6770667e-47
7.5757715e-46
3.3717118e-44
1.4788091e-42
6.3044588e-41
2.5201044e-39
9.1205381e-38
2.9490136e-36
8.4636e-35
2.1379754e-33
4.7059445e-32
8.9089365e-31
1.424618e-29
1.8804445e-28
2.0064468e-27
1.7179415e-26
1.1799999e-25
6.2996791e-25
2.3954681e-24
6.0727107e-24
1.1154962e-23
1.898191e-23
3.1455647e-23
3.142792e-23
1.8963383e-23
1.1139532e-23
5.9584675e-24
2.2980053e-24
5.521622e-25
7.7560243e-26
6.8687823e-27
3.4959466e-28
8.8271208e-30
1.1791221e-31
9.8512141e-34
7.7956915e-36
1.9108556e-37
5.7521207e-39
8.3896795e-41
1.7559685e-43
2.9763385e-45
3.5575361e-47
3.3286273e-49
2.5214892e-46
1.6689551e-47
1.1127107e-49
1.4405643e-51
3.138985e-53
6.9285048e-55
1.4542968e-56
2.8984898e-58
5.475046e-60
9.7709906e-62
1.6425292e-63
2.5930053e-65
3.8312346e-67
5.2773465e-69
6.7448493e-71
7.9511666e-73
8.57931e-75
8.3835132e-77
7.3108398e-79
6.2443999e-81
5.2729285e-83
4.1695216e-85
2.8295674e-87
1.5708839e-89
7.1898638e-92
2.647218e-94
7.1795638e-97
1.1172115e-99
5.0615231e-104
3.3880766e-104
4.8761452e-100
5.95177e-100
3.9001675e-96
4.8519888e-93
2.0872421e-90
6.1376783e-88
1.4131578e-85
2.7075604e-83
4.481919e-81
6.5187309e-79
8.2168511e-77
9.133498e-75
9.8350553e-73
1.0408738e-70
1.0284994e-68
9.2381099e-67
7.6272524e-65
5.8319934e-63
4.1537516e-61
2.7686567e-59
1.7338959e-57
1.0238335e-55
5.7186902e-54
3.0311923e-52
1.529961e-50
7.400566e-49
3.4724225e-47
1.5942919e-45
7.1702321e-44
3.1586046e-42
1.3620025e-40
5.6951576e-39
2.2393638e-37
7.9870094e-36
2.5406236e-34
7.1573676e-33
1.7720207e-31
3.8190863e-30
7.0735376e-29
1.1048459e-27
1.4194342e-26
1.4654574e-25
1.2069559e-24
7.9599509e-24
4.1056779e-23
1.5256272e-22
3.8021309e-22
6.8544807e-22
1.1425562e-21
1.8855779e-21
1.8838952e-21
1.1415161e-21
6.8440696e-22
3.73252e-22
1.4658532e-22
3.6203441e-23
5.3437845e-24
5.1514935e-25
2.9024812e-26
8.0524172e-28
1.2647471e-29
1.4547614e-31
1.5869884e-33
5.7925686e-35
1.6127143e-36
2.9101661e-38
4.9236057e-41
8.9238441e-43
1.1476376e-44
1.1383523e-46
4.0422313e-44
1.7331646e-45
9.6464953e-48
1.6150544e-49
3.6155292e-51
7.8875317e-53
1.6375752e-54
3.2270199e-56
6.0144828e-58
1.056643e-59
1.744372e-61
2.6972274e-63
3.8919185e-65
5.2173156e-67
6.4616118e-69
7.3391835e-71
7.5612251e-73
7.2268733e-75
6.8034592e-77
6.2659371e-79
5.425892e-81
4.1523956e-83
2.6417365e-85
1.4089594e-87
6.2828093e-90
2.2265267e-92
5.6229694e-95
6.9083959e-98
5.0205648e-102
3.7668066e-102
4.0769838e-98
4.6363013e-98
6.2641796e-96
2.4591349e-91
1.2162634e-88
3.7950052e-86
9.0712516e-84
1.7855504e-81
3.0117032e-79
4.4761012e-77
5.9345811e-75
6.9294017e-73
7.1930677e-71
7.1310459e-69
6.994363e-67
6.5987022e-65
5.6727206e-63
4.4863328e-61
3.288117e-59
2.2455863e-57
1.4352421e-55
8.6175405e-54
4.8771785e-52
2.6103678e-50
1.3259081e-48
6.4331555e-47
3.0204494e-45
1.3850115e-43
6.2012503e-42
2.7036814e-40
1.1450622e-38
4.6797207e-37
1.8016367e-35
6.3098452e-34
1.9678572e-32
5.4222354e-31
1.3113626e-29
2.760065e-28
4.9923397e-27
7.6057498e-26
9.4950076e-25
9.4583113e-24
7.4582695e-23
4.6908817e-22
2.3207565e-21
8.3915337e-21
2.0476613e-20
3.6040925e-20
5.8707254e-20
9.6994566e-20
9.6905383e-20
5.8659296e-20
3.5980631e-20
2.0109851e-20
8.0744228e-21
2.0572983e-21
3.2139266e-22
3.3897991e-23
2.105355e-24
6.3896291e-26
1.201249e-27
2.0755411e-29
2.984461e-31
1.3243651e-32
3.6519568e-34
7.5618319e-36
1.2063992e-38
2.3413642e-40
3.2408176e-42
3.4461936e-44
3.8870546e-42
1.5984307e-43
9.0006549e-46
1.6713399e-47
3.8032473e-49
8.2448244e-51
1.6952959e-52
3.3009257e-54
6.0618606e-56
1.0461841e-57
1.6911773e-59
2.5513148e-61
3.5770386e-63
4.6360846e-65
5.5144827e-67
5.9506404e-69
6.1667972e-71
6.3508782e-73
6.323254e-75
5.9273381e-77
5.0049626e-79
3.5675283e-81
2.161498e-83
1.1233188e-85
4.8516178e-88
1.6350923e-90
3.7398206e-93
2.8180447e-96
4.5670671e-100
3.7578463e-100
2.9944775e-96
3.2227064e-96
2.3238586e-94
9.3430149e-90
5.91546e-87
2.0050877e-84
5.028396e-82
1.0248484e-79
1.7770217e-77
2.6975205e-75
3.6633002e-73
4.4949938e-71
4.9321833e-69
4.8668828e-67
4.5566677e-65
4.1931783e-63
3.735773e-61
3.0859424e-59
2.3434312e-57
1.6483458e-55
1.0795514e-53
6.6111278e-52
3.7997114e-50
2.0567786e-48
1.0524614e-46
5.1251843e-45
2.4093868e-43
1.104631e-41
4.9333671e-40
2.132794e-38
8.882358e-37
3.5434099e-35
1.3302242e-33
4.5539648e-32
1.3862661e-30
3.7171499e-29
8.7393255e-28
1.7896315e-26
3.1541215e-25
4.6795865e-24
5.6665474e-23
5.4280974e-22
4.0747916e-21
2.4228753e-20
1.1393736e-19
4.0270742e-19
9.8073813e-19
1.7246905e-18
2.7861484e-18
4.6030691e-18
4.5984078e-18
2.7834672e-18
1.7210626e-18
9.6348057e-19
3.8798657e-19
1.0142224e-19
1.6941334e-20
1.9707414e-21
1.345737e-22
4.4725048e-24
1.0399777e-25
2.8052496e-27
4.9105518e-29
2.4876302e-30
6.9575611e-32
1.6043523e-33
4.9554564e-36
5.4035781e-38
8.0542298e-40
9.1994936e-42
1.5190629e-40
7.3198785e-42
6.3158642e-44
1.4903649e-45
3.5699553e-47
7.7629386e-49
1.5899878e-50
3.0688629e-52
5.558813e-54
9.4175142e-56
1.4871323e-57
2.1801476e-59
2.9521857e-61
3.6651806e-63
4.1898785e-65
4.653056e-67
5.1211867e-69
5.4389507e-71
5.4687647e-73
5.0192632e-75
3.9395255e-77
2.6577946e-79
1.5663493e-81
7.9011577e-84
3.2700387e-86
1.0318169e-88
2.033413e-91
4.6624037e-96
3.7923706e-98
3.3348535e-98
1.9146882e-94
1.8896046e-94
8.6299251e-93
1.9654092e-88
2.300328e-85
8.842509e-83
2.36343e-80
5.0317874e-78
9.0339311e-76
1.4126103e-73
1.9663624e-71
2.4795983e-69
2.8586369e-67
2.9925228e-65
2.8432026e-63
2.5422813e-61
2.2191929e-59
1.881694e-57
1.4959995e-55
1.0912789e-53
7.3616054e-52
4.6164302e-50
2.702872e-48
1.4833932e-46
7.6632987e-45
3.7530348e-43
1.7712475e-41
8.1545202e-40
3.6524141e-38
1.5752914e-36
6.4848789e-35
2.5282777e-33
9.2145041e-32
3.0604744e-30
9.0276569e-29
2.3376696e-27
5.3011305e-26
1.0498959e-24
1.7971764e-23
2.5910168e-22
3.0348226e-21
2.7824317e-20
1.9790276e-19
1.1137368e-18
5.0179593e-18
1.7811811e-17
4.6719021e-17
9.0694179e-17
1.509561e-16
2.2675551e-16
2.2650121e-16
1.5064386e-16
9.0402777e-17
4.5932936e-17
1.7176474e-17
4.4886049e-18
7.9622271e-19
1.0204648e-19
7.6613819e-21
2.8221032e-22
8.4883233e-24
3.4420346e-25
7.0154372e-27
3.9704535e-28
1.1352856e-29
3.05723e-31
1.3002256e-33
1.1009753e-35
1.7678811e-37
2.1721796e-39
5.5348936e-41
3.658343e-42
3.0402016e-42
1.4434162e-43
3.2706212e-45
7.0284055e-47
1.4223997e-48
2.7016857e-50
4.7923624e-52
7.9106786e-54
1.210277e-55
1.7075508e-57
2.204262e-59
2.6578865e-61
3.1249879e-63
3.6144668e-65
4.0376254e-67
4.3051424e-69
4.2350878e-71
3.6039138e-73
2.6618241e-75
1.7412215e-77
9.9556391e-80
4.822621e-82
1.8894061e-84
5.4401382e-87
8.1822113e-90
2.0523632e-94
2.7410654e-96
2.6125443e-96
1.0511712e-92
9.8240629e-93
2.8321918e-91
2.238634e-88
6.5494844e-84
3.1775021e-81
9.3232236e-79
2.1032928e-76
3.944734e-74
6.4013097e-72
9.2144991e-70
1.1977038e-67
1.4264946e-65
1.5678177e-63
1.5787958e-61
1.4537271e-59
1.2596837e-57
1.0588205e-55
8.6097448e-54
6.5736182e-52
4.5971616e-50
2.9660337e-48
1.77544e-46
9.9089599e-45
5.182675e-43
2.5605666e-41
1.2180397e-39
5.6709913e-38
2.5707847e-36
1.1160607e-34
4.5744508e-33
1.7484396e-31
6.1642504e-30
1.9678244e-28
5.5666953e-27
1.3764611e-25
2.9726709e-24
5.6369783e-23
9.3222589e-22
1.3014021e-20
1.4701837e-19
1.2878216e-18
8.7112128e-18
4.770472e-17
2.1529074e-16
7.4862746e-16
2.0499566e-15
4.2016792e-15
6.7946433e-15
8.5534689e-15
8.5449924e-15
6.7761483e-15
4.1875848e-15
2.0187339e-15
7.2251431e-16
1.9514875e-16
3.510661e-17
4.8122931e-18
3.9672468e-19
1.6628921e-20
6.836693e-22
3.8120863e-23
8.6754486e-25
5.4652537e-26
1.6041062e-27
4.8749483e-29
2.5960373e-31
1.9828041e-33
3.4343801e-35
4.5480916e-37
5.1394381e-39
5.5348936e-41
3.658343e-42
9.9892144e-42
3.8817514e-43
5.9866209e-45
1.1845916e-46
2.2111942e-48
3.828462e-50
6.1274171e-52
9.0192028e-54
1.2108393e-55
1.5258418e-57
1.8748883e-59
2.2526276e-61
2.6152245e-63
2.9209651e-65
3.0495485e-67
2.7825543e-69
2.217379e-71
1.5811333e-73
1.0014928e-75
5.4959947e-78
2.527916e-80
9.2045286e-83
2.3010516e-85
1.6509044e-88
8.2683381e-93
1.7060467e-94
1.791888e-94
4.9997411e-91
4.2212245e-91
8.3303778e-90
5.1522101e-87
6.7576034e-83
8.0810427e-80
2.8372547e-77
7.010332e-75
1.3998615e-72
2.389535e-70
3.6009451e-68
4.8897863e-66
6.0723911e-64
6.9758701e-62
7.4594515e-60
7.3714445e-58
6.6777577e-56
5.6600563e-54
4.6154035e-52
3.5984236e-50
2.6214304e-48
1.7511943e-46
1.0771191e-44
6.1417671e-43
3.2685654e-41
1.6392326e-39
7.9232118e-38
3.7752549e-36
1.7561457e-34
7.7681346e-33
3.1991719e-31
1.2052513e-29
4.1082434e-28
1.2514729e-26
3.3544784e-25
7.802928e-24
1.5759778e-22
2.8152723e-21
4.4588012e-20
6.0142813e-19
6.6071535e-18
5.6087682e-17
3.5576735e-16
1.8131296e-15
7.6203668e-15
2.1394188e-14
4.539113e-14
7.4554125e-14
1.0839507e-13
1.3049467e-13
1.3042225e-13
1.0822142e-13
7.4427891e-14
4.4692638e-14
2.0689459e-14
6.9918116e-15
1.3816922e-15
2.1289185e-16
1.9915696e-17
9.7302123e-19
5.5578959e-20
3.7491994e-21
9.2900871e-23
6.5336534e-24
1.9738196e-25
6.6222313e-27
4.2556778e-29
3.1578261e-31
5.9068514e-33
8.443918e-35
1.0099029e-36
1.0840746e-38
1.1168838e-40
5.6442862e-40
3.2530815e-41
4.6382756e-43
8.8710036e-45
1.6278301e-46
2.7467438e-48
4.2461058e-50
5.9756666e-52
7.876948e-54
1.0063094e-55
1.2489997e-57
1.4965433e-59
1.7345888e-61
1.8919599e-63
1.8213821e-65
1.5433769e-67
1.1807198e-69
8.1220162e-72
4.9219528e-74
2.5604879e-76
1.0992779e-78
3.5876943e-81
6.8006587e-84
2.314398e-88
2.966509e-91
9.62701e-93
1.0741103e-92
2.0080315e-89
1.9818355e-89
6.0459955e-88
5.4168226e-85
8.4399616e-82
8.3522542e-79
4.9512067e-76
1.5620212e-73
3.5469708e-71
6.6257666e-69
1.0768482e-66
1.5693491e-64
2.0893493e-62
2.5682754e-60
2.9347923e-58
3.1257007e-56
3.0782703e-54
2.7776426e-52
2.3235248e-50
1.8391762e-48
1.3742529e-46
9.5408557e-45
6.078588e-43
3.5695295e-41
1.9504356e-39
1.0034459e-37
4.9905328e-36
2.4739266e-34
1.1990295e-32
5.4558431e-31
2.2681736e-29
8.447949e-28
2.7862429e-26
8.0660636e-25
2.029191e-23
4.3811756e-22
8.1104423e-21
1.3358725e-19
2.0167775e-18
2.6740348e-17
2.930338e-16
2.2704507e-15
1.1957315e-14
4.455292e-14
1.3083773e-13
2.6892959e-13
3.6969633e-13
4.2155279e-13
5.4373069e-13
7.0049637e-13
7.0035222e-13
5.437911e-13
4.2154211e-13
3.6297172e-13
2.6050503e-13
1.1873423e-13
3.5008462e-14
7.9060963e-15
9.683135e-16
6.3742166e-17
4.5989962e-18
3.2851628e-19
8.6307289e-21
6.8019604e-22
2.1239569e-23
7.7666917e-25
5.9148578e-27
4.443513e-29
8.9884596e-31
1.3885253e-32
1.793547e-34
2.0666397e-36
2.2017308e-38
3.1042892e-38
2.5309205e-39
3.5777379e-41
6.4735958e-43
1.1532533e-44
1.8740387e-46
2.7711844e-48
3.8093816e-50
5.0054484e-52
6.3300497e-54
7.7077365e-56
9.1064331e-58
1.0228962e-59
1.0242381e-61
9.0613461e-64
7.2810949e-66
5.3179204e-68
3.4656644e-70
1.9714562e-72
9.4762297e-75
3.6296427e-77
9.4074541e-80
5.6608368e-83
5.6747495e-87
9.0627762e-90
4.440734e-91
5.5147664e-91
6.5834718e-88
7.9110826e-88
1.140521e-85
7.5339239e-83
3.708731e-80
1.9354624e-77
6.6066687e-75
1.7516999e-72
4.4927949e-70
9.3799736e-68
1.7667618e-65
3.1851309e-63
5.049842e-61
7.2132637e-59
9.3768635e-57
1.114424e-54
1.2130586e-52
1.2038192e-50
1.0849581e-48
8.9635258e-47
6.8946051e-45
4.9473742e-43
3.283683e-41
2.0072828e-39
1.1394029e-37
6.0919406e-36
3.1566179e-34
1.6416192e-32
8.3243103e-31
3.8905068e-29
1.6249119e-27
5.9588106e-26
1.9004645e-24
5.2398509e-23
1.2385383e-21
2.4706658e-20
4.133762e-19
6.2149845e-18
9.1882141e-17
1.1793121e-15
1.0904833e-14
5.555922e-14
2.3903601e-13
5.9665209e-13
9.815662e-13
1.6567086e-12
1.5678209e-12
1.2450718e-12
1.3565986e-12
1.8595682e-12
1.8596898e-12
1.3578285e-12
1.2458278e-12
1.5298036e-12
1.6017155e-12
8.7581706e-13
4.8622469e-13
1.7576798e-13
2.603e-14
3.0858462e-15
3.1683439e-16
2.7293588e-17
7.0499192e-19
6.1718238e-20
2.0049774e-21
7.9410367e-23
7.093143e-25
5.5124781e-27
1.2069855e-28
2.0202308e-30
2.8271897e-32
3.5180728e-34
4.0324253e-36
1.3151421e-36
1.7103571e-37
2.7696402e-39
4.7717295e-41
8.1102337e-43
1.2549196e-44
1.7912208e-46
2.4078986e-48
3.0727461e-50
3.7381387e-52
4.3915167e-54
4.976127e-56
5.0858344e-58
4.572307e-60
3.7317859e-62
2.7904925e-64
1.8769693e-66
1.1082207e-68
5.5577938e-71
2.2127251e-73
5.6536334e-76
7.5458415e-79
7.8013145e-82
5.6724251e-85
5.5460778e-88
2.3357194e-89
2.3988003e-89
1.7272246e-86
2.4358718e-86
5.9691146e-84
3.7554503e-81
1.8030396e-78
6.7019719e-76
2.1293512e-73
5.8137725e-71
1.3188988e-68
2.5860355e-66
4.5091903e-64
7.133479e-62
1.0391992e-59
1.4546585e-57
2.1425058e-55
3.1973173e-53
4.1887275e-51
4.7579504e-49
4.7758586e-47
4.2826795e-45
3.4822282e-43
2.6064776e-41
1.8053077e-39
1.1562161e-37
6.8738199e-36
3.8403596e-34
2.070493e-32
1.1176225e-30
5.8466419e-29
2.7645045e-27
1.1444329e-25
4.0979311e-24
1.2617055e-22
3.3248287e-21
7.4370588e-20
1.3838148e-18
2.122979e-17
2.9690355e-16
3.8599369e-15
3.4146393e-14
1.7878526e-13
7.606689e-13
3.0030934e-12
6.6845884e-12
5.5403119e-12
1.1279005e-11
1.3285058e-11
1.3074735e-11
2.4786226e-11
3.4888158e-11
3.4906021e-11
2.4950259e-11
1.3117628e-11
1.2873932e-11
1.0847768e-11
5.061891e-12
5.956232e-12
2.4704264e-12
3.6368576e-13
3.358485e-14
9.1084179e-15
1.3822934e-15
5.1583624e-17
4.968965e-18
1.6638011e-19
7.110388e-21
7.6031774e-23
6.0054747e-25
1.4249746e-26
2.5904144e-28
3.9398924e-30
5.3165306e-32
6.5930399e-34
2.7102735e-34
1.71476e-35
2.2571852e-37
3.7082037e-39
5.9115413e-41
8.6619481e-43
1.1835842e-44
1.5151878e-46
1.8217279e-48
2.0816337e-50
2.2978699e-52
2.3028571e-54
1.9976731e-56
1.5396849e-58
1.0704465e-60
6.5394401e-63
3.3383575e-65
1.6988508e-67
7.2431756e-70
2.9605086e-72
1.0759334e-74
2.872613e-77
5.5850198e-80
1.1158294e-82
1.7351645e-85
1.0690582e-87
8.7467748e-88
3.523732e-85
6.8240815e-85
2.8736496e-82
1.7384364e-79
7.9777157e-77
3.0037456e-74
9.3150238e-72
2.4226848e-69
5.4208108e-67
1.0832388e-64
1.9411958e-62
3.1451304e-60
4.66743e-58
6.4308223e-56
8.3836331e-54
1.0778761e-51
1.3743588e-49
1.7631757e-47
2.0845247e-45
2.0963686e-43
1.8543992e-41
1.4732229e-39
1.0680861e-37
7.1317523e-36
4.410307e-34
2.5464035e-32
1.400372e-30
7.6301948e-29
4.0162791e-27
1.8839982e-25
7.6198871e-24
2.6392704e-22
7.8167944e-21
1.9747978e-19
4.2457997e-18
7.65933e-17
1.0494749e-15
1.0806306e-14
8.2120518e-14
4.8530177e-13
3.1423477e-12
2.3471867e-11
8.4789437e-11
2.3320988e-10
1.3829387e-10
2.3838163e-10
2.3429782e-10
2.6068758e-10
6.4588497e-10
7.8413476e-10
7.8696664e-10
6.5260689e-10
2.6104672e-10
2.2427033e-10
2.2985039e-10
1.3756091e-10
2.2265741e-10
7.4974361e-11
1.4759415e-11
2.0860108e-12
2.6167081e-13
9.894851e-15
2.0846224e-15
3.2174083e-16
1.2357155e-17
5.5991413e-19
7.2714251e-21
5.7137612e-23
1.4701202e-24
2.9118801e-26
4.8304954e-28
7.0961817e-30
9.5598444e-32
4.3073581e-32
1.6792249e-33
2.1623905e-35
3.4010356e-37
5.1046538e-39
7.0532723e-41
8.9849528e-43
1.0510936e-44
1.12971e-46
1.1299616e-48
1.003134e-50
7.2306786e-53
4.8391521e-55
3.3198861e-57
2.4039039e-59
1.6457768e-61
1.0292866e-63
5.7899633e-66
2.8596308e-68
1.2059073e-70
4.3728563e-73
1.403055e-75
3.6853895e-78
7.3804852e-81
1.2027151e-83
3.9555935e-86
2.5864511e-86
4.8568781e-84
1.9372403e-83
1.324962e-80
8.4087872e-78
4.0369686e-75
1.5539879e-72
4.9647228e-70
1.3473132e-67
3.1593567e-65
6.4897724e-63
1.1828016e-60
1.9376781e-58
2.8952509e-56
4.0096136e-54
5.2275417e-52
6.4917936e-50
7.6499408e-48
8.5053423e-46
9.6506829e-44
1.1078158e-41
1.0805852e-39
9.1725114e-38
6.9469554e-36
4.7703842e-34
3.0020231e-32
1.7460727e-30
9.5227235e-29
5.0546836e-27
2.5981171e-25
1.1865093e-23
4.6324046e-22
1.5402667e-20
4.3688004e-19
1.0676238e-17
2.2940486e-16
3.7880584e-15
3.2590281e-14
1.5949875e-13
1.0544199e-12
1.1807686e-11
1.8543915e-10
1.6049923e-09
3.6382556e-09
9.0728398e-09
3.3767996e-09
6.0807028e-09
5.4712219e-09
5.4881851e-09
2.1616487e-08
2.0042477e-08
1.9727083e-08
2.1733827e-08
5.509723e-09
5.4371324e-09
5.8581972e-09
3.4050339e-09
8.8424798e-09
3.273758e-09
1.048214e-09
1.4019758e-10
1.1566332e-11
4.2829526e-14
1.9028859e-14
7.4471043e-15
7.8034281e-16
3.9698785e-17
7.120883e-19
4.7042634e-21
1.3151662e-22
2.8488646e-24
5.1807418e-26
8.321332e-28
1.2226443e-29
6.2021831e-30
1.7976495e-31
2.332936e-33
3.5996603e-35
5.1941584e-37
6.7870565e-39
7.9611993e-41
8.2671989e-43
7.4584636e-45
5.3804841e-47
3.4738222e-49
2.892735e-51
2.5492228e-53
2.0587808e-55
1.4905462e-57
1.0114246e-59
6.3136879e-62
3.5421656e-64
1.7579737e-66
7.6123085e-69
2.8372827e-71
8.9523452e-74
2.3370235e-76
4.8752268e-79
7.6635839e-82
1.3985718e-84
5.668446e-85
6.672095e-83
6.2777877e-82
5.6510495e-79
3.7909859e-76
1.9223991e-73
7.7952112e-71
2.6116098e-68
7.3856913e-66
1.7899804e-63
3.7618602e-61
6.932839e-59
1.1346441e-56
1.6772464e-54
2.292649e-52
2.9798122e-50
3.7564722e-48
4.5432323e-46
5.2335288e-44
5.7903767e-42
6.0909606e-40
6.5816654e-38
5.9716008e-36
4.6868029e-34
3.2639865e-32
2.049471e-30
1.1733862e-28
6.2006391e-27
3.1395803e-25
1.5304279e-23
6.6888073e-22
2.4981045e-20
7.9235774e-19
2.1706724e-17
5.3697619e-16
9.7548112e-15
9.9361781e-14
6.423134e-13
3.1406187e-12
2.8967415e-11
4.757133e-10
1.0001863e-08
8.9026899e-08
1.4726242e-07
2.7215117e-07
1.8767183e-08
5.0635852e-08
1.906224e-08
1.7933349e-07
1.3681865e-06
8.9682179e-07
8.8537672e-07
1.3748395e-06
1.7922746e-07
1.9222048e-08
5.0021643e-08
1.3613645e-08
2.6276609e-07
1.2773655e-07
6.0696954e-08
7.8051724e-09
4.4777857e-10
1.775239e-12
6.5351204e-13
2.5214559e-13
3.471549e-14
2.2468781e-15
5.6569529e-17
3.5559253e-19
1.0088105e-20
2.4043463e-22
4.8258287e-24
8.5414378e-26
1.3756074e-27
8.4925614e-28
1.8643172e-29
2.5559055e-31
3.9960423e-33
5.6441759e-35
7.0533564e-37
7.6289217e-39
6.8347885e-41
4.4454058e-43
3.764634e-45
3.2356715e-47
2.7413132e-49
2.2183379e-51
1.5954363e-53
1.0428991e-55
7.1105044e-58
4.6712393e-60
2.6904484e-62
1.3380933e-64
5.6995232e-67
2.0604855e-69
6.2411789e-72
1.5526907e-74
3.072547e-77
4.5659158e-80
5.3241736e-83
6.8647299e-84
1.9669262e-81
2.0254133e-80
1.996244e-77
1.4316194e-74
7.7780439e-72
3.3727823e-69
1.2022225e-66
3.5902107e-64
9.0888231e-62
1.9670633e-59
3.660624e-57
5.8996989e-55
8.3389335e-53
1.0866205e-50
1.5563291e-48
2.1290503e-46
2.754589e-44
3.2900777e-42
3.6635676e-40
3.747045e-38
3.719589e-36
3.6673064e-34
2.9929022e-32
2.1047197e-30
1.307011e-28
7.2815848e-27
3.6894879e-25
1.7510824e-23
7.9500999e-22
3.2886029e-20
1.1671828e-18
3.5618079e-17
9.7533558e-16
1.9093543e-14
1.8702768e-13
1.7960452e-12
1.9328877e-11
1.1530099e-10
8.9595257e-10
1.7235064e-08
4.200415e-07
3.4421721e-06
5.0894685e-06
7.2800177e-06
2.0482055e-06
3.7500158e-06
4.0247879e-06
8.5478274e-06
4.6228468e-05
4.3140498e-05
4.2327435e-05
4.6844476e-05
8.6135308e-06
4.0913755e-06
3.4847544e-06
1.9496637e-06
7.1378853e-06
4.0581024e-06
2.4977579e-06
3.3498821e-07
1.4736057e-08
8.3268774e-11
5.6108408e-11
1.0151117e-11
1.3275155e-12
6.5544092e-14
3.118191e-15
3.361187e-17
6.5426686e-19
1.7302477e-20
3.8681435e-22
7.6255964e-24
8.9183741e-25
8.6213426e-26
1.5670284e-27
2.6305434e-29
4.1638475e-31
5.7993191e-33
6.9169561e-35
6.7209725e-37
5.14007e-39
4.7112836e-41
4.3147658e-43
3.7885766e-45
2.9217004e-47
1.954579e-49
1.2369711e-51
7.424253e-54
4.5563145e-56
2.8645158e-58
1.7991714e-60
9.1585869e-63
3.8392359e-65
1.3348941e-67
3.8346791e-70
8.9671984e-73
1.660542e-75
2.3112036e-78
2.2974467e-81
1.8172751e-82
6.160929e-80
4.8312594e-79
5.8741106e-76
4.7996964e-73
2.8275947e-70