/*--------------------------------*- C++ -*----------------------------------*\
  =========                 |
  \\      /  F ield         | OpenFOAM: The Open Source CFD Toolbox
   \\    /   O peration     | Website:  https://openfoam.org
    \\  /    A nd           | Version:  9
     \\/     M anipulation  |
\*---------------------------------------------------------------------------*/
FoamFile
{
    format      ascii;
    class       surfaceScalarField;
    location    "0.14";
    object      phi;
}
// * * * * * * * * * * * * * * * * * * * * * * * * * * * * * * * * * * * * * //

dimensions      [0 3 -1 0 0 0 0];

internalField   nonuniform List<scalar> 
19800
(
-8.5069121e-05
9.1986092e-05
-0.0001011948
9.1691845e-05
-0.00011727162
9.1912675e-05
-0.00013317721
9.1849078e-05
-0.0001489061
9.186442e-05
-0.00016441984
9.1823428e-05
-0.00017966901
9.1698779e-05
-0.00019458835
9.1450117e-05
-0.00020910355
9.1031242e-05
-0.00022314383
9.0391986e-05
-0.00023662739
8.9485769e-05
-0.00024946137
8.8252866e-05
-0.00026155297
8.6643682e-05
-0.00027279228
8.4617949e-05
-0.0002830658
8.2117526e-05
-0.00029226986
7.9076323e-05
-0.00030029576
7.5469961e-05
-0.00030702361
7.12521e-05
-0.00031234856
6.6390328e-05
-0.00031618116
6.086574e-05
-0.00031843806
5.4669376e-05
-0.00031904927
4.7791776e-05
-0.00031795804
4.0230269e-05
-0.00031511648
3.1989939e-05
-0.00031052324
2.3098857e-05
-0.00030435663
1.3655733e-05
-0.00029750003
4.149569e-06
-0.00029128383
-5.1061913e-06
-0.00028218713
-1.4713477e-05
-0.00027071936
-2.3583933e-05
-0.00025737041
-3.2378574e-05
-0.00024271016
-4.097299e-05
-0.00022686306
-4.9824105e-05
-0.00021015074
-5.8878766e-05
-0.00019296006
-6.8186173e-05
-0.00017579937
-7.7819524e-05
-0.00015937693
-8.7737482e-05
-0.00014395224
-9.7610534e-05
-0.0001292918
-0.00010707154
-0.00011531357
-0.00011598727
-0.00010199515
-0.00012428543
-8.9297377e-05
-0.00013190671
-7.7149783e-05
-0.00013879682
-6.5470605e-05
-0.00014490041
-5.4170073e-05
-0.00015017015
-4.3152574e-05
-0.00015457501
-3.2302501e-05
-0.00015808902
-2.1488117e-05
-0.00016069147
-1.0602125e-05
-0.00016241962
4.2134233e-07
-0.00016332523
1.1405652e-05
-0.00016326467
2.2169394e-05
-0.00016223944
3.2786258e-05
-0.00016040136
4.3369643e-05
-0.00015769895
5.4064626e-05
-0.00015410096
6.5002834e-05
-0.00014963052
7.6290205e-05
-0.00014432218
8.8021531e-05
-0.00013820328
0.00010031358
-0.00013132096
0.00011323463
-0.00012372698
0.00012684582
-0.00011547433
0.00014116879
-0.00010662309
0.00015629378
-9.7238461e-05
0.00017247249
-8.7440166e-05
0.00018947722
-7.7585145e-05
0.00020657636
-6.8020034e-05
0.00022325032
-5.8784671e-05
0.00023911263
-4.9800414e-05
0.00025383558
-4.1020831e-05
0.0002672864
-3.2490962e-05
0.00027888675
-2.3753156e-05
0.0002881349
-1.4932466e-05
0.00029447411
-5.3861791e-06
0.00030148455
3.8808242e-06
0.0003078391
1.3364346e-05
0.00031262485
2.2811108e-05
0.00031566489
3.1709821e-05
0.00031695881
3.9955863e-05
0.0003165393
4.7522557e-05
0.00031445795
5.4408387e-05
0.00031078901
6.06172e-05
0.00030561783
6.6150365e-05
0.00029904473
7.1021735e-05
0.00029116904
7.5248167e-05
0.00028210461
7.8862936e-05
0.00027195345
8.1911898e-05
0.00026082231
8.4424078e-05
0.00024883333
8.6460499e-05
0.00023609135
8.8071795e-05
0.00022269391
8.9304206e-05
0.00020874128
9.0209142e-05
0.00019431714
9.0845156e-05
0.00017949215
9.125265e-05
0.00016434603
9.1488185e-05
0.00014892705
9.1586253e-05
0.00013330092
9.1596753e-05
0.00011750915
9.1546688e-05
0.00010153566
9.1537911e-05
8.5520518e-05
9.1287915e-05
9.138926e-05
-8.5084571e-05
0.00010795264
-0.00010107535
0.00010768641
-0.00011700628
0.00010784608
-0.00013287162
0.00010771845
-0.00014861827
0.00010761445
-0.00016420076
0.00010741008
-0.00017956823
0.00010707124
-0.00019466275
0.00010655194
-0.00020942348
0.00010580022
-0.0002237853
0.00010476056
-0.00023765674
0.00010336167
-0.0002509553
0.00010155477
-0.00026358291
9.9276781e-05
-0.00027542769
9.6470883e-05
-0.00028637653
9.3073261e-05
-0.0002963291
8.9030548e-05
-0.00030516088
8.4298088e-05
-0.00031274912
7.8835766e-05
-0.0003189813
7.2621421e-05
-0.00032375495
6.5641141e-05
-0.0003269689
5.7883767e-05
-0.00032855396
4.9374263e-05
-0.00032846883
4.0142084e-05
-0.00032672411
3.0244669e-05
-0.00032339467
1.9770502e-05
-0.00031860236
8.8619041e-06
-0.00031233003
-2.1282409e-06
-0.00030409104
-1.3349834e-05
-0.00029460157
-2.420296e-05
-0.00028327531
-3.490903e-05
-0.00027036352
-4.5291142e-05
-0.00025596653
-5.5369109e-05
-0.00024050067
-6.5285169e-05
-0.00022423323
-7.5140058e-05
-0.00020748703
-8.4927734e-05
-0.00019064968
-9.4656981e-05
-0.00017411903
-0.00010427139
-0.00015811388
-0.00011361492
-0.00014266493
-0.00012251557
-0.00012777402
-0.00013087266
-0.00011342371
-0.00013863264
-9.9585882e-05
-0.00014574573
-8.6203969e-05
-0.00015217759
-7.321778e-05
-0.00015788414
-6.0543798e-05
-0.00016283975
-4.8095902e-05
-0.00016701366
-3.5814697e-05
-0.00017036994
-2.362995e-05
-0.00017287844
-1.1513718e-05
-0.00017453773
4.9535268e-07
-0.00017533402
1.24644e-05
-0.00017522876
2.4452105e-05
-0.00017422737
3.6431765e-05
-0.00017237729
4.8431944e-05
-0.00016969771
6.0534612e-05
-0.00016619824
7.2819103e-05
-0.00016191431
8.5386026e-05
-0.00015688669
9.8324379e-05
-0.00015115083
0.00011173255
-0.00014472378
0.00012566112
-0.00013765552
0.0001401623
-0.00012997544
0.00015526334
-0.00012172702
0.00017097429
-0.00011295019
0.00018727483
-0.00010374088
0.0002039463
-9.4262728e-05
0.00022059199
-8.4667939e-05
0.00023682082
-7.5018322e-05
0.00025230247
-6.529301e-05
0.00026676925
-5.5490748e-05
0.00027978867
-4.5510961e-05
0.00029124538
-3.5215189e-05
0.00030088259
-2.4572905e-05
0.00030927799
-1.3774285e-05
0.0003157314
-2.5657342e-06
0.0003207203
8.3752101e-06
0.00032424894
1.9280583e-05
0.00032619157
2.9767573e-05
0.00032647369
3.9679288e-05
0.00032507695
4.892336e-05
0.00032203957
5.74428e-05
0.00031743008
6.5217278e-05
0.00031136064
7.222233e-05
0.00030393093
7.8459453e-05
0.00029524563
8.394068e-05
0.00028542403
8.869143e-05
0.00027458886
9.2749164e-05
0.00026285174
9.6162385e-05
0.00025032581
9.898199e-05
0.0002371217
0.00010127027
0.00022334008
0.00010308575
0.00020906636
0.00010448465
0.00019438823
0.00010552131
0.0001793782
0.00010626485
0.00016408956
0.00010677259
0.00014858924
0.00010709116
0.00013292413
0.00010726885
0.00011712679
0.00010733655
0.00010125855
0.00010740378
8.532168e-05
0.00010722516
0.00010731883
-8.5218291e-05
0.00012389255
-0.00010122539
0.00012369289
-0.00011717229
0.00012379389
-0.00013308495
0.0001236315
-0.00014891269
0.0001234431
-0.00016461896
0.00012311746
-0.00018016036
0.00012261553
-0.00019548715
0.00012188312
-0.00021053371
0.00012085104
-0.00022523151
0.00011946142
-0.00023950351
0.00011763556
-0.00025325643
0.00011531083
-0.00026639255
0.00011241876
-0.00027880332
0.0001088882
-0.00029037504
0.00010464893
-0.00030097859
9.9633874e-05
-0.00031049409
9.3810863e-05
-0.00031878682
8.7126467e-05
-0.00032572771
7.9561653e-05
-0.00033119189
7.1104136e-05
-0.00033507717
6.1766662e-05
-0.00033728687
5.1582081e-05
-0.0003377631
4.0617926e-05
-0.00033648494
2.8966152e-05
-0.00033346494
1.6748301e-05
-0.00032870279
4.0956536e-06
-0.00032166841
-9.1670137e-06
-0.00031329917
-2.1721164e-05
-0.00030326606
-3.4234831e-05
-0.00029160456
-4.6569491e-05
-0.00027852433
-5.8373223e-05
-0.00026424421
-6.964978e-05
-0.00024854813
-8.0978162e-05
-0.00023209513
-9.1591632e-05
-0.00021521915
-0.00010180606
-0.00019824185
-0.00011163781
-0.00018146227
-0.00012105323
-0.00016507846
-0.00012999614
-0.00014918536
-0.00013840346
-0.0001338182
-0.00014623583
-0.00011897554
-0.00015347256
-0.0001046322
-0.00016009009
-9.0723382e-05
-0.00016608503
-7.7176593e-05
-0.00017142695
-6.3927395e-05
-0.00017608859
-5.0893522e-05
-0.00018004463
-3.7999868e-05
-0.00018326589
-2.5160566e-05
-0.00018572035
-1.2308509e-05
-0.00018739044
6.1128041e-07
-0.00018825634
1.3488718e-05
-0.00018810435
2.6200885e-05
-0.00018693881
3.8819062e-05
-0.00018498682
5.1406108e-05
-0.00018228332
6.4062356e-05
-0.00017885576
7.6880382e-05
-0.00017473664
8.9965436e-05
-0.00016996182
0.00010339231
-0.00016457443
0.00011726063
-0.00015859239
0.00013164626
-0.00015204151
0.00014659542
-0.00014491742
0.00016211936
-0.00013724119
0.0001781876
-0.00012902379
0.00019473069
-0.00012028269
0.00021154877
-0.00011107798
0.00022833069
-0.00010145751
0.00024475557
-9.1441925e-05
0.00026047371
-8.1008202e-05
0.00027482575
-6.9839313e-05
0.00028802553
-5.8707133e-05
0.00029983743
-4.7021715e-05
0.00031004808
-3.4782439e-05
0.00031858178
-2.2316355e-05
0.00032581883
-9.8054737e-06
0.00033079161
3.4111881e-06
0.00033401786
1.6063638e-05
0.00033549811
2.8289974e-05
0.00033522184
3.9956745e-05
0.00033319966
5.0937756e-05
0.00032949755
6.1149048e-05
0.00032420369
7.0514876e-05
0.00031742511
7.9004688e-05
0.00030928415
8.6602503e-05
0.00029991076
9.3315006e-05
0.00028943897
9.9166955e-05
0.00027798024
0.00010420283
0.00026567456
0.00010846808
0.00025263654
0.00011202333
0.00023897458
0.00011493223
0.00022478229
0.00011726668
0.00021017213
0.0001190992
0.00019520054
0.00012048544
0.00017995581
0.00012151504
0.00016448258
0.00012224597
0.00014884413
0.00012272811
0.00013308476
0.00012302885
0.0001172332
0.00012318798
0.00010132476
0.00012330326
8.5367465e-05
0.00012318189
0.00012324611
-8.5233872e-05
0.00013980772
-0.0001012443
0.00013970171
-0.00011723538
0.00013978361
-0.00013321952
0.00013961505
-0.00014917041
0.00013939331
-0.00016504643
0.00013899399
-0.00018080836
0.00013837938
-0.00019641728
0.00013749441
-0.00021181569
0.00013625136
-0.00022692814
0.00013457472
-0.0002416863
0.00013239501
-0.00025599568
0.00012962358
-0.00026975332
0.00012618118
-0.00028284684
0.00012198599
-0.00029515605
0.00011696034
-0.0003065619
0.00011103972
-0.00031690931
0.00010415719
-0.0003260631
9.6278587e-05
-0.00033387176
8.7367695e-05
-0.00034019214
7.7421604e-05
-0.00034489939
6.647241e-05
-0.00034787786
5.4560916e-05
-0.00034903085
4.1770888e-05
-0.00034828526
2.8217386e-05
-0.00034559206
1.4049504e-05
-0.00034093793
-5.626312e-07
-0.00033466323
-1.5443151e-05
-0.00032614471
-3.0240754e-05
-0.00031580196
-4.4578666e-05
-0.00030365691
-5.8714576e-05
-0.00028998527
-7.2045816e-05
-0.00027486348
-8.4774154e-05
-0.00025883811
-9.7005774e-05
-0.00024198808
-0.00010844444
-0.00022465967
-0.00011913739
-0.00020719433
-0.00012910428
-0.00018987138
-0.00013837741
-0.00017288963
-0.00014697765
-0.00015636423
-0.00015492586
-0.00014035458
-0.00016224253
-0.00012486813
-0.00016895521
-0.00010986457
-0.00017509252
-9.5301272e-05
-0.00018064698
-8.1098798e-05
-0.00018562555
-6.7180317e-05
-0.00019001067
-5.3455659e-05
-0.00019377185
-3.9851248e-05
-0.0001968714
-2.6301754e-05
-0.00019926986
-1.276164e-05
-0.00020093107
7.7544487e-07
-0.00020179717
1.4264587e-05
-0.00020158783
2.7649477e-05
-0.00020032149
4.0947246e-05
-0.00019828165
5.4203745e-05
-0.00019554245
6.7507988e-05
-0.00019215508
8.0945493e-05
-0.00018817198
9.4621839e-05
-0.0001836366
0.00010864493
-0.00017859133
0.00012311367
-0.000173053
0.00013808918
-0.0001670111
0.00015363489
-0.00016046235
0.00016976138
-0.00015336206
0.00018641781
-0.00014567336
0.00020348969
-0.00013735729
0.00022078505
-0.00012837275
0.00023802983
-0.00011869214
0.00025486409
-0.00010827358
0.00027093385
-9.7088716e-05
0.00028615759
-8.507194e-05
0.00029997081
-7.2519102e-05
0.00031228365
-5.9333106e-05
0.00032281109
-4.5310755e-05
0.00033154811
-3.1051486e-05
0.00033803776
-1.6294427e-05
0.00034291356
-1.46602e-06
0.00034583118
1.3141864e-05
0.00034678722
2.7321575e-05
0.0003458344
4.0899104e-05
0.00034305013
5.3722777e-05
0.00033852617
6.5670341e-05
0.00033238059
7.6659516e-05
0.00032473676
8.6648854e-05
0.00031573306
9.5602982e-05
0.00030552503
0.0001035229
0.00029424564
0.00011044364
0.00028204254
0.00011640457
0.00026904976
0.00012146438
0.00025538566
0.00012568517
0.00024116373
0.00012915128
0.0002264891
0.0001319401
0.00021144968
0.00013412988
0.00019613197
0.00013581077
0.00018059929
0.00013704993
0.00016488426
0.00013794973
0.00014907656
0.00013854572
0.00013318763
0.00013891135
0.00011724697
0.00013912672
0.0001012936
0.00013925423
8.531925e-05
0.00013914711
0.00013915435
-8.5213683e-05
0.00015573089
-0.00010124072
0.000155727
-0.00011728909
0.00015583176
-0.00013336771
0.0001556934
-0.00014944924
0.00015547537
-0.00016553227
0.00015507854
-0.00018158732
0.00015443617
-0.00019755072
0.00015345899
-0.00021338091
0.00015208148
-0.00022899644
0.00015019
-0.00024433849
0.0001477382
-0.00025931448
0.00014460201
-0.00027382068
0.00014069026
-0.00028774069
0.0001359087
-0.00030094906
0.00013017106
-0.00031329868
0.00012339103
-0.00032463662
0.00011549507
-0.00033480427
0.00010644361
-0.00034364021
9.6200155e-05
-0.00035096013
8.474014e-05
-0.00035661638
7.2129668e-05
-0.00036046076
5.8405861e-05
-0.00036236525
4.3673038e-05
-0.00036222487
2.8071956e-05
-0.00035996509
1.1784319e-05
-0.00035554526
-4.9856634e-06
-0.00034895217
-2.2037434e-05
-0.00034027592
-3.8919007e-05
-0.00032944225
-5.5414842e-05
-0.00031678657
-7.1370241e-05
-0.00030241729
-8.6415197e-05
-0.00028665036
-0.00010054555
-0.0002697299
-0.00011393146
-0.00025203685
-0.00012614009
-0.00023391961
-0.00013725612
-0.00021569289
-0.00014733213
-0.00019763304
-0.00015643956
-0.00017994208
-0.00016466975
-0.00016274832
-0.00017211672
-0.00014611051
-0.00017887759
-0.00013002435
-0.00018503722
-0.00011446411
-0.00019064974
-9.9359453e-05
-0.00019575332
-8.4618588e-05
-0.00020036611
-7.0150166e-05
-0.00020447962
-5.5854546e-05
-0.0002080641
-4.1647881e-05
-0.00021107622
-2.7464124e-05
-0.00021345722
-1.3252615e-05
-0.00021514332
9.9475376e-07
-0.00021604455
1.5190807e-05
-0.00021577641
2.9220782e-05
-0.00021435331
4.3112383e-05
-0.00021217392
5.6916607e-05
-0.00020934674
7.072236e-05
-0.0002059548
8.4635553e-05
-0.00020207911
9.8766939e-05
-0.00019777224
0.00011325083
-0.00019307081
0.00012819855
-0.00018799114
0.00014370351
-0.00018251119
0.00015981992
-0.00017657122
0.00017656644
-0.00017010415
0.00019390546
-0.00016301036
0.00021171018
-0.00015516107
0.00022977259
-0.00014644258
0.00024781151
-0.00013674466
0.00026551166
-0.00012598152
0.0002825068
-0.00011408578
0.00029840749
-0.00010096872
0.0003129514
-8.7066009e-05
0.00032580889
-7.2200421e-05
0.00033687011
-5.6379325e-05
0.00034578732
-3.996993e-05
0.00035262382
-2.3131546e-05
0.00035728337
-6.1293092e-06
0.00035977919
1.0640732e-05
0.00036014532
2.6952693e-05
0.00035845538
4.2589484e-05
0.00035480804
5.7363871e-05
0.0003493358
7.1137159e-05
0.00034219176
8.3804438e-05
0.00033351917
9.5322501e-05
0.0003234977
0.00010562088
0.00031229276
0.00011472723
0.00030006238
0.00012267411
0.00028696196
0.00012949988
0.00027313661
0.00013527839
0.00025872446
0.00014010027
0.00024383358
0.00014404028
0.00022856756
0.00014720199
0.00021301969
0.00014967441
0.00019726641
0.00015156601
0.0001813626
0.00015295363
0.0001653818
0.00015393306
0.0001493542
0.00015456784
0.00013329475
0.00015496998
0.00011726291
0.00015515468
0.00010124428
0.00015526887
8.5242468e-05
0.00015514641
0.00015507009
-8.51072e-05
0.00017167596
-0.00010118212
0.00017180323
-0.00011731778
0.00017196865
-0.00013352923
0.00017190671
-0.00014981004
0.00017175886
-0.00016613915
0.00017141027
-0.0001824901
0.00017078855
-0.00019883835
0.00016980661
-0.00021512595
0.00016836761
-0.0002313412
0.0001664049
-0.00024736278
0.00016376076
-0.00026310852
0.00016034929
-0.00027847732
0.00015606105
-0.00029335018
0.00015078466
-0.00030758493
0.00014440999
-0.00032103047
0.00013683981
-0.00033352409
0.00012798839
-0.00034486819
0.00011778443
-0.00035486805
0.00010619769
-0.00036335274
9.3225831e-05
-0.00037010181
7.8880606e-05
-0.00037493685
6.3239872e-05
-0.00037768925
4.642171e-05
-0.00037821466
2.8593861e-05
-0.00037640333
9.9701016e-06
-0.00037218233
-9.2101821e-06
-0.00036552113
-2.870174e-05
-0.00035645101
-4.7990543e-05
-0.00034508178
-6.6784755e-05
-0.000331542
-8.4910443e-05
-0.00031618134
-0.00010177742
-0.00029929987
-0.00011743141
-0.00028127984
-0.00013195493
-0.00026244132
-0.00014497883
-0.00024320434
-0.00015649476
-0.00022392889
-0.00016661106
-0.00020490998
-0.00017546179
-0.00018637524
-0.00018320612
-0.00016843759
-0.0001900506
-0.00015115402
-0.00019615578
-0.00013451322
-0.00020167283
-0.00011845537
-0.00020670467
-0.00010289273
-0.00021132026
-8.770819e-05
-0.00021555118
-7.2784208e-05
-0.00021939935
-5.8004068e-05
-0.00022283869
-4.3265075e-05
-0.00022581438
-2.8493427e-05
-0.00022823273
-1.3640169e-05
-0.00022999254
1.2800214e-06
-0.00023096426
1.6137705e-05
-0.00023063165
3.0775691e-05
-0.00022899177
4.5204676e-05
-0.00022659876
5.9472143e-05
-0.00022361302
7.3669048e-05
-0.00022015673
8.7936829e-05
-0.00021634023
0.00010240674
-0.00021224208
0.00011723651
-0.00020790396
0.00013257196
-0.00020332352
0.00014854345
-0.00019846617
0.00016522961
-0.00019325324
0.00018266138
-0.00018754847
0.00020081475
-0.00018116292
0.00021956617
-0.00017391296
0.00023868909
-0.0001655677
0.00025787362
-0.00015593559
0.00027675455
-0.00014486248
0.00029489316
-0.00013223116
0.00031195142
-0.00011803599
0.00032753195
-0.00010264866
0.00034131246
-8.5978475e-05
0.00035294885
-6.8018715e-05
0.00036229356
-4.9315232e-05
0.00036923917
-3.0073242e-05
0.00037372434
-1.0615138e-05
0.00037579103
8.5795294e-06
0.00037550088
2.7231336e-05
0.00037297267
4.5109243e-05
0.00036834481
6.1987154e-05
0.00036178641
7.7694714e-05
0.00035347517
9.2112112e-05
0.00034363398
0.00010515422
0.00033243688
0.00011681056
0.00032007525
0.00012708219
0.00030674201
0.00013599619
0.00029260891
0.0001436267
0.00027783201
0.00015005506
0.00026254569
0.00015537691
0.00024688415
0.0001597027
0.00023093227
0.00016314238
0.00021479822
0.000165807
0.00019857111
0.0001678031
0.00018227395
0.00016924504
0.00016597738
0.00017023178
0.00014969202
0.00017085326
0.00013345637
0.00017119852
0.00011727785
0.000171329
0.00010117478
0.00017137188
8.5123077e-05
0.0001711925
0.00017100801
-8.4933199e-05
0.00018764091
-0.00010104175
0.00018791422
-0.00011726214
0.00018819145
-0.00013360624
0.00018825407
-0.00015007874
0.00018823496
-0.00016667541
0.00018800927
-0.00018338161
0.0001874941
-0.00020018775
0.00018661027
-0.00021703867
0.00018521712
-0.00023387326
0.00018324016
-0.00025064455
0.00018053371
-0.0002672724
0.00017697892
-0.00028362276
0.00017241408
-0.00029958423
0.0001667509
-0.00031500556
0.00015983689
-0.00032972122
0.00015155819
-0.00034354189
0.00014180732
-0.00035625876
0.00013049802
-0.00036764665
0.00011758457
-0.00037746533
0.00010304613
-0.00038548242
8.6899179e-05
-0.00039146993
6.9226845e-05
-0.00039520979
5.01602e-05
-0.0003965046
2.9888146e-05
-0.00039519798
8.6621783e-06
-0.00039118031
-1.3231792e-05
-0.00038439224
-3.5492992e-05
-0.00037484909
-5.7532577e-05
-0.00036269726
-7.8935027e-05
-0.00034817947
-9.9430348e-05
-0.00033147729
-0.00011848326
-0.00031309288
-0.00013581932
-0.00029353858
-0.00015151159
-0.00027314169
-0.00016537558
-0.00025241004
-0.00017722664
-0.0002317759
-0.00018724652
-0.0002115823
-0.00019565657
-0.00019204182
-0.00020274812
-0.00017329735
-0.00020879201
-0.00015537335
-0.00021407477
-0.00013822854
-0.00021881744
-0.00012176188
-0.00022317166
-0.00010584856
-0.00022723206
-9.0341461e-05
-0.00023105208
-7.5090469e-05
-0.00023464793
-5.9944145e-05
-0.00023798794
-4.475707e-05
-0.00024100023
-2.9444255e-05
-0.00024354472
-1.3967565e-05
-0.00024546619
1.6382627e-06
-0.00024657245
1.7164267e-05
-0.0002461547
3.2392065e-05
-0.00024421591
4.7297116e-05
-0.00024150301
6.1927979e-05
-0.00023824258
7.6387101e-05
-0.00023462207
9.0849781e-05
-0.00023080389
0.00010549636
-0.00022688968
0.00012053467
-0.0002229295
0.00013613907
-0.00021892745
0.00015248333
-0.0002148173
0.00016970982
-0.00021047178
0.00018788393
-0.00020571639
0.00020699909
-0.00020028099
0.00022691775
-0.00019384033
0.00024741876
-0.00018607365
0.00026813955
-0.00017665458
0.0002886283
-0.00016534806
0.00030835634
-0.00015196184
0.00032697775
-0.00013665951
0.00034395393
-0.00011962338
0.00035878596
-0.00010080562
0.00037124774
-8.0479033e-05
0.00038111005
-5.9179097e-05
0.00038821341
-3.7173794e-05
0.00039253133
-1.4935099e-05
0.00039411128
6.9909622e-06
0.00039307187
2.8267581e-05
0.00038956589
4.8610651e-05
0.00038379354
6.7758726e-05
0.00037597047
8.5516757e-05
0.00036632334
0.00010175084
0.00035509261
0.0001163768
0.00034252073
0.00012937567
0.00032882895
0.00014076803
0.00031422373
0.00015059715
0.00029889718
0.00015894535
0.00028302227
0.0001659251
0.00026674833
0.00017164539
0.00025019528
0.0001762494
0.00023349213
0.00017984728
0.00021671777
0.00018258819
0.00019992183
0.00018459064
0.00018317661
0.00018599128
0.00016652098
0.00018689067
0.00014996054
0.00018740627
0.00013352553
0.00018763313
0.00011721252
0.00018764141
0.0001010189
0.00018756645
8.4936719e-05
0.00018727093
0.00018695364
-8.4650412e-05
0.00020359424
-0.00010079108
0.00020405617
-0.00011707601
0.00020447796
-0.00013354342
0.00020472429
-0.00015021783
0.00020491198
-0.00016709963
0.00020489061
-0.00018418846
0.00020457966
-0.00020146126
0.00020388045
-0.00021890828
0.00020266465
-0.00023647217
0.00020080696
-0.00025408904
0.0001981536
-0.00027167155
0.00019456387
-0.00028915048
0.00018989657
-0.00030635265
0.00018395837
-0.00032313133
0.00017661967
-0.00033930441
0.00016773101
-0.00035466313
0.00015716233
-0.00036897151
0.00014480314
-0.00038195913
0.00013057162
-0.00039335649
0.00011444504
-0.00040288038
9.6425783e-05
-0.00041023483
7.6584623e-05
-0.0004151488
5.5076916e-05
-0.00041736666
3.2107097e-05
-0.00041667362
7.9684814e-06
-0.00041291107
-1.6996322e-05
-0.00040596674
-4.2438689e-05
-0.00039583672
-6.7661326e-05
-0.00038269528
-9.2075413e-05
-0.00036674921
-0.00011537912
-0.00034830859
-0.00013692776
-0.0003280565
-0.00015607456
-0.00030652104
-0.00017305005
-0.00028405526
-0.00018784123
-0.00026139334
-0.00019988629
-0.00023904661
-0.00020959247
-0.0002174013
-0.00021730039
-0.00019672916
-0.00022341759
-0.00017713347
-0.00022838451
-0.00015860276
-0.00023260574
-0.00014103784
-0.00023638992
-0.00012428207
-0.00023993107
-0.00010816586
-0.00024334455
-9.25053e-05
-0.00024670747
-7.7093855e-05
-0.00025005891
-6.1729569e-05
-0.00025335529
-4.6195141e-05
-0.00025653201
-3.0383034e-05
-0.00025935806
-1.4272944e-05
-0.00026157602
2.070309e-06
-0.00026291267
1.8327662e-05
-0.0002624077
3.415689e-05
-0.00026004677
4.9489431e-05
-0.00025684103
6.436585e-05
-0.00025311693
7.8920065e-05
-0.00024917637
9.3381357e-05
-0.00024526714
0.00010799867
-0.00024150559
0.0001230396
-0.00023796597
0.00013874387
-0.00023463045
0.00015535296
-0.00023141723
0.00017305352
-0.00022817524
0.00019199087
-0.00022465642
0.00021219364
-0.000220489
0.00023355524
-0.00021520348
0.00025580346
-0.00020831206
0.00027851056
-0.00019936434
0.00030113857
-0.00018798525
0.00032293705
-0.00017376003
0.00034351015
-0.00015723491
0.00036229063
-0.00013840765
0.00037861917
-0.0001171341
0.00039213418
-9.3996452e-05
0.00040263893
-6.9683046e-05
0.00040993826
-4.4481962e-05
0.00041403748
-1.9040274e-05
0.00041502995
5.9922434e-06
0.00041308535
3.0210392e-05
0.00040841652
5.3274097e-05
0.00040128228
7.4886672e-05
0.00039195235
9.4841216e-05
0.00038072748
0.00011296953
0.00036789184
0.00012920521
0.00035372307
0.00014354257
0.00033849016
0.00015599812
0.00032241985
0.00016665587
0.00030573373
0.00017562861
0.0002886101
0.00018303763
0.00027121341
0.00018904159
0.00025369261
0.00019377419
0.00023613363
0.00019740865
0.00021862368
0.00020009976
0.00020122539
0.00020198504
0.00018399847
0.00020322099
0.0001669509
0.00020393159
0.00015010342
0.00020424614
0.00013346431
0.00020426828
0.00011701735
0.00020408238
0.00010075389
0.00020382347
8.4640078e-05
0.00020338525
0.00020288608
-8.4224669e-05
0.00021949957
-0.00010036336
0.00022019287
-0.00011669236
0.00022080679
-0.00013326375
0.00022129706
-0.00015014075
0.00022178852
-0.00016729742
0.00022204364
-0.00018477924
0.00022205753
-0.00020257145
0.00022167216
-0.00022065915
0.00022075599
-0.00023900778
0.00021916045
-0.00025756332
0.00021671235
-0.00027625012
0.0002132527
-0.00029495031
0.00020859949
-0.00031354406
0.00020255488
-0.00033186215
0.0001949377
-0.00034970359
0.0001855686
-0.00036683216
0.00017428585
-0.00038297992
0.00016094803
-0.00039785123
0.00014544344
-0.00041110545
0.00012770263
-0.00042240997
0.00010773596
-0.00043141458
8.5595817e-05
-0.00043775471
6.1421658e-05
-0.00044110206
3.5455964e-05
-0.00044116501
8.0324228e-06
-0.00043771675
-2.0443087e-05
-0.00043068542
-4.9470267e-05
-0.00041973227
-7.8616007e-05
-0.00040544696
-0.00010636182
-0.00038759546
-0.00013323338
-0.00036719795
-0.00015732973
-0.00034437368
-0.00017890121
-0.00032005457
-0.00019736813
-0.00029502171
-0.0002128703
-0.00026992215
-0.00022498348
-0.0002454382
-0.00023407883
-0.00022207852
-0.0002406601
-0.00020013127
-0.00024536081
-0.00017967621
-0.00024883907
-0.00016061951
-0.00025166531
-0.00014276481
-0.00025424837
-0.00012588558
-0.00025681275
-0.00010976847
-0.00025946543
-9.418737e-05
-0.00026229177
-7.8837787e-05
-0.00026540473
-6.3474503e-05
-0.00026871722
-4.7715524e-05
-0.00027229278
-3.1415909e-05
-0.00027566214
-1.4610618e-05
-0.00027838209
2.5967117e-06
-0.00028011751
1.9714482e-05
-0.00027952104
3.6213653e-05
-0.00027654242
5.1948876e-05
-0.00027257761
6.6920193e-05
-0.00026809954
8.1327161e-05
-0.00026357617
9.5528684e-05
-0.00025945574
0.00010983112
-0.00025581019
0.00012461887
-0.00025275846
0.00014019082
-0.00025021721
0.0001568696
-0.00024809609
0.0001749335
-0.00024624062
0.00019462723
-0.00024434924
0.00021606984
-0.00024191834
0.00023915692
-0.00023829658
0.00026358749
-0.00023274918
0.00028881716
-0.00022458963
0.00031411476
-0.00021328247
0.00033878804
-0.0001984348
0.00036203961
-0.00018048024
0.000382914
-0.00015928471
0.00040122427
-0.00013544822
0.00041595715
-0.00010873447
0.00042726094
-8.0989578e-05
0.0004348214
-5.2041627e-05
0.00043859664
-2.2810685e-05
0.00043885175
5.7372877e-06
0.00043578907
3.3266421e-05
0.00042970398
5.9357279e-05
0.00042092159
8.3667061e-05
0.0004098132
0.00010594543
0.00039673231
0.00012605311
0.00038200467
0.00014392605
0.00036598826
0.00015955296
0.00034897794
0.00017300698
0.00033123574
0.00018439152
0.00031299817
0.00019385375
0.00029448066
0.00020155806
0.00027584421
0.00020767705
0.00025721862
0.00021239349
0.00023872031
0.0002159095
0.00022041281
0.00021840687
0.00020236455
0.00022003086
0.00018461116
0.00022097803
0.000167163
0.00022137963
0.00015003502
0.00022137723
0.00013319072
0.0002211105
0.00011663795
0.00022063237
0.00010032358
0.0002201299
8.4202124e-05
0.00021950211
0.00021877655
-8.3623292e-05
0.00023531496
-9.9720289e-05
0.00023628585
-0.00011606471
0.00023715047
-0.00013273568
0.00023796734
-0.00014975204
0.00023880167
-0.00016720129
0.00023948837
-0.00018507293
0.00023992715
-0.00020338638
0.00023998843
-0.00022214637
0.0002395216
-0.00024132906
0.00023834743
-0.00026090317
0.00023628787
-0.00028078007
0.00023312966
-0.00030086325
0.00022868242
-0.00032101561
0.00022270561
-0.00034107189
0.00021499001
-0.00036081326
0.00020530467
-0.00037997768
0.00019344601
-0.00039826867
0.00017923797
-0.00041534245
0.00016252031
-0.00043080358
0.00014317
-0.00044424993
0.00012118936
-0.00045523705
9.6588779e-05
-0.0004633255
6.9513881e-05
-0.00046808297
4.021563e-05
-0.00046911285
9.0646443e-06
-0.00046609014
-2.3463169e-05
-0.00045878417
-5.6775788e-05
-0.00044730381
-9.0097988e-05
-0.00043127849
-0.00012238867
-0.00041144566
-0.0001530701
-0.0003880574
-0.0001807243
-0.00036202126
-0.00020493856
-0.00033437846
-0.00022500559
-0.00030592766
-0.00024131581
-0.000277669
-0.00025323982
-0.00025052427
-0.00026122392
-0.00022512772
-0.0002660578
-0.00020180429
-0.00026868665
-0.00018055561
-0.00027009361
-0.00016113702
-0.0002710859
-0.00014319768
-0.00027218508
-0.00012641709
-0.00027359402
-0.00011055304
-0.00027533294
-9.5382732e-05
-0.00027746364
-8.0404978e-05
-0.00028037872
-6.5406226e-05
-0.00028371689
-4.9569817e-05
-0.00028813221
-3.2731883e-05
-0.00029250069
-1.5096164e-05
-0.00029602173
3.2203061e-06
-0.00029844136
2.1457556e-05
-0.00029775392
3.8783467e-05
-0.00029386425
5.4941547e-05
-0.00028872911
6.984342e-05
-0.00028300075
8.3738055e-05
-0.00027747402
9.7304846e-05
-0.00027302948
0.0001108903
-0.00026939488
0.00012509066
-0.00026695076
0.00014023011
-0.00026535662
0.00015670012
-0.00026456531
0.00017491566
-0.00026446238
0.00019528815
-0.00026472197
0.00021807254
-0.00026470116
0.00024323802
-0.00026347097
0.00027042458
-0.00025994125
0.00029894135
-0.00025309829
0.00032780143
-0.00024213175
0.00035594573
-0.00022658622
0.00038253877
-0.00020707874
0.00040650866
-0.00018325091
0.00042690619
-0.00015584265
0.00044346346
-0.00012529617
0.00045550403
-9.3026984e-05
0.00046315821
-5.9710381e-05
0.00046661128
-2.6267825e-05
0.00046594072
6.4051319e-06
0.00046148706
3.7714762e-05
0.00045366363
6.718301e-05
0.00044290572
9.4430005e-05
0.00042965534
0.00011920024
0.00041435646
0.00014134721
0.0003974231
0.00016085717
0.00037925196
0.00017772096
0.00036019037
0.00019205957
0.00034054116
0.00020404172
0.00032056098
0.00021383336
0.00030047297
0.00022164248
0.00028044545
0.00022769737
0.00026062253
0.00023221876
0.00024109325
0.00023543973
0.00022194654
0.000237548
0.00020322083
0.00023876194
0.00018493426
0.00023926258
0.00016708752
0.00023922033
0.00014966565
0.00023879612
0.00013266218
0.00023811498
0.00011601092
0.00023728511
9.9678125e-05
0.00023646171
8.3592021e-05
0.00023558065
0.00023458154
-8.2805486e-05
0.00025097685
-9.8803549e-05
0.00025228136
-0.00011510424
0.00025345049
-0.00013180221
0.00025466342
-0.00014896215
0.00025595803
-0.00016665245
0.00025717607
-0.00018490464
0.00025818074
-0.00020375292
0.00025884156
-0.00022321294
0.00025898617
-0.00024327905
0.00025841508
-0.00026393127
0.00025693905
-0.00028510428
0.00025430036
-0.00030670379
0.00025027858
-0.00032859398
0.0002445914
-0.00035059457
0.00023698615
-0.00037249227
0.00022719916
-0.00039399373
0.00021494636
-0.0004147587
0.00020000463
-0.00043439801
0.00018216442
-0.00045248987
0.00016126808
-0.00046850913
0.00013721341
-0.00048192993
0.00011001264
-0.00049219379
7.978112e-05