/*--------------------------------*- C++ -*----------------------------------*\
  =========                 |
  \\      /  F ield         | OpenFOAM: The Open Source CFD Toolbox
   \\    /   O peration     | Website:  https://openfoam.org
    \\  /    A nd           | Version:  9
     \\/     M anipulation  |
\*---------------------------------------------------------------------------*/
FoamFile
{
    format      ascii;
    class       volVectorField;
    location    "0.14";
    object      U;
}
// * * * * * * * * * * * * * * * * * * * * * * * * * * * * * * * * * * * * * //

dimensions      [0 1 -1 0 0 0 0];

internalField   nonuniform List<vector> 
10000
(
(-0.0061487725 0.0066562795 0)
(-0.010434436 0.0066361858 0)
(-0.010559079 0.0066610853 0)
(-0.012553889 0.0066667644 0)
(-0.014103041 0.0066802213 0)
(-0.015667325 0.0066908304 0)
(-0.017205914 0.0066970135 0)
(-0.018715202 0.0066965626 0)
(-0.020187807 0.0066860776 0)
(-0.021616987 0.0066610812 0)
(-0.022994821 0.006618711 0)
(-0.024312423 0.0065543292 0)
(-0.025562419 0.0064636226 0)
(-0.026733818 0.0063447545 0)
(-0.027811983 0.0061931751 0)
(-0.028789019 0.0060024875 0)
(-0.029656107 0.00577158 0)
(-0.03039947 0.0054974885 0)
(-0.031007552 0.0051763269 0)
(-0.031471529 0.0048059279 0)
(-0.031782871 0.0043863595 0)
(-0.031933051 0.0039168497 0)
(-0.031916058 0.0033968729 0)
(-0.031727115 0.0028260096 0)
(-0.031363329 0.0022019116 0)
(-0.030830695 0.0015183332 0)
(-0.030184806 0.00076713036 0)
(-0.029543396 -6.8083672e-06 0)
(-0.028788756 -0.00066827798 0)
(-0.027756556 -0.0013051638 0)
(-0.026521373 -0.0019600036 0)
(-0.025137245 -0.0026326042 0)
(-0.023613604 -0.0033310056 0)
(-0.021982872 -0.0040667619 0)
(-0.02028599 -0.0048400819 0)
(-0.018565367 -0.0056513728 0)
(-0.016882722 -0.0064937375 0)
(-0.015285798 -0.0073431051 0)
(-0.013774879 -0.0081737894 0)
(-0.012334406 -0.0089734188 0)
(-0.010959556 -0.0097318063 0)
(-0.0096472663 -0.010438726 0)
(-0.0083922622 -0.011084937 0)
(-0.0071876545 -0.011662459 0)
(-0.0060253674 -0.012164509 0)
(-0.0048963484 -0.012585016 0)
(-0.0037923938 -0.012916863 0)
(-0.0027012782 -0.013155597 0)
(-0.0016096763 -0.013304524 0)
(-0.00051005977 -0.013371898 0)
(0.00059235227 -0.013368889 0)
(0.0016841607 -0.013295511 0)
(0.002759817 -0.013140994 0)
(0.0038278931 -0.012897072 0)
(0.0049022872 -0.012560785 0)
(0.0059966786 -0.012136515 0)
(0.0071212706 -0.011632607 0)
(0.008285686 -0.011054319 0)
(0.0094993175 -0.010408151 0)
(0.010771056 -0.009702326 0)
(0.012107841 -0.0089464787 0)
(0.013513638 -0.0081507027 0)
(0.014992686 -0.0073241634 0)
(0.016562046 -0.0064782235 0)
(0.018224671 -0.0056386013 0)
(0.019933256 -0.0048308124 0)
(0.021623899 -0.0040615274 0)
(0.02325342 -0.0033296274 0)
(0.02478065 -0.0026347453 0)
(0.026172801 -0.0019651054 0)
(0.027419376 -0.0013127737 0)
(0.028465686 -0.00067840995 0)
(0.029234677 -2.0156059e-05 0)
(0.029890631 0.00075174838 0)
(0.030553239 0.001502509 0)
(0.031103848 0.0021868383 0)
(0.03148709 0.0028121738 0)
(0.031696958 0.0033836125 0)
(0.031734083 0.0039033738 0)
(0.031601774 0.0043727184 0)
(0.03130684 0.0047926699 0)
(0.030858888 0.0051634604 0)
(0.030266831 0.0054853357 0)
(0.029538845 0.005760007 0)
(0.028686188 0.0059911805 0)
(0.027721636 0.0061818104 0)
(0.026654423 0.0063336768 0)
(0.025494032 0.0064528622 0)
(0.024254131 0.0065435698 0)
(0.022945362 0.0066080068 0)
(0.021576339 0.0066504223 0)
(0.020156279 0.0066750932 0)
(0.01869292 0.0066846959 0)
(0.017193345 0.0066841961 0)
(0.015664562 0.0066760004 0)
(0.014109731 0.0066628331 0)
(0.012573281 0.0066465016 0)
(0.01058017 0.0066343404 0)
(0.010480011 0.006607239 0)
(0.0061964747 0.0066095271 0)
(-0.0061736665 0.011026234 0)
(-0.010426331 0.010991508 0)
(-0.010526138 0.011014184 0)
(-0.012529661 0.011005199 0)
(-0.014072387 0.011002811 0)
(-0.015641968 0.010993158 0)
(-0.017189455 0.010972664 0)
(-0.018712885 0.010936374 0)
(-0.020207046 0.010879087 0)
(-0.021664492 0.010795287 0)
(-0.023077469 0.010678586 0)
(-0.024438739 0.010522997 0)
(-0.025738038 0.01032273 0)
(-0.0269646 0.010072127 0)
(-0.028108182 0.0097645452 0)
(-0.029157718 0.009393525 0)
(-0.030101375 0.0089550766 0)
(-0.03092806 0.0084439235 0)
(-0.031625596 0.0078571414 0)
(-0.032181804 0.0071926757 0)
(-0.0325872 0.0064484865 0)
(-0.032834228 0.0056248377 0)
(-0.032917032 0.0047228946 0)
(-0.032833302 0.0037437297 0)
(-0.032586397 0.0026866564 0)
(-0.032188426 0.0015488639 0)
(-0.031643788 0.00033591189 0)
(-0.030925647 -0.00087257991 0)
(-0.030046176 -0.001973783 0)
(-0.029014217 -0.0030316342 0)
(-0.02780813 -0.0040949396 0)
(-0.026445457 -0.0051667846 0)
(-0.024957411 -0.0062529667 0)
(-0.023372826 -0.0073498382 0)
(-0.021721926 -0.0084609143 0)
(-0.020041322 -0.009588322 0)
(-0.018370105 -0.010724822 0)
(-0.016738845 -0.011842631 0)
(-0.015160324 -0.012911837 0)
(-0.013635547 -0.013918741 0)
(-0.012163478 -0.014855779 0)
(-0.010742451 -0.015716772 0)
(-0.0093686519 -0.016496256 0)
(-0.0080366274 -0.017188077 0)
(-0.0067402308 -0.017787073 0)
(-0.0054714204 -0.018289551 0)
(-0.0042228072 -0.018692818 0)
(-0.0029886918 -0.018993609 0)
(-0.0017658 -0.019193649 0)
(-0.00055312489 -0.019294531 0)
(0.00065025675 -0.019286217 0)
(0.001854679 -0.019169041 0)
(0.0030608646 -0.018953949 0)
(0.0042707103 -0.018639623 0)
(0.0054881474 -0.018224997 0)
(0.0067196891 -0.017713658 0)
(0.0079753082 -0.017108947 0)
(0.0092647221 -0.016414848 0)
(0.010595025 -0.015636073 0)
(0.011973125 -0.01477862 0)
(0.013404311 -0.013847674 0)
(0.014892413 -0.012849443 0)
(0.016439176 -0.011790513 0)
(0.018044313 -0.010683399 0)
(0.019695541 -0.00955692 0)
(0.021362698 -0.0084396139 0)
(0.023006669 -0.007338889 0)
(0.024590305 -0.0062517684 0)
(0.026082716 -0.0051745564 0)
(0.027454208 -0.0041110405 0)
(0.028672131 -0.0030550884 0)
(0.029717554 -0.0020034563 0)
(0.030611905 -0.00090758243 0)
(0.031347501 0.00029718072 0)
(0.031911659 0.001508897 0)
(0.032329133 0.0026472176 0)
(0.03259533 0.0037056559 0)
(0.032698806 0.0046859635 0)
(0.032635525 0.0055886634 0)
(0.032406823 0.0064130926 0)
(0.032018316 0.0071586729 0)
(0.031478643 0.007824776 0)
(0.030797635 0.0084131141 0)
(0.029986034 0.0089255718 0)
(0.029055997 0.0093652279 0)
(0.028018472 0.0097373254 0)
(0.026885747 0.010046365 0)
(0.025669728 0.010298298 0)
(0.024380367 0.010499284 0)
(0.023028447 0.010655358 0)
(0.021624488 0.010771885 0)
(0.020175526 0.010855251 0)
(0.018689798 0.010911317 0)
(0.017174477 0.010945987 0)
(0.015634695 0.01096394 0)
(0.014073296 0.010970391 0)
(0.012539207 0.010968472 0)
(0.0105376 0.010970066 0)
(0.010452077 0.010944484 0)
(0.006198171 0.010956068 0)
(-0.006193089 0.01143935 0)
(-0.010440523 0.011413465 0)
(-0.010535151 0.011420804 0)
(-0.01255108 0.01140058 0)
(-0.014096764 0.01137912 0)
(-0.015676486 0.01134604 0)
(-0.017239167 0.011297188 0)
(-0.018783297 0.011227113 0)
(-0.020302522 0.011129875 0)
(-0.021791168 0.01100017 0)
(-0.023241471 0.01083096 0)
(-0.024644342 0.010615748 0)
(-0.025991768 0.010349133 0)
(-0.027273152 0.01002411 0)
(-0.028475511 0.0096336082 0)
(-0.02958793 0.0091729429 0)
(-0.030599774 0.0086383932 0)
(-0.031496295 0.0080248061 0)
(-0.032262997 0.0073309111 0)
(-0.03288956 0.0065562567 0)
(-0.033364539 0.0057012097 0)
(-0.033676332 0.0047690987 0)
(-0.033817919 0.0037657536 0)
(-0.033785564 0.0026996823 0)
(-0.033579611 0.0015829691 0)
(-0.033199285 0.00043453067 0)
(-0.032617548 -0.00071817296 0)
(-0.031854965 -0.0018678286 0)
(-0.030939516 -0.0029996292 0)
(-0.02986154 -0.0040850053 0)
(-0.028637086 -0.0051268385 0)
(-0.027275062 -0.0061342213 0)
(-0.025776333 -0.0071108653 0)
(-0.024171648 -0.0080643831 0)
(-0.022507129 -0.0089943272 0)
(-0.020814312 -0.0099016744 0)
(-0.01912478 -0.010782479 0)
(-0.017463312 -0.011628283 0)
(-0.015843909 -0.012429073 0)
(-0.014273067 -0.013178577 0)
(-0.012753266 -0.013873385 0)
(-0.011283345 -0.014511243 0)
(-0.0098581803 -0.015090946 0)
(-0.0084713349 -0.015609076 0)
(-0.0071174316 -0.016063399 0)
(-0.0057894676 -0.016450618 0)
(-0.0044798773 -0.01676788 0)
(-0.003181032 -0.01701209 0)
(-0.0018865488 -0.017180944 0)
(-0.00058871448 -0.017269798 0)
(0.00070913863 -0.017256947 0)
(0.0019977985 -0.017142929 0)
(0.0032742012 -0.016950598 0)
(0.004546695 -0.016685545 0)
(0.0058221133 -0.016350956 0)
(0.0071095597 -0.015950324 0)
(0.0084187707 -0.015486683 0)
(0.0097584818 -0.014964612 0)
(0.011135667 -0.014385623 0)
(0.012558772 -0.013753345 0)
(0.014034767 -0.013068186 0)
(0.015566391 -0.012331707 0)
(0.017151558 -0.011546247 0)
(0.018785364 -0.01071711 0)
(0.020455139 -0.0098537975 0)
(0.02213534 -0.0089638694 0)
(0.023793733 -0.0080509864 0)
(0.025398227 -0.0071133113 0)
(0.026901851 -0.0061505369 0)
(0.028273206 -0.0051550538 0)
(0.029510934 -0.004123233 0)
(0.030605144 -0.0030459179 0)
(0.03153769 -0.0019206614 0)
(0.032319114 -0.00077476226 0)
(0.032921832 0.0003760545 0)
(0.033322545 0.0015241488 0)
(0.033548375 0.002641841 0)
(0.033601096 0.0037093128 0)
(0.033479398 0.0047141625 0)
(0.033186187 0.005648259 0)
(0.032728606 0.006505734 0)
(0.03211841 0.0072833899 0)
(0.031367471 0.0079799539 0)
(0.030485913 0.0085958147 0)
(0.029487805 0.0091327371 0)
(0.028387551 0.0095952449 0)
(0.027195959 0.0099877421 0)
(0.025924766 0.010314741 0)
(0.024586846 0.010582717 0)
(0.023192542 0.010798744 0)
(0.021750626 0.01096826 0)
(0.020270274 0.011097526 0)
(0.01875884 0.011194185 0)
(0.017222041 0.011263203 0)
(0.015666208 0.011310037 0)
(0.014093169 0.011340692 0)
(0.012554541 0.01135879 0)
(0.010541285 0.011374393 0)
(0.010455712 0.011365234 0)
(0.0062077052 0.011377616 0)
(-0.0062009688 0.013103897 0)
(-0.010440121 0.013090663 0)
(-0.010533746 0.013100347 0)
(-0.012562718 0.013084619 0)
(-0.014115692 0.013064463 0)
(-0.01571001 0.013028143 0)
(-0.01729184 0.012972312 0)
(-0.018861082 0.012891557 0)
(-0.020412058 0.012778113 0)
(-0.02193854 0.012624753 0)
(-0.023433936 0.012425145 0)
(-0.024889117 0.012170707 0)
(-0.026294697 0.011854369 0)
(-0.027641306 0.01146914 0)
(-0.02891629 0.011007513 0)
(-0.030105354 0.010462219 0)
(-0.031197445 0.0098291736 0)
(-0.032178673 0.0091045168 0)
(-0.033032444 0.0082847694 0)
(-0.033745227 0.0073688123 0)
(-0.034303985 0.0063597267 0)
(-0.034695894 0.0052610828 0)
(-0.0349103 0.004079892 0)
(-0.034939057 0.0028266157 0)
(-0.03477562 0.0015160419 0)
(-0.03441716 0.00016803886 0)
(-0.033879929 -0.0011978809 0)
(-0.03314834 -0.0025878352 0)
(-0.032213274 -0.003962743 0)
(-0.031097486 -0.00530063 0)
(-0.029813693 -0.00658822 0)
(-0.028379639 -0.0078117608 0)
(-0.026827448 -0.0089691548 0)
(-0.025187033 -0.01007258 0)
(-0.023480741 -0.011120194 0)
(-0.021742587 -0.012112193 0)
(-0.020002432 -0.013047722 0)
(-0.018284873 -0.013924465 0)
(-0.016605008 -0.01474025 0)
(-0.014970872 -0.015494734 0)
(-0.013386115 -0.01618806 0)
(-0.011851266 -0.01682001 0)
(-0.010361166 -0.017390138 0)
(-0.0089086654 -0.017898634 0)
(-0.0074877138 -0.018343763 0)
(-0.0060902874 -0.018722732 0)
(-0.0047088538 -0.019032038 0)
(-0.0033368865 -0.01926846 0)
(-0.0019699839 -0.019429806 0)
(-0.00060430565 -0.019513205 0)
(0.0007573548 -0.019495041 0)
(0.0021128765 -0.019376517 0)
(0.0034592952 -0.019182116 0)
(0.0048013231 -0.018916221 0)
(0.0061443997 -0.018582225 0)
(0.0074965332 -0.018184093 0)
(0.00886698 -0.017726107 0)
(0.010266448 -0.017212263 0)
(0.011702967 -0.016643414 0)
(0.013185132 -0.016019149 0)
(0.014720764 -0.015339475 0)
(0.016311859 -0.014603764 0)
(0.017955741 -0.013810524 0)
(0.019644585 -0.012957765 0)
(0.021363725 -0.012046676 0)
(0.023088638 -0.011079236 0)
(0.024789446 -0.010055459 0)
(0.026431733 -0.0089742239 0)
(0.027991823 -0.0078363856 0)
(0.029438434 -0.0066291716 0)
(0.030737805 -0.005354304 0)
(0.03187056 -0.0040260339 0)
(0.032824902 -0.0026588982 0)
(0.033578584 -0.0012737748 0)
(0.034138577 8.935941e-05 0)
(0.034519379 0.0014366301 0)
(0.03470396 0.0027484256 0)
(0.034695551 0.0040038246 0)
(0.034501272 0.0051874843 0)
(0.034128462 0.0062891425 0)
(0.033587487 0.0073016446 0)
(0.032891468 0.0082214638 0)
(0.032053354 0.0090451174 0)
(0.031086773 0.0097733069 0)
(0.030007644 0.010409589 0)
(0.028829915 0.010957557 0)
(0.027565657 0.011421751 0)
(0.02622899 0.011809173 0)
(0.02483247 0.012127439 0)
(0.02338588 0.012383377 0)
(0.021898477 0.012584247 0)
(0.020379674 0.012737805 0)
(0.018836338 0.012850995 0)
(0.017273365 0.012932605 0)
(0.015697217 0.01298674 0)
(0.014109065 0.013019604 0)
(0.012562038 0.013038119 0)
(0.010536061 0.013049819 0)
(0.010448488 0.013037893 0)
(0.0062093186 0.013040562 0)
(-0.0062041979 0.014783144 0)
(-0.010435584 0.014780402 0)
(-0.010531557 0.01479028 0)
(-0.012574273 0.014775202 0)
(-0.014138105 0.014753458 0)
(-0.015751371 0.014713297 0)
(-0.017356294 0.014649762 0)
(-0.018955778 0.014556333 0)
(-0.020545613 0.014424206 0)
(-0.02211852 0.014244754 0)
(-0.023667837 0.014011829 0)
(-0.025185639 0.013714838 0)
(-0.026662037 0.013344931 0)
(-0.028086575 0.012893608 0)
(-0.029447082 0.012353158 0)
(-0.030729083 0.01171528 0)
(-0.031918175 0.010973088 0)
(-0.032999387 0.010123479 0)
(-0.033955835 0.0091620682 0)
(-0.034770205 0.0080885258 0)
(-0.035426392 0.0069067743 0)
(-0.035909339 0.0056215274 0)
(-0.036205166 0.0042420475 0)
(-0.036302245 0.0027812796 0)
(-0.036191404 0.0012560117 0)
(-0.035866841 -0.00031441128 0)
(-0.035326578 -0.0019066379 0)
(-0.034571259 -0.0034807801 0)
(-0.033603178 -0.0050285483 0)
(-0.032437211 -0.0065248989 0)
(-0.031096116 -0.0079506756 0)
(-0.029597156 -0.009297911 0)
(-0.027966846 -0.010563279 0)
(-0.026241678 -0.011735614 0)
(-0.024455434 -0.012816358 0)
(-0.022640655 -0.013808146 0)
(-0.020826867 -0.014715905 0)
(-0.019037858 -0.015544743 0)
(-0.017289927 -0.016301081 0)
(-0.015592156 -0.01699083 0)
(-0.013947588 -0.017620185 0)
(-0.012354665 -0.018193471 0)
(-0.010808483 -0.018712586 0)
(-0.0093014329 -0.019179676 0)
(-0.0078248411 -0.019593717 0)
(-0.006369824 -0.019952242 0)
(-0.0049278402 -0.02025164 0)
(-0.0034918433 -0.020487164 0)
(-0.0020572025 -0.020653954 0)
(-0.00061912943 -0.020744676 0)
(0.00081684632 -0.020720583 0)
(0.0022426168 -0.020583338 0)
(0.003653247 -0.020372569 0)
(0.0050544463 -0.020097483 0)
(0.0064519958 -0.019764565 0)
(0.0078545209 -0.019380302 0)
(0.0092724567 -0.01894919 0)
(0.010718084 -0.018474709 0)
(0.012203041 -0.017958037 0)
(0.013736285 -0.017396236 0)
(0.01532536 -0.016785759 0)
(0.016974372 -0.016121298 0)
(0.01868224 -0.015395843 0)
(0.020441126 -0.014600716 0)
(0.022234335 -0.013727016 0)
(0.024036972 -0.012768067 0)
(0.025819211 -0.011717915 0)
(0.027548381 -0.010573201 0)
(0.029189036 -0.0093320987 0)
(0.030703866 -0.0080057868 0)
(0.032064769 -0.0065969008 0)
(0.033251894 -0.0051129561 0)
(0.034241948 -0.0035731455 0)
(0.035021284 -0.0020047601 0)
(0.035586592 -0.00041557326 0)
(0.035935438 0.0011541101 0)
(0.036069044 0.0026808181 0)
(0.035993611 0.0041444045 0)
(0.035718563 0.0055275686 0)
(0.035254987 0.0068170347 0)
(0.034616806 0.0080035573 0)
(0.033819135 0.009082052 0)
(0.032878031 0.010048261 0)
(0.031810839 0.010902531 0)
(0.030634383 0.011648982 0)
(0.029363585 0.01229102 0)
(0.028013255 0.012835294 0)
(0.026598233 0.013289879 0)
(0.025130895 0.013662418 0)
(0.023621299 0.013961668 0)
(0.022079349 0.014196287 0)
(0.020513361 0.014376092 0)
(0.018931941 0.014508491 0)
(0.017338267 0.014602048 0)
(0.015735513 0.014665329 0)
(0.014128872 0.014703923 0)
(0.012571212 0.014723967 0)
(0.010530276 0.014735571 0)
(0.010437982 0.014723638 0)
(0.0062073939 0.01471959 0)
(-0.0061985414 0.016372524 0)
(-0.010422038 0.016381272 0)
(-0.010526746 0.016394708 0)
(-0.012584778 0.016384512 0)
(-0.014160654 0.0163656 0)
(-0.015794592 0.016327596 0)
(-0.017427372 0.016263157 0)
(-0.019062894 0.01616381 0)
(-0.020697767 0.016020877 0)
(-0.022322936 0.015825627 0)
(-0.023933903 0.015568695 0)
(-0.025524017 0.015238757 0)
(-0.027081865 0.014825777 0)
(-0.02859688 0.014319418 0)
(-0.030056166 0.013710163 0)
(-0.031444718 0.01298903 0)
(-0.032746084 0.012147817 0)
(-0.033944044 0.011181299 0)
(-0.035019256 0.010085864 0)
(-0.035949893 0.0088608363 0)
(-0.036718053 0.0075093963 0)
(-0.037305546 0.0060380606 0)
(-0.037693683 0.0044578871 0)
(-0.037866996 0.0027845357 0)
(-0.037812538 0.0010380582 0)
(-0.037520916 -0.00075727063 0)
(-0.036987298 -0.002573462 0)
(-0.036210769 -0.0043807789 0)
(-0.035198514 -0.006147915 0)
(-0.03396104 -0.0078502213 0)
(-0.032525942 -0.0094591931 0)
(-0.030923738 -0.010953567 0)
(-0.029184728 -0.012326373 0)
(-0.027348218 -0.013575619 0)
(-0.025450148 -0.014697062 0)
(-0.023528239 -0.01569565 0)
(-0.02161529 -0.016580673 0)
(-0.019737634 -0.017365767 0)
(-0.017911634 -0.018065455 0)
(-0.016145433 -0.018692257 0)
(-0.014441358 -0.019258338 0)
(-0.012795684 -0.019772846 0)
(-0.011201182 -0.020241666 0)
(-0.0096479745 -0.020667768 0)
(-0.0081248979 -0.021051563 0)
(-0.0066209652 -0.021390759 0)
(-0.0051259693 -0.021680862 0)
(-0.0036315491 -0.021914647 0)
(-0.0021327998 -0.022084133 0)
(-0.00062588799 -0.022178625 0)
(0.00088037895 -0.022148675 0)
(0.0023729278 -0.021994759 0)
(0.0038433563 -0.021768813 0)
(0.0052967181 -0.021484218 0)
(0.0067391534 -0.02115097 0)
(0.0081810118 -0.020778147 0)
(0.0096350118 -0.020372069 0)
(0.011115632 -0.019936209 0)
(0.012637631 -0.019470565 0)
(0.014213969 -0.018971729 0)
(0.015854744 -0.018431932 0)
(0.017565399 -0.017839684 0)
(0.019346545 -0.017180536 0)
(0.021191816 -0.016439393 0)
(0.023084217 -0.015599328 0)
(0.024996061 -0.014644019 0)
(0.026893577 -0.013562091 0)
(0.028738082 -0.012347539 0)
(0.030491458 -0.01100415 0)
(0.032113338 -0.0095343733 0)
(0.033572443 -0.0079457156 0)
(0.034835817 -0.006257665 0)
(0.035873977 -0.0044997186 0)
(0.036677751 -0.0026979343 0)
(0.03723939 -0.00088435505 0)
(0.037557735 0.00091118812 0)
(0.037636609 0.0026600818 0)
(0.03748589 0.0043376103 0)
(0.037119349 0.0059227817 0)
(0.036551986 0.0073998339 0)
(0.035802063 0.0087575763 0)
(0.034887871 0.009988918 0)
(0.033827843 0.011090554 0)
(0.032643727 0.012063267 0)
(0.031354632 0.01291039 0)
(0.02997691 0.013637214 0)
(0.028527478 0.014251516 0)
(0.027021369 0.014762257 0)
(0.025471786 0.015178405 0)
(0.023889644 0.015510867 0)
(0.022285137 0.015769954 0)
(0.020666254 0.015966437 0)
(0.019038877 0.01611003 0)
(0.01740901 0.016208426 0)
(0.015779872 0.016273763 0)
(0.014150877 0.016312475 0)
(0.01257933 0.016328958 0)
(0.010524081 0.016337034 0)
(0.010423308 0.016320723 0)
(0.0062006909 0.016309006 0)
(-0.006187359 0.017966066 0)
(-0.010400264 0.017986251 0)
(-0.010513582 0.01800777 0)
(-0.012586618 0.01800773 0)
(-0.014176298 0.01799877 0)
(-0.015832886 0.017969252 0)
(-0.017496858 0.017911116 0)
(-0.019172482 0.017815031 0)
(-0.020855829 0.017672592 0)
(-0.022540326 0.017472982 0)
(-0.024222072 0.01720308 0)
(-0.025893546 0.016851399 0)
(-0.027543959 0.016405516 0)
(-0.029162337 0.015855 0)
(-0.030735013 0.015186587 0)
(-0.032246231 0.014390107 0)
(-0.033677911 0.013455719 0)
(-0.035010567 0.012375924 0)
(-0.036222561 0.011147231 0)
(-0.03728986 0.0097678862 0)
(-0.038189572 0.0082395463 0)
(-0.038898744 0.0065705585 0)
(-0.039394432 0.0047734731 0)
(-0.03965615 0.002866445 0)
(-0.039666165 0.00087309417 0)
(-0.039410656 -0.0011777043 0)
(-0.038881378 -0.0032534973 0)
(-0.038075608 -0.0053175024 0)
(-0.037002489 -0.0073297819 0)
(-0.035678457 -0.0092563058 0)
(-0.034127272 -0.011061328 0)
(-0.032384327 -0.012716054 0)
(-0.03049626 -0.014212725 0)
(-0.02850629 -0.015541953 0)
(-0.026456858 -0.016697946 0)
(-0.024393547 -0.017691569 0)
(-0.02235509 -0.018540365 0)
(-0.020370674 -0.019266222 0)
(-0.018456058 -0.019892377 0)
(-0.016618405 -0.02044174 0)
(-0.014857589 -0.020932907 0)
(-0.013165992 -0.021379893 0)
(-0.011532542 -0.021791798 0)
(-0.0099440636 -0.022173706 0)
(-0.0083864615 -0.022527558 0)
(-0.0068456089 -0.022851157 0)
(-0.0053075552 -0.023138678 0)
(-0.0037611792 -0.023378798 0)
(-0.0022015962 -0.023558879 0)
(-0.00062668862 -0.023663012 0)
(0.00095103682 -0.02362597 0)
(0.0025105356 -0.023447569 0)
(0.0040368944 -0.023196657 0)
(0.0055344046 -0.022892564 0)
(0.0070103108 -0.022550639 0)
(0.0084774568 -0.022184033 0)
(0.0099520195 -0.02180136 0)
(0.011453232 -0.02140683 0)
(0.012999765 -0.020999481 0)
(0.014608444 -0.020573429 0)
(0.016294707 -0.020117288 0)
(0.018068957 -0.019614003 0)
(0.019933446 -0.019040741 0)
(0.021882663 -0.018371949 0)
(0.023900692 -0.017580865 0)
(0.025956763 -0.016642088 0)
(0.028010497 -0.015535992 0)
(0.03001431 -0.014250262 0)
(0.031922463 -0.012788845 0)
(0.033690026 -0.011162049 0)
(0.035271419 -0.0093799578 0)
(0.036627926 -0.0074694304 0)
(0.037731668 -0.0054666662 0)
(0.038567962 -0.0034071083 0)
(0.039128312 -0.0013329616 0)
(0.039413437 0.00071951336 0)
(0.03942997 0.0027168805 0)
(0.039192298 0.0046300343 0)
(0.038718884 0.0064342283 0)
(0.038030358 0.0081108099 0)
(0.037149056 0.0096470368 0)
(0.036098103 0.011034338 0)
(0.034901115 0.012270907 0)
(0.033582123 0.013358354 0)
(0.032162419 0.014299932 0)
(0.030661662 0.015103105 0)
(0.029098034 0.015777628 0)
(0.027487641 0.016333416 0)
(0.025844773 0.016783131 0)
(0.024180777 0.017137994 0)
(0.022505344 0.017410606 0)
(0.020826336 0.017612781 0)
(0.01914909 0.017756571 0)
(0.017479199 0.017852785 0)
(0.015819254 0.017911327 0)
(0.014166094 0.017940997 0)
(0.012580112 0.01794843 0)
(0.010509232 0.017946956 0)
(0.010399566 0.017922049 0)
(0.0061893317 0.017898637 0)
(-0.0061685415 0.019563969 0)
(-0.010365509 0.019600299 0)
(-0.010488411 0.019634987 0)
(-0.012574817 0.019649824 0)
(-0.014178259 0.019657815 0)
(-0.015859234 0.019644155 0)
(-0.017556335 0.01960115 0)
(-0.019273878 0.019518979 0)
(-0.021009809 0.019387509 0)
(-0.02276 0.01919325 0)
(-0.024520385 0.018922299 0)
(-0.026283829 0.018561545 0)
(-0.028037905 0.018095681 0)
(-0.029772885 0.017511489 0)
(-0.031475305 0.016794315 0)
(-0.03312692 0.01593125 0)
(-0.034708648 0.014910482 0)
(-0.036197734 0.013721934 0)
(-0.037569099 0.012359951 0)
(-0.038796017 0.010822244 0)
(-0.039850536 0.0091092447 0)
(-0.040703671 0.0072296688 0)
(-0.041327037 0.0051975691 0)
(-0.041694206 0.003032829 0)
(-0.041781584 0.0007633582 0)
(-0.041570762 -0.0015763596 0)
(-0.04104803 -0.0039474395 0)
(-0.040205451 -0.0063094477 0)
(-0.039054682 -0.0086046745 0)
(-0.03761007 -0.010792879 0)
(-0.035901788 -0.012817623 0)
(-0.033983228 -0.014660631 0)
(-0.03190422 -0.016289722 0)
(-0.029711113 -0.017692047 0)
(-0.027463809 -0.018872003 0)
(-0.025220962 -0.019843594 0)
(-0.023027419 -0.020633489 0)
(-0.020915403 -0.021275051 0)
(-0.018902578 -0.02180429 0)
(-0.016993334 -0.022255674 0)
(-0.015181392 -0.022655644 0)
(-0.013453645 -0.023022776 0)
(-0.011793928 -0.023369158 0)
(-0.010185209 -0.023702616 0)
(-0.0086090592 -0.024027262 0)
(-0.0070465637 -0.024340193 0)
(-0.0054778192 -0.024635077 0)
(-0.0038867148 -0.0248935 0)
(-0.0022681856 -0.025094843 0)
(-0.00062206819 -0.025215807 0)
(0.0010327804 -0.025170085 0)
(0.0026622204 -0.024957003 0)
(0.0042423804 -0.024667243 0)
(0.005775643 -0.024328385 0)
(0.0072705672 -0.023965055 0)
(0.0087451853 -0.023597794 0)
(0.010221215 -0.02323642 0)
(0.011723239 -0.022886637 0)
(0.013276202 -0.022546777 0)
(0.014903561 -0.022208147 0)
(0.016626561 -0.021855183 0)
(0.018461828 -0.021465072 0)
(0.020417973 -0.021005577 0)
(0.022491969 -0.020437393 0)
(0.024666397 -0.019720208 0)
(0.026906281 -0.018816823 0)
(0.029163851 -0.01769823 0)
(0.031379281 -0.016348743 0)
(0.033488007 -0.014762463 0)
(0.035438328 -0.012952039 0)
(0.037182496 -0.010950207 0)
(0.038666551 -0.0087786052 0)
(0.03985478 -0.0064927618 0)
(0.04073243 -0.004137392 0)
(0.041289555 -0.0017629334 0)
(0.041533094 0.00058121154 0)
(0.041474649 0.0028572327 0)
(0.041132877 0.0050302406 0)
(0.040532469 0.0070716347 0)
(0.039700286 0.008961165 0)
(0.038664281 0.01068412 0)
(0.037453611 0.012231669 0)
(0.03609673 0.013603256 0)
(0.034620809 0.014800837 0)
(0.033050536 0.015829854 0)
(0.031408769 0.01670037 0)
(0.029715091 0.017424239 0)
(0.027987109 0.018014707 0)
(0.026239599 0.018485802 0)
(0.024483402 0.018850921 0)
(0.022728967 0.019125505 0)
(0.020983746 0.019322547 0)
(0.019252844 0.019456015 0)
(0.017539677 0.019538918 0)
(0.015846133 0.019581933 0)
(0.014168357 0.019595448 0)
(0.012567926 0.019586883 0)
(0.010483181 0.019570784 0)
(0.010363177 0.019534427 0)
(0.0061691345 0.019493913 0)
(-0.0061392387 0.021157844 0)
(-0.010312727 0.021215317 0)
(-0.010445373 0.021267088 0)
(-0.012542727 0.021302941 0)
(-0.014159061 0.021334121 0)
(-0.015864521 0.021346725 0)
(-0.017594666 0.021330107 0)
(-0.019356422 0.021273608 0)
(-0.02114944 0.021164351 0)
(-0.022970836 0.020988017 0)
(-0.024816303 0.020729763 0)
(-0.026679962 0.020373819 0)
(-0.028550863 0.019903023 0)
(-0.030417631 0.019298841 0)
(-0.032266155 0.018545786 0)
(-0.034077765 0.017627408 0)
(-0.035831552 0.016529204 0)
(-0.037501798 0.015238639 0)
(-0.039059085 0.013746347 0)
(-0.040473495 0.012047675 0)
(-0.04171118 0.010142755 0)
(-0.042735739 0.0080389536 0)
(-0.043513049 0.0057507977 0)
(-0.044008864 0.0033008492 0)
(-0.044191082 0.00072111994 0)
(-0.044034692 -0.0019474055 0)
(-0.043524181 -0.0046549248 0)
(-0.042638688 -0.0073501235 0)
(-0.04138922 -0.0099815559 0)
(-0.039793893 -0.012472157 0)
(-0.037895937 -0.014771325 0)
(-0.03574929 -0.016822348 0)
(-0.033405359 -0.018594405 0)
(-0.030948362 -0.020074602 0)
(-0.028452432 -0.0212656 0)
(-0.025983194 -0.022189457 0)
(-0.023599444 -0.022885152 0)
(-0.021340109 -0.023404815 0)
(-0.019222712 -0.023802781 0)
(-0.017245487 -0.024127368 0)
(-0.015392728 -0.024414201 0)
(-0.013642741 -0.024685535 0)
(-0.011973886 -0.024955051 0)
(-0.010365158 -0.02523296 0)
(-0.0087917581 -0.025528372 0)
(-0.0072289469 -0.025836559 0)
(-0.0056465848 -0.026156157 0)
(-0.0040179242 -0.026453208 0)
(-0.0023389604 -0.026692364 0)
(-0.00061368326 -0.026842236 0)
(0.0011302275 -0.026787088 0)
(0.0028384391 -0.026523588 0)
(0.0044733592 -0.026173257 0)
(0.0060330852 -0.025775986 0)
(0.0075271266 -0.0253708 0)
(0.008984409 -0.024992122 0)
(0.010436217 -0.024649896 0)
(0.011913748 -0.024351643 0)
(0.01345002 -0.024091282 0)
(0.015075514 -0.023858406 0)
(0.016819899 -0.023635403 0)
(0.018709952 -0.023393132 0)
(0.020764223 -0.023087548 0)
(0.022984707 -0.022662964 0)
(0.02535233 -0.022059026 0)
(0.027824766 -0.021219199 0)
(0.030339632 -0.020101476 0)
(0.032828599 -0.018682587 0)
(0.03521279 -0.01695986 0)
(0.037403986 -0.014945785 0)
(0.039348358 -0.012670843 0)
(0.040989867 -0.010196079 0)
(0.042279684 -0.0075732339 0)
(0.043208069 -0.0048759945 0)
(0.043760772 -0.0021664659 0)
(0.043950215 0.00050828624 0)
(0.04379848 0.0030971732 0)
(0.043329154 0.0055579579 0)
(0.042575544 0.0078579886 0)
(0.041572261 0.0099742748 0)
(0.040352923 0.011891806 0)
(0.038954513 0.013602427 0)
(0.037411279 0.01510622 0)
(0.035753101 0.016407426 0)
(0.034009943 0.017515044 0)
(0.032207422 0.018442031 0)
(0.03036699 0.019202731 0)
(0.028507003 0.019813682 0)
(0.026642005 0.020291018 0)
(0.024784597 0.020652415 0)
(0.022944228 0.020914834 0)
(0.021126819 0.021094373 0)
(0.019337892 0.021206109 0)
(0.017579695 0.021263934 0)
(0.015852369 0.02128116 0)
(0.014149783 0.021268994 0)
(0.012536268 0.021237255 0)
(0.010440529 0.021200302 0)
(0.01030955 0.021147427 0)
(0.0061382603 0.02108614 0)
(-0.0060965264 0.022744731 0)
(-0.010238449 0.022828024 0)
(-0.010379957 0.02290145 0)
(-0.012484658 0.022965966 0)
(-0.014109749 0.023028777 0)
(-0.015836496 0.023077045 0)
(-0.017600178 0.023098008 0)
(-0.019407958 0.023079431 0)
(-0.021261148 0.023006815 0)
(-0.023157643 0.022864806 0)
(-0.02509488 0.022635478 0)
(-0.027067821 0.022299929 0)
(-0.029067073 0.021840035 0)
(-0.031080992 0.021233434 0)
(-0.033094195 0.020460585 0)
(-0.035087417 0.019501481 0)
(-0.037037488 0.018338049 0)
(-0.038916514 0.016954374 0)
(-0.040691607 0.015336087 0)
(-0.042326703 0.013475438 0)
(-0.043781713 0.011372134 0)
(-0.045013494 0.0090293994 0)
(-0.045978637 0.0064620176 0)
(-0.046633261 0.0036951061 0)
(-0.046935488 0.00076432964 0)
(-0.046848665 -0.0022833158 0)
(-0.046347454 -0.0053890351 0)
(-0.045423413 -0.0084836871 0)
(-0.044063753 -0.011505239 0)
(-0.042284715 -0.014359224 0)
(-0.040135142 -0.016969019 0)
(-0.037683046 -0.019265801 0)
(-0.035016459 -0.02120363 0)
(-0.032221158 -0.022758734 0)
(-0.029398817 -0.023940623 0)
(-0.026642053 -0.024776078 0)
(-0.024026071 -0.025326417 0)
(-0.021599123 -0.025669442 0)
(-0.019375768 -0.025886323 0)
(-0.017342074 -0.026045345 0)
(-0.015466307 -0.026192068 0)
(-0.013713812 -0.026349305 0)
(-0.012056793 -0.026526785 0)
(-0.010474019 -0.026736552 0)
(-0.008932082 -0.027003694 0)
(-0.0074011665 -0.027309437 0)
(-0.0058311544 -0.027687449 0)
(-0.0041705616 -0.028058787 0)
(-0.0024248539 -0.028360082 0)
(-0.00060579049 -0.028561617 0)
(0.001249728 -0.028497574 0)
(0.003054538 -0.028159877 0)
(0.0047494128 -0.0277156 0)
(0.0063263424 -0.027221253 0)
(0.0077925351 -0.026739239 0)
(0.0091964932 -0.026338437 0)
(0.01058779 -0.026008899 0)
(0.012007415 -0.025772233 0)
(0.013498303 -0.025607462 0)
(0.015094829 -0.025503148 0)
(0.016836642 -0.02544272 0)
(0.018766622 -0.02539381 0)
(0.020919645 -0.025299478 0)
(0.023308607 -0.025080554 0)
(0.025915771 -0.024646724 0)
(0.0286871 -0.023914644 0)
(0.031541588 -0.022820142 0)
(0.034382716 -0.021335258 0)
(0.037103444 -0.019450599 0)
(0.039612434 -0.017192403 0)
(0.041819093 -0.014608238 0)
(0.04365342 -0.011768389 0)
(0.04506817 -0.008751988 0)
(0.046037283 -0.0056511418 0)
(0.04657647 -0.0025407411 0)
(0.046703177 0.00051692063 0)
(0.04643463 0.0034607254 0)
(0.045807892 0.0062422079 0)
(0.044867039 0.0088249033 0)
(0.043656731 0.011182913 0)
(0.042219865 0.013301489 0)
(0.040600027 0.015176577 0)
(0.038838244 0.016808342 0)
(0.036970244 0.018204438 0)
(0.035029616 0.019379291 0)
(0.033044763 0.02034841 0)
(0.031038669 0.021130146 0)
(0.029030685 0.02174406 0)
(0.027036873 0.022210943 0)
(0.025069033 0.022552479 0)
(0.023135843 0.022786306 0)
(0.021242887 0.022932448 0)
(0.019392959 0.023008302 0)
(0.01758773 0.023028748 0)
(0.015826457 0.023009183 0)
(0.014101603 0.022961853 0)
(0.012478234 0.022898643 0)
(0.010375179 0.022833161 0)
(0.010234582 0.022758137 0)
(0.0060945513 0.022671738 0)
(-0.0060384565 0.024319853 0)