/*--------------------------------*- C++ -*----------------------------------*\
  =========                 |
  \\      /  F ield         | OpenFOAM: The Open Source CFD Toolbox
   \\    /   O peration     | Website:  https://openfoam.org
    \\  /    A nd           | Version:  9
     \\/     M anipulation  |
\*---------------------------------------------------------------------------*/
FoamFile
{
    format      ascii;
    class       volScalarField;
    location    "0.3";
    object      alpha.phase1;
}
// * * * * * * * * * * * * * * * * * * * * * * * * * * * * * * * * * * * * * //

dimensions      [0 0 0 0 0 0 0];

internalField   nonuniform List<scalar> 
10000
(
3.4299928e-98
3.4299928e-98
1.9071806e-97
2.1799843e-95
2.4753303e-93
2.5082048e-91
2.3464239e-89
2.1158723e-87
1.9030311e-85
1.845685e-83
2.4842166e-81
5.5398634e-79
6.4889767e-77
1.3091275e-75
8.0499963e-75
2.7936807e-74
6.2763852e-74
2.1417585e-73
2.3192237e-73
2.4449807e-73
2.5602406e-73
2.6414218e-73
2.6789696e-73
1.086929e-71
1.092017e-69
9.4708134e-68
1.0251999e-65
1.3665458e-63
2.7303181e-61
1.6023484e-58
6.3301451e-57
2.2660979e-56
2.8700996e-55
1.3405948e-54
1.6157743e-53
4.9411677e-52
1.5342481e-50
4.3519332e-49
1.1134446e-47
2.530895e-46
4.9974961e-45
8.4092155e-44
1.2022766e-42
1.4573309e-41
1.4400054e-40
1.1046596e-39
6.6305044e-39
3.1624072e-38
1.1328391e-37
2.8814425e-37
2.9245961e-37
1.1750232e-37
3.2165905e-38
6.4196296e-39
9.5344141e-40
9.9294845e-41
6.2699741e-42
2.0581162e-43
3.1272122e-45
2.0232916e-47
8.562297e-50
7.4496966e-53
4.7715878e-56
2.0589092e-57
7.4584812e-57
3.5896832e-56
5.3483269e-56
5.074459e-56
1.7029811e-56
1.3606455e-57
5.5179505e-59
1.0696271e-61
1.3245238e-63
1.4443796e-65
1.1173162e-67
8.6525719e-70
1.0639918e-71
4.2284087e-72
2.1693785e-72
1.1974662e-72
9.3361116e-73
6.8828178e-73
3.9930831e-73
1.2477567e-73
5.53525e-74
1.7310444e-74
4.2847481e-75
7.9827167e-76
3.3567902e-77
3.308813e-79
2.0943558e-81
1.0736061e-83
5.2067539e-86
2.7944138e-88
1.7318385e-90
1.1383113e-92
6.9708801e-95
3.8804042e-97
3.9394152e-98
3.9394152e-98
3.5558052e-98
1.3118168e-96
2.2518044e-95
2.4868158e-93
2.5147989e-91
2.354564e-89
2.1159627e-87
1.8917078e-85
1.8416149e-83
2.4919664e-81
5.5601241e-79
3.8342947e-77
2.9686627e-76
2.0469659e-75
9.7140369e-75
3.0556079e-74
6.7123237e-74
2.1913311e-73
1.034574e-72
2.9497956e-72
3.1261652e-72
1.0823777e-72
3.0187752e-73
1.1568987e-71
1.3832724e-69
1.4815582e-69
6.0293377e-69
2.5749186e-66
5.6800853e-63
2.3403425e-58
6.2373361e-57
2.9181477e-56
2.8638378e-53
2.4099941e-52
4.3345629e-51
1.2918712e-49
3.7142236e-48
9.7161923e-47
2.2827206e-45
4.7505231e-44
8.6006219e-43
1.3300309e-41
1.7341312e-40
1.8813576e-39
1.6213996e-38
1.0016793e-37
3.9725042e-37
1.0174005e-36
2.202699e-36
3.9912274e-36
4.0352223e-36
2.2611694e-36
1.0340451e-36
3.9146891e-37
9.166614e-38
1.1846127e-38
8.1793836e-40
3.0194301e-41
5.4097114e-43
4.7617393e-45
1.8130881e-47
1.9433672e-50
7.9116943e-54
1.099955e-54
8.3024583e-54
1.5798538e-53
1.6124476e-53
4.7862518e-54
1.0645077e-56
1.655537e-57
7.2933892e-59
5.817415e-61
4.3371182e-66
1.5059633e-68
1.230126e-69
9.1751714e-70
1.3450812e-70
3.6308664e-71
4.0862619e-72
2.323804e-72
8.307536e-72
4.61562e-72
8.8501701e-73
2.9830154e-73
1.2118396e-73
5.1453113e-74
1.6848166e-74
4.2920067e-75
8.0291564e-76
3.3791095e-77
3.3308353e-79
2.1080687e-81
1.0805294e-83
5.2405847e-86
2.8130609e-88
1.7434868e-90
1.1429735e-92
7.0849766e-95
1.8575896e-96
4.127364e-98
2.6625182e-95
1.177669e-93
9.3625756e-92
2.835316e-90
1.4133382e-88
1.3226549e-86
1.2013353e-84
1.0849085e-82
1.0704353e-80
1.4765357e-78
3.3674605e-76
2.3518695e-74
1.4555321e-73
4.7257118e-73
1.0945703e-72
2.1627563e-72
3.1644345e-72
5.3756348e-72
5.4779802e-70
1.4469358e-69
1.4450957e-69
1.7505695e-70
7.6798831e-71
6.338936e-70
2.676675e-68
6.4926654e-69
3.1914477e-66
1.1227926e-59
2.2094306e-57
1.1291823e-55
7.7274039e-55
9.7307475e-54
3.513222e-50
1.6163996e-49
1.0780384e-48
2.5085093e-47
6.8671424e-46
1.7211665e-44
3.8682328e-43
7.691892e-42
1.3305854e-40
1.9690666e-39
2.4623588e-38
2.5709254e-37
2.1518171e-36
1.3138989e-35
5.2528089e-35
1.3592238e-34
2.9021279e-34
5.3657229e-34
5.4274256e-34
2.973806e-34
1.3770866e-34
5.1626419e-35
1.1995108e-35
1.5756397e-36
1.1445409e-37
4.6331213e-39
9.5987611e-41
1.0185006e-42
4.8245299e-45
7.8080813e-48
6.2328904e-51
1.4490977e-51
8.8643751e-51
1.5020685e-50
1.4678581e-50
3.9866856e-51
9.5679883e-55
2.5319489e-55
2.00223e-56
7.9341145e-58
5.0143139e-60
3.7274154e-66
1.0114284e-68
4.6855152e-68
1.1996857e-67
2.368917e-68
2.2349851e-69
1.0539259e-69
4.2401081e-69
2.7834065e-69
3.6114534e-70
1.2023561e-70
4.3025905e-71
2.2477414e-71
8.2034034e-72
2.2065696e-72
4.5262493e-73
1.9036974e-74
1.8474885e-76
1.152887e-78
5.8377485e-81
2.8017046e-83
1.4908383e-85
9.1546888e-88
6.1627119e-90
1.6186441e-91
1.6715389e-93
2.9304761e-95
8.8431347e-93
5.3689583e-91
5.2522303e-89
3.8948538e-87
1.5990366e-85
5.3524101e-84
4.8539033e-82
4.4495742e-80
4.4552145e-78
6.2560963e-76
1.4572606e-73
1.0416069e-71
6.6135897e-71
2.2094358e-70
5.2863339e-70
4.1149451e-69
1.7169279e-69
3.5945159e-69
2.3297563e-67
5.193588e-67
4.8926104e-67
2.1665231e-68
4.9702001e-68
7.9533464e-67
3.3659857e-65
1.1597867e-65
1.4310592e-59
2.0531018e-56
2.0160229e-54
6.4127671e-53
4.8477735e-52
9.497026e-51
3.6510401e-47
1.2035459e-46
3.0720229e-46
3.8746907e-45
9.8152523e-44
2.3487096e-42
5.0360136e-41
9.5506163e-40
1.5761399e-38
2.226231e-37
2.661618e-36
2.6674269e-35
2.1624175e-34
1.2989058e-33
5.1962747e-33
1.3500351e-32
2.8437565e-32
5.3288841e-32
5.3923617e-32
2.909167e-32
1.3633302e-32
5.0904451e-33
1.181415e-33
1.5838271e-34
1.2128745e-35
5.3868893e-37
1.289511e-38
1.6347935e-40
9.1643938e-43
2.4305298e-45
4.1592372e-48
1.7704361e-48
7.7588659e-48
1.1159129e-47
9.6237546e-48
2.0681728e-48
8.1636618e-52
1.6561089e-52
1.1902442e-53
5.3772083e-55
4.7883355e-57
2.6507306e-59
4.5506844e-65
3.3347058e-65
7.2977515e-65
1.2791219e-65
1.7678681e-66
7.0684426e-67
1.4834287e-66
1.2689512e-66
1.6898954e-67
5.9741923e-68
2.0205176e-68
1.0104854e-68
3.5531597e-69
9.25834e-70
1.8513245e-70
7.6130758e-72
7.2475145e-74
4.4509453e-76
2.2245198e-78
1.0554644e-80
5.557005e-83
3.5479262e-85
8.1233024e-87
9.2742166e-89
7.4906416e-91
9.4264484e-93
2.26748e-90
1.6494905e-88
1.7987805e-86
1.5704963e-84
1.1018419e-82
4.827904e-81
1.53594e-79
1.4068505e-77
1.4334949e-75
2.0511306e-73
4.8830602e-71
3.5771495e-69
2.3344932e-68
8.0576357e-68
2.0143976e-67
1.9378073e-66
7.2176296e-67
3.4835361e-66
7.7137608e-65
1.5324122e-64
1.331141e-64
6.3011747e-66
2.7299679e-65
3.3529266e-64
1.4345689e-62
7.3064136e-60
2.7034638e-56
1.6251034e-53
1.1076249e-51
2.6165415e-50
2.3170931e-49
7.2159082e-48
1.6773973e-44
6.200145e-44
1.0819722e-43
5.4033111e-43
1.1314255e-41
2.5654643e-40
5.2281931e-39
9.4208502e-38
1.4780859e-36
1.9870863e-35
2.2652264e-34
2.1724456e-33
1.7012787e-32
1.0029346e-31
4.0010084e-31
1.0390417e-30
2.1541689e-30
4.0602299e-30
4.1103593e-30
2.2001797e-30
1.0455497e-30
3.9034988e-31
9.0742562e-32
1.2426574e-32
1.0029941e-33
4.8927865e-35
1.3467396e-36
2.0136302e-38
1.435356e-40
5.2554558e-43
2.4433226e-45
1.7509344e-45
5.5843527e-45
6.9725302e-45
4.4902143e-45
6.0659194e-46
5.7136508e-49
8.4319194e-50
4.9799148e-51
2.3446638e-52
2.2303024e-54
1.5935455e-56
6.5224917e-59
2.0920211e-61
3.5641303e-62
5.971823e-63
1.1377711e-63
3.8840841e-64
3.932095e-64
4.5609211e-64
6.1075643e-65
2.3162583e-65
7.3807922e-66
3.5243118e-66
1.1912653e-66
3.002226e-67
5.8449973e-68
2.3482193e-69
2.1916052e-71
1.3244331e-73
6.5223693e-76
3.061542e-78
1.6231764e-80
2.6803409e-82
3.3828466e-84
3.2379777e-86
2.2389208e-88
2.3377047e-90
4.7211533e-88
3.8722423e-86
4.6392353e-84
4.2887075e-82
3.4586473e-80
2.2733759e-78
9.8380923e-77
3.6499686e-75
3.7519412e-73
5.471484e-71
1.2233594e-68
1.0002224e-66
6.7130306e-66
2.3943425e-65
9.272236e-65
6.2772842e-64
2.4591054e-64
1.1626019e-63
2.1143757e-62
3.8939302e-62
2.9369075e-62
2.5453126e-63
1.4082592e-62
8.4746175e-62
8.4403008e-60
3.1814725e-56
2.0472677e-53
4.9476804e-51
1.4057633e-49
1.0537683e-47
9.2190234e-47
4.3096932e-45
2.7417415e-42
2.107991e-41
4.1286228e-41
9.1417012e-41
1.1073743e-39
2.3155934e-38
4.4619154e-37
7.6084875e-36
1.1305884e-34
1.4409516e-33
1.5596956e-32
1.4258092e-31
1.0744891e-30
6.196428e-30
2.459146e-29
6.370811e-29
1.2986401e-28
2.4509109e-28
2.482401e-28
1.3241996e-28
6.3861844e-29
2.3882873e-29
5.5687794e-30
7.7975204e-31
6.6406709e-32
3.5639628e-33
1.1259583e-34
1.9624004e-36
1.7694276e-38
8.6150078e-41
1.0234522e-42
1.2874403e-42
3.2666834e-42
3.6557092e-42
1.6888616e-42
1.4283443e-43
3.2575964e-46
3.376321e-47
1.3667749e-48
7.3097568e-50
7.1066614e-52
5.3255847e-54
7.1838425e-56
2.8386817e-58
1.5851923e-59
2.5232623e-60
6.1167452e-61
1.7764591e-61
7.6411735e-62
1.3467472e-61
1.8665502e-62
7.3176805e-63
2.193912e-63
9.9937202e-64
3.2442857e-64
7.9038923e-65
1.4978028e-65
5.8783895e-67
5.3827503e-69
3.0871881e-71
1.4073314e-73
6.9523539e-76
6.2203934e-78
8.9125896e-80
9.5390312e-82
8.1506297e-84
5.1029322e-86
4.6999821e-88
8.2541593e-86
7.3956382e-84
9.4005603e-82
9.3990717e-80
7.8433202e-78
5.859256e-76
3.6061527e-74
1.3402803e-72
8.2541596e-71
1.2276998e-68
2.3609462e-66
2.3511627e-64
1.6228962e-63
5.9859231e-63
3.7814952e-62
1.6258255e-61
7.0482502e-62
3.0666798e-61
5.0293248e-60
8.7538879e-60
5.0949003e-60
1.0933403e-60
6.0224124e-60
3.0336339e-59
3.6501693e-57
9.952408e-54
2.0873512e-51
2.3686466e-49
2.9384479e-48
1.0674298e-45
2.3951972e-44
2.1674957e-42
1.1077442e-40
6.6327996e-39
1.6223658e-38
2.2410785e-38
1.0130092e-37
1.7675303e-36
3.196092e-35
5.1315536e-34
7.1891111e-33
8.6534172e-32
8.8560299e-31
7.6805462e-30
5.5443008e-29
3.1163184e-28
1.2274545e-27
3.1682541e-27
6.3452877e-27
1.1946367e-26
1.2106983e-26
6.4589379e-27
3.1626285e-27
1.1856234e-27
2.774824e-28
3.9769403e-29
3.5812998e-30
2.1180096e-31
7.6313615e-33
1.5268626e-34
1.6796542e-36
1.1187099e-38
3.7013014e-40
7.9630417e-40
1.5393538e-39
1.5626981e-39
5.3349877e-40
3.2546694e-41
1.4925759e-43
1.0627712e-44
1.5084384e-46
2.4755265e-47
1.6689733e-49
1.9503313e-51
2.875035e-53
4.9436895e-56
7.0237131e-57
9.3306322e-58
2.7920923e-58
6.9331027e-59
1.5960913e-59
3.3824738e-59
4.9206019e-60
1.9391434e-60
5.4678587e-61
2.3754597e-61
7.4067969e-62
1.7446179e-62
3.2188595e-63
1.2346038e-64
1.1001904e-66
5.3174054e-69
2.4073678e-71
1.2732053e-73
1.8656148e-75
2.1395903e-77
2.0866855e-79
1.6082099e-81
9.4427627e-84
7.9206e-86
1.2410319e-83
1.1925109e-81
1.5814873e-79
1.6829327e-77
1.4907468e-75
1.1490795e-73
7.9767828e-72
4.4637906e-70
1.5913775e-68
2.370653e-66
3.9878639e-64
4.7516386e-62
3.3718928e-61
1.2826787e-60
1.0213003e-59
3.566036e-59
1.7383194e-59
7.023588e-59
1.0739132e-57
1.7787534e-57
5.5016272e-58
4.3641013e-58
2.1641344e-57
1.4357603e-56
8.1447265e-55
5.2081418e-52
3.6667895e-50
1.4558939e-48
9.0857604e-46
9.6811288e-45
5.3789287e-42
1.2271591e-39
7.9571969e-39
1.8322114e-36
6.3465232e-36
7.1749951e-36
1.1614466e-35
1.1740325e-34
1.9481624e-33
2.9296752e-32
3.8505862e-31
4.3548378e-30
4.1935057e-29
3.4328872e-28
2.3612751e-27
1.2884596e-26
5.0266312e-26
1.291611e-25
2.5395102e-25
4.7513862e-25
4.8183428e-25
2.5797064e-25
1.2830562e-25
4.821691e-26
1.1330007e-26
1.6650272e-27
1.5893184e-28
1.032887e-29
4.1907285e-31
9.5453644e-33
1.2814664e-34
1.2545985e-36
1.4530474e-37
3.9827996e-37
5.9587102e-37
5.1884713e-37
1.2214199e-37
6.5108334e-39
5.4620895e-41
2.8815715e-42
2.2716325e-44
1.8264969e-44
5.490346e-47
7.7716642e-49
1.350089e-51
6.4170406e-54
2.556323e-54
3.0691524e-55
1.0962726e-55
2.328894e-56
3.4920007e-57
7.3242917e-57
1.1386722e-57
4.3973088e-58
1.1666019e-58
4.8353784e-59
1.4490389e-59
3.3018735e-60
5.9353586e-61
2.2253022e-62
1.7145678e-64
8.014225e-67
3.5887669e-69
3.3425364e-71
4.0130069e-73
4.1399984e-75
3.6487128e-77
2.6291297e-79
1.4723197e-81
1.1458437e-83
1.6334048e-81
1.663911e-79
2.28102e-77
2.5398207e-75
2.4038097e-73
1.9451081e-71
1.4265628e-69
9.1528755e-68
4.0612552e-66
3.7800996e-64
5.9724181e-62
8.3932322e-60
6.1189486e-59
2.4206542e-58
2.2155485e-57
6.8282455e-57
3.745219e-57
1.4747712e-56
2.0886308e-55
3.2996072e-55
4.1210476e-56
1.5372015e-55
7.5128887e-55
4.9836778e-54
1.2558501e-52
8.4017414e-51
9.7582885e-49
2.1852967e-46
2.9959405e-44
1.2157762e-42
1.1369695e-39
4.0328609e-37
2.2355732e-36
2.6748941e-34
1.8091641e-33
2.2365028e-33
2.2855527e-33
7.5903801e-33
1.0235993e-31
1.4295506e-30
1.7539104e-29
1.8547722e-28
1.6714288e-27
1.2830931e-26
8.3519352e-26
4.3993796e-25
1.6949193e-24
4.3268995e-24
8.3266906e-24
1.5426211e-23
1.5654336e-23
8.4363354e-24
4.2726393e-24
1.6114459e-24
3.8056821e-25
5.7508207e-26
5.8436569e-27
4.1719687e-28
1.8919641e-29
4.8982318e-31
8.1562284e-33
1.4307979e-34
6.2221159e-35
1.5477708e-34
1.8729226e-34
1.0520177e-34
1.2634816e-35
6.8158502e-37
1.6652081e-38
6.3814484e-40
1.8652555e-42
8.3266729e-43
2.2258993e-44
4.5422993e-47
1.3204263e-50
2.4378705e-51
7.1897106e-52
9.4148185e-53
3.7362226e-53
6.790569e-54
7.6315641e-55
1.3859753e-54
2.3300586e-55
8.6565902e-56
2.1611517e-56
8.547288e-57
2.4684053e-57
5.4465801e-58
9.5488665e-59
3.4965159e-60
2.3207526e-62
1.0696384e-64
5.586395e-67
6.8426207e-69
6.9951581e-71
6.5458549e-73
5.3672492e-75
3.6782239e-77
1.9828353e-79
1.4485309e-81
1.9078467e-79
2.044783e-77
2.8813887e-75
3.3255438e-73
3.3042702e-71
2.8671645e-69
2.2113329e-67
1.5414434e-65
8.9805906e-64
4.9882047e-62
8.013049e-60
1.312119e-57
9.7964893e-57
6.4528611e-56
4.1009325e-55
1.160553e-54
7.1196365e-55
2.9062523e-54
3.6973368e-53
5.6507095e-53
8.9503324e-54
4.8768176e-53
2.1041307e-52
1.4673723e-51
2.4067409e-50
1.2925637e-48
2.3886704e-46
9.280828e-44
9.4902755e-44
3.0414439e-40
1.9436005e-37
4.6704164e-35
4.0754312e-34
2.8668593e-32
3.8695278e-31
6.6893874e-31
5.4920293e-31
6.8393492e-31
4.7812832e-30
6.0193211e-29
6.8500902e-28
6.735243e-27
5.6479064e-26
4.0354102e-25
2.4618171e-24
1.2410024e-23
4.6986759e-23
1.1872802e-22
2.2233093e-22
4.0818503e-22
4.1465295e-22
2.244474e-22
1.1632678e-22
4.4151657e-23
1.0504183e-23
1.6415662e-24
1.7897333e-25
1.405872e-26
7.0978763e-28
2.1026314e-29
4.5604317e-31
2.3225635e-32
2.4143139e-32
4.9191028e-32
5.0088787e-32
1.4890451e-32
1.7232904e-34
4.079349e-35
5.4806318e-36
1.1237326e-37
1.0920835e-40
5.5868786e-42
8.0341151e-43
4.5670786e-46
2.2827604e-48
8.4277221e-49
1.8772067e-49
2.8789145e-50
1.111645e-50
1.7301176e-51
1.6007456e-52
2.3530512e-52
4.2442463e-53
1.4952211e-53
3.5289837e-54
1.3352712e-54
3.6979285e-55
7.9176094e-56
1.35744e-56
4.8164441e-58
2.8158081e-60
1.2909943e-62
1.1839451e-64
1.11343e-66
1.0199541e-68
8.8068083e-71
6.8383339e-73
4.4995307e-75
2.347905e-77
1.6223123e-79
1.9990694e-77
2.2427771e-75
3.2367793e-73
3.8499433e-71
3.9777715e-69
3.6389268e-67
3.0056911e-65
2.2361552e-63
1.5073425e-61
7.621368e-60
9.6672518e-58
1.8332285e-55
1.4026884e-54
1.2624893e-53
6.5847971e-53
1.7685554e-52
1.2031398e-52
5.3540514e-52
5.7401964e-51
8.924541e-51
2.0206229e-51
1.372197e-50
5.8906716e-50
4.1886284e-49
1.7585989e-48
2.1146534e-46
8.0925863e-44
1.3271915e-41
6.2769971e-42
1.2970585e-38
2.8576389e-35
8.3417884e-34
6.4556338e-32
5.6138906e-31
5.6663448e-29
1.616803e-28
1.4353e-28
1.0227635e-28
2.3104999e-28
2.2051352e-27
2.3046836e-26
2.0951415e-25
1.625187e-24
1.0727242e-23
6.0562057e-23
2.8866301e-22
1.0725949e-21
2.71682e-21
5.0294186e-21
9.2393304e-21
9.3988679e-21
5.0582835e-21
2.63874e-21
9.9324623e-22
2.3729176e-22
3.8703518e-23
4.5826336e-24
3.9721844e-25
2.2306461e-26
7.7188308e-28
2.458565e-29
4.4233243e-30
9.0281231e-30
1.5502619e-29
1.4841291e-29
3.811149e-30
8.1441179e-33
5.4593607e-33
1.9022955e-33
1.5852e-35
6.139482e-39
4.6019436e-40
2.6124831e-42
3.1679669e-44
3.141867e-46
2.5497314e-46
4.5223946e-47
9.0931097e-48
2.8971364e-48
3.870173e-49
3.0226161e-50
3.6142386e-50
6.9661945e-51
2.2860818e-51
5.8499517e-52
2.3051543e-52
4.9425934e-53
1.0268661e-53
1.7220144e-54
5.6544007e-56
3.0812588e-58
2.082496e-60
1.860924e-62
1.5270769e-64
1.2756993e-66
1.0360415e-68
7.69269e-71
4.8878844e-73
2.4775602e-75
1.6273532e-77
1.8956096e-75
2.2184812e-73
3.2708918e-71
3.9944168e-69
4.2664303e-67
4.07352e-65
3.5665479e-63
2.8512669e-61
2.1157904e-59
1.5215324e-57
1.072562e-55
2.3062785e-53
2.1517308e-52
2.0046396e-51
9.3316411e-51
2.4320208e-50
1.8160555e-50
9.0830081e-50
8.0696208e-49
1.2903709e-48
4.2168353e-49
3.4343375e-48
1.4755298e-47
1.0344527e-46
5.6120467e-46
5.7406666e-45
1.8451482e-42
1.8125891e-40
1.5227839e-40
1.3510148e-38
6.2286757e-33
2.0236649e-32
1.2680252e-29
1.8047661e-29
1.0010445e-26
3.6907723e-26
3.6931313e-26
2.0784934e-26
1.7853491e-26
7.3614085e-26
6.7453093e-25
5.6346556e-24
4.0141483e-23
2.4316393e-22
1.2601073e-21
5.6235173e-21
2.0706158e-20
5.6401396e-20
1.1422723e-19
2.0652958e-19
2.0940276e-19
1.1511008e-19
5.4733498e-20
1.8896545e-20
4.4547698e-21
7.6327281e-22
9.8725258e-23
9.4441202e-24
5.94228e-25
2.5252068e-26
1.5771806e-27
9.3977508e-28
2.6909373e-27
3.9499107e-27
3.5126382e-27
7.9396843e-28
6.3015549e-31
5.318859e-31
3.688999e-31
1.813253e-33
1.8004242e-38
1.3920519e-38
7.6358502e-40
8.6166603e-43
8.837709e-44
6.2603404e-44
9.5884283e-45
2.5249084e-45
6.6380478e-46
7.6269888e-47
5.1589833e-48
5.0444902e-48
1.0405194e-48
3.1125852e-49
9.3420569e-50
3.6174979e-50
7.4886476e-51
1.3877333e-51
1.9614953e-52
5.6891843e-54
3.2882276e-56
3.2281001e-58
2.4287134e-60
1.8044475e-62
1.4052977e-64
1.0846798e-66
7.746891e-69
4.7708269e-71
2.3544926e-73
1.4750788e-75
1.6385114e-73
1.9956539e-71
3.0003354e-69
3.7523465e-67
4.1270413e-65
4.0870944e-63
3.7513217e-61
3.2039615e-59
2.5892456e-57
2.2283716e-55
2.2700823e-53
2.6219185e-51
3.5402455e-50
2.7279472e-49
1.1809969e-48
3.0313336e-48
2.4926974e-48
1.403528e-47
1.0462432e-46
1.7052008e-46
8.007961e-47
7.6505022e-46
3.8654386e-45
2.4377061e-44
1.361337e-43
4.9267375e-43
1.7793435e-42
1.1670516e-40
2.0401602e-40
1.5762104e-37
4.8274037e-31
1.9998146e-30
5.3328364e-29
1.3332908e-28
1.4503515e-24
6.6638864e-24
7.4480911e-24
4.9960725e-24
1.9432385e-24
2.8328115e-24
1.7467866e-23
1.3227749e-22
8.6043698e-22
4.763812e-21
2.2992055e-20
9.7089425e-20
3.5443995e-19
1.0501707e-18
2.3758853e-18
4.0004121e-18
4.01388e-18
2.4025719e-18
1.0236209e-18
3.1848173e-19
7.3929143e-20
1.3204343e-20
1.8226168e-21
1.921277e-22
1.3910066e-23
8.1796224e-25
1.6140146e-25
2.2779972e-25
6.174793e-25
7.9553885e-25
6.2925209e-25
1.2131277e-25
7.0419137e-29
6.5590184e-29
3.9112921e-29
2.3340422e-31
7.9149173e-38
3.4841397e-38
3.2164169e-38
1.1374661e-41
3.599789e-41
1.3098656e-41
1.7454776e-42
6.1625056e-43
1.338583e-43
1.3267745e-44
7.8385001e-46
6.4184949e-46
1.4452905e-46
3.7869272e-47
1.2667141e-47
4.7762226e-48
1.0512148e-48
1.9326512e-49
2.0254427e-50
5.2713566e-52
5.0470965e-54
4.0416076e-56
2.7394714e-58
1.8868415e-60
1.3863897e-62
1.0234064e-64
7.0576317e-67
4.2226951e-69
2.0323643e-71
1.2171043e-73
1.2989286e-71
1.6438343e-69
2.5165858e-67
3.2174039e-65
3.6335963e-63
3.7166853e-61
3.5519063e-59
3.2000491e-57
2.7979193e-55
2.7205071e-53
3.8125831e-51
2.7586516e-49
4.7552122e-48
3.2513967e-47
1.3441642e-46
3.4244961e-46
3.6101381e-46
1.9689608e-45
1.2496598e-44
2.0608801e-44
1.3693416e-44
1.5190555e-43
9.0381633e-43
4.751924e-42
2.8312636e-41
1.3846174e-40
1.1178907e-40
1.8184176e-40
1.4950112e-38
6.7023141e-35
3.2254383e-29
2.5854595e-28
1.1517181e-27
8.51666e-28
1.7896e-22
9.7363483e-22
1.2249258e-21
9.3576762e-22
3.3283485e-22
1.6763135e-22
4.3533533e-22
2.7814422e-21
1.6661991e-20
8.3595368e-20
3.704783e-19
1.4545415e-18
4.8777287e-18
1.3334736e-17
2.9135387e-17
4.5456857e-17
4.5606099e-17
2.9073206e-17
1.2825267e-17
4.2354908e-18
1.0509469e-18
1.9949803e-19
2.9792361e-20
3.5701854e-21
3.1500058e-22
3.3629709e-23
1.9192656e-23
5.3732342e-23
1.124753e-22
1.3160898e-22
8.7750795e-23
1.3911537e-23
7.687469e-27
7.6926773e-27
2.5505044e-27
7.9181126e-30
2.8290084e-35
4.3797295e-37
2.020506e-38
3.8528197e-39
9.3354752e-39
2.4594735e-39
3.240169e-40
1.319294e-40
2.3755188e-41
2.0389618e-42
1.0603537e-43
7.4653089e-44
1.8481562e-44
4.1320124e-45
1.4974195e-45
5.4740301e-46
1.2380829e-46
2.2932158e-47
2.1823548e-48
5.9958334e-50
6.0617697e-52
4.3512919e-54
2.7386448e-56
1.7748939e-58
1.2393823e-60
8.7853407e-63
5.8653577e-65
3.4149982e-67
1.6046949e-69
9.1986322e-72
9.493774e-70
1.247032e-67
1.9418747e-65
2.5342665e-63
2.9326788e-61
3.0888584e-59
3.0592936e-57
2.8849081e-55
2.6869813e-53
2.8839197e-51
4.7871341e-49
3.7210742e-47
5.441811e-46
3.4470198e-45
1.3814247e-44
3.5129379e-44
4.7436937e-44
2.4905093e-43
1.373293e-42
2.2761669e-42
2.1024608e-42
2.6871711e-41
1.8823345e-40
9.1807108e-40
5.7518846e-39
2.8876306e-38
3.6167987e-38
1.8309722e-38
5.703962e-36
1.9322204e-32
1.1467032e-27
5.3156633e-26
5.9585496e-26
5.5014248e-26
2.5229687e-20
1.3719725e-19
1.775351e-19
1.4257815e-19
6.0158811e-20
1.2825848e-20
1.3983255e-20
5.6239353e-20
3.0754742e-19
1.3668621e-18
5.0869918e-18
1.6442575e-17
4.6909349e-17
1.1796356e-16
2.3333678e-16
3.5423783e-16
3.4483488e-16
2.3479741e-16
1.1035854e-16
3.9155974e-17
1.1069873e-17
2.4473497e-18
4.4846091e-19
6.6789213e-20
8.104874e-21
2.2235766e-21
2.7554626e-21
9.6853276e-21
1.6739756e-20
1.8454527e-20
1.061933e-20
1.4771384e-21
1.3296601e-25
2.3717766e-25
1.354602e-25
8.6373445e-30
1.1852137e-32
1.8835035e-35
2.5904223e-37
1.5641485e-36
2.0984914e-36
3.9627862e-37
7.2078593e-38
2.4663828e-38
3.7063879e-39
2.76813e-40
1.2770102e-41
7.9409187e-42
2.1646013e-42
4.0504008e-43
1.564253e-43
5.5405237e-44
1.2680025e-44
2.3531667e-45
2.4387642e-46
6.7974917e-48
6.2069292e-50
4.1470389e-52
2.4681462e-54
1.5191526e-56
1.0129496e-58
6.9138049e-61
4.4767042e-63
2.5393627e-65
1.1658715e-67
6.4021866e-70
6.4268314e-68
8.7557115e-66
1.3855587e-63
1.8435516e-61
2.1824124e-59
2.361331e-57
2.4154545e-55
2.3713142e-53
2.3306107e-51
2.7074097e-49
5.0466449e-47
4.1478853e-45
5.4628426e-44
3.2849517e-43
1.2872581e-42
3.2906271e-42
5.4889839e-42
2.8338231e-41
1.3858502e-40
2.2836768e-40
2.8837382e-40
4.230277e-39
3.4856236e-38
1.5300247e-37
1.012021e-36
5.5405746e-36
9.2418594e-36
4.9223189e-36
3.0427655e-33
2.3559516e-30
9.9996533e-28
4.7016713e-24
1.9070688e-23
1.1028635e-23
6.3261223e-18
2.5419906e-17
2.9528417e-17
2.1130323e-17
8.4672129e-18
1.4110202e-18
5.8244409e-19
1.1777667e-18
5.0031291e-18
1.9335037e-17
5.5881079e-17
1.4191873e-16
3.3401142e-16
6.2595147e-16
1.1398919e-15
1.7647384e-15
1.8163932e-15
1.1921504e-15
5.7404054e-16
2.4123732e-16
7.5839183e-17
2.2197699e-17
5.6804927e-18
1.0743571e-18
2.3409403e-19
1.5211077e-19
4.206313e-19
1.3971761e-18
2.3305231e-18
2.7859797e-18
1.4209501e-18
1.8783557e-19
2.66785e-24
5.1103237e-24
2.9765124e-24
7.7644359e-29
4.9501095e-30
4.5840224e-34
8.2582289e-35
4.4886998e-34
4.0570635e-34
5.9787573e-35
1.4909733e-35
4.0200914e-36
5.0750564e-37
3.3175496e-38
1.3684664e-39
7.6999313e-40
2.2766528e-40
3.5755781e-41
1.456435e-41
5.0043454e-42
1.1510807e-42
2.1347038e-43
2.3593349e-44
6.5404404e-46
5.6107095e-48
3.5631235e-50
2.0283971e-52
1.1932668e-54
7.6228385e-57
5.0191321e-59
3.1557615e-61
1.7455179e-63
7.8343545e-66
4.1226258e-68
4.0459099e-66
5.7145021e-64
9.1822423e-62
1.2442682e-59
1.5046286e-57
1.6691244e-55
1.7585823e-53
1.7901615e-51
1.8445465e-49
2.2896643e-47
4.65837e-45
3.9820965e-43
4.8962109e-42
2.8333769e-41
1.0911757e-40
2.8156211e-40
5.6482805e-40
2.9015199e-39
1.2810717e-38
2.0955931e-38
3.5242036e-38
5.9104695e-37
5.7141427e-36
2.5390314e-35
1.5817126e-34
9.7402024e-34
1.9694773e-33
1.2891883e-33
1.3081244e-30
6.9097584e-28
2.2279337e-23
1.2214395e-21
1.6488033e-21
8.0821553e-22
5.1589535e-16
3.0858729e-15
3.8218515e-15
2.8791213e-15
1.1506522e-15
1.756656e-16
2.3445073e-17
2.626456e-17
6.3082162e-17
1.8730537e-16
4.8398802e-16
9.7201427e-16
1.6029126e-15
2.552532e-15
3.6778961e-15
5.6115078e-15
5.8636431e-15
3.4516407e-15
2.1552849e-15
1.1526531e-15
5.1658544e-16
1.712536e-16
4.0043685e-17
1.1329897e-17
6.745478e-18
9.3268857e-18
5.1966019e-17
1.9103512e-16
3.700927e-16
3.9869218e-16
2.3870054e-16
1.947454e-17
9.2804608e-22
1.3894524e-21
3.3634611e-22
3.0281627e-26
9.5091514e-28
1.0846503e-31
2.2993552e-32
1.1123966e-31
6.6605047e-32
8.085837e-33
2.6628369e-33
5.694584e-34
6.0838529e-35
3.5053991e-36
1.30362e-37
6.7825384e-38
2.1393123e-38
3.0794574e-39
1.2142447e-39
4.0624486e-40
9.3665876e-41
1.735501e-41
2.008829e-42
5.5508074e-44
4.5655075e-46
2.7927802e-48
1.5330633e-50
8.6604717e-53
5.3130944e-55
3.3789925e-57
2.0648101e-59
1.1143561e-61
4.8911145e-64
2.4663794e-66
2.3772724e-64
3.4802089e-62
5.6740567e-60
7.8225928e-58
9.6496705e-56
1.0956296e-53
1.1862352e-51
1.248072e-49
1.3416987e-47
1.7644161e-45
3.8501575e-43
3.3905836e-41
3.9611499e-40
2.2214562e-39
8.4325658e-39
2.2015764e-38
5.1982897e-38
2.673609e-37
1.0817013e-36
1.7569495e-36
3.8360012e-36
7.3063408e-35
8.2474387e-34
4.4838721e-33
2.44059e-32
1.5629316e-31
3.2241234e-31
3.3366156e-31
6.7374751e-28
1.3737462e-24
3.7433558e-20
7.3187627e-20
4.1755348e-20
5.3023421e-21
5.8022899e-17
1.5705677e-16
1.5605505e-16
3.2483665e-14
8.6182353e-14
2.9687464e-14
1.791539e-15
4.7777012e-16
6.6070686e-16
1.916928e-15
1.1657261e-14
1.6757187e-14
1.8024713e-14
9.4508366e-14
3.783736e-14
1.6802537e-14
1.6981356e-14
6.4240683e-14
1.3055685e-14
9.2018463e-15
1.1198943e-14
8.9261818e-15
1.3800644e-15
2.2210736e-16
1.5352689e-16
8.1066922e-16
7.007903e-15
1.6685339e-14
1.7050588e-14
2.8838801e-16
5.3883309e-17
1.1912828e-17
8.0370015e-20
1.2373073e-19
9.8409702e-20
3.2480052e-21
3.7025268e-24
3.5034414e-29
5.5090641e-30
2.2697481e-29
9.4849045e-30
1.0607374e-30
4.0740597e-31
6.9787291e-32
6.3665132e-33
3.259853e-34
1.102585e-35
5.4068781e-36
1.7936955e-36
2.8706631e-37
9.106334e-38
2.9782887e-38
6.8811433e-39
1.2761385e-39
1.533953e-40
4.2370086e-42
3.3859895e-44
2.0140788e-46
1.0727429e-48
5.8411004e-51
3.4473595e-53
2.1193623e-55
1.2594401e-57
6.6350857e-60
2.8485078e-62
1.3759792e-64
1.308072e-62
1.9846086e-60
3.2805101e-58
4.5970758e-56
5.777593e-54
6.7031826e-52
7.4425664e-50
8.0713994e-48
9.0182568e-46
1.2486078e-43
2.8885288e-41
2.6010521e-39
2.9140313e-38
1.588194e-37
5.9507675e-37
1.5734533e-36
4.2942007e-36
2.2166095e-35
8.3159363e-35
1.3425536e-34
3.7093429e-34
7.9617854e-33
1.043567e-31
6.920825e-31
3.3472664e-30
2.073127e-29
5.7825353e-29
1.062773e-28
3.5992098e-24
1.7319817e-19
3.0178827e-18
3.1259009e-18
1.1647311e-18
4.0400855e-20
4.8936998e-20
5.7637096e-19
-2.6870075e-14
2.1885532e-14
2.3076032e-14
2.1410269e-14
2.0115295e-14
2.2846786e-14
3.0438194e-14
5.3504471e-14
8.7985337e-14
1.2999249e-13
2.771192e-13
3.7574902e-13
3.6506957e-13
2.002298e-13
1.3759225e-13
2.2588099e-13
1.8737246e-13
1.2926403e-13
8.6360698e-14
5.0579721e-14
1.5380038e-14
9.2183112e-15
7.3576588e-15
8.1304339e-15
7.7469729e-16
2.9247706e-16
2.6606015e-18
9.5408071e-19
2.5356974e-19
1.2099472e-19
8.0789952e-20
3.2629529e-18
5.3406499e-18
2.6830967e-18
1.8254481e-19
2.7282084e-26
4.5507442e-27
3.3956107e-27
1.170155e-27
1.5529121e-28
5.288977e-29
7.3631432e-30
5.7971334e-31
2.6627724e-32
8.2678776e-34
3.8856552e-34
1.3389105e-34
2.2864409e-35
6.1708039e-36
1.9788563e-36
4.5873006e-37
8.5412739e-38
1.0624771e-38
2.9446687e-40
2.3088541e-42
1.3453742e-44
6.9885993e-47
3.6792896e-49
2.0918106e-51
1.243731e-53
7.1896765e-56
3.6984004e-58
1.5532025e-60
7.1832813e-63
6.761106e-61
1.0630928e-58
1.7802851e-56
2.5332293e-54
3.2396201e-52
3.8346557e-50
4.3577831e-48
4.8595789e-46
5.6255236e-44
8.1612415e-42
1.9848122e-39
1.8159062e-37
1.9594678e-36
1.0383403e-35
3.8399123e-35
1.0279268e-34
3.190798e-34
1.6525294e-33
5.7997924e-33
9.3271268e-33
3.1767121e-32
7.6165152e-31
1.1504857e-29
9.2467212e-29
4.3658092e-28
1.859012e-27
1.2967016e-25
1.7346082e-25
6.9308196e-19
2.5579551e-17
7.6140502e-17
5.7370108e-17
1.0219125e-17
4.8936998e-20
5.6270177e-18
6.0163179e-13
1.6492711e-10
7.6324337e-09
8.2526005e-14
2.3045171e-14
2.0170077e-14
1.0162175e-13
1.802899e-13
6.1129448e-14
1.2082734e-13
2.1631265e-13
2.9861956e-13
1.6250152e-13
-3.315551e-14
-2.8696832e-14
2.0126791e-13
2.041079e-13
2.1221026e-13
2.117042e-13
1.9644165e-13
9.3205306e-14
2.9663566e-14
9.1921019e-15
7.5065252e-15
7.6954711e-15
8.6432255e-16
3.2305456e-16
1.4177747e-09
2.6605807e-18
7.2185429e-19
2.0763196e-11
4.5013433e-11
3.2815757e-18
9.9606174e-17
1.1401179e-16
1.2918776e-17
2.5864077e-22
1.950105e-24
4.6872643e-25
1.2492198e-25
2.2395153e-26
5.7833795e-27
6.655059e-28
4.5779136e-29
1.9065231e-30
5.4900315e-32
2.5068672e-32
8.906864e-33
1.5916712e-33
3.7846451e-34
1.194837e-34
2.7860374e-35
5.2278195e-36
6.7270511e-37
1.8791864e-38
1.4572337e-40
8.3702744e-43
4.2596813e-45
2.1743522e-47
1.1920664e-49
6.8557048e-52
3.8554548e-54
1.9367747e-56
7.9565762e-59
3.5203554e-61
3.2923805e-59
5.3652032e-57
9.0947111e-55
1.3127145e-52
1.7060129e-50
2.0570017e-48
2.3881458e-46
2.7323337e-44
3.2683346e-42
4.9496619e-40
1.2572169e-37
1.162162e-35
1.2088966e-34
6.2210875e-34
2.2678887e-33
6.1377906e-33
2.1355408e-32
1.1069952e-31
3.6553673e-31
5.8727688e-31
2.4018044e-30
6.3685629e-29
1.0979313e-27
1.0586487e-26
5.3541987e-26
2.099433e-25
1.2504259e-23
9.307252e-21
1.2392909e-16
1.8033093e-15
2.7443603e-15
1.3152712e-15
1.0485542e-17
3.6585771e-08
5.8745012e-08
1.9989723e-08
2.2896154e-06
1.0818878e-06
1.3011245e-07
3.0083468e-10
4.0230136e-13
1.0982781e-13
1.7151112e-13
2.7125141e-13
8.8187448e-15
3.9229507e-15
5.5326595e-27
-7.7663599e-13
-1.9428537e-12
-1.0170942e-12
3.1153482e-14
-4.3477052e-13
-1.0727108e-13
1.3080433e-13
9.873335e-14
2.4263368e-14
2.108616e-14
9.3659806e-15
9.0011044e-15
6.2463398e-14
1.6772455e-12
1.035773e-07
7.4946879e-07
2.0514719e-06
6.3362114e-07
1.9412027e-11
4.2375616e-10
6.4220653e-18
6.6437782e-16
7.4775067e-16
4.071705e-16
1.8606322e-17
1.6759566e-23
5.4759722e-23
1.2825938e-23
2.6484463e-24
5.3008502e-25
5.1278914e-26
3.1251408e-27
1.1960308e-28
3.2342223e-30
1.4455946e-30
5.2834351e-31
9.7908156e-32
2.1038392e-32
6.5700542e-33
1.546188e-33
2.9364388e-34
3.9163656e-35
1.1082863e-36
8.5600006e-39
4.873873e-41
2.4401213e-43
1.2108012e-45
6.4063511e-48
3.5631236e-50
1.9489724e-52
9.5606396e-55
3.8417515e-57
1.6245479e-59
1.5147521e-57
2.5582941e-55
4.3857565e-53
6.4141349e-51
8.4593909e-49
1.0373125e-46
1.2280628e-44
1.4385656e-42
1.7739702e-40
2.7960015e-38
7.3777173e-36