/*--------------------------------*- C++ -*----------------------------------*\
  =========                 |
  \\      /  F ield         | OpenFOAM: The Open Source CFD Toolbox
   \\    /   O peration     | Website:  https://openfoam.org
    \\  /    A nd           | Version:  9
     \\/     M anipulation  |
\*---------------------------------------------------------------------------*/
FoamFile
{
    format      ascii;
    class       volScalarField;
    location    "0.3";
    object      p;
}
// * * * * * * * * * * * * * * * * * * * * * * * * * * * * * * * * * * * * * //

dimensions      [1 -1 -2 0 0 0 0];

internalField   nonuniform List<scalar> 
10000
(
0
-0.0004924682
0.0081630833
0.019704995
0.035692681
0.056855468
0.083355247
0.11553535
0.15360087
0.19815964
0.24947933
0.308067
0.37453627
0.44928855
0.53292687
0.626097
0.72926015
0.84294688
0.96775008
1.1041867
1.2527933
1.4140231
1.587997
1.7743415
1.9725181
2.1820864
2.4021467
2.6306447
2.8630514
3.1002586
3.3448843
3.5946256
3.8477263
4.102367
4.3565921
4.6083255
4.8554559
5.0958199
5.3271654
5.547219
5.7537534
5.9446351
6.1178734
6.2715724
6.4040136
6.5138004
6.5998191
6.6611697
6.6972091
6.7076159
6.6923148
6.651556
6.5858987
6.4961978
6.3835564
6.2494318
6.0955307
5.9238237
5.7364527
5.5356883
5.3238959
5.1035126
4.8768894
4.6464892
4.4146711
4.1836492
3.9555089
3.7323866
3.5161349
3.3083968
3.1109323
2.9256212
2.751637
2.5806737
2.4209987
2.2748405
2.1425261
2.0239304
1.9190217
1.8274608
1.7484122
1.6807322
1.6233375
1.5752505
1.53555
1.5033584
1.4778342
1.4581204
1.4434106
1.4329489
1.4260298
1.4220398
1.4204124
1.4206195
1.4222776
1.4250861
1.4287691
1.4325124
1.4350478
1.4431983
-0.0014052309
-0.0027542809
0.0055168622
0.016777559
0.032423533
0.053126666
0.07922946
0.11075876
0.14831954
0.19214306
0.24266216
0.30051532
0.36607391
0.43990505
0.52270562
0.61496553
0.71721993
0.83010464
0.95412215
1.0897372
1.2374762
1.3976829
1.5703697
1.7552777
1.9518878
2.1594259
2.3768742
2.6033257
2.8390814
3.0802574
3.3277615
3.5802297
3.8360827
4.0935139
4.3505524
4.6051406
4.8551367
5.0982824
5.3322381
5.554704
5.7634564
5.9563278
6.1312941
6.2864939
6.4202268
6.5310537
6.6178307
6.6796482
6.715841
6.7261165
6.7104682
6.6691568
6.6026694
6.5118539
6.397831
6.262073
6.1062742
5.9323509
5.7424603
5.5389156
5.32412
5.1005854
4.8707529
4.6370925
4.40207
4.1680639
3.937186
3.7115455
3.4929865
3.2830357
3.0829734
2.8934477
2.7131488
2.5464707
2.3925315
2.2506637
2.1214577
2.00537
1.902585
1.8127689
1.7351793
1.6688997
1.6129438
1.5663275
1.5280891
1.4973131
1.4731598
1.4547513
1.4412287
1.4318252
1.4258429
1.4226934
1.4218228
1.4226764
1.4248334
1.4280552
1.4321172
1.4362175
1.4390268
1.4471452
-0.0119088
-0.013827355
-0.0059712907
0.0048200757
0.019849844
0.039996689
0.065236553
0.096026188
0.13259715
0.17531481
0.22479125
0.28141261
0.34568938
0.41832119
0.49985021
0.59081794
0.69189239
0.80364941
0.92657673
1.0612281
1.2080917
1.367415
1.5392632
1.7235397
1.9198834
2.1276743
2.3462053
2.5752655
2.8131886
3.0581915
3.3096576
3.5663901
3.8268223
4.0890988
4.3512076
4.6110224
4.866297
5.1146707
5.3537148
5.5810547
5.7944187
5.9915706
6.1703898
6.3289881
6.4656696
6.578934
6.6675694
6.7306555
6.7675214
6.7778567
6.7616223
6.7190739
6.6507243
6.5574387
6.4403947
6.3010602
6.1411713
5.9626665
5.7677607
5.5588351
5.3384253
5.1090712
4.8733994
4.6339916
4.3934052
4.1541325
3.9183829
3.6882775
3.4657294
3.2522892
3.0491906
2.8571458
2.6761617
2.5061329
2.3539135
2.2135311
2.0862167
1.9722806
1.8716755
1.7839865
1.7084734
1.6442594
1.5903865
1.5458711
1.5097453
1.481048
1.4588832
1.4423554
1.4305922
1.4228279
1.4183242
1.4164968
1.4167985
1.4187025
1.4217257
1.4256094
1.4301767
1.4347306
1.4379365
1.446461
-0.026460812
-0.028701737
-0.02129157
-0.011172759
0.003217582
0.022396151
0.046727272
0.076343007
0.11153509
0.15288663
0.20078984
0.255703
0.31830317
0.38916904
0.46884839
0.55802816
0.65736341
0.76741602
0.88880157
1.02213
1.1678371
1.326211
1.4974519
1.6815749
1.8783193
2.0872437
2.3077843
2.5386064
2.779352
3.0286561
3.2852666
3.5477517
3.8144164
4.0833384
4.3524411
4.6194919
4.8821083
5.1378125
5.38408
5.6184158
5.8384262
6.0417854
6.2262733
6.3899173
6.5309758
6.6478714
6.7393022
6.8043067
6.8421999
6.8526419
6.8355659
6.7912049
6.7201186
6.6231871
6.5016456
6.3569847
6.1910116
6.005754
5.8035566
5.5868728
5.3584243
5.120894
4.8770344
4.6295713
4.3812713
4.1347045
3.8922278
3.6560557
3.4281834
3.2101955
3.0033949
2.8088827
2.6277516
2.46217
2.3058964
2.1652908
2.0393463
1.9275747
1.8295213
1.7445895
1.6719768
1.6107569
1.5599097
1.5184176
1.4853065
1.4595583
1.4401844
1.426275
1.4169559
1.4114566
1.4090101
1.4090221
1.4109237
1.4142347
1.4184868
1.4233674
1.4286618
1.4337567
1.4373289
1.4462469
-0.046524689
-0.049151729
-0.042350505
-0.032922571
-0.019593297
-0.0014579306
0.021544037
0.049553983
0.083090731
0.12254723
0.1683376
0.22110228
0.28143499
0.34988567
0.42714741
0.51393494
0.61088509
0.71868235
0.83805296
0.9696023
1.1138053
1.2710879
1.4417582
1.625878
1.8232703
2.0335907
2.2562935
2.4909555
2.7363775
2.9913494
3.2545597
3.5244476
3.7991988
4.0768099
4.3551058
4.631706
4.9040422
5.1694657
5.4253164
5.6689337
5.8977364
6.1092766
6.301236
6.4715104
6.6182619
6.739843
6.8348846
6.9023752
6.9415983
6.952165
6.9339696
6.8872176
6.8125343
6.7108276
6.5833805
6.4317351
6.2577818
6.0636692
5.8518889
5.6250521
5.3859969
5.1376631
4.8830469
4.6249906
4.3665023
4.1103577
3.8590675
3.6149419
3.3800965
3.1562422
2.9447303
2.7467113
2.5631369
2.3946279
2.2401566
2.1010008
1.9770716
1.8679739
1.773108
1.6917262
1.6229199
1.5656652
1.5188605
1.4814092
1.4522777
1.4303971
1.4146985
1.4042357
1.3981244
1.3955486
1.3957418
1.3981203
1.4021132
1.4072404
1.4130762
1.41931
1.425669
1.4314826
1.4354877
1.444804
-0.071597588
-0.07471983
-0.068460088
-0.060060459
-0.04778968
-0.031031779
-0.0097383419
0.016452582
0.047887078
0.084942726
0.12821346
0.17828722
0.23571033
0.30116874
0.37541069
0.45912973
0.55306955
0.65805709
0.77485582
0.90412017
1.0464786
1.2025029
1.3725703
1.556824
1.7552313
1.9675915
2.1935137
2.4326968
2.6838393
2.9457481
3.2170201
3.4959922
3.7807632
4.0692258
4.3590475
4.6476538
4.932261
5.2100053
5.4780234
5.7334415
5.9734437
6.1954009
6.3968646
6.5755644
6.7295191
6.856999
6.956581
7.0271925
7.0680585
7.0787425
7.0591431
7.0094507
6.9303142
6.8226555
6.6877823
6.5273354
6.3432961
6.1379982
5.9140556
5.6743328
5.4218444
5.15978
4.8914603
4.620046
4.3487206
4.0805108
3.8181595
3.564137
3.3206326
3.0894945
2.8722152
2.6699465
2.4834948
2.3132858
2.1591403
2.0213992
1.8998432
1.7939637
1.7029973
1.6260084
1.561934
1.5096275
1.4678945
1.4355256
1.411356
1.3942511
1.3831102
1.3769093
1.3747507
1.3758059
1.3793159
1.3846341
1.3912176
1.3985307
1.4062193
1.4140297
1.4217607
1.4285721
1.433178
1.4428979
-0.10148306
-0.10502705
-0.099607282
-0.092174273
-0.081251443
-0.066208708
-0.04679944
-0.022831137
0.0060083192
0.04026457
0.080494386
0.12722585
0.18112855
0.24296097
0.31344841
0.39337083
0.48362734
0.58511394
0.69865216
0.82505866
0.96514503
1.1195905
1.2888678
1.4732724
1.6729256
1.8877157
2.1173068
2.3620578
2.6201337
2.8903533
3.171275
3.4611771
3.7580783
4.059722
4.363568
4.6668161
4.9664475
5.2593302
5.5423092
5.8122338
6.0660213
6.3007956
6.5139238
6.7029587
6.8657616
7.0005046
7.1056994
7.1801994
7.2231429
7.2340159
7.2127385
7.1594942
7.0749288
6.960018
6.8160671
6.6448439
6.4484328
6.2293814
5.990478
5.7348466
5.4657999
5.1869047
4.90173
4.613853
4.3267775
4.0438355
3.7679969
3.5019624
3.2480907
3.0082989
2.7841252
2.5767554
2.3869593
2.2150962
2.0612027
1.9251328
1.8064837
1.7045378
1.6183376
1.546752
1.4885229
1.4423246
1.4068232
1.3806898
1.3626147
1.3513239
1.3456736
1.3445905
1.3471529
1.352508
1.3599476
1.368749
1.3784025
1.3883445
1.3982506
1.4078308
1.4170104
1.4250213
1.4303358
1.4405944
-0.13577985
-0.13998279
-0.13527331
-0.12906857
-0.11977088
-0.10656071
-0.089385556
-0.068093835
-0.042216639
-0.011243902
0.02531113
0.068084705
0.11782493
0.1752641
0.24119232
0.31654505
0.40231072
0.49944763
0.60893925
0.73181353
0.86903213
1.021398
1.1895636
1.3740279
1.5750556
1.7925913
2.0262231
2.2776536
2.5438135
2.8237303
3.1159862
3.4188008
3.7300888
4.0474114
4.3679953
4.6887831
5.0064686
5.317573
5.6185544
5.9059033
6.1762306
6.4263663
6.6534362
6.854809
7.0281931
7.1716487
7.2835884
7.3627667
7.4082542
7.4194389
7.3962232
7.3388197
7.2478222
7.1242694
6.9695074
6.7854145
6.5742271
6.3386817
6.0818254
5.8070652
5.5180202
5.2187461
4.9132782
4.6055982
4.2995925
3.9990027
3.7071238
3.4268193
3.1606174
2.9106238
2.6784595
2.4652883
2.2718263
2.0983572
1.944843
1.8109043
1.6958751
1.5987819
1.5184292
1.4534425
1.402326
1.3635439
1.3355604
1.3168639
1.3060251
1.3016739
1.3025758
1.3075798
1.3157397
1.3261355
1.3380847
1.3509251
1.3641076
1.3770699
1.3895031
1.4011998
1.4119823
1.4212952
1.4274555
1.438205
-0.17431499
-0.17901307
-0.1752599
-0.17048681
-0.16287054
-0.15179319
-0.13724967
-0.1189496
-0.096467391
-0.069371961
-0.037084137
0.0011053072
0.045910072
0.098105496
0.15862746
0.22850887
0.3087992
0.40060978
0.50514741
0.62362363
0.75715605
0.90676054
1.0733479
1.2576445
1.4600948
1.6807875
1.9192746
2.177927
2.4531429
2.7441379
3.0494857
3.3673295
3.695434
4.0311524
4.371466
4.7130227
5.0521382
5.3848819
5.7072379
6.0152474
6.3051414
6.5734128
6.8168934
7.0327477
7.2185386
7.3722088
7.4920679
7.57673
7.6252085
7.6368616
7.6114823
7.5493032
7.4508923
7.317281
7.1499128
6.9507599
6.7222446
6.4672592
6.1891364
5.8916501
5.578883
5.2553169
4.9256154
4.5943188
4.2658204
3.9442882
3.6334478
3.3364583
3.0559945
2.7942698
2.5529682
2.333256
2.1358096
1.9608321
1.8080573
1.6769053
1.5664333
1.4753717
1.4022138
1.34527
1.3027602
1.2729126
1.2539555
1.2441386
1.2418466
1.2456099
1.2541336
1.2661981
1.2808277
1.2970937
1.3142176
1.3316089
1.3487627
1.3651372
1.3803884
1.3944036
1.4070403
1.4177089
1.4248771
1.4362146
-0.21653241
-0.22193428
-0.21924837
-0.21589864
-0.21022013
-0.20160474
-0.18993993
-0.17500215
-0.15644874
-0.13377065
-0.10633109
-0.073470672
-0.034458442
0.011608767
0.065762223
0.12908801
0.2027705
0.2881406
0.3866067
0.49955975
0.62835721
0.7743194
0.9386514
1.1223406
1.3261159
1.5504497
1.795562
2.0608914
2.3459521
2.6494475
2.9697585
3.3048932
3.6524378
4.0095367
4.3729085
4.7388449
5.1031773
5.4613987
5.808915
6.1412224
6.4540598
6.7435156
7.0060901
7.238728
7.4388703
7.6043363
7.7333543
7.8244244
7.8764064
7.888678
7.8609534
7.7933659
7.6865075
7.5413879
7.3595577
7.1430541
6.8944515
6.6168097
6.3137856
5.9895379
5.648741
5.2964523
4.9380525
4.5788015
4.2237755
3.8777155
3.5447603
3.2283561
2.9313922
2.6562381
2.4046516
2.1777532
1.9761332
1.7998787
1.6485027
1.5211645
1.416564
1.3330543
1.2687493
1.2215907
1.1894467
1.1702553
1.1619759
1.1626133
1.1703669
1.1836002
1.2009199
1.2210853
1.2430381
1.2658783
1.2888252
1.3113011
1.3328563
1.3529724
1.3713329
1.3878196
1.402504
1.4146981
1.4228306
1.4348008
-0.26220301
-0.26834149
-0.26665934
-0.26495521
-0.26146202
-0.25547419
-0.24699094
-0.23587549
-0.2217143
-0.20396262
-0.18205563
-0.15534355
-0.1229957
-0.084031813
-0.037382905
0.018148936
0.083948703
0.16154659
0.25253873
0.35857174
0.48134141
0.62251419
0.78361002
0.96593801
1.1705846
1.3983988
1.6500196
1.9232179
2.2193812
2.5370154
2.8743561
3.2292386
3.5990801
3.9808475
4.3709892
4.7653663
5.1592149
5.5473057
5.9243067
6.2850291
6.6245746
6.9385364
7.2230895
7.4749672
7.6915288
7.8704906
8.0099575
8.108414
8.1645535
8.1776308
8.1473708
8.0737839
7.9574606
7.7993551
7.6010755
7.3647495
7.0930901
6.7893238
6.4573815
6.1019078
5.7281814
5.3420309
4.949742
4.5575815
4.1714409
3.7967285
3.4381104
3.0993786
2.7836204
2.4932935
2.2302048
1.9954714
1.7895758
1.6124551
1.4634058
1.3412025
1.2441149
1.1700403
1.1166342
1.0814135
1.0617906
1.0552999
1.059618
1.0724822
1.0918968
1.1160701
1.1434646
1.1728107
1.2030439
1.2332595
1.2626666
1.2907068
1.3170217
1.3412102
1.3629599
1.3821938
1.3989991
1.4128145
1.4219707
1.4345386
-0.31084447
-0.31761591
-0.31713485
-0.31723315
-0.31600549
-0.31288
-0.30795434
-0.30102958
-0.29167707
-0.27944696
-0.26381245
-0.2440589
-0.21930837
-0.18857266
-0.15070546
-0.10433849
-0.047907185
0.020293194
0.10210982
0.19954346
0.31467642
0.44954418
0.60604756
0.78591384
0.99063183
1.2213355
1.4786661
1.7614084
2.0701823
2.4037671
2.760357
3.1376538
3.5329218
3.9429947
4.3640566
4.7914916
5.2198217
5.6428987
6.0543802
6.448173
6.8186077
7.1606955
7.4703162
7.7440379
7.979155
8.1733922
8.324714
8.431543
8.4925528
8.5067827
8.4738657
8.3936809
8.2668206
8.0942318
7.8775217
7.6188353
7.3209367
6.9872567
6.6219387
6.2301477
5.8178936
5.391972
4.9597731
4.528842
4.1062527
3.6982597
3.3100508
2.9457412
2.6085991
2.3011537
2.0252711
1.7821265
1.5721081
1.3948766
1.2495116
1.1342253
1.0467977
0.98455516
0.94454617
0.92379103
0.91923962
0.92788712
0.94702084
0.97412073
1.0069566
1.0435967
1.0824314
1.122107
1.1615358
1.1998718
1.2364103
1.2705766
1.3020292
1.3305429
1.3558043
1.3778901
1.3969704
1.4124341
1.4226186
1.4357914
-0.36185709
-0.36939453
-0.37018057
-0.37207994
-0.37328846
-0.37331357
-0.37220726
-0.36978312
-0.36572469
-0.35964093
-0.35097826
-0.33901941
-0.32291821
-0.30165059
-0.27394699
-0.23830104
-0.19300643
-0.13613547
-0.065500766
0.021298307
0.12675253
0.2533397
0.40346851
0.57939967
0.78309809
1.0160615
1.2791761
1.5720011
1.8946965
2.2460949
2.6243156
3.0269017
3.4510254
3.8934076
4.3500516
4.8158774
5.2845298
5.7486096
6.2003713
6.6325205
7.0385091
7.4126946
7.7506454
8.0488937
8.3047284
8.5159945
8.6806973
8.7970819
8.8637401
8.8795327
8.8439017
8.7565855
8.6181601
8.4295404
8.1923404
7.9086995
7.5813144
7.2136637
6.8101181
6.3762785
5.9189845
5.4462064
4.9668765
4.4902242
4.024904
3.5783152
3.1562018
2.762846
2.4015789
2.0750109
1.7850746
1.5330089
1.3191663
1.1429359
1.0029275
0.89684634
0.82180187
0.77441771
0.75098177
0.74778625
0.76125665
0.78787093
0.82440264
0.86803441
0.91632596
0.9671723
1.0188536
1.0700097
1.1195692
1.1667321
1.2109223
1.2516422
1.2885886
1.3216311
1.3506658
1.375676
1.3970052
1.4141714
1.4254082
1.4391172
-0.41483682
-0.42310497
-0.42509951
-0.42892429
-0.43276154
-0.43608412
-0.43899726
-0.44143713
-0.44315595
-0.44376959
-0.44276903
-0.43951883
-0.43319169
-0.4226964
-0.40668211
-0.38356011
-0.35145783
-0.30815198
-0.25107962
-0.17742967
-0.084235916
0.031559873
0.17302059
0.34305616
0.54422207
0.77853266
1.0473139
1.3506632
1.6885519
2.0597023
2.4621187
2.8931893
3.3499224
3.8289477
4.3263483
4.8367925
5.3527653
5.8650055
6.3638405
6.8404145
7.287152
7.6977424
8.0674091
8.3928204
8.6715456
8.9016366
9.0812765
9.208577
9.2818511
9.2997387
9.2614117
9.1663938
9.015396
8.8092714
8.5495737
8.238324
7.8781248
7.4722686
7.0251937
6.5428553
6.0329985
5.5050217
4.9698397
4.439072
3.9236443
3.4324153
2.9715666
2.5452724
2.1567722
1.8088238
1.5035058
1.2421314
1.0250265
0.85132834
0.71901411
0.62514369
0.56595588
0.53715757
0.53417646
0.55240463
0.58748232
0.63533817
0.69225192
0.75499776
0.82089451
0.88777019
0.95383326
1.0177063
1.0783458
1.1350504
1.1873523
1.2349452
1.277661
1.3153533
1.3481702
1.376213
1.3997748
1.4185683
1.4308398
1.4450343
-0.46916413
-0.4780419
-0.4813353
-0.48719296
-0.49369229
-0.50040097
-0.50757023
-0.51520003
-0.52307161
-0.53089189
-0.53828123
-0.5446767
-0.54925369
-0.55091701
-0.54830865
-0.53975375
-0.52316726
-0.49601917
-0.45538105
-0.39798403
-0.32025788
-0.21840845
-0.088578711
0.072937689
0.26947277
0.50375356
0.77767292
1.0920065
1.4464394
1.8395756
2.2691067
2.732125
3.2253916
3.745648
4.2895505
4.8520201
5.4239137
5.9929704
6.5468318
7.074785
7.5680455
8.0196245
8.4244796
8.7795629
9.0831653
9.3339029
9.530175
9.6699515
9.7510475
9.7716919
9.7307898
9.6274897
9.462905
9.2377574
8.9536053
8.6122781
8.2160445
7.7677605
7.2715629
6.7335673
6.162309
5.5689527
4.9670831
4.371739
3.7972767
3.2545807
2.7498669
2.2865317
1.8674334
1.4955043
1.1732568
0.90223814
0.68274781
0.51360442
0.3921859
0.31449264
0.27565996
0.27019856
0.29241291
0.33669105
0.3977172
0.47065856
0.55131899
0.63610522
0.72205761
0.80687569
0.88880455
0.96651883
1.0391107
1.1060371
1.1668791
1.2215685
1.2700898
1.3125711
1.3491405
1.3800938
1.405863
1.4262366
1.4394564
1.4540282
-0.52417205
-0.53369032
-0.53830284
-0.54612852
-0.55528615
-0.56549572
-0.57708219
-0.59008957
-0.6044212
-0.61995289
-0.63642654
-0.65334809
-0.6699715
-0.68529015
-0.69796386
-0.70621511
-0.70776495
-0.69982057
-0.679075
-0.64170194
-0.58339086
-0.49947457
-0.38513493
-0.23563379
-0.046581879
0.18569839
0.46371764
0.78943943
1.1618884
1.5795904
2.0396695
2.5384973
3.0723926
3.6384239
4.2348652
4.8582227
5.4970164
6.1336496
6.7519094
7.339173
7.8854425
8.3828754
8.8262747
9.2132377
9.5433438
9.8164288
10.031248
10.185358
10.275822
10.300178
10.256973
10.144562
9.9653584
9.719652
9.4091658
9.0355688
8.6004058
8.1055955
7.554475
6.9529661
6.3102105
5.6391989
4.9569721
4.2836167
3.6390355
3.0372704
2.4834415
1.9787785
1.5252953
1.1262638
0.78514279
0.50415218
0.28363241
0.12187217
0.015575791
-0.040715885
-0.05337996
-0.029427361
0.023968686
0.099899422
0.19199936
0.29457189
0.4028401
0.51286275
0.62148462
0.72628602
0.82562485
0.91828213
1.0035526
1.0811448
1.1507958
1.2127471
1.2670996
1.3142276
1.3544648
1.3881787
1.4159616
1.4377607
1.4518133
1.4666328
-0.5793553
-0.58944878
-0.59524595
-0.60496993
-0.61679299
-0.63051081
-0.64652023
-0.6650077
-0.68606485
-0.70972238
-0.73585049
-0.76411397
-0.79394842
-0.82447714
-0.85439463
-0.88188044
-0.90454575
-0.919367
-0.9226094
-0.90979931
-0.87578559
-0.81487986
-0.72105357
-0.58819625
-0.41048449
-0.18289688
0.098174166
0.43484881
0.82684913
1.2721995
1.7669746
2.3061516
2.884828
3.5001876
4.1546995
4.8502385
5.5710637
6.2886271
6.9819372
7.6373721
8.2441126
8.7927869
9.2778563
9.6982466
10.055843
10.352768
10.58847
10.759469
10.861348
10.890608
10.845604
10.722682
10.527691
10.259637
9.9210646
9.5135154
9.0373319
8.4925133
7.8808296
7.207421
6.4815693
5.7177815
4.9372838
4.167512
3.4383389
2.7698719
2.162631
1.6124347
1.1200225
0.69003969
0.32763099
0.036312553
-0.18326244
-0.33346366
-0.4191006
-0.44711791
-0.42603477
-0.36495374
-0.27290974
-0.15841581
-0.029113457
0.10837285
0.24861665
0.38735688
0.52133822
0.64818355
0.7663957
0.87500933
0.9735607
1.0620952
1.1406809
1.2097291
1.2697891
1.3213299
1.3649136
1.4011446
1.4307335
1.4537316
1.4684237
1.4833219
-0.63410201
-0.64457805
-0.65146553
-0.66301783
-0.67737844
-0.69445251
-0.71480464
-0.73880407
-0.76670956
-0.79872341
-0.83494087
-0.87529052
-0.91944191
-0.9666901
-1.0158591
-1.0652157
-1.1123477
-1.154015
-1.1860373
-1.2032659
-1.1996225
-1.1681878
-1.101386
-0.99132641
-0.83030743
-0.61142677
-0.32911369
0.017551157
0.43090315
0.90792389
1.4428106
2.0279446
2.6556252
3.3218389
4.0374097
4.8188219
5.6429665
6.4582663
7.2396128
7.9732323
8.6492572
9.2555036
9.7851028
10.239206
10.624089
10.94618
11.205871
11.397368
11.513539
11.549081
11.50142
11.3695
11.155402
10.862355
10.493918
10.051522
9.5334194
8.9361198
8.2585811
7.5046958
6.6830978
5.8082286
4.9057936
4.0135418
3.1796519
2.4377978
1.7752537
1.1757919
0.63859928
0.17225249
-0.21463699
-0.5165554
-0.73228629
-0.86505125
-0.92211779
-0.91257138
-0.84780037
-0.73966682
-0.59965192
-0.43822598
-0.26449327
-0.086054802
0.091059423
0.26233279
0.42448775
0.57537001
0.71372006
0.8390698
0.95130307
1.0507816
1.1381502
1.2140218
1.2793332
1.3349202
1.3814804
1.4198005
1.4508167
1.4747183
1.4898128
1.5045599
-0.68773169
-0.69846005
-0.70632612
-0.71949116
-0.73612082
-0.75632514
-0.78084738
-0.81020721
-0.84485553
-0.88526512
-0.93185231
-0.98486001
-1.044248
-1.1096071
-1.1800565
-1.2540861
-1.3293457
-1.4024502
-1.4688469
-1.5227291
-1.5569785
-1.5631841
-1.5318472
-1.4528373
-1.316044
-1.1121701
-0.83369271
-0.47674441
-0.039623587
0.47423392
1.0563634
1.6947138
2.3748569
3.0819385
3.847581
4.7340418
5.7075876
6.6376827
7.5194827
8.3450956
9.1041589
9.7769774
10.354291
10.840196
11.24935
11.597496
11.886467
12.104643
12.239705
12.283721
12.233568
12.089237
11.85237
11.530776
11.130675
10.65402
10.094941
9.4439896
8.6954249
7.8520661
6.9209936
5.9112546
4.8521579
3.7956065
2.8229613
2.0102179
1.3034487
0.65347367
0.063567543
-0.44671263
-0.86235936
-1.1747505
-1.3821664
-1.4893826
-1.5064368
-1.4465493
-1.3249507
-1.1570461
-0.95736487
-0.7387755
-0.51202111
-0.28571458
-0.06637731
0.14136786
0.33447371
0.51123386
0.67082167
0.81332751
0.93923788
1.0494185
1.1450117
1.2271799
1.2971026
1.3560084
1.4049185
1.4447975
1.4767526
1.5011699
1.5163788
1.530745
-0.73970668
-0.75052996
-0.7591203
-0.77357758
-0.79216344
-0.81517055
-0.84348033
-0.87779723
-0.91886029
-0.9674895
-1.0244577
-1.0903805
-1.1656456
-1.2503259
-1.3440085
-1.445548
-1.5528146
-1.6624668
-1.7697345
-1.86819
-1.9495628
-2.0037069
-2.0188141
-1.9819262
-1.8797148
-1.6994992
-1.4305413
-1.0659445
-0.60296232
-0.045924231
0.59307142
1.2965986
2.0355429
2.7450259
3.5057154
4.4813965
5.6635511
6.8014954
7.8092009
8.7454372
9.6107707
10.365318
10.994733
11.506216
11.932102
12.307377
12.635281
12.889717
13.049823
13.104495
13.050491
12.889887
12.622812
12.2665
11.832105
11.324494
10.729216
10.024872
9.1988436
8.2562551
7.2037437
6.0285355
4.7461739
3.4411839
2.2889804
1.4366404
0.7247681
0.026430106
-0.62951435
-1.1946571
-1.6444115
-1.9660686
-2.1577326
-2.2265961
-2.1877701
-2.0601279
-1.864251
-1.6202218
-1.3463105
-1.0581661
-0.76834641
-0.48635805
-0.21899767
0.0292527
0.25590823
0.45994135
0.64133684
0.80096912
0.94006343
1.0602522
1.1631945
1.2506432
1.324289
1.3856741
1.436111
1.4768122
1.5090943
1.5335358
1.5484985
1.5622056
-0.78953187
-0.80016823
-0.80918365
-0.82459845
-0.84471943
-0.86998739
-0.90145728
-0.94010352
-0.98700548
-1.0433428
-1.1102922
-1.1889747
-1.280393
-1.3852828
-1.5038769
-1.6356196
-1.7788881
-1.9306812
-2.086232
-2.2385984
-2.3783457
-2.4934229
-2.5692869
-2.5893784
-2.5360498
-2.3919601
-2.1418196
-1.7746431
-1.2845717
-0.67747936
0.02922143
0.81210353
1.6033941
2.2070655
2.8261395
3.8090087
5.3678094
6.7875698
7.9975263
9.1099605
10.145289
11.026127
11.720251
12.238558
12.658684
13.062904
13.452024
13.760849
13.956853
14.024948
13.963951
13.780615
13.470526
13.068361
12.59366
12.0627
11.441134
10.683875
9.7639857
8.6945603
7.491177
6.0996977
4.4337424
2.8216751
1.360808
0.55962566
-0.020967974
-0.73800814
-1.4789511
-2.1132497
-2.6018538
-2.9286414
-3.0926688
-3.1032532
-2.9856639
-2.7662776
-2.4728221
-2.1315145
-1.7652577
-1.3927144
-1.0282378
-0.68200601
-0.36064331
-0.068022491
0.1943288
0.4265258
0.62967947
0.80573837
0.95695345
1.0857878
1.1947572
1.2861506
1.362153
1.424785
1.4757277
1.516385
1.5482599
1.5721368
1.586461
1.5992012
-0.83670378
-0.84687635
-0.85603056
-0.87196314
-0.89299434
-0.91977008
-0.95357897
-0.995682
-1.0474858
-1.1105593
-1.1865953
-1.2773822
-1.3847009
-1.5101274
-1.6547893
-1.8190728
-2.0022664
-2.2020986
-2.4141578
-2.6312867
-2.8430641
-3.0354496
-3.1906835
-3.287646
-3.3029648
-3.2129616
-2.9962081
-2.6365441
-2.1191665
-1.4558766
-0.67116325
0.20885963
1.0477099
1.535887
2.1027266
3.3242244
8.0189824
8.8677997
8.2832743
9.4344076
10.666882
11.756375
12.556186
13.050328
13.401297
13.840149
14.336944
14.734466
14.981344
15.063366
14.987744
14.763579
14.405473
13.927668
13.395206
12.867545
12.242716
11.420552
10.348183
9.0964432
7.7221652
6.203539
4.5838473
2.0739252
-0.12830933
-0.74203973
-1.0407322
-1.7198369
-2.554998
-3.268012
-3.7939851
-4.114596
-4.2323293
-4.1529124
-3.9237951
-3.5796667
-3.1577244
-2.6919698
-2.2108091
-1.7362104
-1.2839446
-0.86432292
-0.48318011
-0.14292658
0.15645923
0.41676018
0.64071361
0.8316126
0.99312063
1.1286321
1.2415667
1.3350856
1.4118309
1.4742231
1.5243644
1.5639198
1.5945276
1.6171838
1.6304074
1.6418658
-0.88087315
-0.89035025
-0.89926142
-0.91510069
-0.93626712
-0.96365721
-0.9987709
-1.0431147
-1.09843
-1.1667561
-1.2504211
-1.3519979
-1.4741864
-1.619635
-1.7907173
-1.9892093
-2.2158151
-2.4695408
-2.7469345
-3.041228
-3.3414513
-3.6316413
-3.8903671
-4.0908421
-4.2021225
-4.1916788
-4.0297404
-3.6980699
-3.1515929
-2.4250457
-1.5412688
-0.52465588
0.44764397
1.0913978
2.0431323
3.9163642
10.053115
11.6133
9.6154175
9.863337
11.285863
12.615381
13.555195
13.916725
14.038316
14.772723
15.275091
15.842843
16.151188
16.242026
16.142885
15.860692
15.418387
14.827263
14.196028
13.728572
13.142307
12.235379
10.940265
9.4551363
8.144111
7.3020232
4.2690749
0.30968484
-1.566615
-2.2075627
-2.3475636
-3.0097112
-3.9508723
-4.7487323
-5.3035577
-5.5932761
-5.6144015
-5.415567
-5.0306907
-4.5164666
-3.9247824
-3.2997973
-2.6761644
-2.0789247
-1.5245301
-1.0222751
-0.57615182
-0.18610528
0.15036677
0.43736933
0.67987074
0.88295385
1.0518482
1.1913257
1.3056646
1.3988646
1.4742414
1.5346133
1.5824246
1.6196249
1.6479782
1.6687037
1.6803305
1.6901829
-0.92186443
-0.93034836
-0.93852782
-0.95358735
-0.97403985
-1.0009918
-1.0360856
-1.0810613
-1.138039
-1.2095907
-1.2987349
-1.4089077
-1.5438941
-1.7077087
-1.9043799
-2.1375846
-2.4100894
-2.722995
-3.0747676
-3.4600132
-3.8680437
-4.2814197
-4.6748185
-5.0145951
-5.2597051
-5.3644298
-5.2828922
-4.9725695
-4.4354382
-3.6415318
-2.6255016
-1.4150498
-0.19548807
0.80703677
2.1660464
4.2407208
9.1103127
11.419626
10.697647
10.256371
11.966789
13.627116
14.791221
14.751937
14.622803
15.107415
16.136535
17.091202
17.496277
17.588566
17.456847
17.09753
16.505327
15.816381
15.348196
14.706672
14.167407
13.132743
11.537397
9.7869652
9.1366437
7.2434046
2.7438178
-0.4461553
-2.5797776
-3.4174278
-3.7913498
-4.6481512
-5.7552316
-6.6601018
-7.2393881
-7.4691635
-7.352247
-6.953616
-6.3421096
-5.5936088
-4.7771845
-3.9487481
-3.1493604
-2.4061168
-1.7345524
-1.1411487
-0.62635368
-0.18623681
0.18540248
0.49592013
0.75306343
0.96431387
1.136598
1.2762384
1.3886787
1.4786328
1.550111
1.6063632
1.6501008
1.6835095
1.7084993
1.7264799
1.7360133
1.7439878
-0.95956193
-0.96671663
-0.97369412
-0.98728104
-1.0060702
-1.0313171
-1.0647739
-1.1084221
-1.1647643
-1.2368908
-1.3285138
-1.4440112
-1.5884366
-1.76746
-1.9871764
-2.2537559
-2.5728836
-2.948903
-3.3835771
-3.8744006
-4.4124699
-4.9800635
-5.5483131
-6.0756675
-6.5080122
-6.7819805
-6.8326951
-6.6045957
-6.0688364
-5.1911368
-4.0071609
-2.5545507
-1.0170255
0.36627378
2.0180029
4.2158148
6.9112818
12.173672
11.149025
11.077885
12.907834
14.941108
16.854909
16.01967
15.702584
19.702272
18.963252
18.643663
18.923336
19.076916
18.951423
18.543914
17.76418
16.668854
15.878297
15.6225
15.33036
14.139542
12.205133
9.9960374
10.36172
7.081747
3.4143689
-0.09772936
-2.6173528
-4.0584492
-5.2906945
-6.6600521
-8.0597515
-9.1259171
-9.7329511
-9.8599513
-9.5215413
-8.8311324
-7.8965978
-6.8263741
-5.7127529
-4.6254198
-3.6110034
-2.6963113
-1.8930527
-1.2020523
-0.61757633
-0.12997532
0.27215956
0.60054173
0.86637191
1.0799612
1.2503863
1.3854804
1.4918595
1.5750358
1.6396198
1.6893263
1.7270794
1.7551827
1.775636
1.7900009
1.7969274
1.8028038
-0.99397197
-0.9995747
-1.0049377
-1.0163108
-1.0323604
-1.0544612
-1.0844502
-1.1245069
-1.1774397
-1.2467909
-1.3369481
-1.4532832
-1.6022436
-1.7913758
-2.0292426
-2.3251948
-2.6888902
-3.1293829
-3.6536294
-4.2643374
-4.9570046
-5.7160808
-6.5105961
-7.2904491
-7.9845634
-8.5041739
-8.7539844
-8.6513188
-8.1523396
-7.1759699
-5.7913766
-4.0544102
-2.1423271
-0.3089552
1.6514777
4.0696414
6.7350211
13.1115
11.818212
11.947388
14.205515
16.655495
20.197485
18.390342
23.269697
35.556658
35.570497
25.09961
19.78644
20.644003
20.505843
20.152309
19.126214
17.286519
16.649161
17.185001
17.281597
15.452861
13.21893
10.625395
10.940147
7.8159266
4.5327518
0.86543918
-2.2950877
-4.7591747
-7.0487924
-9.1560334
-11.010136
-12.324944
-12.970882
-12.911712
-12.254232
-11.134753
-9.7381779
-8.225503
-6.7198926
-5.3054465
-4.0312858
-2.9192232
-1.9721677
-1.1811123
-0.53041085
-0.0021250722
0.42212097
0.75958879
1.02577
1.2339841
1.3956736
1.5203985
1.6158404
1.688236
1.7426225
1.7830731
1.8127054
1.8339042
1.848604
1.8584309
1.8621611
1.8655125
-1.0254546
-1.0293794
-1.0327104
-1.0410661
-1.0532418
-1.070682
-1.0952246
-1.12914
-1.175422
-1.237967
-1.3217675
-1.4331394
-1.5799208
-1.7716612
-2.0197564
-2.3374437
-2.7395041
-3.2414508
-3.8579709
-4.6004588
-5.4731331
-6.4671849
-7.5531492
-8.6730039
-9.7342452
-10.610853
-11.156243
-11.235547
-10.753475
-9.722462
-8.0970578
-6.0172669
-3.6572105
-1.2429591
1.2178087
4.0308772
7.1856694
10.094924
14.061816
13.298642
15.776617
18.655133
23.060001
20.793017
35.87317
33.430392
32.578048
35.343834
20.951267
21.14649
21.336835
20.83608
19.504041
18.691017
16.332185
18.635059
19.577651
17.328834
14.816561
11.614147
11.979652
9.2563424
5.8857952
1.8203073
-2.2645039
-5.9401233
-9.298698
-12.335216
-14.844656
-16.544076
-17.280884
-16.946581
-15.752646
-13.976827
-11.912929
-9.7916497
-7.7718893
-5.9487928
-4.3664264
-3.0334239
-1.9360457
-1.0490732
-0.34227947
0.21401617
0.6471958
0.98115884
1.2363178
1.4294386
1.5741543
1.6815488
1.7603729
1.8174677
1.8581256
1.8865232
1.9058446
1.9184851
1.9262597
1.9307026
1.9306414
1.9309239
-1.054928
-1.0568915
-1.0577367
-1.062286
-1.0694874
-1.0807431
-1.0977648
-1.1227793
-1.1588185
-1.2099681
-1.2816388
-1.3808896
-1.5167958
-1.7008892
-1.9476054
-2.2746219
-2.7029189
-3.2564305
-3.960796
-4.8409952
-5.9167291
-7.1941083
-8.6530948
-10.231942
-11.812515
-13.214561
-14.205211
-14.570721
-14.185674
-13.030836
-11.031045
-8.5067866
-5.6395218
-2.59836
0.45756076
3.8004701
7.6284728
10.968879
16.800067
14.95147
17.304694
18.134452
20.83085
16.946411
33.028396
30.204235
29.798743
33.444824
19.658677
21.09926
21.826789
21.499546
19.742986
24.05151
40.626904
39.210348
24.338597
20.008877
17.172161
13.673527
14.185463
11.327491
7.0822291
2.4358363
-2.613847
-7.5266795
-12.135929
-16.346823
-19.835676
-22.17996
-23.089955
-22.29434
-20.243306
-17.477147
-14.46172
-11.509643
-8.8207319
-6.4942019
-4.5545657
-2.9838141
-1.7397781
-0.7715924
-0.02827548
0.53558444
0.95852361
1.2721225
1.5017807
1.6677512
1.7858145
1.8681536
1.9241833
1.961125
1.9843647
1.9979131
2.0048222
2.0073105
2.0070051
2.005294
2.0009921
1.9977942
-1.0834513
-1.083105
-1.0810654
-1.081107
-1.0823266
-1.0859295
-1.093379