/*--------------------------------*- C++ -*----------------------------------*\
  =========                 |
  \\      /  F ield         | OpenFOAM: The Open Source CFD Toolbox
   \\    /   O peration     | Website:  https://openfoam.org
    \\  /    A nd           | Version:  9
     \\/     M anipulation  |
\*---------------------------------------------------------------------------*/
FoamFile
{
    format      ascii;
    class       volScalarField;
    location    "9.5";
    object      Ma;
}
// * * * * * * * * * * * * * * * * * * * * * * * * * * * * * * * * * * * * * //

dimensions      [0 0 0 0 0 0 0];

internalField   nonuniform List<scalar> 
5250
(
2.99999
2.99996
2.99988
2.99966
2.99921
2.99785
2.9952
2.98684
2.97037
2.92148
2.81179
2.52749
1.92092
0.936783
0.382741
0.334793
0.346738
0.338741
0.304808
0.252129
0.203413
0.162458
0.121182
0.0755973
0.0419829
2.99999
2.99996
2.99988
2.99967
2.99918
2.99799
2.9949
2.98788
2.96869
2.92547
2.81001
2.53513
1.92907
0.948402
0.390433
0.336241
0.348324
0.340812
0.307386
0.255679
0.208181
0.168606
0.129563
0.0892444
0.0652773
2.99999
2.99996
2.99988
2.99967
2.99923
2.99793
2.99531
2.98733
2.97127
2.92394
2.8181
2.54204
1.95032
0.974159
0.408036
0.340285
0.353014
0.347014
0.315061
0.265797
0.221203
0.185058
0.151111
0.119421
0.103825
2.99999
2.99996
2.99989
2.99967
2.99928
2.99795
2.99557
2.98769
2.97223
2.92682
2.82403
2.55746
1.9811
1.01463
0.434627
0.345807
0.360151
0.356944
0.3273
0.28161
0.240936
0.209309
0.181168
0.156795
0.145929
2.99999
2.99996
2.99989
2.99972
2.99923
2.99826
2.99526
2.9894
2.97132
2.93378
2.82829
2.58146
2.02138
1.07101
0.470218
0.35235
0.369415
0.370186
0.343399
0.301966
0.265737
0.238944
0.216409
0.19793
0.190349
3
2.99996
2.9999
2.99971
2.99936
2.99818
2.99601
2.98911
2.97504
2.93491
2.84284
2.60395
2.07615
1.14594
0.515128
0.360139
0.381168
0.386966
0.363321
0.326625
0.2952
0.273548
0.256702
0.243899
0.2398
3
2.99997
2.99991
2.99975
2.99937
2.99842
2.9961
2.99046
2.97602
2.94175
2.85344
2.63714
2.14095
1.24286
0.570476
0.370366
0.396131
0.407713
0.387271
0.355509
0.329173
0.313023
0.302382
0.296124
0.29743
3
2.99997
2.99992
2.99976
2.99947
2.99849
2.99668
2.99098
2.97931
2.94612
2.87023
2.67178
2.22054
1.36593
0.6368
0.385607
0.416255
0.433322
0.415648
0.388849
0.367729
0.357684
0.354384
0.357024
0.368885
3
2.99998
2.99992
2.99981
2.99948
2.99878
2.99687
2.99241
2.98127
2.95343
2.88519
2.71346
2.3093
1.51649
0.715351
0.412718
0.445915
0.465705
0.450133
0.42768
0.41177
0.407837
0.413405
0.430416
0.464763
3
2.99998
2.99993
2.99984
2.99954
2.99899
2.9972
2.99372
2.98335
2.96104
2.90035
2.7571
2.40616
1.69785
0.806763
0.458378
0.490036
0.506689
0.493096
0.473542
0.462026
0.463723
0.482414
0.526414
0.627777
3
2.99998
2.99995
2.99985
2.99963
2.99906
2.99769
2.99436
2.98582
2.96598
2.91384
2.78936
2.48149
1.83543
0.892513
0.499835
0.525114
0.541423
0.536416
0.522082
0.515518
0.524978
0.561139
0.641856
0.800948
3
2.99999
2.99996
2.99987
2.99968
2.99917
2.99807
2.99485
2.98837
2.9688
2.92781
2.81346
2.54751
1.95731
1.01516
0.566169
0.549527
0.565726
0.571469
0.56667
0.56798
0.586894
0.63679
0.733446
0.890104
3
2.99999
2.99996
2.9999
2.99971
2.99934
2.99817
2.99603
2.98892
2.97537
2.93446
2.84389
2.60561
2.08387
1.1753
0.651115
0.566371
0.584081
0.598925
0.60511
0.615916
0.643944
0.699264
0.790905
0.918522
3
2.99999
2.99997
2.99991
2.99978
2.99938
2.99865
2.99619
2.99173
2.97735
2.94803
2.86505
2.6718
2.21326
1.37002
0.752576
0.587387
0.603518
0.623586
0.639603
0.658352
0.691687
0.746523
0.82681
0.932484
3
3
2.99998
2.99993
2.99981
2.99952
2.99882
2.9971
2.99275
2.98263
2.95575
2.89336
2.7315
2.35467
1.60396
0.873781
0.627552
0.63495
0.653343
0.67419
0.696675
0.730976
0.782526
0.853225
0.943004
3
3
2.99998
2.99994
2.99986
2.9996
2.99911
2.99761
2.99449
2.98581
2.96614
2.91513
2.7922
2.49223
1.86623
1.01382
0.688486
0.677993
0.69205
0.712549
0.733907
0.765921
0.81252
0.87474
0.952051
3.00001
3
2.99999
2.99995
2.99989
2.99968
2.9993
2.99803
2.99574
2.98827
2.97354
2.93078
2.83436
2.58579
2.04943
1.16892
0.75791
0.713134
0.727257
0.746214
0.768056
0.797636
0.839089
0.893113
0.959486
3.00001
3
2.99999
2.99997
2.99991
2.99977
2.99938
2.99861
2.9962
2.99164
2.97718
2.94812
2.86499
2.67336
2.22026
1.39866
0.867554
0.744716
0.754214
0.772497
0.7962
0.824881
0.862209
0.908987
0.96559
3.00001
3
3
2.99998
2.99993
2.99982
2.99956
2.99884
2.99734
2.99291
2.98399
2.95752
2.90077
2.74693
2.39612
1.68399
1.00512
0.790923
0.783846
0.797629
0.821865
0.849504
0.882543
0.922502
0.970349
3.00001
3
3
2.99999
2.99995
2.99988
2.99964
2.99921
2.99784
2.99512
2.98727
2.9701
2.92444
2.81682
2.55064
1.98457
1.17464
0.857133
0.820227
0.829183
0.849305
0.873967
0.901041
0.934429
0.973243
3.00001
3.00001
3
2.99999
2.99996
2.99991
2.99973
2.99941
2.99835
2.99642
2.99019
2.97789
2.94233
2.86267
2.65591
2.19848
1.39047
0.945311
0.852782
0.857287
0.873161
0.894977
0.917802
0.944566
0.973855
3.00001
3.00001
3
2.99999
2.99998
2.99993
2.99981
2.99954
2.99883
2.99728
2.99284
2.98381
2.95703
2.9002
2.7453
2.3956
1.68997
1.07994
0.897259
0.884991
0.894482
0.912582
0.932423
0.951721
0.970348
3.00001
3.00001
3
3
2.99998
2.99995
2.99986
2.99969
2.99914
2.99811
2.9948
2.98866
2.9694
2.93012
2.82097
2.57337
2.02561
1.26082
0.963716
0.916384
0.918473
0.929452
0.943664
0.953476
0.960701
3.00001
3.00001
3
3
2.99999
2.99997
2.9999
2.99978
2.99938
2.99865
2.99625
2.99187
2.97789
2.94982
2.87044
2.68921
2.26212
1.50241
1.05596
0.945579
0.936917
0.940485
0.9466
0.947625
0.945117
3.00001
3.00001
3.00001
3
3
2.99998
2.99994
2.99984
2.99958
2.99902
2.99743
2.9942
2.98453
2.96508
2.90904
2.78412
2.47336
1.84455
1.19906
0.986664
0.954365
0.946552
0.942572
0.935734
0.926322
3.00001
3.00001
3.00001
3
3
2.99999
2.99996
2.99988
2.99973
2.99925
2.99836
2.99559
2.99002
2.97413
2.93916
2.84692
2.63169
2.14566
1.39064
1.04577
0.966192
0.942969
0.929937
0.91662
0.90434
3.00001
3.00001
3.00001
3.00001
3
2.99999
2.99997
2.99992
2.9998
2.99953
2.99873
2.99719
2.99232
2.98313
2.95497
2.89572
2.73556
2.3781
1.67958
1.14699
0.973491
0.927571
0.907164
0.891554
0.879473
3.00001
3.00001
3.00001
3.00001
3
3
2.99998
2.99995
2.99986
2.99966
2.99916
2.99794
2.99503
2.98755
2.9706
2.92575
2.82206
2.56605
2.02163
1.29331
0.987535
0.901257
0.873958
0.861344
0.853765
3.00001
3.00001
3.00001
3.00001
3
3
2.99999
2.99996
2.99991
2.99974
2.99944
2.99843
2.99658
2.99075
2.97903
2.94574
2.87087
2.67773
2.24837
1.48776
1.01356
0.85444
0.825564
0.822337
0.826245
3.00001
3.00001
3.00001
3.00001
3.00001
3
2.99999
2.99998
2.99993
2.99984
2.99954
2.99897
2.99728
2.99371
2.98399
2.96168
2.90485
2.76773
2.44234
1.7916
1.06774
0.799447
0.768621
0.780216
0.802844
3.00001
3.00001
3.00001
3.00001
3.00001
3
3
2.99998
2.99995
2.99987
2.99965
2.99919
2.99783
2.99516
2.98685
2.97048
2.92204
2.81481
2.53934
1.96121
1.10503
0.724582
0.686892
0.721994
0.769345
3.00001
3.00001
3.00001
3.00001
3.00001
3
3
2.99999
2.99996
2.99989
2.99972
2.9993
2.99829
2.99568
2.98973
2.97341
2.93691
2.83866
2.60499
2.07525
1.19111
0.67147
0.588278
0.645638
0.719883
3.00001
3.00001
3.00001
3.00001
3.00001
3
3
2.99999
2.99997
2.9999
2.99978
2.99937
2.99859
2.99617
2.99121
2.97694
2.94497
2.85936
2.65287
2.17049
1.30765
0.649057
0.487084
0.566556
0.665492
3.00001
3.00001
3.00001
3.00001
3.00001
3.00001
3
2.99999
2.99997
2.99992
2.9998
2.99946
2.99874
2.99662
2.99235
2.97915
2.95212
2.87373
2.69182
2.24858
1.42127
0.645194
0.403083
0.505018
0.619776
3.00001
3.00001
3.00001
3.00001
3.00001
3.00001
3
2.99999
2.99998
2.99993
2.99982
2.99952
2.99884
2.99709
2.99274
2.98229
2.95488
2.88951
2.72005
2.31879
1.53261
0.660799
0.351674
0.468814
0.58396
3.00001
3.00001
3.00001
3.00001
3.00001
3.00001
3
3
2.99998
2.99993
2.99983
2.99956
2.99893
2.99734
2.99333
2.98385
2.95861
2.89952
2.74468
2.37724
1.63211
0.686574
0.324919
0.446349
0.554828
3.00001
3.00001
3.00001
3.00001
3.00001
3.00001
3
3
2.99998
2.99994
2.99984
2.9996
2.99898
2.99756
2.9936
2.98515
2.96066
2.90666
2.76008
2.41576
1.69618
0.715642
0.313134
0.431206
0.529925
3.00001
3.00001
3.00001
3.00001
3.00001
3.00001
3
3
2.99998
2.99994
2.99985
2.99962
2.99905
2.99759
2.99423
2.98502
2.96451
2.90837
2.77514
2.44175
1.74549
0.754495
0.321363
0.421866
0.508228
3.00001
3.00001
3.00001
3.00001
3.00001
3.00001
3
3
2.99998
2.99995
2.99985
2.99966
2.99903
2.99783
2.99415
2.98638
2.96458
2.9144
2.78187
2.46544
1.78602
0.793192
0.337753
0.414274
0.488761
3.00001
3.00001
3.00001
3.00001
3.00001
3.00001
3
3
2.99998
2.99995
2.99986
2.99966
2.99907
2.99794
2.99421
2.98723
2.96507
2.91846
2.78829
2.48366
1.81837
0.828954
0.357327
0.408481
0.4744
3.00001
3.00001
3.00001
3.00001
3.00001
3.00001
3
3
2.99999
2.99995
2.99987
2.99964
2.99919
2.99775
2.99505
2.98613
2.96887
2.91684
2.79905
2.49533
1.8451
0.863386
0.376515
0.4034
0.464873
3.00001
3.00001
3.00001
3.00001
3.00001
3.00001
3
3
2.99999
2.99995
2.99987
2.99967
2.99917
2.99796
2.99477
2.98758
2.96752
2.9224
2.80076
2.51059
1.86817
0.896712
0.392083
0.398569
0.4591
3.00001
3.00001
3.00001
3.00001
3.00001
3.00001
3
3
2.99999
2.99996
2.99987
2.99968
2.99919
2.99798
2.99505
2.98737
2.96961
2.92208
2.80809
2.52063
1.89134
0.92621
0.404951
0.394292
0.45437
3.00001
3.00001
3.00001
3.00001
3.00001
3.00001
3
3
2.99999
2.99995
2.99988
2.99968
2.99923
2.99794
2.99533
2.98726
2.97091
2.92288
2.81352
2.53002
1.91541
0.950311
0.41598
0.390717
0.450339
3.00001
3.00001
3.00001
3.00001
3.00001
3.00001
3
3
2.99999
2.99995
2.99988
2.99968
2.99926
2.99794
2.99548
2.98734
2.97159
2.92421
2.81715
2.5388
1.93719
0.970221
0.42593
0.387881
0.446767
3.00001
3.00001
3.00001
3.00001
3.00001
3.00001
3
3
2.99999
2.99996
2.99988
2.99969
2.99924
2.99805
2.99536
2.98785
2.9715
2.92579
2.81957
2.54612
1.95437
0.986681
0.434914
0.385851
0.44377
3.00001
3.00001
3.00001
3.00001
3.00001
3.00001
3
3
2.99999
2.99996
2.99988
2.99971
2.99921
2.99818
2.99505
2.98889
2.96975
2.92995
2.81753
2.55434
1.96384
1.00084
0.442837
0.384586
0.441358
3.00001
3.00001
3.00001
3.00001
3.00001
3.00001
3
3
2.99999
2.99996
2.99988
2.9997
2.99923
2.99817
2.99514
2.98887
2.97018
2.93025
2.81925
2.5579
1.97185
1.01128
0.449094
0.383727
0.439376
3.00001
3.00001
3.00001
3.00001
3.00001
3.00001
3
3
2.99999
2.99996
2.99988
2.99971
2.99922
2.9982
2.99511
2.98899
2.97023
2.93067
2.82022
2.56029
1.97718
1.01818
0.453468
0.383175
0.437866
3.00001
3.00001
3.00001
3.00001
3.00001
3.00001
3
3
2.99999
2.99995
2.99989
2.99969
2.99927
2.99809
2.99538
2.9885
2.9713
2.92928
2.82259
2.5599
1.98054
1.02177
0.455739
0.382916
0.436963
0.973634
0.768274
0.25352
0.243193
0.317159
0.397602
0.425576
0.447642
0.47681
0.50562
0.526422
0.536267
0.537308
0.533707
0.526565
0.514216
0.496676
0.475046
0.45135
0.426274
0.400545
0.37408
0.347217
0.319873
0.292201
0.2643
0.235705
0.206752
0.178009
0.149643
0.121795
0.0944798
0.0675352
0.0413543
0.0196731
0.0212509
0.0449302
0.0693498
0.0939139
0.117718
0.14087
0.162946
0.184001
0.205886
0.228329
0.25021
0.27127
0.291916
0.312017
0.331951
0.351375
0.370633
0.389474
0.408095
0.426378
0.444463
0.462154
0.479789
0.496962
0.514116
0.530801
0.547485
0.56376
0.579955
0.595874
0.611606
0.62713
0.642466
0.657554
0.672513
0.68716
0.701711
0.715922
0.730056
0.743824
0.757562
0.770891
0.784251
0.797164
0.810131
0.82266
0.835194
0.84736
0.859413
0.871204
0.882742
0.894094
0.905076
0.915841
0.92618
0.936193
0.945721
0.954733
0.963128
0.97077
0.977567
0.983326
0.988037
0.991388
0.995453
0.954956
0.831884
0.563128
0.415862
0.278925
0.14272
0.0502438
0.134577
0.20501
0.253151
0.279199
0.28515
0.279156
0.272489
0.264226
0.252321
0.234563
0.214012
0.192273
0.169174
0.145635
0.121808
0.0978604
0.0743953
0.0523884
0.0358725
0.0335307
0.0488997
0.0697595
0.0928085
0.116165
0.139703
0.162874
0.185728
0.207847
0.229022
0.249901
0.270812
0.291592
0.312026
0.332199
0.351531
0.370094
0.388865
0.408337
0.427486
0.446055
0.464034
0.481868
0.499297
0.516532
0.53349
0.550175
0.566668
0.582858
0.598895
0.614638
0.630234
0.645605
0.660751
0.675784
0.690506
0.705175
0.719531
0.733812
0.74785
0.761753
0.775478
0.789015
0.802411
0.815568
0.828624
0.841382
0.854094
0.866451
0.878823
0.890804
0.902836
0.914482
0.926159
0.937503
0.948796
0.959845
0.970721
0.981437
0.991892
1.0022
1.01219
1.02197
1.03145
1.04059
1.04937
1.05762
1.06538
1.07237
1.07864
1.08386
1.08815
1.09106
1.09476
0.969131
0.935764
0.827034
0.733637
0.625718
0.51102
0.401049
0.304367
0.223881
0.159313
0.107304
0.0669706
0.04045
0.03268
0.052021
0.0558776
0.0791116
0.0932483
0.110099
0.127652
0.145938
0.16494
0.184473
0.204455
0.224705
0.244912
0.264916
0.284612
0.304268
0.323902
0.343479
0.362787
0.381846
0.400568
0.418759
0.436504
0.453886
0.47119
0.488338
0.505303
0.522137
0.538287
0.553803
0.569251
0.585365
0.601709
0.617383
0.632787
0.647769
0.662745
0.677378
0.69202
0.706326
0.720585
0.734612
0.748489
0.76228
0.775816
0.789353
0.802576
0.815818
0.828755
0.841702
0.854382
0.867063
0.8795
0.891929
0.904116
0.916275
0.928202
0.940058
0.951713
0.963245
0.97461
0.985818
0.99688
1.00779
1.01853
1.02919
1.03958
1.05
1.06002
1.07021
1.07988
1.08986
1.09923
1.10892
1.11793
1.12721
1.13572
1.14436
1.15217
1.15995
1.16675
1.17333
1.17869
1.18354
1.18699
1.18953
1.19248
0.996554
1.00968
0.973668
0.920389
0.85008
0.769638
0.68686
0.608055
0.53903
0.483411
0.439517
0.408915
0.391535
0.381528
0.384818
0.390258
0.394322
0.399437
0.406781
0.416127
0.42698
0.438952
0.451769
0.465344
0.479284
0.493697
0.507915
0.52225
0.536402
0.550671
0.564846
0.578926
0.592916
0.606562
0.620124
0.633195
0.646279
0.659109
0.672069
0.684889
0.697805
0.710245
0.722187
0.733956
0.746472
0.759384
0.772154
0.784461
0.796708
0.808685
0.820812
0.83264
0.844695
0.856364
0.868318
0.879833
0.891656
0.903036
0.914704
0.925957
0.937462
0.948594
0.959939
0.970954
0.982138
0.99303
1.00404
1.0148
1.02561
1.03621
1.04682
1.05724
1.06762
1.07783
1.088
1.09799
1.10796
1.1177
1.12751
1.13703
1.14678
1.15615
1.1658
1.17498
1.18439
1.19325
1.20227
1.21076
1.2193
1.22731
1.23522
1.24257
1.24962
1.25602
1.26187
1.26686
1.271
1.27414
1.27602
1.27886
1.01447
1.05104
1.05232
1.02803
0.98866
0.934225
0.875388
0.81594
0.764431
0.721858
0.69106
0.670264
0.660461
0.658004
0.661737
0.669112
0.674171
0.67559
0.676673
0.679737
0.683828
0.688939
0.694963
0.701588
0.708919
0.716481
0.724509
0.73236
0.740523
0.748539
0.756872
0.765171
0.773606
0.782091
0.790492
0.798996
0.807355
0.815967
0.824524
0.833465
0.842368
0.851392
0.859712
0.868356
0.877267
0.887258
0.897132
0.907087
0.916702
0.926484
0.936171
0.946047
0.955884
0.96587
0.975794
0.985855
0.995813
1.00592
1.01588
1.02599
1.03594
1.04601
1.05594
1.06595
1.07583
1.08577
1.0956
1.10547
1.11519
1.12497
1.13455
1.14422
1.15361
1.16311
1.17233
1.18167
1.1908
1.20009
1.20923
1.21839
1.22743
1.23634
1.24522
1.25387
1.26253
1.27088
1.27922
1.28719
1.29511
1.30257
1.3099
1.31664
1.32314
1.32882
1.3341
1.33828
1.34183
1.34409
1.34544
1.34771
1.02205
1.06995
1.09067
1.08877
1.06862
1.03479
0.991571
0.948108
0.909756
0.881572
0.864241
0.857031
0.857852
0.862383
0.867419
0.873099
0.879693
0.882959
0.881541
0.879552
0.878478
0.878641
0.879412
0.881181
0.883129
0.885734
0.888353
0.891318
0.894285
0.897638
0.901212
0.905121
0.909278
0.913709
0.918261
0.923111
0.928011
0.933351
0.938806
0.944828
0.951035
0.957493
0.96351
0.969775
0.976454
0.984103
0.992129
1.00021
1.00827
1.01632
1.02456
1.03281
1.04132
1.04981
1.05857
1.06726
1.0762
1.08506
1.09412
1.10315
1.11233
1.12149
1.13074
1.14003
1.14929
1.15866
1.16789
1.17729
1.18644
1.19579
1.20481
1.21406
1.22296
1.23207
1.24097
1.25001
1.2589
1.26768
1.27645
1.28496
1.29362
1.30185
1.31035
1.3183
1.32658
1.33423
1.3422
1.34949
1.35701
1.36383
1.37074
1.37689
1.38288
1.38803
1.39264
1.39631
1.39904
1.40069
1.40144
1.4039
1.02436
1.07493
1.10571
1.11639
1.10978
1.08872
1.05818
1.02606
0.999012
0.982465
0.976339
0.979618
0.988482
0.999027
1.00822
1.01505
1.02065
1.0256
1.02646
1.02292
1.01814
1.01426
1.01155
1.00978
1.00876
1.00803
1.00765
1.00737
1.0074
1.00775
1.00836
1.00936
1.01071
1.01246
1.01457
1.01714
1.02002
1.02338
1.02708
1.03132
1.036
1.04088
1.04562
1.05047
1.05589
1.06206
1.0689
1.0758
1.08295
1.09003
1.09741
1.10476
1.11244
1.12013
1.1281
1.13609
1.14428
1.15249
1.16085
1.16922
1.17771
1.18622
1.19481
1.20342
1.21208
1.22075
1.22944
1.23814
1.24681
1.25548
1.26413
1.2728
1.28147
1.2901
1.29872
1.30717
1.31571
1.324
1.33248
1.34057
1.34895
1.35681
1.36503
1.37262
1.38057
1.38785
1.39539
1.40227
1.40924
1.41561
1.42183
1.42741
1.43261
1.43697
1.44072
1.44338
1.44506
1.44568
1.44583
1.44821
1.02329
1.07178
1.10537
1.12164
1.12192
1.10845
1.08662
1.0638
1.04742
1.04123
1.04516
1.05665
1.07218
1.08848
1.10204
1.11165
1.11763
1.12239
1.12529
1.1244
1.11939
1.11353
1.10868
1.1048
1.10178
1.09919
1.09711
1.09528
1.09376
1.09246
1.09149
1.0909
1.09073
1.09099
1.0917
1.09293
1.09442
1.09649
1.09881
1.10173
1.10501
1.10857
1.11201
1.11563
1.11983
1.12474
1.13036
1.13614
1.14235
1.1485
1.15506
1.16153
1.16844
1.17527
1.18254
1.18972
1.19729
1.20478
1.2126
1.22035
1.22838
1.23636
1.24457
1.25274
1.26108
1.26939
1.27782
1.28621
1.29472
1.3032
1.31177
1.32021
1.32873
1.33705
1.34553
1.35369
1.36209
1.37007
1.37837
1.38618
1.39432
1.40197
1.40989
1.41733
1.42494
1.43208
1.43926
1.44595
1.45255
1.45865
1.46441
1.46962
1.47416
1.47801
1.48083
1.48273
1.48331
1.48341
1.48322
1.48556
1.01952
1.06217
1.09348
1.11032
1.11265
1.10385
1.08894
1.07561
1.06952
1.07307
1.0851
1.10293
1.12313
1.14289
1.15968
1.17218
1.18055
1.18533
1.1894
1.19124
1.1896
1.18445
1.17873
1.17355
1.16907
1.16512
1.16191
1.15888
1.15636
1.15385
1.1518
1.1499
1.14854
1.14743
1.14698
1.1468
1.14721
1.14803
1.14925
1.15104
1.15328
1.15587
1.15844
1.16124
1.16467
1.16874
1.17351
1.17854
1.18407
1.18967
1.19569
1.20169
1.20809
1.21449
1.22126
1.22805
1.23516
1.2423
1.24972
1.25717
1.26483
1.27256
1.28043
1.28839
1.29642
1.30454
1.3127
1.32099
1.32922
1.33751
1.34574
1.35398
1.36222
1.37036
1.37858
1.38658
1.3947
1.40256
1.41052
1.41822
1.426
1.43351
1.44104
1.4483
1.4555
1.4624
1.46911
1.47552
1.48157
1.48725
1.49233
1.49687
1.50063
1.50345
1.50536
1.50588
1.50587
1.50565
1.50452
1.50649
1.01265
1.04762
1.07265
1.08625
1.08835
1.08307
1.07595
1.07255
1.07663
1.08852
1.10666
1.12842
1.15116
1.17304
1.19184
1.20705
1.21796
1.2254
1.22986
1.23356
1.23525
1.23412
1.22995
1.22491
1.21982
1.21514
1.21087
1.20725
1.20386
1.20092
1.19814
1.19577
1.19368
1.19208
1.19089
1.19023
1.19001
1.19026
1.19098
1.19222
1.19401
1.1961
1.1983
1.20065
1.2037
1.20725
1.21149
1.21597
1.22106
1.22625
1.23194
1.23765
1.24379
1.24994
1.25645
1.263
1.26987
1.27681
1.284
1.29127
1.29875
1.30631
1.31402
1.3218
1.3297
1.33765
1.3457
1.35368
1.36175
1.36977
1.37784
1.38591
1.39393
1.40202
1.40995
1.41797
1.42582
1.43365
1.44145
1.44903
1.45671
1.46402
1.47143
1.47845
1.48541
1.49202
1.49833
1.5044
1.50985
1.51501
1.51928
1.52301
1.52568
1.52736
1.52781
1.52763
1.5271
1.52585
1.52267
1.5235
1.00203
1.02694
1.04438
1.05354
1.05568
1.05529
1.05669
1.06298
1.07548
1.09367
1.11565
1.13933
1.1631
1.18546
1.20568
1.2226
1.23629
1.24636
1.25392
1.25859
1.26216
1.2644
1.26455
1.26169
1.25735
1.25282
1.24815
1.24393
1.24
1.23668
1.23359
1.23092
1.22862
1.22662
1.22517
1.22402
1.22347
1.22323
1.22354
1.22433
1.22572
1.22734
1.2292
1.23113
1.23384
1.23695
1.2408
1.2448
1.24952
1.25431
1.25974
1.26514
1.27107
1.27694
1.28324
1.28951
1.29615
1.3028
1.30976
1.31678
1.32405
1.3314
1.33893
1.34658
1.35432
1.36214
1.36994
1.37782
1.3857
1.39358
1.40153
1.40941
1.41738
1.42522
1.43313
1.44092
1.44869
1.45639
1.46397
1.47152
1.47886
1.48617
1.49321
1.50013
1.50672
1.51305
1.51904
1.52453
1.52959
1.53385
1.53748
1.54006
1.54165
1.54202
1.5418
1.54114
1.53948
1.53653
1.53185
1.53185
0.987301
1.00135
1.0113
1.01723
1.02144
1.02736
1.03727
1.05183
1.07063
1.09262
1.11649
1.14066
1.16442
1.18662
1.20724
1.22537
1.24107
1.25389
1.26434
1.27225
1.27824
1.28216
1.28493
1.28601
1.28476
1.28165
1.27813
1.27385
1.26976
1.26606
1.26274
1.26
1.25752
1.25555
1.25389
1.25267
1.25188
1.2515
1.2516
1.25219
1.25338
1.25487
1.25657
1.25836
1.2609
1.26381
1.2674
1.27112
1.27553
1.28006
1.28519
1.29042
1.29607
1.30182
1.30787
1.31404
1.32044
1.32699
1.33376
1.34064
1.34778
1.35496
1.36243
1.36987
1.37745
1.38504
1.39265
1.40038
1.40801
1.41582
1.4235
1.43132
1.43905
1.44681
1.45455
1.46217
1.46986
1.47731
1.48482
1.49207
1.49928
1.50626
1.51302
1.5196
1.52571
1.53169
1.53701
1.542
1.54614
1.5496
1.55208
1.55345
1.55373
1.55343
1.55259
1.55059
1.54696
1.54206
1.53685
1.53653
0.967001
0.972207
0.976656
0.982036
0.990633
1.00366
1.0211
1.04169
1.06448
1.08817
1.11219
1.13587
1.15874
1.18061
1.20114
1.22031
1.23748
1.25277
1.26588
1.27693
1.2858
1.29277
1.29751
1.30076
1.30266
1.30298
1.30166
1.29895
1.29565
1.29184
1.28854
1.28557
1.28318
1.28119
1.27956
1.27837
1.27747
1.27704
1.27694
1.27739
1.27844
1.2798
1.28134
1.28307
1.28534
1.28814
1.29139
1.29502
1.29909
1.30349
1.30837
1.31348
1.31899
1.32465
1.3306
1.33668
1.34294
1.3494
1.35596
1.36277
1.36969
1.37682
1.38406
1.39131
1.39874
1.40609
1.41364
1.42112
1.42871
1.43631
1.44389
1.45156
1.45911
1.46677
1.47425
1.4818
1.48917
1.4965
1.50368
1.51069
1.51759
1.52414
1.53059
1.53653
1.54231
1.54753
1.55227
1.5563
1.55948
1.5618
1.56283
1.56297
1.56254
1.56142
1.55915
1.55497
1.54954
1.5442
1.53908
1.53906
0.94314
0.942524
0.945228
0.953004
0.967299
0.986694
1.00931
1.03327
1.05739
1.08142
1.10466
1.12752
1.14938
1.17087
1.19128
1.21113
1.22949
1.24666
1.26196
1.27562
1.28718
1.29698
1.30469
1.31077
1.31462
1.31729
1.31879
1.31896
1.31771
1.31526
1.31234
1.30958
1.30721
1.30525
1.30364
1.30251
1.30162
1.30122
1.3011
1.3015
1.30243
1.30377
1.30527
1.30691
1.30902
1.31161
1.31466
1.31814
1.32195
1.32623
1.33081
1.33579
1.34105
1.34656
1.35234
1.35825
1.36439
1.37067
1.37711
1.38378
1.39054
1.39753
1.40448
1.41163
1.41878
1.42602
1.43335
1.44063
1.44807
1.45539
1.46287
1.47021
1.47764
1.48499
1.49231
1.49961
1.50674
1.51387
1.52071
1.52753
1.53395
1.54025
1.54607
1.5516
1.5567
1.56116
1.56504
1.56791
1.57003
1.57073
1.57072
1.57016
1.56883
1.56612
1.56142
1.55595
1.54982
1.54502
1.54047
1.54105
0.918685
0.915131
0.918404
0.930882
0.951546
0.976107
1.00167
1.02692
1.05078
1.07391
1.09581
1.11747
1.13833
1.15928
1.17953
1.19976
1.21904
1.2377
1.25474
1.27062
1.28462
1.29707
1.30758
1.3164
1.32329
1.32851
1.33195
1.33431
1.33572
1.33589
1.33478
1.33301
1.33101
1.32922
1.32763
1.32654
1.32567
1.3253
1.32516
1.32554
1.32637
1.32767
1.32915
1.33073
1.33272
1.3351
1.33808
1.34134
1.34502
1.34905
1.35343
1.35819
1.36324
1.36859
1.3742
1.37996
1.38598
1.39208
1.39846
1.40494
1.41158
1.41832
1.42509
1.43206
1.43896
1.44609
1.45311
1.46033
1.46745
1.47467
1.48186
1.48901
1.49622
1.50325
1.51039
1.51727
1.52422
1.53087
1.53745
1.54376
1.54976
1.55549
1.56069
1.56568
1.56982
1.57348
1.57607
1.57786
1.57827
1.57801
1.57723
1.57563
1.57216
1.56746
1.56128
1.55555
1.54987
1.54598
1.54265
1.54369
0.895595
0.89226
0.899099
0.918641
0.944981
0.971969
0.99778
1.02219
1.04479
1.06643
1.08712
1.10762
1.12785
1.14832
1.16859
1.18902
1.20894
1.22845
1.24683
1.26429
1.2802
1.29484
1.30773
1.3191
1.32868
1.33666
1.34294
1.34769
1.35103
1.3534
1.35495
1.3552
1.35439
1.35319
1.35186
1.35084
1.34997
1.34962
1.34948
1.34985
1.3506
1.35185
1.35326
1.35485
1.35663
1.3589
1.36167
1.36477
1.36826
1.37207
1.37624
1.38079
1.3856
1.39078
1.39614
1.40177
1.40758
1.41353
1.41979
1.42603
1.43253
1.43896
1.44563
1.45226
1.45906
1.46587
1.47274
1.4797
1.48659
1.49362
1.50051
1.50753
1.51437
1.52128
1.52801
1.53468
1.54122
1.5475
1.55367
1.55938
1.5649
1.56984
1.57448
1.57843
1.58163
1.58398
1.58526
1.58545
1.58488
1.58389
1.58174
1.57814
1.57249
1.56665
1.56045
1.55529
1.5508
1.54814
1.5461
1.5476
0.872557
0.874466
0.890078
0.916564
0.944697
0.971574
0.996062
1.01873
1.03965
1.05984
1.07946
1.09917
1.11895
1.13909
1.15935
1.17978
1.20003
1.22
1.23924
1.25778
1.27516
1.29151
1.30638
1.32001
1.33203
1.3426
1.35153
1.35895
1.36481
1.36919
1.37249
1.37478
1.37647
1.37688
1.37647
1.37574
1.37497
1.37458
1.37438
1.37468
1.37531
1.37643
1.37786
1.37937
1.38101
1.38306
1.3856
1.38848
1.39177
1.39532
1.39929
1.40355
1.40814
1.41307
1.41818
1.42367
1.42922
1.43516
1.44111
1.44727
1.45348
1.45978
1.46621
1.47264
1.47923
1.48578
1.49249
1.49913
1.50589
1.51258
1.51929
1.52598
1.53255
1.53915
1.5455
1.55185
1.55789
1.56378
1.56932
1.57445
1.57924
1.58343
1.58719
1.58996
1.59203
1.59279
1.59275
1.59205
1.59057
1.58809
1.58354
1.57796
1.57163
1.56574
1.56036
1.55633
1.55328
1.55189
1.55092
1.55279
0.854053
0.867599
0.89231
0.920463
0.947883
0.973098
0.995642
1.01636
1.0357
1.05462
1.07341
1.0925
1.11196
1.13181
1.152
1.17233
1.19275
1.21297
1.23288
1.25213
1.27071
1.28829
1.30488
1.3203
1.33437
1.34721
1.35845
1.36837
1.37664
1.38349
1.38883
1.39325
1.39654
1.3987
1.40031
1.40071
1.40056
1.40024
1.39999
1.40008
1.40049
1.40133
1.40263
1.40405
1.40554
1.4074
1.40964
1.41232
1.41533
1.41863
1.42234
1.42628
1.43065
1.43524
1.44017
1.44538
1.45079
1.45652
1.46224
1.46824
1.47418
1.48037
1.48651
1.49282
1.49913
1.50551
1.51195
1.51836
1.52488
1.53129
1.53778
1.54414
1.55045
1.55668
1.56265
1.5686
1.57407
1.57947
1.5842
1.58874
1.59254
1.596
1.59839
1.60005
1.60041
1.60005
1.5991
1.59738
1.59404
1.58912
1.58303
1.57677
1.57072
1.56564
1.56158
1.55893
1.55734
1.55696
1.55691
1.5591
0.842659
0.868902
0.897839
0.92594
0.951656
0.974733
0.99542
1.01464
1.03303
1.0512
1.06962
1.08834
1.10761
1.12723
1.14726
1.16746
1.18783
1.20814
1.22831
1.24803
1.26734
1.28584
1.30366
1.32037
1.33611
1.3506
1.36388
1.37588
1.38644
1.39561
1.40319
1.40951
1.41488
1.41895
1.42168
1.42355
1.42492
1.42532
1.42534
1.42533
1.42551
1.42601
1.42699
1.42824
1.42954
1.4311
1.43301
1.43547
1.43817
1.44122
1.44462
1.44825
1.45239
1.45663
1.46143
1.46627
1.47164
1.477
1.48265
1.48837
1.49421
1.50019
1.50616
1.51231
1.51839
1.52463
1.53082
1.53707
1.54333
1.5495
1.55574
1.56173
1.56782
1.57354
1.57925
1.58453
1.58959
1.59416
1.59822
1.60185
1.6048
1.60694
1.60802
1.6081
1.60739
1.6062
1.60395
1.59994
1.59441
1.58815
1.5818
1.57593
1.57084
1.56712
1.56443
1.56323
1.56278
1.56316
1.56372
1.5662
0.83705
0.871254
0.902084
0.929316
0.952996
0.974328
0.993835
1.0123
1.03044
1.04848
1.0669
1.08561
1.10479
1.12429
1.14413
1.16418
1.18439
1.20467
1.22488
1.24488
1.26456
1.28367
1.30224
1.3199
1.33686
1.35268
1.36764
1.38125
1.39377
1.40492
1.4147
1.42302
1.43001
1.43616
1.44087
1.44423
1.44643
1.44796
1.44898
1.44931
1.4494
1.4496
1.45008
1.45093
1.452
1.45322
1.45469
1.45678
1.45909
1.46198
1.46497
1.46853
1.47223
1.4764
1.4808
1.48555
1.49059
1.49579
1.50123
1.50676
1.51249
1.51827
1.52417
1.53015
1.53612
1.54225
1.54825
1.5544
1.5604
1.56644
1.57236
1.57812
1.58383
1.58915
1.5944
1.59908
1.60352
1.60719
1.61058
1.61311
1.61499
1.6155
1.61534
1.61452
1.61281
1.60992
1.60522
1.5993
1.59297
1.58654
1.58087
1.57593
1.57244
1.56991
1.56886
1.56857
1.56912
1.56983
1.57068
1.57325
0.822147
0.864744
0.89782
0.924821
0.947842
0.968597
0.988195
1.00709
1.02583
1.04448
1.06337
1.08243
1.10178
1.12138
1.14118
1.16116
1.18129
1.20154
1.2218
1.24192
1.26181
1.2813
1.30032
1.3187
1.33642
1.35329
1.36936
1.38435
1.39845
1.41119
1.42284
1.43294
1.44172
1.44915
1.4557
1.46087
1.46444
1.46704
1.46855
1.46957
1.47017
1.47041
1.47054
1.471
1.47172
1.47252
1.47363
1.47508
1.47717
1.47969
1.4825
1.48574
1.48921
1.49314
1.49729
1.50188
1.50666
1.51172
1.51697
1.52238
1.52799
1.53364
1.53948
1.54531
1.55125
1.55723
1.56313
1.5692
1.57498
1.58096
1.58652
1.59217
1.59734
1.60245
1.60694
1.61119
1.61462
1.61771
1.62001
1.62147
1.62174
1.62129
1.62032
1.61826
1.61444
1.60925
1.60307
1.5967
1.59032
1.58486
1.58012
1.57683
1.57453
1.57359
1.5735
1.57401
1.57486
1.57622
1.5777
1.58037
0.790098
0.840634
0.877121
0.905828
0.930677
0.953239
0.974716
0.995405
1.01572
1.03578
1.05571
1.07564
1.09558
1.11563
1.13575
1.15601
1.17636
1.19677
1.21723
1.23747
1.25754
1.27723
1.29658
1.31537
1.33364
1.35119
1.36806
1.38401
1.3991
1.41302
1.42595
1.43752
1.44792
1.45687
1.4647
1.4715
1.47687
1.48077
1.48337
1.48515
1.48614
1.48673
1.48713
1.48742
1.48781
1.48835
1.48908
1.49007
1.49166
1.4937
1.49631
1.49918
1.50251
1.50614
1.51014
1.51446
1.51903
1.52391
1.52897
1.53429
1.53978
1.5454
1.55123
1.55699
1.563
1.56878
1.57481
1.58056
1.58644
1.59203
1.59757
1.60277
1.60775
1.61227
1.61632
1.61971
1.62252
1.62469
1.62573
1.62587
1.6254
1.62407
1.62135
1.61687
1.61132
1.6049
1.59857
1.59236
1.58711
1.58266
1.57953
1.57753
1.57666
1.57673
1.57722
1.57805
1.57948
1.58167
1.58364
1.58641
0.745107
0.799611
0.839319
0.871611
0.900257
0.926737
0.95168
0.975489
0.998366
1.02056
1.04223
1.06348
1.08447
1.10525
1.12597
1.14662
1.16729
1.18796
1.20862
1.2291
1.2493
1.26924
1.28877
1.30792
1.3265
1.34457
1.36192
1.37857
1.39437
1.40925
1.42316
1.43593
1.44757
1.45787
1.46685
1.47471
1.4817
1.4872
1.49141
1.49447
1.49648
1.49771
1.49842
1.49875
1.49898
1.49927
1.4997
1.50035
1.50137
1.50297
1.50504
1.50764
1.51062
1.51403
1.51783
1.52193
1.52638
1.53106
1.53604
1.54131
1.54671
1.55244
1.55811
1.56408
1.56989
1.57586
1.58171
1.58754
1.59323
1.59874
1.60401
1.60895
1.61348
1.61745
1.62081
1.62343
1.62551
1.62633
1.62645
1.62598
1.62436
1.6209
1.61595
1.61014
1.60375
1.59746
1.59156
1.58648
1.5825
1.5795
1.57789
1.57709
1.57732
1.57785
1.57872
1.58023
1.58237
1.58501
1.58727
1.59013
0.697822
0.750747
0.791608
0.827089
0.859784
0.89028
0.919015
0.946107
0.971902
0.996499
1.0202
1.0431
1.06543
1.0873
1.10886
1.13021
1.15142
1.17254
1.19357
1.21445
1.23498
1.25513
1.2749
1.29426
1.31314
1.33151
1.34931
1.36641
1.38283
1.39834
1.41308
1.42674
1.43949
1.45102
1.46143
1.47054
1.47867
1.4859
1.49168
1.4961
1.4993
1.50152
1.50288
1.50364
1.50402
1.50428
1.50453
1.50493
1.5056
1.50667
1.50828
1.51045
1.51307
1.51623
1.51976
1.52372
1.52798
1.53256
1.53748
1.54261
1.5481
1.55369
1.55954
1.56544
1.57144
1.57744
1.58339
1.58925
1.5949
1.60034
1.60535
1.61003
1.61399
1.61735
1.61991
1.62176
1.62262
1.62288
1.62226
1.61996
1.61599
1.61082
1.60486
1.59869
1.5925
1.5871
1.58216
1.57868
1.57588
1.57458
1.57405
1.57442
1.57501
1.57599
1.57753
1.57978
1.58233
1.5852
1.58765
1.59054
0.653528
0.701064
0.741083
0.778284
0.813472
0.846696