/*--------------------------------*- C++ -*----------------------------------*\
  =========                 |
  \\      /  F ield         | OpenFOAM: The Open Source CFD Toolbox
   \\    /   O peration     | Website:  https://openfoam.org
    \\  /    A nd           | Version:  9
     \\/     M anipulation  |
\*---------------------------------------------------------------------------*/
FoamFile
{
    format      ascii;
    class       volScalarField;
    location    "9.5";
    object      p;
}
// * * * * * * * * * * * * * * * * * * * * * * * * * * * * * * * * * * * * * //

dimensions      [1 -1 -2 0 0 0 0];

internalField   nonuniform List<scalar> 
5250
(
1.00001
1.00004
1.00011
1.0003
1.00068
1.00187
1.00421
1.0113
1.02609
1.06827
1.1666
1.44258
2.21019
4.50975
10.5046
11.22
11.0931
11.0832
11.1761
11.4023
11.6186
11.7581
11.8683
11.9552
12.0223
1.00001
1.00004
1.00011
1.00027
1.00074
1.00169
1.00456
1.01026
1.02776
1.06423
1.16962
1.43177
2.20147
4.46318
10.4206
11.2138
11.0876
11.0748
11.1675
11.3933
11.6092
11.7492
11.861
11.9493
12.0179
1.00001
1.00004
1.0001
1.00029
1.00066
1.00181
1.00406
1.011
1.02504
1.06655
1.16029
1.42795
2.1655
4.37487
10.2303
11.1989
11.0718
11.0477
11.1374
11.3586
11.5713
11.7095
11.8205
11.9079
11.9763
1.00001
1.00004
1.0001
1.00028
1.00065
1.00172
1.00403
1.01031
1.02497
1.06267
1.15688
1.40956
2.12229
4.23487
9.93303
11.1817
11.0494
11.002
11.0859
11.298
11.5053
11.6389
11.7464
11.8312
11.8998
1.00001
1.00003
1.0001
1.00024
1.00067
1.00151
1.00411
1.00928
1.02479
1.05809
1.1515
1.38563
2.06463
4.05036
9.52153
11.167
11.0226
10.9389
11.0152
11.2145
11.4141
11.5408
11.6426
11.7237
11.7935
1.00001
1.00003
1.00009
1.00025
1.00058
1.00151
1.00365
1.00905
1.02261
1.05532
1.14043
1.36162
1.98754
3.82562
8.98311
11.1634
10.9944
10.8581
10.9244
11.1064
11.2947
11.4103
11.5016
11.5748
11.6448
1.00001
1.00003
1.00009
1.00021
1.00057
1.00132
1.00352
1.00798
1.02151
1.04964
1.13083
1.32827
1.90061
3.55734
8.30841
11.1739
10.968
10.7604
10.8141
10.9732
11.1446
11.2421
11.3147
11.3706
11.4346
1
1.00003
1.00007
1.00021
1.00049
1.00126
1.00303
1.00749
1.01875
1.04571
1.11579
1.29531
1.79653
3.25458
7.49176
11.2021
10.9441
10.6466
10.6851
10.8144
10.9613
11.0307
11.0709
11.0899
11.1277
1
1.00002
1.00007
1.00018
1.00043
1.00112
1.00259
1.00689
1.01566
1.04188
1.09878
1.26017
1.68448
2.92917
6.56502
11.2218
10.9173
10.5226
10.5401
10.6294
10.7414
10.7688
10.7561
10.7008
10.6491
1
1.00002
1.00006
1.00015
1.00039
1.00093
1.00233
1.00577
1.01385
1.03529
1.08559
1.21951
1.5752
2.59357
5.54955
11.1454
10.8487
10.402
10.3754
10.4216
10.4802
10.4577
10.3633
10.1458
9.82743
1
1.00002
1.00005
1.00013
1.00034
1.00079
1.00209
1.00474
1.0127
1.02894
1.07693
1.18528
1.4954
2.35333
4.87996
10.7219
10.629
10.2986
10.1793
10.1919
10.1839
10.1016
9.85776
9.29411
7.86237
1
1.00002
1.00004
1.00012
1.00027
1.00074
1.00166
1.00451
1.01011
1.02717
1.06317
1.16558
1.42108
2.16318
4.31292
9.80383
10.3288
10.1651
9.98273
9.95091
9.88481
9.71718
9.33901
8.58107
7.12915
1
1.00001
1.00004
1.00009
1.00026
1.00058
1.00156
1.00358
1.00935
1.02207
1.05631
1.13876
1.36181
1.97808
3.77874
8.64634
10.1465
10.0385
9.81196
9.71154
9.59445
9.35345
8.88514
8.13048
7.00769
1
1.00001
1.00003
1.00009
1.0002
1.00053
1.00122
1.00319
1.00751
1.01904
1.04662
1.11706
1.2989
1.80495
3.26151
7.35069
10.0387
9.93569
9.67623
9.48692
9.31626
9.03154
8.55935
7.87776
7.00165
1
1.00001
1.00003
1.00007
1.00018
1.0004
1.00107
1.00243
1.00652
1.01471
1.03942
1.09233
1.24291
1.63268
2.76244
5.95892
9.9147
9.83752
9.57166
9.28503
9.06464
8.76684
8.32225
7.71897
6.98937
1
1.00001
1.00002
1.00005
1.00013
1.00033
1.00083
1.00198
1.00506
1.01181
1.03073
1.07271
1.18778
1.48142
2.31074
4.62567
9.55796
9.67191
9.47712
9.11291
8.84926
8.55066
8.13898
7.60275
6.97294
1
1.00001
1.00002
1.00005
1.0001
1.00028
1.00063
1.00166
1.00388
1.00984
1.02392
1.05928
1.14846
1.38243
2.03322
3.88986
8.58433
9.42086
9.28633
8.97223
8.67083
8.37124
7.99163
7.5139
6.96659
1
1
1.00001
1.00003
1.00009
1.0002
1.00054
1.00123
1.00327
1.00745
1.01956
1.04598
1.11833
1.29696
1.80009
3.21807
7.05261
9.16705
9.09729
8.86793
8.53339
8.22505
7.8735
7.44875
6.97052
1
1
1.00001
1.00003
1.00006
1.00017
1.00038
1.00103
1.0023
1.00621
1.01396
1.03715
1.08714
1.22766
1.58802
2.61526
5.43618
8.92103
8.96192
8.8043
8.45751
8.11707
7.78437
7.4085
6.98658
1
1
1.00001
1.00002
1.00005
1.00012
1.00031
1.00074
1.0018
1.00449
1.01062
1.02722
1.0647
1.16545
1.42063
2.12748
4.05202
8.32459
8.85681
8.7238
8.40504
8.04386
7.72665
7.40133
7.02599
1
1
1.00001
1.00001
1.00004
1.00009
1.00024
1.00054
1.0014
1.00327
1.00825
1.02003
1.04936
1.12308
1.31324
1.83249
3.28312
7.01346
8.63964
8.57657
8.36236
8.01099
7.70832
7.41266
7.10345
1
1
1
1.00001
1.00003
1.00007
1.00017
1.00039
1.00105
1.00233
1.00631
1.01407
1.03772
1.08769
1.22974
1.58992
2.60821
5.33261
8.33871
8.44967
8.32241
8.02436
7.72144
7.45337
7.21953
1
1
1
1.00001
1.00002
1.00005
1.00013
1.00028
1.00075
1.00169
1.00444
1.01021
1.02625
1.06247
1.15873
1.40091
2.06359
3.82313
7.67641
8.37271
8.28854
8.06224
7.77447
7.55021
7.39967
1
1
1
1.00001
1.00002
1.00003
1.00009
1.0002
1.00054
1.00122
1.00319
1.00737
1.01882
1.04507
1.1134
1.28447
1.75175
3.02661
6.28803
8.20417
8.23389
8.13476
7.9078
7.74462
7.6597
1
1
1
1
1.00001
1.00002
1.00006
1.00014
1.00038
1.00085
1.00227
1.00508
1.01352
1.03076
1.08035
1.19334
1.50858
2.34019
4.53336
7.83184
8.25965
8.22653
8.12957
8.02756
7.99544
1
1
1
1
1.00001
1.00002
1.00004
1.00011
1.00025
1.00064
1.00152
1.00368
1.00921
1.02175
1.05541
1.1338
1.34413
1.89965
3.39603
6.93414
8.23167
8.41159
8.40435
8.38815
8.38876
1
1
1
1
1.00001
1.00001
1.00003
1.00007
1.00019
1.00042
1.00111
1.00251
1.00659
1.01518
1.03893
1.09327
1.23895
1.61535
2.65173
5.33402
8.08736
8.70576
8.79611
8.82812
8.83257
1
1
1
1
1
1.00001
1.00002
1.00005
1.00012
1.00032
1.00072
1.00188
1.00424
1.01122
1.02533
1.0668
1.15772
1.413
2.07308
3.82276
7.62992
9.04533
9.31206
9.3347
9.31884
1
1
1
1
1
1.00001
1.00001
1.00004
1.00009
1.00023
1.00052
1.00134
1.00315
1.00782
1.01915
1.04668
1.11662
1.29449
1.77677
3.10515
6.53555
9.38859
9.9081
9.88877
9.81072
1
1
1
1
1
1
1.00001
1.00003
1.00007
1.00016
1.00039
1.00096
1.00228
1.00583
1.01348
1.0351
1.0826
1.21337
1.54532
2.46575
4.89832
9.69114
10.554
10.4745
10.2584
1
1
1
1
1
1
1.00001
1.00002
1.00005
1.00012
1.00032
1.00071
1.00191
1.00429
1.01147
1.02628
1.06878
1.1664
1.43919
2.18381
4.30792
9.46804
10.9943
10.8886
10.5708
1
1
1
1
1
1
1.00001
1.00002
1.00004
1.00011
1.00024
1.00064
1.00145
1.00392
1.00881
1.02387
1.05496
1.14551
1.36629
2.01115
3.87118
8.87394
11.2927
11.157
10.7304
1
1
1
1
1
1
1.00001
1.00001
1.00003
1.00009
1.00021
1.00054
1.00131
1.00321
1.00814
1.01951
1.05006
1.12339
1.32209
1.8731
3.50295
8.13607
11.6237
11.3755
10.7316
1
1
1
1
1
1
1
1.00001
1.00003
1.00008
1.00018
1.00049
1.0011
1.00299
1.00675
1.0183
1.04243
1.11252
1.2813
1.77338
3.20753
7.46282
11.9613
11.5385
10.6731
1
1
1
1
1
1
1
1.00001
1.00003
1.00007
1.00017
1.00041
1.00108
1.00245
1.00665
1.01506
1.04093
1.09643
1.25742
1.68226
2.96163
6.8083
12.2221
11.605
10.6126
1
1
1
1
1
1
1
1.00001
1.00003
1.00006
1.00016
1.00037
1.00099
1.00224
1.00608
1.01374
1.03734
1.08758
1.23328
1.61278
2.75033
6.1859
12.3469
11.62
10.6033
1
1
1
1
1
1
1
1.00001
1.00002
1.00006
1.00015
1.00034
1.00093
1.00209
1.00571
1.01287
1.03494
1.0818
1.21741
1.56762
2.60894
5.7376
12.2873
11.6022
10.6206
1
1
1
1
1
1
1
1.00001
1.00002
1.00006
1.00013
1.00035
1.00081
1.00218
1.00494
1.01338
1.03071
1.08187
1.20028
1.54161
2.51086
5.45314
12.064
11.5567
10.671
1
1
1
1
1
1
1
1.00001
1.00002
1.00005
1.00014
1.00032
1.00081
1.00201
1.00488
1.01251
1.03001
1.07735
1.1933
1.51514
2.43919
5.22773
11.7963
11.4819
10.7642
1
1
1
1
1
1
1
1.00001
1.00002
1.00005
1.00013
1.0003
1.00081
1.00186
1.00495
1.01154
1.03006
1.07282
1.18887
1.4934
2.3829
5.04439
11.5384
11.3843
10.8584
1
1
1
1
1
1
1
1.00001
1.00002
1.00005
1.00012
1.00032
1.00072
1.00195
1.00446
1.01189
1.02793
1.07265
1.18028
1.48109
2.33432
4.89386
11.3038
11.2773
10.9183
1
1
1
1
1
1
1
1.00001
1.00002
1.00005
1.00012
1.00028
1.00077
1.00173
1.00472
1.01066
1.02904
1.06765
1.17961
1.4633
2.29621
4.76132
11.0678
11.2405
10.921
1
1
1
1
1
1
1
1.00001
1.00002
1.00005
1.00011
1.0003
1.00069
1.00185
1.0042
1.0114
1.02608
1.07004
1.16953
1.45686
2.25698
4.6487
10.8474
11.2204
10.909
1
1
1
1
1
1
1
1.00001
1.00002
1.00005
1.00011
1.0003
1.00067
1.00182
1.00411
1.01115
1.02562
1.06816
1.16588
1.44528
2.22482
4.55218
10.6493
11.199
10.8917
1
1
1
1
1
1
1
1.00001
1.00002
1.00005
1.00011
1.00029
1.00066
1.00178
1.00409
1.01083
1.0255
1.06612
1.16355
1.43414
2.1963
4.47071
10.4748
11.178
10.875
1
1
1
1
1
1
1
1.00001
1.00002
1.00005
1.00011
1.00029
1.00065
1.00176
1.00398
1.01082
1.02467
1.0661
1.15936
1.42782
2.17046
4.40497
10.3227
11.1589
10.8604
1
1
1
1
1
1
1
1.00001
1.00002
1.00004
1.00012
1.00026
1.00071
1.00159
1.00434
1.00979
1.0264
1.06188
1.16254
1.41625
2.15927
4.34739
10.1973
11.143
10.8485
1
1
1
1
1
1
1
1.00001
1.00002
1.00004
1.00011
1.00026
1.0007
1.00158
1.00431
1.00968
1.02628
1.06108
1.16162
1.41154
2.14753
4.30655
10.1002
11.1306
10.8396
1
1
1
1
1
1
1
1.00001
1.00002
1.00004
1.00011
1.00026
1.0007
1.00157
1.00428
1.00971
1.02595
1.06121
1.15994
1.40981
2.13851
4.28018
10.0341
11.1224
10.8336
1
1
1
1
1
1
1
1.00001
1.00002
1.00004
1.00011
1.00027
1.00068
1.00159
1.00424
1.00966
1.02603
1.06064
1.16008
1.408
2.13496
4.26625
10.0005
11.1187
10.8309
3.80484
3.31833
4.31686
4.32052
4.09021
4.00242
3.96056
3.89412
3.8117
3.73709
3.68817
3.66504
3.65642
3.65493
3.66987
3.70403
3.75486
3.81815
3.8878
3.96111
4.0366
4.11351
4.19096
4.26835
4.34492
4.4201
4.49428
4.56578
4.63331
4.69571
4.75285
4.80464
4.85132
4.89278
4.92825
4.96351
4.99182
5.01297
5.02812
5.03807
5.04319
5.04333
5.04107
5.03425
5.02143
5.00502
4.98574
4.96332
4.93811
4.90998
4.87949
4.84654
4.81153
4.77448
4.73564
4.69508
4.65306
4.60953
4.56482
4.51886
4.47191
4.42395
4.37519
4.32566
4.2755
4.22478
4.17362
4.12211
4.07038
4.01851
3.96665
3.91488
3.86334
3.8121
3.76129
3.71098
3.66124
3.61215
3.56375
3.5161
3.46924
3.42322
3.37809
3.33389
3.29069
3.24851
3.20745
3.16755
3.12899
3.09187
3.05631
3.0225
2.99069
2.9612
2.93437
2.91063
2.89045
2.87427
2.86206
2.85526
4.72137
4.26959
4.41116
4.28385
4.06591
4.02903
4.01174
3.9131
3.80663
3.7178
3.67167
3.65334
3.64929
3.65328
3.6684
3.69959
3.74938
3.81319
3.88309
3.95619
4.03142
4.1079
4.18498
4.26199
4.33797
4.41177
4.48621
4.55785
4.62563
4.68807
4.74557
4.79765
4.84457
4.8862
4.923
4.95668
4.98484
5.00657
5.02221
5.03246
5.03766
5.03792
5.0362
5.03043
5.01796
5.00063
4.98112
4.95912
4.93413
4.90629
4.87586
4.84306
4.80812
4.77117
4.73242
4.69195
4.64997
4.60655
4.56187
4.51601
4.4691
4.42124
4.37253
4.32309
4.27299
4.22235
4.17127
4.11985
4.06821
4.01644
3.96467
3.91301
3.86157
3.81044
3.75974
3.70953
3.65989
3.61089
3.56257
3.51499
3.46819
3.42223
3.37714
3.33299
3.28984
3.2477
3.20667
3.16678
3.12827
3.09122
3.05574
3.02202
2.99032
2.96093
2.93423
2.91067
2.89071
2.87482
2.86285
2.85699
5.54794
4.83888
4.57714
4.329
4.11661
4.0393
3.96775
3.88771
3.79707
3.72192
3.68043
3.66423
3.65286
3.64465
3.6562
3.69166
3.74113
3.8065
3.87612
3.94922
4.02458
4.10128
4.17864
4.25593
4.33244
4.40758
4.48153
4.55288
4.62035
4.68286
4.74021
4.79231
4.83922
4.88102
4.91791
4.95073
4.97848
5.00025
5.01608
5.02638
5.03151
5.03156
5.03018
5.02539
5.01434
4.9959
4.97568
4.95353
4.92874
4.90108
4.87078
4.83806
4.80318
4.76628
4.72755
4.68713
4.64518
4.60182
4.55717
4.51136
4.4645
4.4167
4.36806
4.31869
4.26868
4.21813
4.16715
4.11584
4.06432
4.01269
3.96107
3.90957
3.8583
3.80735
3.75683
3.70679
3.65731
3.60846
3.56028
3.51283
3.46619
3.42035
3.37539
3.33132
3.28833
3.24634
3.20553
3.16591
3.12755
3.09056
3.05525
3.02173
2.99029
2.96118
2.93484
2.91169
2.89228
2.87716
2.86594
2.8617
5.91807
5.14811
4.71117
4.42758
4.21701
4.08816
4.00272
3.92325
3.83534
3.75782
3.70394
3.67209
3.65576
3.65636
3.6667
3.69518
3.74553
3.80772
3.8765
3.94864
4.02324
4.0995
4.17657
4.25349
4.32951
4.40381
4.47628
4.54636
4.61292
4.67481
4.73164
4.78331
4.82981
4.8713
4.90784
4.93986
4.96693
4.98856
5.00449
5.01491
5.02001
5.01994
5.01878
5.01488
5.00564
4.98725
4.96615
4.94342
4.91861
4.89125
4.86126
4.82881
4.79411
4.75738
4.71879
4.67852
4.63671
4.59349
4.54899
4.50334
4.45664
4.409
4.36054
4.31134
4.26151
4.21115
4.16038
4.10928
4.05798
4.0066
3.95524
3.90402
3.85303
3.80239
3.75217
3.70241
3.65323
3.60467
3.55673
3.50948
3.46308
3.41748
3.37284
3.32905
3.28623
3.24442
3.20381
3.16439
3.12632
3.08969
3.05474
3.02164
2.99068
2.96215
2.93651
2.91423
2.89585
2.88205
2.87219
2.87002
6.11345
5.38128
4.88863
4.56905
4.34848
4.19772
4.09955
4.02255
3.94448
3.86926
3.80791
3.76379
3.7339
3.71668
3.71702
3.72635
3.75428
3.81222
3.88313
3.95568
4.02967
4.10488
4.18068
4.25625
4.33076
4.40354
4.47411
4.5422
4.60683
4.66723
4.72279
4.77341
4.81901
4.85967
4.89549
4.92659
4.95293
4.97415
4.99001
5.00044
5.00552
5.00542
5.00436
5.00095
4.99291
4.97641
4.95463
4.93105
4.90593
4.8787
4.84903
4.81689
4.78246
4.74595
4.70756
4.66747
4.62583
4.58279
4.53848
4.49301
4.44651
4.39908
4.35083
4.30185
4.25226
4.20215
4.15162
4.10081
4.0498
3.99875
3.94773
3.89689
3.84624
3.79604
3.74624
3.69678
3.64796
3.59976
3.55225
3.50546
3.45939
3.41412
3.36974
3.32623
3.28373
3.24225
3.20199
3.16296
3.12536
3.08926
3.05491
3.02247
2.99231
2.96476
2.94031
2.91945
2.90279
2.89098
2.88338
2.88344
6.24614
5.58706
5.0915
4.74787
4.51558
4.36295
4.26881
4.20272
4.13723
4.06375
3.98665
3.91327
3.85015
3.80512
3.78511
3.78648
3.79718
3.82709
3.88895
3.96495
4.04193
4.11794
4.19236
4.26537
4.33672
4.40599
4.47326
4.53794
4.59964
4.65765
4.71138
4.7605
4.80487
4.84444
4.87923
4.90935
4.93485
4.9555
4.97114
4.98156
4.98672
4.98662
4.98566
4.98263
4.97554
4.96088
4.93944
4.91548
4.88996
4.86263
4.83314
4.80132
4.76722
4.73102
4.69291
4.65307
4.61169
4.5689
4.52485
4.47966
4.43344
4.38629
4.33833
4.28966
4.24036
4.19057
4.14037
4.08991
4.03927
3.98863
3.93802
3.88765
3.83729
3.78765
3.7384
3.68975
3.64147
3.59377
3.54673
3.50033
3.45468
3.40976
3.36576
3.32263
3.28058
3.23955
3.19981
3.16134
3.12442
3.08911
3.05565
3.02425
2.99535
2.96932
2.94669
2.92801
2.91399
2.90503
2.90155
2.90212
6.35102
5.77049
5.3006
4.95728
4.72255
4.57607
4.4925
4.44056
4.38632
4.3111
4.21576
4.11182
4.01564
3.93851
3.88799
3.86615
3.86804
3.87917
3.90937
3.97194
4.05185
4.13129
4.20646
4.27796
4.34577
4.41086
4.47344
4.53419
4.59224
4.64728
4.69865
4.7459
4.7888
4.82708
4.86063
4.88968
4.91425
4.93421
4.94944
4.95972
4.96488
4.96478
4.96385
4.96103
4.95454
4.94115
4.92086
4.89723
4.87152
4.84398
4.81447
4.78284
4.74906
4.71321
4.67545
4.63594
4.59488
4.55241
4.50869
4.46382
4.41795
4.37116
4.32356
4.27525
4.22633
4.17693
4.12715
4.07713
4.02699
3.97685
3.92682
3.87705
3.82788
3.77875
3.73007
3.68189
3.63419
3.58698
3.54041
3.49444
3.44926
3.40482
3.36133
3.31872
3.27725
3.23687
3.19785
3.16021
3.12424
3.08998
3.05777
3.02792
3.00085
2.977
2.95698
2.94139
2.93105
2.92607
2.92624
2.92738
6.44414
5.93989
5.51524
5.19457
4.97583
4.84583
4.77923
4.73948
4.68724
4.60021
4.48054
4.34448
4.21236
4.10065
4.0171
3.96646
3.95011
3.95317
3.96602
3.99778
4.06239
4.14035
4.21642
4.28681
4.35229
4.41417
4.47352
4.52998
4.58394
4.63541
4.68391
4.72891
4.77002
4.80688
4.83905
4.86703
4.89051
4.90964
4.92433
4.93439
4.93952
4.93941
4.93849
4.93577
4.92958
4.91695
4.89806
4.87531
4.84984
4.82219
4.79259
4.761
4.72745
4.69191
4.65454
4.61542
4.57478
4.5327
4.48939
4.44493
4.39949
4.35312
4.30596
4.25808
4.20961
4.16066
4.11139
4.06188
4.01233
3.96293
3.9138
3.86489
3.81633
3.76797
3.71997
3.67234
3.62523
3.57859
3.53261
3.48723
3.44266
3.39884
3.35601
3.31412
3.27342
3.23393
3.19588
3.15941
3.12471
3.09192
3.06148
3.03376
3.00922
2.98843
2.972
2.96072
2.95521
2.95544
2.95665
2.96031
6.54121
6.1125
5.74551
5.467
5.28118
5.17623
5.12451
5.08342
5.01474
4.90195
4.75219
4.58556
4.42341
4.28294
4.17229
4.09634
4.05458
4.04468
4.04805
4.06077
4.09106
4.15183
4.2215
4.28936
4.35368
4.41407
4.47033
4.52319
4.57335
4.62121
4.6666
4.70909
4.74817
4.78341
4.81438
4.84124
4.86359
4.88196
4.89603
4.90576
4.9107
4.91059
4.90968
4.90704
4.9011
4.88904
4.87149
4.84993
4.82516
4.79777
4.76823
4.7367
4.70333
4.66811
4.63114
4.59249
4.55233
4.51075
4.46793
4.42397
4.37901
4.33313
4.28645
4.23906
4.1911
4.14267
4.09397
4.04528
3.99668
3.94823
3.89995
3.85184
3.80396
3.75631
3.70899
3.66204
3.61558
3.56962
3.52431
3.47965
3.43579
3.39275
3.35071
3.30972
3.26999
3.23162
3.19485
3.15983
3.12668
3.0959
3.06782
3.0429
3.0217
3.0049
2.99309
2.98725
2.98749
2.98902
2.99326
3.00297
6.65624
6.30644
6.00875
5.78618
5.64206
5.55896
5.50536
5.44077
5.33764
5.19014
5.01137
4.82159
4.63976
4.48028
4.34984
4.2533
4.18878
4.15401
4.14384
4.14613
4.15597
4.1803
4.22963
4.28811
4.34728
4.40566
4.46061
4.51157
4.55921
4.60411
4.64655
4.6864
4.72328
4.75675
4.78641
4.81211
4.83371
4.85134
4.86485
4.87418
4.87898
4.87886
4.87795
4.87534
4.86956
4.85787
4.84142
4.82106
4.79722
4.7704
4.74113
4.70976
4.67655
4.64158
4.60498
4.56678
4.52713
4.48609
4.44382
4.40041
4.35599
4.31065
4.2645
4.21765
4.17026
4.12259
4.07485
4.02712
3.97945
3.93184
3.88435
3.837
3.78985
3.74297
3.69641
3.65024
3.60453
3.55937
3.51484
3.47101
3.42802
3.38591
3.34488
3.30503
3.26656
3.22966
3.19458
3.16135
3.1304
3.10221
3.07723
3.056
3.03919
3.02756
3.02159
3.02185
3.02353
3.02838
3.03877
3.05975
6.80728
6.53876
6.31687
6.15404
6.04564
5.96731
5.88678
5.77891
5.63237
5.45118
5.25076
5.04796
4.85694
4.68761
4.54578
4.43234
4.34785
4.29001
4.25584
4.23893
4.23927
4.24397
4.25882
4.29131
4.34124
4.39055
4.44245
4.49216
4.53882
4.58216
4.62253
4.66006
4.6947
4.72622
4.75439
4.779
4.79989
4.81704
4.83014
4.83923
4.84401
4.84388
4.84295
4.84036
4.83473
4.8234
4.80789
4.78865
4.76588
4.73991
4.71124
4.68025
4.64733
4.61267
4.57645
4.53872
4.49961
4.45916
4.41751
4.37472
4.33091
4.28616
4.24057
4.19437
4.14786
4.10121
4.05447
4.00769
3.96089
3.91414
3.86748
3.82096
3.77466
3.72863
3.68294
3.63764
3.59282
3.54856
3.50496
3.46212
3.42016
3.3792
3.33942
3.30099
3.26411
3.2291
3.19592
3.16503
3.13698
3.11214
3.09115
3.07462
3.06335
3.05786
3.05822
3.06025
3.06597
3.07841
3.09861
3.12755
7.00758
6.82296
6.67364
6.559
6.46406
6.36361
6.23707
6.07782
5.89005
5.68354
5.47174
5.26547
5.07348
4.90133
4.75263
4.62707
4.52568
4.44697
4.38919
4.34946
4.32589
4.31563
4.31708
4.32441
4.34307
4.38112
4.41955
4.46449
4.50973
4.55279
4.59251
4.62876
4.66167
4.69141
4.71808
4.74161
4.76185
4.77863
4.79167
4.80074
4.8057
4.80556
4.80467
4.80218
4.79678
4.78595
4.77127
4.75302
4.73133
4.70638
4.67854
4.6482
4.61577
4.58153
4.54574
4.50849
4.46992
4.43009
4.38908
4.34694
4.30375
4.25959
4.21475
4.16952
4.12405
4.0784
4.03262
3.98677
3.94087
3.89502
3.84926
3.80366
3.75827
3.71316
3.66841
3.62406
3.58024
3.537
3.49448
3.45278
3.41208
3.3725
3.33427
3.2976
3.26279
3.22997
3.19927
3.17148
3.14703
3.12647
3.11052
3.0999
3.09521
3.09572
3.09814
3.10466
3.11853
3.14372
3.16901
3.20034
7.27307
7.16389
7.06873
6.97551
6.864
6.71836
6.53804
6.33278
6.11492
5.89502
5.68066
5.47765
5.2895
5.11847
4.96569
4.83101
4.71538
4.61816
4.53878
4.47649
4.42993
4.39805
4.37857
4.3737
4.37619
4.38574
4.40781
4.43836
4.47446
4.51512
4.55433
4.59021
4.62236
4.6511
4.67675
4.69941
4.71907
4.73557
4.74872
4.7579
4.76337
4.76329
4.76251
4.76025
4.75526
4.74522
4.73131
4.71401
4.6934
4.66958
4.64278
4.61333
4.58164
4.54801
4.51276
4.47606
4.43807
4.39887
4.3585
4.31701
4.27445
4.23113
4.18732
4.14316
4.09873
4.05407
4.00927
3.96438
3.91946
3.87458
3.82979
3.78518
3.74078
3.6967
3.65298
3.60973
3.56702
3.52499
3.48374
3.44343
3.40425
3.36638
3.33008
3.29564
3.26333
3.23304
3.20574
3.18187
3.16197
3.14677
3.13709
3.1335
3.13425
3.13717
3.1449
3.16108
3.18694
3.21768
3.24431
3.27355
7.60327
7.54791
7.47815
7.37528
7.21957
7.01767
6.78859
6.5508
6.31686
6.09361
5.8835
5.68744
5.50496
5.33609
5.18046
5.0381
4.91021
4.79704
4.69896
4.61629
4.54866
4.49556
4.45582
4.42963
4.41396
4.4138
4.41688
4.42696
4.44805
4.47569
4.51007
4.54393
4.57536
4.6039
4.62936
4.65173
4.67112
4.68747
4.70075
4.71026
4.71634
4.71676
4.71615
4.7142
4.70979
4.70084
4.68785
4.67156
4.65207
4.62944
4.60384
4.57552
4.54481
4.51203
4.47751
4.44149
4.40415
4.3656
4.32588
4.28504
4.24333
4.20107
4.15836
4.11528
4.0719
4.02828
3.98452
3.94065
3.89678
3.85293
3.80921
3.76566
3.72236
3.67939
3.63684
3.5948
3.55339
3.51274
3.473
3.43436
3.39702
3.36127
3.32737
3.29577
3.26609
3.23941
3.2163
3.19734
3.18304
3.17445
3.17223
3.17323
3.17691
3.18595
3.20463
3.23222
3.26307
3.29434
3.31869
3.34308
7.98048
7.94855
7.87984
7.73974
7.51754
7.26015
6.99673
6.74308
6.50607
6.28734
6.08491
5.89632
5.71887
5.55137
5.393
5.24469
5.10577
4.9791
4.86533
4.76526
4.67897
4.60655
4.5474
4.50135
4.46741
4.44608
4.4346
4.43508
4.43894
4.4489
4.46928
4.49486
4.52274
4.55029
4.57562
4.59813
4.61766
4.63412
4.64757
4.65739
4.66408
4.66563
4.66516
4.66354
4.65981
4.65219
4.64035
4.6252
4.60693
4.58562
4.56138
4.53439
4.5049
4.47323
4.43967
4.40451
4.36795
4.33011
4.29107
4.25107
4.21045
4.16931
4.12772
4.08575
4.04347
4.00097
3.95829
3.91555
3.87277
3.83007
3.78748
3.7451
3.70301
3.66129
3.62006
3.57942
3.53953
3.50051
3.46258
3.42596
3.39091
3.35777
3.32698
3.29818
3.2723
3.25019
3.2323
3.21943
3.21164
3.21129
3.21264
3.21716
3.22782
3.24945
3.27834
3.31012
3.34084
3.36865
3.38773
3.40639
8.38266
8.35034
8.258
8.05517
7.7555
7.4559
7.1767
6.92226
6.6916
6.48147
6.28706
6.10426
5.92969
5.76188
5.60023
5.4456
5.29837
5.16099
5.03443
4.91982
4.81761
4.7282
4.65146
4.58728
4.53504
4.4948
4.46579
4.44772
4.43856
4.43905
4.44219
4.45128
4.47019
4.49278
4.51606
4.53826
4.55817
4.57509
4.58896
4.59925
4.60648
4.60949
4.60917
4.60792
4.60497
4.59885
4.58835
4.57452
4.55765
4.53781
4.51509
4.48962
4.4616
4.43128
4.39894
4.36486
4.32925
4.29223
4.25411
4.21522
4.17576
4.13577
4.09536
4.05456
4.01346
3.97214
3.93066
3.88911
3.84754
3.80606
3.76473
3.72365
3.6829
3.64262
3.60289
3.56388
3.52576
3.4887
3.45296
3.41881
3.3866
3.35683
3.32914
3.3043
3.28335
3.26682
3.25542
3.24944
3.24976
3.25183
3.25779
3.27078
3.29565
3.32567
3.35776
3.38857
3.41516
3.43683
3.44932
3.46244
8.81571
8.74892
8.58411
8.27155
7.93735
7.62534
7.34707
7.10074
6.88002
6.67843
6.48992
6.31006
6.13586
5.96616
5.80081
5.64066
5.48649
5.3405
5.20363
5.0771
4.96159
4.85764
4.76538
4.68476
4.61572
4.55813
4.51167
4.47606
4.45052
4.43562
4.42733
4.42742
4.43015
4.43802
4.45435
4.47335
4.49259
4.50974
4.52436
4.53551
4.54356
4.54811
4.548
4.5472
4.54504
4.54043
4.53147
4.51912
4.50382
4.48563
4.46462
4.44087
4.41453
4.3858
4.35493
4.32219
4.28772
4.25184
4.21496
4.17734
4.1391
4.10036
4.06118
4.02164
3.98181
3.94176
3.90157
3.86131
3.82108
3.78094
3.74101
3.70139
3.66218
3.62353
3.58556
3.54847
3.51245
3.47777
3.44471
3.41363
3.38507
3.35876
3.33515
3.31568
3.30061
3.29099
3.28718
3.28795
3.29099
3.29901
3.31581
3.3423
3.37378
3.40627
3.43668
3.46274
3.48278
3.49724
3.50349
3.51178
9.25473
9.09583
8.78482
8.43314
8.09379
7.78854
7.52102
7.28562
7.07375
6.8778
6.6918
6.51188
6.33591
6.16318
5.99394
5.82899
5.66934
5.51611
5.3709
5.23469
5.10825
4.99206
4.88642
4.7915
4.70733
4.63399
4.57121
4.51892
4.47689
4.44498
4.42322
4.40906
4.399
4.39948
4.40235
4.40968
4.42438
4.43907
4.45371
4.46562
4.47481
4.48096
4.48218
4.4817
4.48013
4.47661
4.46947
4.45873
4.44512
4.42875
4.40963
4.38778
4.36333
4.33642
4.30729
4.27612
4.24314
4.20878
4.17338
4.1372
4.10034
4.06296
4.02512
3.98695
3.94848
3.90982
3.87103
3.8322
3.79344
3.75481
3.71647
3.6785
3.64106
3.60431
3.56842
3.53363
3.50017
3.46839
3.43863
3.4115
3.3868
3.36471
3.34688
3.33382
3.32565
3.3246
3.32584
3.33018
3.34052
3.36158
3.39023
3.42267
3.45551
3.48551
3.51068
3.52984
3.54258
3.55
3.55178
3.55563
9.62476
9.29561
8.92697
8.569
8.24317
7.95569
7.70323
7.47791
7.27163
7.07743
6.89056
6.70814
6.52891
6.35255
6.17946
6.01032
5.84605
5.68715
5.53533
5.39132
5.25586
5.12943
5.0125
4.90529
4.80796
4.72041
4.64272
4.575
4.51721
4.46931
4.4311
4.40355
4.38154
4.36533
4.35885
4.35932
4.3618
4.36792
4.37967
4.39041
4.40016
4.40753
4.4113
4.41112
4.41018
4.40776
4.40265
4.39354
4.3816
4.36705
4.34987
4.33006
4.30769
4.28283
4.2557
4.2264
4.19529
4.16278
4.12916
4.09462
4.05934
4.02348
3.98714
3.95045
3.91347
3.87632
3.83907
3.80184
3.76471
3.72781
3.69127
3.65522
3.61986
3.58535
3.55195
3.51992
3.4896
3.46139
3.43589
3.41308
3.39276
3.37677
3.36593
3.36021
3.3606
3.36285
3.36925
3.38307
3.40833
3.43893
3.47221
3.50506
3.53456
3.55893
3.57699
3.58868
3.59466
3.59599
3.59572
3.59614
9.85037
9.42805
9.0395
8.69632
8.39546
8.13019
7.89292
7.67537
7.47094
7.27495
7.08455
6.89801
6.71472
6.53453
6.35778
6.18494
6.01664
5.85318
5.69608
5.54573
5.40283
5.26789
5.14141
5.02359
4.9147
4.81468
4.72392
4.64236
4.57009
4.50715
4.45362
4.40968
4.37585
4.34727
4.32487
4.31256
4.30686
4.30718
4.30898
4.3135
4.32175
4.32861
4.33416
4.33572
4.33531
4.33388
4.33061
4.32391
4.31374
4.30089
4.28554
4.26774
4.2475
4.22487
4.19995
4.17289
4.14404
4.11369
4.0821
4.04946
4.01599
3.98184
3.94717
3.91211
3.87679
3.84131
3.80578
3.77033
3.73506
3.70012
3.66567
3.63187
3.59896
3.56715
3.53676
3.50812
3.48166
3.45806
3.4373
3.41913
3.40527
3.39663
3.39422
3.39529
3.39904
3.40846
3.42768
3.45525
3.48793
3.5221
3.55489
3.58391
3.60728
3.62435
3.63485
3.63969
3.63955
3.63857
3.63581
3.63445
9.99864
9.51727
9.13674
8.82498
8.55595
8.31319
8.08741
7.87325
7.66726
7.46721
7.27193
7.08069
6.89318
6.70932
6.52919
6.35305
6.18128
6.01427
5.85246
5.69682
5.54782
5.40586
5.27135
5.14455
5.02575
4.91505
4.81267
4.71863
4.6332
4.55652
4.48886
4.43019
4.38079
4.3412
4.30628
4.27816
4.26025
4.24965
4.24403
4.24409
4.245
4.24744
4.25237
4.25563
4.25563
4.2551
4.25342
4.24959
4.24182
4.23069
4.21709
4.2012
4.18307
4.16274
4.14023
4.11568
4.08937
4.06147
4.03219
4.00171
3.97028
3.93807
3.90528
3.87206
3.83858
3.80497
3.77137
3.73793
3.70477
3.67211
3.64008
3.60896
3.57896
3.55042
3.5237
3.49922
3.47774
3.4594
3.44342
3.43232
3.42608
3.42638
3.42844
3.43461
3.44796
3.47266
3.50311
3.53724
3.57195
3.60461
3.63298
3.6555
3.67155
3.68118
3.68458
3.68424
3.68275
3.67903
3.67114
3.6677
10.0704
9.5828
9.2369
8.96471
8.72523
8.49951
8.28009
8.06551
7.85566
7.6507
7.45055
7.25498
7.06377
6.8767
6.69369
6.51471
6.33993
6.16967
6.00399
5.84405
5.69003
5.54218
5.4009
5.26642
5.13906
5.01899
4.90643
4.80155
4.7046
4.61567
4.53506
4.46289
4.39932
4.34458
4.29965
4.25925
4.22586
4.20279
4.18703
4.17746
4.17213
4.17097
4.17127
4.17215
4.1731
4.1729
4.17205
4.16989
4.16524
4.15635
4.14486
4.13104
4.11507
4.09703
4.07701
4.0551
4.03147
4.00621
3.97945
3.9514
3.92225
3.89224
3.86157
3.83042
3.79902
3.76751
3.7361
3.70494
3.67424
3.6442
3.61506
3.5871
3.56064
3.53606
3.51383
3.49469
3.47899
3.46579
3.45704
3.45492
3.456
3.45993
3.46969
3.48948
3.51728
3.55054
3.58615
3.62139
3.65377
3.68147
3.70315
3.71826
3.727
3.72935
3.72888
3.72711
3.72291
3.71448
3.70173
3.69684
10.0815
9.64703
9.35149
9.11487
8.89525
8.67799
8.4605
8.24432
8.03131
7.8227
7.61897
7.42014
7.22602
7.0363
6.85079
6.66935
6.49198
6.31878
6.14982
5.98621
5.82791
5.67512
5.52808
5.38708
5.25235
5.12418
5.00279
4.8884
4.78123
4.68148
4.58941
4.5052
4.42917
4.36151
4.30233
4.25248
4.20672
4.1688
4.14039
4.11984
4.10586
4.09731
4.09252
4.09034
4.08966
4.08917
4.08832
4.0867
4.08354
4.07771
4.06905
4.0578
4.04423
4.02855
4.01105
3.9917
3.97074
3.94819
3.92414
3.89871
3.87211
3.84456
3.81626
3.78748
3.75842
3.72932
3.7004
3.67188
3.64402
3.61708
3.59136
3.56718
3.54501
3.52519
3.50875
3.4958
3.4857
3.48019
3.48064
3.48313
3.49005
3.50486
3.53046
3.56199
3.59739
3.63414
3.66973
3.70186
3.72885
3.74978
3.76403
3.77201
3.77343
3.77282
3.77087
3.76608
3.75658
3.74516
3.73002
3.72373
10.0798
9.72192
9.47557
9.26227
9.05155
8.83711
8.62035
8.40393
8.19007
7.98015
7.77484
7.57428
7.37837
7.18683
6.99945
6.81604
6.63653
6.46092
6.28941
6.12202
5.95991
5.80287
5.65096
5.50437
5.36337
5.22823
5.09923
4.97661
4.86063
4.75148
4.64943
4.55466
4.46747
4.38804
4.31666
4.25347
4.19931
4.14904
4.10732
4.07478
4.04992
4.0319
4.01964
4.01195
4.0075
4.00498
4.00332
4.00178
3.99969
3.99605
3.99015
3.98176
3.97092
3.95789
3.94281
3.92616
3.90786
3.88802
3.86672
3.84405
3.82019
3.79533
3.7697
3.74357
3.71719
3.69085
3.6648
3.63936
3.61483
3.59155
3.56989
3.5503
3.53323
3.51955
3.51001
3.50241
3.5016
3.50299
3.50783
3.51899
3.54137
3.57042
3.60504
3.64256
3.68042
3.71626
3.74813
3.7745
3.79463
3.80815
3.8155
3.8163
3.81562
3.8134
3.80836
3.7984
3.78579
3.77257
3.75613
3.74876
10.0863
9.80182
9.59165
9.38933
9.18131
8.96885
8.75463
8.54079
8.32897
8.12034
7.9156
7.71503
7.51865
7.32629
7.13781
6.95302
6.77186
6.59426
6.4202
6.24982
6.08443
5.92364
5.76751
5.61616
5.46982
5.32877
5.1933
5.06367
4.94015
4.82295
4.71232
4.60845
4.5116
4.42195
4.33982
4.26538
4.19898
4.14065
4.08689
4.04198
4.00557
3.97698
3.95552
3.94024
3.93007
3.9236
3.91962
3.91711
3.91496
3.91259
3.90895
3.90332
3.8954
3.88526
3.87307
3.85912
3.8435
3.82638
3.80784
3.788
3.76702
3.74507
3.72239
3.69924
3.6759
3.65271
3.63
3.60815
3.58753
3.5686
3.55179
3.53767
3.52686
3.52048
3.51706
3.51793
3.52156
3.53044
3.5488
3.5757
3.60887
3.64619
3.68535
3.72414
3.76025
3.79187
3.81775
3.83728
3.85023
3.85709
3.85739
3.85665
3.85428
3.84899
3.83882
3.82636
3.81196
3.7974
3.78
3.7718
10.1137
9.87456
9.68282
9.48528
9.2805
9.0726
8.86365
8.65477
8.44715
8.24176
8.03933
7.84023
7.64461
7.45246
7.26369
7.07823
6.89601
6.71701
6.54119
6.36868
6.19981
6.03555
5.87575
5.72037
5.5696
5.42363
5.28278
5.14732
5.01748
4.89353
4.77566
4.66409
4.55901
4.46064
4.36924
4.28501
4.20822
4.13934
4.0775
4.02097
3.97346
3.93411
3.90254
3.87823
3.8604
3.84806
3.83985
3.83475
3.83153
3.82906
3.8267
3.82333
3.81822
3.81114
3.80201
3.79095
3.77815
3.7638
3.74807
3.73111
3.71314
3.6943
3.67486
3.65503
3.63517
3.61562
3.59681
3.57918
3.5632
3.54942
3.53842
3.53076
3.5276
3.52801
3.53055
3.53739
3.55193
3.577
3.60796
3.64426
3.68396
3.72479
3.76444
3.80082
3.8323
3.85783
3.87688
3.88965
3.89593
3.89617
3.89539
3.893
3.88768
3.87761
3.86514
3.85111
3.83546
3.81984
3.80167
3.79284
10.165
9.93339
9.74325
9.55029
9.35258
9.15214