/*--------------------------------*- C++ -*----------------------------------*\
  =========                 |
  \\      /  F ield         | OpenFOAM: The Open Source CFD Toolbox
   \\    /   O peration     | Website:  https://openfoam.org
    \\  /    A nd           | Version:  9
     \\/     M anipulation  |
\*---------------------------------------------------------------------------*/
FoamFile
{
    format      ascii;
    class       surfaceScalarField;
    location    "9.5";
    object      phi;
}
// * * * * * * * * * * * * * * * * * * * * * * * * * * * * * * * * * * * * * //

dimensions      [1 0 -1 0 0 0 0];

internalField   nonuniform List<scalar> 
10325
(
0.00840003
-6.91157e-11
0.00839999
1.1097e-09
0.00840013
-4.9329e-10
0.00839976
1.107e-08
0.00840064
-2.18048e-09
0.00839861
6.7698e-08
0.00840331
-9.89721e-09
0.00839281
3.74681e-07
0.00841321
1.40133e-07
0.0083765
1.80966e-06
0.00842067
2.49045e-06
0.00836104
9.96843e-06
0.00836687
2.8955e-05
0.00822211
0.000125123
0.00763234
0.000587156
0.00702233
0.000610812
0.00641469
0.000608208
0.00578441
0.000630456
0.00512158
0.000662957
0.00441121
0.000710334
0.00364311
0.000767952
0.00281738
0.000825561
0.00193803
0.000879098
0.00100241
0.000935386
0.00100217
0.00840002
3.33651e-10
0.00840004
3.69046e-10
0.00839996
6.02649e-09
0.00840015
3.11485e-09
0.00839959
4.26861e-08
0.00840109
2.2778e-08
0.00839707
2.55402e-07
0.00840657
1.91768e-07
0.00838588
1.41622e-06
0.00841978
1.87765e-06
0.00836943
7.33804e-06
0.00840643
1.78998e-05
0.00833736
6.22166e-05
0.00822696
0.000249861
0.00762579
0.00117897
0.007011
0.00122589
0.00641234
0.00120731
0.00578732
0.00125565
0.00512698
0.00132343
0.00441002
0.00142726
0.00363419
0.00154363
0.00280007
0.00165952
0.00190878
0.00177012
0.000967769
0.00187616
0.00196968
0.00840003
1.6703e-10
0.00839999
1.76842e-09
0.00840012
3.8631e-09
0.00839978
1.74573e-08
0.00840063
3.01784e-08
0.00839858
1.13647e-07
0.00840352
1.87273e-07
0.00839236
7.07503e-07
0.00841555
1.20252e-06
0.00837307
4.18863e-06
0.00842604
9.13206e-06
0.00835677
2.90651e-05
0.00837046
9.1592e-05
0.00822556
0.000370065
0.00764459
0.00175761
0.00702789
0.00184359
0.0064372
0.00179866
0.0058202
0.00187284
0.00516469
0.00197904
0.00445013
0.00214184
0.00367192
0.00232168
0.00283166
0.00249957
0.00192936
0.00267216
0.000975526
0.00282973
0.00294494
0.00840002
2.78765e-10
0.0084
2.23572e-09
0.00840009
5.97113e-09
0.00839986
2.21327e-08
0.00840037
4.49309e-08
0.00839921
1.3647e-07
0.00840149
3.12368e-07
0.00839632
7.70893e-07
0.00840515
2.0924e-06
0.00838736
4.66377e-06
0.00840866
1.35716e-05
0.00836919
3.68091e-05
0.00836245
0.000122315
0.00823902
0.000478433
0.0076792
0.00231372
0.00706624
0.00245773
0.00648673
0.00237879
0.00588133
0.00247838
0.00523577
0.00262477
0.00452975
0.00284784
0.00375665
0.00309462
0.00291344
0.00334272
0.00199781
0.00358755
0.00101629
0.00381097
0.00396096
0.00840002
4.44516e-10
0.00840005
2.28427e-09
0.00839993
9.39767e-09
0.00840025
2.23176e-08
0.0083995
6.77202e-08
0.00840127
1.56757e-07
0.00839728
3.93904e-07
0.00840611
1.04557e-06
0.00838732
2.29535e-06
0.00841765
6.64061e-06
0.00837057
1.55668e-05
0.00840755
4.71905e-05
0.00834296
0.000148797
0.00825979
0.000577453
0.0077333
0.00282865
0.00712595
0.00306568
0.00655799
0.00294745
0.00596775
0.00306877
0.00533769
0.00325496
0.00464677
0.00353868
0.00388315
0.00385799
0.00303963
0.00418595
0.00210661
0.00452013
0.0010843
0.00483307
0.00504498
0.00840002
3.7627e-10
0.00840001
3.09804e-09
0.00840008
8.71822e-09
0.0083999
3.03087e-08
0.00840025
6.77627e-08
0.00839952
1.95049e-07
0.00840046
4.55503e-07
0.0083985
1.17267e-06
0.00840058
2.91329e-06
0.00839405
7.31251e-06
0.00840149
1.9392e-05
0.00837658
5.44892e-05
0.00836359
0.000175391
0.00827154
0.000660325
0.007825
0.00326882
0.00722294
0.00366939
0.00666051
0.00351073
0.00608682
0.0036426
0.00547698
0.00386489
0.00480731
0.0042084
0.00405939
0.00460597
0.00321911
0.0050262
0.00226803
0.00547091
0.00118946
0.00591121
0.00623401
0.00840002
5.866e-10
0.00840003
3.00807e-09
0.00839999
1.24058e-08
0.00840008
2.97952e-08
0.00839977
9.03847e-08
0.00840056
2.04654e-07
0.00839823
5.51003e-07
0.00840386
1.30862e-06
0.00839033
3.35877e-06
0.00841284
8.38544e-06
0.00837815
2.20527e-05
0.00840245
6.15993e-05
0.00835541
0.000196165
0.0083042
0.000722582
0.00799512
0.00356605
0.00737647
0.00428976
0.00681282
0.00407536
0.00625328
0.00420234
0.00566587
0.00445246
0.00502377
0.00485041
0.00429786
0.00533162
0.00346678
0.00585698
0.00250025
0.00643706
0.00135465
0.0070564
0.00758818
0.00840003
6.53718e-10
0.00840001
3.19406e-09
0.00840007
1.31665e-08
0.00839992
3.14223e-08
0.0084002
9.86346e-08
0.00839964
2.06067e-07
0.00840033
6.4451e-07
0.008399
1.25796e-06
0.00840022
4.0287e-06
0.00839603
8.24774e-06
0.00840182
2.50189e-05
0.0083841
6.42882e-05
0.00838532
0.000207923
0.00835446
0.000745141
0.00829662
0.00361437
0.00764975
0.00493922
0.00704895
0.00467747
0.00649099
0.00476055
0.00592578
0.00501786
0.00531087
0.00546532
0.00461559
0.00602666
0.00380551
0.00666676
0.0028402
0.00740197
0.00162669
0.00826947
0.00921432
0.00840003
5.05374e-10
0.00840002
3.64044e-09
0.00840003
1.12673e-08
0.0084
3.57756e-08
0.00840009
8.53814e-08
0.00839967
2.35951e-07
0.00840098
5.57875e-07
0.00839694
1.4539e-06
0.00840656
3.55316e-06
0.00838793
9.14943e-06
0.00841537
2.34318e-05
0.0083868
6.51958e-05
0.00841622
0.000199362
0.00843812
0.000708368
0.008792
0.00325326
0.00811133
0.00562253
0.00741118
0.00537931
0.00684767
0.00532448
0.00627981
0.0055859
0.00569568
0.00604955
0.00503331
0.00668895
0.00428931
0.00741048
0.00338454
0.00830633
0.00210362
0.00954971
0.0113172
0.00840002
3.98143e-10
0.00840004
3.29651e-09
0.00839999
9.5777e-09
0.00840011
3.22929e-08
0.00839989
7.18179e-08
0.00840029
2.16739e-07
0.00839984
4.48101e-07
0.00840006
1.36498e-06
0.0084008
2.75163e-06
0.00840163
8.32425e-06
0.00840382
1.83953e-05
0.00842294
5.40344e-05
0.00845719
0.000153717
0.00864315
0.000525314
0.00963088
0.00225463
0.00890304
0.00635202
0.00795241
0.0063315
0.00738269
0.00589498
0.00678231
0.0061866
0.00621726
0.00661476
0.00562609
0.00728002
0.0049822
0.00805409
0.00414859
0.00913941
0.00293574
0.0107617
0.0142518
0.00840002
5.14214e-10
0.00840003
2.30549e-09
0.00840001
1.054e-08
0.00840007
2.27342e-08
0.00839989
7.68086e-08
0.00840045
1.5536e-07
0.00839899
4.717e-07
0.0084032
9.77245e-07
0.0083939
2.81437e-06
0.00841577
6.21981e-06
0.00838347
1.71574e-05
0.0084366
4.2912e-05
0.00842424
0.000127572
0.00855552
0.000415463
0.00907595
0.00172081
0.00897738
0.00644939
0.00851732
0.00679042
0.00785578
0.00655709
0.00732892
0.00671348
0.00682257
0.00712102
0.00636561
0.00773671
0.00587346
0.00854577
0.00543483
0.00957728
0.00538114
0.0108142
0.0113626
0.00826827
0.00840003
3.28498e-10
0.00840001
2.70097e-09
0.00840006
7.62702e-09
0.00839995
2.64652e-08
0.00840026
5.8672e-08
0.00839948
1.68842e-07
0.00840155
3.84257e-07
0.00839707
1.00339e-06
0.00840814
2.43009e-06
0.0083867
6.00932e-06
0.00842588
1.54833e-05
0.00837733
3.97798e-05
0.00844249
0.000114638
0.00844833
0.000369841
0.00873344
0.00145025
0.0088525
0.00631877
0.00858897
0.00705251
0.00811704
0.00702853
0.00771591
0.0071144
0.0073208
0.0075159
0.00697261
0.00808445
0.00669541
0.00882219
0.00658544
0.00968607
0.00696367
0.0104344
0.0104691
0.0078534
0.00840002
3.97539e-10
0.00840004
2.20885e-09
0.00839999
8.56152e-09
0.00840011
2.19125e-08
0.00839986
6.2362e-08
0.00840046
1.52093e-07
0.00839921
3.79194e-07
0.00840215
9.76917e-07
0.00839595
2.25527e-06
0.00840838
6.13784e-06
0.00838785
1.41111e-05
0.0084197
3.94109e-05
0.00838948
0.000106902
0.008444
0.000344947
0.00859184
0.00128478
0.00890048
0.00600541
0.00862433
0.00732844
0.00829333
0.00735953
0.00801004
0.0073971
0.00775096
0.00777416
0.00752165
0.00831309
0.00740567
0.00893712
0.00755129
0.00953876
0.00799414
0.00998911
0.00993659
0.00852301
0.00840003
3.16304e-10
0.00840002
2.36272e-09
0.00840006
7.15568e-09
0.00839997
2.32803e-08
0.00840018
5.4799e-08
0.00839974
1.52242e-07
0.00840077
3.55409e-07
0.00839875
9.26511e-07
0.00840273
2.23756e-06
0.00839532
5.61892e-06
0.00840924
1.4282e-05
0.00838846
3.67491e-05
0.00842339
0.000102539
0.00842128
0.000318748
0.00856582
0.0011523
0.00922246
0.00533726
0.0089259
0.00762505
0.00858712
0.00769808
0.00832831
0.00765612
0.00815476
0.00794684
0.00804524
0.00842085
0.00806211
0.00891889
0.00824936
0.0093497
0.00862929
0.00960682
0.00949109
0.00906965
0.00840003
3.30385e-10
0.00840003
1.98671e-09
0.00840002
7.19312e-09
0.00840005
1.94857e-08
0.00839997
5.34124e-08
0.00840022
1.308e-07
0.00839956
3.36032e-07
0.00840155
8.21168e-07
0.00839681
2.05638e-06
0.00840896
5.1369e-06
0.00838748
1.28315e-05
0.0084263
3.32816e-05
0.0083975
9.02416e-05
0.0084767
0.000272921
0.00865799
0.000950374
0.00994462
0.00404583
0.00947819
0.00809124
0.00906558
0.00811062
0.00874042
0.00798045
0.00856751
0.00811916
0.00851675
0.00847045
0.00857894
0.00885514
0.00877387
0.00915141
0.0090953
0.00928252
0.00911603
0.00946573
0.00840003
2.80177e-10
0.00840003
1.56947e-09
0.00840003
6.00167e-09
0.00840002
1.54369e-08
0.00840006
4.41814e-08
0.00840004
1.0304e-07
0.00840008
2.75458e-07
0.00840048
6.36736e-07
0.0083996
1.66831e-06
0.00840403
3.90499e-06
0.00839933
1.01193e-05
0.00841907
2.48421e-05
0.00843137
6.64661e-05
0.00852211
0.000189627
0.0088446
0.00062075
0.0104034
0.00248567
0.0101288
0.00836106
0.0097636
0.00847474
0.00925372
0.00848964
0.00902246
0.0083494
0.0089627
0.00852758
0.00902207
0.00879393
0.00919296
0.0089779
0.00945989
0.00901112
0.00881415
0.00975652
0.00840003
2.0113e-10
0.00840002
1.44252e-09
0.00840005
4.48654e-09
0.0084
1.40991e-08
0.00840012
3.40379e-08
0.00839989
9.10094e-08
0.00840049
2.19333e-07
0.00839948
5.44317e-07
0.00840188
1.36683e-06
0.00839843
3.22662e-06
0.00840707
8.48335e-06
0.00839937
2.01237e-05
0.00843038
5.45727e-05
0.00844484
0.000149476
0.00860457
0.00048055
0.00924704
0.00182943
0.0102149
0.00738808
0.00998565
0.00870224
0.00968082
0.00879264
0.00942964
0.00859904
0.00935561
0.00859989
0.00940487
0.00874147
0.0095425
0.00883619
0.00975375
0.00879455
0.00856371
0.00999688
0.00840003
2.05446e-10
0.00840003
1.08747e-09
0.00840002
4.33805e-09
0.00840006
1.08039e-08
0.00839997
3.19073e-08
0.00840022
7.31106e-08
0.00839971
1.97629e-07
0.00840107
4.58926e-07
0.00839842
1.18659e-06
0.00840539
2.85652e-06
0.00839288
7.16635e-06
0.00841997
1.80292e-05
0.00839058
4.62426e-05
0.00845595
0.000127917
0.00850187
0.000395121
0.00892344
0.00142593
0.0102179
0.00607946
0.0101648
0.00875369
0.00997201
0.00898389
0.00975267
0.00881697
0.0096835
0.00866619
0.00972608
0.00869519
0.00983904
0.00871832
0.0100036
0.00862305
0.00835878
0.0102001
0.00840003
1.48378e-10
0.00840003
1.02065e-09
0.00840004
3.27025e-09
0.00840002
9.99027e-09
0.00840008
2.45742e-08
0.00839993
6.54438e-08
0.00840039
1.576e-07
0.00839942
3.9656e-07
0.00840226
9.78394e-07
0.00839687
2.38858e-06
0.00841137
6.06629e-06
0.00838854
1.47185e-05
0.00843775
3.86785e-05
0.00841087
0.000102158
0.00854562
0.000305938
0.00889814
0.00104596
0.0108022
0.00416972
0.0105915
0.00896236
0.0104538
0.00912015
0.0101955
0.00907299
0.0100319
0.00882648
0.0100236
0.00869837
0.0101054
0.00862987
0.0102355
0.00848444
0.00820156
0.010383
0.00840003
1.13494e-10
0.00840003
7.72369e-10
0.00840003
2.5597e-09
0.00840005
7.58719e-09
0.00840001
1.90753e-08
0.0084001
4.99996e-08
0.00840001
1.19486e-07
0.00840025
3.0698e-07
0.0084004
7.20864e-07
0.00840033
1.84714e-06
0.00840364
4.36636e-06
0.00840307
1.11864e-05
0.00841959
2.74229e-05
0.00844573
7.25314e-05
0.00854793
0.000202938
0.00894015
0.000651235
0.010627
0.00248015
0.0111515
0.00843059
0.0109158
0.00935258
0.0106242
0.00936104
0.0104021
0.00904418
0.01033
0.00876391
0.0103655
0.00858533
0.0104729
0.0083643
0.00809802
0.0105629
0.00840003
9.09744e-11
0.00840003
5.96253e-10
0.00840003
2.03529e-09
0.00840005
5.86635e-09
0.00840001
1.51633e-08
0.00840012
3.91767e-08
0.00839994
9.42082e-08
0.00840046
2.41987e-07
0.00839969
5.65571e-07
0.00840177
1.4734e-06
0.00839947
3.39927e-06
0.00840709
8.95312e-06
0.00840344
2.12138e-05
0.0084353
5.64868e-05
0.00846298
0.00015196
0.00865894
0.000474378
0.00939339
0.00173117
0.0110732
0.00674168
0.0111131
0.00930725
0.0109528
0.00951582
0.0107104
0.00928091
0.0106252
0.00883944
0.0106324
0.00856671
0.0106934
0.00828945
0.00801287
0.0107612
0.00840003
7.62552e-11
0.00840003
4.54878e-10
0.00840003
1.64094e-09
0.00840003
4.48457e-09
0.00840002
1.21704e-08
0.00840008
2.9752e-08
0.00839996
7.65512e-08
0.00840042
1.8218e-07
0.00839946
4.66317e-07
0.00840258
1.10053e-06
0.00839692
2.83074e-06
0.00841381
6.74589e-06
0.00838841
1.73933e-05
0.00844925
4.33898e-05
0.00842155
0.00011761
0.00860425
0.000346858
0.00910713
0.00119228
0.0113158
0.0045268
0.0114051
0.0092112
0.0113321
0.00958194
0.0111293
0.00947595
0.0109263
0.00903242
0.0108905
0.00858859
0.0109022
0.00826187
0.00792358
0.0109697
0.00840003
5.42941e-11
0.00840003
3.41737e-10
0.00840003
1.19801e-09
0.00840004
3.35609e-09
0.00840002
8.90562e-09
0.00840008
2.21688e-08
0.00839997
5.5605e-08
0.00840033
1.35532e-07
0.00839978
3.34716e-07
0.00840166
8.14539e-07
0.00839901
2.00296e-06
0.00840844
4.90056e-06
0.00839829
1.21286e-05
0.00843837
3.03304e-05
0.0084364
7.86652e-05
0.00860532
0.000220309
0.00906917
0.000698266
0.0110153
0.00258193
0.0118435
0.00836894
0.0116839
0.00973219
0.0114754
0.00967449
0.0112397
0.00925625
0.0111565
0.00865506
0.0111294
0.00826844
0.00782275
0.0112013
0.00840003
3.96375e-11
0.00840003
2.56112e-10
0.00840003
8.83696e-10
0.00840004
2.50893e-09
0.00840002
6.58238e-09
0.00840007
1.65827e-08
0.00839999
4.10492e-08
0.00840024
1.0199e-07
0.00839985
2.46348e-07
0.00840115
6.16386e-07
0.00839931
1.47192e-06
0.00840547
3.71925e-06
0.00839842
8.90133e-06
0.00842421
2.28092e-05
0.00841604
5.70442e-05
0.0085163
0.000156859
0.00870216
0.000475252
0.00958248
0.00171475
0.011684
0.0062422
0.0118058
0.00959728
0.0118364
0.00962523
0.0116398
0.00943363
0.0114388
0.00883508
0.0114113
0.00826558
0.00772386
0.011478
0.00840003
3.12452e-11
0.00840003
1.76853e-10
0.00840003
6.72978e-10
0.00840003
1.74234e-09
0.00840003
4.96412e-09
0.00840005
1.15914e-08
0.00840001
3.05975e-08
0.00840017
7.14626e-08
0.00839988
1.81684e-07
0.008401
4.35967e-07
0.00839912
1.06927e-06
0.00840579
2.64819e-06
0.00839595
6.37269e-06
0.0084278
1.62358e-05
0.00840162
3.97721e-05
0.00850785
0.00010632
0.00862145
0.000303508
0.00935708
0.00100636
0.0118993
0.00366637
0.0122511
0.00922676
0.0119733
0.00988207
0.0118958
0.00948928
0.0117711
0.00893451
0.0117477
0.00825682
0.00762628
0.0118113
0.00840003
1.93519e-11
0.00840003
1.35623e-10
0.00840003
4.32831e-10
0.00840003
1.33568e-09
0.00840004
3.23565e-09
0.00840002
8.72211e-09
0.00840007
2.04828e-08
0.00840001
5.2206e-08
0.00840022
1.25302e-07
0.00840008
3.06235e-07
0.00840064
7.61876e-07
0.00840137
1.79267e-06
0.00840195
4.61712e-06
0.00840949
1.07098e-05
0.00841773
2.82736e-05
0.00845398
6.9397e-05
0.00856419
0.000195335
0.00896257
0.000601633
0.0104368
0.00217939
0.0122652
0.00736727
0.0121887
0.00993534
0.0120973
0.00955105
0.0120704
0.00893123
0.0120947
0.00819929
0.00748491
0.0122054
0.00840003
1.5856e-11
0.00840003
8.85744e-11
0.00840003
3.36204e-10
0.00840003
8.7066e-10
0.00840003
2.47566e-09
0.00840004
5.74782e-09
0.00840002
1.54192e-08
0.00840011
3.50663e-08
0.00839997
9.22188e-08
0.00840049
2.11318e-07
0.00839973
5.45397e-07
0.00840253
1.28003e-06
0.00839878
3.22166e-06
0.00841241
7.79635e-06
0.00840004
1.95084e-05
0.00845326
4.91974e-05
0.00846837
0.00013172
0.00872202
0.000389374
0.00950885
0.0013531
0.0120658
0.00477632
0.0124421
0.00952554
0.0123773
0.00957871
0.0123853
0.00888263
0.0124697
0.00807234
0.00728634
0.0126332
0.00840003
9.56398e-12
0.00840003
6.2579e-11
0.00840003
2.14851e-10
0.00840003
6.12925e-10
0.00840003
1.58889e-09
0.00840003
4.04065e-09
0.00840004
9.77826e-09
0.00840004
2.4708e-08
0.00840011
5.79068e-08
0.00840002
1.4806e-07
0.00840065
3.40859e-07
0.00839974
8.79648e-07
0.00840434
2.01113e-06
0.00839835
5.24571e-06
0.00842426
1.20748e-05
0.00840682
3.18368e-05
0.00850485
7.89647e-05
0.00861724
0.000225446
0.00927835
0.000713534
0.0114251
0.00258965
0.0125897
0.0083089
0.012687
0.00942458
0.0127381
0.00878103
0.0129049
0.00786979
0.00703362
0.0131268
0.00840003
6.248e-12
0.00840003
4.40604e-11
0.00840003
1.39416e-10
0.00840003
4.31371e-10
0.00840003
1.04243e-09
0.00840003
2.77666e-09
0.00840005
6.57219e-09
0.00840002
1.65123e-08
0.00840012
4.00292e-08
0.00839999
9.63958e-08
0.00840046
2.41738e-07
0.00840001
5.60962e-07
0.00840174
1.46164e-06
0.00840128
3.29271e-06
0.00840771
8.82636e-06
0.00841173
2.0228e-05
0.00844598
5.47493e-05
0.00850427
0.000143968
0.00877747
0.000448402
0.00971094
0.00161987
0.0121922
0.00573566
0.0127438
0.00879428
0.0129894
0.00849127
0.0132717
0.00754828
0.00676578
0.0135134
0.00840003
4.15309e-12
0.00840003
2.69264e-11
0.00840003
9.24459e-11
0.00840003
2.65219e-10
0.00840003
6.78758e-10
0.00840003
1.7513e-09
0.00840003
4.11603e-09
0.00840005
1.06269e-08
0.00840003
2.40826e-08
0.00840012
6.29088e-08
0.00840014
1.39447e-07
0.00840027
3.69729e-07
0.00840119
8.09774e-07
0.00840055
2.15786e-06
0.00840836
4.78222e-06
0.00840573
1.2669e-05
0.00844334
2.97634e-05
0.00848579
8.09047e-05
0.00870764
0.000228526
0.00951797
0.000769807
0.012216
0.00292694
0.012771
0.0081071
0.0132427
0.00798964
0.0135166
0.00725214
0.0065615
0.0137234
0.00840003
2.97124e-12
0.00840003
1.59708e-11
0.00840003
6.21045e-11
0.00840003
1.55963e-10
0.00840003
4.58508e-10
0.00840003
1.0046e-09
0.00840003
2.84629e-09
0.00840005
5.95446e-09
0.00840001
1.67992e-08
0.00840016
3.48186e-08
0.00839987
9.73135e-08
0.00840084
2.04833e-07
0.00839911
5.57719e-07
0.00840464
1.2114e-06
0.0083956
3.18888e-06
0.00842153
7.26804e-06
0.00839345
1.87617e-05
0.00847314
4.67145e-05
0.00850858
0.000132266
0.00886603
0.000418698
0.0100616
0.00165015
0.0117518
0.00624392
0.0127116
0.00701891
0.0133475
0.00661563
0.00624013
0.0136912
0.00840003
1.72716e-12
0.00840003
1.10209e-11
0.00840003
3.89257e-11
0.00840003
1.08743e-10
0.00840003
2.85321e-10
0.00840003
7.2842e-10
0.00840003
1.71736e-09
0.00840003
4.46424e-09
0.00840005
9.87687e-09
0.0084
2.68367e-08
0.00840018
5.67083e-08
0.00839974
1.59462e-07
0.00840121
3.23663e-07
0.00839793
9.46558e-07
0.00840734
1.89742e-06
0.00839016
5.55727e-06
0.00842778
1.19349e-05
0.00838817
3.35983e-05
0.00847127
8.84217e-05
0.00854083
0.000282365
0.00907044
0.0010681
0.0104366
0.00463123
0.0116309
0.00583894
0.0126053
0.00566496
0.00574545
0.0131243
0.00840003
1.27037e-12
0.00840003
7.60203e-12
0.00840003
2.6823e-11
0.00840003
7.47199e-11
0.00840003
1.97657e-10
0.00840003
4.84375e-10
0.00840004
1.25964e-09
0.00840002
2.85973e-09
0.00840005
7.73301e-09
0.0084
1.67218e-08
0.00840012
4.66611e-08
0.00839994
9.73767e-08
0.00840011
2.81602e-07
0.00840018
5.72791e-07
0.00839952
1.68079e-06
0.00840111
3.5057e-06
0.0084009
9.89281e-06
0.00840163
2.33729e-05
0.00841938
6.73186e-05
0.00845992
0.000204922
0.00869737
0.000760918
0.00950499
0.00354431
0.0106028
0.00479393
0.0115811
0.00473381
0.00514671
0.0122045
0.00840003
6.79178e-13
0.00840003
5.63647e-12
0.00840003
1.6382e-11
0.00840003
5.54643e-11
0.00840003
1.23274e-10
0.00840003
3.72078e-10
0.00840003
7.49018e-10
0.00840002
2.36307e-09
0.00840005
4.40368e-09
0.00839998
1.45246e-08
0.00840018
2.65078e-08
0.00839967
8.73277e-08
0.00840104
1.63325e-07
0.00839783
5.20852e-07
0.00840578
1.02527e-06
0.00838868
3.10539e-06
0.00842162
6.72812e-06
0.00836927
1.92934e-05
0.0084326
5.03456e-05
0.00839839
0.00016051
0.00852889
0.000583675
0.00898849
0.00277721
0.00981338
0.0040453
0.0104896
0.00411155
0.00435724
0.0112927
0.00840003
5.58141e-13
0.00840003
3.59233e-12
0.00840003
1.22846e-11
0.00840003
3.54768e-11
0.00840003
9.1028e-11
0.00840003
2.34526e-10
0.00840003
5.73006e-10
0.00840003
1.43889e-09
0.00840003
3.59809e-09
0.00840004
8.74365e-09
0.00839998
2.21296e-08
0.00840016
5.38163e-08
0.00839952
1.36297e-07
0.00840134
3.34251e-07
0.00839643
8.42575e-07
0.0084079
2.08198e-06
0.00838417
5.37727e-06
0.00841888
1.3856e-05
0.00837913
3.88337e-05
0.00842159
0.00012028
0.00847124
0.000440993
0.00882942
0.00209188
0.00941353
0.00352958
0.00990867
0.00366832
0.00375199
0.0105347
0.00840003
3.89179e-13
0.00840003
2.7079e-12
0.00840003
8.53233e-12
0.00840003
2.67394e-11
0.00840003
6.31785e-11
0.00840003
1.76845e-10
0.00840003
4.07097e-10
0.00840003
1.07124e-09
0.00840003
2.52334e-09
0.00840004
6.34579e-09
0.00839998
1.56268e-08
0.00840016
3.78851e-08
0.00839954
9.74349e-08
0.00840127
2.22349e-07
0.00839659
6.14214e-07
0.00840789
1.37441e-06
0.00838436
3.8333e-06
0.00842129
9.20728e-06
0.00837818
2.62503e-05
0.00842899
7.85343e-05
0.00847185
0.000282572
0.00891305
0.00134229
0.00920377
0.00323955
0.00949311
0.0033875
0.00328351
0.00996802
0.00840003
4.38319e-13
0.00840003
1.82462e-12
0.00840003
8.12731e-12
0.00840003
1.73969e-11
0.00840003
6.20283e-11
0.00840003
1.03255e-10
0.00840003
4.14536e-10
0.00840003
5.75819e-10
0.00840002
2.62512e-09
0.00840005
3.23304e-09
0.00839994
1.60141e-08
0.00840024
1.98214e-08
0.00839938
9.52387e-08
0.00840158
1.30465e-07
0.00839611
5.50709e-07
0.00840886
8.7932e-07
0.00838228
3.1792e-06
0.00842299
6.30861e-06
0.00837042
1.99647e-05
0.00841806
5.54459e-05
0.00842782
0.000196148
0.00871482
0.000895728
0.00891793
0.00292108
0.00912915
0.00314559
0.00291325
0.00951164
0.00840003
1.70668e-13
0.00840003
2.16143e-12
0.00840003
4.55297e-12
0.00840003
2.11993e-11
0.00840003
3.35587e-11
0.00840003
1.39654e-10
0.00840003
2.0706e-10
0.00840003
8.33873e-10
0.00840003
1.28279e-09
0.0084
4.7929e-09
0.00840009
8.27061e-09
0.00839982
2.6382e-08
0.00840052
5.45792e-08
0.00839854
1.45213e-07
0.0084033
3.61729e-07
0.00839198
8.36215e-07
0.00841394
2.29528e-06
0.00837481
5.301e-06
0.00841778
1.50521e-05
0.0083737
4.37037e-05
0.00840559
0.000149278
0.00848311
0.000671694
0.00869045
0.00253266
0.00885333
0.00293706
0.00254912
0.00925302
0.00840003
2.16613e-13
0.00840003
1.45827e-12
0.00840003
4.85135e-12
0.00840003
1.46021e-11
0.00840003
3.50967e-11
0.00840003
9.97133e-11
0.00840003
2.09554e-10
0.00840004
6.34788e-10
0.00840002
1.19601e-09
0.00840006
3.94417e-09
0.00839997
6.7998e-09
0.00840011
2.41747e-08
0.00839987
3.90308e-08
0.00839984
1.42694e-07
0.00840002
2.38317e-07
0.00839802
8.21148e-07
0.00839971
1.55715e-06
0.00839603
4.84621e-06
0.00838976
1.13132e-05
0.0083905
3.55327e-05
0.00838848
0.000117441
0.00840637
0.000529871
0.00855737
0.00220813
0.00881023
0.00262566
0.00226855
0.00916592
0.00840003
3.38969e-13
0.00840003
7.8515e-13
0.00840003
6.32482e-12
0.00840003
7.66895e-12
0.00840003
4.60245e-11
0.00840003
4.6947e-11
0.00840003
2.86161e-10
0.00840004
2.75618e-10
0.00840001
1.68296e-09
0.00840007
1.76039e-09
0.00839993
9.47083e-09
0.00840026
1.23173e-08
0.00839947
5.13139e-08
0.00840121
9.22551e-08
0.00839705
2.64226e-07
0.00840533
6.39071e-07
0.0083874
1.43762e-06
0.00841392
4.06892e-06
0.0083702
9.54133e-06
0.00840239
2.92587e-05
0.00836957
9.65386e-05
0.00837034
0.000433523
0.00848876
0.0019183
0.00882891
0.00222983
0.00203175
0.00914473
0.00840003
1.39904e-13
0.00840003
1.3271e-12
0.00840003
3.05609e-12
0.00840003
1.33463e-11
0.00840003
2.17667e-11
0.00840003
9.43627e-11
0.00840003
1.22907e-10
0.00840002
6.0209e-10
0.00840004
6.0894e-10
0.00839999
3.70653e-09
0.00840013
3.11706e-09
0.00839978
2.1905e-08
0.00840056
1.97924e-08
0.00839869
1.24218e-07
0.00840288
1.43893e-07
0.00839289
6.91405e-07
0.00841082
1.05438e-06
0.00837761
3.62947e-06
0.00841355
8.29147e-06
0.00836647
2.51382e-05
0.008371
8.29335e-05
0.00835782
0.000363935
0.00843926
0.00166697
0.00882549
0.00181387
0.00179929
0.00912655
0.00840003
1.85482e-13
0.00840003
9.44493e-13
0.00840003
3.31954e-12
0.00840003
9.21306e-12
0.00840003
2.62443e-11
0.00840003
4.89508e-11
0.00840003
1.9233e-10
0.00840003
2.48605e-10
0.00840002
1.29496e-09
0.00840004
1.22826e-09
0.00839996
8.28022e-09
0.00840017
5.25781e-09
0.00839951
5.06638e-08
0.00840112
2.64522e-08
0.00839672
3.02486e-07
0.00840666
1.8709e-07
0.00838433
1.68377e-06
0.0084183
1.89686e-06
0.00836737
8.76844e-06
0.00840106
2.0483e-05
0.00836634
7.25382e-05
0.00837298
0.000302586
0.00844708
0.00140396
0.00877248
0.00151333
0.00154081
0.00907115
0.00840003
1.65514e-13
0.00840003
4.83475e-13
0.00840003
3.21231e-12
0.00840003
4.79445e-12
0.00840003
2.25494e-11
0.00840003
3.48719e-11
0.00840003
1.29246e-10
0.00840003
2.3602e-10
0.00840003
6.97949e-10
0.00840001
1.58912e-09
0.00840006
3.69046e-09
0.00839987
1.05755e-08
0.00840037
1.98782e-08
0.00839879
6.80214e-08
0.00840257
1.1213e-07
0.00839285
4.40866e-07
0.00841187
7.1752e-07
0.00837563
2.70582e-06
0.00841467
5.93668e-06
0.00836604
1.95228e-05
0.008395
6.22331e-05
0.00838399
0.000249717
0.00844149
0.00116098
0.00872989
0.00125676
0.00129337
0.00901302
0.00840003
9.74459e-14
0.00840003
4.98225e-13
0.00840003
2.19527e-12
0.00840003
4.83181e-12
0.00840003
1.5383e-11
0.00840003
3.47212e-11
0.00840003
8.76296e-11
0.00840003
2.23739e-10
0.00840004
4.60435e-10
0.0084
1.37565e-09
0.0084001
2.50973e-09
0.0083998
8.51192e-09
0.00840057
1.39644e-08
0.00839857
5.38317e-08
0.00840327
8.03934e-08
0.00839217
3.44225e-07
0.0084138
5.69586e-07
0.00837348
2.15103e-06
0.00841955
4.74709e-06
0.00836227
1.61514e-05
0.00840556
5.18461e-05
0.00838652
0.000203062
0.00842939
0.000945325
0.00869289
0.00102208
0.00106113
0.0089545
0.00840003
1.66822e-14
0.00840003
7.61595e-13
0.00840003
6.10547e-13
0.00840003
6.79627e-12
0.00840003
6.11839e-12
0.00840003
3.46733e-11
0.00840003
4.81532e-11
0.00840002
1.82257e-10
0.00840004
3.68883e-10
0.00839999
9.07631e-10
0.00840011
2.69329e-09
0.00839981
4.8166e-09
0.00840048
1.96994e-08
0.00839888
2.62151e-08
0.00840246
1.36027e-07
0.00839389
1.39545e-07
0.0084096
8.43024e-07
0.00838021
9.62208e-07
0.00841398
4.63021e-06
0.00836967
1.13772e-05
0.00839793
4.17172e-05
0.00839153
0.000160407
0.00842235
0.00075506
0.0086581
0.000808341
0.000843928
0.00889498
0.00840003
-2.85704e-14
0.00840003
5.82418e-13
0.00840003
3.93405e-13
0.00840003
5.99162e-12
0.00840003
1.90941e-12
0.00840003
4.39333e-11
0.00840003
-7.53889e-12
0.00840003
2.86013e-10
0.00840003
-1.02653e-10
0.00840001
1.77764e-09
0.00840008
-7.06944e-10
0.00839984
1.0242e-08
0.00840044
-3.02074e-09
0.00839872
5.85437e-08
0.00840291
-1.15521e-08
0.0083928
3.2016e-07
0.00841336
1.31034e-07
0.00837487
1.60664e-06
0.00842178
2.25326e-06
0.00836787
9.55167e-06
0.00840028
2.83523e-05
0.00839222
0.000124378
0.00842287
0.000584119
0.00862999
0.000615058
0.000643346
0.00883906
0.00840003
1.66774e-14
0.00840003
1.9795e-13
0.00840003
6.78426e-13
0.00840003
1.9047e-12
0.00840003
5.45434e-12
0.00840003
1.14634e-11
0.00840003
3.59825e-11
0.00840003
7.18595e-11
0.00840002
1.81941e-10
0.00840006
4.56797e-10
0.00839994
1.11374e-09
0.00840025
2.81061e-09
0.00839945
6.69889e-09
0.00840136
1.65535e-08
0.00839691
4.11347e-08
0.008407
1.21708e-07
0.00838547
2.5211e-07
0.00842064
8.66194e-07
0.00836848
1.81798e-06
0.00841646
6.63501e-06
0.00837058
2.09283e-05
0.00840782
9.00331e-05
0.00843348
0.00042675
0.00861021
0.000440266
0.000460279
0.008787
0.00840003
9.06119e-15
0.00840003
2.0369e-13
0.00840003
2.71964e-13
0.00840003
1.90825e-12
0.00840003
1.44108e-12
0.00840003
1.27127e-11
0.00840003
4.54677e-12
0.00840003
7.47172e-11
0.00840002
7.57575e-11
0.00840005
3.63829e-10
0.00839995
5.71932e-10
0.00840021
2.37056e-09
0.00839948
3.87067e-09
0.00840132
1.2267e-08
0.00839676
2.81861e-08
0.00840734
6.80611e-08
0.00838469
2.21376e-07
0.00842258
4.41281e-07
0.00836612
1.58002e-06
0.00841945
3.73769e-06
0.00837007
1.42699e-05
0.0084138
5.86103e-05
0.00844481
0.000279605
0.00859428
0.000281848
0.000294354
0.00873765
0.00840003
1.03306e-13
0.00840003
-2.32324e-13
0.00840003
1.73583e-12
0.00840003
-2.36963e-12
0.00840003
1.13542e-11
0.00840003
-1.22244e-11
0.00840003
6.27464e-11
0.00840003
-6.25525e-11
0.00840002
2.91323e-10
0.00840006
-1.09433e-10
0.00839994
1.02288e-09
0.00840024
9.02386e-10
0.00839948
2.53933e-09
0.00840127
1.29276e-08
0.00839709
-4.21746e-09
0.00840622
1.24688e-07
0.00838695
-7.8682e-08
0.00841791
6.99375e-07
0.00837179
2.26063e-07
0.00841453
2.93406e-06
0.00837521
5.94945e-06
0.00841762
2.98163e-05
0.00845477
0.000138746
0.00858244
0.000136532
0.00014245
0.0086977
0.00840003
0.00840003
0.00840003
0.00840003
0.00840003
0.00840003
0.00840003
0.00840003
0.00840004
0.00840002
0.00840003
0.00840003
0.00839983
0.00840047
0.00839796
0.00840403
0.00838979
0.00841252
0.0083809
0.00840571
0.00837929
0.00841894
0.00846264
0.00857681
0.00867485
0.00392376
0.00434099
0.00147515
0.00243589
-0.00080282
0.00227209
-0.00172895
0.000924624
-0.00237642
0.000645617
-0.0026915
0.000314326
-0.00278135
9.00865e-05
-0.00288958
0.000108959
-0.00301921
0.000130566
-0.00311858
0.000100393
-0.00317029
5.08412e-05
-0.00319002
1.80623e-05
-0.00319165
-6.47235e-07
-0.00317933
-1.51051e-05
-0.00314594
-3.63141e-05
-0.00309177
-5.68004e-05
-0.00301773
-7.6192e-05
-0.00292355
-9.56171e-05
-0.00281756
-0.000106764
-0.00270224
-0.000116234
-0.00257749
-0.000125626
-0.00244366
-0.000134603
-0.0023008
-0.000144145
-0.00214839
-0.000153797
-0.0019874
-0.000163308
-0.00181728
-0.000172574
-0.00163596
-0.000184196
-0.00144526
-0.000193741
-0.00124848
-0.000199813
-0.00104828
-0.000203214
-0.000845238
-0.000205982
-0.000639342
-0.00020895
-0.000429242
-0.00021287
-0.000215507
-0.000216171
6.76738e-06
-0.000225736
0.000228003
-0.000222343
0.000441016
-0.000215002
0.000647731
-0.000208302
0.00085023
-0.000203522
0.00104777
-0.000198401
0.00123923
-0.000191793
0.00142435
-0.000184977
0.00160374
-0.000178964
0.00178105
-0.000176442
0.00195758
-0.000175199
0.00212931
-0.000169706
0.0022943
-0.000162551
0.00245294
-0.000156215
0.00260567
-0.000149759
0.00275339
-0.000144135
0.00289526
-0.000138121
0.00303216
-0.000132567
0.00316332
-0.000126905
0.00328928
-0.000121455
0.00341011
-0.000116056
0.00352536
-0.000110837
0.00363585
-0.000105622
0.00374134
-0.000100722
0.00384175
-9.57581e-05
0.00393725
-9.1128e-05
0.0040277
-8.64448e-05
0.00411381
-8.20808e-05
0.00419477
-7.77013e-05
0.00427173
-7.35581e-05
0.0043439
-6.94775e-05
0.00441183
-6.55377e-05
0.0044756
-6.16958e-05
0.00453505
-5.79607e-05
0.0045907