/*--------------------------------*- C++ -*----------------------------------*\
  =========                 |
  \\      /  F ield         | OpenFOAM: The Open Source CFD Toolbox
   \\    /   O peration     | Website:  https://openfoam.org
    \\  /    A nd           | Version:  9
     \\/     M anipulation  |
\*---------------------------------------------------------------------------*/
FoamFile
{
    format      ascii;
    class       volScalarField;
    location    "9.5";
    object      rho;
}
// * * * * * * * * * * * * * * * * * * * * * * * * * * * * * * * * * * * * * //

dimensions      [1 -3 0 0 0 0 0];

internalField   nonuniform List<scalar> 
5250
(
1.40001
1.40003
1.40008
1.40021
1.4005
1.40128
1.4031
1.40764
1.41882
1.44517
1.50666
1.64161
1.92172
2.65067
5.40376
5.7334
5.67775
5.66661
5.68962
5.77174
5.85494
5.90791
5.94862
5.9815
6.00859
1.40001
1.40003
1.40009
1.40019
1.40055
1.40116
1.40329
1.40715
1.41939
1.44341
1.50771
1.63677
1.9193
2.63356
5.36658
5.73126
5.67612
5.66387
5.68701
5.76924
5.85247
5.90582
5.94746
5.98122
6.0094
1.40001
1.40003
1.40007
1.40021
1.40047
1.40127
1.40294
1.40754
1.4179
1.44435
1.50268
1.63547
1.90752
2.60216
5.28288
5.72669
5.67165
5.65471
5.67705
5.75756
5.84006
5.89254
5.93417
5.96735
5.99547
1.40001
1.40003
1.40008
1.40019
1.4005
1.40113
1.40306
1.4068
1.41832
1.44107
1.50191
1.62563
1.89521
2.55282
5.1517
5.72207
5.66574
5.63896
5.65945
5.73673
5.81687
5.86854
5.90932
5.94237
5.97099
1.40001
1.40003
1.40008
1.40018
1.40047
1.4011
1.40282
1.40678
1.41676
1.44044
1.49591
1.61729
1.87474
2.49078
4.96854
5.71967
5.65945
5.61723
5.63536
5.70773
5.78508
5.8339
5.87291
5.90454
5.93445
1.40001
1.40002
1.40007
1.40017
1.40045
1.40099
1.40278
1.40596
1.41665
1.43628
1.49251
1.60316
1.85148
2.41466
4.72742
5.72399
5.6547
5.58949
5.60384
5.67008
5.74343
5.78819
5.82379
5.85418
5.88516
1.40001
1.40002
1.40007
1.40015
1.40043
1.4009
1.40258
1.40547
1.41536
1.43339
1.48586
1.5881
1.82138
2.32842
4.42203
5.73766
5.65379
5.55705
5.56711
5.62328
5.69157
5.72932
5.75766
5.78176
5.81368
1.40001
1.40002
1.40006
1.40014
1.40037
1.40083
1.40231
1.40495
1.41385
1.43016
1.47763
1.57152
1.78496
2.23416
4.04728
5.76495
5.65932
5.52092
5.52503
5.56819
5.62608
5.65493
5.67206
5.68404
5.71123
1.40001
1.40002
1.40005
1.40014
1.40029
1.40084
1.40174
1.40507
1.41061
1.42962
1.46419
1.55786
1.7403
2.13911
3.61581
5.79947
5.67353
5.48764
5.48174
5.50769
5.55018
5.56109
5.55916
5.54535
5.55061
1.40001
1.40002
1.40004
1.40012
1.40026
1.40071
1.40154
1.40437
1.40916
1.42561
1.45556
1.53743
1.69863
2.04578
3.13368
5.80366
5.68188
5.4657
5.43735
5.44289
5.46197
5.45187
5.4209
5.35189
5.29694
1.40001
1.40001
1.40004
1.40009
1.40026
1.40054
1.40153
1.40327
1.40911
1.41986
1.45242
1.51533
1.66824
1.96941
2.82812
5.62623
5.60466
5.44879
5.3802
5.37163
5.36024
5.3268
5.2368
5.02714
4.4328
1.40001
1.40001
1.40003
1.40009
1.40019
1.40053
1.40119
1.40314
1.40732
1.41849
1.44368
1.5044
1.63392
1.90921
2.60163
5.21359
5.4734
5.40515
5.31475
5.29299
5.25948
5.19144
5.04639
4.75055
4.12632
1.40001
1.40001
1.40003
1.40007
1.40018
1.40044
1.40105
1.40271
1.4062
1.41624
1.43713
1.49128
1.60432
1.84915
2.41058
4.68783
5.39592
5.35875
5.25553
5.20803
5.15819
5.06246
4.8743
4.57205
4.09334
1.40001
1.40001
1.40003
1.40006
1.40015
1.40036
1.40093
1.40211
1.40569
1.41257
1.43344
1.47466
1.57776
1.78531
2.24411
4.08947
5.36333
5.32724
5.21187
5.13019
5.05877
4.94383
4.75581
4.47473
4.10788
1.40001
1.40001
1.40002
1.40005
1.40013
1.40028
1.40079
1.40167
1.40472
1.41019
1.42751
1.46105
1.54831
1.72183
2.09219
3.43268
5.34497
5.31251
5.19149
5.06177
4.97095
4.84757
4.66687
4.42028
4.11171
1.40001
1.40001
1.40002
1.40004
1.40011
1.40022
1.40064
1.40132
1.40381
1.40789
1.42229
1.44779
1.5202
1.6603
1.96071
2.78744
5.22976
5.27786
5.18936
5.01631
4.89969
4.77537
4.60185
4.38124
4.11534
1.40001
1.40001
1.40002
1.40004
1.40008
1.40019
1.40048
1.40111
1.40296
1.40652
1.41762
1.43899
1.49761
1.6145
1.87173
2.47533
4.7833
5.18662
5.13214
4.98128
4.84296
4.71749
4.55471
4.35253
4.1219
1.40001
1.40001
1.40001
1.40003
1.40007
1.40015
1.40038
1.40091
1.40222
1.40554
1.41313
1.43273
1.4762
1.57652
1.78612
2.23961
4.05487
5.0893
5.06348
4.96195
4.80199
4.66963
4.51941
4.33576
4.13125
1.40001
1.40001
1.40001
1.40003
1.40005
1.40013
1.40027
1.40074
1.40166
1.40432
1.41008
1.42527
1.45914
1.53915
1.7067
2.04883
3.26579
5.01524
5.02831
4.96019
4.79669
4.63954
4.4955
4.33062
4.14692
1.40001
1.40001
1.40001
1.40002
1.40004
1.4001
1.40021
1.40057
1.4012
1.4034
1.40709
1.41991
1.44268
1.50786
1.63384
1.90232
2.5842
4.77154
5.02088
4.95838
4.80534
4.63192
4.48559
4.34228
4.17259
1.40001
1.40001
1.40001
1.40002
1.40003
1.40007
1.40017
1.40041
1.40094
1.40249
1.40549
1.41482
1.43272
1.48253
1.58204
1.80293
2.27543
4.13118
4.9447
4.91512
4.8157
4.64256
4.49808
4.36109
4.21934
1.40001
1.40001
1.40001
1.40001
1.40003
1.40005
1.40013
1.40028
1.40076
1.40167
1.40443
1.41013
1.42571
1.45961
1.5405
1.70848
2.04829
3.28671
4.83607
4.8819
4.82254
4.67578
4.52682
4.39368
4.28232
1.40001
1.40001
1.40001
1.40001
1.40002
1.40004
1.40009
1.40021
1.40052
1.40127
1.403
1.40766
1.4176
1.44415
1.50042
1.62933
1.8774
2.51898
4.54833
4.88368
4.83763
4.72064
4.574
4.45253
4.37281
1.40001
1.40001
1.40001
1.40001
1.40002
1.40003
1.40007
1.40015
1.40037
1.40092
1.40214
1.40558
1.41257
1.43245
1.47321
1.57223
1.77082
2.19707
3.84159
4.83122
4.83241
4.77956
4.65387
4.55706
4.50015
1.40001
1.40001
1.40001
1.40001
1.40001
1.40002
1.40005
1.40011
1.40028
1.40061
1.4016
1.40371
1.40931
1.42208
1.45359
1.52275
1.67586
1.96784
2.91491
4.67196
4.87357
4.83865
4.77605
4.70419
4.66927
1.40001
1.40001
1.40001
1.40001
1.40001
1.40002
1.40004
1.40008
1.40019
1.40043
1.40117
1.40245
1.40696
1.4145
1.43972
1.48528
1.60369
1.82256
2.35492
4.21913
4.87626
4.94136
4.91404
4.88124
4.86185
1.40001
1.40001
1.40001
1.40001
1.40001
1.40001
1.40003
1.40005
1.40014
1.40031
1.40078
1.40189
1.40446
1.4113
1.4261
1.46421
1.54532
1.72229
2.07366
3.36252
4.79988
5.08693
5.10498
5.09485
5.07452
1.40001
1.40001
1.40001
1.40001
1.40001
1.40001
1.40002
1.40004
1.40009
1.40024
1.4005
1.40139
1.40297
1.40809
1.41768
1.4461
1.50141
1.6362
1.88352
2.54849
4.54705
5.23961
5.343
5.33314
5.31029
1.40001
1.40001
1.40001
1.40001
1.40001
1.40001
1.40002
1.40003
1.40007
1.40016
1.4004
1.4009
1.40241
1.40524
1.41424
1.43119
1.47911
1.57438
1.78692
2.23837
3.9267
5.35473
5.60229
5.5816
5.54339
1.40001
1.40001
1.40001
1.40001
1.40001
1.40001
1.40001
1.40002
1.40005
1.40013
1.40027
1.40074
1.40153
1.4044
1.40912
1.42552
1.45465
1.53617
1.69333
2.02392
2.99795
5.42605
5.85832
5.83263
5.74856
1.40001
1.40001
1.40001
1.40001
1.40001
1.40001
1.40001
1.40002
1.40004
1.40009
1.40023
1.40052
1.40134
1.40318
1.40787
1.41913
1.4461
1.50825
1.64587
1.92785
2.67738
5.18449
5.96712
5.96376
5.86715
1.40001
1.40001
1.40001
1.40001
1.40001
1.40001
1.40001
1.40002
1.40003
1.40008
1.40017
1.40048
1.40102
1.40285
1.40621
1.41688
1.43781
1.49492
1.61045
1.86897
2.49059
4.77553
5.9787
5.99098
5.87476
1.40001
1.40001
1.40001
1.40001
1.40001
1.40001
1.40001
1.40002
1.40003
1.40007
1.40017
1.40036
1.40101
1.40214
1.40616
1.41309
1.4359
1.4795
1.59148
1.81602
2.36386
4.33801
6.02028
5.99395
5.79323
1.40001
1.40001
1.40001
1.40001
1.40001
1.40001
1.40001
1.40001
1.40003
1.40006
1.40013
1.40036
1.4008
1.4021
1.40496
1.41258
1.43023
1.47381
1.56965
1.78005
2.26851
3.96674
6.09962
5.99799
5.68945
1.40001
1.40001
1.40001
1.40001
1.40001
1.40001
1.40001
1.40001
1.40003
1.40005
1.40014
1.40028
1.40081
1.40169
1.40488
1.41042
1.42901
1.4638
1.55811
1.74385
2.19266
3.63183
6.17502
5.97996
5.60116
1.40001
1.40001
1.40001
1.40001
1.40001
1.40001
1.40001
1.40001
1.40002
1.40005
1.40013
1.40026
1.40074
1.40154
1.40445
1.40954
1.42636
1.45841
1.54476
1.71664
2.11379
3.33332
6.22103
5.96521
5.55805
1.40001
1.40001
1.40001
1.40001
1.40001
1.40001
1.40001
1.40001
1.40002
1.40004
1.40012
1.40024
1.40068
1.40149
1.40405
1.4092
1.42417
1.45545
1.53495
1.69826
2.05163
3.14365
6.17967
5.92828
5.52651
1.40001
1.40001
1.40001
1.40001
1.40001
1.40001
1.40001
1.40001
1.40002
1.40005
1.4001
1.40027
1.40056
1.40159
1.40348
1.4095
1.42144
1.4554
1.52487
1.68845
2.01417
3.02871
6.06887
5.88112
5.52878
1.40001
1.40001
1.40001
1.40001
1.40001
1.40001
1.40001
1.40001
1.40002
1.40004
1.4001
1.40025
1.40054
1.40154
1.40325
1.40936
1.42004
1.45394
1.51929
1.67843
1.98915
2.93878
5.94526
5.8351
5.56187
1.40001
1.40001
1.40001
1.40001
1.40001
1.40001
1.40001
1.40001
1.40002
1.40004
1.4001
1.40023
1.40056
1.4014
1.40332
1.40866
1.42012
1.45082
1.51741
1.66819
1.96789
2.86836
5.83301
5.78886
5.59458
1.40001
1.40001
1.40001
1.40001
1.40001
1.40001
1.40001
1.40001
1.40002
1.40004
1.40009
1.40023
1.40054
1.40133
1.40337
1.40798
1.42044
1.44806
1.51559
1.66087
1.9476
2.81733
5.73074
5.73699
5.61485
1.40001
1.40001
1.40001
1.40001
1.40001
1.40001
1.40001
1.40001
1.40002
1.40004
1.4001
1.4002
1.40057
1.40121
1.40341
1.40752
1.42036
1.44605
1.51419
1.65368
1.93126
2.77746
5.62547
5.71675
5.61003
1.40001
1.40001
1.40001
1.40001
1.40001
1.40001
1.40001
1.40001
1.40002
1.40004
1.40008
1.40023
1.40048
1.40136
1.40293
1.40821
1.41809
1.44815
1.50721
1.6529
1.91854
2.74262
5.52746
5.70318
5.60032
1.40001
1.40001
1.40001
1.40001
1.40001
1.40001
1.40001
1.40001
1.40002
1.40004
1.40008
1.40022
1.40048
1.40128
1.40301
1.40769
1.41843
1.44582
1.50653
1.64606
1.91725
2.70681
5.44085
5.69097
5.58865
1.40001
1.40001
1.40001
1.40001
1.40001
1.40001
1.40001
1.40001
1.40002
1.40004
1.40008
1.40021
1.4005
1.40121
1.4031
1.40727
1.4187
1.44391
1.5059
1.63977
1.91732
2.67336
5.36791
5.68078
5.57723
1.40001
1.40001
1.40001
1.40001
1.40001
1.40001
1.40001
1.40001
1.40002
1.40004
1.40008
1.40022
1.40046
1.40128
1.40283
1.40766
1.41738
1.44501
1.50193
1.63815
1.91309
2.64537
5.30795
5.67366
5.56848
1.40001
1.40001
1.40001
1.40001
1.40001
1.40001
1.40001
1.40001
1.40002
1.40003
1.40009
1.40019
1.40051
1.40116
1.40301
1.40719
1.41796
1.4432
1.50295
1.63287
1.90965
2.62103
5.26323
5.66985
5.56288
1.40001
1.40001
1.40001
1.40001
1.40001
1.40001
1.40001
1.40001
1.40002
1.40003
1.40009
1.40019
1.40051
1.40113
1.40304
1.40698
1.41813
1.44222
1.50297
1.62996
1.90634
2.60212
5.23121
5.66779
5.55951
1.40001
1.40001
1.40001
1.40001
1.40001
1.40001
1.40001
1.40001
1.40002
1.40003
1.40009
1.40019
1.4005
1.40115
1.40297
1.40711
1.41768
1.44267
1.50147
1.6297
1.90288
2.58956
5.21067
5.66675
5.55579
1.40001
1.40001
1.40001
1.40001
1.40001
1.40001
1.40001
1.40001
1.40002
1.40003
1.40009
1.40018
1.40052
1.40108
1.40315
1.40659
1.41875
1.44052
1.50398
1.62632
1.90382
2.58179
5.20105
5.6666
5.55316
2.26113
1.86311
2.16538
1.9891
1.88056
1.86591
1.85457
1.83016
1.80095
1.77552
1.76034
1.75424
1.75149
1.75139
1.75867
1.77298
1.79412
1.8196
1.84788
1.87684
1.90795
1.93823
1.9701
2.00129
2.03265
2.0647
2.09556
2.12702
2.1566
2.18496
2.21134
2.2368
2.26062
2.28193
2.29917
2.31756
2.33308
2.34612
2.3576
2.3675
2.37363
2.38006
2.38339
2.38724
2.3866
2.38665
2.38393
2.3813
2.37515
2.37037
2.3624
2.35511
2.34562
2.33593
2.32479
2.31364
2.3004
2.28839
2.27377
2.26047
2.24459
2.23003
2.21349
2.19752
2.18065
2.16355
2.14608
2.12844
2.11026
2.09238
2.07369
2.05557
2.03664
2.01846
1.99943
1.98143
1.96245
1.94477
1.92602
1.90866
1.89037
1.87325
1.85563
1.83873
1.82196
1.80542
1.7895
1.77359
1.75852
1.74363
1.72951
1.7159
1.70307
1.69113
1.68014
1.67044
1.66203
1.65536
1.65006
1.64831
2.78848
2.42443
2.35837
2.10928
1.89765
1.85351
1.79356
1.73646
1.68858
1.65147
1.63469
1.62716
1.62483
1.62701
1.63594
1.65246
1.67719
1.70819
1.74302
1.77873
1.81692
1.85677
1.89717
1.93542
1.97224
2.00913
2.04729
2.08588
2.12192
2.15818
2.19135
2.22369
2.25242
2.28048
2.30604
2.33108
2.35335
2.37404
2.39228
2.40727
2.42089
2.43165
2.44139
2.44927
2.45497
2.45748
2.45964
2.45896
2.4583
2.45479
2.45057
2.44495
2.4379
2.43009
2.42059
2.41063
2.39911
2.38715
2.37423
2.36031
2.34623
2.33061
2.31522
2.29838
2.28163
2.26397
2.24609
2.22779
2.20908
2.19029
2.17093
2.15182
2.132
2.11279
2.09271
2.07358
2.05351
2.03458
2.01479
1.99606
1.97682
1.95831
1.93977
1.92157
1.90381
1.88614
1.86911
1.85222
1.83602
1.82032
1.80517
1.79087
1.77714
1.76463
1.75291
1.7428
1.73388
1.72702
1.72142
1.72012
3.29174
2.83634
2.59459
2.39604
2.16608
2.03558
1.89384
1.78552
1.70314
1.656
1.63379
1.61934
1.5939
1.58315
1.59219
1.6124
1.64275
1.6793
1.71926
1.76097
1.80465
1.84958
1.89429
1.94038
1.98736
2.03399
2.08201
2.12859
2.17431
2.21784
2.26008
2.29945
2.33709
2.37273
2.40566
2.43748
2.466
2.49204
2.51483
2.53467
2.55225
2.56613
2.57944
2.5903
2.59819
2.60297
2.60528
2.60736
2.60628
2.6048
2.60032
2.59564
2.58832
2.58051
2.57094
2.56026
2.54893
2.53588
2.52283
2.50781
2.49294
2.4763
2.45981
2.44189
2.42414
2.40522
2.3865
2.36678
2.34724
2.32692
2.30671
2.28602
2.26532
2.24444
2.2235
2.20256
2.18163
2.16069
2.14008
2.11914
2.09909
2.07824
2.05885
2.03825
2.01968
1.99969
1.98192
1.96283
1.94592
1.92788
1.91211
1.89556
1.88134
1.86671
1.85465
1.84263
1.83359
1.82521
1.81968
1.81777
3.54559
3.09321
2.79046
2.58883
2.40264
2.26267
2.14587
2.0274
1.90647
1.81277
1.7425
1.70484
1.6818
1.67557
1.68228
1.70009
1.73112
1.77028
1.81426
1.86221
1.91304
1.96556
2.01862
2.07268
2.12577
2.18056
2.2334
2.28687
2.33722
2.38588
2.4313
2.47379
2.51389
2.54991
2.58447
2.61452
2.64317
2.66721
2.68914
2.70695
2.72241
2.73395
2.74491
2.75334
2.75985
2.76077
2.76068
2.75828
2.75538
2.74964
2.74364
2.73442
2.72565
2.71348
2.70232
2.68774
2.67442
2.6579
2.64261
2.62452
2.60752
2.58815
2.56971
2.54931
2.52968
2.50847
2.48786
2.46605
2.44468
2.42249
2.40064
2.3783
2.35624
2.33392
2.31193
2.2897
2.26802
2.24595
2.22473
2.20285
2.18235
2.16092
2.14119
2.12035
2.10119
2.08103
2.06254
2.04337
2.0257
2.00776
1.99124
1.97494
1.96004
1.94588
1.93332
1.92208
1.91287
1.90573
1.90039
1.90058
3.68527
3.282
2.98009
2.7593
2.59639
2.4535
2.35111
2.25406
2.16475
2.0791
2.01607
1.96678
1.93808
1.92049
1.9224
1.93175
1.95216
1.98921
2.03191
2.07969
2.12837
2.17869
2.23042
2.28177
2.33382
2.38413
2.43507
2.48262
2.52938
2.57167
2.61232
2.64912
2.68339
2.71485
2.74281
2.76873
2.79062
2.8106
2.82613
2.84002
2.84927
2.85727
2.86227
2.8681
2.86966
2.86917
2.86394
2.85918
2.85207
2.84486
2.83538
2.82525
2.81322
2.8006
2.78631
2.77165
2.75537
2.73896
2.72098
2.70299
2.68355
2.66411
2.64345
2.62275
2.60108
2.57941
2.55697
2.53463
2.51162
2.48894
2.46553
2.44275
2.41912
2.39638
2.37282
2.35008
2.32683
2.30445
2.28186
2.25985
2.23799
2.21632
2.19526
2.17415
2.15393
2.13359
2.11432
2.09497
2.07682
2.05869
2.04193
2.02533
2.01043
1.99594
1.9837
1.97224
1.96372
1.95661
1.95237
1.95305
3.77149
3.4313
3.14673
2.9315
2.76744
2.64252
2.54403
2.46768
2.39412
2.32618
2.26445
2.2127
2.17479
2.15058
2.14214
2.14652
2.15891
2.18124
2.21665
2.26093
2.30636
2.35283
2.39733
2.44302
2.48611
2.52982
2.57119
2.61189
2.64974
2.68632
2.72021
2.75192
2.78092
2.80742
2.83064
2.85184
2.86948
2.88563
2.89798
2.90902
2.9162
2.92174
2.92537
2.92901
2.93
2.92815
2.92233
2.91529
2.90746
2.89834
2.88852
2.87674
2.8645
2.85027
2.83589
2.81967
2.8034
2.78558
2.76776
2.74874
2.72965
2.7097
2.68945
2.66872
2.64738
2.62603
2.60372
2.58186
2.55878
2.53653
2.51292
2.49037
2.46648
2.44376
2.42027
2.39755
2.37449
2.35151
2.32899
2.30599
2.28411
2.26131
2.24018
2.21791
2.19764
2.17621
2.15694
2.13672
2.11871
2.10008
2.0836
2.067
2.05253
2.03873
2.02705
2.01708
2.00951
2.00441
2.00238
2.00422
3.83787
3.54806
3.29413
3.09043
2.93658
2.82354
2.74052
2.67834
2.61898
2.55946
2.49523
2.43594
2.38556
2.3474
2.32425
2.31644
2.32148
2.33237
2.35073
2.38511
2.42864
2.47236
2.51436
2.55483
2.59398
2.63118
2.66759
2.70248
2.73624
2.76865
2.79882
2.82704
2.85289
2.87638
2.89744
2.9168
2.93367
2.94893
2.96148
2.97212
2.98009
2.98544
2.99013
2.99375
2.99596
2.99439
2.9898
2.98261
2.97518
2.96581
2.9563
2.94464
2.93262
2.91863
2.90421
2.88818
2.87165
2.85382
2.83544
2.81604
2.79612
2.77538
2.75414
2.73223
2.70989
2.68702
2.66381
2.6403
2.6165
2.59258
2.56852
2.54451
2.52071
2.49673
2.47301
2.44907
2.42577
2.4019
2.37917
2.35553
2.3335
2.31026
2.28898
2.26636
2.24586
2.22414
2.2045
2.18408
2.16551
2.14684
2.12977
2.1133
2.09867
2.0851
2.07398
2.06467
2.05828
2.05462
2.05421
2.05617
3.89248
3.64755
3.42688
3.2439
3.10633
3.00897
2.9432
2.89371
2.84495
2.78614
2.7174
2.64557
2.57955
2.52598
2.48654
2.46336
2.45757
2.46352
2.47276
2.49133
2.52607
2.56798
2.60986
2.64882
2.68606
2.72115
2.75548
2.78797
2.81951
2.84971
2.87854
2.90569
2.93104
2.95415
2.97489
2.99411
3.01023
3.025
3.03654
3.0465
3.05298
3.05689
3.05987
3.06198
3.06276
3.05994
3.05452
3.04616
3.03741
3.02631
3.01541
3.00205
2.98893
2.97334
2.95801
2.94041
2.92313
2.90388
2.88494
2.86437
2.84405
2.82241
2.80089
2.77835
2.75584
2.73257
2.70934
2.68557
2.662
2.63813
2.61465
2.59071
2.56729
2.54316
2.51979
2.49548
2.47236
2.44806
2.42533
2.40134
2.37912
2.35579
2.33418
2.3118
2.29096
2.26974
2.24998
2.23021
2.21191
2.19402
2.17758
2.1624
2.14872
2.1372
2.12752
2.12096
2.11694
2.11678
2.11678
2.12078
3.94618
3.73914
3.55301
3.39993
3.28468
3.20837
3.15737
3.11587
3.06617
3.001
2.92206
2.83845
2.75875
2.69053
2.63743
2.60056
2.58211
2.57853
2.58443
2.59245
2.60959
2.6421
2.67951
2.71644
2.75204
2.78524
2.81728
2.84655
2.87557
2.9023
2.92871
2.9527
2.97577
2.99591
3.01485
3.03074
3.04499
3.05705
3.06668
3.07454
3.0794
3.08191
3.08378
3.08491
3.08496
3.08154
3.07596
3.06751
3.05834
3.04677
3.03515
3.02136
3.00761
2.9918
2.97596
2.95831
2.94056
2.92133
2.90196
2.88147
2.86074
2.83917
2.81726
2.79479
2.77188
2.74872
2.72513
2.70175
2.67803
2.65455
2.63084
2.60717
2.58356
2.55963
2.53614
2.51206
2.48871
2.46477
2.44167
2.41814
2.3955
2.37263
2.35069
2.32877
2.30779
2.28714
2.26743
2.2485
2.23038
2.21363
2.19798
2.18416
2.17217
2.16233
2.15544
2.15118
2.15105
2.15167
2.15292
2.16124
4.00483
3.84029
3.6879
3.5669
3.47741
3.41803
3.37569
3.33095
3.27245
3.1956
3.1063
3.01299
2.92405
2.84722
2.78345
2.73743
2.70584
2.69061
2.68678
2.69194
2.69831
2.71247
2.73912
2.77083
2.80271
2.83487
2.86475
2.89328
2.91936
2.94478
2.9683
2.99108
3.0119
3.03138
3.04875
3.06444
3.07792
3.08942
3.09877
3.10616
3.11119
3.1135
3.11573
3.11669
3.11692
3.11327
3.10806
3.09972
3.09068
3.07897
3.06715
3.05315
3.03919
3.02335
3.00741
2.98987
2.97209
2.95304
2.93367
2.91334
2.89262
2.87114
2.84923
2.82667
2.80382
2.78052
2.75731
2.73366
2.71022
2.68643
2.66276
2.63905
2.61513
2.59158
2.56757
2.54409
2.52032
2.49682
2.47368
2.4503
2.42797
2.40514
2.3836
2.36184
2.3412
2.32099
2.30162
2.28343
2.26575
2.25017
2.23546
2.22332
2.21303
2.20563
2.20105
2.2006
2.20077
2.20258
2.20577
2.22087
4.07726
3.94979
3.83678
3.74824
3.6819
3.63237
3.58456
3.52604
3.45125
3.36251
3.26547
3.16683
3.07422
2.99185
2.92388
2.86877
2.82867
2.80046
2.78583
2.77793
2.78156
2.78564
2.7949
2.81223
2.83932
2.8657
2.89343
2.92062
2.94563
2.96986
2.99196
3.01296
3.03256
3.05022
3.06685
3.081
3.09404
3.1044
3.11311
3.11968
3.12427
3.12564
3.12743
3.12753
3.12751
3.12329
3.1183
3.10983
3.10107
3.08912
3.07734
3.0629
3.04883
3.03252
3.01649
2.99855
2.9807
2.96132
2.94187
2.92126
2.90043
2.87878
2.85676
2.83433
2.8116
2.78882
2.7657
2.74259
2.71928
2.69584
2.67253
2.64887
2.62561
2.60194
2.57868
2.55521
2.532
2.5089
2.48594
2.46344
2.44103
2.41939
2.39791
2.37738
2.3573
2.33826
2.32006
2.30277
2.28719
2.27277
2.26074
2.25064
2.24349
2.23925
2.23893
2.23934
2.24128
2.24695
2.25636
2.27646
4.17714
4.08328
4.00596
3.9434
3.88954
3.83551
3.77156
3.69348
3.60276
3.50418
3.40395
3.3049
3.21307
3.12937
3.05831
2.99728
2.94901
2.91084
2.88397
2.86536
2.856
2.85239
2.85596
2.86065
2.8711
2.89154
2.91256
2.93634
2.96091
2.98452
3.00607
3.02646
3.04446
3.06146
3.07658
3.09042
3.10267
3.11306
3.12164
3.1282
3.13285
3.13431
3.13607
3.13639
3.13652
3.13261
3.12787
3.11979
3.11122
3.0996
3.08766
3.07339
3.05886
3.04274
3.02621
3.00857
2.9904
2.97134
2.95182
2.9314
2.91071
2.889
2.86735
2.84497
2.82264
2.79997
2.77699
2.75417
2.73072
2.70777
2.68421
2.66114
2.63776
2.61458
2.59153
2.5683
2.54563
2.52261
2.50038
2.47797
2.45632
2.435
2.41421
2.39445
2.37507
2.35731
2.33984
2.32448
2.31026
2.29835
2.28871
2.28178
2.27809
2.27781
2.27833
2.28046
2.28669
2.29937
2.31211
2.33339
4.30485
4.24432
4.19064
4.14058
4.08515
4.01544
3.9316
3.83546
3.73408
3.63014
3.52879
3.43222
3.34203
3.2603
3.18692
3.12296
3.06752
3.02152
2.98382
2.95495
2.9335
2.91978
2.91112
2.91099
2.91373
2.91978
2.93247
2.94869
2.96864
2.99026
3.01213
3.03165
3.04973
3.06603
3.08064
3.09416
3.10574
3.11613
3.12426
3.13074
3.13556
3.13686
3.13833
3.13895
3.13862
3.13541
3.13021
3.12303
3.11432
3.1036
3.09181
3.07817
3.06393
3.04818
3.0319
3.01456
2.99644
2.97774
2.95805
2.93803
2.9171
2.89585
2.87436
2.85225
2.83041
2.80774
2.78548
2.76262
2.73992
2.71708
2.69406
2.67133
2.6482
2.6256
2.60257
2.58009
2.55738
2.5351
2.513
2.49116
2.47005
2.4491
2.42941
2.41005
2.39233
2.37511
2.3597
2.34591
2.33404
2.32491
2.31816
2.31522
2.31492
2.31539
2.31836
2.32529
2.33827
2.35479
2.36829
2.38866
4.46418
4.4275
4.38943
4.33858
4.26597
4.17222
4.06671
3.95637
3.84661
3.74315
3.64396
3.55291
3.46582
3.38702
3.31253
3.24606
3.18483
3.13179
3.08485
3.04625
3.01404
2.98973
2.97122
2.96049
2.95336
2.95605
2.95873
2.96514
2.97732
2.99216
3.01116
3.0299
3.04765
3.06407
3.07867
3.09222
3.10365
3.11407
3.12239
3.12911
3.13414
3.13591
3.13743
3.13807
3.13777
3.13486
3.12985
3.12325
3.11469
3.10481
3.09306
3.0801
3.06583
3.05036
3.03415
3.01677
2.99888
2.9801
2.96059
2.94063
2.9198
2.89911
2.87756
2.85619
2.83428
2.81222
2.79013
2.76754
2.7453
2.72242
2.70003
2.67715
2.65468
2.63207
2.60964
2.5875
2.56532
2.54382
2.52217
2.50152
2.48087
2.46143
2.44246
2.4249
2.40818
2.39278
2.37958
2.36798
2.35947
2.35313
2.35115
2.35092
2.35179
2.35526
2.36335
2.37782
2.3931
2.41101
2.4229
2.44079
4.64521
4.6167
4.58088
4.51695
4.41605
4.30026
4.18051
4.06493
3.95327
3.85231
3.75627
3.66909
3.58444
3.50685
3.43132
3.36288
3.29664
3.23826
3.18407
3.13793
3.09711
3.06385
3.03625
3.01558
3.0002
2.9915
2.98696
2.9896
2.99305
2.99952
3.01153
3.02629
3.04224
3.05844
3.07308
3.08688
3.09845
3.10906
3.1174
3.12432
3.12959
3.13215
3.13361
3.1343
3.13434
3.13191
3.12779
3.12144
3.11365
3.1041
3.09291
3.08044
3.06653
3.05153
3.03556
3.01843
3.00085
2.98205
2.96296
2.94297
2.92277
2.9022
2.8811
2.86014
2.83835
2.81703
2.79484
2.77312
2.75076
2.72866
2.70636
2.68396
2.66189
2.63944
2.61774
2.59561
2.57439
2.55302
2.53247
2.51236
2.49291
2.47464
2.45711
2.44117
2.4259
2.41335
2.4023
2.3944
2.38848
2.38768
2.38735
2.38862
2.39194
2.40302
2.4167
2.43392
2.44938
2.46561
2.47506
2.48938
4.84487
4.8167
4.77322
4.68513
4.54835
4.41169
4.28289
4.16619
4.05784
3.96066
3.86935
3.78466
3.70244
3.62481
3.54867
3.47749
3.40818
3.34478
3.28506
3.232
3.18364
3.14231
3.10621
3.07665
3.0523
3.03432
3.02165
3.01461
3.01201
3.01487
3.01845
3.02446
3.03597
3.04962
3.06328
3.0771
3.08901
3.10009
3.10875
3.11603
3.1216
3.1251
3.1263
3.12739
3.12743
3.12606
3.12238
3.1167
3.10954
3.1006
3.09012
3.07832
3.06487
3.05054
3.03472
3.01813
3.00055
2.98197
2.96316
2.9433
2.92374
2.9031
2.88282
2.86172
2.84075
2.81941
2.79787
2.77639
2.75445
2.73292
2.7108
2.6893
2.66733
2.64596
2.62444
2.60336
2.58269
2.56221
2.54277
2.5235
2.50576
2.48869
2.47307
2.45854
2.44609
2.43601
2.42843
2.42373
2.42294
2.4231
2.42452
2.43031
2.44172
2.45746
2.47352
2.49047
2.50427
2.51718
2.52341
2.5343
5.05199
5.01587
4.94358
4.80621
4.65473
4.51207
4.382
4.26817
4.16429
4.07128
3.98329
3.90036
3.81921
3.74086
3.66384
3.5897
3.51757
3.44973
3.38525
3.32631
3.27176
3.22358
3.18003
3.1429
3.11075
3.08462
3.06354
3.04806
3.03753
3.03209
3.03025
3.03244
3.03619
3.04153
3.05202
3.06402
3.0758
3.08708
3.09635
3.10422
3.11033
3.11463
3.11612
3.11739
3.11774
3.117
3.11392
3.10885
3.10244
3.09411
3.08454
3.07327
3.0606
3.04682
3.03142
3.01555
2.99799
2.98033
2.96146
2.94256
2.92302
2.90316
2.88313
2.86254
2.84207
2.82099
2.80017
2.77881
2.75773
2.73633
2.71504
2.69388
2.67256
2.65185
2.63093
2.61086
2.59085
2.57175
2.55327
2.53566
2.51963
2.50424
2.49069
2.47869
2.4696
2.46261
2.45947
2.45894
2.459
2.46216
2.4689
2.48236
2.49801
2.51529
2.53102
2.54551
2.55614
2.56505
2.56792
2.57576
5.27181
5.20208
5.06327
4.90606
4.75117
4.61084
4.48522
4.37529
4.27504
4.1837
4.09684
4.01356
3.93215
3.85231
3.77423
3.69775
3.62385
3.55244
3.48507
3.42139
3.36277
3.30847
3.25942
3.21545
3.17621
3.14274
3.11349
3.09001
3.07084
3.05716
3.04824
3.04359
3.04048
3.0431
3.04709
3.05215
3.06202
3.07147
3.08093
3.08906
3.09571
3.10069
3.10295
3.10428
3.10476
3.10456
3.10217
3.09795
3.09215
3.08461
3.07591
3.06522
3.05356
3.04013
3.0257
3.01015
2.99336
2.97624
2.95789
2.93971
2.9204
2.90137
2.88149
2.86173
2.84149
2.82112
2.80069
2.77991
2.75942
2.73854
2.71808
2.69745
2.67712
2.65715
2.63718
2.61825
2.59919
2.58175
2.56439
2.54929
2.53453
2.52186
2.51066
2.50256
2.49634
2.49493
2.49438
2.49541
2.49897
2.50896
2.52291
2.53969
2.55662
2.57272
2.58611
2.59694
2.60395
2.60869
2.60956
2.61447
5.46414
5.31915
5.15617
4.99506
4.84581
4.71308
4.59452
4.48882
4.39188
4.30073
4.21397
4.12906
4.04655
3.96486
3.88521
3.80677
3.73079
3.65676
3.58639
3.51914
3.4565
3.39733
3.34332
3.29298
3.24769
3.20642
3.17
3.13857
3.11168
3.08984
3.07244
3.06093
3.05198
3.04544
3.04411
3.04635
3.04974
3.05406
3.06215
3.06933
3.0762
3.08178
3.08541
3.08661
3.0873
3.08741
3.08593
3.08258
3.07731
3.07067
3.06268
3.05279
3.04222
3.02933
3.01627
3.00094
2.98563
2.96871
2.9517
2.93385
2.91557
2.89708
2.87787
2.85884
2.83909
2.81959
2.79965
2.77977
2.75992
2.73983
2.72031
2.70032
2.68135
2.66196
2.64376
2.62562
2.60864
2.5925
2.57771
2.56448
2.55218
2.54237
2.53497
2.53044
2.52955
2.52965
2.53155
2.53702
2.54933
2.5646
2.58168
2.59903
2.6144
2.62795
2.63747
2.64463
2.64789
2.64909
2.6494
2.65209
5.57922
5.39852
5.22637
5.07325
4.93468
4.81358
4.704
4.60268
4.50792
4.41636
4.3286
4.24214
4.15789
4.0746
3.99298
3.9128
3.83455
3.75841
3.68536
3.61533
3.54898
3.48581
3.427
3.37128
3.32044
3.27274
3.23044
3.19149
3.15761
3.12794
3.10293
3.08276
3.06758
3.05524
3.0451
3.0406
3.03908
3.04102
3.04334
3.04651
3.05216
3.05702
3.06124
3.063
3.0638
3.06409
3.06318
3.06102
3.05609
3.05066
3.04288
3.03475
3.02449
3.01347
3.00082
2.98714
2.97254
2.95691
2.9408
2.9238
2.90657
2.88872
2.87061
2.85227
2.83346
2.81494
2.79576
2.77712
2.75798
2.73926
2.72057
2.70199
2.68414
2.6662
2.6496
2.63307
2.61832
2.60428
2.59247
2.58111
2.57273
2.56616
2.56396
2.56351
2.56383
2.56752
2.57616
2.58959
2.60656
2.62402
2.64166
2.65676
2.66989
2.67878
2.68525
2.68776
2.68811
2.68777
2.6865
2.68806
5.63604
5.43772
5.27458
5.13976
5.01988
4.91023
4.80841
4.71066
4.61718
4.5254
4.43649
4.34895
4.2633
4.17898
4.09597
4.01435
3.9346
3.85702
3.78182
3.70949
3.64016
3.57384
3.51083
3.45096
3.39487
3.34213
3.29364
3.24848
3.20827
3.17129
3.13941
3.11089
3.08745
3.06852
3.05186
3.03828
3.02955
3.02515
3.02247
3.02351
3.02434
3.02598
3.02932
3.03187
3.03249
3.0327
3.03275
3.03135
3.02825
3.0232
3.0166
3.0091
2.99996
2.99013
2.97868
2.96656
2.95316
2.93907
2.9241
2.90836
2.89224
2.87534
2.85841
2.84086
2.8233
2.80566
2.78766
2.77032
2.7522
2.73523
2.71748
2.70104
2.68419
2.66879
2.65346
2.63993
2.6272
2.61678
2.60695
2.59997
2.5951
2.59457
2.59477
2.59664
2.60177
2.61424
2.62946
2.64744
2.66523
2.68304
2.69782
2.71049
2.71903
2.72482
2.72675
2.72681
2.7264
2.72474
2.72047
2.72065
5.6216
5.43355
5.29809
5.1884
5.09064
4.9939
4.89871
4.80359
4.7105
4.61916
4.52975
4.44233
4.35634
4.27208
4.18903
4.10755
4.02769
3.94951
3.87334
3.79923
3.72782
3.65853
3.5923
3.52851
3.46813
3.41061
3.35682
3.30609
3.25937
3.21563
3.1764
3.14039
3.10898
3.08165
3.05969
3.03925
3.02188
3.01
3.00128
2.99621
2.99308
2.99271
2.99318
2.99395
2.9949
2.99517
2.99531
2.99463
2.9931
2.98877
2.98363
2.97677
2.96916
2.96023
2.95038
2.93954
2.92761
2.91498
2.90127
2.88701
2.8721
2.8566
2.84105
2.82462
2.80875
2.79186
2.77587
2.75911
2.74325
2.7271
2.71181
2.69666
2.68253
2.66906
2.65682
2.64606
2.63714
2.62942
2.62355
2.62173
2.62169
2.62271
2.62663
2.63579
2.65003
2.66686
2.68594
2.70425
2.72196
2.73662
2.74866
2.75707
2.762
2.76352
2.76343
2.76271
2.76089
2.75681
2.74949
2.74884
5.55898
5.40315
5.30154
5.21956
5.14019
5.057
4.96966
4.88053
4.7908
4.70198
4.6143
4.52762
4.44223
4.35761
4.27442
4.19227
4.11164
4.03254
3.95497
3.87965
3.80614
3.73499
3.66575
3.59923
3.5349
3.47364
3.41497
3.35947
3.30704
3.25776
3.21204
3.1696
3.13111
3.09615
3.06528
3.03922
3.01498
2.99413
2.97883
2.96789
2.96017
2.95536
2.95262
2.95111
2.95059
2.95027
2.94982
2.94907
2.94763
2.94514
2.941
2.93575
2.92913
2.92156
2.91316
2.90366
2.89353
2.88236
2.87045
2.85794
2.84448
2.83105
2.81649
2.80232
2.78723
2.7726
2.75765
2.74307
2.72874
2.71481
2.7015
2.68886
2.67723
2.66661
2.65791
2.65072
2.6454
2.64158
2.64168
2.64277
2.64582
2.65246
2.66555
2.68205
2.70047
2.72009
2.73908
2.75643
2.77144
2.78271
2.79129
2.79545
2.79659
2.79647
2.79569
2.79348
2.78871
2.78303
2.77431
2.77277
5.47942
5.36132
5.28852
5.22552
5.15992
5.08706
5.00964
4.9282
4.8455
4.76136
4.67736
4.59309
4.50927
4.42578
4.34304
4.26127
4.18076
4.10156
4.02393
3.94754
3.87296
3.79989
3.72859
3.65917
3.59189
3.52696
3.46459
3.40465
3.34772
3.29318
3.24217
3.19373
3.14919
3.10769
3.07024
3.03652
3.00775
2.98057
2.95739
2.93908
2.92465
2.91398
2.90636
2.90128
2.89805
2.89617
2.89486
2.89385
2.89274
2.89096
2.88826
2.88449
2.87931
2.87335
2.86623
2.85861
2.85004
2.84066
2.83068
2.81976
2.80861
2.79657
2.78446
2.77181
2.75917
2.74648
2.73392
2.72169
2.70977
2.69859
2.68786
2.67849
2.6698
2.66321
2.65844
2.65451
2.65434
2.65516
2.65779
2.66308
2.67479
2.68996
2.70828
2.72865
2.74876
2.76884
2.78557
2.80099
2.81161
2.82008
2.82423
2.82512
2.82501
2.82428
2.82191
2.81692
2.81035
2.80365
2.79421
2.79191
5.4146
5.32802
5.27264
5.21755
5.15617
5.08921
5.01677
4.94107
4.86293
4.78372
4.70423
4.62467
4.54539
4.46597
4.38707
4.30811
4.23008
4.15185
4.07475
3.99762
3.92228
3.84775
3.775
3.70375
3.63435
3.567
3.50157
3.43847
3.37768
3.3194
3.26392
3.21107
3.16145
3.11465
3.07156
3.0318
2.99608
2.96462
2.93498
2.90988
2.88886
2.87221
2.85893
2.84935
2.84234
2.83756
2.83444
2.8322
2.83062
2.82914
2.82719
2.82452
2.82083
2.81643
2.8109
2.80491
2.79794
2.79034
2.78217
2.77318
2.76405
2.75404
2.74409