/*--------------------------------*- C++ -*----------------------------------*\
  =========                 |
  \\      /  F ield         | OpenFOAM: The Open Source CFD Toolbox
   \\    /   O peration     | Website:  https://openfoam.org
    \\  /    A nd           | Version:  9
     \\/     M anipulation  |
\*---------------------------------------------------------------------------*/
FoamFile
{
    format      ascii;
    class       volScalarField;
    location    "9.5";
    object      T;
}
// * * * * * * * * * * * * * * * * * * * * * * * * * * * * * * * * * * * * * //

dimensions      [0 0 0 1 0 0 0];

internalField   nonuniform List<scalar> 
5250
(
1.00001
1.00002
1.00005
1.00015
1.00033
1.00095
1.002
1.00582
1.01248
1.03489
1.08401
1.23027
1.61016
2.38192
2.72153
2.73974
2.73532
2.73824
2.75001
2.76577
2.77818
2.78634
2.79319
2.79818
2.80119
1.00001
1.00002
1.00006
1.00014
1.00036
1.00086
1.00222
1.00513
1.01373
1.03223
1.08607
1.22466
1.60583
2.37264
2.71846
2.73925
2.73474
2.73749
2.74916
2.76478
2.7771
2.78521
2.79202
2.79692
2.7998
1.00001
1.00002
1.00005
1.00015
1.00033
1.00091
1.00196
1.00559
1.0121
1.0338
1.081
1.22236
1.58935
2.35375
2.7111
2.7378
2.733
2.73522
2.74656
2.76196
2.77393
2.78205
2.78873
2.79372
2.79658
1.00001
1.00002
1.00005
1.00015
1.0003
1.00091
1.00184
1.00543
1.01173
1.03239
1.07838
1.21393
1.56775
2.32247
2.69936
2.73579
2.7303
2.7315
2.74238
2.7572
2.76909
2.77659
2.78289
2.7874
2.79012
1.00001
1.00002
1.00005
1.00012
1.00034
1.00073
1.00209
1.00442
1.01267
1.02839
1.07767
1.19947
1.5418
2.27661
2.68292
2.73335
2.7267
2.72634
2.73652
2.75071
2.76224
2.76954
2.77541
2.77976
2.78223
1.00001
1.00002
1.00004
1.00013
1.00027
1.00081
1.00166
1.00478
1.01059
1.02867
1.06974
1.18907
1.50289
2.21807
2.66031
2.73041
2.72203
2.71964
2.72923
2.7423
2.75317
2.75983
2.76492
2.76806
2.77014
1.00001
1.00002
1.00004
1.00011
1.00027
1.00068
1.00168
1.00407
1.01043
1.02519
1.06549
1.17095
1.46091
2.13892
2.63042
2.72647
2.71591
2.7109
2.71951
2.73195
2.74133
2.74711
2.75123
2.7533
2.75358
1
1.00002
1.00004
1.00011
1.00022
1.00067
1.00139
1.00395
1.00877
1.02366
1.05717
1.15394
1.40907
2.03943
2.59149
2.72041
2.70737
2.69979
2.70754
2.71905
2.72762
2.73089
2.73256
2.73149
2.72775
1
1.00001
1.00004
1.00008
1.00023
1.00052
1.00135
1.00327
1.00802
1.02029
1.05062
1.13247
1.35509
1.91708
2.54191
2.70898
2.69395
2.68453
2.69189
2.70188
2.70947
2.71104
2.7088
2.70156
2.68598
1
1.00001
1.00003
1.00007
1.00021
1.00042
1.00123
1.00264
1.00726
1.01669
1.04415
1.1105
1.29827
1.77488
2.47933
2.68858
2.6731
2.66442
2.67145
2.68061
2.68627
2.68546
2.67643
2.65405
2.59743
1
1.00001
1.00003
1.00007
1.00016
1.00041
1.001
1.0024
1.00616
1.01455
1.03806
1.09507
1.25496
1.67292
2.41572
2.66797
2.65505
2.64611
2.64881
2.65631
2.65986
2.65492
2.63537
2.58831
2.48316
1
1.00001
1.00002
1.00006
1.00014
1.00037
1.00081
1.00227
1.00486
1.01378
1.03101
1.0847
1.21764
1.58624
2.32089
2.63262
2.64194
2.63291
2.62964
2.63203
2.63121
2.62049
2.5909
2.52887
2.41883
1
1.00001
1.00002
1.00005
1.00013
1.00028
1.00081
1.00164
1.0049
1.01035
1.02903
1.06906
1.18838
1.49762
2.1946
2.5822
2.63257
2.62263
2.61378
2.61062
2.60407
2.58666
2.552
2.48963
2.39677
1
1.00001
1.00002
1.00004
1.00009
1.00028
1.00056
1.00169
1.00344
1.00997
1.02221
1.06051
1.15256
1.41541
2.03471
2.51647
2.62044
2.61111
2.59921
2.58894
2.57826
2.55757
2.51968
2.46471
2.38623
1
1.00001
1.00001
1.00003
1.00008
1.00021
1.00051
1.00124
1.00315
1.00738
1.01939
1.04669
1.12385
1.32751
1.84851
2.43033
2.59695
2.59248
2.58122
2.56809
2.55294
2.53191
2.49657
2.44478
2.37983
1
1
1.00001
1.00003
1.00006
1.00018
1.00038
1.00104
1.00234
1.00614
1.01458
1.0373
1.09386
1.24917
1.64994
2.32327
2.55867
2.56557
2.55677
2.54333
2.52853
2.50682
2.47609
2.42942
2.37214
1
1
1.00001
1.00002
1.00005
1.00014
1.00029
1.00087
1.00177
1.00516
1.01119
1.03058
1.07361
1.19876
1.5208
2.20004
2.51251
2.54294
2.53324
2.52168
2.50657
2.48433
2.45643
2.41687
2.36621
1
1
1.00001
1.00002
1.00004
1.0001
1.00027
1.00058
1.00168
1.00348
1.01009
1.0221
1.06061
1.15174
1.41095
2.01165
2.43502
2.52175
2.51532
2.50207
2.48788
2.46596
2.43903
2.40518
2.36218
1
1
1.00001
1.00001
1.00003
1.00008
1.00019
1.00051
1.00112
1.00312
1.00671
1.01877
1.04308
1.11668
1.30265
1.78706
2.33042
2.49031
2.49522
2.485
2.46849
2.44937
2.42424
2.39502
2.35867
1
1
1
1.00001
1.00003
1.00005
1.00016
1.00033
1.00095
1.00206
1.00553
1.01281
1.03321
1.08209
1.21731
1.56571
2.1952
2.4425
2.4696
2.46318
2.44876
2.43127
2.41158
2.38628
2.35739
1
1
1
1.00001
1.00002
1.00004
1.00012
1.00025
1.00073
1.00149
1.00431
1.00935
1.0254
1.06056
1.16214
1.42296
2.02001
2.37678
2.44616
2.44292
2.43108
2.41579
2.39917
2.37963
2.35697
1
1
1
1.00001
1.00001
1.00003
1.00008
1.0002
1.00051
1.00114
1.00314
1.00679
1.01901
1.04327
1.11759
1.30285
1.78271
2.27148
2.41399
2.42315
2.41603
2.40263
2.388
2.37495
2.36026
1
1
1
1
1.00001
1.00002
1.00006
1.00013
1.00038
1.00079
1.0023
1.00472
1.01352
1.03
1.08118
1.20373
1.53885
2.12483
2.36285
2.4002
2.39869
2.39103
2.3796
2.37401
2.36909
1
1
1
1
1.00001
1.00002
1.00005
1.0001
1.00028
1.00056
1.00166
1.00338
1.00975
1.0214
1.05807
1.14377
1.38492
1.9286
2.29157
2.37742
2.38545
2.38279
2.37887
2.37928
2.38295
1
1
1
1
1
1.00001
1.00003
1.00007
1.00019
1.00042
1.00113
1.00243
1.00682
1.01477
1.04052
1.09715
1.26026
1.66491
2.17733
2.3469
2.37271
2.38025
2.38302
2.38907
2.3973
1
1
1
1
1
1.00001
1.00002
1.00006
1.00011
1.00033
1.00069
1.00193
1.00422
1.01128
1.0263
1.0687
1.17341
1.45923
2.01895
2.30091
2.36337
2.3832
2.39439
2.40583
2.4156
1
1
1
1
1
1.00001
1.00002
1.00003
1.00009
1.0002
1.00056
1.00117
1.00339
1.00706
1.01992
1.04533
1.12245
1.31308
1.79028
2.22085
2.35888
2.39597
2.41227
2.42586
2.43681
1
1
1
1
1
1
1.00001
1.00002
1.00006
1.00015
1.00036
1.00089
1.00212
1.00542
1.01254
1.03279
1.07953
1.20902
1.5409
2.10002
2.3492
2.41688
2.44
2.45046
2.45682
1
1
1
1
1
1
1.00001
1.00002
1.00004
1.00012
1.00024
1.0007
1.00143
1.00406
1.00889
1.02387
1.0569
1.15112
1.39205
1.94214
2.33015
2.45467
2.47602
2.48035
2.47773
1
1
1
1
1
1
1.00001
1.00001
1.00004
1.00007
1.0002
1.00044
1.00119
1.00268
1.00692
1.01657
1.04194
1.10582
1.27763
1.70563
2.28745
2.50046
2.52217
2.5142
2.49834
1
1
1
1
1
1
1
1.00001
1.00003
1.00006
1.00016
1.00034
1.00096
1.00202
1.00582
1.01245
1.03472
1.08269
1.2242
1.58588
2.25261
2.55672
2.57949
2.55612
2.52237
1
1
1
1
1
1
1
1.00001
1.00002
1.00005
1.00012
1.0003
1.00073
1.00188
1.00435
1.01167
1.02722
1.07278
1.18775
1.50651
2.17606
2.60151
2.64437
2.60722
2.55715
1
1
1
1
1
1
1
1.00001
1.00002
1.00005
1.00009
1.00028
1.00059
1.00168
1.00373
1.01007
1.0238
1.06303
1.16302
1.44402
2.07463
2.62575
2.70307
2.65698
2.59342
1
1
1
1
1
1
1
1.00001
1.00002
1.00004
1.00009
1.00024
1.00053
1.00149
1.0032
1.00923
1.0204
1.05681
1.14282
1.39476
1.97952
2.6339
2.7454
2.69322
2.62632
1
1
1
1
1
1
1
1.00001
1.00001
1.00004
1.00008
1.00021
1.0005
1.00125
1.00315
1.00757
1.01981
1.04864
1.12983
1.35056
1.89099
2.62448
2.771
2.71691
2.6526
1
1
1
1
1
1
1
1.00001
1.00001
1.00003
1.00007
1.00019
1.00046
1.00114
1.00289
1.00688
1.01817
1.04402
1.11771
1.3153
1.8216
2.5981
2.7786
2.72716
2.67084
1
1
1
1
1
1
1
1
1.00001
1.00003
1.00007
1.00017
1.00045
1.00104
1.00281
1.00626
1.01738
1.04059
1.11039
1.29231
1.7803
2.55521
2.78368
2.73995
2.69048
1
1
1
1
1
1
1
1
1.00001
1.00003
1.00007
1.00017
1.00041
1.00105
1.00245
1.00656
1.01516
1.0407
1.10199
1.27825
1.74524
2.52068
2.78299
2.75109
2.70213
1
1
1
1
1
1
1
1
1.00001
1.00002
1.00007
1.00014
1.00043
1.00092
1.00256
1.00579
1.01548
1.03738
1.09961
1.26381
1.71675
2.49044
2.77783
2.75484
2.70951
1
1
1
1
1
1
1
1
1.00001
1.00002
1.00007
1.00014
1.00042
1.00086
1.00257
1.00533
1.01547
1.03524
1.09688
1.25331
1.69525
2.4621
2.76938
2.75323
2.71723
1
1
1
1
1
1
1
1
1.00001
1.00003
1.00006
1.00016
1.00034
1.001
1.00205
1.00616
1.01313
1.03706
1.09027
1.24846
1.678
2.43189
2.76148
2.752
2.72237
1
1
1
1
1
1
1
1
1.00001
1.00002
1.00006
1.00014
1.00036
1.00087
1.00228
1.00526
1.01429
1.03365
1.09066
1.23883
1.66456
2.39999
2.75443
2.75274
2.72537
1
1
1
1
1
1
1
1
1.00001
1.00002
1.00006
1.00014
1.00035
1.00088
1.00211
1.00551
1.013
1.03446
1.08635
1.23395
1.64697
2.37299
2.74746
2.75437
2.72709
1
1
1
1
1
1
1
1
1.00001
1.00002
1.00005
1.00014
1.00032
1.00091
1.00196
1.00563
1.01229
1.03431
1.08344
1.22924
1.6246
2.35446
2.74021
2.75499
2.72847
1
1
1
1
1
1
1
1
1.00001
1.00002
1.00005
1.00015
1.00031
1.00092
1.00187
1.00562
1.01198
1.0337
1.08172
1.22444
1.60371
2.34126
2.73192
2.75477
2.72986
1
1
1
1
1
1
1
1
1.00001
1.00002
1.00005
1.00014
1.00033
1.00085
1.00196
1.00533
1.01211
1.03289
1.08068
1.22025
1.58835
2.33124
2.72267
2.75353
2.73048
1
1
1
1
1
1
1
1
1.00001
1.00002
1.00006
1.00013
1.00035
1.00076
1.00219
1.00464
1.0134
1.0301
1.08291
1.21427
1.58301
2.32213
2.71245
2.75143
2.73023
1
1
1
1
1
1
1
1
1.00001
1.00002
1.00005
1.00013
1.00034
1.00077
1.00214
1.00467
1.01317
1.03002
1.08204
1.2124
1.57714
2.31703
2.70308
2.74937
2.72964
1
1
1
1
1
1
1
1
1.00001
1.00002
1.00006
1.00013
1.00035
1.00075
1.00216
1.00461
1.01316
1.02983
1.08155
1.21111
1.57336
2.31402
2.69596
2.74785
2.72995
1
1
1
1
1
1
1
1
1.00001
1.00002
1.00005
1.00014
1.00031
1.00083
1.00199
1.00493
1.01247
1.03081
1.07989
1.21207
1.56998
2.31342
2.69192
2.74702
2.73059
2.35581
2.4935
2.79102
3.04095
3.04501
3.00304
2.9898
2.97885
2.9631
2.94671
2.93322
2.92495
2.92266
2.92163
2.92144
2.92483
2.93003
2.93769
2.94551
2.95475
2.96195
2.97123
2.97821
2.98593
2.9926
2.99713
3.00255
3.0052
3.00782
3.00876
3.00904
3.0072
3.00443
3.0018
3.0009
2.99838
2.99543
2.9914
2.98584
2.97923
2.97455
2.9666
2.96113
2.95235
2.94562
2.93594
2.92796
2.91801
2.91071
2.89997
2.89169
2.88104
2.87181
2.86151
2.85184
2.84103
2.83181
2.82005
2.81066
2.79872
2.78924
2.77734
2.76725
2.75581
2.74492
2.7338
2.72267
2.71136
2.70039
2.68878
2.678
2.66634
2.65569
2.64408
2.63366
2.62204
2.61192
2.60031
2.59045
2.57906
2.56931
2.55841
2.54864
2.53842
2.52859
2.51905
2.50933
2.50034
2.49107
2.48255
2.47402
2.46606
2.45849
2.45144
2.44511
2.43942
2.43476
2.43089
2.42833
2.42514
2.37045
2.46551
2.6186
2.84335
2.99966
3.04324
3.13146
3.1549
3.15608
3.1517
3.14455
3.14332
3.14434
3.14356
3.13935
3.13439
3.12973
3.12523
3.11892
3.11384
3.10636
3.09735
3.08829
3.08295
3.07933
3.07422
3.06782
3.05914
3.05191
3.04114
3.03185
3.02054
3.01116
2.99968
2.98877
2.9769
2.96547
2.95244
2.93908
2.92675
2.91329
2.90055
2.88799
2.8754
2.8616
2.84881
2.8352
2.82347
2.80999
2.79814
2.78556
2.77319
2.76115
2.74873
2.73711
2.72491
2.7135
2.70163
2.68999
2.67865
2.66673
2.65586
2.64405
2.63331
2.6219
2.61104
2.59999
2.58903
2.57822
2.56726
2.55676
2.54586
2.53575
2.52493
2.51524
2.50453
2.49517
2.48467
2.4755
2.46535
2.45621
2.44657
2.43741
2.42833
2.41925
2.41064
2.40187
2.39362
2.38538
2.37745
2.36988
2.36246
2.35572
2.34912
2.3435
2.33817
2.33407
2.33046
2.32832
2.32531
2.35959
2.38845
2.46976
2.52944
2.6607
2.7781
2.93313
3.04832
3.12124
3.14656
3.15379
3.16792
3.2085
3.22303
3.21489
3.20537
3.18832
3.17341
3.15636
3.13971
3.12217
3.10439
3.08829
3.07069
3.05201
3.03376
3.01351
2.99449
2.97497
2.95604
2.93632
2.91777
2.89887
2.87999
2.86204
2.84353
2.82639
2.80909
2.79244
2.77628
2.75998
2.74507
2.73016
2.71613
2.70191
2.68704
2.6738
2.65977
2.64755
2.63418
2.62242
2.60949
2.59801
2.58585
2.57439
2.56303
2.55137
2.54056
2.52893
2.5185
2.50721
2.49703
2.48609
2.47602
2.46527
2.45524
2.4446
2.43462
2.42415
2.41426
2.40408
2.3943
2.3845
2.37489
2.36545
2.35614
2.34698
2.33808
2.32908
2.32075
2.3118
2.30412
2.29524
2.28817
2.27942
2.2728
2.26435
2.25811
2.25014
2.24433
2.23699
2.23176
2.22523
2.22084
2.2154
2.21226
2.20835
2.20688
2.20496
2.20402
2.3368
2.33006
2.36365
2.39438
2.45723
2.52951
2.61145
2.70916
2.81645
2.90217
2.97591
3.0155
3.04322
3.05503
3.05145
3.04295
3.02911
3.01128
2.99137
2.96857
2.9443
2.91994
2.89665
2.87304
2.85137
2.82742
2.80596
2.78325
2.76317
2.74311
2.7246
2.70705
2.68976
2.67454
2.65857
2.64517
2.63082
2.61847
2.60541
2.59366
2.58155
2.57062
2.55976
2.54994
2.53924
2.52907
2.51845
2.50911
2.49913
2.49042
2.48057
2.47231
2.46245
2.45454
2.44469
2.43698
2.42723
2.41955
2.40997
2.40223
2.39282
2.38496
2.37567
2.36766
2.35845
2.35029
2.34119
2.33289
2.3239
2.31549
2.30662
2.29813
2.28935
2.28086
2.27215
2.26378
2.25507
2.24696
2.23822
2.23043
2.22161
2.2141
2.20531
2.19808
2.18959
2.18268
2.17468
2.16807
2.16067
2.15443
2.14773
2.14199
2.13616
2.13118
2.12646
2.12266
2.11944
2.11725
2.11593
2.11412
2.32245
2.2955
2.29661
2.31823
2.34475
2.39528
2.44114
2.49842
2.55101
2.60544
2.6443
2.67916
2.69724
2.7094
2.70695
2.7006
2.69241
2.68304
2.67551
2.66288
2.65065
2.63775
2.62416
2.61147
2.59792
2.58584
2.57232
2.56145
2.54987
2.54082
2.53106
2.52265
2.51422
2.50606
2.49879
2.49113
2.4848
2.4777
2.47194
2.465
2.45949
2.45256
2.44776
2.44112
2.43586
2.42823
2.42201
2.4145
2.40819
2.40089
2.39427
2.38693
2.38
2.37248
2.36535
2.35762
2.35039
2.34247
2.33515
2.32714
2.31974
2.31174
2.30426
2.2963
2.28873
2.28076
2.27312
2.26508
2.25741
2.24926
2.24165
2.23341
2.22591
2.21771
2.21035
2.20227
2.1949
2.18694
2.17943
2.17168
2.16407
2.15663
2.14902
2.14187
2.13435
2.12749
2.12021
2.1137
2.10684
2.10084
2.09454
2.08928
2.08376
2.07956
2.07514
2.07239
2.0695
2.06857
2.06761
2.06693
2.31862
2.27957
2.26525
2.26745
2.28436
2.31149
2.34916
2.38435
2.41932
2.44576
2.46476
2.47598
2.4785
2.47709
2.47377
2.46962
2.46239
2.45638
2.45621
2.45517
2.45353
2.4503
2.44827
2.44433
2.44214
2.43828
2.43568
2.43239
2.43025
2.42738
2.42479
2.42184
2.41893
2.41583
2.41322
2.41006
2.40769
2.40424
2.40154
2.39744
2.39402
2.38943
2.38601
2.38159
2.3774
2.37189
2.36635
2.36056
2.35463
2.34883
2.34252
2.33663
2.32995
2.32379
2.31677
2.31032
2.30305
2.29629
2.28879
2.28161
2.27386
2.26624
2.25834
2.25034
2.24242
2.23411
2.22626
2.21774
2.21004
2.20147
2.19396
2.18551
2.17809
2.16991
2.16247
2.15456
2.14702
2.13961
2.13202
2.12511
2.11748
2.11102
2.10344
2.09734
2.08989
2.08408
2.0769
2.07135
2.06457
2.05933
2.05314
2.04837
2.04309
2.03904
2.03516
2.03226
2.03015
2.02906
2.02868
2.02721
2.31677
2.27694
2.25276
2.24571
2.25146
2.26897
2.29501
2.32114
2.34476
2.35814
2.36535
2.36318
2.35664
2.34895
2.34192
2.33661
2.33268
2.32847
2.32827
2.33144
2.33571
2.33939
2.34217
2.34426
2.34547
2.34694
2.34775
2.34891
2.34963
2.34995
2.35032
2.35027
2.35002
2.34946
2.34859
2.34695
2.34517
2.34252
2.33979
2.33626
2.33243
2.32821
2.32412
2.31999
2.31524
2.3102
2.30425
2.2987
2.29235
2.28659
2.27998
2.27397
2.26716
2.26083
2.25385
2.24721
2.24013
2.23329
2.22617
2.21921
2.21205
2.20498
2.19778
2.19065
2.18344
2.17628
2.16908
2.16188
2.15471
2.14751
2.14037
2.13318
2.12601
2.11888
2.11164
2.10474
2.09743
2.09076
2.08333
2.07691
2.06942
2.0633
2.05588
2.05008
2.04294
2.03748
2.03085
2.02571
2.01983
2.01505
2.01003
2.00592
2.00184
1.99885
1.99606
1.99449
1.99365
1.99381
1.99432
1.99319
2.31776
2.27985
2.25317
2.24188
2.24258
2.25465
2.27336
2.29301
2.3066
2.31155
2.30838
2.29905
2.28618
2.27275
2.26176
2.25426
2.25027
2.24657
2.24545
2.24655
2.25147
2.25722
2.26181
2.26575
2.26847
2.27105
2.2729
2.27477
2.27612
2.27729
2.27806
2.27846
2.27839
2.27804
2.27729
2.27575
2.27449
2.27224
2.27038
2.26758
2.26512
2.26217
2.25955
2.25674
2.25334
2.24964
2.24498
2.24067
2.23539
2.2308
2.22512
2.22029
2.21432
2.2092
2.20296
2.19752
2.19105
2.18528
2.17861
2.17253
2.16568
2.15929
2.1523
2.14563
2.13854
2.13167
2.12449
2.11748
2.11018
2.10305
2.09563
2.08856
2.08114
2.07426
2.06683
2.06024
2.05283
2.04654
2.03917
2.03309
2.02585
2.01987
2.01288
2.007
2.00039
1.99473
1.98857
1.98331
1.97775
1.97295
1.96828
1.96415
1.96066
1.95762
1.95571
1.95431
1.95438
1.95468
1.95549
1.95421
2.32065
2.28864
2.26392
2.25117
2.25096
2.2587
2.27225
2.28405
2.28971
2.28682
2.27685
2.26173
2.24479
2.22861
2.21474
2.20525
2.19837
2.19604
2.19286
2.19294
2.19479
2.19999
2.20567
2.21066
2.21478
2.21874
2.22146
2.22461
2.22659
2.22917
2.23076
2.23279
2.23386
2.23531
2.23565
2.23634
2.23614
2.23574
2.23514
2.23386
2.23258
2.23071
2.22894
2.22693
2.2242
2.22119
2.21723
2.2135
2.2088
2.2046
2.19941
2.19484
2.18934
2.18443
2.17866
2.17338
2.16737
2.16171
2.15548
2.14945
2.14303
2.13669
2.13011
2.12349
2.11681
2.10999
2.10323
2.0962
2.08936
2.08229
2.07536
2.06837
2.06132
2.05453
2.04745
2.0409
2.03392
2.02756
2.02077
2.01457
2.00798
2.00194
1.99559
1.98973
1.98372
1.97814
1.97263
1.96743
1.9626
1.958
1.95405
1.95044
1.94754
1.94553
1.94408
1.94413
1.94439
1.94484
1.94647
1.94526
2.32688
2.29906
2.28105
2.27107
2.2715
2.27692
2.28325
2.28677
2.28353
2.27382
2.25862
2.24038
2.22147
2.203
2.18786
2.17527
2.16728
2.16145
2.15923
2.15629
2.1563
2.1576
2.16183
2.16663
2.17154
2.17574
2.17991
2.18306
2.18641
2.18888
2.19156
2.19352
2.1955
2.19684
2.19795
2.19844
2.19863
2.19844
2.19791
2.19689
2.19549
2.19381
2.19183
2.18998
2.18722
2.18453
2.18079
2.17745
2.17303
2.16909
2.1641
2.15963
2.15426
2.14935
2.1437
2.13839
2.1325
2.12681
2.12067
2.11461
2.10827
2.10193
2.09542
2.08894
2.0823
2.07574
2.06898
2.06244
2.05565
2.04904
2.04228
2.03551
2.02889
2.022
2.01552
2.00872
2.00227
1.99579
1.98926
1.9832
1.97665
1.9709
1.96462
1.95909
1.95336
1.9481
1.94316
1.93827
1.93427
1.93013
1.92718
1.92434
1.92264
1.92172
1.92192
1.92248
1.9234
1.9249
1.92871
1.92882
2.33741
2.31766
2.30497
2.2986
2.29879
2.29995
2.29917
2.2945
2.28478
2.26963
2.25116
2.23162
2.21186
2.19352
2.1766
2.16305
2.1519
2.14466
2.13875
2.13631
2.13369
2.13293
2.13331
2.13633
2.14057
2.14495
2.14951
2.15333
2.15722
2.16005
2.16299
2.16535
2.16735
2.16926
2.17036
2.17157
2.17187
2.17236
2.17218
2.17168
2.17063
2.16962
2.16796
2.16674
2.16423
2.16207
2.15857
2.15579
2.1516
2.14815
2.14333
2.13927
2.13403
2.1295
2.12401
2.1191
2.11342
2.10813
2.10225
2.09657
2.09048
2.08444
2.07817
2.07179
2.06538
2.05883
2.05238
2.0458
2.03924
2.03269
2.02598
2.01949
2.01269
2.00624
1.99952
1.99307
1.98656
1.98015
1.97389
1.96756
1.96156
1.95541
1.9497
1.94391
1.93856
1.93339
1.92853
1.92423
1.92017
1.91705
1.91425
1.91256
1.91162
1.91181
1.91231
1.91323
1.91515
1.91806
1.92259
1.92342
2.34865
2.33934
2.33231
2.32861
2.32668
2.32279
2.31521
2.30379
2.28883
2.27071
2.25046
2.23053
2.21063
2.19274
2.17562
2.16126
2.14851
2.13882
2.13071
2.12514
2.12054
2.11819
2.11625
2.11637
2.11776
2.12122
2.12438
2.1286
2.13233
2.13566
2.13885
2.14121
2.14369
2.14538
2.14698
2.14802
2.14867
2.14905
2.14899
2.14854
2.14757
2.14651
2.1449
2.14357
2.14107
2.1389
2.13557
2.13291
2.12903
2.12574
2.12134
2.11737
2.11259
2.10802
2.10298
2.09798
2.09267
2.08732
2.08168
2.07605
2.07004
2.06419
2.05789
2.05182
2.04549
2.03923
2.03302
2.02656
2.02043
2.01385
2.00766
2.00107
1.99472
1.98825
1.98176
1.97551
1.969
1.96297
1.95662
1.95075
1.94475
1.93902
1.93355
1.92806
1.92328
1.91827
1.91423
1.91014
1.90708
1.90444
1.90271
1.90197
1.90217
1.90272
1.90377
1.90599
1.9093
1.9141
1.91887
1.92017
2.36532
2.36303
2.36152
2.35854
2.35233
2.34239
2.32813
2.31156
2.29265
2.27348
2.25374
2.23434
2.21582
2.19792
2.18142
2.16572
2.15208
2.1398
2.12959
2.12088
2.11417
2.10882
2.10573
2.10348
2.10269
2.10292
2.10436
2.10728
2.11014
2.11393
2.1168
2.11974
2.12193
2.12378
2.12536
2.12633
2.12726
2.12759
2.12794
2.12764
2.12681
2.12589
2.12455
2.12312
2.12112
2.11881
2.11611
2.11322
2.10986
2.1064
2.1023
2.09822
2.09349
2.08887
2.08381
2.07875
2.07357
2.06816
2.06282
2.05711
2.05144
2.04555
2.03951
2.03364
2.02736
2.02145
2.01509
2.00902
2.00271
1.99642
1.9902
1.98376
1.97761
1.97113
1.96506
1.95871
1.95272
1.94667
1.94081
1.93517
1.9295
1.92436
1.91904
1.91445
1.90972
1.90571
1.90196
1.89889
1.89662
1.89491
1.89458
1.89482
1.89551
1.8969
1.89913
1.90322
1.90814
1.91302
1.91786
1.91864
2.38445
2.3867
2.38515
2.37991
2.36932
2.35481
2.33704
2.31808
2.29907
2.27912
2.26043
2.2411
2.22371
2.20564
2.18946
2.1729
2.15846
2.14442
2.13254
2.12157
2.11283
2.10514
2.09953
2.09476
2.09238
2.09041
2.08997
2.09021
2.09158
2.09413
2.09691
2.09958
2.10179
2.10357
2.10517
2.10607
2.10706
2.10736
2.1077
2.10743
2.10677
2.10576
2.10447
2.10318
2.10141
2.09936
2.09691
2.09403
2.09103
2.08748
2.08383
2.07972
2.07538
2.07086
2.066
2.06118
2.05604
2.05089
2.04562
2.04006
2.03462
2.02874
2.02315
2.01717
2.01133
2.00539
1.99931
1.99344
1.98722
1.98137
1.97513
1.96923
1.96307
1.95708
1.95107
1.94502
1.93924
1.93326
1.92779
1.92208
1.91701
1.91181
1.90723
1.9028
1.89876
1.89537
1.89228
1.89034
1.88867
1.88865
1.88892
1.8897
1.89119
1.89378
1.89837
1.90305
1.90896
1.91293
1.91761
1.91755
2.40521
2.41038
2.40823
2.39889
2.38326
2.36364
2.34312
2.32239
2.30405
2.28495
2.26792
2.24984
2.23367
2.21622
2.20039
2.18342
2.1683
2.15263
2.13924
2.12605
2.11506
2.10493
2.09679
2.08978
2.08466
2.08074
2.07852
2.07692
2.07632
2.07649
2.07769
2.07939
2.08131
2.0829
2.08452
2.0854
2.08644
2.08674
2.0872
2.08697
2.08645
2.08544
2.08425
2.08307
2.08138
2.07959
2.07703
2.07446
2.07144
2.0682
2.06471
2.0608
2.05668
2.05227
2.04758
2.04289
2.0378
2.03289
2.02754
2.02228
2.0168
2.01125
2.00577
1.99993
1.99442
1.9884
1.98281
1.97676
1.97105
1.96511
1.95927
1.95352
1.94758
1.94201
1.93606
1.93065
1.92487
1.91958
1.91419
1.90911
1.90432
1.89963
1.89564
1.89149
1.88847
1.88546
1.88371
1.8824
1.8825
1.88293
1.88398
1.88563
1.88925
1.89314
1.89916
1.904
1.90954
1.91277
1.91625
1.91572
2.42231
2.42708
2.42211
2.40704
2.38718
2.36605
2.34594
2.32615
2.30869
2.29105
2.27478
2.25806
2.24219
2.2254
2.20938
2.19235
2.17646
2.1602
2.14554
2.13112
2.11854
2.10658
2.09647
2.08741
2.0801
2.07386
2.06911
2.06555
2.06308
2.06135
2.06036
2.06047
2.06138
2.06253
2.06397
2.0648
2.06586
2.06612
2.06661
2.06641
2.06596
2.06499
2.06406
2.06278
2.06143
2.0596
2.05731
2.05485
2.05199
2.04894
2.0456
2.04186
2.03802
2.03368
2.02936
2.0247
2.01995
2.01516
2.00994
2.00501
1.99953
1.99446
1.98886
1.98356
1.97795
1.97241
1.96683
1.9611
1.95559
1.94975
1.94431
1.93847
1.93305
1.92735
1.92196
1.91655
1.91122
1.90624
1.90114
1.89671
1.89215
1.88837
1.88462
1.88162
1.87921
1.87748
1.87677
1.87696
1.87775
1.87882
1.88116
1.88417
1.88962
1.89462
1.90048
1.90486
1.90923
1.9115
1.91371
1.91273
2.44301
2.44195
2.43099
2.40943
2.38732
2.36599
2.34732
2.32912
2.31301
2.29654
2.28101
2.26495
2.24922
2.23281
2.21657
2.19989
2.18364
2.16734
2.15202
2.13689
2.12309
2.10968
2.09796
2.08682
2.07732
2.06878
2.06179
2.0559
2.05125
2.04806
2.04547
2.04404
2.04277
2.0428
2.04327
2.04396
2.04488
2.04519
2.04567
2.04551
2.04512
2.04435
2.04332
2.04213
2.04093
2.03934
2.03733
2.03509
2.03239
2.02964
2.02639
2.02301
2.01933
2.01526
2.01124
2.00663
2.00228
1.9973
1.99258
1.98749
1.98246
1.97733
1.97205
1.96689
1.96144
1.95622
1.95067
1.94538
1.93983
1.93446
1.92905
1.92361
1.91841
1.91299
1.90799
1.90278
1.89801
1.89322
1.8888
1.88475
1.88088
1.87773
1.87467
1.87275
1.8711
1.87094
1.87116
1.872
1.87369
1.87585
1.88025
1.88499
1.89082
1.89592
1.90095
1.90448
1.90753
1.90879
1.91007
1.90876
2.45772
2.4479
2.42902
2.4065
2.38496
2.36486
2.34759
2.33125
2.31654
2.30154
2.28678
2.27146
2.25584
2.23982
2.22338
2.20691
2.19024
2.17388
2.15757
2.14199
2.12669
2.11243
2.09884
2.08622
2.07489
2.06431
2.05548
2.04741
2.04103
2.03554
2.03151
2.0281
2.02554
2.02402
2.02269
2.0227
2.0229
2.02337
2.02381
2.02388
2.02369
2.02322
2.02229
2.02121
2.02019
2.01873
2.01707
2.01496
2.01258
2.01007
2.00705
2.00407
2.00051
1.99696
1.993
1.98881
1.98453
1.97978
1.97531
1.9703
1.96565
1.96051
1.95565
1.95048
1.94542
1.94028
1.93505
1.92995
1.92462
1.91955
1.91425
1.90918
1.9041
1.89905
1.89437
1.88947
1.8853
1.8808
1.87729
1.87351
1.87078
1.86791
1.8663
1.86504
1.8651
1.86556
1.86668
1.86834
1.87147
1.87577
1.88129
1.88675
1.89224
1.89672
1.90052
1.90293
1.90465
1.90518
1.9055
1.90398
2.46603
2.44661
2.42386
2.4017
2.38154
2.36321
2.34726
2.33227
2.31799
2.3039
2.28925
2.27448
2.25884
2.2431
2.22672
2.21039
2.19377
2.17735
2.16081
2.14481
2.12881
2.11379
2.09897
2.08548
2.0726
2.06106
2.05042
2.04075
2.03238
2.02505
2.0191
2.01409
2.0099
2.00676
2.00466
2.0034
2.00231
2.00229
2.00237
2.00259
2.00255
2.00228
2.00162
2.00077
1.99989
1.99873
1.99737
1.9954
1.99339
1.99106
1.9884
1.98576
1.98236
1.97931
1.97529
1.97171
1.96723
1.96311
1.95848
1.95391
1.94922
1.94434
1.93963
1.93458
1.9298
1.9247
1.91978
1.91476
1.9097
1.90484
1.89971
1.89508
1.89002
1.88564
1.88093
1.87686
1.8728
1.86922
1.8661
1.86327
1.86111
1.85949
1.85893
1.85909
1.85996
1.86113
1.86327
1.86688
1.87174
1.8773
1.88292
1.88805
1.89275
1.89597
1.89871
1.89977
1.90059
1.90043
1.90006
1.89835
2.47177
2.44499
2.42144
2.39982
2.38185
2.36462
2.34909
2.33463
2.32022
2.30619
2.29136
2.2765
2.26091
2.24522
2.22915
2.21298
2.19669
2.1803
2.16385
2.14754
2.13131
2.11574
2.10038
2.08616
2.0722
2.05961
2.04725
2.03645
2.02626
2.01731
2.00942
2.00261
1.99708
1.99205
1.98839
1.98566
1.98403
1.98291
1.98223
1.98224
1.98235
1.98234
1.98215
1.98172
1.98102
1.98018
1.97927
1.97761
1.97613
1.97376
1.97174
1.96882
1.96612
1.9628
1.95945
1.95574
1.95175
1.94771
1.94334
1.939
1.93437
1.92978
1.92505
1.92022
1.91551
1.91047
1.90578
1.9007
1.89599
1.89109
1.88635
1.88181
1.87716
1.87309
1.86876
1.86527
1.86163
1.85898
1.85623
1.85455
1.85305
1.85308
1.85335
1.85426
1.85607
1.85854
1.86276
1.868
1.8734
1.87916
1.88399
1.88857
1.89154
1.89418
1.8951
1.89585
1.89553
1.89526
1.89471
1.89291
2.48368
2.45033
2.42512
2.40381
2.38619
2.37026
2.35471
2.33992
2.32484
2.3101
2.29477
2.2794
2.26362
2.2477
2.23168
2.21563
2.19942
2.18303
2.16654
2.15005
2.13369
2.11768
2.10205
2.08707
2.07256
2.05889
2.04569
2.0336
2.02181
2.01153
2.00179
1.99374
1.98647
1.98066
1.97546
1.97133
1.96873
1.96669
1.96583
1.96518
1.96506
1.96513
1.96524
1.96509
1.96469
1.96431
1.9635
1.96264
1.96106
1.95918
1.95715
1.95464
1.95213
1.94903
1.94594
1.94231
1.93865
1.93466
1.93054
1.92632
1.92184
1.91745
1.91274
1.90819
1.90346
1.89865
1.89404
1.889
1.88456
1.87954
1.87531
1.8706
1.8667
1.86249
1.85916
1.8557
1.85325
1.85081
1.84922
1.8482
1.8483
1.84884
1.84981
1.8518
1.85534
1.85972
1.86516
1.87055
1.87629
1.88088
1.8853
1.88812
1.89045
1.89138
1.89179
1.89157
1.89109
1.89033
1.88924
1.88735
2.50792
2.4691
2.44082
2.41898
2.39957
2.38278
2.36637
2.35069
2.33478
2.31883
2.30273
2.28641
2.2701
2.25357
2.23708
2.22046
2.20373
2.187
2.17012
2.15352
2.13692
2.12082
2.10486
2.08956
2.07452
2.06022
2.04629
2.03328
2.02078
2.00955
1.99884
1.98959
1.98106
1.97376
1.96737
1.96199
1.95779
1.9548
1.95312
1.95196
1.9515
1.9512
1.95103
1.95095
1.95077
1.9505
1.95001
1.94945
1.94827
1.94692
1.94489
1.94287
1.94032
1.93764
1.93461
1.93131
1.92788
1.9241
1.92028
1.91616
1.9119
1.90757
1.90289
1.89852
1.8936
1.88926
1.8843
1.87993
1.87513
1.87081
1.86632
1.86228
1.85829
1.85477
1.8516
1.84901
1.84693
1.84532
1.84478
1.84493
1.84553
1.84691
1.84936
1.85345
1.85817
1.8639
1.86923
1.87481
1.87927
1.88337
1.88616
1.88809
1.88914
1.8893
1.88912
1.88871
1.88783
1.88635
1.88487
1.88283
2.53898
2.49963
2.4695
2.44482
2.42275
2.40246
2.38341
2.36493
2.34697
2.32919
2.31164
2.29442
2.27734
2.26061
2.24385
2.22722
2.21051
2.19373
2.17695
2.16017
2.14367
2.12724
2.11126
2.09543
2.08021
2.06523
2.05095
2.03716
2.02409
2.01184
2.00035
1.98994
1.9804
1.97217
1.96501
1.95889
1.95339
1.94926
1.94592
1.9434
1.94186
1.94097
1.9405
1.94045
1.94048
1.94045
1.94034
1.94006
1.93951
1.93838
1.93699
1.93509
1.93298
1.93047
1.92763
1.92461
1.92121
1.9177
1.91392
1.90984
1.90579
1.9012
1.89697
1.89218
1.88782
1.88309
1.87862
1.87405
1.8696
1.8653
1.86116
1.85732
1.85379
1.85077
1.84817
1.84634
1.84471
1.84446
1.84462
1.84518
1.84672
1.84991
1.85428
1.85932
1.865
1.87046
1.87568
1.8802
1.88364
1.88655
1.8879
1.88908
1.88902
1.88879
1.88835
1.88744
1.8859
1.884
1.88228
1.88016
2.57542
2.53869
2.50842
2.48152
2.45589
2.43205
2.40906
2.38739
2.36635
2.34644
2.32713
2.30869
2.29078
2.27341
2.25631
2.23935
2.22236
2.20534
2.18821
2.17119
2.1544
2.13797
2.12181
2.10598
2.09047
2.07531
2.06054
2.0464
2.0327
2.01996
2.00768
1.99658
1.98606
1.97679
1.96836
1.96108
1.95464
1.94885
1.94437
1.94098
1.93866
1.9371
1.93628
1.93595
1.93596
1.936
1.93607
1.93601
1.93574
1.93517
1.93411
1.93257
1.93078
1.92843
1.92586
1.92284
1.91963
1.91619
1.91241
1.90856
1.90425
1.9
1.89538
1.89083
1.88611
1.88139
1.8767
1.87204
1.8676
1.86327
1.85942
1.85569
1.85278
1.85017
1.84847
1.8472
1.84689
1.84705
1.84777
1.84996
1.85358
1.85824
1.86357
1.86891
1.87452
1.87905
1.88378
1.88659
1.88949
1.89052
1.89139
1.89119
1.89093
1.89031
1.8894
1.8878
1.88593
1.88384
1.88196
1.87982
2.60793
2.57555
2.5468
2.51941
2.49291
2.46726
2.44311
2.41995
2.39786
2.3765
2.35573
2.33554
2.31579
2.29667
2.27782
2.25952
2.24124
2.22359
2.20586
2.18874
2.17176
2.15532
2.13895
2.12289
2.10706
2.09148
2.07639
2.06172
2.04763
2.03415
2.02128
2.00926
1.9979
1.98763
1.97807
1.96964
1.9621
1.95537
1.94947
1.94468
1.94119
1.9385
1.937
1.93601
1.93577
1.93584
1.93601
1.9363
1.93631
1.93615
1.93568
1.93473
1.93333
1.9313
1.92903
1.92619
1.92317
1.91982
1.91613
1.91232
1.90801
1.90379
1.89912
1.89455
1.88976
1.885
1.88028
1.87564
1.87129
1.8671
1.86352
1.86013
1.85782
1.85565
1.85451
1.85381
1.85396
1.85499
1.85762
1.86166
1.866
1.87168
1.87644
1.88223
1.88623
1.89068
1.89327
1.89575
1.89666
1.89728
1.89695
1.89647
1.89584
1.89458
1.89302
1.8911
1.88897
1.88674
1.88474
1.88264
2.63596
2.60967
2.58383
2.55745
2.53122
2.5064
2.48202
2.45907
2.43604
2.41359
2.39125
2.36946
2.34826
2.32778
2.30804
2.28878
2.27017
2.25175
2.23394
2.21604
2.19862
2.18127
2.16438
2.14773
2.1314
2.1154
2.09979
2.08447
2.06975
2.05538
2.0419
2.02896
2.01691
2.00575
1.99517
1.98581
1.977
1.96955
1.9626
1.95699
1.95221
1.94887
1.94626
1.94477
1.94384
1.94358
1.94365
1.94382
1.94416
1.94417
1.94401
1.94351
1.94252
1.94087
1.93891
1.93618
1.93325
1.92976
1.92585
1.92184
1.91703
1.91268
1.90739
1.9028
1.89747
1.89279
1.88775
1.88338
1.879
1.87527
1.87201
1.86931
1.86755
1.86603
1.86539
1.8656
1.86717
1.86998
1.8744
1.8786
1.88426
1.88889
1.89436
1.89819
1.90228
1.90459
1.90678
1.90767
1.90793
1.90762
1.90724
1.90641
1.90543
1.90356
1.90174
1.89943
1.89711
1.89453
1.89243
1.89004
2.65813
2.63335
2.61037
2.58711
2.56403
2.54064
2.51825
2.4949
2.47302
2.45011
2.42875
2.40711
2.38656
2.36608
2.34625
2.32648
2.30721
2.28812
2.26945
2.25115
2.23281
2.21532
2.1973
2.18042
2.16271
2.14603
2.12908
2.11284
2.09717
2.08203