/*--------------------------------*- C++ -*----------------------------------*\
  =========                 |
  \\      /  F ield         | OpenFOAM: The Open Source CFD Toolbox
   \\    /   O peration     | Website:  https://openfoam.org
    \\  /    A nd           | Version:  9
     \\/     M anipulation  |
\*---------------------------------------------------------------------------*/
FoamFile
{
    format      ascii;
    class       volVectorField;
    location    "9.5";
    object      U;
}
// * * * * * * * * * * * * * * * * * * * * * * * * * * * * * * * * * * * * * //

dimensions      [0 1 -1 0 0 0 0];

internalField   nonuniform List<vector> 
5250
(
(2.99999 -1.19564e-08 0)
(2.99998 1.44735e-07 0)
(2.99995 -1.69903e-07 0)
(2.99988 1.47739e-06 0)
(2.9997 -8.93914e-07 0)
(2.99926 8.4976e-06 0)
(2.99818 -4.05929e-07 0)
(2.9955 4.3378e-05 0)
(2.98884 2.91394e-05 0)
(2.97199 0.000215378 0)
(2.92751 0.000332102 0)
(2.80342 0.00124857 0)
(2.43749 0.00301543 0)
(1.44575 0.00942126 0)
(0.631034 0.0217312 0)
(0.553686 0.0227483 0)
(0.572971 0.0237044 0)
(0.559964 0.0252825 0)
(0.504742 0.0270726 0)
(0.418288 0.029184 0)
(0.337555 0.031751 0)
(0.268952 0.0346878 0)
(0.198972 0.0377915 0)
(0.119473 0.0414437 0)
(0.0525272 0.0466706 0)
(2.99999 3.41872e-08 0)
(2.99998 1.88038e-07 0)
(2.99995 7.2028e-07 0)
(2.99988 1.81827e-06 0)
(2.99971 5.28475e-06 0)
(2.99927 1.24543e-05 0)
(2.99821 3.51439e-05 0)
(2.99553 7.75476e-05 0)
(2.98899 0.00021821 0)
(2.97223 0.000495394 0)
(2.92843 0.00134854 0)
(2.80548 0.00349501 0)
(2.44452 0.0097955 0)
(1.46057 0.028966 0)
(0.640354 0.0658818 0)
(0.5526 0.0657723 0)
(0.572255 0.065779 0)
(0.559744 0.0682064 0)
(0.504668 0.0711817 0)
(0.418454 0.0750597 0)
(0.337674 0.0795855 0)
(0.268443 0.0843557 0)
(0.197445 0.0887929 0)
(0.11661 0.0931573 0)
(0.0491691 0.0975328 0)
(2.99999 6.36126e-08 0)
(2.99998 3.08679e-07 0)
(2.99995 1.41374e-06 0)
(2.99988 2.94976e-06 0)
(2.99971 1.05349e-05 0)
(2.99929 2.09185e-05 0)
(2.99824 6.28577e-05 0)
(2.99565 0.000138656 0)
(2.98919 0.000365272 0)
(2.97294 0.000885209 0)
(2.93001 0.00227565 0)
(2.81048 0.00596582 0)
(2.4587 0.0167903 0)
(1.49373 0.0492553 0)
(0.662181 0.113549 0)
(0.551933 0.111304 0)
(0.573092 0.110211 0)
(0.562323 0.114724 0)
(0.508079 0.120363 0)
(0.422805 0.127909 0)
(0.34229 0.136264 0)
(0.272523 0.144936 0)
(0.200509 0.153217 0)
(0.118213 0.160835 0)
(0.0488301 0.166619 0)
(2.99999 6.53461e-08 0)
(2.99998 5.66567e-07 0)
(2.99996 1.42892e-06 0)
(2.99989 5.67583e-06 0)
(2.99972 1.09906e-05 0)
(2.99931 3.60532e-05 0)
(2.99831 7.37233e-05 0)
(2.99578 0.000211802 0)
(2.98961 0.000483217 0)
(2.97383 0.00126932 0)
(2.93261 0.00313149 0)
(2.81775 0.00845688 0)
(2.48042 0.0234534 0)
(1.54472 0.0688053 0)
(0.695485 0.161895 0)
(0.550235 0.156177 0)
(0.574953 0.153526 0)
(0.567686 0.160467 0)
(0.514978 0.169043 0)
(0.431345 0.180549 0)
(0.351375 0.193083 0)
(0.281298 0.20619 0)
(0.208204 0.219067 0)
(0.123667 0.230725 0)
(0.0507128 0.238421 0)
(3 1.0521e-07 0)
(2.99998 6.61086e-07 0)
(2.99996 2.28612e-06 0)
(2.99989 6.53647e-06 0)
(2.99974 1.675e-05 0)
(2.99934 4.31559e-05 0)
(2.99838 0.000104574 0)
(2.996 0.000265599 0)
(2.99007 0.000642065 0)
(2.97512 0.00162826 0)
(2.93607 0.00405947 0)
(2.82719 0.010824 0)
(2.50974 0.0300602 0)
(1.61359 0.087738 0)
(0.740456 0.211964 0)
(0.546864 0.200715 0)
(0.577711 0.195845 0)
(0.575742 0.205259 0)
(0.525079 0.21677 0)
(0.443703 0.232264 0)
(0.364603 0.249242 0)
(0.294416 0.267288 0)
(0.220149 0.285507 0)
(0.132507 0.302228 0)
(0.0544482 0.312799 0)
(3 1.1541e-07 0)
(2.99999 8.09403e-07 0)
(2.99996 2.66005e-06 0)
(2.9999 7.87776e-06 0)
(2.99975 1.99783e-05 0)
(2.99938 5.25516e-05 0)
(2.99849 0.000124799 0)
(2.99623 0.000330277 0)
(2.99074 0.000759987 0)
(2.97668 0.002027 0)
(2.94029 0.00488711 0)
(2.83943 0.0132032 0)
(2.54493 0.0364484 0)
(1.70336 0.106028 0)
(0.797539 0.264305 0)
(0.541993 0.245714 0)
(0.582207 0.237724 0)
(0.587355 0.249515 0)
(0.53907 0.263944 0)
(0.460553 0.283636 0)
(0.382752 0.305645 0)
(0.312804 0.329645 0)
(0.237437 0.354709 0)
(0.145862 0.378663 0)
(0.060665 0.394478 0)
(3 1.44272e-07 0)
(2.99999 9.03897e-07 0)
(2.99996 3.14757e-06 0)
(2.99991 8.90532e-06 0)
(2.99977 2.3551e-05 0)
(2.99943 5.93133e-05 0)
(2.99861 0.000149827 0)
(2.99652 0.000367731 0)
(2.99149 0.000925747 0)
(2.97857 0.00228837 0)
(2.94537 0.0058252 0)
(2.85361 0.0152679 0)
(2.58737 0.0424887 0)
(1.81352 0.123051 0)
(0.868929 0.317821 0)
(0.537748 0.291234 0)
(0.58994 0.279553 0)
(0.603783 0.293387 0)
(0.558063 0.310535 0)
(0.483053 0.334575 0)
(0.407156 0.362297 0)
(0.338058 0.393556 0)
(0.262109 0.427616 0)
(0.166184 0.462403 0)
(0.0710845 0.488406 0)
(3 1.84848e-07 0)
(2.99999 9.31198e-07 0)
(2.99997 3.84292e-06 0)
(2.99992 9.2146e-06 0)
(2.99979 2.84342e-05 0)
(2.99949 6.17984e-05 0)
(2.99875 0.000179457 0)
(2.99687 0.000384161 0)
(2.99234 0.00109923 0)
(2.98076 0.00243677 0)
(2.95111 0.00669787 0)
(2.87001 0.0167382 0)
(2.63545 0.0473191 0)
(1.94591 0.136162 0)
(0.957498 0.366169 0)
(0.539948 0.336095 0)
(0.604672 0.321668 0)
(0.627455 0.336497 0)
(0.583973 0.356003 0)
(0.512986 0.384673 0)
(0.439688 0.418945 0)
(0.37242 0.459005 0)
(0.297347 0.504737 0)
(0.19812 0.555805 0)
(0.0894314 0.602646 0)
(3 1.74327e-07 0)
(2.99999 1.02275e-06 0)
(2.99997 3.67004e-06 0)
(2.99993 1.01115e-05 0)
(2.99982 2.76378e-05 0)
(2.99956 6.66501e-05 0)
(2.99888 0.000180608 0)
(2.99729 0.000408443 0)
(2.9932 0.00113334 0)
(2.98324 0.00257877 0)
(2.95729 0.00698644 0)
(2.88754 0.0176163 0)
(2.68777 0.0494083 0)
(2.09483 0.142989 0)
(1.06684 0.403245 0)
(0.560218 0.384175 0)
(0.63125 0.370387 0)
(0.660925 0.381313 0)
(0.619542 0.401991 0)
(0.552946 0.43411 0)
(0.482913 0.475599 0)
(0.418761 0.524944 0)
(0.347769 0.584805 0)
(0.250822 0.661492 0)
(0.124025 0.751531 0)
(3 1.33691e-07 0)
(2.99999 1.03577e-06 0)
(2.99997 3.11389e-06 0)
(2.99994 1.01793e-05 0)
(2.99984 2.35385e-05 0)
(2.99961 6.77145e-05 0)
(2.99904 0.000150521 0)
(2.99767 0.000421287 0)
(2.99415 0.000938346 0)
(2.98564 0.0025775 0)
(2.96368 0.00602539 0)
(2.90539 0.0163366 0)
(2.74126 0.0436317 0)
(2.25841 0.126472 0)
(1.21475 0.371585 0)
(0.626308 0.415492 0)
(0.68051 0.422856 0)
(0.708594 0.426539 0)
(0.668986 0.449444 0)
(0.606316 0.483202 0)
(0.539715 0.531167 0)
(0.480037 0.5891 0)
(0.420923 0.6676 0)
(0.341544 0.786646 0)
(0.191215 0.993524 0)
(3 1.33205e-07 0)
(2.99999 8.29171e-07 0)
(2.99998 2.97323e-06 0)
(2.99994 8.11949e-06 0)
(2.99986 2.19558e-05 0)
(2.99966 5.48315e-05 0)
(2.99918 0.000135531 0)
(2.99795 0.000343907 0)
(2.99499 0.000814382 0)
(2.98748 0.00210565 0)
(2.96877 0.00505259 0)
(2.91891 0.0131405 0)
(2.77967 0.0347611 0)
(2.37195 0.0978702 0)
(1.35621 0.291548 0)
(0.683237 0.446919 0)
(0.709759 0.477863 0)
(0.740537 0.476739 0)
(0.716774 0.498402 0)
(0.664227 0.531818 0)
(0.606517 0.58225 0)
(0.558623 0.647795 0)
(0.528699 0.741817 0)
(0.527667 0.887632 0)
(0.563119 1.12955 0)
(3 1.24856e-07 0)
(2.99999 7.36862e-07 0)
(2.99998 2.67966e-06 0)
(2.99995 7.24008e-06 0)
(2.99988 1.99498e-05 0)
(2.99971 4.77789e-05 0)
(2.99928 0.000125868 0)
(2.99823 0.000290905 0)
(2.99562 0.000767358 0)
(2.98917 0.00177475 0)
(2.97285 0.00466104 0)
(2.93016 0.0113395 0)
(2.81092 0.0305557 0)
(2.4637 0.0843958 0)
(1.52634 0.249103 0)
(0.772349 0.497344 0)
(0.721896 0.525996 0)
(0.752731 0.525398 0)
(0.750935 0.543021 0)
(0.716022 0.576622 0)
(0.675411 0.626615 0)
(0.646402 0.696257 0)
(0.647079 0.794919 0)
(0.700031 0.93292 0)
(0.825942 1.11095 0)
(3 1.0745e-07 0)
(2.99999 7.27859e-07 0)
(2.99998 2.40132e-06 0)
(2.99996 7.16586e-06 0)
(2.9999 1.79574e-05 0)
(2.99975 4.75388e-05 0)
(2.99938 0.000113047 0)
(2.99848 0.000292981 0)
(2.99623 0.000690889 0)
(2.99072 0.00178134 0)
(2.97674 0.00426777 0)
(2.94043 0.0110467 0)
(2.8403 0.0286177 0)
(2.54892 0.0799161 0)
(1.72555 0.23219 0)
(0.894971 0.541986 0)
(0.731115 0.556716 0)
(0.762102 0.560273 0)
(0.778159 0.576244 0)
(0.762149 0.612392 0)
(0.740584 0.662864 0)
(0.733273 0.731369 0)
(0.756122 0.822269 0)
(0.828154 0.933539 0)
(0.967023 1.04258 0)
(3 1.05554e-07 0)
(2.99999 6.81873e-07 0)
(2.99999 2.34172e-06 0)
(2.99997 6.74188e-06 0)
(2.99991 1.74642e-05 0)
(2.99979 4.53845e-05 0)
(2.99948 0.000109473 0)
(2.99871 0.00028364 0)
(2.99686 0.000667393 0)
(2.99216 0.0017383 0)
(2.98057 0.00414363 0)
(2.95044 0.0107726 0)
(2.86824 0.0277477 0)
(2.632 0.0771261 0)
(1.94145 0.223126 0)
(1.04576 0.575878 0)
(0.750176 0.584245 0)
(0.77781 0.588271 0)
(0.806073 0.600808 0)
(0.807286 0.638277 0)
(0.801362 0.689422 0)
(0.810223 0.753096 0)
(0.84661 0.829128 0)
(0.922114 0.913568 0)
(1.05198 0.983982 0)
(3 9.7033e-08 0)
(3 6.49585e-07 0)
(2.99999 2.14832e-06 0)
(2.99997 6.41345e-06 0)
(2.99993 1.62228e-05 0)
(2.99983 4.25401e-05 0)
(2.99958 0.000103794 0)
(2.99895 0.000262795 0)
(2.99744 0.000643511 0)
(2.99362 0.00160964 0)
(2.98427 0.00400289 0)
(2.96011 0.0101269 0)
(2.89559 0.0262651 0)
(2.71203 0.0723055 0)
(2.1707 0.208995 0)
(1.2315 0.582186 0)
(0.802087 0.615944 0)
(0.811304 0.622067 0)
(0.842036 0.626722 0)
(0.855973 0.65923 0)
(0.859523 0.707319 0)
(0.877022 0.763998 0)
(0.919781 0.826296 0)
(0.993741 0.890086 0)
(1.11015 0.94012 0)
(3 9.07491e-08 0)
(3 5.3028e-07 0)
(2.99999 1.97111e-06 0)
(2.99998 5.20496e-06 0)
(2.99994 1.45951e-05 0)
(2.99986 3.48536e-05 0)
(2.99967 9.13873e-05 0)
(2.99916 0.0002171 0)
(2.99798 0.000555501 0)
(2.99495 0.00134027 0)
(2.98767 0.00337724 0)
(2.96898 0.0083705 0)
(2.92021 0.0215332 0)
(2.78487 0.057897 0)
(2.39147 0.165142 0)
(1.46614 0.488209 0)
(0.902931 0.630516 0)
(0.866716 0.654312 0)
(0.887194 0.661368 0)
(0.90885 0.682128 0)
(0.917241 0.721511 0)
(0.937278 0.769473 0)
(0.980826 0.820161 0)
(1.05068 0.868896 0)
(1.15321 0.905648 0)
(3 7.15128e-08 0)
(3 4.45446e-07 0)
(2.99999 1.54879e-06 0)
(2.99998 4.359e-06 0)
(2.99996 1.15187e-05 0)
(2.99989 2.86087e-05 0)
(2.99973 7.27259e-05 0)
(2.99933 0.00017373 0)
(2.99838 0.000444633 0)
(2.99597 0.0010426 0)
(2.99012 0.00269209 0)
(2.97524 0.00641005 0)
(2.93677 0.0165478 0)
(2.8308 0.0428363 0)
(2.52456 0.119001 0)
(1.69733 0.353743 0)
(1.0064 0.656048 0)
(0.905624 0.687805 0)
(0.921484 0.700496 0)
(0.949856 0.708465 0)
(0.967983 0.735969 0)
(0.990721 0.773984 0)
(1.03276 0.814178 0)
(1.09703 0.851083 0)
(1.18669 0.877559 0)
(3 6.02502e-08 0)
(3 3.74948e-07 0)
(2.99999 1.30654e-06 0)
(2.99999 3.68792e-06 0)
(2.99996 9.76296e-06 0)
(2.99991 2.43114e-05 0)
(2.99979 6.17388e-05 0)
(2.99947 0.00014851 0)
(2.99871 0.000377526 0)
(2.99683 0.000897554 0)
(2.99215 0.00229644 0)
(2.9805 0.00552975 0)
(2.95049 0.0141698 0)
(2.86879 0.036519 0)
(2.63537 0.100678 0)
(1.96196 0.293304 0)
(1.16514 0.689319 0)
(0.937811 0.720465 0)
(0.946117 0.731893 0)
(0.978342 0.732088 0)
(1.00871 0.748094 0)
(1.03624 0.777244 0)
(1.07671 0.808626 0)
(1.13511 0.835947 0)
(1.21344 0.854383 0)
(3 5.24676e-08 0)
(3 3.14284e-07 0)
(3 1.13431e-06 0)
(2.99999 3.10155e-06 0)
(2.99997 8.43424e-06 0)
(2.99993 2.06793e-05 0)
(2.99983 5.309e-05 0)
(2.9996 0.000127723 0)
(2.999 0.000323641 0)
(2.99757 0.000782142 0)
(2.99398 0.00196951 0)
(2.98513 0.00481595 0)
(2.96256 0.01223 0)
(2.9026 0.0313315 0)
(2.73344 0.0857696 0)
(2.23759 0.24683 0)
(1.38205 0.666524 0)
(1.00333 0.742404 0)
(0.983283 0.752493 0)
(1.00742 0.752385 0)
(1.04472 0.758891 0)
(1.07707 0.779433 0)
(1.11511 0.802946 0)
(1.16735 0.821866 0)
(1.23524 0.833691 0)
(3 3.90656e-08 0)
(3 2.66836e-07 0)
(3 8.66111e-07 0)
(2.99999 2.61573e-06 0)
(2.99998 6.47772e-06 0)
(2.99995 1.71709e-05 0)
(2.99988 4.10973e-05 0)
(2.9997 0.000104634 0)
(2.99925 0.000251833 0)
(2.9982 0.00062863 0)
(2.99551 0.00153891 0)
(2.98906 0.00379816 0)
(2.97258 0.00949828 0)
(2.93005 0.0240712 0)
(2.81343 0.0642553 0)
(2.4766 0.181703 0)
(1.6569 0.532491 0)
(1.11293 0.745529 0)
(1.03521 0.767993 0)
(1.04547 0.77494 0)
(1.08043 0.773945 0)
(1.11486 0.783662 0)
(1.14941 0.79797 0)
(1.19524 0.809313 0)
(1.25338 0.813599 0)
(3 3.03058e-08 0)
(3 2.026e-07 0)
(3 6.79436e-07 0)
(2.99999 1.98326e-06 0)
(2.99998 5.05368e-06 0)
(2.99996 1.31289e-05 0)
(2.99991 3.14963e-05 0)
(2.99977 8.07346e-05 0)
(2.99944 0.00018921 0)
(2.99864 0.000487065 0)
(2.99662 0.00113595 0)
(2.99176 0.00292442 0)
(2.97945 0.00696416 0)
(2.94802 0.0178403 0)
(2.86276 0.0457426 0)
(2.61949 0.125875 0)
(1.94092 0.371934 0)
(1.2494 0.75027 0)
(1.07526 0.789138 0)
(1.07551 0.799168 0)
(1.10644 0.793259 0)
(1.1444 0.790795 0)
(1.17843 0.79515 0)
(1.21843 0.799078 0)
(1.26665 0.794305 0)
(3 2.4845e-08 0)
(3 1.56043e-07 0)
(3 5.45344e-07 0)
(3 1.5347e-06 0)
(2.99999 4.05362e-06 0)
(2.99997 1.02243e-05 0)
(2.99993 2.5336e-05 0)
(2.99983 6.29365e-05 0)
(2.99959 0.000153148 0)
(2.99899 0.000381745 0)
(2.99754 0.000923514 0)
(2.99391 0.00231713 0)
(2.98499 0.00564757 0)
(2.96225 0.014257 0)
(2.90199 0.0364965 0)
(2.73258 0.0991529 0)
(2.23814 0.286633 0)
(1.45721 0.725024 0)
(1.13447 0.810195 0)
(1.10897 0.817314 0)
(1.12901 0.811414 0)
(1.1666 0.799973 0)
(1.2019 0.794718 0)
(1.23623 0.789229 0)
(1.27395 0.774208 0)
(3 1.94177e-08 0)
(3 1.18268e-07 0)
(3 4.20348e-07 0)
(3 1.162e-06 0)
(2.99999 3.11734e-06 0)
(2.99998 7.68994e-06 0)
(2.99995 1.9548e-05 0)
(2.99988 4.7028e-05 0)
(2.99971 0.000118477 0)
(2.99928 0.000283179 0)
(2.99824 0.000713748 0)
(2.9957 0.00171384 0)
(2.98939 0.00431394 0)
(2.97372 0.010573 0)
(2.93312 0.027062 0)
(2.82245 0.0716264 0)
(2.50458 0.202712 0)
(1.74409 0.579582 0)
(1.2426 0.806484 0)
(1.15497 0.825605 0)
(1.15872 0.825149 0)
(1.18808 0.808712 0)
(1.22092 0.792706 0)
(1.24806 0.77498 0)
(1.27495 0.749023 0)
(3 1.39343e-08 0)
(3 8.849e-08 0)
(3 3.07606e-07 0)
(3 8.64675e-07 0)
(2.99999 2.2839e-06 0)
(2.99999 5.70597e-06 0)
(2.99996 1.42338e-05 0)
(2.99991 3.49556e-05 0)
(2.99979 8.54688e-05 0)
(2.99948 0.000210334 0)
(2.99873 0.000509706 0)
(2.99691 0.00126131 0)
(2.99237 0.00305639 0)
(2.9812 0.00761795 0)
(2.95254 0.0188551 0)
(2.87561 0.0489527 0)
(2.65879 0.133076 0)
(2.04921 0.392468 0)
(1.38624 0.79596 0)
(1.19133 0.840493 0)
(1.18093 0.836294 0)
(1.20056 0.81624 0)
(1.22977 0.786919 0)
(1.25163 0.754968 0)
(1.27018 0.717771 0)
(3 1.05101e-08 0)
(3 6.41259e-08 0)
(3 2.30303e-07 0)
(3 6.27499e-07 0)
(3 1.7066e-06 0)
(2.99999 4.15735e-06 0)
(2.99998 1.05873e-05 0)
(2.99994 2.5595e-05 0)
(2.99985 6.32477e-05 0)
(2.99963 0.000155304 0)
(2.99911 0.000375279 0)
(2.99782 0.000938257 0)
(2.99468 0.00224451 0)
(2.98688 0.00568611 0)
(2.96736 0.0138079 0)
(2.91599 0.035777 0)
(2.77499 0.0951518 0)
(2.3641 0.274945 0)
(1.62242 0.705821 0)
(1.25829 0.837501 0)
(1.20774 0.838124 0)
(1.21209 0.814516 0)
(1.23086 0.775984 0)
(1.24798 0.731031 0)
(1.26104 0.683255 0)
(3 7.49213e-09 0)
(3 4.61224e-08 0)
(3 1.62758e-07 0)
(3 4.5253e-07 0)
(3 1.20448e-06 0)
(2.99999 2.98386e-06 0)
(2.99998 7.50075e-06 0)
(2.99996 1.81524e-05 0)
(2.9999 4.50414e-05 0)
(2.99974 0.000108808 0)
(2.99938 0.000268323 0)
(2.99847 0.000649434 0)
(2.99632 0.001603 0)
(2.99084 0.00390235 0)
(2.97753 0.00970753 0)
(2.94298 0.0242031 0)
(2.85004 0.0635558 0)
(2.58592 0.176169 0)
(1.90943 0.508396 0)
(1.36053 0.81566 0)
(1.22763 0.836164 0)
(1.21484 0.802043 0)
(1.22473 0.755422 0)
(1.23694 0.700948 0)
(1.24843 0.645739 0)
(3 5.20872e-09 0)
(3 3.30624e-08 0)
(3 1.13061e-07 0)
(3 3.24272e-07 0)
(3 8.37784e-07 0)
(2.99999 2.12561e-06 0)
(2.99999 5.26589e-06 0)
(2.99997 1.28227e-05 0)
(2.99993 3.19096e-05 0)
(2.99982 7.59861e-05 0)
(2.99956 0.000191697 0)
(2.99894 0.000450459 0)
(2.99739 0.0011469 0)
(2.99363 0.00269494 0)
(2.98424 0.00688835 0)
(2.96057 0.0166683 0)
(2.89788 0.0433993 0)
(2.72255 0.116496 0)
(2.22142 0.340099 0)
(1.52669 0.768716 0)
(1.24146 0.833211 0)
(1.20052 0.787527 0)
(1.20744 0.726118 0)
(1.2195 0.664117 0)
(1.23271 0.604342 0)
(3 3.7502e-09 0)
(3 2.23127e-08 0)
(3 8.11711e-08 0)
(3 2.17776e-07 0)
(3 5.97696e-07 0)
(3 1.43539e-06 0)
(2.99999 3.70257e-06 0)
(2.99998 8.75928e-06 0)
(2.99995 2.20612e-05 0)
(2.99988 5.26399e-05 0)
(2.9997 0.000130186 0)
(2.99927 0.000316083 0)
(2.99819 0.000766948 0)
(2.99562 0.00190015 0)
(2.98916 0.0045772 0)
(2.97331 0.0115009 0)
(2.93198 0.0287378 0)
(2.82047 0.0763657 0)
(2.50015 0.216535 0)
(1.77748 0.594265 0)
(1.28886 0.793617 0)
(1.17863 0.757605 0)
(1.17997 0.686539 0)
(1.19713 0.620396 0)
(1.21551 0.559765 0)
(3 2.33211e-09 0)
(3 1.57055e-08 0)
(3 5.18757e-08 0)
(3 1.52915e-07 0)
(3 3.84141e-07 0)
(3 9.96331e-07 0)
(2.99999 2.38404e-06 0)
(2.99999 6.01986e-06 0)
(2.99996 1.4275e-05 0)
(2.99991 3.56921e-05 0)
(2.99978 8.48727e-05 0)
(2.99947 0.000210061 0)
(2.99871 0.000505061 0)
(2.99681 0.00123988 0)
(2.99224 0.00301401 0)
(2.98067 0.00740679 0)
(2.95136 0.0184126 0)
(2.87254 0.0473635 0)
(2.64959 0.129192 0)
(2.03856 0.378166 0)
(1.35119 0.753698 0)
(1.12546 0.724846 0)
(1.12786 0.644566 0)
(1.16102 0.57387 0)
(1.19377 0.516153 0)
(3 1.52818e-09 0)
(3 1.0449e-08 0)
(3 3.3924e-08 0)
(3 1.02049e-07 0)
(3 2.51281e-07 0)
(3 6.62694e-07 0)
(3 1.55936e-06 0)
(2.99999 3.97116e-06 0)
(2.99997 9.35086e-06 0)
(2.99994 2.33033e-05 0)
(2.99984 5.56169e-05 0)
(2.99962 0.00013606 0)
(2.99905 0.000331341 0)
(2.99771 0.00079476 0)
(2.9943 0.00197612 0)
(2.98611 0.00472931 0)
(2.96511 0.0118804 0)
(2.91033 0.0299489 0)
(2.75945 0.0805199 0)
(2.32811 0.233773 0)
(1.49766 0.60405 0)
(1.08108 0.655241 0)
(1.06638 0.594021 0)
(1.11688 0.532037 0)
(1.17342 0.483116 0)
(3 1.0377e-09 0)
(3 6.23899e-09 0)
(3 2.2418e-08 0)
(3 6.07153e-08 0)
(3 1.64276e-07 0)
(3 3.96487e-07 0)
(3 1.00325e-06 0)
(2.99999 2.38116e-06 0)
(2.99998 5.87577e-06 0)
(2.99995 1.40063e-05 0)
(2.99988 3.39134e-05 0)
(2.9997 8.21303e-05 0)
(2.99926 0.000194972 0)
(2.99818 0.000478855 0)
(2.99551 0.00112625 0)
(2.98891 0.00278752 0)
(2.97231 0.00665096 0)
(2.92883 0.0166649 0)
(2.80929 0.0428239 0)
(2.46699 0.117436 0)
(1.6229 0.341771 0)
(1.02405 0.541892 0)
(0.971942 0.521896 0)
(1.04691 0.486229 0)
(1.1331 0.457225 0)
(3 6.78867e-10 0)
(3 3.90678e-09 0)
(3 1.45778e-08 0)
(3 3.80262e-08 0)
(3 1.07152e-07 0)
(3 2.48996e-07 0)
(3 6.57369e-07 0)
(2.99999 1.49667e-06 0)
(2.99998 3.83912e-06 0)
(2.99996 8.85545e-06 0)
(2.9999 2.21539e-05 0)
(2.99975 5.23131e-05 0)
(2.99938 0.000126576 0)
(2.99849 0.000309258 0)
(2.99622 0.000726741 0)
(2.99071 0.00182165 0)
(2.97661 0.00429422 0)
(2.94012 0.0108462 0)
(2.83888 0.0275134 0)
(2.54607 0.0744157 0)
(1.74407 0.213312 0)
(0.980559 0.459832 0)
(0.846863 0.444924 0)
(0.950416 0.428391 0)
(1.06861 0.428087 0)
(3 4.33996e-10 0)
(3 2.71467e-09 0)
(3 9.55569e-09 0)
(3 2.66073e-08 0)
(3 7.01659e-08 0)
(3 1.75974e-07 0)
(3 4.32554e-07 0)
(2.99999 1.06404e-06 0)
(2.99999 2.55967e-06 0)
(2.99996 6.33431e-06 0)
(2.99991 1.50309e-05 0)
(2.99978 3.73966e-05 0)
(2.99947 8.80137e-05 0)
(2.99868 0.000221064 0)
(2.99677 0.000518803 0)
(2.99188 0.00131038 0)
(2.9798 0.00310846 0)
(2.94808 0.007881 0)
(2.86087 0.0201037 0)
(2.60763 0.0548837 0)
(1.87692 0.156967 0)
(0.974478 0.395663 0)
(0.712909 0.36478 0)
(0.850789 0.359177 0)
(0.999293 0.387276 0)
(3 2.82176e-10 0)
(3 1.93109e-09 0)
(3 6.27075e-09 0)
(3 1.89529e-08 0)
(3 4.65669e-08 0)
(3 1.24808e-07 0)
(3 2.92012e-07 0)
(2.99999 7.62305e-07 0)
(2.99999 1.76977e-06 0)
(2.99997 4.56904e-06 0)
(2.99992 1.06978e-05 0)
(2.99981 2.70504e-05 0)
(2.99953 6.52088e-05 0)
(2.99885 0.000160248 0)
(2.99713 0.000396113 0)
(2.99286 0.00096363 0)
(2.98207 0.00239512 0)
(2.95422 0.00598293 0)
(2.87758 0.0154868 0)
(2.65522 0.0424889 0)
(1.99592 0.122272 0)
(0.991438 0.336856 0)
(0.597987 0.297442 0)
(0.77187 0.301833 0)
(0.944246 0.342378 0)
(3 1.72755e-10 0)
(3 1.34652e-09 0)
(3 4.10761e-09 0)
(3 1.31827e-08 0)
(3 3.09086e-08 0)
(3 8.8023e-08 0)
(3 1.91118e-07 0)
(3 5.5275e-07 0)
(2.99999 1.1601e-06 0)
(2.99997 3.39191e-06 0)
(2.99993 7.08635e-06 0)
(2.99983 2.06306e-05 0)
(2.99958 4.38125e-05 0)
(2.99895 0.000125221 0)
(2.99744 0.000273481 0)
(2.99354 0.000757733 0)
(2.98399 0.00174973 0)
(2.95894 0.00469608 0)
(2.89121 0.0118859 0)
(2.69453 0.0334975 0)
(2.10527 0.0976964 0)
(1.03145 0.28654 0)
(0.52746 0.253941 0)
(0.725409 0.266311 0)
(0.902561 0.299903 0)
(3 1.38925e-10 0)
(3 9.24232e-10 0)
(3 3.0392e-09 0)
(3 9.08579e-09 0)
(3 2.24501e-08 0)
(3 5.99618e-08 0)
(3 1.42533e-07 0)
(3 3.65879e-07 0)
(2.99999 8.91247e-07 0)
(2.99997 2.19952e-06 0)
(2.99994 5.50196e-06 0)
(2.99984 1.33763e-05 0)
(2.99962 3.41144e-05 0)
(2.99904 8.09835e-05 0)
(2.99765 0.000212342 0)
(2.99409 0.000500431 0)
(2.98537 0.00132519 0)
(2.96264 0.00323959 0)
(2.90171 0.00866967 0)
(2.72627 0.0238 0)
(2.20167 0.0706797 0)
(1.08528 0.216461 0)
(0.495207 0.219345 0)
(0.696478 0.241332 0)
(0.867583 0.263572 0)
(3 1.22959e-10 0)
(3 6.38273e-10 0)
(3 2.44139e-09 0)
(3 6.22296e-09 0)
(3 1.82442e-08 0)
(3 3.98084e-08 0)
(3 1.19479e-07 0)
(3 2.35996e-07 0)
(2.99999 7.4745e-07 0)
(2.99998 1.38481e-06 0)
(2.99994 4.58184e-06 0)
(2.99985 8.37547e-06 0)
(2.99964 2.78566e-05 0)
(2.9991 5.11798e-05 0)
(2.99779 0.000167256 0)
(2.99447 0.000324831 0)
(2.98627 0.000997122 0)
(2.96506 0.00216089 0)
(2.90841 0.00615167 0)
(2.74617 0.0160312 0)
(2.26268 0.0473463 0)
(1.13481 0.144317 0)
(0.48339 0.198195 0)
(0.676425 0.227839 0)
(0.836569 0.235985 0)
(3 8.64638e-11 0)
(3 5.65883e-10 0)
(3 1.84157e-09 0)
(3 5.49249e-09 0)
(3 1.39293e-08 0)
(3 3.47929e-08 0)
(3 9.07172e-08 0)
(3 2.02904e-07 0)
(2.99999 5.69286e-07 0)
(2.99998 1.16277e-06 0)
(2.99994 3.53111e-06 0)
(2.99986 6.703e-06 0)
(2.99965 2.16957e-05 0)
(2.99915 4.00318e-05 0)
(2.99788 0.000131724 0)
(2.99478 0.000247413 0)
(2.98689 0.000785211 0)
(2.96695 0.00162875 0)
(2.91321 0.0047268 0)
(2.7606 0.0120988 0)
(2.30564 0.0353238 0)
(1.19316 0.106316 0)
(0.5031 0.185202 0)
(0.665262 0.216881 0)
(0.809329 0.207198 0)
(3 5.04898e-11 0)
(3 5.43713e-10 0)
(3 1.36068e-09 0)
(3 5.34686e-09 0)
(3 1.01169e-08 0)
(3 3.55576e-08 0)
(3 6.17396e-08 0)
(3 2.17728e-07 0)
(2.99999 3.68581e-07 0)
(2.99998 1.29177e-06 0)
(2.99995 2.23535e-06 0)
(2.99987 7.4597e-06 0)
(2.99967 1.38363e-05 0)
(2.99919 4.2225e-05 0)
(2.99796 8.82755e-05 0)
(2.99502 0.000241028 0)
(2.98742 0.000556553 0)
(2.96835 0.00144943 0)
(2.91713 0.00355612 0)
(2.7716 0.00979518 0)
(2.33996 0.0277108 0)
(1.24888 0.0846558 0)
(0.537783 0.166356 0)
(0.657971 0.199665 0)
(0.784014 0.18052 0)
(3 8.51167e-11 0)
(3 2.92759e-10 0)
(3 1.68381e-09 0)
(3 2.93326e-09 0)
(3 1.20842e-08 0)
(3 2.04492e-08 0)
(3 7.30189e-08 0)
(3 1.31317e-07 0)
(2.99999 4.18197e-07 0)
(2.99998 8.46963e-07 0)
(2.99995 2.32778e-06 0)
(2.99987 5.47618e-06 0)
(2.99968 1.27061e-05 0)
(2.99922 3.53199e-05 0)
(2.99805 6.91215e-05 0)
(2.99517 0.000219031 0)
(2.9879 0.000411444 0)
(2.96943 0.00127507 0)
(2.92023 0.00283364 0)
(2.78047 0.00801568 0)
(2.36743 0.0225326 0)
(1.29885 0.0696527 0)
(0.575973 0.147832 0)
(0.65461 0.175724 0)
(0.765507 0.159765 0)
(3 5.77999e-11 0)
(3 2.97582e-10 0)
(3 1.26128e-09 0)
(3 2.94186e-09 0)
(3 9.14434e-09 0)
(3 2.0356e-08 0)
(3 5.43147e-08 0)
(3 1.28462e-07 0)
(2.99999 3.12896e-07 0)
(2.99998 7.99658e-07 0)
(2.99995 1.7944e-06 0)
(2.99988 4.94575e-06 0)
(2.99969 1.02218e-05 0)
(2.99924 3.09119e-05 0)
(2.99812 5.79645e-05 0)
(2.9953 0.000187737 0)
(2.9883 0.000351614 0)
(2.97038 0.00107904 0)
(2.92265 0.00242963 0)
(2.78813 0.00679237 0)
(2.39001 0.0191343 0)
(1.34512 0.0589088 0)
(0.611761 0.131238 0)
(0.652876 0.146929 0)
(0.753878 0.14138 0)
(3 3.78189e-11 0)
(3 3.27109e-10 0)
(3 8.43649e-10 0)
(3 3.23251e-09 0)
(3 6.46855e-09 0)
(3 2.02822e-08 0)
(3 4.25312e-08 0)
(3 1.13641e-07 0)
(2.99999 2.69314e-07 0)
(2.99998 6.36063e-07 0)
(2.99995 1.69674e-06 0)
(2.99988 3.55639e-06 0)
(2.9997 1.05875e-05 0)
(2.99926 2.05386e-05 0)
(2.99818 6.62583e-05 0)
(2.99542 0.000120494 0)
(2.98864 0.0003981 0)
(2.97116 0.000775665 0)
(2.92495 0.00233942 0)
(2.79435 0.00574931 0)
(2.41021 0.0167464 0)
(1.38827 0.050043 0)
(0.640567 0.114485 0)
(0.650132 0.120912 0)
(0.747836 0.12317 0)
(3 5.63506e-11 0)
(3 1.78818e-10 0)
(3 1.01408e-09 0)
(3 1.77301e-09 0)
(3 7.46127e-09 0)
(3 1.07739e-08 0)
(3 4.83799e-08 0)
(3 5.74577e-08 0)
(2.99999 2.94888e-07 0)
(2.99998 3.32691e-07 0)
(2.99995 1.74521e-06 0)
(2.99988 2.05355e-06 0)
(2.99971 1.00656e-05 0)
(2.99929 1.38138e-05 0)
(2.9982 5.84209e-05 0)
(2.99558 9.5066e-05 0)
(2.98884 0.000337597 0)
(2.972 0.000664356 0)
(2.92681 0.00203113 0)
(2.79999 0.00503371 0)
(2.42719 0.014641 0)
(1.42616 0.0420192 0)
(0.664157 0.0971354 0)
(0.646569 0.100776 0)
(0.742982 0.10483 0)
(3 3.40464e-11 0)
(3 1.47894e-10 0)
(3 7.6879e-10 0)
(3 1.42019e-09 0)
(3 5.45132e-09 0)
(3 1.02451e-08 0)
(3 3.11984e-08 0)
(3 6.82814e-08 0)
(2.99999 1.66017e-07 0)
(2.99998 4.3929e-07 0)
(2.99995 8.85876e-07 0)
(2.99989 2.81785e-06 0)
(2.99971 4.8279e-06 0)
(2.9993 1.78229e-05 0)
(2.99825 2.74827e-05 0)
(2.99565 0.000113811 0)
(2.98911 0.000186175 0)
(2.97259 0.000697839 0)
(2.92854 0.00146557 0)
(2.80505 0.00452372 0)
(2.44134 0.0123861 0)
(1.45776 0.0349026 0)
(0.683827 0.080893 0)
(0.643186 0.082977 0)
(0.738721 0.0873961 0)
(3 2.11052e-11 0)
(3 1.7653e-10 0)
(3 4.60861e-10 0)
(3 1.62747e-09 0)
(3 3.42313e-09 0)
(3 9.65192e-09 0)
(3 2.13832e-08 0)
(3 5.65205e-08 0)
(2.99999 1.29823e-07 0)
(2.99998 3.12991e-07 0)
(2.99995 7.94094e-07 0)
(2.99989 1.81873e-06 0)
(2.99972 5.06006e-06 0)
(2.9993 1.04812e-05 0)
(2.99828 3.14953e-05 0)
(2.99571 6.51512e-05 0)
(2.98933 0.000201581 0)
(2.97307 0.000449334 0)
(2.93 0.00129569 0)
(2.80929 0.00347773 0)
(2.45319 0.010162 0)
(1.48428 0.0283261 0)
(0.70089 0.0660777 0)
(0.640325 0.066647 0)
(0.734756 0.0708085 0)
(3 -5.16512e-12 0)
(3 1.93672e-10 0)
(3 6.27453e-11 0)
(3 1.851e-09 0)
(3 5.83261e-10 0)
(3 1.1178e-08 0)
(3 2.06101e-09 0)
(3 6.47756e-08 0)
(2.99999 1.86142e-08 0)
(2.99998 3.62467e-07 0)
(2.99995 2.01429e-07 0)
(2.99989 1.94602e-06 0)
(2.99972 2.0596e-06 0)
(2.99932 1.0481e-05 0)
(2.99829 1.873e-05 0)
(2.99579 5.51843e-05 0)
(2.98944 0.00014148 0)
(2.9735 0.000339361 0)
(2.9311 0.000937652 0)
(2.81256 0.00263748 0)
(2.46307 0.00756818 0)
(1.50633 0.022367 0)
(0.715703 0.0525249 0)
(0.63817 0.051807 0)
(0.731204 0.0552996 0)
(3 -7.3757e-12 0)
(3 1.18993e-10 0)
(3 6.52037e-11 0)
(3 1.18927e-09 0)
(3 4.99089e-10 0)
(3 8.5812e-09 0)
(3 7.35113e-10 0)
(3 5.54561e-08 0)
(2.99999 -9.87524e-09 0)
(2.99998 3.42192e-07 0)
(2.99996 -5.68714e-08 0)
(2.99989 1.95579e-06 0)
(2.99973 -3.41361e-08 0)
(2.99932 1.08787e-05 0)
(2.99832 4.04609e-06 0)
(2.99581 6.12685e-05 0)
(2.98957 5.43388e-05 0)
(2.97372 0.000332409 0)
(2.93201 0.000545534 0)
(2.81472 0.00204689 0)
(2.47084 0.00532151 0)
(1.52503 0.0169796 0)
(0.728235 0.0399311 0)
(0.636774 0.0383562 0)
(0.72812 0.0409806 0)
(3 7.87513e-12 0)
(3 4.90895e-11 0)
(3 1.62304e-10 0)
(3 4.61515e-10 0)
(3 1.13759e-09 0)
(3 2.81785e-09 0)
(3 7.20381e-09 0)
(3 1.78013e-08 0)
(2.99999 4.41942e-08 0)
(2.99998 1.04646e-07 0)
(2.99996 2.70667e-07 0)
(2.99989 6.83097e-07 0)
(2.99973 1.66855e-06 0)
(2.99932 4.08978e-06 0)
(2.99833 1.06043e-05 0)
(2.99583 2.53173e-05 0)
(2.98967 7.06172e-05 0)
(2.9739 0.000174446 0)
(2.9326 0.000475606 0)
(2.81647 0.00131215 0)
(2.47633 0.00384998 0)
(1.5393 0.0118914 0)
(0.737823 0.0280524 0)
(0.635726 0.0261963 0)
(0.725378 0.0279919 0)
(3 1.59031e-11 0)
(3 -1.61305e-11 0)
(3 2.78724e-10 0)
(3 -1.74424e-10 0)
(3 1.7828e-09 0)
(3 -5.27597e-10 0)
(3 9.65959e-09 0)
(3 1.45455e-10 0)
(2.99999 5.18747e-08 0)
(2.99998 3.1756e-08 0)
(2.99996 2.09881e-07 0)
(2.99989 4.36167e-07 0)
(2.99973 7.77408e-07 0)
(2.99933 3.6856e-06 0)
(2.99834 2.36181e-06 0)
(2.99586 2.63807e-05 0)
(2.9897 1.26656e-05 0)
(2.97405 0.000154737 0)
(2.93296 0.00019979 0)
(2.8176 0.000844923 0)
(2.48005 0.00220102 0)
(1.54882 0.00710165 0)
(0.744378 0.0166577 0)
(0.634994 0.0151356 0)
(0.723285 0.0161445 0)
(3 1.48941e-11 0)
(3 -3.74932e-11 0)
(3 2.74424e-10 0)
(3 -3.71327e-10 0)
(3 1.79305e-09 0)
(3 -1.38939e-09 0)
(3 9.43834e-09 0)
(3 -3.96531e-09 0)
(2.99999 4.01061e-08 0)
(2.99998 1.37693e-08 0)
(2.99996 1.06859e-07 0)
(2.99989 3.13651e-07 0)
(2.99973 3.65633e-08 0)
(2.99932 2.63803e-06 0)
(2.99835 -2.77426e-06 0)
(2.99584 2.25618e-05 0)
(2.98977 -2.51307e-05 0)
(2.97406 0.000113658 0)
(2.93316 -2.12938e-05 0)
(2.81829 0.000373717 0)
(2.48159 0.000644912 0)
(1.55409 0.00239947 0)
(0.747711 0.0055547 0)
(0.634629 0.00497361 0)
(0.722038 0.00534536 0)
(1.11337 0.996802 0)
(0.986347 0.706321 0)
(0.0638669 0.418695 0)
(-0.423736 0.01722 0)
(-0.553331 -0.0109951 0)
(-0.688597 -0.0239873 0)
(-0.735758 -0.0124409 0)
(-0.772538 0.00971134 0)
(-0.820572 0.017655 0)
(-0.867804 0.0155984 0)
(-0.901545 0.00815754 0)
(-0.917146 0.00200918 0)
(-0.918564 -0.00228913 0)
(-0.912238 -0.00489605 0)
(-0.899996 -0.00552122 0)
(-0.879397 -0.00591034 0)
(-0.850145 -0.00715803 0)
(-0.814168 -0.0085066 0)
(-0.774571 -0.00930221 0)
(-0.732671 -0.00980962 0)
(-0.689272 -0.0102548 0)
(-0.644723 -0.0106687 0)
(-0.599104 -0.0111582 0)
(-0.55261 -0.0116897 0)
(-0.505333 -0.0122606 0)
(-0.457375 -0.0130085 0)
(-0.408169 -0.0144699 0)
(-0.358059 -0.0159462 0)
(-0.308248 -0.0170858 0)
(-0.258941 -0.0180198 0)
(-0.210404 -0.0191232 0)
(-0.162587 -0.0202212 0)
(-0.115125 -0.0211972 0)
(-0.0681224 -0.0222023 0)
(-0.0236719 -0.0245168 0)
(0.0272545 -0.0247236 0)
(0.0742211 -0.0231977 0)
(0.117931 -0.0218879 0)
(0.160884 -0.0212297 0)
(0.202142 -0.0205806 0)
(0.242149 -0.019782 0)
(0.280013 -0.0189667 0)
(0.316094 -0.0183519 0)
(0.353287 -0.0183003 0)
(0.391438 -0.018503 0)
(0.428347 -0.0179469 0)
(0.46386 -0.0171454 0)
(0.498382 -0.0164951 0)
(0.532088 -0.0159056 0)
(0.565078 -0.0154063 0)
(0.597326 -0.014874 0)
(0.628932 -0.0143742 0)
(0.659871 -0.0138686 0)
(0.690201 -0.0133779 0)
(0.719923 -0.0128933 0)
(0.749054 -0.0124203 0)
(0.777619 -0.0119504 0)
(0.805626 -0.0115017 0)
(0.833082 -0.0110513 0)
(0.860016 -0.0106231 0)
(0.88643 -0.0101944 0)
(0.912349 -0.00978575 0)
(0.937769 -0.00937798 0)
(0.962718 -0.0089847 0)
(0.987191 -0.00859665 0)
(1.01121 -0.00821736 0)
(1.03476 -0.00784456 0)
(1.05787 -0.00747783 0)
(1.08052 -0.00711586 0)
(1.10273 -0.00675952 0)
(1.12449 -0.00640703 0)
(1.1458 -0.00606065 0)
(1.16667 -0.00571878 0)
(1.1871 -0.00538456 0)
(1.2071 -0.00505695 0)
(1.22669 -0.00473911 0)
(1.24586 -0.00442912 0)
(1.26463 -0.00413027 0)
(1.28302 -0.00384082 0)
(1.30102 -0.00356161 0)
(1.31864 -0.0032917 0)
(1.33589 -0.00303103 0)
(1.35276 -0.00277987 0)
(1.36925 -0.00253993 0)
(1.38534 -0.00231501 0)
(1.40104 -0.00210019 0)