/*--------------------------------*- C++ -*----------------------------------*\
  =========                 |
  \\      /  F ield         | OpenFOAM: The Open Source CFD Toolbox
   \\    /   O peration     | Website:  https://openfoam.org
    \\  /    A nd           | Version:  9
     \\/     M anipulation  |
\*---------------------------------------------------------------------------*/
FoamFile
{
    format      ascii;
    class       surfaceScalarField;
    location    "0.95";
    object      alphaPhi0.phase1;
}
// * * * * * * * * * * * * * * * * * * * * * * * * * * * * * * * * * * * * * //

dimensions      [0 3 -1 0 0 0 0];

internalField   nonuniform List<scalar> 
8032
(
-3.96024e-87
3.6233e-90
-1.11842e-86
1.91669e-87
-3.30181e-83
4.53869e-84
-7.07547e-80
7.01439e-81
-1.11251e-76
7.96127e-78
-1.41095e-73
6.95554e-75
-1.54055e-70
4.54913e-72
-1.68587e-67
1.59631e-69
-1.92791e-64
-7.66889e-66
-1.68512e-61
-1.85694e-62
-9.44171e-59
-1.3817e-59
-2.35205e-56
-4.01712e-57
-1.23667e-54
-8.81894e-55
-1.46436e-53
-1.50915e-52
-6.5365e-53
-3.17244e-51
3.41246e-56
-2.15292e-50
6.53564e-53
-2.15017e-50
1.45697e-53
-3.14014e-51
1.20317e-54
-1.41489e-52
4.36311e-56
-1.07887e-54
1.41335e-57
-9.08345e-56
1.13935e-59
-2.87712e-57
6.32599e-63
-3.80763e-60
1.18699e-66
-5.92714e-64
5.24295e-72
1.18999e-70
5.35702e-75
1.70557e-73
4.17567e-78
2.60964e-76
2.65494e-81
2.98703e-79
1.23913e-84
2.63197e-82
4.2108e-88
1.70317e-85
1.48635e-88
7.19302e-89
1.35361e-91
-2.56517e-86
2.16987e-86
-1.29081e-82
1.01237e-82
-4.27302e-79
2.30147e-79
-8.79852e-76
3.41787e-76
-1.32912e-72
3.72723e-73
-1.61909e-69
3.12834e-70
-1.69767e-66
1.96572e-67
-1.80001e-63
6.6436e-65
-2.00335e-60
-9.25642e-62
-1.65222e-57
-2.08572e-58
-8.30638e-55
-1.40202e-55
-1.79082e-52
-3.59041e-53
-7.94818e-51
-2.85006e-51
-7.83628e-50
-5.99601e-50
-1.85769e-49
-3.88831e-49
9.36135e-53
-9.29012e-49
1.85927e-49
-9.28936e-49
7.83047e-50
-3.88752e-49
7.74698e-51
-5.94707e-50
3.30052e-52
-2.65145e-51
9.41619e-54
-4.9658e-52
9.88167e-56
-2.18278e-53
6.86445e-59
-3.82582e-56
1.33274e-62
-6.74324e-60
5.56927e-68
4.35764e-66
6.71258e-71
7.18561e-69
4.87233e-74
1.14589e-71
3.2207e-77
1.36448e-74
1.56463e-80
1.25133e-77
4.72712e-84
8.42684e-81
9.43026e-88
3.70719e-84
7.94662e-88
-3.17508e-82
3.07901e-82
-1.3825e-78
1.33631e-78
-3.64448e-75
2.82691e-75
-6.98734e-72
3.90926e-72
-9.82582e-69
3.96901e-69
-1.11385e-65
3.10091e-66
-1.08652e-62
1.81387e-63
-1.07973e-59
5.72413e-61
-1.13122e-56
-5.6718e-58
-8.53428e-54
-1.16556e-54
-3.73068e-51
-6.98173e-52
-6.71878e-49
-1.70573e-49
-2.51863e-47
-1.2708e-47
-2.1924e-46
-2.3631e-46
-4.82068e-46
-1.4152e-45
2.2922e-49
-3.25367e-45
4.82454e-46
-3.25342e-45
2.19082e-46
-1.41493e-45
2.45782e-47
-2.3445e-46
1.19334e-48
-1.18717e-47
3.24857e-50
-1.42059e-48
4.36895e-52
-8.29507e-50
3.93509e-55
-1.94544e-52
8.22365e-59
-4.01718e-56
3.56044e-64
3.74953e-62
4.4258e-67
6.68665e-65
3.63064e-70
1.14506e-67
2.57924e-73
1.46512e-70
1.34557e-76
1.44318e-73
5.10715e-80
1.0437e-76
1.17296e-83
4.93412e-80
1.13698e-83
-3.47181e-78
3.38537e-78
-1.36792e-74
1.32931e-74
-2.63042e-71
2.54247e-71
-4.52158e-68
3.18328e-68
-5.7547e-65
2.9256e-65
-5.90121e-62
2.06855e-62
-5.20507e-59
1.09512e-59
-4.7024e-56
3.1398e-57
-4.49757e-53
-2.32595e-54
-3.02481e-50
-4.5477e-51
-1.12566e-47
-2.57804e-48
-1.67721e-45
-5.34998e-46
-5.29881e-44
-3.39909e-44
-4.07138e-43
-5.57892e-43
-8.30135e-43
-3.08434e-42
3.65103e-46
-6.82294e-42
8.30751e-43
-6.82245e-42
4.06851e-43
-3.0838e-42
5.17681e-44
-5.53671e-43
2.88689e-45
-3.1878e-44
7.6153e-47
-2.6028e-45
1.29029e-48
-2.07461e-46
1.54615e-51
-6.53361e-49
3.60239e-55
-1.62867e-52
1.75855e-60
2.11989e-58
2.40288e-63
4.19504e-61
2.20973e-66
7.9381e-64
1.73459e-69
1.12236e-66
1.00866e-72
1.22129e-69
5.24624e-76
9.75504e-73
1.33167e-79
5.10072e-76
1.29912e-79
-3.27809e-74
3.21111e-74
-1.14163e-70
1.11448e-70
-1.94005e-67
1.88416e-67
-2.54188e-64
2.08413e-64
-2.86033e-61
1.69399e-61
-2.59171e-58
1.05892e-58
-2.01868e-55
4.95692e-56
-1.61583e-52
1.26277e-53
-1.37579e-49
-7.77344e-51
-8.0737e-47
-1.36958e-47
-2.51491e-44
-6.64856e-45
-3.08004e-42
-1.1596e-42
-8.18809e-41
-6.26669e-41
-5.55251e-40
-9.07363e-40
-1.04999e-39
-4.63023e-39
4.20686e-43
-9.85459e-39
1.0507e-39
-9.85393e-39
5.5487e-40
-4.62947e-39
8.00872e-41
-9.00773e-40
5.15705e-42
-5.8993e-41
1.34076e-43
-3.30735e-42
2.80979e-45
-3.77727e-43
4.56332e-48
-1.59819e-45
1.21953e-51
-4.92827e-49
7.24036e-57
9.0477e-55
1.12321e-59
2.02754e-57
1.17313e-62
4.34027e-60
1.04144e-65
6.9408e-63
7.93947e-69
8.53978e-66
4.67326e-72
7.72075e-69
1.34216e-75
4.56712e-72
1.31599e-75
-2.73667e-70
2.68948e-70
-8.27156e-67
8.10193e-67
-1.21981e-63
1.18894e-63
-1.25505e-60
1.14096e-60
-1.22614e-57
8.05441e-58
-9.6378e-55
4.37114e-55
-6.5073e-52
1.77671e-52
-4.52144e-49
3.95416e-50
-3.36029e-46
-2.02914e-47
-1.69266e-43
-3.11005e-44
-4.35545e-41
-1.27795e-41
-4.36358e-39
-1.86032e-39
-9.74951e-38
-8.53637e-38
-5.83477e-37
-1.08995e-36
-1.02354e-36
-5.13313e-36
3.69761e-40
-1.05105e-35
1.02416e-36
-1.05099e-35
5.83088e-37
-5.13236e-36
9.5472e-38
-1.08238e-36
7.11908e-39
-8.06601e-38
1.8568e-40
-2.92561e-39
4.72369e-42
-5.25032e-40
1.05396e-44
-2.98257e-42
3.30136e-48
-1.16024e-45
2.54084e-53
3.08271e-51
4.57473e-56
7.94097e-54
5.49781e-59
1.95857e-56
5.62049e-62
3.60728e-59
5.45425e-65
5.1101e-62
3.69982e-68
5.32515e-65
1.2244e-71
3.62898e-68
1.20472e-71
-2.01017e-66
1.97995e-66
-5.20254e-63
5.10776e-63
-6.56916e-60
6.41934e-60
-5.43621e-57
5.27321e-57
-4.52242e-54
3.19006e-54
-3.04189e-51
1.48298e-51
-1.75586e-48
5.16436e-49
-1.04266e-45
9.92113e-47
-6.66792e-43
-4.16207e-44
-2.84719e-40
-5.50645e-41
-5.98756e-38
-1.89954e-38
-4.88969e-36
-2.29514e-36
-9.17305e-35
-8.93191e-35
-4.8453e-34
-1.00539e-33
-7.88694e-34
-4.36939e-33
2.55351e-37
-8.60701e-33
7.89118e-34
-8.60651e-33
4.84219e-34
-4.36879e-33
8.99392e-35
-9.98743e-34
7.10989e-36
-8.47268e-35
2.07195e-37
-2.78039e-36
6.27563e-39
-5.70798e-37
1.94396e-41
-4.35235e-39
7.2585e-45
-2.17114e-42
7.61413e-50
8.58429e-48
1.61734e-52
2.5686e-50
2.25829e-55
7.3992e-53
2.70332e-58
1.59066e-55
3.26943e-61
2.6293e-58
2.59028e-64
3.20089e-61
1.00112e-67
2.54699e-64
9.87347e-68
-1.28221e-62
1.2649e-62
-2.81479e-59
2.76803e-59
-3.01476e-56
2.9513e-56
-2.11572e-53
2.0566e-53
-1.42384e-50
1.05539e-50
-8.11613e-48
4.16319e-48
-3.96552e-45
1.23051e-45
-1.98964e-42
2.02447e-43
-1.08436e-39
-6.81491e-41
-3.88675e-37
-7.75574e-38
-6.61939e-35
-2.23156e-35
-4.39398e-33
-2.22763e-33
-6.91558e-32
-7.34682e-32
-3.22453e-31
-7.28845e-31
-4.8718e-31
-2.92271e-30
1.40967e-34
-5.53846e-30
4.87413e-31
-5.53817e-30
3.22256e-31
-2.92234e-30
6.78969e-32
-7.24284e-31
5.40214e-33
-6.99797e-32
1.88799e-34
-2.28629e-33
6.66947e-36
-4.91411e-34
2.89278e-38
-5.03256e-36
1.30533e-41
-3.26654e-39
1.94103e-46
1.9755e-44
4.92634e-49
6.91245e-47
8.03952e-52
2.34832e-49
1.18913e-54
5.94775e-52
1.69552e-57
1.15894e-54
1.58372e-60
1.66316e-57
7.21639e-64
1.55992e-60
7.12858e-64
-7.00021e-59
6.91331e-59
-1.2953e-55
1.27525e-55
-1.16944e-52
1.14628e-52
-6.91676e-50
6.7336e-50
-3.79449e-47
2.91308e-47
-1.821e-44
9.69008e-45
-7.47965e-42
2.41582e-42
-3.1453e-39
3.38811e-40
-1.45234e-36
-8.98683e-38
-4.33416e-34
-8.79912e-35
-5.92781e-32
-2.09999e-32
-3.19123e-30
-1.72478e-30
-4.21062e-29
-4.81842e-29
-1.7334e-28
-4.21149e-28
-2.43159e-28
-1.55779e-27
6.28511e-32
-2.83954e-27
2.43262e-28
-2.8394e-27
1.7324e-28
-1.55761e-27
4.14001e-29
-4.18677e-28
3.33282e-30
-4.60983e-29
1.41655e-31
-1.50635e-30
5.70567e-33
-3.36813e-31
3.48959e-35
-4.64041e-33
1.91942e-38
-3.96506e-36
4.1971e-43
3.78586e-41
1.28556e-45
1.55423e-43
2.45783e-48
6.26845e-46
4.45562e-51
1.88194e-48
7.53842e-54
4.34966e-51
8.35333e-57
7.40461e-54
4.51576e-60
8.23786e-57
4.46594e-60
-3.23156e-55
3.19403e-55
-5.021e-52
4.9474e-52
-3.80679e-49
3.73482e-49
-1.89043e-46
1.8424e-46
-8.49957e-44
6.69413e-44
-3.41999e-41
1.87067e-41
-1.17557e-38
3.91901e-39
-4.12047e-36
4.67528e-37
-1.60752e-33
-9.58946e-35
-3.96327e-31
-8.10672e-32
-4.31724e-29
-1.59625e-29
-1.88131e-27
-1.0744e-27
-2.07952e-26
-2.54139e-26
-7.55964e-26
-1.95545e-25
-9.84912e-26
-6.66255e-25
2.27664e-29
-1.16878e-24
9.85285e-26
-1.16873e-24
7.55563e-26
-6.66186e-25
2.04785e-26
-1.94477e-25
1.68312e-27
-2.44228e-26
8.81171e-29
-8.08819e-28
3.9456e-30
-1.83746e-28
3.42264e-32
-3.42429e-30
2.3027e-35
-3.88443e-33
7.6578e-40
6.05575e-38
2.85427e-42
2.91958e-40
6.39054e-45
1.40404e-42
1.41183e-47
5.01432e-45
2.84498e-50
1.37985e-47
3.75403e-53
2.79714e-50
2.41684e-56
3.7053e-53
2.39215e-56
-1.24939e-51
1.23565e-51
-1.62692e-48
1.60406e-48
-1.03392e-45
1.01505e-45
-4.30282e-43
4.1969e-43
-1.59188e-40
1.27832e-40
-5.35825e-38
2.99551e-38
-1.53705e-35
5.2635e-36
-4.47519e-33
5.34021e-34
-1.47475e-30
-8.29574e-32
-2.9788e-28
-6.09853e-29
-2.56194e-26
-9.84885e-27
-9.0213e-25
-5.41154e-25
-8.3467e-24
-1.08603e-23
-2.68192e-23
-7.40063e-23
-3.24723e-23
-2.36676e-22
6.72679e-27
-3.99694e-22
3.24833e-23
-3.99678e-22
2.68064e-23
-2.36654e-22
8.23317e-24
-7.36464e-23
8.17204e-25
-1.04826e-23
4.57326e-26
-4.21144e-25
2.21405e-27
-7.93425e-26
2.73819e-29
-2.02924e-27
2.26018e-32
-3.07975e-30
1.16992e-36
8.06719e-35
5.34957e-39
4.56742e-37
1.39915e-41
2.62643e-39
3.74998e-44
1.11746e-41
9.01683e-47
3.66789e-44
1.41943e-49
8.87084e-47
1.09035e-52
1.40182e-49
1.07986e-52
-4.01574e-48
3.97359e-48
-4.38087e-45
4.32133e-45
-2.33282e-42
2.29138e-42
-8.13314e-40
7.93773e-40
-2.48382e-37
2.02605e-37
-6.9882e-35
3.97999e-35
-1.67047e-32
5.86318e-33
-4.03328e-30
5.06559e-31
-1.12472e-27
-5.81389e-29
-1.84242e-25
-3.75949e-26
-1.23878e-23
-4.95363e-24
-3.51864e-22
-2.22706e-22
-2.7211e-21
-3.89826e-21
-7.81024e-21
-2.48015e-20
-8.78025e-21
-8.32216e-20
1.63455e-24
-1.28102e-19
8.78293e-21
-1.28098e-19
7.80712e-21
-8.32182e-20
2.68893e-21
-2.47684e-20
3.23238e-22
-3.78662e-21
1.98066e-23
-1.79638e-22
1.01252e-24
-2.68373e-23
1.79232e-26
-9.69761e-25
1.83967e-29
-1.99478e-27
1.4891e-33
8.9416e-32
8.43239e-36
5.94618e-34
2.56545e-38
4.09612e-36
8.30669e-41
2.07573e-38
2.38414e-43
8.12925e-41
4.47894e-46
2.34657e-43
4.10671e-49
4.42529e-46
4.06912e-49
-1.0669e-44
1.05615e-44
-9.75976e-42
9.63061e-42
-4.35886e-39
4.28299e-39
-1.27425e-36
1.24419e-36
-3.22113e-34
2.66358e-34
-7.57808e-32
4.3906e-32
-1.5089e-29
5.42722e-30
-3.02133e-27
4.00273e-28
-7.15118e-25
-3.28404e-26
-9.3848e-23
-1.91145e-23
-4.89928e-21
-2.07971e-21
-1.12309e-19
-7.4237e-20
-7.24896e-19
-9.85603e-19
-1.7801e-18
-4.73232e-18
-1.84795e-18
-1.13233e-17
3.10106e-22
-1.65627e-17
1.84846e-18
-1.65623e-17
1.77948e-18
-1.13224e-17
7.17634e-19
-4.71376e-18
1.04704e-19
-9.60298e-19
7.11676e-21
-6.22495e-20
3.78153e-22
-6.85357e-21
9.58127e-24
-3.72368e-22
1.26148e-26
-1.06187e-24
1.59472e-30
8.35302e-29
1.13004e-32
6.52126e-31
3.97453e-35
5.38832e-33
1.5478e-37
3.24665e-35
5.29804e-40
1.51561e-37
1.18671e-42
5.21699e-40
1.2976e-45
1.17302e-42
1.28636e-45
-2.33271e-41
2.31008e-41
-1.79304e-38
1.76981e-38
-6.73057e-36
6.6151e-36
-1.6532e-33
1.61471e-33
-3.468e-31
2.90504e-31
-6.83237e-29
4.02693e-29
-1.13373e-26
4.18459e-27
-1.88687e-24
2.64368e-25
-3.81497e-22
-1.51306e-23
-3.98148e-20
-8.0153e-21
-1.65416e-18
-6.23549e-19
-2.854e-17
-1.09309e-17
-1.47521e-16
-7.32625e-18
-3.15598e-16
-1.41365e-17
-3.08268e-16
-1.83799e-16
4.67889e-20
-5.61204e-16
3.08345e-16
-5.61182e-16
3.15525e-16
-1.83638e-16
1.46412e-16
-1.35593e-17
2.69567e-17
-6.38598e-18
2.11746e-18
-9.40919e-18
1.14727e-19
-1.20532e-18
4.11976e-21
-1.11484e-19
7.14757e-24
-4.50698e-22
1.48375e-27
6.80298e-26
1.3351e-29
6.20853e-28
5.35384e-32
6.16353e-30
2.4929e-34
4.40013e-32
1.01565e-36
2.44311e-34
2.70683e-39
1.00078e-36
3.5225e-42
2.67726e-39
3.4943e-42
-4.18689e-38
4.1477e-38
-2.71281e-35
2.67826e-35
-8.58645e-33
8.44057e-33
-1.77768e-30
1.73665e-30
-3.10249e-28
2.63354e-28
-5.13077e-26
3.08002e-26
-7.10435e-24
2.6986e-24
-9.96849e-22
1.46748e-22
-1.78896e-19
-5.82282e-21
-1.31745e-17
-2.03977e-18
-3.85782e-16
-4.08505e-18
-5.90214e-15
0
-2.63427e-14
0
-5.1038e-14
0
-4.63256e-14
-2.80491e-14
6.3989e-18
-7.87584e-14
4.63361e-14
-7.87554e-14
5.10159e-14
-2.80151e-14
2.61792e-14
0
5.66187e-15
0
5.37142e-16
0
2.87683e-17
-7.9814e-17
1.39346e-18
-2.47238e-17
3.16479e-21
-1.42853e-19
1.21882e-24
4.90042e-23
1.40899e-26
5.20223e-25
6.34899e-29
6.21634e-27
3.51086e-31
5.23136e-29
1.69712e-33
3.44346e-31
5.36423e-36
1.67332e-33
8.2814e-39
5.30886e-36
8.22066e-39
-6.04384e-35
5.9881e-35
-3.31547e-32
3.27308e-32
-8.88807e-30
8.73544e-30
-1.55781e-27
1.52149e-27
-2.26737e-25
1.95248e-25
-3.15922e-23
1.93531e-23
-3.66585e-21
1.43591e-21
-4.34047e-19
6.83765e-20
-6.25217e-17
-1.09512e-18
-3.53331e-15
0
-7.57882e-14
0
-1.00371e-12
0
-3.86186e-12
0
-6.75247e-12
0
-5.70399e-12
-3.90521e-12
7.20555e-16
-9.50411e-12
5.70517e-12
-9.50378e-12
6.74985e-12
-3.90167e-12
3.84545e-12
0
9.76232e-13
0
9.04536e-14
0
6.07004e-15
0
3.64824e-16
-3.57706e-15
9.85854e-19
-3.04965e-17
8.72565e-22
2.96737e-20
1.29871e-23
3.79024e-22
6.53451e-26
5.4574e-24
4.2601e-28
5.38021e-26
2.4325e-30
4.17987e-28
9.07777e-33
2.39917e-30
1.65526e-35
8.98747e-33
1.64396e-35
-6.25867e-32
6.19487e-32
-2.92374e-29
2.88232e-29
-6.678e-27
6.55121e-27
-9.96792e-25
9.71266e-25
-1.21544e-22
1.06036e-22
-1.43892e-20
8.97189e-21
-1.32932e-18
7.89889e-19
-1.13457e-16
1.06648e-16
-8.65362e-15
0
-6.10498e-13
0
-1.27802e-11
0
-1.44629e-10
0
-4.67802e-10
0
-7.31355e-10
0
-5.7232e-10
-4.44714e-10
6.63156e-14
-9.35726e-10
5.7243e-10
-9.35698e-10
7.31226e-10
-4.4448e-10
4.66846e-10
0
1.42575e-10
0
1.14847e-11
0
8.89841e-13
0
7.20215e-14
-3.42627e-13
2.262e-16
-4.1756e-15
5.21732e-19
5.98277e-17
8.61375e-21
3.37663e-19
5.56879e-23
3.97594e-21
4.26104e-25
4.58366e-23
2.85717e-27
4.17868e-25
1.25157e-29
2.81717e-27
2.67999e-32
1.23898e-29
2.66203e-32
-4.6415e-29
4.59187e-29
-1.85955e-26
1.8317e-26
-3.64439e-24
3.57134e-24
-4.67076e-22
4.53981e-22
-5.15706e-20
4.28862e-20
-4.4522e-18
3.65336e-18
-1.87167e-15
1.86205e-15
-3.14466e-13
3.12264e-13
-8.62686e-13
0
-1.35606e-10
0
-1.87249e-09
0
-1.6517e-08
0
-4.51016e-08
0
-6.25695e-08
0
-4.51404e-08
-4.07259e-08
4.80839e-12
-7.34606e-08
4.51486e-08
-7.34589e-08
6.25714e-08
-4.07186e-08
4.50901e-08
0
1.64846e-08
0
1.82882e-09
0
1.13236e-10
0
9.49183e-12
0
2.79162e-13
-1.11687e-13
1.64581e-15
2.70134e-13
3.10058e-18
1.64034e-15
3.64035e-20
2.68383e-18
3.24289e-22
3.01037e-20
2.52967e-24
3.16944e-22
1.29113e-26
2.49153e-24
3.22316e-29
1.27718e-26
3.20028e-29
-3.41591e-26
3.38543e-26
-1.18432e-23
1.16868e-23
-2.01015e-21
1.97353e-21
-2.23997e-19
2.18575e-19
-2.51246e-17
2.46254e-17
-1.24567e-14
1.24163e-14
-1.78701e-12
1.77507e-12
-7.23049e-11
7.07403e-11
-5.168e-10
9.71379e-11
-2.36679e-08
0
-2.0644e-07
0
-1.38489e-06
0
-3.18838e-06
0
-3.87605e-06
-4.12231e-08
-2.55377e-06
-2.87149e-06
2.50388e-10
-4.35356e-06
2.55422e-06
-4.35349e-06
3.87628e-06
-2.87122e-06
3.18837e-06
-3.96573e-08
1.38474e-06
0
2.06258e-07
0
2.34395e-08
0
4.61675e-10
0
7.09291e-11
9.69786e-11
1.73295e-12
6.9401e-11
1.21797e-14
1.72143e-12
2.37794e-17
1.2145e-14
2.07803e-19
2.33955e-17
1.86443e-21
2.03487e-19
1.09859e-23
1.83567e-21
3.16877e-26
1.08667e-23
3.14696e-26
-1.91832e-23
1.89937e-23
-5.82144e-21
5.73649e-21
-8.71735e-19
8.54388e-19
-1.25816e-16
1.2358e-16
-6.15004e-14
6.13201e-14
-4.96235e-12
4.90758e-12
-2.90647e-10
2.87107e-10
-9.34511e-09
9.10567e-09
-1.29583e-07
0
-2.57327e-06
0
-1.35436e-05
0
-0.000109592
-0.000510232
-0.000246652
-0.00204632
-0.000275273
-0.00333066
-0.000175823
-0.00411573
1.68457e-08
-0.00444351
0.000175852
-0.00444349
0.00027529
-0.00411567
0.000246654
-0.00333057
0.000109584
-0.00204619
1.35413e-05
-0.000510129
2.57239e-06
0
1.29241e-07
0
9.34363e-09
0
2.90416e-10
9.10182e-09
4.95685e-12
2.86857e-10
6.14276e-14
4.90233e-12
1.2546e-16
6.12527e-14
8.68441e-19
1.2334e-16
5.79964e-21
8.52068e-19
1.91119e-23
5.72021e-21
1.8938e-23
-5.30282e-21
5.20735e-21
-1.42545e-18
1.39973e-18
-2.80266e-16
2.74383e-16
-1.53115e-13
1.52436e-13
-1.28309e-11
1.27153e-11
-6.17104e-10
6.0771e-10
-3.13532e-08
3.09459e-08
-8.38869e-07
8.12983e-07
-7.77768e-07
-2.63892e-07
-0.000251988
-0.000500765
-0.00105439
-0.00327613
-0.00154714
-0.00601258
-0.00146056
-0.00662529
-0.00105276
-0.00700345
-0.000536223
-0.00723383
4.73483e-08
-0.00733412
0.000536319
-0.00733411
0.00105285
-0.00723381
0.00146063
-0.00700342
0.00154718
-0.00662524
0.00105436
-0.0060125
0.000251946
-0.00327591
7.77666e-07
-0.000500592
8.3873e-07
-2.63729e-07
3.13429e-08
8.12857e-07
6.16915e-10
3.09357e-08
1.28267e-11
6.07524e-10
1.53052e-13
1.27111e-11
2.80125e-16
1.52374e-13
1.42488e-18
2.74253e-16
5.30032e-21
1.39915e-18
5.20511e-21
-1.28024e-18
1.25994e-18
-3.27783e-16
3.23381e-16
-1.33925e-13
1.32959e-13
-1.67607e-11
1.6734e-11
-9.7309e-10
9.65876e-10
-3.98923e-08
3.93588e-08
-1.64869e-06
1.63217e-06
-2.92357e-05
2.80913e-05
-0.00114703
-0.000861753
-0.00294988
-0.00465045
-0.00292709
-0.00594511
-0.00221519
-0.00672448
-0.00161818
-0.00722229
-0.00107134
-0.00755029
-0.000533608
-0.00777156
4.27377e-08
-0.00786777
0.000533696
-0.00786777
0.00107143
-0.00777155
0.00161828
-0.00755027
0.0022153
-0.00722226
0.00292722
-0.00672442
0.00294988
-0.005945
0.00114685
-0.00465026
2.92361e-05
-0.000861462
1.64812e-06
2.80923e-05
3.98798e-08
1.6316e-06
9.72767e-10
3.93465e-08
1.67548e-11
9.65556e-10
1.33862e-13
1.67281e-11
3.27679e-16
1.32897e-13
1.27986e-18
3.23279e-16
1.25956e-18
-1.32758e-16
1.29644e-16
-3.31205e-14
3.29545e-14
-5.52626e-12
5.55016e-12
-4.32268e-10
4.35403e-10
-2.26883e-08
2.26806e-08
-8.04107e-07
7.93148e-07
-4.7623e-05
4.78485e-05
-0.00214023
-0.00019904
-0.00419403
-0.00373183
-0.00341561
-0.00542887
-0.00285805
-0.00650267
-0.00231258
-0.00726995
-0.00175163
-0.00778324
-0.00118111
-0.00812081
-0.000594052
-0.00835862
4.32537e-08
-0.00846186
0.000594141
-0.00846186
0.0011812
-0.00835861
0.00175172
-0.00812079
0.00231268
-0.00778322
0.00285815
-0.00726989
0.00341572
-0.00650257
0.00419417
-0.00542871
0.00213989
-0.00373157
4.76053e-05
-0.000198857
8.03892e-07
4.78306e-05
2.26813e-08
7.92918e-07
4.32129e-10
2.26735e-08
5.52442e-12
4.35262e-10
3.3108e-14
5.54831e-12
1.32712e-16
3.29422e-14
1.296e-16
-4.75568e-15
4.53269e-15
-1.03869e-12
1.05587e-12
-1.21529e-10
1.23831e-10
-8.69155e-09
8.7806e-09
-4.20777e-07
4.18461e-07
-1.34629e-05
1.325e-05
-0.00179944
0.000422346
-0.00455557
-0.00205218
-0.00398166
-0.00430574
-0.00371563
-0.0056949
-0.00327665
-0.00694165
-0.00267778
-0.00786882
-0.00202006
-0.00844096
-0.00135358
-0.00878729
-0.000678296
-0.0090339
4.43939e-08
-0.0091402
0.000678388
-0.00914021
0.00135367
-0.0090339
0.00202017
-0.00878728
0.0026779
-0.00844095
0.00327677
-0.00786876
0.00371573
-0.00694153
0.00398174
-0.00569472
0.0045557
-0.00430553
0.00179898
-0.00205183
1.34576e-05
0.000422321
4.20626e-07
1.32442e-05
8.68817e-09
4.18317e-07
1.2148e-10
8.77741e-09
1.03823e-12
1.23785e-10
4.75341e-15
1.05545e-12
4.53071e-15
-5.61934e-14
4.97848e-14
-8.14194e-12
9.07951e-12
-8.43092e-10
9.48555e-10
-5.54722e-08
6.2432e-08
-2.44644e-06
2.74867e-06
-0.000293344
0.000186755
-0.00481277
0.0005256
-0.00425462
-0.00261032
-0.00435064
-0.00420973
-0.00431712
-0.00572841
-0.0038247
-0.00743407
-0.00308512
-0.00860841
-0.00229128
-0.0092348
-0.00151599
-0.00956258
-0.000754427
-0.00979547
4.27004e-08
-0.00989467
0.000754515
-0.00989468
0.00151609
-0.00979547
0.00229139
-0.00956259
0.00308525
-0.00923481
0.00382484
-0.00860835
0.00431721
-0.0074339
0.00435065
-0.00572816
0.00425465
-0.00420953
0.00481288
-0.00261006
0.000293003
0.00052593
2.4454e-06
0.000186681
5.54429e-08
2.74789e-06
8.42573e-10
6.24147e-08
8.13626e-12
9.4832e-10
5.61547e-14
9.07755e-12
4.97719e-14
-4.99258e-13
4.90641e-13
-7.26954e-11
8.07468e-11
-7.59091e-09
8.38261e-09
-5.03117e-07
5.50108e-07
-2.24562e-05
2.41981e-05
-0.00261448
0.00136624
-0.00416555
-0.00013352
-0.00424557
-0.00253031
-0.00465809
-0.00379708
-0.00471546
-0.00567081
-0.00423507
-0.00791444
-0.00341045
-0.00943302
-0.00250381
-0.0101414
-0.00163639
-0.01043
-0.000808456
-0.0106234
3.68315e-08
-0.0107032
0.000808531
-0.0107032
0.00163647
-0.0106234
0.00250392
-0.01043
0.00341059
-0.0101415
0.0042352
-0.00943296
0.00471552
-0.00791421
0.00465806
-0.00567046
0.00424551
-0.00379687
0.00416557
-0.00253012
0.00261408
-0.000133114
2.24485e-05
0.00136603
5.02744e-07
2.41921e-05
7.58252e-09
5.49994e-07
7.25922e-11
8.38207e-09
4.98553e-13
8.07594e-11
4.90723e-13
-1.56731e-12
1.6409e-12
-9.29921e-11
1.7031e-10
-1.02067e-08
1.83384e-08
-7.3e-07
1.25861e-06
-4.27221e-05
6.62348e-05
-0.00398544
0.00236319
-0.00364037
-0.00047853
-0.00400501
-0.00216516
-0.00451096
-0.00328374
-0.00470658
-0.0054682
-0.00435765
-0.00826268
-0.00354378
-0.0102469
-0.00259807
-0.0110871
-0.0016839
-0.0113442
-0.000826775
-0.0114805
2.49364e-08
-0.01153
0.000826825
-0.01153
0.00168397
-0.0114806
0.00259815
-0.0113442
0.00354388
-0.0110872
0.00435773
-0.0102468
0.00470657
-0.00826235
0.00451085
-0.00546775
0.0040049
-0.00328351
0.00364031
-0.00216502
0.00398548
-0.000478225
4.27055e-05
0.00236313
7.2793e-07
6.62146e-05
1.01419e-08
1.25852e-06
9.20428e-11
1.83449e-08
1.56181e-12
1.70488e-10
1.64265e-12
-3.47904e-12
4.30409e-12
-3.04475e-10
4.59857e-10
-3.9832e-08
5.70038e-08
-3.38373e-06
4.55389e-06
-0.000742653
0.000467564
-0.00309554
0.00263961
-0.00293759
-0.000636405
-0.00324719
-0.00185622
-0.00324393
-0.0024988
-0.00333935
-0.00221868
-0.00397159
-0.00483748
-0.00336726
-0.0108512
-0.00249264
-0.0119618
-0.00161948
-0.0122173
-0.000793876
-0.0123061
6.95941e-09
-0.0123238
0.000793889
-0.0123239
0.0016195
-0.0123062
0.00249267
-0.0122174
0.00336729
-0.0119618
0.00397148
-0.010851
0.00333882
-0.00483584
0.00324385
-0.00221827
0.00324702
-0.00249863
0.00293748
-0.00185614
0.00309553
-0.000636206
0.000742324
0.00263981
3.37905e-06
0.000467321
3.93464e-08
4.55183e-06
2.95085e-10
5.70298e-08
3.42514e-12
4.60038e-10
4.31838e-12
-5.93743e-12
7.99089e-12
-1.15137e-10
5.46299e-10
-1.72656e-08
7.29184e-08
-2.63656e-06
7.13322e-06
-0.00107011
0.000968975
-0.00213932
0.00245777
-0.00191285
-0.00086278
-0.0019727
-0.00179607
-0.000681817
-0.00147502
-0.000281363
-1.47259e-05
-0.00248859
-0.000769857
-0.00281045
-0.00995449
-0.00214946
-0.0126228
-0.00142887
-0.0129379
-0.000705754
-0.0130292
-1.46535e-08
-0.0130296
0.000705724
-0.0130296
0.00142884
-0.0130293
0.00214941
-0.012938
0.00281036
-0.0126228
0.00248821
-0.00995277
0.000281299
-0.000769063
0.000681765
-1.47004e-05
0.00197252
-0.00147514
0.00191274
-0.00179608
0.0021393
-0.000862667
0.00106985
0.00245803
2.63437e-06
0.000968638
1.62087e-08
7.1308e-06
9.6505e-11
7.29663e-08
5.8456e-12
5.4812e-10
8.03785e-12
-5.58477e-12
1.0649e-11
0
4.19279e-10
0
6.53122e-08
-2.60082e-07
7.3892e-06
-0.000879196
0.00129818
-0.00117624
0.00211003
-0.000789394
-0.0012495
-0.000564096
-0.00191356
-9.66719e-06
-0.000767185
-2.43448e-05
-1.47562e-08
-0.000339355
-2.27274e-05
-0.00199342
-0.00485006
-0.00165866
-0.0129575
-0.00115238
-0.0134442
-0.000579817
-0.0136018
-3.56331e-08
-0.0136094
0.000579744
-0.0136094
0.00115229
-0.0136018
0.00165856
-0.0134442
0.00199321
-0.0129574
0.00033895
-0.00484857
2.43062e-05
-2.26903e-05
9.65402e-06
-1.48206e-08
0.000564073
-0.000767353
0.00078934
-0.00191361
0.00117623
-0.00124943
0.00087905
0.00211032
2.60874e-07
0.00129784
0
7.38708e-06
0
6.57954e-08
5.38559e-12
4.4498e-10
1.07753e-11
-4.18787e-12
1.21116e-11
0
3.23262e-10
0
5.58823e-08
0
6.12828e-06
-0.000519141
0.00143021
-0.000335536
0.00164655
7.08853e-05
-0.00165595
4.05745e-05
-0.00176824
-2.63623e-07
-0.000175054
-2.32848e-07
-3.10941e-08
-2.14563e-05
-1.48713e-06
-0.00099402
-0.00238555
-0.00115803
-0.0127709
-0.000849613
-0.0137526
-0.000439349
-0.0140121
-5.35222e-08
-0.0140487
0.000439239
-0.0140487
0.000849498
-0.0140121
0.0011579
-0.0137526
0.000993861
-0.0127702
2.1421e-05
-0.00238471
2.32619e-07
-1.4852e-06
2.63255e-07
-3.11545e-08
-4.06023e-05
-0.000175094
-7.09169e-05
-0.00176831
0.00033554
-0.00165592
0.000519089
0.00164685
0
0.00142991
0
6.12658e-06
0
5.65051e-08
4.05377e-12
3.78748e-10
1.23586e-11
-3.02425e-12
1.29819e-11
0
2.37231e-10
0
4.22973e-08
0
4.36855e-06
-0.000231868
0.00150761
0.000295789
0.00104873
0.000452848
-0.00181319
6.0986e-05
-0.000662601
2.75232e-08
-5.54556e-06
-3.53867e-11
-5.94993e-09
-1.47892e-06
-8.29579e-09
-0.000432951
-0.00129342
-0.000693703
-0.0118528
-0.000555631
-0.0138907
-0.000299207
-0.0142685
-6.94489e-08
-0.0143478
0.000299063
-0.0143478
0.000555494
-0.0142685
0.000693565
-0.0138907
0.000432751
-0.0118517
1.47694e-06
-0.00129272
3.54058e-11
-8.335e-09
-2.76313e-08
-6.01836e-09
-6.09892e-05
-5.54596e-06
-0.000452861
-0.0006626
-0.000295763
-0.00181321
0.000231891
0.00104901
0
0.00150738
0
4.36762e-06
0
4.30085e-08
3.09035e-12
3.18419e-10
1.33819e-11
-2.33292e-12
1.35671e-11
0
1.33841e-10
0
2.68123e-08
0
2.64435e-06
3.30233e-05
0.00160039
0.000761175
0.000466637
0.000423997
-0.00132282
5.53967e-06
-3.86649e-05
-2.51803e-09
-2.49362e-09
2.57514e-10
-1.36576e-08
1.85057e-10
-8.27062e-09
-9.91336e-05
-0.000476131
-0.000289169
-0.0115299
-0.000291156
-0.0138887
-0.000171658
-0.014388
-8.33835e-08
-0.0145193
0.000171483
-0.0145193
0.000291002
-0.014388
0.000289019
-0.0138887
9.90398e-05
-0.0115289
-1.86486e-10
-0.00047568
-2.59716e-10
-8.30981e-09
2.52349e-09
-1.38527e-08
-5.54004e-06
-2.50818e-09
-0.000423979
-3.86627e-05
-0.000761085
-0.00132288
-3.29856e-05
0.000466888
0
0.00160025
0
2.64639e-06
0
2.74333e-08
2.51766e-12
2.38462e-10
1.41323e-11
-2.10527e-12
1.40137e-11
0
8.60468e-11
0
1.4977e-08
0
2.58086e-06
0.000370921
0.0017004
0.000958884
2.47364e-05
3.86618e-05
-0.000302403
-2.51491e-09
-6.70008e-10
-2.01182e-09
-2.11691e-09
9.49891e-11
-1.28188e-08
3.60059e-10
-8.57841e-09
4.50456e-05
-5.63099e-05
1.88153e-05
-0.0111977
-7.91372e-05
-0.0137907
-6.95973e-05
-0.0143975
-9.094e-08
-0.0145887
6.94034e-05
-0.0145887
7.89766e-05
-0.0143976
-1.89484e-05
-0.0137907
-4.50664e-05
-0.011197
-3.6097e-10
-5.61698e-05
-9.57863e-11
-8.61891e-09
2.04067e-09
-1.29855e-08
2.54199e-09
-2.12829e-09
-3.86595e-05
-6.73133e-10
-0.000958766
-0.000302412
-0.000370791
2.48879e-05
0
0.00170033
0
2.58263e-06
0
1.52325e-08
2.28627e-12
1.35711e-10
1.48097e-11
-3.48888e-12
1.5961e-11
-2.94819e-10
3.70964e-10
-4.80108e-08
6.28082e-08
-1.26191e-05
1.51817e-05
0.00045667
0.00240626
0.000619648
-0.000185502
-1.23602e-09
5.63364e-06
-2.13464e-09
1.99997e-10
-1.3737e-09
-1.96215e-09
0
-6.2037e-09
1.23712e-09
-9.89942e-09
6.93999e-05
-2.35612e-08
0.00016357
-0.00613461
5.3438e-05
-0.0136768
5.12244e-07
-0.0143349
-7.53963e-08
-0.0145881
-6.86886e-07
-0.0145881
-5.35778e-05
-0.014335
-0.000163702
-0.0136769
-6.94123e-05
-0.0061346
-1.24023e-09
-2.35829e-08
0
-9.94259e-09
1.39516e-09
-6.22909e-09
2.14565e-09
-1.96216e-09
1.24244e-09
2.00955e-10
-0.000619505
5.62964e-06
-0.000456427
-0.000185463
1.26179e-05
0.00240627
4.76608e-08
1.51827e-05
2.30089e-10
6.27556e-08
3.45786e-12
3.57524e-10
1.66764e-11
-5.72057e-11
7.20942e-11
-1.38202e-08
1.41512e-08
-1.97263e-06
2.03128e-06
-0.000297986
0.000415247
2.41452e-05
0.00288811
-5.61112e-06
4.7104e-05
-1.67045e-09
2.41629e-08
-2.13146e-09
6.35322e-10
-1.5208e-09
-2.60157e-09
-7.61288e-10
-6.99939e-09
5.15008e-11
-1.07909e-08
2.00874e-07
-2.26043e-07
9.49225e-05
-0.000508057
0.000104153
-0.0124911
3.43533e-05
-0.0142238
-1.92781e-08
-0.0145537
-3.43786e-05
-0.0145537
-0.000104204
-0.0142239
-9.49635e-05
-0.0124911
-2.00441e-07
-0.000509255
-5.14714e-11
-2.25629e-07
7.6502e-10
-1.08372e-08
1.52773e-09
-7.02859e-09
2.15367e-09
-2.61736e-09
1.69015e-09
6.3831e-10
5.60716e-06
2.41453e-08
-2.37988e-05
4.70996e-05
0.000297964
0.00288858
1.97249e-06
0.000415176
1.38278e-08
2.03108e-06
5.74325e-11
1.41504e-08
7.29728e-11
-5.83487e-10
6.7628e-10
-9.72011e-08
1.10872e-07
-1.04043e-05
1.23575e-05
-0.00100028
0.00168343
-0.000379423
0.00273524
-2.47254e-08
0.000163378
-2.98974e-09
2.39142e-09
-3.13969e-09
7.56656e-10
-1.6159e-09
-6.54774e-09
-3.31005e-10
-1.13957e-08
-3.03946e-09
-1.24138e-07
5.5466e-08
-7.79752e-07
1.55114e-05
-1.30327e-08
0.000104324
-0.00743549
5.14365e-05
-0.014085
3.89271e-08
-0.0145023
-5.13277e-05
-0.0145023
-0.000104286
-0.014085
-1.55425e-05
-0.00743516
-5.55309e-08
-1.31186e-08
3.03281e-09
-7.77891e-07
3.38056e-10
-1.24021e-07
1.63469e-09
-1.13019e-08
3.17987e-09
-6.6169e-09
3.0287e-09
7.6036e-10
2.47359e-08
2.40168e-09
0.00037983
0.000163392
0.00100044
0.00273569
1.04045e-05
0.00168341
9.71909e-08
1.23575e-05
5.8359e-10
1.10883e-07
6.77329e-10
-2.37036e-09
3.24941e-09
-2.63708e-07
3.72298e-07
-2.78754e-05
3.99944e-05
-0.00168536
0.00370605
-0.00100744
0.00254478
-5.44186e-09
0.000367358
-5.62907e-09
2.50194e-09
-5.25223e-09
3.43995e-10
-7.56834e-10
-1.20056e-08
0
-9.59565e-08
-1.31712e-07
-2.98001e-07
0
-4.49512e-06
2.80451e-09
-1.20751e-08
7.77013e-05
-0.00421779
6.44216e-05
-0.0139355
5.69299e-08
-0.0144378
-6.42957e-05
-0.0144378
-7.76174e-05
-0.0139356
-2.85106e-09
-0.00421741
0
-1.21368e-08
1.31722e-07
-4.49859e-06
0
-2.98107e-07
7.84459e-10
-9.59487e-08
5.29233e-09
-1.21625e-08
5.67069e-09
3.45644e-10
5.4808e-09
2.51344e-09
0.00100795
0.000367414
0.00168557
0.00254527
2.78694e-05
0.00370606
2.63562e-07
3.99884e-05
2.37564e-09
3.72278e-07
3.25889e-09
-1.00254e-08
1.41188e-08
-1.46813e-06
1.83054e-06
-0.000241209
0.000334772
-0.00227798
0.00659036
-0.00224695
0.00299741
-7.28327e-09
0.000524271
-6.67383e-09
1.81007e-09
-5.79406e-09
-6.12472e-10
-5.25287e-10
-1.35989e-08
0
-1.36083e-07
-2.96042e-07
-2.17112e-07
0
-4.54339e-06
3.77658e-09
-1.22265e-08
9.41502e-05
-0.0036254
8.57521e-05
-0.0138217
7.0691e-08
-0.014352
-8.56303e-05
-0.014352
-9.40398e-05
-0.0138219
-3.8453e-09
-0.00362517
0
-1.22866e-08
2.96316e-07
-4.54703e-06
0
-2.17403e-07
5.2633e-10
-1.36829e-07
5.83765e-09
-1.38209e-08
6.72083e-09
-6.15663e-10
7.33513e-09
1.81788e-09
0.00224728
0.000524522
0.00227822
0.002998
0.000241117
0.00659052
1.4674e-06
0.000334642
1.01251e-08
1.82972e-06
1.42891e-08
-1.98635e-08
2.24931e-08
-1.80484e-06
3.5949e-06
-0.000952222
0.000897372
-0.0025756
0.0075198
-0.00287753
0.00375389
-7.22483e-09
0.00100499
-6.24128e-09
7.39998e-10
-5.06058e-09
-1.87753e-09
-2.65828e-09
-2.23196e-08
0
-1.51424e-08
-1.24491e-07
-1.2331e-08
0
-4.4201e-06
4.55504e-09
-1.3629e-08
0.000169831