/*--------------------------------*- C++ -*----------------------------------*\
  =========                 |
  \\      /  F ield         | OpenFOAM: The Open Source CFD Toolbox
   \\    /   O peration     | Website:  https://openfoam.org
    \\  /    A nd           | Version:  9
     \\/     M anipulation  |
\*---------------------------------------------------------------------------*/
FoamFile
{
    format      ascii;
    class       volScalarField;
    location    "0.95";
    object      p_rgh;
}
// * * * * * * * * * * * * * * * * * * * * * * * * * * * * * * * * * * * * * //

dimensions      [1 -1 -2 0 0 0 0];

internalField   nonuniform List<scalar> 
4096
(
-3.2989
-3.29766
-3.29521
-3.29164
-3.28706
-3.28162
-3.27553
-3.26898
-3.26224
-3.25557
-3.24921
-3.24345
-3.2385
-3.23459
-3.23188
-3.2305
-3.2305
-3.23188
-3.23458
-3.23848
-3.24342
-3.24918
-3.25553
-3.2622
-3.26894
-3.27548
-3.28157
-3.287
-3.29157
-3.29514
-3.29758
-3.29882
-3.30021
-3.29892
-3.29639
-3.29268
-3.28793
-3.28229
-3.27596
-3.26918
-3.26219
-3.25526
-3.24867
-3.24269
-3.23757
-3.23351
-3.2307
-3.22927
-3.22927
-3.2307
-3.2335
-3.23755
-3.24267
-3.24864
-3.25523
-3.26215
-3.26914
-3.27592
-3.28223
-3.28787
-3.29262
-3.29632
-3.29885
-3.30014
-3.30291
-3.30153
-3.29881
-3.29483
-3.28972
-3.28367
-3.27687
-3.26959
-3.26208
-3.25464
-3.24757
-3.24115
-3.23565
-3.2313
-3.22829
-3.22675
-3.22675
-3.22828
-3.23129
-3.23563
-3.24113
-3.24754
-3.25461
-3.26204
-3.26955
-3.27683
-3.28361
-3.28966
-3.29477
-3.29874
-3.30146
-3.30285
-3.30713
-3.30559
-3.30258
-3.29817
-3.29252
-3.28582
-3.2783
-3.27024
-3.26194
-3.25371
-3.24588
-3.23878
-3.2327
-3.22789
-3.22456
-3.22286
-3.22286
-3.22456
-3.22788
-3.23268
-3.23876
-3.24586
-3.25368
-3.2619
-3.2702
-3.27826
-3.28577
-3.29247
-3.29812
-3.30252
-3.30553
-3.30706
-3.31302
-3.31128
-3.30787
-3.30287
-3.29646
-3.28886
-3.28034
-3.27119
-3.26178
-3.25244
-3.24357
-3.23552
-3.22862
-3.22317
-3.2194
-3.21747
-3.21747
-3.21939
-3.22316
-3.22861
-3.2355
-3.24355
-3.25241
-3.26174
-3.27115
-3.28029
-3.28881
-3.29641
-3.30282
-3.30781
-3.31122
-3.31296
-3.32085
-3.31884
-3.3149
-3.30913
-3.30173
-3.29294
-3.28309
-3.27253
-3.26164
-3.25085
-3.24059
-3.23128
-3.22331
-3.21701
-3.21265
-3.21042
-3.21042
-3.21264
-3.21699
-3.22329
-3.23126
-3.24056
-3.25082
-3.2616
-3.27249
-3.28305
-3.2929
-3.30168
-3.30908
-3.31484
-3.31879
-3.32079
-3.33095
-3.3286
-3.32399
-3.31724
-3.30857
-3.29828
-3.28674
-3.27435
-3.26158
-3.24893
-3.23689
-3.22597
-3.21661
-3.20921
-3.20409
-3.20148
-3.20148
-3.20409
-3.2092
-3.21659
-3.22594
-3.23686
-3.2489
-3.26155
-3.27431
-3.2867
-3.29824
-3.30852
-3.31718
-3.32394
-3.32855
-3.3309
-3.34377
-3.34099
-3.33555
-3.32757
-3.31733
-3.30517
-3.29151
-3.27684
-3.26171
-3.24671
-3.23243
-3.21946
-3.20835
-3.19957
-3.1935
-3.1904
-3.19039
-3.19349
-3.19956
-3.20833
-3.21944
-3.2324
-3.24668
-3.26168
-3.27681
-3.29147
-3.30513
-3.31729
-3.32752
-3.33549
-3.34094
-3.34371
-3.35986
-3.35657
-3.35011
-3.34064
-3.32848
-3.31401
-3.29774
-3.28024
-3.26218
-3.24425
-3.22717
-3.21165
-3.19836
-3.18785
-3.18058
-3.17687
-3.17686
-3.18057
-3.18784
-3.19834
-3.21163
-3.22714
-3.24421
-3.26214
-3.28021
-3.29769
-3.31396
-3.32843
-3.34059
-3.35006
-3.35652
-3.3598
-3.37997
-3.37606
-3.36837
-3.3571
-3.34259
-3.32532
-3.30586
-3.2849
-3.26322
-3.24167
-3.22113
-3.20245
-3.18644
-3.17378
-3.16502
-3.16055
-3.16055
-3.16502
-3.17377
-3.18642
-3.20243
-3.2211
-3.24164
-3.26318
-3.28486
-3.30581
-3.32527
-3.34254
-3.35705
-3.36832
-3.376
-3.37991
-3.40502
-3.40038
-3.39123
-3.3778
-3.36048
-3.33982
-3.31649
-3.2913
-3.2652
-3.2392
-3.21438
-3.1918
-3.17243
-3.15711
-3.14652
-3.14111
-3.1411
-3.14651
-3.1571
-3.17241
-3.19178
-3.21435
-3.23917
-3.26516
-3.29126
-3.31645
-3.33977
-3.36043
-3.37775
-3.39118
-3.40032
-3.40496
-3.43622
-3.43071
-3.41985
-3.40386
-3.38321
-3.35849
-3.33049
-3.30018
-3.26868
-3.23722
-3.20714
-3.17974
-3.15622
-3.13763
-3.12477
-3.1182
-3.1182
-3.12476
-3.13761
-3.1562
-3.17972
-3.20711
-3.23718
-3.26864
-3.30014
-3.33045
-3.35844
-3.38315
-3.40381
-3.41979
-3.43065
-3.43616
-3.47509
-3.46858
-3.45572
-3.43675
-3.41217
-3.38264
-3.34907
-3.31257
-3.2745
-3.23636
-3.19981
-3.16648
-3.13785
-3.11522
-3.09957
-3.0916
-3.09159
-3.09957
-3.1152
-3.13783
-3.16646
-3.19978
-3.23632
-3.27446
-3.31253
-3.34902
-3.38259
-3.41211
-3.43669
-3.45566
-3.46851
-3.47502
-3.52356
-3.51592
-3.50078
-3.4784
-3.44926
-3.4141
-3.3739
-3.32998
-3.28395
-3.23764
-3.19315
-3.15251
-3.1176
-3.09
-3.07094
-3.06124
-3.06124
-3.07094
-3.08998
-3.11758
-3.15249
-3.19312
-3.2376
-3.28391
-3.32994
-3.37385
-3.41404
-3.4492
-3.47833
-3.50072
-3.51585
-3.52349
-3.58411
-3.57522
-3.55756
-3.53134
-3.49703
-3.45536
-3.4074
-3.35463
-3.299
-3.24271
-3.18847
-3.13884
-3.09616
-3.06246
-3.03925
-3.02747
-3.02747
-3.03924
-3.06245
-3.09614
-3.13882
-3.18843
-3.24267
-3.29895
-3.35458
-3.40734
-3.4553
-3.49697
-3.53127
-3.55749
-3.57515
-3.58404
-3.65986
-3.64965
-3.62929
-3.59891
-3.55889
-3.50989
-3.45296
-3.38977
-3.32261
-3.25417
-3.18793
-3.12714
-3.07479
-3.03363
-3.00551
-2.99134
-2.99134
-3.0055
-3.03361
-3.07477
-3.12712
-3.1879
-3.25413
-3.32256
-3.38971
-3.4529
-3.50982
-3.55883
-3.59884
-3.62922
-3.64957
-3.65978
-3.75472
-3.74321
-3.72015
-3.68552
-3.63948
-3.58249
-3.51548
-3.44018
-3.35932
-3.27608
-3.19471
-3.11979
-3.05552
-3.00548
-2.97164
-2.95468
-2.95468
-2.97163
-3.00546
-3.0555
-3.11976
-3.19467
-3.27603
-3.35927
-3.44013
-3.51542
-3.58243
-3.63941
-3.68544
-3.72007
-3.74312
-3.75463
-3.87351
-3.86088
-3.83542
-3.79686
-3.74502
-3.67989
-3.60204
-3.51314
-3.41637
-3.31482
-3.21484
-3.12317
-3.04447
-2.98265
-2.94067
-2.91968
-2.91968
-2.94066
-2.98263
-3.04445
-3.12315
-3.2148
-3.31478
-3.41632
-3.51308
-3.60197
-3.67981
-3.74494
-3.79678
-3.83533
-3.86079
-3.87342
-4.02206
-4.00875
-3.98171
-3.94032
-3.88379
-3.81134
-3.72274
-3.61912
-3.50315
-3.38163
-3.26238
-3.14914
-3.04836
-2.97065
-2.91969
-2.89465
-2.89465
-2.91968
-2.97063
-3.04834
-3.14912
-3.26234
-3.38158
-3.5031
-3.61906
-3.72267
-3.81126
-3.88371
-3.94023
-3.98161
-4.00865
-4.02196
-4.20714
-4.19398
-4.16701
-4.12515
-4.06677
-3.98975
-3.89257
-3.77541
-3.63886
-3.48667
-3.34814
-3.35006
-4.10537
-5.22241
-6.12644
-6.54076
-6.54072
-6.12636
-5.2223
-4.10526
-3.34999
-3.34811
-3.48662
-3.6388
-3.77535
-3.8925
-3.98966
-4.06668
-4.12505
-4.1669
-4.19387
-4.20703
-4.4362
-4.42462
-4.40056
-4.36257
-4.3079
-4.23256
-4.13225
-3.99613
-3.81999
-3.89042
-6.53725
-10.9176
-14.0616
-15.5879
-16.261
-16.4877
-16.4877
-16.261
-15.5878
-14.0614
-10.9173
-6.53691
-3.89029
-3.81994
-3.99606
-4.13217
-4.23246
-4.30779
-4.36246
-4.40044
-4.42449
-4.43608
-4.71672
-4.70888
-4.69227
-4.66533
-4.62496
-4.56533
-4.46089
-4.28386
-4.92448
-11.7675
-16.6608
-17.4513
-17.3769
-17.3205
-17.2769
-17.2562
-17.2562
-17.2769
-17.3205
-17.3769
-17.4512
-16.6606
-11.7668
-4.92413
-4.2838
-4.46081
-4.56523
-4.62485
-4.6652
-4.69214
-4.70874
-4.71658
-5.05503
-5.05397
-5.05136
-5.04717
-5.0415
-5.01101
-4.87175
-5.76197
-14.563
-17.8905
-17.77
-17.6673
-17.5703
-17.4919
-17.433
-17.406
-17.406
-17.433
-17.4919
-17.5702
-17.6673
-17.7699
-17.8905
-14.5622
-5.76151
-4.87166
-5.0109
-5.04136
-5.04702
-5.0512
-5.05381
-5.05486
-5.45442
-5.4639
-5.48385
-5.52144
-5.57592
-5.56663
-5.95947
-14.4484
-18.4428
-18.3263
-18.1364
-17.9679
-17.825
-17.7141
-17.6321
-17.5966
-17.5966
-17.632
-17.7141
-17.825
-17.9679
-18.1364
-18.3263
-18.4427
-14.4474
-5.95906
-5.56651
-5.57576
-5.52127
-5.48367
-5.46371
-5.45424
-5.91292
-5.93675
-5.98837
-6.08491
-6.1988
-6.17098
-11.8008
-19.0651
-19.0658
-18.9095
-18.657
-18.4028
-18.192
-18.0297
-17.9119
-17.8623
-17.8623
-17.9119
-18.0297
-18.192
-18.4028
-18.657
-18.9095
-19.0658
-19.0649
-11.7995
-6.17078
-6.19861
-6.08471
-5.98816
-5.93654
-5.91271
-6.4205
-6.4624
-6.55525
-6.72289
-6.90892
-8.32276
-17.9163
-19.8275
-19.8693
-19.7452
-19.4232
-19.0326
-18.7086
-18.4645
-18.2909
-18.22
-18.22
-18.2909
-18.4645
-18.7086
-19.0327
-19.4233
-19.7453
-19.8692
-19.8274
-17.9154
-8.32208
-6.9087
-6.72266
-6.55501
-6.46215
-6.42026
-6.95638
-7.01816
-7.15728
-7.38661
-7.60188
-12.297
-20.3476
-20.6134
-20.8244
-20.8924
-20.5645
-19.9316
-19.4046
-19.0386
-18.7811
-18.6753
-18.6753
-18.7811
-19.0386
-19.4047
-19.9317
-20.5646
-20.8925
-20.8244
-20.6132
-20.3474
-12.2956
-7.60165
-7.38634
-7.15701
-7.01788
-6.9561
-7.49294
-7.57318
-7.75484
-8.03027
-8.51036
-16.3062
-21.0705
-21.3598
-21.4385
-19.8665
-19.3337
-21.0665
-20.2133
-19.6949
-19.3445
-19.1925
-19.1925
-19.3445
-19.6949
-20.2134
-21.0666
-19.3325
-19.866
-21.4384
-21.3596
-21.0703
-16.3049
-8.50992
-8.02995
-7.75452
-7.57286
-7.49262
-8.00107
-8.09434
-8.30361
-8.61223
-9.64401
-18.7628
-21.5131
-21.8327
-18.6946
-12.1828
-13.334
-21.8333
-20.9037
-20.2792
-19.8835
-19.697
-19.6971
-19.8836
-20.2793
-20.9038
-21.833
-13.3326
-12.1827
-18.6951
-21.8326
-21.5129
-18.7617
-9.64329
-8.61186
-8.30324
-8.09397
-8.0007
-8.45366
-8.55065
-8.76253
-9.06892
-10.6613
-19.8705
-21.6387
-21.7722
-15.4957
-11.0246
-11.2675
-17.64
-21.3332
-20.7023
-20.3225
-20.129
-20.129
-20.3225
-20.7024
-21.3333
-17.638
-11.2671
-11.0245
-15.4966
-21.7721
-21.6385
-19.8694
-10.6604
-9.06849
-8.76211
-8.55023
-8.45324
-8.8337
-8.92265
-9.11055
-9.37594
-11.2744
-20.1462
-21.5026
-21.2708
-13.0676
-11.0541
-11.1278
-13.5955
-21.513
-20.9596
-20.6251
-20.4482
-20.4482
-20.6251
-20.9596
-21.513
-13.5947
-11.1277
-11.054
-13.0681
-21.2708
-21.5024
-20.1453
-11.2734
-9.37547
-9.11008
-8.92219
-8.83323
-9.13939
-9.20853
-9.35094
-9.55111
-11.5798
-20.2042
-21.2738
-17.7028
-11.371
-11.0779
-11.1406
-12.6364
-20.832
-21.0564
-20.7863
-20.6395
-20.6394
-20.7863
-21.0564
-20.8312
-12.6359
-11.1405
-11.0778
-11.371
-17.7028
-21.2736
-20.2034
-11.5788
-9.55059
-9.35042
-9.20802
-9.13889
-9.38679
-9.42809
-9.51549
-9.64052
-11.8508
-19.9507
-20.3615
-12.4068
-11.057
-11.0935
-11.1515
-12.0385
-19.9998
-21.0155
-20.8214
-20.7098
-20.7098
-20.8212
-21.0154
-19.999
-12.038
-11.1515
-11.0935
-11.057
-12.4067
-20.3615
-19.9501
-11.8498
-9.63995
-9.51493
-9.42754
-9.38625
-9.60092
-9.61176
-9.63319
-9.66421
-11.837
-19.6023
-15.5584
-10.9969
-11.0609
-11.106
-11.1667
-11.471
-19.521
-20.8785
-20.7592
-20.6782
-20.6782
-20.7589
-20.8783
-19.5203
-11.4707
-11.1667
-11.1061
-11.061
-10.9969
-15.5585
-19.6019
-11.8361
-9.66357
-9.63258
-9.61119
-9.60037
-9.81059
-9.78976
-9.73724
-9.64526
-12.2274
-19.136
-12.1351
-11.0053
-11.0871
-11.1347
-11.1958
-11.2731
-17.7538
-20.6947
-20.6349
-20.5713
-20.5717
-20.634
-20.6944
-17.7534
-11.273
-11.1958
-11.1347
-11.0872
-11.0055
-12.1353
-19.136
-12.2264
-9.64451
-9.7366
-9.78918
-9.81004
-10.0606
-10.0172
-9.91534
-9.80802
-14.6207
-17.0707
-11.1174
-11.12
-11.1636
-11.2059
-11.2616
-11.3001
-13.2382
-20.2678
-20.4543
-20.4321
-20.4322
-20.4538
-20.2676
-13.2382
-11.3001
-11.2616
-11.206
-11.1637
-11.1203
-11.1179
-17.0727
-14.6179
-9.80706
-9.91469
-10.0167
-10.0601
-10.4006
-10.3617
-10.2756
-10.6498
-16.6764
-14.1532
-11.2573
-11.2787
-11.3046
-11.3325
-11.3657
-11.3893
-11.4809
-17.7057
-20.239
-20.2617
-20.2618
-20.2387
-17.7055
-11.4809
-11.3893
-11.3657
-11.3326
-11.3048
-11.2789
-11.2577
-14.1538
-16.6761
-10.6491
-10.2751
-10.3612
-10.4001
-10.8589
-10.856
-10.8118
-12.2242
-17.1444
-13.5106
-11.5144
-11.5179
-11.5205
-11.5199
-11.5194
-11.5223
-11.5488
-14.543
-19.9809
-20.0535
-20.0535
-19.9808
-14.5427
-11.5488
-11.5223
-11.5195
-11.52
-11.5206
-11.518
-11.5146
-13.5111
-17.1445
-12.2238
-10.8115
-10.8556
-10.8586
-11.4135
-11.4756
-11.5521
-14.8815
-17.8302
-13.9081
-11.8598
-11.8323
-11.7971
-11.75
-11.7029
-11.6667
-11.6436
-13.7326
-19.6907
-19.8069
-19.8068
-19.6909
-13.7325
-11.6436
-11.6668
-11.703
-11.75
-11.7972
-11.8324
-11.8599
-13.9091
-17.8305
-14.8815
-11.552
-11.4753
-11.4132
-11.9656
-12.1657
-12.7836
-18.2294
-18.9726
-17.0082
-12.2823
-12.1997
-12.0984
-11.9831
-11.8776
-11.7951
-11.7333
-13.9823
-19.4048
-19.5248
-19.5246
-19.405
-13.9823
-11.7333
-11.7951
-11.8777
-11.9832
-12.0985
-12.1998
-12.2824
-17.0099
-18.9732
-18.229
-12.7833
-12.1655
-11.9653
-12.4007
-12.741
-13.6058
-19.2993
-20.1839
-17.9527
-12.7153
-12.5592
-12.3644
-12.168
-11.9995
-11.8681
-11.7795
-14.3569
-19.1017
-19.2028
-19.2026
-19.1019
-14.3569
-11.7795
-11.868
-11.9995
-12.168
-12.3644
-12.5592
-12.7154
-17.9539
-20.1843
-19.2979
-13.6051
-12.7406
-12.4003
-12.5488
-12.9035
-13.5342
-17.4013
-20.0853
-16.2565
-13.119
-12.7934
-12.5099
-12.245
-12.0266
-11.8604
-11.7556
-14.2748
-18.7512
-18.8305
-18.8304
-18.7511
-14.2747
-11.7555
-11.8604
-12.0265
-12.245
-12.5098
-12.7933
-13.1191
-16.2566
-20.0853
-17.3989
-13.5335
-12.903
-12.5483
-12.3043
-12.5842
-13.0761
-13.9787
-15.7845
-13.8307
-13.1208
-12.7949
-12.4724
-12.1771
-11.9376
-11.7609
-11.6548
-13.9318
-18.3329
-18.4046
-18.4048
-18.3325
-13.9314
-11.6547
-11.7608
-11.9375
-12.177
-12.4722
-12.7948
-13.1207
-13.8303
-15.7825
-13.9775
-13.0755
-12.5837
-12.3038
-11.83
-12.0559
-12.4839
-12.9701
-13.1718
-13.077
-12.8278
-12.5384
-12.2373
-11.9611
-11.7385
-11.58
-11.4834
-13.5638
-17.8566
-17.9305
-17.9307
-17.856
-13.5633
-11.4832
-11.5798
-11.7384
-11.961
-12.2372
-12.5382
-12.8276
-13.0766
-13.1714
-12.9696
-12.4833
-12.0554
-11.8295
-11.3013
-11.4791
-11.8186
-12.243
-12.4792
-12.4619
-12.3086
-12.0932
-11.8552
-11.6332
-11.4564
-11.3303
-11.2554
-13.2479
-17.3585
-17.4163
-17.4164
-17.358
-13.2474
-11.2552
-11.3301
-11.4562
-11.633
-11.855
-12.093
-12.3084
-12.4615
-12.4788
-12.2425
-11.8181
-11.4786
-11.3008
-10.8036
-10.9339
-11.1771
-11.4841
-11.71
-11.7652
-11.697
-11.5652
-11.4045
-11.2504
-11.1291
-11.0425
-10.9934
-13.2289
-16.8482
-16.8758
-16.8759
-16.8478
-13.2284
-10.9932
-11.0423
-11.129
-11.2502
-11.4042
-11.5649
-11.6967
-11.7648
-11.7096
-11.4836
-11.1767
-10.9335
-10.8033
-10.3903
-10.4795
-10.6444
-10.8514
-11.0329
-11.1216
-11.1148
-11.0493
-10.9577
-10.8669
-10.7965
-10.747
-10.7215
-13.2372
-16.3175
-16.3244
-16.3245
-16.3172
-13.2367
-10.7213
-10.7468
-10.7963
-10.8667
-10.9575
-11.0491
-11.1145
-11.1213
-11.0326
-10.8511
-10.6441
-10.4792
-10.3901
-10.0802
-10.139
-10.2483
-10.3866
-10.5155
-10.6001
-10.6229
-10.603
-10.5637
-10.5212
-10.4897
-10.468
-10.4617
-13.1309
-15.7782
-15.7772
-15.7772
-15.778
-13.1304
-10.4615
-10.4678
-10.4895
-10.5211
-10.5635
-10.6028
-10.6227
-10.5998
-10.5153
-10.3864
-10.248
-10.1387
-10.08
-9.8587
-9.89708
-9.96829
-10.0594
-10.1478
-10.2133
-10.2457
-10.252
-10.2439
-10.2327
-10.2262
-10.2254
-10.2301
-12.9601
-15.2493
-15.2479
-15.2479
-15.2492
-12.9597
-10.2299
-10.2253
-10.2261
-10.2325
-10.2437
-10.2518
-10.2454
-10.213
-10.1476
-10.0592
-9.96807
-9.89687
-9.8585
-9.70719
-9.7321
-9.77811
-9.8373
-9.89641
-9.94439
-9.97534
-9.99122
-9.99853
-10.0044
-10.0129
-10.0234
-10.0343
-12.7806
-14.7421
-14.7431
-14.7431
-14.742
-12.7803
-10.0342
-10.0232
-10.0127
-10.0043
-9.99837
-9.99105
-9.97517
-9.94421
-9.89623
-9.83712
-9.77793
-9.73193
-9.70702
-9.60623
-9.62222
-9.65171
-9.68981
-9.72879
-9.7622
-9.78695
-9.80392
-9.8168
-9.83007
-9.84537
-9.86159
-9.87607
-12.6169
-14.262
-14.2654
-14.2653
-14.2619
-12.6166
-9.87594
-9.86145
-9.84523
-9.82993
-9.81665
-9.80377
-9.78679
-9.76205
-9.72863
-9.68965
-9.65155
-9.62207
-9.60608
-9.53934
-9.54942
-9.56798
-9.59202
-9.61703
-9.63926
-9.65714
-9.67162
-9.68526
-9.70001
-9.71729
-9.7358
-9.75254
-12.4608
-13.8107
-13.814
-13.814
-13.8106
-12.4605
-9.75242
-9.73568
-9.71716
-9.69988
-9.68513
-9.67148
-9.657
-9.63912
-9.61689
-9.59187
-9.56783
-9.54928
-9.5392
-9.49456
-9.50075
-9.51211
-9.5268
-9.54219
-9.55622
-9.56823
-9.57914
-9.59079
-9.60457
-9.6211
-9.6395
-9.65641
-12.2946
-13.3848
-13.3864
-13.3864
-13.3848
-12.2944
-9.6563
-9.63938
-9.62099
-9.60445
-9.59067
-9.57901
-9.5681
-9.55609
-9.54206
-9.52667
-9.51198
-9.50062
-9.49442
-9.46383
-9.4675
-9.4742
-9.48278
-9.49174
-9.5
-9.50744
-9.51495
-9.52395
-9.53545
-9.54959
-9.56549
-9.60926
-12.1025
-12.9793
-12.979
-12.979
-12.9792
-12.1023
-9.60911
-9.56539
-9.54948
-9.53534
-9.52383
-9.51483
-9.50732
-9.49987
-9.49162
-9.48266
-9.47407
-9.46738
-9.4637
-9.44197
-9.44404
-9.44776
-9.45245
-9.45724
-9.46163
-9.46579
-9.47053
-9.47697
-9.4858
-9.49686
-9.50898
-9.59333
-11.8909
-12.5908
-12.5886
-12.5886
-12.5907
-11.8907
-9.5932
-9.50888
-9.49676
-9.48569
-9.47686
-9.47042
-9.46567
-9.46151
-9.45713
-9.45234
-9.44764
-9.44392
-9.44185
-9.42573
-9.42681
-9.42869
-9.43097
-9.43317
-9.4351
-9.43707
-9.43979
-9.44411
-9.45049
-9.45849
-9.46709
-9.59075
-11.6704
-12.2166
-12.2123
-12.2123
-12.2166
-11.6703
-9.59062
-9.467
-9.45839
-9.4504
-9.44401
-9.43968
-9.43696
-9.43499
-9.43306
-9.43086
-9.42858
-9.4267
-9.42562
-9.41313
-9.41361
-9.41439
-9.41525
-9.41593
-9.41642
-9.41706
-9.41844
-9.42116
-9.42548
-9.43085
-9.43645
-9.59134
-11.4395
-11.8536
-11.8473
-11.8473
-11.8536
-11.4394
-9.59122
-9.43636
-9.43076
-9.42538
-9.42107
-9.41834
-9.41696
-9.41632
-9.41583
-9.41515
-9.41429
-9.4135
-9.41302
-9.40292
-9.40307
-9.40325
-9.40335
-9.40323
-9.40298
-9.4029
-9.40348
-9.40513
-9.40786
-9.41109
-9.41427
-9.58866
-11.1994
-11.4992
-11.4908
-11.4908
-11.4991
-11.1993
-9.58855
-9.41419
-9.411
-9.40777
-9.40504
-9.40339
-9.4028
-9.40288
-9.40313
-9.40324
-9.40315
-9.40297
-9.40282
-9.39437
-9.39434
-9.39423
-9.39398
-9.39353
-9.39299
-9.39264
-9.39283
-9.39379
-9.39538
-9.39698
-9.39833
-9.58384
-10.9493
-11.1512
-11.1408
-11.1408
-11.1512
-10.9492
-9.58374
-9.39825
-9.39689
-9.39529
-9.3937
-9.39274
-9.39255
-9.3929
-9.39343
-9.39388
-9.39414
-9.39425
-9.39427
-9.38697
-9.38688
-9.38667
-9.38631
-9.38581
-9.38529
-9.38494
-9.385
-9.38558
-9.3864
-9.38684
-9.38692
-9.57596
-10.6864
-10.8079
-10.7954
-10.7954
-10.8079
-10.6863
-9.57587
-9.38684
-9.38675
-9.38631
-9.38549
-9.38491
-9.38485
-9.38519
-9.38572
-9.38622
-9.38657
-9.38678
-9.38687
-9.38041
-9.38031
-9.3801
-9.37979
-9.37939
-9.37902
-9.37883
-9.37895
-9.37937
-9.37972
-9.37939
-9.37862
-9.55893
-10.4087
-10.4675
-10.453
-10.453
-10.4675
-10.4086
-9.55884
-9.37854
-9.37931
-9.37964
-9.37929
-9.37887
-9.37874
-9.37893
-9.37931
-9.3797
-9.38001
-9.38022
-9.38032
-9.37446
-9.37439
-9.37425
-9.37405
-9.37382
-9.37366
-9.37367
-9.37396
-9.37441
-9.37454
-9.37374
-9.37244
-9.52651
-10.1164
-10.1287
-10.1123
-10.1123
-10.1286
-10.1164
-9.52643
-9.37236
-9.37367
-9.37447
-9.37433
-9.37388
-9.37359
-9.37357
-9.37373
-9.37396
-9.37416
-9.37431
-9.37438
-9.36898
-9.36895
-9.3689
-9.36884
-9.36882
-9.3689
-9.36918
-9.36967
-9.37019
-9.37025
-9.36926
-9.36772
-9.47427
-9.81078
-9.7906
-9.7723
-9.77229
-9.79057
-9.81072
-9.47419
-9.36765
-9.36919
-9.37017
-9.37011
-9.36959
-9.3691
-9.36881
-9.36873
-9.36876
-9.36881
-9.36886
-9.36889
-9.36383
-9.36385
-9.3639
-9.36401
-9.36421
-9.36456
-9.36509
-9.36575
-9.36634
-9.36641
-9.36545
-9.3639
-9.39614
-9.49267
-9.4525
-9.43231
-9.4323
-9.45247
-9.49262
-9.39607
-9.36383
-9.36538
-9.36634
-9.36626
-9.36567
-9.36501
-9.36448
-9.36413
-9.36393
-9.36382
-9.36377
-9.36374
-9.35892
-9.35899
-9.35916
-9.35944
-9.35986
-9.36045
-9.36117
-9.36195
-9.3626
-9.36274
-9.36195
-9.36046
-9.28329
-9.16402
-9.11385
-9.09176
-9.09175
-9.11382
-9.16397
-9.28323
-9.3604
-9.36188
-9.36267
-9.36252
-9.36188
-9.36109
-9.36037
-9.35978
-9.35936
-9.35908
-9.35891
-9.35884
-9.35417
-9.35431
-9.35459
-9.35503
-9.35565
-9.35641
-9.35728
-9.35815
-9.35882
-9.35903
-9.35851
-9.35717
-9.12594
-8.82778
-8.77424
-8.75021
-8.7502
-8.77422
-8.82774
-9.12589
-9.35711
-9.35844
-9.35896
-9.35875
-9.35808
-9.35721
-9.35634
-9.35557
-9.35496
-9.35451
-9.35423
-9.35409
-9.34954
-9.34973
-9.35012
-9.35071
-9.35148
-9.3524
-9.35339
-9.3543
-9.35494
-9.35517
-9.3551
-9.35452
-8.91432
-8.48722
-8.43314
-8.40721
-8.4072
-8.43311
-8.48718
-8.91428
-9.35445
-9.35504
-9.3551
-9.35487
-9.35423
-9.35332
-9.35233
-9.35141
-9.35063
-9.35005
-9.34966
-9.34947
-9.34499
-9.34522
-9.3457
-9.3464
-9.34732
-9.34838
-9.34947
-9.35039
-9.35091
-9.35102
-9.35154
-9.3526
-8.64126
-8.14622
-8.08976
-8.062
-8.06199
-8.08974
-8.14618
-8.64123
-9.35254
-9.35148
-9.35096
-9.35085
-9.35032
-9.3494
-9.34831
-9.34725
-9.34633
-9.34562
-9.34515
-9.34491
-9.34044
-9.34071
-9.34127
-9.34209
-9.34313
-9.34433
-9.3455
-9.3464
-9.3467
-9.34633
-9.34641
-9.34609
-8.30178
-7.80436
-7.74286
-7.71373
-7.71372
-7.74283
-7.80432
-8.30175
-9.34603
-9.34635
-9.34627
-9.34663
-9.34633
-9.34543
-9.34426
-9.34307
-9.34202
-9.3412
-9.34064
-9.34037
-9.33588
-9.33619
-9.33682
-9.33775
-9.33892
-9.34023
-9.3415
-9.34238
-9.34239
-9.34107
-9.33883
-9.2758
-7.89899
-7.45834
-7.39215
-7.36229
-7.36229
-7.39212
-7.4583
-7.89896
-9.27576
-9.33877
-9.34101
-9.34233
-9.34232
-9.34143
-9.34017
-9.33885
-9.33768
-9.33675
-9.33613
-9.33581
-9.33131
-9.33166
-9.33236
-9.33337
-9.33466
-9.33609
-9.33746
-9.3384
-9.3383
-9.3363
-9.33235
-9.06085
-7.4594
-7.10726
-7.03883
-7.00884
-7.00883
-7.03881
-7.10723
-7.45937
-9.06081
-9.33229
-9.33624
-9.33824
-9.33834
-9.33739
-9.33602
-9.33459
-9.33331
-9.33229
-9.33159
-9.33124
-9.32673
-9.32711
-9.32787
-9.32897
-9.33034
-9.33186
-9.33332
-9.33437
-9.33444
-9.33268
-9.32849
-8.72391
-6.995
-6.75297
-6.68538
-6.65565
-6.65565
-6.68537
-6.75294
-6.99497
-8.72389
-9.32843
-9.33262
-9.33438
-9.33431
-9.33326
-9.3318
-9.33028
-9.3289
-9.32781
-9.32705
-9.32667
-9.32217
-9.32258
-9.32339
-9.32455
-9.32598
-9.32755
-9.32903
-9.33011
-9.33039
-9.32959
-9.32668
-8.19232
-6.54798
-6.39913
-6.33465
-6.30557
-6.30556
-6.33463
-6.3991
-6.54794
-8.19232
-9.32662
-9.32953
-9.33033
-9.33005
-9.32897
-9.32749
-9.32592
-9.32449
-9.32333
-9.32252
-9.32211
-9.31766
-9.3181
-9.31895
-9.32016
-9.32164
-9.3232
-9.3246
-9.32549
-9.32552
-9.32493
-9.32298
-7.46696
-6.15433
-6.04973
-5.98936
-5.96153
-5.96153
-5.98935
-6.0497
-6.15429
-7.46696
-9.32293
-9.32487
-9.32546
-9.32543
-9.32454
-9.32314
-9.32158
-9.3201
-9.31889
-9.31804
-9.3176
-9.31325
-9.31371
-9.31461
-9.31587
-9.31738
-9.31892
-9.32018
-9.32067
-9.31969
-9.3156
-9.27586
-6.60498
-5.80465
-5.70587
-5.65217
-5.62691
-5.62691
-5.65215
-5.70584
-5.80461
-6.60497
-9.27584
-9.31555
-9.31963
-9.32061
-9.32012
-9.31887
-9.31732
-9.31581
-9.31455
-9.31365
-9.31319
-9.30899
-9.30948
-9.31043
-9.31176
-9.31332
-9.31488
-9.31609
-9.31642
-9.31523
-9.31072
-8.40749
-5.79937
-5.45604
-5.37209
-5.32715
-5.30575
-5.30575
-5.32713
-5.37207
-5.45601
-5.79935
-8.40751
-9.31067
-9.31517
-9.31637
-9.31603
-9.31483
-9.31326
-9.3117
-9.31037
-9.30942
-9.30893
-9.30495
-9.30548
-9.30648
-9.30788
-9.3095
-9.3111
-9.31227
-9.31237
-9.3105
-9.30565
-7.08829
-5.22762
-5.11956
-5.05528
-5.01993
-5.00308
-5.00308
-5.01992
-5.05526
-5.11953
-5.22758
-7.08832
-9.3056
-9.31045
-9.31232
-9.31221
-9.31105
-9.30944
-9.30782
-9.30643
-9.30542
-9.30489
-9.30121
-9.30177
-9.30284
-9.30431
-9.306
-9.30762
-9.30861
-9.30782
-9.30216
-8.91963
-5.59218
-4.88055
-4.80555
-4.76098
-4.73584
-4.7239
-4.72389
-4.73582
-4.76096
-4.80552
-4.88051
-5.59219
-8.91964
-9.3021
-9.30777
-9.30856
-9.30756
-9.30594
-9.30426
-9.30279
-9.30172
-9.30115
-9.29787
-9.29847
-9.29961
-9.30117
-9.30292
-9.30462
-9.30569
-9.30477
-9.2992
-6.8956
-4.64343
-4.5652
-4.51966
-4.49397
-4.47898
-4.47189
-4.47189
-4.47897
-4.49395
-4.51963
-4.56516
-4.6434
-6.89567
-9.29915
-9.30472
-9.30564
-9.30456
-9.30286
-9.30112
-9.29956
-9.29841
-9.29781
-9.29505
-9.29569
-9.29692
-9.29859
-9.30035
-9.30207
-9.30343
-9.30285
-8.19583
-4.73097
-4.32061
-4.28853
-4.26869
-4.25814
-4.2521
-4.2493
-4.2493
-4.25209
-4.25813
-4.26867
-4.28849
-4.32057
-4.73099
-8.19588
-9.3028
-9.30337
-9.30201
-9.3003
-9.29854
-9.29686
-9.29563
-9.295
-9.29294
-9.29361
-9.29496
-9.29693
-9.29861
-9.30014
-9.30206
-8.58772
-4.82444
-4.05822
-4.05655
-4.05297
-4.05336
-4.05476
-4.05598
-4.05664
-4.05663
-4.05597
-4.05474
-4.05334
-4.05294
-4.05651
-4.05818
-4.82449
-8.58778
-9.30201
-9.30009
-9.29856
-9.29688
-9.29491
-9.29356
-9.29289
-9.29191
-9.29253
-9.29406
-9.29712
-9.29828
-9.29945
-8.23367
-4.41025
-3.78422
-3.82202
-3.84275
-3.85984
-3.87338
-3.88326
-3.88972
-3.89289
-3.89289
-3.88971
-3.88324
-3.87336
-3.85981
-3.84272
-3.82197
-3.78418
-4.41031
-8.23376
-9.29939
-9.29823
-9.29706
-9.294
-9.29248
-9.29186
-9.29223
-9.29273
-9.29352
-9.27898
-8.59795
-6.42025
-3.7957
-3.52812
-3.59477
-3.64154
-3.67731
-3.70514
-3.72617
-3.74129
-3.75107
-3.75586
-3.75586
-3.75106
-3.74128
-3.72615
-3.70511
-3.67728
-3.6415
-3.59473
-3.52807
-3.79572
-6.4204
-8.59802
-9.27897
-9.29346
-9.29268
-9.29217
-7.43443
-7.19861
-6.52996
-5.25821
-3.96708
-3.279
-3.31462
-3.3933
-3.4583
-3.51012
-3.55112
-3.58323
-3.60774
-3.62546
-3.63696
-3.64261
-3.6426
-3.63695
-3.62545
-3.60772
-3.58321
-3.55109
-3.51008
-3.45826
-3.39326
-3.31456
-3.27896
-3.96714
-5.25833
-6.53011
-7.19874
-7.43455
-3.17589
-3.12152
-3.03799
-3.04026
-3.10075
-3.16835
-3.23961
-3.30649
-3.3654
-3.41503
-3.45571
-3.48829
-3.51351
-3.53192
-3.54395
-3.54989
-3.54988
-3.54395
-3.53191
-3.51349
-3.48826
-3.45568
-3.415
-3.36536
-3.30644
-3.23957
-3.1683
-3.10069
-3.0402
-3.03795
-3.1215
-3.17589
-2.95209
-2.966
-2.99298
-3.0316
-3.08084
-3.13705
-3.19494
-3.25069
-3.30171
-3.34633
-3.38401
-3.41483
-3.43903
-3.4569
-3.46865
-3.47448
-3.47447
-3.46865
-3.45688
-3.43902
-3.4148
-3.38398
-3.34629
-3.30167
-3.25065
-3.19489
-3.137
-3.08079
-3.03155
-2.99293
-2.96594
-2.95203
-2.97259
-2.98374
-3.00556
-3.03707
-3.07663
-3.12129
-3.16807
-3.21426
-3.25767
-3.29657
-3.33016
-3.35812
-3.38037
-3.39695
-3.40794
-3.41341
-3.41341
-3.40794
-3.39694
-3.38035
-3.3581
-3.33014
-3.29654
-3.25763
-3.21422
-3.16803
-3.12125
-3.07658
-3.03702
-3.00551
-2.98369
-2.97254
-2.99496
-3.00399
-3.02162
-3.04696
-3.07855
-3.11445
-3.15259
-3.19085
-3.22717
-3.26042
-3.28964
-3.31432
-3.3342
-3.34914
-3.3591
-3.36407
-3.36407
-3.35909
-3.34913
-3.33418
-3.31431
-3.28962
-3.26039
-3.22714
-3.19082
-3.15255
-3.11441
-3.07851
-3.04692
-3.02158
-3.00394
-2.99491
-3.01676
-3.02403
-3.03821
-3.05856
-3.08398
-3.11302
-3.14408
-3.17554
-3.20586
-3.23397
-3.25901
-3.28041
-3.29781
-3.31099
-3.31982
-3.32424
-3.32424
-3.31981
-3.31098
-3.2978
-3.2804
-3.25899
-3.23395
-3.20583
-3.17551
-3.14405
-3.11299
-3.08394
-3.05852
-3.03817
-3.02399
-3.01672
-3.03685
-3.0427
-3.05411
-3.07052
-3.09103
-3.11456
-3.13987
-3.16572
-3.1909
-3.21449
-3.23573
-3.25405
-3.26907
-3.28051
-3.28822
-3.29209
-3.29209
-3.28821
-3.2805
-3.26905
-3.25404
-3.23571
-3.21447
-3.19088
-3.16569
-3.13984
-3.11453
-3.091
-3.07048
-3.05408
-3.04266
-3.03681
-3.05474
-3.05947
-3.06867
-3.08191
-3.09851
-3.11761
-3.13826
-3.15949
-3.18034
-3.20004
-3.21792
-3.23346
-3.24629
-3.25611
-3.26275
-3.2661
-3.2661
-3.26275
-3.2561
-3.24627
-3.23345
-3.2179
-3.20002
-3.18032
-3.15946
-3.13823
-3.11758
-3.09848
-3.08188
-3.06864
-3.05943
-3.05471
-3.07034
-3.07416
-3.0816
-3.09232
-3.10577
-3.1213
-3.13816
-3.15559
-3.17283
-3.18922
-3.2042
-3.2173
-3.22817
-3.23653
-3.2422
-3.24506
-3.24506
-3.2422
-3.23652
-3.22816
-3.21729
-3.20418
-3.1892
-3.17281
-3.15557
-3.13814
-3.12127
-3.10574
-3.09229
-3.08157
-3.07413
-3.07031
-3.08374
-3.08683
-3.09286
-3.10155
-3.11247
-3.12512
-3.13891
-3.15322
-3.16745
-3.18106
-3.19356
-3.20455
-3.2137
-3.22077
-3.22558
-3.22801
-3.22801
-3.22558
-3.22076
-3.21369
-3.20453
-3.19354
-3.18104
-3.16743
-3.1532
-3.13889
-3.1251
-3.11245
-3.10152
-3.09283
-3.0868
-3.08371
-3.09513
-3.09764
-3.10253
-3.10959
-3.11848
-3.1288
-3.14008
-3.15184
-3.16357
-3.17485
-3.18525
-3.19443
-3.20211
-3.20805
-3.21211
-3.21416
-3.21416
-3.2121
-3.20805
-3.2021
-3.19442
-3.18523
-3.17483
-3.16356
-3.15182
-3.14006
-3.12878
-3.11846
-3.10957
-3.10251
-3.09761
-3.0951
-3.10474
-3.10678
-3.11076
-3.1165
-3.12375
-3.13218
-3.14142
-3.15108
-3.16075
-3.17008
-3.17872
-3.18637
-3.19278
-3.19777
-3.20117
-3.20289
-3.20289
-3.20116
-3.19776
-3.19278
-3.18636
-3.17871
-3.17007
-3.16074
-3.15106
-3.1414
-3.13216
-3.12373
-3.11648
-3.11074
-3.10676
-3.10472
-3.11281
-3.11447
-3.11771
-3.12239
-3.12831
-3.1352
-3.14277
-3.15071
-3.15868
-3.16639
-3.17355
-3.17991
-3.18526
-3.18942
-3.19226
-3.19371
-3.19371
-3.19226
-3.18942
-3.18525
-3.1799
-3.17354
-3.16638
-3.15867
-3.15069
-3.14276
-3.13518
-3.12829
-3.12237
-3.11769
-3.11445
-3.11279
-3.11955
-3.1209
-3.12355
-3.12737
-3.13221
-3.13785
-3.14406
-3.15058
-3.15715
-3.16352
-3.16945
-3.17473
-3.17917
-3.18264
-3.18501
-3.18621
-3.18621
-3.18501
-3.18263
-3.17917
-3.17472
-3.16944
-3.16351
-3.15714
-3.15057
-3.14404
-3.13783
-3.13219
-3.12735
-3.12353
-3.12088
-3.11953
-3.12516
-3.12627
-3.12843
-3.13155
-3.13551
-3.14014
-3.14523
-3.15059
-3.15601
-3.16126
-3.16617
-3.17054
-3.17423
-3.17711
-3.17908
-3.18009
-3.18009
-3.17908
-3.17711
-3.17423
-3.17053
-3.16616
-3.16125
-3.156
-3.15058
-3.14522
-3.14012
-3.1355
-3.13154
-3.12841
-3.12625
-3.12515
-3.12983
-3.13073
-3.1325
-3.13506
-3.1383
-3.14209
-3.14628
-3.15069
-3.15514
-3.15948
-3.16353
-3.16715
-3.17021
-3.1726
-3.17424
-3.17507
-3.17507
-3.17424
-3.1726
-3.17021
-3.16715
-3.16353
-3.15947
-3.15513
-3.15067
-3.14626
-3.14208
-3.13829
-3.13505
-3.13249
-3.13072
-3.12981
-3.1337
-3.13444
-3.13589
-3.13798
-3.14064
-3.14375
-3.14719
-3.15082
-3.15449
-3.15807
-3.16141
-3.16441
-3.16694
-3.16892
-3.17028
-3.17097
-3.17097
-3.17028
-3.16892
-3.16693
-3.1644
-3.16141
-3.15806
-3.15448
-3.15081
-3.14718
-3.14374
-3.14063
-3.13797
-3.13588
-3.13443
-3.13369
-3.13691
-3.13751
-3.1387
-3.14042
-3.1426
-3.14515
-3.14798
-3.15096
-3.15398
-3.15693
-3.1597
-3.16217
-3.16427
-3.1659
-3.16703
-3.1676
-3.1676
-3.16703
-3.1659
-3.16426
-3.16217
-3.15969
-3.15693
-3.15398
-3.15095
-3.14797
-3.14514
-3.14259
-3.14041
-3.13869
-3.1375
-3.1369
-3.13956
-3.14006
-3.14103
-3.14244
-3.14423
-3.14633
-3.14865
-3.1511
-3.15359
-3.15603
-3.15831
-3.16035
-3.16208
-3.16344
-3.16437
-3.16484
-3.16484
-3.16437
-3.16343
-3.16208
-3.16034
-3.1583
-3.15602
-3.15359
-3.1511
-3.14864
-3.14632
-3.14422
-3.14243
-3.14102
-3.14005
-3.13955
-3.14175
-3.14216
-3.14296
-3.14412
-3.14559
-3.14731
-3.14922
-3.15124
-3.15329
-3.15529
-3.15717
-3.15886
-3.16029
-3.16141
-3.16218
-3.16257
-3.16257
-3.16218
-3.16141
-3.16029
-3.15886
-3.15717
-3.15529
-3.15328
-3.15123
-3.14921
-3.1473
-3.14558
-3.14411
-3.14295
-3.14215
-3.14174
-3.14356
-3.1439
-3.14455
-3.1455
-3.14671