/*--------------------------------*- C++ -*----------------------------------*\
  =========                 |
  \\      /  F ield         | OpenFOAM: The Open Source CFD Toolbox
   \\    /   O peration     | Website:  https://openfoam.org
    \\  /    A nd           | Version:  9
     \\/     M anipulation  |
\*---------------------------------------------------------------------------*/
FoamFile
{
    format      ascii;
    class       surfaceScalarField;
    location    "0.95";
    object      phi;
}
// * * * * * * * * * * * * * * * * * * * * * * * * * * * * * * * * * * * * * //

dimensions      [0 3 -1 0 0 0 0];

internalField   nonuniform List<scalar> 
8032
(
-5.586e-05
5.58597e-05
-0.000109831
5.3987e-05
-0.000159794
4.99635e-05
-0.000203775
4.39803e-05
-0.000240053
3.62783e-05
-0.000267206
2.71524e-05
-0.000284149
1.69433e-05
-0.000290181
6.03132e-06
-0.000285064
-5.11658e-06
-0.000268936
-1.61288e-05
-0.000242364
-2.65716e-05
-0.00020635
-3.60144e-05
-0.000162273
-4.40763e-05
-0.000111843
-5.04303e-05
-5.70262e-05
-5.48166e-05
2.90614e-08
-5.70553e-05
5.70841e-05
-5.7055e-05
0.0001119
-5.48157e-05
0.000162329
-5.04288e-05
0.000206403
-4.40743e-05
0.000242415
-3.60119e-05
0.000268984
-2.65686e-05
0.000285109
-1.61253e-05
0.000290222
-5.11277e-06
0.000284187
6.03547e-06
0.000267239
1.69478e-05
0.000240082
2.7157e-05
0.000203799
3.62829e-05
0.000159815
4.39846e-05
0.000109848
4.99667e-05
5.58622e-05
5.3986e-05
5.58622e-05
-5.81991e-05
0.000114059
-0.000114452
0.00011024
-0.000166529
0.00010204
-0.00021238
8.9831e-05
-0.000250216
7.4114e-05
-0.000278552
5.54884e-05
-0.000296259
3.46505e-05
-0.000302606
1.23782e-05
-0.000297289
-1.04336e-05
-0.000280491
-3.29269e-05
-0.000252805
-5.42576e-05
-0.000215261
-7.35579e-05
-0.000169296
-9.00415e-05
-0.000116691
-0.000103035
-5.9501e-05
-0.000112007
2.92672e-08
-0.000116585
5.95592e-05
-0.000116585
0.000116748
-0.000112005
0.000169352
-0.000103032
0.000215315
-9.00374e-05
0.000252856
-7.35528e-05
0.000280539
-5.42515e-05
0.000297334
-3.29199e-05
0.000302647
-1.04259e-05
0.000296296
1.23866e-05
0.000278584
3.46594e-05
0.000250244
5.54977e-05
0.000212403
7.41235e-05
0.000166548
8.98404e-05
0.000114466
0.000102048
5.82043e-05
0.000110248
0.000114067
-6.25651e-05
0.000176624
-0.000123047
0.000170722
-0.000179052
0.000158044
-0.000228386
0.000139165
-0.000269125
0.000114853
-0.00029967
8.60333e-05
-0.000318799
5.37791e-05
-0.000325717
1.92958e-05
-0.000320079
-1.60716e-05
-0.000302055
-5.09509e-05
-0.000272292
-8.40201e-05
-0.000231896
-0.000113954
-0.000182406
-0.000139531
-0.000125742
-0.0001597
-6.41213e-05
-0.000173627
2.9775e-08
-0.000180737
6.41806e-05
-0.000180736
0.0001258
-0.000173624
0.000182463
-0.000159695
0.00023195
-0.000139525
0.000272344
-0.000113946
0.000302104
-8.40109e-05
0.000320124
-5.09403e-05
0.000325758
-1.60599e-05
0.000318836
1.93085e-05
0.000299703
5.37926e-05
0.000269153
8.60475e-05
0.000228409
0.000114868
0.00017907
0.00013918
0.000123059
0.000158059
6.2571e-05
0.000170736
0.000176638
-6.91781e-05
0.000245802
-0.000136066
0.00023761
-0.00019803
0.000220009
-0.000252654
0.000193789
-0.000297812
0.000160011
-0.000331726
0.000119948
-0.000353032
7.50849e-05
-0.000360831
2.7095e-05
-0.000354726
-2.2177e-05
-0.00033487
-7.08068e-05
-0.000301967
-0.000116923
-0.000257237
-0.000158684
-0.000202384
-0.000194384
-0.000139537
-0.000222546
-7.11642e-05
-0.000242
3.05876e-08
-0.000251931
7.12251e-05
-0.00025193
0.000139597
-0.000241996
0.000202442
-0.00022254
0.000257293
-0.000194376
0.00030202
-0.000158674
0.00033492
-0.000116911
0.000354773
-7.07925e-05
0.000360874
-2.21611e-05
0.00035307
2.71122e-05
0.00033176
7.51033e-05
0.00029784
0.000119967
0.000252677
0.000160031
0.000198048
0.00019381
0.000136078
0.000220029
6.91841e-05
0.00023763
0.000245822
-7.82988e-05
0.000324101
-0.000154026
0.000313337
-0.000224223
0.000290205
-0.000286165
0.000255732
-0.000337447
0.000211293
-0.000376047
0.000158548
-0.000400397
9.94351e-05
-0.000409451
3.61484e-05
-0.000402728
-2.88996e-05
-0.000380367
-9.31681e-05
-0.000343137
-0.000154152
-0.000292413
-0.000209409
-0.000230125
-0.000256672
-0.000158697
-0.000293974
-8.0948e-05
-0.000319749
3.17235e-08
-0.000332911
8.10111e-05
-0.000332909
0.00015876
-0.000319744
0.000230185
-0.000293966
0.000292471
-0.000256661
0.000343193
-0.000209396
0.000380418
-0.000154136
0.000402776
-9.31499e-05
0.000409494
-2.88794e-05
0.000400436
3.61703e-05
0.000376081
9.94585e-05
0.000337476
0.000158573
0.000286188
0.000211319
0.00022424
0.000255757
0.000154038
0.000290231
7.83049e-05
0.000313363
0.000324127
-9.02559e-05
0.000414357
-0.000177579
0.000400661
-0.000258586
0.000371213
-0.000330158
0.000327303
-0.000389521
0.000270657
-0.000434328
0.000203355
-0.000462739
0.000127845
-0.000473502
4.69118e-05
-0.00046602
-3.63816e-05
-0.000440403
-0.000118785
-0.000397505
-0.00019705
-0.000338893
-0.000268021
-0.000266798
-0.000328767
-0.000184036
-0.000376736
-9.38885e-05
-0.000409896
3.32089e-08
-0.000426832
9.39545e-05
-0.00042683
0.000184101
-0.00040989
0.000266861
-0.000376727
0.000338954
-0.000328753
0.000397563
-0.000268005
0.000440457
-0.00019703
0.00046607
-0.000118763
0.000473547
-3.63568e-05
0.000462779
4.69387e-05
0.000434363
0.000127874
0.000389551
0.000203385
0.000330182
0.000270688
0.000258604
0.000327335
0.000177591
0.000371245
9.02621e-05
0.000400692
0.000414389
-0.00010546
0.000519817
-0.000207538
0.000502738
-0.000302324
0.000465999
-0.000386197
0.000411176
-0.00045592
0.00034038
-0.000508724
0.00025616
-0.000542411
0.000161532
-0.000555456
5.99572e-05
-0.000547092
-4.4745e-05
-0.000517382
-0.000148495
-0.000467277
-0.000247154
-0.000398586
-0.000336712
-0.000313923
-0.00041343
-0.000216607
-0.000474052
-0.000110527
-0.000515976
3.50721e-08
-0.000537394
0.000110597
-0.000537392
0.000216676
-0.000515969
0.000313989
-0.00047404
0.00039865
-0.000413414
0.000467338
-0.000336692
0.000517438
-0.000247131
0.000547144
-0.000148468
0.000555503
-4.47152e-05
0.000542452
5.99894e-05
0.000508761
0.000161566
0.000455951
0.000256195
0.000386222
0.000340417
0.000302342
0.000411214
0.00020755
0.000466037
0.000105466
0.000502777
0.000519855
-0.000124416
0.000644233
-0.000244907
0.000623229
-0.000356921
0.000578013
-0.000456223
0.000510479
-0.000538997
0.000423154
-0.000601938
0.000319101
-0.000642381
0.000201975
-0.000658444
7.60201e-05
-0.000649115
-5.40733e-05
-0.000614374
-0.000183237
-0.000555281
-0.000306247
-0.000473942
-0.000418051
-0.000373451
-0.000513921
-0.000257771
-0.000589732
-0.00013156
-0.000642187
3.73459e-08
-0.000668992
0.000131635
-0.000668989
0.000257844
-0.000642178
0.000373522
-0.000589718
0.00047401
-0.000513902
0.000555345
-0.000418027
0.000614433
-0.000306219
0.00064917
-0.000183205
0.000658493
-5.40383e-05
0.000642425
7.60579e-05
0.000601975
0.000202015
0.000539028
0.000319143
0.000456249
0.000423197
0.00035694
0.000510523
0.000244919
0.000578057
0.000124422
0.000623274
0.000644278
-0.000147731
0.000791965
-0.000290896
0.000766395
-0.000424179
0.000711296
-0.000542604
0.000628904
-0.000641639
0.00052219
-0.000717309
0.00039477
-0.000766347
0.000251014
-0.000786387
9.60603e-05
-0.00077608
-6.43802e-05
-0.000735261
-0.000224056
-0.000665105
-0.000376402
-0.000568078
-0.000515078
-0.000447871
-0.000634127
-0.000309259
-0.000728344
-0.000157876
-0.000793569
4.00706e-08
-0.000826908
0.000157956
-0.000826905
0.000309337
-0.000793559
0.000447947
-0.000728328
0.00056815
-0.000634105
0.000665174
-0.00051505
0.000735324
-0.00037637
0.000776138
-0.000224019
0.000786439
-6.43393e-05
0.000766393
9.61042e-05
0.000717348
0.00025106
0.000641672
0.000394819
0.00054263
0.000522239
0.000424199
0.000628954
0.000290909
0.000711347
0.000147738
0.000766446
0.000792016
-0.000176125
0.00096809
-0.000346944
0.000937215
-0.00050625
0.000870601
-0.000648184
0.000770838
-0.000767348
0.000641354
-0.000858923
0.000486345
-0.000918868
0.000310959
-0.000944159
0.000121352
-0.00093298
-7.5559e-05
-0.000884925
-0.000272111
-0.000801278
-0.000460049
-0.000684933
-0.000631423
-0.00054033
-0.00077873
-0.000373262
-0.000895412
-0.0001906
-0.000976231
4.32977e-08
-0.00101755
0.000190686
-0.00101755
0.000373346
-0.000976219
0.000540411
-0.000895393
0.000685011
-0.000778704
0.000801351
-0.00063139
0.000884993
-0.000460011
0.000933042
-0.000272068
0.000944214
-7.55116e-05
0.000918916
0.000121403
0.000858964
0.000311012
0.000767382
0.000486401
0.000648211
0.00064141
0.00050627
0.000770896
0.000346958
0.000870659
0.000176131
0.000937272
0.000968147
-0.00021043
0.00117852
-0.000414725
0.00114151
-0.000605653
0.00106153
-0.000776331
0.000941516
-0.00092031
0.000785333
-0.00103172
0.000597757
-0.00110551
0.000384752
-0.00113778
0.000153616
-0.00112603
-8.73036e-05
-0.00106948
-0.000328664
-0.000969491
-0.000560038
-0.000829471
-0.000771442
-0.000654795
-0.000953407
-0.000452544
-0.00109766
-0.000231147
-0.00119763
4.70929e-08
-0.00124874
0.000231241
-0.00124874
0.000452635
-0.00119761
0.000654883
-0.00109764
0.000829555
-0.000953376
0.000969569
-0.000771404
0.00106955
-0.000559994
0.0011261
-0.000328614
0.00113784
-8.7249e-05
0.00110556
0.000153674
0.00103176
0.000384813
0.000920346
0.00059782
0.000776359
0.000785397
0.000605674
0.000941581
0.000414739
0.00106159
0.000210437
0.00114157
0.00117858
-0.000251588
0.00143011
-0.000496142
0.00138606
-0.000725288
0.00129068
-0.000930964
0.00114719
-0.00110547
0.000959843
-0.00124163
0.000733914
-0.00133306
0.000476183
-0.00137465
0.000195203
-0.00136297
-9.89848e-05
-0.00129658
-0.000395053
-0.0011769
-0.00067972
-0.00100794
-0.000940397
-0.000796262
-0.00116509
-0.000550581
-0.00134334
-0.0002813
-0.00146691
5.15382e-08
-0.0015301
0.000281402
-0.00153009
0.000550681
-0.00146689
0.000796358
-0.00134332
0.00100803
-0.00116505
0.00117698
-0.000940353
0.00129666
-0.000679669
0.00136304
-0.000394995
0.00137471
-9.89218e-05
0.00133312
0.00019527
0.00124168
0.000476252
0.00110551
0.000733985
0.000930993
0.000959915
0.00072531
0.00114726
0.000496156
0.00129075
0.000251595
0.00138614
0.00143018
-0.000300632
0.00173074
-0.000593303
0.00167873
-0.000868409
0.00156578
-0.00111657
0.00139535
-0.00132861
0.00117188
-0.0014957
0.000900999
-0.00160971
0.000590201
-0.00166388
0.00024937
-0.00165341
-0.000109456
-0.00157583
-0.000472635
-0.00143251
-0.000823039
-0.00122822
-0.00114468
-0.000971021
-0.00142228
-0.000671744
-0.00164262
-0.000343297
-0.00179535
5.6732e-08
-0.00187345
0.00034341
-0.00187344
0.000671854
-0.00179534
0.000971126
-0.00164259
0.00122832
-0.00142224
0.0014326
-0.00114463
0.00157591
-0.00082298
0.00165348
-0.000472568
0.00166395
-0.000109383
0.00160977
0.000249446
0.00149574
0.000590279
0.00132865
0.000901079
0.0011166
0.00117196
0.000868431
0.00139543
0.000593317
0.00156586
0.000300639
0.00167881
0.00173082
-0.000358648
0.00208939
-0.000708456
0.00202854
-0.00103856
0.00189589
-0.00133815
0.00169495
-0.00159633
0.00143006
-0.0018022
0.00110687
-0.00194535
0.000733348
-0.00201666
0.000320678
-0.00200936
-0.000116747
-0.00191932
-0.000562683
-0.0017477
-0.000994653
-0.00150026
-0.00139213
-0.00118703
-0.00173551
-0.000821586
-0.00200807
-0.000419989
-0.00219695
6.281e-08
-0.0022935
0.000420114
-0.00229349
0.000821707
-0.00219693
0.00118715
-0.00200803
0.00150037
-0.00173546
0.0017478
-0.00139207
0.00191941
-0.000994584
0.00200944
-0.000562605
0.00201673
-0.000116664
0.00194541
0.000320765
0.00180225
0.000733436
0.00159637
0.00110696
0.00133818
0.00143015
0.00103858
0.00169503
0.00070847
0.00189598
0.000358655
0.00202863
0.00208947
-0.000426708
0.0025161
-0.000843868
0.0024457
-0.00123943
0.00229145
-0.00160112
0.00205663
-0.00191605
0.001745
-0.00217078
0.0013616
-0.00235181
0.000914381
-0.00244674
0.0004156
-0.00244589
-0.000117593
-0.00234235
-0.000666218
-0.00213695
-0.00120005
-0.00183684
-0.00169224
-0.00145465
-0.0021177
-0.00100736
-0.00245536
-0.000515097
-0.00268921
6.99794e-08
-0.00280867
0.000515236
-0.00280866
0.00100749
-0.00268918
0.00145478
-0.00245532
0.00183696
-0.00211764
0.00213706
-0.00169217
0.00234245
-0.00119997
0.00244598
-0.000666128
0.00244681
-0.000117496
0.00235187
0.000415698
0.00217083
0.000914481
0.00191609
0.0013617
0.00160114
0.00174509
0.00123945
0.00205673
0.000843882
0.00229155
0.000426715
0.0024458
0.00251619
-0.000505759
0.00302186
-0.00100162
0.00294156
-0.00147459
0.00276442
-0.001911
0.00249305
-0.00229583
0.00212982
-0.00261245
0.00167822
-0.00284323
0.00114517
-0.00297103
0.000543397
-0.00298191
-0.000106714
-0.00286451
-0.000783612
-0.00261913
-0.00144544
-0.00225481
-0.00205656
-0.00178718
-0.00258533
-0.00123799
-0.00300455
-0.000633027
-0.00329417
7.84937e-08
-0.00344177
0.000633182
-0.00344176
0.00123814
-0.00329414
0.00178732
-0.0030045
0.00225494
-0.00258527
0.00261925
-0.00205648
0.00286462
-0.00144534
0.002982
-0.000783507
0.00297111
-0.000106601
0.00284329
0.00054351
0.00261249
0.00114528
0.00229587
0.00167833
0.00191103
0.00212993
0.00147461
0.00249315
0.00100163
0.00276452
0.000505765
0.00294166
0.00302195
-0.000596439
0.00361829
-0.00118326
0.00352838
-0.00174703
0.0033282
-0.00227304
0.00301906
-0.00274401
0.00260078
-0.00313946
0.00207367
-0.00343621
0.00144192
-0.00361015
0.00071733
-0.00364093
-7.59276e-05
-0.00351033
-0.00091421
-0.00321605
-0.00173972
-0.00276955
-0.00250306
-0.00219261
-0.00316228
-0.00151623
-0.00368093
-0.000774174
-0.00403623
8.80457e-08
-0.00421604
0.000774348
-0.00421602
0.0015164
-0.00403619
0.00219277
-0.00368087
0.0027697
-0.0031622
0.00321618
-0.00250296
0.00351045
-0.00173961
0.00364103
-0.000914086
0.00361023
-7.57943e-05
0.00343628
0.00071746
0.00313951
0.00144205
0.00274404
0.00207379
0.00227307
0.0026009
0.00174705
0.00301917
0.00118327
0.00332831
0.000596444
0.00352848
0.0036184
-0.000698822
0.00431712
-0.0013893
0.00421886
-0.00205849
0.00399739
-0.00269134
0.0036519
-0.00326846
0.00317791
-0.00376476
0.00256997
-0.00414924
0.00182641
-0.00438625
0.000954342
-0.00444629
-1.58891e-05
-0.00429359
-0.00106691
-0.00391843
-0.00211488
-0.00334643
-0.00307506
-0.00262155
-0.00388715
-0.00179417
-0.00450831
-0.000909018
-0.00492137
9.50007e-08
-0.00512515
0.000909207
-0.00512514
0.00179435
-0.00492134
0.00262173
-0.00450825
0.00334659
-0.00388707
0.00391859
-0.00307495
0.00429372
-0.00211474
0.0044464
-0.00106677
0.00438633
-1.57225e-05
0.0041493
0.000954489
0.0037648
0.00182655
0.00326849
0.0025701
0.00269136
0.00317804
0.00205851
0.00365202
0.00138931
0.0039975
0.000698826
0.00421897
0.00431722
-0.000812047
0.00512916
-0.0016185
0.00502531
-0.00240835
0.00478725
-0.00316756
0.00441111
-0.0038753
0.00388566
-0.00450033
0.00319499
-0.00499779
0.00232387
-0.00531008
0.00126663
-0.00536911
4.31365e-05
-0.00511546
-0.00132056
-0.00453891
-0.00269143
-0.00374423
-0.00386975
-0.00282511
-0.00480627
-0.00187077
-0.00546265
-0.000926888
-0.00586526
8.90853e-08
-0.00605213
0.000927068
-0.00605211
0.00187095
-0.00586522
0.0028253
-0.00546259
0.00374441
-0.00480618
0.00453908
-0.00386962
0.00511561
-0.00269128
0.00536922
-0.00132037
0.00531017
4.33268e-05
0.00499785
0.00126681
0.00450036
0.00232404
0.00387533
0.00319514
0.00316757
0.00388579
0.00240836
0.00441123
0.0016185
0.00478736
0.000812049
0.00502542
0.00512927
-0.000933839
0.006063
-0.00186685
0.00595832
-0.00279217
0.00571257
-0.00369904
0.00531798
-0.0045657
0.00475232
-0.00534717
0.00397646
-0.00596237
0.00293908
-0.00629099
0.00159525
-0.00619606
-5.17992e-05
-0.00558368
-0.00193293
-0.00457564
-0.00369947
-0.00345367
-0.00499172
-0.00240954
-0.0058504
-0.00151179
-0.0063604
-0.000726853
-0.00665019
6.57727e-08
-0.00677904
0.000726988
-0.00677904
0.00151194
-0.00665017
0.00240971
-0.00636036
0.00345386
-0.00585033
0.00457584
-0.0049916
0.00558386
-0.0036993
0.0061962
-0.00193271
0.00629108
-5.15479e-05
0.00596242
0.00159546
0.00534719
0.00293927
0.00456571
0.00397662
0.00369904
0.00475246
0.00279217
0.00531811
0.00186684
0.00571268
0.000933838
0.00595843
0.00606311
-0.00105995
0.00712295
-0.00212637
0.00702474
-0.00319978
0.00678597
-0.00427606
0.00639427
-0.00532911
0.00580536
-0.00627467
0.00492201
-0.00693783
0.00360224
-0.00705306
0.00171048
-0.00631648
-0.000788375
-0.00497892
-0.0032705
-0.00364847
-0.00502992
-0.00260785
-0.00603234
-0.00181767
-0.00664059
-0.00116179
-0.00701628
-0.000566362
-0.00724562
4.95755e-08
-0.00734546
0.000566464
-0.00734545
0.0011619
-0.0072456
0.00181779
-0.00701625
0.00260799
-0.00664054
0.00364865
-0.00603225
0.00497912
-0.00502978
0.00631667
-0.00327026
0.00705319
-0.000788059
0.00693789
0.00171075
0.00627468
0.00360247
0.00532911
0.0049222
0.00427605
0.00580552
0.00319976
0.00639439
0.00212636
0.00678609
0.00105994
0.00702485
0.00712305
-0.00118359
0.00830654
-0.00238396
0.00822511
-0.00361346
0.00801547
-0.0048769
0.00765771
-0.00612235
0.00705082
-0.00715789
0.00595755
-0.00758082
0.00402517
-0.0068271
0.00095676
-0.00525529
-0.00236018
-0.00384816
-0.00467764
-0.00291622
-0.00596186
-0.00221103
-0.00673752
-0.00161765
-0.00723397
-0.00107205
-0.00756188
-0.000534231
-0.00778343
4.25267e-08
-0.00787973
0.000534319
-0.00787973
0.00107214
-0.00778342
0.00161774
-0.00756186
0.00221114
-0.00723394
0.00291635
-0.00673746
0.00384832
-0.00596175
0.00525551
-0.00467746
0.00682731
-0.00235986
0.00758091
0.000957151
0.00715791
0.00402548
0.00612233
0.00595777
0.00487687
0.00705098
0.00361344
0.00765783
0.00238394
0.00801558
0.00118358
0.0082252
0.00830664
-0.00129508
0.00960162
-0.00262034
0.00955037
-0.00400435
0.00939949
-0.00545099
0.00910434
-0.00681239
0.00841223
-0.00767567
0.00682083
-0.0072047
0.00355419
-0.00557536
-0.000672582
-0.00417769
-0.00375785
-0.00341414
-0.00544119
-0.00286308
-0.00651291
-0.00231894
-0.00728167
-0.00175706
-0.00779584
-0.00118491
-0.00813403
-0.000595994
-0.00837235
4.31304e-08
-0.00847577
0.000596083
-0.00847577
0.001185
-0.00837234
0.00175716
-0.00813401
0.00231904
-0.00779582
0.00286319
-0.00728161
0.00341425
-0.00651281
0.00417783
-0.00544104
0.00557557
-0.0037576
0.0072049
-0.000672177
0.00767571
0.00355467
0.00681236
0.00682112
0.00545093
0.0084124
0.00400431
0.00910446
0.00262031
0.00939958
0.00129507
0.00955045
0.0096017
-0.00138216
0.0109838
-0.00281056
0.0109788
-0.00432737
0.0109163
-0.00588899
0.010666
-0.00715419
0.00967743
-0.00737889
0.00704553
-0.00595077
0.00212607
-0.00454184
-0.00208151
-0.00398631
-0.00431339
-0.00372815
-0.00569935
-0.00328851
-0.00695255
-0.00268707
-0.00788311
-0.00202671
-0.0084562
-0.00135778
-0.00880296
-0.000680331
-0.0090498
4.42314e-08
-0.00915614
0.000680423
-0.00915615
0.00135788
-0.0090498
0.00202682
-0.00880295
0.00268719
-0.00845619
0.00328863
-0.00788305
0.00372825
-0.00695242
0.00398639
-0.00569917
0.00454197
-0.00431318
0.00595095
-0.00208116
0.00737901
0.00212662
0.00715416
0.00704596
0.00588893
0.00967764
0.00432731
0.0106661
0.00281052
0.0109164
0.00138214
0.0109788
0.0109838
-0.00143028
0.0124141
-0.00292186
0.0124703
-0.00451237
0.0125068
-0.00604174
0.0121953
-0.00705072
0.0106864
-0.00627728
0.00627209
-0.00479403
0.000642823
-0.00425544
-0.00262009
-0.00436346
-0.00420537
-0.00433092
-0.00573189
-0.00383653
-0.00744694
-0.00309414
-0.00862549
-0.00229752
-0.00925282
-0.00151981
-0.00958068
-0.00075624
-0.00981337
4.24679e-08
-0.00991243
0.000756328
-0.00991243
0.00151991
-0.00981338
0.00229763
-0.00958068
0.00309428
-0.00925283
0.00383666
-0.00862544
0.00433101
-0.00744677
0.00436348
-0.00573164
0.00425547
-0.00420517
0.00479414
-0.00261983
0.00627744
0.000643318
0.00705071
0.00627269
0.00604167
0.0106867
0.00451229
0.0121954
0.00292181
0.0125069
0.00143025
0.0124704
0.0124141
-0.0014246
0.0138387
-0.00291454
0.0139603
-0.00445612
0.0140484
-0.00576627
0.0135055
-0.00626175
0.0111819
-0.00495253
0.00496287
-0.00415639
-0.000153319
-0.00425003
-0.00252646
-0.00466568
-0.00378972
-0.00472303
-0.00567453
-0.00424273
-0.00792724
-0.00341715
-0.00945108
-0.00250865
-0.0101613
-0.00163928
-0.01045
-0.000809801
-0.0106429
3.64895e-08
-0.0107223
0.000809876
-0.0107223
0.00163937
-0.0106429
0.00250876
-0.0104501
0.00341728
-0.0101614
0.00424286
-0.00945102
0.00472309
-0.00792701
0.00466564
-0.00567419
0.00424997
-0.0037895
0.00415641
-0.00252627
0.00495265
-0.000152917
0.00626179
0.00496354
0.0057662
0.0111823
0.00445604
0.0135056
0.00291448
0.0140484
0.00142458
0.0139603
0.0138387
-0.00135779
0.0151965
-0.00276634
0.0153688
-0.00413833
0.0154204
-0.00516662
0.0145338
-0.00503477
0.01105
-0.00396806
0.00389617
-0.00363354
-0.000487843
-0.00400252
-0.00215748
-0.0045163
-0.00327594
-0.00472081
-0.00547002
-0.00435944
-0.00828862
-0.00354607
-0.0102645
-0.00260013
-0.0111073
-0.00168517
-0.011365
-0.000827363
-0.0115007
2.44437e-08
-0.0115497
0.000827413
-0.0115497
0.00168523
-0.0115007
0.00260021
-0.011365
0.00354616
-0.0111073
0.00435951
-0.0102644
0.00472081
-0.00828831
0.0045162
-0.00546957
0.0040024
-0.0032757
0.00363347
-0.00215734
0.0039681
-0.000487541
0.00503487
0.00389677
0.00516654
0.0110506
0.00413825
0.0145339
0.00276629
0.0154204
0.00135776
0.0153688
0.0151964
-0.00123213
0.0164286
-0.00247894
0.0166157
-0.00360309
0.0165445
-0.00432393
0.0152546
-0.00373205
0.0104582
-0.00308076
0.00324488
-0.00292781
-0.000640793
-0.00323309
-0.0018522
-0.00379237
-0.00271666
-0.00427242
-0.00498997
-0.00407257
-0.00848847
-0.00336279
-0.0109742
-0.00249022
-0.0119798
-0.00161834
-0.0122369
-0.000793389
-0.0123256
6.36536e-09
-0.012343
0.000793401
-0.0123431
0.00161836
-0.0123256
0.00249024
-0.0122369
0.00336281
-0.0119799
0.00407256
-0.0109741
0.00427232
-0.00848807
0.00379217
-0.00498942
0.00323291
-0.00271644
0.0029277
-0.00185213
0.00308075
-0.000640596
0.00373213
0.00324539
0.00432389
0.0104588
0.00360303
0.0152548
0.0024789
0.0165445
0.0012321
0.0166156
0.0164285
-0.00106214
0.0174907
-0.00209049
0.017644
-0.00293162
0.0173856
-0.00329494
0.0156179
-0.00260016
0.00976337
-0.00212679
0.00277151
-0.00189989
-0.000867687
-0.00194889
-0.00180321
-0.00237556
-0.00228998
-0.00301213
-0.00435341
-0.00319457
-0.00830603
-0.00279993
-0.0113689
-0.00214255
-0.0126372
-0.00142532
-0.0129541
-0.000704183
-0.0130467
-1.53068e-08
-0.0130472
0.000704151
-0.0130472
0.00142529
-0.0130468
0.0021425
-0.0129541
0.00279984
-0.0126372
0.0031944
-0.0113687
0.00301182
-0.00830548
0.00237527
-0.00435288
0.0019487
-0.00228988
0.00189979
-0.00180321
0.00212677
-0.000867575
0.00260019
0.00277196
0.00329495
0.00976409
0.00293159
0.0156181
0.00209046
0.0173856
0.00106213
0.0176439
0.0174907
-0.000873352
0.0183641
-0.00166505
0.0184357
-0.00222237
0.017943
-0.00226421
0.0156598
-0.00164097
0.00914013
-0.00116977
0.00230031
-0.000781882
-0.00125558
-0.000655654
-0.00192944
-0.000806647
-0.00213899
-0.00123936
-0.0039207
-0.00188282
-0.00766257
-0.00200976
-0.0112419
-0.00164942
-0.0129975
-0.0011472
-0.0134563
-0.000577483
-0.0136165
-3.62801e-08
-0.0136247
0.000577408
-0.0136247
0.00114712
-0.0136165
0.00164931
-0.0134563
0.00200959
-0.0129975
0.00188256
-0.0112417
0.00123908
-0.00766201
0.000806479
-0.00392027
0.000655555
-0.00213895
0.000781819
-0.00192948
0.00116975
-0.00125551
0.00164098
0.00230073
0.00226427
0.0091408
0.00222239
0.01566
0.00166506
0.017943
0.000873358
0.0184357
0.018364
-0.00070189
0.019066
-0.00128294
0.0190168
-0.00158709
0.0182471
-0.00138869
0.0154614
-0.00086877
0.00862021
-0.000324786
0.00175633
8.04878e-05
-0.00166085
6.88868e-05
-0.00191784
-3.28447e-05
-0.00203725
-0.000327414
-0.00362613
-0.000876161
-0.00711382
-0.00127692
-0.0108412
-0.00114775
-0.0131267
-0.000843389
-0.0137607
-0.000436472
-0.0140234
-5.42972e-08
-0.0140611
0.00043636
-0.0140611
0.000843274
-0.0140234
0.00114762
-0.0137607
0.00127675
-0.0131266
0.000875909
-0.0108408
0.00032727
-0.00711337
3.27917e-05
-0.00362579
-6.89264e-05
-0.00203723
-8.05232e-05
-0.00191788
0.000324787
-0.00166082
0.000868798
0.00175672
0.0013888
0.00862081
0.00158717
0.0154616
0.00128299
0.0182471
0.000701916
0.0190167
0.0190659
-0.00058584
0.0196518
-0.00102223
0.0194531
-0.00115796
0.0183828
-0.000820319
0.0151237
-0.000340305
0.00814019
0.000311266
0.00110476
0.00050227
-0.00185185
0.000275093
-0.00169066
7.80669e-05
-0.00184023
-9.36415e-06
-0.0035387
-0.000272098
-0.00685109
-0.000667667
-0.0104456
-0.00068259
-0.0131118
-0.000548689
-0.0138946
-0.000296006
-0.0142761
-7.05154e-08
-0.014357
0.00029586
-0.014357
0.000548552
-0.0142761
0.000682452
-0.0138946
0.000667518
-0.0131117
0.000271948
-0.0104452
9.31385e-06
-0.00685073
-7.80412e-05
-0.00353844
-0.000275092
-0.00184018
-0.000502287
-0.00169068
-0.000311249
-0.00185186
0.000340369
0.0011051
0.000820488
0.00814069
0.0011581
0.015124
0.00102233
0.0183829
0.000585887
0.0194532
0.0196518
-0.000549307
0.0202011
-0.000934211
0.019838
-0.000956927
0.0184056
-0.000453027
0.0146198
0.000188544
0.00749862
0.000804447
0.000488856
0.000620175
-0.00166758
0.000156253
-0.00122674
-5.38918e-05
-0.00163008
9.90155e-05
-0.0036916
8.07591e-05
-0.00683283
-0.0001792
-0.0101856
-0.000279803
-0.0130112
-0.000284347
-0.0138901
-0.000168571
-0.0143918
-8.46075e-08
-0.0145255
0.000168391
-0.0145255
0.000284192
-0.0143919
0.000279655
-0.0138901
0.00017907
-0.0130111
-8.08407e-05
-0.0101853
-9.89925e-05
-0.00683258
5.39902e-05
-0.00369142
-0.00015618
-0.00163001
-0.000620134
-0.00122673
-0.000804371
-0.00166762
-0.000188392
0.000489125
0.000453273
0.00749902
0.000957135
0.0146201
0.000934349
0.0184057
0.000549371
0.0198381
0.0202012
-0.000593517
0.0207946
-0.00100677
0.0202513
-0.000987172
0.018386
-0.00029127
0.0139239
0.000691065
0.00651629
0.00114459
3.53293e-05
0.000428866
-0.000951856
-0.000241888
-0.000555986
-0.000327026
-0.00154495
2.37206e-05
-0.00404235
0.000267154
-0.00707627
0.000164103
-0.0100826
2.51669e-05
-0.0128722
-7.4134e-05
-0.0137908
-6.72794e-05
-0.0143987
-9.03718e-08
-0.0145927
6.70766e-05
-0.0145927
7.39754e-05
-0.0143988
-2.52989e-05
-0.0137908
-0.0001642
-0.0128722
-0.000267166
-0.0100824
-2.36281e-05
-0.00707612
0.000327175
-0.00404222
0.000242028
-0.00154487
-0.000428764
-0.000555938
-0.00114449
-0.000951898
-0.000690864
3.55038e-05
0.000291568
0.00651659
0.000987424
0.0139243
0.00100693
0.0183862
0.000593591
0.0202515
0.0207948
-0.000733722
0.0215283
-0.00129189
0.0208095
-0.0014135
0.0185076
-0.000526832
0.0130373
0.000663404
0.00532605
0.000882999
-0.000184265
-0.000131162
6.23052e-05
-0.000854955
0.000167806
-0.000745492
-0.00165441
-0.000216278
-0.00457156
0.000244833
-0.00753738
0.000331475
-0.0101692
0.000164436
-0.0127052
5.54224e-05
-0.0136817
1.81938e-06
-0.0143451
-6.08895e-08
-0.0145908
-1.94335e-06
-0.0145908
-5.55431e-05
-0.0143452
-0.000164557
-0.0136818
-0.000331546
-0.0127052
-0.000244773
-0.0101691
0.000216423
-0.00753731
0.000745689
-0.00457149
0.000855163
-0.00165434
0.000131389
0.000167836
-0.000882813
6.23032e-05
-0.000663138
-0.000184171
0.00052717
0.00532628
0.00141377
0.0130377
0.00129206
0.0185079
0.000733796
0.0208097
0.0215286
-0.000967921
0.0224963
-0.00179625
0.0216378
-0.00219561
0.0189069
-0.00107505
0.0119167
5.72979e-05
0.0041937
-0.000259445
0.000132478
-0.00125042
0.00105328
-0.00161654
0.000533926
-0.00125688
-0.00201407
-0.000593641
-0.0052348
1.87745e-05
-0.00814979
0.000316226
-0.0104667
0.000160429
-0.0125494
0.000103044
-0.0136244
3.44811e-05
-0.0142765
-1.16695e-08
-0.0145563
-3.44976e-05
-0.0145563
-0.00010308
-0.0142766
-0.000160483
-0.0136244
-0.000316249
-0.0125494
-1.86911e-05
-0.0104667
0.000593804
-0.00814981
0.00125709
-0.00523478
0.00161679
-0.00201404
0.00125073
0.000533902
0.000259913
0.00105312
-5.66387e-05
0.000132381
0.00107561
0.00419404
0.00219597
0.0119173
0.00179642
0.0189075
0.000967986
0.0216382
0.0224966
-0.00121987
0.0237161
-0.0023251
0.022743
-0.00281074
0.0193926
-0.00148719
0.0105932
-0.000640152
0.00334666
-0.00131942
0.000811743
-0.0021488
0.00188266
-0.00225321
0.000638339
-0.0017127
-0.00255459
-0.00101603
-0.00593146
-0.000387841
-0.00877799
5.24232e-05
-0.010907
8.41259e-05
-0.0125811
0.000102321
-0.0136425
5.11633e-05
-0.0142254
4.37575e-08
-0.0145052
-5.10435e-05
-0.0145052
-0.000102273
-0.0142254
-8.40922e-05
-0.0136425
-5.23534e-05
-0.0125812
0.000387965
-0.010907
0.00101619
-0.00877804
0.0017129
-0.00593148
0.00225345
-0.0025546
0.00214908
0.000638278
0.00131977
0.00188243
0.000640545
0.000811602
0.00148759
0.00334699
0.00281105
0.0105939
0.00232521
0.0193933
0.0012199
0.0227435
0.0237165
-0.00137588
0.025092
-0.00265213
0.0240193
-0.00317853
0.019919
-0.00244013
0.00985477
-0.00230764
0.00321418
-0.00282373
0.00132783
-0.00305145
0.00211039
-0.00271181
0.000298693
-0.00200997
-0.00325642
-0.00130756
-0.00663387
-0.000715099
-0.00937045
-0.000222509
-0.0113995
1.42575e-05
-0.0128179
9.72322e-05
-0.0137255
6.42685e-05
-0.0141924
5.76043e-08
-0.014441
-6.41415e-05
-0.014441
-9.71255e-05
-0.0141924
-1.41464e-05
-0.0137255
0.000222631
-0.012818
0.000715224
-0.0113996
0.00130769
-0.0093705
0.00201012
-0.00663391
0.00271199
-0.00325646
0.00305167
0.000298593
0.00282408
0.00211002
0.00230804
0.00132764
0.00244046
0.00321457
0.00317869
0.00985563
0.00265208
0.0199199
0.00137583
0.0240197
0.0250923
-0.00134411
0.0264361
-0.00265082
0.025326
-0.00325206
0.0205202
-0.0034855
0.0100882
-0.00408746
0.00381614
-0.00419528
0.00143565
-0.00364277
0.00155788
-0.00286702
-0.000477057
-0.0020197
-0.00410374
-0.00130659
-0.00734698
-0.0007503
-0.00992674
-0.000284885
-0.011865
5.05913e-05
-0.0131534
0.000140401
-0.0138153
8.61697e-05
-0.0141382
6.79003e-08
-0.0143549
-8.60567e-05
-0.0143549
-0.000140249
-0.0141382
-5.04049e-05
-0.0138154
0.00028504
-0.0131534
0.000750423
-0.011865
0.00130669
-0.00992677
0.00201979
-0.00734701
0.00286711
-0.00410378
0.00364287
-0.000477165
0.00419565
0.00155724
0.00408772
0.00143558
0.00348559
0.0038167
0.00325197
0.0100893
0.00265048
0.0205214
0.00134391
0.0253263
0.0264362
-0.000880919
0.027317
-0.00189497
0.02634
-0.00260893
0.0212342
-0.00347124
0.0109505
-0.00440827
0.00475317
-0.00453402
0.00156139
-0.00364987
0.00067373
-0.00258869
-0.00153823
-0.00165284
-0.0050396
-0.00095867
-0.00804115
-0.000468984
-0.0104164
-8.46416e-05
-0.0122493
0.000229456
-0.0134675
0.000239205
-0.0138251
0.000123984
-0.014023
1.07166e-07
-0.014231
-0.000123815
-0.014231
-0.000238989
-0.014023
-0.000229224
-0.0138251
8.48315e-05
-0.0134675
0.000469102
-0.0122493
0.000958728