/*--------------------------------*- C++ -*----------------------------------*\
  =========                 |
  \\      /  F ield         | OpenFOAM: The Open Source CFD Toolbox
   \\    /   O peration     | Website:  https://openfoam.org
    \\  /    A nd           | Version:  9
     \\/     M anipulation  |
\*---------------------------------------------------------------------------*/
FoamFile
{
    format      ascii;
    class       volVectorField;
    location    "0.95";
    object      U;
}
// * * * * * * * * * * * * * * * * * * * * * * * * * * * * * * * * * * * * * //

dimensions      [0 1 -1 0 0 0 0];

internalField   nonuniform List<vector> 
4096
(
(-0.00899062 0.00885381 0)
(-0.0267365 0.00856067 0)
(-0.0435052 0.00792254 0)
(-0.0586709 0.00697364 0)
(-0.0716262 0.00575228 0)
(-0.0818647 0.00430516 0)
(-0.0889848 0.00268581 0)
(-0.0926868 0.00095145 0)
(-0.0928347 -0.000806639 0)
(-0.089411 -0.002554 0)
(-0.0825182 -0.00421054 0)
(-0.0724172 -0.00570747 0)
(-0.0594912 -0.00698511 0)
(-0.0442387 -0.00799198 0)
(-0.027253 -0.00868704 0)
(-0.00919861 -0.0090418 0)
(0.00921721 -0.00904176 0)
(0.0272714 -0.0086869 0)
(0.0442567 -0.00799175 0)
(0.0595087 -0.0069848 0)
(0.072434 -0.00570707 0)
(0.0825342 -0.00421006 0)
(0.0894259 -0.00255345 0)
(0.0928485 -0.000806033 0)
(0.0926993 0.000952109 0)
(0.0889961 0.00268651 0)
(0.0818746 0.00430589 0)
(0.0716347 0.00575301 0)
(0.0586781 0.00697431 0)
(0.0435114 0.00792301 0)
(0.0267396 0.00856048 0)
(0.00899082 0.00885416 0)
(-0.00936539 0.0269548 0)
(-0.0278532 0.0260617 0)
(-0.0453247 0.0241212 0)
(-0.0611276 0.0212338 0)
(-0.074632 0.0175171 0)
(-0.0853091 0.0131132 0)
(-0.0927392 0.00818674 0)
(-0.0966193 0.0029216 0)
(-0.0967805 -0.00246585 0)
(-0.0932162 -0.00777854 0)
(-0.0860394 -0.0128183 0)
(-0.0755148 -0.0173772 0)
(-0.0620414 -0.0212699 0)
(-0.0461383 -0.024338 0)
(-0.0284247 -0.0264561 0)
(-0.00959457 -0.0275372 0)
(0.00961329 -0.0275371 0)
(0.0284432 -0.0264557 0)
(0.0461565 -0.0243373 0)
(0.062059 -0.0212689 0)
(0.0755317 -0.017376 0)
(0.0860554 -0.0128168 0)
(0.0932311 -0.00777689 0)
(0.0967944 -0.00246401 0)
(0.0966319 0.0029236 0)
(0.0927503 0.00818888 0)
(0.0853189 0.0131154 0)
(0.0746403 0.0175193 0)
(0.0611344 0.021236 0)
(0.0453299 0.0241231 0)
(0.0278562 0.0260627 0)
(0.00936618 0.0269564 0)
(-0.0100677 0.0461266 0)
(-0.0299432 0.0445995 0)
(-0.0487298 0.0412843 0)
(-0.0657286 0.0363486 0)
(-0.0802637 0.029994 0)
(-0.091766 0.0224627 0)
(-0.0997816 0.0140361 0)
(-0.103985 0.00502895 0)
(-0.104189 -0.00420256 0)
(-0.100373 -0.0133049 0)
(-0.0926645 -0.0219348 0)
(-0.0813454 -0.029745 0)
(-0.0668431 -0.0364168 0)
(-0.049716 -0.0416768 0)
(-0.0306319 -0.0453088 0)
(-0.0103405 -0.0471629 0)
(0.0103595 -0.0471626 0)
(0.0306507 -0.0453081 0)
(0.0497345 -0.0416757 0)
(0.066861 -0.0364151 0)
(0.0813625 -0.0297429 0)
(0.0926807 -0.0219323 0)
(0.100388 -0.0133021 0)
(0.104203 -0.00419946 0)
(0.103998 0.00503233 0)
(0.0997929 0.0140397 0)
(0.0917758 0.0224665 0)
(0.0802719 0.0299979 0)
(0.0657352 0.0363524 0)
(0.0487347 0.041288 0)
(0.0299461 0.0446029 0)
(0.0100687 0.0461301 0)
(-0.0111315 0.0670417 0)
(-0.0331087 0.0648269 0)
(-0.0538888 0.0600183 0)
(-0.0727025 0.0528569 0)
(-0.0888043 0.0436337 0)
(-0.101564 0.032698 0)
(-0.110475 0.0204566 0)
(-0.115173 0.00736626 0)
(-0.115447 -0.00606424 0)
(-0.11126 -0.019315 0)
(-0.10275 -0.0318781 0)
(-0.0902259 -0.0432518 0)
(-0.0741589 -0.0529721 0)
(-0.0551683 -0.0606384 0)
(-0.0339961 -0.0659333 0)
(-0.0114775 -0.0686365 0)
(0.0114971 -0.0686362 0)
(0.0340154 -0.0659323 0)
(0.0551872 -0.0606367 0)
(0.0741773 -0.0529697 0)
(0.0902434 -0.0432489 0)
(0.102767 -0.0318746 0)
(0.111276 -0.019311 0)
(0.115461 -0.00605984 0)
(0.115186 0.00737106 0)
(0.110486 0.0204618 0)
(0.101574 0.0327034 0)
(0.0888125 0.0436392 0)
(0.072709 0.0528625 0)
(0.0538935 0.0600238 0)
(0.0331116 0.0648323 0)
(0.0111325 0.067047 0)
(-0.0125985 0.0904539 0)
(-0.0374748 0.0874749 0)
(-0.0610069 0.0810051 0)
(-0.0823293 0.0713665 0)
(-0.1006 0.0589466 0)
(-0.115105 0.0442116 0)
(-0.125265 0.0277058 0)
(-0.130659 0.0100428 0)
(-0.131038 -0.00809734 0)
(-0.12635 -0.0260113 0)
(-0.116739 -0.0430032 0)
(-0.10255 -0.0583937 0)
(-0.0843164 -0.0715534 0)
(-0.0627407 -0.0819369 0)
(-0.0386693 -0.0891108 0)
(-0.0130572 -0.092774 0)
(0.0130775 -0.0927735 0)
(0.0386894 -0.0891094 0)
(0.0627603 -0.0819347 0)
(0.0843354 -0.0715503 0)
(0.102568 -0.0583899 0)
(0.116756 -0.0429987 0)
(0.126366 -0.0260061 0)
(0.131053 -0.00809158 0)
(0.130672 0.0100491 0)
(0.125277 0.0277125 0)
(0.115115 0.0442186 0)
(0.100609 0.0589538 0)
(0.0823359 0.0713739 0)
(0.0610117 0.0810125 0)
(0.0374777 0.0874822 0)
(0.0125995 0.090461 0)
(-0.0145216 0.117214 0)
(-0.0431991 0.11337 0)
(-0.070343 0.105017 0)
(-0.094963 0.092568 0)
(-0.116092 0.0765156 0)
(-0.132904 0.0574549 0)
(-0.144723 0.0360832 0)
(-0.15105 0.0131904 0)
(-0.151587 -0.0103478 0)
(-0.146254 -0.0336193 0)
(-0.135206 -0.0557109 0)
(-0.118831 -0.0757339 0)
(-0.0977419 -0.092865 0)
(-0.0727534 -0.106389 0)
(-0.0448502 -0.115736 0)
(-0.0151468 -0.12051 0)
(0.015168 -0.12051 0)
(0.0448712 -0.115735 0)
(0.0727739 -0.106386 0)
(0.0977618 -0.0928612 0)
(0.11885 -0.0757291 0)
(0.135224 -0.0557053 0)
(0.146271 -0.0336128 0)
(0.151602 -0.0103406 0)
(0.151064 0.0131982 0)
(0.144735 0.0360915 0)
(0.132914 0.0574636 0)
(0.116101 0.0765247 0)
(0.0949697 0.0925772 0)
(0.0703479 0.105027 0)
(0.0432021 0.113379 0)
(0.0145226 0.117223 0)
(-0.0169667 0.14829 0)
(-0.0504787 0.143453 0)
(-0.0822216 0.132937 0)
(-0.111049 0.117254 0)
(-0.135835 0.0970142 0)
(-0.155611 0.0729543 0)
(-0.169576 0.0459434 0)
(-0.177127 0.0169721 0)
(-0.177894 -0.0128572 0)
(-0.171765 -0.0423903 0)
(-0.158897 -0.0704572 0)
(-0.139734 -0.095919 0)
(-0.11499 -0.11772 0)
(-0.085623 -0.13494 0)
(-0.0527971 -0.146847 0)
(-0.0178339 -0.15293 0)
(0.0178563 -0.15293 0)
(0.0528193 -0.146845 0)
(0.0856447 -0.134937 0)
(0.115011 -0.117715 0)
(0.139754 -0.0959131 0)
(0.158915 -0.0704503 0)
(0.171782 -0.0423824 0)
(0.17791 -0.0128485 0)
(0.177141 0.0169815 0)
(0.169588 0.0459534 0)
(0.155622 0.0729648 0)
(0.135844 0.0970251 0)
(0.111056 0.117265 0)
(0.0822265 0.132949 0)
(0.0504817 0.143464 0)
(0.0169678 0.148301 0)
(-0.0200148 0.184796 0)
(-0.0595556 0.17881 0)
(-0.0970424 0.165787 0)
(-0.131137 0.146348 0)
(-0.16052 0.121232 0)
(-0.184041 0.0913343 0)
(-0.200737 0.0577152 0)
(-0.209872 0.0215953 0)
(-0.210979 -0.0156582 0)
(-0.20389 -0.0526047 0)
(-0.188764 -0.0877667 0)
(-0.166113 -0.119701 0)
(-0.136773 -0.147069 0)
(-0.101886 -0.168702 0)
(-0.0628426 -0.183667 0)
(-0.0212313 -0.191314 0)
(0.0212552 -0.191313 0)
(0.0628662 -0.183665 0)
(0.101909 -0.168698 0)
(0.136796 -0.147064 0)
(0.166134 -0.119694 0)
(0.188784 -0.0877585 0)
(0.203908 -0.0525954 0)
(0.210995 -0.0156478 0)
(0.209887 0.0216065 0)
(0.20075 0.057727 0)
(0.184052 0.0913467 0)
(0.16053 0.121245 0)
(0.131145 0.146361 0)
(0.0970476 0.1658 0)
(0.0595587 0.178823 0)
(0.0200158 0.184809 0)
(-0.0237632 0.228024 0)
(-0.0707219 0.220702 0)
(-0.11529 0.204757 0)
(-0.1559 0.180934 0)
(-0.190993 0.150109 0)
(-0.219197 0.113347 0)
(-0.239342 0.0719243 0)
(-0.250516 0.0273299 0)
(-0.252118 -0.0187659 0)
(-0.243902 -0.0645757 0)
(-0.226018 -0.108248 0)
(-0.199053 -0.147967 0)
(-0.163999 -0.182042 0)
(-0.122224 -0.208998 0)
(-0.0754108 -0.227654 0)
(-0.0254829 -0.237191 0)
(0.0255085 -0.23719 0)
(0.0754361 -0.227651 0)
(0.122248 -0.208993 0)
(0.164023 -0.182036 0)
(0.199075 -0.147959 0)
(0.226039 -0.108238 0)
(0.243921 -0.0645647 0)
(0.252136 -0.0187538 0)
(0.250531 0.0273429 0)
(0.239356 0.0719382 0)
(0.219209 0.113361 0)
(0.191003 0.150123 0)
(0.155907 0.180949 0)
(0.115295 0.204773 0)
(0.0707251 0.220717 0)
(0.0237643 0.228039 0)
(-0.028327 0.279477 0)
(-0.0843233 0.270602 0)
(-0.137539 0.25125 0)
(-0.186137 0.222298 0)
(-0.228274 0.184769 0)
(-0.262301 0.139907 0)
(-0.286785 0.0892306 0)
(-0.30058 0.0345292 0)
(-0.302906 -0.0221661 0)
(-0.293399 -0.0786504 0)
(-0.272181 -0.132611 0)
(-0.239925 -0.181768 0)
(-0.197814 -0.22399 0)
(-0.147502 -0.25742 0)
(-0.0910385 -0.280569 0)
(-0.0307708 -0.292404 0)
(0.0307985 -0.292403 0)
(0.0910658 -0.280565 0)
(0.147529 -0.257414 0)
(0.19784 -0.223983 0)
(0.239949 -0.181758 0)
(0.272204 -0.1326 0)
(0.29342 -0.0786376 0)
(0.302925 -0.0221521 0)
(0.300597 0.0345443 0)
(0.286799 0.0892465 0)
(0.262313 0.139924 0)
(0.228284 0.184786 0)
(0.186145 0.222316 0)
(0.137544 0.251268 0)
(0.0843266 0.270619 0)
(0.0283281 0.279494 0)
(-0.0338396 0.340908 0)
(-0.100761 0.330231 0)
(-0.164461 0.306915 0)
(-0.222794 0.271972 0)
(-0.273577 0.226571 0)
(-0.31482 0.172145 0)
(-0.344758 0.110467 0)
(-0.361936 0.0436678 0)
(-0.365322 -0.0257949 0)
(-0.354377 -0.0952094 0)
(-0.329165 -0.161686 0)
(-0.290456 -0.22236 0)
(-0.239667 -0.274545 0)
(-0.178812 -0.315898 0)
(-0.110403 -0.344547 0)
(-0.0373249 -0.359199 0)
(0.037355 -0.359198 0)
(0.110432 -0.344543 0)
(0.178841 -0.315891 0)
(0.239694 -0.274536 0)
(0.290482 -0.222349 0)
(0.32919 -0.161673 0)
(0.354399 -0.0951946 0)
(0.365341 -0.0257787 0)
(0.361954 0.0436851 0)
(0.344773 0.110486 0)
(0.314833 0.172164 0)
(0.273587 0.22659 0)
(0.222802 0.271992 0)
(0.164467 0.306935 0)
(0.100764 0.330251 0)
(0.0338407 0.340928 0)
(-0.0404511 0.414356 0)
(-0.120489 0.401603 0)
(-0.196825 0.373696 0)
(-0.266963 0.331785 0)
(-0.328322 0.27717 0)
(-0.378503 0.211464 0)
(-0.41531 0.136701 0)
(-0.436874 0.0553896 0)
(-0.441812 -0.0295072 0)
(-0.429329 -0.114661 0)
(-0.399372 -0.196449 0)
(-0.352819 -0.271257 0)
(-0.291379 -0.335689 0)
(-0.217524 -0.386788 0)
(-0.134355 -0.422205 0)
(-0.0454336 -0.440319 0)
(0.0454666 -0.440318 0)
(0.134387 -0.4222 0)
(0.217556 -0.38678 0)
(0.291409 -0.335679 0)
(0.352847 -0.271244 0)
(0.399398 -0.196434 0)
(0.429352 -0.114643 0)
(0.441833 -0.0294885 0)
(0.436893 0.0554095 0)
(0.415325 0.136721 0)
(0.378516 0.211485 0)
(0.328333 0.277192 0)
(0.266971 0.331807 0)
(0.19683 0.373718 0)
(0.120492 0.401624 0)
(0.0404522 0.414378 0)
(-0.0483255 0.502176 0)
(-0.144006 0.487055 0)
(-0.235483 0.453881 0)
(-0.319877 0.403926 0)
(-0.394153 0.338587 0)
(-0.455408 0.259621 0)
(-0.500894 0.169314 0)
(-0.528188 0.0705801 0)
(-0.535409 -0.0330288 0)
(-0.52137 -0.137426 0)
(-0.48582 -0.238042 0)
(-0.429753 -0.330285 0)
(-0.355247 -0.409844 0)
(-0.265367 -0.472982 0)
(-0.163965 -0.516752 0)
(-0.0554603 -0.539137 0)
(0.0554966 -0.539135 0)
(0.164 -0.516746 0)
(0.265402 -0.472973 0)
(0.35528 -0.409832 0)
(0.429784 -0.33027 0)
(0.485848 -0.238024 0)
(0.521396 -0.137406 0)
(0.535431 -0.0330073 0)
(0.528207 0.0706028 0)
(0.50091 0.169337 0)
(0.455421 0.259645 0)
(0.394164 0.338611 0)
(0.319885 0.40395 0)
(0.235489 0.453905 0)
(0.144009 0.487079 0)
(0.0483267 0.5022 0)
(-0.0576347 0.607066 0)
(-0.171838 0.589286 0)
(-0.281354 0.550148 0)
(-0.382897 0.49101 0)
(-0.472923 0.4133 0)
(-0.547922 0.318842 0)
(-0.604434 0.210122 0)
(-0.639279 0.0904716 0)
(-0.649869 -0.0358807 0)
(-0.634417 -0.163912 0)
(-0.592325 -0.2878 0)
(-0.524723 -0.401662 0)
(-0.434178 -0.499993 0)
(-0.324531 -0.578053 0)
(-0.200595 -0.632153 0)
(-0.0678683 -0.65981 0)
(0.0679085 -0.659808 0)
(0.200635 -0.632147 0)
(0.324569 -0.578042 0)
(0.434214 -0.499979 0)
(0.524757 -0.401644 0)
(0.592356 -0.28778 0)
(0.634445 -0.163889 0)
(0.649893 -0.035856 0)
(0.6393 0.0904975 0)
(0.604451 0.210149 0)
(0.547936 0.318869 0)
(0.472934 0.413327 0)
(0.382905 0.491037 0)
(0.28136 0.550175 0)
(0.171842 0.589313 0)
(0.0576358 0.607092 0)
(-0.0685465 0.732074 0)
(-0.20451 0.711377 0)
(-0.335374 0.665612 0)
(-0.457458 0.596162 0)
(-0.566669 0.504361 0)
(-0.65877 0.391963 0)
(-0.729383 0.261539 0)
(-0.774286 0.1168 0)
(-0.789865 -0.0372615 0)
(-0.773406 -0.194465 0)
(-0.723727 -0.347315 0)
(-0.642151 -0.488166 0)
(-0.531923 -0.609897 0)
(-0.397876 -0.706476 0)
(-0.24603 -0.77335 0)
(-0.0832654 -0.807508 0)
(0.0833101 -0.807505 0)
(0.246074 -0.773342 0)
(0.397918 -0.706464 0)
(0.531963 -0.60988 0)
(0.642188 -0.488145 0)
(0.723761 -0.347291 0)
(0.773436 -0.194438 0)
(0.78989 -0.037233 0)
(0.774308 0.11683 0)
(0.7294 0.261569 0)
(0.658784 0.391993 0)
(0.56668 0.504391 0)
(0.457466 0.596191 0)
(0.335379 0.665641 0)
(0.204513 0.711406 0)
(0.0685476 0.732103 0)
(-0.0812065 0.88058 0)
(-0.242484 0.856782 0)
(-0.398416 0.803854 0)
(-0.544985 0.723092 0)
(-0.677537 0.615538 0)
(-0.790988 0.482632 0)
(-0.879772 0.326811 0)
(-0.938223 0.152039 0)
(-0.961214 -0.0358761 0)
(-0.944609 -0.229342 0)
(-0.886279 -0.418591 0)
(-0.787844 -0.593256 0)
(-0.653398 -0.74413 0)
(-0.489013 -0.863773 0)
(-0.302422 -0.946604 0)
(-0.10236 -0.988911 0)
(0.10241 -0.988908 0)
(0.302472 -0.946595 0)
(0.489061 -0.863758 0)
(0.653443 -0.744111 0)
(0.787885 -0.593231 0)
(0.886316 -0.418563 0)
(0.944641 -0.229311 0)
(0.961241 -0.0358431 0)
(0.938245 0.152073 0)
(0.87979 0.326845 0)
(0.791001 0.482666 0)
(0.677547 0.615571 0)
(0.544992 0.723124 0)
(0.398421 0.803886 0)
(0.242487 0.856813 0)
(0.0812075 0.880611 0)
(-0.0957079 1.05623 0)
(-0.286082 1.02929 0)
(-0.471163 0.968931 0)
(-0.646734 0.876181 0)
(-0.807638 0.751487 0)
(-0.947834 0.595581 0)
(-1.06023 0.410362 0)
(-1.13712 0.199766 0)
(-1.17113 -0.0296131 0)
(-1.15593 -0.268453 0)
(-1.08762 -0.503201 0)
(-0.967956 -0.719764 0)
(-0.802334 -0.907412 0)
(-0.599464 -1.05658 0)
(-0.370054 -1.1598 0)
(-0.125103 -1.21243 0)
(0.125159 -1.21243 0)
(0.370109 -1.15979 0)
(0.599517 -1.05656 0)
(0.802384 -0.907389 0)
(0.968002 -0.719736 0)
(1.08766 -0.503168 0)
(1.15596 -0.268417 0)
(1.17116 -0.0295741 0)
(1.13714 0.199805 0)
(1.06024 0.410401 0)
(0.947847 0.595618 0)
(0.807647 0.751523 0)
(0.646741 0.876215 0)
(0.471167 0.968965 0)
(0.286085 1.02933 0)
(0.0957087 1.05626 0)
(-0.112049 1.26278 0)
(-0.335355 1.23292 0)
(-0.553902 1.16533 0)
(-0.763544 1.06054 0)
(-0.95879 0.917956 0)
(-1.13258 0.736956 0)
(-1.2758 0.518196 0)
(-1.37774 0.264865 0)
(-1.42743 -0.0160704 0)
(-1.41403 -0.310865 0)
(-1.32949 -0.603606 0)
(-1.17533 -0.875431 0)
(-0.964131 -1.11136 0)
(-0.711979 -1.29543 0)
(-0.435075 -1.41983 0)
(-0.146184 -1.48205 0)
(0.146245 -1.48205 0)
(0.435136 -1.41982 0)
(0.712038 -1.29541 0)
(0.964186 -1.11133 0)
(1.17538 -0.875398 0)
(1.32953 -0.603568 0)
(1.41407 -0.310822 0)
(1.42746 -0.0160273 0)
(1.37776 0.264909 0)
(1.27582 0.518239 0)
(1.13259 0.736998 0)
(0.958798 0.917995 0)
(0.763549 1.06058 0)
(0.553906 1.16537 0)
(0.335357 1.23296 0)
(0.11205 1.26281 0)
(-0.130075 1.50389 0)
(-0.389903 1.47172 0)
(-0.646231 1.39784 0)
(-0.895439 1.28204 0)
(-1.13209 1.12199 0)
(-1.34809 0.914748 0)
(-1.53145 0.658466 0)
(-1.66562 0.354234 0)
(-1.72946 0.00829637 0)
(-1.70223 -0.364682 0)
(-1.56605 -0.745775 0)
(-1.33719 -1.08806 0)
(-1.05494 -1.36704 0)
(-0.750459 -1.57986 0)
(-0.445603 -1.7207 0)
(-0.147256 -1.78894 0)
(0.147313 -1.78893 0)
(0.445661 -1.72069 0)
(0.750519 -1.57984 0)
(1.055 -1.36701 0)
(1.33725 -1.08802 0)
(1.5661 -0.745728 0)
(1.70227 -0.36463 0)
(1.72949 0.00834947 0)
(1.66564 0.354285 0)
(1.53146 0.658515 0)
(1.34809 0.914793 0)
(1.13209 1.12203 0)
(0.895442 1.28208 0)
(0.646232 1.39788 0)
(0.389904 1.47175 0)
(0.130075 1.50393 0)
(-0.149398 1.78274 0)
(-0.448644 1.74938 0)
(-0.746645 1.67131 0)
(-1.04107 1.54718 0)
(-1.32722 1.37207 0)
(-1.59542 1.1387 0)
(-1.82656 0.838862 0)
(-1.98853 0.464839 0)
(-2.03645 0.018628 0)
(-1.92137 -0.472357 0)
(-1.64057 -0.965313 0)
(-1.2872 -1.39483 0)
(-0.924477 -1.72244 0)
(-0.615179 -1.92431 0)
(-0.351833 -2.03628 0)
(-0.11394 -2.08548 0)
(0.113983 -2.08548 0)
(0.351878 -2.03627 0)
(0.615228 -1.9243 0)
(0.924533 -1.72241 0)
(1.28726 -1.39479 0)
(1.64063 -0.965258 0)
(1.92143 -0.472294 0)
(2.03648 0.0186923 0)
(1.98855 0.4649 0)
(1.82657 0.838918 0)
(1.59543 1.13875 0)
(1.32722 1.37211 0)
(1.04107 1.54722 0)
(0.746644 1.67135 0)
(0.448643 1.74942 0)
(0.149398 1.78278 0)
(-0.169317 2.10148 0)
(-0.509527 2.0688 0)
(-0.852039 1.99017 0)
(-1.19701 1.86287 0)
(-1.54134 1.67781 0)
(-1.87083 1.41759 0)
(-2.148 1.05312 0)
(-2.29536 0.560268 0)
(-2.20301 -0.0471494 0)
(-1.83462 -0.775021 0)
(-1.34906 -1.42469 0)
(-0.977347 -1.80242 0)
(-0.696033 -2.02082 0)
(-0.470844 -2.15127 0)
(-0.273865 -2.22833 0)
(-0.0893345 -2.26292 0)
(0.0893664 -2.26292 0)
(0.273898 -2.22833 0)
(0.470881 -2.15126 0)
(0.696074 -2.0208 0)
(0.977397 -1.80239 0)
(1.34912 -1.42463 0)
(1.83469 -0.774938 0)
(2.20306 -0.0470694 0)
(2.29538 0.560343 0)
(2.14801 1.05319 0)
(1.87083 1.41765 0)
(1.54134 1.67786 0)
(1.197 1.86291 0)
(0.852036 1.99021 0)
(0.509525 2.06883 0)
(0.169316 2.10152 0)
(-0.188723 2.46053 0)
(-0.569264 2.43125 0)
(-0.95721 2.35779 0)
(-1.35682 2.23602 0)
(-1.76658 2.04772 0)
(-2.15888 1.74429 0)
(-2.43392 1.25309 0)
(-2.40268 0.543592 0)
(-1.94884 -0.467114 0)
(-1.40767 -1.32464 0)
(-1.05751 -1.7931 0)
(-0.808706 -2.06078 0)
(-0.607722 -2.22822 0)
(-0.429182 -2.33587 0)
(-0.257012 -2.40542 0)
(-0.0854789 -2.43537 0)
(0.0855062 -2.43537 0)
(0.25704 -2.40541 0)
(0.429212 -2.33586 0)
(0.607755 -2.2282 0)
(0.808743 -2.06076 0)
(1.05756 -1.79306 0)
(1.40773 -1.32457 0)
(1.94892 -0.466994 0)
(2.40272 0.543689 0)
(2.43394 1.25317 0)
(2.15888 1.74435 0)
(1.76657 2.04777 0)
(1.35681 2.23606 0)
(0.957203 2.35783 0)
(0.56926 2.43128 0)
(0.188721 2.46056 0)
(-0.206056 2.85767 0)
(-0.62312 2.83549 0)
(-1.05416 2.77551 0)
(-1.50898 2.67069 0)
(-1.98574 2.47292 0)
(-2.40068 2.06708 0)
(-2.50342 1.32585 0)
(-2.06615 0.0767721 0)
(-1.50156 -1.05669 0)
(-1.18264 -1.67412 0)
(-1.00056 -2.02026 0)
(-0.831262 -2.24821 0)
(-0.653136 -2.402 0)
(-0.471858 -2.50634 0)
(-0.285528 -2.5794 0)
(-0.0964915 -2.61127 0)
(0.0965192 -2.61127 0)
(0.285558 -2.5794 0)
(0.471888 -2.50633 0)
(0.653168 -2.40199 0)
(0.831297 -2.2482 0)
(1.0006 -2.02023 0)
(1.18268 -1.67407 0)
(1.50161 -1.0566 0)
(2.06623 0.0769368 0)
(2.50346 1.32596 0)
(2.40068 2.06716 0)
(1.98572 2.47298 0)
(1.50896 2.67073 0)
(1.05415 2.77554 0)
(0.623113 2.83552 0)
(0.206054 2.85769 0)
(-0.219374 3.28721 0)
(-0.665069 3.27687 0)
(-1.13184 3.24099 0)
(-1.63744 3.15826 0)
(-2.15506 2.90703 0)
(-2.45577 2.27945 0)
(-2.19555 0.967565 0)
(-1.61545 -0.528016 0)
(-1.31686 -1.36518 0)
(-1.238 -1.808 0)
(-1.14002 -2.14614 0)
(-0.96363 -2.41134 0)
(-0.755577 -2.58643 0)
(-0.54197 -2.69855 0)
(-0.325326 -2.77807 0)
(-0.111169 -2.81252 0)
(0.111197 -2.81252 0)
(0.325356 -2.77807 0)
(0.542002 -2.69854 0)
(0.755612 -2.58642 0)
(0.96367 -2.41132 0)
(1.14006 -2.1461 0)
(1.23802 -1.80795 0)
(1.31688 -1.36511 0)
(1.6155 -0.527894 0)
(2.19562 0.96776 0)
(2.45577 2.27956 0)
(2.15504 2.90709 0)
(1.63742 3.1583 0)
(1.13182 3.24102 0)
(0.66506 3.27689 0)
(0.219371 3.28723 0)
(-0.226443 3.73918 0)
(-0.687782 3.74611 0)
(-1.17675 3.74244 0)
(-1.71849 3.66383 0)
(-2.19934 3.28475 0)
(-2.26255 2.25286 0)
(-1.72778 0.356596 0)
(-1.38078 -0.823191 0)
(-1.36127 -1.39897 0)
(-1.42656 -1.83412 0)
(-1.33473 -2.29623 0)
(-1.11762 -2.62794 0)
(-0.862075 -2.8211 0)
(-0.609053 -2.93192 0)
(-0.361282 -3.01103 0)
(-0.124488 -3.04487 0)
(0.124515 -3.04487 0)
(0.361311 -3.01103 0)
(0.609086 -2.93192 0)
(0.862114 -2.8211 0)
(1.11767 -2.62792 0)
(1.33477 -2.29619 0)
(1.42658 -1.83406 0)
(1.36127 -1.39891 0)
(1.38081 -0.823091 0)
(1.72783 0.356761 0)
(2.26258 2.25302 0)
(2.19932 3.28482 0)
(1.71846 3.66387 0)
(1.17673 3.74246 0)
(0.68777 3.74613 0)
(0.22644 3.7392 0)
(-0.225105 4.19857 0)
(-0.683779 4.22646 0)
(-1.17316 4.25225 0)
(-1.69543 4.1247 0)
(-2.06298 3.52309 0)
(-1.82852 1.76065 0)
(-1.41281 0.0332282 0)
(-1.27868 -0.865933 0)
(-1.44551 -1.29174 0)
(-1.54225 -1.8264 0)
(-1.46776 -2.45905 0)
(-1.23849 -2.88573 0)
(-0.947573 -3.09732 0)
(-0.659098 -3.19732 0)
(-0.387003 -3.26785 0)
(-0.133948 -3.29771 0)
(0.133972 -3.29772 0)
(0.387028 -3.26786 0)
(0.659128 -3.19733 0)
(0.947612 -3.09733 0)
(1.23853 -2.88571 0)
(1.46779 -2.45899 0)
(1.54225 -1.8263 0)
(1.44549 -1.29168 0)
(1.27867 -0.865866 0)
(1.41284 0.0333679 0)
(1.82857 1.76088 0)
(2.06296 3.5232 0)
(1.6954 4.12474 0)
(1.17314 4.25227 0)
(0.683766 4.22647 0)
(0.225101 4.19858 0)
(-0.214311 4.64866 0)
(-0.649766 4.69689 0)
(-1.11451 4.72527 0)
(-1.56325 4.5013 0)
(-1.75122 3.61229 0)
(-1.43135 1.35337 0)
(-1.16206 -0.13442 0)
(-1.17868 -0.762059 0)
(-1.3867 -1.14301 0)
(-1.52273 -1.80749 0)
(-1.48736 -2.6145 0)
(-1.27777 -3.16111 0)
(-0.988525 -3.40796 0)
(-0.679049 -3.49288 0)
(-0.395616 -3.54519 0)
(-0.137609 -3.56645 0)
(0.137625 -3.56646 0)
(0.395632 -3.5452 0)
(0.679073 -3.49289 0)
(0.988555 -3.40798 0)
(1.27779 -3.16108 0)
(1.48738 -2.61442 0)
(1.52272 -1.80736 0)
(1.38666 -1.14294 0)
(1.17864 -0.762008 0)
(1.16206 -0.134302 0)
(1.43138 1.35357 0)
(1.75123 3.61242 0)
(1.56322 4.50134 0)
(1.11448 4.72527 0)
(0.649753 4.69688 0)
(0.214307 4.64866 0)
(-0.194537 5.06731 0)
(-0.587435 5.12736 0)
(-0.999682 5.12878 0)
(-1.3469 4.78608 0)
(-1.34519 3.46125 0)
(-1.11266 1.11725 0)
(-0.898544 -0.190715 0)
(-0.951739 -0.638717 0)
(-1.1324 -0.985909 0)
(-1.34612 -1.75523 0)
(-1.37865 -2.74206 0)
(-1.18553 -3.4341 0)
(-0.949943 -3.71557 0)
(-0.653884 -3.79153 0)
(-0.378466 -3.82237 0)
(-0.133262 -3.83136 0)
(0.133267 -3.83137 0)
(0.378469 -3.82238 0)
(0.653895 -3.79154 0)
(0.949951 -3.71559 0)
(1.18552 -3.43407 0)
(1.37865 -2.74195 0)
(1.34607 -1.75507 0)
(1.13233 -0.985831 0)
(0.951681 -0.63868 0)
(0.898532 -0.190636 0)
(1.11267 1.11742 0)
(1.34521 3.46147 0)
(1.34687 4.78613 0)
(0.999661 5.12878 0)
(0.587425 5.12735 0)
(0.194534 5.0673 0)
(-0.16818 5.43812 0)
(-0.50453 5.49577 0)
(-0.838497 5.44581 0)
(-1.07867 4.95807 0)
(-0.942831 3.21735 0)
(-0.812572 0.953662 0)
(-0.581635 -0.229197 0)
(-0.59232 -0.567545 0)
(-0.689805 -0.787594 0)
(-0.882947 -1.49935 0)
(-1.05527 -2.7606 0)
(-0.93885 -3.62662 0)
(-0.806329 -3.9664 0)
(-0.57884 -4.04989 0)
(-0.33334 -4.07356 0)
(-0.119833 -4.07423 0)
(0.119823 -4.07423 0)
(0.333328 -4.07358 0)
(0.578832 -4.0499 0)
(0.806305 -3.96641 0)
(0.938807 -3.62658 0)
(1.05521 -2.76046 0)
(0.882829 -1.49916 0)
(0.689735 -0.787535 0)
(0.592264 -0.56753 0)
(0.581622 -0.229148 0)
(0.81258 0.953816 0)
(0.942844 3.21759 0)
(1.07866 4.95812 0)
(0.838487 5.44581 0)
(0.504525 5.49575 0)
(0.168178 5.4381 0)
(-0.139605 5.75033 0)
(-0.413396 5.7894 0)
(-0.658817 5.67278 0)
(-0.792119 5.02533 0)
(-0.594837 3.01276 0)
(-0.527849 0.814881 0)
(-0.243556 -0.323496 0)
(-0.227209 -0.582547 0)
(-0.224256 -0.669099 0)
(-0.306089 -1.26748 0)
(-0.528322 -2.5361 0)
(-0.643839 -3.64098 0)
(-0.589497 -4.12345 0)
(-0.467969 -4.24287 0)
(-0.270156 -4.28047 0)
(-0.0995197 -4.28014 0)
(0.0994967 -4.28014 0)
(0.27013 -4.28048 0)
(0.467942 -4.24288 0)
(0.58945 -4.12344 0)
(0.643773 -3.6409 0)
(0.528231 -2.53587 0)
(0.306007 -1.26732 0)
(0.224229 -0.669086 0)
(0.227171 -0.582557 0)
(0.24355 -0.323469 0)
(0.527856 0.815021 0)
(0.594842 3.01298 0)
(0.792135 5.0254 0)
(0.658822 5.67277 0)
(0.413398 5.78939 0)
(0.139606 5.75031 0)
(-0.114417 6.00164 0)
(-0.330975 6.00812 0)
(-0.496939 5.81049 0)
(-0.532532 5.00036 0)
(-0.32146 2.84537 0)
(-0.280689 0.66702 0)
(0.0577971 -0.461856 0)
(-0.000167063 -0.62151 0)
(0.0375199 -0.661044 0)
(-0.0496919 -1.17638 0)
(-0.186287 -2.31463 0)
(-0.391737 -3.5323 0)
(-0.377535 -4.19179 0)
(-0.342585 -4.3688 0)
(-0.201679 -4.43518 0)
(-0.0763239 -4.44161 0)
(0.076289 -4.44162 0)
(0.201643 -4.43519 0)
(0.342547 -4.3688 0)
(0.377487 -4.19176 0)
(0.391676 -3.5322 0)
(0.18621 -2.31447 0)
(0.0496654 -1.17626 0)
(-0.0375219 -0.661038 0)
(0.000145432 -0.621526 0)
(-0.0578003 -0.461841 0)
(0.280698 0.66715 0)
(0.321472 2.84558 0)
(0.532574 5.00043 0)
(0.496959 5.81049 0)
(0.330987 6.00811 0)
(0.114421 6.00163 0)
(-0.0980469 6.2051 0)
(-0.275034 6.16877 0)
(-0.384051 5.8777 0)
(-0.355293 4.91122 0)
(-0.160925 2.69719 0)
(-0.0757793 0.481991 0)
(0.254347 -0.580714 0)
(0.0910552 -0.5857 0)
(0.0675083 -0.628638 0)
(-0.0067939 -1.1288 0)
(-0.00406009 -2.20764 0)
(-0.193994 -3.39957 0)
(-0.20056 -4.20408 0)
(-0.219268 -4.4365 0)
(-0.134635 -4.53898 0)
(-0.0531622 -4.5574 0)
(0.0531162 -4.55741 0)
(0.134589 -4.53899 0)
(0.219223 -4.4365 0)
(0.200516 -4.20404 0)
(0.193944 -3.39945 0)
(0.00401231 -2.20751 0)
(0.00680121 -1.12871 0)
(-0.0674991 -0.62863 0)
(-0.0910633 -0.585712 0)
(-0.25435 -0.580709 0)
(0.075797 0.482113 0)
(0.160951 2.69737 0)
(0.35536 4.9113 0)
(0.384088 5.87771 0)
(0.275056 6.16877 0)
(0.0980542 6.2051 0)
(-0.0937873 6.37939 0)
(-0.256731 6.29112 0)
(-0.342914 5.89829 0)
(-0.251331 4.77596 0)
(-0.0350332 2.50913 0)
(0.146289 0.243475 0)
(0.32424 -0.593325 0)
(0.105133 -0.490021 0)
(-0.0120536 -0.551182 0)
(-0.0148966 -1.13557 0)
(0.078367 -2.16948 0)
(-0.0382319 -3.28717 0)
(-0.058711 -4.18143 0)
(-0.108496 -4.45372 0)
(-0.0741757 -4.59581 0)
(-0.0320549 -4.62986 0)
(0.031999 -4.62986 0)
(0.0741205 -4.59582 0)
(0.108447 -4.45371 0)
(0.0586685 -4.1814 0)
(0.0381958 -3.28706 0)
(-0.0783751 -2.16939 0)
(0.0149228 -1.1355 0)
(0.0120845 -0.551162 0)
(-0.105118 -0.490024 0)
(-0.324229 -0.593334 0)
(-0.146247 0.243578 0)
(0.035087 2.50927 0)
(0.251419 4.77604 0)
(0.342968 5.89832 0)
(0.256762 6.29114 0)
(0.0937974 6.37941 0)
(-0.102494 6.55786 0)
(-0.278607 6.41518 0)
(-0.366569 5.89297 0)
(-0.24121 4.58943 0)
(0.0802691 2.27891 0)
(0.315569 0.0848436 0)
(0.357518 -0.452889 0)
(-0.0427093 -0.28817 0)
(-0.12987 -0.488461 0)
(-0.0686269 -1.21404 0)
(0.0828727 -2.20068 0)
(0.0724198 -3.22237 0)
(0.0411647 -4.13972 0)
(-0.0222577 -4.43143 0)
(-0.0260999 -4.61234 0)
(-0.0150085 -4.66474 0)
(0.0149472 -4.66473 0)
(0.0260396 -4.61237 0)
(0.0222078 -4.43144 0)
(-0.0412106 -4.1397 0)
(-0.0724431 -3.22228 0)
(-0.0828553 -2.20061 0)
(0.0686686 -1.214 0)
(0.12992 -0.488435 0)
(0.0427532 -0.288155 0)
(-0.357495 -0.452905 0)
(-0.315518 0.0849175 0)
(-0.0801947 2.27902 0)
(0.241311 4.58953 0)
(0.366629 5.89303 0)
(0.278643 6.41522 0)
(0.102505 6.5579 0)
(-0.125471 6.76357 0)
(-0.348516 6.56335 0)
(-0.4852 5.90425 0)
(-0.399142 4.36465 0)
(0.119156 1.94558 0)
(0.239683 -0.0626983 0)
(0.255102 -0.150655 0)
(-0.300067 -0.0445251 0)
(-0.292216 -0.4846 0)
(-0.167603 -1.35713 0)
(0.0270309 -2.31866 0)
(0.125213 -3.22334 0)
(0.0853359 -4.0898 0)
(0.0287377 -4.39156 0)
(0.00487293 -4.60093 0)
(-0.00339658 -4.6718 0)
(0.0033459 -4.67179 0)
(-0.00492581 -4.60096 0)
(-0.0287759 -4.39157 0)
(-0.0853754 -4.08979 0)
(-0.125216 -3.22329 0)
(-0.0269917 -2.31863 0)
(0.167659 -1.3571 0)
(0.292285 -0.484575 0)
(0.300133 -0.0445122 0)
(-0.255057 -0.15066 0)
(-0.239605 -0.0626672 0)
(-0.119065 1.94565 0)
(0.399245 4.36476 0)
(0.485268 5.90434 0)
(0.348554 6.56342 0)
(0.125483 6.76363 0)
(-0.161133 7.02791 0)
(-0.463666 6.77508 0)
(-0.712293 5.97572 0)
(-0.650438 4.04579 0)
(0.0408814 1.52058 0)
(-0.0219121 -0.0525511 0)
(-0.163681 0.195686 0)
(-0.556629 0.139611 0)
(-0.497226 -0.563696 0)
(-0.30091 -1.55901 0)
(-0.0858006 -2.5008 0)
(0.103503 -3.28226 0)
(0.0743807 -4.03584 0)
(0.0430829 -4.36125 0)
(0.0202254 -4.57813 0)
(0.00333219 -4.66499 0)
(-0.00333837 -4.66498 0)
(-0.0202342 -4.57816 0)
(-0.0430978 -4.36125 0)
(-0.0744041 -4.03585 0)
(-0.103488 -3.28225 0)
(0.0858483 -2.50079 0)
(0.300971 -1.55899 0)
(0.497303 -0.563678 0)
(0.556716 0.139613 0)
(0.163806 0.195668 0)
(0.0220401 -0.0525403 0)
(-0.0407777 1.52069 0)
(0.650606 4.04598 0)
(0.712374 5.97586 0)
(0.463702 6.77518 0)
(0.161142 7.028 0)
(-0.197885 7.37572 0)
(-0.585683 7.07966 0)
(-0.952133 6.11816 0)
(-0.743857 3.5614 0)
(-0.196261 1.13429 0)
(-0.298756 0.141546 0)
(-0.521151 0.493797 0)
(-0.776162 0.215752 0)
(-0.657778 -0.71666 0)
(-0.43526 -1.78729 0)
(-0.219929 -2.7125 0)
(-0.0102659 -3.41574 0)
(0.0284794 -3.99981 0)
(0.0398262 -4.35537 0)
(0.0260786 -4.55846 0)
(0.00710423 -4.65136 0)
(-0.00707266 -4.65136 0)
(-0.0260505 -4.55847 0)
(-0.0398187 -4.35537 0)
(-0.0284666 -3.99982 0)
(0.0102954 -3.41576 0)
(0.219974 -2.71251 0)
(0.435316 -1.78729 0)
(0.657849 -0.716657 0)
(0.776242 0.215738 0)
(0.521239 0.493735 0)
(0.298925 0.1415 0)
(0.196383 1.13438 0)
(0.743979 3.56159 0)
(0.952198 6.11837 0)
(0.585701 7.0798 0)
(0.197887 7.37582 0)
(-0.221698 7.79185 0)
(-0.667096 7.46491 0)
(-1.07837 6.28437 0)
(-0.863795 3.17714 0)
(-0.693349 0.994138 0)
(-0.893407 0.386902 0)
(-0.911965 0.694312 0)
(-0.970114 0.190276 0)
(-0.758107 -0.925212 0)
(-0.522906 -2.0185 0)
(-0.313047 -2.91369 0)
(-0.132404 -3.57506 0)
(-0.0237549 -4.05115 0)
(0.035003 -4.37379 0)
(0.0324794 -4.54694 0)
(0.00840883 -4.63267 0)
(-0.00837007 -4.63268 0)
(-0.032442 -4.54694 0)
(-0.0349717 -4.37378 0)
(0.0238014 -4.05118 0)
(0.132442 -3.57508 0)
(0.313087 -2.91371 0)
(0.52295 -2.01851 0)
(0.758157 -0.925221 0)
(0.970171 0.190249 0)
(0.912052 0.694224 0)
(0.893566 0.386852 0)
(0.693446 0.994249 0)
(0.863887 3.17737 0)
(1.07838 6.28462 0)
(0.667069 7.46506 0)
(0.221687 7.79194 0)
(-0.215516 8.24076 0)
(-0.663718 7.8865 0)
(-1.05608 6.47293 0)
(-0.994056 3.12577 0)
(-1.22029 1.08308 0)
(-1.42075 0.479726 0)
(-1.25892 0.666988 0)
(-1.06729 -0.00508366 0)
(-0.764177 -1.18334 0)
(-0.517073 -2.25144 0)
(-0.314793 -3.10327 0)
(-0.158928 -3.73509 0)
(-0.0273361 -4.16136 0)
(0.0537533 -4.41685 0)
(0.0442186 -4.53685 0)
(0.0107035 -4.60962 0)
(-0.0106633 -4.60962 0)
(-0.0441753 -4.53685 0)
(-0.0536974 -4.41686 0)
(0.027389 -4.16139 0)
(0.158972 -3.73511 0)
(0.314827 -3.10329 0)
(0.517101 -2.25145 0)
(0.7642 -1.18335 0)
(1.06732 -0.00512363 0)
(1.25901 0.666852 0)
(1.42087 0.479658 0)
(1.22031 1.08321 0)
(0.994081 3.12606 0)
(1.056 6.47325 0)
(0.663613 7.88663 0)
(0.215479 8.24084 0)
(-0.123402 8.64882 0)
(-0.45923 8.27304 0)
(-0.760878 6.55764 0)
(-0.959547 3.24619 0)
(-1.28396 1.28744 0)
(-1.45243 0.403855 0)
(-1.38954 0.309882 0)
(-1.0172 -0.32295 0)
(-0.645799 -1.48103 0)
(-0.396405 -2.48102 0)
(-0.212572 -3.27326 0)
(-0.0840243 -3.87633 0)
(0.0342436 -4.27489 0)
(0.0978884 -4.43393 0)
(0.0644777 -4.51194 0)
(0.0157675 -4.57757 0)
(-0.0157053 -4.57756 0)
(-0.0644069 -4.51197 0)
(-0.0978189 -4.43395 0)
(-0.0341728 -4.2749 0)
(0.0840702 -3.87634 0)
(0.212599 -3.27326 0)
(0.396415 -2.48102 0)
(0.64579 -1.48104 0)
(1.01721 -0.322983 0)
(1.38952 0.309623 0)
(1.45238 0.403863 0)
(1.28386 1.28763 0)
(0.959446 3.24655 0)
(0.760667 6.55808 0)
(0.459052 8.27313 0)
(0.123342 8.64879 0)
(0.00225336 8.79971 0)
(-0.0410338 8.50861 0)
(-0.0591953 6.90678 0)
(-0.481116 3.66028 0)
(-0.856784 1.66393 0)
(-0.971628 0.563864 0)
(-1.20533 0.0883298 0)
(-0.736264 -0.713288 0)
(-0.366572 -1.79013 0)
(-0.143732 -2.69515 0)
(-0.00843204 -3.413 0)