/*--------------------------------*- C++ -*----------------------------------*\
  =========                 |
  \\      /  F ield         | OpenFOAM: The Open Source CFD Toolbox
   \\    /   O peration     | Website:  https://openfoam.org
    \\  /    A nd           | Version:  9
     \\/     M anipulation  |
\*---------------------------------------------------------------------------*/
FoamFile
{
    format      ascii;
    class       volScalarField;
    location    "14";
    object      p;
}
// * * * * * * * * * * * * * * * * * * * * * * * * * * * * * * * * * * * * * //

dimensions      [0 2 -2 0 0 0 0];

internalField   nonuniform List<scalar> 
1000
(
1.6755994
1.5545215
1.458541
1.3948849
1.3463754
1.3039034
1.2663682
1.2341964
1.206796
1.1829584
1.1615641
1.1418003
1.1231232
1.1051836
1.0877683
1.0707541
1.0540732
1.037689
1.0215808
1.0057349
0.99013993
0.97478483
0.95965814
0.94474791
0.93004192
0.91552794
0.90119397
0.88702846
0.8730204
0.85915939
0.84543568
0.83184013
0.81836424
0.80500008
0.79174025
0.77857789
0.7655066
0.75252039
0.73961372
0.7267814
0.7140186
0.70132079
0.68868375
0.67610354
0.66357647
0.65109908
0.63866815
0.62628067
0.61393382
0.60162496
0.58935163
0.57711153
0.56490251
0.55272253
0.54056971
0.52844228
0.51633858
0.50425706
0.49219629
0.48015491
0.46813166
0.45612536
0.44413491
0.43215927
0.42019747
0.40824861
0.39631182
0.38438632
0.37247137
0.36056628
0.34867042
0.33678319
0.32490401
0.31303237
0.30116776
0.28930971
0.27745779
0.2656116
0.25377076
0.24193492
0.23010377
0.21827699
0.20645431
0.19463545
0.18282015
0.17100818
0.15919931
0.14739333
0.13559006
0.12378931
0.11199093
0.10019477
0.088400681
0.076608526
0.064818175
0.053029502
0.041242441
0.029456807
0.017672795
0.0058897522
1.5583797
1.5034506
1.4424981
1.3909304
1.3476604
1.3086921
1.2731059
1.2413332
1.2133723
1.1885944
1.1661926
1.1454912
1.1260096
1.1074215
1.089508
1.0721232
1.0551714
1.03859
1.0223373
1.0063838
0.99070675
0.97528721
0.96010837
0.94515472
0.93041168
0.91586547
0.90150306
0.88731219
0.87328135
0.85939976
0.84565739
0.83204488
0.81855353
0.80517525
0.79190251
0.77872832
0.76564615
0.75264995
0.73973407
0.72689326
0.71412261
0.70141755
0.6887738
0.67618738
0.66365456
0.65117183
0.63873595
0.62634387
0.61399273
0.60167989
0.58940286
0.57715931
0.56494708
0.55276411
0.54060851
0.52847849
0.51637238
0.50428861
0.49222574
0.48018239
0.46815731
0.45614931
0.44415727
0.43218014
0.42021696
0.40826681
0.39632882
0.3844022
0.3724862
0.36058013
0.34868335
0.33679525
0.32491527
0.31304288
0.30117758
0.28931889
0.27746638
0.26561962
0.25377825
0.24194192
0.2301103
0.21828308
0.20645999
0.19464076
0.18282512
0.17101283
0.15920365
0.1473974
0.13559385
0.12379286
0.11199424
0.10019786
0.088403554
0.076611204
0.064820677
0.053031812
0.041244604
0.029458687
0.017674473
0.0058905924
1.4975585
1.4713834
1.4329865
1.3918536
1.3527683
1.3161776
1.2818799
1.2501624
1.2213063
1.1952052
1.1714512
1.1495612
1.1291113
1.1097705
1.0912903
1.0734893
1.0562374
1.0394419
1.0230358
1.0069706
0.99121025
0.97572656
0.96049669
0.94550121
0.93072295
0.91614648
0.90175766
0.88754349
0.87349194
0.85959187
0.84583294
0.83220555
0.81870082
0.80531047
0.79202682
0.77884275
0.76575163
0.75274729
0.73982399
0.72697641
0.71419956
0.70148883
0.68883988
0.67624868
0.66371145
0.65122468
0.63878506
0.62638953
0.61403521
0.60171941
0.58943964
0.57719355
0.56497896
0.55279381
0.54063618
0.52850428
0.51639643
0.50431104
0.49224665
0.4802019
0.46817551
0.45616627
0.44417309
0.43219491
0.42023074
0.40827967
0.39634083
0.38441341
0.37249667
0.3605899
0.34869246
0.33680375
0.32492321
0.31305029
0.30118449
0.28932535
0.27747241
0.26562527
0.25378353
0.24194685
0.23011489
0.21828737
0.20646399
0.19464449
0.1828286
0.17101609
0.15920671
0.14740026
0.13559653
0.12379536
0.11199657
0.10020003
0.088405566
0.076613078
0.064822393
0.053033394
0.041245972
0.029459863
0.017675162
0.005891061
1.4681499
1.4526519
1.4257819
1.391858
1.3560571
1.3211058
1.2878038
1.2564508
1.2273201
1.2005286
1.175941
1.1532488
1.132097
1.1121682
1.0932101
1.0750304
1.0574846
1.0404636
1.023885
1.007687
0.991823
0.97625724
0.96096128
0.94591161
0.93108819
0.91647347
0.90205185
0.88780922
0.87373277
0.85981075
0.84603237
0.83238766
0.81886744
0.80546319
0.79216705
0.7789717
0.76587037
0.75285677
0.73992505
0.7270698
0.71428595
0.7015688
0.68891397
0.67631738
0.66377519
0.65128385
0.63884003
0.62644062
0.61408271
0.6017636
0.58948076
0.57723183
0.56501459
0.552827
0.5406671
0.52853309
0.51642327
0.50433607
0.49227
0.48022367
0.46819581
0.45618521
0.44419075
0.43221138
0.4202461
0.408294
0.39635421
0.3844259
0.37250833
0.36060079
0.34870263
0.33681324
0.32493205
0.31305854
0.30119219
0.28933254
0.27747913
0.26563155
0.2537894
0.24195234
0.23012003
0.21829216
0.20646846
0.19464866
0.18283249
0.17101973
0.15921011
0.14740345
0.13559951
0.12379816
0.11199917
0.10020247
0.088407808
0.076615183
0.064824276
0.053035173
0.04124743
0.029461255
0.017675995
0.0058920806
1.4554184
1.443465
1.4212307
1.3909431
1.3570819
1.3230864
1.2903888
1.2593832
1.2302859
1.203274
1.1783469
1.1552973
1.1338158
1.1135982
1.0943946
1.0760124
1.0583035
1.041153
1.0244722
1.008193
0.99226404
0.97664547
0.96130595
0.94621979
0.93136535
0.91672388
0.90227892
0.88801574
0.87392104
0.85998275
0.84618977
0.83253193
0.81899986
0.8055849
0.79227904
0.77907487
0.76596552
0.75294461
0.74000622
0.72714487
0.71435543
0.70163316
0.68897362
0.67637269
0.66382652
0.65133152
0.63888431
0.62648178
0.61412098
0.6017992
0.58951389
0.57726266
0.5650433
0.55285372
0.54069199
0.52855628
0.51644489
0.50435622
0.49228878
0.48024119
0.46821215
0.45620045
0.44420496
0.43222463
0.42025847
0.40830554
0.39636497
0.38443595
0.37251771
0.36060955
0.34871081
0.33682087
0.32493917
0.31306518
0.30119839
0.28933832
0.27748453
0.2656366
0.25379412
0.24195676
0.23012416
0.21829602
0.20647206
0.19465202
0.18283563
0.17102265
0.15921284
0.14740601
0.13560191
0.12380042
0.11200127
0.10020444
0.088409617
0.076616889
0.064825792
0.053036621
0.041248617
0.029462446
0.017676798
0.0058930831
1.4554184
1.443465
1.4212307
1.3909431
1.3570819
1.3230864
1.2903888
1.2593832
1.2302859
1.203274
1.1783469
1.1552973
1.1338158
1.1135982
1.0943946
1.0760124
1.0583035
1.041153
1.0244722
1.008193
0.99226404
0.97664547
0.96130594
0.94621979
0.93136534
0.91672388
0.90227892
0.88801574
0.87392105
0.85998275
0.84618977
0.83253193
0.81899986
0.8055849
0.79227904
0.77907487
0.76596552
0.75294461
0.74000623
0.72714487
0.71435543
0.70163316
0.68897362
0.67637269
0.66382652
0.65133152
0.63888431
0.62648178
0.61412098
0.6017992
0.58951389
0.57726266
0.5650433
0.55285372
0.54069199
0.52855628
0.51644489
0.50435622
0.49228879
0.4802412
0.46821215
0.45620045
0.44420496
0.43222463
0.42025847
0.40830554
0.39636497
0.38443595
0.37251771
0.36060955
0.3487108
0.33682086
0.32493916
0.31306517
0.30119838
0.28933832
0.27748453
0.2656366
0.25379413
0.24195677
0.23012417
0.21829603
0.20647207
0.19465203
0.18283564
0.17102267
0.15921286
0.14740603
0.13560193
0.12380044
0.11200129
0.10020446
0.088409632
0.076616899
0.064825799
0.053036624
0.041248618
0.029462446
0.017676797
0.0058930826
1.4681499
1.4526518
1.4257819
1.391858
1.3560571
1.3211058
1.2878038
1.2564508
1.2273201
1.2005286
1.175941
1.1532488
1.132097
1.1121682
1.0932101
1.0750304
1.0574846
1.0404636
1.023885
1.007687
0.991823
0.97625724
0.96096127
0.9459116
0.93108818
0.91647347
0.90205185
0.88780923
0.87373277
0.85981075
0.84603236
0.83238766
0.81886743
0.80546319
0.79216704
0.7789717
0.76587037
0.75285677
0.73992506
0.7270698
0.71428595
0.7015688
0.68891397
0.67631737
0.66377519
0.65128385
0.63884004
0.62644063
0.61408272
0.60176361
0.58948076
0.57723183
0.56501459
0.55282699
0.5406671
0.52853309
0.51642328
0.50433608
0.49227
0.48022368
0.46819581
0.45618521
0.44419075
0.43221137
0.4202461
0.40829401
0.39635421
0.38442591
0.37250833
0.36060079
0.34870262
0.33681322
0.32493203
0.31305851
0.30119217
0.28933253
0.27747913
0.26563156
0.25378943
0.24195237
0.23012005
0.21829219
0.20646849
0.19464869
0.18283252
0.17101976
0.15921016
0.14740351
0.13559958
0.12379823
0.11199923
0.10020252
0.088407849
0.076615211
0.064824293
0.053035181
0.041247433
0.029461256
0.017675994
0.0058920798
1.4975585
1.4713834
1.4329865
1.3918536
1.3527684
1.3161776
1.2818799
1.2501624
1.2213063
1.1952052
1.1714512
1.1495611
1.1291113
1.1097705
1.0912903
1.0734893
1.0562375
1.0394419
1.0230358
1.0069706
0.99121024
0.97572654
0.96049668
0.9455012
0.93072295
0.91614648
0.90175767
0.8875435
0.87349194
0.85959187
0.84583293
0.83220554
0.81870081
0.80531046
0.79202682
0.77884276
0.76575164
0.75274729
0.739824
0.72697641
0.71419956
0.70148882
0.68883987
0.67624867
0.66371145
0.65122468
0.63878507
0.62638954
0.61403521
0.60171941
0.58943964
0.57719355
0.56497895
0.55279381
0.54063619
0.52850429
0.51639644
0.50431105
0.49224666
0.48020191
0.46817551
0.45616627
0.44417309
0.43219491
0.42023075
0.40827968
0.39634084
0.38441341
0.37249666
0.36058988
0.34869243
0.33680372
0.32492317
0.31305025
0.30118447
0.28932534
0.27747242
0.26562529
0.25378356
0.24194688
0.23011493
0.2182874
0.20646403
0.19464453
0.18282865
0.17101616
0.15920679
0.14740035
0.13559663
0.12379546
0.11199665
0.1002001
0.088405621
0.076613118
0.064822419
0.05303341
0.041245981
0.029459867
0.017675163
0.0058910607
1.5583797
1.5034506
1.4424981
1.3909304
1.3476604
1.3086921
1.2731059
1.2413332
1.2133723
1.1885944
1.1661925
1.1454912
1.1260096
1.1074215
1.089508
1.0721232
1.0551714
1.03859
1.0223373
1.0063838
0.99070673
0.97528719
0.96010836
0.94515471
0.93041168
0.91586548
0.90150307
0.8873122
0.87328135
0.85939975
0.84565738
0.83204487
0.81855352
0.80517525
0.79190252
0.77872832
0.76564616
0.75264995
0.73973407
0.72689325
0.7141226
0.70141754
0.6887738
0.67618739
0.66365456
0.65117184
0.63873596
0.62634387
0.61399273
0.60167989
0.58940285
0.57715931
0.56494707
0.55276411
0.54060852
0.5284785
0.51637239
0.50428862
0.49222574
0.48018239
0.46815731
0.45614931
0.44415727
0.43218015
0.42021698
0.40826682
0.39632883
0.38440219
0.37248618
0.3605801
0.34868331
0.33679521
0.32491524
0.31304286
0.30117757
0.2893189
0.27746639
0.26561965
0.25377828
0.24194194
0.23011032
0.21828311
0.20646004
0.19464081
0.18282519
0.17101292
0.15920376
0.14739751
0.13559396
0.12379296
0.11199433
0.10019793
0.088403616
0.076611253
0.064820714
0.053031838
0.041244621
0.029458697
0.017674478
0.0058905932
1.6755994
1.5545215
1.458541
1.3948849
1.3463754
1.3039034
1.2663682
1.2341964
1.206796
1.1829584
1.1615641
1.1418003
1.1231232
1.1051836
1.0877683
1.0707541
1.0540732
1.037689
1.0215808
1.0057349
0.99013991
0.97478482
0.95965814
0.94474792
0.93004193
0.91552795
0.90119398
0.88702846
0.8730204
0.85915938
0.84543567
0.83184012
0.81836424
0.80500008
0.79174026
0.7785779
0.7655066
0.75252039
0.73961372
0.72678139
0.71401859
0.70132078
0.68868375
0.67610354
0.66357648
0.65109909
0.63866816
0.62628067
0.61393381
0.60162495
0.58935162
0.57711153
0.56490251
0.55272254
0.54056972
0.52844229
0.51633859
0.50425707
0.49219629
0.4801549
0.46813165
0.45612536
0.44413492
0.43215929
0.42019749
0.40824862
0.39631182
0.38438631
0.37247134
0.36056625
0.34867038
0.33678315
0.32490398
0.31303235
0.30116775
0.28930972
0.27745781
0.26561162
0.25377078
0.24193494
0.23010379
0.21827703
0.20645436
0.19463551
0.18282024
0.17100828
0.15919942
0.14739344
0.13559016
0.12378941
0.11199102
0.10019485
0.088400745
0.076608578
0.064818216
0.053029532
0.041242463
0.029456822
0.017672802
0.0058897543
)
;

boundaryField
{
    top
    {
        type            zeroGradient;
    }
    inlet
    {
        type            zeroGradient;
    }
    outlet
    {
        type            fixedValue;
        value           uniform 0;
    }
    bottom
    {
        type            zeroGradient;
    }
    back
    {
        type            empty;
    }
    front
    {
        type            empty;
    }
}


// ************************************************************************* //
