/*--------------------------------*- C++ -*----------------------------------*\
  =========                 |
  \\      /  F ield         | OpenFOAM: The Open Source CFD Toolbox
   \\    /   O peration     | Website:  https://openfoam.org
    \\  /    A nd           | Version:  9
     \\/     M anipulation  |
\*---------------------------------------------------------------------------*/
FoamFile
{
    format      ascii;
    class       surfaceScalarField;
    location    "14";
    object      phi;
}
// * * * * * * * * * * * * * * * * * * * * * * * * * * * * * * * * * * * * * //

dimensions      [0 3 -1 0 0 0 0];

internalField   nonuniform List<scalar> 
1890
(
0.0093061958
0.00069380425
0.0082843931
0.0010218027
0.0073298986
0.0009544945
0.0064869552
0.00084294335
0.0057695844
0.00071737082
0.00518986
0.00057972445
0.004738168
0.00045169205
0.0043951901
0.00034297799
0.0041390269
0.00025616315
0.003949107
0.0001899198
0.003807888
0.00014121895
0.0037013782
0.0001065098
0.0036190579
8.2320249e-05
0.0035534117
6.5646286e-05
0.0034992844
5.4127291e-05
0.0034532444
4.6040067e-05
0.0034130502
4.0194286e-05
0.0033772575
3.5792728e-05
0.0033449387
3.2318721e-05
0.0033154894
2.9449248e-05
0.0032885008
2.6988563e-05
0.0032636804
2.4820311e-05
0.0032408049
2.2875512e-05
0.0032196925
2.111246e-05
0.0032001878
1.9504693e-05
0.0031821539
1.8034039e-05
0.0031654672
1.6686726e-05
0.0031500158
1.5451344e-05
0.003135698
1.4317831e-05
0.0031224209
1.3277041e-05
0.0031101003
1.2320573e-05
0.0030986595
1.1440721e-05
0.003088029
1.0630454e-05
0.0030781457
9.8833967e-06
0.0030689519
9.1938038e-06
0.0030603954
8.5565196e-06
0.0030524285
7.9669258e-06
0.0030450077
7.4208933e-06
0.0030380929
6.9147235e-06
0.0030316478
6.4450977e-06
0.0030256387
6.0090326e-06
0.0030200348
5.6038355e-06
0.0030148077
5.2270762e-06
0.0030099312
4.8765532e-06
0.003005381
4.5502715e-06
0.0030011346
4.2464212e-06
0.0029971713
3.9633531e-06
0.0029934717
3.6995636e-06
0.002990018
3.4536729e-06
0.0029867936
3.2244104e-06
0.0029837829
3.0106037e-06
0.0029809717
2.8111639e-06
0.0029783466
2.6250862e-06
0.0029758952
2.4514387e-06
0.0029736059
2.2893626e-06
0.0029714679
2.1380686e-06
0.0029694711
1.9968273e-06
0.0029676061
1.8649682e-06
0.0029658642
1.7418669e-06
0.0029642373
1.6269395e-06
0.0029627176
1.5196393e-06
0.0029612981
1.4194476e-06
0.0029599722
1.3258813e-06
0.0029587337
1.2384874e-06
0.0029575769
1.1568482e-06
0.0029564964
1.080583e-06
0.0029554871
1.0093405e-06
0.0029545443
9.4280018e-07
0.0029536636
8.8066329e-07
0.0029528409
8.2264279e-07
0.0029520724
7.6847079e-07
0.0029513545
7.1787863e-07
0.0029506839
6.7062271e-07
0.0029500574
6.2646259e-07
0.0029494723
5.8519221e-07
0.0029489258
5.4661343e-07
0.0029484153
5.1056866e-07
0.0029479385
4.7688905e-07
0.002947493
4.4545705e-07
0.0029470768
4.1609847e-07
0.002946688
3.8872277e-07
0.0029463248
3.6312706e-07
0.0029459855
3.3925932e-07
0.0029456686
3.1688706e-07
0.0029453727
2.960391e-07
0.0029450963
2.7644053e-07
0.0029448381
2.58252e-07
0.002944597
2.4109365e-07
0.0029443716
2.2530985e-07
0.0029441612
2.1030642e-07
0.0029439644
1.9668758e-07
0.0029437808
1.8353348e-07
0.002943609
1.7182768e-07
0.0029434487
1.6026743e-07
0.0029432985
1.502812e-07
0.0029431581
1.4037803e-07
0.0029430261
1.3204647e-07
0.002942901
1.2502649e-07
0.0029427815
1.1941981e-07
1.2579364e-07
0.010339525
0.00035427932
0.010570754
0.00079057336
0.010606301
0.00091894822
0.010547572
0.00090167139
0.010422317
0.00084262626
0.010244356
0.00075768561
0.01003942
0.00065662745
0.0098287427
0.00055365585
0.0096251351
0.0004597708
0.0094353014
0.0003797535
0.0092624278
0.00031409255
0.0091075332
0.00026140425
0.0089701539
0.00021969951
0.0088489022
0.00018689791
0.0087419715
0.00016105808
0.0086474926
0.00014051899
0.008563694
0.00012399298
0.0084890108
0.00011047598
0.0084221098
9.9219831e-05
0.0083618776
8.9681356e-05
0.0083073955
8.1470632e-05
0.0082579079
7.4307836e-05
0.0082127928
6.7990516e-05
0.0081715352
6.2370034e-05
0.0081337048
5.733507e-05
0.0080989387
5.2800232e-05
0.0080669272
4.8698293e-05
0.0080374037
4.4974953e-05
0.0080101362
4.1585364e-05
0.0079849214
3.8491806e-05
0.0079615798
3.5662117e-05
0.0079399519
3.3068589e-05
0.0079198951
3.0687174e-05
0.0079012815
2.8496877e-05
0.0078839961
2.6479286e-05
0.0078679344
2.4618192e-05
0.0078530022
2.289928e-05
0.0078391133
2.130986e-05
0.0078261894
1.9838649e-05
0.0078141589
1.8475577e-05
0.0078029563
1.7211625e-05
0.0077925214
1.6038688e-05
0.0077827989
1.4949463e-05
0.007773738
1.3937344e-05
0.007765292
1.299635e-05
0.0077574174
1.2121047e-05
0.0077500743
1.1306492e-05
0.0077432258
1.0548176e-05
0.0077368375
9.8419759e-06
0.0077308779
9.1841122e-06
0.0077253173
8.5711096e-06
0.0077201286
7.9997667e-06
0.0077152865
7.4671285e-06
0.0077107674
6.9704653e-06
0.0077065495
6.5072561e-06
0.0077026124
6.0751725e-06
0.0076989373
5.6720643e-06
0.0076955064
5.2959453e-06
0.0076923034
4.9449771e-06
0.0076893129
4.6174534e-06
0.0076865207
4.3117861e-06
0.0076839135
4.0264935e-06
0.0076814791
3.7601928e-06
0.0076792059
3.5115922e-06
0.0076770832
3.2794925e-06
0.0076751011
3.062778e-06
0.0076732501
2.8604209e-06
0.0076715216
2.6714658e-06
0.0076699073
2.495033e-06
0.0076683997
2.3302943e-06
0.0076669916
2.1764841e-06
0.0076656765
2.0328655e-06
0.0076644482
1.8987623e-06
0.0076633011
1.7735129e-06
0.0076622298
1.6565357e-06
0.0076612292
1.5472467e-06
0.0076602948
1.4451718e-06
0.0076594221
1.3497947e-06
0.0076586069
1.2607508e-06
0.0076578455
1.1775487e-06
0.0076571342
1.0999269e-06
0.0076564698
1.0273592e-06
0.0076558492
9.5971125e-07
0.0076552696
8.9636163e-07
0.0076547282
8.3738871e-07
0.0076542227
7.819921e-07
0.0076537505
7.3061023e-07
0.0076533096
6.8209449e-07
0.0076528976
6.3746809e-07
0.007652513
5.9490379e-07
0.0076521532
5.5639218e-07
0.0076518177
5.1887042e-07
0.0076515034
4.8600655e-07
0.007651211
4.5258716e-07
0.0076509361
4.2525911e-07
0.0076506814
3.9509084e-07
0.0076504394
3.7415741e-07
0.0076502173
3.470933e-07
0.0076500006
3.360552e-07
3.1079302e-07
0.010188704
0.00016557516
0.010530487
0.00044879101
0.010851453
0.0005979818
0.011124174
0.00062895027
0.011350581
0.00061621889
0.011524486
0.00058378057
0.01164633
0.00053478421
0.011724155
0.00047583049
0.011767999
0.00041592663
0.011786639
0.00036111397
0.011787114
0.00031361709
0.011775058
0.00027346025
0.011754861
0.00023989719
0.011729768
0.00021199034
0.011702053
0.00018877265
0.011673238
0.00016933393
0.011644339
0.00015289299
0.011616003
0.00013881183
0.011588629
0.00012659377
0.011562446
0.00011586441
0.011537572
0.0001063449
0.011514052
9.7826977e-05
0.011491889
9.0153364e-05
0.011471056
8.3203393e-05
0.011451508
7.6882659e-05
0.011433193
7.1115612e-05
0.011416051
6.5840333e-05
0.011400021
6.1004928e-05
0.011385042
5.6565063e-05
0.011371051
5.248231e-05
0.01135799
4.8722991e-05
0.011345801
4.5257358e-05
0.011334429
4.2058983e-05
0.011323822
3.9104285e-05
0.011313929
3.6372158e-05
0.011304704
3.3843654e-05
0.011296101
3.1501734e-05
0.01128808
2.933104e-05
0.011280601
2.7317698e-05
0.011273628
2.5449151e-05
0.011267125
2.3714009e-05
0.011261062
2.2101914e-05
0.011255408
2.0603433e-05
0.011250135
1.9209951e-05
0.011245218
1.7913597e-05
0.011240632
1.6707159e-05
0.011236354
1.5584031e-05
0.011232364
1.4538149e-05
0.011228643
1.3563941e-05
0.01122517
1.265628e-05
0.011221931
1.181044e-05
0.011218909
1.1022055e-05
0.011216089
1.028709e-05
0.011213457
9.6018041e-06
0.011211002
8.962738e-06
0.01120871
8.3666797e-06
0.011206572
7.8106599e-06
0.011204576
7.2919274e-06
0.011202713
6.8079332e-06
0.011200974
6.3563169e-06
0.011199351
5.9348833e-06
0.011197836
5.5415907e-06
0.011196421
5.1745375e-06
0.011195101
4.8319433e-06
0.011193868
4.5121546e-06
0.011192717
4.2136223e-06
0.011191643
3.934915e-06
0.01119064
3.6746992e-06
0.011189703
3.4317447e-06
0.011188829
3.2049046e-06
0.011188012
2.9931205e-06
0.01118725
2.7953848e-06
0.011186537
2.6107786e-06
0.011185872
2.4383942e-06
0.011185251
2.2774398e-06
0.011184672
2.1270944e-06
0.01118413
1.9867009e-06
0.011183625
1.8555199e-06
0.011183153
1.7330472e-06
0.011182712
1.6185845e-06
0.0111823
1.5117998e-06
0.011181915
1.4119448e-06
0.011181556
1.3189064e-06
0.01118122
1.2317593e-06
0.011180907
1.1507347e-06
0.011180614
1.0745498e-06
0.011180341
1.0040449e-06
0.011180086
9.3725233e-07
0.011179847
8.7610535e-07
0.011179625
8.1729707e-07
0.011179417
7.6472574e-07
0.011179223
7.1250685e-07
0.011179041
6.6813901e-07
0.011178872
6.209215e-07
0.011178712
5.8503126e-07
0.011178567
5.4096146e-07
0.011178426
5.1507317e-07
0.011178301
4.7213435e-07
0.011178178
4.5904855e-07
4.1616595e-07
0.010097182
6.8393569e-05
0.010346961
0.00019901115
0.010662469
0.0002824739
0.010982753
0.00030866651
0.011290228
0.00030874344
0.011575251
0.00029875789
0.011829022
0.00028101346
0.012047865
0.00025698755
0.012233272
0.00023051981
0.01238924
0.00020514588
0.012520295
0.00018256235
0.012630755
0.00016299957
0.012724428
0.00014622492
0.012804515
0.00013190315
0.012873613
0.00011967429
0.012933772
0.00010917464
0.012986596
0.00010006909
0.013033332
9.207637e-05
0.01307495
8.4975244e-05
0.013112216
7.8598594e-05
0.013145739
7.2822284e-05
0.013176012
6.7553927e-05
0.013203441
6.2723926e-05
0.013228366
5.8278914e-05
0.013251071
5.4177017e-05
0.013271802
5.0384467e-05
0.013290769
4.6873194e-05
0.013308155
4.3619197e-05
0.013324119
4.0601463e-05
0.0133388
3.7801269e-05
0.013352321
3.5201735e-05
0.013364791
3.2787516e-05
0.013376306
3.0544589e-05
0.01338695
2.8460102e-05
0.013396799
2.6522246e-05
0.013405923
2.4720166e-05
0.013414381
2.304387e-05
0.013422228
2.1484158e-05
0.013429513
2.0032557e-05
0.013436281
1.8681252e-05
0.013442572
1.7423035e-05
0.013448423
1.6251253e-05
0.013453866
1.5159748e-05
0.013458933
1.4142834e-05
0.013463652
1.3195244e-05
0.013468047
1.2312104e-05
0.013472142
1.1488903e-05
0.013475958
1.0721462e-05
0.013479517
1.0005913e-05
0.013482834
9.3386693e-06
0.013485928
8.7164047e-06
0.013488814
8.1360322e-06
0.013491507
7.5946765e-06
0.013494019
7.0896698e-06
0.013496363
6.6185235e-06
0.013498551
6.1789258e-06
0.013500592
5.76873e-06
0.013502499
5.3859379e-06
0.013504278
5.0286994e-06
0.013505939
4.6952904e-06
0.01350749
4.3841107e-06
0.013508938
4.0936706e-06
0.01351029
3.822574e-06
0.013511552
3.5695229e-06
0.013512731
3.3333003e-06
0.013513832
3.1127689e-06
0.01351486
2.9068765e-06
0.01351582
2.7146349e-06
0.013516716
2.535144e-06
0.013517554
2.3675496e-06
0.013518336
2.2110779e-06
0.013519066
2.0649831e-06
0.013519749
1.9285867e-06
0.013520386
1.8012263e-06
0.013520981
1.6823116e-06
0.013521536
1.5712357e-06
0.013522056
1.467515e-06
0.013522541
1.3705928e-06
0.013522994
1.2801108e-06
0.013523417
1.1955287e-06
0.013523812
1.1166331e-06
0.013524181
1.0428367e-06
0.013524526
9.7410803e-07
0.013524848
9.0969742e-07
0.013525149
8.498751e-07
0.013525429
7.9354657e-07
0.013525692
7.4153956e-07
0.013525937
6.9209731e-07
0.013526166
6.4706798e-07
0.01352638
6.0342037e-07
0.013526581
5.6484597e-07
0.013526767
5.2589409e-07
0.013526942
4.9360105e-07
0.013527105
4.5807119e-07
0.013527257
4.3237513e-07
0.013527399
3.9873926e-07
0.013527534
3.8066179e-07
0.013527659
3.4702563e-07
0.01352778
3.3804965e-07
3.0573205e-07
0.010068394
1.7975912e-11
0.010267405
3.399432e-11
0.010549879
3.3921615e-11
0.010858545
2.3396478e-11
0.011167288
8.1493931e-12
0.011466046
-5.1251846e-12
0.01174706
-1.430318e-11
0.012004047
-1.6272224e-11
0.012234567
-1.0988486e-11
0.012439713
-2.4468649e-13
0.012622276
1.2086262e-11
0.012785275
2.2270112e-11
0.0129315
2.8734622e-11
0.013063403
2.7023218e-11
0.013183077
1.6060168e-11
0.013292252
2.8699348e-12
0.013392321
-1.0070023e-11
0.013484397
-1.6492328e-11
0.013569373
-1.7007628e-11
0.013647971
-8.6477642e-12
0.013720794
2.5994437e-12
0.013788348
1.4039435e-11
0.013851071
2.3540243e-11
0.01390935
2.7206441e-11
0.013963527
2.2642395e-11
0.014013912
1.1831341e-11
0.014060785
2.7408642e-13
0.014104404
-7.7235804e-12
0.014145005
-1.0567404e-11
0.014182807
-8.301431e-12
0.014218009
6.1826934e-13
0.014250796
9.5370035e-12
0.014281341
1.7520977e-11
0.014309801
2.0750131e-11
0.014336323
1.7630172e-11
0.014361043
7.8822224e-12
0.014384087
-1.7417042e-12
0.014405571
-9.5633939e-12
0.014425604
-1.3475467e-11
0.014444285
-1.1872836e-11
0.014461708
-3.488584e-12
0.014477959
4.031159e-12
0.014493119
1.1471379e-11
0.014507262
1.5063504e-11
0.014520457
1.3078802e-11
0.014532769
5.1871151e-12
0.014544258
-3.1963744e-12
0.014554979
-1.0316383e-11
0.014564985
-1.4194835e-11
0.014574324
-1.2421863e-11
0.014583041
-4.4460711e-12
0.014591177
3.3787804e-12
0.014598771
1.0984061e-11
0.014605861
1.4013769e-11
0.014612479
9.762699e-12
0.014618658
1.3197317e-12
0.014624427
-9.1213356e-12
0.014629813
-1.8301127e-11
0.014634842
-2.3987044e-11
0.014639537
-2.3795632e-11
0.014643921
-1.5323745e-11
0.014648015
-6.1911382e-12
0.014651838
1.3934042e-12
0.014655407
3.7985227e-12
0.01465874
6.5219336e-13
0.014661853
-5.3063647e-12
0.01466476
-1.3890314e-11
0.014667474
-1.6590488e-11
0.01467001
-1.1935909e-11
0.014672377
2.7760666e-12
0.014674588
2.6001281e-11
0.014676653
5.2445809e-11
0.014678582
8.0236733e-11
0.014680383
9.5237348e-11
0.014682065
9.4125925e-11
0.014683636
7.9538645e-11
0.014685104
5.2666544e-11
0.014686474
2.0828458e-11
0.014687754
-1.1093795e-11
0.01468895
-3.6222384e-11
0.014690067
-5.0909607e-11
0.01469111
-5.920168e-11
0.014692084
-6.293634e-11
0.014692994
-6.9750212e-11
0.014693843
-8.4844258e-11
0.014694637
-1.0843579e-10
0.014695379
-1.4336499e-10
0.014696071
-1.791928e-10
0.014696718
-2.1370336e-10
0.014697322
-2.3425489e-10
0.014697887
-2.4117874e-10
0.014698414
-2.2894933e-10
0.014698908
-2.0569463e-10
0.014699366
-1.7213822e-10
0.014699799
-1.3803422e-10
0.014700198
-1.0838542e-10
0.014700578
-7.5181412e-11
0.014700926
-4.841429e-11
0.014701264
-2.698817e-11
-3.6607071e-12
0.010068394
-6.8393534e-05
0.010267405
-0.00019901108
0.010549879
-0.00028247384
0.010858545
-0.00030866647
0.011167288
-0.00030874342
0.011466046
-0.00029875791
0.01174706
-0.00028101349
0.012004047
-0.00025698758
0.012234567
-0.00023051983
0.012439713
-0.00020514588
0.012622276
-0.00018256231
0.012785275
-0.00016299952
0.0129315
-0.00014622486
0.013063403
-0.0001319031
0.013183077
-0.00011967427
0.013292252
-0.00010917464
0.013392321
-0.00010006912
0.013484397
-9.2076407e-05
0.013569373
-8.4975276e-05
0.013647971
-7.8598607e-05
0.013720794
-7.2822269e-05
0.013788348
-6.7553888e-05
0.013851071
-6.2723875e-05
0.01390935
-5.8278864e-05
0.013963527
-5.4176981e-05
0.014013912
-5.0384452e-05
0.014060785
-4.6873201e-05
0.014104404
-4.3619217e-05
0.014145005
-4.0601484e-05
0.014182807
-3.7801279e-05
0.014218009
-3.5201727e-05
0.014250796
-3.2787488e-05
0.014281341
-3.0544549e-05
0.014309801
-2.8460062e-05
0.014336323
-2.6522218e-05
0.014361043
-2.4720157e-05
0.014384087
-2.3043882e-05
0.014405571
-2.1484183e-05
0.014425604
-2.0032584e-05
0.014444285
-1.868127e-05
0.014461708
-1.7423038e-05
0.014477959
-1.6251237e-05
0.014493119
-1.515972e-05
0.014507262
-1.4142805e-05
0.014520457
-1.3195223e-05
0.014532769
-1.2312099e-05
0.014544258
-1.1488916e-05
0.014554979
-1.0721487e-05
0.014564985
-1.0005941e-05
0.014574324
-9.3386881e-06
0.014583041
-8.7164073e-06
0.014591177
-8.1360162e-06
0.014598771
-7.5946488e-06
0.014605861
-7.0896418e-06
0.014612479
-6.6185066e-06
0.014618658
-6.1789309e-06
0.014624427
-5.7687571e-06
0.014629813
-5.38598e-06
0.014634842
-5.0287451e-06
0.014639537
-4.6953275e-06
0.014643921
-4.3841316e-06
0.014648015
-4.093673e-06
0.014651838
-3.8225653e-06
0.014655407
-3.5695145e-06
0.01465874
-3.3333019e-06
0.014661853
-3.112788e-06
0.01466476
-2.9069108e-06
0.014667474
-2.7146717e-06
0.01467001
-2.5351646e-06
0.014672377
-2.367533e-06
0.014674588
-2.2110094e-06
0.014676654
-2.0648619e-06
0.014678582
-1.928426e-06
0.014680383
-1.8010477e-06
0.014682065
-1.6821422e-06
0.014683636
-1.5711057e-06
0.014685104
-1.467442e-06
0.014686474
-1.3705786e-06
0.014687754
-1.2801468e-06
0.01468895
-1.1955993e-06
0.014690067
-1.1167217e-06
0.01469111
-1.0429326e-06
0.014692084
-9.7421166e-07
0.014692994
-9.0982092e-07
0.014693843
-8.5003603e-07
0.014694637
-7.9376642e-07
0.014695379
-7.4182908e-07
0.014696071
-6.9245719e-07
0.014696718
-6.47482e-07
0.014697322
-6.038624e-07
0.014697887
-5.6528522e-07
0.014698414
-5.2630084e-07
0.014698908
-4.9395796e-07
0.014699366
-4.5836685e-07
0.014699799
-4.3261072e-07
0.014700198
-3.9891816e-07
0.014700578
-3.8078897e-07
0.014700926
-3.4711446e-07
0.014701264
-3.3809755e-07
-3.0573907e-07
0.010097182
-0.00016557513
0.010346961
-0.00044879095
0.010662469
-0.00059798175
0.010982753
-0.00062895025
0.011290228
-0.0006162189
0.011575251
-0.00058378061
0.011829022
-0.00053478425
0.012047865
-0.00047583051
0.012233272
-0.00041592662
0.01238924
-0.00036111392
0.012520295
-0.00031361703
0.012630755
-0.00027346018
0.012724428
-0.00023989715
0.012804515
-0.00021199034
0.012873613
-0.00018877268
0.012933772
-0.00016933397
0.012986596
-0.00015289303
0.013033332
-0.00013881186
0.01307495
-0.00012659377
0.013112216
-0.00011586438
0.013145739
-0.00010634485
0.013176012
-9.7826922e-05
0.013203441
-9.0153323e-05
0.013228366
-8.3203377e-05
0.013251071
-7.688267e-05
0.013271802
-7.111564e-05
0.013290769
-6.5840364e-05
0.013308155
-6.1004947e-05
0.013324119
-5.656506e-05
0.0133388
-5.2482283e-05
0.013352321
-4.8722948e-05
0.013364791
-4.525731e-05
0.013376306
-4.2058947e-05
0.01338695
-3.9104271e-05
0.013396799
-3.6372167e-05
0.013405923
-3.3843682e-05
0.013414381
-3.1501768e-05
0.013422228
-2.9331066e-05
0.013429513
-2.7317704e-05
0.013436281
-2.5449135e-05
0.013442572
-2.3713977e-05
0.013448423
-2.2101877e-05
0.013453866
-2.0603406e-05
0.013458933
-1.9209943e-05
0.013463652
-1.7913611e-05
0.013468047
-1.670719e-05
0.013472142
-1.5584065e-05
0.013475958
-1.4538174e-05
0.013479517
-1.3563946e-05
0.013482834
-1.2656262e-05
0.013485928
-1.1810406e-05
0.013488814
-1.1022017e-05
0.013491507
-1.0287065e-05
0.013494019
-9.6018024e-06
0.013496363
-8.9627613e-06
0.013498551
-8.3667237e-06
0.013500592
-7.8107084e-06
0.013502498
-7.2919661e-06
0.013504278
-6.80795e-06
0.013505939
-6.3563081e-06
0.01350749
-5.9348596e-06
0.013508938
-5.5415651e-06
0.01351029
-5.1745281e-06
0.013511552
-4.8319609e-06
0.013512731
-4.5121975e-06
0.013513831
-4.2136819e-06
0.01351486
-3.9349672e-06
0.01351582
-3.6747237e-06
0.013516716
-3.4317222e-06
0.013517554
-3.2048287e-06
0.013518336
-2.993002e-06
0.013519067
-2.7952413e-06
0.013519749
-2.6106405e-06
0.013520386
-2.438285e-06
0.013520981
-2.2773735e-06
0.013521536
-2.1270741e-06
0.013522055
-1.9867134e-06
0.01352254
-1.8555497e-06
0.013522994
-1.7330767e-06
0.013523417
-1.6186038e-06
0.013523812
-1.5118146e-06
0.013524181
-1.411967e-06
0.013524526
-1.3189606e-06
0.013524848
-1.2318656e-06
0.013525149
-1.1509065e-06
0.013525429
-1.0747909e-06
0.013525692
-1.0043401e-06
0.013525937
-9.37585e-07
0.013526166
-8.7644395e-07
0.01352638
-8.1762464e-07
0.013526581
-7.6502002e-07
0.013526767
-7.1276919e-07
0.013526942
-6.6836348e-07
0.013527105
-6.2112201e-07
0.013527257
-5.8520146e-07
0.0135274
-5.4110723e-07
0.013527534
-5.1518038e-07
0.01352766
-4.7221077e-07
0.01352778
-4.5909137e-07
-4.1617484e-07
0.010188704
-0.0003542793
0.010530487
-0.00079057332
0.010851453
-0.00091894821
0.011124174
-0.0009016714
0.011350581
-0.00084262629
0.011524486
-0.00075768565
0.01164633
-0.00065662746
0.011724155
-0.00055365583
0.011767999
-0.00045977075
0.011786639
-0.00037975343
0.011787115
-0.00031409249
0.011775058
-0.00026140422
0.011754861
-0.00021969951
0.011729768
-0.00018689795
0.011702053
-0.00016105814
0.011673238
-0.00014051904
0.011644338
-0.00012399301
0.011616003
-0.00011047597
0.011588629
-9.921978e-05
0.011562446
-8.9681288e-05
0.011537572
-8.1470568e-05
0.011514052
-7.4307798e-05
0.011491889
-6.7990515e-05
0.011471056
-6.2370067e-05
0.011451508
-5.7335122e-05
0.011433193
-5.2800282e-05
0.011416051
-4.869832e-05
0.011400021
-4.4974946e-05
0.011385042
-4.1585324e-05
0.011371051
-3.8491747e-05
0.01135799
-3.5662058e-05
0.011345801
-3.3068551e-05
0.01133443
-3.0687168e-05
0.011323822
-2.8496903e-05
0.011313929
-2.6479333e-05
0.011304704
-2.461824e-05
0.011296101
-2.289931e-05
0.01128808
-2.1309861e-05
0.011280601
-1.983862e-05
0.011273628
-1.8475529e-05
0.011267125
-1.7211575e-05
0.011261062
-1.6038657e-05
0.011255408
-1.4949461e-05
0.011250135
-1.3937373e-05
0.011245218
-1.2996398e-05
0.011240632
-1.2121096e-05
0.011236354
-1.1306522e-05
0.011232364
-1.0548175e-05
0.011228643
-9.8419431e-06
0.011225171
-9.1840601e-06
0.011221931
-8.5710579e-06
0.011218909
-7.9997365e-06
0.011216089
-7.4671327e-06
0.011213457
-6.9705041e-06
0.011211002
-6.5073172e-06
0.01120871
-6.0752332e-06
0.011206572
-5.6721039e-06
0.011204576
-5.2959496e-06
0.011202713
-4.944946e-06
0.011200974
-4.6174019e-06
0.011199351
-4.3117373e-06
0.011197836
-4.0264717e-06
0.011196422
-3.7602115e-06
0.011195101
-3.5116495e-06
0.011193868
-3.2795707e-06
0.011192717
-3.0628473e-06
0.011191643
-2.860453e-06
0.01119064
-2.6714413e-06
0.011189703
-2.4949505e-06
0.011188829
-2.3301732e-06
0.011188012
-2.1763539e-06
0.01118725
-2.0327616e-06
0.011186538
-1.8987092e-06
0.011185872
-1.7735187e-06
0.011185251
-1.6565885e-06
0.011184671
-1.5473174e-06
0.01118413
-1.4452302e-06
0.011183625
-1.3498151e-06
0.011183152
-1.2607261e-06
0.011182712
-1.1774924e-06
0.0111823
-1.0998672e-06
0.011181915
-1.0273329e-06
0.011181556
-9.5974715e-07
0.01118122
-8.964744e-07
0.011180907
-8.3757164e-07
0.011180614
-7.8222153e-07
0.011180341
-7.3085337e-07
0.011180086
-6.8232007e-07
0.011179847
-6.3765537e-07
0.011179625
-5.950496e-07
0.011179417
-5.5650477e-07
0.011179223
-5.1896918e-07
0.011179041
-4.8610438e-07
0.011178873
-4.5269546e-07
0.011178713
-4.2537197e-07
0.011178567
-3.9520008e-07
0.011178426
-3.7425031e-07
0.011178301
-3.471649e-07
0.011178178
-3.3610388e-07
-3.1080801e-07
0.010339525
-0.00069380424
0.010570754
-0.0010218027
0.0106063
-0.00095449451
0.010547572
-0.00084294337
0.010422317
-0.00071737084
0.010244356
-0.00057972445
0.010039421
-0.00045169203
0.0098287428
-0.00034297795
0.0096251353
-0.0002561631
0.0094353016
-0.00018991977
0.0092624278
-0.00014121894
0.0091075332
-0.00010650982
0.0089701538
-8.2320286e-05
0.0088489021
-6.5646328e-05
0.0087419714
-5.4127324e-05
0.0086474926
-4.6040076e-05
0.0085636941
-4.0194269e-05
0.0084890109
-3.5792691e-05
0.0084221099
-3.2318677e-05
0.0083618777
-2.9449214e-05
0.0083073955
-2.6988548e-05
0.0082579078
-2.482032e-05
0.0082127927
-2.2875539e-05
0.0081715351
-2.1112495e-05
0.0081337047
-1.9504723e-05
0.0080989387
-1.8034051e-05
0.0080669272
-1.6686718e-05
0.0080374037
-1.5451317e-05
0.0080101363
-1.4317795e-05
0.0079849215
-1.3277009e-05
0.0079615798
-1.2320555e-05
0.0079399518
-1.1440724e-05
0.007919895
-1.0630474e-05
0.0079012815
-9.8834262e-06
0.007883996
-9.1938312e-06
0.0078679344
-8.5565334e-06
0.0078530022
-7.9669218e-06
0.0078391133
-7.4208723e-06
0.0078261895
-6.9146937e-06
0.007814159
-6.445071e-06
0.0078029563
-6.0090181e-06
0.0077925213
-5.6038403e-06
0.0077827988
-5.2270971e-06
0.007773738
-4.8765829e-06
0.0077652919
-4.5502985e-06
0.0077574174
-4.2464341e-06
0.0077500743
-3.9633475e-06
0.0077432259
-3.6995404e-06
0.0077368376
-3.4536411e-06
0.0077308779
-3.2243828e-06
0.0077253173
-3.0105903e-06
0.0077201286
-2.8111724e-06
0.0077152864
-2.6251129e-06
0.0077107673
-2.451475e-06
0.0077065494
-2.2893953e-06
0.0077026124
-2.1380847e-06
0.0076989373
-1.9968224e-06
0.0076955065
-1.8649439e-06
0.0076923034
-1.741834e-06
0.0076893129
-1.626913e-06
0.0076865207
-1.5196301e-06
0.0076839135
-1.4194634e-06
0.007681479
-1.3259166e-06
0.0076792058
-1.2385302e-06
0.0076770832
-1.1568827e-06
0.0076751012
-1.0805917e-06
0.0076732503
-1.0093186e-06
0.0076715218
-9.4274832e-07
0.0076699075
-8.805961e-07
0.0076683999
-8.2257965e-07
0.0076669917
-7.6842849e-07
0.0076656766
-7.1787084e-07
0.0076644482
-6.7064757e-07
0.007663301
-6.2651076e-07
0.0076622297
-5.8524576e-07
0.0076612292
-5.46652e-07
0.0076602948
-5.1058099e-07
0.0076594221
-4.7687077e-07
0.0076586069
-4.4541736e-07
0.0076578455
-4.1605558e-07
0.0076571342
-3.8869452e-07
0.0076564698
-3.6313236e-07
0.0076558491
-3.3930325e-07
0.0076552695
-3.1696669e-07
0.0076547281
-2.9614198e-07
0.0076542226
-2.7654566e-07
0.0076537504
-2.5834584e-07
0.0076533096
-2.4116054e-07
0.0076528977
-2.253514e-07
0.0076525131
-2.1032443e-07
0.0076521534
-1.966973e-07
0.007651818
-1.8354099e-07
0.0076515037
-1.7184855e-07
0.0076512113
-1.6029853e-07
0.0076509363
-1.5032445e-07
0.0076506817
-1.4041894e-07
0.0076504396
-1.3209104e-07
0.0076502176
-1.2507275e-07
0.0076500009
-1.1945202e-07
-1.2580674e-07
0.0093061958
0.008284393
0.0073298985
0.0064869551
0.0057695843
0.00518986
0.0047381681
0.0043951902
0.004139027
0.0039491071
0.003807888
0.0037013781
0.0036190578
0.0035534116
0.0034992844
0.0034532445
0.0034130503
0.0033772575
0.0033449388
0.0033154894
0.0032885007
0.0032636804
0.0032408048
0.0032196924
0.0032001878
0.0031821539
0.0031654672
0.0031500159
0.003135698
0.0031224209
0.0031101002
0.0030986595
0.003088029
0.0030781456
0.0030689519
0.0030603955
0.0030524286
0.0030450077
0.003038093
0.0030316478
0.0030256387
0.0030200348
0.0030148077
0.0030099312
0.003005381
0.0030011346
0.0029971713
0.0029934718
0.0029900181
0.0029867936
0.0029837829
0.0029809717
0.0029783466
0.0029758952
0.0029736059
0.0029714679
0.0029694711
0.0029676062
0.0029658643
0.0029642373
0.0029627175
0.002961298
0.0029599721
0.0029587337
0.0029575769
0.0029564965
0.0029554872
0.0029545445
0.0029536638
0.002952841
0.0029520724
0.0029513545
0.0029506838
0.0029500574
0.0029494723
0.0029489258
0.0029484153
0.0029479385
0.002947493
0.0029470768
0.0029466879
0.0029463247
0.0029459854
0.0029456685
0.0029453725
0.0029450962
0.002944838
0.002944597
0.0029443717
0.0029441613
0.0029439645
0.002943781
0.0029436091
0.0029434489
0.0029432987
0.0029431583
0.0029430262
0.0029429012
0.0029427817
)
;

boundaryField
{
    top
    {
        type            calculated;
        value           uniform 0;
    }
    inlet
    {
        type            calculated;
        value           nonuniform List<scalar> 10(-0.01 -0.01 -0.01 -0.01 -0.01 -0.01 -0.01 -0.01 -0.01 -0.01);
    }
    outlet
    {
        type            calculated;
        value           nonuniform List<scalar> 10(0.0029426557 0.0076498155 0.011178072 0.013527891 0.014701569 0.014701569 0.013527891 0.011178073 0.0076498158 0.0029426559);
    }
    bottom
    {
        type            calculated;
        value           uniform 0;
    }
    back
    {
        type            empty;
        value           nonuniform List<scalar> 0();
    }
    front
    {
        type            empty;
        value           nonuniform List<scalar> 0();
    }
}


// ************************************************************************* //
