/*--------------------------------*- C++ -*----------------------------------*\
  =========                 |
  \\      /  F ield         | OpenFOAM: The Open Source CFD Toolbox
   \\    /   O peration     | Website:  https://openfoam.org
    \\  /    A nd           | Version:  9
     \\/     M anipulation  |
\*---------------------------------------------------------------------------*/
FoamFile
{
    format      ascii;
    class       volVectorField;
    location    "14";
    object      U;
}
// * * * * * * * * * * * * * * * * * * * * * * * * * * * * * * * * * * * * * //

dimensions      [0 1 -1 0 0 0 0];

internalField   nonuniform List<vector> 
1000
(
(0.91890839 0.035821913 0)
(0.86271384 0.062195639 0)
(0.7870597 0.062510091 0)
(0.69536032 0.054550396 0)
(0.61089744 0.044531652 0)
(0.54411591 0.034015972 0)
(0.49343012 0.02418754 0)
(0.45479414 0.016144229 0)
(0.42544583 0.010265784 0)
(0.40347314 0.0063041434 0)
(0.38715767 0.0037976283 0)
(0.3749622 0.0023103383 0)
(0.36566192 0.0014930165 0)
(0.35836272 0.0010851206 0)
(0.35244267 0.00090607457 0)
(0.347482 0.00084105299 0)
(0.34320348 0.00082372391 0)
(0.33942726 0.00081930885 0)
(0.33603794 0.00081184981 0)
(0.33296115 0.00079579931 0)
(0.33014778 0.00077081066 0)
(0.32756384 0.00073871009 0)
(0.32518419 0.00070189113 0)
(0.32298901 0.00066256805 0)
(0.32096171 0.00062250167 0)
(0.31908784 0.00058295859 0)
(0.31735449 0.00054477141 0)
(0.31574996 0.00050843284 0)
(0.31426361 0.00047418969 0)
(0.31288575 0.00044212281 0)
(0.31160755 0.00041220848 0)
(0.31042101 0.00038436177 0)
(0.30931882 0.00035846617 0)
(0.30829437 0.00033439212 0)
(0.30734164 0.0003120084 0)
(0.30645515 0.00029118866 0)
(0.30562991 0.00027181426 0)
(0.30486136 0.00025377578 0)
(0.30414535 0.00023697278 0)
(0.30347807 0.0002213133 0)
(0.30285601 0.00020671329 0)
(0.30227596 0.00019309557 0)
(0.30173496 0.00018038951 0)
(0.30123028 0.00016853028 0)
(0.30075941 0.00015745845 0)
(0.30032001 0.00014711966 0)
(0.29990992 0.00013746383 0)
(0.29952715 0.00012844501 0)
(0.29916983 0.00012002057 0)
(0.29883624 0.00011215084 0)
(0.29852478 0.00010479882 0)
(0.29823396 9.7929723e-05 0)
(0.2979624 9.1511141e-05 0)
(0.29770881 8.5512783e-05 0)
(0.297472 7.9906594e-05 0)
(0.29725084 7.4666782e-05 0)
(0.29704429 6.9769451e-05 0)
(0.29685138 6.5192677e-05 0)
(0.2966712 6.0915952e-05 0)
(0.29650291 5.691995e-05 0)
(0.29634572 5.3186445e-05 0)
(0.2961989 4.9697863e-05 0)
(0.29606175 4.6437748e-05 0)
(0.29593365 4.3390554e-05 0)
(0.295814 4.0541948e-05 0)
(0.29570223 3.7878994e-05 0)
(0.29559784 3.5389824e-05 0)
(0.29550032 3.3063757e-05 0)
(0.29540923 3.0890834e-05 0)
(0.29532414 2.8861365e-05 0)
(0.29524465 2.6966229e-05 0)
(0.29517039 2.519597e-05 0)
(0.29510103 2.3541977e-05 0)
(0.29503624 2.199562e-05 0)
(0.29497571 2.0549597e-05 0)
(0.29491918 1.9197011e-05 0)
(0.29486638 1.7932594e-05 0)
(0.29481706 1.6750719e-05 0)
(0.29477098 1.5647742e-05 0)
(0.29472794 1.4617633e-05 0)
(0.29468773 1.3657528e-05 0)
(0.29465016 1.2759867e-05 0)
(0.29461507 1.1922921e-05 0)
(0.29458229 1.1137823e-05 0)
(0.29455167 1.0405893e-05 0)
(0.29452309 9.7169205e-06 0)
(0.29449637 9.0774328e-06 0)
(0.29447144 8.4737122e-06 0)
(0.29444812 7.9190054e-06 0)
(0.29442637 7.3921017e-06 0)
(0.29440601 6.9145058e-06 0)
(0.29438703 6.454886e-06 0)
(0.29436926 6.0448008e-06 0)
(0.29435266 5.6464353e-06 0)
(0.29433721 5.2962724e-06 0)
(0.29432255 4.9744557e-06 0)
(0.29430926 4.6858187e-06 0)
(0.29429576 4.5347397e-06 0)
(0.29428508 4.405387e-06 0)
(0.2942688 5.0581867e-06 0)
(1.0016583 0.05381943 0)
(1.0359761 0.10128444 0)
(1.0597199 0.11073663 0)
(1.0628947 0.10592202 0)
(1.0515569 0.09622873 0)
(1.0340529 0.083934063 0)
(1.0142795 0.070327063 0)
(0.99360703 0.056981332 0)
(0.97292578 0.045107476 0)
(0.95310741 0.035236746 0)
(0.9347954 0.027401647 0)
(0.91829012 0.021387227 0)
(0.90362379 0.016884501 0)
(0.89068066 0.013569713 0)
(0.87928173 0.011147753 0)
(0.86923241 0.0093736623 0)
(0.86034423 0.008056929 0)
(0.85244667 0.0070571256 0)
(0.84539242 0.0062752346 0)
(0.83905794 0.0056438245 0)
(0.83334127 0.0051180883 0)
(0.82815884 0.0046686719 0)
(0.82344212 0.0042764194 0)
(0.81913466 0.0039287426 0)
(0.8151896 0.0036172077 0)
(0.81156764 0.0033359735 0)
(0.80823543 0.003080805 0)
(0.8051644 0.0028484676 0)
(0.8023298 0.0026363662 0)
(0.79971 0.0024423348 0)
(0.79728598 0.0022645159 0)
(0.79504086 0.0021012888 0)
(0.79295962 0.0019512265 0)
(0.79102879 0.001813066 0)
(0.78923626 0.0016856873 0)
(0.78757109 0.0015680957 0)
(0.78602337 0.0014594073 0)
(0.78458411 0.0013588353 0)
(0.78324512 0.0012656781 0)
(0.7819989 0.0011793085 0)
(0.78083861 0.0010991642 0)
(0.77975799 0.0010247396 0)
(0.77875127 0.00095557895 0)
(0.77781317 0.00089127007 0)
(0.7769388 0.00083143976 0)
(0.77612367 0.00077574933 0)
(0.77536362 0.00072389054 0)
(0.77465481 0.00067558235 0)
(0.77399368 0.0006305676 0)
(0.77337694 0.0005886102 0)
(0.77280154 0.00054949286 0)
(0.77226464 0.00051301482 0)
(0.77176363 0.00047899067 0)
(0.77129605 0.00044724887 0)
(0.77085966 0.0004176309 0)
(0.77045233 0.00038999054 0)
(0.77007211 0.00036419266 0)
(0.76971717 0.00034011257 0)
(0.76938581 0.00031763468 0)
(0.76907645 0.00029665144 0)
(0.76878761 0.00027706253 0)
(0.76851791 0.00025877386 0)
(0.76826609 0.00024169752 0)
(0.76803095 0.00022575127 0)
(0.76781137 0.00021085877 0)
(0.76760634 0.00019694938 0)
(0.76741488 0.00018395799 0)
(0.76723608 0.00017182443 0)
(0.76706911 0.00016049312 0)
(0.76691317 0.00014991151 0)
(0.76676753 0.00014003083 0)
(0.7666315 0.00013080358 0)
(0.76650446 0.0001221862 0)
(0.76638581 0.00011413594 0)
(0.766275 0.0001066153 0)
(0.76617151 9.9587236e-05 0)
(0.76607485 9.3021682e-05 0)
(0.76598458 8.6886361e-05 0)
(0.76590027 8.1158332e-05 0)
(0.76582152 7.5806486e-05 0)
(0.76574795 7.0813815e-05 0)
(0.76567925 6.6146435e-05 0)
(0.76561505 6.1794519e-05 0)
(0.76555512 5.771882e-05 0)
(0.76549909 5.3922272e-05 0)
(0.76544684 5.0356656e-05 0)
(0.76539796 4.7046091e-05 0)
(0.7653524 4.3924296e-05 0)
(0.76530973 4.1047213e-05 0)
(0.76527001 3.8313424e-05 0)
(0.76523276 3.5826682e-05 0)
(0.76519808 3.3426864e-05 0)
(0.76516562 3.1292574e-05 0)
(0.76513523 2.9176984e-05 0)
(0.76510718 2.7372323e-05 0)
(0.76508004 2.5518744e-05 0)
(0.76505671 2.4062766e-05 0)
(0.76503065 2.2549777e-05 0)
(0.76501453 2.1597833e-05 0)
(0.76498353 2.0995531e-05 0)
(1.0014244 0.026824855 0)
(1.0291272 0.062791354 0)
(1.0654292 0.077736555 0)
(1.098962 0.080597202 0)
(1.1253148 0.078285173 0)
(1.145053 0.073153902 0)
(1.1594858 0.066111279 0)
(1.1694287 0.058162062 0)
(1.1755354 0.050296751 0)
(1.1785738 0.043150705 0)
(1.1793571 0.036972822 0)
(1.178595 0.031771631 0)
(1.1768304 0.027451841 0)
(1.1744518 0.023886772 0)
(1.1717287 0.020947625 0)
(1.1688444 0.018515784 0)
(1.1659194 0.016488087 0)
(1.1630317 0.014779502 0)
(1.1602295 0.013322983 0)
(1.1575415 0.012067129 0)
(1.1549828 0.010972997 0)
(1.1525601 0.01001106 0)
(1.1502747 0.0091587475 0)
(1.1481246 0.0083986072 0)
(1.1461059 0.0077169548 0)
(1.1442134 0.0071028924 0)
(1.1424414 0.0065475947 0)
(1.1407838 0.0060437961 0)
(1.1392344 0.0055854246 0)
(1.1377869 0.0051673417 0)
(1.1364353 0.0047851538 0)
(1.1351738 0.0044350739 0)
(1.1339968 0.0041138165 0)
(1.1328987 0.0038185147 0)
(1.1318746 0.0035466565 0)
(1.1309195 0.0032960311 0)
(1.1300289 0.0030646863 0)
(1.1291985 0.0028508919 0)
(1.1284242 0.0026531093 0)
(1.1277022 0.0024699657 0)
(1.1270291 0.0023002319 0)
(1.1264014 0.0021428038 0)
(1.1258161 0.0019966866 0)
(1.1252702 0.0018609814 0)
(1.1247612 0.0017348739 0)
(1.1242865 0.0016176248 0)
(1.1238437 0.0015085614 0)
(1.1234307 0.0014070706 0)
(1.1230455 0.0013125918 0)
(1.1226861 0.0012246121 0)
(1.1223509 0.0011426604 0)
(1.1220381 0.0010663033 0)
(1.1217462 0.00099514176 0)
(1.1214739 0.00092880703 0)
(1.1212198 0.00086695901 0)
(1.1209827 0.00080928324 0)
(1.1207614 0.0007554894 0)
(1.1205548 0.00070530918 0)
(1.1203621 0.00065849431 0)
(1.1201821 0.00061481484 0)
(1.1200142 0.00057405718 0)
(1.1198574 0.00053602263 0)
(1.1197111 0.00050052621 0)
(1.1195744 0.00046739518 0)
(1.1194469 0.00043646916 0)
(1.1193278 0.00040759846 0)
(1.1192167 0.00038064483 0)
(1.1191129 0.00035547958 0)
(1.119016 0.00033198397 0)
(1.1189255 0.00031004689 0)
(1.118841 0.00028956581 0)
(1.1187621 0.00027044285 0)
(1.1186885 0.00025258858 0)
(1.1186197 0.00023591537 0)
(1.1185554 0.00022034624 0)
(1.1184954 0.00020580289 0)
(1.1184394 0.0001922215 0)
(1.1183871 0.00017953213 0)
(1.1183383 0.00016768504 0)
(1.1182927 0.00015661428 0)
(1.11825 0.00014628502 0)
(1.1182103 0.00013662777 0)
(1.1181731 0.00012762612 0)
(1.1181384 0.00011919738 0)
(1.1181059 0.00011135406 0)
(1.1180757 0.0001039866 0)
(1.1180473 9.7157134e-05 0)
(1.1180211 9.0703759e-05 0)
(1.1179962 8.4774429e-05 0)
(1.1179735 7.9104331e-05 0)
(1.1179517 7.3992343e-05 0)
(1.1179319 6.8977133e-05 0)
(1.1179128 6.4632398e-05 0)
(1.1178955 6.0131072e-05 0)
(1.1178791 5.6558296e-05 0)
(1.1178636 5.2414043e-05 0)
(1.1178501 4.9730101e-05 0)
(1.117835 4.580043e-05 0)
(1.1178262 4.4320407e-05 0)
(1.1178084 4.0580621e-05 0)
(1.0007347 0.011814723 0)
(1.0178472 0.030860929 0)
(1.0462163 0.041434444 0)
(1.0799018 0.045193572 0)
(1.1132664 0.045502353 0)
(1.143782 0.044080309 0)
(1.1708941 0.041439982 0)
(1.1945687 0.037973677 0)
(1.2148582 0.034195728 0)
(1.2319652 0.030536885 0)
(1.2462683 0.027222043 0)
(1.2582339 0.02431392 0)
(1.2683135 0.021797889 0)
(1.2768875 0.019633662 0)
(1.2842554 0.01777383 0)
(1.2906479 0.016169655 0)
(1.296243 0.014775592 0)
(1.3011791 0.013552298 0)
(1.3055645 0.012467862 0)
(1.3094838 0.011497463 0)
(1.3130042 0.010622159 0)
(1.3161792 0.0098275114 0)
(1.3190526 0.009102411 0)
(1.3216607 0.0084381788 0)
(1.3240343 0.0078279074 0)
(1.3261994 0.0072659786 0)
(1.3281786 0.0067477122 0)
(1.3299913 0.0062691185 0)
(1.3316544 0.0058267272 0)
(1.3331829 0.0054174714 0)
(1.3345896 0.0050386095 0)
(1.3358862 0.0046876713 0)
(1.3370827 0.0043624185 0)
(1.3381882 0.0040608155 0)
(1.3392108 0.003781007 0)
(1.3401576 0.0035212986 0)
(1.3410349 0.0032801418 0)
(1.3418486 0.0030561195 0)
(1.3426038 0.0028479339 0)
(1.3433051 0.0026543956 0)
(1.3439569 0.0024744128 0)
(1.3445629 0.002306983 0)
(1.3451267 0.0021511839 0)
(1.3456513 0.0020061668 0)
(1.3461398 0.0018711501 0)
(1.3465947 0.0017454131 0)
(1.3470185 0.0016282913 0)
(1.3474135 0.0015191716 0)
(1.3477816 0.0014174881 0)
(1.3481249 0.0013227175 0)
(1.3484449 0.001234376 0)
(1.3487435 0.0011520153 0)
(1.349022 0.0010752199 0)
(1.3492818 0.001003604 0)
(1.3495242 0.00093680978 0)
(1.3497505 0.00087450479 0)
(1.3499616 0.00081638091 0)
(1.3501587 0.0007621521 0)
(1.3503427 0.00071155323 0)
(1.3505145 0.00066433799 0)
(1.3506748 0.00062027747 0)
(1.3508245 0.00057915869 0)
(1.3509643 0.000540783 0)
(1.3510948 0.00050496492 0)
(1.3512167 0.00047153174 0)
(1.3513305 0.00044032192 0)
(1.3514368 0.00041118601 0)
(1.3515361 0.00038398424 0)
(1.3516288 0.00035858817 0)
(1.3517153 0.00033487708 0)
(1.3517962 0.00031274038 0)
(1.3518717 0.00029207232 0)
(1.3519422 0.00027277668 0)
(1.3520081 0.00025475903 0)
(1.3520696 0.00023793655 0)
(1.3521271 0.0002222238 0)
(1.3521807 0.00020755223 0)
(1.3522309 0.00019384395 0)
(1.3522777 0.00018104702 0)
(1.3523215 0.00016908653 0)
(1.3523623 0.00015792931 0)
(1.3524005 0.00014749456 0)
(1.3524361 0.00013777372 0)
(1.3524695 0.00012866577 0)
(1.3525004 0.00012020189 0)
(1.3525296 0.00011223845 0)
(1.3525565 0.00010487768 0)
(1.3525822 9.7893307e-05 0)
(1.3526054 9.1515878e-05 0)
(1.3526282 8.5359086e-05 0)
(1.352648 7.9884814e-05 0)
(1.3526684 7.4403299e-05 0)
(1.352685 6.9795747e-05 0)
(1.3527037 6.4816189e-05 0)
(1.3527171 6.1101044e-05 0)
(1.3527349 5.6421424e-05 0)
(1.3527447 5.3726579e-05 0)
(1.3527629 4.9133775e-05 0)
(1.3527684 4.7704523e-05 0)
(1.3527889 4.2966038e-05 0)
(1.0005903 0.0034629174 0)
(1.0136865 0.0093660227 0)
(1.0370283 0.013046809 0)
(1.0674202 0.014563264 0)
(1.1000315 0.014854526 0)
(1.1316428 0.014564991 0)
(1.1610745 0.013888337 0)
(1.1880674 0.012919244 0)
(1.2125205 0.011806505 0)
(1.2343939 0.010696426 0)
(1.2538077 0.0096727422 0)
(1.2710339 0.0087628232 0)
(1.286401 0.0079659756 0)
(1.3002112 0.0072722171 0)
(1.3127102 0.0066688109 0)
(1.3240903 0.006141927 0)
(1.3345036 0.0056780728 0)
(1.3440716 0.0052653204 0)
(1.3528927 0.0048939337 0)
(1.3610463 0.0045563943 0)
(1.3685975 0.0042470688 0)
(1.3756004 0.0039617759 0)
(1.3821012 0.0036973989 0)
(1.3881402 0.0034515848 0)
(1.3937533 0.0032225213 0)
(1.3989728 0.0030087723 0)
(1.4038279 0.0028091595 0)
(1.4083456 0.0026226796 0)
(1.4125503 0.002448449 0)
(1.4164646 0.0022856694 0)
(1.4201095 0.0021336062 0)
(1.423504 0.0019915755 0)
(1.4266661 0.0018589366 0)
(1.4296121 0.0017350873 0)
(1.4323573 0.0016194608 0)
(1.4349158 0.0015115237 0)
(1.4373007 0.0014107746 0)
(1.439524 0.0013167426 0)
(1.441597 0.0012289857 0)
(1.4435301 0.0011470892 0)
(1.4453329 0.0010706649 0)
(1.4470143 0.00099934872 0)
(1.4485827 0.00093280013 0)
(1.4500459 0.00087070062 0)
(1.451411 0.00081275228 0)
(1.4526846 0.00075867702 0)
(1.4538731 0.00070821532 0)
(1.4549821 0.00066112497 0)
(1.4560171 0.00061718018 0)
(1.4569831 0.00057617015 0)
(1.4578847 0.00053789836 0)
(1.4587262 0.00050218109 0)
(1.4595117 0.00046884683 0)
(1.460245 0.00043773556 0)
(1.4609295 0.00040869767 0)
(1.4615685 0.00038159404 0)
(1.4621651 0.00035629488 0)
(1.4627221 0.00033267935 0)
(1.4632422 0.00031063509 0)
(1.4637278 0.00029005715 0)
(1.4641812 0.00027084792 0)
(1.4646045 0.00025291593 0)
(1.4649998 0.00023617575 0)
(1.4653689 0.00022054761 0)
(1.4657136 0.00020595682 0)
(1.4660355 0.00019233389 0)
(1.4663361 0.00017961429 0)
(1.4666168 0.00016773765 0)
(1.466879 0.00015664862 0)
(1.4671238 0.00014629472 0)
(1.4673524 0.00013662793 0)
(1.467566 0.00012760197 0)
(1.4677654 0.00011917493 0)
(1.4679516 0.00011130528 0)
(1.4681256 0.00010395667 0)
(1.468288 9.7091738e-05 0)
(1.4684397 9.068113e-05 0)
(1.4685815 8.4690447e-05 0)
(1.4687138 7.9098223e-05 0)
(1.4688375 7.387077e-05 0)
(1.4689529 6.8995626e-05 0)
(1.4690608 6.4435036e-05 0)
(1.4691614 6.0188485e-05 0)
(1.4692557 5.6207068e-05 0)
(1.4693433 5.2510387e-05 0)
(1.4694257 4.9026893e-05 0)
(1.4695019 4.5813242e-05 0)
(1.4695741 4.2754269e-05 0)
(1.4696402 3.9973505e-05 0)
(1.4697038 3.7272321e-05 0)
(1.4697606 3.4892925e-05 0)
(1.4698172 3.2481406e-05 0)
(1.4698654 3.04904e-05 0)
(1.4699167 2.8289493e-05 0)
(1.4699561 2.6698987e-05 0)
(1.4700046 2.461663e-05 0)
(1.4700341 2.3477463e-05 0)
(1.4700832 2.1416863e-05 0)
(1.4701002 2.0814538e-05 0)
(1.4701557 1.8658685e-05 0)
(1.0005903 -0.0034629138 0)
(1.0136865 -0.0093660159 0)
(1.0370283 -0.013046802 0)
(1.0674202 -0.014563259 0)
(1.1000315 -0.014854524 0)
(1.1316428 -0.014564992 0)
(1.1610745 -0.01388834 0)
(1.1880674 -0.012919247 0)
(1.2125205 -0.011806507 0)
(1.2343939 -0.010696426 0)
(1.2538077 -0.0096727394 0)
(1.2710339 -0.0087628184 0)
(1.286401 -0.00796597 0)
(1.3002112 -0.0072722122 0)
(1.3127102 -0.0066688081 0)
(1.3240903 -0.0061419267 0)
(1.3345036 -0.005678075 0)
(1.3440716 -0.0052653238 0)
(1.3528927 -0.0048939369 0)
(1.3610463 -0.0045563958 0)
(1.3685975 -0.0042470678 0)
(1.3756004 -0.0039617726 0)
(1.3821012 -0.0036973941 0)
(1.3881402 -0.0034515798 0)
(1.3937533 -0.0032225174 0)
(1.3989728 -0.0030087704 0)
(1.4038279 -0.0028091597 0)
(1.4083456 -0.0026226812 0)
(1.4125503 -0.002448451 0)
(1.4164646 -0.0022856706 0)
(1.4201095 -0.0021336056 0)
(1.423504 -0.0019915731 0)
(1.4266661 -0.0018589329 0)
(1.4296121 -0.0017350833 0)
(1.4323573 -0.0016194577 0)
(1.4349158 -0.0015115224 0)
(1.4373007 -0.0014107753 0)
(1.439524 -0.0013167448 0)
(1.441597 -0.0012289883 0)
(1.4435301 -0.0011470913 0)
(1.4453329 -0.0010706653 0)
(1.4470143 -0.00099934751 0)
(1.4485827 -0.0009327976 0)
(1.4500459 -0.00087069769 0)
(1.451411 -0.00081275001 0)
(1.4526846 -0.00075867625 0)
(1.4538731 -0.0007082163 0)
(1.4549821 -0.00066112726 0)
(1.4560171 -0.00061718291 0)
(1.4569831 -0.0005761723 0)
(1.4578847 -0.00053789894 0)
(1.4587262 -0.00050217998 0)
(1.4595117 -0.00046884441 0)
(1.460245 -0.00043773284 0)
(1.4609295 -0.00040869595 0)
(1.4615685 -0.00038159413 0)
(1.4621651 -0.00035629712 0)
(1.4627221 -0.00033268323 0)
(1.4632422 -0.00031063963 0)
(1.4637278 -0.00029006125 0)
(1.4641812 -0.00027085049 0)
(1.4646045 -0.00025291683 0)
(1.4649998 -0.00023617537 0)
(1.4653689 -0.00022054693 0)
(1.4657136 -0.00020595705 0)
(1.4660355 -0.00019233559 0)
(1.4663361 -0.00017961746 0)
(1.4666168 -0.00016774115 0)
(1.466879 -0.00015665074 0)
(1.4671238 -0.00014629341 0)
(1.4673524 -0.00013662178 0)
(1.467566 -0.00012759069 0)
(1.4677654 -0.00011915919 0)
(1.4679516 -0.00011128719 0)
(1.4681256 -0.00010393913 0)
(1.468288 -9.7077499e-05 0)
(1.4684397 -9.067213e-05 0)
(1.4685815 -8.4687393e-05 0)
(1.4687138 -7.9100711e-05 0)
(1.4688375 -7.3877419e-05 0)
(1.4689529 -6.9004703e-05 0)
(1.4690608 -6.4445456e-05 0)
(1.4691614 -6.0199856e-05 0)
(1.4692557 -5.6220231e-05 0)
(1.4693433 -5.2527029e-05 0)
(1.4694257 -4.9048847e-05 0)
(1.4695019 -4.5842095e-05 0)
(1.4695741 -4.2790137e-05 0)
(1.4696402 -4.0015452e-05 0)
(1.4697038 -3.7317698e-05 0)
(1.4697606 -3.493887e-05 0)
(1.4698172 -3.2524634e-05 0)
(1.4698654 -3.0528944e-05 0)
(1.4699167 -2.8321719e-05 0)
(1.4699561 -2.672485e-05 0)
(1.4700046 -2.4636851e-05 0)
(1.4700341 -2.3491816e-05 0)
(1.4700832 -2.1426514e-05 0)
(1.4701002 -2.0819977e-05 0)
(1.4701558 -1.8659562e-05 0)
(1.0007347 -0.011814719 0)
(1.0178472 -0.030860923 0)
(1.0462163 -0.041434438 0)
(1.0799018 -0.045193569 0)
(1.1132664 -0.045502353 0)
(1.143782 -0.044080311 0)
(1.1708941 -0.041439986 0)
(1.1945687 -0.03797368 0)
(1.2148582 -0.034195728 0)
(1.2319652 -0.030536882 0)
(1.2462683 -0.027222038 0)
(1.2582339 -0.024313914 0)
(1.2683135 -0.021797884 0)
(1.2768875 -0.01963366 0)
(1.2842554 -0.01777383 0)
(1.2906479 -0.016169658 0)
(1.296243 -0.014775596 0)
(1.3011791 -0.013552301 0)
(1.3055645 -0.012467864 0)
(1.3094838 -0.011497462 0)
(1.3130042 -0.010622156 0)
(1.3161792 -0.0098275068 0)
(1.3190526 -0.0091024066 0)
(1.3216607 -0.0084381756 0)
(1.3240343 -0.0078279062 0)
(1.3261994 -0.0072659791 0)
(1.3281786 -0.0067477139 0)
(1.3299913 -0.0062691203 0)
(1.3316544 -0.005826728 0)
(1.3331829 -0.0054174705 0)
(1.3345896 -0.005038607 0)
(1.3358862 -0.0046876677 0)
(1.3370827 -0.0043624148 0)
(1.3381883 -0.0040608128 0)
(1.3392108 -0.003781006 0)
(1.3401576 -0.0035212995 0)
(1.3410349 -0.0032801439 0)
(1.3418486 -0.0030561219 0)
(1.3426038 -0.0028479356 0)
(1.3433051 -0.0026543957 0)
(1.3439569 -0.0024744115 0)
(1.344563 -0.0023069805 0)
(1.3451267 -0.0021511812 0)
(1.3456513 -0.002006165 0)
(1.3461398 -0.0018711497 0)
(1.3465947 -0.0017454143 0)
(1.3470185 -0.0016282935 0)
(1.3474135 -0.0015191741 0)
(1.3477816 -0.0014174897 0)
(1.3481249 -0.0013227176 0)
(1.3484449 -0.0012343745 0)
(1.3487435 -0.0011520128 0)
(1.349022 -0.0010752173 0)
(1.3492818 -0.0010036026 0)
(1.3495242 -0.00093681005 0)
(1.3497505 -0.00087450707 0)
(1.3499616 -0.00081638451 0)
(1.3501587 -0.00076215602 0)
(1.3503427 -0.00071155631 0)
(1.3505145 -0.00066433944 0)
(1.3506748 -0.00062027745 0)
(1.3508245 -0.00057915772 0)
(1.3509643 -0.0005407822 0)
(1.3510948 -0.0005049654 0)
(1.3512167 -0.0004715339 0)
(1.3513305 -0.00044032569 0)
(1.3514368 -0.00041119012 0)
(1.3515361 -0.00038398713 0)
(1.3516288 -0.00035858803 0)
(1.3517153 -0.0003348726 0)
(1.3517962 -0.00031273129 0)
(1.3518717 -0.00029205931 0)
(1.3519423 -0.00027276184 0)
(1.3520081 -0.00025474465 0)
(1.3520696 -0.00023792464 0)
(1.3521271 -0.00022221591 0)
(1.3521807 -0.00020754875 0)
(1.3522309 -0.00019384442 0)
(1.3522777 -0.00018105012 0)
(1.3523215 -0.00016909098 0)
(1.3523623 -0.00015793456 0)
(1.3524005 -0.00014750061 0)
(1.3524361 -0.00013778172 0)
(1.3524695 -0.00012867727 0)
(1.3525004 -0.00012021839 0)
(1.3525296 -0.00011226128 0)
(1.3525565 -0.00010490671 0)
(1.3525822 -9.7927812e-05 0)
(1.3526054 -9.1553506e-05 0)
(1.3526282 -8.5397644e-05 0)
(1.352648 -7.9921606e-05 0)
(1.3526684 -7.443685e-05 0)
(1.352685 -6.9824902e-05 0)
(1.3527038 -6.4841125e-05 0)
(1.3527171 -6.1121544e-05 0)
(1.3527349 -5.643792e-05 0)
(1.3527447 -5.3738487e-05 0)
(1.3527629 -4.9142124e-05 0)
(1.3527684 -4.7708974e-05 0)
(1.3527889 -4.2966671e-05 0)
(1.0014244 -0.026824852 0)
(1.0291272 -0.062791349 0)
(1.0654292 -0.077736551 0)
(1.098962 -0.080597202 0)
(1.1253148 -0.078285175 0)
(1.145053 -0.073153905 0)
(1.1594858 -0.066111282 0)
(1.1694287 -0.058162062 0)
(1.1755354 -0.050296748 0)
(1.1785738 -0.043150699 0)
(1.1793571 -0.036972816 0)
(1.178595 -0.031771626 0)
(1.1768304 -0.027451839 0)
(1.1744518 -0.023886773 0)
(1.1717287 -0.020947629 0)
(1.1688444 -0.018515789 0)
(1.1659194 -0.01648809 0)
(1.1630317 -0.014779503 0)
(1.1602295 -0.01332298 0)
(1.1575415 -0.012067124 0)
(1.1549828 -0.010972992 0)
(1.1525601 -0.010011055 0)
(1.1502747 -0.0091587453 0)
(1.1481246 -0.0083986078 0)
(1.1461059 -0.0077169577 0)
(1.1442134 -0.0071028961 0)
(1.1424414 -0.0065475975 0)
(1.1407838 -0.0060437968 0)
(1.1392344 -0.0055854227 0)
(1.1377869 -0.0051673376 0)
(1.1364353 -0.0047851488 0)
(1.1351739 -0.0044350697 0)
(1.1339968 -0.0041138143 0)
(1.1328987 -0.0038185151 0)
(1.1318746 -0.0035466591 0)
(1.1309195 -0.0032960348 0)
(1.1300289 -0.0030646895 0)
(1.1291985 -0.0028508934 0)
(1.1284242 -0.0026531084 0)
(1.1277023 -0.0024699627 0)
(1.1270291 -0.002300228 0)
(1.1264014 -0.0021428004 0)
(1.1258161 -0.0019966851 0)
(1.1252702 -0.0018609823 0)
(1.1247612 -0.0017348768 0)
(1.1242865 -0.0016176286 0)
(1.1238437 -0.0015085646 0)
(1.1234307 -0.0014070718 0)
(1.1230455 -0.0013125906 0)
(1.1226861 -0.0012246087 0)
(1.1223509 -0.0011426562 0)
(1.1220381 -0.0010662999 0)
(1.1217462 -0.0009951406 0)
(1.1214739 -0.0009288087 0)
(1.1212198 -0.00086696305 0)
(1.1209826 -0.00080928836 0)
(1.1207613 -0.00075549382 0)
(1.1205548 -0.00070531146 0)
(1.1203621 -0.00065849378 0)
(1.1201821 -0.00061481201 0)
(1.1200142 -0.00057405365 0)
(1.1198574 -0.00053602022 0)
(1.1197111 -0.00050052653 0)
(1.1195744 -0.00046739872 0)
(1.1194469 -0.00043647502 0)
(1.1193278 -0.00040760482 0)
(1.1192167 -0.00038064911 0)
(1.1191129 -0.00035547977 0)
(1.119016 -0.00033197898 0)
(1.1189255 -0.00031003726 0)
(1.118841 -0.00028955344 0)
(1.1187622 -0.00027043035 0)
(1.1186885 -0.00025257869 0)
(1.1186197 -0.00023590979 0)
(1.1185554 -0.00022034518 0)
(1.1184954 -0.00020580519 0)
(1.1184394 -0.00019222506 0)
(1.1183871 -0.00017953484 0)
(1.1183382 -0.00016768561 0)
(1.1182927 -0.00015661277 0)
(1.11825 -0.00014628303 0)
(1.1182103 -0.00013662764 0)
(1.1181731 -0.00012763053 0)
(1.1181384 -0.00011920814 0)
(1.1181059 -0.00011137161 0)
(1.1180757 -0.00010401004 0)
(1.1180473 -9.7184084e-05 0)
(1.1180211 -9.0731785e-05 0)
(1.1179962 -8.4800855e-05 0)
(1.1179735 -7.9128113e-05 0)
(1.1179517 -7.4012777e-05 0)
(1.1179319 -6.8995296e-05 0)
(1.1179129 -6.4648689e-05 0)
(1.1178956 -6.0146712e-05 0)
(1.1178791 -5.6572579e-05 0)
(1.1178636 -5.2426739e-05 0)
(1.1178501 -4.9740014e-05 0)
(1.117835 -4.5807704e-05 0)
(1.1178263 -4.4324827e-05 0)
(1.1178084 -4.0581789e-05 0)
(1.0016583 -0.053819429 0)
(1.0359761 -0.10128443 0)
(1.0597199 -0.11073663 0)
(1.0628947 -0.10592202 0)
(1.0515569 -0.096228732 0)
(1.0340529 -0.083934064 0)
(1.0142795 -0.070327063 0)
(0.99360704 -0.056981329 0)
(0.97292579 -0.045107471 0)
(0.95310742 -0.035236741 0)
(0.9347954 -0.027401643 0)
(0.91829012 -0.021387226 0)
(0.90362378 -0.016884503 0)
(0.89068065 -0.013569718 0)
(0.87928172 -0.011147758 0)
(0.8692324 -0.0093736658 0)
(0.86034423 -0.0080569297 0)
(0.85244668 -0.0070571231 0)
(0.84539244 -0.0062752298 0)
(0.83905795 -0.0056438191 0)
(0.83334128 -0.005118084 0)
(0.82815884 -0.0046686703 0)
(0.82344211 -0.0042764207 0)
(0.81913465 -0.003928746 0)
(0.81518959 -0.003617212 0)
(0.81156763 -0.0033359768 0)
(0.80823543 -0.0030808061 0)
(0.8051644 -0.002848466 0)
(0.8023298 -0.0026363623 0)
(0.79971001 -0.0024423302 0)
(0.79728598 -0.0022645119 0)
(0.79504086 -0.002101287 0)
(0.79295962 -0.0019512272 0)
(0.79102879 -0.0018130689 0)
(0.78923625 -0.0016856912 0)
(0.78757109 -0.001568099 0)
(0.78602337 -0.0014594088 0)
(0.78458412 -0.0013588344 0)
(0.78324512 -0.0012656751 0)
(0.7819989 -0.0011793046 0)
(0.78083861 -0.0010991608 0)
(0.77975799 -0.0010247382 0)
(0.77875127 -0.00095557989 0)
(0.77781316 -0.00089127307 0)
(0.77693879 -0.0008314437 0)
(0.77612366 -0.00077575259 0)
(0.77536362 -0.00072389189 0)
(0.77465481 -0.00067558117 0)
(0.77399369 -0.00063056428 0)
(0.77337695 -0.00058860606 0)
(0.77280154 -0.00054948941 0)
(0.77226464 -0.0005130136 0)
(0.77176362 -0.0004789922 0)
(0.77129605 -0.00044725273 0)
(0.77085965 -0.0004176358 0)
(0.77045232 -0.00038999462 0)
(0.77007211 -0.00036419456 0)
(0.76971718 -0.00034011161 0)
(0.76938582 -0.00031763139 0)
(0.76907646 -0.00029664736 0)
(0.76878761 -0.00027705944 0)
(0.76851791 -0.00025877344 0)
(0.76826609 -0.00024170026 0)
(0.76803094 -0.00022575645 0)
(0.76781137 -0.00021086466 0)
(0.76760634 -0.00019695353 0)
(0.76741489 -0.00018395864 0)
(0.7672361 -0.00017182056 0)
(0.76706913 -0.00016048538 0)
(0.76691319 -0.00014990189 0)
(0.76676754 -0.00014002177 0)
(0.76663151 -0.00013079767 0)
(0.76650446 -0.00012218468 0)
(0.76638581 -0.00011413876 0)
(0.76627499 -0.00010662096 0)
(0.7661715 -9.9593155e-05 0)
(0.76607484 -9.3025643e-05 0)
(0.76598458 -8.6886759e-05 0)
(0.76590027 -8.115522e-05 0)
(0.76582153 -7.5801486e-05 0)
(0.76574796 -7.0809306e-05 0)
(0.76567925 -6.6145307e-05 0)
(0.76561504 -6.1798575e-05 0)
(0.76555511 -5.7728668e-05 0)
(0.76549908 -5.3936939e-05 0)
(0.76544682 -5.0373806e-05 0)
(0.76539795 -4.7063324e-05 0)
(0.7653524 -4.3939205e-05 0)
(0.76530974 -4.1058824e-05 0)
(0.76527002 -3.8321686e-05 0)
(0.76523278 -3.5832803e-05 0)
(0.76519811 -3.3432128e-05 0)
(0.76516564 -3.1298403e-05 0)
(0.76513525 -2.9183768e-05 0)
(0.76510721 -2.73799e-05 0)
(0.76508006 -2.5525984e-05 0)
(0.76505674 -2.4069385e-05 0)
(0.76503068 -2.2555565e-05 0)
(0.76501456 -2.1601861e-05 0)
(0.76498355 -2.099698e-05 0)
(0.91890839 -0.035821912 0)
(0.86271384 -0.062195639 0)
(0.78705969 -0.062510091 0)
(0.69536031 -0.054550397 0)
(0.61089743 -0.044531653 0)
(0.54411591 -0.034015972 0)
(0.49343013 -0.024187539 0)
(0.45479415 -0.016144227 0)
(0.42544584 -0.010265781 0)
(0.40347315 -0.0063041413 0)
(0.38715767 -0.0037976275 0)
(0.37496219 -0.0023103392 0)
(0.36566191 -0.0014930186 0)
(0.35836271 -0.0010851231 0)
(0.35244266 -0.00090607652 0)
(0.347482 -0.0008410536 0)
(0.34320349 -0.00082372303 0)
(0.33942727 -0.00081930679 0)
(0.33603794 -0.00081184733 0)
(0.33296115 -0.00079579732 0)
(0.33014778 -0.00077080974 0)
(0.32756384 -0.00073871056 0)
(0.32518419 -0.00070189267 0)
(0.322989 -0.00066257006 0)
(0.32096171 -0.0006225034 0)
(0.31908784 -0.00058295936 0)
(0.31735449 -0.000544771 0)
(0.31574996 -0.00050843137 0)
(0.31426361 -0.00047418769 0)
(0.31288575 -0.00044212103 0)
(0.31160755 -0.00041220747 0)
(0.31042101 -0.00038436192 0)
(0.30931882 -0.00035846731 0)
(0.30829437 -0.0003343938 0)
(0.30734163 -0.00031200998 0)
(0.30645515 -0.00029118948 0)
(0.30562991 -0.00027181407 0)
(0.30486137 -0.00025377461 0)
(0.30414536 -0.00023697109 0)
(0.30347807 -0.00022131177 0)
(0.30285601 -0.00020671245 0)
(0.30227595 -0.0001930958 0)
(0.30173495 -0.00018039067 0)
(0.30123028 -0.00016853195 0)
(0.30075941 -0.00015746 0)
(0.30032001 -0.00014712042 0)
(0.29990993 -0.00013746355 0)
(0.29952716 -0.00012844373 0)
(0.29916984 -0.00012001878 0)
(0.29883625 -0.00011214926 0)
(0.29852478 -0.00010479804 0)
(0.29823396 -9.7930166e-05 0)
(0.2979624 -9.1512629e-05 0)
(0.29770881 -8.5514835e-05 0)
(0.29747199 -7.9908469e-05 0)
(0.29725084 -7.4667737e-05 0)
(0.29704429 -6.9769217e-05 0)
(0.29685138 -6.519133e-05 0)
(0.29667121 -6.0914091e-05 0)
(0.29650291 -5.6918422e-05 0)
(0.29634572 -5.3185881e-05 0)
(0.29619889 -4.9698705e-05 0)
(0.29606175 -4.6439714e-05 0)
(0.29593365 -4.339297e-05 0)
(0.295814 -4.0543917e-05 0)
(0.29570224 -3.7879539e-05 0)
(0.29559785 -3.5388645e-05 0)
(0.29550034 -3.3060889e-05 0)
(0.29540925 -3.0887084e-05 0)
(0.29532415 -2.8857827e-05 0)
(0.29524466 -2.6963866e-05 0)
(0.2951704 -2.5195559e-05 0)
(0.29510102 -2.3543437e-05 0)
(0.29503623 -2.1998416e-05 0)
(0.29497571 -2.0552709e-05 0)
(0.29491918 -1.9199284e-05 0)
(0.29486638 -1.7933374e-05 0)
(0.29481706 -1.6749765e-05 0)
(0.29477098 -1.5645571e-05 0)
(0.29472794 -1.4615268e-05 0)
(0.29468772 -1.3655983e-05 0)
(0.29465015 -1.2760181e-05 0)
(0.29461505 -1.1925369e-05 0)
(0.29458228 -1.1142211e-05 0)
(0.29455166 -1.0411506e-05 0)
(0.29452307 -9.7226075e-06 0)
(0.29449636 -9.0824327e-06 0)
(0.29447144 -8.477197e-06 0)
(0.29444813 -7.9210506e-06 0)
(0.29442638 -7.3928296e-06 0)
(0.29440602 -6.9147241e-06 0)
(0.29438704 -6.4549593e-06 0)
(0.29436928 -6.0455627e-06 0)
(0.29435268 -5.6477912e-06 0)
(0.29433722 -5.2983125e-06 0)
(0.29432257 -4.9763984e-06 0)
(0.29430928 -4.6879114e-06 0)
(0.29429578 -4.5368949e-06 0)
(0.2942851 -4.4069055e-06 0)
(0.29426882 -5.0588835e-06 0)
)
;

boundaryField
{
    top
    {
        type            fixedValue;
        value           uniform (0 0 0);
    }
    inlet
    {
        type            fixedValue;
        value           uniform (1 0 0);
    }
    outlet
    {
        type            zeroGradient;
    }
    bottom
    {
        type            fixedValue;
        value           uniform (0 0 0);
    }
    back
    {
        type            empty;
    }
    front
    {
        type            empty;
    }
}


// ************************************************************************* //
