/*--------------------------------*- C++ -*----------------------------------*\
  =========                 |
  \\      /  F ield         | OpenFOAM: The Open Source CFD Toolbox
   \\    /   O peration     | Website:  https://openfoam.org
    \\  /    A nd           | Version:  9
     \\/     M anipulation  |
\*---------------------------------------------------------------------------*/
FoamFile
{
    format      ascii;
    class       volScalarField;
    location    "2";
    object      p;
}
// * * * * * * * * * * * * * * * * * * * * * * * * * * * * * * * * * * * * * //

dimensions      [0 2 -2 0 0 0 0];

internalField   nonuniform List<scalar> 
1000
(
1.7731673
1.652088
1.5561063
1.4924505
1.4439406
1.4014707
1.36396
1.331845
1.3045312
1.2808279
1.259649
1.2402045
1.2219636
1.2045926
1.1878917
1.1717384
1.1560493
1.1407622
1.1258234
1.1111802
1.0967779
1.0825643
1.0684931
1.0545255
1.0406302
1.0267831
1.0129668
0.99916934
0.9853811
0.9715972
0.95781586
0.94403552
0.93025528
0.91647479
0.90269395
0.88891282
0.87513146
0.86134994
0.84756834
0.83378668
0.82000499
0.8062233
0.7924416
0.7786599
0.7648782
0.7510965
0.73731481
0.72353311
0.70975142
0.69596972
0.68218803
0.66840634
0.65462464
0.64084295
0.62706126
0.61327957
0.59949787
0.58571618
0.57193449
0.5581528
0.5443711
0.53058941
0.51680772
0.50302603
0.48924433
0.47546264
0.46168095
0.44789926
0.43411756
0.42033587
0.40655418
0.39277249
0.37899079
0.36520912
0.3514274
0.33764574
0.32386402
0.31008236
0.29630064
0.28251897
0.26873728
0.25495555
0.24117393
0.22739213
0.21361056
0.19982874
0.18604713
0.17226544
0.15848363
0.14470213
0.13092022
0.11713869
0.10335699
0.089575186
0.075793696
0.062011966
0.048230346
0.034449109
0.020667936
0.006888283
1.6559489
1.6010208
1.5400697
1.4885064
1.4452437
1.4062768
1.3706924
1.3389543
1.3110751
1.286418
1.2641873
1.2437446
1.2246428
1.2065709
1.1893152
1.1727331
1.1567244
1.141207
1.1261062
1.1113505
1.0968728
1.0826113
1.0685118
1.0545288
1.0406261
1.0267762
1.0129593
0.99916137
0.98537444
0.97159303
0.95781342
0.94403411
0.93025449
0.91647436
0.90269374
0.88891272
0.87513142
0.86134993
0.84756834
0.83378669
0.820005
0.80622331
0.7924416
0.7786599
0.7648782
0.7510965
0.73731481
0.72353311
0.70975142
0.69596972
0.68218803
0.66840634
0.65462464
0.64084295
0.62706126
0.61327957
0.59949787
0.58571618
0.57193449
0.5581528
0.5443711
0.53058941
0.51680772
0.50302603
0.48924433
0.47546264
0.46168095
0.44789926
0.43411756
0.42033588
0.40655417
0.3927725
0.37899078
0.36520913
0.35142739
0.33764575
0.323864
0.31008237
0.29630063
0.28251897
0.26873729
0.25495553
0.24117397
0.22739208
0.2136106
0.19982872
0.18604712
0.17226546
0.1584836
0.14470215
0.13092025
0.1171386
0.10335702
0.08957509
0.075793541
0.062011953
0.048229982
0.034448686
0.020667139
0.0068873352
1.5951308
1.5689593
1.5305682
1.489442
1.4503715
1.4137914
1.3794868
1.3477895
1.3190353
1.2930979
1.2695248
1.2478595
1.227751
1.2089041
1.1910604
1.1740258
1.1576712
1.1418972
1.1266087
1.1117141
1.0971318
1.0827921
1.0686354
1.0546115
1.04068
1.0268101
1.0129799
0.9991737
0.98538136
0.97159636
0.95781477
0.94403448
0.93025442
0.91647414
0.90269349
0.88891251
0.87513126
0.86134983
0.84756827
0.83378664
0.82000498
0.80622329
0.79244159
0.7786599
0.7648782
0.7510965
0.73731481
0.72353311
0.70975142
0.69596972
0.68218803
0.66840634
0.65462464
0.64084295
0.62706126
0.61327957
0.59949787
0.58571618
0.57193449
0.5581528
0.5443711
0.53058941
0.51680772
0.50302603
0.48924433
0.47546264
0.46168095
0.44789926
0.43411756
0.42033588
0.40655417
0.39277251
0.37899077
0.36520914
0.35142737
0.33764577
0.32386398
0.31008239
0.29630062
0.28251897
0.2687373
0.2549555
0.24117401
0.22739202
0.21361067
0.19982865
0.18604718
0.17226542
0.1584836
0.14470214
0.13092014
0.11713862
0.10335676
0.089575014
0.075793151
0.06201145
0.048229309
0.034447443
0.020665714
0.0068863684
1.565726
1.5502333
1.5233719
1.4894561
1.4536733
1.4187394
1.3854302
1.3540952
1.3250889
1.2985053
1.2741236
1.2516471
1.2308253
1.2113971
1.193079
1.175643
1.1589488
1.1428971
1.1273855
1.1123091
1.0975776
1.0831179
1.0688677
1.0547731
1.0407893
1.0268819
1.0130254
0.99920153
0.98539768
0.97160544
0.9578195
0.94403671
0.9302553
0.91647435
0.90269342
0.88891234
0.87513109
0.86134969
0.84756817
0.83378658
0.82000493
0.80622327
0.79244158
0.77865989
0.76487819
0.7510965
0.7373148
0.72353311
0.70975141
0.69596972
0.68218803
0.66840633
0.65462464
0.64084295
0.62706126
0.61327956
0.59949787
0.58571618
0.57193449
0.5581528
0.5443711
0.53058941
0.51680772
0.50302603
0.48924433
0.47546264
0.46168094
0.44789926
0.43411756
0.42033588
0.40655416
0.39277251
0.37899076
0.36520915
0.35142736
0.33764579
0.32386396
0.31008241
0.2963006
0.28251898
0.2687373
0.25495547
0.24117405
0.22739195
0.21361075
0.19982854
0.18604726
0.17226533
0.15848357
0.14470218
0.13091991
0.11713874
0.10335642
0.089574824
0.075792865
0.06201065
0.048228659
0.034446362
0.020664368
0.0068856955
1.5529969
1.5410496
1.5188252
1.4885464
1.4547041
1.4207281
1.3880254
1.3570412
1.3280813
1.3012969
1.276585
1.2537452
1.2325876
1.2128735
1.1943105
1.1766568
1.1597709
1.1435577
1.1279126
1.1127243
1.097898
1.0833595
1.0690458
1.0549014
1.0408794
1.0269433
1.013066
0.99922744
0.98541362
0.97161484
0.95782477
0.94403947
0.93025662
0.91647489
0.90269356
0.88891232
0.87513101
0.8613496
0.8475681
0.83378652
0.8200049
0.80622324
0.79244157
0.77865988
0.76487819
0.7510965
0.7373148
0.72353311
0.70975141
0.69596972
0.68218803
0.66840633
0.65462464
0.64084295
0.62706126
0.61327956
0.59949787
0.58571618
0.57193449
0.55815279
0.5443711
0.53058941
0.51680772
0.50302603
0.48924433
0.47546264
0.46168094
0.44789926
0.43411755
0.42033589
0.40655416
0.39277252
0.37899076
0.36520916
0.35142735
0.3376458
0.32386395
0.31008242
0.29630059
0.28251898
0.26873731
0.25495546
0.24117408
0.2273919
0.21361081
0.19982847
0.18604731
0.17226529
0.15848353
0.14470225
0.13091973
0.11713882
0.10335622
0.089574641
0.075792773
0.062010121
0.048228264
0.034445858
0.020663625
0.0068853509
1.5529969
1.5410496
1.5188252
1.4885464
1.4547041
1.4207281
1.3880254
1.3570412
1.3280813
1.3012969
1.276585
1.2537452
1.2325876
1.2128735
1.1943105
1.1766568
1.1597709
1.1435577
1.1279126
1.1127243
1.097898
1.0833595
1.0690458
1.0549014
1.0408794
1.0269433
1.013066
0.99922744
0.98541363
0.97161484
0.95782477
0.94403948
0.93025662
0.91647489
0.90269356
0.88891232
0.87513101
0.8613496
0.8475681
0.83378652
0.8200049
0.80622324
0.79244157
0.77865988
0.76487819
0.75109649
0.7373148
0.72353311
0.70975141
0.69596972
0.68218803
0.66840633
0.65462464
0.64084295
0.62706125
0.61327956
0.59949787
0.58571618
0.57193449
0.55815279
0.5443711
0.53058941
0.51680772
0.50302602
0.48924433
0.47546264
0.46168094
0.44789926
0.43411755
0.42033589
0.40655416
0.39277252
0.37899076
0.36520916
0.35142735
0.3376458
0.32386395
0.31008242
0.29630059
0.28251898
0.26873731
0.25495546
0.24117408
0.2273919
0.21361081
0.19982847
0.18604731
0.17226529
0.15848353
0.14470225
0.13091973
0.11713882
0.10335622
0.089574641
0.075792774
0.062010122
0.048228264
0.034445857
0.020663625
0.0068853507
1.565726
1.5502333
1.5233719
1.4894561
1.4536733
1.4187394
1.3854302
1.3540952
1.3250889
1.2985053
1.2741236
1.2516471
1.2308253
1.2113971
1.193079
1.175643
1.1589487
1.1428971
1.1273855
1.1123091
1.0975776
1.0831178
1.0688677
1.0547731
1.0407893
1.0268819
1.0130254
0.99920153
0.98539768
0.97160544
0.95781951
0.94403672
0.93025531
0.91647435
0.90269342
0.88891234
0.87513109
0.86134968
0.84756817
0.83378657
0.82000493
0.80622326
0.79244158
0.77865988
0.76487819
0.75109649
0.7373148
0.72353311
0.70975141
0.69596972
0.68218802
0.66840633
0.65462464
0.64084295
0.62706125
0.61327956
0.59949787
0.58571618
0.57193449
0.55815279
0.5443711
0.53058941
0.51680772
0.50302602
0.48924433
0.47546264
0.46168094
0.44789926
0.43411756
0.42033588
0.40655416
0.39277251
0.37899076
0.36520915
0.35142736
0.33764579
0.32386396
0.31008241
0.2963006
0.28251898
0.2687373
0.25495547
0.24117405
0.22739195
0.21361075
0.19982854
0.18604726
0.17226533
0.15848358
0.14470218
0.13091991
0.11713874
0.10335641
0.089574823
0.075792867
0.062010652
0.048228661
0.034446361
0.020664367
0.0068856954
1.5951308
1.5689593
1.5305682
1.489442
1.4503714
1.4137913
1.3794868
1.3477894
1.3190353
1.2930979
1.2695248
1.2478595
1.227751
1.2089042
1.1910604
1.1740258
1.1576712
1.1418972
1.1266087
1.111714
1.0971317
1.082792
1.0686354
1.0546115
1.04068
1.0268101
1.0129799
0.99917371
0.98538137
0.97159637
0.95781478
0.94403449
0.93025443
0.91647414
0.90269349
0.88891251
0.87513126
0.86134982
0.84756826
0.83378664
0.82000497
0.80622328
0.79244159
0.77865989
0.76487819
0.7510965
0.7373148
0.7235331
0.70975141
0.69596972
0.68218802
0.66840633
0.65462464
0.64084295
0.62706125
0.61327956
0.59949787
0.58571618
0.57193448
0.55815279
0.5443711
0.53058941
0.51680772
0.50302602
0.48924433
0.47546264
0.46168095
0.44789926
0.43411756
0.42033588
0.40655417
0.39277251
0.37899077
0.36520914
0.35142737
0.33764577
0.32386398
0.31008239
0.29630062
0.28251897
0.2687373
0.2549555
0.24117401
0.22739202
0.21361067
0.19982864
0.18604718
0.17226542
0.1584836
0.14470214
0.13092014
0.11713861
0.10335676
0.089575013
0.075793153
0.062011454
0.048229311
0.034447443
0.020665712
0.0068863682
1.6559489
1.6010208
1.5400697
1.4885064
1.4452437
1.4062768
1.3706924
1.3389543
1.3110751
1.286418
1.2641873
1.2437446
1.2246428
1.2065709
1.1893152
1.1727331
1.1567244
1.141207
1.1261062
1.1113505
1.0968728
1.0826113
1.0685118
1.0545288
1.0406261
1.0267762
1.0129593
0.99916138
0.98537445
0.97159304
0.95781343
0.94403412
0.93025449
0.91647436
0.90269373
0.88891271
0.87513141
0.86134993
0.84756833
0.83378668
0.820005
0.8062233
0.7924416
0.77865989
0.76487819
0.7510965
0.7373148
0.7235331
0.70975141
0.69596972
0.68218802
0.66840633
0.65462464
0.64084295
0.62706125
0.61327956
0.59949787
0.58571618
0.57193448
0.55815279
0.5443711
0.53058941
0.51680772
0.50302602
0.48924433
0.47546264
0.46168095
0.44789926
0.43411756
0.42033588
0.40655417
0.3927725
0.37899078
0.36520913
0.35142739
0.33764575
0.323864
0.31008237
0.29630063
0.28251896
0.26873729
0.25495552
0.24117396
0.22739208
0.2136106
0.19982872
0.18604712
0.17226546
0.1584836
0.14470215
0.13092025
0.1171386
0.10335701
0.089575089
0.075793544
0.062011957
0.048229984
0.034448684
0.020667137
0.0068873345
1.7731673
1.6520881
1.5561063
1.4924505
1.4439406
1.4014706
1.36396
1.331845
1.3045312
1.2808279
1.259649
1.2402045
1.2219636
1.2045926
1.1878917
1.1717384
1.1560493
1.1407622
1.1258233
1.1111802
1.0967779
1.0825643
1.0684931
1.0545255
1.0406302
1.0267831
1.0129668
0.99916935
0.98538112
0.97159721
0.95781587
0.94403552
0.93025528
0.91647478
0.90269395
0.88891281
0.87513145
0.86134993
0.84756833
0.83378667
0.82000498
0.80622329
0.79244159
0.77865989
0.76487819
0.75109649
0.7373148
0.7235331
0.70975141
0.69596972
0.68218802
0.66840633
0.65462464
0.64084295
0.62706125
0.61327956
0.59949787
0.58571618
0.57193449
0.55815279
0.5443711
0.53058941
0.51680772
0.50302602
0.48924433
0.47546264
0.46168095
0.44789926
0.43411756
0.42033587
0.40655418
0.39277249
0.37899079
0.36520912
0.3514274
0.33764574
0.32386402
0.31008236
0.29630064
0.28251897
0.26873727
0.25495555
0.24117392
0.22739213
0.21361056
0.19982874
0.18604713
0.17226544
0.15848363
0.14470213
0.13092022
0.11713868
0.10335699
0.089575188
0.075793701
0.06201197
0.048230345
0.034449104
0.020667932
0.0068882823
)
;

boundaryField
{
    top
    {
        type            zeroGradient;
    }
    inlet
    {
        type            zeroGradient;
    }
    outlet
    {
        type            fixedValue;
        value           uniform 0;
    }
    bottom
    {
        type            zeroGradient;
    }
    back
    {
        type            empty;
    }
    front
    {
        type            empty;
    }
}


// ************************************************************************* //
