/*--------------------------------*- C++ -*----------------------------------*\
  =========                 |
  \\      /  F ield         | OpenFOAM: The Open Source CFD Toolbox
   \\    /   O peration     | Website:  https://openfoam.org
    \\  /    A nd           | Version:  9
     \\/     M anipulation  |
\*---------------------------------------------------------------------------*/
FoamFile
{
    format      ascii;
    class       surfaceScalarField;
    location    "2";
    object      phi;
}
// * * * * * * * * * * * * * * * * * * * * * * * * * * * * * * * * * * * * * //

dimensions      [0 3 -1 0 0 0 0];

internalField   nonuniform List<scalar> 
1890
(
0.0093062048
0.00069379547
0.008284418
0.0010217869
0.0073300683
0.00095434964
0.0064874699
0.00084259822
0.0057706641
0.00071680575
0.0051918333
0.00057883088
0.0047414759
0.00045035752
0.0044000906
0.00034138514
0.0041461016
0.00025398861
0.0039596626
0.00018643866
0.003823685
0.00013597752
0.0037242371
9.9448074e-05
0.0036508645
7.3372815e-05
0.0035962826
5.4582075e-05
0.0035554994
4.0783351e-05
0.0035249895
3.0510011e-05
0.0035022275
2.2762023e-05
0.0034854014
1.6825993e-05
0.0034731921
1.2209048e-05
0.0034645557
8.6362204e-06
0.003458621
5.9344913e-06
0.0034546719
3.9490397e-06
0.0034521395
2.5323343e-06
0.0034505857
1.5538229e-06
0.0034496843
9.0145365e-07
0.0034491986
4.8577221e-07
0.0034489643
2.3445866e-07
0.0034488743
9.0042927e-08
0.0034488533
2.0943311e-08
0.0034488617
-8.3510838e-09
0.0034488819
-2.026522e-08
0.0034489035
-2.1678114e-08
0.0034489216
-1.8191083e-08
0.0034489349
-1.3380362e-08
0.0034489438
-8.9670095e-09
0.0034489493
-5.5547255e-09
0.0034489524
-3.1997028e-09
0.0034489541
-1.6992089e-09
0.0034489549
-8.1372266e-10
0.0034489552
-3.2464351e-10
0.0034489553
-8.6146469e-11
0.0034489553
8.1201208e-12
0.0034489552
3.770333e-11
0.0034489552
4.1760969e-11
0.0034489552
3.0161306e-11
0.0034489552
1.8631971e-11
0.0034489552
5.6041386e-12
0.0034489552
-8.6555169e-13
0.0034489552
-7.3685455e-12
0.0034489552
-8.7197391e-12
0.0034489552
-1.1698527e-11
0.0034489552
-1.0410703e-11
0.0034489552
-1.1838688e-11
0.0034489552
-9.5544732e-12
0.0034489552
-1.0747182e-11
0.0034489553
-8.2284399e-12
0.0034489553
-9.326026e-12
0.0034489553
-6.7229318e-12
0.0034489553
-7.6614019e-12
0.0034489553
-5.4319459e-12
0.0034489553
-5.3942643e-12
0.0034489553
-4.5307317e-12
0.0034489553
-1.888472e-12
0.0034489553
-5.7606796e-12
0.0034489553
4.834356e-12
0.0034489553
-1.2883562e-11
0.0034489553
2.0612747e-11
0.0034489553
-3.6060429e-11
0.0034489553
6.0018129e-11
0.0034489554
-9.6550079e-11
0.0034489552
1.5259029e-10
0.0034489554
-2.3325508e-10
0.0034489551
3.4635346e-10
0.0034489556
-4.969256e-10
0.0034489549
6.8748222e-10
0.0034489558
-9.0722762e-10
0.0034489547
1.1411291e-09
0.003448956
-1.3323725e-09
0.0034489546
1.4338857e-09
0.0034489559
-1.3220396e-09
0.003448955
9.2850963e-10
0.0034489551
-1.1682497e-10
0.0034489562
-1.0759918e-09
0.0034489535
2.6626158e-09
0.0034489578
-4.2607426e-09
0.0034489521
5.6687635e-09
0.0034489581
-5.9695094e-09
0.0034489527
5.3655953e-09
0.0034489553
-2.5802043e-09
0.0034489554
-1.2854484e-10
0.0034489506
4.863578e-09
0.0034489557
-5.0908031e-09
0.0034489467
9.0060243e-09
0.0034489479
-1.2167957e-09
0.0034489389
8.8918264e-09
0.0034489311
7.7025241e-09
0.003448914
1.7168298e-08
0.0034488963
1.7762617e-08
0.0034488631
3.3347446e-08
3.9870166e-08
0.010339543
0.00035425245
0.010570814
0.00079051625
0.010606451
0.00091871287
0.010547847
0.00090120194
0.010422756
0.00084189608
0.010245234
0.00075635371
0.010041236
0.0006543557
0.0098320925
0.00055052806
0.0096306183
0.00045546245
0.0094439304
0.0003731262
0.0092758467
0.00030406109
0.0091278847
0.0002474102
0.0090000883
0.00020116934
0.0088917663
0.00016290421
0.0088017799
0.00013076992
0.0087285881
0.00010370181
0.0086703554
8.0994758e-05
0.0086251266
6.2054598e-05
0.0085909045
4.6430918e-05
0.0085657294
3.3811054e-05
0.0085477607
2.3903019e-05
0.0085353412
1.6368368e-05
0.0085270515
1.0822038e-05
0.0085217266
6.8786986e-06
0.0085184545
4.1735761e-06
0.0085165451
2.3953066e-06
0.0085154996
1.2800292e-06
0.0085149734
6.1620056e-07
0.0085147468
2.4754311e-07
0.0085146784
6.0110481e-08
0.0085146813
-2.3311603e-08
0.0085147105
-5.0951212e-08
0.0085147441
-5.1838131e-08
0.0085147729
-4.2282001e-08
0.0085147945
-3.0571166e-08
0.0085148091
-2.0292953e-08
0.0085148184
-1.2538122e-08
0.0085148239
-7.2376753e-09
0.008514827
-3.8863185e-09
0.0085148286
-1.9092354e-09
0.0085148293
-8.2586295e-10
0.0085148296
-2.8813429e-10
0.0085148297
-5.1458888e-11
0.0085148297
2.8459131e-11
0.0085148297
3.6969362e-11
0.0085148297
1.8379097e-11
0.0085148297
-4.5878798e-12
0.0085148298
-2.4496169e-11
0.0085148298
-3.7358998e-11
0.0085148298
-4.55451e-11
0.0085148299
-4.857532e-11
0.0085148299
-4.9503187e-11
0.00851483
-4.7527599e-11
0.00851483
-4.5376406e-11
0.00851483
-4.1791655e-11
0.0085148301
-3.8847108e-11
0.0085148301
-3.4593305e-11
0.0085148301
-3.1640361e-11
0.0085148301
-2.6997023e-11
0.0085148302
-2.5146942e-11
0.0085148302
-1.8747173e-11
0.0085148302
-2.0346568e-11
0.0085148302
-8.4888267e-12
0.0085148302
-2.1098549e-11
0.0085148302
8.3277911e-12
0.0085148302
-3.5926693e-11
0.0085148302
4.5233547e-11
0.0085148302
-8.5862788e-11
0.0085148302
1.3189822e-10
0.0085148303
-2.1342074e-10
0.0085148301
3.2639119e-10
0.0085148304
-4.9133087e-10
0.00851483
7.1242775e-10
0.0085148305
-9.9747779e-10
0.0085148299
1.3404145e-09
0.0085148307
-1.7063329e-09
0.0085148297
2.0495522e-09
0.0085148307
-2.2414261e-09
0.0085148299
2.1794803e-09
0.0085148302
-1.6273605e-09
0.0085148307
4.8972722e-10
0.0085148291
1.4215647e-09
0.0085148319
-3.8547547e-09
0.0085148279
6.6615194e-09
0.0085148325
-8.8871409e-09
0.0085148281
1.0080384e-08
0.0085148308
-8.5764501e-09
0.0085148309
5.1803958e-09
0.0085148265
1.896997e-09
0.0085148338
-7.4552597e-09
0.0085148238
1.485989e-08
0.008514831
-1.2203525e-08
0.0085148249
1.5041388e-08
0.0085148225
1.1710974e-09
0.0085148227
8.533152e-09
0.0085148144
1.5930137e-08
0.00851481
2.1623491e-08
0.0085147994
2.8542655e-08
0.0085147866
4.6272334e-08
5.1229202e-08
0.010188709
0.00016554415
0.01053049
0.00044873513
0.010851394
0.00059780865
0.011124047
0.00062854874
0.011350352
0.0006155909
0.011524042
0.00058266368
0.011645612
0.00053278616
0.01172327
0.00047286952
0.011766955
0.0004117773
0.011785237
0.00035484376
0.011785189
0.00030410916
0.011772593
0.00026000565
0.01175191
0.00022185307
0.01172648
0.00018833382
0.011698871
0.00015837976
0.011671058
0.00013151471
0.011644507
0.0001075451
0.011620249
8.6312427e-05
0.011598948
6.773232e-05
0.011580939
5.1819209e-05
0.011566263
3.8579546e-05
0.011554725
2.7905903e-05
0.011545971
1.9575462e-05
0.011539563
1.3286814e-05
0.011535035
8.7022368e-06
0.011531948
5.4820203e-06
0.011529922
3.3066051e-06
0.011528642
1.8959687e-06
0.011527868
1.0215621e-06
0.011527422
5.0602879e-07
0.011527179
2.1942795e-07
0.011527056
7.184923e-08
0.011527
3.9811192e-09
0.01152698
-2.1411612e-08
0.011526975
-2.6291732e-08
0.011526978
-2.2732206e-08
0.011526982
-1.6842156e-08
0.011526986
-1.1314911e-08
0.011526989
-7.0475548e-09
0.011526991
-4.1082194e-09
0.011526993
-2.2463077e-09
0.011526994
-1.1561792e-09
0.011526994
-5.621202e-10
0.011526994
-2.673258e-10
0.011526995
-1.3614676e-10
0.011526995
-9.0132434e-11
0.011526995
-8.0186341e-11
0.011526995
-8.5141014e-11
0.011526995
-9.0826404e-11
0.011526995
-9.6049976e-11
0.011526995
-9.6637483e-11
0.011526995
-9.5873509e-11
0.011526995
-9.1415372e-11
0.011526995
-8.7190102e-11
0.011526995
-8.0485727e-11
0.011526995
-7.4919469e-11
0.011526995
-6.7153851e-11
0.011526995
-6.163406e-11
0.011526995
-5.3209838e-11
0.011526995
-4.9089844e-11
0.011526995
-3.8530117e-11
0.011526995
-3.9341104e-11
0.011526995
-2.1874766e-11
0.011526995
-3.7120885e-11
0.011526995
2.4437412e-12
0.011526995
-5.3181094e-11
0.011526995
5.0627862e-11
0.011526995
-1.1184179e-10
0.011526995
1.5684677e-10
0.011526995
-2.6032195e-10
0.011526995
3.8274029e-10
0.011526995
-5.7055304e-10
0.011526995
8.0376542e-10
0.011526995
-1.0964755e-09
0.011526995
1.4216044e-09
0.011526995
-1.7294181e-09
0.011526996
1.9525551e-09
0.011526995
-1.9326683e-09
0.011526996
1.565881e-09
0.011526995
-6.0044078e-10
0.011526996
-9.7936146e-10
0.011526994
3.2431245e-09
0.011526996
-5.7418596e-09
0.011526995
8.1638505e-09
0.011526995
-9.2945119e-09
0.011526997
8.7247331e-09
0.011526993
-4.939276e-09
0.011526999
-5.3915139e-10
0.011526992
8.6545058e-09
0.011526998
-1.3165201e-08
0.011526995
1.7449378e-08
0.011526993
-1.0504467e-08
0.011526999
9.0215379e-09
0.011526992
8.1286179e-09
0.011526999
1.9612463e-09
0.011526997
1.7337425e-08
0.011526999
2.0458923e-08
0.011527006
2.155829e-08
0.011527013
3.9539737e-08
4.1789205e-08
0.01009717
6.8374854e-05
0.010346926
0.00019897862
0.010662348
0.00028238699
0.010982446
0.00030845025
0.011289644
0.00030839307
0.011574155
0.00029815237
0.011827022
0.00027992005
0.012044578
0.00025531283
0.012228199
0.00022815574
0.012381442
0.00020160091
0.012508372
0.00017717897
0.012613049
0.00015532873
0.012699017
0.00013588525
0.012769063
0.00011828811
0.012825402
0.00010204066
0.012869959
8.6958056e-05
0.012904479
7.3024448e-05
0.012930551
6.0240737e-05
0.012949636
4.8647066e-05
0.012963103
3.8351749e-05
0.012972216
2.9466967e-05
0.012978085
2.2036316e-05
0.012981645
1.6015453e-05
0.012983638
1.129437e-05
0.012984624
7.7162074e-06
0.012985008
5.0980434e-06
0.012985065
3.249804e-06
0.012984968
1.9928968e-06
0.012984819
1.1702879e-06
0.012984672
6.5331315e-07
0.012984549
3.4248139e-07
0.012984456
1.6478266e-07
0.012984391
6.9150257e-08
0.012984348
2.1602759e-08
0.012984321
5.1305766e-10
0.012984305
-6.8918264e-09
0.012984296
-8.0238344e-09
0.012984292
-6.7393742e-09
0.012984289
-4.8911147e-09
0.012984289
-3.2446501e-09
0.012984288
-2.0198566e-09
0.012984288
-1.2061287e-09
0.012984289
-7.0668848e-10
0.012984289
-4.2460571e-10
0.012984289
-2.7414828e-10
0.012984289
-2.0203226e-10
0.012984289
-1.6737329e-10
0.012984289
-1.5386913e-10
0.012984289
-1.45393e-10
0.012984289
-1.4141204e-10
0.012984289
-1.3460394e-10
0.012984289
-1.2943289e-10
0.012984289
-1.2101454e-10
0.012984289
-1.1447588e-10
0.012984289
-1.048963e-10
0.012984289
-9.7675606e-11
0.012984289
-8.7726955e-11
0.01298429
-8.0752474e-11
0.01298429
-7.0297322e-11
0.01298429
-6.4403675e-11
0.01298429
-5.283573e-11
0.01298429
-5.0816759e-11
0.01298429
-3.464861e-11
0.01298429
-4.3155254e-11
0.01298429
-1.2220054e-11
0.01298429
-4.9263332e-11
0.01298429
2.4946636e-11
0.01298429
-8.4660158e-11
0.01298429
9.9232962e-11
0.01298429
-1.7929497e-10
0.01298429
2.4780844e-10
0.01298429
-3.7300142e-10
0.01298429
5.0957485e-10
0.012984289
-6.8402772e-10
0.01298429
8.6080407e-10
0.012984289
-1.0075855e-09
0.01298429
1.0790982e-09
0.012984289
-9.6237599e-10
0.01298429
6.1553072e-10
0.012984289
1.2205895e-10
0.01298429
-1.1843164e-09
0.01298429
2.6142467e-09
0.012984288
-3.9999785e-09
0.012984291
5.1401039e-09
0.012984287
-5.1989086e-09
0.012984292
4.0864428e-09
0.012984288
-9.7868577e-10
0.01298429
-2.7716029e-09
0.012984291
7.5118814e-09
0.012984287
-9.2175169e-09
0.012984295
1.0162406e-08
0.012984289
-4.3208784e-09
0.012984295
2.3186433e-09
0.012984296
7.5189709e-09
0.012984298
-2.2605419e-11
0.012984306
9.3823706e-09
0.012984313
1.3077791e-08
0.012984325
1.0048129e-08
0.012984343
2.1829584e-08
2.275415e-08
0.010068375
1.2029771e-11
0.010267354
-7.5991518e-11
0.010549741
-1.9393585e-10
0.010858191
-2.7004258e-10
0.011166585
-2.4227215e-10
0.011464737
-1.4247464e-10
0.011744658
-6.2526182e-11
0.01199997
-6.9786714e-11
0.012228126
-1.3793155e-10
0.012429727
-1.8934549e-10
0.012606906
-2.0940247e-10
0.012762235
-2.1745918e-10
0.012898121
-2.4403221e-10
0.013016409
-2.6330578e-10
0.01311845
-2.5488886e-10
0.013205409
-2.0641667e-10
0.013278434
-1.4245091e-10
0.013338674
-7.5742859e-11
0.013387321
-1.9694725e-11
0.013425673
2.752391e-11
0.01345514
7.1282125e-11
0.013477176
1.1860107e-10
0.013493191
1.7668429e-10
0.013504485
2.3738331e-10
0.013512201
2.935052e-10
0.013517299
3.3843912e-10
0.013520549
3.5454587e-10
0.013522541
3.3429021e-10
0.013523711
2.8356018e-10
0.013524364
2.0647604e-10
0.013524707
1.140458e-10
0.013524872
2.1182328e-11
0.013524941
-6.1927434e-11
0.013524962
-1.253984e-10
0.013524963
-1.7469557e-10
0.013524956
-2.0049331e-10
0.013524949
-2.1415122e-10
0.013524942
-2.154188e-10
0.013524937
-2.1433957e-10
0.013524934
-2.0991381e-10
0.013524933
-2.083758e-10
0.013524932
-2.0460826e-10
0.013524931
-2.0379861e-10
0.013524931
-2.0094451e-10
0.013524931
-1.9905326e-10
0.013524931
-1.9153201e-10
0.013524931
-1.8576064e-10
0.013524931
-1.7497273e-10
0.013524931
-1.6670421e-10
0.013524931
-1.5412249e-10
0.013524931
-1.4489083e-10
0.013524931
-1.3238956e-10
0.013524931
-1.2393768e-10
0.013524931
-1.1226392e-10
0.013524931
-1.0452912e-10
0.013524931
-9.373004e-11
0.013524931
-8.6876553e-11
0.013524931
-7.6622276e-11
0.013524931
-7.0061249e-11
0.013524931
-6.0373473e-11
0.013524931
-5.460452e-11
0.013524931
-4.5661617e-11
0.013524931
-4.0585355e-11
0.013524931
-3.278715e-11
0.013524931
-2.9102448e-11
0.013524931
-2.2713959e-11
0.013524931
-1.9855605e-11
0.013524931
-1.455265e-11
0.013524931
-1.3151395e-11
0.013524931
-8.9371917e-12
0.013524931
-8.0598535e-12
0.013524931
-4.4928473e-12
0.013524931
-4.0692375e-12
0.013524931
-7.3498355e-13
0.013524931
-1.4384171e-13
0.01352493
3.429713e-12
0.013524932
4.0099522e-12
0.013524931
7.9511206e-12
0.013524931
8.8311296e-12
0.013524931
1.2568478e-11
0.01352493
1.259263e-11
0.013524933
1.6771673e-11
0.013524929
1.6738262e-11
0.013524934
2.0688176e-11
0.013524929
1.9667135e-11
0.013524933
2.2009793e-11
0.013524932
1.8977416e-11
0.013524929
1.7493136e-11
0.013524936
1.0416876e-11
0.013524927
5.5572495e-12
0.013524937
4.0572642e-13
0.013524933
2.1575537e-12
0.013524935
9.4189508e-12
0.013524943
2.0622453e-11
0.013524943
2.0470126e-11
0.013524952
1.0307148e-11
0.013524965
1.6724054e-12
0.013524975
6.527945e-13
0.013524997
3.3675357e-12
-1.7959356e-12
0.010068375
-6.8374844e-05
0.010267354
-0.00019897879
0.010549741
-0.00028238739
0.010858191
-0.00030845076
0.011166585
-0.00030839349
0.011464737
-0.00029815261
0.011744658
-0.00027992018
0.01199997
-0.000255313
0.012228126
-0.00022815602
0.012429727
-0.00020160127
0.012606906
-0.00017717937
0.012762235
-0.00015532916
0.012898121
-0.00013588573
0.013016409
-0.00011828861
0.01311845
-0.00010204112
0.013205409
-8.6958431e-05
0.013278433
-7.3024701e-05
0.013338674
-6.0240878e-05
0.013387321
-4.8647115e-05
0.013425673
-3.8351702e-05
0.01345514
-2.9466864e-05
0.013477176
-2.2036112e-05
0.013493191
-1.6015141e-05
0.013504485
-1.1293935e-05
0.013512201
-7.7156685e-06
0.013517299
-5.097418e-06
0.013520549
-3.2491575e-06
0.013522542
-1.9922973e-06
0.013523712
-1.1697938e-06
0.013524365
-6.5296993e-07
0.013524707
-3.423145e-07
0.013524872
-1.647882e-07
0.013524941
-6.9304467e-08
0.013524963
-2.1860375e-08
0.013524964
-8.6209532e-10
0.013524957
6.5053615e-09
0.013524949
7.6212299e-09
0.013524943
6.3377012e-09
0.013524938
4.4965001e-09
0.013524935
2.8573885e-09
0.013524933
1.6390703e-09
0.013524932
8.2958988e-10
0.013524932
3.3631262e-10
0.013524931
5.5270561e-11
0.013524931
-8.9026542e-11
0.013524931
-1.4815369e-10
0.013524931
-1.696506e-10
0.013524931
-1.6397507e-10
0.013524931
-1.5456697e-10
0.013524931
-1.3638225e-10
0.013524931
-1.2409207e-10
0.013524931
-1.0766695e-10
0.013524931
-9.8604692e-11
0.013524931
-8.5358132e-11
0.013524931
-7.9235459e-11
0.013524931
-6.8515143e-11
0.013524931
-6.4346557e-11
0.013524931
-5.4480098e-11
0.013524931
-5.1646006e-11
0.013524931
-4.1851832e-11
0.013524931
-4.1435341e-11
0.013524931
-2.9169496e-11
0.013524931
-3.4812075e-11
0.013524931
-1.4187898e-11
0.013524931
-3.6852453e-11
0.013524931
9.6337178e-12
0.013524931
-5.798313e-11
0.013524931
5.9321763e-11
0.013524931
-1.2066747e-10
0.013524931
1.6396925e-10
0.013524931
-2.6048167e-10
0.013524931
3.6546538e-10
0.013524931
-5.1521582e-10
0.013524931
6.834091e-10
0.013524931
-8.5943811e-10
0.01352493
1.0143881e-09
0.013524932
-1.0700734e-09
0.013524931
9.7760668e-10
0.013524931
-5.9776905e-10
0.013524931
-9.8719639e-11
0.01352493
1.2075689e-09
0.013524933
-2.5834242e-09
0.013524929
4.0314506e-09
0.013524934
-5.1038075e-09
0.013524929
5.2354818e-09
0.013524933
-4.0483551e-09
0.013524932
1.013902e-09
0.013524929
2.8018562e-09
0.013524936
-7.4923719e-09
0.013524927
9.2265128e-09
0.013524937
-1.0161734e-08
0.013524933
4.3283849e-09
0.013524935
-2.2957218e-09
0.013524943
-7.4798568e-09
0.013524943
6.3897929e-11
0.013524952
-9.3621088e-09
0.013524965
-1.3074424e-08
0.013524975
-1.0043876e-08
0.013524997
-2.1832651e-08
-2.2761692e-08
0.01009717
-0.00016554422
0.010346926
-0.00044873533
0.010662348
-0.00059780897
0.010982446
-0.00062854913
0.011289644
-0.00061559123
0.011574155
-0.00058266388
0.011827022
-0.00053278625
0.012044578
-0.00047286963
0.012228199
-0.0004117775
0.012381442
-0.00035484406
0.012508372
-0.0003041095
0.012613049
-0.00026000601
0.012699016
-0.00022185343
0.012769062
-0.00018833417
0.012825401
-0.00015838007
0.012869958
-0.00013151495
0.012904479
-0.00010754526
0.01293055
-8.6312518e-05
0.012949636
-6.7732368e-05
0.012963103
-5.1819213e-05
0.012972216
-3.8579508e-05
0.012978085
-2.790578e-05
0.012981645
-1.9575244e-05
0.012983638
-1.3286489e-05
0.012984624
-8.7018105e-06
0.012985009
-5.4815488e-06
0.012985066
-3.3061357e-06
0.012984969
-1.8955592e-06
0.012984821
-1.0212596e-06
0.012984673
-5.058619e-07
0.012984551
-2.1940295e-07
0.012984458
-7.1954706e-08
0.012984393
-4.1841901e-09
0.01298435
2.1140438e-08
0.012984323
2.598194e-08
0.012984307
2.2406413e-08
0.012984298
1.6524136e-08
0.012984293
1.100278e-08
0.012984291
6.7492383e-09
0.01298429
3.8133163e-09
0.01298429
1.9632608e-09
0.01298429
8.7077821e-10
0.01298429
2.8402144e-10
0.01298429
-1.2129869e-11
0.01298429
-1.3136748e-10
0.01298429
-1.7146318e-10
0.01298429
-1.6353131e-10
0.01298429
-1.4785328e-10
0.01298429
-1.206252e-10
0.01298429
-1.0301724e-10
0.01298429
-8.1257571e-11
0.01298429
-7.0941145e-11
0.01298429
-5.5972246e-11
0.01298429
-5.10559e-11
0.01298429
-4.0705534e-11
0.01298429
-3.8892728e-11
0.01298429
-3.0878212e-11
0.01298429
-2.9893877e-11
0.01298429
-2.3868515e-11
0.01298429
-2.23798e-11
0.01298429
-1.9402201e-11
0.01298429
-1.3814178e-11
0.01298429
-1.9474275e-11
0.01298429
-7.3704844e-13
0.01298429
-3.051013e-11
0.01298429
2.7290278e-11
0.01298429
-6.7793919e-11
0.01298429
9.4435506e-11
0.01298429
-1.6604483e-10
0.01298429
2.4953758e-10
0.01298429
-3.8634545e-10
0.01298429
5.647268e-10
0.01298429
-8.0237751e-10
0.012984289
1.0957223e-09
0.01298429
-1.4151169e-09
0.012984289
1.7338309e-09
0.01298429
-1.9401653e-09
0.012984289
1.9433479e-09
0.01298429
-1.5471957e-09
0.012984289
6.1809406e-10
0.01298429
9.9509228e-10
0.01298429
-3.2209885e-09
0.012984289
5.769048e-09
0.012984292
-8.1409509e-09
0.012984287
9.3226299e-09
0.012984292
-8.7009053e-09
0.012984288
4.9653488e-09
0.01298429
5.5761264e-10
0.012984292
-8.6395352e-09
0.012984288
1.3169767e-08
0.012984295
-1.744302e-08
0.012984289
1.0508446e-08
0.012984295
-8.9938964e-09
0.012984296
-8.0975671e-09
0.012984298
-1.9200698e-09
0.012984306
-1.7322946e-08
0.012984313
-2.0464393e-08
0.012984325
-2.1572261e-08
0.012984343
-3.9545826e-08
-4.1791457e-08
0.010188709
-0.00035425247
0.01053049
-0.00079051633
0.010851394
-0.00091871305
0.011124047
-0.00090120218
0.011350352
-0.00084189628
0.011524042
-0.00075635383
0.011645612
-0.00065435577
0.01172327
-0.00055052815
0.011766955
-0.00045546259
0.011785237
-0.00037312638
0.011785188
-0.00030406128
0.011772593
-0.00024741035
0.011751909
-0.00020116945
0.011726479
-0.00016290428
0.011698869
-0.00013076999
0.011671057
-0.00010370188
0.011644506
-8.0994839e-05
0.011620249
-6.2054694e-05
0.011598947
-4.6431008e-05
0.011580939
-3.3811144e-05
0.011566263
-2.3903047e-05
0.011554725
-1.6368325e-05
0.011545972
-1.0821906e-05
0.011539564
-6.8784782e-06
0.011535035
-4.1732769e-06
0.011531949
-2.3950191e-06
0.011529923
-1.279771e-06
0.011528643
-6.1601528e-07
0.01152787
-2.4745328e-07
0.011527424
-6.0119942e-08
0.011527181
2.3215451e-08
0.011527059
5.0785661e-08
0.011527003
5.1634245e-08
0.011526982
4.2061147e-08
0.011526978
3.035017e-08
0.01152698
2.0079381e-08
0.011526984
1.234252e-08
0.011526988
7.0574652e-09
0.011526991
3.7097493e-09
0.011526993
1.7414815e-09
0.011526994
6.6820339e-10
0.011526995
1.2641398e-10
0.011526996
-1.0612192e-10
0.011526996
-1.8381187e-10
0.011526996
-1.8404366e-10
0.011526996
-1.5978772e-10
0.011526996
-1.2505088e-10
0.011526996
-9.6703467e-11
0.011526996
-7.0201106e-11
0.011526996
-5.3829591e-11
0.011526996
-3.8500646e-11
0.011526996
-3.0777402e-11
0.011526996
-2.1946272e-11
0.011526996
-1.9230748e-11
0.011526996
-1.3985276e-11
0.011526996
-1.3124052e-11
0.011526996
-9.3017245e-12
0.011526996
-9.2286819e-12
0.011526996
-6.8372645e-12
0.011526996
-5.9667719e-12
0.011526996
-5.7132926e-12
0.011526996
-1.9662367e-12
0.011526996
-8.3089658e-12
0.011526996
5.912871e-12
0.011526995
-1.878312e-11
0.011526996
2.6060964e-11
0.011526995
-5.1026405e-11
0.011526995
7.9773869e-11
0.011526995
-1.3405554e-10
0.011526996
2.1038107e-10
0.011526995
-3.2618134e-10
0.011526996
4.9072182e-10
0.011526995
-7.0944894e-10
0.011526996
9.9961971e-10
0.011526995
-1.3348868e-09
0.011526995
1.7112329e-09
0.011526996
-2.0410655e-09
0.011526995
2.248972e-09
0.011526996
-2.1689825e-09
0.011526995
1.636606e-09
0.011526996
-4.7936575e-10
0.011526995
-1.4102626e-09
0.011526996
3.8681907e-09
0.011526995
-6.6491341e-09
0.011526995
8.9014355e-09
0.011526997
-1.0068339e-08
0.011526993
8.5894289e-09
0.011526999
-5.1716847e-09
0.011526992
-1.8883737e-09
0.011526998
7.4590358e-09
0.011526995
-1.4854182e-08
0.011526994
1.2214133e-08
0.011527
-1.5018556e-08
0.011526993
-1.1533727e-09
0.011526999
-8.5288737e-09
0.011526997
-1.5940613e-08
0.011526999
-2.1633163e-08
0.011527006
-2.8540035e-08
0.011527013
-4.6255541e-08
-5.1209276e-08
0.010339543
-0.00069379536
0.010570814
-0.0010217868
0.010606451
-0.00095434965
0.010547847
-0.0008425983
0.010422757
-0.00071680585
0.010245234
-0.00057883101
0.010041236
-0.00045035766
0.0098320925
-0.00034138525
0.0096306182
-0.0002539887
0.0094439301
-0.00018643873
0.0092758462
-0.00013597754
0.0091278839
-9.9448018e-05
0.0090000874
-7.3372686e-05
0.0088917655
-5.4581947e-05
0.0088017792
-4.0783276e-05
0.0087285877
-3.0510017e-05
0.0086703552
-2.2762108e-05
0.0086251267
-1.6826119e-05
0.0085909047
-1.2209194e-05
0.0085657297
-8.6363385e-06
0.008547761
-5.9345677e-06
0.0085353416
-3.9490404e-06
0.0085270518
-2.5322699e-06
0.0085217271
-1.5536927e-06
0.0085184552
-9.0131077e-07
0.008516546
-4.8563872e-07
0.0085155008
-2.3436106e-07
0.008514975
-8.9996461e-08
0.0085147486
-2.0949441e-08
0.0085146802
8.3081178e-09
0.0085146833
2.0182485e-08
0.0085147126
2.1575318e-08
0.0085147461
1.8076449e-08
0.0085147749
1.3273931e-08
0.0085147963
8.8655483e-09
0.0085148109
5.4688479e-09
0.0085148201
3.1224675e-09
0.0085148255
1.6349194e-09
0.0085148285
7.5031274e-10
0.00851483
2.6346377e-10
0.0085148306
3.6736197e-11
0.0085148308
-4.9396478e-11
0.0085148308
-8.6271692e-11
0.0085148308
-8.4081194e-11
0.0085148307
-7.4318278e-11
0.0085148306
-5.4308348e-11
0.0085148305
-4.3009403e-11
0.0085148305
-2.7404999e-11
0.0085148304
-2.1973183e-11
0.0085148304
-1.245276e-11
0.0085148304
-1.1144065e-11
0.0085148304
-5.1696566e-12
0.0085148303
-6.1637399e-12
0.0085148303
-2.0063512e-12
0.0085148303
-3.8337141e-12
0.0085148303
-3.4162083e-13
0.0085148303
-2.5959804e-12
0.0085148303
6.4202257e-13
0.0085148303
-1.9410529e-12
0.0085148303
1.6469989e-12
0.0085148303
-2.0018155e-12
0.0085148303
2.7388455e-12
0.0085148303
-3.6460001e-12
0.0085148303
5.7688382e-12
0.0085148302
-9.0700677e-12
0.0085148303
1.4211109e-11
0.0085148302
-2.403885e-11
0.0085148303
3.8606736e-11
0.0085148302
-6.2812707e-11
0.0085148303
9.9909939e-11
0.0085148301
-1.5461615e-10
0.0085148304
2.3752274e-10
0.00851483
-3.4761284e-10
0.0085148305
5.0194314e-10
0.0085148299
-6.8812717e-10
0.0085148307
9.1254164e-10
0.0085148298
-1.1420584e-09
0.0085148307
1.3370187e-09
0.00851483
-1.4353053e-09
0.0085148303
1.3266148e-09
0.0085148307
-9.29467e-10
0.0085148292
1.2351318e-10
0.008514832
1.0785283e-09
0.008514828
-2.6538498e-09
0.0085148326
4.263234e-09
0.0085148282
-5.6619046e-09
0.0085148308
5.9681735e-09
0.008514831
-5.3606482e-09
0.0085148265
2.581752e-09
0.0085148338
1.4058524e-10
0.0085148239
-4.8500519e-09
0.008514831
5.1021793e-09
0.008514825
-9.0183636e-09
0.0085148225
1.1954273e-09
0.0085148228
-8.920691e-09
0.0085148145
-7.7091826e-09
0.00851481
-1.7146235e-08
0.0085147994
-1.7730748e-08
0.0085147866
-3.33045e-08
-3.9843958e-08
0.0093062048
0.0082844181
0.0073300685
0.0064874703
0.0057706645
0.0051918335
0.0047414757
0.0044000902
0.0041461012
0.0039596623
0.0038236848
0.0037242369
0.0036508644
0.0035962827
0.0035554996
0.0035249898
0.0035022277
0.0034854016
0.0034731923
0.0034645558
0.0034586211
0.003454672
0.0034521397
0.003450586
0.0034496848
0.0034491993
0.003448965
0.0034488751
0.0034488542
0.0034488625
0.0034488827
0.0034489043
0.0034489224
0.0034489356
0.0034489445
0.0034489499
0.003448953
0.0034489547
0.0034489554
0.0034489557
0.0034489557
0.0034489557
0.0034489556
0.0034489555
0.0034489555
0.0034489554
0.0034489554
0.0034489554
0.0034489553
0.0034489553
0.0034489553
0.0034489553
0.0034489553
0.0034489553
0.0034489553
0.0034489553
0.0034489553
0.0034489553
0.0034489553
0.0034489553
0.0034489553
0.0034489553
0.0034489553
0.0034489553
0.0034489553
0.0034489553
0.0034489553
0.0034489553
0.0034489553
0.0034489554
0.0034489552
0.0034489555
0.0034489551
0.0034489556
0.0034489549
0.0034489558
0.0034489547
0.003448956
0.0034489546
0.0034489559
0.003448955
0.0034489551
0.0034489562
0.0034489535
0.0034489578
0.0034489521
0.0034489581
0.0034489527
0.0034489553
0.0034489555
0.0034489506
0.0034489557
0.0034489467
0.0034489478
0.0034489388
0.0034489311
0.003448914
0.0034488964
0.0034488631
)
;

boundaryField
{
    top
    {
        type            calculated;
        value           uniform 0;
    }
    inlet
    {
        type            calculated;
        value           nonuniform List<scalar> 10(-0.01 -0.01 -0.01 -0.01 -0.01 -0.01 -0.01 -0.01 -0.01 -0.01);
    }
    outlet
    {
        type            calculated;
        value           nonuniform List<scalar> 10(0.0034488233 0.0085147753 0.011527022 0.012984362 0.01352502 0.01352502 0.012984362 0.011527022 0.0085147753 0.0034488233);
    }
    bottom
    {
        type            calculated;
        value           uniform 0;
    }
    back
    {
        type            empty;
        value           nonuniform List<scalar> 0();
    }
    front
    {
        type            empty;
        value           nonuniform List<scalar> 0();
    }
}


// ************************************************************************* //
