/*--------------------------------*- C++ -*----------------------------------*\
  =========                 |
  \\      /  F ield         | OpenFOAM: The Open Source CFD Toolbox
   \\    /   O peration     | Website:  https://openfoam.org
    \\  /    A nd           | Version:  9
     \\/     M anipulation  |
\*---------------------------------------------------------------------------*/
FoamFile
{
    format      ascii;
    class       volVectorField;
    location    "2";
    object      U;
}
// * * * * * * * * * * * * * * * * * * * * * * * * * * * * * * * * * * * * * //

dimensions      [0 1 -1 0 0 0 0];

internalField   nonuniform List<vector> 
1000
(
(0.91891016 0.035822119 0)
(0.86271248 0.062194447 0)
(0.78706394 0.06250051 0)
(0.69537932 0.05454015 0)
(0.61094567 0.044500896 0)
(0.54424776 0.033925544 0)
(0.49369533 0.024062042 0)
(0.45518828 0.016002471 0)
(0.42600211 0.010042406 0)
(0.40430829 0.0059348461 0)
(0.38843413 0.0032996202 0)
(0.37685337 0.001737228 0)
(0.36835029 0.00087112601 0)
(0.36205158 0.00041641247 0)
(0.35735687 0.00019729481 0)
(0.35384711 0.00010800596 0)
(0.35122595 7.9847269e-05 0)
(0.3492794 7.2811629e-05 0)
(0.34785344 6.9854947e-05 0)
(0.34683126 6.5626765e-05 0)
(0.34611856 5.8813871e-05 0)
(0.34563662 4.9897951e-05 0)
(0.34532173 3.9965597e-05 0)
(0.345124 3.0183299e-05 0)
(0.34500588 2.1564058e-05 0)
(0.34493965 1.468713e-05 0)
(0.34490566 9.5910179e-06 0)
(0.34489066 5.9505481e-06 0)
(0.34488585 3.1735707e-06 0)
(0.3448856 1.3376536e-06 0)
(0.34488719 4.2344892e-07 0)
(0.34488935 4.1422663e-08 0)
(0.34489135 -8.5845834e-08 0)
(0.34489291 -1.056023e-07 0)
(0.344894 -8.8774181e-08 0)
(0.3448947 -6.4304546e-08 0)
(0.34489511 -4.2699265e-08 0)
(0.34489534 -2.6342959e-08 0)
(0.34489546 -1.5489755e-08 0)
(0.34489551 -8.4461384e-09 0)
(0.34489553 -4.0076167e-09 0)
(0.34489553 -8.6329559e-10 0)
(0.34489553 4.1311829e-10 0)
(0.34489552 8.3387338e-10 0)
(0.34489552 6.1083625e-10 0)
(0.34489552 5.0826928e-10 0)
(0.34489552 2.0278774e-10 0)
(0.34489552 1.5245912e-10 0)
(0.34489552 -6.0785103e-11 0)
(0.34489552 -5.5739763e-12 0)
(0.34489552 -1.4458001e-10 0)
(0.34489552 -4.8733868e-11 0)
(0.34489552 -1.5533028e-10 0)
(0.34489552 -4.8398453e-11 0)
(0.34489552 -1.5673583e-10 0)
(0.34489552 -5.648544e-11 0)
(0.34489553 -1.5345432e-10 0)
(0.34489553 -5.1557935e-11 0)
(0.34489553 -1.4106576e-10 0)
(0.34489553 -4.7128849e-11 0)
(0.34489553 -9.4011388e-11 0)
(0.34489553 -3.6531946e-11 0)
(0.34489553 5.2933887e-12 0)
(0.34489553 -1.0265067e-10 0)
(0.34489553 2.3378129e-10 0)
(0.34489553 -3.8524465e-10 0)
(0.34489553 8.1047903e-10 0)
(0.34489553 -1.2734463e-09 0)
(0.34489552 2.2692421e-09 0)
(0.34489554 -3.587111e-09 0)
(0.34489551 5.7888705e-09 0)
(0.34489556 -8.9281988e-09 0)
(0.34489549 1.3432477e-08 0)
(0.3448956 -1.9595326e-08 0)
(0.34489543 2.7642453e-08 0)
(0.34489568 -3.73877e-08 0)
(0.3448953 4.8672996e-08 0)
(0.34489585 -5.939167e-08 0)
(0.34489509 6.8666328e-08 0)
(0.34489612 -7.1060167e-08 0)
(0.34489477 6.5010959e-08 0)
(0.34489648 -4.2442492e-08 0)
(0.34489437 4.8219849e-09 0)
(0.34489689 5.4693792e-08 0)
(0.34489398 -1.2146152e-07 0)
(0.34489722 2.0409314e-07 0)
(0.34489369 -2.5308217e-07 0)
(0.34489741 3.0733776e-07 0)
(0.34489349 -2.5452975e-07 0)
(0.34489751 2.4254346e-07 0)
(0.34489325 -2.3118603e-08 0)
(0.34489751 5.5609179e-08 0)
(0.34489284 3.8064499e-07 0)
(0.3448971 1.7213673e-08 0)
(0.34489209 9.0311766e-07 0)
(0.3448956 3.6753467e-07 0)
(0.3448903 1.5689575e-06 0)
(0.34489179 1.3708623e-06 0)
(0.34488508 1.9375705e-06 0)
(0.34488518 2.2117745e-06 0)
(1.00166 0.053817492 0)
(1.0359757 0.1012836 0)
(1.0597145 0.11072143 0)
(1.0628931 0.10588632 0)
(1.0515609 0.096176951 0)
(1.0340846 0.083822175 0)
(1.014415 0.070124315 0)
(0.99387855 0.056719799 0)
(0.97333937 0.044776602 0)
(0.95374898 0.034723659 0)
(0.93583902 0.026588537 0)
(0.91993306 0.020221048 0)
(0.90608226 0.015330288 0)
(0.89424117 0.011570072 0)
(0.88432399 0.0086590136 0)
(0.87618895 0.0064083713 0)
(0.86965388 0.0046792645 0)
(0.86452094 0.0033571786 0)
(0.86059016 0.0023541872 0)
(0.85766104 0.001606196 0)
(0.85554143 0.0010623724 0)
(0.85405485 0.00067847063 0)
(0.85304677 0.00041571744 0)
(0.85238763 0.00024170001 0)
(0.85197433 0.00013094035 0)
(0.85172744 6.3983069e-05 0)
(0.8515883 2.6056599e-05 0)
(0.85151542 6.2353283e-06 0)
(0.85148142 -3.1488051e-06 0)
(0.85146895 -6.5671878e-06 0)
(0.85146698 -6.7557043e-06 0)
(0.85146926 -5.5788231e-06 0)
(0.85147272 -4.0777903e-06 0)
(0.85147596 -2.7335753e-06 0)
(0.8514785 -1.7063144e-06 0)
(0.8514803 -9.9553941e-07 0)
(0.85148146 -5.4033051e-07 0)
(0.85148218 -2.6803286e-07 0)
(0.85148258 -1.1650169e-07 0)
(0.8514828 -3.8657683e-08 0)
(0.85148291 -3.0519938e-09 0)
(0.85148295 1.0592877e-08 0)
(0.85148297 1.2827267e-08 0)
(0.85148297 1.0522014e-08 0)
(0.85148297 6.7830341e-09 0)
(0.85148297 3.5749077e-09 0)
(0.85148297 9.6457508e-10 0)
(0.85148298 -6.2350784e-10 0)
(0.85148298 -1.7469904e-09 0)
(0.85148298 -2.1690531e-09 0)
(0.85148299 -2.4907876e-09 0)
(0.85148299 -2.408142e-09 0)
(0.85148299 -2.4158169e-09 0)
(0.851483 -2.1612568e-09 0)
(0.851483 -2.0916511e-09 0)
(0.85148301 -1.817605e-09 0)
(0.85148301 -1.7210312e-09 0)
(0.85148301 -1.4562808e-09 0)
(0.85148301 -1.3373132e-09 0)
(0.85148302 -1.1457268e-09 0)
(0.85148302 -9.045024e-10 0)
(0.85148302 -9.2775394e-10 0)
(0.85148302 -3.0907587e-10 0)
(0.85148302 -1.0683897e-09 0)
(0.85148302 7.7736331e-10 0)
(0.85148303 -2.1544604e-09 0)
(0.85148301 3.2648151e-09 0)
(0.85148304 -5.7198377e-09 0)
(0.85148299 9.3445153e-09 0)
(0.85148307 -1.4954593e-08 0)
(0.85148294 2.3497059e-08 0)
(0.85148315 -3.570574e-08 0)
(0.85148282 5.2835928e-08 0)
(0.85148334 -7.5408127e-08 0)
(0.85148255 1.0386587e-07 0)
(0.85148373 -1.3626268e-07 0)
(0.851482 1.701742e-07 0)
(0.85148445 -1.9672586e-07 0)
(0.85148106 2.0842714e-07 0)
(0.85148561 -1.8624408e-07 0)
(0.8514797 1.196348e-07 0)
(0.85148711 1.1596877e-08 0)
(0.85147815 -2.0266812e-07 0)
(0.85148857 4.5454754e-07 0)
(0.85147695 -7.0360498e-07 0)
(0.85148934 9.1820435e-07 0)
(0.85147668 -9.474655e-07 0)
(0.85148907 8.1451632e-07 0)
(0.85147734 -3.122631e-07 0)
(0.85148806 -2.061349e-07 0)
(0.85147829 1.0534876e-06 0)
(0.85148698 -1.1793098e-06 0)
(0.85147892 1.7079626e-06 0)
(0.85148579 -3.9746192e-07 0)
(0.85147903 1.1023785e-06 0)
(0.85148417 1.4241956e-06 0)
(0.85147731 1.7966465e-06 0)
(0.85148222 2.6235125e-06 0)
(0.85147104 4.38898e-06 0)
(0.85148167 5.0772618e-06 0)
(1.0014251 0.026821676 0)
(1.0291257 0.062788306 0)
(1.0654147 0.077719682 0)
(1.09894 0.080551666 0)
(1.1252701 0.078215331 0)
(1.1449753 0.073032153 0)
(1.1594281 0.065893293 0)
(1.1694082 0.05784737 0)
(1.1754705 0.049870741 0)
(1.1784083 0.042507811 0)
(1.1791396 0.035976451 0)
(1.1783798 0.030334617 0)
(1.1765963 0.02550376 0)
(1.1741582 0.021315715 0)
(1.1713972 0.017625957 0)
(1.1685612 0.014365869 0)
(1.1658051 0.011508326 0)
(1.163234 0.0090310685 0)
(1.1609301 0.0069151869 0)
(1.158948 0.0051492226 0)
(1.1573075 0.0037200154 0)
(1.1559976 0.0026021508 0)
(1.1549877 0.0017578475 0)
(1.154236 0.0011426981 0)
(1.1536966 0.00071134642 0)
(1.1533235 0.00042117592 0)
(1.1530746 0.00023453243 0)
(1.1529148 0.00012029639 0)
(1.1528164 5.449891e-05 0)
(1.1527586 1.9281462e-05 0)
(1.1527264 2.2105463e-06 0)
(1.1527096 -4.7169677e-06 0)
(1.1527016 -6.4521613e-06 0)
(1.1526984 -5.8753275e-06 0)
(1.1526974 -4.5311082e-06 0)
(1.1526975 -3.1542246e-06 0)
(1.1526979 -2.0318495e-06 0)
(1.1526984 -1.2231121e-06 0)
(1.1526988 -6.8868248e-07 0)
(1.152699 -3.6041191e-07 0)
(1.1526992 -1.7256592e-07 0)
(1.1526993 -7.3444031e-08 0)
(1.1526994 -2.5741273e-08 0)
(1.1526994 -5.9627266e-09 0)
(1.1526994 1.3427139e-10 0)
(1.1526995 1.1337643e-10 0)
(1.1526995 -1.8239458e-09 0)
(1.1526995 -4.0422852e-09 0)
(1.1526995 -5.6515078e-09 0)
(1.1526995 -6.7392682e-09 0)
(1.1526995 -7.180808e-09 0)
(1.1526995 -7.3205497e-09 0)
(1.1526995 -7.075146e-09 0)
(1.1526995 -6.7688375e-09 0)
(1.1526995 -6.2598522e-09 0)
(1.1526995 -5.8157497e-09 0)
(1.1526995 -5.202321e-09 0)
(1.1526995 -4.7523935e-09 0)
(1.1526995 -4.0758056e-09 0)
(1.1526995 -3.7687803e-09 0)
(1.1526995 -2.8829708e-09 0)
(1.1526995 -3.0337835e-09 0)
(1.1526995 -1.4611587e-09 0)
(1.1526995 -3.0175902e-09 0)
(1.1526995 7.8673541e-10 0)
(1.1526996 -4.7748715e-09 0)
(1.1526995 5.4285479e-09 0)
(1.1526996 -1.0850892e-08 0)
(1.1526995 1.6116813e-08 0)
(1.1526997 -2.627451e-08 0)
(1.1526994 3.95888e-08 0)
(1.1526998 -5.9229985e-08 0)
(1.1526991 8.4836884e-08 0)
(1.1527003 -1.1724339e-07 0)
(1.1526984 1.5484421e-07 0)
(1.1527011 -1.9265191e-07 0)
(1.1526973 2.2399725e-07 0)
(1.1527027 -2.3265595e-07 0)
(1.1526954 2.0567707e-07 0)
(1.152705 -1.1585421e-07 0)
(1.1526928 -4.241821e-08 0)
(1.1527076 2.8683993e-07 0)
(1.1526904 -5.7940491e-07 0)
(1.1527095 8.8387927e-07 0)
(1.1526894 -1.0742253e-06 0)
(1.1527093 1.084148e-06 0)
(1.1526908 -7.4234908e-07 0)
(1.1527067 1.6169098e-07 0)
(1.1526942 7.4780491e-07 0)
(1.1527032 -1.3776438e-06 0)
(1.152697 1.9885417e-06 0)
(1.1527014 -1.3834358e-06 0)
(1.1526977 1.1922529e-06 0)
(1.1527016 6.7618965e-07 0)
(1.1526968 2.6781903e-07 0)
(1.1527024 1.7950077e-06 0)
(1.1526951 2.1523286e-06 0)
(1.1527031 2.3206311e-06 0)
(1.1526913 4.4974927e-06 0)
(1.1527066 5.0155726e-06 0)
(1.0007352 0.01181222 0)
(1.0178435 0.030856563 0)
(1.0461957 0.041421659 0)
(1.0798706 0.045158682 0)
(1.1131986 0.045444257 0)
(1.1436498 0.043986541 0)
(1.1707413 0.04128026 0)
(1.194395 0.037731114 0)
(1.2145152 0.033846822 0)
(1.2312971 0.030008302 0)
(1.2452358 0.026418987 0)
(1.2567918 0.023169843 0)
(1.2662683 0.020255309 0)
(1.2739475 0.017601587 0)
(1.2801444 0.015141129 0)
(1.2851177 0.012853239 0)
(1.2890323 0.010743059 0)
(1.292019 0.0088160491 0)
(1.2942247 0.0070793122 0)
(1.2958034 0.005547215 0)
(1.296893 0.004234046 0)
(1.2976102 0.0031437224 0)
(1.2980547 0.0022671936 0)
(1.2983101 0.0015854697 0)
(1.2984424 0.00107315 0)
(1.2984994 0.00070157454 0)
(1.2985137 0.00044179286 0)
(1.2985067 0.00026695335 0)
(1.2984914 0.00015389167 0)
(1.298475 8.3824284e-05 0)
(1.2984608 4.2405679e-05 0)
(1.2984497 1.9241179e-05 0)
(1.2984418 7.1503353e-06 0)
(1.2984364 1.4186188e-06 0)
(1.2984331 -8.9329858e-07 0)
(1.298431 -1.5237764e-06 0)
(1.2984299 -1.4300434e-06 0)
(1.2984293 -1.1009202e-06 0)
(1.298429 -7.5785015e-07 0)
(1.2984289 -4.822346e-07 0)
(1.2984288 -2.8810289e-07 0)
(1.2984288 -1.6364102e-07 0)
(1.2984288 -8.9489276e-08 0)
(1.2984289 -4.8678188e-08 0)
(1.2984289 -2.773232e-08 0)
(1.2984289 -1.8151799e-08 0)
(1.2984289 -1.4135888e-08 0)
(1.2984289 -1.2910765e-08 0)
(1.2984289 -1.2498493e-08 0)
(1.2984289 -1.2486519e-08 0)
(1.2984289 -1.221117e-08 0)
(1.2984289 -1.1937858e-08 0)
(1.2984289 -1.132459e-08 0)
(1.2984289 -1.0774728e-08 0)
(1.2984289 -9.9563907e-09 0)
(1.2984289 -9.277508e-09 0)
(1.2984289 -8.3538277e-09 0)
(1.298429 -7.6745766e-09 0)
(1.298429 -6.6758658e-09 0)
(1.298429 -6.1385229e-09 0)
(1.298429 -4.9361575e-09 0)
(1.298429 -4.8991628e-09 0)
(1.298429 -3.0217112e-09 0)
(1.298429 -4.4267452e-09 0)
(1.2984289 -3.6999428e-10 0)
(1.298429 -5.7732558e-09 0)
(1.2984289 4.4519464e-09 0)
(1.298429 -1.1195626e-08 0)
(1.2984288 1.4698586e-08 0)
(1.2984292 -2.4991746e-08 0)
(1.2984287 3.5785157e-08 0)
(1.2984295 -5.3189123e-08 0)
(1.2984282 7.3559507e-08 0)
(1.2984301 -9.8847721e-08 0)
(1.2984273 1.2522592e-07 0)
(1.2984314 -1.4780635e-07 0)
(1.2984255 1.5960343e-07 0)
(1.2984336 -1.4575065e-07 0)
(1.2984229 9.7626586e-08 0)
(1.2984366 5.3815717e-09 0)
(1.2984197 -1.5681261e-07 0)
(1.2984397 3.6262571e-07 0)
(1.2984171 -5.6932093e-07 0)
(1.2984413 7.381275e-07 0)
(1.2984171 -7.5927193e-07 0)
(1.2984396 6.0333028e-07 0)
(1.2984205 -1.7111565e-07 0)
(1.2984349 -3.6701568e-07 0)
(1.2984258 1.0345172e-06 0)
(1.2984301 -1.3022241e-06 0)
(1.2984292 1.4356629e-06 0)
(1.2984289 -6.2240071e-07 0)
(1.2984287 3.271807e-07 0)
(1.2984311 9.9441931e-07 0)
(1.2984265 3.2270431e-08 0)
(1.2984336 1.2151051e-06 0)
(1.2984254 1.8837216e-06 0)
(1.298435 1.4985121e-06 0)
(1.2984237 3.1100034e-06 0)
(1.2984405 3.399141e-06 0)
(1.000591 0.0034620176 0)
(1.013682 0.0093640584 0)
(1.0370036 0.013042066 0)
(1.0673847 0.014550402 0)
(1.0999567 0.014832174 0)
(1.1314935 0.014530415 0)
(1.1608929 0.013831664 0)
(1.1878474 0.012831045 0)
(1.2120863 0.011674929 0)
(1.2335529 0.010496189 0)
(1.2524922 0.0093726713 0)
(1.2691654 0.0083401704 0)
(1.2837208 0.0074000653 0)
(1.2963303 0.006530172 0)
(1.307235 0.0057094524 0)
(1.3166292 0.0049319808 0)
(1.3246082 0.0042002675 0)
(1.3312413 0.0035168934 0)
(1.3366367 0.0028855905 0)
(1.3409346 0.0023137625 0)
(1.3442793 0.0018098633 0)
(1.3468123 0.0013792658 0)
(1.3486745 0.001022681 0)
(1.350003 0.00073675201 0)
(1.350922 0.00051500328 0)
(1.3515375 0.00034882743 0)
(1.3519354 0.00022859004 0)
(1.352183 0.0001446515 0)
(1.3523308 8.8155199e-05 0)
(1.3524148 5.1528328e-05 0)
(1.35246 2.87005e-05 0)
(1.3524824 1.5070714e-05 0)
(1.3524924 7.3158301e-06 0)
(1.352496 3.1485588e-06 0)
(1.3524966 1.0694647e-06 0)
(1.352496 1.3408392e-07 0)
(1.3524952 -2.1410369e-07 0)
(1.3524945 -2.8863198e-07 0)
(1.3524939 -2.5477e-07 0)
(1.3524935 -1.9167358e-07 0)
(1.3524933 -1.3268021e-07 0)
(1.3524932 -8.8023084e-08 0)
(1.3524931 -5.8097242e-08 0)
(1.3524931 -3.9634307e-08 0)
(1.3524931 -2.9052328e-08 0)
(1.3524931 -2.3117564e-08 0)
(1.3524931 -1.9942057e-08 0)
(1.3524931 -1.8039297e-08 0)
(1.3524931 -1.6857587e-08 0)
(1.3524931 -1.5827115e-08 0)
(1.3524931 -1.4950358e-08 0)
(1.3524931 -1.3988795e-08 0)
(1.3524931 -1.3117596e-08 0)
(1.3524931 -1.2153497e-08 0)
(1.3524931 -1.1269104e-08 0)
(1.3524931 -1.0304409e-08 0)
(1.3524931 -9.428061e-09 0)
(1.3524931 -8.5035844e-09 0)
(1.3524931 -7.615011e-09 0)
(1.3524931 -6.7723099e-09 0)
(1.3524931 -5.8424555e-09 0)
(1.3524931 -5.262214e-09 0)
(1.3524931 -4.1015383e-09 0)
(1.3524931 -4.1796573e-09 0)
(1.3524931 -2.2176348e-09 0)
(1.3524931 -4.0068502e-09 0)
(1.352493 3.6776426e-10 0)
(1.3524932 -5.5952949e-09 0)
(1.352493 4.894958e-09 0)
(1.3524933 -1.0557586e-08 0)
(1.3524927 1.3368511e-08 0)
(1.3524937 -2.0876088e-08 0)
(1.3524922 2.7630906e-08 0)
(1.3524945 -3.6980267e-08 0)
(1.3524911 4.5600572e-08 0)
(1.352496 -5.1999767e-08 0)
(1.3524891 5.3915382e-08 0)
(1.3524985 -4.4058704e-08 0)
(1.3524861 2.2492579e-08 0)
(1.3525018 2.1517371e-08 0)
(1.3524827 -7.935987e-08 0)
(1.352505 1.5519069e-07 0)
(1.3524803 -2.2015177e-07 0)
(1.3525061 2.6775171e-07 0)
(1.3524809 -2.4724486e-07 0)
(1.3525036 1.6503975e-07 0)
(1.3524853 1.8371259e-08 0)
(1.352498 -2.1508483e-07 0)
(1.3524912 4.391709e-07 0)
(1.3524929 -4.8044247e-07 0)
(1.3524946 4.7023999e-07 0)
(1.3524923 -1.2566924e-07 0)
(1.3524933 1.8090148e-08 0)
(1.3524955 4.3331769e-07 0)
(1.3524905 1.5491772e-08 0)
(1.3524988 3.9750555e-07 0)
(1.35249 7.4253776e-07 0)
(1.3525 5.0472247e-07 0)
(1.3524892 1.0637358e-06 0)
(1.3525062 1.1663961e-06 0)
(1.000591 -0.0034620156 0)
(1.013682 -0.0093640744 0)
(1.0370036 -0.013042106 0)
(1.0673847 -0.014550455 0)
(1.0999567 -0.014832222 0)
(1.1314935 -0.014530442 0)
(1.1608929 -0.013831677 0)
(1.1878474 -0.01283106 0)
(1.2120863 -0.011674957 0)
(1.2335529 -0.010496228 0)
(1.2524922 -0.0093727141 0)
(1.2691654 -0.0083402163 0)
(1.2837208 -0.0074001161 0)
(1.2963303 -0.0065302265 0)
(1.307235 -0.0057095041 0)
(1.3166291 -0.0049320226 0)
(1.3246082 -0.004200296 0)
(1.3312413 -0.0035169086 0)
(1.3366367 -0.0028855947 0)
(1.3409345 -0.0023137572 0)
(1.3442793 -0.0018098498 0)
(1.3468123 -0.0013792433 0)
(1.3486745 -0.0010226475 0)
(1.350003 -0.00073670551 0)
(1.3509221 -0.00051494455 0)
(1.3515375 -0.00034875987 0)
(1.3519355 -0.00022851958 0)
(1.3521831 -0.00014458461 0)
(1.3523308 -8.8098356e-05 0)
(1.3524149 -5.1486743e-05 0)
(1.35246 -2.8677341e-05 0)
(1.3524825 -1.5066244e-05 0)
(1.3524925 -7.328291e-06 0)
(1.352496 -3.1742529e-06 0)
(1.3524966 -1.1044664e-06 0)
(1.3524961 -1.7440412e-07 0)
(1.3524953 1.7102864e-07 0)
(1.3524945 2.4514267e-07 0)
(1.352494 2.1141174e-07 0)
(1.3524936 1.4912307e-07 0)
(1.3524934 9.0531626e-08 0)
(1.3524932 4.6555534e-08 0)
(1.3524932 1.6809652e-08 0)
(1.3524931 -8.8406526e-10 0)
(1.3524931 -1.087965e-08 0)
(1.3524931 -1.5451707e-08 0)
(1.3524931 -1.733257e-08 0)
(1.3524931 -1.7192375e-08 0)
(1.3524931 -1.6562356e-08 0)
(1.3524931 -1.5206075e-08 0)
(1.3524931 -1.409815e-08 0)
(1.3524931 -1.2676056e-08 0)
(1.3524931 -1.170627e-08 0)
(1.3524931 -1.04672e-08 0)
(1.3524931 -9.6761701e-09 0)
(1.3524931 -8.5998882e-09 0)
(1.3524931 -7.9656707e-09 0)
(1.3524931 -6.9691276e-09 0)
(1.3524931 -6.4270541e-09 0)
(1.3524931 -5.4437126e-09 0)
(1.3524931 -5.0883373e-09 0)
(1.3524931 -3.9951085e-09 0)
(1.3524931 -4.0301425e-09 0)
(1.3524931 -2.4812422e-09 0)
(1.3524931 -3.5798212e-09 0)
(1.3524931 -5.7910411e-10 0)
(1.352493 -4.3028923e-09 0)
(1.3524932 2.6185913e-09 0)
(1.352493 -7.4833094e-09 0)
(1.3524933 8.7276274e-09 0)
(1.3524927 -1.4943604e-08 0)
(1.3524937 1.9951852e-08 0)
(1.3524922 -2.8403912e-08 0)
(1.3524945 3.6809995e-08 0)
(1.3524911 -4.5605562e-08 0)
(1.352496 5.262953e-08 0)
(1.3524891 -5.3084421e-08 0)
(1.3524985 4.5576057e-08 0)
(1.3524861 -2.0717693e-08 0)
(1.3525018 -1.9087837e-08 0)
(1.3524827 8.1841337e-08 0)
(1.352505 -1.519372e-07 0)
(1.3524803 2.2357882e-07 0)
(1.3525061 -2.6375927e-07 0)
(1.3524809 2.5117587e-07 0)
(1.3525036 -1.6079329e-07 0)
(1.3524853 -1.4539529e-08 0)
(1.352498 2.1855804e-07 0)
(1.3524912 -4.3697147e-07 0)
(1.3524929 4.8162493e-07 0)
(1.3524946 -4.7012605e-07 0)
(1.3524923 1.2620882e-07 0)
(1.3524933 -1.6099264e-08 0)
(1.3524955 -4.295476e-07 0)
(1.3524905 -1.1730538e-08 0)
(1.3524988 -3.9542533e-07 0)
(1.35249 -7.4222165e-07 0)
(1.3525 -5.0452588e-07 0)
(1.3524892 -1.0632179e-06 0)
(1.3525062 -1.1668557e-06 0)
(1.0007352 -0.011812224 0)
(1.0178435 -0.030856584 0)
(1.0461957 -0.041421699 0)
(1.0798706 -0.045158731 0)
(1.1131985 -0.045444299 0)
(1.1436498 -0.043986565 0)
(1.1707413 -0.041280272 0)
(1.194395 -0.037731128 0)
(1.2145152 -0.033846846 0)
(1.2312971 -0.030008335 0)
(1.2452357 -0.026419023 0)
(1.2567918 -0.023169882 0)
(1.2662683 -0.020255353 0)
(1.2739474 -0.017601633 0)
(1.2801443 -0.015141171 0)
(1.2851177 -0.012853273 0)
(1.2890322 -0.010743082 0)
(1.292019 -0.008816062 0)
(1.2942247 -0.0070793172 0)
(1.2958034 -0.0055472135 0)
(1.296893 -0.0042340379 0)
(1.2976102 -0.0031437059 0)
(1.2980547 -0.0022671664 0)
(1.2983102 -0.0015854307 0)
(1.2984425 -0.0010731001 0)
(1.2984994 -0.00070151724 0)
(1.2985137 -0.00044173394 0)
(1.2985067 -0.00026689949 0)
(1.2984915 -0.00015384876 0)
(1.2984751 -8.3796408e-05 0)
(1.2984609 -4.2394584e-05 0)
(1.2984499 -1.9246279e-05 0)
(1.2984419 -7.1690345e-06 0)
(1.2984366 -1.4473679e-06 0)
(1.2984333 8.588861e-07 0)
(1.2984312 1.4864244e-06 0)
(1.2984301 1.3920147e-06 0)
(1.2984295 1.0632885e-06 0)
(1.2984292 7.2124676e-07 0)
(1.298429 4.4630671e-07 0)
(1.298429 2.5297851e-07 0)
(1.298429 1.2875263e-07 0)
(1.298429 5.5034663e-08 0)
(1.298429 1.4669921e-08 0)
(1.298429 -5.2760616e-09 0)
(1.298429 -1.3858812e-08 0)
(1.298429 -1.6268471e-08 0)
(1.298429 -1.5929937e-08 0)
(1.298429 -1.4302651e-08 0)
(1.298429 -1.2496728e-08 0)
(1.298429 -1.0669648e-08 0)
(1.298429 -9.2221211e-09 0)
(1.298429 -7.9082155e-09 0)
(1.298429 -6.93491e-09 0)
(1.298429 -6.0318618e-09 0)
(1.298429 -5.384152e-09 0)
(1.298429 -4.7401698e-09 0)
(1.298429 -4.2014203e-09 0)
(1.298429 -3.734078e-09 0)
(1.298429 -3.1689642e-09 0)
(1.298429 -3.0232461e-09 0)
(1.298429 -2.0779271e-09 0)
(1.298429 -2.7626693e-09 0)
(1.298429 -5.6627774e-10 0)
(1.298429 -3.6260723e-09 0)
(1.298429 2.3747245e-09 0)
(1.2984289 -7.0631384e-09 0)
(1.298429 8.9814698e-09 0)
(1.2984288 -1.6303568e-08 0)
(1.2984292 2.3641928e-08 0)
(1.2984287 -3.663838e-08 0)
(1.2984295 5.2496559e-08 0)
(1.2984282 -7.3801423e-08 0)
(1.2984301 9.8764263e-08 0)
(1.2984273 -1.2484529e-07 0)
(1.2984314 1.4836474e-07 0)
(1.2984255 -1.5854195e-07 0)
(1.2984336 1.4704948e-07 0)
(1.2984229 -9.5784748e-08 0)
(1.2984366 -3.2952614e-09 0)
(1.2984197 1.5952715e-07 0)
(1.2984397 -3.5994116e-07 0)
(1.2984171 5.723383e-07 0)
(1.2984413 -7.3509959e-07 0)
(1.2984171 7.6257152e-07 0)
(1.2984396 -6.0015241e-07 0)
(1.2984205 1.7422584e-07 0)
(1.2984349 3.6949805e-07 0)
(1.2984258 -1.0327568e-06 0)
(1.2984302 1.3028398e-06 0)
(1.2984292 -1.4353738e-06 0)
(1.2984289 6.2287542e-07 0)
(1.2984287 -3.2478185e-07 0)
(1.2984311 -9.9065876e-07 0)
(1.2984265 -2.8409336e-08 0)
(1.2984336 -1.2130192e-06 0)
(1.2984254 -1.8833939e-06 0)
(1.298435 -1.4988414e-06 0)
(1.2984237 -3.1104782e-06 0)
(1.2984405 -3.3999647e-06 0)
(1.0014251 -0.026821681 0)
(1.0291257 -0.062788321 0)
(1.0654147 -0.077719709 0)
(1.09894 -0.080551701 0)
(1.1252701 -0.078215361 0)
(1.1449753 -0.073032171 0)
(1.1594281 -0.065893303 0)
(1.1694082 -0.05784738 0)
(1.1754704 -0.049870758 0)
(1.1784083 -0.042507834 0)
(1.1791395 -0.035976477 0)
(1.1783798 -0.030334642 0)
(1.1765962 -0.025503783 0)
(1.1741581 -0.021315736 0)
(1.1713971 -0.017625975 0)
(1.1685611 -0.014365884 0)
(1.165805 -0.011508338 0)
(1.1632339 -0.0090310782 0)
(1.1609301 -0.0069151946 0)
(1.158948 -0.005149228 0)
(1.1573075 -0.0037200151 0)
(1.1559976 -0.002602142 0)
(1.1549877 -0.0017578282 0)
(1.154236 -0.0011426684 0)
(1.1536967 -0.00071130915 0)
(1.1533236 -0.00042113621 0)
(1.1530747 -0.00023449515 0)
(1.152915 -0.00012026666 0)
(1.1528166 -5.4480314e-05 0)
(1.1527588 -1.9275687e-05 0)
(1.1527266 -2.217075e-06 0)
(1.1527099 4.7001142e-06 0)
(1.1527019 6.4284071e-06 0)
(1.1526986 5.8476624e-06 0)
(1.1526977 4.5021679e-06 0)
(1.1526977 3.1255749e-06 0)
(1.1526982 2.0049735e-06 0)
(1.1526986 1.1974922e-06 0)
(1.152699 6.6446881e-07 0)
(1.1526992 3.3665531e-07 0)
(1.1526994 1.4984143e-07 0)
(1.1526995 5.099745e-08 0)
(1.1526996 3.9043604e-09 0)
(1.1526996 -1.5860363e-08 0)
(1.1526996 -2.1074685e-08 0)
(1.1526996 -2.0402227e-08 0)
(1.1526996 -1.7005722e-08 0)
(1.1526996 -1.3707247e-08 0)
(1.1526996 -1.0340766e-08 0)
(1.1526996 -8.0796493e-09 0)
(1.1526996 -5.9701467e-09 0)
(1.1526996 -4.8389338e-09 0)
(1.1526996 -3.6013415e-09 0)
(1.1526996 -3.1191536e-09 0)
(1.1526996 -2.3666798e-09 0)
(1.1526996 -2.207315e-09 0)
(1.1526996 -1.6617089e-09 0)
(1.1526996 -1.595517e-09 0)
(1.1526996 -1.2224244e-09 0)
(1.1526996 -1.1132482e-09 0)
(1.1526996 -1.005135e-09 0)
(1.1526996 -5.2047129e-10 0)
(1.1526996 -1.229965e-09 0)
(1.1526996 5.2857998e-10 0)
(1.1526995 -2.5125491e-09 0)
(1.1526996 3.1518019e-09 0)
(1.1526995 -6.4611156e-09 0)
(1.1526996 9.8115189e-09 0)
(1.1526995 -1.6620459e-08 0)
(1.1526997 2.5701983e-08 0)
(1.1526994 -3.9706052e-08 0)
(1.1526999 5.8994869e-08 0)
(1.1526991 -8.4594354e-08 0)
(1.1527003 1.1739139e-07 0)
(1.1526985 -1.5422135e-07 0)
(1.1527011 1.9318341e-07 0)
(1.1526973 -2.2294802e-07 0)
(1.1527027 2.3364243e-07 0)
(1.1526954 -2.0419408e-07 0)
(1.152705 1.1727302e-07 0)
(1.1526928 4.4448244e-08 0)
(1.1527076 -2.8511849e-07 0)
(1.1526904 5.8143736e-07 0)
(1.1527095 -8.8211193e-07 0)
(1.1526894 1.0763084e-06 0)
(1.1527093 -1.0823677e-06 0)
(1.1526908 7.4419852e-07 0)
(1.1527067 -1.6046194e-07 0)
(1.1526942 -7.4673026e-07 0)
(1.1527032 1.3778839e-06 0)
(1.152697 -1.9880322e-06 0)
(1.1527014 1.3841183e-06 0)
(1.1526977 -1.1899346e-06 0)
(1.1527016 -6.7334967e-07 0)
(1.1526968 -2.6512046e-07 0)
(1.1527024 -1.7941383e-06 0)
(1.1526951 -2.1526737e-06 0)
(1.1527031 -2.3214749e-06 0)
(1.1526913 -4.4976244e-06 0)
(1.1527066 -5.0151639e-06 0)
(1.00166 -0.053817487 0)
(1.0359757 -0.10128359 0)
(1.0597145 -0.11072143 0)
(1.0628931 -0.10588633 0)
(1.0515609 -0.096176961 0)
(1.0340846 -0.083822184 0)
(1.014415 -0.070124325 0)
(0.99387857 -0.05671981 0)
(0.97333936 -0.044776614 0)
(0.95374895 -0.034723674 0)
(0.93583898 -0.026588549 0)
(0.919933 -0.020221053 0)
(0.90608218 -0.015330283 0)
(0.89424107 -0.011570062 0)
(0.88432391 -0.0086590059 0)
(0.87618889 -0.0064083694 0)
(0.86965385 -0.0046792696 0)
(0.86452093 -0.0033571892 0)
(0.86059017 -0.002354201 0)
(0.85766106 -0.0016062086 0)
(0.85554146 -0.0010623797 0)
(0.85405488 -0.00067846921 0)
(0.85304681 -0.00041570692 0)
(0.85238768 -0.00024168233 0)
(0.85197439 -0.00013092022 0)
(0.85172752 -6.3963756e-05 0)
(0.85158842 -2.6041295e-05 0)
(0.85151556 -6.2266576e-06 0)
(0.85148159 3.1490498e-06 0)
(0.85146913 6.5594954e-06 0)
(0.85146718 6.742092e-06 0)
(0.85146946 5.5619991e-06 0)
(0.85147292 4.0597468e-06 0)
(0.85147615 2.7162474e-06 0)
(0.85147869 1.6902107e-06 0)
(0.85148047 9.8156352e-07 0)
(0.85148164 5.2813821e-07 0)
(0.85148234 2.5748795e-07 0)
(0.85148274 1.0690707e-07 0)
(0.85148295 2.9853709e-08 0)
(0.85148305 -6.4403903e-09 0)
(0.85148308 -1.9963439e-08 0)
(0.85148309 -2.2015089e-08 0)
(0.85148308 -1.9044291e-08 0)
(0.85148307 -1.4956054e-08 0)
(0.85148306 -1.0864884e-08 0)
(0.85148306 -7.7664477e-09 0)
(0.85148305 -5.2410153e-09 0)
(0.85148305 -3.6570865e-09 0)
(0.85148304 -2.3797513e-09 0)
(0.85148304 -1.7277309e-09 0)
(0.85148303 -1.0769217e-09 0)
(0.85148304 -8.5615504e-10 0)
(0.85148303 -5.1284609e-10 0)
(0.85148303 -4.9029643e-10 0)
(0.85148303 -2.3598127e-10 0)
(0.85148303 -2.8448668e-10 0)
(0.85148303 -7.8075656e-11 0)
(0.85148303 -1.9979744e-10 0)
(0.85148303 6.1986737e-11 0)
(0.85148303 -1.9159018e-10 0)
(0.85148303 2.4179165e-10 0)
(0.85148303 -4.3938349e-10 0)
(0.85148303 6.9818443e-10 0)
(0.85148302 -1.2335236e-09 0)
(0.85148303 2.0193919e-09 0)
(0.85148302 -3.5276287e-09 0)
(0.85148304 5.7450134e-09 0)
(0.851483 -9.455485e-09 0)
(0.85148307 1.510814e-08 0)
(0.85148295 -2.3506232e-08 0)
(0.85148315 3.5979263e-08 0)
(0.85148283 -5.2694281e-08 0)
(0.85148334 7.584086e-08 0)
(0.85148255 -1.0357861e-07 0)
(0.85148373 1.3684291e-07 0)
(0.85148201 -1.6974664e-07 0)
(0.85148446 1.9739219e-07 0)
(0.85148107 -2.0796235e-07 0)
(0.85148561 1.8691343e-07 0)
(0.85147971 -1.1923233e-07 0)
(0.85148712 -1.0830005e-08 0)
(0.85147816 2.0333809e-07 0)
(0.85148857 -4.5360008e-07 0)
(0.85147696 7.04353e-07 0)
(0.85148935 -9.1733618e-07 0)
(0.85147669 9.4795877e-07 0)
(0.85148907 -8.1393054e-07 0)
(0.85147735 3.126709e-07 0)
(0.85148807 2.0702666e-07 0)
(0.85147829 -1.052415e-06 0)
(0.85148698 1.1808834e-06 0)
(0.85147893 -1.7070775e-06 0)
(0.8514858 3.9681245e-07 0)
(0.85147904 -1.1043366e-06 0)
(0.85148417 -1.4262408e-06 0)
(0.85147731 -1.7974344e-06 0)
(0.85148222 -2.6221046e-06 0)
(0.85147105 -4.3853954e-06 0)
(0.85148167 -5.0740248e-06 0)
(0.91891016 -0.035822113 0)
(0.86271249 -0.062194438 0)
(0.78706395 -0.062500507 0)
(0.69537933 -0.05454015 0)
(0.61094571 -0.044500898 0)
(0.5442478 -0.03392555 0)
(0.49369534 -0.024062051 0)
(0.45518825 -0.01600248 0)
(0.42600206 -0.010042412 0)
(0.40430825 -0.0059348491 0)
(0.38843411 -0.0032996169 0)
(0.37685335 -0.0017372182 0)
(0.36835028 -0.00087111248 0)
(0.36205159 -0.00041640155 0)
(0.35735688 -0.00019729002 0)
(0.35384713 -0.00010800774 0)
(0.35122597 -7.9853791e-05 0)
(0.34927942 -7.2819939e-05 0)
(0.34785345 -6.986374e-05 0)
(0.34683127 -6.5633328e-05 0)
(0.34611856 -5.8817454e-05 0)
(0.34563663 -4.9897062e-05 0)
(0.34532175 -3.9961876e-05 0)
(0.34512402 -3.017806e-05 0)
(0.34500592 -2.1558499e-05 0)
(0.3449397 -1.4682299e-05 0)
(0.34490573 -9.588543e-06 0)
(0.34489074 -5.9504733e-06 0)
(0.34488594 -3.17603e-06 0)
(0.34488569 -1.3420066e-06 0)
(0.34488728 -4.2873193e-07 0)
(0.34488943 -4.6608602e-08 0)
(0.34489143 8.0908242e-08 0)
(0.34489298 1.014959e-07 0)
(0.34489406 8.5075768e-08 0)
(0.34489476 6.1523143e-08 0)
(0.34489517 4.0321537e-08 0)
(0.3448954 2.4928513e-08 0)
(0.34489551 1.430159e-08 0)
(0.34489556 7.8540065e-09 0)
(0.34489557 2.5641797e-09 0)
(0.34489557 -5.4455165e-10 0)
(0.34489556 -1.8751702e-09 0)
(0.34489556 -1.7294982e-09 0)
(0.34489555 -1.6226298e-09 0)
(0.34489554 -1.0511629e-09 0)
(0.34489554 -8.962733e-10 0)
(0.34489554 -4.3028887e-10 0)
(0.34489553 -4.4717733e-10 0)
(0.34489553 -1.2227689e-10 0)
(0.34489553 -2.3085289e-10 0)
(0.34489553 4.0594507e-11 0)
(0.34489553 -1.3518911e-10 0)
(0.34489553 9.3678869e-11 0)
(0.34489553 -8.744466e-11 0)
(0.34489553 1.4771133e-10 0)
(0.34489553 -6.5395031e-11 0)
(0.34489553 1.5369552e-10 0)
(0.34489553 -5.6461809e-11 0)
(0.34489553 1.8244093e-10 0)
(0.34489553 -7.8922976e-11 0)
(0.34489553 1.9252739e-10 0)
(0.34489553 -1.4679031e-10 0)
(0.34489553 2.9162203e-10 0)
(0.34489553 -3.5442532e-10 0)
(0.34489553 5.6921332e-10 0)
(0.34489553 -9.154744e-10 0)
(0.34489553 1.4694932e-09 0)
(0.34489552 -2.3649793e-09 0)
(0.34489554 3.7904902e-09 0)
(0.34489551 -5.8650142e-09 0)
(0.34489556 9.1702996e-09 0)
(0.34489549 -1.3470007e-08 0)
(0.3448956 1.9871796e-08 0)
(0.34489543 -2.7651795e-08 0)
(0.34489569 3.7675727e-08 0)
(0.34489531 -4.8717327e-08 0)
(0.34489585 5.9596167e-08 0)
(0.34489509 -6.8797077e-08 0)
(0.34489612 7.119886e-08 0)
(0.34489477 -6.5160794e-08 0)
(0.34489649 4.2651255e-08 0)
(0.34489437 -4.8152911e-09 0)
(0.34489689 -5.4308457e-08 0)
(0.34489398 1.2156365e-07 0)
(0.34489722 -2.0375097e-07 0)
(0.3448937 2.5308506e-07 0)
(0.34489741 -3.0703444e-07 0)
(0.34489349 2.5468967e-07 0)
(0.34489751 -2.4169726e-07 0)
(0.34489325 2.392641e-08 0)
(0.34489752 -5.4827375e-08 0)
(0.34489285 -3.8160039e-07 0)
(0.3448971 -1.96106e-08 0)
(0.34489208 -9.0573334e-07 0)
(0.3448956 -3.6852331e-07 0)
(0.3448903 -1.5678365e-06 0)
(0.3448918 -1.3678866e-06 0)
(0.34488509 -1.9341713e-06 0)
(0.34488518 -2.2097433e-06 0)
)
;

boundaryField
{
    top
    {
        type            fixedValue;
        value           uniform (0 0 0);
    }
    inlet
    {
        type            fixedValue;
        value           uniform (1 0 0);
    }
    outlet
    {
        type            zeroGradient;
    }
    bottom
    {
        type            fixedValue;
        value           uniform (0 0 0);
    }
    back
    {
        type            empty;
    }
    front
    {
        type            empty;
    }
}


// ************************************************************************* //
