/*--------------------------------*- C++ -*----------------------------------*\
  =========                 |
  \\      /  F ield         | OpenFOAM: The Open Source CFD Toolbox
   \\    /   O peration     | Website:  https://openfoam.org
    \\  /    A nd           | Version:  9
     \\/     M anipulation  |
\*---------------------------------------------------------------------------*/
FoamFile
{
    format      ascii;
    class       volScalarField;
    location    "0.4";
    object      p;
}
// * * * * * * * * * * * * * * * * * * * * * * * * * * * * * * * * * * * * * //

dimensions      [1 -1 -2 0 0 0 0];

internalField   nonuniform List<scalar> 
4096
(
-1.15494e-06
0
-6.31808e-07
-2.69098e-07
6.99747e-07
2.06601e-06
3.71041e-06
5.52499e-06
7.4142e-06
9.28946e-06
1.1069e-05
1.2678e-05
1.405e-05
1.5129e-05
1.58708e-05
1.62448e-05
1.62353e-05
1.58414e-05
1.50776e-05
1.39728e-05
1.25694e-05
1.09214e-05
9.09241e-06
7.15324e-06
5.17899e-06
3.24618e-06
1.42982e-06
-1.99755e-07
-1.57961e-06
-2.65591e-06
-3.38562e-06
-3.75119e-06
-0.0519336
-0.0519332
-0.051933
-0.0519323
-0.0519312
-0.0519298
-0.0519281
-0.0519262
-0.0519242
-0.0519223
-0.0519204
-0.0519188
-0.0519173
-0.0519162
-0.0519155
-0.0519151
-0.0519151
-0.0519155
-0.0519163
-0.0519174
-0.0519189
-0.0519206
-0.0519225
-0.0519245
-0.0519265
-0.0519285
-0.0519304
-0.0519321
-0.0519335
-0.0519347
-0.0519354
-0.0519358
-0.103866
-0.103866
-0.103866
-0.103865
-0.103863
-0.103862
-0.10386
-0.103858
-0.103856
-0.103854
-0.103852
-0.10385
-0.103848
-0.103847
-0.103846
-0.103846
-0.103846
-0.103846
-0.103847
-0.103849
-0.10385
-0.103852
-0.103854
-0.103856
-0.103858
-0.10386
-0.103862
-0.103864
-0.103866
-0.103867
-0.103868
-0.103868
-0.155799
-0.155799
-0.155798
-0.155797
-0.155796
-0.155794
-0.155792
-0.15579
-0.155787
-0.155785
-0.155783
-0.155781
-0.155779
-0.155778
-0.155777
-0.155776
-0.155776
-0.155777
-0.155778
-0.155779
-0.155781
-0.155783
-0.155785
-0.155788
-0.15579
-0.155792
-0.155795
-0.155797
-0.155798
-0.1558
-0.155801
-0.155801
-0.207733
-0.207733
-0.207732
-0.20773
-0.207729
-0.207727
-0.207724
-0.207722
-0.207719
-0.207716
-0.207714
-0.207711
-0.20771
-0.207708
-0.207707
-0.207706
-0.207706
-0.207707
-0.207708
-0.20771
-0.207712
-0.207714
-0.207716
-0.207719
-0.207722
-0.207725
-0.207727
-0.207729
-0.207731
-0.207733
-0.207734
-0.207734
-0.259667
-0.259666
-0.259665
-0.259664
-0.259662
-0.259659
-0.259656
-0.259653
-0.25965
-0.259647
-0.259644
-0.259642
-0.259639
-0.259638
-0.259637
-0.259636
-0.259636
-0.259637
-0.259638
-0.25964
-0.259642
-0.259644
-0.259647
-0.259651
-0.259654
-0.259657
-0.25966
-0.259662
-0.259665
-0.259666
-0.259668
-0.259668
-0.311602
-0.311601
-0.3116
-0.311598
-0.311595
-0.311592
-0.311589
-0.311585
-0.311582
-0.311578
-0.311575
-0.311572
-0.311569
-0.311567
-0.311565
-0.311565
-0.311565
-0.311565
-0.311567
-0.311569
-0.311572
-0.311575
-0.311578
-0.311582
-0.311586
-0.311589
-0.311593
-0.311596
-0.311598
-0.3116
-0.311602
-0.311603
-0.363537
-0.363536
-0.363534
-0.363532
-0.363529
-0.363526
-0.363522
-0.363517
-0.363513
-0.363509
-0.363505
-0.363501
-0.363498
-0.363495
-0.363494
-0.363493
-0.363493
-0.363494
-0.363495
-0.363498
-0.363501
-0.363505
-0.363509
-0.363513
-0.363518
-0.363522
-0.363526
-0.36353
-0.363533
-0.363535
-0.363537
-0.363538
-0.415473
-0.415472
-0.41547
-0.415467
-0.415464
-0.415459
-0.415455
-0.415449
-0.415444
-0.415439
-0.415434
-0.41543
-0.415426
-0.415423
-0.415421
-0.41542
-0.41542
-0.415421
-0.415423
-0.415426
-0.41543
-0.415434
-0.415439
-0.415444
-0.41545
-0.415455
-0.41546
-0.415464
-0.415468
-0.415471
-0.415473
-0.415474
-0.46741
-0.467409
-0.467407
-0.467403
-0.467399
-0.467394
-0.467388
-0.467382
-0.467375
-0.467369
-0.467363
-0.467358
-0.467353
-0.46735
-0.467347
-0.467346
-0.467346
-0.467348
-0.46735
-0.467354
-0.467358
-0.467363
-0.467369
-0.467375
-0.467382
-0.467388
-0.467394
-0.467399
-0.467404
-0.467407
-0.467409
-0.467411
-0.519348
-0.519347
-0.519344
-0.51934
-0.519335
-0.519328
-0.519321
-0.519314
-0.519306
-0.519299
-0.519292
-0.519285
-0.51928
-0.519276
-0.519273
-0.519271
-0.519271
-0.519273
-0.519276
-0.51928
-0.519285
-0.519292
-0.519299
-0.519306
-0.519314
-0.519322
-0.519329
-0.519335
-0.51934
-0.519345
-0.519347
-0.519349
-0.571288
-0.571286
-0.571283
-0.571278
-0.571271
-0.571264
-0.571255
-0.571246
-0.571237
-0.571228
-0.571219
-0.571212
-0.571205
-0.5712
-0.571196
-0.571195
-0.571195
-0.571197
-0.5712
-0.571205
-0.571212
-0.57122
-0.571228
-0.571237
-0.571247
-0.571256
-0.571264
-0.571272
-0.571278
-0.571283
-0.571287
-0.571289
-0.62323
-0.623228
-0.623223
-0.623217
-0.623209
-0.6232
-0.62319
-0.623179
-0.623168
-0.623157
-0.623146
-0.623137
-0.623129
-0.623123
-0.623119
-0.623116
-0.623116
-0.623119
-0.623123
-0.623129
-0.623137
-0.623146
-0.623157
-0.623168
-0.623179
-0.62319
-0.6232
-0.62321
-0.623218
-0.623224
-0.623228
-0.62323
-0.675173
-0.675171
-0.675166
-0.675158
-0.675149
-0.675138
-0.675125
-0.675112
-0.675098
-0.675085
-0.675072
-0.675061
-0.675051
-0.675044
-0.675039
-0.675036
-0.675036
-0.675039
-0.675044
-0.675051
-0.675061
-0.675072
-0.675085
-0.675098
-0.675112
-0.675125
-0.675138
-0.675149
-0.675159
-0.675166
-0.675171
-0.675174
-0.72712
-0.727116
-0.72711
-0.727101
-0.72709
-0.727076
-0.727061
-0.727045
-0.727028
-0.727012
-0.726997
-0.726983
-0.726971
-0.726962
-0.726956
-0.726953
-0.726953
-0.726956
-0.726962
-0.726972
-0.726983
-0.726997
-0.727012
-0.727029
-0.727045
-0.727061
-0.727076
-0.72709
-0.727102
-0.727111
-0.727117
-0.72712
-0.779069
-0.779065
-0.779058
-0.779047
-0.779033
-0.779016
-0.778998
-0.778978
-0.778958
-0.778939
-0.77892
-0.778903
-0.778889
-0.778878
-0.77887
-0.778866
-0.778866
-0.77887
-0.778878
-0.778889
-0.778903
-0.77892
-0.778939
-0.778958
-0.778978
-0.778998
-0.779017
-0.779033
-0.779047
-0.779058
-0.779065
-0.779069
-0.831022
-0.831018
-0.831009
-0.830995
-0.830978
-0.830958
-0.830936
-0.830912
-0.830888
-0.830864
-0.830841
-0.830821
-0.830804
-0.83079
-0.830781
-0.830776
-0.830776
-0.830781
-0.83079
-0.830804
-0.830821
-0.830842
-0.830864
-0.830888
-0.830912
-0.830936
-0.830959
-0.830979
-0.830996
-0.831009
-0.831018
-0.831022
-0.88298
-0.882975
-0.882964
-0.882948
-0.882927
-0.882903
-0.882875
-0.882847
-0.882817
-0.882788
-0.882761
-0.882736
-0.882715
-0.882698
-0.882687
-0.882681
-0.882681
-0.882687
-0.882698
-0.882715
-0.882736
-0.882761
-0.882788
-0.882817
-0.882847
-0.882876
-0.882903
-0.882927
-0.882948
-0.882964
-0.882975
-0.88298
-0.934944
-0.934937
-0.934924
-0.934904
-0.934879
-0.93485
-0.934817
-0.934781
-0.934746
-0.93471
-0.934677
-0.934647
-0.934622
-0.934602
-0.934588
-0.934581
-0.934581
-0.934588
-0.934602
-0.934622
-0.934647
-0.934677
-0.93471
-0.934746
-0.934782
-0.934817
-0.93485
-0.934879
-0.934904
-0.934924
-0.934937
-0.934944
-0.986914
-0.986906
-0.98689
-0.986866
-0.986836
-0.9868
-0.98676
-0.986717
-0.986674
-0.986631
-0.98659
-0.986554
-0.986523
-0.986499
-0.986482
-0.986473
-0.986473
-0.986482
-0.986499
-0.986523
-0.986554
-0.98659
-0.986631
-0.986674
-0.986717
-0.98676
-0.9868
-0.986836
-0.986866
-0.98689
-0.986906
-0.986915
-1.03889
-1.03888
-1.03886
-1.03884
-1.0388
-1.03875
-1.03871
-1.03865
-1.0386
-1.03855
-1.0385
-1.03846
-1.03842
-1.03839
-1.03837
-1.03836
-1.03836
-1.03837
-1.03839
-1.03842
-1.03846
-1.0385
-1.03855
-1.0386
-1.03865
-1.03871
-1.03875
-1.0388
-1.03884
-1.03886
-1.03888
-1.03889
-1.09088
-1.09087
-1.09085
-1.09081
-1.09077
-1.09071
-1.09065
-1.09059
-1.09053
-1.09046
-1.0904
-1.09035
-1.0903
-1.09027
-1.09024
-1.09023
-1.09023
-1.09024
-1.09027
-1.0903
-1.09035
-1.0904
-1.09046
-1.09053
-1.09059
-1.09065
-1.09071
-1.09077
-1.09081
-1.09085
-1.09087
-1.09088
-1.14288
-1.14287
-1.14284
-1.1428
-1.14274
-1.14268
-1.14261
-1.14253
-1.14245
-1.14238
-1.1423
-1.14224
-1.14218
-1.14214
-1.14211
-1.14209
-1.14209
-1.14211
-1.14214
-1.14218
-1.14224
-1.1423
-1.14238
-1.14245
-1.14253
-1.14261
-1.14268
-1.14274
-1.1428
-1.14284
-1.14287
-1.14288
-1.1949
-1.19488
-1.19485
-1.1948
-1.19473
-1.19465
-1.19456
-1.19447
-1.19438
-1.19428
-1.19419
-1.19412
-1.19405
-1.19399
-1.19396
-1.19394
-1.19394
-1.19396
-1.19399
-1.19405
-1.19412
-1.19419
-1.19428
-1.19438
-1.19447
-1.19456
-1.19465
-1.19473
-1.1948
-1.19485
-1.19488
-1.1949
-1.24694
-1.24691
-1.24687
-1.24681
-1.24673
-1.24663
-1.24653
-1.24641
-1.2463
-1.24619
-1.24608
-1.24598
-1.2459
-1.24583
-1.24579
-1.24577
-1.24577
-1.24579
-1.24583
-1.2459
-1.24598
-1.24608
-1.24619
-1.2463
-1.24641
-1.24653
-1.24663
-1.24673
-1.24681
-1.24687
-1.24691
-1.24694
-1.29899
-1.29897
-1.29891
-1.29884
-1.29874
-1.29863
-1.2985
-1.29836
-1.29822
-1.29808
-1.29795
-1.29783
-1.29773
-1.29765
-1.2976
-1.29757
-1.29757
-1.2976
-1.29765
-1.29773
-1.29783
-1.29795
-1.29808
-1.29822
-1.29836
-1.2985
-1.29863
-1.29874
-1.29884
-1.29891
-1.29897
-1.29899
-1.35108
-1.35104
-1.35098
-1.35089
-1.35077
-1.35063
-1.35047
-1.35031
-1.35014
-1.34997
-1.34981
-1.34967
-1.34955
-1.34945
-1.34938
-1.34935
-1.34935
-1.34938
-1.34945
-1.34955
-1.34967
-1.34981
-1.34997
-1.35014
-1.35031
-1.35047
-1.35063
-1.35077
-1.35089
-1.35098
-1.35104
-1.35108
-1.40319
-1.40315
-1.40308
-1.40297
-1.40282
-1.40265
-1.40246
-1.40226
-1.40205
-1.40185
-1.40166
-1.40148
-1.40133
-1.40122
-1.40114
-1.40109
-1.40109
-1.40114
-1.40122
-1.40133
-1.40148
-1.40166
-1.40185
-1.40205
-1.40226
-1.40246
-1.40265
-1.40282
-1.40297
-1.40308
-1.40315
-1.40319
-1.45535
-1.4553
-1.45521
-1.45507
-1.4549
-1.45469
-1.45446
-1.45422
-1.45397
-1.45372
-1.45348
-1.45327
-1.45309
-1.45295
-1.45285
-1.4528
-1.4528
-1.45285
-1.45295
-1.45309
-1.45327
-1.45348
-1.45372
-1.45397
-1.45422
-1.45446
-1.45469
-1.4549
-1.45507
-1.45521
-1.4553
-1.45535
-1.50755
-1.5075
-1.50738
-1.50722
-1.50701
-1.50676
-1.50648
-1.50618
-1.50588
-1.50557
-1.50529
-1.50503
-1.50481
-1.50464
-1.50452
-1.50446
-1.50446
-1.50452
-1.50464
-1.50481
-1.50503
-1.50529
-1.50557
-1.50588
-1.50618
-1.50648
-1.50676
-1.50701
-1.50722
-1.50738
-1.5075
-1.50755
-1.55981
-1.55975
-1.55961
-1.55941
-1.55916
-1.55885
-1.55852
-1.55815
-1.55778
-1.55742
-1.55707
-1.55675
-1.55648
-1.55627
-1.55613
-1.55605
-1.55605
-1.55613
-1.55627
-1.55648
-1.55675
-1.55707
-1.55741
-1.55778
-1.55815
-1.55852
-1.55885
-1.55916
-1.55941
-1.55961
-1.55975
-1.55981
-1.61215
-1.61206
-1.6119
-1.61166
-1.61135
-1.61098
-1.61057
-1.61013
-1.60968
-1.60924
-1.60881
-1.60843
-1.6081
-1.60784
-1.60767
-1.60757
-1.60757
-1.60767
-1.60784
-1.6081
-1.60843
-1.60881
-1.60924
-1.60968
-1.61013
-1.61057
-1.61098
-1.61135
-1.61166
-1.6119
-1.61206
-1.61215
-1.66456
-1.66447
-1.66427
-1.66398
-1.6636
-1.66316
-1.66266
-1.66213
-1.66158
-1.66104
-1.66052
-1.66006
-1.65966
-1.65934
-1.65912
-1.65901
-1.65901
-1.65912
-1.65934
-1.65966
-1.66006
-1.66052
-1.66104
-1.66158
-1.66213
-1.66266
-1.66316
-1.6636
-1.66398
-1.66427
-1.66446
-1.66456
-1.71709
-1.71697
-1.71673
-1.71638
-1.71593
-1.71539
-1.71479
-1.71414
-1.71347
-1.71281
-1.71219
-1.71161
-1.71113
-1.71074
-1.71047
-1.71034
-1.71033
-1.71047
-1.71074
-1.71113
-1.71161
-1.71218
-1.71281
-1.71347
-1.71414
-1.71479
-1.71539
-1.71593
-1.71638
-1.71673
-1.71697
-1.71709
-1.76973
-1.76959
-1.7693
-1.76888
-1.76833
-1.76768
-1.76695
-1.76617
-1.76536
-1.76456
-1.76379
-1.7631
-1.7625
-1.76203
-1.7617
-1.76153
-1.76153
-1.7617
-1.76202
-1.7625
-1.7631
-1.76379
-1.76456
-1.76536
-1.76617
-1.76695
-1.76768
-1.76833
-1.76888
-1.7693
-1.76959
-1.76973
-1.82253
-1.82236
-1.82201
-1.8215
-1.82084
-1.82006
-1.81918
-1.81823
-1.81725
-1.81627
-1.81534
-1.81448
-1.81375
-1.81317
-1.81277
-1.81256
-1.81256
-1.81277
-1.81317
-1.81375
-1.81448
-1.81534
-1.81627
-1.81725
-1.81823
-1.81918
-1.82006
-1.82084
-1.8215
-1.82201
-1.82236
-1.82253
-1.87551
-1.8753
-1.87489
-1.87428
-1.87348
-1.87254
-1.87147
-1.87032
-1.86913
-1.86794
-1.8668
-1.86576
-1.86486
-1.86415
-1.86365
-1.8634
-1.8634
-1.86365
-1.86415
-1.86486
-1.86576
-1.8668
-1.86794
-1.86913
-1.87032
-1.87147
-1.87254
-1.87348
-1.87428
-1.87489
-1.8753
-1.87551
-1.92871
-1.92846
-1.92797
-1.92723
-1.92628
-1.92514
-1.92386
-1.92247
-1.92102
-1.91957
-1.91818
-1.9169
-1.9158
-1.91492
-1.9143
-1.91399
-1.91399
-1.9143
-1.91492
-1.9158
-1.9169
-1.91818
-1.91957
-1.92102
-1.92247
-1.92386
-1.92514
-1.92628
-1.92723
-1.92796
-1.92846
-1.92871
-1.98217
-1.98188
-1.98129
-1.98041
-1.97927
-1.9779
-1.97636
-1.97467
-1.97292
-1.97115
-1.96945
-1.96788
-1.96652
-1.96543
-1.96468
-1.96429
-1.96429
-1.96468
-1.96543
-1.96652
-1.96788
-1.96945
-1.97115
-1.97292
-1.97467
-1.97636
-1.9779
-1.97927
-1.98041
-1.98129
-1.98188
-1.98217
-2.03595
-2.0356
-2.0349
-2.03385
-2.03249
-2.03086
-2.029
-2.02697
-2.02484
-2.02269
-2.0206
-2.01867
-2.01699
-2.01565
-2.0147
-2.01422
-2.01422
-2.0147
-2.01565
-2.01699
-2.01867
-2.0206
-2.02269
-2.02484
-2.02697
-2.029
-2.03086
-2.03249
-2.03385
-2.0349
-2.0356
-2.03595
-2.09012
-2.0897
-2.08887
-2.08763
-2.08601
-2.08406
-2.08182
-2.07937
-2.07679
-2.07418
-2.07162
-2.06925
-2.06716
-2.06549
-2.06431
-2.0637
-2.0637
-2.06431
-2.06549
-2.06716
-2.06925
-2.07162
-2.07417
-2.07679
-2.07937
-2.08182
-2.08406
-2.08601
-2.08763
-2.08887
-2.0897
-2.09012
-2.14474
-2.14425
-2.14327
-2.1418
-2.13988
-2.13756
-2.13488
-2.13194
-2.12882
-2.12563
-2.1225
-2.11956
-2.11697
-2.11488
-2.1134
-2.11263
-2.11263
-2.1134
-2.11488
-2.11697
-2.11956
-2.1225
-2.12563
-2.12882
-2.13194
-2.13488
-2.13756
-2.13988
-2.1418
-2.14327
-2.14425
-2.14474
-2.1999
-2.19933
-2.19818
-2.19645
-2.19419
-2.19144
-2.18826
-2.18473
-2.18096
-2.17707
-2.17322
-2.16959
-2.16636
-2.16372
-2.16184
-2.16087
-2.16087
-2.16184
-2.16372
-2.16636
-2.16959
-2.17322
-2.17707
-2.18096
-2.18473
-2.18826
-2.19144
-2.19419
-2.19645
-2.19818
-2.19933
-2.1999
-2.25572
-2.25505
-2.25371
-2.2517
-2.24904
-2.2458
-2.24203
-2.23781
-2.23327
-2.22854
-2.22381
-2.2193
-2.21524
-2.2119
-2.20951
-2.20826
-2.20826
-2.20951
-2.2119
-2.21524
-2.2193
-2.22381
-2.22854
-2.23327
-2.23781
-2.24203
-2.2458
-2.24904
-2.2517
-2.25371
-2.25505
-2.25571
-2.31229
-2.31153
-2.30998
-2.30765
-2.30456
-2.30077
-2.29632
-2.29131
-2.28585
-2.2801
-2.27429
-2.26867
-2.26355
-2.25928
-2.2562
-2.25458
-2.25458
-2.2562
-2.25928
-2.26355
-2.26867
-2.27429
-2.2801
-2.28585
-2.29131
-2.29632
-2.30077
-2.30456
-2.30765
-2.30998
-2.31153
-2.31229
-2.36977
-2.3689
-2.36713
-2.36446
-2.36091
-2.3565
-2.3513
-2.34537
-2.33884
-2.33188
-2.32473
-2.31771
-2.31122
-2.30572
-2.3017
-2.29957
-2.29957
-2.3017
-2.30572
-2.31122
-2.31771
-2.32473
-2.33188
-2.33884
-2.34537
-2.3513
-2.3565
-2.3609
-2.36446
-2.36713
-2.3689
-2.36977
-2.42831
-2.42732
-2.42533
-2.4223
-2.41825
-2.4132
-2.40717
-2.40022
-2.39247
-2.38407
-2.37529
-2.3665
-2.35821
-2.35105
-2.34573
-2.34288
-2.34288
-2.34573
-2.35105
-2.35821
-2.3665
-2.37529
-2.38407
-2.39247
-2.40022
-2.40717
-2.4132
-2.41825
-2.4223
-2.42533
-2.42732
-2.42831
-2.48807
-2.48698
-2.48476
-2.48138
-2.47683
-2.4711
-2.4642
-2.45615
-2.44702
-2.43696
-2.42621
-2.4152
-2.40455
-2.39512
-2.38796
-2.38408
-2.38408
-2.38796
-2.39512
-2.40455
-2.4152
-2.42621
-2.43696
-2.44702
-2.45615
-2.4642
-2.4711
-2.47683
-2.48138
-2.48476
-2.48698
-2.48807
-2.54925
-2.54806
-2.54563
-2.54192
-2.5369
-2.53052
-2.52274
-2.51355
-2.50293
-2.49099
-2.47793
-2.46416
-2.45043
-2.43786
-2.42803
-2.42261
-2.42261
-2.42803
-2.43786
-2.45043
-2.46416
-2.47793
-2.49099
-2.50293
-2.51355
-2.52274
-2.53052
-2.5369
-2.54192
-2.54563
-2.54806
-2.54924
-2.61203
-2.61077
-2.60817
-2.60419
-2.59876
-2.5918
-2.58322
-2.57291
-2.5608
-2.54686
-2.53116
-2.51405
-2.49631
-2.47937
-2.46559
-2.45785
-2.45785
-2.46559
-2.47937
-2.49631
-2.51405
-2.53115
-2.54685
-2.5608
-2.57291
-2.58322
-2.5918
-2.59876
-2.60419
-2.60817
-2.61077
-2.61203
-2.67663
-2.67532
-2.67262
-2.66845
-2.66274
-2.65535
-2.64613
-2.63489
-2.62141
-2.6055
-2.58702
-2.56607
-2.54323
-2.52016
-2.50038
-2.48906
-2.48906
-2.50038
-2.52016
-2.54323
-2.56607
-2.58702
-2.6055
-2.62141
-2.63489
-2.64613
-2.65535
-2.66274
-2.66845
-2.67262
-2.67532
-2.67663
-2.74325
-2.74193
-2.73921
-2.735
-2.72918
-2.7216
-2.71204
-2.70022
-2.68577
-2.66826
-2.64723
-2.62223
-2.59319
-2.56146
-2.53246
-2.51545
-2.51545
-2.53247
-2.56146
-2.59319
-2.62223
-2.64723
-2.66826
-2.68577
-2.70022
-2.71204
-2.7216
-2.72918
-2.735
-2.73921
-2.74193
-2.74325
-2.81207
-2.8108
-2.80817
-2.80408
-2.79842
-2.79099
-2.78154
-2.76971
-2.75502
-2.7368
-2.71417
-2.6859
-2.65034
-2.60707
-2.56455
-2.53814
-2.53814
-2.56455
-2.60707
-2.65034
-2.6859
-2.71417
-2.7368
-2.75502
-2.76971
-2.78154
-2.79099
-2.79842
-2.80408
-2.80817
-2.8108
-2.81207
-2.88324
-2.88208
-2.87968
-2.87593
-2.87072
-2.86387
-2.8551
-2.84407
-2.83025
-2.8129
-2.79089
-2.76232
-2.72275
-2.66593
-2.60322
-2.56536
-2.56536
-2.60322
-2.66594
-2.72276
-2.76232
-2.79089
-2.8129
-2.83025
-2.84406
-2.8551
-2.86386
-2.87072
-2.87593
-2.87968
-2.88208
-2.88324
-2.95688
-2.95591
-2.95387
-2.95069
-2.94626
-2.94042
-2.93298
-2.92363
-2.91199
-2.89754
-2.87941
-2.85475
-2.81557
-2.75304
-2.6695
-2.62397
-2.62397
-2.6695
-2.75304
-2.81558
-2.85475
-2.87941
-2.89754
-2.91199
-2.92362
-2.93297
-2.94042
-2.94625
-2.95068
-2.95387
-2.95591
-2.95688
-3.03306
-3.03233
-3.03079
-3.02839
-3.02503
-3.02061
-3.015
-3.00806
-2.99963
-2.98963
-2.97767
-2.95941
-2.92122
-2.86372
-2.7677
-2.72535
-2.72535
-2.76771
-2.86372
-2.92122
-2.95941
-2.97767
-2.98963
-2.99962
-3.00805
-3.015
-3.02061
-3.02503
-3.02839
-3.03079
-3.03233
-3.03305
-3.11175
-3.11134
-3.11043
-3.10897
-3.10691
-3.10414
-3.10059
-3.09625
-3.0912
-3.08591
-3.08048
-3.0703
-3.04128
-3.00212
-2.93702
-2.89632
-2.89632
-2.93702
-3.00212
-3.04128
-3.0703
-3.08048
-3.08591
-3.0912
-3.09625
-3.10059
-3.10413
-3.1069
-3.10897
-3.11043
-3.11133
-3.11175
-3.19291
-3.19286
-3.19268
-3.19231
-3.19164
-3.19053
-3.18888
-3.18651
-3.18358
-3.18063
-3.17772
-3.17267
-3.18027
-3.15303
-3.07795
-3.04024
-3.04024
-3.07795
-3.15303
-3.18026
-3.17266
-3.17771
-3.18063
-3.18358
-3.18651
-3.18888
-3.19053
-3.19163
-3.1923
-3.19268
-3.19286
-3.19291
-3.2764
-3.27677
-3.27741
-3.27822
-3.27899
-3.27944
-3.27912
-3.27737
-3.2737
-3.26867
-3.26182
-3.25129
-3.29631
-3.2591
-3.1882
-3.15614
-3.15614
-3.1882
-3.2591
-3.29631
-3.25128
-3.26181
-3.26867
-3.2737
-3.27737
-3.27912
-3.27944
-3.27899
-3.27822
-3.27741
-3.27677
-3.2764
-3.36202
-3.36287
-3.36446
-3.36659
-3.36888
-3.37075
-3.37111
-3.36839
-3.36112
-3.35027
-3.33723
-3.34808
-3.37824
-3.33216
-3.27825
-3.25521
-3.25521
-3.27825
-3.33216
-3.37824
-3.34807
-3.33723
-3.35027
-3.36111
-3.36839
-3.37111
-3.37074
-3.36888
-3.36658
-3.36446
-3.36287
-3.36202
-3.44946
-3.45089
-3.45358
-3.45727
-3.46133
-3.46466
-3.4654
-3.46058
-3.44754
-3.42811
-3.41298
-3.4533
-3.44768
-3.40025
-3.36241
-3.34511
-3.34511
-3.36241
-3.40024
-3.44767
-3.45329
-3.41298
-3.4281
-3.44753
-3.46058
-3.46539
-3.46465
-3.46133
-3.45726
-3.45358
-3.45089
-3.44946
-3.53821
-3.54032
-3.54437
-3.55
-3.5563
-3.56144
-3.56262
-3.55546
-3.53315
-3.50913
-3.53592
-3.54507
-3.51701
-3.48071
-3.45361
-3.43991
-3.43991
-3.45361
-3.4807
-3.51701
-3.54507
-3.53591
-3.50913
-3.53315
-3.55545
-3.56262
-3.56144
-3.5563
-3.55
-3.54436
-3.54032
-3.53821
-3.62749
-3.6304
-3.63613
-3.64424
-3.65334
-3.66055
-3.66182
-3.65246
-3.62564
-3.63322
-3.6443
-3.63022
-3.60305
-3.5766
-3.55715
-3.54745
-3.54745
-3.55715
-3.5766
-3.60305
-3.63021
-3.6443
-3.63322
-3.62564
-3.65246
-3.66181
-3.66055
-3.65334
-3.64424
-3.63612
-3.6304
-3.62748
-3.71619
-3.72005
-3.7278
-3.73883
-3.75089
-3.75982
-3.75818
-3.73841
-3.74643
-3.75421
-3.74675
-3.72775
-3.70736
-3.68861
-3.67552
-3.66907
-3.66907
-3.67552
-3.68861
-3.70736
-3.72775
-3.74675
-3.75421
-3.74643
-3.73841
-3.75817
-3.75982
-3.75089
-3.73882
-3.7278
-3.72005
-3.71619
-3.8029
-3.80785
-3.81795
-3.83201
-3.84733
-3.85801
-3.85059
-3.85453
-3.88159
-3.87533
-3.85802
-3.84376
-3.82959
-3.81773
-3.80989
-3.806
-3.806
-3.80989
-3.81773
-3.82959
-3.84376
-3.85802
-3.87533
-3.88159
-3.85453
-3.85059
-3.85801
-3.84733
-3.832
-3.81795
-3.80785
-3.8029
-3.88569
-3.89206
-3.90446
-3.92135
-3.93981
-3.9529
-3.94598
-3.99597
-4.00581
-3.99169
-3.98123
-3.97428
-3.96821
-3.96352
-3.96044
-3.9589
-3.9589
-3.96044
-3.96351
-3.96821
-3.97428
-3.98122
-3.99168
-4.00581
-3.99597
-3.94598
-3.9529
-3.93981
-3.92135
-3.90446
-3.89206
-3.88569
-3.96327
-3.97072
-3.98482
-4.0038
-4.02231
-4.03323
-4.05673
-4.11086
-4.11782
-4.11475
-4.11698
-4.12091
-4.12406
-4.12629
-4.12775
-4.12847
-4.12847
-4.12775
-4.12629
-4.12406
-4.12091
-4.11698
-4.11475
-4.11782
-4.11086
-4.05673
-4.03322
-4.0223
-4.0038
-3.98482
-3.97072
-3.96327
-4.0341
-4.04197
-4.05738
-4.07798
-4.09692
-4.11083
-4.18045
-4.22449
-4.24054
-4.25493
-4.27171
-4.28658
-4.2983
-4.30693
-4.3126
-4.31538
-4.31538
-4.3126
-4.30693
-4.2983
-4.28658
-4.27171
-4.25493
-4.24054
-4.22449
-4.18044
-4.11083
-4.09692
-4.07798
-4.05737
-4.04197
-4.0341
-4.09657
-4.1049
-4.12151
-4.14337
-4.16183
-4.22293
-4.30345
-4.35116
-4.38454
-4.41747
-4.4475
-4.47241
-4.49192
-4.5062
-4.51554
-4.52014
-4.52014
-4.51554
-4.5062
-4.49192
-4.47241
-4.4475
-4.41747
-4.38454
-4.35116
-4.30345
-4.22293
-4.16183
-4.14337
-4.12151
-4.1049
-4.09657
-4.1529
-4.16114
-4.17842
-4.20337
-4.23677
-4.35809
-4.44241
-4.50184
-4.55601
-4.60514
-4.64646
-4.67984
-4.70571
-4.72455
-4.73684
-4.74289
-4.74289
-4.73684
-4.72455
-4.70571
-4.67984
-4.64646
-4.60514
-4.55601
-4.50185
-4.44241
-4.35809
-4.23677
-4.20337
-4.17842
-4.16114
-4.1529
-4.20616
-4.21309
-4.22849
-4.26493
-4.3715
-4.51309
-4.61181
-4.69093
-4.76119
-4.82108
-4.87024
-4.90955
-4.93987
-4.96193
-4.97631
-4.98338
-4.98338
-4.97631
-4.96193
-4.93987
-4.90955
-4.87024
-4.82108
-4.76119
-4.69094
-4.61181
-4.5131
-4.3715
-4.26494
-4.22849
-4.21309
-4.20616
-4.28823
-4.30723
-4.35944
-4.45126
-4.59421
-4.72345
-4.83125
-4.92292
-5.0007
-5.06557
-5.11865
-5.16107
-5.19382
-5.21769
-5.23327
-5.24095
-5.24095
-5.23327
-5.21769
-5.19382
-5.16107
-5.11865
-5.06557
-5.0007
-4.92292
-4.83125
-4.72345
-4.59422
-4.45126
-4.35945
-4.30723
-4.28822
-4.5425
-4.57972
-4.64959
-4.75484
-4.88079
-4.99891
-5.10369
-5.19451
-5.27178
-5.33658
-5.38998
-5.43293
-5.46626
-5.49066
-5.50663
-5.51452
-5.51452
-5.50663
-5.49066
-5.46626
-5.43293
-5.38998
-5.33658
-5.27178
-5.19452
-5.10369
-4.99891
-4.88079
-4.75484
-4.64959
-4.57972
-4.5425
-4.95373
-4.98303
-5.03945
-5.12278
-5.22311
-5.32274
-5.4148
-5.49734
-5.56921
-5.63044
-5.68151
-5.72299
-5.75542
-5.7793
-5.79499
-5.80276
-5.80276
-5.79499
-5.7793
-5.75542
-5.72299
-5.68151
-5.63045
-5.56921
-5.49734
-5.4148
-5.32275
-5.22311
-5.12279
-5.03945
-4.98303
-4.95373
-5.38096
-5.40418
-5.44932
-5.51496
-5.59276
-5.67359
-5.75168
-5.82336
-5.88742
-5.94305
-5.99011
-6.02876
-6.05926
-6.08184
-6.09676
-6.10417
-6.10417
-6.09676
-6.08184
-6.05926
-6.02877
-5.99011
-5.94305
-5.88742
-5.82336
-5.75169
-5.67359
-5.59276
-5.51496
-5.44932
-5.40418
-5.38097
-5.80883
-5.82724
-5.86303
-5.91395
-5.97486
-6.03999
-6.10469
-6.16568
-6.22132
-6.2705
-6.31271
-6.34777
-6.37568
-6.39649
-6.4103
-6.41717
-6.41717
-6.4103
-6.39649
-6.37568
-6.34778
-6.31271
-6.2705
-6.22132
-6.16568
-6.10469
-6.03999
-5.97486
-5.91396
-5.86303
-5.82724
-5.80883
-6.23256
-6.24702
-6.27506
-6.31481
-6.36282
-6.4151
-6.46816
-6.5193
-6.56679
-6.60945
-6.64656
-6.67771
-6.70272
-6.7215
-6.73401
-6.74025
-6.74025
-6.73401
-6.7215
-6.70272
-6.67772
-6.64656
-6.60945
-6.56679
-6.5193
-6.46817
-6.4151
-6.36282
-6.31481
-6.27506
-6.24702
-6.23256
-6.65029
-6.66165
-6.68365
-6.71487
-6.75285
-6.7948
-6.83812
-6.8806
-6.92068
-6.95718
-6.98931
-7.01656
-7.03861
-7.05526
-7.0664
-7.07197
-7.07197
-7.0664
-7.05526
-7.03861
-7.01656
-6.98931
-6.95718
-6.92068
-6.88061
-6.83812
-6.7948
-6.75285
-6.71487
-6.68365
-6.66165
-6.65029
-7.06186
-7.0708
-7.08813
-7.11277
-7.14295
-7.17667
-7.21195
-7.24705
-7.28061
-7.31154
-7.33906
-7.3626
-7.38178
-7.39635
-7.40613
-7.41104
-7.41104
-7.40613
-7.39635
-7.38178
-7.3626
-7.33906
-7.31154
-7.28061
-7.24706
-7.21195
-7.17667
-7.14295
-7.11277
-7.08813
-7.0708
-7.06186
-7.46771
-7.47479
-7.4885
-7.50804
-7.53213
-7.55929
-7.58802
-7.61694
-7.64488
-7.67091
-7.69427
-7.71441
-7.73093
-7.74353
-7.75203
-7.7563
-7.7563
-7.75203
-7.74353
-7.73093
-7.71442
-7.69427
-7.67091
-7.64488
-7.61694
-7.58802
-7.55929
-7.53213
-7.50805
-7.4885
-7.47479
-7.46772
-7.86855
-7.87417
-7.88507
-7.90065
-7.91996
-7.94189
-7.96529
-7.98908
-8.01226
-8.03404
-8.05375
-8.07085
-8.08495
-8.09576
-8.10307
-8.10675
-8.10675
-8.10307
-8.09576
-8.08495
-8.07085
-8.05375
-8.03404
-8.01226
-7.98908
-7.96529
-7.94189
-7.91996
-7.90065
-7.88507
-7.87417
-7.86855
-8.26509
-8.26957
-8.27828
-8.29076
-8.30629
-8.32404
-8.34312
-8.36266
-8.38185
-8.40001
-8.41655
-8.43099
-8.44295
-8.45215
-8.45839
-8.46154
-8.46154
-8.45839
-8.45215
-8.44295
-8.43099
-8.41655
-8.40001
-8.38185
-8.36266
-8.34312
-8.32404
-8.30629
-8.29076
-8.27828
-8.26957
-8.26509
-8.65801
-8.66159
-8.66858
-8.67861
-8.69115
-8.70555
-8.72112
-8.73717
-8.75303
-8.76813
-8.78195
-8.79408
-8.80417
-8.81196
-8.81725
-8.81992
-8.81992
-8.81725
-8.81196
-8.80417
-8.79408
-8.78195
-8.76813
-8.75303
-8.73717
-8.72112
-8.70555
-8.69115
-8.67861
-8.66858
-8.6616
-8.65801
-9.04789
-9.05078
-9.0564
-9.0645
-9.07465
-9.08636
-9.09907
-9.11225
-9.12534
-9.13787
-9.14939
-9.15954
-9.16801
-9.17457
-9.17904
-9.1813
-9.1813
-9.17904
-9.17457
-9.16802
-9.15954
-9.14939
-9.13787
-9.12534
-9.11225
-9.09907
-9.08636
-9.07465
-9.0645
-9.0564
-9.05078
-9.04789
-9.43526
-9.43759
-9.44214
-9.44869
-9.45693
-9.46646
-9.47686
-9.48768
-9.49848
-9.50885
-9.51844
-9.5269
-9.534
-9.5395
-9.54325
-9.54515
-9.54515
-9.54325
-9.5395
-9.534
-9.52691
-9.51844
-9.50885
-9.49848
-9.48768
-9.47686
-9.46646
-9.45693
-9.44869
-9.44214
-9.43759
-9.43526
-9.82055
-9.82244
-9.82612
-9.83144
-9.83814
-9.84592
-9.85443
-9.86331
-9.87222
-9.8808
-9.88875
-9.8958
-9.90172
-9.90632
-9.90946
-9.91106
-9.91106
-9.90946
-9.90632
-9.90172
-9.8958
-9.88875
-9.8808
-9.87222
-9.86332
-9.85443
-9.84592
-9.83814
-9.83144
-9.82612
-9.82244
-9.82055
-10.2041
-10.2056
-10.2086
-10.213
-10.2184
-10.2248
-10.2318
-10.2391
-10.2464
-10.2535
-10.2601
-10.2659
-10.2709
-10.2747
-10.2773
-10.2786
-10.2786
-10.2773
-10.2747
-10.2709
-10.2659
-10.2601
-10.2535
-10.2464
-10.2391
-10.2318
-10.2248
-10.2184
-10.213
-10.2086
-10.2057
-10.2041
-10.5863
-10.5875
-10.59
-10.5935
-10.5979
-10.6031
-10.6088
-10.6148
-10.6209
-10.6267
-10.6322
-10.6371
-10.6411
-10.6443
-10.6465
-10.6476
-10.6476
-10.6465
-10.6443
-10.6411
-10.6371
-10.6322
-10.6267
-10.6209
-10.6148
-10.6088
-10.6031
-10.5979
-10.5935
-10.59
-10.5875
-10.5863
-10.9672
-10.9683
-10.9703
-10.9731
-10.9768
-10.981
-10.9857
-10.9906
-10.9956
-11.0005
-11.005
-11.009
-11.0124
-11.015
-11.0169
-11.0178
-11.0178
-11.0169
-11.015
-11.0124
-11.009
-11.005
-11.0005
-10.9956
-10.9906
-10.9857
-10.981
-10.9768
-10.9731
-10.9703
-10.9683
-10.9672
-11.3473
-11.3481
-11.3497
-11.3521
-11.3551
-11.3585
-11.3624
-11.3664
-11.3705
-11.3745
-11.3783
-11.3816
-11.3844
-11.3866
-11.3881
-11.3889
-11.3889
-11.3881
-11.3866
-11.3844
-11.3816
-11.3783
-11.3745
-11.3705
-11.3664
-11.3624
-11.3585
-11.3551
-11.3521
-11.3497
-11.3481
-11.3473
-11.7265
-11.7272
-11.7285
-11.7304
-11.7329
-11.7357
-11.7389
-11.7422
-11.7456
-11.7489
-11.752
-11.7547
-11.757
-11.7589
-11.7601
-11.7607
-11.7607
-11.7601
-11.7589
-11.757
-11.7547
-11.752
-11.7489
-11.7456
-11.7422
-11.7389
-11.7357
-11.7329
-11.7304
-11.7285
-11.7272
-11.7265
-12.1051
-12.1056
-12.1067
-12.1083
-12.1103
-12.1126
-12.1152
-12.118
-12.1208
-12.1235
-12.126
-12.1283
-12.1302
-12.1317
-12.1327
-12.1333
-12.1333
-12.1327
-12.1317
-12.1302
-12.1283
-12.126
-12.1235
-12.1208
-12.118
-12.1152
-12.1126
-12.1103
-12.1083
-12.1067
-12.1056
-12.1051
-12.4831
-12.4836
-12.4844
-12.4857
-12.4874
-12.4893
-12.4914
-12.4937
-12.496
-12.4982
-12.5003
-12.5022
-12.5038
-12.505
-12.5059
-12.5063
-12.5063
-12.5059
-12.505
-12.5038
-12.5022
-12.5003
-12.4982
-12.496
-12.4937
-12.4914
-12.4893
-12.4874
-12.4857
-12.4845
-12.4836
-12.4831
-12.8607
-12.8611
-12.8618
-12.8629
-12.8642
-12.8658
-12.8675
-12.8694
-12.8713
-12.8731
-12.8749
-12.8764
-12.8777
-12.8787
-12.8795
-12.8798
-12.8798
-12.8795
-12.8787
-12.8777
-12.8764
-12.8749
-12.8731
-12.8713
-12.8694
-12.8675
-12.8658
-12.8642
-12.8629
-12.8618
-12.8611
-12.8607
-13.2379
-13.2382
-13.2388
-13.2397
-13.2408
-13.2421
-13.2436
-13.2451
-13.2466
-13.2481
-13.2496
-13.2508
-13.2519
-13.2528
-13.2534
-13.2537
-13.2537
-13.2534
-13.2528
-13.2519
-13.2508
-13.2496
-13.2481
-13.2466
-13.2451
-13.2436
-13.2421
-13.2408
-13.2397
-13.2388
-13.2382
-13.2379
-13.6149
-13.6151
-13.6156
-13.6163
-13.6172
-13.6183
-13.6195
-13.6207
-13.622
-13.6233
-13.6244
-13.6255
-13.6264
-13.6271
-13.6276
-13.6278
-13.6278
-13.6276
-13.6271
-13.6264
-13.6255
-13.6244
-13.6233
-13.622
-13.6207
-13.6195
-13.6183
-13.6172
-13.6163
-13.6156
-13.6151
-13.6149
-13.9915
-13.9918
-13.9922
-13.9927
-13.9935
-13.9944
-13.9953
-13.9964
-13.9974
-13.9985
-13.9994
-14.0003
-14.001
-14.0016
-14.002
-14.0022
-14.0022
-14.002
-14.0016
-14.001
-14.0003
-13.9994
-13.9985
-13.9974
-13.9964
-13.9953
-13.9944
-13.9935
-13.9927
-13.9922
-13.9918
-13.9915
-14.368
-14.3682
-14.3685
-14.369
-14.3696
-14.3704
-14.3712
-14.372
-14.3729
-14.3737
-14.3745
-14.3752
-14.3758
-14.3763
-14.3766
-14.3768
-14.3768
-14.3766
-14.3763
-14.3758
-14.3752
-14.3745
-14.3737
-14.3729
-14.372
-14.3712
-14.3704
-14.3696
-14.369
-14.3685
-14.3682
-14.368
-14.7443
-14.7445
-14.7448
-14.7452
-14.7457
-14.7463
-14.7469
-14.7476
-14.7483
-14.749
-14.7497
-14.7503
-14.7508
-14.7512
-14.7514
-14.7516
-14.7516
-14.7514
-14.7512
-14.7508
-14.7503
-14.7497
-14.749
-14.7483
-14.7476
-14.7469
-14.7463
-14.7457
-14.7452
-14.7448
-14.7445
-14.7443
-15.1205
-15.1206
-15.1209
-15.1212
-15.1216
-15.1221
-15.1226
-15.1232
-15.1238
-15.1244
-15.1249
-15.1254
-15.1258
-15.1261
-15.1264
-15.1265
-15.1265
-15.1264
-15.1261
-15.1258
-15.1254
-15.1249
-15.1244
-15.1238
-15.1232
-15.1226
-15.1221
-15.1216
-15.1212
-15.1209
-15.1206
-15.1205
-15.4966
-15.4967
-15.4969
-15.4971
-15.4975
-15.4979
-15.4983
-15.4988
-15.4993
-15.4998
-15.5002
-15.5006
-15.5009
-15.5012
-15.5014
-15.5015
-15.5015
-15.5014
-15.5012
-15.5009