/*--------------------------------*- C++ -*----------------------------------*\
  =========                 |
  \\      /  F ield         | OpenFOAM: The Open Source CFD Toolbox
   \\    /   O peration     | Website:  https://openfoam.org
    \\  /    A nd           | Version:  9
     \\/     M anipulation  |
\*---------------------------------------------------------------------------*/
FoamFile
{
    format      ascii;
    class       volScalarField;
    location    "0.4";
    object      p_rgh;
}
// * * * * * * * * * * * * * * * * * * * * * * * * * * * * * * * * * * * * * //

dimensions      [1 -1 -2 0 0 0 0];

internalField   nonuniform List<scalar> 
4096
(
-3.29766
-3.29766
-3.29766
-3.29766
-3.29766
-3.29766
-3.29766
-3.29766
-3.29765
-3.29765
-3.29765
-3.29765
-3.29765
-3.29765
-3.29765
-3.29765
-3.29765
-3.29765
-3.29765
-3.29765
-3.29765
-3.29765
-3.29765
-3.29766
-3.29766
-3.29766
-3.29766
-3.29766
-3.29766
-3.29766
-3.29767
-3.29767
-3.29766
-3.29766
-3.29766
-3.29766
-3.29766
-3.29766
-3.29766
-3.29766
-3.29765
-3.29765
-3.29765
-3.29765
-3.29765
-3.29765
-3.29765
-3.29765
-3.29765
-3.29765
-3.29765
-3.29765
-3.29765
-3.29765
-3.29765
-3.29765
-3.29766
-3.29766
-3.29766
-3.29766
-3.29766
-3.29767
-3.29767
-3.29767
-3.29767
-3.29766
-3.29766
-3.29766
-3.29766
-3.29766
-3.29766
-3.29766
-3.29765
-3.29765
-3.29765
-3.29765
-3.29765
-3.29765
-3.29765
-3.29764
-3.29764
-3.29765
-3.29765
-3.29765
-3.29765
-3.29765
-3.29765
-3.29765
-3.29766
-3.29766
-3.29766
-3.29766
-3.29766
-3.29767
-3.29767
-3.29767
-3.29767
-3.29767
-3.29767
-3.29766
-3.29766
-3.29766
-3.29766
-3.29766
-3.29765
-3.29765
-3.29765
-3.29765
-3.29765
-3.29764
-3.29764
-3.29764
-3.29764
-3.29764
-3.29764
-3.29765
-3.29765
-3.29765
-3.29765
-3.29765
-3.29766
-3.29766
-3.29766
-3.29766
-3.29767
-3.29767
-3.29767
-3.29767
-3.29767
-3.29767
-3.29767
-3.29767
-3.29766
-3.29766
-3.29766
-3.29766
-3.29765
-3.29765
-3.29765
-3.29765
-3.29764
-3.29764
-3.29764
-3.29764
-3.29764
-3.29764
-3.29764
-3.29765
-3.29765
-3.29765
-3.29765
-3.29765
-3.29766
-3.29766
-3.29766
-3.29766
-3.29767
-3.29767
-3.29767
-3.29767
-3.29767
-3.29767
-3.29767
-3.29767
-3.29767
-3.29766
-3.29766
-3.29766
-3.29765
-3.29765
-3.29765
-3.29765
-3.29764
-3.29764
-3.29764
-3.29764
-3.29764
-3.29764
-3.29764
-3.29764
-3.29765
-3.29765
-3.29765
-3.29765
-3.29766
-3.29766
-3.29766
-3.29767
-3.29767
-3.29767
-3.29767
-3.29767
-3.29767
-3.29767
-3.29767
-3.29767
-3.29767
-3.29766
-3.29766
-3.29766
-3.29765
-3.29765
-3.29765
-3.29764
-3.29764
-3.29764
-3.29764
-3.29764
-3.29764
-3.29764
-3.29764
-3.29764
-3.29764
-3.29765
-3.29765
-3.29765
-3.29766
-3.29766
-3.29766
-3.29767
-3.29767
-3.29767
-3.29767
-3.29767
-3.29768
-3.29768
-3.29767
-3.29767
-3.29767
-3.29767
-3.29766
-3.29766
-3.29765
-3.29765
-3.29764
-3.29764
-3.29764
-3.29764
-3.29763
-3.29763
-3.29763
-3.29763
-3.29764
-3.29764
-3.29764
-3.29765
-3.29765
-3.29765
-3.29766
-3.29766
-3.29767
-3.29767
-3.29767
-3.29768
-3.29768
-3.29768
-3.29768
-3.29768
-3.29768
-3.29768
-3.29767
-3.29767
-3.29766
-3.29766
-3.29765
-3.29765
-3.29764
-3.29764
-3.29763
-3.29763
-3.29763
-3.29763
-3.29763
-3.29763
-3.29763
-3.29763
-3.29764
-3.29764
-3.29765
-3.29765
-3.29766
-3.29766
-3.29767
-3.29767
-3.29768
-3.29768
-3.29768
-3.29768
-3.29769
-3.29769
-3.29768
-3.29768
-3.29768
-3.29767
-3.29766
-3.29766
-3.29765
-3.29765
-3.29764
-3.29763
-3.29763
-3.29763
-3.29762
-3.29762
-3.29762
-3.29762
-3.29763
-3.29763
-3.29764
-3.29764
-3.29765
-3.29765
-3.29766
-3.29767
-3.29767
-3.29768
-3.29768
-3.29768
-3.29769
-3.29769
-3.29769
-3.29769
-3.29769
-3.29769
-3.29768
-3.29767
-3.29767
-3.29766
-3.29765
-3.29764
-3.29764
-3.29763
-3.29763
-3.29762
-3.29762
-3.29762
-3.29762
-3.29762
-3.29762
-3.29763
-3.29763
-3.29764
-3.29764
-3.29765
-3.29766
-3.29767
-3.29767
-3.29768
-3.29769
-3.29769
-3.29769
-3.29769
-3.2977
-3.2977
-3.2977
-3.29769
-3.29769
-3.29768
-3.29767
-3.29766
-3.29765
-3.29764
-3.29763
-3.29763
-3.29762
-3.29761
-3.29761
-3.29761
-3.29761
-3.29761
-3.29761
-3.29762
-3.29763
-3.29763
-3.29764
-3.29765
-3.29766
-3.29767
-3.29768
-3.29769
-3.29769
-3.2977
-3.2977
-3.2977
-3.29771
-3.29771
-3.29771
-3.2977
-3.29769
-3.29768
-3.29767
-3.29766
-3.29765
-3.29764
-3.29763
-3.29762
-3.29761
-3.2976
-3.2976
-3.2976
-3.2976
-3.2976
-3.2976
-3.29761
-3.29762
-3.29763
-3.29764
-3.29765
-3.29766
-3.29767
-3.29768
-3.29769
-3.2977
-3.29771
-3.29771
-3.29771
-3.29772
-3.29772
-3.29772
-3.29771
-3.2977
-3.29769
-3.29768
-3.29766
-3.29765
-3.29764
-3.29762
-3.29761
-3.2976
-3.29759
-3.29759
-3.29759
-3.29759
-3.29759
-3.29759
-3.2976
-3.29761
-3.29762
-3.29764
-3.29765
-3.29766
-3.29768
-3.29769
-3.2977
-3.29771
-3.29772
-3.29772
-3.29772
-3.29774
-3.29774
-3.29773
-3.29772
-3.29771
-3.29769
-3.29768
-3.29766
-3.29765
-3.29763
-3.29762
-3.2976
-3.29759
-3.29758
-3.29757
-3.29757
-3.29757
-3.29757
-3.29758
-3.29759
-3.2976
-3.29762
-3.29763
-3.29765
-3.29766
-3.29768
-3.29769
-3.29771
-3.29772
-3.29773
-3.29774
-3.29774
-3.29776
-3.29775
-3.29774
-3.29773
-3.29772
-3.2977
-3.29768
-3.29767
-3.29765
-3.29763
-3.29761
-3.29759
-3.29758
-3.29756
-3.29756
-3.29755
-3.29755
-3.29756
-3.29756
-3.29758
-3.29759
-3.29761
-3.29763
-3.29765
-3.29767
-3.29768
-3.2977
-3.29772
-3.29773
-3.29774
-3.29775
-3.29776
-3.29778
-3.29777
-3.29776
-3.29775
-3.29773
-3.29771
-3.29769
-3.29767
-3.29764
-3.29762
-3.2976
-3.29758
-3.29756
-3.29755
-3.29754
-3.29753
-3.29753
-3.29754
-3.29755
-3.29756
-3.29758
-3.2976
-3.29762
-3.29764
-3.29767
-3.29769
-3.29771
-3.29773
-3.29775
-3.29776
-3.29777
-3.29778
-3.2978
-3.2978
-3.29779
-3.29777
-3.29775
-3.29773
-3.2977
-3.29767
-3.29764
-3.29761
-3.29758
-3.29756
-3.29754
-3.29752
-3.29751
-3.2975
-3.2975
-3.29751
-3.29752
-3.29754
-3.29756
-3.29758
-3.29761
-3.29764
-3.29767
-3.2977
-3.29773
-3.29775
-3.29777
-3.29779
-3.2978
-3.2978
-3.29784
-3.29783
-3.29782
-3.2978
-3.29777
-3.29774
-3.29771
-3.29767
-3.29764
-3.2976
-3.29757
-3.29754
-3.29751
-3.29749
-3.29748
-3.29747
-3.29747
-3.29748
-3.29749
-3.29751
-3.29754
-3.29757
-3.2976
-3.29764
-3.29767
-3.29771
-3.29774
-3.29777
-3.2978
-3.29782
-3.29783
-3.29784
-3.29787
-3.29787
-3.29785
-3.29783
-3.2978
-3.29776
-3.29772
-3.29768
-3.29763
-3.29759
-3.29755
-3.29751
-3.29748
-3.29746
-3.29744
-3.29743
-3.29743
-3.29744
-3.29746
-3.29748
-3.29751
-3.29755
-3.29759
-3.29763
-3.29768
-3.29772
-3.29776
-3.2978
-3.29783
-3.29785
-3.29787
-3.29787
-3.29792
-3.29791
-3.29789
-3.29786
-3.29783
-3.29778
-3.29773
-3.29768
-3.29763
-3.29758
-3.29753
-3.29748
-3.29745
-3.29742
-3.2974
-3.29739
-3.29739
-3.2974
-3.29742
-3.29745
-3.29748
-3.29753
-3.29758
-3.29763
-3.29768
-3.29773
-3.29778
-3.29783
-3.29786
-3.29789
-3.29791
-3.29792
-3.29798
-3.29797
-3.29794
-3.29791
-3.29786
-3.29781
-3.29775
-3.29769
-3.29762
-3.29756
-3.2975
-3.29745
-3.2974
-3.29737
-3.29734
-3.29733
-3.29733
-3.29734
-3.29737
-3.2974
-3.29745
-3.2975
-3.29756
-3.29762
-3.29769
-3.29775
-3.29781
-3.29786
-3.29791
-3.29794
-3.29797
-3.29798
-3.29805
-3.29803
-3.29801
-3.29796
-3.29791
-3.29784
-3.29777
-3.2977
-3.29762
-3.29754
-3.29747
-3.2974
-3.29735
-3.2973
-3.29727
-3.29726
-3.29726
-3.29727
-3.2973
-3.29735
-3.2974
-3.29747
-3.29754
-3.29762
-3.2977
-3.29777
-3.29784
-3.29791
-3.29796
-3.29801
-3.29803
-3.29805
-3.29813
-3.29812
-3.29808
-3.29803
-3.29796
-3.29788
-3.2978
-3.2977
-3.29761
-3.29752
-3.29743
-3.29735
-3.29728
-3.29723
-3.29719
-3.29717
-3.29717
-3.29719
-3.29723
-3.29728
-3.29735
-3.29743
-3.29752
-3.29761
-3.2977
-3.2978
-3.29788
-3.29796
-3.29803
-3.29808
-3.29812
-3.29813
-3.29824
-3.29822
-3.29817
-3.29811
-3.29803
-3.29793
-3.29783
-3.29772
-3.2976
-3.29749
-3.29738
-3.29728
-3.2972
-3.29714
-3.29709
-3.29707
-3.29707
-3.29709
-3.29714
-3.2972
-3.29728
-3.29738
-3.29749
-3.2976
-3.29772
-3.29783
-3.29793
-3.29803
-3.29811
-3.29817
-3.29822
-3.29824
-3.29836
-3.29834
-3.29828
-3.29821
-3.29811
-3.298
-3.29787
-3.29773
-3.29759
-3.29745
-3.29732
-3.2972
-3.2971
-3.29702
-3.29697
-3.29694
-3.29694
-3.29697
-3.29702
-3.2971
-3.2972
-3.29732
-3.29745
-3.29759
-3.29773
-3.29787
-3.298
-3.29811
-3.29821
-3.29828
-3.29834
-3.29836
-3.29851
-3.29848
-3.29842
-3.29833
-3.29821
-3.29807
-3.29791
-3.29775
-3.29758
-3.29741
-3.29725
-3.29711
-3.29698
-3.29689
-3.29682
-3.29679
-3.29679
-3.29682
-3.29689
-3.29698
-3.29711
-3.29725
-3.29741
-3.29758
-3.29775
-3.29791
-3.29807
-3.29821
-3.29833
-3.29842
-3.29848
-3.29851
-3.2987
-3.29866
-3.29858
-3.29847
-3.29833
-3.29816
-3.29797
-3.29777
-3.29756
-3.29736
-3.29716
-3.29699
-3.29684
-3.29672
-3.29664
-3.2966
-3.2966
-3.29664
-3.29672
-3.29684
-3.29699
-3.29716
-3.29736
-3.29756
-3.29777
-3.29797
-3.29816
-3.29833
-3.29847
-3.29858
-3.29866
-3.2987
-3.29892
-3.29888
-3.29878
-3.29865
-3.29847
-3.29827
-3.29804
-3.29779
-3.29754
-3.29729
-3.29706
-3.29685
-3.29667
-3.29652
-3.29642
-3.29637
-3.29637
-3.29642
-3.29652
-3.29667
-3.29685
-3.29706
-3.29729
-3.29754
-3.29779
-3.29804
-3.29827
-3.29847
-3.29865
-3.29878
-3.29888
-3.29892
-3.2992
-3.29914
-3.29903
-3.29886
-3.29865
-3.2984
-3.29812
-3.29783
-3.29752
-3.29722
-3.29693
-3.29667
-3.29645
-3.29628
-3.29616
-3.2961
-3.2961
-3.29616
-3.29628
-3.29645
-3.29667
-3.29693
-3.29722
-3.29752
-3.29782
-3.29812
-3.2984
-3.29865
-3.29886
-3.29903
-3.29914
-3.29919
-3.29953
-3.29946
-3.29932
-3.29912
-3.29887
-3.29857
-3.29823
-3.29786
-3.29749
-3.29713
-3.29678
-3.29646
-3.2962
-3.29598
-3.29584
-3.29576
-3.29576
-3.29584
-3.29598
-3.2962
-3.29646
-3.29678
-3.29713
-3.29749
-3.29786
-3.29823
-3.29857
-3.29887
-3.29912
-3.29932
-3.29946
-3.29953
-3.29993
-3.29984
-3.29968
-3.29944
-3.29913
-3.29876
-3.29835
-3.29791
-3.29746
-3.29702
-3.29659
-3.29621
-3.29588
-3.29562
-3.29545
-3.29535
-3.29535
-3.29545
-3.29562
-3.29588
-3.29621
-3.29659
-3.29702
-3.29746
-3.29791
-3.29835
-3.29876
-3.29913
-3.29944
-3.29968
-3.29984
-3.29993
-3.30041
-3.30031
-3.30012
-3.29983
-3.29945
-3.29901
-3.29851
-3.29798
-3.29743
-3.29689
-3.29637
-3.2959
-3.2955
-3.29519
-3.29497
-3.29486
-3.29486
-3.29497
-3.29519
-3.2955
-3.2959
-3.29637
-3.29689
-3.29743
-3.29798
-3.29851
-3.29901
-3.29945
-3.29983
-3.30012
-3.30031
-3.30041
-3.301
-3.30088
-3.30065
-3.30029
-3.29984
-3.29931
-3.2987
-3.29806
-3.29739
-3.29673
-3.2961
-3.29553
-3.29504
-3.29466
-3.29439
-3.29425
-3.29425
-3.29439
-3.29466
-3.29504
-3.29553
-3.2961
-3.29673
-3.29739
-3.29806
-3.2987
-3.2993
-3.29984
-3.30029
-3.30064
-3.30088
-3.301
-3.30172
-3.30157
-3.30129
-3.30086
-3.30032
-3.29967
-3.29894
-3.29816
-3.29735
-3.29654
-3.29578
-3.29508
-3.29448
-3.29401
-3.29368
-3.29351
-3.29351
-3.29368
-3.29401
-3.29448
-3.29508
-3.29578
-3.29654
-3.29735
-3.29816
-3.29894
-3.29967
-3.30032
-3.30086
-3.30129
-3.30157
-3.30172
-3.30258
-3.30241
-3.30207
-3.30156
-3.3009
-3.30011
-3.29923
-3.29828
-3.2973
-3.29632
-3.29539
-3.29454
-3.29381
-3.29322
-3.29282
-3.29261
-3.29261
-3.29282
-3.29322
-3.2938
-3.29454
-3.29539
-3.29632
-3.2973
-3.29828
-3.29923
-3.30011
-3.3009
-3.30156
-3.30206
-3.30241
-3.30258
-3.30363
-3.30342
-3.30301
-3.3024
-3.30161
-3.30066
-3.2996
-3.29845
-3.29725
-3.29606
-3.29492
-3.29388
-3.29298
-3.29227
-3.29177
-3.29152
-3.29152
-3.29177
-3.29227
-3.29298
-3.29388
-3.29492
-3.29606
-3.29725
-3.29845
-3.2996
-3.30066
-3.30161
-3.3024
-3.30301
-3.30342
-3.30363
-3.3049
-3.30465
-3.30416
-3.30342
-3.30247
-3.30133
-3.30005
-3.29866
-3.29721
-3.29576
-3.29437
-3.29309
-3.29199
-3.29111
-3.29049
-3.29018
-3.29018
-3.29049
-3.29111
-3.29199
-3.29309
-3.29437
-3.29576
-3.29721
-3.29866
-3.30005
-3.30133
-3.30247
-3.30342
-3.30415
-3.30465
-3.3049
-3.30643
-3.30613
-3.30554
-3.30467
-3.30353
-3.30216
-3.30061
-3.29893
-3.29718
-3.29541
-3.29371
-3.29214
-3.29078
-3.28969
-3.28893
-3.28854
-3.28854
-3.28893
-3.28969
-3.29078
-3.29214
-3.29371
-3.29541
-3.29717
-3.29893
-3.30061
-3.30216
-3.30353
-3.30467
-3.30554
-3.30613
-3.30643
-3.30828
-3.30793
-3.30723
-3.30618
-3.30482
-3.30319
-3.30132
-3.29929
-3.29716
-3.29501
-3.29293
-3.291
-3.28932
-3.28797
-3.28703
-3.28654
-3.28654
-3.28703
-3.28797
-3.28932
-3.291
-3.29293
-3.29501
-3.29716
-3.29929
-3.30132
-3.30318
-3.30482
-3.30618
-3.30723
-3.30793
-3.30828
-3.31051
-3.3101
-3.30926
-3.30802
-3.3064
-3.30445
-3.30222
-3.29977
-3.29719
-3.29457
-3.29202
-3.28964
-3.28756
-3.28588
-3.2847
-3.2841
-3.2841
-3.2847
-3.28588
-3.28756
-3.28964
-3.29202
-3.29457
-3.29719
-3.29977
-3.30222
-3.30445
-3.3064
-3.30802
-3.30926
-3.3101
-3.31051
-3.3132
-3.31271
-3.31173
-3.31026
-3.30834
-3.30602
-3.30335
-3.30041
-3.29728
-3.29409
-3.29096
-3.28803
-3.28544
-3.28334
-3.28186
-3.28109
-3.28109
-3.28186
-3.28334
-3.28544
-3.28802
-3.29096
-3.29409
-3.29728
-3.3004
-3.30335
-3.30602
-3.30834
-3.31026
-3.31173
-3.31271
-3.3132
-3.31644
-3.31586
-3.31471
-3.31299
-3.31072
-3.30797
-3.30479
-3.30126
-3.29749
-3.2936
-3.28975
-3.28612
-3.28289
-3.28025
-3.27838
-3.2774
-3.2774
-3.27838
-3.28025
-3.28289
-3.28612
-3.28975
-3.2936
-3.29749
-3.30126
-3.30479
-3.30797
-3.31072
-3.31299
-3.31471
-3.31586
-3.31643
-3.32032
-3.31965
-3.31831
-3.3163
-3.31364
-3.3104
-3.30663
-3.30241
-3.29787
-3.29314
-3.28841
-3.28389
-3.27984
-3.2765
-3.27411
-3.27286
-3.27286
-3.27411
-3.2765
-3.27984
-3.28389
-3.28841
-3.29314
-3.29787
-3.30241
-3.30663
-3.3104
-3.31364
-3.3163
-3.31831
-3.31965
-3.32031
-3.32496
-3.32419
-3.32265
-3.32032
-3.31723
-3.31344
-3.30899
-3.30397
-3.29851
-3.29277
-3.28696
-3.28133
-3.27622
-3.27195
-3.26887
-3.26725
-3.26725
-3.26887
-3.27195
-3.27622
-3.28133
-3.28696
-3.29277
-3.29851
-3.30397
-3.30899
-3.31344
-3.31723
-3.32032
-3.32265
-3.32419
-3.32496
-3.33051
-3.32964
-3.32787
-3.3252
-3.32164
-3.31724
-3.31203
-3.30611
-3.29958
-3.29262
-3.28547
-3.27845
-3.27195
-3.26646
-3.26243
-3.26031
-3.26031
-3.26243
-3.26645
-3.27195
-3.27845
-3.28547
-3.29262
-3.29958
-3.30611
-3.31203
-3.31724
-3.32164
-3.32519
-3.32787
-3.32963
-3.33051
-3.33711
-3.33613
-3.33413
-3.33111
-3.32706
-3.322
-3.31597
-3.30903
-3.30127
-3.29288
-3.28409
-3.27531
-3.26701
-3.25985
-3.25453
-3.25168
-3.25168
-3.25453
-3.25985
-3.26701
-3.2753
-3.28409
-3.29288
-3.30127
-3.30903
-3.31597
-3.322
-3.32706
-3.33111
-3.33413
-3.33613
-3.33711
-3.34494
-3.34385
-3.34163
-3.33825
-3.3337
-3.32798
-3.32108
-3.31302
-3.30389
-3.29383
-3.28308
-3.27207
-3.26143
-3.252
-3.24483
-3.24095
-3.24095
-3.24483
-3.252
-3.26143
-3.27207
-3.28308
-3.29383
-3.30389
-3.31302
-3.32107
-3.32798
-3.3337
-3.33825
-3.34163
-3.34385
-3.34494
-3.35419
-3.353
-3.35058
-3.34686
-3.34184
-3.33546
-3.32768
-3.31849
-3.30788
-3.29593
-3.28287
-3.2691
-3.25537
-3.2428
-3.23297
-3.22756
-3.22756
-3.23297
-3.2428
-3.25537
-3.2691
-3.28287
-3.29593
-3.30787
-3.31849
-3.32768
-3.33546
-3.34184
-3.34686
-3.35057
-3.353
-3.35419
-3.36504
-3.36378
-3.36118
-3.3572
-3.35177
-3.34481
-3.33623
-3.32592
-3.31381
-3.29986
-3.28416
-3.26706
-3.24932
-3.23238
-3.2186
-3.21086
-3.21086
-3.2186
-3.23238
-3.24932
-3.26706
-3.28416
-3.29986
-3.31381
-3.32592
-3.33623
-3.34481
-3.35177
-3.3572
-3.36118
-3.36378
-3.36504
-3.37771
-3.3764
-3.3737
-3.36953
-3.36381
-3.35643
-3.34721
-3.33596
-3.32249
-3.30658
-3.2881
-3.26715
-3.24431
-3.22123
-3.20145
-3.19014
-3.19014
-3.20146
-3.22123
-3.24431
-3.26715
-3.2881
-3.30658
-3.32249
-3.33596
-3.34721
-3.35642
-3.36381
-3.36953
-3.3737
-3.3764
-3.37771
-3.3924
-3.39108
-3.38836
-3.38414
-3.37833
-3.37075
-3.36119
-3.34937
-3.33492
-3.3174
-3.29638
-3.27138
-3.24234
-3.21061
-3.18162
-3.16461
-3.16461
-3.18162
-3.21061
-3.24234
-3.27137
-3.29638
-3.3174
-3.33492
-3.34937
-3.36119
-3.37075
-3.37833
-3.38414
-3.38836
-3.39108
-3.3924
-3.40928
-3.40801
-3.40539
-3.4013
-3.39563
-3.3882
-3.37875
-3.36692
-3.35223
-3.33402
-3.31139
-3.28311
-3.24755
-3.20438
-3.16192
-3.13558
-3.13558
-3.16192
-3.20438
-3.24755
-3.28311
-3.31139
-3.33402
-3.35223
-3.36692
-3.37875
-3.3882
-3.39563
-3.4013
-3.40538
-3.40801
-3.40928
-3.42852
-3.42737
-3.42496
-3.42122
-3.41601
-3.40915
-3.40038
-3.38935
-3.37553
-3.35818
-3.33618
-3.3076
-3.26821
-3.21367
-3.15163
-3.14851
-3.14851
-3.15163
-3.21367
-3.2682
-3.3076
-3.33617
-3.35818
-3.37553
-3.38935
-3.40038
-3.40915
-3.416
-3.42121
-3.42496
-3.42737
-3.42852
-3.45023
-3.44926
-3.44722
-3.44404
-3.43961
-3.43377
-3.42633
-3.41698
-3.40534
-3.39089
-3.37276
-3.34811
-3.30936
-3.32136
-4.28791
-4.84083
-4.84083
-4.28789
-3.32135
-3.30935
-3.3481
-3.37276
-3.39089
-3.40534
-3.41698
-3.42632
-3.43377
-3.43961
-3.44404
-3.44722
-3.44926
-3.45023
-3.47447
-3.47375
-3.47221
-3.46981
-3.46645
-3.46203
-3.45642
-3.44947
-3.44104
-3.43105
-3.41909
-3.40093
-3.36802
-4.36197
-5.89399
-5.91743
-5.91743
-5.89398
-4.36188
-3.36801
-3.40093
-3.41909
-3.43105
-3.44104
-3.44947
-3.45642
-3.46203
-3.46645
-3.46981
-3.47221
-3.47374
-3.47447
-3.50124
-3.50082
-3.49992
-3.49846
-3.49639
-3.49362
-3.49008
-3.48574
-3.48069
-3.4754
-3.46998
-3.46026
-3.64892
-5.58525
-5.75356
-5.71286
-5.71287
-5.75356
-5.5852
-3.64889
-3.46025
-3.46997
-3.4754
-3.48069
-3.48574
-3.49008
-3.49362
-3.49639
-3.49846
-3.49991
-3.50082
-3.50124
-3.53047
-3.53042
-3.53024
-3.52986
-3.52919
-3.52809
-3.52644
-3.52407
-3.52114
-3.51819
-3.51529
-3.51244
-4.40433
-5.59403
-5.51895
-5.48125
-5.48125
-5.51895
-5.59403
-4.40424
-3.51243
-3.51529
-3.51819
-3.52113
-3.52407
-3.52644
-3.52809
-3.52919
-3.52986
-3.53023
-3.53041
-3.53047
-3.56203
-3.56239
-3.56304
-3.56384
-3.56462
-3.56507
-3.56475
-3.563
-3.55933
-3.5543
-3.54747
-3.58327
-5.12304
-5.32456
-5.25367
-5.22161
-5.22161
-5.25367
-5.32457
-5.12301
-3.58325
-3.54746
-3.55429
-3.55932
-3.56299
-3.56474
-3.56506
-3.56461
-3.56384
-3.56303
-3.56239
-3.56203
-3.59572
-3.59657
-3.59815
-3.60028
-3.60257
-3.60444
-3.60481
-3.60208
-3.59481
-3.58397
-3.57103
-4.07523
-5.04796
-5.02208
-4.96818
-4.94514
-4.94514
-4.96818
-5.02208
-5.04795
-4.0752
-3.57103
-3.58396
-3.5948
-3.60208
-3.6048
-3.60444
-3.60257
-3.60028
-3.59815
-3.59656
-3.59571
-3.63123
-3.63265
-3.63534
-3.63903
-3.64309
-3.64642
-3.64716
-3.64234
-3.6293
-3.60991
-3.76176
-4.63751
-4.76205
-4.71463
-4.67679
-4.6595
-4.6595
-4.67679
-4.71463
-4.76205
-4.6375
-3.76175
-3.6099
-3.6293
-3.64234
-3.64716
-3.64641
-3.64309
-3.63903
-3.63534
-3.63265
-3.63122
-3.66804
-3.67015
-3.6742
-3.67983
-3.68613
-3.69127
-3.69245
-3.68529
-3.663
-3.74751
-4.31081
-4.4839
-4.45586
-4.41955
-4.39245
-4.37875
-4.37875
-4.39245
-4.41955
-4.45585
-4.48389
-4.3108
-3.74751
-3.663
-3.68528
-3.69245
-3.69127
-3.68613
-3.67983
-3.67419
-3.67015
-3.66804
-3.70538
-3.7083
-3.71403
-3.72214
-3.73124
-3.73845
-3.73972
-3.73036
-3.78443
-4.09966
-4.20759
-4.19352
-4.16636
-4.13991
-4.12045
-4.11076
-4.11076
-4.12045
-4.13991
-4.16636
-4.19352
-4.20759
-4.09965
-3.78442
-3.73036
-3.73971
-3.73845
-3.73123
-3.72214
-3.71402
-3.7083
-3.70538
-3.74216
-3.74602
-3.75377
-3.76479
-3.77687
-3.78579
-3.78414
-3.76988
-3.89695
-3.94197
-3.93452
-3.91552
-3.89513
-3.87638
-3.86329
-3.85684
-3.85684
-3.86329
-3.87638
-3.89513
-3.91552
-3.93452
-3.94197
-3.89694
-3.76987
-3.78414
-3.78579
-3.77686
-3.76479
-3.75377
-3.74602
-3.74215
-3.77694
-3.78188
-3.79199
-3.80603
-3.82135
-3.83204
-3.82462
-3.7517
-3.6941
-3.68756
-3.67025
-3.65599
-3.64182
-3.62996
-3.62212
-3.61823
-3.61823
-3.62212
-3.62996
-3.64182
-3.65599
-3.67025
-3.68756
-3.6941
-3.75169
-3.82462
-3.83203
-3.82135
-3.80603
-3.79199
-3.78188
-3.77693
-3.80779
-3.81416
-3.82656
-3.84343
-3.86188
-3.87497
-3.78028
-3.47812
-3.44253
-3.42838
-3.41792
-3.41097
-3.4049
-3.40021
-3.39713
-3.39559
-3.39559
-3.39713
-3.40021
-3.4049
-3.41097
-3.41791
-3.42838
-3.44253
-3.47812
-3.78027
-3.87497
-3.86188
-3.84343
-3.82656
-3.81416
-3.80779
-3.83344
-3.84089
-3.85499
-3.87396
-3.89248
-3.86989
-3.31552
-3.17212
-3.17898
-3.1759
-3.17813
-3.18207
-3.18521
-3.18744
-3.18891
-3.18962
-3.18962
-3.18891
-3.18744
-3.18521
-3.18206
-3.17813
-3.1759
-3.17898
-3.17211
-3.31551
-3.86988
-3.89248
-3.87396
-3.85499
-3.84089
-3.83344
-3.85234
-3.86021
-3.87562
-3.89622
-3.91516
-3.62401
-2.93038
-2.91015
-2.92615
-2.94055
-2.95733
-2.97219
-2.98391
-2.99254
-2.99821
-3.001
-3.001
-2.99821
-2.99254
-2.98391
-2.97219
-2.95733
-2.94055
-2.92615
-2.91015
-2.93036
-3.62399
-3.91516
-3.89622
-3.87561
-3.86021
-3.85234
-3.86287
-3.87121
-3.88781
-3.90967
-3.92814
-3.19005
-2.617
-2.66125
-2.69462
-2.72755
-2.75758
-2.78248
-2.80199
-2.81628
-2.82562
-2.83021
-2.83021
-2.82562
-2.81628
-2.80199
-2.78248
-2.75758
-2.72755
-2.69462
-2.66125
-2.61699
-3.19001
-3.92814
-3.90967
-3.88781
-3.87121
-3.86287
-3.86728
-3.87552
-3.8928
-3.91775
-3.6375
-2.49399
-2.3772
-2.43639
-2.49054
-2.53967
-2.581
-2.61438
-2.64024
-2.65909
-2.67138
-2.67742
-2.67742
-2.67138
-2.65909
-2.64024
-2.61438
-2.581
-2.53967
-2.49054
-2.43639
-2.3772
-2.49397
-3.63747
-3.91775
-3.8928
-3.87552
-3.86728
-3.8686
-3.87553
-3.89093
-3.75098
-2.42256
-2.07264
-2.17082
-2.24993
-2.32019
-2.38008
-2.42924
-2.46855
-2.49887
-2.52093
-2.5353
-2.54238
-2.54238
-2.5353
-2.52093
-2.49887
-2.46855
-2.42924
-2.38008
-2.32019
-2.24993
-2.17082
-2.07264
-2.42253
-3.75096
-3.89093
-3.87553
-3.8686
-3.49259
-3.43832
-3.13293
-2.1564
-1.78064
-1.90693
-2.01471
-2.10638
-2.18416
-2.24903
-2.3021
-2.34452
-2.37727
-2.40114
-2.41673
-2.42441
-2.42441
-2.41673
-2.40114
-2.37727
-2.34452
-2.3021
-2.24903
-2.18416
-2.10638
-2.01471
-1.90693
-1.78064
-2.15637
-3.13292
-3.43832
-3.49259
-1.63665
-1.6148
-1.5372
-1.56744
-1.68903
-1.80683
-1.91161
-2.00243
-2.0797
-2.1445
-2.1979
-2.24085
-2.27418
-2.29858
-2.31455
-2.32244
-2.32244
-2.31455
-2.29858
-2.27418
-2.24085
-2.1979
-2.1445
-2.0797
-2.00243
-1.91161
-1.80683
-1.68903
-1.56744
-1.5372
-1.6148
-1.63665
-1.38633
-1.41557
-1.47204
-1.55526
-1.6555
-1.75512
-1.84718
-1.92972
-2.00159
-2.06282
-2.11389
-2.15537
-2.1878
-2.21168
-2.22737
-2.23514
-2.23514
-2.22737
-2.21168
-2.1878
-2.15537
-2.11389
-2.06283
-2.00159
-1.92972
-1.84718
-1.75512
-1.6555
-1.55526
-1.47204
-1.41557
-1.38633
-1.43781
-1.46102
-1.50616
-1.5718
-1.6496
-1.73043
-1.80852
-1.8802
-1.94426
-1.99989
-2.04695
-2.0856
-2.1161
-2.13868
-2.1536
-2.16101
-2.16101
-2.1536
-2.13868
-2.1161
-2.08561
-2.04695
-1.99989
-1.94426
-1.8802
-1.80853
-1.73043
-1.6496
-1.5718
-1.50616
-1.46102
-1.43781
-1.49013
-1.50854
-1.54433
-1.59525
-1.65616
-1.72129
-1.78599
-1.84698
-1.90262
-1.9518
-1.99401
-2.02908
-2.05698
-2.07779
-2.0916
-2.09847
-2.09847
-2.0916
-2.07779
-2.05698
-2.02908
-1.99401
-1.9518
-1.90262
-1.84699
-1.78599
-1.72129
-1.65616
-1.59526
-1.54433
-1.50855
-1.49013
-1.53832
-1.55278
-1.58082
-1.62057
-1.66858
-1.72086
-1.77392
-1.82506
-1.87255
-1.91521
-1.95232
-1.98348
-2.00849
-2.02726
-2.03977
-2.04601
-2.04601
-2.03977
-2.02726
-2.00849
-1.98348
-1.95232
-1.91521
-1.87255
-1.82506
-1.77393
-1.72086
-1.66858
-1.62057
-1.58082
-1.55279
-1.53832
-1.58051
-1.59187
-1.61387
-1.64509
-1.68307
-1.72503
-1.76834
-1.81083
-1.8509
-1.8874
-1.91953
-1.94678
-1.96883
-1.98548
-1.99662
-2.0022
-2.0022
-1.99662
-1.98548
-1.96883
-1.94679
-1.91953
-1.8874
-1.8509
-1.81083
-1.76834
-1.72503
-1.68308
-1.64509
-1.61387
-1.59187
-1.58051
-1.61654
-1.62548
-1.64282
-1.66745
-1.69763
-1.73135
-1.76663
-1.80174
-1.83529
-1.86622
-1.89374
-1.91728
-1.93647
-1.95103
-1.96082
-1.96572
-1.96572
-1.96082
-1.95103
-1.93647
-1.91729
-1.89374
-1.86623
-1.83529
-1.80174
-1.76663
-1.73135
-1.69764
-1.66745
-1.64282
-1.62548
-1.61654
-1.64686
-1.65393
-1.66765
-1.68719
-1.71128
-1.73843
-1.76716
-1.79608
-1.82403
-1.85005
-1.87342
-1.89356
-1.91008
-1.92268
-1.93117
-1.93545
-1.93545
-1.93117
-1.92268
-1.91008
-1.89356
-1.87342
-1.85005
-1.82403
-1.79608
-1.76716
-1.73844
-1.71128
-1.68719
-1.66765
-1.65393
-1.64686
-1.67216
-1.67777
-1.68868
-1.70426
-1.72356
-1.74549
-1.76889
-1.79268
-1.81587
-1.83765
-1.85735
-1.87446
-1.88856
-1.89937
-1.90668
-1.91036
-1.91036
-1.90668
-1.89937
-1.88856
-1.87446
-1.85735
-1.83765
-1.81587
-1.79269
-1.76889
-1.74549
-1.72357
-1.70426
-1.68868
-1.67777
-1.67216
-1.69316
-1.69764
-1.70635
-1.71882
-1.73436
-1.7521
-1.77118
-1.79073
-1.80992
-1.82808
-1.84462
-1.85905
-1.87101
-1.88021
-1.88645
-1.8896
-1.8896
-1.88645
-1.88021
-1.87101
-1.85905
-1.84462
-1.82808
-1.80992
-1.79073
-1.77118
-1.7521
-1.73436
-1.71882
-1.70635
-1.69764
-1.69316
-1.71053
-1.71412
-1.72111
-1.73114
-1.74368
-1.75808
-1.77365
-1.78969
-1.80556
-1.82065
-1.83448
-1.84661
-1.8567
-1.86448
-1.86978
-1.87245
-1.87245
-1.86978
-1.86448
-1.8567
-1.84661
-1.83448
-1.82065
-1.80556
-1.7897
-1.77365
-1.75808
-1.74368
-1.73114
-1.72111
-1.71412
-1.71053
-1.72488
-1.72777
-1.73339
-1.74149
-1.75164
-1.76334
-1.77606
-1.78924
-1.80233
-1.81486
-1.82638
-1.83653
-1.845
-1.85156
-1.85603
-1.85829
-1.85829
-1.85603
-1.85156
-1.845
-1.83653
-1.82638
-1.81486
-1.80233
-1.78924
-1.77606
-1.76334
-1.75164
-1.74149
-1.73339
-1.72777
-1.72488
-1.73671
-1.73904
-1.74359
-1.75014
-1.75838
-1.76791
-1.77831
-1.78913
-1.79993
-1.8103
-1.81988
-1.82835
-1.83545
-1.84095
-1.8447
-1.8466
-1.8466
-1.8447
-1.84095
-1.83545
-1.82835
-1.81989
-1.8103
-1.79993
-1.78913
-1.77831
-1.76791
-1.75838
-1.75014
-1.74359
-1.73904
-1.73671
-1.74646
-1.74835
-1.75203
-1.75735
-1.76405
-1.77183
-1.78034
-1.78922
-1.79813
-1.80671
-1.81466
-1.82171
-1.82763
-1.83223
-1.83537
-1.83697
-1.83697
-1.83537
-1.83223
-1.82763
-1.82171
-1.81466
-1.80671
-1.79813
-1.78923
-1.78034
-1.77183
-1.76405
-1.75735
-1.75203
-1.74835
-1.74646
-1.75449
-1.75602
-1.75901
-1.76334
-1.7688
-1.77516
-1.78213
-1.78943
-1.79676
-1.80385
-1.81044
-1.8163
-1.82123
-1.82506
-1.82769
-1.82902
-1.82902
-1.82769
-1.82506
-1.82123
-1.8163
-1.81044
-1.80385
-1.79676
-1.78943
-1.78213
-1.77516
-1.7688
-1.76334
-1.75901
-1.75602
-1.75449
-1.7611
-1.76235
-1.76478
-1.76831
-1.77277
-1.77797
-1.78368
-1.78968
-1.79572
-1.80158
-1.80703
-1.81189
-1.81598
-1.81917
-1.82136
-1.82247
-1.82247
-1.82136
-1.81917
-1.81598
-1.81189
-1.80703
-1.80158
-1.79572
-1.78968
-1.78368
-1.77797
-1.77277
-1.76831
-1.76478
-1.76235
-1.7611
-1.76654
-1.76756
-1.76955
-1.77242
-1.77607
-1.78032
-1.78501
-1.78994
-1.79492
-1.79975
-1.80426
-1.80828
-1.81168
-1.81433
-1.81615
-1.81707
-1.81707
-1.81615
-1.81433
-1.81168
-1.80828
-1.80426
-1.79975
-1.79492
-1.78994
-1.78501
-1.78033
-1.77607
-1.77243
-1.76955
-1.76756
-1.76654
-1.77102
-1.77185
-1.77347
-1.77583
-1.77881
-1.7823
-1.78615
-1.7902
-1.7943
-1.79828
-1.80201
-1.80534
-1.80815
-1.81035
-1.81186
-1.81263
-1.81263
-1.81186
-1.81035
-1.80815
-1.80534
-1.80201
-1.79828
-1.7943
-1.7902
-1.78615
-1.7823
-1.77881
-1.77583
-1.77348
-1.77185
-1.77102
-1.77471
-1.77539
-1.77671
-1.77864
-1.78109
-1.78394
-1.7871
-1.79044
-1.79381
-1.7971
-1.80017
-1.80293
-1.80525
-1.80707
-1.80833
-1.80896
-1.80896
-1.80833
-1.80708
-1.80525
-1.80293
-1.80017
-1.7971
-1.79381
-1.79044
-1.7871
-1.78395
-1.78109
-1.77864
-1.77672
-1.77539
-1.77471
-1.77774
-1.7783
-1.77939
-1.78096
-1.78297
-1.78531
-1.78791
-1.79065
-1.79343
-1.79614
-1.79868
-1.80095
-1.80287
-1.80438
-1.80542
-1.80594
-1.80594
-1.80542
-1.80438
-1.80287
-1.80095
-1.79868
-1.79614
-1.79343
-1.79065
-1.78791
-1.78531
-1.78297
-1.78096
-1.77939
-1.7783
-1.77774
-1.78024
-1.78069
-1.78159
-1.78288
-1.78452
-1.78645
-1.78858
-1.79084
-1.79312
-1.79536
-1.79745
-1.79933
-1.80092
-1.80217
-1.80302
-1.80346
-1.80346
-1.80302
-1.80217
-1.80092
-1.79933
-1.79745
-1.79536
-1.79313
-1.79084
-1.78858
-1.78645
-1.78453
-1.78288
-1.78159
-1.7807
-1.78024
-1.7823
-1.78267
-1.7834
-1.78446
-1.78581
-1.78739
-1.78915
-1.791
-1.79288
-1.79472
-1.79645
-1.798
-1.79931
-1.80034
-1.80105
-1.80141
-1.80141
-1.80105
-1.80034
-1.79931
-1.798
-1.79645
-1.79472
-1.79288
-1.791
-1.78915
-1.78739
-1.78581
-1.78446
-1.7834
-1.78267
-1.7823
-1.78399
-1.78429
-1.78489
-1.78576
-1.78687
-1.78817
-1.78961
-1.79114
-1.79269
-1.79421
-1.79563
-1.79691
-1.79799
-1.79884
-1.79943
-1.79972
-1.79972
-1.79943
-1.79884
-1.79799
-1.79691
-1.79563
-1.79421
-1.79269
-1.79114
-1.78962
-1.78817
-1.78687
-1.78577
-1.78489
-1.78429
-1.78399
-1.78538
-1.78563
-1.78612
-1.78684
-1.78775
-1.78882
-1.79
-1.79126
-1.79254
-1.79378
-1.79496
-1.79601
-1.79691
-1.79761
-1.79809
-1.79833
-1.79833
-1.79809
-1.79761
-1.79691
-1.79601
-1.79496
-1.79379
-1.79254
-1.79126
-1.79
-1.78882
-1.78775
-1.78684
-1.78612
-1.78563
-1.78538
-1.78653
-1.78673
-1.78714
-1.78772
-1.78847
-1.78935
-1.79033
-1.79136
-1.79241
-1.79344
-1.79441
-1.79527
-1.79601
-1.79659
-1.79699
-1.79719
-1.79719
-1.79699
-1.79659
-1.79601
-1.79527
-1.79441
-1.79344
-1.79241
-1.79136
-1.79033
-1.78935
-1.78847
-1.78773
-1.78714
-1.78673
-1.78653
-1.78747
-1.78764
-1.78797
-1.78845
-1.78907
-1.78979
-1.79059
-1.79144
-1.79231
-1.79316
-1.79395
-1.79467
-1.79528
-1.79575
-1.79608
-1.79625
-1.79625
-1.79608
-1.79575
-1.79528
-1.79467
-1.79395
-1.79316
-1.79231
-1.79144
-1.79059
-1.78979
-1.78907
-1.78845
-1.78797
-1.78764
-1.78747
-1.78824
-1.78838
-1.78866
-1.78906
-1.78956
-1.79016
-1.79082
-1.79152
-1.79223
-1.79292
-1.79358
-1.79417
-1.79467
-1.79507
-1.79534
-1.79547
-1.79547
-1.79534
-1.79507
-1.79467
-1.79417
-1.79358
-1.79293
-1.79223
-1.79152
-1.79082
-1.79016
-1.78956
-1.78906
-1.78866
-1.78838
-1.78825
-1.78888
-1.789
-1.78922
-1.78955
-1.78997
-1.79046
-1.791
-1.79157
-1.79216
-1.79273
-1.79328
-1.79376
-1.79417
-1.7945
-1.79472
-1.79484
-1.79484
-1.79472
-1.7945
-1.79417
-1.79376
-1.79328
-1.79274
-1.79216
-1.79157
-1.791
-1.79046
-1.78997
-1.78955
-1.78922
-1.789
-1.78888
-1.78941
-1.7895
-1.78969
-1.78996
-1.7903
-1.7907
-1.79115
-1.79162
-1.79211
-1.79258
-1.79302
-1.79342
-1.79376
-1.79403
-1.79422
-1.79431
-1.79431
-1.79422
-1.79403
-1.79376
-1.79342
-1.79302
-1.79258
-1.79211
-1.79162
-1.79115
-1.7907
-1.7903
-1.78996
-1.78969
-1.7895
-1.78941
-1.78984
-1.78992
-1.79007
-1.79029
-1.79057
-1.79091
-1.79127
-1.79166
-1.79206
-1.79245
-1.79282
-1.79315
-1.79343
-1.79365
-1.7938
-1.79388
-1.79388
-1.7938
-1.79365
-1.79343
-1.79315
-1.79282
-1.79245
-1.79206
-1.79166
-1.79127
-1.79091
-1.79058
-1.79029
-1.79007
-1.78992
-1.78984
-1.7902
-1.79026
-1.79039
-1.79057
-1.7908
-1.79107
-1.79138
-1.7917
-1.79202
-1.79235
-1.79265
-1.79292
-1.79315
-1.79333
-1.79346
-1.79352
-1.79352
-1.79346
-1.79333
-1.79315
-1.79292
-1.79265
-1.79235
-1.79203
-1.7917
-1.79138
-1.79107
-1.7908
-1.79057
-1.79039
-1.79026
-1.7902