/*--------------------------------*- C++ -*----------------------------------*\
  =========                 |
  \\      /  F ield         | OpenFOAM: The Open Source CFD Toolbox
   \\    /   O peration     | Website:  https://openfoam.org
    \\  /    A nd           | Version:  9
     \\/     M anipulation  |
\*---------------------------------------------------------------------------*/
FoamFile
{
    format      ascii;
    class       surfaceScalarField;
    location    "0.4";
    object      phi;
}
// * * * * * * * * * * * * * * * * * * * * * * * * * * * * * * * * * * * * * //

dimensions      [0 3 -1 0 0 0 0];

internalField   nonuniform List<scalar> 
8032
(
-2.09968e-08
2.08942e-08
-4.04986e-08
2.09356e-08
-5.98294e-08
1.92685e-08
-7.67539e-08
1.68443e-08
-9.08186e-08
1.39981e-08
-1.0139e-07
1.05254e-08
-1.08033e-07
6.61384e-09
-1.1047e-07
2.42015e-09
-1.08597e-07
-1.88293e-09
-1.02482e-07
-6.12177e-09
-9.23594e-08
-1.01267e-08
-7.86232e-08
-1.37388e-08
-6.18092e-08
-1.68154e-08
-4.25742e-08
-1.92358e-08
-2.16693e-08
-2.0905e-08
8.92083e-11
-2.17581e-08
2.18518e-08
-2.17618e-08
4.27689e-08
-2.0916e-08
6.20241e-08
-1.92539e-08
7.88661e-08
-1.68405e-08
9.26379e-08
-1.37701e-08
1.02803e-07
-1.0163e-08
1.08965e-07
-6.16039e-09
1.10886e-07
-1.91982e-09
1.08498e-07
2.39102e-09
1.019e-07
6.59992e-09
9.13659e-08
1.05362e-08
7.73323e-08
1.4036e-08
6.03878e-08
1.69463e-08
4.12625e-08
1.91275e-08
2.08134e-08
2.04531e-08
2.08145e-08
-2.19767e-08
4.29206e-08
-4.33397e-08
4.23008e-08
-6.34893e-08
3.93747e-08
-8.14698e-08
3.47658e-08
-9.63354e-08
2.88105e-08
-1.07504e-07
2.16559e-08
-1.14513e-07
1.35967e-08
-1.1707e-07
4.96148e-09
-1.15066e-07
-3.89735e-09
-1.08572e-07
-1.26221e-08
-9.78377e-08
-2.08647e-08
-8.32805e-08
-2.82983e-08
-6.54674e-08
-3.46299e-08
-4.50931e-08
-3.96106e-08
-2.29526e-08
-4.30455e-08
9.03134e-11
-4.48004e-08
2.31363e-08
-4.48068e-08
4.52863e-08
-4.30646e-08
6.56761e-08
-3.9642e-08
8.35104e-08
-3.46729e-08
9.80937e-08
-2.83515e-08
1.08858e-07
-2.09251e-08
1.15384e-07
-1.26847e-08
1.17421e-07
-3.95431e-09
1.14893e-07
4.92071e-09
1.0791e-07
1.3586e-08
9.67584e-08
2.16902e-08
8.19006e-08
2.88963e-08
6.39587e-08
3.48908e-08
4.37016e-08
3.93873e-08
2.20362e-08
4.21205e-08
4.28534e-08
-2.38838e-08
6.68507e-08
-4.73408e-08
6.57813e-08
-6.92695e-08
6.12927e-08
-8.87456e-08
5.42108e-08
-1.04861e-07
4.48928e-08
-1.16952e-07
3.37184e-08
-1.24521e-07
2.11458e-08
-1.27259e-07
7.68604e-09
-1.25049e-07
-6.11572e-09
-1.17972e-07
-1.97057e-08
-1.06297e-07
-3.2543e-08
-9.0478e-08
-4.41198e-08
-7.11294e-08
-5.39797e-08
-4.90048e-08
-6.17358e-08
-2.49662e-08
-6.7084e-08
4.91478e-11
-6.98152e-08
2.50661e-08
-6.98227e-08
4.91093e-08
-6.71064e-08
7.12412e-08
-6.17723e-08
9.0599e-08
-5.4029e-08
1.06428e-07
-4.4179e-08
1.18113e-07
-3.26076e-08
1.25199e-07
-1.97682e-08
1.27412e-07
-6.16561e-09
1.24673e-07
7.6623e-09
1.17098e-07
2.11635e-08
1.05e-07
3.37908e-08
8.88798e-08
4.50193e-08
6.94118e-08
5.43607e-08
4.74309e-08
6.13705e-08
2.3921e-08
6.56356e-08
6.67751e-08
-2.66576e-08
9.35458e-08
-5.27765e-08
9.19265e-08
-7.72582e-08
8.57758e-08
-9.89421e-08
7.588e-08
-1.16879e-07
6.28093e-08
-1.30324e-07
4.71448e-08
-1.38731e-07
2.9537e-08
-1.41757e-07
1.07016e-08
-1.39277e-07
-8.60323e-09
-1.31381e-07
-2.76067e-08
-1.18373e-07
-4.55548e-08
-1.00756e-07
-6.17389e-08
-7.9215e-08
-7.55222e-08
-5.45877e-08
-8.63635e-08
-2.78332e-08
-9.38383e-08
6.13797e-12
-9.76539e-08
2.78457e-08
-9.76612e-08
5.46005e-08
-9.38598e-08
7.9228e-08
-8.63982e-08
1.00768e-07
-7.55677e-08
1.18383e-07
-6.17914e-08
1.31385e-07
-4.56082e-08
1.39271e-07
-2.7652e-08
1.41737e-07
-8.62886e-09
1.38692e-07
1.07092e-08
1.30268e-07
2.95904e-08
1.16811e-07
4.72496e-08
9.88799e-08
6.29532e-08
7.72239e-08
7.60194e-08
5.27723e-08
8.58254e-08
2.66166e-08
9.17922e-08
9.33949e-08
-3.03191e-08
1.23903e-07
-6.009e-08
1.21721e-07
-8.7945e-08
1.13639e-07
-1.12613e-07
1.00543e-07
-1.33024e-07
8.32095e-08
-1.48324e-07
6.24334e-08
-1.57888e-07
3.90906e-08
-1.61328e-07
1.41332e-08
-1.58501e-07
-1.14363e-08
-1.49512e-07
-3.66001e-08
-1.34707e-07
-6.03625e-08
-1.14661e-07
-8.17871e-08
-9.01526e-08
-1.00032e-07
-6.2135e-08
-1.14382e-07
-3.16992e-08
-1.24274e-07
-3.04602e-11
-1.29322e-07
3.16375e-08
-1.29328e-07
6.20709e-08
-1.24292e-07
9.0084e-08
-1.1441e-07
1.14585e-07
-1.00067e-07
1.34621e-07
-8.18253e-08
1.49412e-07
-6.03966e-08
1.58382e-07
-3.66209e-08
1.61188e-07
-1.14327e-08
1.57728e-07
1.41721e-08
1.48149e-07
3.91719e-08
1.32847e-07
6.25539e-08
1.12456e-07
8.33472e-08
8.78283e-08
1.00649e-07
6.00198e-08
1.13636e-07
3.02747e-08
1.21543e-07
1.2367e-07
-3.51044e-08
1.59026e-07
-6.95904e-08
1.56225e-07
-1.01842e-07
1.45899e-07
-1.30406e-07
1.29107e-07
-1.54047e-07
1.06845e-07
-1.71774e-07
8.01538e-08
-1.82859e-07
5.01686e-08
-1.8685e-07
1.81179e-08
-1.83581e-07
-1.47105e-08
-1.73173e-07
-4.70116e-08
-1.56028e-07
-7.75095e-08
-1.32813e-07
-1.05004e-07
-1.0443e-07
-1.28417e-07
-7.19824e-08
-1.46829e-07
-3.67349e-08
-1.59521e-07
-6.00251e-11
-1.65996e-07
3.66136e-08
-1.66001e-07
7.18573e-08
-1.59534e-07
1.04298e-07
-1.46849e-07
1.32672e-07
-1.2844e-07
1.55874e-07
-1.05026e-07
1.73002e-07
-7.75227e-08
1.83391e-07
-4.7008e-08
1.86641e-07
-1.46811e-08
1.82636e-07
1.81803e-08
1.71545e-07
5.02649e-08
1.53828e-07
8.02734e-08
1.30217e-07
1.0696e-07
1.01702e-07
1.29167e-07
6.9503e-08
1.45838e-07
3.50575e-08
1.55989e-07
1.58731e-07
-4.12057e-08
2.00252e-07
-8.16909e-08
1.96725e-07
-1.19548e-07
1.83765e-07
-1.53078e-07
1.62639e-07
-1.80836e-07
1.34602e-07
-2.01658e-07
1.00972e-07
-2.14684e-07
6.31907e-08
-2.19381e-07
2.2811e-08
-2.15553e-07
-1.85429e-08
-2.0334e-07
-5.92275e-08
-1.83214e-07
-9.7637e-08
-1.55958e-07
-1.32262e-07
-1.22632e-07
-1.61743e-07
-8.45336e-08
-1.84928e-07
-4.31462e-08
-2.00908e-07
-8.21713e-11
-2.0906e-07
4.29805e-08
-2.09062e-07
8.43641e-08
-2.00916e-07
1.22456e-07
-1.84939e-07
1.55773e-07
-1.61755e-07
1.83017e-07
-1.32268e-07
2.03128e-07
-9.76324e-08
2.15327e-07
-5.92049e-08
2.19144e-07
-1.84959e-08
2.14441e-07
2.28855e-08
2.0142e-07
6.32886e-08
1.80618e-07
1.01077e-07
1.52897e-07
1.34684e-07
1.19416e-07
1.6265e-07
8.16091e-08
1.83646e-07
4.11667e-08
1.96438e-07
1.99897e-07
-4.88707e-08
2.49133e-07
-9.68861e-08
2.44751e-07
-1.41782e-07
2.28669e-07
-1.81547e-07
2.02409e-07
-2.14473e-07
1.67528e-07
-2.39177e-07
1.25675e-07
-2.5464e-07
7.86505e-08
-2.60223e-07
2.83919e-08
-2.55692e-07
-2.30765e-08
-2.41213e-07
-7.37086e-08
-2.17346e-07
-1.21506e-07
-1.85016e-07
-1.64592e-07
-1.45483e-07
-2.01277e-07
-1.00287e-07
-2.30125e-07
-5.11869e-08
-2.50008e-07
-9.72726e-11
-2.60149e-07
5.09913e-08
-2.6015e-07
1.00088e-07
-2.50012e-07
1.45279e-07
-2.30129e-07
1.84805e-07
-2.01279e-07
2.17126e-07
-1.64587e-07
2.40985e-07
-1.2149e-07
2.55457e-07
-7.36745e-08
2.59984e-07
-2.30214e-08
2.54404e-07
2.84677e-08
2.38956e-07
7.8739e-08
2.14278e-07
1.25757e-07
1.81392e-07
1.67573e-07
1.41672e-07
2.02372e-07
9.68221e-08
2.285e-07
4.88396e-08
2.4442e-07
2.4874e-07
-5.83992e-08
3.07544e-07
-1.15775e-07
3.02136e-07
-1.69419e-07
2.8232e-07
-2.16935e-07
2.49928e-07
-2.56281e-07
2.06876e-07
-2.85808e-07
1.55202e-07
-3.04294e-07
9.71358e-08
-3.10977e-07
3.50733e-08
-3.05572e-07
-2.84832e-08
-2.88276e-07
-9.10056e-08
-2.59757e-07
-1.50027e-07
-2.21122e-07
-2.03228e-07
-1.73875e-07
-2.48524e-07
-1.19857e-07
-2.84144e-07
-6.11714e-08
-3.08693e-07
-1.06522e-10
-3.21213e-07
6.09577e-08
-3.21213e-07
1.19641e-07
-3.08694e-07
1.73657e-07
-2.84143e-07
2.209e-07
-2.4852e-07
2.59531e-07
-2.03216e-07
2.88047e-07
-1.50004e-07
3.05342e-07
-9.0968e-08
3.10752e-07
-2.84292e-08
3.04081e-07
3.51408e-08
2.85615e-07
9.72066e-08
2.56119e-07
1.55256e-07
2.16812e-07
2.06883e-07
1.69338e-07
2.49847e-07
1.15729e-07
2.82109e-07
5.83802e-08
3.01776e-07
3.0712e-07
-7.01623e-08
3.77713e-07
-1.39092e-07
3.71073e-07
-2.03535e-07
3.46769e-07
-2.60614e-07
3.07012e-07
-3.07883e-07
2.54147e-07
-3.43359e-07
1.9068e-07
-3.65574e-07
1.19351e-07
-3.73611e-07
4.31094e-08
-3.67125e-07
-3.49699e-08
-3.46352e-07
-1.11779e-07
-3.12092e-07
-1.84287e-07
-2.65675e-07
-2.49645e-07
-2.08908e-07
-3.05291e-07
-1.44003e-07
-3.49049e-07
-7.34873e-08
-3.79208e-07
-1.11558e-10
-3.94588e-07
7.32639e-08
-3.94588e-07
1.43779e-07
-3.79207e-07
2.08684e-07
-3.49047e-07
2.65451e-07
-3.05285e-07
3.11868e-07
-2.49632e-07
3.4613e-07
-1.84265e-07
3.66909e-07
-1.11745e-07
3.73406e-07
-3.49244e-08
3.65387e-07
4.31616e-08
3.43197e-07
1.19399e-07
3.07753e-07
1.90702e-07
2.60521e-07
2.54116e-07
2.03477e-07
3.06894e-07
1.39064e-07
3.46526e-07
7.01503e-08
3.70688e-07
3.77274e-07
-8.46122e-08
4.62332e-07
-1.67734e-07
4.54201e-07
-2.45442e-07
4.24482e-07
-3.14269e-07
3.75844e-07
-3.71267e-07
3.11148e-07
-4.14048e-07
2.33463e-07
-4.40842e-07
1.46145e-07
-4.50539e-07
5.2807e-08
-4.42724e-07
-4.27849e-08
-4.1768e-07
-1.36824e-07
-3.76368e-07
-2.25599e-07
-3.20394e-07
-3.0562e-07
-2.51934e-07
-3.73751e-07
-1.73655e-07
-4.27327e-07
-8.86103e-08
-4.64252e-07
-1.14003e-10
-4.83083e-07
8.83825e-08
-4.83083e-07
1.73428e-07
-4.64252e-07
2.51708e-07
-4.27326e-07
3.20171e-07
-3.73746e-07
3.7615e-07
-3.0561e-07
4.17469e-07
-2.25582e-07
4.42524e-07
-1.36799e-07
4.50355e-07
-4.27533e-08
4.40679e-07
5.28393e-08
4.13913e-07
1.46167e-07
3.71164e-07
2.33454e-07
3.142e-07
3.11083e-07
2.45403e-07
3.75691e-07
1.67717e-07
4.24213e-07
8.4608e-08
4.53805e-07
4.61881e-07
-1.02302e-07
5.64641e-07
-2.02799e-07
5.54703e-07
-2.96746e-07
5.18434e-07
-3.79955e-07
4.59057e-07
-4.48864e-07
3.8006e-07
-5.00588e-07
2.85188e-07
-5.32986e-07
1.78544e-07
-5.44716e-07
6.45379e-08
-5.35274e-07
-5.22264e-08
-5.05e-07
-1.67099e-07
-4.55056e-07
-2.75542e-07
-3.87381e-07
-3.73295e-07
-3.04606e-07
-4.56526e-07
-2.09957e-07
-5.21976e-07
-1.07123e-07
-5.67086e-07
-1.15199e-10
-5.9009e-07
1.06893e-07
-5.90091e-07
2.09729e-07
-5.67087e-07
3.04381e-07
-5.21977e-07
3.87161e-07
-4.56525e-07
4.54845e-07
-3.73292e-07
5.04799e-07
-2.75535e-07
5.35088e-07
-1.67087e-07
5.44549e-07
-5.22126e-08
5.32843e-07
6.45474e-08
5.00474e-07
1.78538e-07
4.48781e-07
2.85149e-07
3.79902e-07
3.79963e-07
2.96719e-07
4.58877e-07
2.02792e-07
5.18145e-07
1.023e-07
5.54294e-07
5.64185e-07
-1.2391e-07
6.88555e-07
-2.45628e-07
6.76426e-07
-3.5941e-07
6.3222e-07
-4.60187e-07
5.59837e-07
-5.43646e-07
4.63521e-07
-6.06294e-07
3.47838e-07
-6.45538e-07
2.17789e-07
-6.59752e-07
7.87536e-08
-6.48325e-07
-6.36534e-08
-6.11664e-07
-2.03759e-07
-5.51177e-07
-3.36029e-07
-4.69209e-07
-4.55263e-07
-3.68948e-07
-5.56786e-07
-2.54301e-07
-6.36623e-07
-1.29738e-07
-6.91649e-07
-1.1614e-10
-7.19711e-07
1.29506e-07
-7.19712e-07
2.54073e-07
-6.91652e-07
3.68725e-07
-6.36628e-07
4.68993e-07
-5.56792e-07
5.50971e-07
-4.55268e-07
6.11471e-07
-3.36033e-07
6.48149e-07
-2.03763e-07
6.59598e-07
-6.36598e-08
6.45408e-07
7.87387e-08
6.06192e-07
2.17755e-07
5.43574e-07
3.47769e-07
4.60144e-07
4.63396e-07
3.5939e-07
5.59631e-07
2.45622e-07
6.31912e-07
1.23911e-07
6.76013e-07
6.88094e-07
-1.50258e-07
8.38818e-07
-2.97857e-07
8.24029e-07
-4.35828e-07
7.70196e-07
-5.5803e-07
6.82042e-07
-6.59235e-07
5.64729e-07
-7.35209e-07
4.23814e-07
-7.82806e-07
2.65388e-07
-8.00055e-07
9.60033e-08
-7.86209e-07
-7.74985e-08
-7.41762e-07
-2.48205e-07
-6.68418e-07
-4.09372e-07
-5.6902e-07
-5.54661e-07
-4.47432e-07
-6.78373e-07
-3.08393e-07
-7.75662e-07
-1.57323e-07
-8.42718e-07
-1.1751e-10
-8.76916e-07
1.57089e-07
-8.76918e-07
3.08162e-07
-8.42724e-07
4.47208e-07
-7.75672e-07
5.68804e-07
-6.78387e-07
6.68215e-07
-5.54678e-07
7.41574e-07
-4.09391e-07
7.86039e-07
-2.48227e-07
7.99907e-07
-7.75265e-08
7.82684e-07
9.59632e-08
7.35115e-07
2.65326e-07
6.5917e-07
4.23716e-07
5.57991e-07
5.64575e-07
4.3581e-07
6.81814e-07
2.97853e-07
7.69873e-07
1.50258e-07
8.23605e-07
8.38356e-07
-1.82355e-07
1.02118e-06
-3.61479e-07
1.00315e-06
-5.28919e-07
9.3764e-07
-6.77224e-07
8.3035e-07
-8.00052e-07
6.87559e-07
-8.92265e-07
5.16029e-07
-9.50045e-07
3.2317e-07
-9.70996e-07
1.16956e-07
-9.5421e-07
-9.42835e-08
-9.00283e-07
-3.02132e-07
-8.11278e-07
-4.98376e-07
-6.90644e-07
-6.75295e-07
-5.43071e-07
-8.25946e-07
-3.74309e-07
-9.44424e-07
-1.90939e-07
-1.02609e-06
-1.19769e-10
-1.06774e-06
1.90701e-07
-1.06774e-06
3.74075e-07
-1.0261e-06
5.42844e-07
-9.4444e-07
6.90427e-07
-8.25969e-07
8.11074e-07
-6.75324e-07
9.00095e-07
-4.98411e-07
9.54042e-07
-3.02173e-07
9.70851e-07
-9.4334e-08
9.49925e-07
1.1689e-07
8.92172e-07
3.2308e-07
7.99987e-07
5.15903e-07
6.77184e-07
6.8738e-07
5.28899e-07
8.30099e-07
3.61471e-07
9.37301e-07
1.82355e-07
1.00273e-06
1.02071e-06
-2.21424e-07
1.2426e-06
-4.38921e-07
1.22066e-06
-6.42235e-07
1.14096e-06
-8.22319e-07
1.01044e-06
-9.71475e-07
8.36718e-07
-1.08347e-06
6.28021e-07
-1.15365e-06
3.93358e-07
-1.17912e-06
1.42427e-07
-1.15877e-06
-1.14638e-07
-1.0933e-06
-3.67594e-07
-9.85239e-07
-6.06442e-07
-8.38751e-07
-8.21782e-07
-6.59538e-07
-1.00516e-06
-4.54582e-07
-1.14938e-06
-2.31879e-07
-1.24879e-06
-1.23218e-10
-1.29949e-06
2.31634e-07
-1.29949e-06
4.54342e-07
-1.2488e-06
6.59305e-07
-1.1494e-06
8.38529e-07
-1.00519e-06
9.8503e-07
-8.21824e-07
1.09311e-06
-6.06493e-07
1.1586e-06
-3.67655e-07
1.17897e-06
-1.14712e-07
1.15353e-06
1.42335e-07
1.08337e-06
3.93241e-07
9.71407e-07
6.27868e-07
8.22275e-07
8.36513e-07
6.42211e-07
1.01017e-06
4.38912e-07
1.1406e-06
2.2142e-07
1.22022e-06
1.24213e-06
-2.68955e-07
1.51156e-06
-5.33138e-07
1.48484e-06
-7.80099e-07
1.38792e-06
-9.98853e-07
1.22919e-06
-1.18005e-06
1.01792e-06
-1.31612e-06
7.6409e-07
-1.40142e-06
4.78656e-07
-1.4324e-06
1.73411e-07
-1.40772e-06
-1.39321e-07
-1.32823e-06
-4.4708e-07
-1.19698e-06
-7.37696e-07
-1.01903e-06
-9.99727e-07
-8.0131e-07
-1.22288e-06
-5.52299e-07
-1.39839e-06
-2.81716e-07
-1.51937e-06
-1.28068e-10
-1.58108e-06
2.81461e-07
-1.58108e-06
5.5205e-07
-1.51939e-06
8.01068e-07
-1.39842e-06
1.0188e-06
-1.22292e-06
1.19676e-06
-9.99784e-07
1.32803e-06
-7.37764e-07
1.40754e-06
-4.47161e-07
1.43225e-06
-1.39418e-07
1.40129e-06
1.73294e-07
1.31602e-06
4.78512e-07
1.17998e-06
7.63909e-07
9.98803e-07
1.01769e-06
7.8007e-07
1.2289e-06
5.33123e-07
1.38755e-06
2.6895e-07
1.4844e-06
1.51108e-06
-3.26757e-07
1.83832e-06
-6.4772e-07
1.80581e-06
-9.47767e-07
1.68797e-06
-1.21356e-06
1.49499e-06
-1.43375e-06
1.23811e-06
-1.59912e-06
9.29462e-07
-1.70282e-06
5.82356e-07
-1.74053e-06
2.11125e-07
-1.7106e-06
-1.69248e-07
-1.61407e-06
-5.43608e-07
-1.45462e-06
-8.97147e-07
-1.23841e-06
-1.21594e-06
-9.73839e-07
-1.48745e-06
-6.7122e-07
-1.70101e-06
-3.42368e-07
-1.84822e-06
-1.34468e-10
-1.92331e-06
3.42101e-07
-1.92332e-06
6.70958e-07
-1.84825e-06
9.73585e-07
-1.70105e-06
1.23817e-06
-1.48751e-06
1.4544e-06
-1.21601e-06
1.61387e-06
-8.97234e-07
1.71042e-06
-5.43711e-07
1.74037e-06
-1.6937e-07
1.70268e-06
2.10981e-07
1.59901e-06
5.82184e-07
1.43367e-06
9.29253e-07
1.2135e-06
1.23785e-06
9.4773e-07
1.49467e-06
6.47701e-07
1.68758e-06
3.26747e-07
1.80535e-06
1.83783e-06
-3.97033e-07
2.23535e-06
-7.87028e-07
2.1958e-06
-1.15163e-06
2.05256e-06
-1.47463e-06
1.81799e-06
-1.74224e-06
1.50572e-06
-1.94327e-06
1.13049e-06
-2.06938e-06
7.08465e-07
-2.11531e-06
2.57056e-07
-2.07903e-06
-2.05521e-07
-1.9618e-06
-6.60836e-07
-1.76808e-06
-1.09088e-06
-1.50533e-06
-1.47869e-06
-1.18376e-06
-1.80901e-06
-8.15924e-07
-2.06885e-06
-4.16173e-07
-2.24797e-06
-1.42543e-10
-2.33934e-06
4.1589e-07
-2.33935e-06
8.15647e-07
-2.248e-06
1.1835e-06
-2.0689e-06
1.50507e-06
-1.80908e-06
1.76783e-06
-1.47878e-06
1.96158e-06
-1.09098e-06
2.07883e-06
-6.60962e-07
2.11513e-06
-2.05668e-07
2.06923e-06
2.56885e-07
1.94315e-06
7.08265e-07
1.74215e-06
1.13026e-06
1.47456e-06
1.50544e-06
1.15158e-06
1.81765e-06
7.87001e-07
2.05216e-06
3.97022e-07
2.19533e-06
2.23485e-06
-4.82451e-07
2.71781e-06
-9.56361e-07
2.66971e-06
-1.39943e-06
2.49564e-06
-1.79199e-06
2.21055e-06
-2.11729e-06
1.83102e-06
-2.36171e-06
1.37491e-06
-2.51511e-06
8.61864e-07
-2.57108e-06
3.13027e-07
-2.52714e-06
-2.49464e-07
-2.38478e-06
-8.03199e-07
-2.14939e-06
-1.32626e-06
-1.83005e-06
-1.79802e-06
-1.43918e-06
-2.19989e-06
-9.91992e-07
-2.51603e-06
-5.05977e-07
-2.73399e-06
-1.52396e-10
-2.84517e-06
5.05674e-07
-2.84518e-06
9.91694e-07
-2.73402e-06
1.43889e-06
-2.51609e-06
1.82978e-06
-2.19997e-06
2.14913e-06
-1.79813e-06
2.38454e-06
-1.32639e-06
2.52692e-06
-8.03347e-07
2.57089e-06
-2.49636e-07
2.51495e-06
3.12829e-07
2.36158e-06
8.61636e-07
2.11718e-06
1.37465e-06
1.79192e-06
1.83071e-06
1.39938e-06
2.21019e-06
9.5633e-07
2.49521e-06
4.82436e-07
2.66922e-06
2.71729e-06
-5.86257e-07
3.30406e-06
-1.16215e-06
3.2456e-06
-1.7006e-06
3.03409e-06
-2.17774e-06
2.68769e-06
-2.57319e-06
2.22647e-06
-2.87041e-06
1.67213e-06
-3.05705e-06
1.04851e-06
-3.1253e-06
3.81277e-07
-3.0721e-06
-3.02662e-07
-2.89924e-06
-9.76064e-07
-2.61323e-06
-1.61227e-06
-2.22511e-06
-2.18615e-06
-1.74993e-06
-2.67507e-06
-1.20622e-06
-3.05974e-06
-6.15249e-07
-3.32496e-06
-1.64134e-10
-3.46025e-06
6.14923e-07
-3.46027e-06
1.2059e-06
-3.325e-06
1.74962e-06
-3.05981e-06
2.22481e-06
-2.67517e-06
2.61295e-06
-2.18627e-06
2.89898e-06
-1.61241e-06
3.07187e-06
-9.76237e-07
3.12509e-06
-3.02862e-07
3.05687e-06
3.81049e-07
2.87026e-06
1.04825e-06
2.57307e-06
1.67184e-06
2.17765e-06
2.22613e-06
1.70054e-06
2.68729e-06
1.16211e-06
3.03364e-06
5.86239e-07
3.2451e-06
3.30352e-06
-7.12383e-07
4.01645e-06
-1.41219e-06
3.94541e-06
-2.06657e-06
3.68847e-06
-2.64651e-06
3.26763e-06
-3.12728e-06
2.70724e-06
-3.48876e-06
2.03361e-06
-3.7159e-06
1.27566e-06
-3.79918e-06
4.64556e-07
-3.73483e-06
-3.67014e-07
-3.52497e-06
-1.18593e-06
-3.17748e-06
-1.95976e-06
-2.70573e-06
-2.6579e-06
-2.12802e-06
-3.25278e-06
-1.46689e-06
-3.72087e-06
-7.48219e-07
-4.04364e-06
-1.77863e-10
-4.20829e-06
7.47865e-07
-4.20831e-06
1.46655e-06
-4.04369e-06
2.12769e-06
-3.72095e-06
2.70541e-06
-3.25289e-06
3.17717e-06
-2.65804e-06
3.52468e-06
-1.95992e-06
3.73458e-06
-1.18613e-06
3.79896e-06
-3.67242e-07
3.71571e-06
4.64298e-07
3.48859e-06
1.27536e-06
3.12714e-06
2.03328e-06
2.64641e-06
2.70686e-06
2.06649e-06
3.26721e-06
1.41215e-06
3.68799e-06
7.1236e-07
3.94488e-06
4.01589e-06
-8.65598e-07
4.88204e-06
-1.71595e-06
4.79577e-06
-2.51119e-06
4.4837e-06
-3.2161e-06
3.97254e-06
-3.80063e-06
3.29176e-06
-4.24031e-06
2.47329e-06
-4.51683e-06
1.55218e-06
-4.61853e-06
5.66257e-07
-4.54077e-06
-4.44778e-07
-4.28604e-06
-1.44066e-06
-3.86388e-06
-2.38191e-06
-3.29049e-06
-3.23129e-06
-2.5881e-06
-3.95517e-06
-1.78412e-06
-4.52485e-06
-9.10042e-07
-4.91772e-06
-1.93701e-10
-5.11814e-06
9.09656e-07
-5.11816e-06
1.78374e-06
-4.91777e-06
2.58773e-06
-4.52494e-06
3.29014e-06
-3.9553e-06
3.86355e-06
-3.23145e-06
4.28573e-06
-2.38211e-06
4.54048e-06
-1.44088e-06
4.61828e-06
-4.45036e-07
4.51661e-06
5.65965e-07
4.24012e-06
1.55185e-06
3.80047e-06
2.47293e-06
3.21598e-06
3.29136e-06
2.5111e-06
3.97208e-06
1.7159e-06
4.48319e-06
8.65572e-07
4.79521e-06
4.88146e-06
-1.05168e-06
5.93372e-06
-2.0849e-06
5.82898e-06
-3.05127e-06
5.45008e-06
-3.90807e-06
4.82933e-06
-4.61878e-06
4.00248e-06
-5.15367e-06
3.00817e-06
-5.49039e-06
1.8889e-06
-5.6147e-06
6.90567e-07
-5.52085e-06
-5.3863e-07
-5.21177e-06
-1.74974e-06
-4.69895e-06
-2.89473e-06
-4.00203e-06
-3.92822e-06
-3.148e-06
-4.8092e-06
-2.17021e-06
-5.50264e-06
-1.10701e-06
-5.98092e-06
-2.11777e-10
-6.22494e-06
1.10659e-06
-6.22496e-06
2.1698e-06
-5.98098e-06
3.1476e-06
-5.50274e-06
4.00164e-06
-4.80934e-06
4.69859e-06
-3.9284e-06
5.21143e-06
-2.89495e-06
5.52054e-06
-1.75e-06
5.61442e-06
-5.3892e-07
5.49014e-06
6.90241e-07
5.15346e-06
1.88854e-06
4.61861e-06
3.00777e-06
3.90793e-06
4.00203e-06
3.05117e-06
4.82884e-06
2.08483e-06
5.44953e-06
1.05165e-06
5.82838e-06
5.93311e-06
-1.27763e-06
7.21134e-06
-2.53291e-06
7.08426e-06
-3.70717e-06
6.62434e-06
-4.74856e-06
5.87072e-06
-5.61275e-06
4.86667e-06
-6.26354e-06
3.65896e-06
-6.67372e-06
2.29908e-06
-6.82583e-06
8.4268e-07
-6.71274e-06
-6.51724e-07
-6.33785e-06
-2.12464e-06
-5.715e-06
-3.51759e-06
-4.86795e-06
-4.77527e-06
-3.82951e-06
-5.84765e-06
-2.64023e-06
-6.69193e-06
-1.34681e-06
-7.27434e-06
-2.32238e-10
-7.57152e-06
1.34635e-06
-7.57155e-06
2.63977e-06
-7.27441e-06
3.82907e-06
-6.69204e-06
4.86753e-06
-5.8478e-06
5.7146e-06
-4.77547e-06
6.33747e-06
-3.51783e-06
6.71239e-06
-2.12492e-06
6.82552e-06
-6.52049e-07
6.67344e-06
8.42316e-07
6.2633e-06
2.29867e-06
5.61255e-06
3.65852e-06
4.74841e-06
4.86618e-06
3.70706e-06
5.87019e-06
2.53283e-06
6.62375e-06
1.27759e-06
7.08363e-06
7.21069e-06
-1.5519e-06
8.76325e-06
-3.07678e-06
8.60913e-06
-4.50353e-06
8.05108e-06
-5.76924e-06
7.13643e-06
-6.82008e-06
5.91751e-06
-7.61203e-06
4.45091e-06
-8.11189e-06
2.79894e-06
-8.29827e-06
1.02905e-06
-8.16225e-06
-7.87745e-07
-7.70775e-06
-2.57913e-06
-6.9514e-06
-4.27394e-06
-5.92195e-06
-5.80473e-06
-4.65921e-06
-7.11039e-06
-3.21253e-06
-8.13861e-06
-1.63882e-06
-8.84805e-06
-2.55243e-10
-9.21009e-06
1.63832e-06
-9.21012e-06
3.21203e-06
-8.84813e-06
4.65872e-06
-8.13874e-06
5.92148e-06
-7.11056e-06
6.95096e-06
-5.80495e-06
7.70734e-06
-4.27421e-06
8.16187e-06
-2.57945e-06
8.29792e-06
-7.88107e-07
8.11159e-06
1.02865e-06
7.61177e-06
2.79849e-06
6.81986e-06
4.45042e-06
5.76906e-06
5.91697e-06
4.5034e-06
7.13585e-06
3.0767e-06
8.05045e-06
1.55186e-06
8.60846e-06
8.76256e-06
-1.88474e-06
1.0648e-05
-3.73684e-06
1.04612e-05
-5.47015e-06
9.78438e-06
-7.00843e-06
8.6747e-06
-8.2863e-06
7.19538e-06
-9.25022e-06
5.41483e-06
-9.85967e-06
3.40838e-06
-1.00884e-05
1.25774e-06
-9.92515e-06
-9.50959e-07
-9.37446e-06
-3.12983e-06
-8.45621e-06
-5.19219e-06
-7.20515e-06
-7.05579e-06
-5.66959e-06
-8.64594e-06
-3.9096e-06
-9.89861e-06
-1.99454e-06
-1.07631e-05
-2.80976e-10
-1.12044e-05
1.99398e-06
-1.12044e-05
3.90905e-06
-1.07632e-05
5.66906e-06
-9.89875e-06
7.20463e-06
-8.64614e-06
8.45572e-06
-7.05604e-06
9.374e-06
-5.1925e-06
9.92472e-06
-3.13018e-06
1.0088e-05
-9.51361e-07
9.85933e-06
1.25729e-06
9.24993e-06
3.40788e-06
8.28606e-06
5.41429e-06
7.00823e-06
7.1948e-06
5.47001e-06
8.67407e-06
3.73675e-06
9.78371e-06
1.88469e-06
1.04605e-05
1.06472e-05
-2.28848e-06
1.29365e-05
-4.5376e-06
1.27103e-05
-6.64306e-06
1.18898e-05
-8.51247e-06
1.05441e-05
-1.00665e-05
8.74941e-06
-1.124e-05
6.58832e-06
-1.19835e-05
4.15184e-06
-1.22646e-05
1.53885e-06
-1.20693e-05
-1.14623e-06
-1.14026e-05
-3.7966e-06
-1.02881e-05
-6.30668e-06
-8.76782e-06
-8.57605e-06
-6.90042e-06
-1.05133e-05
-4.75895e-06
-1.20401e-05
-2.42802e-06
-1.3094e-05
-3.09636e-10
-1.36321e-05
2.42741e-06
-1.36321e-05
4.75834e-06
-1.30941e-05
6.89983e-06
-1.20402e-05
8.76725e-06
-1.05136e-05
1.02875e-05
-8.57633e-06
1.1402e-05
-6.30702e-06
1.20688e-05
-3.79699e-06
1.22642e-05
-1.14668e-06
1.19831e-05
1.53835e-06
1.12397e-05
4.1513e-06
1.00662e-05
6.58773e-06
8.51225e-06
8.74878e-06
6.6429e-06
1.05434e-05
4.5375e-06
1.18891e-05
2.28843e-06
1.27096e-05
1.29357e-05
-2.77801e-06
1.57145e-05
-5.50864e-06
1.5441e-05
-8.06571e-06
1.44469e-05
-1.03374e-05
1.28157e-05
-1.22273e-05
1.06394e-05
-1.36564e-05
8.01735e-06
-1.45639e-05
5.05941e-06
-1.49102e-05
1.88511e-06
-1.46774e-05
-1.37902e-06
-1.38708e-05
-4.60321e-06
-1.25186e-05
-7.65884e-06
-1.06715e-05
-1.04232e-05
-8.40037e-06
-1.27845e-05
-5.7943e-06
-1.46462e-05
-2.95653e-06
-1.59318e-05
-3.41446e-10
-1.65883e-05
2.95585e-06
-1.65883e-05
5.79363e-06
-1.59319e-05
8.39972e-06
-1.46463e-05
1.06708e-05
-1.27847e-05
1.2518e-05
-1.04235e-05
1.38702e-05
-7.65922e-06
1.46769e-05
-4.60364e-06
1.49097e-05
-1.37952e-06
1.45635e-05
1.88456e-06
1.3656e-05
5.05881e-06
1.2227e-05
8.0167e-06
1.03371e-05
1.06387e-05
8.06553e-06
1.2815e-05
5.50852e-06
1.44461e-05
2.77795e-06
1.54401e-05
1.57136e-05
-3.37124e-06
1.90857e-05
-6.68554e-06
1.87553e-05
-9.79044e-06
1.75518e-05
-1.25506e-05
1.55759e-05
-1.48493e-05
1.29381e-05
-1.659e-05
9.75809e-06
-1.76988e-05
6.16817e-06
-1.81264e-05
2.31264e-06
-1.78501e-05
-1.65528e-06
-1.68753e-05
-5.57797e-06
-1.52355e-05
-9.29866e-06
-1.29914e-05
-1.26673e-05
-1.02292e-05
-1.55467e-05
-7.05707e-06
-1.78183e-05
-3.60126e-06
-1.93876e-05
-3.76649e-10
-2.01892e-05
3.60051e-06
-2.01892e-05
7.05633e-06
-1.93877e-05
1.02284e-05
-1.78185e-05
1.29907e-05
-1.5547e-05
1.52349e-05
-1.26677e-05
1.68747e-05
-9.29908e-06
1.78495e-05
-5.57845e-06
1.81258e-05
-1.65583e-06
1.76983e-05
2.31204e-06
1.65896e-05
6.16751e-06
1.4849e-05
9.75738e-06
1.25503e-05
1.29373e-05
9.79024e-06
1.55751e-05
6.6854e-06
1.75509e-05
3.37117e-06
1.87544e-05
1.90848e-05
-4.08965e-06
2.31753e-05
-8.11107e-06
2.27767e-05
-1.18802e-05
2.1321e-05
-1.52335e-05
1.89292e-05
-1.80295e-05
1.57341e-05
-2.01508e-05
1.18793e-05
-2.15066e-05
7.52399e-06
-2.2036e-05
2.84201e-06
-2.171e-05
-1.98126e-06
-2.05336e-05
-6.75438e-06
-1.8546e-05
-1.12863e-05
-1.58201e-05
-1.53932e-05
-1.24602e-05
-1.89066e-05
-8.59822e-06
-2.16803e-05
-4.38832e-06
-2.35975e-05
-4.15512e-10
-2.45771e-05
4.38749e-06
-2.45771e-05
8.5974e-06
-2.35977e-05
1.24594e-05
-2.16805e-05
1.58193e-05
-1.89069e-05
1.85453e-05
-1.53936e-05
2.05329e-05
-1.12867e-05
2.17093e-05
-6.75491e-06
2.20354e-05
-1.98186e-06
2.15061e-05
2.84134e-06
2.01503e-05
7.52326e-06
1.80291e-05
1.18786e-05
1.52332e-05
1.57332e-05
1.188e-05
1.89283e-05
8.11092e-06
2.132e-05
4.08957e-06
2.27757e-05
2.31744e-05
-4.95899e-06
2.81343e-05
-9.83647e-06
2.76541e-05
-1.44106e-05
2.58951e-05
-1.84839e-05
2.30024e-05
-2.1885e-05
1.91352e-05
-2.44711e-05
1.44654e-05
-2.61308e-05
9.18371e-06
-2.67884e-05
3.49957e-06
-2.64065e-05
-2.3631e-06
-2.4989e-05
-8.17191e-06
-2.25815e-05
-1.36938e-05
-1.92711e-05
-1.87036e-05
-1.51839e-05
-2.29938e-05
-1.04806e-05
-2.63836e-05
-5.34994e-06
-2.87282e-05
-4.58315e-10
-2.99266e-05
5.34903e-06
-2.99266e-05
1.04797e-05
-2.87283e-05
1.5183e-05
-2.63838e-05
1.92702e-05
-2.29941e-05
2.25807e-05
-1.87041e-05
2.49882e-05
-1.36943e-05
2.64058e-05
-8.17249e-06
2.67877e-05
-2.36376e-06
2.61302e-05
3.49883e-06
2.44706e-05
9.18291e-06
2.18846e-05
1.44645e-05
1.84835e-05
1.91343e-05
1.44103e-05
2.30015e-05
9.83629e-06
2.58941e-05
4.95891e-06
2.76531e-05
2.81333e-05
-6.01e-06
3.41443e-05
-1.1923e-05
3.35671e-05
-1.7472e-05
3.14441e-05
-2.24189e-05
2.79494e-05
-2.65565e-05
2.32728e-05
-2.97107e-05
1.76196e-05
-3.17451e-05
1.1218e-05
-3.25649e-05
4.31939e-06
-3.21219e-05
-2.80613e-06
-3.04172e-05
-9.87658e-06
-2.75034e-05
-1.66076e-05
-2.34842e-05
-2.27229e-05
-1.85118e-05
-2.79662e-05
-1.2782e-05
-3.21134e-05
-6.52606e-06
-3.49841e-05
-5.05358e-10
-3.64521e-05
6.52505e-06
-3.64522e-05
1.2781e-05
-3.49843e-05
1.85108e-05
-3.21136e-05
2.34832e-05
-2.79665e-05
2.75025e-05
-2.27233e-05
3.04164e-05
-1.66081e-05
3.21211e-05
-9.87722e-06
3.25642e-05
-2.80686e-06
3.17444e-05
4.31858e-06
2.97102e-05
1.12172e-05
2.6556e-05
1.76187e-05
2.24185e-05
2.32718e-05
1.74717e-05
2.79483e-05
1.19228e-05
3.1443e-05
6.0099e-06
3.35659e-05
3.41432e-05
-7.27922e-06
4.14235e-05
-1.44434e-05
4.07313e-05
-2.11721e-05
3.81728e-05
-2.71787e-05
3.39559e-05
-3.22126e-05
2.83067e-05
-3.60622e-05
2.14692e-05
-3.85594e-05
1.37152e-05
-3.95858e-05
5.3458e-06
-3.90782e-05
-3.31371e-06
-3.70333e-05
-1.19215e-05
-3.35104e-05
-2.01305e-05
-2.86321e-05
-2.76011e-05
-2.25821e-05
-3.40162e-05
-1.55989e-05
-3.90966e-05
-7.9663e-06
-4.26168e-05
-5.56955e-10
-4.44179e-05
7.96519e-06
-4.44179e-05
1.55978e-05
-4.26169e-05
2.25811e-05
-3.90969e-05
2.86311e-05
-3.40166e-05
3.35094e-05
-2.76016e-05
3.70324e-05
-2.01311e-05
3.90774e-05
-1.19222e-05
3.9585e-05
-3.31451e-06
3.85587e-05
5.34491e-06
3.60616e-05
1.37142e-05
3.22121e-05
2.14681e-05
2.71783e-05
2.83056e-05
2.11718e-05
3.39548e-05
1.44432e-05
3.81715e-05
7.27911e-06
4.073e-05
4.14223e-05
-8.80992e-06
5.02335e-05
-1.74843e-05
4.94056e-05
-2.56391e-05
4.63276e-05
-3.29303e-05
4.12471e-05
-3.90553e-05
3.44318e-05
-4.37566e-05
2.61705e-05
-4.68272e-05
1.67858e-05
-4.81183e-05
6.63692e-06
-4.75467e-05
-3.88536e-06
-4.51011e-05
-1.43671e-05
-4.0847e-05
-2.43846e-05
-3.49287e-05
-3.35195e-05
-2.75667e-05
-4.13782e-05
-1.90517e-05
-4.76116e-05
-9.73265e-06
-5.19358e-05
-6.1343e-10
-5.41499e-05
9.73142e-06
-5.415e-05
1.90505e-05
-5.1936e-05
2.75655e-05
-4.76119e-05
3.49275e-05
-4.13786e-05
4.0846e-05
-3.35201e-05
4.51e-05
-2.43852e-05
4.75457e-05
-1.43679e-05
4.81174e-05
-3.88624e-06
4.68264e-05
6.63594e-06
4.37559e-05
1.67847e-05
3.90547e-05
2.61693e-05
3.29298e-05
3.44306e-05
2.56387e-05
4.12458e-05
1.7484e-05
4.63263e-05
8.8098e-06
4.94042e-05
5.02321e-05
-1.06531e-05
6.08865e-05
-2.11473e-05
5.98999e-05
-3.10243e-05
5.62046e-05
-3.98717e-05
5.00944e-05
-4.7325e-05
4.18851e-05
-5.30708e-05
3.19163e-05
-5.68539e-05
2.05689e-05
-5.84865e-05
8.2695e-06
-5.78581e-05
-4.5138e-06
-5.49447e-05
-1.72806e-05
-4.9816e-05
-2.95133e-05
-4.26396e-05
-4.06959e-05
-3.36799e-05
-5.03379e-05
-2.3291e-05
-5.80005e-05
-1.19029e-05
-6.33239e-05
-6.75124e-10
-6.60521e-05
1.19016e-05
-6.60522e-05
2.32897e-05
-6.33241e-05
3.36786e-05
-5.80008e-05
4.26384e-05
-5.03384e-05
4.98148e-05
-4.06965e-05
5.49435e-05
-2.9514e-05
5.7857e-05
-1.72814e-05
5.84855e-05
-4.51476e-06
5.6853e-05
8.26843e-06
5.30701e-05
2.05677e-05
4.73244e-05
3.1915e-05
3.98712e-05
4.18838e-05
3.10239e-05
5.0093e-05
2.11471e-05
5.62031e-05
1.06529e-05
5.98983e-05
6.0885e-05
-1.28683e-05
7.37548e-05
-2.5552e-05
7.25836e-05
-3.75057e-05
6.81582e-05
-4.82368e-05
6.08255e-05
-5.73071e-05
5.09554e-05
-6.43356e-05
3.89447e-05
-6.90069e-05
2.52402e-05
-7.10831e-05
1.03457e-05
-7.04166e-05
-5.18034e-06
-6.69629e-05
-2.07343e-05
-6.07922e-05
-3.56839e-05
-5.20965e-05
-4.93916e-05
-4.1191e-05
-6.12435e-05
-2.85069e-05
-7.06846e-05
-1.45754e-05
-7.72554e-05
-7.4233e-10
-8.06268e-05
1.45739e-05
-8.06269e-05
2.85054e-05
-7.72557e-05
4.11895e-05
-7.06849e-05
5.20951e-05
-6.1244e-05
6.07909e-05
-4.93922e-05
6.69616e-05
-3.56847e-05
7.04154e-05
-2.07352e-05
7.1082e-05
-5.1814e-06
6.90059e-05
1.03445e-05
6.43347e-05
2.52389e-05
5.73064e-05
3.89433e-05
4.82362e-05
5.09539e-05
3.75053e-05
6.0824e-05
2.55517e-05
6.81566e-05
1.28681e-05
7.2582e-05
7.37531e-05
-1.55246e-05
8.92793e-05
-3.08371e-05
8.78961e-05
-4.52907e-05
8.26119e-05
-5.82997e-05
7.38345e-05
-6.93384e-05
6.19941e-05
-7.7944e-05
4.75503e-05
-8.37265e-05
3.10227e-05
-8.63832e-05
1.30024e-05
-8.57156e-05
-5.84795e-06
-8.16475e-05
-2.48024e-05
-7.42421e-05
-4.30893e-05
-6.37151e-05
-5.99186e-05
-5.04396e-05
-7.4519e-05
-3.49404e-05
-8.61837e-05
-1.78753e-05
-9.43205e-05
-8.15317e-10
-9.85013e-05
1.78737e-05
-9.85013e-05