/*--------------------------------*- C++ -*----------------------------------*\
  =========                 |
  \\      /  F ield         | OpenFOAM: The Open Source CFD Toolbox
   \\    /   O peration     | Website:  https://openfoam.org
    \\  /    A nd           | Version:  9
     \\/     M anipulation  |
\*---------------------------------------------------------------------------*/
FoamFile
{
    format      ascii;
    class       volVectorField;
    location    "0.4";
    object      U;
}
// * * * * * * * * * * * * * * * * * * * * * * * * * * * * * * * * * * * * * //

dimensions      [0 1 -1 0 0 0 0];

internalField   nonuniform List<vector> 
4096
(
(-3.31965e-06 3.3167e-06 0)
(-9.93042e-06 3.26288e-06 0)
(-1.61635e-05 3.06267e-06 0)
(-2.19897e-05 2.6546e-06 0)
(-2.70553e-05 2.20418e-06 0)
(-3.10291e-05 1.65706e-06 0)
(-3.38105e-05 1.0414e-06 0)
(-3.5276e-05 3.81143e-07 0)
(-3.53671e-05 -2.96564e-07 0)
(-3.40776e-05 -9.64253e-07 0)
(-3.14561e-05 -1.59514e-06 0)
(-2.76042e-05 -2.16416e-06 0)
(-2.26722e-05 -2.64884e-06 0)
(-1.68524e-05 -3.03013e-06 0)
(-1.03722e-05 -3.29312e-06 0)
(-3.48459e-06 -3.42753e-06 0)
(3.54144e-06 -3.42813e-06 0)
(1.04316e-05 -3.29494e-06 0)
(1.6917e-05 -3.03316e-06 0)
(2.27445e-05 -2.65304e-06 0)
(2.76867e-05 -2.16945e-06 0)
(3.15509e-05 -1.6013e-06 0)
(3.41865e-05 -9.70865e-07 0)
(3.54913e-05 -3.02944e-07 0)
(3.54153e-05 3.76044e-07 0)
(3.39636e-05 1.03897e-06 0)
(3.11964e-05 1.65895e-06 0)
(2.72278e-05 2.21015e-06 0)
(2.2222e-05 2.66846e-06 0)
(1.63916e-05 3.01193e-06 0)
(1.0004e-05 3.2205e-06 0)
(3.32632e-06 3.27453e-06 0)
(-3.56276e-06 1.0156e-05 0)
(-1.05245e-05 1.00723e-05 0)
(-1.71732e-05 9.33668e-06 0)
(-2.33807e-05 8.19007e-06 0)
(-2.86853e-05 6.78911e-06 0)
(-3.28944e-05 5.10317e-06 0)
(-3.58317e-05 3.20609e-06 0)
(-3.73762e-05 1.1733e-06 0)
(-3.74657e-05 -9.12254e-07 0)
(-3.60943e-05 -2.96643e-06 0)
(-3.33138e-05 -4.90712e-06 0)
(-2.9232e-05 -6.65737e-06 0)
(-2.40076e-05 -8.14814e-06 0)
(-1.78444e-05 -9.3209e-06 0)
(-1.09828e-05 -1.01297e-05 0)
(-3.69045e-06 -1.05431e-05 0)
(3.74799e-06 -1.05448e-05 0)
(1.10423e-05 -1.0135e-05 0)
(1.79079e-05 -9.32958e-06 0)
(2.4077e-05 -8.16015e-06 0)
(2.93089e-05 -6.67242e-06 0)
(3.33998e-05 -4.92458e-06 0)
(3.61902e-05 -2.98513e-06 0)
(3.75718e-05 -9.30359e-07 0)
(3.74921e-05 1.15848e-06 0)
(3.59561e-05 3.19795e-06 0)
(3.30277e-05 5.10536e-06 0)
(2.88273e-05 6.80134e-06 0)
(2.35287e-05 8.21195e-06 0)
(1.73569e-05 9.26972e-06 0)
(1.05946e-05 9.91276e-06 0)
(3.52335e-06 1.00807e-05 0)
(-3.82708e-06 1.73971e-05 0)
(-1.14741e-05 1.71691e-05 0)
(-1.87913e-05 1.59554e-05 0)
(-2.54829e-05 1.41123e-05 0)
(-3.12345e-05 1.16898e-05 0)
(-3.57937e-05 8.78291e-06 0)
(-3.897e-05 5.51158e-06 0)
(-4.06347e-05 2.00858e-06 0)
(-4.07207e-05 -1.584e-06 0)
(-3.92221e-05 -5.12178e-06 0)
(-3.61958e-05 -8.46381e-06 0)
(-3.17586e-05 -1.14777e-05 0)
(-2.60828e-05 -1.40448e-05 0)
(-1.93893e-05 -1.60641e-05 0)
(-1.19389e-05 -1.74567e-05 0)
(-4.02186e-06 -1.8168e-05 0)
(4.05308e-06 -1.81704e-05 0)
(1.19711e-05 -1.74638e-05 0)
(1.94235e-05 -1.60758e-05 0)
(2.61197e-05 -1.40607e-05 0)
(3.17987e-05 -1.14973e-05 0)
(3.62392e-05 -8.48577e-06 0)
(3.92684e-05 -5.14421e-06 0)
(4.07688e-05 -1.60398e-06 0)
(4.06834e-05 1.99491e-06 0)
(3.90177e-05 5.50878e-06 0)
(3.58409e-05 8.79517e-06 0)
(3.12837e-05 1.17175e-05 0)
(2.55345e-05 1.41486e-05 0)
(1.88378e-05 1.59726e-05 0)
(1.14997e-05 1.70821e-05 0)
(3.82477e-06 1.73735e-05 0)
(-4.26499e-06 2.54346e-05 0)
(-1.2798e-05 2.5e-05 0)
(-2.0963e-05 2.33262e-05 0)
(-2.84205e-05 2.06359e-05 0)
(-3.48211e-05 1.70847e-05 0)
(-3.9891e-05 1.28276e-05 0)
(-4.34206e-05 8.04079e-06 0)
(-4.52672e-05 2.91865e-06 0)
(-4.53563e-05 -2.33219e-06 0)
(-4.36822e-05 -7.5017e-06 0)
(-4.03087e-05 -1.23845e-05 0)
(-3.53661e-05 -1.67876e-05 0)
(-2.90463e-05 -2.05377e-05 0)
(-2.15951e-05 -2.34875e-05 0)
(-1.33024e-05 -2.55214e-05 0)
(-4.49126e-06 -2.65599e-05 0)
(4.49501e-06 -2.65624e-05 0)
(1.33063e-05 -2.55288e-05 0)
(2.15991e-05 -2.34995e-05 0)
(2.90503e-05 -2.05538e-05 0)
(3.53696e-05 -1.68067e-05 0)
(4.03109e-05 -1.24048e-05 0)
(4.3682e-05 -7.52069e-06 0)
(4.53522e-05 -2.34623e-06 0)
(4.5258e-05 2.91393e-06 0)
(4.34058e-05 8.04983e-06 0)
(3.98725e-05 1.28533e-05 0)
(3.48034e-05 1.71248e-05 0)
(2.84081e-05 2.06788e-05 0)
(2.09585e-05 2.33459e-05 0)
(1.27952e-05 2.4969e-05 0)
(4.25606e-06 2.53969e-05 0)
(-4.84914e-06 3.44835e-05 0)
(-1.45674e-05 3.38894e-05 0)
(-2.38667e-05 3.16324e-05 0)
(-3.23522e-05 2.7986e-05 0)
(-3.96339e-05 2.31634e-05 0)
(-4.54016e-05 1.73832e-05 0)
(-4.94171e-05 1.08874e-05 0)
(-5.15174e-05 3.94066e-06 0)
(-5.16172e-05 -3.17773e-06 0)
(-4.97107e-05 -1.0184e-05 0)
(-4.58708e-05 -1.68007e-05 0)
(-4.02463e-05 -2.27667e-05 0)
(-3.30556e-05 -2.78475e-05 0)
(-2.45782e-05 -3.18437e-05 0)
(-1.51442e-05 -3.45988e-05 0)
(-5.12091e-06 -3.6005e-05 0)
(5.10128e-06 -3.60072e-05 0)
(1.51241e-05 -3.46054e-05 0)
(2.45571e-05 -3.18542e-05 0)
(3.30326e-05 -2.78611e-05 0)
(4.02206e-05 -2.2782e-05 0)
(4.58412e-05 -1.68156e-05 0)
(4.96759e-05 -1.01956e-05 0)
(5.15762e-05 -3.18227e-06 0)
(5.14697e-05 3.94713e-06 0)
(4.93638e-05 1.09081e-05 0)
(4.5346e-05 1.74186e-05 0)
(3.95816e-05 2.32083e-05 0)
(3.23087e-05 2.80257e-05 0)
(2.38369e-05 3.16417e-05 0)
(1.45529e-05 3.38429e-05 0)
(4.84091e-06 3.44249e-05 0)
(-5.61393e-06 4.48722e-05 0)
(-1.68705e-05 4.40936e-05 0)
(-2.76392e-05 4.11729e-05 0)
(-3.7465e-05 3.64315e-05 0)
(-4.5898e-05 3.01503e-05 0)
(-5.25789e-05 2.26202e-05 0)
(-5.72317e-05 1.41603e-05 0)
(-5.96665e-05 5.11653e-06 0)
(-5.97839e-05 -4.14772e-06 0)
(-5.7577e-05 -1.3264e-05 0)
(-5.31306e-05 -2.1872e-05 0)
(-4.66169e-05 -2.96326e-05 0)
(-3.82893e-05 -3.62413e-05 0)
(-2.84716e-05 -4.14388e-05 0)
(-1.75461e-05 -4.50217e-05 0)
(-5.93827e-06 -4.68498e-05 0)
(5.89979e-06 -4.68516e-05 0)
(1.75069e-05 -4.50268e-05 0)
(2.84307e-05 -4.14467e-05 0)
(3.82458e-05 -3.62509e-05 0)
(4.65698e-05 -2.96426e-05 0)
(5.30788e-05 -2.18799e-05 0)
(5.75196e-05 -1.32671e-05 0)
(5.97204e-05 -4.14272e-06 0)
(5.95975e-05 5.13259e-06 0)
(5.71594e-05 1.41887e-05 0)
(5.25075e-05 2.26589e-05 0)
(4.58331e-05 3.01914e-05 0)
(3.74121e-05 3.64594e-05 0)
(2.76025e-05 4.11647e-05 0)
(1.68522e-05 4.40301e-05 0)
(5.60597e-06 4.47899e-05 0)
(-6.58961e-06 5.69851e-05 0)
(-1.98046e-05 5.59963e-05 0)
(-3.24444e-05 5.23012e-05 0)
(-4.39788e-05 4.62849e-05 0)
(-5.38795e-05 3.83047e-05 0)
(-6.17251e-05 2.87347e-05 0)
(-6.71909e-05 1.79836e-05 0)
(-7.00532e-05 6.49282e-06 0)
(-7.01943e-05 -5.27591e-06 0)
(-6.76059e-05 -1.68548e-05 0)
(-6.2387e-05 -2.77867e-05 0)
(-5.47401e-05 -3.76416e-05 0)
(-4.49626e-05 -4.60331e-05 0)
(-3.34351e-05 -5.26324e-05 0)
(-2.06065e-05 -5.71812e-05 0)
(-6.9765e-06 -5.95017e-05 0)
(6.92391e-06 -5.95029e-05 0)
(2.05531e-05 -5.71846e-05 0)
(3.338e-05 -5.26374e-05 0)
(4.4905e-05 -4.60387e-05 0)
(5.46791e-05 -3.76462e-05 0)
(6.23218e-05 -2.77881e-05 0)
(6.75361e-05 -1.68505e-05 0)
(7.01203e-05 -5.2635e-06 0)
(6.99762e-05 6.51503e-06 0)
(6.71137e-05 1.80152e-05 0)
(6.16518e-05 2.87712e-05 0)
(5.38154e-05 3.83368e-05 0)
(4.39282e-05 4.6297e-05 0)
(3.24106e-05 5.22732e-05 0)
(1.9788e-05 5.59137e-05 0)
(6.5827e-06 5.68816e-05 0)
(-7.81519e-06 7.12786e-05 0)
(-2.34893e-05 7.00431e-05 0)
(-3.84787e-05 6.54343e-05 0)
(-5.21577e-05 5.79155e-05 0)
(-6.39008e-05 4.79329e-05 0)
(-7.32081e-05 3.59571e-05 0)
(-7.96944e-05 2.25024e-05 0)
(-8.30932e-05 8.12259e-06 0)
(-8.32643e-05 -6.60361e-06 0)
(-8.01969e-05 -2.10909e-05 0)
(-7.40083e-05 -3.47675e-05 0)
(-6.49386e-05 -4.70961e-05 0)
(-5.33405e-05 -5.75933e-05 0)
(-3.96656e-05 -6.58482e-05 0)
(-2.44467e-05 -7.15379e-05 0)
(-8.27664e-06 -7.44399e-05 0)
(8.21443e-06 -7.44406e-05 0)
(2.43838e-05 -7.15398e-05 0)
(3.96014e-05 -6.58507e-05 0)
(5.32743e-05 -5.75953e-05 0)
(6.48699e-05 -4.70962e-05 0)
(7.39368e-05 -3.47639e-05 0)
(8.01227e-05 -2.10815e-05 0)
(8.31883e-05 -6.58688e-06 0)
(8.30171e-05 8.14712e-06 0)
(7.9621e-05 2.25328e-05 0)
(7.31414e-05 3.59877e-05 0)
(6.38447e-05 4.79536e-05 0)
(5.21153e-05 5.79117e-05 0)
(3.84515e-05 6.53884e-05 0)
(2.34765e-05 6.99445e-05 0)
(7.81e-06 7.11589e-05 0)
(-9.33889e-06 8.82971e-05 0)
(-2.80696e-05 8.6768e-05 0)
(-4.59797e-05 8.10712e-05 0)
(-6.23244e-05 7.17649e-05 0)
(-7.63568e-05 5.93999e-05 0)
(-8.748e-05 4.45611e-05 0)
(-9.52334e-05 2.7888e-05 0)
(-9.92981e-05 1.00679e-05 0)
(-9.95058e-05 -8.18088e-06 0)
(-9.58429e-05 -2.61329e-05 0)
(-8.84491e-05 -4.30797e-05 0)
(-7.76111e-05 -5.83555e-05 0)
(-6.37503e-05 -7.13617e-05 0)
(-4.74066e-05 -8.15894e-05 0)
(-2.92167e-05 -8.86386e-05 0)
(-9.88959e-06 -9.22336e-05 0)
(9.8215e-06 -9.22339e-05 0)
(2.91482e-05 -8.86393e-05 0)
(4.73373e-05 -8.159e-05 0)
(6.36799e-05 -7.13612e-05 0)
(7.75394e-05 -5.83527e-05 0)
(8.83763e-05 -4.3073e-05 0)
(9.57695e-05 -2.6121e-05 0)
(9.9433e-05 -8.16299e-06 0)
(9.92278e-05 1.00913e-05 0)
(9.51682e-05 2.79139e-05 0)
(8.74231e-05 4.45834e-05 0)
(7.63113e-05 5.94083e-05 0)
(6.22918e-05 7.17461e-05 0)
(4.59604e-05 8.10105e-05 0)
(2.80615e-05 8.66574e-05 0)
(9.33541e-06 8.81663e-05 0)
(-1.12199e-05 0.000108692 0)
(-3.37236e-05 0.00010681 0)
(-5.52393e-05 9.98088e-05 0)
(-7.48738e-05 8.83609e-05 0)
(-9.17312e-05 7.31425e-05 0)
(-0.000105095 5.48745e-05 0)
(-0.000114411 3.43453e-05 0)
(-0.000119297 1.24029e-05 0)
(-0.000119549 -1.00679e-05 0)
(-0.00011515 -3.21731e-05 0)
(-0.000106269 -5.30402e-05 0)
(-9.32486e-05 -7.18495e-05 0)
(-7.65953e-05 -8.78641e-05 0)
(-5.69579e-05 -0.000100457 0)
(-3.51016e-05 -0.000109137 0)
(-1.18782e-05 -0.000113563 0)
(1.18069e-05 -0.000113563 0)
(3.50302e-05 -0.000109137 0)
(5.68863e-05 -0.000100457 0)
(7.65235e-05 -8.78623e-05 0)
(9.31767e-05 -7.18454e-05 0)
(0.000106198 -5.30327e-05 0)
(0.00011508 -3.21613e-05 0)
(0.000119481 -1.00516e-05 0)
(0.000119234 1.24224e-05 0)
(0.000114355 3.43646e-05 0)
(0.000105048 5.4887e-05 0)
(9.16958e-05 7.31388e-05 0)
(7.48503e-05 8.83291e-05 0)
(5.52267e-05 9.97361e-05 0)
(3.37194e-05 0.000106691 0)
(1.1218e-05 0.000108554 0)
(-1.35307e-05 0.000133243 0)
(-4.0669e-05 0.000130936 0)
(-6.66136e-05 0.000122364 0)
(-9.02893e-05 0.000108338 0)
(-0.000110616 8.96857e-05 0)
(-0.000126731 6.72907e-05 0)
(-0.000137966 4.21208e-05 0)
(-0.00014386 1.52163e-05 0)
(-0.000144166 -1.23371e-05 0)
(-0.000138864 -3.94425e-05 0)
(-0.000128155 -6.503e-05 0)
(-0.000112454 -8.80944e-05 0)
(-9.23709e-05 -0.000107732 0)
(-6.8688e-05 -0.000123174 0)
(-4.23283e-05 -0.000133816 0)
(-1.43194e-05 -0.000139244 0)
(1.42466e-05 -0.000139244 0)
(4.22557e-05 -0.000133816 0)
(6.86157e-05 -0.000123173 0)
(9.22992e-05 -0.00010773 0)
(0.000112383 -8.80905e-05 0)
(0.000128086 -6.50235e-05 0)
(0.000138798 -3.94327e-05 0)
(0.000144104 -1.23244e-05 0)
(0.000143804 1.52301e-05 0)
(0.000137918 4.21321e-05 0)
(0.000126693 6.72932e-05 0)
(0.000110589 8.96705e-05 0)
(9.02726e-05 0.000108295 0)
(6.66061e-05 0.000122282 0)
(4.06677e-05 0.000130811 0)
(1.35297e-05 0.000133101 0)
(-1.63596e-05 0.000162893 0)
(-4.91718e-05 0.000160071 0)
(-8.05387e-05 0.000149599 0)
(-0.000109162 0.000132461 0)
(-0.000133736 0.000109662 0)
(-0.000153219 8.22848e-05 0)
(-0.000166803 5.15118e-05 0)
(-0.00017393 1.86158e-05 0)
(-0.000174302 -1.50751e-05 0)
(-0.000167894 -4.82192e-05 0)
(-0.000154948 -7.9508e-05 0)
(-0.000135965 -0.000107712 0)
(-0.000111684 -0.000131725 0)
(-8.30482e-05 -0.000150609 0)
(-5.11752e-05 -0.000163623 0)
(-1.73076e-05 -0.000170261 0)
(1.7234e-05 -0.000170261 0)
(5.11021e-05 -0.000163624 0)
(8.29759e-05 -0.000150608 0)
(0.000111613 -0.000131724 0)
(0.000135896 -0.000107709 0)
(0.000154882 -7.95038e-05 0)
(0.000167832 -4.82131e-05 0)
(0.000174246 -1.50676e-05 0)
(0.00017388 1.86227e-05 0)
(0.000166762 5.15144e-05 0)
(0.000153187 8.22771e-05 0)
(0.000133715 0.000109636 0)
(0.00010915 0.000132408 0)
(8.05343e-05 0.00014951 0)
(4.9172e-05 0.000159942 0)
(1.63594e-05 0.000162748 0)
(-1.9815e-05 0.000198775 0)
(-5.95571e-05 0.000195328 0)
(-9.75471e-05 0.000182558 0)
(-0.000132213 0.000161652 0)
(-0.000161976 0.000133837 0)
(-0.000185572 0.000100431 0)
(-0.000202026 6.2878e-05 0)
(-0.00021066 2.27319e-05 0)
(-0.000211114 -1.83862e-05 0)
(-0.000203355 -5.88389e-05 0)
(-0.000187677 -9.70282e-05 0)
(-0.000164686 -0.000131453 0)
(-0.000135275 -0.000160764 0)
(-0.00010059 -0.000183814 0)
(-6.19824e-05 -0.0001997 0)
(-2.09577e-05 -0.000207802 0)
(2.08835e-05 -0.000207802 0)
(6.19088e-05 -0.000199701 0)
(0.000100518 -0.000183815 0)
(0.000135205 -0.000160765 0)
(0.000164618 -0.000131453 0)
(0.000187613 -9.70275e-05 0)
(0.000203296 -5.88374e-05 0)
(0.000211061 -1.83849e-05 0)
(0.000210615 2.27312e-05 0)
(0.000201989 6.28717e-05 0)
(0.000185545 0.000100413 0)
(0.000161958 0.000133801 0)
(0.000132203 0.00016159 0)
(9.75441e-05 0.000182463 0)
(5.95581e-05 0.000195197 0)
(1.98149e-05 0.000198628 0)
(-2.40287e-05 0.000242263 0)
(-7.22216e-05 0.000238059 0)
(-0.000118288 0.000222502 0)
(-0.000160324 0.00019703 0)
(-0.000196415 0.000163135 0)
(-0.000225029 0.000122424 0)
(-0.000244984 7.66556e-05 0)
(-0.000255457 2.77235e-05 0)
(-0.000256011 -2.23962e-05 0)
(-0.000246606 -7.17071e-05 0)
(-0.000227597 -0.000118261 0)
(-0.000199718 -0.000160227 0)
(-0.000164052 -0.000195961 0)
(-0.000121988 -0.000224061 0)
(-7.5165e-05 -0.000243429 0)
(-2.54102e-05 -0.000253307 0)
(2.53352e-05 -0.000253307 0)
(7.50907e-05 -0.000243431 0)
(0.000121915 -0.000224064 0)
(0.000163981 -0.000195964 0)
(0.000199651 -0.000160231 0)
(0.000227534 -0.000118264 0)
(0.000246548 -7.1711e-05 0)
(0.00025596 -2.24016e-05 0)
(0.000255414 2.77148e-05 0)
(0.00024495 7.66403e-05 0)
(0.000225004 0.000122397 0)
(0.000196398 0.00016309 0)
(0.000160315 0.00019696 0)
(0.000118286 0.000222401 0)
(7.22223e-05 0.000237925 0)
(2.40288e-05 0.000242116 0)
(-2.91616e-05 0.000295022 0)
(-8.76486e-05 0.000289897 0)
(-0.000143554 0.000270958 0)
(-0.000194568 0.000239947 0)
(-0.000238369 0.000198679 0)
(-0.000273098 0.000149107 0)
(-0.00029732 9.33738e-05 0)
(-0.000310036 3.37836e-05 0)
(-0.000310714 -2.72565e-05 0)
(-0.000299305 -8.73148e-05 0)
(-0.000276239 -0.000144018 0)
(-0.000242405 -0.000195136 0)
(-0.000199118 -0.000238663 0)
(-0.000148063 -0.000272894 0)
(-9.12296e-05 -0.000296488 0)
(-3.08363e-05 -0.00030852 0)
(3.07598e-05 -0.000308521 0)
(9.11539e-05 -0.00029649 0)
(0.000147989 -0.000272898 0)
(0.000199047 -0.000238669 0)
(0.000242337 -0.000195143 0)
(0.000276176 -0.000144026 0)
(0.000299248 -8.73247e-05 0)
(0.000310664 -2.7269e-05 0)
(0.000309994 3.37668e-05 0)
(0.000297286 9.33496e-05 0)
(0.000273073 0.000149071 0)
(0.000238353 0.000198626 0)
(0.000194559 0.000239871 0)
(0.000143551 0.000270852 0)
(8.76488e-05 0.000289761 0)
(2.91613e-05 0.000294874 0)
(-3.54094e-05 0.000359068 0)
(-0.000106427 0.000352825 0)
(-0.000174309 0.000329781 0)
(-0.000236253 0.000292049 0)
(-0.000289441 0.000241831 0)
(-0.000331617 0.000181504 0)
(-0.000361036 0.000113675 0)
(-0.000376486 4.11476e-05 0)
(-0.000377318 -3.31498e-05 0)
(-0.000363472 -0.000106257 0)
(-0.000335469 -0.000175284 0)
(-0.000294386 -0.000237515 0)
(-0.00024182 -0.000290508 0)
(-0.000179817 -0.000332184 0)
(-0.000110793 -0.000360911 0)
(-3.74445e-05 -0.000375561 0)
(3.73658e-05 -0.000375563 0)
(0.000110716 -0.000360914 0)
(0.000179741 -0.000332191 0)
(0.000241747 -0.000290517 0)
(0.000294317 -0.000237527 0)
(0.000335405 -0.000175298 0)
(0.000363414 -0.000106273 0)
(0.000377267 -3.31696e-05 0)
(0.000376443 4.11226e-05 0)
(0.000361002 0.000113643 0)
(0.000331591 0.00018146 0)
(0.000289423 0.000241769 0)
(0.000236243 0.000291965 0)
(0.000174305 0.000329671 0)
(0.000106426 0.000352687 0)
(3.54091e-05 0.000358919 0)
(-4.30105e-05 0.000436851 0)
(-0.000129272 0.000429249 0)
(-0.000211726 0.000401221 0)
(-0.00028697 0.000355327 0)
(-0.000351581 0.000294243 0)
(-0.00040282 0.000220859 0)
(-0.000438568 0.000138342 0)
(-0.000457349 5.01027e-05 0)
(-0.000458375 -4.02967e-05 0)
(-0.000441568 -0.000129254 0)
(-0.000407559 -0.000213253 0)
(-0.000357658 -0.000288987 0)
(-0.0002938 -0.000353482 0)
(-0.000218471 -0.000404206 0)
(-0.000134609 -0.00043917 0)
(-4.54891e-05 -0.000457002 0)
(4.54073e-05 -0.000457004 0)
(0.000134528 -0.000439175 0)
(0.000218392 -0.000404215 0)
(0.000293724 -0.000353494 0)
(0.000357586 -0.000289003 0)
(0.000407493 -0.000213272 0)
(0.000441508 -0.000129277 0)
(0.000458322 -4.0324e-05 0)
(0.000457304 5.00695e-05 0)
(0.000438532 0.000138301 0)
(0.000402792 0.000220806 0)
(0.000351562 0.000294173 0)
(0.000286957 0.000355236 0)
(0.00021172 0.000401106 0)
(0.00012927 0.000429108 0)
(4.30094e-05 0.000436699 0)
(-5.22542e-05 0.000531342 0)
(-0.000157054 0.000522089 0)
(-0.000257231 0.000488008 0)
(-0.000348651 0.000432203 0)
(-0.00042716 0.000357924 0)
(-0.000489428 0.000268682 0)
(-0.00053288 0.000168325 0)
(-0.000555721 6.09995e-05 0)
(-0.000556989 -4.89631e-05 0)
(-0.000536587 -0.000157181 0)
(-0.000495278 -0.000259376 0)
(-0.00043465 -0.000351522 0)
(-0.000357054 -0.000429997 0)
(-0.000265511 -0.000491721 0)
(-0.000163593 -0.000534269 0)
(-5.52797e-05 -0.00055597 0)
(5.51938e-05 -0.000555972 0)
(0.000163508 -0.000534276 0)
(0.000265429 -0.000491732 0)
(0.000356975 -0.000430013 0)
(0.000434575 -0.000351542 0)
(0.000495208 -0.0002594 0)
(0.000536524 -0.000157211 0)
(0.000556933 -4.8998e-05 0)
(0.000555673 6.09579e-05 0)
(0.000532841 0.000168275 0)
(0.000489398 0.00026862 0)
(0.000427138 0.000357847 0)
(0.000348637 0.000432106 0)
(0.000257223 0.000487887 0)
(0.000157051 0.000521945 0)
(5.22531e-05 0.000531187 0)
(-6.34925e-05 0.000646148 0)
(-0.000190832 0.00063489 0)
(-0.000312557 0.000593459 0)
(-0.000423648 0.000525619 0)
(-0.00051906 0.000435315 0)
(-0.000594747 0.000326811 0)
(-0.000647577 0.000204782 0)
(-0.000675365 7.42666e-05 0)
(-0.000676938 -5.94692e-05 0)
(-0.000652174 -0.000191097 0)
(-0.000601993 -0.00031541 0)
(-0.000528323 -0.00042751 0)
(-0.000434018 -0.000522987 0)
(-0.00032275 -0.000598088 0)
(-0.000198861 -0.00064986 0)
(-6.71936e-05 -0.000676266 0)
(6.71025e-05 -0.000676269 0)
(0.000198771 -0.000649868 0)
(0.000322663 -0.000598102 0)
(0.000433934 -0.000523007 0)
(0.000528243 -0.000427535 0)
(0.000601919 -0.000315441 0)
(0.000652106 -0.000191133 0)
(0.000676878 -5.95119e-05 0)
(0.000675313 7.42164e-05 0)
(0.000647534 0.000204723 0)
(0.000594713 0.00032674 0)
(0.000519035 0.000435229 0)
(0.000423631 0.000525514 0)
(0.000312547 0.000593332 0)
(0.000190827 0.000634742 0)
(6.34904e-05 0.00064599 0)
(-7.71525e-05 0.00078565 0)
(-0.000231888 0.000771959 0)
(-0.000379808 0.000721602 0)
(-0.000514816 0.000639147 0)
(-0.000630783 0.000529381 0)
(-0.000722794 0.00039748 0)
(-0.000787039 0.000249123 0)
(-0.000820858 9.04289e-05 0)
(-0.000822819 -7.22002e-05 0)
(-0.000792763 -0.000232285 0)
(-0.000731805 -0.000383493 0)
(-0.00064228 -0.000519859 0)
(-0.000527656 -0.000636016 0)
(-0.000392394 -0.00072739 0)
(-0.000241775 -0.000790383 0)
(-8.16903e-05 -0.000822515 0)
(8.15928e-05 -0.000822518 0)
(0.000241679 -0.000790393 0)
(0.0003923 -0.000727407 0)
(0.000527566 -0.00063604 0)
(0.000642195 -0.00051989 0)
(0.000731725 -0.00038353 0)
(0.000792691 -0.000232329 0)
(0.000822754 -7.22511e-05 0)
(0.000820802 9.037e-05 0)
(0.000786992 0.000249054 0)
(0.000722756 0.0003974 0)
(0.000630754 0.000529286 0)
(0.000514795 0.000639034 0)
(0.000379795 0.000721469 0)
(0.000231882 0.000771805 0)
(7.71505e-05 0.000785488 0)
(-9.37527e-05 0.000955169 0)
(-0.000281783 0.000938522 0)
(-0.000461538 0.00087733 0)
(-0.00062562 0.000777129 0)
(-0.000766582 0.000643728 0)
(-0.000878451 0.000483409 0)
(-0.000956594 0.000303066 0)
(-0.000997767 0.00011013 0)
(-0.00100022 -8.76187e-05 0)
(-0.000963753 -0.000282303 0)
(-0.000889706 -0.000466216 0)
(-0.00078091 -0.0006321 0)
(-0.000641578 -0.000773416 0)
(-0.00047713 -0.000884591 0)
(-0.000293991 -0.000961242 0)
(-9.93298e-05 -0.00100034 0)
(9.92249e-05 -0.00100034 0)
(0.000293888 -0.000961254 0)
(0.000477029 -0.000884612 0)
(0.00064148 -0.000773444 0)
(0.000780818 -0.000632136 0)
(0.000889619 -0.000466259 0)
(0.000963674 -0.000282354 0)
(0.00100015 -8.7678e-05 0)
(0.000997705 0.000110062 0)
(0.000956541 0.000302988 0)
(0.000878409 0.000483319 0)
(0.000766549 0.000643624 0)
(0.000625596 0.000777008 0)
(0.000461523 0.00087719 0)
(0.000281775 0.000938362 0)
(9.37495e-05 0.000955001 0)
(-0.000113922 0.00116116 0)
(-0.000342405 0.00114093 0)
(-0.000560848 0.00106658 0)
(-0.000760267 0.00094484 0)
(-0.000931621 0.000782741 0)
(-0.00106765 0.000587908 0)
(-0.00116271 0.000368706 0)
(-0.00121286 0.000134161 0)
(-0.00121594 -0.000106278 0)
(-0.00117171 -0.000343032 0)
(-0.00108177 -0.000566725 0)
(-0.000949559 -0.000768522 0)
(-0.000780183 -0.000940455 0)
(-0.000580235 -0.00107573 0)
(-0.00035753 -0.00116901 0)
(-0.000120795 -0.00121659 0)
(0.000120681 -0.0012166 0)
(0.000357418 -0.00116902 0)
(0.000580125 -0.00107576 0)
(0.000780077 -0.000940488 0)
(0.000949458 -0.000768564 0)
(0.00108168 -0.000566776 0)
(0.00117162 -0.000343091 0)
(0.00121587 -0.000106346 0)
(0.00121279 0.000134083 0)
(0.00116265 0.000368618 0)
(0.0010676 0.000587808 0)
(0.000931583 0.000782627 0)
(0.00076024 0.000944709 0)
(0.00056083 0.00106644 0)
(0.000342395 0.00114076 0)
(0.000113919 0.00116099 0)
(-0.000138423 0.00141146 0)
(-0.000416049 0.00138688 0)
(-0.000681497 0.00129658 0)
(-0.000923862 0.00114869 0)
(-0.00113216 0.000951751 0)
(-0.00129758 0.000715006 0)
(-0.00141325 0.000448602 0)
(-0.00147435 0.000163494 0)
(-0.00147826 -0.000128839 0)
(-0.00142463 -0.000416753 0)
(-0.0013154 -0.000688839 0)
(-0.00115474 -0.000934337 0)
(-0.000948832 -0.00114354 0)
(-0.000705702 -0.00130817 0)
(-0.000434856 -0.00142169 0)
(-0.000146919 -0.0014796 0)
(0.000146795 -0.00147961 0)
(0.000434734 -0.0014217 0)
(0.000705583 -0.00130819 0)
(0.000948717 -0.00114358 0)
(0.00115463 -0.000934385 0)
(0.0013153 -0.000688896 0)
(0.00142453 -0.00041682 0)
(0.00147817 -0.000128917 0)
(0.00147427 0.000163406 0)
(0.00141318 0.000448504 0)
(0.00129753 0.000714895 0)
(0.00113212 0.000951626 0)
(0.00092383 0.00114855 0)
(0.000681476 0.00129642 0)
(0.000416037 0.00138671 0)
(0.000138419 0.00141128 0)
(-0.00016818 0.00171559 0)
(-0.000505492 0.00168574 0)
(-0.00082804 0.00157608 0)
(-0.00112259 0.00139646 0)
(-0.00137582 0.00115724 0)
(-0.00157699 0.000869612 0)
(-0.00171776 0.000545878 0)
(-0.00179224 0.00019933 0)
(-0.00179722 -0.000156087 0)
(-0.00173223 -0.000506219 0)
(-0.00159961 -0.000837185 0)
(-0.00140438 -0.00113588 0)
(-0.00115406 -0.00139046 0)
(-0.000858404 -0.00159083 0)
(-0.000528975 -0.00172902 0)
(-0.000178717 -0.00179952 0)
(0.000178581 -0.00179953 0)
(0.000528841 -0.00172904 0)
(0.000858273 -0.00159086 0)
(0.00115394 -0.0013905 0)
(0.00140426 -0.00113593 0)
(0.00159949 -0.000837251 0)
(0.00173212 -0.000506296 0)
(0.00179712 -0.000156174 0)
(0.00179216 0.000199232 0)
(0.00171769 0.000545767 0)
(0.00157693 0.000869489 0)
(0.00137577 0.00115711 0)
(0.00112255 0.00139631 0)
(0.000828014 0.00157591 0)
(0.000505478 0.00168556 0)
(0.000168176 0.0017154 0)
(-0.000204311 0.00208508 0)
(-0.000614098 0.00204885 0)
(-0.001006 0.00191572 0)
(-0.00136395 0.00169763 0)
(-0.00167179 0.0014071 0)
(-0.00191647 0.00105771 0)
(-0.00208783 0.00066435 0)
(-0.00217868 0.000243156 0)
(-0.00218505 -0.000188949 0)
(-0.00210636 -0.000614758 0)
(-0.00194537 -0.00101738 0)
(-0.00170815 -0.00138084 0)
(-0.00140385 -0.00169069 0)
(-0.00104429 -0.00193462 0)
(-0.000643556 -0.00210287 0)
(-0.00021743 -0.00218871 0)
(0.000217281 -0.00218872 0)
(0.000643409 -0.00210289 0)
(0.00104414 -0.00193465 0)
(0.00140371 -0.00169074 0)
(0.00170802 -0.0013809 0)
(0.00194524 -0.00101745 0)
(0.00210624 -0.000614844 0)
(0.00218495 -0.000189047 0)
(0.00217858 0.000243046 0)
(0.00208775 0.000664228 0)
(0.0019164 0.00105757 0)
(0.00167173 0.00140695 0)
(0.00136391 0.00169746 0)
(0.00100597 0.00191554 0)
(0.000614082 0.00204866 0)
(0.000204305 0.00208488 0)
(-0.00024817 0.00253393 0)
(-0.000745937 0.00248998 0)
(-0.00122204 0.00232841 0)
(-0.00165702 0.00206367 0)
(-0.00203125 0.00171092 0)
(-0.00232888 0.00128658 0)
(-0.00253753 0.000808694 0)
(-0.00264841 0.000296814 0)
(-0.00265664 -0.000228515 0)
(-0.00256142 -0.000746379 0)
(-0.00236606 -0.00123621 0)
(-0.00207787 -0.00167855 0)
(-0.00170792 -0.00205577 0)
(-0.00127061 -0.00235278 0)
(-0.000783084 -0.00255769 0)
(-0.000264575 -0.00266226 0)
(0.000264411 -0.00266226 0)
(0.000782923 -0.00255772 0)
(0.00127045 -0.00235282 0)
(0.00170777 -0.00205582 0)
(0.00207772 -0.00167862 0)
(0.00236592 -0.0012363 0)
(0.00256129 -0.000746475 0)
(0.00265653 -0.000228624 0)
(0.00264831 0.000296692 0)
(0.00253744 0.000808559 0)
(0.00232881 0.00128643 0)
(0.00203119 0.00171076 0)
(0.00165698 0.00206349 0)
(0.00122201 0.00232822 0)
(0.000745918 0.00248978 0)
(0.000248164 0.00253372 0)
(-0.00030139 0.0030791 0)
(-0.000905926 0.00302582 0)
(-0.00148425 0.00282981 0)
(-0.00201279 0.00250855 0)
(-0.00246772 0.00208037 0)
(-0.0028298 0.00156512 0)
(-0.00308394 0.000984636 0)
(-0.00321937 0.000362602 0)
(-0.00323009 -0.000276052 0)
(-0.00311499 -0.000905907 0)
(-0.00287799 -0.00150193 0)
(-0.00252792 -0.00204036 0)
(-0.00207818 -0.0024997 0)
(-0.00154625 -0.00286148 0)
(-0.000953045 -0.00311112 0)
(-0.000322006 -0.00323853 0)
(0.000321826 -0.00323854 0)
(0.000952867 -0.00311115 0)
(0.00154608 -0.00286152 0)
(0.00207801 -0.00249976 0)
(0.00252776 -0.00204044 0)
(0.00287784 -0.00150202 0)
(0.00311484 -0.000906014 0)
(0.00322996 -0.000276174 0)
(0.00321926 0.000362466 0)
(0.00308383 0.000984486 0)
(0.00282972 0.00156495 0)
(0.00246766 0.00208019 0)
(0.00201274 0.00250836 0)
(0.00148422 0.0028296 0)
(0.000905905 0.0030256 0)
(0.000301382 0.00307887 0)
(-0.000365948 0.00374112 0)
(-0.0011 0.00367659 0)
(-0.00180238 0.00343891 0)
(-0.00244453 0.00304922 0)
(-0.00299757 0.00252965 0)
(-0.0034381 0.00190418 0)
(-0.00374775 0.0011992 0)
(-0.00391334 0.000443393 0)
(-0.00392739 -0.000333017 0)
(-0.00378843 -0.00109914 0)
(-0.00350106 -0.00182447 0)
(-0.0030759 -0.00248005 0)
(-0.00252915 -0.00303955 0)
(-0.00188208 -0.00348038 0)
(-0.00116016 -0.00378465 0)
(-0.000391997 -0.00393996 0)
(0.000391799 -0.00393997 0)
(0.00115996 -0.00378468 0)
(0.00188189 -0.00348043 0)
(0.00252897 -0.00303962 0)
(0.00307572 -0.00248013 0)
(0.0035009 -0.00182457 0)
(0.00378827 -0.00109925 0)
(0.00392725 -0.000333153 0)
(0.00391321 0.000443242 0)
(0.00374764 0.00119904 0)
(0.00343801 0.001904 0)
(0.00299749 0.00252946 0)
(0.00244447 0.00304901 0)
(0.00180234 0.00343869 0)
(0.00109998 0.00367635 0)
(0.00036594 0.00374088 0)
(-0.000444219 0.00454488 0)
(-0.00133533 0.00446679 0)
(-0.0021882 0.00417873 0)
(-0.00296827 0.00370625 0)
(-0.00364055 0.00307604 0)
(-0.00417663 0.00231701 0)
(-0.00455408 0.00146104 0)
(-0.00475674 0.000542795 0)
(-0.00477533 -0.000401063 0)
(-0.00460781 -0.001333 0)
(-0.00425957 -0.00221588 0)
(-0.00374331 -0.00301431 0)
(-0.00307865 -0.00369608 0)
(-0.00229142 -0.00423348 0)
(-0.00141265 -0.00460452 0)
(-0.000477336 -0.00479395 0)
(0.000477118 -0.00479396 0)
(0.00141244 -0.00460455 0)
(0.0022912 -0.00423353 0)
(0.00307844 -0.00369616 0)
(0.00374311 -0.00301441 0)
(0.00425939 -0.00221599 0)
(0.00460764 -0.00133313 0)
(0.00477517 -0.000401213 0)
(0.0047566 0.000542629 0)
(0.00455395 0.00146086 0)
(0.00417652 0.00231681 0)
(0.00364046 0.00307583 0)
(0.0029682 0.00370602 0)
(0.00218815 0.00417849 0)
(0.0013353 0.00446653 0)
(0.000444208 0.00454462 0)
(-0.000539067 0.00552045 0)
(-0.0016205 0.00542604 0)
(-0.00265585 0.00507717 0)
(-0.00360332 0.00450463 0)
(-0.00442053 0.00374058 0)
(-0.00507299 0.00281981 0)
(-0.00553332 0.00178078 0)
(-0.00578169 0.00066537 0)
(-0.00580649 -0.000482019 0)
(-0.00560491 -0.00161578 0)
(-0.00518319 -0.00269067 0)
(-0.00455648 -0.00366342 0)
(-0.00374849 -0.00449456 0)
(-0.0027906 -0.00515004 0)
(-0.00172066 -0.00560278 0)
(-0.00058145 -0.00583398 0)
(0.000581209 -0.005834 0)
(0.00172042 -0.00560282 0)
(0.00279036 -0.0051501 0)
(0.00374826 -0.00449465 0)
(0.00455626 -0.00366353 0)
(0.00518298 -0.00269079 0)
(0.00560472 -0.00161593 0)
(0.00580631 -0.000482184 0)
(0.00578153 0.000665186 0)
(0.00553318 0.00178058 0)
(0.00507287 0.00281959 0)
(0.00442043 0.00374034 0)
(0.00360324 0.00450438 0)
(0.00265579 0.0050769 0)
(0.00162047 0.00542576 0)
(0.000539057 0.00552017 0)
(-0.000653923 0.00670416 0)
(-0.00196588 0.00659017 0)
(-0.00322237 0.00616797 0)
(-0.00437293 0.00547464 0)
(-0.00536628 0.00454884 0)
(-0.00616054 0.0034324 0)
(-0.0067223 0.00217157 0)
(-0.00702712 0.000816908 0)
(-0.00706049 -0.000577847 0)
(-0.00681849 -0.00195731 0)
(-0.0063082 -0.00326631 0)
(-0.00554767 -0.00445195 0)
(-0.00456548 -0.00546575 0)
(-0.00339973 -0.00626578 0)
(-0.00209664 -0.00681863 0)
(-0.000708561 -0.00710104 0)
(0.000708295 -0.00710105 0)
(0.00209637 -0.00681867 0)
(0.00339947 -0.00626585 0)
(0.00456522 -0.00546584 0)
(0.00554743 -0.00445207 0)
(0.00630797 -0.00326645 0)
(0.00681827 -0.00195747 0)
(0.00706029 -0.00057803 0)
(0.00702694 0.000816705 0)
(0.00672214 0.00217135 0)
(0.00616041 0.00343216 0)
(0.00536618 0.00454859 0)
(0.00437284 0.00547437 0)
(0.0032223 0.00616768 0)
(0.00196584 0.00658987 0)
(0.000653909 0.00670386 0)
(-0.000792902 0.00813986 0)
(-0.00238383 0.00800243 0)
(-0.00390815 0.00749196 0)
(-0.00530501 0.00665304 0)
(-0.00651241 0.00553201 0)
(-0.00747952 0.00417903 0)
(-0.00816552 0.00264967 0)
(-0.00854029 0.00100482 0)
(-0.00858556 -0.000690555 0)
(-0.00829584 -0.0023692 0)
(-0.00767902 -0.00396383 0)
(-0.00675648 -0.00540967 0)
(-0.00556258 -0.00664709 0)
(-0.00414359 -0.00762434 0)
(-0.00255596 -0.00830005 0)
(-0.000863883 -0.00864533 0)
(0.00086359 -0.00864534 0)
(0.00255567 -0.00830009 0)
(0.00414331 -0.00762441 0)
(0.0055623 -0.00664719 0)
(0.00675621 -0.0054098 0)
(0.00767877 -0.00396399 0)
(0.0082956 -0.00236937 0)
(0.00858534 -0.000690756 0)
(0.0085401 0.00100459 0)
(0.00816535 0.00264943 0)
(0.00747937 0.00417877 0)
(0.00651229 0.00553173 0)
(0.00530492 0.00665274 0)
(0.00390808 0.00749165 0)
(0.00238379 0.0080021 0)
(0.00079289 0.00813953 0)
(-0.000960909 0.00988036 0)
(-0.00288915 0.00971498 0)
(-0.0047376 0.00909847 0)
(-0.00643299 0.00808434 0)
(-0.00790046 0.00672803 0)
(-0.00907834 0.00508948 0)
(-0.00991677 0.00323528 0)
(-0.0103785 0.00123863 0)
(-0.0104404 -0.000822021 0)
(-0.0100947 -0.00286506 0)
(-0.00935012 -0.00480841 0)
(-0.00823161 -0.00657261 0)
(-0.00678046 -0.00808419 0)
(-0.00505283 -0.00927907 0)