/*--------------------------------*- C++ -*----------------------------------*\
  =========                 |
  \\      /  F ield         | OpenFOAM: The Open Source CFD Toolbox
   \\    /   O peration     | Website:  https://openfoam.org
    \\  /    A nd           | Version:  9
     \\/     M anipulation  |
\*---------------------------------------------------------------------------*/
FoamFile
{
    format      ascii;
    class       volScalarField;
    location    "18";
    object      p;
}
// * * * * * * * * * * * * * * * * * * * * * * * * * * * * * * * * * * * * * //

dimensions      [0 2 -2 0 0 0 0];

internalField   nonuniform List<scalar> 
400
(
1.2695427e-06
-0.00067135689
-0.0013836887
-0.0019409048
-0.0022180657
-0.0021544499
-0.0017256604
-0.00092402
0.00023761012
0.0017095656
0.0033893888
0.0051142348
0.0066754733
0.0078511004
0.0084604509
0.0084258667
0.0078157377
0.0068470231
0.0058639119
0.0053015943
0.000659191
-3.9066478e-05
-0.00056809782
-0.00093895106
-0.0011090715
-0.0010380146
-0.00070378024
-9.3452588e-05
0.00079124437
0.0019183525
0.0032117462
0.0045568466
0.0057840951
0.0067184091
0.0072166383
0.0072168438
0.0067723938
0.0060553297
0.0053131733
0.0047411757
0.0014249276
0.0004420195
-0.00011512285
-0.00045165613
-0.00061310002
-0.00058297267
-0.00034461184
0.00012182724
0.00083063232
0.0017721341
0.0028965412
0.0041004157
0.0052304901
0.0061132427
0.0065961922
0.0066000778
0.006158265
0.0054241538
0.0045964808
0.0037510227
0.0020153019
0.00068297992
1.8185919e-05
-0.00035731641
-0.00056987225
-0.00062472286
-0.00050807684
-0.00018846504
0.00037079849
0.0011867706
0.0022323401
0.0034198618
0.0045937924
0.0055593687
0.006126015
0.0061690956
0.0056862619
0.0048198108
0.0037501609
0.0024765568
0.0021683048
0.00049738521
-0.00029485183
-0.00074715786
-0.0010565321
-0.0012433436
-0.001290598
-0.0011489333
-0.00075249756
-5.042082e-05
0.0009597643
0.0022130301
0.0035474279
0.0047353475
0.005524518
0.0057125942
0.0052320811
0.0042045158
0.0028092216
0.00098713115
0.0016550271
-0.00031315272
-0.001237304
-0.0017976488
-0.002250789
-0.0026257682
-0.002896185
-0.0029883558
-0.0027995609
-0.0022345271
-0.0012478684
0.00013412783
0.0017478213
0.0033301942
0.0045446472
0.0050687485
0.0047204998
0.0035692995
0.0017928314
-0.0007225062
0.00028825402
-0.001918073
-0.0029713286
-0.0036695089
-0.0043181434
-0.0049507016
-0.0055272398
-0.0059446959
-0.0060554175
-0.0057035555
-0.0047717591
-0.0032547543
-0.0012626761
0.00091084232
0.0028266106
0.0039901815
0.0040283867
0.0028910453
0.0007188465
-0.0026768139
-0.0020748896
-0.0044494016
-0.0056248297
-0.0064901065
-0.0073903596
-0.0083627689
-0.0093534464
-0.010227832
-0.010786603
-0.010800164
-0.01005852
-0.0084569184
-0.0060360725
-0.0030787796
-0.00012217441
0.0021164761
0.0029674969
0.0021392044
-0.00036231605
-0.004868644
-0.0055221802
-0.0079899207
-0.0092755378
-0.010331126
-0.011534928
-0.012931828
-0.014458537
-0.01595157
-0.017157206
-0.017760394
-0.017432232
-0.015913608
-0.013117268
-0.0092464037
-0.0048940836
-0.0010255305
0.0012735462
0.001281717
-0.0013299834
-0.0071974485
-0.010074376
-0.012562422
-0.013933806
-0.015180834
-0.01671475
-0.018598406
-0.020769316
-0.023043211
-0.025115542
-0.026579767
-0.026962519
-0.025806072
-0.022839004
-0.018068166
-0.012045338
-0.0059467811
-0.0013660871
0.00030489694
-0.001942994
-0.0093777936
-0.015681851
-0.018129231
-0.019534213
-0.020923141
-0.022753577
-0.025125082
-0.027991498
-0.031160166
-0.034284587
-0.036869491
-0.038286551
-0.037836579
-0.03505842
-0.029594466
-0.021816074
-0.012979817
-0.0051798615
-0.00071113988
-0.0017598232
-0.01078774
-0.022239883
-0.024609376
-0.025941817
-0.027330879
-0.029319585
-0.032074003
-0.03558299
-0.039657965
-0.043919936
-0.047793496
-0.050522168
-0.05122856
-0.04894916
-0.043136268
-0.033762321
-0.021920313
-0.010031529
-0.0014106759
-5.4563131e-06
-0.010221207
-0.029637011
-0.031919846
-0.032974651
-0.034075537
-0.035934729
-0.038826101
-0.042789481
-0.047644746
-0.052983091
-0.058155733
-0.062276247
-0.064257667
-0.062867654
-0.057105198
-0.046470343
-0.031643301
-0.015032678
-0.00085975473
0.0046509922
-0.0055174734
-0.037861466
-0.040044229
-0.040435892
-0.040748134
-0.04201032
-0.044647765
-0.048752193
-0.054137378
-0.060348806
-0.066657802
-0.072053116
-0.075260978
-0.074804558
-0.06926309
-0.057622767
-0.039956535
-0.018243475
0.0027931308
0.014448905
0.006910994
-0.047225922
-0.049130043
-0.048136413
-0.046878108
-0.046901087
-0.048793796
-0.052662727
-0.058269776
-0.06506934
-0.072224984
-0.078588835
-0.082705797
-0.082874347
-0.077304313
-0.064519608
-0.04393121
-0.016744631
0.012506074
0.032941722
0.032411559
-0.058892251
-0.059635766
-0.055880101
-0.051937347
-0.049968469
-0.050625599
-0.053923712
-0.059489728
-0.0666057
-0.074278897
-0.081184912
-0.085673665
-0.085826857
-0.079518196
-0.064873
-0.040686845
-0.0072389097
0.032141289
0.064983344
0.077750841
-0.076222405
-0.07261006
-0.063512989
-0.055432439
-0.050721974
-0.049778072
-0.052308127
-0.057659413
-0.064886281
-0.072769169
-0.079773712
-0.08403165
-0.08338743
-0.075345792
-0.057600528
-0.028373818
0.012934124
0.065397323
0.11555238
0.15150697
-0.10808882
-0.089553312
-0.071231398
-0.057230933
-0.049069955
-0.046327497
-0.048073754
-0.053198271
-0.060429639
-0.068290572
-0.075022216
-0.078522275
-0.076385232
-0.065806972
-0.043863859
-0.0078177247
0.044393828
0.11299817
0.18838052
0.27186079
-0.17684282
-0.1082872
-0.076200654
-0.054649784
-0.042990827
-0.038995913
-0.040567555
-0.045924209
-0.053437
-0.061433452
-0.068022732
-0.070958189
-0.06754763
-0.054737266
-0.029147271
0.013564242
0.078146988
0.17006411
0.2894952
0.47421802
-0.37208091
-0.12470625
-0.054971431
-0.031961293
-0.022062298
-0.020298766
-0.024356899
-0.031954559
-0.041257368
-0.050636238
-0.05831218
-0.062183061
-0.059778802
-0.048054057
-0.022656779
0.021475085
0.092818957
0.21015268
0.40288826
0.77640916
)
;

boundaryField
{
    movingWall
    {
        type            zeroGradient;
    }
    fixedWalls
    {
        type            zeroGradient;
    }
    frontAndBack
    {
        type            empty;
    }
}


// ************************************************************************* //
