/*--------------------------------*- C++ -*----------------------------------*\
  =========                 |
  \\      /  F ield         | OpenFOAM: The Open Source CFD Toolbox
   \\    /   O peration     | Website:  https://openfoam.org
    \\  /    A nd           | Version:  9
     \\/     M anipulation  |
\*---------------------------------------------------------------------------*/
FoamFile
{
    format      ascii;
    class       surfaceScalarField;
    location    "18";
    object      phi;
}
// * * * * * * * * * * * * * * * * * * * * * * * * * * * * * * * * * * * * * //

dimensions      [0 3 -1 0 0 0 0];

internalField   nonuniform List<scalar> 
760
(
1.2692125e-05
-1.2706889e-05
-2.872808e-05
4.1420195e-05
-0.00012228616
9.3558062e-05
-0.00025037649
0.00012809031
-0.00039603955
0.00014566304
-0.00054533954
0.00014929998
-0.00068620494
0.00014086538
-0.00080681303
0.00012060807
-0.00089486517
8.8052132e-05
-0.00093830089
4.34357e-05
-0.00092718918
-1.1111713e-05
-0.00085678771
-7.0401482e-05
-0.00073037171
-0.00012641602
-0.00056130402
-0.00016906769
-0.00037274234
-0.00018856168
-0.00019447199
-0.00017827037
-5.6529247e-05
-0.00013794275
1.9605237e-05
-7.6134491e-05
3.0406234e-05
-1.0801002e-05
3.0406228e-05
-4.3182941e-05
3.0476043e-05
-0.00020454941
0.00020278664
-0.00046827725
0.00035728588
-0.00080062122
0.00046043425
-0.0011672208
0.00051226257
-0.001536277
0.0005183562
-0.0018780171
0.00048260539
-0.0021634421
0.00040603309
-0.0023642871
0.00028889708
-0.002455092
0.00013424065
-0.0024178995
-4.8304305e-05
-0.0022451448
-0.00024315619
-0.0019473844
-0.00042417635
-0.001554345
-0.00056210715
-0.0011142447
-0.00062866196
-0.00068743863
-0.00060507645
-0.00033451736
-0.00049086404
-0.00010090124
-0.00030975062
-1.5563227e-06
-0.00011014593
2.8849905e-05
-0.00011001587
0.00014049189
-0.00040298523
0.00049575597
-0.00083128966
0.00078559028
-0.0013454567
0.00097460125
-0.0018983727
0.0010651786
-0.0024462925
0.0010662759
-0.0029476904
0.00098400334
-0.0033622371
0.00082057978
-0.003651488
0.00057814793
-0.0037819153
0.00026466789
-0.0037294434
-0.00010077612
-0.0034854741
-0.00048712552
-0.0030629939
-0.00084665657
-0.0024997802
-0.0011253208
-0.0018580899
-0.0012703523
-0.0012180611
-0.0012451053
-0.00066370019
-0.0010452249
-0.00026308091
-0.0007103699
-4.7957587e-05
-0.00032526926
-1.9107677e-05
-0.00017341742
0.0003139093
-0.00059321651
0.00091555503
-0.0011775464
0.0013699201
-0.0018581388
0.0016551937
-0.0025765943
0.001783634
-0.0032809164
0.001770598
-0.0039223374
0.0016254244
-0.0044536338
0.0013518761
-0.0048297336
0.00095424773
-0.0050107091
0.00044564339
-0.004966755
-0.00014473017
-0.0046839828
-0.00076989775
-0.0041719677
-0.0013586716
-0.0034688264
-0.0018284621
-0.0026437945
-0.0020953842
-0.0017930659
-0.0020958338
-0.0010257809
-0.0018125099
-0.00044018951
-0.0012959612
-9.6720174e-05
-0.00066873858
-0.00011582784
-0.00022976436
0.00054367365
-0.00076497414
0.0014507648
-0.0014912947
0.0020962407
-0.0023222588
0.0024861577
-0.0031897556
0.0026511308
-0.004036351
0.0026171935
-0.0048094949
0.0023985683
-0.0054583739
0.0020007551
-0.0059335667
0.0014294405
-0.0061892002
0.00070127695
-0.0061878104
-0.00014611999
-0.0059050346
-0.0010526735
-0.0053399456
-0.0019237606
-0.0045227346
-0.0026456731
-0.0035226926
-0.0030954262
-0.0024496165
-0.0031689099
-0.0014424344
-0.002819692
-0.00064118766
-0.0020972079
-0.00014882791
-0.0011610983
-0.00026465573
-0.00027726085
0.00082093449
-0.00091143067
0.0020849346
-0.0017605135
0.0029453234
-0.002722485
0.0034481293
-0.0037217851
0.0036504308
-0.0046981782
0.0035935866
-0.0055983028
0.0032986929
-0.0063705533
0.0027730056
-0.0069630661
0.0020219534
-0.0073241748
0.0010623856
-0.0074068243
-6.3470398e-05
-0.0071711051
-0.0012883927
-0.0065983651
-0.0024965005
-0.0057012415
-0.0035427966
-0.0045396793
-0.0042569884
-0.0032316061
-0.004476983
-0.0019488814
-0.0041024167
-0.0008872256
-0.0031588637
-0.00021157972
-0.0018367442
-0.00047623543
-0.00031407669
0.0011350112
-0.0010262166
0.0027970745
-0.0019732816
0.0038923884
-0.0030414193
0.0045162669
-0.0041502794
0.004759291
-0.0052394183
0.0046827255
-0.0062574787
0.0043167533
-0.0071548842
0.0036704112
-0.0078797023
0.0027467716
-0.0083761766
0.00155886
-0.0085847424
0.00014509548
-0.0084507131
-0.0014224219
-0.0079289516
-0.003018262
-0.0070044927
-0.0044672555
-0.0057146654
-0.0055468156
-0.0041733066
-0.0060183418
-0.0025816745
-0.0056940487
-0.0012040246
-0.0045365135
-0.00029448384
-0.0027462849
-0.00077071923
-0.00033821181
0.001473223
-0.0011030548
0.0035619175
-0.0021174229
0.0049067566
-0.003259578
0.005658422
-0.004447002
0.0059467151
-0.0056214779
0.0058572014
-0.0067364044
0.00543168
-0.0077473823
0.0046813891
-0.0086057696
0.0036051589
-0.0092546436
0.0022077341
-0.009626421
0.00051687296
-0.0096486405
-0.0014002023
-0.0092484581
-0.0034184444
-0.0083734793
-0.0053422341
-0.0070216847
-0.0068986102
-0.0052815184
-0.0077585079
-0.003367474
-0.0076080931
-0.0016172673
-0.00628672
-0.00040824292
-0.0039553093
-0.0011789621
-0.00034812728
0.0018213502
-0.0011371237
0.004350914
-0.0021826188
0.0059522517
-0.003358369
0.0068341722
-0.0045819176
0.0071702636
-0.0057994367
0.0070747206
-0.0069717656
0.0066040088
-0.0080632122
0.0057728358
-0.0090329744
0.0045749212
-0.0098285269
0.0030032867
-0.010380817
0.0010691629
-0.010604083
-0.0011769358
-0.010400356
-0.003622171
-0.0096745046
-0.0060680857
-0.0083683289
-0.0082047858
-0.0065154038
-0.0096114329
-0.004309687
-0.0098138099
-0.0021482173
-0.0084481896
-0.00056489413
-0.0055386324
-0.0017438562
-0.00034391808
0.0021652683
-0.0011278043
0.0051348002
-0.0021646038
0.0069890512
-0.0033257433
0.0079953117
-0.0045305971
0.0083751174
-0.0057317037
0.0082758273
-0.0068999593
0.0077722646
-0.008012111
0.0068849875
-0.0090405571
0.0056033675
-0.0099447051
0.0039074348
-0.010663141
0.0017875987
-0.011106494
-0.00073358214
-0.011163169
-0.0035654961
-0.010696876
-0.006534379
-0.0095823523
-0.0093193092
-0.0077665524
-0.011427233
-0.0053713245
-0.012209038
-0.0028070731
-0.011012441
-0.00077833429
-0.0075673711
-0.0025221905
-0.0003289064
0.0024941747
-0.0010824109
0.0058883047
-0.0020707507
0.0079773911
-0.0031635686
0.0090881296
-0.0042838436
0.0094953925
-0.0053927892
0.009384773
-0.0064740801
0.0088535555
-0.0075204999
0.0079314074
-0.0085228864
0.0066057542
-0.0094603292
0.0048448777
-0.010291328
0.0026185978
-0.010933213
-9.1696692e-05
-0.011283184
-0.0032155257
-0.011173575
-0.0066439873
-0.010415621
-0.010077264
-0.0088466159
-0.012996237
-0.0064556318
-0.014600022
-0.0035814378
-0.013886635
-0.0010641882
-0.010084621
-0.0035863786
-0.00031179927
0.002805974
-0.001020718
0.0065972235
-0.0019261619
0.008882835
-0.0028950316
0.010056999
-0.0038569865
0.010457348
-0.0047856914
0.010313478
-0.0056809224
0.0097487866
-0.0065546419
0.008805127
-0.0074201041
0.0074712166
-0.0082820617
0.0057068355
-0.0091253996
0.0034619358
-0.0099088847
0.00069178852
-0.01052747
-0.0025969405
-0.010827176
-0.0063442813
-0.010573722
-0.010330718
-0.0094932299
-0.014076729
-0.0073911043
-0.016702147
-0.004418862
-0.016858877
-0.0014371826
-0.0130663
-0.0050235612
-0.00031007422
0.0031160483
-0.00098045286
0.0072676022
-0.0017791987
0.0096815808
-0.0025695751
0.010847376
-0.0032948601
0.011182633
-0.0039482126
0.010966831
-0.0045503335
0.010350908
-0.0051351907
0.0093899842
-0.0057403589
0.0080763849
-0.0063989854
0.0063654621
-0.0071305952
0.0041935458
-0.0079307162
0.0014919096
-0.008739228
-0.0017884286
-0.0094307206
-0.0056527886
-0.0097688575
-0.0099925806
-0.0094005178
-0.014445069
-0.0079306532
-0.018172012
-0.0052061641
-0.019583366
-0.0019025962
-0.016369868
-0.0069261574
-0.00035608582
0.0034721341
-0.0010241286
0.007935645
-0.0017044587
0.010361911
-0.0022611211
0.011404038
-0.0026661294
0.011587641
-0.0029444905
0.011245192
-0.0031447891
0.010551206
-0.0033254516
0.0095706469
-0.0035478062
0.0082987396
-0.0038716721
0.0066893281
-0.0043497938
0.0046716676
-0.0050189825
0.0021610984
-0.0058771752
-0.00093023576
-0.0068583358
-0.0046716279
-0.0077767019
-0.0090742144
-0.008266138
-0.013955632
-0.007768919
-0.018669231
-0.0057511674
-0.021601118
-0.0024366758
-0.019684359
-0.0093628332
-0.00050831664
0.0039804507
-0.001245794
0.0086731224
-0.0017961707
0.010912288
-0.0020484078
0.011656275
-0.0020330228
0.011572256
-0.0018260308
0.0110382
-0.0015128612
0.010238037
-0.0011785692
0.009236355
-0.00090543923
0.0080256098
-0.0007744425
0.0065583315
-0.00086419193
0.0047614172
-0.0012480251
0.0025449317
-0.0019834518
-0.00019480896
-0.0030824263
-0.0035726534
-0.00446051
-0.0076961307
-0.005827863
-0.012588279
-0.0065664171
-0.017930677
-0.0057685727
-0.022398962
-0.002951254
-0.022501678
-0.012314087
-0.00086861073
0.0048490615
-0.0017631549
0.0095676665
-0.0021216637
0.011270796
-0.0019372894
0.011471901
-0.001351486
0.010986453
-0.00051685069
0.010203565
0.00043631749
0.0092848688
0.0013988566
0.0082738159
0.0022716151
0.0071528515
0.0029601731
0.0058697736
0.0033684463
0.004353144
0.0033961457
0.0025172324
0.0029379507
0.00026338615
0.0019090796
-0.0025437822
0.00026922472
-0.0060562758
-0.0018545408
-0.010464514
-0.0039518731
-0.015833344
-0.0048609907
-0.021489845
-0.0032547517
-0.024107917
-0.015568839
-0.0015911285
0.0064401901
-0.0026109977
0.010587536
-0.0025134087
0.011173207
-0.001590311
0.010548804
-0.00017269452
0.0095688363
0.0014921795
0.0085386906
0.0032322104
0.007544838
0.0049225164
0.0065835099
0.0064622736
0.0056130944
0.0077568037
0.0045752436
0.0087068562
0.0034030916
0.0092009053
0.0020231834
0.0091028191
0.00036147244
0.0082746368
-0.0017155999
0.0065650747
-0.0043467137
0.0039039203
-0.0078033594
0.00055872299
-0.012488147
-0.0024682032
-0.018462918
-0.0030273727
-0.023548748
-0.018596212
-0.0027183767
0.0091585667
-0.0031499403
0.0110191
-0.0018031671
0.0098264338
0.00046642309
0.0082792131
0.003089036
0.0069462233
0.0057733293
0.0058543974
0.0083623457
0.0049558216
0.010759802
0.0041860537
0.012892887
0.0034800095
0.014690074
0.0027780567
0.016067802
0.0020253637
0.016922801
0.0011681848
0.017119299
0.0001649737
0.016490487
-0.0010867874
0.014816564
-0.0026727907
0.011846439
-0.0048332342
0.0074353239
-0.0080770323
0.0022628186
-0.013290413
-0.0012725173
-0.020013412
-0.019868729
-0.0024132652
0.011571832
2.8061034e-05
0.0085777743
0.0042550992
0.0055993959
0.0084160108
0.0041183017
0.012231287
0.0031309471
0.015655982
0.0024297025
0.018686195
0.0019256081
0.021328792
0.0015434575
0.023583072
0.0012257289
0.025428815
0.00093231368
0.026819792
0.00063438703
0.027676858
0.0003111195
0.027899935
-5.8103742e-05
0.027347022
-0.00053387438
0.025771487
-0.0010972555
0.022842946
-0.0019046932
0.018054699
-0.0032887855
0.01111354
-0.0063492539
0.0033886556
-0.012288528
-0.016480073
0.011571831
0.020149605
0.025749001
0.029867303
0.03299825
0.035427953
0.037353561
0.038897018
0.040122747
0.041055061
0.041689448
0.042000568
0.041942464
0.041408589
0.040311334
0.038406641
0.035117855
0.028768601
0.016480073
)
;

boundaryField
{
    movingWall
    {
        type            calculated;
        value           uniform 0;
    }
    fixedWalls
    {
        type            calculated;
        value           uniform 0;
    }
    frontAndBack
    {
        type            empty;
        value           nonuniform List<scalar> 0();
    }
}


// ************************************************************************* //
