/*--------------------------------*- C++ -*----------------------------------*\
  =========                 |
  \\      /  F ield         | OpenFOAM: The Open Source CFD Toolbox
   \\    /   O peration     | Website:  https://openfoam.org
    \\  /    A nd           | Version:  9
     \\/     M anipulation  |
\*---------------------------------------------------------------------------*/
FoamFile
{
    format      ascii;
    class       surfaceScalarField;
    location    "18";
    object      phi_0;
}
// * * * * * * * * * * * * * * * * * * * * * * * * * * * * * * * * * * * * * //

dimensions      [0 3 -1 0 0 0 0];

internalField   nonuniform List<scalar> 
760
(
1.2692129e-05
-1.2706837e-05
-2.8728077e-05
4.1420199e-05
-0.00012228611
9.3558027e-05
-0.00025037637
0.00012809025
-0.00039603934
0.00014566296
-0.00054533924
0.00014929989
-0.00068620456
0.0001408653
-0.00080681257
0.00012060801
-0.00089486467
8.8052088e-05
-0.00093830037
4.3435692e-05
-0.0009271887
-1.1111678e-05
-0.00085678729
-7.0401408e-05
-0.00073037138
-0.00012641592
-0.00056130382
-0.00016906757
-0.00037274225
-0.00018856157
-0.00019447199
-0.00017827027
-5.6529294e-05
-0.00013794269
1.9605182e-05
-7.6134479e-05
3.0406204e-05
-1.0801024e-05
3.0406203e-05
-4.3182913e-05
3.047607e-05
-0.00020454929
0.00020278655
-0.00046827697
0.00035728568
-0.00080062073
0.00046043398
-0.00116722
0.00051226227
-0.0015362761
0.00051835589
-0.0018780159
0.00048260511
-0.0021634408
0.00040603287
-0.0023642856
0.00028889695
-0.0024550906
0.00013424063
-0.0024178981
-4.8304192e-05
-0.0022451436
-0.00024315595
-0.0019473835
-0.00042417601
-0.0015543443
-0.00056210676
-0.0011142443
-0.00062866158
-0.00068743845
-0.00060507613
-0.00033451732
-0.00049086382
-0.00010090127
-0.00030975053
-1.5563471e-06
-0.00011014594
2.8849858e-05
-0.00011001579
0.00014049185
-0.00040298495
0.00049575569
-0.00083128909
0.0007855898
-0.0013454558
0.00097460064
-0.0018983714
0.0010651779
-0.0024462908
0.0010662753
-0.0029476885
0.00098400276
-0.003362235
0.00082057935
-0.0036514857
0.00057814769
-0.003781913
0.00026466788
-0.0037294413
-0.00010077588
-0.0034854722
-0.00048712504
-0.0030629923
-0.0008466559
-0.002499779
-0.0011253201
-0.0018580891
-0.0012703515
-0.0012180606
-0.0012451046
-0.0006637
-0.0010452244
-0.00026308087
-0.00071036966
-4.7957594e-05
-0.00032526921
-1.9107729e-05
-0.00017341729
0.00031390912
-0.00059321606
0.00091555444
-0.0011775455
0.0013699192
-0.0018581375
0.0016551926
-0.0025765925
0.0017836328
-0.0032809142
0.001770597
-0.0039223348
0.0016254234
-0.0044536309
0.0013518754
-0.0048297306
0.00095424737
-0.0050107061
0.0004456434
-0.0049667522
-0.00014472977
-0.0046839803
-0.00076989699
-0.0041719656
-0.0013586706
-0.0034688248
-0.0018284609
-0.0026437933
-0.002095383
-0.0017930651
-0.0020958327
-0.0010257805
-0.0018125091
-0.00044018938
-0.0012959608
-9.6720155e-05
-0.00066873842
-0.00011582787
-0.00022976418
0.00054367329
-0.00076497356
0.0014507638
-0.0014912936
0.0020962392
-0.0023222571
0.0024861561
-0.0031897534
0.0026511291
-0.0040363483
0.0026171919
-0.0048094918
0.002398567
-0.0054583706
0.0020007542
-0.0059335632
0.00142944
-0.0061891968
0.00070127698
-0.0061878071
-0.00014611942
-0.0059050316
-0.0010526725
-0.005339943
-0.0019237591
-0.0045227325
-0.0026456714
-0.0035226911
-0.0030954244
-0.0024496155
-0.0031689082
-0.0014424338
-0.0028196908
-0.00064118742
-0.0020972071
-0.00014882786
-0.001161098
-0.00026465572
-0.00027726064
0.00082093391
-0.00091143002
0.0020849331
-0.0017605122
0.0029453214
-0.0027224832
0.003448127
-0.0037217826
0.0036504286
-0.0046981753
0.0035935845
-0.0055982995
0.0032986911
-0.0063705497
0.0027730044
-0.0069630624
0.0020219528
-0.007324171
0.0010623856
-0.0074068207
-6.3469686e-05
-0.0071711018
-0.0012883914
-0.0065983622
-0.0024964987
-0.0057012391
-0.0035427944
-0.0045396774
-0.0042569861
-0.0032316048
-0.0044769808
-0.0019488806
-0.0041024149
-0.00088722526
-0.0031588624
-0.00021157965
-0.0018367436
-0.00047623534
-0.00031407646
0.0011350104
-0.001026216
0.0027970726
-0.0019732804
0.0038923858
-0.0030414174
0.004516264
-0.004150277
0.0047592881
-0.0052394154
0.0046827229
-0.0062574754
0.0043167512
-0.0071548806
0.0036704097
-0.0078796986
0.0027467708
-0.0083761729
0.00155886
-0.0085847388
0.00014509628
-0.0084507098
-0.0014224203
-0.0079289486
-0.0030182599
-0.0070044901
-0.0044672529
-0.0057146633
-0.0055468128
-0.0041733051
-0.006018339
-0.0025816735
-0.0056940464
-0.0012040242
-0.0045365117
-0.00029448372
-0.002746284
-0.00077071904
-0.0003382116
0.0014732219
-0.0011030542
0.0035619151
-0.0021174218
0.0049067534
-0.0032595763
0.0056584185
-0.0044469998
0.0059467117
-0.0056214752
0.0058571983
-0.0067364015
0.0054316775
-0.0077473791
0.0046813874
-0.0086057663
0.003605158
-0.0092546403
0.0022077341
-0.0096264178
0.00051687382
-0.0096486374
-0.0014002006
-0.0092484552
-0.003418442
-0.0083734768
-0.0053422312
-0.0070216825
-0.006898607
-0.0052815168
-0.0077585047
-0.0033674729
-0.0076080902
-0.0016172668
-0.0062867178
-0.00040824278
-0.003955308
-0.0011789618
-0.00034812711
0.001821349
-0.0011371233
0.0043509113
-0.0021826179
0.0059522481
-0.0033583677
0.0068341683
-0.0045819158
0.0071702598
-0.0057994346
0.0070747172
-0.0069717632
0.0066040061
-0.0080632097
0.0057728339
-0.0090329719
0.0045749202
-0.0098285244
0.0030032867
-0.010380814
0.0010691638
-0.010604081
-0.0011769341
-0.010400354
-0.0036221685
-0.0096745025
-0.0060680826
-0.008368327
-0.0082047824
-0.0065154023
-0.0096114293
-0.0043096859
-0.0098138065
-0.0021482168
-0.0084481869
-0.00056489396
-0.0055386307
-0.0017438557
-0.000343918
0.002165267
-0.0011278039
0.0051347972
-0.0021646032
0.0069890474
-0.0033257425
0.0079953075
-0.004530596
0.0083751134
-0.0057317024
0.0082758237
-0.0068999579
0.0077722617
-0.0080121095
0.0068849856
-0.0090405557
0.0056033666
-0.0099447037
0.0039074348
-0.010663139
0.0017875997
-0.011106493
-0.00073358036
-0.011163168
-0.0035654936
-0.010696874
-0.0065343759
-0.0095823509
-0.0093193057
-0.0077665512
-0.011427229
-0.0053713236
-0.012209034
-0.0028070725
-0.011012438
-0.00077833409
-0.007567369
-0.0025221898
-0.00032890641
0.0024941735
-0.0010824109
0.0058883017
-0.0020707506
0.0079773871
-0.0031635683
0.0090881253
-0.0042838433
0.0094953884
-0.0053927889
0.0093847694
-0.0064740797
0.0088535527
-0.0075204996
0.0079314055
-0.0085228863
0.0066057533
-0.0094603292
0.0048448778
-0.010291328
0.0026185988
-0.010933213
-9.1694935e-05
-0.011283184
-0.0032155232
-0.011173575
-0.0066439844
-0.01041562
-0.010077261
-0.0088466152
-0.012996234
-0.0064556311
-0.014600018
-0.0035814373
-0.013886632
-0.001064188
-0.010084618
-0.0035863777
-0.00031179937
0.0028059728
-0.0010207183
0.0065972207
-0.0019261623
0.0088828312
-0.002895032
0.010056995
-0.0038569871
0.010457343
-0.0047856922
0.010313475
-0.0056809233
0.009748784
-0.0065546429
0.0088051253
-0.0074201053
0.0074712159
-0.008282063
0.0057068357
-0.009125401
0.0034619369
-0.009908886
0.0006917903
-0.010527471
-0.0025969383
-0.010827176
-0.0063442786
-0.010573722
-0.010330715
-0.00949323
-0.014076726
-0.0073911041
-0.016702144
-0.0044188617
-0.016858874
-0.0014371824
-0.013066297
-0.0050235601
-0.00031007439
0.0031160472
-0.00098045337
0.0072675997
-0.0017791995
0.0096815774
-0.0025695762
0.010847372
-0.0032948615
0.011182629
-0.0039482143
0.010966827
-0.0045503356
0.010350905
-0.005135193
0.0093899828
-0.0057403613
0.0080763845
-0.0063989879
0.0063654625
-0.0071305978
0.004193547
-0.0079307187
0.0014919113
-0.0087392303
-0.0017884265
-0.0094307225
-0.0056527862
-0.009768859
-0.0099925781
-0.0094005188
-0.014445066
-0.0079306536
-0.018172009
-0.0052061641
-0.019583363
-0.0019025961
-0.016369865
-0.0069261562
-0.00035608605
0.0034721333
-0.0010241293
0.0079356429
-0.00170446
0.010361908
-0.0022611229
0.011404035
-0.0026661316
0.011587638
-0.0029444931
0.011245189
-0.0031447921
0.010551204
-0.0033254549
0.0095706457
-0.0035478096
0.0082987393
-0.0038716755
0.0066893286
-0.0043497972
0.0046716688
-0.0050189858
0.0021611
-0.0058771783
-0.00093023385
-0.0068583385
-0.0046716259
-0.0077767041
-0.0090742123
-0.0082661396
-0.01395563
-0.0077689199
-0.018669229
-0.0057511677
-0.021601116
-0.0024366759
-0.019684357
-0.0093628321
-0.00050831698
0.0039804503
-0.0012457949
0.0086731209
-0.0017961722
0.010912285
-0.0020484101
0.011656273
-0.0020330257
0.011572253
-0.0018260341
0.011038198
-0.0015128649
0.010238035
-0.0011785731
0.0092363539
-0.00090544323
0.0080256096
-0.00077444645
0.0065583319
-0.00086419575
0.0047614182
-0.0012480288
0.0025449332
-0.0019834552
-0.0001948073
-0.0030824293
-0.0035726516
-0.0044605126
-0.007696129
-0.005827865
-0.012588278
-0.0065664185
-0.017930675
-0.0057685734
-0.022398961
-0.0029512541
-0.022501677
-0.012314086
-0.00086861115
0.0048490615
-0.0017631559
0.0095676658
-0.0021216652
0.011270795
-0.0019372919
0.011471899
-0.0013514892
0.010986451
-0.00051685438
0.010203563
0.00043631351
0.0092848675
0.0013988525
0.0082738151
0.0022716109
0.0071528512
0.002960169
0.005869774
0.0033684425
0.0043531449
0.0033961422
0.0025172336
0.0029379475
0.00026338749
0.0019090767
-0.0025437808
0.00026922223
-0.0060562745
-0.0018545428
-0.010464513
-0.0039518746
-0.015833343
-0.0048609916
-0.021489844
-0.003254752
-0.024107916
-0.015568838
-0.0015911287
0.0064401901
-0.0026109988
0.010587536
-0.0025134101
0.011173207
-0.0015903131
0.010548802
-0.00017269743
0.0095688348
0.001492176
0.0085386893
0.0032322066
0.0075448371
0.0049225125
0.0065835093
0.0064622696
0.0056130942
0.0077567998
0.0045752438
0.0087068526
0.0034030922
0.009200902
0.0020231842
0.0091028162
0.00036147339
0.0082746344
-0.0017155989
0.0065650727
-0.0043467128
0.0039039186
-0.0078033588
0.00055872176
-0.012488147
-0.002468204
-0.018462918
-0.003027373
-0.023548747
-0.018596211
-0.0027183764
0.0091585667
-0.0031499411
0.0110191
-0.0018031682
0.0098264339
0.00046642165
0.0082792129
0.0030890339
0.0069462227
0.0057733266
0.0058543967
0.0083623427
0.004955821
0.010759799
0.0041860533
0.012892884
0.0034800094
0.014690071
0.0027780568
0.016067799
0.0020253641
0.016922798
0.0011681853
0.017119297
0.00016497425
0.016490485
-0.0010867868
0.014816562
-0.0026727902
0.011846438
-0.0048332339
0.007435323
-0.0080770321
0.002262818
-0.013290413
-0.0012725176
-0.020013412
-0.019868729
-0.0024132645
0.011571831
2.8060942e-05
0.0085777738
0.0042550988
0.0055993956
0.0084160101
0.0041183015
0.012231286
0.003130947
0.01565598
0.0024297023
0.018686193
0.0019256079
0.021328789
0.0015434573
0.02358307
0.0012257289
0.025428813
0.00093231373
0.02681979
0.00063438716
0.027676856
0.00031111968
0.027899934
-5.8103497e-05
0.027347021
-0.00053387419
0.025771486
-0.0010972554
0.022842945
-0.0019046931
0.018054699
-0.0032887855
0.011113539
-0.0063492539
0.0033886555
-0.012288528
-0.016480073
0.011571832
0.020149606
0.025749001
0.029867303
0.03299825
0.035427952
0.03735356
0.038897017
0.040122746
0.04105506
0.041689447
0.042000567
0.041942463
0.041408589
0.040311334
0.038406641
0.035117855
0.028768601
0.016480073
)
;

boundaryField
{
    movingWall
    {
        type            calculated;
        value           uniform 0;
    }
    fixedWalls
    {
        type            calculated;
        value           uniform 0;
    }
    frontAndBack
    {
        type            empty;
        value           nonuniform List<scalar> 0();
    }
}


// ************************************************************************* //
