/*--------------------------------*- C++ -*----------------------------------*\
  =========                 |
  \\      /  F ield         | OpenFOAM: The Open Source CFD Toolbox
   \\    /   O peration     | Website:  https://openfoam.org
    \\  /    A nd           | Version:  9
     \\/     M anipulation  |
\*---------------------------------------------------------------------------*/
FoamFile
{
    format      ascii;
    class       volVectorField;
    location    "18";
    object      U;
}
// * * * * * * * * * * * * * * * * * * * * * * * * * * * * * * * * * * * * * //

dimensions      [0 1 -1 0 0 0 0];

internalField   nonuniform List<vector> 
400
(
(0.0002843028 -0.00028143475 0)
(0.00011049133 7.9937139e-05 0)
(-0.0013272061 0.00047798132 0)
(-0.003621655 0.00073585802 0)
(-0.006423105 0.00086743469 0)
(-0.0094306058 0.00090717648 0)
(-0.012386809 0.00087477433 0)
(-0.015054969 0.00077144822 0)
(-0.017192862 0.00058842836 0)
(-0.018551055 0.00032005679 0)
(-0.018900841 -2.4795884e-05 0)
(-0.018084523 -0.00041820371 0)
(-0.016078557 -0.00079961821 0)
(-0.013047983 -0.0010929556 0)
(-0.0093658405 -0.0012210872 0)
(-0.0055774787 -0.0011293861 0)
(-0.0023004254 -0.00081282805 0)
(-8.3145572e-05 -0.00033799534 0)
(0.00075999477 0.00015223671 0)
(0.0004093862 0.00038928473 0)
(-8.6118037e-05 -0.00012362953 0)
(-0.0018691823 0.00178705 0)
(-0.006305943 0.0036256646 0)
(-0.012451398 0.0048619669 0)
(-0.019598544 0.0054979266 0)
(-0.027104 0.0056200533 0)
(-0.034355144 0.0052854544 0)
(-0.040764461 0.0045039053 0)
(-0.045753292 0.0032659108 0)
(-0.048770835 0.001589566 0)
(-0.049361718 -0.00043529851 0)
(-0.047249352 -0.0026177658 0)
(-0.042448233 -0.0046639149 0)
(-0.035358619 -0.0062181834 0)
(-0.026776693 -0.0069368664 0)
(-0.01782622 -0.0065916846 0)
(-0.0097751736 -0.0051794279 0)
(-0.0037463293 -0.0029993466 0)
(-0.00038890249 -0.00066566076 0)
(0.00028982155 0.00078339248 0)
(-0.00058803713 0.0014335019 0)
(-0.0042423465 0.0063768172 0)
(-0.011757197 0.010639383 0)
(-0.021466164 0.013482074 0)
(-0.032362385 0.014896614 0)
(-0.043582923 0.015015704 0)
(-0.054281164 0.013934647 0)
(-0.063635377 0.011683052 0)
(-0.070848067 0.0082806522 0)
(-0.075180395 0.0038285435 0)
(-0.076031824 -0.0014053615 0)
(-0.073050692 -0.0069344885 0)
(-0.066260601 -0.012070105 0)
(-0.056164539 -0.015998351 0)
(-0.043777359 -0.017940856 0)
(-0.030567034 -0.01737836 0)
(-0.018249576 -0.014288898 0)
(-0.008417624 -0.00931183 0)
(-0.002151127 -0.0037618782 0)
(-2.0161415e-06 0.00031674542 0)
(-0.0010529316 0.0042999127 0)
(-0.0065140238 0.013564144 0)
(-0.016996961 0.020861616 0)
(-0.030027133 0.02555823 0)
(-0.044295144 0.027758242 0)
(-0.058777238 0.027684843 0)
(-0.072479058 0.025484909 0)
(-0.084437337 0.021216357 0)
(-0.093718668 0.014943965 0)
(-0.099453744 0.0068783156 0)
(-0.10091998 -0.0025001958 0)
(-0.097653449 -0.012376294 0)
(-0.089584869 -0.021602439 0)
(-0.077175516 -0.028821353 0)
(-0.06150005 -0.032702615 0)
(-0.044250262 -0.032296916 0)
(-0.027560298 -0.027443717 0)
(-0.013580933 -0.019079532 0)
(-0.0040261746 -0.0092704376 0)
(-0.00026773492 -0.0011083935 0)
(-0.0014556572 0.0083640046 0)
(-0.0085479016 0.023178345 0)
(-0.021743355 0.034047449 0)
(-0.037787605 0.040758138 0)
(-0.055090031 0.04369661 0)
(-0.072510803 0.043254159 0)
(-0.088974032 0.039657311 0)
(-0.10344684 0.032998295 0)
(-0.11491987 0.023382606 0)
(-0.12242434 0.011116766 0)
(-0.12510309 -0.0031272232 0)
(-0.1223085 -0.018216105 0)
(-0.11375143 -0.032537108 0)
(-0.099689805 -0.044127383 0)
(-0.081093931 -0.050960925 0)
(-0.059771707 -0.051436416 0)
(-0.038288372 -0.045009947 0)
(-0.01951911 -0.032753318 0)
(-0.0060919641 -0.017491036 0)
(-0.00051100492 -0.0035221052 0)
(-0.0017886783 0.013473707 0)
(-0.010268344 0.034956392 0)
(-0.025802196 0.049902402 0)
(-0.044461253 0.058787687 0)
(-0.064420023 0.062451129 0)
(-0.084467862 0.061544174 0)
(-0.10350521 0.056410396 0)
(-0.12049093 0.047178134 0)
(-0.13439062 0.033968236 0)
(-0.14416037 0.017132445 0)
(-0.1487902 -0.0025336113 0)
(-0.14738082 -0.023632054 0)
(-0.13929987 -0.044136614 0)
(-0.12442591 -0.061435071 0)
(-0.10342387 -0.072634958 0)
(-0.078050208 -0.075167098 0)
(-0.051257274 -0.067701264 0)
(-0.026807589 -0.051120575 0)
(-0.0086117182 -0.028964031 0)
(-0.00078702263 -0.0070519986 0)
(-0.002041764 0.019433981 0)
(-0.01160422 0.048522755 0)
(-0.028992374 0.067989973 0)
(-0.049752082 0.079216663 0)
(-0.071883806 0.083648026 0)
(-0.094152301 0.082289154 0)
(-0.11548866 0.075642585 0)
(-0.13490245 0.063871844 0)
(-0.15139001 0.047073388 0)
(-0.16387127 0.025567878 0)
(-0.17117909 0.0001658619 0)
(-0.1721419 -0.027605285 0)
(-0.16570403 -0.055388907 0)
(-0.15118173 -0.079936891 0)
(-0.12869208 -0.097341762 0)
(-0.099663496 -0.10368956 0)
(-0.067237458 -0.096278532 0)
(-0.036116761 -0.075214906 0)
(-0.011928935 -0.044537119 0)
(-0.0011707295 -0.012000987 0)
(-0.0022010391 0.026010041 0)
(-0.012483401 0.063411742 0)
(-0.03113676 0.087754005 0)
(-0.053349369 0.10147871 0)
(-0.077010551 0.10676571 0)
(-0.10090315 0.10506343 0)
(-0.12403977 0.097079733 0)
(-0.14554044 0.083015414 0)
(-0.16449772 0.062899151 0)
(-0.17986384 0.036930914 0)
(-0.19038727 0.0057987474 0)
(-0.19464415 -0.029027321 0)
(-0.19112548 -0.065009569 0)
(-0.17847994 -0.098380775 0)
(-0.15601643 -0.12416624 0)
(-0.1244381 -0.13675171 0)
(-0.086641784 -0.13131935 0)
(-0.048060978 -0.10622562 0)
(-0.016428355 -0.065389218 0)
(-0.0017536599 -0.018877455 0)
(-0.0022555189 0.032929244 0)
(-0.012852677 0.07907919 0)
(-0.032096404 0.10852273 0)
(-0.054977662 0.12485083 0)
(-0.079329098 0.13107973 0)
(-0.10398708 0.12918751 0)
(-0.12809215 0.12014181 0)
(-0.15093621 0.10419482 0)
(-0.17178807 0.081274972 0)
(-0.18973538 0.051375658 0)
(-0.20356702 0.014918863 0)
(-0.21172012 -0.026869559 0)
(-0.21231657 -0.071523126 0)
(-0.20333006 -0.11501479 0)
(-0.18305543 -0.15143454 0)
(-0.15101159 -0.17327228 0)
(-0.10916076 -0.17281015 0)
(-0.063023368 -0.14523463 0)
(-0.022523776 -0.092972556 0)
(-0.0026587771 -0.028420646 0)
(-0.0022085342 0.039900017 0)
(-0.012716475 0.094933854 0)
(-0.031839741 0.12952652 0)
(-0.054494166 0.14844368 0)
(-0.078496389 0.15562106 0)
(-0.10276646 0.15365365 0)
(-0.12661632 0.14383581 0)
(-0.14957119 0.12650633 0)
(-0.17116547 0.10148901 0)
(-0.19075043 0.068517261 0)
(-0.20732195 0.027631165 0)
(-0.21937269 -0.020387524 0)
(-0.2248828 -0.073452487 0)
(-0.22130156 -0.12767718 0)
(-0.20584978 -0.17660745 0)
(-0.17647147 -0.21097823 0)
(-0.13334244 -0.21959994 0)
(-0.080896281 -0.19274295 0)
(-0.030640594 -0.12884554 0)
(-0.0040698321 -0.041634817 0)
(-0.0020933628 0.04665859 0)
(-0.012189665 0.11040766 0)
(-0.03053588 0.14995144 0)
(-0.052016876 0.1712274 0)
(-0.074463928 0.17917744 0)
(-0.096918615 0.17710787 0)
(-0.11891273 0.16671937 0)
(-0.14026536 0.14849576 0)
(-0.16086125 0.12218915 0)
(-0.18044276 0.087273011 0)
(-0.19840277 0.043356398 0)
(-0.21353671 -0.0093828339 0)
(-0.22401428 -0.069667387 0)
(-0.22708209 -0.13412217 0)
(-0.2190881 -0.19644049 0)
(-0.1962643 -0.24623844 0)
(-0.15621672 -0.26884658 0)
(-0.10070398 -0.24797597 0)
(-0.041144763 -0.17432663 0)
(-0.0062703332 -0.05983099 0)
(-0.0019964637 0.053052901 0)
(-0.01156604 0.12507275 0)
(-0.028661987 0.16903086 0)
(-0.048058064 0.19209355 0)
(-0.067640271 0.20034165 0)
(-0.086646152 0.19789979 0)
(-0.10489868 0.18695715 0)
(-0.12257281 0.16821202 0)
(-0.13996799 0.14140626 0)
(-0.15730212 0.10579981 0)
(-0.17452046 0.060575781 0)
(-0.19108868 0.0052324235 0)
(-0.20560629 -0.059913687 0)
(-0.21550973 -0.13259753 0)
(-0.21690399 -0.2075162 0)
(-0.20457919 -0.27430545 0)
(-0.17317465 -0.31570468 0)
(-0.1201699 -0.30806751 0)
(-0.054146516 -0.22987451 0)
(-0.0096746005 -0.084649545 0)
(-0.0020998523 0.059180179 0)
(-0.011415987 0.13880593 0)
(-0.027117765 0.18615992 0)
(-0.043628461 0.20993233 0)
(-0.058985963 0.21758731 0)
(-0.072783606 0.2141855 0)
(-0.085256727 0.20246432 0)
(-0.097008829 0.18338833 0)
(-0.10879705 0.156754 0)
(-0.12135934 0.1216875 0)
(-0.13526332 0.077019536 0)
(-0.15071213 0.021624573 0)
(-0.16713099 -0.045102736 0)
(-0.18274802 -0.12250692 0)
(-0.19406007 -0.20711616 0)
(-0.19523962 -0.29010395 0)
(-0.17829668 -0.35357365 0)
(-0.13540603 -0.36742673 0)
(-0.069088611 -0.29414362 0)
(-0.014794766 -0.11798039 0)
(-0.0027680431 0.065616648 0)
(-0.01274263 0.15199008 0)
(-0.027333567 0.20098543 0)
(-0.04025006 0.22367045 0)
(-0.049935889 0.22931806 0)
(-0.056652257 0.22402653 0)
(-0.061242706 0.21107238 0)
(-0.064827149 0.19167684 0)
(-0.068632579 0.1657189 0)
(-0.073887309 0.13227512 0)
(-0.081740622 0.089964438 0)
(-0.093132315 0.037206206 0)
(-0.10848091 -0.027471824 0)
(-0.12722448 -0.10496852 0)
(-0.14706343 -0.19421258 0)
(-0.16281068 -0.28947794 0)
(-0.16509554 -0.37509035 0)
(-0.14090378 -0.41771754 0)
(-0.084061951 -0.36280554 0)
(-0.022011499 -0.16156986 0)
(-0.0047199909 0.073832493 0)
(-0.017224412 0.1657199 0)
(-0.031288781 0.21336877 0)
(-0.039690136 0.2321632 0)
(-0.041892664 0.23379164 0)
(-0.039362184 0.2253853 0)
(-0.033825136 0.21060558 0)
(-0.027013989 0.19080677 0)
(-0.020606214 0.16589695 0)
(-0.016229776 0.13494097 0)
(-0.015490489 0.096474867 0)
(-0.019939147 0.048695569 0)
(-0.030931401 -0.010406301 0)
(-0.049245988 -0.082913851 0)
(-0.074409441 -0.17013668 0)
(-0.10328519 -0.27049629 0)
(-0.12726085 -0.37368894 0)
(-0.12973865 -0.44868095 0)
(-0.094916035 -0.42750022 0)
(-0.030930742 -0.21612418 0)
(-0.0093003996 0.086951061 0)
(-0.027434158 0.18184921 0)
(-0.040986357 0.22302673 0)
(-0.042686931 0.23378131 0)
(-0.034415386 0.22879389 0)
(-0.019634682 0.21591559 0)
(-0.0012520101 0.19877448 0)
(0.018331008 0.1785615 0)
(0.037056601 0.15508276 0)
(0.053040957 0.12736084 0)
(0.064407418 0.09393963 0)
(0.069217656 0.053019238 0)
(0.065402854 0.0024679303 0)
(0.051036341 -0.060333973 0)
(0.024633152 -0.13837167 0)
(-0.013710292 -0.23416704 0)
(-0.058760359 -0.34516626 0)
(-0.09351521 -0.44953578 0)
(-0.09447172 -0.47558374 0)
(-0.03921642 -0.28047979 0)
(-0.018580589 0.11087146 0)
(-0.046041325 0.20177458 0)
(-0.055234116 0.22792755 0)
(-0.043991506 0.22501213 0)
(-0.019381604 0.210607 0)
(0.01232217 0.19227458 0)
(0.046980319 0.17278071 0)
(0.081740438 0.15265136 0)
(0.11442381 0.13135203 0)
(0.14313937 0.10779648 0)
(0.16600364 0.080594037 0)
(0.180969 0.048115646 0)
(0.18556515 0.0084533041 0)
(0.17715609 -0.040813489 0)
(0.15275117 -0.10317265 0)
(0.10948184 -0.18390335 0)
(0.047234881 -0.28855243 0)
(-0.021443233 -0.41050829 0)
(-0.072254802 -0.49101465 0)
(-0.041147898 -0.35054106 0)
(-0.033352258 0.15561607 0)
(-0.068602375 0.22040408 0)
(-0.055189678 0.21729041 0)
(-0.01608302 0.19532136 0)
(0.034504632 0.17091986 0)
(0.08849926 0.14849112 0)
(0.14175841 0.12860972 0)
(0.19195775 0.11057568 0)
(0.23752889 0.093296854 0)
(0.27710844 0.075575509 0)
(0.30920703 0.056182926 0)
(0.3320332 0.033825524 0)
(0.34316684 0.0070299057 0)
(0.33982141 -0.025907856 0)
(0.31812642 -0.0677395 0)
(0.2732724 -0.12410628 0)
(0.20044344 -0.2058461 0)
(0.10213703 -0.32506835 0)
(-0.012388704 -0.45457085 0)
(-0.023757023 -0.40863995 0)
(-0.033080925 0.2390738 0)
(-0.042646825 0.21792053 0)
(0.042207014 0.16426593 0)
(0.12760319 0.12783469 0)
(0.207695 0.10143396 0)
(0.28027691 0.081656541 0)
(0.34486686 0.066646734 0)
(0.40157559 0.054702091 0)
(0.45054252 0.044399085 0)
(0.49161216 0.034640122 0)
(0.52415401 0.024551291 0)
(0.54697909 0.013382762 0)
(0.55821648 0.0004009494 0)
(0.55570474 -0.015136119 0)
(0.53552279 -0.034968144 0)
(0.4924442 -0.06248748 0)
(0.41797108 -0.10694728 0)
(0.30410481 -0.19317533 0)
(0.12313716 -0.33691898 0)
(0.05237399 -0.39437907 0)
(0.24299949 0.15257502 0)
(0.30529679 0.11854318 0)
(0.45481283 0.076108266 0)
(0.56000917 0.050840106 0)
(0.63223281 0.035125836 0)
(0.68654781 0.024811988 0)
(0.72943604 0.017959803 0)
(0.76379339 0.013255725 0)
(0.79127597 0.0097621365 0)
(0.8127481 0.0068544402 0)
(0.82840828 0.0041187189 0)
(0.83794139 0.0012771308 0)
(0.84056885 -0.0018439627 0)
(0.83497444 -0.0053260125 0)
(0.81886647 -0.0098287467 0)
(0.7894286 -0.016232615 0)
(0.73784302 -0.026935667 0)
(0.65316779 -0.051286577 0)
(0.45609773 -0.11374608 0)
(0.31788989 -0.17206007 0)
)
;

boundaryField
{
    movingWall
    {
        type            fixedValue;
        value           uniform (1 0 0);
    }
    fixedWalls
    {
        type            fixedValue;
        value           uniform (0 0 0);
    }
    frontAndBack
    {
        type            empty;
    }
}


// ************************************************************************* //
