/*--------------------------------*- C++ -*----------------------------------*\
  =========                 |
  \\      /  F ield         | OpenFOAM: The Open Source CFD Toolbox
   \\    /   O peration     | Website:  https://openfoam.org
    \\  /    A nd           | Version:  9
     \\/     M anipulation  |
\*---------------------------------------------------------------------------*/
FoamFile
{
    format      ascii;
    class       volVectorField;
    location    "18";
    object      U_0;
}
// * * * * * * * * * * * * * * * * * * * * * * * * * * * * * * * * * * * * * //

dimensions      [0 1 -1 0 0 0 0];

internalField   nonuniform List<vector> 
400
(
(0.0002843028 -0.00028143412 0)
(0.00011049128 7.9937433e-05 0)
(-0.0013272058 0.00047798129 0)
(-0.0036216534 0.00073585775 0)
(-0.0064231017 0.00086743426 0)
(-0.0094306007 0.00090717599 0)
(-0.012386802 0.00087477384 0)
(-0.01505496 0.00077144778 0)
(-0.017192852 0.00058842804 0)
(-0.018551045 0.00032005668 0)
(-0.018900831 -2.4795704e-05 0)
(-0.018084514 -0.00041820327 0)
(-0.016078549 -0.00079961759 0)
(-0.013047977 -0.0010929548 0)
(-0.0093658376 -0.0012210864 0)
(-0.0055774779 -0.0011293855 0)
(-0.0023004261 -0.00081282778 0)
(-8.3146746e-05 -0.00033799541 0)
(0.00075999386 0.0001522364 0)
(0.00040938588 0.00038928447 0)
(-8.6117968e-05 -0.00012362849 0)
(-0.0018691813 0.0017870497 0)
(-0.0063059393 0.003625663 0)
(-0.012451391 0.0048619644 0)
(-0.019598532 0.0054979235 0)
(-0.027103983 0.00562005 0)
(-0.034355122 0.0052854513 0)
(-0.040764435 0.0045039028 0)
(-0.045753264 0.0032659092 0)
(-0.048770806 0.0015895656 0)
(-0.04936169 -0.00043529737 0)
(-0.047249327 -0.0026177632 0)
(-0.042448211 -0.0046639112 0)
(-0.035358602 -0.0062181791 0)
(-0.026776682 -0.0069368622 0)
(-0.017826214 -0.0065916812 0)
(-0.0097751717 -0.0051794257 0)
(-0.0037463296 -0.002999346 0)
(-0.00038890333 -0.00066566134 0)
(0.00028982117 0.00078339171 0)
(-0.0005880367 0.001433502 0)
(-0.0042423436 0.0063768141 0)
(-0.011757189 0.010639377 0)
(-0.021466149 0.013482066 0)
(-0.032362363 0.014896605 0)
(-0.043582894 0.015015695 0)
(-0.054281127 0.013934639 0)
(-0.063635335 0.011683045 0)
(-0.070848022 0.0082806485 0)
(-0.075180349 0.0038285431 0)
(-0.076031779 -0.0014053582 0)
(-0.073050651 -0.0069344817 0)
(-0.066260566 -0.012070096 0)
(-0.056164511 -0.01599834 0)
(-0.04377734 -0.017940845 0)
(-0.030567022 -0.017378351 0)
(-0.01824957 -0.014288892 0)
(-0.0084176222 -0.0093118271 0)
(-0.002151127 -0.0037618782 0)
(-2.016376e-06 0.00031674432 0)
(-0.0010529308 0.0042999107 0)
(-0.0065140189 0.013564135 0)
(-0.016996948 0.020861603 0)
(-0.030027111 0.025558214 0)
(-0.044295113 0.027758224 0)
(-0.058777197 0.027684826 0)
(-0.072479009 0.025484893 0)
(-0.084437282 0.021216345 0)
(-0.093718609 0.014943959 0)
(-0.099453684 0.0068783155 0)
(-0.10091992 -0.0025001896 0)
(-0.097653395 -0.012376281 0)
(-0.089584822 -0.021602422 0)
(-0.077175478 -0.028821334 0)
(-0.061500021 -0.032702596 0)
(-0.044250243 -0.032296899 0)
(-0.027560287 -0.027443704 0)
(-0.013580929 -0.019079525 0)
(-0.0040261737 -0.0092704359 0)
(-0.000267735 -0.0011083945 0)
(-0.001455656 0.0083639994 0)
(-0.008547895 0.023178329 0)
(-0.021743339 0.034047426 0)
(-0.037787577 0.040758111 0)
(-0.055089993 0.043696582 0)
(-0.072510754 0.043254132 0)
(-0.088973973 0.039657288 0)
(-0.10344677 0.032998278 0)
(-0.1149198 0.023382597 0)
(-0.12242427 0.011116766 0)
(-0.12510302 -0.0031272136 0)
(-0.12230843 -0.018216087 0)
(-0.11375137 -0.032537083 0)
(-0.099689758 -0.044127353 0)
(-0.081093894 -0.050960895 0)
(-0.059771681 -0.051436389 0)
(-0.038288356 -0.045009926 0)
(-0.019519103 -0.032753305 0)
(-0.006091962 -0.017491032 0)
(-0.00051100483 -0.0035221056 0)
(-0.0017886768 0.013473698 0)
(-0.010268336 0.034956368 0)
(-0.025802177 0.049902368 0)
(-0.044461223 0.058787648 0)
(-0.06441998 0.062451089 0)
(-0.084467808 0.061544137 0)
(-0.10350515 0.056410365 0)
(-0.12049086 0.047178111 0)
(-0.13439055 0.033968224 0)
(-0.14416029 0.017132446 0)
(-0.14879013 -0.0025335986 0)
(-0.14738075 -0.02363203 0)
(-0.13929981 -0.04413658 0)
(-0.12442585 -0.061435032 0)
(-0.10342383 -0.072634917 0)
(-0.078050176 -0.07516706 0)
(-0.051257254 -0.067701233 0)
(-0.026807579 -0.051120555 0)
(-0.008611715 -0.028964022 0)
(-0.00078702235 -0.0070519978 0)
(-0.0020417624 0.019433967 0)
(-0.011604212 0.048522721 0)
(-0.028992355 0.067989927 0)
(-0.049752051 0.079216611 0)
(-0.071883763 0.083647975 0)
(-0.094152247 0.082289107 0)
(-0.11548859 0.075642546 0)
(-0.13490238 0.063871816 0)
(-0.15138994 0.047073374 0)
(-0.16387119 0.025567879 0)
(-0.17117902 0.00016587717 0)
(-0.17214183 -0.027605256 0)
(-0.16570397 -0.055388866 0)
(-0.15118167 -0.079936843 0)
(-0.12869203 -0.09734171 0)
(-0.09966346 -0.10368951 0)
(-0.067237434 -0.09627849 0)
(-0.036116748 -0.075214877 0)
(-0.01192893 -0.044537104 0)
(-0.001170729 -0.012000984 0)
(-0.0022010376 0.026010022 0)
(-0.012483394 0.063411699 0)
(-0.031136743 0.087753947 0)
(-0.05334934 0.10147865 0)
(-0.077010512 0.10676565 0)
(-0.1009031 0.10506337 0)
(-0.12403971 0.097079686 0)
(-0.14554038 0.083015381 0)
(-0.16449766 0.062899134 0)
(-0.17986378 0.036930914 0)
(-0.1903872 0.0057987644 0)
(-0.19464408 -0.029027288 0)
(-0.19112542 -0.065009523 0)
(-0.17847989 -0.098380719 0)
(-0.15601638 -0.12416618 0)
(-0.12443807 -0.13675165 0)
(-0.086641757 -0.13131929 0)
(-0.048060962 -0.10622558 0)
(-0.01642835 -0.065389196 0)
(-0.0017536591 -0.01887745 0)
(-0.0022555178 0.032929222 0)
(-0.012852671 0.079079139 0)
(-0.03209639 0.10852266 0)
(-0.054977639 0.12485076 0)
(-0.079329067 0.13107966 0)
(-0.10398704 0.12918745 0)
(-0.12809211 0.12014176 0)
(-0.15093616 0.10419478 0)
(-0.17178802 0.081274954 0)
(-0.18973533 0.051375657 0)
(-0.20356697 0.014918881 0)
(-0.21172007 -0.026869524 0)
(-0.21231652 -0.071523076 0)
(-0.20333002 -0.11501473 0)
(-0.18305539 -0.15143447 0)
(-0.15101155 -0.17327221 0)
(-0.10916073 -0.17281009 0)
(-0.063023352 -0.14523458 0)
(-0.022523769 -0.092972526 0)
(-0.0026587761 -0.028420638 0)
(-0.0022085338 0.039899992 0)
(-0.012716472 0.094933797 0)
(-0.031839732 0.12952644 0)
(-0.054494152 0.14844359 0)
(-0.07849637 0.15562098 0)
(-0.10276644 0.15365358 0)
(-0.12661629 0.14383575 0)
(-0.14957116 0.12650629 0)
(-0.17116544 0.101489 0)
(-0.1907504 0.068517262 0)
(-0.20732192 0.027631184 0)
(-0.21937267 -0.020387488 0)
(-0.22488277 -0.073452436 0)
(-0.22130154 -0.12767711 0)
(-0.20584975 -0.17660738 0)
(-0.17647144 -0.21097816 0)
(-0.13334242 -0.21959987 0)
(-0.080896265 -0.19274289 0)
(-0.030640586 -0.12884551 0)
(-0.0040698308 -0.041634804 0)
(-0.0020933631 0.046658564 0)
(-0.012189665 0.1104076 0)
(-0.030535879 0.14995136 0)
(-0.052016872 0.17122731 0)
(-0.074463922 0.17917736 0)
(-0.096918608 0.1771078 0)
(-0.11891273 0.16671931 0)
(-0.14026536 0.14849572 0)
(-0.16086124 0.12218913 0)
(-0.18044276 0.087273013 0)
(-0.19840277 0.043356418 0)
(-0.21353671 -0.0093827971 0)
(-0.22401428 -0.069667337 0)
(-0.22708208 -0.13412211 0)
(-0.21908809 -0.19644042 0)
(-0.19626429 -0.24623836 0)
(-0.15621671 -0.26884651 0)
(-0.10070397 -0.2479759 0)
(-0.041144756 -0.17432658 0)
(-0.0062703315 -0.059830974 0)
(-0.0019964646 0.053052875 0)
(-0.011566043 0.12507269 0)
(-0.028661993 0.16903078 0)
(-0.048058072 0.19209346 0)
(-0.067640281 0.20034157 0)
(-0.086646165 0.19789972 0)
(-0.1048987 0.1869571 0)
(-0.12257283 0.16821199 0)
(-0.13996801 0.14140624 0)
(-0.15730214 0.10579981 0)
(-0.17452049 0.060575803 0)
(-0.19108871 0.0052324599 0)
(-0.20560631 -0.059913639 0)
(-0.21550975 -0.13259747 0)
(-0.21690401 -0.20751614 0)
(-0.2045792 -0.27430539 0)
(-0.17317465 -0.31570461 0)
(-0.1201699 -0.30806744 0)
(-0.05414651 -0.22987446 0)
(-0.0096745987 -0.084649525 0)
(-0.0020998536 0.059180156 0)
(-0.011415994 0.13880588 0)
(-0.027117778 0.18615985 0)
(-0.043628481 0.20993225 0)
(-0.058985988 0.21758723 0)
(-0.072783637 0.21418543 0)
(-0.085256764 0.20246427 0)
(-0.097008872 0.1833883 0)
(-0.10879709 0.15675399 0)
(-0.12135938 0.1216875 0)
(-0.13526338 0.077019559 0)
(-0.15071218 0.021624608 0)
(-0.16713104 -0.045102692 0)
(-0.18274807 -0.12250687 0)
(-0.1940601 -0.20711611 0)
(-0.19523964 -0.29010389 0)
(-0.1782967 -0.35357359 0)
(-0.13540603 -0.36742666 0)
(-0.069088608 -0.29414357 0)
(-0.014794764 -0.11798036 0)
(-0.0027680448 0.06561663 0)
(-0.012742639 0.15199003 0)
(-0.027333587 0.20098537 0)
(-0.040250092 0.22367038 0)
(-0.049935929 0.22931799 0)
(-0.056652305 0.22402647 0)
(-0.061242761 0.21107234 0)
(-0.064827211 0.19167682 0)
(-0.068632646 0.16571889 0)
(-0.073887378 0.13227513 0)
(-0.08174069 0.089964461 0)
(-0.093132382 0.037206239 0)
(-0.10848098 -0.027471784 0)
(-0.12722454 -0.10496848 0)
(-0.14706348 -0.19421254 0)
(-0.16281072 -0.2894779 0)
(-0.16509557 -0.3750903 0)
(-0.1409038 -0.41771749 0)
(-0.084061953 -0.36280549 0)
(-0.022011498 -0.16156984 0)
(-0.0047199934 0.073832481 0)
(-0.017224423 0.16571986 0)
(-0.031288804 0.21336872 0)
(-0.039690175 0.23216314 0)
(-0.041892717 0.23379158 0)
(-0.039362246 0.22538525 0)
(-0.033825205 0.21060554 0)
(-0.027014064 0.19080674 0)
(-0.020606294 0.16589694 0)
(-0.016229856 0.13494098 0)
(-0.015490567 0.09647489 0)
(-0.019939222 0.0486956 0)
(-0.030931471 -0.010406265 0)
(-0.049246052 -0.082913814 0)
(-0.074409498 -0.17013664 0)
(-0.10328524 -0.27049626 0)
(-0.12726089 -0.3736889 0)
(-0.12973867 -0.44868091 0)
(-0.094916042 -0.42750018 0)
(-0.030930742 -0.21612416 0)
(-0.0093004027 0.086951056 0)
(-0.027434171 0.18184919 0)
(-0.040986381 0.22302669 0)
(-0.042686971 0.23378126 0)
(-0.034415443 0.22879384 0)
(-0.019634751 0.21591555 0)
(-0.0012520872 0.19877445 0)
(0.018330926 0.17856148 0)
(0.037056517 0.15508275 0)
(0.053040874 0.12736085 0)
(0.064407338 0.093939649 0)
(0.069217581 0.053019265 0)
(0.065402786 0.0024679606 0)
(0.05103628 -0.060333942 0)
(0.024633098 -0.13837164 0)
(-0.013710337 -0.23416702 0)
(-0.058760395 -0.34516624 0)
(-0.093515233 -0.44953576 0)
(-0.09447173 -0.47558372 0)
(-0.039216422 -0.28047978 0)
(-0.018580591 0.11087146 0)
(-0.046041337 0.20177457 0)
(-0.05523414 0.22792753 0)
(-0.043991541 0.2250121 0)
(-0.019381654 0.21060696 0)
(0.012322105 0.19227455 0)
(0.046980245 0.17278068 0)
(0.081740359 0.15265134 0)
(0.11442373 0.13135202 0)
(0.14313929 0.10779648 0)
(0.16600356 0.080594051 0)
(0.18096893 0.048115666 0)
(0.18556509 0.0084533274 0)
(0.17715604 -0.040813466 0)
(0.15275112 -0.10317263 0)
(0.1094818 -0.18390333 0)
(0.047234851 -0.28855241 0)
(-0.021443254 -0.41050828 0)
(-0.072254812 -0.49101464 0)
(-0.041147901 -0.35054105 0)
(-0.033352255 0.15561607 0)
(-0.068602379 0.22040408 0)
(-0.055189696 0.2172904 0)
(-0.016083045 0.19532134 0)
(0.034504597 0.17091984 0)
(0.088499213 0.1484911 0)
(0.14175835 0.1286097 0)
(0.19195769 0.11057567 0)
(0.23752882 0.093296851 0)
(0.27710837 0.075575512 0)
(0.30920697 0.056182935 0)
(0.33203314 0.033825537 0)
(0.3431668 0.0070299211 0)
(0.33982137 -0.025907841 0)
(0.31812639 -0.067739486 0)
(0.27327237 -0.12410627 0)
(0.20044342 -0.20584609 0)
(0.10213702 -0.32506835 0)
(-0.012388712 -0.45457084 0)
(-0.023757025 -0.40863995 0)
(-0.033080919 0.2390738 0)
(-0.042646817 0.21792052 0)
(0.04220701 0.16426593 0)
(0.12760318 0.12783469 0)
(0.20769498 0.10143395 0)
(0.28027689 0.081656532 0)
(0.34486682 0.066646727 0)
(0.40157555 0.054702086 0)
(0.45054248 0.044399083 0)
(0.49161212 0.034640123 0)
(0.52415397 0.024551295 0)
(0.54697905 0.013382769 0)
(0.55821644 0.00040095648 0)
(0.55570472 -0.015136112 0)
(0.53552277 -0.034968138 0)
(0.49244418 -0.062487475 0)
(0.41797107 -0.10694728 0)
(0.3041048 -0.19317532 0)
(0.12313716 -0.33691898 0)
(0.052373989 -0.39437907 0)
(0.24299949 0.15257501 0)
(0.30529679 0.11854317 0)
(0.45481284 0.076108265 0)
(0.56000917 0.050840105 0)
(0.6322328 0.035125835 0)
(0.68654781 0.024811987 0)
(0.72943602 0.017959801 0)
(0.76379338 0.013255724 0)
(0.79127595 0.0097621362 0)
(0.81274808 0.0068544407 0)
(0.82840826 0.0041187201 0)
(0.83794138 0.0012771324 0)
(0.84056884 -0.0018439613 0)
(0.83497443 -0.005326011 0)
(0.81886647 -0.0098287454 0)
(0.7894286 -0.016232614 0)
(0.73784302 -0.026935667 0)
(0.65316779 -0.051286577 0)
(0.45609773 -0.11374608 0)
(0.31788989 -0.17206007 0)
)
;

boundaryField
{
    movingWall
    {
        type            fixedValue;
        value           uniform (1 0 0);
    }
    fixedWalls
    {
        type            fixedValue;
        value           uniform (0 0 0);
    }
    frontAndBack
    {
        type            empty;
    }
}


// ************************************************************************* //
