/*--------------------------------*- C++ -*----------------------------------*\
  =========                 |
  \\      /  F ield         | OpenFOAM: The Open Source CFD Toolbox
   \\    /   O peration     | Website:  https://openfoam.org
    \\  /    A nd           | Version:  9
     \\/     M anipulation  |
\*---------------------------------------------------------------------------*/
FoamFile
{
    format      ascii;
    class       surfaceScalarField;
    location    "0.92";
    object      alphaPhi0.phase1;
}
// * * * * * * * * * * * * * * * * * * * * * * * * * * * * * * * * * * * * * //

dimensions      [0 3 -1 0 0 0 0];

internalField   nonuniform List<scalar> 
19800
(
5.503414e-89
2.8898313e-88
2.1761809e-88
1.1960599e-87
1.8664573e-87
5.3741961e-86
-1.6666566e-86
2.4109284e-85
-2.1894686e-86
2.792272e-85
-7.7369724e-87
1.0891104e-85
-1.0391456e-86
3.7165693e-86
-4.4844717e-86
3.8213089e-86
-1.1047956e-85
1.3179866e-85
-1.7210663e-83
1.7878122e-83
-2.3535746e-81
2.2168742e-81
-2.8507997e-79
2.4586356e-79
-3.119649e-77
2.4760846e-77
-3.1132319e-75
2.282683e-75
-2.858765e-73
1.9367021e-73
-2.4244268e-71
1.5187269e-71
-1.8447348e-69
1.105949e-69
-1.1689394e-67
7.5478096e-68
-7.9488635e-66
5.3512431e-66
-1.5317057e-63
7.4212374e-64
-8.8066607e-61
3.2615469e-61
-5.6431496e-58
1.8521392e-58
-3.1990573e-55
9.5192972e-56
-1.5619798e-52
4.2534298e-53
-6.5266909e-50
1.6380764e-50
-2.3250698e-47
5.4159987e-48
-7.0429741e-45
1.5326618e-45
-1.8108376e-42
3.7023187e-43
-3.9477e-40
7.6188112e-41
-7.2940632e-38
1.3341256e-38
-1.1425297e-35
1.9875253e-36
-1.5187012e-33
2.5203901e-34
-1.7162307e-31
2.7244492e-32
-1.6532295e-29
2.5161683e-30
-1.3620863e-27
1.9909293e-28
-9.6349229e-26
1.3541287e-26
-5.8748883e-24
7.9480083e-25
-3.0989899e-22
4.0428865e-23
-1.4187211e-20
1.789885e-21
-5.7429752e-19
6.9344538e-20
-2.2682355e-17
2.3674659e-18
-5.2464844e-16
6.9932672e-17
-3.180633e-15
2.1564357e-15
-1.7445829e-13
1.3320447e-13
-4.8354895e-12
3.8386733e-12
-7.8351535e-11
5.0967723e-11
-5.7712386e-09
-1.3510588e-10
-1.4581021e-08
-2.5827334e-08
-1.1485951e-08
-3.2899405e-08
-5.2715717e-09
-3.2947086e-08
1.6508538e-09
-3.493658e-08
7.6654843e-09
-3.4600267e-08
1.0805576e-08
-2.1118077e-08
1.445886e-08
-2.1046164e-08
2.1060694e-08
-7.0032176e-09
2.1957354e-08
-7.5360393e-09
6.5905128e-09
-4.5171799e-09
4.8940488e-09
-7.6364299e-10
4.9019539e-09
-1.0535706e-09
4.9379967e-09
-1.1323748e-09
1.1344314e-08
-3.0441504e-09
8.5233959e-09
-1.601736e-09
7.1778913e-10
4.7310636e-10
3.8543982e-11
3.8546334e-10
1.4924831e-12
3.7134616e-11
5.6405669e-14
1.4842108e-12
2.7241207e-15
5.2098267e-14
5.0720812e-16
1.0527111e-15
4.8849946e-17
1.1442112e-16
1.8524944e-18
8.7022226e-18
5.0274094e-20
3.7384711e-19
1.3756904e-21
1.2903728e-20
3.4518668e-23
3.9061629e-22
7.4274004e-25
1.0133191e-23
1.3624316e-26
2.235463e-25
2.1249338e-28
4.1945714e-27
2.7923284e-30
6.6850055e-29
3.05128e-32
9.0069109e-31
2.7253974e-34
1.0168766e-32
1.9453246e-36
9.490686e-35
1.0765587e-38
7.1816489e-37
4.4272518e-41
4.2959931e-39
1.2691959e-43
1.959965e-41
2.2785078e-46
6.4678134e-44
2.0614293e-49
1.4160023e-46
4.7745171e-53
1.7352425e-49
-2.4629405e-60
7.00593e-53
-2.5742339e-62
8.5046665e-60
-1.1906201e-64
2.3794215e-62
-3.8638022e-67
5.5834899e-65
-7.8817551e-69
1.0739635e-67
-1.8819927e-68
2.5334434e-69
-4.589196e-68
2.4625383e-69
-7.3888407e-66
1.8341751e-67
-7.7021455e-64
-2.1163235e-65
-5.5241732e-62
-5.6489761e-63
-2.5170685e-60
-4.1852796e-61
-6.6076186e-59
-1.3638634e-59
-9.116056e-58
-1.6218112e-58
-6.6765324e-58
6.2490498e-89
3.0977491e-88
2.7135574e-87
2.0526077e-86
3.7382503e-86
7.3104465e-85
-4.0731769e-86
3.3332186e-84
-1.8640707e-85
4.5010252e-84
-1.9894085e-85
3.5815135e-84
-1.1177769e-85
2.012158e-84
-1.5112741e-85
1.035123e-84
-2.1361338e-84
5.9380118e-84
-3.7010458e-82
9.0078633e-82
-5.4967801e-80
1.1911722e-79
-7.1695217e-78
1.4064634e-77
-8.3703767e-76
1.500414e-75
-8.845834e-74
1.4564241e-73
-8.569469e-72
1.2999974e-71
-7.6597762e-70
1.0717842e-69
-6.3222575e-68
8.2246435e-68
-4.6528005e-66
5.8939269e-66
-2.907978e-64
4.0128405e-64
-2.097961e-62
2.927045e-62
-4.7411201e-60
4.4969413e-60
-2.6763696e-57
1.9642462e-57
-1.5694457e-54
9.8573842e-55
-8.0617479e-52
4.6272826e-52
-3.5587683e-49
1.9369153e-49
-1.3421612e-46
6.9893152e-47
-4.3088777e-44
2.1549621e-44
-1.1744053e-41
5.6591586e-42
-2.7124838e-39
1.2624697e-39
-5.3033885e-37
2.3881668e-37
-8.7755754e-35
3.8273622e-35
-1.2297359e-32
5.1973369e-33
-1.4615839e-30
5.9872978e-31
-1.4769102e-28
5.8643052e-29
-1.2729012e-26
4.8985095e-27
-9.3926974e-25
3.5029967e-25
-5.9562989e-23
2.1544437e-23
-3.2589362e-21
1.1455446e-21
-1.5737283e-19
5.3007642e-20
-7.5777367e-18
2.1543233e-18
-2.0152091e-16
7.451426e-17
-1.8356648e-15
2.0986246e-15
-9.107024e-14
6.7877023e-14
-2.6679928e-12
2.1065029e-12
-6.1377991e-11
4.9176292e-11
-2.5391568e-09
1.4564011e-09
-6.2572347e-08
-8.8616163e-09
-4.1638974e-08
-4.1480801e-08
-2.3728106e-08
-4.4467582e-08
7.7451451e-10
-4.8069229e-08
1.8149173e-08
-4.1064211e-08
3.7363679e-08
-4.1923273e-08
4.9470153e-08
-1.5035389e-08
1.0729667e-07
-1.1039165e-08
1.7188905e-07
-4.5925408e-09
8.5623051e-08
0
1.2982444e-08
-4.5388243e-09
1.0162605e-08
-6.5029794e-10
9.7542494e-09
-9.1615826e-10
9.3780025e-09
-9.7884765e-10
5.308389e-08
-8.8266193e-10
4.5150777e-08
-8.2056084e-10
2.8230793e-08
9.1438473e-09
1.836077e-09
3.8585515e-09
4.6772039e-11
1.8057712e-09
2.0633008e-12
4.4966118e-11
7.4588475e-14
1.9557069e-12
1.9808377e-15
6.4729139e-14
1.0725637e-16
1.4031628e-15
4.3554006e-18
5.5993444e-17
1.2067954e-19
2.0713865e-18
2.9973226e-21
6.2380089e-20
6.7700785e-23
1.6343825e-21
1.33696e-24
3.7381695e-23
2.2709649e-26
7.3943214e-25
3.2873831e-28
1.2566927e-26
4.0026369e-30
1.8215434e-28
4.029456e-32
2.2273664e-30
3.2825821e-34
2.2648528e-32
2.1043284e-36
1.8716354e-34
1.021335e-38
1.2192908e-36
3.5464606e-41
5.9836348e-39
8.0568619e-44
2.2510515e-41
1.0129466e-46
6.1462478e-44
4.5662682e-50
1.0138169e-46
-3.5432162e-56
2.4538651e-50
-2.2195762e-59
3.4762968e-55
-1.3466639e-61
6.0993414e-59
-5.4060617e-64
1.7277267e-61
-1.5957065e-66
4.0085565e-64
-2.4965908e-67
8.5533408e-67
-7.5819172e-67
1.6270606e-67
-1.4410142e-64
2.0446162e-65
-1.7265038e-62
6.7546371e-64
-1.5158616e-60
-8.7922071e-62
-1.0070773e-58
-1.414925e-59
-4.6854897e-57
-8.8490025e-58
-8.866014e-56
-2.4246637e-56
-3.8034787e-55
-2.2150705e-55
-6.4990796e-55
4.1881011e-86
3.9199243e-85
4.2713243e-84
3.0179478e-83
4.941145e-83
7.5011203e-82
1.7585283e-83
2.6309506e-81
-6.780505e-83
3.1678239e-81
-8.8438529e-83
2.357416e-81
-5.0947286e-83
1.2552167e-81
-7.1112091e-83
6.3206075e-82
-7.7615692e-82
2.6471149e-81
-1.4160469e-79
4.1557986e-79
-2.1903966e-77
5.6478021e-77
-2.9522217e-75
6.8193408e-75
-3.5261766e-73
7.4071977e-73
-3.8009619e-71
7.318115e-71
-3.7292972e-69
6.6278746e-69
-3.3691394e-67
5.5423702e-67
-2.8255478e-65
4.312241e-65
-2.2086971e-63
3.1325727e-63
-1.6112232e-61
2.1420181e-61
-1.0628856e-59
1.3804513e-59
-5.9756144e-58
8.4675979e-58
-3.6566314e-56
5.3861988e-56
-5.8304247e-54
6.057996e-54
-2.4657681e-51
1.9409366e-51
-1.1507318e-48
7.5113796e-49
-4.6673598e-46
2.0138787e-46
-1.6078355e-43
6.5727731e-44
-4.7059743e-41
1.8284104e-41
-1.1684772e-38
4.3743731e-39
-2.4553392e-36
8.8663901e-37
-4.3594859e-34
1.5193691e-34
-6.537978e-32
2.2004611e-32
-8.2881564e-30
2.6950072e-30
-8.8970552e-28
2.8562591e-28
-8.1098824e-26
2.58583e-26
-6.2973606e-24
1.9748482e-24
-4.1794594e-22
1.2795466e-22
-2.3984439e-20
7.0830512e-21
-1.243179e-18
3.3849527e-19
-5.0914845e-17
1.379368e-17
-1.0166938e-15
4.4269959e-16
-1.8836834e-14
1.3501453e-14
-5.9419977e-13
4.6192969e-13
-1.8334181e-11
1.5056575e-11
-4.3793328e-10
3.6213439e-10
-5.0035474e-08
8.0831452e-09
-3.2176011e-08
-2.6569287e-08
-3.0137709e-08
-3.6787069e-08
-7.2782121e-09
-4.8433605e-10
2.5317766e-09
-3.8210747e-10
1.2729697e-08
-6.2785277e-10
3.4508787e-08
-1.2124034e-09
8.0248232e-08
-1.8929069e-08
1.3117097e-07
-1.5176552e-08
2.7512393e-07
-3.6803499e-08
1.8675597e-07
-3.1297558e-08
3.686119e-08
-1.3639959e-08
1.2322336e-08
0
1.255008e-08
-1.413934e-09
1.1291998e-08
3.089762e-11
9.669891e-09
4.9693529e-10
4.6752717e-08
2.9764369e-09
5.2990638e-08
1.0614334e-08
4.71816e-08
2.9131545e-08
9.6222974e-10
2.3330906e-08
3.1832702e-11
9.3051601e-10
1.426833e-12
2.8643927e-11
5.4484726e-14
1.2570621e-12
1.6808465e-15
4.5355676e-14
1.0143278e-16
1.6966561e-15
6.9166866e-18
8.6090234e-17
1.4027165e-19
3.4546833e-18
2.0618106e-21
7.8411056e-20
3.4093972e-23
1.5419441e-21
5.0766455e-25
2.7268459e-23
6.3893483e-27
4.1398496e-25
6.6857287e-29
5.3121892e-27
5.7042099e-31
5.6726791e-29
3.8620894e-33
4.9312691e-31
1.9998718e-35
3.3790229e-33
7.4995143e-38
1.7296156e-35
1.8808344e-40
6.0451114e-38
3.081231e-43
1.8045142e-40
1.8484482e-46
3.3443189e-43
-8.9288912e-55
2.8569725e-46
-4.5856274e-56
1.9531388e-52
-3.2568222e-58
1.159757e-55
-1.5116449e-60
6.4677024e-58
-5.2407215e-63
1.7456347e-60
-1.4190051e-65
3.8674069e-63
-1.9542507e-65
1.4771768e-65
-1.6179705e-63
4.2207367e-64
-2.2141899e-61
3.1877582e-62
-2.3301954e-59
5.391104e-61
-1.8583599e-57
-1.7203456e-58
-1.1157805e-55
-2.0792946e-56
-4.3724383e-54
-1.1196513e-54
-7.0906455e-53
-2.674655e-53
-3.1051916e-52
-2.2734415e-52
-6.6139715e-52
2.5173537e-83
2.2569905e-82
3.7712934e-81
2.4291898e-80
3.6320029e-80
4.526063e-79
2.8123507e-80
1.2992272e-78
-1.1411179e-80
1.4700194e-78
-2.6902061e-80
1.0745511e-78
-1.6979683e-80
5.5804632e-79
-2.4804357e-80
2.7506561e-79
-2.3292316e-79
9.5448749e-79
-4.5191515e-77
1.5646359e-76
-7.2976519e-75
2.2011283e-74
-1.0203647e-72
2.738538e-72
-1.2530859e-70
3.0466444e-70
-1.3808984e-68
3.0779102e-68
-1.3770848e-66
2.841344e-66
-1.2593958e-64
2.4211456e-64
-1.063556e-62
1.9152707e-62
-8.3660452e-61
1.4153134e-60
-6.150608e-59
9.8232276e-59
-4.2772035e-57
6.445105e-57
-2.8173267e-55
4.0088501e-55
-1.6802502e-53
2.3466693e-53
-8.5893731e-52
1.2782478e-51
-4.3659443e-50
6.765007e-50
-3.1457749e-48
4.1114628e-48
-4.1437388e-46
3.4006484e-46
-1.0331023e-43
6.1641582e-44
-3.0984267e-41
1.6078226e-41
-8.3104728e-39
3.4897434e-39
-1.8821502e-36
7.5906739e-37
-3.5911007e-34
1.4629078e-34
-5.761892e-32
2.3648443e-32
-7.7644107e-30
3.1981348e-30
-8.7880888e-28
3.5351414e-28
-8.3639368e-26
3.2298841e-26
-6.7045158e-24
2.4870212e-24
-4.5362503e-22
1.6203071e-22
-2.6463918e-20
8.9915715e-21
-1.4288975e-18
4.3051653e-19
-5.9721976e-17
1.748939e-17
-9.0967853e-16
5.2483657e-16
-6.7809087e-15
1.5374151e-14
-2.1101222e-13
5.5662356e-13
-6.7690437e-12
1.8556064e-11
-1.9055622e-10
4.8029679e-10
-2.3504207e-08
4.3375604e-09
-2.6675136e-08
-2.8314297e-08
-1.2822989e-10
-8.0295561e-10
-3.9463361e-11
-5.6719308e-10
3.7894713e-11
-4.5151802e-10
1.0614759e-10
-6.902018e-10
6.6456973e-10
-1.7680561e-09
1.0499011e-07
-1.0030443e-07
4.4440262e-07
-3.9719136e-07
7.7658097e-07
-4.2826148e-07
4.404153e-07
-3.0927387e-07
2.0119301e-07
-1.8616779e-07
4.4231224e-08
-4.361564e-08
5.0189546e-08
-5.3363759e-10
2.0471416e-08
2.9499181e-08
1.0760757e-08
1.0282051e-08
1.0099672e-08
3.7349578e-09
4.1659444e-08
1.525251e-08
4.7683376e-08
4.0402841e-08
1.7803362e-08
4.1050848e-08
2.0684129e-10
8.0673731e-09
9.3807656e-12
1.9941155e-10
3.7825215e-13
9.0075657e-12
1.309827e-14
3.6014758e-13
4.9012e-16
1.2389746e-14
1.7677048e-17
4.1995567e-16
3.9637865e-19
1.2267083e-17
6.7287496e-21
2.7580063e-19
1.0427194e-22
5.1709284e-21
1.3893174e-24
8.212196e-23
1.540222e-26
1.0854349e-24
1.3900506e-28
1.1634553e-26
9.8809505e-31
9.9995851e-29
5.3620705e-33
7.7559971e-31
2.1219999e-35
4.7013384e-33
5.6533463e-38
2.1379328e-35
8.7809566e-41
6.7009923e-38
5.5512223e-44
9.522541e-41
4.4368058e-49
4.9925519e-44
-6.5735176e-53
2.9999797e-48
-5.3253685e-55
2.1984735e-52
-2.8014599e-57
1.3101418e-54
-1.1135533e-59
4.0431378e-57
-3.5695244e-62
1.0458944e-59
-4.0463905e-63
2.6545802e-62
-1.2004292e-62
4.096154e-63
-2.2262555e-60
5.6408149e-61
-2.449067e-58
3.1622074e-59
-2.3158979e-56
-8.1475535e-59
-1.7062581e-54
-2.1988831e-55
-9.2342397e-53
-2.1394843e-53
-3.0936533e-51
-9.9453546e-52
-4.3342107e-50
-2.0775729e-50
-1.8311358e-49
-1.6238784e-49
-4.5848168e-49
1.1216787e-80
9.3456405e-80
2.0008572e-78
1.1465746e-77
1.8138559e-77
1.8671809e-76
1.7287914e-77
4.8060778e-76
3.893327e-78
5.2273892e-76
-4.9182889e-78
3.7979944e-76
-4.0732597e-78
1.941622e-76
-6.4749784e-78
9.3869879e-77
-5.3505204e-77
2.7121967e-76
-1.1278521e-74
4.7166236e-74
-1.9408319e-72
6.9537576e-72
-2.8209489e-70
8.9499704e-70
-3.594388e-68
1.026808e-67
-4.0515295e-66
1.0619105e-65
-4.1193927e-64
1.0014781e-63
-3.8058369e-62
8.6856166e-62
-3.2392454e-60
6.9903964e-60
-2.5576415e-58
5.2456035e-58
-1.8813111e-56
3.6886471e-56
-1.3045748e-54
2.4487725e-54
-8.5774654e-53
1.5397188e-52
-5.1729648e-51
9.121554e-51
-2.6854644e-49
5.0101043e-49
-1.3697003e-47
2.6316721e-47
-1.110031e-45
1.585665e-45
-1.1862651e-43
1.2538682e-43
-5.0644278e-42
7.5731706e-42
-9.5542352e-41
2.0898187e-40
-4.020693e-39
4.0717494e-39
-7.221578e-37
4.6243163e-37
-1.5191428e-34
6.692668e-35
-2.6788132e-32
9.5699427e-33
-3.9227482e-30
1.3955579e-30
-4.790658e-28
1.7070975e-28
-4.8798518e-26
1.7321716e-26
-4.1468899e-24
1.4585022e-24
-2.9442872e-22
1.0219073e-22
-1.7856693e-20
6.0060741e-21
-9.8729558e-19
3.0096898e-19
-4.3401804e-17
1.2728953e-17
-6.7521191e-16
4.0889204e-16
-9.6064259e-16
1.2233695e-14
0
4.9690478e-13
0
1.951745e-11
-5.4841499e-09
9.283089e-10
-8.9768148e-09
2.1254501e-10
-2.433286e-10
-6.2082381e-09
-1.0915729e-10
-9.5872565e-10
-1.6638527e-11
-6.5176433e-10
4.1392441e-11
-4.9987656e-10
2.5839262e-10
-8.9925429e-10
9.8775668e-09
-1.1408849e-08
2.4588443e-07
-1.8028798e-07
5.4389822e-07
-5.8509866e-07
7.1755935e-07
-5.006857e-07
8.4099762e-07
-3.3585282e-07
9.6659808e-07
-2.0981965e-07
7.3388971e-07
-2.59103e-07
7.0311771e-07
2.3891333e-08
7.101996e-07
1.4312486e-07
3.8435226e-07
2.4167401e-07
4.66418e-08
1.2427158e-07
2.696303e-08
6.7534348e-08
5.9752846e-08
7.3455219e-08
3.9863004e-08
6.2351719e-08
3.2148771e-10
1.6362492e-08
1.3604351e-11
4.4128035e-10
4.79676e-13
1.8994516e-11
1.6104353e-14
7.0140247e-13
8.2371983e-16
2.3193675e-14
3.5718442e-17
7.6198378e-16
7.1627219e-19
2.1254101e-17
1.0948155e-20
4.4053571e-19
1.4792065e-22
7.6342714e-21
1.6685052e-24
1.1135574e-22
1.527482e-26
1.3484567e-24
1.1126435e-28
1.3370977e-26
6.2982632e-31
1.0370072e-28
2.6139234e-33
5.5546733e-31
7.2418399e-36
2.1914276e-33
1.1449776e-38
5.754983e-36
6.814716e-42
8.3536027e-39
-4.3196626e-47
3.6861231e-42
-8.8941883e-50
1.5516465e-46
-5.7289558e-52
3.1618771e-49
-3.1248206e-54
1.2802866e-51
-1.3718848e-56
4.514936e-54
-5.1842333e-59
1.409568e-56
-1.9427241e-61
3.9854695e-59
-2.5787413e-61
2.4890443e-61
-1.7189754e-59
6.5699944e-60
-2.2616137e-57
5.3348709e-58
-2.2003753e-55
2.1780572e-56
-1.8712495e-53
-6.9293616e-55
-1.2480229e-51
-2.084395e-52
-6.0034306e-50
-1.6643794e-50
-1.7253901e-48
-6.6457786e-49
-2.1055862e-47
-1.2144065e-47
-8.3191384e-47
-8.6928001e-47
-2.3481252e-46
3.8013624e-78
2.9705287e-77
7.4362135e-76
3.8483835e-75
6.6662193e-75
5.8611735e-74
6.9315973e-75
1.4211146e-73
3.210076e-75
1.5082805e-73
-2.3887331e-76
1.0918486e-73
-6.8272475e-76
5.5303125e-74
-1.2966401e-75
2.6159012e-74
-9.24958e-75
5.9603727e-74
-2.1982819e-72
1.133254e-71
-4.08844e-70
1.7804245e-69
-6.3113431e-68
2.4005055e-67
-8.3344124e-66
2.8490842e-65
-9.6604948e-64
3.0289357e-63
-9.9986062e-62
2.9217199e-61
-9.3768652e-60
2.5838859e-59
-8.0009604e-58
2.1098005e-57
-6.2903637e-56
1.6026782e-55
-4.6078546e-54
1.1400888e-53
-3.1572407e-52
7.6235656e-52
-2.0409283e-50
4.8170341e-50
-1.2189278e-48
2.8672844e-48
-6.3827324e-47
1.5862394e-46
-3.1258793e-45
8.2998846e-45
-2.1226501e-43
4.7192532e-43
-2.2968596e-41
3.5046172e-41
-1.7159905e-39
2.4204837e-39
-4.8150818e-38
8.4355645e-38
-5.2112337e-37
1.3240491e-36
-4.0666307e-36
1.2395711e-35
-6.8670895e-35
1.0786862e-34
-6.3934691e-33
5.4012272e-33
-9.7959279e-31
7.3243143e-31
-1.3551205e-28
8.5769759e-29
-1.5708555e-26
7.6734101e-27
-1.4960561e-24
5.9826352e-25
-1.1552845e-22
3.7386875e-23
-7.3391373e-21
2.1955814e-21
-4.0667783e-19
1.1046276e-19
-1.7957821e-17
4.6368042e-18
-3.7149316e-16
1.5158842e-16
-7.4054766e-17
4.1948269e-15
0
1.5907595e-13
0
6.3069042e-12
-1.54668e-09
2.7948443e-10
-1.673688e-09
0
-5.965887e-10
-4.2533231e-09
-1.7469504e-10
-1.6560007e-09
-7.1141991e-13
-1.4801843e-09
5.5746111e-11
-5.4411964e-10
1.5116487e-09
-4.3170376e-09
4.0989189e-08
-4.1842756e-08
2.3873423e-07
-1.143262e-07
4.1314202e-07
-1.4541179e-07
4.996611e-07
-1.5181926e-07
6.0513887e-07
-5.6573155e-08
9.015712e-07
-1.6623614e-08
1.0132768e-06
-1.7022775e-09
1.0190064e-06
2.8394213e-08
9.3901015e-07
2.3620925e-07
8.4130233e-07
3.5420926e-07
6.0735785e-07
3.7323412e-07
2.9928562e-08
2.7773927e-07
4.1289122e-09
1.3352919e-07
8.6809869e-09
5.9080833e-08
1.77149e-10
2.1193113e-08
5.8118872e-12
5.8085771e-10
1.671271e-13
2.2835939e-11
3.3670546e-15
7.8791926e-13
6.5785788e-16
2.2820686e-14
3.3745682e-17
7.3974122e-16
5.501569e-19
1.9529621e-17
7.2386922e-21
3.5547255e-19
8.6239486e-23
5.2664367e-21
8.4016395e-25
6.4005082e-23
6.4282772e-27
6.2237686e-25
3.720855e-29
4.7262914e-27
1.5265034e-31
2.6235018e-29
4.0583779e-34
9.6067318e-32
5.8431627e-37
2.213079e-34
2.5585966e-40
2.5321007e-37
-2.2719463e-44
1.0250863e-40
-2.8082758e-47
5.1498454e-44
-2.025355e-49
9.7925814e-47
-1.3123297e-51
4.0785293e-49
-7.3254169e-54
1.9963213e-51
-3.7525698e-56
8.231741e-54
-1.7031696e-58
3.2111027e-56
-3.9726063e-59
1.438937e-58
-1.0758071e-58
4.7608312e-59
-1.6835358e-56
5.8772384e-57
-1.7969033e-54
3.7411097e-55
-1.5979182e-52
1.0111807e-53
-1.241143e-50
-9.0887779e-52
-7.4266825e-49
-1.5289453e-49
-3.1399825e-47
-1.0112405e-47
-7.7536276e-46
-3.4656941e-46
-8.2968804e-45
-5.5478831e-45
-3.0129712e-44
-3.6333571e-44
-9.3097891e-44
1.1646786e-75
8.4732084e-75
2.1556817e-73
1.0116071e-72
1.9526066e-72
1.4913498e-71
2.1291718e-72
3.5007523e-71
1.2840996e-72
3.6580706e-71
2.3626922e-73
2.6479435e-71
-6.3011436e-74
1.3346013e-71
-1.9472749e-73
6.0844209e-72
-1.130023e-72
9.5671198e-72
-3.2919772e-70
2.1353582e-69
-6.8953751e-68
3.7075573e-67
-1.1422968e-65
5.3238656e-65
-1.5839534e-63
6.6077075e-63
-1.8966253e-61
7.2616139e-61
-1.9989986e-59
7.1846311e-59
-1.8812639e-57
6.4765319e-57
-1.6059199e-55
5.3730652e-55
-1.250636e-53
4.1306467e-53
-8.9827391e-52
2.9636826e-51
-6.0019182e-50
1.9930374e-49
-3.761487e-48
1.2633458e-47
-2.1714922e-46
7.5220582e-46
-1.1256143e-44
4.1756071e-44
-5.535793e-43
2.1976055e-42
-3.2512473e-41
1.2005909e-40
-2.5753768e-39
7.6309967e-39
-1.8534641e-37
4.7915845e-37
-7.6838888e-36
1.9944855e-35
-1.5666295e-34
4.4810262e-34
-1.650557e-33
5.5393602e-33
-1.1306699e-32
4.4825321e-32
-8.3021679e-32
3.3472381e-31
-1.6486105e-30
3.9498143e-30
-1.3328787e-28
1.4590117e-28
-1.11375e-26
1.1216115e-26
-6.0573277e-25
5.7096782e-25
-3.1994337e-23
2.6141646e-23
-1.8865885e-21
1.309487e-21
-1.0662005e-19
4.8455223e-20
-5.0015526e-18
1.4166263e-18
-1.3580145e-16
4.406374e-17
-3.1594546e-16
1.1249939e-15
0
2.7842788e-14
0
7.9324152e-13
-7.2957808e-11
8.6582925e-12
-7.1432282e-10
3.5829372e-12
-1.7185675e-10
-1.4517565e-09
-6.1073072e-11
-2.0390418e-09
9.0238601e-11
-1.239417e-09
1.4696387e-10
-5.9094089e-10
1.2478609e-08
-6.3253795e-09
3.3877442e-08
-9.5163091e-08
2.2584202e-08
-2.6517872e-08
1.9870742e-08
-1.3473581e-07
1.8686479e-08
-1.5866919e-07
1.0240468e-08
-4.5598604e-08
6.440075e-09
-8.5199381e-09
5.9756883e-09
-1.9666508e-09
8.4438309e-07
-1.4333319e-10
8.6304287e-07
2.3296832e-07
7.8515151e-07
4.4711869e-07
6.6898411e-07
5.0402328e-07
4.5141446e-07
5.0894036e-07
0
1.9557542e-07
0
6.5603232e-08
2.5055541e-10
3.2112554e-08
2.7112609e-12
8.0824307e-10
0
2.4567702e-11
2.4557148e-15
7.2158661e-13
4.8348313e-16
1.9256476e-14
1.8193308e-17
5.8417071e-16
2.7762382e-19
1.2653897e-17
3.1938908e-21
1.9576258e-19
3.0687796e-23
2.3402238e-21
2.3014258e-25
2.1626327e-23
1.281396e-27
1.5066085e-25
4.9463729e-30
7.5719761e-28
1.1692065e-32
2.5410346e-30
1.3016527e-35
5.1012822e-33
1.4684387e-39
5.8179976e-36
-3.9221759e-42
8.4427102e-39
-1.6952929e-44
2.8109992e-41
-1.3516127e-46
5.255864e-44
-9.8734493e-49
3.8578703e-46
-6.6727613e-51
1.9964013e-48
-3.9514457e-53
9.7407578e-51
-1.7778427e-55
4.1725088e-53
-1.0343873e-57
1.4072079e-55
-1.5028829e-57
1.4256185e-57
-1.129991e-55
5.2543635e-56
-1.2946372e-53
4.008376e-54
-1.1547376e-51
2.0014058e-52
-9.6300825e-50
2.5344094e-51
-6.8398149e-48
-7.5556891e-49
-3.6211446e-46
-8.8629185e-47
-1.3344384e-44
-4.8863e-45
-2.8449097e-43
-1.4394122e-43
-2.6849581e-42
-2.0278963e-42
-8.8920759e-42
-1.2158267e-41
-2.9434359e-41
6.5113733e-73
4.405177e-72
5.1403776e-71
2.2038444e-70
4.7444845e-70
3.1952378e-69
5.3834031e-70
7.3893002e-69
3.7309532e-70
7.6484617e-69
1.108812e-70
5.5602756e-69
6.9873857e-72
2.8187603e-69
-1.3143415e-71
1.1644832e-69
-7.6567442e-71
8.0790805e-70
-3.4695147e-68
2.8685792e-67
-8.8987471e-66
6.0362481e-65
-1.6477843e-63
9.5749966e-63
-2.4319244e-61
1.2639148e-60
-3.0194899e-59
1.4500457e-58
-3.2420945e-57
1.4799805e-56
-3.0683353e-55
1.3658995e-54
-2.5786646e-53
1.1516301e-52
-1.9590906e-51
8.9693781e-51
-1.3459277e-49
6.4852746e-49
-8.4888999e-48
4.3851739e-47
-4.9068739e-46
2.7828776e-45
-2.573395e-44
1.6550612e-43
-1.2235579e-42
9.1972441e-42
-5.6131698e-41
4.8641717e-40
-2.8547648e-39
2.6086604e-38
-1.5917665e-37
1.4668218e-36
-9.2084976e-36
7.8400221e-35
-5.4441129e-34
3.5762132e-33
-2.180473e-32
1.2063638e-31
-3.6562724e-31
2.1690272e-30
-2.6729634e-30
1.8487043e-29
-1.2602856e-29
9.6808568e-29
-8.077352e-29
5.339661e-28
-4.3211031e-27
1.0075124e-26
-8.3802812e-25
1.1010068e-24
-3.986086e-23
6.7279034e-23
-4.7340285e-22
1.2026332e-21
-4.0378119e-21
9.1705162e-21
-5.7736102e-20
6.2155459e-20
-1.6090003e-18
1.1729621e-18
-5.4776972e-17
3.1016088e-17
-1.1022741e-15
6.2610687e-16
-3.8345442e-15
1.346034e-14
0
6.0684678e-13
-1.8273733e-11
2.6366253e-11
-1.6920714e-10
0
1.3548188e-11
-1.3748622e-09
4.489075e-12
-7.1501742e-10
1.2793605e-10
-5.8611983e-10
1.8538788e-10
-6.4238217e-10
2.3954657e-08
-7.0719341e-10
1.0174967e-07
-1.4649793e-07
7.1851545e-08
-2.3640651e-07
5.8498046e-08
-3.4703234e-07
5.2562936e-08
-3.9271855e-07
5.6174116e-09
-1.0025735e-07
4.3109583e-09
-7.868024e-09
4.2771117e-09
-1.8279011e-09
7.6377732e-09
-1.1772807e-10
3.4561143e-07
1.0331821e-08
6.1245474e-07
1.2870473e-07
6.0518176e-07
5.2631433e-07
5.0782072e-07
5.9416297e-07
0
1.6543699e-07
0
3.8957421e-08
7.0490721e-10
2.4396121e-08
0
1.4413501e-09
0
2.7437527e-11
1.1736694e-16
5.9350975e-13
1.9249184e-16
1.2688697e-14
5.7130651e-18
3.4035411e-16
7.7843166e-20
4.8569353e-18
7.3708598e-22
5.6755482e-20
5.260384e-24
5.0852816e-22
2.6677183e-26
3.2756666e-24
8.8877229e-29
1.477717e-26
1.6386512e-31
4.543251e-29
9.137506e-35
1.1500895e-31
-1.5935769e-37
4.5453384e-34
-1.7764301e-39
2.2165926e-36
-1.9855119e-41
8.3804668e-39
-1.9629057e-43
7.1224393e-41
-1.4255869e-45
5.4972181e-43
-8.2979555e-48
2.8222072e-45
-3.997391e-50
1.1952723e-47
-1.62831e-52
4.1923007e-50
-5.5139259e-55
1.2428402e-52
-2.438175e-55
5.4610884e-55
-6.7512181e-55
3.391819e-55
-8.4700296e-53
3.5009412e-53
-8.055412e-51
2.1606065e-51
-6.2699424e-49
8.3025396e-50
-4.9011284e-47
-4.7920177e-49
-3.1259489e-45
-4.625621e-46
-1.4476721e-43
-4.0969168e-44
-4.639125e-42
-1.8963207e-42
-8.5984191e-41
-4.8271563e-41
-7.1954793e-40
-6.0246298e-40
-2.1704581e-39
-3.3119619e-39
-7.5712756e-39
9.2800699e-70
5.8154049e-69
1.0406046e-68
4.3105959e-68
9.8725461e-68
5.9231959e-67
1.1615621e-67
1.3663384e-66
8.6377949e-68
1.4070109e-66
3.1093173e-68
1.028596e-66
5.8284124e-69
5.2494131e-67
-2.6758348e-71
2.0253554e-67
-1.6613373e-69
1.7226649e-68
-2.1158597e-66
2.1043284e-65
-8.1493996e-64
6.9833032e-63
-1.8000422e-61
1.3259831e-60
-2.9192266e-59
1.921289e-58
-3.7930752e-57
2.3333102e-56
-4.1375359e-55
2.4751129e-54
-3.8722868e-53
2.345932e-52
-3.1602403e-51
2.0178211e-50
-2.2166823e-49
1.5890036e-48
-1.3564903e-47
1.1587261e-46
-7.0076797e-46
7.860521e-45
-2.8479326e-44
4.9885074e-43
-6.7428346e-43
2.9605528e-41
1.9232481e-41
1.6407115e-39
3.6426538e-39
8.6922151e-38
2.9818706e-37
4.5805709e-36
1.9070459e-35
2.3783676e-34
9.6968615e-34
1.1412729e-32
4.364014e-32
5.5273425e-31
1.6237399e-30
2.6466776e-29
2.1197028e-29
6.4149184e-28
-1.2966751e-31
5.7445963e-27
-6.3878102e-28
2.4675148e-26
-4.0880349e-27
8.5573451e-26
-1.7740402e-25
7.1001533e-25
-7.1691714e-23
1.2717412e-22
-4.3414243e-21
9.2778386e-21
-4.817828e-20
1.4312671e-19
-2.0636337e-19
7.5442243e-19
-8.1809093e-19
2.5352669e-18
-9.2966712e-18
1.1468709e-17
-6.68019e-17
1.0370841e-16
-1.3324872e-15
2.3533388e-15
-1.9242857e-13
2.0437107e-13
-5.3822164e-12
5.8387367e-12
-6.0306923e-10
3.9993859e-10
-1.8155059e-10
-2.5992581e-09
5.0176586e-11
-3.314026e-09
7.8167071e-11
-7.3796998e-10
1.1539607e-10
-6.27214e-10
1.6242539e-10
-6.8363115e-10
2.4897917e-10
-7.8881542e-10
1.0082667e-07
-1.388245e-09
1.265712e-07
-2.1399346e-07
1.2554304e-07
-3.4409277e-07
1.4615959e-07
-4.0951253e-07
4.3909109e-09
-1.4164282e-07
2.85867e-09
-6.7798171e-09
2.7914999e-09
-1.8196145e-09
2.8412677e-09
-2.0812676e-10
1.1154986e-08
1.9676399e-09
1.2017049e-07
1.2474765e-08
3.0256537e-07
9.5634794e-08
1.1251638e-07
0
0
1.2240526e-07
1.3495046e-09
8.3786455e-09
2.0695347e-09
2.4554056e-09
0
1.3482596e-09
0
1.5468533e-11
6.0662847e-17
3.8509916e-13
1.8829747e-16
1.5657848e-14
3.1127648e-18
3.8611813e-16
1.1363004e-20
2.3099929e-18
6.7824803e-23
1.2163739e-20
2.9839976e-25
5.6728073e-23
7.4231979e-28
2.5620829e-25
6.9900313e-31
1.5655749e-27
-4.0989879e-33
1.136137e-29
-7.5734529e-35
7.0502461e-32
-1.0074311e-36
4.5298922e-34
-1.1205369e-38
4.3157392e-36
-1.0355784e-40
3.7291655e-38
-7.8908057e-43
2.4115004e-40
-4.8307023e-45
1.3025244e-42
-2.4298591e-47
5.8384894e-45
-9.8769224e-50
2.1450921e-47
-3.4316102e-52
6.9712014e-50
-3.4226538e-54
2.2003816e-52
-6.2290094e-54
4.6909678e-54
-5.4683635e-52
2.8254145e-52
-5.103421e-50
1.857383e-50
-4.1319654e-48
9.3733668e-49
-3.0231772e-46
2.6413551e-47
-2.1265659e-44
-1.0031585e-45
-1.177963e-42
-2.1774001e-43
-4.744756e-41
-1.5192257e-41
-1.3258709e-39
-5.9558433e-40
-2.154222e-38
-1.3204735e-38
-1.6071034e-37
-1.470925e-37
-4.4263566e-37
-7.4332603e-37
-1.6069778e-36
1.3736956e-66
7.951802e-66
1.7241634e-66
1.0088178e-65
1.7925952e-65
9.7330359e-65
2.1882186e-65
2.2485766e-64
1.6986165e-65
2.3133813e-64
6.8049463e-66
1.7023708e-64
1.6089219e-66
8.7085357e-65
1.4379908e-67
3.3622096e-65
-2.202871e-68
2.3561806e-66
-3.8323194e-65
4.6704583e-64
-2.6375122e-62
2.9189969e-61
-7.5509831e-60
7.2434586e-59
-1.3954231e-57
1.1931206e-56
-1.9319618e-55
1.5751758e-54
-2.1430596e-53
1.7653946e-52
-1.9420925e-51
1.7376548e-50
-1.4370471e-49
1.5360903e-48
-8.2641913e-48
1.2363478e-46
-2.7391725e-46
9.1465894e-45
8.7332161e-45
6.2795825e-43
2.5377437e-42
4.0321167e-41
2.8084371e-40
2.4309997e-39
2.3169526e-38
1.3820251e-37
1.6007214e-36
7.3931809e-36
9.4880684e-35
3.688391e-34
4.9663905e-33
1.7383178e-32
2.7630532e-31
9.1728809e-31
2.6126173e-29
8.7716663e-29
2.3699608e-27
8.6994514e-27
5.5241123e-26
2.4957265e-25
2.9869685e-25
1.9422485e-24
6.1542466e-25
6.2742194e-24
8.5917419e-25
1.4694395e-23
1.0956106e-24
6.7885611e-23
-1.9574825e-21
1.4641119e-20
-1.3731619e-19
7.3704602e-19
-1.597271e-18
8.1083151e-18
-8.2588565e-18
3.5996151e-17
-2.521475e-17
1.016437e-16
-6.3825422e-17
2.1849697e-16
-2.0669666e-15
2.092272e-15
-9.6335623e-14
9.6144569e-14
-4.4777094e-12
4.5312098e-12
-2.5271232e-10
9.9812587e-11
-2.9015921e-09
5.3365572e-10
-6.1482777e-10
-4.1555208e-09
9.8718175e-12
-4.9054306e-09
9.4814592e-11
-6.8688536e-10
1.2647142e-10
-6.5363609e-10
2.1381714e-10
-7.6509252e-10
2.4000359e-10
-8.1307813e-10
3.7506545e-10
-1.5505729e-09
4.5814049e-08
-1.8740044e-09
9.729975e-08
-3.9239387e-07
1.0259545e-07
-4.1328128e-07
4.4676993e-09
-7.3725309e-08
1.6890419e-09
-3.933263e-09
1.4871964e-09
-1.6580586e-09
1.4341374e-09
-2.089167e-10
1.9747167e-09
1.3955063e-09
8.854575e-09
5.7246168e-09
7.7872812e-08
2.5950722e-08
4.9155299e-08
6.4858814e-07
0
1.9636023e-07
0
3.7306476e-09
4.2874628e-11
3.8793437e-10
1.6164541e-11
2.0895791e-11
0
8.0092216e-12
4.1401158e-15
6.6506541e-13
1.7293952e-16
3.2251546e-14
4.0666515e-19
2.9272922e-16
8.3353128e-22
9.5450958e-19
1.3112059e-24
2.6566958e-21
-2.1911071e-27
1.3942211e-23
-1.2492279e-28
1.4236698e-25
-2.4210044e-30
1.4110641e-27
-3.6778284e-32
1.5436551e-29
-4.680097e-34
1.6641688e-31
-4.8535426e-36
1.4462247e-33
-4.0907533e-38
1.0358501e-35
-2.8517293e-40
6.3071789e-38
-1.6816259e-42
3.4767093e-40
-8.5617628e-45
1.6480984e-42
-3.6177045e-47
6.7915085e-45
-1.4817551e-49
2.4705425e-47
-5.3358696e-52
8.6148044e-50
-5.2423651e-52
6.6151412e-52
-3.3981796e-51
1.9528271e-51
-3.1320891e-49
1.4228174e-49
-2.4810024e-47
7.8502044e-48
-1.7509367e-45
3.2274208e-46
-1.216448e-43
5.7159205e-45
-7.6200561e-42
-6.3666641e-43
-3.6422639e-40
-8.026852e-41
-1.2772083e-38
-4.5405945e-39
-3.1306346e-37
-1.5247574e-37
-4.4963179e-36
-2.9712448e-36
-3.0073736e-35
-2.9762338e-35
-7.6007656e-35
-1.3870928e-34
-2.8431012e-34
1.628324e-63
8.6928295e-63
7.7933173e-64
4.8868881e-63
2.7969717e-63
1.4676237e-62
3.6452418e-63
3.332581e-62
2.9326605e-63
3.4424924e-62
1.2486687e-63
2.5550882e-62
3.4480085e-64
1.3192142e-62
5.2807542e-65
5.6815922e-63
8.9899286e-67
2.5599537e-64
-2.8201709e-64
5.5753163e-63
-6.9233063e-61
5.8773875e-60
-4.6637817e-58
5.2958589e-57
-1.2666506e-55
1.3958692e-54
-2.0315676e-53
2.2337806e-52
-2.3106794e-51
2.7543907e-50
-1.9296518e-49
2.8667162e-48
-1.0201759e-47
2.6187833e-46
2.1197896e-47
2.1472282e-44
8.1842287e-44
1.6076655e-42
1.237307e-41
1.1064589e-40
1.2830077e-39
7.0571588e-39
1.0874052e-37
4.1911287e-37
7.9309915e-36
2.3293902e-35
5.083336e-34
1.2159967e-33
2.8971048e-32
5.9604271e-32
1.4944801e-30
2.7805574e-30
7.9706962e-29
1.406561e-28
6.1274808e-27
1.0765447e-26
4.7685232e-25
8.8914527e-25
1.2670345e-23
2.7627837e-23
8.1880621e-23
2.4269237e-22
1.8169933e-22
7.8532693e-22
2.7218902e-22
1.5325669e-21
6.5454015e-22
4.3005857e-21
5.3957544e-20
4.8762152e-19
4.7504896e-19
1.981015e-17
-1.2319784e-17
1.9502982e-16
-1.1174172e-16
8.5301511e-16
-4.7124082e-16
2.2158364e-15
-1.0174043e-15
3.0782762e-15
-1.7784637e-14
1.7257861e-14
-6.7065338e-13
7.3978928e-13