/*--------------------------------*- C++ -*----------------------------------*\
  =========                 |
  \\      /  F ield         | OpenFOAM: The Open Source CFD Toolbox
   \\    /   O peration     | Website:  https://openfoam.org
    \\  /    A nd           | Version:  9
     \\/     M anipulation  |
\*---------------------------------------------------------------------------*/
FoamFile
{
    format      ascii;
    class       volScalarField;
    location    "0.92";
    object      alpha.phase1;
}
// * * * * * * * * * * * * * * * * * * * * * * * * * * * * * * * * * * * * * //

dimensions      [0 0 0 0 0 0 0];

internalField   nonuniform List<scalar> 
10000
(
5.4484205e-84
2.2069927e-83
9.6531571e-82
4.2127712e-81
4.722762e-81
1.7837822e-81
5.8781983e-82
5.8293659e-82
1.8944265e-81
2.4729008e-79
2.9551652e-77
3.1571232e-75
3.0655351e-73
2.7289997e-71
2.2351123e-69
1.6917744e-67
1.1871554e-65
7.7525389e-64
4.7919218e-62
3.132617e-60
3.8924981e-58
1.3036615e-55
5.509695e-53
2.1408192e-50
7.3165479e-48
2.1828106e-45
5.663457e-43
1.2737967e-40
2.4764131e-38
4.1516871e-36
5.9920773e-34
7.439194e-32
7.9459383e-30
7.310649e-28
5.8059742e-26
3.9913626e-24
2.3828592e-22
1.2392806e-20
5.6295326e-19
2.2637378e-17
8.6536837e-16
2.3547507e-14
2.3739596e-13
2.7764459e-12
5.5831045e-11
1.0398397e-09
2.7605473e-07
2.6938103e-06
4.4094844e-06
4.2624945e-06
4.2081901e-06
4.1540169e-06
3.445747e-06
3.445747e-06
3.7129328e-06
4.6549277e-06
3.1995543e-06
8.4517068e-07
8.1440057e-07
8.1642545e-07
1.9490028e-06
1.840446e-06
6.2672667e-07
7.8109443e-09
8.8435325e-11
5.339875e-12
6.4778355e-13
2.9163982e-13
6.064579e-14
4.1746441e-15
1.2944957e-16
3.3356983e-18
8.767478e-20
2.0773539e-21
4.2055407e-23
7.2547566e-25
1.0621043e-26
1.306081e-28
1.3298583e-30
1.1002966e-32
7.2160806e-35
3.6271506e-37
1.3319768e-39
3.3190913e-42
4.936203e-45
3.3300163e-48
4.1908076e-52
4.5447669e-56
1.5792491e-58
4.7544795e-61
1.2313618e-63
4.2467969e-65
4.8617401e-65
1.2021902e-62
1.1126438e-60
6.2493873e-59
2.2562974e-57
5.4645495e-56
9.0559132e-55
4.98599e-54
5.4485443e-84
1.8729658e-82
6.5865425e-81
2.919507e-80
3.7777075e-80
2.8226967e-80
1.5137485e-80
7.6617972e-81
4.0897324e-80
5.9643726e-78
7.5896027e-76
8.6202699e-74
8.8349239e-72
8.2457789e-70
7.0574735e-68
5.575952e-66
4.0851811e-64
2.7821979e-62
1.7726631e-60
1.0731474e-58
6.9785765e-57
9.1819551e-55
3.1626043e-52
1.2460189e-49
4.3863255e-47
1.3477034e-44
3.6026416e-42
8.3620087e-40
1.6816828e-37
2.9241193e-35
4.3880398e-33
5.6761711e-31
6.3268775e-29
6.080341e-27
5.0463414e-25
3.625648e-23
2.2607533e-21
1.2263798e-19
5.8959122e-18
2.7592739e-16
8.351845e-15
7.8550105e-14
1.6021062e-12
3.9226698e-11
8.9593395e-10
2.2824377e-08
5.7763135e-06
1.2881742e-05
1.2908186e-05
1.2763692e-05
1.2487171e-05
1.2238911e-05
6.471269e-06
7.4159122e-06
1.5000456e-05
2.2153954e-05
1.3388738e-05
9.1190663e-07
8.1908604e-07
8.1551163e-07
2.6549517e-06
6.6044295e-06
6.6731987e-06
1.3156565e-06
1.548055e-09
8.9299354e-11
6.951525e-12
5.5453889e-13
6.149373e-14
5.3371744e-15
1.9700808e-16
4.6392775e-18
1.0815187e-19
2.3954572e-21
4.6418504e-23
7.7130685e-25
1.0903323e-26
1.2948596e-28
1.2729338e-30
1.0188331e-32
6.4765793e-35
3.1258158e-37
1.0746074e-39
2.5299399e-42
3.8924155e-45
4.5593148e-48
1.1804849e-51
1.5471432e-55
5.4383032e-58
1.6276207e-60
4.5691757e-63
6.8089464e-64
1.9928218e-61
2.522521e-59
1.9344365e-57
9.4464862e-56
3.0937522e-54
5.6479381e-53
3.3104522e-52
3.8979509e-52
3.248438e-81
2.431921e-79
5.8730976e-78
2.0034488e-77
2.3453031e-77
1.6900171e-77
8.7057361e-78
4.2353999e-78
1.6809258e-77
2.5451868e-75
3.33192e-73
3.8728191e-71
4.0444956e-69
3.8327305e-67
3.3203839e-65
2.6473614e-63
1.9535679e-61
1.3407473e-59
8.5858861e-58
5.1372441e-56
2.882276e-54
1.5329939e-52
8.5258958e-51
8.4339762e-49
2.2381627e-46
7.8317901e-44
2.2122034e-41
5.2947531e-39
1.0911427e-36
1.9540869e-34
3.0276656e-32
4.0484135e-30
4.663392e-28
4.6300338e-26
3.9702357e-24
2.9477625e-22
1.8973894e-20
1.0673764e-18
5.4963892e-17
2.3986488e-15
4.9598937e-14
5.1641668e-13
1.4515626e-11
3.9530986e-10
9.3171178e-09
3.6387535e-06
1.2635646e-05
1.2903319e-05
6.8724591e-06
4.2037808e-06
4.3803172e-06
6.1521973e-06
6.966258e-06
7.1791793e-06
1.9868318e-05
2.5443642e-05
1.4304568e-05
1.4235822e-06
8.4399308e-07
8.1917928e-07
8.4400433e-07
3.2714219e-06
7.6863626e-06
7.6061755e-06
2.5949935e-06
2.9421491e-09
2.3172909e-10
1.0883215e-11
5.4068272e-13
4.7783073e-14
1.0529609e-14
5.4474049e-16
5.4447407e-18
4.4361698e-20
5.8626981e-22
7.6049973e-24
8.320086e-26
7.6384051e-28
5.9033214e-30
3.8360184e-32
1.9641603e-34
6.1200343e-37
8.3200224e-40
7.5742285e-43
1.8594087e-47
4.9934773e-49
3.3385613e-52
1.2917534e-54
4.3669434e-57
1.2482494e-59
5.4598271e-62
1.7925676e-60
2.9260404e-58
3.0267419e-56
1.998906e-54
8.7743263e-53
2.5953623e-51
4.1960236e-50
2.3850786e-49
3.2582047e-49
1.771605e-78
1.8492528e-76
3.3461101e-75
9.340672e-75
1.0275607e-74
7.2709517e-75
3.6572976e-75
1.7433522e-75
5.7470234e-75
9.0902636e-73
1.2334727e-70
1.47602e-68
1.5797909e-66
1.5278908e-64
1.3475289e-62
1.0908166e-60
8.1531289e-59
5.6562219e-57
3.6568442e-55
2.2132375e-53
1.2585627e-51
6.6758137e-50
3.2529697e-48
1.5150624e-46
8.0127611e-45
5.5236463e-43
4.8362463e-41
7.4029307e-39
1.6092022e-36
3.0124607e-34
4.8125307e-32
6.6297946e-30
7.8777007e-28
8.0572842e-26
7.0816873e-24
5.3433493e-22
3.4636602e-20
1.9562816e-18
1.02798e-16
4.5844496e-15
8.3617541e-14
5.3615997e-13
1.5187266e-11
4.4134484e-10
1.0993823e-08
5.4503228e-06
1.252354e-05
2.3576501e-06
5.1216299e-08
5.1141879e-08
5.1214543e-08
5.1697503e-08
3.919625e-06
1.9911589e-05
4.3333529e-05
5.9395928e-05
4.0571848e-05
1.2885827e-05
3.5023292e-06
8.443384e-07
8.4570905e-07
8.7943453e-07
2.105285e-06
7.6863626e-06
6.8536802e-06
8.5484456e-07
3.0047443e-09
1.2979861e-10
4.8103623e-12
1.7789314e-13
1.9697778e-14
9.4395003e-16
1.6656061e-17
2.476662e-19
3.7551635e-21
5.0747022e-23
5.8952867e-25
5.3141025e-27
3.5620605e-29
1.8427119e-31
7.2755883e-34
2.389677e-36
6.6677918e-39
1.040088e-41
6.2987434e-45
4.5840897e-49
1.9960503e-51
7.5496876e-54
2.4427732e-56
7.5330196e-59
6.952777e-60
2.2533918e-57
2.9595898e-55
2.5700409e-53
1.4909389e-51
5.9493684e-50
1.602106e-48
2.3202857e-47
1.2458413e-46
1.8307621e-46
6.9928144e-76
8.2912275e-74
1.3094285e-72
3.2802843e-72
3.4683586e-72
2.4353653e-72
1.2073166e-72
5.6554619e-73
1.5572052e-72
2.6150518e-70
3.7197041e-68
4.616186e-66
5.088475e-64
5.0442586e-62
4.5404057e-60
3.7401881e-58
2.8366234e-56
1.9920324e-54
1.3010631e-52
7.9356401e-51
4.5400478e-49
2.4233405e-47
1.1856763e-45
5.4445001e-44
2.8042361e-42
1.956119e-40
1.059639e-38
2.6470193e-37
4.3808205e-36
2.3228138e-34
3.5763946e-32
5.3754172e-30
6.5474563e-28
6.7970266e-26
6.0348614e-24
4.5866642e-22
2.9833102e-20
1.6830871e-18
8.7468675e-17
3.931197e-15
8.0855713e-14
5.9966014e-13
1.8329794e-11
5.0174659e-10
3.0902812e-07
3.4986623e-06
2.4340656e-06
5.388684e-08
5.1141879e-08
5.1088164e-08
5.1141866e-08
5.591332e-08
1.4485022e-05
6.1536633e-05
6.2419241e-05
6.2829419e-05
6.2674671e-05
5.9693107e-05
3.6540074e-05
6.6264668e-05
6.0593524e-05
1.3754204e-05
2.2728235e-06
6.7956422e-06
8.8916151e-06
2.5682825e-06
7.8779661e-09
3.3786612e-10
1.2041872e-11
4.0626143e-13
4.6167518e-14
2.0925294e-15
3.8440883e-17
5.6423834e-19
7.3987137e-21
8.1416247e-23
7.3111888e-25
5.9536747e-27
4.2528572e-29
2.3048386e-31
8.9929158e-34
2.1980993e-36
2.5640494e-39
1.0877524e-42
4.9158973e-46
1.88551e-48
7.486674e-51
2.6799589e-53
8.8384703e-56
5.4161612e-58
1.3355275e-56
2.0673481e-54
2.2448005e-52
1.672173e-50
8.6381435e-49
3.1507652e-47
7.7350495e-46
1.0093694e-44
5.0622215e-44
7.7050379e-44
2.1283819e-73
2.6575316e-71
3.9177915e-70
9.244997e-70
9.5203962e-70
6.6723289e-70
3.278234e-70
1.5040347e-70
3.2787082e-70
6.0279495e-68
9.1510549e-66
1.1905916e-63
1.3605469e-61
1.3882976e-59
1.2793727e-57
1.0743836e-55
8.2783376e-54
5.8843011e-52
3.8794215e-50
2.3821502e-48
1.3672187e-46
7.3101511e-45
3.5907198e-43
1.6435971e-41
8.0174641e-40
5.1447893e-38
3.1356397e-36
9.515755e-35
1.2856439e-33
1.0563757e-32
9.9374176e-32
2.803257e-30
2.4810849e-28
2.614889e-26
2.5469513e-24
2.1606823e-22
1.5454452e-20
9.1051916e-19
4.648744e-17
2.0602342e-15
5.1392922e-14
5.275294e-13
1.8168131e-11
7.0560374e-10
2.1870925e-07
1.0898692e-06
6.6762245e-07
1.2986079e-07
1.0204483e-07
5.0903787e-08
1.130657e-07
4.7984196e-07
1.6208417e-05
3.1829542e-05
4.6465391e-05
4.196308e-05
4.3291292e-05
6.3157455e-05
6.8769599e-05
6.8926962e-05
6.9162289e-05
6.9326828e-05
3.1315053e-05
1.0153536e-05
8.5782948e-06
2.5365507e-06
8.8756597e-09
3.5481566e-10
1.1731583e-11
3.7589135e-13
6.1306954e-14
2.6762688e-15
4.3141128e-17
6.1973775e-19
8.1415723e-21
8.9204075e-23
7.9208059e-25
5.3107064e-27
2.5831705e-29
8.9566275e-32
1.9714286e-34
2.1806075e-37
8.6441336e-41
1.0811979e-43
5.5163178e-46
2.6932321e-48
1.2436592e-50
5.5830135e-53
2.8035665e-55
3.9154886e-56
1.1624421e-53
1.4604492e-51
1.3381347e-49
8.7079881e-48
4.0481558e-46
1.3540435e-44
3.025678e-43
3.5657874e-42
1.6611533e-41
2.5595041e-41
5.8298136e-71
6.6943902e-69
9.5379712e-68
2.1763021e-67
2.2042185e-67
1.5468727e-67
7.5700503e-68
3.3507539e-68
5.0718717e-68
1.0946161e-65
1.8401572e-63
2.5562794e-61
3.0617076e-59
3.2372245e-57
3.0681588e-55
2.6341848e-53
2.0657786e-51
1.489251e-49
9.9163667e-48
6.1312132e-46
3.5299858e-44
1.887697e-42
9.2935357e-41
4.2799075e-39
2.0201553e-37
1.1029436e-35
5.9703761e-34
2.1340623e-32
4.0884697e-31
4.2984326e-30
2.9590362e-29
1.8854699e-28
1.9749595e-27
7.0862465e-26
5.0719222e-24
2.4692349e-22
8.0470383e-21
2.9775803e-19
1.4026154e-17
6.4567768e-16
2.0864228e-14
3.6656389e-13
9.7775912e-12
4.4351864e-10
3.2142399e-08
3.3350952e-07
6.9704649e-07
2.8927034e-07
1.9268863e-07
5.0641373e-08
3.9458996e-07
8.4806727e-06
3.3518864e-06
1.6947795e-06
7.5704078e-07
4.4156423e-07
3.7205548e-07
3.5990406e-07
4.1630626e-05
6.9187116e-05
6.9326828e-05
6.9331782e-05
6.9362469e-05
2.5181905e-05
9.4423664e-06
3.6259751e-06
8.6542047e-09
3.1083608e-10
2.1433343e-11
1.0735272e-12
7.5865735e-14
2.2454954e-15
3.4743189e-17
4.4103253e-19
4.7254399e-21
4.0672119e-23
2.7067173e-25
1.2769271e-27
3.990194e-30
7.4992475e-33
7.508334e-36
1.0054875e-38
5.0781894e-41
2.9386123e-43
1.6906651e-45
9.6627836e-48
5.0666751e-50
2.094385e-52
1.8327459e-54
5.7680744e-53
7.8416393e-51
8.2351888e-49
6.4790136e-47
3.7325986e-45
1.5720155e-43
4.8181925e-42
9.7832656e-41
1.0428998e-39
4.5033332e-39
6.924397e-39
2.917213e-68
1.4015846e-66
1.9603026e-65
4.4007632e-65
4.4132402e-65
3.1116399e-65
1.5325171e-65
6.1601697e-66
4.2033666e-66
1.4247483e-63
2.9070689e-61
4.4738269e-59
5.7221687e-57
6.3390467e-55
6.2227618e-53
5.4915946e-51
4.399438e-49
3.2234406e-47
2.1732772e-45
1.3550558e-43
7.8363308e-42
4.1938649e-40
2.0678216e-38
9.5856512e-37
4.4517464e-35
2.1467039e-33
9.7501111e-32
3.7576063e-30
1.0672541e-28
1.6148261e-27
1.1598657e-26
5.1343157e-26
2.3495916e-25
2.9468941e-24
3.1178168e-22
1.8963213e-20
3.1327533e-19
2.3507587e-18
1.9569459e-17
3.1504287e-16
8.0131357e-15
1.9009404e-13
2.2626999e-12
2.3116639e-11
8.3921956e-11
1.1991393e-07
3.9730131e-07
1.6210971e-07
5.2852929e-08
5.0498155e-08
3.8008368e-07
1.0732833e-05
1.4477338e-05
1.2921523e-05
1.1620428e-05
3.1313149e-06
3.5791463e-07
3.2650741e-07
3.0287669e-07
4.5764655e-06
5.3897221e-05
6.9326828e-05
6.8583033e-05
2.3628327e-05
7.4137326e-06
4.3456036e-06
9.7061089e-08
1.0231213e-09
3.8059586e-11
9.4791291e-13
4.3964137e-14
1.1141106e-15
1.6373514e-17
1.7707076e-19
1.4430741e-21
8.7409227e-24
3.7600794e-26
1.0801532e-28
2.3140557e-31
8.4885446e-34
5.9052433e-36
4.4620312e-38
3.356362e-40
2.0077572e-42
1.0131221e-44
4.3851744e-47
1.6494327e-49
7.4526763e-52
1.4218933e-52
3.8060667e-50
4.2581749e-48
3.8013883e-46
2.6056157e-44
1.3388539e-42
5.1219974e-41
1.4356385e-39
2.6460411e-38
2.5554306e-37
1.0229292e-36
1.5559261e-36
3.7188748e-65
2.6382809e-64
3.4921707e-63
7.8080861e-63
7.7878604e-63
5.5234302e-63
2.7428456e-63
1.0309859e-63
8.4781612e-65
1.0280435e-61
3.2948922e-59
6.0877257e-57
8.5782405e-55
1.011133e-52
1.037104e-50
9.4562364e-49
7.7703897e-47
5.8040799e-45
3.9676909e-43
2.4981828e-41
1.4528802e-39
7.7949126e-38
3.8504241e-36
1.7883868e-34
8.1463389e-33
3.6140487e-31
1.4615075e-29
5.9032278e-28
2.3439165e-26
4.7084086e-25
3.5037452e-24
1.2567281e-23
3.6554827e-23
2.0630706e-22
3.5027711e-20
2.4453112e-18
3.3935137e-17
1.608345e-16
4.9475224e-16
2.153687e-15
1.6120067e-14
4.3773553e-14
8.385947e-14
2.1782612e-11
3.0449836e-08
3.8849101e-07
1.7463066e-07
5.0351858e-08
5.032883e-08
5.0380733e-08
5.0493302e-08
4.3594464e-06
2.4342682e-05
2.5180607e-05
2.5188576e-05
1.0929159e-05
3.3029137e-07
3.0286493e-07
3.0005812e-07
3.0265905e-07
2.0338857e-06
2.9735122e-05
3.6129965e-05
1.2867767e-05
2.5978501e-06
2.4515315e-06
1.8933048e-07
1.3665838e-09
2.9720842e-11
2.0694173e-12
7.872213e-14
4.4525081e-16
3.5364054e-18
3.0244538e-20
1.7653964e-22
7.8678984e-25
3.7707303e-27
2.8151501e-29
2.4669322e-31
2.171807e-33
1.8307862e-35
1.387025e-37
9.0914706e-40
4.9528415e-42
2.2740483e-44
8.6058665e-47
2.8527404e-49
3.0120853e-51
1.8276684e-49
1.9986689e-47
1.8802201e-45
1.4533698e-43
8.7985869e-42
4.0521087e-40
1.4080439e-38
3.6017486e-37
6.0271908e-36
5.2851476e-35
1.9643102e-34
2.9404886e-34
4.9225519e-62
5.9427883e-62
5.5188281e-61
1.2344364e-60
1.2292087e-60
8.7809542e-61
4.372217e-61
1.6478065e-61
1.1296774e-62
2.2421475e-60
1.3585467e-57
3.2658309e-55
5.2527547e-53
6.7760271e-51
7.3937891e-49
7.0587221e-47
6.0126895e-45
4.6303301e-43
3.2471776e-41
2.0875635e-39
1.2373285e-37
6.7854754e-36
3.454043e-34
1.627457e-32
7.0257467e-31
2.8186555e-29
1.2453777e-27
9.8209508e-26
7.9705194e-24
1.8643188e-22
1.1842133e-21
3.1402824e-21
6.0918593e-21
2.3630211e-20
4.2405963e-18
1.8547121e-16
1.7832114e-15
6.9989715e-15
1.7909457e-14
3.1126089e-14
3.3797928e-14
6.3326555e-13
1.4839466e-11
5.127517e-09
7.7746098e-07
1.4044538e-06
7.7923766e-07
7.0222578e-08
5.0376392e-08
5.0498154e-08
5.0764327e-08
5.2125636e-08
2.7210292e-06
2.5156371e-05
2.5189134e-05
8.8321909e-06
2.9907012e-07
3.000505e-07
2.9982051e-07
2.9984706e-07
3.0784974e-07
5.1633961e-07
2.9354589e-05
1.2716654e-05
3.6856809e-07
6.6516255e-08
7.2281223e-08
1.0778686e-09
1.0714664e-10
6.5899626e-12
6.5751399e-14
2.6033988e-16
1.0865805e-18
4.8028105e-21
4.2338555e-23
5.2350455e-25
6.0917175e-27
6.6753742e-29
6.7322215e-31
5.8616038e-33
4.300108e-35
2.6796379e-37
1.4422081e-39
6.8145407e-42
2.7100574e-44
1.0600556e-46
7.0040653e-49
6.4748225e-49
9.0997128e-47
8.4699805e-45
6.8050946e-43
4.6422102e-41
2.5075724e-39
1.0372175e-37
3.2721872e-36
7.6316527e-35
1.1610288e-33
9.2719748e-33
3.2079672e-32
4.7122331e-32
5.2160413e-59
2.7729199e-59
8.004639e-59
1.7575384e-58
1.7557601e-58
1.2655194e-58
6.3672125e-59
2.682608e-59
1.1875962e-60
4.4578837e-59
3.8216523e-56
2.3266833e-53
6.0230805e-51
9.5062124e-49
1.1523711e-46
1.1754799e-44
1.0475702e-42
8.3224185e-41
5.9709689e-39
3.8932952e-37
2.3226243e-35
1.2722699e-33
6.4129246e-32
2.9769087e-30
1.2703459e-28
5.0451659e-27
2.1242366e-25
1.3281924e-23
8.8452546e-22
2.203305e-20
1.5406013e-19
3.9892073e-19
6.2986366e-19
1.4541985e-18
1.3872879e-16
4.7150341e-15
3.9059802e-14
1.5282112e-13
3.7862709e-13
6.9359987e-13
6.1211627e-13
4.1672191e-12
8.8628392e-11
9.9525934e-08
1.2550169e-06
1.4044538e-06
4.1750601e-07
6.0281109e-08
5.0608694e-08
4.9780757e-08
5.1902222e-08
5.5041782e-08
7.1755971e-08
2.0388627e-05
2.5225039e-05
3.5240284e-06
3.0134724e-07
2.9983095e-07
2.998284e-07
2.9979942e-07
2.9979499e-07
3.8529031e-06
4.7484931e-05
1.1443455e-05
2.0363298e-07
1.0253935e-08
7.2667816e-09
2.4939351e-09
1.5346175e-10
4.1652058e-12
2.9358929e-14
1.2118536e-16
4.758915e-19
4.1942921e-21
5.8610009e-23
7.9509801e-25
9.3822928e-27
9.5096665e-29
8.3342622e-31
6.3723697e-33
4.3020415e-35
2.5488289e-37
1.3187176e-39
6.2257321e-42
2.9819721e-44
1.4036543e-46
3.3544531e-48
4.3088903e-46
3.7087624e-44
2.9596183e-42
2.0776288e-40
1.253532e-38
6.0339942e-37
2.2443052e-35
6.4297792e-34
1.3682839e-32
1.8971002e-31
1.3848852e-30
4.4749241e-30
6.4395514e-30
4.4307486e-56
1.9962283e-56
1.1472266e-56
2.2845157e-56
2.2923785e-56
1.6689904e-56
8.6168382e-57
3.1244687e-57
1.3264146e-58
5.0570224e-59
1.5528282e-56
2.2339808e-51
3.0171433e-48
7.3721748e-46
1.0748504e-43
1.2159526e-41
1.1635823e-39
9.7598078e-38
7.3253628e-36
4.9828481e-34
3.0869046e-32
1.7360446e-30
8.8594177e-29
4.4160636e-27
2.6735299e-25
1.9624466e-23
8.5784146e-22
1.4611695e-20
1.2751413e-19
1.1153912e-18
8.2513605e-18
2.6582103e-17
4.4171328e-17
7.1446949e-17
3.6827288e-15
1.811792e-13
1.3591003e-12
1.9271388e-12
1.8340954e-12
7.9336645e-13
8.2493203e-13
9.5870146e-12
2.3496971e-10
2.4943488e-07
1.0670047e-06
3.6202182e-07
5.3051372e-08
5.0839022e-08
4.9749447e-08
4.8430156e-08
5.753406e-08
7.1415018e-08
8.8639513e-08
6.7989405e-06
2.5399267e-05
4.1976069e-06
3.584684e-07
3.0183654e-07
2.9979112e-07
5.3288065e-06
2.5309729e-05
4.5931602e-05
4.817435e-05
2.8132724e-05
1.7012038e-08
1.4697649e-08
1.5400971e-08
4.3855513e-09
3.1722015e-13
6.7311908e-13
5.3954287e-15
4.8387133e-17
3.6514129e-19
4.229128e-21
5.9800004e-23
7.7787792e-25
8.7534111e-27
8.5364117e-29
7.253341e-31
5.3822196e-33
3.4783228e-35
1.9709897e-37
1.0275399e-39
5.1753932e-42
2.6392265e-44
3.198863e-46
1.9131182e-45
1.6563365e-43
1.2369403e-41
8.5434637e-40
5.3306194e-38
2.8549389e-36
1.2239917e-34
4.0995882e-33
1.0683025e-31
2.0788659e-30
2.635354e-29
1.7658956e-28
5.3498044e-28
7.5359889e-28
3.0870744e-53
1.3511561e-53
2.1127949e-54
2.7831326e-54
2.7558852e-54
2.0414151e-54
9.4099947e-55
6.4849843e-56
6.3956191e-56
1.3624515e-53
6.377728e-51
3.0377116e-49
4.6245332e-44
2.1662192e-41
3.9191165e-39
5.0910701e-37
5.4829405e-35
5.1796674e-33
4.3788577e-31
3.3083115e-29
2.4581386e-27
3.3399349e-25
6.8625714e-23
2.8995866e-21
2.4048431e-20
8.1074791e-20
4.2732028e-19
4.2919044e-18
1.7514466e-17
4.680151e-17
1.3745283e-16
5.0212595e-16
1.6465404e-15
1.701948e-14
1.3402802e-13
1.3229201e-12
1.1387826e-11
6.1566911e-12
1.6418636e-12
8.808261e-13
1.9284801e-12
2.6454447e-09
1.3759835e-07
2.2870909e-07
1.324536e-07
1.0092804e-07
5.9307387e-08
5.2156231e-08
4.972101e-08
4.8631435e-08
1.2841459e-07
2.1226756e-07
5.1043814e-07
5.8815876e-06
2.5476054e-05
1.998951e-05
3.7047746e-07
7.0681204e-07
2.393942e-05
4.8769609e-05
4.8587843e-05
4.8557932e-05
4.8867929e-05
2.9224665e-05
1.6183569e-08
1.5807161e-08
1.5706977e-08
1.5974167e-09
3.0151521e-14
2.7440361e-14
1.5011811e-15
2.9323805e-17
2.9222278e-19
3.6631733e-21
5.00481e-23
6.05929e-25
6.4284523e-27
5.9772621e-29
4.8573702e-31
3.4714524e-33
2.2139682e-35
1.3036783e-37
7.283546e-40
3.8690865e-42
2.6581023e-44
2.9837657e-45
7.5264416e-43
5.1601703e-41
3.3725205e-39
2.0387874e-37
1.1422542e-35
5.4566622e-34
2.0880099e-32
6.3151241e-31
1.5013479e-29
2.6801033e-28
3.1177814e-27
1.9263852e-26
5.4967989e-26
7.5788865e-26
1.798694e-50
7.8201859e-51
7.1739637e-52
3.1735848e-52
3.0890945e-52
2.273217e-52
1.1775865e-52
4.2008066e-53
1.6987414e-52
4.1520039e-50
2.7712639e-47
1.2043705e-44
4.2487746e-42
1.3685173e-39
2.5657617e-37
3.5530881e-35
3.9160191e-33
3.6592864e-31
3.0128773e-29
2.2326282e-27
1.5030162e-25
9.3302311e-24
5.9782432e-22
4.3344756e-20
4.9537145e-18
2.8166211e-16
3.9623497e-15
1.7227274e-14
3.3481517e-14
4.1146481e-14
4.9478485e-14
8.9754758e-14
1.5953993e-13
3.6348241e-13
3.5205591e-12
7.8404485e-12
1.4221483e-11
6.8901518e-12
1.6715177e-12
1.3543694e-12
6.0878841e-10
1.8547151e-09
1.1983817e-07
2.5309093e-07
3.7338972e-07
1.2390259e-06
5.7577731e-07
1.7000997e-07
5.2003516e-08
5.5735506e-08
5.450478e-07
8.5432205e-06
2.5473516e-06
7.8208624e-06
2.5475921e-05
2.55332e-05
5.3822778e-07
3.4667231e-06
4.2785808e-05
4.8822513e-05
4.874221e-05
4.8907503e-05
4.9384876e-05
5.6746086e-06
1.9119564e-08
1.6411964e-07
6.2796657e-11
1.4009534e-11
1.3305935e-14
1.4105939e-14
7.6078639e-16
1.7429581e-17
1.9316336e-19
2.4025225e-21
3.0757277e-23
3.4919748e-25
3.5340728e-27
3.1789703e-29
2.5543651e-31
1.8664934e-33
1.260069e-35
7.8433099e-38
4.4273027e-40
2.0059152e-42
4.7772898e-44
3.3676499e-42
2.1620794e-40
1.3091533e-38
7.5240442e-37
4.0335275e-35
2.0405308e-33
8.7235291e-32
2.9905765e-30
8.2010138e-29
1.7859248e-27
2.9352619e-26
3.1448781e-25
1.8005615e-24
4.8651086e-24
6.569656e-24
8.8952711e-48
3.8766615e-48
3.256356e-49
3.5771358e-50
3.249218e-50
2.3756591e-50
1.3452865e-50
5.3101882e-51
1.1391784e-50
1.6951086e-48
6.9775617e-46
3.8884302e-43
1.441607e-40
5.0999638e-38
1.0960667e-35
1.5950247e-33
1.7836756e-31
1.6760424e-29
1.3781689e-27
1.0142371e-25
6.7432336e-24
4.0245288e-22
2.2465315e-20
1.5552804e-18
1.858181e-16
1.2053691e-14
1.8796306e-13
8.6378708e-13
1.6956167e-12
1.7470522e-12
1.5589205e-12
1.6249052e-12
1.9651678e-12
2.4671202e-12
6.9949798e-12
9.4426678e-12
9.7725592e-12
6.5504435e-12
9.4119523e-09
3.3489116e-08
3.7819924e-09
4.2790961e-09
1.5620466e-08
7.6330782e-07
3.997212e-06
4.9715271e-06
4.0968887e-06
4.2162359e-07
6.174878e-08
1.1327953e-07
2.8180333e-05
2.3970511e-05
2.4728964e-06
6.4433508e-06
2.5577142e-05
2.5578424e-05
1.3659495e-05
4.2194468e-06
2.7341465e-05
4.8995697e-05
4.8810523e-05
4.8852469e-05
1.2394225e-05
6.6510639e-08
1.2103834e-07
1.8135561e-07
2.6111319e-10
8.8226796e-15
1.2192481e-14
1.2138282e-14
3.607822e-16
7.810168e-18
9.1130938e-20
1.1029274e-21
1.3605464e-23
1.5373166e-25
1.5666439e-27
1.4535144e-29
1.2258318e-31
9.3391524e-34
6.3514864e-36
3.7303718e-38
1.6315466e-40
2.9981237e-42
1.1515426e-41
9.1209641e-40
5.0925794e-38
2.7340732e-36
1.3961179e-34
6.7434315e-33
3.0510278e-31
1.1641325e-29
3.5940321e-28
8.9813868e-27
1.7995726e-25
2.7324786e-24
2.7057729e-23
1.4431702e-22
3.7136975e-22
4.9114863e-22
3.7775469e-45
1.6604676e-45
1.4306461e-46
4.9424874e-48
3.1952721e-48
2.3359566e-48
1.3370901e-48
5.8893005e-49
5.8417748e-49
1.0613583e-46
3.3675238e-44
1.3662735e-41
7.2816938e-39
1.8718534e-36
2.8281843e-34
3.3170351e-32
3.264145e-30
2.7978748e-28
2.1331147e-26
1.463861e-24
9.0729557e-23
5.0423215e-21
2.618922e-19
1.6642957e-17
1.7040616e-15
9.6479379e-14
1.4067957e-12
6.4325163e-12
1.2772347e-11
1.4586227e-11
1.1606332e-11
8.2678809e-12
8.1834468e-12
7.7776701e-12
8.6068399e-12
8.4654113e-12
6.8610926e-12
6.5362641e-12
4.2022781e-08
4.7106316e-08
9.1163851e-09
6.5481352e-09
6.627392e-09
4.1338041e-06
4.9715271e-06
4.9715271e-06
4.9715271e-06
6.1869945e-07
9.1831645e-08
2.7135497e-05
0.00011205189
3.2523026e-05
1.6643011e-06
1.6965003e-06
2.5631868e-05
2.5628428e-05
2.5578424e-05
1.4960773e-05
1.5464402e-05
3.053511e-05
3.4057294e-05
7.8681237e-06
6.6539818e-08
1.3025643e-08
1.574234e-07
1.2433573e-07
2.1571531e-13
1.4107484e-14
1.446371e-14
6.3059034e-15
1.1957854e-16
2.3520069e-18
2.9459337e-20
3.6710046e-22
4.8075427e-24
5.9331354e-26
6.5239859e-28
6.3820745e-30
5.4213764e-32
3.873309e-34
2.2532694e-36
9.7518427e-39
8.9987501e-41
9.7583298e-42
3.7553259e-39
1.9503018e-37
9.7517825e-36
4.6766291e-34
2.1403862e-32
9.3833246e-31
3.7961616e-29
1.2962211e-27
3.6248327e-26
8.3001232e-25
1.5365976e-23
2.1609362e-22
1.9836607e-21
9.9194964e-21
2.4473992e-20
3.1635833e-20
1.3904471e-42
6.1949307e-43
5.6113831e-44
1.081797e-45
3.0031906e-46
2.1971583e-46
1.2075752e-46
4.78555e-47
4.5290655e-47
1.5183325e-44
4.9399541e-42
9.6831579e-40
1.5063884e-37
1.9695694e-35
2.2003617e-33
2.1301803e-31
1.8185622e-29
1.385816e-27
9.5113506e-26
5.9129655e-24
3.3196266e-22
1.6672456e-20
7.7617641e-19
4.2568782e-17
3.6694353e-15
1.9343011e-13
2.8441526e-12
1.3312669e-11
2.8369026e-11
3.4042124e-11
3.4996579e-11
2.2748111e-11
1.6812753e-11
1.1587204e-11
9.0392871e-12
6.5505145e-12
6.5362641e-12
6.5363081e-12
3.196594e-08
4.7068908e-08
1.4792753e-08
6.627392e-09
1.4060592e-06
4.9356566e-06
4.9535887e-06
4.9715271e-06
2.3597422e-06
3.4592181e-07
1.6209931e-07
7.3029657e-05
0.00011447461
4.6213571e-05
2.892891e-07
9.1217289e-08
8.7358955e-06
2.5578424e-05
2.5511387e-05
2.5444349e-05
1.6113895e-05
5.5083679e-08
5.1744167e-07
7.6535182e-08
1.9784768e-08
1.4777145e-09
3.2411338e-08
2.5276874e-09
2.4170215e-14
1.3432473e-14
1.3338467e-14
1.3627528e-15
2.4171201e-17
5.0616835e-19
7.7733342e-21
1.1122392e-22
1.6408535e-24
2.222842e-26
2.519721e-28
2.3455303e-30
1.7279559e-32
9.5959631e-35
3.7669624e-37
1.5917281e-39
9.9392511e-41
1.4768372e-38
7.2246302e-37
3.3792007e-35
1.5220057e-33
6.5668706e-32
2.7100576e-30
1.07977e-28
3.9187226e-27
1.2040725e-25
3.0693169e-24
6.4752341e-23
1.1108624e-21
1.4476788e-20
1.2351466e-19
5.8575163e-19
1.4158266e-18
1.8240414e-18
4.4686404e-40
2.0269207e-40
1.9431056e-41
3.3054014e-43
2.7060182e-44
1.9385821e-44
1.0700647e-44
4.1091885e-45
3.2534516e-45
7.9139118e-44
1.9579614e-41
3.5377934e-39
5.137134e-37
5.8389597e-35
5.8403794e-33
5.3124231e-31
4.337676e-29
3.1873093e-27
2.1172131e-25
1.2763516e-23
6.9412087e-22
3.3626381e-20
1.5286203e-18
8.60032e-17
6.9951353e-15
2.9399627e-13
3.3596885e-12
6.0513906e-12
7.9563522e-11
1.2313406e-10
5.7878288e-10
1.1513515e-10
1.882277e-11
9.0680092e-12
8.9017544e-12
6.6273774e-12
2.8537733e-07
9.6234146e-08
2.4136886e-08
2.400485e-08
8.8746452e-09
7.0213902e-09
2.5160608e-06
4.9004933e-06
4.9350638e-06
4.9482985e-06
1.1675481e-06
5.4104853e-07
3.1143838e-07
8.3358868e-05
0.00011695599
5.0246198e-05
9.2700172e-08
6.1699835e-08
6.150175e-07
1.9981038e-05
2.5444349e-05
2.2339922e-05
9.8020733e-07
4.8953012e-09
2.1869404e-08
2.0226493e-08
5.0523761e-08
7.7182073e-11
6.6873076e-11
1.827989e-14
-2.6206579e-15
1.5023447e-14
6.9410601e-15
1.0540886e-16
3.5657037e-18
1.0172529e-19
1.205605e-21
2.1860884e-23
5.2861685e-25
6.9032118e-27
6.8682856e-29
5.0256084e-31
2.5734709e-33
8.7769634e-36
2.0810628e-38
1.6897824e-39
5.421249e-38
2.5555517e-36
1.1213558e-34
4.7555783e-33
1.9429209e-31
7.5926179e-30
2.8391144e-28
1.0268594e-26
3.3526706e-25
9.3254861e-24
2.1820243e-22
4.2629763e-21
6.7809942e-20
8.1907665e-19
6.5395793e-18
3.0053687e-17
7.5361542e-17
1.0848919e-16
1.2613536e-37
5.8536379e-38
5.9695336e-39
1.0686713e-40
1.1228402e-42
1.5382324e-42
9.4715678e-43
3.4756111e-43
7.5423114e-44
1.0331821e-43
9.2157584e-42
2.1824612e-39
4.4450228e-37
8.8659007e-35
1.4482693e-32
1.8047841e-30
1.8525875e-28
1.633574e-26
1.2687243e-24
8.7804428e-23
5.3948449e-21
3.0225022e-19
1.9005073e-17
1.6480791e-15
8.0993285e-14
1.2905939e-12
4.1092288e-12
4.1745908e-11
6.5601956e-09
1.2279846e-08
5.2515215e-08
1.4855543e-08
2.0559949e-10
9.2316012e-12
9.057511e-12
1.0534292e-07
4.4283864e-07
4.4694425e-07
1.551014e-07
1.0584085e-08
9.0057899e-09
7.4203337e-09
3.2788735e-06
4.7892071e-06
4.6988901e-06
1.7296482e-06
1.0382991e-06
7.4273003e-07
8.2542653e-07
9.8264638e-05
0.00011837874
3.7775746e-05
6.1699082e-08
4.8620532e-08
2.1868277e-07
2.53001e-06
4.9704155e-06
2.8155067e-06
1.1661297e-09
7.2687815e-10
2.4141478e-08
2.1954622e-10
3.9647454e-09
6.5328552e-12
5.6887182e-12
1.0240256e-14
8.4225473e-15
8.247427e-15
9.7285436e-16
9.2443924e-18
7.7019176e-19
1.5661799e-20
-1.2366168e-21
2.6431072e-23
1.0075644e-25
9.5294111e-28
6.8673493e-30
3.8734633e-32
2.2369533e-34
1.5400676e-36
3.4507707e-38
1.7209378e-37
8.5902801e-36
3.5340347e-34
1.4152757e-32
5.4841942e-31
2.0446158e-29
7.2758446e-28
2.4730185e-26
8.096706e-25
2.374905e-23
5.9941732e-22
1.2971482e-20
2.3666269e-19
3.5027221e-18
3.9495998e-17
2.9883635e-16
1.3305768e-15
3.3607872e-15
5.2081225e-15
3.1429571e-35
1.5001025e-35
1.6353346e-36
3.1406109e-38
1.0665685e-40
1.914231e-40
8.1421974e-41
2.7768714e-41
6.7735055e-42
4.2909114e-42
1.1225161e-40
3.3447431e-38
5.9556845e-36
8.2175258e-34
9.7170399e-32
9.8125857e-30
8.6461072e-28
6.7363171e-26
4.704734e-24
2.9073874e-22
1.5810256e-20
7.6679967e-19
3.6684507e-17
2.1103999e-15
7.8394466e-14
7.7526298e-14
1.0433034e-10
2.792143e-07
2.0634051e-05
3.6256486e-05
1.3809032e-05
8.2070355e-07
1.5609051e-09
4.1791339e-11
1.0405324e-11
1.1144813e-10
3.2738772e-07
4.4694425e-07
4.4694425e-07
9.3205014e-08
1.0584085e-08
1.3518534e-08
6.0241547e-07
8.6176003e-07
1.0532543e-06
1.9697266e-06
1.4136698e-06
1.036981e-06
2.1874281e-05
0.00012830429
0.00011907075
2.0977703e-05
4.8620532e-08
4.3189761e-08
4.1151825e-08
7.1233711e-08
3.6946332e-08
2.3145557e-09
2.0259835e-10
4.181574e-10
1.2000468e-09
2.8777371e-11
7.1557253e-12
4.0493653e-12
1.3346226e-12
1.7181348e-14
1.5943053e-14
6.367554e-15
8.0980111e-16
4.8257133e-17
3.0953758e-19
7.9536645e-23
-1.7255102e-20
5.6009559e-23
2.2185231e-26
4.7578872e-28
6.5550546e-30
8.3917957e-32
1.0517815e-33
1.1190635e-35
5.9430185e-37
2.6396331e-35
1.0508284e-33
3.9803996e-32
1.4697736e-30
5.2487079e-29
1.7985001e-27
5.8591241e-26
1.8137562e-24
5.3488938e-23
1.3951925e-21
3.1555299e-20
6.3180555e-19
1.1033748e-17
1.5602394e-16
1.6306509e-15
1.109095e-14
4.0711963e-14
7.6852158e-14
7.6495124e-14
6.9448576e-33
3.4281355e-33
4.0169223e-34
8.2696322e-36
3.41714e-38
8.1412686e-39
5.5038183e-39
2.2842929e-39
5.3346845e-40
1.6000904e-40
3.3867089e-39
1.2058906e-37
1.2303048e-35
1.7154014e-33
2.0482271e-31
2.0951085e-29
1.8550693e-27
1.4372704e-25
8.9329721e-24
5.4257542e-22
3.0051217e-20
1.4281047e-18
6.9131075e-17
2.4060945e-15
5.630816e-15
1.5438223e-12
2.6457311e-07
4.9320939e-05
0.00010676684
0.0001066618
0.00010101727
2.9146167e-05
3.0988469e-07
3.4759185e-09
1.5484069e-10
1.044939e-09
1.2036157e-08
1.6126388e-07
2.3339987e-07
1.6791849e-07
1.8619127e-08
1.8635923e-08
3.37629e-08
2.5270056e-07
1.209963e-06
6.9702464e-06
5.1974861e-06
2.273568e-06
0.00010174645
0.00012984678
0.0001058078
6.3269912e-06
6.8167857e-08
5.5756974e-08
2.1149125e-10
7.6198551e-10
1.0549555e-09
1.3647688e-10
3.5281377e-11
3.8043824e-11
2.3883989e-11
1.8387749e-11
4.2873476e-12
4.020926e-12
2.0701393e-12
6.3467686e-13
1.1707206e-13
3.3185076e-14
5.9544078e-15
5.1327989e-16
3.8238495e-20
-2.3687303e-20
-5.7555897e-20
2.4448901e-22
7.9304958e-26
4.1878689e-27
7.4239495e-29
1.3452937e-30
1.7964292e-32
2.3780659e-34
3.6233255e-35
2.9454023e-33
1.0603626e-31
3.7461695e-30
1.2897557e-28
4.284432e-27
1.3606503e-25
4.0910105e-24
1.1613327e-22
3.0891931e-21
7.0524218e-20
1.3714077e-18
2.4515193e-17
4.1732094e-16
5.7618586e-15
5.0522289e-14
2.5387814e-13
6.1186986e-13
7.7216513e-13
3.7491215e-13
1.3666988e-30
7.0174842e-31
8.8799422e-32
1.9605494e-33
9.1467159e-36
1.2713897e-38
3.3359431e-37
1.8210703e-37