/*--------------------------------*- C++ -*----------------------------------*\
  =========                 |
  \\      /  F ield         | OpenFOAM: The Open Source CFD Toolbox
   \\    /   O peration     | Website:  https://openfoam.org
    \\  /    A nd           | Version:  9
     \\/     M anipulation  |
\*---------------------------------------------------------------------------*/
FoamFile
{
    format      ascii;
    class       volScalarField;
    location    "0.92";
    object      p;
}
// * * * * * * * * * * * * * * * * * * * * * * * * * * * * * * * * * * * * * //

dimensions      [1 -1 -2 0 0 0 0];

internalField   nonuniform List<scalar> 
10000
(
0
0.0025826112
0.0085400979
0.017199824
0.028376902
0.042244822
0.058105849
0.075794026
0.095033585
0.11537816
0.13641018
0.15765463
0.17856935
0.19863607
0.21728183
0.23387009
0.24777885
0.25837118
0.2649283
0.26670512
0.26296272
0.25293694
0.2358788
0.21119729
0.17843348
0.13721164
0.087300499
0.028665812
-0.038522617
-0.11384043
-0.19648371
-0.28519237
-0.37821621
-0.47321323
-0.56708758
-0.65587628
-0.7347188
-0.79780157
-0.83830795
-0.84887544
-0.82174952
-0.74671882
-0.61356326
-0.42669889
-0.20044996
0.11922281
0.71443641
1.4721979
2.3390563
3.2484382
3.9428816
4.1966356
4.2600061
3.9917985
3.3733338
2.4686917
1.507291
0.65880737
0.13460143
-0.074388377
0.0018718902
0.097916433
0.26170516
0.30385076
0.25900727
0.16607919
0.052224279
-0.069550534
-0.20554046
-0.35709752
-0.5222763
-0.69853227
-0.8826406
-1.0713729
-1.2618365
-1.4515904
-1.6386829
-1.8215458
-1.9988988
-2.1697217
-2.3332395
-2.4888405
-2.6360368
-2.7744457
-2.903796
-3.0239162
-3.1346987
-3.2361322
-3.3282985
-3.4111931
-3.4850414
-3.5501609
-3.6069614
-3.655696
-3.696479
-3.732442
-3.7600567
-3.7804777
-3.7946664
-3.7996755
-0.0041884221
-0.0010288294
0.005343253
0.014310967
0.025743339
0.040030941
0.056202286
0.074330388
0.093982991
0.11477914
0.13630832
0.15806257
0.17955516
0.20025446
0.21954097
0.23680023
0.25140305
0.26262552
0.26973087
0.27201325
0.26869726
0.25895851
0.24207256
0.21738267
0.18426165
0.14219108
0.090814347
0.029908039
-0.040585613
-0.12044517
-0.20907703
-0.30548686
-0.40820412
-0.51514252
-0.62348312
-0.72958845
-0.82893375
-0.91604095
-0.98443311
-1.0273873
-1.0385266
-1.0077005
-0.92572847
-0.81510038
-0.70041836
-0.47740921
0.15032954
1.5612067
2.7768226
3.7710278
4.2384866
4.3960286
4.0575109
3.8064231
3.2692266
2.6962595
1.1246541
0.11822532
-0.40105103
-0.49444884
-0.37135273
0.20496473
0.24471448
0.2015322
0.13486945
0.0069878405
-0.10548949
-0.22039865
-0.34886544
-0.49014079
-0.64439996
-0.81003508
-0.98371905
-1.1624012
-1.3435096
-1.5247577
-1.7041825
-1.8801585
-2.0513496
-2.216641
-2.3751655
-2.5262645
-2.6694012
-2.80416
-2.930263
-3.0475261
-3.1558132
-3.2551333
-3.3455188
-3.4271335
-3.5001536
-3.5647354
-3.6210631
-3.6693868
-3.7102189
-3.7442509
-3.7710575
-3.7909749
-3.8047923
-3.8095197
-0.011204331
-0.0076248348
-0.00080171526
0.0085757806
0.020606185
0.035470676
0.052341393
0.071210941
0.091698032
0.11343692
0.13596152
0.15881229
0.18149709
0.20343468
0.22403025
0.24266906
0.25865933
0.27127222
0.279809
0.28350827
0.28153306
0.27306544
0.25732858
0.23353061
0.20090324
0.15880672
0.10670106
0.044114703
-0.02926219
-0.1134691
-0.20823459
-0.3129407
-0.426495
-0.54717694
-0.67254984
-0.7993716
-0.92346656
-1.0396283
-1.141491
-1.2224596
-1.2774275
-1.2965179
-1.2680965
-1.2390177
-1.29988
-1.2442161
-0.10595939
0.84640897
1.335379
2.2219511
2.8978861
3.3296386
3.6016566
3.5450562
3.1367416
2.1478289
0.42810098
-0.57883805
-0.92323366
-0.87948245
-0.67699915
-0.54068013
0.059004399
0.0079573123
-0.086779953
-0.1716314
-0.25179915
-0.35746074
-0.47910776
-0.61362622
-0.76093925
-0.9194253
-1.0854976
-1.2561285
-1.4291309
-1.6026063
-1.7748126
-1.9442119
-2.1094886
-2.2695154
-2.4233656
-2.5702975
-2.7097215
-2.8412055
-2.964438
-3.0791618
-3.1852041
-3.2825945
-3.3713493
-3.4515662
-3.5233549
-3.5868788
-3.6423763
-3.690145
-3.7306284
-3.7637901
-3.7898229
-3.8091546
-3.8225216
-3.8268076
-0.02112739
-0.017219549
-0.0098960414
0.0001239377
0.01271546
0.028512035
0.046311323
0.066254269
0.087964838
0.11102387
0.13500112
0.15944744
0.1838283
0.20757049
0.23010638
0.25076997
0.26884323
0.28362788
0.29438053
0.3002677
0.30042442
0.29399715
0.28009757
0.25779546
0.22620251
0.18449518
0.13186974
0.067565371
-0.0090323011
-0.098332333
-0.2005033
-0.31539149
-0.44238835
-0.58029852
-0.72722182
-0.8804163
-1.0361328
-1.1894826
-1.334168
-1.4633734
-1.5727814
-1.6546335
-1.7011208
-1.78371
-2.0383743
-2.027632
-0.90046831
-0.8781019
0.41671114
1.3865958
2.0962456
2.7483212
2.8126335
3.0608794
2.9238886
2.8281196
-0.45272367
-2.3307206
-2.2905364
-2.3546245
-1.8795956
-0.94521223
-0.67884142
-0.45721811
-0.39865675
-0.47942258
-0.4446461
-0.49735639
-0.60193743
-0.72909028
-0.87036758
-1.0236234
-1.184518
-1.3496225
-1.5169312
-1.6847646
-1.8515052
-2.0157085
-2.176123
-2.3316573
-2.4813709
-2.6244869
-2.7603829
-2.8885901
-3.0089351
-3.1209197
-3.2245437
-3.3197472
-3.4065364
-3.4849699
-3.5551747
-3.6173145
-3.6716092
-3.7182935
-3.7576135
-3.7898352
-3.8150391
-3.8337276
-3.8465152
-3.8501984
-0.034050664
-0.029803594
-0.021846751
-0.011134067
0.0023715514
0.019183323
0.0382474
0.059659084
0.082972925
0.10779953
0.13373141
0.16028128
0.18691039
0.21309695
0.23821951
0.26157975
0.28248047
0.30020564
0.31394451
0.32282431
0.32595451
0.32239481
0.31112589
0.29110419
0.26128324
0.2205821
0.16788334
0.10209926
0.022227731
-0.072626455
-0.18318405
-0.3098688
-0.45269777
-0.61118729
-0.78415171
-0.96947537
-1.1639067
-1.3628576
-1.5599443
-1.747393
-1.9196269
-2.0704431
-2.1940406
-2.3526684
-2.6847184
-2.7682912
-2.6391351
-1.8496554
-0.68988679
0.2688013
0.93003205
1.4641141
1.5254983
4.3697387
3.3830684
1.3789008
-0.78738795
-2.815446
-4.6322874
-3.5347316
-2.729133
-2.6459178
-1.5774246
-1.4169713
-0.81834379
-0.89367152
-0.69634193
-0.68241213
-0.76164433
-0.87470282
-1.0046746
-1.1489846
-1.3023313
-1.4604354
-1.6211075
-1.7826446
-1.9434134
-2.1019695
-2.2570476
-2.407554
-2.5525585
-2.6912698
-2.8230812
-2.9475888
-3.0644035
-3.1732491
-3.2740024
-3.3665768
-3.4509905
-3.5272854
-3.5955991
-3.6560611
-3.7088381
-3.754158
-3.7922465
-3.823281
-3.8474118
-3.8652335
-3.877304
-3.8801982
-0.050288133
-0.045618016
-0.037040081
-0.025440123
-0.010845838
0.0073188143
0.027935984
0.051122048
0.076431903
0.10348716
0.13183912
0.16100109
0.19048738
0.21973715
0.24808656
0.2748571
0.29936438
0.32081433
0.33835888
0.35112836
0.35816014
0.35840272
0.35074582
0.33402624
0.30697911
0.26821412
0.21629384
0.14975001
0.067097179
-0.033141578
-0.15234564
-0.29166533
-0.45188796
-0.63343066
-0.83602438
-1.058367
-1.2978053
-1.5499544
-1.8079258
-2.0617887
-2.3014644
-2.5172128
-2.69715
-2.8700189
-3.1359915
-3.3771938
-3.2380052
-2.618965
-1.7423005
-0.84246592
-0.3494485
-0.1416809
-0.36138455
-0.59746583
-1.3397422
-3.6003932
-5.6114262
-6.952071
-6.3653899
-6.0440613
-4.6116066
-3.4745897
-2.8965438
-2.7229537
-1.8308583
-1.352971
-1.0088866
-0.91899371
-0.96917098
-1.0610489
-1.1721183
-1.3016628
-1.4433554
-1.5915501
-1.7435099
-1.8972026
-2.0507853
-2.2026977
-2.3515916
-2.4963181
-2.6360075
-2.7697848
-2.8970787
-3.0173738
-3.1303326
-3.2356468
-3.3331812
-3.4228336
-3.5045917
-3.5784811
-3.644598
-3.7030674
-3.7540412
-3.7977175
-3.8343014
-3.8639315
-3.8868419
-3.9036051
-3.9147507
-3.9166666
-0.070055512
-0.064988493
-0.055613588
-0.043024281
-0.027103033
-0.0073902233
0.015095379
0.040398315
0.068109227
0.097810768
0.1290565
0.16139924
0.19433231
0.22724667
0.25949584
0.29041889
0.31927945
0.3452571
0.36750336
0.38510544
0.39701845
0.40212001
0.39923751
0.38702686
0.36396407
0.32838089
0.27847529
0.21233651
0.12790858
0.023052644
-0.10439404
-0.25652389
-0.43496013
-0.64126759
-0.87636223
-1.1400659
-1.4305956
-1.7438299
-2.0720133
-2.4019714
-2.7164244
-2.9962144
-3.2142465
-3.3572024
-3.48785
-3.6278462
-3.5701674
-3.2402803
-2.6257991
-1.9308858
-1.6259635
-1.1500958
-1.5912971
-1.8206734
-3.5742156
-6.0731962
-8.2625044
-9.846698
-11.20612
-9.6333218
-7.5007589
-4.9400152
-2.5798975
-3.5861759
-2.7429656
-1.8931123
-1.3906055
-1.2209636
-1.2283829
-1.2865763
-1.3700818
-1.478733
-1.6045051
-1.7398858
-1.8811792
-2.0256707
-2.1711384
-2.315741
-2.4579552
-2.5965239
-2.7307143
-2.859292
-2.981777
-3.097631
-3.2064732
-3.3080151
-3.4020719
-3.4885258
-3.5673334
-3.6385303
-3.7021744
-3.7583677
-3.8072384
-3.8489912
-3.8837926
-3.9118105
-3.9332781
-3.948824
-3.9588532
-3.959559
-0.093722176
-0.088114323
-0.077890834
-0.064147428
-0.046675434
-0.025192187
-0.00057175652
0.027232869
0.057711461
0.090489181
0.12515402
0.16123809
0.19818687
0.23539379
0.27223815
0.30802959
0.34200904
0.37337427
0.40127655
0.42469944
0.44255377
0.45368009
0.45692468
0.45066182
0.43299929
0.40221155
0.35602212
0.29195982
0.2073601
0.099357131
-0.035128488
-0.19959428
-0.39612453
-0.62797453
-0.89761612
-1.2064518
-1.5541566
-1.9373993
-2.3477905
-2.7686344
-3.1741366
-3.5316314
-3.7909007
-3.8946584
-3.8654186
-3.8427324
-3.8688344
-3.7180596
-3.3129968
-2.8366435
-2.6763862
-2.4969041
-3.3187341
-4.8825962
-6.7698616
-9.2791257
-12.061609
-13.99146
-14.747522
-13.53598
-11.073225
-7.1082011
-3.9893853
-5.1628278
-3.6519353
-2.4194078
-1.830076
-1.5793545
-1.5317534
-1.5456279
-1.5943562
-1.677023
-1.7832152
-1.9033688
-2.0324724
-2.1668127
-2.3035844
-2.4405113
-2.5758105
-2.7081861
-2.8364686
-2.9597028
-3.0771947
-3.1884034
-3.2928968
-3.3903946
-3.4806831
-3.5636542
-3.6392437
-3.7074583
-3.7683369
-3.8219688
-3.8684915
-3.9080356
-3.9408206
-3.9669983
-3.9867758
-4.0008936
-4.0095927
-4.0088096
-0.12155302
-0.11539436
-0.10419105
-0.089101437
-0.069917508
-0.046404063
-0.019319234
0.011249097
0.044897359
0.081253218
0.11986562
0.16021963
0.20175745
0.24391541
0.28603994
0.3274147
0.36730368
0.40497334
0.43951992
0.46980446
0.494742
0.51306163
0.52403837
0.52547383
0.5148275
0.49073762
0.45043003
0.39073406
0.30827853
0.19940669
0.060320411
-0.11573503
-0.32875912
-0.5856655
-0.89074204
-1.2475167
-1.6581905
-2.1215525
-2.6298399
-3.16414
-3.6915154
-4.1634492
-4.498016
-4.5933283
-4.4451296
-4.2124732
-4.0520497
-3.909233
-3.6804305
-3.4463862
-3.4353101
-3.7758591
-3.6723529
-5.2926755
-8.0863673
-12.181349
-15.438663
-17.582666
-18.324361
-17.304306
-14.970925
-12.108381
-8.857532
-6.9371219
-4.5529135
-3.0213779
-2.271747
-1.9626964
-1.8598278
-1.8258773
-1.8370995
-1.8917607
-1.9764809
-2.0801149
-2.1963603
-2.3200293
-2.4478203
-2.5769319
-2.705185
-2.8311078
-2.9533954
-3.0710538
-3.1833168
-3.2896243
-3.3895295
-3.4827359
-3.5690101
-3.6482285
-3.7203235
-3.7852924
-3.8431472
-3.8939478
-3.9378415
-3.9749507
-4.0054669
-4.0295244
-4.0473653
-4.0598449
-4.06701
-4.0644112
-0.15397965
-0.14718123
-0.13485088
-0.11828151
-0.097198963
-0.07138562
-0.041585539
-0.0079080621
0.029352264
0.069811253
0.11285344
0.15799397
0.20473148
0.25248032
0.30055663
0.34827196
0.39490274
0.43968819
0.48202545
0.52025683
0.55370336
0.58078433
0.60048785
0.61091682
0.60981574
0.59488236
0.56308068
0.51062589
0.43331789
0.32644043
0.1847663
0.0024042175
-0.2255178
-0.50564775
-0.84548568
-1.2513855
-1.7297625
-2.2839773
-2.9094892
-3.5887414
-4.2883771
-4.9448888
-5.4269497
-5.5711245
-5.2989663
-4.687753
-4.2450428
-3.915467
-3.7284183
-3.6885184
-3.8068192
-4.2440596
-5.1003627
-6.1431459
-8.7739867
-13.740706
-17.066205
-19.422595
-20.235067
-19.324539
-16.78592
-13.133519
-11.158876
-8.0512751
-5.3049497
-3.5619435
-2.702578
-2.3451361
-2.1909114
-2.110332
-2.0865392
-2.1151565
-2.1791545
-2.2665509
-2.3709969
-2.4842248
-2.6030635
-2.72433
-2.8455626
-2.9649736
-3.0811709
-3.1931031
-3.299956
-3.4011602
-3.4962765
-3.5849789
-3.6670303
-3.7422754
-3.8106358
-3.8721102
-3.926692
-3.9744375
-4.0154439
-4.0498407
-4.0778596
-4.0995355
-4.1151885
-4.1257981
-4.1311609
-4.1263937
-0.19138574
-0.18385556
-0.1703136
-0.15210154
-0.12890419
-0.10055926
-0.06774935
-0.030585078
0.010622317
0.055727064
0.10371601
0.15421021
0.20673188
0.26068566
0.31542209
0.37026396
0.42445873
0.47703483
0.52872721
0.57567312
0.61848455
0.65573518
0.68603879
0.70762109
0.71826375
0.71526853
0.69518667
0.65360603
0.58533438
0.48445789
0.34454961
0.1588396
-0.07974013
-0.37958481
-0.75064546
-1.2039797
-1.7522455
-2.4068104
-3.1706595
-4.0348077
-4.9791803
-5.9323041
-6.6997046
-7.0295773
-6.7404376
-5.900675
-5.1252952
-4.3705875
-3.8822611
-3.7557223
-3.8544918
-4.239768
-5.1138933
-6.5444326
-8.7706916
-13.476483
-16.875858
-19.262159
-20.163272
-19.372074
-17.419155
-14.765989
-10.406567
-8.7673032
-6.0972763
-4.0780727
-3.129877
-2.702644
-2.5032037
-2.3801407
-2.3299203
-2.338099
-2.3853796
-2.4598829
-2.552834
-2.6571231
-2.767964
-2.8818991
-2.9963411
-3.1093596
-3.2194827
-3.3256267
-3.4269763
-3.5229612
-3.6131221
-3.6971305
-3.7747571
-3.8458341
-3.9102747
-3.9680486
-4.0191339
-4.0636017
-4.1014721
-4.1329264
-4.1581606
-4.1771921
-4.1903934
-4.1989165
-4.2021635
-4.1948827
-0.23420422
-0.22590811
-0.21102873
-0.19100053
-0.16550273
-0.13438431
-0.098227819
-0.057179243
-0.01157966
0.038263165
0.092015771
0.14842382
0.20731054
0.26811206
0.33024409
0.39300786
0.45567963
0.5174897
0.57780312
0.63515436
0.68877319
0.73754072
0.78018196
0.81505003
0.83994475
0.85202194
0.84752874
0.82128243
0.76685417
0.67687625
0.54364039
0.35931975
0.11549465
-0.1980081
-0.59429133
-1.0900343
-1.7054605
-2.4632726
-3.3864832
-4.482384
-5.7678073
-7.1788506
-8.4435049
-9.184319
-9.0993634
-8.647773
-7.5506911
-6.0936921
-4.7178035
-3.9232594
-3.6735939
-3.8121277
-4.5083043
-6.2485918
-7.6966235
-12.3747
-15.365589
-17.503042
-18.373755
-17.884981
-16.895343
-14.461127
-10.288151
-8.5076643
-6.3094139
-4.3684301
-3.4469637
-2.9947878
-2.7582169
-2.6175844
-2.5552502
-2.5518993
-2.5894137
-2.6553904
-2.7403622
-2.8374221
-2.9414962
-3.0489357
-3.1570701
-3.2639579
-3.3681329
-3.468522
-3.5643326
-3.6549994
-3.7400588
-3.8192325
-3.8922886
-3.9590415
-4.019381
-4.073247
-4.1206571
-4.1616201
-4.1961534
-4.2244557
-4.2466484
-4.2627465
-4.2732226
-4.279439
-4.2802493
-4.2701049
-0.28296437
-0.27382322
-0.25748363
-0.23551053
-0.2075129
-0.17331854
-0.13350718
-0.088270197
-0.037949081
0.017096011
0.07733152
0.14008441
0.2059231
0.27425707
0.3444806
0.41584792
0.48773353
0.55942863
0.62992485
0.69833174
0.76382426
0.82541973
0.88200714
0.93218809
0.97398641
1.0046054
1.0202344
1.0147501
0.98011071
0.90683562
0.78575945
0.60841781
0.3659262
0.046891973
-0.36477689
-0.89190417
-1.5651574
-2.4244998
-3.5150611
-4.89062
-6.6306829
-8.7278962
-10.889695
-12.614024
-13.402676
-13.18842
-11.655072
-9.0746191
-6.2408816
-4.1815457
-3.2307546
-2.9513362
-3.2980363
-4.9212193
-6.3040614
-10.543724
-12.859495
-15.256492
-15.755119
-14.925676
-14.50981
-12.699591
-9.4467036
-7.5550023
-5.9139763
-4.352817
-3.5813438
-3.181975
-2.9507224
-2.8162778
-2.7567652
-2.7532662
-2.7887267
-2.8513402
-2.9320346
-3.0242566
-3.1231207
-3.2250694
-3.3275231
-3.4286314
-3.5270201
-3.6216879
-3.7119266
-3.7972076
-3.877093
-3.9513269
-4.0196733
-4.0819669
-4.1380894
-4.1879142
-4.2314851
-4.2687698
-4.299795
-4.3247353
-4.3436715
-4.3565433
-4.3640439
-4.3677221
-4.3657467
-4.3523546
-0.33819134
-0.32813548
-0.310251
-0.28617224
-0.25544785
-0.21792013
-0.17419109
-0.12443049
-0.068928742
-0.0079469592
0.058676387
0.12857429
0.2020182
0.27858656
0.35756576
0.4382098
0.52016271
0.60240954
0.68412354
0.76444541
0.84271348
0.91821869
0.99013314
1.0574404
1.1187121
1.1714235
1.2124896
1.2344116
1.2269902
1.1771342
1.0738655
0.90896748
0.67500163
0.36060618
-0.052600932
-0.59407113
-1.305932
-2.2486589
-3.5038423
-5.1893318
-7.501863
-10.573411
-14.113491
-17.210467
-18.866863
-18.490748
-16.042474
-12.189653
-7.7713467
-4.242611
-2.410312
-1.8279143
-1.7012392
-2.9788825
-4.1870609
-7.9228828
-9.8558499
-12.575981
-13.026766
-12.79491
-12.31824
-10.653279
-8.0665785
-6.9214706
-5.230247
-4.1302319
-3.5721638
-3.2714814
-3.0814186
-2.9766608
-2.9351165
-2.9422941
-2.9831633
-3.0476314
-3.1277078
-3.2175293
-3.3127611
-3.4102219
-3.5076056
-3.6032616
-3.6960107
-3.7850197
-3.8696808
-3.9495211
-4.0241766
-4.0934099
-4.1569988
-4.2147699
-4.2665948
-4.3123388
-4.3519817
-4.3854707
-4.412846
-4.4342436
-4.4497104
-4.4591056
-4.4633876
-4.4642844
-4.4591064
-4.4421013
-0.4004672
-0.38946248
-0.36991546
-0.34354604
-0.30990309
-0.26884682
-0.22091457
-0.16627744
-0.10520686
-0.038092441
0.036050701
0.1133805
0.19505815
0.28048429
0.36894868
0.45970439
0.55214941
0.64588385
0.73960141
0.83259797
0.92437835
1.0145423
1.1027133
1.1885192
1.2716406
1.3490035
1.4222065
1.4796005
1.5091603
1.4903771
1.4099808
1.2613626
1.0426391
0.74441429
0.34739126
-0.18401245
-0.90329335
-1.8926641
-3.2820348
-5.2821226
-8.2335892
-12.438051
-17.446089
-21.559292
-23.327667
-22.262501
-18.910415
-14.094755
-8.4504272
-3.8790228
-0.31533063
0.41112301
0.503403
-0.39198166
-1.9472872
-4.9314952
-8.4535402
-9.2908813
-11.632689
-10.680122
-10.053026
-8.645368
-7.1882988
-5.7936563
-4.5365858
-3.8264169
-3.4921166
-3.294162
-3.1675034
-3.1077631
-3.096326
-3.1226212
-3.1751071
-3.2458575
-3.3283917
-3.4178901
-3.5108105
-3.6045908
-3.6973738
-3.7878283
-3.8750443
-3.9584199
-4.0374803
-4.1118564
-4.1812677
-4.2454922
-4.3043225
-4.3575842
-4.4051056
-4.4467797
-4.4825094
-4.5121487
-4.5358129
-4.5535783
-4.5653753
-4.571056
-4.5719077
-4.5697994
-4.5609452
-4.5399515
-0.4704356
-0.45841215
-0.4370747
-0.40829341
-0.37157158
-0.32676557
-0.2743228
-0.21444117
-0.14742679
-0.073657205
0.0084906189
0.093778999
0.18429904
0.27930402
0.37800212
0.47961018
0.58330908
0.68916195
0.79570144
0.90194455
1.007645
1.1128188
1.2176268
1.3224715
1.4308441
1.5409569
1.6462177
1.7479309
1.8271343
1.8495956
1.7960294
1.6625075
1.4645905
1.1941975
0.83366409
0.34385253
-0.3381995
-1.3155409
-2.7708955
-5.0341312
-8.5909584
-13.711966
-19.645909
-24.099963
-25.712392
-24.037319
-19.836484
-14.034062
-7.6557276
-1.6977788
8.2330013
2.1908673
2.4241371
2.3192752
0.28366587
-2.0997871
-5.2299038
-7.3068213
-8.9395431
-8.8001547
-8.1572951
-7.2638684
-5.7825116
-4.6906848
-3.921852
-3.5517219
-3.3855463
-3.284282
-3.2316957
-3.2240186
-3.2496894
-3.3004921
-3.3688431
-3.4489129
-3.5360281
-3.6266321
-3.7181086
-3.8086563
-3.8970366
-3.9823672
-4.0640754
-4.1417797
-4.2151897
-4.2840956
-4.348284
-4.4075338
-4.4616671
-4.5105082
-4.5538287
-4.5915145
-4.6234199
-4.6493264
-4.669334
-4.6834526
-4.691462
-4.6932528
-4.6905096
-4.6851361
-4.6720524
-4.6466237
-0.54873528
-0.53561451
-0.51243093
-0.48114046
-0.44118042
-0.39235725
-0.33513023
-0.26966962
-0.19617256
-0.11457548
-0.025567636
0.06889617
0.16908528
0.27445505
0.3841991
0.49747503
0.61338469
0.73100797
0.85194355
0.97162166
1.0913679
1.2114546
1.3328394
1.4589327
1.5881515
1.7258698
1.8727073
2.0323124
2.1893061
2.2638894
2.2353547
2.1003045
1.9299051
1.6979018
1.3955061
0.98439207
0.39858902
-0.48190855
-1.8840692
-4.2233346
-8.0485931
-13.578031
-19.7078
-24.094328
-25.398135
-23.250942
-18.6374
-12.236741
-5.4997455
1.3679829
10.294209
3.1433821
3.6040207
3.7587138
2.1890625
0.59408645
-1.6454232
-3.6124826
-5.7232063
-5.6907847
-5.7058777
-5.0517715
-4.3010118
-3.7593938
-3.4373274
-3.3167523
-3.2805483
-3.2723225
-3.2942136
-3.3404907
-3.4055108
-3.4833656
-3.5696983
-3.6606501
-3.7533252
-3.8455588
-3.9358236
-4.0231439
-4.1069626
-4.1869552
-4.262976
-4.3348879
-4.4025952
-4.4660282
-4.5250536
-4.579457
-4.62906
-4.6736615
-4.7130116
-4.7469446
-4.7751771
-4.7976353
-4.8141861
-4.8247831
-4.8290188
-4.8268474
-4.8203919
-4.8114422
-4.7934156
-4.7630622
-0.63605513
-0.62181555
-0.59674413
-0.56281993
-0.51942935
-0.46641123
-0.40416845
-0.33286078
-0.2525703
-0.16267058
-0.065783303
0.038125938
0.14871473
0.26524031
0.38689986
0.5127272
0.64172733
0.773084
0.90614829
1.0408957
1.174558
1.3086898
1.4446078
1.5854862
1.735025
1.8989938
2.0864438
2.3127017
2.5989031
2.7397894
2.7378772
2.6180036
2.4263617
2.2375071
2.0150158
1.7229318
1.3186835
0.63235691
-0.53376486
-2.6385525
-6.2217675
-11.438763
-17.116057
-21.19079
-22.392177
-20.388164
-15.875894
-9.6084128
-2.8719422
2.8477064
9.84421
3.6657735
3.9816026
4.1476276
3.3637267
2.4057844
1.1411595
-0.70622028
-2.666393
-3.2939386
-3.4879012
-3.3480101
-3.1711117
-3.0827355
-3.0691088
-3.1248492
-3.197935
-3.2788047
-3.3708215
-3.4700329
-3.5738269
-3.6790252
-3.7835306
-3.8854354
-3.9834623
-4.0768432
-4.1652722
-4.2487363
-4.3273884
-4.4015264
-4.4714555
-4.5373313
-4.5992603
-4.657281
-4.7112855
-4.7610775
-4.8064702
-4.8471892
-4.8829592
-4.9135262
-4.9385456
-4.9578787
-4.9713442
-4.9787296
-4.9794013
-4.97337
-4.9631963
-4.9502535
-4.9262812
-4.8903351
-0.73317878
-0.71777186
-0.69075388
-0.65407131
-0.60713727
-0.54976926
-0.48228615
-0.40488205
-0.31792365
-0.21850958
-0.1132169
0.00067969535
0.12233749
0.25091037
0.38538977
0.52470711
0.66776027
0.81344519
0.96078324
1.1089647
1.2570281
1.4037878
1.5542199
1.70316
1.8665807
2.0437161
2.2556981
2.5370843
3.0285105
3.2472713
3.2502847
3.0576784
2.9005492
2.7780834
2.6673837
2.5409796
2.3862957
2.0274468
1.2576306
-0.29412844
-3.1543241
-7.4913193
-12.29801
-16.127567
-17.734508
-16.423395
-12.610923
-7.1697902
-1.5743014
2.6860377
8.0330104
2.6626863
3.5352968
3.9301858
3.5809098
2.5941279
1.3186454
-0.016167472
-1.0245393
-1.7124722
-2.1501823
-2.3680416
-2.5078955
-2.6566426
-2.8176029
-2.9887157
-3.1550356
-3.3173274
-3.4741461
-3.6234241
-3.7640453
-3.8951673
-4.0164573
-4.1278763
-4.2297498
-4.3227479
-4.4078266
-4.4860422
-4.5583765
-4.6257717
-4.6889734
-4.74847
-4.804534
-4.8572536
-4.9065245
-4.9521323
-4.993801
-5.0311529
-5.0638984
-5.0916922
-5.1141374
-5.1309545
-5.1419633
-5.1467162
-5.1443501
-5.1349132
-5.1212417
-5.1036341
-5.0721453
-5.0295271
-0.8408614
-0.82420424
-0.79521125
-0.75571947
-0.70515255
-0.64328248
-0.57031113
-0.48633281
-0.39131831
-0.28485771
-0.16943012
-0.044570458
0.089082343
0.23061187
0.37898237
0.53295698
0.69114419
0.85207296
1.0144068
1.1767805
1.3378691
1.4960446
1.654924
1.8101541
1.9842268
2.1529007
2.3390561
2.6527576
3.7544554
4.4066008
3.8694184
3.3209051
3.2817081
3.2904021
3.3118076
3.3798902
3.4823284
3.5262346
3.3103629
2.4741393
0.57597404
-2.7522566
-7.0062804
-10.814696
-12.84665
-12.686941
-9.442257
-4.8987028
-2.9148778
3.0490651
3.7963561
1.6762457
2.7685263
3.4044003
3.426811
2.7531694
1.7487654
0.69204454
-0.18210164
-0.86215273
-1.3844961
-1.771302
-2.0820689
-2.3662475
-2.6397516
-2.905809
-3.1594737
-3.3971121
-3.6145463
-3.8105119
-3.9851555
-4.1394502
-4.2747681
-4.3928463
-4.4956946
-4.5855277
-4.6646893
-4.7354069
-4.7996327
-4.858989
-4.9146419
-4.967341
-5.0174893
-5.0651502
-5.1101371
-5.1521754
-5.1908385
-5.2256046
-5.2561127
-5.2819389
-5.3026545
-5.3178877
-5.3274046
-5.3305011
-5.3260501
-5.3142367
-5.2977096
-5.2745207
-5.233031
-5.1820783
-0.95984689
-0.941858
-0.91093459
-0.86860436
-0.81434902
-0.74790841
-0.66936457
-0.57871288
-0.47568894
-0.36092727
-0.23514653
-0.098668432
0.047838449
0.20345858
0.36698558
0.53697538
0.71170896
0.88927855
1.0678181
1.2453437
1.4197419
1.5858709
1.7473343
1.8903686
2.025963
2.1410963
2.2646589
4.5227657
8.5545719
8.8465007
8.6603875
4.4729491
3.6279659
3.6857599
3.8871456
4.176612
4.5414696
4.936799
5.2548714
5.1684775
4.1600154
1.5474988
-2.5874675
-6.9238378
-10.308645
-11.327918
-8.0323493
-3.0246701
-4.0169896
0.47299229
-0.18350072
0.078821116
1.5293332
2.5930127
3.0026803
2.6277104
1.8748567
1.0371851
0.2796289
-0.35555607
-0.88439544
-1.3360958
-1.745269
-2.1335189
-2.5096465
-2.8727039
-3.2143026
-3.5256967
-3.8015295
-4.041141
-4.2462965
-4.4198474
-4.5650486
-4.6854335
-4.7848353
-4.8672967
-4.9367606
-4.9967806
-5.0503864
-5.0999236
-5.1469696
-5.1924513
-5.2367832
-5.2798759
-5.321332
-5.3606868
-5.3973218
-5.4305709
-5.459913
-5.484832
-5.5049035
-5.5198235
-5.5292266
-5.5321039
-5.5270604
-5.5147253
-5.4969325
-5.4671542
-5.4114509
-5.349399
-1.0908704
-1.0715049
-1.0386947
-0.99353424
-0.93564707
-0.86469688
-0.78061713
-0.68326485
-0.57200927
-0.44817086
-0.31165905
-0.16289143
-0.0025412755
0.16839162
0.34856905
0.53624371
0.7293461
0.92551165
1.1220622
1.316268
1.5058261
1.6763405
1.8540859
1.995465
2.1536635
2.263598
2.4802562
8.8248298
9.2404298
9.3336779
9.8668571
7.6186253
4.0135031
4.1041029
4.3912584
4.9015397
5.5148598
6.2088909
6.9361346
7.4767626
6.9584129
4.4280419
0.086000265
-4.8134364
-9.9393205
-11.343659
-6.138175
-6.2730724
-3.5396801
-2.8149189
-2.219576
-1.0207786
0.47366255
1.8054221
2.5245773
2.4223179
1.896803
1.2461576
0.61504908
0.04530989
-0.4732425
-0.96512492
-1.4517076
-1.9392762
-2.4227202
-2.8899255
-3.3244488
-3.7119442
-4.0455349
-4.3259329
-4.5574395
-4.745188
-4.8945031
-5.0110262
-5.1007556
-5.1699028
-5.2243794
-5.269361
-5.3090596
-5.3465688
-5.3838158
-5.4217439
-5.4605925
-5.4999546
-5.5390715
-5.5770838
-5.6130626
-5.6461541
-5.6756566
-5.7009889
-5.7218125
-5.7379343
-5.7489866
-5.7535751
-5.7500531
-5.7401559
-5.7250619
-5.6879461
-5.6075794
-5.5273078
-1.2346155
-1.2138633
-1.1791979
-1.1313535
-1.0700114
-0.99470374
-0.90519022
-0.80128354
-0.68143244
-0.54824735
-0.40053997
-0.23872875
-0.063488582
0.1241281
0.32263389
0.53008606
0.74397982
0.96128256
1.1784963
1.3904308
1.5937121
1.7751346
1.9749091
2.0893901
2.2534029
2.1879207
2.6597627
2.8813154
4.1930129
6.1555682
4.7686852
3.6539051
3.7420787
4.1188793
4.6732163
5.4789796
6.352442
7.2612922
8.2402138
8.9978339
8.2085904
4.9823511
0.09233137
-5.2086138
-7.0117634
-4.7070062
0.72683224
-4.4630327
-8.0339812
-5.0365273
-3.3952698
-1.7613744
-0.26521896
1.2302509
2.163942
2.2620519
1.9008657
1.3948822
0.88694136
0.40054139
-0.090230697
-0.61256482
-1.1775833
-1.7732765
-2.3765385
-2.9609612
-3.4991537
-3.9685957
-4.3601444
-4.6777612
-4.9301911
-5.1255227
-5.2713371
-5.3756191
-5.4470767
-5.4947481
-5.5270929
-5.551307
-5.5729743
-5.595889
-5.6221375
-5.6524605
-5.6866075
-5.7236192
-5.7621451
-5.8007095
-5.8379106
-5.8726153
-5.9039139
-5.9312047
-5.9542829
-5.9732948
-5.9880632
-5.9968802
-5.9978884
-5.9958499
-5.9950531
-5.9564399
-5.832225
-5.7206624
-1.3916737
-1.3696004
-1.3331615
-1.2829261
-1.2184054
-1.1389777
-1.0441723
-0.93352103
-0.80617248
-0.66305933
-0.50360095
-0.32800468
-0.13682929
0.068930287
0.28775663
0.51749882
0.75520801
0.99712752
1.2391921
1.4755478
1.7013465
1.9108591
2.1122742
2.2528212
2.4189744
2.5588877
2.6567231
2.8897585
3.1525291
3.3021571
3.4518486
3.4070453
3.6273007
4.1244623
4.9164319
5.9511819
7.0100468
8.0386053
9.2277883
9.6402088
8.1730163
3.5169715
-0.81704552
-6.4572258
-9.071661
-7.70774
-9.5170549
-8.6001205
-8.6376299
-5.5791858
-4.0239892
-2.4384169
-0.79678701
0.91456173
1.9633113
2.1388575
1.844948
1.4506151
1.0960241
0.73528851
0.30009749
-0.23905124
-0.89075586
-1.6159334
-2.3653865
-3.0925397
-3.7534809
-4.3138047
-4.7628851
-5.1121501
-5.3784159
-5.5730409
-5.7053442
-5.7860554
-5.8274668
-5.8425439
-5.8432247
-5.8393033
-5.8379006
-5.8433905
-5.8576859
-5.8809407
-5.9119848
-5.9488532
-5.9892901
-6.031005
-6.0719516
-6.1105247
-6.1455471
-6.1764647
-6.2033572
-6.2268598
-6.2476185
-6.2642199
-6.2749022
-6.2910505
-6.3343609
-6.3360919
-6.1523342
-5.9745446
-1.562599
-1.539319
-1.50128
-1.4490365
-1.3818038
-1.2987307
-1.1990959
-1.0822005
-0.94733193
-0.79436977
-0.62292263
-0.43296657
-0.22484284
0.00061601876
0.2419718
0.4969657
0.76222713
1.0330517
1.3064919
1.5729065
1.8261819
2.0728208
2.2996849
2.4642951
2.5783329
2.7087676
2.7318081
2.9024752
3.1836218
3.3323984
3.4809809
3.7152855
4.105823
4.6608504
5.3790677
6.3847417
7.4568267
8.4360556
9.4676567
9.4366171
7.8053502
7.2237077
-0.15629389
-6.3520378
-9.0577788
-10.206085
-8.5836706
-7.9857445
-7.0291355
-5.6965097
-4.4472661
-2.7927528
-0.84023799
1.0002995
1.9764834
2.0340139
1.6349043
1.3039249
1.2054542
1.0900595
0.75429816
0.21923636
-0.54741727
-1.4479657
-2.3909983
-3.299847
-4.1095733
-4.7713774
-5.2754713
-5.6475557
-5.9189636
-6.1032103
-6.2090305
-6.2506106
-6.2455767
-6.212833
-6.1692377
-6.1278903
-6.0975457
-6.082798
-6.0848673
-6.1025791
-6.1332657
-6.1734308
-6.2194449
-6.2678768
-6.3158348
-6.3611023
-6.4021398
-6.4382813
-6.4701732
-6.4994547
-6.5279942
-6.5555973
-6.5834663
-6.6292088
-6.7427696
-6.8854346
-6.561676
-6.197259
-1.7478192
-1.7233767
-1.6840566
-1.6304045
-1.561204
-1.4752507
-1.3715183
-1.2490109
-1.1068489
-0.944359
-0.7609649
-0.55630666
-0.33038048
-0.083687287
0.18253512
0.46607856
0.76376247
1.0718348
1.3800529
1.682531
1.9665212
2.2435677
2.454109
2.6436305
2.7555428
2.8248687
2.8238977
2.9300237
3.1670121
3.5336388
3.4493381
4.3434816
5.4128295
5.9414
6.4623217
7.0008783
7.7589564
8.588778
9.2347885
8.6609937
9.2818652
11.592566
2.6734236
-5.7825359
-6.1234662
-5.5149479
-5.1019714
-5.3758799
-5.5067946
-5.1595224
-3.9510023
-2.0043604
0.13218988
1.7321133
2.2692544
1.878972
1.0590598
0.6708238
1.0428809
1.4696163
1.2585043
0.82042861
-0.092515796
-1.2336174
-2.4452594
-3.6036557
-4.6061555
-5.3801195
-5.9302037
-6.3093566
-6.5738889
-6.736614
-6.799009
-6.7796286
-6.7048387
-6.6032506
-6.498762
-6.4085646
-6.3428641
-6.3056911
-6.2965496
-6.3119099
-6.3467019
-6.3952513
-6.452003
-6.5119834
-6.5711751
-6.6266154
-6.6761744
-6.7189185
-6.7564056
-6.7911814
-6.824623
-6.8577688
-6.8974286
-6.9586872
-7.087255
-7.1559073
-4.8739645
-0.94012872
-1.9475493
-1.9217287
-1.8817903
-1.8277194
-1.7576479
-1.6698763
-1.5629939
-1.4357332
-1.2869679
-1.1155727
-0.92059998
-0.70121337
-0.45689293
-0.18768131
0.10557375
0.42097569
0.75511323
1.1033795
1.4579009
1.8083678
2.1418195
2.4492979
2.709623
2.9017364
3.0096423
3.0273353
2.9801325
3.0272336
3.1438632
3.1789813
2.6032079
4.6867406
7.2922798
7.6379558
7.2136442
7.2563506
7.7658614
8.8624313
10.284424
9.937414
16.744745
17.413356
2.3563021
-0.87344937
-2.1406877
-2.5960543
-2.8073419
-3.5476909
-4.0814241
-3.6533059
-2.0464884
0.28036625
2.4017166
3.3893968
2.9984767
1.622844
-0.2822321
-1.2775137
0.06563191
2.0262367
1.8202321
1.8159727
0.59767127
-0.92948307
-2.5460658
-4.0496529
-5.2956625
-6.191378
-6.7746663
-7.1327312
-7.3718704
-7.5021543
-7.4989802
-7.3868337
-7.2079525
-7.0082323
-6.8212022
-6.6685846