/*--------------------------------*- C++ -*----------------------------------*\
  =========                 |
  \\      /  F ield         | OpenFOAM: The Open Source CFD Toolbox
   \\    /   O peration     | Website:  https://openfoam.org
    \\  /    A nd           | Version:  9
     \\/     M anipulation  |
\*---------------------------------------------------------------------------*/
FoamFile
{
    format      ascii;
    class       surfaceScalarField;
    location    "0.92";
    object      phi;
}
// * * * * * * * * * * * * * * * * * * * * * * * * * * * * * * * * * * * * * //

dimensions      [0 3 -1 0 0 0 0];

internalField   nonuniform List<scalar> 
19800
(
9.7799171e-06
5.3571437e-05
4.9529763e-06
5.4651617e-05
1.8961139e-08
5.608273e-05
-4.9409118e-06
5.7601982e-05
-1.0027606e-05
5.9465669e-05
-1.5040091e-05
6.1345162e-05
-2.0039392e-05
6.3478606e-05
-2.5032638e-05
6.5750284e-05
-2.9993424e-05
6.8143523e-05
-3.4973631e-05
7.0635394e-05
-3.9998263e-05
7.3171366e-05
-4.5148293e-05
7.58274e-05
-5.0538333e-05
7.8503275e-05
-5.6306491e-05
8.1145018e-05
-6.2705222e-05
8.3893551e-05
-7.0012642e-05
8.6725564e-05
-7.8660398e-05
8.9729486e-05
-8.8974074e-05
9.2816352e-05
-0.00010146251
9.6463012e-05
-0.00011661771
0.00010068924
-0.00013491362
0.00010553779
-0.00015696411
0.00011171022
-0.0001834009
0.00011911853
-0.00021508151
0.00012829519
-0.00025295901
0.0001393893
-0.00029810695
0.00015266114
-0.00035174345
0.00016835952
-0.0004152265
0.00018667716
-0.00049004312
0.00020777545
-0.00057776945
0.0002318043
-0.00068000618
0.00025890612
-0.0007983113
0.0002891664
-0.00093416817
0.00032263005
-0.0010890288
0.00035930989
-0.0012643993
0.00039912054
-0.0014619267
0.00044198203
-0.0016835159
0.00048801947
-0.0019315015
0.00053765206
-0.0022088929
0.0005917296
-0.0025199968
0.0006520242
-0.0028709921
0.00072051535
-0.003268844
0.00079657313
-0.0037268781
0.00088814759
-0.0042802774
0.0010205209
-0.0049297731
0.0011126052
-0.0054597555
0.00079053768
-0.0054162305
-0.00038681013
-0.004367952
-0.0021167868
-0.0029144926
-0.0030512291
-0.0012429625
-0.0035541973
0.00041946854
-0.0035025209
0.0018371454
-0.0032697796
0.003163446
-0.0030843762
0.0042361462
-0.0026500904
0.0050588552
-0.0022220554
0.00548238
-0.0014388221
0.0054801282
-0.00064358679
0.0054745539
-0.00069583133
0.0055775286
-0.0010817167
0.0058529509
-0.0013266139
0.0061454768
-0.0010461497
0.0061660891
-0.00044246422
0.0058472238
8.1604852e-05
0.0052927898
0.00062893039
0.0048028233
0.0010150858
0.0044006151
0.0012741969
0.004035476
0.0014291997
0.0036756834
0.0015357096
0.0033259402
0.0015938656
0.0029940655
0.0015975859
0.0026821653
0.0015587368
0.0023907909
0.0014900764
0.0021199439
0.0013988795
0.0018688881
0.00129139
0.0016364189
0.0011745819
0.0014211787
0.0010554996
0.0012219176
0.00094021399
0.0010376576
0.00083277067
0.00086771513
0.00073485932
0.00071166205
0.00064657431
0.00056927897
0.00056695999
0.00044031575
0.00049541134
0.00032451302
0.00043100239
0.0002215483
0.00037282582
0.00013103225
0.00032012487
5.2527875e-05
0.00027229152
-1.4440749e-05
0.00022884311
-7.0223558e-05
0.00018912591
-0.00011514078
0.00015249598
-0.00015049829
0.00011913788
-0.00017749403
8.8829517e-05
-0.00019682331
6.1270182e-05
-0.00020840143
3.6492212e-05
-0.00021198019
1.4431601e-05
-0.00020830172
-4.0908609e-06
-0.00019737413
-2.0017933e-05
-0.00017984905
-3.3462786e-05
-0.00015688705
-4.4514838e-05
-0.00012946379
-5.3460638e-05
-6.1769954e-05
1.1063765e-05
5.7718159e-05
6.6765267e-06
5.9037778e-05
2.1042617e-06
6.0651734e-05
-2.5368821e-06
6.2252297e-05
-7.2857354e-06
6.4204835e-05
-1.2027375e-05
6.6105973e-05
-1.6848833e-05
6.8289878e-05
-2.1690974e-05
7.0603831e-05
-2.6576125e-05
7.3030773e-05
-3.1515848e-05
7.5569806e-05
-3.6552591e-05
7.8214801e-05
-4.1724605e-05
8.0995487e-05
-4.7218559e-05
8.3991567e-05
-5.3112576e-05
8.7041986e-05
-5.9664988e-05
9.0443828e-05
-6.6969532e-05
9.4026326e-05
-7.5342464e-05
9.8104658e-05
-8.5256779e-05
0.00010273062
-9.6999648e-05
0.00010820193
-0.00011109871
0.00011478747
-0.00012817175
0.00012261095
-0.00014856778
0.00013210291
-0.00017310381
0.00014365169
-0.00020261158
0.00015780332
-0.00023812633
0.00017490423
-0.00028068353
0.00019521739
-0.00033150889
0.00021918594
-0.00039197492
0.00024714609
-0.00046359713
0.00027939905
-0.00054798603
0.00031619299
-0.00064678026
0.00035770091
-0.00076160081
0.00040398775
-0.00089400494
0.00045503289
-0.0010454521
0.00051075401
-0.0012173388
0.00057100404
-0.0014110657
0.00063570516
-0.0016281488
0.00070509863
-0.0018704987
0.00078000021
-0.0021408606
0.00086209166
-0.0024434636
0.00095462675
-0.0027851425
0.0010621947
-0.0031799598
0.0011913927
-0.0036696012
0.0013777871
-0.0043315695
0.0016824854
-0.0051147732
0.0018958099
-0.0055361797
0.0012119426
-0.0049675478
-0.00095544813
-0.0036569938
-0.003427347
-0.0018313434
-0.0048768885
7.4265134e-05
-0.0054598126
0.0019670639
-0.0053953277
0.0035610932
-0.004863816
0.0049244774
-0.0044477635
0.0063162954
-0.0040419114
0.007251582
-0.0031573424
0.0076189964
-0.0018062382
0.0080137789
-0.0010383734
0.0082707911
-0.00095284392
0.0082888146
-0.0010997416
0.0081191613
-0.00115696
0.0080102013
-0.0009371917
0.0077566581
-0.00018891929
0.0069250247
0.00091323691
0.0059134438
0.0016405101
0.0049819942
0.0019465349
0.0043767252
0.001879466
0.0039742981
0.0018316278
0.0036162718
0.0018937334
0.0032585164
0.0019516186
0.0029146678
0.0019414362
0.0025966046
0.0018767987
0.0023049889
0.0017816877
0.0020370949
0.0016667738
0.0017902378
0.0015382502
0.0015620029
0.0014028195
0.0013503525
0.0012671518
0.0011538615
0.0011367066
0.00097175393
0.0010148783
0.00080369614
0.00090291486
0.00064959028
0.00080068058
0.00050927926
0.00070727327
0.00038258037
0.00062211131
0.00026927188
0.00054430798
0.00016890491
0.00047318959
8.102116e-05
0.00040800568
5.1318705e-06
0.00034817847
-5.9221914e-05
0.00029319528
-0.00011266683
0.00024257193
-0.0001560596
0.00019588632
-0.00018972166
0.00015279641
-0.00021430849
0.00011341323
-0.0002295599
7.6520468e-05
-0.00023643034
4.3361348e-05
-0.00023577666
1.3773259e-05
-0.00022795954
-1.1910545e-05
-0.00021351992
-3.4457235e-05
-0.00019309118
-5.3887082e-05
-0.00016742735
-7.0170217e-05
-0.00013728569
-8.3593411e-05
-9.6117479e-05
1.2434825e-05
6.1638463e-05
8.1998341e-06
6.3266701e-05
3.812852e-06
6.5045429e-05
-7.3996652e-07
6.679279e-05
-5.1288242e-06
6.8610638e-05
-9.7410372e-06
7.0708278e-05
-1.4384467e-05
7.2942664e-05
-1.9093366e-05
7.5316646e-05
-2.3843858e-05
7.7776309e-05
-2.8628417e-05
8.0361179e-05
-3.3541284e-05
8.3126758e-05
-3.8602015e-05
8.6051258e-05
-4.3809159e-05
8.9201506e-05
-4.9449917e-05
9.2681696e-05
-5.5567298e-05
9.6556515e-05
-6.2450756e-05
0.00010091025
-7.0356473e-05
0.00010601034
-7.9423946e-05
0.00011179387
-9.0142883e-05
0.0001189185
-0.0001028785
0.0001275224
-0.00011809441
0.00013782329
-0.00013640047
0.00015040509
-0.00015854437
0.00016579526
-0.00018520807
0.00018446769
-0.0002174377
0.00020713285
-0.00025626846
0.00023404731
-0.00030298529
0.00026590315
-0.00035900538
0.0003031657
-0.00042588442
0.00034627626
-0.00050527439
0.00039558226
-0.00059888417
0.00045131205
-0.00070844675
0.00051355109
-0.0008356557
0.00058223971
-0.0009820695
0.00065716431
-0.0011490588
0.00073799093
-0.0013377969
0.00082444119
-0.0015492617
0.00091656089
-0.0017845094
0.0010152478
-0.0020450484
0.0011226343
-0.0023327666
0.0012423471
-0.0026520987
0.0013815256
-0.0030287967
0.0015680921
-0.0035455905
0.0018945831
-0.0042858546
0.0024227473
-0.0050414285
0.002651383
-0.0051724138
0.0013429258
-0.0041887654
-0.0019391033
-0.002772989
-0.0048431299
-0.0011545145
-0.0064953714
0.00050507247
-0.0071194051
0.0021406995
-0.0070309577
0.0037780397
-0.0065011586
0.005721698
-0.0063914208
0.0079692286
-0.0062894424
0.0099446326
-0.0051327469
0.011439624
-0.0033012294
0.01239109
-0.0019898403
0.012683195
-0.0012449483
0.012360242
-0.00077678806
0.011149266
5.4016898e-05
0.0096005693
0.00061150375
0.0085556095
0.00085603507
0.0078633499
0.0016054943
0.006856251
0.0026476082
0.0056519954
0.0031507923
0.0046693507
0.0028621092
0.0040413134
0.0024596598
0.0035959123
0.0023391372
0.0031881245
0.0023594052
0.0028045254
0.0023250348
0.0024623323
0.0022189964
0.0021607748
0.002083247
0.0018915456
0.0019359991
0.0016479215
0.00178187
0.0014250734
0.0016256673
0.0012196063
0.0014726218
0.0010295735
0.0013267419
0.00085415017
0.0011903021
0.00069311564
0.0010639475
0.00054640327
0.00094738982
0.00041371299
0.00083995844
0.00029471812
0.00074110171
0.00018884703
0.0006501767
9.5566564e-05
0.00056646879
1.4362792e-05
0.000489208
-5.5309688e-05
0.00041785083
-0.00011396141
0.0003518495
-0.00016210582
0.00029071705
-0.0002002398
0.00023402134
-0.00022893114
0.00018148699
-0.00024838133
0.00013286335
-0.00025995527
8.8092787e-05
-0.00026413281
4.7537202e-05
-0.00026117265
1.0813697e-05
-0.00025026953
-2.2815594e-05
-0.00023273992
-5.1990318e-05
-0.00020927774
-7.7356532e-05
-0.00018061701
-9.8832379e-05
-0.00014739553
-0.00011681121
-0.0001336991
1.3711818e-05
6.5419554e-05
9.6511987e-06
6.7330629e-05
5.4465817e-06
6.9235106e-05
1.1609797e-06
7.109322e-05
-3.2119407e-06
7.2973898e-05
-7.7141319e-06
7.5217843e-05
-1.2231331e-05
7.7464945e-05
-1.6790649e-05
7.9871229e-05
-2.1374548e-05
8.2366407e-05
-2.6011642e-05
8.4999909e-05
-3.0645295e-05
8.77565e-05
-3.5458809e-05
9.0867583e-05
-4.0338243e-05
9.4081453e-05
-4.5547358e-05
9.7886051e-05
-5.1052793e-05
0.00010206093
-5.7164659e-05
0.00010702227
-6.3996205e-05
0.00011283811
-7.19388e-05
0.00011973324
-8.108295e-05
0.00012806153
-9.188731e-05
0.0001383234
-0.00010487776
0.00015080924
-0.00012045791
0.00016598421
-0.00013934116
0.00018467981
-0.00016217471
0.00020730108
-0.00019007982
0.00023503662
-0.00022407196
0.00026803846
-0.00026546608
0.00030729574
-0.00031574586
0.00035344306
-0.00037656292
0.00040709222
-0.00044970277
0.00046872343
-0.0005370247
0.00053863562
-0.00064038879
0.00061691481
-0.00076155774
0.00070340605
-0.00090210958
0.0007977129
-0.0010633268
0.00089920622
-0.0012460275
0.0010071418
-0.0014504464
0.0011209795
-0.0016762285
0.0012410301
-0.0019223903
0.0013687993
-0.002185947
0.001505907
-0.0024650044
0.0016605821
-0.0027848573
0.001887945
-0.003214136
0.0023238651
-0.0037391825
0.0029477925
-0.0040746065
0.0029868031
-0.0037380825
0.0010063976
-0.0031023264
-0.0025748662
-0.0022640228
-0.0056814378
-0.00083706472
-0.0079223335
0.00063766926
-0.0085941417
0.0018992535
-0.0082925415
0.0037336103
-0.0083355159
0.0060291506
-0.0086869599
0.0086636014
-0.0089238928
0.011166999
-0.0076361437
0.013302543
-0.0054367741
0.014422269
-0.0031095633
0.014921394
-0.001744074
0.014826689
-0.00068208148
0.013605033
0.0012756681
0.011576428
0.0026401078
0.0098222762
0.0026101826
0.008610868
0.0028168998
0.0075297928
0.0037286799
0.0064036046
0.0042769813
0.0052509731
0.0040147458
0.0043202996
0.0033903267
0.0036499169
0.0030095174
0.003129213
0.0028801146
0.0026878387
0.0027664095
0.0023131011
0.0025937304
0.001995697
0.0024006501
0.0017214598
0.0022102382
0.0014792755
0.002024058
0.0012617236
0.0018432202
0.0010639314
0.0016704096
0.00088312701
0.0015075411
0.00071793552
0.001355492
0.00056777744
0.0012141061
0.00043173133
0.001083437
0.00030935395
0.00096233582
0.00019991675
0.00085053829
0.00010275123
0.00074734281
1.7363596e-05
0.00065185998
-5.683604e-05
0.00056341055
-0.00012040429
0.00048141955
-0.00017371466
0.00040516296
-0.0002171899
0.00033419507
-0.0002512525
0.00026808402
-0.00027627423
0.00020650747
-0.00029286703
0.00014945535
-0.0003011738
9.639922e-05
-0.00030130089
4.7662769e-05
-0.00029365164
3.1626671e-06
-0.00027924204
-3.7226545e-05
-0.0002580901
-7.3139463e-05
-0.00023083121
-0.00010461254
-0.00019822041
-0.00013145314
-0.00016092588
-0.00015410286
-0.00017542071
1.5499381e-05
6.9011091e-05
1.1551322e-05
7.1261096e-05
7.4340048e-06
7.3365033e-05
3.2756404e-06
7.5240206e-05
-9.6278197e-07
7.7218414e-05
-5.4140187e-06
7.967457e-05
-9.8770543e-06
8.1923642e-05
-1.4282977e-05
8.4283129e-05
-1.8698708e-05
8.6785956e-05
-2.3123487e-05
8.9422596e-05
-2.7599815e-05
9.2236661e-05
-3.1956411e-05
9.5226954e-05
-3.6538253e-05
9.8659678e-05
-4.1130759e-05
0.00010247696
-4.5982605e-05
0.00010691342
-5.106738e-05
0.00011210455
-5.672473e-05
0.00011849276
-6.3132472e-05
0.00012614063
-7.040693e-05
0.00013533397
-7.8911814e-05
0.00014682416
-8.9032217e-05
0.00016092818
-0.00010130719
0.00017826094
-0.00011610824
0.00019948193
-0.00013425003
0.00022544218
-0.00015666511
0.00025745101
-0.00018451182
0.00029588447
-0.0002190667
0.00034184912
-0.0002618837
0.00039625944
-0.00031474487
0.00045995535
-0.00037961344
0.00053359465
-0.00045856904
0.00061759149
-0.00055371396
0.00071205792
-0.00066705877
0.00081674912
-0.00080036647
0.00093101908
-0.00095493359
0.0010537716
-0.0011312889
0.0011834964
-0.0013288415
0.0013185325
-0.0015454777
0.0014576659
-0.0017766289
0.0015999512
-0.0020131424
0.0017424233
-0.0022437672
0.0018912072
-0.0024707619
0.0021149375
-0.0027013779
0.0025544811
-0.0028691806
0.0031155933
-0.0028238951
0.0029415131
-0.0026358314
0.00081833143
-0.0023750912
-0.002835609
-0.0015879288
-0.0064686019
-0.00040142207
-0.0091088413
0.00069949037
-0.0096950562
0.0019238631
-0.0095169142
0.0036981488
-0.010109803
0.0060567371
-0.011045548
0.0086029171
-0.011470075
0.011288481
-0.010321705
0.013770553
-0.0079188491
0.01540604
-0.0047450474
0.015737423
-0.0020754578
0.014675232
0.00038011085
0.013693083
0.0022578125
0.01219989
0.0041332967
0.01082151
0.0039885581
0.0093560333
0.0042823771
0.0079421607
0.0051425522
0.0067071574
0.0055119817
0.0055485032
0.0051734013
0.0044600582
0.0044787726
0.0036189017
0.0038506698
0.0030057494
0.0034932682
0.0025250496
0.0032471145
0.002131195
0.002987588
0.0018057556
0.002726087
0.001531251
0.0024847373
0.0012937123
0.0022615945
0.0010839383
0.0020529962
0.00089607915
0.0018582704
0.00072664826
0.0016769729
0.00057352913
0.0015086122
0.00043499148
0.0013526425
0.00031019425
0.001208231
0.00019793365
0.0010745937
9.7401887e-05
0.00095107184
8.3073673e-06
0.00083644021
-7.0081495e-05
0.00073025363
-0.0001381401
0.00063147222
-0.00019617098
0.00053945294
-0.00024446824
0.0004534559
-0.00028331132
0.00037303509
-0.00031300188
0.00029777222
-0.00033379999
0.00022730806
-0.00034590756
0.00016156185
-0.00034978577
0.00010027355
-0.00034569342
4.3568619e-05
-0.00033396223
-8.5710833e-06
-0.00031507366
-5.6120477e-05
-0.00028943747
-9.8782168e-05
-0.0002577018
-0.00013634712
-0.00022046471
-0.0001686963
-0.0001781937
-0.00019637647
-0.00022215703
1.7265057e-05
7.2458515e-05
1.3502372e-05
7.5034671e-05
9.4967197e-06
7.7356046e-05
5.4294589e-06
7.9312569e-05
1.1384624e-06
8.1514239e-05
-3.1265966e-06
8.393523e-05
-7.4383086e-06
8.6241176e-05
-1.1752869e-05
8.8602803e-05
-1.6026469e-05
9.1058996e-05
-2.0221238e-05
9.3622497e-05
-2.4347578e-05
9.6368321e-05
-2.8469644e-05
9.9347534e-05
-3.2479547e-05
0.00010266853
-3.6457812e-05
0.00010645679
-4.0464954e-05
0.00011091981
-4.4656807e-05
0.00011629508
-4.8904375e-05
0.00012274153
-5.345674e-05
0.00013069313
-5.8676829e-05
0.00014055119
-6.4482718e-05
0.00015262837
-7.1229941e-05
0.00016767698
-7.9398101e-05
0.00018643078
-8.9550353e-05
0.0002096342
-0.0001022369
0.00023812878
-0.00011793778
0.0002731528
-0.00013819785
0.00031614532
-0.00016428929
0.00036794147
-0.0001978246
0.00042979706
-0.00024074898
0.00050288281
-0.00029525931
0.00058810637
-0.00036373267
0.00068606376
-0.00044862484
0.00079694864
-0.00055232571
0.00092044992
-0.00067699862
0.0010556916
-0.00082426192
0.001201032
-0.00099474095
0.0013539722
-0.0011874816
0.0015112725
-0.00139907
0.0016692545
-0.0016218465
0.0018227269
-0.0018414207
0.0019619981
-0.0020381366
0.0020879226
-0.0021899491
0.0022667462
-0.0022515366
0.0026160659
-0.002141699
0.0030057549
-0.0018650239
0.0026648366
-0.0016681414
0.0006214493
-0.0013614563
-0.0031422934
-0.00080927596
-0.0070207837
-6.0343251e-05
-0.0098577759
0.00085988679
-0.01061529
0.0022070054
-0.010864035
0.003905812
-0.011808611
0.0057755271
-0.012915264
0.0077470636
-0.013441616
0.010079393
-0.012654033
0.012187173
-0.01002663
0.0136363
-0.0061941746
0.014716016
-0.0031551737
0.014909179
0.00018694572
0.013743963
0.0034230287
0.01251185
0.0053654094
0.010860421
0.0056399839
0.0089551987
0.006187597
0.0075117628
0.006585986
0.0063971541
0.0066265906
0.0052613765
0.0063091769
0.0041793486
0.0055607995
0.0033346457
0.0046953767
0.0027327256
0.0040951925
0.0022672601
0.0037125769
0.0018860177
0.0033688268
0.0015722105
0.0030398945
0.0013098123
0.0027471367
0.0010849302
0.0024864779
0.00088809313
0.0022498346
0.00071369545
0.0020326683
0.00055772
0.0018329478
0.00041747914
0.0016488537
0.00029103792
0.0014790833
0.00017726322
0.0013220044
7.4830483e-05
0.0011770248
-1.6588951e-05
0.0010424945
-9.7845147e-05
0.00091769912
-0.00016906702
0.00080147846
-0.00023061231
0.00069301385
-0.00028257163
0.00059141375
-0.00032526752
0.00049615079
-0.00035887796
0.00040664425
-0.00038355383
0.00032244382
-0.00039956405
0.00024331762
-0.00040707854
0.00016907692
-0.00040638522
9.9580072e-05
-0.00039770259
3.4883533e-05
-0.00038127215
-2.5005267e-05
-0.00035756702
-7.9833547e-05
-0.00032697235
-0.00012937478
-0.00028998259
-0.00017333947
-0.00024739254
-0.00021128476
-0.000199258
-0.00024451117
-0.00027474333
1.9330617e-05
7.5794912e-05
1.5622694e-05
7.8725168e-05
1.1718852e-05
8.1265118e-05
7.6425426e-06
8.3392007e-05
3.3907654e-06
8.5761072e-05
-8.2862587e-07
8.8160316e-05
-5.043527e-06
9.0461523e-05
-9.2690585e-06
9.2828458e-05
-1.3387515e-05
9.5183307e-05
-1.7403589e-05
9.7645699e-05
-2.1260104e-05
0.00010022537
-2.4920312e-05
0.00010300764
-2.8410235e-05
0.00010616099
-3.1719619e-05
0.00010976695
-3.4820542e-05
0.0001140207
-3.768886e-05
0.000119166
-4.0480167e-05
0.00012553498
-4.316104e-05
0.00013337248
-4.5872339e-05
0.00014326052
-4.8680505e-05
0.00015543718
-5.1862347e-05
0.00017085999
-5.5534911e-05
0.00019010312
-6.0141515e-05
0.00021424089
-6.6347912e-05
0.00024433699
-7.4606224e-05
0.00028141351
-8.58944e-05
0.00032743568
-0.00010191698
0.00038396663
-0.00012425142
0.0004521341
-0.00015508362
0.00053371615
-0.00019691827
0.00062994073
-0.00025252848
0.00074167382
-0.00032489113
0.00086931193
-0.00041695478
0.0010125139
-0.0005315561
0.0011702913
-0.00067104469
0.0013405168
-0.000836762
0.0015196857
-0.0010283599
0.0017028699
-0.0012424271
0.0018833228
-0.0014699272
0.0020502256
-0.0016937205
0.0021857888
-0.0018906173
0.0022848175
-0.0020306648
0.0024067911
-0.0020530771
0.0026384764
-0.0018624688
0.0028151472
-0.001450039
0.0022524073
-0.00099384531
0.00016525507
-0.00057815771
-0.0035579807
-0.0001142193
-0.0074847243
0.00041571338
-0.010387712
0.0014849503
-0.011684531
0.0030582822
-0.012437371
0.004443574
-0.013193908
0.0053550412
-0.013826733
0.0066050379
-0.014691614
0.008497882
-0.01454688
0.010489099
-0.012017848
0.012308523
-0.0080136021
0.013222667
-0.0040693162
0.013643597
-0.00023398311
0.012854556
0.0042120687
0.011411514
0.0068084509
0.0096676877
0.007383807
0.008290417
0.0075648667
0.0069107203
0.0079656791
0.0055948536
0.0079424576
0.0044251437
0.0074788924
0.0034495215
0.0065364183
0.0027734846
0.0053714071
0.0022907677
0.0045779116
0.0018979138
0.0041054356
0.001565114
0.0037016275
0.0012861846
0.003318824
0.0010506995
0.0029826237
0.0008479275
0.0026892522
0.00067057101
0.0024271924
0.00051362986
0.0021896122
0.00037337825
0.001973204
0.00024762165
0.0017746147
0.00013414668
0.0015925605
3.1948733e-05
0.0014242066
-5.9817476e-05
0.0012687942
-0.00014187582
0.0011245538
-0.00021450679
0.00099032646
-0.00027795251
0.00086492381
-0.00033238686
0.000747448
-0.00037798143
0.000637007
-0.00041481013
0.00053297701
-0.00044295914
0.00043479173
-0.00046253724
0.00034202332
-0.00047366845
0.0002544491
-0.00047639457
0.00017180152
-0.00047091076
9.4096184e-05
-0.00045731178
2.1289184e-05
-0.00043588557
-4.643006e-05
-0.00040691147
-0.00010880914
-0.0003707392
-0.00016554495
-0.00032794038
-0.00021613826
-0.00027925289
-0.00025996849
-0.00022439879
-0.00029936567
-0.00033404564
2.1602722e-05
7.9045001e-05
1.7963528e-05
8.2370167e-05
1.4070022e-05
8.5159502e-05
9.9879228e-06
8.7468086e-05
5.7886048e-06
8.9965948e-05
1.5386329e-06
9.2415036e-05
-2.7319788e-06
9.4731808e-05
-6.8900195e-06
9.6992111e-05
-1.0872367e-05
9.9173276e-05
-1.4720907e-05
0.00010149581
-1.8312498e-05
0.00010381749
-2.1616768e-05
0.000106315
-2.4526825e-05
0.00010907261
-2.7079129e-05
0.0001123197
-2.9213317e-05
0.00011615791
-3.092227e-05
0.00012087808
-3.2042209e-05
0.00012665409
-3.277663e-05
0.00013410425
-3.2879326e-05
0.00014336233
-3.2561815e-05
0.00015511952
-3.1720306e-05
0.00017001719
-3.0527903e-05
0.00018890981
-2.9264557e-05
0.00021297894
-2.8056201e-05
0.00024313127
-2.7731072e-05
0.00028109048
-2.8922711e-05
0.00032862893
-3.3134448e-05
0.00038817988
-4.2102126e-05
0.0004611024
-5.8366523e-05
0.00054998007
-8.4803422e-05
0.00065637781
-0.00012464947
0.00078152186
-0.00018164313
0.00092630736
-0.00025938543
0.0010902552
-0.00036177336
0.0012726765
-0.00049248664
0.0014712277
-0.00065438908
0.0016815868
-0.00084901954
0.0018975002
-0.001074564
0.0021088671
-0.0013224513
0.0022981111
-0.0015760996
0.0024394345
-0.0018175345
0.0025262511
-0.0020272795
0.0026165354
-0.0021483357
0.0027595311
-0.0020497224
0.0027165326
-0.0015935825
0.0017962672
-0.00074871479
-0.0006796151
7.6726719e-05
-0.0043834236
0.00073208685
-0.0081400869
0.0013146567
-0.010970285
0.002357691
-0.012727569
0.0038192136
-0.013898897
0.0049239325
-0.014298628
0.005465658
-0.014368463
0.0063275204
-0.015553477
0.0077413374
-0.015960702
0.0090715718
-0.013348082
0.010389655
-0.0093316863
0.011192976
-0.0048726364
0.011468283
-0.00050928854
0.011382363
0.0042979887
0.010735344
0.0074554676
0.0092954269
0.0088237202
0.0077723883
0.0090879044
0.0062081986
0.009529867
0.004538224
0.0096124266
0.0032556119
0.0087615059
0.0024894467
0.0073025887
0.002050779
0.0058100767
0.0017289235
0.0048997648
0.0014394938
0.0043948634
0.0011795495
0.0039615729
0.0009531969
0.0035451808
0.00075674986
0.0031790749
0.00058435098
0.0028616541
0.00043210926
0.0025794359
0.00029630083
0.0023254222
0.0001745231
0.0020949836
6.4527892e-05
0.0018846114
-3.4299212e-05
0.0016913865
-0.0001238764
0.0015137832
-0.00020443989
0.00134936
-0.00027647352
0.0011965887
-0.00034013192
0.0010539843
-0.00039557576
0.00092036333
-0.00044284101
0.00079471323
-0.00048196153
0.00067612699
-0.00051288496
0.00056390304
-0.00053558164
0.00045748669
-0.00055003007
0.0003564704
-0.00055614663
0.00026056557
-0.00055394743
0.00016960221
-0.00054354628
8.3691733e-05
-0.00052478891
2.5319101e-06
-0.00049798932
-7.3230146e-05
-0.00046337476
-0.00014342149
-0.00042114104
-0.00020778168
-0.0003719611
-0.00026531907
-0.00031639581
-0.00031553461
-0.00025400708
-0.00036174881
-0.00040094822
2.4163802e-05
8.2256922e-05
2.0526674e-05
8.6005553e-05
1.6591556e-05
8.9087824e-05
1.2452866e-05
9.1612287e-05
8.19527e-06
9.4226809e-05
3.8797253e-06
9.6728922e-05
-3.6231849e-07
9.8978258e-05
-4.5142889e-06
0.00010115069
-8.5635593e-06
0.00010322376
-1.2277309e-05
0.00010520997
-1.5676101e-05
0.00010721934
-1.8598762e-05
0.00010923927
-2.105538e-05
0.00011152932
-2.2894931e-05
0.00011416166
-2.4091002e-05
0.00011735694
-2.4529964e-05
0.00012131614
-2.4227214e-05
0.00012634778
-2.2762091e-05
0.00013263667
-2.0366399e-05
0.00014096513
-1.6756022e-05
0.00015150683
-1.1835645e-05
0.00016509489
-5.5300995e-06
0.00018260472
2.4469963e-06
0.00020500377
1.1610454e-05
0.00023396898
2.1528522e-05
0.00027117246
3.1742341e-05
0.00031841496
4.0975743e-05
0.00037894632
4.7479107e-05
0.00045459877
4.8545959e-05
0.00054891364
4.0665048e-05
0.00066426054
1.9823164e-05
0.00080236607
-1.7947587e-05
0.00096407896
-7.7864943e-05
0.0011501713
-0.00016485469
0.0013596647
-0.00028442844
0.0015908015
-0.00044163532
0.0018387939
-0.00064154425
0.002097408
-0.00088589368
0.0023532149
-0.0011684265
0.0025806427
-0.0014770975
0.0027481059
-0.0018112077
0.0028603611
-0.0021731082
0.0029784338
-0.0024717588
0.003058178
-0.0024400382
0.0026848077
-0.0018107276
0.0011669563
-0.00063481552
-0.0018555288
0.00057599021
-0.0055942319
0.0015834575
-0.0091475569
0.0024062298
-0.011793061
0.0031879584
-0.013509299
0.0039172648
-0.014628206
0.0046581593
-0.01503952
0.0051407143
-0.014851023
0.0054593235
-0.015872088
0.0059158025
-0.016417185
0.006772071
-0.014204353
0.0076428551
-0.010202468
0.0082744184
-0.0055041993
0.0086107654
-0.00084563925
0.009086763
0.0038219908
0.0091689779
0.0073732507
0.0082101039
0.0097825928
0.0066635925
0.010634415
0.0049351226
0.011258337
0.003250857
0.011296693
0.002057835
0.0099545271
0.0015362311
0.007824189
0.0013038361
0.0060424687
0.0011236706
0.0050799302
0.00093502475
0.0045835112
0.00075377681
0.0041428227
0.00058798309
0.0037109759
0.00043715588
0.0033299017
0.00029992951
0.0029988777
0.00017650974
0.0027028541
6.510903e-05
0.0024368241
-3.5892152e-05
0.0021959872
-0.00012800723
0.0019767267
-0.00021218943
0.001775568
-0.00028856603
0.0015901563
-0.00035756339
0.0014183571
-0.00041931879
0.0012583425
-0.00047391314
0.0011085808
-0.00052134363
0.00096779291
-0.00056147844
0.00083484761
-0.00059417242
0.00070881756
-0.00061927413
0.0005890041
-0.00063654146
0.00047475287
-0.0006458419
0.0003657705
-0.00064698552
0.00026170742
-0.00063986133
0.00016247579
-0.00062426939
6.8101691e-05
-0.00060027185
-2.1472358e-05
-0.00056789116
-0.00010561518
-0.00052722456
-0.00018408372
-0.00047855531
-0.0002564488
-0.00042246047
-0.00032141176
-0.00035922888
-0.00037876789
-0.00028844705
-0.00043253124
-0.00047640755
2.7032035e-05
8.5466866e-05
2.3345122e-05
8.9685094e-05
1.9305985e-05
9.3133079e-05
1.5064376e-05
9.5855151e-05
1.0660643e-05
9.8627335e-05
6.2347325e-06
0.00010115781
1.7743923e-06
0.0001034432
-2.4881416e-06
0.00010541288
-6.5094047e-06
0.00010724461
-1.0174653e-05
0.0001088778
-1.3374662e-05
0.00011042056
-1.6090432e-05
0.00011195435
-1.8116218e-05
0.00011355639
-1.9315632e-05
0.00011536325
-1.9663065e-05
0.00011770312
-1.8955081e-05
0.00012060402
-1.706997e-05
0.00012445931
-1.3897335e-05
0.00012946183
-8.8524899e-06
0.0001359176
-2.0079795e-06
0.00014466005
7.011648e-06
0.00015607535
1.8545187e-05
0.00017107277
3.2792281e-05
0.00019075716
5.019552e-05
0.00021656458
7.0683294e-05
0.00025068341
9.3669611e-05
0.00029542823
0.0001186816
0.00035393457
0.00014320721
0.00043007406
0.00016455948
0.00052756323
0.00017905595
0.00064976608
0.00018185445
0.00079956836
0.00016746467
0.00097846843
0.00013033418
0.0011873016
6.3999191e-05
0.001426
-3.9681409e-05
0.001694482
-0.00018888898
0.0019879998
-0.00039365172
0.0023021688
-0.00066007094
0.0026196333
-0.00098673753
0.0029073091
-0.0013771758
0.0031385447
-0.0018633592
0.0033465427
-0.002441625
0.0035566949
-0.0029006294
0.0035171785
-0.0028390516
0.0026232256
-0.0021135051
0.0004414098
-0.00093155296
-0.0030374815
0.00044311801
-0.0069689062
0.001899167
-0.010603606
0.003218151
-0.013112048
0.0039893496
-0.014280496
0.0041077513
-0.014746613
0.0040000905
-0.01493186
0.0041153732
-0.014966307
0.0041350345
-0.015891752
0.004143406
-0.016425556
0.0043735075
-0.014434457
0.004586737
-0.010415701
0.0046707822
-0.0055882427
0.0046988549
-0.00087371459
0.0050633296
0.003457517
0.0052609315
0.0071756497
0.0051620209
0.0098815031
0.0040943548
0.011702081
0.0027863119
0.012566375
0.0015277305
0.012555271
0.0008883981
0.010593861
0.00065590662
0.0080566808
0.00060406334
0.0060943091
0.00053040474
0.0051535864
0.0004218707
0.004692046
0.00031316966
0.0042515273
0.00020643384
0.0038177164
0.00010106684
0.0034352723
2.805784e-06
0.0030971397
-8.937446e-05
0.0027950353
-0.00017549177
0.0025229414
-0.00025559313
0.0022760904
-0.0003296779
0.0020508115
-0.00039807011
0.0018439639
-0.00046081051
0.0016528979
-0.00051792016
0.0014754671
-0.00056935398
0.0013097724
-0.00061495
0.0011541759
-0.00065444034
0.0010072835
-0.00068756721
0.00086797466
-0.00071400886
0.00073525843
-0.0007333916
0.00060838345
-0.00074540387
0.0004867614
-0.00074977039
0.00037013933
-0.00074605679
0.00025799535
-0.0007339963
0.00015041362
-0.000713511
4.7616068e-05
-0.00068409754
-5.0887558e-05
-0.00064593626
-0.00014377319
-0.00059898122
-0.00023103896
-0.00054345947
-0.00031196726
-0.00047988141
-0.00038498997
-0.00040822286
-0.00045042434
-0.00032822527
-0.00051253415
-0.00056126664
3.0247441e-05
8.8719486e-05
2.6466565e-05
9.3472373e-05
2.2267639e-05
9.7331309e-05
1.7812225e-05
0.00010030621
1.3182791e-05
0.00010325877
8.5022739e-06
0.00010584074
3.8773889e-06
0.00010806568
-6.312901e-07
0.00010992004
-4.8163573e-06
0.00011143169
-8.5644357e-06
0.00011262668
-1.1638429e-05
0.00011349319
-1.4107113e-05
0.00011442327
-1.5858274e-05
0.00011530891
-1.6613133e-05
0.00011611673
-1.623452e-05
0.00011732066
-1.4553846e-05
0.00011892034
-1.1234247e-05
0.00012113795
-6.0435337e-06
0.00012426888
1.0686902e-06
0.00012880333
1.0753379e-05
0.00013497558
2.338099e-05
0.00014344963
3.9653863e-05
0.00015480069
6.0244842e-05
0.00017016499
8.5695464e-05
0.00019111256
0.00011674399
0.0002196349
0.00015357081
0.00025860276
0.00019549672
0.00031201056
0.00024118948
0.00038438324
0.00028731216
0.00048144215
0.00032897618
0.00060810293
0.00036045503
0.00076808943
0.00037540028
0.00096352277
0.00036658078
0.001196121
0.00032590076
0.0014666797
0.00024554542
0.0017748353
0.00011252393
0.0021210177
-8.7345227e-05
0.0025020359
-0.00037225991
0.0029045485
-0.00075435995
0.0032894072
-0.0012657394
0.0036499203
-0.0019573526
0.0040381522
-0.0027492684
0.0043486072
-0.0033149875
0.0040828976
-0.0033644822
0.0026727182
-0.0029661024
4.302776e-05
-0.0020646376
-0.0039389467
-0.00055307817
-0.0084804687
0.0013851323
-0.012541816
0.0033752147
-0.015102132
0.0045672212
-0.015472503
0.0044861012
-0.014665496
0.0037521244
-0.014197888
0.0032672499
-0.014481432
0.0028634633
-0.015487967
0.0023963051
-0.015958398
0.0019710595
-0.014009211
0.001583823
-0.010028466
0.0011329249
-0.005137343
0.0006735418
-0.00041432898
0.00098717649
0.0031438827
0.0016424947
0.0065203299
0.0018324568
0.0096915396
0.0005964338
0.012938105
7.255676e-05
0.013090249
-0.00024033916