/*--------------------------------*- C++ -*----------------------------------*\
  =========                 |
  \\      /  F ield         | OpenFOAM: The Open Source CFD Toolbox
   \\    /   O peration     | Website:  https://openfoam.org
    \\  /    A nd           | Version:  9
     \\/     M anipulation  |
\*---------------------------------------------------------------------------*/
FoamFile
{
    format      ascii;
    class       volVectorField;
    location    "0.92";
    object      U;
}
// * * * * * * * * * * * * * * * * * * * * * * * * * * * * * * * * * * * * * //

dimensions      [0 1 -1 0 0 0 0];

internalField   nonuniform List<vector> 
10000
(
(0.0013134472 0.0050739887 0)
(0.00066764336 0.0051617156 0)
(0.00040646314 0.0052861891 0)
(-0.00039186979 0.005426462 0)
(-0.00063839251 0.0055894987 0)
(-0.0012847176 0.0057649122 0)
(-0.0017457912 0.0059571358 0)
(-0.0022439699 0.0061614128 0)
(-0.0027406327 0.0063735963 0)
(-0.0032336124 0.0065888606 0)
(-0.0037335067 0.0068026226 0)
(-0.0042456989 0.0070178609 0)
(-0.004768742 0.0072239356 0)
(-0.0053242247 0.0074137877 0)
(-0.0059308166 0.0075902899 0)
(-0.0066118368 0.0077534529 0)
(-0.0073788767 0.0078968917 0)
(-0.0083237358 0.0080261898 0)
(-0.0094860295 0.008183147 0)
(-0.010832603 0.0083647333 0)
(-0.012479173 0.0085687674 0)
(-0.014488071 0.00885582 0)
(-0.016900577 0.0092136679 0)
(-0.019840915 0.0096793349 0)
(-0.023341798 0.01026018 0)
(-0.02748383 0.010973285 0)
(-0.032416051 0.011831244 0)
(-0.038259954 0.01284142 0)
(-0.045161828 0.014009488 0)
(-0.053276173 0.015344072 0)
(-0.062758565 0.016859552 0)
(-0.073768213 0.018571485 0)
(-0.086468091 0.020494669 0)
(-0.10100438 0.02263611 0)
(-0.11751089 0.024983403 0)
(-0.13613862 0.027515046 0)
(-0.15706588 0.030218587 0)
(-0.18049764 0.033094595 0)
(-0.20666997 0.036162431 0)
(-0.23596553 0.039477223 0)
(-0.26902799 0.043067568 0)
(-0.30625377 0.04677555 0)
(-0.34785035 0.050756158 0)
(-0.39729668 0.055596669 0)
(-0.46182533 0.056416212 0)
(-0.53347359 0.034935992 0)
(-0.56406747 -0.031549535 0)
(-0.50101951 -0.12948907 0)
(-0.36372505 -0.19338128 0)
(-0.20432675 -0.23078701 0)
(-0.041293305 -0.22706811 0)
(0.11954642 -0.22864235 0)
(0.25219589 -0.21893164 0)
(0.37224872 -0.19541796 0)
(0.46910132 -0.17371612 0)
(0.53041727 -0.1260078 0)
(0.55011991 -0.074595293 0)
(0.54688894 -0.081948957 0)
(0.55088713 -0.11644393 0)
(0.57102897 -0.12532017 0)
(0.6047053 -0.087218298 0)
(0.62678429 -0.047704708 0)
(0.61062833 -0.029856358 0)
(0.55809377 0.009557439 0)
(0.50067624 0.058069479 0)
(0.45820217 0.094420516 0)
(0.42182241 0.11401109 0)
(0.38523539 0.12541264 0)
(0.34934274 0.13232081 0)
(0.31514636 0.13435916 0)
(0.28292185 0.13221481 0)
(0.25278582 0.12704626 0)
(0.22473646 0.11954065 0)
(0.19871478 0.11027416 0)
(0.17461479 0.099926254 0)
(0.15229806 0.089212569 0)
(0.13162733 0.07877175 0)
(0.11249278 0.069048046 0)
(0.094812619 0.060244239 0)
(0.078550741 0.052394957 0)
(0.063659574 0.045423259 0)
(0.0501005 0.039264764 0)
(0.037882475 0.033824216 0)
(0.026973022 0.029002425 0)
(0.01733186 0.024715996 0)
(0.0089038995 0.020897529 0)
(0.0016527581 0.017492986 0)
(-0.0044545285 0.014445387 0)
(-0.0094555433 0.011697656 0)
(-0.01343972 0.0091697973 0)
(-0.016533547 0.0068442957 0)
(-0.01884283 0.0047306222 0)
(-0.020393225 0.002903022 0)
(-0.021143256 0.0013611971 0)
(-0.021151978 6.0256966e-05 0)
(-0.020406056 -0.0010176998 0)
(-0.018785782 -0.0019016753 0)
(-0.016999208 -0.0026195215 0)
(-0.015202808 -0.0031916878 0)
(-0.0097620353 -0.0037121459 0)
(0.0013981892 0.0058046621 0)
(0.00082836288 0.0059362982 0)
(0.00060607591 0.0061081376 0)
(-0.00015821643 0.0062797093 0)
(-0.00037786136 0.0064944571 0)
(-0.00099887023 0.0067083505 0)
(-0.0014348976 0.0069505406 0)
(-0.0019155233 0.0072074645 0)
(-0.002401293 0.0074768865 0)
(-0.0028903181 0.0077581369 0)
(-0.0033852986 0.0080445597 0)
(-0.0038965157 0.00834542 0)
(-0.0044311688 0.0086540359 0)
(-0.0049988605 0.0089599263 0)
(-0.0056119544 0.0092896727 0)
(-0.0063027425 0.0096203186 0)
(-0.0070791571 0.0099752155 0)
(-0.0079860802 0.010364202 0)
(-0.0090719485 0.010828382 0)
(-0.010349284 0.01138615 0)
(-0.011874875 0.012046997 0)
(-0.013724472 0.012867078 0)
(-0.015960809 0.013862216 0)
(-0.018690882 0.015091091 0)
(-0.021966146 0.016570957 0)
(-0.025858317 0.018329868 0)
(-0.030518982 0.020399661 0)
(-0.036070355 0.022806502 0)
(-0.042659855 0.025573188 0)
(-0.050444707 0.028718319 0)
(-0.059587784 0.032253709 0)
(-0.070254178 0.036179729 0)
(-0.082605375 0.040491111 0)
(-0.096791084 0.045184078 0)
(-0.11294937 0.050253434 0)
(-0.13121447 0.055702615 0)
(-0.15173013 0.061563986 0)
(-0.17465915 0.067911833 0)
(-0.20017656 0.074882515 0)
(-0.2286406 0.082742206 0)
(-0.26086076 0.091815065 0)
(-0.29719877 0.10216085 0)
(-0.33827164 0.11515078 0)
(-0.39386961 0.13488357 0)
(-0.47712385 0.15126986 0)
(-0.55652168 0.11131218 0)
(-0.5528189 -0.050043978 0)
(-0.43685848 -0.27571793 0)
(-0.27058998 -0.40636015 0)
(-0.084531513 -0.45889245 0)
(0.10157217 -0.45383676 0)
(0.27994979 -0.40524541 0)
(0.42664572 -0.36737733 0)
(0.56580332 -0.31675954 0)
(0.68852443 -0.24470537 0)
(0.74703523 -0.13676786 0)
(0.77685241 -0.065292777 0)
(0.81667946 -0.075080625 0)
(0.83974671 -0.11891533 0)
(0.82646684 -0.15476562 0)
(0.80295565 -0.13358406 0)
(0.79809371 -0.042852397 0)
(0.75214516 0.0546995 0)
(0.64234125 0.1146733 0)
(0.53394449 0.13959113 0)
(0.46105096 0.15036694 0)
(0.41532475 0.16083544 0)
(0.37933197 0.17057911 0)
(0.3435019 0.17541329 0)
(0.30786858 0.17452926 0)
(0.27461769 0.16944937 0)
(0.24422573 0.16151071 0)
(0.21635214 0.15145143 0)
(0.19069878 0.13990869 0)
(0.16702007 0.12757217 0)
(0.14508768 0.11511949 0)
(0.12472297 0.10311879 0)
(0.10581984 0.091934066 0)
(0.088330334 0.081703266 0)
(0.072242792 0.072417274 0)
(0.057539387 0.063969849 0)
(0.044206739 0.056301922 0)
(0.032230181 0.049321511 0)
(0.021570303 0.04294717 0)
(0.012186777 0.037105458 0)
(0.004026729 0.031739716 0)
(-0.0029563344 0.026803234 0)
(-0.0088182289 0.022241771 0)
(-0.013635803 0.018007004 0)
(-0.01747201 0.014040006 0)
(-0.020371748 0.010347994 0)
(-0.022349524 0.0069764866 0)
(-0.023433696 0.003964353 0)
(-0.023722575 0.0013044806 0)
(-0.023315509 -0.0010524798 0)
(-0.022186569 -0.003072644 0)
(-0.020256183 -0.0047713775 0)
(-0.018189313 -0.0061877823 0)
(-0.01614403 -0.0073444461 0)
(-0.010338502 -0.0084256683 0)
(0.0015009878 0.005770153 0)
(0.00098911849 0.0059116739 0)
(0.00076675339 0.0060760724 0)
(2.2430415e-05 0.0062364101 0)
(-0.00017650484 0.0064211418 0)
(-0.00078318389 0.0066129008 0)
(-0.0011961727 0.0068278568 0)
(-0.0016633467 0.0070552039 0)
(-0.0021330582 0.0072932727 0)
(-0.0026081117 0.0075437668 0)
(-0.0030883706 0.0078112212 0)
(-0.0035781395 0.0080902826 0)
(-0.0040982773 0.0083988152 0)
(-0.0046350848 0.0087233867 0)
(-0.0052197554 0.0090914049 0)
(-0.005879416 0.0094903635 0)
(-0.0065934461 0.0099569955 0)
(-0.0074326226 0.010487379 0)
(-0.0084287492 0.011127141 0)
(-0.0095827069 0.011897525 0)
(-0.010967948 0.012816326 0)
(-0.012641877 0.013929533 0)
(-0.014641923 0.015287291 0)
(-0.017092643 0.016941136 0)
(-0.020057625 0.018942569 0)
(-0.023598979 0.021320413 0)
(-0.027866424 0.02413175 0)
(-0.03298884 0.027417502 0)
(-0.039118127 0.031214496 0)
(-0.046415125 0.03555206 0)
(-0.055048063 0.04045065 0)
(-0.065190966 0.045919488 0)
(-0.077016742 0.051955131 0)
(-0.090689127 0.058541286 0)
(-0.10635383 0.06565331 0)
(-0.12413175 0.073274277 0)
(-0.14412868 0.081422684 0)
(-0.16644655 0.090189346 0)
(-0.19113638 0.099779994 0)
(-0.21833653 0.11058683 0)
(-0.24877539 0.12317499 0)
(-0.28279016 0.13883523 0)
(-0.32158036 0.16377481 0)
(-0.38155403 0.20627703 0)
(-0.47971457 0.23205092 0)
(-0.55066745 0.13035768 0)
(-0.48555168 -0.15337829 0)
(-0.33630214 -0.42888915 0)
(-0.20070722 -0.57676456 0)
(-0.02772056 -0.63331967 0)
(0.130416 -0.62894158 0)
(0.28990025 -0.56533048 0)
(0.47125162 -0.52243622 0)
(0.68407801 -0.48977594 0)
(0.90098642 -0.38329786 0)
(1.0750174 -0.22605784 0)
(1.1991925 -0.13045234 0)
(1.2703872 -0.097053233 0)
(1.2763772 -0.078118786 0)
(1.1980582 -0.051131327 0)
(1.0394846 -0.039811909 0)
(0.89095743 0.0042525102 0)
(0.81909788 0.11868169 0)
(0.74727174 0.22165265 0)
(0.62596321 0.25683617 0)
(0.50501421 0.23139251 0)
(0.42728201 0.20855473 0)
(0.37983624 0.2098636 0)
(0.3388258 0.216121 0)
(0.29854598 0.21448132 0)
(0.26199436 0.20618562 0)
(0.23005855 0.19480386 0)
(0.20175514 0.18174593 0)
(0.17626061 0.16759562 0)
(0.15304461 0.1529704 0)
(0.13170119 0.13848315 0)
(0.11196444 0.12461246 0)
(0.093711316 0.11163765 0)
(0.076907444 0.099644827 0)
(0.061538439 0.088599604 0)
(0.047587916 0.07842077 0)
(0.03503075 0.069060489 0)
(0.023816665 0.060446221 0)
(0.013887196 0.052522211 0)
(0.0051896524 0.045228092 0)
(-0.0023267812 0.038517086 0)
(-0.0087154064 0.032340418 0)
(-0.014027678 0.026651095 0)
(-0.018321874 0.021416164 0)
(-0.021641469 0.016623808 0)
(-0.024024103 0.012261044 0)
(-0.025560931 0.0083005756 0)
(-0.026333772 0.004689221 0)
(-0.026380004 0.001411367 0)
(-0.02570519 -0.0015156318 0)
(-0.024256308 -0.0041109391 0)
(-0.022027801 -0.0063560383 0)
(-0.019663758 -0.0082414085 0)
(-0.017342851 -0.0098102335 0)
(-0.011096298 -0.011280989 0)
(0.0016022913 0.0064352903 0)
(0.0011350061 0.0066161352 0)
(0.00092598247 0.0067951715 0)
(0.0001840546 0.0069726394 0)
(-6.4311153e-06 0.0071493967 0)
(-0.00058838697 0.0073596476 0)
(-0.00098602317 0.0075759309 0)
(-0.0014398171 0.0078080662 0)
(-0.0018974101 0.0080476937 0)
(-0.0023522844 0.0082990663 0)
(-0.0028147743 0.0085678812 0)
(-0.0032794735 0.0088601195 0)
(-0.0037629583 0.0091729726 0)
(-0.0042656866 0.0095310113 0)
(-0.0047996347 0.0099235727 0)
(-0.0053874932 0.010385882 0)
(-0.0060281679 0.010928906 0)
(-0.0067579792 0.011556359 0)
(-0.0076007842 0.012330529 0)
(-0.0085958934 0.013275592 0)
(-0.009776208 0.014410716 0)
(-0.011186478 0.015802212 0)
(-0.012882387 0.017509579 0)
(-0.014970223 0.019574394 0)
(-0.017527848 0.022093431 0)
(-0.020615589 0.025086447 0)
(-0.02437283 0.028636284 0)
(-0.028940339 0.032797068 0)
(-0.034476636 0.037621468 0)
(-0.04115532 0.043150111 0)
(-0.049159634 0.04940863 0)
(-0.0586777 0.056405667 0)
(-0.069892926 0.064131939 0)
(-0.082973818 0.072559805 0)
(-0.098064008 0.081646623 0)
(-0.11526601 0.09134805 0)
(-0.13463132 0.10164837 0)
(-0.15616731 0.11261869 0)
(-0.17973772 0.12446439 0)
(-0.20504944 0.13749167 0)
(-0.23231566 0.15246054 0)
(-0.26149473 0.1735136 0)
(-0.29276787 0.21285727 0)
(-0.34022657 0.27327251 0)
(-0.41090373 0.28646614 0)
(-0.42593129 0.11519449 0)
(-0.34032629 -0.23676939 0)
(-0.26685916 -0.5371895 0)
(-0.16041798 -0.7284427 0)
(-0.0053918493 -0.79932421 0)
(0.12285603 -0.77068719 0)
(0.27205909 -0.74129448 0)
(0.47950252 -0.74727681 0)
(0.72999866 -0.75508066 0)
(0.99258668 -0.63425378 0)
(1.234474 -0.42901007 0)
(1.4039962 -0.2438902 0)
(1.4822185 -0.15010667 0)
(1.5050467 -0.089453553 0)
(1.4548713 0.060947825 0)
(1.2799105 0.17401095 0)
(1.0556941 0.173237 0)
(0.90230754 0.20992133 0)
(0.80981792 0.31118158 0)
(0.70337925 0.37044572 0)
(0.57844483 0.34256954 0)
(0.46873179 0.28707611 0)
(0.39189617 0.26228565 0)
(0.33648863 0.25970694 0)
(0.28909931 0.25401429 0)
(0.24820213 0.24068258 0)
(0.21400389 0.22453179 0)
(0.18481752 0.20781201 0)
(0.15922109 0.19085787 0)
(0.13638036 0.17400497 0)
(0.11570699 0.15767562 0)
(0.096827767 0.14218145 0)
(0.079562695 0.1276869 0)
(0.063823088 0.11421914 0)
(0.049540037 0.10176412 0)
(0.036652139 0.090248551 0)
(0.025095209 0.079634416 0)
(0.014797453 0.069859663 0)
(0.0056944234 0.060850423 0)
(-0.0022641047 0.052542913 0)
(-0.0091273187 0.044882341 0)
(-0.01494757 0.037799973 0)
(-0.019763996 0.03124328 0)
(-0.023617998 0.025163721 0)
(-0.026553343 0.019520537 0)
(-0.028621167 0.014269085 0)
(-0.029853122 0.0093794899 0)
(-0.03025865 0.0048748135 0)
(-0.029871526 0.0007868119 0)
(-0.028784483 -0.0028609599 0)
(-0.026970818 -0.0061116508 0)
(-0.024373642 -0.0089575131 0)
(-0.021625007 -0.011365995 0)
(-0.018941864 -0.013392591 0)
(-0.012116681 -0.015296263 0)
(0.0017454448 0.0067325025 0)
(0.0013378782 0.0069471657 0)
(0.0011225572 0.007152486 0)
(0.0003731316 0.0073468089 0)
(0.00020102834 0.0075393491 0)
(-0.00035976611 0.0077789579 0)
(-0.00075050218 0.0080055991 0)
(-0.0011913051 0.0082445987 0)
(-0.0016378485 0.0084943808 0)
(-0.0020798841 0.0087585637 0)
(-0.002514559 0.009035966 0)
(-0.0029548499 0.0093428008 0)
(-0.0034018923 0.0096727936 0)
(-0.0038516171 0.010056232 0)
(-0.0043234319 0.01048741 0)
(-0.0048238089 0.010997167 0)
(-0.0053637143 0.011609602 0)
(-0.0059620921 0.012340047 0)
(-0.0066307513 0.013220485 0)
(-0.0074149434 0.014312915 0)
(-0.0083464267 0.015647722 0)
(-0.0094421441 0.017278286 0)
(-0.01076558 0.019280235 0)
(-0.01240133 0.021715869 0)
(-0.01444379 0.024709501 0)
(-0.016960481 0.028283724 0)
(-0.02006561 0.032546603 0)
(-0.023916408 0.03757432 0)
(-0.028678581 0.043439484 0)
(-0.034542439 0.050198727 0)
(-0.041711713 0.057887363 0)
(-0.050398109 0.066514968 0)
(-0.060810109 0.076061727 0)
(-0.073140511 0.086477143 0)
(-0.087547034 0.097678705 0)
(-0.10412104 0.10956167 0)
(-0.12285973 0.12202827 0)
(-0.14365703 0.13505234 0)
(-0.16615149 0.14869345 0)
(-0.18949943 0.16291935 0)
(-0.21302559 0.17853467 0)
(-0.23593395 0.20216875 0)
(-0.25524307 0.24840863 0)
(-0.27454029 0.31069963 0)
(-0.29975809 0.30292216 0)
(-0.2943206 0.091482813 0)
(-0.25110962 -0.27537043 0)
(-0.20570282 -0.61748077 0)
(-0.091888988 -0.86595783 0)
(0.012413844 -0.92739946 0)
(0.12097682 -0.89575888 0)
(0.27340736 -0.92456146 0)
(0.48087369 -0.99884812 0)
(0.72658539 -1.0327644 0)
(0.99222163 -0.90784999 0)
(1.25515 -0.67504859 0)
(1.471784 -0.39870683 0)
(1.5950341 -0.18880744 0)
(1.5537797 -0.013443919 0)
(1.423676 0.17212853 0)
(1.302429 0.3375528 0)
(1.1579111 0.33679601 0)
(1.0002108 0.3495769 0)
(0.86028905 0.43300892 0)
(0.73575761 0.48766266 0)
(0.61240643 0.4603329 0)
(0.49176246 0.39208 0)
(0.39434764 0.34052755 0)
(0.32664123 0.31718805 0)
(0.27420682 0.3000081 0)
(0.23062638 0.27864528 0)
(0.19512333 0.25604239 0)
(0.16564699 0.23455666 0)
(0.14033009 0.21415465 0)
(0.1181375 0.19471947 0)
(0.098374236 0.17636484 0)
(0.080586785 0.15917231 0)
(0.064512474 0.1431614 0)
(0.049991913 0.12829848 0)
(0.036871754 0.11455741 0)
(0.025038579 0.10183987 0)
(0.014443094 0.090099187 0)
(0.0049863001 0.079240757 0)
(-0.0033827112 0.069189573 0)
(-0.010685897 0.059856857 0)
(-0.016968251 0.051178545 0)
(-0.022268096 0.043079061 0)
(-0.026605254 0.035515017 0)
(-0.030015145 0.028441907 0)
(-0.032524456 0.021825394 0)
(-0.034154641 0.01565658 0)
(-0.034939014 0.0099417963 0)
(-0.034910389 0.0046742406 0)
(-0.034105265 -0.00015193369 0)
(-0.032590447 -0.004543984 0)
(-0.030331529 -0.0084686998 0)
(-0.027301941 -0.011920285 0)
(-0.024097931 -0.014881 0)
(-0.020962514 -0.017391767 0)
(-0.01343774 -0.019749564 0)
(0.0018907958 0.0070977151 0)
(0.0015361125 0.0073321044 0)
(0.0013309995 0.0075521332 0)
(0.00057533955 0.0077473365 0)
(0.00042155372 0.0079583619 0)
(-0.00011870344 0.0082009998 0)
(-0.00051776807 0.0084259268 0)
(-0.00094672744 0.0086585039 0)
(-0.0013755221 0.0089044488 0)
(-0.0017995262 0.0091628415 0)
(-0.0022161554 0.0094397265 0)
(-0.0026240441 0.0097362604 0)
(-0.003025652 0.01007139 0)
(-0.0034212347 0.010451969 0)
(-0.0038225447 0.010895862 0)
(-0.0042218783 0.011425883 0)
(-0.004633583 0.012067483 0)
(-0.005087707 0.01285043 0)
(-0.0055608586 0.013805612 0)
(-0.0060937628 0.014987474 0)
(-0.0067307496 0.016449808 0)
(-0.0074707397 0.018259401 0)
(-0.0083602368 0.020485596 0)
(-0.009452968 0.023213743 0)
(-0.010874141 0.026574551 0)
(-0.012696026 0.030651279 0)
(-0.015000295 0.035544143 0)
(-0.01796181 0.041362473 0)
(-0.021758676 0.048204875 0)
(-0.02660279 0.056148623 0)
(-0.032725217 0.065242848 0)
(-0.04037091 0.075502132 0)
(-0.049785835 0.086897902 0)
(-0.061203399 0.099355429 0)
(-0.074821534 0.11274249 0)
(-0.090758473 0.12686655 0)
(-0.10900253 0.14149556 0)
(-0.12937536 0.1564062 0)
(-0.1513519 0.17132736 0)
(-0.17364924 0.18566189 0)
(-0.19470476 0.19982793 0)
(-0.2129789 0.22091256 0)
(-0.22300891 0.26233442 0)
(-0.21870789 0.31249616 0)
(-0.20783991 0.28896806 0)
(-0.19106207 0.08042059 0)
(-0.14951037 -0.29060386 0)
(-0.11426814 -0.67494652 0)
(-0.036740075 -0.95744036 0)
(0.027006742 -1.0149052 0)
(0.14152773 -1.0156374 0)
(0.31103895 -1.1063849 0)
(0.48484303 -1.2269791 0)
(0.66183219 -1.2713705 0)
(0.87765244 -1.1655167 0)
(1.1153426 -0.90628218 0)
(1.3083257 -0.54843527 0)
(1.4327018 -0.25229119 0)
(1.5097212 0.052221263 0)
(1.4616619 0.29893129 0)
(1.3224154 0.46850351 0)
(1.1730562 0.47816151 0)
(0.99202257 0.52163348 0)
(0.81352068 0.58806305 0)
(0.69236502 0.60686917 0)
(0.58541536 0.57309047 0)
(0.46383499 0.50330728 0)
(0.36425673 0.42954539 0)
(0.29831476 0.38101052 0)
(0.24791811 0.34882485 0)
(0.20549601 0.31828475 0)
(0.17107376 0.28859673 0)
(0.14283779 0.26181442 0)
(0.11877636 0.23759413 0)
(0.097873799 0.21532044 0)
(0.079448576 0.19473842 0)
(0.063022795 0.17570076 0)
(0.048290857 0.15808869 0)
(0.035038017 0.14181013 0)
(0.023062805 0.12674629 0)
(0.01226621 0.11281862 0)
(0.0025997722 0.099916129 0)
(-0.0060219914 0.087939947 0)
(-0.013629276 0.076810597 0)
(-0.02024554 0.066433634 0)
(-0.025904054 0.056735086 0)
(-0.030625907 0.047652192 0)
(-0.034420278 0.039137268 0)
(-0.037321221 0.031150789 0)
(-0.0393429 0.02366452 0)
(-0.04050271 0.01665974 0)
(-0.040830326 0.010122589 0)
(-0.040346117 0.0040489132 0)
(-0.039082278 -0.0015541451 0)
(-0.037085352 -0.0066717842 0)
(-0.034326085 -0.011279765 0)
(-0.030805896 -0.015356227 0)
(-0.027085039 -0.018869692 0)
(-0.023406965 -0.021904243 0)
(-0.015068609 -0.024714516 0)
(0.002063632 0.0074253647 0)
(0.0017640328 0.0076991202 0)
(0.0015472557 0.0079413377 0)
(0.0007888584 0.0081466294 0)
(0.00065357138 0.0083754603 0)
(0.00011611931 0.0086199378 0)
(-0.00028604041 0.0088491736 0)
(-0.00070298923 0.0090779784 0)
(-0.0011193922 0.0093117739 0)
(-0.00152627 0.0095603891 0)
(-0.0019186468 0.0098244858 0)
(-0.0022952785 0.010110627 0)
(-0.0026524753 0.010433474 0)
(-0.0029874733 0.010802878 0)
(-0.003303551 0.011238331 0)
(-0.0035994881 0.011766156 0)
(-0.0038778467 0.012408756 0)
(-0.004153936 0.01320005 0)
(-0.0044159319 0.014192762 0)
(-0.0046844531 0.015410279 0)
(-0.004981994 0.016940171 0)
(-0.005309705 0.018848707 0)
(-0.0057126176 0.021223429 0)
(-0.0062107025 0.024161479 0)
(-0.0069003024 0.027774312 0)
(-0.0078872885 0.032238344 0)
(-0.0092505904 0.037662682 0)
(-0.011147112 0.044170468 0)
(-0.013774971 0.051907789 0)
(-0.017374649 0.060979095 0)
(-0.022212937 0.071456054 0)
(-0.028581457 0.083366487 0)
(-0.036781663 0.096677028 0)
(-0.047110117 0.11129523 0)
(-0.059838837 0.12703523 0)
(-0.075164531 0.14359962 0)
(-0.093146805 0.16058811 0)
(-0.11364848 0.17750095 0)
(-0.13612794 0.19357945 0)
(-0.15908315 0.20749125 0)
(-0.18037717 0.21901048 0)
(-0.19833386 0.23435941 0)
(-0.20755465 0.26374378 0)
(-0.19722234 0.29320615 0)
(-0.1698109 0.25266673 0)
(-0.134726 0.051942794 0)
(-0.074959975 -0.3241616 0)
(-0.034366728 -0.72251352 0)
(0.015678651 -1.0150399 0)
(0.076089286 -1.1125374 0)
(0.22304397 -1.1628245 0)
(0.39254732 -1.2586156 0)
(0.49242246 -1.3554117 0)
(0.58300577 -1.4270088 0)
(0.73961546 -1.3764889 0)
(0.94116295 -1.1132847 0)
(1.1463369 -0.71388297 0)
(1.2895941 -0.36180605 0)
(1.3641904 -0.0062911438 0)
(1.3642713 0.38524545 0)
(1.2353661 0.62099103 0)
(1.0518247 0.65445818 0)
(0.89450585 0.68905829 0)
(0.75779203 0.72857011 0)
(0.62670815 0.72289231 0)
(0.49714263 0.68629916 0)
(0.38025282 0.60813391 0)
(0.29984912 0.50845117 0)
(0.24946133 0.43704601 0)
(0.20826999 0.39284868 0)
(0.17134224 0.35481197 0)
(0.14084539 0.31886754 0)
(0.11566006 0.28719871 0)
(0.094016191 0.25937328 0)
(0.075182581 0.23437212 0)
(0.058589651 0.21159251 0)
(0.043840306 0.1907448 0)
(0.030630685 0.17157346 0)
(0.018725094 0.15394719 0)
(0.0079646376 0.1376365 0)
(-0.0017216327 0.12258017 0)
(-0.010394202 0.10860742 0)
(-0.018106799 0.09562314 0)
(-0.02489394 0.083514427 0)
(-0.030770326 0.072194391 0)
(-0.035758565 0.061574578 0)
(-0.039865181 0.051598242 0)
(-0.043098745 0.042206541 0)
(-0.045475671 0.033357227 0)
(-0.046998889 0.025019468 0)
(-0.04767684 0.01717447 0)
(-0.047528931 0.0098152096 0)
(-0.046564369 0.0029392372 0)
(-0.04480312 -0.003435792 0)
(-0.042285719 -0.0092907874 0)
(-0.038985654 -0.014599964 0)
(-0.034905603 -0.019327516 0)
(-0.030610361 -0.023406466 0)
(-0.026300607 -0.027021319 0)
(-0.017037494 -0.030282195 0)
(0.0022594967 0.0077621872 0)
(0.0020115694 0.0080719027 0)
(0.0017874799 0.0083368577 0)
(0.0010198602 0.0085620092 0)
(0.00089250505 0.0088005373 0)
(0.0003635583 0.0090486597 0)
(-5.1748563e-05 0.0092815304 0)
(-0.00047317368 0.0095156204 0)
(-0.00087794402 0.0097331514 0)
(-0.0012663124 0.0099617748 0)
(-0.0016389636 0.010203168 0)
(-0.00198187 0.010465075 0)
(-0.0022930342 0.010759182 0)
(-0.002568219 0.011101323 0)
(-0.0028025068 0.011506311 0)
(-0.0029861897 0.012000136 0)
(-0.003125109 0.012609017 0)
(-0.0032182076 0.013378296 0)
(-0.0032551585 0.01433976 0)
(-0.0032403722 0.015542432 0)
(-0.0031772651 0.017067153 0)
(-0.0030653557 0.018983769 0)
(-0.0029213964 0.021405069 0)
(-0.0027731593 0.024430255 0)
(-0.0026621563 0.028191097 0)
(-0.0026703022 0.032883607 0)
(-0.0029317815 0.038700345 0)
(-0.0035766254 0.045764234 0)
(-0.0048028506 0.054290923 0)
(-0.0068968497 0.064421969 0)
(-0.010166749 0.07625697 0)
(-0.014966401 0.089859506 0)
(-0.021668155 0.10518459 0)
(-0.030656839 0.12214088 0)
(-0.042327042 0.14050381 0)
(-0.057021669 0.15988774 0)
(-0.074980754 0.17974452 0)
(-0.096257729 0.19926244 0)
(-0.1204594 0.21706107 0)
(-0.14607413 0.23095452 0)
(-0.17087133 0.24020457 0)
(-0.19424629 0.25038897 0)
(-0.2129408 0.26836572 0)
(-0.21345711 0.27583004 0)
(-0.18622255 0.20752761 0)
(-0.12935437 -0.014074914 0)
(-0.033923571 -0.3892833 0)
(0.049124722 -0.77890875 0)
(0.10335839 -1.0679281 0)
(0.1706966 -1.2296349 0)
(0.30767312 -1.3325768 0)
(0.45132956 -1.3854668 0)
(0.52876361 -1.4132018 0)
(0.58322938 -1.5261823 0)
(0.68337975 -1.5476459 0)
(0.82859671 -1.2943693 0)
(0.97224425 -0.89522463 0)
(1.0876997 -0.47077705 0)
(1.1465506 -0.04579966 0)
(1.1707513 0.42624648 0)
(1.1317036 0.72772408 0)
(1.0161413 0.8156612 0)
(0.85806661 0.8320201 0)
(0.70268436 0.86532012 0)
(0.53642551 0.86860582 0)
(0.37391143 0.8117097 0)
(0.2690559 0.69676178 0)
(0.2170408 0.56398066 0)
(0.18690289 0.47703437 0)
(0.15827658 0.4270699 0)
(0.1296136 0.38469242 0)
(0.10522098 0.34435363 0)
(0.084516871 0.30896851 0)
(0.066260499 0.27825793 0)
(0.050174799 0.25094468 0)
(0.035877689 0.22627101 0)
(0.023106531 0.20385704 0)
(0.01160882 0.18334531 0)
(0.0011980396 0.16452735 0)
(-0.008238461 0.14718283 0)
(-0.016719088 0.13115619 0)
(-0.024327624 0.11627509 0)
(-0.031092722 0.10241008 0)
(-0.037035014 0.08943987 0)
(-0.042158443 0.077270751 0)
(-0.04646913 0.065809094 0)
(-0.049959188 0.054991855 0)
(-0.05263053 0.044760558 0)
(-0.054481331 0.035071086 0)
(-0.055500517 0.025892522 0)
(-0.055684234 0.017211779 0)
(-0.055044138 0.0090243303 0)
(-0.053576585 0.0013406855 0)
(-0.051292045 -0.0058246714 0)
(-0.048223842 -0.012446592 0)
(-0.044338951 -0.018493479 0)
(-0.039630172 -0.023898011 0)
(-0.034715233 -0.028582444 0)
(-0.029677126 -0.032856643 0)
(-0.019383409 -0.0365655 0)
(0.0024829032 0.0080879692 0)
(0.0022869932 0.0084393437 0)
(0.0020466133 0.0087314274 0)
(0.0012647562 0.0089723832 0)
(0.0011376545 0.0092252153 0)
(0.00060662498 0.0094725882 0)
(0.00018996031 0.0097046872 0)
(-0.0002391962 0.0099303279 0)
(-0.00065604966 0.010146901 0)
(-0.0010333171 0.010347204 0)
(-0.0013849573 0.010557018 0)
(-0.0017015417 0.010779253 0)
(-0.0019705109 0.011028677 0)
(-0.0021853421 0.01132159 0)
(-0.0023398885 0.011673211 0)
(-0.0024219882 0.012108746 0)
(-0.0024145557 0.012649522 0)
(-0.0023270198 0.013341367 0)
(-0.0021436335 0.014227158 0)
(-0.0018370903 0.015348348 0)
(-0.0014100355 0.016781451 0)
(-0.00083234419 0.018612345 0)
(-0.00012115746 0.0209521 0)
(0.00072436325 0.023921033 0)
(0.0017047341 0.02769658 0)
(0.0027816624 0.032447479 0)
(0.0037929338 0.038470072 0)
(0.0046111036 0.04591461 0)
(0.0050546292 0.055083681 0)
(0.004771507 0.066173734 0)
(0.0034160258 0.079331443 0)
(0.00054814857 0.09463305 0)
(-0.0042992524 0.11209065 0)
(-0.011604252 0.13162738 0)
(-0.021923404 0.1530369 0)
(-0.035793724 0.17585731 0)
(-0.05376191 0.19943788 0)
(-0.076275847 0.22261176 0)
(-0.10325168 0.24328516 0)
(-0.13336439 0.25857819 0)
(-0.16514563 0.26805778 0)
(-0.20046096 0.27754791 0)
(-0.23721619 0.28925295 0)
(-0.2536104 0.27298995 0)
(-0.22110754 0.15584363 0)
(-0.12852026 -0.12351695 0)
(-0.0059324975 -0.4940689 0)
(0.11542865 -0.85558173 0)
(0.20669751 -1.1304401 0)
(0.28364712 -1.3196193 0)
(0.35916435 -1.4483633 0)
(0.43166302 -1.4882638 0)
(0.49672397 -1.4686186 0)
(0.53362767 -1.5786424 0)
(0.55132798 -1.635355 0)
(0.61805346 -1.4008771 0)
(0.71434865 -1.0037668 0)
(0.79558209 -0.54614137 0)
(0.84808318 -0.077942347 0)
(0.90192974 0.39634368 0)
(0.94126555 0.73362113 0)
(0.8973118 0.92714236 0)
(0.75598937 0.98511366 0)
(0.58893501 1.032314 0)
(0.4028421 1.0457965 0)
(0.24248756 0.94137507 0)
(0.16130982 0.76198078 0)
(0.13385695 0.5959453 0)
(0.12056167 0.50109075 0)
(0.10339788 0.45045806 0)
(0.083398576 0.40661913 0)
(0.066111096 0.36395923 0)
(0.050538703 0.32635053 0)
(0.036234218 0.29375984 0)
(0.023339484 0.26472399 0)
(0.011672946 0.2386228 0)
(0.0010907745 0.2149811 0)
(-0.0085600735 0.19343715 0)
(-0.017336268 0.17366929 0)
(-0.025331017 0.1554804 0)
(-0.032572503 0.13863812 0)
(-0.039089994 0.12297339 0)
(-0.044896924 0.10833416 0)
(-0.049990064 0.094595897 0)
(-0.054361547 0.08165234 0)
(-0.057997651 0.069412118 0)
(-0.060877436 0.057803035 0)
(-0.062990872 0.046766787 0)
(-0.064319283 0.036263558 0)
(-0.064836946 0.026262745 0)
(-0.064527364 0.016752655 0)
(-0.063381533 0.0077317573 0)
(-0.061392686 -0.00078586761 0)
(-0.058568289 -0.008771173 0)
(-0.054925766 -0.016195733 0)
(-0.050409353 -0.023021583 0)
(-0.045011002 -0.029137005 0)
(-0.039453569 -0.034494417 0)
(-0.033571839 -0.039491975 0)
(-0.022138467 -0.043655332 0)
(0.0027388802 0.0084093823 0)
(0.0025906664 0.0088069365 0)
(0.0023304383 0.0091298187 0)
(0.0015275868 0.0093927798 0)
(0.001390666 0.0096573902 0)
(0.00085378436 0.0099101142 0)
(0.00041585494 0.010139255 0)
(-1.8185848e-05 0.010348209 0)
(-0.00044239422 0.010549925 0)
(-0.00083069027 0.010725385 0)
(-0.0011738709 0.010890061 0)
(-0.0014686223 0.011061208 0)
(-0.0017001064 0.011253405 0)
(-0.0018631272 0.011472894 0)
(-0.001943674 0.011749047 0)
(-0.001926682 0.012092624 0)
(-0.0017979391 0.012540365 0)
(-0.001533477 0.013105834 0)
(-0.0011285806 0.013852917 0)
(-0.00055461202 0.014826798 0)
(0.00022889894 0.016086065 0)
(0.001256711 0.017725163 0)
(0.0025491136 0.019845899 0)
(0.0041381644 0.022603328 0)
(0.0060339227 0.026190268 0)
(0.0082789322 0.030809988 0)
(0.01072098 0.036782238 0)
(0.013232829 0.044388771 0)
(0.015655766 0.053999015 0)
(0.017554884 0.065883076 0)
(0.018504586 0.08027069 0)
(0.018008792 0.097286759 0)
(0.015531226 0.11700168 0)
(0.010466296 0.1393295 0)
(0.0020313714 0.16415754 0)
(-0.010583696 0.19101114 0)
(-0.028350208 0.21937238 0)
(-0.052251458 0.24778382 0)
(-0.082508189 0.27332031 0)
(-0.11848077 0.29272549 0)
(-0.16176748 0.30743682 0)
(-0.21737081 0.3234893 0)
(-0.27578462 0.32984591 0)
(-0.29914028 0.27297836 0)
(-0.25490805 0.082706954 0)
(-0.15288192 -0.24642041 0)
(-0.031396401 -0.61578328 0)
(0.11478475 -0.96511388 0)
(0.26567607 -1.2231677 0)
(0.38276028 -1.380963 0)
(0.42155266 -1.4787124 0)
(0.40395383 -1.5161621 0)
(0.40320036 -1.5063414 0)
(0.41769621 -1.5983358 0)
(0.40275691 -1.6566521 0)
(0.40974762 -1.4470451 0)
(0.43870691 -1.047264 0)
(0.45681412 -0.57420924 0)
(0.46677235 -0.098156975 0)
(0.50175305 0.35479467 0)
(0.53399995 0.72631409 0)
(0.54518372 0.99447761 0)
(0.48844475 1.1128263 0)
(0.34988256 1.2024503 0)
(0.20394433 1.2060297 0)
(0.10259615 1.0393982 0)
(0.063282291 0.80025682 0)
(0.0577714 0.60985022 0)
(0.057276148 0.51283353 0)
(0.047953856 0.46487869 0)
(0.035896734 0.42100928 0)
(0.025596949 0.37754173 0)
(0.015017891 0.33917211 0)
(0.0048465818 0.30557826 0)
(-0.0047527267 0.27553744 0)
(-0.013639725 0.24853482 0)
(-0.021898468 0.22407045 0)
(-0.029571801 0.20178243 0)
(-0.036657769 0.18132991 0)
(-0.043189072 0.16246246 0)
(-0.049162991 0.14496132 0)
(-0.054577889 0.12864442 0)
(-0.059423703 0.11334959 0)
(-0.063673415 0.098945113 0)
(-0.067302197 0.085315648 0)
(-0.070278083 0.072367309 0)
(-0.072568017 0.060024943 0)
(-0.074140468 0.048226547 0)
(-0.074959285 0.036936364 0)
(-0.074986876 0.026131277 0)
(-0.074193002 0.015791483 0)
(-0.072558992 0.0059211991 0)
(-0.070054105 -0.0034466089 0)
(-0.066674678 -0.012286406 0)
(-0.062436419 -0.020561128 0)
(-0.057244073 -0.028213269 0)
(-0.051116141 -0.035098047 0)
(-0.044878465 -0.041215567 0)
(-0.038022237 -0.046998697 0)
(-0.025366064 -0.051634591 0)
(0.0030301676 0.008735496 0)
(0.0029278299 0.0091820645 0)
(0.0026418627 0.0095444117 0)
(0.0018075542 0.0098282211 0)
(0.0016531088 0.010110657 0)
(0.0010998528 0.010365103 0)
(0.0006378368 0.010588163 0)
(0.0001847575 0.010785844 0)
(-0.00025935264 0.010955291 0)
(-0.0006656863 0.011102507 0)
(-0.0010136348 0.011218088 0)
(-0.0012932374 0.011325237 0)
(-0.0015036574 0.011443866 0)
(-0.0016233327 0.011571598 0)
(-0.0016415727 0.011746658 0)
(-0.0015387381 0.01197094 0)
(-0.001296542 0.0122769 0)
(-0.00089585843 0.012687856 0)
(-0.00028874961 0.01323952 0)
(0.00054273763 0.013997753 0)
(0.0016466377 0.015006324 0)
(0.0030948752 0.016339452 0)
(0.0049376577 0.018108987 0)
(0.007254273 0.020473849 0)
(0.01009936 0.023631561 0)
(0.013563489 0.027850448 0)
(0.017576511 0.033477446 0)
(0.022044229 0.040938684 0)
(0.026781312 0.050698244 0)
(0.031275408 0.063167186 0)
(0.035042555 0.078662397 0)
(0.03749485 0.09735845 0)
(0.037940558 0.11936595 0)
(0.035698669 0.14473709 0)
(0.029780151 0.17346298 0)
(0.019253474 0.20534015 0)
(0.0027336141 0.23987585 0)