/*--------------------------------*- C++ -*----------------------------------*\
  =========                 |
  \\      /  F ield         | OpenFOAM: The Open Source CFD Toolbox
   \\    /   O peration     | Website:  https://openfoam.org
    \\  /    A nd           | Version:  9
     \\/     M anipulation  |
\*---------------------------------------------------------------------------*/
FoamFile
{
    format      ascii;
    class       surfaceScalarField;
    location    "42";
    object      phi;
}
// * * * * * * * * * * * * * * * * * * * * * * * * * * * * * * * * * * * * * //

dimensions      [0 3 -1 0 0 0 0];

internalField   nonuniform List<scalar> 
1300
(
1.7582594
5.6264299
-5.0430026
1.7582594
-8.5226511
5.6264299
-5.3684687
5.3684687
-0.75063258
0.75063258
3.7314322
3.6532571
-3.9913648
3.9913648
-3.5443296
3.5443296
-0.68141753
0.68141753
-5.237724
5.237724
-5.0577383
5.0577383
4.7183476
-4.7183475
-6.8969557
6.8969557
-0.63455987
0.63455987
-4.8523036
4.8523036
1.5012149
-1.5012149
-3.4628693
3.4628693
0.039421411
-0.03942141
-0.56922787
5.1407022
1.1890315
1.1890315
-0.55549045
0.55549045
-4.864756
4.864756
6.2140952
-6.2140952
7.8416131
-7.8416131
-2.7986105
-3.379352
1.9788602
-12.521308
-6.5437909
-6.5437909
-8.4382632
8.4382632
-2.8118334
2.8145966
1.4778122
-1.4778122
-1.756397
1.756397
-5.3136357
-0.054833028
-5.3136358
5.4027433
-0.034274564
5.4027432
-0.79867786
0.048045269
-0.79867786
4.7232664
-4.7232664
0.65674615
0.093886423
0.65674615
1.2791746
-1.2791746
-3.7404134
7.4718456
3.6442759
-3.0549972
8.1956994
-3.3919538
7.045211
-6.5518837
6.5518837
-4.1768942
0.18552942
-4.1768942
3.8695438
0.12182102
3.8695437
-7.4312509
7.4312509
-3.6147307
0.070401158
-3.6147307
3.4950492
0.049280348
3.4950492
2.067424
-2.067424
-0.72954089
0.048123365
-0.72954088
0.63312862
0.048288908
0.63312863
0.35898202
5.267448
-5.9854119
8.8000084
-5.2674478
0.029723774
5.2000924
0.037631528
5.2000924
-5.0938567
0.036118434
-5.0938567
5.015847
0.041891316
5.0158471
4.8031104
-0.084762838
4.8031104
-4.8286388
0.11029107
-4.8286388
-4.0298629
-4.4950302
-7.0609764
0.16402072
-7.0609764
-0.57104187
-0.063517994
-0.57104188
0.73674562
-0.10218576
0.73674562
-4.1272361
4.1272361
-5.1933964
0.34109274
-5.1933964
1.3694931
0.13172181
1.3694931
2.0090352
2.5624392
3.7672945
-3.7672945
2.2660797
-3.445145
-0.017724336
-3.445145
-3.5339595
-4.3076536
3.5339596
-0.071090289
-0.37091419
0.41033565
-0.37091426
1.2474776
-0.058446083
1.2474776
0.59061942
0.042509204
-0.59061941
0.035128957
3.3354754
-3.3354754
0.16793345
0.38755703
0.16793345
-5.5699403
5.5699403
4.958124
0.057723084
-4.9581239
0.093367891
6.1533166
0.060778676
6.1533166
-6.1926438
-0.021451488
-6.1926438
3.4448828
-6.8242349
-3.4908271
6.7239954
0.17296028
-6.7239954
0.18020445
1.5874038
-0.10959156
1.5874038
-1.0456392
1.0456392
-1.4380412
-0.039770994
-1.4380412
-2.0806774
0.32428039
-2.0806774
1.497253
0.25914408
1.4972529
-5.1364871
-0.17714868
-5.1364871
-5.3560361
0.16263974
5.3560361
0.046707068
1.4450085
-1.4450085
-0.81582491
0.01714705
-0.81582489
-4.9101699
-0.22631726
4.91017
-0.18690356
-4.5953098
-0.1279566
-4.5953098
-1.3492746
-0.08876656
1.3492746
-0.07010005
1.279725
-0.032247407
-1.2797251
0.00055052492
-3.0495539
5.6119931
-3.3973971
7.041673
-6.1747235
-0.37716026
-6.1747235
6.8850876
-0.33320388
6.8850876
4.5249189
0.32738474
-4.524919
0.34802477
3.7769522
0.092591512
3.7769522
-7.4012082
-0.030042669
-7.4012082
7.4396629
-0.0084120558
7.4396629
3.6959908
0.080961462
-3.6959908
0.081260099
3.4610835
0.033965785
3.4610835
2.2718319
-0.20440789
2.2718319
-1.8806203
-0.18680368
-1.8806203
0.92347111
-0.92347111
0.85430264
0.069168476
-0.8543026
0.12476172
-11.148739
11.127288
-0.035756482
-11.112983
5.1643359
5.1643359
4.0116047
0.79150541
4.0116051
-5.0284634
0.19982455
-5.0284633
3.5040103
-6.9948374
3.8197106
-7.8495735
5.0466092
-17.567917
4.7114723
-9.2065026
7.2969937
-7.2969937
7.1857787
0.11121494
-7.1857787
0.12480224
-0.48728015
-0.083761732
-0.48728016
-3.5099914
-0.61724472
-3.5099914
4.7907533
-0.66351712
4.7907533
-1.2732073
1.2732073
-1.304674
0.031466658
1.304674
0.064819144
3.445246
0.015837493
-3.4452459
0.00010094723
0.53872938
0.11801677
-0.53872933
0.16781507
3.7944251
-0.45894968
3.7944251
-2.8599425
-0.4755329
-2.8599425
-0.34158556
-0.1456946
0.34158558
-0.17365213
-5.8173777
0.24743743
-5.8173777
-11.21344
0.10045757
-11.175809
-6.0921863
-6.0921863
2.3460768
11.146085
-1.7291767
-0.1514436
1.7291767
-0.14177294
1.2109041
0.062303203
-1.2109041
0.16526492
-0.96931343
0.045842311
0.96931342
0.076325798
-2.4996517
0.41897429
-2.4996517
-1.242601
1.242601
-1.3198803
0.077279283
1.3198804
0.17737244
1.7492342
-0.30422574
1.7492341
0.79073575
-0.05399013
-0.79073578
-0.025089114
-4.4085696
-0.18674018
-4.4085697
7.1410854
-0.2559978
7.1410854
-2.5460654
-0.31387717
2.5460654
-0.2742335
-0.035157048
11.162445
-5.1291788
0.035322118
5.1291788
-11.223223
11.258546
-3.0714986
0.57184692
3.0714985
0.94010655
5.2982953
0.27164497
-5.2982953
0.26983199
7.3793467
0.060316271
-7.3793466
0.082352964
-3.0054737
-0.50451773
-3.0054737
-5.5356693
-0.63905418
5.5356693
-0.74491606
-11.475093
-0.19740121
11.672494
-11.433202
6.0147789
0.13853769
-6.0147789
11.397083
-1.2749768
-0.17003165
1.2749769
-0.032375863
2.0921914
-0.34295723
2.0921914
4.1767875
-0.38236243
-4.1767875
-0.23178217
-7.2944988
-0.10670944
7.2944987
-0.15341328
-2.5265622
-0.47891142
2.5265622
-0.43437083
-5.3406511
5.282205
2.8550484
-3.3303562
-3.4938787
-7.6380097
2.5372306
3.0747625
4.8033104
-11.014892
-6.553025
-10.834688
7.264877
-6.995045
-9.4309737
9.3462105
10.742352
-10.870309
-7.2663875
7.3312067
8.7478213
-8.8179214
3.8012458
3.6705998
10.655457
-10.469928
-16.88198
16.504819
10.250231
-10.179829
17.07299
-17.103033
-19.292698
19.353014
-7.1782659
7.2263892
-9.5216721
9.3348684
-9.920578
9.6463445
-3.6569198
-4.1926537
14.217746
-14.053725
11.753474
-11.771199
-11.438695
11.779788
4.0493567
1.2328483
4.0171094
-3.6088478
7.4100937
-3.4363632
6.2914116
3.5864154
-7.2433353
3.408422
-6.9023007
6.0307057
5.7227685
-5.9596154
-1.6783943
-8.2458133
8.1362218
-7.3480427
7.4243685
12.213895
-12.268728
-3.6138137
7.2844136
-3.4278593
6.5026218
-3.6735669
-3.5928206
3.5418451
1.2614653
8.7698797
5.4478659
-8.94284
-1.8918476
-11.347097
10.964735
-11.899639
11.424106
-0.43859598
5.7862188
-5.3476228
4.4261601
-1.4874173
7.2736361
5.7774598
5.9772844
5.8659556
-5.5943106
1.1290894
-6.4767122
-6.3833443
-2.5562171
2.5733641
2.5108153
-2.4169289
8.1914502
2.5509018
8.0045467
-7.77384
-3.0964685
-7.9605801
4.3651266
2.9660801
4.3965932
5.2685486
3.4792727
5.1797821
5.8409057
-5.9731017
0.13219606
-5.4825784
11.323484
1.3113119
-9.075399
-7.8139337
6.8147954
3.8406617
6.9366164
-7.2974185
-3.172509
-6.9493938
-10.274225
-6.6077548
-10.913279
11.00575
5.4990698
10.672546
-12.937738
12.784325
6.6777281
3.5725024
6.7270084
-6.7679446
-3.4118848
-6.6866844
13.336735
-3.1480423
-10.188693
-11.164975
-8.1277229
11.173387
5.8996033
11.875343
7.4776715
11.957696
4.8667526
8.4699827
-10.766356
2.638633
-4.429758
-2.7485079
-4.3049963
4.3295244
2.8968649
4.3778133
-5.5729235
-3.9487486
-5.7243671
-5.6473184
-4.2732596
5.8517263
3.4831421
-5.9145164
-5.9851228
6.2283936
3.4179509
4.3808466
-10.933872
4.825656
-9.0183096
-9.9611748
-4.0925502
-9.8363726
4.5524355
3.1209733
-7.6734088
-2.6908998
11.271595
-5.5488264
9.5932005
-7.2406516
-4.530547
-7.2405506
-9.0125271
-2.4261682
-8.8498874
-9.5396282
9.0351105
-9.9395979
9.2760808
14.039862
-6.9612127
-7.0786496
-4.8873311
-3.9305903
4.8867805
-0.86967117
-7.1984387
7.3306348
0.21165501
6.5030666
7.735915
6.8662438
-4.4361941
-2.9118486
-4.2709292
4.4190907
3.0052778
4.464933
9.1031725
3.1107223
9.0688979
-8.7145332
-3.5541946
-8.8916819
9.4637671
-9.1394868
2.6881179
-2.8338125
7.520197
3.9039094
-7.0612474
-4.2858496
9.4912294
-4.466374
-5.0248554
-12.072122
10.581401
1.4907213
-4.7984858
-0.37232571
-0.41174715
-5.5521659
-3.8788077
5.4418748
0.53540964
11.11681
7.2380027
-5.5153696
5.7628071
6.1571247
6.2148478
-0.16849645
6.0154061
-5.4435592
6.9799711
-3.6100986
-3.3698725
7.1622936
-7.3886109
-1.7293883
-7.8984919
6.1691036
0.61593578
1.8958582
-1.4855225
-1.8046513
-0.75156576
-1.8297404
1.4847447
1.0260707
1.6027615
0.92885859
1.6445056
-3.5009859
0.72437805
2.7766078
-2.5721273
-1.6925509
-5.2037467
-2.0127946
7.2165413
7.9337843
3.0309502
-7.7020021
-0.25857799
2.4991247
-2.6013104
-0.74408607
-4.4596607
2.9923512
-3.7364373
-5.9733387
-2.5094322
8.4827708
-3.6670448
-0.60388446
3.6047416
0.79185168
-4.8237157
-3.4220976
4.8634867
0.3162954
-5.4443476
11.059666
-5.6153186
-8.3561962
4.4703916
6.8530925
7.4364717
-9.1688162
4.8156953
4.3531209
-2.3157237
5.8514264
1.08519
5.944018
-9.2722935
6.0997845
7.7200385
4.0597495
-8.0474232
1.0980294
-8.1742641
10.871089
-9.5040685
-1.3670204
5.4098198
5.4612691
7.6415975
6.3982649
-6.0276951
13.669293
-1.482791
-8.0212774
9.6570552
-5.5973057
6.4646803
-12.061986
-12.862945
4.8416678
-9.9676456
12.028465
-2.0608193
-3.8689304
-9.0688081
13.836576
-1.3477402
-12.488836
9.3248059
-5.6013521
-5.5915818
11.192934
-8.7493945
9.0034666
-2.639793
-6.3636737
-10.90507
-6.1979629
11.01178
1.7725455
-11.836669
14.475302
-3.3666868
5.7836272
0.94338124
5.817593
4.2467976
-6.832443
2.5856453
4.5025968
-7.1423897
2.7163588
-9.5488018
-7.203296
13.27519
-6.0718938
-11.295846
-10.243859
-1.0519874
2.7775537
11.697749
-10.255225
8.0113209
2.2439042
3.6360688
0.82886427
-3.7052372
-0.59975907
0.47697413
6.8273111
-7.3042853
4.8547875
4.8972967
5.0390594
1.7882517
5.1723542
2.9638676
-5.0305813
-0.69378584
-6.6327934
2.3595338
-3.1496512
-6.6102374
8.9697711
-7.2447925
0.6345551
-4.4561714
-6.162035
10.618206
-7.2046793
5.2146094
5.8450568
8.2198872
-8.8141759
2.6521409
-4.3733435
-4.4408324
4.5926516
-7.7423028
3.4629039
5.5068672
6.8808549
0.89573204
6.5316368
6.743553
-9.65261
0.63430041
12.191419
-10.299571
2.6657581
9.2919375
-10.677079
0.43322018
-9.4031524
1.2538732
-6.8026996
-6.4195356
7.0244365
-9.4506047
-5.0375494
8.2069001
0.86199783
-8.2536072
-0.5962802
-6.5138558
-3.0257723
-6.9927672
-3.3030285
-6.6365694
-9.3307235
-1.7812964
-7.5494271
7.2538141
-7.2405038
-3.6727755
7.9854198
1.290661
-7.9697001
7.7996684
-8.0335057
7.6905485
0.292267
7.0383678
7.1585108
3.2279206
-4.7226441
7.9505647
-7.0977679
10.20849
-12.238696
5.140928
6.0663219
-9.6205166
-6.1723739
5.4271195
4.0366477
5.6862637
9.2947506
-10.646012
1.3512618
-10.898457
12.526994
-1.6285365
-16.914925
6.016468
-7.6201745
2.5120246
0.17609338
2.4282628
0.78786626
2.8852034
-3.6730696
-2.0459463
-2.2195985
-3.7829501
-5.6925399
9.47549
1.8339984
-5.3251902
3.4911918
-4.7437905
6.5777889
0.055285876
-5.3804761
7.149863
-4.2646597
7.3259564
-4.6885046
2.6374518
5.2265697
9.1634262
-3.9368565
6.9075648
-3.0036554
3.0708247
-7.0076812
-2.6217152
-4.9015398
7.7984047
-5.7166666
6.3512217
-0.49411942
6.8453411
-5.8471326
1.3807586
-0.80807322
4.0892235
4.1243525
7.0569223
-5.2686706
4.9756143
-7.9792698
-2.0320669
-7.0835377
-1.5766705
-0.38621266
-5.1103325
5.4965452
6.6466204
-7.0328329
-5.2897079
9.6440794
-4.3543714
7.9948145
-5.4868358
-2.5079787
-4.5078264
-4.6316604
4.0888523
1.9265538
9.9213683
0.27084367
-5.7576795
-5.1727156
-4.2326091
4.2188662
2.7611048
-2.0883076
3.579029
2.5000547
-0.60419653
0.57125125
1.0315102
2.1339714
-1.5627202
0.28619725
1.8477742
-1.1993253
1.8301973
0.6689274
-1.7762072
-0.053533187
-1.4677226
4.4600739
1.3088852
-2.3349559
0.77223569
1.4048993
-5.0149979
7.3776518
-3.9724149
-3.4052369
8.782551
1.5460778
-5.5184926
6.3524142
-5.7364784
3.3664176
-5.3792122
-2.152075
-7.8885534
-5.3376516
-4.2419391
7.7331309
-5.2335509
8.2645011
1.7597922
-8.0059231
9.7657154
-4.8486593
2.3392271
-4.1300158
4.7989432
-1.7291296
-2.4008862
4.3268574
4.1559134
-4.3513642
-0.10829646
-0.02450683
3.1270994
-3.1516062
-0.60933792
-3.1814652
-7.6456202
7.9619156
-3.7842173
8.5999126
4.1663475
-3.6213637
12.221276
3.1678869
-6.7892506
-5.1883092
-5.7921937
-2.4361297
5.000342
-0.85188701
-5.8347974
-7.2155606
5.7538359
0.19018206
-9.2026431
10.366219
-1.1635761
-5.3619813
-0.73780314
6.147623
-7.8387401
0.69635039
-5.1223812
5.2438381
6.3290281
6.5192102
-12.283452
-0.20538331
-6.7843827
1.3696882
-8.154071
6.8309574
-3.8102884
8.6519563
-11.149665
7.4768898
-9.8590042
7.2849359
-0.86913506
7.1934335
-4.6077882
2.9952594
-9.1932223
-7.4206768
7.227827
-3.6553246
8.1712082
-4.1709226
12.342131
-7.5376094
7.0439298
5.2982011
-1.380918
-5.8596326
-7.0177277
5.6368096
0.026202123
5.8437951
8.0115396
-5.047672
7.3177537
4.3732977
-8.7466412
-3.3690052
-11.943161
3.1965194
-6.0981037
-3.2474037
6.4439231
4.9724835
5.8013477
2.0030907
-5.2015886
8.3974682
-9.4494556
-2.3255744
-4.0939613
6.9593531
-1.3225434
4.3738936
-8.4678549
-2.428806
5.8080507
-0.61496033
-5.1930904
1.1531619
-6.1907112
2.3892765
-8.5799877
7.0613282
-7.6576084
2.3406589
-9.9608334
-5.6290412
-5.6614171
-2.417763
-5.6157427
-7.896168
5.478405
-1.8797
5.9199684
-8.8166959
8.2017356
-3.7102977
9.1887027
-5.8569862
-1.135781
6.291357
1.3991915
10.587894
0.53452549
-6.7068994
-2.8431047
5.3618023
-2.5186976
1.3757614
-4.575807
0.78599533
3.5458727
5.2366783
-9.7149764
0.094459782
-6.6124396
-4.1370641
8.1737117
5.5070152
12.153636
1.5076232
9.3023149
-1.1286031
10.809938
4.5576606
4.7350331
-4.1604851
5.5117469
1.3360602
6.4769882
-0.83726802
3.4747199
1.5909948
1.5274767
1.0738337
2.6050826
1.5192699
3.9858412
0.31277158
-1.9068269
4.6624186
-8.8950277
-1.0952608
-8.1035223
1.2426881
5.8270697
-4.5843815
3.9741944
-1.2130896
1.4554968
-0.21184329
-1.690478
1.9023214
-3.5817155
-2.2946746
-0.44690049
-2.0646584
2.8368941
2.3954154
-2.3899936
-1.1917219
0.69346341
-6.0311151
4.6857487
-4.7940452
-0.63813177
9.1275836
-3.6462398
0.49463363
-1.3070127
-2.6868316
-3.4383973
3.4919305
11.580224
0.64105265
5.9649051
8.6029683
5.1808706
0.13319866
4.9616791
-7.0224984
-4.5871226
-7.2278817
-0.3969243
5.7506987
2.2376424
9.4601063
7.5358434
6.2133
-2.2545549
-11.70401
8.435104
-2.9233571
6.8065675
-1.613477
-6.9665107
6.8491608
3.3593294
-7.7111586
0.053550186
-6.9129605
-9.8363176
-0.46507886
8.6668145
-10.122815
8.9870345
5.9612623
1.5881648
-4.7886517
-0.87276539
4.7113723
0.023660825
10.833599
-1.2006099
-6.9218819
8.122492
-4.6264598
3.5311991
0.91115779
2.6678712
2.813479
1.6003894
-5.3214927
-9.9058741
-3.0572072
-1.9577907
-6.4624441
0.75409714
-3.1495126
6.2130221
-2.681823
3.7050433
5.440669
6.8961657
-1.983923
-5.0489099
6.3382945
-2.6332512
4.2629145
)
;

boundaryField
{
    wall-4
    {
        type            calculated;
        value           uniform 0;
    }
    velocity-inlet-5
    {
        type            calculated;
        value           nonuniform List<scalar> 8(-1.7582594 -1.7582594 -7.3846893 -4.5714743 -7.3846893 -6.446951 -4.5714743 -6.446951);
    }
    velocity-inlet-6
    {
        type            calculated;
        value           uniform -5.6264299;
    }
    pressure-outlet-7
    {
        type            calculated;
        value           nonuniform List<scalar> 8(5.0430026 8.5226512 6.1779625 10.542448 8.5248931 6.93571 7.3237208 9.7580815);
    }
    wall-8
    {
        type            calculated;
        value           uniform 0;
    }
    frontAndBackPlanes
    {
        type            empty;
        value           nonuniform List<scalar> 0();
    }
}


// ************************************************************************* //
