/*--------------------------------*- C++ -*----------------------------------*\
  =========                 |
  \\      /  F ield         | OpenFOAM: The Open Source CFD Toolbox
   \\    /   O peration     | Website:  https://openfoam.org
    \\  /    A nd           | Version:  9
     \\/     M anipulation  |
\*---------------------------------------------------------------------------*/
FoamFile
{
    format      ascii;
    class       volVectorField;
    location    "42";
    object      U;
}
// * * * * * * * * * * * * * * * * * * * * * * * * * * * * * * * * * * * * * //

dimensions      [0 1 -1 0 0 0 0];

internalField   nonuniform List<vector> 
918
(
(0.40873982 -0.00021427065 0)
(0.0090456995 2.9576278 0)
(-0.0054466048 1.3341974 0)
(0.29037696 -0.0084113937 0)
(-0.01168379 2.2659254 4.0021587e-20)
(-0.011743954 2.9485787 -3.3499561e-18)
(0.91394447 1.4289694 7.858721e-19)
(0.21852551 0.13394241 -2.6878984e-20)
(1.9883279 0.0040432619 0)
(0.013937061 1.1211689 0)
(0.0056482931 0.96509059 0)
(0.12458708 -0.0015378854 0)
(0.012835506 2.9163572 0)
(0.013665125 2.7912391 0)
(0.097715302 3.1603058 3.2207035e-19)
(-0.0088104792 2.1220968 1.4701191e-20)
(0.12228076 0.023574271 1.6666e-18)
(0.1912982 1.5090877 5.924533e-19)
(0.37522775 0.0067455063 0)
(-0.0091217246 0.92506819 0)
(-0.048067531 0.12241483 -1.307416e-18)
(1.0479407 -0.021612106 0)
(0.54413521 -0.02753082 0)
(0.24767675 -0.0064909832 0)
(0.14974991 0.018070406 0)
(0.02111386 2.62343 0)
(-0.0099883517 2.9058074 1.2314339e-18)
(-0.018798491 1.391899 0)
(-0.033590124 1.6490028 0)
(-0.014499531 1.3654412 0)
(-0.007090452 2.8135318 0)
(-0.0028708849 2.320488 -3.1463633e-20)
(-0.0051899321 2.1046557 0)
(-0.018162207 2.9813192 -1.2466367e-22)
(-0.018376463 3.0070218 2.6008661e-18)
(0.00085856904 3.0015931 0)
(0.29512772 -0.0029767387 0)
(0.42972761 0.90177385 3.4635855e-19)
(1.032056 1.4643881 -9.7255178e-19)
(1.0552126 1.2900996 9.8935561e-19)
(0.86629961 1.5962339 -1.8057617e-19)
(0.74608731 1.5372946 1.0278561e-18)
(0.30352934 0.16890027 2.6203061e-20)
(0.22317723 0.10233812 0)
(1.2776874 0.74262153 0)
(0.27078902 0.1755295 1.20194e-19)
(0.20327786 0.13939634 -1.2493393e-19)
(0.25208527 -0.013535477 0)
(1.9896493 0.0010972802 0)
(1.9887356 -0.0017552891 0)
(1.354867 0.0022408254 0)
(1.8676191 0.0059880874 0)
(1.7381122 0.0034393057 0)
(0.025637045 2.0242762 -8.3908139e-19)
(0.029431941 1.352631 0)
(0.034639693 1.1906005 0)
(0.014636263 1.3275779 0)
(0.010338653 1.0674348 0)
(-0.0019334992 2.2196277 0)
(0.015227887 1.2199351 0)
(0.013466729 0.99326091 0)
(0.0061202663 1.2187206 0)
(0.0026311743 0.93586477 0)
(0.48566677 0.023389944 0)
(0.30041823 0.005948764 0)
(0.13752342 0.018737239 0)
(0.28710142 0.0022399612 0)
(0.1166713 0.005135304 0)
(0.016738531 3.0145162 1.2821101e-18)
(0.012390072 3.0113863 0)
(0.0077271241 3.0035747 0)
(0.013324014 3.0004915 1.3655892e-23)
(0.01055615 2.9476305 -1.831082e-18)
(0.016838232 2.9848959 0)
(0.013432124 2.8938531 0)
(0.017548402 2.9241556 2.9375193e-24)
(0.013824673 2.8183072 0)
(0.017310527 2.9108881 0)
(0.010910804 2.7550467 0)
(0.24562954 3.6104539 0)
(0.1748553 3.545761 0)
(0.13011253 3.2940105 -3.0109931e-19)
(0.047324741 2.9899644 0)
(-0.017126031 2.2739587 0)
(-0.013527543 2.3418598 -1.4489874e-20)
(-0.0088345322 2.1427853 -3.5108164e-21)
(0.28139692 0.058313496 -5.7126185e-19)
(0.10281575 0.0071391512 -5.4166212e-19)
(0.31332576 0.061577203 -1.7496547e-18)
(0.16000401 0.034130084 -1.1707123e-18)
(0.17872432 1.1560966 0)
(0.30042486 1.6586921 -6.4278227e-19)
(0.37574043 1.5983956 1.069059e-18)
(0.53989628 0.040374202 0)
(0.32515937 0.030029049 0)
(1.2189835 -0.0013229944 0)
(0.73690316 -0.035183997 0)
(0.64622571 0.017260258 -3.0423266e-18)
(0.6493477 -0.025793869 2.3832082e-18)
(-0.0035840019 1.190448 0)
(0.0021993621 0.93336836 0)
(-0.041971845 1.4232011 0)
(-0.020561926 1.231231 0)
(-0.014491984 0.92576045 0)
(-0.037011838 0.20860372 3.997093e-19)
(0.12369249 0.11181838 0)
(0.50711436 0.02061403 0)
(0.2464793 0.014333151 0)
(0.25671057 0.0032928923 0)
(0.21644451 -0.011268004 0)
(0.12868112 0.013278618 0)
(0.91006934 0.053810386 0)
(0.14991756 0.034436616 0)
(-0.018257668 -0.025778284 2.1274152e-18)
(0.0012331422 2.8583112 1.0779018e-18)
(0.020490748 2.9007981 0)
(0.033316988 2.8783094 0)
(0.015034306 2.7058756 0)
(-0.010512703 2.9856791 1.189491e-18)
(-0.0091631281 2.8905332 0)
(-0.011792607 2.9907333 -3.6544089e-18)
(-0.0096023399 2.9158276 1.2503501e-18)
(-0.01819156 1.8405119 0)
(-0.0049568027 1.8504343 0)
(-0.0066670995 2.3291087 1.4278567e-22)
(-0.0062756275 2.2990157 0)
(-0.0078085839 2.1031206 0)
(0.63342814 0.019782227 0)
(0.3186424 0.012218469 0)
(0.22964947 0.029307831 0)
(0.60556592 0.0025835126 0)
(0.29004009 0.015339373 0)
(0.51508011 1.0801302 -4.2474401e-19)
(0.54702239 1.1152724 0)
(0.41199118 0.89266449 5.5203303e-20)
(0.3174282 0.67407436 0)
(1.1581194 1.3071422 -2.8409119e-19)
(1.1419041 1.1057492 5.5608771e-19)
(0.49271292 1.7070178 0)
(0.68685909 1.6840393 0)
(0.56672501 1.598678 0)
(0.15536999 0.27046807 -4.4515722e-19)
(0.32127464 0.13851867 0)
(0.20873845 0.089658202 3.3730163e-19)
(1.2587293 1.1255852 0)
(1.33797 0.93169084 0)
(1.2145054 0.92185592 -4.5838845e-19)
(1.4009571 0.73738782 0)
(1.3231196 0.57133087 6.1058379e-20)
(0.5819672 0.022649705 0)
(0.54550828 0.012993943 0)
(0.26553795 0.010459906 0)
(0.52676376 0.0085606441 0)
(0.53612018 -0.013330028 0)
(0.25725853 0.007637759 0)
(1.4984683 -0.0013964384 0)
(1.8698387 -0.0012861649 0)
(1.7318214 0.00071255636 0)
(0.040070336 2.2515399 4.5585123e-19)
(0.050003306 1.9493867 0)
(0.031912 2.3401373 7.3146963e-19)
(0.019300173 2.0844765 -6.089614e-19)
(0.1351319 1.5299035 -4.8827317e-19)
(0.05694867 1.4122735 0)
(0.077157586 1.3355732 0)
(0.013291462 1.3009532 0)
(0.0099567432 1.0371309 0)
(-0.004649991 2.4081736 -9.0138024e-22)
(0.0017661212 2.2171848 0)
(0.0017840765 2.4103324 -4.6404746e-20)
(-0.0010691965 2.219691 7.6836421e-20)
(0.014157456 1.276291 0)
(0.016584785 1.247483 0)
(0.012285497 1.0129904 0)
(0.0038012304 1.210213 0)
(0.0014496609 0.92594842 0)
(0.82017928 0.04492016 0)
(0.54654955 0.024726581 0)
(0.75964927 0.038037445 0)
(0.4183007 0.011959633 0)
(0.18470256 -0.0019670916 0)
(0.37019319 0.014864651 0)
(0.33495278 0.037068645 0)
(0.17160259 0.0043151577 0)
(0.0036740665 3.0720235 -1.0981109e-20)
(0.010775244 3.0616184 0)
(0.016161071 2.9688198 0)
(0.013248103 2.8677466 0)
(0.7218598 4.1871179 0)
(1.2161868 3.2572234 8.5719182e-19)
(0.068833021 3.1234343 0)
(0.028303268 2.8986906 0)
(-0.011197335 1.8489171 0)
(-0.016657746 2.0831215 0)
(-0.014618827 1.9481849 0)
(-0.019388047 2.7543481 -1.0553673e-20)
(-0.013134279 2.4585044 0)
(-0.016494187 2.6047088 0)
(-0.0026184352 2.1643304 2.9655025e-21)
(-0.0065585958 2.3896792 1.1945329e-20)
(-0.0078788395 2.3684582 3.5525969e-21)
(-0.0058871849 2.1485787 0)
(0.27413571 0.024343319 8.2381635e-19)
(0.069301743 -0.0086711345 -8.1752592e-19)
(0.30462154 1.7027122 0)
(0.20616291 0.93620117 -3.7785601e-19)
(0.22551359 1.8437563 -1.1739044e-18)
(0.13739768 1.3970946 1.1778432e-18)
(0.2933093 -0.00060999618 0)
(0.49817662 0.0019817232 0)
(0.50346268 0.01970516 0)
(0.30265614 0.007628785 0)
(0.0019701126 1.2008851 0)
(0.0013105072 1.1908387 0)
(0.0023711729 0.9258484 0)
(0.23313195 0.17838362 1.1147692e-18)
(0.16987164 0.1752723 -1.31955e-18)
(0.17111133 0.14184752 0)
(1.227131 0.14015477 2.6378497e-20)
(1.1158205 0.11635264 0)
(1.0785298 0.094907344 0)
(0.74138231 0.035438306 0)
(0.25034425 -0.013440192 0)
(0.19846938 -0.039561829 -3.442084e-18)
(0.011525592 -0.01359795 1.3266548e-18)
(0.0021882875 2.9839581 1.0768767e-18)
(-0.0037690129 2.8639548 4.5075031e-20)
(0.0038325542 3.0539753 -2.298276e-20)
(0.01274936 3.0472321 8.2745766e-19)
(-0.0094019824 2.9952532 4.063103e-20)
(-0.0083921877 2.936163 -1.6310939e-22)
(-0.013162103 3.0201638 -7.6565543e-19)
(0.001212547 3.023135 5.5186342e-19)
(0.0066725319 3.0398408 -8.28053e-19)
(0.72358618 0.029865188 0)
(0.68388868 0.031764485 0)
(0.3593376 0.016624935 0)
(0.47777416 0.014664309 0)
(0.44188415 0.045567704 0)
(0.28386155 0.0071953819 0)
(0.39187583 0.0014728106 0)
(0.39910862 0.017706949 0)
(0.20071664 0.0046882522 0)
(0.69808905 1.3609865 -1.5556099e-19)
(0.76454114 1.4410819 0)
(0.16649848 0.35319391 1.0836326e-19)
(0.34226957 0.77495305 8.251262e-19)
(0.36055311 0.8007086 -4.8331959e-19)
(0.22736255 0.4784272 9.4238913e-19)
(0.4222055 0.97742135 2.2636911e-18)
(0.17084548 0.35331111 4.9816637e-19)
(0.32629372 0.094292543 1.2377932e-18)
(0.32839861 0.12543022 3.2971988e-19)
(0.18949226 0.058056944 6.2589546e-19)
(1.4335587 0.55620375 2.1338236e-19)
(1.3110231 0.39671136 1.7935937e-19)
(0.022081254 2.3947875 2.7327544e-19)
(0.009966968 2.1551029 0)
(0.97241557 0.065367682 0)
(0.88772844 0.054570195 0)
(0.64113117 0.031173999 0)
(0.0099862109 3.0770214 0)
(0.016939365 2.9388099 1.6137437e-18)
(0.016526805 2.9537372 0)
(0.013493135 2.8434208 -1.6108843e-18)
(0.0094123934 3.0917968 3.6942938e-19)
(0.003659899 3.0887977 0)
(0.85358912 1.7267677 -8.3021824e-20)
(1.1155173 2.331392 1.900463e-20)
(0.83257205 1.8421569 -7.6457865e-19)
(0.013517385 2.9956223 -9.8858341e-19)
(0.033960442 3.0328692 0)
(0.011635325 2.8695715 0)
(-0.0090567486 2.3927184 -2.3255075e-20)
(-0.0037843151 2.3989059 -2.1712502e-20)
(-0.001303878 2.2008061 -5.5951068e-22)
(0.34333633 1.5405897 1.1949029e-18)
(0.21144325 0.7560534 -8.2023986e-19)
(0.087994716 2.162782 8.1980533e-19)
(0.16664241 2.0238332 -1.008156e-18)
(0.082549053 1.6852608 1.2439309e-19)
(0.013519695 3.1145416 -2.4442563e-18)
(0.016323423 3.1195869 2.7669979e-18)
(-0.0088171526 2.9800917 1.1373393e-18)
(-0.0056812187 2.9768523 -1.1171746e-18)
(-0.0077354433 2.8756462 -1.1586242e-18)
(0.0044105044 3.1055084 -2.8731757e-18)
(0.0092766083 3.1049719 2.8529313e-18)
(0.38377759 0.84817748 0)
(0.34139509 0.78708265 -1.8425854e-18)
(0.13964678 0.29049903 8.182732e-19)
(0.41504263 1.0961309 1.4261084e-18)
(0.19364523 0.44374765 -2.216443e-18)
(1.3638247 0.22663299 4.3480504e-20)
(1.4261658 0.38204691 0)
(1.2619799 0.23807094 3.3661221e-20)
(0.0067834891 2.4176014 -1.8305152e-21)
(0.0069239945 2.4063565 0)
(0.0039510832 2.1913339 0)
(0.39207652 1.4062851 -4.3130635e-19)
(0.42263735 1.2636679 -9.6901285e-19)
(0.20158595 0.57969318 1.7494773e-18)
(1.1920394 0.0074764764 0)
(1.3373081 0.0032324453 4.8285513e-19)
(-0.024109 1.8085313 0)
(-0.038640114 1.8344573 0)
(1.5124257 0.00045285935 4.6841625e-21)
(1.0987879 0.01561908 1.0878412e-18)
(-0.016537793 2.7591511 1.3686144e-20)
(-0.015930663 2.8008371 0)
(0.058505995 3.174841 7.9636921e-19)
(0.52333909 3.5323458 0)
(1.5810757 0.90651525 -4.2620425e-20)
(1.269828 0.014038316 2.3149741e-20)
(1.374682 0.027326063 0)
(1.9988543 0.010445736 1.0043183e-20)
(0.079696729 1.8390954 0)
(0.1208322 2.7674152 0)
(0.021599075 1.7875586 0)
(0.00056965363 2.8319745 4.1507964e-20)
(-0.020842544 2.7761933 2.1721634e-20)
(1.2511781 0.028419052 2.193112e-20)
(1.4719935 0.066513323 0)
(1.5343943 0.10264002 0)
(-0.017776238 2.1026527 0)
(-0.011478271 2.7928486 0)
(-0.0079141368 1.7963878 0)
(0.3355001 1.9654148 -3.1319604e-19)
(1.299648 0.011714545 0)
(1.0942832 0.010189184 0)
(1.971376 0.013536924 6.3274456e-19)
(1.6586329 0.017601872 -7.2227095e-19)
(1.9059152 0.011893599 0)
(-0.013539919 1.9238483 0)
(-0.01699248 1.8242281 0)
(-0.013336348 1.87393 0)
(-0.011275657 1.7891599 0)
(-0.013383287 1.7718584 0)
(-0.018141748 1.7797968 0)
(1.4212367 0.044448335 0)
(1.2808703 0.026932149 2.095242e-20)
(1.0599754 1.7134794 4.738581e-19)
(1.9565112 0.0040049544 -6.4601893e-19)
(1.7064808 -0.0027940746 7.7647568e-19)
(1.8969645 -0.004514287 0)
(1.3021338 0.0061066636 6.493921e-19)
(1.177605 0.0029246693 -8.1052294e-19)
(0.9222002 0.020861234 0)
(-0.015816416 2.8305776 0)
(-0.018351351 2.8051962 -8.217334e-21)
(-0.015407852 2.8237193 4.1427814e-21)
(1.7100825 0.38511556 6.0047468e-19)
(1.6469432 0.18070119 0)
(0.071275833 3.0559273 -1.4625186e-18)
(0.04169133 2.8533206 -1.0186652e-19)
(0.17440216 3.178465 2.2373118e-18)
(0.16106305 3.2408849 -3.5635163e-19)
(0.15814952 3.2817133 0)
(0.030030594 3.1339295 4.1732307e-19)
(0.080798231 3.1731689 1.4374169e-18)
(0.077194546 3.1976341 -7.7688811e-19)
(0.046951932 3.1098397 0)
(0.64429794 0.28038691 0)
(0.58706735 0.35090139 0)
(1.5526964 0.9837216 6.2345044e-20)
(1.4878784 1.118405 -8.053072e-22)
(1.6535745 0.79911729 0)
(1.6457125 0.72463684 0)
(1.2702827 0.021972529 -1.2993982e-18)
(1.078543 0.017319825 1.6665993e-18)
(1.3987826 0.024552186 0)
(1.2350017 0.02311868 0)
(2.0039234 0.018807748 0)
(1.8763471 0.009759798 0)
(1.9363449 0.012659411 0)
(1.7255629 -0.00022457634 0)
(1.6647654 0.0023575385 0)
(1.7970523 0.0019651519 0)
(0.068100186 1.82835 0)
(0.048257829 1.8130781 0)
(0.11067449 1.8687529 0)
(0.12055412 1.8771955 0)
(0.14233975 2.7944239 0)
(0.18172371 2.8708362 -4.9774525e-19)
(0.097582608 2.8663157 0)
(0.079118725 2.8792974 2.1793203e-19)
(0.025831342 2.8948022 -1.8652238e-19)
(0.019569167 1.7952209 0)
(0.018950391 1.7615287 0)
(0.021593278 1.7972451 0)
(0.025491288 1.7695132 0)
(-0.0020711981 2.2771083 -3.8401793e-21)
(-0.020464029 2.824589 -2.7334964e-20)
(-0.0052812289 2.876487 3.7018702e-20)
(-0.0090534653 2.9065025 0)
(-0.019134438 2.8285713 -5.5246367e-20)
(-0.017350405 2.8243914 -6.0022684e-21)
(0.00024391884 2.2719094 7.6864555e-21)
(-0.017194037 2.5937885 3.6094685e-20)
(-0.023290559 2.6320074 -4.703526e-20)
(1.2954441 0.026616819 1.3731871e-18)
(1.0435075 0.02448872 -1.720879e-18)
(1.2364283 0.032430411 -1.4672026e-18)
(1.1060414 0.027694889 1.9327679e-18)
(1.5046019 0.061158856 0)
(1.3572907 0.053219813 0)
(1.5561353 0.094585074 0)
(1.5159811 0.071265627 0)
(1.3627371 0.065106436 0)
(1.6505028 0.16614088 0)
(1.576976 0.11450103 0)
(1.4503294 0.10251418 0)
(-0.015510796 2.6275166 4.6981889e-22)
(-0.015012458 2.2866744 0)
(-0.014373569 2.4551528 0)
(-0.011280596 2.819965 -1.8388539e-22)
(-0.011488482 2.8311127 -7.0874761e-23)
(-0.006214204 2.0054719 -1.9348848e-20)
(-0.013744485 1.9480503 1.9505194e-20)
(-0.017596887 1.8470807 0)
(-0.019895602 1.8539245 0)
(-0.019520611 1.8520052 0)
(-0.0058350873 1.7966717 0)
(-0.001669907 1.75962 0)
(0.48325263 1.9858733 5.3274122e-19)
(0.50638272 1.9809683 2.6681902e-19)
(0.59143912 2.6417716 -2.7493306e-19)
(0.38196283 2.7752623 7.1710516e-19)
(0.42331497 2.2683693 9.7575987e-20)
(1.4097061 0.026209883 0)
(1.3361072 0.025369488 0)
(1.1463115 0.016532741 0)
(1.9819916 0.021865546 0)
(1.9616074 0.015932391 0)
(1.725791 0.02133016 0)
(1.6345231 0.020008068 0)
(1.6490138 0.024871597 0)
(1.3273103 0.022731894 1.254245e-18)
(1.0171917 0.035111374 -1.5940323e-18)
(1.2843356 0.033536684 -1.3232191e-18)
(1.1009704 0.026055619 1.7086056e-18)
(1.0183318 1.7543143 0)
(0.8926358 1.8491812 4.7869493e-19)
(1.1776673 1.6322353 2.2821689e-19)
(1.2144783 1.5803271 -3.040493e-19)
(1.2682371 2.6870528 8.9679687e-19)
(0.77257941 0.06662631 8.7813036e-19)
(1.6625292 0.2042275 0)
(1.7157609 0.30124354 -4.6373986e-19)
(1.6251434 0.2461412 -1.8450935e-20)
(1.5468232 0.17984546 0)
(0.20576856 2.9263967 1.0049068e-18)
(0.093439834 2.8157921 -2.1211932e-18)
(0.020742744 2.3921082 1.3170936e-18)
(0.081122865 -0.19494747 -6.1554964e-19)
(0.3584459 3.4515619 1.3934994e-20)
(0.23008916 3.3628774 0)
(0.24355869 3.419437 -1.9619255e-20)
(0.25404179 3.0818384 -2.4652427e-18)
(0.38568795 3.170199 0)
(0.013159404 3.1197224 7.5273003e-20)
(0.016237004 3.1323732 -8.0205541e-19)
(0.030351744 3.1184389 1.2466439e-18)
(0.036436171 3.148393 0)
(0.03388557 3.1555781 0)
(1.3427372 2.7771999 0)
(0.77500204 1.0067669 -9.0248716e-19)
(1.3779992 1.3365134 -7.1536194e-20)
(1.3104153 1.443257 0)
(1.2229999 1.3829786 -1.6479638e-19)
(1.447801 1.216293 3.847198e-20)
(0.32835829 0.41415786 -1.5054184e-18)
(0.72443376 0.29259275 -2.1873748e-20)
(0.58500384 0.19334116 7.1536753e-19)
(0.61187404 0.39690592 5.2137584e-20)
(0.49082454 0.34019553 -2.1308815e-18)
(0.68620201 0.31956588 0)
(0.86795233 0.47028164 1.1946291e-18)
(0.86676069 0.43698086 0)
(0.66286762 0.36232613 0)
(0.54954249 0.26534674 0)
(1.2384193 0.85942411 7.0741536e-19)
(1.7204437 0.42189804 -5.4650575e-19)
(1.7071243 0.59844047 0)
(1.6889873 0.52516405 0)
(0.71018548 0.15738644 1.0274609e-18)
(1.2410044 0.72546254 -6.6868222e-19)
(1.0130586 0.63252707 1.2093369e-18)
(1.4650878 0.56476844 -1.197162e-18)
(1.2460535 0.017574384 8.5857056e-19)
(1.2277892 0.018864374 -8.9150383e-19)
(0.98397426 0.01655321 0)
(1.4510796 0.04375762 0)
(1.3912737 0.033186744 -7.533947e-19)
(1.2028257 0.023085843 7.4426107e-19)
(1.8305243 0.032718281 0)
(1.7016441 0.019960444 0)
(1.9099676 0.010022665 0)
(1.6722597 0.016312029 0)
(1.9573287 0.025205766 0)
(1.9414895 0.02163478 0)
(0.04130459 1.8113474 0)
(0.034263996 1.7878877 0)
(0.15137293 1.8485418 3.2130488e-20)
(0.31282339 1.9516268 1.6555791e-19)
(0.17669459 1.9236871 3.6966839e-19)
(0.207634 1.9369945 -5.9472736e-19)
(0.19480206 1.8817794 0)
(0.1784678 2.0310446 -6.4935396e-20)
(0.15376803 2.0151019 0)
(0.39090191 2.2295574 -1.3516816e-19)
(0.36521827 2.5152875 6.7708617e-19)
(0.24013067 1.9719484 5.8208366e-20)
(0.30898704 1.9053044 6.4051324e-20)
(0.24707979 1.8899577 -5.2181077e-20)
(0.36432649 1.8817904 -9.9069176e-20)
(0.28945493 2.0198137 0)
(0.34410983 2.0303597 1.1022825e-19)
(0.035303993 2.5012113 -3.6364248e-20)
(0.031803772 2.887597 0)
(0.063862875 2.6048009 1.5679273e-19)
(0.05376456 2.6106992 0)
(0.057140893 2.9003576 -2.4243432e-19)
(0.043139436 2.938613 0)
(0.016632428 1.8632776 2.074692e-20)
(0.018479178 1.9143584 0)
(0.023949297 1.8351316 0)
(0.019213989 1.826205 -2.3536597e-20)
(0.0030096669 2.8642774 -2.3235925e-21)
(0.012955861 2.8991296 2.1494548e-19)
(0.0063803287 2.9333711 1.5084155e-21)
(2.4947955e-05 2.1674914 4.8974173e-21)
(-0.003902828 2.073798 -1.3181197e-21)
(0.01702225 1.7862097 0)
(0.013776619 1.7509532 0)
(0.03650824 2.0036903 1.3330677e-20)
(0.023694638 1.8774713 -2.0965244e-20)
(0.027112003 1.9464942 1.6062511e-20)
(0.043544119 2.0224214 0)
(-0.031414942 2.4850518 2.79238e-20)
(-0.027373161 2.7279151 3.9934055e-21)
(-0.027482633 2.6479807 -3.4295363e-21)
(-0.0019206252 2.1696916 -5.7949735e-21)
(-0.024701202 2.6773844 -5.0640444e-21)
(-0.02553948 2.6495764 4.3682532e-20)
(1.2347525 0.0262021 -9.1778413e-19)
(1.2429372 0.018989687 9.1813264e-19)
(1.0022846 0.020011173 0)
(1.5168926 0.085408415 1.4566939e-18)
(1.1793348 0.031451761 -1.6052206e-18)
(1.1141942 0.024888244 1.8163603e-18)
(1.5413881 0.11758003 -1.9826481e-19)
(1.441735 0.044481311 0)
(1.4563952 0.051803481 7.5146813e-19)
(1.3262963 0.043174725 -7.4544686e-19)
(1.7275605 0.11100405 -4.5579994e-20)
(1.6961414 0.090336726 3.9357321e-19)
(1.8243139 0.11702571 0)
(1.880637 0.11327268 -1.5267274e-19)
(1.7511585 0.060170246 0)
(1.622553 0.0449858 0)
(1.8597965 0.033217144 0)
(1.6625867 0.03171094 0)
(1.8785996 0.072308175 3.0480522e-19)
(1.8594564 0.054108194 -6.469862e-19)
(1.868312 0.097700574 -3.0820491e-19)
(1.8696355 0.092169691 -3.5866278e-19)
(1.8489764 0.13946676 7.0401829e-19)
(1.718 0.1348945 0)
(1.7663489 0.18419474 0)
(-0.024828258 2.4818474 4.7409797e-20)
(-0.016145989 2.2980092 -2.509281e-22)
(-0.017288726 2.2919082 0)
(-0.024150152 2.6666873 -4.8718986e-20)
(-0.017093006 2.6279133 -2.0455756e-22)
(-0.021019757 2.6593995 3.3730944e-21)
(-0.018680832 2.8388661 6.5393541e-21)
(-0.016329608 2.7545034 -2.1627317e-21)
(-0.019861972 2.7215967 2.7142676e-22)
(-0.011122411 2.830497 -5.7763098e-21)
(-0.018201402 2.8320731 8.7382137e-21)
(-0.010272554 1.9220136 -2.3161926e-21)
(0.0017143852 2.0279799 -1.3943985e-20)
(0.50128816 1.9635414 -2.2913953e-19)
(0.46732389 1.9099784 5.7425595e-20)
(0.85456046 1.8930669 -4.6432853e-19)
(0.67053177 1.9716922 -2.5759935e-19)
(0.70776539 1.9419105 0)
(0.64160746 2.6016507 2.5414227e-19)
(0.69667383 2.619163 4.0178071e-19)
(0.44837955 2.7038335 1.1254549e-19)
(0.45944875 2.7032697 -7.0132446e-19)
(0.54601329 2.6323931 6.8566367e-19)
(0.55344104 2.6585606 0)
(0.48457494 2.7195336 -6.375669e-19)
(0.22841346 2.7924614 1.2731746e-18)
(0.33535398 2.77585 -5.0670998e-20)
(0.26985395 2.8672824 -1.7456631e-18)
(1.022157 2.5319104 1.0709671e-18)
(0.89027503 2.5535575 0)
(1.9564341 0.02895402 2.4793418e-20)
(1.6630188 0.027039581 -2.1202176e-20)
(1.6835057 0.02686632 -3.7222444e-19)
(1.8840402 0.034428944 3.7306044e-19)
(1.9913817 0.035798136 0)
(0.94690237 1.7654334 0)
(0.95543013 1.6766239 0)
(1.1367489 1.5751474 0)
(0.98535705 1.5764639 0)
(1.2746401 2.718492 3.9577126e-21)
(1.1891204 2.5533749 0)
(0.93471969 2.2342132 6.7538071e-21)
(0.88019259 2.5132313 0)
(0.99378926 2.5816463 -5.6245112e-19)
(1.0217958 2.5690789 3.8413333e-19)
(0.78192259 0.10679865 0)
(0.737042 0.10880898 2.4520908e-19)
(1.0714398 0.11938543 1.3391137e-18)
(0.8226154 0.069605199 -5.3399163e-19)
(0.77162617 0.015732549 -1.5447207e-18)
(1.7442199 0.35191989 -1.1355663e-18)
(1.5816189 0.42250911 -2.9916147e-20)
(1.2797524 0.33301132 1.3757307e-18)
(1.5500157 0.30210808 1.1063953e-18)
(1.301207 0.17528898 -1.7989733e-18)
(1.240355 0.18939568 2.2906672e-19)
(1.2776194 0.2606391 -5.1049219e-19)
(1.275123 0.22990159 0)
(1.5430772 0.22118485 8.8246156e-19)
(1.6772057 0.26362368 0)
(1.6715303 0.31429031 0)
(1.7392617 0.22411858 3.4557187e-19)
(1.8074976 0.27612535 -2.2945493e-20)
(1.7773518 0.35119118 -2.000375e-19)
(1.7516897 0.31974257 0)
(1.5724375 0.050309439 7.4666545e-19)
(1.8352764 0.097353345 9.0153019e-19)
(1.7836838 0.070798954 -7.0954583e-19)
(1.7810551 0.11573727 -6.1432245e-19)
(1.5628352 0.083753269 -1.0444596e-18)
(1.4143673 0.14029853 0)
(1.4379705 0.12889009 0)
(1.1307004 0.044601518 -6.5824045e-19)
(1.0151512 0.039281483 2.6994754e-19)
(1.7031565 0.14464013 9.0427724e-19)
(1.8270882 0.21448939 -1.0197241e-18)
(1.7967669 0.22770598 9.3642436e-19)
(1.7276959 0.2094635 0)
(1.8201954 0.17962006 0)
(1.8486475 0.1596624 -3.9916594e-19)
(1.8100429 0.14901241 -7.3708874e-19)
(0.74916623 1.4604437 2.7554466e-19)
(0.81437896 1.7862531 -3.0288695e-19)
(1.1749378 2.7446302 -3.4412221e-19)
(1.2902847 3.1030123 6.8327039e-20)
(1.3357464 2.7980486 -7.0132421e-19)
(1.385699 2.8633606 1.0845762e-19)
(1.2586028 2.5404614 2.3860388e-20)
(1.3236183 3.0259654 -2.6366569e-19)
(1.3337087 3.0455656 4.9262497e-19)
(1.3060548 3.3095133 -3.8577391e-20)
(1.4202555 3.0768605 3.9823344e-20)
(1.4342858 3.0053081 0)
(0.77840823 1.0866494 -8.358369e-20)
(0.21025503 1.3046943 8.8164325e-19)
(0.66311591 0.57781616 1.002752e-18)
(0.44247122 0.1594092 1.1134679e-18)
(0.5349576 0.40109874 1.201266e-18)
(0.65228772 0.52752641 -1.9818894e-18)
(0.63860551 0.52759154 1.6085008e-18)
(0.53526446 0.42836765 -6.0882502e-19)
(0.37709551 0.32066772 1.3841787e-18)
(0.75021895 0.20804473 -5.8201658e-19)
(0.71498488 0.23368945 0)
(0.60034116 0.17292902 9.9388904e-21)
(0.93932859 0.61694555 6.3884015e-19)
(0.87268208 0.54059194 -2.3303373e-18)
(0.71110937 0.52853464 1.4307691e-20)
(0.72625906 0.50579134 0)
(0.95715345 1.0239513 7.102625e-19)
(1.2585462 1.1164252 6.2242864e-19)
(1.1557655 1.2352511 -7.1686216e-19)
(1.3224119 1.1511074 -2.4134943e-19)
(1.3756948 1.2179863 -4.9612985e-20)
(1.3573835 1.2143952 5.0064875e-20)
(1.3457512 0.92637543 -1.1607168e-18)
(1.3840102 1.0358001 2.2658322e-19)
(1.4737605 1.0424613 0)
(1.5015211 0.99115686 -2.8620082e-19)
(1.6367684 0.45687347 3.2997923e-19)
(1.7432124 0.45378044 3.4486953e-19)
(1.7399761 0.41981934 4.8325227e-19)
(1.6227367 0.54907019 -6.6723401e-19)
(1.6422392 0.61449528 0)
(1.6740833 0.58984053 0)
(1.2578304 0.46237872 2.627938e-20)
(1.0842056 0.31409611 0)
(1.155457 0.29361578 6.6820446e-19)
(1.2622308 0.34332407 -1.6517838e-20)
(1.4617902 0.61257194 3.1037211e-18)
(1.3692724 0.71187009 8.7267084e-19)
(1.3353076 0.61402319 -9.8852211e-19)
(1.0974217 0.53843007 1.0782317e-18)
(1.0458463 0.53193274 6.3926957e-19)
(0.97222658 0.46738981 -6.2719807e-19)
(1.6831897 0.041969986 6.2738708e-19)
(1.9525584 0.039791296 0)
(1.91964 0.045792224 4.2701573e-19)
(1.7018793 0.041816624 -9.5375346e-19)
(1.9368337 0.038868317 4.7567695e-19)
(1.8743917 0.022648814 -1.0105796e-18)
(1.6895541 0.023431795 0)
(1.5738566 0.026878243 -2.1175195e-19)
(1.839984 0.019783119 5.27466e-19)
(1.6662276 0.021097678 -2.7288689e-19)
(1.6031779 0.027062509 1.9992138e-19)
(0.024747789 1.7931938 0)
(0.025933337 1.8106886 0)
(0.029721335 1.7959891 0)
(0.026634228 1.7745447 0)
(0.06061069 1.8349895 -8.9606715e-20)
(0.074628893 1.8167426 3.7103905e-20)
(0.1289421 1.9476341 -1.2120512e-20)
(0.10499045 1.8355804 -1.5018316e-20)
(0.030017496 1.8869656 2.0137331e-20)
(0.031617688 1.8827129 -1.5656537e-20)
(0.05405347 1.8194205 -1.8377824e-20)
(0.045232534 1.8196025 7.4285289e-20)
(0.036108673 1.803898 1.0178732e-20)
(0.027939021 1.8148477 3.6841496e-21)
(0.091841995 2.5505794 -1.6852895e-19)
(0.09743242 2.5823552 0)
(0.16574273 2.3033871 1.0708218e-19)
(0.14926561 2.1019529 5.4522785e-20)
(0.28270277 2.2669742 -1.0071287e-19)
(0.237088 2.6157372 0)
(0.28174698 2.6019385 -6.5896949e-19)
(0.33376317 2.4980691 4.7392087e-19)
(0.24072408 2.2336488 -2.4950165e-19)
(0.18506585 2.3868774 1.7675663e-19)
(0.17163517 2.5078293 0)
(0.012889538 2.2383266 -5.3568657e-20)
(0.013415816 2.6095448 -8.5864796e-20)
(0.0075292825 2.3810736 0)
(0.012550592 2.6685159 -1.584142e-20)
(0.030310041 2.5075905 3.8578634e-20)
(0.010727775 1.8492359 -5.4571752e-21)
(0.010118038 1.843221 9.1472269e-20)
(0.011006636 1.8513859 -3.1191847e-20)
(0.011694388 1.8468501 -2.6338889e-20)
(0.016796241 1.8711622 0)
(0.005877626 1.831811 0)
(0.0016185363 1.7856113 -4.1632119e-20)
(0.0016458327 1.828687 1.1266723e-20)
(0.0047793163 1.8292459 0)
(0.009766745 1.7807044 -3.1516296e-20)
(0.0057091974 1.7491828 6.4824895e-20)
(1.667813 0.057847352 0)
(1.6600357 0.060090356 -6.9294582e-20)
(1.9459819 0.066082726 -5.3919132e-19)
(1.8310734 0.074517874 0)
(1.6835708 0.065350347 0)
(1.9120176 0.054441474 -7.7128942e-22)
(1.9137859 0.054335065 8.1799519e-19)
(1.7832979 0.039321679 1.044955e-18)
(1.6574478 0.035046302 0)
(1.5794611 0.040564071 0)
(1.7719081 0.05206005 5.3357471e-19)
(1.6127565 0.049438275 0)
(1.5771721 0.03652526 0)
(-0.017637045 2.2907291 0)
(-0.001324499 2.056511 -8.6692412e-21)
(-0.011728277 2.1755214 -1.3066904e-20)
(-0.00040358577 1.8395809 0)
(-0.0090540616 1.9711367 -1.1455713e-20)
(-0.0089004484 1.9040651 7.0790751e-21)
(-0.0045233866 1.8434023 0)
(0.51625282 1.9213145 0)
(0.48665548 1.8205939 -1.4735985e-19)
(0.4367178 1.7738245 0)
(0.58851161 1.8535847 2.5887844e-20)
(0.64985902 1.9609168 0)
(0.60064072 1.9323089 4.3213456e-20)
(1.1091269 2.7756799 -2.2169141e-20)
(1.0430286 2.5486095 -1.2324866e-18)
(1.0418181 2.4451509 1.4257041e-18)
(0.92050801 2.5384968 3.4590672e-19)
(0.90806284 2.583971 0)
(0.97353093 2.5623797 0)
(0.99698091 2.5371076 0)
(0.97653383 2.5399652 -1.2540346e-18)
(0.7413039 2.5302985 -5.6219086e-19)
(0.86020174 2.5537881 -1.3245944e-19)
(0.86299196 2.5059048 1.059921e-19)
(0.74670622 2.5783063 0)
(0.8471204 2.5668306 0)
(0.80218236 2.5905044 -4.4157333e-19)
(0.80463003 2.5823644 0)
(0.92371413 1.514796 0)
(0.71648216 1.2066616 -8.7302129e-19)
(0.82447277 1.2543075 -5.2871327e-20)
(0.77208572 1.3696622 0)
(0.74184998 1.3083368 1.3326594e-18)
(1.1730719 1.2827514 -1.9708958e-19)
(1.1494513 1.4246518 0)
(1.1671262 1.3692801 2.8539763e-19)
(0.98131103 1.4599432 0)
(0.99470033 1.3319184 0)
(1.2454637 2.7905771 -3.9333727e-19)
(1.204987 2.8263949 -2.894562e-19)
(0.99775937 2.3299096 5.0620377e-19)
(0.99948318 2.3645568 -1.6770352e-19)
(1.2172203 2.7807833 0)
(1.1753774 2.7359255 2.1269869e-19)
(1.2017846 2.6223586 -3.8172833e-19)
(1.1171486 2.4742464 -2.8499955e-20)
(0.69333423 1.6710497 0)
(0.71695594 1.4887926 -2.4253943e-19)
(0.82036874 1.6321332 0)
(1.0798949 0.23104455 0)
(0.75095754 0.12841564 0)
(0.5813979 0.0997505 0)
(1.0608984 0.23693529 -1.041967e-18)
(0.77885887 0.16370396 6.0470712e-19)
(1.0323978 0.036881241 -5.3523345e-19)
(1.1418531 0.099039051 0)
(1.1204165 0.11123249 2.3686898e-19)
(0.86638233 0.031538873 9.5553411e-19)
(0.78079339 0.016104846 -6.0421062e-19)
(1.3096136 3.4335574 -2.4387354e-19)
(1.295615 3.3655119 0)
(1.3282101 3.3900386 -5.8681054e-19)
(0.52227861 3.495207 5.5022201e-19)
(0.76130008 3.0282734 -4.0675849e-19)
(0.65370074 1.0394442 1.0343155e-18)
(0.61496715 1.0825705 0)
(0.47549134 0.50518591 -2.7328855e-19)
(0.62121134 0.87004562 1.4982867e-18)
(0.66675936 0.47816803 -3.5941877e-19)
(0.60743845 0.61549733 4.1909443e-19)
(0.79642745 0.61128882 8.6798614e-19)
(0.89338573 0.6605832 0)
(0.83929918 0.73767525 0)
(0.73694726 0.66269614 0)
(1.5299918 0.87139111 8.3365327e-20)
(1.41376 0.78579938 -8.2883621e-19)
(1.4236804 0.83625975 6.1760259e-19)
(1.4875817 0.73677589 -6.2488242e-19)
(1.6194762 0.73527718 0)
(1.6257955 0.80440128 -1.4085267e-19)
(1.0949892 0.47953161 -1.4172828e-18)
(1.1304904 0.47534587 -1.6861788e-18)
(1.0146794 0.4263533 1.1098012e-18)
(1.004188 0.39090377 -1.126241e-18)
(1.0822621 0.34889725 -8.7307246e-19)
(0.97792622 0.3294151 1.0841672e-18)
(1.9188915 0.039938575 -5.0835705e-19)
(1.9493787 0.042702115 1.027773e-18)
(1.6880443 0.042508801 6.3695549e-19)
(1.7049682 0.049086878 -7.578059e-19)
(1.7993825 0.058551613 0)
(1.9489142 0.056360876 -1.3287915e-18)
(0.066908486 2.07339 1.8862666e-20)
(0.057607442 2.0075854 0)
(0.10179384 2.0690666 2.2768881e-19)
(0.1152753 2.0639498 -2.0720136e-19)
(0.092042626 1.9703505 2.1459947e-20)
(0.07834622 1.9590983 0)
(0.0018386581 2.0802067 0)
(-0.00090955481 1.9189808 4.130347e-21)
(-0.0014599569 1.887666 -3.7372638e-21)
(-0.0093229642 1.9710456 5.3780609e-21)
(-0.0090013347 2.2126996 4.5095505e-21)
(-0.0090498589 2.2344037 4.1439299e-21)
(0.69595278 1.7152726 -5.5591647e-19)
(0.65101388 1.7465352 5.8700283e-19)
(0.6294828 1.8236422 -3.3027924e-20)
(0.61677976 1.7238044 1.8932284e-20)
(0.88111754 1.8094344 0)
(0.74305092 1.9064448 2.1286764e-19)
(0.80183228 1.8973516 -2.0665056e-19)
(0.68405707 1.8594067 3.2790383e-20)
(0.75096749 1.7558532 0)
(0.81478562 1.7279761 0)
(0.72019273 2.5036816 8.229199e-19)
(0.7147291 2.5769584 1.4908026e-18)
(0.76181596 2.57299 -1.071485e-18)
(0.63352016 2.5866745 -2.2252615e-19)
(0.62532159 2.6366355 3.676288e-19)
(0.5777398 2.6152474 -9.2321821e-19)
(1.0898301 2.529362 -7.7548082e-19)