/*--------------------------------*- C++ -*----------------------------------*\
  =========                 |
  \\      /  F ield         | OpenFOAM: The Open Source CFD Toolbox
   \\    /   O peration     | Website:  https://openfoam.org
    \\  /    A nd           | Version:  9
     \\/     M anipulation  |
\*---------------------------------------------------------------------------*/
FoamFile
{
    format      ascii;
    class       volScalarField;
    location    "5";
    object      gradTx;
}
// * * * * * * * * * * * * * * * * * * * * * * * * * * * * * * * * * * * * * //

dimensions      [0 -1 0 1 0 0 0];

internalField   nonuniform List<scalar> 10(6.0413228e-07 1.4190154e-06 3.9910845e-05 0.00011038154 0.0015745356 0.0062300028 0.020048616 0.22192102 1.1702576 -0);

boundaryField
{
    inlet
    {
        type            calculated;
        value           uniform 6.0413228e-07;
    }
    outlet
    {
        type            calculated;
        value           uniform -24.998765;
    }
    bottom
    {
        type            calculated;
        value           nonuniform List<scalar> 10(6.0413228e-07 1.4190154e-06 3.9910845e-05 0.00011038154 0.0015745356 0.0062300028 0.020048616 0.22192102 1.1702576 0);
    }
    top
    {
        type            calculated;
        value           nonuniform List<scalar> 10(6.0413228e-07 1.4190154e-06 3.9910845e-05 0.00011038154 0.0015745356 0.0062300028 0.020048616 0.22192102 1.1702576 0);
    }
    frontAndBack
    {
        type            empty;
    }
}


// ************************************************************************* //
