/*--------------------------------*- C++ -*----------------------------------*\
  =========                 |
  \\      /  F ield         | OpenFOAM: The Open Source CFD Toolbox
   \\    /   O peration     | Website:  https://openfoam.org
    \\  /    A nd           | Version:  9
     \\/     M anipulation  |
\*---------------------------------------------------------------------------*/
FoamFile
{
    format      ascii;
    class       volScalarField;
    location    "0.96";
    object      alpha.phase1;
}
// * * * * * * * * * * * * * * * * * * * * * * * * * * * * * * * * * * * * * //

dimensions      [0 0 0 0 0 0 0];

internalField   nonuniform List<scalar> 
10000
(
5.4613178e-84
2.2746081e-83
9.8613329e-82
4.2205964e-81
4.6937737e-81
1.7517535e-81
5.8784733e-82
5.8795915e-82
1.9869318e-81
2.6474267e-79
3.2503718e-77
3.8714352e-75
5.6291112e-73
1.3319699e-70
4.5709284e-68
1.7250311e-65
6.4029773e-63
2.2805954e-60
7.7646012e-58
2.526403e-55
7.8527287e-53
2.3287617e-50
6.5743793e-48
1.760664e-45
4.4498948e-43
1.0539861e-40
2.3148862e-38
4.6505238e-36
8.4184764e-34
1.3530666e-31
1.9042614e-29
2.3173983e-27
2.4125795e-25
2.1301224e-23
1.584195e-21
9.8626746e-20
5.1279292e-18
2.3340015e-16
9.598811e-15
1.6928832e-13
9.1887238e-13
1.6332356e-11
2.9623911e-10
3.4768999e-09
3.0940884e-07
7.0789398e-06
9.3919439e-06
9.2810286e-06
5.3297071e-06
4.8205976e-06
5.9417423e-06
6.0463582e-06
6.0463582e-06
5.9146614e-06
2.0534462e-06
1.5325056e-06
1.7852562e-06
6.6607004e-06
5.5407329e-06
1.8452912e-06
1.0515962e-06
1.0517885e-06
2.0654736e-06
2.0369115e-06
6.816202e-07
3.4609868e-09
2.2468854e-10
1.7919958e-11
1.4712399e-12
4.9397149e-13
6.5082013e-14
3.4444767e-15
1.5074191e-16
6.4540676e-18
2.534463e-19
8.8902643e-21
2.7764587e-22
7.7019125e-24
1.8891755e-25
4.073353e-27
7.667159e-29
1.2498807e-30
1.7486382e-32
2.0775835e-34
2.0706096e-36
1.7058924e-38
1.1412461e-40
6.0638084e-43
2.4869732e-45
7.5747552e-48
1.6189398e-50
2.2149881e-53
1.6265202e-56
5.3701909e-60
1.734888e-60
7.1631162e-59
2.6979582e-57
7.0539127e-56
1.1423854e-54
5.0066712e-54
5.4613172e-84
1.8251607e-82
6.4005359e-81
2.7991333e-80
3.5950631e-80
2.658046e-80
1.4115229e-80
7.2612573e-81
4.0524172e-80
5.9565948e-78
7.6119407e-76
8.7075573e-74
9.1358373e-72
9.4290103e-70
1.1877835e-67
2.4834049e-65
7.8975e-63
2.7310898e-60
9.314101e-58
3.05748e-55
9.6244924e-53
2.9020028e-50
8.3702112e-48
2.3033698e-45
6.0197676e-43
1.4838122e-40
3.415422e-38
7.247705e-36
1.3972665e-33
2.409908e-31
3.6622393e-29
4.8331287e-27
5.455824e-25
5.1393924e-23
4.033347e-21
2.6713568e-19
1.5323707e-17
7.8879429e-16
2.1115124e-14
1.9736259e-13
4.8369309e-12
1.1537528e-10
2.3265876e-09
3.3615229e-07
7.1509649e-06
9.4997583e-06
8.6553615e-06
1.0547673e-07
5.1252597e-08
5.0958794e-08
5.0917571e-08
2.0842915e-06
2.3391053e-06
1.3186638e-07
2.0696829e-07
3.5259498e-07
1.3072868e-05
5.0035531e-05
4.994998e-05
1.3568716e-05
1.0972821e-06
1.0517885e-06
1.4948712e-06
4.5495546e-06
4.546025e-06
2.9226497e-06
6.5884994e-08
2.4256114e-10
1.6115831e-11
1.4261591e-12
1.7013661e-13
2.3918146e-14
1.24093e-15
4.2743973e-17
1.5053761e-18
4.9343661e-20
1.4608073e-21
3.867324e-23
9.0714421e-25
1.8686324e-26
3.3522662e-28
5.1921052e-30
6.8780263e-32
7.7136328e-34
7.2409982e-36
5.6194573e-38
3.5199976e-40
1.6307281e-42
5.6110341e-45
1.3719407e-47
2.207761e-50
2.0893277e-53
9.3654708e-57
8.8767198e-58
2.1519504e-57
1.1216071e-55
4.1282573e-54
7.7678076e-53
3.8569262e-52
4.4388774e-52
3.0702922e-81
2.3258295e-79
5.5962784e-78
1.8892897e-77
2.2011102e-77
1.5748984e-77
8.0457368e-78
3.9696086e-78
1.6459896e-77
2.5173174e-75
3.3111558e-73
3.8656054e-71
4.0529413e-69
3.8538084e-67
3.3486114e-65
2.6847966e-63
2.0179558e-61
1.5058128e-59
1.3774907e-57
2.1917053e-55
5.8612128e-53
1.7750516e-50
5.2385139e-48
1.4855301e-45
4.0302555e-43
1.0387002e-40
2.5158543e-38
5.6474873e-36
1.155972e-33
2.1208599e-31
3.4292179e-29
4.8133781e-27
5.8140217e-25
6.1592192e-23
5.6347224e-21
4.2956347e-19
2.8645673e-17
1.680633e-15
4.2414201e-14
3.4090724e-13
9.8186479e-12
2.6844963e-10
6.1822113e-09
2.5706024e-06
9.4086195e-06
9.3632478e-06
7.4714154e-07
5.1410084e-08
5.0967185e-08
5.0884845e-08
5.0924628e-08
5.0899634e-08
5.0925787e-08
6.6914642e-08
1.1258456e-07
3.0601393e-06
4.6588709e-05
5.0984718e-05
5.1047729e-05
5.0984718e-05
4.1887104e-05
3.5164237e-06
1.6238083e-06
2.6990067e-06
4.5523081e-06
4.0281866e-06
3.4773993e-07
2.2619817e-09
1.3450665e-10
7.3406633e-12
4.3557521e-13
6.9878007e-14
4.4298964e-15
1.4960054e-16
4.882492e-18
1.5197327e-19
4.2710033e-21
1.0683391e-22
2.3606435e-24
4.5716879e-26
7.6994308e-28
1.1192612e-29
1.3814713e-31
1.4093641e-33
1.1736168e-35
7.80542e-38
4.1117514e-40
1.8516077e-42
6.3602128e-45
1.5864133e-47
2.7089208e-50
2.8174157e-53
3.239553e-56
3.2930223e-56
2.275333e-54
1.0793254e-52
3.5699713e-51
5.9363942e-50
2.9442201e-49
3.8708039e-49
1.6645492e-78
1.7500965e-76
3.1566043e-75
8.7396979e-75
9.5788408e-75
6.7303316e-75
3.358281e-75
1.6235235e-75
5.5805948e-75
8.9269977e-73
1.2173689e-70
1.463472e-68
1.573003e-66
1.5270359e-64
1.3512351e-62
1.0968381e-60
8.2163997e-59
5.7093594e-57
3.6939416e-55
2.2382056e-53
1.2792925e-51
6.9456629e-50
3.9607444e-48
3.655835e-46
7.0703347e-44
1.9475847e-41
5.492028e-39
1.4524226e-36
3.5092317e-34
7.6530211e-32
1.4808248e-29
2.4913705e-27
3.5708499e-25
4.2042191e-23
4.0372557e-21
3.227137e-19
2.1725265e-17
1.2515346e-15
4.4877626e-14
6.8601375e-13
1.670979e-11
4.4592911e-10
9.1407004e-09
1.8919016e-06
9.4031904e-06
5.5720841e-06
5.2955043e-08
5.1491028e-08
6.0914006e-08
5.5121261e-08
5.2416246e-08
5.0925787e-08
5.0962324e-08
1.2244253e-06
3.6583094e-06
5.4649214e-06
9.7654983e-06
3.3885252e-05
5.1095421e-05
5.0915322e-05
5.0420866e-05
4.5462476e-05
5.1471086e-06
2.7992601e-06
4.5275688e-06
3.3135546e-06
7.0414562e-07
4.9706224e-09
3.0831082e-10
1.6491468e-11
9.2488576e-13
1.3739735e-13
9.5292976e-15
3.374552e-16
1.015582e-17
2.908263e-19
7.5776135e-21
1.7537881e-22
3.5713543e-24
6.3446391e-26
9.7426575e-28
1.2791435e-29
1.4168881e-31
1.3094696e-33
1.0241008e-35
6.632664e-38
3.3932159e-40
1.245788e-42
3.3004954e-45
5.8468098e-48
5.9783919e-51
2.153498e-54
3.2983036e-55
2.8692706e-53
1.7599372e-51
7.7224282e-50
2.3282614e-48
3.45499e-47
1.6477894e-46
2.3066071e-46
6.5254495e-76
7.7702694e-74
1.224481e-72
3.0465381e-72
3.2114868e-72
2.2395402e-72
1.1015463e-72
5.2334085e-73
1.4996959e-72
2.550709e-70
3.6472408e-68
4.5482506e-66
5.0357717e-64
5.0112352e-62
4.5254242e-60
3.7370829e-58
2.8388621e-56
1.9950699e-54
1.3025937e-52
7.9350861e-51
4.529338e-49
2.3998736e-47
1.1534816e-45
5.2191663e-44
2.7721096e-42
1.989011e-40
1.0203391e-38
3.0813093e-37
2.1984423e-35
5.5981958e-33
1.3902751e-30
2.851238e-28
4.9277216e-26
7.0446044e-24
8.2617515e-22
7.9113003e-20
6.1754461e-18
4.0085768e-16
1.8973969e-14
4.1055789e-13
9.9097874e-12
2.9947695e-10
6.8998562e-09
1.1362643e-06
3.8750766e-06
1.1350542e-06
5.3518684e-08
8.6659892e-08
8.7938616e-08
5.8783678e-08
5.1102382e-08
5.1902827e-08
5.1811857e-08
1.693533e-06
1.4364115e-05
1.9298088e-05
8.1702126e-06
1.7252041e-06
9.5502453e-07
7.9835814e-07
3.2251493e-05
4.8806669e-05
4.8821464e-05
9.3597297e-06
4.2806709e-06
4.1909085e-06
2.6749331e-06
1.3400863e-07
1.170816e-09
6.0992753e-11
2.9281219e-12
1.6466197e-13
2.7123014e-14
1.2850464e-15
3.1225691e-17
7.7521556e-19
1.7769546e-20
3.5905654e-22
6.3359525e-24
9.6865288e-26
1.2701303e-27
1.4105301e-29
1.3186784e-31
1.076832e-33
7.4201352e-36
3.9393753e-38
1.5721975e-40
4.4601919e-43
8.2468764e-46
8.339898e-49
2.3902243e-52
3.4940181e-54
2.4663804e-52
1.939121e-50
1.0769274e-48
4.4084015e-47
1.2155622e-45
1.6184652e-44
7.2895602e-44
1.0479171e-43
1.9720554e-73
2.4677801e-71
3.633679e-70
8.5241333e-70
8.7557147e-70
6.0957937e-70
2.9716192e-70
1.3829658e-70
3.131266e-70
5.8430778e-68
8.9187072e-66
1.1663397e-63
1.3390283e-61
1.3718376e-59
1.2683563e-57
1.0677029e-55
8.2370921e-54
5.854749e-52
3.854339e-50
2.3598357e-48
1.3479762e-46
7.1402194e-45
3.4436575e-43
1.5415607e-41
7.5027769e-40
4.9457845e-38
2.9569332e-36
8.2771285e-35
1.0175975e-33
8.553859e-33
1.1334237e-31
8.6183952e-30
2.2680537e-27
4.7457867e-25
7.5473687e-23
9.4745014e-21
9.317298e-19
7.2610144e-17
4.3162632e-15
1.5133936e-13
3.598119e-12
1.3312331e-10
4.8505263e-09
5.0875677e-07
1.0897691e-06
9.7004429e-07
2.3450453e-07
1.0753418e-07
4.1937912e-08
3.5809169e-08
3.4327886e-08
5.1762194e-08
5.7145178e-08
1.4205427e-07
7.8837465e-06
1.9759606e-05
1.9754257e-05
1.1296469e-05
8.4463007e-07
5.856224e-07
3.5676089e-07
3.4555871e-05
5.9893184e-05
5.5580475e-05
1.0148961e-05
3.1216941e-06
1.9478722e-06
8.5855161e-08
1.7106971e-09
7.4721809e-11
3.1850041e-12
5.3737385e-13
4.4373725e-14
1.4740393e-15
3.840867e-17
9.5394988e-19
2.1294174e-20
4.1814023e-22
7.1727108e-24
1.06643e-25
1.3611837e-27
1.4744235e-29
1.3344138e-31
9.5879477e-34
5.1104487e-36
2.0640664e-38
5.9464428e-41
1.1050937e-43
1.0952375e-46
3.4798045e-50
1.0224356e-52
1.5702393e-51
1.5406017e-49
1.0664872e-47
5.4501073e-46
2.0910849e-44
5.2646313e-43
6.300535e-42
2.6557796e-41
3.8363484e-41
5.3609429e-71
6.1608658e-69
8.7753991e-68
1.9921303e-67
2.0132919e-67
1.4039284e-67
6.8154113e-68
3.0613482e-68
4.7986642e-68
1.0554271e-65
1.7839746e-63
2.4915343e-61
2.9988239e-59
3.1843575e-57
3.0283847e-55
2.6061358e-53
2.0460137e-51
1.4742741e-49
9.7940696e-48
6.0301614e-46
3.4482247e-44
1.8229885e-42
8.8115254e-41
3.9664939e-39
1.8375135e-37
9.8932115e-36
5.2046065e-34
1.7662828e-32
3.1527193e-31
3.0404031e-30
1.8992529e-29
1.1631979e-28
1.6793957e-27
8.7733585e-26
8.1885557e-24
7.2104317e-22
7.3846223e-20
9.1601757e-18
7.3738273e-16
3.6718924e-14
1.0412351e-12
4.2320345e-11
2.7799828e-09
7.3959678e-08
1.7941436e-07
4.2974253e-07
4.1379903e-07
3.5188513e-08
3.517e-08
3.4274366e-08
3.4235665e-08
1.1217759e-07
7.8927416e-08
1.2104516e-07
1.4576653e-07
1.7698658e-05
1.9761359e-05
1.9736785e-05
2.9063115e-06
3.4769906e-07
3.13478e-07
8.5865124e-06
6.2427718e-05
6.452146e-05
4.4431344e-05
2.9281928e-06
2.5405037e-07
2.321497e-08
1.6584374e-09
9.3533401e-11
4.897935e-12
5.9378702e-13
3.4879824e-14
1.0956221e-15
2.8543723e-17
6.709066e-19
1.3813066e-20
2.4615527e-22
3.7711842e-24
4.9198613e-26
5.3967902e-28
4.8940069e-30
3.5824346e-32
2.0117769e-34
8.2842814e-37
2.3930838e-39
4.3173205e-42
3.9156219e-45
1.1826414e-48
4.6748346e-51
8.1307496e-51
9.4503646e-49
7.9265247e-47
4.935007e-45
2.3455547e-43
8.4248246e-42
1.9331771e-40
2.0808643e-39
8.1764275e-39
1.1712124e-38
2.6613433e-68
1.2783192e-66
1.7890949e-65
3.9989805e-65
4.0027981e-65
2.8054217e-65
1.3706845e-65
5.5559907e-66
3.9421434e-66
1.3695474e-63
2.8066282e-61
4.3425765e-59
5.5831561e-57
6.2133409e-55
6.1220802e-53
5.416586e-51
4.3442346e-49
3.1809484e-47
2.1389057e-45
1.3269556e-43
7.6109469e-42
4.0202414e-40
1.9450328e-38
8.8105536e-37
3.9825793e-35
1.8526397e-33
8.0376926e-32
2.9298419e-30
7.7378603e-29
1.0737861e-27
6.9998989e-27
2.7727732e-26
1.1192657e-25
1.286232e-24
1.3347602e-22
6.8291349e-21
1.3145568e-19
2.3244439e-18
7.870198e-17
5.6986523e-15
2.8932864e-13
1.7893476e-11
5.7574943e-10
5.0756063e-10
5.6758816e-09
1.5525232e-07
2.843835e-07
3.5188254e-08
3.5365571e-08
5.4679977e-08
5.4222401e-08
5.7754366e-07
2.4032357e-07
1.4571088e-07
2.2780234e-07
2.0006264e-05
1.9956348e-05
4.8999684e-06
3.4720622e-07
3.1325134e-07
3.0846944e-07
3.1261366e-07
5.7723439e-05
6.5327916e-05
6.561602e-05
1.6979006e-05
8.7936613e-08
5.4134216e-09
4.2831581e-10
3.9740891e-11
3.0106987e-12
3.1459648e-13
1.4898863e-14
4.3191256e-16
1.0708741e-17
2.3145124e-19
4.2872501e-21
6.7617227e-23
9.0122798e-25
1.0026555e-26
9.1523916e-29
6.6893035e-31
3.7857556e-33
1.5804011e-35
4.5299714e-38
7.79912e-41
6.5431154e-44
1.6966779e-47
5.7902219e-50
3.7116167e-50
4.8343865e-48
4.6796009e-46
3.4564506e-44
1.9620739e-42
8.7173146e-41
2.9204169e-39
6.0936649e-38
5.9081555e-37
2.1620954e-36
3.0479453e-36
3.3674964e-65
2.384866e-64
3.1609933e-63
7.0425801e-63
7.0123905e-63
4.9455226e-63
2.4406563e-63
9.0502256e-64
8.0056181e-65
9.9365986e-62
3.1775772e-59
5.8956332e-57
8.3510467e-55
9.8919364e-53
1.0187485e-50
9.3163816e-49
7.6668109e-47
5.7241674e-45
3.902742e-43
2.4444557e-41
1.409208e-39
7.4570268e-38
3.6128564e-36
1.6373469e-34
7.2239789e-33
3.0681533e-31
1.1747111e-29
4.4315519e-28
1.6149731e-26
2.9510395e-25
1.9942385e-24
6.4358616e-24
1.6246876e-23
7.5723765e-23
1.0982593e-20
6.421954e-19
7.2389424e-18
2.8244633e-17
1.24235e-16
2.0704751e-15
6.7529126e-14
2.2710312e-12
4.3575403e-12
3.3710176e-11
3.8930352e-10
6.9488579e-07
5.7666897e-08
3.7651738e-08
3.9153033e-08
1.4523131e-07
5.7665916e-06
2.6589608e-05
1.8029016e-06
2.1836306e-07
1.4762491e-05
2.2225369e-05
1.8078718e-05
6.3479493e-07
3.1368825e-07
3.0849824e-07
3.0778176e-07
6.4624967e-07
5.8638815e-05
6.533304e-05
6.5819079e-05
4.2979913e-05
5.4377189e-07
4.8748277e-09
4.8496843e-10
2.8677416e-11
1.6712721e-12
1.2383063e-13
4.5502119e-15
1.1562263e-16
2.5375641e-18
4.7967114e-20
7.7178791e-22
1.0489186e-23
1.1899045e-25
1.1071615e-27
8.2430987e-30
4.7404394e-32
1.9989893e-34
5.6944026e-37
9.5565071e-40
8.4205097e-43
2.9399043e-46
3.4990075e-49
2.2043332e-49
2.2017398e-47
2.3338563e-45
1.9610199e-43
1.2975223e-41
6.7775888e-40
2.8163587e-38
8.7776655e-37
1.6602765e-35
1.4536405e-34
4.9566781e-34
6.8508998e-34
4.4246911e-62
5.3414024e-62
4.9526834e-61
1.104822e-60
1.098489e-60
7.8042338e-61
3.8631391e-61
1.4316251e-61
1.0071841e-62
2.199099e-60
1.3139634e-57
3.1608243e-55
5.1109236e-53
6.6271543e-51
7.2642115e-49
6.959215e-47
5.9402561e-45
4.5756503e-43
3.2019876e-41
2.0482527e-39
1.2037094e-37
6.517099e-36
3.2573435e-34
1.4953299e-32
6.2247478e-31
2.3827428e-29
9.9270671e-28
7.2201141e-26
5.314749e-24
1.1233099e-22
6.5645558e-22
1.6050797e-21
2.6963972e-21
7.8604565e-21
1.031323e-18
3.7821964e-17
3.1178627e-16
1.0319363e-15
2.125406e-15
4.1351125e-15
1.1228769e-14
1.3726453e-14
1.1309038e-13
3.1900846e-08
7.2496299e-07
7.7858018e-07
1.2274909e-07
2.8431569e-07
6.0967944e-08
3.1504925e-07
5.0107169e-05
6.7254123e-05
2.3307793e-05
8.583876e-07
2.2225369e-05
2.2225369e-05
1.4271062e-05
5.1237451e-07
3.1284605e-07
3.0778177e-07
3.0764175e-07
1.3086312e-06
6.4525505e-05
6.5600382e-05
6.5760654e-05
4.0284469e-05
6.3473619e-07
2.0315791e-08
7.2662991e-10
2.4649693e-11
9.7276541e-13
4.1871393e-14
1.1050707e-15
2.3439348e-17
4.3275566e-19
6.8728176e-21
9.3015434e-23
1.0593857e-24
9.9640849e-27
7.5320849e-29
4.4047087e-31
1.8826106e-33
5.4006333e-36
9.8304081e-39
9.1197084e-42
7.8546535e-45
2.9252131e-48
2.0490731e-48
9.3767575e-47
1.043288e-44
9.4614972e-43
7.0569666e-41
4.2329918e-39
2.0425799e-37
7.932929e-36
2.29446e-34
3.9240597e-33
3.1103632e-32
9.8906198e-32
1.3382202e-31
4.652886e-59
2.4833249e-59
7.1240644e-59
1.5602052e-58
1.5566613e-58
1.1159311e-58
5.5892216e-59
2.3108853e-59
1.0518663e-60
4.1634561e-59
3.8438711e-56
2.2693748e-53
5.8636784e-51
9.2912626e-49
1.1319041e-46
1.1596084e-44
1.0364918e-42
8.2449899e-41
5.9096104e-39
3.8393363e-37
2.2744164e-35
1.2317314e-33
6.1034295e-32
2.7641619e-30
1.1385761e-28
4.3118486e-27
1.7054564e-25
9.7853098e-24
5.8563483e-22
1.3052167e-20
8.4350366e-20
2.089739e-19
2.9401438e-19
4.9885954e-19
2.8749263e-17
7.9542236e-16
5.6347776e-15
1.9416099e-14
4.1694951e-14
8.7302864e-14
6.7716259e-14
5.744046e-14
6.4992796e-14
6.1139082e-08
9.5417722e-07
6.6515122e-07
6.0160225e-07
4.1199411e-06
1.0611409e-06
5.2564268e-07
5.9811607e-05
6.7254123e-05
6.5574946e-05
1.2029774e-05
2.1875184e-05
2.2225369e-05
8.9504779e-06
1.3648298e-06
3.2002589e-07
3.076465e-07
3.076465e-07
1.033039e-06
6.5597805e-05
6.5861931e-05
6.6076163e-05
2.0143363e-05
5.1443891e-07
1.4854167e-08
4.7051912e-10
1.3370115e-11
4.3167985e-13
1.0147925e-14
1.8767094e-16
3.2058195e-18
4.8896665e-20
6.4827463e-22
7.3403234e-24
6.9414546e-26
5.3203095e-28
3.1707534e-30
1.3892648e-32
4.3473481e-35
8.5454111e-38
1.3813381e-40
1.6210398e-43
1.1145457e-46
2.3930253e-47
3.8853633e-46
4.4608026e-44
4.1809438e-42
3.3141516e-40
2.2073831e-38
1.2036943e-36
5.3727056e-35
1.950925e-33
5.2079843e-32
8.0439626e-31
5.7854787e-30
1.7171196e-29
2.273164e-29
3.9210672e-56
1.7799833e-56
1.0149907e-56
2.0100756e-56
2.0152856e-56
1.459949e-56
7.4896732e-57
2.6728465e-57
1.1530269e-58
2.5070813e-58
7.8812633e-56
2.4242838e-51
2.9704897e-48
7.22938e-46
1.0582698e-43
1.2031633e-41
1.1560756e-39
9.7224197e-38
7.3040916e-36
4.9621746e-34
3.059185e-32
1.7014405e-30
8.5274662e-29
4.1643608e-27
2.5010494e-25
1.8967477e-23
7.4787168e-22
1.1448925e-20
9.001578e-20
6.914733e-19
4.5334525e-18
1.4017338e-17
2.182138e-17
2.7703462e-17
6.39101e-16
2.5126416e-14
1.7968917e-13
3.1449891e-13
4.3506725e-13
4.3552536e-13
3.1352316e-13
6.4992796e-14
6.7121051e-14
5.5123431e-07
9.4993149e-07
5.9959298e-07
3.0493626e-06
4.8180489e-06
4.3423976e-06
5.1436602e-07
3.3644442e-06
6.7254123e-05
6.6682667e-05
2.0746357e-05
2.1535031e-05
1.2408164e-05
9.5057533e-06
2.3423484e-05
1.8708192e-05
3.2106215e-07
3.0757951e-07
1.5414599e-06
6.2936365e-05
6.5597805e-05
3.7175176e-05
1.8829283e-06
2.0124543e-07
8.4149711e-11
1.237065e-10
6.9710428e-12
1.4634723e-13
1.7015498e-15
2.0775159e-17
2.7538401e-19
3.4845632e-21
3.9257172e-23
3.7744128e-25
2.9844767e-27
1.8760351e-29
9.1877336e-32
3.2442217e-34
9.8968024e-37
2.4745468e-39
6.2099922e-42
1.6491574e-44
4.2684462e-46
1.3952858e-45
1.8702186e-43
1.7565607e-41
1.4263699e-39
1.0019474e-37
5.9923554e-36
2.9779661e-34
1.2310253e-32
4.1886451e-31
1.0238851e-29
1.4246867e-28
9.3164327e-28
2.585231e-27
3.3484131e-27
2.7092451e-53
1.197951e-53
1.8662288e-54
2.427793e-54
2.4011138e-54
1.7691049e-54
8.0096096e-55
5.6875507e-56
2.8002256e-56
9.8193032e-55
4.1614357e-52
2.4536714e-48
4.7115174e-44
2.1388853e-41
3.8784052e-39
5.0661665e-37
5.4885003e-35
5.2073802e-33
4.3883033e-31
3.2759266e-29
2.4744612e-27
3.7942291e-25
7.3949723e-23
2.820587e-21
2.3674099e-20
1.8017481e-19
2.7646065e-18
1.9342067e-17
4.7590075e-17
6.9025506e-17
1.1248462e-16
2.7507994e-16
6.5499147e-16
4.0604746e-15
2.4023788e-14
1.9302857e-13
2.9148389e-12
2.9073381e-12
2.0102673e-12
9.808902e-13
5.2364925e-13
1.5639636e-13
8.1504795e-14
7.6543695e-07
8.8730042e-07
5.9921809e-07
4.5325855e-06
4.8219443e-06
4.8200543e-06
9.8382361e-07
5.4714366e-07
5.0775302e-05
6.611121e-05
1.5581669e-05
1.8713414e-05
1.5139004e-05
1.693563e-05
5.0982783e-05
5.0953422e-05
2.5416935e-05
3.3073689e-07
3.6080526e-07
1.9385916e-05
4.0088513e-05
7.7852316e-07
3.4749804e-08
2.900583e-08
8.7750369e-12
3.2101835e-12
3.2086485e-12
3.2402178e-14
1.9713127e-16
1.6221758e-18
1.7826807e-20
2.0612963e-22
2.1709226e-24
1.9616742e-26
1.4822629e-28
9.4741692e-31
5.4230547e-33
2.658366e-35
1.2191833e-37
5.4777177e-40
2.5767698e-42
2.0513237e-44
5.3302406e-46
7.5661359e-43
7.1642864e-41
5.8332157e-39
4.1603178e-37
2.6117701e-35
1.4061393e-33
6.3869438e-32
2.4535958e-30
7.7852414e-29
1.7301703e-27
2.1648666e-26
1.2904679e-25
3.3600656e-25
4.2588791e-25
1.5646812e-50
6.8872439e-51
6.3510485e-52
2.7435545e-52
2.6645407e-52
1.9512498e-52
9.9925286e-53
3.6331545e-53
1.4495578e-52
3.6455968e-50
2.5502116e-47
1.1400858e-44
4.2174382e-42
1.359332e-39
2.566317e-37
3.5755141e-35
3.9653432e-33
3.7271399e-31
3.0843212e-29
2.2920513e-27
1.5407522e-25
9.5666731e-24
6.1422209e-22
4.64525e-20
5.6170484e-18
3.3608097e-16
5.2401001e-15
2.5485717e-14
5.174973e-14
5.0161642e-14
4.8029227e-14
6.4401957e-14
9.0186314e-14
1.3987826e-13
7.3366954e-13
2.3625951e-12
7.6779985e-12
7.8697378e-12
4.6130493e-12
1.1020802e-12
3.8800529e-13
1.6414641e-13
1.0093281e-13
3.0121712e-07
1.1543959e-08
1.6628733e-06
4.7973065e-06
4.8180489e-06
4.8207139e-06
1.4322671e-06
5.4714366e-07
4.0146679e-06
3.3962729e-05
9.2386704e-06
6.7698157e-06
3.8799166e-05
5.1120301e-05
5.1066944e-05
5.091612e-05
5.082893e-05
2.5213385e-05
2.5181859e-06
1.3455873e-06
7.4014948e-07
3.8655826e-08
2.7688848e-09
3.4901928e-10
4.2549163e-10
4.998972e-14
9.1661913e-13
4.5618396e-15
2.9819743e-17
2.5417732e-19
2.9993628e-21
3.8403482e-23
4.3568968e-25
4.2773656e-27
3.6281552e-29
2.6783324e-31
1.7553552e-33
1.0401741e-35
5.7569855e-38
3.0576621e-40
1.2842891e-42
2.1897011e-44
2.7051215e-42
2.8011343e-40
2.3053932e-38
1.6404519e-36
1.0392865e-34
5.8553464e-33
2.8439904e-31
1.1833776e-29
4.2401342e-28
1.2415687e-26
2.4874756e-25
2.796732e-24
1.5265354e-23
3.7503239e-23
4.6479983e-23
7.665718e-48
3.3892844e-48
2.8758992e-49
3.0646464e-50
2.7717549e-50
2.0187155e-50
1.1304195e-50
4.5541019e-51
9.7724961e-51
1.4538983e-48
6.3968811e-46
3.6808168e-43
1.4378687e-40
5.1369997e-38
1.1090969e-35
1.6236625e-33
1.8298847e-31
1.7326879e-29
1.4353897e-27
1.0635469e-25
7.0921075e-24
4.2283728e-22
2.4070998e-20
1.8145499e-18
2.3665214e-16
1.5197201e-14
2.3287786e-13
1.0194068e-12
1.7776944e-12
1.5212037e-12
1.3761127e-12
1.9362304e-12
1.590834e-12
1.6684341e-12
2.8693684e-12
6.3833239e-12
8.9209901e-12
8.6042068e-12
8.581793e-13
8.7231469e-13
1.9243771e-13
1.8881391e-13
2.6029028e-08
7.9928776e-09
5.9495305e-09
7.1482716e-07
4.5462697e-06
4.7973065e-06
4.7185262e-06
1.0382621e-06
5.9462237e-07
7.9097299e-07
1.1132031e-05
8.2636528e-06
6.2614921e-06
4.5296572e-05
5.0994819e-05
5.091612e-05
5.087184e-05
5.1333502e-05
5.1073719e-05
2.6442281e-05
3.8751454e-08
3.7013723e-08
2.7919895e-09
3.2377249e-11
2.1254598e-11
4.3446376e-10
1.1826627e-14
1.1995476e-13
6.6595969e-16
1.0309059e-17
1.1036429e-19
1.3850209e-21
1.7682447e-23
1.9458256e-25
1.863107e-27
1.5676578e-29
1.1737169e-31
7.9834495e-34
4.9962859e-36
2.8712273e-38
1.1456076e-40
1.6440632e-42
5.1425478e-42
1.0139498e-39
8.7842821e-38
6.3039713e-36
3.9590417e-34
2.2331945e-32
1.1240129e-30
4.9304662e-29
1.8843301e-27
6.2976758e-26
1.678865e-24
3.006469e-23
3.0412253e-22
1.5324256e-21
3.5816452e-21
4.3259166e-21
3.2228764e-45
1.440229e-45
1.2569074e-46
4.2101399e-48
2.6924865e-48
1.9611513e-48
1.1113661e-48
4.9959811e-49
4.9019382e-49
9.1278428e-47
2.997185e-44
1.3543777e-41
7.328504e-39
1.8880124e-36
2.8907786e-34
3.4338287e-32
3.4172449e-30
2.9587707e-28
2.2770479e-26
1.5764136e-24
9.819776e-23
5.4545303e-21
2.8732494e-19
1.9783781e-17
2.1484662e-15
1.1275044e-13
1.5420397e-12
6.2543491e-12
5.917135e-12
1.4747776e-11
1.8586387e-11
6.3585854e-11
1.3652186e-11
7.25702e-12
7.5813768e-12
8.058627e-12
8.0650981e-12
8.3345806e-12
7.319193e-10
7.8055236e-09
4.5316977e-09
1.9243771e-13
2.0131833e-08
6.0573407e-09
5.419251e-09
5.9495305e-09
8.8889773e-07
3.6903438e-06
1.8586868e-06
1.2194439e-06
7.8090044e-07
8.5056547e-06
6.0265405e-05
1.7075044e-05
5.7087392e-06
1.0685563e-05
2.7773565e-05
5.090266e-05
5.0882518e-05
5.094699e-05
4.9980106e-05
5.2025029e-06
6.1080763e-09
1.7051802e-08
1.985891e-08
1.2042717e-08
1.3584839e-12
9.6735356e-11
6.8917027e-15
1.34838e-14
1.7811408e-16
4.2937265e-18
5.0868854e-20
6.2480208e-22
7.5220864e-24
7.9176341e-26
7.4365962e-28
6.3267204e-30
4.8784066e-32
3.3785948e-34
2.0595506e-36
9.0208228e-39
1.1724248e-40
3.6870556e-42
2.9092001e-39
3.0714253e-37
2.3002123e-35
1.4483744e-33
8.0732225e-32
4.0621386e-30
1.8301448e-28
7.2790852e-27
2.5597902e-25
7.9001952e-24
1.8945731e-22
3.0136565e-21
2.7531396e-20
1.3025277e-19
2.9750361e-19
3.5730897e-19
1.173541e-42
5.3271131e-43
4.9021029e-44
9.1920159e-46
2.4976587e-46
1.8195849e-46
9.8861143e-47
4.0081555e-47
3.8116124e-47
1.4245712e-44
4.7291455e-42
9.502504e-40
1.5208445e-37
2.0421564e-35
2.3257244e-33
2.2845853e-31
1.9726507e-29
1.5170822e-27
1.0500405e-25
6.5788146e-24
3.7047966e-22
1.8518532e-20
8.7353016e-19
5.3250034e-17
4.952052e-15
2.2333553e-13
3.3125842e-12
7.6385596e-11
2.9017688e-10
1.1244651e-09
1.4450456e-09
4.1083071e-09
4.8630546e-10
1.3414281e-11
1.0482444e-11
8.0650303e-12
8.7678398e-10
3.9077208e-11
4.9851636e-10
2.7216756e-09
2.2420376e-08
1.7019498e-08
5.5809214e-09
5.419251e-09
5.4175301e-09
5.4002395e-09
6.044414e-09
1.3946189e-08
1.6027217e-07
1.0657703e-06
1.3595264e-06
5.6028998e-05
6.0265405e-05
1.7295832e-05
4.793432e-06
1.0782373e-06
3.9307408e-07
2.3167772e-05
5.0843434e-05
3.4377951e-05
3.9367858e-06
6.0992317e-09
1.9941707e-09
1.8205712e-08
3.4578409e-08
3.3700358e-08
9.1121552e-14
2.2052686e-12
6.6830502e-15
3.1881992e-15
5.7220223e-17
1.403206e-18
1.7533185e-20
2.0816447e-22
2.389949e-24
2.6044358e-26
2.5767871e-28
2.2886939e-30
1.7617271e-32
1.1230442e-34
5.6506186e-37
3.3895354e-39
1.2738309e-40
3.3419877e-39
9.0748691e-37
7.6971735e-35
5.0003257e-33
2.7794725e-31
1.3799498e-29
6.2021516e-28
2.5081294e-26
9.0751165e-25
2.9371195e-23
8.2554729e-22
1.7594318e-20
2.4791966e-19
2.0635402e-18
9.4268279e-18
2.2510844e-17
3.0498579e-17
3.7276833e-40
1.7264228e-40
1.6868437e-41
2.7950447e-43
2.221618e-44
1.5820181e-44
8.6296793e-45
3.3670905e-45
2.718953e-45
8.3181082e-44
2.1319404e-41
3.915142e-39
5.6603367e-37
6.3906666e-35
6.4397398e-33
5.9045332e-31
4.8528388e-29
3.5847389e-27
2.3924827e-25
1.4478029e-23
7.8767151e-22
3.8540542e-20
1.9420759e-18
1.4626122e-16
1.0289523e-14
2.8456924e-13
1.0314292e-10
1.0530473e-08
3.8888703e-08
4.733567e-07
6.8858348e-07
2.0244645e-07
2.3048439e-08
7.7040772e-11
1.0703825e-11
8.209305e-12
2.7246748e-08
1.2016545e-07
1.027285e-07
3.9558132e-08
3.3012744e-08
2.4477665e-08
5.7405907e-09
5.579799e-09
5.3284109e-09
4.6236896e-09
1.5561328e-08
1.6560591e-07
9.8606012e-07
1.3481117e-05
8.8246768e-06
0.0001092898
5.7283054e-05
1.2990951e-06
2.2764539e-06
6.068556e-07
3.5097327e-07
8.0864233e-07
3.6206672e-06
2.6675939e-06
1.2007207e-08
1.5087526e-09
1.069668e-09
2.2534953e-08
3.458425e-08
1.3518912e-08
9.7772248e-15
3.3535812e-14
4.78137e-15
8.2284293e-16
1.366981e-17
2.9496475e-19
3.6672172e-21
4.0972221e-23
6.2816876e-25
7.686317e-27
7.9962768e-29
6.823246e-31
4.5178445e-33
2.1720189e-35
5.9755559e-38
3.5282968e-39
4.8286109e-39
1.7296748e-36
2.2162046e-34
1.575156e-32
8.9481565e-31
4.4155819e-29
1.9579993e-27
7.8781245e-26
2.8693834e-24
9.4655011e-23
2.8152007e-21
7.0983503e-20
1.3366192e-18
1.6839199e-17
1.2934752e-16
5.7153264e-16
1.3737466e-15
1.9746995e-15
1.0387999e-37
4.9333853e-38
5.1485239e-39
8.9672272e-41
9.2063106e-43
1.2384836e-42
7.535042e-43
2.7089252e-43
6.2399186e-44
1.0790237e-43
1.2078444e-41
2.7349471e-39
5.4226288e-37
1.0313497e-34
1.6313821e-32
2.0181343e-30
2.0722837e-28
1.8328418e-26
1.4281117e-24
9.8862679e-23
6.0648966e-21
3.5342197e-19
2.6852171e-17
2.1592911e-15
5.0249715e-14
2.3868129e-12
2.2922507e-10
6.1959758e-07
2.4903827e-05
6.2591385e-05
6.5214193e-05
1.3222626e-05
3.5171632e-07
1.5999304e-08
1.2801291e-10
1.0703825e-11
2.2026227e-08
3.4881794e-07
3.5521759e-07
3.5458697e-07
1.9640748e-07
1.8968984e-08
6.5737464e-09
5.6190864e-09
-5.6227388e-10
2.629121e-08
2.1371544e-07
1.2680227e-06
4.6200595e-05
0.00022740735
0.00027084081
0.0001285855
4.6671769e-05
2.0827137e-07
5.7725732e-08
7.7253792e-08
3.5083203e-07
2.0086746e-08
3.1568929e-08
3.9609422e-09
1.0016092e-09
2.0994607e-10
7.5783575e-10
8.6007783e-09
1.3500094e-08
9.7773813e-15
5.0746907e-15
1.263068e-14
2.4410028e-15
1.1833062e-16
1.9102162e-18
3.7430088e-20
2.0648485e-22
1.0392974e-23
1.4987093e-25
1.8121408e-27
1.670499e-29
1.099647e-31
4.9687762e-34
1.5409485e-36
6.8835326e-38
2.5682224e-38
1.7557595e-36
4.7561632e-34
4.3058927e-32
2.6080039e-30
1.3059432e-28
5.7479005e-27
2.2807409e-25
8.2211942e-24
2.6983378e-22
8.1123065e-21
2.2126768e-19
5.0037879e-18
8.3424427e-17
9.3125081e-16
6.3165329e-15
2.3678906e-14
4.285496e-14
3.4396251e-14
2.5519019e-35
1.2494425e-35
1.4004837e-36
2.6152389e-38
8.7271529e-41
1.5061018e-40
6.3327165e-41
2.1249884e-41
5.3208718e-42
3.4914462e-42
1.0871787e-40
3.4019282e-38
6.2976606e-36
8.9703615e-34
1.0855487e-31
1.11368e-29
9.9070927e-28
7.766145e-26
5.4288227e-24
3.3524128e-22
1.8684561e-20
1.1072792e-18
7.9236519e-17
2.4377373e-15
3.3762637e-13
3.9469646e-11
3.4822585e-09
1.9951816e-05
0.00010296914
0.00010294504
0.0001029716
8.0068815e-05
9.986865e-06
8.4895677e-08
1.185966e-09
5.1733219e-11
1.1090536e-10
7.9835003e-08
3.1938805e-07
3.5521759e-07
3.5147814e-07
2.2912986e-07
1.1526618e-08
1.2979887e-08
1.1411274e-07
4.0582918e-07
1.8309812e-05
0.00011827051
0.00031332001
0.00031184704
0.00030984824
0.00010489267
1.9853469e-05
5.1047976e-10
5.7341767e-08
4.20451e-08
1.2459136e-08
4.8210766e-09
3.7161242e-10
1.2425662e-10
4.5715182e-11
1.9784149e-11
7.629704e-11
4.4836905e-11
2.5745087e-11
5.0746907e-15
4.8059856e-15
3.7222683e-15
6.1066383e-16
8.3792337e-18
2.4645673e-19
2.0860466e-22
-2.0554647e-21
1.2760411e-23
2.1489107e-26
2.372602e-28
2.3072846e-30
2.0211147e-32
1.6776849e-34
2.0494059e-36
1.8042554e-37
6.0433236e-36
4.992722e-34
9.3796895e-32
6.5975211e-30
3.4593293e-28
1.5375781e-26
6.052413e-25
2.1468406e-23
6.9006239e-22
2.0283042e-20
5.5450663e-19
1.3934587e-17
2.8313227e-16
4.0095674e-15
3.5961616e-14
1.89267e-13
5.0860481e-13
7.4393437e-13
2.319565e-13
5.549981e-33
2.8172476e-33
3.4136685e-34
6.8410959e-36
2.6804223e-38
6.7171537e-39
4.2152738e-39
1.711999e-39
3.9656221e-40
1.3178092e-40
3.0204071e-39
1.3027513e-37
1.5150523e-35
2.1261117e-33
2.5395836e-31
2.5913512e-29
2.282854e-27
1.709079e-25
1.0529982e-23
6.373878e-22
3.9085254e-20
2.8694289e-18
7.1999387e-17
1.2398601e-14
2.0268874e-12
2.3108396e-10
1.4374634e-06
3.7005831e-05
0.00010149225
0.00010297203
0.00010294733
9.7563928e-05
1.9525312e-05
2.1497697e-08
1.3444005e-09
5.0373302e-10
4.3563037e-10
4.6250943e-10
5.2581067e-10
1.509668e-07
1.6061232e-07
1.5820649e-07
6.3581298e-08
2.3336123e-07
2.708253e-05
6.2134725e-05
0.00030784786
0.00031306454
0.00031332001
0.00031306454
0.00017452831
5.337768e-05
3.0104037e-10
5.84798e-11
2.8724866e-09
3.0726177e-09
2.060986e-10
3.1569904e-10
5.9523016e-11
1.5029055e-11
1.1973911e-11
9.9949798e-12
8.8850981e-12
4.773722e-12
1.4220815e-12
5.8831586e-15
5.6491119e-15
2.6190254e-15
3.181949e-16
1.2039302e-17
9.4261834e-21
-8.7051135e-21
-9.5298178e-21
2.5468908e-23
1.0112405e-26
2.7000165e-28
3.9241205e-30
6.223677e-32
8.50488e-34
1.6087605e-35
2.5045804e-35
1.2103136e-33
1.2763909e-31
1.3843752e-29
8.020392e-28
3.6936615e-26
1.4676008e-24
5.1812474e-23
1.6374693e-21
4.6448783e-20
1.2074224e-18
2.9678858e-17
6.6199288e-16
1.105537e-14
1.1904478e-13
8.0964492e-13
4.3684913e-12
2.1522784e-11
4.1004004e-11
1.106505e-11
1.0727851e-30
5.680348e-31
7.4846511e-32
1.6143711e-33
7.0053407e-36
1.7640975e-38
2.5211301e-37
1.3314735e-37
3.0213397e-38
1.3842991e-38
1.1228451e-37