/*--------------------------------*- C++ -*----------------------------------*\
  =========                 |
  \\      /  F ield         | OpenFOAM: The Open Source CFD Toolbox
   \\    /   O peration     | Website:  https://openfoam.org
    \\  /    A nd           | Version:  9
     \\/     M anipulation  |
\*---------------------------------------------------------------------------*/
FoamFile
{
    format      ascii;
    class       surfaceScalarField;
    location    "0.96";
    object      alphaPhi0.phase1;
}
// * * * * * * * * * * * * * * * * * * * * * * * * * * * * * * * * * * * * * //

dimensions      [0 3 -1 0 0 0 0];

internalField   nonuniform List<scalar> 
19800
(
-2.5010251e-88
3.7354999e-88
-6.1931821e-87
1.5813083e-87
-1.5161874e-85
6.9085437e-86
-2.5396552e-85
3.0012885e-85
-1.7673191e-85
3.3980899e-85
-4.8384293e-86
1.2896565e-85
-5.6893523e-86
4.405932e-86
-6.5527766e-86
4.5063275e-86
-6.0572655e-85
2.1175195e-85
-1.403867e-82
4.4107844e-83
-4.8616026e-80
1.3595866e-80
-2.1512735e-77
5.5045494e-78
-9.7924811e-75
2.3642833e-75
-4.2530472e-72
9.8213877e-73
-1.7421116e-69
3.8710473e-70
-6.7461191e-67
1.4454816e-67
-2.4797184e-64
5.1322065e-65
-8.6710167e-62
1.7330358e-62
-2.8890024e-59
5.5997296e-60
-9.177749e-57
1.7312299e-57
-2.7788222e-54
5.116777e-55
-8.0079366e-52
1.4507504e-52
-2.19166e-49
3.9279733e-50
-5.6779935e-47
1.0141207e-47
-1.3857596e-44
2.4782299e-45
-3.1660102e-42
5.6823012e-43
-6.7079976e-40
1.209096e-40
-1.3002499e-37
2.3578582e-38
-2.2731918e-35
4.1538381e-36
-3.5354631e-33
6.5122499e-34
-4.8269443e-31
8.9563734e-32
-5.7138795e-29
1.0665624e-29
-5.8007795e-27
1.0875241e-27
-5.0048159e-25
9.4081021e-26
-3.6423478e-23
6.8543943e-24
-2.2197125e-21
4.1818824e-22
-1.1317831e-19
2.1279366e-20
-5.1106233e-18
9.0359629e-19
-1.9300531e-16
3.1958924e-17
-3.0732462e-15
8.38008e-16
-2.7619715e-14
1.9860642e-14
-7.1017158e-13
6.4012343e-13
-1.5926136e-11
1.4411308e-11
-2.9001248e-10
2.8574412e-10
-1.4058319e-08
2.6610218e-09
-7.0228993e-08
-1.0201329e-08
-6.0351437e-08
-2.0167657e-08
-5.4391099e-08
-1.5870785e-08
-2.8216802e-08
-2.4117584e-10
-1.4236636e-08
-2.8951828e-10
-7.0483272e-09
-2.4175919e-09
2.3760961e-09
-1.0602957e-08
1.2072806e-08
-9.6008579e-09
9.2724592e-09
-9.0837824e-09
7.1744902e-10
-1.7960278e-09
1.5950836e-08
-2.1551912e-09
2.5797861e-08
-2.1367963e-09
6.2817938e-08
-7.0388021e-08
3.5882899e-08
-2.0845502e-08
1.195623e-08
5.3396244e-09
8.6133907e-09
2.581555e-09
7.0738387e-09
9.9726418e-10
1.2916741e-08
1.0182918e-09
7.958652e-09
4.6429332e-10
6.5644067e-10
3.8901151e-11
1.8810141e-11
5.3186593e-10
1.5009299e-12
1.7683894e-11
8.200664e-14
1.3654671e-12
6.4405629e-15
7.5713318e-14
9.2274988e-16
2.4392427e-15
5.764203e-17
1.7985321e-16
2.6054362e-18
1.1405472e-17
1.1630019e-19
6.0396395e-19
4.7939521e-21
2.8304256e-20
1.7609135e-22
1.1690576e-21
5.7452576e-24
4.2519881e-23
1.6625496e-25
1.3654232e-24
4.2502311e-27
3.879668e-26
9.5467576e-29
9.7538948e-28
1.8718486e-30
2.1640128e-29
3.1796425e-32
4.2141408e-31
4.6387136e-34
7.1540457e-33
5.7537447e-36
1.0499981e-34
5.9967549e-38
1.3192156e-36
5.1784377e-40
1.4026133e-38
3.6425828e-42
1.2451443e-40
2.0435207e-44
9.0830824e-43
8.9006779e-47
5.3357355e-45
2.9040336e-49
2.4632514e-47
6.7394943e-52
8.6482289e-50
1.0248087e-54
2.2074437e-52
8.8041516e-58
3.8162338e-55
3.0407225e-61
3.9683935e-58
1.6905111e-62
1.8999239e-61
-2.0157664e-63
1.0903228e-64
-8.7551412e-63
3.2144137e-63
-4.5960784e-61
7.7508592e-62
-2.346534e-59
1.0651739e-60
-4.1606682e-58
3.0341804e-60
-3.5060401e-59
-2.4064464e-88
4.5016747e-88
-3.7956235e-86
2.8607883e-86
-8.4839376e-85
9.9497319e-85
-1.8820154e-84
4.4095995e-84
-2.1194642e-84
5.8073252e-84
-1.4862644e-84
4.4942527e-84
-6.848566e-85
2.448287e-84
-8.0653192e-85
1.2557138e-84
-1.170501e-83
8.385238e-84
-1.8062551e-81
1.2620883e-81
-2.6790389e-79
1.7400578e-79
-4.9084905e-77
2.5765878e-77
-1.3712259e-74
5.3416418e-75
-5.1572537e-72
1.6489557e-72
-2.061242e-69
6.0150259e-70
-7.9888836e-67
2.1130681e-67
-2.9494924e-64
6.8602328e-65
-1.0367039e-61
2.3336134e-62
-3.4750581e-59
7.6157506e-60
-1.1132418e-56
2.3909164e-57
-3.4102091e-54
7.2319618e-55
-9.9829168e-52
2.1096817e-52
-2.790523e-49
5.9316991e-50
-7.4294657e-47
1.6045524e-47
-1.8758817e-44
4.1495331e-45
-4.462121e-42
1.016114e-42
-9.9088047e-40
2.3301935e-40
-2.0299666e-37
4.9357821e-38
-3.7849664e-35
9.5074446e-36
-6.3314657e-33
1.6383738e-33
-9.3652977e-31
2.4859008e-31
-1.2082823e-28
3.2729572e-29
-1.3416664e-26
3.7006842e-27
-1.2678994e-24
3.6458078e-25
-1.0122493e-22
3.2275321e-23
-6.7981299e-21
2.3391753e-21
-3.9312113e-19
1.3991498e-19
-1.9342037e-17
6.9289179e-18
-5.540452e-16
2.6650085e-16
-1.0943308e-14
8.2197551e-15
-3.1815063e-13
2.5531491e-13
-8.2305844e-12
6.9007237e-12
-1.738725e-10
1.4811312e-10
-1.3048588e-08
3.7435065e-09
-6.3763943e-08
9.0239779e-09
-5.3956065e-08
-1.0975885e-08
-2.136555e-08
-1.5137237e-08
-2.5833989e-10
-2.4661541e-10
-1.9468629e-10
-3.1084553e-10
-1.8757934e-10
-3.0851056e-10
-1.660414e-09
-3.215236e-10
1.869787e-09
-3.4966174e-10
5.101623e-09
-3.1321812e-10
9.0932139e-10
-1.3610796e-09
2.0533053e-09
-2.0972651e-09
6.5817097e-08
-1.8765165e-08
4.1392267e-07
-1.7185207e-07
5.5834519e-07
-1.6643525e-07
3.2723128e-07
-5.2374173e-08
5.4455073e-08
2.0603217e-08
1.8905477e-08
3.6121109e-08
1.3247631e-08
5.7602044e-09
3.234477e-08
4.9132327e-09
3.1503936e-08
3.8399321e-09
2.9867593e-08
4.213894e-09
3.1289018e-09
6.2366801e-09
3.1171157e-11
4.6655717e-10
2.0670238e-12
2.8101942e-11
1.235878e-13
1.8643503e-12
6.4548979e-15
1.0547184e-13
6.979521e-16
5.9084969e-15
4.0459995e-17
3.4519673e-16
1.4597617e-18
1.6494794e-17
5.2907568e-20
6.767025e-19
1.767878e-21
2.4947422e-20
5.3125794e-23
8.2413176e-22
1.4262468e-24
2.4328967e-23
3.3973175e-26
6.4031869e-25
7.1231099e-28
1.4962954e-26
1.303438e-29
3.0847778e-28
2.0624705e-31
5.5636418e-30
2.7931506e-33
8.6936865e-32
3.2000097e-35
1.1635626e-33
3.0593626e-37
1.3158033e-35
2.4009533e-39
1.2361725e-37
1.5154413e-41
9.4337161e-40
7.4905642e-44
5.6573302e-42
2.7971294e-46
2.9183663e-44
7.5278018e-49
1.1869859e-46
1.3556775e-51
3.5600254e-49
1.437081e-54
7.3983469e-52
6.8564142e-58
9.5626537e-55
5.2652975e-59
6.2455041e-58
-4.3628453e-62
2.8900969e-61
-2.5920293e-61
3.9509855e-61
-2.2730888e-59
1.4666509e-59
-1.525342e-57
3.4744691e-58
-2.9154378e-56
3.5172126e-57
-4.4381546e-56
4.8514877e-57
-9.402483e-57
-1.1214079e-85
5.9113933e-85
-4.0798521e-83
4.5334692e-83
-6.0746803e-82
1.0994924e-81
-1.1277739e-81
3.7482754e-81
-1.2512213e-81
4.410881e-81
-8.4594743e-82
3.1857917e-81
-3.6888063e-82
1.6420869e-81
-4.3047782e-82
8.1945654e-82
-4.9014293e-81
3.981604e-81
-8.0811692e-79
6.0748098e-79
-1.1458001e-76
7.9935496e-77
-1.426763e-74
9.3318752e-75
-1.5719563e-72
9.7771542e-73
-1.5260528e-70
9.2709298e-71
-1.3479782e-68
7.9530725e-69
-1.2921147e-66
5.9790715e-67
-1.8235842e-64
6.335585e-65
-4.4054269e-62
1.2139491e-62
-1.3551575e-59
3.3502317e-60
-4.2896183e-57
1.0311303e-57
-1.3213237e-54
1.8322898e-55
-3.9161721e-52
4.4954047e-53
-1.1144921e-49
1.2731622e-50
-3.0403397e-47
3.6599459e-48
-7.9291108e-45
1.0351382e-45
-1.9664243e-42
2.8336863e-43
-4.6018749e-40
7.4265503e-41
-1.0053979e-37
1.8363157e-38
-2.0237646e-35
4.2109176e-36
-3.6974266e-33
8.7879149e-34
-6.0347313e-31
1.6379061e-31
-8.6577318e-29
2.6803268e-29
-1.0780535e-26
3.78896e-27
-1.1521857e-24
4.4807439e-25
-1.0414814e-22
4.1025223e-23
-7.9207003e-21
3.1369282e-21
-5.3018027e-19
2.002168e-19
-2.8715461e-17
1.0633548e-17
-6.9893072e-16
4.3010305e-16
-1.2117001e-14
1.4399879e-14
-3.8887242e-13
4.7990115e-13
-1.1674939e-11
1.4115467e-11
-2.8542774e-10
3.3021141e-10
-5.1066987e-08
9.6324078e-09
-5.1808356e-08
1.6047383e-08
-3.5938506e-08
-1.2050012e-08
-3.2435874e-10
-1.8912182e-10
-2.6015371e-10
-3.2528586e-10
-1.784729e-10
-4.0491848e-10
-9.8615602e-11
-3.9793287e-10
-9.7435385e-12
-4.2089002e-10
8.3622918e-11
-4.5285456e-10
1.747103e-10
-4.1521153e-10
1.7901024e-09
-4.0202665e-09
1.2649031e-08
-1.2502557e-08
2.8854368e-07
-2.3229976e-08
5.420875e-07
-1.9422788e-07
6.2836784e-07
-2.2214362e-07
7.168329e-07
-1.1207889e-07
7.3414702e-07
3.3860854e-08
2.3591762e-07
1.1014134e-07
3.6751541e-08
9.3088172e-08
2.6316767e-08
1.5207651e-08
3.6298066e-08
1.116556e-08
2.5634722e-08
1.7333665e-08
8.9118493e-09
9.9691355e-09
1.0697529e-10
2.2594255e-09
6.3882412e-12
9.9259282e-11
3.3543706e-13
6.1163294e-12
1.7941478e-14
3.2466965e-13
1.7052562e-15
1.6238233e-14
1.077221e-16
9.3970029e-16
4.0057667e-18
4.6358337e-17
1.3584253e-19
1.8532545e-18
4.3215702e-21
6.5612109e-20
1.2349675e-22
2.0736776e-21
3.1310907e-24
5.8214873e-23
6.9954095e-26
1.4458904e-24
1.3662744e-27
3.1592002e-26
2.3125711e-29
6.0222804e-28
3.3603491e-31
9.9026837e-30
4.1462177e-33
1.3813134e-31
4.2855448e-35
1.6873092e-33
3.6524348e-37
1.8177641e-35
2.519099e-39
1.6294482e-37
1.3721141e-41
1.1941527e-39
5.7250642e-44
7.0030931e-42
1.7528139e-46
2.8658375e-44
3.6708874e-49
8.5011195e-47
4.7072178e-52
1.7228301e-49
2.9579686e-55
2.0907749e-52
4.4429033e-59
1.1474191e-55
-6.3326654e-61
9.8523007e-59
-4.1724629e-60
9.9971473e-60
-4.1688126e-58
5.3218685e-58
-2.8987818e-56
1.7848751e-56
-1.4595316e-54
3.7419685e-55
-2.3090467e-53
3.2439351e-54
-4.4061804e-53
3.6500066e-54
-1.2705842e-53
-8.9469119e-83
3.6739639e-82
-2.6787073e-80
3.8998326e-80
-2.9007145e-79
7.0877173e-79
-4.8214626e-79
1.9791634e-78
-5.327135e-79
2.1867926e-78
-3.5251423e-79
1.5473852e-78
-1.4968354e-79
7.7650818e-79
-1.7393727e-79
3.781553e-79
-1.6737743e-78
1.5297393e-78
-2.8808222e-76
2.4269675e-76
-4.2275808e-74
3.2905603e-74
-5.4297878e-72
3.9364842e-72
-6.1842742e-70
4.2043256e-70
-6.3275779e-68
4.0622903e-68
-5.8641822e-66
3.5758766e-66
-4.9622908e-64
2.8940719e-64
-3.8553675e-62
2.1658576e-62
-2.748961e-60
1.5045651e-60
-1.7758184e-58
9.6244619e-59
-1.0585688e-56
5.2670589e-57
-6.8509592e-55
2.9479064e-55
-6.907017e-53
2.4537461e-53
-1.3653206e-50
3.9589031e-51
-3.5265786e-48
1.0339558e-48
-9.3941247e-46
2.9115251e-46
-2.4396769e-43
3.476277e-44
-6.0742778e-41
5.6231123e-42
-1.433722e-38
1.1751948e-39
-3.1680167e-36
3.0109731e-37
-6.4519536e-34
7.4085664e-35
-1.1889146e-31
1.6489873e-32
-1.9446932e-29
3.230313e-30
-2.7605668e-27
5.4379011e-28
-3.3289653e-25
7.6090008e-26
-3.3745422e-23
8.6667655e-24
-2.8545301e-21
8.103575e-22
-2.0572299e-19
6.1576763e-20
-1.2416069e-17
3.7873362e-18
-3.7998063e-16
1.8738088e-16
-9.256888e-16
6.0686225e-15
0
2.1689953e-13
0
7.1986009e-12
0
1.9519895e-10
-3.1507409e-08
5.2886373e-09
-3.302615e-08
1.4727257e-08
-3.5279996e-10
-2.9455266e-09
-3.1313543e-10
-2.3713667e-10
-2.2819183e-10
-4.2249969e-10
-1.6812811e-10
-5.315419e-10
-5.419281e-11
-6.5140145e-10
6.105691e-11
-6.5104734e-10
1.8700818e-10
-5.8938131e-10
3.9071436e-10
-5.8704231e-10
2.2612748e-08
-1.7880401e-08
5.6890605e-08
-7.046712e-08
1.4181363e-07
-8.1634477e-08
3.1832643e-07
-1.5282776e-07
7.1569216e-07
-1.2270743e-07
7.1398987e-07
-8.2677991e-08
7.7788118e-07
-3.3366801e-09
8.062398e-07
1.1512331e-07
3.3738428e-07
2.1675706e-07
5.3383527e-08
1.6636639e-07
2.380715e-08
3.79324e-08
7.0445435e-09
3.4438752e-08
4.7701612e-09
1.4901491e-08
1.8399113e-10
7.545905e-09
1.0373295e-11
2.6325734e-10
5.6439744e-13
1.4935267e-11
3.0068095e-14
7.9368978e-13
2.8726591e-15
3.8508425e-14
1.936526e-16
2.0329277e-15
7.3421914e-18
1.0333825e-16
2.3454624e-19
4.0421128e-18
6.9295142e-21
1.3545207e-19
1.8419149e-22
4.0266341e-21
4.3215161e-24
1.0581808e-22
8.8758026e-26
2.4460434e-24
1.5836618e-27
4.9449886e-26
2.433042e-29
8.6789751e-28
3.1861278e-31
1.3094327e-29
3.513247e-33
1.6737806e-31
3.2134161e-35
1.8561018e-33
2.3947885e-37
1.7307802e-35
1.4215303e-39
1.249396e-37
6.498883e-42
7.2491441e-40
2.1827703e-44
3.22595e-42
5.0242945e-47
1.0352408e-44
7.0904825e-50
2.2195444e-47
4.8322736e-53
2.7336906e-50
7.0481641e-57
1.3436968e-53
-8.2760653e-60
4.1452107e-56
-9.6120945e-58
1.1382866e-58
-6.2094081e-57
1.0702098e-56
-4.7204348e-55
4.8769278e-55
-2.763088e-53
1.4795467e-53
-1.1092772e-51
2.7252576e-52
-1.4399047e-50
1.9074828e-51
-3.0822442e-50
3.9850419e-52
-1.2710466e-50
-3.6235251e-80
1.6222113e-79
-1.084342e-77
1.9507342e-77
-1.0181635e-76
3.0974673e-76
-1.5858708e-76
7.7587181e-76
-1.7567141e-76
8.2350104e-76
-1.1521637e-76
5.7726346e-76
-4.7944983e-77
2.8488854e-76
-5.5576235e-77
1.3585184e-76
-4.5704619e-76
4.6216136e-76
-8.3314742e-74
7.7454427e-74
-1.2782854e-71
1.0951189e-71
-1.6985142e-69
1.3502773e-69
-1.9913386e-67
1.4791292e-67
-2.0839305e-65
1.4557301e-65
-1.9681134e-63
1.3008915e-63
-1.6894147e-61
1.0641602e-61
-1.3285345e-59
8.0366815e-60
-9.622671e-58
5.6360482e-58
-6.4496511e-56
3.6924215e-56
-4.0420889e-54
2.2798369e-54
-2.3698126e-52
1.3332197e-52
-1.2413235e-50
7.3402242e-51
-5.5203363e-49
3.7406758e-49
-2.5308726e-47
1.8099779e-47
-1.7713421e-45
8.9004959e-46
-1.228925e-43
6.735413e-44
-5.9719544e-42
3.9897121e-42
-6.778568e-40
3.7226498e-40
-1.4820341e-37
8.2865586e-38
-3.4243466e-35
4.8510447e-36
-7.3245996e-33
5.5163473e-34
-1.411962e-30
1.2670781e-31
-2.3935401e-28
2.7250907e-29
-3.4843513e-26
4.9585438e-27
-4.2653389e-24
7.4402972e-25
-4.3123528e-22
9.0133175e-23
-3.6168613e-20
8.6851157e-21
-2.5870725e-18
6.6208234e-19
-1.0249967e-16
3.9303368e-17
-4.6619395e-16
1.5829118e-15
0
5.9490048e-14
0
2.3006154e-12
0
8.0762151e-11
-8.1988609e-09
2.0135629e-09
-8.7167599e-09
0
-1.0396599e-09
-1.0477634e-09
-5.2910295e-10
-7.5213597e-10
-2.6696811e-10
-7.5075056e-10
-1.2356176e-10
-6.7677867e-10
1.8111105e-11
-4.2794076e-10
1.5602454e-10
-5.9458069e-10
4.4294456e-10
-9.0991007e-10
1.1756517e-09
-1.0306848e-09
8.9815754e-08
-5.3389882e-09
1.8654352e-07
-1.4404624e-07
1.1459981e-07
-1.2421355e-07
1.9647544e-08
-2.0489372e-07
3.119108e-08
-7.735103e-08
3.1007787e-08
-1.8577803e-08
3.0540692e-08
-1.8450061e-09
6.0249443e-07
4.8860759e-08
6.6844397e-07
2.10289e-07
4.1205019e-07
4.1326899e-07
3.2263576e-08
2.9065934e-07
7.4353698e-09
6.1186868e-08
3.5135479e-09
2.5021982e-08
2.0197806e-09
1.2830275e-08
4.1884398e-11
1.052811e-09
2.1792713e-12
4.8210215e-11
1.0299133e-13
2.4933327e-12
3.3770113e-15
1.1993519e-13
4.5324589e-16
5.2613457e-15
2.5786624e-17
2.7434009e-16
6.4356253e-19
1.0403771e-17
1.6565154e-20
3.2292002e-19
3.9531199e-22
8.9031348e-21
8.2782239e-24
2.1679549e-22
1.5075082e-25
4.6371583e-24
2.3704262e-27
8.6687624e-26
3.1879019e-29
1.4068381e-27
3.622923e-31
1.965273e-29
3.4271142e-33
2.3378885e-31
2.6515462e-35
2.3375403e-33
1.6397722e-37
1.8645323e-35
7.8053758e-40
1.0766641e-37
2.7158073e-42
4.8057375e-40
6.4169356e-45
1.5555111e-42
9.0258404e-48
3.3251781e-45
5.6475113e-51
3.9498405e-48
4.2223392e-55
1.7588982e-51
-1.3215985e-58
4.4526865e-54
-2.2016275e-56
1.133639e-57
-6.912689e-56
1.3739891e-55
-6.3185323e-54
8.2857603e-54
-4.0366612e-52
3.3515194e-52
-2.0637237e-50
9.176689e-51
-6.7313278e-49
1.4499641e-49
-7.6342749e-48
7.3582291e-49
-1.6962435e-47
-1.4915804e-48
-9.7078286e-48
-9.7559151e-78
5.4556182e-77
-3.2010855e-75
6.8952693e-75
-2.8325003e-74
1.0235762e-73
-4.2506853e-74
2.4147692e-73
-4.7424463e-74
2.4951917e-73
-3.1046246e-74
1.7425562e-73
-1.2623034e-74
8.5086766e-74
-1.460807e-74
3.9632898e-74
-9.8750437e-74
1.0834695e-73
-1.9540818e-71
1.9731899e-71
-3.1792208e-69
2.9571591e-69
-4.4150856e-67
3.8025184e-67
-5.3522404e-65
4.2935061e-65
-5.7537682e-63
4.3254562e-63
-5.5502558e-61
3.93374e-61
-4.8472281e-59
3.2605837e-59
-3.8538256e-57
2.480304e-57
-2.8082923e-55
1.7445209e-55
-1.8868338e-53
1.1428895e-53
-1.1763034e-51
7.0136186e-52
-6.818085e-50
4.0594021e-50
-3.5591421e-48
2.2118808e-48
-1.5904946e-46
1.1240241e-46
-6.7211184e-45
5.5082749e-45
-4.0251569e-43
3.0566223e-43
-3.6678638e-41
2.2500343e-41
-2.109641e-39
1.4937255e-39
-3.9755562e-38
4.8707855e-38
-3.0568621e-37
6.5215097e-37
-2.7870894e-36
4.6578712e-36
-1.6283102e-34
1.9345585e-34
-3.3528485e-32
3.8370855e-32
-7.3115898e-30
1.8840752e-30
-1.390567e-27
2.2323817e-28
-2.235177e-25
3.7841701e-26
-2.9481624e-23
5.7005316e-24
-3.1430112e-21
7.2871746e-22
-2.724385e-19
7.5971165e-20
-1.5784783e-17
5.8495919e-18
-3.4624222e-16
3.1930952e-16
0
1.2248239e-14
0
5.5812312e-13
-2.8576457e-11
2.7258514e-11
-1.4564545e-09
1.6209824e-10
-2.4801333e-09
0
-2.2936125e-09
-2.220064e-10
-7.6449238e-10
-1.2387222e-09
-2.3552331e-10
-2.6176156e-10
-2.6315194e-11
-3.8772856e-10
4.9884971e-11
-5.3196093e-10
3.484829e-10
-8.8061395e-10
8.2939277e-10
-1.4893847e-09
1.1426774e-09
-1.2241442e-09
2.5991032e-08
-1.7706965e-09
1.3445528e-07
-9.0793232e-09
1.8011829e-07
-1.9669479e-07
2.1853908e-07
-2.2691944e-07
2.5335919e-08
-1.5129253e-07
1.7178773e-08
-2.0369807e-08
1.362236e-08
-1.7697054e-09
6.0733713e-08
1.4833102e-09
6.9380003e-07
8.6685912e-08
6.3905186e-07
5.3353659e-07
3.0613864e-07
4.9920989e-07
0
2.7835477e-07
0
3.4739315e-08
1.0902174e-09
7.1019791e-09
0
5.9760579e-10
0
3.8072944e-11
0
2.0974032e-12
4.289946e-15
1.0216913e-13
5.5366595e-16
6.0202542e-15
2.1481546e-17
3.1267065e-16
5.6336873e-19
1.106981e-17
1.4064628e-20
3.2476181e-19
3.1415493e-22
8.2912906e-21
6.0953761e-24
1.8358221e-22
1.0198024e-25
3.5140176e-24
1.4587023e-27
5.7865332e-26
1.7628729e-29
8.1306106e-28
1.7721587e-31
9.6382087e-30
1.4520217e-33
9.4893186e-32
9.4237862e-36
7.5983407e-34
4.6377315e-38
4.7094451e-36
1.6401083e-40
2.1434141e-38
3.8569773e-43
6.9409273e-41
5.1195835e-46
1.4361902e-43
2.5516462e-49
1.5485164e-46
-3.0180614e-54
5.9990281e-50
-6.2857733e-57
1.8731503e-52
-2.0613512e-55
4.4747714e-56
-5.9346956e-55
1.2612466e-54
-6.5663396e-53
9.6737103e-53
-4.8740189e-51
5.0389734e-51
-2.7579814e-49
1.8256054e-49
-1.2530531e-47
4.4654404e-48
-3.358395e-46
5.7805866e-47
-3.4397218e-45
1.4938559e-46
-7.7000677e-45
-1.5965843e-45
-5.8383862e-45
-1.8029676e-75
1.63569e-74
-7.4558832e-73
1.8991325e-72
-6.5206262e-72
2.7276744e-71
-9.6266931e-72
6.2248488e-71
-1.0831702e-71
6.3205841e-71
-7.1448291e-72
4.4159065e-71
-2.7937042e-72
2.1433772e-71
-3.2286507e-72
9.61083e-72
-1.6307122e-71
1.8859803e-71
-3.695196e-69
3.9727062e-69
-6.5506734e-67
6.5202437e-67
-9.6416622e-65
8.8866339e-65
-1.2200789e-62
1.0454797e-62
-1.3556126e-60
1.0851342e-60
-1.340756e-58
1.0084577e-58
-1.1926088e-56
8.4814761e-57
-9.6191728e-55
6.5138769e-55
-7.0682924e-53
4.5989299e-53
-4.7614318e-51
3.0062887e-51
-2.9564493e-49
1.8301427e-49
-1.69163e-47
1.0447425e-47
-8.708466e-46
5.5862016e-46
-3.9191138e-44
2.79234e-44
-1.6407638e-42
1.3421969e-42
-7.9934406e-41
6.8730069e-41
-4.9489926e-39
4.1452386e-39
-2.6085775e-37
2.4714932e-37
-7.5230493e-36
9.8829287e-36
-1.0189604e-34
2.1531909e-34
-6.7428283e-34
2.5820586e-33
-2.8532704e-33
2.009712e-32
-1.6357035e-32
1.2003099e-31
-3.5824906e-31
1.5930291e-30
-3.4746256e-29
1.3048623e-28
-4.6092517e-27
1.7709907e-26
-6.5498656e-25
2.2878995e-24
-1.0810028e-22
2.0516462e-22
-1.4612967e-20
8.6634363e-21
-1.3042797e-18
6.4752427e-19
-5.3891282e-17
4.7582104e-17
0
2.3139512e-15
0
1.2910075e-13
-1.516702e-11
7.0356503e-12
-8.1393694e-11
1.6574292e-11
-5.0460603e-10
9.0764929e-11
-1.0320825e-09
9.9033982e-12
-8.4473567e-11
-1.9183472e-09
-8.178544e-11
-3.0725642e-10
-3.8433662e-11
-4.9337609e-10
8.8700635e-11
-8.6468287e-10
1.1428758e-09
-2.1376677e-09
2.3246832e-09
-4.8729266e-09
1.3286616e-09
-8.9268471e-10
1.2220155e-09
-2.7669899e-09
1.5401776e-08
-2.4943582e-08
1.6416083e-07
-2.0879883e-07
1.9665855e-07
-2.4351953e-07
1.045054e-07
-1.110962e-07
1.2222078e-08
-7.4363522e-09
1.1340487e-08
-1.1883698e-09
1.213645e-08
6.3721456e-10
5.8052041e-07
3.8225815e-08
6.8550266e-07
5.2612081e-07
5.3952764e-07
6.591587e-07
8.4516285e-08
5.3634459e-07
0
8.7522862e-08
0
3.8806566e-09
0
3.264025e-10
0
2.0994579e-11
6.1408378e-16
1.113207e-12
4.3538582e-15
5.5689501e-14
3.4017755e-16
3.6010061e-15
1.1565632e-17
1.615076e-16
2.9687287e-19
5.3552248e-18
6.9259407e-21
1.476479e-19
1.4134532e-22
3.4529189e-21
2.4722966e-24
6.8712153e-23
3.6781087e-26
1.1619468e-24
4.6033961e-28
1.6606743e-26
4.7718164e-30
1.9845595e-28
4.0108034e-32
1.9524811e-30
2.6560565e-34
1.5459837e-32
1.327842e-36
9.5492827e-35
4.7062375e-39
4.3926035e-37
1.067394e-41
1.4097416e-39
1.2538207e-44
2.7881804e-42
3.6703876e-48
2.7029486e-45
-9.5328088e-52
9.2091363e-49
-4.462265e-55
4.2099762e-52
-1.6420739e-54
2.6616797e-54
-4.219772e-54
9.2471114e-54
-5.3963257e-52
8.5101727e-52
-4.7308629e-50
5.4720333e-50
-3.0287626e-48
2.5040272e-48
-1.5542999e-46
8.1346438e-47
-6.2765121e-45
1.7364391e-45
-1.4284875e-43
1.6860078e-44
-1.3337071e-42
-2.6829795e-44
-2.9948435e-42
-1.0086056e-42
-2.8890553e-42
-2.282132e-73
8.8850877e-72
-1.4279436e-70
4.3196729e-70
-1.2800808e-69
6.0933016e-69
-1.8852528e-69
1.3686835e-68
-2.1467496e-69
1.3751883e-68
-1.4545544e-69
9.6481103e-69
-5.7078982e-70
4.7069106e-69
-5.0280781e-70
1.8998452e-69
-1.7481627e-69
1.9210679e-69
-5.2989891e-67
5.852977e-67
-1.0855383e-64
1.1352671e-64
-1.7410199e-62
1.6945221e-62
-2.3339971e-60
2.1120752e-60
-2.7043718e-58
2.2820417e-58
-2.7620053e-56
2.1822199e-56
-2.5179546e-54
1.872901e-54
-2.0659394e-52
1.4556623e-52
-1.536768e-50
1.0338944e-50
-1.0414782e-48
6.7470137e-49
-6.4625893e-47
4.0738452e-47
-3.658951e-45
2.2864787e-45
-1.8537858e-43
1.1936459e-43
-8.3168137e-42
5.8174339e-42
-3.4872107e-40
2.7233995e-40
-1.4996525e-38
1.3140251e-38
-6.3283259e-37
6.7198388e-37
-2.3927404e-35
3.3349509e-35
-7.5807265e-34
1.440237e-33
-1.2322043e-32
4.6931343e-32
-4.1800787e-32
8.2660692e-31
2.3419859e-31
6.9092633e-30
2.4434323e-30
3.5038415e-29
1.6100762e-29
1.78855e-28
2.5919458e-28
2.4808019e-27
3.0481072e-26
3.2172352e-25
1.4750015e-24
1.9236976e-23
2.2526365e-23
3.0776912e-22
2.2669838e-22
6.0527459e-21
-5.3625004e-21
2.848458e-19
-1.5132906e-18
8.7437232e-18
-4.2928073e-17
4.8194666e-16
-6.7289482e-14
3.3272536e-14
-7.3818931e-13
2.5510842e-13
-1.2960369e-12
1.0470889e-11
-4.3202633e-11
8.6682803e-11
-2.2220342e-10
5.677295e-10
-2.7317977e-10
-3.222471e-10
-1.6834181e-10
-4.0970082e-10
-8.1036381e-11
-6.3588227e-10
1.2478939e-10
-2.215438e-09
4.2108242e-09
-7.3317028e-09
9.2744285e-09
-2.2925095e-08
2.7866194e-09
0
4.7467622e-09
-6.4076458e-09
7.2209162e-08
-9.586198e-08
1.7499594e-07
-2.9401036e-07
1.6534364e-07
-2.1648128e-07
8.1153935e-09
-3.1465864e-08
4.7943316e-09
-4.3904586e-09
4.5428735e-09
-9.6966863e-10
4.489894e-09
6.6361224e-10
2.0931239e-07
8.7637683e-09
4.6477393e-07
5.5316151e-07
4.4374766e-07
6.8310465e-07
3.1825219e-07
6.5639946e-07
4.8233271e-09
3.732136e-07
9.0416591e-11
8.1455494e-09
0
3.7947419e-10
0
1.609794e-11
8.2482457e-15
6.8366434e-13
2.0682037e-15
2.9415693e-14
1.292791e-16
1.4947247e-15
3.7245614e-18
5.5500949e-17
8.9156666e-20
1.5961724e-18
1.897568e-21
3.8739581e-20
3.4586578e-23
7.9683755e-22
5.3290391e-25
1.3864536e-23
6.8737018e-27
2.0315749e-25
7.3122305e-29
2.4832666e-27
6.2755756e-31
2.4938028e-29
4.2109142e-33
2.0118959e-31
2.1094144e-35
1.2617235e-33
7.3487627e-38
5.8599428e-36
1.5569119e-40
1.8712636e-38
1.4405505e-43
3.5787911e-41
-8.8015166e-48
3.6707061e-44
-5.8105623e-50
1.3657474e-47
-4.0293639e-53
6.970592e-51
-9.5239283e-54
1.2213367e-52
-2.6994899e-53
5.7531014e-53
-3.7353575e-51
6.1932649e-51
-3.7304848e-49
4.6376256e-49
-2.7506374e-47
2.5679771e-47
-1.5675227e-45
1.0408861e-45
-7.3653416e-44
3.0096602e-44
-2.5925546e-42
5.3911353e-43
-5.4198135e-41
3.0568586e-42
-4.5332836e-40
-4.2873696e-41
-1.0216361e-39
-4.8063379e-40
-1.2123793e-39
-2.5295862e-72
1.2235257e-68
-2.3219315e-68
8.7963384e-68
-2.1834052e-67
1.173054e-66
-3.2740823e-67
2.6258308e-66
-3.7620223e-67
2.6225064e-66
-2.6180419e-67
1.8499744e-66
-1.2541129e-67
9.1034498e-67
-2.6299342e-68
3.3577632e-67
-9.4227089e-68
8.9263125e-68
-5.0432113e-65
5.2315458e-65
-1.3605063e-62
1.4416141e-62
-2.4994113e-60
2.5169998e-60
-3.6333424e-58
3.4180909e-58
-4.4457323e-56
3.8989265e-56
-4.7225307e-54
3.8690867e-54
-4.4355072e-52
3.4055056e-52
-3.7242414e-50
2.6927853e-50
-2.8122124e-48
1.9264894e-48
-1.924687e-46
1.2574325e-46
-1.1976079e-44
7.523163e-45
-6.7484489e-43
4.1434345e-43
-3.383736e-41
2.101103e-41
-1.503907e-39
9.8524803e-40
-6.2003663e-38
4.4178662e-38
-2.4100562e-36
1.9813236e-36
-7.6294904e-35
8.8938716e-35
-1.9295448e-33
3.8342941e-33
-3.9975574e-32
1.7136947e-31
8.2824936e-31
7.8966631e-30
4.8656594e-29
1.8935478e-28
5.127058e-28
1.6981046e-27
2.1645906e-27
7.2511533e-27
7.283222e-27
2.3943266e-26
4.8294531e-26
1.4340066e-25
8.9886707e-24
2.6573519e-23
5.5908616e-22
1.9485935e-21
5.9955721e-21
2.7053239e-20
2.259815e-20
1.2460546e-19
1.0240629e-19
4.1395663e-19
1.7212293e-18
7.3106056e-18
4.3559731e-17
9.2631287e-17
4.3456453e-16
2.0609936e-15
-5.3351234e-16
3.0888735e-13
-3.3261201e-12
1.3490803e-11
-8.898128e-10
9.7215232e-10
-5.9871181e-10
1.4345987e-09
-4.0282377e-10
-1.8856038e-10
-1.8041917e-10
-5.7418134e-10
-1.0618675e-10
-8.083544e-10
-3.7746812e-10
-6.8407798e-09
2.0018372e-08
-3.3345107e-07
5.7307506e-08
-1.209325e-06
1.0676045e-08
-1.5475759e-08
2.2584812e-08
-2.151812e-08
9.9451092e-08
-2.6649407e-07
1.4328689e-07
-3.2244662e-07
3.5622171e-08
-2.8033896e-07
4.3321092e-09
-1.2617365e-08
2.7331807e-09
-2.7501112e-09
2.5013489e-09
-7.6384765e-10
2.312191e-09
8.3250101e-10
1.6575204e-07
1.1380417e-08
2.8722492e-07
6.4535595e-07
2.754425e-07
6.9162487e-07
2.4059768e-07
6.8418353e-07
2.0464696e-08
4.0669442e-07
6.3258647e-12
1.2505442e-08
0
4.1306232e-10
0
1.4082309e-11
2.6432803e-15
4.452706e-13
7.0416663e-16
1.4935458e-14
3.285216e-17
5.5176132e-16
8.1388005e-19
1.5635999e-17
1.7315832e-20
3.6665812e-19
3.2177794e-22
7.3931014e-21
5.0653584e-24
1.2753662e-22
6.6688882e-26
1.8694981e-24
7.2273546e-28
2.3033602e-26
6.2928486e-30
2.3454513e-28
4.2487531e-32
1.9256218e-30
2.1095185e-34
1.2304596e-32
7.0311453e-37
5.8107303e-35
1.2840846e-39
1.8665566e-37
5.1448085e-43
3.7991366e-40
-1.3004024e-45
4.0787014e-43
-1.9020865e-48
3.848618e-46
-1.7184024e-51
2.1409194e-49
-7.778137e-53
4.0107254e-51
-4.0337669e-51
3.2628373e-52
-2.339952e-50
4.0316843e-50
-2.5092158e-48
3.3098926e-48
-2.0774691e-46
2.1039448e-46
-1.3328555e-44
1.0179627e-44
-6.8693177e-43
3.6619192e-43
-2.9675423e-41
9.2644142e-42
-9.1182202e-40
1.2984132e-40
-1.7816443e-38
-5.1344645e-41
-1.3625855e-37
-2.381235e-38
-3.0709719e-37
-1.8623367e-37
-4.3409153e-37
7.3676079e-68
1.7443296e-65
-3.3463148e-66
2.1397946e-65
-3.3097015e-65
1.9940365e-64
-5.0770932e-65
4.4681343e-64
-5.9147589e-65
4.4524498e-64
-4.1675657e-65
3.1628167e-64
-2.1137222e-65
1.5597031e-64
-1.7305607e-66
5.7428422e-65
-3.3788798e-66
6.288439e-66
-1.7598683e-63
1.7101524e-63
-6.5985694e-61
6.9285824e-61
-1.448958e-58
1.4992027e-58
-2.3566644e-56
2.2874644e-56
-3.1151748e-54
2.8243427e-54
-3.4980562e-52
2.9582897e-52
-3.4257838e-50
2.7052579e-50
-2.9771261e-48
2.1990001e-48
-2.3158757e-46
1.6057129e-46
-1.6197453e-44
1.0587352e-44
-1.0235831e-42
6.3437265e-43
-5.8446043e-41
3.4640477e-41
-3.0157574e-39
1.7295945e-39
-1.3957975e-37
7.934056e-38
-5.5576422e-36
3.3358031e-36
-1.7284771e-34
1.297153e-34
-3.8721812e-33
4.8724993e-33
-9.1167916e-32
2.1370474e-31
3.1409792e-30
1.7893328e-29
1.0713692e-27
1.7292094e-27
3.97451e-26
5.11141e-26
2.985871e-25
4.2592335e-25
8.5209392e-25
1.4682328e-24
1.8375604e-24
3.3944223e-24
8.0442313e-24
1.3243134e-23
1.467811e-21
2.2608088e-21
5.7816911e-20
1.0562492e-19
4.6364128e-19
1.0933234e-18
1.4307763e-18
4.5067899e-18
2.8686319e-18
1.1260944e-17
5.722855e-18
2.0358849e-17
1.663747e-17
5.1482519e-17
1.4081569e-15
5.6582665e-16
2.8053021e-13
2.8626924e-14
-1.7723516e-10
4.5278078e-10
-1.0708545e-09
5.0899535e-09
-3.4522144e-10
2.4788935e-09
-1.1935005e-09
0
-4.6843248e-10
-9.0271211e-09
-1.0161042e-10
-1.653738e-09
-7.4593345e-09
-1.215551e-08
3.1442374e-08
-1.1477084e-06
1.437846e-07
-1.3033609e-06
7.4293989e-09
-5.3607139e-07
2.5111506e-08
-6.3148861e-08
1.0247323e-07
-3.2090957e-07
1.1892027e-07
-3.2149817e-07
1.4642636e-08
-1.7522271e-07
2.0625405e-09
-2.9191071e-09
1.5707276e-09
-2.3316476e-09
1.3701779e-09
-5.8357271e-10
1.1746235e-09
1.0089599e-09
7.481279e-08
1.3702243e-08
1.2067286e-07
6.3696866e-07
1.30853e-07
6.6320255e-07
1.132284e-07
6.7273267e-07
6.3571273e-09
2.4612082e-07
0
7.9714201e-09
0
2.3015606e-10
0
6.4275417e-12
4.2105031e-16
1.8232922e-13
1.7261985e-16
5.2793626e-15
5.628624e-18
1.41839e-16
1.1839655e-19
3.0470741e-18
2.1771084e-21
5.7762242e-20
3.4321724e-23
9.5890368e-22
4.5381742e-25
1.3758877e-23
4.9424396e-27
1.6834014e-25
4.3125489e-29
1.7220578e-27
2.8871372e-31
1.4333466e-29
1.3818229e-33
9.3395148e-32
4.0949763e-36
4.5028995e-34
4.5168068e-39
1.5454521e-36
-8.1473761e-42
3.4433763e-39
-3.6326972e-44
5.776538e-42
-6.914993e-47
7.2400013e-45
-5.3343058e-50
6.8742574e-48
-8.7060571e-52
1.0945179e-49
-4.1173511e-50
3.6031977e-51
-1.4101019e-49
2.4932082e-49
-1.531781e-47
2.1332683e-47
-1.3537081e-45
1.4677469e-45
-9.6245359e-44
8.0847569e-44
-5.4732501e-42
3.4430033e-42
-2.5664746e-40
1.094131e-40
-9.9625449e-39
2.3571092e-39
-2.9513617e-37
2.1965395e-38
-5.1733683e-36
-3.3367733e-37
-3.6212921e-35
-9.3452562e-36
-8.0377137e-35
-5.9914738e-35
-1.3087004e-34
1.7665741e-64
1.9825467e-62
-5.0927164e-64
1.0761603e-62
-4.5005048e-63
3.1011871e-62
-7.0822505e-63
6.8187515e-62
-8.4377112e-63
6.8177511e-62
-5.997244e-63
4.8837106e-62
-3.4236981e-63
2.4352934e-62
-1.4667127e-64
9.9841675e-63
-2.143071e-64
5.6614033e-64
-5.8212986e-62
7.3122186e-62
-3.6586696e-59
3.388393e-59
-1.3973203e-56
1.3545946e-56
-3.0624809e-54
2.9808784e-54
-4.6976509e-52
4.3586779e-52
-5.7597335e-50
5.000233e-50
-5.9850141e-48
4.8390621e-48
-5.4181395e-46
4.0765631e-46
-4.3462854e-44
3.0394474e-44
-3.1134747e-42
2.025244e-42
-1.9996002e-40
1.2076906e-40
-1.1522621e-38
6.4530486e-39
-5.9318574e-37
3.0787883e-37
-2.6983079e-35
1.3004236e-35
-1.0531253e-33
4.8195978e-34
-3.2177146e-32
1.5492074e-32
-6.7344708e-31
4.4013422e-31
-8.0395042e-30
1.3089656e-29
1.2065909e-27
7.3375961e-28
1.936744e-25
6.5065919e-26
6.9877086e-24
2.6851043e-24
5.6052827e-23
3.1501282e-23
1.4963746e-22
1.3029731e-22
2.5710303e-22
2.8187451e-22
6.1821471e-22
6.8685395e-22
5.8225899e-20
5.3449785e-20
1.7445886e-18
1.9691744e-18
1.2436029e-17
1.8102983e-17
4.155627e-17
7.8431294e-17
9.0802111e-17
2.0804973e-16
1.450354e-16
5.103996e-16
1.0739032e-16
4.6840939e-16
1.2529184e-16
3.4090047e-16
2.5686524e-14
2.7862807e-15
7.9634646e-11
1.923402e-09
0
6.2353363e-09
-1.7865613e-10
2.4488084e-09