/*--------------------------------*- C++ -*----------------------------------*\
  =========                 |
  \\      /  F ield         | OpenFOAM: The Open Source CFD Toolbox
   \\    /   O peration     | Website:  https://openfoam.org
    \\  /    A nd           | Version:  9
     \\/     M anipulation  |
\*---------------------------------------------------------------------------*/
FoamFile
{
    format      ascii;
    class       volScalarField;
    location    "0.96";
    object      p_rgh;
}
// * * * * * * * * * * * * * * * * * * * * * * * * * * * * * * * * * * * * * //

dimensions      [1 -1 -2 0 0 0 0];

internalField   nonuniform List<scalar> 
10000
(
0
0.012164335
0.02493642
0.0402103
0.058263256
0.079305181
0.10348245
0.13096304
0.16195449
0.19664739
0.23527648
0.27810322
0.32540309
0.3774317
0.4343632
0.49631656
0.56337914
0.63557215
0.71287119
0.79522308
0.8825103
0.97454953
1.0710909
1.1718097
1.2763268
1.3842087
1.4950018
1.6084304
1.724219
1.8421319
1.962065
2.0840689
2.2083845
2.3355118
2.4662463
2.6016013
2.7427595
2.8910489
3.0463019
3.2060995
3.3748387
3.5480004
3.6411737
3.6008295
3.690899
3.6177453
4.6828942
6.0740524
7.1934148
8.5239858
9.751026
10.635386
11.216119
11.482683
11.15262
11.13562
10.950897
10.568953
10.081731
9.309837
8.7367962
8.2702508
8.0980845
7.9965225
8.191225
8.3365746
8.3817969
8.4092017
8.3925988
8.3454279
8.2740217
8.1806628
8.0688689
7.9424154
7.8047472
7.6589754
7.5078383
7.3537746
7.1989322
7.0451276
6.8938884
6.746527
6.6041788
6.4677654
6.3380525
6.2156165
6.1009358
5.9943077
5.8959799
5.8060944
5.7246545
5.6514813
5.586347
5.5291649
5.4801451
5.4386256
5.4051067
5.3794595
5.3611072
5.3472344
-0.0026432579
0.0079902326
0.020149396
0.035204434
0.05314162
0.074123742
0.098237382
0.12570576
0.15669188
0.19140537
0.23007244
0.27293378
0.32026669
0.37229799
0.42919545
0.49111147
0.55815837
0.63037474
0.70774659
0.79021754
0.87766731
0.96990281
1.0666413
1.1674916
1.2720078
1.3796949
1.4899948
1.6023296
1.7161149
1.8307828
1.9457875
2.0606111
2.1747859
2.2879028
2.3995709
2.5092787
2.6162519
2.719316
2.8153592
2.8986617
2.9650813
2.990698
2.8835892
2.6030627
2.6079751
3.1557583
3.8839285
5.2477421
6.674486
8.0497234
9.176578
10.050457
10.59624
10.80337
10.811632
10.575381
10.05137
11.3518
10.271234
8.1521553
7.8780172
7.3998072
7.3544195
7.7160765
8.0586673
8.2308208
8.301117
8.3170764
8.28249
8.228306
8.1557038
8.0660778
7.9604623
7.8410781
7.7107826
7.5722866
7.4280898
7.2805086
7.1316623
6.9834194
6.8373647
6.6948146
6.5569153
6.4245971
6.2986283
6.1795859
6.0679525
5.9640476
5.868084
5.7801669
5.7003099
5.6285041
5.5646572
5.5087804
5.4607199
5.4202572
5.3874985
5.3620888
5.3427197
5.3295319
-0.0093780797
0.00080288213
0.012547527
0.027305282
0.045015936
0.065762292
0.08967458
0.1169288
0.14770582
0.18221397
0.22067462
0.26335946
0.31052333
0.362381
0.41913274
0.48095052
0.54796308
0.62024456
0.69781039
0.78061447
0.86854683
0.96140612
1.0588712
1.1605052
1.2657937
1.3741389
1.4848226
1.5970444
1.7099422
1.8225809
1.9339384
2.0429051
2.1482735
2.2486818
2.34252
2.4277676
2.5017653
2.5610521
2.600058
2.6104705
2.5842756
2.4856024
2.2066988
1.7415434
2.1964627
2.2935636
2.9790933
4.2630175
5.8061536
7.3035094
8.5093638
9.3507862
9.8131582
9.9300329
9.7966143
9.532824
10.914525
10.341168
9.1141329
8.8596011
7.1608963
6.445353
6.866737
7.3084974
7.9377868
8.1695812
8.2583546
8.2573879
8.202603
8.1295335
8.0489329
7.9591152
7.8567274
7.7423302
7.618034
7.4859282
7.3480713
7.2065441
7.0633325
6.9202429
6.7788716
6.6405912
6.5065742
6.3777744
6.2549817
6.1388319
6.0298002
5.9282281
5.8343611
5.7483503
5.6702273
5.6000201
5.5376531
5.4830812
5.4360758
5.3965452
5.3645263
5.3395813
5.3204773
5.308943
-0.019523227
-0.0094729831
0.0019731774
0.016417792
0.033766324
0.054150911
0.077665384
0.10449639
0.13482533
0.16885812
0.20685748
0.2490989
0.29582806
0.34728694
0.40370955
0.46528946
0.53218651
0.60450977
0.68230235
0.76554692
0.8541429
0.9478709
1.0463876
1.1492282
1.2558004
1.3653717
1.4770422
1.5897684
1.702364
1.8134757
1.9215665
2.0248942
2.1214525
2.2088707
2.2842956
2.3442364
2.3842831
2.3989377
2.3809725
2.3206463
2.207482
2.0027402
1.5896143
0.99316982
1.3985804
1.1034629
1.8155001
3.1299106
4.7692949
6.3828882
7.6187892
8.3724229
8.6454406
8.5076892
8.1459077
7.6566919
6.6525587
6.4588043
6.4474169
5.7792486
5.3892663
4.630236
5.7369526
6.7716293
7.5261503
7.9359146
8.1037192
8.1318346
8.0946447
8.0285659
7.9520832
7.8648852
7.7650598
7.65335
7.5319751
7.4030832
7.268613
7.1305175
6.9907377
6.8510466
6.7129862
6.5779233
6.4470292
6.3212718
6.2014145
6.0880757
5.9817122
5.8826657
5.7911726
5.7073703
5.6312958
5.5629522
5.5023181
5.4492605
5.4036312
5.3653291
5.3343248
5.310254
5.2922002
5.2820597
-0.032690953
-0.022697152
-0.011473653
0.002608836
0.019532242
0.039415712
0.062366047
0.088576936
0.11822431
0.15155782
0.18885874
0.23039621
0.27644666
0.3272913
0.38319107
0.44437974
0.51105572
0.58336969
0.66142068
0.74522826
0.83469618
0.92960291
1.0296063
1.1342159
1.2427449
1.3543029
1.4677935
1.5818982
1.6950569
1.8054467
1.9109578
2.0091326
2.0970502
2.1712138
2.2273953
2.2604615
2.264064
2.2303849
2.1502814
2.0130386
1.8052085
1.4908773
0.97691949
0.31906043
0.0026171698
-0.00085577587
0.78175406
2.0949457
3.7400234
5.3670876
6.5119812
7.0950547
7.1769519
6.8657262
6.9942491
6.2351829
5.1288779
5.0602039
3.4413595
2.2770743
0.59979251
2.6375777
3.6775911
5.248958
6.5832754
7.3954272
7.7439399
7.8545366
7.9044839
7.8827943
7.8274533
7.7508273
7.6573617
7.5498896
7.4319032
7.3061802
7.1748984
7.0400969
6.9037278
6.767562
6.633123
6.5017229
6.3744775
6.2523009
6.1359249
6.0259375
5.922777
5.8267421
5.7380703
5.6569068
5.5832915
5.5171778
5.4585664
5.4073606
5.3633834
5.3265688
5.2968296
5.2738383
5.2568094
5.2480264
-0.048780265
-0.038706851
-0.02774366
-0.014049721
0.0023376099
0.021574441
0.04377539
0.069136777
0.097877548
0.13027075
0.16659639
0.20715368
0.25226157
0.30223653
0.35738073
0.4179799
0.48428615
0.55651205
0.63482562
0.71929278
0.8098375
0.90626846
1.0082644
1.1153129
1.2266416
1.341201
1.4576956
1.574518
1.6897116
1.8009581
1.9055414
2.0002515
2.08119
2.1437107
2.1821554
2.1896215
2.1576588
2.0759549
1.932969
1.7171895
1.4148177
0.99722653
0.41509553
-0.26263252
-0.72685332
-0.65166181
0.047161517
1.2777094
2.8260908
4.3318801
5.2469251
5.6347439
5.6076316
5.2719945
4.6631888
4.2476425
2.6504702
0.92467853
-0.28541153
-1.5275294
-1.9923705
-1.870717
2.2091161
4.2593487
5.2396566
6.4964462
7.1309695
7.4832837
7.6610121
7.6989769
7.6719304
7.6118106
7.528453
7.4275499
7.3145983
7.1932043
7.0659707
6.9351785
6.80287
6.6708401
6.5405756
6.4133221
6.2901698
6.1719927
6.0594919
5.9532106
5.8535961
5.7609448
5.6754445
5.5972562
5.5263895
5.4628249
5.4065552
5.3574703
5.3154457
5.2804164
5.2522494
5.2305679
5.2148121
5.2074324
-0.067599575
-0.057331654
-0.046630866
-0.033433539
-0.017715884
0.0006993455
0.021930706
0.046218732
0.073810133
0.10497766
0.14002811
0.17930476
0.2231645
0.27196898
0.32607579
0.38583011
0.45156183
0.52357344
0.60210057
0.68726554
0.77906418
0.87737464
0.98190406
1.0921224
1.2071987
1.3259582
1.4468926
1.5681197
1.6872749
1.8015087
1.9074907
2.0013132
2.078027
2.1319543
2.1560385
2.141566
2.0778564
1.9520095
1.7495717
1.4570224
1.0622178
0.5441465
-0.11048885
-0.80836261
-1.2835488
-1.2545521
-0.72901443
0.2921969
1.6824196
3.0355607
3.7094715
4.016266
4.0222595
3.8615618
3.3784926
1.7957397
0.37372094
-1.5561475
-3.9956084
-4.9920089
-5.075906
-3.8522679
-0.82767128
2.9388932
4.0983506
5.5001782
6.4871352
7.0932315
7.392145
7.4876207
7.4919757
7.4523864
7.3820333
7.2898025
7.1833808
7.0673177
6.9448043
6.8184661
6.690509
6.5628013
6.4368233
6.3138329
6.194888
6.0808456
5.9723897
5.870043
5.7742108
5.6852136
5.6032163
5.5283223
5.4605622
5.3999179
5.3463499
5.2997379
5.2599731
5.2269476
5.2005729
5.1803907
5.1660687
5.1601637
-0.088925443
-0.078213413
-0.067897704
-0.055352055
-0.040478649
-0.02309399
-0.0030435286
0.019935993
0.046092071
0.075722692
0.109175
0.14682944
0.18908817
0.23636628
0.28908439
0.34767133
0.41256041
0.48414758
0.56275125
0.64859091
0.74178484
0.84230795
0.9499194
1.0641029
1.1840001
1.3083437
1.4354183
1.5630892
1.6886185
1.8085066
1.9187617
2.0151167
2.0911416
2.1405964
2.1551331
2.1242515
2.0348947
1.8713461
1.6156242
1.2485921
0.75934779
0.12755114
-0.65974388
-1.4832637
-2.1121113
-2.3880948
-2.2425711
-1.5488341
-0.30928995
1.0724122
1.780335
2.342693
2.5575325
2.5203609
1.7727284
-0.053160984
-1.7564499
-4.8400583
-6.7922668
-7.8679956
-7.6951217
-5.8694341
-3.3251394
1.0970545
3.6649661
4.613757
5.8418079
6.6773059
7.087935
7.2441032
7.2868926
7.2728913
7.2188516
7.1376298
7.0392345
6.9293872
6.8120854
6.6904437
6.5669107
6.4434798
6.3217273
6.202994
6.0883293
5.9785619
5.8743445
5.7762096
5.6844854
5.599472
5.5213025
5.4500911
5.3858323
5.3284777
5.2779527
5.2341474
5.1969671
5.1662749
5.1419314
5.1234419
5.1106532
5.1062137
-0.11260026
-0.10074077
-0.091272106
-0.079619308
-0.065802292
-0.049643501
-0.030989487
-0.0095881709
0.014824091
0.042585903
0.074078342
0.10972096
0.14996654
0.19528944
0.24619166
0.30321079
0.36688949
0.43772756
0.51616125
0.60256707
0.69721761
0.80021576
0.91142119
1.0303827
1.1562757
1.2877786
1.4229899
1.5594226
1.6942963
1.8236833
1.9415475
2.0435406
2.1233715
2.1736298
2.1849056
2.1450351
2.0386614
1.8465458
1.5457588
1.1117044
0.52164779
-0.2525432
-1.237895
-2.3842436
-3.4617573
-4.3062777
-4.8204
-4.5995745
-3.3910583
-1.7228152
-0.43187279
1.5711278
1.546506
1.8153412
-0.012141168
-1.2594897
-3.9737942
-6.5782104
-8.7811344
-9.8498833
-9.4554862
-7.3325052
-4.1091064
0.13506863
3.0142038
4.5000125
5.2077737
6.2377376
6.7526388
6.9730983
7.0598781
7.0752939
7.0400875
6.9717056
6.8824405
6.7794169
6.667611
6.5507342
6.4315918
6.3124104
6.1949218
6.080501
5.9702196
5.8649226
5.7651905
5.6715144
5.5842483
5.5035908
5.4296478
5.3625179
5.3021788
5.2485133
5.201414
5.1607899
5.1264802
5.0984019
5.0763225
5.059757
5.0486183
5.0456431
-0.13724482
-0.12537154
-0.1167455
-0.1061128
-0.093498858
-0.078750822
-0.061739895
-0.042203313
-0.019852084
0.0056780462
0.034804483
0.067989034
0.10573499
0.14859201
0.19716753
0.25211152
0.31407597
0.38369727
0.46159011
0.54832124
0.64434969
0.74995374
0.86517142
0.9897162
1.122844
1.2632427
1.408886
1.5569259
1.7053547
1.8466536
1.976126
2.0883182
2.1768849
2.2340385
2.2496586
2.210321
2.0982983
1.8908192
1.5592355
1.0699941
0.38541942
-0.5464567
-1.7961199
-3.3848158
-5.1126113
-6.8823393
-8.2148127
-8.4743362
-7.0557104
-4.7123416
0.49413722
3.3662408
1.1631805
1.5031603
-0.43494902
-2.0048815
-5.2104846
-7.4484077
-9.5684199
-10.578429
-10.120331
-7.8030745
-3.6553471
0.009430872
2.5100403
3.9912392
4.8011123
5.8790955
6.4392728
6.7016897
6.8267575
6.8687647
6.8512778
6.7954552
6.7150913
6.6186437
6.5120844
6.3997151
6.2846846
6.1696173
6.0563421
5.9462635
5.8404871
5.7397801
5.644755
5.5558267
5.4733566
5.3974597
5.3281603
5.2655091
5.2094836
5.159922
5.1166639
5.0795891
5.0485599
5.0234783
5.0040558
4.9895147
4.9802047
4.9788589
-0.16261707
-0.15222597
-0.1442182
-0.13462362
-0.12333597
-0.11019909
-0.095083796
-0.077704543
-0.057754899
-0.03485202
-0.0085458405
0.021666737
0.056349462
0.096148014
0.14177715
0.19399481
0.25358511
0.32136703
0.39817696
0.48480337
0.58193505
0.69010316
0.80960712
0.9404103
1.0819879
1.2331953
1.3918608
1.5554
1.720082
1.8778741
2.0230788
2.1498437
2.2522506
2.3228373
2.3514565
2.3238265
2.2202833
2.0145778
1.6722705
1.1501392
0.39427889
-0.68099579
-2.215949
-4.2867211
-6.7768033
-9.6427942
-11.822046
-12.2291
-10.620099
-7.2480981
-0.86690873
2.356
2.6228128
0.24296437
-0.62530386
-2.2344017
-4.8841099
-7.0843348
-8.9838998
-9.9748946
-9.5897963
-7.3329688
-2.49454
0.54917777
2.1949213
3.5009078
4.6722622
5.662308
6.1881376
6.4601518
6.6077462
6.6662588
6.661092
6.6145361
6.5408816
6.4494905
6.3470552
6.2383836
6.1266637
6.0153744
5.9060603
5.800153
5.698829
5.6028519
5.5127551
5.4288834
5.3515502
5.2808198
5.2166053
5.158905
5.1076522
5.0626298
5.023667
4.9905373
4.9631336
4.9413914
4.9248827
4.9127362
4.9055883
4.9062258
-0.18950664
-0.18054727
-0.17330151
-0.16484346
-0.15504302
-0.14372179
-0.1307515
-0.11583566
-0.09865373
-0.078808263
-0.055831204
-0.029170684
0.0018159789
0.037865812
0.079789234
0.12846438
0.18485208
0.24998872
0.32494974
0.41078833
0.50849286
0.6189324
0.74277814
0.88032488
1.031334
1.1951721
1.3696083
1.5525245
1.7383905
1.9169799
2.0821877
2.2272705
2.3481377
2.4385925
2.4893295
2.4858907
2.4073482
2.2244736
1.8977432
1.3756965
0.58902313
-0.58392856
-2.3567794
-4.8672087
-8.1010906
-11.829282
-14.716382
-15.306692
-13.552078
-9.1319613
-3.3365129
2.3467821
4.9111276
0.51580701
-0.051318495
-1.0601951
-3.4506557
-6.1509439
-7.3724601
-8.3456323
-8.0099437
-6.2693598
-1.07341
1.7277245
1.811041
3.3649438
4.676781
5.5395205
6.0077665
6.2646845
6.4177223
6.4792467
6.4779743
6.4347402
6.3636846
6.2744227
6.1740956
6.0680377
5.9576043
5.8496374
5.7438376
5.6419092
5.5449701
5.4537913
5.368838
5.2903429
5.2184984
5.1533406
5.0946948
5.0424515
4.9964565
4.9564406
4.922195
4.8934523
4.8701062
4.8521769
4.8389704
4.8294929
4.8248646
4.8278621
-0.21781995
-0.2100141
-0.20365311
-0.19645898
-0.188297
-0.17899191
-0.16842106
-0.15628636
-0.14226093
-0.1259452
-0.10685166
-0.084373722
-0.057794406
-0.026306307
0.010999587
0.055152455
0.10731937
0.1687694
0.24083507
0.32488988
0.42230173
0.53438383
0.66227261
0.80676787
0.9678714
1.1468931
1.3401057
1.5451412
1.7594295
1.9633705
2.1511562
2.3181318
2.4608237
2.5767092
2.6586118
2.6924814
2.6570632
2.5210589
2.2414331
1.7616086
1.0013976
-0.18817219
-2.0683265
-4.8065372
-8.6076998
-12.968587
-16.256827
-17.110053
-15.035973
-10.232459
-3.9205303
2.627035
7.3289837
3.0249685
2.2032983
0.79726589
-1.635206
-2.5678251
-3.7867919
-6.0337503
-5.7869926
-4.4831968
-2.9777226
0.88415269
1.751216
3.5919993
4.7963781
5.4983132
5.8958727
6.134603
6.2667291
6.3159895
6.3079754
6.260249
6.1862247
6.0951361
5.9939184
5.8875205
5.779222
5.6726501
5.5694751
5.4710822
5.3783958
5.292077
5.2124712
5.1396845
5.0737944
5.0146978
4.9621362
4.9158733
4.8756522
4.8411916
4.8121609
4.7882198
4.7692222
4.7556943
4.7461864
4.7397043
4.7379998
4.7437469
-0.2471838
-0.24034913
-0.23493895
-0.22911061
-0.22272439
-0.21562511
-0.2077101
-0.19868046
-0.18822325
-0.17593731
-0.16130709
-0.14369318
-0.12233282
-0.096349518
-0.064717921
-0.026238249
0.020462561
0.076898719
0.14469634
0.2255944
0.32141226
0.43398781
0.56506657
0.71625798
0.88898885
1.0830583
1.2981236
1.5294788
1.7822882
2.0164267
2.2310752
2.4188909
2.5837415
2.728959
2.8506282
2.934715
2.9607237
2.895994
2.6964818
2.3049689
1.6395787
0.54446846
-1.248384
-3.9929456
-7.8754867
-12.497037
-15.908705
-16.841741
-14.500607
-9.5345393
-2.8758486
2.5618459
6.3183132
6.6892784
6.2444636
3.919007
2.1774247
0.075854797
-1.7173965
-3.506778
-3.9165671
-3.2450844
-0.83161113
1.0244189
2.8465378
4.1648714
5.0562924
5.5678017
5.8742888
6.0616228
6.15568
6.1794296
6.1538525
6.0937565
6.0107115
5.9131159
5.8074485
5.6984627
5.5895776
5.4835737
5.3822992
5.2870176
5.1984451
5.1170629
5.0430882
4.9764347
4.9169889
4.8644779
4.8185373
4.7788126
4.7449308
4.7165679
4.6933041
4.6746652
4.6598873
4.6517974
4.6463451
4.6431393
4.6447955
4.653674
-0.27722145
-0.27121591
-0.26676533
-0.2623738
-0.25789844
-0.25318767
-0.2481717
-0.2425729
-0.23609687
-0.22834137
-0.21878385
-0.20678079
-0.19154659
-0.17212223
-0.14736046
-0.11590089
-0.076170206
-0.026395133
0.035387134
0.11131478
0.2036847
0.31490969
0.44742128
0.60368954
0.78619085
0.99729652
1.2378618
1.5065258
1.7966443
2.0743966
2.3190334
2.5227324
2.7064535
2.8845797
3.0535332
3.1984375
3.3024836
3.3288164
3.2367024
2.9751921
2.4740561
1.596269
0.10022661
-2.3077406
-5.8761389
-10.174373
-13.353638
-14.205142
-11.883829
-6.921963
-0.060413524
6.6120339
10.19584
10.184902
9.212839
7.794593
5.5070422
3.0963721
1.4484467
0.37353128
0.80043933
0.464314
1.5156794
2.802757
4.0436186
4.8852987
5.4184292
5.7358782
5.932021
6.044068
6.0838542
6.0692384
6.0157684
5.9350383
5.836643
5.7278149
5.6141224
5.4998728
5.3882647
5.28159
5.1814176
5.088805
5.0042669
4.9280217
4.8600163
4.7999578
4.7474795
4.7021672
4.6634856
4.6309003
4.6039782
4.5822857
4.5653953
4.5531144
4.5459938
4.5408311
4.5391551
4.5394356
4.544986
4.5573808
-0.30751459
-0.30221535
-0.2986756
-0.2957899
-0.2933346
-0.29117947
-0.28929437
-0.28743389
-0.28532835
-0.28259811
-0.27875399
-0.27316605
-0.26502621
-0.25330967
-0.23676275
-0.21388338
-0.18290067
-0.14176823
-0.088162398
-0.019522346
0.066934899
0.17423448
0.30562602
0.46453358
0.65447761
0.88047452
1.1463468
1.4567747
1.8087182
2.1452353
2.4220295
2.621626
2.8140401
3.0268139
3.2523397
3.4734053
3.6604379
3.7876264
3.8187064
3.7178257
3.4404469
2.8909993
1.875406
0.1059769
-2.6859604
-6.229293
-8.9177524
-9.5619832
-7.6504282
-3.0526573
3.2646089
8.9855406
14.944468
12.244262
11.973634
9.3603208
7.030996
5.7517516
4.806126
4.1000883
4.2740766
2.7690424
3.6841121
4.5237015
5.1627326
5.5749794
5.8203477
5.9660343
6.0456349
6.0697482
6.0442348
5.9810164
5.8908324
5.7821668
5.662499
5.5377462
5.4125251
5.2903743
5.1740321
5.0653904
4.9656104
4.8753549
4.7948338
4.7239473
4.6623456
4.6094642
4.5646291
4.5272078
4.4964804
4.4716864
4.4523081
4.437802
4.4276546
4.4215364
4.4195112
4.4205537
4.4235958
4.427948
4.438145
4.4545349
-0.33763098
-0.33291315
-0.33014826
-0.32884909
-0.32850274
-0.32904123
-0.33048057
-0.33262143
-0.33524528
-0.33803324
-0.34054785
-0.34219058
-0.342156
-0.33938722
-0.33255499
-0.32003046
-0.29984613
-0.2696842
-0.22686669
-0.16836982
-0.090897359
0.0091576249
0.13575032
0.29324255
0.48690325
0.72100081
1.0060339
1.3593053
1.8150529
2.2228188
2.5365076
2.6974806
2.8856869
3.1392699
3.426354
3.7225968
4.003941
4.2384323
4.3988867
4.4753784
4.4612382
4.3123952
3.8942738
2.9725543
1.2840681
-0.95463757
-3.2180455
-3.8367647
-2.3613728
0.85139907
5.8384436
11.388722
16.123293
13.764508
13.789212
12.273146
10.219491
8.3558421
8.4420653
6.6164401
5.6127855
5.4471227
5.7280279
5.985698
6.1401847
6.21278
6.2359483
6.2288445
6.1920067
6.1233825
6.0263665
5.9075521
5.7738208
5.6311983
5.485187
5.340294
5.2002359
5.0677886
4.9449629
4.8331624
4.733147
4.6450855
4.5687512
4.5036339
4.4490594
4.4040961
4.3677398
4.3390301
4.3170119
4.3007526
4.2895396
4.2827108
4.2796691
4.2800232
4.2839922
4.2908228
4.2987961
4.3078244
4.3236496
4.3447246
-0.36692771
-0.36266349
-0.36085347
-0.36106617
-0.36284538
-0.36614836
-0.37104073
-0.37739203
-0.38506609
-0.39382971
-0.40331901
-0.41299254
-0.42209198
-0.42958322
-0.43409978
-0.43390647
-0.42685203
-0.41035221
-0.38137401
-0.33642298
-0.27164573
-0.18290334
-0.065807049
0.084252069
0.27275691
0.50678561
0.79062644
1.1334678
1.7367782
2.2773228
2.5665162
2.6668231
2.8749635
3.2058589
3.567499
3.9458688
4.3259404
4.6716328
4.954381
5.209388
5.4421609
5.6877791
5.8445375
5.7454825
5.1020392
3.8398328
2.333457
1.6834685
1.7826201
2.6830819
4.7482072
13.798571
13.132407
14.375926
14.621896
13.513354
11.901127
10.167306
8.9283214
8.200869
7.6429042
7.3300005
7.2263718
7.1074594
6.9518682
6.7903756
6.6441187
6.5007386
6.3513161
6.1902783
6.0188477
5.8400917
5.6580565
5.4768335
5.300314
5.1317909
4.9740085
4.8290895
4.6983649
4.5825621
4.481908
4.3960963
4.3243581
4.2657181
4.2190307
4.1829186
4.1560141
4.1369896
4.1245529
4.1176084
4.1152093
4.1165535
4.1209585
4.1280904
4.1382138
4.1505353
4.1633223
4.1777656
4.2007554
4.2276032
-0.39493189
-0.3910405
-0.39016617
-0.39184822
-0.39573537
-0.40180535
-0.41021663
-0.42092717
-0.43390602
-0.44901954
-0.46601764
-0.48447694
-0.50373622
-0.5228314
-0.54042023
-0.5547077
-0.56339757
-0.56363869
-0.55200699
-0.52450984
-0.4767218
-0.40394226
-0.30155606
-0.16565705
0.0061163897
0.21264526
0.41950692
0.60093547
1.9312037
4.1361455
4.4866537
2.80972
2.763766
3.2284761
3.6763941
4.148378
4.6348742
5.1044804
5.4985788
5.877481
6.3199662
6.8414395
7.4188143
7.8838149
8.0243579
7.7744257
7.2397663
7.085714
5.7163934
7.2266349
17.10777
10.495792
10.990919
13.388763
14.301056
13.914389
12.918937
11.741043
10.769661
10.025026
9.3454606
8.768943
8.3532801
7.9826642
7.6303754
7.3109803
7.0270867
6.762583
6.5075216
6.2570588
6.0107363
5.769687
5.5361645
5.3128918
5.1025721
4.9075643
4.7297647
4.5706164
4.4308618
4.3105545
4.2092775
4.1261644
4.0598041
4.0086366
3.9709638
3.9449314
3.9286639
3.92044
3.9186277
3.9218557
3.9289379
3.9388982
3.95098
3.965077
3.981002
3.9980319
4.0149769
4.0356724
4.0681995
4.102318
-0.42117223
-0.41753313
-0.4175207
-0.42057899
-0.42649223
-0.43528176
-0.44720907
-0.46233529
-0.48074786
-0.50246074
-0.52738858
-0.55528501
-0.58565684
-0.61768366
-0.65011373
-0.68117807
-0.70848848
-0.72894048
-0.73867864
-0.73310216
-0.7071056
-0.65515083
-0.57191566
-0.45279196
-0.29685054
-0.11710208
0.094963305
0.7412263
6.9695716
7.4855026
8.041558
6.2770436
2.9391238
3.2621328
3.7650637
4.3497507
4.9501761
5.4837685
5.9452681
6.3763707
6.8764698
7.4441148
8.0858314
8.8030691
9.6607254
10.160527
10.243493
10.836683
12.724711
15.972499
19.011397
9.1660029
11.229334
13.333278
14.246732
14.201332
13.623472
12.816675
12.024128
11.281507
10.550557
9.8586759
9.2548059
8.7138983
8.2211074
7.7771285
7.3750842
7.0014508
6.6485353
6.3125226
5.9921522
5.687726
5.4006267
5.1327284
4.8859684
4.6621327
4.4625349
4.2879284
4.1384794
4.013611
3.9122064
3.8326532
3.7728833
3.7306154
3.7034612
3.6890254
3.6848889
3.6888234
3.6988325
3.7131869
3.7304325
3.7493638
3.7691585
3.7898975
3.811264
3.8315235
3.8507027
3.8778861
3.9236847
3.968039
-0.44518729
-0.44161099
-0.44236699
-0.44663426
-0.45444282
-0.46583827
-0.48117221
-0.50063133
-0.52444905
-0.55284557
-0.58595634
-0.62377635
-0.66606269
-0.71223679
-0.76126223
-0.81149152
-0.8605294
-0.90505717
-0.94077335
-0.96236056
-0.96385674
-0.93849715
-0.87927118
-0.77894552
-0.62931103
-0.45313881
-0.20627333
1.4301605
6.5979118
7.6706941
7.7643744
7.9898816
3.1541496
3.193479
3.7901237
4.5552029
5.3125864
5.9102365
6.3360047
6.6656036
7.0275314
7.3723663
7.6675993
8.1693299
9.6829872
10.996109
12.491601
13.919234
14.900238
16.322721
12.236756
10.963139
12.483178
14.121629
14.823502
14.840612
14.424609
13.77375
13.035184
12.260198
11.470186
10.702818
9.9912034
9.3376339
8.7375681
8.1879604
7.6813728
7.208845
6.7652654
6.3475541
5.9544555
5.586171
5.2438809
4.9292751
4.6440134
4.389484
4.1666313
3.9757849
3.8165423
3.6876418
3.5871231
3.5125678
3.4611322
3.4296772
3.4150375
3.4141151
3.423928
3.4416517
3.4648552
3.4914513
3.5196394
3.5478267
3.5751868
3.6022956
3.6287147
3.6499312
3.6660874
3.6984186
3.767286
3.8304991
-0.46651356
-0.46277355
-0.46416148
-0.46943822
-0.47895515
-0.49273454
-0.51121996
-0.53476068
-0.5637748
-0.59872754
-0.64003108
-0.6879971
-0.74274532
-0.80408113
-0.87132516
-0.94311474
-1.0171651
-1.0900532
-1.1570489
-1.2120182
-1.2478359
-1.256647
-1.2287319
-1.156769
-1.0348549
-0.93175276
-0.072355697
-0.29966192
0.71517935
2.8152305
3.2572764
2.2392467
2.4968882
2.9355313
3.7128095
4.7492938
5.7574113
6.4334618
6.8153026
6.7765223
6.6047261
6.1519596
5.6961147
6.5509808
12.678514
13.232406
12.950733
14.204613
14.694916
14.152196
12.878798
13.164419
14.490457
15.503286
15.957659
15.892026
15.471354
14.814847
14.026447
13.169839
12.291553
11.43476
10.628358
9.8796368
9.1857518
8.5418328
7.941668
7.3793329
6.8511406
6.3549288
5.8901573
5.4575219
5.0586055
4.6953585
4.3696018
4.082788
3.8357029
3.6283138
3.4596665
3.3278396
3.2299495
3.1625655
3.1218701
3.1037526
3.1041595
3.1191554
3.1450831
3.1785303
3.2165632
3.2566983
3.2967386
3.33454
3.369117
3.401984
3.4328143
3.4504914
3.4493053
3.4760303
3.5857621
3.6838919
-0.48469405
-0.48057364
-0.48236943
-0.48850582
-0.49941788
-0.51523518
-0.53647162
-0.56366232
-0.59743952
-0.63853109
-0.68769689
-0.74566052
-0.81303917
-0.89019474
-0.97701263
-1.0726139
-1.1750753
-1.2810366
-1.3854349
-1.4812294
-1.5598297
-1.612805
-1.6249856
-1.5940144
-1.4905279
-1.3930248
-1.0037888
-0.64723639
0.064011434
0.54030524
1.3333673
2.0165118
2.3764993
2.7404104
3.6947035
5.0168219
6.3203363
7.0948577
7.4053981
6.7254405
5.5831146
2.9838717
4.8816879
16.947367
15.657765
15.134472
12.860236
15.105842
12.758397
13.71227
14.641761
15.591213
16.666606
17.352928
17.562836
17.332117
16.785993
16.008421
15.082998
14.079108
13.06487
12.09223
11.184457
10.344709
9.5654246
8.837671
8.1540197
7.5094717
6.9014085
6.3289342
5.7928241
5.2948875
4.8375299
4.4234581
4.0551362
3.7344459
3.4623252
3.2385112
3.0615657
2.9287325
2.8360719
2.7789078
2.752219
2.7507432
2.7693202
2.803154
2.8478042
2.8992377
2.9539763
3.0091688
3.0622312
3.1102685
3.151325
3.1877633
3.2207023
3.2284482
3.1735616
3.119357
3.2864695
3.474896
-0.49934661
-0.49464834
-0.49658756
-0.50333527
-0.51525669
-0.53265418
-0.5561128
-0.58632684
-0.62415149
-0.67060805
-0.72686536
-0.79418389
-0.87382537
-0.96690676
-1.0741368
-1.1954896
-1.3297356
-1.473918
-1.6228312
-1.768484
-1.9003299
-2.0111928
-2.0743991
-2.0880676
-2.0191039
-1.8778403
-1.6395418
-1.1301908
-0.37122544
0.25666476
0.96123668
1.6869071
2.3427917
2.89757
4.0002027
5.4394937
6.956214
7.9647953
7.5487926
6.0937705
4.0736195
0.49347916
9.3784752
8.7343241
7.8769054
5.0822689
8.5152762
10.815469
12.911548
14.854293
16.473034
17.886353
18.98242
19.547235
19.543375
19.098362
18.345001
17.361625
16.220181
14.989808
13.773906
12.655531
11.641552
10.7208
9.8710373
9.0739562
8.317765
7.5976698
6.9130531
6.2652403
5.6569732
5.0917289
4.5732814
4.1055877
3.6922072
3.3358607
3.0379829
2.798358
2.6149568
2.4840124
2.4002848
2.357533
2.3491546
2.3685087
2.4091671
2.4653156
2.5316864
2.6036582
2.677266
2.7493666
2.8170921
2.8768158
2.9250479
2.9639751
2.999349
3.0015887
2.8645163
2.6079575
2.9633271
3.5129359
-0.51021423
-0.50467222
-0.50646528
-0.51349307
-0.52601849
-0.54445842
-0.56946377
-0.60184971
-0.64268772
-0.69332648
-0.75539172
-0.83077157
-0.9215432
-1.0298242
-1.1575179
-1.3059077
-1.4750201
-1.662822
-1.8643652
-2.0709176
-2.2677348
-2.4576938
-2.5871016
-2.6577323
-2.6445411
-2.4989764
-2.2626828
-1.7589382
-0.79476688
-0.09621288
0.049772056
0.90705973
2.3995898
3.29315
4.4830402
5.9462515
7.5632792
8.6805422
7.2953438
5.46336
11.148197
3.7612025
-3.135462
-2.2707806
1.1356083
4.5894397
8.7583226
11.755336
14.317503
16.618901
18.681609
20.445833
21.656422
22.109362
21.862173
21.149168
20.127147
18.866969
17.435631
15.880234
14.363441
13.075939
11.965789
10.990821
10.097759
9.2527868
8.4360611
7.6450787
6.884808
6.1605565
5.4777041
4.8418441
4.2584369
3.7331748
3.2713148
2.8770476
2.5527313
2.2983554
2.1112841
1.9864447
1.916805
1.8941235
1.9097016
1.9551068
2.0225205
2.1049841
2.1964234
2.2917235
2.3866583
2.4778802
2.5622736
2.6359004
2.6944108
2.7422566
2.7938084
2.8366427
2.7791417
2.8067239
6.9834705
10.835857
-0.51707496
-0.51034641
-0.51172471
-0.5187106
-0.53141613
-0.55030331
-0.57603756
-0.60952537
-0.65202806
-0.70521397
-0.77118811
-0.85253286
-0.95229819
-1.0738917
-1.220852
-1.396421
-1.6027432
-1.8396713
-2.1038591
-2.386916
-2.6746388
-2.9474013
-3.1727603
-3.3278109
-3.3725377
-3.2448524
-2.951559
-2.3808231
-1.4393072
-0.6749969
-1.2609781
-0.20510884
2.3976453
3.3463137
4.8734202
6.4554261
8.1153834
8.9647044
8.5150704
7.6416905
3.6115731
-0.11022215
-1.4714222
-0.74704367
1.6170796
5.0280656
9.3392362
12.963369
15.865508
18.634408
21.299156
23.564986
24.91738
25.16571
24.557798
23.500374
22.167168
20.575264
18.7925
16.773554
14.727388
13.241616
12.087852
11.128837
10.238421
9.3785682
8.5156861
7.6559118
6.8173179
6.0126402
5.250579
4.5391295
3.8852945
3.2968992
2.781707
2.3462447
1.9945418
1.7270607
1.5404431
1.4277457
1.3793412
1.3842611
1.431087
1.5090455
1.6086482
1.721858
1.8419177
1.963416
2.082145
2.194755
2.2984179
2.389945
2.4665318
2.5423248
2.6310293
2.720992
2.7855088
3.884907
10.255646
10.593435
-0.51969859
-0.51140536
-0.51221432
-0.51888715
-0.53137169
-0.55007494
-0.5756302
-0.60898526
-0.65151567
-0.70514209
-0.77242458
-0.85667244
-0.9620438
-1.0935202
-1.2567587
-1.4577335
-1.7018978
-1.9931483
-2.3304405
-2.706779
-3.1067733
-3.5019872
-3.8535508
-4.120599
-4.238719
-4.1176884
-3.7297099
-3.0835595
-2.2419898
-1.3375834
-2.2198097
-1.019868
7.9598387
2.9029792
4.3378449
6.6258264
8.6569049
9.6438997
9.3766304
6.0655188
4.1290726
2.1256218
0.62946252
-0.2529037
0.44024037
4.8185813
10.558094
14.793998
17.869193
21.029595
24.413462
27.382056
28.967472
28.85293
27.568491
26.043109
24.477456
22.567506
20.183667
17.403148
14.433761
12.993044
12.051398
11.140992
10.31579
9.4854928
8.5801174
7.6411765
6.7122521
5.8187242
4.9708935
4.1773994
3.4457723
2.7863751
2.2106845
1.7290981
1.3485502
1.0704415
0.89024644
0.79826907
0.7811219
0.82377677
0.91119488
1.0296985
1.167743
1.3162649
1.4681841
1.6181331
1.762324
1.8987969
2.027204
2.1453891
2.2484403
2.3312289
2.4134352
2.4825062
2.4521464
3.7514831
10.441692
10.510088
-0.51765593
-0.50768353
-0.50790584
-0.51413082
-0.52606846
-0.54400919
-0.56846809
-0.60035072
-0.64102949
-0.69255095
-0.75783553
-0.84087858
-0.94696395
-1.0828523
-1.2568032
-1.4784277
-1.7579896
-2.1048845
-2.5244699
-3.0151291
-3.5614932
-4.1289884
-4.6608378
-5.0851182
-5.3132603
-5.111699
-4.6116214
-3.8601904
-2.985938
-2.1644503
-1.6079195
0.40775476
6.8582605
4.8361004
3.2122891
6.6671928
9.1447026
9.7887028
8.1685205
5.7542288
3.5200675
2.5437276
3.8380773
2.7612416
-0.39758347
3.4690395
11.425001
17.12015
20.046194
23.182994
27.384748
31.749055
34.109246
33.572952
30.697226
28.416703
27.149565
26.104748
23.870881
18.453173
13.760008
13.253853
11.294941
10.874098
10.304018
9.5963089
8.6463649
7.6042872
6.563391
5.5735889
4.634632
3.7511764
2.9321413
2.1900508
1.5429275
1.007553
0.59580401
0.31069691
0.1457839
0.086960218
0.11513876
0.20932977
0.34941754
0.51797838
0.70123992
0.88920629
1.0748912
1.2533705
1.4224533
1.584374
1.7429056
1.8923992
2.0184011
2.1046588
2.148789
2.1645541
2.1392782
2.3771188
9.7084078
10.192414
-0.51042029
-0.49912668
-0.49892137
-0.50468071
-0.51587951
-0.53266437
-0.55525063
-0.58435447
-0.62117473
-0.66772579
-0.72710672
-0.80380088
-0.90406549
-1.0364429
-1.2121299
-1.4452903