/*--------------------------------*- C++ -*----------------------------------*\
  =========                 |
  \\      /  F ield         | OpenFOAM: The Open Source CFD Toolbox
   \\    /   O peration     | Website:  https://openfoam.org
    \\  /    A nd           | Version:  9
     \\/     M anipulation  |
\*---------------------------------------------------------------------------*/
FoamFile
{
    format      ascii;
    class       volVectorField;
    location    "0.96";
    object      U;
}
// * * * * * * * * * * * * * * * * * * * * * * * * * * * * * * * * * * * * * //

dimensions      [0 1 -1 0 0 0 0];

internalField   nonuniform List<vector> 
10000
(
(5.2902389e-05 0.0058307558 0)
(-0.0022252482 0.0059110653 0)
(-0.0033334035 0.0060149251 0)
(-0.0050778883 0.0061324944 0)
(-0.0063001943 0.0062667185 0)
(-0.0078966457 0.0064065834 0)
(-0.009279848 0.0065582303 0)
(-0.010685707 0.0067176046 0)
(-0.012058706 0.0068812515 0)
(-0.013391823 0.0070464213 0)
(-0.014684335 0.0072095859 0)
(-0.01592845 0.0073720118 0)
(-0.017112631 0.007521264 0)
(-0.018249756 0.0076491489 0)
(-0.01935029 0.0077569212 0)
(-0.020426492 0.0078445682 0)
(-0.021483093 0.0079057905 0)
(-0.022597232 0.0079528975 0)
(-0.023782628 0.0080309154 0)
(-0.024991667 0.0081369842 0)
(-0.026321705 0.008274494 0)
(-0.027815058 0.008505047 0)
(-0.029507328 0.0088228781 0)
(-0.031514838 0.0092727733 0)
(-0.033880262 0.0098735298 0)
(-0.036724714 0.010658449 0)
(-0.040272746 0.011666814 0)
(-0.044732599 0.012962202 0)
(-0.05032147 0.014611126 0)
(-0.057296613 0.016685432 0)
(-0.065969017 0.019274395 0)
(-0.076707054 0.022484602 0)
(-0.089941172 0.026439428 0)
(-0.10615893 0.031273527 0)
(-0.12592672 0.037132857 0)
(-0.14993316 0.044199326 0)
(-0.17899951 0.052720119 0)
(-0.2139992 0.063019155 0)
(-0.25608628 0.075486447 0)
(-0.30706331 0.090920502 0)
(-0.36713987 0.1120177 0)
(-0.43616962 0.14084161 0)
(-0.52832762 0.16124075 0)
(-0.65374933 0.12917794 0)
(-0.75717011 0.01819729 0)
(-0.7790562 -0.11816397 0)
(-0.73382612 -0.22339459 0)
(-0.63942803 -0.31529288 0)
(-0.50539264 -0.35786961 0)
(-0.35596741 -0.36166182 0)
(-0.20456572 -0.35817619 0)
(-0.048455332 -0.34257926 0)
(0.11144848 -0.31588665 0)
(0.26852917 -0.28951913 0)
(0.42206779 -0.27250686 0)
(0.57638278 -0.2348303 0)
(0.72688591 -0.20496444 0)
(0.86056014 -0.1955111 0)
(0.9351442 -0.11852645 0)
(0.91429886 -0.0077127762 0)
(0.81949029 0.042672786 0)
(0.71894399 0.031644244 0)
(0.65083689 0.012906843 0)
(0.61548614 -0.0051433247 0)
(0.59381287 -0.018076045 0)
(0.56458262 0.0075394379 0)
(0.52518971 0.058974587 0)
(0.48896926 0.10706054 0)
(0.45749611 0.13639658 0)
(0.42616883 0.14963719 0)
(0.39464311 0.15369835 0)
(0.36402353 0.15187197 0)
(0.33468684 0.14567052 0)
(0.30663293 0.1363085 0)
(0.2798605 0.12481615 0)
(0.25436617 0.11217273 0)
(0.23011222 0.099344209 0)
(0.20706097 0.087129223 0)
(0.1851955 0.076003588 0)
(0.16453093 0.066124856 0)
(0.14508546 0.057433118 0)
(0.12687044 0.049812685 0)
(0.10992873 0.043135282 0)
(0.094277885 0.0372674 0)
(0.079912044 0.032094456 0)
(0.066806346 0.027525046 0)
(0.054939169 0.023487658 0)
(0.04428644 0.019901804 0)
(0.034816807 0.016725008 0)
(0.026469547 0.013878888 0)
(0.01917123 0.011334501 0)
(0.012840867 0.0090483438 0)
(0.0074345904 0.007062755 0)
(0.002946025 0.005366262 0)
(-0.00069944969 0.0039276799 0)
(-0.0035272174 0.0026979789 0)
(-0.0054505428 0.0016667652 0)
(-0.0069948528 0.00082504739 0)
(-0.0085825071 0.0001025116 0)
(-0.007507209 -0.00062575164 0)
(0.00012856749 0.0078114723 0)
(-0.0020957726 0.0079261413 0)
(-0.0031810401 0.0080477399 0)
(-0.0049000676 0.0081674285 0)
(-0.0061085108 0.0083165445 0)
(-0.0076919241 0.0084492538 0)
(-0.009059885 0.0085968354 0)
(-0.010456416 0.0087466952 0)
(-0.011823833 0.0088987649 0)
(-0.013155078 0.0090541615 0)
(-0.014445258 0.0092068486 0)
(-0.015694223 0.0093639144 0)
(-0.016898417 0.0095151703 0)
(-0.0180588 0.0096485408 0)
(-0.019178547 0.0097853176 0)
(-0.020277064 0.009905364 0)
(-0.021348989 0.0100299 0)
(-0.022422524 0.010173543 0)
(-0.023526592 0.01038019 0)
(-0.024656246 0.010669331 0)
(-0.025850496 0.011055773 0)
(-0.02716442 0.011600838 0)
(-0.028647882 0.012331815 0)
(-0.030396746 0.013322459 0)
(-0.032464399 0.014614701 0)
(-0.034949061 0.016271372 0)
(-0.038039969 0.018377167 0)
(-0.041915842 0.021052175 0)
(-0.04679403 0.024424597 0)
(-0.052928815 0.028625471 0)
(-0.060620212 0.033797514 0)
(-0.070217355 0.040097892 0)
(-0.082120386 0.047709227 0)
(-0.096782009 0.056849865 0)
(-0.11471764 0.06777878 0)
(-0.13653342 0.080814532 0)
(-0.16294712 0.09636338 0)
(-0.19470881 0.11491796 0)
(-0.23278177 0.13697557 0)
(-0.27851237 0.1632966 0)
(-0.33202844 0.19732037 0)
(-0.3958521 0.24507536 0)
(-0.48462816 0.29148374 0)
(-0.5989509 0.26910282 0)
(-0.68033632 0.10484017 0)
(-0.68086187 -0.12699387 0)
(-0.63701983 -0.29273664 0)
(-0.56373338 -0.43875795 0)
(-0.45101818 -0.51852182 0)
(-0.31431666 -0.53391543 0)
(-0.16701599 -0.531852 0)
(-0.010102096 -0.52165895 0)
(0.15954438 -0.51113664 0)
(0.33233881 -0.48026839 0)
(0.51348242 -0.47786444 0)
(0.71975134 -0.46561652 0)
(0.9497161 -0.41147644 0)
(1.1400157 -0.31424742 0)
(1.2103744 -0.097598894 0)
(1.1630154 0.12058842 0)
(1.0731369 0.19295434 0)
(0.96650358 0.16272633 0)
(0.85125959 0.088510692 0)
(0.76520165 0.036901737 0)
(0.70064838 0.030470865 0)
(0.62639523 0.07382593 0)
(0.55157637 0.11935754 0)
(0.4952281 0.15330148 0)
(0.45504853 0.17549269 0)
(0.42168767 0.18724744 0)
(0.38942956 0.19022768 0)
(0.35790806 0.18672729 0)
(0.32800864 0.17890069 0)
(0.29979734 0.16814469 0)
(0.27306179 0.15542757 0)
(0.24767217 0.14169692 0)
(0.22352561 0.12788257 0)
(0.20054842 0.1147162 0)
(0.17872369 0.10260422 0)
(0.15808821 0.091655538 0)
(0.13869085 0.081782668 0)
(0.12057621 0.072869982 0)
(0.10378604 0.064799609 0)
(0.088329218 0.057461031 0)
(0.074196206 0.05076281 0)
(0.061358854 0.044632832 0)
(0.049773115 0.039014658 0)
(0.039413606 0.033849545 0)
(0.030227996 0.029095701 0)
(0.022147075 0.024704722 0)
(0.015118018 0.020668278 0)
(0.0091238071 0.016993793 0)
(0.0041582463 0.013682737 0)
(0.00011869743 0.010734642 0)
(-0.003128971 0.0081119497 0)
(-0.0055939819 0.0058107835 0)
(-0.007186599 0.0038351309 0)
(-0.0084563023 0.0021724766 0)
(-0.009868393 0.00072254269 0)
(-0.0083105973 -0.00067593002 0)
(0.00022360551 0.0088418482 0)
(-0.0019706419 0.0089603788 0)
(-0.0030755142 0.009064613 0)
(-0.0047807396 0.0091633342 0)
(-0.005984187 0.009276473 0)
(-0.0075702033 0.0093716471 0)
(-0.0089311049 0.0094724063 0)
(-0.010328573 0.0095685485 0)
(-0.011693312 0.0096601492 0)
(-0.01302474 0.0097477857 0)
(-0.014315224 0.0098338737 0)
(-0.015560303 0.0099123821 0)
(-0.016770022 0.009995691 0)
(-0.017923513 0.010068881 0)
(-0.019039459 0.010154747 0)
(-0.020130657 0.010239929 0)
(-0.021167589 0.010357498 0)
(-0.0222009 0.010503659 0)
(-0.023240465 0.010721966 0)
(-0.02427021 0.01103553 0)
(-0.025340147 0.011468633 0)
(-0.026481797 0.012076134 0)
(-0.027716014 0.012921721 0)
(-0.029145946 0.014082448 0)
(-0.030824434 0.015644174 0)
(-0.032823163 0.017690413 0)
(-0.035305605 0.020350459 0)
(-0.038431065 0.02376677 0)
(-0.042399676 0.028101971 0)
(-0.047445407 0.033535047 0)
(-0.053844251 0.040264614 0)
(-0.061919165 0.048510827 0)
(-0.072040666 0.058519969 0)
(-0.084626782 0.070572825 0)
(-0.10013886 0.084997848 0)
(-0.11909041 0.10219689 0)
(-0.14207998 0.12269084 0)
(-0.16969125 0.14709545 0)
(-0.20256486 0.17592977 0)
(-0.24170917 0.21040231 0)
(-0.28733687 0.2566067 0)
(-0.34403182 0.32400904 0)
(-0.4275187 0.38827725 0)
(-0.52631785 0.351628 0)
(-0.5876475 0.13790003 0)
(-0.6048014 -0.12872556 0)
(-0.59502912 -0.33294552 0)
(-0.53070501 -0.51718366 0)
(-0.42021818 -0.63121895 0)
(-0.28201899 -0.66731101 0)
(-0.11108057 -0.67475453 0)
(0.074590762 -0.67946703 0)
(0.26070258 -0.67490832 0)
(0.43393216 -0.64993869 0)
(0.59823209 -0.6636237 0)
(0.76718058 -0.68925424 0)
(0.96644198 -0.65348518 0)
(1.1730016 -0.48899542 0)
(1.3417381 -0.19137044 0)
(1.452135 0.11965393 0)
(1.4609945 0.29552957 0)
(1.3630048 0.31666366 0)
(1.1956426 0.24349969 0)
(1.0052592 0.1581004 0)
(0.84561552 0.124862 0)
(0.72545164 0.15723496 0)
(0.61949192 0.20203541 0)
(0.52470015 0.2205154 0)
(0.45909624 0.22297455 0)
(0.41659466 0.22605632 0)
(0.38081581 0.22725427 0)
(0.34665006 0.22238262 0)
(0.31503109 0.21244196 0)
(0.28611378 0.19953283 0)
(0.25929765 0.18488737 0)
(0.23413836 0.16940803 0)
(0.2103637 0.15396247 0)
(0.18782326 0.13921893 0)
(0.16649198 0.12552274 0)
(0.14641841 0.11294223 0)
(0.12766189 0.1013924 0)
(0.11026532 0.090782434 0)
(0.094234542 0.081022594 0)
(0.079544401 0.072037918 0)
(0.066160685 0.063762208 0)
(0.054044083 0.056141935 0)
(0.043148068 0.049128208 0)
(0.033433825 0.042685337 0)
(0.024852128 0.036760641 0)
(0.017357154 0.031340549 0)
(0.010909763 0.026402856 0)
(0.0054201728 0.021925995 0)
(0.00083379268 0.017854825 0)
(-0.0028927136 0.014157084 0)
(-0.0058281737 0.010828361 0)
(-0.0079513386 0.0078640508 0)
(-0.0092293224 0.0052935284 0)
(-0.010209886 0.003116003 0)
(-0.011317754 0.0012323605 0)
(-0.0092105981 -0.00046068209 0)
(0.00031035571 0.010532306 0)
(-0.0018712788 0.010673045 0)
(-0.0029825932 0.010779842 0)
(-0.0046900306 0.010882487 0)
(-0.0059034497 0.010978448 0)
(-0.0074903815 0.011066904 0)
(-0.0088544488 0.011144407 0)
(-0.010256339 0.011217406 0)
(-0.011627275 0.011277327 0)
(-0.012959393 0.011326339 0)
(-0.014254993 0.011367906 0)
(-0.015501491 0.0114035 0)
(-0.01670579 0.011428237 0)
(-0.017858642 0.011459024 0)
(-0.018962275 0.011483665 0)
(-0.020025472 0.011529093 0)
(-0.021033154 0.011603009 0)
(-0.022003205 0.011707682 0)
(-0.022938371 0.011900526 0)
(-0.023852042 0.012204275 0)
(-0.024752432 0.012645742 0)
(-0.025656709 0.013298913 0)
(-0.026591091 0.014235755 0)
(-0.027630574 0.015528654 0)
(-0.028826098 0.017311371 0)
(-0.030225834 0.019671896 0)
(-0.031961199 0.022776537 0)
(-0.034176014 0.026793606 0)
(-0.037050226 0.031918905 0)
(-0.040800369 0.038367254 0)
(-0.045681719 0.046374831 0)
(-0.051989838 0.056201617 0)
(-0.060058569 0.068136403 0)
(-0.070260293 0.082503428 0)
(-0.083001407 0.099673083 0)
(-0.098714539 0.12008316 0)
(-0.11789206 0.1442903 0)
(-0.14099275 0.17292088 0)
(-0.16831416 0.20635622 0)
(-0.20042167 0.24622606 0)
(-0.23693153 0.30135547 0)
(-0.27943102 0.38251761 0)
(-0.34048424 0.45566798 0)
(-0.41146498 0.40880339 0)
(-0.45324674 0.18033605 0)
(-0.47821354 -0.099278554 0)
(-0.48287868 -0.36553337 0)
(-0.42496214 -0.60494573 0)
(-0.32434979 -0.76273971 0)
(-0.17599191 -0.841716 0)
(0.021413278 -0.87817582 0)
(0.22514285 -0.89148124 0)
(0.42035034 -0.87228273 0)
(0.59799432 -0.81902337 0)
(0.74569636 -0.80561755 0)
(0.8766072 -0.84781812 0)
(1.020406 -0.84014208 0)
(1.1788301 -0.65883597 0)
(1.3335308 -0.35071405 0)
(1.490774 -0.03948791 0)
(1.6282429 0.25126582 0)
(1.6401381 0.4228955 0)
(1.488865 0.44368035 0)
(1.2473079 0.37733397 0)
(1.0050709 0.31542656 0)
(0.81652631 0.29978547 0)
(0.67141407 0.31861296 0)
(0.55252471 0.31247378 0)
(0.46806879 0.28461195 0)
(0.41299908 0.2681248 0)
(0.3705976 0.26284962 0)
(0.33269123 0.25534193 0)
(0.29885855 0.24242337 0)
(0.26895438 0.22668774 0)
(0.24197423 0.20984291 0)
(0.21713332 0.19265064 0)
(0.19396388 0.17577006 0)
(0.17221881 0.15971225 0)
(0.15182855 0.14471164 0)
(0.1327995 0.1308021 0)
(0.11513883 0.11791956 0)
(0.098831697 0.10600541 0)
(0.083836015 0.095000189 0)
(0.070100408 0.08483567 0)
(0.057581331 0.075450011 0)
(0.04623828 0.066785453 0)
(0.036026642 0.058778866 0)
(0.026911225 0.051379167 0)
(0.018855699 0.044529826 0)
(0.011820523 0.03818446 0)
(0.0057536151 0.03228942 0)
(0.00063116577 0.026816208 0)
(-0.0035551962 0.021778452 0)
(-0.0068613235 0.017177187 0)
(-0.0093768901 0.01302846 0)
(-0.011078224 0.009313702 0)
(-0.011930802 0.0060629387 0)
(-0.012503961 0.0033030921 0)
(-0.013177574 0.00091289217 0)
(-0.010383964 -0.0012414273 0)
(0.00042876939 0.011909035 0)
(-0.0017329589 0.01207034 0)
(-0.0028668836 0.012190312 0)
(-0.0045854131 0.012296644 0)
(-0.0058083238 0.012395177 0)
(-0.0074065623 0.012481161 0)
(-0.00878242 0.012545289 0)
(-0.010194341 0.012596658 0)
(-0.011579038 0.01263162 0)
(-0.012924906 0.012652174 0)
(-0.014224014 0.012654717 0)
(-0.015480367 0.012650331 0)
(-0.016687513 0.012628851 0)
(-0.017833696 0.012612496 0)
(-0.018926327 0.012590072 0)
(-0.019959408 0.012585017 0)
(-0.020928112 0.012612826 0)
(-0.021832703 0.012683725 0)
(-0.022663272 0.012825592 0)
(-0.023435596 0.013092293 0)
(-0.024148704 0.01351708 0)
(-0.024789168 0.01416194 0)
(-0.025380333 0.015115098 0)
(-0.02596127 0.016466519 0)
(-0.026579167 0.018378612 0)
(-0.027263645 0.020951969 0)
(-0.028097925 0.024387859 0)
(-0.02921078 0.028889832 0)
(-0.030757587 0.034691335 0)
(-0.032936277 0.042045791 0)
(-0.035982966 0.051228376 0)
(-0.040171251 0.062533405 0)
(-0.045805545 0.076279941 0)
(-0.053217823 0.092819985 0)
(-0.062760054 0.11254757 0)
(-0.074783144 0.13591417 0)
(-0.089658537 0.16347046 0)
(-0.10773825 0.19579968 0)
(-0.12904969 0.23307682 0)
(-0.15351054 0.2767021 0)
(-0.17988656 0.33631718 0)
(-0.20536807 0.4232016 0)
(-0.23686851 0.50019827 0)
(-0.27999645 0.45363966 0)
(-0.32287017 0.22577045 0)
(-0.35986462 -0.074724505 0)
(-0.35296577 -0.38587766 0)
(-0.30424199 -0.67362998 0)
(-0.21606579 -0.88604322 0)
(-0.050602175 -1.0255558 0)
(0.16105678 -1.0833365 0)
(0.35792565 -1.0877449 0)
(0.52273564 -1.055694 0)
(0.67772983 -0.98843299 0)
(0.82460073 -0.92872866 0)
(0.94067464 -0.95472996 0)
(1.0499362 -0.97181835 0)
(1.1867575 -0.81008456 0)
(1.3420536 -0.49717245 0)
(1.4593488 -0.17191244 0)
(1.5377897 0.16021791 0)
(1.5772032 0.45572162 0)
(1.5005859 0.60632654 0)
(1.2950165 0.60820014 0)
(1.0515736 0.54067327 0)
(0.84736377 0.4838181 0)
(0.68814221 0.45913277 0)
(0.56525562 0.41908311 0)
(0.4742589 0.36067293 0)
(0.40842525 0.32156173 0)
(0.35802634 0.30517879 0)
(0.31599683 0.29186606 0)
(0.28025258 0.27419711 0)
(0.24963632 0.25458599 0)
(0.22267676 0.23491761 0)
(0.19834738 0.21567603 0)
(0.17602213 0.19719264 0)
(0.15534602 0.17974002 0)
(0.13616433 0.16341549 0)
(0.11838706 0.14822447 0)
(0.10192877 0.13410595 0)
(0.086734911 0.12101267 0)
(0.072729363 0.10888161 0)
(0.059859064 0.097626244 0)
(0.048102741 0.087174586 0)
(0.037429399 0.077444284 0)
(0.027814273 0.068365818 0)
(0.01924305 0.059888238 0)
(0.011688655 0.051962184 0)
(0.0051268713 0.044548275 0)
(-0.00045402219 0.037632118 0)
(-0.0050822521 0.031222926 0)
(-0.0087951832 0.02530471 0)
(-0.011637051 0.019873496 0)
(-0.013680676 0.014927662 0)
(-0.014896676 0.010489104 0)
(-0.015267177 0.0065746133 0)
(-0.015358073 0.0032185213 0)
(-0.015513819 0.00028703115 0)
(-0.011908584 -0.0023471919 0)
(0.0005458424 0.01336713 0)
(-0.0016078346 0.013534807 0)
(-0.0027514989 0.013661688 0)
(-0.0044810994 0.013755808 0)
(-0.005722691 0.013854503 0)
(-0.0073366851 0.013918388 0)
(-0.0087361012 0.013959545 0)
(-0.01016533 0.01397834 0)
(-0.01156346 0.013978194 0)
(-0.012924765 0.013956705 0)
(-0.014241931 0.013915918 0)
(-0.015508226 0.01385362 0)
(-0.016719106 0.013780334 0)
(-0.017866855 0.013696678 0)
(-0.018952747 0.013610678 0)
(-0.019958324 0.013535551 0)
(-0.020881661 0.013485657 0)
(-0.021729965 0.013480043 0)
(-0.02246153 0.013540152 0)
(-0.023084417 0.013711317 0)
(-0.02360164 0.014041885 0)
(-0.023974755 0.014599351 0)
(-0.024201391 0.015465431 0)
(-0.024278508 0.016748206 0)
(-0.024255358 0.018615972 0)
(-0.024136185 0.021217658 0)
(-0.023945061 0.024762875 0)
(-0.023792794 0.029501957 0)
(-0.02381007 0.035708427 0)
(-0.024173734 0.043674656 0)
(-0.025100927 0.05371925 0)
(-0.026847687 0.066170146 0)
(-0.029694604 0.081371087 0)
(-0.033941065 0.099691609 0)
(-0.039898886 0.12153643 0)
(-0.047863979 0.1473476 0)
(-0.058110728 0.17763158 0)
(-0.070918777 0.21287746 0)
(-0.086247107 0.25302931 0)
(-0.10352952 0.29861691 0)
(-0.12114994 0.35774405 0)
(-0.13409105 0.44188596 0)
(-0.14280056 0.51931724 0)
(-0.16142535 0.48587285 0)
(-0.19761011 0.28018651 0)
(-0.2402075 -0.035935673 0)
(-0.25147608 -0.39239805 0)
(-0.24210082 -0.71994849 0)
(-0.17178555 -1.0029701 0)
(0.0045231285 -1.2192839 0)
(0.22692433 -1.2849376 0)
(0.42197114 -1.250618 0)
(0.55349142 -1.1827758 0)
(0.65154679 -1.1202062 0)
(0.77490385 -1.0640787 0)
(0.91720454 -1.0762113 0)
(1.0421783 -1.0967549 0)
(1.1535326 -0.95498959 0)
(1.2701404 -0.62788891 0)
(1.3646295 -0.23572149 0)
(1.4100528 0.12952114 0)
(1.4262392 0.47347759 0)
(1.3685824 0.73458978 0)
(1.2014035 0.80570049 0)
(0.99979247 0.7461632 0)
(0.82673357 0.66345229 0)
(0.68183409 0.59985331 0)
(0.56167362 0.52704852 0)
(0.46792021 0.44413302 0)
(0.39546468 0.38515826 0)
(0.33927684 0.3548731 0)
(0.2944605 0.33229242 0)
(0.25800605 0.30798568 0)
(0.22758367 0.28355179 0)
(0.20126 0.26044354 0)
(0.17788592 0.23871237 0)
(0.1567374 0.21830978 0)
(0.13736601 0.19924568 0)
(0.11952461 0.18148511 0)
(0.10302212 0.16496871 0)
(0.087723281 0.14961992 0)
(0.073575139 0.13536196 0)
(0.060491065 0.12209195 0)
(0.048447125 0.10973409 0)
(0.037436166 0.098181941 0)
(0.02743536 0.087365306 0)
(0.018451409 0.077219792 0)
(0.010475337 0.067694014 0)
(0.0034838892 0.058749233 0)
(-0.0025321217 0.050357321 0)
(-0.0075847965 0.042503655 0)
(-0.011702837 0.035169858 0)
(-0.014909686 0.028351426 0)
(-0.017243083 0.022054905 0)
(-0.018754947 0.016295496 0)
(-0.019417318 0.011096565 0)
(-0.01923468 0.0064963225 0)
(-0.018774355 0.0025337866 0)
(-0.018292739 -0.0009782243 0)
(-0.013764005 -0.004051953 0)
(0.00068068374 0.014818906 0)
(-0.0014651985 0.015009694 0)
(-0.0026369145 0.015153278 0)
(-0.0043831799 0.015244198 0)
(-0.005646338 0.015336734 0)
(-0.0072927703 0.015388205 0)
(-0.0087150373 0.015410237 0)
(-0.010165425 0.015399282 0)
(-0.011586098 0.015359187 0)
(-0.012968394 0.015295523 0)
(-0.014304238 0.015205458 0)
(-0.01558771 0.015089917 0)
(-0.016810465 0.014955793 0)
(-0.017963481 0.014803999 0)
(-0.019041406 0.014643054 0)
(-0.020031665 0.014485631 0)
(-0.020922333 0.014339925 0)
(-0.021708607 0.014224232 0)
(-0.022354992 0.01417303 0)
(-0.0228488 0.014199432 0)
(-0.023170309 0.014373061 0)
(-0.023272417 0.014753021 0)
(-0.02313795 0.015429195 0)
(-0.02271582 0.016513 0)
(-0.022013021 0.018162458 0)
(-0.021026578 0.020580034 0)
(-0.019727916 0.02398458 0)
(-0.018180982 0.028682516 0)
(-0.016499878 0.034992521 0)
(-0.014838437 0.043237142 0)
(-0.013398539 0.053797245 0)
(-0.012431861 0.067025713 0)
(-0.012206028 0.083281142 0)
(-0.012992935 0.1029391 0)
(-0.015077498 0.12640868 0)
(-0.018737522 0.15411112 0)
(-0.024220696 0.18648765 0)
(-0.0318221 0.22393182 0)
(-0.041679119 0.26618205 0)
(-0.053213202 0.31281414 0)
(-0.065195555 0.36915457 0)
(-0.073907248 0.44600884 0)
(-0.076166475 0.52124756 0)
(-0.085997555 0.50494178 0)
(-0.12574968 0.32728378 0)
(-0.18310249 0.012778008 0)
(-0.23036858 -0.36612225 0)
(-0.27323682 -0.73401468 0)
(-0.21255993 -1.1179767 0)
(-0.034753571 -1.4282233 0)
(0.19229909 -1.4994112 0)
(0.39506508 -1.4114357 0)
(0.52228386 -1.2788153 0)
(0.59895757 -1.2066738 0)
(0.70517608 -1.1912214 0)
(0.84206169 -1.219573 0)
(0.95941788 -1.2038849 0)
(1.0348463 -1.0455262 0)
(1.1018918 -0.71337169 0)
(1.1737664 -0.29594128 0)
(1.1967752 0.11167502 0)
(1.1793983 0.49134871 0)
(1.1351488 0.82972051 0)
(1.0169127 0.95800221 0)
(0.87756106 0.89690377 0)
(0.75989655 0.81070408 0)
(0.63783728 0.72913934 0)
(0.52588815 0.63108824 0)
(0.4357656 0.52850432 0)
(0.36469478 0.45264069 0)
(0.30912294 0.40721638 0)
(0.26530431 0.37329033 0)
(0.23047154 0.34132735 0)
(0.20179391 0.31166034 0)
(0.17714456 0.28487994 0)
(0.15541486 0.26048691 0)
(0.13588406 0.23804635 0)
(0.11807282 0.2173184 0)
(0.10167797 0.1981503 0)
(0.086476393 0.18037387 0)
(0.072354535 0.16388628 0)
(0.059252365 0.14854554 0)
(0.047119039 0.13423696 0)
(0.035937777 0.12085331 0)
(0.025704654 0.10829096 0)
(0.016429363 0.096483061 0)
(0.0081115313 0.085361286 0)
(0.00075018131 0.074870652 0)
(-0.0056617569 0.064971255 0)
(-0.011123733 0.05563357 0)
(-0.015641382 0.046840025 0)
(-0.01923111 0.038582459 0)
(-0.021902989 0.030862881 0)
(-0.023684097 0.023699648 0)
(-0.024618833 0.017113011 0)
(-0.024674192 0.011132399 0)
(-0.023860311 0.0058162441 0)
(-0.022779995 0.0012214999 0)
(-0.02153915 -0.0029306962 0)
(-0.01598525 -0.0064399797 0)
(0.00083212346 0.016298886 0)
(-0.0013119967 0.016519731 0)
(-0.002508428 0.016676953 0)
(-0.0042871725 0.016774194 0)
(-0.00558037 0.016854782 0)
(-0.007253968 0.01689796 0)
(-0.0087163817 0.016900875 0)
(-0.010204702 0.016869889 0)
(-0.011651259 0.01678848 0)
(-0.013057226 0.016677833 0)
(-0.014419931 0.016534693 0)
(-0.015724049 0.016360413 0)
(-0.016964073 0.016158468 0)
(-0.018130953 0.01593359 0)
(-0.019214016 0.015688129 0)
(-0.020196017 0.015431514 0)
(-0.021068413 0.015171337 0)
(-0.02181162 0.014928796 0)
(-0.022391536 0.014715885 0)
(-0.02277958 0.014557288 0)
(-0.022935119 0.014508142 0)
(-0.022799876 0.014617222 0)
(-0.022320644 0.014983327 0)
(-0.021423582 0.015703406 0)
(-0.020062898 0.016955959 0)
(-0.01819127 0.018941451 0)
(-0.015726539 0.021953288 0)
(-0.012671559 0.026259182 0)
(-0.0091443282 0.032331694 0)
(-0.005259973 0.040545051 0)
(-0.0012061399 0.051290043 0)
(0.0027322367 0.064943604 0)
(0.0062897808 0.081879806 0)
(0.0092210576 0.10246729 0)
(0.011258394 0.12713837 0)
(0.012107105 0.15628241 0)
(0.011489965 0.1903865 0)
(0.009014925 0.22974439 0)
(0.0041912574 0.274017 0)
(-0.0028718344 0.32218107 0)
(-0.011787327 0.3773544 0)
(-0.022409349 0.44954616 0)
(-0.034096663 0.52626795 0)
(-0.056963432 0.52972487 0)
(-0.11357131 0.37889532 0)
(-0.18652058 0.074067488 0)
(-0.28291482 -0.29686145 0)
(-0.34444032 -0.73778083 0)
(-0.27934336 -1.2436375 0)
(-0.11027557 -1.6456388 0)
(0.097061151 -1.7136967 0)
(0.29480571 -1.5826872 0)
(0.43441608 -1.3861269 0)
(0.53663761 -1.3120287 0)
(0.66198168 -1.3161452 0)
(0.78252834 -1.3425532 0)
(0.86765832 -1.2863582 0)
(0.92024059 -1.1024297 0)
(0.93281385 -0.76062079 0)
(0.94133075 -0.31499066 0)
(0.93672302 0.14798487 0)
(0.87351836 0.55403913 0)
(0.81535611 0.89851262 0)
(0.76101493 1.0459122 0)
(0.69764314 0.98563356 0)
(0.62288706 0.91940614 0)
(0.52782895 0.83650304 0)
(0.43896595 0.72183393 0)
(0.36708978 0.60419324 0)
(0.31051498 0.51409484 0)
(0.26461155 0.45500072 0)
(0.2269257 0.41064706 0)
(0.19679364 0.37159226 0)
(0.17179468 0.33709751 0)
(0.15006943 0.30695894 0)
(0.1307892 0.28011771 0)
(0.11337787 0.25581284 0)
(0.09741446 0.23359666 0)
(0.082618698 0.21319743 0)
(0.068812482 0.1943472 0)
(0.055937546 0.176893 0)
(0.043941841 0.16062077 0)
(0.032792575 0.14540377 0)
(0.022485766 0.13111512 0)
(0.013053178 0.11765381 0)
(0.0044988128 0.10493639 0)
(-0.003159409 0.092896764 0)
(-0.0099124819 0.081481425 0)
(-0.015751168 0.07064886 0)
(-0.020659955 0.060372015 0)
(-0.024632861 0.050640591 0)
(-0.027676157 0.041454091 0)
(-0.029788392 0.032826247 0)
(-0.030988142 0.024775398 0)
(-0.031308518 0.017327886 0)
(-0.030701538 0.010523169 0)
(-0.02918292 0.0044577267 0)
(-0.02742212 -0.00082732808 0)
(-0.025292588 -0.00570572 0)
(-0.018622267 -0.0096543681 0)
(0.0010116063 0.017783536 0)
(-0.0011365482 0.018071506 0)
(-0.0023736992 0.018233223 0)
(-0.0041931276 0.018331407 0)
(-0.0055245563 0.018407794 0)
(-0.0072365477 0.018435455 0)
(-0.0087334008 0.018417834 0)
(-0.010264952 0.018357125 0)
(-0.011760221 0.018250027 0)
(-0.013198485 0.018088567 0)
(-0.014590554 0.01788992 0)
(-0.015925559 0.017650476 0)
(-0.01719094 0.017375737 0)
(-0.018378239 0.017069538 0)
(-0.019478149 0.016732334 0)
(-0.020473362 0.016369714 0)
(-0.021339802 0.015981096 0)
(-0.022067959 0.015583257 0)
(-0.022618817 0.0151853 0)
(-0.022937647 0.014797817 0)
(-0.02298174 0.014459819 0)
(-0.022661059 0.014211134 0)
(-0.021912202 0.014134103 0)
(-0.020601983 0.014336099 0)
(-0.01863302 0.014984459 0)
(-0.015882521 0.016268985 0)
(-0.012266551 0.018584806 0)
(-0.0076598482 0.022119427 0)
(-0.0020740967 0.027582978 0)
(0.0042573621 0.035385374 0)
(0.011131991 0.045939384 0)
(0.018276753 0.05964547 0)
(0.025403906 0.076885845 0)
(0.032296036 0.098043611 0)
(0.038694705 0.12353332 0)
(0.044340815 0.15381532 0)
(0.048878382 0.18936193 0)
(0.051708533 0.23061704 0)
(0.052040946 0.27726022 0)
(0.049382689 0.32827803 0)
(0.043232032 0.38638654 0)
(0.029984744 0.46219208 0)
(0.0030301696 0.54894388 0)
(-0.040243359 0.57558931 0)
(-0.10335141 0.44828901 0)
(-0.19677927 0.16712438 0)
(-0.33246767 -0.21291967 0)
(-0.36276808 -0.75764544 0)
(-0.29833969 -1.3684177 0)
(-0.15783157 -1.8458669 0)
(0.0080112373 -1.8992189 0)
(0.18398183 -1.7472451 0)
(0.33024016 -1.5073992 0)
(0.44589489 -1.443155 0)
(0.56513435 -1.4436269 0)
(0.67454547 -1.4312193 0)
(0.73155094 -1.3510496 0)
(0.76030817 -1.1197774 0)
(0.71549507 -0.74665182 0)
(0.67296816 -0.29177175 0)
(0.64964108 0.20323342 0)
(0.56967772 0.64522926 0)
(0.48559055 0.94617892 0)
(0.4566046 1.0693637 0)
(0.4399886 1.0326871 0)
(0.40412853 0.98576962 0)
(0.35485718 0.90480997 0)
(0.30666237 0.78371023 0)
(0.26786326 0.65708433 0)
(0.23748753 0.5580882 0)
(0.20773423 0.4913523 0)
(0.18032605 0.44050536 0)
(0.15769251 0.3964044 0)
(0.1380754 0.35840276 0)
(0.1203835 0.32579558 0)
(0.10427558 0.2970985 0)
(0.089427051 0.27136557 0)
(0.07556417 0.24802165 0)
(0.06252452 0.2266725 0)
(0.05023095 0.20698926 0)
(0.038659925 0.18873556 0)
(0.027776063 0.17167611 0)
(0.017616959 0.1556745 0)
(0.0081888367 0.14057856 0)
(-0.00047232566 0.12629392 0)
(-0.0083229154 0.11272926 0)
(-0.015338767 0.099817158 0)
(-0.0214982 0.087506264 0)
(-0.026773567 0.075761379 0)
(-0.031135342 0.064559009 0)
(-0.034563656 0.053893014 0)
(-0.037047005 0.043767202 0)
(-0.038580645 0.034202199 0)
(-0.039178518 0.025230719 0)
(-0.038855607 0.016878997 0)
(-0.037530958 0.0092034704 0)
(-0.035247 0.0023410311 0)
(-0.032764804 -0.003720621 0)
(-0.029605811 -0.009403953 0)
(-0.021730091 -0.013813333 0)
(0.0012486458 0.019302122 0)
(-0.00092378887 0.019659022 0)
(-0.0022392406 0.019830132 0)
(-0.0040985669 0.019933979 0)
(-0.0054778791 0.02000046 0)
(-0.0072325868 0.020021437 0)
(-0.0087841362 0.019980859 0)
(-0.01035894 0.019885629 0)
(-0.01190039 0.019742796 0)
(-0.013391034 0.019537393 0)
(-0.01482418 0.019276802 0)
(-0.016195951 0.01897013 0)
(-0.017493779 0.018621841 0)
(-0.018713198 0.018226428 0)
(-0.019841694 0.017794429 0)
(-0.020863838 0.01731654 0)
(-0.021760292 0.016800225 0)
(-0.022500665 0.016229372 0)
(-0.023058204 0.01562184 0)
(-0.023375158 0.014974442 0)
(-0.023382249 0.014296397 0)
(-0.02297818 0.013617379 0)
(-0.022039582 0.012990871 0)
(-0.020414203 0.012508849 0)
(-0.017970675 0.012326787 0)
(-0.014428973 0.012659408 0)
(-0.0097089162 0.013827392 0)
(-0.0035013626 0.016212215 0)
(0.0042881544 0.020607885 0)
(0.013257556 0.027502646 0)
(0.023205384 0.037435459 0)
(0.033811463 0.05083616 0)
(0.044778357 0.068041842 0)
(0.055882715 0.089381965 0)
(0.066944514 0.11526588 0)
(0.077688985 0.14621889 0)
(0.087789234 0.1828862 0)
(0.096571165 0.22597313 0)
(0.10300613 0.27538129 0)
(0.10639698 0.33043284 0)
(0.10524122 0.39556771 0)
(0.090995559 0.48413896 0)
(0.053350058 0.5888447 0)
(-0.00034970705 0.63338655 0)
(-0.065716748 0.52868082 0)
(-0.1857121 0.28129161 0)
(-0.28891274 -0.15502818 0)
(-0.28378552 -0.7802908 0)
(-0.23863426 -1.4583977 0)
(-0.15765592 -1.9951328 0)
(-0.042013583 -2.0582536 0)
(0.12475155 -1.9048278 0)
(0.27770632 -1.6434049 0)
(0.36933207 -1.5337582 0)
(0.41912416 -1.5482821 0)
(0.51159261 -1.4963999 0)
(0.53730427 -1.3956864 0)
(0.53017021 -1.0756588 0)
(0.42746051 -0.67216991 0)
(0.36073065 -0.23316418 0)
(0.34207993 0.27031271 0)
(0.26981446 0.74815414 0)
(0.17747858 0.98173948 0)
(0.18276075 1.051109 0)
(0.2071816 1.0581517 0)
(0.18573988 1.0071358 0)
(0.1710527 0.93175992 0)
(0.15978082 0.80851964 0)
(0.16046093 0.6766093 0)
(0.15769467 0.57862376 0)
(0.144316 0.51306134 0)
(0.12905973 0.46038677 0)
(0.11537586 0.41404244 0)
(0.10201727 0.37453333 0)
(0.088998591 0.34074256 0)
(0.076485178 0.31105359 0)
(0.064457971 0.28451157 0)
(0.052853161 0.26049135 0)
(0.041670413 0.23854228 0)
(0.030923932 0.21826786 0)
(0.020645752 0.199391 0)
(0.010889222 0.1816973 0)
(0.0016959219 0.1650264 0)
(-0.0068952934 0.14922583 0)
(-0.014797905 0.13420048 0)
(-0.021976289 0.11985399 0)
(-0.028382223 0.10611991 0)
(-0.033972574 0.092948767 0)
(-0.038702843 0.080313168 0)
(-0.042532199 0.068196945 0)
(-0.045428542 0.05659084 0)
(-0.047366802 0.045506756 0)
(-0.048321657 0.034980504 0)
(-0.048303393 0.0250464 0)
(-0.047311818 0.015736336 0)
(-0.045221933 0.0071388099 0)
(-0.042135183 -0.00059538071 0)
(-0.038874343 -0.0075405051 0)
(-0.034545713 -0.014107648 0)
(-0.025401028 -0.018996517 0)
(0.0015188885 0.020888641 0)
(-0.00068449477 0.021274053 0)
(-0.0020899585 0.021477724 0)
(-0.0040074164 0.02158547 0)
(-0.0054384209 0.021648927 0)
(-0.0072440652 0.021660016 0)
(-0.008858693 0.021596863 0)
(-0.010488963 0.021469212 0)
(-0.012088086 0.021280568 0)
(-0.013636165 0.021031724 0)
(-0.015121523 0.020711161 0)
(-0.016534784 0.02033363 0)
(-0.01787879 0.019908352 0)
(-0.019138756 0.019422171 0)
(-0.020309054 0.018892545 0)
(-0.021375498 0.018299665 0)
(-0.022322359 0.017644699 0)
(-0.023128309 0.016910853 0)
(-0.023741183 0.016084196 0)
(-0.024118613 0.015163375 0)
(-0.024183912 0.014121262 0)
(-0.023803493 0.012961082 0)
(-0.022846077 0.011696547 0)
(-0.021088831 0.010376451 0)
(-0.01830552 0.0091388278 0)
(-0.014207732 0.0081903152 0)
(-0.0085283686 0.0077596526 0)
(-0.00069023176 0.008512556 0)
(0.0094066203 0.011196884 0)
(0.021264755 0.016658923 0)
(0.034618438 0.025552753 0)
(0.049005593 0.038297448 0)
(0.064025423 0.055127548 0)
(0.079506427 0.076265768 0)
(0.095357348 0.10210703 0)
(0.11154175 0.13322855 0)
(0.12786611 0.17059045 0)
(0.1437084 0.21500633 0)
(0.15787213 0.26679049 0)
(0.16970257 0.32626155 0)
(0.17652686 0.40154592 0)
(0.1670488 0.50830809 0)
(0.13179547 0.63200511 0)
(0.090727524 0.68933029 0)
(0.028318012 0.61479676 0)
(-0.093922025 0.37625257 0)
(-0.12616576 -0.12501295 0)
(-0.109425 -0.78598817 0)
(-0.091213173 -1.4870135 0)
(-0.088796666 -2.059064 0)
(-0.04203155 -2.1917265 0)
(0.1023718 -2.0572669 0)
(0.24337393 -1.7790634 0)
(0.32415308 -1.5878163 0)