/*--------------------------------*- C++ -*----------------------------------*\
  =========                 |
  \\      /  F ield         | OpenFOAM: The Open Source CFD Toolbox
   \\    /   O peration     | Website:  https://openfoam.org
    \\  /    A nd           | Version:  9
     \\/     M anipulation  |
\*---------------------------------------------------------------------------*/
FoamFile
{
    format      ascii;
    class       surfaceScalarField;
    location    "0.32";
    object      alphaPhi0.phase1;
}
// * * * * * * * * * * * * * * * * * * * * * * * * * * * * * * * * * * * * * //

dimensions      [0 3 -1 0 0 0 0];

internalField   nonuniform List<scalar> 
19800
(
8.194407e-102
-5.0535446e-101
1.5675427e-101
-5.7070835e-101
6.3458829e-100
-4.2386793e-100
5.5303707e-98
-3.0994225e-98
4.1534399e-96
-1.9877946e-96
2.6671909e-94
-1.0934147e-94
1.5293209e-92
-5.3085148e-93
8.1607988e-91
-2.3228312e-91
4.613437e-89
-1.080641e-89
3.5306539e-87
-7.2891703e-88
4.6538693e-85
-7.9603687e-86
1.8668857e-82
-2.0501223e-83
4.7785641e-80
-4.6987544e-81
1.0250196e-78
-9.9213589e-80
6.2003609e-78
-6.0368245e-79
2.0733343e-77
-2.0646e-78
4.8505318e-77
-4.3886506e-78
1.3593321e-76
-1.362228e-77
1.4934118e-76
-1.5073414e-77
1.5581673e-76
-1.4243888e-77
1.6127406e-76
-1.2668118e-77
1.6295928e-76
-1.0417152e-77
1.6272586e-76
-7.6918278e-78
8.5776934e-75
-1.3613133e-76
8.4458962e-73
-5.711046e-75
7.1283084e-71
1.3372645e-73
7.5291487e-69
1.0047979e-70
9.7379827e-67
2.3001596e-68
1.873294e-64
6.2882369e-66
1.0437366e-61
4.6621924e-63
3.616925e-60
2.3398519e-61
1.2930032e-59
1.0611152e-60
1.4826451e-58
1.4577987e-59
6.6972351e-58
8.0625619e-59
7.6888778e-57
1.0425652e-57
2.1918613e-55
3.5316561e-56
6.256455e-54
1.2323818e-54
1.6185454e-52
3.9152065e-53
3.7467254e-51
1.1184407e-51
7.6381434e-50
2.8293795e-50
1.3397781e-48
6.1946066e-49
1.9830209e-47
1.1511174e-47
2.469248e-46
1.8080479e-46
2.5757298e-45
2.392039e-45
2.1554047e-44
2.5617311e-44
1.3744502e-43
2.1127034e-43
6.6982225e-43
1.3496418e-42
2.4817731e-42
6.777549e-42
6.3472588e-42
2.5288121e-41
7.462497e-42
6.6235548e-41
3.6191326e-42
6.7909868e-41
-8.2335285e-44
2.6979914e-41
-1.7864704e-43
7.1929662e-42
-5.4626696e-44
1.3819865e-42
-9.0782941e-45
1.953149e-43
-8.1670022e-46
1.9135522e-44
-3.5569781e-47
1.1260802e-45
-6.8192741e-49
3.4228708e-47
-5.3666081e-51
4.794947e-49
-2.6887226e-53
2.8505254e-51
-2.7142196e-56
1.1035927e-53
-1.9311024e-59
8.7608788e-57
-9.3800013e-61
5.1875984e-60
-3.6908784e-60
3.9070834e-61
-1.2128871e-59
1.2512856e-60
-2.3181867e-59
4.3816576e-60
-2.4686561e-59
5.3251208e-60
-1.1095845e-59
4.1101258e-60
-1.0019151e-60
1.0308603e-60
-4.3084781e-62
6.7305159e-62
-8.8507667e-65
2.2402812e-63
-1.1370736e-66
3.5359019e-66
-1.2815966e-68
3.3717883e-68
-1.016632e-70
2.5071619e-70
-8.0552895e-73
9.0368145e-73
-9.8883432e-75
-1.0836943e-75
-3.7488342e-75
-1.2709951e-76
-1.9009314e-75
-1.0541271e-76
-1.0349427e-75
-7.9834512e-77
-7.8990386e-76
-6.1003561e-77
-5.9878552e-76
-5.8438139e-77
-3.5448119e-76
-4.8370588e-77
-1.1685649e-76
-2.8192306e-77
-5.1302776e-77
-1.0016839e-77
-1.7986687e-77
-4.9097871e-78
-4.8984039e-78
-1.7672364e-78
-1.0608073e-78
-5.0259172e-79
-6.0154463e-80
-1.0999577e-79
-7.021994e-82
-6.4226384e-81
-7.9329419e-84
-1.0751254e-82
-7.9675556e-86
-1.8887612e-84
-6.054001e-88
-2.2919394e-86
-3.643802e-90
-1.9873124e-88
-1.9031106e-92
-1.3481715e-90
-1.0213519e-94
-7.9576716e-93
-6.3265476e-97
-4.8813115e-95
-4.080201e-99
-3.5295858e-97
-3.960475e-101
-3.0834852e-99
-1.3933e-101
-1.4697213e-100
-1.204162e-100
3.2044544e-101
-9.8268155e-101
3.9037675e-99
-4.4606269e-99
4.1578338e-97
-3.9305088e-97
3.6365617e-95
-3.0155586e-95
2.6863742e-93
-2.1766737e-93
1.6589641e-91
-1.292607e-91
8.7491116e-90
-6.37266e-90
3.9424363e-88
-2.4670282e-88
1.852728e-86
-7.6777175e-87
1.3690122e-84
-4.7944156e-85
1.4282501e-82
-4.5706909e-83
5.6749125e-81
-1.6849018e-81
8.8253459e-80
-1.7476681e-80
1.2032184e-78
-1.6678966e-79
7.2695881e-78
-9.2121653e-79
3.2254412e-77
-5.4017016e-78
6.290396e-77
-9.0083646e-78
1.7795435e-76
-1.5875111e-77
9.4410051e-76
-1.397378e-76
2.3771603e-75
-4.5091057e-76
2.4307994e-75
-4.0894908e-76
6.7808069e-76
-1.3529082e-76
2.5336911e-76
-1.1568263e-77
9.249157e-75
-4.8744762e-77
7.9058559e-73
1.0237343e-74
9.7487491e-73
2.853071e-74
5.982885e-72
2.0529609e-73
3.7958274e-69
1.6351124e-70
4.7779785e-66
2.6718335e-67
1.5389017e-61
1.4224663e-62
3.7208778e-60
3.524375e-61
1.7412949e-59
2.3101005e-60
1.5236716e-56
3.8038752e-57
1.2207806e-55
3.6788985e-56
2.0610926e-54
7.0224766e-55
5.7065301e-53
2.2592333e-53
1.511884e-51
7.0626541e-52
3.6214475e-50
2.0059825e-50
7.7379115e-49
5.1108205e-49
1.453189e-47
1.1519895e-47
2.3530143e-46
2.2551424e-46
3.2220609e-45
3.7623684e-45
3.6780546e-44
5.2755222e-44
3.4412547e-43
6.130989e-43
2.4958409e-42
5.6377834e-42
1.2444672e-41
3.7019018e-41
3.7645157e-41
1.5501684e-40
7.1931473e-41
4.1292789e-40
1.0974119e-40
9.1359312e-40
9.8458903e-41
1.6781811e-39
4.1714742e-41
1.7142433e-39
-6.709623e-42
9.6572167e-40
-1.2127926e-41
4.3962541e-40
-5.6977479e-42
1.6286524e-40
-1.1658892e-42
3.6698499e-41
-1.1261322e-43
4.5223532e-42
-5.4069946e-45
2.9639368e-43
-1.2025275e-46
1.0353855e-44
-1.2709391e-48
1.7521083e-46
-5.6739078e-51
1.4540609e-48
-6.9964947e-54
5.204557e-51
-2.9427444e-57
5.2407298e-54
-5.3038244e-58
2.1106028e-57
-2.229863e-57
5.5022792e-58
-6.0934051e-57
2.9883496e-57
-6.668125e-57
4.50334e-57
-2.8686064e-57
3.8988003e-57
-7.8077886e-60
8.6462994e-58
-1.208362e-60
9.5226744e-61
-5.7567719e-62
1.4829503e-61
-4.7966168e-64
5.7236395e-63
-8.7461624e-69
5.5365172e-65
-3.5768864e-71
4.3450568e-70
-1.0970358e-72
1.3280684e-72
-7.253056e-73
3.7803104e-74
-1.3195183e-73
1.4223715e-74
-5.0639436e-74
-4.6021314e-76
-7.6117229e-75
-1.7338068e-75
-2.2145573e-75
-4.4032724e-76
-8.207721e-75
-2.7742251e-76
-7.8281016e-75
-1.8673929e-75
-2.5354807e-75
-1.7271377e-75
-2.0597987e-76
-3.9614362e-76
-1.523156e-76
-4.0571495e-77
-5.8571581e-77
-4.0827701e-77
-1.8842716e-77
-1.3373705e-77
-6.8968322e-78
-5.0468647e-78
-1.4935292e-78
-2.0874273e-78
-1.4581474e-79
-4.6934773e-79
-4.0593215e-81
-4.9562279e-80
-4.7873983e-83
-1.8403643e-81
-3.7658892e-85
-2.5440777e-83
-2.2673302e-87
-2.2331545e-85
-1.1718574e-89
-1.4705274e-87
-6.2110759e-92
-8.2415228e-90
-3.811611e-94
-4.7215001e-92
-2.4377954e-96
-3.0870099e-94
-1.3729762e-98
-2.1753222e-96
-7.2498083e-101
-1.5429895e-98
-2.4033813e-100
1.5729236e-98
-5.1340248e-98
2.0636406e-96
-2.7324688e-96
2.4199927e-94
-2.6699306e-94
1.9582511e-92
-1.9222515e-92
1.457372e-90
-1.149143e-90
9.1557599e-89
-6.9046956e-89
4.9285213e-87
-3.4330794e-87
2.2748378e-85
-1.32471e-85
1.0994778e-83
-5.0714516e-84
8.4107493e-82
-3.4800724e-82
9.1098063e-80
-3.4285575e-80
3.6229559e-78
-1.3055289e-78
2.7713537e-77
-9.7739144e-78
1.2624415e-76
-4.119259e-77
7.2559103e-76
-4.1469604e-76
7.276527e-75
-3.5632589e-75
7.3110129e-75
-2.9881688e-75
3.4905941e-75
-9.1598276e-76
5.1013214e-73
-7.9155059e-74
1.1175835e-72
-2.1243457e-73
1.1254782e-72
-1.6891647e-73
1.4432244e-73
-3.0701976e-74
6.3044742e-74
-2.2967666e-75
4.5351171e-73
5.7939911e-75
1.2068514e-71
8.9123188e-73
2.4390376e-72
2.6872489e-73
7.1102438e-70
6.7915506e-71
8.1194687e-63
1.0255496e-63
1.5196706e-60
2.4182319e-61
7.108253e-59
1.4586545e-59
4.7097138e-58
1.1693709e-58
5.7094639e-57
1.5547886e-57
1.8098891e-53
6.080076e-54
7.9307363e-53
3.2497516e-53
5.0629476e-52
2.2269257e-52
1.1110091e-50
5.2870111e-51
2.8168272e-49
1.5388368e-49
6.4969737e-48
4.1113922e-48
1.3367791e-46
9.8509396e-47
2.4191403e-45
2.0888243e-45
3.7812168e-44
3.853206e-44
5.0126343e-43
6.0769697e-43
5.556603e-42
8.0864317e-42
5.0672629e-41
8.9651465e-41
3.6140778e-40
7.9514843e-40
1.8018276e-39
5.1362701e-39
5.5328853e-39
2.1655008e-38
1.0619894e-38
5.8544935e-38
1.5841969e-38
1.2880662e-37
1.402869e-38
2.4374141e-37
5.3236913e-39
2.495378e-37
-1.3785203e-39
1.3668945e-37
-1.9282003e-39
6.2654636e-38
-8.5175386e-40
2.2947208e-38
-1.7128715e-40
5.150491e-39
-1.6976014e-41
6.4988397e-40
-8.7630595e-43
4.5237888e-41
-2.2181135e-44
1.7519398e-42
-2.7899355e-46
3.4702418e-44
-1.5335596e-48
3.518017e-46
-2.8322545e-51
1.5906923e-48
-2.1982532e-54
2.45783e-51
-6.62574e-55
2.0444852e-54
-2.4928681e-54
8.3051727e-55
-5.7831929e-54
3.8048799e-54
-6.2437088e-54
5.3559356e-54
-2.3929099e-54
4.4514913e-54
-6.6420408e-58
9.2615258e-55
-1.7437625e-58
2.2330198e-58
-1.5397193e-59
5.129274e-59
-6.4731198e-61
3.4419083e-60
-4.3275535e-63
1.1562807e-61
-3.5244222e-69
6.077238e-64
-5.8739579e-72
3.7527995e-70
-3.3540656e-71
8.176546e-73
-8.6292489e-71
4.6486279e-72
-3.7903009e-71
2.7463866e-72
-4.7684292e-72
-6.5422566e-73
-5.8720644e-73
-2.4224455e-73
-3.2246279e-72
-6.9020883e-74
-4.3352286e-72
-8.3251942e-73
-1.4465783e-72
-1.0969551e-72
-5.9773762e-74
-2.7150549e-73
-6.2222762e-74
-2.14e-74
-2.7213944e-74
-2.5827139e-74
-8.9310178e-75
-8.6979854e-75
-3.5367883e-75
-3.2897687e-75
-8.1847732e-76
-1.3923516e-75
-7.9178136e-77
-3.1240861e-76
-2.1285612e-78
-3.0737184e-77
-2.4343238e-80
-8.8117378e-79
-1.8663495e-82
-1.110657e-80
-1.0999263e-84
-9.6797031e-83
-5.5862898e-87
-6.4036613e-85
-2.9193595e-89
-3.6166902e-87
-1.7754184e-91
-2.1759916e-89
-1.1754349e-93
-1.6003969e-91
-6.4038343e-96
-1.2820249e-93
-3.1882832e-98
-8.5817078e-96
-1.0899932e-97
4.9915058e-96
-1.8901675e-95
7.7127382e-94
-1.1673823e-93
9.9551648e-92
-1.2373135e-91
9.5273484e-90
-1.0184374e-89
6.6614936e-88
-6.5010685e-88
4.1274188e-86
-3.2735272e-86
2.2739099e-84
-1.5671069e-84
1.0789035e-82
-6.4380285e-83
5.3903079e-81
-2.8674042e-81
4.2743264e-79
-2.0328614e-79
4.7892689e-77
-2.0605e-77
2.0073082e-75
-8.1490912e-76
1.6511627e-74
-6.531453e-75
8.0999778e-74
-2.9784169e-74
5.1232356e-73
-2.538737e-73
5.2287123e-72
-2.5715491e-72
3.4576225e-72
-1.6329558e-72
2.3359309e-72
-1.2640661e-72
2.1980982e-70
-3.6159879e-71
3.9903866e-70
-7.7933627e-71
3.9044881e-70
-5.4770709e-71
4.4981878e-71
-6.5062832e-72
3.5908666e-71
-1.4814852e-73
6.4965028e-70
2.0786031e-71
1.5908589e-68
1.977234e-69
2.1522994e-69
4.1293639e-70
1.0920035e-62
1.4222246e-63
1.4968698e-59
2.4921228e-60
1.3926556e-57
2.8679514e-58
4.081205e-56
1.0564446e-56
2.9931586e-55
9.1108362e-56
5.5944281e-54
1.8455575e-54
1.8355886e-50
7.7627184e-51
5.5003492e-50
3.049729e-50
1.3714022e-49
8.1730515e-50
1.7036742e-48
9.6007632e-49
4.0363879e-47
2.5154486e-47
8.9117377e-46
6.3275958e-46
1.7540298e-44
1.4282919e-44
3.0368656e-43
2.8548938e-43
4.5453389e-42
4.970815e-42
5.7765244e-41
7.4111892e-41
6.1524073e-40
9.3501336e-40
5.4159634e-39
9.879341e-39
3.7669662e-38
8.4370587e-38
1.862852e-37
5.3375847e-37
5.7716591e-37
2.2454958e-36
1.1166271e-36
6.088771e-36
1.6576456e-36
1.3217097e-35
1.4926188e-36
2.5372981e-35
5.6831494e-37
2.6041634e-35
-1.3459584e-37
1.406685e-35
-1.9344751e-37
6.5440881e-36
-8.5205556e-38
2.3962308e-36
-1.7393291e-38
5.4005151e-37
-1.8085075e-39
7.0003291e-38
-1.0202077e-40
5.1766246e-39
-2.9745078e-42
2.2185584e-40
-4.4602392e-44
5.1255345e-42
-2.8964415e-46
6.2710561e-44
-8.7504858e-49
3.3937548e-46
-1.3111043e-51
8.6917286e-49
-7.3905574e-52
1.6717185e-51
-2.3249722e-51
1.0865782e-51
-4.26338e-51
3.7642454e-51
-4.3592738e-51
4.7338407e-51
-1.2549109e-51
3.4093122e-51
-5.6756712e-55
5.7915329e-52
-1.1614163e-55
2.2910989e-55
-9.2032533e-57
4.1281664e-56
-4.4046812e-58
2.5798219e-57
-4.1652431e-60
1.0004159e-58
-2.4142432e-62
7.5419757e-61
-1.0754489e-68
3.395275e-63
-2.0245004e-68
2.2032548e-69
-5.4024862e-68
4.0683732e-69
-2.3057897e-68
3.3998764e-69
-3.1389588e-69
-6.3759165e-71
-1.7901611e-70
-1.3351676e-70
-6.0590512e-70
-2.1760365e-71
-1.9511245e-69
-1.6783356e-70
-7.069364e-70
-5.4283094e-70
-3.1475604e-71
-1.3965132e-70
-3.1851662e-71
-1.2473098e-71
-1.4564794e-71
-1.4700064e-71
-4.6515264e-72
-5.2969202e-72
-1.7698485e-72
-1.9392231e-72
-3.8489277e-73
-7.93321e-73
-3.5277948e-74
-1.6856978e-73
-9.0887113e-76
-1.5840833e-74
-1.0044953e-77
-4.3709564e-76
-7.4854245e-80
-5.3389541e-78
-4.3106655e-82
-4.4445165e-80
-2.1498026e-84
-2.8826878e-82
-1.1098903e-86
-1.6345958e-84
-6.8975897e-89
-9.8351209e-87
-4.3480513e-91
-7.3316147e-89
-2.1938662e-93
-5.4839138e-91
-9.5359742e-96
-3.4107035e-93
-3.8176559e-95
1.2682723e-93
-5.4527061e-93
2.207665e-91
-3.7604648e-91
3.053219e-89
-4.2714625e-89
3.1985123e-87
-3.7763256e-87
2.6682946e-85
-2.7650179e-85
1.6552139e-83
-1.5887551e-83
8.8920103e-82
-7.0511017e-82
4.3406774e-80
-2.9337497e-80
2.2454274e-78
-1.3513166e-78
1.8355245e-76
-9.8133849e-77
2.111388e-74
-1.0152063e-74
9.2645821e-73
-4.2124686e-73
8.2391038e-72
-3.5660514e-72
4.5546363e-71
-1.7745977e-71
3.3815772e-70
-1.2446435e-70
2.3101854e-69
-1.1944612e-69
1.6088961e-69
-6.9482399e-70
2.4767401e-69
-7.5178725e-70
7.5121908e-68
-1.3056134e-68
1.2026758e-67
-2.4001185e-68
1.0923791e-67
-1.5110013e-68
1.878867e-68
-1.2000618e-69
1.8322666e-68
4.4298534e-70
2.8727747e-67
1.5036413e-68
1.1596866e-65
1.0191106e-66
5.4956865e-63
6.8856478e-64
2.0937311e-59
3.4497008e-60
1.195917e-56
2.4704959e-57
7.6910665e-55
1.9445482e-55
1.6860408e-53
5.2543694e-54
1.4438395e-52
5.1731485e-53
4.2577616e-51
1.6474339e-51
8.5530625e-48
4.1512683e-48
2.6789864e-47
1.8410624e-47
4.57355e-47
3.5083539e-47
2.3058558e-46
1.5849257e-46
4.6504271e-45
3.2488434e-45
9.7712798e-44
7.6429445e-44
1.8336587e-42
1.6230717e-42
3.0274463e-41
3.0542808e-41
4.3248056e-40
5.0146987e-40
5.2514507e-39
7.0658946e-39
5.3531679e-38
8.4473513e-38
4.5263812e-37
8.4961943e-37
3.0532645e-36
6.9785128e-36
1.4891011e-35
4.3180728e-35
4.6236086e-35
1.8075667e-34
8.9622113e-35
4.8954043e-34
1.3237847e-34
1.04579e-33
1.2299672e-34
2.0196559e-33
5.2220457e-35
2.0766853e-33
-7.8198339e-36
1.116281e-33
-1.4074327e-35
5.2788862e-34
-6.3987486e-36
1.9390264e-34
-1.3466445e-36
4.3958182e-35
-1.480943e-37
5.8501869e-36
-9.1863316e-39
4.5865632e-37
-3.0803795e-40
2.1729821e-38
-5.4453187e-42
5.8126426e-40
-4.4919148e-44
8.4513533e-42
-1.8702037e-46
5.865092e-44
-6.4959185e-49
2.0929519e-46
-6.7565472e-49
1.2051871e-48
-1.7861982e-48
1.1389866e-48
-2.5943844e-48
2.9953094e-48
-2.2172507e-48
3.35646e-48
-3.7390287e-49
1.7551717e-48
-3.9693038e-52
1.9693075e-49
-6.0061247e-53
1.8503385e-52
-3.8788797e-54
2.4722427e-53
-1.9317784e-55
1.2983957e-54
-1.9582533e-57
5.3066993e-56
-1.4696551e-59
4.3205366e-58
-6.2344944e-62
2.5548927e-60
-2.0556637e-64
8.0944522e-63
-3.9588928e-65
2.0075804e-65
-1.2065267e-65
2.3332803e-66
-1.7346697e-66
1.1410046e-67
-7.0749419e-68
-6.1601216e-68
-9.5911434e-68
-1.1130972e-68
-7.3250693e-67
-4.3212554e-68
-2.6061988e-67
-2.1778741e-67
-1.3637445e-68
-5.5585335e-68
-1.3337478e-68
-5.8938146e-69
-6.4292007e-69
-6.7987572e-69
-2.0111677e-69
-2.6157732e-69
-7.4108795e-70
-9.3105123e-70
-1.5230438e-70
-3.7117599e-70
-1.3231701e-71
-7.5060913e-71
-3.2621963e-73
-6.7237982e-72
-3.4800223e-75
-1.7818815e-73
-2.5194579e-77
-2.1059879e-75
-1.4163343e-79
-1.7076556e-77
-6.9311403e-82
-1.0778557e-79
-3.5710342e-84
-5.9989696e-82
-2.1413579e-86
-3.6918353e-84
-1.2422052e-88
-2.5657144e-86
-5.8633852e-91
-1.7752362e-88
-2.2889553e-93
-1.0361558e-90
-1.0475511e-92
2.6718225e-91
-1.2838056e-90
5.1027023e-89
-9.6560962e-89
7.4833214e-87
-1.157307e-86
8.3286088e-85
-1.0899548e-84
7.6022832e-83
-8.5460234e-83
5.6645262e-81
-5.672444e-81
3.1570066e-79
-2.9595857e-79
1.51387e-77
-1.1379119e-77
8.0841099e-76
-5.3890876e-76
6.7598289e-74
-4.0174858e-74
7.9330793e-72
-4.2356897e-72
3.662751e-70
-1.80989e-70
3.4771793e-69
-1.630052e-69
2.1196555e-68
-8.9444813e-69
1.9071973e-67
-7.7382544e-68
7.8126052e-67
-4.3155105e-67
5.3028719e-67
-2.4398133e-67
8.8776867e-67
-2.6524286e-67
2.1616528e-65
-3.9620636e-66
3.2349175e-65
-6.4713386e-66
2.4282215e-65
-3.7130195e-66
5.0408964e-66
-1.6596113e-67
1.1709498e-65
4.3564562e-67
7.6751443e-65
5.7630465e-66
7.0744048e-63
7.8511897e-64
2.6215535e-59
4.0442327e-60
1.6080718e-56
3.1976249e-57
3.6622277e-54
9.0586914e-55
9.9570748e-53
2.9045654e-53
6.8069315e-51
2.4561489e-51
5.7849754e-50
2.407278e-50
2.5388225e-48
1.1332395e-48
1.4573516e-45
7.538121e-46
9.2716199e-45
6.7596344e-45
1.6923126e-44
1.5048788e-44
3.6654981e-44
3.2636703e-44
4.4940538e-43
3.5369739e-43
8.8093675e-42
7.5097646e-42
1.5693887e-40
1.4945066e-40
2.4623928e-39
2.6413998e-39
3.3469823e-38
4.081096e-38
3.8721443e-37
5.4218801e-37
3.7665921e-36
6.1268778e-36
3.0513627e-35
5.8517745e-35
1.991944e-34
4.6107583e-34
9.5658815e-34
2.7842606e-33
2.9741977e-33
1.1578776e-32
5.7765937e-33
3.1273707e-32
8.493858e-33
6.5693375e-32
8.1027574e-33
1.2706636e-31
3.7114432e-33
1.3092867e-31
-3.098079e-34
7.0285874e-32
-8.0740468e-34
3.3807103e-32
-3.8154937e-34
1.2470398e-32
-8.2934608e-35
2.8447334e-33
-9.6550552e-36
3.8860584e-34
-6.5938717e-37
3.2290464e-35
-2.5374486e-38
1.691316e-36
-5.2250596e-40
5.219295e-38
-5.4455361e-42
8.897641e-40
-3.0046395e-44
7.8623933e-42
-2.7358081e-46
3.7658448e-44
-3.5373936e-46
5.9439823e-46
-1.1037921e-45
9.2707969e-46
-1.3108584e-45
1.9148025e-45
-8.7681788e-46
1.9438529e-45
-8.856052e-47
7.2056808e-46
-2.2533291e-49
5.2806921e-47
-2.4304755e-50
1.1921562e-49
-1.0754778e-51
1.1311395e-50
-6.0555315e-53
4.1681393e-52
-6.3056731e-55
1.954805e-53
-4.9907511e-57
1.6369971e-55
-7.0400253e-59
1.0341199e-57
-2.9279481e-61
1.1008349e-59
-1.9554185e-62
3.2625981e-62
-5.4310024e-63
1.4238313e-63
-7.8993187e-64
1.1171626e-64
-3.3486721e-65
-2.4559617e-65
-3.6177122e-65
-5.0815629e-66
-2.309393e-64
-1.2966623e-65
-8.0608506e-65
-7.3603573e-65
-4.9642078e-66
-1.8711503e-65
-4.7268358e-66
-2.323095e-66
-2.3864899e-66
-2.6208201e-66
-7.3618672e-67
-1.073581e-66
-2.641252e-67
-3.7576271e-67
-5.1699462e-68
-1.4590119e-67
-4.2583487e-69
-2.8254351e-68
-1.0046746e-70
-2.4066966e-69
-1.0340329e-72
-6.1277607e-71
-7.2608746e-75
-7.0042661e-73
-3.9655078e-77
-5.4928449e-75
-1.9033269e-79
-3.3778509e-77
-9.7426431e-82
-1.8987819e-79
-5.30924e-84
-1.1140248e-81
-2.8632975e-86
-7.0863222e-84
-1.277348e-88
-4.5645412e-86
-4.5575416e-91
-2.525877e-88
-2.3436667e-90
4.789046e-89
-2.5403732e-88
9.8735862e-87
-2.0529682e-86
1.5139165e-84
-2.5638448e-84
1.7873944e-82
-2.5549915e-82
1.7272264e-80
-2.1242949e-80
1.4155313e-78
-1.5172352e-78
9.5952852e-77
-9.2962036e-77
4.6439982e-75
-4.2708108e-75
2.529186e-73
-1.8399577e-73
2.1667949e-71
-1.4046272e-71
2.5894366e-69
-1.5042587e-69
1.2416549e-67
-6.6511277e-68
1.2721765e-66
-6.4454427e-67
8.4510595e-66
-3.8279183e-66
7.7235462e-65
-3.2229484e-65
2.1906681e-64
-1.2876696e-64
1.4892625e-64
-7.2814627e-65
2.5064215e-64
-7.7310676e-65
5.481122e-63
-1.0673174e-63
7.7917877e-63
-1.5750694e-63
4.0757133e-63
-6.1818524e-64
9.496776e-64
-1.2339484e-65
5.7974289e-63
2.7936118e-64
2.9019791e-62
2.7955207e-63
3.1689678e-60
4.2564036e-61
8.3634468e-57
1.5226558e-57
1.6658714e-54
3.7994308e-55
1.7599316e-52
4.7913508e-53
2.1181212e-51
7.3135818e-52
7.0912115e-49
2.6961977e-49
1.5044023e-47
6.9179636e-48
1.2647789e-45
6.4782833e-46
6.0648565e-44
3.4026672e-44
2.9925721e-42
2.2465732e-42
6.1138918e-42
6.5701431e-42
8.2140318e-42
9.5402233e-42
3.912283e-41
3.6860435e-41
6.6630666e-40
6.171252e-40
1.1206586e-38
1.1412148e-38
1.6626944e-37
1.8870251e-37
2.1406518e-36
2.7346325e-36
2.3503511e-35
3.4169376e-35
2.1728171e-34
3.6388569e-34
1.6795348e-33
3.2882516e-33
1.0573052e-32
2.4762861e-32
4.9897258e-32
1.4550548e-31
1.5533649e-31
6.0010482e-31
3.0265938e-31
1.6153775e-30
4.4345562e-31
3.335737e-30
4.3339374e-31
6.4405953e-30
2.1350136e-31
6.6513712e-30
-5.0563133e-33
3.5760233e-30
-3.6409388e-32
1.7495022e-30
-1.8127235e-32
6.4805323e-31
-4.0873971e-33
1.4872949e-31
-5.0551031e-34
2.0857449e-32
-3.8109937e-35
1.8388796e-33
-1.6737888e-36
1.0652325e-34
-3.9580984e-38
3.7633231e-36
-5.0317819e-40
7.3996364e-38
-3.7649947e-42
8.0237102e-40
-1.0452173e-43
5.3297537e-42
-1.9696074e-43
2.5411163e-43
-5.1739224e-43
6.0550951e-43
-5.7458634e-43
9.8310749e-43
-2.828167e-43
9.0379069e-43
-2.0103973e-44
2.4866485e-43
-1.0248188e-46
1.354714e-44
-7.6814018e-48
6.0957726e-47
-1.2202932e-49
3.9769976e-48
-2.008023e-50
5.6358582e-50
-1.5009865e-52
7.8302097e-51
-1.8553612e-54
4.4792729e-53
-2.872705e-56
4.4444742e-55
-5.3897535e-59
5.1618951e-57
-9.1514181e-60
7.4564266e-60
-2.128401e-60
8.2370258e-61
-3.154395e-61
6.2714256e-62
-1.1673472e-62
-8.8575033e-63
-1.1794296e-62
-1.6273975e-63
-6.2827425e-62
-3.5213593e-63
-2.1810913e-62
-2.1403977e-62
-1.557425e-63
-5.49368e-63
-1.4435758e-63
-7.8321029e-64
-7.6072477e-64
-8.6472718e-64
-2.3341149e-64
-3.7659493e-64
-8.1343781e-65
-1.2949781e-64
-1.5254664e-65
-4.8913496e-65
-1.1924445e-66
-9.1242333e-66
-2.6953858e-68
-7.4111783e-67
-2.6747289e-70
-1.8123229e-68
-1.8124847e-72
-2.0012486e-70
-9.676429e-75
-1.5109128e-72
-4.6386446e-77
-9.2353789e-75
-2.1756363e-79
-5.0825381e-77
-1.0925606e-81
-2.7304378e-79
-5.5081591e-84
-1.6026779e-81
-2.3398303e-86
-9.6804735e-84
-7.7166188e-89
-5.1125626e-86
-4.39957e-88
7.4463253e-87
-4.3179828e-86
1.6401814e-84
-3.7126716e-84
2.6082809e-82
-4.7957842e-82
3.2341588e-80
-5.0020863e-80
3.3130258e-78
-4.4124708e-78
2.8845954e-76
-3.3459184e-76
2.1920417e-74
-2.2469858e-74
1.3689477e-72
-1.2770158e-72
6.9582621e-71
-5.4866055e-71
6.054138e-69
-4.2254794e-69
7.3413077e-67
-4.5446077e-67
3.7185204e-65
-2.1458813e-65
4.1066313e-64
-2.224187e-64
2.8780669e-63
-1.3983891e-63
2.2320027e-62
-1.0055445e-62
5.2693952e-62
-3.2941871e-62
3.6510697e-62
-1.8914084e-62
6.3469826e-62
-2.0305155e-62
1.2619843e-60
-2.6396621e-61
1.7147597e-60
-3.5216136e-61
4.2347904e-61
-6.8020338e-62
1.5948573e-61
4.1516876e-65
2.3200357e-60
1.3562885e-61
1.4364445e-59
1.63701e-60
7.270741e-58
1.1514935e-58
4.4493142e-55
9.1626314e-56
2.972812e-53
7.8081962e-54
1.1302855e-51
3.4417396e-52
6.3621891e-49
2.546462e-49
6.6425634e-48
2.9529229e-48
3.3636427e-45
1.7189274e-45
6.8199604e-43
4.2165777e-43
4.3296569e-42
2.9448464e-42
8.4968659e-40
6.6890735e-40
2.189984e-39
2.7972051e-39
2.413014e-39
3.453838e-39
3.8732507e-39
5.1504588e-39
4.30979e-38
4.4096199e-38
6.7737772e-37
7.3370929e-37
9.4621952e-36
1.1297935e-35
1.1484385e-34
1.5298631e-34
1.1904262e-33
1.790949e-33
1.0405466e-32
1.7907228e-32
7.632568e-32
1.5247345e-31
4.6084548e-31
1.0924578e-30
2.1293198e-30
6.2244291e-30
6.6282325e-30
2.5417913e-29
1.2957785e-29
6.8158957e-29
1.8932092e-29
1.3828762e-28
1.8998253e-29
2.6552556e-28
1.0191921e-29
2.7477454e-28
3.5386017e-31
1.4856262e-28
-1.2648825e-30
7.3909618e-29
-6.8566105e-31
2.7477031e-29
-1.6212322e-31
6.3418963e-30
-2.1444034e-32
9.1391267e-31
-1.7841796e-33
8.5623206e-32
-8.8460441e-35
5.4644887e-33
-2.3841521e-36
2.1799841e-34
-3.6982974e-38
4.8991551e-36
-3.9197238e-40
6.5193236e-38
-4.3134555e-41
6.5982237e-40
-1.0032619e-40
1.1714029e-40
-1.9471236e-40
3.0943605e-40
-2.0392119e-40
4.165176e-40
-6.5326432e-41
3.152891e-40
-3.9777774e-42
6.186862e-41
-3.7107777e-44
3.0208521e-42
-2.0825961e-45
2.4767391e-44
-1.8165741e-47
1.2048337e-45
-1.2582701e-47
1.2826387e-47
-5.0074931e-50
7.4567337e-48
-7.4922118e-52
1.6866534e-50
-1.3822103e-54
2.0017199e-52
-7.546639e-57
2.68448e-55
-3.4767519e-57
1.416513e-57
-7.5623839e-58
4.0913844e-58
-1.1000413e-58
2.7971824e-59
-3.293165e-60
-2.8740984e-60
-3.2764635e-60
-5.0322027e-61
-1.496668e-59
-8.8087521e-61
-5.2438746e-60
-5.4334249e-60
-4.2868842e-61
-1.4281314e-60
-3.8864204e-61
-2.3085809e-61
-2.1281519e-61
-2.5080815e-61
-6.4702895e-62
-1.1469628e-61
-2.1855886e-62
-3.882479e-62
-3.9457561e-63
-1.4245005e-62
-2.9424466e-64
-2.5612659e-63
-6.3727599e-66
-1.991466e-64
-6.08168e-68
-4.6773328e-66
-3.9901288e-70
-4.9364642e-68
-2.1084505e-72
-3.6483061e-70
-9.5422668e-75
-2.2193569e-72
-4.1158333e-77
-1.1334646e-74
-1.9138095e-79
-5.6154728e-77
-9.0765701e-82
-3.0585226e-79
-3.6860077e-84
-1.7415274e-81
-1.1318101e-86
-8.8096198e-84
-7.0796948e-86
1.0193099e-84
-6.4104697e-84
2.3824226e-82
-5.8259428e-82
3.9101518e-80
-7.74852e-80
5.048697e-78
-8.3940365e-78
5.4577245e-76
-7.7877651e-76
5.0494348e-74
-6.2927817e-74
4.1405808e-72
-4.539205e-72
2.9829516e-70
-2.9295328e-70
1.7203068e-68
-1.5782015e-68
1.494465e-66
-1.1087963e-66
1.8414883e-64
-1.2180424e-64
9.9447955e-63
-6.1005673e-63
1.1727992e-61
-6.7859872e-62
8.5319323e-61
-4.8079717e-61
5.3001982e-60
-2.6124978e-60
1.1163848e-59
-7.4037687e-60
7.9468028e-60
-4.3475105e-60
1.5433814e-59
-5.0427417e-60
2.6653904e-58
-6.0085879e-59
3.4812721e-58
-7.3335553e-59
5.0545025e-59
-1.0069968e-59
3.6529774e-59
5.2020284e-61
8.5010401e-58
6.0176959e-59
5.2386228e-57
7.0016631e-58
1.1605984e-55
2.1545478e-56
7.3635807e-54
1.7427524e-54
8.0799663e-52
2.4405441e-52
1.6907031e-49
6.3031189e-50
2.1791387e-47
8.630121e-48
8.1943704e-46
4.2068884e-46
7.0690811e-43
4.0863708e-43
2.1991289e-40
1.5514996e-40
1.1946913e-39
9.3297524e-40
1.2653988e-37
1.047577e-37
6.3741908e-37
8.2344434e-37
6.7258498e-37
1.1726085e-36
6.4164865e-37
1.1887804e-36
2.5433242e-36
3.1938055e-36
3.5021948e-35
4.0317427e-35
4.5889258e-34
5.7247527e-34
5.2281835e-33
7.2164199e-33
5.0933966e-32
7.8867753e-32
4.186808e-31
7.3725499e-31
2.8948572e-30
5.882096e-30
1.6647262e-29
3.9847466e-29
7.488362e-29
2.1898715e-28
2.3243113e-28
8.8298434e-28
4.550698e-28
2.35459e-27
6.6143879e-28
4.6803316e-27
6.802928e-28
8.9052171e-27
3.9252823e-28
9.2359577e-27
3.3777597e-29
5.0351819e-27
-3.3371864e-29
2.5539317e-27
-2.0759193e-29
9.5360489e-28
-5.218243e-30
2.2146177e-28
-7.4467116e-31
3.2867083e-29
-6.8498902e-32
3.2835471e-30
-3.808155e-33
2.3055165e-31
-1.1677372e-34
1.0299251e-32
-2.2406194e-36
2.6398942e-34
-3.6565505e-38
4.3849854e-36
-1.7947236e-38
8.910252e-38
-4.118152e-38
5.4477551e-38
-5.7106561e-38
1.2243294e-37
-4.5202611e-38
1.3757098e-37
-6.8289956e-39
6.4331558e-38
-4.1038602e-40
6.7570141e-39
-1.1117722e-41
3.522871e-40
-4.6111e-43
8.345516e-42
-1.5672092e-45
2.9558765e-43
-6.52891e-46
1.0303534e-45
-2.0414256e-47
3.3768668e-46
-4.4842281e-50
7.5948343e-48
-1.4287261e-53
1.2594059e-50
-2.9042138e-54
3.498763e-54
-1.1737612e-54
6.1502641e-55
-2.4015263e-55
1.4897235e-55
-3.2093154e-56
1.0406531e-56
-1.1154695e-57
-7.3367143e-58
-7.4021976e-58
-1.5081322e-58
-3.1678762e-57
-2.0155552e-58
-1.1352893e-57
-1.229515e-57
-1.0539513e-58
-3.3345394e-58
-9.4093589e-59
-6.061927e-59
-5.2838728e-59
-6.5034279e-59
-1.5895584e-59
-3.0692866e-59
-5.1820093e-60
-1.0217854e-59
-9.0294564e-61
-3.6202381e-60
-6.4464471e-62
-6.3225642e-61
-1.3387311e-63
-4.7100476e-62
-1.2225022e-65
-1.0638169e-63
-7.8767783e-68
-1.0750162e-65
-4.0366366e-70
-7.9388438e-68
-1.6843797e-72
-4.5600988e-70
-6.7441212e-75
-2.1564718e-72
-2.91855e-77
-9.9347932e-75
-1.3057893e-79
-5.0433513e-77
-5.0792846e-82
-2.7135011e-79
-1.4587438e-84
-1.3170059e-81
-9.9275644e-84
1.2426511e-82
-8.4214542e-82
3.0680243e-80
-8.0541281e-80
5.1809974e-78
-1.0997006e-77
6.9297385e-76
-1.2314531e-75
7.8351784e-74
-1.1921833e-73
7.6934576e-72
-1.0192197e-71
6.7554555e-70
-7.8853668e-70
5.4116594e-68
-5.6035392e-68
4.0156995e-66
-3.7682199e-66
3.3219985e-64
-2.6203899e-64
4.236241e-62
-2.9959945e-62
2.3855228e-60
-1.5613392e-60
2.9940724e-59
-1.8492096e-59
2.2742292e-58
-1.3294849e-58
1.082469e-57
-5.7932177e-58
2.1147362e-57
-1.4841586e-57
1.5550425e-57
-8.9511642e-58
3.6435615e-57
-1.1960895e-57
5.1340796e-56
-1.2071106e-56
6.5556429e-56
-1.4231034e-56
1.0712115e-56
-1.73632e-57
9.2193742e-57
2.451586e-58
2.5175577e-55
2.0825684e-56
1.6308147e-54
2.4960295e-55
2.307252e-53
4.8770547e-54
1.1669457e-51
3.1937263e-52
2.0102389e-49
6.9155789e-50
5.507187e-47
3.7127739e-47
6.7277363e-47
4.8129493e-47
2.0378713e-43
1.1593586e-43
1.1956778e-40
7.8213481e-41
2.5629039e-38
1.9328378e-38
2.1209481e-37
1.8176807e-37
1.3463002e-35
1.1930461e-35
1.4499274e-34
1.7893229e-34
1.869232e-34
3.6562869e-34
1.5266994e-34
3.124213e-34
1.833511e-34
3.4998003e-34
1.5668157e-33
1.9808826e-33
1.9143651e-32
2.4782865e-32
2.0390562e-31
2.8933819e-31
1.8574023e-30
2.9402451e-30
1.427651e-29
2.5587694e-29
9.232624e-29
1.9006348e-28
5.0076564e-28
1.2063643e-27
2.1748984e-27
6.3403685e-27
6.7009059e-27
2.5124077e-26
1.3085812e-26
6.6406138e-26
1.883559e-26
1.286309e-25
1.9878146e-26
2.4274683e-25
1.2232023e-26
2.5247211e-25
1.5525e-27
1.3852522e-25
-6.4018833e-28
7.1903692e-26
-5.0271829e-28
2.7031812e-26
-1.3691091e-28
6.3284935e-27
-2.1332755e-29
9.722641e-28
-2.1762444e-30
1.0429826e-28
-1.3510732e-31
8.0602506e-30
-4.7378809e-33
4.0120546e-31
-1.1654581e-34
1.1804348e-32
-4.6366086e-36
2.5880735e-34
-5.5762261e-36
1.7654341e-35
-1.3084054e-35
2.231044e-35
-1.4855342e-35
3.9928754e-35
-6.5675044e-36
3.7569304e-35
-9.4698953e-38
9.0722629e-36
-2.3302035e-38
1.1060476e-37
-3.4965255e-39
2.5608151e-38
-8.0953118e-41
3.0669061e-39
-8.7881845e-44
5.7222868e-41
-5.0778579e-45
5.3069028e-44
-7.4001193e-46
2.5596194e-45
-4.6219932e-49
2.7109873e-46
-2.6250769e-51
1.4308683e-49
-1.0180859e-51
8.1880734e-52
-3.675384e-52
2.4494415e-52
-6.9302699e-53
4.9341231e-53
-7.5521587e-54
3.294543e-54
-3.2823075e-55
-1.8336889e-55
-1.4648714e-55
-3.9852112e-56
-6.0578736e-55
-4.1945648e-56
-2.2468969e-55
-2.5173721e-55
-2.3651931e-56
-7.1233133e-56
-2.0890726e-56
-1.4456949e-56
-1.1798252e-56
-1.5567185e-56
-3.4786789e-57
-7.5467563e-57
-1.0837614e-57
-2.3806797e-57
-1.8393026e-58
-8.0991903e-58
-1.2604132e-59
-1.3803224e-58
-2.5101369e-61
-9.8868238e-60
-2.2153437e-63
-2.1327544e-61
-1.4052838e-65
-2.1171067e-63
-6.6771647e-68
-1.5132354e-65
-2.6059097e-70
-8.0700576e-68
-9.7511172e-73
-3.5772524e-70
-3.9389753e-75
-1.542103e-72
-1.6640174e-77
-7.3143445e-75
-6.2031534e-80
-3.7208208e-77
-1.670786e-82
-1.7335339e-79
-1.2289132e-81
1.3616118e-80
-9.8920612e-80
3.5405732e-78
-9.9267285e-78
6.139377e-76
-1.3887158e-75
8.4783813e-74
-1.6025705e-73
9.9730047e-72
-1.6111826e-71
1.0299196e-69
-1.4454948e-69
9.6627247e-68
-1.1924232e-67
8.4498596e-66
-9.2388664e-66
7.381482e-64
-7.2251989e-64
6.8168487e-62
-6.1230261e-62
9.0328565e-60
-6.763024e-60
5.2084207e-58
-3.6036313e-58
6.792851e-57
-4.5389427e-57
4.7413414e-56
-2.9370331e-56
1.943382e-55
-1.1189214e-55
3.6169746e-55
-2.6817942e-55
2.7666134e-55
-1.6614622e-55
8.1227421e-55
-2.6633704e-55
8.9058874e-54
-2.1869947e-54
1.1399185e-53
-2.5641174e-54
2.2969242e-54
-2.8608612e-55
2.2129319e-54
8.1270466e-56
7.0713125e-53
6.5960148e-54
4.7371102e-52
8.7293343e-53
1.8335456e-51
4.7430636e-52
1.9456778e-49
5.79226e-50