/*--------------------------------*- C++ -*----------------------------------*\
  =========                 |
  \\      /  F ield         | OpenFOAM: The Open Source CFD Toolbox
   \\    /   O peration     | Website:  https://openfoam.org
    \\  /    A nd           | Version:  9
     \\/     M anipulation  |
\*---------------------------------------------------------------------------*/
FoamFile
{
    format      ascii;
    class       surfaceScalarField;
    location    "0.32";
    object      phi;
}
// * * * * * * * * * * * * * * * * * * * * * * * * * * * * * * * * * * * * * //

dimensions      [0 3 -1 0 0 0 0];

internalField   nonuniform List<scalar> 
19800
(
0.0001443119
-0.0001307296
0.00018181591
-0.00012998803
0.00021877996
-0.00012939462
0.00025495033
-0.0001283885
0.00029015313
-0.00012696992
0.00032422106
-0.00012525717
0.00035697241
-0.00012318659
0.00038819452
-0.00012070602
0.00041768932
-0.00011779289
0.00044524697
-0.00011443244
0.00047066174
-0.00011060157
0.00049373542
-0.00010627369
0.00051426445
-0.00010143992
0.00053206441
-9.6086424e-05
0.00054696633
-9.0206396e-05
0.00055881102
-8.3811027e-05
0.00056745592
-7.6912499e-05
0.00057277075
-6.9520844e-05
0.00057464266
-6.1649871e-05
0.00057298055
-5.3309011e-05
0.00056768359
-4.4487426e-05
0.00055867172
-3.514849e-05
0.00054602605
-2.5261041e-05
0.00053029801
-1.490886e-05
0.0005131461
-4.7579077e-06
0.00049655977
5.1385492e-06
0.00047900136
1.6784439e-05
0.00045831637
2.5951223e-05
0.00043482042
3.4114015e-05
0.00040928982
4.1841008e-05
0.00038235873
4.940056e-05
0.00035458011
5.7007745e-05
0.00032646268
6.4814779e-05
0.00029850653
7.287564e-05
0.00027108645
8.1338522e-05
0.00024442287
9.0224671e-05
0.00021871065
9.9480699e-05
0.0001941494
0.00010917102
0.00017094462
0.00011943006
0.00014929804
0.0001302384
0.00012937346
0.00014149671
0.00011133256
0.0001531448
9.5313441e-05
0.00016497525
8.1331745e-05
0.00017663805
6.9293967e-05
0.00018779245
5.900327e-05
0.00019808737
5.0110488e-05
0.00020713833
4.2131528e-05
0.00021460769
3.4492264e-05
0.00022024637
2.6605219e-05
0.00022387282
1.807943e-05
0.00022550935
8.6264618e-06
0.00022509388
-2.149961e-06
0.00022248002
-1.4951242e-05
0.00021806827
-3.025034e-05
0.00021187688
-4.8419528e-05
0.00020419301
-6.9668933e-05
0.00019537231
-9.4045122e-05
0.00018580423
-0.00012147176
0.00017583022
-0.00015179535
0.00016566379
-0.00018478844
0.000155494
-0.00022013766
0.0001454976
-0.00025746555
0.00013576455
-0.00029636556
0.00012630636
-0.00033639415
0.00011700562
-0.00037705627
0.00010777717
-0.0004177553
9.870169e-05
-0.00045790876
8.972129e-05
-0.00049693597
8.0558663e-05
-0.00053426451
7.1086119e-05
-0.00056928513
6.1359144e-05
-0.0006013117
5.1236766e-05
-0.00062958044
4.0592459e-05
-0.00065308911
2.9145868e-05
-0.00067273986
1.6031149e-05
-0.00069050509
8.7560084e-07
-0.00070795211
-1.1237601e-05
-0.00072154123
-2.471179e-05
-0.00073020603
-3.7682791e-05
-0.00073385623
-4.9745998e-05
-0.00073269911
-6.0911061e-05
-0.00072696844
-7.124907e-05
-0.00071686358
-8.0795782e-05
-0.00070257479
-8.9580382e-05
-0.00068432718
-9.7622088e-05
-0.00066237661
-0.00010493801
-0.00063699159
-0.00011154433
-0.00060844168
-0.00011745949
-0.00057700455
-0.00012271416
-0.00054295676
-0.00012734214
-0.00050657058
-0.00013137808
-0.00046810752
-0.0001348595
-0.00042781895
-0.00013782631
-0.00038594407
-0.00014031236
-0.00034271613
-0.00014234867
-0.00029834272
-0.0001440043
-0.00025299373
-0.00014535998
-0.00020686431
-0.00014632887
-0.00016019975
-0.00014681618
-0.00014755953
0.00014445477
-0.00016906511
0.00018230229
-0.00016782162
0.00021960886
-0.00016670844
0.00025616702
-0.00016494093
0.00029177637
-0.00016258391
0.00032628381
-0.00015975912
0.00035949253
-0.00015639812
0.00039120777
-0.00015242011
0.00042122314
-0.00014780864
0.00044932938
-0.00014254436
0.00047532309
-0.00013659479
0.00049899124
-0.0001299461
0.00052013271
-0.00012258506
0.00053855343
-0.00011450479
0.00055406281
-0.00010571796
0.00056649635
-9.6246874e-05
0.0005757062
-8.6120615e-05
0.00058156837
-7.5384382e-05
0.00058400368
-6.4085917e-05
0.00058297883
-5.2280007e-05
0.00057852212
-4.0029639e-05
0.00057077437
-2.7403487e-05
0.0005599679
-1.4453815e-05
0.00054640934
-1.3491354e-06
0.00053035654
1.1291244e-05
0.00051151208
2.3980805e-05
0.00049175702
3.6543064e-05
0.00046990746
4.7802887e-05
0.00044607252
5.794535e-05
0.00042064197
6.7268575e-05
0.00039408523
7.595882e-05
0.00036688284
8.4210605e-05
0.00033951104
9.2182317e-05
0.00031236611
0.00010001753
0.0002858204
0.00010788628
0.00026011912
0.00011592646
0.00023539092
0.00012420404
0.0002117503
0.00013280747
0.0001893131
0.0001418663
0.00016815984
0.00015139014
0.00014835362
0.0001613001
0.00013000349
0.00017149261
0.00011318787
0.00018179067
9.7883763e-05
0.00019194405
8.4010853e-05
0.00020166538
7.143478e-05
0.00021066088
5.9927712e-05
0.00021864375
4.9173583e-05
0.00022536198
3.8795538e-05
0.00023062623
2.837129e-05
0.00023429559
1.7373285e-05
0.00023650407
5.3143558e-06
0.00023715074
-8.3914621e-06
0.0002361855
-2.3993592e-05
0.00023367003
-4.1823984e-05
0.00022970599
-6.2123597e-05
0.00022448923
-8.5023304e-05
0.00021826978
-0.00011054917
0.00021132996
-0.00013864584
0.00020392697
-0.00016920427
0.00019622103
-0.00020206492
0.00018835207
-0.00023701286
0.00018044197
-0.00027378708
0.00017253629
-0.0003120649
0.00016458407
-0.00035147181
0.00015641376
-0.0003916044
0.00014790858
-0.00043194679
0.00013904638
-0.00047188127
0.00012965825
-0.00051081884
0.00011949765
-0.00054821983
0.00010848771
-0.00058340808
9.6549094e-05
-0.0006157938
8.3626589e-05
-0.00064484465
6.9645504e-05
-0.00067020878
5.4509373e-05
-0.00069217843
3.8000394e-05
-0.00071178122
2.0478775e-05
-0.00072635737
3.3399932e-06
-0.00073723904
-1.3827479e-05
-0.00074399786
-3.092223e-05
-0.00074638242
-4.7361045e-05
-0.00074425795
-6.3036616e-05
-0.00073765214
-7.7857444e-05
-0.00072668455
-9.1764265e-05
-0.00071154196
-0.00010472157
-0.00069245494
-0.00011670704
-0.00066967957
-0.00012771051
-0.0006434898
-0.00013773238
-0.00061416329
-0.00014678457
-0.00058198656
-0.00015488976
-0.00054724335
-0.00016208342
-0.00051021192
-0.00016840956
-0.0004711555
-0.00017391665
-0.00043032488
-0.00017865736
-0.00038795705
-0.0001826792
-0.00034427565
-0.0001860256
-0.00029948644
-0.00018879141
-0.00025376498
-0.0001910902
-0.00020731769
-0.00019280665
-0.00016036962
-0.00019380649
-0.0001949887
0.00014563228
-0.00020784651
0.00018388908
-0.00020608619
0.0002216439
-0.00020445715
0.00025866909
-0.00020197074
0.00029480658
-0.00019871589
0.00032987105
-0.00019482533
0.00036367039
-0.00019019563
0.00039600108
-0.00018474918
0.00042665528
-0.00017846664
0.00045542873
-0.00017131577
0.00048210147
-0.00016326932
0.00050645981
-0.00015430744
0.00052829533
-0.00014441793
0.00054740011
-0.00013361052
0.00056358959
-0.00012190966
0.00057667601
-0.0001093314
0.00058649333
-9.5938363e-05
0.00059290996
-8.1802261e-05
0.00059585087
-6.702334e-05
0.00059527961
-5.1706573e-05
0.00059123129
-3.5983136e-05
0.00058385722
-2.0028207e-05
0.00057332456
-3.917934e-06
0.00055893793
1.3035754e-05
0.00054195519
2.8270902e-05
0.00052262941
4.3308704e-05
0.00050162086
5.7554286e-05
0.00047868277
7.0738361e-05
0.00045395638
8.2668303e-05
0.00042787603
9.3349189e-05
0.00040086941
0.00010296567
0.00037347458
0.00011160255
0.00034608354
0.00011957037
0.00031907919
0.00012702187
0.00029279711
0.00013416955
0.00026747157
0.00014124964
0.00024331021
0.00014835969
0.00022045079
0.0001556642
0.00019895303
0.00016336502
0.00017881221
0.00017152959
0.00015997568
0.00018013314
0.00014239113
0.00018907565
0.00012600383
0.00019817813
0.00011069921
0.00020724858
9.6317974e-05
0.00021604478
8.2680155e-05
0.00022429681
6.9571143e-05
0.00023175363
5.6744066e-05
0.00023818977
4.3939068e-05
0.00024343107
3.0865174e-05
0.00024736699
1.723167e-05
0.00025013517
2.4641852e-06
0.00025191795
-1.3554369e-05
0.00025220512
-3.1067953e-05
0.00025118397
-5.0317982e-05
0.00024895427
-7.1511833e-05
0.0002456826
-9.4813528e-05
0.00024157093
-0.00012032649
0.00023684369
-0.00014809113
0.00023169106
-0.00017813628
0.00022626298
-0.00021042781
0.00022064043
-0.00024488077
0.00021489359
-0.00028134117
0.00020899542
-0.0003194919
0.00020273687
-0.00035900455
0.00019592366
-0.00039943557
0.00018834065
-0.00044020064
0.00017981339
-0.00048073476
0.00017018989
-0.00052040981
0.00015917598
-0.00055862816
0.00014671064
-0.0005948184
0.00013273828
-0.00062827552
0.00011708335
-0.0006585653
9.993632e-05
-0.0006852894
8.123302e-05
-0.00070841109
6.1123426e-05
-0.00072817342
4.024367e-05
-0.00074396544
1.9132235e-05
-0.00075445839
-3.3349711e-06
-0.00076050443
-2.4877301e-05
-0.00076207056
-4.5797659e-05
-0.00075908943
-6.6019775e-05
-0.00075158378
-8.5363412e-05
-0.00073969012
-0.00010365694
-0.00072359636
-0.00012081401
-0.00070353481
-0.00013676745
-0.0006797829
-0.00015146019
-0.0006526308
-0.00016488345
-0.00062237893
-0.00017703509
-0.00058931631
-0.00018795105
-0.00055372923
-0.00019766908
-0.00051589917
-0.00020623947
-0.00047609584
-0.00021372117
-0.00043457232
-0.00022018213
-0.00039156649
-0.00022568478
-0.0003472979
-0.00023029074
-0.00030197499
-0.00023410535
-0.00025578338
-0.00023726412
-0.00020891221
-0.00023966821
-0.00016157187
-0.00024116353
-0.00024285179
0.00014670683
-0.00024709901
0.00018558601
-0.00024496089
0.00022397929
-0.00024285573
0.00026168055
-0.00023966762
0.00029852775
-0.00023556489
0.00033434683
-0.00023064309
0.00036893756
-0.00022478411
0.00040209442
-0.00021790906
0.00043361532
-0.00020998519
0.00046328078
-0.00020098141
0.00049086839
-0.00019085964
0.00051615674
-0.00017959342
0.0005389181
-0.00016717925
0.00055893003
-0.00015362453
0.00057597465
-0.00013895226
0.00058985014
-0.00012320604
0.00060038574
-0.00010647525
0.00060744366
-8.8857672e-05
0.0006109047
-7.0481881e-05
0.00061068564
-5.1489117e-05
0.00060675978
-3.2056693e-05
0.00059907904
-1.2343095e-05
0.00058805521
7.1065149e-06
0.00057424537
2.6842398e-05
0.00055727541
4.5241189e-05
0.00053739461
6.3192463e-05
0.00051522404
7.9723515e-05
0.00049097033
9.4987721e-05
0.00046508539
0.00010855245
0.00043792805
0.00012050779
0.00041001987
0.00013087138
0.00038169296
0.00013992561
0.00035353966
0.00014772357
0.00032602456
0.00015453776
0.00029943561
0.0001607559
0.00027401577
0.00016666511
0.0002499265
0.00017244599
0.00022721167
0.00017837881
0.00020586671
0.00018471052
0.00018586353
0.00019153016
0.00016715473
0.00019883792
0.00014967403
0.00020655519
0.00013330559
0.00021454683
0.00011791354
0.0002226402
0.00010333004
0.00023062694
8.9321582e-05
0.00023830397
7.5636311e-05
0.00024543933
6.2000726e-05
0.00025182429
4.8118859e-05
0.00025731083
3.3682039e-05
0.00026180172
1.848515e-05
0.00026533211
2.6488479e-06
0.0002677556
-1.4332e-05
0.00026918627
-3.2644864e-05
0.00026949734
-5.2529926e-05
0.00026883722
-7.4211591e-05
0.00026736424
-9.788651e-05
0.00026524647
-0.00012369981
0.00026265621
-0.00015176263
0.000259753
-0.00018214142
0.0002566386
-0.00021484026
0.00025333745
-0.00024978094
0.00024983529
-0.0002868051
0.00024601711
-0.0003256976
0.0002416312
-0.00036613919
0.0002363614
-0.00040768159
0.00022988042
-0.00044979732
0.00022193099
-0.00049185062
0.00021224363
-0.00053318671
0.00020050992
-0.00057309985
0.00018662429
-0.00061084944
0.00017049071
-0.00064590163
0.00015213595
-0.00067767606
0.00013171005
-0.00070565479
0.0001092117
-0.00072964058
8.510886e-05
-0.00074943589
6.0039043e-05
-0.00076426214
3.3959875e-05
-0.00077497722
7.3823835e-06
-0.00078099239
-1.886132e-05
-0.00078201496
-4.4775274e-05
-0.00077818166
-6.9851632e-05
-0.00076965477
-9.3889229e-05
-0.00075661885
-0.00011669352
-0.00073931695
-0.00013811667
-0.00071802507
-0.00015806124
-0.00069302428
-0.00017646334
-0.00066461987
-0.00019329001
-0.00063312181
-0.00020853335
-0.00059885154
-0.00022222283
-0.00056211239
-0.00023441003
-0.00052319438
-0.00024515727
-0.00048237313
-0.00025454225
-0.00043990178
-0.00026265358
-0.00039602057
-0.00026956961
-0.00035094678
-0.00027537097
-0.00030488876
-0.00028017161
-0.00025802435
-0.00028412656
-0.00021052409
-0.00028715402
-0.00016258801
-0.00028910254
-0.00029112318
0.0001482987
-0.000287062
0.0001879345
-0.00028460347
0.00022712673
-0.00028204393
0.00026568034
-0.00027822377
0.00030343564
-0.00027331913
0.00034020452
-0.00026740935
0.00037578643
-0.00026036829
0.00040998939
-0.00025210921
0.00044259407
-0.0002425887
0.00047337681
-0.00023176636
0.00050210715
-0.00021958787
0.00052854403
-0.00020602982
0.00055244415
-0.00019108179
0.00057356843
-0.00017474754
0.00059167939
-0.00015706197
0.000606561
-0.0001380891
0.00061800914
-0.00011792201
0.00062584354
-9.6689828e-05
0.0006299131
-7.455342e-05
0.00063014305
-5.1720042e-05
0.00062651636
-2.8425955e-05
0.00061913328
-4.9576557e-06
0.00060776341
1.8473919e-05
0.00059325579
4.1349132e-05
0.00057499788
6.3501566e-05
0.00055409662
8.4093494e-05
0.00053049705
0.00010331914
0.00050477154
0.00012071126
0.00047726353
0.00013606202
0.00044855336
0.00014921803
0.00041916943
0.00016025155
0.00038975944
0.00016933283
0.00036077429
0.00017670973
0.00033265716
0.00018265445
0.00030575141
0.0001876571
0.00028026088
0.0001921526
0.00025626979
0.0001964378
0.00023378909
0.00020085961
0.00021276303
0.00020573411
0.00019307476
0.00021121505
0.00017458647
0.00021732471
0.0001571491
0.00022399384
0.00014064869
0.00023104737
0.00012494362
0.00023834287
0.00010987816
0.00024569005
9.5280122e-05
0.00025290069
8.0939777e-05
0.00025977996
6.6607348e-05
0.0002661553
5.2055091e-05
0.00027186047
3.7103344e-05
0.00027675063
2.1518103e-05
0.00028091681
4.8459781e-06
0.00028442901
-1.2973963e-05
0.00028700632
-3.2137859e-05
0.00028866198
-5.2848093e-05
0.00028954777
-7.5283016e-05
0.00028979692
-9.960997e-05
0.00028957291
-0.00012598015
0.00028902329
-0.00015450512
0.00028827829
-0.00018529277
0.00028742547
-0.00021839596
0.00028643923
-0.00025384161
0.00028528106
-0.00029157024
0.00028374403
-0.00033140505
0.00028146406
-0.00037304121
0.00027799624
-0.00041605415
0.00027289211
-0.00045990037
0.00026577411
-0.00050388586
0.00025622603
-0.00054731431
0.00024393674
-0.00058940124
0.00022871282
-0.00062933798
0.00021043075
-0.00066650347
0.00018930367
-0.00070009825
0.00016530741
-0.00072972199
0.00013883668
-0.00075505842
0.00011044322
-0.00077548757
8.0465913e-05
-0.00079120452
4.9675272e-05
-0.00080171912
1.7895457e-05
-0.00080695205
-1.3629183e-05
-0.000807114
-4.461278e-05
-0.00080224036
-7.4723508e-05
-0.00079248831
-0.00010363978
-0.00077807794
-0.00013110254
-0.00075928314
-0.00015690899
-0.00073642133
-0.00018092254
-0.00070982613
-0.00020305903
-0.00067983765
-0.00022327769
-0.00064679095
-0.00024157734
-0.00061101956
-0.00025799178
-0.00057284385
-0.00027258269
-0.00053256421
-0.00028543296
-0.00049046562
-0.00029663789
-0.00044680834
-0.00030630839
-0.00040182532
-0.00031454893
-0.0003557339
-0.00032145667
-0.0003087444
-0.00032716384
-0.00026102882
-0.00033184711
-0.00021275274
-0.00033542793
-0.0001640868
-0.00033776903
-0.00034006352
0.00015017868
-0.00032790285
0.00019074545
-0.00032516766
0.00023089579
-0.00032219805
0.00027047771
-0.00031780544
0.00030931341
-0.00031215249
0.00034722179
-0.00030531991
0.00038401327
-0.00029715686
0.00041947583
-0.00028756995
0.00045339229
-0.0002765071
0.00048552681
-0.00026389893
0.0005156394
-0.00024969946
0.0005434722
-0.00023386507
0.00056876439
-0.00021637337
0.00059124841
-0.00019723033
0.00061065795
-0.00017647323
0.00062674175
-0.00015417253
0.00063925544
-0.00013043374
0.00064799314
-0.0001054298
0.00065277356
-7.9336725e-05
0.00065348104
-5.2425042e-05
0.00065003928
-2.4981164e-05
0.00064239823
2.6817298e-06
0.00063069871
3.0171889e-05
0.000615066
5.6984018e-05
0.00059595261
8.2615529e-05
0.0005733893
0.00010665303
0.00054795516
0.00012875097
0.00052015588
0.00014851261
0.0004905399
0.00016567947
0.00045973519
0.00018002047
0.00042843198
0.00019155163
0.00039727744
0.00020048624
0.00036692749
0.00020705986
0.00033783261
0.00021174804
0.00031039635
0.00021509055
0.00028480441
0.00021774389
0.00026107987
0.00022016344
0.0002391056
0.00022283224
0.00021869061
0.0002261457
0.00019962375
0.00023028109
0.0001816695
0.00023528091
0.00016463377
0.00024103144
0.00014831618
0.00024736306
0.00013256123
0.00025409335
0.00011723563
0.0002610133
0.00010217998
0.00026795582
8.7232477e-05
0.00027472703
7.2217275e-05
0.00028116741
5.6945784e-05
0.00028712881
4.1248817e-05
0.00029244581
2.4812479e-05
0.00029735349
7.4346536e-06
0.00030180737
-1.1239781e-05
0.00030568024
-3.1213773e-05
0.00030863199
-5.2649163e-05
0.00031098358
-7.5689481e-05
0.00031283641
-0.00010046825
0.00031435391
-0.00012714464
0.00031569813
-0.00015584977
0.00031698137
-0.00018676196
0.00031833583
-0.00022007547
0.00031975063
-0.00025591336
0.00032111586
-0.00029431198
0.00032214483
-0.00033520818
0.0003223582
-0.00037836836
0.0003211546
-0.00042336632
0.00031788949
-0.00046961029
0.00031202024
-0.0005163407
0.00030295803
-0.0005626834
0.00029027498
-0.00060772671
0.00027375318
-0.00065059248
0.00025329883
-0.00069043637
0.00022914888
-0.00072653509
0.00020140638
-0.00075830561
0.00017060793
-0.00078503209
0.00013716887
-0.00080661592
0.00010204829
-0.00082252419
6.5583239e-05
-0.00083314499
2.8516581e-05
-0.00083797976
-8.7940959e-06
-0.00083727519
-4.5316917e-05
-0.00083120244
-8.0795073e-05
-0.00081998249
-0.00011485817
-0.0008039092
-0.00014717599
-0.00078332063
-0.00017749951
-0.00075857561
-0.00020567085
-0.00073005325
-0.00023158371
-0.00069813632
-0.00025519601
-0.00066319796
-0.00027651599
-0.00062559675
-0.00029559167
-0.00058567495
-0.0003125036
-0.00054375023
-0.00032735793
-0.00050011048
-0.00034027823
-0.0004550207
-0.00035139816
-0.0004087149
-0.00036085054
-0.00036141263
-0.00036875409
-0.00031330646
-0.00037526907
-0.00026457439
-0.00038058382
-0.00021535903
-0.00038463963
-0.00016581452
-0.00038731458
-0.0003898132
0.0001523085
-0.00036977696
0.00019396247
-0.00036682755
0.00023525219
-0.00036348786
0.00027603463
-0.00035858637
0.00031613566
-0.00035225577
0.00035538189
-0.00034456304
0.00039358028
-0.00033535315
0.0004305184
-0.00032450989
0.00046597836
-0.00031196531
0.00049971684
-0.00029763604
0.00053146804
-0.00028145279
0.00056096156
-0.0002633582
0.00058791093
-0.00024332137
0.00061201521
-0.00022133631
0.00063297675
-0.00019743486
0.0006505
-0.00017169348
0.00066430224
-0.00014423762
0.00067411408
-0.00011524559
0.00067972993
-8.4951964e-05
0.00068097083
-5.3663239e-05
0.00067772431
-2.1735752e-05
0.00066986505
1.0539053e-05
0.00065741091
4.2627834e-05
0.0006408175
7.3578967e-05
0.00062011048
0.00010331932
0.00059556862
0.00013119134
0.00056786053
0.00015646088
0.00053748593
0.00017889077
0.00050509359
0.00019807071
0.00047155794
0.00021355232
0.00043763067
0.0002254778
0.00040413957
0.00023397792
0.00037188756
0.00023931099
0.00034144147
0.00024219267
0.00031323482
0.00024329672
0.00028744622
0.00024353267
0.00026399168
0.0002436177
0.00024262144
0.00024420104
0.00022300798
0.00024575878
0.00020477067
0.00024852041
0.0001875698
0.00025248283
0.00017113717
0.00025746246
0.00015524602
0.00026325117
0.00013973705
0.00026960011
0.00012445538
0.00027629503
0.00010925516
0.00028315531
9.3988393e-05
0.00028999062
7.8498006e-05
0.00029665256
6.2607737e-05
0.00030301603
4.6120407e-05
0.0003089333
2.8779548e-05
0.00031469623
1.0540172e-05
0.00032004459
-8.6626787e-06
0.00032488232
-2.9194758e-05
0.00032916101
-5.1088099e-05
0.00033287647
-7.4440721e-05
0.00033618868
-9.9375472e-05
0.0003392869
-0.00012605413
0.00034237536
-0.0001547065
0.00034563122
-0.0001855841
0.00034921263
-0.00021898753
0.00035315679
-0.00025521139
0.00035733757
-0.00029444194
0.00036137398
-0.00033673462
0.00036465085
-0.00038190582
0.00036632621
-0.00042952973
0.00036551127
-0.00047894956
0.00036143833
-0.00052926966
0.00035327751
-0.0005794502
0.00034045469
-0.0006284151
0.00032271872
-0.00067505916
0.00029994477
-0.00071831603
0.00027240729
-0.00075742655
0.00024051869
-0.00079152287
0.00020470547
-0.00082022674
0.00016587314
-0.00084300148
0.00012482391
-0.00085982567
8.2407732e-05
-0.00087020814
3.8897507e-05
-0.00087454109
-4.4620543e-06
-0.00087282946
-4.7027302e-05
-0.00086532082
-8.830216e-05
-0.00085234733
-0.00012783031
-0.00083428133
-0.00016524162
-0.00081152727
-0.00020025502
-0.00078451918
-0.00023268087
-0.00075369076
-0.00026241234
-0.00071947308
-0.00028941234
-0.00068228252
-0.00031370334
-0.00064251386
-0.00033535636
-0.00060053057
-0.00035448435
-0.00055666526
-0.00037122183
-0.00051121907
-0.00038572435
-0.00046445887
-0.00039816021
-0.00041661967
-0.00040869154
-0.00036791192
-0.00041746317
-0.00031851585
-0.00042466039
-0.00026860174
-0.00043049935
-0.00021830127
-0.00043493751
-0.00016773512
-0.00043787926
-0.00044051273
0.00015464483
-0.0004128428
0.000197544
-0.00040972794
0.00024012978
-0.00040607301
0.00028227714
-0.00040073664
0.00032382397
-0.0003937992
0.00036459767
-0.00038533449
0.00040441083
-0.00037516798
0.00044305927
-0.00036315654
0.00048030714
-0.00034921145
0.00051590235
-0.0003332328
0.0005495724
-0.00031512206
0.00058101837
-0.00029480231
0.00060991784
-0.00027222222
0.00063594421
-0.00024736284
0.00065875573
-0.00022024327
0.00067800127
-0.00019093906
0.00069334113
-0.00015958106
0.00070446213
-0.00012636706
0.00071108171
-9.1569454e-05
0.00071296438
-5.5546971e-05
0.00070998477
-1.8758447e-05
0.00070162167
1.890368e-05
0.00068877869
5.5473097e-05
0.00067057469
9.1780478e-05
0.00064795161
0.00012593811
0.00062111276
0.0001580304
0.00059039938
0.00018717792
0.00055674084
0.00021255024
0.00052092861
0.00023387972
0.00048380965
0.00025066883
0.0004464052
0.00026288343
0.00040989019
0.00027049399
0.00037513949
0.00027405974
0.00034294579
0.00027438466
0.00031380616
0.00027243718
0.0002878822
0.00026945763
0.00026491818
0.0002665814
0.00024446091
0.00026465787
0.00022594884
0.00026427194
0.00020882315
0.00026564804
0.00019260754
0.00026869774
0.00017693631
0.00027313066
0.00016159217
0.0002785932
0.00014642666
0.00028476504
0.0001313135
0.00029140754
0.00011613702
0.00029832966
0.0001007527
0.00030537232
8.5014313e-05
0.0003123886
6.876279e-05
0.00031926544
5.1830128e-05
0.00032586256
3.4090851e-05
0.00033243408
1.525967e-05
0.00033887357
-4.5857897e-06
0.0003447269
-2.5602374e-05
0.00035018013
-4.7840849e-05
0.00035511302
-7.1370488e-05
0.00035971737
-9.6309689e-05
0.00036422066
-0.00012283492
0.00036889747
-0.00015121674
0.00037401373
-0.00018182281
0.0003798181
-0.00021512072
0.00038645168
-0.00025158601
0.00039380619
-0.00029163999
0.00040142848
-0.0003354981
0.00040850849
-0.00038309516
0.00041392151
-0.00043402463
0.00041643713
-0.00048748487
0.00041489766
-0.00054238964
0.00040818329
-0.00059744714
0.00039551274
-0.00065135178
0.00037662378
-0.00070276339
0.00035135743
-0.00075036851
0.00032001312
-0.00079323914
0.00028338851
-0.00083041125
0.00024187632
-0.00086141326
0.00019687578
-0.00088569939
0.00014911129
-0.00090302175
9.9730747e-05
-0.00091351965
4.9397208e-05
-0.00091714943
-8.2842386e-07
-0.00091417047
-5.0002704e-05
-0.00090492218
-9.7548927e-05
-0.00088983262
-0.00014291862
-0.0008693631
-0.0001857096
-0.00084401632
-0.00022560163
-0.00081430442
-0.00026239374
-0.00078073689
-0.00029598081
-0.00074380437
-0.00032634374
-0.00070397196
-0.00035353282
-0.00066166874
-0.00037765618
-0.00061728759
-0.00039886204
-0.00057118058
-0.00041732756
-0.00052365676
-0.00043324763
-0.00047498458
-0.00044683226
-0.0004253999
-0.00045827714
-0.00037509958
-0.00046776166
-0.00032425584
-0.00047550387
-0.00027301318
-0.00048174412
-0.00022149832
-0.0004864586
-0.00016979724
-0.00048958083
-0.00049227196
0.00015715074
-0.00045722811
0.00020142958
-0.00045400803
0.00024545513
-0.00045010207
0.00028913049
-0.00044440872
0.00033229062
-0.00043695735
0.00037478327
-0.00042782867
0.00041642544
-0.00041680827
0.00045700898
-0.00040373829
0.00049629764
-0.0003885013
0.00053403105
-0.00037096493
0.00056991637
-0.00035100483
0.00060362917
-0.00032851604
0.00063481937
-0.00030341258
0.00066311334
-0.00027565308
0.00068811844
-0.00024524667
0.00070942165
-0.00021224459
0.00072662643
-0.00017678637
0.00073933861
-0.00013907745
0.00074718717
-9.941924e-05
0.00074984663
-5.8209504e-05
0.00074699315
-1.5904046e-05
0.00073881873
2.7081243e-05
0.00072467844
6.9611987e-05
0.00070528071
0.00011117327
0.00068007831
0.00015113912
0.00065033111
0.00018778046
0.0006159891
0.00022152108
0.00057829445
0.00025024251
0.00053803297
0.00027413948
0.00049633479
0.00029236806
0.00045453456
0.00030468489
0.00041400426
0.00031102306
0.00037598016
0.00031208128
0.00034152966
0.00030883467
0.000311268
0.00030270114
0.00028536712
0.00029536033
0.00026336614
0.00028858187
0.00024445775
0.00028356474
0.00022766731
0.00028106174
0.00021213261
0.00028118365
0.00019722076
0.00028360999
0.00018254352
0.00028780659
0.00016788855
0.00029324615
0.00015315019
0.0002995014
0.00013826748
0.00030628734
0.00012317483
0.00031341906
0.00010777356
0.00032077154
9.1930669e-05
0.0003282308
7.5491913e-05
0.0003357036
5.8295986e-05
0.00034305577
4.0197239e-05
0.00035052792
2.1094126e-05
0.00035797573
7.2711695e-07
0.00036508982
-2.073001e-05
0.00037163887
-4.3275326e-05
0.00037765651
-6.6925901e-05
0.00038336726
-9.1739667e-05
0.00038903373
-0.00011787805
0.000395032
-0.0001456532
0.00040178496
-0.00017555501
0.00040972305
-0.00020826017
0.00041915525
-0.00024455435
0.00043009913
-0.00028518476
0.00044206143
-0.00033066962
0.00045399671
-0.00038110392
0.00046435442
-0.00043611672
0.00047144699
-0.00049471034
0.00047348858
-0.00055548045
0.00046895166
-0.00061679457
0.00045682845
-0.00067695072
0.00043678273
-0.00073419011
0.00040859819
-0.00078716581
0.00037298954
-0.00083452386
0.00033074573
-0.00087546194
0.00028281105
-0.00090916639
0.00023057649
-0.00093518741
0.00017512891
-0.00095329364
0.00011783479
-0.00096367876
5.978226e-05
-0.00096638393
1.8768425e-06
-0.00096180255
-5.4585285e-05
-0.00095040441
-0.00010894835
-0.00093272121
-0.00016060314
-0.00090934837
-0.00020908393
-0.00088089634
-0.0002540549
-0.0008479744
-0.00029531567
-0.00081117473
-0.00033277959
-0.00077106009
-0.00036645545
-0.00072815141
-0.00039644005
-0.0006829222
-0.0004228864
-0.00063579107
-0.0004459947
-0.00058712982
-0.00046598872
-0.00053725411
-0.00048312092
-0.00048643546
-0.00049764656
-0.00043490218
-0.00050981
-0.00038283847
-0.00051982347
-0.00033040117
-0.0005279395
-0.0002777068
-0.00053443725
-0.00022486392
-0.00053930005
-0.00017193271
-0.00054251191
-0.00054518408
0.00015977366
-0.00050304914
0.00020554657
-0.00049978597
0.00025115365
-0.00049570594
0.00029649106
-0.00048974526
0.00034143084
-0.00048189879
0.00038582621
-0.00047222194
0.00042950596
-0.00046048654
0.00047226187
-0.0004464956
0.00051386006
-0.00043009815
0.00055402824
-0.00041113034
0.00059245369
-0.00038943105
0.00062878439
-0.00036484718
0.00066264094
-0.00033726543
0.00069359769
-0.0003066072
0.00072119559
-0.00027284578
0.00074496898
-0.00023601811
0.00076443086
-0.0001962464
0.00077909724
-0.00015374519
0.00078850614
-0.00010883212
0.00079224007
-6.1943663e-05
0.00078994078
-1.3601333e-05
0.00078142341
3.5598758e-05
0.00076626796
8.4762928e-05
0.00074480081
0.00013263752
0.00071733675
0.00017860477
0.00068383098
0.00022128754
0.00064526657
0.0002600832
0.00060247266
0.00029303442
0.00055654448
0.00032006963
0.00050900526
0.00033990987
0.00046154767
0.00035214102
0.00041579222
0.0003567749
0.00037349185
0.00035438078
0.00033614874
0.00034617993
0.00030463496
0.00033421667
0.00027909107
0.00032090372
0.00025879768
0.00030887386
0.00024231625
0.0003000455
0.00022809677
0.00029528065
0.00021485376
0.00029442557
0.00020173434
0.00029672766
0.00018831352
0.00030122547
0.00017446357
0.00030709429
0.00016020749
0.00031375623
0.00014559996
0.00032089238
0.00013066086
0.00032835379
0.00011533166
0.00033609621
9.9496661e-05
0.0003440639
8.2988338e-05
0.00035221036
6.5625875e-05
0.00036042016
4.7220227e-05
0.00036892975
2.7589026e-05
0.00037760491
7.0036085e-06
0.00038567235
-1.4891576e-05
0.00039353311
-3.7744427e-05
0.00040051089
-6.1454604e-05
0.00040707586
-8.5978776e-05
0.00041355417
-0.00011140573
0.00042045739
-0.00013806083
0.00042843936
-0.00016657429
0.00043823465
-0.00019791466
0.00045049983
-0.0002333028
0.0004654909
-0.00027401248
0.00048277486
-0.0003210485
0.00050103562
-0.00037481816
0.00051812287
-0.00043488188
0.00053150788
-0.00049993059
0.00053853424
-0.00056812514
0.00053714506
-0.00063734989
0.00052605424
-0.00070528427
0.00050471822
-0.00076996714
0.00047328139
-0.00082953897
0.00043256166
-0.00088243532
0.00038364115
-0.0009277853
0.00032815924
-0.00096458722
0.00026737829
-0.00099252836
0.00020307156
-0.0010114301
0.00013673836
-0.0010214797
6.9833802e-05
-0.0010229138
3.3125472e-06
-0.0010162767
-6.12201e-05
-0.0010021849
-0.0001230365
-0.00098132946
-0.00018145728
-0.00095444526
-0.00023596916
-0.00092227629
-0.00028622554
-0.00088554875
-0.00033204255
-0.00084495551
-0.00037336997
-0.00080113754
-0.00041027078
-0.00075467928
-0.00044289738
-0.00070609703
-0.00047146828
-0.00065584341
-0.00049624554
-0.00060430481
-0.00051752596
-0.00055180338
-0.00053562064
-0.00049860943
-0.00055084202
-0.00044493357
-0.00056348392
-0.0003909556
-0.00057380544
-0.00033679774
-0.00058209701
-0.00028255865
-0.0005886771
-0.00022830217
-0.00059355798
-0.00017407605
-0.00059674045
-0.00059930281
0.0001624568
-0.00055039677
0.0002098252
-0.00054715252
0.00025712481
-0.00054300628
0.00030425137
-0.00053687408
0.00035111961
-0.00052876491
0.00039759621
-0.00051869757
0.00044351688
-0.00050640916
0.00048868573
-0.00049166353
0.00053286781
-0.00047427784
0.00057577983
-0.00045404345
0.00061709313
-0.00043074529
0.0006564381
-0.00040418905
0.00069338516
-0.00037420995
0.00072745402
-0.00034067699
0.00075812985
-0.00030352153
0.00078486003
-0.00026274622
0.00080706065
-0.00021844832
0.00082414311
-0.00017083247
0.00083553346
-0.00012022404
0.0008406939
-6.7100987e-05
0.00083915845
-1.2064592e-05
0.00083058601
4.4167757e-05
0.00081425864
0.00010108722
0.00079080377
0.00015609317
0.00076014342
0.00020926628
0.00072243285
0.0002589963
0.0006786926
0.00030382139