/*--------------------------------*- C++ -*----------------------------------*\
  =========                 |
  \\      /  F ield         | OpenFOAM: The Open Source CFD Toolbox
   \\    /   O peration     | Website:  https://openfoam.org
    \\  /    A nd           | Version:  9
     \\/     M anipulation  |
\*---------------------------------------------------------------------------*/
FoamFile
{
    format      ascii;
    class       volVectorField;
    location    "0.32";
    object      U;
}
// * * * * * * * * * * * * * * * * * * * * * * * * * * * * * * * * * * * * * //

dimensions      [0 1 -1 0 0 0 0];

internalField   nonuniform List<vector> 
10000
(
(0.0099730973 -0.0087183425 0)
(0.0176537 -0.008704566 0)
(0.019913816 -0.0086896271 0)
(0.023459752 -0.0086499679 0)
(0.027242334 -0.0085843506 0)
(0.030753454 -0.0085011447 0)
(0.034068697 -0.0083974658 0)
(0.037260556 -0.0082695152 0)
(0.040302029 -0.0081159528 0)
(0.043157837 -0.0079362484 0)
(0.045808358 -0.0077288048 0)
(0.048235623 -0.0074920858 0)
(0.050419125 -0.0072259411 0)
(0.05233904 -0.0069297453 0)
(0.053978264 -0.0066029665 0)
(0.055320798 -0.0062469201 0)
(0.0563511 -0.00586396 0)
(0.057055147 -0.0054552268 0)
(0.0574206 -0.0050205203 0)
(0.057437461 -0.0045584555 0)
(0.057096939 -0.0040663911 0)
(0.056390765 -0.0035345792 0)
(0.055318872 -0.0029427453 0)
(0.05391017 -0.0022609047 0)
(0.052271545 -0.0014705224 0)
(0.050587843 -0.00062292638 0)
(0.04888494 0.00011245453 0)
(0.046974659 0.0007422356 0)
(0.044764907 0.0013231363 0)
(0.042317977 0.0018948024 0)
(0.039707171 0.002475408 0)
(0.036987166 0.0030793012 0)
(0.034214631 0.0037147351 0)
(0.031428889 0.0043793669 0)
(0.02866131 0.0050888608 0)
(0.025962212 0.0058525661 0)
(0.02336204 0.0066712225 0)
(0.020860944 0.0075554056 0)
(0.018474634 0.0085210361 0)
(0.016235589 0.0095670242 0)
(0.014153576 0.010681528 0)
(0.012240952 0.011859301 0)
(0.010526423 0.013078253 0)
(0.0090169935 0.01429439 0)
(0.0076994518 0.015466397 0)
(0.0065620121 0.016551579 0)
(0.005581469 0.017499277 0)
(0.0047140446 0.018265141 0)
(0.0039059201 0.018817338 0)
(0.0030965803 0.019137171 0)
(0.0022472555 0.019243289 0)
(0.0013394166 0.019139314 0)
(0.00027416509 0.018797879 0)
(-0.00094973851 0.018241803 0)
(-0.0023815551 0.017485975 0)
(-0.0040761596 0.016567869 0)
(-0.0060679476 0.0155361 0)
(-0.008374065 0.014442959 0)
(-0.010981143 0.013332022 0)
(-0.013872155 0.012230158 0)
(-0.017039734 0.011160178 0)
(-0.02046141 0.010143972 0)
(-0.024098726 0.009192874 0)
(-0.027901254 0.008307184 0)
(-0.031828379 0.0074726148 0)
(-0.035858219 0.0066736925 0)
(-0.039935754 0.0059125097 0)
(-0.043968105 0.0051856248 0)
(-0.047897808 0.0044676196 0)
(-0.051698692 0.0037460843 0)
(-0.05530925 0.0030317969 0)
(-0.058653839 0.0023156662 0)
(-0.06166458 0.0015880959 0)
(-0.064252916 0.0008279216 0)
(-0.066410588 -1.9303925e-05 0)
(-0.06827939 -0.00097964092 0)
(-0.07003446 -0.0020298205 0)
(-0.071575319 -0.0029372246 0)
(-0.072675564 -0.0037122867 0)
(-0.073279904 -0.0043945443 0)
(-0.073394431 -0.0050168387 0)
(-0.073042046 -0.005593589 0)
(-0.07224332 -0.0061268205 0)
(-0.071016392 -0.0066165823 0)
(-0.069382221 -0.0070651419 0)
(-0.067365827 -0.0074739422 0)
(-0.064993892 -0.0078428938 0)
(-0.062292831 -0.008171755 0)
(-0.05928938 -0.0084621931 0)
(-0.056011676 -0.0087161837 0)
(-0.0524875 -0.0089354704 0)
(-0.04874151 -0.0091221004 0)
(-0.04479828 -0.0092782735 0)
(-0.040697612 -0.009405667 0)
(-0.036469044 -0.0095063073 0)
(-0.032037918 -0.009584699 0)
(-0.02733069 -0.0096457356 0)
(-0.022902212 -0.0096832409 0)
(-0.019742421 -0.0096903024 0)
(-0.01089175 -0.0097039813 0)
(0.0099806352 -0.016614974 0)
(0.017684116 -0.016504471 0)
(0.019969054 -0.016415599 0)
(0.023564876 -0.016271915 0)
(0.027389801 -0.016075315 0)
(0.030938667 -0.015839584 0)
(0.034297474 -0.015557525 0)
(0.037537975 -0.015221796 0)
(0.040630323 -0.014830273 0)
(0.043539298 -0.014380936 0)
(0.046246475 -0.013870891 0)
(0.048732544 -0.013297906 0)
(0.050976309 -0.012660504 0)
(0.0529582 -0.011957436 0)
(0.054659188 -0.011189097 0)
(0.056061258 -0.010356763 0)
(0.057148718 -0.0094616519 0)
(0.057908222 -0.0085067537 0)
(0.058329593 -0.0074964077 0)
(0.058406826 -0.0064333132 0)
(0.058139896 -0.005315715 0)
(0.05753716 -0.0041355953 0)
(0.056617563 -0.002875359 0)
(0.055407208 -0.0015117385 0)
(0.053932334 -8.2404458e-05 0)
(0.052191286 0.0013571777 0)
(0.05026705 0.0026601091 0)
(0.048195025 0.0037891053 0)
(0.04591621 0.0048061253 0)
(0.043456669 0.0057589825 0)
(0.040866839 0.0066739806 0)
(0.03819349 0.0075739364 0)
(0.035476694 0.0084769407 0)
(0.032762862 0.0093939194 0)
(0.030091359 0.010342077 0)
(0.027488512 0.011324933 0)
(0.024977094 0.012334584 0)
(0.0225685 0.013371502 0)
(0.020269627 0.014444101 0)
(0.018091746 0.015547214 0)
(0.016043075 0.016669907 0)
(0.014130451 0.017803975 0)
(0.012359596 0.018929525 0)
(0.010736265 0.020018255 0)
(0.0092601637 0.021042153 0)
(0.0079181452 0.021974685 0)
(0.0066904562 0.022789726 0)
(0.0055514112 0.023463844 0)
(0.0044634396 0.023980676 0)
(0.0033900201 0.024328444 0)
(0.0023028876 0.024519385 0)
(0.0011303834 0.024544831 0)
(-0.00021284808 0.024392119 0)
(-0.0017106366 0.024080116 0)
(-0.0034098789 0.023610529 0)
(-0.0053398565 0.02300157 0)
(-0.0075206598 0.022276651 0)
(-0.0099612415 0.021463075 0)
(-0.012655687 0.020586464 0)
(-0.015595811 0.019663271 0)
(-0.018772119 0.018709973 0)
(-0.022165627 0.017742165 0)
(-0.025750277 0.016768221 0)
(-0.029494703 0.015789765 0)
(-0.03337185 0.014795784 0)
(-0.037346904 0.013782822 0)
(-0.041361234 0.012762223 0)
(-0.045358542 0.011724163 0)
(-0.049293915 0.010639169 0)
(-0.053103087 0.009498174 0)
(-0.056720411 0.0083032438 0)
(-0.060091328 0.0070387908 0)
(-0.063157414 0.0056936311 0)
(-0.065873156 0.0042456597 0)
(-0.068234793 0.0026396734 0)
(-0.070307977 0.0008605285 0)
(-0.072010812 -0.0010170712 0)
(-0.073276022 -0.0028125086 0)
(-0.074148767 -0.0044549071 0)
(-0.074596354 -0.0059687047 0)
(-0.0746007 -0.0073800545 0)
(-0.074156051 -0.0086996193 0)
(-0.07326919 -0.0099310358 0)
(-0.071956227 -0.011073647 0)
(-0.07023824 -0.012125338 0)
(-0.068139122 -0.013085627 0)
(-0.065685227 -0.013955786 0)
(-0.062904536 -0.014738265 0)
(-0.059825312 -0.015436197 0)
(-0.056475896 -0.016053245 0)
(-0.052884616 -0.016593696 0)
(-0.049076809 -0.017062107 0)
(-0.045076605 -0.01746341 0)
(-0.040923122 -0.017802023 0)
(-0.036647884 -0.018081796 0)
(-0.032178415 -0.018311781 0)
(-0.027431378 -0.018502368 0)
(-0.022952908 -0.018641859 0)
(-0.019770746 -0.01871919 0)
(-0.010906893 -0.018825229 0)
(0.010066689 -0.01821889 0)
(0.017829558 -0.018055344 0)
(0.020139124 -0.017909087 0)
(0.023793864 -0.017687906 0)
(0.027671398 -0.017398892 0)
(0.031270061 -0.017055039 0)
(0.034685416 -0.016647854 0)
(0.037986923 -0.016169539 0)
(0.041142232 -0.015618372 0)
(0.044116692 -0.014991818 0)
(0.046890941 -0.014287109 0)
(0.049445407 -0.013502721 0)
(0.051758857 -0.012637475 0)
(0.053809805 -0.011691573 0)
(0.055578278 -0.010666672 0)
(0.057046946 -0.0095658002 0)
(0.058198507 -0.0083939937 0)
(0.059016516 -0.0071575105 0)
(0.059489952 -0.0058631436 0)
(0.059614391 -0.0045188516 0)
(0.059390754 -0.003135243 0)
(0.058826843 -0.0017279381 0)
(0.057938464 -0.00031949799 0)
(0.056699496 0.0010750935 0)
(0.055137447 0.0024552871 0)
(0.053328049 0.0037885643 0)
(0.051316696 0.0050697648 0)
(0.049125879 0.0062283289 0)
(0.046749602 0.0072670843 0)
(0.04421472 0.0082076618 0)
(0.041568902 0.0090664515 0)
(0.038858993 0.0098588988 0)
(0.036131872 0.010601035 0)
(0.033428809 0.011310131 0)
(0.030777506 0.012003303 0)
(0.028205142 0.012700176 0)
(0.025739994 0.01341991 0)
(0.023399211 0.014180309 0)
(0.021188619 0.01499835 0)
(0.019110043 0.015880007 0)
(0.01716222 0.016820237 0)
(0.015340176 0.017805397 0)
(0.013635711 0.018818124 0)
(0.012037841 0.01983658 0)
(0.010534312 0.020830614 0)
(0.0091123257 0.021766807 0)
(0.0077507814 0.022614314 0)
(0.0064244163 0.023346553 0)
(0.0051048791 0.023940779 0)
(0.0037733479 0.024376493 0)
(0.0024117661 0.024637903 0)
(0.00096516593 0.024719857 0)
(-0.00062667864 0.024625798 0)
(-0.0023375664 0.024380863 0)
(-0.0042047044 0.023999485 0)
(-0.0062507363 0.023503885 0)
(-0.0084952521 0.022920112 0)
(-0.010952161 0.022276933 0)
(-0.013627389 0.021600707 0)
(-0.016523178 0.020908851 0)
(-0.019641152 0.020214468 0)
(-0.022977842 0.019526838 0)
(-0.026519059 0.018846748 0)
(-0.030244007 0.018162476 0)
(-0.034122998 0.017452406 0)
(-0.038111614 0.01669841 0)
(-0.04215958 0.015882848 0)
(-0.04621419 0.014981167 0)
(-0.050214549 0.01397658 0)
(-0.05409963 0.012862077 0)
(-0.057813222 0.01162417 0)
(-0.061291761 0.010259918 0)
(-0.064474252 0.0087646432 0)
(-0.067316593 0.0071360301 0)
(-0.069802047 0.0053765798 0)
(-0.071941165 0.0035140613 0)
(-0.07371196 0.0016411761 0)
(-0.075016877 -0.00024528035 0)
(-0.075834739 -0.0021263836 0)
(-0.076207332 -0.0039722405 0)
(-0.076127123 -0.0057522608 0)
(-0.07559409 -0.0074487904 0)
(-0.074617679 -0.0090499321 0)
(-0.073211379 -0.010548776 0)
(-0.07139588 -0.011941184 0)
(-0.069198225 -0.013224493 0)
(-0.066647724 -0.014397767 0)
(-0.063773226 -0.015461103 0)
(-0.060603213 -0.016416326 0)
(-0.057167099 -0.01726704 0)
(-0.053493746 -0.018017902 0)
(-0.049608632 -0.018674264 0)
(-0.04553626 -0.019242038 0)
(-0.041315428 -0.019726539 0)
(-0.036979503 -0.020132847 0)
(-0.032458694 -0.020470944 0)
(-0.027659748 -0.020753281 0)
(-0.023121616 -0.020968947 0)
(-0.019917656 -0.02110364 0)
(-0.010998322 -0.021262929 0)
(0.01014206 -0.022805174 0)
(0.017970857 -0.022620778 0)
(0.020330958 -0.022439442 0)
(0.024064411 -0.022160649 0)
(0.028012167 -0.021797459 0)
(0.031679704 -0.021361754 0)
(0.035172009 -0.020842311 0)
(0.038555294 -0.020231024 0)
(0.041795277 -0.019525321 0)
(0.044857491 -0.018722248 0)
(0.047722141 -0.017818312 0)
(0.05036896 -0.016811206 0)
(0.052775067 -0.015700244 0)
(0.054917741 -0.014486206 0)
(0.056775287 -0.013171397 0)
(0.058326571 -0.011760443 0)
(0.059552338 -0.010260511 0)
(0.060437233 -0.0086797218 0)
(0.060969545 -0.0070285256 0)
(0.061139292 -0.0053210222 0)
(0.060938934 -0.003574568 0)
(0.06036499 -0.0018086035 0)
(0.059436513 -4.3857212e-05 0)
(0.058201605 0.0016783111 0)
(0.056668995 0.0033945521 0)
(0.054832065 0.0050472152 0)
(0.052734755 0.0066209463 0)
(0.050419464 0.0080665454 0)
(0.047919489 0.0093711222 0)
(0.045274444 0.010537337 0)
(0.042528714 0.011572237 0)
(0.039729292 0.012484473 0)
(0.036919321 0.01329498 0)
(0.034146832 0.014022314 0)
(0.031453954 0.014690212 0)
(0.028866747 0.015327127 0)
(0.02640294 0.015953063 0)
(0.024072831 0.01658827 0)
(0.021878315 0.017254622 0)
(0.019816648 0.01796228 0)
(0.017882043 0.018710034 0)
(0.016068584 0.019491533 0)
(0.014370269 0.020295634 0)
(0.012773971 0.021106688 0)
(0.011259939 0.021908625 0)
(0.0098084151 0.022680693 0)
(0.0083977739 0.023398104 0)
(0.0070021571 0.024037898 0)
(0.0055890903 0.02458255 0)
(0.0041310852 0.025018146 0)
(0.0026235778 0.025334639 0)
(0.0010409345 0.025530367 0)
(-0.00066567246 0.025605627 0)
(-0.0024649034 0.025569581 0)
(-0.0044046593 0.025434023 0)
(-0.006507187 0.025215655 0)
(-0.008794137 0.024933721 0)
(-0.011282328 0.024608412 0)
(-0.013985192 0.024253788 0)
(-0.016913142 0.023876768 0)
(-0.020068969 0.023479594 0)
(-0.02344795 0.023060645 0)
(-0.027040584 0.02261113 0)
(-0.03083074 0.022109416 0)
(-0.034790847 0.021528054 0)
(-0.038881252 0.020840803 0)
(-0.043053627 0.020020117 0)
(-0.047252355 0.019042826 0)
(-0.051412312 0.01789029 0)
(-0.055465099 0.016546271 0)
(-0.059341325 0.015007344 0)
(-0.062975948 0.013278025 0)
(-0.066309877 0.011364845 0)
(-0.06929053 0.0092866762 0)
(-0.07188438 0.0070607257 0)
(-0.074067614 0.0047260183 0)
(-0.075790065 0.0023597748 0)
(-0.077059086 -2.548332e-06 0)
(-0.077887303 -0.0023670641 0)
(-0.078229762 -0.0046910464 0)
(-0.078080806 -0.0069453884 0)
(-0.077454144 -0.0091071575 0)
(-0.076367195 -0.011156742 0)
(-0.074843121 -0.013080497 0)
(-0.072906931 -0.014869808 0)
(-0.070586012 -0.016519814 0)
(-0.067910034 -0.018028391 0)
(-0.064909778 -0.01939512 0)
(-0.061616966 -0.02062227 0)
(-0.058062929 -0.021714066 0)
(-0.054277632 -0.02267628 0)
(-0.050287387 -0.023515791 0)
(-0.046116585 -0.024240235 0)
(-0.041803666 -0.024856654 0)
(-0.037384083 -0.02537232 0)
(-0.032790868 -0.025798152 0)
(-0.027921792 -0.026148771 0)
(-0.023303637 -0.026415396 0)
(-0.020050782 -0.026581443 0)
(-0.011072739 -0.026755714 0)
(0.01025184 -0.02669619 0)
(0.018172982 -0.026463873 0)
(0.020596639 -0.026229676 0)
(0.024426054 -0.025877846 0)
(0.028460724 -0.025425922 0)
(0.032216238 -0.024882858 0)
(0.035805857 -0.024235977 0)
(0.039292486 -0.023477048 0)
(0.042638989 -0.022602517 0)
(0.045811006 -0.0216087 0)
(0.048788831 -0.02049108 0)
(0.051550331 -0.019247033 0)
(0.054070845 -0.017876005 0)
(0.056326284 -0.016378733 0)
(0.058292772 -0.014758328 0)
(0.059947395 -0.013020406 0)
(0.061269322 -0.011172854 0)
(0.062239558 -0.0092268906 0)
(0.062841469 -0.0071977911 0)
(0.063063164 -0.0051041508 0)
(0.062899913 -0.0029659933 0)
(0.062356035 -0.00080447379 0)
(0.061424991 0.0013579043 0)
(0.06013774 0.0034849534 0)
(0.058505853 0.0055188373 0)
(0.056553089 0.0074439772 0)
(0.054333625 0.0092345519 0)
(0.051873144 0.010860974 0)
(0.049218354 0.012308506 0)
(0.046416339 0.013567971 0)
(0.043520012 0.014644963 0)
(0.040588463 0.015552252 0)
(0.037679731 0.016314073 0)
(0.034839975 0.016962398 0)
(0.032107661 0.017531805 0)
(0.02950261 0.018054624 0)
(0.027036747 0.018556678 0)
(0.024723846 0.019066215 0)
(0.022561663 0.019612033 0)
(0.020533578 0.020208047 0)
(0.018626056 0.020853769 0)
(0.016827548 0.021542981 0)
(0.015123984 0.022263137 0)
(0.013502538 0.022995023 0)
(0.011949665 0.023719126 0)
(0.010446369 0.024418121 0)
(0.0089713739 0.025075196 0)
(0.0075046125 0.025673369 0)
(0.0060207902 0.02619951 0)
(0.0045012284 0.026646613 0)
(0.0029356965 0.027026112 0)
(0.0012928736 0.027336387 0)
(-0.00048854554 0.027565267 0)
(-0.0023768789 0.02770076 0)
(-0.0044034375 0.027754714 0)
(-0.0065872201 0.027738591 0)
(-0.0089450182 0.027665766 0)
(-0.011493345 0.02754901 0)
(-0.01424763 0.027400938 0)
(-0.017218869 0.027231403 0)
(-0.020413651 0.027042493 0)
(-0.023835564 0.026828944 0)
(-0.027486569 0.026574201 0)
(-0.031358703 0.026247262 0)
(-0.035424768 0.025811538 0)
(-0.039646045 0.025232823 0)
(-0.04397625 0.024474685 0)
(-0.048357405 0.023504961 0)
(-0.052721179 0.022299719 0)
(-0.056989898 0.020840883 0)
(-0.061084854 0.019122241 0)
(-0.064933642 0.017147789 0)
(-0.068463274 0.014933112 0)
(-0.071618723 0.01249812 0)
(-0.074361586 0.009873809 0)
(-0.076641872 0.0071130877 0)
(-0.078441161 0.0042613858 0)
(-0.079744643 0.0013531059 0)
(-0.080523236 -0.0015510072 0)
(-0.080783918 -0.0043973851 0)
(-0.080539506 -0.0071588267 0)
(-0.079799656 -0.0098088974 0)
(-0.078583145 -0.012325953 0)
(-0.076914987 -0.014692402 0)
(-0.074824784 -0.016894903 0)
(-0.072345435 -0.018925606 0)
(-0.069510615 -0.020781041 0)
(-0.066353709 -0.022461683 0)
(-0.062908252 -0.02397079 0)
(-0.05920733 -0.025313479 0)
(-0.055282355 -0.02649696 0)
(-0.051160177 -0.027529845 0)
(-0.046865557 -0.028421996 0)
(-0.042437303 -0.029182823 0)
(-0.037912436 -0.029820405 0)
(-0.033226469 -0.030347874 0)
(-0.028268466 -0.030781666 0)
(-0.023554407 -0.031113531 0)
(-0.020241927 -0.031329414 0)
(-0.011178003 -0.031546403 0)
(0.010379792 -0.030744238 0)
(0.018413171 -0.030482645 0)
(0.020916764 -0.030205501 0)
(0.024858528 -0.029793686 0)
(0.028997999 -0.029264473 0)
(0.032860893 -0.028625876 0)
(0.036567882 -0.027863809 0)
(0.040177999 -0.026969418 0)
(0.043652338 -0.025938099 0)
(0.046957424 -0.024764197 0)
(0.050072418 -0.023442645 0)
(0.052972951 -0.021970197 0)
(0.055632908 -0.020345282 0)
(0.058026027 -0.018568349 0)
(0.060125556 -0.016642994 0)
(0.061905479 -0.014575789 0)
(0.063341266 -0.012377229 0)
(0.064410079 -0.010061982 0)
(0.065092448 -0.0076486838 0)
(0.065373679 -0.0051596142 0)
(0.065243885 -0.0026212672 0)
(0.064696968 -6.5239308e-05 0)
(0.063736819 0.002466178 0)
(0.06237624 0.0049423481 0)
(0.060644454 0.0073128629 0)
(0.058566657 0.009559939 0)
(0.056172698 0.011625016 0)
(0.053516197 0.013483233 0)
(0.050650781 0.015109788 0)
(0.047636218 0.016489086 0)
(0.044539551 0.017624683 0)
(0.04142694 0.018535001 0)
(0.038362239 0.019242199 0)
(0.035404335 0.019781408 0)
(0.032598441 0.02020341 0)
(0.029964456 0.020559198 0)
(0.027510088 0.020893531 0)
(0.025239113 0.021247644 0)
(0.023135954 0.02165459 0)
(0.021171276 0.02213143 0)
(0.01932242 0.022680395 0)
(0.017571596 0.023291635 0)
(0.015898579 0.023950169 0)
(0.014283774 0.024639303 0)
(0.012712549 0.025339453 0)
(0.011171471 0.026031045 0)
(0.0096430979 0.026697402 0)
(0.0081096184 0.027325776 0)
(0.0065499067 0.027902101 0)
(0.0049531581 0.02841437 0)
(0.0033174134 0.028867121 0)
(0.00159879 0.029259591 0)
(-0.00027440118 0.029584762 0)
(-0.0022523479 0.029824324 0)
(-0.0043581698 0.030000471 0)
(-0.0066098648 0.030122728 0)
(-0.0090229126 0.030204461 0)
(-0.011610814 0.030257428 0)
(-0.01438767 0.03029588 0)
(-0.017372313 0.030329149 0)
(-0.020582146 0.030357257 0)
(-0.024031399 0.030370346 0)
(-0.027733915 0.03034478 0)
(-0.031690729 0.030239162 0)
(-0.035881757 0.030003021 0)
(-0.040275661 0.029584486 0)
(-0.044827114 0.028931009 0)
(-0.04946703 0.027995163 0)
(-0.054112894 0.026741599 0)
(-0.058676815 0.025148354 0)
(-0.06306643 0.023208081 0)
(-0.067195052 0.020933215 0)
(-0.070987566 0.018350231 0)
(-0.074375362 0.015490273 0)
(-0.077292163 0.012408117 0)
(-0.07969995 0.0091568688 0)
(-0.081566865 0.0057871518 0)
(-0.082885009 0.0023624181 0)
(-0.083648303 -0.0010569326 0)
(-0.083845152 -0.0044325023 0)
(-0.08349687 -0.007714902 0)
(-0.082623053 -0.010866609 0)
(-0.081249765 -0.01385849 0)
(-0.07940843 -0.01666852 0)
(-0.077133965 -0.019281744 0)
(-0.074463677 -0.021688703 0)
(-0.071435803 -0.023884852 0)
(-0.068087927 -0.025870289 0)
(-0.064456391 -0.027649034 0)
(-0.06057654 -0.029228202 0)
(-0.056481825 -0.030617152 0)
(-0.052200713 -0.031826742 0)
(-0.047758139 -0.032869341 0)
(-0.043191418 -0.033757022 0)
(-0.038539534 -0.034499657 0)
(-0.033741899 -0.03511261 0)
(-0.028677424 -0.035614109 0)
(-0.023851203 -0.035997359 0)
(-0.020463801 -0.036249516 0)
(-0.01129651 -0.036489578 0)
(0.010521627 -0.034879354 0)
(0.018686527 -0.034593594 0)
(0.021286803 -0.034277345 0)
(0.025358036 -0.033811171 0)
(0.029619694 -0.033210008 0)
(0.033608618 -0.032481813 0)
(0.037452892 -0.031611024 0)
(0.041207714 -0.030587188 0)
(0.044833334 -0.02940377 0)
(0.048295672 -0.028053721 0)
(0.051572335 -0.026531046 0)
(0.054637773 -0.024831025 0)
(0.057463822 -0.022950958 0)
(0.060021002 -0.020890893 0)
(0.062279334 -0.01865435 0)
(0.06420917 -0.016248618 0)
(0.065781568 -0.013685558 0)
(0.066969083 -0.01098233 0)
(0.067747451 -0.0081608295 0)
(0.068097182 -0.0052486884 0)
(0.068004145 -0.0022790676 0)
(0.067456335 0.00071214829 0)
(0.066447834 0.0036660325 0)
(0.065001609 0.0065616937 0)
(0.0631423 0.0093279864 0)
(0.06088531 0.011917255 0)
(0.058277702 0.014291003 0)
(0.055379263 0.016399682 0)
(0.052245928 0.018213029 0)
(0.048953124 0.019714737 0)
(0.045587702 0.020899923 0)
(0.042228066 0.0217793 0)
(0.038950477 0.022387803 0)
(0.035828876 0.022775552 0)
(0.032919147 0.023006027 0)
(0.030240972 0.02314995 0)
(0.027794408 0.023270329 0)
(0.025571093 0.02342206 0)
(0.023540689 0.023648388 0)
(0.021660015 0.023973354 0)
(0.019892611 0.024400526 0)
(0.018209601 0.024917261 0)
(0.016587586 0.025503048 0)
(0.015006736 0.026137463 0)
(0.01344989 0.026801814 0)
(0.011902149 0.027478155 0)
(0.010348895 0.028148597 0)
(0.0087748726 0.028800336 0)
(0.0071564826 0.029421552 0)
(0.005486163 0.029998658 0)
(0.0037660729 0.03053406 0)
(0.0019736369 0.031007034 0)
(2.2362778e-05 0.031433544 0)
(-0.0020321578 0.031795372 0)
(-0.0041928841 0.032105847 0)
(-0.0064848265 0.032376088 0)
(-0.0089217325 0.032622917 0)
(-0.011517993 0.032862947 0)
(-0.014292093 0.033111165 0)
(-0.017270564 0.03337737 0)
(-0.020481038 0.033663961 0)
(-0.023951275 0.033956893 0)
(-0.02771105 0.034222362 0)
(-0.031775831 0.034404146 0)
(-0.036134866 0.034430976 0)
(-0.040759214 0.034227363 0)
(-0.045599757 0.033723593 0)
(-0.050578444 0.032856529 0)
(-0.055598368 0.031577103 0)
(-0.060552362 0.029858407 0)
(-0.065327146 0.027694138 0)
(-0.069817208 0.0251006 0)
(-0.073930825 0.022115924 0)
(-0.07758472 0.018793167 0)
(-0.080718301 0.015197631 0)
(-0.083285074 0.011386943 0)
(-0.085255999 0.0074407055 0)
(-0.086606613 0.0034230411 0)
(-0.087333069 -0.00058901876 0)
(-0.087453577 -0.0045417543 0)
(-0.086981906 -0.0083815417 0)
(-0.085948144 -0.01206403 0)
(-0.084386671 -0.015554059 0)
(-0.082336625 -0.018825316 0)
(-0.079840429 -0.021859927 0)
(-0.076941411 -0.024647223 0)
(-0.073682875 -0.027183105 0)
(-0.070107066 -0.029468879 0)
(-0.066254406 -0.031510457 0)
(-0.062163288 -0.033317524 0)
(-0.05786874 -0.034901924 0)
(-0.053400469 -0.036277474 0)
(-0.048784122 -0.037459185 0)
(-0.044056497 -0.038461794 0)
(-0.039257742 -0.039298492 0)
(-0.034329951 -0.039986629 0)
(-0.029142414 -0.040546525 0)
(-0.024189183 -0.040973029 0)
(-0.020712227 -0.041255354 0)
(-0.011425521 -0.041513044 0)
(0.010674735 -0.039124898 0)
(0.018988897 -0.038820429 0)
(0.021701067 -0.038469326 0)
(0.025917096 -0.037955823 0)
(0.030318722 -0.037290457 0)
(0.034452017 -0.036480199 0)
(0.038453299 -0.035508716 0)
(0.042375057 -0.034363116 0)
(0.046175505 -0.033034999 0)
(0.049819983 -0.03151582 0)
(0.053285327 -0.029797013 0)
(0.056544115 -0.027872135 0)
(0.059565377 -0.025736798 0)
(0.062316521 -0.023389994 0)
(0.064763743 -0.020834583 0)
(0.066872587 -0.018078082 0)
(0.06860851 -0.015133389 0)
(0.069938698 -0.012019651 0)
(0.070833208 -0.008762316 0)
(0.071266165 -0.0053945511 0)
(0.071219183 -0.0019572719 0)
(0.070659854 0.001498735 0)
(0.069606996 0.0049373824 0)
(0.068061454 0.0082902143 0)
(0.066025646 0.011502163 0)
(0.063557228 0.014487767 0)
(0.060684169 0.017210657 0)
(0.057468675 0.019601042 0)
(0.053997624 0.021619933 0)
(0.050356035 0.023244499 0)
(0.046636959 0.024460032 0)
(0.042947581 0.025277438 0)
(0.039393526 0.025739946 0)
(0.036061968 0.025914404 0)
(0.033019463 0.025886153 0)
(0.030292027 0.025753596 0)
(0.027869674 0.025609362 0)
(0.025722437 0.025531118 0)
(0.023796711 0.025572321 0)
(0.022029047 0.025756121 0)
(0.020367209 0.02607796 0)
(0.018771812 0.026518232 0)
(0.017214456 0.027050778 0)
(0.015676724 0.027647424 0)
(0.014145348 0.028285494 0)
(0.012606854 0.028948217 0)
(0.011046656 0.029619476 0)
(0.0094532999 0.030286879 0)
(0.0078020142 0.030942836 0)
(0.0060867633 0.031576181 0)
(0.0043016957 0.032193374 0)
(0.0024479524 0.03277102 0)
(0.00044835107 0.033306346 0)
(-0.0016580289 0.03380583 0)
(-0.0038647585 0.034258856 0)
(-0.0061856974 0.034679958 0)
(-0.0086326631 0.035088877 0)
(-0.011221545 0.035507834 0)
(-0.013974903 0.03595736 0)
(-0.016924969 0.036455573 0)
(-0.020113563 0.037010008 0)
(-0.023587878 0.037606062 0)
(-0.027396161 0.038201983 0)
(-0.031573972 0.03872584 0)
(-0.036129739 0.039080054 0)
(-0.041039664 0.039159527 0)
(-0.046246982 0.038868163 0)
(-0.051658693 0.038115436 0)
(-0.057153876 0.036832654 0)
(-0.062600774 0.034988918 0)
(-0.067863718 0.03258374 0)
(-0.072811541 0.029644147 0)
(-0.07733117 0.026217583 0)
(-0.081327662 0.022375439 0)
(-0.084730319 0.01818909 0)
(-0.087486335 0.013752245 0)
(-0.089557113 0.0091532728 0)
(-0.090937781 0.0044885288 0)
(-0.091632707 -0.00017654937 0)
(-0.09165365 -0.0047609853 0)
(-0.091031094 -0.0092037114 0)
(-0.089803235 -0.013452806 0)
(-0.088014628 -0.017467349 0)
(-0.085714072 -0.02121794 0)
(-0.082952337 -0.024684796 0)
(-0.079780711 -0.027856984 0)
(-0.076249171 -0.030731517 0)
(-0.072405307 -0.033311983 0)
(-0.068293879 -0.035607224 0)
(-0.06395627 -0.037629981 0)
(-0.059429779 -0.039395736 0)
(-0.054745843 -0.040921997 0)
(-0.049930272 -0.042227771 0)
(-0.045019103 -0.043330598 0)
(-0.040053713 -0.044246986 0)
(-0.034978513 -0.044997013 0)
(-0.029652559 -0.0456034 0)
(-0.024558927 -0.046062894 0)
(-0.020980324 -0.046367636 0)
(-0.011562098 -0.046635203 0)
(0.010836859 -0.043497137 0)
(0.019314926 -0.043179081 0)
(0.022152913 -0.042799514 0)
(0.026528157 -0.04224605 0)
(0.031086631 -0.041524956 0)
(0.035382365 -0.040642177 0)
(0.039560777 -0.039579504 0)
(0.043671447 -0.038321744 0)
(0.047670535 -0.036858551 0)
(0.051523801 -0.035178405 0)
(0.055206753 -0.033270037 0)
(0.058689709 -0.031124547 0)
(0.061939012 -0.02873523 0)
(0.064918234 -0.02609881 0)
(0.067588747 -0.02321685 0)
(0.069910555 -0.02009661 0)
(0.071843216 -0.016751286 0)
(0.07334692 -0.013201065 0)
(0.074383304 -0.0094748372 0)
(0.074917318 -0.005610587 0)
(0.074916785 -0.0016554218 0)
(0.074374186 0.0023327402 0)
(0.073266044 0.0063118984 0)
(0.071596307 0.01017443 0)
(0.069372861 0.013871752 0)
(0.06662963 0.017325597 0)
(0.063428705 0.02044423 0)
(0.059828042 0.023166465 0)
(0.055930548 0.025429369 0)
(0.051835565 0.02718315 0)
(0.047662522 0.028409153 0)
(0.043549926 0.029127318 0)
(0.039631478 0.029383231 0)
(0.036023316 0.029258865 0)
(0.032812534 0.028873155 0)
(0.030035022 0.028368439 0)
(0.027671758 0.02788308 0)
(0.025660949 0.027524008 0)
(0.023905782 0.027355674 0)
(0.022306006 0.027400112 0)
(0.020788201 0.027641708 0)
(0.019306386 0.028041383 0)
(0.017831378 0.028554837 0)
(0.016347482 0.029143796 0)
(0.014847806 0.029781907 0)
(0.013324444 0.03045253 0)
(0.011765674 0.031142947 0)
(0.010164778 0.031842232 0)
(0.0084967482 0.032545317 0)
(0.0067540454 0.033243234 0)
(0.0049324654 0.033943559 0)
(0.0030346318 0.034630561 0)
(0.00099260515 0.035286495 0)
(-0.0011568917 0.035906746 0)
(-0.0034068224 0.036482965 0)
(-0.0057527893 0.037031319 0)
(-0.0082017785 0.037574589 0)
(-0.010766617 0.038143641 0)
(-0.013470679 0.038771456 0)
(-0.016353994 0.039491482 0)
(-0.019475287 0.040323943 0)
(-0.022906442 0.04126124 0)
(-0.02672639 0.042254539 0)
(-0.031006487 0.043208725 0)
(-0.035782914 0.043991987 0)
(-0.041037158 0.044458517 0)
(-0.046703703 0.044466811 0)
(-0.052669709 0.043890552 0)
(-0.058777341 0.042640034 0)
(-0.064851448 0.040677621 0)
(-0.070720823 0.038008335 0)
(-0.076230989 0.034668841 0)
(-0.081244954 0.030729447 0)
(-0.085656411 0.026284151 0)
(-0.089381902 0.021428516 0)
(-0.092358282 0.016282663 0)
(-0.094553454 0.010952668 0)
(-0.095965893 0.005543313 0)
(-0.096607401 0.0001553835 0)
(-0.096500792 -0.0051236174 0)
(-0.095688945 -0.010220755 0)
(-0.094222021 -0.015076647 0)
(-0.092157358 -0.019645689 0)
(-0.089555416 -0.023895202 0)
(-0.086477149 -0.027804883 0)
(-0.082982885 -0.031365034 0)
(-0.079130322 -0.03457496 0)
(-0.074973384 -0.037441541 0)
(-0.070561748 -0.039977509 0)
(-0.065940461 -0.042200212 0)
(-0.061148943 -0.044129942 0)
(-0.056220063 -0.045788486 0)
(-0.051179878 -0.047199523 0)
(-0.046063257 -0.048384779 0)
(-0.040912684 -0.049363916 0)
(-0.035674333 -0.050160456 0)
(-0.030196366 -0.050799897 0)
(-0.024951095 -0.051281156 0)
(-0.021260091 -0.051599672 0)
(-0.011701488 -0.051869062 0)
(0.011004969 -0.048007411 0)
(0.019657955 -0.047681802 0)
(0.022634597 -0.047280675 0)
(0.027182582 -0.046696097 0)
(0.031913332 -0.045928863 0)
(0.036389143 -0.044985091 0)
(0.040764392 -0.043843606 0)
(0.045085804 -0.042486236 0)
(0.049308619 -0.040899773 0)
(0.053398738 -0.039069281 0)
(0.057330129 -0.036980633 0)
(0.061070928 -0.03462075 0)
(0.064584747 -0.031980358 0)
(0.067830815 -0.029053229 0)
(0.070764599 -0.025838234 0)
(0.073339966 -0.022340817 0)
(0.075509633 -0.018573688 0)
(0.07722499 -0.014558145 0)
(0.078438277 -0.010325495 0)
(0.079105361 -0.0059173411 0)
(0.079187326 -0.0013856683 0)
(0.078656558 0.0032101739 0)
(0.077482414 0.0077854277 0)
(0.075659338 0.012250534 0)
(0.07321895 0.016510236 0)
(0.070175654 0.020495079 0)
(0.066573782 0.024079723 0)
(0.062505285 0.027189164 0)
(0.058068152 0.029729449 0)
(0.053391378 0.031632679 0)
(0.048636799 0.032866348 0)
(0.043977102 0.033435599 0)
(0.039581477 0.033394453 0)
(0.035612505 0.032854107 0)
(0.032194523 0.031978463 0)
(0.02938129 0.030969378 0)
(0.027136538 0.030033323 0)
(0.025345549 0.029328075 0)
(0.023849118 0.028933485 0)
(0.022496402 0.028855675 0)
(0.021181919 0.029049559 0)
(0.019848029 0.029445667 0)
(0.018471365 0.029975068 0)
(0.017048974 0.030586559 0)
(0.015585753 0.031248815 0)
(0.014083627 0.031944086 0)
(0.012535339 0.032666379 0)
(0.010936658 0.033411168 0)
(0.009263347 0.03417399 0)
(0.0075035937 0.034948479 0)
(0.0056538812 0.03574406 0)
(0.003728038 0.036544101 0)
(0.0016458939 0.037313655 0)
(-0.00055777343 0.038055893 0)
(-0.0028525415 0.038736489 0)
(-0.0052220053 0.039385222 0)
(-0.007663184 0.040031178 0)
(-0.010180371 0.040716361 0)
(-0.012794123 0.041493326 0)
(-0.015551607 0.042420702 0)
(-0.018531719 0.043542905 0)
(-0.021841405 0.04486843 0)
(-0.025608674 0.046346079 0)
(-0.029959298 0.047853736 0)
(-0.034971664 0.049213116 0)
(-0.040642652 0.050213438 0)
(-0.046888769 0.050643032 0)
(-0.053555249 0.050328518 0)
(-0.060433148 0.049155165 0)
(-0.067297004 0.047077603 0)
(-0.073935756 0.044109806 0)
(-0.080151363 0.040304139 0)
(-0.085774001 0.035759982 0)
(-0.090683435 0.030602715 0)
(-0.09478297 0.024965334 0)
(-0.098009355 0.018994827 0)
(-0.10033872 0.012823008 0)
(-0.10177166 0.0065765333 0)
(-0.10233048 0.0003803985 0)
(-0.10205493 -0.0056659866 0)
(-0.10100343 -0.011477161 0)
(-0.099241608 -0.016985879 0)
(-0.096841132 -0.022142249 0)
(-0.093876244 -0.026911503 0)
(-0.090420958 -0.031274067 0)
(-0.086546226 -0.035222897 0)
(-0.082318502 -0.038761368 0)
(-0.077798632 -0.041901379 0)
(-0.07304177 -0.044661056 0)
(-0.06809697 -0.047063853 0)
(-0.063005798 -0.049135507 0)
(-0.057802245 -0.050904011 0)
(-0.052512543 -0.052397722 0)
(-0.047169739 -0.053643579 0)
(-0.041816594 -0.054665049 0)
(-0.036401284 -0.055489521 0)
(-0.030760301 -0.056146768 0)
(-0.025354275 -0.056636303 0)
(-0.021542965 -0.056958243 0)
(-0.011839746 -0.057221404 0)
(0.011175528 -0.052666617 0)
(0.020011471 -0.052339615 0)
(0.023137155 -0.051925185 0)
(0.027869778 -0.051319796 0)
(0.032787439 -0.050518875 0)
(0.037458944 -0.049527604 0)
(0.042049781 -0.04832208 0)
(0.046604487 -0.046880418 0)