/*--------------------------------*- C++ -*----------------------------------*\
  =========                 |
  \\      /  F ield         | OpenFOAM: The Open Source CFD Toolbox
   \\    /   O peration     | Website:  https://openfoam.org
    \\  /    A nd           | Version:  9
     \\/     M anipulation  |
\*---------------------------------------------------------------------------*/
FoamFile
{
    format      ascii;
    class       volScalarField;
    location    "6.5";
    object      Ma;
}
// * * * * * * * * * * * * * * * * * * * * * * * * * * * * * * * * * * * * * //

dimensions      [0 0 0 0 0 0 0];

internalField   nonuniform List<scalar> 
5250
(
2.99999
2.99997
2.99989
2.99974
2.99929
2.99838
2.99559
2.99016
2.97325
2.93851
2.84006
2.6103
2.08051
1.15203
0.481551
0.297987
0.330686
0.336582
0.304197
0.250798
0.20043
0.159372
0.118646
0.0737133
0.0403725
2.99999
2.99997
2.99989
2.99975
2.99928
2.99844
2.9956
2.9903
2.97379
2.939
2.84264
2.61524
2.09126
1.16699
0.489981
0.298435
0.33229
0.339031
0.306935
0.254366
0.205251
0.165607
0.127074
0.087314
0.0633302
3
2.99997
2.9999
2.99974
2.99935
2.99837
2.99597
2.99019
2.97514
2.94005
2.84816
2.62549
2.11494
1.201
0.509421
0.301217
0.337587
0.34643
0.31536
0.26496
0.218727
0.182443
0.148756
0.117189
0.10107
3
2.99997
2.9999
2.99976
2.99936
2.99849
2.9961
2.9906
2.97654
2.94212
2.85599
2.64179
2.15101
1.25491
0.539516
0.306055
0.346487
0.358714
0.329306
0.281982
0.239501
0.207397
0.179027
0.154207
0.142401
3
2.99997
2.99991
2.99978
2.99939
2.99861
2.99624
2.99155
2.97713
2.94745
2.86306
2.66638
2.19882
1.3307
0.580111
0.314318
0.359511
0.3759
0.348434
0.304649
0.266005
0.238152
0.214792
0.195316
0.186311
3
2.99997
2.99993
2.99978
2.9995
2.9986
2.99683
2.99161
2.98033
2.94959
2.87751
2.69122
2.26189
1.4307
0.632089
0.329045
0.378249
0.398864
0.373312
0.333272
0.298426
0.274715
0.256118
0.241515
0.235549
3
2.99998
2.99993
2.9998
2.99955
2.99872
2.99721
2.99229
2.98261
2.95418
2.8908
2.72247
2.33401
1.555
0.69661
0.356147
0.406131
0.429291
0.405206
0.368596
0.337136
0.317509
0.303919
0.294926
0.2938
3
2.99998
2.99993
2.99984
2.99954
2.999
2.99724
2.99375
2.98354
2.9613
2.90123
2.75887
2.4099
1.70215
0.773529
0.398989
0.445847
0.467672
0.444743
0.411481
0.383041
0.367457
0.359476
0.358106
0.367033
3
2.99999
2.99994
2.99986
2.99959
2.99911
2.99748
2.99457
2.98492
2.96608
2.91074
2.78529
2.46732
1.80714
0.843517
0.433292
0.476527
0.496919
0.482218
0.456114
0.433765
0.423963
0.423618
0.435469
0.466684
3
2.99999
2.99995
2.99988
2.99964
2.99921
2.99776
2.99515
2.98658
2.96965
2.92035
2.8082
2.52096
1.91019
0.947986
0.495468
0.499003
0.514437
0.514096
0.498413
0.486
0.484369
0.498046
0.537254
0.637124
3
2.99999
2.99996
2.99988
2.99971
2.99922
2.99822
2.99521
2.98926
2.97097
2.93313
2.82651
2.57825
2.0168
1.08008
0.570669
0.513966
0.531178
0.541571
0.537711
0.536349
0.546832
0.58123
0.660336
0.82233
3
2.99999
2.99997
2.99989
2.99976
2.99932
2.99846
2.9959
2.99046
2.97546
2.94095
2.85092
2.63261
2.13179
1.24039
0.65958
0.531041
0.549461
0.567542
0.574313
0.583442
0.607284
0.659195
0.758693
0.926564
3
2.99999
2.99997
2.99991
2.9998
2.99942
2.99873
2.99646
2.99213
2.97896
2.95083
2.87378
2.69126
2.25647
1.43584
0.765127
0.559676
0.575963
0.596668
0.610677
0.62812
0.662003
0.72268
0.821047
0.962571
3
3
2.99998
2.99994
2.99981
2.99958
2.99885
2.99735
2.99313
2.98361
2.95889
2.89932
2.74873
2.39334
1.6735
0.889092
0.610836
0.617339
0.633774
0.651094
0.672058
0.709278
0.770108
0.859281
0.977855
3
3
2.99998
2.99994
2.99987
2.99962
2.99917
2.99765
2.99492
2.98604
2.96848
2.9177
2.80264
2.51176
1.90355
1.02597
0.674547
0.662286
0.675733
0.694037
0.71539
0.75131
0.807953
0.886541
0.988169
3.00001
3
2.99999
2.99996
2.99988
2.99973
2.99925
2.99829
2.9955
2.98948
2.97319
2.9353
2.83783
2.60226
2.07554
1.19571
0.755279
0.696912
0.710987
0.730154
0.754314
0.788731
0.840262
0.909622
0.997171
3.00001
3
2.99999
2.99997
2.99991
2.99978
2.99941
2.99865
2.99636
2.99188
2.97797
2.94987
2.86928
2.68402
2.24211
1.42939
0.869257
0.730159
0.740104
0.759632
0.787146
0.821486
0.868534
0.930012
1.00588
3.00001
3
3
2.99998
2.99993
2.99982
2.99957
2.99887
2.99744
2.99309
2.98456
2.95885
2.90405
2.75509
2.41507
1.71761
1.0108
0.78145
0.774695
0.789965
0.818057
0.852222
0.894955
0.949184
1.01514
3.00001
3
3
2.99999
2.99995
2.99988
2.99965
2.99923
2.9979
2.99524
2.9876
2.97079
2.92631
2.82103
2.56023
2.00264
1.18133
0.851471
0.815062
0.826256
0.85057
0.882787
0.920778
0.96826
1.02558
3.00001
3.00001
3
2.99999
2.99996
2.99991
2.99975
2.99939
2.99848
2.99623
2.991
2.97711
2.94568
2.86274
2.6657
2.21122
1.40739
0.949173
0.852109
0.858956
0.879724
0.910019
0.94507
0.98714
1.03728
3.00001
3.00001
3
3
2.99998
2.99993
2.99981
2.99958
2.99881
2.99742
2.99293
2.98415
2.95839
2.90182
2.7518
2.4087
1.71264
1.08993
0.902409
0.892726
0.906625
0.934087
0.968578
1.00654
1.05063
3.00001
3.00001
3
3
2.99999
2.99995
2.99988
2.99966
2.99925
2.99792
2.9955
2.98771
2.97239
2.92823
2.82953
2.57941
2.0459
1.27726
0.976116
0.931279
0.938521
0.960884
0.992379
1.02667
1.06552
3.00001
3.00001
3.00001
3
2.99999
2.99997
2.99991
2.99977
2.99944
2.99859
2.99657
2.99169
2.97924
2.95032
2.87553
2.69736
2.28344
1.5322
1.08119
0.971355
0.969893
0.986006
1.01444
1.04715
1.08205
3.00001
3.00001
3.00001
3
3
2.99998
2.99994
2.99985
2.99959
2.99906
2.99756
2.99428
2.98571
2.96538
2.915
2.7917
2.49822
1.88783
1.24015
1.02906
1.0047
1.01425
1.03771
1.06855
1.10037
3.00001
3.00001
3.00001
3
3
2.99999
2.99996
2.9999
2.99972
2.99937
2.99827
2.99625
2.98971
2.9773
2.9402
2.85998
2.65089
2.19677
1.45551
1.11026
1.04168
1.04417
1.06174
1.08936
1.11958
3.00001
3.00001
3.00001
3.00001
3
2.99999
2.99997
2.99993
2.99981
2.99957
2.99882
2.99744
2.99299
2.98457
2.95917
2.90514
2.76043
2.43491
1.77736
1.24547
1.08995
1.07514
1.08542
1.10894
1.13883
3.00001
3.00001
3.00001
3.00001
3
3
2.99999
2.99995
2.99989
2.99968
2.9993
2.99813
2.99578
2.98908
2.97457
2.93613
2.8468
2.62627
2.14411
1.44929
1.16671
1.11304
1.11437
1.13129
1.15653
3.00001
3.00001
3.00001
3.00001
3.00001
3
2.99999
2.99997
2.99993
2.9998
2.99954
2.99875
2.99728
2.99258
2.98365
2.95698
2.90003
2.74909
2.41141
1.75335
1.28906
1.15706
1.14334
1.15203
1.17275
3.00001
3.00001
3.00001
3.00001
3.00001
3
3
2.99999
2.99995
2.99988
2.99968
2.99926
2.99813
2.99553
2.98915
2.97337
2.93619
2.8431
2.62434
2.13999
1.48494
1.22803
1.17942
1.17862
1.19283
3.00001
3.00001
3.00001
3.00001
3.00001
3.00001
3
2.99999
2.99997
2.99993
2.99979
2.99954
2.99876
2.99723
2.99278
2.98333
2.95808
2.89992
2.75375
2.41988
1.7816
1.34354
1.22026
1.20554
1.21254
3.00001
3.00001
3.00001
3.00001
3.00001
3.00001
3
3
2.99999
2.99995
2.99989
2.99969
2.99928
2.99818
2.99566
2.98949
2.97423
2.93841
2.84884
2.63902
2.17224
1.5422
1.29075
1.24122
1.23823
3.00001
3.00001
3.00001
3.00001
3.00001
3.00001
3.00001
3
2.99999
2.99997
2.99993
2.9998
2.99956
2.99885
2.99731
2.99334
2.98396
2.96124
2.90517
2.77113
2.45677
1.85209
1.41088
1.28188
1.2642
3.00001
3.00001
3.00001
3.00001
3.00001
3.00001
3.00001
3
3
2.99999
2.99996
2.99989
2.99973
2.99929
2.99842
2.99575
2.99082
2.9753
2.94503
2.85938
2.67111
2.23517
1.62157
1.35922
1.30224
3.00001
3.00001
3.00001
3.00001
3.00001
3.00001
3.00001
3.00001
3
3
2.99998
2.99994
2.99983
2.9996
2.99897
2.99759
2.9941
2.98572
2.96586
2.91607
2.79952
2.52178
1.96883
1.49936
1.34819
3.00001
3.00001
3.00001
3.00001
3.00001
3.00001
3.00001
3.00001
3
3
2.99999
2.99996
2.9999
2.99977
2.99937
2.99863
2.99629
2.99203
2.97852
2.95246
2.87816
2.71562
2.33094
1.73553
1.43772
3.00001
3.00001
3.00001
3.00001
3.00001
3.00001
3.00001
3.00001
3.00001
3
3
2.99998
2.99995
2.99985
2.99967
2.99911
2.99808
2.99481
2.98882
2.97039
2.93354
2.83297
2.61175
2.13044
1.6072
3.00001
3.00001
3.00001
3.00001
3.00001
3.00001
3.00001
3.00001
3.00001
3.00001
3
2.99999
2.99997
2.99993
2.99979
2.99953
2.99875
2.9972
2.99285
2.98345
2.95913
2.90261
2.76438
2.44803
1.8781
3.00001
3.00001
3.00001
3.00001
3.00001
3.00001
3.00001
3.00001
3.00001
3.00001
3
3
2.99999
2.99996
2.99989
2.99972
2.99931
2.99836
2.99589
2.99068
2.97608
2.94588
2.86376
2.68334
2.26942
3.00001
3.00001
3.00001
3.00001
3.00001
3.00001
3.00001
3.00001
3.00001
3.00001
3.00001
3
3
2.99998
2.99994
2.99984
2.99961
2.99902
2.99775
2.99424
2.98715
2.96672
2.9249
2.81226
2.56543
3.00001
3.00001
3.00001
3.00001
3.00001
3.00001
3.00001
3.00001
3.00001
3.00001
3.00001
3
3
2.99999
2.99997
2.99991
2.99976
2.99946
2.99856
2.99688
2.99164
2.98191
2.95256
2.89245
2.73435
3.00001
3.00001
3.00001
3.00001
3.00001
3.00001
3.00001
3.00001
3.00001
3.00001
3.00001
3.00001
3
3
2.99998
2.99995
2.99986
2.99965
2.99915
2.99788
2.99511
2.98755
2.97178
2.92798
2.83315
3.00001
3.00001
3.00001
3.00001
3.00001
3.00001
3.00001
3.00001
3.00001
3.00001
3.00001
3.00001
3
3
2.99999
2.99996
2.9999
2.99973
2.99939
2.99835
2.99643
2.9902
2.97835
2.94292
2.866
3.00001
3.00001
3.00001
3.00001
3.00001
3.00001
3.00001
3.00001
3.00001
3.00001
3.00001
3.00001
3.00001
3
2.99999
2.99997
2.99992
2.99976
2.99948
2.99855
2.99672
2.99129
2.97945
2.94714
2.87045
3.00001
3.00001
3.00001
3.00001
3.00001
3.00001
3.00001
3.00001
3.00001
3.00001
3.00001
3.00001
3.00001
3
2.99999
2.99997
2.99992
2.9998
2.99945
2.99869
2.99667
2.99173
2.9795
2.94821
2.87051
3.00001
3.00001
3.00001
3.00001
3.00001
3.00001
3.00001
3.00001
3.00001
3.00001
3.00001
3.00001
3.00001
3
2.99999
2.99998
2.99992
2.99981
2.99944
2.99877
2.99657
2.99214
2.97896
2.94956
2.86892
3.00001
3.00001
3.00001
3.00001
3.00001
3.00001
3.00001
3.00001
3.00001
3.00001
3.00001
3.00001
3.00001
3
2.99999
2.99997
2.99993
2.99979
2.99951
2.99864
2.99692
2.99143
2.98053
2.94718
2.87254
3.00001
3.00001
3.00001
3.00001
3.00001
3.00001
3.00001
3.00001
3.00001
3.00001
3.00001
3.00001
3.00001
3
3
2.99997
2.99993
2.99979
2.99951
2.99869
2.99683
2.99189
2.9798
2.94919
2.87142
3.00001
3.00001
3.00001
3.00001
3.00001
3.00001
3.00001
3.00001
3.00001
3.00001
3.00001
3.00001
3.00001
3
2.99999
2.99997
2.99993
2.9998
2.99952
2.99867
2.997
2.99159
2.98093
2.94806
2.87469
3.00001
3.00001
3.00001
3.00001
3.00001
3.00001
3.00001
3.00001
3.00001
3.00001
3.00001
3.00001
3.00001
3
2.99999
2.99997
2.99993
2.99979
2.99953
2.99866
2.99707
2.99161
2.98112
2.9486
2.87549
3.00001
3.00001
3.00001
3.00001
3.00001
3.00001
3.00001
3.00001
3.00001
3.00001
3.00001
3.00001
3.00001
3
3
2.99997
2.99993
2.99979
2.99954
2.99868
2.997
2.99189
2.98073
2.94959
2.87516
1.04716
1.01944
0.532289
0.20744
0.147042
0.265033
0.353995
0.39332
0.415621
0.443399
0.480291
0.516467
0.548015
0.576905
0.606928
0.6384
0.669772
0.698918
0.724913
0.74977
0.776333
0.799351
0.812602
0.818834
0.818883
0.806712
0.777795
0.734665
0.682801
0.62661
0.570329
0.514981
0.462225
0.411673
0.364572
0.320177
0.278484
0.238974
0.200915
0.164341
0.129462
0.0961715
0.0645846
0.0358241
0.0172074
0.0345623
0.0604967
0.0864281
0.111427
0.135595
0.158862
0.180715
0.202038
0.223871
0.245766
0.266676
0.287033
0.306658
0.325926
0.3447
0.363143
0.38117
0.39892
0.416305
0.433425
0.450235
0.466833
0.483138
0.499251
0.515109
0.530815
0.546285
0.561623
0.576757
0.591778
0.606629
0.62136
0.635943
0.650408
0.66474
0.678947
0.693026
0.706956
0.72077
0.734418
0.747952
0.761302
0.774515
0.787523
0.800367
0.812955
0.825312
0.8373
0.848912
0.859921
0.87025
0.879488
0.887433
0.893241
0.897604
1.04147
0.996886
0.772169
0.48987
0.400091
0.29695
0.177718
0.0729373
0.10204
0.179145
0.247276
0.295545
0.328705
0.356194
0.387016
0.421963
0.457133
0.490127
0.519068
0.546112
0.573934
0.600631
0.616635
0.622155
0.619434
0.603643
0.569804
0.522
0.465771
0.407473
0.350596
0.29632
0.245455
0.197787
0.154696
0.115208
0.0804501
0.0539403
0.0440976
0.0584407
0.0829799
0.109501
0.135975
0.16154
0.186061
0.209784
0.233449
0.256556
0.279181
0.301033
0.322222
0.342206
0.361503
0.381156
0.401013
0.420117
0.438565
0.45645
0.473976
0.49108
0.507911
0.524346
0.540548
0.55637
0.572002
0.587287
0.602413
0.617224
0.631903
0.646311
0.660601
0.674667
0.688623
0.702394
0.716059
0.729569
0.742977
0.756251
0.76942
0.782474
0.795406
0.808244
0.820934
0.833545
0.845989
0.858354
0.870537
0.882631
0.894517
0.906294
0.917808
0.929161
0.940141
0.95083
0.960944
0.970516
0.979138
0.986569
0.991925
0.995793
1.0482
1.0575
0.982217
0.830189
0.730353
0.649223
0.551158
0.450459
0.35114
0.263533
0.186479
0.114424
0.0597724
0.0842845
0.13401
0.180881
0.221503
0.257449
0.287459
0.313176
0.339427
0.366767
0.386387
0.390533
0.383398
0.362548
0.327145
0.277536
0.22414
0.174451
0.131703
0.101432
0.0891936
0.0963825
0.11618
0.141652
0.168784
0.19564
0.221489
0.246439
0.271218
0.295259
0.31858
0.340992
0.362511
0.383295
0.403606
0.423507
0.442949
0.461906
0.480324
0.497774
0.514539
0.531416
0.548719
0.565647
0.581948
0.597785
0.613288
0.628532
0.643508
0.65826
0.672759
0.687054
0.701114
0.714986
0.728651
0.742158
0.755481
0.768672
0.781683
0.794579
0.807296
0.819918
0.832368
0.844747
0.856958
0.869126
0.881111
0.893074
0.904835
0.91658
0.928113
0.939622
0.950925
0.962181
0.973245
0.98423
0.995031
1.0057
1.01618
1.02645
1.03649
1.04619
1.05562
1.06437
1.07246
1.07916
1.08422
1.08734
1.06654
1.10863
1.09653
1.03148
0.955072
0.886662
0.81347
0.733774
0.655418
0.581016
0.509839
0.439772
0.37053
0.30295
0.243362
0.190316
0.141921
0.0981131
0.0649777
0.0577056
0.0786552
0.10407
0.130776
0.137785
0.111137
0.0936947
0.0836611
0.106153
0.138874
0.172193
0.207407
0.240335
0.270295
0.297028
0.322881
0.347907
0.371962
0.394909
0.416701
0.437538
0.457818
0.477481
0.496599
0.514961
0.532762
0.549929
0.566772
0.583213
0.599345
0.615108
0.630526
0.645121
0.65909
0.672941
0.68738
0.701725
0.715685
0.72909
0.742356
0.755265
0.768171
0.780749
0.793351
0.805635
0.817947
0.829993
0.842073
0.853938
0.865829
0.877532
0.889253
0.900806
0.912387
0.923823
0.935295
0.946639
0.958004
0.969243
0.980488
0.99159
1.0027
1.01363
1.02459
1.03531
1.04612
1.0566
1.06722
1.07743
1.08783
1.09771
1.10787
1.11745
1.12733
1.13644
1.14568
1.15379
1.16174
1.16796
1.17302
1.17566
1.07733
1.136
1.15676
1.13881
1.09661
1.04953
0.997434
0.941179
0.880736
0.823225
0.76505
0.707187
0.648071
0.589953
0.534754
0.48359
0.435224
0.38797
0.341983
0.296529
0.255373
0.219016
0.188801
0.170525
0.185287
0.220494
0.268847
0.321201
0.368702
0.407852
0.440526
0.468279
0.492154
0.512968
0.53244
0.550805
0.568597
0.585351
0.601539
0.616876
0.631973
0.64654
0.660917
0.674748
0.688407
0.701565
0.7147
0.727475
0.74028
0.752768
0.765316
0.777141
0.788551
0.799685
0.811461
0.823432
0.835313
0.846737
0.85805
0.869095
0.880137
0.890995
0.901849
0.912526
0.923193
0.933703
0.944208
0.95457
0.964928
0.975159
0.985403
0.995545
1.00572
1.01581
1.02595
1.03599
1.04611
1.0561
1.0662
1.07615
1.08623
1.0961
1.10614
1.11592
1.12588
1.13554
1.14542
1.15498
1.16483
1.17437
1.18414
1.19345
1.20289
1.21178
1.22062
1.22873
1.23641
1.24288
1.24784
1.25081
1.08209
1.14722
1.18589
1.19509
1.1817
1.15755
1.1251
1.08811
1.04626
1.00312
0.959536
0.913927
0.867958
0.821053
0.776353
0.732171
0.689031
0.645943
0.603455
0.561529
0.522148
0.487504
0.458966
0.445617
0.449393
0.473466
0.512159
0.55761
0.601216
0.638038
0.665847
0.685956
0.701134
0.713373
0.724386
0.735138
0.745702
0.755927
0.765826
0.775388
0.784841
0.794164
0.803502
0.81271
0.821932
0.831027
0.840163
0.849272
0.85847
0.867677
0.877078
0.886166
0.894899
0.903445
0.912491
0.922027
0.931832
0.941403
0.950963
0.96034
0.969794
0.979157
0.988623
0.998033
1.00754
1.01699
1.02652
1.03597
1.04551
1.05496
1.06451
1.07396
1.08349
1.09293
1.10244
1.11187
1.12138
1.13081
1.14031
1.1497
1.15917
1.1685
1.17793
1.18718
1.19657
1.20579
1.21523
1.22444
1.2338
1.24282
1.25199
1.26077
1.26965
1.27805
1.28645
1.29415
1.30157
1.3078
1.31279
1.31551
1.08375
1.15039
1.19825
1.22503
1.23198
1.22598
1.21117
1.18966
1.16384
1.13425
1.10373
1.07066
1.03668
1.00111
0.96593
0.930778
0.895508
0.859487
0.821748
0.783522
0.744697
0.708533
0.678492
0.659051
0.65335
0.670927
0.709223
0.75584
0.800852
0.838522
0.866865
0.883479
0.890513
0.892419
0.892885
0.894261
0.896864
0.900042
0.903852
0.907764
0.912054
0.916483
0.921385
0.926455
0.932008
0.937652
0.943723
0.949904
0.956476
0.96319
0.970309
0.977365
0.984263
0.99093
0.997931
1.00546
1.01348
1.02151
1.02959
1.03758
1.04563
1.05367
1.06181
1.06999
1.07824
1.08653
1.09487
1.10326
1.11171
1.12021
1.12878
1.13738
1.14608
1.15476
1.1636
1.17236
1.18131
1.19011
1.19913
1.20793
1.21699
1.22579
1.2349
1.24379
1.25301
1.26194
1.27112
1.27998
1.28911
1.29788
1.30689
1.3155
1.32429
1.3326
1.34096
1.3487
1.35617
1.36262
1.36779
1.37076
1.08525
1.14982
1.20195
1.23873
1.2598
1.26785
1.26672
1.25827
1.24535
1.22783
1.20858
1.1866
1.16304
1.13778
1.11142
1.08495
1.05672
1.02762
0.994298
0.958543
0.920849
0.885033
0.849823
0.816174
0.802132
0.820449
0.859582
0.907862
0.956305
0.99484
1.02394
1.04352
1.04904
1.04394
1.03454
1.02579
1.01952
1.01551
1.01372
1.01311
1.01367
1.01482
1.01657
1.01883
1.0216
1.02477
1.02844
1.03245
1.03692
1.04169
1.04691
1.05236
1.05783
1.06309
1.06858
1.07452
1.08116
1.088
1.09505
1.10207
1.10922
1.11634
1.12367
1.13098
1.13852
1.14603
1.15376
1.16144
1.16933
1.17715
1.18517
1.19311
1.20125
1.2093
1.21755
1.22573
1.2341
1.24239
1.25086
1.25923
1.2678
1.27633
1.28502
1.29357
1.30224
1.31075
1.31941
1.32786
1.33645
1.34481
1.35331
1.36155
1.36988
1.37795
1.38597
1.39365
1.40097
1.40762
1.41286
1.41612
1.08812
1.14887
1.2018
1.2437
1.27355
1.2919
1.30137
1.30329
1.30018
1.29299
1.28283
1.27058
1.25563
1.23973
1.22109
1.20236
1.18032
1.15616
1.12539
1.09157
1.05554
1.0154
0.966155
0.920272
0.906609
0.927606
0.967019
1.01492
1.06562
1.10742
1.13718
1.15871
1.17057
1.17101
1.16111
1.14633
1.13174
1.11965
1.11092
1.10501
1.10151
1.09947
1.0986
1.09836
1.09869
1.09954
1.10096
1.10272
1.10513
1.10788
1.11125
1.11499
1.11909
1.12299
1.12706
1.13143
1.13657
1.14212
1.14807
1.15412
1.1604
1.16671
1.17322
1.17979
1.18658
1.19345
1.20051
1.20766
1.21498
1.22238
1.22994
1.23756
1.24533
1.25311
1.26106
1.26897
1.27705
1.28503
1.29323
1.30136
1.3097
1.31786
1.32624
1.33444
1.34287
1.35112
1.35956
1.36783
1.37622
1.38447
1.39275
1.4009
1.40899
1.41692
1.42471
1.43223
1.4394
1.44594
1.45125
1.45437
1.09265
1.14872
1.20042
1.24445
1.27944
1.3047
1.32199
1.33203
1.33677
1.33734
1.33471
1.33001
1.32247
1.31375
1.30227
1.28913
1.27248
1.24974
1.22159
1.18966
1.15098
1.10005
1.03224
0.98359
0.978204
1.00223
1.04002
1.08989
1.14327
1.18863
1.22041
1.24161
1.25695
1.26501
1.26383
1.2539
1.23726
1.21817
1.20106
1.18713
1.17725
1.1702
1.16584
1.16277
1.16095
1.15971
1.15915
1.15916
1.15976
1.16093
1.16273
1.16509
1.16805
1.17112
1.17426
1.17762
1.18159
1.18617
1.19125
1.1966
1.20221
1.20793
1.21386
1.21989
1.22614
1.23249
1.23906
1.24571
1.25258
1.2595
1.26665
1.27382
1.28124
1.28867
1.29635
1.304
1.31192
1.3198
1.32788
1.33582
1.34396
1.35194
1.3601
1.36812
1.37629
1.38434
1.39252
1.4006
1.40882
1.41691
1.42513
1.43319
1.44134
1.44925
1.45719
1.46475
1.47212
1.47877
1.48432
1.48756
1.09967
1.15053
1.19973
1.24361
1.28113
1.31083
1.3334
1.34961
1.3604
1.36711
1.37054
1.37134
1.37009
1.36667
1.36057
1.35171
1.33682
1.31561
1.2888
1.25612
1.20839
1.13667
1.0583
1.02114
1.02648
1.05184
1.09179
1.14336
1.19625
1.24089
1.27563
1.2994
1.3157
1.32684
1.33205
1.33091
1.32322
1.30755
1.28702
1.2665
1.24878
1.23496
1.22516
1.21835
1.21391
1.21089
1.20894
1.2077
1.20712
1.20709
1.20771
1.20892
1.21086
1.2132
1.21578
1.21835
1.2214
1.225
1.22931
1.23392
1.23897
1.24414
1.24964
1.25519
1.26105
1.26696
1.27319
1.27947
1.28604
1.29265
1.29954
1.30645
1.31363
1.32081
1.32824
1.33567
1.34331
1.35087
1.35861
1.36628
1.37412
1.38191
1.38983
1.3977
1.40568
1.4136
1.42159
1.42952
1.4375
1.44542
1.45336
1.46125
1.46912
1.47693
1.48463
1.49221
1.49945
1.50626
1.51185
1.51532
1.10905
1.15482
1.2006
1.24322
1.28116
1.31338
1.33943
1.35979
1.37532
1.3865
1.39465
1.39997
1.40299
1.40356
1.40123
1.39373
1.37839
1.3583
1.3308
1.29013
1.22484
1.1312
1.06054
1.04476
1.05918
1.08622
1.12934
1.18127
1.2301
1.27212
1.30707
1.33443
1.35473
1.36846
1.37767
1.38264
1.38313
1.37797
1.36561
1.3466
1.32489
1.30434
1.28709
1.27391
1.26449
1.25816
1.25395
1.25124
1.2494
1.24835
1.2479
1.24805
1.24886
1.25028
1.25222
1.25423
1.25652
1.25922
1.26269
1.26669
1.27118
1.27594
1.28102
1.28628
1.29179
1.29747
1.30339
1.30945
1.31575
1.32217
1.32886
1.33562
1.34267
1.34976
1.35712
1.36442
1.37192
1.37935
1.38695
1.3945
1.4022
1.40984
1.41761
1.42534
1.43316
1.44095
1.44881
1.45664
1.46451
1.47233
1.48017
1.48793
1.4957
1.50333
1.51093
1.51829
1.52549
1.53211
1.53777
1.54107
1.12077
1.16188
1.20376
1.24409
1.28134
1.31412
1.34245
1.36535
1.38427
1.39892
1.4105
1.41916
1.4254
1.42835
1.42723
1.41806
1.40275
1.38082
1.34794
1.29022
1.19629
1.10181
1.06144
1.06253
1.08049
1.11309
1.15825
1.20629
1.25015
1.2887
1.32222
1.35077
1.37444
1.39323
1.40668
1.41553
1.42087
1.42265
1.42001
1.41144
1.39553
1.37468
1.35275
1.33279
1.31642
1.30439
1.29593
1.29052
1.28701
1.28493
1.28366
1.28314
1.28315
1.28378
1.28507
1.2867
1.28855
1.29056
1.29319
1.29643
1.30037
1.30462
1.30932
1.31419
1.3194
1.32473
1.33036
1.33609
1.34211
1.34822
1.35464
1.36113
1.36794
1.37479
1.38185
1.3889
1.39617
1.40342
1.41086
1.41828
1.42584
1.43339
1.44104
1.44868
1.45638
1.46408
1.47181
1.47953
1.48729
1.49501
1.50275
1.51045
1.51812
1.52575
1.53327
1.5407
1.54784
1.55462
1.5603
1.56383
1.13481
1.17155
1.20939
1.24683
1.28253
1.3149
1.34378
1.36865
1.38931
1.40666
1.4206
1.43144
1.4395
1.44303
1.43918
1.42783
1.41136
1.38309
1.33383
1.24662
1.14028
1.07612
1.06458
1.07556
1.09831
1.13527
1.17936
1.22143
1.25983
1.29478
1.32656
1.35525
1.38073
1.40291
1.42135
1.43586
1.4455
1.4514
1.45488
1.45476
1.44987
1.43853
1.42071
1.39914
1.37793
1.35891
1.34412
1.33326
1.3262
1.32165
1.31906
1.31756
1.3169
1.31685
1.31738
1.31848
1.32004
1.32165
1.32362
1.32605
1.32931
1.33309
1.33738
1.34195
1.34689
1.35201
1.35744
1.36302
1.36891
1.37494
1.38128
1.38775
1.39448
1.4012
1.40814
1.41507
1.42218
1.42928
1.43651
1.44376
1.45109
1.45846
1.46589
1.47334
1.48087
1.48838
1.49597
1.5035
1.51111
1.51864
1.52622
1.53371
1.5412
1.54863
1.55597
1.56322
1.57021
1.57685
1.58247
1.58592
1.15069
1.18327
1.21744
1.25163
1.28522
1.31659
1.3452
1.37067
1.39294
1.41129
1.42726
1.43887
1.44706
1.44761
1.4401
1.42669
1.40336
1.35972
1.28059
1.17137
1.09033
1.06622
1.07136
1.08602
1.11436
1.15292
1.19199
1.22842
1.26227
1.2942
1.32432
1.3527
1.37909
1.40325
1.42481
1.44354
1.45897
1.47035
1.47767
1.48191
1.48412
1.48256
1.47563
1.46212
1.44274
1.42135
1.40062
1.3833
1.36977
1.3606
1.35455
1.35118
1.34925
1.3485
1.3484
1.3489
1.35
1.35136
1.35294
1.35471
1.35716
1.36027
1.3641
1.36828
1.37292
1.37776
1.38295
1.38827
1.39392
1.3997
1.40584
1.41205
1.41849
1.42499
1.43169
1.43844
1.44537
1.45233
1.45944
1.46656
1.47381
1.48105
1.48839
1.49571
1.50312
1.51052
1.51798
1.52543
1.53292
1.54038
1.54784
1.55528
1.56265
1.57001
1.57721
1.58437
1.59123
1.59778
1.60333
1.60675
1.16725
1.19629
1.22695
1.25818
1.28926
1.31922
1.34718
1.37245
1.39523
1.41451
1.43043
1.4423
1.44692
1.44271
1.4317
1.41169
1.37344
1.30205
1.19335
1.10141
1.06625
1.06562
1.07633
1.09836
1.13034
1.16504
1.19833
1.22993
1.2603
1.28992
1.31871
1.34667
1.37335
1.39863
1.42209
1.44353
1.46257
1.4789
1.49205
1.50113
1.50705
1.51073
1.51226
1.50942
1.50069
1.4849
1.46514
1.44388
1.42445
1.40823
1.39647
1.38848
1.38383
1.38127
1.38027
1.38017
1.38074
1.38181
1.38327
1.38473
1.38661
1.38892
1.39211
1.3958
1.40004
1.40456
1.40947
1.41457
1.42002
1.42567
1.43161
1.43763
1.44391
1.45025
1.4568
1.46339
1.47016
1.47697
1.48391
1.49087
1.49795
1.50504
1.51222
1.51938
1.52663
1.53383
1.54112
1.54836
1.55564
1.56291
1.57016
1.57742
1.58457
1.59176
1.59877
1.60576
1.61243
1.61882
1.62426
1.62759
1.18341
1.21014
1.23795
1.26666
1.29539
1.3236
1.35044
1.37511
1.39738
1.41654
1.43167
1.44022
1.43875
1.42945
1.41186
1.37808
1.31323
1.20754
1.10969
1.06609
1.06061
1.06821
1.08514
1.11181
1.14246
1.17203
1.20058
1.22855
1.25647
1.28433
1.31204
1.33939
1.366
1.39175
1.41625
1.43939
1.46083
1.48034
1.49757
1.51222
1.52328
1.531
1.53659
1.54
1.54066
1.53635
1.5254
1.50848
1.48775
1.46723
1.44861
1.43421
1.42379
1.4174
1.41379
1.4123
1.412
1.41257
1.41376
1.41507
1.41661
1.41834
1.42075
1.42378
1.4275
1.43159
1.43616
1.44099
1.4462
1.45159
1.45725
1.46302
1.46903
1.47513
1.48145
1.48784
1.49441
1.50103
1.5078
1.5146
1.5215
1.52844
1.53545
1.54248
1.54956
1.55665
1.56377
1.57089
1.57801
1.58514
1.59222
1.59932
1.6063
1.61331
1.62013
1.62691
1.6334
1.63957
1.64486
1.64807
1.19957
1.22511
1.25039
1.27658
1.30314
1.32944
1.35481
1.37846
1.39957
1.41694
1.42932
1.43028
1.42226
1.40721
1.37673
1.31683
1.21542
1.11534
1.06543
1.0557
1.0612
1.07444
1.09711
1.12428
1.15064
1.17597
1.20102
1.2265
1.25254
1.27911
1.30583
1.33256
1.35887
1.38472
1.40971
1.4338
1.45667
1.47825
1.49819
1.51638
1.53218
1.54535
1.55499
1.56234
1.56763
1.57055
1.5699
1.56373
1.5509
1.53249
1.51209
1.49183
1.47482
1.46158
1.45297
1.44766
1.44527
1.44455
1.44505
1.4462
1.44763
1.44905
1.45091
1.45318
1.45622
1.45972
1.46381
1.46824
1.47316
1.4783
1.48373
1.48929
1.4951
1.501
1.50712
1.5133
1.51967
1.52609
1.53265
1.53926
1.54597
1.55273
1.55955
1.56641
1.5733
1.58023
1.58714
1.5941
1.60101
1.60795
1.61482
1.6217
1.62848
1.63524
1.64185
1.64836
1.65462
1.66051
1.66559
1.66866
1.21538
1.24037
1.26428
1.28832
1.31264
1.33697
1.36049
1.38248
1.40145
1.41551
1.4194
1.41285
1.39854
1.37038
1.31468
1.21807
1.11809
1.06419
1.05153
1.0557
1.06647
1.08609
1.11054
1.13396
1.15634
1.17839
1.20126
1.22502
1.24979
1.27512
1.301
1.3269
1.3529
1.3785
1.40376
1.42826
1.45211
1.47486
1.49669
1.51706
1.53601
1.55302
1.56752
1.57933
1.58816
1.59535
1.59998
1.60205
1.60014
1.59205
1.57728
1.55796
1.53731
1.51799
1.50213
1.49046
1.48321
1.47926
1.47781
1.47802
1.47912
1.4804
1.48189
1.48362
1.48596
1.48882
1.4923
1.49625
1.50072
1.50547
1.51057
1.51584
1.5214
1.52706
1.53296
1.53894
1.5451
1.55133
1.5577
1.56414
1.57067
1.57725
1.58388
1.59057
1.59727
1.60401
1.61074
1.6175
1.62421
1.63094
1.6376
1.64425
1.6508
1.65731
1.66365
1.66989
1.67583
1.68142
1.68619
1.68907
1.23118
1.2555
1.27885
1.30117
1.32361
1.34561
1.36695
1.38595
1.40132
1.40739
1.40222
1.38825
1.36157
1.30887
1.21649
1.11779
1.0623
1.04793
1.05108
1.06016
1.07783
1.10042
1.1219
1.14173
1.16137
1.1815
1.20291
1.22532
1.24896
1.27324
1.29829
1.32352
1.34903
1.37428
1.39946
1.4241
1.44834
1.47186
1.49472
1.51657
1.53742
1.5567
1.5746
1.59035
1.60368
1.61422
1.62268
1.62959
1.6334
1.63442
1.63098
1.62091
1.60407
1.58467
1.56382
1.54575
1.53097
1.52112
1.51499
1.51234
1.51172
1.51255
1.51387
1.51526
1.51704
1.51929
1.52214
1.5255
1.52941
1.53368
1.53837
1.54329
1.54853
1.55392
1.55955
1.56529
1.57121
1.57723
1.58337
1.58962
1.59592
1.60232
1.60874
1.61524
1.62172
1.62826
1.63476
1.64131
1.64778
1.65428
1.66067
1.66706
1.67331
1.67951
1.68551
1.69138
1.69692
1.70209
1.70643
1.70906
1.24966
1.27017
1.29346
1.31503
1.33536
1.35526
1.37353
1.38851
1.3954
1.39098
1.37699
1.35113
1.30042
1.21136
1.11477
1.05918
1.04403
1.04688
1.05553
1.07266
1.09451
1.11434
1.13229
1.14945
1.16725
1.1861
1.20641
1.22791
1.2506
1.27402
1.2982
1.32265
1.34751
1.3723
1.39718
1.42173
1.44617
1.47
1.49343
1.51603
1.53791
1.55881
1.57861
1.59694
1.61372
1.62837
1.6405
1.65041
1.65873
1.66461
1.66755
1.66745
1.6623
1.65012
1.63224
1.61198
1.59184
1.5745
1.56127
1.55253
1.54791
1.54602
1.54639
1.54755
1.54889
1.55053
1.55282
1.55562
1.55895
1.56269
1.56687
1.57137
1.57622
1.58128
1.58661
1.59208
1.59774
1.60352
1.60943
1.61544
1.62153
1.6277
1.6339
1.64018
1.64643
1.65275
1.659
1.66531
1.67152
1.67775
1.68386
1.68996
1.69589
1.70174
1.70735
1.7128
1.71784
1.72248
1.72623
1.72851
1.26947
1.28586
1.30759
1.32792
1.34693
1.36391
1.37808
1.38516
1.38074
1.36623
1.3404
1.29032
1.20312
1.1088
1.05443
1.03944
1.04247
1.0518
1.06962
1.09123
1.11008
1.12655
1.14196
1.15775
1.17457
1.19278
1.2123
1.23304
1.25478
1.27737
1.30066
1.32441
1.34858
1.37287
1.39733
1.42163
1.44587
1.4697
1.49328
1.51629
1.53878
1.56059
1.58148
1.60153
1.62025
1.63768
1.65338
1.66686
1.67816
1.68758
1.69554
1.70027
1.70221
1.70067
1.69349
1.67931
1.66089
1.63982
1.62052
1.60385
1.59223
1.58471
1.58141
1.58057
1.58146
1.58259
1.58423
1.58639
1.58918
1.59234
1.59599
1.59999
1.60438
1.60906
1.61401
1.6192
1.62455
1.63009
1.63573
1.64152
1.64735
1.65332
1.65926
1.66532
1.67132
1.6774
1.68339
1.68942
1.69534
1.70127
1.70705
1.7128
1.71832
1.72377
1.72888
1.73381
1.73819
1.74215
1.7451
1.74689
1.29555
1.30298
1.31974
1.34041
1.35776
1.37143
1.37751
1.37239
1.35693
1.33022
1.27929
1.19217
1.10007
1.04808
1.03406
1.03775
1.04894
1.06847
1.09
1.10849
1.12388
1.13814
1.15243
1.16775
1.18417
1.20197
1.22085
1.24092
1.26183
1.28366
1.30605
1.32908
1.35242
1.37612
1.39992
1.42381
1.44763
1.47131
1.49477
1.51787
1.5406
1.56273
1.58433
1.60514
1.62521
1.64423
1.66217
1.67858
1.69332
1.70576
1.71639
1.72548
1.73242
1.73614
1.7369
1.73374
1.72449
1.70855
1.68909
1.66806
1.6493
1.634
1.62374
1.61779
1.61539
1.61553
1.61657
1.6179
1.61988
1.62248
1.6256
1.62909
1.63299
1.63718
1.6417
1.6465
1.65151
1.65676
1.66209
1.66764
1.67318
1.6789
1.6846
1.69041
1.69618
1.70201
1.70775
1.71353
1.71915
1.72478
1.73017
1.73555
1.74059
1.74554
1.75002
1.75426
1.75777
1.76077
1.76259
1.76376
1.32227
1.32233
1.33355
1.35023
1.36614
1.37295
1.36683
1.34977
1.3211
1.26793
1.17898
1.08842
1.03952
1.02705
1.03171
1.04543
1.06729
1.08936
1.10789
1.12289
1.13651
1.14976
1.16397
1.17902
1.19543
1.21276
1.2313
1.25064
1.27096
1.2919
1.31355
1.33569
1.35827
1.38122
1.40436
1.42774
1.45107
1.47445
1.49759
1.52058
1.5432
1.56549
1.58735
1.60867
1.62949
1.64948
1.66877
1.68689
1.70396
1.71936
1.73301
1.74461
1.75475
1.7634
1.76891
1.77137
1.77094
1.76619
1.75459
1.73732
1.7166
1.69635
1.67779
1.66438
1.65505
1.6507
1.64925
1.64999
1.651
1.65259
1.65504
1.65816
1.66159
1.66538
1.6694
1.67378
1.67837
1.68321
1.68824
1.69341
1.69874
1.70413
1.70961
1.71513
1.72064
1.72622
1.73167
1.73719
1.74248
1.74781
1.75281
1.75778
1.7623
1.76664
1.77037
1.77367
1.77604
1.77772
1.77846
1.77912
1.3597
1.34629
1.3487
1.35912
1.36874
1.36312
1.34437
1.31323
1.25676
1.1642
1.07387
1.02871
1.01857
1.02445
1.04151
1.06599
1.08924
1.10785
1.12309
1.13622
1.14913
1.16226