/*--------------------------------*- C++ -*----------------------------------*\
  =========                 |
  \\      /  F ield         | OpenFOAM: The Open Source CFD Toolbox
   \\    /   O peration     | Website:  https://openfoam.org
    \\  /    A nd           | Version:  9
     \\/     M anipulation  |
\*---------------------------------------------------------------------------*/
FoamFile
{
    format      ascii;
    class       volScalarField;
    location    "6.5";
    object      p;
}
// * * * * * * * * * * * * * * * * * * * * * * * * * * * * * * * * * * * * * //

dimensions      [1 -1 -2 0 0 0 0];

internalField   nonuniform List<scalar> 
5250
(
1.00001
1.00003
1.0001
1.00022
1.00063
1.00141
1.00382
1.00864
1.02305
1.05402
1.14073
1.35695
1.98135
3.80272
8.96863
11.4343
11.203
11.0599
11.1416
11.3608
11.5827
11.7214
11.8268
11.9098
11.9734
1.00001
1.00003
1.00009
1.00023
1.00061
1.00141
1.0037
1.00874
1.02217
1.0543
1.13735
1.35327
1.96499
3.75971
8.86334
11.4416
11.2017
11.0506
11.1329
11.3529
11.5745
11.7133
11.8202
11.9045
11.9695
1.00001
1.00003
1.00009
1.00022
1.00059
1.00136
1.00364
1.00824
1.0222
1.05123
1.13547
1.33964
1.9356
3.66379
8.62735
11.4572
11.195
11.0214
11.1022
11.3198
11.5387
11.6752
11.7815
11.8649
11.9299
1.00001
1.00003
1.00008
1.00022
1.00054
1.00138
1.00324
1.00852
1.0197
1.05178
1.12478
1.32834
1.88261
3.52341
8.25685
11.4867
11.1859
10.9731
11.0498
11.2609
11.4752
11.6073
11.7104
11.7919
11.8577
1.00001
1.00003
1.00008
1.00019
1.00054
1.0012
1.00327
1.00737
1.0198
1.04597
1.12041
1.30162
1.82364
3.33197
7.75322
11.5304
11.1763
10.9078
10.9781
11.1791
11.3875
11.5129
11.6103
11.6881
11.7556
1
1.00003
1.00007
1.00019
1.00047
1.00116
1.0029
1.00695
1.01784
1.04263
1.10951
1.27622
1.74544
3.10345
7.11423
11.5792
11.1659
10.8251
10.8859
11.0711
11.2708
11.386
11.4734
11.5441
11.6125
1
1.00002
1.00006
1.00018
1.00041
1.00108
1.00253
1.00646
1.01568
1.03897
1.09725
1.24765
1.65865
2.84806
6.36796
11.6024
11.1504
10.7287
10.7753
10.9355
11.1216
11.2199
11.2889
11.3428
11.4065
1
1.00002
1.00006
1.00015
1.00039
1.00092
1.00229
1.00574
1.01368
1.03504
1.08476
1.21777
1.57051
2.58351
5.55058
11.5193
11.0964
10.6174
10.646
10.7698
10.9344
11.0065
11.044
11.062
11.1005
1
1.00002
1.00005
1.00013
1.00035
1.0008
1.00211
1.00493
1.01266
1.03048
1.07693
1.19229
1.50694
2.3973
5.03389
11.1161
10.9125
10.489
10.4923
10.568
10.6996
10.732
10.7192
10.6637
10.6125
1
1.00002
1.00005
1.00012
1.00031
1.00072
1.00188
1.00442
1.01123
1.02733
1.06836
1.1714
1.44846
2.23145
4.5389
10.3247
10.5911
10.4008
10.3135
10.347
10.4148
10.3957
10.3046
10.0866
9.75755
1
1.00001
1.00004
1.00011
1.00025
1.00069
1.00154
1.00416
1.00939
1.02513
1.05865
1.15331
1.38919
2.07338
4.05625
9.35594
10.4177
10.2934
10.1231
10.1135
10.097
10.0115
9.76448
9.18529
7.68995
1
1.00001
1.00003
1.00009
1.00023
1.00057
1.00142
1.0034
1.00869
1.02056
1.05301
1.12925
1.33761
1.90975
3.58367
8.22932
10.3056
10.192
9.95042
9.86792
9.78862
9.6081
9.21452
8.4244
6.87442
1
1.00001
1.00003
1.00008
1.00019
1.0005
1.00116
1.00296
1.00717
1.01766
1.04413
1.10923
1.28041
1.74993
3.10583
6.96398
10.2244
10.0965
9.79643
9.62565
9.48863
9.22796
8.73969
7.93422
6.70371
1
1.00001
1.00003
1.00006
1.00016
1.00039
1.00096
1.00243
1.00572
1.01485
1.03475
1.09038
1.22244
1.59371
2.63153
5.59659
10.0552
9.96876
9.6765
9.40146
9.20018
8.8968
8.39562
7.65771
6.68652
1
1.00001
1.00002
1.00005
1.00012
1.00033
1.00076
1.00198
1.00463
1.01173
1.02841
1.07095
1.17701
1.46127
2.2506
4.49001
9.55318
9.74386
9.55024
9.20043
8.94287
8.62155
8.14369
7.48598
6.67765
1
1.00001
1.00002
1.00004
1.00011
1.00026
1.00063
1.00157
1.00374
1.00959
1.02251
1.05823
1.14121
1.3696
1.99195
3.78542
8.4034
9.46964
9.34181
9.03595
8.72548
8.39237
7.94518
7.3586
6.66085
1
1
1.00001
1.00003
1.00009
1.00019
1.00053
1.00118
1.00317
1.00714
1.01902
1.04416
1.11487
1.2861
1.77235
3.1398
6.88376
9.23543
9.15931
8.91218
8.55231
8.2018
7.78078
7.254
6.64075
1
1
1.00001
1.00003
1.00006
1.00017
1.00037
1.001
1.00224
1.00598
1.01364
1.03565
1.0848
1.21937
1.56751
2.55444
5.27121
8.97081
9.00219
8.82621
8.44107
8.0495
7.64325
7.16593
6.62062
1
1
1.00001
1.00002
1.00005
1.00012
1.0003
1.00072
1.00175
1.00438
1.01034
1.02655
1.06308
1.16149
1.41024
2.10151
3.99549
8.30896
8.85073
8.70352
8.34938
7.92695
7.52941
7.09192
6.60166
1
1
1.00001
1.00001
1.00004
1.00009
1.00021
1.00056
1.00128
1.0034
1.00764
1.02043
1.04683
1.12263
1.30322
1.81661
3.23103
6.90975
8.58897
8.5146
8.26668
7.8361
7.43808
7.02901
6.58334
1
1
1
1.00001
1.00003
1.00006
1.00017
1.00039
1.00101
1.00235
1.00596
1.01439
1.03539
1.0881
1.22099
1.57783
2.56287
5.21656
8.26773
8.33629
8.18189
7.81431
7.37919
6.97822
6.56623
1
1
1
1.00001
1.00002
1.00005
1.00011
1.0003
1.00068
1.00177
1.00411
1.01036
1.02501
1.06187
1.15341
1.39265
2.03477
3.75229
7.55657
8.20521
8.09019
7.78808
7.3434
6.9414
6.55161
1
1
1
1.00001
1.00001
1.00003
1.00009
1.0002
1.00052
1.00119
1.00311
1.00704
1.01866
1.04266
1.1118
1.27272
1.72835
2.95058
6.09545
7.96757
7.93258
7.74606
7.3457
6.92424
6.54101
1
1
1
1
1.00001
1.00002
1.00006
1.00014
1.00035
1.00087
1.00204
1.00525
1.01202
1.03139
1.07337
1.18895
1.47805
2.26752
4.31181
7.50576
7.80946
7.68389
7.35907
6.92641
6.54138
1
1
1
1
1.00001
1.00002
1.00004
1.00009
1.00025
1.00057
1.00149
1.00338
1.00877
1.02049
1.05163
1.12584
1.32069
1.83367
3.20682
6.46231
7.62131
7.56259
7.35116
6.94116
6.54697
1
1
1
1
1
1.00001
1.00003
1.00006
1.00017
1.00039
1.00102
1.00231
1.00597
1.01397
1.03502
1.08523
1.21436
1.55065
2.4561
4.77945
7.24139
7.41082
7.30122
6.99674
6.56667
1
1
1
1
1
1.00001
1.00002
1.00005
1.00011
1.00027
1.00065
1.00157
1.00389
1.00918
1.02322
1.05491
1.13872
1.34566
1.89626
3.30559
6.42547
7.25605
7.19953
7.00282
6.60968
1
1
1
1
1
1.00001
1.00001
1.00003
1.00007
1.00018
1.00041
1.00108
1.00246
1.00633
1.01483
1.03695
1.09003
1.22545
1.57751
2.50981
4.84417
6.92485
7.06676
6.97034
6.70576
1
1
1
1
1
1
1.00001
1.00002
1.00005
1.00011
1.00027
1.00069
1.00158
1.00408
1.00921
1.02415
1.05515
1.14239
1.348
1.89836
3.2639
6.19744
6.9298
6.89022
6.72586
1
1
1
1
1
1
1.00001
1.00001
1.00003
1.00007
1.00018
1.00042
1.00106
1.00255
1.00608
1.01527
1.03577
1.09086
1.2204
1.56972
2.4663
4.6971
6.60697
6.77918
6.69763
1
1
1
1
1
1
1
1.00001
1.00002
1.00005
1.00011
1.00027
1.00067
1.00154
1.00397
1.00895
1.02339
1.0533
1.13733
1.33365
1.85486
3.13087
5.87251
6.63251
6.61278
1
1
1
1
1
1
1
1.00001
1.00001
1.00003
1.00007
1.00017
1.00042
1.00098
1.00248
1.00563
1.01464
1.03321
1.08606
1.20456
1.52925
2.34259
4.35309
6.27133
6.51473
1
1
1
1
1
1
1
1
1.00001
1.00002
1.00004
1.00011
1.00024
1.00063
1.00142
1.00367
1.00834
1.02127
1.04971
1.12464
1.30538
1.77396
2.92389
5.45218
6.33076
1
1
1
1
1
1
1
1
1
1.00001
1.00003
1.00006
1.00015
1.00038
1.00087
1.00222
1.00501
1.01304
1.02934
1.07627
1.17866
1.45951
2.14515
3.81523
5.88173
1
1
1
1
1
1
1
1
1
1.00001
1.00002
1.00004
1.0001
1.00021
1.00055
1.00124
1.0032
1.00728
1.01845
1.04318
1.10759
1.26236
1.66112
2.6414
4.87547
1
1
1
1
1
1
1
1
1
1
1.00001
1.00002
1.00005
1.00014
1.0003
1.00078
1.00175
1.00447
1.01024
1.02557
1.06046
1.14922
1.36551
1.90515
3.16318
1
1
1
1
1
1
1
1
1
1
1.00001
1.00001
1.00003
1.00007
1.00019
1.00044
1.00107
1.00259
1.00607
1.01524
1.0351
1.08904
1.21187
1.53797
2.33226
1
1
1
1
1
1
1
1
1
1
1
1.00001
1.00002
1.00004
1.00011
1.00025
1.00064
1.00142
1.0037
1.00819
1.02134
1.04793
1.12317
1.29205
1.73218
1
1
1
1
1
1
1
1
1
1
1
1
1.00001
1.00003
1.00006
1.00015
1.00034
1.00089
1.00197
1.00514
1.0114
1.02957
1.06714
1.17078
1.4109
1
1
1
1
1
1
1
1
1
1
1
1
1.00001
1.00001
1.00004
1.00008
1.00022
1.00049
1.00127
1.00283
1.00725
1.01653
1.04142
1.09787
1.24405
1
1
1
1
1
1
1
1
1
1
1
1
1
1.00001
1.00002
1.00006
1.00013
1.00033
1.00074
1.00193
1.00428
1.01122
1.02495
1.06518
1.15108
1
1
1
1
1
1
1
1
1
1
1
1
1
1.00001
1.00002
1.00004
1.00009
1.00025
1.00055
1.00144
1.00327
1.00848
1.01984
1.05014
1.12263
1
1
1
1
1
1
1
1
1
1
1
1
1
1.00001
1.00001
1.00003
1.00008
1.00021
1.00049
1.00123
1.00308
1.00736
1.01904
1.04583
1.11839
1
1
1
1
1
1
1
1
1
1
1
1
1
1
1.00001
1.00003
1.00008
1.00019
1.00046
1.00122
1.00282
1.00763
1.01752
1.04728
1.11402
1
1
1
1
1
1
1
1
1
1
1
1
1
1
1.00001
1.00003
1.00008
1.00018
1.00047
1.00115
1.00288
1.00736
1.01783
1.04634
1.11526
1
1
1
1
1
1
1
1
1
1
1
1
1
1.00001
1.00001
1.00003
1.00007
1.00019
1.00044
1.00121
1.00275
1.00752
1.01745
1.04674
1.11423
1
1
1
1
1
1
1
1
1
1
1
1
1
1
1.00001
1.00003
1.00007
1.00018
1.00047
1.0011
1.00296
1.00686
1.0186
1.04408
1.11691
1
1
1
1
1
1
1
1
1
1
1
1
1
1
1.00001
1.00003
1.00007
1.00019
1.00043
1.00118
1.00269
1.00737
1.01716
1.04594
1.11266
1
1
1
1
1
1
1
1
1
1
1
1
1
1
1.00001
1.00003
1.00007
1.00019
1.00043
1.00116
1.00271
1.00717
1.01736
1.04489
1.11286
1
1
1
1
1
1
1
1
1
1
1
1
1
1
1.00001
1.00003
1.00007
1.00018
1.00044
1.00111
1.00282
1.00683
1.0179
1.04365
1.11386
3.40187
2.39053
2.77899
3.85999
3.77348
3.61242
3.52711
3.48834
3.45625
3.39601
3.32437
3.25862
3.20123
3.14235
3.07694
3.0077
2.93977
2.87855
2.82379
2.76651
2.70191
2.66326
2.64713
2.64302
2.65777
2.71646
2.81966
2.96103
3.12609
3.30032
3.47388
3.64149
3.79941
3.9462
4.07929
4.19967
4.30806
4.40576
4.49433
4.5743
4.64435
4.70547
4.75818
4.80296
4.84176
4.87531
4.90089
4.91947
4.93203
4.93938
4.94178
4.94078
4.93651
4.92696
4.9121
4.89469
4.87458
4.85214
4.82716
4.79996
4.77058
4.73927
4.70609
4.67129
4.63494
4.59722
4.55819
4.51803
4.4768
4.43462
4.39158
4.34777
4.30326
4.25815
4.21248
4.16633
4.11975
4.07282
4.0256
3.97816
3.93058
3.88292
3.83526
3.78767
3.74023
3.69299
3.64603
3.5994
3.55318
3.50747
3.46237
3.41801
3.37461
3.33241
3.29178
3.25326
3.21758
3.18593
3.15985
3.14255
4.2184
3.35541
3.48208
3.84855
3.7402
3.5824
3.52194
3.52564
3.4912
3.40409
3.31699
3.24436
3.19058
3.13872
3.07586
3.00712
2.93817
2.87463
2.81847
2.76508
2.70892
2.66445
2.64405
2.63842
2.65033
2.70454
2.80449
2.94517
3.11176
3.28754
3.46225
3.63035
3.78844
3.93528
4.06879
4.18897
4.29708
4.39406
4.48374
4.5653
4.63596
4.69748
4.75055
4.79631
4.83583
4.86926
4.89498
4.91391
4.92669
4.93425
4.93672
4.93593
4.93241
4.92376
4.90828
4.89041
4.87044
4.8482
4.82348
4.79643
4.76719
4.736
4.70296
4.6683
4.63208
4.59448
4.55559
4.51555
4.47444
4.43238
4.38945
4.34575
4.30134
4.25632
4.21074
4.16466
4.11816
4.07129
4.02412
3.97673
3.92918
3.88156
3.83394
3.78638
3.73897
3.69175
3.64481
3.59819
3.55198
3.50627
3.46114
3.41675
3.37327
3.33097
3.29018
3.25141
3.21551
3.18356
3.157
3.13929
5.06211
4.10042
3.78819
3.80352
3.75129
3.62268
3.53002
3.49936
3.45389
3.38719
3.3116
3.24632
3.19923
3.1443
3.07417
3.00126
2.92909
2.86269
2.80589
2.7571
2.71079
2.6674
2.63976
2.62995
2.63737
2.68507
2.77976
2.91972
3.08934
3.2667
3.4414
3.60928
3.7677
3.91772
4.05272
4.17374
4.28295
4.38186
4.47216
4.55386
4.62508
4.68722
4.74096
4.78726
4.82673
4.85979
4.88586
4.90525
4.91847
4.92626
4.92887
4.92824
4.92541
4.91809
4.9032
4.88452
4.86421
4.84212
4.81772
4.79095
4.76195
4.73096
4.69813
4.66366
4.62765
4.59024
4.55155
4.51169
4.47076
4.42887
4.3861
4.34255
4.29828
4.25338
4.20791
4.16193
4.11551
4.06871
4.02161
3.97428
3.92678
3.87921
3.83163
3.78412
3.73674
3.68956
3.64263
3.59603
3.54982
3.50408
3.45892
3.41448
3.37088
3.32843
3.28752
3.24856
3.21226
3.17968
3.15226
3.13383
5.48006
4.54421
4.02904
3.84855
3.77282
3.65978
3.55748
3.50407
3.45058
3.38202
3.30596
3.23949
3.18501
3.12966
3.06532
2.9944
2.92425
2.85908
2.80358
2.75379
2.70601
2.66541
2.63066
2.61236
2.61972
2.66881
2.75763
2.89364
3.0607
3.23914
3.41522
3.58438
3.74381
3.89341
4.02886
4.15109
4.26153
4.36163
4.45241
4.53431
4.60654
4.66966
4.72426
4.77128
4.81122
4.84456
4.87109
4.89107
4.90484
4.91303
4.91585
4.91536
4.91309
4.90709
4.89427
4.87509
4.85425
4.83211
4.80799
4.78163
4.75304
4.72243
4.68996
4.65582
4.62015
4.58307
4.54469
4.50514
4.4645
4.42289
4.38038
4.33707
4.29304
4.24834
4.20306
4.15725
4.11097
4.0643
4.0173
3.97006
3.92265
3.87515
3.82766
3.78022
3.73291
3.68578
3.63892
3.59234
3.54619
3.50043
3.45525
3.41077
3.36725
3.32467
3.2835
3.24408
3.20719
3.17377
3.14523
3.12579
5.71014
4.86179
4.28608
3.96753
3.82526
3.71547
3.61012
3.52721
3.46142
3.39019
3.31313
3.24335
3.18348
3.12353
3.05742
2.98691
2.918
2.85419
2.79858
2.74833
2.70283
2.66437
2.63563
2.62208
2.62888
2.66905
2.76001
2.88839
3.04249
3.2082
3.37955
3.54709
3.70609
3.85514
3.99179
4.11597
4.22836
4.33038
4.42268
4.50588
4.57958
4.64418
4.70005
4.7481
4.78878
4.8227
4.84989
4.8707
4.88534
4.89434
4.8978
4.89745
4.89573
4.89106
4.88083
4.86256
4.84159
4.81923
4.79527
4.76935
4.74132
4.71127
4.67932
4.64566
4.61044
4.5738
4.53584
4.49668
4.45642
4.41516
4.37298
4.32998
4.28623
4.24179
4.19673
4.15111
4.10502
4.05849
4.01164
3.96452
3.91725
3.86987
3.82251
3.77518
3.72798
3.68095
3.63418
3.58762
3.54153
3.49592
3.45089
3.40642
3.36277
3.32004
3.27858
3.23873
3.20117
3.16686
3.13708
3.11635
5.85738
5.10652
4.52869
4.15103
3.9305
3.78748
3.66945
3.57195
3.48846
3.41087
3.33216
3.2569
3.19018
3.12632
3.0594
2.98974
2.92181
2.85893
2.80428
2.75641
2.71552
2.68378
2.66395
2.66284
2.67447
2.7161
2.80299
2.91213
3.03852
3.17654
3.3248
3.48318
3.64206
3.7946
3.93663
4.06552
4.1814
4.28585
4.3801
4.46512
4.54091
4.60768
4.66563
4.7154
4.7575
4.79258
4.82092
4.84293
4.85884
4.86909
4.87375
4.87358
4.87239
4.86891
4.86112
4.84553
4.82515
4.80276
4.77888
4.75335
4.72593
4.69657
4.66532
4.63233
4.59773
4.56166
4.52424
4.48559
4.44581
4.40499
4.36323
4.32061
4.2772
4.23306
4.18828
4.14291
4.09702
4.05068
4.004
3.95704
3.90993
3.86271
3.81551
3.76834
3.7212
3.67433
3.62778
3.58154
3.53562
3.49009
3.44509
3.40061
3.35688
3.31399
3.27227
3.23199
3.19379
3.15859
3.12759
3.10556
5.95652
5.29378
4.73923
4.33065
4.05584
3.8715
3.73313
3.62124
3.52687
3.44169
3.35988
3.28084
3.20685
3.13715
3.06893
3.00012
2.93331
2.87221
2.82032
2.77959
2.75104
2.73549
2.73686
2.74871
2.78379
2.85226
2.91845
2.98754
3.06771
3.16388
3.26385
3.38489
3.53307
3.69104
3.84752
3.99008
4.11612
4.22684
4.32469
4.41213
4.49012
4.5594
4.62002
4.67237
4.71682
4.75397
4.7842
4.80801
4.8257
4.83766
4.84416
4.84483
4.8441
4.84162
4.83579
4.82375
4.80506
4.78336
4.75981
4.73464
4.70779
4.67916
4.64871
4.61652
4.58267
4.54731
4.51055
4.4725
4.43328
4.39298
4.3517
4.30951
4.2665
4.22272
4.17824
4.13313
4.08748
4.04135
3.99488
3.94812
3.90124
3.85421
3.80721
3.76027
3.71364
3.66702
3.62067
3.57455
3.52876
3.48329
3.43831
3.39382
3.35004
3.30703
3.26507
3.22443
3.18564
3.14962
3.11748
3.09412
6.02484
5.436
4.91479
4.49765
4.18883
3.96822
3.80543
3.67671
3.571
3.47787
3.3915
3.30913
3.2316
3.15885
3.08873
3.02092
2.95577
2.89811
2.85256
2.82551
2.81727
2.82177
2.84175
2.89381
2.9926
3.06156
3.09655
3.12192
3.14648
3.17652
3.23744
3.29675
3.38803
3.52995
3.69821
3.86398
4.01309
4.1419
4.25166
4.34607
4.42786
4.49992
4.56309
4.61815
4.66549
4.70546
4.73848
4.76491
4.78503
4.79927
4.80796
4.81075
4.8103
4.80862
4.80449
4.79577
4.7799
4.7599
4.73725
4.71268
4.68645
4.65855
4.62895
4.59764
4.56469
4.53016
4.49418
4.45685
4.4183
4.3786
4.33788
4.29618
4.25361
4.21021
4.16608
4.12126
4.07588
4.03
3.98379
3.93724
3.89065
3.84404
3.79748
3.75092
3.7045
3.65813
3.61195
3.56595
3.52028
3.47491
3.43001
3.38559
3.34181
3.29875
3.25665
3.21573
3.17647
3.13976
3.10665
3.08205
6.07316
5.54466
5.05921
4.64752
4.32126
4.07341
3.88625
3.74018
3.62141
3.51959
3.42768
3.34208
3.26126
3.18577
3.11413
3.04679
2.98453
2.93311
2.9003
2.89683
2.90391
2.93127
3.00089
3.14698
3.28408
3.33258
3.3305
3.31788
3.28475
3.23998
3.24228
3.26207
3.30839
3.38761
3.51074
3.67757
3.84697
4.00497
4.14173
4.25601
4.35036
4.42924
4.4962
4.55408
4.60405
4.6468
4.68307
4.7128
4.73616
4.75346
4.765
4.77096
4.77108
4.77026
4.76767
4.76176
4.74975
4.7322
4.71121
4.68773
4.66233
4.63524
4.60651
4.57613
4.54413
4.51055
4.47546
4.43896
4.40116
4.36215
4.32205
4.2809
4.23882
4.19583
4.15207
4.10756
4.06251
4.01692
3.97106
3.92508
3.87894
3.83273
3.78652
3.74025
3.69405
3.64789
3.60191
3.55609
3.51058
3.46538
3.4206
3.37629
3.33256
3.28951
3.24732
3.20623
3.16661
3.12935
3.09545
3.0698
6.10772
5.62847
5.1771
4.77853
4.44655
4.18114
3.97355
3.80989
3.67761
3.56647
3.46782
3.37895
3.2949
3.21739
3.14488
3.0788
3.02177
2.98148
2.9749
2.98259
3.01191
3.08765
3.25319
3.49896
3.63644
3.63706
3.6181
3.56203
3.4465
3.33921
3.27639
3.27491
3.28799
3.32521
3.39074
3.49159
3.63357
3.80046
3.96483
4.11193
4.23487
4.33426
4.41387
4.47881
4.53297
4.57893
4.61817
4.65113
4.67811
4.69916
4.71433
4.72382
4.72719
4.72684
4.72536
4.72166
4.7138
4.69952
4.68102
4.65932
4.63522
4.60916
4.5814
4.55199
4.52099
4.48839
4.45427
4.41868
4.38172
4.34347
4.30405
4.2635
4.22193
4.17938
4.13599
4.09182
4.04712
4.00209
3.95683
3.91135
3.86569
3.81983
3.7739
3.7279
3.68194
3.63603
3.59028
3.54471
3.49941
3.45441
3.40981
3.36564
3.32203
3.27904
3.23686
3.19567
3.15583
3.11816
3.08367
3.05709
6.1329
5.69422
5.27387
4.89185
4.56147
4.28656
4.0638
3.88459
3.7389
3.61751
3.51232
3.41881
3.33199
3.2534
3.18099
3.1184
3.07025
3.0559
3.06254
3.08961
3.16199
3.32333
3.65012
3.9292
4.00003
3.98314
3.92597
3.79658
3.61979
3.47413
3.37351
3.31796
3.30956
3.31785
3.34589
3.39921
3.47557
3.58304
3.73542
3.89779
4.05259
4.18679
4.2958
4.38152
4.44857
4.50191
4.54545
4.58171
4.61185
4.63653
4.65561
4.66894
4.67676
4.67864
4.67806
4.67607
4.67137
4.66164
4.6463
4.62703
4.60477
4.58015
4.55358
4.52526
4.4953
4.46374
4.43063
4.396
4.35996
4.32256
4.28389
4.24399
4.20298
4.1609
4.11795
4.07437
4.03036
3.98596
3.94125
3.89621
3.85094
3.80543
3.75982
3.71412
3.66845
3.62283
3.57736
3.53205
3.487
3.44225
3.39787
3.35391
3.31047
3.26762
3.22552
3.18435
3.14441
3.10647
3.07157
3.04421
6.15147
5.74638
5.35344
4.98914
4.66497
4.38667
4.15407
3.96241
3.80469
3.67313
3.56065
3.46199
3.37313
3.29346
3.22316
3.16799
3.14265
3.14761
3.17088
3.23663
3.38929
3.71083
4.15638
4.3644
4.35862
4.31766
4.2116
3.99935
3.79826
3.63407
3.51006
3.42319
3.37049
3.34891
3.35217
3.36871
3.40549
3.45725
3.54019
3.66108
3.8131
3.96937
4.11321
4.23473
4.33107
4.40465
4.46054
4.50385
4.53833
4.5663
4.58874
4.60592
4.61802
4.62463
4.62569
4.62498
4.62265
4.61727
4.60631
4.5902
4.5704
4.54771
4.52268
4.49567
4.46688
4.43641
4.40435
4.37074
4.33566
4.29914
4.26127
4.22204
4.18159
4.1401
4.09788
4.05507
4.01175
3.96792
3.9237
3.87909
3.83422
3.78911
3.74388
3.69855
3.65322
3.60794
3.56279
3.5178
3.47305
3.42858
3.38447
3.34077
3.29757
3.25494
3.21301
3.17195
3.13205
3.094
3.05888
3.03093
6.16459
5.78756
5.41954
5.07295
4.75801
4.48043
4.24256
4.04187
3.87403
3.73304
3.61308
3.50923
3.418
3.33943
3.27427
3.23763
3.24053
3.25925
3.31628
3.45309
3.74513
4.29342
4.66665
4.73089
4.70262
4.61408
4.42398
4.18784
3.98085
3.81062
3.67371
3.56588
3.48396
3.42663
3.38983
3.38307
3.38905
3.40774
3.44406
3.50011
3.5899
3.72095
3.86941
4.01836
4.15178
4.26125
4.34553
4.40806
4.45408
4.48859
4.51521
4.53586
4.55176
4.56257
4.56841
4.56902
4.56825
4.56574
4.55996
4.54827
4.53166
4.51144
4.48839
4.46298
4.43557
4.40634
4.37544
4.34292
4.30886
4.27329
4.23625
4.19771
4.15805
4.11747
4.07613
4.03408
3.99141
3.94816
3.90445
3.86033
3.81592
3.77125
3.72644
3.68152
3.63659
3.59169
3.5469
3.50226
3.45786
3.41372
3.36994
3.32656
3.28365
3.24131
3.19962
3.15878
3.11901
3.081
3.04582
3.01738
6.17683
5.82154
5.47542
5.14585
4.84164
4.56808
4.32837
4.12183
3.94596
3.79676
3.66982
3.56123
3.46866
3.39442
3.34155
3.34261
3.35755
3.40779
3.53282
3.80516
4.35729
4.89265
5.06993
5.05345
4.98778
4.83535
4.59038
4.36045
4.16257
3.99438
3.85117
3.72951
3.62722
3.54343
3.47742
3.43142
3.4015
3.40203
3.40892
3.42698
3.46511
3.527
3.62836
3.76274
3.90863
4.04977
4.17259
4.27041
4.34319
4.39532
4.43242
4.45926
4.47909
4.49363
4.50352
4.50862
4.50892
4.50812
4.50552
4.49954
4.48747
4.47053
4.44999
4.42659
4.40084
4.37305
4.34345
4.31213
4.2792
4.24461
4.20842
4.17087
4.13222
4.09258
4.0521
4.0108
3.96881
3.92618
3.88305
3.83948
3.79558
3.75142
3.70708
3.66262
3.61814
3.57367
3.5293
3.48507
3.44107
3.39733
3.35393
3.31093
3.26841
3.22643
3.18509
3.14457
3.10509
3.06725
3.03219
3.00344
6.1894
5.85176
5.52513
5.21192
4.91879
4.65098
4.41147
4.20133
4.01963
3.86371
3.7311
3.61915
3.52924
3.46336
3.45165
3.46382
3.50907
3.62555
3.88337
4.41304
5.05267
5.36113
5.35725
5.31556
5.20521
4.98234
4.74232
4.52959
4.34415
4.18028
4.03382
3.90262
3.78566
3.6829
3.59447
3.52101
3.46331
3.42343
3.40411
3.40568
3.41211
3.43131
3.47282
3.54264
3.65454
3.78969
3.93249
4.06552
4.17747
4.26383
4.3261
4.36906
4.39833
4.4184
4.43224
4.44107
4.44571
4.44562
4.44474
4.4421
4.43606
4.42383
4.40671
4.38594
4.36228
4.33624
4.30816
4.27822
4.24652
4.21295
4.17788
4.14151
4.10398
4.06536
4.02578
3.98531
3.94407
3.90215
3.85968
3.81674
3.77343
3.72982
3.68602
3.64208
3.59809
3.5541
3.5102
3.46644
3.42289
3.37961
3.33666
3.29411
3.25203
3.21051
3.16961
3.12952
3.09044
3.05293
3.01815
2.98925
6.20854
5.88389
5.57319
5.2742
4.9914
4.7295
4.49183
4.27993
4.09439
3.93391
3.79772
3.68679
3.60363
3.57459
3.58455
3.62443
3.73163
3.97361
4.47651
5.18489
5.58869
5.63755
5.60712
5.51598
5.32596
5.09834
4.88664
4.69648
4.52357
4.36394
4.21531
4.0771
3.94939
3.83277
3.72773
3.63504
3.55529
3.48925
3.43915
3.40453
3.39425
3.39464
3.40079
3.42218
3.46939
3.55118
3.66977
3.80513
3.94311
4.06802
4.16967
4.24514
4.29732
4.33167
4.35373
4.36755
4.37599
4.37958
4.3794
4.37836
4.37551
4.36931
4.35711
4.33993
4.31911
4.29532
4.26911
4.24077
4.21039
4.17821
4.14446
4.10935
4.07299
4.03544
3.99684
3.95727
3.91688
3.87576
3.83403
3.79179
3.74914
3.70616
3.66296
3.61959
3.57617
3.53272
3.48936
3.44613
3.4031
3.36035
3.31793
3.27592
3.23438
3.1934
3.15306
3.11352
3.075
3.03798
3.00367
2.97481
6.24345
5.92154
5.62127
5.33382
5.06021
4.80432
4.56937
4.3576
4.1702
4.00784
3.87286
3.76849
3.71654
3.72344
3.75748
3.85526
4.08165
4.55654
5.30211
5.78655
5.88539
5.86323
5.78988
5.63061
5.41667
5.21473
5.03108
4.86012
4.69733
4.5409
4.39068
4.24739
4.11195
3.98536
3.86833
3.76153
3.66549
3.58086
3.50837
3.4495
3.40538
3.38249
3.37093
3.37128
3.37872
3.40407
3.45859
3.55131
3.67429
3.81053
3.94345
4.05913
4.14994
4.21481
4.25755
4.28394
4.29939
4.30759
4.31039
4.31007
4.30883
4.30577
4.29928
4.28687
4.26999
4.24935
4.22565
4.19928
4.17059
4.13997
4.10773
4.07399
4.03891
4.00255
3.96506
3.92653
3.8871
3.84689
3.80601
3.76457
3.72268
3.68042
3.6379
3.59519
3.55239
3.50957
3.46682
3.42419
3.38177
3.33963
3.29782
3.25644
3.21553
3.17521
3.13555
3.0967
3.0589
3.02255
2.98892
2.96034
6.30571
5.96851
5.67058
5.39128
5.12571
4.87576
4.64443
4.4344
4.24816
4.08823
3.9624
3.88091
3.88385
3.91138
3.9993
4.21083
4.65967
5.42143
5.95754
6.10875
6.09336
6.03464
5.90137
5.70252
5.51177
5.33842
5.17594
5.01808
4.86213
4.70798
4.55682
4.41018
4.26945
4.13588
4.01027
3.89328
3.7854
3.68706
3.5988
3.52128
3.4554
3.40361
3.3663
3.35068
3.33583
3.33689
3.34738
3.37855
3.44419
3.54697
3.6719
3.80602
3.93272
4.0392
4.11926
4.17385
4.20767
4.22655
4.23587
4.23794
4.23752
4.23607
4.23273
4.22582
4.21355
4.19698
4.17669
4.15304
4.12657
4.09788
4.06732
4.03512
4.00145
3.96642
3.93018
3.89282
3.8545
3.81532
3.77542
3.73489
3.69386
3.65241
3.61066
3.5687
3.52662
3.48451
3.44244
3.40052
3.35879
3.31736
3.27627
3.23562
3.19547
3.15593
3.11709
3.0791
3.0422
3.00676
2.97405
2.94606
6.38158
6.02666
5.72239
5.44692
5.18807
4.94429
4.71785
4.51208
4.33121
4.18364
4.077
4.06444
4.0868
4.16647
4.36612
4.7935
5.55769
6.12835
6.32118
6.30963
6.26017
6.14378
5.95755
5.77855
5.61724
5.46627
5.318
5.16832
5.01665
4.86407
4.71255
4.56391
4.41986
4.28155
4.14994
4.02563
3.90914
3.80073
3.70087
3.60988
3.52823
3.45738
3.3983
3.35167
3.32323
3.3041
3.29313
3.29587
3.31061
3.3479
3.42421
3.53312
3.6617
3.79299
3.91222
4.00861
4.07794
4.12236
4.14763
4.15945
4.16234
4.16185
4.16019
4.15651
4.14902
4.13695
4.1208
4.10077
4.07735
4.05115
4.02268
3.99229
3.96025
3.92673
3.89189
3.85587
3.81881
3.78081
3.74202
3.70253
3.66247
3.62196
3.58109
3.53999
3.49874
3.45745
3.41619
3.37507
3.33416
3.29354
3.25329
3.2135
3.17425
3.13565
3.0978
3.06087
3.02511
2.99087
2.95939
2.93239
6.47707
6.10286
5.78129
5.50294
5.2486
5.01127
4.79177
4.59425
4.42716
4.30192
4.26591
4.28524
4.35934
4.54994
4.96151
5.72315
6.31428
6.53088
6.52201
6.47822
6.3718
6.19024
6.01886
5.86829
5.7297
5.59322
5.45343
5.30859
5.15971
5.0085
4.85728
4.70788
4.56208
4.4208
4.28517
4.15571
4.03293
3.91714
3.80865
3.70774
3.6149
3.53041
3.45517
3.39007
3.33665
3.29733
3.27303
3.25154
3.244
3.24889
3.26873
3.31384
3.4038
3.5154
3.64391
3.77088
3.88172
3.96728
4.02587
4.06072
4.07817
4.08323
4.08276
4.08102
4.07706
4.06912
4.05716
4.04119
4.02155
3.99863
3.97294
3.94491
3.91489
3.88314
3.84993
3.81542
3.77977
3.74312
3.70558
3.66728
3.62834
3.58889
3.54905
3.50894
3.46865
3.42831
3.38799
3.34781
3.30783
3.26817
3.2289
3.19013
3.15194
3.11447
3.07783
3.04222
3.0079
2.97526
2.94538
2.91998
6.48409
6.19818
5.85367
5.5641
5.31092
5.08024
4.87051
4.68943
4.54857
4.49207
4.50837
4.57794
4.76288
5.16584
5.92584
6.52753
6.75686
6.74868
6.70334
6.59395
6.40887
6.24021
6.09744
5.96957
5.84482
5.71596
5.58044
5.43841
5.2916
5.14201
4.9918
4.84262
4.69606
4.55312
4.41485
4.28166
4.15433
4.03306
3.91829
3.8101
3.70863
3.61428
3.52753
3.44895
3.3793
3.32001
3.27162
3.2388
3.21286
3.19303
3.1924
3.19987
3.22442
3.27813
3.37472
3.4909
3.61773
3.73897
3.84069
3.91571
3.96399
3.98993
4.00004
3.99971
3.99816
3.99422
3.98629
3.97417
3.9583
3.93911
3.91688
3.89191
3.86451
3.83502
3.80379
3.77106
3.73704
3.7019
3.66578
3.62884
3.5912
3.55299
3.51435
3.4754
3.43624
3.39701
3.35778
3.31869
3.27982
3.24128
3.20315
3.16559
3.12867
3.09256
3.05742
3.02347
2.99099
2.96049
2.93277
2.90983
6.45075
6.27111
5.93333
5.63312
5.37867
5.15548
4.96258
4.81004
4.73867
4.75292
4.82039
5.00492
5.40969
6.17397
6.7779
7.0073
6.99713
6.94422
6.8202
6.62407
6.45376
6.31487
6.19431
6.07853
5.9591
5.83257
5.69853
5.55812
5.41309
5.26531
5.11652
4.96823
4.82176
4.67813
4.53827
4.40278
4.27225
4.14695
4.02726
3.91332
3.80542
3.70374
3.60854
3.52018
3.43907
3.36591
3.3016
3.24703
3.20545
3.17419
3.14873
3.1325
3.13447
3.14636
3.17738
3.24187
3.34108
3.46015
3.58422
3.69847
3.79032
3.85461
3.89259
3.91026
3.91267
3.91152
3.90802
3.90051
3.88809
3.87242
3.85385
3.83239
3.80819
3.78155
3.75281
3.72228
3.6902
3.65682
3.62235
3.58698
3.55083
3.51408
3.47684
3.43925
3.40141
3.36347
3.32553
3.28772
3.25013
3.21291
3.17615
3.14003
3.10465
3.07023
3.03694
3.00513
2.97504
2.94748
2.9227
2.90346
6.34807
6.26347
6.05095
5.72828
5.46086
5.246
5.08134
5.00006
5.01371
5.08271
5.27436
5.69573
6.47432
7.07555
7.29163
7.27628
7.20771
7.05376
6.84728
6.6718
6.53226
6.41446
6.30349
6.19017
6.07032
5.94304
5.80896
5.66941
5.52585
5.37978
5.23254
5.08543
4.93952
4.79582
4.6551
4.51807
4.38522
4.25696
4.13363
4.01545
3.90265
3.79537
3.6938
3.59813
3.50865
3.42566
3.34976
3.28143
3.2222
3.17207
3.13589
3.10363
3.07972
3.06824
3.07222
3.08833
3.12603
3.20224
3.30369
3.42325
3.54352
3.64929
3.7304
3.78351
3.81216
3.82127
3.82057
3.81778
3.81141
3.79925
3.78438
3.76622
3.74526
3.7218
3.69606
3.66823
3.63857
3.60738
3.57491
3.54141
3.50703
3.47198
3.43636
3.40035
3.36406
3.32764
3.29119
3.25488
3.21882
3.18317
3.14804
3.11367
3.08018
3.04788
3.01697
2.98796
2.9611
2.9376
2.91702
2.90318
6.25049
6.22064
6.10115
5.84353
5.56778
5.36689
5.27289
5.28759
5.36231
5.56925
6.02392
6.8311
7.42763
7.61889
7.59529
7.50453
7.30968
7.08523
6.89916
6.75438
6.63498
6.52525
6.41506
6.29935
6.17681
6.04765
5.91296
5.77378
5.63134
5.48665
5.34085
5.19489
5.04975
4.90627
4.76521
4.62724
4.49283
4.36247
4.23644
4.11505
3.99846
3.88686
3.78039
3.67916
3.58335
3.49313
3.40882
3.33072
3.25946
3.1958
3.14036
3.0962
3.06015
3.02951
3.00631
3.00408
3.00988
3.02938
3.07249
3.15757
3.2626
3.38014
3.49473
3.59098
3.66128
3.70329
3.72429
3.72448
3.72302
3.71853
3.70885
3.6938
3.67568
3.65533
3.6328
3.60812
3.58144
3.55302
3.52307
3.49186
3.45961
3.42653
3.39281
3.35863
3.32412
3.28947
3.25478
3.22025
3.18599
3.15223
3.11909
3.08688
3.05577
3.02618
2.99841
2.97316
2.95085
2.93304
2.91806
2.90794
6.02333
6.14562
6.09479
5.9568
5.70819
5.56405
5.57792
5.65881
5.88808
6.39228
7.24978
7.84063
7.99453
7.95922
7.83922
7.59132
7.3419
7.14104
6.98681
6.86201
6.74977
6.63964
6.52549
6.40522
6.27904
6.14751
6.01173
5.8724
5.73055
5.58676
5.44203
5.297
5.15262
5.0095
4.86843
4.72994
4.59457
4.46274
4.33478
4.21097
4.0915
3.97657
3.86627
3.76075
3.66006
3.56436
3.47373
3.38844
3.30873
3.23506
3.16787
3.1084
3.05703
3.01735
2.97956
2.95147
2.93233
2.93379
2.94304
2.96793
3.02047
3.10864
3.21629
3.33147
3.43871
3.52476
3.58336
3.61721
3.62737
3.62647
3.62296
3.61496
3.60024
3.58314
3.56345
3.54178
3.5183
3.49309
3.4662
3.43782
3.40815
3.37747
3.34599
3.31397
3.28154
3.24896
3.21634
3.18392
3.15183
3.12037
3.0897
3.06021
3.0322
3.00617
2.98269
2.96258
2.94723
2.93541
2.92555
2.92163
5.47807
6.03981
6.06789
6.02551
5.91476
5.91975
5.99747
6.24392
6.79342
7.72576
8.31705
8.42043
8.36889
8.21265
7.90072
7.62336
7.4046
7.23794
7.10441
6.98624
6.87212
6.75516
6.63391
6.50784
6.37746
6.24324
6.10597
5.96606
5.82424
5.68089
5.53682
5.39248
5.24871
5.106
4.96506
4.82637
4.69043
4.55761
4.42827
4.30266
4.18102
4.06348
3.95021
3.84127
3.73676
3.63674
3.54126
3.4505
3.36449
3.28353
3.20787
3.13804
3.0748
3.01848
2.97199
2.93155
2.89599
2.86945
2.85799
2.86105
2.87371
2.90418
2.96678
3.05791
3.16616
3.27753
3.37571
3.45204
3.49791
3.52205
3.52435
3.52262
3.51762
3.5064
3.48956
3.47049
3.4498
3.42764
3.40393
3.37875
3.35215
3.32439
3.29563
3.26619
3.23626
3.20613
3.17597
3.14609
3.11666
3.08804
3.06053
3.03457
3.01069
2.98949
2.97196
2.95994
2.95123
2.94564
2.94604
2.94887
4.23555
5.73098
6.03134
6.09903
6.1597
6.3096
6.65661
7.37247
8.29342
8.85555
8.89062
8.81478
8.60628
8.24736
7.93418
7.69324
7.51277
7.36821
7.24061
7.1182
6.99521
6.86901
6.73955
6.60716
6.47222
6.335
6.19582
6.05489
5.9126
5.76928
5.62545
5.48157
5.33822
5.19591
5.05518
4.91648
4.78023
4.6468
4.5165
4.38959
4.2663
4.14675
4.03113
3.91949
3.81193
3.70844
3.60915
3.5141
3.42326
3.33673
3.25474
3.17756
3.10558
3.03929
2.97943
2.92732
2.88324
2.84212
2.80956
2.78501
2.78372
2.78839
2.80414
2.83968
2.9113
3.00595
3.11381
3.21942
3.30955
3.37183
3.40674
3.42105
3.42041
3.4173
3.40983
3.39488
3.37735
3.35766
3.33668
3.3146