/*--------------------------------*- C++ -*----------------------------------*\
  =========                 |
  \\      /  F ield         | OpenFOAM: The Open Source CFD Toolbox
   \\    /   O peration     | Website:  https://openfoam.org
    \\  /    A nd           | Version:  9
     \\/     M anipulation  |
\*---------------------------------------------------------------------------*/
FoamFile
{
    format      ascii;
    class       surfaceScalarField;
    location    "6.5";
    object      phi;
}
// * * * * * * * * * * * * * * * * * * * * * * * * * * * * * * * * * * * * * //

dimensions      [1 0 -1 0 0 0 0];

internalField   nonuniform List<scalar> 
10325
(
0.00840002
1.31705e-10
0.00840005
3.5152e-10
0.00839994
2.36088e-09
0.00840023
3.86474e-09
0.00839953
1.73959e-08
0.00840117
2.56638e-08
0.00839739
1.10089e-07
0.00840585
1.44973e-07
0.00838745
6.71255e-07
0.00841776
1.01642e-06
0.00836914
3.77888e-06
0.00840887
9.09801e-06
0.0083371
3.10991e-05
0.00823873
0.000116869
0.00763218
0.000594129
0.00699006
0.000643389
0.00637153
0.000618912
0.00572857
0.000642299
0.00505378
0.000674058
0.00433846
0.000714521
0.00357199
0.000765554
0.00275258
0.000818238
0.00188553
0.000866259
0.000969924
0.000915488
0.000969555
0.00840002
1.24955e-10
0.00840004
1.37834e-09
0.00839996
3.04683e-09
0.00840016
1.32082e-08
0.0083997
2.27769e-08
0.00840071
8.88746e-08
0.00839837
1.31709e-07
0.00840251
5.81085e-07
0.00839333
7.2478e-07
0.00840707
3.38446e-06
0.00837953
5.87902e-06
0.00839861
2.08952e-05
0.00834182
6.14282e-05
0.00823259
0.000237001
0.00762934
0.00118655
0.00697665
0.00129741
0.00636601
0.00122999
0.00573163
0.00127603
0.00506117
0.0013438
0.00433937
0.00143554
0.00356431
0.00153972
0.002737
0.00164439
0.00185952
0.00174296
0.000939745
0.00183515
0.00190892
0.00840002
4.08209e-10
0.00840004
1.08389e-09
0.00839998
7.52686e-09
0.00840009
1.06057e-08
0.00839973
5.47572e-08
0.00840067
6.80533e-08
0.0083979
3.46316e-07
0.00840459
4.16258e-07
0.00838863
2.07155e-06
0.00841604
3.10795e-06
0.0083714
1.17689e-05
0.00840503
2.77474e-05
0.00833653
9.52877e-05
0.00824071
0.000349032
0.00766719
0.00174792
0.00700718
0.00195926
0.00639985
0.00183764
0.00577311
0.00190211
0.00510879
0.00200748
0.00438766
0.00215588
0.00360905
0.00231738
0.00277481
0.00247743
0.0018861
0.00263105
0.000951707
0.00276916
0.00285992
0.00840002
1.9725e-10
0.00840002
2.5203e-09
0.00840002
5.40928e-09
0.00839999
2.47785e-08
0.00840008
4.15386e-08
0.00839958
1.63602e-07
0.00840083
2.70293e-07
0.00839669
9.8873e-07
0.00840472
1.80707e-06
0.00838836
5.77077e-06
0.0084049
1.30542e-05
0.00837615
3.94969e-05
0.00836252
0.000121245
0.00825102
0.000451018
0.00775119
0.0022408
0.00708675
0.00262577
0.00648012
0.00244487
0.00586088
0.00252073
0.00520427
0.00266319
0.00449029
0.00286937
0.00371199
0.00309517
0.00286958
0.00331857
0.00196099
0.00353864
0.000995754
0.00373502
0.003856
0.00840002
3.87725e-10
0.00840005
2.43805e-09
0.00839995
8.73083e-09
0.00840021
2.37847e-08
0.00839958
6.39739e-08
0.0084011
1.6355e-07
0.00839761
3.90017e-07
0.00840551
1.06806e-06
0.00838836
2.35562e-06
0.00841785
6.76339e-06
0.00836948
1.59656e-05
0.00841269
4.71358e-05
0.00834552
0.000144999
0.0082862
0.000529865
0.00790546
0.00260832
0.00723284
0.00330035
0.00661744
0.00306076
0.00600112
0.00313646
0.00535286
0.00331081
0.00464435
0.00357721
0.003869
0.00386958
0.0030212
0.00416525
0.00209082
0.00446854
0.0010729
0.00475339
0.00492908
0.00840002
4.49807e-10
0.00840002
2.56549e-09
0.00840005
9.77781e-09
0.00839996
2.54082e-08
0.00840007
7.44446e-08
0.00839992
1.7009e-07
0.00839966
4.71159e-07
0.00840035
1.07232e-06
0.00839743
2.89225e-06
0.00840056
6.946e-06
0.00839559
1.87131e-05
0.00838888
5.08731e-05
0.00837761
0.00015989
0.00833389
0.000570616
0.00817382
0.00275883
0.00748897
0.00398789
0.00684133
0.00370914
0.00621687
0.00376061
0.00557445
0.00395287
0.00487362
0.00427761
0.00409824
0.00464428
0.00323798
0.00502481
0.0022751
0.00543102
0.0011924
0.00583559
0.00612101
0.00840003
4.86689e-10
0.00840001
2.66886e-09
0.00840007
9.72821e-09
0.00839993
2.61043e-08
0.00840026
7.27624e-08
0.00839955
1.6842e-07
0.00840095
4.87669e-07
0.0083982
1.00932e-06
0.00840272
3.13731e-06
0.0083943
6.47413e-06
0.00840807
1.96576e-05
0.00838711
4.97028e-05
0.00840961
0.000158003
0.00841673
0.000551463
0.00862538
0.00254221
0.0079257
0.00468895
0.00719241
0.00444308
0.00654268
0.00441024
0.00589317
0.0046022
0.00519644
0.00497378
0.00442105
0.00541916
0.0035479
0.00589731
0.00254908
0.0064294
0.00137826
0.00700626
0.00749882
0.00840002
3.53709e-10
0.00840003
2.53676e-09
0.0084
8.05909e-09
0.0084001
2.48503e-08
0.00839991
6.06045e-08
0.0084002
1.66307e-07
0.00839995
3.81745e-07
0.00839969
1.03266e-06
0.00840108
2.34966e-06
0.0084003
6.28895e-06
0.00840332
1.52114e-05
0.00841759
4.20713e-05
0.0084432
0.000122422
0.008584
0.000414139
0.00933288
0.00178849
0.00863266
0.00538662
0.00770316
0.00537185
0.0070085
0.00510471
0.00633926
0.00527111
0.00563362
0.005679
0.00485413
0.00619779
0.0039688
0.00678203
0.00294288
0.0074546
0.00168003
0.0082687
0.00917873
0.00840002
3.64998e-10
0.00840004
2.15306e-09
0.00839999
7.89477e-09
0.00840013
2.14606e-08
0.00839983
5.80679e-08
0.00840055
1.44316e-07
0.00839906
3.60426e-07
0.00840244
8.88919e-07
0.00839555
2.20179e-06
0.00841006
5.47296e-06
0.00838772
1.38956e-05
0.0084257
3.67591e-05
0.00840734
0.000107037
0.00848502
0.000353963
0.00877666
0.00148904
0.00859851
0.00555993
0.00793271
0.00603481
0.00737253
0.00566477
0.00672805
0.00591539
0.00609439
0.0063118
0.00535951
0.00693206
0.00452919
0.00761139
0.00354655
0.00843685
0.00219755
0.0096175
0.0113763
0.00840002
3.36973e-10
0.00840004
2.05228e-09
0.0084
7.64575e-09
0.00840011
1.99534e-08
0.00839987
5.66489e-08
0.00840045
1.3534e-07
0.00839923
3.474e-07
0.00840169
8.65263e-07
0.00839672
2.05186e-06
0.00840639
5.46913e-06
0.00838995
1.29551e-05
0.00841647
3.57402e-05
0.00839503
0.00010073
0.00843227
0.000330843
0.00859433
0.00132144
0.0084215
0.00572628
0.00818098
0.0062743
0.00760906
0.00623632
0.00708199
0.0064418
0.00653993
0.00685287
0.00593789
0.00753316
0.00525525
0.00829296
0.00435702
0.00933427
0.0030703
0.0109037
0.0144466
0.00840003
2.88208e-10
0.00840001
2.29433e-09
0.00840006
6.69458e-09
0.00839994
2.26057e-08
0.00840026
5.01719e-08
0.00839951
1.48911e-07
0.00840135
3.16933e-07
0.00839728
9.14691e-07
0.00840689
1.98044e-06
0.00838719
5.53133e-06
0.00842188
1.2868e-05
0.00837322
3.55536e-05
0.00842758
9.83538e-05
0.00839587
0.000319769
0.00851646
0.0012203
0.0085008
0.00572929
0.00814874
0.00662572
0.00775966
0.00662515
0.00739832
0.0068025
0.00697395
0.00727614
0.00657666
0.00792947
0.00610717
0.00876142
0.0056608
0.00977963
0.00559724
0.0109666
0.0114113
0.00863155
0.00840003
3.50986e-10
0.00840003
2.07017e-09
0.00840004
7.58755e-09
0.0084
2.04124e-08
0.00840005
5.68571e-08
0.00839999
1.3563e-07
0.0083999
3.57318e-07
0.00840031
8.42141e-07
0.00839854
2.17249e-06
0.00840183
5.27105e-06
0.00839632
1.35525e-05
0.00840089
3.49121e-05
0.00840051
9.85431e-05
0.0084079
0.000310447
0.00847867
0.00114771
0.00871119
0.00548791
0.00834928
0.0069878
0.00796962
0.00700518
0.00765788
0.0071136
0.0073671
0.00756572
0.00708905
0.00820634
0.00685904
0.00899017
0.00677886
0.00985847
0.0071756
0.0105679
0.0104631
0.0081223
0.00840003
3.49544e-10
0.00840002
2.00242e-09
0.00840005
7.26998e-09
0.00839998
1.95706e-08
0.00840014
5.44102e-08
0.00839981
1.28823e-07
0.00840048
3.53546e-07
0.00839928
7.90551e-07
0.00840106
2.22905e-06
0.00839792
4.87531e-06
0.00840371
1.39046e-05
0.00839416
3.2892e-05
0.00841348
9.61264e-05
0.00841661
0.000290644
0.00852336
0.00104623
0.009202
0.00479952
0.00878713
0.00740333
0.00831496
0.00747801
0.00800207
0.00742652
0.00777766
0.00778907
0.00760349
0.00837918
0.00755353
0.00903891
0.00774065
0.00966992
0.00822305
0.0100838
0.00989269
0.00879061
0.00840003
2.76564e-10
0.00840003
1.82865e-09
0.00840002
6.2344e-09
0.00840005
1.80861e-08
0.00840001
4.59562e-08
0.00840005
1.23072e-07
0.00840015
2.84666e-07
0.00839963
7.75778e-07
0.00840178
1.73012e-06
0.00839682
4.836e-06
0.00840969
1.08774e-05
0.00839759
3.05466e-05
0.00842918
7.80897e-05
0.00846926
0.000239342
0.00870905
0.000812786
0.0100834
0.00341172
0.00946742
0.00801994
0.00893589
0.00801016
0.00850242
0.0078602
0.00825642
0.00803466
0.00815478
0.00847981
0.00819912
0.00899308
0.00842843
0.00943884
0.00884903
0.00966098
0.00943263
0.00930676
0.00840003
2.44803e-10
0.00840002
1.52654e-09
0.00840005
5.23592e-09
0.0084
1.49848e-08
0.00840013
3.95265e-08
0.00839989
9.67164e-08
0.00840052
2.54504e-07
0.00839945
5.80287e-07
0.00840217
1.57663e-06
0.00839804
3.47118e-06
0.00840983
9.65292e-06
0.0083993
2.21406e-05
0.00844293
6.16962e-05
0.00848127
0.000171528
0.008747
0.000562271
0.00991915
0.00223228
0.00994948
0.00798591
0.00957282
0.00838612
0.00903022
0.00840236
0.00876241
0.00830177
0.00867552
0.00856594
0.00873904
0.00892841
0.00895258
0.00922385
0.00929819
0.00931298
0.00905717
0.00967087
0.00840003
1.83916e-10
0.00840003
1.3568e-09
0.00840002
4.25008e-09
0.00840005
1.33601e-08
0.00840001
3.16863e-08
0.00840008
8.85726e-08
0.00840006
1.98753e-07
0.00839997
5.43294e-07
0.00840094
1.21098e-06
0.00839878
3.27321e-06
0.00840573
7.4991e-06
0.00839967
2.00224e-05
0.00842047
4.98882e-05
0.00844251
0.000142833
0.00856116
0.000448143
0.00908854
0.00169805
0.00997367
0.00709215
0.00976655
0.00859197
0.00946381
0.00870458
0.00920191
0.00856299
0.00912137
0.00864536
0.0091854
0.00886307
0.00937034
0.0090375
0.00964591
0.00903549
0.00876329
0.00993718
0.00840003
1.95131e-10
0.00840003
1.03547e-09
0.00840002
4.13679e-09
0.00840005
1.02068e-08
0.00839998
3.05111e-08
0.00840021
6.93489e-08
0.00839969
1.89362e-07
0.00840114
4.35667e-07
0.00839816
1.13637e-06
0.00840607
2.72382e-06
0.00839114
6.85142e-06
0.00842289
1.72907e-05
0.00838416
4.42585e-05
0.00845615
0.0001224
0.0084812
0.000376909
0.00884987
0.00135119
0.0101181
0.00580933
0.0100398
0.00866976
0.00980102
0.00894284
0.0095682
0.0087958
0.00950139
0.00871153
0.00955626
0.00880688
0.00970651
0.0088858
0.00992092
0.00881919
0.00854042
0.0101415
0.00840003
1.41808e-10
0.00840003
9.66637e-10
0.00840004
3.11938e-09
0.00840002
9.48429e-09
0.00840008
2.35095e-08
0.00839993
6.19387e-08
0.00840038
1.50764e-07
0.00839949
3.7473e-07
0.00840201
9.3808e-07
0.00839738
2.25016e-06
0.00840952
5.81928e-06
0.00839143
1.38498e-05
0.00843348
3.68844e-05
0.00841372
9.61087e-05
0.00854451
0.000287609
0.00889734
0.000973409
0.0108189
0.00388184
0.0105373
0.00895095
0.0103736
0.00910677
0.010071
0.0090982
0.00990011
0.00888189
0.00990031
0.00880567
0.0100036
0.00878135
0.0101595
0.00866166
0.00837835
0.0103194
0.00840003
1.16871e-10
0.00840003
7.05851e-10
0.00840003
2.56014e-09
0.00840004
6.97125e-09
0.00840002
1.89673e-08
0.0084001
4.6607e-08
0.00840001
1.17727e-07
0.00840021
2.89514e-07
0.0084004
7.04947e-07
0.00840019
1.76204e-06
0.00840356
4.23177e-06
0.00840214
1.07807e-05
0.00841878
2.64322e-05
0.00843983
6.99063e-05
0.00853348
0.000195208
0.00887903
0.000624416
0.010382
0.00237742
0.011057
0.00827056
0.0108347
0.00932797
0.0105318
0.00940023
0.0103002
0.0091128
0.0102335
0.00887121
0.0102823
0.00873115
0.0103827
0.00855988
0.00826982
0.0104895
0.00840003
8.34584e-11
0.00840003
6.08975e-10
0.00840003
1.90399e-09
0.00840003
5.96598e-09
0.00840004
1.4306e-08
0.00840002
3.91112e-08
0.00840014
9.0586e-08
0.00839987
2.37697e-07
0.00840096
5.54066e-07
0.00839872
1.42316e-06
0.00840608
3.39485e-06
0.00839399
8.55111e-06
0.00842607
2.12256e-05
0.00840137
5.45168e-05
0.00849123
0.000149433
0.00861473
0.000461637
0.00932982
0.00167992
0.0109844
0.00660181
0.0110414
0.00926944
0.0108813
0.00955918
0.0106327
0.00936081
0.0105415
0.00896162
0.0105442
0.00872732
0.0105958
0.00850679
0.00820822
0.0106556
0.00840003
7.45547e-11
0.00840003
4.4056e-10
0.00840003
1.6294e-09
0.00840004
4.32906e-09
0.00840001
1.20617e-08
0.00840009
2.91184e-08
0.00839996
7.44506e-08
0.00840035
1.82097e-07
0.00839977
4.4485e-07
0.00840136
1.12209e-06
0.00839969
2.65383e-06
0.00840488
6.93837e-06
0.00840308
1.63091e-05
0.00842539
4.3753e-05
0.00844219
0.000113059
0.0085837
0.000339147
0.00909785
0.00115318
0.0113083
0.004382
0.0113736
0.00920193
0.0113292
0.00960319
0.0111242
0.00956553
0.0108927
0.00919253
0.010814
0.00880503
0.0108148
0.00850526
0.00818846
0.0108332
0.00840003
5.09786e-11
0.00840003
3.46281e-10
0.00840003
1.13865e-09
0.00840003
3.41174e-09
0.00840005
8.45862e-09
0.00840001
2.25068e-08
0.00840014
5.31574e-08
0.00839995
1.36636e-07
0.00840061
3.2338e-07
0.0083998
8.13058e-07
0.00840262
1.96711e-06
0.00840036
4.85087e-06
0.00841244
1.20312e-05
0.00841169
2.99622e-05
0.00846959
7.77169e-05
0.00856438
0.000217204
0.00904666
0.000686017
0.0108923
0.00252775
0.0118271
0.00826143
0.0117281
0.00970062
0.0114918
0.00980085
0.0112343
0.00944956
0.0111034
0.00893554
0.0110468
0.008561
0.00821201
0.0110223
0.00840003
4.19675e-11
0.00840003
2.51067e-10
0.00840003
8.93869e-10
0.00840003
2.46691e-09
0.00840004
6.67189e-09
0.00840004
1.61141e-08
0.00840004
4.23449e-08
0.00840012
9.71525e-08
0.00839998
2.58027e-07
0.00840087
5.81662e-07
0.00839932
1.54869e-06
0.00840578
3.50229e-06
0.00839649
9.3324e-06
0.00842848
2.18014e-05
0.0084101
5.8455e-05
0.00851728
0.00015358
0.00868802
0.000473117
0.00955405
0.00168317
0.0116824
0.00611529
0.0119155
0.00946611
0.0118684
0.0098468
0.0116304
0.00968707
0.0114187
0.00914747
0.0112974
0.0086821
0.00828183
0.0112274
0.00840003
2.75397e-11
0.00840003
1.89381e-10
0.00840003
6.22778e-10
0.00840003
1.86019e-09
0.00840003
4.62846e-09
0.00840005
1.22598e-08
0.00840003
2.88458e-08
0.00840009
7.5109e-08
0.00840014
1.73345e-07
0.00840016
4.49795e-07
0.00840115
1.04051e-06
0.00840005
2.68829e-06
0.00840781
6.30054e-06
0.00840292
1.61751e-05
0.00843827
3.96495e-05
0.00846727
0.000105157
0.00865669
0.000298129
0.00934687
0.00098102
0.0119259
0.00352374
0.0123075
0.0090823
0.0122982
0.00985699
0.0120953
0.00989066
0.0117497
0.00949396
0.0115754
0.0088562
0.00839854
0.011458
0.00840003
2.08406e-11
0.00840003
1.29753e-10
0.00840003
4.58227e-10
0.00840003
1.2758e-09
0.00840003
3.40379e-09
0.00840005
8.41981e-09
0.00840001
2.11833e-08
0.00840014
5.12806e-08
0.00839995
1.26996e-07
0.00840066
3.07918e-07
0.00839974
7.54229e-07
0.00840328
1.84363e-06
0.00839937
4.4971e-06
0.0084153
1.11278e-05
0.00840786
2.75293e-05
0.00847218
7.06702e-05
0.00853664
0.000192143
0.00896236
0.000592493
0.010352
0.00210578
0.0123167
0.00711703
0.0124921
0.00968153
0.0124104
0.00997249
0.0120481
0.00985667
0.0118679
0.00903687
0.00856308
0.0117031
0.00840003
1.54981e-11
0.00840003
9.01827e-11
0.00840003
3.36548e-10
0.00840003
8.87002e-10
0.00840003
2.48129e-09
0.00840004
5.92178e-09
0.00840002
1.52808e-08
0.0084001
3.64912e-08
0.00839998
9.07761e-08
0.00840045
2.21241e-07
0.00839986
5.34893e-07
0.00840215
1.33491e-06
0.00839978
3.16967e-06
0.00840966
8.10556e-06
0.00840502
1.92171e-05
0.00844666
5.0465e-05
0.00847597
0.000129696
0.00871865
0.000382513
0.00950689
0.0012941
0.0121486
0.0044683
0.0126485
0.00917956
0.0127118
0.00990963
0.0126418
0.00992704
0.0122062
0.00947334
0.00881062
0.0119587
0.00840003
1.02265e-11
0.00840003
6.41326e-11
0.00840003
2.23743e-10
0.00840003
6.2997e-10
0.00840003
1.6649e-09
0.00840003
4.12213e-09
0.00840005
1.04183e-08
0.00840003
2.48748e-08
0.00840012
6.25245e-08
0.00840007
1.47755e-07
0.00840038
3.72543e-07
0.0084007
8.74473e-07
0.00840128
2.21358e-06
0.00840522
5.21663e-06
0.00840811
1.32271e-05
0.00843036
3.21532e-05
0.00847389
8.34308e-05
0.00862792
0.000227109
0.00921319
0.00070707
0.011231
0.00244835
0.0128417
0.0075584
0.0129313
0.00981902
0.0128684
0.00998955
0.0124876
0.00985426
0.00904571
0.0122532
0.00840003
6.75126e-12
0.00840003
4.5317e-11
0.00840003
1.49107e-10
0.00840003
4.4604e-10
0.00840003
1.10729e-09
0.00840003
2.91808e-09
0.00840004
6.94666e-09
0.00840002
1.75133e-08
0.00840012
4.20892e-08
0.00839999
1.03041e-07
0.00840051
2.5359e-07
0.00839994
6.06033e-07
0.00840243
1.51632e-06
0.0084004
3.58944e-06
0.00841106
9.15264e-06
0.00840925
2.1722e-05
0.00845589
5.67809e-05
0.00850585
0.000146235
0.00880897
0.000433625
0.00976186
0.00147443
0.0124708
0.00484257
0.0130425
0.00924505
0.0131395
0.00989231
0.0130391
0.00995452
0.00946354
0.0126216
0.00840003
4.42722e-12
0.00840003
2.99064e-11
0.00840003
1.00102e-10
0.00840003
2.92571e-10
0.00840003
7.44716e-10
0.00840003
1.90976e-09
0.00840003
4.61993e-09
0.00840005
1.158e-08
0.00840005
2.74883e-08
0.00840009
6.88129e-08
0.00840021
1.62223e-07
0.00840018
4.06044e-07
0.00840145
9.60702e-07
0.00840038
2.38787e-06
0.00840968
5.71175e-06
0.0084035
1.42095e-05
0.00845037
3.48866e-05
0.00847161
8.96148e-05
0.00869625
0.000244424
0.0093838
0.00076037
0.0116765
0.00255484
0.0132481
0.0076642
0.0133062
0.0098327
0.0133335
0.00992614
0.00981512
0.012981
0.00840003
3.20001e-12
0.00840003
1.89265e-11
0.00840003
6.98053e-11
0.00840003
1.86578e-10
0.00840003
5.12357e-10
0.00840003
1.2386e-09
0.00840003
3.13918e-09
0.00840005
7.56144e-09
0.00840003
1.84944e-08
0.00840011
4.54294e-08
0.00840005
1.0798e-07
0.00840037
2.71428e-07
0.00840044
6.31561e-07
0.00840123
1.61411e-06
0.00840375
3.72392e-06
0.00840545
9.63637e-06
0.00842353
2.25257e-05
0.0084449
5.9209e-05
0.00854636
0.000150915
0.00884933
0.000447492
0.00990477
0.00150289
0.0127498
0.00480481
0.0134248
0.00915461
0.0135436
0.00980633
0.00995315
0.0134047
0.00840003
1.98074e-12
0.00840003
1.26583e-11
0.00840003
4.3716e-11
0.00840003
1.2428e-10
0.00840003
3.24925e-10
0.00840003
8.09852e-10
0.00840003
2.01381e-09
0.00840003
4.85886e-09
0.00840005
1.19917e-08
0.00840005
2.86282e-08
0.00840009
7.06888e-08
0.00840023
1.68057e-07
0.00840022
4.14854e-07
0.00840155
9.90088e-07
0.00840063
2.43107e-06
0.00841012
5.84325e-06
0.00840483
1.4434e-05
0.00845334
3.54188e-05
0.00847794
9.0562e-05
0.00871624
0.000245444
0.00943501
0.000756988
0.0117543
0.00249083
0.013532
0.00736579
0.0136193
0.00971665
0.00981465
0.013756
0.00840003
1.29194e-12
0.00840003
8.21777e-12
0.00840003
2.81758e-11
0.00840003
8.0775e-11
0.00840003
2.08214e-10
0.00840003
5.25025e-10
0.00840003
1.29786e-09
0.00840003
3.13024e-09
0.00840004
7.76993e-09
0.00840004
1.83446e-08
0.00840009
4.59867e-08
0.00840011
1.072e-07
0.00840024
2.71116e-07
0.00840078
6.28508e-07
0.00840068
1.59042e-06
0.00840563
3.71835e-06
0.00840292
9.36813e-06
0.00843239
2.24209e-05
0.0084375
5.71706e-05
0.0085716
0.000147089
0.00886248
0.000427123
0.00996524
0.00140848
0.0128971
0.00441487
0.0137501
0.00885834
0.00968437
0.0138791
0.00840003
7.72822e-13
0.00840003
5.31328e-12
0.00840003
1.74233e-11
0.00840003
5.21714e-11
0.00840003
1.28925e-10
0.00840003
3.4012e-10
0.00840003
7.95741e-10
0.00840003
2.03664e-09
0.00840004
4.74003e-09
0.00840003
1.1907e-08
0.00840009
2.8076e-08
0.00840003
6.90827e-08
0.00840038
1.65982e-07
0.00840005
4.00612e-07
0.00840194
9.81846e-07
0.00840056
2.32512e-06
0.0084103
5.81089e-06
0.00840572
1.37068e-05
0.00845281
3.49202e-05
0.00847424
8.59935e-05
0.00870932
0.000235038
0.00937976
0.000708174
0.0114906
0.00230527
0.013679
0.00665893
0.00950802
0.0138523
0.00840003
5.06708e-13
0.00840003
3.22589e-12
0.00840003
1.12701e-11
0.00840003
3.16228e-11
0.00840003
8.32137e-11
0.00840003
2.06959e-10
0.00840003
5.09519e-10
0.00840003
1.25248e-09
0.00840003
2.9847e-09
0.00840004
7.41776e-09
0.00840004
1.7367e-08
0.00840008
4.36398e-08
0.00840013
1.01006e-07
0.00840022
2.55316e-07
0.00840086
5.90468e-07
0.00840068
1.48736e-06
0.00840589
3.47293e-06
0.00840318
8.69622e-06
0.00843455
2.07608e-05
0.00843608
5.25342e-05
0.00858136
0.000133576
0.00886083
0.000379576
0.00997977
0.00121395
0.012885
0.00373143
0.00839051
0.0139953
0.00840003
3.30251e-13
0.00840003
1.94482e-12
0.00840003
7.11598e-12
0.00840003
1.91275e-11
0.00840003
5.22902e-11
0.00840003
1.24578e-10
0.00840003
3.2284e-10
0.00840003
7.43499e-10
0.00840003
1.91175e-09
0.00840004
4.36914e-09
0.00840003
1.11403e-08
0.00840008
2.56995e-08
0.00840003
6.45928e-08
0.00840035
1.51211e-07
0.00840009
3.73556e-07
0.00840176
8.94276e-07
0.00840076
2.15759e-06
0.00840919
5.30054e-06
0.00840641
1.26298e-05
0.0084477
3.18357e-05
0.0084691
7.82006e-05
0.00867667
0.00020975
0.00924347
0.00061953
0.0109781
0.00199739
0.00572658
0.0136286
0.00840003
1.79664e-13
0.00840003
1.24644e-12
0.00840003
4.06719e-12
0.00840003
1.2219e-11
0.00840003
3.00397e-11
0.00840003
7.93403e-11
0.00840003
1.84178e-10
0.00840003
4.73322e-10
0.00840003
1.08619e-09
0.00840003
2.75618e-09
0.00840004
6.36393e-09
0.00840003
1.5911e-08
0.00840011
3.72779e-08
0.00840005
9.15412e-08
0.00840049
2.18394e-07
0.00840025
5.254e-07
0.00840248
1.27915e-06
0.00840185
3.02235e-06
0.00841283
7.50249e-06
0.0084149
1.76487e-05
0.00846962
4.48304e-05
0.00853312
0.000110905
0.00888234
0.000307618
0.00990268
0.000946593
0.00284457
0.0127741
0.00840003
1.18732e-13
0.00840003
7.05019e-13
0.00840003
2.59074e-12
0.00840003
6.91488e-12
0.00840003
1.90147e-11
0.00840003
4.51429e-11
0.00840003
1.15919e-10
0.00840003
2.71159e-10
0.00840003
6.76587e-10
0.00840003
1.59757e-09
0.00840003
3.89782e-09
0.00840005
9.39231e-09
0.00840004
2.239e-08
0.00840013
5.4988e-08
0.00840012
1.28675e-07
0.00840045
3.21325e-07
0.00840085
7.42905e-07
0.00840176
1.86705e-06
0.00840602
4.31851e-06
0.00840851
1.09129e-05
0.00843649
2.5646e-05
0.0084658
6.58375e-05
0.00862476
0.000167055
0.00906033
0.000487689
0.00155164
0.010362
0.00840003
6.56736e-14
0.00840003
4.37814e-13
0.00840003
1.45447e-12
0.00840003
4.28953e-12
0.00840003
1.07213e-11
0.00840003
2.76102e-11
0.00840003
6.63465e-11
0.00840003
1.62637e-10
0.00840003
3.93703e-10
0.00840003
9.36261e-10
0.00840003
2.31294e-09
0.00840004
5.36826e-09
0.00840004
1.34956e-08
0.00840008
3.0843e-08
0.00840008
7.82911e-08
0.00840037
1.78321e-07
0.00840021
4.50944e-07
0.00840228
1.03762e-06
0.00840078
2.59301e-06
0.00841365
6.06855e-06
0.00840651
1.5058e-05
0.00847151
3.62727e-05
0.0084878
9.21943e-05
0.00879795
0.000243605
0.000732487
0.00956663
0.00840003
3.93262e-14
0.00840003
2.444e-13
0.00840003
8.69158e-13
0.00840003
2.40237e-12
0.00840003
6.3705e-12
0.00840003
1.56982e-11
0.00840003
3.85096e-11
0.00840003
9.40193e-11
0.00840003
2.22806e-10
0.00840003
5.52051e-10
0.00840003
1.27715e-09
0.00840003
3.20635e-09
0.00840004
7.32614e-09
0.00840004
1.8528e-08
0.00840011
4.22151e-08
0.00840008
1.06249e-07
0.00840057
2.44215e-07
0.00840024
6.08112e-07
0.00840335
1.41583e-06
0.00840138
3.47886e-06
0.00841888
8.26687e-06
0.00841244
2.01727e-05
0.00849549
4.95829e-05
0.00855002
0.000126171
0.000349205
0.00899854
0.00840003
2.15055e-14
0.00840003
1.40829e-13
0.00840003
4.74788e-13
0.00840003
1.37684e-12
0.00840003
3.49254e-12
0.00840003
8.8358e-12
0.00840003
2.14616e-11
0.00840003
5.17552e-11
0.00840003
1.26359e-10
0.00840003
2.95715e-10
0.00840003
7.33232e-10
0.00840003
1.6888e-09
0.00840003
4.22421e-09
0.00840005
9.63065e-09
0.00840004
2.42303e-08
0.00840017
5.52169e-08
0.00840008
1.38054e-07
0.00840084
3.17219e-07
0.00840044
7.84913e-07
0.00840439
1.82869e-06
0.00840319
4.45574e-06
0.0084226
1.06286e-05
0.00842636
2.58166e-05
0.00852098
6.4051e-05
0.000166887
0.00865243
0.00840003
1.21067e-14
0.00840003
7.23514e-14
0.00840003
2.62086e-13
0.00840003
7.111e-13
0.00840003
1.90575e-12
0.00840003
4.59056e-12
0.00840003
1.14885e-11
0.00840003
2.68626e-11
0.00840003
6.61246e-11
0.00840003
1.53598e-10
0.00840003
3.74637e-10
0.00840003
8.72431e-10
0.00840003
2.10109e-09
0.00840004
4.95612e-09
0.00840005
1.1692e-08
0.00840006
2.80039e-08
0.00840019
6.49151e-08
0.00840014
1.57021e-07
0.00840114
3.58257e-07
0.00840045
8.74238e-07
0.00840696
1.97455e-06
0.0084028
4.8404e-06
0.00843861
1.09376e-05
0.00843206
2.72767e-05
6.53998e-05
0.00858842
0.00840003
5.99306e-15
0.00840003
3.63597e-14
0.00840003
1.32163e-13
0.00840003
3.54973e-13
0.00840003
9.59605e-13
0.00840003
2.2659e-12
0.00840003
5.71057e-12
0.00840003
1.31715e-11
0.00840003
3.20298e-11
0.00840003
7.48144e-11
0.00840003
1.75552e-10
0.00840003
4.18763e-10
0.00840003
9.5396e-10
0.00840003
2.30891e-09
0.00840005
5.1385e-09
0.00840003
1.25465e-08
0.00840016
2.73019e-08
0.00840002
6.69224e-08
0.00840074
1.42478e-07
0.00840005
3.49952e-07
0.00840369
7.22048e-07
0.0084007
1.77797e-06
0.00841724
3.64416e-06
0.00841298
8.70443e-06
1.9025e-05
0.00847958
0.00840003
2.35738e-15
0.00840003
1.96405e-14
0.00840003
5.7e-14
0.00840003
1.91309e-13
0.00840003
4.11835e-13
0.00840003
1.20104e-12
0.00840003
2.38777e-12
0.00840003
6.80158e-12
0.00840003
1.32515e-11
0.00840003
3.68828e-11
0.00840003
7.27915e-11
0.00840003
1.93255e-10
0.00840003
4.01527e-10
0.00840003
9.86147e-10
0.00840004
2.19947e-09
0.00840002
4.79626e-09
0.00840009
1.20322e-08
0.0084
2.22202e-08
0.00840023
6.48809e-08
0.00840014
9.33284e-08
0.00840012
3.40916e-07
0.00840145
3.57998e-07
0.00839962
1.63178e-06
0.0084044
1.50681e-06
6.05619e-06
0.00840612
0.00840003
1.34062e-15
0.00840003
8.14688e-15
0.00840003
3.05156e-14
0.00840003
7.90451e-14
0.00840003
2.1644e-13
0.00840003
5.04775e-13
0.00840003
1.22205e-12
0.00840003
2.91847e-12
0.00840003
6.44997e-12
0.00840003
1.62802e-11
0.00840003
3.32766e-11
0.00840003
8.86062e-11
0.00840003
1.67772e-10
0.00840003
4.71953e-10
0.00840003
8.19931e-10
0.00840003
2.4438e-09
0.00840003
3.90214e-09
0.0084
1.21184e-08
0.00840013
1.82885e-08
0.00839948
5.49585e-08
0.00840118
8.79319e-08
0.00839588
2.25583e-07
0.00840566
3.77354e-07
0.00838322
8.20175e-07
1.22344e-06
0.00840232
0.00840003
8.35025e-16
0.00840003
3.95723e-15
0.00840003
1.45369e-14
0.00840003
3.63215e-14
0.00840003
1.1024e-13
0.00840003
2.0527e-13
0.00840003
7.05144e-13
0.00840003
1.02979e-12
0.00840003
4.25705e-12
0.00840003
4.84318e-12
0.00840003
2.431e-11
0.00840003
2.29647e-11
0.00840003
1.31925e-10
0.00840003
1.04662e-10
0.00840002
6.86273e-10
0.00840005
5.25916e-10
0.00839998
3.28202e-09
0.0084001
3.16983e-09
0.00839982
1.4766e-08
0.00840001
2.35839e-08
0.00839945
5.53864e-08
0.00839834
1.58677e-07
0.00839717
1.65641e-07
0.00839207
7.93871e-07
7.69527e-07
0.00837762
0.00840003
5.80834e-16
0.00840003
5.3378e-16
0.00840003
1.16371e-14
0.00840003
7.33484e-15
0.00840003
7.63004e-14
0.00840003
7.02922e-14
0.00840003
4.07977e-13
0.00840003
5.21341e-13
0.00840003
1.99707e-12
0.00840003
3.9278e-12
0.00840003
9.11587e-12
0.00840003
2.79646e-11
0.00840003
4.5885e-11
0.00840003
1.90524e-10
0.00840004
1.78073e-10
0.00840001
1.28951e-09
0.00840008
4.72469e-10
0.00839985
8.33873e-09
0.00840036
1.4939e-10
0.00839895
5.05786e-08
0.00840184
-1.19886e-08
0.0083939
2.86878e-07
0.00840718
-6.26874e-08
0.00837399
1.27028e-06
7.63492e-07
0.00840212
0.00840003
-1.44605e-16
0.00840003
2.47399e-15
0.00840003
4.00667e-16
0.00840003
2.35536e-14
0.00840003
4.29854e-15
0.00840003
1.34653e-13
0.00840003
7.47186e-14
0.00840003
6.73478e-13
0.00840003
8.54479e-13
0.00840003
3.07153e-12
0.00840003
7.58083e-12
0.00840003
1.35809e-11
0.00840003
5.7739e-11
0.00840003
6.76085e-11
0.00840003
4.1392e-10
0.00840002
2.69972e-10
0.00840002
2.87309e-09
0.00840001
9.77283e-10
0.00839983
1.85166e-08
0.00840014
3.30597e-09
0.0083983
1.12919e-07
0.00840116
-1.58407e-10
0.00839076
6.07266e-07
0.00839941
2.56025e-07
2.57858e-06
0.00836842
0.00840003
3.08971e-16
0.00840003
2.54462e-16
0.00840003
3.91402e-15
0.00840003
4.16065e-15
0.00840003
2.60311e-14
0.00840003
2.31138e-14
0.00840003
1.62064e-13
0.00840003
1.33622e-13
0.00840003
9.29215e-13
0.00840003
1.18842e-12
0.00840003
5.01892e-12
0.00840003
9.02038e-12
0.00840003
2.7684e-11
0.00840003
7.16103e-11
0.00840004
1.44772e-10
0.00840001
5.2844e-10
0.00840008
7.94353e-10
0.00839985
3.74121e-09
0.00840035
4.36397e-09
0.00839895
2.55132e-08
0.00840178
2.40579e-08
0.0083939
1.58775e-07
0.00840684
1.28499e-07
0.0083738
8.4936e-07
1.26426e-06
0.00840136
0.00840003
1.80222e-16
0.00840003
-2.52348e-16
0.00840003
3.05027e-15
0.00840003
-2.94659e-15
0.00840003
2.00313e-14
0.00840003
-9.4971e-15
0.00840003
1.0177e-13
0.00840003
2.7454e-14
0.00840003
4.10689e-13
0.00840003
7.36275e-13
0.00840003
1.58086e-12
0.00840003
7.66034e-12
0.00840003
6.46879e-12
0.00840003
5.8916e-11
0.00840004
2.44083e-11
0.0084
4.41717e-10
0.00840007
1.08642e-10
0.00839988
2.87174e-09
0.00840025
-1.29753e-10
0.00839921
1.93343e-08
0.00840097
-6.14099e-09
0.00839547
1.20808e-07
0.00840257
1.26102e-08
0.00837972
5.62432e-07
6.13889e-07
0.00839308
0.00840003
0.00840003
0.00840003
0.00840003
0.00840003
0.00840003
0.00840003
0.00840003
0.00840003
0.00840003
0.00840003
0.00840003
0.00840003
0.00840003
0.00840004
0.00840001
0.00840006
0.00839993
0.00840005
0.00839972
0.00839922
0.00839891
0.008395
0.00839073
0.00837888
0.00443682
0.00419041
0.00242032
0.00200853
0.00122577
0.00117576
-0.00050019
0.00171215
-0.00127029
0.000763195
-0.00183961
0.000562109
-0.00220825
0.000360114
-0.00236662
0.000149797
-0.00245523
8.1947e-05
-0.00259888
0.000137673
-0.0027625
0.000158027
-0.00290742
0.000139453
-0.00302302
0.00011028
-0.00312428
9.68859e-05
-0.00322474
9.64864e-05
-0.00332119
9.30106e-05
-0.00341137
8.66635e-05
-0.00349098
7.60718e-05
-0.00355356
5.90498e-05
-0.00359429
3.77807e-05
-0.00362203
2.48681e-05
-0.00366673
4.03132e-05
-0.00371736
4.50476e-05
-0.00376074
3.69585e-05
-0.00379309
2.33631e-05
-0.00380775
1.50633e-06
-0.00379011
-3.35537e-05
-0.00372706
-8.13199e-05
-0.00361535
-0.000130759
-0.00346396
-0.000170678
-0.00328127
-0.000201276
-0.00307531
-0.000223734
-0.00285126
-0.000240866
-0.00261421
-0.000252419
-0.00237114
-0.000257331
-0.00212572
-0.000257837
-0.00187788
-0.000259247
-0.00162987
-0.000258083
-0.0013776
-0.000261008
-0.00112377
-0.000261287
-0.000873092
-0.000257223
-0.000624008
-0.00025405
-0.000376617
-0.000251432
-0.000126026
-0.000253486
0.000119518
-0.000247462
0.000351212
-0.000232573
0.000572278
-0.000221071
0.000785164
-0.000211929
0.000990021
-0.000203186
0.00118749
-0.000194919
0.00137717
-0.000186427
0.0015585
-0.000177629
0.00173347
-0.000170882
0.00190537
-0.000166696
0.00207249
-0.000161688
0.00223306
-0.000154737
0.00238709
-0.000147898
0.00253406
-0.000141134
0.00267538
-0.000135171
0.0028108
-0.000129405
0.00294061
-0.000123936
0.00306498
-0.000118619
0.00318427
-0.000113565
0.00329835
-0.000108653
0.00340746
-0.000103924
0.00351192
-9.93553e-05
0.00361177
-9.49628e-05
0.00370702
-9.06902e-05