/*--------------------------------*- C++ -*----------------------------------*\
  =========                 |
  \\      /  F ield         | OpenFOAM: The Open Source CFD Toolbox
   \\    /   O peration     | Website:  https://openfoam.org
    \\  /    A nd           | Version:  9
     \\/     M anipulation  |
\*---------------------------------------------------------------------------*/
FoamFile
{
    format      ascii;
    class       volScalarField;
    location    "6.5";
    object      rho;
}
// * * * * * * * * * * * * * * * * * * * * * * * * * * * * * * * * * * * * * //

dimensions      [1 -3 0 0 0 0 0];

internalField   nonuniform List<scalar> 
5250
(
1.40001
1.40002
1.40007
1.40016
1.40044
1.40102
1.40262
1.40634
1.41554
1.43783
1.48952
1.60419
1.84709
2.40718
4.68968
5.8161
5.72178
5.6522
5.67058
5.74789
5.83319
5.88474
5.92262
5.95494
5.98605
1.40001
1.40003
1.40006
1.40017
1.40041
1.40107
1.40245
1.40654
1.41475
1.43833
1.48696
1.60318
1.84069
2.39309
4.64178
5.8201
5.72229
5.64924
5.66804
5.74593
5.8313
5.88305
5.92176
5.9549
5.98694
1.40001
1.40002
1.40007
1.40015
1.40044
1.40093
1.40265
1.40567
1.41575
1.4346
1.48838
1.59372
1.83324
2.36075
4.53512
5.82989
5.72283
5.6399
5.65813
5.73569
5.81974
5.87023
5.90876
5.94215
5.97464
1.40001
1.40002
1.40006
1.40017
1.40036
1.40104
1.40218
1.40625
1.41331
1.43627
1.47984
1.59131
1.812
2.31739
4.36609
5.84832
5.72493
5.62472
5.64146
5.71567
5.79993
5.84949
5.88633
5.91613
5.9488
1.40001
1.40002
1.40006
1.40014
1.40038
1.40087
1.40227
1.40536
1.41346
1.43228
1.47772
1.57729
1.79238
2.25711
4.13499
5.87635
5.73032
5.6047
5.61883
5.68876
5.76845
5.81503
5.8519
5.88531
5.91781
1.40001
1.40002
1.40006
1.40013
1.40036
1.40077
1.4022
1.40462
1.41313
1.42823
1.47377
1.56187
1.76645
2.18673
3.8392
5.91221
5.74044
5.58219
5.59178
5.65563
5.73201
5.77305
5.80393
5.83289
5.86877
1.40001
1.40002
1.40005
1.40012
1.40031
1.40072
1.40192
1.40429
1.41161
1.42585
1.46615
1.54773
1.73384
2.11225
3.49136
5.94488
5.75584
5.55842
5.56095
5.61195
5.68313
5.71868
5.74239
5.7649
5.79981
1.40001
1.40002
1.40004
1.40012
1.40026
1.40071
1.40151
1.40433
1.40906
1.42541
1.45503
1.5364
1.69646
2.04109
3.10631
5.94035
5.76612
5.53766
5.53021
5.56319
5.62279
5.64675
5.65749
5.66663
5.69705
1.40001
1.40002
1.40004
1.4001
1.40024
1.40061
1.4014
1.40375
1.40835
1.42228
1.45016
1.5221
1.66967
1.98215
2.8746
5.76413
5.70095
5.50007
5.48655
5.50015
5.54643
5.5551
5.54567
5.52857
5.5346
1.40001
1.40002
1.40004
1.40009
1.40021
1.40055
1.40124
1.40337
1.40741
1.42002
1.44472
1.51033
1.6437
1.93036
2.67707
5.41326
5.55638
5.4724
5.42586
5.42648
5.44818
5.43664
5.40217
5.32794
5.2712
1.40001
1.40001
1.40003
1.40008
1.40018
1.40049
1.40112
1.40287
1.40685
1.41701
1.44084
1.49704
1.61923
1.87876
2.50223
4.9802
5.48114
5.43389
5.35519
5.34622
5.33448
5.30027
5.207
4.98852
4.3622
1.40001
1.40001
1.40003
1.40007
1.40018
1.40038
1.40108
1.40226
1.40647
1.41373
1.43744
1.48214
1.59634
1.82198
2.34401
4.47044
5.44056
5.40118
5.29179
5.2554
5.22312
5.15386
5.00215
4.69043
4.02425
1.40001
1.40001
1.40003
1.40006
1.40015
1.40033
1.40088
1.40196
1.4054
1.41172
1.43158
1.47012
1.56837
1.76494
2.19433
3.88742
5.42996
5.38092
5.24481
5.16844
5.11446
5.013
4.82352
4.4956
3.96907
1.40001
1.40001
1.40002
1.40005
1.40011
1.4003
1.40064
1.40183
1.40385
1.41088
1.42329
1.46182
1.53461
1.71021
2.05244
3.23923
5.39958
5.3612
5.22423
5.09665
5.01285
4.88961
4.69109
4.38867
3.97703
1.40001
1.40001
1.40002
1.40004
1.4001
1.40023
1.40058
1.40131
1.40353
1.40777
1.42082
1.44655
1.5139
1.65147
1.94159
2.71683
5.20885
5.29641
5.20822
5.03994
4.92815
4.79323
4.59985
4.32582
3.98487
1.40001
1.40001
1.40002
1.40004
1.40007
1.4002
1.40042
1.40119
1.4025
1.40713
1.41508
1.44101
1.48941
1.61265
1.85337
2.43428
4.67889
5.19169
5.14079
4.99446
4.85701
4.71421
4.53018
4.28461
3.98761
1.40001
1.40001
1.40001
1.40003
1.40007
1.40014
1.40038
1.40086
1.40219
1.40525
1.41288
1.43131
1.47432
1.57074
1.77585
2.21247
3.95974
5.10753
5.07986
4.9664
4.80334
4.65095
4.47307
4.2506
3.98775
1.40001
1.40001
1.40001
1.40002
1.40005
1.40012
1.40027
1.4007
1.40164
1.4041
1.40998
1.42404
1.45804
1.5342
1.69905
2.03015
3.173
5.02964
5.03863
4.9604
4.78258
4.60657
4.43062
4.22519
3.98896
1.40001
1.40001
1.40001
1.40002
1.40004
1.40009
1.4002
1.40055
1.40116
1.40331
1.40691
1.41941
1.44167
1.50545
1.62883
1.89423
2.55452
4.75469
5.0104
4.94274
4.7751
4.57791
4.39936
4.2073
3.9918
1.40001
1.40001
1.40001
1.40002
1.40003
1.40007
1.40015
1.40042
1.40088
1.40247
1.40533
1.41447
1.4321
1.48082
1.57825
1.79595
2.25584
4.07515
4.91541
4.88276
4.77012
4.56392
4.38008
4.19559
3.9963
1.40001
1.40001
1.40001
1.40001
1.40002
1.40005
1.40012
1.4003
1.40068
1.40179
1.40398
1.41072
1.42355
1.46084
1.53423
1.70535
2.03226
3.22684
4.80358
4.8291
4.76016
4.58577
4.37895
4.19274
4.0049
1.40001
1.40001
1.40001
1.40001
1.40002
1.40004
1.40009
1.40021
1.40052
1.40118
1.40314
1.4069
1.41845
1.4409
1.50096
1.62181
1.87003
2.48727
4.49625
4.81088
4.75421
4.60931
4.39152
4.19869
4.01596
1.40001
1.40001
1.40001
1.40001
1.40002
1.40003
1.40007
1.40014
1.40039
1.40082
1.40229
1.40488
1.41337
1.42917
1.47476
1.56284
1.76495
2.16794
3.75825
4.73281
4.70943
4.62277
4.42567
4.21819
4.03273
1.40001
1.40001
1.40001
1.40001
1.40001
1.40002
1.40004
1.40011
1.40024
1.40066
1.40138
1.40392
1.40818
1.42263
1.44876
1.52113
1.66112
1.94272
2.81707
4.54431
4.68957
4.62891
4.46853
4.25108
4.05885
1.40001
1.40001
1.40001
1.40001
1.40001
1.40002
1.40004
1.40007
1.40018
1.40043
1.40102
1.40256
1.40589
1.4152
1.43435
1.48468
1.58715
1.80314
2.2814
4.0254
4.63439
4.60257
4.50069
4.2916
4.09117
1.40001
1.40001
1.40001
1.40001
1.40001
1.40001
1.40003
1.40005
1.40013
1.40029
1.4007
1.40175
1.40402
1.41043
1.42344
1.4592
1.53147
1.69587
2.003
3.12976
4.47745
4.55838
4.5071
4.3552
4.13159
1.40001
1.40001
1.40001
1.40001
1.40001
1.40001
1.40002
1.40004
1.40009
1.40019
1.4005
1.40106
1.40295
1.40619
1.41709
1.43666
1.49257
1.6003
1.82041
2.34646
4.08506
4.52362
4.49049
4.39454
4.18546
1.40001
1.40001
1.40001
1.40001
1.40001
1.40001
1.40001
1.40003
1.40006
1.40013
1.40031
1.40074
1.40187
1.40427
1.41108
1.42475
1.46242
1.53784
1.70724
2.02543
3.22573
4.38644
4.45337
4.40645
4.27118
1.40001
1.40001
1.40001
1.40001
1.40001
1.40001
1.40001
1.40002
1.40004
1.40009
1.40019
1.40052
1.40109
1.40302
1.40638
1.41742
1.43746
1.49431
1.60246
1.81883
2.35088
4.03141
4.42613
4.39908
4.31679
1.40001
1.40001
1.40001
1.40001
1.40001
1.40001
1.40001
1.40001
1.40003
1.40006
1.40013
1.40033
1.40071
1.40194
1.40411
1.41135
1.42408
1.46298
1.53525
1.70466
2.01545
3.19481
4.28443
4.37122
4.32989
1.40001
1.40001
1.40001
1.40001
1.40001
1.40001
1.40001
1.40001
1.40002
1.40004
1.40009
1.40019
1.40051
1.40106
1.40294
1.40622
1.41689
1.43632
1.49139
1.59571
1.80285
2.3094
3.91251
4.33538
4.31709
1.40001
1.40001
1.40001
1.40001
1.40001
1.40001
1.40001
1.40001
1.40001
1.40003
1.40006
1.40012
1.40032
1.40067
1.40186
1.40388
1.41074
1.42274
1.45946
1.52748
1.68753
1.97473
3.04148
4.16299
4.29495
1.40001
1.40001
1.40001
1.40001
1.40001
1.40001
1.40001
1.40001
1.40001
1.40002
1.40003
1.40008
1.40018
1.40045
1.40107
1.40251
1.40632
1.41433
1.43598
1.48077
1.58525
1.77228
2.2308
3.73089
4.23568
1.40001
1.40001
1.40001
1.40001
1.40001
1.40001
1.40001
1.40001
1.40001
1.40001
1.40002
1.40005
1.40011
1.40029
1.4006
1.40167
1.40347
1.40955
1.42026
1.453
1.51347
1.65756
1.90428
2.76383
4.00668
1.40001
1.40001
1.40001
1.40001
1.40001
1.40001
1.40001
1.40001
1.40001
1.40001
1.40002
1.40003
1.40007
1.40016
1.40039
1.40094
1.40218
1.40555
1.41242
1.43156
1.47032
1.56325
1.73187
2.11668
3.4428
1.40001
1.40001
1.40001
1.40001
1.40001
1.40001
1.40001
1.40001
1.40001
1.40001
1.40001
1.40002
1.40004
1.4001
1.40023
1.40054
1.40133
1.40304
1.40778
1.41729
1.44349
1.49587
1.61539
1.81646
2.39762
1.40001
1.40001
1.40001
1.40001
1.40001
1.40001
1.40001
1.40001
1.40001
1.40001
1.40001
1.40001
1.40003
1.40006
1.40013
1.40034
1.40073
1.40198
1.40415
1.41134
1.42388
1.4621
1.53179
1.691
1.98814
1.40001
1.40001
1.40001
1.40001
1.40001
1.40001
1.40001
1.40001
1.40001
1.40001
1.40001
1.40001
1.40002
1.40003
1.40009
1.40018
1.40048
1.40102
1.40267
1.40594
1.415
1.43397
1.48169
1.57739
1.75749
1.40001
1.40001
1.40001
1.40001
1.40001
1.40001
1.40001
1.40001
1.40001
1.40001
1.40001
1.40001
1.40001
1.40003
1.40005
1.40012
1.40025
1.40065
1.40144
1.40366
1.40837
1.42053
1.44728
1.5101
1.63525
1.40001
1.40001
1.40001
1.40001
1.40001
1.40001
1.40001
1.40001
1.40001
1.40001
1.40001
1.40001
1.40001
1.40002
1.40003
1.40007
1.40016
1.40037
1.40089
1.40214
1.40496
1.41244
1.42801
1.46836
1.55062
1.40001
1.40001
1.40001
1.40001
1.40001
1.40001
1.40001
1.40001
1.40001
1.40001
1.40001
1.40001
1.40001
1.40001
1.40002
1.40005
1.40009
1.40025
1.40053
1.40142
1.40309
1.40802
1.41799
1.44502
1.50032
1.40001
1.40001
1.40001
1.40001
1.40001
1.40001
1.40001
1.40001
1.40001
1.40001
1.40001
1.40001
1.40001
1.40001
1.40002
1.40004
1.40007
1.40018
1.40042
1.401
1.4025
1.40577
1.41487
1.43392
1.484
1.40001
1.40001
1.40001
1.40001
1.40001
1.40001
1.40001
1.40001
1.40001
1.40001
1.40001
1.40001
1.40001
1.40001
1.40001
1.40003
1.40007
1.40014
1.40039
1.40083
1.40236
1.40498
1.4142
1.43094
1.48065
1.40001
1.40001
1.40001
1.40001
1.40001
1.40001
1.40001
1.40001
1.40001
1.40001
1.40001
1.40001
1.40001
1.40001
1.40001
1.40003
1.40006
1.40015
1.40032
1.40093
1.40193
1.40565
1.41208
1.43364
1.47471
1.40001
1.40001
1.40001
1.40001
1.40001
1.40001
1.40001
1.40001
1.40001
1.40001
1.40001
1.40001
1.40001
1.40001
1.40001
1.40003
1.40006
1.40015
1.40032
1.4009
1.40192
1.40562
1.41195
1.4336
1.47466
1.40001
1.40001
1.40001
1.40001
1.40001
1.40001
1.40001
1.40001
1.40001
1.40001
1.40001
1.40001
1.40001
1.40001
1.40001
1.40003
1.40006
1.40014
1.40032
1.40085
1.40204
1.40519
1.41284
1.43182
1.47693
1.40001
1.40001
1.40001
1.40001
1.40001
1.40001
1.40001
1.40001
1.40001
1.40001
1.40001
1.40001
1.40001
1.40001
1.40001
1.40002
1.40006
1.40012
1.40036
1.40075
1.40223
1.4047
1.41364
1.43003
1.47888
1.40001
1.40001
1.40001
1.40001
1.40001
1.40001
1.40001
1.40001
1.40001
1.40001
1.40001
1.40001
1.40001
1.40001
1.40001
1.40003
1.40005
1.40014
1.40032
1.40083
1.40201
1.40507
1.41268
1.43124
1.47621
1.40001
1.40001
1.40001
1.40001
1.40001
1.40001
1.40001
1.40001
1.40001
1.40001
1.40001
1.40001
1.40001
1.40001
1.40001
1.40003
1.40006
1.40013
1.40033
1.40078
1.4021
1.40481
1.41305
1.4302
1.47687
1.40001
1.40001
1.40001
1.40001
1.40001
1.40001
1.40001
1.40001
1.40001
1.40001
1.40001
1.40001
1.40001
1.40001
1.40001
1.40003
1.40006
1.40013
1.40035
1.40074
1.40217
1.40459
1.41339
1.4294
1.4776
2.07221
1.44202
1.4782
1.97814
1.83753
1.75813
1.73875
1.72887
1.71881
1.6951
1.66982
1.64639
1.6271
1.60551
1.58152
1.55578
1.53091
1.50873
1.48877
1.46716
1.44207
1.42959
1.42535
1.42525
1.43248
1.45839
1.50236
1.55932
1.62612
1.69393
1.76313
1.82747
1.89114
1.9473
2.00169
2.04815
2.09249
2.13158
2.169
2.20091
2.23125
2.25799
2.28158
2.3025
2.32145
2.33805
2.35163
2.36221
2.37086
2.37665
2.38154
2.38391
2.38624
2.38476
2.38353
2.3787
2.37539
2.36877
2.36252
2.35444
2.34611
2.33623
2.32629
2.31514
2.30363
2.29118
2.27864
2.2651
2.25139
2.23686
2.22232
2.20698
2.19161
2.1756
2.15959
2.14312
2.12651
2.10956
2.09248
2.0752
2.05778
2.04024
2.02252
2.00485
1.98699
1.9693
1.95144
1.93375
1.91599
1.89846
1.88093
1.86374
1.84664
1.83008
1.81378
1.79841
1.78371
1.77075
1.75945
1.75251
2.56436
2.00882
1.92276
2.0246
1.92158
1.7725
1.71919
1.70433
1.68743
1.65462
1.62038
1.59481
1.57307
1.55243
1.52625
1.50045
1.47276
1.44846
1.42532
1.40473
1.38117
1.36499
1.35757
1.35554
1.35744
1.38098
1.41958
1.47664
1.54453
1.6158
1.68982
1.75915
1.82867
1.89297
1.95435
2.01105
2.06329
2.10945
2.15543
2.19752
2.23852
2.27342
2.30542
2.33217
2.35881
2.3805
2.40058
2.41564
2.43004
2.44047
2.44978
2.45639
2.46206
2.46559
2.46643
2.4656
2.46386
2.4604
2.45612
2.45002
2.44345
2.43515
2.42649
2.41611
2.40553
2.39337
2.3811
2.36744
2.35373
2.33888
2.32396
2.30818
2.29226
2.27569
2.25894
2.24167
2.22422
2.20637
2.18833
2.17007
2.15158
2.13306
2.11426
2.0956
2.07669
2.05799
2.03909
2.02048
2.0017
1.98331
1.96479
1.9468
1.92876
1.91143
1.89426
1.87815
1.86278
1.8492
1.83714
1.82953
3.08442
2.5055
2.25428
2.1479
2.06534
1.95553
1.84801
1.78547
1.71883
1.66231
1.61294
1.57381
1.54181
1.52661
1.50356
1.47208
1.43857
1.40684
1.3802
1.35724
1.33709
1.31845
1.3072
1.30252
1.30214
1.32172
1.35863
1.41779
1.48921
1.56496
1.64436
1.72267
1.79814
1.87112
1.93971
2.00133
2.06028
2.11346
2.16612
2.21323
2.25677
2.29491
2.33002
2.36144
2.38997
2.41546
2.43755
2.45673
2.47312
2.48689
2.49861
2.50799
2.51643
2.52275
2.52616
2.52732
2.52742
2.52656
2.52436
2.52093
2.51615
2.51039
2.5034
2.4955
2.48644
2.47652
2.46558
2.45394
2.4414
2.42828
2.41424
2.39969
2.38422
2.36832
2.35154
2.33448
2.31658
2.29858
2.27975
2.26097
2.24139
2.22199
2.20187
2.18198
2.16153
2.14131
2.12071
2.10034
2.07979
2.05943
2.03916
2.01905
1.99931
1.97978
1.96123
1.94296
1.92629
1.91032
1.89708
1.88714
3.36043
2.82736
2.49554
2.32807
2.22171
2.10836
2.0032
1.92496
1.85183
1.77411
1.6966
1.63394
1.57917
1.53927
1.50538
1.46727
1.42901
1.39219
1.36248
1.34265
1.32321
1.30332
1.28615
1.2762
1.27365
1.29271
1.33113
1.39334
1.47262
1.56033
1.64807
1.733
1.81638
1.89462
1.9683
2.03706
2.10179
2.16268
2.21973
2.27225
2.32054
2.3641
2.40423
2.43967
2.47224
2.50055
2.52598
2.5474
2.5657
2.58058
2.59297
2.60251
2.61107
2.61717
2.62094
2.62037
2.61943
2.61659
2.61353
2.60805
2.60243
2.5945
2.58663
2.57667
2.56681
2.55523
2.54378
2.53096
2.5182
2.50424
2.49027
2.47522
2.46019
2.44424
2.42833
2.4116
2.39483
2.37732
2.35974
2.34143
2.32316
2.30412
2.28535
2.26565
2.24652
2.22626
2.20688
2.18616
2.16665
2.14558
2.12609
2.10501
2.08595
2.06518
2.04674
2.02677
2.00976
1.99183
1.97776
1.96581
3.51209
3.05426
2.71216
2.49383
2.36656
2.26131
2.15522
2.06821
1.98607
1.91191
1.82984
1.76043
1.69324
1.62815
1.56475
1.51013
1.46431
1.42278
1.38732
1.35746
1.33317
1.31161
1.2946
1.28615
1.29012
1.31146
1.35754
1.42327
1.50357
1.59097
1.68303
1.77565
1.86587
1.95156
2.03356
2.109
2.18085
2.24619
2.30816
2.36366
2.41549
2.46117
2.50334
2.53994
2.57385
2.60261
2.62917
2.65084
2.67038
2.68538
2.69877
2.70814
2.71738
2.72385
2.72871
2.72826
2.72702
2.72373
2.72003
2.71429
2.7078
2.69942
2.69028
2.67943
2.66793
2.65498
2.6415
2.62675
2.61153
2.59521
2.57856
2.56101
2.54327
2.52472
2.50612
2.48669
2.46738
2.44722
2.4274
2.40671
2.38659
2.36551
2.34521
2.32387
2.30346
2.28198
2.26159
2.24009
2.21992
2.19877
2.17895
2.1581
2.13858
2.11826
2.09933
2.07999
2.06229
2.04504
2.02992
2.01863
3.60952
3.21982
2.89674
2.66297
2.50733
2.39675
2.29175
2.20262
2.11775
2.03955
1.96272
1.88686
1.82052
1.75308
1.68944
1.62303
1.56142
1.50443
1.45631
1.41351
1.37888
1.35516
1.33854
1.33605
1.34072
1.36535
1.41581
1.48175
1.56015
1.64761
1.74101
1.83917
1.93727
2.0317
2.11986
2.20112
2.27519
2.34255
2.40412
2.45994
2.51067
2.55579
2.59612
2.63119
2.66227
2.68883
2.71191
2.73115
2.74731
2.76002
2.77033
2.77725
2.78384
2.78864
2.79207
2.79115
2.78844
2.78383
2.77903
2.77262
2.76569
2.75712
2.74797
2.73743
2.72642
2.71415
2.70149
2.68759
2.6734
2.65807
2.64252
2.62588
2.60899
2.59108
2.57294
2.55392
2.53475
2.51483
2.49485
2.47415
2.45358
2.43226
2.4113
2.38953
2.36827
2.34625
2.32506
2.30301
2.28177
2.2596
2.23841
2.21634
2.1954
2.17371
2.15337
2.13251
2.11345
2.0945
2.07806
2.06488
3.67269
3.34247
3.0446
2.81061
2.63727
2.51159
2.40802
2.31615
2.23478
2.15549
2.08194
2.0072
1.93866
1.87122
1.8075
1.74359
1.68197
1.62458
1.57154
1.52795
1.48937
1.46289
1.44709
1.44423
1.4574
1.49955
1.54942
1.60938
1.67966
1.75847
1.83656
1.92115
2.01486
2.11019
2.20189
2.28581
2.36113
2.42658
2.48556
2.53768
2.58531
2.62745
2.66586
2.69907
2.72925
2.7546
2.77737
2.796
2.81231
2.82507
2.83571
2.84246
2.84881
2.85337
2.8567
2.85652
2.85325
2.84788
2.84173
2.83426
2.82596
2.81639
2.80592
2.79429
2.78174
2.76816
2.75377
2.73856
2.72272
2.7062
2.6892
2.67151
2.65355
2.63482
2.61606
2.59634
2.57684
2.55619
2.53607
2.51468
2.49409
2.47222
2.45135
2.42932
2.40849
2.38642
2.36546
2.34339
2.32244
2.30043
2.27958
2.25778
2.23716
2.21574
2.19556
2.17487
2.15562
2.13664
2.11952
2.10601
3.71754
3.43177
3.16179
2.93368
2.75375
2.61573
2.50705
2.41316
2.3333
2.25573
2.18445
2.11279
2.04526
1.98009
1.91638
1.85641
1.79551
1.74228
1.69135
1.65391
1.62434
1.60576
1.59537
1.60609
1.65096
1.69834
1.73921
1.7836
1.83038
1.87524
1.9318
1.98257
2.04069
2.12184
2.21465
2.30529
2.38801
2.45948
2.52243
2.57656
2.62535
2.66887
2.70798
2.74302
2.77432
2.80152
2.82557
2.8458
2.86314
2.87699
2.88831
2.89602
2.90215
2.90688
2.91075
2.91189
2.90982
2.90513
2.89922
2.89166
2.88347
2.87377
2.86358
2.85179
2.83961
2.82582
2.81178
2.79622
2.78053
2.76338
2.74619
2.72763
2.70906
2.68924
2.66947
2.64863
2.62795
2.60636
2.58506
2.56293
2.54125
2.51901
2.49718
2.47465
2.45257
2.42976
2.40746
2.38445
2.36209
2.33906
2.31681
2.29406
2.27214
2.25001
2.2287
2.20761
2.18736
2.16819
2.15009
2.1363
3.75209
3.50054
3.25566
3.03734
2.85616
2.71036
2.59524
2.49822
2.41581
2.34096
2.27039
2.20354
2.13669
2.07568
2.01261
1.95646
1.89838
1.84966
1.80613
1.78109
1.76036
1.75033
1.75971
1.81495
1.88226
1.92271
1.94692
1.971
1.98794
1.98952
2.01331
2.04111
2.07902
2.12896
2.19811
2.29017
2.38283
2.46988
2.54653
2.61119
2.66637
2.71301
2.75407
2.78981
2.8212
2.84861
2.873
2.893
2.9104
2.92372
2.9348
2.94222
2.94698
2.95042
2.95322
2.95389
2.9521
2.947
2.94055
2.93233
2.92347
2.91317
2.90233
2.89014
2.87739
2.86342
2.84888
2.83332
2.81723
2.80026
2.78286
2.76458
2.74596
2.72638
2.70661
2.68578
2.66498
2.6431
2.62155
2.5992
2.57734
2.55454
2.53241
2.50937
2.48704
2.46388
2.44138
2.41826
2.39564
2.37264
2.34996
2.32712
2.30453
2.28197
2.25977
2.23786
2.21659
2.19622
2.17713
2.16174
3.77871
3.55313
3.33052
3.12461
2.9466
2.7966
2.67566
2.57454
2.48921
2.41379
2.34386
2.27997
2.21523
2.15665
2.09745
2.04313
1.99184
1.94747
1.92181
1.90256
1.89188
1.90373
1.95361
2.06485
2.13848
2.15548
2.17154
2.17489
2.14629
2.11517
2.10123
2.11732
2.13845
2.17015
2.21202
2.26935
2.34657
2.43574
2.52444
2.60331
2.67134
2.72579
2.77165
2.80853
2.84067
2.86768
2.89147
2.91188
2.92932
2.94362
2.95514
2.96359
2.96917
2.9723
2.97495
2.97634
2.97592
2.97205
2.96629
2.95857
2.94974
2.9395
2.92852
2.91633
2.90347
2.88942
2.87473
2.85889
2.84256
2.82509
2.80735
2.78845
2.7695
2.74941
2.72946
2.70841
2.68771
2.66615
2.64501
2.62291
2.60119
2.57851
2.55621
2.5331
2.51037
2.48704
2.46412
2.44079
2.41796
2.39481
2.37228
2.34942
2.32726
2.30477
2.28306
2.26113
2.24014
2.2195
2.20025
2.18418
3.80458
3.59692
3.3927
3.19798
3.02529
2.87488
2.74909
2.6442
2.55512
2.47818
2.40883
2.34466
2.28367
2.22664
2.17087
2.12072
2.07496
2.04817
2.02929
2.02197
2.02925
2.076
2.21229
2.34486
2.39084
2.40082
2.3986
2.36403
2.29985
2.24536
2.21016
2.19383
2.20245
2.2175
2.24038
2.27492
2.31867
2.37511
2.4557
2.5415
2.62403
2.69618
2.7562
2.80373
2.84215
2.87291
2.89879
2.92067
2.9396
2.95548
2.96867
2.97871
2.98641
2.99047
2.99355
2.99516
2.99596
2.9938
2.9892
2.98199
2.97372
2.96355
2.95285
2.94053
2.92788
2.91373
2.8993
2.88345
2.86733
2.8499
2.83222
2.8133
2.79418
2.77387
2.75351
2.73221
2.71111
2.68915
2.66741
2.64494
2.62264
2.59975
2.57701
2.55382
2.53078
2.50738
2.48413
2.46062
2.43728
2.41382
2.39058
2.36739
2.34445
2.32174
2.29931
2.27736
2.25575
2.23517
2.21536
2.19917
3.82911
3.63527
3.44487
3.26173
3.09403
2.94586
2.81763
2.70867
2.61666
2.53648
2.46653
2.40254
2.34313
2.28765
2.23636
2.19099
2.15843
2.14497
2.13578
2.14423
2.18878
2.30973
2.51849
2.62569
2.63422
2.63233
2.60758
2.52581
2.44492
2.37768
2.32892
2.29593
2.27932
2.27659
2.28734
2.30325
2.32905
2.35958
2.40447
2.46743
2.5477
2.63026
2.70681
2.77226
2.82465
2.86553
2.897
2.92219
2.94233
2.95935
2.97337
2.9847
2.99361
2.99947
3.00262
3.00447
3.00574
3.00521
3.00235
2.99652
2.98905
2.97977
2.96946
2.95782
2.94539
2.93184
2.91759
2.90224
2.88632
2.86926
2.85184
2.83317
2.81431
2.79429
2.77439
2.75346
2.73267
2.71094
2.68931
2.66686
2.64452
2.62152
2.59863
2.57526
2.55202
2.52847
2.50505
2.48144
2.45797
2.43438
2.411
2.38752
2.36436
2.34115
2.31843
2.29575
2.27379
2.25231
2.23212
2.21468
3.85384
3.67153
3.4916
3.31782
3.15626
3.00934
2.88192
2.76927
2.67453
2.59148
2.51959
2.45498
2.39699
2.34357
2.29649
2.26152
2.24907
2.23998
2.25004
2.28586
2.39135
2.64049
2.82236
2.86158
2.86228
2.83976
2.76912
2.6704
2.58283
2.51036
2.45266
2.40783
2.37488
2.35333
2.3408
2.34444
2.35359
2.3681
2.39067
2.42099
2.46664
2.53478
2.61221
2.6909
2.76166
2.82106
2.86695
2.90227
2.92843
2.949
2.96507
2.97836
2.98894
2.99693
3.00256
3.00486
3.00682
3.00737
3.00674
3.00266
2.99661
2.98806
2.97852
2.96715
2.95515
2.94164
2.9276
2.91218
2.89629
2.87907
2.86143
2.84247
2.82335
2.80325
2.78312
2.76209
2.74114
2.71935
2.69768
2.67531
2.65302
2.63021
2.60738
2.58422
2.56101
2.53759
2.51417
2.49061
2.46716
2.44364
2.4203
2.39699
2.37388
2.35098
2.32825
2.30598
2.28396
2.26288
2.24252
2.22525
3.88024
3.70633
3.53484
3.36888
3.21352
3.06936
2.94141
2.82865
2.72942
2.64449
2.56992
2.50391
2.44696
2.39661
2.35513
2.34395
2.33796
2.34384
2.38148
2.47774
2.71923
2.97667
3.06976
3.0712
3.05505
3.00191
2.89745
2.79762
2.71119
2.6378
2.57555
2.52291
2.4788
2.44341
2.41595
2.39828
2.3867
2.39305
2.40143
2.41399
2.43589
2.46795
2.52042
2.59036
2.6679
2.74241
2.80911
2.86207
2.90298
2.93231
2.9543
2.97042
2.98299
2.99273
3.00002
3.0047
3.00703
3.00832
3.00908
3.00772
3.00366
2.99675
2.98825
2.97788
2.96657
2.9538
2.94038
2.92568
2.91048
2.89396
2.87695
2.85875
2.84031
2.8207
2.80096
2.78017
2.75921
2.73745
2.71545
2.69293
2.67016
2.64708
2.62384
2.60036
2.57689
2.55313
2.52955
2.50565
2.48203
2.45817
2.43458
2.41092
2.38751
2.36426
2.34123
2.31862
2.29631
2.27487
2.25429
2.2364
3.91119
3.74181
3.57864
3.41881
3.26872
3.12812
2.99995
2.88572
2.78576
2.696
2.62113
2.55286
2.4977
2.45063
2.43395
2.42779
2.43525
2.46997
2.56249
2.78699
3.09158
3.24771
3.25064
3.24274
3.20811
3.11546
3.0092
2.91471
2.83219
2.75983
2.69505
2.6372
2.5855
2.54016
2.501
2.46898
2.44411
2.42747
2.4212
2.42618
2.4331
2.4452
2.46754
2.50345
2.56145
2.63299
2.7086
2.78085
2.84122
2.88957
2.92421
2.94957
2.96675
2.97955
2.98865
2.99518
2.99967
3.00103
3.00246
3.00255
3.00136
2.99662
2.9898
2.9806
2.97027
2.95819
2.94537
2.93105
2.91611
2.89968
2.88277
2.86474
2.84624
2.8268
2.80699
2.78635
2.76548
2.74386
2.72212
2.69972
2.67726
2.65426
2.63124
2.60782
2.58443
2.5608
2.53724
2.51356
2.48998
2.46639
2.44288
2.41951
2.39616
2.37315
2.35014
2.3277
2.30537
2.28397
2.26334
2.24519
3.94701
3.78017
3.62229
3.46822
3.3214
3.18388
3.057
2.94138
2.83999
2.74915
2.67068
2.60496
2.5499
2.52445
2.51879
2.52464
2.55763
2.64587
2.85246
3.18597
3.38705
3.41553
3.40983
3.38009
3.30238
3.20275
3.10891
3.02423
2.94712
2.87638
2.81019
2.74886
2.69147
2.63907
2.59139
2.54937
2.51305
2.4832
2.46097
2.44528
2.44438
2.44809
2.45461
2.4672
2.49256
2.53405
2.59779
2.66946
2.74439
2.81194
2.86846
2.91037
2.94069
2.96086
2.97481
2.9841
2.99062
2.99424
2.99608
2.99698
2.99749
2.99573
2.99138
2.98393
2.9749
2.96383
2.95179
2.93817
2.92374
2.90796
2.89164
2.87411
2.85617
2.83711
2.81767
2.79728
2.77656
2.75508
2.73334
2.71101
2.6885
2.66548
2.64242
2.61889
2.59544
2.57159
2.54791
2.524
2.50024
2.47647
2.45277
2.42933
2.40584
2.38283
2.35976
2.33735
2.31503
2.29362
2.27305
2.25464
3.99369
3.82479
3.66904
3.51987
3.3759
3.24041
3.11445
2.9986
2.89502
2.80357
2.72554
2.66023
2.62133
2.61517
2.61798
2.64851
2.73066
2.92029
3.27044
3.50958
3.56107
3.55674
3.53237
3.46829
3.37474
3.285
3.20406
3.12833
3.05646
2.98704
2.91997
2.85572
2.79424
2.73666
2.68283
2.63371
2.58924
2.55001
2.51641
2.48959
2.46928
2.46053
2.45847
2.46235
2.46886
2.48302
2.51123
2.56076
2.62593
2.7004
2.77228
2.83682
2.88726
2.92482
2.9498
2.96636
2.97653
2.98288
2.98635
2.98747
2.98857
2.98831
2.98677
2.9817
2.97465
2.96511
2.95421
2.94146
2.92767
2.91245
2.89648
2.87933
2.86158
2.84278
2.82351
2.80331
2.78276
2.76145
2.73986
2.71766
2.69523
2.67236
2.64932
2.62598
2.60253
2.5789
2.55523
2.53152
2.50778
2.48419
2.46055
2.43724
2.41387
2.39097
2.36806
2.34574
2.32362
2.30229
2.28194
2.26343
4.05655
3.87695
3.71803
3.57066
3.4297
3.29592
3.17093
3.05585
2.9517
2.85972
2.78581
2.72798
2.7204
2.722
2.74786
2.82146
2.99698
3.35357
3.61476
3.69169
3.68896
3.66925
3.6176
3.53039
3.44572
3.36913
3.29741
3.22802
3.15922
3.09119
3.02353
2.95757
2.8933
2.8322
2.77405
2.71986
2.66944
2.62355
2.58212
2.5461
2.51528
2.49191
2.47487
2.47148
2.46597
2.47041
2.4776
2.49425
2.52924
2.58413
2.65247
2.72545
2.79646
2.85562
2.90209
2.9335
2.9544
2.96656
2.97368
2.97645
2.97802
2.97848
2.97849
2.97613
2.97124
2.96367
2.95434
2.94279
2.93001
2.91566
2.90049
2.88401
2.86689
2.84858
2.82976
2.80991
2.78963
2.76854
2.74708
2.72504
2.70267
2.67992
2.6569
2.63365
2.6102
2.58666
2.56297
2.53935
2.5156
2.49209
2.46848
2.44523
2.42198
2.39915
2.37646
2.35425
2.33244
2.31131
2.2913
2.27294
4.1298
3.93771
3.77282
3.62436
3.48438
3.35238
3.22838
3.11476
3.01246
2.9254
2.85391
2.83684
2.834
2.8556
2.92339
3.08849
3.44417
3.71912
3.81586
3.81371
3.79702
3.75201
3.67071
3.59045
3.5192
3.45227
3.38807
3.3228
3.25662
3.18859
3.12092
3.05325
2.98784
2.92416
2.86365
2.80571
2.75168
2.70063
2.65413
2.61117
2.57309
2.54017
2.51219
2.49095
2.47903
2.47298
2.46959
2.47427
2.48336
2.50279
2.54377
2.60311
2.67411
2.74704
2.81431
2.86897
2.90971
2.93623
2.95227
2.96091
2.96436
2.9653
2.96585
2.96502
2.9625
2.95719
2.94988
2.94013
2.9287
2.91541
2.90103
2.88524
2.86872
2.85098
2.83268
2.81331
2.79349
2.77281
2.75173
2.73002
2.70792
2.68541
2.66257
2.63951
2.61618
2.5928
2.56922
2.54574
2.52213
2.49875
2.47533
2.45224
2.42921
2.40662
2.38419
2.36235
2.34087
2.3202
2.30063
2.28272
4.21666
4.00919
3.83286
3.67947
3.54056
3.40908
3.28732
3.1749
3.07862
2.99794
2.96598
2.96053
2.97862
3.04064
3.19717
3.54846
3.83182
3.93897
3.93695
3.92174
3.88028
3.79999
3.72405
3.65686
3.59686
3.53744
3.47746
3.4136
3.34836
3.28048
3.21306
3.14521
3.07932
3.01419
2.95203
2.89168
2.83464
2.78034
2.72968
2.68213
2.63862
2.59815
2.5628
2.53164
2.50632
2.48833
2.47896
2.47057
2.46868
2.47392
2.48544
2.50947
2.5582
2.62089
2.69163
2.76457
2.82706
2.87759
2.91181
2.93378
2.94519
2.94975
2.95099
2.95113
2.95029
2.94707
2.9418
2.93402
2.9244
2.91266
2.89954
2.88478
2.86905
2.85201
2.83425
2.81549
2.79608
2.77592
2.75516
2.73386
2.71203
2.68985
2.66722
2.64441
2.62126
2.59808
2.57467
2.55138
2.52794
2.50474
2.48149
2.45862
2.4358
2.41347
2.39136
2.3699
2.34889
2.32885
2.30992
2.29289
4.25107
4.09605
3.90218
3.74095
3.59878
3.46991
3.35057
3.245
3.15491
3.10959
3.10128
3.11595
3.17353
3.3244
3.67245
3.9596
4.07205
4.06999
4.05347
4.00964
3.92779
3.85159
3.78825
3.7317
3.67792
3.62186
3.56331
3.50089
3.43639
3.36936
3.30225
3.23434
3.16794
3.10205
3.03866
2.97662
2.91787
2.86097
2.8074
2.75604
2.70787
2.66276
2.62125
2.58318
2.54976
2.52099
2.49758
2.48337
2.47252
2.46397
2.46682
2.47256
2.48616
2.51448
2.56875
2.63395
2.7058
2.77554
2.83451
2.87855
2.90816
2.92415
2.93187
2.9328
2.93315
2.9319
2.92876
2.92295
2.91513
2.9053
2.89386
2.88062
2.86606
2.85004
2.83306
2.815
2.79621
2.77659
2.75634
2.73549
2.71408
2.6923
2.67002
2.64757
2.62469
2.60183
2.57864
2.55564
2.53243
2.50953
2.48658
2.46404
2.44161
2.41974
2.39815
2.37735
2.35705
2.33798
2.31996
2.30436
4.26129
4.16852
3.97795
3.80574
3.66151
3.5324
3.41933
3.32329
3.26753
3.25616
3.26809
3.32293
3.47197
3.81995
4.10691
4.21833
4.21538
4.19551
4.14455
4.05641
3.97853
3.9163
3.86281
3.81252
3.76058
3.70572
3.64702
3.58515
3.52068
3.45455
3.38776
3.32057
3.25418
3.18832
3.12429
3.06142
3.00094
2.94193
2.8857
2.83147
2.78002
2.73129
2.68505
2.64232
2.60239
2.56657
2.53493
2.50788
2.48834
2.47427
2.4635
2.45581
2.45991
2.46766
2.4844
2.51875
2.57604
2.6425
2.71492
2.78024
2.83514
2.87291
2.89713
2.90845
2.91131
2.91138
2.9106
2.90721
2.90112
2.89293
2.88334
2.87189
2.85886
2.84427
2.82837
2.81138
2.79331
2.77451
2.75481
2.73467
2.71374
2.69258
2.67072
2.64882
2.62633
2.60391
2.58111
2.55847
2.53563
2.51311
2.49053
2.46847
2.4465
2.4253
2.40434
2.38451
2.36519
2.3476
2.33093
2.3177
4.23596
4.1915
4.07559
3.89008
3.73336
3.60631
3.50018
3.43659
3.42262
3.43299
3.48824
3.64117
3.9958
4.28138
4.38472
4.37969
4.35284
4.28883
4.19369
4.11278
4.04812
3.99578
3.94679
3.89794
3.84543
3.79002
3.73053
3.669
3.60463
3.53952
3.47285
3.40649
3.33977
3.27406
3.20899
3.1454
3.08323
3.02288
2.96452
2.90806
2.85401
2.80186
2.75244
2.70527
2.66116
2.61985
2.58218
2.54783
2.51833
2.49293
2.47625
2.46063
2.44957
2.44442
2.44882
2.45838
2.47878
2.52111
2.57922
2.64749
2.71825
2.77997
2.82888
2.86118
2.87917
2.88597
2.88631
2.88536
2.88245
2.87601
2.86832
2.85842
2.84694
2.8338
2.81937
2.80365
2.7867
2.7689
2.75002
2.73071
2.71047
2.69002
2.66886
2.64757
2.62579
2.60398
2.58182
2.55982
2.53754
2.51568
2.49364
2.47232
2.45098
2.4307
2.41067
2.39214
2.37426
2.35877
2.34415
2.33449
4.21419
4.19406
4.1318
3.98254
3.81927
3.69055
3.61655
3.59963
3.60876
3.66834
3.83182
4.19936
4.48367
4.57289
4.56447
4.52791
4.44454
4.34065
4.25462
4.18611
4.13234
4.08252
4.03491
3.98335
3.92996
3.87207
3.8127
3.75016
3.6867
3.62128
3.55537
3.48875
3.42218
3.35614
3.29059
3.22654
3.16332
3.10201
3.04187
2.98375
2.92723
2.87285
2.82061
2.77051
2.72311
2.67779
2.63564
2.59578
2.55974
2.52681
2.49828
2.47594
2.45831
2.44328
2.43072
2.43188
2.43618
2.44697
2.46923
2.51899
2.57833
2.64808
2.71438
2.77315
2.8145
2.84153
2.8546
2.85539
2.85507
2.85301
2.84808
2.83986
2.82955
2.81814
2.80513
2.791
2.77546
2.75887
2.74132
2.72284
2.70379
2.68401
2.66384
2.64327
2.62232
2.60133
2.57993
2.55884
2.53735
2.51648
2.49534
2.47512
2.4549
2.43594
2.41744
2.40072
2.38515
2.37267
2.36136
2.35404
4.12189
4.18283
4.15214
4.07477
3.91893
3.81103
3.79041
3.7974
3.86354
4.04448
4.4322
4.7156
4.7865
4.77362
4.72676
4.61502
4.50051
4.40483
4.33308
4.27422
4.224
4.17368
4.124
4.06967
4.01431
3.95458
3.89452
3.83112
3.76793
3.70216
3.63683
3.56988
3.50372
3.43707
3.37154
3.30648
3.2427
3.18003
3.11875
3.05903
3.00087
2.94468
2.89007
2.83782
2.78712
2.73898
2.69264
2.64895
2.60767
2.56922
2.53404
2.50253
2.4751
2.45519
2.43491
2.42047
2.40911
2.41191
2.41757
2.43078