/*--------------------------------*- C++ -*----------------------------------*\
  =========                 |
  \\      /  F ield         | OpenFOAM: The Open Source CFD Toolbox
   \\    /   O peration     | Website:  https://openfoam.org
    \\  /    A nd           | Version:  9
     \\/     M anipulation  |
\*---------------------------------------------------------------------------*/
FoamFile
{
    format      ascii;
    class       volScalarField;
    location    "6.5";
    object      T;
}
// * * * * * * * * * * * * * * * * * * * * * * * * * * * * * * * * * * * * * //

dimensions      [0 0 0 1 0 0 0];

internalField   nonuniform List<scalar> 
5250
(
1.00001
1.00002
1.00005
1.00011
1.00031
1.00068
1.00195
1.0041
1.01182
1.02629
1.07218
1.18423
1.50177
2.21164
2.6774
2.75238
2.74115
2.73945
2.75073
2.76713
2.77994
2.78856
2.79566
2.8
2.80032
1.00001
1.00002
1.00005
1.00011
1.00032
1.00065
1.00195
1.00405
1.01152
1.0262
1.07084
1.18177
1.49454
2.1995
2.67327
2.75223
2.74058
2.73857
2.74982
2.76614
2.77886
2.78744
2.7945
2.79876
2.79898
1.00001
1.00002
1.00004
1.00012
1.00028
1.0007
1.00174
1.00417
1.01084
1.02588
1.06805
1.17681
1.47817
2.17275
2.66329
2.75135
2.73869
2.73586
2.74704
2.763
2.77576
2.78446
2.79146
2.79544
2.79547
1
1.00002
1.00005
1.0001
1.00028
1.00064
1.00168
1.00404
1.0101
1.02522
1.06409
1.16865
1.45456
2.12859
2.64759
2.74977
2.73547
2.73122
2.74215
2.75825
2.76993
2.77807
2.7852
2.79045
2.79062
1
1.00001
1.00004
1.0001
1.00027
1.00058
1.00166
1.00353
1.01009
1.0224
1.06149
1.15532
1.42442
2.06671
2.62505
2.74706
2.73055
2.72467
2.73533
2.75118
2.76374
2.77181
2.77763
2.78037
2.78108
1
1.00002
1.00003
1.0001
1.00021
1.00062
1.00134
1.00365
1.00839
1.02203
1.05398
1.14396
1.38336
1.98692
2.59428
2.74193
2.72319
2.71493
2.72548
2.74056
2.75281
2.76118
2.76758
2.7708
2.77019
1
1.00001
1.00003
1.00009
1.00019
1.00057
1.00116
1.00339
1.00733
1.02013
1.04775
1.12857
1.3393
1.88771
2.55349
2.73234
2.71214
2.70225
2.71274
2.72805
2.73973
2.74677
2.75226
2.75459
2.7534
1
1.00001
1.00003
1.00007
1.00021
1.00042
1.00121
1.00264
1.00717
1.0166
1.04373
1.10966
1.29607
1.77205
2.50163
2.71484
2.6942
2.68423
2.6951
2.71026
2.72252
2.72884
2.73296
2.73299
2.72787
1
1.00001
1.00003
1.00006
1.00018
1.00037
1.00112
1.00225
1.00666
1.01434
1.03968
1.09665
1.26355
1.69323
2.45164
2.69991
2.67983
2.6699
2.67732
2.68997
2.70075
2.70471
2.70606
2.70038
2.68449
1
1.00001
1.00003
1.00005
1.00016
1.00033
1.001
1.00201
1.00591
1.01284
1.0353
1.08583
1.23371
1.61837
2.37367
2.67022
2.66856
2.66084
2.66113
2.66946
2.67626
2.67703
2.67051
2.65042
2.59156
1
1.00001
1.00002
1.00006
1.00012
1.00034
1.00074
1.00211
1.00448
1.01283
1.02865
1.07856
1.20111
1.54503
2.26948
2.63009
2.6609
2.65204
2.64649
2.64841
2.64991
2.64441
2.62537
2.57781
2.46802
1
1.00001
1.00002
1.00005
1.0001
1.0003
1.00065
1.00178
1.00406
1.01065
1.02559
1.06667
1.17309
1.46745
2.14041
2.57717
2.6519
2.6418
2.6325
2.62875
2.62374
2.60997
2.57897
2.51452
2.39155
1
1.00001
1.00001
1.00004
1.00009
1.00026
1.00053
1.00156
1.0033
1.00921
1.02109
1.05633
1.14296
1.3881
1.98155
2.50799
2.63617
2.62691
2.61497
2.60736
2.59737
2.57714
2.53666
2.47085
2.36459
1
1
1.00001
1.00003
1.00009
1.00018
1.00051
1.00112
1.00297
1.00703
1.01782
1.04427
1.11521
1.30464
1.79501
2.41886
2.60712
2.60321
2.59314
2.5825
2.56945
2.54735
2.50558
2.44284
2.35381
1
1
1.00001
1.00003
1.00006
1.00017
1.00035
1.00104
1.00211
1.00615
1.01335
1.03649
1.08846
1.23877
1.62282
2.31374
2.56765
2.5756
2.56717
2.55571
2.54052
2.51818
2.4786
2.42276
2.34606
1
1
1.00001
1.00002
1.00006
1.00012
1.00033
1.00072
1.00196
1.00448
1.01162
1.02812
1.07271
1.189
1.50469
2.17707
2.51444
2.55361
2.54408
2.53288
2.51507
2.49233
2.45537
2.40444
2.33855
1
1
1.00001
1.00002
1.00004
1.0001
1.00026
1.00057
1.00161
1.00338
1.00973
1.02132
1.05867
1.14631
1.39725
1.9868
2.43383
2.53149
2.5243
2.5123
2.4927
2.46886
2.43527
2.38922
2.33141
1
1
1.00001
1.00001
1.00003
1.00008
1.00018
1.0005
1.00107
1.00305
1.00647
1.01817
1.04162
1.11271
1.29162
1.76156
2.32578
2.49703
2.5013
2.49108
2.47096
2.44636
2.41514
2.37441
2.32364
1
1
1
1.00001
1.00003
1.00005
1.00016
1.00033
1.00092
1.00201
1.00538
1.01252
1.03236
1.08014
1.21212
1.55321
2.18973
2.44655
2.47307
2.46522
2.44794
2.4242
2.39608
2.35988
2.31534
1
1
1
1.00001
1.00002
1.00004
1.00011
1.00027
1.00065
1.00163
1.00382
1.00999
1.02337
1.06137
1.15603
1.41611
2.00522
2.37382
2.44631
2.44134
2.42623
2.40376
2.37743
2.34548
2.30631
1
1
1
1.00001
1.00001
1.00003
1.00009
1.00018
1.00053
1.00107
1.00311
1.00668
1.01827
1.04279
1.11417
1.29531
1.76554
2.26327
2.40964
2.41677
2.40637
2.38566
2.35922
2.33011
2.29538
1
1
1
1
1.00001
1.00003
1.00005
1.00015
1.00031
1.00092
1.00187
1.00541
1.01168
1.03174
1.07583
1.20218
1.52334
2.11205
2.3529
2.38778
2.38237
2.36551
2.34106
2.31453
2.28396
1
1
1
1
1.00001
1.00002
1.00004
1.0001
1.00024
1.00061
1.00148
1.00354
1.00903
1.02138
1.05544
1.14011
1.37097
1.90541
2.27065
2.35688
2.35817
2.34589
2.32372
2.29813
2.27078
1
1
1
1
1.00001
1.00001
1.00003
1.00007
1.00018
1.0004
1.00106
1.00245
1.00615
1.01499
1.03725
1.09427
1.24571
1.63407
2.14285
2.31237
2.33141
2.32398
2.30562
2.28107
2.25629
1
1
1
1
1
1.00001
1.00002
1.00005
1.00013
1.00027
1.00077
1.00155
1.00455
1.00954
1.02645
1.06163
1.16497
1.42371
1.9679
2.24755
2.30233
2.30038
2.28668
2.26434
2.24038
1
1
1
1
1
1.00001
1.00001
1.00003
1.00009
1.00018
1.00052
1.00106
1.00309
1.00647
1.01799
1.0412
1.11011
1.28012
1.71671
2.13795
2.26423
2.27607
2.26792
2.24914
2.22514
1
1
1
1
1
1
1.00001
1.00002
1.00005
1.00014
1.00029
1.00082
1.00178
1.00474
1.01088
1.02799
1.0681
1.17724
1.45834
1.97226
2.2021
2.24566
2.24461
2.23094
2.21089
1
1
1
1
1
1
1.00001
1.00002
1.00003
1.00009
1.00019
1.00056
1.00113
1.00327
1.00687
1.01894
1.04351
1.11562
1.29362
1.73482
2.10243
2.21018
2.22157
2.2146
2.19801
1
1
1
1
1
1
1
1.00001
1.00002
1.00005
1.00014
1.00032
1.00081
1.00192
1.00464
1.01157
1.02766
1.07029
1.1777
1.46122
1.94373
2.15221
2.19193
2.19281
2.18131
1
1
1
1
1
1
1
1.00001
1.00002
1.00003
1.0001
1.00019
1.00055
1.00117
1.00314
1.00711
1.01825
1.0439
1.1129
1.28919
1.71319
2.05833
2.15893
2.17122
2.16558
1
1
1
1
1
1
1
1
1.00001
1.00002
1.00005
1.00014
1.00031
1.00078
1.00187
1.00449
1.01119
1.02667
1.06764
1.17009
1.4404
1.898
2.10135
2.14181
2.14448
1
1
1
1
1
1
1
1
1.00001
1.00002
1.00003
1.00009
1.00019
1.0005
1.00115
1.00286
1.00692
1.0167
1.04182
1.10404
1.26869
1.6608
2.00374
2.10904
2.12358
1
1
1
1
1
1
1
1
1
1.00001
1.00002
1.00005
1.00012
1.00032
1.00066
1.00188
1.00382
1.01092
1.02341
1.0633
1.15284
1.40134
1.83497
2.04592
2.09249
1
1
1
1
1
1
1
1
1
1
1.00001
1.00003
1.00008
1.00017
1.00045
1.00104
1.00253
1.00617
1.01466
1.03701
1.0903
1.23272
1.57709
1.93258
2.05518
1
1
1
1
1
1
1
1
1
1
1.00001
1.00002
1.00005
1.0001
1.00028
1.00058
1.00164
1.00331
1.0095
1.02019
1.05462
1.13054
1.34281
1.74706
1.9826
1
1
1
1
1
1
1
1
1
1
1
1.00001
1.00003
1.00007
1.00014
1.00039
1.0008
1.0023
1.00466
1.01307
1.02851
1.07557
1.18345
1.46836
1.84703
1
1
1
1
1
1
1
1
1
1
1
1.00001
1.00002
1.00003
1.0001
1.0002
1.00055
1.00118
1.0031
1.00708
1.01774
1.04279
1.1076
1.27331
1.64232
1
1
1
1
1
1
1
1
1
1
1
1
1.00001
1.00002
1.00005
1.00012
1.0003
1.0007
1.00179
1.00393
1.01052
1.02311
1.06124
1.14675
1.37984
1
1
1
1
1
1
1
1
1
1
1
1
1.00001
1.00001
1.00003
1.00007
1.00017
1.00043
1.00095
1.00253
1.0054
1.01469
1.03229
1.08542
1.20793
1
1
1
1
1
1
1
1
1
1
1
1
1
1.00001
1.00002
1.00004
1.00011
1.00023
1.00064
1.0013
1.0037
1.00757
1.021
1.04677
1.12322
1
1
1
1
1
1
1
1
1
1
1
1
1
1
1.00001
1.00003
1.00007
1.00016
1.00037
1.00092
1.00207
1.00546
1.01196
1.032
1.07412
1
1
1
1
1
1
1
1
1
1
1
1
1
1
1.00001
1.00002
1.00004
1.00012
1.00026
1.00073
1.00149
1.00434
1.00912
1.0253
1.05909
1
1
1
1
1
1
1
1
1
1
1
1
1
1
1.00001
1.00002
1.00004
1.00011
1.00022
1.00064
1.00139
1.0038
1.00881
1.02322
1.05747
1
1
1
1
1
1
1
1
1
1
1
1
1
1
1.00001
1.00001
1.00004
1.00009
1.00024
1.00056
1.00144
1.00359
1.00882
1.02271
1.05759
1
1
1
1
1
1
1
1
1
1
1
1
1
1
1.00001
1.00001
1.00004
1.00008
1.00025
1.00051
1.00151
1.00333
1.00922
1.02182
1.0588
1
1
1
1
1
1
1
1
1
1
1
1
1
1
1.00001
1.00001
1.00003
1.00009
1.00021
1.0006
1.00129
1.0038
1.00821
1.02348
1.0562
1
1
1
1
1
1
1
1
1
1
1
1
1
1
1.00001
1.00002
1.00003
1.00009
1.00021
1.00057
1.00136
1.0035
1.00877
1.02216
1.05734
1
1
1
1
1
1
1
1
1
1
1
1
1
1
1.00001
1.00001
1.00003
1.00009
1.00021
1.00059
1.00126
1.00374
1.00803
1.02311
1.05523
1
1
1
1
1
1
1
1
1
1
1
1
1
1
1.00001
1.00001
1.00003
1.0001
1.0002
1.0006
1.00121
1.00373
1.00796
1.02283
1.05494
1
1
1
1
1
1
1
1
1
1
1
1
1
1
1.00001
1.00002
1.00003
1.0001
1.0002
1.00058
1.00127
1.00355
1.00826
1.02219
1.05536
2.29834
2.32088
2.63199
2.73186
2.87499
2.87658
2.83996
2.82479
2.81519
2.8048
2.7872
2.77095
2.75443
2.74013
2.72379
2.70655
2.6884
2.67111
2.65544
2.63987
2.62308
2.60815
2.60006
2.5962
2.59752
2.6077
2.62756
2.65849
2.69141
2.72765
2.75842
2.78971
2.8127
2.8371
2.8531
2.87066
2.88236
2.89367
2.90091
2.90972
2.91412
2.91749
2.91967
2.92039
2.91994
2.9193
2.91766
2.91561
2.91238
2.90963
2.90506
2.90158
2.89625
2.89244
2.8852
2.88081
2.87297
2.86775
2.86052
2.85417
2.84677
2.84004
2.83222
2.82481
2.81683
2.80909
2.80058
2.79249
2.78385
2.77554
2.76658
2.75802
2.74893
2.74013
2.73084
2.72168
2.71227
2.70292
2.69338
2.68382
2.67416
2.66444
2.6548
2.64497
2.63531
2.62541
2.61573
2.6059
2.5963
2.58656
2.5771
2.56754
2.55842
2.54929
2.54084
2.53257
2.52542
2.51889
2.5143
2.51044
2.30302
2.33849
2.53539
2.66127
2.72499
2.82955
2.86806
2.8961
2.89654
2.88027
2.86588
2.84807
2.83955
2.83054
2.82143
2.80581
2.79302
2.77847
2.76842
2.75577
2.74586
2.73279
2.7267
2.72496
2.73345
2.7418
2.76582
2.79231
2.82058
2.84849
2.86845
2.88919
2.90038
2.91046
2.91469
2.91617
2.91571
2.91627
2.9123
2.90848
2.8994
2.89278
2.88485
2.87923
2.87016
2.86368
2.85473
2.8479
2.83838
2.83059
2.82125
2.8132
2.80473
2.7958
2.78606
2.77685
2.76746
2.75871
2.74942
2.7408
2.73142
2.72279
2.71345
2.70502
2.69585
2.68754
2.67853
2.6703
2.66141
2.65314
2.6443
2.63588
2.62706
2.61849
2.60966
2.60098
2.59212
2.58335
2.57446
2.56556
2.55667
2.54761
2.53873
2.52956
2.52064
2.51141
2.50246
2.49321
2.48428
2.47504
2.46622
2.45709
2.44852
2.43973
2.4317
2.42365
2.41668
2.41024
2.40582
2.40226
2.29767
2.2912
2.35263
2.47914
2.54283
2.59356
2.67425
2.74389
2.81322
2.8527
2.87442
2.88782
2.90499
2.88354
2.86244
2.85431
2.85058
2.84879
2.84615
2.84396
2.83834
2.83239
2.82717
2.82678
2.8356
2.84412
2.86442
2.8831
2.90429
2.92237
2.93
2.93324
2.93347
2.93131
2.92509
2.91969
2.91036
2.90264
2.89044
2.8806
2.86921
2.85943
2.84863
2.83818
2.82742
2.81675
2.80619
2.79533
2.78429
2.77326
2.76172
2.75104
2.74024
2.72931
2.71737
2.70577
2.69441
2.68309
2.6719
2.66066
2.64958
2.63838
2.6274
2.61637
2.60562
2.59492
2.58446
2.57397
2.56373
2.55343
2.54347
2.53348
2.52393
2.51434
2.5052
2.49594
2.48717
2.47815
2.46969
2.46089
2.45272
2.44417
2.43625
2.42797
2.42026
2.41227
2.40471
2.39698
2.38955
2.38208
2.37476
2.3676
2.36043
2.3537
2.34677
2.34076
2.33463
2.33027
2.3263
2.32489
2.28308
2.25013
2.26031
2.31435
2.37743
2.43018
2.48627
2.54848
2.60868
2.66886
2.72802
2.77569
2.82366
2.84651
2.85075
2.85712
2.8649
2.87513
2.88078
2.87142
2.86306
2.86315
2.86354
2.86579
2.87961
2.89033
2.9003
2.90747
2.90976
2.9063
2.90117
2.89564
2.88559
2.87699
2.86563
2.85291
2.83861
2.82349
2.80817
2.79374
2.77917
2.76534
2.75099
2.738
2.72455
2.71236
2.69976
2.68804
2.67638
2.6654
2.65418
2.64419
2.6343
2.62495
2.61433
2.60465
2.59445
2.58541
2.57552
2.56679
2.55695
2.54825
2.53842
2.52969
2.51995
2.51105
2.50123
2.49202
2.48206
2.47263
2.46261
2.45308
2.44301
2.43335
2.42319
2.41341
2.40325
2.39347
2.38342
2.3738
2.3639
2.35458
2.34483
2.3359
2.32631
2.31783
2.30846
2.30052
2.29141
2.28405
2.27525
2.26844
2.25996
2.25383
2.24596
2.24087
2.23413
2.23077
2.22643
2.22612
2.2762
2.22854
2.21246
2.22732
2.26295
2.3003
2.34509
2.38762
2.44
2.48248
2.53486
2.57932
2.63217
2.68585
2.73552
2.76909
2.78986
2.8085
2.82417
2.83446
2.83833
2.84393
2.85023
2.8542
2.85278
2.84925
2.84635
2.84119
2.83293
2.82311
2.81122
2.79668
2.78077
2.76559
2.74814
2.73228
2.71441
2.69903
2.68256
2.66886
2.6543
2.64178
2.62852
2.61713
2.60478
2.59424
2.58252
2.57239
2.56125
2.55164
2.54077
2.53179
2.5223
2.51391
2.50418
2.49522
2.48559
2.4771
2.46814
2.45999
2.45139
2.44341
2.43509
2.42736
2.41934
2.41182
2.40401
2.39664
2.38902
2.38179
2.37427
2.36704
2.35946
2.35215
2.34444
2.33707
2.32921
2.32178
2.31372
2.30619
2.29791
2.29035
2.2819
2.27434
2.26581
2.25828
2.24968
2.24217
2.23349
2.22593
2.21724
2.20982
2.20141
2.19429
2.18643
2.17993
2.17315
2.16799
2.1636
2.16132
2.27187
2.22036
2.18873
2.18233
2.19466
2.21237
2.24163
2.27037
2.30616
2.34132
2.37683
2.41654
2.45329
2.49667
2.53526
2.57891
2.61976
2.66048
2.69586
2.73007
2.75712
2.77259
2.78629
2.79031
2.79273
2.78504
2.7717
2.75146
2.72663
2.69916
2.67359
2.65145
2.63201
2.61478
2.59984
2.58584
2.57296
2.5614
2.55069
2.5412
2.53211
2.52398
2.51603
2.50897
2.50182
2.49538
2.48877
2.48252
2.47603
2.46982
2.46298
2.45676
2.45035
2.44438
2.43748
2.43046
2.42259
2.41533
2.40748
2.40016
2.39229
2.38481
2.37683
2.36912
2.36091
2.35298
2.34462
2.33661
2.32818
2.32011
2.31164
2.30356
2.29518
2.2872
2.27896
2.27105
2.26288
2.25502
2.24687
2.2391
2.23099
2.22337
2.2153
2.20783
2.19979
2.19247
2.18442
2.17723
2.16932
2.16239
2.15472
2.14807
2.14068
2.13442
2.12745
2.12182
2.11565
2.11126
2.10708
2.10559
2.27059
2.21732
2.17925
2.15716
2.15306
2.15804
2.17041
2.18887
2.20945
2.2354
2.25936
2.28836
2.31583
2.34714
2.37705
2.40892
2.44156
2.47516
2.51247
2.54683
2.58597
2.6179
2.64781
2.66454
2.67417
2.66292
2.63702
2.59888
2.55695
2.51892
2.48802
2.46669
2.45492
2.44882
2.44633
2.44383
2.4406
2.43866
2.4359
2.43411
2.4315
2.42943
2.42626
2.42355
2.41955
2.41617
2.4116
2.40745
2.4023
2.39737
2.39159
2.38624
2.38056
2.37554
2.36992
2.36416
2.3577
2.35148
2.34496
2.33872
2.33228
2.32598
2.31946
2.31298
2.30638
2.29981
2.29315
2.28643
2.27956
2.27263
2.26551
2.2584
2.25099
2.24373
2.23602
2.22868
2.22074
2.21341
2.20533
2.19804
2.18988
2.18262
2.17436
2.16703
2.15866
2.15127
2.1429
2.13554
2.1272
2.11988
2.11163
2.10445
2.09644
2.08953
2.08198
2.07562
2.06897
2.06374
2.05918
2.05687
2.26892
2.21764
2.17622
2.14636
2.1296
2.1239
2.12506
2.13306
2.14264
2.15851
2.17359
2.19274
2.21207
2.23344
2.25646
2.27821
2.3047
2.32877
2.36119
2.39174
2.42819
2.4602
2.49375
2.5225
2.53771
2.52376
2.49261
2.45049
2.40666
2.37151
2.34623
2.32802
2.32434
2.32909
2.33785
2.3466
2.35273
2.35768
2.35977
2.36148
2.36122
2.36052
2.35908
2.35705
2.35435
2.35146
2.34781
2.34412
2.33976
2.33543
2.33049
2.32563
2.3205
2.31592
2.31085
2.30576
2.29976
2.29383
2.28757
2.28166
2.2754
2.26949
2.2631
2.25708
2.25052
2.24439
2.23768
2.23145
2.22463
2.21832
2.21145
2.2051
2.19821
2.19182
2.1849
2.1784
2.17137
2.16471
2.15753
2.15073
2.1434
2.13643
2.129
2.12204
2.11465
2.10778
2.10044
2.09371
2.08646
2.07985
2.07269
2.06614
2.05909
2.05256
2.04573
2.03933
2.03308
2.02735
2.02286
2.01979
2.26606
2.21753
2.17557
2.14218
2.11815
2.10407
2.09644
2.096
2.09867
2.10489
2.11363
2.12337
2.13685
2.14874
2.16624
2.18022
2.20101
2.22006
2.24814
2.27701
2.30947
2.34458
2.38747
2.42749
2.44266
2.42659
2.39492
2.3567
2.31329
2.27993
2.2546
2.23746
2.22786
2.22769
2.23604
2.24814
2.26025
2.27014
2.277
2.28188
2.28421
2.28564
2.2856
2.28536
2.28474
2.28376
2.28204
2.28066
2.27826
2.27617
2.27308
2.27018
2.26656
2.26354
2.26016
2.25685
2.25253
2.24809
2.24302
2.2381
2.23272
2.22759
2.22206
2.21671
2.21097
2.20533
2.19934
2.19339
2.18713
2.18088
2.17434
2.16788
2.16113
2.15457
2.14767
2.14113
2.13417
2.12769
2.12069
2.11416
2.10703
2.10051
2.09332
2.08673
2.07946
2.07277
2.0655
2.05873
2.05157
2.04479
2.03785
2.03119
2.02454
2.01814
2.01183
2.00582
2.00004
1.99484
1.99053
1.98809
2.2629
2.21773
2.17623
2.14106
2.11267
2.09312
2.0791
2.07178
2.0684
2.06856
2.07135
2.07483
2.08234
2.08859
2.09915
2.10967
2.12391
2.14334
2.16716
2.19475
2.22884
2.27066
2.33131
2.37235
2.38068
2.36231
2.33261
2.29292
2.24812
2.21018
2.18299
2.16543
2.15259
2.14516
2.14603
2.15402
2.16785
2.18441
2.19882
2.21131
2.21942
2.22614
2.22952
2.23261
2.23404
2.23544
2.23605
2.23622
2.2358
2.23495
2.23343
2.23154
2.22893
2.22643
2.22375
2.22097
2.21758
2.21374
2.20931
2.20481
2.19996
2.19522
2.19018
2.18522
2.17995
2.17476
2.16925
2.16384
2.15806
2.15246
2.1464
2.14059
2.13422
2.12815
2.12145
2.1151
2.10811
2.10151
2.09435
2.08773
2.08058
2.07398
2.06692
2.06035
2.05338
2.0468
2.03984
2.0332
2.02617
2.01944
2.0123
2.00557
1.99842
1.99182
1.98489
1.97863
1.97228
1.96686
1.96212
1.95952
2.25678
2.21633
2.17627
2.14155
2.1109
2.08746
2.06954
2.05675
2.04863
2.04365
2.04135
2.04138
2.04268
2.04558
2.05144
2.05863
2.07154
2.08882
2.11285
2.13923
2.1815
2.24118
2.30991
2.34594
2.3423
2.32271
2.29149
2.24838
2.20351
2.16615
2.13692
2.11737
2.10375
2.0947
2.09084
2.09191
2.09854
2.11201
2.12958
2.14713
2.16218
2.17401
2.18204
2.18786
2.1913
2.19384
2.19528
2.19621
2.19643
2.19631
2.19555
2.19442
2.19243
2.19033
2.18781
2.1857
2.18292
2.17995
2.17611
2.17233
2.16789
2.1637
2.15894
2.1545
2.14949
2.14476
2.13945
2.1344
2.1288
2.12344
2.11759
2.11197
2.10587
2.10005
2.09375
2.08774
2.08126
2.07514
2.06858
2.06232
2.05569
2.04928
2.04258
2.03608
2.02936
2.02282
2.01613
2.00961
2.00298
1.99648
1.9899
1.9834
1.97687
1.97037
1.96395
1.95758
1.95154
1.94574
1.94109
1.93797
2.24911
2.21303
2.17565
2.14145
2.11084
2.08474
2.06404
2.04802
2.03564
2.02738
2.02102
2.01736
2.01543
2.01554
2.01776
2.0243
2.03839
2.05442
2.07851
2.11325
2.16789
2.24926
2.31049
2.32708
2.31647
2.29635
2.2612
2.21676
2.17496
2.13978
2.11003
2.08739
2.07022
2.05944
2.05175
2.04763
2.04706
2.05128
2.06127
2.07727
2.09536
2.11277
2.12742
2.13856
2.14664
2.15197
2.1556
2.15777
2.15941
2.16021
2.1606
2.16045
2.15969
2.15855
2.15678
2.15512
2.15312
2.151
2.14794
2.14459
2.14067
2.13668
2.1323
2.1279
2.1232
2.11846
2.11343
2.10839
2.103
2.09769
2.09191
2.08631
2.08017
2.07429
2.06786
2.06181
2.0553
2.04915
2.04261
2.03638
2.02983
2.02355
2.017
2.01066
2.00411
1.9977
1.99115
1.98471
1.97817
1.97177
1.96528
1.95898
1.95259
1.94645
1.94021
1.93433
1.92844
1.92319
1.91856
1.91599
2.23944
2.20688
2.17304
2.14061
2.11048
2.08438
2.06099
2.04336
2.02789
2.01672
2.0076
2.00121
1.99635
1.99491
1.99609
2.00427
2.01717
2.03706
2.06344
2.11489
2.19257
2.27639
2.31485
2.31455
2.30015
2.27475
2.23666
2.19555
2.15779
2.12515
2.09699
2.07334
2.05381
2.03851
2.02742
2.02023
2.01594
2.01463
2.01688
2.02403
2.03754
2.05515
2.07379
2.09065
2.10472
2.11472
2.12204
2.12637
2.12938
2.13091
2.13193
2.13212
2.13202
2.13139
2.13011
2.12877
2.12703
2.12546
2.12322
2.12065
2.11718
2.11376
2.10969
2.10579
2.10135
2.0971
2.09237
2.08782
2.08281
2.07797
2.07266
2.06751
2.06184
2.05636
2.05043
2.04473
2.03857
2.03263
2.02628
2.02013
2.01367
2.00736
2.00087
1.99447
1.98798
1.98156
1.97508
1.96867
1.96218
1.95579
1.94932
1.94293
1.93655
1.9302
1.92397
1.91775
1.91187
1.90616
1.9015
1.89838
2.22863
2.19899
2.16859
2.13846
2.10931
2.0836
2.06014
2.04005
2.02401
2.01003
1.99919
1.99118
1.98456
1.98289
1.98638
1.99649
2.01055
2.03552
2.07684
2.15004
2.24336
2.30114
2.31221
2.30361
2.2857
2.25507
2.21801
2.18208
2.14947
2.12001
2.0934
2.06957
2.04862
2.03029
2.01511
2.0031
1.99527
1.99029
1.98737
1.9875
1.99154
2.00078
2.01543
2.03364
2.05109
2.06742
2.07954
2.08891
2.09457
2.09851
2.10047
2.10172
2.10217
2.10213
2.10164
2.10074
2.09925
2.09798
2.09624
2.0944
2.09161
2.08852
2.08484
2.08109
2.07688
2.07269
2.06805
2.06346
2.05839
2.05341
2.04793
2.04259
2.03679
2.03128
2.02536
2.01971
2.01374
2.00795
2.00199
1.99608
1.99008
1.98408
1.97799
1.97192
1.96571
1.95962
1.95333
1.94724
1.94095
1.93489
1.92868
1.92263
1.91655
1.91054
1.90462
1.89873
1.8931
1.88766
1.88311
1.88018
2.21549
2.18945
2.16149
2.13429
2.10674
2.08157
2.05873
2.03827
2.02009
2.00638
1.99287
1.98476
1.9782
1.97856
1.98539
1.99744
2.01733
2.055
2.12166
2.21683
2.28808
2.31105
2.30729
2.29492
2.27153
2.23893
2.20633
2.17567
2.1474
2.12057
2.09546
2.07178
2.04988
2.02982
2.01211
1.99654
1.98381
1.97441
1.96835
1.96522
1.96332
1.96461
1.97037
1.98115
1.99745
2.01505
2.03261
2.04677
2.05844
2.06584
2.07118
2.07376
2.07556
2.07608
2.07624
2.07584
2.0749
2.07392
2.07252
2.07123
2.06923
2.06679
2.06349
2.0601
2.05611
2.05219
2.04777
2.04348
2.03872
2.03407
2.02897
2.02397
2.01866
2.01342
2.00788
2.00242
1.99666
1.991
1.98506
1.97926
1.97322
1.96732
1.96122
1.95524
1.94911
1.94305
1.93687
1.93074
1.92454
1.91838
1.91223
1.90608
1.90006
1.89399
1.88817
1.88226
1.87677
1.87136
1.8669
1.86397
2.20217
2.17913
2.15402
2.12902
2.10392
2.07964
2.05711
2.03711
2.01838
2.00334
1.99081
1.98142
1.97855
1.98239
1.99238
2.00988
2.04263
2.10255
2.1971
2.27839
2.31003
2.3108
2.30217
2.28467
2.25787
2.22862
2.20055
2.17414
2.14889
2.12404
2.10002
2.07649
2.05433
2.03325
2.01391
1.9962
1.98063
1.9672
1.95647
1.94921
1.94404
1.94132
1.93967
1.94191
1.94867
1.96194
1.97772
1.99561
2.01151
2.02538
2.03509
2.04209
2.04587
2.04818
2.04895
2.04905
2.04854
2.04775
2.0464
2.0453
2.04362
2.04192
2.03918
2.03622
2.0326
2.02895
2.0248
2.02068
2.01611
2.01155
2.00657
2.0017
1.99645
1.99134
1.98589
1.98057
1.97498
1.96948
1.96378
1.95814
1.95232
1.9466
1.94071
1.93496
1.92902
1.92326
1.9173
1.91149
1.90556
1.89968
1.89382
1.88789
1.88215
1.87625
1.87066
1.86491
1.85959
1.85435
1.85
1.84719
2.18867
2.16749
2.14492
2.12149
2.0985
2.07569
2.05402
2.0345
2.01667
2.00138
1.98934
1.98325
1.98493
1.99331
2.00937
2.03789
2.09265
2.18444
2.26971
2.30831
2.31379
2.30789
2.29474
2.27284
2.2471
2.22242
2.19831
2.17502
2.1516
2.12829
2.10515
2.08226
2.06022
2.03881
2.01864
1.99952
1.98193
1.96596
1.95188
1.93981
1.93074
1.92458
1.91961
1.9168
1.91596
1.91932
1.92816
1.94155
1.95893
1.97555
1.99145
2.00323
2.01226
2.01748
2.02068
2.02185
2.02221
2.02176
2.02071
2.01981
2.01849
2.01723
2.01522
2.01283
2.00965
2.00637
2.00254
1.99867
1.99436
1.99007
1.98546
1.98088
1.976
1.97117
1.96603
1.96095
1.9556
1.9503
1.94479
1.93932
1.9337
1.92811
1.92241
1.91673
1.91097
1.90524
1.89946
1.89368
1.88792
1.8821
1.8764
1.87057
1.86496
1.85921
1.85375
1.8482
1.84301
1.83799
1.83375
1.83106
2.17624
2.15529
2.13523
2.11385
2.09232
2.07107
2.05058
2.03157
2.01492
2.00144
1.9913
1.99169
1.99876
2.01174
2.0376
2.08941
2.17671
2.26327
2.30737
2.31663
2.3125
2.30252
2.28382
2.26138
2.23945
2.21832
2.19759
2.17636
2.15464
2.13225
2.10998
2.08762
2.0659
2.04444
2.0239
2.00401
1.98528
1.96753
1.95124
1.93622
1.92327
1.91222
1.90427
1.89804
1.89385
1.89105
1.89149
1.89636
1.90646
1.92164
1.93807
1.95507
1.96885
1.98027
1.98718
1.99196
1.99389
1.99463
1.99424
1.99336
1.99211
1.99112
1.98955
1.98787
1.98536
1.98261
1.97925
1.97577
1.97174
1.96767
1.96321
1.9588
1.95406
1.94939
1.94443
1.93956
1.93442
1.92935
1.92408
1.91882
1.91345
1.90804
1.90257
1.89706
1.89154
1.88595
1.88041
1.87479
1.86927
1.86362
1.85814
1.85254
1.84711
1.84162
1.83632
1.83105
1.82603
1.82125
1.81718
1.81461
2.16336
2.14271
2.12344
2.10402
2.08454
2.06481
2.04592
2.02806
2.01288
2.00216
2
2.00584
2.01889
2.04269
2.09092
2.17288
2.25912
2.30692
2.31918
2.31625
2.3082
2.29246
2.2722
2.2532
2.23464
2.21674
2.19748
2.17759
2.15663
2.13565
2.11399
2.09269
2.071
2.04988
2.02886
2.00872
1.9889
1.9703
1.95214
1.93547
1.91969
1.90552
1.89382
1.88376
1.87676
1.87052
1.86687
1.86489
1.86637
1.87274
1.88457
1.90019
1.91705
1.93307
1.94617
1.95613
1.9621
1.96555
1.96686
1.96671
1.96579
1.96493
1.96379
1.96259
1.96073
1.95853
1.95572
1.95267
1.94909
1.9454
1.9413
1.93718
1.9327
1.92826
1.9235
1.91882
1.91386
1.90895
1.90384
1.89873
1.89351
1.88826
1.88297
1.87762
1.87229
1.86688
1.86153
1.85609
1.85075
1.84531
1.84001
1.83462
1.82939
1.82411
1.81904
1.81397
1.80923
1.80469
1.80088
1.79845
2.1505
2.13111
2.11169
2.09382
2.07539
2.05798
2.04072
2.02588
2.01325
2.00895
2.0136
2.02645
2.04897
2.09494
2.17259
2.25801
2.307
2.32123
2.31927
2.31263
2.29894
2.28063
2.26271
2.24664
2.23017
2.21362
2.19552
2.17719
2.15736
2.13747
2.11643
2.09559
2.07414
2.05334
2.03225
2.01198
1.99183
1.97243
1.95339
1.93535
1.918
1.90235
1.88749
1.87472
1.86382
1.85517
1.84845
1.84256
1.83969
1.83857
1.84122
1.84876
1.86277
1.87783
1.89532
1.90961
1.92229
1.93016
1.93565
1.93778
1.93857
1.93797
1.93694
1.93602
1.9347
1.93304
1.9308
1.92831
1.92524
1.92199
1.91828
1.91449
1.91034
1.90617
1.90171
1.89722
1.89254
1.8878
1.88295
1.87801
1.87302
1.86794
1.86287
1.8577
1.85259
1.84738
1.84226
1.83703
1.83192
1.82672
1.82168
1.81655
1.81162
1.80664
1.8019
1.79718
1.79279
1.7886
1.78515
1.7829
2.13541
2.1185
2.10015
2.0823
2.06606
2.04973
2.03509
2.02318
2.01845
2.02243
2.03521
2.05688
2.10115
2.17549
2.25904
2.30796
2.32307
2.32143
2.31523
2.30235
2.28435
2.26824
2.2534
2.23957
2.22484
2.20947
2.19252
2.17482
2.15583
2.13656
2.1163
2.09616
2.07532
2.0549
2.03406
2.01381
1.99326
1.97356
1.95399
1.93544
1.91741
1.90028
1.88405
1.86922
1.85549
1.84373
1.83389
1.82588
1.81921
1.81425
1.8118
1.81182
1.81573
1.82519
1.83927
1.85549
1.87185
1.88597
1.89697
1.90444
1.90828
1.91028
1.91007
1.9093
1.90834
1.90727
1.90553
1.90351
1.90099
1.89818
1.89493
1.8915
1.88773
1.88385
1.8797
1.87549
1.87106
1.86656
1.86193
1.85721
1.85245
1.84757
1.84272
1.83775
1.83289
1.82788
1.82302
1.81801
1.81318
1.80823
1.80346
1.79861
1.79396
1.78928
1.78487
1.7805
1.77654
1.77277
1.76981
1.76785
2.11933
2.10616
2.08819
2.07224
2.05657
2.04328
2.03187
2.02633
2.03033
2.04354
2.06499
2.10866
2.18136
2.26275
2.31052
2.32563
2.32387
2.31722
2.30382
2.28619
2.27102
2.25745
2.24502
2.23211
2.21848
2.20352
2.18753
2.17045
2.15252
2.13384
2.11443
2.09469
2.0744
2.05419
2.03361
2.01341
1.9931
1.97345
1.95384
1.93492
1.91639
1.89847
1.88152
1.86513
1.85011
1.83602
1.82343
1.81262
1.80347
1.79604
1.78942
1.78577
1.78392
1.78506
1.79051
1.80193
1.81578
1.83319
1.84828
1.86239
1.87168
1.8784
1.88105
1.88224
1.88154
1.88095
1.87976
1.87834
1.8763
1.87402
1.87123
1.86824
1.8649
1.86136
1.85759
1.85361
1.84952
1.84522
1.84089
1.83634
1.83185
1.82714
1.82257
1.81778
1.81317
1.80838
1.80378
1.79905
1.7945
1.78985
1.78541
1.78088
1.77663
1.77229
1.76835
1.76439
1.76099
1.75775
1.75544
1.75383
2.09807
2.09207
2.07856
2.06156
2.04782
2.03655
2.03244
2.03693
2.05083
2.07278
2.11686
2.18997
2.2684
2.3137
2.32816
2.32593
2.31822
2.30257
2.28587
2.27111
2.25913
2.24744
2.23597
2.2233
2.21002
2.19531
2.18
2.16332
2.14619
2.1279
2.10938
2.09002
2.07061
2.05071
2.03091
2.01097
1.9912
1.97156
1.95212
1.93313
1.91441
1.89643
1.87882
1.86207
1.84586
1.83062
1.81618
1.80311
1.7913
1.7814
1.77295
1.76584
1.76016
1.75729
1.75641
1.75875
1.76557
1.77825
1.79325
1.81024
1.82505
1.8378
1.84616
1.85131
1.85368
1.85372
1.85317
1.85242
1.8512
1.84942
1.84713
1.84463
1.84176
1.83871
1.83534
1.83174
1.82798
1.82395
1.81995
1.81564
1.81145
1.80697
1.80261
1.79807
1.79363
1.78907
1.78467
1.78015
1.77588
1.77147
1.76741
1.76318
1.7594
1.75548
1.75211
1.74871
1.74604
1.74356
1.74214
1.74105
2.07649
2.07649
2.06729
2.05421
2.04095
2.03592
2.04119
2.0565
2.08029
2.12548
2.20092
2.27739
2.31924
2.33255
2.32961
2.32036
2.30251
2.28522
2.27021
2.25894
2.24788
2.23768
2.22585
2.214
2.20042
2.18662
2.17121
2.15546
2.13848
2.12117
2.10308
2.08466
2.06584
2.04664
2.02739
2.00777
1.98841
1.96888
1.9498
1.93082
1.91234
1.89416
1.87639
1.85917
1.84227
1.82628
1.8107
1.79639
1.7827
1.77067
1.75982
1.75073
1.74275
1.73592
1.73153
1.72941
1.7297
1.73322
1.74204
1.75492
1.77155
1.78703
1.80249
1.81288
1.82121
1.82459
1.82654
1.82612
1.82561
1.82472
1.82312
1.82099
1.81865
1.8159
1.81309
1.80988
1.80656
1.803
1.79925
1.79541
1.79136
1.78731
1.78312
1.77889
1.77469
1.77035
1.76621
1.76188
1.7579
1.75369
1.74996
1.74604
1.74268
1.73923
1.73646
1.73383
1.73205
1.73065
1.73006
1.72943
2.04583
2.05696
2.05502
2.04663
2.0392
2.04399
2.06023
2.08626
2.13362
2.2127
2.29
2.32779
2.33832
2.33428
2.32188
2.30289
2.2839
2.26967
2.25741
2.24763
2.23715
2.22718
2.21525
2.20346
2.18984
2.17635
2.16111
2.14595
2.12923
2.11268
2.09492
2.07733
2.05887
2.0405
2.02157
2.00271
1.98366
1.96472
1.94588
1.9272
1.90882
1.8906
1.87289
1.85532
1.8385
1.82189
1.80613
1.79084
1.77639
1.76283
1.75018
1.73895
1.72917
1.72056
1.71316
1.70714
1.70406
1.70294
1.7043
1.70938
1.71987
1.73373
1.75053
1.76594
1.78026
1.78975
1.79673
1.79925
1.80056
1.80004
1.79929
1.79814
1.79612
1.79389
1.79117
1.78845
1.78543
1.78227
1.77893
1.77534
1.77178
1.76786
1.76418
1.76002
1.75631
1.75204
1.74836
1.74414
1.74058
1.73657
1.73327
1.72966
1.72685
1.72394
1.72193
1.72022
1.71954
1.71902
1.71935
1.71932
2.00283
2.03441
2.04115
2.04152
2.04578
2.06143
2.09074
2.14372
2.22435
2.30137
2.33591
2.34414
2.33894
2.32422
2.30216
2.2832
2.26776
2.2562
2.24561
2.23615
2.22576
2.21544
2.20363
2.19178
2.1784
2.16514
2.15027
2.13552
2.11922
2.10316
2.08584
2.06885
2.05091
2.03318
2.01485
1.99657
1.97802
1.95954
1.94099
1.92266
1.90434
1.88644
1.86863
1.85132
1.83432
1.81773
1.80181
1.78608
1.77144
1.75689
1.74367
1.73089
1.71942
1.70916
1.70022
1.69224
1.68545
1.68084
1.67853
1.67881
1.68146
1.68801
1.7
1.71518
1.73173
1.74743
1.75963
1.7692
1.7735
1.77629
1.7761
1.77556
1.77455
1.77287
1.77066
1.76815
1.76553
1.76261
1.75968
1.7563
1.75308
1.74936
1.74597
1.74209
1.73863
1.73472
1.73129
1.7275
1.72424
1.72073
1.71782
1.71486
1.71259
1.71059
1.70958
1.70911
1.70933
1.71022
1.71187
1.71238
1.92323
2.00914
2.02959
2.04188
2.06041
2.09601
2.15796
2.24294
2.31687
2.34852
2.3516
2.3442
2.32548
2.30222
2.28232
2.26649
2.25451
2.24424
2.23463
2.22442
2.21371
2.20219
2.19029
2.17778
2.16495
2.15155
2.13761
2.12305
2.1078
2.092
2.07556
2.05873
2.04141
2.0239
2.00609
1.98822
1.97025
1.95225
1.93434
1.91643
1.8987
1.88115
1.86378
1.84685
1.83003
1.81386
1.79777
1.78248
1.76735
1.75288
1.73882
1.72544
1.71286
1.70119
1.69063
1.68145
1.67316
1.66592
1.66025
1.65726
1.65674
1.65806
1.66215
1.67126
1.68382
1.7008
1.71671
1.73227
1.74301
1.75124
1.75424
1.75589
1.75528
1.75451
1.75319
1.75081
1.74839
1.74542
1.74281
1.73949
1.7367
1.7331
1.73008
1.72633
1.72315
1.71943
1.71625
1.71273
1.70979
1.70672
1.7043
1.70204
1.70058
1.69979
1.69992
1.70068
1.70221
1.70447
1.7083
1.71033
1.76337
1.95554
2.01366
2.0494
2.09657
2.17521
2.26643