/*--------------------------------*- C++ -*----------------------------------*\
  =========                 |
  \\      /  F ield         | OpenFOAM: The Open Source CFD Toolbox
   \\    /   O peration     | Website:  https://openfoam.org
    \\  /    A nd           | Version:  9
     \\/     M anipulation  |
\*---------------------------------------------------------------------------*/
FoamFile
{
    format      ascii;
    class       volVectorField;
    location    "6.5";
    object      U;
}
// * * * * * * * * * * * * * * * * * * * * * * * * * * * * * * * * * * * * * //

dimensions      [0 1 -1 0 0 0 0];

internalField   nonuniform List<vector> 
5250
(
(3 2.15032e-08 0)
(2.99999 1.19379e-08 0)
(2.99996 3.52281e-07 0)
(2.9999 2.09873e-07 0)
(2.99975 2.55113e-06 0)
(2.99939 2.5401e-06 0)
(2.9985 1.61179e-05 0)
(2.99628 1.85611e-05 0)
(2.99077 9.58288e-05 0)
(2.97689 0.000141374 0)
(2.94077 0.000521097 0)
(2.84059 0.00115087 0)
(2.54959 0.00341049 0)
(1.71322 0.0096404 0)
(0.78755 0.0250233 0)
(0.49379 0.0238978 0)
(0.546964 0.0241416 0)
(0.556481 0.0259301 0)
(0.503755 0.0277666 0)
(0.416137 0.0296692 0)
(0.332645 0.0319736 0)
(0.263862 0.0347105 0)
(0.194785 0.0375833 0)
(0.116379 0.0408665 0)
(0.0501843 0.0452312 0)
(3 2.76702e-08 0)
(2.99999 2.42384e-07 0)
(2.99996 7.05865e-07 0)
(2.9999 2.3639e-06 0)
(2.99976 5.36655e-06 0)
(2.9994 1.62379e-05 0)
(2.99851 3.32026e-05 0)
(2.99634 0.000105214 0)
(2.99087 0.000199735 0)
(2.97725 0.000631929 0)
(2.9416 0.00134203 0)
(2.84299 0.00388735 0)
(2.55657 0.0103256 0)
(1.73047 0.0300864 0)
(0.797492 0.0761946 0)
(0.490284 0.0688751 0)
(0.546054 0.0665475 0)
(0.556729 0.0694779 0)
(0.503785 0.0725161 0)
(0.416212 0.0757803 0)
(0.332762 0.0795977 0)
(0.263469 0.0838498 0)
(0.193441 0.0877799 0)
(0.113847 0.0915197 0)
(0.047259 0.0948283 0)
(3 6.75754e-08 0)
(2.99999 3.50013e-07 0)
(2.99996 1.4665e-06 0)
(2.9999 3.43172e-06 0)
(2.99977 1.08758e-05 0)
(2.99941 2.29637e-05 0)
(2.99857 6.73896e-05 0)
(2.99642 0.000146567 0)
(2.9912 0.00040138 0)
(2.97785 0.000936985 0)
(2.94347 0.00247638 0)
(2.84814 0.0063411 0)
(2.57128 0.0178142 0)
(1.76956 0.0513245 0)
(0.820837 0.131803 0)
(0.485809 0.116718 0)
(0.547411 0.111596 0)
(0.560981 0.116785 0)
(0.508119 0.122526 0)
(0.421043 0.129213 0)
(0.337895 0.136467 0)
(0.268118 0.144203 0)
(0.197002 0.151527 0)
(0.115836 0.158026 0)
(0.0472294 0.162251 0)
(3 9.33174e-08 0)
(2.99999 4.94706e-07 0)
(2.99996 1.93355e-06 0)
(2.99991 4.97205e-06 0)
(2.99977 1.43195e-05 0)
(2.99945 3.36303e-05 0)
(2.99861 9.11691e-05 0)
(2.99662 0.0002065 0)
(2.99153 0.000565984 0)
(2.97898 0.00129265 0)
(2.94608 0.00348696 0)
(2.85587 0.00883707 0)
(2.59411 0.0248684 0)
(1.82947 0.0716368 0)
(0.857681 0.187179 0)
(0.480273 0.164031 0)
(0.551462 0.155857 0)
(0.569869 0.16337 0)
(0.517476 0.171996 0)
(0.431291 0.182498 0)
(0.348457 0.193549 0)
(0.278132 0.205271 0)
(0.205564 0.216819 0)
(0.121755 0.227007 0)
(0.0493518 0.232707 0)
(3 8.68748e-08 0)
(2.99999 7.43538e-07 0)
(2.99997 2.12954e-06 0)
(2.99991 7.26728e-06 0)
(2.99979 1.59174e-05 0)
(2.99948 4.87886e-05 0)
(2.99871 9.94209e-05 0)
(2.99681 0.000305534 0)
(2.99211 0.000619643 0)
(2.98028 0.00183417 0)
(2.94976 0.00411059 0)
(2.86595 0.0115086 0)
(2.62408 0.0309982 0)
(1.91088 0.0903239 0)
(0.908397 0.241276 0)
(0.476029 0.211642 0)
(0.559329 0.200167 0)
(0.584022 0.209558 0)
(0.532283 0.220816 0)
(0.447215 0.235239 0)
(0.364537 0.250341 0)
(0.293578 0.266492 0)
(0.219289 0.282948 0)
(0.131715 0.297855 0)
(0.0535471 0.306053 0)
(3 1.2199e-07 0)
(2.99999 7.50985e-07 0)
(2.99997 2.76594e-06 0)
(2.99992 7.3706e-06 0)
(2.99981 2.07771e-05 0)
(2.99952 4.99091e-05 0)
(2.99883 0.000129187 0)
(2.99706 0.00031934 0)
(2.9928 0.00078161 0)
(2.98189 0.00200933 0)
(2.95414 0.00495583 0)
(2.87838 0.0131293 0)
(2.6601 0.0361746 0)
(2.01396 0.104765 0)
(0.97613 0.289263 0)
(0.479007 0.259657 0)
(0.57383 0.24562 0)
(0.605292 0.256017 0)
(0.554267 0.26947 0)
(0.470483 0.288166 0)
(0.387663 0.308019 0)
(0.315756 0.329665 0)
(0.239289 0.352538 0)
(0.146707 0.374293 0)
(0.0604976 0.387348 0)
(3 1.41668e-07 0)
(2.99999 7.85958e-07 0)
(2.99997 2.93604e-06 0)
(2.99993 7.78002e-06 0)
(2.99983 2.21488e-05 0)
(2.99957 5.12001e-05 0)
(2.99894 0.000144391 0)
(2.99736 0.000314386 0)
(2.99352 0.000903795 0)
(2.98377 0.0019968 0)
(2.95901 0.00554971 0)
(2.89215 0.013768 0)
(2.70082 0.0388862 0)
(2.13352 0.112275 0)
(1.06512 0.323484 0)
(0.501093 0.308991 0)
(0.599681 0.296189 0)
(0.636204 0.305355 0)
(0.585982 0.319424 0)
(0.503666 0.341993 0)
(0.420265 0.367118 0)
(0.347132 0.395482 0)
(0.268321 0.426873 0)
(0.1697 0.459128 0)
(0.0720893 0.482153 0)
(3 1.26142e-07 0)
(2.99999 7.78718e-07 0)
(2.99998 2.66623e-06 0)
(2.99994 7.63741e-06 0)
(2.99984 1.99721e-05 0)
(2.99962 5.01445e-05 0)
(2.99905 0.000130018 0)
(2.99769 0.000305555 0)
(2.9942 0.000816329 0)
(2.98576 0.00188402 0)
(2.96398 0.00501907 0)
(2.90617 0.012556 0)
(2.74333 0.0346147 0)
(2.26369 0.0991305 0)
(1.18768 0.293686 0)
(0.562454 0.34033 0)
(0.644096 0.347401 0)
(0.678487 0.356005 0)
(0.62891 0.370879 0)
(0.548656 0.397325 0)
(0.464584 0.428497 0)
(0.390206 0.464972 0)
(0.309675 0.507211 0)
(0.20553 0.555188 0)
(0.0923738 0.59912 0)
(3 1.05902e-07 0)
(2.99999 6.94677e-07 0)
(2.99998 2.35507e-06 0)
(2.99994 6.84153e-06 0)
(2.99986 1.75188e-05 0)
(2.99966 4.58463e-05 0)
(2.99915 0.000109451 0)
(2.99793 0.000282842 0)
(2.99483 0.00066622 0)
(2.98727 0.00170617 0)
(2.96792 0.00412985 0)
(2.91676 0.0106628 0)
(2.77331 0.028223 0)
(2.35018 0.079281 0)
(1.29976 0.234516 0)
(0.604515 0.376093 0)
(0.6645 0.408614 0)
(0.701962 0.408069 0)
(0.665265 0.424248 0)
(0.595358 0.452952 0)
(0.516301 0.491511 0)
(0.444478 0.537208 0)
(0.366511 0.592685 0)
(0.263007 0.665512 0)
(0.129913 0.753515 0)
(3 1.0344e-07 0)
(2.99999 6.23462e-07 0)
(2.99998 2.30037e-06 0)
(2.99995 6.12275e-06 0)
(2.99988 1.6974e-05 0)
(2.9997 4.12992e-05 0)
(2.99924 0.000104617 0)
(2.99815 0.000258221 0)
(2.99539 0.000625819 0)
(2.98865 0.00159191 0)
(2.97143 0.00385163 0)
(2.92621 0.00992975 0)
(2.79997 0.0261534 0)
(2.42894 0.0731028 0)
(1.44458 0.215253 0)
(0.687373 0.427813 0)
(0.672395 0.46083 0)
(0.704314 0.4562 0)
(0.691123 0.475044 0)
(0.638487 0.505437 0)
(0.57214 0.552066 0)
(0.50872 0.607674 0)
(0.443824 0.682229 0)
(0.358659 0.797737 0)
(0.201395 1.00569 0)
(3 9.22621e-08 0)
(2.99999 6.45067e-07 0)
(2.99998 2.12553e-06 0)
(2.99996 6.30229e-06 0)
(2.99989 1.58282e-05 0)
(2.99973 4.20442e-05 0)
(2.99933 9.82592e-05 0)
(2.99836 0.000262994 0)
(2.99594 0.000593949 0)
(2.98996 0.00161094 0)
(2.97484 0.00371893 0)
(2.9354 0.00988991 0)
(2.82551 0.0255191 0)
(2.50584 0.0716294 0)
(1.61366 0.208838 0)
(0.795107 0.473628 0)
(0.679309 0.491369 0)
(0.71043 0.493515 0)
(0.714245 0.515815 0)
(0.679643 0.551203 0)
(0.630923 0.603515 0)
(0.58525 0.669496 0)
(0.553393 0.762022 0)
(0.550571 0.906037 0)
(0.587561 1.15052 0)
(3 9.54176e-08 0)
(2.99999 6.49358e-07 0)
(2.99998 2.12737e-06 0)
(2.99996 6.40964e-06 0)
(2.99991 1.59509e-05 0)
(2.99976 4.24126e-05 0)
(2.99943 0.000100446 0)
(2.99857 0.00026147 0)
(2.99651 0.000615639 0)
(2.99126 0.00159404 0)
(2.97832 0.00382888 0)
(2.9444 0.00991044 0)
(2.85124 0.0256842 0)
(2.58142 0.0716734 0)
(1.80279 0.207639 0)
(0.924063 0.517 0)
(0.690159 0.521082 0)
(0.722716 0.52465 0)
(0.740686 0.547099 0)
(0.721767 0.588306 0)
(0.691697 0.643959 0)
(0.669162 0.717465 0)
(0.672375 0.817657 0)
(0.729108 0.95697 0)
(0.868683 1.13955 0)
(3 1.05009e-07 0)
(3 6.0883e-07 0)
(2.99999 2.226e-06 0)
(2.99997 5.99638e-06 0)
(2.99992 1.66713e-05 0)
(2.9998 3.96901e-05 0)
(2.99951 0.000106623 0)
(2.99879 0.000244841 0)
(2.99705 0.000658824 0)
(2.99263 0.00151064 0)
(2.98178 0.00403885 0)
(2.95359 0.00967959 0)
(2.87708 0.0260999 0)
(2.65756 0.071146 0)
(2.01057 0.207018 0)
(1.07766 0.553948 0)
(0.716857 0.558442 0)
(0.746527 0.560471 0)
(0.774356 0.575613 0)
(0.768601 0.617737 0)
(0.754041 0.675401 0)
(0.75326 0.74968 0)
(0.781872 0.844677 0)
(0.862768 0.959826 0)
(1.02 1.0726 0)
(3 9.31603e-08 0)
(3 5.74081e-07 0)
(2.99999 2.02263e-06 0)
(2.99997 5.65249e-06 0)
(2.99993 1.50563e-05 0)
(2.99984 3.78256e-05 0)
(2.9996 9.57716e-05 0)
(2.99903 0.000235287 0)
(2.99757 0.000593686 0)
(2.99407 0.0014522 0)
(2.98514 0.00366856 0)
(2.96278 0.00917111 0)
(2.90265 0.0238797 0)
(2.73291 0.0652775 0)
(2.23419 0.18836 0)
(1.27386 0.537917 0)
(0.788384 0.592633 0)
(0.792401 0.603488 0)
(0.818994 0.608956 0)
(0.824249 0.644508 0)
(0.819312 0.699461 0)
(0.831468 0.768222 0)
(0.874083 0.849675 0)
(0.960396 0.938795 0)
(1.10828 1.01115 0)
(3 7.69775e-08 0)
(3 4.98888e-07 0)
(2.99999 1.7034e-06 0)
(2.99998 4.91331e-06 0)
(2.99995 1.27073e-05 0)
(2.99987 3.26457e-05 0)
(2.99968 8.00943e-05 0)
(2.99921 0.00020105 0)
(2.99807 0.000489759 0)
(2.9952 0.00122466 0)
(2.98822 0.00300371 0)
(2.97044 0.0075517 0)
(2.92391 0.0192054 0)
(2.79511 0.0514264 0)
(2.42054 0.145741 0)
(1.49904 0.434018 0)
(0.888509 0.615516 0)
(0.845865 0.643603 0)
(0.864994 0.651145 0)
(0.881499 0.6738 0)
(0.884589 0.719505 0)
(0.902884 0.778602 0)
(0.950516 0.845288 0)
(1.03456 0.913153 0)
(1.16671 0.964182 0)
(3 6.37548e-08 0)
(3 4.26377e-07 0)
(2.99999 1.40181e-06 0)
(2.99998 4.1901e-06 0)
(2.99996 1.04984e-05 0)
(2.99989 2.73578e-05 0)
(2.99974 6.67375e-05 0)
(2.99937 0.000165549 0)
(2.99842 0.000409171 0)
(2.99617 0.000987864 0)
(2.99041 0.00248915 0)
(2.97627 0.00602821 0)
(2.93914 0.0153586 0)
(2.83725 0.0400232 0)
(2.54356 0.110626 0)
(1.7336 0.327432 0)
(1.006 0.649862 0)
(0.881676 0.680363 0)
(0.897832 0.692771 0)
(0.92493 0.703448 0)
(0.941784 0.737622 0)
(0.965872 0.785847 0)
(1.01445 0.83933 0)
(1.09337 0.891067 0)
(1.20936 0.928863 0)
(3 5.59863e-08 0)
(3 3.55322e-07 0)
(2.99999 1.24568e-06 0)
(2.99999 3.49345e-06 0)
(2.99997 9.24682e-06 0)
(2.99992 2.34093e-05 0)
(2.99979 5.77066e-05 0)
(2.99949 0.000145116 0)
(2.99875 0.000348697 0)
(2.99693 0.000886919 0)
(2.99242 0.00211641 0)
(2.98115 0.00542593 0)
(2.9522 0.0133115 0)
(2.87344 0.0351247 0)
(2.64856 0.0959374 0)
(1.9953 0.279428 0)
(1.1732 0.680151 0)
(0.917691 0.712358 0)
(0.925719 0.725075 0)
(0.958441 0.728754 0)
(0.989615 0.751751 0)
(1.02027 0.790656 0)
(1.06853 0.833841 0)
(1.14147 0.873798 0)
(1.24294 0.902224 0)
(3 5.01541e-08 0)
(3 2.98567e-07 0)
(3 1.08203e-06 0)
(2.99999 2.93995e-06 0)
(2.99997 8.06064e-06 0)
(2.99994 1.96175e-05 0)
(2.99984 5.08021e-05 0)
(2.99961 0.000121083 0)
(2.99904 0.000309989 0)
(2.99764 0.000741947 0)
(2.99419 0.001886 0)
(2.9856 0.00458346 0)
(2.96383 0.0116964 0)
(2.90605 0.0298501 0)
(2.74349 0.0817321 0)
(2.26756 0.234693 0)
(1.39962 0.646021 0)
(0.994091 0.732545 0)
(0.970243 0.748185 0)
(0.99419 0.752413 0)
(1.03352 0.765134 0)
(1.07004 0.79483 0)
(1.11647 0.82938 0)
(1.18265 0.860553 0)
(1.27137 0.882104 0)
(3 3.84994e-08 0)
(3 2.48479e-07 0)
(3 8.42958e-07 0)
(2.99999 2.44375e-06 0)
(2.99998 6.29824e-06 0)
(2.99995 1.61141e-05 0)
(2.99988 3.97811e-05 0)
(2.99971 9.85589e-05 0)
(2.99927 0.000243177 0)
(2.99824 0.0005939 0)
(2.99562 0.00148021 0)
(2.98933 0.00360393 0)
(2.97325 0.00908835 0)
(2.93179 0.022888 0)
(2.81805 0.0610876 0)
(2.4899 0.17198 0)
(1.67286 0.507332 0)
(1.10758 0.739611 0)
(1.02608 0.76816 0)
(1.03675 0.779843 0)
(1.07535 0.783977 0)
(1.11592 0.802447 0)
(1.1602 0.82788 0)
(1.21957 0.851522 0)
(1.29716 0.867573 0)
(3 2.96423e-08 0)
(3 1.94512e-07 0)
(3 6.59003e-07 0)
(2.99999 1.90713e-06 0)
(2.99998 4.90375e-06 0)
(2.99996 1.26217e-05 0)
(2.99991 3.06666e-05 0)
(2.99978 7.75596e-05 0)
(2.99945 0.000185026 0)
(2.99867 0.000467475 0)
(2.9967 0.00111554 0)
(2.99194 0.00281034 0)
(2.97989 0.00683616 0)
(2.94921 0.0172578 0)
(2.86577 0.0446796 0)
(2.6285 0.122335 0)
(1.95988 0.361541 0)
(1.2553 0.750235 0)
(1.07112 0.793053 0)
(1.07112 0.808658 0)
(1.10704 0.80756 0)
(1.15365 0.812236 0)
(1.19859 0.828725 0)
(1.25285 0.846111 0)
(1.32124 0.857779 0)
(3 2.34751e-08 0)
(3 1.55984e-07 0)
(3 5.24851e-07 0)
(3 1.52921e-06 0)
(2.99999 3.91702e-06 0)
(2.99997 1.01389e-05 0)
(2.99993 2.4519e-05 0)
(2.99984 6.24033e-05 0)
(2.9996 0.000148412 0)
(2.99902 0.00037827 0)
(2.99757 0.000897559 0)
(2.99409 0.00229037 0)
(2.98528 0.00549631 0)
(2.96321 0.0140553 0)
(2.90441 0.035636 0)
(2.73966 0.0971731 0)
(2.25834 0.280053 0)
(1.47369 0.718946 0)
(1.14108 0.812519 0)
(1.11334 0.828575 0)
(1.1358 0.829408 0)
(1.18381 0.824695 0)
(1.23309 0.832323 0)
(1.28397 0.843856 0)
(1.34461 0.851866 0)
(3 1.86025e-08 0)
(3 1.1667e-07 0)
(3 4.10292e-07 0)
(3 1.14457e-06 0)
(2.99999 3.03945e-06 0)
(2.99998 7.62789e-06 0)
(2.99995 1.88948e-05 0)
(2.99988 4.70772e-05 0)
(2.99971 0.000113694 0)
(2.99929 0.000285609 0)
(2.99829 0.000682331 0)
(2.99577 0.00173311 0)
(2.98969 0.00414194 0)
(2.97431 0.0105779 0)
(2.93473 0.0263402 0)
(2.82728 0.0704875 0)
(2.51732 0.198287 0)
(1.7665 0.570117 0)
(1.25867 0.810925 0)
(1.16876 0.839561 0)
(1.17361 0.849154 0)
(1.2143 0.842333 0)
(1.26488 0.839988 0)
(1.31363 0.844987 0)
(1.368 0.849484 0)
(3 1.3796e-08 0)
(3 8.83665e-08 0)
(3 2.99505e-07 0)
(3 8.67523e-07 0)
(2.99999 2.22453e-06 0)
(2.99999 5.69384e-06 0)
(2.99997 1.40373e-05 0)
(2.99991 3.44352e-05 0)
(2.9998 8.54116e-05 0)
(2.99949 0.000205007 0)
(2.99878 0.000515485 0)
(2.99697 0.00122215 0)
(2.99265 0.00310722 0)
(2.98168 0.00743113 0)
(2.9541 0.0189688 0)
(2.87972 0.0484056 0)
(2.67036 0.1324 0)
(2.07887 0.389217 0)
(1.41721 0.803647 0)
(1.21874 0.859323 0)
(1.20864 0.870345 0)
(1.23872 0.863865 0)
(1.29009 0.852621 0)
(1.34052 0.850272 0)
(1.39112 0.850571 0)
(3 1.02969e-08 0)
(3 6.52224e-08 0)
(3 2.24148e-07 0)
(3 6.39332e-07 0)
(3 1.66863e-06 0)
(2.99999 4.19131e-06 0)
(2.99998 1.05158e-05 0)
(2.99994 2.54469e-05 0)
(2.99986 6.3753e-05 0)
(2.99965 0.00015234 0)
(2.99914 0.00038267 0)
(2.99793 0.0009126 0)
(2.99486 0.00230013 0)
(2.98751 0.00553158 0)
(2.96875 0.0140305 0)
(2.92011 0.0352505 0)
(2.78667 0.0949658 0)
(2.39781 0.272311 0)
(1.67238 0.70624 0)
(1.30836 0.858422 0)
(1.25615 0.880606 0)
(1.26905 0.883289 0)
(1.31384 0.86981 0)
(1.36529 0.860536 0)
(1.41391 0.856029 0)
(3 7.14899e-09 0)
(3 4.71408e-08 0)
(3 1.59275e-07 0)
(3 4.61046e-07 0)
(3 1.18137e-06 0)
(2.99999 3.03672e-06 0)
(2.99998 7.34951e-06 0)
(2.99996 1.85559e-05 0)
(2.9999 4.40774e-05 0)
(2.99976 0.00011121 0)
(2.99941 0.000262996 0)
(2.99857 0.000663975 0)
(2.99649 0.00157574 0)
(2.99146 0.0039628 0)
(2.97881 0.0096056 0)
(2.94669 0.0242818 0)
(2.8605 0.0629605 0)
(2.61536 0.174326 0)
(1.97903 0.502437 0)
(1.4387 0.837034 0)
(1.30814 0.88714 0)
(1.30302 0.90012 0)
(1.33614 0.890193 0)
(1.38705 0.87361 0)
(1.43537 0.864832 0)
(3 5.3878e-09 0)
(3 3.251e-08 0)
(3 1.17197e-07 0)
(3 3.18189e-07 0)
(3 8.66123e-07 0)
(3 2.10847e-06 0)
(2.99999 5.36512e-06 0)
(2.99997 1.28972e-05 0)
(2.99993 3.20354e-05 0)
(2.99984 7.77347e-05 0)
(2.9996 0.000189554 0)
(2.99903 0.000466492 0)
(2.99761 0.00112424 0)
(2.9942 0.00280615 0)
(2.98564 0.00675989 0)
(2.96432 0.0170939 0)
(2.90811 0.0430973 0)
(2.75245 0.116386 0)
(2.30434 0.336303 0)
(1.64642 0.778237 0)
(1.37618 0.892172 0)
(1.34138 0.911945 0)
(1.35751 0.910543 0)
(1.40379 0.891765 0)
(1.45486 0.877049 0)
(3 3.81253e-09 0)
(3 2.27975e-08 0)
(3 8.26155e-08 0)
(3 2.23048e-07 0)
(3 6.10121e-07 0)
(3 1.47528e-06 0)
(2.99999 3.77969e-06 0)
(2.99998 9.0099e-06 0)
(2.99996 2.25434e-05 0)
(2.99989 5.41739e-05 0)
(2.99974 0.000133378 0)
(2.99935 0.000324215 0)
(2.99844 0.000789706 0)
(2.99615 0.00194811 0)
(2.9907 0.00471317 0)
(2.97691 0.0118188 0)
(2.94198 0.0293758 0)
(2.84846 0.0774795 0)
(2.58015 0.217005 0)
(1.94529 0.598736 0)
(1.49593 0.871625 0)
(1.39469 0.914811 0)
(1.38968 0.925297 0)
(1.42212 0.912543 0)
(1.4714 0.890052 0)
(3 2.51807e-09 0)
(3 1.61497e-08 0)
(3 5.47718e-08 0)
(3 1.58033e-07 0)
(3 4.05972e-07 0)
(3 1.03247e-06 0)
(2.99999 2.54126e-06 0)
(2.99999 6.21229e-06 0)
(2.99997 1.53016e-05 0)
(2.99993 3.67255e-05 0)
(2.99982 9.15471e-05 0)
(2.99957 0.000216522 0)
(2.99897 0.000544638 0)
(2.99747 0.00128318 0)
(2.99386 0.00324547 0)
(2.98484 0.00772849 0)
(2.96238 0.0195923 0)
(2.90324 0.0492964 0)
(2.73943 0.133291 0)
(2.27718 0.384247 0)
(1.68173 0.815694 0)
(1.45585 0.916208 0)
(1.42526 0.934197 0)
(1.43968 0.930828 0)
(1.48283 0.907862 0)
(3 1.6548e-09 0)
(3 1.11024e-08 0)
(3 3.66099e-08 0)
(3 1.0842e-07 0)
(3 2.71392e-07 0)
(3 7.07579e-07 0)
(3 1.69368e-06 0)
(2.99999 4.2633e-06 0)
(2.99998 1.01863e-05 0)
(2.99995 2.51814e-05 0)
(2.99989 6.08582e-05 0)
(2.99973 0.000148251 0)
(2.99933 0.000362367 0)
(2.9984 0.000873836 0)
(2.99607 0.00216648 0)
(2.99051 0.00520099 0)
(2.97648 0.0130629 0)
(2.94114 0.032325 0)
(2.84669 0.0853203 0)
(2.57573 0.239505 0)
(1.97033 0.635457 0)
(1.56792 0.887288 0)
(1.47712 0.931206 0)
(1.46993 0.940957 0)
(1.49766 0.92772 0)
(3 1.12476e-09 0)
(3 7.18763e-09 0)
(3 2.49103e-08 0)
(3 7.00071e-08 0)
(3 1.83782e-07 0)
(3 4.59222e-07 0)
(3 1.13287e-06 0)
(2.99999 2.79001e-06 0)
(2.99999 6.70955e-06 0)
(2.99997 1.66466e-05 0)
(2.99993 3.93827e-05 0)
(2.99982 9.8644e-05 0)
(2.99957 0.000231746 0)
(2.99897 0.000581735 0)
(2.99747 0.00136773 0)
(2.99391 0.00344024 0)
(2.98493 0.00818854 0)
(2.96281 0.0206674 0)
(2.90457 0.0518379 0)
(2.74403 0.139768 0)
(2.29761 0.39847 0)
(1.74392 0.821103 0)
(1.53585 0.925151 0)
(1.50404 0.945162 0)
(1.51437 0.94372 0)
(3 7.65535e-10 0)
(3 4.64698e-09 0)
(3 1.66413e-08 0)
(3 4.54319e-08 0)
(3 1.22413e-07 0)
(3 2.99065e-07 0)
(3 7.53026e-07 0)
(3 1.81238e-06 0)
(2.99999 4.45319e-06 0)
(2.99998 1.0805e-05 0)
(2.99995 2.60964e-05 0)
(2.99989 6.41183e-05 0)
(2.99974 0.000152762 0)
(2.99935 0.0003799 0)
(2.99845 0.000896878 0)
(2.99619 0.00225038 0)
(2.99082 0.00533553 0)
(2.9773 0.0134582 0)
(2.94342 0.033064 0)
(2.85331 0.0870767 0)
(2.59568 0.243114 0)
(2.02732 0.635723 0)
(1.64485 0.891828 0)
(1.55413 0.940422 0)
(1.54374 0.951217 0)
(3 4.84202e-10 0)
(3 3.06688e-09 0)
(3 1.05084e-08 0)
(3 2.9929e-08 0)
(3 7.76142e-08 0)
(3 1.9444e-07 0)
(3 4.81582e-07 0)
(3 1.16245e-06 0)
(3 2.87195e-06 0)
(2.99999 6.82852e-06 0)
(2.99997 1.69503e-05 0)
(2.99993 3.99678e-05 0)
(2.99983 9.9579e-05 0)
(2.99959 0.00023469 0)
(2.99903 0.000582711 0)
(2.99761 0.00138109 0)
(2.99427 0.0034235 0)
(2.98585 0.00822799 0)
(2.96522 0.02048 0)
(2.91125 0.0515183 0)
(2.76378 0.137534 0)
(2.35482 0.389532 0)
(1.82679 0.807123 0)
(1.61438 0.927019 0)
(1.57748 0.951548 0)
(3 3.05142e-10 0)
(3 1.98899e-09 0)
(3 6.66671e-09 0)
(3 1.94095e-08 0)
(3 4.91065e-08 0)
(3 1.26066e-07 0)
(3 3.04722e-07 0)
(3 7.52619e-07 0)
(3 1.82115e-06 0)
(2.99999 4.40567e-06 0)
(2.99998 1.07828e-05 0)
(2.99996 2.5671e-05 0)
(2.9999 6.36613e-05 0)
(2.99975 0.000149809 0)
(2.9994 0.000374536 0)
(2.99855 0.000878616 0)
(2.99652 0.002203 0)
(2.9915 0.00520924 0)
(2.97926 0.0130903 0)
(2.94831 0.0320048 0)
(2.86675 0.0837504 0)
(2.63583 0.231203 0)
(2.11108 0.606952 0)
(1.728 0.890931 0)
(1.62742 0.948675 0)
(3 1.88303e-10 0)
(3 1.25279e-09 0)
(3 4.18304e-09 0)
(3 1.21876e-08 0)
(3 3.08222e-08 0)
(3 7.94115e-08 0)
(3 1.89414e-07 0)
(3 4.77154e-07 0)
(3 1.12009e-06 0)
(3 2.80238e-06 0)
(2.99999 6.58504e-06 0)
(2.99997 1.63399e-05 0)
(2.99994 3.86544e-05 0)
(2.99985 9.50097e-05 0)
(2.99963 0.000227411 0)
(2.99913 0.000551195 0)
(2.99787 0.00133864 0)
(2.99492 0.00321778 0)
(2.9875 0.0079189 0)
(2.96947 0.0192633 0)
(2.92277 0.0487089 0)
(2.79693 0.128445 0)
(2.44584 0.362085 0)
(1.93439 0.776349 0)
(1.6957 0.927438 0)
(3 1.23071e-10 0)
(3 7.57256e-10 0)
(3 2.68038e-09 0)
(3 7.36977e-09 0)
(3 1.96791e-08 0)
(3 4.80643e-08 0)
(3 1.20759e-07 0)
(3 2.8925e-07 0)
(3 7.10213e-07 0)
(3 1.70796e-06 0)
(2.99999 4.13427e-06 0)
(2.99998 1.00472e-05 0)
(2.99996 2.40151e-05 0)
(2.99991 5.89113e-05 0)
(2.99978 0.000139769 0)
(2.99948 0.000345019 0)
(2.99874 0.000815272 0)
(2.99697 0.00202144 0)
(2.99262 0.0047999 0)
(2.98208 0.0119648 0)
(2.95557 0.0291478 0)
(2.88643 0.0753176 0)
(2.6933 0.204823 0)
(2.2282 0.545315 0)
(1.82355 0.879038 0)
(3 7.49275e-11 0)
(3 4.65992e-10 0)
(3 1.62408e-09 0)
(3 4.54073e-09 0)
(3 1.19028e-08 0)
(3 2.94863e-08 0)
(3 7.32453e-08 0)
(3 1.75852e-07 0)
(3 4.3304e-07 0)
(3 1.02924e-06 0)
(3 2.5283e-06 0)
(2.99999 6.00807e-06 0)
(2.99998 1.47136e-05 0)
(2.99995 3.5024e-05 0)
(2.99987 8.54651e-05 0)
(2.9997 0.000204627 0)
(2.99927 0.000495584 0)
(2.99824 0.00119632 0)
(2.99578 0.00288913 0)
(2.98971 0.00703401 0)
(2.97501 0.0172038 0)
(2.93774 0.0428396 0)
(2.839 0.112269 0)
(2.56251 0.313233 0)
(2.06379 0.715405 0)
(3 4.3658e-11 0)
(3 2.84846e-10 0)
(3 9.64794e-10 0)
(3 2.76576e-09 0)
(3 7.08157e-09 0)
(3 1.79558e-08 0)
(3 4.32682e-08 0)
(3 1.07319e-07 0)
(3 2.5393e-07 0)
(3 6.27226e-07 0)
(3 1.47679e-06 0)
(2.99999 3.64248e-06 0)
(2.99999 8.57688e-06 0)
(2.99997 2.10695e-05 0)
(2.99993 4.98269e-05 0)
(2.99982 0.000121542 0)
(2.99957 0.00028982 0)
(2.99897 0.000699761 0)
(2.99748 0.00168703 0)
(2.99399 0.00405341 0)
(2.98525 0.00988334 0)
(2.96395 0.0240958 0)
(2.90867 0.0606887 0)
(2.75763 0.161903 0)
(2.3668 0.43719 0)
(3 2.70459e-11 0)
(3 1.66609e-10 0)
(3 5.86632e-10 0)
(3 1.61839e-09 0)
(3 4.29248e-09 0)
(3 1.04891e-08 0)
(3 2.62841e-08 0)
(3 6.25076e-08 0)
(3 1.5434e-07 0)
(3 3.6498e-07 0)
(3 8.95602e-07 0)
(3 2.12585e-06 0)
(2.99999 5.17566e-06 0)
(2.99998 1.23647e-05 0)
(2.99996 2.98557e-05 0)
(2.9999 7.20121e-05 0)
(2.99975 0.000172245 0)
(2.9994 0.000418821 0)
(2.99857 0.000996236 0)
(2.99654 0.0024423 0)
(2.99168 0.00582095 0)
(2.97969 0.0143937 0)
(2.94993 0.0352603 0)
(2.87204 0.0911556 0)
(2.6541 0.249607 0)
(3 1.53691e-11 0)
(3 9.92913e-11 0)
(3 3.35802e-10 0)
(3 9.65098e-10 0)
(3 2.45836e-09 0)
(3 6.23098e-09 0)
(3 1.50646e-08 0)
(3 3.68874e-08 0)
(3 8.85017e-08 0)
(3 2.13711e-07 0)
(3 5.15136e-07 0)
(3 1.23056e-06 0)
(3 2.9867e-06 0)
(2.99999 7.08076e-06 0)
(2.99997 1.72819e-05 0)
(2.99994 4.07844e-05 0)
(2.99985 9.96072e-05 0)
(2.99966 0.000235605 0)
(2.99917 0.000573432 0)
(2.99801 0.0013621 0)
(2.99519 0.00331429 0)
(2.98841 0.0079425 0)
(2.97167 0.0195281 0)
(2.92951 0.0483444 0)
(2.81669 0.127043 0)
(3 8.85975e-12 0)
(3 5.59793e-11 0)
(3 1.93919e-10 0)
(3 5.42898e-10 0)
(3 1.41689e-09 0)
(3 3.51655e-09 0)
(3 8.60005e-09 0)
(3 2.08784e-08 0)
(3 5.00186e-08 0)
(3 1.21382e-07 0)
(3 2.87873e-07 0)
(3 7.00954e-07 0)
(3 1.65319e-06 0)
(2.99999 4.03258e-06 0)
(2.99999 9.50903e-06 0)
(2.99996 2.31205e-05 0)
(2.99991 5.46881e-05 0)
(2.99979 0.000132442 0)
(2.99951 0.000314612 0)
(2.99882 0.000758285 0)
(2.99716 0.00181257 0)
(2.99317 0.00436585 0)
(2.98337 0.010554 0)
(2.95919 0.0258063 0)
(2.89718 0.0650807 0)
(3 4.91751e-12 0)
(3 3.0838e-11 0)
(3 1.05865e-10 0)
(3 2.98918e-10 0)
(3 7.70414e-10 0)
(3 1.91564e-09 0)
(3 4.69403e-09 0)
(3 1.12005e-08 0)
(3 2.74025e-08 0)
(3 6.3915e-08 0)
(3 1.57589e-07 0)
(3 3.63888e-07 0)
(3 8.99253e-07 0)
(3 2.06958e-06 0)
(2.99999 5.10189e-06 0)
(2.99998 1.17936e-05 0)
(2.99995 2.87944e-05 0)
(2.99987 6.70955e-05 0)
(2.99969 0.00016189 0)
(2.99926 0.000381585 0)
(2.9982 0.000907063 0)
(2.99569 0.00216915 0)
(2.98948 0.00511397 0)
(2.97442 0.0124305 0)
(2.9361 0.0301579 0)
(3 2.62444e-12 0)
(3 1.56205e-11 0)
(3 5.62072e-11 0)
(3 1.50945e-10 0)
(3 4.05621e-10 0)
(3 9.66854e-10 0)
(3 2.42652e-09 0)
(3 5.62856e-09 0)
(3 1.38022e-08 0)
(3 3.2028e-08 0)
(3 7.70791e-08 0)
(3 1.80438e-07 0)
(3 4.25922e-07 0)
(3 1.01134e-06 0)
(2.99999 2.33192e-06 0)
(2.99998 5.61352e-06 0)
(2.99996 1.26771e-05 0)
(2.99991 3.07673e-05 0)
(2.99977 6.80887e-05 0)
(2.99944 0.000166218 0)
(2.99864 0.000360909 0)
(2.99667 0.000880304 0)
(2.9919 0.00189228 0)
(2.97991 0.00455856 0)
(2.94944 0.0100476 0)
(3 1.19596e-12 0)
(3 7.96816e-12 0)
(3 2.65494e-11 0)
(3 7.64578e-11 0)
(3 1.90866e-10 0)
(3 4.82182e-10 0)
(3 1.12094e-09 0)
(3 2.76536e-09 0)
(3 6.23731e-09 0)
(3 1.53797e-08 0)
(3 3.397e-08 0)
(3 8.35844e-08 0)
(3 1.83782e-07 0)
(3 4.44805e-07 0)
(2.99999 9.83828e-07 0)
(2.99999 2.30313e-06 0)
(2.99997 5.19389e-06 0)
(2.99992 1.15566e-05 0)
(2.9998 2.68237e-05 0)
(2.9995 5.55461e-05 0)
(2.99879 0.00013289 0)
(2.99696 0.000252901 0)
(2.99254 0.000621637 0)
(2.98115 0.00109549 0)
(2.95177 0.00255402 0)
(3 5.12196e-13 0)
(3 3.93824e-12 0)
(3 1.21011e-11 0)
(3 3.76287e-11 0)
(3 8.62432e-11 0)
(3 2.35761e-10 0)
(3 4.91405e-10 0)
(3 1.33378e-09 0)
(3 2.65581e-09 0)
(3 7.22362e-09 0)
(3 1.41392e-08 0)
(3 3.77594e-08 0)
(3 7.49539e-08 0)
(3 1.91699e-07 0)
(2.99999 3.9221e-07 0)
(2.99999 9.24486e-07 0)
(2.99997 2.04295e-06 0)
(2.99992 4.19145e-06 0)
(2.99981 1.05105e-05 0)
(2.99953 1.67342e-05 0)
(2.99881 5.31347e-05 0)
(2.99708 5.5981e-05 0)
(2.9926 0.000238339 0)
(2.98149 0.000184725 0)
(2.952 0.000736042 0)
(3 3.07917e-13 0)
(3 1.61723e-12 0)
(3 6.21414e-12 0)
(3 1.51576e-11 0)
(3 4.4588e-11 0)
(3 9.2722e-11 0)
(3 2.62521e-10 0)
(3 5.09284e-10 0)
(3 1.45394e-09 0)
(3 2.67283e-09 0)
(3 7.76068e-09 0)
(3 1.40284e-08 0)
(3 3.97964e-08 0)
(3 7.31676e-08 0)
(3 1.94829e-07 0)
(2.99999 3.86774e-07 0)
(2.99997 8.94036e-07 0)
(2.99993 2.03382e-06 0)
(2.99981 3.82782e-06 0)
(2.99954 1.04871e-05 0)
(2.99883 1.47028e-05 0)
(2.99711 5.17892e-05 0)
(2.99265 4.56638e-05 0)
(2.98156 0.000209287 0)
(2.95205 0.000156596 0)
(3 1.92588e-13 0)
(3 5.69123e-13 0)
(3 3.39203e-12 0)
(3 5.41247e-12 0)
(3 2.40974e-11 0)
(3 3.38942e-11 0)
(3 1.42689e-10 0)
(3 1.90437e-10 0)
(3 7.83553e-10 0)
(3 1.07533e-09 0)
(3 4.04547e-09 0)
(3 6.42827e-09 0)
(3 1.97595e-08 0)
(3 3.86767e-08 0)
(3 9.05384e-08 0)
(2.99999 2.491e-07 0)
(2.99997 3.58212e-07 0)
(2.99993 1.5891e-06 0)
(2.99981 1.1742e-06 0)
(2.99954 1.01519e-05 0)
(2.99884 1.32184e-06 0)
(2.99711 6.06848e-05 0)
(2.99273 -3.60761e-06 0)
(2.98158 0.00027989 0)
(2.95215 0.00015217 0)
(3 5.01933e-14 0)
(3 4.27515e-13 0)
(3 1.46231e-12 0)
(3 4.35545e-12 0)
(3 1.0349e-11 0)
(3 2.735e-11 0)
(3 6.25737e-11 0)
(3 1.5765e-10 0)
(3 3.63611e-10 0)
(3 9.06923e-10 0)
(3 2.11419e-09 0)
(3 5.24511e-09 0)
(3 1.23944e-08 0)
(3 3.06314e-08 0)
(3 7.38881e-08 0)
(2.99999 1.82571e-07 0)
(2.99997 4.44672e-07 0)
(2.99993 1.09328e-06 0)
(2.99982 2.67652e-06 0)
(2.99954 6.48389e-06 0)
(2.99887 1.53754e-05 0)
(2.99711 3.76834e-05 0)
(2.99283 8.7043e-05 0)
(2.98168 0.000213778 0)
(2.95259 0.00049666 0)
(3 2.82293e-14 0)
(3 3.40146e-13 0)
(3 5.77969e-13 0)
(3 3.5494e-12 0)
(3 4.60378e-12 0)
(3 2.05234e-11 0)
(3 3.74153e-11 0)
(3 9.96588e-11 0)
(3 2.88409e-10 0)
(3 4.85452e-10 0)
(3 2.04941e-09 0)
(3 2.34433e-09 0)
(3 1.38537e-08 0)
(3 1.30249e-08 0)
(3 8.81994e-08 0)
(2.99999 7.51006e-08 0)
(2.99997 5.56308e-07 0)
(2.99993 4.93477e-07 0)
(2.99982 3.25728e-06 0)
(2.99955 3.47769e-06 0)
(2.99887 1.93902e-05 0)
(2.99717 2.49857e-05 0)
(2.99287 0.000105036 0)
(2.98192 0.000178582 0)
(2.95299 0.000547704 0)
(3 6.72905e-14 0)
(3 -2.02301e-14 0)
(3 9.38142e-13 0)
(3 -1.07153e-13 0)
(3 6.25074e-12 0)
(3 1.96825e-12 0)
(3 3.42809e-11 0)
(3 2.51327e-11 0)
(3 1.68019e-10 0)
(3 2.97777e-10 0)
(3 7.64104e-10 0)
(3 2.60021e-09 0)
(3 3.72409e-09 0)
(3 2.01575e-08 0)
(3 1.71743e-08 0)
(2.99999 1.48074e-07 0)
(2.99997 8.529e-08 0)
(2.99993 9.93671e-07 0)
(2.99982 3.25875e-07 0)
(2.99955 6.60969e-06 0)
(2.99889 1.67462e-06 0)
(2.99718 4.00815e-05 0)
(2.99296 2.22251e-05 0)
(2.98206 0.000204844 0)
(2.95341 0.000274788 0)
(3 2.46765e-14 0)
(3 -3.66625e-14 0)
(3 4.06943e-13 0)
(3 -4.41205e-13 0)
(3 2.6508e-12 0)
(3 -1.56727e-12 0)
(3 1.24204e-11 0)
(3 3.39761e-12 0)
(3 4.49011e-11 0)
(3 1.04495e-10 0)
(3 1.24179e-10 0)
(3 1.09571e-09 0)
(3 3.2136e-10 0)
(3 8.44213e-09 0)
(3 9.53432e-10 0)
(2.99999 6.38605e-08 0)
(2.99997 3.76184e-09 0)
(2.99993 4.18787e-07 0)
(2.99982 7.55791e-09 0)
(2.99955 2.8214e-06 0)
(2.9989 -7.36309e-07 0)
(2.99718 1.70197e-05 0)
(2.99301 2.63625e-06 0)
(2.98213 8.0242e-05 0)
(2.95367 8.94928e-05 0)
(1.20192 1.03712 0)
(1.3448 0.776861 0)
(0.749742 0.428498 0)
(-0.0835663 0.332524 0)
(-0.246258 0.0389586 0)
(-0.449495 0.00328291 0)
(-0.596313 -0.0170486 0)
(-0.660758 -0.0198345 0)
(-0.697348 0.000534893 0)
(-0.742336 0.0191187 0)
(-0.801502 0.0232859 0)
(-0.859489 0.0198798 0)
(-0.909409 0.0135208 0)
(-0.954927 0.00890214 0)
(-1.00164 0.00738103 0)
(-1.05024 0.00697278 0)
(-1.09816 0.0067877 0)
(-1.14226 0.00624555 0)
(-1.18127 0.00488398 0)
(-1.2182 0.00305835 0)
(-1.25734 0.00259611 0)
(-1.29092 0.00494775 0)
(-1.31028 0.0052857 0)
(-1.31935 0.00413854 0)
(-1.31977 0.00245305 0)
(-1.30271 -0.000124949 0)
(-1.26077 -0.00426798 0)
(-1.19782 -0.00954895 0)
(-1.12007 -0.0148088 0)
(-1.03471 -0.0189628 0)
(-0.946975 -0.0218917 0)
(-0.859811 -0.0237911 0)
(-0.774798 -0.0249684 0)
(-0.692934 -0.0256556 0)
(-0.615254 -0.0259531 0)
(-0.541851 -0.0260289 0)
(-0.47206 -0.0263455 0)
(-0.405617 -0.0269648 0)
(-0.341032 -0.0282514 0)
(-0.278807 -0.0291863 0)
(-0.219062 -0.0292063 0)
(-0.161634 -0.029293 0)
(-0.106322 -0.0295623 0)
(-0.0529693 -0.0306944 0)
(0.00150753 -0.0293649 0)
(0.0529372 -0.0261705 0)
(0.10043 -0.0243327 0)
(0.145753 -0.0231304 0)
(0.188874 -0.0220542 0)
(0.230326 -0.0211179 0)
(0.270017 -0.0201524 0)
(0.307234 -0.0191419 0)
(0.343341 -0.0184479 0)
(0.380305 -0.0181877 0)
(0.417077 -0.0177325 0)
(0.452309 -0.0169658 0)
(0.486245 -0.0162062 0)
(0.519074 -0.0155047 0)
(0.551038 -0.0149055 0)
(0.582169 -0.0143382 0)
(0.612552 -0.0137987 0)
(0.642225 -0.0132793 0)
(0.671226 -0.0127857 0)
(0.699582 -0.0123105 0)
(0.727338 -0.0118542 0)
(0.754522 -0.011417 0)
(0.781162 -0.0109968 0)
(0.807287 -0.0105907 0)
(0.832929 -0.0101994 0)
(0.85811 -0.0098206 0)
(0.882854 -0.00945397 0)
(0.907184 -0.00909645 0)
(0.931122 -0.008749 0)
(0.954685 -0.00840862 0)
(0.977892 -0.0080758 0)
(1.00075 -0.00774814 0)
(1.02329 -0.00742567 0)
(1.0455 -0.00710695 0)
(1.0674 -0.00679169 0)
(1.08898 -0.00647906 0)
(1.11025 -0.00616904 0)
(1.13122 -0.00586164 0)
(1.15187 -0.00555689 0)
(1.1722 -0.00525517 0)
(1.19221 -0.00495594 0)
(1.2119 -0.00465936 0)
(1.23126 -0.00436445 0)
(1.25027 -0.00407073 0)
(1.26893 -0.0037763 0)
(1.2872 -0.00347929 0)
(1.30506 -0.00317577 0)
(1.32244 -0.00286182 0)
(1.33926 -0.00252912 0)
(1.35541 -0.00217286 0)
(1.37071 -0.00177522 0)
(1.38492 -0.00131865 0)
(1.39764 -0.000810499 0)
(1.40844 -0.000230481 0)
(1.41637 0.000465089 0)
(1.42219 0.00126125 0)
(1.26837 0.942988 0)
(1.37978 0.648177 0)
(1.16641 0.388821 0)
(0.701574 0.382652 0)
(0.579453 0.316905 0)
(0.438647 0.238946 0)
(0.243308 0.177157 0)
(0.065427 0.10548 0)
(-0.16629 0.0500693 0)
(-0.299001 0.0550839 0)
(-0.415476 0.0511325 0)
(-0.496844 0.0437631 0)