/*--------------------------------*- C++ -*----------------------------------*\
  =========                 |
  \\      /  F ield         | OpenFOAM: The Open Source CFD Toolbox
   \\    /   O peration     | Website:  https://openfoam.org
    \\  /    A nd           | Version:  9
     \\/     M anipulation  |
\*---------------------------------------------------------------------------*/
FoamFile
{
    format      ascii;
    class       surfaceScalarField;
    location    "0.25";
    object      alphaPhi0.phase1;
}
// * * * * * * * * * * * * * * * * * * * * * * * * * * * * * * * * * * * * * //

dimensions      [0 3 -1 0 0 0 0];

internalField   nonuniform List<scalar> 
19800
(
1.0358489e-102
-1.2875785e-101
6.1802415e-102
-1.8350026e-101
1.3497274e-99
-7.4850815e-100
2.5120378e-97
-1.0669984e-97
4.0023239e-95
-1.3614487e-95
5.6545344e-93
-1.5874459e-93
7.2937689e-91
-1.7362319e-91
8.7391129e-89
-1.7879585e-89
9.6735444e-87
-1.7192141e-87
9.952932e-85
-1.564428e-85
9.8693237e-83
-1.3549911e-83
8.6427475e-81
-9.625533e-82
4.5654586e-79
-3.7810799e-80
6.3363434e-78
-4.94569e-79
3.0094876e-77
-2.4022574e-78
8.3515133e-77
-6.8385192e-78
1.8544573e-76
-1.418941e-77
4.0959177e-76
-4.1398502e-77
2.0371666e-76
-2.7071538e-77
1.4982833e-76
-2.5395741e-77
1.5058248e-76
-6.3217824e-77
1.5098186e-76
-6.265265e-77
9.3083347e-76
-3.9028484e-77
1.4937117e-73
-4.917005e-75
1.5493864e-71
-4.6410356e-73
1.4192612e-69
-2.0081581e-71
1.5930152e-67
-2.081868e-69
2.1974928e-65
-2.7568578e-67
4.3144e-63
-4.4812622e-65
2.4219996e-60
-2.6390167e-62
5.6648636e-59
-3.9143549e-61
1.3431617e-58
-3.9413345e-62
2.6990451e-57
1.979955e-59
9.6512107e-57
1.4563232e-58
1.7540162e-55
3.6532486e-57
5.4309746e-54
1.5641262e-55
1.5358277e-52
5.8731699e-54
3.8896883e-51
1.9134246e-52
8.7274949e-50
5.4185119e-51
1.7055522e-48
1.3208125e-49
2.8327109e-47
2.7216717e-48
3.920439e-46
4.6718677e-47
4.5066296e-45
6.6842042e-46
4.2665429e-44
7.9612853e-45
3.1602796e-43
7.5811613e-44
1.7349663e-42
5.5194692e-43
7.0706628e-42
3.1246183e-42
2.0807482e-41
1.3998131e-41
3.7534148e-41
4.6948948e-41
1.8818582e-41
1.1252986e-40
-1.4842673e-41
1.1366357e-40
-1.3418216e-41
4.8259289e-41
-5.1216057e-42
1.4190796e-41
-1.232711e-42
3.0495256e-42
-1.9371098e-43
4.8839417e-43
-1.7553409e-44
5.5003705e-44
-7.8293576e-46
3.7307269e-45
-1.5347618e-47
1.2886555e-46
-1.2248155e-49
2.0059647e-48
-6.2313023e-52
1.2905132e-50
-6.3538006e-55
5.3132763e-53
-4.5866931e-58
4.3734098e-56
-5.1795455e-61
2.5334848e-59
-1.3456131e-60
4.5168142e-62
-5.6666435e-60
8.338188e-62
-5.3522675e-59
9.3088567e-61
-1.0269852e-58
2.4854843e-60
-9.6370942e-59
2.1265763e-60
-1.7076033e-59
5.8432382e-61
-8.5100643e-61
-4.1476169e-62
-1.7192919e-63
-6.7375524e-63
-2.1299165e-65
-2.2526571e-65
-2.3427942e-67
-3.7734281e-67
-1.8001358e-69
-2.8997533e-69
-1.3336968e-71
-2.4656433e-71
-1.3755389e-73
-3.0772469e-73
-7.9447113e-76
-4.3881329e-75
-3.2057221e-76
-3.9330398e-77
-3.2780908e-76
-2.2065558e-76
-3.3650769e-76
-2.1987786e-76
-5.3741123e-76
-3.485045e-77
-8.098513e-76
-6.4097766e-77
-3.8626347e-76
-8.1534511e-77
-1.7598409e-76
-2.9711162e-77
-6.2375351e-77
-1.4398876e-77
-1.356163e-77
-4.9882105e-78
-1.1255819e-78
-1.0675249e-78
-2.5118834e-80
-9.2875551e-80
-3.2369187e-82
-2.7015408e-81
-3.4749003e-84
-4.3425982e-83
-3.3314186e-86
-5.4151467e-85
-2.8589753e-88
-6.0033372e-87
-2.2038517e-90
-5.945325e-89
-1.5131084e-92
-5.3686357e-91
-9.1589965e-95
-4.3901482e-93
-4.8115944e-97
-3.2269451e-95
-2.1141146e-99
-2.1210593e-97
-7.678919e-102
-1.2145272e-99
-1.0628515e-102
-1.9920203e-101
-1.2734732e-101
7.3131247e-102
-2.5178392e-101
2.8804186e-99
-3.3126584e-99
6.0472599e-97
-5.3144134e-97
1.0234302e-94
-7.2589455e-95
1.4988162e-92
-8.9052213e-93
1.9564951e-90
-9.9997022e-91
2.366716e-88
-1.0602109e-88
2.651467e-86
-1.0558429e-86
2.7375802e-84
-9.7992551e-85
2.6949603e-82
-8.792619e-83
2.4542274e-80
-7.4762836e-81
1.4788001e-78
-4.356358e-79
2.0214787e-77
-6.0454691e-78
9.4829867e-77
-2.8507028e-77
2.3667928e-76
-7.4210676e-77
5.1143134e-76
-1.4312933e-76
1.5146483e-75
-3.7949245e-76
4.0739727e-75
-9.7168397e-76
7.6989508e-75
-2.3453561e-75
5.8421091e-75
-1.9032317e-75
9.8815057e-76
-5.8979015e-76
5.1968719e-76
-1.1322353e-76
1.1326411e-74
-1.2689978e-75
5.9863043e-73
-5.2817423e-74
3.4305319e-71
-2.4905591e-72
5.7312481e-69
-2.0521215e-69
2.0862796e-66
-1.9756633e-66
6.8486524e-64
-6.4236844e-64
3.1419591e-62
-2.4985957e-62
4.2872033e-60
-9.3722943e-62
6.6026011e-59
-4.3630396e-61
2.436912e-58
1.0438326e-60
3.8898075e-55
9.2344061e-57
2.5555909e-54
1.1257237e-55
5.641391e-53
3.5098647e-54
1.6715749e-51
1.4162415e-52
4.4913597e-50
4.9782582e-51
1.0782405e-48
1.5188682e-49
2.2834034e-47
4.016386e-48
4.1984037e-46
9.125312e-47
6.5664647e-45
1.7556121e-45
8.5609471e-44
2.8167648e-44
9.159963e-43
3.7297164e-43
7.8752941e-42
4.0239772e-42
5.0875055e-41
3.3631856e-41
2.1597323e-40
1.9550143e-40
5.3527992e-40
7.140125e-40
8.2966211e-40
1.7053157e-39
9.5541273e-40
3.5507493e-39
3.8852326e-40
6.1540586e-39
-3.8124558e-40
6.2143432e-39
-5.4341637e-40
3.6463572e-39
-3.9977588e-40
1.7516818e-39
-1.6540592e-40
7.1830643e-40
-3.4002063e-41
1.8640103e-40
-3.374363e-42
2.6463589e-41
-1.6634821e-43
1.9535937e-42
-3.7614683e-45
7.5022219e-44
-4.004641e-47
1.3574064e-45
-1.7860886e-49
1.1739883e-47
-2.1819225e-52
4.2725051e-50
-9.4003617e-56
4.2596313e-53
-1.652219e-58
1.4886666e-56
-5.5561877e-58
4.1838782e-59
-1.1463564e-56
5.6526587e-58
-3.593369e-56
2.9198048e-57
-3.434572e-56
3.8393496e-57
-1.0754956e-58
1.8726176e-57
-1.9551493e-59
9.7170651e-61
-1.1993257e-60
1.1148851e-63
-2.0179086e-62
-1.3428629e-62
-1.5533259e-64
-7.5827187e-64
-1.4974464e-66
-1.0717479e-65
-1.384047e-68
-1.2800811e-66
-5.2384345e-71
-1.2622646e-68
-5.0389185e-73
-3.941608e-72
-9.6853705e-75
-4.2016349e-74
-1.9021897e-75
-1.1982021e-75
-5.4042342e-75
-4.4571332e-76
-1.7237563e-74
-2.4388638e-75
-1.6517923e-74
-4.8177554e-75
-8.0315353e-75
-4.7664717e-75
-3.1962981e-75
-1.8377192e-75
-1.0948903e-75
-7.7734924e-76
-5.1408327e-76
-3.019973e-76
-1.9711763e-76
-1.6000206e-76
-4.2982989e-77
-5.8880784e-77
-3.6543374e-78
-1.2937451e-77
-7.3714718e-80
-1.0832715e-78
-8.999812e-82
-2.2560052e-80
-9.504428e-84
-2.9480533e-82
-8.7811077e-86
-3.4116152e-84
-7.3337204e-88
-3.5041676e-86
-5.4715215e-90
-3.2915799e-88
-3.5951889e-92
-2.8004093e-90
-2.061693e-94
-2.137385e-92
-9.9263662e-97
-1.4625844e-94
-3.7288088e-99
-8.7456114e-97
-7.3109523e-102
-4.2568383e-99
-2.5059519e-101
2.6680372e-99
-1.1380835e-98
1.0818083e-96
-1.6051054e-96
2.2653234e-94
-2.5192185e-94
3.8362701e-92
-3.4436587e-92
5.6344334e-90
-4.2325116e-90
7.3902035e-88
-4.7683053e-88
8.9977028e-86
-5.0841218e-86
1.0166333e-83
-5.1011081e-84
1.0613086e-81
-4.7793531e-82
1.0670986e-79
-4.3496885e-80
1.0201353e-77
-3.7973953e-78
6.5267942e-76
-2.2862855e-76
9.1347043e-75
-3.2332702e-75
4.041172e-74
-1.4878929e-74
1.0448816e-73
-3.9678887e-74
2.1536668e-73
-7.5251866e-74
6.8479319e-73
-2.1134793e-73
1.8531298e-72
-5.5334115e-73
3.0062285e-72
-1.1362778e-72
2.2204744e-72
-9.1006706e-73
3.9399226e-73
-2.8951189e-73
2.0051282e-73
-5.9265909e-74
5.7659163e-72
-8.2606745e-73
2.602846e-70
-3.2845343e-71
1.2508785e-68
-1.4194424e-69
4.5378346e-66
-4.3314006e-66
1.9883177e-63
-1.2579776e-63
1.0489311e-60
-8.0266782e-62
6.8463147e-59
-3.9806799e-60
1.7967203e-57
-6.3962841e-59
8.2229688e-57
-9.8196902e-59
1.4008597e-55
1.4367139e-57
4.1707601e-52
1.5183517e-53
1.2364489e-51
8.0946324e-53
1.2699505e-50
1.0658104e-51
3.5144135e-49
3.8645009e-50
9.1588887e-48
1.3085739e-48
2.1264127e-46
3.842374e-47
4.346078e-45
9.7618529e-46
7.7001531e-44
2.1281539e-44
1.1597935e-42
3.9276005e-43
1.4570009e-41
6.0500421e-42
1.50408e-40
7.7012559e-41
1.2513099e-39
8.0122299e-40
7.898346e-39
6.5182399e-39
3.3396953e-38
3.7562676e-38
8.3994454e-38
1.3889342e-37
1.3155751e-37
3.377198e-37
1.5089353e-37
7.0162453e-37
6.224785e-38
1.2596572e-36
-6.1112699e-38
1.27277e-36
-8.6540782e-38
7.2024623e-37
-6.2890978e-38
3.4646792e-37
-2.5640765e-38
1.3971267e-37
-5.318856e-39
3.5855458e-38
-5.5264306e-40
5.1670851e-39
-2.9770387e-41
4.0124849e-40
-7.7575904e-43
1.6900577e-41
-9.9114464e-45
3.5354962e-43
-5.4657263e-47
3.6815577e-45
-1.0002268e-49
1.6638664e-47
-8.0282372e-53
2.4972759e-50
-3.0242038e-55
1.6397665e-53
-1.0282174e-54
9.9006654e-56
-1.4220733e-53
1.0730783e-54
-3.5851942e-53
4.2663732e-54
-3.308456e-53
5.0701805e-54
-7.8599166e-57
2.3426363e-54
-2.4706623e-57
2.2344648e-58
-3.1671468e-58
1.1855148e-59
-1.9892555e-59
-6.3573661e-60
-2.3963479e-61
-8.1587008e-61
-1.7898421e-63
-1.4895772e-62
-1.2127733e-65
-1.6854929e-64
-3.2910075e-68
-1.1702604e-65
-2.05278e-70
-2.8016988e-68
-4.9743549e-72
-2.613971e-71
-7.7226593e-73
-7.6509772e-73
-2.140182e-72
-2.2301935e-73
-6.6412141e-72
-1.1475251e-72
-6.3666763e-72
-2.2862331e-72
-3.4519013e-72
-2.3096516e-72
-1.311113e-72
-1.0075634e-72
-4.4158745e-73
-4.0452459e-73
-2.2045435e-73
-1.554159e-73
-8.2346398e-74
-8.3566811e-74
-1.900982e-74
-3.0162804e-74
-1.5826111e-75
-6.7743589e-75
-3.0237308e-77
-5.5891554e-76
-3.5154083e-79
-1.12912e-77
-3.6226522e-81
-1.4359572e-79
-3.3063406e-83
-1.6343058e-81
-2.7353403e-85
-1.6612353e-83
-2.0264899e-87
-1.5472816e-85
-1.3252808e-89
-1.3085335e-87
-7.5835193e-92
-9.9635605e-90
-3.6482622e-94
-6.8430793e-92
-1.3739595e-96
-3.9809401e-94
-2.62324e-99
-2.0372997e-96
-1.1152495e-98
6.8938733e-97
-3.5575921e-96
3.0356589e-94
-5.4310127e-94
6.226854e-92
-8.3121312e-92
1.0524584e-89
-1.1444895e-89
1.5465697e-87
-1.4043482e-87
2.0321695e-85
-1.583523e-85
2.4846443e-83
-1.692884e-83
2.8265305e-81
-1.7095961e-81
2.9774457e-79
-1.6153896e-79
3.0246061e-77
-1.4843218e-77
2.9290305e-75
-1.3112081e-75
1.9105638e-73
-8.0380673e-74
2.7163705e-72
-1.1513331e-72
1.2167545e-71
-5.3687526e-72
3.1995717e-71
-1.4504675e-71
6.6834229e-71
-2.780234e-71
2.2289415e-70
-8.0695926e-71
6.020597e-70
-2.1810842e-70
8.9053525e-70
-4.0445179e-70
6.5179331e-70
-3.210017e-70
1.2681943e-70
-1.052025e-70
7.0653006e-71
-2.4853633e-71
2.3937767e-69
-4.0305383e-70
1.1388764e-67
-1.6921099e-68
6.0939892e-66
-7.8768833e-67
3.0930466e-63
-4.4686432e-64
2.0056581e-60
-2.1455239e-61
7.4777737e-58
-7.8560531e-59
4.5188248e-56
-4.6081679e-57
1.0448809e-54
-3.9612856e-56
5.9042022e-54
-7.4957589e-56
1.5607924e-52
1.9937689e-54
3.5921012e-49
1.8448833e-50
6.1124293e-49
5.7101345e-50
2.4008317e-48
2.701411e-49
5.7938535e-47
7.6975974e-48
1.4597106e-45
2.5056451e-46
3.2668889e-44
7.0840151e-45
6.4230375e-43
1.7292996e-43
1.0934498e-41
3.6178863e-42
1.5814592e-40
6.4023424e-41
1.9068333e-39
9.4511056e-40
1.890901e-38
1.1540889e-38
1.5165674e-37
1.1557539e-37
9.3158916e-37
9.1298e-37
3.8960158e-36
5.1874902e-36
9.8332886e-36
1.9210704e-35
1.5397285e-35
4.6828307e-35
1.7459935e-35
9.5905171e-35
7.2637511e-36
1.7477423e-34
-7.1274646e-36
1.7667334e-34
-1.014503e-35
9.8401622e-35
-7.3675272e-36
4.7979208e-35
-2.9930891e-36
1.9314468e-35
-6.3071798e-37
4.952985e-36
-6.8841204e-38
7.2783979e-37
-4.0588756e-39
5.9526782e-38
-1.2197676e-40
2.748699e-39
-1.8581114e-42
6.6390947e-41
-1.2053389e-44
8.2500625e-43
-3.5892352e-47
4.3939964e-45
-5.4885836e-50
1.075222e-47
-5.9338986e-52
1.3562397e-50
-1.8629374e-51
2.3387108e-52
-1.5288038e-50
1.6998033e-51
-2.79368e-50
4.7631381e-51
-2.2430592e-50
4.7904079e-51
-8.789448e-54
1.734517e-51
-1.9596887e-54
2.9603311e-55
-1.9378519e-55
1.2755487e-56
-1.2616748e-56
-4.517627e-57
-1.614211e-58
-5.7182607e-58
-1.5536726e-60
-1.0792228e-59
-1.0686369e-62
-1.4070695e-61
-2.0395247e-65
-1.2908177e-63
-9.2443491e-68
-1.4366792e-65
-2.1114518e-69
-1.3609759e-68
-2.4007184e-70
-3.7058631e-70
-6.1816308e-70
-8.4912677e-71
-1.9259994e-69
-3.9400953e-70
-1.8654515e-69
-7.9678022e-70
-1.1224633e-69
-8.1778588e-70
-4.1466537e-70
-3.9488998e-70
-1.3554673e-70
-1.5151562e-70
-6.6318722e-71
-5.6769692e-71
-2.4336041e-71
-2.9979897e-71
-5.5520205e-72
-1.0668375e-71
-4.5653816e-73
-2.3722198e-72
-8.5594932e-75
-1.9358826e-73
-9.808311e-77
-3.8425421e-75
-9.9781313e-79
-4.8218606e-77
-9.0156815e-81
-5.4215702e-79
-7.3987849e-83
-5.4586162e-81
-5.4546003e-85
-5.0487111e-83
-3.5614344e-87
-4.2628144e-85
-2.0363931e-89
-3.2609149e-87
-9.743506e-92
-2.1725652e-89
-3.8075555e-94
-1.3130395e-91
-6.6567948e-97
-6.7931568e-94
-3.4263013e-96
1.4036072e-94
-8.49126e-94
6.5889786e-92
-1.3773747e-91
1.3503142e-89
-2.1531559e-89
2.2693022e-87
-2.8408695e-87
3.3323313e-85
-3.558601e-85
4.3802627e-83
-4.0022367e-83
5.3653683e-81
-4.2832644e-81
6.1357693e-79
-4.3382093e-79
6.5147598e-77
-4.1304319e-77
6.6790741e-75
-3.8290896e-75
6.5475998e-73
-3.422274e-73
4.3631126e-71
-2.1408647e-71
6.3001125e-70
-3.1085744e-70
2.8729147e-69
-1.4701806e-69
7.697507e-69
-4.0531068e-69
1.6313324e-68
-7.860069e-69
5.5814448e-68
-2.3341496e-68
1.529703e-67
-6.4825036e-68
2.1409249e-67
-1.1369506e-67
1.5528037e-67
-8.9225608e-68
3.3087292e-68
-3.0127792e-68
2.0130759e-68
-8.2148212e-69
7.7868318e-67
-1.5077853e-67
3.912254e-65
-6.6862783e-66
2.3004143e-63
-3.5027205e-64
2.0584932e-60
-3.3996304e-61
9.6555882e-58
-1.7817414e-58
3.3297159e-55
-6.1991004e-56
1.8281788e-53
-3.7042817e-54
4.48499e-52
-3.304417e-53
3.3126434e-51
-5.238839e-53
1.3364848e-49
1.783025e-51
1.8305866e-46
1.0431333e-47
2.8990962e-46
3.3308717e-47
5.0839829e-46
7.9297914e-47
7.8491641e-45
1.2154064e-45
1.8929898e-43
3.7218195e-44
4.0708208e-42
1.0117198e-42
7.6748554e-41
2.3692965e-41
1.2513634e-39
4.7474887e-40
1.7324412e-38
8.040203e-39
1.9991378e-37
1.1356567e-37
1.8986176e-36
1.3275601e-36
1.4629442e-35
1.2763868e-35
8.7164368e-35
9.7676353e-35
3.5924936e-34
5.4581239e-34
9.0519413e-34
2.0162043e-33
1.409425e-33
4.9037395e-33
1.5741776e-33
9.8775782e-33
6.5775875e-34
1.8128404e-32
-6.4601547e-34
1.833254e-32
-9.2930037e-34
1.0128919e-32
-6.7812256e-34
5.0162389e-33
-2.7586534e-34
2.0245361e-33
-5.9199559e-35
5.2054623e-34
-6.7900956e-36
7.8099519e-35
-4.389318e-37
6.7242705e-36
-1.5154552e-38
3.4072929e-37
-2.7153209e-40
9.4551794e-39
-2.2289719e-42
1.3818963e-40
-9.0703687e-45
9.3182259e-43
-2.9808993e-47
3.1178955e-45
-8.7557064e-49
8.6000345e-48
-2.5228794e-48
3.958317e-49
-1.3932237e-47
2.0351271e-48
-1.8042987e-47
4.2395605e-48
-9.4329637e-48
3.534321e-48
-7.8924551e-51
7.1214668e-49
-1.2141992e-51
2.8719143e-52
-8.4884667e-53
7.6812634e-54
-5.6244107e-54
-3.896121e-54
-7.116272e-56
-2.834775e-55
-6.9919213e-58
-5.3483982e-57
-5.5445518e-60
-6.9517393e-59
-1.3873105e-62
-7.5324926e-61
-3.3902907e-65
-2.8344219e-63
-7.0087884e-67
-5.5059041e-66
-6.0031782e-68
-1.3806797e-67
-1.4660473e-67
-2.2930527e-68
-4.5219513e-67
-1.089784e-67
-4.4409845e-67
-2.1913982e-67
-2.8599926e-67
-2.272135e-67
-1.0295839e-67
-1.1796919e-67
-3.2769012e-68
-4.3384099e-68
-1.569585e-68
-1.5871601e-68
-5.6433786e-69
-8.2184547e-69
-1.2677744e-69
-2.8740797e-69
-1.0276064e-70
-6.3061595e-70
-1.8874435e-72
-5.0810686e-71
-2.1320196e-74
-9.891024e-73
-2.141742e-76
-1.2243143e-74
-1.9174293e-78
-1.3598473e-76
-1.562988e-80
-1.3583565e-78
-1.1487377e-82
-1.2537684e-80
-7.4884526e-85
-1.0532541e-82
-4.2430991e-87
-7.8245711e-85
-2.1203906e-89
-5.3016576e-87
-8.1209324e-92
-3.3753255e-89
-1.3308802e-94
-1.6932563e-91
-8.0330597e-94
2.3538379e-92
-1.6311448e-91
1.1611469e-89
-2.7745601e-89
2.4575472e-87
-4.4718422e-87
4.0073051e-85
-5.8394203e-85
5.8934933e-83
-7.0557319e-83
7.7471804e-81
-8.1157593e-81
9.5038175e-79
-8.720583e-79
1.0902943e-76
-8.8462451e-77
1.1654331e-74
-8.449986e-75
1.204562e-72
-7.8940824e-73
1.195227e-70
-7.1340729e-71
8.1555527e-69
-4.5656024e-69
1.197636e-67
-6.7304264e-68
5.5570812e-67
-3.2282185e-67
1.5258781e-66
-9.1138e-67
3.2820236e-66
-1.7942444e-66
1.1471055e-65
-5.4324405e-66
3.18378e-65
-1.5547636e-65
4.3124672e-65
-2.6035014e-65
3.1163555e-65
-2.0530689e-65
7.2492456e-66
-7.1193354e-66
4.7996828e-66
-2.2276255e-66
2.0665287e-64
-4.5264487e-65
1.0949771e-62
-2.125399e-63
7.2178593e-61
-1.2966872e-61
7.7952188e-58
-2.2459189e-58
3.1963341e-55
-1.2034222e-55
7.2358482e-53
-2.147169e-53
2.5167581e-51
-9.9563125e-53
1.6124402e-49
-4.9674178e-50
1.470676e-48
-3.0445687e-50
8.9117149e-47
1.0430548e-48
4.6707688e-44
2.2762963e-45
1.3222083e-43
1.7108262e-44
1.684492e-43
3.2620846e-44
9.3611172e-43
1.7397588e-43
2.0583675e-41
4.4829471e-42
4.238704e-40
1.1670323e-40
7.6323351e-39
2.6152982e-39
1.1876701e-37
5.0070559e-38
1.5684277e-36
8.0944247e-37
1.7257371e-35
1.0904769e-35
1.5633229e-34
1.216137e-34
1.1529309e-33
1.1187991e-33
6.639169e-33
8.265437e-33
2.6879714e-32
4.5286065e-32
6.7417322e-32
1.664282e-31
1.0414276e-31
4.0285117e-31
1.1438505e-31
7.9706444e-31
4.7803949e-32
1.4662589e-30
-4.7255585e-32
1.4833615e-30
-6.8741893e-32
8.1683218e-31
-5.0502205e-32
4.1134305e-31
-2.0618334e-32
1.6684781e-31
-4.5119209e-33
4.309874e-32
-5.4428303e-34
6.6095776e-33
-3.8637818e-35
5.9953667e-34
-1.5308448e-36
3.3384737e-35
-3.1873287e-38
1.0623499e-36
-3.2918432e-40
1.8026623e-38
-1.762087e-42
1.5287048e-40
-8.6704248e-45
6.727785e-43
-7.4370804e-46
2.9189172e-45
-2.4981605e-45
3.7216377e-46
-9.7381526e-45
1.8302071e-45
-9.9045536e-45
2.9043614e-45
-2.8630713e-45
2.0493694e-45
-5.5960271e-48
2.148219e-46
-5.9424935e-49
2.0622519e-49
-2.3858659e-50
2.3026264e-51
-1.8920578e-51
-1.057414e-51
-2.3715544e-53
-1.0609732e-52
-2.2596165e-55
-1.9740625e-54
-1.8285358e-57
-2.5551004e-56
-4.7286607e-60
-4.7372816e-58
-9.7175995e-63
-1.3581471e-60
-1.8949888e-64
-1.787517e-63
-1.1859259e-65
-4.1524092e-65
-2.9698586e-65
-5.1826549e-66
-8.9334112e-65
-2.4976568e-65
-8.8585921e-65
-4.9591796e-65
-5.9861512e-65
-5.1770713e-65
-2.0998627e-65
-2.8320501e-65
-6.5266807e-66
-1.0002642e-65
-3.0585861e-66
-3.5803295e-66
-1.0750674e-66
-1.8149472e-66
-2.3732701e-67
-6.222152e-67
-1.8935537e-68
-1.3447502e-67
-3.4006948e-70
-1.0681741e-68
-3.7850548e-72
-2.0350907e-70
-3.7552567e-74
-2.483468e-72
-3.3346784e-76
-2.7300786e-74
-2.7009006e-78
-2.7200734e-76
-1.9717242e-80
-2.4611356e-78
-1.2709793e-82
-2.0225507e-80
-7.4759246e-85
-1.5080986e-82
-3.7917826e-87
-1.0995204e-84
-1.4053324e-89
-6.8886877e-87
-2.190913e-92
-3.3505531e-89
-1.5153578e-91
3.3506819e-90
-2.6140373e-89
1.7204472e-87
-4.6213312e-87
3.7329874e-85
-7.6275789e-85
6.1837379e-83
-1.0203417e-82
8.7614015e-81
-1.1858268e-80
1.1564491e-78
-1.3362915e-78
1.4215095e-76
-1.4473094e-76
1.6387903e-74
-1.496367e-74
1.760851e-72
-1.4434706e-72
1.8323928e-70
-1.3544337e-70
1.8399156e-68
-1.2351096e-68
1.2890848e-66
-8.0949002e-67
1.9278892e-65
-1.2141121e-65
9.1063429e-65
-5.9082287e-65
2.5654078e-64
-1.7053664e-64
5.6223162e-64
-3.4332352e-64
1.9981378e-63
-1.0542874e-63
5.6432216e-63
-3.123184e-63
7.4080294e-63
-5.0158429e-63
5.4646237e-63
-4.0027497e-63
1.3671177e-63
-1.4190407e-63
9.8127761e-64
-5.0938286e-64
4.6087561e-62
-1.126779e-62
2.5741424e-60
-5.5909374e-61
1.8557075e-58
-3.6799931e-59
1.6978243e-55
-3.51928e-56
3.9107026e-53
-3.4323388e-54
4.2239883e-51
-2.4671493e-52
6.0389877e-50
-5.7653103e-51
2.2011183e-47
-6.3101321e-49
5.2615006e-46
-1.4376304e-47
4.9112905e-44
3.7467233e-46
2.5280857e-42
1.0706702e-43
5.4887474e-41
7.9438394e-42
6.0225499e-41
1.3569384e-41
1.1270661e-40
2.8610559e-41
1.9155308e-39
4.5438983e-40
3.7634299e-38
1.1181554e-38
6.4443467e-37
2.3900265e-37
9.526755e-36
4.3568292e-36
1.1949537e-34
6.6996474e-35
1.248786e-33
8.5810502e-34
1.0741918e-32
9.0931943e-33
7.545873e-32
7.9678606e-32
4.1812704e-31
5.6588386e-31
1.6575323e-30
3.0300784e-30
4.1292518e-30
1.1053874e-29
6.3191292e-30
2.6589471e-29
6.8169348e-30
5.1629968e-29
2.8432162e-30
9.484509e-29
-2.8329396e-30
9.5997103e-29
-4.1741093e-30
5.2878269e-29
-3.091708e-30
2.7097129e-29
-1.2683299e-30
1.1059376e-29
-2.8334308e-31
2.8729624e-30
-3.6015521e-32
4.50825e-31
-2.8131555e-33
4.3160301e-32
-1.2719919e-34
2.6451924e-33
-3.0319153e-36
9.5939866e-35
-3.7947265e-38
1.8608115e-36
-2.7262822e-40
1.9103547e-38
-1.8630729e-42
1.1283821e-40
-5.4473392e-43
8.0158659e-43
-1.8636417e-42
2.9346183e-43
-5.0001343e-42
1.2364172e-42
-4.8529795e-42
1.5853498e-42
-7.7578721e-43
9.0983368e-43
-3.1011087e-45
5.7885927e-44
-2.327113e-46
1.0806921e-46
-1.8816975e-48
-1.9097129e-49
-4.8392601e-49
-4.1090165e-50
-6.3752526e-51
-7.5578028e-50
-5.8369611e-53
-6.0411039e-52
-4.134863e-55
-1.184627e-53
-7.3693214e-58
-1.4160115e-55
-2.319902e-60
-8.4289051e-59
-4.2863436e-62
-4.8126332e-61
-2.1591739e-63
-1.0400123e-62
-5.2059376e-63
-1.0903777e-63
-1.5196574e-62
-4.8424834e-63
-1.5181373e-62
-9.5040923e-63
-1.062897e-62
-9.9745303e-63
-3.6274147e-63
-5.6921286e-63
-1.1051225e-63
-1.9233715e-63
-5.062874e-64
-6.7633526e-64
-1.7362667e-64
-3.3478699e-64
-3.7621198e-65
-1.1229702e-64
-2.9512157e-66
-2.388764e-65
-5.1708106e-68
-1.8676059e-66
-5.6676512e-70
-3.4750798e-68
-5.5553028e-72
-4.1867029e-70
-4.8899656e-74
-4.571746e-72
-3.9041559e-76
-4.4147036e-74
-2.8372613e-78
-3.9473615e-76
-1.8841667e-80
-3.2627066e-78
-1.1545983e-82
-2.5944189e-80
-5.6559111e-85
-1.9034726e-82
-2.0439253e-87
-1.1540223e-84
-3.0608658e-90
-5.4797077e-87
-2.3842312e-89
4.1393785e-88
-3.5867616e-87
2.1977385e-85
-6.5491514e-85
4.8664579e-83
-1.1022006e-82
8.2783527e-81
-1.5125134e-80
1.1641672e-78
-1.7828168e-78
1.4865981e-76
-1.8973768e-76
1.8210451e-74
-2.0415035e-74
2.117682e-72
-2.1068397e-72
2.297876e-70
-2.0650441e-70
2.4043869e-68
-1.9631703e-68
2.4451899e-66
-1.8330948e-66
1.7643583e-64
-1.226512e-64
2.6917511e-63
-1.873934e-63
1.2944932e-62
-9.2585486e-63
3.7417275e-62
-2.7345504e-62
8.3843152e-62
-5.6335839e-62
3.0156934e-61
-1.7509961e-61
8.684819e-61
-5.3656278e-61
1.1116536e-60
-8.3351185e-61
8.3638052e-61
-6.7236806e-61
2.2560296e-61
-2.4293793e-61
1.7533409e-61
-1.0193275e-61
8.8331128e-60
-2.3796455e-60
5.1695669e-58
-1.2398358e-58
3.6924446e-56
-7.5269178e-57
1.1255854e-53
-1.2471219e-54
8.5257992e-52
-8.7519371e-53
5.1421849e-50
-6.5178705e-51
1.1284938e-47
-1.3246265e-47
2.4385413e-46
-1.4330032e-47
1.5273764e-43
-5.7106749e-45
2.4954495e-41
1.3051486e-44
1.3090387e-40
5.4330893e-42
2.1553916e-38
2.7669906e-39
2.2622714e-38
5.671737e-39
2.0903744e-38
7.3928098e-39
1.5546038e-37
4.1732887e-38
2.8870413e-36
9.0683395e-37
4.6853965e-35
1.8423384e-35
6.5499686e-34
3.1861719e-34
7.766455e-33
4.6415139e-33
7.6680899e-32
5.6256096e-32
6.2309132e-31
5.6370396e-31
4.146364e-30
4.6804392e-30
2.1992379e-29
3.1790169e-29
8.5063249e-29
1.6575229e-28
2.1009074e-28
5.9911769e-28
3.1807378e-28
1.4304488e-27
3.3649989e-28
2.7228351e-27
1.398352e-28
4.9763026e-27
-1.4043833e-28
5.039467e-27
-2.1008393e-28
2.7866932e-27
-1.5706381e-28
1.4544853e-27
-6.48029e-29
5.9771633e-28
-1.4806842e-29
1.5624683e-28
-1.9888893e-30
2.5132908e-29
-1.706489e-31
2.5465815e-30
-8.7000831e-33
1.7141352e-31
-2.3530263e-34
6.9969111e-33
-3.5636467e-36
1.5371155e-34
-3.5514473e-38
1.9076236e-36
-3.4760567e-40
1.5667179e-38
-3.6064212e-40
2.464984e-40
-1.1243626e-39
2.0954235e-40
-2.1610471e-39
6.6686546e-40
-1.7515329e-39
7.0680175e-40
-1.782317e-40
2.7964161e-40
-1.3344416e-42
1.2827037e-41
-7.5044043e-44
4.0209277e-44
-3.9844794e-47
-6.4672174e-46
-7.6004413e-47
-3.431271e-48
-1.5059996e-48
-4.9394092e-47
-1.2654071e-50
-3.6867059e-49
-2.9526681e-53
-5.8631429e-51
-4.2515321e-56
-2.6389494e-54
-4.7078798e-58
-7.5866385e-57
-8.2966397e-60
-1.0720572e-58
-3.6491373e-61
-2.2105088e-60
-8.0208285e-61
-2.0433652e-61
-2.2637963e-60
-8.1092293e-61
-2.2762785e-60
-1.5745385e-60
-1.6403883e-60
-1.6595104e-60
-5.4269177e-61
-9.7842135e-61
-1.6271824e-61
-3.1640545e-61
-7.2835066e-62
-1.0960734e-61
-2.4327361e-62
-5.2960216e-62
-5.1698906e-63
-1.7351561e-62
-3.9839467e-64
-3.6293666e-63
-6.7924966e-66
-2.7919052e-64
-7.3267033e-68
-5.0745953e-66
-7.0728073e-70
-6.0272722e-68
-6.1074903e-72
-6.3076431e-70
-4.8978879e-74
-6.0784738e-72
-3.6523246e-76
-5.4872956e-74
-2.5401866e-78
-4.7279982e-76
-1.5172575e-80
-3.8890551e-78
-7.2358275e-83
-2.7702819e-80
-2.5618308e-85
-1.6370677e-82
-3.7102508e-88
-7.6223123e-85
-3.2110388e-87
4.5132027e-86
-4.2967675e-85
2.4662188e-83
-8.0665459e-83
5.5557462e-81
-1.3802764e-80
9.6585765e-79
-1.9342208e-78
1.3966936e-76
-2.3418336e-76
1.7364416e-74
-2.5005097e-74
2.0855902e-72
-2.5577018e-72
2.3904469e-70
-2.6080466e-70
2.6053506e-68
-2.5474546e-68
2.7480575e-66
-2.4256032e-66
2.8464115e-64
-2.2898515e-64
2.1293645e-62
-1.6213447e-62
3.3164524e-61
-2.5249992e-61
1.6254587e-60
-1.2676516e-60
4.8277387e-60
-3.8434176e-60
1.1028966e-59
-8.0742938e-60
4.0126734e-59
-2.5398797e-59
1.1774867e-58
-8.0267773e-59
1.4787336e-58
-1.2150006e-58
1.1296138e-58
-9.8725178e-59
3.3227088e-59
-3.668893e-59
2.7894467e-59
-1.7724129e-59
1.4815415e-57
-4.3570663e-58
9.0224549e-56
-2.3615503e-56
5.9509405e-54
-1.3556941e-54
5.0475075e-52
-9.9626967e-53
5.588657e-50
-9.781085e-51
9.2148621e-48
-1.399864e-48
1.6856498e-45
-1.3535246e-46
5.0729886e-44
-4.2684019e-45
3.6743123e-41
-1.8265028e-42
8.6815875e-39
-3.6553465e-40
3.6612547e-38
1.2447688e-39
5.7486181e-36
5.2381552e-37
9.2637856e-36
2.2799166e-36
6.495231e-36
2.3147485e-36
1.2309859e-35
4.4918637e-36
1.9305324e-34
6.3621447e-35
2.9640855e-33
1.2144777e-33
3.8988059e-32
1.9845158e-32
4.3491411e-31
2.7276648e-31
4.0363626e-30
3.1136428e-30
3.0792923e-29
2.9331348e-29
1.9271813e-28
2.2915379e-28
9.7170754e-28
1.4780746e-27
3.6484468e-27
7.464265e-27
8.9076926e-27
2.6655543e-26
1.3299805e-26
6.2998242e-26
1.3749898e-26
1.1713267e-25
5.6870952e-27
2.1233218e-25
-5.7563746e-27
2.1516445e-25
-8.7759242e-27
1.1977018e-25
-6.6417974e-27
6.3878035e-26
-2.7611475e-27
2.6490895e-26
-6.4712499e-28
6.9791843e-27
-9.2312566e-29
1.1542427e-27
-8.7110463e-30
1.2439608e-28
-4.9743449e-31
9.2041022e-30
-1.5225276e-32
4.1988065e-31
-2.8251732e-34
1.0419811e-32
-4.0357162e-36
1.5833135e-34
-1.1051383e-37
1.8874587e-36
-1.4137658e-37
8.1234543e-38
-5.9104975e-37
1.3582356e-37
-7.329449e-37
2.9106044e-37
-2.9894203e-37
2.4014152e-37
-2.0453359e-38
3.6604217e-38
-4.6922769e-40
1.3466666e-39
-1.9557314e-41
1.0544492e-41
-9.8479821e-45
-3.7890829e-43
-7.3998437e-45
-7.642078e-46
-3.2849762e-46
-5.546969e-46
-1.1041647e-48
-1.9623393e-46
-6.1656259e-52
-9.548548e-50
-6.3523767e-54
-1.0815634e-52
-8.2101144e-56
-1.3833672e-54
-1.40148e-57
-2.0496937e-56
-5.4853173e-59
-4.0697193e-58
-1.0955322e-58
-3.3726924e-59
-2.9920605e-58
-1.1908692e-58
-3.0263698e-58
-2.2903433e-58
-2.2271631e-58
-2.4228031e-58
-7.1491576e-59
-1.4626286e-58
-2.1149495e-59
-4.540456e-59
-9.2646902e-60
-1.553206e-59
-3.0096721e-60
-7.3396636e-60
-6.2659912e-61
-2.342035e-60
-4.7438076e-62
-4.8123457e-61
-7.8455106e-64
-3.6432193e-62
-8.2874416e-66
-6.4359137e-64
-7.7845603e-68
-7.3320863e-66
-6.8112901e-70
-7.6217775e-68
-5.5676556e-72
-7.4344442e-70
-4.3091023e-74
-6.8291368e-72
-2.9904347e-76
-6.217238e-74
-1.7365825e-78
-5.0144378e-76
-8.1027996e-81
-3.4766926e-78
-2.8195083e-83
-2.01177e-80
-3.9680429e-86
-9.2121712e-83
-3.7747772e-85
4.4005406e-84
-4.5626528e-83
2.4663882e-81
-8.777978e-81
5.6406713e-79
-1.5240703e-78
9.9887505e-77
-2.174222e-76
1.4779534e-74
-2.691337e-74
1.8875761e-72
-2.9526965e-72
2.1954566e-70
-2.9828759e-70
2.4714412e-68
-2.9270935e-68
2.6595646e-66
-2.8294806e-66
2.7935245e-64
-2.681394e-64
2.9005663e-62
-2.5320089e-62
2.2983418e-60
-1.8997974e-60
3.6566948e-59
-3.0180661e-59
1.828335e-58
-1.54072e-58
5.589056e-58
-4.8066238e-58
1.2972738e-57
-1.0270224e-57
4.7723299e-57
-3.2649011e-57
1.4247077e-56
-1.0612872e-56
1.7633351e-56
-1.5739651e-56
1.3603807e-56
-1.2859356e-56
4.3969307e-57
-4.924706e-57
3.9121669e-57
-2.6933466e-57
2.2183974e-55
-7.083229e-56
1.3984861e-53
-3.9807554e-54
9.201713e-52
-2.3274813e-52
8.0665291e-50
-1.8055384e-50
9.5375597e-48
-1.9338578e-48
1.3974082e-45
-2.6201261e-46
2.7434535e-43
-1.1982515e-43
1.3890983e-41
-1.7096142e-42
7.2431133e-39
-4.4884264e-40
1.2631889e-36
-3.9717582e-38
9.6362323e-36
1.879282e-37
8.8495208e-34
6.0109611e-35
2.9728961e-33
6.8921318e-34
1.9212261e-33
7.9339907e-34
1.5254821e-33
7.3247508e-34
1.1345334e-32
4.0825735e-33
1.6450236e-31
6.930763e-32
2.0282696e-30
1.0654886e-30
2.1155735e-29
1.3742494e-29
1.8344223e-28
1.4691043e-28
1.3050189e-27
1.2927007e-27
7.6128882e-27
9.4200758e-27
3.6115738e-26
5.7098487e-26
1.3063096e-25
2.7697442e-25
3.1397558e-25
9.7326729e-25
4.6010351e-25
2.2686925e-24
4.6290397e-25
4.0993609e-24
1.9134265e-25
7.39094e-24
-1.9420138e-25
7.496612e-24
-3.0296992e-25
4.1863592e-24
-2.3311821e-25
2.2918271e-24
-9.79177e-26
9.6206801e-25
-2.3667768e-26
2.5604846e-25
-3.6183531e-27
4.3796465e-26
-3.7696301e-28
5.0674898e-27
-2.4033609e-29
4.1356539e-28
-8.3579451e-31
2.1012048e-29
-1.9682833e-32
5.9163056e-31
-4.3946858e-34
1.1422603e-32
-3.4924434e-35
2.2158545e-34
-7.0778274e-35
2.6149164e-35
-2.3388471e-34
6.9255721e-35
-2.3166032e-34
1.0381804e-34
-3.4060832e-36
6.4524232e-35
-7.3736782e-37
3.7640859e-37
-1.4938397e-37
4.8004031e-38
-4.0955898e-39
1.8162191e-39
-2.9352546e-42
-1.3696274e-40
-1.1143321e-43
-5.3831082e-43
-1.7915421e-44
-1.3764534e-44
-1.6049991e-47
-1.3540411e-45
-9.3751155e-50
-2.0373057e-48
-1.0369985e-51
-1.928093e-50
-1.2781163e-53
-2.4959642e-52
-2.1054429e-55
-3.4830429e-54
-7.4111548e-57
-6.6329827e-56
-1.3401626e-56
-4.9637571e-57
-3.5449232e-56
-1.5511664e-56
-3.6063241e-56
-2.9615486e-56
-2.6946721e-56
-3.1435614e-56
-8.404212e-57
-1.9301133e-56
-2.4590532e-57
-5.7703172e-57
-1.0568676e-57
-1.9538646e-57
-3.3336799e-58
-9.0481581e-58
-6.792401e-59
-2.8052676e-58
-5.0525563e-60
-5.6580415e-59
-8.0301523e-62
-4.2144409e-60
-8.2496773e-64
-7.0435689e-62
-7.843344e-66
-7.940512e-64
-6.9629086e-68
-8.3548594e-66
-5.8295674e-70
-8.2482125e-68
-4.6070103e-72
-8.0029896e-70
-3.1033964e-74
-7.2142335e-72
-1.7609204e-76
-5.6543536e-74
-8.0659094e-79
-3.8337705e-76
-2.7644214e-81
-2.1790773e-78
-3.7937035e-84
-9.833509e-81
-3.9325527e-83
3.8776183e-82
-4.3469627e-81
2.2235512e-79
-8.5495331e-79
5.1550709e-77
-1.5040641e-76
9.2774729e-75
-2.1795822e-74
1.3998973e-72
-2.749916e-72
1.8315085e-70
-3.0883311e-70
2.1619885e-68
-3.1905325e-68
2.3688512e-66
-3.0548688e-66
2.5111296e-64
-2.8812215e-64
2.6252024e-62
-2.7220231e-62
2.7236859e-60
-2.5665926e-60
2.2426984e-58
-2.0021341e-58
3.649481e-57
-3.2417424e-57
1.86276e-56
-1.6839324e-56
5.8642888e-56
-5.4063952e-56
1.3801246e-55
-1.173726e-55
5.1250046e-55
-3.7645866e-55
1.5544209e-54
-1.2551675e-54
1.9021704e-54
-1.8311136e-54