/*--------------------------------*- C++ -*----------------------------------*\
  =========                 |
  \\      /  F ield         | OpenFOAM: The Open Source CFD Toolbox
   \\    /   O peration     | Website:  https://openfoam.org
    \\  /    A nd           | Version:  9
     \\/     M anipulation  |
\*---------------------------------------------------------------------------*/
FoamFile
{
    format      ascii;
    class       volScalarField;
    location    "0.25";
    object      alpha.phase1;
}
// * * * * * * * * * * * * * * * * * * * * * * * * * * * * * * * * * * * * * //

dimensions      [0 0 0 0 0 0 0];

internalField   nonuniform List<scalar> 
10000
(
6.2800591e-99
6.2800591e-99
5.8778373e-97
1.10549e-94
1.7236698e-92
2.3577802e-90
2.9004122e-88
3.3395154e-86
3.5714397e-84
3.4867692e-82
3.3607608e-80
3.2466025e-78
2.1108873e-76
3.1686641e-75
1.618375e-74
4.7520709e-74
1.0019175e-73
3.0163533e-73
1.8802914e-73
1.0021717e-73
9.7886796e-74
9.7886796e-74
3.3819974e-73
4.6083665e-71
4.710565e-69
4.238604e-67
4.6607326e-65
6.2933474e-63
1.2499268e-60
7.1474645e-58
2.1070137e-56
5.0556175e-56
9.427951e-55
3.4386185e-54
5.6424413e-53
1.774614e-51
5.2194702e-50
1.3875332e-48
3.3008729e-47
6.9205886e-46
1.2504076e-44
1.912536e-43
2.4749467e-42
2.7042527e-41
2.3939823e-40
1.6409635e-39
8.8539948e-39
3.8259732e-38
1.2521224e-37
2.9611183e-37
2.981763e-37
1.275974e-37
3.8224329e-38
8.4625295e-39
1.4125622e-39
1.6779035e-40
1.2151318e-41
4.538406e-43
7.738827e-45
5.531195e-47
2.5699977e-49
2.4291395e-52
1.6489583e-55
3.5583255e-58
7.440755e-58
1.1838005e-56
4.4703349e-56
6.2372917e-56
4.5927978e-56
5.4511472e-57
2.5477844e-58
5.0256253e-61
6.2594381e-63
6.8986079e-65
5.329544e-67
4.0200219e-69
4.2200119e-71
3.4768242e-73
2.0584724e-73
2.0584724e-73
2.3210276e-73
4.4903647e-73
5.8888856e-73
2.0727554e-73
9.8676235e-74
3.30506e-74
6.7450459e-75
5.2176155e-76
9.7914932e-78
1.1320801e-79
1.220819e-81
1.1871664e-83
1.0478849e-85
8.2570172e-88
5.7562474e-90
3.519482e-92
1.8205272e-94
7.5418055e-97
6.2975215e-99
6.2975215e-99
8.0729605e-99
6.9021339e-97
1.1960891e-94
1.7364168e-92
2.2268233e-90
2.5818277e-88
2.8037796e-86
2.8311624e-84
2.6381912e-82
2.2558808e-80
1.4810268e-78
5.0147711e-77
6.1775621e-76
7.7037373e-75
1.8114254e-74
5.6778453e-74
1.3219394e-73
3.458024e-73
2.075777e-72
1.9592757e-72
6.3883449e-73
1.3308403e-73
1.1154728e-72
8.3250138e-71
6.5700828e-69
5.5438826e-68
4.4661524e-66
1.775593e-63
4.6850989e-61
1.1220848e-57
2.2126679e-56
8.1711067e-56
1.2233918e-52
8.3218473e-52
1.7704725e-50
5.3608738e-49
1.495863e-47
3.7632184e-46
8.4363408e-45
1.6616225e-43
2.8231651e-42
4.0645856e-41
4.8991461e-40
4.8759817e-39
3.807332e-38
2.0933921e-37
7.3241624e-37
1.6990972e-36
3.4788857e-36
5.9933021e-36
6.032385e-36
3.5387437e-36
1.7169882e-36
7.1994397e-37
1.9364257e-37
2.8851782e-38
2.2622847e-39
9.3379343e-41
1.8385783e-42
1.7536443e-44
7.1498748e-47
8.1148724e-50
3.2962489e-53
9.823635e-56
1.8056977e-54
1.2194304e-53
2.1890147e-53
1.6358381e-53
3.4675464e-56
6.3721568e-57
3.4345491e-58
3.9729153e-60
8.5416321e-63
1.0357168e-65
4.1374047e-68
2.8576548e-69
7.4459303e-71
1.2283518e-72
5.1343571e-73
2.8424719e-72
5.003292e-72
4.2034431e-72
8.7867255e-73
4.0609169e-73
1.3108977e-73
4.326905e-74
1.6225089e-74
1.4776555e-75
1.2739241e-76
4.2252519e-78
7.2846419e-80
9.1599828e-82
9.4849201e-84
8.906948e-86
7.4717454e-88
5.542689e-90
3.6132427e-92
2.0121017e-94
9.0315664e-97
8.0860398e-99
3.9541369e-96
3.3500591e-94
5.7867635e-92
8.4983336e-90
1.1029758e-87
1.3006045e-85
1.4389449e-83
1.4831744e-81
1.4195452e-79
1.3253008e-77
1.1798701e-75
6.9896993e-74
1.032543e-72
5.1472317e-72
1.4524485e-71
3.0403953e-71
8.4563273e-71
2.3904519e-70
8.3524479e-70
7.6722489e-70
2.5741227e-70
4.0192414e-71
5.4411133e-70
2.5860419e-68
1.2970426e-66
5.5168897e-66
9.6864545e-63
1.5015103e-58
1.3635683e-56
4.848498e-55
2.5039387e-54
4.1082706e-53
1.4261164e-49
4.4335487e-49
4.0398779e-48
1.1059788e-46
2.9855209e-45
7.2531718e-44
1.5669764e-42
2.9694226e-41
4.8510103e-40
6.7199497e-39
7.8034492e-38
7.5024788e-37
5.7088535e-36
3.1128244e-35
1.1010918e-34
2.5880459e-34
5.2523209e-34
9.3066231e-34
9.3701947e-34
5.3365952e-34
2.6094912e-34
1.080885e-34
2.8786486e-35
4.3505859e-36
3.582352e-37
1.61844e-38
3.6760188e-40
4.2117415e-42
2.1259048e-44
3.6202867e-47
2.7493056e-50
1.8107844e-52
2.6022122e-51
1.3332901e-50
2.1429216e-50
1.4801026e-50
2.6993463e-54
8.6910803e-55
8.8784031e-56
4.529092e-57
4.1920075e-59
1.4469524e-61
1.4383448e-65
8.0291817e-68
2.2891643e-68
5.8335253e-70
2.1893773e-70
1.1695065e-69
1.9927711e-69
1.6920504e-69
4.2780518e-70
1.735732e-70
6.2174089e-71
3.1274501e-71
1.049539e-71
2.1633929e-72
1.6717894e-73
3.4064685e-75
4.2975769e-77
4.8708735e-79
4.8906519e-81
4.4890009e-83
3.6914552e-85
2.6918816e-87
1.7359661e-89
9.449481e-92
4.1758377e-94
3.8918918e-96
1.1147953e-93
1.2438841e-91
1.8059258e-89
2.6765355e-87
3.5006391e-85
4.1502211e-83
4.6392594e-81
4.8415431e-79
4.6977122e-77
4.4493666e-75
4.021586e-73
2.4190005e-71
3.6120254e-70
1.7781897e-69
5.0302247e-69
1.0431233e-68
3.2569849e-68
9.2390984e-68
2.4796215e-67
2.2608384e-67
7.8964866e-68
1.4980368e-68
2.5628694e-67
1.2737723e-65
6.7798996e-64
5.4752436e-62
2.8204697e-58
1.4244746e-55
1.0333005e-53
2.7919743e-52
1.7272746e-51
4.4295857e-50
1.3942759e-46
2.5372335e-46
8.3053843e-46
1.7850292e-44
4.6314341e-43
1.0830167e-41
2.2477906e-40
4.0880337e-39
6.4061371e-38
8.508938e-37
9.4829112e-36
8.7797666e-35
6.4896181e-34
3.4894841e-33
1.2362076e-32
2.9126789e-32
5.8257766e-32
1.0474171e-31
1.0548039e-31
5.9127217e-32
2.9303713e-32
1.2114597e-32
3.2229484e-33
4.9649442e-34
4.3033307e-35
2.1299909e-36
5.5817163e-38
7.6261885e-40
4.5323808e-42
1.257723e-44
1.8339538e-47
3.5808332e-49
3.347209e-48
1.1991503e-47
1.6298609e-47
8.7690628e-48
2.7948199e-51
6.3893352e-52
5.4011808e-53
2.9878467e-54
3.2264125e-56
2.5628295e-58
1.1550535e-60
9.2456791e-65
1.1382876e-65
2.6259818e-67
7.0287245e-68
3.3381735e-67
5.8039329e-67
5.0480762e-67
1.6122414e-67
6.0828532e-68
2.1086047e-68
1.0493217e-68
3.5274047e-69
7.3540224e-70
5.7025032e-71
1.1443526e-72
1.4209987e-74
1.5847208e-76
1.5681193e-78
1.4204413e-80
1.1559662e-82
8.3917189e-85
5.3090897e-87
2.5803246e-89
1.5676374e-91
1.0774146e-93
2.4072291e-91
3.1624367e-89
4.1801971e-87
6.1754125e-85
8.2070673e-83
9.7824453e-81
1.0973506e-78
1.1554651e-76
1.1336499e-74
1.0867553e-72
9.9363911e-71
6.0595471e-69
9.0925711e-68
4.5457448e-67
1.2877406e-66
2.6759843e-66
8.6335823e-66
2.5597505e-65
5.9798809e-65
5.3684918e-65
1.9433126e-65
4.4029574e-66
8.9249558e-65
4.6700125e-63
2.7150621e-61
2.7315676e-58
1.7754211e-55
7.722537e-53
4.7655206e-51
1.159589e-49
9.1944484e-49
3.6727048e-47
6.8823657e-44
1.2715074e-43
2.0803201e-43
2.3902493e-42
5.8131269e-41
1.3033072e-39
2.5896699e-38
4.5040311e-37
6.7471104e-36
8.5674387e-35
9.1351404e-34
8.1159021e-33
5.8086385e-32
3.0704069e-31
1.084564e-30
2.5485786e-30
5.011889e-30
9.0730719e-30
9.1390444e-30
5.0811776e-30
2.5577548e-30
1.0602349e-30
2.8285673e-31
4.4498742e-32
4.0612845e-33
2.2063699e-34
6.6448142e-36
1.0683357e-37
8.0431479e-40
3.0562148e-42
9.7617282e-45
5.2025426e-46
3.3922561e-45
9.0170587e-45
1.0211778e-44
3.0767123e-45
2.3479262e-48
3.6908437e-49
2.3314923e-50
1.333534e-51
1.461533e-53
1.2778143e-55
9.0811041e-58
2.0516041e-60
4.1554776e-63
8.9732e-65
1.806315e-65
7.7137988e-65
1.3610058e-64
1.2012415e-64
4.4471974e-65
1.590014e-65
5.343613e-66
2.6206218e-66
8.7588372e-67
1.8211557e-67
1.4059141e-68
2.7832121e-70
3.4144079e-72
3.7583095e-74
3.6765132e-76
3.3019353e-78
2.6705203e-80
1.9056095e-82
1.0581349e-84
6.6080836e-87
3.9140051e-89
2.2850123e-91
4.2082187e-89
6.1321997e-87
8.8784467e-85
1.0615446e-82
1.5068258e-80
1.8271767e-78
2.0681579e-76
2.1820721e-74
2.1591773e-72
2.0927569e-70
1.9342481e-68
1.194951e-66
1.807705e-65
9.1224325e-65
2.6418042e-64
5.4943712e-64
1.8264819e-63
5.5106107e-63
1.2093329e-62
1.064911e-62
3.9846036e-63
1.0645241e-63
2.4485881e-62
1.3476779e-60
9.4559098e-59
1.5268586e-55
7.6706263e-53
1.8993432e-50
6.7595109e-49
4.3310512e-47
3.8816152e-46
2.3711943e-44
1.40748e-41
5.8694773e-41
7.579499e-41
3.0014845e-40
6.1010424e-39
1.3032946e-37
2.4685959e-36
4.0906564e-35
5.8365547e-34
7.0571066e-33
7.1684687e-32
6.0865234e-31
4.2011293e-30
2.1752521e-29
7.6378278e-29
1.7850199e-28
3.4462464e-28
6.2513803e-28
6.2981598e-28
3.4898125e-28
1.7865947e-28
7.4455727e-29
1.996734e-29
3.2131272e-30
3.0919652e-31
1.8474405e-32
6.3874199e-34
1.1941514e-35
1.1326576e-37
5.6732335e-40
2.8613744e-42
4.2619601e-43
2.6614774e-42
5.4116086e-42
5.2356301e-42
8.3303157e-43
1.5728028e-45
1.6933615e-46
6.5763572e-48
4.4092241e-49
4.8354852e-51
4.2590291e-53
3.6406914e-55
1.0278398e-57
1.235664e-60
2.4202683e-62
3.1809146e-63
1.5321169e-62
2.6644199e-62
2.3746086e-62
9.7047979e-63
3.3201289e-63
1.0827194e-63
5.2220898e-64
1.7270828e-64
3.5605973e-65
2.7269031e-66
5.3290834e-68
6.4643408e-70
7.0352321e-72
6.8285573e-74
6.0662547e-76
4.6997282e-78
2.951655e-80
1.8562313e-82
1.3783646e-84
7.4553244e-87
3.9238829e-89
6.1743844e-87
9.6751864e-85
1.4791036e-82
1.7731098e-80
2.0820647e-78
2.7396985e-76
3.1927964e-74
3.429761e-72
3.4082507e-70
3.3334805e-68
3.110163e-66
1.9451118e-64
2.9722447e-63
1.5155798e-62
4.4832428e-62
9.4507951e-62
3.2109446e-61
1.0034153e-60
2.0572825e-60
1.8340805e-60
7.0316612e-61
2.1788451e-61
5.5070663e-60
3.2105015e-58
2.7320058e-56
4.1863651e-53
1.028246e-50
1.1492529e-48
1.3521871e-47
5.7799591e-45
1.2804814e-43
1.2730093e-41
6.6035079e-40
2.5520163e-38
2.881255e-38
4.4504308e-38
5.5154581e-37
1.105921e-35
1.9874557e-34
3.1230633e-33
4.2256069e-32
4.8461997e-31
4.6683635e-30
3.7692681e-29
2.4973319e-28
1.2619705e-27
4.3931221e-27
1.019271e-26
1.9298189e-26
3.4942152e-26
3.5212893e-26
1.9518415e-26
1.0171787e-26
4.2682392e-27
1.1521855e-27
1.8991712e-28
1.9312258e-29
1.2717989e-30
5.020143e-32
1.0751058e-33
1.2378168e-35
8.3456486e-38
6.9333273e-40
2.9998041e-40
1.6042021e-39
2.6680242e-39
2.1243706e-39
2.1077655e-40
8.2881136e-43
6.2190345e-44
5.5365139e-46
1.2098229e-46
1.258669e-48
1.1500553e-50
1.0226357e-52
1.7877045e-55
2.9945614e-58
5.4263489e-60
5.2731284e-61
2.6034864e-60
4.4659087e-60
4.0084233e-60
1.7568535e-60
5.7668109e-61
1.8313774e-61
8.6519568e-62
2.8242969e-62
5.7616652e-63
4.3641143e-64
8.4222043e-66
1.0107987e-67
1.0914493e-69
1.0434594e-71
8.607645e-74
6.1009506e-76
4.0068332e-78
3.3394878e-80
2.2557787e-82
1.1554615e-84
5.6559163e-87
7.8005766e-85
1.2905463e-82
2.0475202e-80
2.598332e-78
2.7328775e-76
3.1829571e-74
3.8552768e-72
4.4352065e-70
4.5770852e-68
4.514965e-66
4.2723196e-64
2.6958578e-62
4.176025e-61
2.1510108e-60
6.4506561e-60
1.4029466e-59
4.8242998e-59
1.5716206e-58
3.0416996e-58
2.7501281e-58
1.0711998e-58
3.8736007e-59
1.0406891e-57
6.3952357e-56
5.5346635e-54
2.7173526e-51
1.9777055e-49
9.6334258e-48
2.5105053e-45
5.1284213e-44
3.4545058e-41
6.8302332e-39
3.5752021e-38
8.6788015e-36
1.1352096e-35
1.0610151e-35
4.6034941e-35
8.0808989e-34
1.3707282e-32
2.0329952e-31
2.5960026e-30
2.8089859e-29
2.5527198e-28
1.9491005e-27
1.2327572e-26
6.0555887e-26
2.0854006e-25
4.7963682e-25
8.8941601e-25
1.6012951e-24
1.6141837e-24
8.9831127e-25
4.7704311e-25
2.0172822e-25
5.4863658e-26
9.2830492e-27
1.0005969e-27
7.24988e-29
3.2277162e-30
7.8503865e-32
1.0961087e-33
1.0315851e-35
1.9167778e-37
1.948712e-37
7.8866735e-37
1.101751e-36
6.168159e-37
4.5976619e-38
3.4075088e-40
1.8765613e-41
1.814896e-44
3.6741229e-44
2.9650913e-46
2.9575017e-48
7.4897816e-51
6.9234937e-54
6.0998724e-56
1.0282657e-57
8.7040834e-59
3.850086e-58
6.527623e-58
5.8981678e-58
2.7498346e-58
8.557664e-59
2.6659157e-59
1.2256511e-59
3.9431762e-60
7.9601125e-61
5.9455442e-62
1.1344011e-63
1.3479312e-65
1.420099e-67
1.2363324e-69
9.7962001e-72
7.1216893e-74
6.0257852e-76
4.8037625e-78
3.0672523e-80
1.5139478e-82
7.0200818e-85
8.6491731e-83
1.4931558e-80
2.4348776e-78
3.2115925e-76
3.5859046e-74
3.4286379e-72
3.982352e-70
4.5698549e-68
4.9602655e-66
5.0672663e-64
5.052446e-62
3.2556178e-60
5.1112298e-59
2.6620687e-58
8.1168889e-58
1.8163698e-57
6.3235668e-57
2.1435776e-56
3.9711289e-56
3.6303098e-56
1.4334188e-56
6.2550301e-57
1.6745145e-55
1.0740917e-53
7.9156931e-52
7.2144968e-50
8.6134892e-48
1.6201854e-45
2.6952159e-43
8.4876983e-42
7.8886772e-39
2.3176953e-36
9.866083e-36
1.6821266e-33
4.4323415e-33
3.1298346e-33
4.5884468e-33
5.1813542e-32
8.1869282e-31
1.1400313e-29
1.3673269e-28
1.3888132e-27
1.1833805e-26
8.4823464e-26
5.0841073e-25
2.4140355e-24
8.1979227e-24
1.8635412e-23
3.3719364e-23
6.0169164e-23
6.0675022e-23
3.3998972e-23
1.8459363e-23
7.8858137e-24
2.1647312e-24
3.7721921e-25
4.3323207e-26
3.4575435e-27
1.7246918e-28
4.7530539e-30
8.1551765e-32
1.1194047e-33
5.6853197e-35
1.1724524e-34
3.1984477e-34
3.5495805e-34
8.2294456e-35
5.0527946e-36
1.1508231e-37
4.588066e-39
3.3931306e-42
2.9731933e-42
7.8264973e-44
2.7303836e-46
9.6396065e-50
8.4412214e-52
1.0147604e-53
1.6626526e-55
1.2700635e-56
5.0286274e-56
8.4341983e-56
7.6629187e-56
3.7387732e-56
1.1066498e-56
3.388994e-57
1.5167716e-57
4.7990069e-58
9.5759534e-59
7.0594095e-60
1.3328085e-61
1.5303869e-63
1.4370941e-65
1.2520128e-67
9.9876531e-70
8.523989e-72
7.7556886e-74
5.8306821e-76
3.5824217e-78
1.7205843e-80
7.6470939e-83
8.5414007e-81
1.5265148e-78
2.5434052e-76
3.4523142e-74
4.0120167e-72
4.039816e-70
3.8357727e-68
4.2546922e-66
4.6108235e-64
4.7158993e-62
4.7553846e-60
3.4840261e-58
5.5374336e-57
2.9184074e-56
9.1060063e-56
2.083325e-55
7.3527941e-55
2.5852405e-54
4.631645e-54
4.2589761e-54
1.7349234e-54
8.6781936e-55
2.3332759e-53
1.540324e-51
1.0764996e-49
1.0117854e-47
1.3968487e-45
2.6195821e-43
2.1649869e-42
1.872398e-39
1.4683486e-36
3.0839114e-34
2.3456224e-33
2.1728122e-31
1.3484368e-30
1.0368079e-30
7.022752e-31
3.0736798e-30
4.277149e-29
5.5619856e-28
6.2277367e-27
5.9023466e-26
4.6844089e-25
3.1242017e-24
1.7557187e-23
7.9892303e-23
2.6631521e-22
5.9572201e-22
1.0457575e-21
1.8539455e-21
1.8706959e-21
1.0521426e-21
5.8703217e-22
2.5428538e-22
7.0656733e-23
1.2758608e-23
1.5760996e-24
1.3905013e-25
7.7462948e-27
2.430154e-28
5.3182069e-30
1.1953672e-31
1.6707046e-32
5.5870402e-32
1.0831115e-31
9.2602281e-32
8.7493194e-34
2.0272954e-34
3.7946863e-35
8.9988928e-37
5.2447744e-40
2.4486059e-41
4.6660688e-42
3.1890448e-45
1.2567311e-47
1.2866803e-49
1.4666669e-51
2.334042e-53
1.6563516e-54
5.8592685e-54
9.7378601e-54
8.8915673e-54
4.484075e-54
1.2660542e-54
3.823447e-55
1.6726248e-55
5.1719398e-56
1.0194694e-56
7.4256745e-58
1.3430736e-59
1.3983321e-61
1.3126858e-63
1.1471637e-65
9.6930692e-68
9.9653215e-70
8.5193808e-72
6.1539826e-74
3.6749876e-76
1.7277882e-78
7.4191203e-81
7.6009292e-79
1.3985206e-76
2.3716183e-74
3.2923379e-72
3.9420297e-70
4.1389466e-68
3.8982919e-66
3.6927863e-64
3.9159271e-62
3.9970085e-60
4.0363876e-58
3.3456265e-56
5.3777884e-55
2.8700828e-54
9.1923483e-54
2.145469e-53
7.6562047e-53
2.7899412e-52
4.8713811e-52
4.5024471e-52
1.8849864e-52
1.0497972e-52
2.8609907e-51
1.9379289e-49
1.3846224e-47
1.4079415e-45
2.0521893e-43
3.3408458e-41
2.125802e-40
3.1364378e-37
2.2712564e-34
6.0056059e-33
4.8660277e-31
3.6689403e-30
3.1279922e-28
3.1130497e-28
1.4417088e-28
2.0845031e-28
1.9809505e-27
2.3743606e-26
2.4667993e-25
2.1674212e-24
1.5902293e-23
9.7739046e-23
5.0756883e-22
2.1895701e-21
7.1878584e-21
1.6115614e-20
2.7977049e-20
4.9648591e-20
5.0129201e-20
2.8085028e-20
1.5792985e-20
6.8036788e-21
1.900621e-21
3.5862935e-22
4.8346344e-23
4.7422137e-24
2.9489914e-25
1.070187e-26
3.1805062e-28
1.3126821e-29
4.9963955e-30
2.0803603e-29
3.5592801e-29
2.8137369e-29
1.9931591e-32
1.1110755e-32
9.7265765e-33
1.413809e-34
8.6787508e-38
2.9514785e-39
2.2370144e-41
1.7236252e-43
1.7821576e-45
1.773908e-47
1.8792619e-49
2.8856426e-51
1.9505532e-52
6.1355308e-52
1.0135448e-51
9.2999151e-52
4.802957e-52
1.2966452e-52
3.8716199e-53
1.6602514e-53
4.9986031e-54
9.7272495e-55
6.9976053e-56
1.1197981e-57
1.1637992e-59
1.0958257e-61
9.914162e-64
1.0424198e-65
1.0020943e-67
8.216653e-70
5.7616233e-72
3.3650582e-74
1.5547673e-76
6.4861426e-79
6.1534229e-77
1.1609952e-74
1.9985785e-72
2.8259048e-70
3.4643414e-68
3.7522591e-66
3.6957793e-64
3.2488684e-62
3.0781491e-60
3.1220291e-58
3.1480072e-56
2.9115389e-54
4.7299278e-53
2.5606357e-52
8.4088822e-52
2.0020443e-51
7.2141988e-51
2.7207363e-50
4.6561008e-50
4.3221588e-50
1.8530758e-50
1.1187367e-50
3.0664804e-49
2.1394651e-47
1.5733905e-45
1.7352431e-43
2.1767658e-41
2.5625199e-39
2.878176e-38
2.1980145e-35
3.4769636e-32
6.065687e-32
4.504002e-29
1.8105269e-29
6.88773e-26
8.0444761e-26
3.9516036e-26
2.0882637e-26
8.5393228e-26
8.9751541e-25
8.5944848e-24
6.9451065e-23
4.6659419e-22
2.6211023e-21
1.2476906e-20
5.0721926e-20
1.6785523e-19
4.1215993e-19
7.8141768e-19
1.3335361e-18
1.3421835e-18
7.8446568e-19
4.0398388e-19
1.577998e-19
4.3058274e-20
8.5188948e-21
1.2609247e-21
1.3776011e-22
9.6232966e-24
4.1967987e-25
1.8304524e-26
1.6840535e-27
1.5080972e-27
6.1161524e-27
9.3955502e-27
6.8273279e-27
1.951746e-30
4.8622863e-31
1.3694858e-30
1.7484259e-32
2.9614046e-36
2.143714e-37
2.2171928e-39
2.1228813e-41
2.2919812e-43
2.1211341e-45
2.1204265e-47
3.1240131e-49
2.0943823e-50
5.8036473e-50
9.5794367e-50
8.8345858e-50
4.6406681e-50
1.201134e-50
3.5479822e-51
1.493107e-51
4.3831294e-52
8.4038768e-53
5.9727452e-54
8.5654986e-56
8.9249535e-58
8.5688914e-60
9.0687456e-62
9.6924697e-64
8.9161062e-66
7.0870138e-68
4.8545587e-70
2.7844823e-72
1.2677031e-74
5.1585178e-77
4.5678186e-75
8.8126076e-73
1.5369091e-70
2.2073647e-68
2.7591873e-66
3.0627519e-64
3.1167159e-62
2.8766528e-60
2.3490483e-58
2.269724e-56
2.277546e-54
2.2568168e-52
3.7989191e-51
2.0953662e-50
7.0726764e-50
1.7055746e-49
6.2153213e-49
2.4173089e-48
4.0706339e-48
3.7914597e-48
1.6651755e-48
1.0495018e-48
2.9016617e-47
2.0399481e-45
1.5298967e-43
1.300908e-41
1.2042091e-39
3.3238726e-38
3.9981288e-36
1.0420529e-33
3.3796128e-30
8.6969435e-30
2.6930668e-28
3.1259306e-28
1.1954381e-23
1.6594362e-23
9.8339075e-24
2.6862319e-24
4.1111456e-24
3.0586652e-23
2.6641088e-22
1.9656089e-21
1.1986407e-20
6.1336857e-20
2.7322223e-19
1.0558319e-18
3.4980836e-18
9.3711274e-18
1.9342307e-17
2.9659912e-17
2.9635781e-17
1.9406404e-17
9.2179092e-18
3.267152e-18
8.7683407e-19
1.8132843e-19
2.8662211e-20
3.4745778e-21
2.7850866e-22
1.5663726e-23
1.1023742e-24
2.5854369e-25
4.5176787e-25
1.4362633e-24
1.945939e-24
1.2343708e-24
1.5303221e-28
6.7898837e-29
1.5900916e-28
1.6495991e-30
2.8778576e-34
1.7103231e-36
2.8303934e-37
2.2532184e-39
1.684856e-41
1.7623644e-43
2.0789676e-45
2.9471051e-47
2.0578139e-48
4.9814465e-48
8.2719783e-48
7.6705393e-48
4.0780899e-48
1.0168679e-48
2.9835524e-49
1.2301458e-49
3.5247951e-50
6.6304418e-51
4.6626342e-52
6.0753593e-54
6.3702943e-56
6.7517589e-58
7.8741196e-60
8.0218533e-62
7.1414179e-64
5.5390846e-66
3.7220389e-68
2.1024453e-70
9.4506621e-73
3.7618144e-75
3.1300236e-73
6.16212e-71
1.0872114e-68
1.5831693e-66
2.0117525e-64
2.2786132e-62
2.3791088e-60
2.2734989e-58
1.9594577e-56
1.6045173e-54
1.5424277e-52
1.5134181e-50
2.8068254e-49
1.5823759e-48
5.6517477e-48
1.3499462e-47
4.9250422e-47
1.9695203e-46
3.2732376e-46
3.0563325e-46
1.3753826e-46
8.6802409e-47
2.0567988e-45
1.4904803e-43
1.0116352e-41
2.4176798e-40
2.0460706e-38
2.9199343e-36
6.2848812e-34
2.1702807e-31
2.8447802e-28
1.4758478e-27
2.6798157e-26
1.8659535e-26
1.6590467e-21
2.7521379e-21
1.8605512e-21
4.75385e-22
2.7570622e-22
9.9070906e-22
7.5160639e-21
5.0980595e-20
2.8290253e-19
1.2909307e-18
5.2396974e-18
1.8449424e-17
5.4186511e-17
1.2935441e-16
2.4967354e-16
3.5286843e-16
3.52817e-16
2.4797101e-16
1.2611703e-16
4.9555939e-17
1.483544e-17
3.3534452e-18
5.8204815e-19
8.1301556e-20
7.8265259e-21
6.1031432e-22
7.5839718e-23
3.8825394e-23
1.1320339e-22
2.7074039e-22
3.3006288e-22
1.6956788e-22
8.9455575e-27
1.1775583e-26
1.4374636e-26
9.0682221e-29
6.6520028e-32
2.3116089e-34
2.248427e-35
1.276883e-37
2.548569e-40
5.5179033e-42
1.6270193e-43
2.3230696e-45
1.8089384e-46
3.9190681e-46
6.5594576e-46
6.1194085e-46
3.2810419e-46
7.9277213e-47
2.3769176e-47
9.5323554e-48
2.6151763e-48
4.8147503e-49
3.3488952e-50
4.0311987e-52
4.4079081e-54
5.5200754e-56
6.1064434e-58
6.008793e-60
5.2129152e-62
3.962791e-64
2.6200753e-66
1.4602367e-68
6.4898772e-71
2.5322393e-73
1.9912815e-71
3.994342e-69
7.1222605e-67
1.0500529e-64
1.353538e-62
1.5595662e-60
1.6630514e-58
1.6332371e-56
1.4613979e-54
1.2270013e-52
1.0149153e-50
9.5101127e-49
1.9244304e-47
1.1071947e-46
4.2319553e-46
1.0242959e-45
3.6114872e-45
1.4797274e-44
2.4325312e-44
2.2751508e-44
1.0495785e-44
6.2880216e-45
5.8395945e-44
5.1078326e-42
2.614801e-40
2.1290605e-38
2.5208592e-36
3.9141552e-34
9.3506329e-32
4.6215051e-29
2.4158356e-26
2.1226556e-25
7.8198299e-25
5.1101512e-23
2.14778e-19
3.8165016e-19
2.728151e-19
8.3298438e-20
2.0687656e-20
3.6062214e-20
2.0781036e-19
1.2882306e-18
6.4025302e-18
2.4488755e-17
7.855239e-17
2.1862047e-16
5.3584641e-16
1.11865e-15
1.8958916e-15
2.6958323e-15
2.6284583e-15
1.9358714e-15
1.0700551e-15
4.7353304e-16
1.6691304e-16
4.6205949e-17
1.0459529e-17
1.8832681e-18
2.3913502e-19
2.7721958e-20
6.3876184e-21
5.9180475e-21
2.087112e-20
4.0676608e-20
4.6429106e-20
2.0533308e-20
3.1712609e-25
1.4109385e-25
6.5077675e-25
1.3200008e-27
1.2205632e-29
3.0434512e-32
3.3988637e-34
2.7197674e-36
2.5045454e-38
2.1859086e-40
6.5131638e-42
1.1474177e-43
1.4138994e-44
2.8488506e-44
4.7969111e-44
4.5060091e-44
2.4304914e-44
5.7033736e-45
1.770686e-45
7.0350421e-46
1.7956706e-46
3.2441334e-47
2.1765533e-48
2.5667828e-50
3.2672944e-52
4.0381387e-54
4.3041938e-56
4.1212993e-58
3.5003319e-60
2.6159802e-62
1.705509e-64
9.391579e-67
4.1311962e-69
1.5824851e-71
1.182052e-69
2.4132341e-67
4.3453033e-65
6.4787944e-63
8.4592134e-61
9.8930799e-59
1.0739334e-56
1.0785208e-54
9.9380701e-53
8.7008015e-51
7.0538826e-49
5.6619281e-47
1.2343979e-45
7.2130019e-45
2.9230403e-44
7.1657705e-44
2.4552747e-43
1.0305208e-42
1.6778473e-42
1.5705969e-42
7.4289628e-43
3.8873567e-43
3.5788812e-42
2.8553574e-40
2.3866235e-38
2.6637203e-36
3.3949917e-34
5.0095324e-32
1.3005655e-29
8.7603328e-27
2.3255051e-24
1.9919708e-23
7.9878229e-23
1.4631253e-20
3.083462e-17
4.7117559e-17
3.2908405e-17
1.1058224e-17
1.8434428e-18
1.7554102e-18
5.9825722e-18
2.9906353e-17
1.1950185e-16
3.7010497e-16
8.5204047e-16
1.8584504e-15
3.4439341e-15
4.939573e-15
7.8538718e-15
1.1050226e-14
1.1727019e-14
7.9107651e-15
4.7229874e-15
2.813196e-15
1.1592803e-15
4.2877356e-16
1.4244735e-16
3.3394515e-17
6.2815342e-18
1.2677436e-18
5.6932808e-19
8.1607247e-19
2.8161989e-18
5.2052776e-18
6.071929e-18
2.5383341e-18
6.3129237e-22
5.082782e-24
1.7252209e-23
1.7034557e-26
1.8963582e-27
4.2549713e-30
3.0056878e-32
3.4142375e-34
3.0206124e-36
2.3986137e-38
2.417812e-40
3.2802909e-42
9.9160287e-43
1.9172342e-42
3.2473304e-42
3.0740145e-42
1.666153e-42
3.7989763e-43
1.2123488e-43
4.7817909e-44
1.1513559e-44
2.0416618e-45
1.2628352e-46
1.6723414e-48
2.2706238e-50
2.6934843e-52
2.7887163e-54
2.6111854e-56
2.1782365e-58
1.604e-60
1.0327076e-62
5.6251895e-65
2.4509167e-67
9.2272336e-70
6.5761067e-68
1.3653719e-65
2.4811425e-63
3.738093e-61
4.9377585e-59
5.8515752e-57
6.4509513e-55
6.6021446e-53
6.231386e-51
5.6340673e-49
4.7891123e-47
3.2346545e-45
7.4383917e-44
4.4496404e-43
1.875024e-42
4.6390432e-42
1.5543729e-41
6.6813139e-41
1.0780492e-40
1.0090131e-40
4.9413139e-41
1.9067543e-41
3.4361807e-40
2.8729054e-38
2.6519619e-36
2.918998e-34
4.0348315e-32
6.2303296e-30
1.6965609e-27
1.4779606e-24
3.2201847e-22
1.6091455e-21
6.4648297e-21
2.3600938e-18
3.1506816e-15
4.7957861e-15
3.1503965e-15
1.05055e-15
1.7080278e-16
9.0223178e-17
1.6091434e-16
5.2836484e-16
1.4913994e-15
3.8426195e-15
8.840106e-15
1.2581889e-14
1.6462455e-14
2.9664871e-14
2.7127611e-14
3.2134302e-14
3.1456058e-14
2.3770095e-14
2.1508444e-14
1.3754533e-14
1.026588e-14
5.378641e-15
1.2798046e-15
3.2284156e-16
9.6912859e-17
4.5901647e-17
3.8703223e-17
9.0479182e-17
2.9243329e-16
5.7136221e-16
7.2176396e-16
3.5691887e-16
2.9047336e-19
1.1568551e-21
1.5834165e-21
3.1710071e-24
2.8176874e-25
5.8432511e-28
4.1788778e-30
4.5048488e-32
3.1880618e-34
2.3561985e-36
2.3540388e-38
2.8839781e-40
6.1008926e-41
1.2036647e-40
2.040989e-40
1.9502957e-40
1.0608514e-40
2.3540144e-41
7.6741654e-42
3.0146014e-42
7.0542939e-43
1.2060409e-43
6.9804083e-45
1.1113352e-46
1.4409637e-48
1.6564613e-50
1.6748783e-52
1.5389162e-54
1.2639038e-56
9.1856917e-59
5.8474256e-61
3.1531873e-63
1.3615849e-65
5.0420563e-68
3.4421977e-66
7.2649352e-64
1.3318064e-61
2.0259527e-59
2.7045827e-57
3.2435735e-55
3.6248797e-53
3.7708649e-51
3.6320237e-49
3.371582e-47
2.9709944e-45
1.8515583e-43
4.2197494e-42
2.6834673e-41
1.1229876e-40
2.7925145e-40
9.1919272e-40
4.047237e-39
6.4720847e-39
6.0522843e-39
3.0887753e-39
1.0839335e-39
3.393095e-38
3.0918089e-36
3.1960381e-34
3.6092701e-32
4.5332671e-30
7.2748467e-28
2.0774088e-25
2.0656693e-21
9.0439417e-20
4.9082833e-20
4.0768706e-19
2.7311271e-16
9.6445233e-14
2.7816816e-13
1.8897172e-13
6.3240803e-14
1.1519639e-14
3.2841254e-15
3.7071719e-15
7.0917191e-15
1.807257e-14
7.465886e-14
2.2962271e-13
2.2254821e-13
3.6373296e-13
6.5727835e-13
3.8468727e-13
1.396693e-13
1.1463715e-13
3.6249842e-13
2.9365491e-13
1.2998532e-13
1.7511877e-13
2.0832195e-13
8.6878826e-14
1.4077019e-14
2.0794961e-15
1.3265065e-15
2.0077542e-15
6.838751e-15
1.9371699e-14
4.1039417e-14
5.1768803e-14
9.8989029e-15
4.7779668e-17
2.0014413e-19
3.1089544e-19
2.0457367e-20
1.8336341e-22
7.5556984e-26
5.622623e-28
5.4520595e-30
3.2874917e-32
2.1918778e-34
2.2570437e-36
2.6147374e-38
3.2609669e-39
7.095051e-39
1.1936829e-38
1.1551072e-38
6.287996e-39
1.3612378e-39
4.5112085e-40
1.7702635e-40
4.1780717e-41
6.7006629e-42
3.7416989e-43
6.7465776e-45
8.4514592e-47
9.4694979e-49
9.3859706e-51
8.484703e-53
6.8731121e-55
4.9362873e-57
3.1101327e-59
1.6615282e-61
7.1129523e-64
2.5920589e-66
1.7012982e-64
3.6489255e-62
6.7450309e-60
1.0354907e-57
1.395926e-55
1.6923089e-53
1.9143714e-51
2.0202169e-49
1.980191e-47
1.879749e-45
1.7063236e-43
1.0964269e-41
2.2621562e-40
1.5141551e-39
6.2850318e-39
1.5690233e-38
5.13053e-38
2.2979079e-37
3.6396906e-37
3.3997243e-37
1.7647331e-37
3.1266827e-37
1.8634299e-35
2.9381981e-33
5.4782285e-31
1.0319877e-28
4.9601005e-27
9.2960748e-26
4.768566e-23
2.1532233e-18
8.8014628e-18
4.6008413e-19
1.992975e-17
2.3019011e-14
1.734597e-12
1.4982623e-11
8.6410017e-12
2.0856336e-12
4.0874657e-13
8.55688e-14
2.9270484e-13
4.2138088e-13
2.7925175e-13
2.019229e-13
2.9819169e-13
7.5943761e-13
1.3732281e-12
1.3923979e-12
1.324542e-12
6.885942e-13
5.8806074e-13
8.4663947e-13
8.4663947e-13
6.7485437e-13
4.79178e-13
2.9935529e-13
1.2338445e-13
7.6506292e-14
8.1300859e-14
7.6936947e-14
6.8026366e-14
2.4748418e-13
6.7321454e-13
1.8141965e-12
2.5574086e-12
8.6235195e-14
4.9901839e-15
6.1598355e-18
5.7657655e-18
8.8733835e-18
1.9656175e-18
9.242761e-24
1.1345388e-25
1.1863776e-27
4.0475367e-29
1.1349756e-31
3.0302682e-34
2.3745863e-36
2.0074417e-37
3.8807245e-37
6.5155884e-37
6.3794866e-37
3.4898887e-37
7.3785266e-38
2.4716031e-38
9.6956242e-39
2.3063904e-39
3.5241573e-40
2.0493449e-41
3.792167e-43
4.6180906e-45
5.063834e-47
4.934161e-49
4.3971038e-51
3.5183746e-53
2.499851e-55
1.5600883e-57
8.2606873e-60
3.5072158e-62
1.258096e-64
7.9654887e-63
1.735959e-60
3.2348538e-58
5.0089194e-56
6.8138106e-54
8.3420602e-52
9.5403729e-50
1.0196578e-47
1.0149068e-45
9.823526e-44
9.1484171e-42
6.0162733e-40
1.155615e-38
8.0109171e-38
3.2967105e-37
8.251882e-37
2.7637022e-36
1.2262778e-35
1.9208774e-35
1.7912411e-35
9.6178348e-36
3.9331292e-35
3.7676922e-33
5.1173298e-31
8.3975504e-29
1.7125388e-26
3.5143276e-24
4.3782459e-22
2.1495648e-18
1.1890462e-16
1.030576e-16
9.1670775e-18
9.9855023e-18
1.2794158e-09
6.9890373e-11
6.9225146e-10
5.5177861e-10
4.0280044e-11
8.8602238e-13
1.6649555e-12
1.1897716e-12
5.081115e-13
1.5522023e-13
8.9100332e-14
1.3829873e-13
5.3930268e-14
-1.6005704e-12
-4.9022633e-12
-5.708678e-12
-2.0395722e-12
2.8054002e-13
-1.2543837e-12
-1.219459e-12
-2.5068096e-13
2.1177189e-13
1.7286542e-13
6.6072087e-14
5.7588447e-14
2.7582594e-13
8.3247724e-13
1.4915965e-12
2.1733253e-12
2.449372e-11
1.1993201e-10
1.3975349e-10
9.4706258e-12
3.8669843e-13
2.7545666e-17
1.2317379e-17
2.2774611e-16
1.8090494e-16
4.9645441e-21
4.3529257e-22
3.768641e-24
2.0319212e-26
7.9701626e-29
2.8758649e-31
1.0530598e-33
2.1855861e-35
1.9591917e-35
3.3232616e-35
3.288722e-35
1.8187971e-35
3.8158397e-36
1.2653183e-36
4.9678368e-37
1.1926885e-37
1.7887018e-38
1.0968491e-39
1.9896871e-41
2.3653568e-43
2.5458717e-45
2.4441339e-47
2.1507309e-49
1.7019452e-51
1.1974265e-53
7.4067928e-56
3.8890607e-58
1.6377697e-60
5.7837154e-63
3.5435324e-61
7.8472595e-59
1.4736023e-56
2.3003303e-54
3.1556418e-52
3.8982267e-50
4.5022257e-48
4.8664915e-46
4.9100387e-44
4.8351866e-42
4.6063825e-40
3.0882588e-38
5.7484668e-37
3.9876733e-36
1.6243321e-35
4.0726105e-35
1.4170521e-34
6.1533006e-34
9.5203959e-34
8.8611554e-34
4.9066319e-34
3.4174454e-33
3.2851302e-31
4.0987653e-29
5.6259571e-27
1.0379198e-24
2.6198471e-22
1.6157428e-19
1.1962555e-15
5.0363869e-15
6.5940359e-16
1.2965315e-17
4.0658453e-13
6.7793129e-08
1.4671955e-08
2.3129209e-08
1.9872568e-08
5.4218099e-10
4.9852951e-12
4.2203854e-12
2.605735e-12
3.3337649e-13
1.1681166e-14
2.332482e-15
-3.3583455e-21
-1.0478024e-13
-1.968022e-12
-1.1945472e-11
-2.1011064e-11
9.5849321e-13
2.5574722e-13
-7.3274899e-12
-4.5618151e-12
-7.586218e-13
-2.3811688e-13
-6.3061865e-13
-1.1613008e-12
-8.2434505e-13
1.9662396e-12
8.0933347e-12
4.3798443e-12
2.9154089e-12
2.5898879e-10
4.4697459e-09
4.8527109e-09
9.4494866e-10
7.2247148e-09
1.7901521e-17
1.2781013e-17
8.7349419e-16
1.8759709e-15
6.2350921e-17
3.922527e-20
2.585191e-22
1.332355e-24
5.7616606e-27
2.5334471e-29
1.5258422e-31
2.0710523e-33
9.4218767e-34
1.584539e-33
1.5837001e-33
8.9094948e-34
1.9108473e-34
6.0649122e-35
2.3865366e-35
5.7939973e-36
8.8725664e-37
5.4849755e-38
9.8038703e-40
1.1411226e-41
1.2084193e-43
1.1451643e-45
9.9644751e-48
7.8066619e-50
5.4429954e-52
3.3389233e-54
1.7390914e-56
7.2654387e-59
2.5258291e-61
1.5020475e-59
3.3804108e-57
6.3950619e-55
1.0059283e-52
1.3906419e-50
1.7319265e-48
2.0179644e-46
2.2031869e-44
2.249804e-42