/*--------------------------------*- C++ -*----------------------------------*\
  =========                 |
  \\      /  F ield         | OpenFOAM: The Open Source CFD Toolbox
   \\    /   O peration     | Website:  https://openfoam.org
    \\  /    A nd           | Version:  9
     \\/     M anipulation  |
\*---------------------------------------------------------------------------*/
FoamFile
{
    format      ascii;
    class       surfaceScalarField;
    location    "0.25";
    object      phi;
}
// * * * * * * * * * * * * * * * * * * * * * * * * * * * * * * * * * * * * * //

dimensions      [0 3 -1 0 0 0 0];

internalField   nonuniform List<scalar> 
19800
(
0.00016562146
-0.00015900769
0.00024114823
-0.00015866934
0.00031642735
-0.00015853308
0.00039132253
-0.00015824451
0.00046571762
-0.00015771646
0.00053953909
-0.00015708123
0.00061268254
-0.00015629857
0.00068502805
-0.00015533566
0.00075645074
-0.00015418621
0.00082681484
-0.00015284057
0.00089597918
-0.00015128371
0.00096378996
-0.00014950322
0.0010300748
-0.00014748986
0.0010946508
-0.00014522974
0.0011573286
-0.00014271217
0.0012178865
-0.00013992154
0.0012760807
-0.00013683735
0.0013316731
-0.0001334285
0.0013844295
-0.00012967493
0.001434071
-0.00012553952
0.0014802506
-0.00012097556
0.0015225682
-0.0001159039
0.0015606693
-0.00011018558
0.0015942678
-0.0001036091
0.0016230728
-9.5989678e-05
0.0016467858
-8.7148161e-05
0.0016650751
-7.6930833e-05
0.0016776322
-6.5048382e-05
0.0016840445
-5.1216392e-05
0.0016837546
-3.5179312e-05
0.0016770505
-1.728052e-05
0.001667664
4.1973731e-08
0.0016506615
2.1730716e-05
0.0016240556
4.2702151e-05
0.0015880046
6.4558438e-05
0.0015424207
8.7533895e-05
0.0014872595
0.00011152959
0.0014225421
0.00013651828
0.0013484022
0.00016239194
0.0012651127
0.00018873775
0.0011730391
0.00021523175
0.0010727363
0.00024157413
0.00096488056
0.00026715819
0.00085014902
0.00029133671
0.00072929964
0.00031354849
0.00060313741
0.00033323351
0.0004724525
0.00034983554
0.00033803231
0.00036289282
0.00020065094
0.00037209236
6.112938e-05
0.00037729396
-7.9094574e-05
0.00037844726
-0.00021840809
0.00037551852
-0.00035578501
0.00036851994
-0.0004903846
0.00035759063
-0.00062134565
0.00034296075
-0.0007478007
0.00032500854
-0.00086885395
0.00030424495
-0.00098360768
0.00028127593
-0.0010912052
0.00025674254
-0.0011908926
0.00023113354
-0.0012820297
0.00020489019
-0.0013641199
0.00017855154
-0.0014367826
0.00015253998
-0.0014997979
0.0001272143
-0.0015530648
0.00010275463
-0.0015965624
7.9175411e-05
-0.0016303879
5.665844e-05
-0.0016545463
3.5309125e-05
-0.0016682251
1.4200465e-05
-0.0016786516
-6.2600802e-06
-0.0016840653
-2.4610172e-05
-0.0016824353
-4.2225315e-05
-0.0016739576
-5.769902e-05
-0.0016591587
-7.1052046e-05
-0.0016384482
-8.255326e-05
-0.0016121403
-9.2529392e-05
-0.0015805212
-0.00010120182
-0.0015438692
-0.00010867681
-0.001502506
-0.00011517583
-0.0014568475
-0.00012091156
-0.001407345
-0.00012606025
-0.0013544114
-0.00013072342
-0.0012983979
-0.00013493251
-0.0012395773
-0.00013872224
-0.0011782074
-0.00014212769
-0.0011145541
-0.00014517361
-0.0010488788
-0.00014789321
-0.00098141259
-0.00015030226
-0.00091235301
-0.00015242763
-0.00084188783
-0.00015429208
-0.00077018985
-0.00015591306
-0.00069741719
-0.00015730219
-0.00062371689
-0.00015847555
-0.00054921948
-0.0001594462
-0.00047404675
-0.00016022565
-0.00039830416
-0.00016084411
-0.00032206772
-0.00016135153
-0.00024545137
-0.00016167303
-0.0001685938
-0.00016175617
-0.00016203483
0.0001654486
-0.00023486682
0.00024110607
-0.00023432824
0.00031651207
-0.00023394004
0.00039153628
-0.00023326856
0.00046608486
-0.00023226346
0.00054006966
-0.00023106306
0.00061338454
-0.0002296105
0.00068591445
-0.00022786375
0.00075753659
-0.00022580734
0.00082811488
-0.00022341707
0.00089750342
-0.00022066853
0.00096554663
-0.00021754131
0.0010320754
-0.00021401383
0.0010969066
-0.00021005839
0.0011598434
-0.00020564867
0.0012206893
-0.00020076787
0.0012792239
-0.00019537165
0.0013352128
-0.00018941678
0.0013884022
-0.00018286449
0.0014385259
-0.00017566464
0.0014852728
-0.00016772398
0.001528343
-0.00015897401
0.0015674172
-0.00014925726
0.0016022238
-0.00013841167
0.0016324809
-0.00012624317
0.0016578931
-0.00011255831
0.0016781431
-9.7180111e-05
0.0016930032
-7.9907523e-05
0.0017022438
-6.0454852e-05
0.001705814
-3.8746507e-05
0.0017035178
-1.4981037e-05
0.0016930908
1.0471975e-05
0.001676252
3.8570933e-05
0.0016509694
6.798503e-05
0.0016166565
9.8872246e-05
0.0015728897
0.00013130157
0.0015193363
0.00016508231
0.0014558861
0.00019996697
0.0013825684
0.00023570757
0.0012995001
0.00027180377
0.0012069831
0.00030774736
0.0011055621
0.00034299448
0.00099580579
0.00037691377
0.00087833851
0.00040880129
0.00075394843
0.00043793709
0.00062352941
0.00046365188
0.00048803813
0.00048532331
0.00034852942
0.0005024038
0.00020616095
0.00051446131
6.227913e-05
0.00052117468
-8.2155117e-05
0.00052288326
-0.00022628391
0.00051964577
-0.00036878227
0.00051102156
-0.00050836026
0.00049716932
-0.0006438437
0.00047844647
-0.00077415981
0.00045532405
-0.00089829691
0.00042838664
-0.0010153314
0.0003983127
-0.0011244125
0.00036582752
-0.0012248208
0.00033154197
-0.0013160017
0.00029607427
-0.0013975467
0.00026009922
-0.0014691825
0.00022417968
-0.001530806
0.00018884234
-0.0015824125
0.00015436062
-0.001624223
0.00012098832
-0.0016566351
8.907323e-05
-0.0016800108
5.8689894e-05
-0.0016954205
2.9613446e-05
-0.0017035282
1.8483179e-06
-0.0017046056
-2.3530444e-05
-0.0016996347
-4.7193476e-05
-0.0016886609
-6.867172e-05
-0.0016717716
-8.7939859e-05
-0.0016492035
-0.00010512109
-0.0016212514
-0.00012048378
-0.0015882447
-0.00013420987
-0.0015504722
-0.00014645047
-0.0015082532
-0.00015739523
-0.0014619392
-0.00016722422
-0.0014118796
-0.00017611935
-0.001358451
-0.00018415378
-0.0013019672
-0.00019141888
-0.0012427142
-0.00019797592
-0.0011809751
-0.00020386767
-0.0011170083
-0.00020914176
-0.001051043
-0.00021385873
-0.00098329096
-0.00021805414
-0.00091395963
-0.00022175693
-0.00084324336
-0.00022500586
-0.00077131294
-0.00022783804
-0.00069832488
-0.00023028415
-0.00062442652
-0.00023237092
-0.00054974796
-0.00023412524
-0.00047440643
-0.00023556779
-0.00039851207
-0.00023673902
-0.00032214957
-0.0002377096
-0.00024541515
-0.00023839398
-0.00016842623
-0.00023872304
-0.00023920977
0.00016597652
-0.00031092952
0.00024181917
-0.00031017152
0.00031743002
-0.0003095509
0.0003926632
-0.00030850111
0.00046745643
-0.00030705516
0.00054171427
-0.00030531907
0.00061532446
-0.00030321926
0.0006881701
-0.00030070852
0.00076012728
-0.00029776349
0.00083106396
-0.00029435181
0.00090083688
-0.00029043859
0.00096928912
-0.00028599049
0.0010362474
-0.00028097003
0.0011015405
-0.00027535109
0.001165028
-0.00026913649
0.0012264457
-0.00026218604
0.0012855581
-0.00025448444
0.0013421212
-0.0002459807
0.0013959698
-0.00023671429
0.0014468519
-0.00022654748
0.0014944469
-0.00021531842
0.0015385383
-0.00020306335
0.0015787715
-0.00018948833
0.0016149566
-0.00017459602
0.0016467632
-0.00015805052
0.0016739318
-0.00013972811
0.0016961265
-0.00011937509
0.0017130348
-9.6814808e-05
0.0017244269
-7.1845509e-05
0.0017299831
-4.4302215e-05
0.0017289913
-1.3989835e-05
0.001720497
1.8966516e-05
0.0017049711
5.4098338e-05
0.0016812271
9.1730616e-05
0.0016484907
0.00013160998
0.0016061217
0.00017367095
0.0015537951
0.00021740745
0.0014913264
0.00026243378
0.0014186566
0.00030837651
0.0013358469
0.00035461296
0.0012430558
0.00040053681
0.0011406434
0.00044540383
0.0010292128
0.0004883417
0.00090938442
0.00052862655
0.00078186586
0.00056545512
0.00064754516
0.00059797676
0.00050743503
0.00062543284
0.00036268572
0.00064715375
0.00021454463
0.00066260271
6.4303595e-05
0.00067141383
-8.6634638e-05
0.00067382389
-0.00023681639
0.00066982703
-0.00038485319
0.00065906086
-0.0005293847
0.0006417005
-0.00066915654
0.00061822111
-0.00080303856
0.00058920691
-0.00093000349
0.00055535567
-0.0010491403
0.00051745054
-0.0011595936
0.00047628435
-0.0012607358
0.00043268583
-0.0013520477
0.0003873889
-0.0014332264
0.00034127905
-0.0015041851
0.00029513948
-0.0015647559
0.00024941784
-0.0016151113
0.0002047247
-0.0016555429
0.00016142393
-0.0016864212
0.0001199491
-0.0017084714
8.0736186e-05
-0.0017224072
4.3547605e-05
-0.0017296108
9.0579281e-06
-0.0017287994
-2.4338006e-05
-0.0017216529
-5.4339368e-05
-0.001708486
-8.1838195e-05
-0.0016895821
-0.00010684104
-0.0016651504
-0.00012955121
-0.001635521
-0.00015011484
-0.0016009779
-0.00016875268
-0.0015619089
-0.00018551789
-0.0015185296
-0.00020077549
-0.0014711918
-0.00021456448
-0.0014202963
-0.00022701647
-0.0013660553
-0.00023839524
-0.0013088785
-0.00024859745
-0.0012489987
-0.00025785665
-0.0011866127
-0.00026625428
-0.0011220161
-0.00027373932
-0.0010554583
-0.00028041396
-0.00098720465
-0.00028630616
-0.00091742018
-0.00029153976
-0.00084628005
-0.00029614552
-0.00077395258
-0.00030016091
-0.00070060423
-0.00030363068
-0.0006263784
-0.00030659804
-0.00055140052
-0.00030910184
-0.00047578444
-0.00031118235
-0.00039964475
-0.00031288661
-0.00032307822
-0.0003142897
-0.00024615752
-0.00031532442
-0.00016899058
-0.00031587991
-0.0003165948
0.00016648853
-0.00038721629
0.0002426075
-0.00038628987
0.00031851527
-0.00038545803
0.00039405325
-0.00038403823
0.00046918184
-0.00038218274
0.00054380416
-0.00037994032
0.00061781019
-0.00037722425
0.00069108428
-0.00037398157
0.00076350658
-0.00037018474
0.00083494856
-0.00036579275
0.00090526507
-0.00036075401
0.00097430132
-0.00035502586
0.0010418958
-0.00034856428
0.0011078675
-0.00034132339
0.0011719869
-0.00033325702
0.0012340764
-0.00032427732
0.0012939553
-0.00031436555
0.0013514306
-0.00030345794
0.0014062237
-0.00029150802
0.0014580711
-0.00027839389
0.0015067986
-0.00026404411
0.0015520838
-0.00024834741
0.001593737
-0.00023114254
0.0016314347
-0.00021229645
0.0016649724
-0.00019159081
0.0016940555
-0.00016881204
0.0017183947
-0.00014371368
0.0017376719
-0.00011609155
0.0017515089
-8.5683054e-05
0.001759439
-5.2233713e-05
0.0017610164
-1.5568146e-05
0.0017556486
2.4335322e-05
0.0017423688
6.738087e-05
0.001720787
0.00011331411
0.0016899409
0.00016245529
0.0016491735
0.00021443667
0.0015981053
0.00026847426
0.0015363607
0.00032417749
0.0014637512
0.00038098517
0.0013802944
0.0004380676
0.0012862146
0.00049461271
0.0011818872
0.0005497266
0.0010677634
0.00060246443
0.00094449978
0.00065189147
0.00081292312
0.00069703284
0.00067390177
0.00073700267
0.00052849086
0.00077084355
0.00037793019
0.00079771286
0.00022354822
0.00081698527
6.6758047e-05
0.0008282031
-9.0795511e-05
0.00083137959
-0.00024740777
0.00082643846
-0.00040153809
0.0008131938
-0.00055178027
0.00079194322
-0.00069676835
0.00076321211
-0.00083526732
0.00072770737
-0.00096616953
0.00068626166
-0.0010884914
0.0006397728
-0.0012014341
0.00058922753
-0.0013043581
0.00053560915
-0.0013968066
0.00047984071
-0.0014784331
0.00042290957
-0.0015490403
0.00036575463
-0.0016087684
0.00030914923
-0.0016578125
0.00025377049
-0.0016965359
0.00020014673
-0.0017256103
0.00014901947
-0.0017456264
0.00010075223
-0.0017572731
5.5199853e-05
-0.001760939
1.2726468e-05
-0.0017581467
-2.7129025e-05
-0.0017487469
-6.3737963e-05
-0.0017332876
-9.729583e-05
-0.0017121282
-0.00012799675
-0.0016856016
-0.00015607404
-0.0016540216
-0.00018169424
-0.0016178044
-0.00020497088
-0.0015771218
-0.00022620061
-0.0015323533
-0.00024554511
-0.0014837718
-0.00026314956
-0.0014316495
-0.00027914137
-0.0013763619
-0.0002936821
-0.0013181162
-0.00030684431
-0.0012572385
-0.00031873601
-0.0011940339
-0.00032945916
-0.0011286975
-0.00033907657
-0.001061446
-0.00034766366
-0.00099247811
-0.00035527377
-0.00092202601
-0.0003619915
-0.00085027745
-0.00036789412
-0.00077740145
-0.0003730374
-0.00070355156
-0.00037748028
-0.00062886477
-0.00038128432
-0.00055347157
-0.00038449311
-0.00047747775
-0.00038717135
-0.00040099332
-0.00038936689
-0.00032411212
-0.00039116679
-0.00024691269
-0.00039252404
-0.00016948807
-0.00039330347
-0.00039417916
0.00016714639
-0.00046381325
0.00024361645
-0.00046275834
0.00031988383
-0.00046172423
0.00039583404
-0.00045998768
0.00047140844
-0.00045775638
0.0005465033
-0.00045503406
0.00062101218
-0.00045173179
0.00069483711
-0.00044780561
0.00076785437
-0.0004432021
0.00083993858
-0.00043787764
0.00091094293
-0.000431759
0.00098071497
-0.00042479845
0.0010490881
-0.00041693822
0.0011158807
-0.00040811762
0.0011808985
-0.00039827779
0.0012439702
-0.00038735267
0.0013048847
-0.00037528319
0.0013634298
-0.00036200463
0.0014193569
-0.00034743476
0.0014724727
-0.00033150856
0.0015225488
-0.00031411985
0.0015693861
-0.00029518628
0.0016127185
-0.00027447785
0.0016523233
-0.00025190395
0.0016879726
-0.00022724123
0.0017194262
-0.00020026519
0.0017463857
-0.00017067233
0.0017685001
-0.00013820619
0.0017853528
-0.00010253658
0.0017965198
-6.3400561e-05
0.0018013939
-2.0441039e-05
0.0017991736
2.6556947e-05
0.0017891219
7.7433466e-05
0.0017703414
0.00013209404
0.0017420516
0.00019074298
0.0017034721
0.00025301409
0.0016539736
0.00031797159
0.0015931242
0.00038502531
0.0015206813
0.00045342497
0.0014365821
0.00052216317
0.0013409555
0.00059023699
0.0012340744
0.00065660631
0.0011164916
0.00072004861
0.00098882981
0.00077955656
0.00085189573
0.00083396655
0.00070674221
0.00088215743
0.00055454414
0.00092304173
0.00039660617
0.00095564923
0.00023449033
0.00097910139
6.9908487e-05
0.00099278434
-9.5481015e-05
0.00099677124
-0.00026002219
0.00099097897
-0.00042192909
0.00097510357
-0.00057952552
0.00094954158
-0.00073127715
0.0009149658
-0.00087578097
0.00087221085
-0.0010118225
0.00082230347
-0.0011383802
0.00076632957
-0.0012545931
0.000705442
-0.0013598256
0.00064084245
-0.001453545
0.00057356564
-0.0015355245
0.00050489241
-0.0016057088
0.0004359408
-0.0016642692
0.00036771051
-0.0017115638
0.00030106394
-0.0017481069
0.00023669276
-0.0017745988
0.0001755158
-0.0017916666
0.00011781839
-0.0018002875
6.3824089e-05
-0.0018013117
1.3753827e-05
-0.0017951969
-3.3243289e-05
-0.001782726
-7.6207952e-05
-0.0017643467
-0.00011567268
-0.0017404409
-0.0001519011
-0.0017113924
-0.00018512147
-0.0016775734
-0.00021551227
-0.0016391919
-0.00024335306
-0.0015965752
-0.00026881873
-0.0015500178
-0.0002921033
-0.0014998047
-0.00031336388
-0.0014462149
-0.00033273374
-0.0013895431
-0.00035035474
-0.0013300447
-0.00036634414
-0.0012679839
-0.00038079786
-0.0012036278
-0.00039381409
-0.0011372225
-0.00040548248
-0.0010689976
-0.00041589022
-0.00099915053
-0.00042512195
-0.00092787947
-0.0004332642
-0.00085537286
-0.00044040051
-0.00078179941
-0.00044661108
-0.00070731239
-0.00045196771
-0.0006320491
-0.00045654913
-0.00055612516
-0.00046042144
-0.00047964731
-0.00046365052
-0.00040272599
-0.00046628745
-0.00032543733
-0.00046845079
-0.00024788074
-0.00047008561
-0.00017012248
-0.00047106386
-0.00047205534
0.00016796537
-0.00054080493
0.0002448588
-0.00053964943
0.00032155984
-0.00053842396
0.00039800023
-0.00053642721
0.00047409517
-0.00053385015
0.00054976166
-0.00053069894
0.00062490225
-0.00052687127
0.00069940641
-0.00052231014
0.00077316347
-0.0005169608
0.00084602795
-0.00051074387
0.00091787835
-0.00050361056
0.00098855889
-0.00049547987
0.0010579014
-0.0004862824
0.0011257283
-0.00047594774
0.0011918524
-0.00046440621
0.0012560864
-0.00045159063
0.0013182182
-0.00043741748
0.001378072
-0.00042185934
0.0014354015
-0.00040476473
0.0014900179
-0.00038612607
0.0015417195
-0.00036582318
0.0015902732
-0.00034374203
0.0016355223
-0.00031972832
0.0016772533
-0.00029363558
0.0017152619
-0.0002652501
0.0017493012
-0.0002343046
0.0017791527
-0.00020052352
0.0018044363
-0.00016348871
0.0018247812
-0.00012287989
0.0018396591
-7.827668e-05
0.0018484111
-2.9191972e-05
0.0018501166
2.4850836e-05
0.0018440996
8.3449043e-05
0.0018290748
0.0001471178
0.0018042269
0.00021558971
0.0017685501
0.00028868876
0.0017212311
0.0003652876
0.0016616659
0.00044458748
0.0015894911
0.00052559755
0.0015046327
0.00060702041
0.0014071692
0.00068770163
0.0012974413
0.00076633482
0.0011758415
0.00084164759
0.0010430284
0.00091237035
0.0008998717
0.00097712232
0.0007474043
0.0010346247
0.00058693689
0.0010835094
0.00042001481
0.0011225696
0.00024836016
0.0011507549
7.3902771e-05
0.001167241
-0.00010147672
0.0011721545
-0.00027588196
0.0011653857
-0.00044728908
0.0011465129
-0.00061380019
0.0011160541
-0.00077366156
0.0010748271
-0.00092533093
0.0010238787
-0.0010674878
0.0009644587
-0.0011990827
0.00089792321
-0.0013191318
0.00082549401
-0.0014269733
0.00074868721
-0.0015222227
0.00066881481
-0.0016046065
0.00058727693
-0.0016741099
0.00050544506
-0.0017310128
0.0004246172
-0.0017758579
0.00034591213
-0.0018093384
0.00027017482
-0.0018323719
0.00019854861
-0.0018459217
0.00013136816
-0.0018508657
6.8769117e-05
-0.0018479911
1.0879699e-05
-0.0018383482
-4.2886242e-05
-0.0018224788
-9.2076477e-05
-0.0018008621
-0.00013728754
-0.0017739525
-0.00017881049
-0.0017421321
-0.00021694083
-0.0017056794
-0.00025196207
-0.0016648923
-0.00028413924
-0.0016200688
-0.00031364332
-0.0015714653
-0.00034070716
-0.0015193262
-0.00036550287
-0.0014639684
-0.00038809342
-0.0014056226
-0.00040870098
-0.0013445562
-0.0004274119
-0.0012810471
-0.00044431028
-0.0012153304
-0.00045953204
-0.0011476483
-0.00047316518
-0.0010782279
-0.00048531246
-0.0010072766
-0.00049607362
-0.00093499087
-0.00050554873
-0.00086155458
-0.00051383653
-0.00078713181
-0.00052103523
-0.00071186183
-0.0005272372
-0.00063588386
-0.0005325268
-0.00055931187
-0.00053699359
-0.0004822554
-0.00054070671
-0.00040480362
-0.0005437387
-0.00032704176
-0.00054620844
-0.00024904593
-0.00054807858
-0.00017088109
-0.00054922926
-0.00055030754
0.00016888671
-0.00061826877
0.00024628391
-0.00061704422
0.00032350829
-0.00061564694
0.00040052095
-0.00061343853
0.00047723562
-0.00061056309
0.00055357063
-0.00060703254
0.00062943754
-0.00060273833
0.00070472839
-0.00059760275
0.0007793378
-0.00059157233
0.00085314383
-0.00058455121
0.00092599814
-0.00057646536
0.00099775025
-0.00056723286
0.0010682406
-0.00055677522
0.0011372889
-0.00054499995
0.001204709
-0.00053183005
0.001270307
-0.00051719092
0.001333894
-0.00050100602
0.0013952346
-0.00048320187
0.0014541691
-0.00046370206
0.0015104855
-0.00044244525
0.0015640017
-0.0004193408
0.0016145237
-0.0003942639
0.0016618949
-0.00036709935
0.0017059474
-0.00033768905
0.0017465459
-0.00030585055
0.0017834747
-0.0002712346
0.0018165188
-0.0002335663
0.0018454632
-0.00019243008
0.0018698407
-0.00014725497
0.0018891047
-9.7540283e-05
0.0019026156
-4.2703628e-05
0.0019091516
1.8314042e-05
0.0019080602
8.4540315e-05
0.001897845
0.00015733301
0.0018772995
0.00023613379
0.0018452338
0.00032075137
0.0018005615
0.0004099563
0.0017425335
0.00050261421
0.0016707529
0.00059737959
0.001584994
0.00069277993
0.0014853599
0.00078733514
0.0013721943
0.00087949907
0.0012459155
0.00096792347
0.0011071935
0.0010510915
0.00095682232
0.0011274932
0.00079589012
0.0011955557
0.00062579338
0.0012536048
0.00044823823
0.001300124
0.00026518672
0.0013338076
7.8832061e-05
0.0013535971
-0.00010859569
0.0013595857
-0.00029484132
0.0013516323
-0.0004775801
0.0013292515
-0.00065462208
0.0012930971
-0.00082402369
0.0012442287
-0.00098410476
0.001183961
-0.0011334255
0.001113779
-0.0012708152
0.0010353114
-0.0013954165
0.00095009098
-0.0015064672
0.00085973895
-0.0016034907
0.00076584174
-0.0016862995
0.00067008809
-0.0017549119
0.00057405945
-0.0018097694
0.00047947358
-0.0018515601
0.00038769893
-0.001881223
0.00029984179
-0.0018999407
0.00021726863
-0.0019088678
0.000140295
-0.0019091872
6.9088706e-05
-0.0019019474
3.6411359e-06
-0.0018880092
-5.6823339e-05
-0.001868105
-0.00011197981
-0.0018427738
-0.0001626166
-0.0018124549
-0.00020912714
-0.0017774897
-0.00025190471
-0.0017381298
-0.00029132223
-0.0016946984
-0.00032757189
-0.0016473627
-0.00036097997
-0.0015964386
-0.00039163244
-0.0015421507
-0.0004197903
-0.0014847143
-0.00044553031
-0.0014244298
-0.00046898576
-0.0013615542
-0.00049028725
-0.0012963229
-0.0005095423
-0.0012289977
-0.0005268587
-0.0011598152
-0.00054235216
-0.0010889943
-0.00055613389
-0.0010167451
-0.00056832189
-0.00094326806
-0.00057902836
-0.00086873362
-0.00058837335
-0.00079330254
-0.00059646752
-0.00071712239
-0.00060341931
-0.00064032014
-0.00060933367
-0.00056300182
-0.00061431462
-0.00048526743
-0.0006184389
-0.00040720158
-0.00062180151
-0.00032888487
-0.00062452819
-0.00025038227
-0.00062657991
-0.00017173387
-0.00062787797
-0.00062900684
0.00016989829
-0.00069627559
0.00024786428
-0.00069500804
0.00032568533
-0.0006934664
0.00040334635
-0.00069109783
0.00048075799
-0.00068797324
0.00055785143
-0.00068412581
0.00063454579
-0.0006794341
0.00071074821
-0.00067380713
0.00078634328
-0.00066716852
0.0008612146
-0.00065942242
0.00093522446
-0.00065047491
0.001008222
-0.00064023145
0.0010800312
-0.00062858686
0.0011504848
-0.00061545605
0.0012193955
-0.0006007421
0.0012865632
-0.00058435942
0.001351781
-0.00056622589
0.0014148523
-0.00054627699
0.0014755867
-0.00052444032
0.0015337916
-0.00050065179
0.0015893186
-0.00047486687
0.0016419626
-0.0004469069
0.0016916288
-0.00041676679
0.0017381962
-0.0003842601
0.0017815518
-0.00034920939
0.0018216139
-0.00031129715
0.0018582266
-0.0002701771
0.0018911425
-0.00022534367
0.0019200577
-0.0001761696
0.0019444296
-0.00012191277
0.0019635026
-6.1776637e-05
0.0019762412
5.5769354e-06
0.0019812405
7.9542214e-05
0.0019770334
0.00016153904
0.0019619772
0.00025118716
0.0019345842
0.0003481424
0.0018933036
0.00045123618
0.0018372712
0.00055864689
0.0017659447
0.00066870693
0.0016791539
0.00077956904
0.0015770469
0.00088943848
0.0014599034
0.00099664039
0.0013282441
0.0010995819
0.0011826607
0.0011966737
0.0010239243
0.0012862278
0.00085316108
0.0013663175
0.00067180386
0.0014349622
0.00048173558
0.0014901949
0.00028522789
0.0015303187
8.4824587e-05
0.0015540025
-0.00011684247
0.0015612535
-0.00031710518
0.0015518956
-0.00051325008
0.0015253964
-0.00070275472
0.0014826049
-0.00088339439
0.0014248682
-0.0010533136
0.001353881
-0.0012110101
0.0012714726
-0.0013552672
0.0011795671
-0.0014851553
0.0010799793
-0.0015999069
0.00097448919
-0.0016990054
0.00086494136
-0.0017821784
0.0007532599
-0.0018495702
0.00064144987
-0.0019016659
0.0005315709
-0.0019393714
0.00042540788
-0.0019640857
0.00032455925
-0.0019772914
0.00023047638
-0.0019805431
0.0001435474
-0.0019752896
6.3836724e-05
-0.0019625622
-9.0849315e-06
-0.0019436827
-7.5701631e-05
-0.0019192262
-0.00013643569
-0.0018897564
-0.00019208566
-0.0018556804
-0.00024320145
-0.0018172754
-0.00029030842
-0.0017747761
-0.00033382235
-0.0017283977
-0.00037395161
-0.0016783563
-0.00041102026
-0.0016248284
-0.0004451595
-0.001568084
-0.00047653423
-0.0015083264
-0.00050528851
-0.0014458572
-0.00053145657
-0.0013808995
-0.00055524508
-0.001313712
-0.0005767308
-0.0012445402
-0.00059603158
-0.0011736271
-0.0006132679
-0.0011011958
-0.00062856748
-0.0010274562
-0.00064206182
-0.00095260136
-0.0006538874
-0.00087680996
-0.00066416759
-0.00080023417
-0.00067304185
-0.00072301561
-0.00068063786
-0.00064527152
-0.00068707779
-0.00056710646
-0.00069247719
-0.00048861168
-0.00069693266
-0.00040985881
-0.00070055458
-0.00033091444
-0.0007034754
-0.00025184257
-0.00070565219
-0.00017266236
-0.00070706055
-0.00070820931
0.000170981
-0.00077488377
0.00024956893
-0.00077359419
0.00032804599
-0.00077194194
0.0004064221
-0.00076947268
0.00048460142
-0.00076615227
0.00056254254
-0.00076206793
0.00064016119
-0.00075705439
0.00071737408
-0.00075102105
0.00079407819
-0.00074387229
0.00087015462
-0.00073549769
0.00094546731
-0.0007257871
0.001019868
-0.00071463294
0.0010931856
-0.00070190559
0.0011652353
-0.0006875059
0.0012358381
-0.00067134465
0.0013047681
-0.00065329036
0.0013718356
-0.00063329639
0.00143683
-0.00061127518
0.0014995556
-0.00058716787
0.0015598524
-0.00056094792
0.0016174961
-0.00053250907
0.0016724181
-0.00050182946
0.0017244992
-0.00046885126
0.0017736901
-0.000433455
0.0018199614
-0.00039548295
0.0018633022
-0.00035463798
0.0019036774
-0.00031055177
0.0019409975
-0.00026266383
0.0019750115
-0.00021018369
0.002005272
-0.00015217216
0.0020309314
-8.7434263e-05
0.0020511697
-1.4660659e-05
0.0020637158
6.6995294e-05
0.0020671206
0.0001581322
0.002059057
0.00025924884
0.0020376674
0.0003695322
0.0020008479
0.00048805627
0.0019474436
0.00061204916
0.0018767712
0.00073937675
0.0017887683
0.00086757014
0.0016837285
0.00099447617
0.0015621303
0.0011182364
0.0014244298
0.0012372817
0.0012711126
0.00134999
0.0011028768
0.0014544628
0.0009207531
0.0015484432
0.00072626737
0.001629451
0.00052151029
0.0016949553
0.00030909999
0.001742729
9.2054488e-05
0.0017710482
-0.00012649786
0.0017798061
-0.00034336762
0.0017687688
-0.00055533809
0.0017373698
-0.00075946905
0.00168674
-0.0009532136
0.0016186108
-0.0011345611
0.0015352251
-0.0013019133
0.001438825
-0.0014540608
0.0013317142
-0.0015900623
0.0012159813
-0.0017091036
0.0010935292
-0.0018105256
0.00096636043
-0.0018939766
0.00083671166
-0.0019595395
0.00070701792
-0.0020079124
0.00057994421
-0.0020402085
0.00045770555
-0.0020585078
0.00034286338
-0.0020647225
0.00023669504
-0.0020608074
0.0001396343
-0.0020487469
5.1778176e-05
-0.0020296931
-2.8137593e-05
-0.0020050598
-0.00010033362
-0.001975502
-0.00016599339
-0.0019415022
-0.00022608602
-0.0019033409
-0.0002813629
-0.0018612326
-0.00033241774
-0.0018153649
-0.00037969112
-0.0017658244
-0.00042349137
-0.0017127979
-0.0004640448
-0.0016564634
-0.00050149421
-0.0015970236
-0.00053597516
-0.0015347287
-0.00056758385
-0.0014697919
-0.00059639506
-0.0014024945
-0.00062254551
-0.0013330915
-0.00064613647
-0.0012618351
-0.00066729106
-0.001188962
-0.00068614149
-0.0011147088
-0.00070282061
-0.0010392833
-0.00071748792
-0.00096288033
-0.00073029089
-0.00088567306
-0.00074137772
-0.0008078165
-0.00075090297
-0.00072943708
-0.00075901727
-0.00065065005
-0.00076586343
-0.00057154927
-0.00077157458
-0.00049221423
-0.00077626587
-0.00041271103
-0.00078005588
-0.00033308019
-0.00078310637
-0.00025339178
-0.00078534061
-0.00017363759
-0.00078681454
-0.00078795962
0.00017211129
-0.00085413162
0.00025135383
-0.00085283562
0.00033053756
-0.00085112495
0.00040967296
-0.00084860803
0.00048869413
-0.00084517421
0.00056754648
-0.0008409216
0.00064618073
-0.00083568975
0.00072451314
-0.00082935355
0.00080244677
-0.00082180488
0.00087986886
-0.00081291852
0.00095664776
-0.00080256542
0.0010326115
-0.00079059666
0.0011076122
-0.00077690597
0.0011814603
-0.00076135339
0.0012539368
-0.00074382125
0.0013248488
-0.00072420383
0.00139397
-0.00070241984
0.0014610864
-0.0006783929
0.001525992
-0.00065207308
0.0015885062
-0.00062346089
0.0016484554
-0.00059245812
0.0017057498
-0.00055912536
0.0017603217
-0.00052342542
0.0018121775
-0.00048531277
0.0018613898
-0.00044469659
0.0019080762
-0.00040132571
0.0019523651
-0.00035484177
0.0019943341
-0.00030463302
0.0020339505
-0.00024979922
0.002070875
-0.00018909555
0.0021044493
-0.0001210088
0.002133509
-4.3722744e-05
0.0021555517
4.495039e-05
0.0021687153
0.00014496833
0.0021698608
0.00025810294
0.002156071
0.00038332096
0.0021249597
0.00051916642
0.00207472
0.00066228665
0.002004833
0.0008092619
0.0019154753
0.00095692807
0.0018071422
0.0011028095
0.0016804977
0.0012448774
0.0015360757
0.0013817019
0.0013742367
0.001511831
0.0011954097
0.0016332926
0.0010004182
0.0017434377
0.00079075391
0.0018391154
0.00056878149
0.0019169294
0.00033757371
0.0019739357
0.00010076109
0.0020078624
-0.00013786391
0.0020184326
-0.00037443717
0.0020053448
-0.00060506407
0.0019679995
-0.00082628607
0.0019079642
-0.0010351732
0.0018275004
-0.0012295386
0.0017295895
-0.0014078362
0.0016171212
-0.0015689372
0.0014928159
-0.001711927
0.0013589694
-0.0018358838
0.0012174869
-0.0019399996
0.0010704778
-0.0020236308
0.0009203438
-0.0020867133
0.00077010255
-0.002130025
0.00062325924
-0.0021553373
0.00048301939
-0.0021652356
0.00035276496
-0.0021623963
0.00023385834
-0.002149618
0.00012685852
-0.0021291778
3.1338994e-05
-0.0021027479
-5.4568526e-05
-0.0020716051
-0.00013147738
-0.0020364088
-0.00020118905
-0.0019975183
-0.00026497528
-0.0019550672
-0.00032381411
-0.0019091144
-0.00037837176
-0.001859672
-0.00042913235
-0.0018068065
-0.0004763545
-0.0017506114
-0.00052023932
-0.0016912326
-0.00056087404
-0.0016288631
-0.00059834621
-0.001563736
-0.00063271148
-0.0014960915
-0.00066403878
-0.0014262012
-0.00069244023
-0.0013543318
-0.00071801184
-0.0012807422
-0.00074088221
-0.0012056878
-0.00076119705
-0.0011293995
-0.00077911197
-0.0010520995
-0.00079479278
-0.00097397028
-0.00080841824
-0.00089519809
-0.00082014783
-0.00081591976
-0.00083018022
-0.00073626444
-0.00083867293
-0.00065633377
-0.00084579094
-0.00057621707
-0.00085169251
-0.00049598581
-0.00085650279
-0.0004156773
-0.00086036649
-0.00033532785
-0.00086345715
-0.00025498396
-0.0008656831
-0.00017463376
-0.00086716466
-0.00086828245
0.00017326342
-0.0009340387
0.00025317967
-0.00093275198
0.0003331089
-0.00093105474
0.00041304262
-0.00092854258
0.00049294309
-0.00092507569
0.00057278074
-0.00092076035
0.00065250911
-0.00091541889
0.00073205446
-0.00090889887
0.00081133127
-0.00090108086
0.00089022823
-0.00089181432
0.00096860582
-0.00088094205
0.0010463217
-0.00086831201
0.0011231998
-0.00085378414
0.0011990364
-0.00083719042
0.0012736209
-0.00081840651
0.0013467289
-0.0007973124
0.0014181222
-0.00077381319
0.0014875678
-0.00074783803
0.0015548391
-0.00071934388
0.0016197387
-0.00068836016
0.0016821025
-0.00065482165
0.0017418299
-0.00061885254
0.0017988975
-0.00058049296
0.0018533717
-0.00053978791
0.0019054307
-0.00049675752
0.001955357
-0.00045125406
0.0020034964
-0.00040298198
0.0020502173
-0.00035135367
0.0020957741
-0.00029535681
0.0021401992
-0.00023352325
0.0021828797
-0.00016369182
0.0022225449
-8.3389587e-05
0.00225681
1.0684424e-05
0.0022824623
0.00011931654
0.0022954558
0.00024510854
0.0022917473
0.00038702705
0.0022679303
0.00054298333
0.0022218108
0.00070840793
0.0021528368
0.00087823582
0.002061532
0.0010482309
0.0019491292
0.0012152124
0.001816783
0.0013772228
0.0016650873
0.0015333976
0.0014940963
0.0016828244
0.0013036928
0.0018236963
0.0010942608
0.0019528702