/*--------------------------------*- C++ -*----------------------------------*\
  =========                 |
  \\      /  F ield         | OpenFOAM: The Open Source CFD Toolbox
   \\    /   O peration     | Website:  https://openfoam.org
    \\  /    A nd           | Version:  9
     \\/     M anipulation  |
\*---------------------------------------------------------------------------*/
FoamFile
{
    format      ascii;
    class       surfaceScalarField;
    location    "0.67";
    object      alphaPhi0.phase1;
}
// * * * * * * * * * * * * * * * * * * * * * * * * * * * * * * * * * * * * * //

dimensions      [0 3 -1 0 0 0 0];

internalField   nonuniform List<scalar> 
19800
(
-3.9643812e-88
5.2231616e-88
-2.3259833e-87
5.723326e-88
-4.731325e-85
2.5057077e-86
-1.3453994e-84
4.2347362e-85
-1.1535491e-84
6.3413064e-85
-4.1196552e-85
3.1188738e-85
-1.006736e-85
8.7795071e-86
-1.1648202e-85
2.8647201e-86
-1.3243043e-85
2.9082626e-86
-7.8486392e-85
7.3126947e-86
-1.757625e-82
7.801254e-84
-1.402979e-80
7.3553034e-82
-2.1554407e-79
2.113751e-80
-2.2418805e-78
2.533705e-79
-8.9020151e-77
6.546083e-78
-7.9139421e-75
5.0785672e-76
-7.1390068e-73
4.2944679e-74
-6.0663146e-71
3.4365623e-72
-4.8577973e-69
2.5940723e-70
-3.6776079e-67
1.852281e-68
-2.6397648e-65
1.2538939e-66
-1.8010742e-63
8.0601805e-65
-1.1705733e-61
4.9365694e-63
-7.260907e-60
2.8811405e-61
-4.3056285e-58
1.6051281e-59
-2.4384941e-56
8.5253583e-58
-1.3083811e-54
4.3125751e-56
-6.8149417e-53
2.0782951e-54
-4.2995827e-51
9.7889778e-53
-3.8082789e-49
4.8125722e-51
-1.3958211e-47
1.6464203e-49
-1.0419517e-46
1.7348539e-48
-2.4070666e-46
5.3462454e-48
-4.989619e-46
7.3496506e-48
-4.4918691e-45
1.1550587e-47
-1.9223351e-43
-2.1816023e-45
-8.6840013e-42
-2.7081445e-43
-3.5149736e-40
-1.8985862e-41
-1.2532821e-38
-1.007408e-39
-3.8553927e-37
-4.2114941e-38
-9.2391196e-36
-1.3418691e-36
-1.2871169e-34
-2.9235296e-35
-9.6028213e-34
-3.8172693e-34
-5.0646399e-33
-7.8011498e-33
-3.1280021e-32
-5.6676305e-32
-2.4524402e-31
-5.516051e-31
3.8296812e-31
-1.5113392e-29
2.132978e-28
-5.779628e-28
1.3364935e-26
-2.3741731e-26
7.4464171e-25
-1.0758714e-24
4.8907355e-23
-6.1736496e-23
5.2013612e-21
-5.9436565e-21
1.1077006e-19
-1.4903985e-19
6.8744129e-19
-1.1874531e-18
1.4899149e-18
-4.4984067e-18
1.1149867e-18
-2.9821162e-18
2.5845341e-19
-1.9622029e-19
4.3438106e-20
-3.9544392e-20
3.568456e-21
-3.4988583e-21
1.7844419e-22
-1.3177052e-22
1.0199211e-23
-8.7767193e-25
7.8575996e-25
1.4811821e-25
4.8207314e-26
2.0449408e-26
2.8037516e-27
1.8620292e-27
1.5552181e-28
1.4067747e-28
8.0653512e-30
9.3215987e-30
3.8890758e-31
5.5263809e-31
1.7398226e-32
2.9593901e-32
7.2050646e-34
1.4382002e-33
2.756616e-35
6.3588398e-35
9.726428e-37
2.5616987e-36
3.1596843e-38
9.4124473e-38
9.4348011e-40
3.1565011e-39
2.5852946e-41
9.6654991e-41
6.490326e-43
2.7028099e-42
1.4903247e-44
6.9000912e-44
3.1246118e-46
1.6071741e-45
5.9704862e-48
3.4126137e-47
1.037644e-49
6.5962801e-49
1.6365963e-51
1.1602704e-50
2.337019e-53
1.8512667e-52
3.0133273e-55
2.677136e-54
3.4977208e-57
3.4986352e-56
3.6426799e-59
4.1213218e-58
3.3909015e-61
4.3627251e-60
2.809124e-63
4.1377774e-62
2.0608101e-65
3.5012575e-64
1.3310185e-67
2.6310844e-66
7.5150639e-70
1.7465133e-68
3.6769387e-72
1.0180681e-70
1.5425133e-74
5.1769361e-73
5.4767371e-77
2.2763435e-75
1.61827e-79
8.5524469e-78
3.8943254e-82
2.7112885e-80
2.2785791e-84
7.1316273e-83
1.3410259e-84
6.4060098e-85
6.1249752e-85
4.5174071e-85
4.6290294e-85
4.7059988e-85
2.374655e-85
4.4842846e-85
4.1789705e-85
-5.1370427e-88
9.7167082e-88
-5.7129902e-86
2.7738555e-86
-4.7420515e-84
1.2697148e-84
-1.6138592e-83
1.3182808e-83
-1.8967298e-83
2.1813914e-83
-1.7679548e-83
1.9312188e-83
-1.0646232e-83
1.365412e-83
-2.3645529e-84
5.9477263e-84
-6.8183269e-85
1.1098851e-84
-3.5543614e-84
3.422393e-85
-1.081119e-82
1.3932848e-83
-9.7953315e-81
1.6966321e-81
-8.0342317e-79
1.6958334e-79
-8.1223797e-77
1.7037246e-77
-8.4222708e-75
1.6580203e-75
-8.2221295e-73
1.5158424e-73
-7.507344e-71
1.2988423e-71
-6.434027e-69
1.0457615e-69
-5.195823e-67
7.9449774e-68
-3.966941e-65
5.7109179e-66
-2.871973e-63
3.8927882e-64
-1.9767464e-61
2.5227059e-62
-1.2962937e-59
1.5575921e-60
-8.1151513e-58
9.1674478e-59
-4.8551485e-56
5.1483678e-57
-2.7613957e-54
2.7562244e-55
-1.4893618e-52
1.4044363e-53
-8.6677875e-51
6.8910947e-52
-7.9452684e-49
3.5046779e-50
-4.7669017e-47
1.6349307e-48
-5.3923133e-46
2.8173852e-47
-1.7332199e-45
1.3521897e-46
-5.4174554e-45
3.28089e-46
-4.842925e-44
1.3983325e-45
-1.5146195e-42
9.3282912e-45
-6.8420407e-41
-1.0855773e-42
-3.0459195e-39
-1.3296631e-40
-1.2202795e-37
-9.2392341e-39
-4.3086335e-36
-4.8596394e-37
-1.3168557e-34
-2.003939e-35
-3.177012e-33
-6.240312e-34
-4.4028973e-32
-1.2998471e-32
-2.6339626e-31
-1.5418365e-31
-1.0056936e-30
-1.0954099e-30
-5.5132599e-30
-8.2192841e-30
-5.4854136e-29
-1.3948613e-28
-1.8379397e-28
-3.6336205e-27
2.5553896e-26
-9.8344758e-26
1.6109464e-24
-2.981747e-24
8.4482418e-23
-1.0566018e-22
5.2670246e-21
-5.6483268e-21
5.4181532e-19
-5.7957484e-19
1.0461257e-17
-1.065696e-17
5.1031822e-17
-4.5351384e-17
8.7031574e-17
-5.8992282e-17
8.0202108e-17
-4.7922011e-17
3.619643e-17
-2.5389177e-17
6.8041673e-18
-6.491595e-18
5.83487e-19
-7.0462771e-19
3.2497742e-20
-2.899691e-20
1.9403179e-21
-5.9984837e-23
1.4452616e-22
8.9716771e-23
8.9380535e-24
1.1617382e-23
5.1931639e-25
1.0296037e-24
2.8339995e-26
7.5733025e-26
1.4340096e-27
4.8610487e-27
6.7101395e-29
2.7787553e-28
2.9017513e-30
1.4302323e-29
1.1585568e-31
6.6692804e-31
4.2664352e-33
2.8279301e-32
1.4476392e-34
1.0929358e-33
4.520731e-36
3.8557147e-35
1.2976361e-37
1.2427744e-36
3.4188705e-39
3.6613868e-38
8.2556342e-41
9.8599434e-40
1.824199e-42
2.4261606e-41
3.6821425e-44
5.4514657e-43
6.777089e-46
1.1174037e-44
1.1349587e-47
2.0870575e-46
1.7255637e-49
3.547959e-48
2.3757017e-51
5.4763846e-50
2.9534987e-53
7.6617164e-52
3.3053945e-55
9.6898787e-54
3.3181596e-57
1.1049194e-55
2.9757466e-59
1.1322029e-57
2.3730251e-61
1.0391287e-59
1.6739356e-63
8.5032162e-62
1.0379688e-65
6.1764065e-64
5.6157721e-68
3.9589642e-66
2.6286004e-70
2.2240284e-68
1.0532125e-72
1.0884789e-70
3.564773e-75
4.5972667e-73
1.0014257e-77
1.6575437e-75
2.282147e-80
5.0293537e-78
6.2190878e-83
1.2615332e-80
1.1721616e-83
5.5333415e-83
5.5897507e-84
1.8808848e-83
1.5205358e-84
8.5155141e-84
2.2090299e-85
7.6718712e-85
7.0796491e-85
-6.5278173e-85
2.5391314e-84
-1.1415839e-82
6.038053e-83
-5.1120475e-81
2.4171728e-81
-1.2300373e-80
1.6749867e-80
-1.4069511e-80
2.3053416e-80
-1.2273941e-80
1.894675e-80
-7.0740432e-81
1.2418503e-80
-1.7643217e-81
5.2532678e-81
-2.0903632e-82
1.0332388e-81
-3.3970983e-82
1.8411751e-82
-3.1911242e-80
1.1160195e-80
-4.3434605e-78
1.400849e-78
-5.3868417e-76
1.6102347e-76
-6.1362406e-74
1.7057709e-74
-6.4615897e-72
1.6751883e-72
-6.325394e-70
1.5337807e-70
-5.7846207e-68
1.313793e-68
-4.9645073e-66
1.0581376e-66
-4.0135619e-64
8.0378825e-65
-3.0670139e-62
5.7760538e-63
-2.2219375e-60
3.9366273e-61
-1.5299834e-58
2.5505361e-59
-1.0035953e-56
1.5748896e-57
-6.2833393e-55
9.2664134e-56
-3.7587826e-53
5.2046987e-54
-2.1367563e-51
2.7852807e-52
-1.1525159e-49
1.418644e-50
-6.7115264e-48
6.9552383e-49
-6.0048766e-46
3.5274241e-47
-3.4435945e-44
1.6257153e-45
-3.9951158e-43
2.8500972e-44
-1.5330841e-42
1.4969916e-43
-6.106997e-42
4.2859855e-43
-3.4691306e-41
1.6015862e-42
-4.3347292e-40
5.2289906e-42
-1.5093891e-38
-2.4866002e-40
-6.5615387e-37
-3.4109771e-38
-2.6062527e-35
-2.4163143e-36
-9.1354239e-34
-1.2685524e-34
-2.7799896e-32
-5.1857137e-33
-6.65277e-31
-1.5819733e-31
-8.8373899e-30
-3.1477998e-30
-4.7818654e-29
-3.4071069e-29
-1.5542221e-28
-2.0913311e-28
-7.2705757e-28
-1.2879685e-27
-7.5655271e-27
-1.9563383e-26
-5.4201886e-26
-4.9266038e-25
1.5470917e-24
-1.2159886e-23
1.1613983e-22
-3.3418209e-22
6.0316148e-21
-1.0973196e-20
3.5892463e-19
-5.216678e-19
3.4784041e-17
-3.7973296e-17
6.5217169e-16
-6.8452462e-16
3.1968135e-15
-2.913401e-15
5.5028827e-15
-2.9738852e-15
5.0513989e-15
-8.4805215e-17
2.4233346e-15
-1.7286461e-16
5.580788e-16
-8.9579685e-17
5.7554411e-17
-5.647625e-17
3.5732944e-18
-3.1551146e-18
2.268161e-19
1.7781096e-20
1.6717246e-20
1.5194807e-20
1.0551326e-21
1.8829814e-21
6.2085838e-23
1.6550092e-22
3.4035281e-24
1.21205e-23
1.7199981e-25
7.7322267e-25
7.9984567e-27
4.37951e-26
3.4225614e-28
2.2264411e-27
1.3469268e-29
1.0224346e-28
4.8722658e-31
4.2582276e-30
1.6190889e-32
1.6127024e-31
4.9395244e-34
5.5642915e-33
1.3823825e-35
1.7511655e-34
3.5454696e-37
5.0307054e-36
8.3236672e-39
1.3196048e-37
1.7863498e-40
3.1600457e-39
3.4989564e-42
6.9056437e-41
6.244253e-44
1.3756371e-42
1.0131699e-45
2.4961155e-44
1.4914823e-47
4.1182791e-46
1.9866964e-49
6.1691956e-48
2.3877737e-51
8.3684309e-50
2.5811825e-53
1.0256587e-51
2.5004547e-55
1.1325445e-53
2.1614851e-57
1.1230607e-55
1.6595405e-59
9.962385e-58
1.1254628e-61
7.8732186e-60
6.7004722e-64
5.5138813e-62
3.4769627e-66
3.4035157e-64
1.5576729e-68
1.8410073e-66
5.9556146e-71
8.6562545e-69
1.9156721e-73
3.5041148e-71
5.0907087e-76
1.2061185e-73
1.7740138e-78
3.479662e-76
2.0124572e-80
8.5167562e-79
1.4895112e-80
4.3459101e-80
8.2329171e-81
3.2627464e-80
1.9940584e-81
1.6437946e-80
2.8184533e-82
3.9362177e-81
2.6878413e-81
-4.5677567e-82
1.6832978e-81
-1.2145748e-79
6.6446925e-80
-3.1230685e-78
2.370896e-78
-6.1652533e-78
1.1646463e-77
-7.0209094e-78
1.4477656e-77
-5.9910784e-78
1.1730547e-77
-3.3706548e-78
7.497675e-78
-8.3173394e-79
3.1118252e-78
-1.3250163e-79
6.2241473e-79
-2.0822973e-79
1.4543617e-79
-1.822686e-77
7.925889e-78
-2.4898203e-75
9.9717184e-76
-3.0968604e-73
1.1477864e-73
-3.5350106e-71
1.2169253e-71
-3.7274931e-69
1.1956687e-69
-3.6524603e-67
1.0944026e-67
-3.3427477e-65
9.3739731e-66
-2.8696727e-63
7.5443143e-64
-2.3200562e-61
5.7248609e-62
-1.7728023e-59
4.1112915e-60
-1.2841229e-57
2.8005545e-58
-8.8392103e-56
1.8139081e-56
-5.7944928e-54
1.1185028e-54
-3.6254353e-52
6.581372e-53
-2.1667211e-50
3.6939801e-51
-1.2302601e-48
1.9770626e-49
-6.6315945e-47
1.006958e-47
-3.8619103e-45
4.9407242e-46
-3.3731755e-43
2.5033616e-44
-1.8345907e-41
1.1415435e-42
-2.1244083e-40
2.0297391e-41
-9.9451892e-40
1.1694248e-40
-6.1009948e-39
4.2345165e-40
-3.2223782e-38
1.8892499e-39
-1.5156597e-37
4.2737557e-39
-2.5670277e-36
-3.2796545e-38
-1.0373081e-34
-5.5003754e-36
-4.085767e-33
-4.1393797e-34
-1.4237172e-31
-2.2006932e-32
-4.3322658e-30
-8.9780797e-31
-1.0323441e-28
-2.7025238e-29
-1.3154205e-27
-5.152671e-28
-6.4474482e-27
-5.0908383e-27
-1.7822843e-26
-2.6949936e-26
-6.9943708e-26
-1.341622e-25
-7.383809e-25
-1.7907948e-24
-7.6722919e-24
-4.3676262e-23
2.034068e-23
-1.0263848e-21
5.119786e-21
-2.5114951e-20
2.8598712e-19
-8.1776866e-19
1.7167288e-17
-2.887552e-17
1.563314e-15
-1.7234604e-15
2.8841402e-14
-3.1241084e-14
1.4386423e-13
-1.3629346e-13
2.5487676e-13
-1.4934937e-13
2.5781707e-13
-3.6102039e-14
1.2878442e-13
0
3.1695013e-14
0
3.5781471e-15
0
2.7955087e-16
-7.6931501e-17
2.050768e-17
5.4096907e-18
1.5140597e-18
1.8913528e-18
9.7501412e-20
2.2538681e-19
5.8018058e-21
1.9741838e-20
3.1910183e-22
1.4434644e-21
1.6060305e-23
9.1573315e-23
7.3897427e-25
5.1320079e-24
3.1127446e-26
2.5695133e-25
1.2009739e-27
1.157576e-26
4.2447207e-29
4.714219e-28
1.374288e-30
1.7411426e-29
4.0750623e-32
5.8454201e-31
1.1062178e-33
1.7866712e-32
2.7473557e-35
4.9771333e-34
6.2369602e-37
1.2643113e-35
1.2927484e-38
2.928868e-37
2.4430709e-40
6.1854819e-39
4.2025576e-42
1.1899036e-40
6.5666508e-44
2.0835566e-42
9.2980707e-46
3.3150263e-44
1.1901717e-47
4.7825064e-46
1.3731169e-49
6.2445031e-48
1.4229233e-51
7.359526e-50
1.3195201e-53
7.8041012e-52
1.0900389e-55
7.4244082e-54
7.9817117e-58
6.3071865e-56
5.1516035e-60
4.7645465e-58
2.9106981e-62
3.184126e-60
1.4276753e-64
1.8710392e-62
6.0195958e-67
9.5996418e-65
2.1561516e-69
4.263946e-67
6.4643888e-72
1.6232345e-69
1.6196584e-74
5.2299396e-72
4.1475274e-77
1.4077812e-74
1.1463501e-77
5.4559547e-77
1.0709318e-77
3.9466432e-77
6.5176089e-78
3.3266102e-77
1.403821e-78
1.6792666e-77
1.4925936e-79
4.5403059e-78
2.4147307e-78
-2.1269794e-79
8.1189882e-79
-6.7635725e-77
4.0357002e-77
-1.3598623e-75
1.3763937e-75
-2.3745167e-75
5.7523566e-75
-2.6998567e-75
6.7080807e-75
-2.2747942e-75
5.4047269e-75
-1.2604252e-75
3.4003294e-75
-3.0797189e-76
1.3951321e-75
-6.3668886e-77
2.8436347e-76
-9.9758324e-77
8.3742736e-77
-8.6840287e-75
4.5149983e-75
-1.1898477e-72
5.6938977e-73
-1.4832037e-70
6.5614296e-71
-1.6956582e-68
6.961331e-69
-1.789662e-66
6.840725e-67
-1.7544536e-64
6.258093e-65
-1.6058113e-62
5.356413e-63
-1.3783379e-60
4.3070891e-61
-1.1138463e-58
3.264322e-59
-8.5045292e-57
2.3410158e-57
-6.1541842e-55
1.5926122e-55
-4.2320002e-53
1.03014e-53
-2.7719089e-51
6.3501009e-52
-1.7325558e-49
3.7334002e-50
-1.0344019e-47
2.0959683e-48
-5.8655532e-46
1.1223592e-46
-3.1590285e-44
5.7204669e-45
-1.8420865e-42
2.8097804e-43
-1.5894941e-40
1.4278214e-41
-8.2469985e-39
6.472333e-40
-9.295653e-38
1.156163e-38
-4.9967755e-37
7.0939177e-38
-4.4574035e-36
3.1430443e-37
-2.620588e-35
1.7320384e-36
-6.9564956e-35
3.816612e-36
-4.0838009e-34
-2.2738465e-36
-1.2905719e-32
-6.0309894e-34
-5.0223637e-31
-5.0994908e-32
-1.7452684e-29
-2.7963672e-30
-5.332937e-28
-1.1508103e-28
-1.2712632e-26
-3.4422935e-27
-1.5545381e-25
-6.3183099e-26
-6.9083693e-25
-5.7005171e-25
-1.6167342e-24
-2.5929315e-24
-5.1603052e-24
-1.021316e-23
-5.2397836e-23
-1.1676714e-22
-6.8180195e-22
-2.774e-21
-4.1210888e-21
-6.3265807e-20
1.1889598e-19
-1.4269576e-18
9.3924405e-18
-4.4875012e-17
9.1436856e-16
-8.8368423e-16
6.8953282e-14
-7.462681e-14
1.0025385e-12
-1.1010661e-12
4.7857907e-12
-4.688135e-12
8.7524684e-12
-5.6060093e-12
1.0189235e-11
-2.995035e-12
5.2897425e-12
0
1.389005e-12
0
1.6084279e-13
0
1.464414e-14
0
1.314278e-15
1.3175389e-15
1.0560419e-16
1.8480359e-16
7.0423136e-18
2.0276123e-17
4.2104731e-19
1.7691084e-18
2.3124284e-20
1.2899066e-19
1.1559839e-21
8.1280147e-21
5.2444571e-23
4.4988128e-22
2.1642269e-24
2.2116155e-23
8.139809e-26
9.7330275e-25
2.7932639e-27
3.8559248e-26
8.7517381e-29
1.3806313e-27
2.5044958e-30
4.4807631e-29
6.5463691e-32
1.3208662e-30
1.5624282e-33
3.5417342e-32
3.4028784e-35
8.6453254e-34
6.7563672e-37
1.9217725e-35
1.2214675e-38
3.8889631e-37
2.0071808e-40
7.1619453e-39
2.9920122e-42
1.1988749e-40
4.0369449e-44
1.8212881e-42
4.9165268e-46
2.5063919e-44
5.3877993e-48
3.1172978e-46
5.2940555e-50
3.494213e-48
4.6442235e-52
3.5192396e-50
3.6208076e-54
3.172e-52
2.4952534e-56
2.5480912e-54
1.5106061e-58
1.8148843e-56
7.9750133e-61
1.1401734e-58
3.6398519e-63
6.2755364e-61
1.4309086e-65
3.0037788e-63
4.935064e-68
1.2394986e-65
1.4353109e-70
4.3587742e-68
6.2112537e-73
1.2882639e-70
6.4405979e-75
3.3556426e-73
4.7909806e-75
1.8259893e-74
5.849672e-75
2.7982381e-74
3.4615138e-75
2.4357012e-74
6.3850613e-76
1.2042067e-74
3.2135378e-77
3.4134046e-75
1.5586587e-75
-7.3810535e-77
3.0712092e-76
-2.574178e-74
1.7060285e-74
-4.5791124e-73
5.7040228e-73
-7.401187e-73
2.1905314e-72
-8.4261929e-73
2.4534907e-72
-7.0542873e-73
1.9722035e-72
-3.8734705e-73
1.2297605e-72
-9.245474e-74
5.0087617e-73
-2.5919693e-74
1.0409764e-73
-4.0713866e-74
3.9790741e-74
-3.5456361e-72
2.1527675e-72
-4.8604725e-70
2.7059851e-70
-6.0726173e-68
3.1224149e-68
-6.9482477e-66
3.3140563e-66
-7.3357384e-64
3.2541345e-64
-7.1907949e-62
2.9739203e-62
-6.5774355e-60
2.5420073e-60
-5.6394833e-58
2.0400165e-58
-4.5509805e-56
1.543183e-56
-3.4689215e-54
1.1039487e-54
-2.5058706e-52
7.4952262e-53
-1.7201168e-50
4.8390528e-51
-1.1246453e-48
2.9783512e-49
-7.0177851e-47
1.7498455e-47
-4.1822502e-45
9.8176814e-46
-2.3670813e-43
5.2573594e-44
-1.273832e-41
2.6839809e-42
-7.4532712e-40
1.3232537e-40
-6.4164147e-38
6.7668434e-39
-3.1968239e-36
3.0596578e-37
-3.4652674e-35
5.4407868e-36
-2.0180765e-34
3.4662073e-35
-2.3428417e-33
1.7854052e-34
-1.5785918e-32
1.1869212e-33
-3.2104261e-32
2.8358993e-33
-8.1514134e-32
1.3765327e-33
-1.3515928e-30
-4.5584301e-32
-5.0776648e-29
-4.6907084e-30
-1.7645228e-27
-2.7387522e-28
-5.4396612e-26
-1.1544126e-26
-1.3017342e-24
-3.4673297e-25
-1.5278987e-23
-6.1615453e-24
-6.1634476e-23
-5.0848924e-23
-1.2117558e-22
-1.9835854e-22
-3.033294e-22
-6.0902785e-22
-2.7953813e-21
-5.8202798e-21
-4.2115185e-20
-1.3969931e-19
-4.534647e-19
-3.1488073e-18
-1.2366511e-18
-6.045196e-17
2.582771e-16
-9.2395924e-16
6.5524693e-14
-7.1000386e-14
1.8790412e-12
-2.0281438e-12
2.3811705e-11
-2.7384051e-11
1.1795796e-10
-1.22625e-10
2.437463e-10
-1.7730238e-10
2.9780352e-10
-1.078074e-10
1.7472343e-10
0
5.3710981e-11
0
5.5789526e-12
0
2.8367142e-13
-4.3865815e-13
3.4125425e-14
2.7794762e-13
4.2577264e-15
2.3041022e-14
3.4870241e-16
1.1563654e-15
2.0929489e-17
1.021738e-16
1.1390338e-18
7.5600601e-18
5.6367484e-20
4.7502643e-19
2.5149043e-21
2.596337e-20
1.0129628e-22
1.2509136e-21
3.6958666e-24
5.3595415e-23
1.2244024e-25
2.0557439e-24
3.68904e-27
7.0947508e-26
1.0119257e-28
2.2112602e-27
2.5286283e-30
6.2411503e-29
5.7567214e-32
1.5982992e-30
1.1936491e-33
3.7183559e-32
2.252475e-35
7.8634588e-34
3.8637333e-37
1.5115011e-35
6.0142971e-39
2.6399399e-37
8.4788054e-41
4.1843886e-39
1.0800035e-42
6.0097733e-41
1.2394749e-44
7.8058144e-43
1.2771555e-46
9.1468721e-45
1.1769544e-48
9.6383481e-47
9.6575997e-51
9.1025044e-49
7.0200512e-53
7.6718807e-51
4.4945188e-55
5.7435837e-53
2.5176392e-57
3.7996151e-55
1.2444524e-59
2.2069418e-57
5.3468559e-62
1.1169979e-59
1.9594583e-64
4.8855392e-62
6.0419207e-67
1.826251e-64
1.5649435e-69
5.7576003e-67
3.8426031e-72
1.5337104e-69
1.8691811e-72
7.9089759e-72
2.3906755e-72
1.0579603e-71
2.3559445e-72
1.5665407e-71
1.3105295e-72
1.3704604e-71
1.8327518e-73
6.5480146e-72
-1.0526541e-74
1.8814588e-72
7.8008665e-73
-2.052189e-74
9.5893278e-74
-7.5550389e-72
5.577125e-72
-1.2597938e-70
1.850787e-70
-1.938806e-70
6.7718916e-70
-2.2103126e-70
7.3923678e-70
-1.846373e-70
5.9417704e-70
-1.0090769e-70
3.6891654e-70
-2.2908034e-71
1.4980838e-70
-9.6726295e-72
3.2038507e-71
-1.519209e-71
1.6999844e-71
-1.2592692e-69
8.8826992e-70
-1.704453e-67
1.0822269e-67
-2.1332498e-65
1.2502781e-65
-2.4409591e-63
1.3264066e-63
-2.5762134e-61
1.3004509e-61
-2.5232469e-59
1.1864304e-59
-2.3046943e-57
1.0119217e-57
-1.9721436e-55
8.0978881e-56
-1.5878365e-53
6.1075815e-54
-1.2072881e-51
4.3562238e-52
-8.6970484e-50
2.9477387e-50
-5.9536379e-48
1.8978487e-48
-3.8824667e-46
1.1655087e-46
-2.4170467e-44
6.8379013e-45
-1.4377364e-42
3.8353198e-43
-8.1239477e-41
2.0560759e-41
-4.3684981e-39
1.0519812e-39
-2.5669825e-37
5.2084226e-38
-2.2186702e-35
2.6854386e-36
-1.0679524e-33
1.2151146e-34
-1.1099855e-32
2.1406484e-33
-6.6969276e-32
1.3897875e-32
-9.1621425e-31
7.9531295e-32
-7.0006082e-30
6.1556308e-31
-1.3147144e-29
1.6442161e-30
-2.1444795e-29
1.3151838e-30
-1.2968032e-28
-2.0520499e-30
-4.334784e-27
-3.1830394e-28
-1.5117772e-25
-2.1105819e-26
-4.7292714e-24
-9.3343716e-25
-1.139229e-22
-2.853397e-23
-1.2825666e-21
-4.9489161e-22
-4.7158732e-21
-3.7893545e-21
-7.7618952e-21
-1.3173931e-20
-1.4761838e-20
-3.2926387e-20
-1.1341766e-19
-2.4020988e-19
-1.975444e-18
-6.1645376e-18
-3.5260612e-17
-1.3301066e-16
-1.416828e-16
-1.7522307e-15
-1.7444776e-16
-5.4468713e-15
7.2879634e-13
-9.3449068e-13
2.6040611e-11
-3.1285942e-11
4.6789967e-10
-5.7873913e-10
2.6055001e-09
-2.8175255e-09
5.982062e-09
-4.5963737e-09
7.500309e-09
-1.2314026e-08
5.1094942e-09
-1.2411952e-10
1.9956894e-09
0
2.2931939e-10
0
1.6435475e-11
1.7634963e-11
1.7406665e-12
1.4977543e-11
8.9178431e-14
1.6279293e-12
4.5122931e-15
8.1397686e-14
4.7180401e-16
2.9372711e-15
3.2426357e-17
2.0414809e-16
1.3580474e-18
1.3357924e-17
5.6122136e-20
6.9908559e-19
2.192526e-21
3.2530688e-20
7.7159212e-23
1.3452162e-21
2.4466483e-24
4.9515123e-23
7.0257147e-26
1.6317067e-24
1.8309722e-27
4.8369253e-26
4.3353903e-29
1.2943152e-27
9.3316957e-31
3.1343722e-29
1.8258179e-32
6.8803382e-31
3.2455129e-34
1.3702106e-32
5.2354258e-36
2.4761499e-34
7.6515532e-38
4.0591414e-36
1.0109579e-39
6.0277464e-38
1.2043824e-41
8.09625e-40
1.2896653e-43
9.8133968e-42
1.2365848e-45
1.0704181e-43
1.0569465e-47
1.047024e-45
8.0132108e-50
9.1451709e-48
5.3579996e-52
7.0985859e-50
3.1393465e-54
4.8697311e-52
1.5991965e-56
2.9342691e-54
7.0161558e-59
1.5404628e-56
2.6225688e-61
6.9826306e-59
8.2365399e-64
2.7048485e-61
2.1368911e-66
8.8257394e-64
2.7783067e-68
2.4087548e-66
5.4003198e-70
8.8664507e-69
4.1421246e-70
2.3387324e-69
9.2309648e-70
5.1764021e-69
7.2216842e-70
7.1132838e-69
3.415951e-70
6.1742894e-69
2.0617811e-71
2.8266762e-69
-1.2601444e-71
8.0939236e-70
3.1578662e-70
-4.7700788e-72
2.5666934e-71
-1.8090924e-69
1.4891147e-69
-2.921221e-68
4.9370411e-68
-4.3657306e-68
1.7603958e-67
-4.993382e-68
1.890623e-67
-4.1770166e-68
1.5227781e-67
-2.2805155e-68
9.44711e-68
-4.9042933e-69
3.8403619e-68
-2.9847367e-69
8.5833354e-69
-4.7548501e-69
5.9128341e-69
-3.8126013e-67
3.0689243e-67
-5.1077629e-65
3.6436747e-65
-6.3997973e-63
4.2129934e-63
-7.3236924e-61
4.4650272e-61
-7.7249453e-59
4.370186e-59
-7.5549586e-57
3.9777919e-57
-6.8843127e-55
3.3813605e-55
-5.8734573e-53
2.6955949e-53
-4.7122814e-51
2.0243506e-51
-3.5692821e-49
1.4373722e-49
-2.5613526e-47
9.6843792e-48
-1.7466801e-45
6.2101966e-46
-1.1349159e-43
3.8013807e-44
-7.0422057e-42
2.2247147e-42
-4.1770091e-40
1.2466538e-40
-2.3544473e-38
6.6868098e-39
-1.2646726e-36
3.4299561e-37
-7.461398e-35
1.7063521e-35
-6.4855717e-33
8.8903662e-34
-3.0365208e-31
4.0372162e-32
-3.0489566e-30
7.0798508e-31
-1.8881381e-29
4.6744819e-30
-2.8973047e-28
2.9124764e-29
-2.3962606e-27
2.5287002e-28
-4.4423103e-27
7.3683058e-28
-5.7155076e-27
7.0632656e-28
-1.3425707e-26
2.600319e-28
-3.1865335e-25
-1.4066421e-26
-1.1182796e-23
-1.2701658e-24
-3.5726814e-22
-6.1735977e-23
-8.6516412e-21
-1.9677058e-21
-9.3220676e-20
-3.4091136e-20
-3.1903734e-19
-2.5155157e-19
-4.3829805e-19
-8.7995204e-19
-6.205985e-19
-1.7273172e-18
-3.250594e-18
-6.5201609e-18
-5.7299949e-17
-1.5385845e-16
-1.0406214e-15
-3.2341008e-15
-1.1982538e-15
-6.449532e-14
-3.4598508e-14
-1.0978763e-13
0
-3.2110157e-12
7.2523018e-10
-7.9597134e-10
2.0665333e-08
-5.926965e-08
1.3925022e-07
-3.3516816e-07
3.0613619e-07
-5.1234672e-07
2.9026921e-07
-4.3045389e-07
1.8194461e-07
-2.9104782e-07
5.8771748e-08
-1.4986253e-07
4.055696e-09
-4.4501338e-09
9.7185607e-10
4.1658005e-09
8.7405621e-11
8.8268946e-10
5.1899421e-12
8.2870332e-11
3.5824834e-13
4.8099963e-12
1.4619714e-14
3.3810528e-13
3.629505e-16
1.3569154e-14
2.0646532e-17
2.889826e-16
9.1196834e-19
1.3267565e-17
3.1767507e-20
5.9023272e-19
1.0398192e-21
2.2859403e-20
3.1021115e-23
7.9157407e-22
8.3515449e-25
2.4492654e-23
2.034819e-26
6.7983838e-25
4.4972932e-28
1.6999574e-26
9.0246091e-30
3.8415699e-28
1.6438995e-31
7.8590596e-30
2.7166207e-33
1.4570298e-31
4.0670371e-35
2.4482251e-33
5.5069404e-37
3.7256888e-35
6.7294277e-39
5.1291479e-37
7.3995389e-41
6.3779695e-39
7.2917971e-43
7.1433057e-41
6.4116696e-45
7.1804693e-43
5.0055216e-47
6.4520126e-45
3.4492772e-49
5.1571422e-47
2.0837708e-51
3.6462923e-49
1.0948124e-53
2.2654768e-51
4.9569243e-56
1.2272059e-53
1.9132183e-58
5.7431831e-56
6.2083203e-61
2.297801e-58
1.6666696e-63
7.753605e-61
3.7512839e-66
2.1742104e-63
1.0898854e-67
5.8465457e-66
8.20065e-68
5.2491631e-67
1.7860464e-67
1.0447873e-66
2.3935896e-67
2.1094596e-66
1.5589134e-67
2.6832215e-66
4.5090145e-68
2.2868412e-66
-8.4041456e-69
9.9936901e-67
-6.9905993e-69
2.8341472e-67
1.0569694e-67
-9.5582736e-70
6.0758959e-69
-3.6615608e-67
3.3656797e-67
-5.8611657e-66
1.1196822e-65
-8.6112035e-66
3.9451715e-65
-9.8949202e-66
4.1963713e-65
-8.3123839e-66
3.3936029e-65
-4.5797181e-66
2.1096899e-65
-1.0346547e-66
8.6353905e-66
-5.0025503e-67
1.9005342e-66
-9.0907115e-67
1.1045765e-66
-9.5230136e-65
8.4325791e-65
-1.281342e-62
1.0135468e-62
-1.5978807e-60
1.1654027e-60
-1.8252884e-58
1.2291458e-58
-1.9229593e-56
1.2002473e-56
-1.8761639e-54
1.0887477e-54
-1.7038295e-52
9.2135493e-53
-1.4474869e-50
7.3064326e-51
-1.1556482e-48
5.4545623e-49
-8.7074828e-47
3.8491951e-47
-6.2151326e-45
2.5781664e-45
-4.2156505e-43
1.6439988e-43
-2.725034e-41
1.0011162e-41
-1.6831352e-39
5.8379773e-40
-9.9431504e-38
3.2641449e-38
-5.5863353e-36
1.7505616e-36
-2.9956657e-34
8.998648e-35
-1.7704247e-32
4.5011055e-33
-1.5354472e-30
2.3656935e-31
-7.0283882e-29
1.0816143e-29
-7.0117371e-28
1.921859e-28
-4.641476e-27
1.3236731e-27
-7.7280416e-26
9.1207465e-27
-6.3826831e-25
8.386885e-26
-1.1906696e-24
2.5397006e-25
-1.3071638e-24
2.6860347e-25
-1.7382082e-24
1.580193e-25
-2.0572257e-23
-1.6686812e-25
-7.2377843e-22
-5.5327282e-23
-2.3859381e-20
-3.3396635e-21
-5.8812843e-19
-1.1920188e-19
-6.2037901e-18
-2.0894269e-18
-1.9496942e-17
-1.2300533e-17
-1.9645029e-17
-2.7509165e-17
-1.956489e-17
-3.2915085e-17
-4.7388533e-17
-7.0840151e-17
-5.4997228e-16
-1.1746429e-15
0
-2.8361113e-14
-2.8110523e-13
-1.0467058e-12
0
-5.2236613e-11
2.2035332e-10
0
7.2171411e-08
-1.6297808e-07
3.7446954e-07
-5.3527622e-07
5.2581061e-07
-5.8373902e-07
6.8352405e-07
-6.4687763e-07
7.9255333e-07
-5.1245826e-07
8.4242226e-07
-3.1901674e-07
8.4904125e-07
-1.3426534e-07
2.898996e-07
5.6516524e-08
5.6464381e-08
5.2032064e-08
5.3715953e-09
5.1678268e-08
2.8847484e-10
5.13878e-09
1.9741009e-11
2.7139702e-10
1.1110205e-12
1.8812967e-11
3.5205016e-14
1.07748e-12
6.2911127e-16
3.3908619e-14
2.587941e-17
6.0836935e-16
9.3344485e-19
2.2283035e-17
2.9716842e-20
7.9775673e-19
8.4687863e-22
2.5629179e-20
2.1588984e-23
7.3480649e-22
4.9553628e-25
1.8874951e-23
1.0263111e-26
4.3616141e-25
1.9215365e-28
9.0939013e-27
3.254592e-30
1.7144407e-28
4.9870847e-32
2.9252774e-30
6.9065705e-34
4.5185597e-32
8.6300189e-36
6.3132547e-34
9.7063963e-38
7.9666223e-36
9.7921832e-40
9.0599458e-38
8.8233667e-42
9.2547302e-40
7.0651465e-44
8.457455e-42
4.9960058e-46
6.8814291e-44
3.0971787e-48
4.9558579e-46
1.6686058e-50
3.1377992e-48
7.73059e-53
1.7324808e-50
3.0400826e-55
8.2630829e-53
9.9854811e-58
3.3657998e-55
2.6790848e-60
1.155236e-57
5.8739743e-63
3.2822913e-60
2.6891479e-65
7.8097067e-63
1.7715968e-65
1.314781e-64
2.8773665e-65
2.1175167e-64
4.1214338e-65
3.9655317e-64
4.1716917e-65
7.2453045e-64
1.5370227e-65
8.5411241e-64
-6.7055927e-66
7.1118949e-64
-6.4599505e-66
2.9580373e-64
-2.7489634e-66
8.2818565e-65
2.980338e-65
-1.692865e-67
1.3075881e-66
-6.4060429e-65
6.6077817e-65
-1.0333956e-63
2.2078885e-63
-1.5078101e-63
7.7680156e-63
-1.7440416e-63
8.2260618e-63
-1.4751198e-63
6.6885886e-63
-8.2091682e-64
4.1741607e-63
-2.0649478e-64
1.7225464e-63
-6.4221795e-65
3.8034245e-64
-1.0476431e-64
1.57223e-64
-9.0661913e-63
8.7057193e-63
-1.1409183e-60
1.0139362e-60
-1.3617792e-58
1.1026255e-58
-1.5383446e-56
1.1398397e-56
-1.6155301e-54
1.1070172e-54
-1.5704746e-52
9.9928367e-53
-1.4191428e-50
8.4041376e-51
-1.1982507e-48
6.6153964e-49
-9.4993166e-47
4.8981147e-47
-7.1011199e-45
3.4257673e-45
-5.0252721e-43
2.2727985e-43
-3.3786328e-41
1.4358596e-41
-2.1643836e-39
8.6655171e-40
-1.324542e-37
5.0092566e-38
-7.7570418e-36
2.7806537e-36
-4.3328634e-34
1.4835858e-34
-2.3047704e-32
7.594066e-33
-1.2569403e-30
3.7597411e-31
-8.3655993e-29
1.8748799e-29
-4.248486e-27
8.8787572e-28
-8.9294792e-26
2.4454367e-26
-1.6964947e-24
3.5692301e-25
-3.1651914e-23
4.5099296e-24
-1.6486631e-22
3.2780652e-23
-2.5168711e-22
7.6886459e-23
-2.228027e-22
7.8762868e-23
-2.4512171e-22
4.7323508e-23
-1.2272327e-21
5.1698788e-23
-4.1522065e-20
-1.3020081e-21
-1.4513517e-18
-1.4580427e-19
-3.8024996e-17
-5.4423769e-18
-3.4133591e-16
-7.523242e-17
-7.5035596e-16
-2.2633266e-16
-6.3563381e-16
-5.1797436e-17
-2.0269125e-16
-4.6507836e-16
-3.2733418e-16
-4.133386e-16
-6.6677119e-16
-4.9742225e-15
0
-5.8242451e-14
0
-1.5410614e-12
0
-1.0186607e-10
4.1340857e-08
-4.1365642e-08
3.2117727e-07
-6.0922192e-07
6.0371071e-07
-8.4471712e-07
6.9001443e-07
-7.122513e-07
7.8300991e-07
-7.3685319e-07
8.3877789e-07
-4.32076e-07
9.0268198e-07
-8.2171353e-08
9.3083984e-07
-8.4679699e-09
9.5177357e-07
1.1418782e-07
7.4201433e-07
3.4649591e-07
2.7172362e-07
3.0972804e-07
7.8657475e-09
1.6170388e-07
4.8210169e-10
7.5612961e-09
2.649738e-11
4.6304627e-10
1.2072581e-12
2.5846269e-11
4.4979165e-14
1.159312e-12
1.6976425e-15
4.1882974e-14
5.6563251e-17
1.5722485e-15
1.6609372e-18
5.2078738e-17
4.3498204e-20
1.5155602e-18
1.0222393e-21
3.9198461e-20
2.1174409e-23
9.0667539e-22
3.9259286e-25
1.8811993e-23
6.5633947e-27
3.5040935e-25
9.8978616e-29
5.8839903e-27
1.3459714e-30
8.9174073e-29
1.6469126e-32
1.2196331e-30
1.8079529e-34
1.5023989e-32
1.7720992e-36
1.6625838e-34
1.5420894e-38
1.6452602e-36
1.1815257e-40
1.4483378e-38
7.8780553e-43
1.1255302e-40
4.4974498e-45
7.639783e-43
2.3668215e-47
4.4626144e-45
1.0757578e-49
2.195878e-47
4.1293795e-52
1.0563908e-49
1.3248343e-54
4.3508744e-52
3.4810445e-57
1.5118399e-54
7.3105455e-60
4.3600677e-57
9.5327753e-62
1.0231441e-59
3.8316471e-63
5.1830207e-62
4.5005967e-63
4.6616218e-62
5.6207384e-63
7.4050411e-62
5.5847124e-63
1.2737883e-61
1.7377569e-63
2.1248776e-61
-4.6827236e-63
2.3243872e-61
-5.8444721e-63
1.8826752e-61
-2.6183974e-63
7.4519501e-62
-8.5638919e-64
2.0544229e-62
7.1873808e-63
-2.7048019e-65
2.6235541e-64
-9.8349985e-63
1.1495478e-62
-1.6219776e-61
3.8518625e-61
-2.3719735e-61
1.3642064e-60
-2.7650457e-61
1.4434023e-60
-2.3598841e-61
1.1814588e-60
-1.3254917e-61
7.4129984e-61
-3.1504307e-62
3.0834742e-61
-1.4622137e-62
6.9970608e-62
-2.63423e-62
3.9523502e-62
-2.9011756e-60
2.989331e-60
-3.6833588e-58
3.612344e-58
-4.4345396e-56
3.9309543e-56
-5.0352041e-54
4.0863948e-54
-5.2858749e-52
3.9649013e-52
-5.1235381e-50
3.5638579e-50
-4.6096081e-48
2.9798903e-48
-3.8708737e-46
2.3297929e-46
-3.0491972e-44
1.7117255e-44
-2.2637676e-42
1.1875732e-42
-1.5906894e-40
7.8147617e-41
-1.0621207e-38
4.8997165e-39
-6.7633072e-37
2.9388832e-37
-4.1199574e-35
1.692249e-35
-2.4051554e-33
9.3848439e-34
-1.3398729e-31
5.0166306e-32
-7.1363785e-30
2.5881746e-30
-4.061445e-28
1.304043e-28
-3.1676935e-26
6.8393593e-27
-1.5587265e-24
3.3075961e-25
-2.1813961e-23
7.3825486e-24
-2.4310015e-22
7.3260328e-23
-4.057007e-21
6.9158494e-22
-2.2504752e-20
5.2877984e-21
-3.4187218e-20
1.3525299e-20
-2.9239722e-20
1.4977378e-20
-2.4071231e-20
9.2101273e-21
-7.0939573e-20
8.2894359e-21
-2.217513e-18
4.886653e-20
-7.8325805e-17
-1.0675226e-17
-1.7380976e-15
-1.0876433e-16