/*--------------------------------*- C++ -*----------------------------------*\
  =========                 |
  \\      /  F ield         | OpenFOAM: The Open Source CFD Toolbox
   \\    /   O peration     | Website:  https://openfoam.org
    \\  /    A nd           | Version:  9
     \\/     M anipulation  |
\*---------------------------------------------------------------------------*/
FoamFile
{
    format      ascii;
    class       volScalarField;
    location    "0.67";
    object      p_rgh;
}
// * * * * * * * * * * * * * * * * * * * * * * * * * * * * * * * * * * * * * //

dimensions      [1 -1 -2 0 0 0 0];

internalField   nonuniform List<scalar> 
10000
(
0
-0.0010254927
-0.0092316806
-0.019983569
-0.034646614
-0.053326782
-0.076216778
-0.10345002
-0.13517483
-0.17154513
-0.21268083
-0.25877035
-0.30995844
-0.36636641
-0.42811996
-0.49530662
-0.56803724
-0.64645221
-0.73064167
-0.82065815
-0.91657524
-1.0184743
-1.1264236
-1.2404908
-1.3607107
-1.4870806
-1.6195888
-1.7581908
-1.9027546
-2.053004
-2.2086066
-2.3692656
-2.5347066
-2.7047533
-2.879266
-3.0585487
-3.2424186
-3.430379
-3.6222361
-3.8179165
-4.0175167
-4.2213571
-4.4301166
-4.6449158
-4.8673202
-5.0996662
-5.345403
-5.6066667
-5.8915445
-6.2041849
-6.5516466
-6.9410987
-7.3787283
-7.8682752
-8.4083219
-8.9899834
-9.5972703
-10.209808
-10.80697
-11.371931
-11.893777
-12.367926
-12.800313
-13.196904
-13.563136
-13.90411
-14.224493
-14.528042
-14.817536
-15.094754
-15.360761
-15.616044
-15.860757
-16.094891
-16.318373
-16.53107
-16.732836
-16.923577
-17.103289
-17.272039
-17.429903
-17.577015
-17.713638
-17.840079
-17.956678
-18.063811
-18.161864
-18.251209
-18.332239
-18.405363
-18.470972
-18.529404
-18.580951
-18.625877
-18.664379
-18.6966
-18.722619
-18.742444
-18.754867
-18.765323
-0.0080880485
-0.0083342213
-0.01622224
-0.026754325
-0.041188833
-0.059679387
-0.082358201
-0.10936298
-0.14085324
-0.17693554
-0.21781117
-0.26363548
-0.31453352
-0.37064844
-0.4320763
-0.49891619
-0.57132301
-0.64941287
-0.73325067
-0.82291328
-0.91847496
-1.0200032
-1.1275753
-1.2412375
-1.3609986
-1.4868479
-1.6187732
-1.7567117
-1.9005403
-2.0500669
-2.2050317
-2.3651748
-2.5303141
-2.7002931
-2.8749706
-3.0542293
-3.2379561
-3.4257737
-3.6174396
-3.8128688
-4.012155
-4.2155977
-4.4238143
-4.6378545
-4.8591935
-5.0900247
-5.3335724
-5.5929335
-5.8736025
-6.1813614
-6.5236864
-6.9087376
-7.3441397
-7.8361753
-8.385489
-8.9830315
-9.6105736
-10.244196
-10.859971
-11.439616
-11.973394
-12.455892
-12.893985
-13.293452
-13.65996
-13.999492
-14.317389
-14.617697
-14.903358
-15.17635
-15.437901
-15.688682
-15.928964
-16.158799
-16.378118
-16.586782
-16.784686
-16.971775
-17.148051
-17.313572
-17.468405
-17.612707
-17.746705
-17.870689
-17.985016
-18.090061
-18.186195
-18.273789
-18.353255
-18.424965
-18.489254
-18.546462
-18.596895
-18.640805
-18.678418
-18.709924
-18.735437
-18.75501
-18.767451
-18.778506
-0.0081458365
-0.0078470865
-0.015349073
-0.025504772
-0.039605028
-0.057729208
-0.080033585
-0.10666291
-0.13772714
-0.17341485
-0.21389028
-0.25929119
-0.30978284
-0.36548226
-0.42649542
-0.4929795
-0.5650499
-0.64278948
-0.72629843
-0.81565114
-0.9109156
-1.0121748
-1.1194889
-1.2328719
-1.3523244
-1.4778623
-1.6094753
-1.7471035
-1.8906455
-2.0399733
-2.1949043
-2.3552291
-2.5207725
-2.6913838
-2.866858
-3.0469823
-3.2315109
-3.4202154
-3.6128853
-3.8094104
-4.0098299
-4.2143758
-4.4234998
-4.6381184
-4.8596214
-5.0899826
-5.3320474
-5.5893839
-5.8668545
-6.1708502
-6.5089921
-6.8910221
-7.3260141
-7.8247219
-8.3907235
-9.0135153
-9.6709018
-10.333051
-10.970322
-11.562549
-12.100409
-12.584012
-13.018888
-13.412079
-13.771042
-14.102931
-14.413654
-14.707495
-14.987349
-15.255171
-15.512107
-15.75874
-15.995206
-16.221483
-16.437462
-16.642942
-16.837764
-17.021884
-17.195329
-17.358121
-17.510313
-17.652074
-17.783628
-17.905286
-18.017405
-18.120363
-18.214531
-18.300272
-18.377974
-18.44801
-18.510755
-18.566564
-18.615755
-18.65861
-18.695325
-18.726121
-18.751196
-18.770687
-18.783522
-18.796087
-0.0055162995
-0.0047854821
-0.011901389
-0.021643011
-0.035299727
-0.052949128
-0.074764606
-0.1008537
-0.13139495
-0.16655984
-0.20648262
-0.25133909
-0.30127823
-0.35642556
-0.41693676
-0.48294759
-0.5545545
-0.63185492
-0.71494728
-0.80391571
-0.89883933
-0.99978352
-1.1067834
-1.2198486
-1.3390021
-1.4642551
-1.5955973
-1.7329837
-1.87633
-2.0255398
-2.1804825
-2.3409847
-2.5068603
-2.6779415
-2.8540588
-3.0349902
-3.2204925
-3.410351
-3.6043692
-3.8024075
-4.004496
-4.2107846
-4.4216078
-4.6376767
-4.8601676
-5.0907635
-5.3318836
-5.5870264
-5.8601786
-6.1591117
-6.4912774
-6.869536
-7.3029853
-7.8108477
-8.4038531
-9.0666104
-9.7698508
-10.474023
-11.1405
-11.747378
-12.289438
-12.771276
-13.198245
-13.579565
-13.925533
-14.244867
-14.544136
-14.827895
-15.099047
-15.359347
-15.609755
-15.850718
-16.082212
-16.304021
-16.515866
-16.717433
-16.908508
-17.089012
-17.258952
-17.418311
-17.567128
-17.705584
-17.833953
-17.952562
-18.061763
-18.16192
-18.253422
-18.336635
-18.411957
-18.479806
-18.540554
-18.594547
-18.642117
-18.683555
-18.719093
-18.748953
-18.773373
-18.792574
-18.805532
-18.818578
0.00011950758
0.0012932104
-0.0054415776
-0.014685403
-0.027783747
-0.044839616
-0.065993287
-0.091417671
-0.12128784
-0.15574845
-0.19496805
-0.23910964
-0.28832831
-0.34279914
-0.40267029
-0.46804904
-0.53904591
-0.6157724
-0.69832591
-0.78680407
-0.88128441
-0.9818061
-1.0883918
-1.2010764
-1.3198968
-1.4448523
-1.5759291
-1.7131104
-1.8563318
-2.0055214
-2.1605932
-2.3214115
-2.4878091
-2.6596266
-2.836703
-3.0188684
-3.2058871
-3.3975461
-3.5936948
-3.7942345
-3.9991092
-4.208359
-4.4221714
-4.640981
-4.8656229
-5.0973856
-5.3382403
-5.5912581
-5.8608553
-6.153965
-6.4801084
-6.8570185
-7.2861145
-7.8079212
-8.4475578
-9.1763653
-9.953702
-10.717477
-11.414422
-12.030482
-12.567902
-13.036861
-13.445235
-13.804617
-14.128876
-14.428623
-14.711092
-14.980731
-15.240115
-15.49058
-15.732667
-15.966415
-16.191546
-16.407635
-16.614226
-16.810894
-16.997321
-17.17334
-17.338891
-17.493909
-17.63846
-17.772784
-17.897169
-18.011939
-18.117454
-18.214073
-18.302195
-18.382243
-18.454631
-18.519761
-18.578007
-18.629742
-18.675293
-18.714949
-18.74897
-18.777615
-18.801144
-18.81979
-18.832529
-18.845709
0.0088077012
0.010459146
0.0041512617
-0.0044923521
-0.016923675
-0.033219384
-0.053585637
-0.078202873
-0.10721694
-0.14080617
-0.17914406
-0.2223933
-0.27075053
-0.32439635
-0.38345568
-0.44804558
-0.51829502
-0.59432024
-0.67622786
-0.76411738
-0.8580502
-0.95806153
-1.06419
-1.1764766
-1.2949539
-1.4196208
-1.5504632
-1.6874899
-1.8306715
-1.9799515
-2.1352796
-2.2965474
-2.4636481
-2.6364487
-2.8147969
-2.9985589
-3.1875735
-3.3816535
-3.5807494
-3.7848136
-3.993724
-4.2073968
-4.4258032
-4.6490206
-4.8774148
-5.1117748
-5.3536069
-5.6054716
-5.8715324
-6.1594931
-6.4773664
-6.8592089
-7.2726079
-7.8219231
-8.5411251
-9.3656114
-10.255159
-11.115988
-11.833681
-12.437864
-12.955926
-13.39977
-13.7731
-14.094175
-14.384054
-14.654729
-14.91338
-15.1638
-15.407659
-15.645528
-15.877274
-16.10233
-16.319969
-16.52943
-16.729977
-16.920994
-17.102038
-17.272865
-17.433315
-17.583307
-17.722952
-17.852497
-17.972226
-18.082478
-18.183627
-18.276073
-18.360258
-18.43661
-18.50553
-18.567432
-18.622708
-18.671749
-18.714872
-18.752371
-18.784554
-18.811708
-18.834059
-18.851785
-18.863862
-18.877548
0.02032611
0.022565332
0.016764101
0.0088166503
-0.0027879761
-0.018203413
-0.037644371
-0.061266714
-0.089252313
-0.12178981
-0.15905312
-0.20124999
-0.24858629
-0.30122121
-0.35929587
-0.42295061
-0.49231806
-0.56752463
-0.64868173
-0.73587492
-0.82916528
-0.9286098
-1.0342568
-1.1461329
-1.2642527
-1.3886193
-1.5192422
-1.656162
-1.7993735
-1.9488285
-2.1045141
-2.2663759
-2.4343612
-2.6084047
-2.7883604
-2.9740978
-3.1655924
-3.3628753
-3.5659091
-3.774696
-3.9892196
-4.209269
-4.4344295
-4.6642881
-4.8985554
-5.1373451
-5.3815404
-5.6333724
-5.8979884
-6.180406
-6.4823177
-6.8918611
-7.3124677
-7.9028705
-8.8004608
-9.7547329
-10.771735
-11.767895
-12.476824
-13.009521
-13.482695
-13.889765
-14.20392
-14.461918
-14.699025
-14.927593
-15.153557
-15.378565
-15.602477
-15.824687
-16.043943
-16.258747
-16.467718
-16.669593
-16.863269
-17.047879
-17.222827
-17.387769
-17.54244
-17.686746
-17.820806
-17.94486
-18.059209
-18.16423
-18.260339
-18.347966
-18.427575
-18.499605
-18.564469
-18.622603
-18.674408
-18.720282
-18.760571
-18.795575
-18.825612
-18.85096
-18.871822
-18.888312
-18.899895
-18.912596
0.034499576
0.037464971
0.032255256
0.02516089
0.014501618
0.00010385078
-0.018222819
-0.040672874
-0.067440699
-0.098721576
-0.13473571
-0.17570468
-0.22181604
-0.27324415
-0.33016607
-0.39273602
-0.4610885
-0.53535665
-0.61564483
-0.70203407
-0.79460887
-0.89344386
-0.99856912
-1.1099875
-1.227715
-1.351773
-1.4821968
-1.6190419
-1.7623174
-1.9120023
-2.0681249
-2.2307321
-2.3998085
-2.575328
-2.757223
-2.9454215
-3.1400132
-3.3412418
-3.5492526
-3.764245
-3.9863586
-4.2152984
-4.4501609
-4.6896677
-4.9324106
-5.1775096
-5.4252288
-5.6781988
-5.9414355
-6.2102018
-6.4881884
-6.9514285
-7.4921148
-8.0901722
-9.3427416
-10.120547
-11.620832
-13.114723
-13.528218
-13.911281
-14.271294
-14.573172
-14.7589
-14.916181
-15.078827
-15.249742
-15.433052
-15.625957
-15.825288
-16.028668
-16.233207
-16.436134
-16.635194
-16.828495
-17.014473
-17.191944
-17.360114
-17.518451
-17.666575
-17.804417
-17.932104
-18.049875
-18.158073
-18.257123
-18.347473
-18.429586
-18.50394
-18.570988
-18.631185
-18.684979
-18.732795
-18.775039
-18.812084
-18.844234
-18.871795
-18.895018
-18.914105
-18.929035
-18.940238
-18.951074
0.051126986
0.055007752
0.050539705
0.044416726
0.034847801
0.021662234
0.0046307568
-0.016455813
-0.041798877
-0.071636255
-0.10621163
-0.14573341
-0.19040686
-0.24044536
-0.29604235
-0.35736345
-0.42455633
-0.49774861
-0.5770456
-0.66254888
-0.75435703
-0.8525221
-0.95705366
-1.0679585
-1.1852629
-1.3090059
-1.4392377
-1.5760158
-1.7193681
-1.8693101
-2.0259501
-2.1894525
-2.3598362
-2.5371086
-2.7213192
-2.9125049
-3.1108627
-3.3168788
-3.5309954
-3.7539391
-3.9861585
-4.2274231
-4.4759738
-4.7289849
-4.9831647
-5.2362898
-5.4888322
-5.7423975
-6.0012191
-6.2678165
-6.4575538
-7.0607451
-7.6258644
-7.3075356
-7.9178474
-9.4000881
-10.638491
-11.704065
-14.003468
-15.182665
-15.342262
-15.516443
-15.471953
-15.475067
-15.531074
-15.624277
-15.753086
-15.905949
-16.075486
-16.256692
-16.444257
-16.633763
-16.821828
-17.005735
-17.183333
-17.353037
-17.513763
-17.664754
-17.805583
-17.936191
-18.056702
-18.16739
-18.26865
-18.36096
-18.444785
-18.520625
-18.589007
-18.650406
-18.705315
-18.754208
-18.797522
-18.835685
-18.869056
-18.897962
-18.922701
-18.943519
-18.960629
-18.973817
-18.984206
-18.993202
0.069979942
0.075037026
0.071436133
0.066452454
0.058178083
0.046391967
0.030853371
0.011343298
-0.012385752
-0.040586909
-0.073492071
-0.11133356
-0.15436178
-0.20281581
-0.25690009
-0.31679488
-0.38265916
-0.45462601
-0.53282128
-0.61736251
-0.70833136
-0.80575278
-0.90962828
-1.01998
-1.1368344
-1.2602331
-1.3902399
-1.5269325
-1.6703575
-1.8205759
-1.977791
-2.1422702
-2.3141606
-2.4935322
-2.6804748
-2.8751608
-3.0779861
-3.2896344
-3.5113029
-3.7442377
-3.9899165
-4.2481469
-4.5156957
-4.7876824
-5.0571256
-5.3193658
-5.5758445
-5.8231531
-6.0853657
-6.4311495
-6.4529957
-6.6934088
-7.4168351
-9.2677955
-11.889015
-14.687374
-16.953371
-18.022856
-17.657441
-17.41259
-16.93585
-16.995581
-16.387216
-16.137504
-16.043592
-16.044209
-16.111281
-16.216686
-16.351035
-16.506862
-16.675555
-16.850522
-17.026906
-17.200911
-17.36964
-17.531011
-17.683626
-17.82656
-17.959369
-18.081958
-18.194477
-18.297268
-18.390779
-18.475523
-18.552016
-18.620803
-18.682463
-18.737524
-18.786504
-18.829914
-18.868204
-18.901803
-18.931062
-18.956332
-18.977907
-18.996017
-19.010851
-19.022316
-19.031527
-19.038822
0.090764166
0.097301388
0.09476567
0.091168692
0.084391245
0.07421081
0.06038132
0.042640682
0.02072768
-0.0055980511
-0.036586799
-0.072520644
-0.11368116
-0.16032697
-0.21268691
-0.27095616
-0.33530808
-0.40590666
-0.48289564
-0.56637957
-0.65641142
-0.75301829
-0.856207
-0.96597116
-1.0823294
-1.2053379
-1.3350604
-1.4716179
-1.6151109
-1.7656066
-1.9233475
-2.0887977
-2.2623702
-2.4442905
-2.634637
-2.8335552
-3.0416586
-3.2600086
-3.4904978
-3.7364818
-3.999399
-4.2803123
-4.5749476
-4.8749621
-5.1654158
-5.434259
-5.6816062
-5.8990893
-6.1199941
-6.4114567
-7.1371259
-6.3583663
-9.6612943
-13.970215
-17.24425
-20.469301
-23.219713
-24.769373
-25.971599
-22.319619
-19.864006
-18.74291
-17.595771
-16.957785
-16.642636
-16.522501
-16.510476
-16.556636
-16.649311
-16.776662
-16.925099
-17.084979
-17.249476
-17.413417
-17.573017
-17.72565
-17.869602
-18.00385
-18.127929
-18.241709
-18.345403
-18.43942
-18.524276
-18.600558
-18.66886
-18.729781
-18.783952
-18.831965
-18.874366
-18.911684
-18.944403
-18.972926
-18.997634
-19.018867
-19.036932
-19.052061
-19.064402
-19.07399
-19.081844
-19.087577
0.11303167
0.12155954
0.12040578
0.11843974
0.11339264
0.10503764
0.093105882
0.077335453
0.057487453
0.033300013
0.0044755165
-0.029303774
-0.068344321
-0.11293287
-0.16332434
-0.21974306
-0.28239999
-0.3514888
-0.4271504
-0.50946874
-0.59848647
-0.69422342
-0.79667926
-0.90581796
-1.0216335
-1.1441861
-1.2735535
-1.4098862
-1.5534021
-1.7041499
-1.8622708
-2.0285537
-2.2039379
-2.3889576
-2.5836445
-2.78793
-3.0025854
-3.2298098
-3.4720968
-3.734258
-4.0151132
-4.3281391
-4.6634387
-5.008321
-5.3304006
-5.5953413
-5.8074099
-5.9988187
-6.2315204
-6.0080122
-6.9976741
-7.9786386
-13.498539
-17.207042
-22.181501
-27.172663
-31.080258
-33.055305
-32.773115
-30.511882
-24.269825
-20.754062
-19.274275
-18.107744
-17.387564
-17.069515
-16.946806
-16.919325
-16.964443
-17.061543
-17.189678
-17.335054
-17.488303
-17.642595
-17.793168
-17.93688
-18.071753
-18.196742
-18.311348
-18.415474
-18.509421
-18.593702
-18.668932
-18.735801
-18.794991
-18.84719
-18.893077
-18.933296
-18.968448
-18.999052
-19.025613
-19.048545
-19.068241
-19.085051
-19.099274
-19.111138
-19.120777
-19.12829
-19.134662
-19.13898
0.13634663
0.14765403
0.1482285
0.14817886
0.14509144
0.13874006
0.12889858
0.11534427
0.09782865
0.076043557
0.049655089
0.01831558
-0.018317354
-0.060563562
-0.10871569
-0.16304854
-0.22381946
-0.29123621
-0.36543217
-0.4464854
-0.5344325
-0.62926055
-0.73092837
-0.83938235
-0.95460242
-1.0766387
-1.2055644
-1.3415388
-1.4849561
-1.6358828
-1.7941287
-1.9607991
-2.1377848
-2.3264747
-2.5270846
-2.7389391
-2.9619533
-3.1998598
-3.4534202
-3.7214388
-4.0389519
-4.4076773
-4.8072377
-5.2269686
-5.5882025
-5.8166508
-5.967224
-6.1542423
-6.5895247
-6.4491702
-5.2386115
-11.999759
-15.430915
-20.578609
-26.955596
-33.311945
-38.407538
-40.559165
-39.496579
-35.24098
-28.939548
-22.925984
-20.587891
-19.547557
-18.286965
-17.668821
-17.395564
-17.286228
-17.284593
-17.354074
-17.464828
-17.59825
-17.742088
-17.887848
-18.029926
-18.164773
-18.290291
-18.405428
-18.509714
-18.603242
-18.686431
-18.759922
-18.82449
-18.880935
-18.930061
-18.972633
-19.009394
-19.041036
-19.068214
-19.091478
-19.111289
-19.128117
-19.142357
-19.154347
-19.164381
-19.172677
-19.179387
-19.184642
-19.189418
-19.192435
0.1606233
0.17546592
0.17829944
0.18036306
0.17936598
0.17517399
0.16764412
0.15656192
0.14164691
0.12255169
0.09890565
0.070326588
0.036432422
-0.0031442605
-0.048761793
-0.10075783
-0.15942505
-0.22498264
-0.2975716
-0.37726682
-0.46408352
-0.55796462
-0.65881364
-0.76654166
-0.88110448
-1.0025376
-1.1309043
-1.2663829
-1.4095529
-1.5605614
-1.7186601
-1.8851669
-2.0633836
-2.2564684
-2.4651779
-2.6885149
-2.9243352
-3.1790202
-3.4595326
-3.7568571
-4.1094567
-4.5520276
-5.0240156
-5.5374282
-5.9772966
-6.1245385
-6.1970907
-6.2668909
-6.3856423
-2.762608
-6.6511248
-11.761533
-16.34796
-23.120015
-30.28772
-38.103626
-43.80755
-46.37889
-44.960144
-39.989316
-33.012053
-24.29447
-20.614955
-20.637287
-19.004346
-18.176074
-17.793598
-17.625
-17.59245
-17.645013
-17.745825
-17.872362
-18.009966
-18.149045
-18.283531
-18.409695
-18.525552
-18.630136
-18.723184
-18.805054
-18.876347
-18.937902
-18.990681
-19.035614
-19.073652
-19.105646
-19.132401
-19.154672
-19.17313
-19.18837
-19.200858
-19.211061
-19.21938
-19.226141
-19.231634
-19.236074
-19.239603
-19.242428
-19.245476
-19.247248
0.18918989
0.2059641
0.21085486
0.21495751
0.21609059
0.21420469
0.20919275
0.20082399
0.18879114
0.17270823
0.15215272
0.12670256
0.095927035
0.059380994
0.016625256
-0.032739796
-0.089043893
-0.15253121
-0.22336612
-0.30161339
-0.38724307
-0.4801525
-0.58018757
-0.68719264
-0.80105241
-0.92175263
-1.0493664
-1.1841546
-1.3269051
-1.4779022
-1.6354475
-1.8001323
-1.9765676
-2.1730119
-2.3940819
-2.6379955
-2.8952539
-3.1723145
-3.4970019
-3.8339249
-4.1856323
-4.6361425
-4.7191147
-5.1618743
-6.451098
-6.5934397
-6.5191529
-6.5121326
-5.5199257
-2.4911753
-8.9041239
-12.947426
-17.548729
-23.839642
-32.109826
-39.951141
-46.429069
-49.09816
-47.839719
-42.633126
-34.949834
-24.89864
-22.443295
-21.258303
-19.393338
-18.505502
-18.088283
-17.907617
-17.873719
-17.92747
-18.029763
-18.156489
-18.292096
-18.4268
-18.55472
-18.672382
-18.778121
-18.871309
-18.952037
-19.021003
-19.079117
-19.127464
-19.167198
-19.199449
-19.225283
-19.245667
-19.261488
-19.273566
-19.282579
-19.289119
-19.293689
-19.296742
-19.29866
-19.299778
-19.30038
-19.300675
-19.300781
-19.30101
-19.302192
-19.302637
0.22032009
0.23921485
0.24586492
0.25184358
0.25510104
0.25562685
0.25331183
0.24790534
0.23905736
0.22633772
0.20927605
0.18738872
0.16016426
0.12705872
0.087546126
0.041163277
-0.012477933
-0.073668814
-0.14258822
-0.21929152
-0.30371177
-0.39568976
-0.49497495
-0.60128446
-0.71440124
-0.83424405
-0.96086925
-1.0946978
-1.2369847
-1.3881842
-1.5454243
-1.7085249
-1.8802855
-2.0710266
-2.3050635
-2.5817729
-2.879953
-3.1980206
-3.6168559
-4.0498506
-4.1343279
-3.3865689
-2.1255715
-1.4145758
-4.5930806
-6.9336279
-6.8292034
-6.9806714
-4.6390663
-2.8078637
-9.3911958
-12.945804
-17.012009
-22.995269
-30.849035
-38.744277
-45.174559
-48.082561
-47.108745
-42.123402
-34.777601
-28.122522
-23.986658
-21.096119
-19.414755
-18.624955
-18.2635
-18.127007
-18.125119
-18.201124
-18.317704
-18.452259
-18.590179
-18.722707
-18.844913
-18.953985
-19.048848
-19.129525
-19.196614
-19.251206
-19.294657
-19.32835
-19.353664
-19.37196
-19.384392
-19.392092
-19.396025
-19.397047
-19.395853
-19.393017
-19.389065
-19.384442
-19.379511
-19.374582
-19.369946
-19.365797
-19.362228
-19.359682
-19.358853
-19.357833
0.25213931
0.27643664
0.28342853
0.2907972
0.29609745
0.29911111
0.29967627
0.29749843
0.29217284
0.28322237
0.27011955
0.25229051
0.22911074
0.19993199
0.16412861
0.12114069
0.070502132
0.011864446
-0.054976089
-0.13007386
-0.21332634
-0.3044858
-0.40316004
-0.50886404
-0.62121875
-0.74006716
-0.8653754
-0.99772426
-1.1394001
-1.2912032
-1.4477808
-1.6070132
-1.7685715
-1.9361411
-2.206929
-2.5542655
-2.9531151
-3.3545646
-3.9330988
-4.7230103
-4.5561015
-3.8714115
-4.3341247
-4.0468477
-6.9838473
-7.5309311
-7.2883594
-7.434156
-7.0670484
-3.5716817
-9.1868907
-12.203864
-16.099365
-20.783802
-27.454749
-34.332548
-40.172696
-43.256113
-42.642086
-38.331366
-32.091838
-26.528425
-22.759795
-20.339635
-19.098474
-18.556403
-18.336574
-18.295332
-18.356502
-18.473235
-18.615485
-18.764439
-18.907799
-19.039611
-19.156369
-19.256169
-19.338959
-19.405557
-19.457284
-19.495759
-19.52283
-19.540187
-19.549569
-19.55249
-19.550278
-19.544178
-19.53524
-19.524334
-19.512164
-19.499297
-19.486257
-19.473442
-19.461212
-19.449858
-19.439649
-19.430745
-19.423234
-19.417699
-19.414686
-19.412069
0.29045029
0.31329547
0.32243531
0.33121752
0.33858923
0.34420871
0.34785748
0.34919785
0.34778686
0.34309115
0.33448314
0.32127396
0.30271763
0.27804586
0.24650908
0.20741032
0.16017465
0.10438193
0.039773929
-0.033720534
-0.11594125
-0.20650311
-0.30482563
-0.41013274
-0.52175314
-0.63944167
-0.76296176
-0.89310096
-1.0345218
-1.1886248
-1.3448146
-1.5012194
-1.6624786
-1.7336637
-2.0668929
-2.5188654
-3.0928049
-3.6180939
-4.4520363
-5.745883
-4.2676692
-3.8889779
-6.0119269
-8.2328908
-9.2972172
-8.693386
-7.6644409
-7.5130604
-7.5240949
-7.7351492
-9.2693076
-11.482714
-14.428096
-17.840375
-22.704391
-27.775661
-32.351176
-34.980082
-34.769096
-31.719529
-27.30972
-23.384728
-20.776624
-19.254326
-18.60517
-18.387256
-18.362623
-18.446189
-18.588517
-18.757473
-18.932131
-19.099085
-19.250236
-19.381705
-19.492037
-19.581029
-19.649831
-19.700228
-19.734407
-19.754684
-19.76334
-19.762514
-19.754237
-19.74026
-19.722096
-19.701062
-19.678261
-19.654562
-19.630679
-19.607156
-19.584479
-19.563011
-19.543062
-19.524907
-19.508782
-19.494796
-19.483069
-19.474313
-19.468908
-19.464572
0.33133768
0.35131606
0.36240578
0.37254783
0.38201085
0.3903543
0.39730882
0.40251349
0.40547724
0.40558334
0.4020847
0.39415814
0.38092094
0.36145281
0.33483975
0.30021926
0.25686746
0.20424554
0.14200797
0.070048895
-0.011408602
-0.10178544
-0.20024381
-0.30560395
-0.4166884
-0.53305108
-0.65417474
-0.78098725
-0.92197847
-1.0825408
-1.2501405
-1.4231971
-1.562252
-1.5779656
-1.9409803
-2.4781572
-3.2190809
-3.7444951
-4.6354531
-6.1191541
-3.227868
-3.5001106
-8.4399557
-10.427972
-11.232838
-10.430295
-8.2373559
-7.6579255
-6.7817721
-7.0658085
-6.8039203
-11.003129
-12.668881
-14.915397
-17.77535
-21.066863
-24.07031
-25.930037
-25.82476
-24.265965
-21.877902
-19.852714
-18.669152
-18.171008
-18.109985
-18.220425
-18.40005
-18.616579
-18.846147
-19.071163
-19.280379
-19.46604
-19.624254
-19.753728
-19.855314
-19.930846
-19.982868
-20.014316
-20.028283
-20.027809
-20.015722
-19.994626
-19.966837
-19.934351
-19.898841
-19.861697
-19.82405
-19.786749
-19.750473
-19.715735
-19.68293
-19.65237
-19.624312
-19.598991
-19.576607
-19.557215
-19.540985
-19.528746
-19.520684
-19.514493
0.37282472
0.39003994
0.40261368
0.41409359
0.42566353
0.43685818
0.44737478
0.45684815
0.4647074
0.47022517
0.47254825
0.4707026
0.46362464
0.45019789
0.4293015
0.39986875
0.36097621
0.31190014
0.25216209
0.18160123
0.10045177
0.0094870014
-0.089979377
-0.1961863
-0.30735969
-0.42247168
-0.54004515
-0.66095632
-0.79991031
-0.96971765
-1.1472381
-1.4179856
-1.6167716
-1.8208789
-2.136088
-2.5415979
-3.3493328
-3.7427162
-4.3399514
-5.7575668
-7.1831258
-8.062632
-11.040918
-12.750852
-13.068648
-11.99696
-9.6463754
-7.9903832
-6.4981175
-7.0079762
-5.5183661
-9.820027
-10.455901
-12.314287
-13.779447
-15.933608
-17.558093
-18.809863
-19.08653
-18.463778
-17.594073
-17.09301
-17.075851
-17.357121
-17.748955
-18.138207
-18.503179
-18.8441
-19.156073
-19.433798
-19.674578
-19.875756
-20.037338
-20.160952
-20.249946
-20.30812
-20.33959
-20.348545
-20.339016
-20.314772
-20.279263
-20.235559
-20.186261
-20.133577
-20.079327
-20.024932
-19.971491
-19.919826
-19.870547
-19.824089
-19.780745
-19.740721
-19.704217
-19.671418
-19.642446
-19.617313
-19.59626
-19.58021
-19.569108
-19.560798
0.41371733
0.4287305
0.44243127
0.45493738
0.46869782
0.48291444
0.49728344
0.51144185
0.52476554
0.53640721
0.54539146
0.55057519
0.55066732
0.54429589
0.5300893
0.50672247
0.47299864
0.42793466
0.37083445
0.30140582
0.21985048
0.12710723
0.025068774
-0.083661191
-0.19642021
-0.31088866
-0.42356162
-0.5329963
-0.65832492
-0.8355177
-1.0586936
-1.3561119
-1.6632463
-2.225638
-2.0472795
-0.6715684
-0.083052872
-1.7041232
-3.6405684
-4.9443354
-6.5901175
-9.0847201
-11.858779
-13.379118
-13.147011
-11.712468
-9.8715233
-4.1746101
-0.47559172
-5.9915721
-5.7773132
-7.1100242
-8.3409225
-10.028823
-11.256814
-12.113442
-13.231049
-14.34192
-14.971657
-15.013181
-15.013895
-15.431413
-16.140767
-16.900906
-17.590108
-18.191588
-18.709915
-19.157138
-19.540626
-19.863365
-20.128733
-20.338808
-20.497248
-20.608875
-20.679608
-20.715162
-20.72128
-20.703337
-20.666351
-20.61488
-20.55295
-20.484058
-20.411115
-20.336503
-20.262114
-20.189358
-20.119274
-20.052604
-19.98983
-19.931244
-19.877031
-19.827281
-19.782067
-19.741522
-19.705664
-19.674449
-19.648224
-19.627969
-19.613286
-19.602343
0.45316559
0.46645411
0.48071121
0.49475614
0.51023003
0.52758574
0.54606138
0.56532628
0.58472995
0.60333015
0.61997724
0.63331255
0.64177656
0.6437004
0.63739371
0.62120358
0.59356066
0.55312045
0.49885599
0.43018562
0.34718291
0.2508723
0.14360032
0.028977707
-0.088998731
-0.20590258
-0.31459654
-0.40753902
-0.50786438
-0.66914951
-0.91183449
-1.2187658
-1.5149803
-1.8574689
-1.9790588
1.1107822
0.76982105
0.38562974
-0.097090761
-4.993961
-5.9074404
-8.2333218
-10.682784
-11.803858
-11.244544
-9.5383887
-7.7901705
-3.3752537
5.168233
-2.6402961
-4.4295739
-5.4014041
-6.5620695
-8.2757629
-9.4789067
-10.320208
-10.207963
-10.965169
-11.937243
-12.715247
-13.409187
-14.303543
-15.693384
-16.784106
-17.642338
-18.395073
-19.035725
-19.573863
-20.017675
-20.375802
-20.656123
-20.865422
-21.011498
-21.102762
-21.147677
-21.153915
-21.128739
-21.078661
-21.009644
-20.926991
-20.835298
-20.738455
-20.63964
-20.541361
-20.445481
-20.353358
-20.265932
-20.183782
-20.107183
-20.036244
-19.970983
-19.911338
-19.857241
-19.808734
-19.765728
-19.728095
-19.696334
-19.671422
-19.652512
-19.638232
0.49067705
0.50254814
0.51692297
0.53199627
0.5494172
0.56972384
0.59245947
0.61725759
0.64342438
0.66993378
0.69542445
0.71826029
0.73655403
0.74829237
0.75139942
0.74380891
0.72347067
0.68851009
0.63741654
0.56912518
0.48331306
0.38080745
0.26415104
0.1377525
0.0069477911
-0.11998824
-0.22654613
-0.30602861
-0.37252133
-0.50643884
-0.78870101
-1.1567323
-1.4833601
-1.6210059
-1.7314396
0.15374365
1.1047897
-0.29586559
-0.58742106
0.23586436
-3.9447904
-6.0619911
-7.5647926
-8.4365857
-8.1998492
-6.8138565
-5.069922
-2.5510696
3.258449
4.7334928
-3.8515589
-4.243231
-5.2729337
-6.9584636
-8.1688177
-8.9410262
-9.5950278
-10.303438
-10.803282
-11.414852
-12.47761
-13.565351
-14.704278
-16.702423
-17.869737
-18.755957
-19.501337
-20.116647
-20.609131
-20.989704
-21.271134
-21.465965
-21.587182
-21.647187
-21.656838
-21.625637
-21.562148
-21.473885
-21.367638
-21.249392
-21.124292
-20.996572
-20.869611
-20.74595
-20.627376
-20.51511
-20.409877
-20.311991
-20.221462
-20.138143
-20.061842
-19.992279
-19.929234
-19.872617
-19.822225
-19.777868
-19.740223
-19.710122
-19.68635
-19.667874
0.52608137
0.53631184
0.55019512
0.56578098
0.58466867
0.60782749
0.63489234
0.66565207
0.69931113
0.73483378
0.77056769
0.80451434
0.8344265
0.85786949
0.87230433
0.8751425
0.86374166
0.83551353
0.78823889
0.72012802
0.63000758
0.51791168
0.386002
0.2386186
0.080735107
-0.077508154
-0.21082617
-0.29568768
-0.35270401
-0.54787997
-0.98287132
-1.3927996
-1.8149382
-1.9959614
-1.8664247
-1.5144283
-0.57462046
-1.1929821
-1.4834834
-1.865796
-1.9389024
-2.1828791
-3.4895083
-5.4615355
-6.4421061
-5.1989727
-3.4132639
-1.5605143
0.24487757
4.8634139
-3.4682777
-3.8293243
-5.3256917
-6.7894853
-7.6490831
-7.9468391
-8.3679126
-8.9490971
-9.8502261
-11.132316
-12.149844
-13.627714
-15.540283
-17.003113
-18.262552
-19.289593
-20.140676
-20.824649
-21.348224
-21.729571
-21.989953
-22.150527
-22.230327
-22.245485
-22.208659
-22.13066
-22.020879
-21.887604
-21.738337
-21.57967
-21.41724
-21.255614
-21.098286
-20.94772
-20.805522
-20.672628
-20.549412
-20.435817
-20.33153
-20.236083
-20.148962
-20.06963
-19.997695
-19.932927
-19.87496
-19.823575
-19.779757
-19.743814
-19.714514
-19.691075
0.55934603
0.56698402
0.57949383
0.594737
0.61435694
0.63991183
0.67144801
0.70852222
0.75034637
0.79621626
0.84387016
0.89087603
0.93457942
0.97206863
1.0002421
1.0158549
1.0155618
0.99595701
0.95381805
0.88624742
0.7906531
0.66536354
0.51117688
0.33086617
0.12484804
-0.10156841
-0.32385875
-0.51124961
-0.67492349
-1.280612
-2.2199465
-3.3140405
-2.9416572
-3.1754751
-2.9128614
-1.7061674
-1.0090591
-0.73912433
-0.47048545
-0.49671773
-1.2387035
-2.7946741
-4.5958848
-5.8666882
-6.4163985
-4.4351523
-1.7099374
0.5191034
1.444479
-0.094268685
-0.65943087
-5.2417134
-5.6654831
-7.7857319
-7.9636117
-7.1077283
-7.0652115
-7.5031122
-8.4596478
-9.9248488
-11.674546
-13.630525
-15.530649
-17.314094
-18.828385
-20.057252
-21.027178
-21.758703
-22.278381
-22.621863
-22.827444
-22.926999
-22.944546
-22.898914
-22.803069
-22.668033
-22.503305
-22.31757
-22.118931
-21.914607
-21.71071
-21.512123
-21.322336
-21.143619
-20.977247
-20.823657
-20.682714
-20.553881
-20.436376
-20.329334
-20.231863
-20.143151
-20.062567
-19.989716
-19.924016
-19.865155
-19.814093
-19.772351
-19.73685
-19.707542
0.59014249
0.59390937
0.6036503
0.61723053
0.63641603
0.66356895
0.69928228
0.74362388
0.7936408
0.85173146
0.91330569
0.9757314
1.0358778
1.0902602
1.1351328
1.1665106
1.180257
1.1720849
1.137517
1.0720822
0.9711428
0.83007143
0.64676092
0.42207269
0.14713198
-0.20075863
-0.59575674
-0.95353987
-1.3542576
-2.9201544
-5.1912113
-6.9727236
-7.321141
-4.6025293
-3.317097
-2.6885985
-0.69928339
0.27774891
1.165632
1.8262013
1.4393122
-0.92395677
-4.962708
-8.0712031
-8.0324313
-4.4646271
0.68927965
4.0663397
4.4353978
-2.3442505
8.3136137
-5.7984501
-6.4612301
-8.1317907
-7.6893273
-5.7745793
-5.2441045
-5.7019888
-6.6996447
-8.5248759
-10.656669
-13.046524
-15.60038
-17.890944
-19.73434
-21.173456
-22.249087
-22.980622
-23.439646
-23.688226
-23.792033
-23.797916
-23.728969
-23.605753
-23.438002
-23.235526
-23.00685
-22.760676
-22.505736
-22.250061
-22.000365
-21.761781
-21.537719
-21.330061
-21.13948
-20.965727
-20.807912
-20.664841
-20.53514
-20.417424
-20.310387
-20.212909
-20.124115
-20.04338
-19.969924
-19.903337
-19.845132
-19.796281
-19.753417
-19.716913
0.61792743
0.61643938
0.62135018
0.63125246
0.64817792
0.67556287
0.71471643
0.76569251
0.82733846
0.89860131
0.97629828
1.0569488
1.1367118
1.2114037
1.2765777
1.3275091
1.3592275
1.3664883
1.3434993
1.283909
1.1804518
1.0242161
0.8088989
0.53281752
0.16456657
-0.35154519
-0.88739855
-1.3997871
-2.3168496
-5.0131031
-9.0122536
-11.277712
-10.909024
-8.8350039
-5.1203468
-2.9317819
-0.5793341
1.2085232
2.8733635
5.0501753
5.8749754
2.5495522
-6.5672683
-13.193639
-13.467239
-6.0637826
4.2833876
9.4658829