/*--------------------------------*- C++ -*----------------------------------*\
  =========                 |
  \\      /  F ield         | OpenFOAM: The Open Source CFD Toolbox
   \\    /   O peration     | Website:  https://openfoam.org
    \\  /    A nd           | Version:  9
     \\/     M anipulation  |
\*---------------------------------------------------------------------------*/
FoamFile
{
    format      ascii;
    class       volScalarField;
    location    "4.5";
    object      rho;
}
// * * * * * * * * * * * * * * * * * * * * * * * * * * * * * * * * * * * * * //

dimensions      [1 -3 0 0 0 0 0];

internalField   nonuniform List<scalar> 
5250
(
1.40001
1.40002
1.40006
1.40016
1.40035
1.401
1.40211
1.40599
1.41292
1.4349
1.47726
1.58524
1.79937
2.2817
4.22502
5.92923
5.7614
5.64761
5.66566
5.74959
5.83608
5.89164
5.92827
5.95938
5.98682
1.40001
1.40002
1.40005
1.40016
1.40034
1.40098
1.40207
1.40589
1.41271
1.43435
1.47607
1.58257
1.79384
2.26756
4.17193
5.93672
5.76288
5.64491
5.6634
5.74794
5.83455
5.89033
5.92774
5.95963
5.98797
1.40001
1.40002
1.40005
1.40016
1.40033
1.40095
1.40202
1.40566
1.41236
1.43309
1.47378
1.57687
1.78249
2.23815
4.05348
5.95363
5.766
5.63643
5.6541
5.73786
5.82408
5.87835
5.91625
5.94778
5.97555
1.40001
1.40002
1.40005
1.40015
1.40031
1.4009
1.40189
1.40541
1.4116
1.43165
1.46973
1.569
1.76489
2.19545
3.86986
5.98007
5.77256
5.6229
5.63908
5.71881
5.80341
5.85712
5.89213
5.92418
5.95346
1.40001
1.40002
1.40005
1.40013
1.40032
1.40076
1.40199
1.40454
1.41196
1.42733
1.46829
1.55463
1.74564
2.14061
3.62767
6.01052
5.78397
5.60669
5.61772
5.69375
5.77543
5.8257
5.8604
5.88904
5.91943
1.40001
1.40002
1.40004
1.40013
1.40027
1.40078
1.40161
1.40464
1.4098
1.42726
1.4592
1.54635
1.71638
2.08422
3.33669
6.02499
5.7979
5.59022
5.59563
5.65931
5.73868
5.78479
5.81263
5.84086
5.8725
1.40001
1.40002
1.40004
1.40011
1.40027
1.40066
1.40156
1.40406
1.40924
1.4241
1.45508
1.53206
1.69218
2.02778
3.06187
5.97342
5.78826
5.56641
5.56471
5.6192
5.68822
5.72841
5.75088
5.77066
5.80328
1.40001
1.40002
1.40004
1.4001
1.40025
1.40056
1.40154
1.40333
1.40933
1.42011
1.45324
1.51777
1.67191
1.97802
2.86907
5.77733
5.71284
5.52878
5.52406
5.55919
5.62477
5.65173
5.66379
5.67061
5.69906
1.40001
1.40002
1.40004
1.40009
1.40021
1.40056
1.40125
1.40343
1.40744
1.42034
1.44502
1.51169
1.64574
1.93546
2.69444
5.46844
5.58552
5.50423
5.47641
5.48922
5.53496
5.55319
5.54484
5.52631
5.53001
1.40001
1.40001
1.40003
1.40009
1.40019
1.4005
1.40113
1.40297
1.40696
1.41756
1.44162
1.49961
1.62374
1.88884
2.53337
5.07905
5.5181
5.46845
5.40986
5.4132
5.43029
5.42373
5.39307
5.31931
5.25926
1.40001
1.40001
1.40003
1.40008
1.40016
1.40044
1.401
1.40261
1.40615
1.41542
1.43683
1.48819
1.59982
1.83881
2.38168
4.61367
5.47822
5.43693
5.33983
5.32467
5.31486
5.28084
5.18593
4.9593
4.29926
1.40001
1.40001
1.40002
1.40007
1.40014
1.40039
1.40082
1.40233
1.40504
1.41377
1.4307
1.47772
1.57236
1.78604
2.2352
4.06809
5.46181
5.41308
5.28327
5.23357
5.20006
5.12832
4.97223
4.64677
3.93081
1.40001
1.40001
1.40002
1.40005
1.40012
1.40032
1.4007
1.40195
1.40413
1.4117
1.42502
1.46598
1.54432
1.72948
2.09602
3.4597
5.45308
5.40022
5.249
5.15237
5.08939
4.98366
4.77998
4.43731
3.85835
1.40001
1.40001
1.40002
1.40005
1.4001
1.40027
1.40057
1.40155
1.40346
1.40915
1.42085
1.4527
1.51878
1.67174
1.97332
2.84598
5.3609
5.35076
5.24258
5.08726
4.98996
4.85819
4.6443
4.31769
3.86369
1.40001
1.40001
1.40002
1.40003
1.40009
1.40019
1.40051
1.40117
1.40299
1.40715
1.41761
1.44234
1.49987
1.62546
1.88901
2.53532
4.9597
5.25175
5.18648
5.0308
4.90067
4.75811
4.54844
4.25067
3.87377
1.40001
1.40001
1.40001
1.40003
1.40006
1.40018
1.40037
1.40105
1.40219
1.40626
1.41327
1.43614
1.47899
1.58963
1.80587
2.29869
4.26842
5.14168
5.10629
4.98885
4.83067
4.67425
4.47611
4.20739
3.87948
1.40001
1.40001
1.40001
1.40003
1.40005
1.40014
1.40029
1.40082
1.40175
1.40484
1.41062
1.42818
1.46306
1.55186
1.72936
2.1039
3.52455
5.09248
5.0691
4.96892
4.78388
4.60976
4.42007
4.17358
3.88571
1.40001
1.40001
1.40001
1.40002
1.40004
1.4001
1.40023
1.40061
1.40133
1.40371
1.40784
1.42167
1.44701
1.51699
1.65436
1.93972
2.72132
4.95265
5.0522
4.96814
4.77417
4.57149
4.37791
4.15196
3.88943
1.40001
1.40001
1.40001
1.40002
1.40004
1.40007
1.4002
1.40041
1.40116
1.40243
1.40691
1.41462
1.43958
1.48619
1.60523
1.83505
2.38037
4.44763
4.96253
4.91164
4.76276
4.54656
4.34765
4.13654
3.89668
1.40001
1.40001
1.40001
1.40001
1.40003
1.40006
1.40014
1.40033
1.40084
1.40188
1.40511
1.41112
1.42975
1.46588
1.55826
1.74199
2.12914
3.6439
4.86929
4.84746
4.7531
4.53869
4.33083
4.12526
3.90565
1.40001
1.40001
1.40001
1.40001
1.40002
1.40005
1.4001
1.40026
1.40054
1.40153
1.40324
1.40898
1.41942
1.45104
1.51143
1.6587
1.92621
2.71998
4.70147
4.82751
4.7542
4.56809
4.33367
4.12636
3.91744
1.40001
1.40001
1.40001
1.40001
1.40002
1.40003
1.40008
1.40017
1.40044
1.40102
1.40252
1.40616
1.4147
1.43607
1.48376
1.59198
1.81184
2.30716
4.17053
4.75229
4.71208
4.58548
4.35388
4.13768
3.93563
1.40001
1.40001
1.40001
1.40001
1.40001
1.40003
1.40006
1.40012
1.40032
1.40069
1.40192
1.40404
1.41134
1.42407
1.46347
1.5374
1.71369
2.04293
3.30637
4.63177
4.63904
4.57318
4.39384
4.16647
3.95966
1.40001
1.40001
1.40001
1.40001
1.40001
1.40002
1.40004
1.40008
1.40022
1.40048
1.40128
1.40289
1.40742
1.41715
1.44259
1.49677
1.62157
1.8525
2.45198
4.32157
4.62114
4.56961
4.42978
4.20519
3.99064
1.40001
1.40001
1.40001
1.40001
1.40001
1.40001
1.40003
1.40006
1.40015
1.40035
1.40083
1.4021
1.40483
1.41245
1.42821
1.46994
1.55589
1.74302
2.11522
3.56961
4.53635
4.52044
4.4503
4.26819
4.03301
1.40001
1.40001
1.40001
1.40001
1.40001
1.40001
1.40002
1.40004
1.40011
1.40022
1.4006
1.40129
1.40342
1.4077
1.4197
1.44488
1.50789
1.6356
1.87831
2.5655
4.30445
4.51347
4.46153
4.32996
4.0964
1.40001
1.40001
1.40001
1.40001
1.40001
1.40001
1.40002
1.40003
1.40007
1.40016
1.40037
1.40093
1.40212
1.40555
1.41226
1.43196
1.47079
1.56747
1.75246
2.15323
3.664
4.43713
4.42418
4.35579
4.18543
1.40001
1.40001
1.40001
1.40001
1.40001
1.40001
1.40001
1.40002
1.40004
1.40011
1.40023
1.40064
1.40132
1.40369
1.40776
1.42121
1.44553
1.51339
1.64166
1.89281
2.66096
4.20675
4.40658
4.36429
4.24937
1.40001
1.40001
1.40001
1.40001
1.40001
1.40001
1.40001
1.40002
1.40003
1.40007
1.40015
1.4004
1.40089
1.40227
1.40529
1.41302
1.43081
1.47295
1.56479
1.74989
2.14444
3.59983
4.32489
4.32336
4.26984
1.40001
1.40001
1.40001
1.40001
1.40001
1.40001
1.40001
1.40001
1.40002
1.40005
1.4001
1.40025
1.40055
1.40149
1.40313
1.40868
1.41824
1.44839
1.50373
1.63938
1.86645
2.58824
4.07357
4.30409
4.27311
1.40001
1.40001
1.40001
1.40001
1.40001
1.40001
1.40001
1.40001
1.40002
1.40003
1.40007
1.40015
1.40036
1.40089
1.40203
1.40529
1.41164
1.43028
1.46657
1.55788
1.72607
2.09299
3.4294
4.2095
4.24119
1.40001
1.40001
1.40001
1.40001
1.40001
1.40001
1.40001
1.40001
1.40001
1.40002
1.40004
1.40009
1.40024
1.40049
1.40137
1.40284
1.40784
1.41651
1.44368
1.49318
1.61617
1.81467
2.37499
3.92519
4.22032
1.40001
1.40001
1.40001
1.40001
1.40001
1.40001
1.40001
1.40001
1.40001
1.40002
1.40003
1.40006
1.40013
1.40033
1.40079
1.40184
1.40465
1.41045
1.42671
1.45942
1.54059
1.69478
2.01009
3.17682
4.07853
1.40001
1.40001
1.40001
1.40001
1.40001
1.40001
1.40001
1.40001
1.40001
1.40001
1.40002
1.40004
1.40008
1.40021
1.40044
1.40118
1.40254
1.40668
1.41479
1.43747
1.48267
1.59021
1.77228
2.24263
3.69729
1.40001
1.40001
1.40001
1.40001
1.40001
1.40001
1.40001
1.40001
1.40001
1.40001
1.40001
1.40002
1.40005
1.40012
1.40028
1.40067
1.40156
1.40394
1.40886
1.42262
1.45014
1.51995
1.65258
1.90997
2.79747
1.40001
1.40001
1.40001
1.40001
1.40001
1.40001
1.40001
1.40001
1.40001
1.40001
1.40001
1.40002
1.40003
1.40007
1.40016
1.40039
1.40095
1.40216
1.40556
1.41223
1.43128
1.46901
1.56004
1.72179
2.0943
1.40001
1.40001
1.40001
1.40001
1.40001
1.40001
1.40001
1.40001
1.40001
1.40001
1.40001
1.40001
1.40002
1.40004
1.4001
1.40023
1.40051
1.40134
1.40283
1.40773
1.41603
1.44263
1.48963
1.60609
1.78947
1.40001
1.40001
1.40001
1.40001
1.40001
1.40001
1.40001
1.40001
1.40001
1.40001
1.40001
1.40001
1.40001
1.40003
1.40006
1.40012
1.40033
1.40068
1.40186
1.40387
1.41051
1.42223
1.45744
1.52162
1.66873
1.40001
1.40001
1.40001
1.40001
1.40001
1.40001
1.40001
1.40001
1.40001
1.40001
1.40001
1.40001
1.40001
1.40002
1.40004
1.40008
1.40017
1.40042
1.40095
1.40242
1.40529
1.41384
1.42986
1.47418
1.55854
1.40001
1.40001
1.40001
1.40001
1.40001
1.40001
1.40001
1.40001
1.40001
1.40001
1.40001
1.40001
1.40001
1.40001
1.40002
1.40005
1.40009
1.40025
1.40051
1.40136
1.40288
1.40762
1.41639
1.44175
1.48956
1.40001
1.40001
1.40001
1.40001
1.40001
1.40001
1.40001
1.40001
1.40001
1.40001
1.40001
1.40001
1.40001
1.40001
1.40001
1.40003
1.40005
1.40014
1.40029
1.40076
1.40163
1.40419
1.40933
1.42323
1.45208
1.40001
1.40001
1.40001
1.40001
1.40001
1.40001
1.40001
1.40001
1.40001
1.40001
1.40001
1.40001
1.40001
1.40001
1.40001
1.40002
1.40004
1.40007
1.40018
1.40038
1.40096
1.40222
1.40529
1.41268
1.42933
1.40001
1.40001
1.40001
1.40001
1.40001
1.40001
1.40001
1.40001
1.40001
1.40001
1.40001
1.40001
1.40001
1.40001
1.40001
1.40001
1.40002
1.40005
1.40009
1.40024
1.4005
1.40133
1.40286
1.40739
1.41621
1.40001
1.40001
1.40001
1.40001
1.40001
1.40001
1.40001
1.40001
1.40001
1.40001
1.40001
1.40001
1.40001
1.40001
1.40001
1.40001
1.40001
1.40003
1.40006
1.40015
1.40032
1.40085
1.40183
1.40476
1.41057
1.40001
1.40001
1.40001
1.40001
1.40001
1.40001
1.40001
1.40001
1.40001
1.40001
1.40001
1.40001
1.40001
1.40001
1.40001
1.40001
1.40001
1.40002
1.40005
1.40011
1.40026
1.40061
1.40153
1.40351
1.4091
1.40001
1.40001
1.40001
1.40001
1.40001
1.40001
1.40001
1.40001
1.40001
1.40001
1.40001
1.40001
1.40001
1.40001
1.40001
1.40001
1.40001
1.40002
1.40004
1.40009
1.40023
1.40056
1.40129
1.40342
1.40759
1.40001
1.40001
1.40001
1.40001
1.40001
1.40001
1.40001
1.40001
1.40001
1.40001
1.40001
1.40001
1.40001
1.40001
1.40001
1.40001
1.40001
1.40002
1.40004
1.40009
1.40022
1.40051
1.40133
1.40299
1.40805
1.40001
1.40001
1.40001
1.40001
1.40001
1.40001
1.40001
1.40001
1.40001
1.40001
1.40001
1.40001
1.40001
1.40001
1.40001
1.40001
1.40001
1.40002
1.40004
1.40009
1.40019
1.40056
1.40115
1.40333
1.40701
1.40001
1.40001
1.40001
1.40001
1.40001
1.40001
1.40001
1.40001
1.40001
1.40001
1.40001
1.40001
1.40001
1.40001
1.40001
1.40001
1.40001
1.40002
1.40004
1.40009
1.40019
1.40055
1.40114
1.40333
1.40693
1.40001
1.40001
1.40001
1.40001
1.40001
1.40001
1.40001
1.40001
1.40001
1.40001
1.40001
1.40001
1.40001
1.40001
1.40001
1.40001
1.40001
1.40002
1.40004
1.40009
1.40021
1.40052
1.4012
1.40319
1.40717
1.89553
1.03697
0.71986
0.647508
0.647842
0.685153
0.781164
0.877149
0.930389
0.996592
1.14645
1.45262
1.5882
1.62452
1.64119
1.62432
1.59317
1.57784
1.57522
1.56761
1.55841
1.54649
1.53203
1.52084
1.50718
1.49801
1.49639
1.49682
1.5023
1.52068
1.5541
1.6005
1.65659
1.71711
1.77768
1.83448
1.88535
1.93215
1.97365
2.01071
2.04294
2.07024
2.0955
2.11646
2.13427
2.14629
2.15736
2.16288
2.16886
2.17006
2.172
2.16736
2.16492
2.15748
2.15196
2.1419
2.13384
2.1214
2.11142
2.09696
2.08545
2.06964
2.05693
2.04004
2.02612
2.00827
1.99334
1.97498
1.95947
1.94061
1.92474
1.90548
1.88926
1.86976
1.85323
1.83357
1.81681
1.79709
1.78026
1.76057
1.74381
1.72431
1.70773
1.6885
1.67224
1.65338
1.63755
1.61916
1.60383
1.58605
1.57133
1.55431
1.54043
1.52439
1.5117
1.49713
1.48628
1.47434
1.46652
1.46103
2.34237
1.53596
1.1763
1.02664
0.965802
0.927259
0.930661
0.94465
0.981404
1.05027
1.21274
1.50398
1.64425
1.67161
1.65496
1.627
1.58634
1.55627
1.54152
1.52805
1.51034
1.48912
1.47085
1.46158
1.4487
1.43849
1.43531
1.43454
1.43803
1.45396
1.48703
1.53545
1.59642
1.66375
1.73187
1.7962
1.85711
1.91166
1.96547
2.0128
2.05889
2.09377
2.12797
2.15585
2.18111
2.19978
2.21621
2.22737
2.23751
2.24397
2.24981
2.24924
2.24922
2.24534
2.24239
2.23523
2.22927
2.2194
2.21079
2.1986
2.1879
2.1741
2.16184
2.14671
2.13307
2.11683
2.10213
2.08479
2.06917
2.05093
2.03458
2.01568
1.99879
1.97941
1.96208
1.9424
1.92477
1.9049
1.88718
1.86725
1.84963
1.82978
1.81241
1.79283
1.77577
1.75667
1.73996
1.72145
1.70523
1.68739
1.67185
1.65481
1.64016
1.62416
1.61082
1.59641
1.58503
1.57335
1.56513
1.56077
2.86385
2.13389
1.66055
1.36109
1.16674
1.04673
0.990665
0.993347
1.0144
1.06815
1.2034
1.46654
1.71063
1.76988
1.72871
1.68247
1.64864
1.61417
1.57707
1.54746
1.51766
1.48796
1.46388
1.44422
1.42776
1.41524
1.40555
1.39991
1.39815
1.41101
1.44522
1.4978
1.56504
1.64273
1.72212
1.80055
1.8735
1.93994
1.99974
2.05391
2.09928
2.13971
2.17503
2.20559
2.23185
2.25306
2.27062
2.28367
2.29436
2.30243
2.30888
2.30986
2.30914
2.30608
2.30236
2.29614
2.28918
2.28009
2.27055
2.25917
2.24749
2.23423
2.2208
2.20593
2.19115
2.17491
2.159
2.1416
2.12477
2.10641
2.08891
2.06983
2.05185
2.03227
2.01394
1.99402
1.97548
1.95534
1.93678
1.91656
1.89814
1.87803
1.85986
1.84009
1.82225
1.80297
1.78557
1.76688
1.75005
1.73214
1.71615
1.69912
1.68419
1.66829
1.65475
1.64048
1.629
1.61758
1.60923
1.6056
3.16299
2.52036
2.02707
1.6727
1.43589
1.27039
1.17091
1.12272
1.1248
1.14409
1.20308
1.33803
1.68171
1.82674
1.82199
1.80087
1.76077
1.69616
1.65509
1.62899
1.58878
1.54747
1.51378
1.4803
1.45066
1.42911
1.41392
1.40547
1.4067
1.42277
1.46085
1.52027
1.59594
1.67739
1.76475
1.84549
1.92216
1.98955
2.05256
2.10691
2.15568
2.1978
2.23523
2.26725
2.29529
2.31761
2.33647
2.35018
2.3612
2.3697
2.37731
2.37969
2.37853
2.375
2.37171
2.36575
2.35921
2.35006
2.34053
2.32882
2.31714
2.30344
2.29016
2.27482
2.26021
2.24341
2.22764
2.20963
2.19287
2.17396
2.15641
2.13684
2.11864
2.09857
2.07987
2.05943
2.04046
2.01979
2.00081
1.9801
1.96129
1.9408
1.92226
1.90224
1.88394
1.86456
1.8468
1.82814
1.81102
1.79307
1.77676
1.75974
1.74456
1.7288
1.71515
1.70124
1.68987
1.67909
1.67085
1.66856
3.34024
2.7955
2.33069
1.96746
1.69548
1.49735
1.34963
1.24873
1.19889
1.2015
1.2251
1.29128
1.45772
1.83382
1.91043
1.87933
1.84984
1.81482
1.76681
1.71408
1.66934
1.6399
1.60132
1.55755
1.52647
1.50107
1.48009
1.47213
1.47293
1.49136
1.53294
1.59165
1.66201
1.74212
1.82153
1.90141
1.97665
2.04633
2.10977
2.16617
2.21627
2.2599
2.29845
2.3315
2.36001
2.38331
2.4024
2.41694
2.42759
2.43624
2.44351
2.44732
2.44563
2.44129
2.43647
2.43
2.42249
2.41309
2.4027
2.39063
2.37802
2.36378
2.34935
2.33333
2.31747
2.30001
2.28296
2.26418
2.24607
2.22624
2.20727
2.18684
2.1673
2.14653
2.12669
2.10562
2.08563
2.06438
2.04429
2.02307
2.00299
1.98205
1.96221
1.94179
1.9226
1.90272
1.8841
1.86489
1.84702
1.82862
1.81169
1.79431
1.77869
1.76268
1.74898
1.73503
1.72409
1.71368
1.70613
1.70511
3.45526
2.99595
2.58052
2.22438
1.94248
1.719
1.54883
1.41802
1.32335
1.28973
1.29366
1.32369
1.40728
1.62125
1.92132
1.98065
1.94506
1.89964
1.86421
1.82368
1.77901
1.72989
1.68598
1.65652
1.62661
1.5997
1.58236
1.57878
1.58424
1.61576
1.65516
1.70411
1.76235
1.82627
1.89473
1.96333
2.03406
2.10298
2.16713
2.2239
2.27457
2.31824
2.35666
2.38911
2.41704
2.43976
2.45867
2.47295
2.48383
2.49166
2.4985
2.50225
2.50218
2.49703
2.49134
2.48383
2.47623
2.46625
2.45588
2.44305
2.4302
2.41516
2.40055
2.38377
2.36772
2.34963
2.33243
2.31345
2.2953
2.27542
2.25641
2.23561
2.21593
2.19454
2.17445
2.15288
2.13263
2.11105
2.09092
2.06935
2.04958
2.02838
2.00898
1.98819
1.96903
1.94894
1.93023
1.91098
1.89328
1.87498
1.85871
1.84147
1.82688
1.8112
1.79862
1.78536
1.7756
1.76627
1.76021
1.76097
3.52972
3.14772
2.77194
2.44373
2.15853
1.9284
1.73871
1.5893
1.47278
1.38227
1.36612
1.37136
1.40545
1.5066
1.75691
1.97772
2.02485
2.00009
1.95978
1.91307
1.86945
1.83384
1.79058
1.75276
1.72452
1.71163
1.69822
1.70107
1.73096
1.77209
1.806
1.84229
1.88108
1.92281
1.97022
2.01658
2.06963
2.13711
2.20457
2.26571
2.31923
2.36429
2.40335
2.43574
2.46374
2.48635
2.50508
2.51892
2.52929
2.53597
2.54197
2.54554
2.5465
2.54172
2.5349
2.52655
2.51739
2.50684
2.49543
2.48219
2.46826
2.45257
2.43669
2.41941
2.40223
2.38371
2.36552
2.34591
2.32695
2.30654
2.28682
2.26576
2.24524
2.22363
2.20266
2.18075
2.15987
2.13787
2.11744
2.09582
2.07581
2.05446
2.03472
2.01381
1.99444
1.97415
1.95555
1.93613
1.91881
1.90057
1.88481
1.86813
1.85432
1.83973
1.82841
1.81669
1.80883
1.80114
1.79858
1.7995
3.5858
3.25462
2.92728
2.61829
2.34874
2.11336
1.9172
1.75491
1.62001
1.51769
1.4352
1.43306
1.44314
1.48227
1.59168
1.86977
2.03309
2.05573
2.04298
2.01431
1.96586
1.91721
1.88009
1.85959
1.83499
1.8194
1.81771
1.85267
1.91169
1.95671
1.97944
2.00067
2.02192
2.03028
2.0527
2.07929
2.11179
2.15927
2.22458
2.28986
2.34892
2.39906
2.44018
2.47333
2.50092
2.52286
2.54122
2.55488
2.5655
2.57127
2.57656
2.57954
2.58109
2.57747
2.57057
2.56099
2.55119
2.53932
2.52744
2.51346
2.49928
2.48303
2.46681
2.44882
2.43152
2.41254
2.39452
2.37468
2.35567
2.33494
2.31486
2.29332
2.27238
2.25008
2.22872
2.20607
2.18499
2.16278
2.1424
2.12077
2.10089
2.07972
2.06016
2.03936
2.02032
2.00008
1.98201
1.96279
1.94617
1.92846
1.91363
1.89814
1.88561
1.873
1.86345
1.85439
1.84889
1.84423
1.84496
1.8466
3.628
3.33712
3.04533
2.76525
2.50789
2.27937
2.0811
1.90943
1.76761
1.64712
1.55276
1.48971
1.48846
1.50157
1.54247
1.66226
1.96115
2.08195
2.08904
2.07577
2.05621
2.0195
1.96987
1.95071
1.9371
1.93799
1.95522
2.0361
2.12559
2.1611
2.17496
2.18509
2.17656
2.14553
2.13141
2.14424
2.16409
2.19157
2.23099
2.29013
2.35247
2.40898
2.45549
2.49306
2.52271
2.546
2.56484
2.57889
2.58986
2.59614
2.60056
2.60302
2.6047
2.60284
2.59661
2.58737
2.57717
2.56541
2.55311
2.53918
2.52486
2.50852
2.49208
2.47367
2.45572
2.43628
2.41762
2.39765
2.37828
2.35747
2.33721
2.31539
2.29442
2.27178
2.25048
2.22766
2.20658
2.18424
2.16366
2.14209
2.12209
2.10116
2.08174
2.06121
2.04252
2.02253
2.005
1.98614
1.97014
1.95319
1.93943
1.92543
1.91464
1.90445
1.89734
1.89176
1.88877
1.88867
1.88988
1.89348
3.66269
3.40461
3.13943
2.8837
2.64188
2.42351
2.22592
2.05523
1.90407
1.7779
1.66983
1.58502
1.53818
1.53834
1.5541
1.59875
1.72873
2.02343
2.12416
2.12377
2.10736
2.09467
2.07134
2.04742
2.03578
2.05206
2.11756
2.26613
2.36577
2.37924
2.38618
2.37929
2.32894
2.26871
2.22801
2.21116
2.22108
2.23609
2.25867
2.29112
2.34087
2.39738
2.45042
2.49485
2.53
2.55717
2.5779
2.59328
2.60503
2.61239
2.61644
2.61873
2.62026
2.61939
2.61532
2.60634
2.59635
2.58436
2.57221
2.55804
2.54373
2.52735
2.51082
2.49246
2.4742
2.45459
2.4355
2.41534
2.39589
2.37507
2.35499
2.33322
2.31238
2.28998
2.26894
2.24652
2.2255
2.20331
2.18269
2.16107
2.14131
2.12044
2.1017
2.08153
2.06372
2.04451
2.02781
2.01007
1.99488
1.97975
1.96712
1.95576
1.94664
1.93999
1.9353
1.93337
1.93368
1.93434
1.93699
1.944
3.69545
3.45874
3.2205
2.98276
2.75823
2.54756
2.35753
2.18492
2.03385
1.89996
1.78576
1.68879
1.61221
1.58233
1.58382
1.60166
1.65481
1.79519
2.06175
2.15908
2.15851
2.14754
2.13936
2.13731
2.14737
2.1932
2.33984
2.52818
2.60841
2.61248
2.60615
2.56593
2.47438
2.3922
2.333
2.2974
2.28091
2.28599
2.29654
2.31257
2.33693
2.37556
2.42534
2.47331
2.516
2.55035
2.57684
2.59637
2.61047
2.61985
2.62575
2.62776
2.62971
2.62949
2.62808
2.62094
2.61211
2.60086
2.58919
2.57566
2.56179
2.54617
2.53015
2.51236
2.49441
2.47485
2.45578
2.43535
2.41589
2.39495
2.37492
2.3531
2.33233
2.31008
2.28909
2.2668
2.24606
2.22397
2.20379
2.18213
2.16286
2.14209
2.12401
2.10459
2.08775
2.07008
2.05435
2.03872
2.02494
2.01252
2.00204
1.99364
1.9878
1.98408
1.98325
1.98366
1.985
1.98785
1.99106
2.00148
3.72686
3.50915
3.28619
3.06808
2.85648
2.65778
2.47302
2.30519
2.15311
2.01765
1.89778
1.79385
1.70713
1.63724
1.6209
1.6237
1.64433
1.70599
1.85778
2.09168
2.18554
2.19559
2.20027
2.21231
2.26363
2.37287
2.63127
2.81577
2.84637
2.84375
2.81664
2.72638
2.61146
2.51669
2.44492
2.39301
2.35891
2.33985
2.33507
2.34171
2.35216
2.36831
2.39819
2.43957
2.48307
2.52515
2.55893
2.58725
2.60692
2.62061
2.62962
2.63302
2.63532
2.63579
2.63599
2.63246
2.6256
2.61555
2.6048
2.59179
2.57844
2.56322
2.5479
2.53073
2.51366
2.49464
2.4761
2.45577
2.43638
2.41537
2.39547
2.37409
2.35391
2.33206
2.31156
2.28942
2.26911
2.24718
2.22749
2.2062
2.18726
2.16713
2.14923
2.13111
2.11486
2.09906
2.08477
2.0719
2.06075
2.05159
2.04452
2.04001
2.03759
2.0377
2.03844
2.04048
2.04387
2.04859
2.05161
2.06014
3.7578
3.55518
3.3487
3.14434
2.94453
2.75614
2.5769
2.41353
2.26228
2.12663
2.00365
1.89549
1.80023
1.72309
1.65984
1.65636
1.66006
1.68159
1.75171
1.91333
2.12642
2.21514
2.25748
2.29711
2.39503
2.63943
2.95485
3.08518
3.08287
3.06156
2.99401
2.86137
2.73899
2.63839
2.55846
2.4948
2.44546
2.40922
2.38466
2.37103
2.37402
2.37859
2.38887
2.40816
2.44536
2.4856
2.52756
2.56293
2.59249
2.61277
2.62734
2.63561
2.63982
2.64187
2.64395
2.64318
2.63963
2.63099
2.6214
2.60882
2.59629
2.5812
2.56677
2.54986
2.53392
2.5154
2.49794
2.47792
2.45907
2.43796
2.41853
2.39724
2.37776
2.35625
2.33659
2.31481
2.295
2.27358
2.25405
2.23383
2.21506
2.19654
2.1792
2.16285
2.14747
2.13359
2.12157
2.11165
2.10393
2.09878
2.09557
2.09564
2.09606
2.09752
2.10086
2.1053
2.10932
2.11174
2.11339
2.11715
3.79321
3.59971
3.40703
3.21308
3.0269
2.84381
2.67511
2.51214
2.36594
2.22814
2.1055
1.9926
1.89394
1.80668
1.7351
1.6858
1.68439
1.69188
1.71682
1.79706
1.97326
2.17404
2.28176
2.3836
2.56835
2.99111
3.27882
3.31838
3.30579
3.25734
3.12735
2.9817
2.85764
2.75435
2.66845
2.59539
2.53493
2.48483
2.44553
2.41763
2.39975
2.39596
2.39923
2.40649
2.42042
2.44797
2.48725
2.52843
2.56538
2.59673
2.61933
2.63493
2.64477
2.64793
2.65122
2.65215
2.65192
2.64581
2.63753
2.62618
2.61445
2.60022
2.58632
2.57001
2.55452
2.53649
2.5196
2.4999
2.48157
2.46059
2.44145
2.42003
2.40053
2.37937
2.35974
2.33915
2.31946
2.29952
2.28025
2.26142
2.24351
2.22669
2.21113
2.19664
2.1837
2.17284
2.16417
2.15799
2.15425
2.15385
2.15405
2.15556
2.15892
2.16414
2.16855
2.17159
2.1718
2.17137
2.17016
2.16668
3.8349
3.64758
3.46336
3.28049
3.10081
2.92803
2.76139
2.60667
2.45904
2.32548
2.19981
2.0875
1.98394
1.89269
1.81411
1.74597
1.71326
1.71354
1.72527
1.75613
1.85173
2.05812
2.27439
2.46387
2.87345
3.36972
3.53833
3.52946
3.4904
3.3873
3.23083
3.08846
2.96768
2.86343
2.77234
2.69322
2.62463
2.56544
2.51666
2.47617
2.44641
2.42623
2.42042
2.41918
2.42667
2.43858
2.45653
2.49052
2.52865
2.56594
2.59871
2.62359
2.64108
2.65123
2.65599
2.65775
2.65913
2.6567
2.65038
2.63996
2.62936
2.61577
2.60287
2.58693
2.57212
2.5541
2.53756
2.51791
2.49997
2.47973
2.46078
2.44038
2.4207
2.40048
2.38075
2.36111
2.34196
2.3232
2.30512
2.28773
2.27158
2.25657
2.24275
2.23085
2.22122
2.21423
2.20978
2.20859
2.20864
2.21012
2.21357
2.21906
2.22473
2.22866
2.22958
2.22928
2.22744
2.2222
2.21207
2.20072
3.8879
3.70084
3.52059
3.34559
3.17072
3.00651
2.84372
2.69339
2.54848
2.41554
2.29009
2.17709
2.07024
1.97826
1.89035
1.82226
1.75794
1.74874
1.75134
1.77096
1.82268
1.94758
2.2331
2.5318
3.26267
3.69624
3.7233
3.69928
3.62508
3.46495
3.31343
3.18144
3.06573
2.96192
2.87093
2.78919
2.7175
2.65363
2.59754
2.55007
2.51067
2.48031
2.45942
2.45017
2.44621
2.44818
2.45547
2.46867
2.49157
2.52627
2.56225
2.59455
2.62188
2.64016
2.65192
2.65575
2.65774
2.65731
2.65568
2.64732
2.63814
2.62509
2.61292
2.59754
2.58305
2.56582
2.54898
2.53032
2.51201
2.49274
2.47374
2.45431
2.4351
2.41582
2.39683
2.37815
2.36008
2.34273
2.32647
2.3116
2.29806
2.28584
2.27558
2.26786
2.2626
2.26064
2.26025
2.26137
2.26447
2.27049
2.27678
2.28182
2.28434
2.28396
2.28241
2.27857
2.26977
2.25517
2.23853
2.22365
3.95483
3.75973
3.57904
3.40875
3.2412
3.07687
2.92359
2.77245
2.63438
2.49996
2.37851
2.26143
2.15775
2.05832
1.97252
1.89505
1.82699
1.79514
1.79454
1.80776
1.85156
1.96573
2.18644
2.65449
3.60176
3.8836
3.86523
3.8056
3.67452
3.5217
3.3842
3.26374
3.15694
3.06136
2.97399
2.89458
2.82141
2.75468
2.6947
2.641
2.59409
2.55402
2.52106
2.4957
2.47976
2.47065
2.46339
2.46859
2.47648
2.48943
2.51458
2.54645
2.57835
2.60573
2.62593
2.63846
2.64525
2.64626
2.64718
2.6444
2.63843
2.62729
2.61509
2.60057
2.58584
2.56972
2.55338
2.53617
2.51867
2.50063
2.4824
2.46398
2.44564
2.42749
2.40972
2.39261
2.37631
2.36122
2.34779
2.3357
2.32526
2.31702
2.31176
2.30948
2.30936
2.3107
2.31434
2.32113
2.32874
2.33534
2.33992
2.34011
2.33961
2.33718
2.33071
2.31708
2.30044
2.28155
2.26204
2.24367
4.025
3.82056
3.64129
3.46903
3.3094
3.14881
2.99738
2.85102
2.71333
2.58124
2.4614
2.34298
2.24103
2.13824
2.05237
1.97142
1.90133
1.86671
1.86622
1.87843
1.92258
2.03679
2.27736
2.82191
3.75132
3.9839
3.97119
3.91028
3.77554
3.63994
3.51351
3.39939
3.29501
3.20004
3.11119
3.02857
2.95042
2.87804
2.80983
2.74699
2.68947
2.63775
2.59249
2.55345
2.52197
2.49874
2.48404
2.47294
2.46758
2.47196
2.48005
2.49534
2.52346
2.55279
2.58032
2.60324
2.61877
2.62837
2.63016
2.63036
2.62902
2.62352
2.61267
2.59935
2.58509
2.57012
2.5548
2.53898
2.52284
2.50634
2.48965
2.4729
2.45627
2.44
2.42432
2.40956
2.39613
2.3845
2.37445
2.366
2.36034
2.35779
2.35756
2.35832
2.36238
2.36931
2.37768
2.38603
2.39144
2.39439
2.39385
2.39169
2.38656
2.37526
2.35883
2.33983
2.31903
2.29705
2.27506
2.25499
4.12642
3.89832
3.70805
3.53469
3.37462
3.21972
3.0711
2.92601
2.79298
2.65878
2.54253
2.42281
2.32054
2.21927
2.1297
2.05311
1.97977
1.96665
1.96796
1.98878
2.05234
2.20028
2.53015
3.05834
3.69508
4.00448
4.01445
3.99857
3.93893
3.79968
3.66488
3.5434
3.43301
3.33246
3.2385
3.15049
3.06675
2.98786
2.91293
2.84309
2.77781
2.71807
2.66358
2.6155
2.5732
2.53819
2.50936
2.49081
2.4738
2.46151
2.46387
2.46915
2.4782
2.49709
2.52357
2.55184
2.57573
2.59445
2.60593
2.61064
2.61117
2.61006
2.60607
2.59592
2.583
2.56885
2.55407
2.53895
2.52367
2.50826
2.49287
2.47764
2.46293
2.44883
2.43594
2.42443
2.41503
2.40702
2.40104
2.39846
2.3983
2.39972
2.40435
2.41252
2.42251
2.43247
2.4413
2.44622
2.44602
2.44507
2.44208
2.43364
2.4179
2.39953
2.37878
2.35611
2.33304
2.30941
2.28677
2.2665
4.18406
3.97966
3.77857
3.60376
3.44189
3.28962
3.14374
3.00073
2.86861
2.73779
2.61853
2.50417
2.39714
2.30093
2.21086
2.13636
2.08933
2.08736
2.10043
2.14524
2.26513
2.5387
2.88873
3.1767
3.49984
3.83159
3.99304
3.99438
3.97754
3.92844
3.80904
3.67973
3.56074
3.45238
3.35395
3.26129
3.17478
3.09085
3.01176
2.93564
2.8647
2.79797
2.7373
2.68123
2.63121
2.58578
2.54695
2.51387
2.49051
2.46999
2.45484
2.44823
2.45103
2.45661
2.46714
2.48996
2.51461
2.54014
2.5608
2.57582
2.58444
2.58526
2.58491
2.58228
2.57592
2.56385
2.55051
2.53686
2.52334
2.51002
2.49702
2.48452
2.47279
2.46213
2.45316
2.44642
2.4407
2.43847
2.43818
2.44006
2.44474
2.45406
2.46518
2.47695
2.48756
2.49496
2.49801
2.49735
2.49463
2.48836
2.47591
2.45813
2.43761
2.41481
2.39111
2.36652
2.34236
2.31837
2.2959
2.27624
4.1994
4.08452
3.86536
3.67882
3.51206
3.35967
3.21558
3.07485
2.94335
2.81475
2.69577
2.5817
2.47766
2.38129
2.29954
2.23735
2.23217
2.23939
2.27683
2.38096
2.62315
2.93949
3.13302
3.24808
3.38611
3.60497
3.83656
3.96342
3.96966
3.96036
3.92
3.82015
3.69605
3.57611
3.46755
3.36762
3.27519
3.18701
3.10383
3.02361
2.94849
2.87708
2.81096
2.74951
2.69241
2.64051
2.59298
2.551
2.5152
2.48692
2.46383
2.44479
2.4309
2.43194
2.43497
2.44176
2.45542
2.47965
2.50415
2.52737
2.5446
2.55643
2.56103
2.56107
2.55975
2.55585
2.54676
2.53564
2.52384
2.51218
2.50138
2.49194
2.4838
2.4781
2.47371
2.47291
2.47272
2.47501
2.48059
2.49127
2.50397
2.51752
2.53047
2.54105
2.54669
2.54655
2.54526
2.54132
2.53182
2.51488
2.49562
2.47285
2.44912
2.4241
2.39924
2.37421
2.35023
2.32692
2.3055
2.28719
4.19877
4.13207
3.96499
3.7642
3.58796
3.43168
3.28766
3.14833
3.01742
2.8911
2.77192
2.66074
2.55814
2.47084
2.39821
2.39098
2.39573
2.43093
2.52893
2.77421
3.0776
3.23669
3.29403
3.31978
3.36547
3.45126
3.60608
3.79625
3.92706
3.95604
3.94976
3.91569
3.83165
3.70897
3.58774
3.47722
3.37607
3.28279
3.19434
3.11121
3.03118
2.9566
2.8857
2.82006
2.75815
2.70021
2.64616
2.59656
2.55172
2.51327
2.48111
2.45571
2.43241
2.41585
2.40871
2.41044
2.41467
2.42348
2.44145
2.46538
2.48861
2.51012
2.52433
2.5344
2.53737
2.53729
2.53604
2.53269
2.52485
2.51645
2.50931
2.50367
2.50105
2.5005
2.50147
2.50493
2.51272
2.52456
2.5385
2.5542
2.56986
2.58277
2.59222
2.595
2.59417
2.59117
2.58463
2.57046
2.55223
2.52985
2.50632
2.48094
2.45563
2.4299
2.40524
2.38093
2.35817
2.33636
2.3163
2.29973
4.17373
4.1413
4.05073
3.85226
3.6682
3.5062
3.36053
3.22228
3.09143
2.96746
2.85058
2.74207
2.6492
2.56955
2.5606
2.56408
2.5973
2.70111
2.96021
3.26289
3.41097
3.42079
3.4137
3.38927
3.38712
3.40404
3.45531
3.57363
3.76728
3.90536
3.94146
3.93696
3.90624
3.83164
3.71428
3.59431
3.48263
3.38102
3.28611
3.19737
3.11316
3.03432
2.96017
2.89094
2.82515
2.76286
2.70346
2.6478
2.59644
2.55002
2.50934
2.4745
2.44583
2.4197
2.39921
2.38571
2.38547
2.38795
2.39363
2.40577
2.42729
2.45256
2.47457
2.49428
2.50771
2.51662
2.52146
2.5233
2.52258
2.52198
2.52175
2.52207
2.52457
2.52921
2.53813
2.5509
2.56669
2.58482
2.60312
2.61988
2.63276
2.63976
2.64004
2.6385
2.63404
2.62318
2.6065
2.58529
2.56223
2.53649
2.51105
2.48482
2.45985
2.43483
2.41132
2.38831
2.36695
2.34677
2.32812
2.31361
4.12185
4.11681
4.0733
3.95915
3.76213
3.58781
3.43571
3.29721
3.16671
3.04516
2.93221
2.83444
2.75073
2.73985
2.7425
2.77848
2.88849
3.17145
3.4772
3.60306
3.60761
3.58618
3.52447
3.43706
3.39739
3.40226
3.42273
3.47202
3.58332
3.75379
3.88252
3.92164
3.91884
3.89343
3.82777
3.71537
3.59649
3.48651
3.38457
3.28896
3.19883
3.11444
3.03597
2.96206
2.8925
2.82543
2.76151
2.70104
2.64425
2.59252
2.54501
2.5025
2.46491
2.43331
2.40451
2.38052
2.36407
2.35824
2.35988
2.36384
2.37247
2.39053
2.41461
2.44038
2.46416
2.48424
2.49993
2.51136
2.52065
2.52853
2.53703
2.54658
2.55738
2.571
2.58879
2.60917
2.63038
2.65052
2.66693
2.67931
2.68273
2.68206
2.67922
2.67229
2.6583
2.63816
2.61588
2.59046
2.5651
2.53886
2.51365
2.48812
2.46408
2.44025
2.41803
2.39646
2.37665
2.35839
2.34154
2.32967
3.90078
4.08872
4.072
4.00949
3.85928
3.67491
3.51507
3.37359
3.24514
3.12677
3.02494
2.94033
2.92779
2.93075
2.97199
3.09367
3.40871
3.72381
3.8252
3.82483
3.79245
3.70257
3.58866
3.49767
3.43633
3.42613
3.43247
3.45293
3.49695
3.59367
3.7299
3.84625
3.89025
3.88936
3.87038
3.81636
3.71189
3.6004
3.49132
3.38596
3.2874
3.19598
3.1124
3.03437
2.96091
2.88972
2.82182
2.75687
2.69623
2.63931
2.58697
2.53777
2.49359
2.45291
2.41937
2.38871
2.36329
2.34424
2.33324