/*--------------------------------*- C++ -*----------------------------------*\
  =========                 |
  \\      /  F ield         | OpenFOAM: The Open Source CFD Toolbox
   \\    /   O peration     | Website:  https://openfoam.org
    \\  /    A nd           | Version:  9
     \\/     M anipulation  |
\*---------------------------------------------------------------------------*/
FoamFile
{
    format      ascii;
    class       volScalarField;
    location    "4.5";
    object      T;
}
// * * * * * * * * * * * * * * * * * * * * * * * * * * * * * * * * * * * * * //

dimensions      [0 0 0 1 0 0 0];

internalField   nonuniform List<scalar> 
5250
(
1
1.00002
1.00004
1.0001
1.00026
1.00064
1.00158
1.00399
1.00952
1.02479
1.06104
1.16293
1.43623
2.09633
2.64818
2.7609
2.74272
2.73706
2.749
2.76474
2.77844
2.78534
2.7929
2.79774
2.79957
1
1.00002
1.00004
1.0001
1.00026
1.00063
1.00155
1.00393
1.00936
1.0244
1.06
1.16015
1.42886
2.08214
2.6433
2.76062
2.74193
2.73593
2.74789
2.76359
2.77725
2.78414
2.79171
2.79651
2.79827
1
1.00001
1.00004
1.0001
1.00025
1.00062
1.00149
1.00382
1.00899
1.02366
1.0577
1.15444
1.41285
2.05011
2.63161
2.7592
2.73943
2.73261
2.74464
2.76024
2.77368
2.7809
2.78816
2.79305
2.79519
1
1.00001
1.00004
1.00009
1.00024
1.00058
1.00143
1.00359
1.00856
1.02234
1.05459
1.14555
1.38906
1.99949
2.6128
2.75632
2.73501
2.72688
2.73854
2.75463
2.76826
2.77494
2.78294
2.78721
2.78898
1
1.00001
1.00003
1.0001
1.0002
1.0006
1.00121
1.00358
1.00758
1.02123
1.04988
1.13526
1.35727
1.93183
2.586
2.7508
2.72797
2.71833
2.73055
2.74576
2.76008
2.7672
2.77421
2.77949
2.78141
1
1.00001
1.00003
1.00008
1.00021
1.00049
1.00123
1.00303
1.00733
1.01876
1.0462
1.12109
1.32315
1.8457
2.54983
2.74026
2.7167
2.70591
2.71789
2.73457
2.74857
2.75561
2.76374
2.76768
2.76953
1
1.00001
1.00003
1.00007
1.0002
1.00041
1.00122
1.00247
1.00731
1.01568
1.04358
1.10649
1.29058
1.75989
2.50738
2.72674
2.70298
2.69158
2.70379
2.71833
2.73429
2.74064
2.74734
2.75161
2.75228
1
1.00001
1.00002
1.00007
1.00015
1.00045
1.00093
1.00265
1.00583
1.01574
1.03731
1.09934
1.26
1.69507
2.4585
2.71129
2.69098
2.68069
2.6894
2.70269
2.71464
2.72169
2.72628
2.72832
2.72528
1
1.00001
1.00003
1.00005
1.00017
1.00033
1.00101
1.00205
1.00594
1.01307
1.03561
1.08706
1.23678
1.62678
2.38914
2.68419
2.68127
2.67385
2.6756
2.68487
2.69507
2.69683
2.69843
2.69441
2.67998
1
1.00001
1.00002
1.00006
1.00013
1.00035
1.00077
1.00216
1.00463
1.01311
1.02952
1.08057
1.20705
1.56043
2.29613
2.64787
2.67373
2.66581
2.66198
2.66588
2.6712
2.67011
2.66198
2.64083
2.5805
1
1.00001
1.00002
1.00005
1.00011
1.00031
1.00067
1.0019
1.00406
1.01155
1.02584
1.0705
1.17993
1.48867
2.17974
2.59999
2.66485
2.6559
2.64788
2.64706
2.64552
2.63769
2.61635
2.56613
2.45261
1
1.00001
1.00002
1.00004
1.0001
1.00025
1.00061
1.00155
1.00363
1.0096
1.02246
1.05951
1.1523
1.41212
2.03506
2.53744
2.65168
2.64232
2.63182
2.62687
2.61987
2.60339
2.56806
2.49722
2.36508
1
1
1.00001
1.00003
1.00009
1.00019
1.00056
1.00118
1.00327
1.00737
1.0196
1.04723
1.12578
1.33137
1.86274
2.45687
2.62787
2.62099
2.61119
2.60273
2.5921
2.56912
2.5269
2.45021
2.33034
1
1
1.00001
1.00003
1.00007
1.00017
1.00041
1.00106
1.0024
1.00649
1.01461
1.03927
1.0962
1.25852
1.67391
2.35848
2.59051
2.59194
2.58441
2.57518
2.56115
2.5369
2.49235
2.42184
2.31677
1
1
1.00001
1.00002
1.00006
1.00013
1.00036
1.00078
1.0022
1.00464
1.0133
1.02953
1.08091
1.20563
1.55254
2.24592
2.54744
2.56762
2.55872
2.54723
2.53284
2.50614
2.46361
2.40064
2.31003
1
1
1.00001
1.00002
1.00005
1.00011
1.00028
1.00066
1.00166
1.00408
1.00991
1.0252
1.06282
1.16546
1.44063
2.07504
2.47601
2.54744
2.53952
2.52483
2.50649
2.48043
2.43915
2.38252
2.30516
1
1
1.00001
1.00001
1.00004
1.00009
1.00022
1.00053
1.00127
1.00327
1.00758
1.02007
1.04799
1.1277
1.33626
1.86523
2.37964
2.51988
2.51844
2.50562
2.48202
2.45681
2.4173
2.36749
2.2988
1
1
1
1.00001
1.00003
1.00006
1.00018
1.00036
1.00106
1.00223
1.00616
1.01394
1.03682
1.09039
1.24067
1.62406
2.25312
2.47373
2.48847
2.47869
2.45794
2.43229
2.39705
2.35147
2.29339
1
1
1
1.00001
1.00002
1.00005
1.00011
1.00032
1.00071
1.00187
1.0044
1.01107
1.02726
1.06916
1.17975
1.47552
2.10412
2.41889
2.46216
2.45349
2.43505
2.40859
2.37713
2.33597
2.2855
1
1
1
1.00001
1.00001
1.00004
1.00008
1.00025
1.0005
1.00149
1.0031
1.00871
1.01963
1.05242
1.1311
1.35233
1.88505
2.32182
2.43091
2.42969
2.4142
2.38917
2.3578
2.32161
2.27635
1
1
1
1
1.00001
1.00003
1.00007
1.00016
1.00041
1.00098
1.00238
1.00598
1.01415
1.03653
1.09028
1.23742
1.61697
2.18589
2.3822
2.39992
2.38996
2.36785
2.33876
2.30543
2.26646
1
1
1
1
1.00001
1.00002
1.00005
1.00011
1.00031
1.00066
1.00187
1.00389
1.01116
1.02438
1.06649
1.16514
1.4409
2.0175
2.32027
2.37146
2.3648
2.34639
2.31979
2.28963
2.25473
1
1
1
1
1.00001
1.00002
1.00003
1.00009
1.00019
1.00054
1.00115
1.00316
1.00711
1.01863
1.04472
1.11733
1.30394
1.77781
2.21222
2.33302
2.33831
2.32666
2.30326
2.27418
2.24199
1
1
1
1
1
1.00001
1.00002
1.00006
1.00015
1.00033
1.00089
1.00193
1.00532
1.01156
1.03149
1.07428
1.19722
1.50973
2.05458
2.27356
2.30751
2.30214
2.28426
2.25811
2.22856
1
1
1
1
1
1.00001
1.00002
1.00004
1.0001
1.00022
1.00063
1.00128
1.00372
1.00782
1.02158
1.05003
1.13339
1.34207
1.84079
2.18508
2.27298
2.27706
2.26625
2.24312
2.2153
1
1
1
1
1
1
1.00001
1.00003
1.00006
1.00016
1.00039
1.0009
1.00236
1.00519
1.01413
1.03178
1.08496
1.21148
1.55307
2.04274
2.22273
2.24849
2.24368
2.22613
2.20108
1
1
1
1
1
1
1.00001
1.00002
1.00005
1.0001
1.00028
1.00056
1.00164
1.00333
1.00951
1.02079
1.05598
1.13664
1.36306
1.84875
2.14867
2.21707
2.22026
2.20962
2.1881
1
1
1
1
1
1
1.00001
1.00001
1.00003
1.00006
1.00017
1.00039
1.00098
1.00235
1.00567
1.01419
1.03408
1.0869
1.22184
1.57008
2.01494
2.17119
2.19374
2.18896
2.17241
1
1
1
1
1
1
1
1.00001
1.00002
1.00004
1.0001
1.00027
1.00059
1.00161
1.00342
1.00952
1.02078
1.05599
1.13563
1.35948
1.82076
2.09548
2.16064
2.16561
2.15685
1
1
1
1
1
1
1
1
1.00001
1.00003
1.00007
1.00015
1.00042
1.00088
1.00243
1.00529
1.01397
1.03246
1.08401
1.21014
1.54193
1.96036
2.11413
2.13933
2.13711
1
1
1
1
1
1
1
1
1.00001
1.00002
1.00004
1.00009
1.00026
1.00054
1.00156
1.00316
1.00898
1.01944
1.0522
1.12571
1.33233
1.76079
2.03419
2.10595
2.11434
1
1
1
1
1
1
1
1
1
1.00001
1.00002
1.00007
1.00014
1.00037
1.00084
1.00208
1.00503
1.01196
1.02999
1.07262
1.18523
1.47213
1.88856
2.05687
2.08707
1
1
1
1
1
1
1
1
1
1.00001
1.00002
1.00004
1.00009
1.00023
1.00049
1.00138
1.00279
1.00801
1.01698
1.04607
1.10915
1.28806
1.67911
1.97476
2.05657
1
1
1
1
1
1
1
1
1
1
1.00001
1.00002
1.00006
1.00013
1.00031
1.00076
1.00176
1.00454
1.01005
1.02671
1.06156
1.16034
1.40612
1.81425
1.99902
1
1
1
1
1
1
1
1
1
1
1.00001
1.00001
1.00003
1.00007
1.0002
1.00041
1.00117
1.00236
1.00674
1.01422
1.03846
1.08999
1.23625
1.57148
1.8958
1
1
1
1
1
1
1
1
1
1
1
1.00001
1.00002
1.00005
1.0001
1.00028
1.00057
1.00164
1.0033
1.00933
1.02001
1.05336
1.12738
1.332
1.71242
1
1
1
1
1
1
1
1
1
1
1
1
1.00001
1.00002
1.00007
1.00014
1.00038
1.00079
1.00215
1.00466
1.0121
1.02779
1.0706
1.17284
1.43689
1
1
1
1
1
1
1
1
1
1
1
1
1.00001
1.00002
1.00003
1.00009
1.00019
1.0005
1.00115
1.00279
1.00679
1.01592
1.04021
1.09661
1.24841
1
1
1
1
1
1
1
1
1
1
1
1
1
1.00001
1.00002
1.00004
1.00012
1.00025
1.00071
1.00143
1.00398
1.00847
1.02249
1.05139
1.1327
1
1
1
1
1
1
1
1
1
1
1
1
1
1
1.00001
1.00003
1.00007
1.00015
1.00036
1.00086
1.00201
1.00498
1.0113
1.02897
1.06717
1
1
1
1
1
1
1
1
1
1
1
1
1
1
1.00001
1.00001
1.00004
1.00008
1.0002
1.00048
1.0011
1.00282
1.00615
1.01632
1.03621
1
1
1
1
1
1
1
1
1
1
1
1
1
1
1
1.00001
1.00002
1.00005
1.00011
1.00025
1.00066
1.00138
1.00381
1.00785
1.0216
1
1
1
1
1
1
1
1
1
1
1
1
1
1
1
1
1.00001
1.00003
1.00006
1.00015
1.00035
1.00085
1.00193
1.00492
1.01083
1
1
1
1
1
1
1
1
1
1
1
1
1
1
1
1
1.00001
1.00002
1.00004
1.00009
1.00022
1.00054
1.00124
1.00318
1.00698
1
1
1
1
1
1
1
1
1
1
1
1
1
1
1
1
1
1.00001
1.00003
1.00008
1.00016
1.00045
1.00092
1.00267
1.00555
1
1
1
1
1
1
1
1
1
1
1
1
1
1
1
1
1
1.00001
1.00003
1.00006
1.00016
1.00034
1.001
1.00202
1.00595
1
1
1
1
1
1
1
1
1
1
1
1
1
1
1
1
1
1.00001
1.00002
1.00006
1.00013
1.00039
1.00079
1.00234
1.00494
1
1
1
1
1
1
1
1
1
1
1
1
1
1
1
1
1
1.00001
1.00003
1.00005
1.00015
1.00034
1.00087
1.00213
1.0052
1
1
1
1
1
1
1
1
1
1
1
1
1
1
1
1
1
1.00001
1.00003
1.00005
1.00015
1.00032
1.0009
1.00204
1.00534
1
1
1
1
1
1
1
1
1
1
1
1
1
1
1
1
1
1.00001
1.00002
1.00005
1.00015
1.00031
1.00094
1.0019
1.00567
2.2358
2.07027
2.01987
2.05159
2.11575
2.1921
2.27754
2.33718
2.39998
2.50142
2.65549
2.8309
2.8719
2.89056
2.88739
2.89209
2.89753
2.87863
2.85422
2.84439
2.83249
2.82041
2.81157
2.79731
2.78562
2.77581
2.76704
2.76316
2.76214
2.76704
2.77911
2.79851
2.82062
2.84457
2.86528
2.88276
2.89842
2.90903
2.91834
2.92397
2.92648
2.92763
2.925
2.92409
2.92004
2.91685
2.90958
2.90543
2.8967
2.89164
2.88097
2.87484
2.86316
2.85628
2.84449
2.83691
2.82469
2.8169
2.80426
2.79654
2.78366
2.77574
2.76268
2.75462
2.74177
2.73372
2.72106
2.71266
2.6998
2.6912
2.67806
2.66937
2.65611
2.64731
2.63412
2.62532
2.61231
2.60362
2.59081
2.58231
2.56975
2.5615
2.54924
2.54129
2.52932
2.52176
2.51009
2.5029
2.49162
2.48481
2.474
2.46766
2.45743
2.45182
2.44239
2.4379
2.43
2.42747
2.42282
2.42301
2.22991
2.13232
2.07831
2.04314
2.00858
1.9903
1.9929
2.01724
2.07882
2.22287
2.42218
2.66988
2.78359
2.82658
2.85225
2.87589
2.89719
2.91403
2.92614
2.92848
2.93064
2.9319
2.92414
2.90327
2.89433
2.88767
2.88087
2.87874
2.88048
2.88458
2.89168
2.90311
2.91143
2.92116
2.92701
2.9298
2.92815
2.9255
2.91873
2.91074
2.89423
2.88627
2.87273
2.86321
2.85025
2.8396
2.82647
2.81573
2.80253
2.79187
2.77777
2.76598
2.75159
2.74045
2.72611
2.71506
2.70067
2.68958
2.67551
2.66467
2.65091
2.64005
2.62643
2.61562
2.60228
2.59154
2.57835
2.56792
2.5549
2.54473
2.53184
2.52184
2.50906
2.49919
2.48658
2.47686
2.46448
2.45498
2.44281
2.43361
2.42162
2.41278
2.40099
2.39245
2.38098
2.37266
2.36161
2.35351
2.34289
2.33511
2.32493
2.31761
2.30797
2.30135
2.29245
2.28683
2.27929
2.27553
2.27092
2.26953
2.22912
2.14105
2.06289
1.98637
1.92067
1.87112
1.85942
1.87076
1.90682
1.99982
2.15692
2.44648
2.59507
2.6466
2.70759
2.76746
2.78997
2.81096
2.85139
2.87971
2.90467
2.92608
2.93523
2.93976
2.93899
2.93632
2.93572
2.93853
2.94546
2.95305
2.95474
2.95471
2.94514
2.93655
2.92448
2.90607
2.88805
2.87091
2.85654
2.84065
2.82788
2.81446
2.80145
2.7892
2.77638
2.76402
2.75087
2.73874
2.72572
2.71426
2.7012
2.68859
2.67476
2.66268
2.64984
2.63814
2.62547
2.61374
2.60113
2.58947
2.57707
2.56558
2.55343
2.54222
2.53023
2.51935
2.50753
2.49698
2.48532
2.47506
2.46345
2.4534
2.44181
2.4319
2.42035
2.41061
2.39916
2.38966
2.37834
2.36917
2.358
2.34915
2.33821
2.32962
2.31899
2.31062
2.30034
2.29222
2.28228
2.27441
2.26478
2.25735
2.24813
2.24133
2.23284
2.2271
2.21994
2.21602
2.21169
2.21009
2.22091
2.13405
2.05278
1.98095
1.91389
1.86559
1.82794
1.82072
1.83013
1.86634
1.96445
2.16892
2.38896
2.50407
2.55907
2.5823
2.62043
2.6829
2.71929
2.73531
2.77197
2.8119
2.83795
2.8655
2.88887
2.90518
2.91836
2.92808
2.93223
2.93045
2.92071
2.90393
2.87922
2.85802
2.83327
2.81442
2.79395
2.7789
2.76252
2.74978
2.73607
2.72361
2.71058
2.69851
2.6855
2.67373
2.6608
2.64932
2.63686
2.62617
2.61375
2.60202
2.5886
2.57696
2.56415
2.55277
2.54031
2.52912
2.51694
2.50592
2.49379
2.4829
2.47073
2.46004
2.4479
2.43754
2.42555
2.41552
2.40369
2.39385
2.38218
2.37243
2.36092
2.35128
2.33995
2.33047
2.31931
2.31006
2.29901
2.29005
2.27914
2.2704
2.25974
2.25114
2.24084
2.23232
2.22239
2.21403
2.20446
2.1965
2.18734
2.1799
2.17123
2.16443
2.15649
2.15068
2.14404
2.14001
2.1361
2.13417
2.21865
2.1343
2.05641
1.98613
1.9235
1.86625
1.82329
1.78818
1.78359
1.79534
1.8383
1.9589
2.17189
2.32481
2.41154
2.47141
2.50203
2.52575
2.55818
2.60542
2.6431
2.6581
2.68853
2.73104
2.75764
2.78317
2.81116
2.82727
2.83651
2.83441
2.82166
2.79655
2.77022
2.74355
2.72233
2.70381
2.68837
2.67448
2.66176
2.65035
2.63884
2.62795
2.61652
2.60562
2.59428
2.58341
2.57213
2.56132
2.55039
2.54057
2.53021
2.51955
2.50786
2.49718
2.48619
2.47576
2.46495
2.45457
2.4438
2.43351
2.42267
2.41255
2.40177
2.39187
2.38116
2.3715
2.3609
2.35162
2.34125
2.3323
2.32213
2.31319
2.30308
2.29405
2.2839
2.27495
2.26483
2.25609
2.24622
2.23771
2.22822
2.21992
2.21077
2.20261
2.19359
2.18567
2.17686
2.16929
2.16083
2.15369
2.1457
2.13916
2.13168
2.12595
2.11906
2.11443
2.10862
2.10566
2.10235
2.10104
2.22038
2.14159
2.06464
1.99849
1.93494
1.88001
1.83007
1.79296
1.76542
1.76624
1.78297
1.83484
1.96612
2.1774
2.28254
2.33103
2.37877
2.42638
2.44764
2.46346
2.49162
2.53184
2.5669
2.58621
2.61483
2.64926
2.67983
2.69632
2.71609
2.71507
2.70091
2.6751
2.64629
2.62056
2.59763
2.58143
2.57044
2.5634
2.55676
2.55067
2.54308
2.53571
2.52735
2.51948
2.51093
2.50271
2.49358
2.48477
2.4751
2.46682
2.45813
2.44954
2.43932
2.4298
2.41972
2.41056
2.40034
2.39107
2.38083
2.37173
2.36152
2.35245
2.3421
2.33311
2.32274
2.31378
2.30343
2.29437
2.28409
2.27515
2.26503
2.25638
2.24637
2.23787
2.22791
2.21936
2.20947
2.20096
2.19112
2.18287
2.1731
2.16513
2.15562
2.14791
2.13893
2.13138
2.12287
2.11556
2.10731
2.10052
2.09241
2.08641
2.07873
2.07374
2.06706
2.06333
2.05828
2.05629
2.0539
2.05313
2.22461
2.14784
2.07971
2.01117
1.95329
1.89602
1.84736
1.8036
1.76928
1.75109
1.75296
1.77415
1.83455
1.96543
2.15417
2.24902
2.27566
2.30296
2.34093
2.37414
2.39154
2.40572
2.43595
2.47147
2.50612
2.52784
2.56128
2.59286
2.6199
2.619
2.60334
2.57481
2.54433
2.51344
2.49097
2.47417
2.4671
2.4647
2.46377
2.46204
2.45863
2.45478
2.44918
2.44383
2.4373
2.43113
2.42414
2.41762
2.41028
2.40369
2.39682
2.39019
2.38207
2.37361
2.36499
2.3568
2.34839
2.34012
2.33142
2.32318
2.31446
2.30636
2.29755
2.28926
2.28022
2.27184
2.26264
2.25432
2.24499
2.23665
2.22734
2.21901
2.20992
2.20166
2.19266
2.1845
2.17535
2.16734
2.158
2.15015
2.1409
2.13332
2.12446
2.11717
2.10876
2.1018
2.09371
2.0872
2.07933
2.07333
2.06576
2.06044
2.05351
2.04919
2.0434
2.04052
2.03651
2.03564
2.0343
2.03401
2.22613
2.15782
2.08997
2.02914
1.96907
1.91668
1.86678
1.82165
1.78461
1.75306
1.74249
1.7477
1.77106
1.83849
1.96683
2.1216
2.20222
2.23256
2.24493
2.26766
2.30076
2.32549
2.34528
2.3649
2.40005
2.4354
2.47739
2.51628
2.54987
2.54951
2.53205
2.50198
2.46412
2.4297
2.40371
2.38316
2.37184
2.36967
2.37322
2.37689
2.3787
2.37856
2.3769
2.37461
2.37107
2.36757
2.36286
2.35839
2.35285
2.34794
2.34255
2.33787
2.3317
2.32509
2.31737
2.31059
2.30304
2.29634
2.28855
2.28148
2.27348
2.26631
2.25819
2.25088
2.24225
2.23453
2.22541
2.21749
2.20839
2.20048
2.19165
2.18387
2.17528
2.16776
2.15924
2.1519
2.14313
2.13566
2.1266
2.11902
2.11001
2.10255
2.09389
2.08686
2.07861
2.07219
2.0643
2.05847
2.05093
2.04558
2.03856
2.03376
2.02768
2.02381
2.0192
2.01689
2.01421
2.01414
2.0136
2.01314
2.22649
2.16496
2.10227
2.04247
1.9866
1.93428
1.88544
1.84257
1.80064
1.7689
1.74123
1.73746
1.74513
1.77185
1.84545
1.96254
2.0877
2.1554
2.1884
2.20083
2.21423
2.23649
2.27186
2.29576
2.32279
2.3556
2.41413
2.47488
2.50272
2.50061
2.47925
2.44566
2.40276
2.3634
2.33379
2.31432
2.30075
2.29285
2.2943
2.30036
2.30715
2.31193
2.31507
2.31588
2.31527
2.31368
2.31089
2.30804
2.30412
2.30057
2.29641
2.29313
2.28868
2.2838
2.27733
2.27102
2.26421
2.25774
2.25074
2.2441
2.23673
2.23009
2.22263
2.21607
2.2084
2.2014
2.19317
2.1856
2.17707
2.16943
2.16095
2.15357
2.14515
2.13808
2.1297
2.12279
2.11442
2.10743
2.09899
2.09172
2.08324
2.07599
2.06771
2.06102
2.05319
2.04738
2.04008
2.03509
2.02833
2.02394
2.01795
2.01412
2.00924
2.00627
2.00302
2.00141
2.00035
2.00062
2.00036
1.99964
2.22479
2.16855
2.11268
2.05625
2.0034
1.95194
1.90579
1.86061
1.82185
1.78439
1.75535
1.73278
1.73316
1.74291
1.77238
1.84821
1.96256
2.06055
2.11159
2.14558
2.16451
2.17548
2.1976
2.22957
2.26758
2.31548
2.38386
2.4518
2.47216
2.46523
2.44305
2.40393
2.35627
2.31266
2.28032
2.2592
2.24513
2.23603
2.23056
2.23333
2.24047
2.24908
2.2559
2.26075
2.26365
2.26477
2.26449
2.26334
2.26102
2.25868
2.25565
2.2532
2.25023
2.24693
2.24194
2.23662
2.2303
2.2245
2.2178
2.21181
2.20493
2.19884
2.19196
2.18582
2.17886
2.17239
2.16488
2.1578
2.14963
2.14224
2.13383
2.12658
2.11824
2.11119
2.10297
2.09612
2.08816
2.08143
2.07349
2.06671
2.05855
2.05184
2.04366
2.03746
2.02981
2.02448
2.0178
2.01324
2.00768
2.00381
1.99952
1.99633
1.99355
1.9912
1.99009
1.9893
1.98927
1.98979
1.98997
1.98924
2.22054
2.17137
2.1184
2.06752
2.01651
1.96908
1.92274
1.88096
1.84054
1.80481
1.77175
1.74586
1.72848
1.72944
1.74145
1.77383
1.84816
1.96198
2.04158
2.07531
2.10875
2.13161
2.15107
2.17789
2.22349
2.29593
2.38212
2.44479
2.45273
2.44123
2.4134
2.36937
2.3201
2.27828
2.24478
2.21918
2.20289
2.19129
2.18512
2.18216
2.18523
2.19294
2.20192
2.21054
2.21659
2.22076
2.22284
2.22342
2.22271
2.22124
2.21888
2.21706
2.2146
2.21244
2.20838
2.20383
2.19779
2.19211
2.18555
2.17949
2.17273
2.1665
2.15972
2.15358
2.14682
2.14072
2.1336
2.12708
2.11925
2.11222
2.10402
2.097
2.08897
2.08223
2.07448
2.06798
2.06024
2.05389
2.04608
2.03992
2.03203
2.02601
2.01821
2.01245
2.00533
2.00013
1.99425
1.98984
1.98558
1.98221
1.97944
1.97749
1.97602
1.97543
1.97545
1.97554
1.97576
1.97635
1.97768
1.9764
2.2141
2.16998
2.12413
2.07598
2.0292
1.98321
1.93969
1.89778
1.85895
1.82245
1.7893
1.75984
1.73652
1.72503
1.72641
1.74003
1.77437
1.84585
1.95487
2.02632
2.05312
2.08288
2.11178
2.15155
2.20538
2.30455
2.39693
2.43977
2.43916
2.42356
2.38969
2.34287
2.2959
2.25518
2.22166
2.19515
2.17474
2.16075
2.15216
2.14775
2.14513
2.1474
2.15405
2.16244
2.17197
2.17799
2.18334
2.18481
2.18578
2.18514
2.18347
2.18212
2.17987
2.1782
2.17482
2.1709
2.16505
2.15948
2.15296
2.14708
2.14046
2.13445
2.12764
2.12151
2.11454
2.10845
2.10134
2.09513
2.08759
2.08092
2.0729
2.06594
2.05793
2.05137
2.04372
2.0376
2.03005
2.02413
2.01656
2.01083
2.00356
1.99804
1.99142
1.98607
1.98029
1.97524
1.9705
1.9665
1.96324
1.96081
1.95921
1.95843
1.95854
1.95875
1.95916
1.95988
1.96104
1.96151
1.96202
1.96089
2.20621
2.16619
2.12455
2.08123
2.03846
1.99496
1.95458
1.91399
1.87678
1.84043
1.80752
1.77648
1.7504
1.72923
1.72211
1.72495
1.73968
1.77694
1.84351
1.94775
2.01269
2.04472
2.07931
2.1333
2.21984
2.33471
2.42096
2.44039
2.43373
2.41158
2.37056
2.32285
2.27932
2.24177
2.20933
2.18232
2.16001
2.14237
2.13012
2.12224
2.11784
2.11573
2.11582
2.1201
2.12698
2.13477
2.14024
2.14536
2.14725
2.1487
2.14771
2.14627
2.14351
2.14132
2.13791
2.13449
2.12906
2.12396
2.11763
2.11227
2.10573
2.10024
2.09333
2.08756
2.08024
2.07426
2.06677
2.06073
2.05316
2.04692
2.03906
2.03262
2.02466
2.01838
2.01064
2.0048
1.99751
1.9919
1.9851
1.97944
1.97328
1.96782
1.96255
1.95772
1.95326
1.94926
1.94586
1.94309
1.94103
1.93987
1.93954
1.93972
1.94031
1.94103
1.94216
1.94329
1.94375
1.94388
1.94322
1.94165
2.19646
2.16153
2.12354
2.08509
2.04385
2.00541
1.96448
1.92844
1.89037
1.85688
1.823
1.79329
1.76445
1.74161
1.72274
1.72055
1.72505
1.74053
1.78185
1.84522
1.94554
2.01329
2.06211
2.13509
2.26632
2.3865
2.4384
2.43933
2.42747
2.39748
2.35457
2.31079
2.27146
2.23713
2.20627
2.17947
2.1554
2.1353
2.1187
2.10523
2.09668
2.09064
2.08625
2.08356
2.08414
2.08793
2.0936
2.09899
2.10374
2.10591
2.10704
2.10597
2.1036
2.10132
2.09807
2.09529
2.09082
2.08626
2.08042
2.07521
2.06897
2.06359
2.05701
2.05142
2.04439
2.03861
2.03125
2.02544
2.01797
2.01224
2.00489
1.99927
1.99205
1.98619
1.97919
1.97315
1.96667
1.96082
1.95501
1.9496
1.94444
1.93964
1.93519
1.93111
1.92767
1.92487
1.92282
1.92167
1.92103
1.92122
1.92175
1.92237
1.92365
1.92502
1.92596
1.9264
1.92597
1.92513
1.92342
1.92113
2.1859
2.15488
2.12089
2.08517
2.0486
2.01114
1.97511
1.93811
1.90441
1.86961
1.83851
1.80716
1.77961
1.75349
1.73225
1.7176
1.71813
1.72531
1.74433
1.79227
1.85945
1.96232
2.05476
2.16729
2.32537
2.43151
2.45322
2.44731
2.42693
2.3893
2.34581
2.30653
2.27097
2.23904
2.20996
2.18256
2.15698
2.13383
2.11244
2.09486
2.07966
2.06821
2.05908
2.05161
2.04619
2.04262
2.04383
2.04816
2.05329
2.0582
2.06084
2.06195
2.06133
2.05963
2.05664
2.05463
2.0514
2.04833
2.04326
2.03877
2.03278
2.02786
2.0214
2.01633
2.00956
2.00447
1.99753
1.99229
1.98529
1.97981
1.97317
1.96755
1.96134
1.9556
1.94965
1.9439
1.9382
1.93279
1.92768
1.92308
1.91893
1.91527
1.91209
1.90935
1.90749
1.90623
1.90569
1.90597
1.90661
1.90738
1.90893
1.91074
1.912
1.91293
1.91268
1.91198
1.91071
1.90854
1.90414
1.90119
2.17458
2.14604
2.11595
2.08311
2.0507
2.01454
1.98171
1.94643
1.91428
1.88139
1.85132
1.82052
1.79426
1.76569
1.74563
1.72371
1.71702
1.71884
1.72992
1.75605
1.81434
1.90878
2.03838
2.22881
2.39999
2.4614
2.46294
2.45163
2.42384
2.38445
2.34592
2.31034
2.27723
2.24666
2.216
2.18687
2.15816
2.13143
2.10679
2.0839
2.06366
2.04592
2.03106
2.01901
2.0097
2.00245
1.99909
1.99806
2.00088
2.00575
2.0102
2.01447
2.01639
2.01775
2.01681
2.01577
2.01369
2.01196
2.00834
2.00485
1.99932
1.99507
1.98903
1.98444
1.97832
1.97348
1.9676
1.96249
1.95679
1.95154
1.94594
1.94057
1.93506
1.92974
1.92446
1.9194
1.9145
1.90993
1.90569
1.90192
1.89862
1.89576
1.89375
1.89247
1.89224
1.89262
1.89364
1.89475
1.89673
1.89934
1.90146
1.90282
1.90329
1.90306
1.90218
1.90006
1.89625
1.89137
1.88617
1.88246
2.16218
2.13509
2.10871
2.07868
2.04852
2.01815
1.98451
1.95418
1.92092
1.89155
1.86028
1.83314
1.80408
1.78022
1.75454
1.73628
1.72156
1.72195
1.72954
1.74912
1.79576
1.8786
2.04595
2.27975
2.45202
2.48588
2.48018
2.46162
2.42678
2.38996
2.3537
2.31807
2.28297
2.24826
2.21488
2.18228
2.15137
2.12199
2.09393
2.06793
2.044
2.02265
2.00427
1.98921
1.97747
1.96837
1.96198
1.95811
1.95609
1.95759
1.96212
1.96781
1.97345
1.97752
1.97994
1.98093
1.97988
1.97879
1.97645
1.97426
1.96987
1.96599
1.96099
1.9566
1.95159
1.94688
1.94169
1.93668
1.93154
1.92654
1.92153
1.91664
1.91182
1.90712
1.90259
1.89824
1.89425
1.8906
1.8875
1.88471
1.88261
1.88117
1.88056
1.88088
1.88166
1.88268
1.88452
1.88757
1.88988
1.89227
1.89301
1.89276
1.89191
1.89039
1.88727
1.8824
1.8765
1.87043
1.86426
1.86065
2.1489
2.12451
2.09843
2.07364
2.04386
2.01673
1.98678
1.95746
1.92757
1.89918
1.86885
1.84368
1.81386
1.79223
1.76543
1.74833
1.73238
1.73284
1.74064
1.75971
1.80342
1.89191
2.06702
2.30936
2.45357
2.47251
2.46008
2.43868
2.40244
2.36363
2.32606
2.28965
2.25525
2.22157
2.18953
2.15822
2.12849
2.09948
2.07266
2.04745
2.02423
2.00303
1.98391
1.96762
1.95376
1.94299
1.93396
1.92684
1.92276
1.921
1.92141
1.9249
1.93044
1.93605
1.9411
1.94429
1.94615
1.94599
1.94489
1.94378
1.94162
1.9387
1.93466
1.93051
1.92605
1.92155
1.91682
1.91208
1.90728
1.90254
1.89785
1.89328
1.88889
1.8847
1.88083
1.87729
1.87425
1.87174
1.86958
1.86818
1.86759
1.86794
1.86884
1.87042
1.87225
1.87614
1.87933
1.88203
1.88458
1.8845
1.88422
1.88338
1.88115
1.87706
1.87176
1.86571
1.85903
1.85241
1.84636
1.84273
2.13742
2.11333
2.08792
2.06494
2.03929
2.01304
1.9858
1.9594
1.92975
1.90538
1.87466
1.85188
1.82331
1.80131
1.77826
1.75994
1.75118
1.75388
1.76491
1.78934
1.84428
1.94525
2.09557
2.25345
2.36348
2.40144
2.3977
2.38626
2.36457
2.32992
2.29467
2.26111
2.23008
2.20018
2.17144
2.14295
2.1153
2.08816
2.06245
2.03775
2.01474
1.99302
1.97313
1.95461
1.93841
1.92414
1.91298
1.90379
1.89621
1.89109
1.88862
1.88732
1.88895
1.8929
1.89904
1.90429
1.90898
1.91149
1.91264
1.91222
1.91132
1.90994
1.90755
1.90422
1.90048
1.89654
1.89254
1.8886
1.88472
1.88092
1.87718
1.87357
1.87008
1.86688
1.86401
1.86163
1.85996
1.85861
1.85812
1.85854
1.85945
1.86079
1.86279
1.86652
1.86986
1.87315
1.87562
1.8768
1.87667
1.87588
1.87419
1.87144
1.86608
1.8604
1.85378
1.84694
1.8397
1.83299
1.82683
1.82315
2.12247
2.10198
2.07849
2.05519
2.03259
2.00827
1.98292
1.95868
1.9315
1.90736
1.88081
1.85606
1.83263
1.80883
1.79074
1.77599
1.77603
1.78406
1.80261
1.84541
1.92064
2.02989
2.11902
2.1894
2.2719
2.32804
2.3457
2.34181
2.33148
2.31038
2.28069
2.2488
2.21847
2.19
2.16172
2.13433
2.10659
2.08058
2.05505
2.03141
2.00843
1.98691
1.96581
1.94641
1.92802
1.9121
1.89784
1.88617
1.87631
1.86758
1.86146
1.85775
1.85671
1.85721
1.86051
1.86577
1.87195
1.87663
1.88055
1.88211
1.88273
1.88211
1.88134
1.87996
1.87733
1.87384
1.87014
1.86645
1.86286
1.85943
1.85622
1.85329
1.85072
1.84864
1.8471
1.84624
1.84593
1.84637
1.84751
1.84885
1.85161
1.85558
1.85953
1.86331
1.86637
1.86919
1.86875
1.8684
1.86747
1.86521
1.86065
1.85547
1.84905
1.84239
1.83524
1.82824
1.82103
1.81455
1.80865
1.80519
2.10789
2.09085
2.0693
2.04583
2.02468
2.0022
1.97865
1.95598
1.93113
1.90806
1.88352
1.86099
1.83816
1.81936
1.80357
1.80131
1.80842
1.82445
1.86046
1.9264
2.02401
2.08951
2.12228
2.14863
2.1878
2.24127
2.27905
2.29579
2.29356
2.28549
2.26962
2.24297
2.21271
2.18383
2.15556
2.1283
2.10122
2.07552
2.05048
2.02717
2.00417
1.98243
1.96102
1.9405
1.92131
1.90317
1.88706
1.87268
1.86014
1.84974
1.84023
1.83291
1.82816
1.82623
1.82598
1.82751
1.83178
1.83692
1.8428
1.84685
1.8504
1.85158
1.85247
1.85209
1.85132
1.84975
1.84726
1.84444
1.84163
1.83908
1.83685
1.83511
1.83394
1.83338
1.83354
1.83418
1.83551
1.83701
1.84007
1.84445
1.84883
1.8532
1.85726
1.85967
1.86155
1.86123
1.86029
1.85834
1.85517
1.85021
1.84405
1.8377
1.83049
1.82345
1.81618
1.80934
1.80244
1.79638
1.79079
1.7876
2.0881
2.07613
2.0593
2.03621
2.01568
1.99507
1.97321
1.95207
1.9293
1.90743
1.88559
1.86441
1.84587
1.83026
1.82748
1.83445
1.84946
1.88286
1.94735
2.03492
2.09468
2.11266
2.1167
2.11964
2.13204
2.16017
2.1997
2.23592
2.2537
2.25395
2.24748
2.23367
2.20945
2.18061
2.15179
2.12369
2.09657
2.07029
2.04576
2.02193
1.99971
1.97741
1.9561
1.9348
1.9146
1.89556
1.87803
1.86201
1.84777
1.83467
1.82372
1.81331
1.80512
1.79933
1.79657
1.79603
1.79658
1.79927
1.80468
1.80988
1.81581
1.81943
1.82289
1.82388
1.82484
1.8246
1.82405
1.82288
1.8212
1.81975
1.81872
1.81854
1.81896
1.81997
1.82119
1.82349
1.82756
1.83178
1.83667
1.84186
1.84631
1.85014
1.85285
1.8526
1.85225
1.85125
1.84865
1.84428
1.8386
1.83245
1.82535
1.81862
1.81125
1.80438
1.79731
1.79089
1.78445
1.7789
1.77386
1.77102
2.06757
2.06215
2.04752
2.02689
2.00646
1.98712
1.96673
1.94676
1.92629
1.90568
1.88611
1.86866
1.85451
1.85203
1.85942
1.87485
1.90994
1.9723
2.05654
2.11242
2.12533
2.11865
2.11237
2.09976
2.10037
2.10655
2.12626
2.16181
2.19794
2.21753
2.21954
2.2134
2.20105
2.17768
2.14947
2.12049
2.09253
2.06559
2.04075
2.01713
1.9948
1.97273
1.95096
1.92918
1.9083
1.88838
1.87002
1.85296
1.83712
1.82249
1.80893
1.79713
1.78656
1.77772
1.77125
1.76762
1.76644
1.76631
1.7678
1.77151
1.77785
1.78315
1.78931
1.79301
1.79669
1.79855
1.79993
1.80085
1.80142
1.802
1.8027
1.80399
1.80561
1.80857
1.81278
1.81776
1.82323
1.82895
1.83456
1.83928
1.84206
1.84441
1.8438
1.8428
1.84072
1.83782
1.83234
1.82655
1.81978
1.8132
1.8059
1.79907
1.79201
1.78566
1.77912
1.77329
1.76748
1.7626
1.75821
1.75573
2.03795
2.04172
2.03441
2.01836
1.99781
1.97851
1.95973
1.94076
1.92238
1.90402
1.88765
1.87505
1.87348
1.88191
1.89858
1.93478
1.99993
2.08286
2.13724
2.14723
2.13872
2.12475
2.10116
2.08281
2.07596
2.07657
2.08212
2.09923
2.12933
2.16157
2.17801
2.18049
2.17502
2.16403
2.14372
2.11809
2.08995
2.06183
2.03539
2.01103
1.98839
1.96655
1.94474
1.92329
1.90209
1.88227
1.8635
1.84573
1.82901
1.81266
1.79757
1.78368
1.77149
1.76107
1.75185
1.74481
1.74022
1.73809
1.73777
1.73871
1.74173
1.74749
1.75417
1.76066
1.76673
1.77174
1.77567
1.7792
1.78217
1.78526
1.78859
1.79217
1.79646
1.80159
1.80772
1.81418
1.8205
1.82612
1.83086
1.83331
1.83389
1.83349
1.83231
1.82982
1.82496
1.81996
1.81329
1.80697
1.79972
1.79314
1.78612
1.77981
1.77324
1.76742
1.76153
1.75643
1.75136
1.74722
1.74355
1.74155
2.00246
2.02057
2.01903
2.00774
1.99002
1.97068
1.95238
1.93519
1.91846
1.90397
1.89259
1.89222
1.90195
1.92044
1.95869
2.02745
2.11148
2.16089
2.16871
2.15968
2.14199
2.11469
2.08979
2.06955
2.05795
2.05375
2.05425
2.05842
2.07193
2.09525
2.12343
2.13761
2.14101
2.1365
2.12737
2.11114
2.08616
2.05802
2.03043
2.00574
1.9828
1.96085
1.93862
1.91668
1.89514
1.87517
1.85608
1.83811
1.82042
1.80351
1.78702
1.77223
1.75833
1.74667
1.73588
1.72655
1.71866
1.71318
1.71062
1.71062
1.71131
1.71399
1.71946
1.72696
1.7349
1.7429
1.75057
1.75736
1.76396
1.77026
1.77647
1.78317
1.79032
1.79763
1.80481
1.81169
1.81722
1.82106
1.82359
1.82302
1.8222
1.82054
1.81728
1.8128
1.80652
1.80042
1.79329
1.78691
1.77983
1.77359
1.76698
1.7612
1.75523
1.75008
1.74484
1.74044
1.73613
1.73282
1.73
1.72854
1.92919
1.98824
1.99813
1.99425
1.98119
1.9636
1.94612
1.93025
1.91666
1.9077
1.90845
1.92002
1.9407
1.98239
2.05621
2.13983
2.18495
2.19022
2.18075
2.16015
2.13259
2.10432
2.08104
2.06196
2.04671
2.03683
2.03188
2.03142
2.03268
2.04115
2.05982
2.08208
2.09521
2.1006
2.09722
2.0904
2.07698
2.05259
2.02618
2.00121
1.97811
1.95509
1.93209
1.90933
1.88798
1.86797
1.8493
1.83076
1.81285
1.79486
1.7782
1.76218
1.74802
1.73449
1.72282
1.71161
1.70228
1.69405
1.68869
1.68588
1.68595
1.68655
1.68904
1.69462
1.70326
1.71323
1.72409
1.73525
1.74608
1.75663
1.76673
1.77641
1.78557
1.79397
1.80122
1.80699
1.8098
1.81138
1.81088
1.80985
1.80752
1.80367
1.79831
1.79273
1.78595
1.77983
1.77296
1.76693
1.76029
1.75461
1.7485
1.74334
1.73792
1.73349
1.72893
1.72551
1.7221
1.71989
1.71794
1.71699
1.79117
1.94208
1.97252
1.97624
1.97064
1.95736
1.94128
1.92749
1.91949
1.92218
1.93555
1.95922
2.00587
2.08623
2.16836
2.20712
2.21016
2.20044
2.17954
2.14771
2.12059
2.09617
2.0754
2.05816
2.04017
2.02702
2.01444
2.0078
2.00417
2.00469
2.00859
2.02065
2.0392
2.05262
2.05979
2.0573
2.05146
2.03955
2.01966
1.99657
1.97307
1.94906
1.92499
1.9021
1.88084
1.86125
1.84219
1.82321
1.80437
1.78624
1.76905
1.75335
1.73814
1.72448
1.71064
1.69913
1.68754
1.67932
1.67124
1.66653
1.66414
1.66426
1.66509
1.66813
1.67515
1.686
1.69903
1.71355
1.72853
1.74312
1.75691
1.7692
1.77966
1.78751
1.79351
1.79638
1.79689
1.79656
1.79543
1.7931
1.78841
1.78328
1.77733
1.77191
1.76526
1.75949
1.7529
1.74742
1.7412
1.73611
1.73048
1.72602
1.72128
1.71773
1.71408
1.71176
1.70935
1.70823
1.70729
1.70699
1.58124
1.85647
1.94293
1.95841
1.95876
1.95143
1.93926
1.92965
1.93306
1.9484
1.97858
2.02942
2.11832
2.19591
2.22929
2.22831
2.21801
2.19427
2.16393
2.13505
2.11052
2.09154
2.07063
2.05426
2.03514
2.01854
2.00349
1.98955
1.98215
1.9751
1.9747
1.97583
1.98258