/*--------------------------------*- C++ -*----------------------------------*\
  =========                 |
  \\      /  F ield         | OpenFOAM: The Open Source CFD Toolbox
   \\    /   O peration     | Website:  https://openfoam.org
    \\  /    A nd           | Version:  9
     \\/     M anipulation  |
\*---------------------------------------------------------------------------*/
FoamFile
{
    format      ascii;
    class       volVectorField;
    location    "4.5";
    object      U;
}
// * * * * * * * * * * * * * * * * * * * * * * * * * * * * * * * * * * * * * //

dimensions      [0 1 -1 0 0 0 0];

internalField   nonuniform List<vector> 
5250
(
(3 1.1844e-08 0)
(2.99999 7.73982e-08 0)
(2.99997 2.62332e-07 0)
(2.99991 7.60161e-07 0)
(2.99978 1.96001e-06 0)
(2.99947 5.03551e-06 0)
(2.99866 1.23783e-05 0)
(2.99674 3.1085e-05 0)
(2.99182 7.60369e-05 0)
(2.97972 0.000190623 0)
(2.94805 0.00047623 0)
(2.86158 0.00124219 0)
(2.61101 0.00340506 0)
(1.87568 0.00974723 0)
(0.871478 0.0264853 0)
(0.441934 0.0243584 0)
(0.534978 0.0244174 0)
(0.560443 0.026262 0)
(0.505816 0.0281253 0)
(0.415206 0.0300207 0)
(0.330294 0.0322518 0)
(0.261611 0.0348515 0)
(0.192953 0.0375474 0)
(0.114896 0.0406087 0)
(0.0495495 0.0446726 0)
(3 3.44773e-08 0)
(2.99999 2.35255e-07 0)
(2.99997 7.73703e-07 0)
(2.99991 2.29656e-06 0)
(2.99978 5.8196e-06 0)
(2.99947 1.52045e-05 0)
(2.99868 3.67327e-05 0)
(2.99679 9.50265e-05 0)
(2.99196 0.00022775 0)
(2.98006 0.000586292 0)
(2.94893 0.0014523 0)
(2.86401 0.00382839 0)
(2.61802 0.0105236 0)
(1.89429 0.0302377 0)
(0.882097 0.0807252 0)
(0.438571 0.0703531 0)
(0.535003 0.0672756 0)
(0.561662 0.0702714 0)
(0.506731 0.0733329 0)
(0.416132 0.0765537 0)
(0.331193 0.080123 0)
(0.261922 0.0839993 0)
(0.192242 0.0875401 0)
(0.112873 0.0908303 0)
(0.0469208 0.0936113 0)
(3 5.87283e-08 0)
(2.99999 3.82737e-07 0)
(2.99997 1.29525e-06 0)
(2.99992 3.74191e-06 0)
(2.99979 9.70861e-06 0)
(2.99949 2.50113e-05 0)
(2.99873 6.27386e-05 0)
(2.9969 0.000156942 0)
(2.99223 0.000391408 0)
(2.98075 0.000972506 0)
(2.95075 0.00246035 0)
(2.86915 0.00642085 0)
(2.63306 0.0177588 0)
(1.93579 0.0512057 0)
(0.907644 0.138495 0)
(0.436004 0.11957 0)
(0.538949 0.113075 0)
(0.568356 0.118249 0)
(0.51327 0.124037 0)
(0.422951 0.130717 0)
(0.337979 0.137503 0)
(0.267892 0.144564 0)
(0.196804 0.151281 0)
(0.115496 0.15719 0)
(0.0471639 0.160721 0)
(3 6.79614e-08 0)
(2.99999 5.46975e-07 0)
(2.99997 1.61336e-06 0)
(2.99992 5.36671e-06 0)
(2.9998 1.21579e-05 0)
(2.99952 3.61365e-05 0)
(2.99879 7.76485e-05 0)
(2.99706 0.00022786 0)
(2.99264 0.000486945 0)
(2.98178 0.00139687 0)
(2.95347 0.00321269 0)
(2.87679 0.00885988 0)
(2.65561 0.0239899 0)
(1.99946 0.069733 0)
(0.948793 0.192222 0)
(0.436515 0.168183 0)
(0.547983 0.158417 0)
(0.581595 0.165576 0)
(0.526568 0.174237 0)
(0.436593 0.18498 0)
(0.351145 0.195459 0)
(0.279893 0.206258 0)
(0.206851 0.216926 0)
(0.122377 0.226264 0)
(0.0496836 0.231047 0)
(3 9.62327e-08 0)
(2.99999 6.22775e-07 0)
(2.99997 2.09837e-06 0)
(2.99993 6.15889e-06 0)
(2.99982 1.57748e-05 0)
(2.99955 4.0847e-05 0)
(2.99889 0.000100437 0)
(2.99724 0.000254313 0)
(2.99321 0.000629615 0)
(2.98302 0.00157721 0)
(2.95697 0.00401094 0)
(2.88654 0.0104336 0)
(2.68411 0.0288986 0)
(2.0831 0.0836571 0)
(1.00674 0.237661 0)
(0.445914 0.218125 0)
(0.563916 0.206266 0)
(0.602215 0.213998 0)
(0.547488 0.224558 0)
(0.457871 0.239143 0)
(0.371285 0.253578 0)
(0.29829 0.26864 0)
(0.222585 0.284028 0)
(0.133433 0.297902 0)
(0.0543044 0.304959 0)
(3 1.03716e-07 0)
(2.99999 6.76606e-07 0)
(2.99997 2.22476e-06 0)
(2.99993 6.69427e-06 0)
(2.99983 1.6854e-05 0)
(2.99959 4.34256e-05 0)
(2.99897 0.000110403 0)
(2.9975 0.000263283 0)
(2.99374 0.000698304 0)
(2.9846 0.00162892 0)
(2.96087 0.00432295 0)
(2.89756 0.010948 0)
(2.71731 0.0303391 0)
(2.18226 0.0875992 0)
(1.08941 0.256026 0)
(0.479734 0.262652 0)
(0.59246 0.256728 0)
(0.632783 0.264805 0)
(0.578305 0.276537 0)
(0.48904 0.294663 0)
(0.40056 0.313642 0)
(0.324932 0.333944 0)
(0.245642 0.355421 0)
(0.150245 0.375946 0)
(0.0619217 0.387673 0)
(3 8.43466e-08 0)
(2.99999 6.60507e-07 0)
(2.99998 2.0158e-06 0)
(2.99994 6.51646e-06 0)
(2.99985 1.5218e-05 0)
(2.99962 4.38152e-05 0)
(2.99907 9.50128e-05 0)
(2.99773 0.000274508 0)
(2.99435 0.00058041 0)
(2.98603 0.00167205 0)
(2.96478 0.00373937 0)
(2.90816 0.0103131 0)
(2.74885 0.027077 0)
(2.27792 0.0778954 0)
(1.18822 0.230098 0)
(0.528278 0.295861 0)
(0.624338 0.309497 0)
(0.664605 0.31712 0)
(0.613294 0.329613 0)
(0.527315 0.351705 0)
(0.438395 0.376374 0)
(0.360621 0.403262 0)
(0.277868 0.432815 0)
(0.175247 0.463394 0)
(0.0743985 0.484864 0)
(3 9.73108e-08 0)
(2.99999 5.58129e-07 0)
(2.99998 2.07598e-06 0)
(2.99994 5.531e-06 0)
(2.99986 1.53417e-05 0)
(2.99966 3.74005e-05 0)
(2.99916 9.57656e-05 0)
(2.99791 0.000231534 0)
(2.9949 0.000581853 0)
(2.98723 0.00141118 0)
(2.96806 0.00356165 0)
(2.91705 0.00897046 0)
(2.77344 0.0240843 0)
(2.35091 0.0672994 0)
(1.2909 0.19868 0)
(0.575086 0.3367 0)
(0.639035 0.37043 0)
(0.678782 0.368907 0)
(0.640225 0.381596 0)
(0.564956 0.408061 0)
(0.48056 0.440457 0)
(0.40399 0.476201 0)
(0.320581 0.516869 0)
(0.212498 0.562977 0)
(0.0955716 0.605554 0)
(3 9.76501e-08 0)
(2.99999 5.48088e-07 0)
(2.99998 2.05954e-06 0)
(2.99995 5.3541e-06 0)
(2.99987 1.51935e-05 0)
(2.99969 3.53979e-05 0)
(2.99923 9.65161e-05 0)
(2.99813 0.000215919 0)
(2.99533 0.000589437 0)
(2.98852 0.0013336 0)
(2.97107 0.0035455 0)
(2.92525 0.00866395 0)
(2.79715 0.0234089 0)
(2.41994 0.0650974 0)
(1.42107 0.191955 0)
(0.655756 0.386325 0)
(0.647023 0.418755 0)
(0.677244 0.415032 0)
(0.660449 0.431645 0)
(0.601202 0.46137 0)
(0.526287 0.50308 0)
(0.455207 0.550199 0)
(0.37656 0.605363 0)
(0.27053 0.67708 0)
(0.134076 0.76479 0)
(3 8.98435e-08 0)
(2.99999 5.74403e-07 0)
(2.99998 2.04277e-06 0)
(2.99996 5.59272e-06 0)
(2.99989 1.52686e-05 0)
(2.99972 3.73645e-05 0)
(2.99931 9.4247e-05 0)
(2.99832 0.000234038 0)
(2.99583 0.000562128 0)
(2.9897 0.00144554 0)
(2.97416 0.00347307 0)
(2.9336 0.00899482 0)
(2.82035 0.0235853 0)
(2.4903 0.0658926 0)
(1.5744 0.192796 0)
(0.756653 0.434568 0)
(0.654364 0.451104 0)
(0.682487 0.453362 0)
(0.680518 0.476482 0)
(0.637211 0.510436 0)
(0.576906 0.560741 0)
(0.515847 0.620046 0)
(0.45213 0.696664 0)
(0.366608 0.81348 0)
(0.206818 1.02446 0)
(3 9.44574e-08 0)
(2.99999 5.98841e-07 0)
(2.99998 2.06138e-06 0)
(2.99996 5.90989e-06 0)
(2.9999 1.54507e-05 0)
(2.99976 3.90561e-05 0)
(2.9994 9.77547e-05 0)
(2.99852 0.000239477 0)
(2.99634 0.000599641 0)
(2.99095 0.00145744 0)
(2.97735 0.0036922 0)
(2.94206 0.00920859 0)
(2.84437 0.0244099 0)
(2.56123 0.0676475 0)
(1.749 0.196688 0)
(0.876088 0.48295 0)
(0.663738 0.48538 0)
(0.694904 0.488053 0)
(0.705891 0.513034 0)
(0.676553 0.553037 0)
(0.632629 0.609105 0)
(0.590538 0.67995 0)
(0.56141 0.777081 0)
(0.561283 0.925555 0)
(0.603041 1.17649 0)
(3 9.48224e-08 0)
(3 6.16543e-07 0)
(2.99999 2.04753e-06 0)
(2.99997 6.09766e-06 0)
(2.99991 1.52967e-05 0)
(2.99979 4.02078e-05 0)
(2.99948 9.83627e-05 0)
(2.99874 0.000245941 0)
(2.99685 0.000615405 0)
(2.99227 0.00149722 0)
(2.98063 0.00382062 0)
(2.95084 0.00945054 0)
(2.86918 0.0250414 0)
(2.63411 0.0689556 0)
(1.94523 0.199964 0)
(1.01804 0.52605 0)
(0.683956 0.523588 0)
(0.716221 0.524323 0)
(0.738417 0.54435 0)
(0.72176 0.588018 0)
(0.693948 0.647647 0)
(0.674865 0.726173 0)
(0.682201 0.832232 0)
(0.74528 0.978372 0)
(0.900631 1.17041 0)
(3 8.96943e-08 0)
(3 5.87057e-07 0)
(2.99999 1.98697e-06 0)
(2.99997 5.79711e-06 0)
(2.99993 1.49218e-05 0)
(2.99983 3.88105e-05 0)
(2.99957 9.50492e-05 0)
(2.99895 0.000242275 0)
(2.99738 0.00058934 0)
(2.99362 0.00149551 0)
(2.98398 0.00368249 0)
(2.95972 0.00938385 0)
(2.89419 0.024339 0)
(2.7076 0.0671021 0)
(2.15761 0.194093 0)
(1.19134 0.543877 0)
(0.7355 0.565818 0)
(0.754672 0.570713 0)
(0.781367 0.578261 0)
(0.776102 0.618488 0)
(0.761048 0.678536 0)
(0.762042 0.757099 0)
(0.795381 0.857957 0)
(0.885554 0.980526 0)
(1.06393 1.10172 0)
(3 7.68224e-08 0)
(3 5.24874e-07 0)
(2.99999 1.73581e-06 0)
(2.99998 5.14993e-06 0)
(2.99994 1.30109e-05 0)
(2.99986 3.43486e-05 0)
(2.99965 8.20171e-05 0)
(2.99915 0.000214239 0)
(2.99789 0.000502069 0)
(2.99485 0.0013093 0)
(2.9872 0.00311271 0)
(2.96807 0.00804732 0)
(2.91738 0.0202937 0)
(2.77674 0.0552261 0)
(2.36723 0.157299 0)
(1.41136 0.465112 0)
(0.836912 0.589402 0)
(0.814609 0.614105 0)
(0.83245 0.620328 0)
(0.839079 0.650398 0)
(0.8331 0.704356 0)
(0.845588 0.77551 0)
(0.892575 0.861553 0)
(0.989073 0.956752 0)
(1.15805 1.03437 0)
(3 6.74687e-08 0)
(3 4.37535e-07 0)
(2.99999 1.47497e-06 0)
(2.99998 4.29022e-06 0)
(2.99995 1.09764e-05 0)
(2.99988 2.81799e-05 0)
(2.99972 6.922e-05 0)
(2.9993 0.00017144 0)
(2.99829 0.000421715 0)
(2.99579 0.00103062 0)
(2.9896 0.00255611 0)
(2.97403 0.00627689 0)
(2.93347 0.0159095 0)
(2.82109 0.0417242 0)
(2.49683 0.115739 0)
(1.627 0.344353 0)
(0.935284 0.623573 0)
(0.855622 0.655952 0)
(0.87207 0.667817 0)
(0.892021 0.684651 0)
(0.899737 0.727422 0)
(0.920727 0.78697 0)
(0.973261 0.856272 0)
(1.06739 0.927837 0)
(1.21845 0.98114 0)
(3 6.23621e-08 0)
(3 3.57185e-07 0)
(2.99999 1.34201e-06 0)
(2.99998 3.51184e-06 0)
(2.99996 9.93666e-06 0)
(2.99991 2.34727e-05 0)
(2.99977 6.20919e-05 0)
(2.99944 0.000144838 0)
(2.99861 0.00037391 0)
(2.99663 0.000885182 0)
(2.99157 0.00224832 0)
(2.97919 0.00546124 0)
(2.94682 0.0139265 0)
(2.85874 0.0360296 0)
(2.60536 0.0995943 0)
(1.88126 0.290085 0)
(1.08536 0.665447 0)
(0.885927 0.691547 0)
(0.899106 0.70414 0)
(0.930025 0.712421 0)
(0.955435 0.74544 0)
(0.985124 0.794167 0)
(1.03974 0.849201 0)
(1.12849 0.902803 0)
(1.26099 0.940893 0)
(3 4.93724e-08 0)
(3 3.36233e-07 0)
(3 1.10421e-06 0)
(2.99999 3.29214e-06 0)
(2.99997 8.28061e-06 0)
(2.99993 2.17941e-05 0)
(2.99982 5.24752e-05 0)
(2.99956 0.000134508 0)
(2.99891 0.000322732 0)
(2.99735 0.000817068 0)
(2.99341 0.00198717 0)
(2.98377 0.00500279 0)
(2.95887 0.0125043 0)
(2.89234 0.0325603 0)
(2.70317 0.089147 0)
(2.14679 0.257956 0)
(1.28066 0.679971 0)
(0.936789 0.723512 0)
(0.933817 0.732442 0)
(0.966335 0.736113 0)
(1.00491 0.757939 0)
(1.04137 0.797344 0)
(1.09575 0.84179 0)
(1.17786 0.882766 0)
(1.29365 0.910623 0)
(3 4.06309e-08 0)
(3 2.78032e-07 0)
(3 9.11279e-07 0)
(2.99999 2.73426e-06 0)
(2.99998 6.80274e-06 0)
(2.99994 1.81451e-05 0)
(2.99986 4.27167e-05 0)
(2.99967 0.000111917 0)
(2.99918 0.000261304 0)
(2.99802 0.000679847 0)
(2.99506 0.00159743 0)
(2.98795 0.00413427 0)
(2.9698 0.0099793 0)
(2.92258 0.0261306 0)
(2.79269 0.0694692 0)
(2.4155 0.199174 0)
(1.55078 0.575773 0)
(1.0476 0.730743 0)
(0.993949 0.75508 0)
(1.01195 0.763941 0)
(1.05351 0.773601 0)
(1.09479 0.801675 0)
(1.14646 0.836314 0)
(1.22048 0.867692 0)
(1.32129 0.888169 0)
(3 3.36381e-08 0)
(3 2.08534e-07 0)
(3 7.41661e-07 0)
(2.99999 2.05199e-06 0)
(2.99998 5.47948e-06 0)
(2.99996 1.36839e-05 0)
(2.9999 3.38963e-05 0)
(2.99974 8.44218e-05 0)
(2.99938 0.00020252 0)
(2.99847 0.000513449 0)
(2.99629 0.00120464 0)
(2.99075 0.00309705 0)
(2.97719 0.00735155 0)
(2.9418 0.0189274 0)
(2.8456 0.0487204 0)
(2.57042 0.1346 0)
(1.82136 0.399919 0)
(1.16816 0.736052 0)
(1.04278 0.775952 0)
(1.05062 0.793226 0)
(1.09186 0.795576 0)
(1.13995 0.810608 0)
(1.19099 0.835024 0)
(1.25797 0.858146 0)
(1.34607 0.872647 0)
(3 2.76879e-08 0)
(3 1.67782e-07 0)
(3 5.9505e-07 0)
(2.99999 1.64558e-06 0)
(2.99999 4.43474e-06 0)
(2.99997 1.08368e-05 0)
(2.99992 2.80684e-05 0)
(2.99981 6.60642e-05 0)
(2.99954 0.000170879 0)
(2.99885 0.00039906 0)
(2.99722 0.00103387 0)
(2.99307 0.00242756 0)
(2.98296 0.00626818 0)
(2.95691 0.0152206 0)
(2.8871 0.0401278 0)
(2.68973 0.108378 0)
(2.11412 0.316733 0)
(1.34981 0.755148 0)
(1.09242 0.80772 0)
(1.08575 0.820382 0)
(1.12144 0.819044 0)
(1.17554 0.821069 0)
(1.22907 0.836138 0)
(1.29104 0.852566 0)
(1.36882 0.862445 0)
(3 2.04039e-08 0)
(3 1.35749e-07 0)
(3 4.49232e-07 0)
(3 1.33364e-06 0)
(2.99999 3.35905e-06 0)
(2.99998 8.76463e-06 0)
(2.99994 2.13168e-05 0)
(2.99986 5.33105e-05 0)
(2.99966 0.000130539 0)
(2.99919 0.000319882 0)
(2.99798 0.000796449 0)
(2.99511 0.00192489 0)
(2.98785 0.00486344 0)
(2.96997 0.0119199 0)
(2.9229 0.0307896 0)
(2.79433 0.0822724 0)
(2.42085 0.235611 0)
(1.62633 0.65217 0)
(1.19738 0.809749 0)
(1.14175 0.834992 0)
(1.15873 0.841341 0)
(1.20914 0.835911 0)
(1.26494 0.84082 0)
(1.32252 0.850492 0)
(1.39121 0.856319 0)
(3 1.53641e-08 0)
(3 1.00697e-07 0)
(3 3.42451e-07 0)
(3 9.87364e-07 0)
(2.99999 2.53846e-06 0)
(2.99998 6.53588e-06 0)
(2.99996 1.57444e-05 0)
(2.9999 4.00199e-05 0)
(2.99976 9.44727e-05 0)
(2.99941 0.000240435 0)
(2.99855 0.000563399 0)
(2.99646 0.0014387 0)
(2.9913 0.00339167 0)
(2.97848 0.00866112 0)
(2.94557 0.0211181 0)
(2.8566 0.0557861 0)
(2.60438 0.152321 0)
(1.92491 0.449453 0)
(1.32827 0.797121 0)
(1.19504 0.845481 0)
(1.19562 0.864104 0)
(1.2371 0.858804 0)
(1.29464 0.851605 0)
(1.351 0.852768 0)
(1.41316 0.854308 0)
(3 1.20317e-08 0)
(3 7.45676e-08 0)
(3 2.62406e-07 0)
(3 7.30908e-07 0)
(3 1.94455e-06 0)
(2.99999 4.8356e-06 0)
(2.99997 1.21312e-05 0)
(2.99993 2.96054e-05 0)
(2.99983 7.29884e-05 0)
(2.99958 0.000178199 0)
(2.99898 0.000436525 0)
(2.99747 0.00107442 0)
(2.99387 0.00262056 0)
(2.98472 0.00651345 0)
(2.96193 0.0161344 0)
(2.90114 0.041537 0)
(2.73141 0.111957 0)
(2.23882 0.32505 0)
(1.53026 0.772122 0)
(1.26107 0.863263 0)
(1.23698 0.882471 0)
(1.26103 0.881469 0)
(1.31532 0.867891 0)
(1.37459 0.86054 0)
(1.43386 0.857099 0)
(3 8.5529e-09 0)
(3 5.63373e-08 0)
(3 1.87814e-07 0)
(3 5.51674e-07 0)
(3 1.40012e-06 0)
(2.99999 3.61036e-06 0)
(2.99998 8.83552e-06 0)
(2.99995 2.18784e-05 0)
(2.99988 5.37397e-05 0)
(2.99971 0.00013019 0)
(2.9993 0.000324839 0)
(2.99828 0.000775876 0)
(2.99583 0.00195799 0)
(2.98974 0.00468646 0)
(2.9747 0.0119119 0)
(2.93578 0.0296583 0)
(2.83121 0.0790954 0)
(2.52927 0.223125 0)
(1.82835 0.620837 0)
(1.37946 0.854246 0)
(1.29434 0.887395 0)
(1.29726 0.89821 0)
(1.33905 0.886505 0)
(1.39663 0.871441 0)
(1.4537 0.8631 0)
(3 6.34015e-09 0)
(3 3.92601e-08 0)
(3 1.3865e-07 0)
(3 3.83689e-07 0)
(3 1.02585e-06 0)
(2.99999 2.52973e-06 0)
(2.99999 6.37419e-06 0)
(2.99997 1.54223e-05 0)
(2.99992 3.82152e-05 0)
(2.9998 9.2483e-05 0)
(2.99952 0.000227373 0)
(2.99883 0.000551298 0)
(2.99713 0.00135483 0)
(2.99301 0.00330689 0)
(2.98271 0.00815017 0)
(2.95676 0.020259 0)
(2.88783 0.0520435 0)
(2.69441 0.14118 0)
(2.15266 0.411504 0)
(1.54256 0.833402 0)
(1.35099 0.900157 0)
(1.33441 0.913481 0)
(1.35955 0.905977 0)
(1.4136 0.885878 0)
(1.47175 0.871392 0)
(3 4.47001e-09 0)
(3 2.77677e-08 0)
(3 9.75142e-08 0)
(3 2.72189e-07 0)
(3 7.20596e-07 0)
(3 1.79345e-06 0)
(2.99999 4.47695e-06 0)
(2.99998 1.09036e-05 0)
(2.99995 2.68145e-05 0)
(2.99987 6.5315e-05 0)
(2.99968 0.000159394 0)
(2.99922 0.00038916 0)
(2.99812 0.000948668 0)
(2.9954 0.00232869 0)
(2.98879 0.00569702 0)
(2.97221 0.0141281 0)
(2.92979 0.0357174 0)
(2.81497 0.0946953 0)
(2.48327 0.270515 0)
(1.81638 0.697567 0)
(1.45193 0.882262 0)
(1.38728 0.912895 0)
(1.39138 0.919822 0)
(1.43304 0.903599 0)
(1.48924 0.881296 0)
(3 3.11379e-09 0)
(3 1.89007e-08 0)
(3 6.70288e-08 0)
(3 1.85114e-07 0)
(3 4.93763e-07 0)
(3 1.21311e-06 0)
(2.99999 3.07565e-06 0)
(2.99999 7.31943e-06 0)
(2.99996 1.84425e-05 0)
(2.99991 4.34115e-05 0)
(2.99979 0.000109279 0)
(2.99949 0.000257472 0)
(2.99874 0.00064504 0)
(2.99697 0.00152894 0)
(2.99253 0.00382483 0)
(2.98174 0.0092048 0)
(2.95422 0.0232021 0)
(2.88143 0.0591267 0)
(2.67779 0.161332 0)
(2.12979 0.461179 0)
(1.59378 0.847649 0)
(1.44162 0.914821 0)
(1.42639 0.929798 0)
(1.4501 0.922007 0)
(1.50134 0.896992 0)
(3 2.13394e-09 0)
(3 1.28093e-08 0)
(3 4.61404e-08 0)
(3 1.25162e-07 0)
(3 3.40101e-07 0)
(3 8.23527e-07 0)
(3 2.10438e-06 0)
(2.99999 4.99431e-06 0)
(2.99998 1.25204e-05 0)
(2.99994 2.9819e-05 0)
(2.99986 7.37143e-05 0)
(2.99967 0.000177668 0)
(2.99918 0.000433188 0)
(2.99805 0.00105903 0)
(2.99518 0.00256 0)
(2.98835 0.0063451 0)
(2.97104 0.0155112 0)
(2.92683 0.0394145 0)
(2.80708 0.104033 0)
(2.46163 0.297049 0)
(1.8432 0.727832 0)
(1.52855 0.898703 0)
(1.47219 0.92966 0)
(1.47625 0.936096 0)
(1.51537 0.918108 0)
(3 1.35539e-09 0)
(3 8.86054e-09 0)
(3 3.00979e-08 0)
(3 8.62856e-08 0)
(3 2.22444e-07 0)
(3 5.63656e-07 0)
(3 1.37586e-06 0)
(2.99999 3.41277e-06 0)
(2.99998 8.17869e-06 0)
(2.99996 2.02685e-05 0)
(2.99991 4.82338e-05 0)
(2.99979 0.000119727 0)
(2.99948 0.000284778 0)
(2.99874 0.00070521 0)
(2.99693 0.00168611 0)
(2.99253 0.00417502 0)
(2.98167 0.0101388 0)
(2.95434 0.0253162 0)
(2.88208 0.0650413 0)
(2.67996 0.177389 0)
(2.15447 0.498858 0)
(1.6674 0.862288 0)
(1.52668 0.930907 0)
(1.50924 0.945835 0)
(1.52855 0.93805 0)
(3 8.85104e-10 0)
(3 5.91325e-09 0)
(3 1.96843e-08 0)
(3 5.76666e-08 0)
(3 1.45259e-07 0)
(3 3.76905e-07 0)
(3 8.97351e-07 0)
(3 2.27303e-06 0)
(2.99999 5.345e-06 0)
(2.99998 1.34101e-05 0)
(2.99994 3.1655e-05 0)
(2.99987 7.87006e-05 0)
(2.99967 0.000187284 0)
(2.99922 0.000460824 0)
(2.99807 0.00111081 0)
(2.99539 0.00270957 0)
(2.98863 0.00662916 0)
(2.97221 0.0162607 0)
(2.92979 0.0410249 0)
(2.81602 0.108042 0)
(2.49059 0.307355 0)
(1.91378 0.730618 0)
(1.61359 0.908812 0)
(1.55411 0.942551 0)
(1.55344 0.949529 0)
(3 6.0823e-10 0)
(3 3.70167e-09 0)
(3 1.32224e-08 0)
(3 3.61039e-08 0)
(3 9.72271e-08 0)
(3 2.37063e-07 0)
(3 5.9691e-07 0)
(3 1.43294e-06 0)
(2.99999 3.52181e-06 0)
(2.99999 8.52266e-06 0)
(2.99997 2.05761e-05 0)
(2.99992 5.03792e-05 0)
(2.9998 0.000120097 0)
(2.99951 0.000297747 0)
(2.9988 0.000701718 0)
(2.99713 0.00175662 0)
(2.99295 0.00414616 0)
(2.98288 0.0104279 0)
(2.95737 0.025289 0)
(2.8908 0.065472 0)
(2.70539 0.176681 0)
(2.2243 0.490609 0)
(1.75601 0.864668 0)
(1.60834 0.940191 0)
(1.58586 0.95591 0)
(3 3.92505e-10 0)
(3 2.3661e-09 0)
(3 8.45417e-09 0)
(3 2.30928e-08 0)
(3 6.21073e-08 0)
(3 1.50749e-07 0)
(3 3.82956e-07 0)
(3 9.04647e-07 0)
(3 2.26368e-06 0)
(2.99999 5.34721e-06 0)
(2.99998 1.32384e-05 0)
(2.99995 3.14694e-05 0)
(2.99988 7.71406e-05 0)
(2.9997 0.00018564 0)
(2.99929 0.000448516 0)
(2.99826 0.00109523 0)
(2.99585 0.00262308 0)
(2.9898 0.00649237 0)
(2.97527 0.0157035 0)
(2.93803 0.0396915 0)
(2.83982 0.103351 0)
(2.56027 0.291987 0)
(2.01603 0.701411 0)
(1.70269 0.903909 0)
(1.63386 0.946292 0)
(3 2.3512e-10 0)
(3 1.52596e-09 0)
(3 5.12775e-09 0)
(3 1.48701e-08 0)
(3 3.76918e-08 0)
(3 9.62315e-08 0)
(3 2.33273e-07 0)
(3 5.71726e-07 0)
(3 1.38682e-06 0)
(2.99999 3.32755e-06 0)
(2.99999 8.16432e-06 0)
(2.99997 1.92918e-05 0)
(2.99992 4.77978e-05 0)
(2.99982 0.000111912 0)
(2.99956 0.00027885 0)
(2.99894 0.000651175 0)
(2.99745 0.00162252 0)
(2.99377 0.00381555 0)
(2.98491 0.0095107 0)
(2.96265 0.0229175 0)
(2.90512 0.0585354 0)
(2.74734 0.155415 0)
(2.3263 0.42933 0)
(1.85614 0.826416 0)
(1.68901 0.930035 0)
(3 1.43222e-10 0)
(3 9.53408e-10 0)
(3 3.18198e-09 0)
(3 9.26129e-09 0)
(3 2.34158e-08 0)
(3 6.01849e-08 0)
(3 1.43522e-07 0)
(3 3.60483e-07 0)
(3 8.45871e-07 0)
(3 2.11076e-06 0)
(2.99999 4.95345e-06 0)
(2.99998 1.22696e-05 0)
(2.99995 2.89826e-05 0)
(2.99989 7.11274e-05 0)
(2.99974 0.000170011 0)
(2.99938 0.000411625 0)
(2.99848 0.000997699 0)
(2.99637 0.00239508 0)
(2.99115 0.00588396 0)
(2.97855 0.0142213 0)
(2.94659 0.0356614 0)
(2.8632 0.0916981 0)
(2.6267 0.254528 0)
(2.12609 0.640391 0)
(1.79236 0.890131 0)
(3 9.20705e-11 0)
(3 5.66873e-10 0)
(3 2.0035e-09 0)
(3 5.51682e-09 0)
(3 1.46667e-08 0)
(3 3.59834e-08 0)
(3 8.94572e-08 0)
(3 2.15505e-07 0)
(3 5.23233e-07 0)
(3 1.26642e-06 0)
(3 3.03118e-06 0)
(2.99999 7.39022e-06 0)
(2.99997 1.7538e-05 0)
(2.99994 4.3007e-05 0)
(2.99984 0.000101563 0)
(2.99963 0.000249354 0)
(2.9991 0.000589562 0)
(2.99784 0.0014465 0)
(2.99476 0.00343438 0)
(2.98736 0.00846269 0)
(2.96888 0.0204303 0)
(2.92188 0.0516505 0)
(2.79506 0.135383 0)
(2.44776 0.376696 0)
(1.97972 0.777187 0)
(3 5.57338e-11 0)
(3 3.4678e-10 0)
(3 1.20935e-09 0)
(3 3.37407e-09 0)
(3 8.84972e-09 0)
(3 2.18677e-08 0)
(3 5.42805e-08 0)
(3 1.30142e-07 0)
(3 3.1986e-07 0)
(3 7.59424e-07 0)
(3 1.86065e-06 0)
(2.99999 4.4222e-06 0)
(2.99998 1.07914e-05 0)
(2.99996 2.57019e-05 0)
(2.99991 6.25023e-05 0)
(2.99978 0.000149725 0)
(2.99948 0.000361943 0)
(2.99874 0.000871472 0)
(2.997 0.00210483 0)
(2.99269 0.00510685 0)
(2.98234 0.0124283 0)
(2.9564 0.030661 0)
(2.88917 0.0783393 0)
(2.70198 0.212707 0)
(2.26446 0.554842 0)
(3 3.24768e-11 0)
(3 2.10525e-10 0)
(3 7.15379e-10 0)
(3 2.04274e-09 0)
(3 5.24302e-09 0)
(3 1.32306e-08 0)
(3 3.19954e-08 0)
(3 7.8836e-08 0)
(3 1.87446e-07 0)
(3 4.59522e-07 0)
(3 1.08729e-06 0)
(3 2.66281e-06 0)
(2.99999 6.30108e-06 0)
(2.99998 1.53805e-05 0)
(2.99995 3.65006e-05 0)
(2.99988 8.86865e-05 0)
(2.9997 0.000211854 0)
(2.9993 0.0005106 0)
(2.99829 0.00123019 0)
(2.99595 0.00295613 0)
(2.99012 0.00718383 0)
(2.97623 0.0174695 0)
(2.94106 0.0433387 0)
(2.84881 0.112831 0)
(2.59319 0.31185 0)
(3 1.97506e-11 0)
(3 1.22175e-10 0)
(3 4.28297e-10 0)
(3 1.18644e-09 0)
(3 3.13025e-09 0)
(3 7.67233e-09 0)
(3 1.9091e-08 0)
(3 4.54952e-08 0)
(3 1.11359e-07 0)
(3 2.64675e-07 0)
(3 6.42473e-07 0)
(3 1.53013e-06 0)
(2.99999 3.69091e-06 0)
(2.99999 8.84522e-06 0)
(2.99997 2.11582e-05 0)
(2.99993 5.09714e-05 0)
(2.99983 0.000121187 0)
(2.99959 0.000293991 0)
(2.99903 0.000693196 0)
(2.99765 0.00169303 0)
(2.99442 0.00399376 0)
(2.98636 0.00979229 0)
(2.96688 0.0236002 0)
(2.9168 0.0591704 0)
(2.78167 0.156014 0)
(3 1.10727e-11 0)
(3 7.32135e-11 0)
(3 2.43605e-10 0)
(3 7.10317e-10 0)
(3 1.78363e-09 0)
(3 4.57399e-09 0)
(3 1.08964e-08 0)
(3 2.70137e-08 0)
(3 6.38369e-08 0)
(3 1.55802e-07 0)
(3 3.70958e-07 0)
(3 8.92991e-07 0)
(3 2.14732e-06 0)
(2.99999 5.10817e-06 0)
(2.99998 1.24332e-05 0)
(2.99996 2.9225e-05 0)
(2.9999 7.17378e-05 0)
(2.99977 0.000167751 0)
(2.99945 0.000413464 0)
(2.9987 0.000965575 0)
(2.99687 0.00238324 0)
(2.99254 0.00561472 0)
(2.98183 0.0139004 0)
(2.95553 0.0336987 0)
(2.88764 0.0863816 0)
(3 6.63241e-12 0)
(3 4.1196e-11 0)
(3 1.43554e-10 0)
(3 4.0004e-10 0)
(3 1.04524e-09 0)
(3 2.57685e-09 0)
(3 6.36782e-09 0)
(3 1.51926e-08 0)
(3 3.71682e-08 0)
(3 8.76536e-08 0)
(3 2.14179e-07 0)
(3 5.04135e-07 0)
(3 1.22906e-06 0)
(3 2.89239e-06 0)
(2.99999 7.04032e-06 0)
(2.99998 1.66293e-05 0)
(2.99995 4.02128e-05 0)
(2.99988 9.55089e-05 0)
(2.9997 0.00022965 0)
(2.99929 0.000549426 0)
(2.99829 0.00131083 0)
(2.99595 0.00316962 0)
(2.9902 0.00756604 0)
(2.97647 0.0184948 0)
(2.94194 0.0455452 0)
(3 3.78977e-12 0)
(3 2.3288e-11 0)
(3 8.22665e-11 0)
(3 2.25505e-10 0)
(3 5.98758e-10 0)
(3 1.45454e-09 0)
(3 3.61934e-09 0)
(3 8.58877e-09 0)
(3 2.09422e-08 0)
(3 4.97527e-08 0)
(3 1.19515e-07 0)
(3 2.86242e-07 0)
(3 6.80258e-07 0)
(3 1.64397e-06 0)
(2.99999 3.86349e-06 0)
(2.99999 9.41483e-06 0)
(2.99997 2.19801e-05 0)
(2.99993 5.37374e-05 0)
(2.99983 0.000125086 0)
(2.9996 0.000305774 0)
(2.99905 0.000713552 0)
(2.99775 0.00173695 0)
(2.99457 0.00408619 0)
(2.987 0.0099493 0)
(2.96829 0.0238785 0)
(3 2.11719e-12 0)
(3 1.31024e-11 0)
(3 4.59292e-11 0)
(3 1.26772e-10 0)
(3 3.33733e-10 0)
(3 8.16397e-10 0)
(3 2.01626e-09 0)
(3 4.81203e-09 0)
(3 1.16468e-08 0)
(3 2.77227e-08 0)
(3 6.64932e-08 0)
(3 1.5878e-07 0)
(3 3.78109e-07 0)
(3 9.08345e-07 0)
(3 2.147e-06 0)
(2.99999 5.1833e-06 0)
(2.99998 1.22135e-05 0)
(2.99996 2.95352e-05 0)
(2.99991 6.95087e-05 0)
(2.99978 0.00016793 0)
(2.99948 0.000396872 0)
(2.99876 0.000954838 0)
(2.99704 0.00226961 0)
(2.99292 0.00546823 0)
(2.98294 0.0131552 0)
(3 1.1197e-12 0)
(3 7.26971e-12 0)
(3 2.4391e-11 0)
(3 7.0407e-11 0)
(3 1.77257e-10 0)
(3 4.49499e-10 0)
(3 1.07312e-09 0)
(3 2.6206e-09 0)
(3 6.21342e-09 0)
(3 1.49061e-08 0)
(3 3.55814e-08 0)
(3 8.42026e-08 0)
(3 2.02851e-07 0)
(3 4.74835e-07 0)
(3 1.15329e-06 0)
(3 2.67928e-06 0)
(2.99999 6.53087e-06 0)
(2.99998 1.51439e-05 0)
(2.99995 3.68781e-05 0)
(2.99988 8.56134e-05 0)
(2.99971 0.000207681 0)
(2.99931 0.000485457 0)
(2.99833 0.00116749 0)
(2.99606 0.00276025 0)
(2.99051 0.00662523 0)
(3 5.9691e-13 0)
(3 3.72401e-12 0)
(3 1.30168e-11 0)
(3 3.58087e-11 0)
(3 9.39952e-11 0)
(3 2.28321e-10 0)
(3 5.62397e-10 0)
(3 1.32372e-09 0)
(3 3.21074e-09 0)
(3 7.49953e-09 0)
(3 1.80356e-08 0)
(3 4.21547e-08 0)
(3 1.00623e-07 0)
(3 2.36138e-07 0)
(3 5.58449e-07 0)
(3 1.31962e-06 0)
(2.99999 3.08427e-06 0)
(2.99999 7.34214e-06 0)
(2.99997 1.69981e-05 0)
(2.99992 4.06004e-05 0)
(2.99981 9.32462e-05 0)
(2.99956 0.000223103 0)
(2.99893 0.000510011 0)
(2.99746 0.00121779 0)
(2.99386 0.00277944 0)
(3 2.98729e-13 0)
(3 1.82911e-12 0)
(3 6.46909e-12 0)
(3 1.74509e-11 0)
(3 4.6424e-11 0)
(3 1.10608e-10 0)
(3 2.74177e-10 0)
(3 6.35946e-10 0)
(3 1.53624e-09 0)
(3 3.56335e-09 0)
(3 8.42912e-09 0)
(3 1.97804e-08 0)
(3 4.58186e-08 0)
(3 1.088e-07 0)
(3 2.47428e-07 0)
(3 5.95096e-07 0)
(3 1.32509e-06 0)
(2.99999 3.21524e-06 0)
(2.99998 7.07365e-06 0)
(2.99994 1.71214e-05 0)
(2.99986 3.75078e-05 0)
(2.99965 8.93502e-05 0)
(2.99916 0.000197579 0)
(2.99795 0.000457542 0)
(2.99503 0.00102343 0)
(3 1.48136e-13 0)
(3 8.32717e-13 0)
(3 3.09354e-12 0)
(3 8.18781e-12 0)
(3 2.17217e-11 0)
(3 5.18496e-11 0)
(3 1.26282e-10 0)
(3 2.94276e-10 0)
(3 6.9636e-10 0)
(3 1.61727e-09 0)
(3 3.76516e-09 0)
(3 8.75314e-09 0)
(3 2.01094e-08 0)
(3 4.69856e-08 0)
(3 1.06615e-07 0)
(3 2.49091e-07 0)
(3 5.60243e-07 0)
(2.99999 1.30643e-06 0)
(2.99998 2.91054e-06 0)
(2.99995 6.76632e-06 0)
(2.99987 1.4982e-05 0)
(2.99969 3.446e-05 0)
(2.99924 7.60126e-05 0)
(2.99815 0.000172847 0)
(2.9954 0.000379011 0)
(3 5.63788e-14 0)
(3 4.06027e-13 0)
(3 1.27935e-12 0)
(3 3.93107e-12 0)
(3 9.09302e-12 0)
(3 2.41868e-11 0)
(3 5.33676e-11 0)
(3 1.33098e-10 0)
(3 2.95328e-10 0)
(3 6.99353e-10 0)
(3 1.60801e-09 0)
(3 3.59719e-09 0)
(3 8.64098e-09 0)
(3 1.83011e-08 0)
(3 4.59011e-08 0)
(3 9.16123e-08 0)
(3 2.40509e-07 0)
(2.99999 4.57209e-07 0)
(2.99998 1.23942e-06 0)
(2.99995 2.23347e-06 0)
(2.99988 6.25539e-06 0)
(2.9997 1.10756e-05 0)
(2.99928 3.0262e-05 0)
(2.9982 5.47646e-05 0)
(2.9956 0.000142178 0)
(3 1.52285e-14 0)
(3 1.84153e-13 0)
(3 4.40145e-13 0)
(3 1.77408e-12 0)
(3 3.64372e-12 0)
(3 1.08655e-11 0)
(3 2.08675e-11 0)
(3 6.18871e-11 0)
(3 1.06314e-10 0)
(3 3.40279e-10 0)
(3 5.29293e-10 0)
(3 1.79401e-09 0)
(3 2.67316e-09 0)
(3 9.20229e-09 0)
(3 1.39023e-08 0)
(3 4.44927e-08 0)
(3 7.64946e-08 0)
(2.99999 2.08244e-07 0)
(2.99998 4.33859e-07 0)
(2.99995 8.65108e-07 0)
(2.99988 2.56966e-06 0)
(2.99971 3.18666e-06 0)
(2.99928 1.46649e-05 0)
(2.99825 9.16411e-06 0)
(2.99559 8.08214e-05 0)
(3 1.98759e-14 0)
(3 4.68344e-14 0)
(3 2.89622e-13 0)
(3 4.84494e-13 0)
(3 1.98828e-12 0)
(3 3.13688e-12 0)
(3 1.12539e-11 0)
(3 1.82939e-11 0)
(3 5.58203e-11 0)
(3 1.07592e-10 0)
(3 2.5083e-10 0)
(3 6.28804e-10 0)
(3 1.05667e-09 0)
(3 3.5313e-09 0)
(3 4.08314e-09 0)
(3 1.98265e-08 0)
(3 1.40958e-08 0)
(2.99999 1.06528e-07 0)
(2.99998 3.68743e-08 0)
(2.99995 6.12469e-07 0)
(2.99988 6.22114e-08 0)
(2.99971 3.05076e-06 0)
(2.99928 8.36003e-07 0)
(2.99826 1.46314e-05 0)
(2.99561 7.87671e-06 0)
(3 1.47441e-14 0)
(3 1.08689e-14 0)
(3 1.34201e-13 0)
(3 4.25422e-14 0)
(3 7.93869e-13 0)
(3 3.14028e-13 0)
(3 4.29665e-12 0)
(3 2.53178e-12 0)
(3 1.97034e-11 0)
(3 2.26152e-11 0)
(3 6.80689e-11 0)
(3 1.96158e-10 0)
(3 1.68115e-10 0)
(3 1.24684e-09 0)
(3 -1.4803e-10 0)
(3 8.19609e-09 0)
(3 -5.85242e-09 0)
(2.99999 4.31337e-08 0)
(2.99998 -5.55687e-08 0)
(2.99995 2.71472e-07 0)
(2.99988 -4.2293e-07 0)
(2.99971 1.45615e-06 0)
(2.99929 -2.35744e-06 0)
(2.99825 7.60816e-06 0)
(2.99563 -8.90829e-06 0)
(1.27775 1.08149 0)
(1.6891 0.881426 0)
(1.87116 0.617192 0)
(1.89528 0.355489 0)
(1.84099 0.137202 0)
(1.73601 -0.0086919 0)
(1.61536 -0.0463876 0)
(1.52092 -0.00472979 0)
(1.42605 0.0538942 0)
(1.25624 0.100872 0)
(0.884092 0.132702 0)
(0.457762 0.163744 0)
(0.170662 0.159418 0)
(0.0157523 0.129177 0)
(-0.205204 0.100624 0)
(-0.369573 0.0585742 0)
(-0.513149 0.0230465 0)
(-0.632148 0.0013674 0)
(-0.709362 -0.00795525 0)
(-0.756158 -0.00317495 0)
(-0.792958 0.0052433 0)
(-0.830399 0.0115404 0)
(-0.869613 0.0140203 0)
(-0.90795 0.0119667 0)
(-0.944766 0.00764962 0)
(-0.976939 0.00510179 0)
(-0.998308 0.0032048 0)
(-1.00963 0.00110083 0)
(-1.0127 -0.00102856 0)
(-0.999804 -0.00329451 0)
(-0.963313 -0.00739936 0)
(-0.905056 -0.0129449 0)
(-0.829314 -0.0184782 0)
(-0.741452 -0.0237645 0)
(-0.649241 -0.0271123 0)
(-0.557491 -0.029139 0)
(-0.468748 -0.0309605 0)
(-0.383701 -0.0328607 0)
(-0.300735 -0.0357632 0)
(-0.222728 -0.0365408 0)
(-0.148443 -0.0367734 0)
(-0.0780188 -0.0384969 0)
(-0.00768041 -0.0408138 0)
(0.0635227 -0.0352544 0)
(0.122967 -0.0315178 0)
(0.18121 -0.0297463 0)
(0.235867 -0.0283159 0)
(0.286935 -0.0267618 0)
(0.334347 -0.0251816 0)
(0.380666 -0.0242722 0)
(0.428264 -0.0242761 0)
(0.474819 -0.023418 0)
(0.519016 -0.0223183 0)
(0.561159 -0.0212116 0)
(0.601786 -0.0202489 0)
(0.641038 -0.0193371 0)
(0.679071 -0.0184897 0)
(0.715923 -0.0176458 0)
(0.7517 -0.0168473 0)
(0.786437 -0.0160514 0)
(0.820226 -0.0153057 0)
(0.853082 -0.014569 0)
(0.885084 -0.0138818 0)
(0.916244 -0.013207 0)
(0.946629 -0.0125775 0)
(0.976245 -0.0119629 0)
(1.00515 -0.0113884 0)
(1.03334 -0.0108285 0)
(1.06087 -0.0102991 0)
(1.08775 -0.00977841 0)
(1.11402 -0.00928124 0)
(1.1397 -0.00879049 0)
(1.16483 -0.00831937 0)
(1.18942 -0.00785374 0)
(1.2135 -0.00740496 0)
(1.23708 -0.00696204 0)
(1.26019 -0.00653477 0)
(1.28283 -0.00611494 0)
(1.30501 -0.00571136 0)
(1.32674 -0.00531767 0)
(1.34802 -0.0049419 0)
(1.36886 -0.00457826 0)
(1.38927 -0.00423392 0)
(1.40925 -0.00390386 0)
(1.42881 -0.00359372 0)
(1.44797 -0.00329942 0)
(1.46672 -0.0030255 0)
(1.48506 -0.00276848 0)
(1.503 -0.00253503 0)
(1.52053 -0.00232601 0)
(1.53762 -0.00214357 0)
(1.55425 -0.00198738 0)
(1.57037 -0.0018599 0)
(1.58588 -0.00176043 0)
(1.60067 -0.00168753 0)
(1.61453 -0.00163785 0)
(1.62714 -0.00159909 0)
(1.63806 -0.00155989 0)
(1.64618 -0.00144973 0)
(1.65356 -0.00143271 0)
(1.37162 0.9927 0)
(1.68476 0.710008 0)
(1.85778 0.397349 0)
(1.94087 0.13122 0)
(1.98688 -0.0587618 0)
(2.00737 -0.157634 0)
(2.00464 -0.165404 0)
(1.9799 -0.116465 0)
(1.90894 -0.0470121 0)
(1.73674 0.0341674 0)
(1.4199 0.125588 0)
(1.05706 0.227913 0)
(0.794589 0.244366 0)
(0.637309 0.226957 0)
(0.490408 0.218456 0)
(0.355681 0.201487 0)
(0.240385 0.17531 0)
(0.116475 0.146731 0)
(-0.0204965 0.109769 0)