-0.45 	0.11199039
-0.35 	0.11199369
-0.25 	0.111996
-0.15 	0.1119986
-0.05 	0.11200069
0.05 	0.1120007
0.15 	0.1119986
0.25 	0.11199599
0.35 	0.11199368
0.45 	0.1119904
