/*--------------------------------*- C++ -*----------------------------------*\
  =========                 |
  \\      /  F ield         | OpenFOAM: The Open Source CFD Toolbox
   \\    /   O peration     | Website:  https://openfoam.org
    \\  /    A nd           | Version:  9
     \\/     M anipulation  |
\*---------------------------------------------------------------------------*/
FoamFile
{
    format      ascii;
    class       volScalarField;
    location    "0.18";
    object      p_rgh;
}
// * * * * * * * * * * * * * * * * * * * * * * * * * * * * * * * * * * * * * //

dimensions      [1 -1 -2 0 0 0 0];

internalField   nonuniform List<scalar> 
10000
(
0
-0.045700557
-0.10776199
-0.19574608
-0.30986779
-0.45015693
-0.61689179
-0.81041298
-1.0309996
-1.2790856
-1.5550671
-1.8593
-2.1921845
-2.5541031
-2.9454775
-3.3667569
-3.8183322
-4.300385
-4.8130615
-5.3563963
-5.9303131
-6.5344637
-7.1683673
-7.8311609
-8.5217472
-9.2387659
-9.9804436
-10.744552
-11.528303
-12.328342
-13.140773
-13.96121
-14.783707
-15.602989
-16.413423
-17.209592
-17.995661
-18.762857
-19.50322
-20.197789
-20.848051
-21.447308
-21.990852
-22.474351
-22.893987
-23.246506
-23.529246
-23.740163
-23.877841
-23.941395
-23.930483
-23.84517
-23.686019
-23.454148
-23.151138
-22.779129
-22.34087
-21.839699
-21.279484
-20.664528
-19.999336
-19.28972
-18.538334
-17.758581
-16.960391
-16.153875
-15.333611
-14.504599
-13.672303
-12.841906
-12.019655
-11.210138
-10.417263
-9.644463
-8.8945957
-8.1699343
-7.4722899
-6.8030938
-6.16347
-5.5541973
-4.9757753
-4.428499
-3.9124537
-3.4275351
-2.9735588
-2.5502653
-2.1572911
-1.7941409
-1.4603334
-1.1553808
-0.87881987
-0.63020546
-0.40908907
-0.21504931
-0.04768226
0.0933844
0.20845293
0.29752482
0.36077056
0.40723247
0.047477069
0.0021763231
-0.059755584
-0.14757519
-0.26136548
-0.40119289
-0.56735432
-0.76016241
-0.98003198
-1.2273322
-1.5024244
-1.8057724
-2.1378103
-2.4989825
-2.8897619
-3.3105866
-3.7617691
-4.2436054
-4.7563283
-5.3000604
-5.8746732
-6.4799689
-7.1153768
-7.780212
-8.4734895
-9.1938417
-9.9395277
-10.708324
-11.497467
-12.303768
-13.123406
-13.951977
-14.7844
-15.615567
-16.441094
-17.256951
-18.052907
-18.828988
-19.575492
-20.282072
-20.94349
-21.553815
-22.107865
-22.601012
-23.029155
-23.388827
-23.677289
-23.892465
-24.032908
-24.097746
-24.086815
-24.0002
-23.838292
-23.602179
-23.29347
-22.914378
-22.467738
-21.957025
-21.386338
-20.760347
-20.084235
-19.363729
-18.605003
-17.816925
-17.009928
-16.183101
-15.347049
-14.505675
-13.663222
-12.824662
-11.995184
-11.179338
-10.38102
-9.603514
-8.8495824
-8.1214975
-7.4210647
-6.7497262
-6.1084733
-5.4980109
-4.9188502
-4.3711397
-3.8549687
-3.3702633
-2.9166887
-2.4938825
-2.1014851
-1.7390637
-1.406079
-1.1020145
-0.8263504
-0.57863446
-0.35832239
-0.1649976
0.0017334403
0.14223269
0.25680166
0.34545033
0.40831768
0.45464061
0.11070043
0.06541301
0.0036451186
-0.083860862
-0.19718527
-0.33637474
-0.50166997
-0.69352015
-0.9123078
-1.1584118
-1.4322862
-1.7343706
-2.0651313
-2.4250899
-2.8147276
-3.2344627
-3.6847406
-4.1659519
-4.6783822
-5.222169
-5.7973592
-6.4037595
-7.0410055
-7.7084791
-8.4052649
-9.1301458
-9.8814552
-10.657035
-11.454242
-12.269927
-13.100382
-13.941309
-14.787863
-15.634847
-16.476936
-17.308348
-18.122518
-18.913997
-19.675094
-20.397623
-21.074779
-21.700309
-22.268556
-22.774475
-23.213765
-23.582834
-23.878844
-24.099681
-24.243883
-24.310566
-24.299525
-24.210872
-24.045055
-23.803168
-23.486834
-23.098314
-22.640546
-22.117166
-21.532506
-20.891564
-20.2
-19.464027
-18.690451
-17.887169
-17.061753
-16.219541
-15.366808
-14.509428
-13.652668
-12.80167
-11.961295
-11.135961
-10.329507
-9.5450677
-8.7853609
-8.0526308
-7.3485795
-6.6744673
-6.0312849
-5.4196123
-4.8398009
-4.2920313
-3.7761644
-3.2920596
-2.8393931
-2.4177247
-2.02657
-1.6654486
-1.3337896
-1.0310835
-0.75672821
-0.51025151
-0.29109454
-0.098811505
0.066998478
0.20675743
0.32070185
0.40882221
0.47124709
0.51729182
0.19901933
0.15385506
0.092474302
0.0055222043
-0.10706522
-0.24524309
-0.40937514
-0.59988929
-0.81716257
-1.0616533
-1.3338193
-1.634142
-1.9631618
-2.3214106
-2.7094026
-3.1276712
-3.5767264
-4.0570286
-4.5689545
-5.1127823
-5.6886644
-6.2965588
-6.9362626
-7.6073051
-8.3089361
-9.0400502
-9.7991182
-10.584138
-11.392589
-12.221396
-13.066921
-13.924892
-14.790459
-15.658268
-16.522596
-17.377308
-18.21571
-19.030843
-19.815099
-20.560671
-21.260231
-21.907006
-22.49482
-23.018232
-23.472645
-23.854301
-24.160285
-24.388472
-24.537451
-24.606403
-24.595169
-24.503874
-24.332922
-24.083363
-23.756818
-23.355587
-22.88269
-22.341924
-21.7379
-21.076031
-20.362416
-19.603741
-18.807232
-17.980504
-17.130989
-16.265446
-15.390487
-14.512168
-13.636218
-12.768024
-11.912443
-11.073827
-10.255923
-9.4618454
-8.6941946
-7.9550649
-7.2460227
-6.5682137
-5.9224595
-5.3092245
-4.7286974
-4.1808783
-3.6655725
-3.1824463
-2.7310594
-2.310947
-1.9215549
-1.5622986
-1.2325253
-0.93169539
-0.6591888
-0.41444037
-0.1969103
-0.0061087901
0.158376
0.29697591
0.41002058
0.49744348
0.55934011
0.60507922
0.31195356
0.26709554
0.20627341
0.12010506
0.0086009267
-0.12828589
-0.29090559
-0.4796675
-0.69501715
-0.93742082
-1.2073717
-1.5054326
-1.832179
-2.1881827
-2.5740427
-2.9903711
-3.4377642
-3.9167943
-4.4279715
-4.971714
-5.5483332
-6.1579924
-6.8006652
-7.4760837
-8.1836913
-8.9225743
-9.6913926
-10.488348
-11.311105
-12.156697
-13.021536
-13.901408
-14.79143
-15.68608
-16.579157
-17.463987
-18.333516
-19.180105
-19.995659
-20.772004
-21.501215
-22.175876
-22.789248
-23.335404
-23.809356
-24.207127
-24.525755
-24.763179
-24.918094
-24.989803
-24.978266
-24.883618
-24.706172
-24.446893
-24.10732
-23.689728
-23.197222
-22.633815
-22.004462
-21.315048
-20.57223
-19.783258
-18.955861
-18.098036
-17.217655
-16.322086
-15.418429
-14.513246
-13.61269
-12.722366
-11.847225
-10.991582
-10.159077
-9.3527658
-8.5751071
-7.8279735
-7.1127594
-6.4304478
-5.7816419
-5.1665939
-4.585319
-4.0376286
-3.5231616
-3.0414264
-2.5918361
-2.1738154
-1.7867206
-1.4298682
-1.1025946
-0.80424501
-0.53412524
-0.29161724
-0.076167918
0.11270539
0.27550231
0.41262021
0.52436265
0.61085617
0.67203717
0.71735328
0.44911439
0.40468015
0.34458346
0.25949451
0.14931323
0.014028254
-0.14669023
-0.33330896
-0.5462769
-0.78608538
-1.0533058
-1.3485433
-1.6724151
-2.0255776
-2.408716
-2.8225276
-3.2677229
-3.7450058
-4.255037
-4.798419
-5.3756695
-5.9871674
-6.6331154
-7.3134908
-8.0279906
-8.7759585
-9.556323
-10.367523
-11.207455
-12.073339
-12.961686
-13.868309
-14.788255
-15.715754
-16.64419
-17.566448
-18.475009
-19.36139
-20.216723
-21.032118
-21.798856
-22.5087
-23.154141
-23.728597
-24.226669
-24.644179
-24.978144
-25.226643
-25.388593
-25.463515
-25.451537
-25.352821
-25.167558
-24.896534
-24.541101
-24.103412
-23.586609
-22.994965
-22.333866
-21.609746
-20.829975
-20.002575
-19.135998
-18.238936
-17.319973
-16.387229
-15.448236
-14.510186
-13.579568
-12.662224
-11.763252
-10.886923
-10.036814
-9.2158466
-8.4262717
-7.6697386
-6.9474036
-6.2599943
-5.6078482
-4.9909525
-4.4090924
-3.8618445
-3.3486314
-2.8688044
-2.4216156
-2.0063328
-1.6222021
-1.2684627
-0.94432357
-0.64905457
-0.38190668
-0.14221015
0.070632032
0.257149
0.41781338
0.55312229
0.66334936
0.74862624
0.80898271
0.85377834
0.61019785
0.56631076
0.50718081
0.42335975
0.31477458
0.18144993
0.023002075
-0.16103057
-0.37111004
-0.60779619
-0.87170252
-1.163473
-1.4838067
-1.8334472
-2.2131653
-2.6237677
-3.0660941
-3.5409944
-4.0493169
-4.5918843
-5.1694412
-5.7826122
-6.4318791
-7.1175295
-7.8395815
-8.5977115
-9.3911898
-10.218772
-11.078626
-11.968264
-12.884352
-13.822721
-14.778349
-15.745248
-16.716428
-17.684119
-18.640247
-19.57538
-20.479692
-21.343258
-22.156256
-22.909343
-23.593978
-24.202769
-24.729805
-25.17069
-25.522512
-25.783654
-25.95347
-26.031884
-26.019303
-25.915927
-25.721716
-25.437109
-25.063089
-24.601556
-24.055592
-23.429693
-22.729783
-21.963066
-21.137832
-20.263125
-19.348425
-18.403366
-17.437423
-16.459607
-15.478079
-14.500581
-13.534063
-12.584602
-11.657421
-10.756793
-9.8861806
-9.0482892
-8.2451145
-7.4780348
-6.7478779
-6.0550277
-5.3994879
-4.7809467
-4.1988833
-3.6526026
-3.1412765
-2.6640564
-2.2200125
-1.8082523
-1.4278527
-1.0779737
-0.7577214
-0.46621215
-0.20266843
0.033671418
0.24335625
0.42698951
0.58512398
0.71820541
0.82669008
0.91052722
0.96983025
1.0139894
0.79484857
0.75169559
0.69366075
0.61133572
0.50466206
0.37363188
0.21787079
0.036913897
-0.16975819
-0.4027389
-0.66267244
-0.95027724
-1.2663368
-1.6116757
-1.9871664
-2.3937376
-2.8323684
-3.3040877
-3.8099575
-4.3510291
-4.9283004
-5.5426955
-6.1950362
-6.8859782
-7.6159275
-8.3849752
-9.19282
-10.038648
-10.921012
-11.837735
-12.785726
-13.760911
-14.758235
-15.77151
-16.79332
-17.815242
-18.828449
-19.822372
-20.786021
-21.708107
-22.577329
-23.382823
-24.114694
-24.764542
-25.325743
-25.793652
-26.165611
-26.440613
-26.61878
-26.700737
-26.687357
-26.578882
-26.374885
-26.07516
-25.679996
-25.190796
-24.610441
-23.94364
-23.196996
-22.37875
-21.498435
-20.56644
-19.59359
-18.590743
-17.568488
-16.536999
-15.505083
-14.481095
-13.47253
-12.485756
-11.526018
-10.597551
-9.703689
-8.8468517
-8.0287086
-7.2502633
-6.5118879
-5.8135414
-5.1548433
-4.5351168
-3.9534773
-3.4089154
-2.9003415
-2.4266575
-1.9866924
-1.5793444
-1.2036014
-0.85843733
-0.54286301
-0.25588255
0.0033533662
0.23564733
0.44163025
0.6218543
0.77702222
0.90755441
1.0138988
1.0960924
1.1542003
1.1975914
1.0026906
0.96035041
0.90360053
0.82303208
0.71855274
0.59019537
0.43758005
0.260194
0.05749497
-0.17112909
-0.4263838
-0.70906358
-1.020023
-1.3601783
-1.7305136
-2.1320853
-2.5660345
-3.0335899
-3.5360317
-4.0746528
-4.6507442
-5.2655897
-5.9204063
-6.6162706
-7.3540622
-8.1343894
-8.957486
-9.8230841
-10.730235
-11.677166
-12.66114
-13.678314
-14.723637
-15.790725
-16.871805
-17.957913
-19.038493
-20.102537
-21.137364
-22.12987
-23.066802
-23.935332
-24.723777
-25.422234
-26.023113
-26.521575
-26.91549
-27.204897
-27.391251
-27.476405
-27.462014
-27.348338
-27.134263
-26.8185
-26.400091
-25.879456
-25.259088
-24.543926
-23.741492
-22.861435
-21.914945
-20.914213
-19.871834
-18.800209
-17.711298
-16.616606
-15.525679
-14.447681
-13.390617
-12.361135
-11.364485
-10.404822
-9.4852321
-8.6077675
-7.7736436
-6.9833358
-6.2367086
-5.5332201
-4.8719921
-4.2518913
-3.6716405
-3.1298392
-2.6250863
-2.1559958
-1.7212308
-1.3194242
-0.94934793
-0.6098604
-0.29982162
-0.018221793
0.23589794
0.46344397
0.66507871
0.84142678
0.99310402
1.1206997
1.2246121
1.3048995
1.3616034
1.4040917
1.2331733
1.1917897
1.1365367
1.0579414
0.95598236
0.83071006
0.68169596
0.50841383
0.31031362
0.086736872
-0.16308229
-0.43999803
-0.74494254
-1.0789265
-1.4430461
-1.8385005
-2.2666082
-2.7287922
-3.2265541
-3.7614644
-4.3351566
-4.9493026
-5.6055593
-6.3055095
-7.0506112
-7.8421035
-8.6808699
-9.5672928
-10.501083
-11.48105
-12.504954
-13.569301
-14.669157
-15.79797
-16.947614
-18.108303
-19.26851
-20.415758
-21.53547
-22.612352
-23.630665
-24.575013
-25.431094
-26.186784
-26.833243
-27.365476
-27.782213
-28.085326
-28.2786
-28.365933
-28.350267
-28.231884
-28.008482
-27.676876
-27.233984
-26.678455
-26.012034
-25.239952
-24.37103
-23.416919
-22.391177
-21.308392
-20.183338
-19.030456
-17.863707
-16.694812
-15.535429
-14.395347
-13.282998
-12.205238
-11.167395
-10.173405
-9.2259705
-8.3266173
-7.4759221
-6.673742
-5.9193195
-5.2114836
-4.5487904
-3.9295608
-3.3520311
-2.8143418
-2.3147728
-1.8516377
-1.4233459
-1.0283269
-0.66507282
-0.33233427
-0.028881676
0.24648406
0.49470204
0.71678093
0.91334817
1.085201
1.2329509
1.3571378
1.4582748
1.5363876
1.5914803
1.6329339
1.485744
1.4454769
1.3918679
1.3155063
1.216419
1.094632
0.94970447
0.78111021
0.58826523
0.37046682
0.12690706
-0.14332818
-0.44125232
-0.76796502
-1.1246783
-1.5127417
-1.933641
-2.3889882
-2.8805289
-3.4101446
-3.979834
-4.5916842
-5.2478518
-5.9505247
-6.7018403
-7.5037735
-8.3579896
-9.2656942
-10.227445
-11.242862
-12.310367
-13.426981
-14.588071
-15.78708
-17.015484
-18.262812
-19.51606
-20.761503
-21.982099
-23.160094
-24.27657
-25.312413
-26.249561
-27.072743
-27.771185
-28.339612
-28.778287
-29.092304
-29.289321
-29.376668
-29.359408
-29.23786
-29.007707
-28.662452
-28.195365
-27.602109
-26.882992
-26.043853
-25.09549
-24.052406
-22.931564
-21.750891
-20.527901
-19.279365
-18.021153
-16.766704
-15.528714
-14.317886
-13.143128
-12.01153
-10.928355
-9.8971922
-8.9201931
-7.9981882
-7.1309526
-6.3175357
-5.5563947
-4.8455953
-4.1829943
-3.5662902
-2.9931734
-2.4613368
-1.9686432
-1.5130571
-1.092741
-0.7058624
-0.3507755
-0.025951702
0.2698619
0.5379307
0.77931588
0.99506568
1.1859162
1.3526303
1.4958914
1.616262
1.7143102
1.789964
1.8432426
1.883512
1.7597687
1.7207433
1.6689532
1.5950941
1.4992109
1.3813359
1.2410219
1.0777205
0.89081864
0.6795853
0.4431693
0.18059965
-0.10920495
-0.42743669
-0.77542254
-1.1546441
-1.5667415
-2.0135301
-2.4970177
-3.0193997
-3.5830468
-4.1905085
-4.844514
-5.5479347
-6.3036751
-7.1145523
-7.9831955
-8.9118624
-9.9021822
-10.954816
-12.069163
-13.242977
-14.472124
-15.75029
-17.068668
-18.416003
-19.778178
-21.138497
-22.47907
-23.778541
-25.013791
-26.160742
-27.196026
-28.099508
-28.857096
-29.462807
-29.919641
-30.238127
-30.432381
-30.51567
-30.496467
-30.375113
-30.143958
-29.790761
-29.302282
-28.669318
-27.890103
-26.971436
-25.927213
-24.776597
-23.541322
-22.243619
-20.904753
-19.544251
-18.179728
-16.826528
-15.498653
-14.207671
-12.963049
-11.772038
-10.639654
-9.5689494
-8.561281
-7.6165743
-6.7335802
-5.9103233
-5.1442892
-4.4326043
-3.7722258
-3.1602117
-2.5936879
-2.0698113
-1.585991
-1.1398167
-0.72922213
-0.35207939
-0.0065944302
0.30890516
0.5958778
0.85558778
1.0892025
1.2977726
1.482145
1.6431172
1.7813474
1.8974304
1.9919727
2.0649182
2.1162135
2.155139
2.0544956
2.0168738
1.9670875
1.8959659
1.8036433
1.6901358
1.5549732
1.3975924
1.2173647
1.0135277
0.78518895
0.53133572
0.25083073
-0.057607371
-0.3954039
-0.76414906
-1.1656393
-1.6019036
-2.0752006
-2.5880231
-3.1431296
-3.743582
-4.3927338
-5.0941854
-5.8517037
-6.6691036
-7.5501834
-8.4985039
-9.5170343
-10.6078
-11.771513
-13.007103
-14.311252
-15.677971
-17.098296
-18.560123
-20.048288
-21.5442
-23.027556
-24.473214
-25.853272
-27.136952
-28.29287
-29.293072
-30.118225
-30.760669
-31.227312
-31.537345
-31.716603
-31.788526
-31.767022
-31.652426
-31.431609
-31.082179
-30.579405
-29.906111
-29.057867
-28.043422
-26.881824
-25.599678
-24.225871
-22.78823
-21.312236
-19.821211
-18.333432
-16.866822
-15.436591
-14.05535
-12.733115
-11.477169
-10.292114
-9.1801948
-8.1416506
-7.1751499
-6.2781505
-5.4473548
-4.6790383
-3.969273
-3.3140336
-2.709543
-2.1522636
-1.6388424
-1.1662402
-0.73169492
-0.33273245
0.032922916
0.36723227
0.67198619
0.94877127
1.1989665
1.4237527
1.6242791
1.8014125
1.9559308
2.0885533
2.1998974
2.290517
2.3604686
2.4095991
2.4470326
2.3691702
2.3330823
2.2854135
2.2173413
2.1289516
2.0202629
1.8908037
1.7400024
1.5672053
1.371624
1.1523421
0.90831313
0.63835064
0.34111731
0.015112226
-0.34136417
-0.73026036
-1.1537904
-1.6144335
-2.1149745
-2.6585796
-3.2488359
-3.8897322
-4.5856286
-5.3412639
-6.1616687
-7.0520051
-8.0173917
-9.0624904
-10.191156
-11.405899
-12.707261
-14.093098
-15.558017
-17.093115
-18.685703
-20.319359
-21.973927
-23.626706
-25.249125
-26.807588
-28.262407
-29.56995
-30.690005
-31.593908
-32.269719
-32.729465
-33.007095
-33.149539
-33.197387
-33.173261
-33.077372
-32.887649
-32.564357
-32.062067
-31.35007
-30.420462
-29.287304
-27.978968
-26.533341
-24.99018
-23.38486
-21.747051
-20.103555
-18.474117
-16.87798
-15.331853
-13.849583
-12.441747
-11.115584
-9.8750357
-8.7211406
-7.6526276
-6.6664693
-5.7584155
-4.9234972
-4.1565784
-3.4524518
-2.8059962
-2.212481
-1.6676841
-1.167701
-0.70896173
-0.28840349
0.096711577
0.44888234
0.7702341
1.0626927
1.3279123
1.5673644
1.7823011
1.9738167
2.1428773
2.2902547
2.4166793
2.5227721
2.6091126
2.6757344
2.7225503
2.7583612
2.7029177
2.6684217
2.6231218
2.5583762
2.4742749
2.3708699
2.2476862
2.1041316
1.9395295
1.7530847
1.543872
1.3108181
1.052707
0.76817773
0.4556687
0.11337534
-0.26076801
-0.66910852
-1.1143218
-1.5994867
-2.1281559
-2.704403
-3.3328447
-4.0186638
-4.7676563
-5.5862041
-6.4810974
-7.4593334
-8.5277511
-9.6925647
-10.958708
-12.328853
-13.802587
-15.375607
-17.039159
-18.780062
-20.581069
-22.420719
-24.272866
-26.109571
-27.890111
-29.563472
-31.068129
-32.343284
-33.342444
-34.043516
-34.465562
-34.667337
-34.734593
-34.737056
-34.709932
-34.653496
-34.532461
-34.276883
-33.802743
-33.056642
-32.026757
-30.739912
-29.242044
-27.589667
-25.837819
-24.031228
-22.205544
-20.384518
-18.592021
-16.848343
-15.171493
-13.576603
-12.074994
-10.673746
-9.3757726
-8.180457
-7.0843753
-6.0822305
-5.1675902
-4.3334427
-3.5728619
-2.8791066
-2.2459277
-1.66761
-1.1390978
-0.65593355
-0.21413549
0.18972208
0.55861398
0.89517508
1.201727
1.4802354
1.7325129
1.9599271
2.1638987
2.3454821
2.5056321
2.6451375
2.7647795
2.8651415
2.9468341
3.0098421
3.0541053
3.0881968
3.0547394
3.0220059
2.9792704
2.9180937
2.8386618
2.7410259
2.624687
2.4890394
2.3334047
2.156989
1.9588697
1.7379765
1.4930883
1.2228212
0.92557233
0.59947817
0.24241205
-0.14806819
-0.57481378
-1.0411605
-1.5509731
-2.1087456
-2.7197112
-3.3899154
-4.126263
-4.9365672
-5.8294925
-6.8143201
-7.9007142
-9.0978537
-10.413817
-11.854352
-13.421535
-15.112559
-16.918937
-18.826852
-20.818
-22.869868
-24.956743
-27.052162
-29.112631
-31.071958
-32.844282
-34.332522
-35.455378
-36.168858
-36.498229
-36.543623
-36.469062
-36.391031
-36.360339
-36.378154
-36.392625
-36.283376
-35.886734
-35.112214
-33.949479
-32.451746
-30.698071
-28.778033
-26.767101
-24.719811
-22.674877
-20.652316
-18.674837
-16.763999
-14.9399
-13.219728
-11.615931
-10.135336
-8.7794268
-7.5450484
-6.425793
-5.4134279
-4.4986054
-3.6717396
-2.9238019
-2.2464106
-1.6319445
-1.0736886
-0.56581996
-0.10334866
0.31813912
0.70232186
1.0523789
1.3710754
1.6608793
1.9237489
2.1615591
2.3757118
2.5675455
2.7381707
2.8885888
3.0195434
3.1318048
3.2259748
3.3026182
3.3617558
3.4032435
3.4354458
3.4236407
3.3928258
3.3527651
3.2954482
3.2210816
3.1296846
3.0207459
2.8936625
2.7477666
2.5822745
2.3962859
2.1887587
1.9584843
1.7040607
1.4238798
1.1160898
0.77854791
0.40874326
0.00370618
-0.44005281
-0.92662309
-1.4608548
-2.0485368
-2.6965147
-3.4127955
-4.2067101
-5.0890468
-6.0718063
-7.167954
-8.3907086
-9.7523598
-11.262948
-12.928094
-14.746982
-16.711312
-18.805994
-21.010974
-23.304151
-25.663875
-28.064857
-30.479035
-32.819242
-34.970326
-36.770576
-38.070848
-38.785319
-38.926198
-38.650135
-38.306747
-38.107448
-38.071702
-38.204728
-38.485633
-38.686997
-38.452462
-37.645274
-36.288714
-34.484037
-32.372212
-30.100552
-27.768307
-25.440171
-23.143196
-20.893834
-18.708471
-16.608768
-14.618539
-12.758765
-11.043987
-9.4808168
-8.0684245
-6.799897
-5.6647359
-4.6505081
-3.7441489
-2.9330876
-2.205801
-1.5519895
-0.9626693
-0.4301127
0.052168736
0.48970213
0.88719283
1.2485581
1.5770671
1.8755977
2.1465825
2.3921111
2.6139193
2.8134786
2.9920552
3.1507828
3.2906291
3.4123337
3.5166236
3.6041059
3.6752967
3.7302786
3.7688481
3.7990129
3.8085287
3.7796386
3.7425067
3.689349
3.6203994
3.5356866
3.4346917
3.3168212
3.1814225
3.0277456
2.8549312
2.6619705
2.4476746
2.2106694
1.9493942
1.6620556
1.3465295
1.0002897
0.620353
0.20320308
-0.25537399
-0.76048621
-1.3183251
-1.9363742
-2.6236867
-3.3911585
-4.251798
-5.2207591
-6.3149319
-7.5526963
-8.9523763
-10.529917
-12.296002
-14.252656
-16.391146
-18.693749
-21.135057
-23.691099
-26.351424
-29.126746
-31.995128
-34.858032
-37.574378
-39.846906
-41.385538
-42.077464
-41.854156
-41.016803
-40.272796
-39.903224
-39.856125
-40.152903
-40.850604
-41.610266
-41.691733
-40.83724
-39.210375
-36.942331
-34.295363
-31.546369
-28.813128
-26.155766
-23.587895
-21.094072
-18.677814
-16.364154
-14.185372
-12.16908
-10.334021
-8.6865894
-7.2220775
-5.9280902
-4.7879307
-3.783527
-2.8972646
-2.1128746
-1.4160275
-0.79440534
-0.23766102
0.26284249
0.71415195
1.122216
1.4918592
1.8270958
2.1313174
2.4073436
2.6575218
2.8839077
3.0882326
3.271914
3.4361365
3.5820174
3.7104816
3.8222427
3.9179886
3.9983166
4.0637313
4.1142521
4.1496598
4.1777363
4.2081303
4.1813355
4.1472679
4.0985386
4.0353733
3.9577844
3.8652605
3.7572291
3.6330732
3.4920902
3.3334637
3.1562222
2.9592286
2.7411938
2.5006455
2.2358663
1.9448066
1.6250309
1.2736634
0.88726215
0.46163152
-0.0083926351
-0.52916997
-1.1086046
-1.7566127
-2.4855479
-3.3105746
-4.2501933
-5.3261622
-6.5633505
-7.9883637
-9.6261235
-11.495142
-13.60112
-15.9317
-18.463531
-21.163976
-24.001024
-26.964703
-30.113841
-33.486514
-37.016096
-40.675776
-44.061744
-46.414192
-47.115854
-45.971681
-43.515855
-41.701744
-41.30966
-41.228066
-41.529647
-43.364146
-45.763981
-46.663911
-45.625895
-43.165188
-39.853456
-36.323939
-32.987233
-29.809957
-26.824376
-23.989202
-21.240011
-18.570748
-16.014199
-13.617167
-11.42141
-9.4551763
-7.723974
-6.216253
-4.9105842
-3.7813518
-2.8029256
-1.9518217
-1.2075373
-0.55276895
0.026729275
0.54260583
1.0041633
1.4187842
1.7925786
2.1304278
2.4361977
2.7133408
2.9644987
3.191928
3.3975151
3.5829126
3.7494589
3.8983163
4.0304458
4.1467527
4.2479222
4.3345639
4.407267
4.4665349
4.5123278
4.5444665
4.5702687
4.6212
4.5965683
4.5657971
4.5217486
4.464697
4.394649
4.3110994
4.2135103
4.101315
3.9738608
3.8303729
3.6699391
3.4915195
3.2939428
3.0758502
2.8356276
2.5713864
2.2808941
1.9614887
1.6099401
1.2222636
0.79350419
0.31740616
-0.21404488
-0.81119375
-1.487424
-2.2598874
-3.150286
-4.185976
-5.3999411
-6.8299538
-8.5154258
-10.488851
-12.763593
-15.31434
-18.09691
-21.062641
-24.180579
-27.450809
-31.088279
-35.101471
-39.304836
-43.788171
-47.576385
-50.488503
-52.28827
-50.155939
-45.294406
-43.810084
-43.867469
-43.669837
-43.481268
-45.24001
-50.207464
-51.926255
-49.348605
-46.162153
-42.556698
-38.409758
-34.547519
-30.805178
-27.402589
-24.312257
-21.32901
-18.395074
-15.550719
-12.887153
-10.476742
-8.366832
-6.5571884
-5.0226854
-3.7268304
-2.631313
-1.7003733
-0.90342721
-0.21545585
0.3837704
0.91019215
1.3762382
1.7915683
2.1636142
2.4983604
2.8004671
3.0736464
3.3210107
3.5450518
3.7478143
3.9310465
4.0961839
4.2444532
4.376945
4.494487
4.597919
4.6878792
4.7649077
4.8295668
4.8823367
4.9231784
4.9518267
4.9753333
5.0463996
5.0240512
4.996713
4.9575821
4.9069694
4.8448585
4.7707629
4.6841887
4.5846206
4.4714582
4.3439859
4.2013816
4.0427287
3.8669776
3.6729112
3.4590867
3.2238518
2.9652659
2.6809845
2.3681669
2.023284
1.6418509
1.2180489
0.74425211
0.21035069
-0.3973003
-1.0971377
-1.9137946
-2.8802061
-4.0390017
-5.4424149
-7.1504648
-9.2183889
-11.679371
-14.494031
-17.582768
-20.823871
-24.158502
-27.571441
-31.557828
-36.551276
-42.752815
-51.497422
-61.308741
-65.149876
-66.339718
-59.145044
-47.225603
-43.798974
-41.872717
-41.294204
-42.981237
-47.329865
-59.825285
-66.104979
-62.67713
-57.522512
-49.103774
-41.426886
-35.913829
-31.352418
-27.669895
-24.52968
-21.389774
-18.154414
-14.935787
-11.938128
-9.2738146
-7.0144966
-5.1425707
-3.609687
-2.3560694
-1.3255657
-0.46993596
0.24940751
0.86220815
1.3910201
1.8525883
2.2595553
2.6213965
2.9451346
3.236287
3.4989758
3.7365698
3.9517241
4.146619
4.3230026
4.4824225
4.6260415
4.7550045
4.8702195
4.9724272
5.0623255
5.1404975
5.207454
5.2636877
5.3096557
5.3453304
5.3703467
5.3914513
5.4822851
5.4623354
5.4385802
5.4045971
5.3607114
5.3069015
5.2427043
5.1676689
5.0813318
4.9831535
4.872501
4.7486633
4.6108477
4.4581335
4.2894728
4.1036763
3.8993762
3.6749908
3.4286292
3.1580038
2.860246
2.5316368
2.1672617
1.7605477
1.3024457
0.78010111
0.17530966
-0.53834524
-1.398785
-2.4595572
-3.7933122
-5.4891446
-7.6357048
-10.287654
-13.412762
-16.85942
-20.470162
-24.084002
-27.28926
-31.529982
-36.813531
-42.497489
-49.869226
-59.367549
-68.616029
-83.761093
-77.05654
-37.176698
86.568312
367.33427
361.88715
84.864033
-39.757153
-81.100732
-84.879517
-63.918739
-53.874701
-47.047093
-41.201945
-36.160165
-31.456068
-27.59585
-24.751677
-21.514226
-17.884882
-14.175108
-10.728671
-7.7534975
-5.3385314
-3.4314995
-1.9438883
-0.77944248
0.14385263
0.88939047
1.5038567
2.0205843
2.4631072
2.8479826
3.1869836
3.4885091
3.7587063
4.0021521
4.2222463
4.4216622
4.602491
4.766452
4.9149984
5.0493511
5.1704154
5.2791461
5.3762815
5.4624585
5.5382276
5.6041158
5.6605825
5.7080455
5.7469505
5.7772294
5.7984812
5.8170503
5.9273331
5.90989
5.8898548
5.8612355
5.8243519
5.779177
5.7252759
5.66225
5.5896897
5.5071266
5.4140209
5.309769
5.1937021
5.0650552
4.9229735
4.7665518
4.5947552
4.4064314
4.2002631
3.9746237
3.7274723
3.4561827
3.1572712
2.8258883
2.4550452
2.0343089
1.5477265
0.97015179
0.26163243
-0.64194308
-1.8429359
-3.495358
-5.7999711
-8.8881166
-12.618341
-16.329847
-20.058831
-24.401898
-25.913616
-30.883747
-37.280072
-42.773095
-52.600147
-80.115641
275.24223
875.23543
2206.6625
5135.45
6788.1423
6911.924
6850.0561
6720.8832
5205.4592
2334.4777
883.37994
256.01396
-68.194165
-50.930686
-42.422231
-36.88662
-31.156425
-26.335453
-24.995961
-22.008036
-18.17056
-13.767938
-9.4587219
-5.9036173
-3.2629873
-1.35985
0.010362159
1.0166598
1.7768268
2.3704387
2.8499992
3.2493245
3.5903294
3.8876044
4.1507649
4.386236
4.5985654
4.7910126
4.9658861
5.1250222
5.2698646
5.401552
5.5210987
5.6293578
5.7270185
5.814739
5.8931467
5.9626974
6.0238222
6.0769919
6.1225803
6.1609743
6.1925392
6.2172162
6.2345856
6.2505407
6.3799518
6.3650858
6.348919
6.3258494
6.29623
6.2599969
6.2167542
6.1661661
6.1078805
6.0414959
5.9665593
5.8825713
5.7889913
5.685233
5.570657
5.4446275
5.3064972
5.1555943
4.9911961
4.8124179
4.6182116
4.4073283
4.178072
3.9279341
3.6530724
3.3472374
2.9997577
2.5915054
2.0884565
1.4262192
0.4787048
-1.0115186
-3.5616562
-7.5951279
-12.697823
-16.838237
-19.334138
-22.517239
-25.876097
-29.065004
-39.680117
-40.272214
-59.800425
874.46134
3276.0135
6635.6701
7760.4606
7535.4161
7400.8925
7220.3524
7203.9326
7385.1496
7572.4447
7814.317
6555.3054
3142.2993
839.04632
-68.691572
-42.614715
-39.672252
-29.51314
-25.180898
-24.569918
-22.699408
-19.243445
-13.883961
-8.1077513
-3.5221395
-0.60403195
1.1672933
2.2835995
3.0304013
3.5577974
3.9539476
4.2689173
4.531563
4.7584237
4.9595785
5.1410461
5.3063815
5.457889
5.5971284
5.7251018
5.8425651
5.9502274
6.0486628
6.1383568
6.2197817
6.2933697
6.3595355
6.4187216
6.4711993
6.5172734
6.557334
6.5917117
6.6207344
6.6447094
6.6636079
6.676945
6.6902082
6.838435
6.8262477
6.8140749
6.7967556
6.7746311
6.7476233
6.7153798
6.6776211
6.6340464
6.5843126
6.5280456
6.4648533
6.3943293
6.3160566
6.2296227
6.1346636
6.030927
5.9182249
5.7963958
5.6653261
5.5250498
5.3757822
5.2177976
5.051376
4.8766078
4.6925038
4.4973298
4.2842674
4.0345497
3.7023521
3.1867983
2.1644137
-0.02223469
-4.1399468
-10.195213
-13.306827
-17.343539
-32.382981
-33.445056
-19.283205
-46.160867
-28.169625
605.21014
4944.9078
7350.0645
7408.8095
7205.2696
7060.0456
6977.485
6903.122
6898.951
6974.5282
7069.3403
7209.7495
7368.9772
7311.0475
4951.4842
597.23357
-28.603316
-46.739823
-24.05027
-32.942772
-34.552766
-25.544975
-18.284597
-11.928278
-4.8973499
0.22079819
2.9039808
4.2061963
4.8595702
5.2229113
5.4457584
5.6034258
5.7308097
5.8436097
5.9486845
6.0492583
6.1462671
6.2397041
6.3291826
6.4142656
6.4945759
6.5697762
6.6397437
6.7043915
6.7637631
6.8179604
6.8670444
6.9112635
6.9508224
6.9858668
7.0165724
7.0432122
7.0661315
7.0855296
7.1017358
7.114666
7.1238697
7.1343158
7.301028
7.2916533
7.2836032
7.2722128
7.2578117
7.2402984
7.2193655
7.194778
7.166274
7.1335662
7.0963526
7.0543494
7.0072795
6.9548718
6.896927
6.8333795
6.7643205
6.6899763
6.6107141
6.5271681
6.4403931
6.3518692
6.2637893
6.1792749
6.1026664
6.0363557
5.9920232
5.9762855
5.9919427
6.0320258
6.0539604
5.771893
5.0023447
3.3687774
-4.7783916
-13.696396
-13.398491
15.483354
6.1690786
10.517076
-119.63419
665.13143
4497.3111
5610.3458
6297.4766
6572.3173
6614.9676
6576.6573
6553.9364
6531.2457
6529.6682
6552.395
6577.2517
6613.8441
6557.1888
6282.4755
5615.1459
4514.9366
668.49481
-112.82302
-0.75469609
-14.271322
11.81918
-22.553117
-15.255204
-4.2868637
2.1638937
5.8077081
7.2611582
7.6473644
7.6108129
7.4907163
7.3639011
7.2627911
7.1947378
7.1563258
7.1393876
7.1402128
7.1538189
7.1763289
7.2045242
7.236034
7.2690358
7.3021691
7.3345214
7.3653943
7.3943473
7.4211265
7.4455353
7.4675775
7.4872578
7.5046154
7.5197288
7.5327698
7.5440033
7.55358
7.5617916
7.5685846
7.573544
7.5810974
7.7659471
7.7595356
7.7557502
7.7504681
7.7440095
7.7362396
7.7268811
7.7157423
7.702598
7.6872054
7.6693317
7.6487831
7.6253903
7.599024
7.569691
7.5375774
7.5030329
7.4666155
7.42919
7.3920159
7.3568573
7.3263517
7.3040091
7.2948629
7.3059193
7.3463134
7.4316015
7.5860246
7.836391
8.2118679
8.7196225
9.2926837
10.114347
10.051229
8.6658589
14.082073
-25.368289
-1.9332
27.361028
116.76895
-186.73603
3264.2001
4797.4172
5170.8012
5630.1603
5925.9808
6053.224
6103.323
6127.7065
6134.0377
6133.3856
6126.6673
6102.2717
6050.5279
5918.1542
5620.406
5163.0051
4786.0713
3214.5326
-220.20074
104.70435
6.8076863
-19.614949
-41.690437
-9.4195386
13.277249
12.869325
12.890022
12.083467
11.198734
10.325395
9.6857451
9.2106358
8.863717
8.6153006
8.4364893
8.3077115
8.2158693
8.1512979
8.1066219
8.0762714
8.0561613
8.0432791
8.0353674
8.0307719
8.0283315
8.0271343
8.0265858
8.0263417
8.0261465
8.0258561
8.0253722
8.0247112
8.0240073
8.0233834
8.0230058
8.0230598
8.0236132
8.0241721
8.0287184
8.2313896
8.2280882
8.2287384
8.2297475
8.2314251
8.2336156
8.2360559
8.2385912
8.2410284
8.2431644
8.2448282
8.2458872
8.2462572
8.2459521
8.245151
8.2442005
8.2436292
8.2442504
8.2472982
8.2544443
8.2679635
8.2911054
8.3282475
8.3851761
8.4698741
8.5928701
8.7704674
9.0425636
9.4555248
10.033763
11.00804
12.958515
15.431019
17.901542
19.899193
5.3196411
38.542922
63.002289
-47.021854
142.13174
99.46423
3978.0722
4342.2664
4764.1738
5130.1526
5429.9236
5581.7079
5671.9427
5722.811
5744.3587
5744.0255
5722.1506
5670.8774
5579.1264
5425.1639
5122.2418
4750.4234