/*--------------------------------*- C++ -*----------------------------------*\
  =========                 |
  \\      /  F ield         | OpenFOAM: The Open Source CFD Toolbox
   \\    /   O peration     | Website:  https://openfoam.org
    \\  /    A nd           | Version:  9
     \\/     M anipulation  |
\*---------------------------------------------------------------------------*/
FoamFile
{
    format      ascii;
    class       surfaceScalarField;
    location    "0.18";
    object      phi;
}
// * * * * * * * * * * * * * * * * * * * * * * * * * * * * * * * * * * * * * //

dimensions      [0 3 -1 0 0 0 0];

internalField   nonuniform List<scalar> 
19800
(
6.257717e-05
-5.8127878e-05
0.00010893379
-5.8451733e-05
0.00015544828
-5.8579129e-05
0.00020221334
-5.8965625e-05
0.00024923974
-5.9314324e-05
0.00029658943
-5.976035e-05
0.00034430737
-6.0292273e-05
0.00039243011
-6.0919899e-05
0.00044101056
-6.1633703e-05
0.00049008143
-6.2448236e-05
0.00053972449
-6.3389517e-05
0.00058998317
-6.4448926e-05
0.00064084581
-6.5632365e-05
0.00069230778
-6.6933732e-05
0.00074435321
-6.8359854e-05
0.00079684889
-6.9866933e-05
0.00084977536
-7.1448563e-05
0.00090309486
-7.3023776e-05
0.00095670698
-7.4594016e-05
0.0010103546
-7.6063673e-05
0.0010638775
-7.73943e-05
0.0011169293
-7.8454429e-05
0.001169284
-7.9246106e-05
0.0012205555
-7.9515429e-05
0.0012701427
-7.9182607e-05
0.0013175648
-7.8161717e-05
0.0013622766
-7.6425978e-05
0.0014037657
-7.3332238e-05
0.0014412957
-6.9241101e-05
0.0014739936
-6.4107703e-05
0.0015006554
-5.8001142e-05
0.0015188006
-5.0895612e-05
0.0015271403
-4.2023377e-05
0.0015253389
-3.0003157e-05
0.0015128695
-1.5107466e-05
0.0014923445
3.27687e-07
0.0014628372
2.0384218e-05
0.001424129
4.2006697e-05
0.0013715335
6.2524155e-05
0.0013052284
8.2744293e-05
0.0012249512
0.0001032543
0.0011310406
0.00012376591
0.001023829
0.00014363869
0.00090401726
0.000162417
0.00077273162
0.00017964257
0.00063131648
0.00019491565
0.00048137929
0.00020779849
0.00032477804
0.00021790369
0.00016355858
0.00022490508
-1.2639369e-07
0.00022859719
-0.00016395606
0.00022886939
-0.00032560103
0.00022571162
-0.00048288836
0.00021921325
-0.00063372512
0.00020956169
-0.00077622666
0.00019708212
-0.00090876979
0.00018212694
-0.0010299926
0.00016513071
-0.0011387919
0.00014654516
-0.0012343681
0.00012689788
-0.0013162701
0.00010674506
-0.0013842602
8.6169473e-05
-0.0014382567
6.5458043e-05
-0.0014781638
4.4882127e-05
-0.0015081425
2.3193098e-05
-0.0015287983
2.0513667e-06
-0.001542055
-1.3515367e-05
-0.0015444791
-2.9159217e-05
-0.0015365456
-4.1894097e-05
-0.0015186895
-5.090938e-05
-0.0014921407
-5.8583337e-05
-0.0014593233
-6.5048046e-05
-0.0014215181
-7.0481533e-05
-0.0013796277
-7.4784447e-05
-0.0013342618
-7.8033698e-05
-0.0012861361
-8.0018839e-05
-0.0012358135
-8.0903781e-05
-0.0011837762
-8.1330087e-05
-0.0011305614
-8.110811e-05
-0.0010765747
-8.0374826e-05
-0.0010221463
-7.9237197e-05
-0.0009676218
-7.7842084e-05
-0.00091312455
-7.6298356e-05
-0.00085890138
-7.4686397e-05
-0.00080515289
-7.3015347e-05
-0.00075189286
-7.137472e-05
-0.00069913195
-6.9772156e-05
-0.00064692942
-6.8266143e-05
-0.00059537022
-6.6849927e-05
-0.00054445318
-6.5566932e-05
-0.00049416621
-6.4423413e-05
-0.00044448787
-6.3417521e-05
-0.00039538558
-6.2533341e-05
-0.00034679486
-6.1776958e-05
-0.00029864745
-6.1127531e-05
-0.00025088838
-6.0570926e-05
-0.00020346522
-6.0106811e-05
-0.00015631622
-5.9737275e-05
-0.00010940224
-5.9441492e-05
-6.2639474e-05
-5.9277193e-05
-5.9121939e-05
6.231944e-05
-0.00010451361
0.0001087231
-0.0001048525
0.00015526491
-0.0001051159
0.00020197689
-0.00010568107
0.00024893618
-0.00010627318
0.00029619615
-0.00010701805
0.00034379905
-0.00010790985
0.00039181917
-0.00010893958
0.00044030388
-0.00011012001
0.00048929399
-0.00011144685
0.00053879629
-0.0001128946
0.00058883117
-0.00011449282
0.00063945511
-0.00011626572
0.00069065802
-0.00011813756
0.00074236239
-0.00012006584
0.00079473554
-0.00012224282
0.00084767661
-0.00012438926
0.00090093301
-0.00012628039
0.00095432986
-0.00012799139
0.0010080722
-0.00012980429
0.0010615916
-0.00013091469
0.0011149565
-0.00013182688
0.0011675456
-0.00013184558
0.0012191301
-0.00013110806
0.0012694213
-0.00012947755
0.0013177006
-0.00012644055
0.0013632593
-0.00012198413
0.0014058963
-0.00011597328
0.0014443326
-0.00010768405
0.0014777331
-9.7509672e-05
0.0015049794
-8.5241792e-05
0.0015246951
-7.0605628e-05
0.0015358809
-5.3208935e-05
0.0015381685
-3.2292677e-05
0.0015312479
-8.187343e-06
0.0015131374
1.8439115e-05
0.0014843687
4.9156065e-05
0.0014447226
8.1655529e-05
0.0013919981
0.00011524744
0.0013254092
0.00014933236
0.0012448254
0.0001838401
0.0011504258
0.00021816902
0.0010422777
0.00025179235
0.00092110238
0.00028359503
0.00078793099
0.00031281176
0.00064414242
0.00033870276
0.00049141518
0.00036052599
0.00033170234
0.0003776173
0.00016717883
0.00038942959
2.0397263e-07
0.00039557314
-0.00016692856
0.00039600116
-0.00033190546
0.00039069029
-0.00049234705
0.00037965855
-0.00064606216
0.00036327745
-0.00079106418
0.00034208429
-0.00092565062
0.00031671522
-0.0010484416
0.00028792298
-0.0011583862
0.00025648953
-0.0012547323
0.00022324154
-0.0013368
0.00018881204
-0.0014046789
0.00015405038
-0.0014589651
0.0001197479
-0.0014996328
8.5551654e-05
-0.001529225
5.2786059e-05
-0.0015483513
2.117986e-05
-0.0015557297
-6.1358395e-06
-0.0015537348
-3.115165e-05
-0.0015431709
-5.2454789e-05
-0.0015235624
-7.0519206e-05
-0.0014963206
-8.5828616e-05
-0.0014627334
-9.8637447e-05
-0.0014240029
-0.00010921501
-0.0013810431
-0.00011774387
-0.0013346802
-0.00012439544
-0.0012857083
-0.00012899225
-0.0012345995
-0.00013201047
-0.0011821357
-0.00013378917
-0.0011284993
-0.00013473874
-0.0010742484
-0.00013462285
-0.0010198258
-0.000133655
-0.00096511472
-0.00013255314
-0.00091080235
-0.00013061337
-0.00085680357
-0.00012868179
-0.00080304071
-0.00012677768
-0.00074978884
-0.00012462924
-0.00069726864
-0.00012229323
-0.00064539379
-0.00012013729
-0.00059408694
-0.00011815676
-0.00054338716
-0.00011626835
-0.00049329515
-0.00011451439
-0.00044378633
-0.00011292217
-0.00039480197
-0.00011151852
-0.00034629613
-0.00011028091
-0.00029823361
-0.00010918822
-0.00025055793
-0.00010824594
-0.00020321182
-0.00010745357
-0.00015612876
-0.00010681329
-0.00010924912
-0.0001063086
-6.2537825e-05
-0.00010598153
-0.00010575424
6.2001994e-05
-0.00015075927
0.00010827115
-0.00015111666
0.00015471171
-0.0001515595
0.00020129226
-0.0001522605
0.00024812542
-0.00015310143
0.00029525273
-0.00015415773
0.00034274028
-0.00015539665
0.00039062946
-0.00015682719
0.00043896131
-0.00015845713
0.00048778821
-0.00016027385
0.00053716326
-0.00016227505
0.00058711803
-0.00016445586
0.00063764687
-0.00016679606
0.00068879609
-0.0001692889
0.00074075482
-0.0001720296
0.00079320004
-0.00017469112
0.00084606252
-0.00017725445
0.0008993519
-0.00017957203
0.00095327575
-0.00018191405
0.001007446
-0.00018397349
0.0010616608
-0.00018513337
0.0011157989
-0.00018597176
0.0011694025
-0.0001854544
0.0012224686
-0.00018417552
0.0012741143
-0.00018112069
0.0013240405
-0.00017636378
0.0013715291
-0.00016947375
0.0014158292
-0.00016027777
0.0014563434
-0.00014820076
0.0014920243
-0.00013318888
0.0015217131
-0.0001149281
0.0015442423
-9.3135887e-05
0.0015587965
-6.7767461e-05
0.0015650224
-3.8520488e-05
0.0015609662
-4.1291111e-06
0.00154555
3.3856556e-05
0.0015190708
7.5634806e-05
0.0014803268
0.00012039973
0.0014282583
0.00016731541
0.0013620052
0.00021558612
0.0012809532
0.00026489572
0.0011849923
0.00031413152
0.0010749298
0.00036185513
0.0009512279
0.00040729676
0.00081467899
0.00044935868
0.00066669633
0.00048668389
0.00050907394
0.00051814689
0.00034393734
0.00054275118
0.00017363061
0.00055973458
6.601515e-07
0.00056854776
-0.00017248687
0.00056915437
-0.00034331726
0.00056152528
-0.00050933774
0.00054568145
-0.00066804223
0.00052198088
-0.00081734028
0.00049138043
-0.00095547341
0.00045484817
-0.0010810405
0.00041349122
-0.0011929996
0.00036845027
-0.0012905098
0.00032075334
-0.0013734008
0.00027170626
-0.0014413518
0.00022200744
-0.0014946901
0.00017309112
-0.0015349223
0.00012578752
-0.0015622307
8.009726e-05
-0.001578678
3.7631787e-05
-0.0015833613
-1.4465917e-06
-0.0015779345
-3.6575115e-05
-0.0015634965
-6.6893067e-05
-0.0015409552
-9.3063699e-05
-0.0015111315
-0.00011565568
-0.0014751478
-0.00013461592
-0.001434143
-0.00015021578
-0.0013890228
-0.00016286856
-0.0013410505
-0.00017236966
-0.0012904588
-0.00017958209
-0.0012379202
-0.00018454494
-0.0011838669
-0.00018783926
-0.0011294398
-0.00018916193
-0.0010743702
-0.00018969319
-0.0010190156
-0.00018900785
-0.00096415493
-0.0001874111
-0.00090917966
-0.00018558716
-0.00085486965
-0.00018298801
-0.00080128072
-0.00018036702
-0.00074813027
-0.00017778301
-0.00069547361
-0.00017495363
-0.00064344078
-0.00017216723
-0.00059221552
-0.00016937909
-0.00054165492
-0.00016682317
-0.00049170635
-0.0001644673
-0.00044231715
-0.00016230836
-0.00039347662
-0.00016035951
-0.00034514031
-0.00015862022
-0.00029724348
-0.00015708183
-0.00024972917
-0.0001557575
-0.00020253599
-0.00015463901
-0.00015561772
-0.00015373229
-0.00010888158
-0.00015304636
-6.2305913e-05
-0.00015255219
-0.00015225659
6.1709745e-05
-0.00019684821
0.00010782315
-0.00019723346
0.00015411507
-0.00019785014
0.00020051878
-0.0001986584
0.00024716221
-0.00019975578
0.00029410902
-0.00020110437
0.00034141156
-0.00020269611
0.00038910984
-0.00020452891
0.0004372649
-0.00020661103
0.00048593083
-0.00020894229
0.00053515303
-0.00021150378
0.00058498285
-0.0002142866
0.00063545771
-0.00021727175
0.00068660091
-0.00022043718
0.00073832162
-0.00022375518
0.00079067659
-0.00022705054
0.00084371263
-0.00023029455
0.00089748833
-0.00023334822
0.00095175972
-0.00023618433
0.0010063065
-0.00023852232
0.0010613309
-0.00024016228
0.0011162655
-0.00024090945
0.0011711717
-0.00024036056
0.0012253595
-0.00023836027
0.0012786953
-0.00023445254
0.0013305763
-0.00022824403
0.0013803539
-0.0002192548
0.0014273498
-0.00020727671
0.0014709165
-0.00019176724
0.0015098988
-0.00017217155
0.0015432551
-0.00014828785
0.0015698994
-0.00011978406
0.0015884972
-8.6366835e-05
0.0015979419
-4.7964408e-05
0.0015982334
-4.418817e-06
0.0015869492
4.5140351e-05
0.0015636162
9.8966167e-05
0.0015273059
0.00015671199
0.0014767233
0.0002179002
0.0014110111
0.00028129732
0.0013298386
0.00034606706
0.0012330387
0.00041092964
0.0011205822
0.00047431067
0.00099316015
0.00053471936
0.00085203569
0.00059048124
0.00069836487
0.00064035007
0.00053400213
0.00068250533
0.00036129166
0.00071546096
0.00018279335
0.00073823538
1.264611e-06
0.0007500827
-0.00018045013
0.00075087478
-0.00035950005
0.00074057624
-0.00053308295
0.00071926257
-0.00069870467
0.00068760149
-0.00085403983
0.00064671704
-0.00099711967
0.00059792928
-0.001126376
0.00054274867
-0.0012406731
0.00048275147
-0.0013394504
0.00041953806
-0.0014224286
0.00035469049
-0.0014899268
0.00028950998
-0.0015422688
0.00022543934
-0.0015800244
0.00016354862
-0.0016046625
0.00010474055
-0.0016168052
4.9779967e-05
-0.0016169653
-1.2816163e-06
-0.001608168
-4.5372993e-05
-0.001589887
-8.517347e-05
-0.001563261
-0.00011968388
-0.0015297166
-0.00014920067
-0.001490348
-0.00017398441
-0.0014462763
-0.00019428697
-0.0013985956
-0.00021055117
-0.0013480029
-0.00022296207
-0.0012952557
-0.00023232875
-0.001240839
-0.00023895769
-0.0011857643
-0.00024291222
-0.0011298737
-0.00024505049
-0.0010739351
-0.00024563022
-0.0010180465
-0.00024489539
-0.00096232925
-0.00024312652
-0.00090724275
-0.00024067198
-0.00085256205
-0.00023766683
-0.00079855312
-0.00023438022
-0.00074538039
-0.00023095595
-0.00069290093
-0.00022743082
-0.00064112469
-0.00022394034
-0.00058998005
-0.00022052507
-0.00053951467
-0.0002172828
-0.00048970559
-0.00021427468
-0.00044050266
-0.0002115118
-0.00039185639
-0.00020900484
-0.00034370847
-0.00020676873
-0.0002960115
-0.00020477698
-0.0002486909
-0.00020307634
-0.00020169557
-0.00020163865
-0.00015496542
-0.00020045461
-0.00010842222
-0.00019957921
-6.2036704e-05
-0.00019892969
-0.00019856845
6.1337998e-05
-0.00024270443
0.00010723584
-0.00024313044
0.00015328045
-0.00024388952
0.00019946061
-0.00024484947
0.00024589275
-0.00024618773
0.00029260561
-0.00024781334
0.00033964664
-0.00024973934
0.00038709825
-0.00025197843
0.0004350064
-0.00025451942
0.00048344063
-0.000257381
0.00053244808
-0.0002605106
0.00058208062
-0.00026391734
0.00063238034
-0.00026757434
0.00068337956
-0.00027144065
0.00073507508
-0.00027545513
0.00078754066
-0.00027952104
0.00084078284
-0.00028353915
0.00089482255
-0.00028738819
0.00094952086
-0.00029088471
0.001004852
-0.00029385721
0.0010606964
-0.00029600889
0.0011169963
-0.00029720898
0.0011733701
-0.00029673256
0.0012295477
-0.00029453569
0.001285153
-0.00029005747
0.0013397898
-0.00028288347
0.0013928046
-0.00027227325
0.001443387
-0.00025786077
0.0014907259
-0.00023910664
0.0015340922
-0.00021554053
0.0015721278
-0.00018632748
0.0016036993
-0.00015135582
0.0016276759
-0.00011034083
0.0016426786
-6.296645e-05
0.0016475227
-9.2635528e-06
0.0016410378
5.1626244e-05
0.0016219217
0.00011808389
0.0015888053
0.00018983017
0.0015406247
0.00026607983
0.001476368
0.00034554844
0.0013953299
0.00042710184
0.0012969452
0.00050931481
0.0011816416
0.00058961468
0.0010497011
0.00066665851
0.00090208475
0.00073809382
0.00074061449
0.00080181641
0.0005672977
0.00085581984
0.00038441048
0.00089834939
0.00019495165
0.00092769632
2.0839487e-06
0.00094295144
-0.00019099363
0.00094395231
-0.00038109631
0.00093067918
-0.00056506085
0.00090322814
-0.00073994922
0.00086249092
-0.00090322468
0.00080999554
-0.0010527476
0.00074745554
-0.0011868415
0.00067684526
-0.0013043534
0.00060026666
-0.0014047629
0.00051995329
-0.0014882052
0.00043814071
-0.0015545205
0.00035582945
-0.0016045756
0.00027549815
-0.0016392998
0.00019827984
-0.0016597672
0.00012521242
-0.0016672985
5.7314563e-05
-0.0016634371
-5.1366599e-06
-0.0016486684
-6.0139973e-05
-0.001624835
-0.00010900779
-0.0015931559
-0.00015135985
-0.0015548193
-0.00018753645
-0.0015110666
-0.00021773581
-0.0014628851
-0.00024246743
-0.001411533
-0.00026190209
-0.0013576132
-0.00027687818
-0.0013019606
-0.00028798114
-0.0012454126
-0.00029550758
-0.0011881184
-0.00030020862
-0.0011306487
-0.00030251864
-0.0010733368
-0.0003029393
-0.0010164098
-0.00030181999
-0.00096003713
-0.00029949727
-0.0009043598
-0.00029634875
-0.00084940348
-0.00029262474
-0.00079525841
-0.00028853077
-0.00074196084
-0.00028425284
-0.00068947629
-0.00027991485
-0.00063778652
-0.00027562822
-0.00058683348
-0.0002714714
-0.00053658346
-0.00026752658
-0.0004870116
-0.00026384632
-0.00043806421
-0.0002604622
-0.0003896842
-0.0002573861
-0.00034180793
-0.00025463946
-0.0002943761
-0.00025221918
-0.00024731177
-0.00025013367
-0.0002005728
-0.00024836224
-0.0001540918
-0.00024693949
-0.00010780978
-0.00024585799
-6.1678284e-05
-0.00024506537
-0.00024463329
6.094049e-05
-0.00028826922
0.00010654536
-0.00028873246
0.00015226357
-0.00028962011
0.00019815867
-0.00029074499
0.00024427974
-0.00029230563
0.00029068725
-0.00029422354
0.00033744821
-0.00029649881
0.00038461202
-0.00029914229
0.00043224795
-0.00030215946
0.00048038157
-0.00030551355
0.00052911688
-0.00030924217
0.0005785059
-0.00031330657
0.00062860387
-0.00031767439
0.0006794611
-0.00032230053
0.00073112326
-0.00032712154
0.00078365652
-0.00033205796
0.00083707189
-0.0003369568
0.00089148962
-0.00034180933
0.00094675952
-0.00034615881
0.0010029227
-0.00035002261
0.0010599506
-0.00035303707
0.0011175877
-0.00035484599
0.0011758327
-0.00035497777
0.0012343443
-0.00035304848
0.0012927829
-0.00034849912
0.0013505906
-0.00034069481
0.0014075004
-0.0003291852
0.0014624694
-0.00031283093
0.0015148054
-0.00029144341
0.0015635397
-0.00026427522
0.0016074318
-0.00023021885
0.001645263
-0.00018918511
0.0016756575
-0.00014073419
0.0016971725
-8.4482871e-05
0.0017084785
-2.0569551e-05
0.0017080757
5.2033212e-05
0.0016942798
0.00013188147
0.001665685
0.00021842127
0.0016207129
0.00031104721
0.0015584316
0.00040782695
0.0014777043
0.00050783009
0.0013781882
0.00060883238
0.0012593524
0.00070844826
0.0011217142
0.00080429293
0.00096649086
0.00089331522
0.00079513835
0.00097316914
0.00061002206
0.001040934
0.00041408918
0.001094278
0.00021052026
0.0011312628
3.0289632e-06
0.0011504431
-0.0002047132
0.0011516949
-0.00040899835
0.0011349657
-0.00060612085
0.0011003551
-0.00079283373
0.0010492084
-0.0009661148
0.00098328008
-0.0011235727
0.00090491405
-0.0012635009
0.00081677213
-0.0013852259
0.00072199319
-0.0014875379
0.00062227082
-0.0015706131
0.00052122184
-0.0016353836
0.00042060452
-0.0016824438
0.00032256046
-0.0017128867
0.00022872766
-0.001728184
0.00014051475
-0.0017297803
5.8913953e-05
-0.0017191926
-1.5717513e-05
-0.0016980442
-8.1284009e-05
-0.0016677231
-0.00013932622
-0.0016296726
-0.00018940775
-0.0015852869
-0.00023192006
-0.0015357903
-0.00026723284
-0.0014827564
-0.0002955036
-0.001426826
-0.00031783169
-0.0013689527
-0.00033475049
-0.0013100336
-0.00034690383
-0.0012504662
-0.00035507702
-0.0011907121
-0.00035996139
-0.0011313117
-0.00036191675
-0.0010724969
-0.00036175403
-0.0010143163
-0.00035999837
-0.00095710369
-0.00035670964
-0.00090081075
-0.00035264388
-0.00084545654
-0.00034797739
-0.0007911174
-0.00034287015
-0.00073773891
-0.00033763139
-0.00068528944
-0.0003323647
-0.00063372076
-0.00032719651
-0.00058296967
-0.00032222072
-0.00053297509
-0.00031751248
-0.00048369398
-0.00031312719
-0.00043505865
-0.00030910154
-0.00038698378
-0.00030546719
-0.00033942212
-0.00030220327
-0.00029230462
-0.00029933575
-0.00024557994
-0.0002968638
-0.00019916329
-0.00029476959
-0.00015301153
-0.00029308654
-0.00010705536
-0.00029181355
-6.123951e-05
-0.00029088356
-0.00029038541
6.0474114e-05
-0.00033348824
0.00010573511
-0.00033400811
0.00015109718
-0.00033498238
0.0001966442
-0.00033629065
0.00024241065
-0.0003380764
0.00028846249
-0.00034027562
0.00033485947
-0.00034289765
0.00038164893
-0.00034593771
0.00042891426
-0.00034942563
0.00047673013
-0.00035332649
0.00052514405
-0.00035765589
0.00057422793
-0.00036239144
0.00062407595
-0.00036752326
0.00067475156
-0.00037297874
0.00072632964
-0.00037870324
0.00077888151
-0.00038461358
0.00083251803
-0.0003905985
0.0008871893
-0.000396486
0.00094308744
-0.0004020595
0.0010001687
-0.0004071042
0.0010584388
-0.00041130813
0.0011177829
-0.00041419207
0.0011781156
-0.0004153123
0.001239219
-0.00041415425
0.0013009536
-0.00041023711
0.001362681
-0.00040242491
0.0014238467
-0.00039035173
0.0014842617
-0.00037324568
0.0015425578
-0.00034973795
0.0015977223
-0.00031943661
0.0016488053
-0.00028130014
0.0016942557
-0.00023463742
0.0017325405
-0.00017902168
0.0017620108
-0.00011395377
0.0017813279
-3.9885216e-05
0.0017884566
4.4906235e-05
0.0017814664
0.00013886978
0.0017586315
0.00024125183
0.0017185025
0.00035117625
0.001659062
0.00046727052
0.0015791056
0.00058778687
0.0014782341
0.00070970053
0.0013556317
0.00083104701
0.0012116531
0.00094827068
0.001047038
0.0010579296
0.00086363523
0.0011565699
0.0006640687
0.0012404975
0.00045167583
0.001306667
0.00023031024
0.0013526271
4.3007359e-06
0.0013764552
-0.00022198437
0.0013779828
-0.00044418952
0.0013571731
-0.00065796681
0.0013141365
-0.00085930754
0.0012505528
-0.001044917
0.0011688903
-0.0012122965
0.0010722918
-0.0013593819
0.00096385652
-0.0014849112
0.00084752216
-0.0015890865
0.00072644773
-0.0016718594
0.00060399999
-0.0017339717
0.00048272057
-0.0017769129
0.00036550615
-0.0018017225
0.00025354017
-0.0018103113
0.00014910773
-0.0018043715
5.2979641e-05
-0.0017860737
-3.4009019e-05
-0.0017567313
-0.00011062409
-0.0017183586
-0.00017770108
-0.0016725452
-0.0002352221
-0.0016208859
-0.00028357587
-0.0015648036
-0.00032331316
-0.0015055345
-0.00035477437
-0.0014441528
-0.00037921961
-0.0013815906
-0.00039731559
-0.0013185909
-0.00040990512
-0.001255522
-0.00041814568
-0.0011931669
-0.00042231213
-0.0011314323
-0.00042364797
-0.0010708615
-0.0004223258
-0.0010114958
-0.00041936501
-0.0009532404
-0.00041496657
-0.0008962774
-0.0004096134
-0.00084057084
-0.00040368901
-0.00078601593
-0.00039742861
-0.00073259776
-0.0003910475
-0.00068023469
-0.00038472605
-0.00062884307
-0.00037857953
-0.00057834738
-0.0003727127
-0.00052867659
-0.00036718408
-0.00047973402
-0.00036206696
-0.00043146386
-0.0003573812
-0.00038377312
-0.0003531453
-0.00033660409
-0.00034936857
-0.00028988051
-0.0003460545
-0.00024353654
-0.00034319565
-0.0001975171
-0.0003407924
-0.00015174717
-0.00033885078
-0.00010618058
-0.00033737848
-6.0722609e-05
-0.00033634119
-0.00033577433
5.9943609e-05
-0.00037831929
0.00010482329
-0.00037888802
0.0001497696
-0.00037992876
0.00019491143
-0.00038143861
0.00024026436
-0.00038343101
0.0002858945
-0.00038590982
0.00033186147
-0.00038887313
0.00037824036
-0.0003923203
0.00042508254
-0.00039626758
0.00047247034
-0.00040071618
0.00052048474
-0.00040567261
0.00056922097
-0.00041112844
0.00061872948
-0.00041703302
0.0006691355
-0.00042338724
0.00072054626
-0.00043011777
0.00077306452
-0.00043713798
0.00082677564
-0.00044431616
0.00088180727
-0.00045152072
0.00093827495
-0.00045852722
0.00099625125
-0.00046508121
0.0010558894
-0.00047094854
0.0011169675
-0.00047527192
0.0011796323
-0.00047797789
0.001243742
-0.0004782653
0.0013090125
-0.00047551033
0.0013752469
-0.00046866164
0.0014418998
-0.0004570045
0.0015081868
-0.00043953035
0.0015733905
-0.00041493899
0.0016363359
-0.00038238063
0.0016959529
-0.00034091945
0.0017504735
-0.00028916348
0.0017982619
-0.00022681365
0.0018374329
-0.00015312492
0.0018662574
-6.8710818e-05
0.0018829306
2.8230594e-05
0.001884553
0.00013724697
0.001869358
0.0002564492
0.001835087
0.00038545075
0.0017798687
0.00052248901
0.0017022114
0.00066544013
0.001600281
0.00081162691
0.0014735553
0.00095777132
0.0013219329
0.0010998931
0.0011461156
0.0012337439
0.00094827397
0.0013544079
0.00073105404
0.0014577192
0.00049833615
0.0015393891
0.00025488612
0.0015960783
5.8545661e-06
0.0016254874
-0.00024348392
0.001627324
-0.00048790308
0.0016015965
-0.00072218933
0.0015484253
-0.00094162615
0.001469989
-0.0011422394
0.0013695022
-0.0013210826
0.0012511334
-0.0014763114
0.0011190833
-0.0016066789
0.00097789086
-0.0017123293
0.00083209905
-0.0017937044
0.00068537946
-0.0018522187
0.00054123779
-0.0018892039
0.00040249396
-0.0019068401
0.00027117861
-0.0019070662
0.00014933935
-0.0018917198
3.7640888e-05
-0.0018637139
-6.2015419e-05
-0.0018245389
-0.00014980127
-0.0017764849
-0.00022575768
-0.0017213763
-0.00029032987
-0.0016610158
-0.00034393435
-0.0015968999
-0.00038743306
-0.0015304277
-0.00042124927
-0.0014626776
-0.00044697261
-0.0013946889
-0.00046530422
-0.001327025
-0.00047756566
-0.0012602178
-0.00048495505
-0.0011946808
-0.00048785184
-0.0011306868
-0.00048764247
-0.0010681888
-0.00048482183
-0.0010073926
-0.00048015885
-0.00094811483
-0.00047424365
-0.00089054516
-0.00046718705
-0.00083446884
-0.00045977081
-0.00077979458
-0.00045211362
-0.00072640356
-0.00044444287
-0.00067419925
-0.00043692538
-0.00062307199
-0.00042970232
-0.00057291672
-0.00042286152
-0.00052362527
-0.00041648347
-0.00047511004
-0.00041058337
-0.00042728467
-0.00040520971
-0.00038005491
-0.00040037326
-0.00033333393
-0.00039607109
-0.00028707529
-0.0003923116
-0.00024118878
-0.00038907478
-0.00019561895
-0.00038636667
-0.00015029416
-0.00038417894
-0.00010517688
-0.00038249749
-6.0143461e-05
-0.00038137274
-0.0003807379
5.9375309e-05
-0.00042270946
0.00010380798
-0.0004233223
0.0001482835
-0.00042441054
0.00019297333
-0.00042612991
0.00023784686
-0.0004283094
0.00028300343
-0.00043107593
0.0003284818
-0.00043435651
0.00037435825
-0.00043819832
0.00042070087
-0.00044261424
0.00046759063
-0.00044761063
0.00051510938
-0.00045319371
0.00056337651
-0.00045939673
0.00061247936
-0.00046613688
0.00066252131
-0.0004734313
0.00071367898
-0.00048128069
0.0007660164
-0.00048948215
0.00081974768
-0.00049805112
0.0008750163
-0.00050678957
0.0009319843
-0.00051549586
0.00099091238
-0.0005240115
0.0010516562
-0.0005316936
0.0011146186
-0.00053823383
0.001179742
-0.00054310147
0.0012470277
-0.0005455532
0.0013163477
-0.00054483371
0.0013874709
-0.00053978722
0.0014599683
-0.0005295017
0.0015332798
-0.00051284011
0.0016065413
-0.00048820029
0.0016787014
-0.00045454311
0.001748128
-0.00041035002
0.0018134592
-0.00035449959
0.0018727492
-0.00028610844
0.0019237383
-0.00020411734
0.0019640582
-0.0001090331
0.0019922384
5.0676622e-08
0.0020046034
0.00012488554
0.0019990029
0.00026205209
0.0019727636
0.00041168833
0.0019235039
0.00057174539
0.0018487417
0.00074020044
0.0017468994
0.00091346819
0.0016163048
0.0010883625
0.0014562315
0.0012599639
0.0012677033
0.0014222731
0.0010523022
0.0015698113
0.00081349662
0.001696529
0.00055592596
0.0017969646
0.00028520406
0.0018668026
7.7498022e-06
0.0019029427
-0.00027007765
0.0019051513
-0.00054187977
0.0018734002
-0.00080131234
0.001807862
-0.0010427042
0.0017113842
-0.0012612722
0.0015880676
-0.0014539047
0.0014437617
-0.0016180895
0.0012832667
-0.0017531529
0.0011129565
-0.0018597419
0.00093869095
-0.0019386196
0.00076425824
-0.0019916574
0.00059427926
-0.0020213258
0.00043216859
-0.002029504
0.00027936218
-0.0020191228
0.00013895678
-0.0019920123
1.0529406e-05
-0.0019520063
-0.00010202119
-0.0019013122
-0.00020048986
-0.0018416508
-0.0002854153
-0.0017754227
-0.0003565577
-0.0017045983
-0.00041476451
-0.0016313298
-0.00046070926
-0.0015566297
-0.000495953
-0.0014817407
-0.00052186159
-0.0014075061
-0.00053953696
-0.0013346156
-0.00055045042
-0.0012637539
-0.00055581782
-0.0011948725
-0.00055673858
-0.0011282272
-0.00055429233
-0.0010638107
-0.00054924119
-0.0010015823
-0.00054238729
-0.0009415306
-0.00053429553
-0.00088334816
-0.00052537143
-0.0008269866
-0.00051613489
-0.0007722635
-0.0005068349
-0.00071902507
-0.00049768656
-0.00066708889
-0.000488861
-0.00061632787
-0.00048045796
-0.00056660577
-0.00047258474
-0.00051779649
-0.00046528686
-0.00046979856
-0.00045858361
-0.00042250405
-0.0004525053
-0.00037581009
-0.00044706844
-0.00032963496
-0.0004422435
-0.00028390529
-0.00043803687
-0.00023853882
-0.00043443788
-0.00019348243
-0.00043141617
-0.00014865354
-0.0004290088
-0.00010404825
-0.00042710091
-5.9506887e-05
-0.00042590587
-0.00042521993
5.8769765e-05
-0.00046662527
0.00010265505
-0.0004672132
0.00014663892
-0.00046839322
0.00019080787
-0.00047030256
0.00023517124
-0.00047268091
0.00027976794
-0.00047567601
0.00032469222
-0.00047928129
0.0003700021
-0.00048351186
0.00041577064
-0.00048838816
0.00046209031
-0.00049393416
0.00050906018
-0.00050016568
0.0005567248
-0.00050706162
0.00060528399
-0.00051469579
0.00065485635
-0.0005230061
0.00070554599
-0.00053197543
0.00075760144
-0.0005415413
0.00081119004
-0.00055164081
0.00086652745
-0.00056212857
0.00092384866
-0.00057282028
0.00098343382
-0.00058359871
0.0010454299
-0.0005936893
0.0011101486
-0.00060295245
0.0011777412
-0.00061069712
0.0012483309
-0.0006161478
0.0013219412
-0.00061844826
0.0013984468
-0.00061629578
0.0014775499
-0.00060860688
0.001558626
-0.00059391717
0.0016410676
-0.00057064255
0.0017234878
-0.00053696473
0.0018046655
-0.00049153056
0.0018826532
-0.00043249262
0.0019553953
-0.00035885747
0.0020203864
-0.00026911195
0.0020751231
-0.00016376821
0.0021165149
-4.1338355e-05
0.0021424919
9.8908226e-05
0.002148761
0.00025577942
0.0021328841
0.00042756271
0.0020920949
0.00061253518
0.0020226275
0.00080966819
0.0019221715
0.0010139217
0.0017883613
0.0012221683
0.0016195292
0.0014287949
0.0014159736
0.0016258332
0.0011797068
0.0018060821
0.00091472915
0.0019615087
0.00062672683
0.0020849699
0.00032248237
0.0021710495
1.0000626e-05
0.0022154269
-0.0003029157
0.0022180693
-0.00060842324
0.0021789105
-0.00089857936
0.0020980201
-0.0011667732
0.0019795798
-0.0014067389
0.0018280344
-0.0016148216
0.0016518424
-0.0017887779
0.001457222
-0.0019283496
0.0012525322
-0.0020344092
0.0010447585
-0.0021088376
0.0008386912
-0.0021547215
0.00064016911
-0.0021743091
0.0004517603
-0.0021707078
0.00027576186
-0.0021468513
0.00011510198
-0.0021066238
-2.9694308e-05
-0.0020522703
-0.00015636746
-0.0019870546
-0.00026569873
-0.0019135621
-0.0003589072
-0.0018343499
-0.00043577313
-0.0017517377
-0.00049738048
-0.0016674825
-0.00054496763
-0.0015831895
-0.00058024779
-0.0015001773
-0.00060487828
-0.0014191636
-0.00062055625
-0.0013407747
-0.00062883917
-0.0012652672
-0.00063132302
-0.0011928763
-0.00062912664
-0.001123585
-0.00062358184
-0.0010572721
-0.00061555553
-0.00099377441
-0.00060588693
-0.0009328862
-0.00059519109
-0.00087432195
-0.00058393772
-0.0008178641
-0.00057259918
-0.00076326669
-0.00056143406
-0.00071031326
-0.00055063862
-0.00065881355
-0.0005403691
-0.00060854604
-0.00053071952
-0.00055938615
-0.00052175053
-0.00051117038
-0.00051351378
-0.00046379802
-0.00050595521
-0.0004171177
-0.00049918891
-0.00037103645
-0.00049313669
-0.00032547069
-0.00048780182
-0.00028034634
-0.00048316108
-0.00023558337
-0.00047919608
-0.00019109671
-0.00047589941
-0.00014682999
-0.00047327917
-0.00010276492
-0.00047117038
-5.8822791e-05
-0.0004698463
-0.00046918112
5.8145236e-05
-0.00051001298
0.00010143182
-0.00051049563
0.00014486458
-0.00051182731
0.00018847625
-0.00051391947
0.00023223943
-0.00051644402
0.00027623064
-0.00051966451
0.00032052501
-0.00052357628
0.00036518348
-0.00052817357
0.00041028898
-0.00053349726
0.00045592725
-0.00053957554
0.00050218155
-0.0005464208
0.00054918286
-0.00055406137
0.00059707978
-0.00056259213
0.00064599542
-0.00057192373
0.00069611712
-0.00058209936
0.00074766582
-0.0005930917
0.00080088907
-0.00060486747
0.0008560689
-0.00061731362
0.00091350741
-0.00063026252
0.00097355403
-0.0006436464
0.0010365349
-0.00065667158
0.0011028379
-0.0006692599
0.0011727936
-0.00068065917
0.0012466808
-0.00069004078
0.0013246998
-0.00069647189
0.0014068808
-0.0006984817
0.0014930559
-0.00069478605
0.0015827856
-0.00068364753
0.0016752583
-0.00066311294
0.0017698749
-0.00063158099
0.0018644168
-0.00058607694
0.0019569811
-0.00052506325
0.0020452223
-0.00044710133
0.0021271086
-0.00035099631
0.002198742
-0.00023539984
0.0022571836
-9.9782938e-05
0.0022992318
5.6855269e-05