/*--------------------------------*- C++ -*----------------------------------*\
  =========                 |
  \\      /  F ield         | OpenFOAM: The Open Source CFD Toolbox
   \\    /   O peration     | Website:  https://openfoam.org
    \\  /    A nd           | Version:  9
     \\/     M anipulation  |
\*---------------------------------------------------------------------------*/
FoamFile
{
    format      ascii;
    class       volVectorField;
    location    "0.18";
    object      U;
}
// * * * * * * * * * * * * * * * * * * * * * * * * * * * * * * * * * * * * * //

dimensions      [0 1 -1 0 0 0 0];

internalField   nonuniform List<vector> 
10000
(
(0.0022391831 -0.0017221843 0)
(0.0087323436 -0.0017437273 0)
(0.013662612 -0.0017418964 0)
(0.017701264 -0.0017582281 0)
(0.022575221 -0.0017693291 0)
(0.027292776 -0.001786624 0)
(0.032042608 -0.0018095742 0)
(0.036834052 -0.0018390029 0)
(0.041668318 -0.0018748148 0)
(0.046549585 -0.0019176799 0)
(0.051483645 -0.0019660873 0)
(0.056476951 -0.0020240707 0)
(0.061529678 -0.0020964985 0)
(0.066641642 -0.002182714 0)
(0.071814873 -0.0022844655 0)
(0.077039746 -0.0024087454 0)
(0.082306586 -0.002543069 0)
(0.087615776 -0.0026792237 0)
(0.092958833 -0.0028230921 0)
(0.098316707 -0.002980546 0)
(0.10367106 -0.0031368325 0)
(0.10899928 -0.003295257 0)
(0.11426599 -0.0034432561 0)
(0.1194408 -0.0035688699 0)
(0.12448495 -0.0036842959 0)
(0.12935036 -0.0037663536 0)
(0.13395396 -0.0038171657 0)
(0.13823704 -0.0037683156 0)
(0.1421784 -0.0036767896 0)
(0.14570239 -0.003542924 0)
(0.14868565 -0.0033810345 0)
(0.15093512 -0.0031978188 0)
(0.15226148 -0.0029455529 0)
(0.15258658 -0.0025477099 0)
(0.15187605 -0.0019733661 0)
(0.15023103 -0.0011428163 0)
(0.14773284 -0.00020366818 0)
(0.14433045 0.0007626717 0)
(0.13981693 0.0016664307 0)
(0.1338842 0.0025183657 0)
(0.12651389 0.0033912728 0)
(0.11780067 0.0042934921 0)
(0.10774987 0.0051520584 0)
(0.09640032 0.0059573767 0)
(0.083845072 0.0067042603 0)
(0.070210155 0.0073696536 0)
(0.055641486 0.0079324858 0)
(0.040312006 0.0083760381 0)
(0.024418677 0.0086840127 0)
(0.0081766916 0.0088451468 0)
(-0.0082081811 0.0088606015 0)
(-0.024477939 0.0087297516 0)
(-0.04042934 0.0084506271 0)
(-0.055842574 0.0080356996 0)
(-0.070511707 0.0074989169 0)
(-0.084263444 0.0068520657 0)
(-0.096953213 0.0061157049 0)
(-0.10846481 0.0053129155 0)
(-0.11871432 0.0044716925 0)
(-0.12758198 0.003618385 0)
(-0.13503821 0.0027366059 0)
(-0.14111689 0.0018476255 0)
(-0.14579872 0.00093394107 0)
(-0.1492873 -3.2403081e-05 0)
(-0.15181815 -0.00098892023 0)
(-0.15350833 -0.001878352 0)
(-0.15429476 -0.0025036279 0)
(-0.15405671 -0.0029482163 0)
(-0.15275119 -0.0031970476 0)
(-0.15048809 -0.0034155603 0)
(-0.14751247 -0.0035984778 0)
(-0.14396919 -0.0037526985 0)
(-0.13998978 -0.0038581565 0)
(-0.13564598 -0.0039020968 0)
(-0.13100515 -0.0038770752 0)
(-0.126074 -0.00378276 0)
(-0.12092797 -0.0036782415 0)
(-0.11566982 -0.0035513892 0)
(-0.1103143 -0.0034045053 0)
(-0.10489703 -0.0032429234 0)
(-0.099452222 -0.0030844278 0)
(-0.094004673 -0.0029193627 0)
(-0.08857346 -0.002770374 0)
(-0.083179257 -0.002633468 0)
(-0.077831754 -0.0024997898 0)
(-0.072533412 -0.0023696951 0)
(-0.067287809 -0.0022567422 0)
(-0.062103821 -0.0021627153 0)
(-0.056983026 -0.0020832045 0)
(-0.051924283 -0.0020179758 0)
(-0.046927321 -0.0019656059 0)
(-0.041989517 -0.0019236638 0)
(-0.037105956 -0.0018899398 0)
(-0.032269826 -0.0018612568 0)
(-0.02747784 -0.0018372819 0)
(-0.022720537 -0.0018186435 0)
(-0.017804612 -0.0018050332 0)
(-0.013732115 -0.001794805 0)
(-0.0087584029 -0.0017915248 0)
(-0.002228632 -0.0017830158 0)
(0.0022133039 -0.0083367357 0)
(0.0087124034 -0.0083732213 0)
(0.013646662 -0.008393918 0)
(0.017676063 -0.0084441541 0)
(0.022550298 -0.008493446 0)
(0.027258019 -0.0085561694 0)
(0.031997859 -0.0086312139 0)
(0.036779001 -0.008718676 0)
(0.041602889 -0.0088182106 0)
(0.04647532 -0.0089300215 0)
(0.051398703 -0.0090539786 0)
(0.05637306 -0.0091906558 0)
(0.061403223 -0.0093411693 0)
(0.066492044 -0.0095064201 0)
(0.071634296 -0.0096858414 0)
(0.076834237 -0.0098683029 0)
(0.082096377 -0.010050457 0)
(0.087403163 -0.010233686 0)
(0.092732477 -0.010417724 0)
(0.098084823 -0.01058168 0)
(0.10344351 -0.010717101 0)
(0.10878399 -0.010817168 0)
(0.11408495 -0.010864264 0)
(0.11929144 -0.010843759 0)
(0.12437533 -0.010732533 0)
(0.12929781 -0.010524621 0)
(0.13402171 -0.010207876 0)
(0.13843434 -0.0097367804 0)
(0.14244983 -0.0091198076 0)
(0.14603777 -0.0083643362 0)
(0.14907605 -0.0074736669 0)
(0.15143646 -0.006437386 0)
(0.15300502 -0.0051859795 0)
(0.15368132 -0.0035713629 0)
(0.15343366 -0.0015904847 0)
(0.1521835 0.00080254664 0)
(0.14984808 0.0034567395 0)
(0.14643217 0.0062639824 0)
(0.14182138 0.0090675068 0)
(0.13586807 0.011857004 0)
(0.12854993 0.014687394 0)
(0.11981696 0.017492587 0)
(0.10965752 0.020215045 0)
(0.09817896 0.022792735 0)
(0.085460258 0.025150479 0)
(0.071610696 0.027238918 0)
(0.056783294 0.028995462 0)
(0.041159614 0.030365626 0)
(0.024945074 0.031307252 0)
(0.0083741921 0.031794553 0)
(-0.0083399051 0.031830957 0)
(-0.024940793 0.031414711 0)
(-0.04121513 0.030539168 0)
(-0.056925592 0.029227188 0)
(-0.071863775 0.027522791 0)
(-0.085845619 0.025474964 0)
(-0.098715346 0.023146752 0)
(-0.11035095 0.020600752 0)
(-0.12066353 0.017907375 0)
(-0.12957653 0.015137954 0)
(-0.1370646 0.012294391 0)
(-0.14316529 0.009447467 0)
(-0.14790835 0.0066267553 0)
(-0.15141816 0.0037899009 0)
(-0.15384531 0.0010900606 0)
(-0.15517445 -0.0013989562 0)
(-0.15548599 -0.0034790908 0)
(-0.15484293 -0.0051385892 0)
(-0.1532838 -0.0064326921 0)
(-0.15093419 -0.0075366215 0)
(-0.14788878 -0.0084750687 0)
(-0.1442743 -0.0092672705 0)
(-0.14019604 -0.009909613 0)
(-0.13573392 -0.010420369 0)
(-0.13096593 -0.010759556 0)
(-0.12596298 -0.010957569 0)
(-0.12078822 -0.011077864 0)
(-0.11548853 -0.011107875 0)
(-0.11009672 -0.011064462 0)
(-0.10466383 -0.010962311 0)
(-0.099210305 -0.010815546 0)
(-0.093765399 -0.010649993 0)
(-0.088354267 -0.010457188 0)
(-0.082968046 -0.010256815 0)
(-0.077620645 -0.010063907 0)
(-0.072336181 -0.0098733895 0)
(-0.06711996 -0.0096855982 0)
(-0.061963299 -0.0095046385 0)
(-0.056865521 -0.0093389402 0)
(-0.051828192 -0.0091901052 0)
(-0.046849147 -0.0090580836 0)
(-0.041925769 -0.0089407548 0)
(-0.037052636 -0.008836368 0)
(-0.032224428 -0.0087448792 0)
(-0.027441169 -0.0086659621 0)
(-0.022692986 -0.0085998503 0)
(-0.017784534 -0.0085469985 0)
(-0.013720261 -0.0085049096 0)
(-0.0087486241 -0.008480064 0)
(-0.0022203907 -0.0084586888 0)
(0.0021923189 -0.013126258 0)
(0.0086761974 -0.013161885 0)
(0.013597435 -0.013199332 0)
(0.017612071 -0.01326486 0)
(0.022477173 -0.013338801 0)
(0.027171297 -0.013431101 0)
(0.031898472 -0.013539824 0)
(0.036666992 -0.013664738 0)
(0.041477466 -0.013807003 0)
(0.046333997 -0.013966247 0)
(0.051242295 -0.014143431 0)
(0.056207246 -0.014336223 0)
(0.061228925 -0.014540097 0)
(0.066309228 -0.01475312 0)
(0.071461434 -0.014971933 0)
(0.076678962 -0.015192049 0)
(0.081940373 -0.01541415 0)
(0.087243102 -0.01563489 0)
(0.09260075 -0.015832772 0)
(0.098002192 -0.015988861 0)
(0.10341605 -0.016104071 0)
(0.10882883 -0.016149233 0)
(0.11421304 -0.016117536 0)
(0.11954464 -0.015978615 0)
(0.12477635 -0.015699953 0)
(0.12985019 -0.015269341 0)
(0.13472318 -0.01465611 0)
(0.13931531 -0.013866711 0)
(0.14355143 -0.012810987 0)
(0.14735808 -0.011497842 0)
(0.15062721 -0.0099086666 0)
(0.15324 -0.0080172085 0)
(0.15514632 -0.0057883327 0)
(0.15620124 -0.0031989733 0)
(0.15626821 -0.00022576155 0)
(0.15529229 0.0030879869 0)
(0.1532027 0.0067355265 0)
(0.14994681 0.01065191 0)
(0.14541404 0.014737696 0)
(0.13950764 0.018927527 0)
(0.13215527 0.023160328 0)
(0.12333617 0.027333287 0)
(0.11306035 0.031413328 0)
(0.10134985 0.035302946 0)
(0.088309488 0.038897395 0)
(0.074077726 0.042080973 0)
(0.058794323 0.044764217 0)
(0.042652968 0.046866818 0)
(0.025877403 0.048321457 0)
(0.0087190357 0.049080932 0)
(-0.0085938034 0.049132112 0)
(-0.025786912 0.048472382 0)
(-0.042633475 0.047112786 0)
(-0.058872928 0.045099092 0)
(-0.074275472 0.042493215 0)
(-0.088648446 0.039373787 0)
(-0.101834 0.035833205 0)
(-0.11370882 0.031972168 0)
(-0.12417963 0.027897391 0)
(-0.13319683 0.023704141 0)
(-0.14072999 0.019463889 0)
(-0.14678643 0.01524282 0)
(-0.15146002 0.011118352 0)
(-0.15483067 0.0071418181 0)
(-0.15701961 0.0034109379 0)
(-0.15809465 1.3514809e-05 0)
(-0.15805257 -0.003051703 0)
(-0.1570282 -0.005698696 0)
(-0.15516533 -0.0080096846 0)
(-0.15254443 -0.0099729876 0)
(-0.14925226 -0.011623999 0)
(-0.14540415 -0.012984857 0)
(-0.14113249 -0.014080599 0)
(-0.13647654 -0.014925601 0)
(-0.13151744 -0.01555544 0)
(-0.12636472 -0.015998662 0)
(-0.12105059 -0.016296125 0)
(-0.11563017 -0.016440869 0)
(-0.11014546 -0.01647288 0)
(-0.10462865 -0.016424846 0)
(-0.099124405 -0.01630677 0)
(-0.093635688 -0.016141455 0)
(-0.088174501 -0.015936932 0)
(-0.082784783 -0.015702014 0)
(-0.077452287 -0.015458259 0)
(-0.072164275 -0.015219821 0)
(-0.066932555 -0.014985002 0)
(-0.06177352 -0.014757713 0)
(-0.056686946 -0.014540529 0)
(-0.051662832 -0.014336255 0)
(-0.046697391 -0.014147949 0)
(-0.041787028 -0.013976783 0)
(-0.036928975 -0.013823145 0)
(-0.03211804 -0.013688657 0)
(-0.027351073 -0.013573001 0)
(-0.02261898 -0.013475496 0)
(-0.017725201 -0.013396971 0)
(-0.013677791 -0.013336711 0)
(-0.0087210545 -0.013296107 0)
(-0.002206897 -0.013269242 0)
(0.0021753731 -0.017355002 0)
(0.0086418347 -0.017391169 0)
(0.013545922 -0.017441718 0)
(0.017541923 -0.017515854 0)
(0.022391418 -0.017610337 0)
(0.02706648 -0.017728585 0)
(0.03177586 -0.017868038 0)
(0.036525628 -0.018028945 0)
(0.041317614 -0.018212415 0)
(0.046157655 -0.018417676 0)
(0.051050273 -0.018642773 0)
(0.056001175 -0.018887312 0)
(0.061014364 -0.019148634 0)
(0.066091759 -0.019421837 0)
(0.071230933 -0.01970321 0)
(0.076431998 -0.019999006 0)
(0.081697792 -0.020294854 0)
(0.087033313 -0.020572279 0)
(0.092431966 -0.020813307 0)
(0.097871401 -0.02101772 0)
(0.10334526 -0.021164776 0)
(0.10883597 -0.021228824 0)
(0.11432347 -0.02118703 0)
(0.11977779 -0.021008734 0)
(0.12515226 -0.020676309 0)
(0.13040643 -0.020141561 0)
(0.13548419 -0.019372817 0)
(0.14033299 -0.018335864 0)
(0.14486435 -0.01698409 0)
(0.14897992 -0.015271375 0)
(0.15259537 -0.013189311 0)
(0.15560075 -0.010695075 0)
(0.1578772 -0.0077499478 0)
(0.15930756 -0.0043880894 0)
(0.15979439 -0.00049995904 0)
(0.15922703 0.0037951109 0)
(0.15749941 0.0085208698 0)
(0.15452411 0.013619952 0)
(0.15018857 0.018999914 0)
(0.14438313 0.024573871 0)
(0.13704692 0.03024636 0)
(0.1281577 0.035916977 0)
(0.11771086 0.041447015 0)
(0.10574043 0.046718787 0)
(0.092309629 0.051609212 0)
(0.077542589 0.055966159 0)
(0.061627329 0.059646242 0)
(0.044768309 0.062526437 0)
(0.027203716 0.064519112 0)
(0.0092086373 0.065557337 0)
(-0.0089621829 0.065626815 0)
(-0.026994627 0.064724324 0)
(-0.044629802 0.062861335 0)
(-0.061593531 0.060103799 0)
(-0.077644722 0.056538992 0)
(-0.092567855 0.052277406 0)
(-0.10618539 0.047448114 0)
(-0.11836166 0.04219487 0)
(-0.12901244 0.036666772 0)
(-0.13809516 0.030995219 0)
(-0.14561349 0.025297271 0)
(-0.15159848 0.019678289 0)
(-0.15609607 0.014225802 0)
(-0.15921037 0.0090484782 0)
(-0.16105377 0.0042104811 0)
(-0.16170947 -0.00019861575 0)
(-0.16126 -0.0041521868 0)
(-0.15985365 -0.0076474182 0)
(-0.15760115 -0.010685403 0)
(-0.15458642 -0.013271091 0)
(-0.15093982 -0.015432207 0)
(-0.14677615 -0.017210117 0)
(-0.14219004 -0.018629198 0)
(-0.13726857 -0.019699833 0)
(-0.13210391 -0.020508575 0)
(-0.12677145 -0.021073143 0)
(-0.12129925 -0.021427919 0)
(-0.11573322 -0.021608842 0)
(-0.11014616 -0.021650111 0)
(-0.10455987 -0.02158247 0)
(-0.098985087 -0.021435196 0)
(-0.093449047 -0.021212517 0)
(-0.087963538 -0.020956864 0)
(-0.08253376 -0.020669673 0)
(-0.077178987 -0.020355234 0)
(-0.071899451 -0.020034101 0)
(-0.066690342 -0.019723421 0)
(-0.061547546 -0.019430349 0)
(-0.056469134 -0.019151303 0)
(-0.051457045 -0.018888771 0)
(-0.046507884 -0.018646389 0)
(-0.041616295 -0.018426532 0)
(-0.036777508 -0.018230664 0)
(-0.031985724 -0.018056329 0)
(-0.02723824 -0.017906829 0)
(-0.022526014 -0.017781011 0)
(-0.017653429 -0.017677929 0)
(-0.013624901 -0.017601938 0)
(-0.0086864474 -0.017545595 0)
(-0.0021939693 -0.017513981 0)
(0.0021570853 -0.021967782 0)
(0.0085950998 -0.022006392 0)
(0.013478519 -0.022075109 0)
(0.017451695 -0.022163549 0)
(0.022274568 -0.022285441 0)
(0.026925221 -0.022434822 0)
(0.031611382 -0.022611667 0)
(0.03633766 -0.022815896 0)
(0.04110532 -0.023048327 0)
(0.045921705 -0.023309225 0)
(0.050792412 -0.023595253 0)
(0.055722616 -0.023906351 0)
(0.060717109 -0.024240512 0)
(0.065779202 -0.024594298 0)
(0.070910421 -0.024962684 0)
(0.076114959 -0.025335147 0)
(0.081396343 -0.02570076 0)
(0.086755669 -0.02604761 0)
(0.092187863 -0.026364562 0)
(0.097684688 -0.026634504 0)
(0.10324041 -0.026826649 0)
(0.10884319 -0.026917897 0)
(0.11447017 -0.026873607 0)
(0.12009249 -0.026664435 0)
(0.1256807 -0.026244852 0)
(0.13119104 -0.02556925 0)
(0.13656736 -0.02458769 0)
(0.14174445 -0.023255627 0)
(0.14665747 -0.021539984 0)
(0.15119546 -0.019370855 0)
(0.15524865 -0.016710374 0)
(0.15873075 -0.013530122 0)
(0.16151552 -0.0097961044 0)
(0.16352469 -0.005488237 0)
(0.16453519 -0.00053622586 0)
(0.16440035 0.0049349606 0)
(0.16311738 0.010932733 0)
(0.16051827 0.017409248 0)
(0.15646183 0.024270316 0)
(0.1508484 0.031409649 0)
(0.14359319 0.038719686 0)
(0.13463075 0.046052917 0)
(0.12395311 0.053249924 0)
(0.11159913 0.06012305 0)
(0.097639261 0.066474947 0)
(0.082191216 0.072141939 0)
(0.065425606 0.076940242 0)
(0.047591804 0.080709682 0)
(0.028967945 0.083306607 0)
(0.0098585403 0.084653884 0)
(-0.0094482719 0.08473975 0)
(-0.028601924 0.083560305 0)
(-0.047310428 0.081123246 0)
(-0.06525738 0.077502512 0)
(-0.082170003 0.072838542 0)
(-0.097813364 0.067280202 0)
(-0.11199589 0.061008253 0)
(-0.12457391 0.054205021 0)
(-0.13546641 0.047030244 0)
(-0.14465547 0.039682417 0)
(-0.15213659 0.032330671 0)
(-0.15794779 0.025114727 0)
(-0.16217863 0.018161135 0)
(-0.1649331 0.011575022 0)
(-0.16635148 0.0054455842 0)
(-0.16653915 -0.00018165354 0)
(-0.16557293 -0.0052105071 0)
(-0.1636222 -0.0096655001 0)
(-0.16083928 -0.013522382 0)
(-0.15733547 -0.016813772 0)
(-0.15323338 -0.019569355 0)
(-0.1486421 -0.021832967 0)
(-0.14366217 -0.023620313 0)
(-0.13839384 -0.025003351 0)
(-0.13292766 -0.02602977 0)
(-0.12732099 -0.026741928 0)
(-0.12162334 -0.027175654 0)
(-0.11588916 -0.027398073 0)
(-0.11015566 -0.027448216 0)
(-0.10444939 -0.027354384 0)
(-0.098788895 -0.027147037 0)
(-0.093190437 -0.026864899 0)
(-0.087663348 -0.026525398 0)
(-0.082213112 -0.026154833 0)
(-0.076845168 -0.025767913 0)
(-0.071559727 -0.025372417 0)
(-0.066354383 -0.02497969 0)
(-0.061224961 -0.024597966 0)
(-0.056166909 -0.024236967 0)
(-0.05117751 -0.023900828 0)
(-0.046252723 -0.023591895 0)
(-0.041387208 -0.023311442 0)
(-0.036573285 -0.023061131 0)
(-0.031807331 -0.022840441 0)
(-0.027087964 -0.022649447 0)
(-0.022401177 -0.022488495 0)
(-0.017555688 -0.022357687 0)
(-0.013553134 -0.022259927 0)
(-0.0086396405 -0.022187744 0)
(-0.0021774608 -0.022148245 0)
(0.0021406612 -0.026546277 0)
(0.0085421404 -0.026588538 0)
(0.013396642 -0.026671116 0)
(0.017341292 -0.026775642 0)
(0.022131555 -0.026921315 0)
(0.026753141 -0.027099301 0)
(0.031409518 -0.0273106 0)
(0.036105561 -0.027556158 0)
(0.040842636 -0.027836083 0)
(0.045630888 -0.028149265 0)
(0.050474997 -0.028494134 0)
(0.05537954 -0.028869944 0)
(0.060351849 -0.029273691 0)
(0.065396961 -0.029701085 0)
(0.070519484 -0.030145542 0)
(0.075725282 -0.030597075 0)
(0.081018937 -0.03104601 0)
(0.086405437 -0.031476459 0)
(0.091883439 -0.031876857 0)
(0.09745012 -0.032219815 0)
(0.10310498 -0.032477011 0)
(0.10883428 -0.032616722 0)
(0.11462384 -0.032604432 0)
(0.1204548 -0.032394674 0)
(0.12629662 -0.031939954 0)
(0.13211326 -0.031184134 0)
(0.13784793 -0.030074198 0)
(0.14343125 -0.028530089 0)
(0.1487993 -0.026518629 0)
(0.15385934 -0.023979237 0)
(0.1584874 -0.020818336 0)
(0.16257294 -0.017014927 0)
(0.16598815 -0.012526098 0)
(0.16864745 -0.0073297856 0)
(0.17031303 -0.0014050795 0)
(0.17080431 0.0052306769 0)
(0.17008984 0.012542512 0)
(0.16798386 0.020459347 0)
(0.16431571 0.028888155 0)
(0.15896262 0.037720536 0)
(0.15182211 0.046796812 0)
(0.14281887 0.055925027 0)
(0.13190935 0.064930878 0)
(0.11908917 0.073573759 0)
(0.10444599 0.081611391 0)
(0.088118641 0.088786886 0)
(0.070297043 0.094870992 0)
(0.051228234 0.099665943 0)
(0.031231252 0.10298055 0)
(0.010685414 0.10470077 0)
(-0.010086921 0.10480969 0)
(-0.030682544 0.10330256 0)
(-0.050770756 0.10019464 0)
(-0.069970502 0.095595643 0)
(-0.087968328 0.089673157 0)
(-0.10450755 0.082627684 0)
(-0.1193769 0.074699135 0)
(-0.13246172 0.066124677 0)
(-0.1436599 0.057150918 0)
(-0.15292107 0.047990341 0)
(-0.16030738 0.038866499 0)
(-0.16589094 0.029951487 0)
(-0.16975461 0.021393061 0)
(-0.17203966 0.013331085 0)
(-0.17291621 0.0058589338 0)
(-0.17245898 -0.00094713855 0)
(-0.17082294 -0.007027449 0)
(-0.16823365 -0.012386646 0)
(-0.16480659 -0.017024078 0)
(-0.16068432 -0.020960956 0)
(-0.1560085 -0.024235034 0)
(-0.15087725 -0.026889743 0)
(-0.145411 -0.028980961 0)
(-0.1397279 -0.030581546 0)
(-0.13389155 -0.031749667 0)
(-0.12796587 -0.032539973 0)
(-0.12200359 -0.033015512 0)
(-0.11605284 -0.033243204 0)
(-0.11014767 -0.033255233 0)
(-0.10430214 -0.033106203 0)
(-0.098536976 -0.03283679 0)
(-0.092866662 -0.032475267 0)
(-0.087290502 -0.032051888 0)
(-0.08181102 -0.031592481 0)
(-0.076429112 -0.031113812 0)
(-0.071141687 -0.030630832 0)
(-0.065944103 -0.030155249 0)
(-0.060830664 -0.029695782 0)
(-0.055795541 -0.029260689 0)
(-0.050833277 -0.028855239 0)
(-0.045937793 -0.028482668 0)
(-0.041103126 -0.028145128 0)
(-0.036322537 -0.027842634 0)
(-0.03158867 -0.027578034 0)
(-0.02689983 -0.027347863 0)
(-0.022246335 -0.027153241 0)
(-0.017434983 -0.026997182 0)
(-0.013463222 -0.02687908 0)
(-0.0085818118 -0.026793883 0)
(-0.0021582459 -0.026745999 0)
(0.0021216441 -0.031087706 0)
(0.0084797549 -0.031136778 0)
(0.013301455 -0.031230594 0)
(0.01721271 -0.031352401 0)
(0.021963617 -0.031520378 0)
(0.026550134 -0.031727133 0)
(0.031170532 -0.031973314 0)
(0.035830119 -0.032260107 0)
(0.040532227 -0.032586219 0)
(0.04528579 -0.032951306 0)
(0.050095866 -0.033356297 0)
(0.054969316 -0.033799123 0)
(0.059914409 -0.034276703 0)
(0.064938008 -0.034783124 0)
(0.070047453 -0.035313496 0)
(0.075250015 -0.035857432 0)
(0.080555105 -0.036403648 0)
(0.08596556 -0.036937363 0)
(0.091488179 -0.037441271 0)
(0.097131155 -0.037887202 0)
(0.1028928 -0.03824545 0)
(0.10876711 -0.038475457 0)
(0.11474546 -0.038536725 0)
(0.12081219 -0.038379227 0)
(0.12694784 -0.037942109 0)
(0.13311452 -0.037164372 0)
(0.13928025 -0.035977413 0)
(0.14535986 -0.034298119 0)
(0.15126826 -0.032047298 0)
(0.15695513 -0.029165228 0)
(0.16227338 -0.025552307 0)
(0.16708971 -0.021161722 0)
(0.17127825 -0.015945346 0)
(0.17473539 -0.0098645707 0)
(0.17720138 -0.0028962459 0)
(0.17846722 0.0049258938 0)
(0.17847183 0.013596982 0)
(0.17699538 0.023040711 0)
(0.17385876 0.033153105 0)
(0.16889559 0.043802731 0)
(0.16193768 0.054807367 0)
(0.15290427 0.065968865 0)
(0.14173908 0.077012383 0)
(0.12841305 0.08765787 0)
(0.11298144 0.097605201 0)
(0.095574623 0.1065354 0)
(0.076422617 0.11412276 0)
(0.055813187 0.12010082 0)
(0.03410471 0.12425601 0)
(0.011741141 0.12641582 0)
(-0.010887575 0.12655489 0)
(-0.033306946 0.12466853 0)
(-0.055117654 0.12077899 0)
(-0.075885969 0.11503998 0)
(-0.095252246 0.10765828 0)
(-0.11290794 0.098907244 0)
(-0.12862437 0.089073461 0)
(-0.14225161 0.078491851 0)
(-0.15373417 0.067483411 0)
(-0.16307403 0.056306383 0)
(-0.17030875 0.045216606 0)
(-0.17555222 0.034441591 0)
(-0.17892669 0.024171321 0)
(-0.18059044 0.014539745 0)
(-0.18074615 0.0056692666 0)
(-0.17952902 -0.0023457081 0)
(-0.17710187 -0.0095336076 0)
(-0.17369597 -0.015806964 0)
(-0.16948004 -0.02120048 0)
(-0.16460713 -0.025749406 0)
(-0.15922168 -0.029504903 0)
(-0.15344786 -0.032499325 0)
(-0.14741397 -0.034844783 0)
(-0.14122143 -0.036603087 0)
(-0.13494348 -0.037847118 0)
(-0.12864296 -0.038661294 0)
(-0.12238163 -0.039122254 0)
(-0.11618263 -0.039289226 0)
(-0.1100704 -0.039227907 0)
(-0.10408042 -0.038985777 0)
(-0.098205095 -0.038614598 0)
(-0.092449991 -0.038143466 0)
(-0.086822334 -0.037610164 0)
(-0.081314112 -0.037041585 0)
(-0.075919943 -0.036458531 0)
(-0.070634827 -0.035876533 0)
(-0.065450248 -0.035308013 0)
(-0.060358441 -0.034763039 0)
(-0.055351675 -0.034248566 0)
(-0.050422322 -0.033771035 0)
(-0.04556329 -0.033333403 0)
(-0.040765941 -0.032937854 0)
(-0.036023368 -0.032584265 0)
(-0.03132851 -0.032273413 0)
(-0.02667751 -0.032005288 0)
(-0.022063378 -0.031779346 0)
(-0.017292601 -0.031597559 0)
(-0.013358888 -0.031460076 0)
(-0.0085144456 -0.031362576 0)
(-0.0021350841 -0.031307651 0)
(0.0021001799 -0.035588267 0)
(0.0084101615 -0.035643247 0)
(0.013192827 -0.035744341 0)
(0.017064494 -0.035885931 0)
(0.021771182 -0.036075367 0)
(0.026315952 -0.036310598 0)
(0.030894059 -0.036591551 0)
(0.035512084 -0.036918707 0)
(0.040173 -0.037291489 0)
(0.044884509 -0.037711253 0)
(0.049653241 -0.038178154 0)
(0.054487602 -0.038690731 0)
(0.059398715 -0.039245903 0)
(0.06439338 -0.039839249 0)
(0.069481017 -0.04046562 0)
(0.074673686 -0.041114298 0)
(0.079980445 -0.041775142 0)
(0.08541235 -0.042433847 0)
(0.090981401 -0.043064786 0)
(0.096697024 -0.043644007 0)
(0.10257059 -0.044134024 0)
(0.10859938 -0.044502642 0)
(0.11477908 -0.044693104 0)
(0.12111101 -0.044647435 0)
(0.12757515 -0.044295657 0)
(0.13414368 -0.04356589 0)
(0.14078208 -0.042367205 0)
(0.1474313 -0.040632318 0)
(0.15400271 -0.038221608 0)
(0.160424 -0.03506758 0)
(0.16656042 -0.03107655 0)
(0.17225504 -0.026154578 0)
(0.17737228 -0.020244454 0)
(0.18179688 -0.013281748 0)
(0.18522313 -0.0052871161 0)
(0.18743613 0.0037702032 0)
(0.18835199 0.013879139 0)
(0.18769419 0.024956393 0)
(0.1852379 0.036897166 0)
(0.18078057 0.049538693 0)
(0.17415314 0.062698479 0)
(0.16518961 0.076135463 0)
(0.15376321 0.089514617 0)
(0.13984408 0.10247832 0)
(0.123481 0.11465136 0)
(0.10478843 0.12561376 0)
(0.084008143 0.13497455 0)
(0.061500751 0.14236864 0)
(0.037674734 0.14750888 0)
(0.013051209 0.15018311 0)
(-0.011886912 0.15035103 0)
(-0.036572262 0.14801084 0)
(-0.06052385 0.14319022 0)
(-0.083223123 0.13608384 0)
(-0.10424041 0.1269778 0)
(-0.12323802 0.11623233 0)
(-0.13994376 0.10420983 0)
(-0.15420729 0.091337411 0)
(-0.16600275 0.07799439 0)
(-0.17534598 0.064530854 0)
(-0.18232894 0.051264461 0)
(-0.18708939 0.038453628 0)
(-0.1898059 0.026307928 0)
(-0.19068609 0.014993268 0)
(-0.18993673 0.0046409858 0)
(-0.18777851 -0.0046526447 0)
(-0.18438503 -0.012951241 0)
(-0.17998715 -0.020123171 0)
(-0.17482405 -0.026237321 0)
(-0.16905827 -0.031338575 0)
(-0.16282835 -0.03551365 0)
(-0.15628744 -0.038785868 0)
(-0.14958458 -0.041300941 0)
(-0.14279809 -0.043131146 0)
(-0.13601523 -0.044383187 0)
(-0.12930405 -0.045159093 0)
(-0.12269262 -0.04553261 0)
(-0.11621746 -0.045580222 0)
(-0.10990053 -0.045388841 0)
(-0.10374231 -0.045006157 0)
(-0.097745602 -0.044483325 0)
(-0.091910261 -0.043874468 0)
(-0.08623369 -0.043205755 0)
(-0.080701201 -0.04250643 0)
(-0.075302721 -0.041801313 0)
(-0.070026862 -0.04110695 0)
(-0.064863262 -0.040435291 0)
(-0.059800928 -0.039796543 0)
(-0.054830266 -0.039197773 0)
(-0.049942087 -0.038644166 0)
(-0.045126294 -0.038138628 0)
(-0.040373847 -0.037682669 0)
(-0.035676241 -0.037277202 0)
(-0.03102662 -0.036921274 0)
(-0.026421347 -0.036615021 0)
(-0.021852694 -0.036358358 0)
(-0.017128025 -0.036151455 0)
(-0.013238561 -0.035993079 0)
(-0.0084382234 -0.035884539 0)
(-0.0021105965 -0.035823986 0)
(0.0020773172 -0.040048566 0)
(0.0083358597 -0.0401082 0)
(0.013072039 -0.040214669 0)
(0.016896358 -0.04037716 0)
(0.021554797 -0.040588416 0)
(0.026051201 -0.040850035 0)
(0.03058152 -0.041163932 0)
(0.035151204 -0.041530526 0)
(0.039762751 -0.041951157 0)
(0.044424461 -0.042426733 0)
(0.049144205 -0.042956524 0)
(0.053931879 -0.043542546 0)
(0.05879893 -0.044178659 0)
(0.06375407 -0.044864994 0)
(0.068811038 -0.045594493 0)
(0.073982237 -0.046361693 0)
(0.079280699 -0.047153786 0)
(0.084724629 -0.04795416 0)
(0.090330411 -0.048741943 0)
(0.096117985 -0.049489474 0)
(0.10209341 -0.050159478 0)
(0.10827069 -0.050714132 0)
(0.11466656 -0.051090576 0)
(0.12127875 -0.051223442 0)
(0.1281013 -0.051036686 0)
(0.13511774 -0.050437423 0)
(0.14229183 -0.049325433 0)
(0.1495864 -0.047595696 0)
(0.15691533 -0.045134885 0)
(0.16418233 -0.041804219 0)
(0.17126818 -0.037519098 0)
(0.17800831 -0.032134667 0)
(0.18424893 -0.025583528 0)
(0.1898047 -0.017772032 0)
(0.1943864 -0.0087446497 0)
(0.19779132 0.0016105635 0)
(0.19982883 0.013203926 0)
(0.20019291 0.02601372 0)
(0.19862697 0.039913481 0)
(0.1948875 0.054783243 0)
(0.18872891 0.070372787 0)
(0.17991706 0.086346578 0)
(0.16827804 0.10239334 0)
(0.15374289 0.11806935 0)
(0.13630559 0.13286879 0)
(0.11608154 0.14627138 0)
(0.093354564 0.15776984 0)
(0.068517866 0.16687828 0)
(0.042077796 0.17321271 0)
(0.014666272 0.1765063 0)
(-0.013126731 0.17670787 0)
(-0.040609067 0.17381563 0)
(-0.067197005 0.16786891 0)
(-0.092257512 0.1591154 0)
(-0.11526933 0.14791705 0)
(-0.13584849 0.13476121 0)
(-0.15369654 0.12015624 0)
(-0.16864918 0.10459156 0)
(-0.18072542 0.088583813 0)
(-0.18998857 0.072547251 0)
(-0.19656856 0.056850992 0)
(-0.2006874 0.041793392 0)
(-0.20256036 0.027616262 0)
(-0.20242346 0.01450878 0)
(-0.20054648 0.0026116045 0)
(-0.19725176 -0.0080453376 0)
(-0.19268432 -0.017421421 0)
(-0.18707961 -0.025490666 0)
(-0.18078187 -0.032290395 0)
(-0.17396447 -0.037887267 0)
(-0.16675034 -0.042361047 0)
(-0.15931656 -0.045834908 0)
(-0.15183898 -0.048417587 0)
(-0.14438106 -0.050234036 0)
(-0.13704531 -0.051413873 0)
(-0.12986309 -0.052055346 0)
(-0.12287065 -0.052260085 0)
(-0.1161039 -0.052131868 0)
(-0.10955851 -0.051741952 0)
(-0.1032336 -0.051164258 0)
(-0.097128622 -0.050454978 0)
(-0.091224191 -0.049667716 0)
(-0.085502582 -0.048833192 0)
(-0.079954508 -0.047982295 0)
(-0.074561567 -0.047137409 0)
(-0.06930651 -0.046316303 0)
(-0.064174379 -0.045532224 0)
(-0.059152358 -0.044792793 0)
(-0.05422765 -0.044105101 0)
(-0.049388797 -0.043471619 0)
(-0.044624835 -0.042896437 0)
(-0.039925569 -0.042379208 0)
(-0.035281348 -0.041920497 0)
(-0.030684259 -0.041520106 0)
(-0.026131127 -0.041176693 0)
(-0.021614919 -0.040889951 0)
(-0.016940876 -0.040658684 0)
(-0.013103485 -0.040478049 0)
(-0.0083549077 -0.040361652 0)
(-0.0020842256 -0.040295407 0)
(0.0020540675 -0.044463272 0)
(0.0082570955 -0.044523494 0)
(0.012938926 -0.044637522 0)
(0.016707117 -0.044819664 0)
(0.021315485 -0.045050883 0)
(0.025758949 -0.045338135 0)
(0.030234044 -0.045684067 0)
(0.03474725 -0.046089929 0)
(0.039301338 -0.046557736 0)
(0.043906025 -0.047088058 0)
(0.048566759 -0.047682308 0)
(0.053297609 -0.048341206 0)
(0.058111254 -0.049064146 0)
(0.063015729 -0.049848611 0)
(0.068025855 -0.050691014 0)
(0.073159537 -0.05158737 0)
(0.07843695 -0.052525168 0)
(0.083877227 -0.053490154 0)
(0.089503398 -0.054463319 0)
(0.095340902 -0.055416746 0)
(0.10141124 -0.056315714 0)
(0.10773776 -0.057106687 0)
(0.11434333 -0.05773437 0)
(0.1212424 -0.058124635 0)
(0.12844236 -0.058188904 0)
(0.13594004 -0.057823287 0)
(0.14371367 -0.056910366 0)
(0.15171571 -0.055315378 0)
(0.15989102 -0.052916459 0)
(0.16813686 -0.049523908 0)
(0.17632633 -0.045035189 0)
(0.18428904 -0.039279322 0)
(0.19184543 -0.032172706 0)
(0.19876205 -0.023552588 0)
(0.20475359 -0.013478142 0)
(0.20956415 -0.0018369098 0)
(0.21295423 0.011316579 0)
(0.21461254 0.025998408 0)
(0.21422309 0.042057294 0)
(0.21146304 0.05932183 0)
(0.20594476 0.07755722 0)
(0.19744096 0.09644449 0)
(0.18571812 0.11560023 0)
(0.17055002 0.13450841 0)
(0.15191047 0.15246429 0)
(0.1299114 0.16883686 0)
(0.10483122 0.18294194 0)
(0.077153984 0.19414333 0)
(0.047500983 0.20194895 0)
(0.016651101 0.20599784 0)
(-0.014662991 0.20623792 0)
(-0.045589017 0.2026668 0)
(-0.075412518 0.19532532 0)
(-0.10336904 0.18453775 0)
(-0.12879434 0.17081703 0)
(-0.1512048 0.15472441 0)
(-0.17032559 0.13702011 0)
(-0.1859942 0.11830931 0)
(-0.19826246 0.099204898 0)
(-0.2072954 0.080211256 0)
(-0.21329558 0.061814381 0)
(-0.21653186 0.04427392 0)
(-0.21729326 0.027860697 0)
(-0.21588435 0.012830772 0)
(-0.21266695 -0.00071985692 0)
(-0.20795649 -0.012756553 0)
(-0.20195361 -0.023189655 0)
(-0.19496431 -0.032127135 0)
(-0.18731748 -0.0395406 0)
(-0.17922339 -0.045543413 0)
(-0.17087049 -0.050225294 0)
(-0.1624379 -0.0537786 0)
(-0.15407512 -0.056312519 0)
(-0.1458823 -0.058000661 0)
(-0.13792027 -0.058980968 0)
(-0.13022988 -0.059378656 0)
(-0.12284489 -0.059331044 0)
(-0.1157717 -0.058936612 0)
(-0.10900168 -0.058286832 0)
(-0.10251989 -0.057460621 0)
(-0.096309333 -0.056521044 0)
(-0.090344762 -0.05551256 0)
(-0.08460026 -0.054480862 0)
(-0.079053412 -0.053454042 0)
(-0.073680734 -0.052452561 0)
(-0.068461759 -0.051492328 0)
(-0.063376297 -0.050585634 0)
(-0.058407096 -0.049739992 0)
(-0.05353929 -0.04895904 0)
(-0.048760808 -0.048241803 0)
(-0.044058826 -0.047596478 0)
(-0.03942062 -0.04701824 0)
(-0.034837853 -0.046507093 0)
(-0.03030176 -0.046062372 0)
(-0.025808441 -0.045682404 0)
(-0.021350602 -0.045366174 0)
(-0.016730823 -0.04511258 0)
(-0.012954376 -0.044911064 0)
(-0.0082657864 -0.04478456 0)
(-0.0020568229 -0.044716955 0)
(0.002033773 -0.048827568 0)
(0.0081751465 -0.048881107 0)
(0.01279249 -0.049006924 0)
(0.016500867 -0.049208054 0)
(0.021054972 -0.049454932 0)
(0.02543793 -0.049767394 0)
(0.029851432 -0.050144651 0)
(0.034301206 -0.050588636 0)
(0.03879056 -0.051102131 0)
(0.043328303 -0.051686485 0)
(0.047922042 -0.052344991 0)
(0.052584018 -0.053075751 0)
(0.057328649 -0.053889121 0)
(0.062167869 -0.054775961 0)
(0.067116746 -0.055738812 0)
(0.072196607 -0.056772545 0)
(0.077430898 -0.05787133 0)
(0.082844243 -0.05902273 0)
(0.088466525 -0.060208727 0)
(0.094332877 -0.06140253 0)
(0.10047536 -0.062573386 0)