/*--------------------------------*- C++ -*----------------------------------*\
  =========                 |
  \\      /  F ield         | OpenFOAM: The Open Source CFD Toolbox
   \\    /   O peration     | Website:  https://openfoam.org
    \\  /    A nd           | Version:  9
     \\/     M anipulation  |
\*---------------------------------------------------------------------------*/
FoamFile
{
    format      ascii;
    class       surfaceScalarField;
    location    "0.97";
    object      alphaPhi0.phase1;
}
// * * * * * * * * * * * * * * * * * * * * * * * * * * * * * * * * * * * * * //

dimensions      [0 3 -1 0 0 0 0];

internalField   nonuniform List<scalar> 
19800
(
-4.6340532e-88
3.9218161e-88
-8.8962991e-87
1.7202351e-87
-1.9714339e-85
7.4039776e-86
-3.1608097e-85
3.1720692e-85
-2.140056e-85
3.5752506e-85
-5.9538878e-86
1.3484846e-85
-3.9890088e-85
4.7224575e-86
-7.4814671e-85
1.6300933e-85
-2.3676456e-82
6.2987499e-83
-1.2365126e-79
3.0489934e-80
-5.7979664e-77
1.3379665e-77
-2.4687929e-74
5.3765445e-75
-9.6431288e-72
1.9933092e-72
-3.4856061e-69
6.8634569e-70
-1.1746478e-66
2.2112663e-67
-3.7136124e-64
6.6970491e-65
-1.1067377e-61
1.9163925e-62
-3.1179287e-59
5.1875959e-60
-8.3229763e-57
1.3372974e-57
-2.108771e-54
3.2868551e-55
-5.0758648e-52
7.7088878e-53
-1.1609178e-49
1.7339028e-50
-2.5219394e-47
3.7323927e-48
-5.1970488e-45
7.6964178e-46
-1.0134101e-42
1.5134171e-43
-1.8628352e-40
2.8209998e-41
-3.2058594e-38
4.9435675e-39
-5.1085842e-36
8.0627271e-37
-7.4482189e-34
1.2078545e-34
-9.8131454e-32
1.6377535e-32
-1.1532707e-29
1.9801736e-30
-1.193357e-27
2.1043797e-28
-1.073897e-25
1.9400067e-26
-8.3107877e-24
1.5336429e-24
-5.4734278e-22
1.0293859e-22
-3.0386926e-20
5.8186567e-21
-1.4674468e-18
2.7559269e-19
-6.8057044e-17
1.0951692e-17
-1.3241767e-15
3.3763095e-16
-7.7799481e-15
7.8384532e-15
-2.3035082e-13
2.1696258e-13
-5.4701592e-12
5.2499947e-12
-9.9400368e-11
8.9519072e-11
-4.2390043e-09
2.0684103e-09
-6.7675331e-08
3.2879858e-10
-6.2375288e-08
-1.2467873e-08
-6.0286724e-08
-1.5917932e-08
-3.3398849e-08
-2.1001728e-10
-1.4061012e-08
-3.208392e-10
-8.2141184e-09
-2.9802508e-10
-7.8626975e-09
-1.446302e-09
-5.4321992e-10
-6.4727537e-09
7.1034004e-09
-6.0655019e-09
1.269376e-08
-3.0072304e-09
1.7490192e-09
-7.7982719e-10
6.5701672e-09
-8.7082641e-10
1.5451142e-08
-1.2896657e-09
9.8648022e-08
-5.3892555e-08
1.1131208e-07
-9.3795483e-08
3.5107724e-08
-2.4726094e-08
1.4161865e-08
8.5133282e-09
1.0801508e-08
3.4328685e-09
8.8522163e-09
1.7949189e-09
8.4396478e-09
2.9519764e-09
2.3643981e-09
9.4273259e-10
1.6221525e-10
4.2009636e-10
4.5962655e-12
1.5609862e-10
3.2746327e-13
4.0965723e-12
1.6906313e-14
3.107247e-13
2.4186911e-15
1.244109e-14
2.5018714e-16
6.4338256e-16
1.3316083e-17
4.9074351e-17
6.2878192e-19
2.9185644e-18
2.8305406e-20
1.5043691e-19
1.1532328e-21
6.8617508e-21
4.1774713e-23
2.7584139e-22
1.3444133e-24
9.7909591e-24
3.8355726e-26
3.0788907e-25
9.6581199e-28
8.5903703e-27
2.1346588e-29
2.1238687e-28
4.1149279e-31
4.6340798e-30
6.8674969e-33
8.8717985e-32
9.8394276e-35
1.4798036e-33
1.198519e-36
2.1324468e-35
1.2270926e-38
2.6291868e-37
1.0418318e-40
2.7428907e-39
7.2165427e-43
2.3902718e-41
3.9973299e-45
1.7125086e-43
1.7261776e-47
9.902279e-46
5.6165489e-50
4.511427e-48
1.3114432e-52
1.5706509e-50
2.0377754e-55
4.0002288e-53
1.8515508e-58
7.004582e-56
1.100118e-61
7.5943403e-59
1.1497342e-62
4.6648505e-62
-5.5259791e-62
4.4961333e-63
-3.0041743e-61
1.1760181e-61
-1.9394138e-59
2.128003e-60
-3.6229008e-58
2.0751044e-59
3.4546539e-59
-4.6760523e-88
4.8423141e-88
-5.3903748e-86
3.0821925e-86
-1.096491e-84
1.0600942e-84
-2.328016e-84
4.6533171e-84
-2.5630511e-84
6.1112366e-84
-1.7163564e-84
4.7158594e-84
-9.3485141e-85
2.561683e-84
-1.2363603e-84
1.3917277e-84
-1.8378435e-82
6.1906995e-83
-9.3391452e-80
2.8052103e-80
-4.388546e-77
1.2111829e-77
-1.888038e-74
4.448453e-75
-7.4595788e-72
1.4817112e-72
-2.7240211e-69
5.0794131e-70
-9.2558195e-67
1.6461808e-67
-2.9426336e-64
5.0061465e-65
-8.8014552e-62
1.4401897e-62
-2.487628e-59
3.932732e-60
-6.6649083e-57
1.0255438e-57
-1.6976153e-54
2.5651671e-55
-4.1176547e-52
6.1719436e-53
-9.5185833e-50
1.4344666e-50
-2.0985411e-47
3.2284934e-48
-4.409873e-45
7.0479878e-46
-8.8156263e-43
1.4890353e-43
-1.6699703e-40
3.0283426e-41
-2.9795302e-38
5.8908001e-39
-4.9629531e-36
1.0454612e-36
-7.6343544e-34
1.6929425e-34
-1.0711616e-31
2.4985652e-32
-1.3523963e-29
3.3070333e-30
-1.5151037e-27
3.8641224e-28
-1.4856295e-25
3.9288673e-26
-1.2585961e-23
3.4325033e-24
-9.1068446e-22
2.549742e-22
-5.6236442e-20
1.6086569e-20
-3.087315e-18
8.5675844e-19
-1.1523266e-16
4.0483387e-17
-1.913015e-15
1.4181186e-15
-5.645161e-14
4.6345076e-14
-1.6204673e-12
1.392171e-12
-3.9742563e-11
3.5133919e-11
-7.5611077e-10
6.6816852e-10
-5.7388582e-08
1.8299149e-08
-5.8076359e-08
4.7897845e-09
-4.9488957e-08
-1.335269e-08
-3.4490242e-10
-1.7199318e-10
-3.0122452e-10
-2.6009358e-10
-2.3444026e-10
-3.9403682e-10
-1.9584784e-10
-3.4375168e-10
-1.2404728e-09
-4.0822317e-10
8.2545783e-10
-9.006391e-10
2.8590849e-09
-5.3460443e-10
9.5152044e-10
-6.9787003e-10
1.1456052e-09
-2.5479131e-09
2.4584282e-09
-3.7576492e-09
3.3650228e-08
-3.2667563e-08
4.8150708e-07
-1.7257524e-07
5.510901e-07
-1.4100681e-07
4.5583502e-07
-2.2778741e-08
6.6334862e-08
3.5964262e-08
1.9864456e-08
4.6656687e-08
1.6645371e-08
8.9416647e-09
3.585401e-08
1.1566822e-08
2.3189336e-08
8.2670144e-09
1.5013687e-08
5.6517324e-09
9.97753e-11
1.8901403e-09
7.4535056e-12
8.782358e-11
4.8801407e-13
6.6970622e-12
3.0800478e-14
4.2717079e-13
2.9133108e-15
2.4333638e-14
2.2225265e-16
1.5480906e-15
9.2784626e-18
8.7424342e-17
3.4735656e-19
3.9267304e-18
1.257723e-20
1.5720009e-19
4.1544133e-22
5.6817133e-21
1.2312326e-23
1.842601e-22
3.2557327e-25
5.3495525e-24
7.6280843e-27
1.3861735e-25
1.5713053e-28
3.188566e-27
2.8224119e-30
6.4640032e-29
4.3815771e-32
1.1450437e-30
5.8212066e-34
1.7552938e-32
6.5445423e-36
2.3028762e-34
6.1445725e-38
2.5517712e-36
4.7422337e-40
2.3493175e-38
2.9507854e-42
1.7582892e-40
1.4424475e-44
1.0361413e-42
5.3575284e-47
5.3783202e-45
1.4488611e-49
2.164801e-47
2.6674336e-52
6.4766315e-50
3.0038988e-55
1.3574549e-52
1.6751403e-58
1.8292574e-55
7.005395e-62
1.3432013e-58
-6.9151903e-62
4.7947667e-61
-1.299098e-59
1.9466334e-59
-1.1436521e-57
5.3114285e-58
-2.4771288e-56
6.870445e-57
-3.6535073e-56
2.0285822e-56
9.7267762e-57
-2.1306138e-85
6.2882698e-85
-5.7900972e-83
4.8825238e-83
-7.8183685e-82
1.1719747e-81
-1.3897314e-81
3.9654117e-81
-1.5075554e-81
4.6629563e-81
-1.0007863e-81
3.3630241e-81
-4.3801983e-82
1.731301e-81
-5.1049032e-82
8.7456823e-82
-6.1183656e-81
4.5290083e-81
-9.9585808e-79
6.866186e-79
-1.4392235e-76
8.706642e-77
-2.1372509e-74
9.3986896e-75
-3.9583326e-72
1.4420827e-72
-9.9991083e-70
2.9499384e-70
-3.0051593e-67
7.6841644e-68
-9.2379293e-65
2.2075376e-65
-2.7432988e-62
6.2445815e-63
-7.74616e-60
9.1066662e-61
-2.076246e-57
1.8453058e-58
-5.2941758e-55
4.2752617e-56
-1.2876658e-52
9.9910471e-54
-2.9942082e-50
2.3255517e-51
-6.6654987e-48
5.3080853e-49
-1.4209855e-45
1.1859576e-46
-2.8994164e-43
2.5936389e-44
-5.6479488e-41
5.5259943e-42
-1.045449e-38
1.1405405e-39
-1.8255539e-36
2.255722e-37
-2.9784042e-34
4.2160975e-35
-4.4857716e-32
7.3233289e-33
-6.1499294e-30
1.1601683e-30
-7.5590539e-28
1.6444677e-28
-8.2039598e-26
2.048347e-26
-7.7497327e-24
2.2088217e-24
-6.2826813e-22
2.0400843e-22
-4.4109773e-20
1.5879138e-20
-3.075559e-18
1.0480935e-18
-1.0449394e-16
5.0926773e-17
-2.4390644e-16
1.7978744e-15
-3.4304083e-14
6.4048049e-14
-1.2178977e-12
2.0725928e-12
-3.6479208e-11
5.7853236e-11
-7.0039859e-09
1.5411342e-09
-4.3162027e-08
2.1510301e-08
-3.8601846e-08
8.8937274e-09
-3.4166006e-10
-7.6821417e-09
-3.2642939e-10
-1.9260691e-10
-2.818517e-10
-3.1153326e-10
-2.0190066e-10
-4.8191234e-10
-1.1122032e-10
-4.4102182e-10
-2.8584131e-12
-5.2220858e-10
1.129288e-10
-1.0530576e-09
2.1786074e-10
-7.4362355e-10
5.5046925e-10
-4.7033141e-10
5.8371969e-09
-1.4730526e-08
1.8665909e-08
-1.6772558e-08
2.8300494e-07
-2.0655281e-08
5.5989638e-07
-1.0581883e-07
5.9523338e-07
-1.3322316e-07
6.6834402e-07
-5.406157e-08
6.6078265e-07
8.6646181e-08
2.3723462e-07
1.5037287e-07
4.88128e-08
1.1281833e-07
1.9900933e-08
2.003837e-08
7.8943583e-09
1.8308832e-08
7.9854525e-09
6.3941896e-09
1.5436035e-10
3.448586e-09
1.0024799e-11
1.7762936e-10
5.7322729e-13
1.2525739e-11
3.6753859e-14
7.4545534e-13
5.369502e-15
4.0924641e-14
4.9797283e-16
2.7498748e-15
2.248724e-17
1.7510682e-16
8.3024941e-19
8.1552776e-18
2.9155096e-20
3.2296153e-19
9.3274456e-22
1.1352881e-20
2.659444e-23
3.5304273e-22
6.709652e-25
9.660227e-24
1.486224e-26
2.3917781e-25
2.8677882e-28
5.3144062e-27
4.7862857e-30
1.0409241e-28
6.8475936e-32
1.7747043e-30
8.3141455e-34
2.6095233e-32
8.4640256e-36
3.2772115e-34
7.1189622e-38
3.4750882e-36
4.8572908e-40
3.0689732e-38
2.6275792e-42
2.2196307e-40
1.0959467e-44
1.2880667e-42
3.3902797e-47
5.1635469e-45
7.2981243e-50
1.5392678e-47
9.9638406e-53
3.1948708e-50
7.1719579e-56
4.1486432e-53
1.0245833e-56
4.6904948e-56
-1.1721e-59
1.1888655e-58
-2.1202683e-58
6.5201964e-58
-1.9906701e-56
2.3959732e-56
-1.1807364e-54
5.8181782e-55
-2.0541104e-53
6.550927e-54
-3.6807202e-53
1.8680258e-53
9.1111644e-54
-1.7845556e-82
3.9254671e-82
-3.8000554e-80
4.1935703e-80
-3.7199018e-79
7.5549313e-79
-5.9173785e-79
2.0979742e-78
-6.3856431e-79
2.3192489e-78
-4.1481377e-79
1.6401011e-78
-1.7674363e-79
8.2294542e-79
-2.0508825e-79
4.0616174e-79
-2.1082652e-78
1.7654274e-78
-3.6411822e-76
2.8217024e-76
-5.36902e-74
3.8493134e-74
-6.9382533e-72
4.6330496e-72
-7.9575786e-70
4.9761151e-70
-8.1901854e-68
4.822105e-68
-7.5919447e-66
4.2224337e-66
-6.3524103e-64
3.2971248e-64
-4.9371937e-62
2.0915976e-62
-4.0561349e-60
1.5033222e-60
-4.4195315e-58
1.3511601e-58
-7.3649282e-56
1.7971006e-56
-1.572425e-53
3.6478061e-54
-3.5473291e-51
8.1332236e-52
-7.9076581e-49
1.3174834e-49
-1.7073798e-46
1.2374128e-47
-3.5559216e-44
2.0218664e-45
-7.1384355e-42
3.7361935e-43
-1.3782679e-39
7.6668931e-41
-2.5468827e-37
1.6328095e-38
-4.468819e-35
3.4336795e-36
-7.361509e-33
6.8793528e-34
-1.1218838e-30
1.281474e-31
-1.5545604e-28
2.16875e-29
-1.9211629e-26
3.2542827e-27
-2.0743802e-24
4.2228573e-25
-1.9203735e-22
4.6280414e-23
-1.5140943e-20
4.205138e-21
-1.0340125e-18
3.1067464e-19
-5.0571505e-17
1.8644135e-17
-8.1434564e-16
8.0781084e-16
0
2.6938316e-14
0
9.8930449e-13
0
3.2274588e-11
-3.9079125e-09
9.4122549e-10
-2.9715215e-08
1.1915169e-08
-2.3496305e-08
1.0132738e-08
-4.482029e-10
-9.8606497e-10
-4.2381555e-10
-2.2161274e-10
-2.837662e-10
-3.771359e-10
-1.2497811e-10
-5.4102689e-10
-4.8795722e-11
-4.429243e-10
1.1434151e-10
-7.2173787e-10
3.2590604e-10
-1.3686399e-09
4.9198354e-10
-1.0300462e-09
6.778624e-10
-7.9151868e-10
6.6152184e-08
-1.9699469e-08
1.1122643e-07
-7.5879096e-08
1.648764e-07
-1.3583057e-07
1.4139501e-07
-1.4758073e-07
4.8624281e-07
-5.4467145e-08
6.2791855e-07
-2.821805e-08
7.2380473e-07
2.5008707e-08
7.3409209e-07
1.7989701e-07
2.7599324e-07
2.2916703e-07
6.1445375e-10
1.5136335e-07
1.4569511e-11
3.2924034e-08
3.9320236e-09
1.1301584e-08
1.3429594e-10
5.1920018e-09
5.4793751e-12
2.8869638e-10
2.8243297e-13
1.5923366e-11
1.9872501e-14
8.8906051e-13
5.521593e-15
4.4897595e-14
6.2462365e-16
3.2039749e-15
2.7018898e-17
2.3318366e-16
9.4015931e-19
1.1107084e-17
3.13938e-20
4.2866458e-19
9.54304e-22
1.4564101e-20
2.5660143e-23
4.3552608e-22
6.0548869e-25
1.1380566e-23
1.2466467e-26
2.667171e-25
2.2244142e-28
5.5723582e-27
3.414298e-30
1.0160749e-28
4.4712004e-32
1.5718308e-30
4.9435609e-34
1.963276e-32
4.5414917e-36
2.104659e-34
3.4033671e-38
1.8841975e-36
2.0335193e-40
1.3776128e-38
9.3992619e-43
8.017143e-41
3.2169459e-45
3.5883083e-43
7.6495189e-48
1.1594651e-45
1.1511816e-50
2.5504806e-48
9.0033551e-54
3.3636852e-51
4.8343938e-55
2.0562838e-54
-3.4883638e-58
1.3204066e-56
-3.1603378e-57
1.2270029e-56
-3.1436927e-55
6.0585306e-55
-2.1504758e-53
2.0314021e-53
-9.5848985e-52
4.4067802e-52
-1.3556226e-50
4.2690337e-51
-2.5858276e-50
1.0779602e-50
3.6328442e-51
-7.8520078e-80
1.7364993e-79
-1.5453521e-77
2.0939377e-77
-1.3004586e-76
3.2988539e-76
-1.9354157e-76
8.2273599e-76
-2.0917575e-76
8.7452443e-76
-1.346239e-76
6.1311415e-76
-5.6196197e-77
3.0283248e-76
-6.5034186e-77
1.4650847e-76
-5.7269343e-76
5.3715243e-76
-1.0474826e-73
9.0807155e-74
-1.6148488e-71
1.2933904e-71
-2.1603864e-69
1.6075631e-69
-2.5531557e-67
1.774978e-67
-2.696327e-65
1.7601868e-65
-2.5712639e-63
1.5834914e-63
-2.229659e-61
1.3021839e-61
-1.7711802e-59
9.864413e-60
-1.2953948e-57
6.9200919e-58
-8.7636249e-56
4.517999e-56
-5.5323661e-54
2.7611855e-54
-3.2330471e-52
1.5719723e-52
-1.6626506e-50
7.9338499e-51
-7.5283669e-49
3.2203736e-49
-4.0445945e-47
1.658716e-47
-3.6167398e-45
1.10383e-45
-4.2537723e-43
1.4562098e-43
-6.4259684e-41
2.3733283e-41
-1.1650944e-38
4.6719082e-39
-2.1803497e-36
2.9128802e-37
-3.9333485e-34
2.0570646e-35
-6.7102612e-32
3.838257e-33
-1.0650524e-29
7.848154e-31
-1.5372369e-27
1.4699048e-28
-1.9652436e-25
2.4128767e-26
-2.1693819e-23
3.3692945e-24
-2.0239383e-21
3.8988022e-22
-1.6095799e-19
3.6556677e-20
-1.0272057e-17
2.7618632e-18
-3.1578806e-16
1.6096367e-16
0
6.1723067e-15
0
2.5675587e-13
0
1.0266094e-11
-1.2378856e-09
3.5382434e-10
-1.2581126e-08
1.1817802e-09
-8.2206013e-09
2.7870384e-10
-6.3883628e-10
-6.7668146e-10
-4.7495564e-10
-3.8611696e-10
-1.338013e-10
-3.3696961e-10
-3.4252278e-11
-4.7650978e-10
-6.0704625e-12
-6.2953104e-10
4.7366168e-10
-1.6495216e-09
1.2864478e-09
-2.7892361e-09
1.2133101e-09
-1.2448285e-09
2.1915163e-09
-1.8952037e-09
1.0343524e-07
-2.2621228e-09
1.8493516e-07
-1.1536592e-07
1.8525591e-07
-1.2840574e-07
2.1211551e-08
-1.7535422e-07
3.4355131e-08
-8.3222146e-08
2.3432955e-08
-1.2604664e-08
6.494896e-08
6.393515e-11
4.6384364e-07
8.0597842e-08
5.9800389e-07
2.6971341e-07
1.5028689e-07
3.6668528e-07
0
1.273407e-07
0
2.8187453e-08
1.7129464e-09
1.1837387e-08
6.1793211e-11
1.6933419e-09
3.3728396e-12
7.2397599e-11
1.6802266e-13
3.9430175e-12
7.8153188e-15
1.9510281e-13
8.1299486e-16
9.136171e-15
6.3567463e-17
5.7243043e-16
2.0398944e-18
2.9177506e-17
5.5353735e-20
1.0099868e-18
1.491732e-21
3.0414607e-20
3.606426e-23
8.0732318e-22
7.5769286e-25
1.9138936e-23
1.383146e-26
4.1013537e-25
2.1836766e-28
7.6801349e-27
2.9513257e-30
1.2497982e-28
3.3761569e-32
1.7170546e-30
3.2225847e-34
1.8611347e-32
2.5177858e-36
1.7043537e-34
1.5698017e-38
1.2790768e-36
7.5601665e-41
7.6251942e-39
2.6890439e-43
3.4745787e-41
6.6010577e-46
1.1464054e-43
9.9780714e-49
2.5215395e-46
7.3513419e-52
3.1771951e-49
1.2507183e-55
1.6290689e-52
-6.1501043e-57
5.5759842e-55
-3.7465152e-56
1.3869504e-55
-4.2713722e-54
9.7238619e-54
-3.0979348e-52
4.2485799e-52
-1.7538226e-50
1.3030123e-50
-6.244523e-49
2.5016747e-49
-7.2916488e-48
2.0412884e-48
-1.4005633e-47
4.094172e-48
-3.0491886e-49
-2.3358915e-77
5.8365745e-77
-4.5781034e-75
7.3842446e-75
-3.5969007e-74
1.088091e-73
-5.1445994e-74
2.5578148e-73
-5.5939865e-74
2.648925e-73
-3.5928988e-74
1.851681e-73
-1.4652081e-74
9.056004e-74
-1.6925086e-74
4.2836314e-74
-1.2297292e-73
1.2675612e-73
-2.4401472e-71
2.3299714e-71
-3.988793e-69
3.5203243e-69
-5.5784356e-67
4.5689077e-67
-6.8219893e-65
5.2090102e-65
-7.4074938e-63
5.2976468e-63
-7.223703e-61
4.8597514e-61
-6.3806953e-59
4.0571451e-59
-5.1333096e-57
3.1020331e-57
-3.7855065e-55
2.1866153e-55
-2.5736304e-53
1.4302466e-53
-1.6235097e-51
8.7244213e-52
-9.4981288e-50
4.9901837e-50
-4.9719233e-48
2.6673885e-48
-2.2287449e-46
1.3221994e-46
-9.6628137e-45
6.3492952e-45
-6.0148452e-43
3.4956986e-43
-5.4463602e-41
2.5161043e-41
-2.8520292e-39
1.5715264e-39
-4.6599993e-38
4.4811e-38
-4.1224442e-37
5.0861174e-37
-9.1150723e-36
8.1898851e-36
-1.2048402e-33
1.0279383e-33
-2.174758e-31
5.6908189e-32
-3.768045e-29
3.4292454e-30
-5.9473384e-27
5.408864e-28
-8.3059182e-25
9.6317129e-26
-9.9214542e-23
1.4956336e-23
-9.9516119e-21
1.9749982e-21
-8.2097421e-19
2.1001397e-19
-3.9259717e-17
1.6634751e-17
-1.5163429e-16
8.9116313e-16
0
3.9696033e-14
0
1.8596762e-12
-4.0468186e-10
1.1978184e-10
-1.8513936e-09
0
-3.1976977e-09
0
-2.0623838e-09
-1.9125944e-13
-1.7037648e-10
-9.1369207e-10
-2.018727e-10
-3.5198076e-10
-8.3106719e-11
-6.615064e-10
-5.6609583e-11
-1.3018664e-09
1.7255682e-09
-6.30419e-09
4.5556713e-09
-1.1487941e-08
1.528754e-09
-3.3166474e-10
2.1058273e-09
-2.5064797e-09
6.1146954e-09
-7.5851421e-09
1.507957e-07
-9.1323457e-08
2.046955e-07
-1.9804706e-07
2.2153854e-07
-1.9071819e-07
4.6370501e-08
-1.2123463e-07
1.5501915e-08
-6.4301327e-09
1.481768e-08
-2.0979576e-10
9.1921054e-08
5.1468558e-09
7.7911462e-07
1.5490741e-07
5.3114208e-07
6.784638e-07
1.595022e-08
5.6147539e-07
0
4.8914275e-08
2.1128027e-09
1.2915678e-08
2.442365e-11
1.9563154e-09
1.3847191e-12
8.8215691e-11
6.4974453e-14
4.7635042e-12
1.1411035e-15
2.3504829e-13
1.0128269e-15
1.1542343e-14
8.7359616e-17
7.4838257e-16
2.2197016e-18
3.4942343e-17
5.7413977e-20
1.1716323e-18
1.4401091e-21
3.450864e-20
3.1926423e-23
8.9673538e-22
6.1747026e-25
1.9878349e-23
1.0310969e-26
3.7409215e-25
1.471721e-28
6.0993401e-27
1.7760126e-30
8.5200785e-29
1.7808802e-32
1.0003801e-30
1.4495835e-34
9.649914e-33
9.345774e-37
7.5128318e-35
4.6181165e-39
4.595915e-37
1.6643168e-41
2.1263713e-39
4.0410237e-44
7.004698e-42
5.744246e-47
1.4907308e-44
3.4535749e-50
1.7082438e-47
9.9498154e-55
7.5507381e-51
-8.2219532e-56
1.7965895e-53
-7.828017e-54
1.0085875e-54
-4.5701226e-53
1.0813982e-52
-3.7729749e-51
6.0296022e-51
-2.3178642e-49
2.3802e-49
-1.1371837e-47
6.6499863e-48
-3.3392055e-46
1.1084035e-46
-3.1910202e-45
7.321231e-46
-6.3608576e-45
8.8982987e-46
-1.4642386e-45
-5.2060364e-75
1.7423924e-74
-1.0705307e-72
2.0264738e-72
-8.2134737e-72
2.8908173e-71
-1.1521833e-71
6.5775377e-71
-1.262522e-71
6.6987518e-71
-8.1663322e-72
4.6879727e-71
-3.2026867e-72
2.280507e-71
-3.6941436e-72
1.0394261e-71
-2.0201347e-71
2.2261266e-71
-4.579215e-69
4.7261882e-69
-8.1491608e-67
7.8173102e-67
-1.2081798e-64
1.0764565e-64
-1.5433848e-62
1.2807575e-62
-1.7338158e-60
1.3446376e-60
-1.7358832e-58
1.2633199e-58
-1.5645348e-56
1.0728064e-56
-1.2793142e-54
8.301895e-55
-9.5352946e-53
5.888751e-53
-6.5181902e-51
3.8519278e-51
-4.1081564e-49
2.3350158e-49
-2.3827937e-47
1.3182968e-47
-1.2397395e-45
6.9143004e-46
-5.6439909e-44
3.3638152e-44
-2.4185769e-42
1.5700171e-42
-1.2152709e-40
7.8273548e-41
-7.6395009e-39
4.5656212e-39
-4.0214757e-37
2.5956051e-37
-1.1498393e-35
9.8737426e-36
-1.5221132e-34
2.0556732e-34
-9.4644931e-34
2.3653345e-33
-3.912258e-33
1.7187844e-32
-2.2791945e-32
9.978119e-32
-5.6760987e-31
1.9280031e-30
-5.7357124e-29
2.0472802e-28
-7.4165604e-27
3.2207821e-26
-1.0535219e-24
4.7473558e-24
-1.6245717e-22
2.6495605e-22
-2.0486446e-20
1.2836489e-20
-1.6871679e-18
1.1933063e-18
-5.949151e-17
9.8614422e-17
0
4.9102617e-15
0
2.7585688e-13
-1.1514218e-11
5.5105252e-12
-8.2620842e-11
8.052722e-12
-6.3494454e-10
0
-1.5619463e-09
2.4839595e-11
-2.4161614e-10
-8.0685533e-10
-3.477671e-10
-4.3340772e-10
-5.7044819e-10
-9.3932545e-10
-9.4910683e-10
-2.175581e-08
4.0205717e-09
-6.0975748e-08
2.3834514e-08
-3.7239301e-07
3.185979e-09
0
6.291524e-09
-6.9123365e-09
2.1414992e-08
-2.5317353e-08
1.9485458e-07
-1.6518411e-07
2.0860016e-07
-2.4239783e-07
1.6975652e-07
-1.6761499e-07
2.1430361e-08
-4.2425103e-08
8.6050231e-09
-2.6115418e-09
8.4503088e-09
-1.3091021e-10
1.2246779e-08
1.4260806e-09
5.2139093e-07
9.6235237e-08
5.1702347e-07
7.0601456e-07
2.4062836e-07
6.1975222e-07
0
2.0310865e-07
0
8.9382008e-09
0
6.7634757e-10
0
5.7756408e-11
0
3.3094211e-12
6.0896297e-15
1.6933622e-13
1.0060407e-15
1.099839e-14
4.9920713e-17
6.6369253e-16
1.4663345e-18
2.521726e-17
3.8091687e-20
8.0807701e-19
8.9148881e-22
2.1944354e-20
1.8075269e-23
5.0870678e-22
3.1347293e-25
9.999007e-24
4.6333888e-27
1.6723184e-25
5.7749975e-29
2.3752518e-27
5.9682583e-31
2.8300128e-29
5.0072253e-33
2.7810847e-31
3.3095089e-35
2.2076554e-33
1.6563575e-37
1.3681168e-35
5.9289781e-40
6.3331302e-38
1.3799928e-42
2.0464333e-40
1.7325278e-45
4.1185774e-43
6.7562518e-49
4.1114657e-46
-7.6502245e-53
1.5440383e-49
-1.0147519e-54
1.8152517e-51
-7.2506245e-53
8.0519344e-54
-3.846965e-52
9.066483e-52
-3.7154342e-50
6.2485923e-50
-2.5512008e-48
3.0732945e-48
-1.3977998e-46
1.1012511e-46
-6.0430678e-45
2.7664904e-45
-1.4900271e-43
3.8928322e-44
-1.1888629e-42
1.907639e-43
-2.4474135e-42
-4.4766315e-44
-1.114551e-42
-1.0234339e-72
9.3634463e-72
-2.0610801e-70
4.5832921e-70
-1.5942938e-69
6.4296889e-69
-2.2255081e-69
1.4409595e-68
-2.4651072e-69
1.4531742e-68
-1.6383403e-69
1.0220311e-68
-6.3950288e-70
4.9998751e-69
-5.6975938e-70
2.0473538e-69
-2.1783303e-69
2.3334592e-69
-6.5267755e-67
7.045387e-67
-1.3378259e-64
1.3715525e-64
-2.160079e-62
2.0682809e-62
-2.9248974e-60
2.61076e-60
-3.4304365e-58
2.8591017e-58
-3.5519019e-56
2.7709949e-56
-3.2867154e-54
2.4081022e-54
-2.7402096e-52
1.892065e-52
-2.0729054e-50
1.3546436e-50
-1.4301494e-48
8.8786187e-49
-9.040589e-47
5.3560629e-47
-5.2138207e-45
2.9819169e-45
-2.6907933e-43
1.5300564e-43
-1.235196e-41
7.2584865e-42
-5.3494832e-40
3.2833735e-40
-2.3854139e-38
1.518602e-38
-1.0500026e-36
7.3667012e-37
-4.2370986e-35
3.4561202e-35
-1.4865383e-33
1.4186599e-33
-2.9590339e-32
4.3841117e-32
-2.0152118e-31
7.3394947e-31
-3.886759e-31
5.9219641e-30
4.836599e-31
2.9234625e-29
1.0097327e-29
1.4450694e-28
2.2487802e-28
1.8908896e-27
3.2370364e-26
2.311897e-25
2.062453e-24
1.237633e-23
5.5274919e-23
2.457769e-22
1.5412575e-21
7.5355993e-21
9.3452601e-20
3.2194399e-19
7.6567619e-18
1.1742749e-17
1.2927489e-15
7.4668598e-16
1.1113218e-13
5.6734783e-14
7.2017703e-13
1.0564657e-12
-8.8329439e-13
5.7721682e-12
-2.8194708e-11
7.4211681e-11
-2.8744948e-10
8.6901223e-10
-2.8470075e-10
-8.9094585e-11
-3.6299799e-10
-6.0837156e-10
-2.0470644e-10
-1.5094631e-09
-6.2197546e-09
-6.6677461e-08
-1.2056758e-08
-8.3516268e-07
5.6427327e-08
-1.0891629e-06
5.7268607e-09
-6.213883e-07
1.0928233e-08
-2.0965359e-08
7.0423872e-08
-7.6460672e-08
1.6552316e-07
-3.1334318e-07
1.7218226e-07
-2.7574193e-07
4.0232885e-08
-1.0434912e-07
4.2539889e-09
-7.7197856e-09
3.6733839e-09
-2.1131348e-09
3.5120078e-09
1.7179053e-11
3.5690823e-09
1.3555469e-09
4.4013455e-07
1.0551761e-07
4.9392877e-07
7.3809655e-07
4.0429554e-07
7.1025092e-07
4.0132734e-09
5.0762172e-07
6.4907514e-11
1.2296109e-08
0
6.5443685e-10
0
3.6489783e-11
1.5118552e-14
1.7125462e-12
6.0012947e-15
8.8785591e-14
5.483209e-16
5.8488861e-15
2.1594716e-17
2.8331069e-16
5.8898698e-19
9.8135822e-18
1.4409645e-20
2.8304025e-19
3.066827e-22
6.8954958e-21
5.5610637e-24
1.4195597e-22
8.5310344e-26
2.4751307e-24
1.0971422e-27
3.6385773e-26
1.1640643e-29
4.4598028e-28
9.9652783e-32
4.4868268e-30
6.6741787e-34
3.619908e-32
3.3490245e-36
2.2674572e-34
1.1739407e-38
1.0526353e-36
2.5433313e-41
3.3530006e-39
2.568207e-44
6.4095172e-42
1.3818636e-48
6.3292573e-45
-6.6114281e-51
1.9281915e-48
-1.8720387e-53
7.8474723e-50
-1.1083451e-51
1.0277268e-52
-2.6862217e-51
6.2423631e-51
-2.960094e-49
5.0749729e-49
-2.3333974e-47
3.0085157e-47
-1.4062455e-45
1.3198043e-45
-7.0083641e-44
4.2810805e-44
-2.6835474e-42
9.4774514e-43
-5.4625983e-41
1.0744946e-41
-4.0742744e-40
2.9458546e-41
-8.2280998e-40
-1.5326952e-40
-5.7018602e-40
-3.1968148e-70
1.2784303e-68
-3.3621664e-68
9.2555846e-68
-2.6762397e-67
1.230914e-66
-3.7987598e-67
2.7514419e-66
-4.240449e-67
2.7597252e-66
-2.9007097e-67
1.9530685e-66
-1.3358511e-67
9.6514852e-67
-3.5938593e-68
3.5756593e-67
-1.2344853e-67
1.2016133e-67
-6.2325156e-65
6.490168e-65
-1.662595e-62
1.7616114e-62
-3.0669518e-60
3.0974658e-60
-4.5026772e-58
4.2621908e-58
-5.5819905e-56
4.9373986e-56
-6.0207629e-54
4.9791669e-54
-5.7514066e-52
4.4525523e-52
-4.9178543e-50
3.5724596e-50
-3.7876585e-48
2.5883467e-48
-2.6476651e-46
1.7050931e-46
-1.6851545e-44
1.0249184e-44
-9.7231853e-43
5.632218e-43
-5.0054852e-41
2.8234223e-41
-2.303242e-39
1.294602e-39
-9.9428564e-38
5.6003534e-38
-4.0870824e-36
2.3820803e-36
-1.4187415e-34
9.9481753e-35
-4.3991765e-33
3.974488e-33
-1.6307664e-31
1.6618856e-31
-3.2567909e-30
7.0098582e-30
6.3808736e-30
1.5939441e-28
2.7309608e-28
1.3884303e-27
1.4976508e-27
5.7933055e-27
5.6080277e-27
1.8582377e-26
3.8872156e-26
1.058134e-25
7.3227664e-24
1.8287229e-23
4.6247256e-22
1.2669797e-21
5.1247002e-21
1.6716456e-20
2.1734372e-20
7.3217766e-20
1.622394e-19
3.0632398e-19
4.0042234e-18
7.8174354e-18
2.4885467e-16
1.2912669e-16
1.7072152e-14
7.502149e-15
1.8758356e-13
8.6025241e-13
9.6893292e-13
3.8055549e-12
-2.8192317e-10
3.5426786e-10
-1.784524e-10
4.3987556e-09
-6.9618562e-10
-1.4286654e-11
-2.0934666e-10
-1.5140605e-09
-1.9441084e-09
-2.9370593e-09
-9.2169265e-08
-4.5176368e-08
-6.4239032e-08
-8.0112721e-07
6.1093022e-08
-1.1610281e-06
1.1769133e-07
-1.1305636e-06
1.5165529e-08
-1.8429575e-07
1.0245047e-07
-1.2848224e-07
1.4521463e-07
-3.1977596e-07
7.7583432e-08
-2.2774838e-07
7.3549019e-09
-2.0540912e-08
2.8365082e-09
-3.3162099e-09
2.1365576e-09
-1.4262203e-09
1.9079348e-09
2.3285329e-10
1.6035105e-09
1.6437201e-09
2.5813851e-07
2.977146e-07
2.8802847e-07
7.0448928e-07
2.6940111e-07
7.3138546e-07
5.2916412e-08
5.6309392e-07
4.1448077e-10
4.336778e-08
2.243341e-12
1.0056288e-09
0
3.7568699e-11
1.237542e-14
1.2545391e-12
2.3811936e-15
4.6826323e-14
1.6871303e-16
2.1986463e-15
5.500158e-18
8.2544978e-17
1.3827604e-19
2.4219525e-18
3.0707256e-21
6.016657e-20
5.8299414e-23
1.2739036e-21
9.3245737e-25
2.2907638e-23
1.2442338e-26
3.4798702e-25
1.3627062e-28
4.415555e-27
1.1963216e-30
4.6005005e-29
8.1412818e-33
3.8406443e-31
4.081393e-35
2.4814472e-33
1.3804105e-37
1.1781838e-35
2.6478359e-40
3.77464e-38
1.5580646e-43
7.3177698e-41
-1.4735607e-46
7.5689211e-44
-2.2134096e-49
5.40339e-47
-4.9048642e-52
1.1894903e-48
-7.7801398e-51
2.3130555e-51
-1.6706972e-50
3.8225168e-50
-1.9926778e-48
3.4706596e-48
-1.7715742e-46
2.3685589e-46
-1.1998884e-44
1.2309109e-44
-6.5062868e-43
4.8372642e-43
-2.9637937e-41
1.4065982e-41
-1.0051477e-39
2.6674841e-40
-1.7312277e-38
2.2199903e-39
-1.2297028e-37
-1.9956631e-39
-2.4733179e-37
-8.7489052e-38
-2.330444e-37
-1.9501313e-67
1.8072572e-65
-4.8264613e-66
2.2266495e-65
-3.972845e-65
2.078943e-64
-5.7592634e-65
4.655078e-64
-6.5202657e-65
4.6611097e-64
-4.5208652e-65
3.3235556e-64
-2.2493857e-65
1.6475903e-64
-2.1289863e-66
6.0750993e-65
-4.3587009e-66
7.7550026e-66
-2.2029065e-63
2.2261335e-63
-8.0065648e-61
8.6093948e-61
-1.7572823e-58
1.8622578e-58
-2.8842275e-56
2.8788838e-56
-3.8650365e-54
3.6156513e-54
-4.4130887e-52
3.8591774e-52
-4.4049344e-50
3.5987209e-50
-3.9085839e-48
2.9818518e-48
-3.1094678e-46
2.2167695e-46
-2.2288e-44
1.4851874e-44
-1.4465744e-42
9.0110328e-43
-8.5118087e-41
4.95868e-41
-4.5487131e-39
2.4769243e-39
-2.195218e-37
1.1233909e-37
-9.2093164e-36
4.5886343e-36
-3.0981704e-34
1.6860752e-34
-8.4186086e-33
5.8190963e-33
-3.2878572e-31
2.3292204e-31
-2.6269901e-29
1.6974959e-29
4.9520687e-29
1.389899e-27
2.0299272e-26
3.9215965e-26
2.0268802e-25
3.2129743e-25
6.4717715e-25
1.1071388e-24
1.462694e-24
2.5282426e-24
6.2951932e-24
9.283666e-24
1.1040602e-21
1.4394373e-21
4.2902201e-20
6.3859567e-20
3.4557525e-19
6.3725539e-19
1.0825266e-18
2.5436403e-18
2.3180077e-18
6.0035349e-18
6.9133726e-18
1.165745e-17
5.1248993e-17
6.4639361e-17
7.2204799e-15
3.960448e-16
7.9464144e-13
7.1279896e-14
1.5533421e-10
7.5341237e-11
1.3703486e-10
4.9418353e-09
0
3.8432534e-09
-2.7242431e-09
5.1270369e-10
-3.5854475e-09
-2.1394919e-08
0
-5.7314942e-08
0
-2.5539269e-08
-5.1669989e-08
-2.7405815e-08
3.7812929e-08
-1.1920862e-06
1.508211e-07
-1.1893245e-06
1.7049824e-08
-5.8886817e-07
2.3037737e-08
-5.3858362e-07
1.7167882e-08
-1.9900269e-07
7.3420946e-09
-6.5553131e-08
2.0646399e-09
-2.1984309e-08
1.4313399e-09
-2.9032743e-09
1.087826e-09
-1.1103604e-09
8.263602e-10
4.7526481e-10
4.970626e-10
1.9508174e-09
7.9626263e-08
5.5310536e-07
1.0702848e-07
6.7227198e-07
1.1111322e-07
7.2727344e-07
9.4266664e-08
5.8239477e-07
0
4.5247445e-08
0
7.8393731e-10
0
2.3663756e-11
0
6.8510072e-13
6.7481499e-16
1.9466966e-14
3.3969142e-17
6.6916939e-16
9.199917e-19
1.8441001e-17
2.0686057e-20
4.3651875e-19
4.0379098e-22
9.0441428e-21
6.67403e-24
1.6235485e-22
9.20337e-26
2.4985595e-24
1.0400147e-27
3.2484455e-26
9.3716506e-30
3.4975892e-28
6.4683532e-32
3.0333314e-30
3.2047365e-34
2.0388169e-32
1.0065685e-36
1.0030528e-34
1.4232783e-39
3.325837e-37
-7.5207483e-43
7.282062e-40
-5.3286307e-45
9.711893e-43
-8.8925959e-48
1.1691303e-45
-1.1227855e-50
1.4198937e-47
-3.8430268e-50
5.3398675e-50
-9.8492135e-50
2.2023074e-49
-1.2037498e-47
2.1370662e-47
-1.1533173e-45
1.5911448e-45
-8.7052331e-44
9.4173981e-44
-5.1931593e-42
4.3265324e-42
-2.5626063e-40
1.5202402e-40
-1.0662784e-38
3.9044069e-39
-3.1226798e-37
6.0720158e-38
-5.0802054e-36
2.7619556e-37
-3.328339e-35
-3.6363687e-36
-6.6828578e-35
-3.4551701e-35
-7.9549418e-35
-3.6189607e-65
2.0329493e-62
-7.2422891e-64
1.1067618e-62
-5.2592052e-63
3.209432e-62
-7.8211753e-63
7.0570813e-62
-9.0601033e-63
7.0925753e-62
-6.3482614e-63
5.1021569e-62
-3.567096e-63
2.5610818e-62
-1.6953298e-64
1.0508403e-62
-2.6395535e-64
6.7027491e-64
-7.9714329e-62
1.0426008e-61
-4.6003403e-59
4.6300455e-59
-1.693832e-56
1.7336533e-56
-3.7038264e-54
3.8018981e-54
-5.746791e-52
5.641544e-52
-7.1688093e-50
6.6072323e-50
-7.6042524e-48
6.5433535e-48
-7.0462015e-46
5.6461737e-46
-5.7979593e-44
4.3125011e-44
-4.2695899e-42
2.9412381e-42
-2.8264814e-40
1.7937101e-40
-1.6848933e-38
9.7866292e-39
-9.0246805e-37
4.7564746e-37
-4.3139213e-35
2.0395372e-35
-1.7959396e-33
7.6095507e-34
-6.084302e-32
2.4137731e-32
-1.6494026e-30
6.4490529e-31
-5.1031001e-29
1.5850181e-29
-2.0292811e-27
5.2652064e-28
6.1723688e-26
2.6491235e-26
4.264502e-24
1.2810777e-24
4.0880298e-23
1.8156002e-23
1.1847354e-22
8.4694711e-23
2.1088222e-22
1.9368317e-22
4.8911349e-22
4.6191528e-22
4.1810293e-20
3.1340826e-20
1.2187627e-18
1.1035142e-18
8.6484742e-18
9.8687249e-18
2.8983962e-17
4.1933779e-17
6.3398289e-17
1.0697179e-16
1.0693445e-16
2.5879737e-16
1.0195933e-16
2.4508567e-16
3.4711958e-16
3.0458665e-16
6.5425767e-14
6.2601824e-15
5.9065803e-11
1.6336838e-11
1.4328093e-09
5.9905624e-09
1.3571106e-09
3.9849624e-09
8.2930985e-10
2.0877127e-09
1.3587961e-09
-2.2440692e-08
-3.1954943e-10