/*--------------------------------*- C++ -*----------------------------------*\
  =========                 |
  \\      /  F ield         | OpenFOAM: The Open Source CFD Toolbox
   \\    /   O peration     | Website:  https://openfoam.org
    \\  /    A nd           | Version:  9
     \\/     M anipulation  |
\*---------------------------------------------------------------------------*/
FoamFile
{
    format      ascii;
    class       volVectorField;
    location    "0.97";
    object      U;
}
// * * * * * * * * * * * * * * * * * * * * * * * * * * * * * * * * * * * * * //

dimensions      [0 1 -1 0 0 0 0];

internalField   nonuniform List<vector> 
10000
(
(-0.00032920134 0.0059766521 0)
(-0.0029273021 0.0060575475 0)
(-0.0040225081 0.006161408 0)
(-0.0058434828 0.0062802285 0)
(-0.007147497 0.0064168742 0)
(-0.0088314249 0.0065595323 0)
(-0.010314538 0.0067145264 0)
(-0.011834808 0.0068765611 0)
(-0.013337702 0.0070422753 0)
(-0.014818652 0.0072079341 0)
(-0.016279657 0.0073698711 0)
(-0.017714853 0.0075298025 0)
(-0.019113243 0.0076758861 0)
(-0.020484917 0.007800998 0)
(-0.021836624 0.0079063337 0)
(-0.023176143 0.0079914494 0)
(-0.024504746 0.0080500682 0)
(-0.025893397 0.0080952574 0)
(-0.027348585 0.0081705415 0)
(-0.028821372 0.0082725086 0)
(-0.03040334 0.0084065457 0)
(-0.032131062 0.0086329996 0)
(-0.034039415 0.0089486654 0)
(-0.036241409 0.0094004152 0)
(-0.038781548 0.010011053 0)
(-0.04178941 0.010819065 0)
(-0.045500311 0.01187371 0)
(-0.05013059 0.013253636 0)
(-0.055909866 0.015039896 0)
(-0.063122504 0.017324423 0)
(-0.072117997 0.020223436 0)
(-0.083316516 0.023879087 0)
(-0.097215748 0.02846142 0)
(-0.11439046 0.034166354 0)
(-0.1355209 0.041222795 0)
(-0.16144679 0.049927756 0)
(-0.19314796 0.060684092 0)
(-0.23165586 0.073989174 0)
(-0.27858467 0.090572971 0)
(-0.33574248 0.11280192 0)
(-0.40176987 0.14519462 0)
(-0.48085204 0.18080708 0)
(-0.59404175 0.17966452 0)
(-0.72754038 0.096845607 0)
(-0.81065046 -0.044933626 0)
(-0.82326734 -0.16778571 0)
(-0.78423437 -0.27194375 0)
(-0.69385008 -0.34965523 0)
(-0.5662412 -0.37821855 0)
(-0.42068986 -0.38124846 0)
(-0.26563157 -0.38112443 0)
(-0.10196383 -0.36761025 0)
(0.066839957 -0.34711872 0)
(0.23037466 -0.31999559 0)
(0.38352378 -0.2966769 0)
(0.53197553 -0.2687516 0)
(0.67974265 -0.21840283 0)
(0.82872984 -0.20851786 0)
(0.94981906 -0.17793448 0)
(1.0045551 -0.10320187 0)
(0.96477841 0.014474344 0)
(0.84892416 0.070416905 0)
(0.73268685 0.066606538 0)
(0.65128694 0.04232975 0)
(0.60296616 0.0058336586 0)
(0.57064525 -0.0026062091 0)
(0.53516871 0.034137389 0)
(0.49803332 0.086122095 0)
(0.46670973 0.12717664 0)
(0.43772084 0.14891727 0)
(0.40812642 0.15696223 0)
(0.37864615 0.15714661 0)
(0.35007546 0.1521033 0)
(0.32253919 0.14327481 0)
(0.29604144 0.13184419 0)
(0.27060833 0.11890516 0)
(0.24623814 0.10552341 0)
(0.22291737 0.092621026 0)
(0.20064834 0.080796124 0)
(0.1794641 0.070283523 0)
(0.15940622 0.061049291 0)
(0.14050673 0.05296856 0)
(0.12282238 0.045901556 0)
(0.10639048 0.039704112 0)
(0.091221171 0.034250574 0)
(0.07730225 0.02944156 0)
(0.064621584 0.025200102 0)
(0.053162141 0.02144168 0)
(0.042897715 0.018120097 0)
(0.033776053 0.01515728 0)
(0.025732614 0.012518256 0)
(0.018688082 0.010152954 0)
(0.012592998 0.0080961452 0)
(0.0074344438 0.0063346487 0)
(0.0031381216 0.0048236308 0)
(-0.0003312564 0.0035452628 0)
(-0.0028887764 0.0024716857 0)
(-0.0050257094 0.0016031495 0)
(-0.0072475741 0.00088775455 0)
(-0.0070278449 0.00025330983 0)
(-0.00025648411 0.0081297493 0)
(-0.0028044041 0.0082385718 0)
(-0.0038740852 0.0083607303 0)
(-0.0056663409 0.0084860744 0)
(-0.0069543797 0.0086440083 0)
(-0.0086240724 0.0087881997 0)
(-0.010091934 0.0089486325 0)
(-0.011604002 0.009111493 0)
(-0.013103343 0.009275897 0)
(-0.014585559 0.0094413165 0)
(-0.016047022 0.0096016436 0)
(-0.017488753 0.0097637985 0)
(-0.018907055 0.0099183778 0)
(-0.020300865 0.010054763 0)
(-0.021671157 0.010192609 0)
(-0.023032744 0.010312389 0)
(-0.024375795 0.010434049 0)
(-0.025724087 0.010571333 0)
(-0.027100514 0.010766292 0)
(-0.028495283 0.011037328 0)
(-0.029942694 0.011400332 0)
(-0.031491427 0.011916466 0)
(-0.033187346 0.01261643 0)
(-0.035121995 0.013577619 0)
(-0.037347636 0.014849768 0)
(-0.039965544 0.016506217 0)
(-0.043166987 0.018648252 0)
(-0.047136232 0.021419016 0)
(-0.052100958 0.024970251 0)
(-0.058334465 0.029463974 0)
(-0.066165466 0.035082987 0)
(-0.075982216 0.042036442 0)
(-0.08823625 0.050574368 0)
(-0.10344714 0.061000798 0)
(-0.12221736 0.073683428 0)
(-0.1452714 0.089081229 0)
(-0.17345702 0.10777919 0)
(-0.20766614 0.13043359 0)
(-0.24916739 0.15771361 0)
(-0.29912559 0.19176175 0)
(-0.35696915 0.23884471 0)
(-0.42893271 0.29708192 0)
(-0.53233443 0.32180561 0)
(-0.64830608 0.23466175 0)
(-0.71388206 0.028788293 0)
(-0.72273206 -0.16102734 0)
(-0.69905192 -0.32120225 0)
(-0.63383715 -0.45675522 0)
(-0.52290262 -0.52679855 0)
(-0.37705229 -0.55026903 0)
(-0.20855143 -0.55987058 0)
(-0.030453249 -0.55678931 0)
(0.15216433 -0.54472197 0)
(0.32523712 -0.50820577 0)
(0.48965149 -0.48345317 0)
(0.65622876 -0.48309914 0)
(0.85526905 -0.45672622 0)
(1.0736929 -0.41119376 0)
(1.244976 -0.28786954 0)
(1.2994678 -0.065358458 0)
(1.2167461 0.17477263 0)
(1.0773336 0.24861273 0)
(0.93077567 0.21362877 0)
(0.79785873 0.13752265 0)
(0.70532193 0.067653473 0)
(0.63140006 0.05695678 0)
(0.56267114 0.092376664 0)
(0.50782791 0.1331268 0)
(0.46725574 0.1648684 0)
(0.43454026 0.18387309 0)
(0.40389734 0.19151992 0)
(0.37356877 0.19078652 0)
(0.34423404 0.18448026 0)
(0.31631315 0.1745204 0)
(0.28969689 0.16212873 0)
(0.26425495 0.14834791 0)
(0.23990515 0.13420587 0)
(0.21659018 0.1205631 0)
(0.19430224 0.10794538 0)
(0.17309027 0.09653367 0)
(0.15302482 0.086264506 0)
(0.13417318 0.077010812 0)
(0.11659794 0.068643514 0)
(0.10032837 0.061042937 0)
(0.085370261 0.054110579 0)
(0.071707808 0.047769934 0)
(0.059305859 0.041961857 0)
(0.048143985 0.036625954 0)
(0.038176901 0.031719569 0)
(0.029338804 0.027194483 0)
(0.021577067 0.023037908 0)
(0.014871875 0.019251485 0)
(0.0092158706 0.015834261 0)
(0.004493344 0.012776141 0)
(0.00060265906 0.01005534 0)
(-0.0024792502 0.0076681768 0)
(-0.0046884115 0.0056185065 0)
(-0.0065044078 0.0039052286 0)
(-0.0084303798 0.0024420098 0)
(-0.007741218 0.0011118382 0)
(-0.00016731835 0.0092341992 0)
(-0.0026843323 0.0093415131 0)
(-0.0037626511 0.0094505992 0)
(-0.0055351118 0.0095629193 0)
(-0.0068137155 0.009696099 0)
(-0.0084828656 0.0098162568 0)
(-0.0099418916 0.0099455146 0)
(-0.011454087 0.010072541 0)
(-0.012951556 0.010195759 0)
(-0.014435371 0.010314953 0)
(-0.015899107 0.010431205 0)
(-0.01733945 0.010537924 0)
(-0.018765298 0.01064664 0)
(-0.020155382 0.010741997 0)
(-0.021525559 0.010844983 0)
(-0.022883753 0.010942016 0)
(-0.024198435 0.011063282 0)
(-0.025514478 0.011203787 0)
(-0.026834889 0.011405237 0)
(-0.028139275 0.011689614 0)
(-0.029470748 0.012081819 0)
(-0.030852776 0.012638086 0)
(-0.032301543 0.013424711 0)
(-0.033912364 0.014524606 0)
(-0.035732565 0.016032517 0)
(-0.037832798 0.018046212 0)
(-0.040373543 0.020712748 0)
(-0.043513554 0.024199073 0)
(-0.04745562 0.028698576 0)
(-0.052442136 0.034429763 0)
(-0.058764063 0.041641961 0)
(-0.066765581 0.050620291 0)
(-0.076846051 0.06169427 0)
(-0.089461066 0.075250485 0)
(-0.10511793 0.091752233 0)
(-0.12439342 0.11177692 0)
(-0.14795181 0.13606415 0)
(-0.17643446 0.16539805 0)
(-0.21066955 0.20048387 0)
(-0.25138904 0.24419824 0)
(-0.298725 0.30582488 0)
(-0.36113419 0.3852227 0)
(-0.45154302 0.42289291 0)
(-0.54612491 0.31362971 0)
(-0.61272125 0.067646877 0)
(-0.65064363 -0.15519871 0)
(-0.64411783 -0.35459267 0)
(-0.57944888 -0.53485133 0)
(-0.46708352 -0.65031176 0)
(-0.30473726 -0.71101315 0)
(-0.10380309 -0.73643216 0)
(0.10063963 -0.74137273 0)
(0.29476185 -0.72142075 0)
(0.47373514 -0.67100117 0)
(0.63386446 -0.62697529 0)
(0.7687531 -0.6306741 0)
(0.90468242 -0.65363199 0)
(1.0721791 -0.61047618 0)
(1.2430156 -0.43286618 0)
(1.3673357 -0.1115502 0)
(1.4276199 0.22457879 0)
(1.3990182 0.39781388 0)
(1.2699741 0.39779296 0)
(1.0867466 0.29659696 0)
(0.90199911 0.18513185 0)
(0.75454781 0.14247489 0)
(0.64545696 0.16495874 0)
(0.55420178 0.19856152 0)
(0.4821469 0.21545371 0)
(0.43357157 0.22339927 0)
(0.39729903 0.22755697 0)
(0.36398201 0.22571699 0)
(0.33250074 0.21782972 0)
(0.3034274 0.20597451 0)
(0.27642764 0.19180947 0)
(0.25101817 0.17642081 0)
(0.22690046 0.1607739 0)
(0.20391355 0.14566782 0)
(0.1820245 0.1315682 0)
(0.16129179 0.11861021 0)
(0.14179909 0.106725 0)
(0.12361535 0.095810071 0)
(0.10677078 0.085767157 0)
(0.091257732 0.076515553 0)
(0.07705269 0.067987382 0)
(0.064123487 0.06012818 0)
(0.052428621 0.052889276 0)
(0.041932828 0.046235075 0)
(0.032589633 0.040113993 0)
(0.024354528 0.03450998 0)
(0.017189234 0.029401278 0)
(0.011006608 0.024766596 0)
(0.005742348 0.020546944 0)
(0.0013623747 0.016715794 0)
(-0.0021928344 0.013285246 0)
(-0.0049269212 0.010215578 0)
(-0.006799829 0.0075577137 0)
(-0.0083101551 0.0053102024 0)
(-0.0099280987 0.0033542647 0)
(-0.0086733387 0.0015693419 0)
(-8.6024092e-05 0.010950136 0)
(-0.0025868875 0.011091418 0)
(-0.0036575646 0.011211037 0)
(-0.0054229623 0.011336426 0)
(-0.0067043269 0.011463972 0)
(-0.0083690235 0.011590867 0)
(-0.0098270079 0.011713033 0)
(-0.011341248 0.011834613 0)
(-0.012843385 0.01194612 0)
(-0.014327936 0.012048233 0)
(-0.015798165 0.012142602 0)
(-0.017242151 0.012229137 0)
(-0.018666686 0.012301644 0)
(-0.0200613 0.012374241 0)
(-0.021425885 0.012433984 0)
(-0.022765668 0.012504383 0)
(-0.024062144 0.012590224 0)
(-0.025327719 0.012692593 0)
(-0.026559054 0.012865807 0)
(-0.027762218 0.013130619 0)
(-0.028938251 0.013514778 0)
(-0.030095941 0.014092814 0)
(-0.03125307 0.01493853 0)
(-0.032474256 0.016131873 0)
(-0.033800767 0.017814206 0)
(-0.035274979 0.020089464 0)
(-0.037020339 0.023142515 0)
(-0.039173188 0.027167752 0)
(-0.041908528 0.032394321 0)
(-0.045441112 0.039079796 0)
(-0.0500277 0.047515226 0)
(-0.055968037 0.058029665 0)
(-0.063604319 0.071000249 0)
(-0.073322082 0.086861392 0)
(-0.085542071 0.10612232 0)
(-0.10071772 0.12940047 0)
(-0.11936675 0.15747458 0)
(-0.14195276 0.19112152 0)
(-0.16892046 0.2309379 0)
(-0.20062996 0.28052112 0)
(-0.23605555 0.35177488 0)
(-0.28074443 0.44501887 0)
(-0.34916352 0.49230758 0)
(-0.42488825 0.37976336 0)
(-0.48101485 0.13428582 0)
(-0.52328942 -0.12622229 0)
(-0.52508934 -0.38786198 0)
(-0.47300275 -0.62327175 0)
(-0.37157913 -0.796336 0)
(-0.19333967 -0.91547022 0)
(0.029212919 -0.95868414 0)
(0.24145493 -0.95502158 0)
(0.42824576 -0.91821629 0)
(0.59735587 -0.85630731 0)
(0.76150939 -0.7791352 0)
(0.90299862 -0.74270793 0)
(1.0199151 -0.77507062 0)
(1.1328698 -0.74556574 0)
(1.2409606 -0.54138586 0)
(1.3352327 -0.21582995 0)
(1.4558808 0.10436967 0)
(1.5635545 0.38869666 0)
(1.5487955 0.52147106 0)
(1.3806072 0.50718613 0)
(1.1323286 0.40386634 0)
(0.90329685 0.31411622 0)
(0.73127042 0.2912475 0)
(0.59938808 0.29819178 0)
(0.50000866 0.28758987 0)
(0.43445232 0.27133463 0)
(0.38937823 0.26397916 0)
(0.35148619 0.25845488 0)
(0.31728892 0.24801676 0)
(0.28680392 0.23349252 0)
(0.25935803 0.21711473 0)
(0.2340849 0.20003921 0)
(0.21043961 0.18302641 0)
(0.18814072 0.16669498 0)
(0.16710479 0.15138204 0)
(0.14735339 0.13716681 0)
(0.12892222 0.12399186 0)
(0.11182075 0.11179084 0)
(0.096023194 0.10050285 0)
(0.081486897 0.09006295 0)
(0.068172854 0.080411212 0)
(0.056044637 0.071491952 0)
(0.045061359 0.063244601 0)
(0.035189938 0.055618981 0)
(0.026395639 0.048559356 0)
(0.018641088 0.042019583 0)
(0.011876167 0.03594569 0)
(0.0060703634 0.030305177 0)
(0.0012202438 0.02511155 0)
(-0.0027219676 0.020374469 0)
(-0.0058526734 0.016098727 0)
(-0.0081557552 0.012263775 0)
(-0.0095904611 0.008908448 0)
(-0.010695676 0.0060578289 0)
(-0.01190137 0.0035659095 0)
(-0.0099212723 0.0013103017 0)
(3.8792135e-05 0.012342796 0)
(-0.0024330717 0.012523133 0)
(-0.0035186139 0.012668214 0)
(-0.0052858181 0.012808433 0)
(-0.0065680487 0.012950998 0)
(-0.0082364004 0.013090276 0)
(-0.0097002019 0.013215775 0)
(-0.011219873 0.013334965 0)
(-0.012732751 0.013442601 0)
(-0.014229744 0.013538509 0)
(-0.015704201 0.01361755 0)
(-0.017160796 0.013687866 0)
(-0.018593148 0.013737115 0)
(-0.019988552 0.013784486 0)
(-0.021352225 0.013815922 0)
(-0.022675446 0.013851051 0)
(-0.02394915 0.013901585 0)
(-0.025167972 0.013974528 0)
(-0.026316004 0.014095147 0)
(-0.027400628 0.014313651 0)
(-0.028411414 0.014662306 0)
(-0.0293261 0.015203901 0)
(-0.030156142 0.016028294 0)
(-0.030927407 0.017232188 0)
(-0.031673015 0.0189846 0)
(-0.032410592 0.021403093 0)
(-0.03321055 0.024708421 0)
(-0.034186718 0.029130571 0)
(-0.035481109 0.034937725 0)
(-0.037279295 0.042428558 0)
(-0.039806812 0.051935904 0)
(-0.04332549 0.06382127 0)
(-0.048127967 0.078495063 0)
(-0.054535341 0.096419172 0)
(-0.062884733 0.11812523 0)
(-0.073510309 0.14424204 0)
(-0.086776874 0.17554034 0)
(-0.10302818 0.21276777 0)
(-0.12238912 0.25630022 0)
(-0.14467225 0.30939266 0)
(-0.16739292 0.38474981 0)
(-0.19015555 0.4847839 0)
(-0.22725669 0.54306804 0)
(-0.28262359 0.4425073 0)
(-0.34558638 0.19626038 0)
(-0.39916462 -0.094382953 0)
(-0.40854027 -0.3973418 0)
(-0.39511651 -0.67799117 0)
(-0.31777619 -0.92506101 0)
(-0.13582 -1.1233365 0)
(0.089417753 -1.1769198 0)
(0.29945351 -1.1486331 0)
(0.46987116 -1.0766112 0)
(0.60471643 -1.0086294 0)
(0.74970888 -0.93957362 0)
(0.90975351 -0.87711901 0)
(1.0502302 -0.88917765 0)
(1.1644992 -0.86096639 0)
(1.280787 -0.65459624 0)
(1.3960007 -0.32466335 0)
(1.4734248 7.4137061e-05 0)
(1.5244999 0.33300355 0)
(1.51774 0.59059374 0)
(1.4013252 0.68235241 0)
(1.1903085 0.63358078 0)
(0.95439571 0.52956151 0)
(0.75929739 0.46069695 0)
(0.61300113 0.42404234 0)
(0.50631584 0.37691568 0)
(0.43209801 0.33168478 0)
(0.37880959 0.3081246 0)
(0.3359265 0.29544267 0)
(0.29927851 0.28040918 0)
(0.26777091 0.26201789 0)
(0.2401376 0.24271777 0)
(0.21521736 0.22356938 0)
(0.19229301 0.20499965 0)
(0.17096962 0.18734804 0)
(0.15108171 0.17078047 0)
(0.13255953 0.15532665 0)
(0.11533964 0.14093551 0)
(0.099374454 0.12756051 0)
(0.084597063 0.11514627 0)
(0.07095557 0.10361358 0)
(0.058429114 0.092893494 0)
(0.046991718 0.08290706 0)
(0.036621592 0.073584815 0)
(0.027307423 0.064874774 0)
(0.019025805 0.056727552 0)
(0.011754607 0.049103564 0)
(0.0054806733 0.041984707 0)
(0.00018073428 0.035383644 0)
(-0.004178721 0.029290072 0)
(-0.0076452183 0.023696212 0)
(-0.010292668 0.018599987 0)
(-0.012096141 0.014023116 0)
(-0.013033192 0.0099867345 0)
(-0.0136506 0.0065248302 0)
(-0.014322496 0.0034797177 0)
(-0.011494526 0.00076422352 0)
(0.00016887361 0.013817659 0)
(-0.0022788132 0.014010036 0)
(-0.0033674354 0.014171667 0)
(-0.0051364281 0.014311194 0)
(-0.0064264236 0.014467566 0)
(-0.0081010151 0.014600967 0)
(-0.0095797978 0.01472231 0)
(-0.011110047 0.01483025 0)
(-0.012631846 0.01492584 0)
(-0.014141744 0.015004838 0)
(-0.015634113 0.015066376 0)
(-0.017103634 0.015105434 0)
(-0.018545624 0.015129117 0)
(-0.019951938 0.015134513 0)
(-0.021322233 0.015124908 0)
(-0.022635409 0.015108997 0)
(-0.023885608 0.015096458 0)
(-0.025073339 0.015101273 0)
(-0.026151171 0.015140646 0)
(-0.027118365 0.015255754 0)
(-0.027966261 0.015491729 0)
(-0.02864537 0.015914884 0)
(-0.029138782 0.016608421 0)
(-0.02942845 0.01768504 0)
(-0.029543689 0.019319597 0)
(-0.029469802 0.021675366 0)
(-0.02921349 0.024982614 0)
(-0.028862997 0.029516394 0)
(-0.028525448 0.035585102 0)
(-0.028353235 0.043528049 0)
(-0.028544009 0.053726916 0)
(-0.029325168 0.066562872 0)
(-0.030944024 0.082479621 0)
(-0.033667835 0.10195137 0)
(-0.037762081 0.12551233 0)
(-0.043463174 0.15377922 0)
(-0.050986839 0.18748246 0)
(-0.06057627 0.2273265 0)
(-0.072223032 0.27347398 0)
(-0.085301652 0.32781909 0)
(-0.096942028 0.40134465 0)
(-0.10260524 0.50029602 0)
(-0.11206501 0.57035949 0)
(-0.14673107 0.49973274 0)
(-0.20942109 0.27352436 0)
(-0.27965776 -0.038081262 0)
(-0.33878126 -0.36653804 0)
(-0.38836911 -0.68952456 0)
(-0.33497639 -1.0386516 0)
(-0.16505531 -1.3302653 0)
(0.044445959 -1.390351 0)
(0.24707722 -1.3393742 0)
(0.41763013 -1.2129348 0)
(0.54371534 -1.1280603 0)
(0.67129909 -1.0799674 0)
(0.8293497 -1.0414278 0)
(0.9911234 -1.0272102 0)
(1.1095113 -0.97471353 0)
(1.2004152 -0.77187207 0)
(1.2965989 -0.42081199 0)
(1.3656193 -0.036556867 0)
(1.3949195 0.31977425 0)
(1.3898429 0.6534236 0)
(1.2900561 0.82964427 0)
(1.1035693 0.83085689 0)
(0.90603676 0.7341875 0)
(0.73676558 0.63194984 0)
(0.6006778 0.55115457 0)
(0.49727816 0.46952317 0)
(0.42063317 0.39956862 0)
(0.36207671 0.35981567 0)
(0.3154865 0.33716417 0)
(0.27751034 0.31528786 0)
(0.24592821 0.29187007 0)
(0.21874635 0.26897327 0)
(0.19462641 0.24727065 0)
(0.17276706 0.22678541 0)
(0.15267952 0.2075542 0)
(0.13410432 0.18957766 0)
(0.11686354 0.17281592 0)
(0.10082251 0.15720233 0)
(0.085922167 0.14266968 0)
(0.072082334 0.12912531 0)
(0.059277088 0.11649383 0)
(0.047504015 0.10467531 0)
(0.036746184 0.093597287 0)
(0.027012903 0.083195956 0)
(0.018300524 0.073420968 0)
(0.010590016 0.064233785 0)
(0.0038718148 0.055607769 0)
(-0.0018605064 0.047529247 0)
(-0.0066337996 0.039985451 0)
(-0.010474848 0.032969029 0)
(-0.013419755 0.026488095 0)
(-0.015521989 0.020557793 0)
(-0.016756526 0.015201742 0)
(-0.017124783 0.010462638 0)
(-0.017185541 0.0063774176 0)
(-0.01720695 0.0027338529 0)
(-0.01341542 -0.00043287416 0)
(0.00031572149 0.01528878 0)
(-0.0021052264 0.015501074 0)
(-0.0032083089 0.01568473 0)
(-0.0049806318 0.015832027 0)
(-0.0062789274 0.015996635 0)
(-0.007973115 0.016135062 0)
(-0.0094637203 0.016257664 0)
(-0.011006332 0.016358723 0)
(-0.012543845 0.016440113 0)
(-0.014070688 0.016504346 0)
(-0.015581024 0.016545501 0)
(-0.017070058 0.016561274 0)
(-0.018530299 0.016554399 0)
(-0.019953093 0.016520698 0)
(-0.021331853 0.016463396 0)
(-0.022651206 0.016389163 0)
(-0.023895624 0.016299885 0)
(-0.025054229 0.016207802 0)
(-0.026084478 0.01614008 0)
(-0.026964472 0.01610511 0)
(-0.027662001 0.016166404 0)
(-0.028116402 0.01638022 0)
(-0.02829273 0.016835204 0)
(-0.02812165 0.017644854 0)
(-0.027586801 0.018973809 0)
(-0.026658731 0.021035236 0)
(-0.025285682 0.024067854 0)
(-0.023502727 0.0284001 0)
(-0.021388571 0.034380944 0)
(-0.019056159 0.042377817 0)
(-0.016691749 0.052862549 0)
(-0.014497593 0.06617247 0)
(-0.012679699 0.082818592 0)
(-0.011469604 0.10325772 0)
(-0.011072433 0.12799843 0)
(-0.011657434 0.15762704 0)
(-0.01334838 0.1928051 0)
(-0.016332407 0.23418093 0)
(-0.020703429 0.2817935 0)
(-0.025819968 0.3360916 0)
(-0.029592856 0.40459385 0)
(-0.02729887 0.4966847 0)
(-0.022324642 0.57651559 0)
(-0.042847227 0.54362255 0)
(-0.11057456 0.35385705 0)
(-0.20691499 0.055307057 0)
(-0.32546369 -0.27941122 0)
(-0.42174807 -0.66824195 0)
(-0.38033266 -1.1450127 0)
(-0.23865133 -1.5242764 0)
(-0.059975294 -1.5798853 0)
(0.12789867 -1.5269586 0)
(0.310876 -1.360225 0)
(0.46350798 -1.2712002 0)
(0.61306479 -1.2256299 0)
(0.7709795 -1.2070331 0)
(0.91586986 -1.165168 0)
(1.0213013 -1.060177 0)
(1.0742245 -0.84258775 0)
(1.1171613 -0.48069523 0)
(1.1559195 -0.070889373 0)
(1.1577499 0.31182271 0)
(1.1583234 0.68851732 0)
(1.0971265 0.96313837 0)
(0.94861943 0.9893495 0)
(0.80586113 0.8953734 0)
(0.68122004 0.77669227 0)
(0.56320075 0.66587333 0)
(0.46669324 0.55818722 0)
(0.39275103 0.46950264 0)
(0.33409709 0.41485133 0)
(0.28740305 0.38045357 0)
(0.25042288 0.35021232 0)
(0.22031424 0.32111685 0)
(0.19462896 0.29431624 0)
(0.17201928 0.26983793 0)
(0.15169232 0.24727151 0)
(0.13312201 0.2263668 0)
(0.1159851 0.20697952 0)
(0.10005001 0.18896355 0)
(0.085186634 0.17221734 0)
(0.071333629 0.15661297 0)
(0.05844112 0.14203499 0)
(0.046497067 0.12838165 0)
(0.035502547 0.11554868 0)
(0.025470402 0.10346978 0)
(0.016407481 0.092078231 0)
(0.0083164222 0.081321322 0)
(0.001192532 0.071160408 0)
(-0.0049605832 0.061568147 0)
(-0.0101465 0.052531223 0)
(-0.014380444 0.044039468 0)
(-0.017672757 0.036098179 0)
(-0.020051057 0.028727529 0)
(-0.021561371 0.021948784 0)
(-0.022171201 0.015791837 0)
(-0.021890937 0.010321001 0)
(-0.021323755 0.0055871359 0)
(-0.020567274 0.0012902166 0)
(-0.015710873 -0.0023048682 0)
(0.00047691335 0.016774472 0)
(-0.001920624 0.017008291 0)
(-0.0030276179 0.017212043 0)
(-0.0048140883 0.017377235 0)
(-0.0061249834 0.017546074 0)
(-0.0078308675 0.017695365 0)
(-0.0093476363 0.017820931 0)
(-0.010916049 0.017926961 0)
(-0.012470396 0.017995069 0)
(-0.01401524 0.018042831 0)
(-0.01554975 0.018063774 0)
(-0.017061041 0.018055264 0)
(-0.018545389 0.018015512 0)
(-0.019994408 0.017943318 0)
(-0.021396763 0.017834703 0)
(-0.022733571 0.017691594 0)
(-0.023992348 0.017513812 0)
(-0.02514789 0.01731376 0)
(-0.026159039 0.01709511 0)
(-0.026987231 0.016874384 0)
(-0.027578277 0.016698601 0)
(-0.027858024 0.016610909 0)
(-0.027753765 0.016704604 0)
(-0.027168607 0.017077093 0)
(-0.026028649 0.017909084 0)
(-0.024254565 0.019411047 0)
(-0.021735122 0.021890018 0)
(-0.018440202 0.025642965 0)
(-0.014442538 0.031156024 0)
(-0.0097709446 0.038794914 0)
(-0.0046561009 0.049135628 0)
(0.00070835995 0.062567547 0)
(0.0061875101 0.079501475 0)
(0.011513039 0.10037089 0)
(0.016543456 0.12570205 0)
(0.021160369 0.15602682 0)
(0.02526977 0.19201798 0)
(0.028691745 0.23424434 0)
(0.031105015 0.28274496 0)
(0.032719626 0.33715718 0)
(0.034483732 0.40192163 0)
(0.038422505 0.48780455 0)
(0.043537844 0.57634185 0)
(0.023723022 0.58232133 0)
(-0.052716424 0.4390508 0)
(-0.17007063 0.17615848 0)
(-0.33133634 -0.15730559 0)
(-0.42459778 -0.6411142 0)
(-0.40002344 -1.2335705 0)
(-0.30815291 -1.6879838 0)
(-0.16098795 -1.751402 0)
(0.026837688 -1.7081771 0)
(0.22862891 -1.5452371 0)
(0.40611635 -1.4334903 0)
(0.5513213 -1.392292 0)
(0.70395132 -1.3527599 0)
(0.82519941 -1.2835581 0)
(0.91889587 -1.1385632 0)
(0.94789618 -0.88022598 0)
(0.93023053 -0.49859968 0)
(0.91448265 -0.055959871 0)
(0.86210269 0.35682855 0)
(0.81259339 0.72166351 0)
(0.78050451 1.0500475 0)
(0.7080242 1.0911228 0)
(0.64480317 0.98846866 0)
(0.57386631 0.88531177 0)
(0.48072595 0.7627716 0)
(0.40230029 0.63748728 0)
(0.34105631 0.53455929 0)
(0.29069955 0.46678822 0)
(0.24953342 0.42094044 0)
(0.21687825 0.3824616 0)
(0.19028705 0.34791396 0)
(0.16743101 0.31744161 0)
(0.14720566 0.29035501 0)
(0.12896108 0.26584105 0)
(0.11222412 0.24340723 0)
(0.096684047 0.22277359 0)
(0.082139359 0.20368199 0)
(0.06851408 0.18597373 0)
(0.055758171 0.16944542 0)
(0.043842715 0.15396455 0)
(0.032768965 0.1394067 0)
(0.022570924 0.12566864 0)
(0.01326044 0.11267175 0)
(0.0048584791 0.10034889 0)
(-0.0026218997 0.088649689 0)
(-0.0091675457 0.077535829 0)
(-0.01475959 0.066982844 0)
(-0.019391149 0.056983308 0)
(-0.023067357 0.047538381 0)
(-0.025786473 0.038664259 0)
(-0.027567924 0.030382218 0)
(-0.028446762 0.022719932 0)
(-0.028374066 0.015719414 0)
(-0.027370747 0.0094830517 0)
(-0.026110071 0.0040410124 0)
(-0.024433829 -0.00099117482 0)
(-0.018424959 -0.0050036549 0)
(0.00065978454 0.018252609 0)
(-0.0017163021 0.018521821 0)
(-0.0028303048 0.018747696 0)
(-0.0046344176 0.018929819 0)
(-0.0059626768 0.019112505 0)
(-0.0076882278 0.019267218 0)
(-0.0092225305 0.01939638 0)
(-0.010819458 0.019500311 0)
(-0.012410179 0.01957284 0)
(-0.013978415 0.019604064 0)
(-0.015537636 0.019606715 0)
(-0.0170801 0.019572323 0)
(-0.018596006 0.019500544 0)
(-0.020078398 0.019388407 0)
(-0.021518311 0.019228531 0)
(-0.022897046 0.019017529 0)
(-0.024188194 0.018745402 0)
(-0.025376745 0.018417942 0)
(-0.026416073 0.018032754 0)
(-0.027241977 0.017590137 0)
(-0.02779676 0.017117895 0)
(-0.0279743 0.016645803 0)
(-0.027687277 0.016247387 0)
(-0.026776561 0.016024852 0)
(-0.025111585 0.016143 0)
(-0.022532671 0.016799731 0)
(-0.018913099 0.018397872 0)
(-0.014098524 0.021167274 0)
(-0.0081029796 0.025720764 0)
(-0.00094809392 0.032623101 0)
(0.0072031058 0.042430686 0)
(0.015971121 0.055554753 0)
(0.025187031 0.072322131 0)
(0.034730349 0.093158048 0)
(0.044496679 0.11855787 0)
(0.054425757 0.14907246 0)
(0.064422325 0.18533808 0)
(0.074220052 0.22802692 0)
(0.0833467 0.27723401 0)
(0.091595448 0.33250743 0)
(0.099106898 0.39714076 0)
(0.10408372 0.48255007 0)
(0.10257692 0.58261649 0)
(0.077950082 0.62710692 0)
(0.0095927467 0.53208758 0)
(-0.11495891 0.31190957 0)
(-0.28557927 -0.03381062 0)
(-0.34563664 -0.60568966 0)
(-0.35893861 -1.26991 0)
(-0.34472542 -1.7922742 0)
(-0.24340255 -1.9293211 0)
(-0.029233786 -1.9109843 0)
(0.19410336 -1.7749078 0)
(0.36753969 -1.560791 0)
(0.45985662 -1.5333519 0)
(0.58863416 -1.4773929 0)
(0.6998009 -1.3947585 0)
(0.76392011 -1.1908641 0)
(0.72860943 -0.85856744 0)
(0.65936245 -0.45536988 0)
(0.61720137 0.0053291099 0)
(0.5362077 0.4474171 0)
(0.44042049 0.77766971 0)
(0.42619595 1.073267 0)
(0.4263435 1.1196355 0)
(0.41972101 1.0213335 0)
(0.3907594 0.94938767 0)
(0.34439025 0.82804899 0)
(0.30156374 0.69487228 0)
(0.26576261 0.58381703 0)
(0.23253455 0.50772399 0)
(0.20219412 0.4539842 0)
(0.17717693 0.40934428 0)
(0.15613031 0.37061443 0)
(0.13738951 0.3373406 0)
(0.12038335 0.30823206 0)
(0.10473638 0.28219668 0)
(0.090125224 0.25858698 0)
(0.076349995 0.23699047 0)
(0.063310641 0.21706623 0)
(0.05098172 0.19857128 0)
(0.039332254 0.18126557 0)
(0.028397897 0.16500422 0)
(0.018193116 0.14964125 0)
(0.0087614047 0.13507492 0)
(0.00014741487 0.12121793 0)
(-0.0076175098 0.10800585 0)
(-0.014504446 0.095391123 0)
(-0.020483604 0.083342003 0)
(-0.025522721 0.071838143 0)
(-0.029600844 0.060877191 0)
(-0.03270608 0.050465986 0)
(-0.034832752 0.040628584 0)
(-0.035996072 0.031399922 0)
(-0.036212318 0.022808732 0)
(-0.035398301 0.014915966 0)
(-0.033609747 0.0078644051 0)
(-0.03160575 0.0016243309 0)
(-0.028852692 -0.0042211037 0)
(-0.021610837 -0.0086691513 0)
(0.00087475336 0.019723888 0)
(-0.0014861749 0.020042414 0)
(-0.0026100305 0.020298776 0)
(-0.0044352911 0.02050515 0)
(-0.0057890514 0.020697679 0)
(-0.0075357444 0.020867856 0)
(-0.0091040823 0.020999896 0)
(-0.010726129 0.021098928 0)
(-0.012347344 0.021169812 0)
(-0.013955188 0.021194907 0)
(-0.015547776 0.021177488 0)
(-0.017125066 0.021120921 0)
(-0.018678187 0.021023081 0)
(-0.020205355 0.020871082 0)
(-0.021695561 0.020665693 0)
(-0.023133337 0.020387782 0)
(-0.024497346 0.020032063 0)
(-0.025753779 0.01957035 0)
(-0.026868061 0.019005814 0)
(-0.027772164 0.018321093 0)
(-0.028383107 0.017510873 0)
(-0.028581226 0.016590047 0)
(-0.028219094 0.01559871 0)
(-0.027114962 0.014616939 0)
(-0.025095689 0.01379127 0)
(-0.021840141 0.013333242 0)
(-0.017203927 0.013573631 0)
(-0.01095147 0.014921321 0)
(-0.0028271181 0.017983977 0)
(0.0070921328 0.023740629 0)
(0.018417524 0.032550493 0)
(0.030717852 0.044892136 0)
(0.04386106 0.061086371 0)
(0.057734867 0.081448431 0)
(0.072334618 0.10639472 0)
(0.087644028 0.1364906 0)
(0.1036518 0.17246951 0)
(0.12010385 0.21521071 0)
(0.13646309 0.26499158 0)
(0.15245356 0.32153978 0)
(0.16774984 0.38875888 0)
(0.17719956 0.47999948 0)
(0.1723897 0.59572014 0)
(0.14743383 0.67178482 0)
(0.10149324 0.61787272 0)
(-0.016454996 0.43863682 0)
(-0.14114218 0.065435912 0)
(-0.17322778 -0.54957246 0)
(-0.21411906 -1.2398969 0)
(-0.25934825 -1.817415 0)
(-0.22396839 -2.0819173 0)
(-0.053580824 -2.1120947 0)
(0.12136254 -1.9828832 0)
(0.28250267 -1.6862483 0)
(0.36669754 -1.6464009 0)
(0.47411576 -1.588872 0)
(0.54106182 -1.4764526 0)
(0.54035 -1.164126 0)
(0.43547952 -0.76263869 0)
(0.33494107 -0.37885586 0)
(0.29906692 0.087449215 0)
(0.21937853 0.5550664 0)
(0.11326686 0.83260272 0)
(0.12351014 1.0489285 0)
(0.16396138 1.1040627 0)
(0.17459009 1.0236729 0)
(0.18060406 0.96036704 0)
(0.18390279 0.84947932 0)
(0.18308472 0.71778592 0)
(0.17919857 0.60778181 0)
(0.16579511 0.53218675 0)
(0.14873375 0.47624831 0)
(0.13345735 0.42864563 0)
(0.11920416 0.38786255 0)
(0.10540597 0.35319079 0)
(0.092165847 0.32298376 0)
(0.079446237 0.29608298 0)
(0.06714862 0.27178077 0)
(0.055252002 0.24958695 0)
(0.043767461 0.22909064 0)
(0.032730049 0.20999235 0)
(0.022191661 0.19206704 0)
(0.012211199 0.17514597 0)
(0.0028294657 0.1590738 0)
(-0.0058640761 0.14375754 0)
(-0.013816886 0.12910256 0)
(-0.020977717 0.11504913 0)
(-0.027299317 0.10155094 0)
(-0.032733367 0.088584464 0)
(-0.037235957 0.076137948 0)
(-0.040774169 0.064207133 0)
(-0.043322077 0.05280775 0)
(-0.04485513 0.041979539 0)
(-0.045385048 0.031759331 0)
(-0.044910915 0.022182781 0)
(-0.043305781 0.013343724 0)
(-0.040693425 0.0053964181 0)
(-0.037880129 -0.0017527387 0)
(-0.03389853 -0.0084952098 0)
(-0.025369283 -0.013408636 0)
(0.001128635 0.021187414 0)
(-0.001216409 0.021586938 0)
(-0.0023584783 0.021879681 0)
(-0.0042202034 0.022106095 0)
(-0.0056011585 0.022314793 0)
(-0.007373996 0.022497934 0)
(-0.0089810763 0.022634526 0)
(-0.010635617 0.022733258 0)
(-0.012293938 0.022795727 0)
(-0.013942561 0.022819201 0)
(-0.01557545 0.022788563 0)
(-0.017188875 0.0227128 0)
(-0.018790123 0.022593289 0)
(-0.020369014 0.02240897 0)
(-0.021922713 0.022166093 0)
(-0.023438684 0.02183295 0)
(-0.024901107 0.0213964 0)
(-0.026284979 0.020823836 0)
(-0.027532864 0.020085136 0)
(-0.028592646 0.019159462 0)
(-0.029373295 0.018000876 0)
(-0.02972378 0.016593258 0)
(-0.029486578 0.014930171 0)
(-0.028408228 0.013042779 0)
(-0.0262205 0.011052576 0)
(-0.022579465 0.0091480758 0)
(-0.017144879 0.0075492298 0)
(-0.0095047427 0.0069525993 0)
(0.00090005798 0.0079046337 0)
(0.013788797 0.011881911 0)
(0.028496002 0.019196539 0)
(0.044613621 0.030436195 0)
(0.06179719 0.04573161 0)
(0.079996609 0.065215588 0)
(0.099331873 0.089214641 0)
(0.12004415 0.11827457 0)
(0.14230709 0.15334401 0)
(0.16600248 0.19537648 0)
(0.19056364 0.24494425 0)
(0.21592205 0.3022715 0)
(0.2413929 0.3734288 0)
(0.26023309 0.47419729 0)
(0.26262289 0.60481078 0)
(0.25401151 0.70086606 0)
(0.23703742 0.68250587 0)
(0.14440573 0.53035873 0)
(0.097270521 0.1261856 0)
(0.079831387 -0.49369552 0)
(0.045622378 -1.1754705 0)
(-0.0149059 -1.7789472 0)
(-0.038716688 -2.155618 0)
(0.049430808 -2.2676404 0)
(0.16214292 -2.1017351 0)
(0.26770857 -1.8138471 0)
(0.30360351 -1.7187939 0)
(0.36238087 -1.6681501 0)
(0.35904775 -1.4778012 0)