/*--------------------------------*- C++ -*----------------------------------*\
  =========                 |
  \\      /  F ield         | OpenFOAM: The Open Source CFD Toolbox
   \\    /   O peration     | Website:  https://openfoam.org
    \\  /    A nd           | Version:  9
     \\/     M anipulation  |
\*---------------------------------------------------------------------------*/
FoamFile
{
    format      ascii;
    class       volScalarField;
    location    "0.41";
    object      p_rgh;
}
// * * * * * * * * * * * * * * * * * * * * * * * * * * * * * * * * * * * * * //

dimensions      [1 -1 -2 0 0 0 0];

internalField   nonuniform List<scalar> 
10000
(
0
-0.0067126772
-0.030485387
-0.066056881
-0.11482491
-0.17675769
-0.25185384
-0.3399927
-0.44116554
-0.55517466
-0.6819445
-0.8212601
-0.97290333
-1.1366366
-1.312054
-1.498757
-1.6962902
-1.904087
-2.1215627
-2.3480288
-2.5826767
-2.8246495
-3.0730073
-3.3267109
-3.5846603
-3.8457373
-4.1087381
-4.3721455
-4.6346023
-4.8945585
-5.1519644
-5.404514
-5.6506836
-5.8891453
-6.1185642
-6.3375885
-6.5449614
-6.7394621
-6.9198586
-7.0850347
-7.2339684
-7.3656876
-7.4792914
-7.573974
-7.6490967
-7.7042011
-7.7390152
-7.7535089
-7.7479115
-7.7227017
-7.6786042
-7.6165699
-7.5378032
-7.4436726
-7.335647
-7.2153225
-7.0843705
-6.9444884
-6.7973522
-6.6445599
-6.4875667
-6.327733
-6.1663621
-6.0045892
-5.8433904
-5.6837454
-5.5265104
-5.3724466
-5.2191542
-5.0684935
-4.9224158
-4.7813505
-4.6459336
-4.5166333
-4.3934536
-4.2765092
-4.1658845
-4.0616616
-3.9638886
-3.8725443
-3.7875831
-3.708894
-3.6363615
-3.5698623
-3.5092014
-3.4541971
-3.4046668
-3.360396
-3.3211773
-3.2868452
-3.2572093
-3.2320904
-3.2113388
-3.1948035
-3.1823344
-3.1737572
-3.1689077
-3.1675196
-3.1679628
-3.1772296
0.0047857727
-0.0017288817
-0.025452858
-0.061022262
-0.10976588
-0.1717346
-0.24680634
-0.33502685
-0.43619964
-0.55028591
-0.67710599
-0.81647416
-0.96823423
-1.1320388
-1.3075418
-1.4943624
-1.6919939
-1.8999299
-2.1175871
-2.3442326
-2.5790931
-2.8213449
-3.0700339
-3.3241445
-3.5826041
-3.8442124
-4.107697
-4.3717626
-4.6350125
-4.8964096
-5.1545999
-5.4080539
-5.6552762
-5.8948467
-6.1254196
-6.345639
-6.554163
-6.7497196
-6.9311499
-7.0973361
-7.2471595
-7.3795992
-7.4937497
-7.5888141
-7.6641442
-7.7192592
-7.7538601
-7.7678957
-7.7615703
-7.735347
-7.6900013
-7.6265146
-7.54613
-7.4502554
-7.3404113
-7.2182481
-7.0855038
-6.943926
-6.7951795
-6.6408946
-6.4825671
-6.3215401
-6.1591427
-5.9965347
-5.8346388
-5.6743153
-5.5162876
-5.3610018
-5.2079759
-5.0591951
-4.9145595
-4.7748069
-4.6405498
-4.5121617
-4.3898709
-4.2738144
-4.1640773
-4.0607301
-3.9638215
-3.8732963
-3.7890737
-3.7110585
-3.6391456
-3.5731942
-3.5130211
-3.4584359
-3.4092369
-3.3652337
-3.3262279
-3.292032
-3.2624897
-3.2374381
-3.216719
-3.2001856
-3.1877156
-3.1791699
-3.1744374
-3.1733251
-3.1741607
-3.1840127
0.026910593
0.020494606
-0.0032111686
-0.038701191
-0.087463136
-0.14940554
-0.22458989
-0.31286362
-0.41419967
-0.52847563
-0.65553517
-0.79526798
-0.94740963
-1.1116694
-1.2877401
-1.4751958
-1.6735939
-1.8824412
-2.1011034
-2.3288899
-2.5650779
-2.808807
-3.0591385
-3.315085
-3.5755513
-3.8393279
-4.105183
-4.3718467
-4.637985
-4.9023204
-5.1633104
-5.4196158
-5.6697549
-5.9122609
-6.1457446
-6.3688467
-6.5801952
-6.7784825
-6.9625175
-7.13117
-7.2833236
-7.4178886
-7.5338852
-7.6304718
-7.7069382
-7.7627504
-7.7975751
-7.8112914
-7.8040589
-7.7763494
-7.7289586
-7.6629072
-7.5794788
-7.48015
-7.3665823
-7.2405716
-7.1039452
-6.9585342
-6.8060784
-6.6482677
-6.4866693
-6.3226948
-6.157588
-5.9924843
-5.8283759
-5.6660712
-5.5062526
-5.349359
-5.1956382
-5.0461265
-4.9012959
-4.7616048
-4.6275186
-4.4993707
-4.3773916
-4.2617329
-4.1524986
-4.0497307
-3.9534308
-3.8635484
-3.7799995
-3.7026659
-3.6314199
-3.5661219
-3.5065589
-3.4525335
-3.4038507
-3.3603075
-3.3217148
-3.2878779
-3.2586397
-3.2338561
-3.213358
-3.197016
-3.1847238
-3.1763751
-3.1718996
-3.1712473
-3.1729305
-3.1845326
0.06073211
0.054387117
0.030713398
-0.0048010622
-0.053544109
-0.11562246
-0.19091088
-0.27941448
-0.38104201
-0.49567368
-0.62323989
-0.76353832
-0.9163373
-1.081419
-1.258435
-1.4469966
-1.6466894
-1.8569828
-2.0772801
-2.3069482
-2.5452382
-2.791298
-3.0442189
-3.3029914
-3.5664964
-3.8335641
-4.1029622
-4.3733526
-4.6433256
-4.9115307
-5.1766003
-5.4370377
-5.6913402
-5.9380285
-6.1756747
-6.4028628
-6.6181943
-6.8203576
-7.0081149
-7.1802714
-7.3356696
-7.4731857
-7.5917756
-7.6905169
-7.7686146
-7.8254557
-7.8606078
-7.8738495
-7.8652886
-7.8353531
-7.7848539
-7.7148958
-7.6268814
-7.5224531
-7.4034269
-7.271772
-7.1294934
-6.9785247
-6.8207822
-6.6580274
-6.4918328
-6.3236774
-6.1548624
-5.9864841
-5.8194636
-5.6546383
-5.4926772
-5.3341547
-5.1795716
-5.0292901
-4.883952
-4.7440313
-4.6099008
-4.4818654
-4.360157
-4.244924
-4.1362352
-4.034112
-3.9385531
-3.8494773
-3.7667596
-3.690273
-3.6198749
-3.5553899
-3.496614
-3.4433438
-3.3953442
-3.3524184
-3.3143849
-3.2810482
-3.2522257
-3.2277887
-3.2075985
-3.1915274
-3.179493
-3.1714127
-3.1672713
-3.1670411
-3.1695103
-3.1827157
0.10719371
0.10103939
0.077355506
0.041903375
-0.0069296268
-0.069092117
-0.14459932
-0.23340951
-0.33543053
-0.45062349
-0.5788451
-0.71991648
-0.87367972
-1.0398786
-1.2182053
-1.408323
-1.6097825
-1.8220699
-2.0446563
-2.2769121
-2.5180762
-2.7673253
-3.0237577
-3.2863471
-3.5539896
-3.8255262
-4.0996747
-4.3750502
-4.6502709
-4.9239566
-5.1946468
-5.4607676
-5.7207557
-5.9731417
-6.2164642
-6.4492155
-6.6699654
-6.8773924
-7.0702124
-7.2471669
-7.4070291
-7.5486194
-7.6708334
-7.7726532
-7.8531543
-7.9115681
-7.9473134
-7.9600339
-7.9497607
-7.9168938
-7.8622653
-7.7870653
-7.6928327
-7.5814211
-7.4549085
-7.3155173
-7.1654966
-7.0069655
-6.8419818
-6.6724999
-6.5001443
-6.3263719
-6.152511
-5.979739
-5.8088721
-5.6407291
-5.4759464
-5.3151552
-5.1587737
-5.0072432
-4.8610419
-4.7206169
-4.5862878
-4.4582847
-4.3368068
-4.222003
-4.113919
-4.0125525
-3.9178589
-3.8297253
-3.748025
-3.6725977
-3.6032608
-3.5398265
-3.4820454
-3.4296973
-3.3825763
-3.340457
-3.3031454
-3.2704228
-3.2421244
-3.2181334
-3.1983159
-3.1825464
-3.1707934
-3.1630122
-3.1591804
-3.1592382
-3.1619324
-3.1748887
0.1666522
0.16072182
0.13718689
0.10173999
0.052907643
-0.0094068615
-0.085177241
-0.17434525
-0.27691277
-0.39277907
-0.52180475
-0.66388756
-0.81885437
-0.98647328
-1.1664954
-1.3585626
-1.5622468
-1.7771094
-2.0026356
-2.2381841
-2.4830271
-2.7363637
-2.9972812
-3.2647682
-3.5377391
-3.8149971
-4.09522
-4.3770264
-4.6590085
-4.9397046
-5.2175461
-5.4909029
-5.7581603
-6.0178251
-6.2683616
-6.5081642
-6.7357781
-6.9498465
-7.1490242
-7.3320065
-7.4975374
-7.6443894
-7.7713539
-7.877268
-7.9610416
-8.021695
-8.058421
-8.0706782
-8.0583649
-8.021803
-7.9619071
-7.879911
-7.7775903
-7.6571074
-7.5208743
-7.3714275
-7.2113768
-7.0431806
-6.8690144
-6.6909655
-6.5108386
-6.3301134
-6.1500602
-5.9718015
-5.796216
-5.6240491
-5.4558822
-5.2922328
-5.1335594
-4.9802507
-4.8327618
-4.6914536
-4.5566056
-4.4284259
-4.307074
-4.192663
-4.0852245
-3.9846909
-3.8909801
-3.8039595
-3.7234587
-3.6492876
-3.5812301
-3.5190591
-3.4624971
-3.41129
-3.3652415
-3.3240969
-3.287634
-3.2556631
-3.2280317
-3.2045843
-3.1852145
-3.1698351
-3.1583775
-3.1508391
-3.147239
-3.1475177
-3.1502809
-3.1630013
0.23898654
0.23350157
0.21012515
0.17483187
0.12596625
0.063482752
-0.012569339
-0.10222553
-0.20542638
-0.32207114
-0.45209225
-0.5953785
-0.75178178
-0.92113938
-1.1031885
-1.2975837
-1.5039762
-1.7219701
-1.9510466
-2.1905976
-2.439932
-2.698242
-2.9646289
-3.2381167
-3.517603
-3.8018458
-4.0895039
-4.3792043
-4.6694761
-4.9587216
-5.2452862
-5.5274945
-5.8036986
-6.0722877
-6.3316013
-6.5799978
-6.8159624
-7.038057
-7.2449082
-7.4352132
-7.6077081
-7.7611105
-7.8940885
-8.0052967
-8.0934165
-8.1571696
-8.1954442
-8.207455
-8.1928842
-8.1518798
-8.0854543
-7.9949203
-7.8823575
-7.7503418
-7.6017929
-7.4397178
-7.2670891
-7.0868086
-6.901364
-6.7128995
-6.5233643
-6.3342409
-6.146812
-5.9621305
-5.7810016
-5.6040761
-5.4318999
-5.2648921
-5.1034665
-4.9479808
-4.7988559
-4.6563712
-4.5207713
-4.3922709
-4.2709847
-4.1569533
-4.0501846
-3.950594
-3.8580402
-3.772338
-3.6932543
-3.6205613
-3.5540114
-3.4933156
-3.4381731
-3.3883342
-3.343536
-3.3035269
-3.2680823
-3.2370109
-3.2101431
-3.1873322
-3.1684961
-3.1535342
-3.1423778
-3.1350302
-3.1315962
-3.1320286
-3.1348423
-3.1476806
0.32411661
0.31928676
0.29634015
0.26121447
0.2123408
0.14970038
0.073263688
-0.016941982
-0.12084086
-0.23840486
-0.36956197
-0.51422104
-0.6723065
-0.84365669
-1.0280165
-1.2251229
-1.4346848
-1.6563147
-1.8895342
-2.1337828
-2.388382
-2.6525387
-2.9253873
-3.2059679
-3.4931559
-3.7856831
-4.0822153
-4.3813295
-4.6814496
-4.9808764
-5.2778695
-5.5706812
-5.857584
-6.1368102
-6.4065614
-6.6651437
-6.9109389
-7.1424323
-7.358277
-7.5572312
-7.7380438
-7.8993813
-8.039795
-8.1577219
-8.2515192
-8.3195233
-8.3602251
-8.3724679
-8.3556674
-8.3092221
-8.2349548
-8.133885
-8.0085566
-7.8621056
-7.6981365
-7.5203719
-7.332325
-7.1373135
-6.9382728
-6.7374833
-6.5369159
-6.3380847
-6.1421261
-5.9500806
-5.7626441
-5.5803248
-5.4035901
-5.2327655
-5.0681946
-4.9101271
-4.7590225
-4.6151124
-4.478589
-4.349647
-4.228363
-4.1147353
-4.0087297
-3.9102226
-3.8190255
-3.7348777
-3.6574781
-3.5865379
-3.5217529
-3.4627851
-3.4093143
-3.3610531
-3.3177117
-3.279025
-3.2447484
-3.2146983
-3.1886942
-3.1665942
-3.1483158
-3.1337589
-3.1228715
-3.115669
-3.1122867
-3.1127195
-3.11558
-3.1290521
0.42188654
0.41838441
0.39600621
0.36111287
0.31226387
0.24937932
0.17252094
0.081731929
-0.022970733
-0.14154365
-0.27394627
-0.4201603
-0.58011574
-0.75365868
-0.94061508
-1.140794
-1.3539259
-1.5796698
-1.8176178
-2.067232
-2.3278476
-2.5987292
-2.8790452
-3.1678209
-3.4639313
-3.7661228
-4.0730273
-4.3831267
-4.6947485
-5.0061239
-5.3153997
-5.6206857
-5.9201132
-6.2117687
-6.4937362
-6.7641558
-7.0212627
-7.2635121
-7.4896337
-7.6985082
-7.8889878
-8.0597543
-8.2092338
-8.3355823
-8.4367662
-8.5106166
-8.5550343
-8.5682672
-8.5491516
-8.4971735
-8.4132517
-8.299166
-8.1579737
-7.9935787
-7.8104599
-7.6132789
-7.406452
-7.1938556
-6.9787577
-6.7636689
-6.5504788
-6.3406705
-6.1352353
-5.935029
-5.7406174
-5.5523793
-5.3705875
-5.1954737
-5.0273875
-4.8663867
-4.7130062
-4.5674027
-4.4297625
-4.3002601
-4.17895
-4.0658025
-3.9607103
-3.8634784
-3.7738699
-3.6915518
-3.6161144
-3.5472135
-3.484497
-3.4275474
-3.3760162
-3.3295832
-3.2879154
-3.2507215
-3.2177627
-3.1888512
-3.1638109
-3.142482
-3.1247746
-3.1106315
-3.099997
-3.0928586
-3.0893162
-3.0892251
-3.0909312
-3.107996
0.53290864
0.53123725
0.50949172
0.47481235
0.42587612
0.36271435
0.28540896
0.19395935
0.088397319
-0.031251325
-0.16502187
-0.3129182
-0.47487079
-0.6508019
-0.84061872
-1.0441649
-1.2612324
-1.4915556
-1.7347659
-1.9903601
-2.2577375
-2.5362225
-2.8250057
-3.1231078
-3.4294215
-3.742702
-4.0615201
-4.3842714
-4.7092117
-5.0344497
-5.357966
-5.6777236
-5.9916675
-6.297716
-6.5937712
-6.8777266
-7.1476471
-7.4019667
-7.6395282
-7.8594539
-8.0608801
-8.242634
-8.4030348
-8.5399207
-8.650741
-8.7326296
-8.782665
-8.7982451
-8.7774093
-8.7191518
-8.6239397
-8.4939325
-8.3329761
-8.1461165
-7.9391775
-7.7181382
-7.4885406
-7.2550679
-7.0213339
-6.789962
-6.5627613
-6.3409128
-6.1252263
-5.9162706
-5.7143527
-5.519718
-5.3324823
-5.1527378
-4.9806178
-4.8164655
-4.6604683
-4.5128854
-4.3739542
-4.2438259
-4.1225209
-4.0099798
-3.9060019
-3.8103122
-3.7225772
-3.6423766
-3.5692365
-3.5027403
-3.4424145
-3.3878049
-3.3385113
-3.2941517
-3.2543601
-3.2188457
-3.1873659
-3.159694
-3.1356708
-3.1151529
-3.098045
-3.0843038
-3.07389
-3.066778
-3.0630602
-3.0625253
-3.0646287
-3.0793454
0.66098257
0.65893109
0.63722375
0.60249558
0.55339459
0.48990944
0.41207991
0.31993404
0.21348495
0.092678576
-0.042534083
-0.1921705
-0.35623533
-0.5347252
-0.72759507
-0.9347549
-1.1560896
-1.3913988
-1.6403522
-1.9025219
-2.1773953
-2.4643388
-2.7625733
-3.0711615
-3.3890127
-3.7148592
-4.0472201
-4.3844294
-4.7246467
-5.0658241
-5.4057445
-5.7421616
-6.07279
-6.3953616
-6.7075187
-7.0068431
-7.2911062
-7.5586219
-7.8084714
-8.0403017
-8.2537961
-8.4481309
-8.6216203
-8.7717046
-8.8950872
-8.9879915
-9.0464308
-9.0665662
-9.0451762
-8.9803221
-8.8718982
-8.7223669
-8.5365946
-8.3213658
-8.0845634
-7.8341181
-7.5770138
-7.3189268
-7.0639193
-6.8144811
-6.5721214
-6.3375159
-6.1110919
-5.8930862
-5.6834606
-5.4821822
-5.2892205
-5.1045079
-4.928078
-4.7602205
-4.6011964
-4.4513401
-4.3109324
-4.1800985
-4.0588315
-3.947014
-3.844381
-3.7505405
-3.6650424
-3.5873645
-3.516935
-3.4532211
-3.3956694
-3.3437446
-3.2969966
-3.2549773
-3.2173085
-3.1836762
-3.1538078
-3.1274761
-3.1045348
-3.0848622
-3.0683641
-3.0549951
-3.0447543
-3.0376183
-3.0336867
-3.0326326
-3.034787
-3.0464797
0.80314856
0.80105292
0.77919035
0.74434518
0.69500149
0.63109464
0.55271095
0.45985776
0.35247391
0.23048127
0.093821794
-0.057592826
-0.2238506
-0.40499275
-0.60104665
-0.81203258
-1.0379081
-1.2785329
-1.5336713
-1.8029995
-2.0860752
-2.3823079
-2.6909806
-3.0112272
-3.3419742
-3.681927
-4.0295803
-4.3832079
-4.7408541
-5.1003181
-5.4590321
-5.8145187
-6.1642298
-6.5056849
-6.8362642
-7.1530284
-7.4530892
-7.7345188
-7.9969145
-8.2409438
-8.4673164
-8.6758772
-8.8650008
-9.0315537
-9.1712897
-9.2792862
-9.3501597
-9.3783527
-9.3587402
-9.2876495
-9.163792
-8.9900145
-8.7726819
-8.521248
-8.2466178
-7.959583
-7.6692408
-7.3823994
-7.1034989
-6.8346808
-6.5766283
-6.3291464
-6.0919856
-5.8650392
-5.6478288
-5.4399024
-5.2409897
-5.0508914
-4.8696632
-4.6976342
-4.5351442
-4.382612
-4.2404325
-4.1087564
-3.9875584
-3.8766274
-3.7756153
-3.6840368
-3.6012605
-3.5265857
-3.4593538
-3.398877
-3.3445199
-3.2956755
-3.2518095
-3.2124219
-3.1770994
-3.1455148
-3.1173845
-3.0924736
-3.0706707
-3.0518551
-3.0359586
-3.0229426
-3.0128161
-3.0056105
-3.0014137
-2.9995416
-3.0014952
-3.0105903
0.95946399
0.95755111
0.93557062
0.90051429
0.85079676
0.78641924
0.70746711
0.6138761
0.50556536
0.38243348
0.24434942
0.09115233
-0.077295935
-0.26111618
-0.4604481
-0.67540312
-0.90601242
-1.1522413
-1.4139749
-1.6909828
-1.9829044
-2.2892369
-2.6093476
-2.942435
-3.2874566
-3.6431296
-4.0079509
-4.3801369
-4.757613
-5.1380713
-5.5182945
-5.8956528
-6.2671472
-6.630155
-6.9818596
-7.3184312
-7.6356701
-7.9311258
-8.2052793
-8.4607786
-8.7002573
-8.9246429
-9.132351
-9.3194337
-9.4804632
-9.6090916
-9.6982088
-9.7399567
-9.726257
-9.6504273
-9.5089038
-9.3046478
-9.0464039
-8.7478021
-8.4245217
-8.0915486
-7.7609288
-7.4408664
-7.1358213
-6.8470728
-6.5738213
-6.3142922
-6.0672727
-5.8322247
-5.6080085
-5.3935272
-5.1884363
-4.9926148
-4.8060081
-4.6290274
-4.4623082
-4.3064831
-4.1620852
-4.0293953
-3.9083284
-3.7985563
-3.6995818
-3.6107486
-3.5312224
-3.4601315
-3.3966375
-3.3399417
-3.2892682
-3.2439421
-3.2033291
-3.166884
-3.1341402
-3.1047579
-3.0784729
-3.0550506
-3.0344017
-3.0164209
-3.0010747
-2.9883556
-2.978267
-2.9709548
-2.9666325
-2.9632843
-2.9650137
-2.972033
1.1298737
1.1294869
1.1068619
1.0711065
1.0208872
0.95599975
0.87644994
0.78214717
0.6729907
0.54878857
0.40934155
0.25444593
0.083875441
-0.1026068
-0.30523858
-0.52421337
-0.75968422
-1.0117569
-1.2804285
-1.5655588
-1.8669049
-2.1841086
-2.5166357
-2.8637447
-3.2244573
-3.597552
-3.9815576
-4.3746687
-4.7746578
-5.1788251
-5.5842365
-5.9869658
-6.3834036
-6.7708539
-7.1468307
-7.5062296
-7.8421428
-8.1507191
-8.4340113
-8.6985116
-8.950176
-9.1917136
-9.4215795
-9.6344023
-9.823068
-9.9796572
-10.095282
-10.159173
-10.158677
-10.081674
-9.9205859
-9.6773258
-9.3647285
-9.0031527
-8.6160283
-8.2247165
-7.8452147
-7.4872209
-7.1547313
-6.8471531
-6.5609569
-6.2915436
-6.0366861
-5.7956166
-5.5656864
-5.3448748
-5.1333374
-4.9311446
-4.7380571
-4.5549102
-4.3827741
-4.2227339
-4.0755545
-3.9415862
-3.8207088
-3.7124433
-3.6160378
-3.5305705
-3.454969
-3.3881537
-3.3290777
-3.2767786
-3.2303544
-3.1890058
-3.1520279
-3.1188257
-3.0888939
-3.0618784
-3.0375248
-3.0156425
-2.9961344
-2.9789317
-2.9640443
-2.9514799
-2.941256
-2.9335983
-2.9285874
-2.9249842
-2.9258726
-2.9309794
1.3168791
1.3149081
1.2924508
1.2560091
1.2052725
1.1398647
1.0597663
0.96484924
0.85493994
0.72977755
0.58910862
0.43266171
0.26008641
0.071032062
-0.13481848
-0.35778616
-0.59818325
-0.85624484
-1.1320811
-1.425695
-1.7370007
-2.0657887
-2.4116467
-2.7739365
-3.1517917
-3.5441084
-3.9495084
-4.3662224
-4.7919487
-5.2238587
-5.6584621
-6.0909475
-6.5160595
-6.9309784
-7.3349948
-7.7214431
-8.0778937
-8.3970653
-8.6837462
-8.9516657
-9.2124881
-9.4721043
-9.728884
-9.9742798
-10.198451
-10.392142
-10.545575
-10.645029
-10.670813
-10.600735
-10.418637
-10.124366
-9.7372533
-9.2890691
-8.8163448
-8.3501826
-7.9114614
-7.5109981
-7.1513944
-6.8288807
-6.5352496
-6.2606994
-6.0017381
-5.7588016
-5.5250339
-5.2974857
-5.0788094
-4.8693272
-4.6677697
-4.4763131
-4.2968529
-4.1311349
-3.9803122
-3.8447659
-3.7242033
-3.617883
-3.5247389
-3.4434347
-3.3726038
-3.3108993
-3.2570447
-3.209866
-3.16831
-3.1314535
-3.0985175
-3.0688614
-3.0419433
-3.017431
-2.9950827
-2.9747253
-2.9562898
-2.9397579
-2.9251779
-2.9126424
-2.901998
-2.8938811
-2.8881704
-2.8840706
-2.8841241
-2.8874561
1.5189125
1.5147242
1.4922737
1.4551212
1.4039133
1.3380581
1.2575186
1.1620976
1.0515615
0.92562651
0.78394067
0.62612055
0.45174003
0.26032886
0.051429218
-0.17543234
-0.42070735
-0.68476765
-0.9678841
-1.2702582
-1.5919848
-1.9329997
-2.2930386
-2.6716335
-3.0680902
-3.481494
-3.9106502
-4.3539208
-4.8090636
-5.2732457
-5.7428191
-6.2115158
-6.6708736
-7.1158424
-7.5512747
-7.9726588
-8.3516936
-8.6763558
-8.9545286
-9.2150516
-9.4787954
-9.75736
-10.048488
-10.335694
-10.604472
-10.845448
-11.051295
-11.20715
-11.282541
-11.236228
-11.034421
-10.671099
-10.177548
-9.6059601
-9.0156529
-8.452731
-7.9431426
-7.4968204
-7.1133703
-6.7842002
-6.4936329
-6.2221013
-5.9652472
-5.730446
-5.4955837
-5.2583074
-5.0300511
-4.8121977
-4.5980244
-4.3945169
-4.2046958
-4.0312441
-3.8756142
-3.7380971
-3.6180986
-3.5143826
-3.4253801
-3.3493152
-3.2843396
-3.2287591
-3.1810422
-3.13981
-3.1037957
-3.071979
-3.0435385
-3.0177465
-2.994045
-2.9721161
-2.9517728
-2.9328495
-2.9153476
-2.8992864
-2.8848065
-2.8719077
-2.8609053
-2.8520832
-2.8455005
-2.8406532
-2.8397808
-2.8414704
1.7351596
1.7290412
1.7064362
1.6682864
1.6167872
1.5506082
1.4697368
1.3739491
1.2629889
1.136502
0.99404463
0.83513168
0.65925151
0.46579938
0.25411443
0.023584357
-0.22636704
-0.49629751
-0.78671279
-1.098021
-1.4305087
-1.7842987
-2.1593151
-2.5553021
-2.9718045
-3.4081731
-3.8635407
-4.3366747
-4.8256887
-5.3279399
-5.8402095
-6.3559628
-6.8592255
-7.3328282
-7.8033403
-8.2770703
-8.6809231
-9.0000857
-9.2439667
-9.4787067
-9.733949
-10.032845
-10.372334
-10.714996
-11.037774
-11.334458
-11.609271
-11.853234
-12.020696
-12.033307
-11.818817
-11.358899
-10.705737
-9.9506374
-9.1949708
-8.5073155
-7.9151777
-7.4223007
-7.0230483
-6.7032052
-6.4352636
-6.1773201
-5.9324403
-5.7238653
-5.491865
-5.2393504
-4.9971558
-4.7623549
-4.5327013
-4.3115353
-4.1066656
-3.9223622
-3.7602837
-3.6203751
-3.5013926
-3.4013013
-3.3177309
-3.2482458
-3.190474
-3.1422663
-3.1017896
-3.0674066
-3.0376854
-3.011513
-2.9880088
-2.9663723
-2.946051
-2.9267607
-2.9083441
-2.8906508
-2.8739036
-2.8579454
-2.8432204
-2.8298534
-2.8181096
-2.8083335
-2.8006476
-2.794819
-2.792818
-2.7930277
1.9653924
1.9575193
1.9344427
1.8958872
1.8439755
1.7774966
1.696402
1.6004172
1.4892815
1.3624811
1.2195771
1.0599826
0.88302383
0.68791612
0.47384981
0.24006025
-0.014212549
-0.28976758
-0.58738018
-0.90766078
-1.251119
-1.6181123
-2.0088086
-2.4231985
-2.8611117
-3.3222319
-3.8061429
-4.3122991
-4.839919
-5.3875762
-5.9539811
-6.5366794
-7.107108
-7.6109441
-8.1196643
-8.6529533
-9.1048214
-9.3905814
-9.5513827
-9.7284544
-9.9516254
-10.272212
-10.689236
-11.112286
-11.49648
-11.846488
-12.201476
-12.580482
-12.919534
-13.06512
-12.860422
-12.25419
-11.348683
-10.308417
-9.3167466
-8.4735295
-7.7919909
-7.2562251
-6.8538143
-6.5708812
-6.3647342
-6.1415632
-5.9320162
-5.7859137
-5.5491964
-5.2610849
-5.0042785
-4.7455426
-4.4804769
-4.2289709
-4.0016639
-3.802311
-3.6319778
-3.4896296
-3.3727017
-3.2778355
-3.2015146
-3.1404055
-3.09151
-3.0521828
-3.0202052
-2.9937124
-2.9711453
-2.9512734
-2.9331095
-2.9158855
-2.8990008
-2.8823259
-2.865742
-2.8487863
-2.8323967
-2.8163789
-2.8010517
-2.78677
-2.7738636
-2.7627673
-2.7536675
-2.7465711
-2.743213
-2.7420128
2.2094517
2.1999929
2.1764274
2.1375475
2.0852438
2.0186591
1.9375425
1.8414253
1.73043
1.6035674
1.4606678
1.3008839
1.1233406
0.92712365
0.71126813
0.47479167
0.21669701
-0.064089394
-0.36861609
-0.6977524
-1.0522659
-1.4327644
-1.8397022
-2.2733527
-2.7338667
-3.2213775
-3.7361218
-4.278584
-4.8498389
-5.4513709
-6.086903
-6.7682499
-7.4833253
-7.8611077
-7.5369076
-8.2753754
-9.5551084
-9.8720029
-9.8963893
-9.9496222
-10.090932
-10.434043
-10.991712
-11.545275
-11.990617
-12.357411
-12.776322
-13.356306
-14.019212
-14.453183
-14.312001
-13.470195
-12.139644
-10.633528
-9.3042641
-8.2874209
-7.5283335
-6.9590673
-6.5669956
-6.3682375
-6.3072253
-6.1037423
-5.6241395
-5.3277794
-5.5426293
-5.3637984
-5.0915667
-4.7780549
-4.4493627
-4.1479473
-3.8869714
-3.6671685
-3.4870152
-3.3430224
-3.2301514
-3.1430148
-3.0765056
-3.0261645
-2.9882557
-2.9595985
-2.9375822
-2.9201547
-2.9056524
-2.8927372
-2.8803266
-2.8677058
-2.8540849
-2.8398192
-2.8245513
-2.8084547
-2.7919013
-2.7752064
-2.7587546
-2.7429823
-2.7284147
-2.7155256
-2.7046111
-2.6958741
-2.6909226
-2.6881363
2.4671481
2.4563816
2.4322565
2.3930423
2.3404193
2.2737826
2.1927702
2.0970864
1.9865373
1.8595997
1.7173409
1.5579139
1.3804055
1.1838048
0.96693039
0.72851011
0.46725747
0.18184471
-0.12908086
-0.46675776
-0.83225534
-1.2264285
-1.6499926
-2.1035305
-2.5875393
-3.1026497
-3.6497807
-4.2300765
-4.8469758
-5.5113032
-6.2375538
-7.0298518
-7.776325
-6.0310394
-6.0482905
-6.7314687
-7.9792565
-10.453951
-10.308786
-10.099771
-10.053925
-10.440679
-11.302326
-12.092687
-12.576825
-12.831805
-13.213356
-14.074054
-15.361201
-16.425136
-16.480697
-15.255721
-13.150462
-10.82553
-9.010133
-7.8589667
-7.083543
-6.4896565
-6.1059175
-6.0813986
-6.3733755
-5.9376779
-5.7204142
-5.4718031
-5.1534692
-5.2789929
-5.3584239
-4.8937616
-4.4410646
-4.0596477
-3.7523486
-3.5084505
-3.3190506
-3.1762974
-3.0713872
-2.9959078
-2.9428314
-2.9064112
-2.8820665
-2.8661475
-2.8557711
-2.8486758
-2.8431124
-2.8377018
-2.8314418
-2.8237722
-2.8124694
-2.8006221
-2.7864738
-2.7704887
-2.7531863
-2.735113
-2.7168201
-2.6988814
-2.681986
-2.6667281
-2.6534836
-2.6426532
-2.6357663
-2.6311455
2.738404
2.7265004
2.7016932
2.6621371
2.6092827
2.5426636
2.4619085
2.3667348
2.2567337
2.13115
1.9895903
1.831077
1.654339
1.458209
1.2412388
1.0018273
0.738358
0.44918599
0.13258854
-0.21309157
-0.58924465
-0.9970357
-1.4374327
-1.911274
-2.4193561
-2.9628004
-3.5433307
-4.162748
-4.828026
-5.5634386
-6.3852685
-7.2332003
-7.6344444
-5.4870781
-6.8351474
-7.5824087
-7.9308683
-11.249459
-10.751915
-10.125347
-9.6361847
-10.118398
-11.647969
-13.040496
-13.459735
-13.22878
-13.228405
-14.428276
-16.958217
-19.4757
-20.105994
-18.141623
-14.479697
-10.613612
-8.1261309
-7.0853141
-6.4738825
-5.8220049
-5.3524207
-5.6018272
-6.4870044
-6.5914504
-6.4690325
-6.39311
-5.7895288
-4.9870236
-5.4436024
-5.0979372
-4.45923
-3.9488731
-3.5808913
-3.3129546
-3.1189911
-2.9840213
-2.8937501
-2.8358764
-2.8011767
-2.7826512
-2.7749693
-2.7741518
-2.777198
-2.7817334
-2.7859556
-2.7885074
-2.7884565
-2.7847181
-2.7773996
-2.7667872
-2.7528947
-2.7361521
-2.717228
-2.696881
-2.6758305
-2.6548752
-2.6348385
-2.6164699
-2.600228
-2.5867647
-2.5774495
-2.5704558
3.0232294
3.0100067
2.9844799
2.9445595
2.8914871
2.8249487
2.7446056
2.6501656
2.5412089
2.4170854
2.2770822
2.120232
1.9449784
1.7503749
1.5344169
1.2952259
1.0308067
0.73903723
0.41776014
0.064893492
-0.32132246
-0.74240003
-1.1995668
-1.6938426
-2.2261301
-2.7978082
-3.4112924
-4.0683398
-4.7808718
-5.5876539
-6.4687857
-7.3744624
-8.4812231
-8.642336
-8.2861546
-9.1071841
-11.200121
-11.882886
-11.889601
-10.550312
-8.7612417
-9.0351704
-11.600031
-14.589652
-15.17727
-13.737247
-12.096867
-13.561031
-18.640172
-24.37871
-26.38809
-22.90143
-16.01487
-9.1471714
-5.9629226
-5.9279318
-5.9361078
-4.9835795
-4.0135509
-4.7122499
-6.3479136
-7.1366537
-7.9440935
-7.0259424
-6.9660852
-6.3610348
-5.7259917
-5.2635675
-4.4117653
-3.7682351
-3.339945
-3.0589
-2.8742819
-2.7599793
-2.695025
-2.6631951
-2.6533393
-2.6575015
-2.6700037
-2.6868473
-2.7051147
-2.7224743
-2.7372209
-2.7481185
-2.7539969
-2.75472
-2.749964
-2.7400334
-2.7254292
-2.7068462
-2.6851494
-2.6613425
-2.6364137
-2.6113695
-2.5871942
-2.5648005
-2.5447768
-2.528021
-2.5157223
-2.5055716
3.3213783
3.3066707
3.2803073
3.2399248
3.186591
3.1201837
3.0403511
2.946825
2.8392101
2.7168885
2.5790706
2.4246741
2.2522499
2.0601442
1.8465172
1.6090557
1.3452174
1.0523723
0.72780982
0.36893912
-0.026483698
-0.46029333
-0.93390404
-1.4483509
-2.0043712
-2.6031369
-3.2470547
-3.9375143
-4.6890594
-5.5426404
-6.4579502
-7.413116
-8.6851124
-10.270677
-11.540517
-12.547933
-15.347757
-15.593479
-15.774441
-11.903507
-7.12252
-6.5445075
-10.249734
-17.790593
-19.56282
-14.135266
-7.9901434
-9.1673186
-19.719235
-32.132701
-36.827365
-30.738966
-17.462944
-4.1308905
-0.88126533
-4.6826676
-6.3842735
-4.1395902
-1.1292264
-2.3220111
-6.398691
-8.021149
-9.4788288
-8.7868842
-8.3649502
-7.7447021
-6.6096338
-5.2378114
-4.1698081
-3.4286955
-2.9828293
-2.7204798
-2.5717029
-2.4989489
-2.4746999
-2.4800548
-2.5029083
-2.5351853
-2.5715979
-2.6086304
-2.6437478
-2.6749631
-2.7007844
-2.7199436
-2.7319537
-2.7363127
-2.7330612
-2.7227168
-2.706076
-2.6841799
-2.6582137
-2.6294585
-2.5992186
-2.5687347
-2.5392254
-2.5117351
-2.4870369
-2.4662332
-2.4503503
-2.4364391
3.6328371
3.6161718
3.588755
3.5477781
3.494081
3.4277392
3.3484177
3.2559016
3.1498676
3.0297597
2.8947649
2.7437068
2.5750719
2.387005
2.1772995
1.9433543
1.6819832
1.389986
1.0639536
0.70066443
0.29727304
-0.14843975
-0.63795611
-1.1720347
-1.7508384
-2.374699
-3.0451311
-3.7627422
-4.5413149
-5.4265398
-6.3991722
-7.4182985
-8.6869775
-10.381399
-12.38954
-14.545093
-17.345438
-19.564809
-19.063459
-13.293703
-3.0983532
0.82768373
-8.0303475
-26.129847
-31.179442
-15.832223
4.1461596
4.6478065
-18.163386
-44.221339
-55.11888
-43.529482
-18.321347
10.647062
10.490584
-4.4863238
-10.300044
-3.8628363
5.7183933
2.1858836
-6.4874838
-11.02289
-11.946255
-10.645296
-9.3820802
-8.1859921
-6.770284
-5.0162288
-3.6917001
-2.8820424
-2.4708739
-2.2771968
-2.2032642
-2.2002997
-2.2363654
-2.2921051
-2.3562592
-2.422158
-2.4859471
-2.5452818
-2.598513
-2.6444112
-2.6812788
-2.7088745
-2.7262413
-2.7331835
-2.7300212
-2.7176141
-2.6971243
-2.6699692
-2.6378136
-2.6022546
-2.564928
-2.5273696
-2.4910603
-2.457224
-2.4267994
-2.4010993
-2.3809658
-2.3627454
3.9570244
3.937964
3.909302
3.8675065
3.8132605
3.7467929
3.6678768
3.5763896
3.4721054
3.3545402
3.2228817
3.0759998
2.9123339
2.7298215
2.5259548
2.2976144
2.0411
1.7523807
1.4271975
1.0615383
0.65181547
0.19531042
-0.30942801
-0.86257534
-1.4631862
-2.1098849
-2.801955
-3.5379995
-4.3275313
-5.2167333
-6.220909
-7.2984183
-8.5714647
-10.249617
-12.493607
-15.717753
-20.17856
-24.082222
-29.566307
-17.722888
6.6054445
24.87623
9.1104085
-40.579156
-60.42235
-29.248164
25.313354
37.7247
-8.6262645
-69.876385
-93.857268
-64.401724
-14.013378
50.737316
29.719349
-11.423529
-21.171184
-5.5890514
23.870563
10.047814
-11.345706
-18.185148
-16.032194
-12.616317
-9.8225567
-7.5571283
-5.6109917
-3.8492942
-2.6342255
-1.9920729
-1.7510097
-1.7117989
-1.7686807
-1.8712974
-1.990149
-2.1099649
-2.2235458
-2.3277142
-2.4213615
-2.5042984
-2.5763635
-2.6370304
-2.6852752
-2.7204179
-2.741987
-2.7499271
-2.744858
-2.7281012
-2.7013122
-2.666409
-2.6255256
-2.5807871
-2.5341928
-2.4876293
-2.4427887
-2.4011134
-2.3637213
-2.3321533
-2.3071174
-2.2839771
4.2933067
4.2714757
4.2412867
4.1983762
4.1432322
4.0763368
3.9975971
3.9070004
3.8044371
3.6895369
3.5616358
3.4197076
3.262154
3.0868302
2.8908735
2.6706854
2.4219093
2.1395528
1.8182408
1.4528345
1.0388113
0.57280176
0.053427213
-0.51863548
-1.1407521
-1.8087817
-2.5180042
-3.2622723
-4.04152
-4.889493
-5.8450254
-6.8870047
-8.0700882
-9.640386
-11.996826
-15.926025
-22.202798
-30.979504
-50.509852
-38.544962
17.301635
76.186043
97.612786
-40.11664
-132.96374
-87.862138
55.46738
77.034329
180.77223
1018.3937
1197.6589
530.30944
46.733047
183.82547
38.598781
-58.903626
-32.194344
67.135663
66.188766
23.851598
-29.308809
-32.660394
-22.197379
-14.789764
-9.5048855
-5.7700456
-3.1994433
-1.7126016
-0.9491992
-0.72939499
-0.82252613
-1.0389607
-1.2886931
-1.5336049
-1.75614
-1.9513877
-2.1200414
-2.2647457
-2.388885
-2.4954929
-2.5862635
-2.6613274
-2.7199973
-2.7615722
-2.7856177
-2.7922884
-2.7825587
-2.7583109
-2.7219075
-2.6759339
-2.6231303
-2.5661897
-2.507638
-2.4497015
-2.3943187
-2.3431047
-2.2974693
-2.2589236
-2.2284023
-2.1999494
4.641087
4.6160797
4.5839956
4.5395385
4.48304
4.4152436
4.3362011
4.2460478
4.1448729
4.0325347
3.9086142
3.7721807
3.6217739
3.4552682
3.2695266
3.0604268
2.8228829
2.5507241
2.2371504
1.8753755
1.4595015
0.98535405
0.45153792
-0.14025396
-0.78521478
-1.4754946
-2.2008404
-2.9473757
-3.6995863
-4.4619272
-5.2616457
-6.0842436
-6.9428543
-8.0979137
-10.035116
-13.651401
-20.18401
-29.645228
-32.80126
64.109377
-23.270607
165.23943
426.26225
66.371514
2223.2729
3947.2249
1062.5142
-808.75286
2342.5655
6882.2401
8233.8805
5452.7925
784.72869
-1427.8644
635.40403
1820.154
524.80094
340.92227
167.77606
-28.301653
-52.253688
-53.085141
-30.823234
-16.229423
-7.4853308
-2.4108465
0.2446637
1.1641116
1.1979989
0.78527191
0.2243791
-0.32823717
-0.81740765
-1.2296524
-1.5677174
-1.8424273
-2.066158
-2.2499165
-2.4026973
-2.5313864
-2.6394583
-2.7275772
-2.795197
-2.841388
-2.8653615
-2.8674608
-2.8491859
-2.8131342
-2.762652
-2.701246
-2.6324348
-2.5595785
-2.4858042
-2.4136772
-2.3454673
-2.282734
-2.2278307
-2.1818273
-2.1445512