/*--------------------------------*- C++ -*----------------------------------*\
  =========                 |
  \\      /  F ield         | OpenFOAM: The Open Source CFD Toolbox
   \\    /   O peration     | Website:  https://openfoam.org
    \\  /    A nd           | Version:  9
     \\/     M anipulation  |
\*---------------------------------------------------------------------------*/
FoamFile
{
    format      ascii;
    class       surfaceScalarField;
    location    "0.41";
    object      phi;
}
// * * * * * * * * * * * * * * * * * * * * * * * * * * * * * * * * * * * * * //

dimensions      [0 3 -1 0 0 0 0];

internalField   nonuniform List<scalar> 
19800
(
-5.3840876e-05
6.9131726e-05
-9.2497503e-05
7.025002e-05
-0.00013149093
7.1221426e-05
-0.00017108539
7.2766903e-05
-0.00021119679
7.42046e-05
-0.00025190671
7.5999692e-05
-0.00029323414
7.7885481e-05
-0.00033516615
7.9838018e-05
-0.00037767773
8.1793556e-05
-0.0004207143
8.3672243e-05
-0.00046416856
8.5406809e-05
-0.00050786459
8.688285e-05
-0.00055166359
8.808988e-05
-0.00059532603
8.8841345e-05
-0.00063863676
8.9111409e-05
-0.00068132466
8.8781822e-05
-0.0007230617
8.7758361e-05
-0.00076349192
8.5959124e-05
-0.00080225837
8.3309033e-05
-0.00083898676
7.974806e-05
-0.0008732407
7.5191997e-05
-0.0009046185
6.9691361e-05
-0.00093269337
6.3262323e-05
-0.00095697862
5.5750942e-05
-0.00097692281
4.7326587e-05
-0.00099186023
3.7925826e-05
-0.0010018009
2.7485723e-05
-0.0010068385
1.6064818e-05
-0.001007191
3.7690484e-06
-0.001002965
-8.0878347e-06
-0.00099243201
-1.9952786e-05
-0.00097589243
-3.1455817e-05
-0.00095350481
-4.2634167e-05
-0.00092543706
-5.3244014e-05
-0.00089198473
-6.3119392e-05
-0.0008534038
-7.2232838e-05
-0.00080985801
-8.0506872e-05
-0.00076158602
-8.7461739e-05
-0.0007088555
-9.2991249e-05
-0.00065189246
-9.7858969e-05
-0.00059082839
-0.00010171933
-0.00052558314
-0.00010452289
-0.00045640357
-0.00010636772
-0.00038353866
-0.00010725795
-0.00030717704
-0.00010772488
-0.0002276641
-0.00010784829
-0.0001454216
-0.00010798287
-6.0739947e-05
-0.00010823415
2.575958e-05
-0.00010843631
0.00011348921
-0.00010867732
0.00020179377
-0.00010905668
0.00029010698
-0.00010941417
0.00037775343
-0.00010974296
0.00046390269
-0.00010975304
0.00054797005
-0.00010956962
0.00062930643
-0.00010864369
0.00070731002
-0.00010715922
0.00078120493
-0.00010451208
0.00085058827
-0.0001007137
0.00091497432
-9.5866203e-05
0.00097391922
-8.922946e-05
0.0010270396
-8.1580263e-05
0.0010737913
-7.2285794e-05
0.0011138767
-6.1981955e-05
0.0011469435
-5.0245843e-05
0.00117273
-3.7721225e-05
0.0011908594
-2.4148083e-05
0.0012011887
-9.4954736e-06
0.0012075636
5.1041105e-06
0.0012081988
1.9281105e-05
0.0012015712
3.3351377e-05
0.0011880339
4.5528278e-05
0.0011674855
5.6244377e-05
0.0011409891
6.5873654e-05
0.0011094362
7.4525213e-05
0.0010734899
8.2131213e-05
0.0010337657
8.859215e-05
0.00099085973
9.3867698e-05
0.00094531197
9.7953594e-05
0.00089767712
0.00010086867
0.0008484802
0.00010268541
0.00079818095
0.00010344797
0.00074718033
0.0001032754
0.00069592379
0.00010227009
0.00064475742
0.00010059464
0.00059400063
9.8281078e-05
0.00054395403
9.5463406e-05
0.0004947946
9.2238438e-05
0.00044672457
8.8759862e-05
0.00039990411
8.5088606e-05
0.00035440624
8.1399274e-05
0.00031029931
7.7676305e-05
0.00026761015
7.4068781e-05
0.0002263319
7.0560182e-05
0.00018640895
6.7267162e-05
0.00014778726
6.4208606e-05
0.00011040511
6.1469192e-05
7.4111896e-05
5.8891141e-05
3.8581072e-05
5.7128459e-05
5.4961143e-05
-5.2792294e-05
0.00010688043
-9.1025989e-05
0.00010849615
-0.00012968392
0.00010988284
-0.00016891298
0.00011199866
-0.00020880209
0.00011409474
-0.00024934723
0.00011654389
-0.00029056979
0.00011911007
-0.00033248653
0.00012175189
-0.00037505778
0.00012436694
-0.0004182141
0.00012682855
-0.00046186191
0.00012905946
-0.00050587584
0.00013090437
-0.00055011415
0.00013233178
-0.00059435135
0.00013308221
-0.0006383245
0.00013308629
-0.00068175396
0.00013221136
-0.00072434819
0.00013035473
-0.00076576851
0.00012737951
-0.00080562637
0.00012316295
-0.00084348294
0.00011760126
-0.0008789361
0.00011064391
-0.00091150654
0.00010226194
-0.00094067749
9.2434136e-05
-0.00096599215
8.1063811e-05
-0.00098697641
6.8305026e-05
-0.0010032394
5.4184122e-05
-0.0010144866
3.8733023e-05
-0.0010205329
2.2112919e-05
-0.0010213949
4.6298566e-06
-0.0010162883
-1.3197942e-05
-0.0010051598
-3.1083807e-05
-0.00098793131
-4.8683201e-05
-0.00096470467
-6.5856827e-05
-0.00093563566
-8.2309298e-05
-0.00090094499
-9.7809078e-05
-0.00086096289
-0.0001122165
-0.0008160486
-0.00012542255
-0.0007664332
-0.00013707555
-0.00071218598
-0.00014723637
-0.00065389388
-0.00015615216
-0.00059195065
-0.00016366278
-0.00052618686
-0.0001702834
-0.00045670604
-0.00017584652
-0.00038360173
-0.00018036294
-0.00030716099
-0.00018416695
-0.00022761326
-0.00018739449
-0.00014537737
-0.00019021398
-6.0880545e-05
-0.00019272991
2.5415571e-05
-0.0001947352
0.00011309288
-0.00019635574
0.00020150203
-0.00019746337
0.00028999188
-0.00019789838
0.0003779092
-0.00019765606
0.0004644671
-0.00019631067
0.00054901004
-0.00019411317
0.00063098924
-0.00019062074
0.00070972969
-0.0001858966
0.00078453378
-0.00017931481
0.00085510407
-0.00017128047
0.00092076464
-0.00016152244
0.00098128738
-0.00014974905
0.0010359191
-0.00013620907
0.0010842499
-0.00012061068
0.0011257644
-0.00010349671
0.0011602503
-8.4731814e-05
0.0011872938
-6.4766101e-05
0.0012068454
-4.3698982e-05
0.0012192097
-2.1864064e-05
0.001224224
8.2274294e-08
0.0012220422
2.1457438e-05
0.0012136053
4.1783597e-05
0.0011984852
6.0644408e-05
0.0011769436
7.7783127e-05
0.0011494816
9.3334103e-05
0.0011167991
0.00010720442
0.001079602
0.0001193255
0.0010385647
0.00012962791
0.00099432112
0.00013811486
0.00094750085
0.00014477661
0.00089861955
0.00014974965
0.00084825354
0.00015305316
0.00079689032
0.00015481572
0.0007449975
0.00015517235
0.00069294886
0.00015432028
0.00064116266
0.00015238286
0.00058993983
0.00014950662
0.0005395194
0.00014588661
0.00049008344
0.00014167655
0.00044186136
0.00013698428
0.00039499449
0.00013196198
0.00034958541
0.00012681583
0.00030564881
0.00012161899
0.00026321134
0.00011651131
0.00022223228
0.0001115438
0.00018266812
0.0001068345
0.00014443119
0.00010244866
0.00010749817
9.8406896e-05
7.1643857e-05
9.4750969e-05
3.67516e-05
9.2028126e-05
8.8742045e-05
-5.1679899e-05
0.00014426678
-8.953109e-05
0.00014635191
-0.00012789419
0.00014824666
-0.00016682308
0.00015092836
-0.00020652481
0.00015379445
-0.00024689639
0.00015691652
-0.00028811705
0.00016032667
-0.00033005969
0.00016369442
-0.00037272278
0.00016702748
-0.00041622985
0.00017033673
-0.00046031355
0.000173148
-0.00050492839
0.0001755212
-0.00054970231
0.00017710803
-0.00059462188
0.00017800313
-0.00063945976
0.00017792398
-0.00068397862
0.00017673229
-0.0007277459
0.00017412327
-0.00077041622
0.00017004745
-0.00081151793
0.00016426239
-0.00085082249
0.00015690575
-0.00088766905
0.00014749187
-0.00092167794
0.0001362732
-0.00095231127
0.00012306837
-0.00097913847
0.00010788851
-0.0010015859
9.0749999e-05
-0.0010191911
7.1790731e-05
-0.0010315834
5.1127916e-05
-0.0010385078
2.9036673e-05
-0.0010392848
5.4032304e-06
-0.0010340605
-1.8425403e-05
-0.0010227677
-4.237728e-05
-0.0010050507
-6.6399267e-05
-0.00098109197
-8.981489e-05
-0.00095096597
-0.00011243672
-0.00091497146
-0.00013380592
-0.00087352475
-0.00015366444
-0.00082692357
-0.00017202507
-0.00077547853
-0.00018852219
-0.00071949453
-0.0002032201
-0.00065946806
-0.0002161774
-0.00059551794
-0.00022761151
-0.0005280762
-0.00023772418
-0.00045734733
-0.00024657708
-0.00038343276
-0.00025427807
-0.00030656672
-0.0002610295
-0.0002270204
-0.0002669366
-0.00014486627
-0.00027236614
-6.0824329e-05
-0.00027677458
2.5068691e-05
-0.00028063173
0.00011236317
-0.00028364978
0.00020039634
-0.00028549473
0.00028866368
-0.00028616382
0.00037660671
-0.00028559672
0.00046347973
-0.00028318149
0.00054868928
-0.00027932194
0.00063183822
-0.00027376943
0.00071195369
-0.000266011
0.00078887497
-0.00025623594
0.00086159361
-0.00024399893
0.00092964009
-0.00022956691
0.00099245534
-0.0002125611
0.0010494117
-0.00019316111
0.001099989
-0.000171187
0.0011434793
-0.00014698224
0.0011794829
-0.00012073478
0.001207682
-9.2965854e-05
0.0012280262
-6.4047393e-05
0.0012406581
-3.449828e-05
0.0012459036
-5.1653238e-06
0.0012431859
2.4174176e-05
0.0012333288
5.1639274e-05
0.0012165416
7.7430106e-05
0.0011932019
0.00010111972
0.0011639565
0.00012257811
0.0011294845
0.00014167542
0.0010904326
0.00015837743
0.001047521
0.00017253919
0.0010015048
0.00018413135
0.00095287568
0.00019340912
0.00090235783
0.00020027035
0.00085047698
0.00020493526
0.00079779491
0.00020749894
0.00074456095
0.00020840718
0.00069149984
0.00020737958
0.00063871126
0.00020517193
0.00058661423
0.00020160208
0.00053562477
0.00019687682
0.0004857625
0.00019154273
0.00043725218
0.00018549827
0.00039019545
0.00017902355
0.00034468445
0.00017233386
0.00030071833
0.00016558719
0.00025840752
0.00015882544
0.00021764912
0.00015230469
0.00017834067
0.00014614551
0.00014039754
0.00014038663
0.00010389365
0.00013491254
6.8543279e-05
0.00013010183
3.4254523e-05
0.00012631999
0.00012151559
-5.0208182e-05
0.0001810862
-8.7555648e-05
0.00018370411
-0.00012548487
0.00018617744
-0.00016406252
0.0001895059
-0.00020342022
0.00019315423
-0.00024368643
0.0001971796
-0.00028478841
0.0002014283
-0.00032673993
0.00020564284
-0.00036976643
0.00021005324
-0.00041351
0.00021408344
-0.00045801923
0.00021765791
-0.00050309082
0.00022059334
-0.00054881641
0.00022283371
-0.00059484183
0.00022402726
-0.00064086758
0.00022395071
-0.00068654104
0.0002224071
-0.00073167602
0.00021925644
-0.00077593796
0.0002143073
-0.00081888292
0.00020720776
-0.00085989386
0.00019791884
-0.00089867824
0.00018627919
-0.00093462189
0.00017221872
-0.00096713371
0.00015557937
-0.00099575477
0.0001365087
-0.0010198493
0.00011484691
-0.0010390002
9.0945108e-05
-0.0010526617
6.4789582e-05
-0.0010604298
3.6801751e-05
-0.0010622689
7.2398354e-06
-0.0010576311
-2.3063695e-05
-0.0010461137
-5.3895246e-05
-0.0010279455
-8.4569395e-05
-0.0010030622
-0.00011470082
-0.00097188511
-0.00014361654
-0.00093460956
-0.00017108386
-0.00089161242
-0.00019666303
-0.00084357594
-0.00022006357
-0.00079074578
-0.00024135457
-0.00073353835
-0.0002604259
-0.00067211077
-0.00027760173
-0.0006070864
-0.0002926363
-0.00053863389
-0.00030617948
-0.00046677503
-0.00031843797
-0.00039193234
-0.00032911882
-0.00031417842
-0.00033877893
-0.00023361779
-0.00034749591
-0.00015053499
-0.00035545019
-6.5128051e-05
-0.00036218408
2.192047e-05
-0.00036768258
0.00011042151
-0.00037215049
0.00019982381
-0.00037489549
0.00028960161
-0.0003759394
0.00037938899
-0.00037538234
0.00046838727
-0.00037218015
0.00055580032
-0.00036673643
0.0006410518
-0.00035902134
0.00072348886
-0.00034844756
0.00080258732
-0.00033533438
0.00087767659
-0.00031908828
0.00094807717
-0.00029996541
0.0010130946
-0.00027757788
0.0010721341
-0.00025219726
0.0011245966
-0.00022365001
0.0011697528
-0.0001921399
0.001207164
-0.00015814527
0.0012363498
-0.00012215258
0.0012571099
-8.480324e-05
0.001269401
-4.6788668e-05
0.001273294
-9.061798e-06
0.0012696911
2.7774678e-05
0.0012582573
6.3072157e-05
0.0012395218
9.6166816e-05
0.0012140132
0.00012662872
0.0011824586
0.00015413078
0.0011456173
0.00017851793
0.0011041249
0.0001998727
0.001058865
0.00021780034
0.0010104082
0.00023258957
0.00095961429
0.00024420565
0.00090695934
0.0002529258
0.00085305897
0.00025883514
0.00079837608
0.00026217891
0.00074374536
0.00026303761
0.00068906679
0.00026205837
0.00063510661
0.00025912982
0.00058218783
0.00025451806
0.00053021533
0.00024884896
0.00047969224
0.0002420717
0.00043071719
0.00023447744
0.00038339342
0.00022634741
0.00033787564
0.00021785603
0.00029409811
0.00020936708
0.00025196069
0.00020096283
0.00021145577
0.00019281094
0.00017263999
0.00018496524
0.00013533972
0.00017769141
9.9215376e-05
0.00017103703
6.4431484e-05
0.00016488311
3.0777908e-05
0.00015997468
0.00015392121
-4.8161471e-05
0.00021721229
-8.4932617e-05
0.00022047839
-0.0001222755
0.00022351903
-0.00016042888
0.00022766134
-0.00019943261
0.00023215417
-0.00023941289
0.00023715831
-0.00028041583
0.00024242674
-0.00032258036
0.00024780454
-0.00036569296
0.00025316733
-0.00040983952
0.00025822974
-0.00045497363
0.0002627913
-0.000500991
0.00026660983
-0.00054767941
0.00026952007
-0.00059481324
0.00027116126
-0.00064227343
0.0002714121
-0.00068968202
0.00026981376
-0.00073674224
0.00026631359
-0.00078295978
0.00026052423
-0.00082799167
0.00025224126
-0.00087143003
0.00024135961
-0.00091258432
0.00022743488
-0.00095095926
0.00021059255
-0.0009860395
0.00019065838
-0.0010170853
0.00016755689
-0.0010436373
0.00014140297
-0.001064903
0.00011221171
-0.0010804139
8.0298223e-05
-0.0010896707
4.6057535e-05
-0.0010923354
9.9059663e-06
-0.0010880324
-2.7366134e-05
-0.0010763512
-6.5579171e-05
-0.001057454
-0.00010347081
-0.0010313634
-0.00014079348
-0.00099845429
-0.00017652592
-0.00095926114
-0.00021027837
-0.00091420012
-0.00024172583
-0.00086393641
-0.00027032736
-0.00080897209
-0.00029631804
-0.00074976373
-0.00031963282
-0.00068680365
-0.00034056205
-0.00062019205
-0.00035925202
-0.00055034358
-0.00037603137
-0.00047757014
-0.00039121174
-0.0004017716
-0.00040491603
-0.00032309342
-0.00041745557
-0.00024166261
-0.00042892728
-0.00015772645
-0.00043938737
-7.1340338e-05
-0.0004485721
1.7252643e-05
-0.0004562781
0.00010751622
-0.00046241301
0.00019916821
-0.00046654451
0.00029111411
-0.00046788431
0.00038273618
-0.00046700558
0.00047391283
-0.00046335844
0.00056386872
-0.00045669264
0.00065153341
-0.00044668556
0.00073662748
-0.00043354271
0.00081844936
-0.00041715744
0.00089641248
-0.00039705167
0.0009696822
-0.00037323608
0.0010378292
-0.0003457257
0.0010998689
-0.00031424143
0.0011551522
-0.00027893033
0.0012027431
-0.0002397346
0.0012421672
-0.0001975677
0.0012727904
-0.00015277563
0.0012942933
-0.00010630284
0.0013067375
-5.9230836e-05
0.0013100509
-1.2378206e-05
0.0013046621
3.3161124e-05
0.0012909916
7.6740341e-05
0.0012696047
0.00011755446
0.0012412315
0.00015500365
0.0012065841
0.00018877838
0.0011664301
0.00021867191
0.0011218755
0.00024442563
0.0010733888
0.00026628624
0.0010219382
0.00028403997
0.00096810337
0.00029804045
0.00091268423
0.00030834774
0.00085626162
0.00031526036
0.00079938965
0.00031904918
0.00074247109
0.00031995496
0.00068615315
0.00031837734
0.00063067995
0.00031460412
0.00057628452
0.00030891793
0.00052340329
0.00030173334
0.00047217748
0.00029330183
0.00042274434
0.00028391098
0.00037518026
0.00027391063
0.0003295015
0.0002635363
0.00028575963
0.00025310969
0.00024384428
0.00024287639
0.00020379746
0.00023286384
0.00016540065
0.00022336644
0.00012858943
0.00021450405
9.3150511e-05
0.00020647645
5.9073736e-05
0.00019896004
2.5984859e-05
0.00019306056
0.00018600257
-4.5692524e-05
0.00025242668
-8.1641748e-05
0.00025642811
-0.0001182957
0.00026017424
-0.00015581893
0.00026518081
-0.00019444114
0.00027077404
-0.00023414944
0.00027686084
-0.00027506452
0.00028333724
-0.0003172273
0.00028996724
-0.00036065274
0.00029659158
-0.000405336
0.00030291119
-0.00045118452
0.00030863781
-0.00049819032
0.00031361259
-0.00054606459
0.00031739378
-0.0005947765
0.00031987452
-0.00064388287
0.00032051678
-0.00069330862
0.00031923539
-0.00074252007
0.00031552261
-0.00079121798
0.00030922231
-0.00083895233
0.00029997706
-0.00088512262
0.0002875305
-0.00092930551
0.00027161565
-0.00097079825
0.00025208242
-0.0010089401
0.00022880081
-0.0010431018
0.00020172199
-0.0010724569
0.00017075957
-0.0010964748
0.00013622791
-0.0011143386
9.8161386e-05
-0.0011254761
5.7197742e-05
-0.0011293571
1.3789316e-05
-0.0011254649
-3.1259676e-05
-0.0011136542
-7.7393477e-05
-0.0010938216
-0.0001233055
-0.0010663326
-0.00016828152
-0.0010314298
-0.00021142636
-0.000989547
-0.0002521609
-0.00094197169
-0.0002893014
-0.00088899501
-0.00032330181
-0.00083140922
-0.00035390231
-0.00076977926
-0.00038126453
-0.00070462598
-0.00040571875
-0.0006362368
-0.00042764603
-0.00056485015
-0.00044742218
-0.00049060497
-0.00046545929
-0.00041361761
-0.00048190408
-0.00033389999
-0.00049717173
-0.00025136134
-0.00051146603
-0.00016642934
-0.00052432065
-7.8721264e-05
-0.00053628041
1.137097e-05
-0.0005463695
0.00010363975
-0.00055468019
0.00019711634
-0.00056002189
0.00029158899
-0.00056236022
0.00038617257
-0.00056158957
0.0004802726
-0.00055745733
0.00057302612
-0.00054944694
0.00066398729
-0.00053764619
0.00075237642
-0.00052193032
0.00083768546
-0.00050246913
0.00091920719
-0.00047857685
0.00099619911
-0.00045023407
0.0010682718
-0.0004177966
0.0011342036
-0.00038017798
0.0011930681
-0.00033779477
0.0012439035
-0.00029056753
0.0012858872
-0.00023954926
0.0013182879
-0.0001851767
0.0013407659
-0.00012878116
0.0013529346
-7.1400175e-05
0.001355138
-1.4585653e-05
0.0013477469
4.0552958e-05
0.0013313573
9.313103e-05
0.0013067208
0.00014219069
0.0012746759
0.0001870472
0.0012361557
0.00022729724
0.0011921483
0.00026267752
0.0011434498
0.00029312043
0.001091097
0.00031863549
0.0010357685
0.00033936959
0.00097838532
0.0003554243
0.0009195428
0.00036719079
0.00086000879
0.00037479301
0.00080021774
0.00037883676
0.0007408846
0.00037928831
0.00068233535
0.00037692524
0.00062498563
0.00037195269
0.00056912207
0.00036478337
0.00051502723
0.00035582643
0.00046293178
0.00034539454
0.00041281549
0.00033402516
0.00036489898
0.00032182774
0.00031905964
0.0003093743
0.00027539451
0.00029677645
0.00023385946
0.00028441528
0.00019428842
0.00027243594
0.00015653564
0.00026112128
0.00012042303
0.00025061889
8.5871252e-05
0.0002410329
5.2643054e-05
0.00023218804
2.0459293e-05
0.00022524309
0.00021703624
-4.267693e-05
0.00028649392
-7.7620767e-05
0.00029137485
-0.00011341018
0.00029595935
-0.00015027454
0.00030204333
-0.00018834204
0.00030883508
-0.00022773299
0.00031624597
-0.00026847706
0.00032408014
-0.00031071526
0.00033220377
-0.00035436578
0.00034023986
-0.00039960832
0.00034815098
-0.00044632356
0.00035534895
-0.00049432238
0.00036160995
-0.0005436539
0.00036672697
-0.00059395903
0.00037017907
-0.00064516678
0.00037172053
-0.00069685495
0.00037091986
-0.00074874988
0.00036741624
-0.00080039157
0.00036086476
-0.00085127471
0.00035086098
-0.0009009342
0.00033718798
-0.00094865821
0.00031933567
-0.00099383901
0.0002972616
-0.0010357677
0.00027073125
-0.0010735602
0.00023951539
-0.0011065822
0.00020377971
-0.0011338404
0.00016348498
-0.0011547213
0.00011904439
-0.0011682551
7.0734173e-05
-0.0011738116
1.9345204e-05
-0.0011708515
-3.422243e-05
-0.0011590699
-8.9176086e-05
-0.0011381721
-0.00014420173
-0.0011086746
-0.00019777626
-0.0010710641
-0.00024903325
-0.0010262588
-0.00029696299
-0.00097512959
-0.00034042976
-0.00091874247
-0.00037968936
-0.0008579748
-0.00041467186
-0.00079349171
-0.00044575095
-0.00072582016
-0.00047339324
-0.00065529143
-0.00049817926
-0.00058214079
-0.00052057831
-0.00050651822
-0.00054108431
-0.00042821386
-0.00056020781
-0.00034742806
-0.00057795679
-0.00026391928
-0.00059497769
-0.00017745556
-0.00061078619
-8.8293699e-05
-0.00062543899
3.8001034e-06
-0.00063846038
9.8114708e-05
-0.00064899507
0.00019429775
-0.0006562054
0.00029181125
-0.00065987399
0.00038982099
-0.00065959869
0.00048758878
-0.00065522466
0.00058399765
-0.00064585816
0.00067892951
-0.00063258049
0.00077140177
-0.00061440213
0.00086073902
-0.00059180769
0.00094662814
-0.00056446586
0.0010283986
-0.00053200638
0.0011049438
-0.00049434422
0.0011755493
-0.00045078442
0.0012388166
-0.00040106002
0.0012938888
-0.00034563662
0.0013390397
-0.0002846987
0.0013736898
-0.00021982645
0.0013970229
-0.00015211658
0.0014088596
-8.3237088e-05
0.0014095294
-1.5258603e-05
0.0013995407
5.0541257e-05
0.0013796974
0.00011297785
0.0013509928
0.00017089696
0.0013144492
0.00022358943
0.0012712116
0.00027053274
0.0012222868
0.00031160034
0.0011687383
0.00034666818
0.0011115447
0.00037582945
0.0010517007
0.000399216
0.00098993229
0.00041719405
0.00092712393
0.00042999853
0.00086384926
0.00043807156
0.00080088791
0.00044180137
0.00073851007
0.00044166661
0.00067735335
0.0004380821
0.00061781944
0.00043148848
0.0005602005
0.00042240226
0.0005047359
0.00041128951
0.0004514956
0.00039863486
0.00040075182
0.00038477059
0.00035234684
0.00037023218
0.00030648803
0.00035523166
0.00026304986
0.00034021564
0.00022189228
0.00032557604
0.00018296561
0.00031136292
0.0001460496
0.00029803363
0.00011084924
0.00028581834
7.7246543e-05
0.00027463504
4.5054186e-05
0.00026437724
1.3996316e-05
0.00025629801
0.00024667601
-3.8974114e-05
0.00031912237
-7.2734186e-05
0.00032513293
-0.0001075224
0.00033074673
-0.00014352049
0.00033803573
-0.00018093663
0.00034624529
-0.00021984512
0.00035515247
-0.00026035592
0.00036458886
-0.00030260789
0.00037445355
-0.00034671665
0.0003843457
-0.00039241723
0.00039384663
-0.00043998372
0.00040291291
-0.0004892998
0.0004109278
-0.00054013652
0.00041756477
-0.00059245669
0.0004224969
-0.00064593457
0.00042519507
-0.0007003378
0.00042532123
-0.00075528932
0.00042236827
-0.00081028505
0.00041586227
-0.00086492315
0.00040549892
-0.00091850199
0.00039076369
-0.00097052785
0.00037135887
-0.0010202164
0.00034695024
-0.0010666067
0.00031712165
-0.0011090761
0.00028198252
-0.0011464745
0.00024117558
-0.0011779428
0.00019495323
-0.0012024377
0.00014354038
-0.0012189973
8.7293127e-05
-0.0012266986
2.704456e-05
-0.0012248086
-3.6113306e-05
-0.0012128877
-0.00010109604
-0.0011908022
-0.00016628569
-0.0011587214
-0.00022985503
-0.0011174612
-0.00029028948
-0.0010686388
-0.00034578165
-0.0010132022
-0.00039586786
-0.00095266805
-0.0004402276
-0.00088805657
-0.00047928554
-0.00082010573
-0.00051370409
-0.00074950802
-0.00054399551
-0.00067674521
-0.00057094785
-0.00060183851
-0.00059548797
-0.00052471656
-0.00061820494
-0.0004455369
-0.00063938683
-0.00036378811
-0.00065970696
-0.00027924075
-0.00067952676
-0.00019157593
-0.00069845062
-0.00010065872
-0.00071635443
-6.5496123e-06
-0.00073256941
9.0655815e-05
-0.00074620023
0.00019035948
-0.00075590558
0.00029173122
-0.00076124446
0.00039401629
-0.0007618846
0.00049584431
-0.00075705085
0.00059699826
-0.00074701205
0.00069624937
-0.00073183591
0.00079318627
-0.00071133938
0.00088723222
-0.00068584984
0.00097818496
-0.00065541926
0.0010651761
-0.00061899748
0.0011473645
-0.000576532
0.0012240451
-0.00052746426
0.0012932373
-0.00047024934
0.0013533652
-0.00040576325
0.0014028491
-0.00033418533
0.0014401695
-0.00025714679
0.0014644676
-0.00017641283
0.0014758638
-9.4628e-05
0.0014744921
-1.3887901e-05
0.0014611274
6.3904728e-05
0.0014368843
0.00013722035
0.0014030412
0.00020473915
0.0013609093
0.00026572031
0.00131179
0.00031964766
0.0012569557
0.00036642917
0.0011975802
0.00040604127
0.0011347583
0.00043865204
0.0010694849
0.00046448839
0.0010025913
0.00048408677
0.00093505834
0.00049752918
0.00086750216
0.00050562385
0.00080057152
0.0005087286
0.00073483972
0.00050739518
0.00067078178
0.00050213935
0.00060875653
0.00049351349
0.0005490734
0.00048208501
0.00049195815
0.00046840565
0.00043760507
0.00045298662
0.00038606078
0.00043631339
0.00033740139
0.00041888582
0.00029151988
0.00040111063
0.00024836118
0.00038337436
0.0002078187
0.00036611786
0.00016964963
0.00034953374
0.00013364181
0.00033404408
9.9602549e-05
0.00031985944
6.7221178e-05
0.00030701301
3.6172917e-05
0.00029542095
6.0397964e-06
0.00028642912
0.00027430756
-3.4438849e-05
0.00034986252
-6.6812541e-05
0.00035750927
-0.00010037415
0.00036430383
-0.00013545904
0.00037311607
-0.00017202336
0.00038280775
-0.00021035738
0.00039348406
-0.00025059878
0.00040482842
-0.00029272614
0.00041657849
-0.00033701076
0.00042862517
-0.00038341155
0.0004402439
-0.00043197177
0.00045147444
-0.00048259683
0.00046155518
-0.00053524371
0.0004702116
-0.00058971003
0.00047696166
-0.00064584829
0.0004813321
-0.00070328708
0.00048276062
-0.00076167307
0.00048075688
-0.00082058651
0.00047477768
-0.00087955731
0.00046446878
-0.00093783817
0.00044904261
-0.00099478333
0.00042830347
-0.0010495926
0.000401759
-0.0011014846
0.00036901131
-0.0011493153
0.00032981013
-0.0011921916
0.00028405009
-0.0012287532
0.00023151339
-0.0012578892
0.00017267436
-0.0012783324
0.00010773479
-0.0012889172
3.7629447e-05
-0.0012885864
-3.644443e-05
-0.0012767012
-0.00011298298
-0.0012528749
-0.0001901127
-0.0012174785
-0.00026525014
-0.0011719073
-0.00033585936
-0.0011174863
-0.00040020391
-0.0010563159
-0.00045704243
-0.00099012957
-0.0005064165
-0.00092071597
-0.0005486982
-0.00084895772
-0.00058546418
-0.00077527882
-0.00061768041
-0.00070001361
-0.00064621721
-0.00062342722
-0.00067207455
-0.00054506109
-0.00069657117
-0.00046499356
-0.00071945665
-0.00038265544
-0.00074204485
-0.00029747819
-0.00076470145
-0.00020885386
-0.0007870737
-0.00011627614
-0.00080893081
-1.9689631e-05
-0.00082915344
8.0838805e-05
-0.00084672874
0.0001847125
-0.00085977961
0.00029068352
-0.00086721439
0.00039769706
-0.00086889744
0.00050496739
-0.0008643205
0.00061126761
-0.00085331032
0.00071549645
-0.00083606163
0.0008176513
-0.00081349241
0.00091694197
-0.00078513868
0.0010131079
-0.00075158827
0.001106482
-0.00071237035
0.0011956239
-0.00066567342
0.0012791853
-0.00061103073
0.0013561662
-0.0005472273
0.0014230893
-0.00047268223
0.0014780398
-0.00038913328
0.0015187936
-0.00029790421
0.0015447126
-0.00020233743
0.0015552652
-0.00010518028
0.0015510305
-9.649946e-06
0.0015332654
8.1672733e-05
0.0015034688
0.00016701319
0.0014632572
0.00024494847
0.0014142904
0.0003146872
0.0013580854
0.00037585079
0.0012961548
0.00042835696
0.0012298483
0.00047234699
0.0011603652
0.00050813667
0.001088749
0.00053610938
0.0010160708
0.00055676615
0.00094303734
0.00057055842
0.00087052727
0.00057813281
0.00079917775
0.00058007813
0.00072955115
0.00057701934
0.00066214079
0.00056954976
0.00059730169
0.00055835527
0.00053535044
0.00054403721
0.00047650852
0.00052724789
0.00042091914
0.00050857277
0.00036860736
0.00048862338
0.00031957443
0.0004679203
0.00027376668
0.00044691423
0.00023110885
0.00042602849
0.0001913185
0.0004059086
0.00015418959
0.00038666075
0.00011943726
0.00036879359
8.6816101e-05
0.0003524798
5.6043074e-05
0.00033778806
2.628806e-05
0.00032517463
-2.406593e-06
0.00031512735
0.00030098609
-2.8762186e-05
0.00037829102
-5.9570612e-05
0.0003883162
-9.1766707e-05
0.00039649707
-0.00012562537
0.00040697347
-0.00016133263
0.00041851254
-0.00019898663
0.00043113668
-0.00023878563
0.00044462598
-0.00028095479
0.00045874318
-0.00032538875
0.0004730553
-0.00037245692
0.00048731258
-0.00042188965
0.00050090957
-0.00047394522
0.00051361211
-0.00052848582
0.00052475246
-0.00058534473
0.00053382042
-0.0006443671
0.00054035512
-0.00070530624
0.0005437023
-0.00076759261
0.00054304605
-0.00083095326
0.00053813901
-0.00089472588
0.00052824069
-0.00095837823
0.00051269477
-0.0010211077
0.00049103246
-0.0010820558
0.00046270498
-0.0011403035
0.00042725629
-0.001194703
0.0003842079
-0.0012439863
0.00033333149
-0.0012869003
0.0002744246
-0.0013218639
0.00020763628
-0.0013473566
0.00013322809
-0.0013618074
5.2080067e-05
-0.0013636995
-3.4556972e-05
-0.0013518933
-0.00012479509
-0.001326085
-0.00021592233
-0.0012863605
-0.00030497382
-0.0012344611
-0.00038776171
-0.0011726167
-0.00046205335
-0.0011039677
-0.00052569387
-0.0010314729
-0.00057891178
-0.00095663632
-0.00062353552
-0.00088041927
-0.00066168326
-0.00080313967
-0.00069496177
-0.00072500729
-0.00072435025
-0.00064624563
-0.00075083763
-0.000567073
-0.00077574571
-0.00048653877
-0.00079999206
-0.00040415451
-0.00082442871
-0.00031889077
-0.00084996451
-0.00022967091
-0.00087629189
-0.0001355852
-0.00090301321
-3.6423165e-05
-0.00092831347
6.7904556e-05
-0.00095105822
0.00017644049
-0.00096831399
0.00028814219
-0.00097891171
0.00040162318
-0.00098237834
0.00051503596
-0.00097773286
0.00062712764
-0.00096539878
0.00073716602
-0.00094609469
0.00084437759
-0.00092070239
0.00094926084
-0.00089002258
0.0010516129
-0.00085394321
0.0011513279
-0.00081209018
0.0012488559
-0.00076319935
0.0013420347
-0.00070421204
0.0014281235
-0.00063331613
0.0015046167
-0.00054917509
0.0015668449
-0.00045135849
0.0016124228
-0.00034348345
0.0016398553
-0.00022977083
0.0016488858
-0.00011421246
0.0016407999
-1.5634364e-06
0.0016172455
0.00010522956
0.0015802976
0.00020395781
0.00153212
0.00029312327
0.0014747419
0.00037206319
0.0014100265
0.00044056624
0.0013397043
0.00049867797
0.0012652587
0.00054679153
0.0011880229
0.00058537391
0.0011091454
0.00061498711
0.0010296699
0.00063623855
0.00095048476
0.00064974003
0.00087238695
0.00065623079
0.00079604595
0.00065641699
0.00072205421
0.00065100866
0.00065089876
0.00064070575
0.00058297914
0.00062627476
0.00051854394
0.00060846722
0.00045782412
0.00058796424
0.00040094277
0.00056545582
0.00034792684
0.0005416363
0.00029870491
0.00051714105
0.00025310828
0.00049251013
0.00021096737
0.00046816946
0.00017210452
0.00044477303
0.00013628979
0.00042247352
0.00010310388
0.00040197701
7.2233002e-05
0.00038334999
4.3174352e-05
0.0003668467
1.5660314e-05
0.0003526903
-1.0478143e-05
0.00034126891
0.00032714865
-2.1184222e-05
0.00040611704
-5.0643789e-05
0.00041777579
-8.1475607e-05
0.00042732823
-0.00011414847
0.00043964357
-0.00014874519
0.00045310842
-0.00018548819
0.0004678793
-0.00022468507
0.00048381964
-0.00026641507
0.00050046995
-0.00031109526
0.00051773547
-0.00035862238
0.00053484122
-0.00040920493
0.00055149322
-0.00046280774
0.00056721563
-0.0005194199
0.0005813649
-0.00057895482
0.00059335565
-0.00064113098
0.00060253273
-0.00070575822
0.00060833134
-0.00077247894
0.00060976722
-0.00084076219
0.0006064219
-0.00091007214
0.00059755094
-0.00097980469
0.00058242743
-0.0010491556
0.00056038197
-0.0011171751
0.0005307226
-0.0011829162
0.00049299643
-0.0012450445
0.00044633511
-0.0013022059
0.00039049102
-0.0013528618
0.00032507985
-0.0013951592
0.00024993554
-0.0014271396
0.0001652089
-0.0014467149
7.1650473e-05
-0.0014519565
-2.9323771e-05
-0.0014408005
-0.00013595725
-0.0014122389
-0.00024448585
-0.0013667188
-0.00035049493
-0.0013059175
-0.00044856597
-0.0012343035
-0.0005336689
-0.00115598
-0.00060401665
-0.0010749764
-0.00065991716
-0.00099353196
-0.00070498413