/*--------------------------------*- C++ -*----------------------------------*\
  =========                 |
  \\      /  F ield         | OpenFOAM: The Open Source CFD Toolbox
   \\    /   O peration     | Website:  https://openfoam.org
    \\  /    A nd           | Version:  9
     \\/     M anipulation  |
\*---------------------------------------------------------------------------*/
FoamFile
{
    format      ascii;
    class       volVectorField;
    location    "0.41";
    object      U;
}
// * * * * * * * * * * * * * * * * * * * * * * * * * * * * * * * * * * * * * //

dimensions      [0 1 -1 0 0 0 0];

internalField   nonuniform List<vector> 
10000
(
(-0.0018117064 0.0034298062 0)
(-0.0081071638 0.0035024019 0)
(-0.011192512 0.0035684167 0)
(-0.015031064 0.0036677778 0)
(-0.01906081 0.0037641152 0)
(-0.023119443 0.0038893277 0)
(-0.02724165 0.0040215144 0)
(-0.031407401 0.0041612841 0)
(-0.035623856 0.0043036818 0)
(-0.039899763 0.0044420267 0)
(-0.044223057 0.0045755789 0)
(-0.048579883 0.0046984257 0)
(-0.052954857 0.0048060701 0)
(-0.057327933 0.0048895687 0)
(-0.061677448 0.0049429346 0)
(-0.06597844 0.0049598999 0)
(-0.070201549 0.0049361951 0)
(-0.074312207 0.0048659867 0)
(-0.078275125 0.0047421107 0)
(-0.082052635 0.0045601106 0)
(-0.085610934 0.0043166531 0)
(-0.08891088 0.0040132372 0)
(-0.091881675 0.0036538308 0)
(-0.094495278 0.0032260813 0)
(-0.096715965 0.0027480759 0)
(-0.09846876 0.002215053 0)
(-0.099725334 0.0016264623 0)
(-0.10047097 0.00098376176 0)
(-0.10073895 0.00028821029 0)
(-0.1005537 -0.00041933223 0)
(-0.09982134 -0.0010748966 0)
(-0.098472046 -0.0017020024 0)
(-0.096510745 -0.0023038056 0)
(-0.093983271 -0.0028569628 0)
(-0.09091418 -0.0033578149 0)
(-0.087288446 -0.0037994436 0)
(-0.083179575 -0.004164824 0)
(-0.078630879 -0.0044096266 0)
(-0.073560159 -0.0045233857 0)
(-0.06803206 -0.0045877844 0)
(-0.062129289 -0.0045551391 0)
(-0.05582221 -0.0043961537 0)
(-0.049140448 -0.0041587989 0)
(-0.042061145 -0.0038432299 0)
(-0.034589031 -0.0035019049 0)
(-0.026764583 -0.0031618404 0)
(-0.018642217 -0.0028722252 0)
(-0.010293264 -0.0026298941 0)
(-0.0017617107 -0.0024540678 0)
(0.0069548275 -0.0023509474 0)
(0.015773271 -0.0023400318 0)
(0.024602073 -0.0023934915 0)
(0.033394173 -0.0025216865 0)
(0.042096411 -0.0027083009 0)
(0.05060528 -0.0029392874 0)
(0.058880014 -0.0031594057 0)
(0.066858254 -0.0033838158 0)
(0.074449784 -0.0035630053 0)
(0.081620506 -0.0036562128 0)
(0.08831122 -0.0036839658 0)
(0.094494493 -0.0035577665 0)
(0.10009968 -0.0033591886 0)
(0.1051111 -0.0030328345 0)
(0.10946449 -0.0026226101 0)
(0.11312172 -0.0020871135 0)
(0.11606901 -0.0014861917 0)
(0.11824015 -0.00079677691 0)
(0.11965093 -2.8588085e-05 0)
(0.12047888 0.00085921513 0)
(0.1208403 0.0016764056 0)
(0.12054705 0.0023728321 0)
(0.11952843 0.0029740518 0)
(0.11780964 0.0035162245 0)
(0.11544009 0.0040092178 0)
(0.11252337 0.0044548634 0)
(0.10913741 0.0048463068 0)
(0.10534444 0.0051744085 0)
(0.10120694 0.0054353669 0)
(0.096781825 0.0056240818 0)
(0.092118542 0.0057438191 0)
(0.08727367 0.0057994871 0)
(0.082298365 0.0057886138 0)
(0.077231638 0.0057181714 0)
(0.072114312 0.0056035751 0)
(0.066993569 0.0054505925 0)
(0.061900964 0.0052607374 0)
(0.056862013 0.0050468729 0)
(0.051903997 0.004805142 0)
(0.047044704 0.0045553862 0)
(0.042295092 0.0043000936 0)
(0.037678243 0.0040489072 0)
(0.033201324 0.0037991781 0)
(0.028869484 0.0035636946 0)
(0.024676679 0.0033371629 0)
(0.020595403 0.0031271756 0)
(0.016669087 0.0029360562 0)
(0.01277829 0.0027736277 0)
(0.0092925064 0.0026139969 0)
(0.0062371962 0.0025106893 0)
(0.00053719605 0.0023863782 0)
(-0.0017444574 0.0093852527 0)
(-0.0079689967 0.0095354521 0)
(-0.01102852 0.0096599821 0)
(-0.014839878 0.0098604833 0)
(-0.018845475 0.010043945 0)
(-0.022870464 0.010268797 0)
(-0.02698049 0.010505347 0)
(-0.03113831 0.010747864 0)
(-0.035357804 0.010988927 0)
(-0.039643409 0.011220709 0)
(-0.043982564 0.011432177 0)
(-0.048364652 0.011606747 0)
(-0.052777112 0.011746739 0)
(-0.057201333 0.011825358 0)
(-0.061612713 0.011843294 0)
(-0.065983929 0.011784426 0)
(-0.070286483 0.011635552 0)
(-0.074490085 0.011386278 0)
(-0.078557811 0.011028656 0)
(-0.082447105 0.010554498 0)
(-0.086119198 0.0099524469 0)
(-0.089528367 0.0092296088 0)
(-0.092619575 0.0083839819 0)
(-0.095350896 0.007398034 0)
(-0.097679489 0.0062879396 0)
(-0.099548271 0.0050506824 0)
(-0.10092445 0.0036832664 0)
(-0.10179232 0.0021933911 0)
(-0.10214374 0.00058810971 0)
(-0.10193409 -0.0010423321 0)
(-0.10112863 -0.0026359886 0)
(-0.099726339 -0.0042047215 0)
(-0.097688645 -0.005739199 0)
(-0.095057912 -0.0072116881 0)
(-0.091880905 -0.0085966536 0)
(-0.088138346 -0.00989453 0)
(-0.083872797 -0.011101642 0)
(-0.07913404 -0.012166705 0)
(-0.073951577 -0.013087787 0)
(-0.068355979 -0.013930511 0)
(-0.062323973 -0.014667477 0)
(-0.055901198 -0.015319501 0)
(-0.049137608 -0.015860882 0)
(-0.042004648 -0.016295072 0)
(-0.034525598 -0.016674837 0)
(-0.02672776 -0.016989555 0)
(-0.018640293 -0.0172583 0)
(-0.010303055 -0.017505756 0)
(-0.0017742092 -0.017685273 0)
(0.0069266738 -0.017815329 0)
(0.015741426 -0.017894137 0)
(0.024581829 -0.017910286 0)
(0.033392742 -0.017853827 0)
(0.042120344 -0.017685997 0)
(0.050688262 -0.017443943 0)
(0.059020386 -0.017073783 0)
(0.067053315 -0.01659562 0)
(0.074744917 -0.015943288 0)
(0.082010429 -0.015156706 0)
(0.088849796 -0.01423372 0)
(0.09517784 -0.013118608 0)
(0.10090725 -0.011877593 0)
(0.10605494 -0.010450135 0)
(0.11055627 -0.0089143597 0)
(0.11435945 -0.0072291105 0)
(0.11743696 -0.0054565664 0)
(0.11976498 -0.0035777058 0)
(0.12136716 -0.0016144984 0)
(0.1222326 0.00045134763 0)
(0.12238564 0.0024332958 0)
(0.12185918 0.0042322039 0)
(0.1206687 0.0058509865 0)
(0.11882622 0.0072978026 0)
(0.1163485 0.0086021679 0)
(0.11332433 0.0097681866 0)
(0.10981951 0.01078934 0)
(0.10589761 0.011656395 0)
(0.10162495 0.012365326 0)
(0.097065306 0.012919706 0)
(0.092277691 0.013321204 0)
(0.087312052 0.013579437 0)
(0.082219263 0.013704932 0)
(0.077054306 0.013712737 0)
(0.071858275 0.013608854 0)
(0.06666656 0.01341773 0)
(0.061517574 0.013145065 0)
(0.056430085 0.012803357 0)
(0.051437303 0.01241372 0)
(0.046564989 0.011986317 0)
(0.041813254 0.011530388 0)
(0.037200732 0.011069532 0)
(0.03273678 0.010602802 0)
(0.028424552 0.010145443 0)
(0.024252764 0.0097000096 0)
(0.02020295 0.009280649 0)
(0.016321555 0.0088884163 0)
(0.012460176 0.0085293262 0)
(0.0090266741 0.0081967013 0)
(0.0060056157 0.0079617563 0)
(0.00041016109 0.0076634724 0)
(-0.0016590079 0.012855363 0)
(-0.0078367293 0.013033638 0)
(-0.010856645 0.01319224 0)
(-0.014634248 0.01342632 0)
(-0.018632679 0.013672345 0)
(-0.02263286 0.013946917 0)
(-0.026734813 0.014232938 0)
(-0.030893569 0.014527519 0)
(-0.035118165 0.01482039 0)
(-0.039420818 0.015090125 0)
(-0.043799708 0.015329966 0)
(-0.048226458 0.01552643 0)
(-0.052697037 0.01567074 0)
(-0.057191908 0.015737966 0)
(-0.061679865 0.015713612 0)
(-0.066150075 0.015585482 0)
(-0.070567314 0.01534384 0)
(-0.074891088 0.014971603 0)
(-0.079083347 0.014452905 0)
(-0.083110582 0.013777911 0)
(-0.08692325 0.012941534 0)
(-0.090471851 0.01193549 0)
(-0.093711143 0.010756413 0)
(-0.096592861 0.0094013502 0)
(-0.099066726 0.0078848293 0)
(-0.10107644 0.0062130609 0)
(-0.10258119 0.0043906152 0)
(-0.1035545 0.0024456392 0)
(-0.10394552 0.00041788589 0)
(-0.1037247 -0.0016543021 0)
(-0.10290322 -0.0037469807 0)
(-0.10146459 -0.0058108801 0)
(-0.099370832 -0.0078198344 0)
(-0.096649703 -0.009750324 0)
(-0.093350678 -0.011568216 0)
(-0.089479227 -0.013250605 0)
(-0.085059108 -0.014782816 0)
(-0.080138744 -0.016144891 0)
(-0.074758453 -0.017343082 0)
(-0.068966651 -0.01836796 0)
(-0.062799488 -0.019222351 0)
(-0.056243915 -0.019985135 0)
(-0.049321118 -0.020641963 0)
(-0.042083442 -0.02119078 0)
(-0.034531591 -0.021644733 0)
(-0.026673678 -0.022039634 0)
(-0.018590096 -0.022395043 0)
(-0.010286774 -0.022708042 0)
(-0.0017875479 -0.022970759 0)
(0.0068691628 -0.023180126 0)
(0.015645232 -0.023315676 0)
(0.024452821 -0.023373175 0)
(0.03327598 -0.023354038 0)
(0.042020663 -0.023206588 0)
(0.05061332 -0.022949715 0)
(0.059026186 -0.022556171 0)
(0.06722507 -0.022014758 0)
(0.075095362 -0.021262558 0)
(0.082544409 -0.020346704 0)
(0.089599099 -0.019218755 0)
(0.096157324 -0.017876937 0)
(0.1021512 -0.016308023 0)
(0.10753995 -0.014502507 0)
(0.11223956 -0.012494544 0)
(0.11621493 -0.010300225 0)
(0.119429 -0.0079524552 0)
(0.12185551 -0.0054892287 0)
(0.12350816 -0.0029619917 0)
(0.12439979 -0.00043365737 0)
(0.12452803 0.0020500226 0)
(0.12389792 0.0044472376 0)
(0.12254605 0.0067097045 0)
(0.12052688 0.0087808976 0)
(0.11788361 0.010665099 0)
(0.11468482 0.012347841 0)
(0.11099733 0.013819917 0)
(0.10688757 0.015073695 0)
(0.10243189 0.016113861 0)
(0.097693827 0.016937226 0)
(0.092729621 0.017565464 0)
(0.087604577 0.01799403 0)
(0.082375142 0.018240605 0)
(0.077077168 0.018320135 0)
(0.071759317 0.018259585 0)
(0.066469066 0.018066943 0)
(0.061226076 0.017760924 0)
(0.05607221 0.017369026 0)
(0.05103238 0.016905542 0)
(0.046111351 0.016380327 0)
(0.041333088 0.015816043 0)
(0.036710411 0.015229529 0)
(0.032240944 0.014637193 0)
(0.02793412 0.014054275 0)
(0.023781891 0.013486198 0)
(0.019756852 0.012944135 0)
(0.015896162 0.012439354 0)
(0.012070289 0.01196841 0)
(0.0087072629 0.011549696 0)
(0.0057014109 0.011220538 0)
(0.00022387012 0.010817644 0)
(-0.0015553004 0.015967953 0)
(-0.0076528271 0.016212192 0)
(-0.010639145 0.016422379 0)
(-0.014369445 0.016715469 0)
(-0.01833335 0.017048557 0)
(-0.022316853 0.017407332 0)
(-0.026407603 0.017785216 0)
(-0.030559109 0.018177339 0)
(-0.034803009 0.01855754 0)
(-0.039140997 0.018915038 0)
(-0.043553135 0.019237125 0)
(-0.048029144 0.019509603 0)
(-0.052568615 0.019699947 0)
(-0.057158308 0.019806639 0)
(-0.061761164 0.019799079 0)
(-0.066345668 0.019659822 0)
(-0.070887916 0.019372947 0)
(-0.075363537 0.018920585 0)
(-0.079728226 0.018288073 0)
(-0.083929353 0.017456306 0)
(-0.087926309 0.016415456 0)
(-0.091671602 0.015156733 0)
(-0.095105925 0.013676263 0)
(-0.098169594 0.011972465 0)
(-0.10081108 0.010056429 0)
(-0.10298359 0.0079345408 0)
(-0.10463319 0.0056283402 0)
(-0.10571009 0.0031663252 0)
(-0.10619704 0.00059036137 0)
(-0.10606329 -0.0020825554 0)
(-0.10525988 -0.0048043593 0)
(-0.10378269 -0.0075130853 0)
(-0.10162025 -0.010167134 0)
(-0.098806954 -0.012713943 0)
(-0.095389401 -0.015134531 0)
(-0.091371722 -0.017398697 0)
(-0.086801508 -0.019476927 0)
(-0.081743621 -0.021370394 0)
(-0.076231582 -0.023075477 0)
(-0.070292323 -0.02460697 0)
(-0.063984895 -0.025965929 0)
(-0.057339944 -0.027157383 0)
(-0.05032997 -0.028222148 0)
(-0.04296082 -0.029175106 0)
(-0.035295137 -0.030014775 0)
(-0.027371508 -0.030771291 0)
(-0.019191328 -0.031472528 0)
(-0.010770724 -0.032049375 0)
(-0.0021674799 -0.032556328 0)
(0.0066142652 -0.032950671 0)
(0.015524955 -0.033182232 0)
(0.02447675 -0.033246679 0)
(0.033459835 -0.033143296 0)
(0.042400654 -0.032876088 0)
(0.051214083 -0.032406167 0)
(0.05984426 -0.031695259 0)
(0.068263728 -0.030761655 0)
(0.076361297 -0.029579459 0)
(0.08403736 -0.028135175 0)
(0.091329386 -0.026426114 0)
(0.098120898 -0.024422075 0)
(0.10432565 -0.022143037 0)
(0.1099109 -0.019611296 0)
(0.11479177 -0.016820958 0)
(0.1189227 -0.013815782 0)
(0.12225903 -0.010639159 0)
(0.1247568 -0.0073441015 0)
(0.12640967 -0.0039988178 0)
(0.12721567 -0.00067099018 0)
(0.1272231 0.0025608957 0)
(0.12646586 0.0056466551 0)
(0.1249437 0.0085506035 0)
(0.122719 0.01122236 0)
(0.11985279 0.013644577 0)
(0.11641862 0.015795822 0)
(0.11248937 0.017673157 0)
(0.1081412 0.019265289 0)
(0.10344515 0.020574049 0)
(0.098480222 0.021607599 0)
(0.093304748 0.022379839 0)
(0.087964027 0.022903693 0)
(0.082529193 0.023197614 0)
(0.07706198 0.023278907 0)
(0.071597955 0.023175698 0)
(0.066164981 0.022906263 0)
(0.060820239 0.022500445 0)
(0.055578809 0.021980301 0)
(0.050455944 0.021362591 0)
(0.045484736 0.02067596 0)
(0.040673017 0.01994669 0)
(0.036033019 0.019191028 0)
(0.031572582 0.018425626 0)
(0.02728367 0.017659664 0)
(0.023150863 0.016925438 0)
(0.019162683 0.016229683 0)
(0.015353206 0.01557918 0)
(0.011577877 0.01497346 0)
(0.0082765591 0.014422855 0)
(0.0052890734 0.013991244 0)
(-9.6713839e-06 0.013446054 0)
(-0.0014006542 0.019970888 0)
(-0.0074055336 0.020278988 0)
(-0.010355846 0.020543051 0)
(-0.014019281 0.020916673 0)
(-0.017950688 0.021324943 0)
(-0.021904707 0.021772416 0)
(-0.025974196 0.022247275 0)
(-0.030131224 0.02273482 0)
(-0.034390467 0.023208664 0)
(-0.038751488 0.023663282 0)
(-0.043213827 0.024072605 0)
(-0.047770658 0.024414158 0)
(-0.052404615 0.024660215 0)
(-0.057095361 0.024796344 0)
(-0.061826346 0.024806046 0)
(-0.066571874 0.024650754 0)
(-0.071298016 0.02431204 0)
(-0.075963597 0.023761099 0)
(-0.080531285 0.022989239 0)
(-0.08496202 0.021974369 0)
(-0.089197544 0.020699933 0)
(-0.093182578 0.019153505 0)
(-0.096864727 0.017328709 0)
(-0.10018058 0.015221417 0)
(-0.10307267 0.012832561 0)
(-0.1054742 0.010177717 0)
(-0.10732227 0.0072775149 0)
(-0.10856902 0.0041658061 0)
(-0.10917314 0.00087794535 0)
(-0.10909629 -0.0025103011 0)
(-0.10830536 -0.0059386975 0)
(-0.10679156 -0.0093704171 0)
(-0.10452695 -0.012734353 0)
(-0.10156103 -0.01594782 0)
(-0.097966386 -0.018999734 0)
(-0.093743379 -0.021844863 0)
(-0.088954121 -0.024435969 0)
(-0.083676737 -0.02679687 0)
(-0.077957422 -0.028913426 0)
(-0.071844864 -0.030810992 0)
(-0.065364189 -0.032516777 0)
(-0.058541035 -0.034034928 0)
(-0.051404479 -0.035383348 0)
(-0.043960435 -0.036604906 0)
(-0.036224341 -0.03772476 0)
(-0.028228474 -0.038746794 0)
(-0.019959719 -0.039680716 0)
(-0.011439673 -0.040490112 0)
(-0.0027362555 -0.041179504 0)
(0.0062158517 -0.041716385 0)
(0.015340626 -0.042046061 0)
(0.02451555 -0.042171674 0)
(0.033701552 -0.042061681 0)
(0.042839393 -0.041724848 0)
(0.051896168 -0.041114354 0)
(0.060778711 -0.040210454 0)
(0.069445148 -0.039022457 0)
(0.077813221 -0.037542973 0)
(0.08576943 -0.035723613 0)
(0.093357892 -0.033578771 0)
(0.1004583 -0.03108052 0)
(0.10695235 -0.028229464 0)
(0.11282656 -0.02505372 0)
(0.11798108 -0.021533992 0)
(0.12233708 -0.017738285 0)
(0.12584553 -0.013716433 0)
(0.12845269 -0.0095514363 0)
(0.1301506 -0.0053110637 0)
(0.13093577 -0.0010816479 0)
(0.13082066 0.0030576531 0)
(0.12985823 0.0070001113 0)
(0.12809082 0.010693156 0)
(0.12558835 0.014087237 0)
(0.12242304 0.017153526 0)
(0.11867796 0.019866944 0)
(0.11443179 0.02221885 0)
(0.10975514 0.024209395 0)
(0.10474362 0.025841295 0)
(0.099472861 0.027130976 0)
(0.094004205 0.028080256 0)
(0.088405517 0.028722602 0)
(0.082737644 0.029084829 0)
(0.077047258 0.029189913 0)
(0.071383947 0.029056423 0)
(0.065793755 0.028726586 0)
(0.060303544 0.028230192 0)
(0.054941402 0.027583085 0)
(0.049737277 0.026826995 0)
(0.044706568 0.025985113 0)
(0.039859985 0.025087929 0)
(0.035201212 0.024160513 0)
(0.030722102 0.023221913 0)
(0.026446279 0.022283444 0)
(0.02236268 0.021378564 0)
(0.018419503 0.020523977 0)
(0.014650641 0.019720224 0)
(0.010925143 0.018978801 0)
(0.0077240348 0.018292718 0)
(0.0047449962 0.017761148 0)
(-0.00033777914 0.017093933 0)
(-0.0012222462 0.023507858 0)
(-0.0070995382 0.023873495 0)
(-0.0099930847 0.024213569 0)
(-0.013589415 0.024672137 0)
(-0.017476846 0.025176533 0)
(-0.021391038 0.025732372 0)
(-0.025441791 0.026319396 0)
(-0.029594151 0.026920391 0)
(-0.033869351 0.027519941 0)
(-0.03827105 0.028087986 0)
(-0.042795479 0.028601281 0)
(-0.047433242 0.029038803 0)
(-0.052176343 0.029371966 0)
(-0.056999857 0.029573837 0)
(-0.061891797 0.029614046 0)
(-0.066822075 0.02946469 0)
(-0.071757776 0.029099924 0)
(-0.076663543 0.028489073 0)
(-0.081489126 0.027604829 0)
(-0.086190712 0.026425633 0)
(-0.090716882 0.024932253 0)
(-0.095009473 0.02310705 0)
(-0.099002421 0.02093916 0)
(-0.10262901 0.018421349 0)
(-0.10581751 0.015560114 0)
(-0.10850048 0.012375059 0)
(-0.11060562 0.0088763002 0)
(-0.11206836 0.0051208718 0)
(-0.11282879 0.0011454399 0)
(-0.11282928 -0.0029734108 0)
(-0.11206111 -0.0071663733 0)
(-0.11050884 -0.011351836 0)
(-0.10811786 -0.015434844 0)
(-0.1049806 -0.019365889 0)
(-0.1011728 -0.02306689 0)
(-0.096671166 -0.026482653 0)
(-0.091599489 -0.029604393 0)
(-0.086059193 -0.032427108 0)
(-0.080084312 -0.034961302 0)
(-0.073739027 -0.037231451 0)
(-0.067057586 -0.039266349 0)
(-0.060062368 -0.04110292 0)
(-0.05277128 -0.042769302 0)
(-0.045196517 -0.044288336 0)
(-0.037356929 -0.045684111 0)
(-0.02926922 -0.046977991 0)
(-0.020896818 -0.048144933 0)
(-0.012247476 -0.04920986 0)
(-0.0033864956 -0.050094122 0)
(0.0057380583 -0.050796974 0)
(0.015046908 -0.051254367 0)
(0.024442095 -0.051459929 0)
(0.033884472 -0.051377452 0)
(0.043317777 -0.050987068 0)
(0.052686006 -0.050239896 0)
(0.061876098 -0.04914845 0)
(0.070847155 -0.047690549 0)
(0.079555667 -0.045903503 0)
(0.087879157 -0.043696583 0)
(0.095832886 -0.041082325 0)
(0.10332103 -0.038086373 0)
(0.1101971 -0.034632529 0)
(0.11644859 -0.030760471 0)
(0.12195532 -0.026456921 0)
(0.12660628 -0.021805202 0)
(0.13033361 -0.016870148 0)
(0.13307121 -0.011754147 0)
(0.13480325 -0.0065467205 0)
(0.13551749 -0.0013801104 0)
(0.13524247 0.0036470956 0)
(0.13404171 0.0084446227 0)
(0.13197405 0.012929851 0)
(0.12912459 0.017044213 0)
(0.12557965 0.020748767 0)
(0.12143286 0.02401974 0)
(0.11678315 0.026834785 0)
(0.11171598 0.029207283 0)
(0.10632062 0.031143603 0)
(0.10067604 0.032656314 0)
(0.094855699 0.03376636 0)
(0.088931719 0.034505062 0)
(0.082963322 0.034899239 0)
(0.077003798 0.034979489 0)
(0.071108225 0.034789066 0)
(0.065316065 0.034357048 0)
(0.059657186 0.033718865 0)
(0.054159287 0.0329135 0)
(0.048845145 0.031973765 0)
(0.043734957 0.030935757 0)
(0.038839451 0.029825283 0)
(0.034159488 0.028681528 0)
(0.02968927 0.027528766 0)
(0.025435371 0.026398705 0)
(0.02138718 0.025297142 0)
(0.017500644 0.024253992 0)
(0.01380755 0.023284118 0)
(0.010152209 0.022402718 0)
(0.0070484734 0.021584148 0)
(0.0041068049 0.020939357 0)
(-0.00070239556 0.020177009 0)
(-0.0010075274 0.026953383 0)
(-0.0067232508 0.02739898 0)
(-0.0095500293 0.027816301 0)
(-0.013061709 0.028370937 0)
(-0.016893257 0.028991338 0)
(-0.020762103 0.029666549 0)
(-0.02478711 0.030382151 0)
(-0.028931035 0.031118615 0)
(-0.033222107 0.03185275 0)
(-0.037668657 0.032562991 0)
(-0.042259926 0.033207493 0)
(-0.046994023 0.033767225 0)
(-0.051860371 0.034209582 0)
(-0.05684116 0.034502239 0)
(-0.061919893 0.034606214 0)
(-0.067065802 0.034496152 0)
(-0.072248244 0.034129069 0)
(-0.077428774 0.033479302 0)
(-0.082560235 0.032510368 0)
(-0.087595114 0.03119407 0)
(-0.092471533 0.029504495 0)
(-0.097126235 0.027416881 0)
(-0.10149673 0.024917777 0)
(-0.10550228 0.022002304 0)
(-0.10905806 0.018666092 0)
(-0.1120952 0.01492656 0)
(-0.11451277 0.010808154 0)
(-0.11623701 0.0063541029 0)
(-0.11720546 0.0016261511 0)
(-0.11734619 -0.0032990374 0)
(-0.11661899 -0.0083363598 0)
(-0.11498827 -0.013356294 0)
(-0.11246141 -0.018250375 0)
(-0.10910658 -0.022970231 0)
(-0.10497978 -0.027373204 0)
(-0.10015323 -0.031379806 0)
(-0.094754626 -0.035040567 0)
(-0.088880123 -0.038322121 0)
(-0.082605278 -0.041255346 0)
(-0.075991917 -0.043874724 0)
(-0.069075113 -0.046224371 0)
(-0.061880601 -0.04834383 0)
(-0.054427783 -0.050272795 0)
(-0.046721431 -0.052047732 0)
(-0.038770007 -0.053720449 0)
(-0.03056081 -0.055294132 0)
(-0.022075522 -0.0567292 0)
(-0.013295834 -0.058052551 0)
(-0.0042662136 -0.059184497 0)
(0.005061785 -0.060145517 0)
(0.014632299 -0.060774104 0)
(0.024318328 -0.061075061 0)
(0.034081954 -0.06101781 0)
(0.043867348 -0.060565576 0)
(0.053603809 -0.059703155 0)
(0.063184903 -0.058457624 0)
(0.072532815 -0.056750168 0)
(0.081643843 -0.054646242 0)
(0.090422386 -0.052079623 0)
(0.098796722 -0.049019666 0)
(0.10674036 -0.045513445 0)
(0.11411465 -0.04145575 0)
(0.12084175 -0.036837744 0)
(0.12678845 -0.031728606 0)
(0.1317974 -0.02614644 0)
(0.1357917 -0.020203042 0)
(0.13868858 -0.014020128 0)
(0.14044552 -0.0077395998 0)
(0.14105347 -0.0015196267 0)
(0.14056876 0.0045143639 0)
(0.13906387 0.010250885 0)
(0.13661448 0.015587989 0)
(0.13333263 0.020457201 0)
(0.12932595 0.024814059 0)
(0.12469407 0.028641458 0)
(0.11955263 0.031921238 0)
(0.11400171 0.034661374 0)
(0.10813454 0.036877096 0)
(0.10204304 0.038589687 0)
(0.095806276 0.039823632 0)
(0.089497237 0.0406193 0)
(0.083175888 0.041010775 0)
(0.076906114 0.041041182 0)
(0.070736732 0.040750945 0)
(0.064703328 0.040181108 0)
(0.058845224 0.0393729 0)
(0.053186659 0.038372068 0)
(0.047753038 0.037220829 0)
(0.042554561 0.035960659 0)
(0.037604238 0.03462362 0)
(0.03290512 0.033250225 0)
(0.028441309 0.031870244 0)
(0.024218275 0.030519222 0)
(0.020221107 0.029214746 0)
(0.016409838 0.027982263 0)
(0.012806037 0.026836399 0)
(0.0092338672 0.025796412 0)
(0.0062538529 0.024841133 0)
(0.0033618678 0.024087913 0)
(-0.0011256723 0.023196504 0)
(-0.00074521841 0.030294833 0)
(-0.0062606878 0.030842962 0)
(-0.0090120966 0.031351193 0)
(-0.012418504 0.032020172 0)
(-0.016182777 0.032773137 0)
(-0.019998567 0.033587671 0)
(-0.023988106 0.034453106 0)
(-0.028122116 0.035351227 0)
(-0.03242194 0.036247235 0)
(-0.036911692 0.037118272 0)
(-0.041584248 0.037929154 0)
(-0.046421619 0.038640981 0)
(-0.051428171 0.039225272 0)
(-0.05658615 0.039640078 0)
(-0.061876084 0.039846375 0)
(-0.067273042 0.039805968 0)
(-0.072743223 0.03947267 0)
(-0.07824528 0.038814536 0)
(-0.083731634 0.037787163 0)
(-0.089148605 0.036351397 0)
(-0.09444029 0.034482058 0)
(-0.099536702 0.032146359 0)
(-0.10435337 0.029323991 0)
(-0.10881359 0.026003296 0)
(-0.11282311 0.022177735 0)
(-0.11628636 0.017852089 0)
(-0.11910381 0.013065399 0)
(-0.1211758 0.0078441203 0)
(-0.12240631 0.0022750281 0)
(-0.12271324 -0.003550089 0)
(-0.12203338 -0.0095243724 0)
(-0.1203301 -0.01550721 0)
(-0.11763085 -0.021333388 0)
(-0.11399006 -0.02688545 0)
(-0.10944905 -0.032021069 0)
(-0.10418321 -0.036680547 0)
(-0.098368041 -0.040856935 0)
(-0.092092042 -0.044568994 0)
(-0.085457623 -0.047855014 0)
(-0.078534766 -0.050765431 0)
(-0.071359248 -0.053369145 0)
(-0.063948522 -0.055733978 0)
(-0.056320356 -0.05790816 0)
(-0.04849722 -0.059921246 0)
(-0.040463247 -0.061846316 0)
(-0.032149073 -0.063698614 0)
(-0.023536031 -0.06544209 0)
(-0.014606614 -0.067066219 0)
(-0.0054175664 -0.06851785 0)
(0.0041498101 -0.069735294 0)
(0.014054532 -0.070574279 0)
(0.024106006 -0.07101395 0)
(0.034285272 -0.071019328 0)
(0.044507032 -0.070542306 0)
(0.054653191 -0.069575212 0)
(0.064682047 -0.068151526 0)
(0.074500463 -0.066213804 0)
(0.084062527 -0.063787474 0)
(0.093337269 -0.060898824 0)
(0.10222589 -0.057446915 0)
(0.1107042 -0.053411857 0)
(0.11868686 -0.048779578 0)
(0.12598776 -0.043435922 0)
(0.13247127 -0.03744897 0)
(0.13797535 -0.030854074 0)
(0.14232847 -0.023795448 0)
(0.14542189 -0.016402296 0)
(0.14720299 -0.0089059444 0)
(0.14767733 -0.0014984655 0)
(0.1469198 0.0056647481 0)
(0.14502239 0.012435199 0)
(0.14208879 0.018697438 0)
(0.13826072 0.024376361 0)
(0.1336767 0.029422881 0)
(0.12845663 0.033818019 0)
(0.12272371 0.037558632 0)
(0.1165972 0.040652912 0)
(0.110179 0.043129716 0)
(0.10355874 0.045014962 0)
(0.096827563 0.046344994 0)
(0.090068123 0.047164506 0)
(0.083341055 0.047517837 0)
(0.076706688 0.047455302 0)
(0.070217594 0.047019762 0)
(0.063913355 0.046267367 0)
(0.057828687 0.045247547 0)
(0.051992231 0.044011691 0)
(0.046422815 0.042610916 0)
(0.041130286 0.041085526 0)
(0.036124312 0.039487277 0)
(0.031403619 0.037848257 0)
(0.026957247 0.036211161 0)
(0.022780418 0.034614176 0)
(0.01885103 0.033079756 0)
(0.015123549 0.031638488 0)
(0.011626538 0.030306834 0)
(0.0081643386 0.02910382 0)
(0.005330743 0.028009974 0)
(0.0024873065 0.027167361 0)
(-0.0016231562 0.026065081 0)
(-0.00042411545 0.033469099 0)
(-0.0056918365 0.034151954 0)
(-0.0083627691 0.034770785 0)
(-0.011643424 0.035577142 0)
(-0.015326566 0.036474321 0)
(-0.019079329 0.037453032 0)
(-0.023020292 0.038493573 0)
(-0.027133472 0.039574711 0)
(-0.031449837 0.040670363 0)
(-0.035978811 0.041726169 0)
(-0.04072724 0.04273988 0)
(-0.045684642 0.043641272 0)
(-0.050844392 0.044402413 0)
(-0.056198571 0.044981183 0)
(-0.061727173 0.045328464 0)
(-0.067407559 0.045397666 0)
(-0.073201913 0.045137944 0)
(-0.079070082 0.044506468 0)
(-0.084972274 0.043455206 0)
(-0.090841648 0.04194272 0)
(-0.09661134 0.039919053 0)
(-0.10221347 0.037358401 0)
(-0.10756342 0.034227125 0)
(-0.11256701 0.030497501 0)
(-0.11712396 0.026166523 0)
(-0.12111764 0.02123218 0)
(-0.12442818 0.015720985 0)
(-0.12693284 0.0096762921 0)
(-0.12850266 0.0031759198 0)
(-0.12904471 -0.0036729968 0)
(-0.12846585 -0.010720201 0)
(-0.12667865 -0.017790766 0)
(-0.12371452 -0.024688675 0)
(-0.11965488 -0.03119121 0)
(-0.11461522 -0.037142457 0)
(-0.10880698 -0.042484922 0)
(-0.10243345 -0.047168929 0)
(-0.095650088 -0.051244165 0)
(-0.088571725 -0.0548137 0)
(-0.081283075 -0.057956434 0)
(-0.073829814 -0.060746294 0)
(-0.066215136 -0.063285642 0)
(-0.058424793 -0.06566061 0)
(-0.050483575 -0.067891245 0)
(-0.042385454 -0.070048944 0)
(-0.034010948 -0.072180723 0)
(-0.025313725 -0.074249632 0)
(-0.016264696 -0.076241167 0)
(-0.0068709541 -0.078065871 0)
(0.0029981571 -0.079603393 0)
(0.013275978 -0.080710681 0)
(0.023764976 -0.081350971 0)
(0.034429848 -0.081451896 0)
(0.045168152 -0.080987833 0)
(0.05583547 -0.07993667 0)
(0.066374219 -0.078299763 0)
(0.076711408 -0.076148676 0)
(0.086762137 -0.073445656 0)
(0.096555507 -0.070223631 0)
(0.10606497 -0.066440096 0)
(0.11517915 -0.061963256 0)
(0.12385403 -0.056744256 0)
(0.1319356 -0.050706169 0)
(0.13915124 -0.043764602 0)
(0.14526318 -0.036027705 0)
(0.15008246 -0.027664184 0)
(0.1534369 -0.018899357 0)
(0.15522294 -0.010004592 0)
(0.15550456 -0.0012314809 0)
(0.15438417 0.0072006932 0)
(0.1519797 0.015110667 0)
(0.14844161 0.022370158 0)
(0.14394704 0.028901654 0)
(0.13866008 0.034663114 0)
(0.13272729 0.039634411 0)
(0.1262905 0.043825828 0)
(0.11948193 0.047257263 0)
(0.11241309 0.04996229 0)
(0.1051822 0.051981023 0)
(0.097886704 0.053366965 0)
(0.090608891 0.054166093 0)
(0.083413554 0.054432269 0)
(0.07636301 0.054223884 0)
(0.069511258 0.053597757 0)
(0.062900744 0.05261401 0)
(0.056565051 0.051334299 0)
(0.050530529 0.049815786 0)
(0.044811849 0.048114226 0)
(0.039419628 0.046283851 0)
(0.034359324 0.044377471 0)
(0.029623846 0.042436747 0)
(0.025204798 0.040504474 0)
(0.021086745 0.038633413 0)
(0.017245899 0.036839974 0)
(0.013637872 0.035169908 0)
(0.010276068 0.033642468 0)
(0.0069452023 0.032266333 0)
(0.0043073463 0.031051799 0)
(0.0014436834 0.03011513 0)
(-0.002260214 0.028782957 0)
(-2.3500208e-05 0.036432371 0)
(-0.0049855116 0.037311883 0)
(-0.0075764191 0.038060847 0)
(-0.010718879 0.039026912 0)
(-0.014307385 0.040089722 0)
(-0.01797583 0.041255249 0)
(-0.021862687 0.042498378 0)
(-0.025940255 0.043791556 0)
(-0.030264455 0.045110303 0)
(-0.034832522 0.04640215 0)
(-0.039656736 0.047643099 0)
(-0.044742983 0.048778925 0)
(-0.050067667 0.049763679 0)
(-0.055634574 0.050549321 0)
(-0.061427969 0.05108686 0)
(-0.067425492 0.051309582 0)
(-0.073589179 0.051172633 0)
(-0.079875106 0.050615432 0)
(-0.086234503 0.049583489 0)
(-0.092615899 0.0480326 0)
(-0.098946905 0.045899487 0)
(-0.1051431 0.043143217 0)
(-0.11112151 0.03972076 0)
(-0.11677383 0.035595645 0)
(-0.12198198 0.030750871 0)
(-0.12661993 0.025181621 0)
(-0.13054378 0.018898645 0)
(-0.13360122 0.011949511 0)
(-0.1356323 0.0044038128 0)
(-0.13647999 -0.0036105513 0)
(-0.13600992 -0.01189995 0)
(-0.13414629 -0.020259363 0)
(-0.13086941 -0.028419487 0)
(-0.12626549 -0.03604172 0)
(-0.12055068 -0.042924557 0)
(-0.11399268 -0.048922953 0)
(-0.10687584 -0.054049412 0)
(-0.099454121 -0.05841676 0)
(-0.091872417 -0.062185639 0)
(-0.084175718 -0.065487085 0)
(-0.076411027 -0.068407469 0)
(-0.068596747 -0.071051011 0)
(-0.060677607 -0.073532354 0)
(-0.052657451 -0.075920208 0)
(-0.044541339 -0.078285446 0)
(-0.036163604 -0.080701696 0)
(-0.027436301 -0.083136895 0)
(-0.018294424 -0.085565507 0)
(-0.0087012855 -0.087825383 0)
(0.001495026 -0.089820099 0)
(0.012210912 -0.091313515 0)
(0.023230662 -0.092209358 0)
(0.034489212 -0.09244637 0)
(0.045840608 -0.091989598 0)
(0.057139984 -0.090833197 0)
(0.068249101 -0.088999491 0)
(0.079119764 -0.086598033 0)
(0.089733006 -0.08365433 0)
(0.10007454 -0.080150058 0)
(0.11020643 -0.076056047 0)
(0.12010634 -0.07125864 0)
(0.12964189 -0.065546463 0)
(0.13867475 -0.058785475 0)
(0.14688344 -0.050870509 0)
(0.15384826 -0.041846319 0)
(0.15925925 -0.031956487 0)
(0.1629085 -0.021560753 0)
(0.16471266 -0.011012636 0)
(0.16473036 -0.00064328965 0)
(0.16311215 0.0092409168 0)
(0.16004497 0.018425065 0)
(0.15573748 0.026768803 0)
(0.1504163 0.034197171 0)
(0.14427753 0.040683981 0)
(0.13749432 0.046224437 0)
(0.13022915 0.050844028 0)
(0.12262408 0.054579681 0)
(0.11480213 0.057475 0)
(0.10687194 0.059585381 0)
(0.098930567 0.060972602 0)
(0.091061447 0.061693739 0)
(0.083336785 0.061815216 0)
(0.07581959 0.061404257 0)
(0.068563876 0.06052907 0)
(0.061613886 0.059256385 0)
(0.055001446 0.057659503 0)
(0.048749064 0.055799887 0)
(0.042872916 0.053743447 0)
(0.037380218 0.051556512 0)
(0.032267777 0.04929576 0)
(0.027524407 0.047012638 0)
(0.02315077 0.044748824 0)
(0.019115789 0.042570258 0)
(0.015388079 0.040490556 0)
(0.011927502 0.038570007 0)
(0.0087284614 0.036820653 0)
(0.0055837922 0.035261005 0)
(0.0031691399 0.033919292 0)
(0.00024711523 0.032859918 0)
(-0.002990302 0.031428012 0)
(0.0004966825 0.03924413 0)
(-0.0040919111 0.040330388 0)
(-0.0066374238 0.04121567 0)
(-0.0096192877 0.042355897 0)
(-0.013098975 0.043609251 0)
(-0.016666535 0.044978651 0)
(-0.020479721 0.046453338 0)
(-0.024515715 0.047990552 0)
(-0.028831095 0.049569189 0)
(-0.033434723 0.051137085 0)
(-0.038335188 0.05264733 0)
(-0.043544782 0.054065676 0)
(-0.049049922 0.055325131 0)
(-0.054845063 0.056370959 0)
(-0.060929993 0.057148295 0)
(-0.067277405 0.057581392 0)
(-0.073843318 0.057621869 0)
(-0.080597021 0.057196402 0)
(-0.087482554 0.056240911 0)
(-0.094443107 0.054691599 0)
(-0.10140802 0.052490744 0)