/*--------------------------------*- C++ -*----------------------------------*\
  =========                 |
  \\      /  F ield         | OpenFOAM: The Open Source CFD Toolbox
   \\    /   O peration     | Website:  https://openfoam.org
    \\  /    A nd           | Version:  9
     \\/     M anipulation  |
\*---------------------------------------------------------------------------*/
FoamFile
{
    format      ascii;
    class       surfaceScalarField;
    location    "0.6";
    object      alphaPhi0.phase1;
}
// * * * * * * * * * * * * * * * * * * * * * * * * * * * * * * * * * * * * * //

dimensions      [0 3 -1 0 0 0 0];

internalField   nonuniform List<scalar> 
8032
(
-2.07505e-201
1.0966e-206
-3.97207e-196
2.03543e-201
-3.93724e-191
1.83996e-196
-2.69596e-186
1.09594e-191
-1.45459e-181
4.83439e-187
-6.67593e-177
1.65076e-182
-2.74965e-172
4.22601e-178
-1.06102e-167
5.74144e-174
-3.31402e-163
-6.72938e-164
-6.45737e-159
-6.10362e-159
-6.72314e-156
-2.54492e-155
-1.86509e-154
-1.18169e-153
-1.30434e-150
-6.45391e-150
-9.39642e-148
-9.11179e-147
-4.40102e-146
-9.80267e-144
6.14807e-149
-9.78737e-142
4.41395e-146
-9.78867e-142
9.36531e-148
-9.30863e-144
3.04042e-150
-6.64069e-147
3.61654e-152
-6.68467e-149
1.08203e-155
-1.34305e-151
8.1855e-161
-2.63349e-156
1.40876e-165
-1.50055e-161
3.60246e-170
-9.95063e-167
9.49825e-175
1.97844e-176
2.45888e-179
1.55401e-180
5.9164e-184
6.70234e-185
1.2488e-188
2.23366e-189
2.11759e-193
5.86977e-194
2.49548e-198
1.14538e-198
1.49116e-203
1.45537e-203
8.84225e-209
-1.09458e-195
1.17692e-200
-2.0126e-190
2.08944e-195
-1.8954e-185
1.80817e-190
-1.23184e-180
1.02708e-185
-6.29172e-176
4.30368e-181
-2.72909e-171
1.39163e-176
-1.06282e-166
3.36737e-172
-3.88983e-162
4.32592e-168
-1.12063e-157
-2.71015e-158
-2.20291e-156
-2.69408e-156
-9.5747e-153
-3.49585e-152
-8.68588e-149
-5.37202e-148
-5.15354e-145
-2.5258e-144
-3.32354e-142
-2.21475e-141
-1.2454e-140
-2.05067e-139
1.41426e-143
-1.82503e-138
1.24835e-140
-1.82511e-138
3.31675e-142
-2.05111e-139
1.15458e-144
-2.1028e-141
1.35239e-146
-2.40096e-143
4.0565e-150
-5.62585e-146
2.57855e-155
-1.0969e-150
2.76073e-160
-4.93748e-156
5.74555e-165
-2.68707e-161
1.47549e-169
5.99193e-171
3.77622e-174
4.65266e-175
8.73046e-179
1.9281e-179
1.73532e-183
6.05096e-184
2.7562e-188
1.48943e-188
3.07403e-193
2.75106e-193
1.77593e-198
3.38072e-198
2.03774e-203
-3.63877e-190
6.03076e-195
-6.25304e-185
9.98459e-190
-5.50174e-180
8.06728e-185
-3.34646e-175
4.28447e-180
-1.60292e-170
1.68101e-175
-6.53419e-166
5.09872e-171
-2.3952e-161
1.15959e-166
-8.15687e-157
1.42e-162
-9.03631e-156
-2.30519e-156
-2.09414e-151
-2.64201e-151
-2.32662e-147
-9.06705e-147
-2.02469e-143
-1.19475e-142
-1.01504e-139
-4.8181e-139
-5.77329e-137
-3.72955e-136
-1.99482e-135
-3.18393e-134
1.67143e-138
-2.72466e-133
1.9983e-135
-2.72475e-133
5.75876e-137
-3.18451e-134
2.20378e-139
-3.54097e-136
2.57044e-141
-4.32339e-138
9.61963e-145
-1.17076e-140
5.81935e-150
-2.87165e-145
3.98222e-155
-1.14242e-150
8.16395e-160
-4.16418e-156
2.09498e-164
1.22412e-165
5.77829e-169
1.02426e-169
1.42356e-173
4.523e-174
2.97039e-178
1.49009e-178
4.86925e-183
3.78552e-183
5.51863e-188
7.1052e-188
3.20776e-193
8.7843e-193
5.3162e-198
-1.05278e-184
2.38605e-189
-1.66517e-179
3.63186e-184
-1.34689e-174
2.70056e-179
-7.51344e-170
1.31879e-174
-3.28853e-165
4.74632e-170
-1.21909e-160
1.31565e-165
-3.82788e-156
2.88067e-161
-5.1112e-155
3.00226e-157
-1.90314e-150
-5.13352e-151
-3.90542e-146
-5.19389e-146
-3.76756e-142
-1.53019e-141
-3.12251e-138
-1.7151e-137
-1.32102e-134
-5.9179e-134
-6.62558e-132
-4.04343e-131
-2.1108e-130
-3.18287e-129
1.2719e-133
-2.61911e-128
2.11345e-130
-2.61917e-128
6.60623e-132
-3.18336e-129
2.80284e-134
-3.83893e-131
3.2916e-136
-5.14015e-133
1.51285e-139
-1.60132e-135
1.12194e-144
-4.92067e-140
5.93592e-150
-2.26185e-145
5.19625e-155
-6.434e-151
2.76793e-159
3.03246e-160
8.61704e-164
1.92192e-164
2.3816e-168
9.52029e-169
5.53561e-173
3.49373e-173
1.00203e-177
9.8009e-178
1.24135e-182
2.01072e-182
7.80397e-188
2.68857e-187
1.74391e-192
-2.88538e-179
8.4382e-184
-4.0943e-174
1.1584e-178
-2.95075e-169
7.72749e-174
-1.45606e-164
3.36263e-169
-5.59747e-160
1.07064e-164
-1.4398e-155
3.16212e-160
-2.2109e-154
4.86625e-156
-9.38951e-150
7.24166e-152
-3.05532e-145
-8.57352e-146
-5.41575e-141
-7.45237e-141
-4.50862e-137
-1.86493e-136
-3.53472e-133
-1.76811e-132
-1.26099e-129
-5.21245e-129
-5.57633e-127
-3.14381e-126
-1.6379e-125
-2.28206e-124
6.77298e-129
-1.80576e-123
1.63931e-125
-1.80579e-123
5.5581e-127
-2.28234e-124
2.63072e-129
-2.98481e-126
3.14731e-131
-4.47887e-128
1.75128e-134
-1.59947e-130
1.60482e-139
-6.11944e-135
9.78779e-145
-3.31672e-140
4.76351e-150
-1.08988e-145
3.02756e-155
5.96084e-155
1.05869e-158
3.3475e-159
3.42897e-163
1.59626e-163
9.28451e-168
6.82271e-168
1.94518e-172
2.21519e-172
2.76874e-177
5.22165e-177
1.98408e-182
7.95829e-182
5.83625e-187
-7.29039e-174
2.70416e-178
-8.94254e-169
3.24215e-173
-5.51618e-164
1.86963e-168
-2.30759e-159
6.96397e-164
-3.32526e-155
2.61426e-159
-9.59389e-154
4.33811e-155
-3.75298e-149
1.05103e-150
-1.37799e-144
1.35285e-146
-3.85746e-140
-1.1101e-140
-5.85069e-136
-8.19353e-136
-4.18779e-132
-1.72856e-131
-3.08547e-128
-1.3811e-127
-9.27868e-125
-3.4763e-124
-3.61747e-122
-1.85124e-121
-9.79576e-121
-1.23933e-119
2.64094e-124
-9.43062e-119
9.8012e-121
-9.4307e-119
3.60457e-122
-1.23945e-119
1.91157e-124
-1.75763e-121
2.35427e-126
-3.00607e-123
1.56747e-129
-1.22732e-125
1.78354e-134
-5.81088e-130
1.27929e-139
-3.76792e-135
7.16055e-145
-1.45232e-140
1.68472e-152
1.07166e-149
1.29074e-155
4.7194e-154
4.05902e-158
2.2557e-158
1.28888e-162
1.05017e-162
3.18296e-167
4.01641e-167
5.34473e-172
1.11686e-171
4.50609e-177
2.00271e-176
1.71936e-181
-1.5647e-168
7.41616e-173
-1.59324e-163
7.45853e-168
-8.07778e-159
3.57102e-163
-3.17195e-155
1.33825e-158
-4.22822e-153
3.21179e-154
-1.57373e-148
8.87558e-150
-5.24928e-144
1.83297e-145
-1.64285e-139
2.01158e-141
-3.91102e-135
-1.14056e-135
-5.04401e-131
-7.08912e-131
-3.09868e-127
-1.25436e-126
-2.13165e-123
-8.42676e-123
-5.40364e-120
-1.81078e-119
-1.85721e-117
-8.51722e-117
-4.63624e-116
-5.25945e-115
7.73227e-120
-3.84892e-114
4.63781e-116
-3.84893e-114
1.85013e-117
-5.2599e-115
1.10254e-119
-8.08673e-117
1.40978e-121
-1.59557e-118
1.11292e-124
-7.43367e-121
1.57708e-129
-4.3332e-125
1.34947e-134
-3.39605e-130
8.82841e-140
-1.55276e-135
2.34875e-147
1.58113e-144
7.06406e-152
8.20435e-149
4.54784e-156
3.97319e-153
1.6737e-157
1.49434e-157
4.76782e-162
6.46721e-162
9.3151e-167
2.08687e-166
9.21188e-172
4.38921e-171
4.43947e-176
-2.78794e-163
1.67541e-167
-2.35101e-158
1.39374e-162
-1.4414e-155
5.98351e-158
-1.8484e-152
2.11679e-153
-6.86442e-148
6.42035e-149
-2.1571e-143
1.4966e-144
-6.07219e-139
2.6072e-140
-1.60308e-134
2.41462e-136
-3.21921e-130
-9.42116e-131
-3.51705e-126
-4.90305e-126
-2.04377e-122
-7.25192e-122
-1.18278e-118
-4.09126e-118
-2.52807e-115
-7.50784e-115
-7.65951e-113
-3.12063e-112
-1.76262e-111
-1.77779e-110
1.70709e-115
-1.25127e-109
1.76296e-111
-1.25127e-109
7.62877e-113
-1.77792e-110
5.11843e-115
-2.963e-112
6.83909e-117
-6.79807e-114
6.35758e-120
-3.60923e-116
1.12406e-124
-2.57994e-120
1.15914e-129
-2.46159e-125
8.9673e-135
-1.34597e-130
2.76989e-142
1.92863e-139
9.87098e-147
1.18978e-143
3.1335e-151
6.83024e-148
8.62946e-156
2.93029e-152
6.76523e-157
9.74716e-157
1.5493e-161
3.6775e-161
1.78241e-166
8.9045e-166
1.05193e-170
-4.51603e-158
3.32172e-162
-6.25002e-156
2.39769e-157
-7.53293e-152
1.21168e-152
-3.00405e-147
4.20138e-148
-9.35568e-143
1.06694e-143
-2.46428e-138
2.08236e-139
-5.8115e-134
3.03748e-135
-1.28464e-129
2.35681e-131
-2.16414e-125
-6.30479e-126
-1.99908e-121
-2.73714e-121
-1.11279e-117
-3.37714e-117
-5.31653e-114
-1.59928e-113
-9.58561e-111
-2.50793e-110
-2.56014e-108
-9.21697e-108
-5.43071e-107
-4.84525e-106
2.77238e-111
-3.28016e-105
5.4312e-107
-3.28015e-105
2.54942e-108
-4.84556e-106
1.92814e-110
-8.7518e-108
2.70508e-112
-2.34537e-109
2.94586e-115
-1.41769e-111
6.5061e-120
-1.239e-115
8.14458e-125
-1.44659e-120
7.51257e-130
-9.51385e-126
2.7498e-137
1.94828e-134
1.1697e-141
1.43787e-138
4.42977e-146
9.85801e-143
1.42241e-150
5.05112e-147
3.5673e-155
1.98906e-151
2.28178e-156
5.74843e-156
3.20919e-161
1.7138e-160
2.30752e-165
-4.162e-156
6.02843e-157
-2.52655e-151
5.41336e-152
-1.23058e-146
2.40582e-147
-4.09757e-142
6.94835e-143
-1.06496e-137
1.46974e-138
-2.33955e-133
2.38926e-134
-4.59876e-129
2.90307e-130
-8.46759e-125
1.87768e-126
-1.19241e-120
-3.4346e-121
-9.30767e-117
-1.241e-116
-4.93279e-113
-1.27588e-112
-1.94605e-109
-5.07236e-109
-2.96154e-106
-6.80346e-106
-6.97259e-104
-2.21229e-103
-1.36335e-102
-1.07341e-101
2.98953e-107
-6.9902e-101
1.36339e-102
-6.99014e-101
6.94232e-104
-1.07347e-101
5.9229e-106
-2.10075e-103
8.7546e-108
-6.58731e-105
1.11257e-110
-4.5305e-107
3.07155e-115
-4.83032e-111
4.69267e-120
-6.927e-116
5.19076e-125
-5.50184e-121
2.28744e-132
1.62935e-129
1.1674e-136
1.44469e-133
5.30067e-141
1.18905e-137
2.03953e-145
7.31456e-142
6.12526e-150
3.45809e-146
1.25767e-154
1.19735e-150
4.73007e-156
2.69575e-155
4.78775e-160
-5.1628e-151
1.40776e-151
-4.14828e-146
1.07818e-146
-1.68274e-141
3.9769e-142
-4.66394e-137
9.53278e-138
-1.00832e-132
1.67351e-133
-1.84132e-128
2.25788e-129
-3.00637e-124
2.2771e-125
-4.59442e-120
1.22359e-121
-5.3967e-116
-1.52764e-116
-3.5611e-112
-4.58826e-112
-1.78525e-108
-3.92921e-108
-5.8196e-105
-1.31212e-104
-7.48078e-102
-1.50698e-101
-1.55262e-99
-4.33897e-99
-2.79828e-98
-1.94368e-97
1.07302e-103
-1.2177e-96
2.79825e-98
-1.21768e-96
1.54567e-99
-1.94378e-97
1.48816e-101
-4.1205e-99
2.32303e-103
-1.51116e-100
3.43488e-106
-1.18207e-102
1.18592e-110
-1.53501e-106
2.22009e-115
-2.71136e-111
2.95656e-120
-2.60817e-116
1.58869e-127
1.12703e-124
9.7614e-132
1.20392e-128
5.33187e-136
1.1938e-132
2.46626e-140
8.84845e-137
8.89834e-145
5.04038e-141
2.19364e-149
2.10277e-145
2.73026e-154
5.7009e-150
7.44572e-155
-8.49827e-146
2.81309e-146
-5.68029e-141
1.7838e-141
-1.91569e-136
5.44753e-137
-4.41124e-132
1.08111e-132
-7.91708e-128
1.57134e-128
-1.19918e-123
1.75523e-124
-1.62258e-119
1.46573e-120
-2.05307e-115
6.52904e-117
-2.00928e-111
-5.55834e-112
-1.12197e-107
-1.38712e-107
-5.28428e-104
-9.89581e-104
-1.42472e-100
-2.77831e-100
-1.54825e-97
-2.73584e-97
-2.83284e-95
-6.98074e-95
-4.70595e-94
-2.88793e-93
-3.38066e-99
-1.74075e-92
4.70577e-94
-1.74073e-92
2.81979e-95
-2.88806e-93
3.06424e-97
-6.62979e-95
5.06004e-99
-2.83739e-96
8.68485e-102
-2.52373e-98
3.7508e-106
-3.98684e-102
8.6306e-111
-8.69255e-107
1.38747e-115
-1.0147e-111
9.18876e-123
6.44197e-120
6.81292e-127
8.30487e-124
4.48638e-131
9.94548e-128
2.49974e-135
8.90363e-132
1.08558e-139
6.12592e-136
3.21899e-144
3.08676e-140
4.81602e-149
1.01077e-144
1.59404e-149
-1.16195e-140
4.65694e-141
-6.45628e-136
2.4409e-136
-1.80873e-131
6.16166e-132
-3.45677e-127
1.01079e-127
-5.14428e-123
1.21435e-123
-6.45445e-119
1.12123e-119
-7.22672e-115
7.74041e-116
-7.55857e-111
2.85442e-112
-6.1607e-107
-1.65653e-107
-2.9152e-103
-3.4357e-103
-1.28059e-99
-2.04291e-99
-2.85908e-96
-4.8278e-96
-2.62909e-93
-4.08192e-93
-4.24103e-91
-9.23853e-91
-6.49363e-90
-3.53086e-89
-8.94926e-95
-2.04795e-88
6.49328e-90
-2.04792e-88
4.22098e-91
-3.53099e-89
5.17713e-93
-8.77489e-91
9.05415e-95
-4.36608e-92
1.80043e-97
-4.41533e-94
9.72735e-102
-8.47745e-98
2.75808e-106
-2.28547e-102
5.36198e-111
-3.24188e-107
4.41859e-118
3.0405e-115
3.95921e-122
4.73521e-119
3.14735e-126
6.85935e-123
2.11492e-130
7.42909e-127
1.10662e-134
6.18378e-131
3.95012e-139
3.76959e-135
7.10932e-144
1.4933e-139
2.8491e-144
-1.31427e-135
6.36254e-136
-6.071e-131
2.75367e-131
-1.4126e-126
5.73981e-127
-2.23984e-122
7.7749e-123
-2.76234e-118
7.7127e-119
-2.86883e-114
5.88015e-115
-2.65556e-110
3.35244e-111
-2.29346e-106
1.02274e-107
-1.55695e-102
-4.04721e-103
-6.92443e-99
-6.98111e-99
-2.54241e-95
-3.46284e-95
-4.70687e-92
-6.89788e-92
-3.66629e-89
-5.01556e-89
-5.21446e-87
-1.00788e-86
-7.35883e-86
-3.55985e-85
-1.29689e-90
-1.98706e-84
7.35836e-86
-1.98703e-84
5.18921e-87
-3.55997e-85
7.1828e-89
-9.57405e-87
1.33144e-90
-5.51021e-88
3.0624e-93
-6.33572e-90
2.0698e-97
-1.47738e-93
7.24691e-102
-4.93186e-98
1.70571e-106
-8.50876e-103
1.76488e-113
1.18441e-110
1.91285e-117
2.22924e-114
1.837e-121
3.91015e-118
1.48954e-125
5.12879e-122
9.39408e-130
5.17018e-126
4.03741e-134
3.81689e-130
8.74044e-139
1.83116e-134
4.23106e-139
-1.2263e-130
7.15423e-131
-4.71208e-126
2.555e-126
-9.10931e-122
4.39474e-122
-1.19847e-117
4.91228e-118
-1.22473e-113
4.02105e-114
-1.0525e-109
2.52972e-110
-8.05051e-106
1.19037e-106
-5.73723e-102
3.00353e-103
-3.24517e-98
-8.11079e-99
-1.3662e-94
-1.16488e-94
-4.13654e-91
-4.82574e-91
-6.36007e-88
-8.11572e-88
-4.20099e-85
-5.08336e-85
-5.26856e-83
-9.07902e-83
-6.85277e-82
-2.9646e-81
-1.35214e-86
-1.59272e-80
6.85229e-82
-1.5927e-80
5.24248e-83
-2.96469e-81
8.18749e-85
-8.62541e-83
1.60948e-86
-5.70613e-84
4.27579e-89
-7.46065e-86
3.61469e-93
-2.11154e-89
1.56571e-97
-8.73879e-94
4.46468e-102
-1.83482e-98
5.85288e-109
3.80677e-106
7.67711e-113
8.65905e-110
8.90959e-117
1.84021e-113
8.71859e-121
2.92508e-117
6.62683e-125
3.5734e-121
3.42794e-129
3.19693e-125
8.92121e-134
1.85862e-129
5.20437e-134
-9.41926e-126
6.60641e-126
-3.01408e-121
1.9462e-121
-4.84467e-117
2.76141e-117
-5.29105e-113
2.54612e-113
-4.48114e-109
1.71919e-109
-3.18647e-105
8.92176e-106
-2.01356e-101
3.46391e-102
-1.18362e-97
7.22946e-99
-5.58124e-94
-1.33382e-94
-2.20762e-90
-1.59746e-90
-5.5164e-87
-5.53473e-87
-7.05568e-84
-7.87242e-84
-3.95675e-81
-4.25524e-81
-4.37606e-79
-6.76196e-79
-5.24594e-78
-2.04204e-77
-1.08697e-82
-1.05605e-76
5.24555e-78
-1.05603e-76
4.35395e-79
-2.0421e-77
7.66993e-81
-6.42505e-79
1.59954e-82
-4.84954e-80
4.90182e-85
-7.21176e-82
5.18198e-89
-2.47593e-85
2.78142e-93
-1.27172e-89
9.61203e-98
-3.25052e-94
1.6115e-104
1.00939e-101
2.55869e-108
2.7738e-105
3.58858e-112
7.1444e-109
4.23717e-116
1.3767e-112
3.8797e-120
2.0389e-116
2.41375e-124
2.21131e-120
7.5432e-129
1.55849e-124
5.29037e-129
-5.9473e-121
5.00166e-121
-1.58716e-116
1.21524e-116
-2.12336e-112
1.42215e-112
-1.92636e-108
1.08151e-108
-1.35267e-104
6.02283e-105
-7.96028e-101
2.57787e-101
-4.15551e-97
8.25737e-98
-2.01439e-93
1.42609e-94
-7.92318e-90
-1.80059e-90
-2.92111e-86
-1.80161e-86
-6.0299e-83
-5.22887e-83
-6.42722e-80
-6.30229e-80
-3.06394e-77
-2.94514e-77
-2.9887e-75
-4.16858e-75
-3.302e-74
-1.16466e-73
-6.9214e-79
-5.79845e-73
3.30175e-74
-5.79835e-73
2.97331e-75
-1.16469e-73
5.90591e-77
-3.96153e-75
1.307e-78
-3.38267e-76
4.61468e-81
-5.72339e-78
6.0985e-85
-2.38235e-81
4.06236e-89
-1.52003e-85
1.70142e-93
-4.73003e-90
3.68452e-100
2.20803e-97
7.08174e-104
7.3256e-101
1.20009e-107
2.28701e-104
1.70906e-111
5.34328e-108
1.88385e-115
9.59485e-112
1.40813e-119
1.26169e-115
5.27648e-124
1.07812e-119
4.43735e-124
-3.18106e-116
3.10029e-116
-6.87537e-112
6.21273e-112
-7.66569e-108
5.99678e-108
-5.78196e-104
3.76139e-104
-3.36806e-100
1.72764e-100
-1.64082e-96
6.09895e-97
-7.07687e-93
1.61191e-93
-2.82896e-89
2.30517e-90
-1.02763e-85
-1.99559e-86
-3.16434e-82
-1.67191e-82
-5.4022e-79
-4.07212e-79
-4.80767e-76
-4.16744e-76
-1.95085e-73
-1.6869e-73
-1.67858e-71
-2.129e-71
-1.70916e-70
-5.5049e-70
-3.53487e-75
-2.63871e-69
1.70903e-70
-2.63867e-69
1.66979e-71
-5.50503e-70
3.73825e-73
-2.02363e-71
8.78067e-75
-1.93632e-72
3.56776e-77
-3.72927e-74
5.89167e-81
-1.88116e-77
4.8773e-85
-1.4921e-81
2.47509e-89
-5.65171e-86
6.99777e-96
3.98523e-93
1.62798e-99
1.59479e-96
3.33242e-103
6.03426e-100
5.72077e-107
1.70931e-103
7.58454e-111
3.72149e-107
6.80261e-115
5.93315e-111
3.13842e-119
6.1468e-115
3.06738e-119
-1.61353e-111
1.57157e-111
-2.68335e-107
2.59765e-107
-2.27865e-103
2.0683e-103
-1.43034e-99
1.07019e-99
-6.91624e-96
4.05475e-96
-2.79041e-92
1.18081e-92
-9.94521e-89
2.57554e-89
-3.27853e-85
3.05273e-86
-1.10529e-81
-1.81583e-82
-2.80545e-78
-1.27729e-78
-3.96625e-75
-2.61582e-75
-2.95298e-72
-2.27789e-72
-1.02138e-69
-8.00187e-70
-7.7534e-68
-9.01453e-68
-7.27544e-67
-2.15778e-66
-1.4572e-71
-9.95881e-66
7.27488e-67
-9.95863e-66
7.71213e-68
-2.15783e-66
1.94507e-69
-8.57027e-68
4.84984e-71
-9.09414e-69
2.26527e-73
-1.99492e-70
4.672e-77
-1.21891e-73
4.81258e-81
-1.20268e-77
2.95757e-85
-5.54239e-82
1.1044e-91
5.93596e-89
3.10929e-95
2.86172e-92
7.68492e-99
1.31202e-95
1.5893e-102
4.50531e-99
2.53189e-106
1.1891e-102
2.97139e-110
2.29811e-106
1.78784e-114
2.88627e-110
1.74619e-114
-6.68048e-107
6.50669e-107
-9.16628e-103
8.87372e-103
-6.07874e-99
5.82963e-99
-2.91543e-95
2.48885e-95
-1.171e-91
7.78079e-92
-3.91436e-88
1.86972e-88
-1.15315e-84
3.36689e-85
-3.13525e-81
3.31135e-82
-9.71976e-78
-1.35641e-78
-2.03498e-74
-8.03624e-75
-2.38594e-71
-1.38675e-71
-1.48925e-68
-1.02976e-68
-4.39716e-66
-3.14528e-66
-2.94521e-64
-3.16619e-64
-2.54689e-63
-7.01791e-63
-4.86445e-68
-3.16855e-62
2.54669e-63
-3.16849e-62
2.92932e-64
-7.01805e-63
8.31887e-66
-3.0109e-64
2.20212e-67
-3.50333e-65
1.18112e-69
-8.75997e-67
3.04059e-73
-6.48033e-70
3.90177e-77
-7.95782e-74
2.90119e-81
-4.45801e-78
1.44884e-87
7.29867e-85
4.93511e-91
4.23263e-88
1.47214e-94
2.3505e-91
3.66515e-98
9.78154e-95
7.60668e-102
3.12882e-98
1.14818e-105
7.32858e-102
8.37351e-110
1.11553e-105
8.17966e-110
-2.2565e-102
2.19771e-102
-2.55554e-98
2.47388e-98
-1.39883e-94
1.34153e-94
-4.99886e-91
4.72726e-91
-1.63417e-87
1.21989e-87
-4.528e-84
2.41983e-84
-1.10295e-80
3.5993e-81
-2.67037e-77
2.94178e-78
-6.9847e-74
-8.31581e-75
-1.20723e-70
-4.16498e-71
-1.17573e-67
-6.06941e-68
-6.16559e-65
-3.85184e-65
-1.55642e-62
-1.02493e-62
-9.2015e-61
-9.75857e-61
-7.33277e-60
-2.08797e-59
-1.31731e-64
-9.11428e-59
7.33221e-60
-9.11411e-59
9.15123e-61
-2.08801e-59
2.92423e-62
-9.28066e-61
8.219e-64
-1.10651e-61
5.05695e-66
-3.15695e-63
1.6238e-69
-2.82628e-66
2.59835e-73
-4.32088e-70
2.33448e-77
-2.93875e-74
1.5803e-83
7.41073e-81
6.51076e-87
5.16024e-84
2.3429e-90
3.46927e-87
7.11285e-94
1.74894e-90
1.99569e-97
6.7773e-94
3.64982e-101
1.9233e-97
3.22496e-105
3.54667e-101
3.15074e-105
-6.21072e-98
6.04849e-98
-5.80856e-94
5.62252e-94
-2.62575e-90
2.51803e-90
-7.75448e-87
7.32774e-87
-1.9044e-83
1.5615e-83
-4.51898e-80
2.55835e-80
-9.20261e-77
3.14524e-77
-1.9058e-73
2.13984e-74
-4.09918e-70
-4.18208e-71
-5.8547e-67
-1.77832e-67
-4.74454e-64
-2.1936e-64
-2.09564e-61
-1.22098e-61
-4.53025e-59
-3.05165e-59
-2.36402e-57
-2.60274e-57
-1.73587e-56
-5.13809e-56
-2.89442e-61
-2.15528e-55
1.73574e-56
-2.15524e-55
2.35098e-57
-5.13818e-56
8.43592e-59
-2.47608e-57
2.52107e-60
-2.8651e-58
1.7777e-62
-9.33506e-60
7.11449e-66
-1.01093e-62
1.4208e-69
-1.92442e-66
1.53947e-73
-1.58605e-70
1.43324e-79
6.2161e-77
7.47257e-83
5.18601e-80
3.14029e-86
4.21866e-83
1.26987e-89
2.57486e-86
4.3074e-93
1.20831e-89
9.53926e-97
4.15207e-93
1.02071e-100
9.27111e-97
9.97344e-101
-1.3911e-93
1.35463e-93
-1.07506e-89
1.04052e-89
-4.01606e-86
3.85089e-86
-9.80098e-83
9.26099e-83
-1.98394e-79
1.63079e-79
-3.88629e-76
2.20812e-76
-6.52926e-73
2.24542e-73
-1.1098e-69
1.27402e-70
-1.96343e-66
-1.72378e-67
-2.32007e-63
-6.25476e-64
-1.56779e-60
-6.84691e-61
-5.84628e-58
-3.46475e-58
-1.08398e-55
-7.51319e-56
-4.99359e-54
-5.70613e-54
-3.37821e-53
-1.03922e-52
-5.15856e-58
-4.1886e-52
3.37797e-53
-4.18851e-52
4.96582e-54
-1.03924e-52
1.99919e-55
-5.43039e-54
6.35182e-57
-6.07642e-55
5.13035e-59
-2.26445e-56
2.55681e-62
-2.96477e-59
6.37675e-66
-7.0268e-63
8.31017e-70
-6.99907e-67
1.10371e-75
4.30944e-73
7.45867e-79
4.29691e-76
3.79736e-82
4.2265e-79
1.86225e-85
3.12142e-82
7.64479e-89
1.77257e-85
2.04885e-92
7.37063e-89
2.65319e-96
1.99154e-92
2.59273e-96
-2.53165e-89
2.46493e-89
-1.61794e-85
1.5657e-85
-4.99881e-82
4.79245e-82
-1.00889e-78
9.53182e-79
-1.68374e-75
1.38807e-75
-2.72435e-72
1.55448e-72
-3.77809e-69
1.30873e-69
-5.26862e-66
6.20688e-67
-7.67041e-63
-5.8156e-64
-7.50978e-60
-1.92427e-60
-4.24019e-57
-1.86743e-57
-1.33827e-54
-8.0586e-55
-2.13187e-52
-1.51859e-52
-8.67105e-51
-1.02794e-50
-5.40369e-50
-1.72721e-49
-7.44759e-55
-6.68828e-49
5.40332e-50
-6.68814e-49
8.62257e-51
-1.72724e-49
3.89146e-52
-9.7868e-51
1.31468e-53
-1.05474e-51
1.21528e-55
-4.50409e-53
7.53518e-59
-7.12671e-56
2.34801e-62
-2.10227e-59
3.66652e-66
-2.52121e-63
7.51776e-72
2.47057e-69
6.13451e-75
2.93604e-72
3.77845e-78
3.4883e-75
2.24639e-81
3.11484e-78
1.11519e-84
2.1389e-81
3.61399e-88
1.0754e-84
5.65951e-92
3.51331e-88
5.53104e-92
-3.73725e-85
3.63808e-85
-1.977e-81
1.91277e-81
-5.05664e-78
4.84685e-78
-8.44791e-75
7.97999e-75
-1.16285e-71
9.61919e-72
-1.55532e-68
8.91821e-69
-1.78139e-65
6.22337e-66
-2.03733e-62
2.4736e-63
-2.44234e-59
-1.72307e-60
-1.98426e-56
-5.07644e-57
-9.38251e-54
-4.16229e-54
-2.5131e-51
-1.5352e-51
-3.44556e-49
-2.51919e-49
-1.23748e-47
-1.52127e-47
-7.10263e-47
-2.35827e-46
-8.69312e-52
-8.77223e-46
7.10216e-47
-8.77205e-46
1.23055e-47
-2.3583e-46
6.21993e-49
-1.44907e-47
2.23481e-50
-1.49706e-48
2.36256e-52
-7.34281e-50
1.82061e-55
-1.40354e-52
7.08956e-59
-5.14978e-56
1.31967e-62
-7.39761e-60
4.22059e-68
1.17191e-65
4.15373e-71
1.65442e-68
3.09245e-74
2.37157e-71
2.22798e-77
2.55795e-74
1.33631e-80
2.12199e-77
5.23147e-84
1.28883e-80
9.89784e-88
5.0862e-84
9.67385e-88
-4.46658e-81
4.34705e-81
-1.95808e-77
1.89396e-77
-4.15071e-74
3.97738e-74
-5.74668e-71
5.42699e-71
-6.52724e-68
5.42108e-68
-7.22275e-65
4.16574e-65
-6.83706e-62
2.41274e-62
-6.41097e-59
8.06094e-60
-6.33283e-56
-4.28216e-57
-4.27713e-53
-1.09021e-53
-1.69795e-50
-7.57454e-51
-3.87056e-48
-2.39439e-48
-4.57545e-46
-3.4288e-46
-1.45113e-44
-1.84891e-44
-7.66897e-44
-2.64423e-43
-8.17597e-49
-9.44693e-43
7.66848e-44
-9.44673e-43
1.443e-44
-2.64427e-43
8.1607e-46
-1.76216e-44
3.11915e-47
-1.73554e-45
3.76853e-49
-9.80636e-47
3.60533e-52
-2.26354e-49
1.75432e-55
-1.03207e-52
3.86495e-59
-1.76309e-56
1.95312e-64
4.60264e-62
2.31509e-67
7.68931e-65
2.08108e-70
1.3281e-67
1.81605e-73
1.7283e-70
1.31451e-76
1.73012e-73
6.20977e-80
1.26796e-76
1.4178e-83
6.03773e-80
1.38578e-83
-4.31263e-77
4.196e-77
-1.56884e-73
1.51696e-73
-2.75998e-70
2.64378e-70
-3.17104e-67
2.99363e-67
-2.97355e-64
2.48143e-64
-2.72511e-61
1.58262e-61
-2.13377e-58
7.62015e-59
-1.63994e-55
2.14713e-56
-1.33601e-52
-8.54693e-54
-7.51657e-50
-1.90321e-50
-2.51202e-47
-1.12457e-47
-4.88788e-45
-3.05584e-45
-4.99089e-43
-3.8275e-43
-1.39777e-41
-1.84475e-41
-6.79949e-41
-2.43375e-40
-6.16333e-46
-8.34934e-40
6.79908e-41
-8.34917e-40
1.38997e-41
-2.43378e-40
8.78556e-43
-1.75935e-41
3.57317e-44
-1.64104e-42
4.93109e-46
-1.0722e-43
5.84972e-49
-2.98771e-46
3.55526e-52
-1.69052e-49
9.17795e-56
-3.39949e-53
7.45094e-61
1.49775e-58
1.06199e-63
2.94844e-61
1.15109e-66
6.12625e-64
1.21601e-69
9.60528e-67
1.06077e-72
1.15874e-69
6.03855e-76
1.0233e-72
1.66154e-79
5.87143e-76
1.62406e-79
-3.35571e-73
3.26378e-73
-1.0146e-69
9.8063e-70
-1.48378e-66
1.42067e-66
-1.41703e-63
1.33718e-63
-1.09769e-60
9.21235e-61
-8.34216e-58
4.88468e-58
-5.40856e-55
1.95891e-55
-3.40634e-52
4.67234e-53
-2.29108e-49
-1.36186e-50
-1.07624e-46
-2.6969e-47
-3.03687e-44
-1.36096e-44
-5.05973e-42
-3.18944e-42
-4.47069e-40
-3.50251e-40
-1.10553e-38
-1.5103e-38
-4.94804e-38
-1.83779e-37
-3.69091e-43
-6.05263e-37
4.94775e-38
-6.0525e-37
1.09941e-38
-1.83781e-37
7.75734e-40
-1.44149e-38
3.35837e-41
-1.26329e-39
5.29146e-43
-9.59095e-41
7.77371e-46
-3.22537e-43
5.89587e-49
-2.26049e-46
1.75812e-52
-5.27312e-50
2.34357e-57
4.04122e-55
4.00893e-60
9.32998e-58
5.23089e-63
2.32765e-60
6.68492e-66
4.38975e-63
7.01657e-69
6.37133e-66
4.8053e-72
6.769e-69
1.59093e-75
4.67226e-72
1.55502e-75
-2.09821e-69
2.03982e-69
-5.28285e-66
5.10334e-66
-6.435e-63
6.15785e-63
-5.11827e-60
4.82717e-60
-3.27772e-57
2.76943e-57
-2.06884e-54
1.22323e-54
-1.11201e-51
4.09495e-52
-5.73804e-49
8.3014e-50
-3.19039e-46
-1.7173e-47
-1.2546e-43
-3.09671e-44
-2.99864e-41
-1.34118e-41
-4.292e-39
-2.72048e-39
-3.28763e-37
-2.62603e-37
-7.1765e-36
-1.01404e-35
-2.95363e-35
-1.13782e-34
-1.72665e-40
-3.59634e-34
2.95347e-35
-3.59626e-34
7.13729e-36
-1.13784e-34
5.61467e-37
-9.68704e-36
2.58865e-38
-7.89897e-37
4.65514e-40
-7.01294e-38
8.45748e-43
-2.8455e-40
7.99231e-46
-2.46369e-43
2.69575e-49
-6.52378e-47
6.07831e-54
9.04751e-52
1.24513e-56
2.43708e-54
1.95183e-59
7.28404e-57
3.01519e-62
1.64907e-59
3.80041e-65
2.87411e-62
3.12507e-68
3.66629e-65
1.24254e-71
3.03837e-68
1.21442e-71
-1.05074e-65
1.02094e-65
-2.20812e-62
2.13173e-62
-2.24557e-59
2.14737e-59
-1.491e-56
1.40524e-56
-7.9006e-54
6.72914e-54
-4.14936e-51
2.48172e-51
-1.85177e-48
6.95339e-49
-7.82832e-46
1.20332e-46
-3.60367e-43
-1.68985e-44
-1.18978e-40
-2.87534e-41
-2.4171e-38
-1.07497e-38
-2.98244e-36
-1.89486e-36
-1.98401e-34
-1.6121e-34
-3.82139e-33
-5.57975e-33
-1.44523e-32
-5.77126e-32
-6.10124e-38
-1.74995e-31
1.44516e-32
-1.74992e-31
3.80089e-33
-5.77133e-32
3.32913e-34
-5.33586e-33
1.63559e-35
-3.99907e-34
3.35626e-37
-4.1875e-35
7.52932e-40
-2.04944e-37
8.8431e-43
-2.1842e-40
3.26669e-46
-6.34704e-44
1.3001e-50
1.68157e-48
3.18109e-53
5.25637e-51
5.97597e-56
1.8772e-53
1.11485e-58
5.0897e-56
1.68349e-61
1.06276e-58
1.65828e-64
1.62395e-61
7.89996e-68
1.61208e-64
7.7204e-68
-4.19803e-62
4.07619e-62
-7.38362e-59
7.12264e-59
-6.28649e-56
6.00645e-56
-3.4941e-53
3.29037e-53
-1.53363e-50
1.31872e-50
-6.7171e-48
4.0723e-48
-2.49342e-45
9.57893e-46
-8.6368e-43
1.4217e-43
-3.29779e-40
-1.26464e-41
-9.17102e-38
-2.15337e-38
-1.58961e-35
-6.99776e-36
-1.6971e-33
-1.07669e-33
-9.82133e-32
-8.09698e-32
-1.66803e-30
-2.51411e-30
-5.79164e-30
-2.39589e-29
-1.49058e-35
-6.96606e-29
5.79137e-30
-6.96591e-29
1.65931e-30
-2.39592e-29
1.61588e-31
-2.40717e-30
8.4665e-33
-1.6323e-31
1.98224e-34
-2.0394e-32
5.48166e-37
-1.20353e-34
7.96783e-40
-1.57061e-37
3.05484e-43
-4.72987e-41
2.29388e-47
2.59374e-45
6.68415e-50
9.36486e-48
1.50024e-52
3.98392e-50
3.37596e-55
1.28999e-52
6.09076e-58
3.21822e-55
7.16679e-61
5.87444e-58
4.07967e-64
6.9658e-61
3.98629e-64
-1.33207e-58
1.29233e-58
-1.96726e-55
1.89592e-55
-1.40694e-52
1.34286e-52
-6.5676e-50
6.17834e-50
-2.39087e-47
2.07911e-47
-8.75649e-45
5.39398e-45
-2.70954e-42
1.06898e-42
-7.69281e-40
1.36736e-40
-2.44175e-37
-6.79183e-39
-5.74037e-35
-1.29654e-35
-8.52385e-33
-3.69338e-33
-7.90482e-31
-4.98526e-31
-3.98601e-29
-3.32422e-29
-5.96357e-28
-9.26677e-28
-1.89883e-27
-8.13108e-27
-1.69923e-33
-2.26555e-26
1.89874e-27
-2.2655e-26
5.93343e-28
-8.13117e-27
6.41475e-29
-8.88544e-28
3.58851e-30
-5.33822e-29
9.58562e-32
-8.08932e-30
3.26144e-34
-5.75307e-32
5.82284e-37
-9.11893e-35
2.08301e-40
-2.5395e-38
3.34068e-44
3.24734e-42
1.15517e-46
1.37911e-44
3.08612e-49
6.96351e-47
8.36503e-52
2.68377e-49
1.79719e-54
7.97359e-52
2.51778e-57
1.73294e-54
1.70702e-60
2.44651e-57
1.66756e-60
-3.33904e-55
3.23611e-55
-4.15663e-52
4.00122e-52
-2.50689e-49
2.38968e-49
-9.86648e-47
9.27018e-47
-2.98365e-44
2.62938e-44
-9.16752e-42
5.75363e-42
-2.37088e-39
9.64667e-40
-5.5212e-37
1.06874e-37
-1.46065e-34
-2.13841e-36
-2.91441e-32
-6.25043e-33
-3.72406e-30
-1.5771e-30
-3.01256e-28
-1.87832e-28
-1.32552e-26
-1.11431e-26
-1.74456e-25
-2.7906e-25
-5.08642e-25
-2.2519e-24
4.01989e-31
-6.00887e-24
5.08622e-25
-6.00875e-24
1.73612e-25
-2.25192e-24
2.07455e-26
-2.68039e-25
1.2447e-27
-1.40791e-26
3.79387e-29
-2.60873e-27
1.58538e-31
-2.23494e-29
3.43444e-34
-4.25173e-32
8.54386e-38
-8.11814e-36
4.00551e-41
1.80165e-39
1.63707e-43
1.67487e-41
5.18218e-46
9.99573e-44
1.68932e-48
4.56719e-46
4.30513e-51
1.60979e-48
7.15269e-54
4.14937e-51
5.75349e-57
6.94708e-54
5.61831e-57
-6.58096e-52
6.37031e-52
-6.93706e-49
6.66853e-49
-3.54458e-46
3.37383e-46
-1.18162e-43
1.10864e-43
-2.97396e-41
2.66241e-41
-7.69625e-39
4.93688e-39
-1.66879e-36
7.03633e-37
-3.19413e-34
6.78417e-35
-7.05175e-32
6.33948e-35
-1.19855e-29
-2.39733e-30
-1.32452e-27
-5.43301e-28
-9.38907e-26
-5.74881e-26
-3.60895e-24
-3.04534e-24
-4.17059e-23
-6.85895e-23
-1.11147e-22
-5.10086e-22
2.78398e-28
-1.30409e-21
1.11143e-22
-1.30407e-21
4.15155e-23
-5.1009e-22
5.21145e-24
-6.60172e-23
3.53161e-25
-3.56738e-24
1.22864e-26
-6.82606e-25
6.30174e-29
-7.04899e-27
1.62735e-31
-1.58502e-29
5.89611e-36
2.33231e-36
4.01291e-38
1.59995e-36
1.83151e-40
1.67021e-38
7.05778e-43
1.17208e-40
2.76245e-45
6.32007e-43
8.31186e-48
2.63083e-45
1.63009e-50
8.00523e-48
1.54854e-53
1.58212e-50
1.51124e-53
-1.04634e-48
1.0124e-48
-9.38832e-46
9.02108e-46
-4.08549e-43
3.88755e-43
-1.15939e-40
1.08803e-40
-2.43883e-38
2.22414e-38
-5.34078e-36
3.51428e-36
-9.75447e-34
4.28204e-34
-1.56358e-31
3.61682e-32
-2.77602e-29
5.00708e-31
-3.98519e-27
-7.24436e-28
-3.83089e-25
-1.50447e-25
-2.39139e-23
-1.42601e-23
-8.03192e-22
-6.78684e-22
-8.14306e-21
-1.40625e-20
-1.97914e-20
-1.03271e-19
8.27276e-26
-2.40944e-19
1.97908e-20
-2.4094e-19
8.10861e-21
-1.0328e-19
1.05573e-21
-1.35834e-20
8.18818e-23
-7.25888e-22
3.25428e-24
-1.4465e-22
2.05341e-26
-1.80607e-24
6.03633e-29
-4.72235e-27
3.95267e-33
2.51041e-32
3.2101e-35
1.14262e-33
1.69821e-37
1.36001e-35
7.7381e-40
1.11567e-37
3.62901e-42
7.06066e-40
1.28215e-44
3.45266e-42
2.95177e-47
1.23347e-44
3.29376e-50
2.86194e-47
3.21152e-50
-1.29043e-45
1.24627e-45
-9.92014e-43
9.51276e-43
-3.70129e-40
3.51432e-40
-9.00286e-38
8.43129e-38
-1.6118e-35
1.4765e-35
-2.95145e-33
2.00028e-33
-4.56318e-31
2.09715e-31
-6.15015e-29
1.56039e-29
-8.79399e-27
3.50443e-28
-1.06955e-24
-1.70308e-25
-8.99754e-23
-3.33203e-23
-4.9809e-21
-2.87273e-21
-1.46822e-19
-1.25677e-19
-1.29088e-18
-2.15841e-18
-2.83317e-18
-1.22877e-17
1.66143e-23
-2.66264e-17
2.8331e-18
-2.6626e-17
1.28605e-18
-1.22877e-17
1.7341e-19
-2.09263e-18
1.54629e-20
-1.20071e-19
7.03784e-22
-2.469e-20
5.49902e-24
-3.75934e-22
1.8184e-26
-1.13067e-24
2.14161e-30
2.41526e-29
2.04091e-32
6.64126e-31
1.26545e-34
8.9817e-33
6.77306e-37
8.56133e-35
3.79547e-39
6.31707e-37
1.56452e-41
3.60623e-39
4.2008e-44
1.50286e-41
5.47109e-47
4.06741e-44
5.32803e-47
-1.21899e-42
1.1745e-42
-8.08892e-40
7.73689e-40
-2.60724e-37
2.46889e-37
-5.47691e-35
5.11595e-35
-8.46001e-33
7.73366e-33
-1.29021e-30
9.04691e-31
-1.69921e-28
8.22268e-29
-1.93472e-26
5.42195e-27
-2.23234e-24
1.5053e-25
-2.30944e-22
-3.03979e-23
-1.71792e-20
-5.92196e-21
-8.92481e-19
-4.67684e-19