/*--------------------------------*- C++ -*----------------------------------*\
  =========                 |
  \\      /  F ield         | OpenFOAM: The Open Source CFD Toolbox
   \\    /   O peration     | Website:  https://openfoam.org
    \\  /    A nd           | Version:  9
     \\/     M anipulation  |
\*---------------------------------------------------------------------------*/
FoamFile
{
    format      ascii;
    class       volScalarField;
    location    "0.6";
    object      p;
}
// * * * * * * * * * * * * * * * * * * * * * * * * * * * * * * * * * * * * * //

dimensions      [1 -1 -2 0 0 0 0];

internalField   nonuniform List<scalar> 
4096
(
-4.49075e-06
0
2.15766e-05
4.76251e-05
7.84431e-05
0.000113505
0.000151831
0.000192175
0.000233126
0.000273201
0.000310919
0.000344872
0.000373787
0.00039658
0.000412396
0.000420647
0.000421038
0.000413571
0.000398553
0.000376581
0.000348519
0.000315464
0.000278707
0.000239677
0.000199893
0.000160898
0.000124208
9.1242e-05
6.32761e-05
4.13963e-05
2.64628e-05
1.89164e-05
-0.0519409
-0.0519328
-0.0519144
-0.0518889
-0.0518575
-0.0518214
-0.0517818
-0.0517401
-0.0516977
-0.0516562
-0.0516171
-0.051582
-0.051552
-0.0515284
-0.051512
-0.0515035
-0.0515031
-0.0515109
-0.0515265
-0.0515492
-0.0515784
-0.0516126
-0.0516507
-0.0516912
-0.0517325
-0.0517729
-0.0518109
-0.0518451
-0.0518741
-0.0518968
-0.0519123
-0.0519201
-0.103885
-0.103876
-0.103858
-0.103831
-0.103798
-0.10376
-0.103718
-0.103673
-0.103628
-0.103583
-0.103541
-0.103504
-0.103472
-0.103446
-0.103429
-0.10342
-0.103419
-0.103428
-0.103444
-0.103469
-0.1035
-0.103537
-0.103578
-0.103621
-0.103666
-0.103709
-0.10375
-0.103786
-0.103818
-0.103842
-0.103859
-0.103867
-0.155838
-0.155828
-0.155809
-0.15578
-0.155744
-0.155702
-0.155656
-0.155607
-0.155557
-0.155508
-0.155461
-0.15542
-0.155384
-0.155356
-0.155337
-0.155327
-0.155327
-0.155336
-0.155355
-0.155382
-0.155416
-0.155457
-0.155502
-0.15555
-0.155599
-0.155647
-0.155693
-0.155733
-0.155768
-0.155795
-0.155813
-0.155822
-0.207801
-0.20779
-0.207768
-0.207736
-0.207696
-0.207649
-0.207597
-0.207541
-0.207484
-0.207429
-0.207377
-0.20733
-0.20729
-0.207258
-0.207236
-0.207225
-0.207225
-0.207235
-0.207256
-0.207287
-0.207326
-0.207373
-0.207424
-0.207479
-0.207534
-0.207589
-0.20764
-0.207686
-0.207725
-0.207756
-0.207776
-0.207787
-0.259775
-0.259762
-0.259737
-0.259701
-0.259655
-0.259601
-0.25954
-0.259476
-0.259411
-0.259347
-0.259287
-0.259233
-0.259186
-0.25915
-0.259125
-0.259112
-0.259111
-0.259124
-0.259148
-0.259184
-0.259229
-0.259283
-0.259342
-0.259406
-0.25947
-0.259533
-0.259592
-0.259645
-0.259691
-0.259726
-0.25975
-0.259762
-0.311761
-0.311746
-0.311718
-0.311675
-0.311622
-0.311558
-0.311488
-0.311413
-0.311337
-0.311262
-0.311191
-0.311128
-0.311074
-0.311031
-0.311001
-0.310986
-0.310986
-0.311
-0.311029
-0.311071
-0.311125
-0.311187
-0.311257
-0.311331
-0.311407
-0.311481
-0.31155
-0.311613
-0.311666
-0.311707
-0.311736
-0.31175
-0.363762
-0.363745
-0.363711
-0.363661
-0.363598
-0.363523
-0.36344
-0.363351
-0.363261
-0.363172
-0.363089
-0.363013
-0.362949
-0.362899
-0.362864
-0.362846
-0.362846
-0.362863
-0.362897
-0.362947
-0.36301
-0.363085
-0.363168
-0.363256
-0.363345
-0.363433
-0.363515
-0.36359
-0.363652
-0.363702
-0.363735
-0.363752
-0.41578
-0.41576
-0.415719
-0.41566
-0.415585
-0.415495
-0.415396
-0.415291
-0.415183
-0.415077
-0.414978
-0.414888
-0.414811
-0.414751
-0.41471
-0.414688
-0.414688
-0.414709
-0.41475
-0.414809
-0.414885
-0.414974
-0.415073
-0.415178
-0.415285
-0.41539
-0.415489
-0.415577
-0.415652
-0.415711
-0.415751
-0.415771
-0.467819
-0.467795
-0.467746
-0.467676
-0.467585
-0.467478
-0.467359
-0.467233
-0.467103
-0.466977
-0.466857
-0.466749
-0.466657
-0.466585
-0.466535
-0.46651
-0.46651
-0.466535
-0.466584
-0.466655
-0.466747
-0.466854
-0.466973
-0.467099
-0.467227
-0.467353
-0.467472
-0.467578
-0.467668
-0.467739
-0.467787
-0.467811
-0.519883
-0.519854
-0.519795
-0.51971
-0.519601
-0.519472
-0.519329
-0.519177
-0.519021
-0.518869
-0.518725
-0.518595
-0.518484
-0.518397
-0.518337
-0.518306
-0.518306
-0.518336
-0.518396
-0.518482
-0.518592
-0.518722
-0.518865
-0.519017
-0.519172
-0.519324
-0.519467
-0.519595
-0.519703
-0.519788
-0.519846
-0.519876
-0.571977
-0.571941
-0.571871
-0.571768
-0.571636
-0.571481
-0.571308
-0.571125
-0.570937
-0.570752
-0.570578
-0.570421
-0.570288
-0.570183
-0.57011
-0.570073
-0.570073
-0.570109
-0.570181
-0.570286
-0.570419
-0.570575
-0.570749
-0.570933
-0.57112
-0.571303
-0.571476
-0.57163
-0.571762
-0.571864
-0.571934
-0.57197
-0.624106
-0.624063
-0.623978
-0.623854
-0.623695
-0.623507
-0.623298
-0.623076
-0.622849
-0.622625
-0.622415
-0.622225
-0.622063
-0.621936
-0.621848
-0.621803
-0.621803
-0.621847
-0.621935
-0.622061
-0.622223
-0.622412
-0.622622
-0.622845
-0.623072
-0.623294
-0.623502
-0.623689
-0.623848
-0.623972
-0.624057
-0.6241
-0.676279
-0.676227
-0.676124
-0.675974
-0.675781
-0.675554
-0.675301
-0.675032
-0.674757
-0.674486
-0.674231
-0.674001
-0.673805
-0.67365
-0.673544
-0.67349
-0.673489
-0.673543
-0.673649
-0.673803
-0.673999
-0.674228
-0.674483
-0.674753
-0.675028
-0.675297
-0.67555
-0.675776
-0.675969
-0.676119
-0.676221
-0.676273
-0.728505
-0.728442
-0.728318
-0.728135
-0.727902
-0.727627
-0.72732
-0.726994
-0.72666
-0.726332
-0.726022
-0.725743
-0.725505
-0.725318
-0.725189
-0.725123
-0.725122
-0.725188
-0.725317
-0.725503
-0.725741
-0.72602
-0.726329
-0.726657
-0.72699
-0.727316
-0.727623
-0.727897
-0.72813
-0.728312
-0.728437
-0.728499
-0.780795
-0.780718
-0.780568
-0.780347
-0.780064
-0.779731
-0.779359
-0.778963
-0.778558
-0.77816
-0.777784
-0.777445
-0.777156
-0.776928
-0.776771
-0.776691
-0.776691
-0.776771
-0.776927
-0.777154
-0.777443
-0.777782
-0.778157
-0.778555
-0.77896
-0.779355
-0.779727
-0.78006
-0.780342
-0.780563
-0.780713
-0.78079
-0.833162
-0.833069
-0.832887
-0.832619
-0.832277
-0.831872
-0.831422
-0.830941
-0.83045
-0.829966
-0.829509
-0.829097
-0.828746
-0.828469
-0.828279
-0.828181
-0.828181
-0.828278
-0.828468
-0.828745
-0.829096
-0.829507
-0.829964
-0.830447
-0.830938
-0.831418
-0.831869
-0.832273
-0.832615
-0.832882
-0.833065
-0.833157
-0.885623
-0.885511
-0.88529
-0.884966
-0.884551
-0.88406
-0.883513
-0.88293
-0.882334
-0.881747
-0.881191
-0.88069
-0.880263
-0.879927
-0.879694
-0.879576
-0.879576
-0.879694
-0.879926
-0.880262
-0.880689
-0.881189
-0.881744
-0.882331
-0.882927
-0.88351
-0.884057
-0.884547
-0.884962
-0.885286
-0.885506
-0.885618
-0.938198
-0.938062
-0.937794
-0.937402
-0.936899
-0.936305
-0.935641
-0.934934
-0.934209
-0.933496
-0.932821
-0.932211
-0.931691
-0.931282
-0.930999
-0.930855
-0.930854
-0.930998
-0.931281
-0.93169
-0.93221
-0.932819
-0.933493
-0.934207
-0.934931
-0.935638
-0.936301
-0.936895
-0.937398
-0.937791
-0.938058
-0.938194
-0.990911
-0.990747
-0.990423
-0.989947
-0.989338
-0.988618
-0.987813
-0.986955
-0.986075
-0.985207
-0.984387
-0.983645
-0.983012
-0.982513
-0.982169
-0.981993
-0.981992
-0.982168
-0.982512
-0.983011
-0.983644
-0.984385
-0.985205
-0.986072
-0.986952
-0.98781
-0.988615
-0.989335
-0.989944
-0.990419
-0.990743
-0.990907
-1.04379
-1.04359
-1.0432
-1.04263
-1.04189
-1.04102
-1.04004
-1.039
-1.03793
-1.03687
-1.03588
-1.03497
-1.0342
-1.03359
-1.03317
-1.03296
-1.03296
-1.03317
-1.03359
-1.0342
-1.03497
-1.03587
-1.03687
-1.03793
-1.039
-1.04004
-1.04101
-1.04188
-1.04262
-1.0432
-1.04359
-1.04379
-1.09688
-1.09664
-1.09616
-1.09547
-1.09457
-1.09352
-1.09233
-1.09107
-1.08977
-1.08849
-1.08727
-1.08617
-1.08523
-1.08449
-1.08398
-1.08372
-1.08372
-1.08398
-1.08449
-1.08523
-1.08617
-1.08727
-1.08849
-1.08977
-1.09107
-1.09233
-1.09351
-1.09457
-1.09546
-1.09616
-1.09663
-1.09687
-1.1502
-1.14992
-1.14934
-1.1485
-1.14742
-1.14614
-1.14471
-1.14318
-1.1416
-1.14004
-1.13856
-1.13722
-1.13607
-1.13517
-1.13454
-1.13422
-1.13422
-1.13454
-1.13517
-1.13607
-1.13722
-1.13856
-1.14004
-1.1416
-1.14317
-1.14471
-1.14614
-1.14742
-1.1485
-1.14934
-1.14991
-1.1502
-1.20383
-1.20348
-1.20279
-1.20178
-1.20047
-1.19893
-1.19719
-1.19533
-1.19342
-1.19152
-1.18972
-1.18808
-1.18668
-1.18557
-1.18481
-1.18442
-1.18442
-1.18481
-1.18557
-1.18668
-1.18808
-1.18972
-1.19152
-1.19341
-1.19533
-1.19719
-1.19892
-1.20047
-1.20177
-1.20279
-1.20348
-1.20383
-1.25782
-1.2574
-1.25657
-1.25534
-1.25377
-1.2519
-1.2498
-1.24754
-1.24522
-1.24291
-1.24072
-1.23872
-1.23701
-1.23565
-1.23471
-1.23423
-1.23423
-1.23471
-1.23565
-1.23701
-1.23872
-1.24071
-1.24291
-1.24522
-1.24754
-1.2498
-1.2519
-1.25377
-1.25534
-1.25657
-1.2574
-1.25782
-1.31224
-1.31174
-1.31074
-1.30926
-1.30737
-1.30511
-1.30257
-1.29984
-1.29701
-1.29421
-1.29153
-1.28909
-1.28699
-1.28533
-1.28418
-1.28359
-1.28359
-1.28418
-1.28533
-1.28699
-1.28909
-1.29153
-1.29421
-1.29701
-1.29984
-1.30257
-1.30511
-1.30736
-1.30926
-1.31074
-1.31174
-1.31224
-1.36719
-1.36659
-1.36539
-1.36362
-1.36133
-1.35861
-1.35554
-1.35223
-1.34881
-1.34539
-1.34212
-1.33914
-1.33657
-1.33453
-1.33311
-1.33239
-1.33239
-1.33311
-1.33453
-1.33657
-1.33914
-1.34212
-1.34539
-1.3488
-1.35223
-1.35554
-1.35861
-1.36133
-1.36361
-1.36539
-1.36659
-1.36719
-1.42278
-1.42206
-1.42062
-1.41849
-1.41575
-1.41248
-1.40877
-1.40477
-1.40061
-1.39645
-1.39246
-1.3888
-1.38565
-1.38314
-1.38139
-1.3805
-1.3805
-1.38139
-1.38313
-1.38565
-1.3888
-1.39245
-1.39645
-1.40061
-1.40477
-1.40877
-1.41247
-1.41575
-1.41849
-1.42062
-1.42205
-1.42278
-1.47913
-1.47827
-1.47655
-1.47401
-1.47073
-1.46679
-1.46233
-1.45749
-1.45244
-1.44737
-1.44249
-1.43801
-1.43413
-1.43103
-1.42887
-1.42777
-1.42777
-1.42887
-1.43103
-1.43413
-1.43801
-1.44249
-1.44737
-1.45244
-1.45749
-1.46233
-1.46679
-1.47073
-1.47401
-1.47655
-1.47827
-1.47913
-1.53641
-1.53538
-1.53334
-1.53031
-1.52639
-1.52167
-1.51631
-1.51046
-1.50434
-1.49816
-1.49219
-1.48668
-1.48189
-1.47806
-1.47538
-1.47401
-1.47401
-1.47538
-1.47806
-1.48189
-1.48668
-1.49219
-1.49816
-1.50433
-1.51046
-1.5163
-1.52167
-1.52639
-1.53031
-1.53333
-1.53538
-1.5364
-1.59479
-1.59357
-1.59115
-1.58756
-1.58289
-1.57726
-1.57082
-1.56377
-1.55635
-1.54883
-1.54151
-1.53472
-1.5288
-1.52404
-1.52071
-1.519
-1.519
-1.52071
-1.52404
-1.5288
-1.53472
-1.54151
-1.54882
-1.55635
-1.56377
-1.57082
-1.57726
-1.58289
-1.58756
-1.59115
-1.59357
-1.59478
-1.65449
-1.65306
-1.65021
-1.64597
-1.64044
-1.63373
-1.62603
-1.61755
-1.60856
-1.59939
-1.59042
-1.58204
-1.57469
-1.56876
-1.56459
-1.56244
-1.56244
-1.56459
-1.56876
-1.57469
-1.58204
-1.59042
-1.59939
-1.60856
-1.61755
-1.62603
-1.63373
-1.64044
-1.64597
-1.65021
-1.65306
-1.65449
-1.71578
-1.71411
-1.71077
-1.7058
-1.69927
-1.69133
-1.68215
-1.67197
-1.6611
-1.64993
-1.6389
-1.62854
-1.61938
-1.61194
-1.6067
-1.60399
-1.60399
-1.6067
-1.61194
-1.61938
-1.62854
-1.6389
-1.64993
-1.6611
-1.67197
-1.68215
-1.69133
-1.69927
-1.70579
-1.71077
-1.71411
-1.71578
-1.77894
-1.77701
-1.77314
-1.76734
-1.7597
-1.75034
-1.73945
-1.72728
-1.71417
-1.70056
-1.68699
-1.67413
-1.66266
-1.6533
-1.64666
-1.64322
-1.64322
-1.64666
-1.6533
-1.66266
-1.67413
-1.68699
-1.70056
-1.71417
-1.72728
-1.73945
-1.75034
-1.7597
-1.76734
-1.77314
-1.77701
-1.77894
-1.84434
-1.84212
-1.83766
-1.83097
-1.8221
-1.81116
-1.79832
-1.78383
-1.76805
-1.75148
-1.73479
-1.71877
-1.70434
-1.69247
-1.684
-1.6796
-1.6796
-1.684
-1.69247
-1.70434
-1.71877
-1.73479
-1.75148
-1.76805
-1.78383
-1.79832
-1.81116
-1.8221
-1.83097
-1.83766
-1.84212
-1.84434
-1.91235
-1.90983
-1.90477
-1.89712
-1.88694
-1.87427
-1.85925
-1.84211
-1.8232
-1.80307
-1.78249
-1.76248
-1.74423
-1.72906
-1.71818
-1.7125
-1.7125
-1.71818
-1.72907
-1.74424
-1.76248
-1.78249
-1.80307
-1.8232
-1.84211
-1.85925
-1.87427
-1.88694
-1.89712
-1.90477
-1.90983
-1.91235
-1.98341
-1.98061
-1.97494
-1.96633
-1.95478
-1.94029
-1.9229
-1.90279
-1.88027
-1.8559
-1.83053
-1.80544
-1.78223
-1.76269
-1.74857
-1.74117
-1.74117
-1.74857
-1.76269
-1.78223
-1.80544
-1.83053
-1.8559
-1.88027
-1.90279
-1.9229
-1.94029
-1.95478
-1.96633
-1.97494
-1.98061
-1.98341
-2.058
-2.05493
-2.0487
-2.03919
-2.02631
-2.00998
-1.99014
-1.96682
-1.94023
-1.91089
-1.87966
-1.84811
-1.81838
-1.793
-1.7745
-1.76478
-1.76478
-1.7745
-1.793
-1.81838
-1.84812
-1.87966
-1.91089
-1.94023
-1.96682
-1.99014
-2.00999
-2.02631
-2.03919
-2.0487
-2.05493
-2.058
-2.13661
-2.13334
-2.12665
-2.11638
-2.10234
-2.08432
-2.06209
-2.03548
-2.00451
-1.96954
-1.93119
-1.89147
-1.85314
-1.81985
-1.79538
-1.78251
-1.78251
-1.79538
-1.81985
-1.85314
-1.89147
-1.93119
-1.96955
-2.00451
-2.03548
-2.06209
-2.08432
-2.10234
-2.11638
-2.12665
-2.13334
-2.13661
-2.21973
-2.21634
-2.20939
-2.19863
-2.18378
-2.16444
-2.14016
-2.11049
-2.07512
-2.0343
-1.98737
-1.93739
-1.8877
-1.84356
-1.8109
-1.79379
-1.79379
-1.81091
-1.84356
-1.8877
-1.9374
-1.98737
-2.0343
-2.07512
-2.11049
-2.14016
-2.16444
-2.18378
-2.19863
-2.20939
-2.21635
-2.21973
-2.3078
-2.30445
-2.29751
-2.2867
-2.27161
-2.25166
-2.22611
-2.19409
-2.15466
-2.1068
-2.05169
-1.98942
-1.92448
-1.86501
-1.8213
-1.79863
-1.79863
-1.8213
-1.86502
-1.92448
-1.98942
-2.05169
-2.1068
-2.15466
-2.1941
-2.22611
-2.25166
-2.27161
-2.2867
-2.29752
-2.30445
-2.30781
-2.40116
-2.39803
-2.39152
-2.38128
-2.36682
-2.34738
-2.32197
-2.28929
-2.24774
-2.19548
-2.13121
-2.05436
-1.96874
-1.88741
-1.82844
-1.79783
-1.79783
-1.82844
-1.88742
-1.96874
-2.05436
-2.13121
-2.19548
-2.24774
-2.2893
-2.32197
-2.34739
-2.36682
-2.38128
-2.39152
-2.39803
-2.40116
-2.49994
-2.49728
-2.4917
-2.48286
-2.47021
-2.45294
-2.42986
-2.39935
-2.35919
-2.30631
-2.23671
-2.14603
-2.03588
-1.92267
-1.8416
-1.80028
-1.80028
-1.8416
-1.92268
-2.03589
-2.14603
-2.23671
-2.30631
-2.35919
-2.39935
-2.42987
-2.45295
-2.47022
-2.48286
-2.4917
-2.49728
-2.49995
-2.60404
-2.60212
-2.59806
-2.59157
-2.58222
-2.56925
-2.55155
-2.52751
-2.49494
-2.45031
-2.38493
-2.28257
-2.14929
-2.01578
-1.90508
-1.84638
-1.84638
-1.90509
-2.01579
-2.1493
-2.28258
-2.38494
-2.45031
-2.49494
-2.52751
-2.55155
-2.56925
-2.58222
-2.59157
-2.59806
-2.60212
-2.60404
-2.71298
-2.71207
-2.71012
-2.70701
-2.70254
-2.69633
-2.68774
-2.67588
-2.6602
-2.63742
-2.58513
-2.47053
-2.32668
-2.17989
-2.07414
-2.02122
-2.02122
-2.07415
-2.17989
-2.32669
-2.47054
-2.58513
-2.63743
-2.6602
-2.67588
-2.68774
-2.69633
-2.70254
-2.70701
-2.71012
-2.71208
-2.71298
-2.82587
-2.82621
-2.82686
-2.82801
-2.82986
-2.83271
-2.83694
-2.84376
-2.85696
-2.86934
-2.83025
-2.7394
-2.59084
-2.43645
-2.33673
-2.29125
-2.29125
-2.33673
-2.43646
-2.59086
-2.73941
-2.83026
-2.86935
-2.85696
-2.84376
-2.83694
-2.83271
-2.82986
-2.82801
-2.82686
-2.8262
-2.82587
-2.9414
-2.94308
-2.9466
-2.95246
-2.96143
-2.9747
-2.99419
-3.02495
-3.07589
-3.13274
-3.13295
-3.13295
-2.98482
-2.79225
-2.68386
-2.62871
-2.62871
-2.68386
-2.79226
-2.98484
-3.13296
-3.13296
-3.13274
-3.07589
-3.02495
-2.99419
-2.9747
-2.96143
-2.95246
-2.9466
-2.94308
-2.9414
-3.058
-3.06097
-3.06724
-3.07761
-3.09338
-3.11658
-3.15097
-3.20517
-3.28693
-3.38518
-3.48677
-3.51083
-3.36311
-3.13469
-3.0116
-2.94787
-2.94787
-3.01161
-3.1347
-3.36312
-3.51083
-3.48676
-3.38517
-3.28692
-3.20517
-3.15097
-3.11658
-3.09338
-3.0776
-3.06724
-3.06097
-3.058
-3.17405
-3.17808
-3.18658
-3.20053
-3.22149
-3.25201
-3.2971
-3.36482
-3.45811
-3.57247
-3.72092
-3.76919
-3.63651
-3.41329
-3.28691
-3.22181
-3.22182
-3.28691
-3.4133
-3.63653
-3.76918
-3.7209
-3.57246
-3.4581
-3.36481
-3.29709
-3.25201
-3.22149
-3.20053
-3.18658
-3.17807
-3.17404
-3.28804
-3.29277
-3.30269
-3.31876
-3.34248
-3.37622
-3.42438
-3.49162
-3.57798
-3.67831
-3.79613
-3.87102
-3.79496
-3.6113
-3.49593
-3.43171
-3.43171
-3.49593
-3.6113
-3.79497
-3.87101
-3.79612
-3.6783
-3.57797
-3.49162
-3.42437
-3.37621
-3.34247
-3.31875
-3.30268
-3.29276
-3.28804
-3.39884
-3.40386
-3.41429
-3.4309
-3.45481
-3.48767
-3.53182
-3.58854
-3.65675
-3.72982
-3.80587
-3.87175
-3.87685
-3.73572
-3.63549
-3.57722
-3.57722
-3.63549
-3.73572
-3.87686
-3.87172
-3.80585
-3.72981
-3.65674
-3.58853
-3.53181
-3.48767
-3.45481
-3.4309
-3.41429
-3.40386
-3.39884
-3.5058
-3.51076
-3.52095
-3.53683
-3.55901
-3.5882
-3.62452
-3.66757
-3.71512
-3.76151
-3.8108
-3.83445
-3.92599
-3.80204
-3.72262
-3.68211
-3.68211
-3.72262
-3.80204
-3.92598
-3.83444
-3.81079
-3.7615
-3.71511
-3.66757
-3.62451
-3.5882
-3.559
-3.53683
-3.52095
-3.51075
-3.50579
-3.60871
-3.61339
-3.62288
-3.63733
-3.65687
-3.68133
-3.70946
-3.73996
-3.77075
-3.79999
-3.82773
-3.83347
-3.92168
-3.8364
-3.78095
-3.75727
-3.75727
-3.78095
-3.8364
-3.92168
-3.83345
-3.82772
-3.79998
-3.77074
-3.73995
-3.70946
-3.68133
-3.65686
-3.63733
-3.62288
-3.61339
-3.60871
-3.70769
-3.71202
-3.72069
-3.7336
-3.75048
-3.77049
-3.79183
-3.8123
-3.83017
-3.84508
-3.85519
-3.85606
-3.90651
-3.86086
-3.82579
-3.81061
-3.81061
-3.82579
-3.86086
-3.90651
-3.85605
-3.85518
-3.84507
-3.83016
-3.81229
-3.79182
-3.77049
-3.75047
-3.73359
-3.72069
-3.71202
-3.70769
-3.803
-3.80703
-3.81501
-3.82673
-3.84162
-3.85837
-3.87499
-3.88866
-3.89763
-3.9009
-3.87967
-3.89959
-3.91232
-3.89382
-3.87006
-3.85835
-3.85835
-3.87006
-3.89382
-3.91232
-3.89958
-3.87966
-3.9009
-3.89762
-3.88865
-3.87498
-3.85837
-3.84161
-3.82672
-3.815
-3.80702
-3.803
-3.89485
-3.89871
-3.90632
-3.91744
-3.93136
-3.94662
-3.96126
-3.97269
-3.97961
-3.98158
-3.92202
-3.99753
-3.96444
-3.94037
-3.91918
-3.90847
-3.90847
-3.91918
-3.94037
-3.96443
-3.99752
-3.92202
-3.98157
-3.97961
-3.97268
-3.96125
-3.94662
-3.93135
-3.91743
-3.90631
-3.8987
-3.89485
-3.98336
-3.9872
-3.99482
-4.006
-4.0201
-4.03585
-4.05153
-4.06511
-4.0756
-4.08258
-4.02652
-4.06093
-4.02672
-3.99458
-3.97262
-3.96176
-3.96176
-3.97262
-3.99457
-4.02672
-4.06092
-4.02652
-4.08258
-4.07559
-4.06511
-4.05153
-4.03584
-4.0201
-4.006
-3.99482
-3.9872
-3.98336
-4.06845
-4.07244
-4.08041
-4.09228
-4.10756
-4.12525
-4.14382
-4.1613
-4.17474
-4.17021
-4.15444
-4.119
-4.09143
-4.05487
-4.02889
-4.0164
-4.0164
-4.02889
-4.05487
-4.09142
-4.119
-4.15444
-4.1702
-4.17473
-4.1613
-4.14382
-4.12525
-4.10756
-4.09227
-4.08041
-4.07244
-4.06845
-4.14988
-4.15411
-4.16268
-4.17567
-4.1928
-4.21338
-4.23599
-4.25867
-4.27978
-4.2504
-4.30851
-4.2105
-4.15984
-4.11526
-4.08426
-4.06932
-4.06931
-4.08425
-4.11525
-4.15984
-4.2105
-4.3085
-4.2504
-4.27978
-4.25866
-4.23598
-4.21338
-4.1928
-4.17566
-4.16268
-4.15411
-4.14988
-4.22725
-4.23177
-4.24104
-4.2553
-4.27451
-4.29849
-4.32622
-4.35528
-4.3858
-4.35009
-4.3904
-4.29361
-4.22331
-4.1706
-4.13576
-4.11878
-4.11878
-4.13576
-4.1706
-4.22331
-4.29361
-4.39039
-4.35008
-4.3858
-4.35527
-4.32622
-4.29849
-4.27451
-4.25529
-4.24104
-4.23177
-4.22725
-4.30014
-4.3049
-4.3148
-4.33008
-4.35094
-4.37768
-4.40997
-4.44537
-4.47958
-4.46984
-4.44546
-4.35772
-4.27958
-4.22033
-4.18245
-4.16373
-4.16373
-4.18245
-4.22033
-4.27957
-4.35771
-4.44546
-4.46984
-4.47958
-4.44537
-4.40997
-4.37768
-4.35094
-4.33008
-4.3148
-4.3049
-4.30014
-4.36815
-4.37312
-4.38332
-4.39897
-4.42042
-4.44807
-4.48161
-4.5185
-4.553
-4.57071
-4.51786
-4.41816
-4.32965
-4.26391
-4.22326
-4.20322
-4.20322
-4.22326
-4.26391
-4.32965
-4.41815
-4.51785
-4.57071
-4.553
-4.51849
-4.48161
-4.44806
-4.42042
-4.39897
-4.38332
-4.37312
-4.36815
-4.43125
-4.43624
-4.4462
-4.46146
-4.48231
-4.50881
-4.5402
-4.57392
-4.60562
-4.62847
-4.57076
-4.46208
-4.3684
-4.30033
-4.25825
-4.23758
-4.23758
-4.25825
-4.30033
-4.3684
-4.46208
-4.57076
-4.62847
-4.60561
-4.57392
-4.5402
-4.5088
-4.48231
-4.46146
-4.4462
-4.43624
-4.43125
-4.48947
-4.49407
-4.50347
-4.51782
-4.53721
-4.56128
-4.58872
-4.61684
-4.64242
-4.66222
-4.60441
-4.49327
-4.39857
-4.33108
-4.28901
-4.26828
-4.26828
-4.28901
-4.33108
-4.39857
-4.49327
-4.6044
-4.66222
-4.64242
-4.61684
-4.58872
-4.56128
-4.53721
-4.51782
-4.50347
-4.49407
-4.48947
-4.54275
-4.54701
-4.55568
-4.56887
-4.58644
-4.60778
-4.63125
-4.65388
-4.67274
-4.68611
-4.63927
-4.52204
-4.42542
-4.35924
-4.31797
-4.29763
-4.29763
-4.31797
-4.35924
-4.42542
-4.52203
-4.63927
-4.68611
-4.67274
-4.65388
-4.63125
-4.60778
-4.58644
-4.56887
-4.55568
-4.54701
-4.54275
-4.59175
-4.59564
-4.60354
-4.61548
-4.63123
-4.65006
-4.67019
-4.68847
-4.70115
-4.70543
-4.67328
-4.54864
-4.45121
-4.38764
-4.34798
-4.32856
-4.32856
-4.34798
-4.38764
-4.45121
-4.54864
-4.67328
-4.70544
-4.70116
-4.68847
-4.67019
-4.65006
-4.63123
-4.61548
-4.60354
-4.59564
-4.59175
-4.6371
-4.64061
-4.64773
-4.65843
-4.67246
-4.68902
-4.70638
-4.72163
-4.73011
-4.72518
-4.7007
-4.57217
-4.47789
-4.41913
-4.38244
-4.36459
-4.36459
-4.38244
-4.41913
-4.47789
-4.57217
-4.7007
-4.72518
-4.73011
-4.72163
-4.70638
-4.68902
-4.67246
-4.65844
-4.64773
-4.64062
-4.6371
-4.67944
-4.68259
-4.68896
-4.69848
-4.71085
-4.7253
-4.74029
-4.75365
-4.76191
-4.75932
-4.71802
-4.5933
-4.50889
-4.45737
-4.42527
-4.40978
-4.40978
-4.42527
-4.45737
-4.50889
-4.5933
-4.71802
-4.75932
-4.76191
-4.75365
-4.7403
-4.7253
-4.71085
-4.69848
-4.68896
-4.68259
-4.67944
-4.71946
-4.72229
-4.72798
-4.73641
-4.74721
-4.75954
-4.77196
-4.78291
-4.79218
-4.80636
-4.73185
-4.6185
-4.54934
-4.50723
-4.48105
-4.46856
-4.46856
-4.48105
-4.50723
-4.54934
-4.6185
-4.73185
-4.80636
-4.79218
-4.78291
-4.77197
-4.75954
-4.74721
-4.73641
-4.72798
-4.7223
-4.71946
-4.7579
-4.76047
-4.7656
-4.77309
-4.78246
-4.79263
-4.80171
-4.80632
-4.8019
-4.8421
-4.75036
-4.65672
-4.60476
-4.57342
-4.55421
-4.54516
-4.54516
-4.55421
-4.57342
-4.60476
-4.65672
-4.75036
-4.8421
-4.8019
-4.80633
-4.80171
-4.79263
-4.78246
-4.77309
-4.7656
-4.76047
-4.7579
-4.79552
-4.79791
-4.80261
-4.80941
-4.8177
-4.82626
-4.8328
-4.83269
-4.8239
-4.85466
-4.77853
-4.71432
-4.68083
-4.661
-4.64927
-4.64386
-4.64386
-4.64927
-4.661
-4.68083
-4.71432
-4.77853
-4.85466
-4.82391
-4.83269
-4.8328
-4.82626
-4.8177
-4.80941
-4.80262
-4.79791
-4.79552
-4.83311
-4.83538
-4.8398
-4.84611
-4.85374
-4.86155
-4.86705
-4.86648
-4.88983
-4.88434
-4.83165
-4.79846
-4.78301
-4.77463
-4.77017
-4.76825
-4.76825
-4.77017
-4.77463
-4.78301
-4.79846
-4.83165
-4.88434
-4.88983
-4.86648
-4.86705
-4.86155
-4.85374
-4.84611
-4.83981
-4.83539
-4.83312
-4.87152
-4.87372
-4.87793
-4.88388
-4.89105
-4.89882
-4.90468
-4.91145
-4.96186
-4.94493
-4.92208
-4.91516
-4.91529
-4.91717
-4.91913
-4.92029
-4.92029
-4.91913
-4.91717
-4.91529
-4.91516
-4.92208
-4.94493
-4.96186
-4.91146
-4.90468
-4.89882
-4.89105
-4.88388
-4.87793
-4.87372
-4.87153
-4.91162
-4.91379
-4.91787
-4.9236
-4.93015
-4.93776
-4.94293
-4.99596
-5.03985
-5.04548
-5.05384
-5.06691
-5.07955
-5.08981
-5.09694
-5.10057
-5.10057
-5.09694
-5.08981
-5.07955
-5.06691
-5.05384
-5.04548
-5.03985
-4.99597
-4.94293
-4.93776
-4.93016
-4.92361
-4.91788
-4.91379
-4.91162
-4.95466
-4.95673
-4.96094
-4.96704
-4.97139
-4.98384
-5.04086
-5.11614
-5.16427
-5.19737
-5.22764
-5.25428
-5.27588
-5.29215
-5.30299
-5.3084
-5.3084
-5.30299
-5.29215
-5.27588
-5.25428
-5.22765
-5.19737
-5.16427
-5.11614
-5.04087
-4.98384
-4.9714
-4.96704
-4.96094
-4.95673
-4.95467
-5.00112
-5.00291
-5.00662
-5.0189
-5.06001
-5.12466
-5.20911
-5.28892
-5.34964
-5.39953
-5.4414
-5.47561
-5.50251
-5.5224
-5.53551
-5.54202
-5.54202
-5.53551
-5.5224
-5.50251
-5.47561
-5.4414
-5.39953
-5.34964
-5.28893
-5.20911
-5.12466
-5.06001
-5.0189
-5.00662
-5.00292
-5.00112
-5.12153
-5.1345
-5.16519
-5.20907
-5.27087
-5.35578
-5.44468
-5.52307
-5.58922
-5.64442
-5.69012
-5.72725
-5.75635
-5.77781
-5.79194
-5.79895
-5.79895
-5.79194
-5.77781
-5.75635
-5.72725
-5.69012
-5.64442
-5.58922
-5.52307
-5.44468
-5.35578
-5.27088
-5.20908
-5.16519
-5.1345
-5.12153
-5.41111
-5.42993
-5.4671
-5.51865
-5.58405
-5.65939
-5.73626
-5.80687
-5.86927
-5.92281
-5.96778
-6.00461
-6.03363
-6.05512
-6.06931
-6.07635
-6.07635
-6.06931
-6.05512
-6.03363
-6.00461
-5.96778
-5.92281
-5.86927
-5.80687
-5.73626
-5.65939
-5.58405
-5.51865
-5.4671
-5.42993
-5.41111
-5.79764
-5.81246
-5.84152
-5.88358
-5.93749
-5.99907
-6.06216
-6.12264
-6.178
-6.22677
-6.26847
-6.30304
-6.33051
-6.35098
-6.36455
-6.3713
-6.3713
-6.36455
-6.35098
-6.33051
-6.30304
-6.26848
-6.22677
-6.17801
-6.12264
-6.06216
-5.99907
-5.93749
-5.88358
-5.84152
-5.81246
-5.79764
-6.19341
-6.20551
-6.22931
-6.26386
-6.30737
-6.35667
-6.40837
-6.45924
-6.50688
-6.54975
-6.58703
-6.61831
-6.6434
-6.66222
-6.67476
-6.68101
-6.68101
-6.67476
-6.66222
-6.6434
-6.61831
-6.58703
-6.54975
-6.50688
-6.45924
-6.40837
-6.35667
-6.30737
-6.26386
-6.22931
-6.20551
-6.19341
-6.59288
-6.60274
-6.62206
-6.64998
-6.68493
-6.72482
-6.76715
-6.80945
-6.84976
-6.88666
-6.9192
-6.94682
-6.96916
-6.98604
-6.99733
-7.00298
-7.00298
-6.99733
-6.98604
-6.96917
-6.94682
-6.9192
-6.88666
-6.84976
-6.80945
-6.76715
-6.72482
-6.68493
-6.64998
-6.62206
-6.60274
-6.59288
-6.99236
-7.00034
-7.01596
-7.03849
-7.06673
-7.09908
-7.13367
-7.16866
-7.2024
-7.23372
-7.26168
-7.28564
-7.30518
-7.32003
-7.33
-7.335
-7.335
-7.33
-7.32003
-7.30518
-7.28564
-7.26168
-7.23372
-7.2024
-7.16866
-7.13367
-7.09908
-7.06673
-7.03849
-7.01596
-7.00034
-6.99237
-7.39024
-7.39669
-7.40931
-7.42752
-7.45037
-7.47663
-7.50488
-7.53372
-7.56181
-7.58816
-7.61192
-7.63244
-7.6493
-7.66218
-7.67086
-7.67523
-7.67523
-7.67086
-7.66218
-7.6493
-7.63244
-7.61192
-7.58816
-7.56181
-7.53372
-7.50488
-7.47663
-7.45038
-7.42752
-7.40931
-7.39669
-7.39024
-7.78579
-7.79102
-7.80123
-7.81597
-7.83448
-7.85582
-7.8789
-7.90263
-7.92594
-7.94797
-7.96799
-7.98542
-7.99982
-8.01086
-8.01834
-8.0221
-8.0221
-8.01834
-8.01086
-7.99982
-7.98542
-7.96799
-7.94797
-7.92594
-7.90263
-7.8789
-7.85582
-7.83449
-7.81597
-7.80123
-7.79102
-7.7858
-8.17884
-8.18307
-8.19134
-8.20329
-8.21831
-8.23568
-8.25455
-8.27405
-8.29334
-8.31169
-8.32848
-8.34317
-8.35537
-8.36477
-8.37115
-8.37437
-8.37437
-8.37115
-8.36477
-8.35537
-8.34317
-8.32848
-8.31169
-8.29334
-8.27405
-8.25455
-8.23568
-8.21832
-8.20329
-8.19135
-8.18307
-8.17884
-8.56943
-8.57287
-8.57958
-8.58928
-8.60149
-8.61564
-8.63108
-8.6471
-8.66304
-8.67828
-8.6923
-8.70463
-8.7149
-8.72285
-8.72825
-8.73098
-8.73098
-8.72825
-8.72285
-8.7149
-8.70463
-8.6923
-8.67828
-8.66304
-8.6471
-8.63108
-8.61565
-8.60149
-8.58928
-8.57958
-8.57287
-8.56944
-8.95778
-8.96057
-8.96603
-8.97391
-8.98386
-8.99541
-9.00804
-9.02121
-9.03436
-9.04699
-9.05866
-9.06896
-9.07758
-9.08426
-9.08882
-9.09112
-9.09112
-9.08882
-9.08426
-9.07758
-9.06896
-9.05866
-9.04699
-9.03436
-9.02121
-9.00804
-8.99541
-8.98386
-8.97391
-8.96603
-8.96057
-8.95778
-9.34413
-9.3464
-9.35084
-9.35726
-9.36537
-9.37481
-9.38516
-9.39598
-9.40682
-9.41728
-9.42697
-9.43555
-9.44276
-9.44835
-9.45217
-9.45411
-9.45411
-9.45217
-9.44835
-9.44276
-9.43555
-9.42697
-9.41728
-9.40682
-9.39598
-9.38516
-9.37481
-9.36537
-9.35726
-9.35084
-9.3464
-9.34413
-9.72874
-9.73059
-9.73421
-9.73945
-9.74607
-9.75379
-9.76227
-9.77116
-9.7801
-9.78875
-9.79678
-9.80392
-9.80992
-9.81459
-9.81779
-9.81941
-9.81941
-9.81779
-9.81459
-9.80992
-9.80392
-9.79678
-9.78875
-9.7801
-9.77116
-9.76227
-9.75379
-9.74607
-9.73945
-9.73421
-9.73059
-9.72874
-10.1119
-10.1134
-10.1163
-10.1206
-10.126
-10.1323
-10.1393
-10.1466
-10.154
-10.1611
-10.1678
-10.1737
-10.1787
-10.1826
-10.1852
-10.1866
-10.1866
-10.1852
-10.1826
-10.1787
-10.1737
-10.1678
-10.1611
-10.154
-10.1466
-10.1393
-10.1323
-10.126
-10.1206
-10.1163
-10.1134
-10.1119
-10.4937
-10.4949
-10.4974
-10.5009
-10.5053
-10.5105
-10.5162
-10.5222
-10.5283
-10.5341
-10.5396
-10.5446
-10.5487
-10.5519
-10.5541
-10.5553
-10.5553
-10.5541
-10.5519
-10.5487
-10.5446
-10.5396
-10.5341
-10.5283
-10.5222
-10.5162
-10.5105
-10.5053
-10.5009
-10.4974
-10.4949
-10.4937
-10.8745
-10.8755
-10.8775
-10.8803
-10.884
-10.8882
-10.8929
-10.8978
-10.9028
-10.9077
-10.9123
-10.9163
-10.9197
-10.9224
-10.9243
-10.9252
-10.9252
-10.9243
-10.9224
-10.9197
-10.9163
-10.9123
-10.9077
-10.9028
-10.8978
-10.8929
-10.8882
-10.884
-10.8803
-10.8775
-10.8755
-10.8745
-11.2544
-11.2552
-11.2568
-11.2592
-11.2621
-11.2656
-11.2695
-11.2735
-11.2777
-11.2817
-11.2854
-11.2888
-11.2916
-11.2939
-11.2954
-11.2962
-11.2962
-11.2954
-11.2939
-11.2916
-11.2888
-11.2854
-11.2817
-11.2777
-11.2735
-11.2695
-11.2656
-11.2621
-11.2592
-11.2568
-11.2552
-11.2544
-11.6335
-11.6342
-11.6355
-11.6374
-11.6399
-11.6427
-11.6459
-11.6493
-11.6526
-11.656
-11.6591
-11.6618
-11.6642
-11.666
-11.6673
-11.6679
-11.6679
-11.6673
-11.666
-11.6642
-11.6618
-11.6591
-11.656
-11.6526
-11.6493
-11.6459
-11.6427
-11.6399
-11.6374
-11.6355
-11.6342
-11.6335
-12.012
-12.0126
-12.0137
-12.0153
-12.0173
-12.0196
-12.0222
-12.025
-12.0278
-12.0305
-12.033
-12.0353
-12.0373
-12.0388
-12.0398
-12.0404
-12.0404
-12.0398
-12.0388
-12.0373
-12.0353
-12.033
-12.0305
-12.0278
-12.025
-12.0222
-12.0196
-12.0173
-12.0153
-12.0137
-12.0126
-12.012
-12.39
-12.3905
-12.3914
-12.3927
-12.3943
-12.3963
-12.3984
-12.4007
-12.403
-12.4052
-12.4073
-12.4092
-12.4108
-12.4121
-12.4129
-12.4134
-12.4134
-12.4129
-12.4121
-12.4108
-12.4092
-12.4073
-12.4052
-12.403
-12.4007
-12.3984
-12.3963
-12.3943
-12.3927
-12.3914
-12.3905
-12.39
-12.7676
-12.768
-12.7687
-12.7698
-12.7711
-12.7727
-12.7745
-12.7763
-12.7782
-12.7801
-12.7818
-12.7834
-12.7847
-12.7857
-12.7865
-12.7868
-12.7868
-12.7865
-12.7857
-12.7847
-12.7834
-12.7818
-12.7801
-12.7782
-12.7763
-12.7745
-12.7727
-12.7711
-12.7698
-12.7687
-12.768
-12.7676
-13.1448
-13.1451
-13.1457
-13.1466
-13.1477
-13.149
-13.1505
-13.152
-13.1536
-13.1551
-13.1565
-13.1578
-13.1589
-13.1598
-13.1603
-13.1606
-13.1606
-13.1603
-13.1598
-13.1589
-13.1578
-13.1565
-13.1551
-13.1536
-13.152
-13.1505
-13.149
-13.1477
-13.1466
-13.1457
-13.1451
-13.1448
-13.5217
-13.522
-13.5225
-13.5232
-13.5241
-13.5252
-13.5264
-13.5276
-13.5289
-13.5302
-13.5314
-13.5324
-13.5333
-13.534
-13.5345
-13.5348
-13.5348
-13.5345
-13.534
-13.5333
-13.5324
-13.5314
-13.5302
-13.5289
-13.5277
-13.5264
-13.5252
-13.5241
-13.5232
-13.5225
-13.522
-13.5217
-13.8984
-13.8986
-13.899
-13.8996
-13.9004
-13.9013
-13.9022
-13.9033
-13.9043
-13.9054
-13.9063
-13.9072
-13.908
-13.9085
-13.9089
-13.9092
-13.9092
-13.909
-13.9085
-13.908
-13.9072
-13.9063
-13.9054
-13.9043
-13.9033
-13.9022
-13.9013
-13.9004
-13.8996
-13.899
-13.8986
-13.8984
-14.2749
-14.2751
-14.2754
-14.2759
-14.2765
-14.2772
-14.278
-14.2789
-14.2798
-14.2806
-14.2814
-14.2821
-14.2828
-14.2832
-14.2836
-14.2837
-14.2837
-14.2836
-14.2832