/*--------------------------------*- C++ -*----------------------------------*\
  =========                 |
  \\      /  F ield         | OpenFOAM: The Open Source CFD Toolbox
   \\    /   O peration     | Website:  https://openfoam.org
    \\  /    A nd           | Version:  9
     \\/     M anipulation  |
\*---------------------------------------------------------------------------*/
FoamFile
{
    format      ascii;
    class       surfaceScalarField;
    location    "0.6";
    object      phi;
}
// * * * * * * * * * * * * * * * * * * * * * * * * * * * * * * * * * * * * * //

dimensions      [0 3 -1 0 0 0 0];

internalField   nonuniform List<scalar> 
8032
(
-2.85557e-07
2.85873e-07
-5.66592e-07
2.78172e-07
-8.25431e-07
2.59027e-07
-1.05357e-06
2.2838e-07
-1.24162e-06
1.88259e-07
-1.38201e-06
1.40539e-07
-1.46918e-06
8.72574e-08
-1.49964e-06
3.05253e-08
-1.47217e-06
-2.74338e-08
-1.38777e-06
-8.43644e-08
-1.2497e-06
-1.38055e-07
-1.06326e-06
-1.8642e-07
-8.3566e-07
-2.27581e-07
-5.75708e-07
-2.59938e-07
-2.93459e-07
-2.82236e-07
1.57943e-10
-2.93607e-07
2.93776e-07
-2.93608e-07
5.76026e-07
-2.82241e-07
8.3598e-07
-2.59946e-07
1.06358e-06
-2.2759e-07
1.25001e-06
-1.86429e-07
1.38808e-06
-1.38063e-07
1.47246e-06
-8.43682e-08
1.49989e-06
-2.74305e-08
1.46936e-06
3.05381e-08
1.38208e-06
8.72827e-08
1.24151e-06
1.40581e-07
1.05319e-06
1.8832e-07
8.24663e-07
2.28532e-07
5.65271e-07
2.59397e-07
2.86092e-07
2.79184e-07
2.86095e-07
-3.0134e-07
5.87061e-07
-5.95965e-07
5.72791e-07
-8.69098e-07
5.32293e-07
-1.10959e-06
4.69048e-07
-1.30771e-06
3.8655e-07
-1.45562e-06
2.8857e-07
-1.54745e-06
1.79167e-07
-1.57954e-06
6.26819e-08
-1.55061e-06
-5.6323e-08
-1.46173e-06
-1.73216e-07
-1.31631e-06
-2.83456e-07
-1.11995e-06
-3.82762e-07
-8.80233e-07
-4.67277e-07
-6.06439e-07
-5.33717e-07
-3.09161e-07
-5.79501e-07
9.1265e-11
-6.02848e-07
3.09344e-07
-6.02851e-07
6.06622e-07
-5.7951e-07
8.80415e-07
-5.33731e-07
1.12013e-06
-4.67294e-07
1.31648e-06
-3.82779e-07
1.4619e-06
-2.8347e-07
1.55076e-06
-1.73222e-07
1.57965e-06
-5.63171e-08
1.54749e-06
6.27041e-08
1.45557e-06
1.79209e-07
1.30752e-06
2.88639e-07
1.10919e-06
3.86652e-07
8.68505e-07
4.69223e-07
5.95274e-07
5.32632e-07
3.01188e-07
5.73275e-07
5.87286e-07
-3.25606e-07
9.12529e-07
-6.43542e-07
8.9066e-07
-9.38721e-07
8.27511e-07
-1.19863e-06
7.29061e-07
-1.41277e-06
6.00794e-07
-1.57262e-06
4.48511e-07
-1.67186e-06
2.78478e-07
-1.70657e-06
9.74396e-08
-1.67534e-06
-8.75181e-08
-1.57933e-06
-2.69196e-07
-1.42223e-06
-4.40537e-07
-1.21009e-06
-5.94885e-07
-9.51103e-07
-7.26246e-07
-6.55292e-07
-8.29514e-07
-3.34104e-07
-9.00676e-07
2.41911e-11
-9.36965e-07
3.34152e-07
-9.36969e-07
6.55338e-07
-9.00687e-07
9.51146e-07
-8.29531e-07
1.21013e-06
-7.26266e-07
1.42226e-06
-5.94905e-07
1.57935e-06
-4.40551e-07
1.67533e-06
-2.69201e-07
1.70653e-06
-8.75071e-08
1.67177e-06
9.74714e-08
1.57245e-06
2.78535e-07
1.41249e-06
4.48597e-07
1.19823e-06
6.00917e-07
9.3822e-07
7.29239e-07
6.43067e-07
8.27789e-07
3.2539e-07
8.90959e-07
9.12677e-07
-3.61133e-07
1.27356e-06
-7.13665e-07
1.24312e-06
-1.04112e-06
1.15497e-06
-1.3295e-06
1.0175e-06
-1.56711e-06
8.38476e-07
-1.7445e-06
6.2596e-07
-1.85464e-06
3.88676e-07
-1.89319e-06
1.36032e-07
-1.85859e-06
-1.2209e-07
-1.75212e-06
-3.75642e-07
-1.57786e-06
-6.14773e-07
-1.34253e-06
-8.30195e-07
-1.05523e-06
-1.01354e-06
-7.27054e-07
-1.15767e-06
-3.7072e-07
-1.257e-06
-2.62333e-11
-1.30765e-06
3.70667e-07
-1.30765e-06
7.26998e-07
-1.25701e-06
1.05516e-06
-1.15769e-06
1.34246e-06
-1.01356e-06
1.57778e-06
-8.30213e-07
1.75202e-06
-6.14785e-07
1.85847e-06
-3.75642e-07
1.89304e-06
-1.22072e-07
1.85444e-06
1.36073e-07
1.74424e-06
3.88744e-07
1.56678e-06
6.26057e-07
1.3291e-06
8.38604e-07
1.04068e-06
1.01766e-06
7.13296e-07
1.15518e-06
3.60939e-07
1.24332e-06
1.27362e-06
-4.0991e-07
1.68336e-06
-8.10061e-07
1.64321e-06
-1.1818e-06
1.52669e-06
-1.50925e-06
1.34497e-06
-1.77908e-06
1.10835e-06
-1.98055e-06
8.27467e-07
-2.10567e-06
5.13842e-07
-2.14951e-06
1.79904e-07
-2.11029e-06
-1.61288e-07
-1.98946e-06
-4.96453e-07
-1.79164e-06
-8.12569e-07
-1.52447e-06
-1.09735e-06
-1.19826e-06
-1.33974e-06
-8.25623e-07
-1.53029e-06
-4.21002e-07
-1.66161e-06
-6.78755e-11
-1.72857e-06
4.20865e-07
-1.72858e-06
8.25482e-07
-1.66162e-06
1.19811e-06
-1.53031e-06
1.52431e-06
-1.33975e-06
1.79147e-06
-1.09737e-06
1.98926e-06
-8.12575e-07
2.11007e-06
-4.96446e-07
2.14927e-06
-1.61261e-07
2.10539e-06
1.79953e-07
1.98023e-06
5.13917e-07
1.77872e-06
8.27567e-07
1.50886e-06
1.10847e-06
1.18141e-06
1.34511e-06
8.09746e-07
1.52685e-06
4.09746e-07
1.64333e-06
1.68337e-06
-4.74043e-07
2.15737e-06
-9.36826e-07
2.10596e-06
-1.3668e-06
1.95665e-06
-1.7456e-06
1.72379e-06
-2.05779e-06
1.42057e-06
-2.29092e-06
1.06062e-06
-2.43576e-06
6.58708e-07
-2.48657e-06
2.30739e-07
-2.44128e-06
-2.06549e-07
-2.30158e-06
-6.36139e-07
-2.0728e-06
-1.04133e-06
-1.76375e-06
-1.40639e-06
-1.38637e-06
-1.7171e-06
-9.5526e-07
-1.96139e-06
-4.87123e-07
-2.12974e-06
-1.01864e-10
-2.21558e-06
4.86917e-07
-2.21559e-06
9.5505e-07
-2.12974e-06
1.38615e-06
-1.9614e-06
1.76352e-06
-1.71711e-06
2.07255e-06
-1.40639e-06
2.30132e-06
-1.04133e-06
2.441e-06
-6.36123e-07
2.48626e-06
-2.06516e-07
2.43542e-06
2.30794e-07
2.29056e-06
6.58784e-07
2.05742e-06
1.06072e-06
1.74522e-06
1.42067e-06
1.36645e-06
1.72389e-06
9.36561e-07
1.95674e-06
4.7391e-07
2.10598e-06
2.15728e-06
-5.56095e-07
2.7134e-06
-1.09899e-06
2.64881e-06
-1.60344e-06
2.46109e-06
-2.04791e-06
2.16826e-06
-2.41428e-06
1.78695e-06
-2.68792e-06
1.33428e-06
-2.85799e-06
8.28799e-07
-2.91774e-06
2.90511e-07
-2.86473e-06
-2.5954e-07
-2.70091e-06
-7.99946e-07
-2.43253e-06
-1.3097e-06
-2.06991e-06
-1.76899e-06
-1.62707e-06
-2.15993e-06
-1.12114e-06
-2.46731e-06
-5.71721e-07
-2.67914e-06
-1.28262e-10
-2.78717e-06
5.71463e-07
-2.78717e-06
1.12087e-06
-2.67915e-06
1.6268e-06
-2.46732e-06
2.06963e-06
-2.15994e-06
2.43223e-06
-1.76899e-06
2.7006e-06
-1.30969e-06
2.8644e-06
-7.99925e-07
2.91739e-06
-2.59502e-07
2.85763e-06
2.90565e-07
2.68755e-06
8.28868e-07
2.41391e-06
1.33436e-06
2.04756e-06
1.78703e-06
1.60313e-06
2.16832e-06
1.09876e-06
2.46112e-06
5.55977e-07
2.64877e-06
2.71326e-06
-6.59189e-07
3.37258e-06
-1.30276e-06
3.29236e-06
-1.90081e-06
3.05913e-06
-2.42781e-06
2.69527e-06
-2.86228e-06
2.22143e-06
-3.18686e-06
1.65887e-06
-3.38867e-06
1.03063e-06
-3.4597e-06
3.61555e-07
-3.39702e-06
-3.22204e-07
-3.20292e-06
-9.94038e-07
-2.88478e-06
-1.62783e-06
-2.45484e-06
-2.19891e-06
-1.92971e-06
-2.68506e-06
-1.3297e-06
-3.06731e-06
-6.78087e-07
-3.33075e-06
-1.4781e-10
-3.4651e-06
6.7779e-07
-3.4651e-06
1.3294e-06
-3.33076e-06
1.9294e-06
-3.06731e-06
2.45453e-06
-2.68506e-06
2.88445e-06
-2.19891e-06
3.20258e-06
-1.62781e-06
3.39667e-06
-9.94014e-07
3.45934e-06
-3.22166e-07
3.3883e-06
3.61604e-07
3.18649e-06
1.03068e-06
2.86193e-06
1.65893e-06
2.42749e-06
2.22147e-06
1.90054e-06
2.69528e-06
1.30257e-06
3.0591e-06
6.59095e-07
3.29224e-06
3.37236e-06
-7.87269e-07
4.15981e-06
-1.5559e-06
4.06097e-06
-2.27023e-06
3.77345e-06
-2.89978e-06
3.32481e-06
-3.41887e-06
2.74053e-06
-3.80678e-06
2.04678e-06
-4.04809e-06
1.27195e-06
-4.13319e-06
4.46669e-07
-4.05856e-06
-3.96827e-07
-3.82687e-06
-1.22571e-06
-3.44694e-06
-2.00774e-06
-2.93336e-06
-2.71248e-06
-2.30595e-06
-3.31246e-06
-1.589e-06
-3.78425e-06
-8.10322e-07
-4.10942e-06
-1.61658e-10
-4.27525e-06
8.09998e-07
-4.27525e-06
1.58867e-06
-4.10942e-06
2.30562e-06
-3.78425e-06
2.93302e-06
-3.31246e-06
3.4466e-06
-2.71248e-06
3.82652e-06
-2.00773e-06
4.0582e-06
-1.22569e-06
4.13283e-06
-3.96795e-07
4.04773e-06
4.46707e-07
3.80643e-06
1.27199e-06
3.41855e-06
2.04681e-06
2.89949e-06
2.74053e-06
2.26999e-06
3.32477e-06
1.55574e-06
3.77336e-06
7.87186e-07
4.06079e-06
4.15954e-06
-9.45156e-07
5.10496e-06
-1.86798e-06
4.98379e-06
-2.72568e-06
4.63114e-06
-3.48169e-06
4.08082e-06
-4.10519e-06
3.36403e-06
-4.57125e-06
2.51285e-06
-4.86136e-06
1.56207e-06
-4.96391e-06
5.49231e-07
-4.87462e-06
-4.86108e-07
-4.59667e-06
-1.50366e-06
-4.14057e-06
-2.46383e-06
-3.52383e-06
-3.32921e-06
-2.77024e-06
-4.06604e-06
-1.909e-06
-4.64549e-06
-9.73516e-07
-5.04489e-06
-1.71101e-10
-5.24859e-06
9.73173e-07
-5.24859e-06
1.90865e-06
-5.0449e-06
2.7699e-06
-4.64549e-06
3.52348e-06
-4.06603e-06
4.14021e-06
-3.32921e-06
4.59631e-06
-2.46382e-06
4.87427e-06
-1.50364e-06
4.96356e-06
-4.86087e-07
4.86102e-06
5.49253e-07
4.57093e-06
1.56208e-06
4.1049e-06
2.51285e-06
3.48144e-06
3.36399e-06
2.72548e-06
4.08073e-06
1.86785e-06
4.631e-06
9.45091e-07
4.98355e-06
5.10464e-06
-1.13882e-06
6.24376e-06
-2.25079e-06
6.09573e-06
-3.28438e-06
5.66473e-06
-4.19557e-06
4.99201e-06
-4.94723e-06
4.11568e-06
-5.5093e-06
3.07492e-06
-5.85941e-06
1.91218e-06
-5.98351e-06
6.73344e-07
-5.87637e-06
-5.9324e-07
-5.54174e-06
-1.83829e-06
-4.99224e-06
-3.01332e-06
-4.24892e-06
-4.07253e-06
-3.34044e-06
-4.9745e-06
-2.30201e-06
-5.68392e-06
-1.17395e-06
-6.17294e-06
-1.77413e-10
-6.42236e-06
1.1736e-06
-6.42236e-06
2.30165e-06
-6.17295e-06
3.34009e-06
-5.68392e-06
4.24856e-06
-4.97451e-06
4.99188e-06
-4.07253e-06
5.54139e-06
-3.01332e-06
5.87603e-06
-1.83828e-06
5.98318e-06
-5.93234e-07
5.85909e-06
6.73346e-07
5.509e-06
1.91217e-06
4.94697e-06
3.07489e-06
4.19535e-06
4.11561e-06
3.28421e-06
4.99188e-06
2.25067e-06
5.66454e-06
1.13877e-06
6.09546e-06
6.2434e-06
-1.37554e-06
7.6193e-06
-2.71872e-06
7.4389e-06
-3.96737e-06
6.91338e-06
-5.06836e-06
6.09299e-06
-5.97683e-06
5.02416e-06
-6.65645e-06
3.75455e-06
-7.08013e-06
2.33586e-06
-7.23081e-06
8.24028e-07
-7.10205e-06
-7.22002e-07
-6.69826e-06
-2.24207e-06
-6.03461e-06
-3.67696e-06
-5.13648e-06
-4.97065e-06
-4.03849e-06
-6.07249e-06
-2.78317e-06
-6.93923e-06
-1.41936e-06
-7.53676e-06
-1.81745e-10
-7.84153e-06
1.41899e-06
-7.84153e-06
2.78281e-06
-7.53676e-06
4.03813e-06
-6.93923e-06
5.13612e-06
-6.0725e-06
6.03426e-06
-4.97066e-06
6.69791e-06
-3.67697e-06
7.10171e-06
-2.24208e-06
7.23049e-06
-7.22014e-07
7.07983e-06
8.24006e-07
6.65618e-06
2.33582e-06
5.97659e-06
3.75447e-06
5.06816e-06
5.02404e-06
3.96722e-06
6.09282e-06
2.71862e-06
6.91314e-06
1.3755e-06
7.43858e-06
7.6189e-06
-1.6642e-06
9.28349e-06
-3.28934e-06
9.06403e-06
-4.80033e-06
8.42436e-06
-6.13292e-06
7.42558e-06
-7.23286e-06
6.12409e-06
-8.05613e-06
4.57782e-06
-8.56987e-06
2.8496e-06
-8.75329e-06
1.00745e-06
-8.59843e-06
-8.76858e-07
-8.11049e-06
-2.73e-06
-7.3077e-06
-4.47975e-06
-6.22067e-06
-6.05768e-06
-4.89128e-06
-7.40188e-06
-3.37107e-06
-8.45943e-06
-1.71922e-06
-9.18861e-06
-1.85133e-10
-9.56056e-06
1.71885e-06
-9.56056e-06
3.3707e-06
-9.18861e-06
4.89092e-06
-8.45944e-06
6.22031e-06
-7.40189e-06
7.30735e-06
-6.0577e-06
8.11015e-06
-4.47977e-06
8.5981e-06
-2.73003e-06
8.75298e-06
-8.76891e-07
8.56959e-06
1.0074e-06
8.05588e-06
2.84953e-06
7.23264e-06
4.57772e-06
6.13274e-06
6.12394e-06
4.80019e-06
7.42537e-06
3.28925e-06
8.42408e-06
1.66416e-06
9.06368e-06
9.28306e-06
-2.01559e-06
1.12991e-05
-3.98402e-06
1.10325e-05
-5.81448e-06
1.02548e-05
-7.42925e-06
9.04034e-06
-8.76263e-06
7.45747e-06
-9.76124e-06
5.57643e-06
-1.03851e-05
3.47348e-06
-1.06089e-05
1.23122e-06
-1.04227e-05
-1.06306e-06
-9.83256e-06
-3.32011e-06
-8.86044e-06
-5.45187e-06
-7.54328e-06
-7.37484e-06
-5.93178e-06
-9.01337e-06
-4.08845e-06
-1.03028e-05
-2.08514e-06
-1.11919e-05
-1.88395e-10
-1.16455e-05
2.08477e-06
-1.16455e-05
4.08808e-06
-1.11919e-05
5.93141e-06
-1.03028e-05
7.54291e-06
-9.01339e-06
8.86009e-06
-7.37487e-06
9.83223e-06
-5.45191e-06
1.04224e-05
-3.32016e-06
1.06086e-05
-1.06312e-06
1.03848e-05
1.23114e-06
9.761e-06
3.47338e-06
8.76243e-06
5.57629e-06
7.42909e-06
7.45728e-06
5.81436e-06
9.0401e-06
3.98394e-06
1.02545e-05
2.01555e-06
1.10321e-05
1.12986e-05
-2.44281e-06
1.37419e-05
-4.82868e-06
1.34183e-05
-7.04775e-06
1.24739e-05
-9.00595e-06
1.09985e-05
-1.06237e-05
9.07519e-06
-1.18361e-05
6.78888e-06
-1.25947e-05
4.23201e-06
-1.28682e-05
1.50478e-06
-1.26445e-05
-1.28677e-06
-1.19306e-05
-4.03406e-06
-1.07526e-05
-6.62978e-06
-9.15541e-06
-8.97207e-06
-7.20029e-06
-1.09685e-05
-4.96316e-06
-1.25399e-05
-2.53136e-06
-1.36237e-05
-1.92136e-10
-1.41767e-05
2.53098e-06
-1.41767e-05
4.96278e-06
-1.36237e-05
7.19992e-06
-1.25399e-05
9.15504e-06
-1.09685e-05
1.07523e-05
-8.97211e-06
1.19302e-05
-6.62984e-06
1.26442e-05
-4.03412e-06
1.28679e-05
-1.28686e-06
1.25944e-05
1.50467e-06
1.18359e-05
4.23187e-06
1.06235e-05
6.78871e-06
9.00579e-06
9.07497e-06
7.04763e-06
1.09983e-05
4.8286e-06
1.24735e-05
2.44277e-06
1.34179e-05
1.37414e-05
-2.96171e-06
1.67036e-05
-5.85469e-06
1.63113e-05
-8.54605e-06
1.51652e-05
-1.09219e-05
1.33744e-05
-1.28858e-05
1.10391e-05
-1.4359e-05
8.26205e-06
-1.52821e-05
5.15518e-06
-1.56172e-05
1.83988e-06
-1.53489e-05
-1.55514e-06
-1.44851e-05
-4.89784e-06
-1.30573e-05
-8.05752e-06
-1.11196e-05
-1.09099e-05
-8.74615e-06
-1.33419e-05
-6.0293e-06
-1.52567e-05
-3.0753e-06
-1.65777e-05
-1.96794e-10
-1.72518e-05
3.0749e-06
-1.72518e-05
6.02892e-06
-1.65777e-05
8.74576e-06
-1.52568e-05
1.11192e-05
-1.33419e-05
1.3057e-05
-1.09099e-05
1.44847e-05
-8.05759e-06
1.53485e-05
-4.89792e-06
1.56169e-05
-1.55525e-06
1.52819e-05
1.83975e-06
1.43587e-05
5.15501e-06
1.28856e-05
8.26184e-06
1.09218e-05
1.10388e-05
8.54594e-06
1.33741e-05
5.85462e-06
1.51648e-05
2.96168e-06
1.63108e-05
1.67031e-05
-3.59145e-06
2.0295e-05
-7.10001e-06
1.98198e-05
-1.0365e-05
1.84302e-05
-1.32485e-05
1.62579e-05
-1.56335e-05
1.34241e-05
-1.74246e-05
1.00531e-05
-1.85491e-05
6.27976e-06
-1.89605e-05
2.25125e-06
-1.86393e-05
-1.87638e-06
-1.75945e-05
-5.94261e-06
-1.58638e-05
-9.78825e-06
-1.35121e-05
-1.32615e-05
-1.06297e-05
-1.62243e-05
-7.32863e-06
-1.85578e-05
-3.73828e-06
-2.01681e-05
-2.02629e-10
-2.09899e-05
3.73788e-06
-2.09899e-05
7.32823e-06
-2.01681e-05
1.06293e-05
-1.85578e-05
1.35117e-05
-1.62243e-05
1.58634e-05
-1.32616e-05
1.75941e-05
-9.78834e-06
1.86389e-05
-5.94272e-06
1.89602e-05
-1.87651e-06
1.85489e-05
2.25108e-06
1.74243e-05
6.27956e-06
1.56334e-05
1.00528e-05
1.32483e-05
1.34238e-05
1.03648e-05
1.62575e-05
7.09993e-06
1.84297e-05
3.59141e-06
1.98194e-05
2.02945e-05
-4.35513e-06
2.46501e-05
-8.6104e-06
2.40751e-05
-1.25715e-05
2.23913e-05
-1.60718e-05
1.97581e-05
-1.89693e-05
1.63217e-05
-2.11479e-05
1.22316e-05
-2.25191e-05
7.65094e-06
-2.30252e-05
2.7574e-06
-2.26418e-05
-2.2598e-06
-2.13788e-05
-7.20563e-06
-1.92809e-05
-1.18861e-05
-1.64265e-05
-1.61159e-05
-1.29249e-05
-1.97259e-05
-8.91231e-06
-2.25704e-05
-4.54649e-06
-2.45339e-05
-2.09794e-10
-2.55361e-05
4.54608e-06
-2.55361e-05
8.9119e-06
-2.45339e-05
1.29245e-05
-2.25704e-05
1.64261e-05
-1.9726e-05
1.92805e-05
-1.6116e-05
2.13784e-05
-1.18862e-05
2.26415e-05
-7.20576e-06
2.30249e-05
-2.25997e-06
2.25188e-05
2.7572e-06
2.11477e-05
7.6507e-06
1.89691e-05
1.22313e-05
1.60716e-05
1.63214e-05
1.25714e-05
1.97578e-05
8.61032e-06
2.23908e-05
4.35509e-06
2.40746e-05
2.46496e-05
-5.28057e-06
2.99307e-05
-1.0441e-05
2.92355e-05
-1.52467e-05
2.71969e-05
-1.94959e-05
2.40074e-05
-2.30169e-05
1.98427e-05
-2.56682e-05
1.48829e-05
-2.73416e-05
9.32437e-06
-2.7966e-05
3.38179e-06
-2.75101e-05
-2.71575e-06
-2.59844e-05
-8.73128e-06
-2.3442e-05
-1.44285e-05
-1.99772e-05
-1.95808e-05
-1.57224e-05
-2.39808e-05
-1.08431e-05
-2.74496e-05
-5.53205e-06
-2.9845e-05
-2.18304e-10
-3.1068e-05
5.53162e-06
-3.1068e-05
1.08427e-05
-2.9845e-05
1.57219e-05
-2.74497e-05
1.99768e-05
-2.39808e-05
2.34416e-05
-1.95808e-05
2.5984e-05
-1.44286e-05
2.75097e-05
-8.73144e-06
2.79657e-05
-2.71594e-06
2.73413e-05
3.38156e-06
2.56679e-05
9.32409e-06
2.30167e-05
1.48826e-05
1.94957e-05
1.98423e-05
1.52465e-05
2.4007e-05
1.04409e-05
2.71964e-05
5.28052e-06
2.9235e-05
2.99301e-05
-6.40116e-06
3.63319e-05
-1.26581e-05
3.54924e-05
-1.84876e-05
3.30265e-05
-2.36462e-05
2.9166e-05
-2.79256e-05
2.41221e-05
-3.11537e-05
1.8111e-05
-3.31981e-05
1.13688e-05
-3.39706e-05
4.15428e-06
-3.3431e-05
-3.25533e-06
-3.15901e-05
-1.05722e-05
-2.85102e-05
-1.75084e-05
-2.43045e-05
-2.37864e-05
-1.91333e-05
-2.9152e-05
-1.31983e-05
-3.33846e-05
-6.73448e-06
-3.63088e-05
-2.28098e-10
-3.78022e-05
6.73403e-06
-3.78022e-05
1.31979e-05
-3.63088e-05
1.91329e-05
-3.33847e-05
2.43041e-05
-2.9152e-05
2.85098e-05
-2.37865e-05
3.15897e-05
-1.75085e-05
3.34306e-05
-1.05724e-05
3.39703e-05
-3.25555e-06
3.31978e-05
4.15401e-06
3.11534e-05
1.13685e-05
2.79253e-05
1.81106e-05
2.3646e-05
2.41217e-05
1.84875e-05
2.91655e-05
1.2658e-05
3.30259e-05
6.40111e-06
3.54918e-05
3.63312e-05
-7.7569e-06
4.40887e-05
-1.5341e-05
4.30765e-05
-2.24111e-05
4.00966e-05
-2.86733e-05
3.54281e-05
-3.38753e-05
2.93242e-05
-3.78079e-05
2.20435e-05
-4.03084e-05
1.38693e-05
-4.12673e-05
5.11317e-06
-4.06327e-05
-3.88998e-06
-3.84143e-05
-1.27906e-05
-3.46851e-05
-2.12375e-05
-2.95806e-05
-2.88909e-05
-2.32947e-05
-3.54379e-05
-1.60729e-05
-4.06064e-05
-8.2025e-06
-4.41792e-05
-2.38976e-10
-4.60045e-05
8.20202e-06
-4.60045e-05
1.60724e-05
-4.41792e-05
2.32942e-05
-4.06065e-05
2.95802e-05
-3.5438e-05
3.46847e-05
-2.88911e-05
3.84138e-05
-2.12377e-05
4.06323e-05
-1.27908e-05
4.12669e-05
-3.89023e-06
4.03081e-05
5.11287e-06
3.78075e-05
1.3869e-05
3.38751e-05
2.20431e-05
2.8673e-05
2.93237e-05
2.24109e-05
3.54276e-05
1.53409e-05
4.0096e-05
7.75684e-06
4.30759e-05
4.4088e-05
-9.39555e-06
5.34843e-05
-1.85847e-05
5.22657e-05
-2.71569e-05
4.86688e-05
-3.47579e-05
4.30291e-05
-4.10826e-05
3.56489e-05
-4.5876e-05
2.68369e-05
-4.89385e-05
1.69319e-05
-5.01333e-05
6.30793e-06
-4.93928e-05
-4.63053e-06
-4.67241e-05
-1.54593e-05
-4.22118e-05
-2.57498e-05
-3.60174e-05
-3.50854e-05
-2.83752e-05
-4.30801e-05
-1.95843e-05
-4.93973e-05
-9.99632e-06
-5.37671e-05
-2.50636e-10
-5.60006e-05
9.99582e-06
-5.60006e-05
1.95838e-05
-5.37672e-05
2.83747e-05
-4.93974e-05
3.60169e-05
-4.30802e-05
4.22113e-05
-3.50855e-05
4.67236e-05
-2.575e-05
4.93923e-05
-1.54595e-05
5.01329e-05
-4.6308e-06
4.89381e-05
6.30761e-06
4.58756e-05
1.69315e-05
4.10823e-05
2.68364e-05
3.47577e-05
3.56483e-05
2.71567e-05
4.30285e-05
1.85846e-05
4.86682e-05
9.39548e-06
5.22649e-05
5.34835e-05
-1.13739e-05
6.48582e-05
-2.25021e-05
6.33939e-05
-3.28917e-05
5.90584e-05
-4.21163e-05
5.22537e-05
-4.98071e-05
4.33397e-05
-5.56536e-05
3.26833e-05
-5.94101e-05
2.06884e-05
-6.09051e-05
7.80296e-06
-6.005e-05
-5.48566e-06
-5.68465e-05
-1.86628e-05
-5.13912e-05
-3.12051e-05
-4.38759e-05
-4.26007e-05
-3.45833e-05
-5.23727e-05
-2.38778e-05
-6.01028e-05
-1.21906e-05
-6.54543e-05
-2.62577e-10
-6.81909e-05
1.21901e-05
-6.81909e-05
2.38773e-05
-6.54544e-05
3.45828e-05
-6.01029e-05
4.38753e-05
-5.23727e-05
5.13907e-05
-4.26008e-05
5.6846e-05
-3.12053e-05
6.00495e-05
-1.8663e-05
6.09046e-05
-5.48596e-06
5.94096e-05
7.8026e-06
5.56532e-05
2.06879e-05
4.98068e-05
3.26828e-05
4.2116e-05
4.33391e-05
3.28915e-05
5.2253e-05
2.2502e-05
5.90577e-05
1.13738e-05
6.33931e-05
6.48573e-05
-1.37592e-05
7.86174e-05
-2.72272e-05
7.68619e-05
-3.98136e-05
7.16447e-05
-5.10061e-05
6.34462e-05
-6.03596e-05
5.26931e-05
-6.74957e-05
3.98194e-05
-7.21116e-05
2.53043e-05
-7.39913e-05
9.68267e-06
-7.30176e-05
-6.45941e-06
-6.91825e-05
-2.24979e-05
-6.25942e-05
-3.77935e-05
-5.3479e-05
-5.17159e-05
-4.21776e-05
-6.3674e-05
-2.91342e-05
-7.31462e-05
-1.48783e-05
-7.97103e-05
-2.74108e-10
-8.3069e-05
1.48778e-05
-8.3069e-05
2.91337e-05
-7.97103e-05
4.21771e-05
-7.31463e-05
5.34784e-05
-6.36741e-05
6.25936e-05
-5.17161e-05
6.9182e-05
-3.77937e-05
7.3017e-05
-2.24981e-05
7.39908e-05
-6.45972e-06
7.21111e-05
9.68228e-06
6.74953e-05
2.53038e-05
6.03592e-05
3.98189e-05
5.10058e-05
5.26925e-05
3.98133e-05
6.34455e-05
2.7227e-05
7.16439e-05
1.37591e-05
7.6861e-05
7.86164e-05
-1.66306e-05
9.52479e-05
-3.29179e-05
9.31492e-05
-4.81566e-05
8.68835e-05
-6.17332e-05
7.70228e-05
-7.31107e-05
6.40706e-05
-8.18283e-05
4.8537e-05
-8.75116e-05
3.09876e-05
-8.98877e-05
1.20587e-05
-8.88e-05
-7.54708e-06
-8.42242e-05
-2.70736e-05
-7.62782e-05
-4.57396e-05
-6.52269e-05
-6.27672e-05
-5.14801e-05
-7.74209e-05
-3.55791e-05
-8.90472e-05
-1.81756e-05
-9.71138e-05
-2.84191e-10
-0.000101244
1.8175e-05
-0.000101244
3.55785e-05
-9.71138e-05
5.14795e-05
-8.90472e-05
6.52263e-05
-7.7421e-05
7.62775e-05
-6.27673e-05
8.42236e-05
-4.57397e-05
8.87994e-05
-2.70739e-05
8.98871e-05
-7.54741e-06
8.75111e-05
1.20583e-05
8.18277e-05
3.09871e-05
7.31102e-05
4.85364e-05
6.17328e-05
6.40699e-05
4.81563e-05
7.7022e-05
3.29177e-05
8.68826e-05
1.66305e-05
9.31482e-05
9.52469e-05
-2.00805e-05
0.000115328
-3.97591e-05
0.000112828
-5.81961e-05
0.00010532
-7.46587e-05
9.34854e-05
-8.85004e-05
7.79123e-05
-9.91601e-05
5.91967e-05
-0.000106174
3.80017e-05
-0.000109195
1.50798e-05
-0.000108013
-8.72895e-06
-0.000102577
-3.251e-05
-9.30096e-05
-5.53071e-05
-7.9618e-05
-7.61587e-05
-6.28931e-05
-9.41458e-05
-4.34954e-05
-0.000108445
-2.22287e-05
-0.000118381
-2.91396e-10
-0.000123473
2.22281e-05
-0.000123473
4.34948e-05
-0.000118381
6.28925e-05
-0.000108445
7.96174e-05
-9.41459e-05
9.30089e-05
-7.61588e-05
0.000102576
-5.53073e-05
0.000108013
-3.25102e-05
0.000109195
-8.72929e-06
0.000106174
1.50794e-05
9.91595e-05
3.80011e-05
8.84999e-05
5.91961e-05
7.46582e-05
7.79115e-05
5.81958e-05
9.34845e-05
3.97589e-05
0.000105319
2.00804e-05
0.000112827
0.000115327
-2.42163e-05
0.000139545
-4.79657e-05
0.000136577
-7.02531e-05
0.000127608
-9.02062e-05
0.000113439
-0.000107049
9.47549e-05
-0.000120097
7.22454e-05
-0.000128777
4.66808e-05
-0.000132643
1.89457e-05
-0.000131411
-9.96049e-06
-0.000124987
-3.89335e-05
-0.000113492
-6.68027e-05
-9.72752e-05
-9.23754e-05
-7.69226e-05
-0.000114498
-5.32402e-05
-0.000132127
-2.72222e-05
-0.000144399
-2.93636e-10
-0.000150695
2.72216e-05
-0.000150695
5.32396e-05
-0.000144399
7.6922e-05
-0.000132127
9.72745e-05
-0.000114498
0.000113491
-9.23755e-05
0.000124987
-6.68028e-05
0.00013141
-3.89338e-05
0.000132642
-9.96084e-06
0.000128776
1.89452e-05
0.000120097
4.66802e-05
0.000107048
7.22447e-05
9.02057e-05
9.4754e-05
7.02526e-05
0.000113437
4.79654e-05
0.000127607
2.42161e-05
0.000136576
0.000139543
-2.91606e-05
0.000168705
-5.77846e-05
0.000165201
-8.46984e-05
0.000154522
-0.000108869
0.000137609
-0.000129366
0.000115252
-0.000145359
8.8238e-05
-0.00015613
5.74525e-05
-0.000161111
2.39263e-05
-0.000159914
-1.11575e-05
-0.000152377
-4.64705e-05
-0.000138602
-8.05777e-05
-0.000118981
-0.000111996
-9.42084e-05
-0.000139271
-6.52674e-05
-0.000161068
-3.33918e-05
-0.000176274
-2.88006e-10
-0.000184086
3.33912e-05
-0.000184086
6.52667e-05
-0.000176274
9.42077e-05
-0.000161068
0.00011898
-0.000139271
0.000138601
-0.000111996
0.000152376
-8.05778e-05
0.000159913
-4.64707e-05
0.00016111
-1.11578e-05
0.000156129
2.39258e-05
0.000145358
5.74518e-05
0.000129365
8.82372e-05
0.000108868
0.000115251
8.46979e-05
0.000137608
5.77842e-05
0.00015452
2.91605e-05
0.0001652
0.000168704
-3.50524e-05
0.000203758
-6.94958e-05
0.000199645
-0.000101956
0.000186981
-0.000131214
0.000166867
-0.000156163
0.0001402
-0.00017579
0.000107865
-0.000189203
7.08656e-05
-0.000195666
3.03896e-05
-0.00019465
-1.21733e-05
-0.000185888
-5.52327e-05
-0.000169438
-9.70276e-05
-0.000145725
-0.000135709
-0.000115565
-0.000169431
-8.01578e-05
-0.000196476
-4.104e-05
-0.000215392
-2.7035e-10
-0.000225126
4.10394e-05
-0.000225126
8.01572e-05
-0.000215392
0.000115565
-0.000196476
0.000145725
-0.000169431
0.000169437
-0.000135709
0.000185887
-9.70276e-05
0.000194649
-5.52328e-05
0.000195665
-1.21736e-05
0.000189202
3.0389e-05
0.000175789
7.08649e-05
0.000156162
0.000107864
0.000131213
0.000140199
0.000101955
0.000166866
6.94954e-05
0.00018698
3.50522e-05
0.000199643
0.000203756
-4.20455e-05
0.000245803
-8.34117e-05
0.000241011
-0.000122501
0.00022607
-0.000157888
0.000202255
-0.000188256
0.000170569
-0.00021238
0.000131988
-0.000229143
8.76288e-05
-0.000237592
3.88389e-05
-0.000237001
-1.27647e-05
-0.000226939
-6.52939e-05
-0.000207383
-0.000116584
-0.000178767
-0.000164325
-0.000142039
-0.000206159
-9.86625e-05
-0.000239853
-5.05593e-05
-0.000263495
-2.34877e-10
-0.000275685
5.05588e-05
-0.000275685
9.8662e-05
-0.000263495
0.000142039
-0.000239852
0.000178766
-0.000206158
0.000207382
-0.000164325
0.000226938
-0.000116584
0.000236999
-6.5294e-05
0.000237591
-1.2765e-05
0.000229142
3.88383e-05
0.000212378
8.76281e-05
0.000188255
0.000131987
0.000157887
0.000170568
0.0001225
0.000202253
8.34112e-05
0.000226069
4.20452e-05
0.000241009
0.000245801
-5.03065e-05
0.00029611
-9.98723e-05
0.000290577
-0.000146858
0.000273056
-0.000189611
0.000245008
-0.000226577
0.000207535
-0.000256272
0.000161684
-0.000277305
0.000108661
-0.000288433
4.99671e-05
-0.000288657
-1.25407e-05
-0.000277299
-7.66518e-05
-0.000254184
-0.000139699
-0.00021972
-0.00019879
-0.000174986
-0.000250892
-0.000121762
-0.000293077
-6.24647e-05
-0.000322792
-1.73644e-10
-0.000338149
6.24643e-05
-0.000338149
0.000121761
-0.000322792
0.000174985
-0.000293076
0.000219719
-0.000250892
0.000254183
-0.00019879
0.000277298
-0.000139699
0.000288656
-7.66517e-05
0.000288432
-1.25409e-05
0.000277303
4.99666e-05
0.000256271
0.00010866
0.000226576
0.000161682
0.00018961
0.000207534
0.000146857
0.000245006
9.98717e-05
0.000273054
5.03061e-05
0.000290574
0.000296107
-6.00096e-05
0.000356119
-0.000119236
0.000349803
-0.000175588
0.000329407
-0.000227169
0.000296589
-0.00027216
0.000252527
-0.000308774
0.000198297
-0.000335272
0.000135158
-0.000350035
6.47308e-05
-0.000351692
-1.08843e-05
-0.000339178
-8.91655e-05
-0.00031207
-0.000166808
-0.000270671
-0.000240188
-0.000216179
-0.000305384
-0.00015075
-0.000358506
-7.74393e-05
-0.000396103
-7.56645e-11
-0.000415589
7.74391e-05
-0.000415589
0.00015075
-0.000396103
0.000216179
-0.000358505
0.00027067
-0.000305384
0.000312068
-0.000240188
0.000339176
-0.000166807
0.00035169
-8.91652e-05
0.000350033
-1.08843e-05
0.00033527
6.47304e-05
0.000308772
0.000135158
0.000272159
0.000198296
0.000227168
0.000252525
0.000175587
0.000296587
0.000119236
0.000329405
6.00093e-05
0.000349801
0.000356117
-7.13282e-05
0.000427447
-0.000141865
0.000420341
-0.000209268
0.000396809
-0.000271392
0.000358713
-0.000326133
0.000307267
-0.000371348
0.000243513
-0.000404871
0.000168681
-0.000424588
8.44477e-05
-0.000428644
-6.8275e-06
-0.000415347
-0.000102463
-0.000383892
-0.000198263
-0.000334346
-0.000289734
-0.000267969
-0.000371762
-0.000187359
-0.000439116
-9.64027e-05
-0.000487059
7.59946e-11
-0.000511992
9.64028e-05
-0.000511991
0.000187359
-0.000487059
0.000267969
-0.000439115
0.000334345
-0.00037176
0.000383891
-0.000289733
0.000415346
-0.000198262
0.000428643
-0.000102462
0.000424586
-6.8274e-06
0.000404869
8.44472e-05
0.000371346
0.00016868
0.000326131
0.000243511
0.000271391
0.000307265
0.000209266
0.000358711
0.000141864
0.000396807
7.13277e-05
0.000420338
0.000427444
-8.44208e-05
0.000511868
-0.000168097
0.000504017
-0.000248454
0.000477167
-0.000323114
0.000433373
-0.000389673
0.000373826
-0.000445593
0.000299433
-0.000488184
0.000211273
-0.000514652
0.000110915
-0.00052263
1.15112e-06
-0.000509285
-0.000115808
-0.000473333
-0.000234215
-0.000414339
-0.000348728
-0.000333507
-0.000452594
-0.000233937
-0.000538686
-0.00012061
-0.000600387
3.05564e-10
-0.000632602
0.00012061
-0.000632601
0.000233937
-0.000600386
0.000333507
-0.000538684
0.000414338
-0.000452592
0.000473332
-0.000348726
0.000509283
-0.000234213
0.000522628
-0.000115807
0.000514649
1.15143e-06
0.000488182
0.000110915
0.00044559
0.000211272
0.00038967
0.000299431
0.000323112
0.000373824
0.000248452
0.00043337
0.000168096
0.000477163
8.44203e-05
0.000504013
0.000511865
-9.9412e-05
0.00061128
-0.000198207
0.000602812
-0.000293629
0.000572589
-0.000383105
0.000522849
-0.000463947
0.000454668
-0.000533193
0.000368679
-0.000587557
0.000265636
-0.000623486
0.000146845
-0.000637147
1.48118e-05
-0.000625334
-0.000127621
-0.000585174
-0.000274374
-0.000515446
-0.000418457
-0.000417079
-0.00055096
-0.000293719
-0.000662045
-0.000151801
-0.000742305
6.55367e-10
-0.000784403
0.000151802
-0.000784403
0.00029372
-0.000742304
0.000417079
-0.000662043
0.000515445
-0.000550958
0.000585173
-0.000418454
0.000625332
-0.000274372
0.000637144
-0.00012762
0.000623483
1.48124e-05
0.000587553
0.000146845
0.00053319
0.000265635
0.000463944
0.000368677
0.000383102
0.000454665
0.000293627
0.000522845
0.000198206
0.000572585
9.94113e-05
0.000602808
0.000611276
-0.000116365
0.000727645
-0.000232355
0.000718802
-0.000345121
0.000685355
-0.000451972
0.0006297
-0.000549988
0.000552683
-0.000635778
0.00045447
-0.000705361
0.000335219
-0.000754156
0.00019564
-0.000777057
3.77125e-05
-0.000769102
-0.000135576
-0.000725714
-0.000317763
-0.000644153
-0.000500019
-0.000524606
-0.000670507
-0.000371233
-0.000815419
-0.000192428
-0.00092111
1.18239e-09
-0.000976832
0.00019243
-0.000976831
0.000371234
-0.000921108
0.000524607
-0.000815415
0.000644152
-0.000670503
0.000725712
-0.000500015
0.000769099
-0.00031776
0.000777053
-0.000135574
0.000754152
3.77135e-05
0.000705357
0.00019564
0.000635774
0.000335217
0.000549984
0.000454468
0.000451969
0.00055268
0.000345119
0.000629696
0.000232353
0.000685351
0.000116364
0.000718797
0.00072764
-0.000135243
0.000862888
-0.000270509
0.000854068
-0.000402992
0.000817839
-0.000530016
0.000756724
-0.000648536
0.000671203
-0.000754792
0.000560726
-0.000844072
0.000424499
-0.000910588
0.000262156
-0.000947528
7.46516e-05
-0.000947526
-0.000135577
-0.000903238
-0.000362051
-0.000809335
-0.000593922
-0.000664397
-0.000815444
-0.00047292
-0.0010069
-0.000246003
-0.00114803
1.96046e-09
-0.00122284
0.000246006
-0.00122284
0.000472923
-0.00114802
0.000664398
-0.00100689
0.000809334
-0.000815439
0.000903236
-0.000593917
0.000947522
-0.000362046
0.000947523
-0.000135574
0.000910583
7.46531e-05
0.000844067
0.000262156
0.000754787
0.000424497
0.000648531
0.000560723
0.000530013
0.000671199
0.000402989
0.000756719
0.000270507
0.000817833
0.000135242
0.000854062
0.000862882
-0.000155872
0.00101876
-0.000312359
0.00101055
-0.0004669
0.000972379
-0.000617036
0.00090686
-0.000759792
0.000813959
-0.000891196
0.000692131
-0.00100587
0.000539174
-0.0010967
0.000352987
-0.00115469
0.00013264
-0.0011693
-0.000120969
-0.00112875
-0.000402605
-0.0010233
-0.000699368
-0.000848306
-0.000990437
-0.000608109
-0.00124709
-0.000317646
-0.00143849
3.11484e-09
-0.00154049
0.000317651
-0.00154048
0.000608113