/*--------------------------------*- C++ -*----------------------------------*\
  =========                 |
  \\      /  F ield         | OpenFOAM: The Open Source CFD Toolbox
   \\    /   O peration     | Website:  https://openfoam.org
    \\  /    A nd           | Version:  9
     \\/     M anipulation  |
\*---------------------------------------------------------------------------*/
FoamFile
{
    format      ascii;
    class       volVectorField;
    location    "0.6";
    object      U;
}
// * * * * * * * * * * * * * * * * * * * * * * * * * * * * * * * * * * * * * //

dimensions      [0 1 -1 0 0 0 0];

internalField   nonuniform List<vector> 
4096
(
(-4.57222e-05 4.50974e-05 0)
(-0.000137423 4.38934e-05 0)
(-0.000224521 4.08915e-05 0)
(-0.000303145 3.60467e-05 0)
(-0.00037033 2.97187e-05 0)
(-0.00042334 2.21861e-05 0)
(-0.000460071 1.37753e-05 0)
(-0.000479056 4.81951e-06 0)
(-0.000479541 -4.32966e-06 0)
(-0.000461492 -1.33168e-05 0)
(-0.000425595 -2.17925e-05 0)
(-0.00037323 -2.94274e-05 0)
(-0.00030642 -3.59251e-05 0)
(-0.000227747 -4.10332e-05 0)
(-0.000140254 -4.45531e-05 0)
(-4.73293e-05 -4.63481e-05 0)
(4.74303e-05 -4.63485e-05 0)
(0.000140356 -4.45541e-05 0)
(0.000227848 -4.10347e-05 0)
(0.000306522 -3.5927e-05 0)
(0.000373332 -2.94294e-05 0)
(0.000425695 -2.17942e-05 0)
(0.000461589 -1.33179e-05 0)
(0.000479629 -4.32958e-06 0)
(0.000479126 4.82124e-06 0)
(0.000460112 1.37792e-05 0)
(0.000423338 2.21932e-05 0)
(0.000370254 2.97293e-05 0)
(0.000302959 3.60772e-05 0)
(0.000224163 4.09497e-05 0)
(0.000137293 4.40735e-05 0)
(4.58236e-05 4.51296e-05 0)
(-4.8273e-05 0.000138376 0)
(-0.000144671 0.000134953 0)
(-0.000236208 0.000125494 0)
(-0.00031911 0.00011061 0)
(-0.000389877 9.11685e-05 0)
(-0.000445713 6.80596e-05 0)
(-0.000484392 4.22562e-05 0)
(-0.000504385 1.47818e-05 0)
(-0.000504899 -1.32872e-05 0)
(-0.000485898 -4.08581e-05 0)
(-0.000448106 -6.68601e-05 0)
(-0.000392975 -9.02829e-05 0)
(-0.000322636 -0.000110217 0)
(-0.000239806 -0.000125888 0)
(-0.00014769 -0.000136687 0)
(-4.98545e-05 -0.000142193 0)
(4.99127e-05 -0.000142194 0)
(0.000147748 -0.000136689 0)
(0.000239864 -0.000125891 0)
(0.000322694 -0.000110221 0)
(0.000393032 -9.02872e-05 0)
(0.00044816 -6.68633e-05 0)
(0.000485948 -4.08592e-05 0)
(0.00050494 -1.32846e-05 0)
(0.00050441 1.47895e-05 0)
(0.000484391 4.22705e-05 0)
(0.000445676 6.80826e-05 0)
(0.00038979 9.12022e-05 0)
(0.000318942 0.000110678 0)
(0.000235992 0.000125632 0)
(0.000144544 0.000135219 0)
(4.82455e-05 0.000138463 0)
(-5.21487e-05 0.000237846 0)
(-0.000156261 0.000232203 0)
(-0.000255106 0.000215749 0)
(-0.000344693 0.000190101 0)
(-0.000421194 0.000156656 0)
(-0.000481537 0.000116947 0)
(-0.000523338 7.26094e-05 0)
(-0.000544949 2.54025e-05 0)
(-0.000545513 -2.28261e-05 0)
(-0.000524991 -7.0199e-05 0)
(-0.000484165 -0.000114876 0)
(-0.000424605 -0.000155122 0)
(-0.000348611 -0.000189374 0)
(-0.00025912 -0.0002163 0)
(-0.000159595 -0.000234855 0)
(-5.3889e-05 -0.000244317 0)
(5.39044e-05 -0.000244319 0)
(0.00015961 -0.000234859 0)
(0.000259135 -0.000216305 0)
(0.000348624 -0.00018938 0)
(0.000424616 -0.000155128 0)
(0.000484172 -0.00011488 0)
(0.000524992 -7.01999e-05 0)
(0.000545505 -2.2822e-05 0)
(0.000544927 2.54132e-05 0)
(0.000523294 7.26283e-05 0)
(0.000481465 0.000116976 0)
(0.000421087 0.000156697 0)
(0.000344548 0.00019016 0)
(0.000254939 0.000215859 0)
(0.000156154 0.000232334 0)
(5.21225e-05 0.000237911 0)
(-5.78462e-05 0.000346855 0)
(-0.000173299 0.000338674 0)
(-0.000282914 0.000314659 0)
(-0.000382313 0.000277207 0)
(-0.000467199 0.000228431 0)
(-0.000534157 0.000170531 0)
(-0.000580546 0.000105883 0)
(-0.000604537 3.7051e-05 0)
(-0.000605178 -3.32717e-05 0)
(-0.000582424 -0.000102348 0)
(-0.000537143 -0.000167495 0)
(-0.000471076 -0.000226181 0)
(-0.000386773 -0.000276128 0)
(-0.000287493 -0.000315393 0)
(-0.000177078 -0.000342451 0)
(-5.98038e-05 -0.000356249 0)
(5.97868e-05 -0.00035625 0)
(0.000177061 -0.000342455 0)
(0.000287474 -0.000315399 0)
(0.000386752 -0.000276134 0)
(0.000471052 -0.000226187 0)
(0.000537114 -0.000167499 0)
(0.000582389 -0.000102348 0)
(0.000605133 -3.3266e-05 0)
(0.00060448 3.70642e-05 0)
(0.000580472 0.000105905 0)
(0.000534063 0.000170562 0)
(0.000467082 0.000228473 0)
(0.000382177 0.000277261 0)
(0.000282781 0.000314731 0)
(0.00017321 0.000338751 0)
(5.78174e-05 0.000346879 0)
(-6.56607e-05 0.000469191 0)
(-0.000196707 0.000458163 0)
(-0.000321134 0.000425667 0)
(-0.000433989 0.000374996 0)
(-0.000530381 0.000309018 0)
(-0.000606423 0.000230699 0)
(-0.000659114 0.000143252 0)
(-0.000686376 5.01429e-05 0)
(-0.000687125 -4.49856e-05 0)
(-0.00066131 -0.000138431 0)
(-0.000609913 -0.000226564 0)
(-0.00053491 -0.000305959 0)
(-0.000439194 -0.000373533 0)
(-0.000326466 -0.000426656 0)
(-0.00020109 -0.000463265 0)
(-6.79215e-05 -0.000481933 0)
(6.78779e-05 -0.000481934 0)
(0.000201045 -0.000463268 0)
(0.00032642 -0.000426661 0)
(0.000439145 -0.000373538 0)
(0.000534857 -0.000305964 0)
(0.000609855 -0.000226566 0)
(0.000661245 -0.00013843 0)
(0.000687051 -4.49777e-05 0)
(0.000686291 5.01585e-05 0)
(0.000659017 0.000143276 0)
(0.000606313 0.000230731 0)
(0.000530259 0.000309059 0)
(0.000433862 0.000375046 0)
(0.00032102 0.000425724 0)
(0.000196632 0.000458209 0)
(6.56354e-05 0.0004692 0)
(-7.59346e-05 0.000609444 0)
(-0.000227488 0.000595137 0)
(-0.000371396 0.000552934 0)
(-0.000501939 0.000487119 0)
(-0.000613455 0.000401424 0)
(-0.000701441 0.0002997 0)
(-0.00076242 0.000186117 0)
(-0.000793988 6.51757e-05 0)
(-0.000794885 -5.83953e-05 0)
(-0.00076505 -0.000179786 0)
(-0.000705614 -0.000294281 0)
(-0.000618861 -0.000397429 0)
(-0.000508137 -0.000485221 0)
(-0.000377723 -0.000554243 0)
(-0.000232668 -0.000601808 0)
(-7.85931e-05 -0.000626063 0)
(7.85276e-05 -0.000626064 0)
(0.000232601 -0.000601811 0)
(0.000377654 -0.000554247 0)
(0.000508065 -0.000485226 0)
(0.000618785 -0.000397432 0)
(0.000705533 -0.000294281 0)
(0.000764962 -0.000179782 0)
(0.00079479 -5.8385e-05 0)
(0.000793884 6.51932e-05 0)
(0.000762309 0.000186142 0)
(0.000701323 0.000299732 0)
(0.000613334 0.000401461 0)
(0.000501823 0.000487159 0)
(0.000371298 0.000552973 0)
(0.000227425 0.000595159 0)
(7.59137e-05 0.000609432 0)
(-8.90781e-05 0.000772899 0)
(-0.000266864 0.000754773 0)
(-0.000435689 0.000701266 0)
(-0.000588854 0.000617811 0)
(-0.000719712 0.000509146 0)
(-0.000822976 0.000380151 0)
(-0.000894563 0.000236112 0)
(-0.000931645 8.27308e-05 0)
(-0.00093274 -7.39946e-05 0)
(-0.00089777 -0.000227965 0)
(-0.000828058 -0.000373197 0)
(-0.000726277 -0.000504045 0)
(-0.000596353 -0.000615419 0)
(-0.000443309 -0.000702984 0)
(-0.000273073 -0.000763328 0)
(-9.22442e-05 -0.000794101 0)
(9.21618e-05 -0.000794102 0)
(0.000272989 -0.000763331 0)
(0.000443224 -0.000702986 0)
(0.000596264 -0.000615421 0)
(0.000726184 -0.000504046 0)
(0.00082796 -0.000373195 0)
(0.000897668 -0.000227959 0)
(0.000932632 -7.39826e-05 0)
(0.000931531 8.27489e-05 0)
(0.000894445 0.000236135 0)
(0.000822856 0.000380179 0)
(0.000719595 0.000509175 0)
(0.000588747 0.000617836 0)
(0.000435603 0.000701284 0)
(0.000266809 0.000754769 0)
(8.90591e-05 0.000772863 0)
(-0.000105592 0.000965737 0)
(-0.000316341 0.000943109 0)
(-0.000516482 0.000876276 0)
(-0.000698075 0.000772024 0)
(-0.000853243 0.000636273 0)
(-0.000975713 0.000475114 0)
(-0.00106064 0.000295146 0)
(-0.00110466 0.000103492 0)
(-0.00110602 -9.23574e-05 0)
(-0.00106461 -0.000284781 0)
(-0.000981989 -0.000466298 0)
(-0.000861324 -0.000629849 0)
(-0.000707267 -0.000769068 0)
(-0.000525774 -0.000878532 0)
(-0.000323876 -0.000953971 0)
(-0.000109406 -0.000992441 0)
(0.000109311 -0.000992442 0)
(0.00032378 -0.000953972 0)
(0.000525676 -0.000878533 0)
(0.000707167 -0.000769069 0)
(0.000861221 -0.000629848 0)
(0.000981882 -0.000466294 0)
(0.0010645 -0.000284773 0)
(0.00110591 -9.23449e-05 0)
(0.00110455 0.000103509 0)
(0.00106052 0.000295167 0)
(0.000975597 0.000475135 0)
(0.000853134 0.000636291 0)
(0.00069798 0.000772035 0)
(0.000516408 0.000876273 0)
(0.000316295 0.000943082 0)
(0.000105577 0.000965678 0)
(-0.000126108 0.00119526 0)
(-0.000377807 0.00116728 0)
(-0.000616849 0.0010846 0)
(-0.00083376 0.000955615 0)
(-0.00101914 0.000787641 0)
(-0.00116548 0.000588212 0)
(-0.001267 0.000365486 0)
(-0.00131967 0.000128275 0)
(-0.00132137 -0.000114156 0)
(-0.00127197 -0.00035237 0)
(-0.00117332 -0.000577106 0)
(-0.0010292 -0.000779617 0)
(-0.000845151 -0.000952014 0)
(-0.000628295 -0.00108757 0)
(-0.000387036 -0.001181 0)
(-0.00013074 -0.00122865 0)
(0.000130636 -0.00122865 0)
(0.000386932 -0.001181 0)
(0.000628189 -0.00108757 0)
(0.000845044 -0.000952014 0)
(0.00102909 -0.000779615 0)
(0.00117321 -0.000577101 0)
(0.00127186 -0.000352363 0)
(0.00132125 -0.000114144 0)
(0.00131955 0.000128289 0)
(0.00126688 0.000365502 0)
(0.00116537 0.000588225 0)
(0.00101904 0.000787647 0)
(0.000833677 0.00095561 0)
(0.000616785 0.00108458 0)
(0.000377767 0.00116723 0)
(0.000126094 0.00119518 0)
(-0.000151398 0.00147017 0)
(-0.00045358 0.00143579 0)
(-0.000740587 0.00133415 0)
(-0.00100105 0.00117556 0)
(-0.00122368 0.000969013 0)
(-0.00139948 0.000723766 0)
(-0.00152149 0.000449838 0)
(-0.00158485 0.000158057 0)
(-0.00158701 -0.000140182 0)
(-0.00152778 -0.000433273 0)
(-0.00140939 -0.000709814 0)
(-0.00123634 -0.000959037 0)
(-0.0010153 -0.00117122 0)
(-0.000754815 -0.00133808 0)
(-0.000464984 -0.00145309 0)
(-0.000157068 -0.00151174 0)
(0.000156958 -0.00151174 0)
(0.000464874 -0.00145309 0)
(0.000754704 -0.00133808 0)
(0.00101519 -0.00117122 0)
(0.00123623 -0.000959035 0)
(0.00140928 -0.00070981 0)
(0.00152767 -0.000433266 0)
(0.00158689 -0.000140173 0)
(0.00158474 0.000158067 0)
(0.00152138 0.000449847 0)
(0.00139939 0.000723769 0)
(0.0012236 0.000969007 0)
(0.00100098 0.00117554 0)
(0.000740533 0.00133411 0)
(0.000453548 0.00143572 0)
(0.000151388 0.00147007 0)
(-0.000182419 0.00180086 0)
(-0.000546524 0.0017588 0)
(-0.000892368 0.00163437 0)
(-0.00120627 0.00144021 0)
(-0.00147463 0.0011873 0)
(-0.0016866 0.000886963 0)
(-0.00183377 0.000551456 0)
(-0.0019103 0.000194027 0)
(-0.00191306 -0.000171372 0)
(-0.00184183 -0.000530521 0)
(-0.00169923 -0.000869442 0)
(-0.0014907 -0.00117493 0)
(-0.00122425 -0.00143504 0)
(-0.0009102 -0.00163962 0)
(-0.000560719 -0.00178063 0)
(-0.000189403 -0.00185255 0)
(0.00018929 -0.00185255 0)
(0.000560605 -0.00178063 0)
(0.000910086 -0.00163962 0)
(0.00122414 -0.00143504 0)
(0.00149058 -0.00117492 0)
(0.00169911 -0.00086944 0)
(0.00184171 -0.000530517 0)
(0.00191295 -0.000171367 0)
(0.00191019 0.000194031 0)
(0.00183368 0.000551456 0)
(0.00168651 0.000886956 0)
(0.00147455 0.00118728 0)
(0.00120621 0.00144017 0)
(0.000892322 0.00163432 0)
(0.000546496 0.00175872 0)
(0.00018241 0.00180075 0)
(-0.000220335 0.00219986 0)
(-0.00066013 0.00214854 0)
(-0.00107791 0.00199666 0)
(-0.00145715 0.00175962 0)
(-0.00178145 0.00145082 0)
(-0.00203769 0.00108406 0)
(-0.00221571 0.000674271 0)
(-0.0023084 0.000237629 0)
(-0.00231197 -0.000208834 0)
(-0.0022261 -0.000647747 0)
(-0.00205394 -0.00106202 0)
(-0.00180203 -0.00143548 0)
(-0.00148005 -0.00175353 0)
(-0.00110043 -0.0020037 0)
(-0.000677932 -0.00217615 0)
(-0.000228994 -0.00226411 0)
(0.000228878 -0.00226412 0)
(0.000677816 -0.00217616 0)
(0.00110032 -0.0020037 0)
(0.00147993 -0.00175353 0)
(0.00180192 -0.00143548 0)
(0.00205383 -0.00106202 0)
(0.00222599 -0.000647747 0)
(0.00231186 -0.000208835 0)
(0.0023083 0.000237626 0)
(0.00221562 0.000674263 0)
(0.00203761 0.00108404 0)
(0.00178138 0.00145079 0)
(0.0014571 0.00175957 0)
(0.00107787 0.0019966 0)
(0.000660107 0.00214844 0)
(0.000220328 0.00219974 0)
(-0.000266571 0.00268224 0)
(-0.000798666 0.00261975 0)
(-0.00130417 0.00243474 0)
(-0.00176314 0.00214593 0)
(-0.00215571 0.00176963 0)
(-0.00246603 0.00132261 0)
(-0.00268176 0.000823053 0)
(-0.00279427 0.000290639 0)
(-0.00279893 -0.00025388 0)
(-0.00269529 -0.000789315 0)
(-0.00248713 -0.0012948 0)
(-0.00218231 -0.0017506 0)
(-0.00179253 -0.00213883 0)
(-0.00133285 -0.00244425 0)
(-0.000821151 -0.00265482 0)
(-0.00027737 -0.00276222 0)
(0.000277252 -0.00276222 0)
(0.000821033 -0.00265482 0)
(0.00133274 -0.00244425 0)
(0.00179241 -0.00213883 0)
(0.00218219 -0.0017506 0)
(0.00248701 -0.00129481 0)
(0.00269519 -0.000789321 0)
(0.00279883 -0.000253887 0)
(0.00279418 0.000290627 0)
(0.00268168 0.000823035 0)
(0.00246596 0.00132258 0)
(0.00215565 0.00176959 0)
(0.00176309 0.00214587 0)
(0.00130414 0.00243466 0)
(0.000798646 0.00261964 0)
(0.000266564 0.00268211 0)
(-0.000322852 0.00326619 0)
(-0.000967311 0.00319023 0)
(-0.00157964 0.00296518 0)
(-0.00213571 0.0026138 0)
(-0.0026115 0.00215588 0)
(-0.00298778 0.00161179 0)
(-0.00324958 0.0010036 0)
(-0.00338639 0.000355238 0)
(-0.00339252 -0.000308056 0)
(-0.00326736 -0.00096047 0)
(-0.00301541 -0.00157656 0)
(-0.00264616 -0.00213223 0)
(-0.00217376 -0.00260564 0)
(-0.00161645 -0.00297813 0)
(-0.000995923 -0.00323497 0)
(-0.000336407 -0.003366 0)
(0.000336286 -0.003366 0)
(0.000995802 -0.00323498 0)
(0.00161633 -0.00297813 0)
(0.00217364 -0.00260564 0)
(0.00264605 -0.00213224 0)
(0.0030153 -0.00157657 0)
(0.00326726 -0.000960481 0)
(0.00339242 -0.00030807 0)
(0.00338629 0.000355218 0)
(0.0032495 0.00100358 0)
(0.00298771 0.00161175 0)
(0.00261144 0.00215583 0)
(0.00213567 0.00261372 0)
(0.00157961 0.00296509 0)
(0.000967293 0.00319011 0)
(0.000322847 0.00326605 0)
(-0.000391279 0.00397372 0)
(-0.00117235 0.00388149 0)
(-0.0019146 0.00360804 0)
(-0.00258882 0.00318098 0)
(-0.00316592 0.00262433 0)
(-0.00362259 0.00196274 0)
(-0.00394063 0.001223 0)
(-0.00410722 0.000434128 0)
(-0.00411536 -0.000373178 0)
(-0.00396421 -0.00116751 0)
(-0.00365911 -0.00191788 0)
(-0.00321151 -0.00259485 0)
(-0.00263849 -0.00317176 0)
(-0.00196223 -0.00362579 0)
(-0.00120904 -0.00393891 0)
(-0.0004084 -0.00409866 0)
(0.000408277 -0.00409866 0)
(0.00120892 -0.00393892 0)
(0.00196211 -0.0036258 0)
(0.00263838 -0.00317177 0)
(0.00321139 -0.00259486 0)
(0.003659 -0.00191789 0)
(0.0039641 -0.00116753 0)
(0.00411527 -0.0003732 0)
(0.00410713 0.000434099 0)
(0.00394055 0.00122296 0)
(0.00362252 0.00196269 0)
(0.00316586 0.00262426 0)
(0.00258878 0.00318089 0)
(0.00191457 0.00360793 0)
(0.00117234 0.00388136 0)
(0.000391272 0.00397357 0)
(-0.000474386 0.00483141 0)
(-0.0014214 0.00471953 0)
(-0.0023215 0.00438757 0)
(-0.00313935 0.00386899 0)
(-0.00383972 0.00319285 0)
(-0.00439432 0.00238901 0)
(-0.00478101 0.00148988 0)
(-0.00498413 0.000530666 0)
(-0.00499504 -0.000451366 0)
(-0.00481256 -0.00141802 0)
(-0.00444302 -0.00233152 0)
(-0.0039002 -0.00315598 0)
(-0.00320478 -0.00385881 0)
(-0.00238365 -0.00441209 0)
(-0.00146881 -0.00479373 0)
(-0.000496163 -0.00498846 0)
(0.000496037 -0.00498846 0)
(0.00146869 -0.00479373 0)
(0.00238352 -0.0044121 0)
(0.00320466 -0.00385882 0)
(0.00390008 -0.003156 0)
(0.00444291 -0.00233154 0)
(0.00481245 -0.00141804 0)
(0.00499494 -0.000451397 0)
(0.00498404 0.000530627 0)
(0.00478093 0.00148983 0)
(0.00439425 0.00238894 0)
(0.00383967 0.00319277 0)
(0.00313931 0.00386889 0)
(0.00232147 0.00438745 0)
(0.00142139 0.0047194 0)
(0.000474382 0.00483126 0)
(-0.000575243 0.00587142 0)
(-0.00172366 0.00573584 0)
(-0.00281541 0.00533315 0)
(-0.00380776 0.00470389 0)
(-0.00465803 0.00388318 0)
(-0.00533189 0.0029071 0)
(-0.0058024 0.00181484 0)
(-0.00605037 0.000649043 0)
(-0.00606512 -0.000545072 0)
(-0.00584497 -0.00172107 0)
(-0.00539741 -0.00283294 0)
(-0.00473898 -0.00383687 0)
(-0.0038947 -0.00469304 0)
(-0.0028972 -0.00536724 0)
(-0.00178543 -0.0058324 0)
(-0.00060314 -0.00606978 0)
(0.00060301 -0.00606978 0)
(0.00178531 -0.00583241 0)
(0.00289707 -0.00536725 0)
(0.00389458 -0.00469305 0)
(0.00473886 -0.00383689 0)
(0.0053973 -0.00283296 0)
(0.00584486 -0.0017211 0)
(0.00606502 -0.00054511 0)
(0.00605028 0.000648995 0)
(0.00580232 0.00181478 0)
(0.00533183 0.00290702 0)
(0.00465798 0.00388309 0)
(0.00380772 0.00470378 0)
(0.00281538 0.00533303 0)
(0.00172364 0.00573569 0)
(0.000575236 0.00587125 0)
(-0.000697547 0.0071326 0)
(-0.00209022 0.00696845 0)
(-0.00341451 0.00648034 0)
(-0.00461875 0.00571729 0)
(-0.00565125 0.00472173 0)
(-0.00647036 0.00353713 0)
(-0.00704323 0.00221087 0)
(-0.00734635 0.000794521 0)
(-0.00736645 -0.000657093 0)
(-0.00710116 -0.00208753 0)
(-0.00655924 -0.00344075 0)
(-0.00576053 -0.00466326 0)
(-0.00473527 -0.00570632 0)
(-0.00352308 -0.00652801 0)
(-0.00217139 -0.00709511 0)
(-0.000733557 -0.00738455 0)
(0.000733422 -0.00738455 0)
(0.00217126 -0.00709511 0)
(0.00352295 -0.00652803 0)
(0.00473514 -0.00570634 0)
(0.0057604 -0.00466329 0)
(0.00655912 -0.00344078 0)
(0.00710104 -0.00208757 0)
(0.00736635 -0.000657141 0)
(0.00734625 0.000794463 0)
(0.00704314 0.0022108 0)
(0.00647029 0.00353705 0)
(0.00565119 0.00472162 0)
(0.0046187 0.00571717 0)
(0.00341448 0.0064802 0)
(0.0020902 0.00696829 0)
(0.000697542 0.00713243 0)
(-0.000845748 0.00866192 0)
(-0.00253444 0.00846336 0)
(-0.0041407 0.00787216 0)
(-0.0056021 0.00694753 0)
(-0.00685609 0.00574058 0)
(-0.00785209 0.00430369 0)
(-0.00855007 0.00269397 0)
(-0.00892114 0.000973737 0)
(-0.00894875 -0.000790573 0)
(-0.00862952 -0.00253039 0)
(-0.00797364 -0.00417744 0)
(-0.00700483 -0.00566635 0)
(-0.0057596 -0.00693743 0)
(-0.00428607 -0.00793922 0)
(-0.00264201 -0.00863085 0)
(-0.000892604 -0.00898394 0)
(0.000892464 -0.00898394 0)
(0.00264187 -0.00863086 0)
(0.00428593 -0.00793924 0)
(0.00575947 -0.00693745 0)
(0.0070047 -0.00566638 0)
(0.00797352 -0.00417747 0)
(0.0086294 -0.00253044 0)
(0.00894864 -0.000790629 0)
(0.00892104 0.000973669 0)
(0.00854998 0.00269389 0)
(0.00785201 0.00430359 0)
(0.00685603 0.00574046 0)
(0.00560205 0.00694739 0)
(0.00414067 0.00787201 0)
(0.00253442 0.00846319 0)
(0.00084574 0.00866173 0)
(-0.00102519 0.0105161 0)
(-0.00307236 0.0102761 0)
(-0.00502031 0.00956066 0)
(-0.00679367 0.00844105 0)
(-0.0083168 0.00697877 0)
(-0.0095283 0.0052368 0)
(-0.0103793 0.00328384 0)
(-0.0108343 0.00119512 0)
(-0.0108725 -0.00094895 0)
(-0.0104891 -0.00306508 0)
(-0.00969581 -0.00507005 0)
(-0.00852086 -0.00688394 0)
(-0.00700833 -0.0084335 0)
(-0.0052166 -0.00965548 0)
(-0.00321616 -0.0104995 0)
(-0.00108667 -0.0109305 0)
(0.00108652 -0.0109305 0)
(0.00321601 -0.0104995 0)
(0.00521646 -0.00965549 0)
(0.00700819 -0.00843353 0)
(0.00852072 -0.00688397 0)
(0.00969567 -0.00507009 0)
(0.010489 -0.00306514 0)
(0.0108724 -0.000949015 0)
(0.0108342 0.00119504 0)
(0.0103792 0.00328375 0)
(0.00952822 0.00523669 0)
(0.00831673 0.00697865 0)
(0.00679362 0.0084409 0)
(0.00502027 0.0095605 0)
(0.00307234 0.010276 0)
(0.00102519 0.0105158 0)
(-0.00124227 0.0127633 0)
(-0.00372321 0.0124738 0)
(-0.00608491 0.0116088 0)
(-0.00823654 0.0102542 0)
(-0.0100867 0.00848382 0)
(-0.0115608 0.00637321 0)
(-0.0125992 0.00400489 0)
(-0.0131581 0.00146944 0)
(-0.0132113 -0.00113585 0)
(-0.0127519 -0.00370987 0)
(-0.0117932 -0.00615113 0)
(-0.0103687 -0.00836179 0)
(-0.00853137 -0.0102519 0)
(-0.00635216 -0.0117434 0)
(-0.00391706 -0.0127741 0)
(-0.00132362 -0.0133006 0)
(0.00132347 -0.0133006 0)
(0.0039169 -0.0127741 0)
(0.00635201 -0.0117434 0)
(0.00853122 -0.0102519 0)
(0.0103685 -0.00836183 0)
(0.0117931 -0.00615118 0)
(0.0127518 -0.00370993 0)
(0.0132112 -0.00113593 0)
(0.013158 0.00146936 0)
(0.0125991 0.00400478 0)
(0.0115607 0.00637309 0)
(0.0100866 0.00848368 0)
(0.00823648 0.010254 0)
(0.00608487 0.0116086 0)
(0.00372318 0.0124736 0)
(0.00124226 0.0127631 0)
(-0.00150464 0.0154861 0)
(-0.00450992 0.0151373 0)
(-0.00737226 0.0140924 0)
(-0.00998229 0.0124551 0)
(-0.0122296 0.0103135 0)
(-0.0140239 0.007758 0)
(-0.0152921 0.00488736 0)
(-0.0159801 0.00181057 0)
(-0.0160546 -0.00135489 0)
(-0.015506 -0.00448625 0)
(-0.0143486 -0.0074597 0)
(-0.0126221 -0.0101553 0)
(-0.0103902 -0.0124624 0)
(-0.00773899 -0.0142845 0)
(-0.00477343 -0.0155443 0)
(-0.0016132 -0.0161881 0)
(0.00161303 -0.0161881 0)
(0.00477327 -0.0155444 0)
(0.00773883 -0.0142845 0)
(0.0103901 -0.0124624 0)
(0.012622 -0.0101554 0)
(0.0143485 -0.00745975 0)
(0.0155058 -0.00448632 0)
(0.0160545 -0.00135497 0)
(0.0159799 0.00181047 0)
(0.015292 0.00488724 0)
(0.0140238 0.00775786 0)
(0.0122295 0.0103134 0)
(0.00998222 0.0124549 0)
(0.00737221 0.0140922 0)
(0.00450989 0.015137 0)
(0.00150463 0.0154859 0)
(-0.00182136 0.0187833 0)
(-0.00545982 0.0183637 0)
(-0.00892734 0.0171033 0)
(-0.0120925 0.0151264 0)
(-0.0148223 0.0125383 0)
(-0.0170071 0.00944644 0)
(-0.0185575 0.00596893 0)
(-0.0194064 0.00223645 0)
(-0.0195115 -0.00160927 0)
(-0.0188587 -0.00541927 0)
(-0.0174634 -0.00904244 0)
(-0.015372 -0.0123316 0)
(-0.0126608 -0.01515 0)
(-0.00943431 -0.0173781 0)
(-0.00582085 -0.0189199 0)
(-0.00196748 -0.0197082 0)
(0.00196731 -0.0197082 0)
(0.00582068 -0.0189199 0)
(0.00943414 -0.0173781 0)
(0.0126607 -0.01515 0)
(0.0153718 -0.0123316 0)
(0.0174633 -0.0090425 0)
(0.0188585 -0.00541934 0)
(0.0195114 -0.00160936 0)
(0.0194062 0.00223634 0)
(0.0185574 0.00596879 0)
(0.017007 0.00944629 0)
(0.0148222 0.0125381 0)
(0.0120925 0.0151262 0)
(0.00892728 0.0171031 0)
(0.00545978 0.0183634 0)
(0.00182134 0.018783 0)
(-0.00220318 0.0227735 0)
(-0.00660521 0.0222699 0)
(-0.0108035 0.0207518 0)
(-0.0146406 0.0183681 0)
(-0.0179563 0.0152438 0)
(-0.0206176 0.0115066 0)
(-0.0225153 0.00729669 0)
(-0.0235656 0.00277057 0)
(-0.0237145 -0.00190116 0)
(-0.0229415 -0.00653787 0)
(-0.0212623 -0.010955 0)
(-0.0187304 -0.0149715 0)
(-0.0154372 -0.0184181 0)
(-0.0115092 -0.0211463 0)
(-0.00710362 -0.0230358 0)
(-0.0024015 -0.0240023 0)
(0.00240133 -0.0240023 0)
(0.00710344 -0.0230358 0)
(0.011509 -0.0211463 0)
(0.015437 -0.0184182 0)
(0.0187302 -0.0149715 0)
(0.0212621 -0.010955 0)
(0.0229413 -0.00653795 0)
(0.0237143 -0.00190126 0)
(0.0235654 0.00277045 0)
(0.0225152 0.00729655 0)
(0.0206175 0.0115064 0)
(0.0179562 0.0152436 0)
(0.0146405 0.0183678 0)
(0.0108035 0.0207516 0)
(0.00660517 0.0222696 0)
(0.00220317 0.0227732 0)
(-0.00266275 0.0275988 0)
(-0.0079842 0.0269958 0)
(-0.0130638 0.0251706 0)
(-0.0177134 0.0223009 0)
(-0.0217403 0.0185346 0)
(-0.0249837 0.0140221 0)
(-0.0273095 0.00892977 0)
(-0.0286131 0.00344383 0)
(-0.0288249 -0.0022307 0)
(-0.0279153 -0.00787492 0)
(-0.0258986 -0.0132633 0)
(-0.0228361 -0.0181726 0)
(-0.0188362 -0.0223929 0)
(-0.0140523 -0.0257383 0)
(-0.00867707 -0.0280579 0)
(-0.0029341 -0.0292452 0)
(0.00293392 -0.0292452 0)
(0.00867688 -0.0280579 0)
(0.0140521 -0.0257383 0)
(0.018836 -0.022393 0)
(0.0228359 -0.0181727 0)
(0.0258984 -0.0132633 0)
(0.0279151 -0.007875 0)
(0.0288248 -0.0022308 0)
(0.0286129 0.0034437 0)
(0.0273093 0.00892961 0)
(0.0249836 0.014022 0)
(0.0217402 0.0185344 0)
(0.0177132 0.0223007 0)
(0.0130637 0.0251704 0)
(0.00798415 0.0269955 0)
(0.00266273 0.0275985 0)
(-0.00321482 0.0334286 0)
(-0.00964129 0.0327088 0)
(-0.0157821 0.0305191 0)
(-0.021413 0.0270708 0)
(-0.0263032 0.0225379 0)
(-0.030258 0.0170966 0)
(-0.0331129 0.0109427 0)
(-0.0347368 0.00429722 0)
(-0.0350393 -0.00259435 0)
(-0.0339775 -0.00946707 0)
(-0.0315619 -0.016045 0)
(-0.0278612 -0.0220526 0)
(-0.0230036 -0.0272281 0)
(-0.0171746 -0.0313379 0)
(-0.0106107 -0.0341913 0)
(-0.00358895 -0.035653 0)
(0.00358876 -0.035653 0)
(0.0106105 -0.0341913 0)
(0.0171744 -0.0313379 0)
(0.0230034 -0.0272281 0)
(0.027861 -0.0220527 0)
(0.0315617 -0.0160451 0)
(0.0339773 -0.00946715 0)
(0.035039 -0.00259446 0)
(0.0347366 0.00429708 0)
(0.0331127 0.0109426 0)
(0.0302579 0.0170964 0)
(0.026303 0.0225376 0)
(0.0214128 0.0270705 0)
(0.015782 0.0305188 0)
(0.00964124 0.0327085 0)
(0.00321481 0.0334282 0)
(-0.00387651 0.040464 0)
(-0.0116281 0.039608 0)
(-0.0190443 0.0369877 0)
(-0.025859 0.0328535 0)
(-0.0317966 0.0274087 0)
(-0.0366217 0.020858 0)
(-0.0401321 0.0134301 0)
(-0.0421631 0.00538559 0)
(-0.0425965 -0.00298243 0)
(-0.0413702 -0.0113539 0)
(-0.0384866 -0.019391 0)
(-0.0340206 -0.0267526 0)
(-0.0281223 -0.033111 0)
(-0.021016 -0.038171 0)
(-0.0129925 -0.0416897 0)
(-0.00439604 -0.0434941 0)
(0.00439585 -0.0434941 0)
(0.0129923 -0.0416897 0)
(0.0210158 -0.038171 0)
(0.0281221 -0.033111 0)
(0.0340203 -0.0267527 0)
(0.0384864 -0.0193911 0)
(0.0413699 -0.011354 0)
(0.0425962 -0.00298254 0)
(0.0421629 0.00538544 0)
(0.0401319 0.0134299 0)
(0.0366215 0.0208578 0)
(0.0317964 0.0274084 0)
(0.0258589 0.0328532 0)
(0.0190442 0.0369874 0)
(0.0116281 0.0396077 0)
(0.00387648 0.0404636 0)
(-0.00466737 0.0489431 0)
(-0.0140039 0.0479297 0)
(-0.0229495 0.0448038 0)
(-0.0311901 0.0398609 0)
(-0.0383976 0.0333362 0)
(-0.0442883 0.0254652 0)
(-0.0486133 0.0165123 0)
(-0.0511649 0.00678282 0)
(-0.0517875 -0.00337529 0)
(-0.0503912 -0.0135762 0)
(-0.0469637 -0.0234062 0)
(-0.0415829 -0.0324416 0)
(-0.034423 -0.0402701 0)
(-0.025754 -0.0465163 0)
(-0.0159343 -0.0508685 0)
(-0.00539363 -0.0531029 0)
(0.00539344 -0.0531029 0)
(0.0159341 -0.0508685 0)
(0.0257538 -0.0465163 0)
(0.0344227 -0.0402701 0)
(0.0415827 -0.0324416 0)
(0.0469634 -0.0234062 0)
(0.0503909 -0.0135762 0)
(0.0517872 -0.0033754 0)
(0.0511646 0.00678266 0)
(0.0486131 0.0165121 0)
(0.044288 0.0254649 0)
(0.0383974 0.0333359 0)
(0.0311899 0.0398606 0)
(0.0229493 0.0448035 0)
(0.0140038 0.0479292 0)
(0.00466735 0.0489427 0)
(-0.0056095 0.0591457 0)
(-0.0168356 0.0579523 0)
(-0.0276101 0.0542373 0)
(-0.0375649 0.048347 0)
(-0.0463112 0.0405505 0)
(-0.0535076 0.0311154 0)
(-0.0588481 0.0203437 0)
(-0.0620695 0.00858916 0)
(-0.062966 -0.00373744 0)
(-0.0614072 -0.0161726 0)
(-0.0573557 -0.0282097 0)
(-0.0508867 -0.0393208 0)
(-0.0421984 -0.0489843 0)
(-0.0316153 -0.0567191 0)
(-0.0195797 -0.0621213 0)
(-0.00663093 -0.0648989 0)
(0.00663075 -0.0648989 0)
(0.0195795 -0.0621213 0)
(0.0316151 -0.0567191 0)
(0.0421982 -0.0489843 0)
(0.0508865 -0.0393207 0)
(0.0573554 -0.0282097 0)
(0.0614069 -0.0161727 0)
(0.0629657 -0.00373755 0)
(0.0620691 0.008589 0)
(0.0588478 0.0203434 0)
(0.0535073 0.0311151 0)
(0.0463109 0.0405502 0)
(0.0375647 0.0483466 0)
(0.0276099 0.0542369 0)
(0.0168355 0.0579518 0)
(0.00560946 0.0591452 0)
(-0.00672736 0.0713985 0)
(-0.0201975 0.0700025 0)
(-0.0331521 0.0656073 0)
(-0.0451628 0.0586158 0)
(-0.0557717 0.0493323 0)
(-0.0645695 0.0380548 0)
(-0.07118 0.0251228 0)
(-0.0752686 0.0109415 0)
(-0.0765619 -0.00400883 0)
(-0.0748709 -0.0191743 0)
(-0.0701163 -0.0339339 0)
(-0.0623604 -0.0476282 0)
(-0.0518232 -0.0595935 0)
(-0.0388923 -0.0692077 0)
(-0.024115 -0.0759419 0)
(-0.00817191 -0.0794104 0)
(0.00817176 -0.0794104 0)
(0.0241148 -0.0759418 0)
(0.0388921 -0.0692076 0)
(0.051823 -0.0595934 0)
(0.0623601 -0.0476282 0)
(0.070116 -0.0339339 0)
(0.0748705 -0.0191743 0)
(0.0765615 -0.00400892 0)
(0.0752682 0.0109413 0)
(0.0711796 0.0251226 0)
(0.0645691 0.0380545 0)
(0.0557714 0.0493319 0)
(0.0451625 0.0586154 0)
(0.0331519 0.0656068 0)
(0.0201973 0.070002 0)
(0.00672732 0.0713979 0)
(-0.00804735 0.0860798 0)
(-0.0241702 0.0844603 0)
(-0.0397131 0.0792886 0)
(-0.0541823 0.07103 0)
(-0.0670428 0.0600224 0)
(-0.077806 0.0465903 0)
(-0.0860098 0.0311068 0)
(-0.0912283 0.0140277 0)
(-0.093097 -0.00409155 0)
(-0.0913415 -0.0225947 0)
(-0.0858153 -0.0407207 0)
(-0.07655 -0.0576433 0)
(-0.0637805 -0.0725124 0)
(-0.0479656 -0.0845158 0)
(-0.0297839 -0.0929531 0)
(-0.0101006 -0.0973083 0)
(0.0101005 -0.0973083 0)
(0.0297837 -0.0929531 0)
(0.0479654 -0.0845157 0)
(0.0637802 -0.0725122 0)
(0.0765497 -0.0576432 0)
(0.085815 -0.0407207 0)
(0.091341 -0.0225947 0)
(0.0930965 -0.00409162 0)
(0.0912278 0.0140276 0)
(0.0860094 0.0311065 0)
(0.0778056 0.0465899 0)
(0.0670424 0.060022 0)
(0.054182 0.0710295 0)
(0.0397129 0.079288 0)
(0.0241701 0.0844596 0)
(0.00804729 0.0860792 0)
(-0.00959702 0.103623 0)
(-0.0288382 0.101763 0)
(-0.0474391 0.0957178 0)
(-0.0648378 0.0860197 0)
(-0.080415 0.073035 0)
(-0.0935914 0.0571058 0)
(-0.103801 0.0386294 0)
(-0.1105 0.0181069 0)
(-0.113203 -0.00382971 0)
(-0.111511 -0.0264145 0)
(-0.105172 -0.0487133 0)
(-0.094157 -0.0696891 0)
(-0.0786995 -0.0882457 0)
(-0.059336 -0.103312 0)
(-0.0369096 -0.113947 0)
(-0.0125288 -0.119451 0)
(0.0125288 -0.119451 0)
(0.0369095 -0.113947 0)
(0.0593358 -0.103311 0)
(0.0786992 -0.0882455 0)
(0.0941567 -0.069689 0)
(0.105172 -0.0487132 0)
(0.111511 -0.0264144 0)
(0.113202 -0.00382975 0)
(0.110499 0.0181067 0)
(0.1038 0.0386292 0)
(0.0935909 0.0571054 0)
(0.0804145 0.0730345 0)
(0.0648374 0.0860191 0)
(0.0474388 0.0957171 0)
(0.0288381 0.101762 0)
(0.00959696 0.103622 0)
(-0.0114036 0.124517 0)
(-0.0342857 0.122408 0)
(-0.0564782 0.115399 0)
(-0.0773518 0.104091 0)
(-0.0961988 0.088871 0)
(-0.112338 0.0700814 0)
(-0.125078 0.048126 0)
(-0.133727 0.0235363 0)
(-0.13764 -0.00298144 0)
(-0.136239 -0.0305573 0)
(-0.1291 -0.0580409 0)
(-0.116089 -0.0841321 0)
(-0.0974085 -0.107407 0)
(-0.0736712 -0.126435 0)
(-0.0459265 -0.139937 0)
(-0.0156074 -0.146946 0)
(0.0156074 -0.146945 0)
(0.0459265 -0.139936 0)
(0.0736711 -0.126435 0)
(0.0974083 -0.107406 0)
(0.116089 -0.0841318 0)
(0.129099 -0.0580407 0)
(0.136239 -0.0305572 0)
(0.13764 -0.00298144 0)
(0.133726 0.0235362 0)
(0.125078 0.0481257 0)
(0.112338 0.0700809 0)
(0.0961983 0.0888704 0)
(0.0773513 0.104091 0)
(0.0564779 0.115398 0)
(0.0342855 0.122407 0)
(0.0114035 0.124516 0)
(-0.0134919 0.149306 0)
(-0.0405901 0.146953 0)
(-0.0669706 0.138906 0)
(-0.0919431 0.125837 0)
(-0.114712 0.108134 0)
(-0.134487 0.0861172 0)
(-0.150429 0.0601645 0)
(-0.161655 0.0308022 0)
(-0.167323 -0.00122619 0)
(-0.166589 -0.0348582 0)
(-0.15876 -0.0687908 0)
(-0.143533 -0.101374 0)
(-0.121011 -0.130738 0)
(-0.0918733 -0.154948 0)
(-0.0574263 -0.172233 0)
(-0.0195428 -0.181239 0)
(0.019543 -0.181239 0)
(0.0574264 -0.172232 0)
(0.0918733 -0.154947 0)
(0.121011 -0.130737 0)
(0.143533 -0.101374 0)
(0.158759 -0.0687905 0)
(0.166588 -0.034858 0)
(0.167322 -0.00122612 0)
(0.161654 0.0308021 0)
(0.150428 0.0601642 0)
(0.134486 0.0861167 0)
(0.114711 0.108133 0)
(0.0919425 0.125836 0)
(0.0669702 0.138905 0)
(0.0405898 0.146952 0)
(0.0134918 0.149305 0)
(-0.0158811 0.178581 0)
(-0.0478126 0.176009 0)
(-0.0790332 0.166882 0)
(-0.108806 0.151938 0)
(-0.136258 0.131546 0)
(-0.160487 0.105963 0)
(-0.180494 0.075494 0)
(-0.195177 0.040613 0)
(-0.203336 0.00206825 0)
(-0.203828 -0.0389618 0)
(-0.195634 -0.080952 0)
(-0.178052 -0.121831 0)
(-0.150997 -0.159131 0)
(-0.115179 -0.1902 0)
(-0.0722285 -0.212547 0)