/*--------------------------------*- C++ -*----------------------------------*\
  =========                 |
  \\      /  F ield         | OpenFOAM: The Open Source CFD Toolbox
   \\    /   O peration     | Website:  https://openfoam.org
    \\  /    A nd           | Version:  9
     \\/     M anipulation  |
\*---------------------------------------------------------------------------*/
FoamFile
{
    format      ascii;
    class       volScalarField;
    location    "2";
    object      p;
}
// * * * * * * * * * * * * * * * * * * * * * * * * * * * * * * * * * * * * * //

dimensions      [0 2 -2 0 0 0 0];

internalField   nonuniform List<scalar> 
918
(
0.82698023
1.2433995
0.053169227
0.81268861
-0.002358826
1.2201756
-1.2380409
1.1836956
0.95194807
-0.15958205
0.0221408
1.0633039
1.0811609
0.85054704
-0.81479268
0.026139568
1.2734186
-1.2035717
1.0733335
0.01102924
1.1337266
0.85383183
0.80754646
0.92399355
1.1359147
0.97408756
0.94701045
0.0023117159
0.0012973985
-0.013026886
0.02443783
0.02215358
0.0083878339
1.0948969
1.1499179
1.1713177
1.0519611
0.5508869
-0.85080489
-1.0079508
-0.96589165
-1.4163305
1.2000338
1.212094
-0.29873615
1.1414998
1.1345327
1.0945123
0.95841019
0.95918883
0.89440703
0.91956383
0.87039314
0.37545309
-0.21625679
-0.29024981
-0.12668885
-0.10107558
0.12889836
0.022014646
-0.00027352612
0.043047838
0.017095162
0.95537049
1.0592484
1.0407611
1.0787663
1.0641771
1.1820978
1.1489532
1.1758647
1.1143645
1.1126404
1.0517763
1.0245976
0.87591299
0.88760825
0.83989442
0.83105254
-1.165438
-1.8815342
-0.40673669
-0.19535136
0.012348895
0.023920971
0.050149977
1.2538233
1.2609992
1.2442802
1.2659051
0.92507077
-1.0460834
-1.4749391
1.0912237
1.1028884
0.79146744
0.82149969
0.95384853
0.99506248
0.015029797
0.016574915
0.011281988
0.024132165
0.020848974
1.009417
1.0311853
0.93472277
1.1298202
1.067809
1.1059239
1.0929129
0.66785171
1.1713633
1.1667639
0.63708013
0.83895982
0.89602451
0.85861299
0.96215452
0.89574874
1.0150875
1.0262129
-0.0044520691
0.0075823032
0.022674517
0.018157806
0.025108219
1.027695
1.0157577
1.0767058
1.0456838
1.0742622
0.37430772
0.23931413
0.62464633
0.82557897
-0.57332138
-0.66890586
-1.1525262
-1.1388826
-1.5004256
1.0620624
1.2132846
1.2485392
-0.32082798
-0.20238305
-0.4633162
-0.08064813
-0.16874428
1.0873848
1.0815547
1.0766324
1.0839397
1.0951784
1.1153149
0.82140608
0.92059922
0.84745509
0.41528062
0.49012454
0.34131162
0.28318952
-0.67928851
-0.3748962
-0.68002675
-0.063812965
-0.024307745
0.13573891
0.14161032
0.12490064
0.077800349
-0.018451587
0.011238744
0.017553305
0.014280387
0.026990419
0.95832574
0.93502564
0.96077647
0.99173101
1.0547347
1.0513754
1.049426
1.0694646
0.97708219
0.97708666
0.98676821
0.97667509
-2.7408126
-4.6599639
0.044633475
0.19028884
0.018894381
0.018255964
0.0078525341
0.0066604375
-0.0099598693
-0.012837153
0.052891499
0.06392208
0.039273723
0.061616858
1.2395177
1.2580888
0.89150543
0.97635842
0.81336447
0.83366953
1.0818669
1.0982129
1.1052421
1.1132124
0.018889238
0.016383396
0.01367874
1.1011175
1.0313266
1.0719239
0.57669424
0.42294259
0.73680485
0.79986518
1.2286961
1.2087855
1.2492431
0.69509146
0.74420231
1.0288613
1.0423197
1.0717872
1.0595446
1.1061259
1.1055786
1.0715387
0.98269036
1.0120182
1.012575
1.0741751
1.0688453
1.0974794
1.0727909
1.0697304
1.0667997
0.083136311
-0.18589514
1.0253519
0.94180745
0.84348221
0.95065492
1.009168
1.0692404
1.2503026
1.2290387
1.2571588
0.076093836
0.016317133
0.25948233
0.23559251
0.85682546
0.90055374
0.88168261
0.91733197
0.91391608
0.9432255
0.93237675
0.86896753
0.92390189
-0.2140213
-1.019669
-0.60915335
0.55417587
0.347514
0.45213077
0.07525742
0.067989424
0.075211405
0.93985332
1.0149312
0.53511237
0.70924171
0.68503927
0.80013628
0.80983093
0.8891304
0.8038375
0.83241387
0.86046427
0.83095664
1.0084096
0.9897164
1.055125
1.0159158
1.0608643
0.3540456
0.23230829
0.1392662
0.17468486
0.20033456
0.18586748
0.98452832
1.0018845
1.044931
1.0049094
0.91272774
-0.012713161
0.010752685
0.85969636
0.93692143
-0.0083088338
-0.0086854008
0.3717538
-0.61715937
0.42821453
1.1032382
1.1201768
0.94160455
-0.15528673
0.34300256
0.029030658
0.12829519
0.091935478
1.0426447
0.98678575
0.90969242
-0.0014618206
0.044524788
0.03072326
-0.42203994
1.0983978
1.1291085
1.006797
0.91011061
0.9177174
-0.0060155638
0.010680698
0.029745402
-0.012352847
0.017880362
0.032145768
1.0531052
1.0627771
-0.24201971
0.99736533
0.90866777
0.91469905
1.1000318
1.062181
1.1333024
0.027174601
0.0086395066
0.021917804
0.60817575
0.81615813
0.69669356
1.0926416
0.44794609
0.2875981
0.081521572
0.57336391
0.67771528
0.50496312
0.78250225
1.1738203
1.1131059
0.51341589
0.21567354
0.50214406
0.42408581
1.0610771
1.1161401
1.0953863
1.0939959
1.0665868
1.0487274
1.0823639
1.0870796
1.0927649
1.083451
-0.047381613
-0.098728425
-0.13824977
-0.24232589
0.37641582
0.48951654
0.2961389
0.3306542
0.17555612
0.013733699
0.050463452
0.0084049579
0.0040242532
0.083702768
0.11211416
0.096535883
0.14421671
0.08360628
0.075209092
0.062114221
0.08417537
0.063994417
1.0157419
1.0222214
1.0264457
1.1003205
1.006445
0.99243638
0.95225859
0.98970245
0.98527576
0.86816833
0.91444177
0.89341709
0.0064134968
0.031659961
0.0072652305
0.091144514
0.044164058
-0.065131215
-0.039866031
-0.044472723
0.0047313925
0.0080900936
0.034330662
0.020776673
-0.37643786
-0.59583167
0.82223655
0.68481716
0.33336658
1.1109186
1.1065451
1.1016165
1.0879876
1.0878959
1.0878998
1.09269
1.073235
1.0721255
1.0689683
1.0515384
1.078172
-0.14645572
-0.36733977
-0.16370976
-0.18853453
0.55342864
1.1617506
0.83023863
0.71360548
0.71828442
1.0090299
0.24846236
0.28441823
1.1409005
1.0303797
-0.33506281
-0.044394481
-0.26619812
0.20057976
0.31262949
0.70731372
0.78052352
0.80488606
0.76435267
0.66958958
-0.025049027
0.98310099
0.057410698
-0.00040014766
0.47016183
0.26585204
0.88355882
1.1880173
1.1982723
1.0859702
1.0781957
1.134176
1.1086858
1.1001335
1.1511773
1.1741947
0.97841907
0.63711245
0.59291335
0.54098927
1.1802002
1.002717
1.0866154
0.93669924
1.10607
1.1078489
1.0973762
1.0866988
1.0928136
1.0671996
1.0748081
1.0698235
1.0879046
1.0861565
1.0991911
1.0810039
-0.050693661
-0.027078831
-0.076232622
-0.27324109
-0.23578763
-0.3615046
-0.15893377
0.13460147
0.040368889
0.3272638
0.47668733
0.093754415
-0.22493279
-0.10616173
-0.0064796824
0.23916376
0.24947961
0.15773144
0.19401727
0.22925557
0.18241074
0.27558228
0.24204676
0.069509639
0.085506539
0.034253456
0.010430617
0.14695622
0.14627879
0.17378459
0.089223949
0.10969837
0.036632055
0.035265825
0.088272121
0.095290693
0.096598716
0.10177837
-0.0038630771
0.040037951
0.019701444
0.043108543
0.094883066
0.078755534
1.0577931
1.0449797
1.0439714
1.0415067
1.0910383
1.0790019
0.9973171
1.046706
1.0550102
1.034327
0.96983674
0.97445417
0.96735198
0.97422524
1.0118233
0.99657553
1.063327
1.0627412
1.0131551
1.0018889
0.96715686
0.98838245
0.94253878
0.93865224
0.91757756
-0.02548262
0.010880546
-0.032793606
0.013632216
0.010813735
0.042808234
0.049606203
0.059567328
0.056663504
0.050620121
0.035351981
-0.028779213
-0.0064648785
-0.13549254
0.092684402
-0.39636848
-0.45016542
-0.5633644
0.79786141
0.87926414
0.69443886
0.59270332
0.66427936
0.7578011
0.78646199
0.52443594
0.60944252
0.62229502
0.92662636
0.91894089
1.0181638
0.97306913
1.0853862
1.0455361
1.0692303
-7.8894607e-05
0.23880316
0.29529732
0.54343934
0.60903912
0.66342885
0.60041341
0.5891917
0.70517371
0.68564731
1.1685294
1.2053722
1.1246064
1.1584973
1.1776074
0.86030491
1.0446866
1.085636
1.1011769
1.067576
1.0992144
1.0867485
1.0804265
1.0314498
1.0076055
1.0247495
0.89797351
0.93536726
0.90610585
0.88767268
0.99299067
0.99424939
1.0038013
0.99340515
1.039712
1.0443304
1.0633721
1.1117571
1.1002911
0.94676832
0.92035356
0.95337497
0.98049735
0.93403467
0.95016253
0.94666661
0.56174442
0.69984582
0.50160014
0.39941012
0.45260804
0.10867346
0.11526961
0.37629779
0.51501037
0.0076553572
-0.14051676
-0.43450089
1.0115776
0.20999332
0.62565771
0.38165494
1.036109
1.0281476
0.94938564
0.94994496
1.0058975
1.1604654
1.2039987
1.2124886
1.0776715
1.0743793
1.0763129
1.0979533
1.0690053
0.82552572
0.80374872
0.7859803
0.53601575
0.63408404
0.92715896
0.79458218
0.67604536
0.70761648
0.95513769
0.7471809
0.80224689
0.94448183
0.80949825
0.81954339
1.0178641
1.1257377
1.1125984
1.0525491
0.93811706
0.98373079
0.99131294
1.0665908
1.1163479
1.125948
1.0878925
1.050089
1.0335207
1.0676812
1.0783211
1.0682236
1.0373552
1.0847855
1.0851498
1.1180367
1.1098043
0.0053488087
0.030789976
-0.0053276538
-0.02335851
0.028635689
0.022214164
-0.018118448
-0.055555737
0.082289542
0.099871439
-0.019465784
-0.045735986
0.02808389
0.041532939
0.17926264
0.23403996
0.22122789
0.14890732
0.31527544
0.45490338
0.55732419
0.44052028
0.28848709
0.27559716
0.30842532
0.094430493
0.11097077
0.10490722
0.10694928
0.10109456
-0.023208105
-0.00025242294
-0.011280943
0.090191551
0.048595631
-0.053975121
0.022011881
0.027145496
0.006214409
0.035103831
0.01905086
1.040788
1.0113779
0.92828206
0.89466982
0.93026485
0.97601184
1.0221598
1.0670331
1.0830643
1.0458279
1.0385581
1.0334159
1.0581506
-0.020092457
0.028327477
0.017348552
0.010234283
0.0096976582
-0.049726018
-0.014239786
0.42928138
0.24904808
0.32673927
0.11828262
-0.19947775
-0.087299058
0.74083875
0.89952845
0.94064521
0.90302864
0.78774779
0.81480591
0.90135973
0.93356752
0.56706979
0.71703417
0.64250262
0.84185182
0.85416205
0.9006825
0.76579768
0.59072299
0.84824672
1.0095847
0.56236311
0.63338415
0.70096457
0.56041229
0.64558725
0.61403772
0.85949922
0.5463134
0.54521941
0.65224554
0.63428053
0.66400046
0.71644014
0.73745934
0.84481347
0.48424685
0.45836899
0.33601784
1.1275283
1.1811511
1.212019
1.1436782
1.1888861
1.1105622
1.1079963
1.1298152
1.1591037
1.1521712
-0.2505716
-0.25229497
-0.66007265
-0.53812482
0.046884677
0.98048379
0.88438839
0.98704507
1.0376614
0.78316799
0.91551726
1.0466964
1.0312219
1.0582543
1.0003774
0.82712221
0.94659446
0.93492288
0.91103513
0.70066105
0.64267553
1.1073372
1.1047118
1.116922
1.1380349
1.1177525
1.1561462
1.0291342
1.0635619
1.0281286
1.0595279
1.0479523
1.0573641
0.16279556
0.10959991
0.15800157
0.11366265
0.086727487
0.087537915
-0.0065701743
0.0035087499
0.070098628
0.051160318
-0.0041364653
0.067858674
0.46688086
0.46166528
0.16670172
0.35642835
0.011894908
-0.088021815
-0.19977181
0.064940967
0.26600928
0.30567822
0.62757737
0.75057415
0.71862516
0.69328116
0.5972533
0.67912729
0.89354384
0.83369511
0.91335879
0.73665515
0.73809576
0.59832231
-0.011998193
0.12587712
0.46089218
0.89023925
0.85599558
0.71951647
0.4590592
0.35816991
1.0255717
0.91618536
0.93295615
1.0384866
1.0013431
0.48131701
0.46920004
0.84815464
1.0286919
0.70654188
0.49167097
0.50658662
0.69532691
0.83047798
)
;

boundaryField
{
    wall-4
    {
        type            zeroGradient;
    }
    velocity-inlet-5
    {
        type            zeroGradient;
    }
    velocity-inlet-6
    {
        type            zeroGradient;
    }
    pressure-outlet-7
    {
        type            fixedValue;
        value           uniform 0;
    }
    wall-8
    {
        type            zeroGradient;
    }
    frontAndBackPlanes
    {
        type            empty;
    }
}


// ************************************************************************* //
