/*--------------------------------*- C++ -*----------------------------------*\
  =========                 |
  \\      /  F ield         | OpenFOAM: The Open Source CFD Toolbox
   \\    /   O peration     | Website:  https://openfoam.org
    \\  /    A nd           | Version:  9
     \\/     M anipulation  |
\*---------------------------------------------------------------------------*/
FoamFile
{
    format      ascii;
    class       surfaceScalarField;
    location    "2";
    object      phi;
}
// * * * * * * * * * * * * * * * * * * * * * * * * * * * * * * * * * * * * * //

dimensions      [0 3 -1 0 0 0 0];

internalField   nonuniform List<scalar> 
1300
(
1.7582594
5.6264299
-8.0285861
1.7582594
-7.6661884
5.6264299
-7.6412932
7.6412932
-2.1736814
2.1736814
3.7220639
3.6626254
-6.9459493
6.9459493
-6.7068404
6.7068404
-4.1110308
4.1110308
-5.2575011
5.2575011
-5.1533644
5.1533644
4.4143563
-4.4143563
-6.3251577
6.3251577
-2.9452925
2.9452925
-7.565065
7.565065
3.2037055
-3.2037055
-6.7436793
6.7436793
-1.4270316
1.4270316
0.31468758
4.2567868
2.072947
2.072947
-3.7234109
3.7234109
-5.0187052
5.0187052
6.1908242
-6.1908242
11.781033
-11.781033
-3.7524472
-3.8890334
1.5508553
-9.5914944
-6.1153331
-6.1153331
-8.4378086
8.4378086
-2.8113787
2.8150513
4.2692955
-4.2692955
-2.4758605
2.4758605
-7.3872406
-0.25405261
-7.3872406
7.8712049
-0.22991169
7.8712049
-2.3713599
0.19767856
-2.3713598
6.2139617
-6.2139617
1.9241693
0.24951217
1.9241693
4.0776566
-4.0776566
-3.7402239
7.4622878
3.6444654
-3.2142271
7.4710138
-3.2327239
6.8953493
-5.8775831
5.8775831
-7.1220661
0.17611679
-7.1220661
6.8646687
0.081280612
6.8646687
-6.5539115
6.5539115
-6.7148927
0.0080523383
-6.7148927
6.7189052
-0.01206482
6.7189052
4.3861845
-4.3861845
-4.1438581
0.032827281
-4.1438581
4.1203153
-0.00928449
4.1203153
0.35298758
5.2734424
-5.9794175
8.7944688
-5.2734425
0.015941483
5.2531172
0.0043839625
5.2531172
-5.1883507
0.034986098
-5.1883507
5.1231439
0.0302204
5.1231438
4.268892
0.14546437
4.268892
-4.6881582
0.27380204
-4.6881582
-3.825533
-3.9452986
-6.4258147
0.100657
-6.4258147
-2.9950855
0.049792916
-2.9950855
2.8712155
0.074076971
2.8712155
-4.6599903
4.6599903
-7.9101186
0.34505356
-7.9101186
3.7318838
-0.52817825
3.7318838
2.2739553
2.297519
4.0322146
-4.0322145
0.82850901
-6.7593838
0.015704515
-6.7593838
-6.7573869
-5.0236465
6.7573869
-0.013707635
-1.5506395
0.12360791
-1.5506394
3.3317947
-1.2588477
3.3317947
4.0142636
0.10605165
-4.0142637
0.2908528
4.9916625
-4.9916625
2.9389456
0.78446533
2.9389456
-5.595396
5.595396
5.0868728
0.036271004
-5.086873
0.06816782
6.1197786
0.071045626
6.1197786
-6.186371
-0.0044531857
-6.1863709
4.046875
-7.9359084
-3.9165709
6.2271099
0.09804788
-6.2271099
0.1117768
4.3455527
-0.076257184
4.3455527
-4.2014491
4.2014491
-4.2538543
-0.015441186
-4.2538543
-2.2173712
-0.25848925
-2.2173711
2.7937026
-0.31784211
2.7937028
-6.8507629
-0.53647772
-6.8507629
-7.9808762
0.070757591
7.9808762
-0.10967133
3.5671897
-3.5671897
-2.5317453
0.1603855
-2.5317453
-6.4357051
-0.41505781
6.4357051
-0.22174336
-5.8329296
-0.38103217
-5.8329296
-4.2147829
-0.039071349
4.2147829
-0.1371263
3.7903027
-0.45850798
-3.7903027
-0.28735389
-3.2292213
5.5267405
-3.2177297
6.8621952
-5.7323493
-0.14523379
-5.7323493
6.1109649
-0.23338179
6.1109649
7.3811085
0.18395647
-7.3811085
0.25904246
6.8532322
0.011436472
6.8532322
-6.5117397
-0.042171788
-6.5117397
6.6525188
-0.098607349
6.6525188
6.759152
0.094080142
-6.759152
0.044259353
6.6699056
0.048999611
6.6699056
4.4786545
-0.092470041
4.4786545
-4.3448867
-0.041297767
-4.3448867
4.2832611
-4.2832611
4.1565569
0.12670428
-4.1565569
0.012698813
-11.066026
11.061573
0.00020684101
-11.066232
5.2533241
5.2533241
3.3344421
0.93444979
3.3344423
-5.0117987
0.32364047
-5.0117988
3.9301724
-7.8467433
3.8792769
-7.7048098
4.0344403
-13.625935
3.8734073
-7.8187059
6.6082005
-6.6082005
6.5685059
0.039694622
-6.5685059
0.14269118
-2.9478724
-0.047213125
-2.9478724
-4.4487885
-0.21120187
-4.4487885
5.0053044
-0.34531401
5.0053044
-4.2228583
4.2228583
-4.0099147
-0.2129436
4.0099147
-0.27803087
6.766012
-0.096106362
-6.766012
0.0066281904
1.7165204
0.20764884
-1.7165203
0.16588095
5.2035282
-0.21186567
5.2035282
-4.7385681
-0.25309442
-4.7385681
-2.949791
0.0019185963
2.949791
-0.010845418
-5.8131618
0.21776594
-5.8131618
-11.152283
0.086050797
-11.147899
-6.10032
-6.10032
2.3374888
11.131958
-4.3289403
-0.015946373
4.3289403
0.016612332
4.199888
0.022970326
-4.199888
-0.0015610864
-4.2392175
-0.0440436
4.2392175
-0.037768418
-2.2103986
-0.0069725012
-2.2103986
-3.2962041
3.2962041
-3.071427
-0.22477715
3.071427
-0.27772426
3.7225856
-0.15539598
3.7225856
2.7635814
0.10763403
-2.7635814
0.23183614
-5.5736687
-0.25926089
-5.5736687
6.3299972
-0.2190323
6.3299972
-4.5566286
-0.18193952
4.5566286
-0.077974037
-0.022566686
11.084139
-5.2307574
0.042406701
5.2307574
-11.155185
11.197592
-2.5556457
0.34524706
2.5556457
0.77879657
5.3254916
0.26990439
-5.3254916
0.31369281
6.6430447
0.0094741567
-6.6430447
0.034844224
-4.3133805
-0.13540793
-4.3133805
-5.4030946
-0.32925469
5.4030946
-0.3977902
-11.39598
-0.17343492
11.569415
-11.365759
5.9865968
0.13318179
-5.9865968
11.330773
-3.4639707
-0.10321905
3.4639708
-0.16776673
3.9286225
-0.20603696
3.9286225
5.4502781
-0.2467499
-5.4502781
-0.12339065
-6.393468
-0.11827164
6.3934681
-0.063470883
-4.104211
-0.20916952
4.104211
-0.17558852
-5.7852461
4.5263985
1.6857678
-3.9736958
-3.9622126
-8.9973422
3.7335145
1.793226
4.5620239
-8.4374295
-5.1885051
-8.3256527
7.1383806
-6.8246878
-8.6226393
8.7681036
9.8401378
-10.22117
-7.8799199
7.6018891
8.4419405
-8.5790668
3.689634
3.7726539
13.018852
-12.842735
-11.995964
11.85073
12.152402
-12.144349
12.593278
-12.63545
-14.498031
14.507505
-7.5908314
7.6236587
-8.8891849
8.8478871
-8.9708946
8.8929205
-3.9038813
-3.8009286
10.698338
-10.597681
13.929139
-13.913434
-13.52532
13.870374
4.4095785
0.11681997
3.9510706
-3.0388855
6.7285196
-3.8564638
5.5422316
3.9545255
-7.8584068
3.8922178
-7.8544304
7.110888
6.8182509
-7.0971804
-1.9001619
-7.936273
7.8600159
-7.794297
7.7565286
13.411482
-13.665534
-2.916651
6.6893049
-3.9455442
5.7387701
-3.8887715
-3.9911483
4.4169498
0.14507411
6.5926969
4.105641
-6.6907448
-1.6349079
-10.147435
9.9006851
-10.364427
10.111332
-0.49793262
5.8347681
-5.3368356
4.5207724
-1.647973
7.482741
5.4904075
5.8140478
5.7869549
-5.5170505
1.0377328
-6.3745682
-6.3064005
-3.3491511
3.5095367
3.3072069
-3.0576948
8.1477832
1.6923546
7.9260399
-7.2230906
-2.9980794
-7.4823515
5.2212407
2.3806485
5.0082971
5.5140802
2.9278603
5.4750089
4.6084579
-4.6106805
0.0022225986
-3.9713204
8.5797783
2.0786245
-7.9624687
-7.8173946
8.4078867
4.610965
8.4891673
-8.8710766
-3.9716583
-8.6120341
-7.2501342
-4.7458298
-7.5793889
7.776175
4.0745552
7.5427932
-9.3048296
9.2413587
8.0353951
4.1170067
8.0233303
-8.1774847
-3.9668648
-8.1332253
12.093657
-3.2116627
-8.8819942
-8.1143292
-6.3837016
8.2129365
4.3803413
8.8011165
5.7063886
8.8359607
4.2189939
7.8746629
-8.5993352
2.2156336
-5.106782
-2.4840495
-5.0940831
4.8304563
2.7932024
4.8211718
-5.6879173
-3.2012675
-5.7038637
-5.6425043
-3.3283902
5.7349744
3.1129128
-5.7049747
-4.6594519
5.8869142
3.0060064
3.5849609
-8.773466
4.233745
-8.0346736
-7.5216492
-3.0760317
-7.378958
4.8516694
2.9697239
-7.8213934
-3.0067374
12.76133
-5.9430787
10.861168
-8.6607936
-5.2526408
-8.6541654
-10.569492
-2.9558283
-10.498734
-6.2947367
6.1593288
-6.5479804
6.2026664
12.574211
-7.1321034
-5.4421076
-5.0859717
-3.493095
5.3733256
-1.422255
-5.6309466
5.6331692
1.0975731
6.6398047
6.7566247
5.3343697
-5.1374476
-2.6568493
-5.1390087
5.1297661
2.6267625
5.0857225
10.402775
3.0087069
10.172863
-9.3196038
-4.3459305
-9.8560815
6.7483355
-7.0068248
4.0100873
-4.0081687
6.8294275
3.2819047
-6.6175618
-3.5298733
7.96621
-4.078765
-3.8874451
-13.006489
10.433486
2.5730025
-5.5237477
-1.0029753
0.42405635
-5.2990601
-3.3235795
5.0252578
0.78879002
11.222277
7.8986966
-5.4727607
5.6905267
6.0966536
6.1329246
-0.17347594
4.6415701
-4.296323
6.3359238
-1.6649777
-4.6709462
7.4348984
-7.8499562
-2.4211831
-7.2913417
4.8701586
0.076083699
1.9830806
-1.8594727
-2.7741215
-0.57502956
-2.5422854
1.9944134
1.3127935
2.2020622
1.2478836
2.2616531
-3.6246406
0.59836309
3.0262775
-2.3767569
-2.4593317
-4.8764927
-0.94075228
5.8172449
7.4290046
2.4716805
-7.3056139
-0.1767376
3.6830188
-3.6089419
-1.4196035
-3.4568892
2.1917921
-3.6113955
-4.1962158
-2.7014195
6.8976353
-4.4784523
-0.66055638
4.455482
0.55281515
-5.0644839
-2.8717891
5.0799251
0.39508376
-3.965963
8.1160118
-4.1500487
-6.6228124
3.7483445
4.8314339
6.1289929
-6.4178504
3.1767399
3.2411105
-1.5864165
7.2389563
1.250211
7.2503928
-10.755349
6.7836908
9.323883
4.5464906
-9.5078395
0.89580531
-9.8595437
11.357329
-9.8544369
-1.5028916
5.6871025
5.670226
6.432889
6.141322
-4.2535231
10.686412
-1.3649845
-8.4894524
11.224528
-6.6780377
6.6792863
-13.357324
-12.820608
4.3311558
-8.0038054
9.9573214
-1.953516
-2.837553
-6.4672766
10.841358
-0.85648429
-9.9848741
6.6863089
-6.2956509
-6.4327284
12.728379
-9.5073136
10.399593
-3.0212165
-7.3783766
-7.8257991
-4.8096505
7.9440708
1.2972879
-11.511632
13.727265
-3.6369687
6.8707388
1.1525915
6.9197384
4.6574183
-7.0944537
2.4370353
4.8498952
-7.8711118
2.8163465
-9.9108002
-5.8197305
11.367683
-5.547952
-8.8957621
-7.7978568
-1.0979053
2.3369789
11.390286
-8.0433674
6.3011595
1.742208
4.3958436
0.68987892
-4.5225479
-0.57153524
0.44920657
5.8530018
-6.3022084
5.2703784
5.3764301
4.634679
1.2183228
5.1253861
2.7346298
-5.1419985
-0.5618652
-5.1806291
1.8522389
-2.0677163
-4.6455909
6.4978298
-5.1610768
0.51548589
-3.5899463
-4.5352498
8.1251961
-6.0739958
3.9376001
4.1784117
6.5643626
-6.3945545
1.8593047
-3.2707068
-3.1238477
3.301772
-5.3694884
2.5204811
3.9773487
5.5264875
0.86703561
5.7872254
5.5804572
-8.7569493
0.72227579
9.6860981
-8.0511903
1.824721
7.0112397
-8.1258805
0.32802372
-7.0509343
1.4486596
-7.3917383
-6.3727338
7.5303774
-10.486206
-5.8269466
9.5689669
0.60389627
-9.4592955
-1.0394388
-4.4489798
-1.8457569
-4.6581493
-2.069367
-4.4786134
-6.3228901
-1.4695135
-4.8533766
4.6898152
-4.9443483
-2.6350406
5.3421384
0.86052799
-5.4456772
5.3424581
-5.444537
5.2385
0.56951454
5.0636547
5.9038842
2.4107892
-3.4772382
5.8880274
-7.9542578
10.962965
-12.609188
4.6549301
5.2590129
-9.6049434
-7.3501749
4.264999
2.4833365
3.947157
6.9668542
-8.4375785
1.4707243
-7.6560446
8.7179287
-1.0618841
-11.722967
4.0669228
-4.7561132
3.6258519
0.38423534
3.5786387
0.94506611
2.9886481
-3.9337143
-3.0631026
-3.073948
-3.0153742
-4.2181262
7.2335004
1.3733259
-4.2960402
2.9227143
-4.3254202
5.6987461
-0.27288063
-4.0231596
6.7571676
-3.7685195
7.1414029
-4.5983008
2.5431021
4.1976905
7.0385339
-2.8408433
5.5101256
-2.2282209
2.2378739
-5.0787172
-1.9802524
-3.866767
6.6599694
-4.2584292
4.7739151
-0.35776107
5.1316761
-5.4174758
1.3387108
-0.78279677
4.5936333
4.8844861
5.3565597
-4.1382369
3.6096026
-5.8378235
-1.4691146
-4.9707879
-0.99343923
-1.0391242
-6.0240422
7.0631664
5.8693126
-6.9084368
-3.5760304
7.009831
-3.4338006
5.948258
-4.2384364
-1.7098216
-3.3750124
-3.6318123
3.3819852
1.2595849
7.2078426
0.19680988
-4.4352464
-4.0995131
-3.3207165
4.959256
1.3766679
-2.6827137
5.2557161
2.2586577
-0.27557697
0.70503467
1.4970276
2.1232911
-1.4182565
0.19656423
1.9267269
-1.6629085
2.6903631
0.99265568
-2.7979971
0.25571167
-1.9528185
4.1446106
1.073459
-2.3862524
0.96799594
2.3669263
-4.0319038
6.0942625
-2.4790563
-3.6152063
8.4611887
1.9619434
-4.4409997
5.3293983
-5.2533146
3.2588837
-4.199636
-1.1821161
-6.4354306
-4.743076
-3.0308706
5.9535849
-4.2026297
6.6743102
1.7573691
-6.4975726
8.2549417
-4.5927954
1.8913759
-3.6685424
4.6611981
-1.1059506
-2.5625918
3.4131238
3.4845115
-3.6582274
0.20133819
-0.24510364
2.7963375
-3.0414411
-0.81505807
-3.191815
-5.9260435
6.3211272
-2.8898443
6.0665842
2.9981832
-2.6395499
8.7061341
2.4410497
-5.0805996
-4.1817627
-4.842319
-1.8394891
4.2895039
-0.97226152
-7.1609638
-8.3506381
7.0668837
0.18350908
-10.714346
11.971683
-1.2573375
-6.1033807
-0.68031001
6.3674125
-8.657072
0.78596021
-5.8407254
6.1309578
7.3811688
7.5646779
-9.793112
-0.1917621
-5.7185568
1.2757771
-6.9943339
6.9460032
-3.2774552
7.608611
-8.2694849
5.6344443
-7.4089569
6.1057193
-0.88861456
6.394543
-3.9575077
2.4874512
-7.2971017
-5.9998137
8.3844378
-4.267431
9.5370293
-4.8239796
14.361009
-8.4609483
8.3589662
6.0020426
-1.6783196
-6.9758457
-8.2067526
6.528433
0.15221365
7.0719521
6.4278407
-3.693211
5.8659756
2.7047803
-5.9754871
-2.664708
-8.4906243
2.5151372
-4.3122126
-2.3659153
4.8810525
4.1984472
4.8883262
1.7572048
-4.3167909
7.8988576
-8.9967629
-2.3509056
-4.0218282
8.1153373
-1.5869044
4.5290417
-8.5508699
-2.8626965
6.2067809
-0.79089718
-5.4158837
0.92532266
-6.7522692
3.0065274
-9.7587967
7.4796784
-8.5191172
1.5563129
-6.3124261
-3.8893644
-4.0571312
-1.6329908
-3.8115462
-5.4424386
3.8094478
-1.3755158
3.9669422
-6.3057269
5.5148297
-2.4122018
6.2216495
-4.0333822
-0.62476706
4.2089708
1.0295291
7.2511786
-0.41240316
-6.9377718
-1.7478879
6.4719444
-4.7240564
3.211368
-6.4364453
0.035499079
3.8798024
4.5813863
-8.7499609
-0.85498248
-7.7927543
-3.1426338
5.6259703
3.8671972
9.7365098
1.2989313
6.0189697
-0.39299929
7.3179011
3.5541577
3.2764334
-4.6240515
6.0947758
2.439115
7.094045
-1.0781016
3.6212037
2.5005371
2.55033
1.0586118
2.9712676
1.9132185
4.3099784
0.37626415
-2.6976839
3.9810569
-7.3017734
-0.45418936
-6.3673236
2.4007802
5.3889773
-2.9881971
5.0552453
-3.6785774
0.3311887
1.5875305
-1.8504756
0.26294522
-3.0834154
-2.1260527
-0.19932573
-1.8446473
2.8126432
2.2999633
-2.6133175
-0.47009794
0.27526932
-5.0183454
3.9243667
-3.7230285
-0.23851696
8.0164248
-3.2603513
0.21891021
-1.3689754
-2.9729047
-3.5479343
3.2922226
8.185869
0.52026511
4.0358203
6.8413923
3.9696032
0.27639227
5.2039428
-7.1574588
-4.7068574
-7.3492209
-0.40321772
5.9641948
2.1376531
9.2526333
8.1396958
6.5527914
-1.9980784
-10.994841
8.6002727
-2.5054969
7.5383886
-2.122505
-7.6362917
7.647261
3.3157036
-8.2511573
-0.26795993
-7.9042517
-10.409749
-0.50795974
6.0227894
-6.7432189
6.1184518
4.2726948
0.58068176
-3.3140592
-0.74307192
3.5388364
-0.26240302
7.0554981
-1.8248243
-6.7505835
8.5754077
-3.5641528
3.1099634
3.6154912
1.6402252
3.8784359
0.19985848
-6.5507249
-9.5389219
-1.8881225
-2.1437813
-5.503329
0.31391596
-2.6138793
4.8831358
-1.7731723
3.1733142
6.8022354
7.1334241
-1.8706001
-5.0378367
5.3044008
-2.1310866
5.0023376
)
;

boundaryField
{
    wall-4
    {
        type            calculated;
        value           uniform 0;
    }
    velocity-inlet-5
    {
        type            calculated;
        value           nonuniform List<scalar> 8(-1.7582594 -1.7582594 -7.3846893 -4.5714743 -7.3846893 -6.446951 -4.5714743 -6.446951);
    }
    velocity-inlet-6
    {
        type            calculated;
        value           uniform -5.6264299;
    }
    pressure-outlet-7
    {
        type            calculated;
        value           nonuniform List<scalar> 8(8.0285861 7.6661884 7.6414806 8.0406391 7.7708316 7.9634459 7.8094492 7.9078475);
    }
    wall-8
    {
        type            calculated;
        value           uniform 0;
    }
    frontAndBackPlanes
    {
        type            empty;
        value           nonuniform List<scalar> 0();
    }
}


// ************************************************************************* //
