/*--------------------------------*- C++ -*----------------------------------*\
  =========                 |
  \\      /  F ield         | OpenFOAM: The Open Source CFD Toolbox
   \\    /   O peration     | Website:  https://openfoam.org
    \\  /    A nd           | Version:  9
     \\/     M anipulation  |
\*---------------------------------------------------------------------------*/
FoamFile
{
    format      ascii;
    class       volVectorField;
    location    "2";
    object      U;
}
// * * * * * * * * * * * * * * * * * * * * * * * * * * * * * * * * * * * * * //

dimensions      [0 1 -1 0 0 0 0];

internalField   nonuniform List<vector> 
918
(
(0.37293921 -0.13718594 0)
(0.0087958543 2.9603895 0)
(-0.12915236 2.0998306 0)
(0.25699932 0.092464923 0)
(-0.021522505 2.0541197 -1.2233585e-20)
(-0.01225047 2.9479458 -2.3746114e-18)
(1.3537029 2.1088533 1.0106678e-18)
(0.72632006 0.4128304 -2.5175562e-20)
(1.9866683 -0.0045440211 0)
(0.019953317 2.1152231 0)
(0.0087622146 2.0462605 0)
(1.252293 0.022108855 0)
(-0.00025734731 2.9363317 0)
(0.0078706771 2.8617979 0)
(0.032402075 2.9965483 5.0124281e-19)
(0.0044015138 2.02553 -2.1236218e-20)
(0.94270436 0.23081931 1.8674821e-18)
(0.28424092 2.4095555 8.816539e-19)
(0.92933081 -0.06378496 0)
(0.0039054758 2.0664961 0)
(0.69192652 0.29017992 -1.0279776e-18)
(0.98958447 0.070998615 0)
(0.48968515 0.14504519 0)
(0.60090172 0.22624615 0)
(1.127071 0.071135025 0)
(0.014041435 2.7774219 0)
(-0.026170047 2.899715 8.2992332e-19)
(-0.01990061 2.0926701 0)
(-0.021655238 2.0438371 0)
(-0.042015589 2.0712397 0)
(0.0087172454 2.1238689 0)
(-0.025877925 2.0570075 9.5942163e-21)
(-0.022139409 2.0387922 0)
(-0.020047288 2.9806278 -8.6145017e-23)
(-0.019149082 3.0062604 1.8436463e-18)
(0.0016146212 3.0016823 0)
(1.2966855 0.0074482975 0)
(0.80456587 1.0981036 2.6363302e-19)
(1.4012245 1.9853877 -1.0009689e-18)
(1.5078158 1.8669488 1.1401378e-18)
(1.1951931 2.1992335 -2.3169997e-19)
(1.1115868 2.3329824 1.4023946e-18)
(0.78903743 0.42635393 2.4474729e-20)
(0.77200337 0.39915803 0)
(1.7424676 1.0327235 0)
(0.73867382 0.45388244 1.0525319e-19)
(0.6570575 0.43439985 -1.0971298e-19)
(1.2338391 0.014345115 0)
(1.9876545 0.0029263306 0)
(1.9905873 0.0046464218 0)
(1.3132631 0.18751908 0)
(1.836803 0.054322261 0)
(1.7336338 0.0066944623 0)
(-0.0096241712 1.9148229 -6.6823917e-19)
(0.016843976 2.1869919 0)
(0.015178563 2.169396 0)
(0.012241369 2.1355455 0)
(-0.006865925 2.094518 0)
(-0.015640328 2.019304 0)
(0.0079106915 2.082121 0)
(0.014038398 2.0519749 0)
(0.0072905874 2.0876666 0)
(0.0069315014 2.0500598 0)
(1.3359933 0.004165938 0)
(1.2886754 0.016240555 0)
(1.2631828 0.011833033 0)
(1.2692029 0.0034619279 0)
(1.260618 -0.0052089685 0)
(0.015618606 3.0122096 8.9631912e-19)
(0.0087276449 3.0106498 0)
(0.0059311474 3.0037543 0)
(0.0081044134 2.9994663 9.4380815e-24)
(0.0066310293 2.9541823 -1.2797424e-18)
(-0.001296975 2.9960277 0)
(-0.0104564 2.9321619 0)
(0.014194153 2.9627095 1.8532325e-24)
(0.011426962 2.8841533 0)
(0.010554454 2.9474495 0)
(0.008463057 2.8432969 0)
(0.13576575 3.2577641 0)
(0.096147587 3.1772262 0)
(0.048748259 3.1114085 -4.6385265e-19)
(0.0038042913 2.9301136 0)
(-0.013065458 2.0663495 0)
(0.0046026726 2.0614979 2.0949682e-20)
(0.0019025125 2.0248387 -3.6939362e-20)
(1.0038833 0.22521388 -6.4889498e-19)
(0.98504458 0.18614581 -6.3063102e-19)
(0.96834461 0.27978925 -1.9148869e-18)
(0.90700336 0.28861052 -1.2562813e-18)
(0.19772167 1.629287 0)
(0.43828956 2.4889528 -9.6608711e-19)
(0.57341146 2.5000009 1.6232505e-18)
(1.1083564 -0.085736757 0)
(1.1324571 -0.049280648 0)
(1.2068877 -0.018772987 0)
(0.7715776 -0.19599265 0)
(0.90841326 -0.19115323 -4.7954825e-18)
(0.76773516 -0.21980314 3.7129574e-18)
(0.0065425564 2.0891071 0)
(0.010471836 2.0644746 0)
(0.014524059 2.0979943 0)
(-0.00025684309 2.0859954 0)
(-0.010160306 2.06984 0)
(0.6120626 0.48744374 3.1697664e-19)
(0.59851148 0.42954469 0)
(0.91551346 0.30138403 0)
(0.9720805 0.12185354 0)
(1.2727813 0.004963951 0)
(1.2176793 0.046449409 0)
(1.2207683 0.017454841 0)
(1.5193849 0.040624054 0)
(1.1211481 0.06907439 0)
(1.0887314 0.042737617 2.742015e-18)
(0.012416639 2.887455 5.8765215e-19)
(0.015301102 2.9292419 0)
(0.028100555 2.9030431 0)
(0.010139115 2.8231238 0)
(-0.022936228 2.9660119 7.9136638e-19)
(-0.015857644 2.8797425 0)
(-0.02814805 2.979977 -2.4599833e-18)
(-0.026668498 2.9142496 8.4976865e-19)
(0.036057696 2.1212785 0)
(0.016623116 2.118327 0)
(0.0017265955 2.0674493 -6.006108e-22)
(-0.0098563681 2.0685104 0)
(-0.00073538103 2.0257148 0)
(1.3357767 0.014178302 0)
(1.3292553 0.0095251143 0)
(1.2759334 -0.003349207 0)
(1.3311435 0.018549608 0)
(1.2938449 0.018326718 0)
(0.89802739 1.2067842 -3.355164e-19)
(0.73682111 1.0401601 0)
(0.92396505 1.3228832 4.8027581e-20)
(0.7920183 1.2285303 0)
(1.4983126 1.725133 -3.0444085e-19)
(1.5720854 1.5465866 5.3932486e-19)
(0.70855507 2.4964227 0)
(0.9631559 2.3982552 0)
(0.85241305 2.4649956 0)
(0.59484768 1.451853 -4.3295277e-19)
(0.82119463 0.40047475 0)
(0.80175833 0.35900656 3.4313299e-19)
(1.5890683 1.41664 0)
(1.6906955 1.151614 0)
(1.6648877 1.2622945 -3.8077863e-19)
(1.7236502 0.95102405 0)
(1.7418897 0.78551829 1.0000309e-19)
(1.3170109 0.014481254 0)
(1.2931657 0.014110371 0)
(1.2872456 0.005461841 0)
(1.1431199 0.095900202 0)
(1.2395951 0.045400952 0)
(1.1418654 0.05022288 0)
(1.4783015 -0.12334063 0)
(1.8366726 -0.044041258 0)
(1.725822 -0.011552927 0)
(-0.0033216798 1.9608121 3.5742342e-19)
(0.01652923 1.9043861 0)
(0.0079892957 1.9700141 5.9241431e-19)
(0.021654333 1.959814 -4.9921585e-19)
(0.18123995 2.360469 -7.2184485e-19)
(0.035855926 2.2475848 0)
(0.082774931 2.2725026 0)
(-0.012624901 2.1366649 0)
(-0.012656502 2.0861644 0)
(-0.0023538486 2.0630762 -1.6538075e-21)
(0.003567502 2.0219361 0)
(-0.0014948832 2.0643731 -7.9952555e-20)
(0.0051371883 2.053876 1.4000123e-19)
(0.0043891811 2.1282178 0)
(0.018788488 2.0883047 0)
(0.017261689 2.0523527 0)
(0.0023396239 2.0736265 0)
(-0.0087784827 2.0348373 0)
(1.3787272 0.020659218 0)
(1.3623911 0.018653568 0)
(1.3586029 0.0051781565 0)
(1.3130338 0.0061042789 0)
(1.3067159 -0.011802658 0)
(1.3266608 0.006790005 0)
(1.2885101 0.019849781 0)
(1.2573816 0.007251596 0)
(0.010779141 3.0446867 -7.4674336e-21)
(0.016743474 3.0474413 0)
(-0.0082159791 3.0002229 0)
(-0.0061985866 2.9286638 0)
(0.54817501 3.6283515 0)
(0.9962018 2.7423646 6.8490399e-19)
(0.019945548 3.0548912 0)
(0.004763788 2.9096854 0)
(0.0038021396 2.1012113 0)
(-0.0038857055 2.0473958 0)
(0.0012768491 2.0810102 0)
(-0.0091916022 2.1369495 -1.5096643e-21)
(-0.031844565 2.0867145 0)
(-0.0099497371 2.1152977 0)
(0.009778326 2.0488518 1.5877633e-21)
(0.0071914767 2.0965361 4.6230535e-20)
(0.00038876724 2.0799985 3.7578175e-20)
(0.0067791829 2.0456315 0)
(1.0216439 0.16360542 9.9233494e-19)
(0.98763412 0.1371883 -9.6948834e-19)
(0.23394393 1.686049 0)
(0.26129201 1.5974403 -2.803729e-19)
(0.17716937 1.7352639 -8.3265731e-19)
(0.12864996 1.7072077 8.3309732e-19)
(1.2901852 -0.029923932 0)
(1.2780759 -0.034129826 0)
(1.2206613 -0.049398721 0)
(1.2117455 -0.019565149 0)
(-0.015386018 2.0871005 0)
(0.0021397584 2.0989393 0)
(-0.0034895835 2.0690509 0)
(0.67904328 0.46160838 9.2687364e-19)
(0.65766961 0.46076896 -1.012327e-18)
(0.62129312 0.43538537 0)
(1.617924 0.10149196 6.2456515e-20)
(1.6500248 0.11999611 0)
(1.5116663 0.051633692 0)
(1.4409698 0.027850111 0)
(1.0557234 0.12638103 0)
(1.1008143 0.064563373 -4.4284604e-18)
(1.021208 0.081299003 1.6943428e-18)
(0.017410765 2.9759734 6.402592e-19)
(0.010905485 2.8747941 4.986143e-20)
(0.0014929346 3.0344888 -1.5820585e-20)
(0.0081097874 3.0371692 5.7115451e-19)
(-0.017091674 2.9933393 2.7944151e-20)
(-0.015821042 2.9446788 -1.114e-22)
(-0.011694501 3.0196048 -5.3052572e-19)
(0.00022404568 3.0222405 3.8245629e-19)
(0.0011149897 3.0309338 -5.7117402e-19)
(1.3624022 0.020599273 0)
(1.3485811 0.017867493 0)
(1.3129108 0.025017528 0)
(1.3226592 -0.02185664 0)
(1.3101669 -0.0067395463 0)
(1.270956 -0.013345258 0)
(1.3186918 -0.00406051 0)
(1.3150371 -0.00064413833 0)
(1.2931762 0.0065494898 0)
(0.83068955 1.2287983 -8.1432268e-20)
(0.73823428 1.1936743 0)
(0.73489582 1.4150572 1.2621233e-19)
(0.81442721 1.4913972 9.2815493e-19)
(0.86802482 1.4243544 -5.5810262e-19)
(0.77410165 1.3459073 1.0543819e-18)
(0.595423 1.552023 2.0681229e-18)
(0.54211183 1.4697399 4.2402259e-19)
(0.92921839 0.32066461 1.3331246e-18)
(0.88633873 0.36549547 3.2750436e-19)
(0.87835247 0.32197518 6.5267044e-19)
(1.7125571 0.65691378 3.991558e-20)
(1.7489759 0.51688206 -1.3784047e-20)
(0.022644013 2.0295043 2.2836763e-19)
(0.0065842416 1.9989138 0)
(1.445652 0.032642351 0)
(1.4104497 0.017153643 0)
(1.3823233 0.0092347141 0)
(0.024115269 3.062499 0)
(0.016151311 2.9826285 1.0395667e-18)
(0.0030723953 2.9998579 0)
(0.0078991243 2.9111598 -1.0377322e-18)
(0.022457026 3.0803709 2.355379e-19)
(0.016353512 3.0638921 0)
(0.7824435 1.4417869 -9.1672925e-20)
(0.9154096 1.9084124 9.4221538e-20)
(0.71723212 1.5139914 -6.5423107e-19)
(0.0168974 2.995212 -5.4186279e-19)
(0.015365691 3.0213328 0)
(0.0092145341 2.9026128 0)
(0.0032511609 2.0905766 -7.7183447e-22)
(-0.007966675 2.0731849 -1.0509344e-19)
(-0.010797936 2.0510961 -2.8739293e-21)
(0.30058324 1.6663726 8.6720055e-19)
(0.33667142 1.5915437 -5.9968737e-19)
(0.043015149 1.9349103 5.7546615e-19)
(0.10560763 1.8342385 -7.0326313e-19)
(0.062210105 1.8127285 8.6094759e-20)
(0.015518165 3.0930429 -1.5370114e-18)
(0.019178846 3.0962903 1.7394935e-18)
(-0.012076594 2.9571058 7.2990325e-19)
(0.003708682 2.9572199 -6.865764e-19)
(-0.0023232892 2.8700006 -7.4340845e-19)
(0.015387558 3.0872699 -1.8245503e-18)
(0.017041147 3.0931276 1.8112208e-18)
(0.65646445 1.5483515 0)
(0.74673835 1.5344575 -2.0595447e-18)
(0.66828557 1.4542148 9.3241257e-19)
(0.54236752 1.5791932 1.1728677e-18)
(0.47958684 1.5203163 -1.8382338e-18)
(1.7122943 0.2132341 1.7168479e-19)
(1.746223 0.42539136 0)
(1.7478838 0.29663843 -5.8461248e-20)
(0.0022685037 2.0417985 -2.1920394e-21)
(-0.006794129 2.0416336 0)
(-0.010590892 1.9966563 0)
(0.39233313 1.645895 -3.0352268e-19)
(0.45538417 1.6120579 -7.3901397e-19)
(0.40794188 1.5517788 1.3474816e-18)
(1.1942087 0.33667542 0)
(1.3024086 0.28487699 8.2380521e-19)
(0.0014871144 2.1121492 0)
(-0.011705335 2.1171268 0)
(1.4729485 -0.26502854 8.5306587e-21)
(1.2013255 -0.33327249 1.8605246e-18)
(0.0011323201 2.145491 1.9739433e-21)
(0.030703507 2.1525072 0)
(0.034318485 3.1232933 2.9008979e-19)
(0.23049387 3.2718392 0)
(1.4541903 0.94908878 -1.9099405e-19)
(1.3288703 -0.11669461 -1.9244481e-20)
(1.3451124 0.071217663 0)
(1.9513579 -0.00058969465 -4.7786559e-21)
(0.098515762 2.2485822 0)
(0.033458663 1.9988951 0)
(-0.0081775225 2.1296332 0)
(0.012405954 2.1013266 1.1866895e-19)
(-0.0088440506 2.1003588 6.3922449e-20)
(1.3242636 -0.0075691869 5.3080906e-21)
(1.4065015 0.016760113 0)
(1.4201827 0.028163476 0)
(0.0073317775 2.0800463 0)
(-0.020058246 2.1092231 0)
(0.0016276919 2.1151741 0)
(0.32452588 2.3478813 -3.1781121e-19)
(1.2053509 0.26704311 0)
(1.1934847 0.12998833 0)
(1.8217987 0.082794389 1.1105413e-18)
(1.6354886 0.2617863 -1.236325e-18)
(1.8251136 0.10803912 0)
(-0.02951151 2.0985 0)
(0.0032174369 2.0920452 0)
(-0.0065965954 2.0774292 0)
(-0.0086498616 2.1280907 0)
(-0.010032312 2.1032445 0)
(-0.0052069579 2.1102799 0)
(1.3649994 0.025781536 0)
(1.3613 -0.027926811 -1.0194921e-20)
(1.046931 2.0150762 4.9875275e-19)
(1.8031986 -0.10833493 -1.1050178e-18)
(1.6599747 -0.29003584 1.1985264e-18)
(1.7999836 -0.13198277 0)
(1.3142397 -0.17241916 1.2358781e-18)
(1.2003882 -0.29745029 -1.3897415e-18)
(1.1896125 -0.17941423 0)
(0.0058135659 2.1229598 0)
(0.021390208 2.1174502 2.0275264e-20)
(0.0035594574 2.11243 -1.2552278e-20)
(1.5651497 0.39684589 1.3823022e-18)
(1.4681303 0.091344729 0)
(0.10145416 3.1002368 -8.0297582e-19)
(0.049360446 2.8904029 -7.0658374e-20)
(0.088675736 3.1768259 6.8483341e-19)
(0.063778913 3.1465003 -1.3957456e-19)
(0.059852412 3.1639204 0)
(0.02446132 3.095674 2.0747615e-19)
(0.03525116 3.1018105 8.1232465e-19)
(0.048443625 3.1276541 -4.0003438e-19)
(0.032163278 3.0859904 0)
(0.88830686 0.42363924 0)
(0.76414576 0.5331685 0)
(1.3776163 0.98691934 4.8168534e-19)
(1.4886308 1.173193 -5.0404926e-19)
(1.4712774 0.79477953 0)
(1.5640859 0.74697794 0)
(1.3705406 -0.081155682 -2.3444305e-18)
(1.3419312 -0.07463751 3.0194979e-18)
(1.3641865 0.051524687 0)
(1.3669608 0.0060987438 0)
(1.4854002 -0.0015421458 0)
(1.4549365 -0.075301918 0)
(1.6473407 -0.11394539 0)
(1.4500689 -0.22794782 0)
(1.4565225 -0.23179696 0)
(1.5417585 -0.22852577 0)
(0.089621778 2.2409524 0)
(0.031723895 2.2471717 0)
(0.10707501 2.2642383 0)
(0.10173508 2.3116376 0)
(0.054199992 1.9775483 0)
(0.078207437 2.0011016 -3.7623611e-19)
(0.051533138 2.0365002 0)
(0.064643428 2.0367945 2.0573957e-19)
(0.0047925777 2.0871591 -1.8690762e-19)
(-0.021875484 2.1366827 0)
(-0.015818048 2.1139232 0)
(0.0056440138 2.145555 0)
(0.0021178053 2.1704977 0)
(0.0092968011 2.056876 -5.4655915e-20)
(0.015819819 2.0952741 8.8145202e-20)
(0.026635915 2.1152369 7.8960663e-20)
(0.049045374 2.116312 0)
(-0.023987061 2.1001275 -1.4944794e-19)
(0.0065534487 2.0992801 -7.3910349e-20)
(4.9995185e-05 2.0564707 3.4779767e-20)
(0.0034418195 2.0707384 -1.1456779e-19)
(0.033544333 2.1205563 -9.878643e-20)
(1.340823 -0.0030293033 2.2103533e-18)
(1.3591894 -0.017353248 -2.8177441e-18)
(1.3234453 0.018296858 -2.268006e-18)
(1.2703632 -0.0071266005 2.979683e-18)
(1.4012249 -0.031275108 0)
(1.4267027 -0.015563605 0)
(1.3978886 0.025146176 0)
(1.4199626 0.037222845 0)
(1.4264606 0.025366472 0)
(1.4356186 0.071263166 0)
(1.4333161 0.059922898 0)
(1.4555159 0.062992123 0)
(-0.022610074 2.105554 -1.3104619e-21)
(0.041608159 2.0416254 0)
(-0.013930069 2.0643514 0)
(-0.038577058 2.123071 3.8526721e-20)
(-0.042066784 2.1308676 -9.5399097e-22)
(-0.027026789 2.1055815 -5.7568511e-20)
(-0.018491023 2.1091316 5.7767384e-20)
(0.034826936 2.1088086 0)
(-0.019887682 2.0983914 0)
(-0.0074558356 2.0989972 0)
(0.0059284229 2.1270451 0)
(0.00051681275 2.1219718 0)
(0.52574986 2.3298298 5.3013537e-19)
(0.51476938 2.3838949 2.8001784e-19)
(0.27737675 1.781579 -2.0770653e-19)
(0.1942989 1.8296215 5.2409746e-19)
(0.39331015 1.9981086 1.1850932e-19)
(1.3517477 0.052981298 0)
(1.2931281 0.11257839 0)
(1.3230529 0.11438519 0)
(1.5253479 0.0043686267 0)
(1.6359521 0.10985327 0)
(1.4467051 0.27531951 0)
(1.3729478 0.28667704 0)
(1.4168172 0.26351915 0)
(1.3510466 -0.01187 2.3039557e-18)
(1.3649722 0.0067582757 -2.960742e-18)
(1.3607829 -0.029589543 -2.2883675e-18)
(1.3455538 -0.018777771 2.9275639e-18)
(1.0435449 2.0050988 0)
(0.90384804 2.1736375 4.0215272e-19)
(1.1730076 1.849588 1.3913217e-19)
(1.1973324 1.875599 -1.8548846e-19)
(1.1618847 1.8653357 1.1539535e-18)
(1.1407879 0.17188925 1.0534442e-18)
(1.4682732 0.15027514 0)
(1.5105837 0.23251154 -1.1029397e-18)
(1.5451119 0.17610261 -4.4887852e-20)
(1.2946461 0.19786216 0)
(0.10148651 3.1863871 2.4315645e-19)
(0.14744203 3.0311403 -8.6781512e-19)
(0.16156959 2.6076849 8.1307337e-19)
(0.48706079 0.68743583 -2.5660216e-19)
(0.14921997 3.2462277 -1.465557e-19)
(0.081010479 3.199221 0)
(0.11544373 3.2047246 2.0288899e-19)
(0.078873254 3.1422766 -5.2069325e-19)
(0.12181317 3.1819724 0)
(0.020405666 3.0921287 4.4222826e-20)
(0.019858864 3.0985162 -5.0958617e-19)
(0.019853438 3.0909844 7.9251323e-19)
(0.027060439 3.0907951 0)
(0.035131846 3.1101209 0)
(1.1354547 2.1687626 0)
(0.40131299 1.1474101 -8.3488409e-19)
(1.4121565 1.5047119 9.4198883e-20)
(1.2685361 1.6164628 0)
(1.0652744 1.4184332 -2.7178717e-19)
(1.3724413 1.3254471 4.6204313e-20)
(0.60167559 0.43617445 -9.5999442e-19)
(0.90378095 0.45781834 -3.1582868e-20)
(0.90183477 0.44355936 7.0719429e-19)
(0.75368828 0.53847125 4.4464951e-20)
(0.71045416 0.51146849 -1.7863481e-18)
(0.90034239 0.45307343 0)
(0.87288102 0.52563799 1.1245845e-18)
(0.90661976 0.52170682 0)
(0.7742414 0.54102008 0)
(0.81532146 0.47839057 0)
(0.90346214 0.90888668 8.0079409e-19)
(1.5642494 0.42408745 -1.1123515e-18)
(1.574072 0.50129119 0)
(1.6207904 0.49779196 0)
(1.0368344 0.31280103 1.0787041e-18)
(0.93278137 0.74100151 -6.8166391e-19)
(0.88424342 0.66616089 1.2457824e-18)
(1.1421112 0.55130724 -1.3586343e-18)
(1.3463675 0.038240734 1.5905497e-18)
(1.3514778 -0.014449684 -1.627977e-18)
(1.35521 0.037779067 0)
(1.3770385 -0.0034558894 0)
(1.3777169 -0.036635098 -1.5293189e-18)
(1.3675259 -0.014338538 1.5145241e-18)
(1.3450184 -0.018754839 0)
(1.3388668 -0.015173543 0)
(1.431549 -0.050048267 0)
(1.3889529 -0.059994502 0)
(1.3642274 -0.029797001 0)
(1.3764632 -0.020428505 0)
(0.01506393 2.2206226 0)
(0.021523329 2.1983264 0)
(0.079664968 2.1563543 6.4701253e-20)
(0.30314492 2.3209012 1.5413086e-19)
(0.12279669 2.3244706 3.3590641e-19)
(0.14610027 2.3414773 -5.4511945e-19)
(0.11980599 2.1757217 0)
(0.17846869 2.0789815 -1.1426695e-19)
(0.18671933 2.1357217 0)
(0.36524229 2.0256734 -1.6476494e-19)
(0.33762611 1.9400062 6.2863091e-19)
(0.20970362 2.1117494 1.0258281e-19)
(0.2924657 2.2451028 8.2883593e-20)
(0.21963956 2.2007023 -6.7693868e-20)
(0.37502641 2.1170607 -1.2006539e-19)
(0.24713419 2.04156 0)
(0.28941644 2.0446538 1.1444811e-19)
(0.032544089 2.0617178 -6.5978742e-20)
(0.0077485038 2.0829639 0)
(0.083934436 2.0441184 2.0905371e-19)
(0.032914335 2.0467215 0)
(0.080993619 2.0625671 -2.2852866e-19)
(0.047370433 2.0830747 0)
(0.035591847 2.1121731 -3.5884882e-20)
(0.0072891099 2.1313147 0)
(0.038647508 2.0971429 0)
(0.052983891 2.1052123 4.068981e-20)
(0.01786004 2.0941107 -1.2857798e-20)
(0.020355015 2.1072922 2.1938385e-19)
(0.032136263 2.0915061 1.8503805e-21)
(0.0093634175 2.0416912 4.4110879e-20)
(0.012683714 2.0444569 2.7834188e-20)
(0.03754515 2.1174899 0)
(0.027083413 2.1039482 0)
(0.0029155703 2.1050547 1.2178326e-19)
(0.004416197 2.0893907 1.2385999e-19)
(-0.020653184 2.106902 -1.5503636e-19)
(0.031560446 2.0870013 0)
(-0.029937514 2.1189857 -2.8213955e-20)
(-0.0067384137 2.1185236 -6.3451018e-21)
(0.037664823 2.1271444 -8.4625425e-21)
(0.016756883 2.070763 -5.2239293e-20)
(-0.01857676 2.084479 -2.6951642e-20)
(-0.019318897 2.0892164 1.0663302e-19)
(1.3482808 0.006767656 -1.5617024e-18)
(1.3485013 0.03704804 1.5122739e-18)
(1.3468285 0.060046998 0)
(1.2954718 0.018564385 2.1246444e-18)
(1.2410899 0.071374021 -2.4103952e-18)
(1.2377178 0.060141874 2.631023e-18)
(1.2991495 0.024054084 -2.7581663e-19)
(1.3956615 -0.016113266 0)
(1.397035 -0.027741626 1.4724684e-18)
(1.3894385 -0.031461206 -1.4639868e-18)
(1.3228242 0.048946818 -8.3802338e-20)
(1.3530775 0.027369328 7.1175873e-19)
(1.314649 0.076310802 0)
(1.3307145 0.078379878 -2.5709012e-19)
(1.3447572 0.067620146 0)
(1.3427305 0.064656523 0)
(1.3522426 0.052183267 0)
(1.3456882 0.033250295 0)
(1.3749839 0.074455958 5.2430134e-19)
(1.3474421 0.012353689 -1.1532549e-18)
(1.2482674 0.0023601544 -5.6044111e-19)
(1.3160399 0.031790684 -6.1710146e-19)
(1.3404936 0.080408712 1.1750872e-18)
(1.4064847 0.080584634 0)
(1.3682356 0.087271223 0)
(-0.0065558262 2.1287607 6.8669689e-21)
(0.0011454518 2.0631776 -1.6246543e-21)
(-0.031532461 2.1339326 0)
(0.0047768045 2.1208856 -7.1077407e-21)
(0.049325805 2.1116925 2.8080224e-21)
(0.038285499 2.1214593 -6.5321248e-21)
(0.032595543 2.1081274 6.5831016e-20)
(0.038902666 2.0859022 -4.4094668e-21)
(0.040546396 2.08105 1.7445959e-20)
(-0.046950847 2.1333786 -2.6526536e-20)
(0.0046512512 2.1232387 3.3659047e-20)
(0.072520317 2.081097 -8.2928313e-21)
(-0.00010190877 2.0302468 -2.1154548e-22)
(0.50652849 2.1750511 -2.245407e-19)
(0.47229771 2.0857787 1.6126634e-19)
(0.88656617 2.168032 -3.9092822e-19)
(0.70315487 2.2848442 -2.7026471e-19)
(0.74389492 2.3029865 0)
(0.34657319 1.7781335 2.1021415e-19)
(0.40996016 1.7577992 3.0796891e-19)
(0.23507425 1.8084457 5.0671658e-20)
(0.283638 1.8260112 -7.2566081e-19)
(0.27316009 1.7972619 6.4589763e-19)
(0.27681048 1.7917462 0)
(0.22112674 1.7903684 -4.5825995e-19)
(0.14551313 1.9342862 9.5776341e-19)
(0.21950857 1.8726325 -2.8226134e-20)
(0.13872989 1.9213342 -1.2931884e-18)
(0.65206971 1.7364612 1.2016284e-18)
(0.56627821 1.7284451 0)
(1.4680715 0.036819842 4.5877115e-20)
(1.4410696 0.19725232 -3.8902207e-20)
(1.3547126 0.038435724 -7.3961839e-19)
(1.3812717 0.043452371 7.4879781e-19)
(1.4018899 0.077430675 0)
(0.95325438 1.9462879 0)
(0.82911718 1.819458 0)
(1.0260882 1.6243376 0)
(0.79451992 1.6906888 0)
(1.1501729 1.8436291 -3.2051364e-21)
(1.1342842 1.7976186 0)
(0.7624793 1.8352169 9.1325126e-21)
(0.5855533 1.8139378 0)
(0.66587119 1.7774104 -8.357771e-19)
(0.69729472 1.784527 5.6082553e-19)
(1.1433379 0.20128023 0)
(1.0860232 0.18841772 2.912913e-19)
(1.1824931 0.11319679 1.6872981e-18)
(1.146609 0.15015174 -6.0223509e-19)
(1.1377928 0.12953294 -1.9671913e-18)
(1.3184577 0.28817431 -1.6868164e-18)
(1.21985 0.35905469 -4.5182385e-20)
(1.124749 0.36289311 1.5369788e-18)
(1.2291892 0.27409963 1.4417035e-18)
(1.2281607 0.15668305 -2.235653e-18)
(1.1790443 0.24712768 2.768298e-19)
(1.092031 0.34323008 -6.5475205e-19)
(1.1518029 0.29221898 0)
(1.2829317 0.20682577 1.1028068e-18)
(1.2830084 0.22516411 0)
(1.273524 0.30359572 0)
(1.4007131 0.18051378 5.6954144e-19)
(1.2930541 0.23430943 -1.5954661e-20)
(1.2842932 0.23497298 -3.3206625e-19)
(1.3721677 0.25592703 0)
(1.3574731 0.078590271 1.1452295e-18)
(1.3440774 0.042563257 1.4762537e-18)
(1.3554256 0.090932358 -1.1023489e-18)
(1.3430753 0.07717414 -9.9839914e-19)
(1.305141 0.078125879 -1.5232224e-18)
(1.3099241 0.15937536 0)
(1.2958017 0.043702833 0)
(1.2457137 0.11381637 -9.4411036e-19)
(1.2253064 0.11072367 3.5722023e-19)
(1.3438134 0.086075495 1.3094997e-18)
(1.3378 0.14089911 -1.6247725e-18)
(1.3074626 0.14586645 1.4600234e-18)
(1.2958035 0.17371565 0)
(1.3205926 0.091781554 0)
(1.3191098 0.0848499 -6.7231412e-19)
(1.3463495 0.10541263 -1.0883952e-18)
(0.78970383 1.833711 3.2850548e-19)
(0.74465447 1.8896352 -4.3198923e-19)
(0.92891064 2.0210578 -4.3838585e-19)
(0.93173793 2.3283436 9.0853601e-20)
(1.1578725 1.9751868 -9.7109974e-19)
(1.1495169 2.1357354 8.0304892e-20)
(1.2211535 1.981047 -9.9811516e-21)
(1.0606103 2.1872253 -3.7873498e-19)
(1.0418729 2.0977594 6.4621242e-19)
(0.97941396 2.5666069 -2.5374628e-20)
(1.1074344 2.3992786 2.5973397e-20)
(1.1295709 2.4099318 0)
(0.39958856 1.3317658 -9.6552373e-20)
(-0.087468247 1.8004042 1.2924271e-19)
(0.61083204 0.3639145 7.361493e-19)
(0.36013248 0.50244374 6.5526589e-19)
(0.65721209 0.5432013 9.888987e-19)
(0.65599664 0.55673202 -1.6510753e-18)
(0.58726817 0.55264048 1.2755866e-18)
(0.57170674 0.52771774 -4.437228e-19)
(0.64856911 0.49565516 1.0893185e-18)
(1.0391023 0.34834626 -6.056609e-19)
(0.9441531 0.41993175 0)
(0.97588683 0.36573851 2.5083878e-20)
(0.7791211 0.66875881 6.0947293e-19)
(0.77578123 0.64108091 -2.1970636e-18)
(0.6450632 0.60014424 -7.6600063e-21)
(0.71313513 0.60303264 0)
(0.61897511 1.1690166 7.416117e-19)
(0.98235259 1.1237282 8.003525e-19)
(0.86502952 1.2582219 -8.9840446e-19)
(0.99056607 1.1654442 -3.3120256e-19)
(1.1920841 1.1788383 -9.5936795e-20)
(1.1314052 1.1817232 9.6341593e-20)
(1.0626271 0.83429205 -1.3476511e-18)
(1.0758718 1.0224799 3.106308e-19)
(1.1915522 1.0140229 0)
(1.1994518 0.94697528 -4.4270109e-19)
(1.215912 0.42168523 4.2676795e-19)
(1.4184071 0.40268951 6.348628e-19)
(1.3671272 0.32213439 6.9589232e-19)
(1.1837353 0.53549415 -8.6512673e-19)
(1.3403433 0.50241596 0)
(1.3379252 0.50453413 0)
(1.1447429 0.50126417 4.5282093e-20)
(1.0213976 0.39252612 0)
(1.0313539 0.39735717 7.2833727e-19)
(1.1636461 0.34322028 -3.6403957e-20)
(1.1364159 0.56316258 3.6116596e-18)
(1.0569674 0.65511713 1.0184735e-18)
(1.0679735 0.60999144 -1.0217227e-18)
(1.0039268 0.51665981 1.103231e-18)
(0.94761435 0.54624822 6.4601342e-19)
(0.91508654 0.57388713 -6.3208253e-19)
(1.3206624 0.053628614 1.2736937e-18)
(1.3462806 -0.042705441 0)
(1.3911936 0.011326158 8.3571238e-19)
(1.3060586 0.049223995 -1.8983064e-18)
(1.3643196 -0.023682784 9.1350283e-19)
(1.3822956 0.051852077 -1.929257e-18)
(1.3638861 -0.0066842741 0)
(1.3186299 -0.045849961 -4.0252198e-19)
(1.3795111 0.026355579 1.0107252e-18)
(1.3388184 -0.017051988 -5.2189802e-19)
(1.3092003 -0.047876219 3.797664e-19)
(0.039469944 2.1742403 0)
(0.05111446 2.1013013 0)
(0.0293312 2.1859717 0)
(0.041752832 2.1886549 0)
(0.10705166 2.1080026 2.8227922e-20)
(0.11166691 2.1099942 -3.8334981e-20)
(0.13756238 2.0987688 -2.7141191e-20)
(0.090790261 2.0773961 -6.3522937e-20)
(0.059414425 2.0845335 -1.2920388e-19)
(0.056029449 2.0881576 9.6258954e-20)
(0.081794319 2.1258953 -3.997768e-20)
(0.052989149 2.1363376 4.7325122e-20)
(0.02901335 2.0978782 1.5439061e-21)
(0.01420083 2.1034423 -1.0498771e-20)
(0.10886957 2.0641302 -2.2355093e-19)
(0.12219954 2.0451761 0)
(0.13687278 2.0133637 1.323437e-19)
(0.17415036 2.116704 8.2934502e-20)
(0.18963961 1.9977493 -1.0467687e-19)
(0.19762461 1.9404303 0)
(0.23120979 1.9092242 -7.0914822e-19)
(0.28840454 1.9512934 5.052928e-19)
(0.12834788 2.0087505 -2.7196171e-19)
(0.11356264 1.9764999 1.6617309e-19)
(0.096318227 1.9187211 0)
(0.0208011 2.0581695 -1.3706167e-19)
(0.019722649 2.1075247 -2.0985942e-19)
(0.00099881644 2.0321624 0)
(0.029600315 2.1100994 -5.5315576e-21)
(0.029147021 2.0620992 6.67263e-20)
(-0.010126601 2.1575613 -1.9953512e-21)
(0.018629559 2.1536648 1.3300073e-20)
(0.0081106333 2.12792 -4.1117055e-20)
(-0.011207272 2.0789831 4.0169294e-20)
(0.043055281 2.1265732 0)
(-0.018777979 2.1523367 0)
(-0.0021274745 2.1177771 2.2177511e-20)
(-0.015005247 2.1418655 -7.9183837e-21)
(-0.02529685 2.1479309 0)
(-0.02565953 2.1126574 2.0332171e-20)
(-0.037897139 2.1095011 -3.5892887e-20)
(1.3054948 0.049961298 0)
(1.3494336 0.13455816 -1.3551687e-19)
(1.3804948 -0.021416044 -8.8946997e-19)
(1.3016418 0.0056390225 0)
(1.3635515 0.035786631 0)
(1.3564499 -0.066944649 -6.9915188e-20)
(1.3166575 0.0032572079 1.5369161e-18)
(1.3176263 -0.012823038 1.8703254e-18)
(1.3173716 0.024780861 0)
(1.3388978 -0.0066647336 0)
(1.3225377 -0.020125762 9.3721137e-19)
(1.3472876 0.01936325 0)
(1.3443357 0.020734042 0)
(0.0049360658 2.1444035 0)
(-0.010117581 2.0027329 8.8019789e-21)
(-0.017905548 2.1196518 -5.5194249e-21)
(-0.025696188 2.1240567 0)
(0.0071327001 1.9848836 1.7893296e-20)
(0.049565321 2.0793514 1.5321461e-20)
(-0.0026948651 2.1465737 0)
(0.50279894 1.9666558 0)
(0.44315092 2.0460504 -3.6929372e-19)
(0.48854293 1.9790668 0)
(0.59010844 2.1127048 2.3159298e-19)
(0.62069131 2.1579931 0)
(0.56813207 2.1407925 -2.8452741e-20)
(0.74264474 1.7545529 -2.6373068e-20)
(0.71150327 1.7438251 -1.3961231e-18)
(0.76735343 1.7172557 1.7786243e-18)
(0.61630346 1.7307854 3.3170173e-19)
(0.62976612 1.7818372 0)
(0.64001351 1.7652527 0)
(0.63782228 1.7487002 0)
(0.61157995 1.7180748 -1.2327301e-18)
(0.45816097 1.8236488 -6.6909421e-19)
(0.54321538 1.7710699 -1.606144e-19)
(0.54900609 1.7789558 1.2868983e-19)
(0.45964316 1.7698228 0)
(0.53734531 1.757587 0)
(0.48150799 1.7578164 -3.60384e-19)
(0.51773268 1.7589919 0)
(0.67595569 1.7495915 0)
(0.54606605 1.6875393 -9.2773375e-19)
(0.5494787 1.4649447 -6.7863598e-20)
(0.77709089 1.8205058 0)
(0.6240141 1.8251395 1.460824e-18)
(0.92579707 1.3505149 -2.6736839e-19)
(0.97088107 1.5195079 0)
(0.92530963 1.4107476 4.3669926e-19)
(0.7019797 1.6679824 0)
(0.75592403 1.4724544 0)
(0.99930572 1.8632989 -4.5454123e-19)
(0.90083461 1.9300759 -3.4986082e-19)
(0.82022628 1.8686862 6.9193478e-19)
(0.82445227 1.840823 -2.2365351e-19)
(0.92773759 1.7909884 0)
(0.87149216 1.766073 2.9065841e-19)
(1.0837811 1.7773724 -4.7869408e-19)
(1.015613 1.7417133 -3.2949759e-20)
(0.72759952 1.838347 0)
(0.75327623 1.8591584 -2.8977542e-19)
(0.74810172 1.8476971 0)
(1.1184902 0.25931147 0)
(1.0925985 0.2096609 0)
(1.0399781 0.26601166 0)
(1.1010756 0.28134003 -1.1267223e-18)
(1.0436032 0.30823558 6.4959682e-19)
(1.209646 0.076237817 -7.0217787e-19)
(1.2405072 0.10943885 0)
(1.185251 0.096185036 3.1379126e-19)
(1.1522818 0.052279234 1.2750394e-18)
(1.1657925 0.033794918 -8.1472338e-19)
(0.92003796 2.8219314 -2.2561948e-19)
(0.86029221 2.7172569 0)
(0.93517368 2.8476222 -7.506865e-19)
(0.19330048 3.1691141 6.3935703e-19)
(0.2626974 2.8600123 -1.5766026e-19)
(0.19897801 1.534715 9.1777627e-19)
(0.29900035 1.758186 0)
(0.065491267 0.74569735 -1.7761079e-19)
(0.27925507 0.95173572 1.361015e-18)
(0.40449651 0.53588514 -2.5711997e-19)
(0.60951463 0.6753885 2.5141955e-19)
(0.74047924 0.63829549 7.6587267e-19)
(0.78769536 0.66358982 0)
(0.59275983 0.79249654 0)
(0.64687534 0.72586965 0)
(1.2312452 0.82079569 2.4775233e-19)
(1.0769247 0.68525629 -9.7298917e-19)
(1.1164829 0.76179876 8.2959125e-19)
(1.1597452 0.66306185 -7.6513892e-19)
(1.3948206 0.66301092 0)
(1.3920615 0.73647119 -2.1355152e-19)
(1.0046567 0.47347303 -1.5125214e-18)
(0.99935221 0.47548369 -1.8702975e-18)
(0.93203779 0.5403495 1.1680675e-18)
(0.96825318 0.46957644 -1.1449227e-18)
(1.0084914 0.40124654 -9.13486e-19)
(0.98093005 0.43155044 1.1308903e-18)
(1.3698048 -0.014007007 -9.536009e-19)
(1.3718655 -0.0025014869 1.9536358e-18)
(1.3379675 0.078224657 1.1957363e-18)
(1.3545904 0.062003257 -1.4275067e-18)
(1.287632 0.019247007 0)
(1.2734801 -0.0042969284 -2.4809481e-18)
(0.073318168 2.1081564 4.3227478e-20)
(0.038250557 2.0801104 0)
(0.076481376 2.1127609 2.7103521e-19)
(0.12030036 2.1205307 -2.3186516e-19)
(0.076323703 2.0219029 4.7978284e-20)
(0.060783647 2.0279346 0)
(0.088868787 2.0933042 0)
(0.025572085 2.1346812 -1.0625133e-20)
(-0.0032409849 1.9999704 9.6197986e-21)
(0.012019648 1.9909156 -2.8553135e-21)
(0.066568204 2.1236136 -1.24264e-20)
(0.081890354 2.0922504 2.1639191e-20)
(0.63687175 1.8882998 -8.7529621e-19)
(0.59890041 1.8913276 9.1959441e-19)
(0.64457745 2.0517818 -1.4590163e-19)
(0.60343109 1.9578579 3.6008708e-20)
(0.91527402 1.9846413 0)
(0.72757479 2.1187442 1.7153092e-19)
(0.80473154 2.1025684 -1.6703279e-19)
(0.69427047 2.0921101 1.4524092e-19)
(0.72017419 1.9670461 0)
(0.78425768 1.8804071 0)
(0.46560469 1.7867373 9.9280329e-19)
(0.41261561 1.7589361 1.4832682e-18)
(0.45793231 1.7588971 -1.0474887e-18)
(0.36525606 1.7724729 -1.8136033e-19)
(0.39759194 1.8020252 3.5247989e-19)
(0.28036412 1.7819587 -8.7094081e-19)
(0.83588805 1.7400953 -9.690218e-19)
(0.95368111 1.7561135 0)