/*--------------------------------*- C++ -*----------------------------------*\
  =========                 |
  \\      /  F ield         | OpenFOAM: The Open Source CFD Toolbox
   \\    /   O peration     | Website:  https://openfoam.org
    \\  /    A nd           | Version:  9
     \\/     M anipulation  |
\*---------------------------------------------------------------------------*/
FoamFile
{
    format      ascii;
    class       volScalarField;
    location    "3.5";
    object      divGradT;
}
// * * * * * * * * * * * * * * * * * * * * * * * * * * * * * * * * * * * * * //

dimensions      [0 -2 0 1 0 0 0];

internalField   nonuniform List<scalar> 10(3.3719191e-05 0.00033398894 0.00050807404 0.00099268364 0.034523409 0.09470399 0.90405172 5.8980385 -0.93913231 -256.11128);

boundaryField
{
    inlet
    {
        type            extrapolatedCalculated;
        value           uniform 3.3719191e-05;
    }
    outlet
    {
        type            extrapolatedCalculated;
        value           uniform -256.11128;
    }
    bottom
    {
        type            extrapolatedCalculated;
        value           nonuniform List<scalar> 10(3.3719191e-05 0.00033398894 0.00050807404 0.00099268364 0.034523409 0.09470399 0.90405172 5.8980385 -0.93913231 -256.11128);
    }
    top
    {
        type            extrapolatedCalculated;
        value           nonuniform List<scalar> 10(3.3719191e-05 0.00033398894 0.00050807404 0.00099268364 0.034523409 0.09470399 0.90405172 5.8980385 -0.93913231 -256.11128);
    }
    frontAndBack
    {
        type            empty;
    }
}


// ************************************************************************* //
