/*--------------------------------*- C++ -*----------------------------------*\
  =========                 |
  \\      /  F ield         | OpenFOAM: The Open Source CFD Toolbox
   \\    /   O peration     | Website:  https://openfoam.org
    \\  /    A nd           | Version:  9
     \\/     M anipulation  |
\*---------------------------------------------------------------------------*/
FoamFile
{
    format      ascii;
    class       surfaceScalarField;
    location    "12";
    object      phi;
}
// * * * * * * * * * * * * * * * * * * * * * * * * * * * * * * * * * * * * * //

dimensions      [0 3 -1 0 0 0 0];

internalField   nonuniform List<scalar> 
1300
(
1.7582594
5.6264299
-7.4587979
1.7582594
-7.2942728
5.6264299
-6.2821473
6.2821473
-1.9286209
1.9286209
3.7331167
3.6515726
-5.4365121
5.4365121
-5.6740097
5.6740097
-3.784079
3.784079
-5.2376928
5.2376928
-5.055729
5.055729
4.7884023
-4.7884023
-5.9478415
5.9478415
-2.5766009
2.5766009
-5.6342647
5.6342647
1.4697925
-1.4697925
-6.0898419
6.0898419
-0.6575199
0.6575199
-0.58300726
5.1544816
1.1752521
1.1752521
-3.4462373
3.4462373
-4.8281541
4.8281541
6.2145184
-6.2145184
11.300543
-11.300543
-3.8417448
-4.0495837
1.6059838
-9.7171901
-5.688289
-5.688289
-8.4382729
8.4382729
-2.8118431
2.8145868
2.7637378
-2.7637378
-1.7971013
1.7971013
-6.2709583
-0.01118889
-6.2709583
6.2258242
0.056323079
6.2258242
-2.1057668
0.17714589
-2.1057668
5.5897358
-5.5897358
1.7101374
0.21848349
1.7101373
1.6476829
-1.6476829
-3.732875
7.4659917
3.6518143
-3.0611326
8.2156142
-3.3858184
7.037391
-6.112898
6.112898
-5.4102598
-0.026252253
-5.4102598
5.4854407
-0.048928538
5.4854407
-6.3305573
6.3305573
-5.6224946
-0.05151511
-5.6224946
5.7539341
-0.079924395
5.7539342
4.0077944
-4.0077944
-3.7916448
0.0075658526
-3.7916448
3.7279766
0.056102404
3.7279766
0.35898469
5.2674453
-5.9854145
8.8000013
-5.2674454
0.029752583
5.2000364
0.037656416
5.2000364
-5.0931044
0.037375383
-5.0931044
5.0111639
0.044565073
5.0111639
4.8916999
-0.10329754
4.8916998
-4.8840163
0.095613957
-4.8840163
-3.9559528
-4.0197296
-6.062136
0.11429446
-6.062136
-2.6300391
0.053438238
-2.6300391
2.4959944
0.080606489
2.4959944
-4.4243184
4.4243184
-5.9071788
0.27291403
-5.9071788
1.3957602
0.074032302
1.3957602
2.0144639
2.5570104
3.7727233
-3.7727233
2.3029309
-6.0345641
-0.055277762
-6.0345641
-6.147058
-5.1534846
6.147058
-0.05721609
-1.1087638
0.45124393
-1.1087638
1.2566149
-0.081362764
1.2566149
3.6404827
0.087493835
-3.6404827
0.19424543
4.682117
-4.682117
2.5766411
0.86959624
2.5766411
-5.5838279
5.5838279
4.9444581
0.066705808
-4.9444581
0.11630404
6.1545453
0.05997315
6.1545453
-6.1928013
-0.021717145
-6.1928013
4.0600133
-8.109597
-4.0464794
5.8221017
0.12573978
-5.8221017
0.13381276
3.1624671
-0.39872935
3.1624671
-2.6354563
2.6354563
-2.389635
-0.37410273
-2.389635
-2.1269175
0.32981623
-2.1269175
1.536174
0.26092726
1.536174
-6.0541559
-0.21680249
-6.0541559
-6.0907533
0.1835745
6.0907531
0.13507108
1.5085572
-1.5085572
-2.2598264
0.15405957
-2.2598264
-5.7834292
-0.27072665
5.7834292
-0.19369341
-5.4944959
-0.095239865
-5.4944959
-2.0038355
-0.38579959
2.0038355
-0.35615259
1.397648
-0.14103313
-1.397648
-0.25003487
-3.0553203
5.6123307
-3.3916307
7.043445
-5.8708981
-0.24199982
-5.8708982
6.2644592
-0.15156125
6.2644592
5.5059507
0.12831407
-5.5059507
0.09569083
5.5344902
-0.049049499
5.5344902
-6.359892
0.029334774
-6.359892
6.3070825
0.023474805
6.3070825
5.5772181
-0.0427279
-5.5772181
-0.045276485
5.8499494
-0.096015182
5.8499494
4.1335464
-0.12575201
4.1335464
-3.8408127
-0.1669817
-3.8408127
3.4090171
-3.4090171
3.682485
-0.27346795
-3.682485
-0.10915978
-11.148708
11.12699
-0.035825301
-11.112882
5.1642111
5.1642111
4.0987517
0.79294813
4.0987517
-5.0669691
0.18295283
-5.0669691
3.9708402
-8.0173196
4.02288
-7.9788328
4.0182993
-13.735489
3.9786669
-7.9983965
6.2342638
-6.2342638
6.1596961
0.07456768
-6.1596962
0.097560191
-2.6274908
-0.0025483396
-2.6274908
-3.8821539
-0.54216453
-3.8821539
4.9338191
-0.50950062
4.933819
-1.8824936
1.8824936
-1.5704344
-0.31205921
1.5704344
-0.17467426
5.949105
-0.099155625
-5.9491051
-0.085459049
1.437392
0.27274532
-1.437392
0.32862814
4.9605449
-0.27842784
4.9605448
-4.4219325
-0.26018455
-4.4219325
-2.5925305
-0.034960281
2.5925305
-0.015889474
-5.8252495
0.24142164
-5.8252495
-11.213429
0.10054691
-11.175773
-6.0922544
-6.0922544
2.3460188
11.14602
-3.5493643
-0.2914484
3.5493644
-0.38689725
2.2604108
-0.37791717
-2.2604108
-0.37504551
-3.0443306
-0.36468643
3.0443307
-0.40887432
-2.5575585
0.43064096
-2.5575585
-1.3075838
1.3075838
-1.3703874
0.062803563
1.3703874
0.16578661
1.8478708
-0.33931363
1.8478709
2.3883262
0.10766821
-2.3883261
0.12849977
-5.3225634
-0.17193252
-5.3225634
6.3504076
-0.085948431
6.3504076
-4.2533616
-0.16857091
4.2533616
-0.11981512
-0.035332973
11.162323
-5.1288781
0.035773729
5.1288781
-11.222297
11.25807
-3.1429786
0.58542017
3.1429787
0.955773
5.3216874
0.2621405
-5.3216874
0.25471823
6.2799488
0.027133696
-6.2799488
0.04568509
-3.3586663
-0.52348765
-3.3586663
-5.4464751
-0.42442307
5.4464753
-0.51265625
-11.476547
-0.19275954
11.669307
-11.431982
6.0180091
0.13653622
-6.0180091
11.394607
-1.3317081
-0.17684905
1.3317081
-0.024124308
2.2625291
-0.41465828
2.2625291
5.1884674
-0.22792257
-5.1884674
-0.13409597
-6.3743041
0.014412106
6.3743042
-0.023896603
-2.7811635
-0.57750272
2.7811636
-0.51863441
-5.4251388
5.343776
2.7904754
-4.0334547
-4.0761423
-9.1869393
2.5712166
3.041114
4.8741475
-8.4793437
-5.2561457
-8.3455309
7.2914645
-7.0367463
-9.5646914
9.4613938
9.930984
-10.026224
-7.4986152
7.3239409
8.1930376
-8.5491902
3.7543619
3.7116298
11.282153
-11.308405
-14.497261
14.255261
12.155543
-12.207058
13.176742
-13.147407
-14.96521
14.992344
-7.6721944
7.6797603
-8.6889516
8.5219699
-9.0360629
8.9162477
-3.9350705
-4.0437623
10.909329
-10.795035
14.082393
-14.137671
-10.931517
11.204431
4.1768649
1.1669112
4.0358318
-3.6089189
7.3632809
-3.4284721
6.2189475
4.0358846
-7.9709551
3.9814349
-8.0575773
7.2910208
6.7913724
-7.2338048
-1.9531345
-7.5652609
7.1665316
-7.4939607
7.0850864
12.048326
-12.059515
-3.5867485
7.2983783
-3.4566965
6.4978106
-3.7367066
-3.7619086
3.6626743
1.2114732
6.6975868
4.2117422
-6.8233266
-1.5222043
-10.121679
9.8937561
-10.597697
10.337512
-0.48667791
5.8058101
-5.3191321
4.3414761
-1.4645334
7.2703435
5.8269311
6.0098839
5.8729459
-5.6108054
1.1638004
-6.4829326
-6.3666285
-3.5018333
3.6558928
3.4975882
-3.2791048
7.8358023
2.0951817
7.6421089
-7.2190353
-2.8071885
-7.3909678
4.6706161
2.6533248
4.3585569
5.1192886
3.073749
4.733489
5.8621933
-5.8951231
0.032929796
-5.3506304
11.212824
1.4032551
-9.1125389
-7.9010657
7.6994635
3.5826896
7.6505349
-7.4325762
-3.8758291
-7.3368854
-9.0517622
-5.4454982
-9.4761854
8.9603462
5.2949144
8.8087849
-10.095068
10.071171
8.1164975
4.0390453
8.0365731
-7.9739861
-4.2330717
-8.0192626
12.551578
-2.999172
-9.5524062
-8.4492591
-6.5159511
8.4257843
4.7509574
9.0882194
5.9041247
9.1339045
4.1851749
8.3664032
-8.9361323
2.4201813
-4.9476355
-2.724559
-5.0567952
4.9934279
2.6863323
5.0495303
-5.1413435
-3.5476081
-5.4327919
-5.4792766
-3.5567862
5.6050286
2.9169413
-5.7123233
-4.8853732
5.8808942
3.0353535
3.6652959
-8.9214416
4.3331006
-8.3768629
-7.5981309
-3.1969036
-7.5005707
4.9135015
3.1400818
-8.0535833
-3.0574536
13.068165
-6.2767929
11.115031
-8.7438767
-5.3937942
-8.8293357
-8.8321467
-2.09937
-8.6485721
-9.615567
9.0920793
-9.3860031
8.8765025
14.934876
-7.2262178
-7.7086585
-4.7383944
-3.8107957
4.9884293
-0.95259756
-7.1730901
7.2060199
0.19019079
6.4091383
7.5760495
6.6234519
-4.2506943
-3.2432663
-4.6257398
4.9006297
2.1844567
4.5359432
9.1071912
2.9411349
9.1635143
-8.5489547
-3.5105602
-8.7657572
9.596536
-9.2667198
3.9375294
-3.9724897
6.8997104
3.4378016
-6.6212825
-3.5003962
8.0165255
-4.0233521
-3.9931733
-12.118102
10.723868
1.394234
-4.8477586
-0.50628247
0.15123742
-5.6043548
-3.9603366
5.5087408
0.5011431
11.225011
7.2646744
-5.5204308
5.7618524
6.1488757
6.2155815
-0.15104701
6.1261367
-5.5407165
6.9466946
-2.8998984
-4.0467962
6.9689365
-7.2396631
-1.7968207
-7.0368447
5.2400239
0.40244576
2.4610289
-2.009785
-2.7771842
-0.72464914
-2.6486844
2.1052532
1.392335
2.3779985
1.2942799
2.3616129
-3.9437894
0.740346
3.2034434
-2.6495096
-2.5387588
-4.739724
-1.3415908
6.0813147
7.244823
2.6489332
-7.1107269
-0.28024088
3.6684163
-3.5878098
-1.0679463
-3.6717777
2.7368099
-3.8047562
-4.6511408
-2.4561542
7.107295
-3.5961905
-1.0295494
3.9741077
0.38444925
-4.2945776
-3.2706833
4.6686804
0.064808616
-4.6615162
10.000411
-5.3388946
-7.9047825
4.6131473
6.5996764
7.2664721
-8.9649701
4.5458701
4.4191
-2.3652937
6.8153395
0.83519543
6.76629
-9.1039314
5.2281022
7.6354884
3.5689423
-7.7638025
0.42691714
-8.6770144
12.007126
-9.2395601
-2.7675654
7.1812679
4.8258573
7.4364865
7.4983896
-6.5831401
14.019627
-0.02268189
-9.2168785
8.6996966
-5.130754
5.5306796
-10.661434
-13.029069
3.8121907
-9.3383876
10.521968
-1.1835805
-2.8264471
-7.2686207
12.164835
-1.4542157
-10.710619
7.3545692
-6.6015253
-6.33851
12.940035
-9.6006973
10.571582
-3.3801637
-7.1914179
-8.4003326
-4.7470743
8.3859205
1.6852508
-11.923812
14.343993
-3.5574083
7.0830426
0.95353048
6.9870275
4.988147
-7.0804086
2.0922617
4.6125504
-7.992714
3.7382736
-10.818682
-5.8657256
11.468685
-5.6029591
-9.0626292
-8.1125355
-0.95009374
2.4294258
11.914567
-8.3335505
6.4046338
1.9289167
4.3370986
0.19884462
-4.0636306
-0.99316458
0.50138242
5.9588491
-6.4602315
5.5509128
5.6384066
4.5299972
1.4288518
4.909164
2.2573676
-4.5222667
-0.91052515
-5.4240733
1.8672871
-2.507132
-4.8757543
6.7430414
-5.419011
0.54325666
-3.4529055
-4.950096
8.4030015
-6.1774645
5.0966497
4.9037611
7.2811064
-6.9071133
1.9570173
-3.5946807
-3.3124326
3.4619937
-5.9691257
2.6034609
4.1395805
5.6388144
0.75344118
5.8241596
5.6445251
-8.9642414
0.58737854
9.8562674
-8.3340631
2.039315
7.0945895
-8.4439489
0.33141341
-7.1691573
1.3185123
-7.5953052
-6.735071
6.409966
-8.5093359
-4.2514677
8.1607282
1.0027861
-8.2957994
-0.35277279
-6.5618532
-3.0537138
-7.1393559
-2.8588649
-6.5271382
-9.4420052
-2.0227765
-7.4192286
7.0693029
-6.6248071
-2.8513783
7.1374634
1.739039
-8.0774486
7.9005995
-8.2288272
7.8141689
0.28566554
6.9203543
6.9091174
3.0983217
-4.5550607
7.6533824
-6.6824342
9.6235691
-11.142175
4.4597411
5.2707128
-8.781273
-5.8714625
5.4963805
4.1001555
5.7573078
9.3132118
-10.728607
1.4153951
-10.838866
12.814886
-1.9760196
-16.956742
6.1178765
-7.6435304
3.6188366
0.31869281
3.6162883
0.90559322
3.2205142
-4.1261074
-3.0668965
-3.082786
-2.9908904
-4.4389008
7.4297911
1.4324151
-4.4126479
2.9802328
-4.5677416
6.0001566
-0.13341444
-4.2792335
6.9664795
-3.7459654
7.2851723
-4.701156
2.5840163
4.2705601
7.2701239
-2.9995637
5.6557474
-2.2179458
2.2835496
-5.2831134
-2.1553512
-4.0835762
6.7699085
-4.3194253
4.862682
-0.30967707
5.172359
-5.3334227
1.3100705
-0.80342546
4.8349812
5.0292266
5.5001434
-4.0712916
3.7761433
-5.9940891
-1.5069701
-5.2406479
-1.1010674
-0.66607982
-4.908443
5.5745228
6.596858
-7.2629378
-5.4023603
9.7907988
-4.3884386
8.1123025
-5.5828406
-2.5294619
-4.5862215
-4.6804983
4.1555806
1.9705561
10.082859
0.27224682
-5.8550875
-5.2684698
-4.3126968
4.3225262
2.6241685
-2.5740926
3.9683266
2.4228552
0.038173719
0.85724103
1.5207575
2.5291331
-1.6718921
0.16039943
2.3687337
-1.8493856
2.6742651
0.99415125
-2.7819332
0.13324882
-1.8420245
4.5788345
1.3614188
-2.7537538
1.0818617
1.6388603
-4.5387588
6.2498266
-3.0335164
-3.2163102
7.888687
1.5676773
-4.6011937
5.4691674
-5.0667216
3.0093899
-4.3509806
-1.5918038
-6.6585254
-4.5633437
-3.1967962
6.177029
-4.2329949
6.8819281
1.5258882
-6.6016872
8.1275754
-4.6273866
2.1712324
-4.0387029
5.0328541
-1.37277
-2.6659329
3.579294
3.528001
-3.7377142
0.065936538
-0.15842027
3.0609078
-3.219328
-0.74384848
-3.393358
-7.0638094
7.128618
-3.663322
8.209192
3.9900605
-3.1356895
11.344882
3.3140747
-6.4497642
-4.5907078
-5.6202572
-2.0306642
5.2358079
-1.2358348
-6.7834278
-8.4272528
6.8261556
-0.059865613
-9.7856943
11.906363
-2.120669
-6.2030047
0.97490246
6.2063655
-9.1543988
1.1616847
-5.4161251
6.4902382
7.3254337
7.2655681
-11.337761
0.62714232
-6.0428471
2.4635671
-8.5064142
7.2894242
-5.0506468
8.8628377
-10.708019
7.8566404
-8.9689799
6.0952722
-2.4111421
6.6233243
-4.5310627
2.9290818
-7.6761562
-5.9909054
8.413042
-4.3739966
9.3665725
-5.0086304
14.375203
-8.5660387
8.4211956
5.9540073
-1.7604593
-7.0688765
-8.240191
6.4797318
0.18100459
7.168032
6.8486179
-4.5912503
5.9380927
3.5786411
-7.1733218
-2.3904845
-10.176432
3.0031106
-5.2726714
-2.4477364
5.4508471
4.83337
5.0322146
2.1384145
-4.03905
8.032846
-8.9829397
-2.4298869
-4.3051841
8.1189427
-1.6392109
4.8701566
-9.1753407
-2.7251485
5.6504475
-0.23979885
-5.4106487
1.5757703
-5.827238
1.6830308
-7.5102686
6.8263053
-7.1790781
2.3866082
-10.030139
-5.6908403
-5.7149646
-2.5250137
-5.7038135
-7.9753489
5.4503352
-1.8574725
6.0431271
-8.8427892
8.6029906
-3.9720963
9.4224314
-5.941602
-1.1977539
6.4602365
1.3539325
10.776364
0.2626502
-6.1341127
-2.5358513
5.329835
-2.7939836
1.7866748
-4.6457928
0.68404214
3.3518764
4.5368106
-8.5919003
-0.18937272
-6.3234854
-4.1633882
8.2635437
5.6274106
12.224269
1.4956616
9.4099083
-1.1463646
10.90557
4.6109432
4.7767298
-3.9759984
5.3913935
1.5985243
6.0582655
-1.1394168
3.7234331
2.4768714
2.5303097
1.0575002
3.0867797
1.9424469
4.3968502
0.27074285
-2.8120431
4.7384628
-9.0511596
-1.1166247
-8.2582115
1.2031823
5.9259227
-4.7227404
4.2539537
-1.6297852
1.4599701
0.25458879
-2.6016417
2.3470529
-3.7922074
-2.563468
-0.19473439
-2.0378701
3.1197317
2.5409644
-2.9249973
-0.86721006
0.41108028
-4.974424
3.9399003
-3.8739638
-0.34596282
7.7816125
-3.6093722
0.39004415
-1.4381399
-3.0033139
-3.727963
3.5947142
10.714924
0.62995801
5.3760289
7.758576
4.4878928
-0.10335752
6.3004738
-7.4840544
-4.5182084
-6.8569121
0.43251207
6.6388775
2.5136896
9.4008775
8.467697
6.8284861
-2.3468546
-11.329794
8.3728976
-2.9815041
6.3968782
-0.98622961
-6.5240388
6.493967
3.1296021
-7.4967532
0.31767523
-6.2063635
-9.1878676
-0.30416933
8.9071599
-10.472195
9.2744411
6.2207273
1.1985014
-4.8232555
-0.89170905
4.7604519
0.016277863
10.921848
-1.2109981
-7.2275283
8.4385264
-4.7149245
3.5982999
1.0690713
2.8992554
3.4161242
1.7863389
-5.4411895
-10.16393
-2.4105435
-2.1282153
-5.6268538
0.45446096
-2.9954253
6.3378019
-2.7395021
3.8083399
5.6990243
7.1589944
-2.0985575
-5.1643803
6.4869961
-2.6786562
4.4803382
)
;

boundaryField
{
    wall-4
    {
        type            calculated;
        value           uniform 0;
    }
    velocity-inlet-5
    {
        type            calculated;
        value           nonuniform List<scalar> 8(-1.7582594 -1.7582594 -7.3846893 -4.5714743 -7.3846893 -6.446951 -4.5714743 -6.446951);
    }
    velocity-inlet-6
    {
        type            calculated;
        value           uniform -5.6264299;
    }
    pressure-outlet-7
    {
        type            calculated;
        value           nonuniform List<scalar> 8(7.4587979 7.2942728 7.8913285 8.1112062 7.9756824 8.1064927 7.9937202 7.9969662);
    }
    wall-8
    {
        type            calculated;
        value           uniform 0;
    }
    frontAndBackPlanes
    {
        type            empty;
        value           nonuniform List<scalar> 0();
    }
}


// ************************************************************************* //
