/*--------------------------------*- C++ -*----------------------------------*\
  =========                 |
  \\      /  F ield         | OpenFOAM: The Open Source CFD Toolbox
   \\    /   O peration     | Website:  https://openfoam.org
    \\  /    A nd           | Version:  9
     \\/     M anipulation  |
\*---------------------------------------------------------------------------*/
FoamFile
{
    format      ascii;
    class       volVectorField;
    location    "12";
    object      U;
}
// * * * * * * * * * * * * * * * * * * * * * * * * * * * * * * * * * * * * * //

dimensions      [0 1 -1 0 0 0 0];

internalField   nonuniform List<vector> 
918
(
(0.41154531 0.0015758578 0)
(0.009045474 2.9576281 0)
(-0.0015174415 1.9819753 0)
(0.28955109 -0.0084602826 0)
(-0.0034290083 1.9425565 5.3224498e-21)
(-0.011744239 2.9485767 -3.1004494e-18)
(1.113012 1.7016526 9.8248418e-19)
(0.62396634 0.35318168 -2.3607425e-20)
(1.9886416 0.0032685339 0)
(-0.00041703667 1.6048436 0)
(-0.0096909859 1.6716938 0)
(1.129225 0.0034477286 0)
(0.01284344 2.9163321 0)
(0.013920292 2.7899022 0)
(0.10409561 3.2054364 5.3955835e-19)
(-0.00262235 1.8704473 -1.8060143e-20)
(0.79639184 0.19616929 1.5250808e-18)
(0.20412525 1.7797256 7.4234512e-19)
(0.34588394 0.0012949781 0)
(-0.0084363926 1.8183679 0)
(0.19749242 0.35643505 -1.2579103e-18)
(1.041208 -0.023130759 0)
(0.54587963 -0.029500092 0)
(0.23500071 -0.00098560652 0)
(1.0250422 0.020255844 0)
(0.028009901 2.5983213 0)
(-0.0099062537 2.9060899 1.1284944e-18)
(-0.010053941 2.0060531 0)
(-0.012270975 2.1051764 0)
(-0.0070405761 2.0034755 0)
(0.0029481581 2.16148 0)
(-0.0015456593 1.9626934 -4.1696867e-21)
(-0.0043444799 1.8669464 0)
(-0.018160773 2.9813296 -1.1483618e-22)
(-0.01837283 3.0070251 2.4071514e-18)
(0.00086219579 3.0015946 0)
(0.78431408 0.047851953 0)
(0.44284115 0.91984383 1.6204052e-19)
(1.2043395 1.6672025 -1.2025042e-18)
(1.283353 1.5606162 1.2476903e-18)
(1.0140624 1.7910519 -2.2068231e-19)
(0.90231796 1.8028407 1.2761067e-18)
(0.72411138 0.39184595 2.2959818e-20)
(0.66373217 0.32571917 0)
(1.5765404 0.89455842 0)
(0.67136152 0.41530278 1.0610414e-19)
(0.57208722 0.36629424 -1.1053407e-19)
(0.37118011 0.037371556 0)
(1.9884889 -0.00031575767 0)
(1.9886407 -0.0036139241 0)
(1.3710264 -0.0011817784 0)
(1.8655673 0.006904157 0)
(1.7366454 0.0042881712 0)
(0.022782207 1.9523788 -6.5871215e-19)
(0.0028311601 1.7320616 0)
(0.017481765 1.5968017 0)
(-0.0082311155 1.7602568 0)
(-0.0021914997 1.6053823 0)
(-0.0032721477 1.9268228 0)
(-0.0082761227 1.8106604 0)
(-0.0038677599 1.6562658 0)
(-0.015946469 1.8365888 0)
(-0.012264171 1.6932734 0)
(1.200638 0.013946545 0)
(1.2030356 0.0022873896 0)
(1.13217 -0.0037893975 0)
(1.1940896 0.0095315655 0)
(1.1119545 0.0083687777 0)
(0.016739537 3.0145151 1.1839501e-18)
(0.012392801 3.0113667 0)
(0.0077300414 3.0035815 0)
(0.013335459 3.0004841 1.2584555e-23)
(0.010557791 2.947631 -1.6908923e-18)
(0.016849193 2.9848861 0)
(0.013442501 2.8938047 0)
(0.017910536 2.9235354 2.6710322e-24)
(0.01391059 2.8178372 0)
(0.018289647 2.9094544 0)
(0.011621565 2.7518221 0)
(0.25573553 3.6725875 0)
(0.18211194 3.6103994 0)
(0.13892205 3.3381976 -5.0495101e-19)
(0.052586142 3.0243563 0)
(-0.0090741555 2.1262371 0)
(-0.0055037602 1.9751017 1.7810277e-20)
(-0.0046209396 1.8814335 -2.8724697e-20)
(0.90763774 0.20500474 -5.2550587e-19)
(0.83166332 0.15073343 -5.0888429e-19)
(0.86935825 0.24951825 -1.5761378e-18)
(0.763808 0.23208061 -1.0450349e-18)
(0.20869481 1.3905952 0)
(0.32465522 1.8684207 -8.0614374e-19)
(0.42693031 1.8550758 1.3406788e-18)
(0.56602685 0.023986628 0)
(0.28744488 0.0053490046 0)
(1.2190546 -0.0021188635 0)
(0.73993389 -0.036737639 0)
(0.65571372 0.016644838 -2.0444043e-18)
(0.64824972 -0.02763187 1.6215217e-18)
(-0.010193279 1.920167 0)
(-0.0082185741 1.8026093 0)
(-0.014486022 2.0133501 0)
(-0.012314798 1.943831 0)
(-0.0065177064 1.8332279 0)
(0.31691378 0.41145475 3.8168084e-19)
(0.38224635 0.35695827 0)
(0.52137337 0.030456128 0)
(0.23357155 0.020479909 0)
(1.1684615 0.014898981 0)
(1.1297991 0.025715257 0)
(1.0876473 0.011642641 0)
(1.3985834 0.042000205 0)
(1.0594574 0.045027785 0)
(0.91617141 0.042069986 2.1374232e-18)
(0.0033340697 2.8661983 9.2905222e-19)
(0.023267491 2.8971211 0)
(0.040968597 2.8688338 0)
(0.016999393 2.6963744 0)
(-0.010243297 2.9859097 1.0853674e-18)
(-0.0089394122 2.8913038 0)
(-0.011689598 2.9908004 -3.3445437e-18)
(-0.0095725855 2.9159524 1.1461252e-18)
(-0.0052985307 2.1717083 0)
(-0.0019917842 2.1614776 0)
(-0.003019861 1.9707996 -4.066836e-22)
(-0.0037088064 1.9567538 0)
(-0.0037625633 1.8622414 0)
(0.97530332 0.077911843 0)
(0.91649118 0.046969794 0)
(0.7431446 -0.051175065 0)
(0.86429423 0.073384529 0)
(0.65312356 0.052486684 0)
(0.5285197 1.1026086 -2.0316347e-19)
(0.55968637 1.1397956 0)
(0.42725425 0.91503609 3.0004299e-20)
(0.32684844 0.68385492 0)
(1.3347328 1.4845175 -3.5233603e-19)
(1.3969748 1.3373619 6.9358145e-19)
(0.55496702 1.8933771 0)
(0.79575199 1.86975 0)
(0.66978946 1.8540794 0)
(0.17107324 0.27063431 -3.2841579e-19)
(0.76498816 0.35917052 0)
(0.6984015 0.29727492 2.9672864e-19)
(1.4454069 1.2628992 0)
(1.5368228 1.0358877 0)
(1.4916293 1.1097018 -5.5471413e-19)
(1.6196541 0.82030409 0)
(1.6500022 0.6977243 9.8032856e-20)
(0.77449906 0.086314357 0)
(0.68530249 0.089083915 0)
(0.50416503 0.05557202 0)
(0.55785858 0.038204335 0)
(0.60847928 0.05912835 0)
(0.28247567 0.022572982 0)
(1.4978295 -0.0036095878 0)
(1.8700685 -0.0040373885 0)
(1.732149 -0.00062763503 0)
(0.034344066 2.0646485 3.5682224e-19)
(0.043145273 1.9086576 0)
(0.015057061 2.0895525 5.7857031e-19)
(0.0075236275 1.9663182 -4.93922e-19)
(0.12806816 1.7876697 -6.1100634e-19)
(0.027285551 1.7346692 0)
(0.063380092 1.6539903 0)
(-0.0067088341 1.7790748 0)
(-0.0025769808 1.6206527 0)
(-0.0098425904 2.0230647 -1.3863834e-21)
(-0.0064907515 1.9440274 0)
(-0.0042051228 2.0116299 -6.8170334e-20)
(-0.0028278073 1.9150616 1.2942658e-19)
(-0.006294065 1.7929788 0)
(-0.0063006289 1.801463 0)
(-0.0028181648 1.6360086 0)
(-0.017996253 1.8609789 0)
(-0.012354738 1.7287738 0)
(1.2876365 0.020288885 0)
(1.2392972 0.010718527 0)
(1.2438094 0.028050623 0)
(1.1477903 0.024049689 0)
(1.0065526 -0.034738158 0)
(1.1345864 -0.04377408 0)
(1.1910477 -0.017290843 0)
(1.096428 -0.018959386 0)
(0.0037961058 3.0718832 -1.0049361e-20)
(0.010829649 3.0616946 0)
(0.016183841 2.9687846 0)
(0.013264738 2.8676633 0)
(0.73892504 4.2676914 0)
(1.2435085 3.3261031 9.5875378e-19)
(0.075820102 3.1526011 0)
(0.031595572 2.9209875 0)
(-0.0086384242 2.1359223 0)
(-0.01017231 2.1261249 0)
(-0.0091581911 2.1309606 0)
(-0.0030366897 2.1446339 2.5968837e-21)
(-0.0076882219 2.1311375 0)
(-0.0042898854 2.1320174 0)
(-0.0016203095 1.8980074 4.2482482e-21)
(-0.0037328693 1.9964063 3.9657512e-20)
(-0.005235246 1.9864764 2.9325484e-20)
(-0.0036237447 1.889579 0)
(0.93765766 0.14931434 7.8368047e-19)
(0.85903164 0.1042509 -7.6580798e-19)
(0.29806642 1.7015032 0)
(0.2525031 1.1868471 -3.4323827e-19)
(0.21842603 1.8114963 -9.9737353e-19)
(0.14642809 1.5663146 1.0007677e-18)
(0.46787648 -0.048389448 0)
(0.65639326 -0.079615979 0)
(0.59470557 -0.046397638 0)
(0.34461004 -0.034334697 0)
(-0.017839455 1.8849504 0)
(-0.014859221 1.9046085 0)
(-0.010526822 1.7671421 0)
(0.60177416 0.43277579 9.7398408e-19)
(0.4946933 0.4295868 -1.182236e-18)
(0.49051334 0.36954645 0)
(1.558774 0.10658482 2.9296492e-20)
(1.5457152 0.11475565 0)
(1.434699 0.048779544 0)
(1.3255404 0.022358911 0)
(0.95568851 0.10252039 0)
(0.98299735 0.069618012 -3.4380907e-18)
(0.87560321 0.069892727 1.3062957e-18)
(0.0045926254 2.9886286 9.5359276e-19)
(-0.0024702065 2.8686982 4.916032e-20)
(0.0038643705 3.0538474 -2.11128e-20)
(0.012759029 3.0473268 7.6005922e-19)
(-0.0093705007 2.9952663 3.7324956e-20)
(-0.0083855966 2.936215 -1.4996682e-22)
(-0.013149411 3.0201617 -7.0573846e-19)
(0.0012218875 3.0231778 5.0867741e-19)
(0.0066820863 3.0397561 -7.6060645e-19)
(1.1797074 0.049581101 0)
(1.0838284 0.067751517 0)
(1.0489114 0.037622305 0)
(0.73122337 -0.07655556 0)
(0.82311734 -0.074146186 0)
(0.61668389 -0.046436837 0)
(1.0434978 -0.064083908 0)
(0.94033372 -0.079953664 0)
(0.8797528 -0.0463016 0)
(0.7137091 1.3917561 9.3855492e-20)
(0.78186569 1.4748793 0)
(0.1774051 0.37598462 7.4082471e-20)
(0.36202841 0.8057388 5.4569938e-19)
(0.38086691 0.82565829 -3.0973993e-19)
(0.23950169 0.49543333 5.9310133e-19)
(0.46149015 1.0241424 1.697054e-18)
(0.19196483 0.3691773 4.0770619e-19)
(0.83509372 0.2875034 1.1158259e-18)
(0.80071868 0.32442366 2.7772152e-19)
(0.7298875 0.26396874 5.6040075e-19)
(1.6552469 0.60860114 2.4989041e-19)
(1.6692115 0.47454025 2.4470926e-19)
(0.0026807622 2.0876736 2.284804e-19)
(-0.00027190636 1.9740933 0)
(1.3684162 0.030317449 0)
(1.3228955 0.019276254 0)
(1.2757188 0.013439627 0)
(0.010134226 3.0770538 0)
(0.017065823 2.9385551 1.4732716e-18)
(0.016577946 2.9536385 0)
(0.013530858 2.8432328 -1.4706611e-18)
(0.0097982533 3.0917029 3.3557197e-19)
(0.0040093569 3.0886587 0)
(0.87302528 1.7671983 -1.5408403e-19)
(1.1416186 2.3850182 2.3181373e-19)
(0.85253475 1.8853782 -1.0038015e-18)
(0.016956591 3.0053481 -8.5258161e-19)
(0.03893716 3.0507445 0)
(0.014195988 2.882356 0)
(-0.0033225801 1.998951 -1.0927988e-20)
(-0.0012825528 2.0006116 -9.0030389e-20)
(-0.00040199375 1.9100742 -4.9315007e-21)
(0.36783785 1.5805917 1.0583498e-18)
(0.27114217 0.97118882 -7.2906649e-19)
(0.071472767 2.0171584 6.4005033e-19)
(0.13626439 1.9203146 -7.987439e-19)
(0.077941735 1.757029 1.1057607e-19)
(0.015828941 3.1134775 -2.2057237e-18)
(0.018049385 3.1196694 2.4967919e-18)
(-0.0081272635 2.9807955 1.0285038e-18)
(-0.0042084767 2.9787582 -9.9832551e-19)
(-0.0071719486 2.8776475 -1.0476858e-18)
(0.0052927738 3.1054074 -2.6055723e-18)
(0.010256901 3.104414 2.5866283e-18)
(0.40438334 0.89094179 0)
(0.34875926 0.82847049 -1.2731774e-18)
(0.13893543 0.30189124 5.6591967e-19)
(0.45991953 1.1538442 1.1431251e-18)
(0.2294728 0.50390118 -1.7757643e-18)
(1.6599819 0.21940786 4.8074595e-20)
(1.6665626 0.39013295 0)
(1.6528191 0.26419046 5.7204226e-20)
(-0.0080887052 2.0500556 -1.8297011e-21)
(-0.0052535863 2.0693437 0)
(-0.003250938 1.963299 0)
(0.43958185 1.4695522 -3.6291038e-19)
(0.47618249 1.332091 -8.2572218e-19)
(0.24759663 0.69308867 1.4594399e-18)
(1.2270158 0.012523174 0)
(1.3263718 0.006791989 3.2946904e-19)
(-0.0091505809 2.1568721 0)
(-0.015014577 2.1772164 0)
(1.5138618 -0.0075865062 -2.2893453e-21)
(1.1095998 0.014940331 7.06665e-19)
(-0.0025201871 2.1502315 -3.3946849e-21)
(-0.0021812298 2.1508718 0)
(0.071461758 3.1910313 6.3627002e-19)
(0.55094262 3.5790638 0)
(1.4677095 0.88664078 -5.0725355e-20)
(1.3019669 -0.038384817 3.3146839e-20)
(1.3190775 0.08199904 0)
(1.9962247 0.0034927783 4.1880267e-21)
(-0.026909206 1.9637837 0)
(0.0012252149 2.3955262 0)
(-0.022226276 2.1377045 0)
(-0.03269076 2.1926919 9.9056659e-20)
(-0.0092547541 2.168016 4.8820749e-20)
(1.3339241 0.0016129145 3.6172473e-21)
(1.3558846 0.073047687 0)
(1.418123 0.057549828 0)
(-0.010292511 2.1282972 0)
(-0.0069535653 2.154587 0)
(-0.021455828 2.1511212 0)
(0.28511215 1.892385 -4.1149867e-19)
(1.303818 0.02348601 0)
(1.1400316 0.038705468 0)
(1.9625673 0.0070844882 4.4059201e-19)
(1.6440146 0.025939117 -4.9334836e-19)
(1.9033439 0.010999457 0)
(-0.010537776 2.1288702 0)
(-0.010068637 2.1449109 0)
(-0.0096541213 2.1382686 0)
(-0.018677307 2.1559904 0)
(-0.011410954 2.1480115 0)
(-0.016380416 2.1581381 0)
(1.2853907 0.13996034 0)
(1.2714049 -0.14368628 1.3788831e-20)
(1.026846 1.7187264 5.9441179e-19)
(1.9530525 -0.0036313189 -4.4607785e-19)
(1.7078943 -0.012637731 5.157578e-19)
(1.8974851 -0.01090741 0)
(1.3285134 -0.025423933 4.1599115e-19)
(1.2005646 -0.0052906173 -5.2521774e-19)
(0.95820952 0.008006428 0)
(-0.0059752167 2.1564602 0)
(-0.0045825192 2.1537392 1.4739769e-20)
(-0.0054312714 2.1536419 -1.0379017e-20)
(1.5544318 0.34506716 7.2241819e-19)
(1.4818196 0.10811755 0)
(0.10138397 3.0569734 -1.2886839e-18)
(0.055401039 2.8335578 -9.4306647e-20)
(0.19525503 3.1979604 1.8984484e-18)
(0.17426657 3.2571757 -2.7151911e-19)
(0.1722295 3.3070734 0)
(0.036238097 3.1380685 3.5627928e-19)
(0.094892333 3.1780962 1.268688e-18)
(0.09152662 3.2095139 -6.6666244e-19)
(0.05980572 3.1074227 0)
(0.90930691 0.45250169 0)
(0.80493118 0.53225132 0)
(1.4058543 0.93423842 7.8293921e-20)
(1.4147883 1.1340683 -2.02712e-21)
(1.4875831 0.74300463 0)
(1.5412861 0.72931918 0)
(1.2643234 -0.042455126 -9.090817e-19)
(1.1755324 -0.072623444 1.2501792e-18)
(1.3001081 0.082624017 0)
(1.2018311 0.10744748 0)
(1.9873131 0.00089931022 0)
(1.8593642 -0.022196655 0)
(1.9333054 -0.0036542115 0)
(1.7269778 -0.038712803 0)
(1.6660156 -0.020785092 0)
(1.7988795 -0.015043549 0)
(-0.034075623 1.9906651 0)
(-0.023248195 2.0232338 0)
(-0.022414757 1.9532026 0)
(0.015107274 1.9707517 0)
(-0.0070874566 2.4413188 0)
(0.072080678 2.4580259 -4.3420933e-19)
(-0.0075274795 2.3964643 0)
(-0.0073984418 2.3633202 1.9960797e-19)
(-0.032070235 2.2649113 -2.044503e-19)
(-0.023442144 2.138402 0)
(-0.025876639 2.1386837 0)
(-0.02321554 2.1333507 0)
(-0.018705543 2.1131215 0)
(-0.052083094 2.1617586 -4.7382999e-20)
(-0.017000411 2.1736537 6.7909467e-20)
(-0.030248513 2.1903848 9.1769707e-20)
(-0.016068303 2.1835198 0)
(-0.0085094955 2.1685211 -1.0910446e-19)
(-0.0069307154 2.1643313 -6.4234258e-20)
(-0.03956649 2.1593181 3.5513111e-20)
(-0.026709718 2.1653422 -8.8289263e-20)
(-0.034300159 2.1724614 -1.1496771e-19)
(1.3376815 -0.022017859 1.5214506e-18)
(1.306646 -0.039804428 -1.9229697e-18)
(1.3404225 0.011441857 -1.5418728e-18)
(1.3187645 0.020766833 1.9936393e-18)
(1.3461953 0.10015602 0)
(1.3149855 0.10487738 0)
(1.4129951 0.06437304 0)
(1.3700476 0.071740205 0)
(1.3794844 0.049607676 0)
(1.4769818 0.10425422 0)
(1.4329348 0.067269628 0)
(1.4484693 0.061131369 0)
(-0.005747958 2.1450345 -1.6451356e-21)
(-0.010122898 2.128507 0)
(-0.0077511274 2.1338034 0)
(-0.0079297914 2.1574572 1.735609e-20)
(-0.0083446753 2.1564464 -8.1427432e-22)
(-0.01301398 2.1264216 1.7075268e-20)
(-0.011781297 2.1308455 -1.7153391e-20)
(-0.015374971 2.1452342 0)
(-0.012993925 2.1439904 0)
(-0.012461176 2.1439169 0)
(-0.024029237 2.1517923 0)
(-0.029260226 2.1530736 0)
(0.46620572 1.8906046 7.8110532e-19)
(0.49632443 1.9591919 3.3811892e-19)
(0.57308501 2.6297582 -2.436423e-19)
(0.26180897 2.602801 6.1396176e-19)
(0.37079438 2.4019336 -2.5556042e-20)
(1.3436147 0.060544185 0)
(1.3269731 0.047500985 0)
(1.1684986 0.07246105 0)
(1.9638508 0.0090757266 0)
(1.9518144 0.0081224722 0)
(1.7001967 0.023050128 0)
(1.5977752 0.031731743 0)
(1.6115504 0.04180933 0)
(1.276946 -0.13586283 1.2604748e-18)
(1.09923 -0.11868879 -1.5262819e-18)
(1.2641148 -0.13702032 -1.357959e-18)
(1.2266809 -0.12511905 1.7898285e-18)
(0.9965036 1.7304655 0)
(0.8922831 1.8769821 6.3020639e-19)
(1.1183452 1.5960173 2.9027783e-19)
(1.1701603 1.6061745 -3.8661137e-19)
(1.2810687 2.7279832 2.7918609e-19)
(1.1115518 0.15702478 8.1881344e-19)
(1.4855884 0.13529074 0)
(1.533084 0.23273445 -5.5526171e-19)
(1.5525523 0.20785449 -2.0968681e-20)
(1.3006866 0.16211283 0)
(0.25235239 2.9515071 7.2690962e-19)
(0.13882358 2.830719 -1.8382865e-18)
(0.07332484 2.3369494 1.2057438e-18)
(0.12380639 0.20159155 -6.0453105e-19)
(0.38250493 3.4893727 -1.1142358e-19)
(0.24587376 3.3880882 0)
(0.25812186 3.4585833 1.5720047e-19)
(0.29179441 3.1017623 -1.8690683e-18)
(0.4234105 3.1900736 0)
(0.016183632 3.1187114 6.658128e-20)
(0.019820742 3.1327012 -7.2472687e-19)
(0.0359017 3.1169731 1.1263387e-18)
(0.044241431 3.1493739 0)
(0.042932374 3.1602401 0)
(1.3652245 2.8288759 0)
(0.69115877 1.092585 -6.5669631e-19)
(1.3322933 1.3685688 -9.0455425e-20)
(1.2420994 1.4152255 0)
(1.0679806 1.2831984 -8.4425357e-20)
(1.3519047 1.1851958 4.6376399e-20)
(0.50635547 0.60580134 -1.4140695e-18)
(0.95957408 0.44213918 -3.7704042e-20)
(0.93024746 0.39568649 5.9595394e-19)
(0.81224999 0.57801812 4.4849435e-20)
(0.72481321 0.55549157 -1.8658402e-18)
(0.92183815 0.48583656 0)
(0.94628049 0.56675764 9.8106561e-19)
(0.96486719 0.53681256 0)
(0.86539677 0.53236112 0)
(0.85137539 0.47636915 0)
(1.0126587 0.80144505 5.4051093e-19)
(1.5360836 0.36546126 -6.1236198e-19)
(1.5455451 0.55305947 0)
(1.5738919 0.52007247 0)
(1.0151916 0.31765793 8.9708437e-19)
(1.0347717 0.69922054 -5.4732084e-19)
(0.97316017 0.67224677 9.6203994e-19)
(1.2110909 0.50880579 -9.8574505e-19)
(1.2358456 -0.1136612 7.9235703e-19)
(1.2037603 -0.091404527 -6.9728942e-19)
(1.0911201 -0.1178481 0)
(1.2982251 0.12752935 0)
(1.263135 0.11088727 -7.7028882e-19)
(1.1347709 0.12167586 7.6351813e-19)
(1.6847384 -0.054591055 0)
(1.5753801 -0.10444134 0)
(1.8852358 -0.027922283 0)
(1.6378998 -0.059115307 0)
(1.8972792 -0.016062591 0)
(1.9026258 -0.011465282 0)
(-0.033015049 2.0494669 0)
(-0.021840966 2.0610597 0)
(-0.073269198 1.8374836 9.7650092e-20)
(0.23958868 1.8790815 2.0836054e-19)
(0.060645648 1.920883 4.4638434e-19)
(0.12099904 1.9184869 -7.2806858e-19)
(-0.012079286 1.826064 0)
(-0.16708743 2.1741196 1.5297764e-20)
(-0.17143654 2.1591616 0)
(0.22826667 2.4452257 3.5322365e-20)
(0.1723432 2.6067716 4.404592e-19)
(-0.12049365 2.0945567 -1.388131e-20)
(0.22707905 1.7152116 1.4875526e-19)
(0.025247468 1.7643001 -1.2099847e-19)
(0.2615826 1.6354184 2.6180373e-19)
(-0.020399848 2.1355569 0)
(0.094417258 2.1141565 -1.6170433e-19)
(-0.097643151 2.1990358 -4.5293428e-20)
(-0.039611224 2.2892271 0)
(-0.081377938 2.2642034 1.946429e-19)
(-0.086322828 2.2386462 0)
(-0.017502309 2.3444444 -2.2095506e-19)
(-0.016444395 2.3201928 0)
(-0.035774429 2.1539365 -3.0770817e-20)
(-0.050299849 2.1537192 0)
(-0.042569071 2.1361236 0)
(-0.034960517 2.1487274 3.4898027e-20)
(-0.046902287 2.2065581 -8.2207717e-21)
(-0.03885628 2.2528632 2.3820236e-19)
(-0.034555577 2.2356708 1.5329171e-21)
(-0.021064828 2.1550303 3.4279958e-20)
(-0.027855181 2.1544565 2.0790009e-20)
(-0.026309618 2.141527 0)
(-0.030180166 2.1413338 0)
(-0.085759008 2.1593995 9.5729964e-20)
(-0.064836768 2.1273022 4.9717489e-20)
(-0.069340996 2.1473489 -7.7041295e-20)
(-0.10212686 2.1551839 0)
(-0.010287652 2.1454667 -5.9881248e-20)
(-0.0089888388 2.1557153 2.7514332e-20)
(-0.01124337 2.1537602 -8.711955e-21)
(-0.017301242 2.1562626 -4.0568613e-20)
(-0.011118642 2.1591583 -1.4928474e-20)
(-0.012833923 2.1629781 7.4030819e-20)
(1.2717122 -0.12403995 -9.7797477e-19)
(1.311988 -0.077884664 1.0184065e-18)
(1.2553523 -0.09782821 0)
(1.3366608 0.059827247 1.4627482e-18)
(1.3233553 0.035141817 -1.6322855e-18)
(1.2913617 0.035463189 1.8239466e-18)
(1.3317214 0.098762801 -1.9732991e-19)
(1.2821726 0.13998695 0)
(1.3092921 0.12981161 8.7322001e-19)
(1.2736637 0.13415734 -8.679482e-19)
(1.3943611 0.08376918 -5.4057496e-20)
(1.3887014 0.0797855 4.6970062e-19)
(1.3867325 0.074883513 0)
(1.3902022 0.073437399 -1.676549e-19)
(1.3987346 0.0064331364 0)
(1.3703684 -0.024925139 0)
(1.6555544 -0.073635099 0)
(1.4918733 -0.12321479 0)
(1.4433764 0.019930743 3.4213973e-19)
(1.4841511 -0.0060273886 -7.3104057e-19)
(1.4152866 0.092364864 -3.6967895e-19)
(1.4148134 0.066609171 -4.0348893e-19)
(1.3808386 0.083077851 7.8515109e-19)
(1.4143098 0.079470229 0)
(1.4216747 0.12088072 0)
(-0.0092123568 2.1453395 -2.4521739e-20)
(-0.0092469992 2.13347 -2.0476747e-21)
(-0.010465776 2.1338051 0)
(-0.0068589663 2.1501166 2.5360495e-20)
(-0.0060707039 2.1462216 3.5346754e-21)
(-0.005437623 2.1498917 -3.9115176e-21)
(-0.0075730963 2.1634378 5.6332223e-20)
(-0.0097978289 2.1586178 -3.206022e-21)
(-0.0099762462 2.1580482 1.5953759e-20)
(-0.0084019693 2.1599541 -2.7672579e-20)
(-0.0082513423 2.1599163 3.3376778e-20)
(-0.017131606 2.134612 6.6074315e-22)
(-0.015199077 2.1311488 2.3650466e-20)
(0.49600742 1.7417241 -3.8470874e-19)
(0.45744611 1.6949084 -3.0453445e-19)
(0.87566279 1.8801453 -6.1110529e-19)
(0.6925522 1.9325533 -3.2646631e-19)
(0.7108291 1.9540168 0)
(0.64846536 2.6375723 1.9938799e-19)
(0.72539273 2.6407828 3.3990438e-19)
(0.33592676 2.6448225 1.2583193e-19)
(0.29148477 2.7157988 -3.9997974e-19)
(0.44349202 2.7023136 4.6221733e-19)
(0.50983089 2.6791128 0)
(0.43074492 2.6259473 -5.5367938e-19)
(0.077625768 2.5225336 1.0984463e-18)
(0.19731596 2.6131442 -6.7836638e-20)
(0.16064367 2.543942 -1.465481e-18)
(1.0387041 2.5676076 7.3601837e-19)
(0.93155127 2.5994901 0)
(1.9272168 0.014061666 1.8765785e-20)
(1.6086887 0.043114999 -1.6066167e-20)
(1.6144871 0.036471537 -2.9686907e-19)
(1.8213658 0.02635642 2.9771586e-19)
(1.9504247 0.016450311 0)
(0.87676569 1.672855 0)
(0.8223664 1.5475563 0)
(0.9903299 1.4553509 0)
(0.84388409 1.4653084 0)
(1.2860764 2.7551897 6.6317181e-21)
(1.2042932 2.5889995 0)
(0.91405558 2.2244012 3.5925288e-21)
(0.94068574 2.5042883 0)
(1.023293 2.5858802 -3.0459645e-19)
(1.0349598 2.5766073 2.0805907e-19)
(1.1301298 0.18784236 0)
(1.0801346 0.21278202 2.2823258e-19)
(1.2347248 0.17306596 1.2627538e-18)
(1.1624556 0.14585704 -4.765353e-19)
(1.1334488 0.10981512 -1.4819105e-18)
(1.3672345 0.27381967 -1.1188087e-18)
(1.2607751 0.38002068 -2.0978233e-20)
(1.1873217 0.3541808 1.1794415e-18)
(1.2789246 0.2890177 9.751388e-19)
(1.2524582 0.20445917 -1.6682998e-18)
(1.217553 0.21711518 2.1023071e-19)
(1.2379829 0.29397014 -4.4737359e-19)
(1.2202147 0.26964814 0)
(1.2948465 0.2058993 8.1998987e-19)
(1.3243081 0.22108424 0)
(1.3193928 0.26673368 0)
(1.4155755 0.14494217 3.7300733e-19)
(1.3561609 0.20267151 -2.0466856e-20)
(1.3749534 0.25871424 -2.0284128e-19)
(1.4270375 0.23061334 0)
(1.3659016 0.021336596 7.9389514e-19)
(1.3881322 0.057788649 9.7262211e-19)
(1.3914206 0.026473365 -7.6293326e-19)
(1.3695174 0.074311125 -6.5957466e-19)
(1.350852 0.059024139 -1.0485577e-18)
(1.2965983 0.15281642 0)
(1.3089096 0.099567157 0)
(1.2939136 0.061671291 -6.5950406e-19)
(1.2541891 0.083285733 2.6230909e-19)
(1.3446533 0.10696009 9.2983417e-19)
(1.3623983 0.1435756 -1.0756619e-18)
(1.3576068 0.16404629 9.5945719e-19)
(1.3269991 0.15992017 0)
(1.3762945 0.12665265 0)
(1.3668532 0.10150202 -4.4645884e-19)
(1.3555942 0.10648617 -7.6592349e-19)
(0.68503602 1.471173 8.9966827e-20)
(0.78488891 1.8512423 -1.2527842e-19)
(1.1770751 2.8014973 -8.7674275e-20)
(1.3041175 3.1568132 2.3756373e-21)
(1.3488673 2.8419852 -1.5191984e-19)
(1.4054601 2.9154444 -1.0208741e-19)
(1.2775769 2.5879878 2.7580139e-20)
(1.335432 3.0807052 -4.0689169e-21)
(1.3437714 3.0937558 8.4194916e-20)
(1.3259044 3.366094 -1.5800208e-19)
(1.4452691 3.1318489 1.6308325e-19)
(1.4648647 3.0606535 0)
(0.69677559 1.1545822 -5.2924252e-20)
(0.299335 1.4203583 7.2047233e-19)
(0.63695379 0.80343861 9.4054694e-19)
(0.40510557 0.41333943 1.0982331e-18)
(0.72338179 0.60499232 1.0404372e-18)
(0.74187104 0.67511642 -1.7072767e-18)
(0.71480904 0.70848611 1.3813396e-18)
(0.64769484 0.64986932 -5.49959e-19)
(0.61220459 0.55938239 1.2500041e-18)
(1.0316367 0.35490529 -5.0246139e-19)
(0.9819076 0.39238231 0)
(0.9623846 0.36121525 2.0260998e-20)
(0.92549485 0.6834607 5.2572946e-19)
(0.91263983 0.64853291 -1.9098579e-18)
(0.78322864 0.68117333 3.4361389e-20)
(0.83545474 0.63646663 0)
(0.80782874 1.0245204 5.1785967e-19)
(1.0278747 1.0234676 4.2101735e-19)
(0.95230115 1.1504515 -4.8849187e-19)
(1.0801071 1.0408154 -1.8278932e-19)
(1.2020942 1.1070552 -3.2448378e-20)
(1.158977 1.113974 3.2738041e-20)
(1.0818599 0.81857896 -9.0854601e-19)
(1.131135 0.92625234 1.7146102e-19)
(1.2392725 0.92901466 0)
(1.2668331 0.87841885 -2.4146871e-19)
(1.2871615 0.40260207 2.893245e-19)
(1.4465417 0.37382521 3.6576408e-19)
(1.3573469 0.34100605 4.6605369e-19)
(1.2664357 0.47055242 -5.88412e-19)
(1.3486025 0.51567499 0)
(1.3981107 0.50314845 0)
(1.1680965 0.46627165 1.1469075e-20)
(1.1075375 0.38300135 0)
(1.1318923 0.36153585 5.8084063e-19)
(1.1706549 0.3668193 -1.8668267e-20)
(1.1946919 0.54490002 2.5882958e-18)
(1.1187742 0.63210091 7.1528904e-19)
(1.1225139 0.56955867 -7.99485e-19)
(1.0696783 0.55993657 8.6148257e-19)
(1.0372903 0.56790856 5.2406365e-19)
(1.0041081 0.53764252 -5.1268024e-19)
(1.5307197 0.06135275 5.8549698e-19)
(1.8703825 0.034884985 0)
(1.8364681 0.0375017 3.7276615e-19)
(1.5812529 0.056552379 -8.5822693e-19)
(1.8202549 -0.0049147288 4.4650714e-19)
(1.7839751 -0.062801862 -9.3449615e-19)
(1.5996209 -0.0880719 0)
(1.4941977 -0.07965594 -1.7970806e-19)
(1.7849982 -0.047791419 4.4299319e-19)
(1.6251317 -0.060703473 -2.2357875e-19)
(1.5375537 -0.068659665 1.6964607e-19)
(-0.021241977 2.113153 0)
(-0.042809077 2.1300944 0)
(-0.022287198 2.086149 0)
(-0.017781145 2.0892135 0)
(-0.12773101 2.0455271 -9.3667986e-20)
(-0.1164068 1.9683386 3.883078e-20)
(-0.17049634 2.1626645 -1.9020753e-20)
(-0.17164959 1.9466817 -7.731897e-20)
(-0.082383668 2.1140121 -3.6222314e-20)
(-0.10229756 2.1012376 2.6005068e-20)
(-0.10500483 2.0493807 1.8507981e-20)
(-0.07242743 2.0682577 2.4964929e-20)
(-0.054894539 2.0993146 2.8303817e-21)
(-0.057677551 2.1130984 -2.1724593e-21)
(-0.096789479 2.2783391 -2.0695766e-19)
(-0.090886037 2.3410228 0)
(-0.14790242 2.3096404 9.781649e-20)
(-0.172453 2.2018803 5.4090249e-20)
(-0.051827556 2.3939683 -3.6297556e-20)
(0.0023019142 2.5456583 0)
(0.041473869 2.5715525 -4.5625275e-19)
(0.085347618 2.5944481 3.2532402e-19)
(-0.11019377 2.3710333 -1.7315731e-19)
(-0.12236834 2.3804769 7.4855852e-20)
(-0.089172553 2.4650602 0)
(-0.077808858 2.1642306 -1.3201925e-19)
(-0.06627879 2.1679322 -1.8312831e-19)
(-0.0642493 2.1619491 0)
(-0.070150678 2.1970271 -8.8578053e-21)
(-0.083798568 2.1861885 6.8017811e-20)
(-0.02530562 2.1526011 4.8588559e-21)
(-0.026225104 2.1515525 -7.9330368e-20)
(-0.028847423 2.1543762 1.3167735e-20)
(-0.027467418 2.1577141 3.92235e-20)
(-0.027847975 2.1579723 0)
(-0.029245431 2.1536694 0)
(-0.030614919 2.148683 2.988026e-20)
(-0.029474751 2.1509841 -9.3152042e-21)
(-0.03019547 2.1521045 0)
(-0.030316839 2.1438683 2.2316189e-20)
(-0.032027165 2.1470476 -4.487644e-20)
(1.413285 0.11613356 0)
(1.3882145 0.11267149 -7.9875781e-20)
(1.5681636 0.05071218 -6.1333908e-19)
(1.4554094 0.097039545 0)
(1.3731231 0.10900815 0)
(1.5973473 0.029526374 2.2447192e-20)
(1.6623272 0.025863413 8.6745047e-19)
(1.5180346 -0.058884993 1.1360143e-18)
(1.4708278 -0.11626157 0)
(1.4006967 -0.11765617 0)
(1.4538233 -0.048443052 6.0623907e-19)
(1.4018337 -0.056307123 0)
(1.3952293 -0.091621303 0)
(-0.013800951 2.1461438 0)
(-0.015346025 2.1307497 2.456735e-21)
(-0.014233622 2.1376371 1.4476287e-20)
(-0.027494746 2.1485097 0)
(-0.019550234 2.1371984 1.7634554e-20)
(-0.019316135 2.1398492 -8.0260416e-21)
(-0.022933728 2.143616 0)
(0.61939961 1.8842711 0)
(0.52287839 1.6159187 4.7028601e-19)
(0.50261619 1.8054885 0)
(0.67108849 1.6213464 -5.9138016e-19)
(0.68410656 1.8558197 0)
(0.64205753 1.7568294 2.8004086e-19)
(1.1276244 2.7927024 -1.437828e-20)
(1.0617833 2.579422 -8.4800428e-19)
(1.0530743 2.4656723 9.7643712e-19)
(0.95802114 2.5824267 2.5534369e-19)
(0.95082782 2.6059512 0)
(1.0098315 2.573207 0)
(1.0184962 2.5705807 0)
(1.0032279 2.5899817 -9.2682438e-19)
(0.79071561 2.5669885 -2.7649159e-19)
(0.93096832 2.5726936 -7.2448706e-20)
(0.94363005 2.5065463 5.7973215e-20)
(0.77373437 2.6311953 0)
(0.88796156 2.6199437 0)
(0.83927091 2.6361807 -3.6070158e-19)
(0.87251795 2.6303536 0)
(0.77794407 1.4204352 0)
(0.67099347 1.243588 -4.4051509e-19)
(0.72853732 1.2495994 -2.7846e-20)
(0.70274446 1.3547897 0)
(0.69658853 1.3302662 6.7390051e-19)
(0.9709257 1.1955005 -1.1564221e-19)
(0.99504342 1.3349991 0)
(0.99675682 1.2552342 1.5522923e-19)
(0.81499571 1.3797763 0)
(0.83029149 1.259981 0)
(1.2524713 2.8304577 -1.8045952e-19)
(1.2087072 2.871263 -1.3147518e-19)
(0.97207292 2.3728902 2.1700163e-19)
(0.98063216 2.4000895 -8.6405532e-20)
(1.2245993 2.8136925 0)
(1.1876991 2.7624959 1.0931554e-19)
(1.2140786 2.6522492 -2.2318081e-19)
(1.1342892 2.5010589 -2.977026e-20)
(0.671442 1.6477826 0)
(0.64567387 1.4708921 -7.9199223e-20)
(0.70814718 1.5319872 0)
(1.1387646 0.28327686 0)
(1.0912987 0.23987813 0)
(1.0314565 0.26271003 0)
(1.1167584 0.31566472 -9.0078001e-19)
(1.0564027 0.2996803 5.3042731e-19)
(1.2533903 0.0860053 -5.1478302e-19)
(1.2635811 0.13184016 0)
(1.2399805 0.14540399 2.3092439e-19)
(1.1912852 0.10141314 9.3886172e-19)
(1.1833067 0.081862233 -5.9229736e-19)
(1.3385533 3.4923092 -4.2921003e-19)
(1.3176394 3.4236666 0)
(1.3609887 3.4459442 -9.3690999e-19)
(0.54323689 3.5457713 8.9994714e-19)
(0.79226179 3.0754722 -1.6387195e-19)
(0.62211901 1.1781573 6.7914061e-19)
(0.59687187 1.181267 0)
(0.54433098 0.8100331 -2.1847586e-19)
(0.61108531 1.006442 1.0838073e-18)
(0.64051874 0.77763205 -3.1363529e-19)
(0.64734631 0.78526678 3.4270462e-19)
(0.81010029 0.72655423 7.2638646e-19)
(0.87781535 0.7372971 0)
(0.7880614 0.8618793 0)
(0.73845901 0.81257926 0)
(1.2385271 0.7565044 8.1256988e-20)
(1.1395307 0.6885026 -6.8193172e-19)
(1.1480324 0.7359957 5.1409033e-19)
(1.2001433 0.64767097 -5.2447446e-19)
(1.3469388 0.63748083 0)
(1.3618454 0.7035496 -1.1996665e-19)
(1.0934818 0.50731719 -1.1818042e-18)
(1.1103992 0.49340038 -1.4119513e-18)
(1.0558637 0.49635835 9.2173869e-19)
(1.0438453 0.46964601 -9.5675375e-19)
(1.1052831 0.41867094 -7.3728131e-19)
(1.0471023 0.41579786 9.1475586e-19)
(1.7812079 0.0098446995 -5.2574102e-19)
(1.7840033 0.0091297958 1.062496e-18)
(1.5106422 0.078061237 6.4693407e-19)
(1.5184007 0.085797606 -7.7094373e-19)
(1.553328 0.090201966 0)
(1.7262999 0.07811281 -1.3933111e-18)
(-0.11654233 2.1506762 3.3749225e-20)
(-0.12025577 2.1538126 0)
(-0.14190233 2.1761617 1.5823572e-19)
(-0.16139915 2.1881033 -1.3530417e-19)
(-0.16050288 2.1613894 3.3730555e-20)
(-0.15588627 2.1670411 0)
(-0.017565943 2.1503022 0)
(-0.025260306 2.1503424 -9.2665116e-21)
(-0.025105204 2.1445129 8.3927162e-21)
(-0.021876911 2.1411416 2.678095e-21)
(-0.016667138 2.1453481 -1.7592031e-20)
(-0.015533071 2.1489249 1.1989633e-20)
(0.70293283 1.6524702 -8.1456894e-20)
(0.71873572 1.6690953 9.0673864e-20)
(0.69098505 1.6400989 2.5260572e-19)
(0.72762385 1.583495 -3.9001148e-21)
(0.83925031 1.7057057 0)
(0.76208585 1.7891822 4.4348595e-19)
(0.81861446 1.8184672 -4.3050392e-19)
(0.68330184 1.6679525 -2.4893149e-19)
(0.73330468 1.6408104 0)
(0.73772746 1.6179231 0)
(0.78536343 2.5548114 4.034494e-19)
(0.76209312 2.6470793 9.6378783e-19)
(0.83127475 2.6317692 -6.9515172e-19)
(0.65431948 2.6656049 -1.7394584e-19)