/*--------------------------------*- C++ -*----------------------------------*\
  =========                 |
  \\      /  F ield         | OpenFOAM: The Open Source CFD Toolbox
   \\    /   O peration     | Website:  https://openfoam.org
    \\  /    A nd           | Version:  9
     \\/     M anipulation  |
\*---------------------------------------------------------------------------*/
FoamFile
{
    format      ascii;
    class       volScalarField;
    location    "0.007";
    object      p;
}
// * * * * * * * * * * * * * * * * * * * * * * * * * * * * * * * * * * * * * //

dimensions      [1 -1 -2 0 0 0 0];

internalField   nonuniform List<scalar> 
1000
(
100000
100000
100000
100000
100000
100000
100000
100000
100000
100000
100000
100000
100000
100000
100000
100000
100000
100000
100000
100000
100000
100000
100000
100000
100000
100000
100000
100000
100000
100000
100000
100000
100000
100000
100000
100000
100000
100000
100000
100000
100000
100000
100000
100000
100000
100000
100000
100000
100000
100000
100000
100000
100000
100000
100000
100000
100000
100000
100000
100000
100000
100000
100000
100000
100000
100000
100000
100000
100000
100000
100000
100000
100000
100000
100000
100000
100000
100000
100000
100000
100000
100000
100000
100000
100000
100000
100000
100000
100000
100000
100000
100000
100000
100000
100000
100000
100000
100000
100000
100000
100000
100000
100000
100000
100000
100000
100000
100000
100000
100000
100000
100000
100000
100000
100000
100000
100000
100000
100000
100000
100000
100000
100000
100000
100000
100000
100000
100000
100000
100000
100000
100000
100000
100000
100000
100000
100000
100000
100000
100000
100000
100000
100000
100000
100000
100000
100000
100000
100000
100000
100000
100000
100000
100000
100000
100000
100000
100000
100000
100000
100000
100000
100000
100000
100000
100000
100000
100000
100000
100000
100000
100000
100000
100000
100000
100000
100000
100000
100000
100000
100000
100000
100000
100000
100000
100000
100000
99999.9
99999.9
99999.9
99999.8
99999.8
99999.7
99999.6
99999.4
99999.1
99998.8
99998.4
99997.8
99997
99995.9
99994.6
99992.7
99990.4
99987.3
99983.4
99978.4
99972.1
99964.2
99954.4
99942.2
99927.3
99909.2
99887.2
99860.9
99829.6
99792.7
99749.4
99699.1
99641
99574.5
99499
99413.8
99318.3
99212.1
99094.8
98966
98825.5
98673.2
98509.1
98333.1
98145.4
97946.3
97736
97514.9
97283.4
97041.8
96790.8
96530.7
96262.1
95985.4
95701.3
95410.1
95112.5
94808.7
94499.4
94184.9
93865.7
93542.2
93214.6
92883.4
92549
92211.5
91871.3
91528.6
91183.8
90836.9
90488.3
90138.1
89786.6
89433.8
89079.9
88725.1
88369.5
88013.3
87656.5
87299.2
86941.7
86583.8
86225.8
85867.7
85509.6
85151.6
84793.7
84436
84078.5
83721.3
83364.5
83008.1
82652.2
82296.7
81941.8
81587.4
81233.7
80880.6
80528.2
80176.4
79825.4
79475.2
79125.8
78777.2
78429.4
78082.5
77736.4
77391.3
77047
76703.7
76361.4
76020
75679.6
75340.2
75001.8
74664.3
74328
73992.6
73658.3
73325.1
72992.9
72661.8
72331.7
72002.8
71674.9
71348.1
71022.5
70697.9
70374.5
70052.1
69730.9
69410.8
69091.8
68773.9
68457.2
68141.6
67827.2
67513.8
67201.7
66890.6
66580.7
66271.9
65964.3
65657.8
65352.5
65048.3
64745.2
64443.3
64142.5
63842.9
63544.4
63247
62950.8
62655.7
62361.8
62069
61777.3
61486.8
61197.4
60909.2
60622.1
60336.1
60051.2
59767.5
59484.9
59203.4
58923
58643.8
58365.6
58088.6
57812.8
57538
57264.3
56991.8
56720.3
56450
56180.7
55912.6
55645.6
55379.6
55114.8
54851.1
54588.4
54326.8
54066.3
53806.9
53548.6
53291.4
53035.2
52780.2
52526.1
52273.2
52021.3
51770.5
51520.8
51272.1
51024.5
50778
50532.5
50288
50044.6
49802.3
49561
49320.7
49081.5
48843.3
48606.2
48370.1
48135.1
47901
47668
47436.1
47205.2
46975.3
46746.4
46518.5
46291.7
46065.9
45841.1
45617.3
45394.6
45172.9
44952.2
44732.5
44513.8
44296.1
44079.5
43863.8
43649.2
43435.6
43223
43011.4
42800.9
42591.3
42382.8
42175.3
41968.8
41763.3
41558.9
41355.4
41153
40951.7
40751.3
40552
40353.8
40156.6
39960.4
39765.3
39571.3
39378.3
39186.4
38995.6
38805.8
38617.2
38429.6
38243.2
38057.9
37873.8
37690.7
37508.9
37328.2
37148.8
36970.5
36793.4
36617.7
36443.1
36269.9
36098
35927.4
35758.2
35590.4
35424.1
35259.2
35095.8
34933.9
34773.6
34615
34458.1
34302.8
34149.4
33997.8
33848.2
33700.5
33554.9
33411.4
33270.1
33131.1
32994.4
32860.3
32728.7
32599.9
32473.8
32350.6
32230.4
32113.3
31999.5
31889.1
31782.2
31678.9
31579.3
31483.6
31391.8
31304.1
31220.5
31141.2
31066.2
30995.5
30929.2
30867.3
30809.7
30756.5
30707.5
30662.8
30622.1
30585.3
30552.3
30522.8
30496.8
30473.8
30453.9
30436.6
30421.7
30409
30398.4
30389.4
30382
30375.9
30370.9
30366.8
30363.6
30361
30359
30357.3
30356.1
30355.1
30354.4
30353.8
30353.3
30353
30352.7
30352.5
30352.3
30352.2
30352
30351.9
30351.8
30351.8
30351.7
30351.6
30351.6
30351.6
30351.5
30351.5
30351.5
30351.4
30351.4
30351.4
30351.3
30351.3
30351.3
30351.2
30351.2
30351.1
30351.1
30351.1
30351
30351
30351
30350.9
30350.9
30350.8
30350.8
30350.8
30350.7
30350.7
30350.7
30350.7
30350.6
30350.6
30350.6
30350.6
30350.5
30350.5
30350.5
30350.5
30350.4
30350.4
30350.4
30350.4
30350.3
30350.3
30350.3
30350.3
30350.2
30350.2
30350.2
30350.2
30350.1
30350.1
30350.1
30350.1
30350
30350
30350
30350
30349.9
30349.9
30349.9
30349.9
30349.9
30349.9
30349.9
30349.9
30349.9
30349.9
30349.9
30349.9
30349.9
30350
30350
30350
30350
30350.1
30350.1
30350.1
30350.2
30350.2
30350.2
30350.2
30350.2
30350.2
30350.2
30350.2
30350.2
30350.2
30350.2
30350.2
30350.2
30350.2
30350.2
30350.2
30350.2
30350.1
30350.1
30350.1
30350.1
30350.1
30350.1
30350.1
30350.1
30350.1
30350
30350
30350
30350
30350
30350
30350
30350
30350
30350
30350
30350
30349.9
30349.9
30349.9
30349.9
30349.9
30349.9
30349.9
30349.9
30349.9
30349.9
30349.9
30349.9
30349.8
30349.8
30349.8
30349.8
30349.8
30349.8
30349.8
30349.8
30349.8
30349.8
30349.8
30349.8
30349.7
30349.7
30349.7
30349.7
30349.7
30349.7
30349.7
30349.7
30349.7
30349.7
30349.6
30349.6
30349.6
30349.5
30349.5
30349.4
30349.3
30349.2
30349.1
30349
30348.9
30348.8
30348.7
30348.7
30348.6
30348.6
30348.7
30348.7
30348.8
30349
30349.1
30349.2
30349.4
30349.5
30349.6
30349.6
30349.7
30349.7
30349.7
30349.7
30349.7
30349.7
30349.6
30349.6
30349.5
30349.5
30349.5
30349.4
30349.4
30349.3
30349.3
30349.3
30349.3
30349.3
30349.3
30349.2
30349.2
30349.2
30349.2
30349.2
30349.2
30349.2
30349.2
30349.2
30349.1
30349.1
30349.1
30349.1
30349.1
30349.1
30349.1
30349.1
30349.1
30349.1
30349.1
30349.1
30349.1
30349.1
30349.1
30349.1
30349.1
30349.1
30349
30349
30349
30349
30349
30348.9
30348.9
30348.9
30348.9
30348.9
30348.9
30348.9
30348.9
30348.9
30348.9
30348.9
30348.9
30348.9
30348.9
30348.9
30348.9
30348.9
30348.8
30348.8
30348.8
30348.8
30348.7
30348.7
30348.7
30348.7
30348.7
30348.7
30348.7
30348.7
30348.6
30348.6
30348.6
30348.6
30348.6
30348.6
30348.6
30348.6
30348.6
30348.5
30348.5
30348.5
30348.4
30348.4
30348.3
30348.3
30348.3
30348.3
30348.3
30348.3
30348.3
30348.3
30348.3
30348.3
30348.3
30348.3
30348.3
30348.3
30348.2
30348.2
30348.1
30348.1
30348
30348
30347.9
30347.9
30347.8
30347.8
30347.8
30347.8
30347.8
30347.8
30347.8
30347.8
30347.8
30347.8
30347.8
30347.8
30347.8
30347.7
30347.7
30347.6
30347.5
30347.5
30347.4
30347.4
30347.3
30347.3
30347.2
30347.2
30347.2
30347.2
30347.2
30347.1
30347.1
30347.1
30347.1
30347.1
30347.1
30347.1
30347
30347
30346.9
30346.8
30346.7
30346.6
30346.6
30346.5
30346.3
30346.2
30346
30345.9
30345.7
30345.4
30344.7
30343.2
30340.3
30333.9
30321.5
30296.2
30244.6
30137.6
29899.6
29357.6
28080.9
25380
20735.5
15960.2
12542.3
10847.6
10237.4
10061.2
10015.3
10003.8
10000.9
10000.2
10000.1
10000
10000
10000
10000
10000
10000
10000
10000
10000
10000
10000
10000
10000
10000
10000
10000
10000
10000
10000
10000
10000
10000
10000
10000
10000
10000
10000
10000
10000
10000
10000
10000
10000
10000
10000
10000
10000
10000
10000
10000
10000
10000
10000
10000
10000
10000
10000
10000
10000
10000
10000
10000
10000
10000
10000
10000
10000
10000
10000
10000
10000
10000
10000
10000
10000
10000
10000
10000
10000
10000
10000
10000
10000
10000
10000
10000
10000
10000
10000
10000
10000
10000
10000
10000
10000
10000
10000
10000
10000
10000
10000
10000
10000
10000
10000
10000
10000
10000
10000
10000
10000
10000
10000
)
;

boundaryField
{
    sides
    {
        type            zeroGradient;
    }
    empty
    {
        type            empty;
    }
}


// ************************************************************************* //
