/*--------------------------------*- C++ -*----------------------------------*\
  =========                 |
  \\      /  F ield         | OpenFOAM: The Open Source CFD Toolbox
   \\    /   O peration     | Website:  https://openfoam.org
    \\  /    A nd           | Version:  9
     \\/     M anipulation  |
\*---------------------------------------------------------------------------*/
FoamFile
{
    format      ascii;
    class       volScalarField;
    location    "21";
    object      p;
}
// * * * * * * * * * * * * * * * * * * * * * * * * * * * * * * * * * * * * * //

dimensions      [0 2 -2 0 0 0 0];

internalField   nonuniform List<scalar> 
400
(
1.0503752e-06
-0.00067167657
-0.001384117
-0.0019414446
-0.0022187102
-0.0021551843
-0.0017264634
-0.00092486377
0.00023675818
0.0017087376
0.0033886077
0.0051135047
0.0066747767
0.0078504012
0.008459703
0.0084250251
0.0078147711
0.0068459238
0.0058627253
0.0053003771
0.00065900589
-3.9329369e-05
-0.00056844347
-0.00093938704
-0.001109601
-0.0010386354
-0.00070448351
-9.4222302e-05
0.00079043024
0.0019175191
0.0032109166
0.0045560331
0.0057832904
0.0067175883
0.0072157683
0.0072158948
0.0067713472
0.0060541856
0.0053119597
0.0047399264
0.0014248481
0.00044182775
-0.00011540048
-0.00045202202
-0.00061356361
-0.00058354079
-0.00034528374
0.00012106272
0.00082979526
0.0017712501
0.0028956373
0.0040995114
0.0052295896
0.0061123292
0.0065952351
0.0065990469
0.006157142
0.0054229384
0.0045951924
0.0037496908
0.0020153231
0.00068284859
1.7956965e-05
-0.0003576417
-0.00057031065
-0.00062529075
-0.00050878145
-0.00018929801
0.00036986094
0.0011857614
0.0022312943
0.0034188079
0.004592747
0.0055583262
0.0061249478
0.006167968
0.0056850467
0.0048184995
0.0037487636
0.0024750878
0.0021683827
0.00049727451
-0.00029507467
-0.00074749302
-0.0010570065
-0.0012439839
-0.0012914199
-0.0011499317
-0.00075364356
-5.1667898e-05
0.00095846777
0.0022117246
0.0035461446
0.0047340949
0.0055232769
0.0057113251
0.0052307425
0.0042030821
0.0028076868
0.0009854907
0.0016550803
-0.000313311
-0.0012375889
-0.0017980697
-0.0022513872
-0.0026265815
-0.0028972358
-0.0029896421
-0.0028010497
-0.002236156
-0.0012495585
0.00013243042
0.0017461708
0.0033286172
0.0045431377
0.0050672678
0.0047189912
0.0035677126
0.001791134
-0.00072434615
0.00028817442
-0.0019183689
-0.002971763
-0.0036701077
-0.0043189679
-0.0049518039
-0.0055286478
-0.0059464071
-0.0060573953
-0.0057057291
-0.0047740375
-0.0032570192
-0.0012648544
0.00090879842
0.0028247123
0.0039883962
0.0040266451
0.0028892679
0.00071696417
-0.0026788726
-0.0020752199
-0.0044499337
-0.0056255088
-0.0064909797
-0.007391511
-0.0083642701
-0.0093553336
-0.010230099
-0.010789204
-0.010803019
-0.01006151
-0.0084599095
-0.0060389424
-0.0030814431
-0.0001245941
0.0021142804
0.002965449
0.0021371953
-0.00036440083
-0.0048709285
-0.0055228699
-0.0079907775
-0.0092765467
-0.010332359
-0.011536488
-0.012933806
-0.014460986
-0.015954483
-0.017160523
-0.017764018
-0.01743603
-0.015917423
-0.013120942
-0.0092498057
-0.0048971387
-0.0010282336
0.0012711228
0.001279441
-0.0013322755
-0.0071999448
-0.010075507
-0.012563664
-0.013935199
-0.015182477
-0.016716761
-0.018600888
-0.020772338
-0.023046777
-0.02511958
-0.026584153
-0.026967104
-0.025810694
-0.02284347
-0.018072317
-0.012049061
-0.0059500355
-0.0013689238
0.00030234035
-0.0019454747
-0.009380453
-0.015683465
-0.018130881
-0.019535994
-0.020925186
-0.022756021
-0.025128032
-0.027995021
-0.031164283
-0.034289227
-0.036874509
-0.038291776
-0.037841866
-0.035063497
-0.029599196
-0.021820337
-0.012983545
-0.0051830693
-0.00071394313
-0.0017624378
-0.010790467
-0.022241968
-0.024611413
-0.025943943
-0.02733325
-0.029322364
-0.032077308
-0.035586872
-0.039662437
-0.043924939
-0.04779888
-0.050527719
-0.051234026
-0.048954462
-0.043141218
-0.033766802
-0.021924258
-0.01003493
-0.0014136057
-8.0981954e-06
-0.01022385
-0.029639493
-0.031922203
-0.032977039
-0.034078107
-0.035937663
-0.038829562
-0.042793521
-0.047649344
-0.052988173
-0.05816115
-0.062281784
-0.064263092
-0.062872787
-0.057109914
-0.046474585
-0.03164705
-0.015035942
-0.00086257746
0.0046484969
-0.0055198362
-0.037864216
-0.040046779
-0.040438416
-0.040750755
-0.042013199
-0.04465112
-0.04875613
-0.054141861
-0.060353718
-0.066662966
-0.072058303
-0.075265952
-0.074809129
-0.069267155
-0.057626319
-0.03995963
-0.018246186
0.0027907446
0.014446797
0.0069091283
-0.047228774
-0.049132607
-0.048138876
-0.046880602
-0.046903728
-0.048796811
-0.052666297
-0.058273904
-0.065073888
-0.072229726
-0.078593509
-0.082710141
-0.08287816
-0.077307495
-0.064522189
-0.043933319
-0.016746427
0.012504464
0.032940265
0.032410369
-0.058895013
-0.059638161
-0.055882245
-0.05193946
-0.049970695
-0.050628137
-0.053926769
-0.059493339
-0.066609759
-0.07428315
-0.081189046
-0.085677382
-0.08582993
-0.079520512
-0.064874593
-0.040687892
-0.0072396245
0.032140651
0.064982725
0.077750411
-0.07622484
-0.072612136
-0.0635146
-0.055433885
-0.050723554
-0.049780037
-0.052310627
-0.057662497
-0.064889837
-0.072772939
-0.079777364
-0.084034853
-0.083389931
-0.075347444
-0.057601357
-0.028373983
0.012934384
0.065397544
0.11555258
0.15150727
-0.10809068
-0.089554956
-0.071232461
-0.057231652
-0.049070784
-0.046328791
-0.048075692
-0.053200868
-0.060432753
-0.068293933
-0.075025485
-0.078525112
-0.076387374
-0.065808252
-0.043864268
-0.0078174106
0.044394599
0.11299906
0.18838135
0.27186167
-0.17684403
-0.10828841
-0.076201333
-0.05465009
-0.042991178
-0.038996717
-0.04056904
-0.045926404
-0.05343976
-0.061436506
-0.068025742
-0.07096081
-0.067549554
-0.054738439
-0.029147619
0.013564621
0.078147861
0.17006521
0.28949631
0.47421908
-0.37208198
-0.1247071
-0.054971867
-0.031961405
-0.022062428
-0.020299289
-0.024358065
-0.031956436
-0.041259849
-0.050639086
-0.058315086
-0.062185711
-0.059780928
-0.04805538
-0.022657293
0.021475273
0.092819664
0.21015365
0.40288929
0.77641016
)
;

boundaryField
{
    movingWall
    {
        type            zeroGradient;
    }
    fixedWalls
    {
        type            zeroGradient;
    }
    frontAndBack
    {
        type            empty;
    }
}


// ************************************************************************* //
