/*--------------------------------*- C++ -*----------------------------------*\
  =========                 |
  \\      /  F ield         | OpenFOAM: The Open Source CFD Toolbox
   \\    /   O peration     | Website:  https://openfoam.org
    \\  /    A nd           | Version:  9
     \\/     M anipulation  |
\*---------------------------------------------------------------------------*/
FoamFile
{
    format      ascii;
    class       surfaceScalarField;
    location    "21";
    object      phi;
}
// * * * * * * * * * * * * * * * * * * * * * * * * * * * * * * * * * * * * * //

dimensions      [0 3 -1 0 0 0 0];

internalField   nonuniform List<scalar> 
760
(
1.2696372e-05
-1.2708583e-05
-2.8726418e-05
4.1422795e-05
-0.00012229205
9.356564e-05
-0.00025039352
0.00012810148
-0.00039606968
0.00014567617
-0.00054538332
0.00014931365
-0.00068626158
0.00014087828
-0.00080688035
0.00012061877
-0.0008949395
8.8059166e-05
-0.00093837724
4.3437744e-05
-0.0009272617
-1.111552e-05
-0.0008568506
-7.0411087e-05
-0.00073042025
-0.00012643034
-0.00056133565
-0.00016908458
-0.00037275738
-0.00018857826
-0.00019447375
-0.00017828362
-5.652332e-05
-0.00013795042
1.9612704e-05
-7.6136012e-05
3.0410346e-05
-1.0797631e-05
3.041036e-05
-4.3184957e-05
3.047638e-05
-0.00020456529
0.00020280314
-0.00046831792
0.00035731829
-0.00080069385
0.00046047742
-0.0011673287
0.00051231104
-0.00153642
0.00051840493
-0.0018781913
0.0004826496
-0.0021636405
0.00040606799
-0.0023644994
0.0002889181
-0.0024553058
0.00013424419
-0.0024181012
-4.8320052e-05
-0.0022453219
-0.0002431904
-0.0019475271
-0.00042422516
-0.0015544478
-0.00056216387
-0.001114308
-0.00062871805
-0.00068746839
-0.00060512315
-0.00033452417
-0.00049089462
-0.00010089759
-0.00030976256
-1.552758e-06
-0.00011014244
2.8857613e-05
-0.00011002631
0.0001405027
-0.00040302545
0.0004958023
-0.00083137368
0.00078566654
-0.0013455927
0.00097469644
-0.0018985633
0.0010652816
-0.002446535
0.0010663767
-0.0029479775
0.00098409212
-0.0033625569
0.00082064738
-0.0036518249
0.00057818613
-0.0037822514
0.00026467076
-0.0037297604
-0.00010081102
-0.0034857552
-0.00048719559
-0.003063226
-0.00084675429
-0.0024999559
-0.001125434
-0.0018582085
-0.0012704654
-0.0012181291
-0.0012452026
-0.00066372999
-0.0010452937
-0.00026308805
-0.00071040447
-4.7956584e-05
-0.00032527388
-1.9098958e-05
-0.00017343655
0.00031393925
-0.00059328123
0.00091564699
-0.0011776729
0.0013700582
-0.0018583349
0.0016553585
-0.0025768606
0.0017838073
-0.0032812473
0.0017707634
-0.0039227219
0.0016255667
-0.0044540561
0.0013519816
-0.0048301744
0.00095430455
-0.0050111474
0.00044564375
-0.0049671696
-0.00014478879
-0.0046843546
-0.00077001055
-0.0041722816
-0.0013588273
-0.0034690726
-0.0018286429
-0.0026439702
-0.0020955678
-0.001793176
-0.0020959967
-0.0010258377
-0.001812632
-0.00044021024
-0.0012960319
-9.6723192e-05
-0.0006687609
-0.00011582214
-0.00022979078
0.00054373004
-0.00076505923
0.0014509155
-0.0014914559
0.002096455
-0.0023225027
0.0024864053
-0.0031900805
0.0026513851
-0.0040367485
0.0026174315
-0.0048099511
0.0023987694
-0.0054588707
0.0020009011
-0.0059340829
0.0014295168
-0.0061897137
0.00070127455
-0.006188299
-0.0001462035
-0.0059054786
-0.0010528308
-0.0053403285
-0.0019239774
-0.0045230442
-0.0026459271
-0.003522923
-0.0030956891
-0.0024497692
-0.0031691504
-0.0014425195
-0.0028198817
-0.000641223
-0.0020973284
-0.00014883521
-0.0011611487
-0.00026465733
-0.00027729199
0.00082102203
-0.00091152867
0.0020851522
-0.0017606961
0.0029456224
-0.0027227574
0.0034484666
-0.0037221434
0.0036507711
-0.004698612
0.0035939001
-0.0055987965
0.0032989539
-0.0063710878
0.0027731924
-0.0069636206
0.0020220497
-0.0073247281
0.001062382
-0.0074073548
-6.3576785e-05
-0.0071715947
-0.0012885909
-0.0065987966
-0.0024967755
-0.0057016007
-0.0035431229
-0.0045399565
-0.0042573333
-0.0032317982
-0.0044773087
-0.0019489945
-0.0041026855
-0.00088727587
-0.0031590469
-0.00021159145
-0.001836833
-0.00047624876
-0.00031410912
0.0011351312
-0.0010263177
0.0027973607
-0.0019734684
0.0038927731
-0.0030416956
0.0045166939
-0.0041506401
0.0047597156
-0.0052398515
0.0046831115
-0.0062579685
0.0043170709
-0.0071554123
0.0036706363
-0.0078802495
0.0027468869
-0.0083767239
0.0015588565
-0.0085852738
0.00014497317
-0.0084512107
-0.0014226539
-0.0079294001
-0.003018586
-0.0070048776
-0.0044676455
-0.0057149738
-0.005547237
-0.0041735299
-0.0060187525
-0.0025818125
-0.0056944028
-0.0012040895
-0.0045367699
-0.00029450018
-0.0027464223
-0.00077074892
-0.00033824166
0.0014733728
-0.0011031478
0.0035622669
-0.0021175945
0.0049072199
-0.0032598311
0.0056589304
-0.0044473306
0.0059472151
-0.0056218701
0.0058576511
-0.0067368451
0.005432046
-0.0077478549
0.0046816461
-0.0086062581
0.0036052901
-0.0092551335
0.0022077319
-0.0096268995
0.0005167392
-0.0096490961
-0.0014004573
-0.0092488791
-0.003418803
-0.0083738532
-0.0053426713
-0.0070219975
-0.0068990927
-0.0052817567
-0.0077589933
-0.0033676296
-0.0076085298
-0.0016173449
-0.0062870546
-0.00040826392
-0.0039555032
-0.0011790128
-0.00034815065
0.0018215235
-0.0011371975
0.0043513138
-0.002182756
0.0059527784
-0.0033585718
0.0068347462
-0.00458218
0.0071708234
-0.0057997478
0.0070752189
-0.0069721117
0.0066044099
-0.0080635795
0.005773114
-0.0090333507
0.0045750613
-0.0098289026
0.0030032839
-0.010381185
0.0010690216
-0.010604439
-0.0011772031
-0.010400695
-0.0036225468
-0.0096748193
-0.0060685473
-0.0083686077
-0.0082053043
-0.006515631
-0.00961197
-0.0043098466
-0.0098143142
-0.002148303
-0.0084485982
-0.00056491934
-0.0055388868
-0.0017439321
-0.0003439316
0.0021654551
-0.001127849
0.0051352313
-0.0021646895
0.0069896189
-0.0033258717
0.0079959284
-0.0045307632
0.0083757149
-0.0057318982
0.0082763539
-0.006900171
0.0077726827
-0.0080123292
0.0068852723
-0.0090407739
0.0056035061
-0.0099449158
0.0039074259
-0.010663345
0.0017874509
-0.011106696
-0.00073385171
-0.011163371
-0.0035658721
-0.010697079
-0.0065348397
-0.0095825511
-0.0093198317
-0.0077667335
-0.011427787
-0.005371467
-0.012209581
-0.0028071584
-0.011012907
-0.0007783623
-0.0075676828
-0.0025222944
-0.00032890763
0.0024943628
-0.0010824194
0.0058887431
-0.0020707721
0.0079779716
-0.0031636045
0.0090887608
-0.0042838909
0.0094960014
-0.0053928413
0.0093853043
-0.006474129
0.0088539705
-0.0075205389
0.0079316823
-0.008522912
0.0066058792
-0.0094603417
0.0048448557
-0.010291331
0.0026184405
-0.010933224
-9.1958599e-05
-0.011283206
-0.0032158899
-0.011173622
-0.0066444242
-0.010415696
-0.010077758
-0.0088467129
-0.01299677
-0.0064557303
-0.014600563
-0.0035815098
-0.013887127
-0.0010642162
-0.010084976
-0.0035865106
-0.00031178707
0.0028061498
-0.0010206865
0.0065976426
-0.0019261121
0.0088833972
-0.0028949653
0.010057614
-0.0038569033
0.010457939
-0.0047855888
0.01031399
-0.0056807972
0.009749179
-0.0065544924
0.0088053775
-0.0074199315
0.0074713184
-0.0082818714
0.0057067956
-0.0091252032
0.0034617724
-0.0099086875
0.00069152573
-0.010527298
-0.0025972792
-0.010827045
-0.0063446769
-0.010573646
-0.010331157
-0.0094932127
-0.014077204
-0.0073911322
-0.016702644
-0.0044189044
-0.016859355
-0.001437206
-0.013066675
-0.0050237166
-0.00031004882
0.0031161987
-0.00098038165
0.0072679755
-0.0017790776
0.0096820932
-0.0025694064
0.010847943
-0.0032946469
0.01118318
-0.003947958
0.010967301
-0.0045500408
0.010351262
-0.0051348642
0.009390201
-0.0057400053
0.0080764596
-0.0063986139
0.0063654042
-0.0071302178
0.0041933764
-0.0079303476
0.0014916556
-0.0087388875
-0.0017887393
-0.0094304288
-0.0056531355
-0.0097686345
-0.009992951
-0.0094003773
-0.014445461
-0.0079305937
-0.018172427
-0.0052061618
-0.019583787
-0.001902609
-0.016370228
-0.0069263255
-0.00035604887
0.0034722476
-0.0010240222
0.0079359488
-0.0017042739
0.010362345
-0.0022608602
0.011404529
-0.0026657998
0.01158812
-0.0029441018
0.011245603
-0.0031443525
0.010551513
-0.0033249789
0.0095708275
-0.00354731
0.0082987907
-0.0038711654
0.0066892597
-0.0043492899
0.004671501
-0.0050184955
0.0021608611
-0.0058767207
-0.00093051399
-0.0068579313
-0.0046719248
-0.0077763678
-0.0090745146
-0.0082658935
-0.013955935
-0.0077687745
-0.018669546
-0.0057511125
-0.021601449
-0.002436672
-0.019684668
-0.0093629975
-0.00050827164
0.0039805192
-0.0012456623
0.0086733396
-0.0017959384
0.010912621
-0.002048077
0.011656668
-0.0020326046
0.011572647
-0.0018255415
0.01103854
-0.0015123204
0.010238291
-0.001177996
0.0092365031
-0.0009048528
0.0080256476
-0.00077385953
0.0065582665
-0.00086362591
0.0047612675
-0.0012474871
0.0025447224
-0.0019829523
-0.00019504876
-0.0030819766
-0.0035729005
-0.0044601245
-0.0076963666
-0.0058275598
-0.0125885
-0.0065662127
-0.017930893
-0.0057684711
-0.02239919
-0.0029512304
-0.022501909
-0.012314228
-0.00086856424
0.0048490835
-0.0017630157
0.0095677911
-0.0021214131
0.011271019
-0.0019369281
0.011472183
-0.0013510264
0.010986746
-0.00051631415
0.010203828
0.00043690773
0.0092850696
0.0013994742
0.0082739367
0.0022722366
0.0071528852
0.0029607787
0.0058697245
0.0033690206
0.0043530256
0.0033966782
0.0025170648
0.0029384347
0.00026319483
0.0019095112
-0.002543977
0.00026959803
-0.0060564534
-0.0018542349
-0.010464667
-0.0039516486
-0.01583348
-0.004860864
-0.021489975
-0.0032547126
-0.02410806
-0.01556894
-0.0015910924
0.0064401759
-0.00261088
0.010587579
-0.0025131868
0.011173326
-0.0015899808
0.010548977
-0.00017226643
0.0095690311
0.0014926875
0.008538874
0.0032327722
0.0075449849
0.0049231055
0.0065836035
0.006462864
0.0056131267
0.0077573729
0.0045752156
0.0087073869
0.0034030117
0.0092013859
0.0020230658
0.0091032432
0.00036133756
0.0082750047
-0.0017157384
0.006565387
-0.0043468357
0.0039041749
-0.0078034547
0.00055890991
-0.012488215
-0.0024680829
-0.018462982
-0.0030273274
-0.023548816
-0.018596268
-0.0027183626
0.0091585386
-0.0031498795
0.011019095
-0.0018030296
0.0098264757
0.00046665043
0.0082792968
0.0030893526
0.0069463291
0.0057737228
0.0058545038
0.0083627968
0.004955911
0.010760287
0.0041861137
0.01289338
0.0034800336
0.014690551
0.0027780443
0.016068244
0.0020253192
0.016923193
0.0011681163
0.017119634
0.0001648964
0.016490764
-0.0010868678
0.014816787
-0.0026728587
0.011846615
-0.0048332827
0.0074354598
-0.0080770595
0.002262908
-0.01329043
-0.0012724762
-0.020013431
-0.019868744
-0.0024132765
0.011571815
2.8057535e-05
0.0085777613
0.0042551309
0.0055994023
0.0084161014
0.0041183263
0.012231447
0.0031309831
0.01565621
0.0024297408
0.01868648
0.001925641
0.021329115
0.0015434795
0.023583411
0.0012257373
0.025429147
0.0009323081
0.026820097
0.0006343698
0.027677118
0.00031109499
0.027900152
-5.8137604e-05
0.027347185
-0.00053390106
0.025771604
-0.001097277
0.022843027
-0.0019047063
0.018054756
-0.0032887886
0.011113578
-0.0063492516
0.0033886716
-0.012288525
-0.016480073
0.011571815
0.020149577
0.025748979
0.029867305
0.032998288
0.035428029
0.03735367
0.03889715
0.040122887
0.041055195
0.041689565
0.04200066
0.041942522
0.041408621
0.040311344
0.038406638
0.035117849
0.028768598
0.016480073
)
;

boundaryField
{
    movingWall
    {
        type            calculated;
        value           uniform 0;
    }
    fixedWalls
    {
        type            calculated;
        value           uniform 0;
    }
    frontAndBack
    {
        type            empty;
        value           nonuniform List<scalar> 0();
    }
}


// ************************************************************************* //
