/*--------------------------------*- C++ -*----------------------------------*\
  =========                 |
  \\      /  F ield         | OpenFOAM: The Open Source CFD Toolbox
   \\    /   O peration     | Website:  https://openfoam.org
    \\  /    A nd           | Version:  9
     \\/     M anipulation  |
\*---------------------------------------------------------------------------*/
FoamFile
{
    format      ascii;
    class       volVectorField;
    location    "21";
    object      U_0;
}
// * * * * * * * * * * * * * * * * * * * * * * * * * * * * * * * * * * * * * //

dimensions      [0 1 -1 0 0 0 0];

internalField   nonuniform List<vector> 
400
(
(0.00028436082 -0.00028145994 0)
(0.00011057859 7.9931839e-05 0)
(-0.0013272283 0.0004780102 0)
(-0.0036218726 0.000735913 0)
(-0.0064235717 0.00086750532 0)
(-0.0094313463 0.00090725474 0)
(-0.012387821 0.00087485305 0)
(-0.015056222 0.00077151884 0)
(-0.017194297 0.00058848049 0)
(-0.018552584 0.00032007987 0)
(-0.018902353 -2.4809801e-05 0)
(-0.018085898 -0.00041825707 0)
(-0.016079685 -0.00079970513 0)
(-0.013048788 -0.0010930613 0)
(-0.0093662996 -0.0012211904 0)
(-0.0055776285 -0.0011294638 0)
(-0.0023003565 -0.00081286318 0)
(-8.2989252e-05 -0.00033798501 0)
(0.00076012096 0.00015228342 0)
(0.00040943093 0.00038932829 0)
(-8.6101102e-05 -0.00012367136 0)
(-0.001869296 0.001787171 0)
(-0.0063064628 0.0036259683 0)
(-0.012452505 0.0048624008 0)
(-0.019600341 0.005498431 0)
(-0.027106518 0.0056205746 0)
(-0.034358341 0.0052859416 0)
(-0.040768227 0.0045043053 0)
(-0.045757451 0.0032661695 0)
(-0.048775154 0.0015896363 0)
(-0.049365931 -0.00043544406 0)
(-0.04725319 -0.0026181232 0)
(-0.042451462 -0.0046644427 0)
(-0.035361081 -0.0062188039 0)
(-0.026778336 -0.006937477 0)
(-0.01782711 -0.0065921793 0)
(-0.0097754846 -0.0051797263 0)
(-0.0037463059 -0.0029994241 0)
(-0.0003887813 -0.00066556031 0)
(0.00028988091 0.00078351879 0)
(-0.00058808584 0.0014335751 0)
(-0.0042427568 0.0063773699 0)
(-0.011758377 0.010640377 0)
(-0.021468335 0.013483363 0)
(-0.032365649 0.014898042 0)
(-0.043587277 0.015017126 0)
(-0.054286505 0.013935925 0)
(-0.063641509 0.011684049 0)
(-0.070854711 0.0082812425 0)
(-0.075187208 0.0038286296 0)
(-0.076038433 -0.0014058239 0)
(-0.073056736 -0.0069354689 0)
(-0.066265774 -0.012071493 0)
(-0.056168631 -0.015999961 0)
(-0.043780286 -0.017942454 0)
(-0.030568854 -0.017379708 0)
(-0.018250486 -0.014289808 0)
(-0.008417918 -0.0093122286 0)
(-0.0021511244 -0.0037618466 0)
(-1.979175e-06 0.00031692524 0)
(-0.0010530483 0.0043002874 0)
(-0.006514738 0.013565459 0)
(-0.016998802 0.020863682 0)
(-0.030030335 0.025560756 0)
(-0.044299778 0.027760943 0)
(-0.058783249 0.027687458 0)
(-0.072486276 0.025487191 0)
(-0.084445487 0.021218076 0)
(-0.093727393 0.014944919 0)
(-0.099462632 0.0068783636 0)
(-0.1009286 -0.0025011028 0)
(-0.097661384 -0.012378086 0)
(-0.089591774 -0.021604926 0)
(-0.077181137 -0.028824234 0)
(-0.061504258 -0.032705512 0)
(-0.044253077 -0.032299438 0)
(-0.027561894 -0.027445545 0)
(-0.013581617 -0.019080513 0)
(-0.004026322 -0.0092706568 0)
(-0.00026772344 -0.0011082296 0)
(-0.001455831 0.0083648438 0)
(-0.0085488703 0.023180721 0)
(-0.021745743 0.034050917 0)
(-0.03779164 0.040762211 0)
(-0.055095743 0.043700847 0)
(-0.072518081 0.043258167 0)
(-0.088982647 0.039660731 0)
(-0.10345646 0.033000804 0)
(-0.1149301 0.023383938 0)
(-0.12243474 0.011116749 0)
(-0.1251132 -0.0031286336 0)
(-0.1223179 -0.018218796 0)
(-0.11375975 -0.032540816 0)
(-0.099696761 -0.044131701 0)
(-0.081099333 -0.050965343 0)
(-0.059775505 -0.051440385 0)
(-0.038290682 -0.04501299 0)
(-0.019520214 -0.032755156 0)
(-0.0060922734 -0.01749171 0)
(-0.00051101932 -0.0035220443 0)
(-0.0017888893 0.013475133 0)
(-0.010269476 0.034960049 0)
(-0.025804927 0.049907507 0)
(-0.044465795 0.058793514 0)
(-0.064426364 0.062457061 0)
(-0.084475847 0.061549683 0)
(-0.10351457 0.056415017 0)
(-0.12050131 0.047181463 0)
(-0.13440161 0.03396996 0)
(-0.14417154 0.017132378 0)
(-0.14880112 -0.0025354969 0)
(-0.14739109 -0.023635627 0)
(-0.13930914 -0.044141549 0)
(-0.12443386 -0.061440882 0)
(-0.10343026 -0.072641024 0)
(-0.078054889 -0.075172722 0)
(-0.051260271 -0.067705789 0)
(-0.026809119 -0.051123545 0)
(-0.0086121966 -0.028965371 0)
(-0.000787064 -0.0070521277 0)
(-0.0020419859 0.019436057 0)
(-0.011605394 0.048527795 0)
(-0.02899518 0.067996813 0)
(-0.049756712 0.079224315 0)
(-0.071890218 0.083655688 0)
(-0.09416031 0.082296164 0)
(-0.11549798 0.075648385 0)
(-0.13491273 0.063875971 0)
(-0.15140085 0.047075501 0)
(-0.16388229 0.025567789 0)
(-0.17118995 0.00016355985 0)
(-0.17215224 -0.027609637 0)
(-0.16571355 -0.055394955 0)
(-0.15119011 -0.07994411 0)
(-0.12869905 -0.097349465 0)
(-0.099668826 -0.10369693 0)
(-0.067241042 -0.096284736 0)
(-0.036118696 -0.075219255 0)
(-0.011929588 -0.044539335 0)
(-0.0011708016 -0.012001397 0)
(-0.002201242 0.026012754 0)
(-0.012484479 0.06341813 0)
(-0.031139342 0.087762523 0)
(-0.053353622 0.10148811 0)
(-0.077016415 0.106775 0)
(-0.10091043 0.10507182 0)
(-0.12404819 0.097086598 0)
(-0.14554966 0.083020251 0)
(-0.16450741 0.062901614 0)
(-0.17987369 0.036930831 0)
(-0.190397 0.0057961301 0)
(-0.19465352 -0.029032269 0)
(-0.19113428 -0.065016496 0)
(-0.17848793 -0.098389159 0)
(-0.15602334 -0.12417539 0)
(-0.12444365 -0.13676075 0)
(-0.086645732 -0.13132729 0)
(-0.048063244 -0.10623151 0)
(-0.016429179 -0.065392499 0)
(-0.0017537682 -0.018878242 0)
(-0.002255673 0.032932503 0)
(-0.012853521 0.079086742 0)
(-0.032098458 0.1085327 0)
(-0.054981071 0.12486173 0)
(-0.079333799 0.13109039 0)
(-0.10399289 0.12919705 0)
(-0.12809881 0.12014952 0)
(-0.15094341 0.1042002 0)
(-0.17179557 0.081277691 0)
(-0.18974294 0.051375586 0)
(-0.20357448 0.014916062 0)
(-0.21172737 -0.026874867 0)
(-0.21232353 -0.071530597 0)
(-0.20333662 -0.11502394 0)
(-0.1830614 -0.15144472 0)
(-0.15101671 -0.17328267 0)
(-0.10916468 -0.17281967 0)
(-0.063025805 -0.14524211 0)
(-0.022524746 -0.092977036 0)
(-0.0026589273 -0.028421902 0)
(-0.0022086142 0.039903657 0)
(-0.012716965 0.094942248 0)
(-0.031841002 0.12953756 0)
(-0.054496317 0.14845568 0)
(-0.078499381 0.15563271 0)
(-0.10277014 0.15366397 0)
(-0.12662045 0.14384406 0)
(-0.14957555 0.126512 0)
(-0.17116987 0.10149182 0)
(-0.19075472 0.068517139 0)
(-0.20732609 0.027628244 0)
(-0.21937673 -0.02039297 0)
(-0.22488681 -0.073460134 0)
(-0.22130559 -0.12768658 0)
(-0.20585381 -0.17661807 0)
(-0.17647532 -0.21098938 0)
(-0.13334576 -0.21961061 0)
(-0.080898608 -0.19275182 0)
(-0.030641644 -0.12885125 0)
(-0.0040700263 -0.041636617 0)
(-0.0020933517 0.046662384 0)
(-0.012189714 0.11041646 0)
(-0.03053615 0.14996304 0)
(-0.052017456 0.17123999 0)
(-0.074464799 0.1791896 0)
(-0.096919665 0.17711854 0)
(-0.1189138 0.16672776 0)
(-0.14026629 0.1485014 0)
(-0.16086192 0.12219181 0)
(-0.18044313 0.087272705 0)
(-0.19840289 0.043353324 0)
(-0.21353679 -0.0093883527 0)
(-0.22401454 -0.069674888 0)
(-0.22708272 -0.13413129 0)
(-0.21908929 -0.19645086 0)
(-0.19626606 -0.24624957 0)
(-0.15621878 -0.26885768 0)
(-0.1007058 -0.24798576 0)
(-0.041145771 -0.17433341 0)
(-0.0062705643 -0.059833369 0)
(-0.0019963552 0.053056588 0)
(-0.011565607 0.12508143 0)
(-0.028661158 0.16904242 0)
(-0.048056902 0.19210613 0)
(-0.067638801 0.20035377 0)
(-0.086644334 0.19791031 0)
(-0.10489645 0.18696529 0)
(-0.12257009 0.16821732 0)
(-0.13996478 0.14140855 0)
(-0.15729847 0.1057992 0)
(-0.17451654 0.06057257 0)
(-0.19108466 0.0052270345 0)
(-0.2056025 -0.059920749 0)
(-0.21550661 -0.13260592 0)
(-0.21690187 -0.20752565 0)
(-0.20457827 -0.27431572 0)
(-0.17317484 -0.3157153 0)
(-0.12017076 -0.30807746 0)
(-0.054147297 -0.22988199 0)
(-0.0096748451 -0.084652461 0)
(-0.0020996509 0.059183488 0)
(-0.01141508 0.13881396 0)
(-0.027115839 0.1861708 0)
(-0.043625549 0.20994427 0)
(-0.058982148 0.21759881 0)
(-0.072778945 0.2141954 0)
(-0.08525127 0.20247184 0)
(-0.097002643 0.18339303 0)
(-0.10879024 0.15675578 0)
(-0.12135205 0.12168653 0)
(-0.13525577 0.077016226 0)
(-0.15070457 0.021619447 0)
(-0.16712379 -0.045109208 0)
(-0.18274158 -0.12251431 0)
(-0.19405482 -0.20712425 0)
(-0.19523594 -0.29011268 0)
(-0.17829473 -0.35358291 0)
(-0.13540557 -0.36743593 0)
(-0.06908894 -0.29415116 0)
(-0.014794977 -0.11798369 0)
(-0.0027677638 0.065619325 0)
(-0.012741308 0.15199694 0)
(-0.027330663 0.200995 0)
(-0.040245573 0.22368114 0)
(-0.049929959 0.22932842 0)
(-0.056645061 0.22403542 0)
(-0.061234441 0.21107902 0)
(-0.064818036 0.19168083 0)
(-0.068622858 0.16572014 0)
(-0.073877233 0.13227385 0)
(-0.081730452 0.089961072 0)
(-0.093122322 0.037201313 0)
(-0.1084714 -0.027477682 0)
(-0.12721578 -0.10497488 0)
(-0.14705594 -0.19421919 0)
(-0.16280482 -0.28948481 0)
(-0.16509165 -0.37509765 0)
(-0.14090192 -0.41772515 0)
(-0.084061639 -0.36281238 0)
(-0.022011607 -0.16157326 0)
(-0.0047196622 0.073834329 0)
(-0.017222799 0.16572515 0)
(-0.031285161 0.21337651 0)
(-0.039684461 0.23217211 0)
(-0.041885122 0.23380041 0)
(-0.039353063 0.22539286 0)
(-0.03381479 0.21061121 0)
(-0.027002795 0.19081005 0)
(-0.020594548 0.16589781 0)
(-0.016217991 0.13493959 0)
(-0.015478896 0.096471668 0)
(-0.019928009 0.048691087 0)
(-0.03092094 -0.010411481 0)
(-0.049236407 -0.082919216 0)
(-0.074400993 -0.17014191 0)
(-0.10327822 -0.27050136 0)
(-0.12725574 -0.37369411 0)
(-0.12973566 -0.44868647 0)
(-0.094915042 -0.42750566 0)
(-0.030930678 -0.2161273 0)
(-0.0093000763 0.086951946 0)
(-0.027432477 0.18185262 0)
(-0.040982486 0.2230323 0)
(-0.042680764 0.23378808 0)
(-0.034407109 0.22880077 0)
(-0.019624646 0.21592166 0)
(-0.0012406838 0.19877906 0)
(0.018343133 0.17856419 0)
(0.03706905 0.15508346 0)
(0.053053286 0.12735967 0)
(0.06441927 0.09393691 0)
(0.069228772 0.053015435 0)
(0.065413058 0.0024635781 0)
(0.051045542 -0.060338365 0)
(0.024641261 -0.13837572 0)
(-0.013703445 -0.23417062 0)
(-0.058755011 -0.34516957 0)
(-0.093511731 -0.44953918 0)
(-0.094470258 -0.47558739 0)
(-0.039216174 -0.28048225 0)
(-0.018580368 0.11087147 0)
(-0.046039951 0.20177618 0)
(-0.055230747 0.22793091 0)
(-0.043985951 0.22501668 0)
(-0.019373952 0.21061191 0)
(0.012331608 0.19227909 0)
(0.046991082 0.17278423 0)
(0.081752016 0.15265354 0)
(0.11443568 0.13135272 0)
(0.14315104 0.10779572 0)
(0.1660147 0.080592049 0)
(0.18097917 0.048112774 0)
(0.18557423 0.0084499748 0)
(0.17716404 -0.040816827 0)
(0.15275799 -0.10317562 0)
(0.10948754 -0.18390574 0)
(0.047239487 -0.2885543 0)
(-0.021440019 -0.41051004 0)
(-0.072253298 -0.49101659 0)
(-0.041147565 -0.3505426 0)
(-0.033352251 0.15561556 0)
(-0.068601771 0.22040436 0)
(-0.055187726 0.21729191 0)
(-0.016079383 0.19532387 0)
(0.034510067 0.17092286 0)
(0.08850638 0.14849404 0)
(0.1417669 0.12861212 0)
(0.19196717 0.11057727 0)
(0.23753874 0.093297485 0)
(0.27711822 0.075575167 0)
(0.30921631 0.056181733 0)
(0.33204162 0.033823696 0)
(0.34317417 0.0070277161 0)
(0.33982757 -0.025910035 0)
(0.31813142 -0.067741389 0)
(0.27327637 -0.12410768 0)
(0.20044655 -0.20584695 0)
(0.10213928 -0.325069 0)
(-0.012387542 -0.45457154 0)
(-0.023756725 -0.40864057 0)
(-0.03308109 0.23907329 0)
(-0.042647101 0.21792019 0)
(0.042207187 0.16426622 0)
(0.12760435 0.12783559 0)
(0.20769746 0.10143522 0)
(0.28028078 0.081657876 0)
(0.34487201 0.066647889 0)
(0.40158172 0.054702882 0)
(0.45054921 0.044399414 0)
(0.49161896 0.034639972 0)
(0.52416047 0.024550724 0)
(0.54698482 0.013381901 0)
(0.55822131 0.00039996454 0)
(0.55570857 -0.01513711 0)
(0.53552559 -0.034968994 0)
(0.49244614 -0.062488064 0)
(0.41797241 -0.10694756 0)
(0.30410573 -0.19317542 0)
(0.12313769 -0.33691904 0)
(0.052374164 -0.39437912 0)
(0.2429993 0.15257484 0)
(0.30529629 0.11854293 0)
(0.45481228 0.07610817 0)
(0.56000891 0.050840181 0)
(0.63223315 0.035126042 0)
(0.68654893 0.02481225 0)
(0.72943789 0.017960046 0)
(0.76379582 0.013255891 0)
(0.79127872 0.0097621915 0)
(0.81275089 0.0068543771 0)
(0.82841084 0.0041185573 0)
(0.83794352 0.0012769085 0)
(0.84057041 -0.0018441548 0)
(0.83497536 -0.0053262125 0)
(0.81886688 -0.009828923 0)
(0.78942865 -0.016232723 0)
(0.7378429 -0.026935698 0)
(0.65316766 -0.051286555 0)
(0.45609768 -0.11374604 0)
(0.31788988 -0.17206003 0)
)
;

boundaryField
{
    movingWall
    {
        type            fixedValue;
        value           uniform (1 0 0);
    }
    fixedWalls
    {
        type            fixedValue;
        value           uniform (0 0 0);
    }
    frontAndBack
    {
        type            empty;
    }
}


// ************************************************************************* //
