/*--------------------------------*- C++ -*----------------------------------*\
  =========                 |
  \\      /  F ield         | OpenFOAM: The Open Source CFD Toolbox
   \\    /   O peration     | Website:  https://openfoam.org
    \\  /    A nd           | Version:  9
     \\/     M anipulation  |
\*---------------------------------------------------------------------------*/
FoamFile
{
    format      ascii;
    class       volScalarField;
    location    "44";
    object      p;
}
// * * * * * * * * * * * * * * * * * * * * * * * * * * * * * * * * * * * * * //

dimensions      [0 2 -2 0 0 0 0];

internalField   nonuniform List<scalar> 
400
(
1.507339e-09
-0.00067287436
-0.0013853522
-0.0019427103
-0.0022200033
-0.0021565002
-0.0017277961
-0.00092620604
0.000235414
0.0017073979
0.0033872771
0.0051121867
0.0066734714
0.0078491021
0.0084583964
0.0084236956
0.0078134084
0.0068445242
0.0058612993
0.0052989396
0.00065784033
-4.0526871e-05
-0.0005696608
-0.00094062673
-0.0011108643
-0.0010399218
-0.00070579117
-9.5546779e-05
0.00078909584
0.0019161813
0.003209579
0.0045546959
0.0057819539
0.0067162514
0.0072144248
0.0072145329
0.0067699571
0.0060527665
0.0053105229
0.0047384807
0.0014236977
0.00044064833
-0.00011660148
-0.00045324487
-0.00061481013
-0.00058481223
-0.0003465805
0.00011974238
0.0008284566
0.0017699007
0.002894283
0.0040981518
0.0052282212
0.0061109516
0.0065938501
0.0065976513
0.0061557279
0.0054215015
0.0045937378
0.0037482283
0.0020141922
0.00068168236
1.6766483e-05
-0.00035885584
-0.00057155226
-0.00062656295
-0.00051008548
-0.00019063292
0.00036849922
0.0011843811
0.0022299056
0.003417415
0.0045913482
0.0055569191
0.0061235338
0.0061665463
0.0056836104
0.0048170421
0.0037472858
0.0024735939
0.0021672628
0.00049611146
-0.00029626483
-0.0007487102
-0.0010582581
-0.0012452768
-0.0012927565
-0.0011513094
-0.00075505522
-5.3103496e-05
0.0009570212
0.0022102789
0.0035447047
0.0047326563
0.0055218342
0.0057098733
0.0052292752
0.0042015941
0.0028061762
0.00098395459
0.001653954
-0.00031448685
-0.0012387954
-0.0017993082
-0.0022526686
-0.0026279174
-0.0028986328
-0.0029910961
-0.0028025477
-0.0022376828
-0.0012510987
0.00013089174
0.0017446467
0.0033271096
0.0045416388
0.005065767
0.0047174792
0.003566183
0.0017895812
-0.0007259326
0.00028701643
-0.0019195783
-0.0029730067
-0.0036713905
-0.0043203034
-0.0049532071
-0.0055301311
-0.0059479708
-0.006059023
-0.005707397
-0.0047757268
-0.0032587064
-0.0012665204
0.00090716801
0.002823117
0.0039868228
0.0040250769
0.0028876903
0.00071536372
-0.0026805144
-0.0020764389
-0.0044512002
-0.0056268116
-0.0064923305
-0.0073929271
-0.0083657676
-0.0093569274
-0.010231797
-0.010790995
-0.01080487
-0.010063386
-0.0084617842
-0.0060407883
-0.0030832358
-0.00012632281
0.0021126073
0.0029638098
0.0021355637
-0.00036605105
-0.0048726268
-0.0055241779
-0.0079921242
-0.0092779294
-0.010333797
-0.011538006
-0.012935423
-0.014462712
-0.015956326
-0.017162483
-0.017766064
-0.017438114
-0.015919501
-0.013122982
-0.0092517796
-0.0048990266
-0.0010300335
0.0012693921
0.0012777459
-0.0013339755
-0.007201695
-0.010076923
-0.012565109
-0.013936678
-0.015184014
-0.016718389
-0.018602635
-0.020774209
-0.023048768
-0.025121693
-0.026586372
-0.02696938
-0.025812972
-0.022845702
-0.018074471
-0.012051112
-0.0059519732
-0.0013707585
0.00030057531
-0.0019472209
-0.0093822428
-0.015684997
-0.018132427
-0.019537576
-0.020926826
-0.022757753
-0.025129893
-0.027997029
-0.031166418
-0.034291476
-0.036876862
-0.038294199
-0.037844312
-0.035065887
-0.029601496
-0.021822521
-0.012985598
-0.0051849961
-0.00071577006
-0.0017642178
-0.010792273
-0.02224361
-0.024613048
-0.025945612
-0.027334983
-0.029324184
-0.032079247
-0.035588971
-0.039664685
-0.0439273
-0.047801323
-0.050530211
-0.05123651
-0.048956912
-0.043143579
-0.033769043
-0.021926366
-0.010036904
-0.0014154637
-9.8855732e-06
-0.010225637
-0.029641234
-0.031923905
-0.032978756
-0.034079893
-0.035939548
-0.038831543
-0.042795641
-0.047651625
-0.052990581
-0.058163626
-0.062284277
-0.064265559
-0.062875188
-0.057112217
-0.04647677
-0.031649112
-0.015037883
-0.0008644089
0.0046467456
-0.0055215546
-0.037866033
-0.040048534
-0.040440137
-0.040752521
-0.042015087
-0.044653106
-0.048758217
-0.054144086
-0.060356072
-0.06666539
-0.072060724
-0.075268313
-0.07481139
-0.069269294
-0.057628333
-0.039961532
-0.018247992
0.0027890206
0.014445141
0.0069075323
-0.04723062
-0.049134398
-0.048140591
-0.046882279
-0.046905515
-0.048798734
-0.052668325
-0.058276039
-0.065076128
-0.072232028
-0.078595802
-0.082712352
-0.082880238
-0.077309417
-0.064523963
-0.043934976
-0.016748006
0.012502932
0.03293877
0.03240894
-0.058896819
-0.059639925
-0.055883956
-0.051941047
-0.049972307
-0.050629894
-0.053928683
-0.059495378
-0.066611892
-0.074285326
-0.081191199
-0.085679435
-0.085831827
-0.079522221
-0.064876124
-0.040689287
-0.0072409369
0.032139358
0.064981439
0.07774917
-0.076226543
-0.072613745
-0.063516243
-0.055435422
-0.050725025
-0.049781597
-0.052312357
-0.057664395
-0.064891854
-0.072775004
-0.079779398
-0.084036778
-0.083391685
-0.07534899
-0.057602698
-0.02837516
0.012933313
0.065396465
0.1155515
0.15150622
-0.10809229
-0.089556322
-0.071233872
-0.057233074
-0.049072181
-0.046330241
-0.048077284
-0.053202631
-0.060434653
-0.068295897
-0.075027426
-0.078526946
-0.076389038
-0.065809704
-0.043865505
-0.0078184684
0.044393654
0.11299814
0.18838042
0.27186076
-0.17684563
-0.10828968
-0.076202461
-0.054651257
-0.042992416
-0.038998064
-0.04057054
-0.045928072
-0.053441568
-0.06143839
-0.068027617
-0.07096259
-0.067551164
-0.054739864
-0.02914884
0.01356358
0.078146942
0.17006435
0.28949545
0.47421821
-0.37208369
-0.12470859
-0.054973108
-0.031962539
-0.022063582
-0.020300551
-0.024359488
-0.031958031
-0.041261591
-0.050640918
-0.058316933
-0.062187496
-0.059782586
-0.04805684
-0.022658555
0.021474186
0.092818705
0.21015276
0.40288841
0.77640928
)
;

boundaryField
{
    movingWall
    {
        type            zeroGradient;
    }
    fixedWalls
    {
        type            zeroGradient;
    }
    frontAndBack
    {
        type            empty;
    }
}


// ************************************************************************* //
