/*--------------------------------*- C++ -*----------------------------------*\
  =========                 |
  \\      /  F ield         | OpenFOAM: The Open Source CFD Toolbox
   \\    /   O peration     | Website:  https://openfoam.org
    \\  /    A nd           | Version:  9
     \\/     M anipulation  |
\*---------------------------------------------------------------------------*/
FoamFile
{
    format      ascii;
    class       volScalarField;
    location    "0.62";
    object      alpha.phase1;
}
// * * * * * * * * * * * * * * * * * * * * * * * * * * * * * * * * * * * * * //

dimensions      [0 0 0 0 0 0 0];

internalField   nonuniform List<scalar> 
10000
(
4.6711248e-84
4.671189e-84
7.9338231e-83
3.4864885e-81
5.7179254e-81
3.0336831e-81
8.9743143e-82
2.4984041e-82
2.1593911e-82
2.161078e-82
6.3497702e-81
1.6811653e-78
8.5315174e-77
1.1091749e-75
6.3831758e-75
2.3988737e-74
6.9844799e-74
1.9902393e-73
7.3399783e-72
1.0272637e-69
1.3650098e-67
1.6877893e-65
1.9497915e-63
2.113224e-61
2.1574937e-59
2.0834948e-57
1.91155e-55
1.6694678e-53
1.3880437e-51
1.3146247e-49
3.6088982e-47
4.2865449e-45
5.5136073e-44
1.6435072e-43
3.4741001e-43
3.0307926e-43
1.568456e-43
1.5842351e-43
2.0029104e-42
1.0078302e-40
4.2254356e-39
1.4263365e-37
3.4983889e-36
6.6864438e-35
1.108233e-33
1.0867457e-32
8.1545866e-32
1.2370847e-30
3.4548275e-29
1.0787857e-27
3.3786583e-26
1.0171801e-24
2.975399e-23
8.8936876e-22
4.546736e-21
5.6545249e-21
1.5885343e-21
2.5913526e-22
2.3054267e-23
4.9295686e-25
1.82235e-26
1.3792884e-27
1.9458712e-28
1.0532912e-29
4.4130327e-31
1.827715e-32
7.1924457e-34
2.63954e-35
8.9798241e-37
2.8185851e-38
8.1254964e-40
2.1423907e-41
5.145986e-43
1.1218393e-44
2.2115955e-46
3.9285243e-48
6.2647995e-50
8.9349115e-52
1.1351116e-53
1.2790164e-55
1.2722335e-57
1.1112842e-59
8.4745729e-62
5.6036372e-64
3.1889814e-66
1.5483747e-68
6.3507248e-71
2.1857334e-73
7.3260868e-76
4.4603953e-78
1.6161561e-80
5.1612615e-83
5.0868136e-83
7.0231926e-83
2.8961621e-82
1.6619267e-81
5.9489664e-81
6.5534642e-81
6.6690786e-81
6.7147594e-81
5.2301389e-84
7.7812475e-83
2.7565659e-81
4.1164445e-80
7.3719929e-80
6.5417505e-80
4.800148e-80
2.3147746e-80
4.8406641e-81
3.8782545e-82
5.0191125e-81
1.0863631e-78
6.4463512e-77
8.8999532e-76
5.8632153e-75
2.2702128e-74
8.6056945e-74
3.8071036e-72
5.8266777e-70
8.5087437e-68
1.1496174e-65
1.443637e-63
1.6916225e-61
1.8575347e-59
1.9188182e-57
1.8725003e-55
1.7334554e-53
1.5185817e-51
1.2832715e-49
1.7183607e-47
7.0257849e-45
3.6436379e-43
1.7247491e-42
2.1279063e-42
2.9808621e-41
1.1143627e-40
1.031581e-40
4.5705365e-41
8.7309772e-40
4.3041799e-38
1.7873766e-36
6.0661435e-35
1.4647106e-33
1.7520819e-32
1.0380114e-31
6.52057e-31
9.2105857e-30
1.9282538e-28
3.8414109e-27
5.3971478e-26
1.0517296e-24
3.0631408e-23
9.2242884e-22
4.5741806e-21
1.9392057e-20
5.5571138e-20
1.1213009e-19
5.2567093e-20
7.277842e-21
1.5888486e-22
1.6605028e-24
2.8941843e-25
5.1964929e-26
2.4479073e-27
9.5697316e-29
3.8478027e-30
1.4668236e-31
5.1991044e-33
1.7056239e-34
5.1568258e-36
1.4307138e-37
3.627485e-39
8.3718651e-41
1.7518759e-42
3.311183e-44
5.6317709e-46
8.586132e-48
1.1689143e-49
1.4144706e-51
1.5133681e-53
1.4256724e-55
1.1741457e-57
8.4057053e-60
5.1895601e-62
2.7392541e-64
1.2218862e-66
4.5506609e-69
1.3898527e-71
3.4139134e-74
6.7963602e-77
1.0915963e-79
1.0174808e-81
3.3043399e-81
1.5102338e-80
6.3341955e-80
1.3366538e-79
8.8146302e-80
4.4873192e-80
6.9561901e-81
7.2308371e-81
6.4248451e-81
1.2292684e-79
4.5258546e-78
4.0848177e-77
5.9395848e-77
4.9953173e-77
3.4360656e-77
1.5988897e-77
3.4891169e-78
3.2553913e-79
2.5804356e-80
9.562663e-79
5.0506402e-77
3.6849308e-76
4.7744726e-75
4.7656652e-73
1.5549149e-71
2.6148093e-69
4.2207886e-67
6.2662725e-65
8.585102e-63
1.0918327e-60
1.2938892e-58
1.4360759e-56
1.4978733e-54
1.4749419e-52
1.3764358e-50
1.2140964e-48
1.0333673e-46
1.4251294e-44
5.9645472e-42
3.0790688e-40
1.4704445e-39
1.8993066e-39
3.1125482e-38
1.1865823e-37
1.1427225e-37
4.0608649e-38
2.2208022e-37
1.0850895e-35
4.4492905e-34
1.4868749e-32
3.4853615e-31
3.9355725e-30
2.1292651e-29
1.1764297e-28
1.5919054e-27
3.4135765e-26
7.3547213e-25
1.4910143e-23
2.3605902e-22
4.3981468e-21
1.2824553e-19
6.1535592e-19
4.1257329e-18
8.7981706e-18
1.2575204e-17
6.137377e-18
1.0219542e-18
2.9204648e-20
4.4177453e-22
4.6449446e-23
7.0265766e-24
3.5116876e-25
1.4166918e-26
5.679314e-28
2.1470785e-29
7.5154962e-31
2.4243037e-32
7.1773747e-34
1.9426298e-35
4.7886759e-37
1.0711196e-38
2.1659517e-40
3.9447577e-42
6.4465778e-44
9.4136389e-46
1.2237456e-47
1.407794e-49
1.427182e-51
1.2663569e-53
9.7813374e-56
6.5189916e-58
3.7166546e-60
1.7921519e-62
7.21302e-65
2.3853379e-67
6.5459987e-70
1.5388971e-72
2.8975821e-75
1.2234754e-77
8.5564313e-79
5.2680622e-78
2.0199285e-77
7.4803384e-77
1.4499433e-76
1.1803781e-76
6.3166765e-77
1.6082193e-77
1.1991198e-77
3.5085059e-78
1.066174e-76
4.0631529e-75
2.4171842e-74
3.1222651e-74
2.5957019e-74
1.7431555e-74
7.9496254e-75
1.7313947e-75
2.3569309e-76
1.2628871e-77
1.1019134e-78
1.3070835e-76
5.7079489e-73
2.0096335e-70
1.8601876e-69
8.2180852e-69
1.3275341e-66
2.1910613e-64
3.316608e-62
4.6278517e-60
5.977288e-58
7.1855032e-56
8.0732634e-54
8.5171395e-52
8.4719141e-50
7.9792409e-48
7.0920954e-46
6.0834266e-44
8.6581598e-42
3.6971844e-39
1.8973974e-37
9.1672562e-37
1.2482089e-36
2.3199296e-35
9.1642658e-35
9.2390263e-35
3.2667199e-35
4.1293564e-35
1.9766566e-33
8.0119184e-32
2.6399521e-30
5.9945286e-29
6.2932538e-28
2.9977306e-27
1.4107954e-26
1.7999879e-25
3.908566e-24
8.1057469e-23
1.7353703e-21
3.4009758e-20
5.6228016e-19
1.1446959e-17
9.1461977e-17
4.0007275e-16
7.9055406e-16
9.982392e-16
5.0663059e-16
9.8184478e-17
4.6424177e-18
7.5607963e-20
6.8554994e-21
7.5912416e-22
3.8791064e-23
1.6112306e-24
6.4478143e-26
2.4115691e-27
8.2981452e-29
2.6151139e-30
7.5204582e-32
1.9671585e-33
4.6649547e-35
9.9943909e-37
1.9274508e-38
3.3336887e-40
5.1513978e-42
7.082911e-44
8.6291066e-46
9.2501515e-48
8.6901843e-50
7.0971223e-52
5.0524924e-54
3.2061099e-56
1.7947347e-58
8.4986347e-61
3.3604239e-63
1.0927823e-65
2.8641919e-68
5.9650125e-71
2.5046666e-73
7.434802e-75
1.0848908e-75
5.8773178e-75
1.9592717e-74
6.4398855e-74
1.1421306e-73
1.0128739e-73
5.4036607e-74
1.559577e-74
8.9710023e-75
1.4597403e-75
5.4735644e-74
2.1206337e-72
1.0501048e-71
1.2602006e-71
1.0430985e-71
6.8996049e-72
3.1063515e-72
6.7774969e-73
1.2007677e-73
3.993051e-75
3.3444847e-76
6.2419634e-74
5.7225593e-70
1.4614944e-67
9.5852876e-67
3.1107429e-66
5.0866922e-64
8.648666e-62
1.3422193e-59
1.9157078e-57
2.5249559e-55
3.0899835e-53
3.5287769e-51
3.7765313e-49
3.8035146e-47
3.6194596e-45
3.2434957e-43
2.8039582e-41
4.1351024e-39
1.8153571e-36
9.2701899e-35
4.4864234e-34
6.2099561e-34
1.2682782e-32
5.4029519e-32
5.8284079e-32
2.120032e-32
7.0949277e-33
2.8009607e-31
1.1261928e-29
3.6721879e-28
8.0706976e-27
7.8171542e-26
3.1973946e-25
1.2497202e-24
1.4681918e-23
3.169014e-22
6.2815878e-21
1.3118516e-19
2.6767208e-18
5.4290531e-17
1.0354985e-15
5.4875088e-15
1.5544784e-14
2.6072671e-14
4.3468948e-14
2.7331601e-14
6.8505489e-15
5.1673499e-16
9.0162732e-18
9.1176467e-19
7.0228339e-20
3.4964592e-21
1.4924717e-22
5.9658057e-24
2.1974772e-25
7.3786622e-27
2.2492254e-28
6.2026303e-30
1.5443085e-31
3.4635756e-33
6.9739355e-35
1.2558705e-36
2.0147158e-38
2.8723112e-40
3.6899062e-42
4.4442535e-44
4.7465517e-46
4.4322111e-48
3.5981496e-50
2.5216194e-52
1.5129751e-54
7.6886394e-57
3.2698731e-59
1.1456886e-61
3.2447533e-64
7.2734257e-67
2.2992129e-69
1.3470705e-70
3.9392415e-72
1.1068085e-72
5.0147674e-72
1.4660596e-71
4.2885133e-71
7.078618e-71
6.487385e-71
3.3911951e-71
1.0248843e-71
5.0587635e-72
4.9204272e-73
2.0535185e-71
8.0073491e-70
3.6015879e-69
4.1245714e-69
3.409034e-69
2.2350294e-69
9.983423e-70
2.1940844e-70
4.6340482e-71
2.0319048e-71
8.7833345e-73
1.5641848e-69
2.1401419e-66
6.8932447e-65
3.4244983e-64
8.6929144e-64
1.5064893e-61
2.6632218e-59
4.2750602e-57
6.275384e-55
8.4900049e-53
1.062346e-50
1.2361285e-48
1.3446581e-46
1.3736864e-44
1.3240033e-42
1.1992922e-40
1.0475702e-38
1.6111815e-36
7.329112e-34
3.7239526e-32
1.7887605e-31
2.442994e-31
5.346907e-30
2.4955242e-29
2.9126233e-29
1.109075e-29
1.7906426e-30
3.2424024e-29
1.3020625e-27
4.2241286e-26
9.0033021e-25
7.9785194e-24
2.7365495e-23
8.6828626e-23
9.0320766e-22
1.9353184e-20
3.8026364e-19
7.3436651e-18
1.5361325e-16
2.9608946e-15
2.9520004e-14
1.3351742e-13
2.9361295e-13
4.0673085e-13
7.5330688e-13
7.1063155e-13
2.980894e-13
3.9886436e-14
1.3282661e-15
8.9774667e-17
5.4160079e-18
2.6446873e-19
1.1488156e-20
4.5637359e-22
1.6417274e-23
5.3092537e-25
1.5379849e-26
3.9743951e-28
9.1580414e-30
1.8814309e-31
3.4353823e-33
5.6332567e-35
9.7979266e-37
1.584515e-38
2.0395603e-40
2.2955804e-42
2.2623632e-44
1.9373014e-46
1.4316153e-48
9.0521097e-51
4.8480935e-53
2.1722911e-55
8.0177819e-58
2.3896384e-60
5.6058426e-63
1.253336e-65
9.0981079e-67
5.0595489e-68
1.6185146e-69
9.5644795e-70
3.3997884e-69
8.8498696e-69
2.3090801e-68
3.5563838e-68
3.2874081e-68
1.6649727e-68
5.0977197e-69
2.2692047e-69
1.401584e-70
6.1532301e-69
2.4018067e-67
1.0207186e-66
1.1347986e-66
9.3787458e-67
6.1209704e-67
2.7260519e-67
6.0561288e-68
1.4388328e-68
4.9049514e-68
2.1011205e-69
2.6882602e-66
1.7072696e-63
2.4312902e-62
9.7055153e-62
1.7946863e-61
3.3984122e-59
6.3440022e-57
1.0659326e-54
1.6260335e-52
2.2708062e-50
2.922343e-48
3.4856901e-46
3.8764071e-44
4.0379954e-42
3.9556186e-40
3.6274225e-38
3.2075412e-36
5.1784549e-34
2.4746196e-31
1.2566616e-29
5.9457355e-29
7.7994989e-29
1.8179321e-27
9.2285333e-27
1.1594048e-26
4.6570422e-27
6.94476e-28
3.1336283e-27
1.2821078e-25
4.1713807e-24
8.652275e-23
6.9635177e-22
1.9508703e-21
4.9262333e-21
4.3053175e-20
9.2210156e-19
1.7943082e-17
3.4112196e-16
6.7485415e-15
6.4325872e-14
9.591461e-13
4.1693311e-12
9.4049219e-12
1.4118212e-11
1.7987344e-11
2.192033e-11
1.0554285e-11
1.8711695e-12
1.1663641e-13
6.2153642e-15
3.4591619e-16
1.7292443e-17
7.5627576e-19
2.9557246e-20
1.0263271e-21
3.1181059e-23
8.2711738e-25
1.9025327e-26
3.7905117e-28
7.3215018e-30
1.6969638e-31
3.5302793e-33
5.4559933e-35
7.3105797e-37
8.608663e-39
8.840371e-41
7.8731314e-43
6.039571e-45
3.9577108e-47
2.1928846e-49
1.0136562e-51
3.8460549e-54
1.1727075e-56
2.793925e-59
5.3284094e-62
2.1494078e-63
2.7954343e-64
1.4479594e-65
5.7115113e-67
6.7172255e-67
1.8793864e-66
4.4112319e-66
1.0327022e-65
1.4829769e-65
1.363892e-65
6.6495259e-66
2.0305894e-66
8.3790664e-67
3.4847224e-68
1.5439181e-66
6.0089079e-65
2.4660852e-64
2.690306e-64
2.2272794e-64
1.4517026e-64
6.4685645e-65
1.4610199e-65
3.6583804e-66
2.6961755e-65
1.347664e-66
3.376673e-63
5.8838996e-61
6.2707972e-60
2.1995836e-59
4.3868594e-59
6.0663009e-57
1.1617884e-54
2.0667482e-52
3.318259e-50
4.8395673e-48
6.4579662e-46
7.9487763e-44
9.0801604e-42
9.6793884e-40
9.6692409e-38
9.0197701e-36
8.0981218e-34
1.3864547e-31
7.0681926e-29
3.6193917e-27
1.6887377e-26
2.1143658e-26
5.1855076e-25
2.7819993e-24
3.6761874e-24
1.5856988e-24
2.4555332e-25
2.5520858e-25
1.0981727e-23
3.6360805e-22
7.3959947e-21
5.3419556e-20
1.1873538e-19
2.3665112e-19
1.6071906e-18
3.4545983e-17
6.8760241e-16
1.4099302e-14
1.339016e-13
1.0191133e-12
2.1870962e-11
1.1241136e-10
2.578198e-10
4.1622244e-10
3.5909232e-10
5.9555331e-10
3.3472653e-10
7.5164085e-11
4.886579e-12
2.0625198e-13
1.6320677e-14
9.4266574e-16
4.0553028e-17
1.5524848e-18
5.1705887e-20
1.3920799e-21
3.033012e-23
6.6560446e-25
1.8562623e-26
4.6700802e-28
8.7721301e-30
1.3924804e-31
1.938446e-33
2.3544487e-35
2.4828162e-37
2.262492e-39
1.769779e-41
1.1784181e-43
6.6053509e-46
3.0742764e-48
1.1670976e-50
3.529411e-53
8.2271989e-56
1.4349495e-58
1.995433e-60
5.513539e-61
6.6787509e-62
3.4251052e-63
1.931808e-64
3.8260347e-64
8.6391021e-64
1.8447063e-63
3.9029669e-63
5.2288187e-63
4.7415664e-63
2.2171757e-63
6.7030026e-64
2.6073492e-64
7.7718936e-66
3.3451425e-64
1.2926135e-62
5.1946207e-62
5.6011128e-62
4.6526008e-62
3.035474e-62
1.3565044e-62
3.1240504e-63
6.8760191e-64
5.4263623e-63
5.7355846e-62
5.3881995e-60
1.6484051e-58
1.3171922e-57
4.1147246e-57
2.2446494e-56
1.8806509e-54
2.085597e-52
3.2689769e-50
5.2933176e-48
8.0784865e-46
1.1299163e-43
1.4455097e-41
1.7085954e-39
1.8746167e-37
1.9214593e-35
1.8318663e-33
1.6790742e-31
3.0785314e-29
1.7003127e-26
8.8820094e-25
4.1235827e-24
5.0193129e-24
1.3177242e-22
6.9859064e-22
9.3092211e-22
4.2426645e-22
6.7622258e-23
1.8750708e-23
8.3255409e-22
2.8586085e-20
5.7659682e-19
3.6753713e-18
6.3428752e-18
1.0133334e-17
4.6115246e-17
1.0466272e-15
2.1413387e-14
2.6457106e-13
1.1743887e-12
2.1989014e-11
4.4240618e-10
2.437901e-09
5.6288502e-09
9.653461e-09
7.7765247e-09
1.404937e-08
8.9710942e-09
4.0347247e-09
1.6122573e-10
1.0831323e-12
1.0085217e-13
2.5215441e-14
1.87692e-15
6.3256093e-17
2.2948993e-18
5.0476647e-20
1.1858812e-21
3.5053324e-23
7.7537201e-25
1.4598077e-26
2.3985979e-28
3.4201224e-30
4.2229387e-32
4.5004469e-34
4.120326e-36
3.2196879e-38
2.1291979e-40
1.1779522e-42
5.3695461e-45
1.9763684e-47
5.7119744e-50
1.2416888e-52
1.9278608e-55
1.5777175e-57
4.9851665e-58
1.1236216e-58
1.3781405e-59
7.0216559e-61
6.7999265e-62
1.7656255e-61
3.3489748e-61
6.5587913e-61
1.2631927e-60
1.5783418e-60
1.4056943e-60
6.2887366e-61
1.8763772e-61
6.9546136e-62
1.593866e-63
6.3995994e-62
2.4426927e-60
9.7023548e-60
1.0396006e-59
8.6742769e-60
5.6743119e-60
2.548646e-60
5.9737424e-61
1.2756607e-61
8.3396496e-61
5.2029491e-59
2.3603202e-57
3.9867397e-56
2.4606187e-55
7.5768035e-55
7.6530184e-54
7.3668742e-52
7.1162612e-50
7.7763024e-48
7.8820113e-46
1.0128735e-43
1.2492246e-41
1.5550782e-39
1.8805908e-37
2.127528e-35
2.254081e-33
2.2201673e-31
2.0965858e-29
3.6599845e-27
2.0247202e-24
1.3520264e-22
1.0002799e-21
3.37001e-21
5.5045079e-20
1.6305808e-19
1.908522e-19
8.6943504e-20
1.4078172e-20
1.6098366e-21
5.6670165e-20
2.0462199e-18
4.1059865e-17
2.288604e-16
3.1225183e-16
3.8372025e-16
9.9910102e-16
2.5951918e-14
3.5188999e-13
1.4624477e-12
2.291295e-11
4.489448e-10
7.7438403e-09
4.2736742e-08
9.7598014e-08
1.7919553e-07
1.7163522e-07
2.762507e-07
5.9721733e-07
1.7169283e-07
4.8176666e-10
3.5069813e-11
3.473041e-12
2.5861243e-13
3.1411749e-14
2.0758399e-15
7.9048763e-17
1.6965786e-18
4.3086773e-20
9.9334717e-22
1.934797e-23
3.2395161e-25
4.6546159e-27
5.7321464e-29
6.038758e-31
5.4183638e-33
4.1152761e-35
2.6240981e-37
1.3854259e-39
5.9597592e-42
2.0304908e-44
5.3084587e-47
1.0121084e-49
2.1702465e-52
9.0413157e-55
3.45314e-55
8.3315163e-56
1.9665771e-56
2.4167878e-57
1.2788094e-58
2.4331093e-59
6.746868e-59
1.109897e-58
1.9980616e-58
3.5376091e-58
4.1222147e-58
3.5957146e-58
1.538993e-58
4.526089e-59
1.6111906e-59
3.0750906e-61
1.0999049e-59
4.1200045e-58
1.6283747e-57
1.7406643e-57
1.4602925e-57
9.5902105e-58
4.337078e-58
1.0284234e-58
2.4345264e-59
1.5531501e-58
1.7914669e-56
6.1032768e-55
7.5025323e-54
4.0157901e-53
1.1691764e-52
1.5967515e-51
2.1802698e-49
2.3527793e-47
2.1535346e-45
1.9160887e-43
1.8292079e-41
1.9694132e-39
2.2901054e-37
2.7966685e-35
3.3376472e-33
3.6748894e-31
3.7484594e-29
3.6616078e-27
7.6485939e-25
5.33841e-22
3.3401207e-20
1.8787381e-19
3.4367273e-19
7.0938034e-18
2.4631648e-17
2.8514e-17
1.3048211e-17
2.1704236e-18
2.0222583e-19
3.5585087e-18
1.3565373e-16
2.566303e-15
1.1485885e-14
9.7844925e-15
8.6680163e-15
1.6829811e-14
3.6829071e-13
2.7408238e-12
1.9529872e-11
3.7022768e-10
7.1771669e-09
1.1550174e-07
2.3131096e-06
1.3525727e-05
4.0367285e-05
4.08095e-05
2.6563937e-05
5.1939241e-06
1.2309339e-07
1.3318136e-08
1.2180569e-09
9.2672335e-11
6.1741761e-12
3.5163825e-13
2.2555159e-14
6.8328079e-15
6.421977e-16
5.6151911e-18
1.913086e-20
3.0990358e-22
4.440765e-24
5.2708931e-26
5.2796846e-28
4.4481085e-30
3.1315723e-32
1.8276628e-34
8.6821276e-37
3.3285042e-39
1.0867115e-41
4.1178065e-44
1.1431049e-46
5.8251299e-49
1.1798928e-51
5.1366714e-53
6.2072245e-53
1.3209304e-53
3.03223e-54
3.5986223e-55
2.1822381e-56
8.3260062e-57
2.1728516e-56
3.1804001e-56
5.2401869e-56
8.5932916e-56
9.5199432e-56
7.9401204e-56
3.2884484e-56
9.5201816e-57
3.277369e-57
5.6924348e-59
1.7230827e-57
6.2788366e-56
2.4821536e-55
2.6552266e-55
2.2414989e-55
1.4789509e-55
6.7414198e-56
1.6124093e-56
4.6046949e-57
3.8126536e-56
4.4611047e-54
1.2208613e-52
1.1990633e-51
5.9216869e-51
1.1874989e-50
6.9324944e-50
1.3745815e-47
2.0247837e-45
2.3130425e-43
2.4941895e-41
2.859413e-39
8.3291433e-37
1.8575382e-34
3.1665545e-32
4.47952e-30
5.4990706e-28
8.2680251e-26
7.7048841e-23
2.4855598e-20
7.0336763e-19
5.7579718e-18
2.75868e-17
1.7533655e-17
2.0642491e-16
1.5844127e-15
2.6347691e-15
1.195936e-15
2.3758882e-16
2.548607e-17
2.2408034e-16
8.610545e-15
1.1564416e-13
3.5767664e-13
1.1140349e-13
1.059498e-13
1.6769335e-13
3.019877e-12
3.7537584e-11
4.8348938e-10
7.1634182e-09
8.8409799e-08
2.4483367e-05
6.2409992e-05
8.4981985e-05
8.1811667e-05
8.1156654e-05
6.2891565e-05
4.4351316e-06
2.7802989e-07
3.7908624e-08
3.9541724e-09
3.1750523e-10
2.3099451e-11
9.7515726e-12
6.8504896e-12
1.2520292e-12
3.313399e-14
4.9220059e-17
5.5147068e-19
6.6008408e-21
7.1339118e-23
6.4822874e-25
4.8831834e-27
3.0764893e-29
1.6413995e-31
8.7092251e-34
2.4838592e-35
5.9533938e-38
2.8606519e-41
1.2612742e-43
5.169795e-46
2.4361507e-48
1.5657702e-50
7.0609143e-51
8.8761582e-51
1.8644441e-51
4.1105128e-52
4.6972749e-53
3.6328536e-54
2.6850314e-54
5.951176e-54
7.9371877e-54
1.1906621e-53
1.8161917e-53
1.9665063e-53
1.523178e-53
6.1901294e-54
1.7625755e-54
5.9053322e-55
1.0255681e-56
2.492281e-55
8.7348444e-54
3.4673763e-53
3.7209715e-53
3.16245e-53
2.0972821e-53
9.6403148e-54
2.3428614e-54
7.4471992e-55
1.2362327e-53
8.9496151e-52
1.9349449e-50
1.6136892e-49
7.3825867e-49
6.574025e-49
5.0678825e-47
1.0191694e-44
1.8227913e-42
2.8919082e-40
4.1768293e-38
5.5380369e-36
6.7860705e-34
7.696379e-32
8.8884134e-30
1.2468347e-27
1.6398533e-25
5.0206546e-23
1.2030178e-19
1.7398821e-17
1.1322587e-16
5.7565812e-18
3.7734673e-15
2.4104146e-15
1.7240031e-15
4.2954364e-15
4.3063422e-15
6.9887785e-14
2.1581562e-14
2.0797814e-15
1.5231169e-14
5.1789811e-13
5.5603054e-12
1.5439e-11
4.1096808e-12
3.1293818e-12
9.6902407e-13
1.9245421e-11
4.631294e-10
8.4221832e-09
1.6839806e-07
1.3624187e-05
9.4295383e-05
9.3256472e-05
9.0795535e-05
7.8196047e-05
5.3177538e-05
1.164645e-05
8.4760583e-07
1.6078441e-07
3.2543857e-08
3.7850922e-09
2.6740796e-10
1.6919909e-11
7.3704128e-12
6.8986343e-12
2.3330006e-12
1.6359864e-13
7.0584985e-15
6.1079931e-16
5.2302496e-18
1.2770248e-21
5.5167866e-24
3.8415005e-26
6.1047541e-28
4.8352377e-29
2.3226457e-31
5.1912421e-35
1.3888113e-37
2.7015913e-40
1.6429671e-42
2.7964995e-44
1.9026961e-46
1.6217398e-48
9.8383848e-49
1.0427808e-48
2.1295446e-49
4.7087873e-50
5.5581597e-51
5.5878753e-52
7.6327706e-52
1.3952748e-51
1.7360103e-51
2.370446e-51
3.3792479e-51
3.5913478e-51
2.5859495e-51
1.0336998e-51
2.8937392e-52
9.4905072e-53
1.8109608e-54
3.3677179e-53
1.1191966e-51
4.4724069e-51
4.8238488e-51
4.1298579e-51
2.7524666e-51
1.275841e-51
3.1802086e-52
1.0332473e-52
3.0139049e-51
1.4931356e-49
2.4856044e-48
1.7657846e-47
7.0089105e-47
1.1317703e-46
1.4260503e-44
3.5687586e-42
7.3647545e-40
1.2360285e-37
1.8690642e-35
2.5662231e-33
3.2361219e-31
3.7731505e-29
4.0829549e-27
4.1079108e-25
3.8369572e-23
3.8145518e-21
1.0513279e-18
2.6516672e-15
3.8800018e-13
2.6644668e-12
1.7009386e-12
2.5910953e-13
1.031883e-13
2.5161578e-12
7.4575662e-12
1.971991e-12
5.1340739e-14
1.7042157e-13
5.3778846e-13
2.7713645e-11
2.8033152e-10
6.2676654e-10
1.5036254e-10
9.5183441e-11
1.2055069e-11
1.0369019e-10
1.6676954e-09
3.7249896e-08
3.5810376e-06
8.8352587e-05
9.6112399e-05
8.3527243e-05
2.7539832e-05
8.36016e-07
8.4393438e-07
1.0311573e-06
1.337993e-06
6.909319e-07
2.4289182e-08
2.3401198e-09
1.55859e-10
3.8127816e-11
1.6919948e-11
9.3326293e-11
1.1953758e-11
2.0440661e-13
1.6467247e-13
4.0198093e-14
1.4442791e-15
3.0085513e-19
8.6792849e-23
2.3599301e-24
1.3999672e-25
1.195405e-28
3.437885e-31
3.3328297e-34
3.001631e-36
1.9886905e-38
2.9189965e-40
2.447384e-42
1.3777789e-44
1.6631544e-46
1.1191345e-46
1.0341503e-46
2.0116377e-47
4.6313803e-48
6.1901712e-49
8.6952971e-50
1.8145536e-49
2.8263493e-49
3.3316194e-49
4.1643095e-49
5.5820852e-49
5.7941566e-49
3.92059e-49
1.5392978e-49
4.2374294e-50
1.3676443e-50
3.1345587e-52
4.2979541e-51
1.3324447e-49
5.3604956e-49
5.8198245e-49
5.0223799e-49
3.3616881e-49
1.5704729e-49
4.052675e-50
1.2113298e-50
4.4412353e-49
1.9824037e-47
2.7141791e-46
1.7241332e-45
5.8729354e-45
1.9202603e-44
9.3484392e-43
7.5475919e-41
1.2541857e-38
2.436843e-36
4.3501478e-34
6.8063036e-32
9.7419018e-30
1.2888802e-27
1.5979356e-25
1.9388417e-23
2.165728e-21
2.3427169e-19
3.2185647e-17
4.5646874e-14
9.8348519e-12
8.3564658e-11
3.8502882e-11
2.6024491e-12
3.7254488e-12
9.3718425e-11
2.2838365e-10
1.0746473e-13
5.5912944e-14
1.6857734e-13
1.7982678e-12
4.962966e-10
1.3262139e-08
2.1642668e-08
4.9213478e-09
2.6355555e-09
2.7025859e-10
4.706187e-10
2.5904904e-09
9.2520442e-08
1.5333323e-05
9.8777908e-05
9.7201378e-05
9.9370467e-07
7.8431323e-07
8.1982499e-07
8.3246157e-07
1.1902669e-06
1.4015316e-06
7.81915e-07
1.2024455e-08
1.7574633e-09
1.2297487e-09
1.5214922e-09
1.9518099e-09
1.6769305e-10
3.9910593e-12
1.7498237e-13
3.1524691e-13
1.4121586e-13
3.8457752e-15
2.084949e-17
6.908171e-19
7.1065733e-22
3.2858832e-25
1.5558153e-28
1.6081652e-30
2.043609e-32
1.6231633e-34
1.9846051e-36
2.6349609e-38
1.9069755e-40
9.2393275e-43
1.3670962e-44
1.0770636e-44
8.6302185e-45
1.6439998e-45
4.1145483e-46
6.6186817e-47
1.6748741e-47
3.6460112e-47
4.9739286e-47
5.6140521e-47
6.4745808e-47
8.1978255e-47
8.3203855e-47
5.3262921e-47
2.0521399e-47
5.5611009e-48
1.7750834e-48
5.2934251e-50
5.2327231e-49
1.4853789e-47
6.0002045e-47
6.5719789e-47
5.7180545e-47
3.8394723e-47
1.8063012e-47
4.8388454e-48
1.2602431e-48
4.653399e-47
2.0462503e-45
2.5341052e-44
1.5203245e-43
4.7018854e-43
1.9402606e-42
1.6506352e-40
1.6266331e-38
1.5624294e-36
1.542229e-34
2.0276955e-32
2.7550054e-30
2.989799e-28
2.7220747e-26
2.2229441e-24
1.894736e-22
2.7928984e-20
4.3461987e-18
2.2723573e-16
6.1157449e-14
1.6356609e-11
1.5181707e-10
8.4766765e-11
3.2981617e-12
2.2161044e-12
1.8283917e-11
1.4279681e-10
2.6418236e-10
2.6594947e-10
3.0907352e-12
8.0070177e-11
9.1614523e-10
3.5696776e-07
9.6102956e-07
1.3501427e-06
6.100038e-08
2.7218608e-09
1.2237292e-09
3.582457e-09
2.5988221e-07
4.066813e-05
9.8863501e-05
1.7316284e-05
7.138462e-07
7.5136006e-07
7.8431323e-07
9.7720847e-07
5.377066e-06
3.8436716e-06
3.797437e-07
1.6718676e-07
8.8800045e-09
1.7357479e-09
1.0114852e-08
2.3108755e-09
3.3773416e-11
8.4495947e-13
1.4583722e-13
3.1009063e-13
1.1958834e-13
3.5589719e-15
8.9896158e-17
6.3475893e-18
6.1198718e-20
2.352885e-24
2.9074234e-27
5.8125361e-29
7.2343348e-31
5.3395816e-33
1.1830115e-34
1.3190617e-36
6.4273897e-39
2.5009242e-41
9.3487961e-43
8.932838e-43
6.2481601e-43
1.2375997e-43
3.7392067e-44
7.5278271e-45
2.9813953e-45
6.3670243e-45
7.7058982e-45
8.2659689e-45
8.9525162e-45
1.0753905e-44
1.0677262e-44
6.5048315e-45
2.4596766e-45
6.5715422e-46
2.0831147e-46
8.6624611e-48
6.1310381e-47
1.5596068e-45
6.294988e-45
6.9903288e-45
6.120277e-45
4.11619e-45
1.9485096e-45
5.4111429e-46
1.2146518e-46
3.8551361e-45
1.7637842e-43
2.0585063e-42
1.1898487e-41
3.8036177e-41
1.1922573e-40
9.4655366e-39
1.1196776e-36
1.179568e-34
1.1220814e-32
1.0780615e-30
1.291845e-28
1.4490109e-26
1.1915311e-24
9.3888702e-23
1.595031e-20
3.1488389e-18
1.87473e-16
6.6760745e-15
3.3278167e-13
1.2075198e-11
7.3956523e-11
4.9925512e-11
3.9233575e-12
2.2161044e-12
2.5383506e-12
2.6120247e-09
7.4647409e-09
2.9608328e-10
1.0624812e-10
5.939821e-08
1.6109951e-05
3.8438824e-05
6.0878636e-05
6.6583651e-05
2.2584335e-05
5.82031e-09
2.3719094e-09
6.2567261e-09
2.0677699e-06
7.0055703e-05
9.8312461e-05
7.1839372e-07
7.1839372e-07
7.1839372e-07
8.0433898e-07
3.4654963e-06
5.377066e-06
5.377066e-06
1.9605135e-06
3.3432741e-09
8.1720901e-09
6.7474334e-09
1.0078597e-08
7.858064e-10
7.8540029e-14
4.436025e-14
1.4797103e-14
4.710774e-15
1.7918005e-15
1.7788196e-15
9.0485655e-17
9.1020393e-18
1.5517311e-19
1.2282046e-23
1.2945185e-25
2.5479332e-27
2.2219657e-29
4.7198114e-31
4.4970062e-33
3.0890817e-35
1.2793905e-37
6.6496616e-40
9.9240316e-41
7.3916352e-41
2.7853957e-41
9.9690873e-42
4.0750466e-42
1.130968e-42
4.3155981e-43
9.709766e-43
1.0801039e-42
1.0578484e-42
1.1084939e-42
1.2660511e-42
1.2277907e-42
7.1625518e-43
2.6595656e-43
7.0181178e-44
2.2180692e-44
1.3644186e-45
6.9632556e-45
1.5491041e-43
6.2128668e-43
7.0355798e-43
6.1823604e-43
4.1566059e-43
1.9778591e-43
5.6748599e-44
1.1160632e-44
2.6625548e-43
1.3116051e-41
1.4772461e-40
8.3196947e-40
3.0727507e-39
6.4833088e-39
2.7193907e-37
4.291706e-35
4.0621334e-33
3.7928884e-31
3.4887236e-29
3.835094e-27
4.5212151e-25
4.5449501e-23
7.2750998e-21
1.7472849e-18
1.1175863e-16
1.9395144e-15
8.0586129e-14
8.5369618e-12
5.5485786e-11
4.2209108e-11
2.7178417e-11
3.9305813e-12
4.5264161e-07
1.0956099e-05
1.4719808e-09
1.6929209e-09
1.207039e-09
9.6686951e-09
2.4815077e-07
4.9074701e-05
9.4156963e-05
9.4237351e-05
9.4235139e-05
9.4235139e-05
2.2333871e-05
5.83753e-09
3.1212368e-08
5.9383768e-06
7.7907382e-05
9.521052e-05
8.4490499e-07
7.1839372e-07
2.1583107e-06
5.0991539e-06
3.8538917e-06
5.3105736e-06
5.1824625e-06
1.1755221e-06
1.0393198e-09
1.076727e-09
3.3223286e-09
3.8231057e-09
1.9459056e-12
1.5187808e-12
-3.35875e-13
5.7514189e-10
3.581961e-09
5.2844952e-09
0
-5.515666e-17
-1.1008306e-16
2.1570405e-19
3.0458626e-22
6.0377782e-24
6.505184e-26
8.3001335e-28
1.0916243e-29
7.5687497e-32
4.3986578e-34
2.4533775e-36
1.7533045e-38
7.01767e-39
4.7015464e-39
1.7557579e-39
9.6260086e-40
5.5385558e-40
1.8322183e-40
5.3429169e-41
1.2839078e-40
1.3551878e-40
1.213221e-40
1.2284536e-40
1.3418151e-40
1.2678274e-40
7.1315115e-41
2.6022771e-41
6.7924392e-42
2.1497952e-42
2.0567405e-43
7.7079886e-43
1.4607054e-41
5.7890957e-41
6.7206004e-41
5.9117212e-41
3.966005e-41
1.8946275e-41
5.5959673e-42
9.9072798e-43
1.624485e-41
8.5930716e-40
9.4659307e-39
5.2293837e-38
2.1529036e-37
3.6181347e-37
4.4846259e-36
8.4819542e-34
8.8396991e-32
8.535355e-30
8.1929732e-28
9.2133619e-26
1.3646402e-23
3.5017869e-21
6.2704104e-19
4.0552798e-17
9.1251092e-16
1.1561113e-14
1.5709906e-13
3.399878e-11
2.1655517e-10
1.3881031e-10
2.7273134e-11
3.9903949e-12
3.2662959e-05
7.7951287e-05
3.1594947e-05
1.4865514e-09
1.4865514e-09
1.7753186e-08
4.7931945e-07
1.5876808e-06
2.1396665e-05
6.1675059e-05
8.1950721e-05
9.34115e-05
8.8562643e-05
1.1044232e-07
2.8402505e-07
9.507731e-06
8.0255764e-05
9.0063767e-05
1.456873e-06
8.415217e-07
8.0970637e-06
1.3511809e-05
3.9209884e-06
2.3208227e-07
3.6283977e-07
3.1156934e-07
7.2419209e-10
5.4382194e-10
2.1646009e-10
7.0007825e-12
3.2949869e-12
1.9459056e-12
2.3798039e-12
2.2317189e-09
9.1827459e-09
9.1676348e-09
-1.0891746e-16
-2.8522855e-16
-2.4606734e-16
2.5814873e-19
2.1199552e-20
1.0297834e-22
1.2645183e-24
1.182701e-26
1.2169041e-28
1.609287e-30
9.7204971e-33
4.3283609e-35
6.7810959e-37
4.1734615e-37
2.7048924e-37
1.4221408e-37
1.1494805e-37
8.9965224e-38
2.8165953e-38
6.5816517e-39
1.4835113e-38
1.5134447e-38
1.2544644e-38
1.2230892e-38
1.2821296e-38
1.1805782e-38
6.4378774e-39
2.3107491e-39
5.9765613e-40
1.9023798e-40
2.9538137e-41
8.3461139e-41
1.3116706e-39
5.1111704e-39
6.0997091e-39
5.3663784e-39
3.5859083e-39
1.7170629e-39
5.2033551e-40
8.5123751e-41
9.2921194e-40
5.0346566e-38
5.4483349e-37
2.947362e-36
1.1526791e-35
2.3094625e-35
7.4156963e-35
7.2009659e-33
1.3362624e-30
1.7157463e-28
2.0381476e-26
2.4096945e-24
3.7749131e-22
1.1117258e-19
1.2269119e-17
2.8694687e-16
2.7465982e-15
2.1491389e-14
3.0774789e-14
1.7390366e-11
6.7856139e-10
6.106563e-10
5.7544515e-11
5.9579087e-11
7.0424645e-05
7.8715201e-05
7.8698878e-05
1.4362161e-05
2.7999016e-09
3.4015386e-08
1.6055262e-07
4.1397168e-07
6.1798153e-08
4.3996298e-08
3.8946487e-08
3.204667e-05
8.8103407e-05
2.4673467e-05
5.2904664e-07
1.140713e-05
7.9412808e-05
8.7460816e-05
1.0125709e-05
1.0632809e-06
8.4577186e-06
1.3993625e-05
1.1562103e-05
7.9419984e-08
7.2811177e-08
3.7051781e-08
1.0374569e-09
7.2321271e-10
4.6918361e-06
8.9435412e-06
1.218025e-06
3.2949869e-12
5.7074187e-12
2.2450877e-09
9.3970075e-09
5.6779444e-09
-1.8074704e-16
-2.4516095e-16
-1.1183857e-16
5.6551115e-17
1.3450789e-18
4.6046387e-20
4.6046409e-22
4.3330218e-24
3.1738572e-26
1.6309419e-28
5.9459869e-31
2.3165546e-33
3.6305765e-35
2.1687017e-35
1.6464553e-35
1.5225293e-35
1.6811538e-35
1.2912873e-35
3.7792955e-36
7.1709814e-37
1.5204957e-36
1.4988395e-36
1.1629754e-36
1.0965168e-36
1.1080128e-36
9.9358738e-37
5.2830682e-37
1.8672971e-37
4.7943788e-38
1.5415287e-38
4.0272195e-39
8.8463822e-39
1.1239801e-37
4.2869844e-37
5.2647997e-37
4.6330762e-37
3.0796896e-37
1.4755045e-37
4.5755631e-38
7.0828934e-39
5.0923435e-38
2.6614169e-36
2.8212927e-35
1.4937071e-34
5.4108082e-34
1.4756172e-33
2.4841688e-33
3.7917859e-32
1.119512e-29
1.7931909e-27
2.2570238e-25
2.5341351e-23
3.1722866e-21
5.7243857e-19
4.8294378e-17
1.0434927e-15
8.8906959e-15
5.182378e-14
4.2795051e-14
3.912073e-12
5.0210943e-09
7.6005282e-09
1.7516984e-09
5.9641304e-08
3.9297096e-05
7.8698878e-05
7.8715201e-05
7.8698878e-05
4.5298258e-06
4.1237177e-08
8.5794938e-08
5.5071569e-07
3.740997e-07
3.9961245e-08
3.7255326e-08
3.8995209e-08
7.6661668e-05
5.5739535e-05
9.9347105e-07
9.8412905e-06
8.243978e-05
8.7065853e-05
1.7322492e-05
7.4916298e-07
3.0314771e-06
1.4410052e-05
1.4648311e-05
1.4638786e-05
3.2663677e-06
1.7017059e-06
1.0319465e-05
1.5218261e-05
1.6568998e-05
1.6882831e-05
1.5248232e-05
1.6034163e-06
4.756209e-11
1.7571603e-08
4.4445432e-08
1.1096811e-09
0
8.7799855e-16
1.056126e-15
3.408311e-16
1.3570175e-17
4.1983879e-19
3.4675196e-21
3.3932277e-23
2.6827508e-25
1.5670204e-27
6.6595504e-30
1.4024899e-32
1.6955543e-33
1.4359531e-33
1.5114592e-33
2.0788219e-33
2.3035137e-33
1.6279592e-33
4.2113658e-34
7.0449908e-35
1.3882473e-34
1.316695e-34
9.6874302e-35
8.8613373e-35
8.7206373e-35
7.5561818e-35
3.9518182e-35
1.3768291e-35
3.5157495e-36
1.1471006e-36
5.1986844e-37
9.1568232e-37
9.2058201e-36
3.4217646e-35
4.3233673e-35
3.8079616e-35
2.5174746e-35
1.2052798e-35
3.8139563e-36
5.7073784e-37
2.6308863e-36
1.268463e-34
1.3160423e-33