/*--------------------------------*- C++ -*----------------------------------*\
  =========                 |
  \\      /  F ield         | OpenFOAM: The Open Source CFD Toolbox
   \\    /   O peration     | Website:  https://openfoam.org
    \\  /    A nd           | Version:  9
     \\/     M anipulation  |
\*---------------------------------------------------------------------------*/
FoamFile
{
    format      ascii;
    class       surfaceScalarField;
    location    "0.62";
    object      alphaPhi0.phase1;
}
// * * * * * * * * * * * * * * * * * * * * * * * * * * * * * * * * * * * * * //

dimensions      [0 3 -1 0 0 0 0];

internalField   nonuniform List<scalar> 
19800
(
1.0150856e-88
1.5163939e-88
-4.1398188e-90
1.5752319e-88
-5.1229095e-86
2.8061458e-87
-2.7460417e-85
1.2887844e-85
-3.0844953e-85
2.223765e-85
-1.3819466e-85
1.2455518e-85
-3.5601569e-86
3.8962368e-86
-3.3352577e-86
1.1474055e-86
-4.7014293e-86
1.0491068e-86
-6.2030821e-86
1.2119973e-86
-1.192833e-83
5.3093433e-85
-2.3399058e-81
1.0526293e-82
-8.0232672e-80
5.2527086e-81
-8.1816996e-79
7.0749706e-80
-4.1566324e-78
4.2521535e-79
-1.2856256e-77
1.671798e-78
-4.3548059e-77
5.8140085e-78
-1.7757138e-75
1.3320847e-76
-2.5412579e-73
1.7494649e-74
-3.4944283e-71
2.3102247e-72
-4.4388649e-69
2.8223517e-70
-5.2266346e-67
3.1883456e-68
-5.7249066e-65
3.3581238e-66
-5.8517479e-63
3.2949812e-64
-5.5985184e-61
3.0275302e-62
-5.0272105e-59
2.6036593e-60
-4.2474442e-57
2.1014047e-58
-3.3702049e-55
1.5935898e-56
-2.5058221e-53
1.1351119e-54
-2.1738952e-51
7.6951293e-53
-4.6566281e-49
5.8722237e-51
-2.3231693e-47
3.6076209e-49
-1.0982718e-46
4.0210421e-48
-4.0647783e-46
1.0356523e-47
-3.9956878e-46
1.7672668e-47
-1.8667001e-46
1.0462774e-47
-1.3865481e-45
2.1059017e-48
-2.6216198e-45
-2.6035119e-47
-7.5018821e-44
-3.1125045e-45
-3.5307685e-42
-2.6426797e-43
-1.3910572e-40
-1.5833324e-41
-4.3803938e-39
-7.0292427e-40
-9.8381471e-38
-2.2226145e-38
-1.1837682e-36
-1.0437841e-36
-6.9263341e-36
-2.7963356e-35
-4.1828692e-35
-2.8695742e-34
-1.2118549e-34
-2.3781506e-33
9.8379176e-33
-4.7773622e-32
7.3411429e-31
-1.7871509e-30
3.7392134e-29
-6.9680782e-29
1.5906464e-27
-2.5765343e-27
6.0866608e-26
-9.0104713e-26
2.0393003e-24
-2.8852317e-24
1.1645203e-23
-3.2443808e-23
2.7112504e-23
-1.187792e-22
3.1725552e-23
-1.2450942e-22
6.9021351e-24
-1.0499061e-23
1.0547375e-24
-9.0010842e-25
1.0211883e-25
-8.2035053e-26
5.8653915e-27
-4.1472761e-27
1.4400421e-28
-1.9806963e-28
6.0053125e-30
1.1337666e-30
3.2832221e-31
1.421148e-31
1.4275503e-32
1.0837383e-32
6.0736081e-34
6.532923e-34
2.4508759e-35
3.4272495e-35
9.2149765e-37
1.6044679e-36
3.2095924e-38
6.768995e-38
1.0309329e-39
2.584417e-39
3.0405798e-41
8.9424352e-41
8.2011146e-43
2.8041062e-42
2.0152409e-44
7.961456e-44
4.4950407e-46
2.0438915e-45
9.0688383e-48
4.7367482e-47
1.6490986e-49
9.8896675e-49
2.6930952e-51
1.8551754e-50
3.9348134e-53
3.1182792e-52
5.1233501e-55
4.6818804e-54
5.9195315e-57
6.2547686e-56
6.0400339e-59
7.4299423e-58
5.4157541e-61
7.7714349e-60
4.241385e-63
7.1668697e-62
2.881931e-65
5.7670968e-64
1.6863382e-67
4.0335905e-66
8.4252548e-70
2.4314615e-68
3.557707e-72
1.254843e-70
1.2551308e-74
5.4796786e-73
3.6468045e-77
2.0045482e-75
8.5911563e-80
6.0756243e-78
1.6098002e-82
1.51176e-80
3.4589159e-85
2.9962003e-83
1.4389774e-85
4.6491262e-86
3.1468607e-87
2.4155182e-87
3.2697964e-87
2.7940988e-87
7.464149e-87
9.5580443e-87
-1.6486402e-86
4.4827004e-86
-1.235106e-85
1.309607e-85
-2.1879513e-85
1.1674314e-85
-3.0185935e-85
9.5289813e-86
7.0598691e-86
1.2091071e-88
3.1200374e-88
1.2751976e-88
8.4502427e-87
-5.1839405e-85
3.1629031e-85
-3.3735988e-84
4.7851224e-84
-5.018418e-84
9.0358601e-84
-5.6116596e-84
8.5290569e-84
-4.153734e-84
6.6848537e-84
-1.2749097e-84
3.4094602e-84
-7.2509482e-86
7.3697221e-85
-9.3483688e-86
4.6512466e-86
-7.0949601e-84
6.267119e-85
-1.6248826e-81
9.7355384e-83
-5.7237615e-80
5.4444651e-81
-6.3672732e-79
7.5702262e-80
-2.9543143e-78
5.9595504e-79
-1.5539979e-77
3.7426224e-78
-1.061554e-75
2.4634453e-76
-1.7039506e-73
3.7762939e-74
-2.5739305e-71
5.4582573e-72
-3.5744961e-69
7.2604225e-70
-4.5818063e-67
8.9147752e-68
-5.443355e-65
1.014961e-65
-6.0136689e-63
1.0752953e-63
-6.1976096e-61
1.0617875e-61
-5.975576e-59
9.7959143e-60
-5.4065106e-57
8.4666233e-58
-4.5997662e-55
6.8576985e-56
-3.6602644e-53
5.218101e-54
-2.786009e-51
3.7288637e-52
-3.5062795e-49
2.5904859e-50
-8.9959425e-47
2.2919943e-48
-1.5028917e-45
8.4771338e-47
-2.0151801e-45
3.5749498e-46
-1.0826591e-44
3.9587953e-46
-1.3393558e-43
4.0874466e-45
-1.3352067e-43
9.7686513e-45
-1.0229298e-43
2.7176864e-45
-6.265053e-43
-1.1809713e-44
-3.0978253e-41
-1.9372995e-42
-1.4173529e-39
-1.5606033e-40
-5.4419556e-38
-8.9751467e-39
-1.6977392e-36
-3.8179677e-37
-3.6635097e-35
-1.1403611e-35
-3.5681302e-34
-2.0807421e-34
-1.4357298e-33
-2.0591895e-33
-6.2572855e-33
-1.5130193e-32
-3.324991e-32
-2.4710148e-31
1.4308361e-30
-7.0474961e-30
1.1291103e-28
-2.2039888e-28
5.5003969e-27
-6.8932157e-27
2.2403821e-25
-2.4915864e-25
8.3442666e-24
-9.0270191e-24
2.7471431e-22
-2.9228381e-22
1.2299925e-21
-1.0895153e-21
2.305458e-21
-1.6518959e-21
2.7728544e-21
-1.8136745e-21
1.257295e-21
-9.7252871e-22
2.4074928e-22
-2.4458513e-22
1.9658704e-23
-2.5302204e-23
1.1666181e-24
-1.0642547e-24
3.0369149e-26
-2.177386e-26
1.5170234e-27
7.2403262e-28
8.2052083e-29
1.035676e-28
3.4708174e-30
7.835836e-30
1.4787352e-31
4.6916997e-31
5.9432645e-33
2.442169e-32
2.2134765e-34
1.1305955e-33
7.6077173e-36
4.7027254e-35
2.4036704e-37
1.7660359e-36
6.9542945e-39
5.9981157e-38
1.8356917e-40
1.842927e-39
4.4053815e-42
5.1193267e-41
9.5785974e-44
1.2839971e-42
1.8804375e-45
2.9030045e-44
3.3217293e-47
5.9042461e-46
5.2611939e-49
1.077552e-47
7.4433853e-51
1.7601419e-49
9.3704788e-53
2.5640932e-51
1.0447443e-54
3.3235788e-53
1.0267836e-56
3.8184707e-55
8.8434056e-59
3.8667578e-57
6.6348441e-61
3.4373752e-59
4.3065569e-63
2.6645848e-61
2.3982903e-65
1.7910291e-63
1.1348976e-67
1.035145e-65
4.5105586e-70
5.1040391e-68
1.4843886e-72
2.1209757e-70
3.9710742e-75
7.3423389e-73
8.4395734e-78
2.0817851e-75
1.3859102e-80
4.725413e-78
5.2027818e-83
8.4256161e-81
2.0844629e-85
1.1483665e-83
2.1696266e-85
4.9847143e-85
7.1133681e-85
1.9096981e-84
7.8792531e-85
6.7499367e-84
-9.97349e-85
1.1839354e-83
-1.5669291e-84
6.3114684e-84
-2.5736898e-85
2.5593368e-84
-3.4812544e-85
1.8444412e-85
1.552171e-85
1.5975599e-85
9.62639e-85
6.9085612e-85
1.9149497e-83
-5.6678213e-82
7.3226674e-82
-2.5752088e-81
6.8736369e-81
-3.7706217e-81
1.0434541e-80
-3.980847e-81
9.2042566e-81
-2.8040543e-81
6.6543173e-81
-8.8802254e-82
3.2566504e-81
-1.0577688e-82
7.4611795e-82
-5.7300746e-84
7.3243745e-83
-1.1388099e-83
5.6724198e-84
-1.7417393e-81
1.2884461e-82
-1.9963262e-80
6.6893812e-81
-2.4264886e-79
6.9575685e-80
-2.6817096e-77
8.4998805e-78
-4.6104348e-75
1.6050018e-75
-8.1646913e-73
2.6034895e-73
-1.3634335e-70
4.1398605e-71
-2.0810775e-68
6.031223e-69
-2.9166208e-66
8.0791221e-67
-3.769838e-64
9.9873197e-65
-4.5118108e-62
1.1435532e-62
-5.0181289e-60
1.2186945e-60
-5.2027361e-58
1.2083407e-58
-5.0443153e-56
1.1203088e-56
-4.5855786e-54
9.7117061e-55
-3.917083e-52
7.8897104e-53
-3.1273487e-50
6.0111073e-51
-2.38777e-48
4.2974202e-49
-3.012811e-46
2.9835281e-47
-7.6215652e-44
2.6365035e-45
-1.2332972e-42
9.713401e-44
-1.7460334e-42
4.1705242e-43
-1.110996e-41
4.9941607e-43
-1.4559994e-40
5.7545688e-42
-1.4545132e-40
1.3968779e-41
-9.860902e-41
3.9904641e-42
-2.0133054e-40
-6.2522613e-42
-7.6369174e-39
-5.8809094e-40
-3.4106922e-37
-4.7089596e-38
-1.279157e-35
-2.6296737e-36
-3.8928571e-34
-1.077992e-34
-8.0546792e-33
-3.0470289e-33
-7.1876125e-32
-5.0938096e-32
-2.5092859e-31
-4.4139303e-31
-9.9948447e-31
-2.727528e-30
-6.7579741e-30
-4.04435e-29
9.8188434e-29
-1.068285e-27
1.0069588e-26
-3.0357045e-26
4.89133e-25
-8.843472e-25
1.9282835e-23
-2.5184552e-23
7.0175092e-22
-8.0599264e-22
2.3092472e-20
-2.5803648e-20
1.0616674e-19
-9.7435189e-20
2.1700288e-19
-2.0378091e-19
2.6949665e-19
-2.433623e-19
1.3272143e-19
-1.3477297e-19
2.851496e-20
-3.6195923e-20
2.4516146e-21
-4.1442215e-21
1.4768292e-22
-1.6649645e-22
3.942336e-24
-3.1826312e-24
2.1731707e-25
1.521624e-25
1.2011261e-26
2.1002839e-26
5.3314424e-28
1.6058305e-27
2.2966286e-29
9.702732e-29
9.2711551e-31
5.0724187e-30
3.4516361e-32
2.3488983e-31
1.1800679e-33
9.7344761e-33
3.6918832e-35
3.6277051e-34
1.0532855e-36
1.2182143e-35
2.7314329e-38
3.6880121e-37
6.4183511e-40
1.0061921e-38
1.3623976e-41
2.4715242e-40
2.6040947e-43
5.4583376e-42
4.4671411e-45
1.081882e-43
6.8533603e-47
1.9197647e-45
9.3674548e-49
3.0423616e-47
1.1362178e-50
4.289546e-49
1.2170379e-52
5.3715917e-51
1.1460398e-54
5.9396949e-53
9.4274106e-57
5.7855718e-55
6.7312051e-59
4.9265105e-57
4.1407139e-61
3.6496772e-59
2.1753111e-63
2.3354723e-61
9.6552492e-66
1.2807993e-63
3.5767525e-68
5.9585305e-66
1.0950122e-70
2.3264187e-68
2.7998679e-73
7.5074932e-71
5.6198585e-76
1.969691e-73
7.5702385e-79
4.118071e-76
8.8291159e-82
6.6768476e-79
2.0744371e-82
1.0054595e-81
2.9230188e-82
1.054789e-81
6.2683896e-82
3.4573227e-81
4.5107543e-83
1.0855529e-80
-2.2010556e-81
1.7722481e-80
-2.6781487e-81
1.2063225e-80
-8.3743147e-82
5.3900258e-81
-6.2858714e-82
1.1480036e-81
6.8129359e-82
9.5038288e-83
6.6942698e-82
1.1886281e-81
2.1146408e-80
-3.0796288e-79
8.3538663e-79
-1.2279175e-78
5.1788604e-78
-1.8533941e-78
6.9853079e-78
-1.9429653e-78
6.0853805e-78
-1.3458427e-78
4.2899352e-78
-4.1868073e-79
2.0550884e-78
-7.3771518e-80
4.703644e-79
-3.6658261e-81
6.7286501e-80
-1.6217511e-81
3.7922144e-81
-8.0698811e-81
4.3952765e-81
-2.9885078e-78
1.1808906e-78
-5.1991801e-75
3.7205526e-76
-1.3698205e-73
7.8171052e-74
-3.2513862e-72
1.7476609e-72
-4.680029e-70
1.9061605e-70
-7.9183189e-68
3.063465e-68
-1.2234613e-65
4.5079158e-66
-1.7342748e-63
6.1000084e-64
-2.2652496e-61
7.6118779e-62
-2.7362623e-59
8.7930874e-60
-3.0672359e-57
9.4209034e-58
-3.2031583e-55
9.4104501e-56
-3.1246673e-53
8.7662683e-54
-2.8561126e-51
7.6406557e-52
-2.45085e-49
6.232565e-50
-1.9642492e-47
4.7667265e-48
-1.5043213e-45
3.4145947e-46
-1.899524e-43
2.3712957e-44
-4.7122735e-41
2.095322e-42
-7.3971212e-40
7.7033423e-41
-1.1122762e-39
3.3656442e-40
-8.1242936e-39
4.3554144e-40
-1.1441301e-37
5.7037335e-39
-1.1897729e-37
1.4940585e-38
-6.0786113e-38
5.5316562e-39
-7.3312413e-38
-3.1380549e-39
-1.3719225e-36
-1.097018e-37
-5.9997048e-35
-9.1661684e-36
-2.2048022e-33
-5.0658158e-34
-6.5831259e-32
-2.0138763e-32
-1.3092245e-30
-5.4163532e-31
-1.0713445e-29
-8.2999926e-30
-3.2502905e-29
-6.2835566e-29
-1.1641084e-28
-3.2290052e-28
-9.3044053e-28
-4.2990087e-27
1.1845279e-28
-1.0906843e-25
5.5830576e-25
-2.7574525e-24
2.9087224e-23
-7.4851486e-23
1.1475022e-21
-2.0216507e-21
4.1216408e-20
-5.5243847e-20
1.3564377e-18
-1.6145676e-18
6.4839643e-18
-7.4082517e-18
1.4060357e-17
-1.576891e-17
1.8195442e-17
-1.9546027e-17
9.8350732e-18
-1.2264813e-17
2.3849373e-18
-3.5966041e-18
2.4294789e-19
-4.5641788e-19
1.3500024e-20
-2.0055377e-20
4.2898391e-22
-2.7000915e-22
2.4636714e-23
2.4200214e-23
1.3804626e-24
3.1678355e-24
6.3924523e-26
2.4413311e-25
2.7936459e-27
1.4916333e-26
1.1325549e-28
7.8422898e-28
4.20654e-30
3.6325339e-29
1.4259018e-31
1.4976962e-30
4.3980802e-33
5.5243393e-32
1.2308051e-34
1.8272836e-33
3.1165951e-36
5.4247064e-35
7.1209886e-38
1.4454779e-36
1.4640346e-39
3.4545433e-38
2.7006021e-41
7.3962258e-40
4.4561274e-43
1.4163525e-41
6.5550508e-45
2.4210233e-43
8.5659525e-47
3.6841615e-45
9.9021369e-49
4.9763538e-47
1.00761e-50
5.952215e-49
8.9721255e-53
6.2718614e-51
6.9528343e-55
5.7905019e-53
4.7190546e-57
4.6630658e-55
2.7926689e-59
3.2535184e-57
1.4065542e-61
1.9507391e-59
5.9521921e-64
9.9735535e-62
2.0895657e-66
4.2923481e-64
5.9826083e-69
1.5363146e-66
1.3621549e-71
4.4989827e-69
1.7652322e-74
1.0554025e-71
2.2347733e-77
1.938668e-74
1.1159536e-79
2.9338896e-77
6.0817707e-80
3.3971996e-79
2.5586633e-79
1.4591725e-78
1.958959e-79
4.1658175e-78
-1.2782717e-78
1.1621199e-77
-2.9186663e-78
1.7379938e-77
-2.9173325e-78
1.2894971e-77
-1.0459493e-78
5.7359034e-78
-5.2079467e-79
1.3881094e-78
6.3332249e-79
4.3880093e-80
3.3641459e-79
9.8712176e-79
1.3123217e-77
-1.0955244e-76
5.2741468e-76
-4.3800339e-76
2.7167413e-75
-6.8527593e-76
3.4072755e-75
-7.234669e-76
2.9580548e-75
-4.9901823e-76
2.053479e-75
-1.5402681e-76
9.7201089e-76
-3.5647644e-77
2.2283978e-76
-1.1300529e-78
4.1493023e-77
-5.0505309e-79
1.4597443e-78
-5.4962049e-78
3.8325178e-78
-2.5076064e-75
1.0667016e-75
-5.1362852e-72
3.7228614e-73
-8.9297748e-71
6.6401721e-71
-1.4694305e-69
9.9524205e-70
-2.0740289e-67
1.0353528e-67
-3.5717402e-65
1.690695e-65
-5.6072329e-63
2.5233071e-63
-8.0608453e-61
3.4574452e-61
-1.0660314e-58
4.3641208e-59
-1.3024732e-56
5.0919074e-57
-1.4758847e-54
5.5144904e-55
-1.5556799e-52
5.5525102e-53
-1.5304858e-50
5.2163995e-51
-1.4086955e-48
4.5777923e-49
-1.2150394e-46
3.7535225e-47
-9.7734374e-45
2.8786488e-45
-7.5079584e-43
2.0695184e-43
-9.4884133e-41
1.4403585e-41
-2.330493e-38
1.2774044e-39
-3.5975435e-37
4.698396e-38
-5.5702391e-37
2.0798236e-37
-4.2685797e-36
2.8244975e-37
-6.5389608e-35
4.1150135e-36
-7.777761e-35
1.2273998e-35
-3.876368e-35
6.1201304e-36
-2.6118449e-35
-1.0571074e-36
-1.959635e-34
-1.4142611e-35
-8.2927788e-33
-1.2937127e-33
-3.0009064e-31
-7.1582748e-32
-8.8411922e-30
-2.7877485e-30
-1.6912525e-28
-7.1775294e-29
-1.2734264e-27
-1.0078669e-27
-3.333383e-27
-6.6613928e-27
-1.0343246e-26
-2.8061181e-26
-9.101365e-26
-3.2695857e-25
-6.0721779e-25
-8.0454817e-24
1.8224254e-23
-1.8493937e-22
1.2252116e-21
-4.6277333e-21
5.0103452e-20
-1.1861667e-19
1.8193092e-18
-3.2224525e-18
6.0209069e-17
-8.3891819e-17
2.9097785e-16
-3.4505692e-16
6.4887472e-16
-5.9488553e-16
8.6913804e-16
-5.5953608e-16
5.1335935e-16
-4.284111e-16
1.5043277e-16
-1.7829675e-16
1.8712369e-17
-3.1692028e-17
9.4123622e-19
-1.8013416e-18
3.8074001e-20
-1.1967524e-20
2.3578055e-21
3.1279708e-21
1.3126379e-22
3.8487923e-22
6.3205122e-24
2.9758865e-23
2.8092616e-25
1.8391461e-24
1.1428059e-26
9.7249085e-26
4.2227724e-28
4.5001954e-27
1.4131288e-29
1.8411529e-28
4.2730594e-31
6.6952621e-30
1.1649866e-32
2.1700717e-31
2.8578121e-34
6.27752e-33
6.2939155e-36
1.6215813e-34
1.241447e-37
3.7394239e-36
2.1873441e-39
7.6911947e-38
3.4327592e-41
1.409073e-39
4.7831985e-43
2.2954562e-41
6.007428e-45
3.3154299e-43
6.7130945e-47
4.2418498e-45
6.5770674e-49
4.7808037e-47
5.6177899e-51
4.7261273e-49
4.1568934e-53
4.07655e-51
2.6441626e-55
3.0491162e-53
1.4334096e-57
1.9627321e-55
6.5448682e-60
1.0786688e-57
2.4845434e-62
5.0017529e-60
7.7077329e-65
1.9328902e-62
1.912843e-67
6.1206682e-65
3.0554047e-70
1.557773e-67
3.2939627e-73
3.1111331e-70
9.6603013e-76
5.3804003e-73
6.6106777e-77
2.0898429e-75
3.5280335e-77
3.7638883e-76
7.4431241e-77
1.4676038e-75
-2.7164924e-76
3.6719001e-75
-1.7965358e-75
9.1042006e-75
-2.6944447e-75
1.2635009e-74
-2.33991e-75
9.6635858e-75
-8.4391306e-76
4.1895182e-75
-3.2974999e-76
1.0555186e-75
4.0948809e-76
1.6589248e-77
1.3206196e-76
5.5078088e-76
5.7389352e-75
-2.2041474e-74
2.3210499e-73
-1.1842506e-73
1.087418e-72
-1.9932765e-73
1.3039083e-72
-2.1525365e-73
1.1303851e-72
-1.4970834e-73
7.7864868e-73
-4.632495e-74
3.6573129e-73
-1.0797039e-74
8.4536351e-74
-4.8419805e-75
1.8759952e-74
-2.3298947e-75
8.6830632e-75
-1.1646937e-74
9.1928572e-75
-2.2283348e-71
2.9538153e-72
-3.4932873e-69
1.1046391e-69
-3.8481123e-68
3.6211235e-68
-5.1169296e-67
4.1555688e-67
-7.3728114e-65
4.3915183e-65
-1.2969584e-62
7.3105289e-63
-2.0749126e-60
1.1103874e-60
-3.033004e-58
1.5438091e-58
-4.072822e-56
1.9763805e-56
-5.0447696e-54
2.3354318e-54
-5.7863642e-52
2.5580528e-52
-6.1660213e-50
2.6036478e-50
-6.120014e-48
2.4666328e-48
-5.6752919e-46
2.1801314e-46
-4.929154e-44
1.8011774e-44
-3.9899426e-42
1.3916413e-42
-3.0792761e-40
1.005636e-40
-3.8982924e-38
7.0259999e-39
-9.5528543e-36
6.2556943e-37
-1.463962e-34
2.3106877e-35
-2.2751907e-34
1.028114e-34
-1.7214388e-33
1.4290999e-34
-2.9106959e-32
2.271267e-33
-4.059103e-32
7.8701857e-33
-2.052856e-32
5.1549551e-33
-9.7320959e-33
8.6100992e-35
-2.4613988e-32
-1.582925e-33
-9.4835481e-31
-1.3983446e-31
-3.3925298e-29
-7.9108685e-30
-9.9246967e-28
-3.0531563e-28
-1.8299148e-26
-7.5765318e-27
-1.2652458e-25
-9.7709126e-26
-2.8363634e-25
-5.6211428e-25
-7.3535745e-25
-1.9128373e-24
-6.4423793e-24
-1.8764424e-23
-6.6765653e-23
-4.4940001e-22
8.7047373e-23
-9.9220074e-21
3.5641615e-20
-2.22014e-19
1.6422751e-18
-5.5674472e-18
6.1527954e-17
-1.3028194e-16
1.9928375e-15
-2.6090183e-15
9.7862459e-15
-1.0693781e-14
2.3106021e-14
-1.9322017e-14
3.2401735e-14
-1.6850455e-14
1.93487e-14
-1.5171198e-15
6.9180729e-15
-5.1106993e-16
1.1316052e-15
-2.476432e-16
7.2091947e-17
-8.8307636e-17
2.9091949e-18
-8.7755451e-20
1.9013837e-19
3.3702065e-19
1.068389e-20
3.9073967e-20
5.314692e-22
3.0303678e-21
2.3962777e-23
1.8914305e-22
9.7480421e-25
1.0035849e-23
3.5647933e-26
4.6228192e-25
1.1698215e-27
1.867439e-26
3.4401368e-29
6.6529867e-28
9.0538789e-31
2.0970413e-29
2.1299186e-32
5.8602171e-31
4.4718127e-34
1.4534943e-32
8.3640996e-36
3.2005686e-34
1.4369065e-37
6.2551114e-36
2.2613253e-39
1.0864794e-37
3.0445904e-41
1.6708352e-39
3.601207e-43
2.2648412e-41
3.7321369e-45
2.702625e-43
3.3706549e-47
2.8249212e-45
2.6358462e-49
2.5749714e-47
1.7722557e-51
2.0339947e-49
1.0147932e-53
1.3832254e-51
4.8967564e-56
8.0225164e-54
1.9637309e-58
3.9288362e-56
6.4336152e-61
1.6027844e-58
1.6829358e-63
5.3580062e-61
3.2962132e-66
1.4361858e-63
2.7703368e-69
3.0027859e-66
9.0390009e-72
5.4293357e-69
1.8814243e-73
3.1621077e-71
3.1077975e-74
7.3284261e-73
8.1369315e-75
3.6992309e-73
-5.6938172e-74
1.1313253e-72
-4.669934e-73
2.5131775e-72
-1.5029129e-72
5.5391242e-72
-1.8794658e-72
7.1384662e-72
-1.4531938e-72
5.4650721e-72
-5.0679301e-73
2.2769825e-72
-1.672755e-73
5.7546732e-73
1.9725144e-73
5.3336517e-75
4.265201e-74
2.2857499e-73
1.9522572e-72
-8.0029067e-73
7.9099767e-71
-2.4851511e-71
3.5080569e-70
-4.6740711e-71
4.0871647e-70
-5.2588856e-71
3.5475453e-70
-3.7303196e-71
2.435862e-70
-1.1722117e-71
1.1418737e-70
-2.1158437e-72
2.671584e-71
-8.6765078e-72
6.6713447e-72
-3.7097956e-72
2.3961152e-71
-1.0471099e-71
9.1199417e-72
-3.4969651e-68
3.185069e-69
-1.627928e-66
9.7428579e-67
-1.2976997e-65
1.4533021e-65
-1.4260407e-64
1.3603026e-64
-2.116475e-62
1.4772555e-62
-3.818013e-60
2.5164389e-60
-6.2473303e-58
3.9017532e-58
-9.3201346e-56
5.5282089e-56
-1.2739886e-53
7.1913223e-54
-1.6035801e-51
8.6270223e-52
-1.8661311e-49
9.5813262e-50
-2.0149211e-47
9.8783168e-48
-2.0248241e-45
9.4728315e-46
-1.898749e-43
8.4690317e-44
-1.6639787e-41
7.0639712e-42
-1.3564869e-39
5.5016212e-40
-1.0523318e-37
3.9988399e-38
-1.3349284e-35
2.8113432e-36
-3.3054423e-33
2.5203977e-34
-5.0744692e-32
9.3922069e-33
-7.7456367e-32
4.1874975e-32
-5.6511894e-31
5.8087473e-32
-1.0456347e-29
1.0017108e-30
-1.6957569e-29
3.9897758e-30
-1.0495472e-29
3.2648449e-30
-2.162601e-30
4.2971429e-31
-3.3105224e-30
-1.8825151e-31
-9.2509013e-29
-1.173545e-29
-3.2949086e-27
-7.06736e-28
-9.6340164e-26
-2.7598254e-26
-1.7142068e-24
-6.6615967e-25
-1.0861682e-23
-7.9031899e-24
-2.0635478e-23
-3.9502828e-23
-4.3303415e-23
-1.0709916e-22
-3.4266459e-22
-8.3686511e-22
-4.4511156e-21
-1.9508904e-20
-3.1181564e-20
-4.2210599e-19
5.6238956e-19
-9.1163309e-18
4.0001814e-17
-1.9620978e-16
1.7002716e-15
-2.6985567e-15
5.522963e-14
-7.6643857e-14
2.8134216e-13
-3.1372957e-13
6.9812447e-13
-6.0636682e-13
1.0257019e-12
-5.8516223e-13
6.7495673e-13
0
2.683e-13
0
5.1123351e-14
0
4.1554783e-15
0
2.0584323e-16
1.0854795e-16
1.3122109e-17
3.2775144e-17
7.6501112e-19
3.4378442e-18
3.9111683e-20
2.6710073e-19
1.7772237e-21
1.677476e-20
7.1872553e-23
8.8921152e-22
2.5814863e-24
4.0544452e-23
8.2271014e-26
1.604992e-24
2.3271243e-27
5.5509712e-26
5.841023e-29
1.6840823e-27
1.305258e-30
4.49514e-29
2.7854735e-32
1.0596764e-30
5.3026934e-34
2.2127624e-32
8.5509764e-36
4.0765363e-34
1.2064653e-37
6.6002277e-36
1.4945153e-39
9.3923585e-38
1.6179665e-41
1.1727629e-39
1.5228038e-43
1.2802206e-41
1.2392021e-45
1.2156169e-43
8.6518761e-48
9.9898506e-46
5.1372305e-50
7.0520528e-48
2.5641416e-52
4.2408634e-50
1.0595876e-54
2.1485858e-52
3.5571921e-57
9.0368755e-55
9.4542343e-60
3.0992411e-57
1.9087309e-62
8.4587082e-60
1.3770368e-65
1.7772819e-62
3.9725226e-68
3.1165705e-65
1.9066689e-69
2.1473966e-67
3.2837027e-71
8.2660623e-69
1.6951693e-72
2.8382814e-70
-1.940871e-71
2.882322e-70
-9.4990909e-71
6.9182803e-70
-3.9135969e-70
1.3790311e-69
-9.1633498e-70
2.7121062e-69
-1.0341739e-69
3.2350694e-69
-7.2528073e-70
2.4392817e-69
-2.4159462e-70
9.6476784e-70
-7.0086934e-71
2.3952559e-70
7.374188e-71
1.5029986e-72
1.1772466e-71
7.6011665e-71
5.4473588e-70
6.6508006e-70
2.2035208e-68
-3.7018087e-69
9.4592174e-68
-8.8285951e-69
1.0827089e-67
-1.0679441e-68
9.4303952e-68
-7.8480056e-69
6.476643e-68
-2.5513359e-69
3.0425588e-68
-4.9670719e-70
7.2483856e-69
-4.4573677e-69
1.9089521e-69
-1.9910272e-69
1.482119e-68
-1.006781e-68
5.8563103e-69
-1.5583065e-65
2.6609416e-66
-4.7048786e-64
3.7618079e-64
-3.0857913e-63
4.2165685e-63
-3.2195478e-62
3.5470824e-62
-4.9682072e-60
4.0170892e-60
-9.2153419e-58
7.0103001e-58
-1.5468496e-55
1.1124342e-55
-2.3611387e-53
1.6094904e-53
-3.2956068e-51
2.1344425e-51
-4.2270717e-49
2.6058549e-49
-5.0038403e-47
2.9418044e-47
-5.4865995e-45
3.0780409e-45
-5.5909243e-43
2.9938666e-43
-5.3080746e-41
2.7114444e-41
-4.7026221e-39
2.2892959e-39
-3.871201e-37
1.8011757e-37
-3.0272635e-35
1.3230035e-35
-3.8459467e-33
9.3674732e-34
-9.7301132e-31
8.5057358e-32
-1.5120204e-29
3.2205988e-30
-2.2519534e-29
1.4409642e-29
-1.5930971e-28
1.9815535e-29
-3.1346951e-27
3.6660871e-28
-5.6548028e-27
1.6236047e-27
-3.8640674e-27
1.5653594e-27
-4.9721126e-28
3.5209674e-28
-5.9293576e-28
-1.2893699e-29
-7.8464519e-27
-7.4238382e-28
-2.8016758e-25
-5.1960686e-26
-8.290127e-24
-2.1104586e-24
-1.4249539e-22
-5.0474246e-23
-8.220379e-22
-5.5068844e-22
-1.3146458e-21
-2.3864046e-21
-2.1785903e-21
-5.1475429e-21
-1.4084711e-20
-2.9309672e-20
-2.0586842e-19
-6.6784559e-19
-2.3901677e-18
-1.4687116e-17
-7.5095549e-18
-3.29509e-16
7.8612463e-16
-3.2529607e-15
5.6048601e-14
-8.0683347e-14
1.2797222e-12
-1.784447e-12
6.4104128e-12
-7.4431869e-12
1.6679369e-11
-1.5379864e-11
2.5967705e-11
-1.6765595e-11
1.9115841e-11
0
8.4234764e-12
0
1.8389032e-12
0
1.6908941e-13
0
9.5122902e-15
4.7425907e-14
6.9200082e-16
5.3596711e-15
4.5707207e-17
2.7476945e-16
2.3462037e-18
1.919156e-17
1.0622119e-19
1.195684e-18
4.2398954e-21
6.2962657e-20
1.4801792e-22
2.8225442e-21
4.5150361e-24
1.0828235e-22
1.2484961e-25
3.5879276e-24
3.2232219e-27
1.0374703e-25
7.3371117e-29
2.6329496e-27
1.414902e-30
5.8451429e-29
2.3740768e-32
1.1320389e-30
3.4851805e-34
1.9162373e-32
4.4652875e-36
2.8348448e-34
4.9775108e-38
3.6599463e-36
4.803143e-40
4.1131724e-38
3.9920142e-42
4.003964e-40
2.8359368e-44
3.3608539e-42
1.7050827e-46
2.4150809e-44
8.5620882e-49
1.4719933e-46
3.5302894e-51
7.514843e-49
1.1670014e-53
3.162911e-51
2.9847098e-56
1.0736124e-53
5.5454842e-59
2.8469908e-56
3.7187219e-62
5.5990752e-59
7.7739496e-65
9.2691462e-62
7.3889467e-66
5.4140925e-64
1.7285504e-67
4.7093348e-65
-1.5378891e-69
2.1196505e-66
-7.4335602e-69
1.0412397e-67
-2.6262866e-68
1.7820579e-67
-7.4988978e-68
3.4379631e-67
-2.3301706e-67
6.1975984e-67
-4.3920286e-67
1.0928655e-66
-4.6390134e-67
1.2036327e-66
-2.9792777e-67
8.8277872e-67
-9.4731222e-68
3.2809851e-67
-2.4794266e-68
7.8828777e-68
2.1815586e-68
3.8103256e-70
2.8644077e-69
2.1139346e-68
1.2906531e-67
3.3038356e-67
5.1918503e-66
-2.4133861e-67
2.1882289e-65
-1.2928285e-66
2.4795906e-65
-1.7953499e-66
2.1718037e-65
-1.4026982e-66
1.4961795e-65
-4.8692744e-67
7.0628609e-66
-8.4988313e-68
1.7185857e-66
-1.5993904e-67
4.0129494e-67
-1.1276308e-66
3.3604235e-66
-5.4534858e-65
4.2449647e-65
-6.2378732e-63
3.7973861e-63
-1.0957011e-61
1.1689321e-61
-5.106503e-61
9.8554419e-61
-5.9637694e-60
7.4874822e-60
-9.5675429e-58
8.894336e-58
-1.8173998e-55
1.5820428e-55
-3.1764973e-53
2.5657253e-53
-4.9024556e-51
3.7978949e-51
-7.0069973e-49
5.1482813e-49
-9.1820633e-47
6.4129424e-47
-1.1081711e-44
7.3715736e-45
-1.2371727e-42
7.8525991e-43
-1.2814663e-40
7.7638725e-41
-1.2350564e-38
7.1442209e-39
-1.1094559e-36
6.1222626e-37
-9.2541622e-35
4.887941e-35
-7.312644e-33
3.6359964e-33
-9.2886213e-31
2.601302e-31
-2.4167248e-28
2.3976559e-29
-3.8063765e-27
9.2932556e-28
-5.624128e-27
4.2239586e-27
-4.1895921e-26
5.8791445e-27
-8.1358105e-25
1.179335e-25
-1.506048e-24
5.4096789e-25
-1.0897246e-24
5.7493892e-25
-1.6346474e-25
1.7266732e-25
-9.6681269e-26
8.6056683e-27
-5.8805258e-25
-3.0315637e-26
-2.1213947e-23
-3.1188941e-24
-6.4407397e-22
-1.3836561e-22
-1.0721191e-20
-3.3731954e-21
-5.5756711e-20
-3.4107275e-20
-7.4597043e-20
-1.2965745e-19
-9.7098176e-20
-2.2481352e-19
-4.5038983e-19
-7.9654139e-19
-7.3320154e-18
-1.8610098e-17
-1.0597145e-16
-3.9487875e-16
-5.187534e-16
-4.7807956e-15
5.4849163e-16
-2.8811087e-14
9.1737037e-13
-1.47609e-12
2.0513954e-11
-3.0850848e-11
1.1528224e-10
-1.4358827e-10
3.3485451e-10
-3.2952261e-10
5.6969497e-10
-4.0668934e-10
4.8857318e-10
-4.2850029e-11
2.3959746e-10
0
6.6421506e-11
0
8.5198104e-12
-3.7398159e-11
5.3047857e-13
2.9755107e-12
2.9960216e-14
4.8337789e-13
1.6942619e-15
2.7076788e-14
1.1396794e-16
1.0954522e-15
4.7284293e-18
6.3237487e-17
1.8166954e-19
3.255773e-18
6.1434872e-21
1.4356519e-19
1.9890973e-22
5.2592015e-21
5.5297779e-24
1.6563008e-22
1.2839804e-25
4.5178268e-24
2.5748597e-27
1.0594839e-25
4.4792309e-29
2.1472251e-27
6.7516802e-31
3.7680239e-29
8.8137244e-33
5.7270064e-31
9.9365492e-35
7.53992e-33
9.6394268e-37
8.5782544e-35
7.9964782e-39
8.4078564e-37
5.6267309e-41
7.0589126e-39
3.3210948e-43
5.0395052e-41
1.6177841e-45
3.0289564e-43
6.3532774e-48
1.5105815e-45
1.9383452e-50
6.1244554e-48
4.2714198e-53
1.9576991e-50
5.2789811e-56
4.6676815e-53
4.6587675e-59
7.0311011e-56
6.6532057e-62
1.1968187e-58
5.9185241e-63
5.8830889e-61
7.6141699e-65
9.6449698e-62
-3.2294333e-65
1.0435065e-62
-3.2516078e-66
4.6576737e-64
-7.5113311e-66
3.9270611e-65
-1.8869741e-65
8.7663008e-65
-4.2100118e-65
1.4124985e-64
-1.0889967e-64
2.3174575e-64
-1.7190938e-64
3.6813112e-64
-1.7326648e-64
3.7287195e-64
-1.0261197e-64
2.6360521e-64
-3.1255259e-65
9.1218271e-65
-7.5115409e-66
2.084641e-65
5.1049779e-66
8.8876391e-68
6.313559e-67
5.0674314e-66
2.6612041e-65
1.0319382e-64
1.0594849e-63
6.9974509e-65
4.4246907e-63
-1.2251688e-64
4.999493e-63
-2.4157107e-64
4.4093155e-63
-2.1131616e-64
3.0531318e-63
-7.9155868e-65
1.4519519e-63
-1.3849065e-65
3.6028153e-64
-1.9030332e-65
8.1772091e-65
-3.5629341e-64
6.0444302e-64
-3.8858716e-62
3.9116868e-62
-1.921054e-60
1.7901654e-60
-2.2072303e-59
3.1101567e-59
-8.5014812e-59
2.0163655e-58
-7.5722783e-58
1.1724077e-57
-1.0902684e-55
1.1620494e-55
-2.0944352e-53
2.0808098e-53
-3.6771253e-51
3.4216814e-51
-5.872142e-49
5.1532019e-49
-9.1193924e-47
7.1049055e-47
-1.1775011e-44
9.0300845e-45
-1.4132045e-42
1.0579613e-42
-1.6075012e-40
1.146969e-40
-1.6959887e-38
1.1552813e-38
-1.6639288e-36
1.0835744e-36
-1.5197e-34
9.4526778e-35
-1.2884955e-32
7.679482e-33
-1.0297675e-30
5.8078499e-31
-1.1604027e-28
4.1895176e-29
-2.5526526e-26
3.7204918e-27
-4.5858234e-25
1.7127459e-25
-1.5870188e-24
1.2381718e-24
-2.9787131e-23
4.3553812e-24
-2.2339585e-22
6.104093e-23
-3.2408242e-22
1.6475859e-22
-2.3748185e-22
1.6499309e-22
-3.8532252e-23
5.7281627e-23
-1.6892133e-23
5.1657618e-24
-4.0012596e-23
-2.8310217e-25
-1.4499184e-21
-1.452522e-22
-4.549233e-20
-7.7684249e-21
-7.3839088e-19
-2.022249e-19
-3.4530992e-18
-1.9251238e-18
-3.8127863e-18
-6.5949904e-18
-3.9776299e-18
-8.8050992e-18
-1.1541033e-17
-1.6788207e-17
-2.2067828e-16
-3.9080398e-16
-1.5467151e-15
-5.654048e-15
-6.8879652e-15
-2.1246491e-14
-6.9925518e-14
-4.4316069e-13
6.0524516e-13
-1.1415884e-11
2.6583729e-10
-4.5677e-10
2.0351081e-09
-2.5976071e-09
6.5585114e-09
-6.4134174e-09
1.1666571e-08
-8.4252006e-09
1.1443958e-08
-3.3818425e-09
6.7374557e-09
0
3.7581041e-09
-7.7088245e-09
7.3695144e-11
-2.1097965e-11
1.0669778e-11
5.4989445e-11
9.4667659e-13
9.4157125e-12
5.5665564e-14
8.4038585e-13
3.4261607e-15
4.7554643e-14
1.7560289e-16
2.7725201e-15
6.6565419e-18
1.4239459e-16
2.3335075e-19
6.0705566e-18
7.2508798e-21
2.1139927e-19
1.7822396e-22
6.179248e-21
3.7091939e-24
1.5271865e-22
6.6035972e-26
3.2144449e-24
1.0059106e-27
5.7763387e-26
1.3113692e-29
8.8794232e-28
1.45954e-31
1.168764e-29
1.3823226e-33
1.3148188e-31
1.1058165e-35
1.261208e-33
7.3904509e-38
1.0250155e-35
4.0621594e-40
6.9918388e-38
1.7809888e-42
3.9528821e-40
5.8951283e-45
1.8062591e-42
1.2304182e-47
6.4121681e-45
2.2683062e-50
1.5674663e-47
2.9331638e-53
3.6727986e-50
2.653607e-56
6.4714804e-53
2.8443029e-59
7.5970951e-56
1.4068604e-60
3.9427359e-58
-6.6542857e-61
8.5754851e-59
-2.1301816e-61
1.7955073e-59
-1.628102e-62
1.9429404e-60
-2.2278168e-63
8.9859518e-62
-4.9228847e-63
1.4831038e-62
-9.7932839e-63
3.5136797e-62
-1.8436119e-62
4.874065e-62
-4.1722857e-62
7.2771995e-62
-5.6286542e-62
1.0488126e-61
-5.4753109e-62
9.719951e-62
-3.0088875e-62
6.5491158e-62
-8.8106348e-63
2.0884788e-62
-1.9710146e-63
4.4233085e-63
9.1429215e-64
1.9508108e-65
1.2918389e-64
1.0704063e-63
4.8665154e-63
2.5203305e-62
1.9062229e-61
3.3112511e-62
7.9463861e-61
1.973505e-63
8.9896143e-61
-2.2755113e-62
7.9959751e-61
-2.5863105e-62
5.5752706e-61
-1.0755701e-62
2.6773149e-61
-2.2266686e-63
6.7355617e-62
-3.0728099e-63
1.6994414e-62
-1.0907872e-61
1.2840961e-61
-1.2184327e-59
1.440514e-59
-3.956646e-58
5.0198718e-58
-3.6125919e-57
6.3954054e-57
-1.2845534e-56
3.6055725e-56
-1.206605e-55
2.0975971e-55
-1.9218182e-53
2.3231032e-53
-3.8384171e-51
4.3297382e-51
-6.893935e-49
7.2808375e-49
-1.1268905e-46
1.1174259e-46
-1.6837699e-44
1.5740393e-44
-2.3070441e-42
2.0415908e-42
-2.908563e-40
2.445538e-40
-3.3874575e-38
2.7118109e-38
-3.6546523e-36
2.7944613e-36
-3.6600149e-34
2.6756982e-34
-3.413434e-32
2.3895847e-32
-2.9553544e-30
1.986052e-30
-2.4100716e-28
1.5373964e-28
-2.9021181e-26
1.1341876e-26
-7.795733e-24
1.0651748e-24
-1.3132026e-22
4.782319e-23
-2.7182231e-22
2.698116e-22
-3.3768602e-21
5.5102811e-22
-3.5120706e-20
9.5617277e-21
-5.0592442e-20
3.1742231e-20
-3.7709314e-20