/*--------------------------------*- C++ -*----------------------------------*\
  =========                 |
  \\      /  F ield         | OpenFOAM: The Open Source CFD Toolbox
   \\    /   O peration     | Website:  https://openfoam.org
    \\  /    A nd           | Version:  9
     \\/     M anipulation  |
\*---------------------------------------------------------------------------*/
FoamFile
{
    format      ascii;
    class       volScalarField;
    location    "0.62";
    object      p_rgh;
}
// * * * * * * * * * * * * * * * * * * * * * * * * * * * * * * * * * * * * * //

dimensions      [1 -1 -2 0 0 0 0];

internalField   nonuniform List<scalar> 
10000
(
0
0.030838821
0.082561419
0.14055425
0.21354221
0.30095518
0.40240944
0.51747574
0.6456982
0.78648578
0.93924636
1.1032413
1.2777536
1.4619662
1.654987
1.8559197
2.0637808
2.2775459
2.4961834
2.7186006
2.9436808
3.1702957
3.397314
3.6235884
3.8480065
4.0694436
4.2867835
4.4989728
4.7050171
4.9039458
5.0948302
5.2767864
5.448913
5.6100797
5.7589921
5.8955226
6.0201321
6.1334942
6.2405065
6.3285732
6.3987816
6.449969
6.4804457
6.4881082
6.4705629
6.4250323
6.3483126
6.237631
6.0888062
5.8984017
5.6635748
5.3824016
5.0545251
4.6817319
4.2686877
3.8231009
3.3552447
2.8767745
2.3992216
1.9326989
1.4849961
1.0613263
0.66163322
0.28330881
-0.076458536
-0.42085369
-0.75316241
-1.0761162
-1.3918368
-1.7017224
-2.0065736
-2.3067929
-2.6023947
-2.8931679
-3.1786765
-3.4583867
-3.7317179
-3.998082
-4.2569429
-4.5077585
-4.7499698
-4.9830384
-5.2066063
-5.4202681
-5.6236685
-5.8164703
-5.9983288
-6.1689251
-6.3279773
-6.4754383
-6.6112961
-6.7354104
-6.8475895
-6.9475541
-7.0351843
-7.1104317
-7.1721516
-7.2214793
-7.2585254
-7.2810821
-0.025407662
0.0048424209
0.056837055
0.11450431
0.18746969
0.27494615
0.37655255
0.49187208
0.62036947
0.76156393
0.91475921
1.0793021
1.2544547
1.4393808
1.6332349
1.8351039
2.0439933
2.2589077
2.4787964
2.7025495
2.9290726
3.1572414
3.3858866
3.6138947
3.8401205
4.0634267
4.2827072
4.496933
4.7050818
4.9061632
5.0992579
5.2834741
5.4579256
5.6217626
5.7742565
5.9150459
6.0440443
6.1617229
6.2671025
6.3564737
6.4285195
6.4817957
6.5144585
6.5242885
6.5088291
6.4652367
6.3902634
6.2810208
6.1339018
5.9444241
5.7094962
5.4266494
5.0949319
4.7156962
4.2935665
3.8368124
3.3567989
2.8664752
2.3784706
1.9034188
1.449023
1.0190989
0.6143388
0.23224088
-0.13017516
-0.47618823
-0.80912377
-1.1318257
-1.4465384
-1.7548596
-2.0577365
-2.3557018
-2.6489254
-2.9372815
-3.2204602
-3.4979811
-3.7692664
-4.0337759
-4.2910013
-4.5403708
-4.7813013
-5.0133255
-5.2359648
-5.448833
-5.6515598
-5.8437925
-6.0251981
-6.1955478
-6.3546035
-6.5021007
-6.637832
-6.7616707
-6.8734119
-6.9729494
-7.0601253
-7.134781
-7.1963931
-7.2455226
-7.2830261
-7.3063482
-0.063000626
-0.032511724
0.01769593
0.076044036
0.14945135
0.23746111
0.33970962
0.45576281
0.58519313
0.72739578
0.88178669
1.0476931
1.22433
1.4109139
1.606585
1.8103845
2.0213704
2.238536
2.4607802
2.6870348
2.9161838
3.1470559
3.3785081
3.6093968
3.8385573
4.0648313
4.2871337
4.5043953
4.715578
4.9196857
5.1157925
5.3030094
5.4804973
5.6475069
5.803387
5.9475917
6.0797246
6.1990751
6.3053178
6.396268
6.470283
6.5257124
6.5607336
6.5730557
6.5600229
6.5187115
6.4458612
6.3381859
6.1932261
6.0037548
5.7673895
5.4808019
5.1419758
4.7515417
4.3141128
3.8391086
3.3400469
2.832203
2.3300288
1.8450117
1.3847579
0.95277329
0.54811695
0.16786612
-0.19168809
-0.53453655
-0.86435728
-1.1841898
-1.496335
-1.8023745
-2.1032422
-2.3994268
-2.6911455
-2.9782332
-3.2603033
-3.5368695
-3.8073548
-4.0712253
-4.3279908
-4.5770056
-4.8176643
-5.0494735
-5.271981
-5.4847737
-5.6874724
-5.8797081
-6.0611466
-6.2315048
-6.390516
-6.5379464
-6.6736034
-6.797336
-6.9089277
-7.0082705
-7.0952278
-7.1695413
-7.231068
-7.2800659
-7.3176896
-7.341227
-0.11591362
-0.085301845
-0.036598433
0.022385409
0.09653978
0.18544122
0.28871656
0.40602759
0.53687462
0.68072099
0.83698163
1.0049442
1.1838741
1.3729624
1.5713135
1.7780122
1.9920859
2.2124836
2.4381471
2.6679766
2.9008091
3.1354804
3.3708234
3.6056506
3.8387765
4.0690599
4.2953833
4.5166397
4.7317893
4.9398339
5.1398298
5.3308923
5.5122173
5.6830672
5.8427786
5.9907566
6.1264856
6.2493892
6.3585665
6.4525889
6.5299094
6.5888571
6.6275382
6.6435528
6.6340826
6.5960771
6.5260354
6.4194177
6.2808191
6.090929
5.853505
5.562875
5.2148342
4.8083496
4.3476512
3.8440618
3.3151128
2.7802304
2.2568105
1.7576621
1.289894
0.85537096
0.4519295
0.075631174
-0.27853576
-0.61563642
-0.93998435
-1.2548419
-1.5625846
-1.8648449
-2.1625414
-2.4561239
-2.7456994
-3.0310359
-3.3117106
-3.5871568
-3.8567616
-4.1199966
-4.3763025
-4.6249565
-4.8653828
-5.0970482
-5.3195023
-5.5323129
-5.7350623
-5.9273729
-6.1088968
-6.2793273
-6.4383979
-6.5858917
-6.7215809
-6.8453027
-6.9568666
-7.0561396
-7.1429664
-7.2171977
-7.2786442
-7.3274842
-7.3649694
-7.3883671
-0.18432238
-0.15389529
-0.10596434
-0.046411554
0.028646174
0.11870947
0.22344776
0.34244204
0.47524597
0.62134423
0.78010375
0.95086387
1.1328771
1.3252963
1.5272526
1.7378128
1.9559607
2.1806608
2.410842
2.6453498
2.8830043
3.1226274
3.3630073
3.6029214
3.8411752
4.0765971
4.3080284
4.5343349
4.7544812
4.9674594
5.1722849
5.368077
5.554046
5.7294446
5.8936203
6.0459769
6.1859128
6.3127832
6.4259992
6.5240759
6.6056396
6.6690753
6.7123739
6.7330359
6.7281116
6.6944008
6.6285713
6.5270779
6.387306
6.2008071
5.9634355
5.6686396
5.3089451
4.8801425
4.3849553
3.8378377
3.2639546
2.6900315
2.1379286
1.6216777
1.1472076
0.71440216
0.31728801
-0.050064314
-0.39431229
-0.72182018
-1.0375115
-1.3448453
-1.6461631
-1.9430364
-2.2362996
-2.5262841
-2.8129624
-3.0959877
-3.374837
-3.6488754
-3.9174463
-4.1799537
-4.4357345
-4.684028
-4.9242382
-5.1558451
-5.3783304
-5.5912414
-5.7941392
-5.9866495
-6.1683993
-6.3390479
-6.4983278
-6.6460189
-6.7818703
-6.9057005
-7.0173393
-7.116624
-7.2034159
-7.2775844
-7.3389592
-7.3876788
-7.4248886
-7.4479526
-0.26853168
-0.2382436
-0.19057322
-0.13078722
-0.054520803
0.037101878
0.14366288
0.26480549
0.40011031
0.54902531
0.71096217
0.88525671
1.0711276
1.2677502
1.474239
1.689619
1.9128809
2.1429788
2.3787842
2.6191114
2.8627643
3.1085156
3.3551083
3.6013049
3.8458728
4.0875722
4.3252169
4.557668
4.7838469
5.0027342
5.2132925
5.4146551
5.6060199
5.7866501
5.9559148
6.1132085
6.2578235
6.3887773
6.5071152
6.6100491
6.6966829
6.7655303
6.8144504
6.8407562
6.841243
6.8125399
6.7512522
6.6539428
6.516699
6.3335055
6.0975614
5.7995301
5.4265146
4.9681826
4.4228225
3.8100508
3.1698625
2.5410377
1.9523594
1.4187305
0.94147003
0.5182381
0.13558644
-0.21484049
-0.54229069
-0.85468802
-1.1573253
-1.4536473
-1.7458958
-2.0353919
-2.3227756
-2.6081368
-2.8911843
-3.1714119
-3.4481495
-3.7206182
-3.9881157
-4.249957
-4.505304
-4.7533965
-4.9936076
-5.22535
-5.4480617
-5.6612801
-5.864552
-6.057453
-6.2395949
-6.4106437
-6.5703097
-6.7183486
-6.8545035
-6.9785789
-7.0904031
-7.1897915
-7.2766011
-7.3507456
-7.4120363
-7.4605904
-7.497505
-7.5201046
-0.36893905
-0.3387122
-0.29050812
-0.2313448
-0.15317862
-0.059689527
0.049065409
0.17281279
0.31110512
0.46343578
0.62922324
0.80776733
0.99830772
1.2000129
1.4119509
1.6331491
1.862597
2.0991886
2.3417514
2.5890823
2.839934
3.0930204
3.3470561
3.6007573
3.8528205
4.1019621
4.3469738
4.5866704
4.8199049
5.0456378
5.2628159
5.4705314
5.6680117
5.8545084
6.0293957
6.1921142
6.3421422
6.4791344
6.6013927
6.7094092
6.8017021
6.876661
6.9321393
6.9651386
6.9719351
6.9487004
6.8919259
6.7983098
6.6643951
6.4856688
6.2537079
5.9550895
5.5681179
5.0709644
4.452576
3.7375663
2.9977713
2.2919086
1.6594475
1.1139631
0.64879539
0.24530287
-0.10875424
-0.42910489
-0.72952561
-1.019011
-1.3026143
-1.5833673
-1.8631106
-2.1427161
-2.4223948
-2.701835
-2.9804051
-3.2573039
-3.5316072
-3.8023824
-4.0688216
-4.3300391
-4.5850734
-4.8331403
-5.073545
-5.3056205
-5.5287961
-5.7425518
-5.9463863
-6.1398604
-6.3225913
-6.4942331
-6.6544586
-6.8029842
-6.9395793
-7.0640118
-7.1761221
-7.2757126
-7.3626151
-7.4367506
-7.497975
-7.5463538
-7.5829142
-7.6049801
-0.48606031
-0.45606142
-0.408183
-0.34649768
-0.26736028
-0.17197087
-0.060711598
0.066025374
0.20781742
0.36416279
0.5344443
0.71798215
0.91401534
1.1216706
1.3400147
1.5680741
1.8047861
2.0489941
2.2994993
2.5550541
2.8143463
3.0760392
3.3387959
3.6012581
3.8620486
4.1198474
4.3734016
4.6214459
4.8627698
5.0962818
5.3209664
5.5358155
5.7400556
5.9329983
6.1139652
6.2823874
6.4377966
6.5796995
6.7070274
6.8205777
6.9188442
7.0005386
7.0635843
7.1044661
7.1185689
7.1012289
7.048545
6.9575694
6.8260016
6.6509009
6.4262306
6.1349135
5.7374359
5.1985124
4.4770532
3.592514
2.6973054
1.8784271
1.1943114
0.65214242
0.21915869
-0.13543274
-0.4356153
-0.70570392
-0.96435363
-1.2202393
-1.4768306
-1.736089
-1.9989992
-2.26563
-2.5354441
-2.8074805
-3.0805849
-3.353535
-3.6250943
-3.8941027
-4.1595119
-4.4201567
-4.6750149
-4.9232378
-5.1640473
-5.3967171
-5.6205875
-5.8350784
-6.0396777
-6.2339477
-6.4174785
-6.5898883
-6.7508484
-6.9000189
-7.037185
-7.1621014
-7.2745678
-7.3744063
-7.4614979
-7.5356844
-7.5968442
-7.6450486
-7.6812579
-7.7027398
-0.62020215
-0.59034359
-0.54210182
-0.47867791
-0.3979522
-0.30029834
-0.1862091
-0.056050848
0.089757784
0.250685
0.42613178
0.61542043
0.81775278
1.0322561
1.2580072
1.493985
1.7390671
1.9920715
2.2517528
2.5167942
2.7858254
3.0574568
3.3302663
3.6027999
3.8736248
4.1413563
4.4046437
4.6621475
4.9126008
5.1548772
5.3879319
5.6106629
5.8222659
6.0221146
6.2094889
6.383795
6.5445047
6.691137
6.8233802
6.941555
7.0453716
7.1341734
7.2059169
7.2563051
7.2792882
7.2685672
7.2191564
7.128264
6.9954244
6.8209756
6.5999586
6.3373334
5.9384707
5.3622242
4.498708
3.3191655
2.1827054
1.2011411
0.45744519
-0.049188697
-0.39906084
-0.66673387
-0.87421381
-1.0617733
-1.2569152
-1.4644303
-1.6832735
-1.9133174
-2.1540453
-2.4040678
-2.6615617
-2.9245624
-3.1911797
-3.4596016
-3.7281603
-3.9953383
-4.2597346
-4.519946
-4.774857
-5.0235042
-5.2649925
-5.4985074
-5.7233273
-5.9388172
-6.1444517
-6.3397675
-6.5243127
-6.6976855
-6.8595934
-7.0095596
-7.1473967
-7.2729001
-7.38587
-7.4860774
-7.5733832
-7.6476656
-7.7088038
-7.756832
-7.7926695
-7.8135153
-0.7718363
-0.74196293
-0.69314504
-0.62813706
-0.54551671
-0.44529859
-0.3280105
-0.19399254
-0.043683197
0.1224124
0.30370424
0.49947975
0.70894419
0.93124133
1.1654109
1.4103803
1.6649963
1.9280324
2.1981734
2.4740363
2.75419
3.0371492
3.3213975
3.6053996
3.8876444
4.1666329
4.4408975
4.7090126
4.9696802
5.2217298
5.4639986
5.6953456
5.9148545
6.1219328
6.3159423
6.4961803
6.6619075
6.8125354
6.9481678
7.0691424
7.1772071
7.2730446
7.3548642
7.4174561
7.4523555
7.4500253
7.4029893
7.3078418
7.1659336
6.9843243
6.7754032
6.5301339
6.1875521
5.5061
4.4451066
2.736393
1.207902
-0.040672133
-0.79569679
-1.2019511
-1.3595335
-1.4354045
-1.4675379
-1.520575
-1.6203013
-1.7583526
-1.9249391
-2.1159461
-2.3280478
-2.5572957
-2.7998194
-3.0521546
-3.3113379
-3.5747856
-3.8401895
-4.1055102
-4.3689613
-4.6290245
-4.8843614
-5.1337576
-5.376248
-5.6109107
-5.8369813
-6.053783
-6.2607462
-6.457367
-6.6431941
-6.8177735
-6.9807327
-7.131704
-7.2704129
-7.3966592
-7.5101881
-7.6108495
-7.6984559
-7.7728718
-7.8339777
-7.8818601
-7.9173151
-7.9374776
-0.94145534
-0.91154222
-0.86201993
-0.79543414
-0.71058411
-0.60757791
-0.48674944
-0.34848
-0.19317153
-0.021317106
0.16646863
0.36948229
0.58695413
0.81800063
1.0616137
1.3166974
1.5820647
1.8564179
2.1383745
2.4264841
2.7192242
3.014993
3.3121617
3.6091237
3.9042532
4.1958869
4.4824418
4.7624117
5.0344071
5.2971873
5.5495708
5.7902555
6.018171
6.2326935
6.4333246
6.6193461
6.7895727
6.9428145
7.0789188
7.1993959
7.3081672
7.4101986
7.5036919
7.5829
7.6355704
7.6463237
7.6024823
7.4977312
7.3326514
7.1213839
6.901165
6.6843105
6.4412257
5.5654897
4.1773135
1.7470803
0.078127088
-1.4638735
-3.0370879
-3.1750283
-2.9943296
-2.6033071
-2.2733027
-2.1076593
-2.0695137
-2.1090641
-2.2035643
-2.3433304
-2.5195193
-2.7236071
-2.9485537
-3.1887694
-3.4398316
-3.6980591
-3.960266
-4.2238886
-4.4867532
-4.7471452
-5.0032613
-5.253789
-5.49773
-5.7339207
-5.9615699
-6.1800127
-6.3886601
-6.5869225
-6.7742494
-6.9502287
-7.1144783
-7.2666366
-7.4063624
-7.533487
-7.6477214
-7.748915
-7.8368761
-7.9114861
-7.9725797
-8.0203195
-8.0553796
-8.0748386
-1.1296885
-1.0996626
-1.0493554
-0.98114446
-0.89392207
-0.78782189
-0.66316585
-0.5202485
-0.35945181
-0.18128757
0.013647187
0.22468459
0.45103806
0.69178834
0.94591395
1.2122916
1.4896755
1.7767043
2.0719259
2.3737948
2.6806665
2.9908359
3.3025592
3.6140835
3.9236348
4.2294077
4.5296644
4.822808
5.1072984
5.381742
5.6451398
5.8959936
6.1327881
6.354783
6.5618346
6.7533591
6.9273986
7.0812371
7.2136215
7.3272383
7.4273394
7.5340266
7.6402281
7.7421345
7.8242025
7.8607457
7.8271854
7.709959
7.5044011
7.2155977
6.9079693
6.7010839
6.3452375
4.8838272
4.1167638
2.5624218
0.65938534
-3.612369
-7.6581453
-7.3837149
-6.1130246
-4.5808475
-3.4545068
-2.8672943
-2.6160878
-2.5200377
-2.5180232
-2.5924296
-2.7251947
-2.8999626
-3.1050878
-3.3321909
-3.5749109
-3.8279976
-4.0872861
-4.3495827
-4.6124025
-4.8739452
-5.1313207
-5.3833984
-5.629412
-5.8674713
-6.0971429
-6.3176957
-6.5282801
-6.7284139
-6.9175693
-7.0952305
-7.2610059
-7.4145509
-7.5554883
-7.6836137
-7.7986608
-7.9004849
-7.988882
-8.0637104
-8.1248288
-8.1724201
-8.2070824
-8.2257898
-1.3371399
-1.3069971
-1.2559006
-1.1859682
-1.0962447
-0.98686152
-0.8580434
-0.71011697
-0.54339488
-0.35837711
-0.15561566
0.06421885
0.3003171
0.55175945
0.8175118
1.0964067
1.3871429
1.6882987
1.9983266
2.3155582
2.6382303
2.9645258
3.2925646
3.6204009
3.9460691
4.2675995
4.5830811
4.8907637
5.1889775
5.4760565
5.7513795
6.0134326
6.2596545
6.4888486
6.7017124
6.8983927
7.0754128
7.2273566
7.3498253
7.4469792
7.534653
7.6247706
7.7420312
7.8796026
8.0165852
8.1060395
8.1004433
7.9762691
7.7164943
7.2536694
6.6252647
6.6018464
6.3878223
4.9641411
1.1170522
-4.8219737
-10.179041
-14.688381
-15.93465
-14.680984
-11.546802
-7.9098237
-5.2511549
-3.8717612
-3.2711439
-2.9860542
-2.8601293
-2.8554004
-2.9385953
-3.0812838
-3.2654576
-3.4793962
-3.7143232
-3.9629563
-4.2200492
-4.4815568
-4.7448564
-5.0093067
-5.2683519
-5.5221048
-5.7714917
-6.0117371
-6.2437742
-6.4666942
-6.6796769
-6.8820669
-7.0733663
-7.252997
-7.4205429
-7.575667
-7.7179884
-7.8472752
-7.9632604
-8.0657825
-8.1546783
-8.2297871
-8.2909641
-8.338387
-8.3726317
-8.3903877
-1.5645082
-1.534335
-1.482403
-1.4107056
-1.318398
-1.2055375
-1.0723095
-0.91898572
-0.74596323
-0.55353865
-0.34230347
-0.112928
0.13379684
0.39695511
0.6754834
0.96817539
1.2736846
1.5905077
1.9169762
2.251301
2.5916001
2.9359093
3.2821683
3.6282297
3.9719203
4.3110342
4.6434125
4.9670447
5.2801934
5.580843
5.8689719
6.1436605
6.4002718
6.6352619
6.8514511
7.053692
7.2351195
7.3832446
7.4848526
7.5416656
7.5745082
7.6315071
7.7809824
7.9761564
8.2040021
8.3949197
8.452929
8.3531722
8.0607535
7.4004968
6.3408638
7.2295439
4.8940721
-1.5626315
-8.3850189
-14.082243
-20.636876
-25.222523
-26.315291
-23.982292
-18.663186
-12.357249
-7.5880212
-5.0826105
-4.0048534
-3.4776834
-3.2071954
-3.1172661
-3.1497508
-3.2602888
-3.4242216
-3.6264212
-3.8554595
-4.1010239
-4.3571705
-4.6188139
-4.8817651
-5.1544642
-5.4144994
-5.6711406
-5.9224278
-6.1660826
-6.4012932
-6.6271749
-6.8429868
-7.0480483
-7.2418091
-7.4237253
-7.5933165
-7.7502417
-7.8941256
-8.0247084
-8.1417628
-8.2450924
-8.3345417
-8.40997
-8.4712106
-8.5184878
-8.5522853
-8.5691633
-1.8125917
-1.7824601
-1.7297022
-1.6562443
-1.5612606
-1.4447694
-1.3069376
-1.1479703
-0.96813496
-0.76785812
-0.54754515
-0.30788625
-0.049639585
0.22626961
0.51876232
0.82660731
1.1483935
1.4825138
1.8271848
2.1804906
2.5404089
2.9047959
3.2713901
3.6378197
4.0016621
4.3604228
4.7116024
5.0527691
5.3820257
5.6969997
5.9983651
6.2872836
6.5575587
6.7989165
7.0161556
7.2247853
7.4087829
7.5537044
7.6204361
7.6034483
7.5414064
7.5616205
7.6893329
7.8821112
8.2536852
8.6765402
8.9007306
8.9102518
8.6827665
8.065224
6.9301649
9.2025157
3.4421518
-5.0828055
-13.095286
-21.581717
-29.358958
-34.372724
-35.343352
-32.126545
-25.080175
-16.517591
-9.8280248
-6.247633
-4.6967461
-3.9260134
-3.5222045
-3.3575058
-3.3457367
-3.4284275
-3.5752889
-3.7683609
-3.9962499
-4.2404209
-4.4975292
-4.7621843
-5.0305062
-5.3010606
-5.5670705
-5.8282737
-6.0833838
-6.3309372
-6.5698684
-6.7992726
-7.0184135
-7.2265924
-7.4231796
-7.6076765
-7.7795978
-7.9385577
-8.0842084
-8.2162634
-8.3344867
-8.4387095
-8.528786
-8.6045581
-8.6658545
-8.7129793
-8.7463846
-8.7623295
-2.0821905
-2.0522526
-1.9986995
-1.9234767
-1.8257764
-1.7055798
-1.5629839
-1.3981107
-1.2111831
-1.0025314
-0.77259342
-0.52192157
-0.25126975
0.038444467
0.34614183
0.67055798
1.0102007
1.3633576
1.7281443
2.1024997
2.4842164
2.8709551
3.2602442
3.6494707
4.0358961
4.4166677
4.7888434
5.1494094
5.4959507
5.8254958
6.1396219
6.4437971
6.7318462
6.9821315
7.1800258
7.4119118
7.6000641
7.7525802
7.7632397
7.6063713
7.3035089
6.9924002
7.0489104
7.329605
7.9911757
8.8945214
9.547306
9.7298787
9.6930129
9.3711932
9.1030517
11.228874
-0.49084995
-7.8288547
-16.529644
-26.033807
-34.649825
-39.608431
-40.286401
-36.565134
-28.585385
-18.83902
-11.14482
-7.0718738
-5.1814193
-4.2479196
-3.7646392
-3.5529806
-3.5128533
-3.5778744
-3.7158324
-3.9051972
-4.1302343
-4.3773135
-4.6386664
-4.9084234
-5.1821357
-5.4565146
-5.7278626
-5.9942759
-6.2542499
-6.5064631
-6.7497656
-6.9832575
-7.2062268
-7.4179691
-7.6178181
-7.8052316
-7.9797774
-8.141013
-8.2885856
-8.4222648
-8.5417842
-8.6469893
-8.7377593
-8.813929
-8.8752446
-8.922213
-8.9552494
-8.9702184
-2.374185
-2.344614
-2.2902822
-2.2133463
-2.1129729
-1.9890363
-1.8415665
-1.670624
-1.4763518
-1.2589768
-1.0188447
-0.7564784
-0.47255182
-0.16795412
0.15623035
0.49869039
0.85786115
1.2319391
1.618912
2.0165599
2.4224771
2.8341066
3.2487394
3.6635018
4.075326
4.4809269
4.8767581
5.259104
5.6242414
5.9677703
6.2920769
6.6108197
6.9254698
7.2364307
7.3603079
7.5954541
7.7679355
7.9715767
7.9070857
7.472987
6.8472247
6.8438592
7.673767
8.3764029
9.3327328
9.6538168
10.570728
10.80848
11.061997
10.972905
12.083197
12.03676
-0.71503166
-8.5367721
-17.163735
-26.749375
-35.425194
-40.13661
-40.410469
-36.510863
-28.419676
-18.833211
-11.390143
-7.2640067
-5.3320424
-4.385739
-3.9012862
-3.6839084
-3.6374911
-3.6992247
-3.837212
-4.0291816
-4.2583266
-4.5116207
-4.7801269
-5.0572367
-5.338077
-5.618946
-5.8967747
-6.1694051
-6.4351802
-6.692809
-6.9411918
-7.1794401
-7.4067723
-7.6225233
-7.8260536
-8.0167498
-8.1942131
-8.357996
-8.5077381
-8.6431765
-8.7640788
-8.8703218
-8.9618233
-9.0385736
-9.0996767
-9.14658
-9.1792337
-9.1932128
-2.6894674
-2.6603977
-2.6053971
-2.526858
-2.4238965
-2.2962601
-2.1439287
-1.9668658
-1.7650757
-1.5386686
-1.2878997
-1.0131874
-0.71514085
-0.39458375
-0.052614737
0.3094371
0.68993003
1.0869643
1.498376
1.9217669
2.354524
2.7938543
3.2367923
3.6801945
4.120734
4.5546415
4.9775385
5.3849719
5.7706045
6.126115
6.453045
6.7708864
7.0680155
7.4217234
7.4024386
8.0072167
7.9240118
8.3635325
8.2562392
7.5338867
6.7823434
8.4938494
12.787875
12.907385
12.787795
13.432631
11.661377
11.918193
12.688865
12.480637
13.486103
12.786279
-0.64977419
-7.3115098
-15.205917
-23.834799
-31.610907
-35.906871
-35.924833
-32.209756
-24.810843
-16.510872
-10.27256
-6.8041689
-5.1420793
-4.3355978
-3.9274292
-3.7466354
-3.7170978
-3.78888
-3.936692
-4.1387024
-4.3782178
-4.6421802
-4.9212714
-5.2084752
-5.4986748
-5.7880777
-6.0738117
-6.353789
-6.6263649
-6.8902569
-7.144424
-7.3880694
-7.6203857
-7.8406888
-8.0483474
-8.2427354
-8.4234607
-8.5900377
-8.7421598
-8.8795085
-9.0018662
-9.1091318
-9.2011952
-9.2776716
-9.3394768
-9.3864254
-9.4186977
-9.4317064
-3.0289068
-3.0005159
-2.945023
-2.8650224
-2.7596437
-2.6284878
-2.471432
-2.2882949
-2.0789254
-1.8432993
-1.5815356
-1.2939151
-0.98093149
-0.64336687
-0.28231109
0.10096208
0.50469513
0.92688174
1.3651914
1.8170207
2.2795076
2.7496175
3.2241589
3.6997152
4.172754
4.6392322
5.0938134
5.5308933
5.9414735
6.3096071
6.6365813
6.9323747
7.233066
7.295874
8.4595341
11.934166
9.2233136
9.1212971
8.7114635
7.2585931
5.4341641
4.4332204
5.1374619
6.4814591
8.4781435
12.461151
13.095994
13.020883
14.237733
13.403882
14.818632
12.707818
1.4653314
-4.409741
-10.979836
-17.512409
-24.458127
-27.692523
-27.863343
-24.639338
-18.878503
-12.754648
-8.3164462
-5.8474191
-4.6686325
-4.1162964
-3.8541275
-3.7457122
-3.7520466
-3.8454729
-4.0127227
-4.2326083
-4.4890511
-4.7686853
-5.062192
-5.3624345
-5.6643188
-5.9641564
-6.2592735
-6.5477436
-6.8280667
-7.0990762
-7.3598257
-7.6095437
-7.8474842
-8.0729519
-8.2852521
-8.483759
-8.6680839
-8.8377497
-8.9924246
-9.1317945
-9.2556823
-9.3640246
-9.4567868
-9.5338068
-9.59543
-9.6422273
-9.6740366
-9.6860897
-3.3934291
-3.3658939
-3.3101074
-3.228884
-3.1214017
-2.9870389
-2.8255148
-2.6364924
-2.4196446
-2.1747603
-1.9017665
-1.6007759
-1.2721392
-0.91647584
-0.53511108
-0.12887516
0.30012204
0.74983574
1.2177372
1.700959
2.1963531
2.700574
3.2102688
3.7219154
4.2318124
4.7357878
5.2280846
5.7018234
6.1465925
6.534139
6.8695053
7.1041328
7.5180023
7.1065994
10.208423
11.340899
11.136582
9.804258
8.8404994
6.6208885
3.4338945
1.4809327
1.4266217
2.8717797
5.1500835
6.3593617
16.494232
13.23775
16.242385
15.530675
15.533912
14.011463
3.118027
-1.0552626
-6.3609925
-10.863001
-15.977367
-18.438936
-18.662848
-16.381486
-12.596078
-8.7521988
-6.1070022
-4.473887
-4.0438417
-3.798273
-3.7125382
-3.687928
-3.740789
-3.8674442
-4.0642803
-4.3111049
-4.5913434
-4.8918601
-5.2037018
-5.5199283
-5.8357483
-6.1477419
-6.4536032
-6.7516669
-7.0406702
-7.3196386
-7.5877704
-7.8443237
-8.0885789
-8.319815
-8.537315
-8.7404653
-8.92876
-9.1017806
-9.2591787
-9.4006909
-9.5261542
-9.6356033
-9.728915
-9.8062596
-9.8677551
-9.9143244
-9.9455979
-9.9566995
-3.7839529
-3.7573966
-3.7016018
-3.6195291
-3.5103829
-3.3732645
-3.207707
-3.0131888
-2.7891521
-2.5351441
-2.2508648
-1.9362084
-1.5913294
-1.2167283
-0.81336691
-0.38253946
0.073786218
0.5535979
1.054053
1.5719103
2.1036794
2.6456606
3.1942541
3.7460575
4.2975069
4.8445184
5.3818856
5.9026491
6.3949784
6.823719
7.1881182
7.5200089
7.8384316
7.7695019
8.9532038
11.045431
11.728003
11.866984
8.1333792
6.2673561
3.0539806
0.53821459
0.10309111
1.7530623
3.8916662
6.939405
14.626291
16.460477
19.170768
17.635429
17.058148
15.145976
5.5726571
2.0654431
-1.7440349
-5.256199
-8.1937777
-10.185584
-10.623273
-9.3999634
-7.4675139
-5.2226047
-3.7450891
-3.0957338
-3.1128983
-3.4300832
-3.5430012
-3.5835786
-3.677499
-3.8544232
-4.0932555
-4.3767529
-4.6874558
-5.0138575
-5.3476605
-5.6824897
-6.0141898
-6.339811
-6.6575252
-6.9660947
-7.2646286
-7.552382
-7.828699
-8.0928854
-8.3442382
-8.5819566
-8.8052716
-9.013572
-9.2062768
-9.3829539
-9.543271
-9.6870006
-9.8140361
-9.9243763
-10.018298
-10.095706
-10.156915
-10.203111
-10.233708
-10.243821
-4.2013142
-4.1758476
-4.1204316
-4.0379939
-3.9277742
-3.7885611
-3.6196422
-3.4202524
-3.189547
-2.9267923
-2.6314025
-2.3029716
-1.9413877
-1.5469292
-1.1203387
-0.66298694
-0.17732267
0.33545516
0.87177261
1.4279153
1.9998744
2.5834898
3.1748452
3.7705887
4.3678108
4.9633009
5.5532298
6.13235
6.6882562
7.1788082
7.5715495
7.9277087
8.2675881
8.4824142
8.8889835
10.373246
9.4421689
12.788851
12.616104
6.7806615
4.5776236
2.2871877
1.6362713
2.5733089
4.3833304
7.833718
14.90393
17.006325
19.76159
18.893014
17.749074
16.000072
7.7513901
4.3718508
1.7080288
-1.0344484
-2.7224592
-4.0080165
-4.4374172
-4.2390631
-3.5971659
-3.0008581
-2.5856495
-2.4151465
-2.4820135
-2.5792329
-3.4092222
-3.4686177
-3.5996978
-3.8221904
-4.1109151
-4.4370048
-4.7827439
-5.1386442
-5.4971006
-5.8524853
-6.2013881
-6.5415786
-6.8719153
-7.1916751
-7.5003921
-7.7976773
-8.0830301
-8.3557366
-8.6150289
-8.8600642
-9.0899959
-9.3040668
-9.5016717
-9.6823277
-9.8457332
-9.9916914
-10.120287
-10.231364
-10.325553
-10.402726
-10.463403
-10.509009
-10.538673
-10.547589
-4.6461864
-4.6219332
-4.5673828
-4.4852299
-4.3747595
-4.234377
-4.0630393
-3.8596891
-3.623152
-3.3523421
-3.046291
-2.7042277
-2.3257135
-1.910704
-1.4596273
-0.97331691
-0.45714177
0.092197843
0.66812378
1.266696
1.8831312
2.5125139
3.1503736
3.7932379
4.4390879
5.0866314
5.7345965
6.3807412
7.0137903
7.6008104
8.0348221
8.3798726
8.6653943
8.8910619
9.1497098
9.2795452
8.6968986
8.1602573
9.5319888
10.15821
6.9395195
4.85241
4.1312704
4.5143507
5.6396742
8.4866482
13.815689
16.950367
19.243098
18.876337
16.965688
15.036381
9.0777382
5.6854753
3.7506304
2.0821161
0.44935181
-0.88839023
-1.5087972
-2.3376703
-2.5723339
-2.569787
-2.4936307
-2.273653
-2.3270184
-2.5710958
-3.3189139
-3.3648069
-3.5225218
-3.7940649
-4.1326961
-4.5021226
-4.8845887
-5.2716445
-5.6560628
-6.0329087
-6.3995204
-6.7545445
-7.0976638
-7.4289233
-7.7483621
-8.0558973
-8.3511454
-8.633397
-8.9017053
-9.1550748
-9.3925148
-9.613074
-9.8161207
-10.001099
-10.167716
-10.31584
-10.445511
-10.557349
-10.651473
-10.727996
-10.787754
-10.832409
-10.860759
-10.868071
-5.1187145
-5.0960462
-5.0430813
-4.9621333
-4.8525203
-4.7121906
-4.5397058
-4.3336759
-4.0925233
-3.8147044
-3.498791
-3.143593
-2.7482454
-2.3123199
-1.8359753
-1.3201708
-0.76737675
-0.17953584
0.43989795
1.0855522
1.7513995
2.4312325
3.1192862
3.8114386
4.5063439
5.2053811
5.9125046
6.6295376
7.345311
8.1000022
8.5960841
8.881575
9.0377116
9.1235073
9.1796325
9.1675421
8.8504306
8.6587893
8.9174511
8.6248164
8.664787
6.9787742
6.3553106
6.5785373
7.4267269
9.5083526
17.438483
22.616508
17.404411
18.371893
12.999359
12.853461
8.851683
5.3954862
4.8686197
3.8397328
2.3902411
0.93560255
-0.3091353
-1.2401891
-1.8165643
-2.1848504
-2.3679664
-2.6056624
-2.8866442
-3.0292585
-3.1037491
-3.2297914
-3.4605251
-3.7876046
-4.1723397
-4.5819919
-5.0005258
-5.418853
-5.8293002
-6.227371
-6.6111273
-6.9803287
-7.33574
-7.6782869
-8.0087181
-8.3272206
-8.6333946
-8.9264086
-9.2050834
-9.4680765
-9.7141037
-9.9420253
-10.151081
-10.340717
-10.510669
-10.660944
-10.791583
-10.903501
-10.996976
-11.072268
-11.130524
-11.173716
-11.200223
-11.205434
-5.6185532
-5.5983539
-5.5480466
-5.4695395
-5.36221
-5.223527
-5.0515772
-4.844567
-4.600435
-4.3170884
-3.9925719
-3.6251788
-3.2134823
-2.7565266
-2.2539921
-1.7063639
-1.1150695
-0.48529835
0.1829675
0.88136109
1.6026518
2.338526
3.0808387
3.8232174
4.5635837
5.3061487
6.063335
6.8465465
7.6924728
8.4988135
9.0721495
9.2631891
9.2291723
9.1403286
9.0580983
8.9968082
8.9046944
8.8423103
8.9286772
8.833389
8.3135945
7.9207472
7.8326142
8.1968673
9.484182
12.324852
25.028469
29.131442
15.837622
17.277654
12.972968
11.673255
8.3514642
3.9400337
5.4823517
5.6969605
4.0613099
2.1946949
0.54094678
-0.73998025
-1.64018
-2.2322793
-2.6505616
-2.8112465
-2.8348162
-2.8667473
-2.9592158
-3.1514258
-3.4457057
-3.8173496
-4.2391972
-4.6848368
-5.1379437
-5.586867
-6.0224004
-6.4401359
-6.8391151
-7.220608
-7.5868587
-7.9399398
-8.2813455
-8.6115079
-8.9298999
-9.2353141
-9.5260721
-9.8003383
-10.056335
-10.292701
-10.508474
-10.703071
-10.876348
-11.028487
-11.159645
-11.27099
-11.363056
-11.436354
-11.492361
-11.533414
-11.557364
-11.559832
-6.145372
-6.1289478
-6.082694
-6.0082092
-5.9049782
-5.7699781
-5.6007091
-5.3948919
-5.1499105
-4.8630561
-4.5317651
-4.1536578
-3.7266143
-3.249002
-2.7198448
-2.1390506
-1.5077877
-0.82929217
-0.10735084
0.65061068
1.4350515
2.2344204
3.0363422
3.829458
4.6071637
5.3731087
6.1519713
6.9997645
7.9133222
8.8342081
9.4807772
9.7218472
9.346542
8.9674136
8.7188521
8.6718823
8.7282969
8.824137
8.9661094
8.9619164
8.7702164
8.6551036
8.8440185
9.6008523
11.691123
16.197684
24.931368
27.556511
17.846157
15.931607
14.264473
8.5276277
7.5408965
5.6011922
8.3347871
9.0462298
6.4757687
3.5353891
1.1855548
-0.57931365
-1.8381667
-2.5390561
-2.8570704
-2.8857297
-2.7955252
-2.759147
-2.8833252
-3.15258
-3.496505
-3.8902559
-4.3383844
-4.8172114
-5.3043329
-5.7834226
-6.2422025
-6.676435
-7.0868372
-7.4770234
-7.8513406
-8.2134775
-8.5656582
-8.9083648
-9.2406677
-9.5606945
-9.86587
-10.153578
-10.421356
-10.667439
-10.890684
-11.090532
-11.26697
-11.420131
-11.551341
-11.661272
-11.750953
-11.821189
-11.873964
-11.911962
-11.932461
-11.931315
-6.698875
-6.6877801
-6.6473168
-6.5788695
-6.4819952
-6.3531912
-6.1892467
-5.9873378
-5.7442473
-5.4565706
-5.1209867
-4.7343228
-4.2936397
-3.79641
-3.2407424
-2.6256509
-1.9514932
-1.2206146
-0.4379791
0.38859663
1.2467071
2.1206303
2.9909741
3.8372507
4.6412501
5.3912969
6.1079134
6.875182
7.7360069
8.7100604
9.7611615
12.828876
11.761721
9.5236678
8.43058
8.279474
8.5145056
8.8746238
9.2382718
9.1910762
8.9666946
8.9773079
9.4825769
10.882104
14.10137
18.545162
26.910145
29.145713
21.681707
17.876894
17.138771
13.309793
10.325139
9.7708785
11.646933
13.025523
9.6312961
5.1976637
1.4763659
-1.0015674
-2.697869
-3.3766062
-3.4980907
-3.2610052
-2.9148667
-2.667651
-2.8023925
-3.2100879
-3.6207615
-4.0045619
-4.4698538
-4.9839894
-5.5082961
-6.0187133
-6.4976933
-6.9428939
-7.3581953
-7.7509993
-8.1288866
-8.4976309
-8.8602417
-9.2168518
-9.5656379
-9.9034376
-10.226287
-10.530318
-10.812178
-11.06948
-11.300911
-11.506179
-11.685571
-11.839173
-11.968963
-12.076155
-12.162078
-12.22784
-12.276058
-12.309802
-12.325709
-12.319847
-7.2784184
-7.2745948
-7.242112
-7.1820006
-7.0944193
-6.9748711
-6.8194864
-6.6248665
-6.3871275
-6.1020277
-5.7653859
-5.3731377
-4.9213716
-4.4064463
-3.8252404
-3.1754559
-2.4561561
-1.6685582
-0.81738403
0.088962842
1.0354562
2.0006691
2.9556554
3.86564
4.6890068
5.3745022
5.8938491
6.2488278
6.5066354
6.9987159
8.5369422
10.983329
11.851395
10.915712
8.4967194
7.6540332
8.1661067
8.8779228
9.5738375
9.9955433
9.7792856
9.833974
11.163149
13.98095
17.563719
19.248992
31.230469
31.262821
23.332584
22.421304
22.505976
19.953044
16.658229
14.737193
14.70892
14.815098
11.775536
5.4846265
-0.52803386
-2.176025
-4.0759092
-4.8843097
-4.634803
-3.846373
-3.0148494
-2.3963341
-2.5650521
-3.3225928
-3.8595177
-4.1523871
-4.6376648
-5.1956989
-5.7629744
-6.3089235
-6.8020038
-7.2484118
-7.6576039
-8.0432206
-8.4177778
-8.789718
-9.1625698
-9.5354718
-9.9046918