/*--------------------------------*- C++ -*----------------------------------*\
  =========                 |
  \\      /  F ield         | OpenFOAM: The Open Source CFD Toolbox
   \\    /   O peration     | Website:  https://openfoam.org
    \\  /    A nd           | Version:  9
     \\/     M anipulation  |
\*---------------------------------------------------------------------------*/
FoamFile
{
    format      ascii;
    class       surfaceScalarField;
    location    "0.62";
    object      phi;
}
// * * * * * * * * * * * * * * * * * * * * * * * * * * * * * * * * * * * * * //

dimensions      [0 3 -1 0 0 0 0];

internalField   nonuniform List<scalar> 
19800
(
1.7622395e-05
3.5704661e-05
-6.9679027e-06
3.7020615e-05
-3.2336697e-05
3.8543816e-05
-5.8513041e-05
4.0294139e-05
-8.5592169e-05
4.2217534e-05
-0.00011365423
4.435525e-05
-0.00014274016
4.6671705e-05
-0.00017289512
4.9151004e-05
-0.00020419242
5.1765319e-05
-0.00023661966
5.4486531e-05
-0.00027026477
5.7351054e-05
-0.00030508731
6.0181369e-05
-0.00034112482
6.3148399e-05
-0.00037830338
6.6052075e-05
-0.00041667074
6.8957982e-05
-0.00045612957
7.177039e-05
-0.00049662272
7.454494e-05
-0.00053815916
7.72364e-05
-0.0005806761
7.980526e-05
-0.00062408153
8.2216991e-05
-0.00066830747
8.4481659e-05
-0.00071320004
8.631553e-05
-0.00075867175
8.8101107e-05
-0.00080452793
8.9492262e-05
-0.00085057627
9.0667671e-05
-0.00089655513
9.1330407e-05
-0.00094208843
9.1470282e-05
-0.00098674826
9.0960261e-05
-0.001029941
8.9567576e-05
-0.0010709792
8.7185162e-05
-0.0011090012
8.347662e-05
-0.0011429334
7.8147363e-05
-0.0011714066
7.0832295e-05
-0.0011926059
6.1126303e-05
-0.0012051566
4.832647e-05
-0.0012079962
3.1352336e-05
-0.001200039
9.7591753e-06
-0.0011841081
-1.446461e-05
-0.0011512252
-4.1367118e-05
-0.0010987477
-7.0138314e-05
-0.0010245583
-0.00010161014
-0.00092673437
-0.00013571969
-0.00080350365
-0.00017235733
-0.00065372707
-0.00021101517
-0.00047637852
-0.00025172153
-0.00027072137
-0.00029336839
-3.678043e-05
-0.00033594563
0.00022403453
-0.00037723604
0.00051080716
-0.00041854558
0.00082010424
-0.00045567463
0.0011476363
-0.00048702155
0.0014873923
-0.00050968191
0.0018314708
-0.00052039334
0.0021701594
-0.00051604292
0.0024923734
-0.00049420276
0.0027863902
-0.00045357304
0.0030408934
-0.00039451469
0.0032460687
-0.00031919823
0.0033945632
-0.00023146804
0.0034820031
-0.0001362194
0.0035064566
-3.8271967e-05
0.0034773046
5.6830566e-05
0.0034044669
0.00014760528
0.0032956823
0.00022759492
0.0031587835
0.00029406253
0.0030012765
0.00034610028
0.0028299321
0.00038395276
0.0026505222
0.00040866836
0.0024677706
0.00042176897
0.0022854338
0.00042502899
0.0021064028
0.00042030333
0.0019328345
0.00040936151
0.0017662915
0.00039382291
0.0016078467
0.00037510946
0.0014581601
0.00035437301
0.0013175652
0.00033239267
0.0011861275
0.00030985438
0.0010638084
0.00028726554
0.00095035123
0.00026487338
0.00084538339
0.00024371285
0.00074871305
0.00022264784
0.00065967318
0.00020312788
0.00057800091
0.00018422652
0.00050327441
0.00016643903
0.00043514363
0.00014956962
0.0003731491
0.00013383574
0.00031704242
0.00011896044
0.00026622587
0.00010506141
0.00021995897
9.2234757e-05
0.00017788416
8.0344287e-05
0.00014000464
6.9459267e-05
0.0001061717
5.9682547e-05
7.6173172e-05
5.0778177e-05
4.9677617e-05
4.3026173e-05
2.634679e-05
3.6195722e-05
5.899734e-06
3.0113222e-05
-1.2084931e-05
2.5141694e-05
-2.7883234e-05
2.0912459e-05
-4.1733433e-05
1.7458816e-05
1.3844361e-05
1.9027408e-05
5.9199935e-05
-5.20273e-06
6.1241974e-05
-3.0365759e-05
6.3709436e-05
-5.6248283e-05
6.6172095e-05
-8.320086e-05
6.9171233e-05
-0.00011093247
7.2086677e-05
-0.00013981017
7.5544679e-05
-0.00016983071
7.9175173e-05
-0.0002008861
8.2809628e-05
-0.00023325878
8.6863462e-05
-0.0002668522
9.094273e-05
-0.00030161471
9.4944382e-05
-0.00033753244
9.907621e-05
-0.00037475946
0.00010327749
-0.00041305009
0.00010724836
-0.0004525174
0.00011124134
-0.00049319909
0.00011522273
-0.00053479724
0.00011883484
-0.00057742638
0.00012243918
-0.00062100129
0.00012578959
-0.00066530836
0.00012878737
-0.0007104739
0.00013148621
-0.00075628405
0.00013391357
-0.00080263591
0.00013584493
-0.00084917027
0.0001372086
-0.00089577561
0.00013794223
-0.00094202441
0.00013772048
-0.00098759031
0.00013652914
-0.0010319187
0.0001339024
-0.0010743292
0.00012959986
-0.001114002
0.00012315311
-0.0011499008
0.0001140541
-0.0011808121
0.00010174952
-0.0012053252
8.5636998e-05
-0.0012219622
6.4959704e-05
-0.0012295277
3.891951e-05
-0.0012270158
7.2491831e-06
-0.0012122371
-2.9243627e-05
-0.0011815126
-7.2089048e-05
-0.0011318579
-0.00011978848
-0.0010607471
-0.00017271799
-0.00096599319
-0.00023047099
-0.00084545084
-0.00029289939
-0.00069769373
-0.00035877321
-0.0005220096
-0.00042740587
-0.00031699419
-0.00049838752
-8.3280696e-05
-0.00056966356
0.00017888857
-0.00063940827
0.00046914091
-0.00070879479
0.00078466176
-0.00077119363
0.0011216248
-0.0008239848
0.0014743038
-0.00086236118
0.0018345983
-0.00088068378
0.0021921753
-0.00087361373
0.0025346738
-0.00083670067
0.0028486873
-0.00076758976
0.003121072
-0.00066690097
0.0033402596
-0.00053837921
0.0034976953
-0.00038889286
0.0035890533
-0.00022756913
0.0036152459
-6.4461984e-05
0.0035813162
9.0760263e-05
0.003498083
0.00023083947
0.0033749863
0.00035069431
0.0032218993
0.00044714996
0.0030480164
0.00051997938
0.0028612611
0.00057070675
0.0026681384
0.00060179545
0.0024737102
0.00061620346
0.0022818238
0.0006169173
0.0020952898
0.0006068402
0.001916042
0.00058861606
0.0017453725
0.0005644979
0.0015840859
0.00053639793
0.0014326434
0.00050581613
0.0012911609
0.00047387418
0.0011594949
0.00044151874
0.0010375647
0.0004091975
0.0009246447
0.00037779595
0.00082067843
0.00034768278
0.0007247704
0.00031855433
0.00063690416
0.00029098864
0.00055642895
0.00026469773
0.00048289839
0.00023996683
0.00041585973
0.00021660619
0.00035486463
0.00019482711
0.00029952236
0.00017430113
0.00024934866
0.00015523212
0.00020410233
0.00013747549
0.00016372976
0.00012071597
0.00012758108
0.0001056099
9.5394132e-05
9.186739e-05
6.6818035e-05
7.9353395e-05
4.1451598e-05
6.8389491e-05
1.9239391e-05
5.8406801e-05
-1.8038531e-07
4.9531228e-05
-1.7051538e-05
4.2007435e-05
-3.1841724e-05
3.5698443e-05
-4.4810344e-05
3.0420539e-05
2.5030319e-05
2.0721907e-05
8.2428817e-05
-3.387872e-06
8.5356073e-05
-2.8260779e-05
8.857919e-05
-5.3899973e-05
9.1812244e-05
-8.0160858e-05
9.5433045e-05
-0.00010768171
9.9603657e-05
-0.00013629464
0.00010416275
-0.00016610237
0.00010897374
-0.00019709332
0.00011380456
-0.0002292806
0.00011904975
-0.00026272912
0.00012438928
-0.00029742041
0.00012964323
-0.00033342802
0.00013508179
-0.00037059765
0.00014044527
-0.00040900447
0.00014565928
-0.00044869839
0.00015093349
-0.00048931237
0.00015583733
-0.00053114778
0.00016067625
-0.00057398499
0.00016527612
-0.00061777448
0.00016957733
-0.00066246593
0.00017348358
-0.00070792925
0.00017695323
-0.00075422018
0.00018020481
-0.00080098804
0.00018261687
-0.00084829131
0.00018451763
-0.0008957326
0.00018538508
-0.00094314184
0.00018513132
-0.00099007473
0.00018346836
-0.0010360904
0.00017992488
-0.0010806135
0.00017412675
-0.0011229587
0.00016550232
-0.0011620221
0.00015312291
-0.0011968386
0.00013656739
-0.0012258917
0.00011468597
-0.0012477687
8.6835096e-05
-0.0012608939
5.2049141e-05
-0.001263446
9.8040089e-06
-0.0012526596
-4.0032285e-05
-0.0012265022
-9.8245322e-05
-0.0011810217
-0.00016526411
-0.0011142907
-0.00023944798
-0.0010233123
-0.00032144986
-0.00090641625
-0.00040979533
-0.00076173957
-0.00050345079
-0.00058767655
-0.00060147012
-0.00038360522
-0.00070246228
-0.00014925508
-0.00080401459
0.00011636415
-0.00090502686
0.00041222496
-0.0010046522
0.00073721458
-0.0010961812
0.0010882508
-0.0011750195
0.0014603263
-0.0012344352
0.0018451571
-0.0012655154
0.0022312908
-0.0012597478
0.0026041487
-0.0012095592
0.0029475089
-0.0011109495
0.0032452524
-0.00096464189
0.0034831187
-0.0007762433
0.0036507935
-0.00055656336
0.0037432673
-0.00032004424
0.0037604122
-8.1607119e-05
0.0037127198
0.00013846005
0.0036109835
0.00033257873
0.0034670577
0.00049462228
0.0032926804
0.00062152769
0.0030983966
0.00071425974
0.002893076
0.00077602707
0.002683707
0.00081116778
0.0024756871
0.00082422791
0.0022728596
0.00081974853
0.0020778851
0.00080181391
0.0018924847
0.00077402147
0.0017176322
0.000739355
0.0015537432
0.0007002849
0.0014008482
0.00065870977
0.0012588113
0.00061591363
0.0011272454
0.00057308525
0.0010058596
0.00053058414
0.00089383236
0.00048982279
0.00079118536
0.00045032836
0.00069665944
0.00041307785
0.00061027328
0.00037737337
0.00053129379
0.00034367406
0.00045932903
0.00031193282
0.00039377081
0.00028216229
0.0003343845
0.00025421026
0.00028054604
0.00022813359
0.0002321158
0.00020365675
0.00018875532
0.00018083289
0.00014965077
0.0001598196
0.00011470806
0.00014055469
8.3604421e-05
0.00012296694
5.6098081e-05
0.00010685729
3.2066606e-05
9.2418478e-05
1.1074769e-05
7.9398899e-05
-7.3410807e-06
6.7948667e-05
-2.3249097e-05
5.7914937e-05
-3.7001241e-05
4.9453454e-05
-4.9039065e-05
4.2451417e-05
3.5162358e-05
2.2901322e-05
0.00010520315
-6.7755388e-07
0.00010893369
-2.4780967e-05
0.00011268471
-4.9977054e-05
0.00011700755
-7.6195239e-05
0.00012164541
-0.00010343236
0.00012684492
-0.00013174875
0.00013247096
-0.00016118448
0.00013841262
-0.00019204566
0.00014466519
-0.00022410883
0.0001511088
-0.00025742805
0.00015771392
-0.00029213876
0.00016435293
-0.00032814482
0.00017108596
-0.00036539809
0.00017770371
-0.0004039598
0.00018422151
-0.00044366359
0.00019063736
-0.00048461267
0.00019679167
-0.00052665717
0.00020272107
-0.00056964873
0.00020826451
-0.000613715
0.00021364636
-0.00065881406
0.0002185866
-0.00070496219
0.00022310169
-0.00075161757
0.00022686246
-0.00079919201
0.00023019576
-0.00084721385
0.00023254104
-0.00089578459
0.00023395748
-0.00094458297
0.00023393588
-0.00099349424
0.00023238665
-0.0010419864
0.00022842147
-0.0010894223
0.00022156651
-0.0011352777
0.00021136113
-0.0011787356
0.00019658131
-0.001218715
0.00017654572
-0.0012539463
0.00014991749
-0.0012828447
0.00011573499
-0.0013036238
7.2830057e-05
-0.00131418
2.0360709e-05
-0.0013119935
-4.2219836e-05
-0.0012937515
-0.00011648529
-0.00125693
-0.00020208081
-0.0011972795
-0.00029909863
-0.0011128763
-0.00040585489
-0.0010012012
-0.00052146997
-0.00086002272
-0.00064462955
-0.00068882044
-0.00077267262
-0.00048587908
-0.00090540486
-0.00024943063
-0.0010404617
2.1115e-05
-0.0011755706
0.00032314345
-0.0013066781
0.0006611975
-0.0014342342
0.0010327594
-0.0015465813
0.0014335254
-0.0016351996
0.001855503
-0.0016874948
0.0022855484
-0.0016897959
0.0027055867
-0.0016295978
0.0030947597
-0.0015001205
0.0034322932
-0.001302172
0.003699498
-0.001043452
0.0038822929
-0.00073935978
0.0039743405
-0.00041208811
0.0039783989
-8.5662563e-05
0.0039061472
0.00021071884
0.0037725518
0.00046617486
0.0035940963
0.000673074
0.0033860587
0.00082956342
0.003161207
0.00093911549
0.0029294882
0.0010077485
0.0026982979
0.0010423592
0.0024728277
0.0010497004
0.0022565512
0.0010360268
0.0020516036
0.0010067633
0.0018590866
0.00096654019
0.0016794499
0.00091899447
0.0015126968
0.00086704056
0.0013585296
0.00081287367
0.0012163313
0.00075810838
0.0010856122
0.00070380685
0.00096548823
0.00065071245
0.00085521082
0.00060010232
0.00075390514
0.00055163487
0.00066156275
0.00050541554
0.00057714215
0.00046179205
0.00050014008
0.00042067589
0.00043017497
0.00038189709
0.00036649176
0.00034584206
0.00030886301
0.00031183244
0.00025687898
0.00028011125
0.00021001862
0.00025051274
0.0001679012
0.00022295071
0.00013025359
0.00019746555
9.6837587e-05
0.00017396942
6.73725e-05
0.0001524308
4.1486547e-05
0.00013274274
1.8934243e-05
0.00011496753
-5.689291e-07
9.8902047e-05
-1.7378886e-05
8.4760687e-05
-3.1782902e-05
7.2314258e-05
-4.4037927e-05
6.1708733e-05
-5.4677361e-05
5.3084591e-05
4.3851048e-05
2.5855475e-05
0.00012736873
2.8203838e-06
0.00013197338
-2.0994484e-05
0.00013650177
-4.5526755e-05
0.00014153429
-7.1103455e-05
0.00014722574
-9.7881964e-05
0.0001536155
-0.00012578799
0.00016037996
-0.00015506418
0.00016768909
-0.00018563615
0.00017523137
-0.00021756784
0.00018304242
-0.00025085029
0.00019099335
-0.00028556211
0.00019906028
-0.00032156875
0.00020709611
-0.00035889577
0.00021503149
-0.00039756473
0.00022288923
-0.00043743634
0.00023051265
-0.00047852676
0.00023788234
-0.00052082621
0.00024501585
-0.00056420904
0.00025164738
-0.00060864743
0.00025808743
-0.00065413692
0.00026407519
-0.00070051432
0.00026947913
-0.00074804968
0.00027440142
-0.0007963421
0.00027848992
-0.00084564651
0.0002818459
-0.0008957941
0.00028411029
-0.00094652567
0.00028467513
-0.00099737834
0.0002832429
-0.0010485181
0.0002795626
-0.001099384
0.00027243615
-0.0011497628
0.00026174231
-0.0011984699
0.00024528665
-0.0012448741
0.00022294954
-0.0012875582
0.00019260525
-0.0013250319
0.00015320968
-0.001355317
0.00010311232
-0.001376014
4.1057985e-05
-0.0013850207
-3.3209266e-05
-0.0013781806
-0.00012332098
-0.0013521434
-0.00022811467
-0.0013029533
-0.00034828987
-0.0012274455
-0.00048136472
-0.0011229826
-0.0006259316
-0.00098809111
-0.00077952055
-0.0008205071
-0.00094025608
-0.00061993159
-0.0011059799
-0.0003838539
-0.0012765378
-0.00011129059
-0.0014481333
0.00020039871
-0.0016183671
0.00055394614
-0.0017877802
0.00095028891
-0.0019429246
0.0013881991
-0.0020731087
0.0018606858
-0.0021599821
0.002352657
-0.0021817677
0.0028400472
-0.0021169878
0.0032946326
-0.001954706
0.0036885765
-0.0016961149
0.0039963514
-0.0013512248
0.0041991122
-0.00094212159
0.0042883887
-0.00050136525
0.004266681
-6.3954876e-05
0.0041561692
0.00032123321
0.0039762486
0.00064609634
0.0037498431
0.00089948178
0.0034966429
0.0010827633
0.0032318267
0.001203933
0.0029664242
0.0012731559
0.0027080239
0.0013007591
0.0024614331
0.0012962912
0.0022293661
0.001268094
0.0020131218
0.00122301
0.0018129971
0.0011666697
0.0016286271
0.0011033688
0.0014593442
0.0010363253
0.0013042726
0.00096794232
0.0011623375
0.00090004095
0.0010329458
0.00083320017
0.00091435061
0.0007693112
0.0008062325
0.00070822013
0.0007076574
0.00065020698
0.0006177406
0.00059533098
0.00053586327
0.00054366766
0.00046149092
0.00049505098
0.0003937228
0.00044966495
0.00033247816
0.00040708784
0.00027703454
0.00036727217
0.00022719499
0.00032994411
0.00018243898
0.00029526695
0.00014241509
0.00026297565
0.00010683879
0.00023304032
7.5364492e-05
0.00020544289
4.7777533e-05
0.00018001915
2.3766262e-05
0.00015675875
3.0187338e-06
0.00013571569
-1.4753576e-05
0.00011667182
-2.9773228e-05
9.978032e-05
-4.2456513e-05
8.4994778e-05
-5.3003684e-05
7.2250356e-05
-6.1840303e-05
6.1914891e-05
5.0845387e-05
2.9484524e-05
0.0001487406
7.2318377e-06
0.00015422865
-1.5646991e-05
0.00015937788
-3.9656845e-05
0.00016554881
-6.4850478e-05
0.00017241172
-9.1114222e-05
0.00017988203
-0.00011870682
0.00018797328
-0.00014757119
0.00019654755
-0.00017788462
0.00020554551
-0.00020963032
0.0002147844
-0.00024282317
0.00022417983
-0.00027747065
0.00023370909
-0.00031354812
0.00024317305
-0.00035103409
0.0002525136
-0.00038986523
0.00026172124
-0.00042994965
0.00027059665
-0.00047136244
0.00027928964
-0.0005139192
0.00028757046
-0.00055773981
0.00029546927
-0.00060251082
0.00030285665
-0.00064846678
0.0003100293
-0.00069552822
0.00031654314
-0.00074370971
0.00032258573
-0.00079315113
0.00032793212
-0.00084354498
0.00033224277
-0.00089478347
0.00033535448
-0.00094714732
0.00033704248
-0.0010007748
0.00033687082
-0.0010553319
0.0003341209
-0.0011105687
0.00032767605
-0.001165869
0.00031704413
-0.0012211605
0.00030057721
-0.0012749233
0.00027671262
-0.0013266754
0.0002443597
-0.0013747381
0.00020127148
-0.0014171453
0.00014551669
-0.0014512692
7.5185734e-05
-0.0014738219
-1.064901e-05
-0.0014812779
-0.00011586234
-0.0014692844
-0.00024010915
-0.0014333495
-0.00038422652
-0.0013697574
-0.00054495691
-0.0012749356
-0.00072075057
-0.0011472283
-0.00090722763
-0.00098552164
-0.0011019645
-0.00078767126
-0.0013038313
-0.00055377353
-0.0015104344
-0.00027958988
-0.0017223152
4.0213697e-05
-0.0019381698
0.00040562147
-0.0021531841
0.00082863979
-0.0023659415
0.0013121187
-0.0025565876
0.0018518061
-0.0026996733
0.0024306639
-0.002760626
0.0030122192
-0.0026985398
0.0035570034
-0.0024994836
0.0040298964
-0.0021690079
0.004395253
-0.0017165847
0.0046246207
-0.0011714897
0.0047059219
-0.00058266475
0.0046436932
-1.7247682e-06
0.004475111
0.00048981775
0.0042276808
0.00089352609
0.0039345084
0.0011926494
0.0036209469
0.0013963278
0.003304838
0.0015200463
0.0029978853
0.0015801132
0.0027071531
0.0015914946
0.0024363514
0.001567092
0.0021869677
0.0015174795
0.0019589174
0.0014510655
0.0017513233
0.0013742653
0.0015628486
0.0012918419
0.0013919397
0.0012072342
0.0012370204
0.0011228596
0.001096667
0.0010403969
0.00096922791
0.00096064519
0.00085340627
0.0008851345
0.0007482757
0.00081334874
0.0006527481
0.00074572908
0.00056605506
0.00068202232
0.00048726738
0.00062245269
0.00041581495
0.00056650377
0.00035112371
0.00051435723
0.00029265291
0.00046555514
0.00023994365
0.00041997689
0.00019251562
0.00037736863
0.00015014813
0.00033763294
0.0001125524
0.00030057254
7.9243097e-05
0.00026634933
4.9992508e-05
0.00023469478
2.4537454e-05
0.00020547684
2.6610262e-06
0.00017863513
-1.5946578e-05
0.00015431997
-3.1618905e-05
0.00013234315
-4.461098e-05
0.00011276788
-5.5133464e-05
9.5511237e-05
-6.361319e-05
8.0725606e-05
-7.0414918e-05
6.8715597e-05
5.5675785e-05
3.3784888e-05
0.0001691883
1.2358731e-05
0.00017565299
-1.0026199e-05
0.00018176997
-3.311243e-05
0.00018862829
-5.7459649e-05
0.00019676284
-8.312303e-05
0.00020554669
-0.00011020008
0.00021504445
-0.00013869712
0.00022504492
-0.00016875166
0.00023559657
-0.00020030731
0.00024633348
-0.00023340948
0.00025728267
-0.0002680299
0.00026832875
-0.0003041986
0.00027933634
-0.00034182473
0.00029013838
-0.00038085483
0.00030075053
-0.0004211786
0.0003109153
-0.00046288716
0.00032099563
-0.00050574624
0.00033043058
-0.00054984995
0.00033957104
-0.00059521426
0.00034821834
-0.00064158624
0.00035640376
-0.00068913752
0.00036409856
-0.00073791613
0.00037136599
-0.00078800022
0.00037801844
-0.0008394804
0.00038372685
-0.00089257887
0.00038845438
-0.0009472631
0.00039172584
-0.0010036276
0.0003932365
-0.0010613936
0.00039188987
-0.0011211616
0.00038744531
-0.0011819499
0.00037783262
-0.0012441732
0.00036280131
-0.0013070834
0.00033962334
-0.0013694429
0.0003067189
-0.0014300728
0.000261901
-0.0014870209
0.00020246588
-0.0015376304
0.00012580012
-0.0015774381
2.9163185e-05
-0.0016037437
-8.9559129e-05
-0.0016104261
-0.00023343055
-0.0015920498
-0.00040260337
-0.0015423966
-0.00059460975
-0.0014595689
-0.00080357828
-0.0013406938
-0.0010261046
-0.0011852141
-0.0012574456
-0.0009934613
-0.0014955827
-0.00076381554
-0.0017400779
-0.00049287581
-0.0019932523
-0.00017459013
-0.0022564561
0.0002034334
-0.0025312062
0.00065136911
-0.002813876
0.0011884625
-0.003093678
0.0018143489
-0.0033255599
0.0025052404
-0.0034515157
0.0032053832
-0.0033986801
0.0038664995
-0.0031605973
0.0044501935
-0.0027527
0.0049039229
-0.0021703147
0.0051799924
-0.0014475601
0.0052492209
-0.0006518901
0.0051321574
0.00011534187
0.0048724072
0.00074956361
0.0045272462
0.0012386885
0.0041426817
0.0015772158
0.0037508263
0.0017881835
0.0033712327
0.0018996425
0.0030150872
0.0019362615
0.0026877867
0.0019187995
0.0023909378
0.0018639441
0.0021238951
0.0017845246
0.0018846794
0.0016902814
0.0016707837
0.0015881601
0.0014795711
0.001483052
0.0013084998
0.0013783036
0.0011551551
0.001276202
0.0010176466
0.0011779065
0.0008935863
0.0010847084
0.00078168359
0.0009970398
0.00068065769
0.00091437406
0.00058925771
0.00083712559
0.00050653321
0.00076474257
0.00043165895
0.00069732844
0.00036370879
0.00063445444
0.00030235867
0.0005757038
0.00024706596
0.00052084204
0.0001974278
0.00046961388
0.00015291039
0.00042188873
0.00011331371
0.00037722994
7.8362301e-05
0.00033552599
4.7578089e-05
0.00029713793
2.0826904e-05
0.00026144872
-2.1612953e-06
0.00022846482
-2.1674473e-05
0.00019814927
-3.786806e-05
0.00017050899
-5.1128908e-05
0.00014560292
-6.1742752e-05
0.00012337496
-6.9940199e-05
0.00010370401
-7.5988532e-05
8.6773212e-05
-8.0396005e-05
7.3125418e-05
5.8080267e-05
3.8847181e-05
0.00018848669
1.853575e-05
0.00019597263
-2.6103908e-06
0.00020291052
-2.511765e-05
0.00021114111
-4.8737436e-05
0.00022038456
-7.3747981e-05
0.00023055279
-0.00010022603
0.00024152398
-0.00012829576
0.0002531122
-0.00015803494
0.00026533001
-0.0001893842
0.00027768406
-0.00022242191
0.00029032053
-0.00025708952
0.00030299108
-0.00029331203
0.00031555686
-0.00033116009
0.00032798616
-0.00037041332
0.00033999999
-0.00041113402
0.00035163437
-0.00045315288
0.00036301667
-0.00049645318
0.00037373008
-0.00054096915
0.00038408425
-0.00058662445
0.00039387593
-0.00063345699
0.00040324182
-0.00068149626
0.00041214058
-0.00073092693
0.00042079786
-0.00078174112
0.00042883512
-0.00083429011
0.0004362769
-0.00088871346
0.0004428758
-0.00094532344
0.00044833542
-0.0010039749
0.00045189137
-0.0010654552
0.0004533726
-0.0011294466
0.00045143586
-0.0011967101
0.00044509631
-0.0012669209
0.00043301532
-0.0013395303
0.0004122341
-0.0014139301
0.00038111785
-0.0014891565
0.00033712862
-0.0015633807
0.00027669192
-0.001633932
0.0001963512
-0.00169657
9.1798756e-05
-0.0017459208
-4.021261e-05
-0.0017762555
-0.00020309782
-0.0017792722
-0.00039958706
-0.0017482772
-0.00062560842
-0.0016792763
-0.00087258442
-0.0015704831
-0.0011348993
-0.0014225041
-0.0014054215
-0.0012373127
-0.0016807686
-0.001015171
-0.0019622183
-0.00075386897
-0.0022545551
-0.00044446084
-0.0025658674
-7.0168251e-05
-0.0029054999
0.00039397895
-0.003278022
0.00097934453
-0.0036790393
0.0016893615
-0.0040355731
0.0025104007
-0.0042725531
0.0033751738
-0.0042634503
0.0042142159
-0.003999636
0.0049710123
-0.0035094952
0.0055499701
-0.00274927
0.0058912025
-0.0017887927
0.0059525514
-0.00071324484
0.0057494538
0.00031844037
0.0053572218
0.0011418019
0.0048720278
0.0017238829
0.0043645216
0.0020847248
0.0038734069
0.0022793031
0.0034177747
0.0023552754
0.0030059552
0.0023480839
0.0026396894
0.0022850682
0.0023169321
0.0021867018
0.0020337028
0.0020677551
0.0017855097
0.0019384744
0.0015677801
0.001805889
0.0013762948
0.0016745359
0.0012073825
0.0015472136
0.0010578808
0.0014257001
0.00092477188
0.0013110161
0.00080561405
0.0012038655
0.00069917009
0.0011034852
0.00060341935
0.001010123
0.00051714774
0.00092339797
0.0004390904
0.00084280005
0.00036859428
0.00076781987
0.00030494576
0.00069809929
0.00024756207
0.00063308401
0.00019593608
0.00057246604
0.00014961437
0.00051593473
0.00010837175
0.00046313198
7.1892495e-05
0.00041371188
3.969143e-05
0.00036772722
1.1798544e-05
0.00032503214
-1.2118551e-05
0.00028536702
-3.2303468e-05
0.00024864778
-4.9107212e-05
0.00021495143
-6.2691062e-05
0.00018409897
-7.3303046e-05
0.00015621449
-8.1250033e-05
0.00013131692
-8.6835623e-05
0.00010928591
-9.0189859e-05
9.0123939e-05
-9.1901586e-05
7.4837721e-05
5.7787962e-05
4.4719939e-05
0.00020645749
2.5602825e-05
0.0002150848
5.5456495e-06
0.00022297566
-1.5914697e-05
0.00023260325
-3.8620649e-05
0.00024308682
-6.2851096e-05
0.00025478663
-8.8719725e-05
0.00026739171
-0.00011630682
0.00028069484
-0.00014565466
0.00029468014
-0.00017684771
0.00030887846
-0.00020978192
0.00032325037
-0.00024451764
0.00033772521
-0.00028094
0.00035197984
-0.00031897442
0.00036601809
-0.0003585951
0.00037961985
-0.00039969989
0.00039274224
-0.0004421556
0.0004054727
-0.00048590775
0.00041747959
-0.00053076821
0.00042894613
-0.00057674479
0.00043985757
-0.00062402738
0.00045052709
-0.00067257775
0.00046069128
-0.0007223091
0.00047053037
-0.00077379032
0.00048031701
-0.00082705611
0.00048954115
-0.00088258984
0.0004984088
-0.00094067536
0.0005064233
-0.0010019932
0.00051321196
-0.0010667714
0.00051815134
-0.0011355213
0.00052018607
-0.0012093981
0.00051897621
-0.0012869943
0.00051061586
-0.0013702818
0.00049552292
-0.0014583743
0.00046920942
-0.0015495589
0.00042831388
-0.0016434987
0.00037063085
-0.0017380415
0.00029088874
-0.0018285638
0.00018231505
-0.0019074477
3.8667199e-05
-0.0019678002
-0.00014274712
-0.0019989356
-0.00036845436
-0.0019910695
-0.00063347932
-0.0019378851
-0.00092577225
-0.0018392956
-0.0012334871
-0.0016978294
-0.0015468855
-0.001518927
-0.0018596714
-0.0013076126
-0.0021735372
-0.0010642282
-0.0024979418
-0.00078000535
-0.0028500874
-0.0004318202
-0.003253683
2.2314032e-05
-0.0037321561
0.00060336333
-0.0042600909
0.0013985246
-0.0048307329
0.0025143919
-0.005388414
0.0037823278
-0.0055313834
0.0049862044
-0.0052035102
0.0060220402
-0.0045453325
0.0067134719
-0.0034407063
0.0070043184
-0.0020796381
0.0069163896
-0.00062531129
0.006534678
0.00070014779
0.0059360279
0.0017404524
0.0052526094
0.0024073046
0.0045819598
0.0027553749
0.0039683152
0.0028929513
0.0034254519
0.0028981418
0.0029543872
0.0028191504
0.0025500122
0.0026894427
0.0022044344
0.0025322814
0.0019092016
0.002362991
0.0016562778
0.0021913972
0.0014387268
0.0020234382
0.0012505729
0.0018626863
0.0010871411
0.001710645
0.00094387917
0.0015689644
0.00081764674
0.001437253
0.00070575291
0.0013157569
0.00060598377
0.0012032519
0.00051672947
0.0010993769
0.00043645971
0.0010036635
0.0003641041
0.00091515132
0.00029884867
0.00083307072
0.00023997374
0.00075697067
0.00018693224
0.00068612332
0.00013932922
0.00062006857
9.6804662e-05
0.00055845722
5.9091033e-05
0.00050084541
2.5944936e-05
0.00044686138
-3.0126552e-06
0.00039668341
-2.7844587e-05
0.00034986615
-4.8772516e-05
0.00030630226
-6.6055895e-05
0.00026593752
-7.9888259e-05
0.00022878216
-9.0522016e-05
0.00019473317
-9.8183279e-05
0.00016387371
-0.00010315854
0.00013629027
-0.00010576992
0.00011189174
-0.00010622978
9.0579707e-05
-0.00010488058
7.3492044e-05
5.4544218e-05
5.1414459e-05
0.00022290489
3.3710677e-05
0.00023279756
1.496554e-05
0.00024172171
-5.1534561e-06
0.00025271927
-2.6923839e-05
0.00026486148
-5.0331028e-05
0.00027819375
-7.5515483e-05
0.00029257278
-0.00010257526
0.00030775735
-0.00013155421
0.00032366055
-0.00016251701
0.00033983738
-0.00019543101
0.00035616344
-0.00023020326
0.00037249898
-0.00026685165
0.00038862642
-0.00030526089
0.0004044263
-0.00034528532
0.00041964699
-0.00038685949
0.0004343167
-0.00042981627
0.00044842614
-0.00047398082
0.0004616438
-0.00051933241
0.00047430082
-0.00056583017
0.00048635599
-0.00061335883
0.00049805391
-0.00066218507
0.00050951756
-0.00071245311
0.00052079962
-0.00076396551
0.00053182865
-0.00081744428
0.00054301894
-0.00087374463
0.00055471107
-0.00093304563
0.00056572739
-0.00099617176
0.00057633952
-0.0010639074
0.00058588865
-0.0011370393
0.00059332209
-0.001215639
0.00059758044
-0.0013017231
0.00059670156
-0.0013960158
0.00058981473
-0.0014981314
0.00057132368
-0.0016075096
0.00053769133
-0.001723965
0.00048708325
-0.0018464521
0.00041336981
-0.0019705606
0.00030641855
-0.0020877056
0.00015580858
-0.0021870955
-4.336072e-05
-0.0022540516
-0.0003015024
-0.0022751681
-0.00061236481
-0.0022409805
-0.00095995929
-0.0021505704
-0.0013238953
-0.0020110714
-0.0016863867
-0.001834938
-0.0020358112
-0.0016349716
-0.0023735085
-0.0014183962
-0.0027145203
-0.0011824974
-0.0030859825
-0.0009111888
-0.0035249903
-0.00055994847
-0.004083397
2.6749542e-05
-0.0048467895
0.0011990955
-0.006003081
0.0031470444
-0.007336358
0.005269077
-0.007653414
0.0069901457
-0.0069245823
0.0083361554
-0.0058913448
0.0090565965
-0.0041611457
0.0091352022
-0.0021582439
0.0085414065
-3.1517321e-05
0.0076274799
0.0016140711
0.0066055205
0.0027624069
0.0056353931
0.0033774337
0.0047616827
0.0036290931
0.0040046331
0.0036500031
0.0033679493
0.0035348204
0.0028399483
0.0033471473
0.0024036434
0.0031257478
0.0020427084
0.002893221
0.0017427752
0.0026629293
0.0014918298
0.0024423414
0.0012803039
0.0022349619
0.0011006884
0.0020423007
0.00094621162
0.0018651236
0.00081280208
0.0017023771
0.00069604205
0.0015540161
0.00059327064
0.0014185336
0.00050240249
0.0012941211
0.00042066996
0.0011811046
0.00034775069
0.0010765794
0.00028203551
0.0009808635
0.000222644
0.00089246118
0.00016912545
0.00081048525
0.00012091214
0.00073433233
7.7660165e-05
0.00066332061
3.9248479e-05
0.00059687078
5.3470104e-06
0.00053475009
-2.4283967e-05
0.00047649761
-4.9734936e-05
0.0004221343
-7.1306479e-05
0.00037143542
-8.9065668e-05
0.00032405918
-0.00010318318
0.0002800494
-0.00011383353
0.00023943631
-0.00012126487
0.00020216426
-0.00012576346
0.0001683709
-0.00012751049
0.00013803467
-0.00012677701
0.00011115369
-0.00012404462
8.7842692e-05
-0.00011927836
6.8724179e-05
4.811504e-05
5.9053045e-05
0.00023764119
4.2952265e-05
0.00024889655
2.5674111e-05
0.00025899641
6.8889857e-06
0.00027150983
-1.3676549e-05
0.00028542658
-3.6054906e-05
0.00030056924
-6.0419463e-05
0.00031694012
-8.6899719e-05
0.000334238
-0.00011544257
0.0003521987
-0.00014622962
0.00037062356
-0.00017911096
0.00038904702
-0.00021406994
0.00040745678
-0.00025105024
0.0004256053
-0.00028985972
0.00044323747
-0.00033048506
0.00046027187
-0.00037263894
0.00047646628
-0.00041610952
0.0004918945
-0.00046088547
0.00050642032
-0.00050672308
0.00052013636
-0.00055361882
0.00053324728
-0.0006013981
0.00054583188
-0.00065016084
0.00055828223
-0.00070019578
0.00057083531
-0.00075183433
0.0005834666
-0.00080577928
0.00059696514
-0.00086161953
0.00061055438
-0.00092136664
0.00062547736
-0.00098545986
0.00064043571
-0.0010553324
0.00065576539
-0.0011318824
0.00066987583
-0.0012153752
0.00068107365
-0.0013081864
0.00068951064
-0.0014132314
0.00069485825
-0.0015309858
0.00068907749
-0.0016591201
0.00066582369
-0.0018000091
0.00062796769
-0.0019549891
0.00056834519
-0.0021207266
0.0004721552
-0.0022872721
0.00032235437
-0.0024352822
0.0001046482
-0.0025506875
-0.00018610055
-0.002610257
-0.0005527976
-0.0025977264
-0.00097249098
-0.0025106813
-0.0014109413
-0.0023624314
-0.0018346376
-0.0021780755
-0.0022201709
-0.0019830878
-0.0025684972
-0.0017976235
-0.0028999887
-0.001642137
-0.0032414728
-0.0015347035
-0.0036324259
-0.0013423196
-0.0042757816
-0.00048351917
-0.0057055893
0.001812652
-0.0082992536
0.004835354
-0.010359062
0.0079006519
-0.010718713