/*--------------------------------*- C++ -*----------------------------------*\
  =========                 |
  \\      /  F ield         | OpenFOAM: The Open Source CFD Toolbox
   \\    /   O peration     | Website:  https://openfoam.org
    \\  /    A nd           | Version:  9
     \\/     M anipulation  |
\*---------------------------------------------------------------------------*/
FoamFile
{
    format      ascii;
    class       volVectorField;
    location    "0.62";
    object      U;
}
// * * * * * * * * * * * * * * * * * * * * * * * * * * * * * * * * * * * * * //

dimensions      [0 1 -1 0 0 0 0];

internalField   nonuniform List<vector> 
10000
(
(0.0031984391 0.0015968059 0)
(0.00085123043 0.0016726809 0)
(-0.0021404614 0.00176073 0)
(-0.0046126819 0.0018722484 0)
(-0.0071652493 0.0019916284 0)
(-0.009933853 0.0021245783 0)
(-0.012808886 0.0022726093 0)
(-0.015768561 0.0024330952 0)
(-0.018835978 0.0025990952 0)
(-0.022020738 0.0027787202 0)
(-0.025322444 0.0029612713 0)
(-0.02875002 0.0031443579 0)
(-0.032295762 0.0033362627 0)
(-0.035952337 0.0035271784 0)
(-0.03972403 0.0037125725 0)
(-0.043616768 0.0038950815 0)
(-0.047618086 0.0040772631 0)
(-0.05171956 0.0042474246 0)
(-0.05592534 0.0044072013 0)
(-0.060219803 0.0045569883 0)
(-0.064578586 0.0046959558 0)
(-0.069033226 0.004800269 0)
(-0.073563569 0.0049049787 0)
(-0.078132551 0.0049842998 0)
(-0.082737292 0.0050565707 0)
(-0.087340353 0.0050959108 0)
(-0.09192265 0.0051138205 0)
(-0.09643819 0.0051009537 0)
(-0.10083358 0.0050481698 0)
(-0.10505291 0.0049521639 0)
(-0.10901265 0.00479246 0)
(-0.11261387 0.004553032 0)
(-0.11573926 0.0042084622 0)
(-0.11824697 0.0037423713 0)
(-0.11994068 0.0031194682 0)
(-0.12070881 0.0022759327 0)
(-0.12048333 0.0012097341 0)
(-0.11931841 -0.00012647755 0)
(-0.11692139 -0.0014500733 0)
(-0.11269085 -0.0028446063 0)
(-0.10637781 -0.0043409015 0)
(-0.097796785 -0.0059479646 0)
(-0.086749039 -0.0076702085 0)
(-0.073118204 -0.0095276633 0)
(-0.056777543 -0.011542302 0)
(-0.037626831 -0.013588437 0)
(-0.015821726 -0.015781588 0)
(0.0089542764 -0.017986353 0)
(0.036550047 -0.020324415 0)
(0.066383097 -0.022537411 0)
(0.098222825 -0.024513463 0)
(0.13157982 -0.026069993 0)
(0.16577577 -0.026997125 0)
(0.19996011 -0.027096357 0)
(0.23310624 -0.026209478 0)
(0.26407174 -0.024241731 0)
(0.2916932 -0.021194378 0)
(0.31489179 -0.017177846 0)
(0.33277623 -0.012407234 0)
(0.34475318 -0.0071726616 0)
(0.35048248 -0.0017934675 0)
(0.35021488 0.0035914362 0)
(0.34496976 0.0088143543 0)
(0.33577834 0.013594385 0)
(0.3233774 0.017723668 0)
(0.30851325 0.021091697 0)
(0.29192849 0.0236537 0)
(0.27426396 0.025420348 0)
(0.25604988 0.026445444 0)
(0.23771221 0.02681701 0)
(0.21958454 0.026642547 0)
(0.2019136 0.02603455 0)
(0.18487395 0.025102735 0)
(0.16859299 0.023947083 0)
(0.15316636 0.022646374 0)
(0.13864593 0.021250755 0)
(0.12503233 0.019805242 0)
(0.11230772 0.018351711 0)
(0.10045534 0.016893519 0)
(0.089565302 0.015527607 0)
(0.07951368 0.014151532 0)
(0.070234525 0.012871004 0)
(0.061743248 0.011627037 0)
(0.053929095 0.01045571 0)
(0.046798165 0.00934316 0)
(0.04030078 0.0083015458 0)
(0.03440926 0.0073219955 0)
(0.029082249 0.0063822942 0)
(0.024243594 0.0054767494 0)
(0.019823188 0.004628097 0)
(0.015817207 0.0038811901 0)
(0.012235262 0.0032328223 0)
(0.0090560033 0.0026509764 0)
(0.0062418064 0.0021572881 0)
(0.0037360072 0.0017253789 0)
(0.0015500785 0.0013407935 0)
(-0.00026380665 0.001036017 0)
(-0.0020995167 0.00078196627 0)
(-0.0039642768 0.00057944561 0)
(-0.0044041944 0.00037856212 0)
(0.0032951662 0.0048396749 0)
(0.0010222903 0.0050027306 0)
(-0.0019481298 0.005208944 0)
(-0.0043957262 0.0054246929 0)
(-0.0069306593 0.0056630145 0)
(-0.0096740468 0.0059259921 0)
(-0.012523308 0.0062120162 0)
(-0.015467663 0.0065206837 0)
(-0.018517616 0.0068451226 0)
(-0.021686656 0.0071788839 0)
(-0.024985124 0.0075359083 0)
(-0.028402212 0.0078876709 0)
(-0.03193754 0.0082566776 0)
(-0.035595888 0.0086160188 0)
(-0.039370156 0.0089809679 0)
(-0.043258056 0.0093351655 0)
(-0.047261926 0.0096846421 0)
(-0.051375658 0.010031324 0)
(-0.055591916 0.010368959 0)
(-0.059896139 0.010688191 0)
(-0.064289192 0.010989805 0)
(-0.068768443 0.011250572 0)
(-0.073318002 0.011501874 0)
(-0.0779163 0.011706985 0)
(-0.082562213 0.01187738 0)
(-0.087225134 0.011987174 0)
(-0.091871041 0.012020198 0)
(-0.09647463 0.011964437 0)
(-0.10097384 0.011782934 0)
(-0.10531769 0.01145814 0)
(-0.10942895 0.010946154 0)
(-0.11321397 0.010205559 0)
(-0.11656013 0.0091911593 0)
(-0.11933989 0.007848995 0)
(-0.12140933 0.0061068978 0)
(-0.12263277 0.0038537957 0)
(-0.12293794 0.0010407494 0)
(-0.12209405 -0.0023352762 0)
(-0.11983023 -0.0060197887 0)
(-0.11585115 -0.010070875 0)
(-0.10983505 -0.014560945 0)
(-0.10155612 -0.019443213 0)
(-0.090809719 -0.024702835 0)
(-0.077470765 -0.030225326 0)
(-0.061287276 -0.035985967 0)
(-0.04222612 -0.041895227 0)
(-0.02044274 -0.047838977 0)
(0.0043506156 -0.05358197 0)
(0.032122746 -0.059282421 0)
(0.062468961 -0.064355472 0)
(0.095093087 -0.068590413 0)
(0.12956795 -0.07160502 0)
(0.16523133 -0.07296383 0)
(0.20118825 -0.072245867 0)
(0.23631608 -0.069122084 0)
(0.26932614 -0.063422846 0)
(0.2988769 -0.055207567 0)
(0.3237045 -0.04477762 0)
(0.34276445 -0.032662717 0)
(0.35537724 -0.019545631 0)
(0.36135641 -0.0061551222 0)
(0.36096622 0.0069006291 0)
(0.35499 0.018980273 0)
(0.34451112 0.029449939 0)
(0.33053339 0.037971965 0)
(0.31400959 0.044492893 0)
(0.29581481 0.049117214 0)
(0.27668079 0.052040798 0)
(0.25719122 0.053503243 0)
(0.23779058 0.053754418 0)
(0.21880644 0.053040087 0)
(0.20047238 0.051583801 0)
(0.18294609 0.049582154 0)
(0.16632752 0.047205289 0)
(0.15067495 0.044591101 0)
(0.13601794 0.041833697 0)
(0.12235188 0.039016057 0)
(0.10961738 0.036192416 0)
(0.097847546 0.033409204 0)
(0.087039807 0.030763019 0)
(0.077069275 0.02814905 0)
(0.067918079 0.025708818 0)
(0.05952298 0.023355552 0)
(0.051824917 0.02113671 0)
(0.044807377 0.019031492 0)
(0.038427161 0.017064956 0)
(0.032620739 0.015204912 0)
(0.027349241 0.013454907 0)
(0.022582003 0.011807616 0)
(0.018302439 0.010294288 0)
(0.014488209 0.0089316733 0)
(0.011064748 0.0077110719 0)
(0.0080336337 0.0066207503 0)
(0.0053620927 0.0056475258 0)
(0.0029594221 0.0047947106 0)
(0.00089512157 0.004052737 0)
(-0.00079885348 0.0034225548 0)
(-0.0025420875 0.0028856588 0)
(-0.0043405618 0.0024454985 0)
(-0.0046182633 0.0019928624 0)
(0.0034254564 0.0072296718 0)
(0.0012502629 0.0074642781 0)
(-0.0017015241 0.0077576358 0)
(-0.0041438043 0.0080555642 0)
(-0.0066451872 0.0083748607 0)
(-0.0093593381 0.0087389301 0)
(-0.012184126 0.0091233386 0)
(-0.015101889 0.0095366395 0)
(-0.018140392 0.0099818593 0)
(-0.021289021 0.01043351 0)
(-0.024570743 0.010899142 0)
(-0.027983655 0.011379037 0)
(-0.031521 0.011861265 0)
(-0.035181127 0.012333515 0)
(-0.038958895 0.012803335 0)
(-0.042868704 0.013253139 0)
(-0.046880738 0.013695173 0)
(-0.050997668 0.014114108 0)
(-0.055234831 0.014510932 0)
(-0.059569705 0.014885123 0)
(-0.063992024 0.015224185 0)
(-0.068500398 0.015525589 0)
(-0.073090158 0.01579735 0)
(-0.077743219 0.016003597 0)
(-0.082445341 0.016148629 0)
(-0.087185735 0.016213033 0)
(-0.09193013 0.016172317 0)
(-0.096653451 0.016013301 0)
(-0.10130523 0.015690266 0)
(-0.10583691 0.015169202 0)
(-0.1101904 0.014398359 0)
(-0.11426914 0.013314765 0)
(-0.11796697 0.011853152 0)
(-0.12116474 0.0099434596 0)
(-0.12372082 0.0074963576 0)
(-0.12549532 0.0044340375 0)
(-0.1263087 0.00070530245 0)
(-0.12591678 -0.0036357262 0)
(-0.12409675 -0.0086514582 0)
(-0.12058619 -0.014313115 0)
(-0.11503601 -0.020593711 0)
(-0.10717944 -0.027521756 0)
(-0.096762501 -0.034994283 0)
(-0.083659169 -0.042883 0)
(-0.067760173 -0.051112228 0)
(-0.048880025 -0.059659719 0)
(-0.027023964 -0.068243645 0)
(-0.0021418772 -0.076688483 0)
(0.026009612 -0.085023111 0)
(0.057166905 -0.092544196 0)
(0.090964224 -0.098924969 0)
(0.12711155 -0.10357868 0)
(0.16497939 -0.10581842 0)
(0.2036077 -0.10495857 0)
(0.24171713 -0.10043784 0)
(0.27776865 -0.091966962 0)
(0.3101209 -0.07963609 0)
(0.33721296 -0.063928732 0)
(0.35775775 -0.045715325 0)
(0.3709533 -0.026167652 0)
(0.37652319 -0.0065633989 0)
(0.37494466 0.011844867 0)
(0.36731212 0.028254641 0)
(0.35483777 0.042130242 0)
(0.33871058 0.053202653 0)
(0.32006645 0.061481297 0)
(0.29989833 0.067164593 0)
(0.27900928 0.070557252 0)
(0.2580194 0.072014116 0)
(0.2373873 0.0718963 0)
(0.21743697 0.070547892 0)
(0.1983772 0.068279916 0)
(0.18033694 0.065355299 0)
(0.16338703 0.061988015 0)
(0.14754091 0.058354153 0)
(0.13278925 0.054589948 0)
(0.11909446 0.050803334 0)
(0.10639425 0.047030645 0)
(0.094730076 0.043391364 0)
(0.084022097 0.03987955 0)
(0.074181403 0.036530521 0)
(0.065180076 0.033342262 0)
(0.056925176 0.030317984 0)
(0.049377652 0.027476065 0)
(0.042514982 0.024803907 0)
(0.036280489 0.022308862 0)
(0.030625738 0.019979183 0)
(0.025535206 0.017823705 0)
(0.020956361 0.015838167 0)
(0.016841529 0.014016064 0)
(0.013145306 0.01233407 0)
(0.0098472755 0.010782474 0)
(0.0069254162 0.0093894042 0)
(0.0043560578 0.0081110399 0)
(0.0020900834 0.006975562 0)
(0.0001389785 0.0059858044 0)
(-0.0014692968 0.0051147696 0)
(-0.0031091198 0.0043744498 0)
(-0.0048368139 0.003771685 0)
(-0.0049168758 0.0031427094 0)
(0.0035839065 0.0093511689 0)
(0.0015356969 0.0096705338 0)
(-0.0013660846 0.010018461 0)
(-0.0037944887 0.010409077 0)
(-0.0062676148 0.010822538 0)
(-0.0089447162 0.011288267 0)
(-0.011743976 0.011787603 0)
(-0.014627659 0.012323194 0)
(-0.017638286 0.012884821 0)
(-0.020784983 0.013469565 0)
(-0.024054127 0.0140539 0)
(-0.027452567 0.014658201 0)
(-0.030991814 0.015263416 0)
(-0.034658008 0.015864352 0)
(-0.038449744 0.016449639 0)
(-0.042360012 0.017027025 0)
(-0.046389173 0.017591814 0)
(-0.050541259 0.018122634 0)
(-0.054794825 0.018626644 0)
(-0.05914937 0.019108245 0)
(-0.063607487 0.019548324 0)
(-0.06814616 0.01995027 0)
(-0.072784629 0.020298851 0)
(-0.077504342 0.020586878 0)
(-0.082288269 0.020797496 0)
(-0.087135393 0.020908305 0)
(-0.092005563 0.020892761 0)
(-0.096895957 0.020729535 0)
(-0.10176442 0.020350633 0)
(-0.1065634 0.01971433 0)
(-0.11124163 0.018760965 0)
(-0.11571777 0.017399659 0)
(-0.11988852 0.015552957 0)
(-0.12365108 0.013121132 0)
(-0.12686932 0.010000533 0)
(-0.12937427 0.0060972065 0)
(-0.1309623 0.0013381195 0)
(-0.13141292 -0.0043345539 0)
(-0.13046884 -0.011001307 0)
(-0.12774126 -0.018621838 0)
(-0.12296197 -0.027162393 0)
(-0.11582975 -0.036580157 0)
(-0.10599631 -0.046789478 0)
(-0.093370129 -0.05764826 0)
(-0.077799995 -0.06895629 0)
(-0.059081123 -0.080643899 0)
(-0.037195578 -0.092472634 0)
(-0.012165906 -0.1042633 0)
(0.016523931 -0.11572635 0)
(0.04877966 -0.12659612 0)
(0.084257705 -0.13597974 0)
(0.12285449 -0.14313869 0)
(0.16401541 -0.14704576 0)
(0.20671577 -0.14660581 0)
(0.24943062 -0.14086082 0)
(0.29022051 -0.12933619 0)
(0.32696705 -0.11213485 0)
(0.35762512 -0.08995526 0)
(0.3804798 -0.064106069 0)
(0.3944502 -0.03639232 0)
(0.39929629 -0.008812011 0)
(0.39576313 0.016815812 0)
(0.38523922 0.039210637 0)
(0.36935734 0.057605376 0)
(0.34973991 0.071768854 0)
(0.32782992 0.081913119 0)
(0.30478535 0.088491673 0)
(0.28147469 0.092048801 0)
(0.25852205 0.093143959 0)
(0.23635123 0.092309339 0)
(0.21523631 0.090016477 0)
(0.19533314 0.086670067 0)
(0.17670878 0.082607915 0)
(0.15938115 0.078090163 0)
(0.14333158 0.073316933 0)
(0.12852067 0.068449385 0)
(0.11484562 0.063607364 0)
(0.10225359 0.058837754 0)
(0.090753569 0.054285323 0)
(0.080229034 0.049904506 0)
(0.070581542 0.0457575 0)
(0.061754576 0.041811877 0)
(0.05370513 0.038096341 0)
(0.04635777 0.034594866 0)
(0.039687032 0.031331567 0)
(0.033648075 0.028265186 0)
(0.028179503 0.025411462 0)
(0.023248831 0.022745938 0)
(0.018806753 0.020262244 0)
(0.014823848 0.017940101 0)
(0.011276559 0.015789789 0)
(0.0081413387 0.013817609 0)
(0.0053823368 0.012016219 0)
(0.0029660963 0.010393525 0)
(0.00085097076 0.0089392572 0)
(-0.00094577762 0.0076434323 0)
(-0.0024027331 0.006510141 0)
(-0.0038832 0.0055556778 0)
(-0.0055064443 0.0047742032 0)
(-0.0053158185 0.0039466675 0)
(0.0038027362 0.011681875 0)
(0.001891984 0.012094308 0)
(-0.00096667574 0.012508881 0)
(-0.0033516509 0.012973469 0)
(-0.0057834232 0.013490406 0)
(-0.0084105315 0.014061327 0)
(-0.011165665 0.014682253 0)
(-0.014022113 0.015340323 0)
(-0.017010065 0.016024754 0)
(-0.020135171 0.0167357 0)
(-0.023395887 0.017462602 0)
(-0.026786825 0.01819456 0)
(-0.030324454 0.018926561 0)
(-0.034001233 0.019655316 0)
(-0.03779912 0.020371795 0)
(-0.041724999 0.02107445 0)
(-0.04577849 0.021748525 0)
(-0.049950844 0.022401039 0)
(-0.054231004 0.023021488 0)
(-0.058623195 0.023607586 0)
(-0.063118933 0.024150567 0)
(-0.067713029 0.024647139 0)
(-0.072411877 0.025077482 0)
(-0.077199743 0.025448446 0)
(-0.082077663 0.025734475 0)
(-0.087045157 0.025919459 0)
(-0.092065848 0.025945073 0)
(-0.097156789 0.025792156 0)
(-0.10228482 0.025403724 0)
(-0.1073892 0.024703972 0)
(-0.11246132 0.023653526 0)
(-0.11742315 0.022085622 0)
(-0.12217994 0.019955969 0)
(-0.12663846 0.017092451 0)
(-0.13065197 0.013393582 0)
(-0.13405174 0.0087281285 0)
(-0.13662862 0.0029714582 0)
(-0.13815526 -0.0040143935 0)
(-0.13830513 -0.012206976 0)
(-0.1366937 -0.021677992 0)
(-0.13297438 -0.032490277 0)
(-0.12680829 -0.044421567 0)
(-0.11784609 -0.057388286 0)
(-0.10585692 -0.071209255 0)
(-0.090773659 -0.085658606 0)
(-0.072396574 -0.10060286 0)
(-0.050627828 -0.1158511 0)
(-0.025340075 -0.13115884 0)
(0.0037611551 -0.14613792 0)
(0.037040338 -0.16084131 0)
(0.074574956 -0.17398878 0)
(0.1162521 -0.18455664 0)
(0.1617595 -0.19107349 0)
(0.21010074 -0.19181057 0)
(0.25938016 -0.18516745 0)
(0.30696324 -0.17036961 0)
(0.34998211 -0.14754246 0)
(0.38567303 -0.11759759 0)
(0.41166945 -0.08241845 0)
(0.4265323 -0.044715055 0)
(0.42991673 -0.0074706093 0)
(0.42304904 0.02633111 0)
(0.40812258 0.055023992 0)
(0.38740454 0.077854628 0)
(0.36302565 0.094806479 0)
(0.33679303 0.10639565 0)
(0.31003855 0.11339014 0)
(0.28367704 0.11661904 0)
(0.25831478 0.11687927 0)
(0.23431408 0.11488706 0)
(0.21186038 0.11125814 0)
(0.19102592 0.10649796 0)
(0.17179937 0.10101066 0)
(0.15412008 0.095106632 0)
(0.1379061 0.08901345 0)
(0.12307168 0.082901896 0)
(0.10946303 0.076862545 0)
(0.097051689 0.071017157 0)
(0.085787723 0.06544353 0)
(0.075482153 0.060126724 0)
(0.06607664 0.05507876 0)
(0.057506755 0.050321498 0)
(0.04969763 0.045844556 0)
(0.042603608 0.041637877 0)
(0.036175586 0.037712356 0)
(0.03035074 0.034026466 0)
(0.025098777 0.030576809 0)
(0.020379857 0.027364433 0)
(0.016147548 0.024373158 0)
(0.012371609 0.021605029 0)
(0.0090284868 0.019056685 0)
(0.0060817557 0.016716316 0)
(0.0035098655 0.014572497 0)
(0.0012850617 0.012634177 0)
(-0.00065440133 0.010891335 0)
(-0.0022783852 0.0093377621 0)
(-0.003557772 0.0079776726 0)
(-0.0048528666 0.0068102903 0)
(-0.0063611454 0.0058617484 0)
(-0.0058368716 0.0048447726 0)
(0.0040669524 0.013808857 0)
(0.0023295153 0.014311334 0)
(-0.00048119276 0.014798796 0)
(-0.0028158794 0.015359992 0)
(-0.0051878695 0.01598798 0)
(-0.0077580615 0.016676481 0)
(-0.010470068 0.017422384 0)
(-0.013290655 0.01821002 0)
(-0.016246284 0.019036623 0)
(-0.019348003 0.019889451 0)
(-0.022594304 0.020757077 0)
(-0.025986041 0.021633941 0)
(-0.029525951 0.022503952 0)
(-0.033204018 0.023373153 0)
(-0.037018105 0.024225372 0)
(-0.040967087 0.025049544 0)
(-0.045042739 0.025851254 0)
(-0.049244613 0.026624491 0)
(-0.053559118 0.027359369 0)
(-0.05798595 0.028053542 0)
(-0.062528472 0.028703743 0)
(-0.067174552 0.029298174 0)
(-0.071933659 0.029834888 0)
(-0.076794313 0.030307305 0)
(-0.081761968 0.030686608 0)
(-0.086868276 0.030954579 0)
(-0.092074571 0.031068134 0)
(-0.097377395 0.030988463 0)
(-0.10279123 0.030666054 0)
(-0.10824443 0.029984499 0)
(-0.11378092 0.028910512 0)
(-0.11932063 0.027255393 0)
(-0.12477303 0.024930931 0)
(-0.13008742 0.021772367 0)
(-0.13508474 0.017618352 0)
(-0.13961936 0.012291836 0)
(-0.14350068 0.00562459 0)
(-0.14636602 -0.0025574452 0)
(-0.1478899 -0.012323197 0)
(-0.14776644 -0.023786418 0)
(-0.145436 -0.036884862 0)
(-0.14045325 -0.051506491 0)
(-0.13251915 -0.067439289 0)
(-0.12139393 -0.084405547 0)
(-0.10696123 -0.10220404 0)
(-0.089044674 -0.12059635 0)
(-0.067528335 -0.13944249 0)
(-0.042229237 -0.15859839 0)
(-0.012951645 -0.17786189 0)
(0.021154129 -0.196861 0)
(0.060753883 -0.2149743 0)
(0.10600239 -0.23053479 0)
(0.1570949 -0.24132953 0)
(0.21320466 -0.24466067 0)
(0.27170833 -0.23778307 0)
(0.32868755 -0.21942467 0)
(0.3804029 -0.18989997 0)
(0.42324616 -0.1503826 0)
(0.45372586 -0.10352016 0)
(0.46957285 -0.053228466 0)
(0.47038099 -0.0042483712 0)
(0.45833727 0.039635254 0)
(0.43687347 0.075792103 0)
(0.40923774 0.10333885 0)
(0.37835419 0.12276787 0)
(0.34646863 0.13518164 0)
(0.31505584 0.14184282 0)
(0.28501172 0.14398075 0)
(0.25684492 0.14270515 0)
(0.23079265 0.13895125 0)
(0.20690876 0.13348429 0)
(0.18513468 0.12690894 0)
(0.16534841 0.11968113 0)
(0.14739813 0.1121417 0)
(0.13112496 0.10453504 0)
(0.11635302 0.097038911 0)
(0.10292418 0.089721313 0)
(0.090805955 0.082756518 0)
(0.079833767 0.076120597 0)
(0.069827441 0.069843221 0)
(0.060737858 0.063917042 0)
(0.052483694 0.05835739 0)
(0.044984776 0.053131896 0)
(0.03819338 0.048257134 0)
(0.032044777 0.043689954 0)
(0.026484037 0.039420356 0)
(0.021492183 0.035423688 0)
(0.01702387 0.031705319 0)
(0.013028931 0.028243411 0)
(0.0094935092 0.025035463 0)
(0.0063765262 0.022064088 0)
(0.0036485066 0.019331274 0)
(0.0012937443 0.016829817 0)
(-0.00072084639 0.014551606 0)
(-0.0024477199 0.012500343 0)
(-0.0038550165 0.010675036 0)
(-0.0049375807 0.0090729472 0)
(-0.006015076 0.0076927396 0)
(-0.0073686209 0.0065762227 0)
(-0.0064558437 0.0053723598 0)
(0.0043824992 0.015916859 0)
(0.0028333376 0.016512484 0)
(8.6422546e-05 0.017074596 0)
(-0.0021685593 0.01772464 0)
(-0.0044789238 0.018473216 0)
(-0.0069862629 0.01928412 0)
(-0.0096425748 0.020158697 0)
(-0.012418573 0.02108866 0)
(-0.01533954 0.022059799 0)
(-0.018421161 0.023062626 0)
(-0.021654749 0.024077884 0)
(-0.025039833 0.025099618 0)
(-0.028580875 0.026119091 0)
(-0.032270684 0.027130924 0)
(-0.036108437 0.028119186 0)
(-0.040078729 0.029081657 0)
(-0.044176726 0.0300073 0)
(-0.048409611 0.030901563 0)
(-0.052761605 0.03175276 0)
(-0.057230363 0.032561321 0)
(-0.061818017 0.033326045 0)
(-0.066517648 0.034043854 0)
(-0.071331366 0.034694902 0)
(-0.076270319 0.03528715 0)
(-0.081346867 0.035785827 0)
(-0.086576564 0.036174102 0)
(-0.091943675 0.036427628 0)
(-0.097470171 0.036496139 0)
(-0.10320207 0.036292868 0)
(-0.10905397 0.035743634 0)
(-0.11509169 0.034720772 0)
(-0.12129077 0.033133432 0)
(-0.12753767 0.030756272 0)
(-0.13381105 0.027472947 0)
(-0.13997125 0.023044985 0)
(-0.14585524 0.017242843 0)
(-0.15125868 0.0098406395 0)
(-0.15586161 0.00062777598 0)
(-0.15927994 -0.010657244 0)
(-0.16099149 -0.024116131 0)
(-0.16041735 -0.039640046 0)
(-0.1570689 -0.057139209 0)
(-0.15043789 -0.076324715 0)
(-0.14031296 -0.096728954 0)
(-0.12664718 -0.11806195 0)
(-0.10930437 -0.14009707 0)
(-0.088275887 -0.16273091 0)
(-0.063391227 -0.18597757 0)
(-0.034144778 -0.20989534 0)
(0.00026011512 -0.23418106 0)
(0.041264046 -0.25852019 0)
(0.090333853 -0.28136295 0)
(0.1484953 -0.29923697 0)
(0.21469062 -0.30783577 0)
(0.28476291 -0.30146819 0)
(0.35353079 -0.2787517 0)
(0.41697525 -0.24106747 0)
(0.47037385 -0.18936078 0)
(0.50824546 -0.1270539 0)
(0.52610697 -0.059984914 0)
(0.52313428 0.0045701486 0)
(0.50329873 0.060676898 0)
(0.47196651 0.1048655 0)
(0.43449457 0.13668881 0)
(0.39496422 0.15761112 0)
(0.35595112 0.1696544 0)
(0.31891825 0.17478714 0)
(0.28462363 0.17474994 0)
(0.25337297 0.17100612 0)
(0.22517884 0.164731 0)
(0.19989437 0.15682618 0)
(0.17728058 0.14796863 0)
(0.15706584 0.13865324 0)
(0.13898746 0.12922837 0)
(0.12280243 0.11993042 0)
(0.10824584 0.11091026 0)
(0.095158912 0.10226393 0)
(0.083446828 0.094118416 0)
(0.072862094 0.086400971 0)
(0.063260464 0.079161504 0)
(0.054571461 0.072362323 0)
(0.046701373 0.066016125 0)
(0.039579376 0.060077375 0)
(0.033145758 0.05453703 0)
(0.027323188 0.049357244 0)
(0.022073859 0.044521267 0)
(0.017379061 0.040009259 0)
(0.013195522 0.035797955 0)
(0.0094732286 0.031882297 0)
(0.0061912645 0.02823935 0)
(0.0033269409 0.024864943 0)
(0.00085291629 0.021753626 0)
(-0.0012618311 0.018898224 0)
(-0.0030376314 0.016299146 0)
(-0.0045210041 0.013956516 0)
(-0.0056892915 0.011863856 0)
(-0.0065386055 0.010015265 0)
(-0.0073624447 0.0084331464 0)
(-0.008544402 0.0071497477 0)
(-0.0071871794 0.0057440201 0)
(0.0047509286 0.017909798 0)
(0.0034273951 0.018605339 0)
(0.00073670979 0.019257206 0)
(-0.0014216746 0.020008809 0)
(-0.0036387824 0.020877691 0)
(-0.0060808732 0.021823887 0)
(-0.0086732958 0.022841918 0)
(-0.011398693 0.023923902 0)
(-0.01428 0.025049443 0)
(-0.017334749 0.026208625 0)
(-0.020557838 0.027387883 0)
(-0.023940888 0.028569222 0)
(-0.02748591 0.029744147 0)
(-0.031190163 0.03090242 0)
(-0.035047005 0.032034682 0)
(-0.039051481 0.033137811 0)
(-0.043187918 0.034196195 0)
(-0.047456559 0.035212287 0)
(-0.051848668 0.0361826 0)
(-0.056353074 0.037107625 0)
(-0.060976831 0.037990825 0)
(-0.065727212 0.038821177 0)
(-0.070603237 0.039605611 0)
(-0.075609221 0.040334732 0)
(-0.080774428 0.04098833 0)
(-0.08612143 0.041551281 0)
(-0.091644538 0.041988003 0)
(-0.097402776 0.042240721 0)
(-0.10343225 0.042249318 0)
(-0.10969986 0.041925369 0)
(-0.1162603 0.0411101 0)
(-0.12314205 0.039745042 0)
(-0.13027513 0.037521119 0)
(-0.13762211 0.034294904 0)
(-0.14511405 0.029808229 0)
(-0.15259457 0.0237548 0)
(-0.15985715 0.015834095 0)
(-0.16658523 0.0056922014 0)
(-0.17233827 -0.0070218004 0)
(-0.17642959 -0.022403732 0)
(-0.1781305 -0.040544991 0)
(-0.17680369 -0.061206449 0)
(-0.17176116 -0.083887433 0)
(-0.16279773 -0.10807459 0)
(-0.14997443 -0.13320229 0)
(-0.13331636 -0.15897605 0)
(-0.11298218 -0.18541341 0)
(-0.088947534 -0.21275599 0)
(-0.060686756 -0.24151636 0)
(-0.026995097 -0.27212058 0)
(0.014211667 -0.30439376 0)
(0.066364215 -0.33783313 0)
(0.13128444 -0.36673189 0)
(0.20769713 -0.38356371 0)
(0.29213195 -0.37787134 0)
(0.37844826 -0.35083219 0)
(0.4607644 -0.30557793 0)
(0.53020801 -0.23981628 0)
(0.57791626 -0.15716297 0)
(0.59904288 -0.065818044 0)
(0.59124984 0.020699254 0)
(0.55944162 0.092514469 0)
(0.51351427 0.14545315 0)
(0.46239803 0.18053401 0)
(0.41160939 0.20125142 0)
(0.3638581 0.21111279 0)
(0.32032114 0.21302191 0)
(0.28138186 0.20935269 0)
(0.2469671 0.20196339 0)
(0.21673906 0.19224917 0)
(0.19025108 0.18121863 0)
(0.1670376 0.16957788 0)
(0.1466495 0.15781622 0)
(0.12868605 0.14625719 0)
(0.11279718 0.13510017 0)
(0.09866196 0.12446136 0)
(0.086118826 0.11444501 0)
(0.074935124 0.10505547 0)
(0.064857996 0.096260509 0)
(0.055767466 0.088065167 0)
(0.047573076 0.080416645 0)
(0.040178448 0.073301261 0)
(0.033490965 0.066675633 0)
(0.027459375 0.060490476 0)
(0.022016451 0.054719068 0)
(0.01712711 0.049334805 0)
(0.012765642 0.044315948 0)
(0.0088920567 0.039623025 0)
(0.005465577 0.035253868 0)
(0.0024731119 0.031185761 0)
(-0.00010960073 0.027418207 0)
(-0.0023161559 0.023932436 0)
(-0.0041565073 0.02073043 0)
(-0.005660207 0.017809159 0)
(-0.0068772796 0.015167797 0)
(-0.0077830358 0.012810871 0)
(-0.0083691787 0.010727098 0)
(-0.0089023807 0.0089214547 0)
(-0.0098918472 0.0074744275 0)
(-0.0080452557 0.0058606227 0)
(0.0051792061 0.019778317 0)
(0.0041077982 0.020580488 0)
(0.0014959938 0.021320266 0)
(-0.00055262525 0.022211898 0)
(-0.0026739911 0.023193526 0)
(-0.0050290535 0.0242876 0)
(-0.0075491622 0.025464521 0)
(-0.010219023 0.026708317 0)
(-0.013061578 0.028004361 0)
(-0.016085652 0.029330462 0)
(-0.019292914 0.030682938 0)
(-0.022676923 0.032034896 0)
(-0.026235044 0.033375654 0)
(-0.029961661 0.034693625 0)
(-0.03384772 0.03597513 0)
(-0.037883839 0.037218311 0)
(-0.042060166 0.038418524 0)
(-0.046371925 0.039559912 0)
(-0.050805742 0.040656487 0)
(-0.055350964 0.041698877 0)
(-0.060022243 0.042694877 0)
(-0.064810084 0.043644796 0)
(-0.069715732 0.044560226 0)
(-0.074775947 0.045448347 0)
(-0.08000999 0.046271646 0)
(-0.085448939 0.047042337 0)
(-0.091121136 0.047718607 0)
(-0.097072592 0.048236317 0)
(-0.10337594 0.048559297 0)
(-0.11004378 0.048566291 0)
(-0.1171038 0.048168713 0)
(-0.12469447 0.047139244 0)
(-0.13278486 0.045328022 0)
(-0.14130181 0.042405657 0)
(-0.15026452 0.038116237 0)
(-0.15954903 0.032132184 0)
(-0.16900525 0.024032915 0)
(-0.17837154 0.013274876 0)
(-0.18700531 -0.00067448184 0)
(-0.19411855 -0.018015575 0)
(-0.19881143 -0.038970788 0)
(-0.20000102 -0.063222157 0)
(-0.1968917 -0.089925126 0)
(-0.18921895 -0.11835636 0)
(-0.17711709 -0.14762375 0)
(-0.16103504 -0.17719957 0)
(-0.14152649 -0.20719922 0)
(-0.1189204 -0.23829432 0)
(-0.092884858 -0.27166515 0)
(-0.061812483 -0.3088866 0)
(-0.023155595 -0.35136829 0)
(0.028253904 -0.39774351 0)
(0.094773221 -0.44129232 0)
(0.1887661 -0.47069127 0)
(0.31023404 -0.47166093 0)
(0.43797975 -0.44218038 0)
(0.55498217 -0.38793106 0)
(0.64548852 -0.2999925 0)
(0.69585472 -0.19092885 0)
(0.70455602 -0.068313084 0)
(0.67982925 0.048559993 0)
(0.62854174 0.14082046 0)
(0.56134717 0.20253605 0)
(0.49130835 0.23845128 0)
(0.42616095 0.2558995 0)
(0.36814228 0.26073176 0)
(0.317476 0.25705376 0)
(0.27382422 0.24788483 0)
(0.23648907 0.23543497 0)
(0.20461888 0.22124064 0)
(0.1773687 0.20633951 0)
(0.15397876 0.19140251 0)
(0.13380066 0.1768537 0)
(0.11628739 0.16292207 0)
(0.10099881 0.14977598 0)
(0.087570324 0.13746131 0)
(0.075754156 0.12604163 0)
(0.065248951 0.11539739 0)
(0.055845249 0.10553639 0)
(0.047386396 0.096418248 0)
(0.039781959 0.087962975 0)
(0.032934115 0.080110994 0)
(0.026746121 0.072822646 0)
(0.021167993 0.066030421 0)
(0.016150434 0.059698618 0)
(0.011658872 0.053793583 0)
(0.0076579626 0.048276812 0)
(0.0041235369 0.043119953 0)
(0.0010282545 0.038308073 0)
(-0.0016502957 0.033831677 0)
(-0.0039293246 0.029669268 0)
(-0.0058342782 0.025815065 0)
(-0.0073808358 0.022271489 0)
(-0.0085962132 0.019026722 0)
(-0.009511886 0.016089496 0)
(-0.010117587 0.01346496 0)
(-0.010424247 0.011147052 0)
(-0.010642252 0.0091164765 0)
(-0.011404252 0.0075043579 0)
(-0.0090278917 0.0056951958 0)
(0.0056695479 0.021505443 0)
(0.0048811346 0.02242497 0)
(0.0023741625 0.02326468 0)
(0.00044511918 0.02429503 0)
(-0.0015735623 0.025421262 0)
(-0.003817091 0.026671126 0)
(-0.0062592536 0.028019707 0)
(-0.0088659601 0.029440994 0)
(-0.011664157 0.030926416 0)
(-0.014658469 0.032441353 0)
(-0.017851106 0.033976146 0)
(-0.021239892 0.035511445 0)
(-0.024812181 0.037031227 0)
(-0.02856813 0.038519723 0)
(-0.032492163 0.039963252 0)
(-0.036569401 0.041352491 0)
(-0.040797007 0.042683711 0)
(-0.045157388 0.043958111 0)
(-0.049636932 0.045169459 0)
(-0.05422991 0.046326795 0)
(-0.058933817 0.047432709 0)
(-0.063751751 0.048519075 0)
(-0.068676663 0.049571396 0)
(-0.073762704 0.050596923 0)
(-0.079034142 0.051614867 0)
(-0.084517888 0.052634212 0)
(-0.090286047 0.053584885 0)
(-0.096390279 0.054456447 0)
(-0.10292508 0.055181114 0)
(-0.10989776 0.055661809 0)
(-0.11747275 0.055803723 0)
(-0.12574048 0.055334137 0)
(-0.13474697 0.054207461 0)
(-0.14455168 0.051915392 0)
(-0.1550811 0.048128721 0)
(-0.16633699 0.042615256 0)
(-0.17832938 0.034806931 0)
(-0.19086397 0.023892817 0)
(-0.20316068 0.0090700227 0)
(-0.21423474 -0.010318103 0)
(-0.22282172 -0.034290678 0)
(-0.22723039 -0.062597209 0)
(-0.22640108 -0.094175687 0)
(-0.21999777 -0.12761354 0)
(-0.20828663 -0.16149312 0)
(-0.19229968 -0.19487936 0)
(-0.17339777 -0.22788971 0)
(-0.1526353 -0.26170592 0)
(-0.1302872 -0.29844098 0)
(-0.10532928 -0.34138622 0)
(-0.074869555 -0.39383279 0)
(-0.033374771 -0.45431843 0)
(0.041273974 -0.52498282 0)
(0.20528328 -0.6030304 0)
(0.41837118 -0.62738313 0)
(0.61894747 -0.57797867 0)
(0.77659803 -0.49814203 0)
(0.88415346 -0.35941255 0)
(0.92867263 -0.20120157 0)
(0.89784004 -0.04494619 0)
(0.81483721 0.1024694 0)
(0.71341437 0.21491114 0)
(0.61181091 0.28270793 0)
(0.51766188 0.31472374 0)
(0.43529762 0.32396496 0)
(0.36582683 0.31956673 0)
(0.30802083 0.30703698 0)
(0.26018253 0.29001403 0)
(0.22065697 0.27088834 0)
(0.18791012 0.25113185 0)
(0.16061752 0.23164787 0)
(0.13769074 0.21294987 0)
(0.11824423 0.19531957 0)
(0.10163759 0.17886876 0)
(0.087344588 0.16365684 0)
(0.074931288 0.14965164 0)
(0.064062411 0.13681479 0)
(0.054418373 0.12496401 0)
(0.045856657 0.11411082 0)
(0.03816353 0.10409894 0)
(0.031240084 0.094888056 0)
(0.025012731 0.086361391 0)
(0.019387898 0.078456286 0)
(0.014316315 0.071104368 0)
(0.0097648496 0.064253785 0)
(0.0056978692 0.057854418 0)
(0.0020840244 0.051871218 0)
(-0.0010864604 0.046277549 0)
(-0.003830199 0.041047407 0)
(-0.0061710393 0.036164341 0)
(-0.0081273237 0.031615317 0)
(-0.0097102801 0.027394295 0)
(-0.010937746 0.02350563 0)
(-0.01183565 0.019941383 0)
(-0.012427844 0.016709442 0)
(-0.012711368 0.013812002 0)
(-0.01270531 0.01124721 0)
(-0.012573595 0.0090097264 0)
(-0.013073002 0.0072185278 0)
(-0.010133602 0.0052182439 0)
(0.0062331729 0.023069274 0)
(0.005760638 0.024121307 0)
(0.0033719451 0.02507171 0)
(0.0015946034 0.026244409 0)
(-0.00030969941 0.027545312 0)
(-0.0024381296 0.028965123 0)
(-0.0047866659 0.030501175 0)
(-0.0073197858 0.032121033 0)
(-0.010066643 0.033808491 0)
(-0.01303746 0.035529889 0)
(-0.016219092 0.037267769 0)
(-0.019612056 0.039004407 0)
(-0.023209548 0.040713256 0)
(-0.027003686 0.042380502 0)
(-0.030979462 0.043990495 0)
(-0.035117865 0.045533415 0)
(-0.039397755 0.047004455 0)
(-0.043816098 0.048403244 0)
(-0.048351995 0.049723379 0)
(-0.052987654 0.050987242 0)
(-0.057713798 0.052208397 0)
(-0.062539871 0.053401292 0)
(-0.067491051 0.054590051 0)
(-0.07257068 0.055767263 0)
(-0.077796438 0.056990486 0)
(-0.083289016 0.05824804 0)
(-0.08909679 0.059534675 0)
(-0.095263419 0.060812985 0)
(-0.1019475 0.062057276 0)
(-0.10917345 0.063141818 0)
(-0.11715483 0.063919548 0)
(-0.12597523 0.064289906 0)
(-0.1358568 0.064181966 0)
(-0.14700269 0.062938101 0)
(-0.1591617 0.060033086 0)
(-0.17245459 0.055442661 0)