/*--------------------------------*- C++ -*----------------------------------*\
  =========                 |
  \\      /  F ield         | OpenFOAM: The Open Source CFD Toolbox
   \\    /   O peration     | Website:  https://openfoam.org
    \\  /    A nd           | Version:  9
     \\/     M anipulation  |
\*---------------------------------------------------------------------------*/
FoamFile
{
    format      ascii;
    class       volScalarField;
    location    "0.02";
    object      p;
}
// * * * * * * * * * * * * * * * * * * * * * * * * * * * * * * * * * * * * * //

dimensions      [1 -1 -2 0 0 0 0];

internalField   nonuniform List<scalar> 
10000
(
0
0.021181917
0.055266803
0.10317103
0.16473845
0.23989469
0.32862367
0.43089364
0.54668046
0.67646067
0.81949786
0.97698803
1.1488767
1.3331594
1.5285165
1.734117
1.9471521
2.1700079
2.4023505
2.6442304
2.8952524
3.1548075
3.4221214
3.6962592
3.9760591
4.2600665
4.5467153
4.8345664
5.1222196
5.4082789
5.691325
5.9699266
6.2425936
6.5078476
6.7641587
7.0095903
7.2422831
7.4602499
7.6654283
7.8561294
8.0317145
8.1933289
8.3416496
8.4743165
8.5895762
8.6863476
8.7642503
8.8229651
8.8621945
8.8817512
8.881593
8.8616814
8.822114
8.7630663
8.6848638
8.5878254
8.4722922
8.3393873
8.1908289
8.0289913
7.8531871
7.6623286
7.4570008
7.2388848
7.0060357
6.7604876
6.5040468
6.2386805
5.9659284
5.6872408
5.4041143
5.1179617
4.8301921
4.542232
4.2554854
3.9713931
3.6915324
3.4173323
3.1499304
2.8902708
2.6391554
2.3972041
2.1648104
1.9419184
1.7288499
1.5232335
1.3278558
1.1435708
0.97168056
0.81416235
0.67108761
0.54123631
0.42535365
0.32295023
0.23400612
0.15855308
0.096588857
0.048116668
0.013150882
-0.009750819
-0.025488611
-0.0031265982
0.031389406
0.079555435
0.14136168
0.21678614
0.3058374
0.40849188
0.52477334
0.65475651
0.79830416
0.95560672
1.1263869
1.3097066
1.5045664
1.7101432
1.9254607
2.1511351
2.3854555
2.6295779
2.8828434
3.1445504
3.4138905
3.6899006
3.971435
4.2571735
4.5456972
4.8355793
5.1253953
5.4137069
5.6990402
5.9798882
6.2547771
6.5221965
6.7805931
7.0283323
7.2638772
7.4859873
7.6944642
7.8884912
8.0675673
8.2317087
8.3806808
8.5133807
8.6285786
8.7254409
8.8034699
8.8622613
8.9015353
8.9211014
8.9209472
8.9010321
8.8614271
8.8022898
8.7239477
8.6268145
8.5113759
8.3784341
8.2291999
8.0648199
7.8855401
7.6913526
7.4827169
7.2604384
7.0247399
6.7768935
6.5183875
6.2508665
5.9758811
5.6949494
5.4095431
5.1211287
4.8311843
4.5411898
4.252584
3.9667893
3.6851976
3.4091119
3.1396863
2.8778768
2.6245181
2.3803287
2.1459415
1.9202348
1.7048967
1.4992972
1.3044195
1.1210895
0.95030083
0.79297615
0.64938538
0.51933673
0.40298793
0.30021288
0.21098794
0.13529755
0.073148473
0.024527485
-0.010582167
-0.033588733
-0.062417621
-0.03960645
-0.0047570568
0.043680611
0.10574206
0.18145904
0.27082518
0.37384861
0.49051024
0.6208072
0.76467512
0.92202318
1.092556
1.2756708
1.4706546
1.6768235
1.8935758
2.1202171
2.3580325
2.60522
2.86145
3.1261281
3.3984645
3.6774947
3.9620927
4.2509882
4.5428118
4.83615
5.1295567
5.4215429
5.7105827
5.9951494
6.2737392
6.5448219
6.8068373
7.0582817
7.2977902
7.5242156
7.7367983
7.9347793
8.1175789
8.2847425
8.4357114
8.5697052
8.6859804
8.7839017
8.8628283
8.9223213
8.9621149
8.9819732
8.9818224
8.9616383
8.9215206
8.8616704
8.7824265
8.6842258
8.567705
8.4334438
8.2822278
8.1148149
7.9318224
7.7336397
7.5208891
7.2942956
7.0546359
6.8030755
6.5409619
6.2698196
5.9911493
5.7064706
5.4173392
5.1252602
4.8317477
4.5383171
4.2464113
3.9574499
3.672796
3.3936906
3.121271
2.8564946
2.6001676
2.3529195
2.1150543
1.8883665
1.671597
1.4654103
1.2704051
1.0872833
0.91674999
0.75937849
0.61547704
0.48513361
0.36840752
0.26528177
0.17575658
0.099838212
0.037522477
-0.011244542
-0.046487965
-0.069600279
-0.11267626
-0.089616333
-0.05452013
-0.0058356278
0.056500037
0.13250513
0.22220228
0.32557532
0.44261353
0.57330295
0.71757186
0.87528417
1.0461596
1.2297582
1.425578
1.6331079
1.8518669
2.0814437
2.3217797
2.5721024
2.8318086
3.1002111
3.3764799
3.6596336
3.9485415
4.2419379
4.5384645
4.8367017
5.1351638
5.4323102
5.7265796
6.01641
6.3002441
6.5765097
6.843634
7.1001483
7.3447411
7.5762384
7.7936655
7.9961777
8.1830592
8.353681
8.507399
8.6435634
8.7615377
8.8607322
8.9406224
9.0008001
9.0410347
9.0611303
9.0609856
9.040584
9.0000194
8.939473
8.859268
8.7597893
8.6415641
8.5051022
8.3511405
8.1802714
7.9932074
7.7904791
7.5728548
7.3411963
7.0964637
6.8398252
6.5726039
6.2962656
6.0123693
5.7224754
5.4281145
5.1308501
4.832275
4.5339373
4.2373362
3.9438948
3.6549427
3.3717195
3.0953709
2.8268779
2.567075
2.316697
2.0763279
1.8467052
1.6279163
1.4203673
1.2245346
1.0409343
0.87006375
0.71234685
0.56805839
0.43732044
0.32020749
0.21676027
0.12696298
0.050797711
-0.011727768
-0.060664634
-0.096014306
-0.11926307
-0.17644043
-0.15319759
-0.11790846
-0.068988796
-0.006404585
0.069887828
0.1598926
0.26361364
0.38106073
0.51221949
0.65703791
0.8153795
0.98700146
1.1715871
1.368768
1.5781441
1.799318
2.0319023
2.2755244
2.5295913
2.7934776
3.0664482
3.3476403
3.6360452
3.930508
4.2297522
4.5324107
4.8370302
5.1420684
5.4459313
5.7470142
6.0436934
6.3343254
6.6172849
6.8909852
7.1539323
7.404782
7.6423075
7.865419
8.0731765
8.2647676
8.4394834
8.5966471
8.7356375
8.8558783
8.956835
9.0380727
9.0992372
9.1401043
9.1605181
9.1603744
9.1396581
9.0984604
9.0369384
8.9553636
8.8541111
8.733602
8.5943389
8.4369434
8.2619811
8.0701583
7.8621816
7.6388856
7.4012127
7.1502297
6.8871507
6.6133512
6.3303179
6.0396177
5.7428808
5.4417225
5.1377503
4.8326029
4.5278876
4.2251432
3.9258288
3.6313142
3.3428561
3.0615977
2.7885605
2.5246011
2.2704686
2.0268023
1.794179
1.5729821
1.3635869
1.166399
0.98181543
0.81019587
0.65186861
0.50705918
0.37586294
0.25833777
0.15454577
0.06450132
-0.011885729
-0.074615539
-0.12371587
-0.1591805
-0.18252358
-0.25376865
-0.23038383
-0.19491157
-0.14579849
-0.082985252
-0.006446407
0.083843823
0.18791855
0.30580133
0.43750872
0.58300535
0.74217738
0.91485216
1.1008022
1.2997484
1.5113817
1.7353644
1.9713142
2.2187914
2.4772608
2.7460782
3.0244928
3.3116152
3.6064027
3.9076739
4.2141363
4.52439
4.8369205
5.1501176
5.4623223
5.7718585
6.0770143
6.3760499
6.6672682
6.9490414
7.2198089
7.4781395
7.7227459
7.9524706
8.1662945
8.3633269
8.5428012
8.7040377
8.846434
8.9694593
9.0726306
9.1555638
9.2179712
9.2596403
9.2804384
9.280283
9.2591738
9.217172
9.154442
9.071147
8.9676961
8.8443797
8.7017213
8.5402279
8.3605151
8.1632607
7.949218
7.7193058
7.4745508
7.2160615
6.945171
6.6633184
6.3720306
6.0729504
5.7677503
5.4581196
5.1457939
4.8324767
4.5198405
4.2094962
3.90295
3.6016177
3.3067938
3.0196384
2.7411789
2.4722966
2.2137596
1.9662374
1.7302627
1.5062768
1.2946373
1.0956833
0.9097316
0.7370616
0.57791079
0.43244142
0.30072036
0.18277346
0.078647766
-0.011686432
-0.088276707
-0.15119422
-0.20041511
-0.23600365
-0.25947706
-0.34470958
-0.32116021
-0.28555425
-0.23627845
-0.17329528
-0.096555995
-0.006005428
0.098407441
0.21674352
0.34904405
0.49529937
0.6554549
0.82940658
1.0169954
1.2180257
1.4322674
1.6594353
1.8991781
2.1510707
2.4145843
2.6890987
2.9738491
3.2679197
3.5702405
3.8796113
4.1947096
4.5140729
4.8361061
5.1591223
5.4813769
5.8010855
6.1164297
6.4255666
6.7266909
7.0180807
7.2980903
7.5651933
7.8180299
8.0553806
8.2761506
8.4793937
8.6643109
8.8302358
8.9765888
9.1028659
9.2086402
9.2935664
9.3574233
9.4000447
9.4213116
9.4211302
9.3995517
9.3565878
9.2924371
9.2071551
9.1011198
8.9745403
8.8279249
8.6617352
8.4765447
8.2730846
8.0521241
7.8145784
7.5615769
7.2943204
7.0142073
6.7227507
6.4215543
6.1123558
5.7969516
5.4771584
5.154804
4.8316693
4.5095216
4.1900613
3.8748689
3.5654322
3.2630783
2.9689807
2.684194
2.4096305
2.14607
1.8941484
1.6543909
1.4272227
1.2129772
1.0119327
0.82435032
0.65042911
0.49029952
0.34406285
0.21176295
0.093388149
-0.011068544
-0.10163183
-0.17841345
-0.24143048
-0.29078169
-0.32646333
-0.35009068
-0.4492583
-0.42555512
-0.38984328
-0.34047352
-0.27738211
-0.20049348
-0.10973515
-0.0050178415
0.11374896
0.24663595
0.39369258
0.55492734
0.73029495
0.91971299
1.1230706
1.3402111
1.5709127
1.8148742
2.0717023
2.3409127
2.6218909
2.9138724
3.2159273
3.5269736
3.8457897
4.1709974
4.5010498
4.8342626
5.1688582
5.5029786
5.8346979
6.1620581
6.4830906
6.7958491
7.0984743
7.3892256
7.6664834
7.9287867
8.1748341
8.4034656
8.6137182
8.8047925
8.9760214
9.1268379
9.2567594
9.3654438
9.4526203
9.5181123
9.5617893
9.583591
9.5833945
9.5612981
9.5172839
9.4514879
9.3639657
9.2549901
9.1247734
8.9737051
8.8022461
8.6109124
8.4004078
8.1715491
7.9253306
7.6628584
7.3854295
7.0945705
6.7918847
6.4790669
6.1579844
5.830563
5.4987567
5.1645333
4.8298114
4.4964678
4.1663144
3.841031
3.5221474
3.2110516
2.9089714
2.616978
2.3359954
2.0667798
1.8099413
1.5659676
1.3352575
1.1181138
0.91474146
0.72532743
0.55000191
0.38881404
0.24175826
0.10887271
-0.009881792
-0.11461223
-0.20536939
-0.28230275
-0.34541547
-0.39481455
-0.43057644
-0.45430928
-0.56741094
-0.54356823
-0.507812
-0.45841147
-0.39527757
-0.31831903
-0.22742643
-0.12248124
-0.0033602487
0.13006822
0.27791696
0.44024985
0.61709294
0.80845239
1.0143042
1.2345742
1.4691149
1.7176857
1.9799497
2.2554685
2.5436629
2.8437767
3.1548838
3.4758978
3.8055576
4.142409
4.4848173
4.8310022
5.1790656
5.5269986
5.8727018
6.2140354
6.5488685
6.8751009
7.1907108
7.4938235
7.7827051
8.0557726
8.3116478
8.5491254
8.7672277
8.9651565
9.1422385
9.2979473
9.4318602
9.5437246
9.6333552
9.7006281
9.7454238
9.7677772
9.7676026
9.7449428
9.6998264
9.632234
9.5422726
9.4300797
9.2958615
9.1399235
8.9626168
8.7644422
8.5461019
8.3083641
8.0522938
7.7790628
7.4900292
7.1867905
6.871096
6.5447993
6.2099009
5.8685043
5.5227335
5.174707
4.8265307
4.480232
4.1377192
3.8007972
3.4710806
3.1500193
2.838905
2.5388157
2.2506493
1.9751345
1.7128563
1.4642854
1.2297449
1.0094698
0.80360667
0.61224572
0.43543319
0.27315941
0.12534441
-0.0080522412
-0.12718612
-0.23211604
-0.32303216
-0.39999809
-0.46313317
-0.51254451
-0.54833688
-0.57221136
-0.69914339
-0.67520004
-0.6394566
-0.59009434
-0.52701274
-0.45008495
-0.35917597
-0.25413406
-0.13477315
-0.00089781654
0.14765793
0.31102756
0.48932777
0.68265966
0.89109592
1.1146541
1.3532677
1.6067756
1.8749219
2.1573341
2.4534811
2.7626359
3.0838941
3.4161558
3.7581059
4.1082161
4.4647652
4.8258547
5.1894194
5.5532547
5.915062
6.2724919
6.6232058
6.9649184
7.2954148
7.6126357
7.914703
8.1999133
8.4668207
8.7141811
8.9409725
9.1463982
9.3298169
9.4907884
9.6289852
9.7442397
9.8364408
9.9055691
9.9515673
9.9744749
9.9743316
9.9510719
9.9047844
9.8353377
9.7428059
9.6272481
9.4887259
9.3275061
9.1438426
8.9381664
8.7111247
8.4635183
8.1964161
7.9110288
7.6087995
7.291453
6.9608763
6.6190963
6.2683027
5.9108031
5.5489282
5.1850093
4.8213544
4.4601667
4.1035048
3.7533142
3.4113341
3.0790665
2.7578194
2.4487031
2.1525972
1.8701972
1.6020412
1.3485443
1.1099484
0.88639863
0.67796466
0.48463633
0.3063584
0.14302224
-0.0054715958
-0.13930621
-0.25868246
-0.3637495
-0.45465995
-0.5315524
-0.59459242
-0.64400662
-0.67974902
-0.70369997
-0.84442836
-0.82040853
-0.78474131
-0.73551564
-0.67260142
-0.59585073
-0.50509709
-0.40012613
-0.28068841
-0.14653622
0.0025624493
0.1668297
0.34648318
0.54173128
0.75275222
0.97966026
1.2224894
1.4811875
1.7555981
2.0454477
2.3502583
2.6693626
3.0018796
3.3466926
3.7024419
4.0675356
4.4401494
4.8182228
5.1994803
5.5814894
5.9617237
6.3375981
6.7065036
7.0658989
7.4133443
7.7465633
8.0635142
8.3623562
8.6415445
8.8998022
9.1360837
9.3496212
9.5398383
9.7063903
9.8490561
9.9677931
10.062616
10.133585
10.180812
10.204291
10.204158
10.180327
10.132841
10.061545
9.966381
9.8473414
9.7043348
9.5375177
9.3470139
9.1332227
8.8967043
8.6382127
8.3588065
8.0597908
7.7426875
7.4093319
7.0618014
6.7023274
6.3333337
5.9573874
5.5770744
5.1949741
4.8136364
4.4354925
4.0628116
3.6976686
3.3419084
2.9971142
2.6646164
2.3455505
2.0407835
1.7509662
1.4765715
1.2178859
0.97507001
0.74817131
0.53716655
0.34195638
0.16233327
-0.0019193361
-0.15095986
-0.28506978
-0.40447531
-0.50950658
-0.60028385
-0.67701621
-0.73986906
-0.78908798
-0.82478851
-0.84882824
-1.0031702
-0.97912674
-0.94362231
-0.89464614
-0.83205772
-0.75568041
-0.66528642
-0.56060103
-0.44132396
-0.30714379
-0.15774423
0.0071958026
0.18800523
0.38500875
0.59849754
0.82870281
1.0757895
1.3398439
1.6208341
1.9185831
2.2327235
2.5626556
2.9075285
3.2662283
3.637373
4.0193002
4.4100427
4.8073385
5.208686
5.6113993
6.0126684
6.4096021
6.7992574
7.1787672
7.5454267
7.896716
8.2303866
8.5444356
8.837193
9.107359
9.3539116
9.5761259
9.7735034
9.9458472
10.093078
10.215267
10.312678
10.385407
10.433747
10.45779
10.457658
10.433305
10.384679
10.311584
10.213876
10.091389
9.9437859
9.7711271
9.5734592
9.3510069
9.1042229
8.8338021
8.5407973
8.2265729
7.8927724
7.5413613
7.1746077
6.795013
6.4052925
6.0082931
5.6069207
5.2040933
4.8026559
4.4053123
4.0145601
3.6326237
3.2614711
2.9027883
2.5579442
2.228063
1.9139782
1.6162858
1.335349
1.0713129
0.8242381
0.59405532
0.38060515
0.1836584
0.002865866
-0.16204557
-0.31141579
-0.44556677
-0.56484083
-0.66956097
-0.75997804
-0.83630535
-0.89888179
-0.94782723
-0.9833437
-1.0074186
-1.1752731
-1.1512549
-1.1160178
-1.0674487
-1.005388
-0.92960544
-0.83981864
-0.7357037
-0.61689894
-0.48301579
-0.33364616
-0.16835811
0.013297972
0.2117667
0.42747169
0.66079695
0.91206659
1.1815217
1.4692828
1.7753161
2.0993782
2.440959
2.7992718
3.1732415
3.5614715
3.9622023
4.3732957
4.792273
5.2163908
5.6426655
6.0679039
6.4888104
6.9020615
7.3044143
7.6928224
8.0644524
8.4167974
8.7477036
9.0553966
9.338518
9.5960754
9.8274163
10.032174
10.210378
10.362161
10.48758
10.587339
10.661696
10.711002
10.735535
10.735397
10.710562
10.660946
10.586231
10.486136
10.360429
10.208312
10.029766
9.8247008
9.5931048
9.3353186
9.0519576
8.7440229
8.4129365
8.0604459
7.6886979
7.3001957
6.8977561
6.4844386
6.0634495
5.6381098
5.2117473
4.7875543
4.3685355
3.9574618
3.55675
3.1685083
2.7945477
2.4362786
2.0947702
1.7707815
1.4648023
1.1771011
0.90769181
0.65646489
0.42316345
0.20748163
0.0090663393
-0.17253859
-0.33778365
-0.48712788
-0.62099227
-0.73981774
-0.84393067
-0.93373373
-1.0095164
-1.0715481
-1.1200898
-1.1553509
-1.1793637
-1.3605948
-1.3366633
-1.3018332
-1.2538603
-1.1925462
-1.117618
-1.0287495
-0.9255578
-0.80761093
-0.67443754
-0.52552902
-0.36033582
-0.17828186
0.021217693
0.23874599
0.47486762
0.73009118
1.0048397
1.299423
1.6139913
1.9484545
2.3024367
2.6752643
3.0659281
3.4730095
3.8946412
4.3285217
4.7719458
5.2218622
5.6749022
6.1274064
6.5755863
7.0156651
7.443943
7.8569242
8.2513971
8.6245685
8.9741146
9.2981389
9.5952011
9.8644243
10.105205
10.3174
10.501334
10.657298
10.785763
10.887481
10.963081
11.013098
11.037936
11.037793
11.012655
10.962334
10.886363
10.78428
10.655477
10.499197
10.314937
10.102464
9.8614325
9.5919442
9.2946548
8.9704058
8.6206663
8.2473223
7.8527238
7.4396572
7.0113023
6.5711452
6.1228654
5.6702852
5.217197
4.7672372
4.3237795
3.8899109
3.4683139
3.0612405
2.6705985
2.2978201
1.9438983
1.6095165
1.295024
1.0005154
0.72582025
0.47063911
0.23456534
0.017074775
-0.18239077
-0.36439113
-0.5295405
-0.67837344
-0.81153383
-0.92949297
-1.0327015
-1.1215358
-1.1964892
-1.2578007
-1.3057458
-1.3405874
-1.3645202
-1.5589321
-1.5351943
-1.5009295
-1.4537485
-1.393432
-1.3196736
-1.2320932
-1.1302452
-1.0136269
-0.88167605
-0.7337763
-0.56925886
-0.38740741
-0.18746692
0.031331955
0.2697447
0.52849734
0.80824096
1.1095167
1.4326957
1.7779019
2.1449537
2.5333381
2.9421278
3.3698971
3.8146949
4.274068
4.7450487
5.2241764
5.7075952
6.191122
6.6703824
7.1409964
7.5986821
8.0394073
8.4595334
8.8559322
9.2260355
9.567815
9.8796032
10.161026
10.411503
10.631123
10.82034
10.979879
11.110693
11.21378
11.290074
11.340389
11.365331
11.365188
11.33993
11.289276
11.212622
11.109171
10.978024
10.818134
10.628626
10.408746
10.157989
9.8762974
9.5642767
9.2222554
8.8519655
8.4554095
8.0351412
7.5943054
7.1365291
6.6658273
6.1864801
5.7029022
5.2194466
4.7403037
4.2693297
3.8099773
3.365234
2.9375176
2.5287705
2.140426
1.7734143
1.4282925
1.1052116
0.80400906
0.52430632
0.26559529
0.027263775
-0.19148335
-0.39138829
-0.57319826
-0.73766954
-0.88549321
-1.0174173
-1.1340191
-1.235862
-1.3234336
-1.3971568
-1.4574537
-1.5046651
-1.5389314
-1.5626679
-1.7700598
-1.7466135
-1.7130736
-1.6669118
-1.6078932
-1.5356679
-1.449807
-1.3498027
-1.2350749
-1.1049702
-0.95876199
-0.79564958
-0.61475325
-0.41513221
-0.19582162
0.044159355
0.30578781
0.58999523
0.89759711
1.2292536
1.5853676
1.9660259
2.3709187
2.7992445
3.2496262
3.7200609
4.2079169
4.7099112
5.2221114
5.7400748
6.2589815
6.7737286
7.2791541
7.7702624
8.2423866
8.6913223
9.1135162
9.5061433
9.8669476
10.194758
10.488773
10.748783
10.975208
11.168978
11.331225
11.463356
11.56683
11.643035
11.693121
11.717878
11.717719
11.692648
11.642229
11.565646
11.461772
11.329285
11.166713
10.972676
10.745957
10.485663
10.191409
9.8633449
9.5022887
9.1094711
8.6871311
8.238064
7.7658222
7.2746008
6.7690631
6.2542452
5.7353036
5.2173055
4.7051181
4.2031774
3.7153684
3.2450066
2.794714
2.366452
1.961617
1.5810133
1.2249556
0.89337057
0.58585446
0.30171114
0.040131083
-0.19978404
-0.41902187
-0.61858151
-0.79944861
-0.9625062
-1.1086628
-1.2387031
-1.3534305
-1.4533905
-1.5392058
-1.6113852
-1.670392
-1.7165606
-1.7501146
-1.7735806
-1.9936606
-1.9705952
-1.9379632
-1.8930845
-1.8357027
-1.765429
-1.6817889
-1.5842116
-1.472038
-1.3445235
-1.2008248
-1.0399925
-0.86097447
-0.66264158
-0.44380977
-0.20324078
0.06034617
0.34819518
0.66147593
1.0012038
1.3681516
1.7627434
2.1849487
2.6341755
3.1091688
3.6079016
4.127529
4.6644135
5.2141146
5.7714832
6.330853
6.8862177
7.4314714
7.960718
8.4684659
8.9497305
9.4003626
9.8177913
10.199429
10.543841
10.850515
11.119662
11.352061
11.549143
11.712659
11.844658
11.947219
12.022204
12.0712
12.095337
12.095181
12.070716
12.021366
11.945982
11.843056
11.710666
11.546774
11.349403
11.116736
10.847345
10.540405
10.195739
9.8138799
9.3962229
8.945413
8.4640277
7.95618
7.4268233
6.881449
6.3260014
5.7665983
5.2092219
4.6595669
4.1227736
3.6032298
3.1045968
2.6297214
2.180586
1.7584514
1.3639255
0.99703172
0.65737763
0.34420512
0.056434775
-0.20709103
-0.44760901
-0.66635841
-0.8646061
-1.0435737
-1.204383
-1.3480776
-1.4755441
-1.5876517
-1.6852013
-1.768774
-1.8389593
-1.8963384
-1.9412304
-1.9738824
-1.9969627
-2.2293135
-2.2067382
-2.1752288
-2.1319235
-2.0765602
-2.0087187
-1.9278715
-1.8333876
-1.7245351
-1.6004738
-1.4602321
-1.3027113
-1.126695
-0.93085459
-0.71375459
-0.47385736
-0.20955878
0.080771835
0.39872056
0.74576604
1.1231372
1.5316968
1.9718135
2.4432091
2.9448237
3.4746599
4.029694
4.605897
5.1982323
5.8006887
6.4065243
7.0085962
7.5996226
8.1725361
8.7207944
9.2378907
9.7208881
10.165398
10.569111
10.93072
11.249883
11.527272
11.764239
11.962838
12.125629
12.255456
12.355173
12.427379
12.47421
12.497167
12.496994
12.473695
12.426532
12.35393
12.253792
12.123549
11.960362
11.76145
11.524232
11.246599
10.927165
10.565335
10.161393
9.716629
9.233452
8.7162547
8.167879
7.5948608
7.0037451
6.4015809
5.7956877
5.1932506
4.6009924
4.0248898
3.4699664
2.9402758
2.4388225
1.967565
1.5275389
1.1190565
0.74176643
0.3947956
0.076936097
-0.21330273
-0.47754471
-0.71739373
-0.93441141
-1.130152
-1.3060873
-1.4636065
-1.6038335
-1.7278959
-1.8366853
-1.9311001
-2.0118669
-2.0796516
-2.1349816
-2.1782726
-2.2097975
-2.2323983
-2.4765112
-2.454572
-2.4244149
-2.3830121
-2.3301005
-2.2652228
-2.187804
-2.0971594
-1.9924873
-1.8728474
-1.7371507
-1.5841571
-1.4124819
-1.220583
-1.0067559
-0.76913965
-0.50574963
-0.21452417
0.10664889
0.45979793
0.84673212
1.2688976
1.7272169
2.2218532
2.7520419
3.3159304
3.9104015
4.530995
5.1719345
5.8261936
6.4857087
7.1418129
7.785658
8.408713
9.0025617
9.5614165
10.079869
10.553839
10.980889
11.359992
11.691117
11.975328
12.214741
12.412292
12.571529
12.696378
12.790693
12.858004
12.901124
12.922102
12.92193
12.900626
12.857139
12.789444
12.694699
12.569424
12.409789
12.211894
11.972172
11.687688
11.356345
10.977034
10.549718
10.075517
9.5569088
8.9979213
8.4039435
7.7807737
7.1368541
6.4806697
5.82111
5.1668875
4.526036
3.905554
3.3112395
2.7475343
2.2175025
1.7230285
1.2648765
0.84283853
0.4559937
0.10291756
-0.21818383
-0.50931315
-0.77263009
-1.0101711
-1.2239311
-1.4157593
-1.5873662
-1.7402945
-1.876001
-1.9956525
-2.1002818
-2.1908529
-2.2681934
-2.3330277
-2.3859024
-2.4272888
-2.4574305
-2.4793855
-2.7347008
-2.7135299
-2.6849874
-2.6458545
-2.5958628
-2.5345221
-2.4612227
-2.3752324
-2.2756802
-2.1615418
-2.0316274
-1.8845648
-1.7187944
-1.5325547
-1.3238667
-1.0905308
-0.83012496
-0.54007118
-0.21767193
0.13978337
0.5348374
0.96970269
1.4460317
1.9646305
2.5252336
3.126276
3.7646273
4.4353981
5.1319576
5.8460528
6.5679748
7.2870097
7.9921033
8.6728709
9.3199596
9.9254213
10.48317
10.98908
11.440697
11.837198
12.179113
12.46811
12.707086
12.900038
13.05183
13.167891
13.253326
13.312841
13.350234
13.3682
13.368043
13.349754
13.311986
13.252055
13.166174
13.049699
12.897501
12.704175
12.464869
12.175608
11.833454
11.436688
10.984842
10.478759
9.9208104
9.3152096
8.6680285
7.9871315
7.281914
6.562807
5.8408863
5.1268424
4.4303814
3.7597629
3.1215985
2.520749
1.9603377
1.4419362
0.96580373
0.53112062
0.13620233
-0.22117554
-0.5435029
-0.8334827
-1.093812
-1.327071
-1.5356858
-1.7218253
-1.8875907
-2.0345999
-2.1644883
-2.2786258
-2.3781508
-2.4640638
-2.5373123
-2.5986274
-2.6485888
-2.6877034
-2.7162346
-2.7374146
-3.0032217
-2.9829824
-2.956336
-2.9198545
-2.8732697
-2.816074
-2.747628
-2.6671631
-2.5737546
-2.466314
-2.3435639
-2.2040106
-2.045935
-1.867368
-1.6660466
-1.4394095
-1.1845591
-0.89835557
-0.57740938
-0.21818154
0.18280048
0.62871259
1.1221736
1.6649391
2.2575362
2.8988868
3.5859705
4.3135475
5.0740411
5.8576644
6.6526504
7.4457063
8.2221946
8.9706342
9.6788518
10.337039
10.938268
11.478456
11.955485
12.368961
12.719968
13.010843
13.245378
13.428936
13.567991
13.670189
13.742164
13.790054
13.818989
13.832492
13.832333
13.818474
13.789145
13.740836
13.66843
13.565811
13.42637
13.242446
13.007555
12.716393
12.365121
11.951356
11.474109
10.933737
10.332311
9.6740041
8.9656853
8.2171193
7.440508
6.6473746
5.8523811
5.0688199
4.3084614
3.5810911
2.8942222
2.2530763
1.6607081
1.1181798
0.62493222
0.17922686
-0.22157054
-0.58067278
-0.90153076
-1.1877003
-1.4424827
-1.6690165
-1.8702534
-2.0487522
-2.2067633
-2.3462807
-2.4690098
-2.5764523
-2.6698472
-2.7502654
-2.818686
-2.8758753
-2.9224514
-2.9589195
-2.985568
-3.0058149
-3.2813297
-3.2622016
-3.237736
-3.2042955
-3.1616241
-3.1091999
-3.0463759
-2.9723591
-2.886197
-2.7867481
-2.6726697
-2.5423766
-2.3940139
-2.2254261
-2.034068
-1.8169952
-1.5708628
-1.2918933
-0.97589056
-0.6183365
-0.21462711
0.23966341
0.74846913
1.31486
1.9405183
2.6251987
3.3662391
4.158174
4.9924219
5.8573573
6.7387026
7.6203567
8.47963
9.3087188
10.087609
10.805313
11.454347
12.030818
12.533595
12.963084
13.320875
13.609864
13.834774
14.002638
14.122797
14.203547
14.255038
14.285996
14.302993
14.310388
14.310226
14.302474
14.285065
14.253678
14.201741
14.120571
14.000024
13.83178
13.606517
13.317228
12.959164
12.529399
12.026358
11.449661
10.800485
10.08265
9.3035896
8.4743988
7.6150473
6.7333154
5.8519382
4.9870701
4.152992
3.361315
2.6205604
1.9361571
1.3107598
0.74462528
0.23606133
-0.21800893
-0.62153726
-0.97892078
-1.2948056
-1.5737058
-1.8197482
-2.0367331
-2.2280082
-2.3965422
-2.5448485
-2.6751342
-2.789209
-2.8886558
-2.9748037
-3.0488138
-3.1116267
-3.1640613
-3.2067408
-3.2401885
-3.2646746
-3.2838048
-3.5681878
-3.5503436
-3.5283411
-3.4983332
-3.4600922
-3.4130865
-3.3566774
-3.290078
-3.2123122
-3.1222179
-3.0184238
-2.8992905
-2.7628696
-2.6068331
-2.4284015
-2.224272
-1.9906386
-1.7230666
-1.4164962
-1.0652117
-0.66326036
-0.2046059
0.31646282
0.90479276
1.5637491
2.2944235
3.0948973
3.9596826
4.8792614
5.8398903
6.8237672
7.8095062
8.7739547
9.6967023
10.557402
11.341973
12.042623
12.656704
13.184842
13.628772
13.990487
14.272949
14.481817
14.625794
14.71558
14.765346
14.788303
14.795888
14.796685
14.795828
14.79564
14.796097
14.794874
14.786868
14.763475
14.713295
14.623127
14.478791
14.269564
13.986767
13.624744
13.180523
12.652098
12.037793
11.336991
10.552244
9.6914006
8.7685737
7.8040265
6.8182154
5.8343486
4.873807
3.954417
3.089918
2.2897868
1.5594852
0.90085595
0.3128121
-0.20795372
-0.66635184
-1.0681568
-1.419292
-1.7257196
-1.9931684
-2.226705
-2.430725
-2.6091057
-2.7651169
-2.9015063
-3.0205939
-3.1244035
-3.2145343
-3.2923059
-3.3589198
-3.415348
-3.46237
-3.5006278
-3.5306731
-3.552713
-3.5705518
-3.8628298
-3.8464504
-3.8271924
-3.8010057
-3.7677058
-3.7267829
-3.6776033
-3.6193916
-3.5511922
-3.4718586
-3.380037
-3.2740846
-3.1519914
-3.0113079
-2.8491053
-2.6618015
-2.4451512
-2.1940958
-1.9025355
-1.5635152
-1.1694027
-0.71214845
-0.18375351
0.42312401
1.1142825
1.8928299
2.7581987
3.7053395
4.724027
5.7982132
6.9058497
8.0192481
9.1097203
10.146235
11.102873
11.962207
12.717055
13.36818
13.920012
14.376443
14.739248
15.010228
15.194216
15.301411
15.348125
15.353849
15.336879
15.31248
15.29198
15.280503
15.280304
15.291375
15.311446
15.335407
15.351939
15.34578
15.298683
15.191121
15.006778
14.73543
14.37229
13.915555
13.363435
12.712064
11.957008
11.097494
10.140752
9.1041223
8.0135607
6.9001277
5.7925417
4.7184694
3.6999763
2.7531242
1.8881494
1.1100691
0.41934141
-0.18719119
-0.71527307
-1.1722593
-1.5661684
-1.9050316
-2.1964718
-2.4473766
-2.663873
-2.8510519
-3.0131951
-3.1538748
-3.2759939
-3.3819579
-3.473793
-3.5531573
-3.6214066
-3.6796481
-3.7288718
-3.7698206
-3.8031455
-3.8293834
-3.8486913
-3.8650725
-4.1641813
-4.1494489
-4.1332129
-4.1112382
-4.0833896
-4.0491926
-4.0080383
-3.9591714
-3.9016983
-3.8345493
-3.7564278
-3.6657281
-3.5604441
-3.4381094
-3.2957282
-3.1295917
-2.9351008
-2.7065725
-2.4370644
-2.1179269
-1.7397331
-1.2919792
-0.7636805
-0.14405122
0.57610352
1.402928
2.3381972
3.3780665
4.5120371
5.7218191
6.9793776
8.2525627
9.4989578
10.675117
11.744923
12.686362
13.494715
14.178469
14.75016
15.217368
15.579753
15.834558
15.98251
16.037255
16.021607
15.965007
15.892918
15.825118
15.778256
15.753615
15.753416
15.777617
15.824029
15.891372
15.963027
16.019212
16.034481
15.979369
15.831051
15.575865
15.213111
14.745561
14.173574
13.48955
12.680947
11.739324
10.669378
9.4930269
8.2465786
6.9734375
5.7159477
4.5063015
3.3725993
2.3330929
1.3982592
0.57194228
-0.14769247
-0.76686319
-1.2948112
-1.7422895
-2.1202405
-2.4392076
-2.7085865
-2.9369997
-3.1313476
-3.2973568
-3.4396376
-3.561985
-3.6672908
-3.7580492
-3.8362209
-3.9034126
-3.9609445
-4.0098714
-4.0510863
-4.0853229
-4.1132197
-4.135254
-4.1515387
-4.1662742
-4.4710668
-4.4581724
-4.4452246
-4.4278369
-4.4059334
-4.3790659
-4.3466734
-4.308078
-4.2624806
-4.2089123
-4.1461681
-4.0727493
-3.9867752
-3.8859041
-3.7671947
-3.6269289
-3.4603599
-3.2614204
-3.0223252
-2.7326913
-2.3810488
-1.9539726
-1.4365514
-0.81344465
-0.070654685
0.80256325
1.8115927
2.954783
4.22245
5.5958888
7.0358814
8.5117962
9.9573903
11.309558
12.514503
13.5428
14.396221
15.100096
15.684137
16.162566
16.528413
16.764547
16.863811
16.843245
16.736173
16.591613
16.444593
16.322472
16.238526
16.1994
16.19919
16.237881
16.321366
16.443034
16.589615
16.733743
16.840396
16.860577
16.760939
16.524405
16.158192
15.679417
15.095058
14.390863
13.537124
12.508576
11.303472
9.9511689
8.5055115
7.0295782
5.5896634
4.2164388
2.9491392
1.8064249
0.79794451
-0.07472093
-0.81695795
-1.4394911
-1.9564566
-2.3832271
-2.7346436
-3.0241133
-3.2630766
-3.4619231
-3.6283625
-3.768472
-3.8870711
-3.9879342
-4.073963
-4.1474776
-4.2103137
-4.2639661
-4.3096184
-4.3482795
-4.3807355
-4.4076639
-4.429634
-4.4470928
-4.4600921
-4.4729958
-4.7822125
-4.7713418
-4.7619447
-4.7494902
-4.7339734
-4.7149904
-4.6920565
-4.664603
-4.6319477
-4.5932477
-4.5474432
-4.4932373
-4.4290103
-4.3526779
-4.2615422
-4.152109
-4.0197397
-3.8583196
-3.6597894
-3.4110967
-3.0997257
-2.7084001
-2.2173195
-1.6050735
-0.85058846
0.063629376
1.1480952
2.4043999
3.8245984
5.389926
7.0660401
8.8003021
10.508008
12.089951
13.459439
14.572959
15.446254
16.140618
16.722818
17.219451
17.604809
17.830094
17.864648
17.734551
17.489738
17.220913
16.973141
16.783034
16.653274
16.591353
16.591147
16.652633
16.781917
16.97156
17.218905
17.487295
17.731683
17.861365
17.826419
17.600743
17.214998
16.717956
16.135359
15.440615
14.567
13.453205
12.083489
10.501402
8.7936001
7.0592916
5.3832952
3.8182597
2.3984856
1.1427336
0.058946467
-0.85457124
-1.6083981
-2.220014
-2.7105739
-3.1015189
-3.4126325
-3.6611604
-3.8595657
-4.0208844
-4.1531541
-4.2624698
-4.3535251
-4.429819
-4.4941077
-4.5484296
-4.5943637
-4.633187
-4.6659302
-4.6934444
-4.7164294
-4.7354793
-4.7510752
-4.7636068
-4.7730586
-4.7839583
-5.0962448
-5.0875832
-5.0819571
-5.0747411
-5.0660094
-5.0554239
-5.0425986
-5.0270759
-5.0082932
-4.9855718
-4.9581041
-4.9248684
-4.8845978
-4.8356543
-4.7758409
-4.7021951
-4.6105479
-4.494922
-4.3470026
-4.1545617
-3.9009164
-3.5654399
-3.1225234
-2.5424535
-1.7939872
-0.84955862
0.30872141
1.6863384
3.2782015
5.0699546
7.0364756
9.1139599
11.18283
13.081199
14.658704
15.841746
16.673565
17.291734
17.845604
18.386092
18.840158
19.082813
19.029909
18.731384
18.277502
17.831078
17.451064
17.181001
17.000454
16.920834
16.920642
16.999844
17.179915
17.449514
17.829084
18.275036
18.728485
19.026593
19.079082
18.836009
18.381517
17.840611
17.286268
16.66765
15.835459
14.652102
13.074304
11.175728
9.106757
7.0293115
5.0629311
3.271442
1.6800254
0.3030719
-0.85437935
-1.7979314
-2.5455609
-3.1249178
-3.5672496
-3.9022898
-4.1556464
-4.347925
-4.4957315
-4.6112765
-4.702815
-4.7763715
-4.8361396
-4.8850947
-4.925416
-4.9587847
-4.986407
-5.0092701
-5.0281787
-5.0437742
-5.0566528
-5.0673033
-5.0761092
-5.0833895
-5.0890626
-5.0977697
-5.4116901
-5.4054084
-5.4037507
-5.4020425
-5.4004549
-5.3987313
-5.3965795
-5.3936449
-5.3895144
-5.3837052
-5.3757159
-5.3649111
-5.3504479
-5.331293
-5.3060471
-5.2727097
-5.2281479
-5.1672927
-5.0822084
-4.9622157
-4.7875498
-4.5341122
-4.1695153