/*--------------------------------*- C++ -*----------------------------------*\
  =========                 |
  \\      /  F ield         | OpenFOAM: The Open Source CFD Toolbox
   \\    /   O peration     | Website:  https://openfoam.org
    \\  /    A nd           | Version:  9
     \\/     M anipulation  |
\*---------------------------------------------------------------------------*/
FoamFile
{
    format      ascii;
    class       surfaceScalarField;
    location    "0.02";
    object      phi;
}
// * * * * * * * * * * * * * * * * * * * * * * * * * * * * * * * * * * * * * //

dimensions      [0 3 -1 0 0 0 0];

internalField   nonuniform List<scalar> 
19800
(
-2.3206474e-05
2.4063033e-05
-3.8413899e-05
2.3492897e-05
-5.3376874e-05
2.3090229e-05
-6.7992745e-05
2.2444089e-05
-8.2163323e-05
2.1675789e-05
-9.582544e-05
2.0767981e-05
-0.00010891227
1.9721028e-05
-0.0001213414
1.8547446e-05
-0.0001330309
1.7257849e-05
-0.00014391165
1.5853226e-05
-0.00015394062
1.4314205e-05
-0.00016306106
1.2703366e-05
-0.00017108855
1.1020583e-05
-0.00017801874
9.150423e-06
-0.00018405419
7.1531175e-06
-0.00018905838
5.0067459e-06
-0.00019344653
2.6316357e-06
-0.00019687356
4.2938914e-07
-0.00019931028
-1.5564397e-06
-0.00020067688
-3.3887511e-06
-0.00020095634
-5.0402826e-06
-0.00020015699
-6.4957907e-06
-0.00019829212
-7.7547293e-06
-0.00019538647
-8.8249829e-06
-0.0001914788
-9.7270339e-06
-0.00018666086
-1.0497433e-05
-0.00018106049
-1.1163063e-05
-0.00017478476
-1.1724278e-05
-0.00016793231
-1.2175307e-05
-0.00016059654
-1.2511938e-05
-0.00015285228
-1.2746289e-05
-0.0001448196
-1.2809717e-05
-0.00013656388
-1.2802415e-05
-0.0001281692
-1.2668402e-05
-0.00011969918
-1.2420922e-05
-0.00011120611
-1.2068841e-05
-0.00010272146
-1.1657251e-05
-9.4604577e-05
-1.1215926e-05
-8.6456777e-05
-1.053205e-05
-7.8361868e-05
-9.7021834e-06
-7.034662e-05
-8.8410039e-06
-6.2519107e-05
-7.9137577e-06
-5.4548818e-05
-6.8385623e-06
-4.6577417e-05
-5.7814041e-06
-3.8666479e-05
-4.8659622e-06
-3.0821147e-05
-4.1591186e-06
-2.3037919e-05
-3.6013724e-06
-1.5318633e-05
-3.1427961e-06
-7.6508997e-06
-2.8323929e-06
-1.3959498e-08
-2.6756006e-06
7.626183e-06
-2.6757567e-06
1.5292659e-05
-2.8329242e-06
2.3010922e-05
-3.143583e-06
3.0791271e-05
-3.6003321e-06
3.863427e-05
-4.158453e-06
4.6543467e-05
-4.860199e-06
5.4514075e-05
-5.7884758e-06
6.2480917e-05
-6.8421947e-06
7.031073e-05
-7.9133901e-06
7.8325904e-05
-8.8381208e-06
8.6420028e-05
-9.7012638e-06
9.4569558e-05
-1.0532215e-05
0.00010268458
-1.1214457e-05
0.00011117372
-1.1652869e-05
0.00011966421
-1.2067815e-05
0.00012813706
-1.2419014e-05
0.00013653339
-1.2670145e-05
0.00014478742
-1.2805224e-05
0.00015282174
-1.2811248e-05
0.00016056722
-1.2748281e-05
0.00016790577
-1.2515923e-05
0.00017476383
-1.2178529e-05
0.00018104428
-1.1725823e-05
0.00018664779
-1.1164002e-05
0.00019146714
-1.0500307e-05
0.00019537509
-9.7328329e-06
0.0001982812
-8.8318026e-06
0.00020014922
-7.7604547e-06
0.00020095402
-6.5019842e-06
0.000200677
-5.0482367e-06
0.00019931123
-3.3980396e-06
0.00019687691
-1.5672586e-06
0.0001934538
4.1986374e-07
0.00018906873
2.6210696e-06
0.00018406864
4.98982e-06
0.00017803985
7.1307784e-06
0.00017111311
9.1401143e-06
0.00016308992
1.1008345e-05
0.00015397478
1.2689415e-05
0.0001439527
1.4298188e-05
0.00013308384
1.5833827e-05
0.00012140519
1.7232633e-05
0.00010899274
1.8522492e-05
9.5930793e-05
1.9691442e-05
8.2303011e-05
2.0717268e-05
6.8167935e-05
2.1612223e-05
5.3613936e-05
2.2350097e-05
3.8726042e-05
2.2931668e-05
2.3605977e-05
2.3361774e-05
2.3678638e-05
-2.376027e-05
3.9440627e-05
-3.9083942e-05
3.8815484e-05
-5.4134309e-05
3.8140644e-05
-6.8804393e-05
3.7112544e-05
-8.3160622e-05
3.6028668e-05
-9.700335e-05
3.460431e-05
-0.00011021323
3.2925938e-05
-0.00012272813
3.1057814e-05
-0.00013453841
2.9067121e-05
-0.00014560707
2.6924327e-05
-0.00015566811
2.4379334e-05
-0.00016491458
2.1954334e-05
-0.0001731034
1.9212339e-05
-0.00018020297
1.6251725e-05
-0.00018627659
1.3228451e-05
-0.00019150304
1.0234755e-05
-0.00019568337
6.8141412e-06
-0.00019883018
3.5797356e-06
-0.00020110196
7.1802441e-07
-0.00020226451
-2.2268464e-06
-0.00020233136
-4.9766803e-06
-0.00020131935
-7.5114027e-06
-0.00019925167
-9.8251096e-06
-0.00019616526
-1.1912965e-05
-0.00019211441
-1.3778949e-05
-0.00018718099
-1.543307e-05
-0.00018146536
-1.688334e-05
-0.00017506865
-1.8127045e-05
-0.00016808831
-1.9160609e-05
-0.0001606183
-1.9984658e-05
-0.00015277818
-2.0588281e-05
-0.00014457534
-2.1015464e-05
-0.00013617205
-2.120976e-05
-0.00012763791
-2.1207366e-05
-0.00011905374
-2.101054e-05
-0.00011046554
-2.0661243e-05
-0.00010193951
-2.018527e-05
-9.3583154e-05
-1.9574615e-05
-8.5312696e-05
-1.880589e-05
-7.7226232e-05
-1.7789758e-05
-6.9170488e-05
-1.6894996e-05
-6.1214262e-05
-1.5869949e-05
-5.327765e-05
-1.477496e-05
-4.5505997e-05
-1.3549627e-05
-3.7821517e-05
-1.2547901e-05
-3.0104679e-05
-1.1871518e-05
-2.2489128e-05
-1.1215791e-05
-1.4950089e-05
-1.0680869e-05
-7.4650312e-06
-1.0315198e-05
-1.3534075e-08
-1.0130357e-05
7.4415621e-06
-1.0129903e-05
1.492605e-05
-1.031573e-05
2.246794e-05
-1.0681799e-05
3.0081986e-05
-1.1216856e-05
3.7793113e-05
-1.1874313e-05
4.5482789e-05
-1.2553069e-05
5.3249211e-05
-1.3548421e-05
6.1181021e-05
-1.4773351e-05
6.9137529e-05
-1.5870335e-05
7.7188654e-05
-1.6893948e-05
8.527478e-05
-1.7788142e-05
9.3549845e-05
-1.8799791e-05
0.00010190609
-1.9569414e-05
0.00011043753
-2.017933e-05
0.00011902104
-2.0657136e-05
0.00012760295
-2.100446e-05
0.00013614025
-2.120661e-05
0.00014454414
-2.121272e-05
0.00015274641
-2.1019797e-05
0.00016058749
-2.0589118e-05
0.00016806281
-1.998416e-05
0.0001750496
-1.9160432e-05
0.00018144972
-1.8129215e-05
0.00018716609
-1.6888155e-05
0.00019209974
-1.5439932e-05
0.00019615274
-1.3786578e-05
0.00019924173
-1.192061e-05
0.00020131087
-9.8320981e-06
0.00020232663
-7.5181779e-06
0.00020226239
-4.9843976e-06
0.00020109876
-2.2363905e-06
0.00019882337
7.0870492e-07
0.00019568397
3.5597804e-06
0.00019150865
6.7954741e-06
0.00018628268
1.0215539e-05
0.00018021603
1.3196112e-05
0.00017312332
1.6232816e-05
0.00016494036
1.9190658e-05
0.00015569903
2.193002e-05
0.00014564179
2.4354716e-05
0.00013457495
2.6900331e-05
0.00012279925
2.9002158e-05
0.00011029806
3.1019745e-05
9.7077753e-05
3.2910387e-05
8.3276605e-05
3.4521955e-05
6.8953705e-05
3.5938286e-05
5.4227416e-05
3.7078044e-05
3.9233258e-05
3.7929827e-05
2.3933481e-05
3.8666643e-05
3.9152703e-05
-2.4229014e-05
5.5088317e-05
-3.9769573e-05
5.4357864e-05
-5.5042407e-05
5.3414025e-05
-7.0043236e-05
5.2112059e-05
-8.4547723e-05
5.052804e-05
-9.8550597e-05
4.8602449e-05
-0.00011199106
4.6361497e-05
-0.00012478358
4.3848189e-05
-0.00013679447
4.1078784e-05
-0.00014792696
3.8058559e-05
-0.00015827926
3.4733223e-05
-0.00016757228
3.1247541e-05
-0.00017588069
2.7520441e-05
-0.00018321871
2.3590451e-05
-0.00018952281
1.9533367e-05
-0.00019463808
1.5350316e-05
-0.00019888125
1.1057768e-05
-0.00020210763
6.8061788e-06
-0.00020411044
2.7194135e-06
-0.00020504398
-1.2955059e-06
-0.00020488773
-5.1345561e-06
-0.00020364887
-8.7514856e-06
-0.00020135334
-1.2122254e-05
-0.00019804392
-1.5224628e-05
-0.00019378052
-1.8045242e-05
-0.00018864169
-2.0575643e-05
-0.0001827198
-2.2809336e-05
-0.00017611137
-2.4738834e-05
-0.00016891459
-2.6359635e-05
-0.00016122752
-2.7673646e-05
-0.00015314509
-2.8673399e-05
-0.00014479547
-2.9368677e-05
-0.00013621948
-2.9788596e-05
-0.00012752047
-2.9907241e-05
-0.00011878014
-2.9751544e-05
-0.00011004373
-2.9399496e-05
-0.00010139275
-2.8837689e-05
-9.287739e-05
-2.8090784e-05
-8.4513689e-05
-2.7171073e-05
-7.6204541e-05
-2.6099297e-05
-6.8104649e-05
-2.4991549e-05
-6.0205179e-05
-2.3767316e-05
-5.2415393e-05
-2.2566374e-05
-4.4605419e-05
-2.1359831e-05
-3.6876125e-05
-2.0277234e-05
-2.9360928e-05
-1.9382225e-05
-2.1947583e-05
-1.8625354e-05
-1.459926e-05
-1.8029068e-05
-7.2936759e-06
-1.7618429e-05
-1.2597133e-08
-1.7411869e-05
7.2698144e-06
-1.741188e-05
1.4574989e-05
-1.7619325e-05
2.1926536e-05
-1.8028932e-05
2.9335912e-05
-1.8624657e-05
3.6845708e-05
-1.9382839e-05
4.4567848e-05
-2.0278787e-05
5.2381173e-05
-2.1358885e-05
6.0171283e-05
-2.2565885e-05
6.8073341e-05
-2.3765412e-05
7.6167837e-05
-2.4989559e-05
8.4479993e-05
-2.6097673e-05
9.2843733e-05
-2.7166648e-05
0.00010136046
-2.8085556e-05
0.00011001362
-2.8832298e-05
0.00011874695
-2.9394441e-05
0.00012748067
-2.9741086e-05
0.00013618484
-2.9914601e-05
0.0001447637
-2.9788623e-05
0.00015311646
-2.9368892e-05
0.00016119902
-2.8676125e-05
0.00016888832
-2.7676593e-05
0.00017608984
-2.6359345e-05
0.00018270148
-2.4738339e-05
0.00018862451
-2.2810621e-05
0.00019376499
-2.0579091e-05
0.0001980313
-1.8051934e-05
0.00020134392
-1.5234966e-05
0.00020364032
-1.2134161e-05
0.0002048816
-8.7629777e-06
0.00020504027
-5.1472955e-06
0.00020410753
-1.3104162e-06
0.00020211293
2.7012817e-06
0.00019888622
6.7858649e-06
0.00019464405
1.1034826e-05
0.0001895292
1.5330476e-05
0.00018322746
1.9499203e-05
0.00017589668
2.3562317e-05
0.00016759438
2.7491354e-05
0.00015830843
3.1215361e-05
0.00014795993
3.4697183e-05
0.00013684311
3.8011113e-05
0.00012482208
4.1024238e-05
0.00011204609
4.3797362e-05
9.8635927e-05
4.6319126e-05
8.4626925e-05
4.8525402e-05
7.0128234e-05
5.0433035e-05
5.5194067e-05
5.2013924e-05
3.9869156e-05
5.3262801e-05
2.4331384e-05
5.4203349e-05
5.4861505e-05
-2.4878815e-05
7.11045e-05
-4.074627e-05
7.0227297e-05
-5.6346902e-05
6.9014921e-05
-7.1626382e-05
6.738748e-05
-8.6469748e-05
6.5366838e-05
-0.00010079078
6.2918273e-05
-0.00011450829
6.0076184e-05
-0.00012754889
5.6888806e-05
-0.00013982322
5.3353679e-05
-0.00015123065
4.9465533e-05
-0.00016176114
4.5261268e-05
-0.00017129683
4.0780428e-05
-0.00017981024
3.6033147e-05
-0.00018727552
3.1056303e-05
-0.00019363914
2.5896737e-05
-0.00019892769
2.0637449e-05
-0.00020312869
1.5256374e-05
-0.00020621664
9.8909961e-06
-0.00020812352
4.6237978e-06
-0.00020887947
-5.4019938e-07
-0.00020850341
-5.5104766e-06
-0.00020701696
-1.0239105e-05
-0.0002044534
-1.468885e-05
-0.00020086228
-1.8819651e-05
-0.00019630876
-2.2602473e-05
-0.00019087313
-2.6014229e-05
-0.00018464736
-2.903709e-05
-0.00017773
-3.1657671e-05
-0.00017022196
-3.3869699e-05
-0.00016221566
-3.5682771e-05
-0.00015385323
-3.7038328e-05
-0.00014519454
-3.8028652e-05
-0.0001363651
-3.861786e-05
-0.00012743892
-3.8831681e-05
-0.00011843027
-3.8758867e-05
-0.00010948427
-3.8346951e-05
-0.00010064712
-3.7677125e-05
-9.1960975e-05
-3.6776757e-05
-8.3445941e-05
-3.5684498e-05
-7.5104133e-05
-3.4440521e-05
-6.6992698e-05
-3.3101581e-05
-5.8999216e-05
-3.1759994e-05
-5.1193985e-05
-3.0373929e-05
-4.3519272e-05
-2.9034391e-05
-3.5981868e-05
-2.7813213e-05
-2.8604255e-05
-2.6755206e-05
-2.1350199e-05
-2.5873717e-05
-1.4189141e-05
-2.5189766e-05
-7.0867447e-06
-2.472108e-05
-1.2443337e-08
-2.4483924e-05
7.0625821e-06
-2.4483896e-05
1.4166507e-05
-2.4720746e-05
2.133012e-05
-2.5188591e-05
2.8578468e-05
-2.5873366e-05
3.5951067e-05
-2.6752647e-05
4.3484785e-05
-2.7810941e-05
5.1162339e-05
-2.9030965e-05
5.8964426e-05
-3.0373508e-05
6.6960453e-05
-3.1759632e-05
7.5067533e-05
-3.3101623e-05
8.3415223e-05
-3.4435583e-05
9.1928359e-05
-3.5680104e-05
0.00010061536
-3.6774563e-05
0.00010945417
-3.7675861e-05
0.00011840286
-3.8348298e-05
0.00012743033
-3.8767092e-05
0.00013633973
-3.8823742e-05
0.00014516063
-3.861752e-05
0.00015381848
-3.8029463e-05
0.00016219143
-3.7040707e-05
0.0001701993
-3.5678014e-05
0.00017770887
-3.3871598e-05
0.00018462741
-3.1662421e-05
0.00019085387
-2.9043381e-05
0.00019628999
-2.6021013e-05
0.00020084585
-2.2609474e-05
0.00020444212
-1.8827777e-05
0.00020700854
-1.4699274e-05
0.00020849558
-1.0250413e-05
0.00020887316
-5.5233052e-06
0.00020811675
-5.5685994e-07
0.00020621134
4.6052492e-06
0.0002031308
9.8712152e-06
0.00019893608
1.5232265e-05
0.00019366213
2.060627e-05
0.00018728953
2.5873803e-05
0.00017982517
3.1027624e-05
0.00017131586
3.600076e-05
0.00016178589
4.0743525e-05
0.00015126162
4.5218395e-05
0.0001398563
4.9415597e-05
0.00012759102
5.3291109e-05
0.0001145664
5.6820208e-05
0.00010083973
6.0048587e-05
8.6527211e-05
6.2840792e-05
7.1709295e-05
6.5250158e-05
5.6440374e-05
6.7287794e-05
4.0819005e-05
6.8882751e-05
2.4944867e-05
7.007931e-05
7.0910961e-05
-2.5678821e-05
8.7573937e-05
-4.196134e-05
8.6510946e-05
-5.7971771e-05
8.5022501e-05
-7.3636301e-05
8.3048046e-05
-8.8840603e-05
8.0565736e-05
-0.00010354129
7.7615499e-05
-0.00011766527
7.4199755e-05
-0.00013107526
7.0299198e-05
-0.00014370343
6.598081e-05
-0.00015543104
6.1189172e-05
-0.0001662395
5.606459e-05
-0.00017604148
5.0579731e-05
-0.00018478515
4.4776869e-05
-0.00019243394
3.8705309e-05
-0.00019895601
3.2417564e-05
-0.00020430505
2.5983508e-05
-0.00020849019
1.9437368e-05
-0.000211486
1.2883429e-05
-0.00021328173
6.4187201e-06
-0.00021384244
2.1302342e-08
-0.00021322981
-6.1234402e-06
-0.00021146331
-1.2008261e-05
-0.00020858162
-1.7574319e-05
-0.0002046427
-2.2761819e-05
-0.00019971833
-2.7528907e-05
-0.00019389399
-3.1839681e-05
-0.00018726634
-3.5665518e-05
-0.0001799404
-3.898477e-05
-0.00017202932
-4.1782691e-05
-0.00016366428
-4.4049791e-05
-0.00015484736
-4.5855688e-05
-0.00014579509
-4.7079678e-05
-0.00013658774
-4.7824091e-05
-0.00012729205
-4.8126909e-05
-0.0001180202
-4.8030505e-05
-0.00010881716
-4.7551154e-05
-9.9750191e-05
-4.6746302e-05
-9.0873515e-05
-4.5653491e-05
-8.221516e-05
-4.4340452e-05
-7.3775696e-05
-4.2879171e-05
-6.5555755e-05
-4.1321942e-05
-5.7597558e-05
-3.9718103e-05
-4.9853089e-05
-3.8119243e-05
-4.2297551e-05
-3.6587494e-05
-3.4923474e-05
-3.5182833e-05
-2.7722553e-05
-3.3952464e-05
-2.066611e-05
-3.292711e-05
-1.3720341e-05
-3.2134549e-05
-6.8492927e-06
-3.1594041e-05
-1.243387e-08
-3.1318775e-05
6.8259543e-06
-3.1316857e-05
1.369911e-05
-3.1589899e-05
2.0645781e-05
-3.2130257e-05
2.7699458e-05
-3.2927009e-05
3.4892849e-05
-3.3951124e-05
4.226462e-05
-3.5183013e-05
4.981897e-05
-3.6585019e-05
5.7563496e-05
-3.8117078e-05
6.552396e-05
-3.9713876e-05
7.3742758e-05
-4.1320275e-05
8.2184988e-05
-4.2877966e-05
9.0839002e-05
-4.4339615e-05
9.9717683e-05
-4.5656697e-05
0.00010878453
-4.6745278e-05
0.00011798616
-4.7550623e-05
0.00012725095
-4.8031643e-05
0.00013655527
-4.8125349e-05
0.00014576245
-4.7825488e-05
0.00015480977
-4.7084939e-05
0.00016362038
-4.5858671e-05
0.00017200002
-4.4059201e-05
0.00017991655
-4.1787131e-05
0.00018724498
-3.8988545e-05
0.00019387431
-3.5670524e-05
0.00019969931
-3.1846194e-05
0.00020462497
-2.753668e-05
0.00020856771
-2.2771125e-05
0.00021145361
-1.7586325e-05
0.00021322
-1.2023717e-05
0.00021383128
-6.139927e-06
0.00021327247
8.0486431e-10
0.00021147855
6.397512e-06
0.00020848757
1.286114e-05
0.00020430489
1.9412113e-05
0.00019895748
2.5951321e-05
0.00019244194
3.2385851e-05
0.0001847961
3.8670759e-05
0.00017605557
4.4739209e-05
0.00016625774
5.0536315e-05
0.00015545336
5.6018808e-05
0.00014372283
6.1145434e-05
0.00013110727
6.5903319e-05
0.00011769206
7.0226561e-05
0.00010360779
7.4124528e-05
8.8923372e-05
7.7525637e-05
7.3678571e-05
8.0492252e-05
5.8031511e-05
8.2934114e-05
4.2012813e-05
8.4896058e-05
2.5699992e-05
8.6389745e-05
8.7386601e-05
-2.6571829e-05
0.00010454298
-4.3408487e-05
0.0001033451
-5.993709e-05
0.00010154802
-7.6125037e-05
9.923062e-05
-9.1867432e-05
9.6303865e-05
-0.00010705212
9.2798844e-05
-0.00012158255
8.8730335e-05
-0.00013539546
8.4111441e-05
-0.00014836367
7.8945115e-05
-0.00016054306
7.3362294e-05
-0.00017171833
6.7235201e-05
-0.00018184051
6.070057e-05
-0.00019085388
5.3790511e-05
-0.00019871906
4.6570414e-05
-0.00020539221
3.9089204e-05
-0.00021082807
3.1416198e-05
-0.00021503237
2.3638285e-05
-0.00021795154
1.5801084e-05
-0.00021955177
8.0192716e-06
-0.00021996775
4.3727094e-07
-0.00021911067
-6.9821645e-06
-0.00021702419
-1.4097075e-05
-0.00021376601
-2.0834099e-05
-0.000209407
-2.7121496e-05
-0.00020402668
-3.2909602e-05
-0.00019771781
-3.8149114e-05
-0.00019058404
-4.2799954e-05
-0.00018273689
-4.683234e-05
-0.00017429127
-5.0228424e-05
-0.00016535712
-5.2984181e-05
-0.0001560879
-5.5125268e-05
-0.00014655977
-5.6608082e-05
-0.00013690293
-5.7481889e-05
-0.00012719557
-5.7836046e-05
-0.00011754497
-5.7682221e-05
-0.00010801707
-5.7079759e-05
-9.8664097e-05
-5.6101273e-05
-8.9600363e-05
-5.4718777e-05
-8.0756569e-05
-5.3182817e-05
-7.2205733e-05
-5.1428195e-05
-6.3953658e-05
-4.9573353e-05
-5.5998546e-05
-4.7672522e-05
-4.8320891e-05
-4.5797327e-05
-4.0893047e-05
-4.4014884e-05
-3.3693171e-05
-4.2379527e-05
-2.669715e-05
-4.0944932e-05
-1.987336e-05
-3.9750274e-05
-1.3179486e-05
-3.8826502e-05
-6.5734568e-06
-3.8198594e-05
-1.032066e-08
-3.7880499e-05
6.5527983e-06
-3.787759e-05
1.3158906e-05
-3.81951e-05
1.9849389e-05
-3.8822384e-05
2.6675754e-05
-3.9748495e-05
3.3661453e-05
-4.0944993e-05
4.0863097e-05
-4.238089e-05
4.8286902e-05
-4.4014628e-05
5.5966935e-05
-4.5796322e-05
6.3919724e-05
-4.7671169e-05
7.2173197e-05
-4.957023e-05
8.072516e-05
-5.1426606e-05
8.9568723e-05
-5.3186235e-05
9.8636201e-05
-5.4727381e-05
0.00010798429
-5.6092531e-05
0.00011750934
-5.7079372e-05
0.00012715759
-5.7685557e-05
0.00013686626
-5.784054e-05
0.00014652293
-5.7487064e-05
0.00015605433
-5.6612879e-05
0.00016533221
-5.5127613e-05
0.00017426704
-5.2989064e-05
0.00018271365
-5.0235713e-05
0.00019056135
-4.6841359e-05
0.00019769654
-4.2810063e-05
0.00020400636
-3.8161007e-05
0.00020938764
-3.2922503e-05
0.00021374921
-2.7135412e-05
0.00021701069
-2.0850406e-05
0.00021909946
-1.411575e-05
0.00021995977
-7.0029964e-06
0.00021954214
4.1654295e-07
0.00021794245
7.9943143e-06
0.00021502657
1.5772913e-05
0.00021082682
2.3607128e-05
0.00020539284
3.1383623e-05
0.00019872389
3.9054265e-05
0.00019086138
4.6533364e-05
0.00018184862
5.3749202e-05
0.00017173382
6.0644726e-05
0.00016056571
6.7181607e-05
0.00014842792
7.3283702e-05
0.0001354368
7.8896042e-05
0.00012162338
8.4040293e-05
0.00010709389
8.8653898e-05
9.1904567e-05
9.2712367e-05
7.6185579e-05
9.6215037e-05
5.9990296e-05
9.912191e-05
4.3452068e-05
0.00010143447
2.6619468e-05
0.00010321509
0.00010438173
-2.7694251e-05
0.00012214742
-4.5031569e-05
0.00012067955
-6.2247533e-05
0.00011875897
-7.9049663e-05
0.00011602791
-9.5372036e-05
0.00011262342
-0.00011112221
0.00010854793
-0.00012620253
0.00010380989
-0.00014056962
9.8475373e-05
-0.00015408672
9.2456214e-05
-0.00016664408
8.5913835e-05
-0.00017821892
7.880672e-05
-0.00018874277
7.1223298e-05
-0.00019807019
6.3118026e-05
-0.00020619673
5.4697205e-05
-0.00021306277
4.5954382e-05
-0.00021862588
3.6977362e-05
-0.00022284742
2.7858196e-05
-0.0002257301
1.8683057e-05
-0.00022725519
9.54366e-06
-0.00022739844
5.7933026e-07
-0.00022622055
-8.1607052e-06
-0.00022374774
-1.6569144e-05
-0.00022004967
-2.4530804e-05
-0.00021519188
-3.1978722e-05
-0.00020926353
-3.8838462e-05
-0.00020236662
-4.5046567e-05
-0.00019461511
-5.0551063e-05
-0.00018613219
-5.531401e-05
-0.0001770464
-5.9313348e-05
-0.00016749162
-6.2540214e-05
-0.00015757831
-6.5042117e-05
-0.00014747426
-6.6715764e-05
-0.00013725215
-6.7706249e-05
-0.00012704467
-6.8045279e-05
-0.00011694853
-6.7780118e-05
-0.00010704804
-6.6981514e-05
-9.7456506e-05
-6.5694333e-05
-8.8036286e-05
-6.4139994e-05
-7.9007392e-05
-6.2210117e-05
-7.0345717e-05
-6.0088407e-05
-6.2055947e-05
-5.786421e-05
-5.4126596e-05
-5.5604294e-05
-4.6537458e-05
-5.3388129e-05
-3.9258094e-05
-5.1294848e-05
-3.2258845e-05
-4.9378311e-05
-2.5502529e-05
-4.769771e-05
-1.8949422e-05
-4.6302387e-05
-1.255115e-05
-4.522492e-05
-6.2546347e-06
-4.4491491e-05
-7.3891146e-09
-4.4122929e-05
6.2350109e-06
-4.41223e-05
1.253159e-05
-4.4492942e-05
1.892357e-05
-4.5226222e-05
2.5479722e-05
-4.6301092e-05
3.222624e-05
-4.769773e-05
3.9230082e-05
-4.9375779e-05
4.6504549e-05
-5.1293841e-05
5.409563e-05
-5.3386345e-05
6.2024147e-05
-5.5605409e-05
7.0312779e-05
-5.7865605e-05
7.8970763e-05
-6.0087971e-05
8.7992724e-05
-6.2206668e-05
9.7393197e-05
-6.4130304e-05
0.00010700724
-6.5704879e-05
0.0001169097
-6.6983508e-05
0.00012700557
-6.7782349e-05
0.00013721593
-6.8049609e-05
0.00014744031
-6.7714059e-05
0.00015754718
-6.6723887e-05
0.00016746479
-6.5049434e-05
0.00017701994
-6.2547715e-05
0.00018610698
-5.9321464e-05
0.00019459112
-5.5322242e-05
0.00020234345
-5.0559139e-05
0.00020924214
-4.5056419e-05
0.0002151715
-3.8851743e-05
0.00022003047
-3.1994121e-05
0.00022372979
-2.4548289e-05
0.00022620692
-1.6591625e-05
0.00022738444
-8.1825316e-06
0.00022724176
5.5130673e-07
0.0002257177
9.5089468e-06
0.00022283596
1.8647419e-05
0.0002186182
2.7819954e-05
0.00021306051
3.6938735e-05
0.00020619895
4.5913735e-05
0.00019807257
5.4655667e-05
0.00018873619
6.3081574e-05
0.00017822219
7.1155334e-05
0.0001666584
7.8739404e-05
0.00015408973
8.58464e-05
0.00014058524
9.2396226e-05
0.00012623831
9.8382763e-05
0.00011115265
0.00010373399
9.540536e-05
0.00010846045
7.9091347e-05
0.00011252692
6.2299714e-05
0.00011591849
4.5098904e-05
0.00011863355
2.7740136e-05
0.00012057141
0.00012199545
-2.9005223e-05
0.00014046646
-4.7167129e-05
0.00013883651
-6.4978841e-05
0.00013656601
-8.2442966e-05
0.00013348803
-9.9443064e-05
0.00012962047
-0.00011585716
0.00012495997
-0.00013159122
0.00011954097
-0.00014652907
0.00011340815
-0.00016063132
0.00010655274
-0.00017375613
9.9033843e-05
-0.00018581869
9.0865815e-05
-0.00019670223
8.2105236e-05
-0.00020648144
7.2897581e-05
-0.00021493379
6.315042e-05
-0.00022203519
5.3055709e-05
-0.00022774313
4.2684267e-05
-0.00023202035
3.2133893e-05
-0.00023485822
2.1518989e-05
-0.00023622206
1.0905715e-05
-0.00023612865
4.8581031e-07
-0.00023461963
-9.667469e-06
-0.0002317059
-1.9479791e-05
-0.00022749289
-2.874221e-05
-0.0002220479
-3.742412e-05
-0.00021546867
-4.5418367e-05
-0.00020786904
-5.2645346e-05
-0.00019937694
-5.9041117e-05
-0.00019013104
-6.4558769e-05
-0.00018027779
-6.9168054e-05
-0.0001699484
-7.2873701e-05
-0.00015930498
-7.569064e-05
-0.00014846709
-7.7557252e-05
-0.00013759761
-7.8576829e-05
-0.00012678595
-7.885772e-05
-0.00011616016
-7.8408121e-05
-0.00010581425
-7.7328942e-05
-9.5739011e-05
-7.5769176e-05
-8.6109387e-05
-7.3768533e-05
-7.6892431e-05
-7.1426348e-05
-6.8121793e-05
-6.8862329e-05
-5.9800217e-05
-6.6192817e-05
-5.1916021e-05
-6.3495802e-05
-4.4442402e-05
-6.0864057e-05
-3.7342172e-05
-5.8391376e-05
-3.0578775e-05
-5.6139615e-05
-2.4107398e-05
-5.4168033e-05
-1.7871856e-05
-5.2536383e-05
-1.1817284e-05
-5.1281629e-05
-5.8851782e-06
-5.0426355e-05
-6.5741176e-09
-4.999502e-05
5.8639271e-06
-4.9996735e-05
1.1798181e-05
-5.0426836e-05
1.7849074e-05
-5.1283387e-05
2.4083764e-05
-5.2536409e-05
3.0549162e-05
-5.4168143e-05
3.7313031e-05
-5.6139238e-05
4.4410644e-05
-5.8390558e-05
5.1882452e-05
-6.0862358e-05
5.9768451e-05
-6.3492483e-05
6.8090817e-05
-6.6189989e-05
7.685949e-05
-6.8862529e-05
8.6072455e-05
-7.1425088e-05
9.5708521e-05
-7.3765889e-05
0.00010577599
-7.5770637e-05
0.00011612154
-7.7334527e-05
0.00012674519
-7.8411664e-05
0.00013755836
-7.8861585e-05
0.00014843025
-7.8581752e-05
0.00015927824
-7.7568165e-05
0.00016991793
-7.5687317e-05
0.0001802489
-7.2879226e-05
0.00019010552
-6.9177443e-05
0.00019935289
-6.456953e-05
0.00020784394
-5.9053897e-05
0.00021544381
-5.2659585e-05
0.00022202542
-4.543578e-05
0.00022747164
-3.744562e-05
0.00023168659
-2.8768052e-05
0.0002346061
-1.9515156e-05
0.00023610775
-9.6929962e-06
0.00023620164
4.4858295e-07
0.00023484451
1.0862739e-05
0.00023200897
2.1480303e-05
0.00022773437
3.2089392e-05
0.00022203056
4.2636441e-05
0.00021493491
5.3005217e-05
0.00020648796
6.3096132e-05
0.00019673823
7.2828725e-05
0.00018583464
8.2059463e-05
0.00017377085
9.0803807e-05
0.00016064177
9.8967897e-05
0.00014655109
0.00010648075
0.00013160477
0.00011332905
0.00011587562
0.00011945975
9.9467039e-05
0.00012487212
8.2475089e-05
0.00012951424
6.5003879e-05
0.00013338758
4.7185782e-05
0.00013645242
2.9031147e-05
0.00013872073
0.00014033453
-3.0480718e-05
0.00015959478
-4.943575e-05
0.00015778732
-6.80524e-05
0.00015517861
-8.6275876e-05
0.00015170703
-0.00010407966
0.00014742035
-0.00012122057
0.00014209706
-0.00013769655
0.00013601254
-0.00015337065
0.0001290776
-0.00016814782
0.00012132503
-0.0001819168
0.00011279763
-0.00019457584
0.0001035208
-0.00020604667
9.3574716e-05
-0.00021619583
8.3047489e-05
-0.00022501628
7.1971609e-05
-0.00023239959
6.0438439e-05
-0.0002382878
4.8570432e-05
-0.00024263602
3.6478998e-05
-0.0002454005
2.428057e-05
-0.00024663652
1.2140928e-05
-0.00024625377
1.050479e-07
-0.00024432147
-1.1596693e-05
-0.00024096905
-2.2830495e-05
-0.00023616874
-3.3542782e-05
-0.00023003781
-4.3555636e-05
-0.00022269232
-5.2762921e-05
-0.0002142627
-6.107265e-05
-0.0002048938
-6.8408484e-05
-0.00019474095
-7.4712807e-05
-0.00018397099
-7.9941492e-05
-0.00017275138
-8.4096854e-05
-0.00016128798
-8.7156113e-05
-0.0001495824
-8.926365e-05
-0.00013789314
-9.0266364e-05
-0.00012634848
-9.0402751e-05
-0.00011514006
-8.9617468e-05
-0.0001042147
-8.8254055e-05
-9.3742618e-05
-8.6240086e-05
-8.377487e-05
-8.3737651e-05
-7.4337343e-05
-8.0867894e-05
-6.5453558e-05
-7.775359e-05
-5.7108863e-05
-7.4544867e-05
-4.9291004e-05
-7.1318383e-05
-4.1968405e-05
-6.8188857e-05
-3.5091736e-05
-6.5265216e-05
-2.86086e-05
-6.2619664e-05
-2.2476866e-05
-6.0301218e-05
-1.6617711e-05
-5.8395078e-05
-1.0962403e-05
-5.6933609e-05
-5.4530483e-06
-5.5942681e-05
-7.8317981e-09
-5.54398e-05
5.4338607e-06
-5.5441217e-05
1.0942176e-05
-5.5939938e-05
1.6597366e-05
-5.6933492e-05
2.2453621e-05
-5.839419e-05
2.8580161e-05
-6.0289986e-05
3.5063683e-05
-6.2630158e-05
4.1937863e-05
-6.5266908e-05
4.9259512e-05
-6.8187381e-05
5.7076984e-05
-7.1313643e-05
6.5420063e-05
-7.453935e-05
7.4306403e-05
-7.7748528e-05
8.3739768e-05
-8.0865194e-05
9.3708463e-05
-8.373581e-05
0.00010417871
-8.6238872e-05
0.00011509794
-8.8252152e-05
0.00012630781
-8.9617774e-05
0.00013785302
-9.0403935e-05
0.00014953968
-9.0268137e-05
0.00016123098
-8.9260374e-05
0.00017271296
-8.7170403e-05
0.00018393956
-8.4106775e-05
0.00019471393
-7.9952229e-05
0.00020486758
-7.4724241e-05
0.00021423601
-6.8423139e-05
0.00022266417
-6.1089024e-05
0.00023001115
-5.2780653e-05
0.00023614302
-4.3578694e-05
0.00024093948
-3.35718e-05
0.00024427718
-2.2857855e-05
0.00024622495
-1.1643087e-05
0.00024661021
6.3663665e-08
0.00024537172
1.2102112e-05
0.00024261739
2.4232326e-05
0.00023827521
3.642997e-05
0.00023239179
4.8517848e-05
0.00022501243
6.0382004e-05
0.00021619362
7.1907705e-05
0.00020603166
8.2984748e-05
0.00019457508
9.3513013e-05
0.00018192786
0.00010345365
0.00016815054
0.00011274463
0.00015338341
0.00012124742
0.00013770822
0.00012899944
0.00012123919
0.00013593414
0.00010408784
0.0001420204
8.6306406e-05
0.00014729615
6.8072815e-05
0.00015161247
4.9449493e-05
0.00015507709
3.0497235e-05
0.00015767296
0.00015946948
-3.2145937e-05
0.00017964742
-5.1951435e-05
0.00017758944
-7.1533373e-05
0.0001747562
-9.0700529e-05
0.00017086937
-0.00010929858
0.00016601358
-0.00012735138
0.00016014564
-0.00014465563
0.00015331351
-0.00016112178
0.00014554016
-0.0001766634
0.00013686146
-0.00019115062
0.00012727936
-0.00020450945
0.00011687638
-0.00021658214
0.00010564685
-0.00022728288
9.3748459e-05
-0.00023652641
8.1214192e-05
-0.00024425209
6.8161359e-05
-0.00025037043
5.4684744e-05
-0.00025482683
4.0931625e-05
-0.00025758989
2.7041893e-05
-0.00025865814
1.3209838e-05
-0.00025797207
-5.7965576e-07
-0.00025564296
-1.3925648e-05
-0.00025167307
-2.6801372e-05
-0.0002461744
-3.9041739e-05
-0.00023924006
-5.0488398e-05
-0.00023099827
-6.1002296e-05
-0.00022159638
-7.0473241e-05
-0.00021119772
-7.8807699e-05
-0.0001999725
-8.593939e-05
-0.00018812479
-9.1789631e-05
-0.0001758015
-9.6419191e-05
-0.00016324121
-9.9715233e-05
-0.00015059587
-0.00010190897
-0.00013805846
-0.0001028046
-0.00012580594
-0.00010265484
-0.00011373451
-0.00010168739
-0.00010220726
-9.9780046e-05
-9.1248803e-05
-9.7199621e-05
-8.0915921e-05
-9.4076805e-05
-7.1237778e-05
-9.0553036e-05
-6.2244268e-05
-8.6752567e-05
-5.3891168e-05
-8.2900014e-05
-4.6169271e-05
-7.9038365e-05
-3.9048086e-05
-7.5309903e-05
-3.2456063e-05
-7.1860334e-05
-2.6337437e-05
-6.8739845e-05
-2.0586555e-05
-6.6052931e-05
-1.5159162e-05
-6.3825889e-05
-9.9718808e-06
-6.2115713e-05
-4.9493102e-06
-6.0964662e-05
-1.0173266e-08
-6.0384189e-05
4.9338298e-06
-6.0384314e-05
9.9483425e-06
-6.0964816e-05
1.5139259e-05
-6.2116755e-05
2.0568613e-05
-6.382748e-05
2.6338665e-05
-6.6060764e-05
3.2439167e-05
-6.8731053e-05
3.9021407e-05
-7.1855407e-05
4.6141738e-05
-7.5307414e-05
5.3860691e-05
-7.9030168e-05
6.2210827e-05
-8.2895213e-05
7.1205145e-05
-8.6746721e-05
8.0880337e-05
-9.0547216e-05
9.1214412e-05
-9.4069995e-05
0.00010217243
-9.7194468e-05
0.00011369637
-9.9777666e-05
0.00012576477
-0.00010168571
0.00013801857
-0.00010265243
0.00015055925
-0.00010280317
0.00016321064
-0.00010190603
0.00017576756
-9.9720413e-05
0.00018809279
-9.6425531e-05
0.00019994492
-9.1799993e-05
0.00021116822
-8.5946121e-05
0.0002215678
-7.8821332e-05
0.00023096862
-7.0493154e-05
0.00023920794
-6.1027297e-05
0.00024614266
-5.0517045e-05
0.00025164474
-3.9073875e-05
0.00025562108
-2.6836499e-05
0.00025794531
-1.3968585e-05
0.00025863436
-6.2441773e-07
0.00025757172
1.3162109e-05
0.00025480701
2.6988516e-05
0.00025035385
4.0877629e-05
0.00024423943
5.4628096e-05
0.0002365182
6.8098688e-05
0.00022727221
8.1148279e-05
0.00021657111
9.3681492e-05
0.00020450271
0.00010558009
0.00019114487
0.00011680429
0.00017667307
0.00012721395
0.00016113445
0.00013678434
0.00014466827
0.00014546052
0.00012736553
0.00015323155
0.00010931775
0.0001600618
9.0696864e-05
0.0001659178
7.1548259e-05
0.0001707749
5.1959101e-05
0.00017465014
3.2154359e-05
0.00017748567
0.00017953828
-3.4016358e-05
0.0002007213
-5.4895465e-05
0.00019846534
-7.5415599e-05
0.00019527233
-9.5546152e-05
0.0001909952
-0.00011515208
0.00018561557
-0.00013416467
0.00017915616
-0.00015242309
0.00017157014
-0.00016982704
0.00016294034
-0.00018624633
0.00015327556
-0.00020155552
0.00014258464
-0.00021567693
0.00013099632
-0.00022846707
0.0001184365
-0.00023980762
0.00010508733
-0.0002495915
9.099437e-05
-0.00025770195
7.6266942e-05
-0.00026410584
6.1084513e-05
-0.00026870181
4.5525684e-05
-0.00027141862
2.9758552e-05
-0.00027221036
1.4001076e-05
-0.00027131044