/*--------------------------------*- C++ -*----------------------------------*\
  =========                 |
  \\      /  F ield         | OpenFOAM: The Open Source CFD Toolbox
   \\    /   O peration     | Website:  https://openfoam.org
    \\  /    A nd           | Version:  9
     \\/     M anipulation  |
\*---------------------------------------------------------------------------*/
FoamFile
{
    format      ascii;
    class       volScalarField;
    location    "36";
    object      p;
}
// * * * * * * * * * * * * * * * * * * * * * * * * * * * * * * * * * * * * * //

dimensions      [0 2 -2 0 0 0 0];

internalField   nonuniform List<scalar> 
918
(
0.53248957
1.7839606
0.012800011
0.50616896
-0.0088598643
1.7546308
-0.9149351
1.2784379
0.55786082
-0.167039
-0.052690632
0.70581884
1.6260086
1.3848131
-0.67561454
-0.02482229
1.1131136
-0.75404894
0.56391917
-0.066923407
1.3684995
0.50330139
0.52983973
0.50381271
0.87268345
1.3501315
1.4890997
0.0061670673
0.001319527
-0.012227818
-0.0054853537
-0.05321393
-0.036010051
1.6309071
1.6849282
1.7086128
0.51739991
0.58312849
-0.71566154
-0.79438741
-0.78753437
-0.9912626
1.2621584
1.2535862
-0.3803229
1.2890909
1.3028131
0.51511247
0.55392276
0.56589744
0.49926022
0.53148937
0.54674853
0.47988628
-0.18121293
-0.2417815
-0.12407331
-0.10546662
0.064495349
-0.045998963
-0.049694871
-0.04274551
-0.039097493
0.5210719
0.68135549
0.65912072
0.72322134
0.75752993
1.7210565
1.6845022
1.7114787
1.6582991
1.6486043
1.6058433
1.5689883
1.423887
1.4314012
1.3819037
1.3449192
-1.2026131
-2.2402869
-0.10038672
0.20278525
-0.0052111991
-0.008829642
0.0043492568
1.0909106
1.0758499
1.1345973
1.1591969
1.2960131
-0.70388397
-0.95176973
0.56728862
0.56287327
0.54811223
0.52987085
0.5765742
0.62175884
-0.047797264
-0.043880518
-0.080690005
-0.06095454
-0.064310814
1.3503218
1.3456817
0.51833195
0.5227045
0.77568142
0.83278397
0.81239942
0.34499282
0.88474035
0.90093808
1.1649631
1.3521439
1.3582915
1.3421281
1.4754023
1.4309224
1.5357222
1.5612776
0.027272041
0.0022366748
-0.0090558644
-0.02758183
-0.0081891144
0.52596955
0.52321321
0.57174774
0.51919515
0.52527209
0.52735137
0.38707464
0.67061454
0.68840548
-0.57635137
-0.62747583
-0.82101636
-0.84380442
-1.0180628
0.92122594
1.236463
1.2240888
-0.44047711
-0.32201799
-0.4904806
-0.23392998
-0.27870241
0.52211673
0.52632191
0.52211084
0.51770207
0.51885126
0.520197
0.54334896
0.54207115
0.5579365
0.5511136
0.69149818
0.42751193
0.37173277
-0.4623272
-0.27244121
-0.44421158
-0.087111513
-0.077154377
0.090737577
0.13942456
0.068410123
0.065773677
-0.066302224
-0.053149552
-0.060365505
-0.040161808
-0.037540914
0.51137188
0.50718757
0.52183959
0.52731257
0.60716822
0.61380439
0.64075304
0.62878842
1.4949699
1.5186254
1.5633066
1.5262242
-3.6248329
-6.2985723
0.52656601
0.70512196
-0.009609563
-0.0089511647
0.004230324
-0.00043803047
0.00064708296
-0.009605277
0.022701671
0.015496064
0.0075818464
0.014915663
1.0428908
1.0268661
1.2436365
1.2808757
1.1606719
1.1504508
0.57212781
0.56910765
0.57572837
0.56696304
-0.039198876
-0.040794149
-0.036637639
1.3122219
1.3350321
1.3253822
0.26019669
0.16885204
0.38750076
0.43095685
0.99349602
0.94053368
0.97405278
1.2387028
1.2718824
1.5507127
1.5627287
1.600641
1.5973915
1.6456746
1.6379849
1.5964696
0.5217882
0.52437116
0.52818425
0.56915342
0.57342886
0.57337771
0.59370417
0.58539794
0.58613871
0.22211448
-0.11459033
0.75583566
0.75255407
0.7341924
0.72653788
0.99388348
1.0819481
1.1705213
1.2043867
1.1920853
-0.13202169
-0.1555191
0.30279962
0.27643176
0.45532444
0.49025781
0.48065801
1.4690458
1.4692445
1.5157404
1.4779498
1.4192907
1.4421326
-0.14065075
-1.2991094
-0.68740921
1.0998633
0.88435772
0.98655781
0.02667656
0.025036105
0.0034238803
1.2530545
1.3156651
0.75129093
1.0009657
1.0024549
1.3175466
1.3398204
1.4121457
1.3387824
1.3645809
1.3879788
1.370879
0.87194889
0.78629849
0.80558797
1.127817
1.1799121
0.089938033
-0.023210586
-0.029673733
0.15064195
0.20824205
0.17455144
1.2837459
1.2228735
1.2929049
0.52976026
0.52214805
0.00041792797
0.0048191129
0.56900187
0.5445489
-0.025841647
-0.0048625621
0.96395614
-0.41775985
0.10128584
0.57703568
0.53921194
0.54772153
-0.16068252
0.44283868
-0.041452516
0.066716492
0.00199219
0.68816417
0.54268788
0.51008259
-0.0072290213
-0.031441632
-0.039040528
-0.37902186
0.53686514
0.5154159
0.53607591
0.51845414
0.55247182
-0.021242212
-0.015333081
-0.0062068559
-0.043359231
-0.038858032
-0.050493442
0.53289583
0.58995307
-0.31158616
0.55376803
0.5433092
0.55864492
0.52547489
0.58156264
0.53635675
-0.010132356
-0.01088479
-0.0035722944
0.28538331
0.44628387
1.2730982
1.4078824
1.3035515
0.91779987
0.59132198
1.1336496
1.2274422
1.0978433
1.2653731
1.2295165
1.2755554
0.19216227
-0.028831867
0.21730987
0.10590293
0.57177657
0.57491876
0.53415727
0.52730323
0.55541416
0.52774349
0.55804145
0.56359882
0.56194009
0.5769612
-0.088943848
-0.12410653
-0.15482354
-0.24182627
0.45675918
0.73312543
0.35632997
0.39505964
0.19335942
-0.034540467
-0.040367397
-0.038888427
-0.052555579
0.033887417
-0.028676862
0.087042221
0.082415854
0.056600197
0.0068531138
0.00035424513
-0.025651657
0.015852369
0.64156811
0.62689675
0.68359528
0.72987168
0.53801806
0.52594917
0.51686856
0.54139838
0.51985407
0.45449453
0.51220392
0.47355482
-0.01159652
-0.011517966
-0.012459665
-0.017571359
0.00045379569
-0.015718027
-0.021384449
-0.019490853
-0.02085731
-0.027533666
-0.03822902
-0.039357649
-0.33374757
-0.49645616
1.1990277
1.0578217
0.2425692
0.51178077
0.5137444
0.49892284
0.54375711
0.53175489
0.53404604
0.53370062
0.53002247
0.54254945
0.54849748
0.58731413
0.59641272
-0.2300012
-0.44660654
-0.20398365
-0.29153629
0.45050738
1.0072545
0.45556117
0.35617634
0.35793862
0.81287357
1.5205597
1.3713666
1.3470403
1.3630484
-0.064884974
0.40264973
0.12356516
0.79914263
1.0339141
1.2443332
1.2994285
1.3029092
1.2733203
1.2135686
0.027544572
1.0495616
-0.15990146
-0.11402777
0.2659211
0.030346495
1.2878645
1.1941027
1.1880742
1.2649732
1.2974938
1.221663
1.185161
1.197296
1.2467786
1.2449481
0.91795434
0.33217471
0.22603916
0.18959889
1.1299877
0.97838278
1.0717083
0.85309867
0.55888023
0.57958286
0.56335461
0.50536083
0.52901374
0.50493675
0.55697295
0.58768973
0.57040654
0.54660096
0.56911498
0.54336308
-0.081159719
-0.085389398
-0.039869774
-0.25829955
-0.23400524
-0.34415773
-0.12219399
0.10818993
0.074277098
0.2904595
0.42366581
0.060056076
-0.14238157
-0.078871251
-0.013762848
0.20573272
0.25801024
0.13150919
0.19100922
0.18195767
0.15620058
0.29823684
0.30217564
-0.0057775697
0.00027898139
-0.024131566
-0.021338059
0.052761434
0.16161588
0.16325487
0.020219443
0.0087187032
-0.033933475
-0.035902563
0.02116753
-0.012829672
0.0083419287
0.030355025
-0.02071471
0.012220316
0.0095251352
0.0037037849
0.02647517
0.022448778
0.61229868
0.61548418
0.60733189
0.7623371
0.75368177
0.78727618
0.76466568
0.53413204
0.5315493
0.52902984
0.56364038
0.54208894
0.57194682
0.59585091
0.64365063
0.65745482
0.59096025
0.56926837
0.62590598
0.58421986
0.57424972
0.58596324
0.59412374
0.52907842
0.54041885
-0.025961444
-0.003743083
0.01370129
-0.06110518
0.0007122983
-0.019107801
0.0056278162
0.041277018
-0.004913578
0.017267229
0.009098321
-0.018233447
-0.0093635519
-0.15074464
0.016445233
-0.39607644
-0.42541601
-0.52757386
1.0922579
1.250586
0.99168704
0.71060856
0.74455143
1.0298566
1.1721871
0.68526606
0.81712931
0.9303115
0.88785934
1.1157582
0.53718224
0.52817473
0.54001816
0.51475381
0.54754432
-0.026869954
0.20232299
0.11204088
0.3080103
0.56638151
0.61704913
0.40474324
0.34485832
0.50242815
0.40082676
1.0110825
1.0435748
0.90347697
0.96484636
0.94583548
0.61545986
0.84620254
0.98304666
0.85760286
0.91053787
0.94883432
0.90022811
0.95676969
0.85171085
0.73464756
0.76612933
0.54812798
0.63165481
0.58173778
0.53164877
0.67490331
0.62923952
0.67408317
0.65250014
0.71913291
0.81701596
0.79889253
0.80825432
0.85530841
0.70589042
0.62703131
0.65082322
0.72647294
0.59583123
0.6184288
0.66161308
0.42410028
0.43665293
0.32025492
0.23473862
0.30706365
0.15141886
0.12806791
0.16562356
0.47224683
-0.14394793
-0.13912629
-0.50681555
0.91409444
1.538227
1.2077997
1.1916163
1.2998837
1.2705732
1.2652075
1.3152947
1.3169214
1.124166
1.1716417
1.164139
1.1179591
1.1629802
1.2526148
1.2312672
0.98900458
0.66184489
0.6328065
0.56441663
0.26987363
0.369676
0.77830888
0.61747569
0.45170203
0.42626913
0.7556077
0.48833659
0.62517652
0.7708812
0.58770888
0.48097591
0.94302238
1.0707136
1.0602878
1.0081934
0.84669768
0.90147554
0.98361423
1.056602
1.0931786
1.1677201
0.5311504
0.54792661
0.54136185
0.52087071
0.54697603
0.56005926
0.55949286
0.55022753
0.55628433
0.56196488
0.57269797
-0.049552206
-0.03537222
-0.05792752
-0.067040266
-0.012903003
-0.033848235
0.043690205
0.018095424
-0.00060052375
0.0071986477
-0.0331528
-0.048577403
-0.028801445
-0.011242002
0.16408426
0.19818043
0.14372583
0.12927612
0.3300812
0.47118591
0.52676119
0.44336764
0.26078137
0.2858972
0.35396901
0.046295292
0.061117282
0.074238595
0.095774559
0.10127439
-0.027093263
-0.03165834
-0.023604403
-0.019049842
-0.0048625623
-0.026920247
-0.034507863
-0.026158133
-0.025323737
-0.030810196
-0.037744117
0.53334206
0.54601488
0.59181264
0.55272007
0.55215121
0.58810601
0.5665747
0.58273119
0.589412
0.61385524
0.59325851
0.62645461
0.62058207
-0.015849887
-0.020833526
-0.03844022
-0.024554453
-0.020972237
-0.019567256
-0.026754567
0.25041616
0.10387726
0.13930509
0.017022628
-0.23101202
-0.12189441
0.63169574
0.76747986
0.76916537
0.98671592
0.77362137
0.72570804
0.87352744
0.99267579
0.41826013
0.65062312
0.46180363
1.115314
1.0208184
1.1936249
0.73877382
0.43582984
0.69053127
0.77750923
0.46376669
0.57767858
0.53960938
0.35820778
0.42239051
0.46748788
0.64443218
0.44884452
0.49812976
0.4276057
0.44321694
0.50925903
0.52477118
0.63281522
0.69372618
0.35741194
0.33240547
0.26132485
1.0275106
1.0474729
1.0807179
1.0737579
1.099294
0.87558161
0.86667337
0.90769687
0.90150775
0.87267183
-0.33230661
-0.42302155
-0.77147633
-0.22558861
0.39185781
0.96766621
0.8406239
1.403744
1.1350002
1.3255808
1.2650372
1.2131824
1.1229387
1.1313308
1.2038627
0.58551947
0.79050359
0.76738481
0.71833808
0.51426219
0.41531757
1.0478302
1.0229515
1.1022558
1.1351999
1.0698399
1.1496111
0.5518226
0.56948373
0.54832126
0.56133659
0.54196412
0.5528094
0.088288711
0.033255164
0.14480293
0.12468522
0.04572226
0.020556114
-0.0081165476
-0.0035027282
-0.019917673
-0.014488131
-0.0018584722
0.0055256397
0.27560162
0.23750762
0.033102206
0.14797047
-0.044725159
-0.13921719
-0.20152021
-0.0051591389
0.13423859
0.14673117
0.54859039
0.83281364
0.67692364
0.78719766
0.61258124
0.72360944
0.72067918
0.68521002
0.72318397
0.59497693
0.60656081
0.65298136
-0.14230389
0.19008489
1.459165
1.3993612
1.0073512
0.86010052
0.79877142
1.1129743
1.0154981
0.84719762
0.95599126
1.0774043
1.0580239
0.42164876
0.38922618
0.77159675
0.90724954
0.51286756
0.39788062
0.3609005
0.53796377
0.58954041
)
;

boundaryField
{
    wall-4
    {
        type            zeroGradient;
    }
    velocity-inlet-5
    {
        type            zeroGradient;
    }
    velocity-inlet-6
    {
        type            zeroGradient;
    }
    pressure-outlet-7
    {
        type            fixedValue;
        value           uniform 0;
    }
    wall-8
    {
        type            zeroGradient;
    }
    frontAndBackPlanes
    {
        type            empty;
    }
}


// ************************************************************************* //
