/*--------------------------------*- C++ -*----------------------------------*\
  =========                 |
  \\      /  F ield         | OpenFOAM: The Open Source CFD Toolbox
   \\    /   O peration     | Website:  https://openfoam.org
    \\  /    A nd           | Version:  9
     \\/     M anipulation  |
\*---------------------------------------------------------------------------*/
FoamFile
{
    format      ascii;
    class       surfaceScalarField;
    location    "36";
    object      phi;
}
// * * * * * * * * * * * * * * * * * * * * * * * * * * * * * * * * * * * * * //

dimensions      [0 3 -1 0 0 0 0];

internalField   nonuniform List<scalar> 
1300
(
1.7582594
5.6264299
-5.1191433
1.7582594
-8.5076707
5.6264299
-5.5847793
5.5847793
-1.0228567
1.0228567
3.7327127
3.6519766
-4.2462097
4.2462097
-3.6079976
3.6079976
-1.0607438
1.0607438
-5.2377199
5.2377199
-5.0574414
5.0574414
4.7390719
-4.7390719
-6.9074882
6.9074882
-1.0877799
1.0877799
-5.3324494
5.3324494
1.4971317
-1.4971317
-3.5603633
3.5603633
-0.11593095
0.11593095
-0.5711971
5.1426714
1.1870623
1.1870623
-1.0740028
1.0740028
-4.8596097
4.8596097
6.2141644
-6.2141644
7.9229107
-7.9229107
-2.8037674
-3.3701307
1.9727973
-12.510673
-6.5348734
-6.5348734
-8.4382647
8.4382647
-2.8118347
2.8145952
1.4502396
-1.4502396
-1.785089
1.785089
-5.4441534
-0.14062589
-5.4441534
5.7194507
-0.13467137
5.7194506
-1.1282717
0.10541494
-1.1282717
4.6982183
-4.6982183
0.87542787
0.14742883
0.87542786
1.2616344
-1.2616344
-3.7391131
7.4718257
3.6455763
-3.0536715
8.1963429
-3.3932795
7.0452562
-6.5267956
6.5267956
-4.5301134
0.28390375
-4.5301134
4.026699
0.21951073
4.026699
-7.4467269
7.4467269
-3.660788
0.052790397
-3.660788
3.5807644
0.027233198
3.5807644
2.0930202
-2.0930202
-1.0314502
-0.029293615
-1.0314502
1.0852583
-0.024514506
1.0852583
0.35898231
5.2674476
-5.9854122
8.8000075
-5.2674475
0.029727531
5.2000848
0.037635082
5.2000847
-5.0937458
0.036304476
-5.0937458
5.0151467
0.042294645
5.0151467
4.8336066
-0.094534751
4.8336065
-4.8427021
0.1036302
-4.8427021
-3.9914265
-4.5066692
-7.0816839
0.17419565
-7.0816839
-1.0169391
-0.070840843
-1.0169391
1.1705025
-0.082722604
1.1705025
-4.1053264
4.1053264
-5.6806076
0.34815819
-5.6806076
1.3670711
0.13006065
1.3670711
2.0095164
2.561958
3.7677757
-3.7677758
2.2706441
-3.5510561
-0.0093071943
-3.5510561
-3.6279354
-4.2949753
3.6279354
-0.067572126
-0.49606945
0.38013854
-0.49606945
1.2409993
-0.053936991
1.2409993
1.094757
-0.0094987318
-1.094757
0.020754203
3.3415092
-3.3415092
0.64399032
0.43001248
0.64399031
-5.57241
5.57241
4.9561083
0.059038381
-4.9561084
0.096498751
6.1535169
0.060647521
6.1535169
-6.1926691
-0.021495341
-6.1926691
3.4280945
-6.7982252
-3.4926434
6.7236069
0.18388137
-6.7236069
0.18873349
1.566304
-0.11606445
1.566304
-1.0930386
1.0930386
-1.410608
-0.039631563
-1.410608
-2.113578
0.32848902
-2.113578
1.5181865
0.26690249
1.5181865
-5.1833702
-0.26078321
-5.1833703
-5.7735785
0.092970851
5.7735785
-0.054127852
1.4065355
-1.4065355
-1.1921649
0.063893241
-1.1921649
-4.9072695
-0.27610075
4.9072695
-0.20905116
-4.5619354
-0.13628293
-4.5619354
-1.3261756
-0.084432383
1.3261756
-0.06454125
1.2692327
-0.028233439
-1.2692328
0.007598397
-3.0507763
5.6127342
-3.3961747
7.041751
-6.1499548
-0.37684084
-6.1499547
6.8631641
-0.33636846
6.8631641
4.9652042
0.36724525
-4.9652042
0.43509079
3.860424
0.16627502
3.860424
-7.4066986
-0.040028289
-7.4066986
7.465527
-0.018800076
7.465527
3.7433927
0.11703121
-3.7433928
0.08260471
3.5654809
0.015283566
3.5654809
2.3062677
-0.21324743
2.3062677
-1.8939246
-0.19909567
-1.8939246
1.0521295
-1.0521295
1.0514593
0.00067014033
-1.0514593
0.020009183
-11.148731
11.127236
-0.035766445
-11.112965
5.1643183
5.1643183
4.0488863
0.7847202
4.0488863
-5.0366319
0.19392982
-5.0366319
3.4861833
-6.9788267
3.8426899
-7.8341164
5.0572505
-17.567924
4.6849246
-9.1915937
7.3285708
-7.3285708
7.2144725
0.11409825
-7.2144725
0.13278862
-0.93182879
-0.085110265
-0.93182881
-3.4857115
-0.61961493
-3.4857115
4.7688063
-0.66347981
4.7688063
-1.2870384
1.2870384
-1.3104356
0.023397167
1.3104355
0.056635528
3.5569742
0.0085066796
-3.5569742
0.005918049
0.70188807
0.17353978
-0.70188804
0.2058186
3.7802959
-0.4387867
3.7802959
-2.8827783
-0.45873091
-2.8827783
-0.79850705
-0.13332175
0.79850708
-0.15451677
-5.8186692
0.24625916
-5.8186692
-11.213438
0.10047299
-11.175803
-6.0921961
-6.0921961
2.3460683
11.146076
-1.7205892
-0.17333536
1.7205892
-0.15428515
1.2355374
0.051500959
-1.2355374
0.14249881
-1.0531512
0.0010217029
1.0531512
0.039887487
-2.5345856
0.42100759
-2.5345856
-1.2335716
1.2335716
-1.3284459
0.09487428
1.3284459
0.1897406
1.7074451
-0.30090968
1.7074451
1.1996406
-0.029138075
-1.1996406
0.007475672
-4.371428
-0.19050744
-4.371428
7.1262516
-0.26308755
7.1262516
-2.577913
-0.30486523
2.577913
-0.27164537
-0.03518294
11.162419
-5.1291354
0.03538955
5.1291354
-11.223067
11.258456
-3.1077499
0.57316431
3.10775
0.9411363
5.3027591
0.26965091
-5.3027591
0.26612724
7.4089735
0.056553445
-7.4089735
0.080402763
-2.9758109
-0.50990061
-2.9758108
-5.512481
-0.63747375
5.512481
-0.74367469
-11.475263
-0.19664016
11.671903
-11.432968
6.0153093
0.13820754
-6.0153093
11.396664
-1.2467991
-0.15973634
1.2467991
-0.013227536
2.0521451
-0.3447
2.0521452
4.1469305
-0.36663461
-4.1469305
-0.2244975
-7.288795
-0.11790359
7.288795
-0.16254342
-2.4918332
-0.48397763
2.4918331
-0.43968791
-5.3374332
5.2834962
2.8589098
-3.3139911
-3.4842341
-7.6089664
2.541664
3.0710703
4.812308
-11.028712
-6.5392124
-10.839978
7.2682913
-7.0021641
-9.4693603
9.3748255
10.353392
-10.489675
-7.2950043
7.3516399
8.7326992
-8.7972405
3.7910974
3.6807284
10.875958
-10.592054
-16.795455
16.418614
10.302623
-10.249832
16.986491
-17.026519
-19.251405
19.307958
-7.304593
7.2752994
-9.3576691
9.1585735
-9.6691702
9.3975248
-3.6091927
-4.2249237
14.241256
-14.06706
11.716952
-11.72626
-11.482929
11.831088
4.0446555
1.2388407
4.016422
-3.6134558
7.4045532
-3.4318004
6.2907102
3.5883776
-7.1975704
3.3904491
-6.8746831
6.0078485
5.7091039
-5.9402764
-1.66869
-8.1984993
8.0824349
-7.4483077
7.4881952
11.857909
-11.998534
-3.6094994
7.2902278
-3.4322517
6.5033219
-3.6845219
-3.6104824
3.5544613
1.2578468
8.7757223
5.4655338
-8.9596036
-1.8803744
-10.978334
10.611699
-11.547127
11.088396
-0.44384003
5.7850262
-5.3411862
4.4157697
-1.4783655
7.2633917
5.789926
5.9838558
5.8664916
-5.5968407
1.1356724
-6.4768585
-6.3803597
-2.8079085
2.8718017
2.8543306
-2.7069018
7.9033639
2.4500277
7.6943127
-7.4922681
-2.9974065
-7.6827755
4.3955127
2.9561272
4.4189099
5.2559978
3.4767014
5.1715654
5.85435
-5.9650417
0.11069174
-5.4758724
11.330222
1.3251861
-9.0863548
-7.828508
6.8976154
3.9783427
7.1171261
-7.4849026
-3.1071516
-7.0498118
-10.231804
-6.5636503
-10.869278
10.952745
5.4658695
10.616376
-12.868629
12.706085
6.7177206
3.5849022
6.7449538
-6.8380784
-3.411754
-6.7554737
13.275078
-3.1952922
-10.079785
-11.125204
-8.1262012
11.144004
5.8424871
11.865262
7.4426958
11.945665
4.8707629
8.4043147
-10.71325
2.5870488
-4.4882778
-2.8163152
-4.4682686
4.4591667
2.8161326
4.4346522
-5.4921781
-3.865491
-5.6655135
-5.5146961
-4.1544741
5.7279435
3.43063
-5.7386704
-5.8084561
6.0435357
3.3539892
4.398802
-10.938014
4.7927917
-9.0177154
-9.973809
-4.0932514
-9.8410204
4.5309345
3.0977403
-7.6286748
-2.6666359
11.210009
-5.5009051
9.541319
-7.2336813
-4.4925784
-7.2277632
-8.9875218
-2.4954077
-8.8945509
-9.5395369
9.0296364
-9.9184839
9.2550041
13.971115
-6.8024959
-7.1686188
-4.8827288
-3.9145117
4.8751304
-0.85870832
-7.2060926
7.3167843
0.19846063
6.4891708
7.7280116
6.8693033
-4.4798338
-2.9684738
-4.337335
4.5323625
2.9558326
4.5333842
9.0224963
2.8354122
8.8878249
-8.4012604
-3.597274
-8.6620437
9.5402828
-9.2117938
2.8940224
-3.0273442
7.2736644
3.8147313
-6.8348777
-4.1434559
9.3864825
-4.3983579
-4.9881246
-12.064463
10.611133
1.45333
-4.8010715
-0.38530177
-0.26937084
-5.5643476
-3.9050128
5.4607174
0.52313833
11.134272
7.2292589
-5.5161388
5.7623979
6.1557642
6.2148025
-0.16555724
6.0666272
-5.4934628
7.2421649
-3.5970573
-3.6451077
6.8837701
-7.1598709
-1.7782736
-7.6136416
5.835368
0.53444182
2.068731
-1.6885925
-2.0388798
-0.76902862
-2.0314042
1.7069994
1.1473312
1.8805391
1.0141449
1.8576568
-3.6244794
0.74383004
2.8806494
-2.6103345
-1.9630718
-5.1465259
-1.996855
7.1433809
7.6623275
2.9493715
-7.4378299
-0.2449456
2.7145275
-2.7972501
-0.71947152
-4.4270543
3.0510581
-3.7705297
-5.885216
-2.484466
8.369682
-3.6991189
-0.63821611
3.6476179
0.77129199
-4.8069691
-3.3915302
4.8466007
0.32496479
-5.4100882
11.04884
-5.6387513
-8.3785621
4.4944755
6.8357469
7.4506026
-9.1697746
4.7912302
4.3785444
-2.3340276
5.9184897
1.1986365
6.0847647
-9.1727788
6.0656272
7.8267513
4.0043363
-8.1939967
1.1441849
-8.0285939
10.63911
-9.2628026
-1.3763078
5.2958995
5.3432109
7.6030999
6.3680148
-6.0504949
13.653595
-1.4276218
-7.8351808
9.4562157
-5.4518793
6.1676331
-11.619512
-12.535648
4.7004673
-9.8529489
11.910244
-2.0572947
-3.8512098
-9.0174191
13.704159
-1.3358694
-12.368289
9.2805066
-5.565474
-5.6440808
11.209555
-8.7607663
9.0558348
-2.5909294
-6.4649054
-10.846425
-6.1800944
10.964328
1.7417573
-11.824187
14.411236
-3.4198723
5.8069452
0.93800857
5.8222288
4.1854472
-6.7933261
2.6078789
4.5753191
-7.1662484
2.6188999
-9.412226
-7.2079495
13.27283
-6.0648806
-11.301201
-10.238095
-1.0631058
2.7932248
11.618011
-10.235921
8.0193523
2.2165683
3.7762784
0.75710577
-3.7769486
-0.69132002
0.5534378
6.7680494
-7.3214872
4.98809
4.9785913
5.0576463
1.7104031
5.1406616
2.9417733
-4.9863764
-0.67913709
-6.4973226
2.3428485
-3.0666926
-6.4521771
8.7950256
-7.1458416
0.69366453
-4.3544161
-6.1681617
10.522578
-7.1707313
5.2611699
5.7876696
8.2170026
-8.742001
2.5738393
-4.3879758
-4.3540252
4.5720024
-7.638695
3.3638112
5.4312144
6.7178004
0.90934424
6.5336349
6.7391951
-9.6313753
0.6136599
12.204729
-10.324355
2.6550505
9.2906145
-10.674403
0.43630769
-9.4047127
1.24831
-6.7492151
-6.3803648
6.7388088
-9.2342165
-4.8807037
8.2216728
0.66615211
-8.167545
-0.72700584
-6.5108455
-3.0286914
-6.9948231
-3.2958862
-6.6225977
-9.3463811
-1.7874239
-7.5589572
7.2422125
-7.2158787
-3.6533995
7.9595534
1.2954507
-8.0065422
7.8468059
-8.0554501
7.7107502
0.27948064
7.0373037
7.1487839
3.2342723
-4.7032761
7.9375483
-7.0457579
9.8811701
-11.923094
4.8773364
5.7418316
-9.3391057
-6.1812625
5.4627908
4.077492
5.7296933
9.3810266
-10.812206
1.4311793
-11.055891
12.6326
-1.576709
-17.110847
6.0549555
-7.72982
2.7171175
0.17690493
2.6320072
0.82053372
2.9067852
-3.7273189
-2.2068105
-2.3613273
-3.6979368
-5.5645154
9.2624523
1.8257842
-5.2503698
3.4245856
-4.7467848
6.572569
0.070110175
-5.32048
7.1553358
-4.2485506
7.3322407
-4.6766746
2.6555661
5.137932
9.0184168
-3.8804849
6.7250637
-2.9103324
2.9829076
-6.8633925
-2.5816078
-4.9120417
7.7281744
-5.6105361
6.3042006
-0.40668715
6.7108878
-5.8057262
1.4073682
-0.74807984
4.2305114
4.2512656
6.94234
-5.2319369
4.9091771
-7.8195095
-1.9542154
-6.9101653
-1.4789509
-0.43970773
-5.2276109
5.6673186
6.7391634
-7.178871
-5.3304495
9.730832
-4.4003826
8.0546085
-5.5179621
-2.5366464
-4.5487906
-4.6630032
4.127783
1.9388442
9.9934527
0.28098591
-5.798948
-5.2124769
-4.2713406
4.3882529
2.8539122
-2.2093475
3.6626776
2.4787184
-0.40998735
0.66831399
1.2122251
2.3197652
-1.6514512
0.27054879
2.0492164
-1.4180437
2.0171223
0.69740517
-1.9879843
-0.043419889
-1.5223308
4.573389
1.3583185
-2.5056497
0.85419857
1.421475
-5.0185322
7.1833985
-3.8371197
-3.3462788
8.6048736
1.5265272
-5.363647
6.0871143
-5.5526725
3.2829639
-5.2798189
-2.0806831
-7.6333556
-5.1833278
-4.167581
7.5921665
-5.0948713
8.0442427
1.7069505
-7.7992971
9.5062476
-4.8459789
2.3615129
-4.1460724
4.8434776
-1.7265901
-2.4194823
4.2906704
4.0790116
-4.3023483
-0.12470604
-0.011677862
3.1653833
-3.1770611
-0.60514641
-3.215481
-7.6018893
7.9268541
-3.8123605
8.6035907
4.1251879
-3.5836608
12.187252
3.2024328
-6.7860937
-5.1761293
-5.8143454
-2.4075492
5.0430534
-0.81889678
-5.9365769
-7.2838022
5.8195457
0.26521896
-9.2691619
10.367295
-1.0981334
-5.2908192
-0.77480798
6.0707075
-7.8037448
0.63749635
-5.1848449
5.1824504
6.3810869
6.6463059
-12.161591
-0.20669838
-6.6957214
1.360434
-8.0561554
6.7036449
-3.8315936
8.5320608
-11.117452
7.4640526
-9.8220013
7.1557531
-0.90040233
7.1457777
-4.5378988
2.9340077
-9.1141021
-7.3723449
7.2296176
-3.6447154
8.1676261
-4.1449672
12.312593
-7.5648394
7.0115161
5.3010772
-1.3683809
-5.8593824
-6.9828692
5.6144883
0.028646915
5.8508757
7.9113831
-4.9696098
7.232246
4.27194
-8.6599157
-3.366755
-11.901884
3.2419682
-6.1142143
-3.1902103
6.4321785
5.0267923
5.7838981
2.0781533
-5.092578
8.3567346
-9.4198404
-2.291854
-4.0885108
6.9121656
-1.2976772
4.329628
-8.4181388
-2.4195872
5.810024
-0.6979743
-5.1120497
0.99247188
-5.8731756
2.4162911
-8.2894667
6.8179254
-7.5449312
2.3410716
-10.070892
-5.6654706
-5.6786982
-2.4186018
-5.6368482
-7.9640036
5.5454017
-1.909048
5.9377578
-8.9175223
8.2195481
-3.7150778
9.2604796
-5.8592939
-1.1355292
6.2989817
1.4117685
10.672248
0.44298151
-6.624244
-2.8651448
5.5930538
-2.727909
1.5231081
-4.7846293
0.80842448
3.4901851
5.1146885
-9.3255531
-0.013552602
-6.6377966
-4.1622545
8.2397465
5.5685776
12.307741
1.4955352
9.3909514
-1.1512049
10.886487
4.5784884
4.768229
-4.1909035
5.6220828
1.4764152
6.3537516
-0.86579449
3.5213606
1.7662127
1.6953719
1.1018782
2.6428098
1.6084558
4.050178
0.32285904
-2.0384683
4.6814783
-8.9528189
-1.1174697
-8.1680987
1.2067268
5.8518718
-4.645145
4.2535097
-1.3995976
1.5256006
-0.12915989
-2.0711188
2.2002787
-3.7742678
-2.481106
-0.43188969
-2.1415795
2.9957781
2.4318095
-2.5638884
-1.2103794
0.68575586
-5.8690837
4.594063
-4.7187691
-0.63975747
8.8664902
-3.678463
0.50140188
-1.3169501
-2.7140791
-3.4831077
3.5265276
11.568882
0.61836968
5.9301305
8.5452238
5.1536936
0.18408379
4.8505109
-6.9078056
-4.5617151
-7.114504
-0.41085906
5.6598485
2.1964724
9.4215386
7.4975496
6.1998723
-2.2182665
-11.638107
8.3511207
-2.7290379
6.7744117
-1.662362
-6.6271046
6.770949
3.1102211
-7.4371011
-0.10783011
-6.7349347
-9.4639727
-0.50223686
8.721785
-10.170011
9.0344823
6.0057909
1.5531663
-4.8207788
-0.85791941
4.7259045
0.042324445
10.928811
-1.1894532
-7.0474728
8.236926
-4.6624186
3.5449489
0.91414975
2.7485279
3.1144287
1.7148311
-5.3326417
-9.9777867
-3.0310392
-1.9874931
-6.3773179
0.76606301
-3.1978725
6.2677705
-2.7228215
3.731124
5.5141044
7.039705
-2.0140829
-5.1647881
6.4144655
-2.6833414
4.3563636
)
;

boundaryField
{
    wall-4
    {
        type            calculated;
        value           uniform 0;
    }
    velocity-inlet-5
    {
        type            calculated;
        value           nonuniform List<scalar> 8(-1.7582594 -1.7582594 -7.3846893 -4.5714743 -7.3846893 -6.446951 -4.5714743 -6.446951);
    }
    velocity-inlet-6
    {
        type            calculated;
        value           uniform -5.6264299;
    }
    pressure-outlet-7
    {
        type            calculated;
        value           nonuniform List<scalar> 8(5.1191433 8.5076707 6.1738981 10.537876 8.4980957 6.9207379 7.3288731 9.7421751);
    }
    wall-8
    {
        type            calculated;
        value           uniform 0;
    }
    frontAndBackPlanes
    {
        type            empty;
        value           nonuniform List<scalar> 0();
    }
}


// ************************************************************************* //
