/*--------------------------------*- C++ -*----------------------------------*\
  =========                 |
  \\      /  F ield         | OpenFOAM: The Open Source CFD Toolbox
   \\    /   O peration     | Website:  https://openfoam.org
    \\  /    A nd           | Version:  9
     \\/     M anipulation  |
\*---------------------------------------------------------------------------*/
FoamFile
{
    format      ascii;
    class       volVectorField;
    location    "36";
    object      U;
}
// * * * * * * * * * * * * * * * * * * * * * * * * * * * * * * * * * * * * * //

dimensions      [0 1 -1 0 0 0 0];

internalField   nonuniform List<vector> 
918
(
(0.40909242 -0.00019055215 0)
(0.0090456641 2.9576278 0)
(-0.0085902884 1.3536128 0)
(0.29027961 -0.0084325439 0)
(-0.011049613 2.2617809 4.109934e-20)
(-0.011744 2.9485784 -3.4426858e-18)
(0.95369104 1.5037979 7.7027043e-19)
(0.31021687 0.18984026 -2.7605797e-20)
(1.9883525 0.0037210386 0)
(0.027140159 1.2059195 0)
(0.0017935733 0.98728775 0)
(0.20683089 -0.0085843874 0)
(0.012836547 2.9163542 0)
(0.013706777 2.7910744 0)
(0.10021973 3.1730057 3.1763217e-19)
(-0.01044422 2.1252183 1.4193502e-20)
(0.27923456 0.059825161 1.7111875e-18)
(0.21432785 1.6699568 5.8557343e-19)
(0.37114888 0.0055810005 0)
(-0.0088739607 0.96386463 0)
(-0.0050546381 0.18743904 -1.3789117e-18)
(1.0477586 -0.021873743 0)
(0.54316554 -0.028078279 0)
(0.24797323 -0.0070748097 0)
(0.28070709 -0.0010550745 0)
(0.022307327 2.6207913 0)
(-0.0099745006 2.9058526 1.2696182e-18)
(-0.021587274 1.4050414 0)
(-0.033553785 1.6478414 0)
(-0.017830309 1.3813366 0)
(-0.0088607062 2.8125816 0)
(-0.0029380093 2.3164468 -3.2309574e-20)
(-0.0056643137 2.1019366 0)
(-0.018161987 2.9813208 -1.2831606e-22)
(-0.018375958 3.0070223 2.6728603e-18)
(0.00085907271 3.0015933 0)
(0.28674673 -0.0019477576 0)
(0.43684953 0.91848204 3.3713062e-19)
(1.047572 1.5047904 -9.2319444e-19)
(1.0825354 1.3388427 9.5000944e-19)
(0.89047139 1.6611591 -1.7795636e-19)
(0.79295694 1.6476256 1.025103e-18)
(0.40070402 0.23065961 2.6878503e-20)
(0.33009101 0.16548719 0)
(1.2782892 0.7445071 0)
(0.35386294 0.23590245 1.2364943e-19)
(0.27796817 0.19193265 -1.2868419e-19)
(0.24793304 -0.01380799 0)
(1.9896319 0.00066832276 0)
(1.9887155 -0.0020763798 0)
(1.3548248 0.0015386674 0)
(1.8676289 0.0054686589 0)
(1.738118 0.0031916475 0)
(0.026399033 2.0172818 -8.5051785e-19)
(0.049646088 1.4391116 0)
(0.049263348 1.3066138 0)
(0.032914987 1.3859866 0)
(0.020606169 1.1182726 0)
(-0.00095727445 2.2256163 0)
(0.0099953643 1.2346289 0)
(0.010503253 1.0092122 0)
(0.00083919123 1.2381732 0)
(-0.00033966889 0.96701203 0)
(0.50343362 0.025827187 0)
(0.44305452 -0.012454192 0)
(0.19245272 0.0041015659 0)
(0.44448006 -0.012437345 0)
(0.23209297 -0.0013443683 0)
(0.016738655 3.0145161 1.3186111e-18)
(0.01239045 3.0113837 0)
(0.007727516 3.0035757 0)
(0.013325378 3.0004904 1.4054197e-23)
(0.010556363 2.9476306 -1.883212e-18)
(0.016839785 2.9848939 0)
(0.013433842 2.8938477 0)
(0.01760064 2.9240438 3.0383185e-24)
(0.01383937 2.8182503 0)
(0.017461021 2.9106193 0)
(0.011045139 2.7546665 0)
(0.25061172 3.6309927 0)
(0.17829929 3.5677468 0)
(0.13353995 3.3066155 -2.9707908e-19)
(0.048961206 2.9982844 0)
(-0.024778205 2.2669377 0)
(-0.015806318 2.3471513 -1.3987371e-20)
(-0.010410408 2.1493085 -4.870396e-21)
(0.42622492 0.086687615 -5.8656433e-19)
(0.25419616 0.035303206 -5.5790777e-19)
(0.4482621 0.10623077 -1.7936525e-18)
(0.30882873 0.082552355 -1.2001463e-18)
(0.17830883 1.1486836 0)
(0.32696378 1.8040372 -6.5402486e-19)
(0.41059794 1.7679868 1.0942997e-18)
(0.5432251 0.039502468 0)
(0.31742752 0.027502772 0)
(1.2189604 -0.0013959115 0)
(0.73714518 -0.035288343 0)
(0.64741627 0.017016029 -2.9218313e-18)
(0.64931833 -0.026095004 2.2913415e-18)
(-0.0014356339 1.2136025 0)
(0.0036031146 0.97315451 0)
(-0.042019243 1.4323798 0)
(-0.020008327 1.2507449 0)
(-0.015769057 0.96565448 0)
(0.048557548 0.2344606 4.2020637e-19)
(0.15698599 0.16153433 0)
(0.50449951 0.019408844 0)
(0.24575565 0.013829132 0)
(0.42354237 -0.0069063695 0)
(0.3943691 -0.012369171 0)
(0.26541258 0.0028846901 0)
(0.92386587 0.053264575 0)
(0.35434973 0.020545753 0)
(0.14065408 -0.0010071055 2.2358815e-18)
(0.0016436927 2.859714 1.1195065e-18)
(0.020921388 2.9000765 0)
(0.034423538 2.8764144 0)
(0.01541694 2.7047846 0)
(-0.010468858 2.985717 1.2278492e-18)
(-0.0091260868 2.8906594 0)
(-0.011775644 2.9907453 -3.7690228e-18)
(-0.0095971075 2.9158466 1.2889539e-18)
(-0.018875034 1.8322361 0)
(-0.0062257296 1.84611 0)
(-0.0088536066 2.330836 1.6937123e-22)
(-0.007880286 2.2968615 0)
(-0.0091977789 2.1032246 0)
(0.62572589 0.022516489 0)
(0.31272915 0.014759545 0)
(0.22544629 0.026184047 0)
(0.59633408 0.0029568762 0)
(0.28193965 0.0149377 0)
(0.52375172 1.0970285 -4.1341997e-19)
(0.55697199 1.1326516 0)
(0.41389505 0.9030449 5.3845712e-20)
(0.32305401 0.69590251 0)
(1.1587199 1.3236876 -2.7012771e-19)
(1.1579156 1.1287435 5.185543e-19)
(0.52211726 1.8333334 0)
(0.71660813 1.7803367 0)
(0.61268788 1.7450638 0)
(0.14969814 0.25545545 -4.2792682e-19)
(0.43419365 0.20483824 0)
(0.3327938 0.14525997 3.4552419e-19)
(1.2496062 1.1249419 0)
(1.3229419 0.92365777 0)
(1.2211803 0.93016278 -4.1246891e-19)
(1.3836169 0.72903795 0)
(1.3208439 0.57160685 6.1100244e-20)
(0.57379212 0.021986502 0)
(0.53820595 0.012141971 0)
(0.25910571 0.010549185 0)
(0.52290282 0.0075438616 0)
(0.53037008 -0.014354761 0)
(0.25545822 0.0070248165 0)
(1.4986171 -0.0017658343 0)
(1.8698377 -0.0017981686 0)
(1.7318236 0.00046753784 0)
(0.04068791 2.2419289 4.6122178e-19)
(0.050318296 1.9422359 0)
(0.033185207 2.3310919 7.4464903e-19)
(0.020339753 2.0787721 -6.2325103e-19)
(0.15664821 1.6686627 -4.8052195e-19)
(0.076243406 1.5264968 0)
(0.094420661 1.4797163 0)
(0.026352113 1.3352316 0)
(0.016237469 1.0644416 0)
(-0.0032055412 2.4099198 -1.0102942e-21)
(0.0027309513 2.2200967 0)
(0.0026115699 2.4161661 -5.2315604e-20)
(-0.0012824699 2.2288408 8.8156718e-20)
(0.020242673 1.2926656 0)
(0.015277704 1.2589963 0)
(0.013307989 1.0300357 0)
(-7.3411802e-05 1.234287 0)
(-0.00016140305 0.9641159 0)
(0.8180105 0.046760144 0)
(0.56971784 0.026384372 0)
(0.75750972 0.042032226 0)
(0.42951417 0.015490023 0)
(0.19965721 -0.0092414848 0)
(0.44792247 -0.00097166274 0)
(0.44570113 0.0092722863 0)
(0.20017509 -0.0047756226 0)
(0.0036939483 3.0720148 -1.1326673e-20)
(0.010782619 3.0616203 0)
(0.016164566 2.9688129 0)
(0.013251082 2.8677377 0)
(0.73027737 4.2163704 0)
(1.2297396 3.2849041 8.7351271e-19)
(0.071199115 3.1306486 0)
(0.029443823 2.9031977 0)
(-0.015391506 1.8465272 0)
(-0.026463135 2.0794701 0)
(-0.020597575 1.9494842 0)
(-0.022730176 2.7558149 -1.1369477e-20)
(-0.019640858 2.4536333 0)
(-0.021220413 2.6006963 0)
(-0.0037022602 2.1755384 3.76704e-21)
(-0.0078522456 2.3982005 1.4995216e-20)
(-0.0097817788 2.3761527 4.922106e-21)
(-0.0071002051 2.1583466 0)
(0.42467589 0.049801349 8.464233e-19)
(0.22409305 0.0084319545 -8.3918088e-19)
(0.30459536 1.6940163 0)
(0.20572162 0.9269843 -3.7529593e-19)
(0.22547481 1.8353231 -1.1709223e-18)
(0.13733909 1.3904548 1.1748517e-18)
(0.28266224 -0.002789971 0)
(0.51479585 -4.0384144e-05 0)
(0.51428717 0.01676693 0)
(0.29180705 0.0055000536 0)
(0.00069658586 1.228422 0)
(0.002792473 1.217907 0)
(0.0028416913 0.96649681 0)
(0.29990402 0.23394832 1.1463888e-18)
(0.22698756 0.22412161 -1.3674635e-18)
(0.22699521 0.18592538 0)
(1.213947 0.13512929 3.0174272e-20)
(1.121428 0.11544505 0)
(1.0706493 0.091957266 0)
(0.76203637 0.036122067 0)
(0.40580037 0.012457649 0)
(0.37065837 -0.010344413 -3.6054931e-18)
(0.17511696 -0.0033151682 1.3786301e-18)
(0.0026391436 2.9847441 1.1161933e-18)
(-0.0035525856 2.8647419 4.5741521e-20)
(0.0038380777 3.0539632 -2.3677192e-20)
(0.012750861 3.0472417 8.5251466e-19)
(-0.0093966548 2.9952557 4.1858675e-20)
(-0.0083911043 2.9361703 -1.6799052e-22)
(-0.013160298 3.0201634 -7.8792535e-19)
(0.0012141401 3.0231403 5.6791505e-19)
(0.0066742717 3.0398307 -8.5312808e-19)
(0.71889496 0.0351019 0)
(0.67749235 0.035502144 0)
(0.35975711 0.018133406 0)
(0.5000429 0.012214854 0)
(0.47077019 0.040814378 0)
(0.27356115 0.0044783642 0)
(0.4462281 -0.009312341 0)
(0.4382849 0.0096928873 0)
(0.20619704 -0.001788397 0)
(0.70972409 1.3801669 -1.3906052e-19)
(0.77647061 1.4603239 0)
(0.16581903 0.35770454 1.0435096e-19)
(0.33312103 0.76786571 7.9999726e-19)
(0.35490083 0.79907373 -4.7289945e-19)
(0.23223677 0.49506946 9.228749e-19)
(0.41674968 0.95984452 2.1835502e-18)
(0.1657257 0.33550992 4.8608643e-19)
(0.4535759 0.1426364 1.2707292e-18)
(0.45178915 0.17969519 3.3523783e-19)
(0.3281338 0.11063902 6.4146938e-19)
(1.413098 0.54758767 1.6864413e-19)
(1.3087303 0.39497626 1.3382044e-19)
(0.023818636 2.3872342 2.8059609e-19)
(0.011385259 2.1519305 0)
(0.96679077 0.06371631 0)
(0.88508702 0.054788433 0)
(0.66460027 0.03209147 0)
(0.010007511 3.07701 0)
(0.016958507 2.9387642 1.6663523e-18)
(0.01653465 2.953719 0)
(0.013499693 2.8433994 -1.6633996e-18)
(0.009470609 3.0917578 3.8207545e-19)
(0.0037160552 3.0887944 0)
(0.86636758 1.7477258 -8.9452242e-20)
(1.1294611 2.3546286 3.6413359e-20)
(0.84516063 1.8630547 -7.9130282e-19)
(0.014293077 2.9974185 -1.0266714e-18)
(0.035411462 3.0365906 0)
(0.012297611 2.8719522 0)
(-0.0094440261 2.3998776 -2.4238706e-20)
(-0.0046643898 2.4069287 -2.9997681e-20)
(-0.0021718177 2.2117625 -6.1491337e-22)
(0.34380433 1.5313817 1.1834459e-18)
(0.20983065 0.74287983 -8.1203216e-19)
(0.088196071 2.1533674 8.2145417e-19)
(0.16650795 2.0149588 -1.008172e-18)
(0.082436613 1.6785179 1.2271016e-19)
(0.013892345 3.1143454 -2.5326576e-18)
(0.016591118 3.1195872 2.8670268e-18)
(-0.0087039755 2.9802046 1.1762152e-18)
(-0.0054377451 2.9771595 -1.157079e-18)
(-0.0076414999 2.8759792 -1.1982151e-18)
(0.0045567988 3.1055133 -2.973333e-18)
(0.0094317927 3.104867 2.952594e-18)
(0.37505605 0.83129909 0)
(0.32915763 0.77457698 -1.765537e-18)
(0.13494722 0.28388087 7.8363105e-19)
(0.41202486 1.0801459 1.3949352e-18)
(0.18926687 0.4262984 -2.1662266e-18)
(1.3475988 0.22114789 6.1275285e-20)
(1.4060946 0.37410718 0)
(1.2614192 0.23626982 1.2707503e-20)
(0.0088131702 2.4167499 -1.9424471e-21)
(0.0088907086 2.401678 0)
(0.0055028474 2.1905862 0)
(0.39165888 1.3944058 -4.2635137e-19)
(0.42109094 1.2488411 -9.5578267e-19)
(0.19932818 0.56560672 1.7218835e-18)
(1.191805 0.0063161983 0)
(1.3369653 0.0022789482 4.6725412e-19)
(-0.024386415 1.8021966 0)
(-0.037837074 1.824728 0)
(1.512782 -0.00047721438 3.8723417e-21)
(1.1002701 0.015516494 1.0417364e-18)
(-0.0201861 2.7602393 1.474411e-20)
(-0.019432729 2.8034575 0)
(0.061029658 3.1776287 8.3010272e-19)
(0.53541195 3.5453445 0)
(1.5223448 0.88070944 -5.9560418e-20)
(1.2749178 0.011632817 2.3532991e-20)
(1.3725279 0.024681955 0)
(1.9988902 0.0087580493 8.9628804e-21)
(0.111588 1.8695655 0)
(0.11902143 2.7525376 0)
(0.019443892 1.7993771 0)
(0.0056348558 2.8190791 4.8553277e-20)
(-0.016060605 2.7692278 2.2881699e-20)
(1.2684831 0.0040226677 2.0895525e-20)
(1.4446519 0.066522637 0)
(1.4935814 0.098796261 0)
(-0.025635464 2.0973836 0)
(-0.014328001 2.7962036 0)
(-0.0054857422 1.7897818 0)
(0.3203469 1.9773713 -2.878653e-19)
(1.2990615 0.010211255 0)
(1.093718 0.0089982422 0)
(1.9712141 0.011691706 6.1023432e-19)
(1.6581608 0.016339731 -6.9894406e-19)
(1.9058965 0.010800122 0)
(-0.018673421 1.9141965 0)
(-0.017397012 1.8187475 0)
(-0.017452902 1.8679254 0)
(-0.0086342222 1.78401 0)
(-0.01301386 1.7660808 0)
(-0.016510835 1.77352 0)
(1.4139374 0.043524733 0)
(1.2978562 0.01439468 2.2223216e-20)
(1.0002734 1.6991335 4.5207187e-19)
(1.9566248 0.0022346454 -6.2206725e-19)
(1.7068477 -0.0039883504 7.4473003e-19)
(1.8970596 -0.0055627112 0)
(1.3057825 0.0039365962 6.1887711e-19)
(1.1806162 0.002244441 -7.7588904e-19)
(0.92611816 0.020802585 0)
(-0.019073759 2.8346167 0)
(-0.022044938 2.8085042 -1.0238443e-20)
(-0.019053914 2.8273068 5.5457526e-21)
(1.6545606 0.37345552 6.8465583e-19)
(1.5979104 0.17279452 0)
(0.075178804 3.0548018 -1.5196702e-18)
(0.04308082 2.849214 -1.0601202e-19)
(0.17976088 3.1780843 2.3174269e-18)
(0.16537875 3.243101 -3.7352605e-19)
(0.16317761 3.28796 0)
(0.031161141 3.1343802 4.3362992e-19)
(0.0837335 3.1733562 1.4938095e-18)
(0.080086788 3.1994049 -8.0706251e-19)
(0.048692989 3.1090787 0)
(0.71329025 0.32403734 0)
(0.65659943 0.41184192 0)
(1.4914852 0.95408363 1.1605373e-19)
(1.4278874 1.0893376 -7.2711046e-20)
(1.5935126 0.77456975 0)
(1.5843397 0.70487317 0)
(1.2745612 0.018823313 -1.2419433e-18)
(1.0865378 0.014764528 1.5927581e-18)
(1.3944428 0.022219552 0)
(1.2341476 0.021574156 0)
(2.0042122 0.015163205 0)
(1.8774571 0.0058577327 0)
(1.9367877 0.010116777 0)
(1.7273834 -0.0037688536 0)
(1.6660935 -0.00015273475 0)
(1.7978514 -0.00029082157 0)
(0.0990705 1.8595941 0)
(0.079457009 1.8490753 0)
(0.13408713 1.8964826 0)
(0.14570474 1.9197145 0)
(0.13956962 2.7813923 0)
(0.18053646 2.8585487 -5.0083846e-19)
(0.096824919 2.8515594 0)
(0.079634987 2.865545 2.2516039e-19)
(0.029059504 2.8796269 -1.987377e-19)
(0.017327461 1.8034416 0)
(0.013533565 1.7715038 0)
(0.024929425 1.8108331 0)
(0.027941921 1.7899345 0)
(0.009154439 2.2620525 -1.0465388e-20)
(-0.014410028 2.8172354 -2.3715146e-20)
(0.00013915658 2.8631729 4.6187127e-20)
(-0.0046570205 2.8986325 0)
(-0.014731687 2.8242797 -5.8749836e-20)
(-0.014567695 2.8207005 -7.1558482e-21)
(0.011501425 2.2568817 1.3290586e-20)
(-0.0080212054 2.5811195 3.1322068e-20)
(-0.014916778 2.6184759 -5.8674752e-20)
(1.3025244 0.0039798448 1.4031836e-18)
(1.0905596 -0.00081000821 -1.7345489e-18)
(1.249807 0.0094713969 -1.5107285e-18)
(1.1411343 0.0033695914 2.0055843e-18)
(1.4790188 0.059726883 0)
(1.342632 0.057493532 0)
(1.5190298 0.090305803 0)
(1.4860004 0.069839633 0)
(1.3320605 0.066911002 0)
(1.6029868 0.15801144 0)
(1.5355643 0.10933169 0)
(1.4047086 0.098722069 0)
(-0.020405896 2.6277192 8.4440756e-22)
(-0.022199079 2.2841031 0)
(-0.02085026 2.4516887 0)
(-0.013210705 2.8233198 -1.2822294e-21)
(-0.013037239 2.8337033 -9.3339439e-23)
(-0.0073617201 1.9935866 -2.0399157e-20)
(-0.01580225 1.9366409 2.0564213e-20)
(-0.015812414 1.8369881 0)
(-0.019113604 1.8439815 0)
(-0.019869544 1.8416187 0)
(-0.0028224307 1.7906493 0)
(-7.436954e-05 1.7587756 0)
(0.45660835 1.9853603 4.9257984e-19)
(0.47073785 1.9999761 2.5030982e-19)
(0.5919899 2.6395247 -2.7246886e-19)
(0.38062832 2.768088 7.1650128e-19)
(0.40458798 2.2633085 9.6466537e-20)
(1.4070066 0.023624013 0)
(1.3345384 0.023295187 0)
(1.1443975 0.014667106 0)
(1.9818355 0.018562539 0)
(1.9613556 0.013428537 0)
(1.7252091 0.019059309 0)
(1.6329046 0.017576215 0)
(1.6480045 0.022090728 0)
(1.3388504 0.012501335 1.1999423e-18)
(1.0366597 0.027980162 -1.5208385e-18)
(1.2965952 0.019000815 -1.276184e-18)
(1.1324243 0.011586334 1.6542635e-18)
(0.95717596 1.7331406 0)
(0.83805645 1.8521226 4.5034643e-19)
(1.112991 1.6028697 2.0099717e-19)
(1.1520185 1.5611122 -2.6785453e-19)
(1.275631 2.7075691 8.5689682e-19)
(0.82920365 0.075894436 9.0838174e-19)
(1.6128202 0.19566691 0)
(1.6621436 0.28939277 -5.3294626e-19)
(1.5703522 0.23715335 -2.1154588e-20)
(1.5297967 0.17080222 0)
(0.21693012 2.9240996 1.0381506e-18)
(0.1014356 2.8154873 -2.2028988e-18)
(0.029500261 2.3870135 1.3738196e-18)
(0.074344838 -0.1058349 -6.7768045e-19)
(0.36774804 3.461288 1.9982466e-20)
(0.23632009 3.3690469 0)
(0.24956705 3.4298414 -2.8154304e-20)
(0.26451737 3.084725 -2.54179e-18)
(0.39865446 3.1726381 0)
(0.013749493 3.1194908 7.8065188e-20)
(0.016801269 3.1324084 -8.3216271e-19)
(0.031145354 3.1180989 1.2934244e-18)
(0.037745155 3.1484881 0)
(0.035461572 3.1562409 0)
(1.3578359 2.8002559 0)
(0.79021855 1.0534882 -8.9955578e-19)
(1.3189148 1.3107791 -4.4389052e-20)
(1.2463082 1.4094962 0)
(1.1605402 1.3477241 -1.6728879e-19)
(1.3837413 1.1824212 3.8659003e-20)
(0.40089616 0.45745633 -1.6068357e-18)
(0.78748576 0.32418823 -2.7190424e-20)
(0.67139823 0.23851694 7.260167e-19)
(0.68829972 0.46246208 5.3284711e-20)
(0.5707092 0.41355025 -2.1861301e-18)
(0.75602377 0.36631435 0)
(0.89466707 0.48762305 1.2093281e-18)
(0.89604589 0.45342298 0)
(0.73101156 0.41734991 0)
(0.64065568 0.33455173 0)
(1.2262974 0.8465228 7.0840294e-19)
(1.6643901 0.40869707 -6.0706123e-19)
(1.6484417 0.57944747 0)
(1.6295641 0.50995478 0)
(0.76845407 0.17693101 1.0505217e-18)
(1.2370527 0.71859963 -6.7778774e-19)
(1.0268813 0.63437034 1.220331e-18)
(1.4481159 0.55502661 -1.2179825e-18)
(1.2562013 0.011013455 8.1822224e-19)
(1.2351342 0.014317232 -8.5197684e-19)
(0.99798477 0.013285918 0)
(1.442911 0.041677768 0)
(1.3862944 0.0312972 -7.3542532e-19)
(1.2004158 0.022564083 7.2665089e-19)
(1.8295 0.021399197 0)
(1.7056638 0.0079921069 0)
(1.9108452 0.0052855375 0)
(1.6752033 0.01061513 0)
(1.956634 0.019181391 0)
(1.9414764 0.016645779 0)
(0.070242661 1.8450303 0)
(0.058389123 1.8221109 0)
(0.16508179 1.8273498 1.0054715e-20)
(0.30206115 1.9661551 1.4894774e-19)
(0.18696913 1.9535326 3.2929821e-19)
(0.21066312 1.9717877 -5.313495e-19)
(0.20287193 1.8618017 0)
(0.167111 1.9851857 -8.5325133e-20)
(0.14839599 1.9721569 0)
(0.37380638 2.2222491 -1.3365473e-19)
(0.35860114 2.5153473 6.6878548e-19)
(0.22517368 1.9231683 7.6474624e-20)
(0.30122536 1.8672836 5.5819689e-20)
(0.24511043 1.8495788 -4.5460228e-20)
(0.33380203 1.8046768 -1.0553382e-19)
(0.26501018 1.9669834 0)
(0.31457144 1.9834929 1.1565833e-19)
(0.039552922 2.4769258 -4.3930284e-20)
(0.03459601 2.8705195 0)
(0.063181828 2.5808548 1.7274031e-19)
(0.055150565 2.585583 0)
(0.058375479 2.8851122 -2.5038687e-19)
(0.045203435 2.9243502 0)
(0.026313302 1.866537 1.3318061e-20)
(0.031806258 1.9133739 0)
(0.036989917 1.8479943 0)
(0.028360078 1.8368298 -1.5103297e-20)
(0.0083340163 2.84977 -1.5035852e-21)
(0.016926776 2.8821068 2.3028677e-19)
(0.01048409 2.9199984 1.6016772e-21)
(0.01014565 2.1554618 7.6800103e-21)
(0.0069089075 2.0629413 1.2001563e-21)
(0.012687013 1.789978 0)
(0.0088446293 1.7572333 0)
(0.047218715 1.986906 3.3048171e-20)
(0.040220465 1.8833971 -3.7887517e-21)
(0.040738382 1.9430419 -5.7056377e-21)
(0.054090114 2.0042812 0)
(-0.032022194 2.4844821 3.4202316e-20)
(-0.02755975 2.7304912 1.0986918e-21)
(-0.025928001 2.6476824 -2.9574992e-21)
(0.0072680624 2.1586578 -9.0881941e-21)
(-0.01984612 2.6732126 -5.425575e-21)
(-0.019881525 2.6434647 4.6827573e-20)
(1.2548246 0.0080846441 -8.908884e-19)
(1.2625731 -0.0010133357 9.1580201e-19)
(1.0466084 0.0011119022 0)
(1.503747 0.071444599 1.5075184e-18)
(1.1901001 0.010610896 -1.675387e-18)
(1.1430966 0.00537156 1.9018616e-18)
(1.5277982 0.10441537 -2.0639002e-19)
(1.429697 0.044000865 0)
(1.4410048 0.05216005 7.5006696e-19)
(1.3195843 0.045919732 -7.4346575e-19)
(1.6901286 0.10068327 -4.6921676e-20)
(1.6654009 0.082526694 4.0179774e-19)
(1.7914243 0.10502691 0)
(1.8536018 0.10002369 -1.5725838e-19)
(1.7370798 0.042691017 0)
(1.6122667 0.025371021 0)
(1.8571425 0.020942632 0)
(1.6634635 0.014527235 0)
(1.8617824 0.057354281 3.1005855e-19)
(1.8470981 0.038735799 -6.4973461e-19)
(1.8404251 0.086213025 -3.1416424e-19)
(1.8450517 0.080306556 -3.6499362e-19)
(1.8144633 0.12673246 7.3219898e-19)
(1.6786612 0.12571317 0)
(1.7243758 0.17227938 0)
(-0.026215197 2.4816216 5.1145602e-20)
(-0.021661204 2.2961678 2.3088162e-22)
(-0.020629294 2.2885002 0)
(-0.027450009 2.6689147 -5.2549359e-20)
(-0.02189427 2.6289566 -1.0186276e-21)
(-0.024959489 2.6618394 3.9478929e-21)
(-0.017019721 2.8378009 7.9814964e-21)
(-0.014204436 2.7547069 -2.2228501e-21)
(-0.016462556 2.7205054 1.5573956e-22)
(-0.011552553 2.8312788 -6.8101982e-21)
(-0.01799738 2.8319819 9.9318349e-21)
(-0.0087031838 1.9046504 -1.9655883e-21)
(0.002455191 2.0164185 -1.6120141e-20)
(0.46915208 1.9196437 -2.1406557e-19)
(0.43621167 1.8422133 5.3294078e-20)
(0.80463945 1.8832855 -4.3723049e-19)
(0.63450807 1.9705798 -2.4150403e-19)
(0.66036738 1.9596805 0)
(0.64208776 2.6031523 2.5056468e-19)
(0.69808343 2.6166371 3.9687007e-19)
(0.44678731 2.6997721 1.122296e-19)
(0.45595287 2.707252 -6.8969479e-19)
(0.54295311 2.6386839 6.7425906e-19)
(0.55315495 2.6566826 0)
(0.48460089 2.7127136 -6.3462531e-19)
(0.22641156 2.7828335 1.2783737e-18)
(0.33351014 2.7686985 -5.0283933e-20)
(0.26918957 2.8570843 -1.7469999e-18)
(1.021031 2.5473134 1.0203972e-18)
(0.8919774 2.5608526 0)
(1.9553307 0.025114555 2.3973609e-20)
(1.6611193 0.023944529 -2.0499647e-20)
(1.6811026 0.023794124 -3.6044351e-19)
(1.8815217 0.030313349 3.6126792e-19)
(1.990394 0.031125811 0)
(0.8863536 1.7378922 0)
(0.89748236 1.6480868 0)
(1.0720889 1.5393814 0)
(0.93097594 1.5582596 0)
(1.282388 2.7429904 -1.3153463e-21)
(1.193186 2.5716533 0)
(0.94028033 2.2741141 6.1643682e-21)
(0.88056785 2.545376 0)
(0.99593562 2.6137001 -5.2396146e-19)
(1.0249178 2.6011147 3.5807188e-19)
(0.84257646 0.11476945 0)
(0.80020743 0.12049798 2.5233677e-19)
(1.0903496 0.12048264 1.3893624e-18)
(0.88021261 0.076748124 -5.4250798e-19)
(0.82635329 0.022088014 -1.6175051e-18)
(1.7081461 0.33968789 -1.1872782e-18)
(1.5607206 0.41414643 -2.9554468e-20)
(1.2785219 0.33133881 1.4062977e-18)
(1.5327337 0.29485233 1.1370731e-18)
(1.300052 0.17261935 -1.8637218e-18)
(1.2439659 0.18750779 2.3701957e-19)
(1.2827107 0.25950556 -5.2432429e-19)
(1.2740903 0.22843658 0)
(1.5267377 0.21364296 9.1452679e-19)
(1.6512811 0.25363227 0)
(1.6465289 0.30413653 0)
(1.6942725 0.21375833 3.6240463e-19)
(1.7715634 0.26302846 -2.314184e-20)
(1.7331025 0.34062375 -2.0909069e-19)
(1.7060576 0.30350184 0)
(1.5616782 0.030493629 7.6530624e-19)
(1.8128409 0.081420721 9.2911789e-19)
(1.7663986 0.054149008 -7.2741483e-19)
(1.7603902 0.10031741 -6.3371328e-19)
(1.5529028 0.06694463 -1.0814667e-18)
(1.4049891 0.13390924 0)
(1.4285853 0.12007866 0)
(1.1427628 0.030134449 -6.8994551e-19)
(1.0495963 0.031015795 2.8244419e-19)
(1.6816802 0.13119732 9.4210184e-19)
(1.7904484 0.20121248 -1.0661761e-18)
(1.7639916 0.216742 9.7756854e-19)
(1.7028114 0.19731365 0)
(1.7833802 0.16668677 0)
(1.8161298 0.14686304 -4.14858e-19)
(1.7840701 0.13438485 -7.6755724e-19)
(0.75962348 1.5121496 2.4787755e-19)
(0.82913247 1.8300682 -2.7571671e-19)
(1.1846981 2.7700255 -3.1378829e-19)
(1.3030501 3.1222173 6.1471486e-20)
(1.3457043 2.8208175 -6.6663871e-19)
(1.3995474 2.8870567 9.2920847e-20)
(1.2721105 2.5652653 2.5871724e-20)
(1.3349977 3.0473298 -2.3663846e-19)
(1.3424058 3.0669454 4.4807436e-19)
(1.3199573 3.3302635 -4.9629631e-20)
(1.4359844 3.0989935 5.1206474e-20)
(1.4519614 3.0275706 0)
(0.79476707 1.1403951 -8.0483458e-20)
(0.23897657 1.3251475 9.0535529e-19)
(0.6578981 0.6486847 1.0607928e-18)
(0.43260876 0.22277303 1.2071109e-18)
(0.61312603 0.47360859 1.2296644e-18)
(0.6990207 0.58454981 -2.0368751e-18)
(0.68739857 0.59665002 1.6552923e-18)
(0.58674592 0.50284182 -6.3226428e-19)
(0.45694438 0.39033844 1.4309178e-18)
(0.81031711 0.22729721 -5.9400381e-19)
(0.77697426 0.26032394 0)
(0.68142634 0.20708343 1.3198263e-20)
(0.96039834 0.62771732 6.4709901e-19)
(0.89824077 0.56677793 -2.3593133e-18)
(0.75455467 0.58375205 2.1152033e-20)
(0.77323449 0.54684281 0)
(0.95299387 1.0275166 7.0620889e-19)
(1.2246105 1.0920683 6.1903651e-19)
(1.1205842 1.2170395 -7.1308709e-19)
(1.2797588 1.1232295 -2.4394655e-19)
(1.3186067 1.182216 -5.2036423e-20)
(1.3032475 1.1806047 5.2523666e-20)
(1.320696 0.90456248 -1.166882e-18)
(1.3483063 1.0102277 2.2898882e-19)
(1.4250639 1.0126304 0)
(1.4547329 0.96093243 -2.9356685e-19)
(1.6088161 0.44665723 3.3818827e-19)
(1.6992331 0.44055883 3.7331642e-19)
(1.7010805 0.40589274 5.0422449e-19)
(1.5925599 0.53625248 -6.8568637e-19)
(1.6003828 0.59644821 0)
(1.6290672 0.5700675 0)
(1.2608774 0.46085468 2.4717135e-20)
(1.0924821 0.31690411 0)
(1.1582412 0.29664729 6.8389336e-19)
(1.2608387 0.34225102 -1.8673322e-20)
(1.4438757 0.60146515 3.1617359e-18)
(1.3558118 0.69930284 8.839723e-19)
(1.3268647 0.60652787 -1.0014387e-18)
(1.112509 0.53956106 1.0908361e-18)
(1.0583861 0.53232864 6.4895849e-19)
(0.97691879 0.47051149 -6.3670901e-19)
(1.6754364 0.038134745 6.1206195e-19)
(1.9505121 0.033983085 0)
(1.9162682 0.040440213 4.1549516e-19)
(1.6942117 0.037420406 -9.2934677e-19)
(1.9335105 0.03072393 4.6080525e-19)
(1.8751208 0.013764375 -9.7796432e-19)
(1.6929908 0.013190091 0)
(1.5784496 0.018090046 -2.0329241e-19)
(1.8413867 0.012891632 5.075988e-19)
(1.6692653 0.014639648 -2.6226766e-19)
(1.6072699 0.019565817 1.9193756e-19)
(0.034925669 1.8155022 0)
(0.039330927 1.8277992 0)
(0.049868277 1.8246792 0)
(0.038728021 1.8031445 0)
(0.083950074 1.8394224 -4.769566e-20)
(0.099330826 1.8206338 2.3878045e-20)
(0.13205451 1.9143047 -2.445008e-20)
(0.11434003 1.8072979 -5.4685635e-21)
(0.047533033 1.89125 -3.8069631e-21)
(0.050123776 1.8852213 2.9647944e-21)
(0.078351833 1.8301631 -1.9738026e-20)
(0.070322099 1.8360439 5.3335686e-20)
(0.056217933 1.8210671 6.9765276e-21)
(0.045733346 1.8309555 9.9448925e-22)
(0.089459947 2.5239655 -1.8571575e-19)
(0.09350094 2.5577223 0)
(0.15802612 2.2711396 1.1036905e-19)
(0.14363646 2.0600328 6.1413089e-20)
(0.26497728 2.2412804 -1.0148877e-19)
(0.23211969 2.6092419 0)
(0.27553241 2.5959824 -6.6206193e-19)
(0.32473018 2.498936 4.7602549e-19)
(0.22637454 2.2031173 -2.5619797e-19)
(0.17498291 2.3617291 1.7672389e-19)
(0.16525683 2.4966942 0)
(0.021858757 2.2167263 -7.6573445e-20)
(0.020750541 2.5887049 -1.0197283e-19)
(0.016995778 2.3596512 0)
(0.01791599 2.6476675 -1.6041928e-20)
(0.035855137 2.4825591 4.9274631e-20)
(0.012968809 1.8507849 -4.9717108e-21)
(0.010926292 1.8428916 7.8892436e-20)
(0.014251468 1.8477995 -2.9035984e-20)
(0.020153146 1.8444719 -2.0029192e-20)
(0.025597836 1.8734075 0)
(0.0083194338 1.826244 0)
(0.0020237338 1.7818102 -3.5488773e-20)
(0.0045695522 1.8180767 9.9845122e-21)
(0.006927781 1.8210215 0)
(0.006667929 1.7801644 -2.6202317e-20)
(0.0035791409 1.7523824 5.4147854e-20)
(1.6481641 0.051310735 0)
(1.6412243 0.054041591 -6.947319e-20)
(1.9307362 0.054199237 -5.3949827e-19)
(1.8081232 0.064400916 0)
(1.6550397 0.057273344 0)
(1.9013771 0.043265276 4.4064096e-21)
(1.9040996 0.043989785 8.0627076e-19)
(1.7780707 0.024061386 1.0344814e-18)
(1.6572882 0.017692125 0)
(1.5799679 0.019391907 0)
(1.7639368 0.03600695 5.3763066e-19)
(1.6058989 0.027407307 0)
(1.5778782 0.012913619 0)
(-0.013156604 2.2828971 0)
(0.0031535688 2.0458012 -8.8013251e-21)
(-0.0080939635 2.1667085 -1.5091868e-20)
(0.0025253113 1.8294769 0)
(-0.0038791328 1.9580136 -1.1091102e-20)
(-0.0052547653 1.890105 7.4252531e-21)
(-0.002360619 1.8286173 0)
(0.50200452 1.9306024 0)
(0.44643367 1.7401064 -1.2670088e-19)
(0.41018581 1.7436333 0)
(0.53840971 1.7848892 8.1617302e-21)
(0.61216026 1.9317462 0)
(0.55577864 1.8836877 4.5789027e-20)
(1.1118381 2.803892 -2.106259e-20)
(1.0423968 2.56723 -1.1741741e-18)
(1.0369365 2.4576149 1.3627023e-18)
(0.91876601 2.5484144 3.3439055e-19)
(0.9100235 2.6078239 0)
(0.97479395 2.5880137 0)
(0.99604091 2.5521015 0)
(0.97640764 2.5482506 -1.208946e-18)
(0.73647034 2.557101 -5.368943e-19)
(0.86024051 2.5806253 -1.2644231e-19)
(0.86167255 2.5355592 1.0115678e-19)
(0.74790407 2.5804403 0)
(0.8484101 2.5731244 0)
(0.80366483 2.5905907 -4.3377926e-19)
(0.80540713 2.6021797 0)
(0.88592213 1.5112846 0)
(0.73512919 1.2729168 -8.1665485e-19)
(0.82789519 1.2963258 -4.9877142e-20)
(0.77517914 1.4154826 0)
(0.76016424 1.3721195 1.2452821e-18)
(1.1339981 1.2637497 -1.9463963e-19)
(1.0937025 1.3960827 0)
(1.1115731 1.3332367 2.8662674e-19)
(0.9396748 1.4580056 0)
(0.96685415 1.3344409 0)
(1.2520904 2.8161332 -3.7380793e-19)
(1.2123613 2.8516732 -2.6681965e-19)
(1.0057596 2.3635648 4.6274119e-19)
(1.005573 2.3976391 -1.5598735e-19)
(1.2206629 2.8076909 0)
(1.1776306 2.7642416 1.9815907e-19)
(1.2058943 2.6446435 -3.7220999e-19)
(1.1156703 2.4876907 -2.9395961e-20)
(0.69349558 1.7076261 0)
(0.71394912 1.5179512 -2.1823827e-19)
(0.77518523 1.6115161 0)
(1.0928386 0.2322811 0)
(0.81176583 0.13936382 0)
(0.66958665 0.1200162 0)
(1.073475 0.24048223 -1.0657368e-18)
(0.83043612 0.17716547 6.2011463e-19)
(1.0585839 0.029946639 -5.5919659e-19)
(1.1567642 0.093227659 0)
(1.1341899 0.11106651 2.4871396e-19)
(0.91818126 0.034056875 1.0074328e-18)
(0.84834707 0.012689702 -6.3620286e-19)
(1.3263653 3.4540433 -2.5998727e-19)
(1.3104282 3.3854851 0)
(1.3460741 3.4090946 -5.994638e-19)
(0.53278049 3.5090464 5.6800098e-19)
(0.77942111 3.0393316 -3.9922278e-19)
(0.67239906 1.1288498 1.0147564e-18)
(0.64228647 1.1713273 0)
(0.53777071 0.64492129 -2.7744941e-19)
(0.65965419 0.94539077 1.492768e-18)
(0.68056391 0.59289294 -3.741892e-19)
(0.65451994 0.67385161 4.2913446e-19)
(0.82993099 0.64399359 8.8527213e-19)
(0.91984296 0.67574522 0)
(0.86399737 0.77904512 0)
(0.77191072 0.72071705 0)
(1.4898702 0.84678518 9.3444901e-20)
(1.3930585 0.76806625 -8.4038837e-19)
(1.3982503 0.81637765 6.2643895e-19)
(1.4625001 0.7189263 -6.3756596e-19)
(1.5762134 0.71343198 0)
(1.5798282 0.77919537 -1.4559695e-19)
(1.1066274 0.48162491 -1.4405809e-18)
(1.1397066 0.47715438 -1.7162385e-18)
(1.0288292 0.43348823 1.128114e-18)
(1.0116053 0.39654134 -1.1480917e-18)
(1.0911633 0.35343055 -8.9100092e-19)
(0.99144665 0.33605692 1.1064481e-18)
(1.9153334 0.031672709 -4.9674866e-19)
(1.944799 0.034141773 1.0050845e-18)
(1.6783198 0.038383901 6.2444275e-19)
(1.6942968 0.045185157 -7.4300169e-19)
(1.7866381 0.051781461 0)
(1.9400695 0.047378453 -1.307664e-18)
(0.070673729 2.0413992 2.4519638e-20)
(0.067327562 1.9838798 0)
(0.10366215 2.0359489 2.5649403e-19)
(0.11603998 2.0278061 -2.3238183e-19)
(0.099852267 1.9420315 4.3314553e-20)
(0.09055047 1.9354007 0)
(0.010822486 2.0685232 0)
(0.0057153913 1.9102287 3.4434302e-21)
(0.0040592071 1.8759867 -3.1155931e-21)
(-0.0036255701 1.9580437 5.298295e-21)
(-0.0028157238 2.202654 4.2787052e-21)
(-0.0023665035 2.2239605 4.4415353e-21)
(0.6746436 1.7250134 -4.8333013e-19)
(0.63228085 1.759515 5.1014311e-19)
(0.58004107 1.7610781 -1.8130402e-20)
(0.58628709 1.7025559 1.6804695e-20)
(0.82122075 1.7751325 0)
(0.68622159 1.8646692 2.0592512e-19)
(0.75133145 1.8679572 -2.0013017e-19)
(0.61773417 1.7896988 1.7987286e-20)
(0.69857421 1.7170687 0)
(0.7550053 1.6948144 0)
(0.71376917 2.5267785 7.860525e-19)
(0.71426218 2.5912987 1.4569416e-18)
(0.76063765 2.5926228 -1.0469032e-18)
(0.63296924 2.599239 -2.1922095e-19)
(0.62054427 2.6589394 3.6004814e-19)