/*--------------------------------*- C++ -*----------------------------------*\
  =========                 |
  \\      /  F ield         | OpenFOAM: The Open Source CFD Toolbox
   \\    /   O peration     | Website:  https://openfoam.org
    \\  /    A nd           | Version:  9
     \\/     M anipulation  |
\*---------------------------------------------------------------------------*/
FoamFile
{
    format      ascii;
    class       volScalarField;
    location    "15";
    object      p;
}
// * * * * * * * * * * * * * * * * * * * * * * * * * * * * * * * * * * * * * //

dimensions      [0 2 -2 0 0 0 0];

internalField   nonuniform List<scalar> 
918
(
0.38172628
1.6310823
0.016464276
0.33945351
-0.0003783043
1.6017205
-1.1551377
1.1349957
0.40523803
-0.32183793
-0.013949668
0.73953337
1.4731468
1.2341955
-0.93811378
0.010536868
1.0435419
-0.94990437
0.38741282
-0.0040611392
1.2959522
0.35104496
0.37950952
0.35308217
0.8618317
1.2329697
1.3357668
0.0043408787
0.0021396259
-0.007852007
0.0053414162
-0.010478269
0.00041485644
1.4779966
1.5320165
1.5557163
0.51810528
0.33085941
-0.90112057
-1.0327267
-0.96580484
-1.2377636
1.1095573
1.1123743
-0.51728936
1.1373134
1.1636103
0.40207328
0.40049947
0.40822029
0.34826371
0.38016375
0.39518207
0.31527354
-0.3612187
-0.42547521
-0.26281423
-0.21709688
0.066595074
-0.013807562
-0.03122869
0.0058954294
0.0052691851
0.60307708
0.71941531
0.70568486
0.75418494
0.7672704
1.5681793
1.5316129
1.5585993
1.5054286
1.4957337
1.4530225
1.4161857
1.2723539
1.2794369
1.2324636
1.1974544
-1.4840745
-2.5504248
-0.34446008
-0.025984415
0.00059862415
0.018756489
0.025506357
1.0137295
1.0223263
1.0366915
1.0605654
1.1597342
-0.89299243
-1.1715834
0.38983084
0.38095674
0.38217816
0.36383479
0.40937295
0.45403539
0.0028281003
0.010184207
-0.027786593
-0.00022862927
-0.00019226224
1.2615815
1.2435092
0.36983837
0.37699186
0.7839316
0.82597174
0.80368468
0.35019401
0.88652701
0.92735342
0.99637225
1.2078512
1.2280024
1.2038958
1.3217682
1.2768079
1.382538
1.4081884
0.023514489
0.005571636
0.011402755
0.003303492
0.013402721
0.52719527
0.56246625
0.52424178
0.49307339
0.49220258
0.27360384
0.12985174
0.42322202
0.43613561
-0.73121679
-0.82910358
-1.0100381
-1.0324486
-1.2587369
0.72588489
1.0880564
1.0935811
-0.55109309
-0.39815727
-0.65200245
-0.31254015
-0.4129526
0.45212728
0.41510173
0.45062759
0.37519574
0.38887067
0.382406
0.37764108
0.38154138
0.39485691
0.35406556
0.50391079
0.23443057
0.22215036
-0.65098415
-0.46817053
-0.6292068
-0.17754398
-0.13762289
0.062769336
0.089895151
0.052090708
0.07097077
-0.10305115
-0.04812711
-0.076155731
0.0085321942
0.011037739
0.59364097
0.58669689
0.59255123
0.6002026
0.6383655
0.6426594
0.68306123
0.67286393
1.3421299
1.3658227
1.4105286
1.373501
-3.9767845
-6.7122158
0.31453346
0.50432674
0.0031276122
0.0022872617
0.0010071299
0.00089950052
0.0036676507
0.00082693786
0.041299992
0.031812483
0.026371132
0.033454882
0.98932303
0.99452428
1.0922694
1.1384032
1.0135949
1.0055084
0.44112225
0.41001405
0.39977742
0.40442326
0.010510249
0.0081230938
0.013792698
1.1700182
1.2127641
1.2015531
0.26348468
0.11932349
0.43227227
0.48160923
0.9684095
0.94388715
0.96987602
1.0740762
1.1108864
1.3978335
1.409873
1.4476152
1.4444349
1.492752
1.4851051
1.4435414
0.58240278
0.55965458
0.58921331
0.44368339
0.49264879
0.47879586
0.59774654
0.54357221
0.59255253
-0.039510673
-0.38418899
0.51221674
0.49955123
0.48004232
0.47345378
0.80533389
0.90067603
1.0541148
1.0702299
1.0788285
-0.17746535
-0.2740105
0.14443544
0.13912105
0.52644956
0.57144733
0.55161888
1.3163162
1.3169129
1.3630879
1.3254486
1.2667685
1.2893487
-0.41135082
-1.5994577
-0.97257583
0.92621381
0.69601054
0.80586911
0.047010862
0.034246888
0.035787221
1.1005525
1.1573696
0.57384299
0.84923486
0.82026638
1.1635297
1.1872981
1.25725
1.1807336
1.2085055
1.2352349
1.2184706
0.66463577
0.55548536
0.59080814
0.94427381
0.99568931
0.050391395
-0.052924769
-0.12078087
0.071476442
0.092603272
0.10948748
1.1000004
1.0395362
1.1177606
0.37703253
0.37004132
0.011831299
0.026110304
0.40229907
0.37349882
0.0045958678
0.0052029883
0.77628437
-0.69075674
0.092560542
0.40111519
0.44726927
0.39670644
-0.33139379
0.26012615
-0.030566091
0.13435708
0.087677826
0.72186652
0.61365663
0.57586465
0.0067531343
0.022281416
0.012607017
-0.55486091
0.38800387
0.37024297
0.38929193
0.37333589
0.40342291
0.0067476323
0.0058949225
0.0073615877
0.006001464
0.0031117313
0.011588693
0.55803078
0.57508939
-0.44152897
0.39845371
0.38017193
0.39855687
0.34958991
0.40901212
0.35961454
0.01753449
0.0101612
0.010296768
0.30719826
0.48902518
1.1083887
1.302762
1.098621
0.7176524
0.38520752
0.96146091
1.0659372
0.91811024
1.1168965
1.0521342
1.1026764
0.16847932
-0.059869151
0.18777252
0.12559353
0.40216095
0.42016462
0.45304356
0.46532556
0.41384772
0.39632862
0.4063824
0.4071011
0.3986878
0.41544829
-0.26461459
-0.22980482
-0.35579723
-0.4233866
0.27213919
0.55345036
0.18479757
0.22152483
0.15558836
-0.006718543
0.0015015007
-0.040188705
-0.052000323
0.034494722
0.080999705
0.10632662
0.072475206
0.078881152
0.038733768
0.0061032444
0.051726867
0.026723682
0.69428237
0.68900403
0.7069083
0.74764095
0.59462249
0.59530392
0.58637913
0.59824768
0.60402308
0.51091211
0.5649139
0.54613878
0.006437213
0.0087509374
0.0055538644
0.024427568
0.027832592
0.0082487464
0.0078035896
0.0081590541
0.006583706
0.0072100438
0.011640086
0.014165421
-0.49670626
-0.65870253
1.0370229
0.89604037
0.077565449
0.41856711
0.37721127
0.37986479
0.40517339
0.38885469
0.39681656
0.40153062
0.40451456
0.52314687
0.49530153
0.55531985
0.61937618
-0.36269319
-0.58846441
-0.33006327
-0.37653074
0.19667767
0.93507464
0.48643653
0.37352576
0.38066932
0.75379882
1.2418124
1.1338046
1.2579125
1.2869178
-0.32272078
0.18717464
-0.11488314
0.56991076
0.78187944
1.0832089
1.147898
1.1538419
1.1220767
1.0502725
-0.23928241
0.75580917
-0.21623294
-0.20288403
0.12964158
-0.041572344
1.1600865
1.026543
1.0344371
1.0890625
1.1325606
1.0405317
0.98844708
1.0005171
1.0743536
1.0748312
0.7101908
0.35120111
0.23083161
0.22107716
0.99879016
0.7729141
0.86848848
0.70738882
0.47002963
0.45366889
0.44848629
0.51492988
0.48709461
0.49891128
0.50853995
0.52574644
0.44817282
0.41301129
0.463681
0.43565439
-0.16212523
-0.16535822
-0.20968368
-0.43465168
-0.43326858
-0.52546877
-0.29496012
-0.23310682
-0.26111457
0.10280363
0.21700088
-0.25090031
-0.32208136
-0.28259576
-0.21314287
-0.02222338
0.051787539
0.022327243
0.15509559
0.042554767
0.051719759
0.17589577
0.17826186
0.0073311153
-0.0049428527
-0.057548656
-0.022207459
0.11007918
0.10082492
0.12335601
0.040962792
0.03976704
0.0019859636
0.0062712567
-0.037730963
-0.067719075
-0.039659359
-0.053893019
0.021622956
0.024298998
0.032554342
0.036680656
0.038283685
0.046576097
0.62675715
0.65281732
0.64313836
0.74773729
0.74841177
0.7772132
0.73304003
0.54300493
0.57168456
0.57153275
0.61919555
0.61277452
0.64321932
0.63848151
0.69355792
0.6876782
0.55685714
0.53664842
0.66403659
0.6293494
0.62927976
0.62798873
0.65106253
0.59761642
0.57202938
0.017084103
0.010829508
0.011115561
0.012890691
0.0109108
0.013660369
0.045801947
0.041142906
0.037451883
0.035285193
0.035562691
0.015172912
0.0157479
-0.33961936
-0.17487224
-0.5510494
-0.58204146
-0.68132383
0.91750045
1.0705281
0.83063328
0.5356373
0.57138006
0.8696721
1.0100192
0.52760665
0.65060434
0.77433841
0.68298127
0.93300766
0.40741835
0.40546217
0.42428662
0.40811535
0.43212674
-0.17652213
0.0075634934
-0.050261232
0.12172985
0.31462246
0.36399205
0.18529406
0.14469905
0.30579059
0.19589023
0.92743615
0.95465435
0.85076061
0.90244989
0.90493764
0.58537361
0.72792739
0.83168798
0.74230179
0.82933053
0.85021019
0.79081452
0.83186902
0.76096372
0.67947508
0.6807233
0.58154139
0.60423591
0.5758086
0.53529258
0.70583551
0.6477504
0.70243003
0.67355809
0.72298472
0.77438252
0.76546617
0.78787857
0.82278883
0.69055304
0.63760205
0.64082728
0.69280699
0.62423019
0.64023607
0.66444832
0.19270368
0.19813569
0.065234174
-0.041230198
0.049480983
-0.11497888
-0.1351418
-0.10436205
0.2136376
-0.43203373
-0.41421287
-0.78837946
0.63452909
1.2833288
1.0972318
1.0885704
1.1367464
1.0954972
1.0857965
1.168411
1.1708207
0.98231825
1.0195959
1.0209442
0.92044721
0.96442819
1.0658089
1.0448523
0.73013069
0.48175457
0.43057317
0.41864879
0.17332352
0.24772986
0.61538246
0.48237934
0.34882958
0.3543431
0.66905454
0.46415882
0.57017096
0.65591003
0.53020205
0.45774715
0.79428983
0.92119173
0.90792634
0.85500947
0.6883091
0.72721415
0.78613483
0.85628796
0.89408892
0.96615708
0.48383057
0.47419337
0.46196719
0.45337401
0.50190421
0.49036637
0.49075017
0.46281218
0.45173401
0.44431385
0.46734802
-0.063214583
-0.06320508
-0.12589675
-0.098567804
-0.23415222
-0.29025126
-0.27220954
-0.2094567
-0.081185006
-0.10046622
-0.20833874
-0.15298658
-0.11021098
-0.083949077
-0.083683614
-0.074065398
-0.16087504
-0.11594886
0.12389013
0.20441186
0.28324094
0.20888325
0.030957551
0.019177778
0.11464395
0.0016062132
0.049360984
0.067271193
0.014243673
0.010707366
0.024538949
0.0065473248
0.0073341203
0.018465572
0.010362945
0.0062911369
0.012927419
0.014049118
0.018915488
0.011267863
0.012168127
0.53832434
0.57362733
0.62035367
0.59858204
0.58612584
0.60944017
0.56868445
0.58092717
0.5781343
0.6261754
0.61271014
0.65043744
0.64114382
0.026668666
0.021508871
0.026976162
0.017131784
0.018029233
0.018844582
0.017815182
0.086058478
-0.075987946
-0.01956977
-0.17313791
-0.39988749
-0.29357923
0.41866535
0.55980419
0.5438871
0.79275938
0.57020829
0.51422075
0.66583006
0.80395534
0.24009847
0.46016161
0.28059464
0.92482362
0.83255526
1.0041845
0.56445462
0.20685614
0.43225642
0.53183909
0.2116485
0.31730184
0.34150798
0.18298536
0.25799543
0.26539215
0.41977678
0.20267136
0.25470741
0.17978134
0.20399297
0.26877792
0.29253629
0.3777682
0.43686354
0.13927952
0.11009308
0.045550759
0.91456327
0.94966963
0.98031008
0.92999281
0.97903815
0.83652829
0.82327448
0.85186175
0.87238955
0.85064775
-0.62400721
-0.72707895
-1.0641697
-0.51463112
0.097574818
0.66814916
0.55397172
1.1039689
0.87571134
1.1084899
1.0571997
1.0043451
0.91977159
0.89702492
0.98633845
0.48700022
0.64891117
0.62491365
0.60702573
0.43882595
0.34648788
0.87301238
0.85611398
0.92655188
0.95889189
0.90282865
0.97556955
0.52618345
0.54084645
0.51515241
0.53636761
0.52616906
0.53146572
-0.05186946
-0.07742386
-0.10233344
-0.088961358
-0.19341521
-0.16449234
0.043460181
0.025597658
0.016431083
0.018287666
0.035848979
0.037944248
0.078028363
0.035771706
-0.15051532
-0.024231248
-0.20315153
-0.30496048
-0.36572003
-0.18356954
-0.05142411
-0.03229944
0.37392552
0.65225379
0.50880409
0.61798434
0.44202621
0.5492105
0.48553809
0.43233971
0.47386897
0.36358681
0.38552319
0.3398597
-0.4524921
-0.11648506
1.1505258
1.080133
0.71015095
0.55124132
0.49529946
0.8439083
0.77480693
0.63194065
0.72708942
0.84889882
0.83830874
0.13022561
0.11940952
0.4527181
0.58903618
0.26141634
0.13654339
0.10384986
0.27095236
0.3211928
)
;

boundaryField
{
    wall-4
    {
        type            zeroGradient;
    }
    velocity-inlet-5
    {
        type            zeroGradient;
    }
    velocity-inlet-6
    {
        type            zeroGradient;
    }
    pressure-outlet-7
    {
        type            fixedValue;
        value           uniform 0;
    }
    wall-8
    {
        type            zeroGradient;
    }
    frontAndBackPlanes
    {
        type            empty;
    }
}


// ************************************************************************* //
