/*--------------------------------*- C++ -*----------------------------------*\
  =========                 |
  \\      /  F ield         | OpenFOAM: The Open Source CFD Toolbox
   \\    /   O peration     | Website:  https://openfoam.org
    \\  /    A nd           | Version:  9
     \\/     M anipulation  |
\*---------------------------------------------------------------------------*/
FoamFile
{
    format      ascii;
    class       volScalarField;
    location    "0.89";
    object      alpha.phase1;
}
// * * * * * * * * * * * * * * * * * * * * * * * * * * * * * * * * * * * * * //

dimensions      [0 0 0 0 0 0 0];

internalField   nonuniform List<scalar> 
10000
(
5.4482573e-84
2.2182844e-83
9.6923056e-82
4.2172379e-81
4.7263268e-81
1.785526e-81
5.8766607e-82
5.752031e-82
1.8803631e-81
2.4309942e-79
2.8935732e-77
3.0776678e-75
2.973565e-73
2.6325378e-71
2.1427295e-69
1.6107847e-67
1.1238456e-65
7.3098845e-64
4.4502308e-62
2.5451598e-60
1.3710381e-58
6.9661504e-57
3.361242e-55
1.6392092e-53
1.113159e-51
1.5691399e-49
3.2075585e-47
6.4530125e-45
1.1521749e-42
1.7946296e-40
2.4405265e-38
2.9097433e-36
3.0564808e-34
2.8439659e-32
2.3577983e-30
1.7526083e-28
1.1756622e-26
7.1638689e-25
3.9907418e-23
2.0440121e-21
9.6663758e-20
4.2854164e-18
1.9650606e-16
6.026027e-15
4.9076449e-14
1.2349897e-12
4.9304745e-10
7.7285412e-09
2.203505e-08
1.433301e-07
2.9051381e-07
3.7649276e-07
4.8242092e-07
7.9735147e-07
1.6101489e-06
1.4764035e-06
7.0791928e-07
6.9078364e-07
1.1606115e-06
1.5092601e-06
7.5976878e-07
4.7003461e-08
1.7767896e-10
1.0282286e-11
1.0088553e-12
5.411643e-13
2.8830304e-13
5.1814476e-14
2.4793179e-15
5.3840618e-17
1.2733536e-18
3.0610382e-20
6.2547683e-22
1.0642381e-23
1.5074923e-25
1.7581402e-27
1.6587422e-29
1.2357987e-31
7.032888e-34
2.918998e-36
8.2947477e-39
1.5225838e-41
2.3220423e-44
8.4705902e-47
4.8887857e-49
2.5751091e-51
1.2002217e-53
4.9097004e-56
1.7477085e-58
5.3595201e-61
1.4018436e-63
3.7778606e-65
4.0604893e-65
9.1367431e-63
7.9441134e-61
4.1118728e-59
1.3688135e-57
3.3887138e-56
6.1094578e-55
4.9180596e-54
5.448555e-84
1.9419319e-82
6.8125711e-81
3.0126447e-80
3.8994778e-80
2.9242795e-80
1.5742368e-80
7.9546541e-81
4.2200732e-80
6.1419255e-78
7.8017602e-76
8.8430585e-74
9.0409457e-72
8.4124447e-70
7.1741533e-68
5.6438514e-66
4.1175162e-64
2.7998149e-62
1.7818702e-60
1.0656656e-58
6.0042883e-57
3.1883225e-55
1.6023273e-53
7.8687809e-52
4.5211559e-50
4.7929013e-48
9.2100241e-46
1.945116e-43
3.6946431e-41
6.1014361e-39
8.7551727e-37
1.0966937e-34
1.2057775e-32
1.1703267e-30
1.0089809e-28
7.7770744e-27
5.3949399e-25
3.3906492e-23
1.9417759e-21
1.0180208e-19
5.1184814e-18
2.8893336e-16
7.8428547e-15
4.283773e-14
1.2323217e-12
3.6656045e-11
8.198816e-10
1.4996386e-06
7.3821333e-06
8.2743986e-06
6.9793161e-06
8.4831075e-06
9.2286316e-06
1.5013097e-05
1.7167786e-05
6.0991633e-06
7.0295282e-07
6.9078364e-07
1.2778191e-06
8.1883348e-06
9.5889391e-06
2.6587335e-06
2.89947e-09
1.7760884e-10
1.0434252e-11
1.3027908e-12
1.1963428e-13
5.1513525e-14
8.4953627e-15
2.8384777e-16
3.038503e-18
4.3035378e-20
7.5062398e-22
1.1512592e-23
1.4797446e-25
1.5785859e-27
1.3721716e-29
9.5207918e-32
5.1624558e-34
2.1985337e-36
6.9981951e-39
1.6618357e-41
5.3888424e-44
2.8796239e-46
1.7344429e-48
9.43678e-51
4.4925199e-53
1.8536512e-55
6.5600925e-58
1.968177e-60
5.329277e-63
5.5299745e-64
1.5311438e-61
1.8497254e-59
1.3062981e-57
5.6415961e-56
1.539465e-54
2.6261838e-53
1.9277469e-52
2.375452e-52
3.3576978e-81
2.538029e-79
6.1197868e-78
2.0819869e-77
2.4367516e-77
1.7582059e-77
9.0839722e-78
4.4229134e-78
1.7472295e-77
2.6412798e-75
3.4533602e-73
4.0078702e-71
4.1780486e-69
3.9506629e-67
3.4136733e-65
2.7130837e-63
1.9944882e-61
1.3627149e-59
8.6879557e-58
5.1901413e-56
2.9136305e-54
1.533783e-52
7.53169e-51
3.5177269e-49
1.6760928e-47
8.3556652e-46
4.1458061e-44
3.1560032e-42
4.8463237e-40
8.1078781e-38
1.2049968e-35
1.5634728e-33
1.7754575e-31
1.773627e-29
1.5678492e-27
1.2341308e-25
8.707399e-24
5.5420374e-22
3.2022039e-20
1.7235135e-18
9.4284367e-17
3.3118282e-15
3.4016998e-14
1.1695012e-12
4.1907768e-11
1.3561064e-09
7.1484689e-07
1.3568717e-05
1.7643893e-05
1.7788087e-05
1.7865067e-05
1.7865067e-05
1.7865067e-05
1.7842045e-05
1.7686276e-05
7.6078344e-06
7.6852588e-07
7.0295282e-07
7.6680634e-07
4.3699034e-06
1.0030691e-05
1.014039e-05
1.0246613e-05
1.7244166e-06
3.8790319e-10
3.0098188e-11
1.5278217e-12
1.0991713e-13
1.5550072e-13
5.3237065e-14
1.8191569e-15
9.2795286e-18
7.2972847e-20
8.8661504e-22
9.6629597e-24
8.8861993e-26
5.3708867e-28
2.0975932e-30
4.7237584e-33
1.1423117e-35
1.3663156e-38
1.389093e-41
3.9257066e-43
2.7295301e-45
1.6726398e-47
8.9452547e-50
4.1383235e-52
1.6410552e-54
5.5285553e-57
1.5704913e-59
5.631222e-62
1.3616143e-60
2.1869662e-58
2.1060428e-56
1.2511183e-54
4.7353294e-53
1.164436e-51
1.7863883e-50
1.2261772e-49
1.7917052e-49
1.8336273e-78
1.9347578e-76
3.4946358e-75
9.7247169e-75
1.0697262e-74
7.5772922e-75
3.8225138e-75
1.8253505e-75
6.0044824e-75
9.4895919e-73
1.2867965e-70
1.5385602e-68
1.644939e-66
1.5889158e-64
1.3991702e-62
1.1305438e-60
8.4315942e-59
5.8338779e-57
3.760264e-55
2.2673024e-53
1.2835482e-51
6.7976244e-50
3.3331746e-48
1.5488377e-46
7.746748e-45
4.5237205e-43
2.1041829e-41
5.3927361e-40
1.0472611e-38
6.6718616e-37
1.1512138e-34
1.5721333e-32
1.8032724e-30
1.8016387e-28
1.5804325e-26
1.2274625e-24
8.502803e-23
5.2930221e-21
2.9946424e-19
1.6144803e-17
8.2080864e-16
2.0956545e-14
2.0097243e-13
7.3951178e-12
2.7814289e-10
1.2271435e-08
7.7464445e-06
1.5431445e-05
1.4015491e-05
1.1637095e-05
1.4057325e-05
1.7593962e-05
1.514485e-05
6.6306156e-06
2.5775387e-06
2.0629489e-06
1.4459551e-06
1.1047621e-06
8.4040652e-07
9.912738e-07
1.1439128e-06
9.8646782e-06
1.0258035e-05
8.7141317e-06
5.6454021e-07
2.4032329e-09
9.8405298e-11
3.4217208e-12
1.5123279e-13
3.2290444e-14
1.5597354e-15
1.8381244e-17
2.3169906e-19
3.0263417e-21
3.0101896e-23
2.3410319e-25
1.6419575e-27
9.357345e-30
3.9378392e-32
1.1498492e-34
2.2575924e-37
5.1932974e-40
2.9370034e-42
1.9736421e-44
1.1664918e-46
5.9757608e-49
2.630381e-51
9.8948487e-54
3.1828362e-56
9.4725569e-59
5.3844945e-60
1.6620632e-57
2.1018566e-55
1.6590576e-53
8.4311496e-52
2.8224121e-50
6.2879697e-49
8.7780466e-48
5.5811861e-47
8.8522843e-47
7.2455568e-76
8.6971906e-74
1.3708229e-72
3.4210488e-72
3.6172742e-72
2.5414607e-72
1.2634444e-72
5.9355172e-73
1.6351481e-72
2.7467426e-70
3.9066756e-68
4.8474973e-66
5.341947e-64
5.2936002e-62
4.7625026e-60
3.9210029e-58
2.9719905e-56
2.0855259e-54
1.3609765e-52
8.2924252e-51
4.7371832e-49
2.5297225e-47
1.2474108e-45
5.7711236e-44
2.8720976e-42
1.8519501e-40
1.0511204e-38
2.8504595e-37
3.6578671e-36
3.4271041e-35
5.2352723e-34
2.6497107e-32
2.3537137e-30
2.1902123e-28
1.8769609e-26
1.4430188e-24
9.9018281e-23
6.0303575e-21
3.3172697e-19
1.7557633e-17
9.0856019e-16
2.2620346e-14
1.9673427e-13
7.5114593e-12
3.04061e-10
4.1744213e-07
6.7921208e-06
5.8579115e-06
1.3560472e-07
1.3553045e-07
1.3560542e-07
2.0397029e-07
4.3462255e-06
9.023447e-06
8.6152304e-06
1.1183674e-05
2.3227132e-05
4.827956e-05
3.9615687e-05
1.2582337e-05
2.1408006e-06
3.3625773e-06
9.9799456e-06
9.7865668e-06
3.0231454e-06
7.1559659e-09
2.8338896e-10
9.0441585e-12
2.6935194e-13
2.7595362e-14
1.2650527e-15
2.1999127e-17
2.6849827e-19
2.8293611e-21
2.897888e-23
2.3559366e-25
1.3768386e-27
5.7070813e-30
1.6543764e-32
4.5999209e-35
2.6428426e-37
2.1140165e-39
1.5866918e-41
1.0149149e-43
5.4306743e-46
2.4746329e-48
9.9251116e-51
3.5815146e-53
1.1858207e-55
5.7738725e-58
9.4699099e-57
1.4575544e-54
1.4811576e-52
9.7522437e-51
4.2866448e-49
1.2778076e-47
2.5905316e-46
3.3159035e-45
1.9518182e-44
3.225587e-44
2.2071592e-73
2.794412e-71
4.1109756e-70
9.6567029e-70
9.9457575e-70
6.9703307e-70
3.4336825e-70
1.581705e-70
3.458647e-70
6.3705712e-68
9.6767843e-66
1.2596171e-63
1.4401639e-61
1.470304e-59
1.355719e-57
1.1392295e-55
8.7854669e-54
6.251663e-52
4.1270713e-50
2.5381349e-48
1.4593679e-46
7.8310003e-45
3.8830071e-43
1.8004467e-41
8.6960176e-40
5.2574624e-38
3.1315648e-36
1.0049844e-34
1.4849976e-33
1.2946864e-32
1.0190286e-31
1.1655977e-30
2.5541639e-29
9.7267908e-28
4.889451e-26
2.2828999e-24
9.5399062e-23
4.4136459e-21
2.2797615e-19
1.1733333e-17
5.807995e-16
1.6058907e-14
1.5159768e-13
9.2160934e-12
5.4029407e-10
3.8461308e-07
2.26591e-06
1.3571858e-07
1.3553047e-07
1.3524881e-07
7.0368636e-07
1.8759703e-05
4.5546908e-05
5.9260946e-05
6.7786157e-05
6.9756571e-05
6.9869498e-05
6.9860969e-05
6.9860799e-05
6.986083e-05
3.024369e-05
3.7476664e-06
5.1215636e-06
9.7867276e-06
7.5706599e-06
2.2688165e-07
5.2742529e-10
1.4539916e-11
3.6412852e-13
2.9854159e-14
1.3741093e-15
2.1496614e-17
2.6742634e-19
2.8052416e-21
2.2196879e-23
1.323148e-25
5.3475292e-28
1.5689708e-30
6.3925482e-33
4.9302066e-35
4.1711411e-37
3.2156525e-39
2.1622831e-41
1.2845345e-43
6.9398803e-46
3.4990812e-48
1.6723507e-50
7.6972306e-53
3.647547e-55
2.9821811e-56
7.8304317e-54
9.6644483e-52
8.0049845e-50
4.456171e-48
1.7106714e-46
4.5750415e-45
8.4768745e-44
9.99591e-43
5.4554836e-42
9.1634595e-42
6.0493898e-71
7.0557862e-69
1.0030641e-67
2.2763975e-67
2.3060609e-67
1.6172708e-67
7.9327104e-68
3.5294096e-68
5.3678448e-68
1.1638737e-65
1.9589556e-63
2.7246244e-61
3.2675182e-59
3.4595773e-57
3.2840376e-55
2.8248161e-53
2.2202414e-51
1.6050144e-49
1.0723719e-47
6.6569649e-46
3.8514333e-44
2.073794e-42
1.0323758e-40
4.8218748e-39
2.288447e-37
1.2308774e-35
6.5759344e-34
2.3847419e-32
4.7743984e-31
5.3819604e-30
4.003208e-29
2.6746306e-28
2.5770217e-27
5.975831e-26
3.2404619e-24
1.5906509e-22
3.4000952e-21
3.6958971e-20
3.9666557e-19
8.646401e-18
2.758087e-16
7.4447101e-15
1.5407923e-13
9.9739879e-12
4.8726371e-10
8.3779022e-08
1.3692096e-06
2.4806734e-07
1.3524881e-07
1.3471515e-07
9.5852187e-06
6.6793268e-05
6.6892691e-05
6.7129086e-05
6.8096375e-05
6.9264435e-05
6.9789549e-05
6.9831876e-05
6.9860955e-05
6.6321718e-05
2.1859609e-05
1.1708159e-05
8.2049293e-06
8.8525465e-06
5.7886999e-06
1.3964099e-07
1.3491824e-09
4.4521137e-11
1.3830491e-12
5.3916629e-14
1.2947635e-15
1.9681035e-17
2.1072508e-19
1.6376693e-21
9.2545041e-24
4.3082584e-26
2.5938957e-28
2.2402739e-30
2.1248257e-32
1.9772734e-34
1.6535178e-36
1.2122592e-38
7.8750425e-41
4.7714493e-43
2.7235746e-45
1.54031e-47
7.9070516e-50
3.1829535e-52
2.0196481e-54
3.6538713e-53
4.9542212e-51
4.9752607e-49
3.4087235e-47
1.624976e-45
5.500002e-44
1.3281067e-42
2.2604486e-41
2.4652197e-40
1.2505969e-39
2.1019841e-39
3.0284508e-68
1.4803765e-66
2.0660092e-65
4.6088925e-65
4.6227461e-65
3.2550801e-65
1.6062179e-65
6.4860286e-66
4.4442638e-66
1.5236731e-63
3.1150187e-61
4.8029239e-59
6.1554269e-57
6.8341781e-55
6.7255587e-53
5.9526228e-51
4.7854811e-49
3.52134e-47
2.3864621e-45
1.4973052e-43
8.7256772e-42
4.7166908e-40
2.3570111e-38
1.1097106e-36
5.2276237e-35
2.5574402e-33
1.1772591e-31
4.5218063e-30
1.2958086e-28
2.0998179e-27
1.6720887e-26
8.1373102e-26
3.954044e-25
4.3878129e-24
2.5348589e-22
1.7506405e-20
4.1875677e-19
3.633742e-18
1.8949327e-17
1.1701855e-16
1.2268334e-15
1.7676751e-14
6.0348817e-13
1.3548834e-11
1.0299075e-10
1.9890224e-08
1.2657979e-06
3.5697621e-07
1.3475633e-07
1.333461e-07
1.1260604e-05
5.62092e-05
6.6859319e-05
6.6945092e-05
5.2108218e-05
4.6062011e-05
3.0658659e-05
4.9043398e-06
3.1677628e-07
3.2955207e-07
1.9952224e-05
4.5518967e-05
2.4379115e-05
2.7987752e-06
1.5641631e-06
1.2337297e-07
9.7244207e-10
6.941336e-12
4.7561245e-13
6.2080706e-14
1.3356165e-15
1.0259213e-17
8.6469286e-20
6.8417938e-22
7.0918681e-24
7.9935556e-26
9.3064175e-28
1.0924953e-29
1.1866909e-31
1.1596514e-33
1.0255833e-35
8.3275986e-38
6.1780753e-40
3.58162e-42
1.7461685e-44
7.2348673e-47
2.6063359e-49
1.0018266e-51
1.0367565e-52
2.2117617e-50
2.4649914e-48
2.0256962e-46
1.1656718e-44
4.8149767e-43
1.4497418e-41
3.181871e-40
5.0013113e-39
5.0611438e-38
2.3934343e-37
3.986775e-37
3.8610896e-65
2.7871333e-64
3.6881954e-63
8.1864023e-63
8.165134e-63
5.7800503e-63
2.8743754e-63
1.0830041e-63
8.7564061e-65
1.1042749e-61
3.5511737e-59
6.5787107e-57
9.2950312e-55
1.0988613e-52
1.1308476e-50
1.0350847e-48
8.5439793e-47
6.4171929e-45
4.4165945e-43
2.8034957e-41
1.6467672e-39
8.9466258e-38
4.4899238e-36
2.1244542e-34
9.8839207e-33
4.5090188e-31
1.8811465e-29
7.6614564e-28
3.0599324e-26
6.5826201e-25
5.4447572e-24
2.1755292e-23
6.9033462e-23
3.9395978e-22
3.001392e-20
2.5214861e-18
5.1399088e-17
3.2158858e-16
1.0389144e-15
3.0504552e-15
1.2499794e-14
7.0200067e-14
5.5702924e-13
2.6081266e-12
1.0144435e-11
2.1213224e-08
4.9358114e-07
1.3666409e-07
1.4023705e-07
1.3225886e-07
1.3334984e-07
4.3546498e-06
3.6571887e-05
1.2324982e-05
3.4894227e-07
3.0096407e-07
2.9789897e-07
2.9757598e-07
2.9769415e-07
2.9912919e-07
2.1477603e-05
4.688042e-05
4.7385002e-05
6.5071775e-06
5.9055566e-08
4.5075013e-08
4.10662e-10
2.1424693e-11
2.9957036e-11
4.3133363e-12
1.4254142e-14
7.8365577e-18
1.2288265e-19
1.4237391e-21
2.0694576e-23
2.9385369e-25
3.7845992e-27
4.3802495e-29
4.5423177e-31
4.1994315e-33
3.4283509e-35
2.4538041e-37
1.5232529e-39
8.0616956e-42
3.6126096e-44
1.3628661e-46
4.5700904e-49
3.2423256e-51
9.9219706e-50
1.0550103e-47
9.7375875e-46
6.6162261e-44
3.2446877e-42
1.1748653e-40
3.1733661e-39
6.3723037e-38
9.2999905e-37
8.7591749e-36
3.8728965e-35
6.3566964e-35
5.109384e-62
6.2062638e-62
5.840522e-61
1.2955129e-60
1.2896592e-60
9.1896787e-61
4.5797594e-61
1.7294679e-61
1.1559084e-62
2.4149716e-60
1.4707791e-57
3.5501004e-55
5.7296247e-53
7.4178009e-51
8.1268258e-49
7.7945495e-47
6.675794e-45
5.1740368e-43
3.6572743e-41
2.3741305e-39
1.4239271e-37
7.9236277e-36
4.1064878e-34
1.9785605e-32
8.7828174e-31
3.6489256e-29
1.6768557e-27
1.3522184e-25
1.1394667e-23
2.8751022e-22
2.0070363e-21
5.8951797e-21
1.2585741e-20
4.6080334e-20
5.2037032e-18
2.880587e-16
3.5242088e-15
1.6012801e-14
4.4035412e-14
9.0203655e-14
1.1827174e-13
9.2471401e-14
9.1156439e-13
1.6662976e-11
1.5248027e-07
1.0217366e-06
1.3663413e-07
1.3665516e-07
1.3960672e-07
1.2709538e-07
4.5840506e-06
6.6381574e-06
6.0398562e-06
5.4808016e-06
3.1167088e-07
2.9813785e-07
2.9728085e-07
2.9741011e-07
2.9757649e-07
2.97694e-07
3.1959812e-05
4.7437431e-05
4.7617595e-05
2.057592e-05
2.090876e-08
1.0304641e-09
6.5964017e-10
2.7875331e-09
2.6692183e-10
2.0683949e-12
7.4135479e-15
5.2611146e-17
3.1284758e-19
3.620677e-21
5.9676907e-23
9.2102838e-25
1.1717271e-26
1.2705607e-28
1.2024397e-30
9.8324698e-33
6.9550601e-35
4.2573608e-37
2.262928e-39
1.0669974e-41
4.3187496e-44
1.7301184e-46
8.6685041e-49
3.5242926e-49
4.3329094e-47
4.004588e-45
3.0766145e-43
1.7535848e-41
7.4314092e-40
2.3844366e-38
5.8264e-37
1.0773975e-35
1.4672425e-34
1.2900357e-33
5.3490404e-33
8.6218851e-33
5.4107038e-59
2.8561418e-59
8.4574324e-59
1.8465307e-58
1.8431788e-58
1.3241839e-58
6.666328e-59
2.816654e-59
1.154861e-60
4.6936639e-59
4.020877e-56
2.5477801e-53
6.624885e-51
1.049912e-48
1.2785684e-46
1.3110351e-44
1.1755742e-42
9.408044e-41
6.8089559e-39
4.4880332e-37
2.7133135e-35
1.5109118e-33
7.7730429e-32
3.7016951e-30
1.6306265e-28
6.7357603e-27
2.9761739e-25
1.9703306e-23
1.3991364e-21
3.7248473e-20
2.8003766e-19
7.9240236e-19
1.3907734e-18
3.3406667e-18
2.5144614e-16
1.0166638e-14
9.7695818e-14
4.0120693e-13
9.935752e-13
1.4885771e-12
1.2076116e-12
1.3724014e-12
1.1122833e-11
2.9082095e-10
3.5543907e-07
1.6430437e-06
5.4005897e-07
1.3903443e-07
1.3103392e-07
1.1739364e-07
1.5422208e-05
2.3805729e-05
1.6246602e-05
2.5088878e-05
1.2235123e-06
2.9744577e-07
2.9757222e-07
2.9757486e-07
2.9767697e-07
1.0477481e-05
4.7332013e-05
4.7394003e-05
4.7486744e-05
2.848765e-05
1.4664378e-07
5.5257515e-09
4.5485542e-08
8.1492874e-09
8.7980035e-11
4.4675432e-14
3.1289391e-15
5.6836364e-17
5.3338977e-19
6.7396078e-21
9.7257798e-23
1.2654382e-24
1.4378587e-26
1.4341632e-28
1.2586466e-30
9.7718621e-33
6.6378216e-35
3.9090005e-37
2.0400992e-39
9.9220178e-42
5.0520646e-44
2.4882361e-46
3.3809423e-48
1.9054226e-46
1.5380435e-44
1.2208387e-42
7.845585e-41
3.8090886e-39
1.4131514e-37
4.0588234e-36
9.043604e-35
1.5497987e-33
1.9786212e-32
1.6289543e-31
6.3522593e-31
1.0034854e-30
4.5917417e-56
2.0350687e-56
1.1938633e-56
2.4065762e-56
2.4073668e-56
1.7458183e-56
9.0137176e-57
3.2613715e-57
1.2724423e-58
5.0747876e-59
1.5022433e-56
2.4623601e-51
3.3441657e-48
8.2070083e-46
1.2024226e-43
1.3679017e-41
1.317515e-39
1.113747e-37
8.4372821e-36
5.8041632e-34
3.6466944e-32
2.0870122e-30
1.0886343e-28
5.5805221e-27
3.5021973e-25
2.689088e-23
1.2402424e-21
2.2448629e-20
2.099286e-19
1.9886677e-18
1.5921499e-17
5.5433486e-17
1.0288905e-16
1.9413158e-16
9.1737137e-15
3.8785601e-13
3.2218777e-12
6.5569865e-12
4.9397914e-12
1.4944588e-12
1.3817482e-12
1.9571712e-12
1.6437054e-11
3.0936669e-09
3.5762708e-07
1.6430437e-06
8.6443753e-07
1.3598712e-07
9.4266641e-08
9.8254194e-08
7.4426459e-06
2.4394719e-05
2.5013764e-05
2.5180012e-05
8.5186803e-06
2.9763668e-07
2.9810807e-07
2.9759005e-07
3.847984e-07
2.912456e-05
4.7394003e-05
4.7601347e-05
4.7809219e-05
1.734461e-05
2.1199666e-07
5.0241534e-07
5.7173678e-08
2.3890758e-09
1.9610784e-14
1.3642693e-14
2.2130461e-15
5.0717343e-17
5.1571031e-19
6.4857842e-21
9.0227057e-23
1.1288315e-24
1.25342e-26
1.2250583e-28
1.0476388e-30
7.8131473e-33
5.1085855e-35
3.0074471e-37
1.6558236e-39
8.788548e-42
4.6072483e-44
3.7506782e-46
7.7139338e-46
6.1730809e-44
4.4122292e-42
2.9922647e-40
1.6288862e-38
6.8399255e-37
2.2482245e-35
5.8347094e-34
1.1943134e-32
1.9083023e-31
2.2939328e-30
1.7736022e-29
6.5235344e-29
1.0088452e-28
3.1950908e-53
1.3674851e-53
2.1355728e-54
2.923064e-54
2.893688e-54
2.1349536e-54
9.7839796e-55
6.2776307e-56
6.8421302e-56
1.5025579e-53
7.0572861e-51
3.3332853e-49
5.1567852e-44
2.4259466e-41
4.4107857e-39
5.7628518e-37
6.2476975e-35
5.9482163e-33
5.0758943e-31
3.8779953e-29
2.9216129e-27
4.0356178e-25
8.4213058e-23
3.6559924e-21
3.1089333e-20
1.0791175e-19
6.2031798e-19
6.8519189e-18
2.9470912e-17
8.3483677e-17
2.6990659e-16
1.1481973e-15
4.5039003e-15
5.7843291e-14
5.133351e-13
3.1688778e-12
2.4046371e-11
2.0712146e-11
3.133124e-12
1.523322e-12
2.5236819e-10
2.6807793e-09
4.8584185e-10
6.1207458e-08
6.9152374e-07
9.3095407e-07
2.9382437e-07
9.2870534e-08
7.5448925e-08
8.3238606e-08
1.5710414e-07
1.3386609e-05
1.5342657e-05
2.5013764e-05
2.4012933e-05
3.9160416e-07
2.9920068e-07
3.0445672e-07
3.6332177e-07
2.478214e-05
4.7332013e-05
4.7394003e-05
3.0701214e-05
7.8308413e-07
3.3613537e-07
9.3107821e-07
4.0390331e-08
-1.6191523e-13
2.0850782e-14
3.0239391e-14
1.5975852e-15
3.5999459e-17
3.9888574e-19
5.011431e-21
6.6646744e-23
7.9726158e-25
8.5067752e-27
8.0137013e-29
6.6570886e-31
4.9504794e-33
3.3691281e-35
2.1274566e-37
1.2526902e-39
6.8161802e-42
3.6055483e-44
1.8280676e-45
2.5642782e-43
1.6062002e-41
1.0258163e-39
5.9515063e-38
2.7774697e-36
1.0230255e-34
3.0119738e-33
7.12411e-32
1.34895e-30
2.0211593e-29
2.2968171e-28
1.6725062e-27
5.8200952e-27
8.8059336e-27
1.8584806e-50
7.8735602e-51
6.9236139e-52
3.314711e-52
3.2432941e-52
2.3759242e-52
1.2285964e-52
4.4186573e-53
1.8616032e-52
4.5999986e-50
3.0800799e-47
1.3439985e-44
4.7547742e-42
1.5376127e-39
2.897357e-37
4.0352039e-35
4.4759369e-33
4.2132133e-31
3.4991452e-29
2.6201353e-27
1.7856896e-25
1.1214782e-23
7.2057089e-22
5.4188797e-20
6.5173053e-18
3.8760073e-16
5.6719706e-15
2.511368e-14
4.9421542e-14
6.4690957e-14
8.9610498e-14
2.0483083e-13
4.2041661e-13
1.1363497e-12
9.8085067e-12
1.3409232e-11
1.4737819e-11
1.6157527e-11
1.0839463e-08
6.5686963e-08
4.6984029e-08
2.818302e-09
4.627429e-09
1.4513455e-07
2.0219871e-07
3.7243214e-08
3.7258014e-08
3.7258014e-08
4.6849482e-08
7.3952956e-08
2.0419353e-07
3.331265e-07
2.3400503e-07
1.4412846e-05
2.6091269e-05
1.6663401e-05
3.1405261e-07
3.386775e-07
3.8397503e-07
5.7973388e-06
2.1276623e-05
1.8839695e-05
1.5276036e-06
8.9097601e-07
1.3401557e-06
8.1572298e-07
4.4419941e-12
3.3329726e-14
2.5826492e-14
2.620701e-14
8.8937488e-16
1.874861e-17
2.2443362e-19
2.8278537e-21
3.6683589e-23
4.3278455e-25
4.5446336e-27
4.3034342e-29
3.6968738e-31
2.9029028e-33
2.0837296e-35
1.3441775e-37
7.6162274e-40
3.5310804e-42
5.4916231e-44
1.0364392e-42
6.0508008e-41
3.4094606e-39
1.9321647e-37
9.6649835e-36
3.922376e-34
1.2832679e-32
3.4171954e-31
7.4232916e-30
1.3086056e-28
1.8484394e-27
1.9928699e-26
1.370529e-25
4.5269321e-25
6.7010732e-25
9.1718038e-48
3.8825815e-48
3.0630466e-49
3.6942447e-50
3.4078959e-50
2.4836843e-50
1.4056004e-50
5.5828092e-51
1.2417701e-50
1.8836358e-48
7.7681041e-46
4.3474164e-43
1.6187211e-40
5.7516294e-38
1.2418349e-35
1.8160199e-33
2.0421521e-31
1.9313208e-29
1.599962e-27
1.1879155e-25
7.9803003e-24
4.8234286e-22
2.7362139e-20
1.9372823e-18
2.3869889e-16
1.6088806e-14
2.5895629e-13
1.1879012e-12
2.240148e-12
2.3935423e-12
2.3283859e-12
2.8976387e-12
4.0542827e-12
5.2310065e-12
9.3897957e-12
9.0824308e-12
8.930291e-12
5.709801e-09
6.8461945e-08
6.7647315e-08
2.3263741e-08
3.375031e-09
1.0069835e-08
1.9869255e-08
3.0960754e-08
3.7258645e-08
3.7161504e-08
3.8495846e-08
5.8406149e-08
6.9092031e-06
6.3154673e-06
3.2755083e-07
9.8092293e-08
1.6456537e-05
2.6212841e-05
2.6327949e-05
5.4501216e-06
1.3775283e-06
5.3060967e-07
6.5148143e-07
1.1928208e-06
8.1433656e-06
1.0137379e-05
3.785149e-06
2.1649075e-07
4.4995097e-08
-8.2469647e-13
3.7471642e-14
3.8841938e-14
1.1569221e-14
3.3432535e-16
6.9736245e-18
9.1876517e-20
1.1842393e-21
1.6009908e-23
2.0087615e-25
2.2355883e-27
2.2389519e-29
1.9967789e-31
1.5617867e-33
1.0573147e-35
6.0073074e-38
2.6158548e-40
3.4646656e-42
1.5073611e-42
2.3312943e-40
1.1682928e-38
5.9290081e-37
2.9678021e-35
1.292695e-33
4.6232968e-32
1.3581089e-30
3.2986766e-29
6.6264387e-28
1.0939158e-26
1.4637577e-25
1.5020001e-24
9.7818509e-24
3.07816e-23
4.4602681e-23
3.8852361e-45
1.6535159e-45
1.327876e-46
4.8936052e-48
3.3422121e-48
2.4480696e-48
1.3959278e-48
6.2027986e-49
6.2457971e-49
1.1872884e-46
3.778905e-44
1.5366312e-41
8.2169669e-39
2.1144279e-36
3.1985817e-34
3.7591494e-32
3.7101944e-30
3.1918737e-28
2.4439166e-26
1.6857387e-24
1.0510041e-22
5.8819214e-21
3.0838899e-19
1.9866097e-17
2.0742084e-15
1.2073367e-13
1.7972508e-12
8.086735e-12
1.5331306e-11
1.7337037e-11
1.2946685e-11
1.0693609e-11
1.1656571e-11
9.556343e-12
8.7532704e-12
8.7357983e-12
8.7411588e-12
5.3015924e-08
6.8461945e-08
3.3948713e-08
1.496928e-08
4.4135555e-09
3.8163188e-07
3.4846591e-07
1.3476691e-07
3.9087432e-08
3.8107688e-08
4.7772465e-08
1.5921416e-07
2.7378999e-05
1.336276e-05
1.0858833e-07
3.3509502e-08
6.1366871e-06
2.6329459e-05
2.6329459e-05
2.6339092e-05
2.6347399e-05
2.4107311e-05
1.9591645e-05
2.0032434e-05
2.0136838e-05
1.9751534e-05
9.922883e-08
1.3114381e-09
-1.1771816e-10
3.6676019e-14
3.7459412e-14
3.9726922e-14
2.4711976e-15
8.8330159e-17
2.0510896e-18
3.0857044e-20
4.4669419e-22
6.7201195e-24
9.1898393e-26
1.0748049e-27
1.0725325e-29
8.9496615e-32
6.0502292e-34
3.2046647e-36
1.2891027e-38
5.7719631e-41
7.1443201e-42
8.8279108e-40
4.0383115e-38
1.8409169e-36
8.4320616e-35
3.7405032e-33
1.4359411e-31
4.5804689e-30
1.2189814e-28
2.7196645e-27
5.0822825e-26
7.8982005e-25
1.0053977e-23
9.8457744e-23
6.0897306e-22
1.8329583e-21
2.600718e-21
1.425883e-42
6.130548e-43
5.1489128e-44
1.0002593e-45
3.1327876e-46
2.3062778e-46
1.256692e-46
5.0196964e-47
4.849301e-47
1.6974464e-44
5.5258148e-42
1.0843157e-39
1.6840719e-37
2.1937452e-35
2.4463884e-33
2.3673195e-31
2.0217662e-29
1.5420628e-27
1.059632e-25
6.5967377e-24
3.710075e-22
1.8673178e-20
8.724628e-19
4.8205018e-17
4.2105773e-15
2.2718381e-13
3.4216334e-12
1.6602928e-11
3.5251241e-11
3.9053991e-11
3.2955833e-11
2.0519171e-11
1.6217461e-11
9.3106001e-12
8.7357983e-12
8.7405498e-12
3.4082363e-07
5.7059021e-08
4.9492192e-08
3.5717762e-08
6.9656006e-07
4.3188417e-06
4.9179288e-06
4.5085134e-06
1.4321255e-06
7.1392496e-08
4.5426563e-08
7.8788297e-08
6.2408234e-06
3.8906761e-05
1.1909188e-05
3.3503723e-08
2.5201152e-08
8.2123187e-08
1.7283388e-05
2.6336835e-05
2.6341124e-05
2.6346051e-05
2.6341124e-05
2.6258087e-05
2.5086335e-05
8.7535979e-06
4.5005009e-06
1.3859472e-09
8.492532e-11
3.5070701e-13
-1.4554424e-13
4.8173055e-14
2.0497482e-14
3.8265361e-16
1.8498797e-17
5.7108871e-19
1.0570475e-20
1.7154228e-22
2.7955836e-24
3.7980691e-26
4.1514692e-28
3.5703224e-30
2.3341553e-32
1.1133768e-34
3.6035569e-37
7.8209821e-40
6.5431387e-41
3.2118823e-39
1.3771954e-37
5.7288887e-36
2.3853666e-34
9.9099857e-33
3.9130024e-31
1.3369274e-29
3.8398295e-28
9.320195e-27
1.9206079e-25
3.355535e-24
4.9314485e-23
5.9925807e-22
5.612647e-21
3.3073717e-20
9.564449e-20
1.327772e-19
4.5672834e-40
1.9927782e-40
1.7621659e-41
2.914212e-43
2.8079421e-44
2.0354069e-44
1.1127681e-44
4.2872824e-45
3.4807556e-45
8.5707608e-44
2.0999389e-41
3.789978e-39
5.5003112e-37
6.3239935e-35
6.3669175e-33
5.8085206e-31
4.753963e-29
3.5011415e-27
2.3309283e-25
1.4079212e-23
7.6673479e-22
3.7178021e-20
1.692824e-18
9.489006e-17
7.5769557e-15
3.2282983e-13
3.988598e-12
1.5700604e-11
3.1512152e-11
3.8723736e-11
3.8187394e-11
3.1178448e-11
1.6868193e-11
8.7390583e-12
8.7373222e-12
5.2487321e-07
8.3533698e-07
5.6855569e-08
5.3801365e-08
5.8766396e-07
4.913837e-06
5.2067408e-06
5.2067408e-06
5.2067408e-06
2.3908399e-06
1.8631427e-07
1.4895568e-07
3.400846e-07
3.6103816e-05
4.2015446e-05
5.332957e-06
2.4414301e-08
1.4270605e-08
1.2439181e-08
1.4270606e-08
2.3753635e-06
1.1883206e-05
2.1135481e-05
1.8783839e-05
6.5171442e-06
2.3299486e-06
4.097367e-08
6.961727e-09
1.9580165e-10
5.9637246e-12
5.9096196e-14
3.6685549e-14
3.5150467e-14
2.8223246e-15
5.689676e-17
5.3756132e-18
1.6863777e-19
2.4664554e-21
4.2418408e-23
8.7255248e-25
1.0208031e-26
8.7001531e-29
5.2445841e-31
2.2013642e-33
6.8681359e-36
2.2978283e-38
9.4047562e-40
1.0785193e-38
4.574843e-37
1.7577872e-35
6.7128072e-34
2.5615343e-32
9.6867752e-31
3.4322982e-29
1.0532673e-27
2.741446e-26
6.0932189e-25
1.1638784e-23
1.9085454e-22
2.6619054e-21
3.0949279e-20
2.7759971e-19
1.5671729e-18
4.4179188e-18
6.079667e-18
1.2846142e-37
5.716495e-38
5.3444208e-39
9.1833905e-41
1.1252051e-42
1.6380097e-42
9.7875171e-43
3.5687442e-43
7.8213015e-44
1.058567e-43
9.2513704e-42
2.2345812e-39
4.6402074e-37
9.5245665e-35
1.5936679e-32
2.0110248e-30
2.0815509e-28
1.8471542e-26
1.441933e-24
1.0012882e-22
6.1557843e-21
3.4378106e-19
2.141018e-17
1.8142922e-15
8.7096306e-14
1.3786195e-12
7.7761196e-12
8.0897455e-12
5.967771e-11
4.6880151e-10
1.0510934e-10
8.9294755e-11
8.8045371e-12
8.7388469e-12
8.7390583e-12
3.9847749e-07
8.2704624e-07
5.660574e-07
1.4650844e-06
5.0901073e-06
5.1842788e-06
5.1963006e-06
5.2067408e-06
5.0055058e-06
7.6275567e-07
2.7306461e-07
2.5380291e-07
8.3010986e-05
0.00017354558
4.6185687e-05
2.340534e-07
1.9683933e-08
1.2439089e-08
1.2439181e-08
3.6572838e-08
1.6631391e-07
3.4969776e-07
7.1018508e-07
5.9836728e-07
1.7573172e-08
9.0799733e-09
2.527248e-09
4.2950002e-10
6.9411707e-12
9.0746571e-13
5.1823087e-14
4.520799e-14
8.3786073e-15
5.1904104e-16
5.3467448e-17
2.5306324e-18
5.3509677e-20
-9.349469e-21
8.0741654e-23
1.2024655e-25
1.0470419e-27
7.7667782e-30
5.5736687e-32
5.5456775e-34
4.8247279e-36
5.2980535e-38
2.6522457e-38
1.4725097e-36
5.2628977e-35
1.870704e-33
6.5979928e-32
2.3141334e-30
7.9771228e-29
2.5577749e-27
7.1030872e-26
1.6794696e-24
3.4170279e-23
6.0549273e-22
9.3456042e-21
1.2392118e-19
1.3798333e-18
1.1907727e-17
6.5431936e-17
1.8821993e-16
2.777937e-16
3.1893719e-35
1.4551377e-35
1.4443455e-36
2.6362523e-38
9.3175646e-41
2.045572e-40
8.1613301e-41
2.8694512e-41
7.0238032e-42
4.6188891e-42
1.2765757e-40
3.7859276e-38
6.6887032e-36
9.2114442e-34
1.0862231e-31
1.0954022e-29
9.6468089e-28
7.5127122e-26
5.2338735e-24
3.2275879e-22
1.7480533e-20
8.3985812e-19
3.9403363e-17
2.0449006e-15
8.0785459e-14
1.0874966e-12
1.1310234e-12
5.1842075e-11
1.114609e-08
5.7440867e-08
5.3443796e-08
3.0379774e-09
1.7948654e-09
7.617437e-10
8.7388461e-12
1.7293434e-08
2.5619946e-07
3.4352361e-07
6.7526255e-07
2.9645977e-06
5.1406307e-06
5.1767187e-06
4.6893113e-06
6.5722452e-07
3.6897775e-07
3.6713444e-07
3.6687871e-07
0.0001895477
0.00018831894
4.1353208e-05
1.7691849e-07
5.1075928e-08
3.6376604e-08
1.353789e-08
4.8993747e-09
6.1207966e-09
1.4713593e-08
1.0111526e-08
2.4870841e-09
1.1027895e-09
5.2187185e-10
1.5217938e-10
2.368525e-11
1.2327242e-12
6.3574094e-13
5.2597482e-13
2.1554406e-13
7.7769167e-14
1.8097019e-14
1.7824786e-15
1.0177872e-18
1.8798506e-19
-7.7306717e-20
2.4331273e-22
8.9520744e-26
2.20355e-27
3.8201528e-29
6.2458018e-31
8.0111797e-33
7.3997846e-35
1.3070813e-36
3.9178753e-36
1.5179717e-34
5.0603201e-33
1.6766564e-31
5.4973031e-30
1.78227e-28
5.6377576e-27
1.650387e-25
4.1698665e-24
8.9339371e-23
1.6497466e-21
2.6957349e-20
3.9261548e-19
4.9682643e-18
5.3258044e-17
4.5063423e-16
2.4183986e-15
6.9281584e-15
1.091423e-14
7.023346e-33
3.3043084e-33
3.4971916e-34
6.7595245e-36
2.899085e-38
8.4165588e-39
5.8103139e-39
2.3445782e-39
5.4369929e-40
1.7060253e-40
3.878647e-39
1.3290403e-37
1.3163472e-35
1.8363038e-33
2.1944619e-31
2.2480722e-29
1.9939265e-27
1.5483945e-25
9.7818122e-24
5.9757236e-22
3.3184404e-20
1.5693577e-18
7.4078587e-17
2.5889247e-15
6.2836226e-15
-2.8284084e-13
2.1952707e-10
1.3022441e-05
4.9569495e-05
3.731952e-05
5.0054999e-06
5.4085497e-09
2.0096327e-09
7.9273266e-09
7.742678e-09
8.1266635e-09
8.6538818e-09
1.4261194e-08
1.55028e-08
1.1898705e-07
1.0291171e-07
1.3626083e-07
1.9461925e-07
3.559102e-07
3.867604e-07
3.670725e-07
2.3683563e-05
0.00021926199
0.00017168806
1.4583901e-05
2.0037961e-07
1.6123191e-07
6.2951058e-07
1.8453446e-07
1.1646368e-10
1.5544459e-10
5.9943149e-10
3.3804993e-10
2.298457e-10
1.0940001e-10
5.5305109e-11
2.7723222e-11
1.8710671e-11
1.7954395e-11
1.5713891e-11
1.501675e-11
4.0673302e-12
9.4197475e-13
1.7835371e-13
1.6558622e-14
3.6419808e-21
7.7131181e-20
-2.2146476e-19
1.2937336e-21
8.3324714e-25
4.4061163e-26
7.0720127e-28
1.1648644e-29
1.435966e-31
1.2932623e-33
3.7877177e-35
3.9874144e-34
1.3190105e-32
4.1408436e-31
1.2896794e-29
3.9573349e-28
1.193285e-26
3.4911879e-25
9.4456567e-24
2.1902606e-22
4.2316729e-21
6.9328102e-20
1.0162253e-18
1.3941451e-17
1.7362933e-16
1.8271901e-15
1.4717719e-14
6.4978376e-14
1.3464766e-13
1.4189056e-13
1.3781799e-30
6.7245396e-31
7.614185e-32
1.5558712e-33
7.6058561e-36
1.0981689e-38
3.6978038e-37
1.8671662e-37
4.1668864e-38
1.4871378e-38