/*--------------------------------*- C++ -*----------------------------------*\
  =========                 |
  \\      /  F ield         | OpenFOAM: The Open Source CFD Toolbox
   \\    /   O peration     | Website:  https://openfoam.org
    \\  /    A nd           | Version:  9
     \\/     M anipulation  |
\*---------------------------------------------------------------------------*/
FoamFile
{
    format      ascii;
    class       surfaceScalarField;
    location    "0.89";
    object      alphaPhi0.phase1;
}
// * * * * * * * * * * * * * * * * * * * * * * * * * * * * * * * * * * * * * //

dimensions      [0 3 -1 0 0 0 0];

internalField   nonuniform List<scalar> 
19800
(
9.6840282e-89
2.6364415e-88
6.2713798e-88
1.1004546e-87
2.4495133e-86
4.97751e-86
5.7182153e-86
2.2437576e-85
4.6213698e-86
2.6238077e-85
6.4046372e-87
1.0367962e-85
2.0351438e-87
3.577249e-86
-9.3045015e-88
3.6752222e-86
-1.9801609e-86
1.2669108e-85
-5.3380613e-84
1.7259017e-83
-1.0060998e-81
2.1619418e-81
-1.5294901e-79
2.4198153e-79
-1.99674e-77
2.4566502e-77
-2.2998816e-75
2.2804567e-75
-2.3765507e-73
1.9454643e-73
-2.2304611e-71
1.5314358e-71
-1.920065e-69
1.1180256e-69
-1.5256265e-67
7.5974608e-68
-1.1258861e-65
4.8451942e-66
-7.6418311e-64
2.909247e-64
-4.5794211e-62
1.6559782e-62
-2.6920164e-60
9.3999133e-61
-2.2613714e-58
6.8551914e-59
-4.5320926e-56
1.0586105e-56
-1.3299295e-53
2.6578684e-54
-3.6881505e-51
6.7084529e-52
-8.9009831e-49
1.4980431e-49
-1.8531288e-46
2.9059301e-47
-3.3354221e-44
4.8938928e-45
-5.2103779e-42
7.1732196e-43
-7.0940574e-40
9.1820774e-41
-8.4553758e-38
1.0302343e-38
-8.8637093e-36
1.0174061e-36
-8.214244e-34
8.8864338e-35
-6.7674894e-32
6.9002433e-33
-4.986629e-30
4.7892297e-31
-3.3068734e-28
2.9899045e-29
-1.9860337e-26
1.6907337e-27
-1.0868254e-24
8.7254571e-26
-5.4481274e-23
4.1412417e-24
-2.5108031e-21
1.8200239e-22
-1.0881554e-19
7.425057e-21
-5.0967384e-18
2.8096368e-19
-1.3211811e-16
1.0874987e-17
-1.623774e-15
1.4046005e-15
-1.1724264e-13
9.206091e-14
-1.0080386e-11
-2.2434056e-15
-1.2777219e-10
0
-3.2838532e-10
-1.7909578e-10
-2.3447216e-10
-1.7581778e-09
1.2990507e-10
-3.3419554e-09
6.9787352e-10
-4.4347022e-09
1.3608105e-09
-5.232629e-09
3.2609086e-09
-8.5433313e-09
5.2422082e-09
-1.052699e-08
3.4836354e-09
-4.4127118e-09
3.2356432e-09
-1.4938841e-09
3.6608086e-09
-1.6453995e-09
8.9218382e-09
-2.8122922e-09
8.9968856e-09
-4.6421109e-09
1.9854706e-09
-8.866897e-10
7.8953769e-11
5.2174917e-10
5.82518e-12
7.1055415e-11
2.0010922e-13
5.6181468e-12
5.7012477e-15
2.0043562e-13
1.4400333e-15
7.4024156e-15
5.0849484e-16
4.7936758e-16
3.6512549e-17
8.0731105e-17
8.6131806e-19
4.9287701e-18
1.9304229e-20
1.7031025e-19
4.7325526e-22
5.246246e-21
1.0089717e-23
1.404715e-22
1.7944781e-25
3.1581746e-24
2.6716033e-27
5.935964e-26
3.3051863e-29
9.3050906e-28
3.3498925e-31
1.2101581e-29
2.7270152e-33
1.294528e-31
1.7345909e-35
1.1235287e-33
8.2864782e-38
7.7466269e-36
2.7997984e-40
4.1117753e-38
6.0560838e-43
1.6001205e-40
6.8859301e-46
4.2231774e-43
2.3383048e-49
6.5004075e-46
-2.4746159e-53
3.9156757e-49
-4.7692002e-55
1.325791e-52
-3.5790545e-57
5.880804e-55
-1.9173363e-59
2.2699419e-57
-8.087836e-62
7.5054264e-60
-2.7607641e-64
2.0762997e-62
-7.6312957e-67
4.7076912e-65
-1.0838684e-68
8.3447414e-68
-3.7074793e-68
1.2798206e-69
-6.9451334e-68
9.5650884e-70
-1.3093453e-65
-3.9789769e-67
-1.2931439e-63
-1.2548707e-64
-7.099616e-62
-1.1824458e-62
-2.4264083e-60
-5.5046151e-61
-4.9479189e-59
-1.3777692e-59
-8.9570743e-58
-1.5788114e-58
-6.9295876e-58
1.0491752e-88
2.672698e-88
6.9137326e-87
1.8519122e-86
2.0313545e-85
6.6655961e-85
5.598583e-85
3.073565e-84
5.1403038e-85
4.2211173e-84
2.4996743e-85
3.4378771e-84
8.0562713e-86
1.9764874e-84
2.9416366e-86
1.036992e-84
-6.8117952e-86
5.9049038e-84
-7.8130138e-83
9.1525828e-82
-1.9998842e-80
1.2357638e-79
-3.5920156e-78
1.4886169e-77
-5.26616e-76
1.6179317e-75
-6.6214048e-74
1.5970925e-73
-7.3679234e-72
1.4467513e-71
-7.3599307e-70
1.2072546e-69
-6.698867e-68
9.3554593e-68
-5.6166791e-66
6.7661356e-66
-4.3567942e-64
4.5903194e-64
-3.1123559e-62
2.9383012e-62
-1.9721844e-60
1.7847918e-60
-1.2001158e-58
1.0664404e-58
-9.8478056e-57
7.7747721e-57
-1.8020781e-54
1.1326152e-54
-5.2848474e-52
2.8163949e-52
-1.5100728e-49
7.2840985e-50
-3.7691811e-47
1.6938653e-47
-8.1086995e-45
3.4334641e-45
-1.505475e-42
6.0326053e-43
-2.4211073e-40
9.1985278e-41
-3.386696e-38
1.2207973e-38
-4.1388207e-36
1.4151577e-36
-4.4398049e-34
1.4386569e-34
-4.2020298e-32
1.288664e-32
-3.528523e-30
1.0224012e-30
-2.6447912e-28
7.2271856e-29
-1.7808801e-26
4.5834934e-27
-1.0844038e-24
2.6291622e-25
-6.0055432e-23
1.3767298e-23
-3.0425156e-21
6.6492256e-22
-1.4825572e-19
3.0016077e-20
-7.6286426e-18
1.2844613e-18
-2.0165914e-16
4.8063263e-17
-2.9317224e-15
1.894072e-15
-1.462284e-13
1.2128645e-13
-4.927039e-12
4.1855748e-12
-5.8724007e-11
4.0709194e-11
-1.3302812e-08
-8.4338464e-09
-9.1505012e-09
-5.3833851e-08
2.1527102e-09
-5.7884507e-08
1.3468731e-08
-5.9689009e-08
3.1480223e-08
-5.6891268e-08
5.0547403e-08
-4.1086949e-08
6.1550011e-08
-3.127232e-08
3.5179122e-08
-3.0081664e-08
4.4984033e-09
-1.645421e-08
5.4872486e-09
-2.8464826e-09
5.8790337e-09
-2.3088221e-09
5.3707403e-08
-2.2751713e-09
8.7862569e-08
-1.1051044e-08
4.3006708e-08
4.2371127e-09
6.8123288e-09
4.9320475e-09
6.4594704e-10
6.1844832e-09
1.8754888e-11
6.2954446e-10
8.1739112e-13
1.7957658e-11
2.6138384e-14
7.86159e-13
4.3247936e-16
2.5169592e-14
6.6663666e-17
3.2524727e-16
4.2930528e-18
3.164692e-17
7.0990619e-20
1.3859245e-18
1.1620768e-21
3.1624319e-20
2.1455859e-23
6.883736e-22
3.4713884e-25
1.336604e-23
4.7020934e-27
2.2045029e-25
5.2941919e-29
3.0556556e-27
4.868098e-31
3.530272e-29
3.5625302e-33
3.3363758e-31
2.0029004e-35
2.5206925e-33
8.2203257e-38
1.4703137e-35
2.271594e-40
6.2681699e-38
3.6385508e-43
1.8642624e-40
2.3876053e-46
3.8728799e-43
4.1514505e-51
4.0436818e-46
-2.547159e-52
1.6537961e-49
-2.6147811e-54
9.7241159e-52
-1.732788e-56
4.4620989e-54
-8.779257e-59
1.7538967e-56
-3.5564025e-61
5.8048998e-59
-1.1677945e-63
1.58062e-61
-2.9561305e-66
3.4252896e-64
-4.0595355e-67
6.1926624e-67
-9.9149572e-67
8.5517702e-68
-2.1490121e-64
2.0480705e-66
-2.9146057e-62
-1.9662241e-63
-2.2807503e-60
-3.4328999e-61
-1.0732274e-58
-2.5337772e-59
-3.4100583e-57
-9.969973e-58
-6.7834377e-56
-2.119572e-56
-2.487734e-55
-1.9032287e-55
-4.9437186e-55
7.0099712e-86
3.3031824e-85
1.0016559e-83
2.5953539e-83
1.9974914e-82
6.5518756e-82
4.2748982e-82
2.3353191e-81
3.9785106e-82
2.8890154e-81
1.9441623e-82
2.2081294e-81
6.8481156e-83
1.2116963e-81
3.4561489e-83
6.2807438e-82
1.1038317e-82
2.6410753e-81
-7.5890905e-81
4.2590362e-79
-5.3118675e-78
5.9600413e-77
-1.2022557e-75
7.399468e-75
-1.9580592e-73
8.2511304e-73
-2.6364871e-71
8.3495319e-71
-3.0662301e-69
7.725428e-69
-3.1704102e-67
6.5773486e-67
-2.9620246e-65
5.1903743e-65
-2.5207265e-63
3.8067078e-63
-1.9782698e-61
2.6166559e-61
-1.4423783e-59
1.6905493e-59
-9.776227e-58
1.0289711e-57
-6.0009914e-56
5.9003936e-56
-3.2440609e-54
3.1961379e-54
-1.809156e-52
1.7378306e-52
-1.4487226e-50
1.2067425e-50
-2.0663117e-48
1.4604585e-48
-4.4310343e-46
2.689603e-46
-9.6613857e-44
5.2089935e-44
-1.8680975e-41
9.2932498e-42
-3.1300854e-39
1.4800841e-39
-4.5464816e-37
2.0511931e-37
-5.7468051e-35
2.4689188e-35
-6.3499113e-33
2.5913811e-33
-6.1638495e-31
2.3826996e-31
-5.2851458e-29
1.9290703e-29
-4.0271324e-27
1.3836053e-27
-2.7447158e-25
8.8553723e-26
-1.6844144e-23
5.102888e-24
-9.373091e-22
2.6762916e-22
-4.8647008e-20
1.2957829e-20
-2.501763e-18
5.8993663e-19
-8.505251e-17
2.4582437e-17
-1.5969535e-15
9.3295044e-16
-6.5722759e-14
4.2695415e-14
-2.7301584e-12
1.9941053e-12
-8.565315e-11
6.3509699e-11
-1.5924735e-08
2.9963366e-10
-3.7378864e-08
-4.414354e-08
-6.577865e-10
-7.7265889e-08
3.4117694e-08
-8.4231896e-08
6.2455832e-08
-8.2050204e-08
8.4652612e-08
-7.3111105e-08
1.0323681e-07
-5.3694202e-08
1.0964244e-07
-3.1676802e-08
1.0403252e-07
-1.8214152e-08
1.0362622e-08
-6.6861035e-09
7.9083756e-09
-1.263679e-09
9.8278571e-09
-4.592036e-09
1.0707243e-08
-3.8801396e-09
7.9999476e-08
-8.2812835e-10
9.2064771e-08
2.431612e-09
8.0331114e-08
2.2141856e-08
4.5871507e-08
3.0084349e-08
6.8713617e-10
2.0564715e-08
2.4902796e-11
6.7530314e-10
1.0464442e-12
2.4210256e-11
3.4516467e-14
1.01739e-12
1.4450505e-15
3.2474104e-14
3.194772e-16
1.7615568e-15
3.0078858e-17
1.6887763e-16
2.687648e-19
6.0605261e-18
2.8014099e-21
1.1059866e-19
3.8483055e-23
1.8365243e-21
4.5477906e-25
2.6510616e-23
4.3892213e-27
3.1329385e-25
3.3813754e-29
2.9475818e-27
1.9991834e-31
2.2806692e-29
8.7212701e-34
1.4929552e-31
3.0023826e-36
7.4073664e-34
6.4411668e-39
2.6326189e-36
5.5430998e-42
5.9699569e-39
2.0214349e-46
6.7482052e-42
-3.766207e-49
1.1897729e-45
-4.6492136e-51
2.2561311e-48
-3.5470415e-53
1.1809021e-50
-2.0462858e-55
5.2707016e-53
-9.3990957e-58
1.9902808e-55
-3.4958456e-60
6.2482973e-58
-1.0579862e-62
1.5942826e-60
-2.2345654e-65
3.2178239e-63
-2.8147064e-65
8.8871125e-66
-1.9857073e-63
1.5855389e-64
-3.3791857e-61
-4.5352478e-63
-3.6788875e-59
-3.9736353e-60
-2.3846451e-57
-4.9683884e-58
-9.7140733e-56
-3.0226863e-56
-2.6978779e-54
-1.0353489e-54
-4.4841377e-53
-1.9621193e-53
-1.6764278e-52
-1.6156712e-52
-4.1755271e-52
4.1205751e-83
1.7949409e-82
8.364448e-81
1.9829499e-80
1.2343813e-79
3.7720551e-79
2.2126228e-79
1.1076075e-78
2.099137e-79
1.2953776e-78
1.0426902e-79
9.7928631e-79
3.8605954e-80
5.2812885e-79
2.232804e-80
2.7029449e-79
8.5601196e-80
9.5277639e-79
7.1488469e-78
1.6154255e-76
-4.5838551e-76
2.3518896e-74
-2.6788387e-73
3.0328411e-72
-5.4841994e-71
3.4882524e-70
-8.2888557e-69
3.6342275e-68
-1.03337e-66
3.4486949e-66
-1.1221938e-64
3.0093874e-64
-1.0854852e-62
2.426883e-62
-9.5231445e-61
1.8189034e-60
-7.6350312e-59
1.2731693e-58
-5.6712738e-57
8.3690763e-57
-3.9226771e-55
5.1805414e-55
-2.4654047e-53
3.0081121e-53
-1.3690448e-51
1.629073e-51
-7.5599053e-50
8.4818002e-50
-5.3773099e-48
4.811304e-48
-3.8447933e-46
3.0863172e-46
-1.6889357e-44
1.6333487e-44
-7.7020253e-43
7.2551329e-43
-1.0228844e-40
6.8983221e-41
-1.7566222e-38
9.004768e-39
-2.6835037e-36
9.2092673e-37
-3.5235794e-34
1.0973295e-34
-4.0058054e-32
1.1740834e-32
-3.9653703e-30
1.1001227e-30
-3.4370523e-28
9.0965228e-29
-2.6247048e-26
6.5669791e-27
-1.7778841e-24
4.1702977e-25
-1.0754993e-22
2.353016e-23
-5.886894e-21
1.1977791e-21
-3.0740159e-19
5.6274153e-20
-1.4236612e-17
2.4899227e-18
-3.2401053e-16
9.7239505e-17
-5.9661426e-15
3.9740497e-15
-2.5819673e-13
2.0811074e-13
-1.1885896e-11
1.0788796e-11
-6.4915133e-10
3.629128e-10
-4.053516e-08
-4.4743186e-09
-1.0419833e-08
-2.7430203e-08
1.1619744e-08
-1.2386565e-09
3.6740683e-08
-1.0241898e-09
8.3891087e-08
-1.0863593e-08
7.7973601e-08
-4.6153151e-08
4.3879116e-08
0
2.6469229e-08
0
1.6822746e-08
-1.1905813e-08
2.5819439e-08
-1.5749555e-08
2.0735057e-08
-2.8566048e-09
1.8219383e-08
-1.8857054e-08
1.54221e-08
-4.2804516e-09
1.5391366e-08
-5.493428e-09
5.0090734e-08
2.6994713e-09
8.5741591e-08
1.9270258e-08
8.4480348e-08
4.0621309e-08
2.1073523e-08
3.615125e-08
2.3186132e-10
8.9582922e-09
9.508794e-12
2.1401072e-10
3.3580801e-13
8.7791039e-12
9.0826247e-15
3.0822219e-13
3.6076952e-16
9.3049946e-15
1.8809819e-17
3.0227298e-16
3.1425773e-19
8.8659986e-18
3.9033936e-21
1.7270971e-19
4.9642469e-23
2.7285555e-21
5.2020044e-25
3.4626591e-23
4.2528675e-27
3.8087862e-25
2.6937787e-29
3.4364889e-27
1.2740196e-31
2.3023663e-29
4.1250099e-34
1.0787881e-31
7.9919812e-37
3.4495238e-34
6.8588732e-40
6.4927809e-37
5.8083864e-44
5.7160688e-40
-4.1909686e-46
8.1706944e-43
-5.7194517e-48
2.4739962e-45
-4.8612553e-50
1.7927277e-47
-3.128917e-52
8.8994108e-50
-1.6080181e-54
3.7531862e-52
-6.7341911e-57
1.3303479e-54
-2.3300225e-59
3.9225306e-57
-6.6819786e-62
9.5010707e-60
-6.1022719e-63
2.0741807e-62
-1.504615e-62
2.3083635e-63
-2.7153481e-60
1.550658e-61
-3.7050964e-58
-1.6137277e-59
-3.2547128e-56
-4.8932893e-57
-1.7761825e-54
-4.7078388e-55
-6.3133909e-53
-2.4134342e-53
-1.5512344e-51
-7.2680905e-52
-2.2172894e-50
-1.2381655e-50
-8.0818507e-50
-9.366339e-50
-2.3721013e-49
1.7917566e-80
6.9717268e-80
4.2038074e-78
8.848284e-78
5.3992425e-77
1.4804727e-76
8.8457304e-77
3.9219467e-76
8.5542311e-77
4.4439421e-76
4.3526466e-77
3.3543311e-76
1.6644472e-77
1.7957064e-76
1.0436988e-77
9.0941349e-77
3.802872e-77
2.7018716e-76
5.4882826e-75
4.9007191e-74
3.8353298e-73
7.5253096e-72
-9.7104516e-72
1.0075776e-69
-9.1152761e-69
1.2042754e-67
-1.8130488e-66
1.2925886e-65
-2.5915333e-64
1.2611755e-63
-3.0413932e-62
1.126676e-61
-3.1108548e-60
9.2937365e-60
-2.840975e-58
7.1082729e-58
-2.348629e-56
5.0641546e-56
-1.7864392e-54
3.3828513e-54
-1.2607064e-52
2.1251313e-52
-8.0839986e-51
1.2517263e-50
-4.5012898e-49
6.8442265e-49
-2.3988328e-47
3.5656302e-47
-1.7799279e-45
2.0396096e-45
-1.8553446e-43
1.4462069e-43
-1.1478334e-41
8.6529891e-42
-2.4173169e-40
2.5340926e-40
-2.5076317e-39
3.6021724e-39
-3.8475602e-38
4.1924178e-38
-2.7100068e-36
1.3460709e-36
-3.3271169e-34
1.3257663e-34
-3.8577628e-32
1.4165733e-32
-3.9244339e-30
1.3468772e-30
-3.4795936e-28
1.1163404e-28
-2.6974762e-26
8.0584834e-27
-1.8367468e-24
5.0588224e-25
-1.1062648e-22
2.834892e-23
-5.9866396e-21
1.4255867e-21
-3.1191757e-19
6.5764591e-20
-1.4237063e-17
2.8359045e-18
-2.7940602e-16
1.0740884e-16
-4.169056e-15
4.3867843e-15
-1.6313736e-13
2.3687747e-13
-6.7419508e-12
1.2377406e-11
-7.2628164e-09
6.3158813e-10
-8.198615e-09
-1.109647e-08
2.7318014e-10
-2.4872725e-09
1.9524477e-10
-1.161692e-09
4.3037043e-10
-1.2553509e-09
1.8820631e-09
-1.231627e-08
1.986255e-08
-4.9460661e-08
8.4972626e-08
-6.6301308e-08
1.1956359e-07
-1.1844849e-07
1.405946e-07
-1.5166798e-07
2.7716688e-07
-2.1982475e-07
6.1597358e-07
-2.0010959e-07
5.5129466e-07
-1.6408569e-07
2.646604e-07
-6.4265342e-08
2.8701546e-08
1.0518555e-08
2.9400683e-08
2.6850991e-08
5.1152476e-08
1.3990526e-08
7.2095032e-08
4.3603545e-08
6.8344086e-08
5.7794449e-08
6.3074479e-10
3.9199974e-08
2.21905e-11
7.4872226e-10
6.7859318e-13
2.6862232e-11
1.8269641e-14
8.5027649e-13
5.12272e-16
2.344558e-14
1.8561341e-17
6.0411488e-16
3.3731413e-19
1.3686556e-17
4.1978469e-21
2.2880814e-19
4.4160266e-23
3.2657396e-21
3.7648941e-25
3.8475538e-23
2.5241646e-27
3.3083958e-25
1.2287464e-29
2.1904135e-27
4.0154396e-32
1.0231924e-29
7.7358416e-35
3.1117053e-32
6.4679946e-38
5.4789364e-35
2.2264762e-42
7.4484244e-38
-3.5803058e-43
2.6009909e-40
-5.1390012e-45
2.1007615e-42
-4.6525637e-47
1.3555685e-44
-3.1147204e-49
7.1511904e-47
-1.6579657e-51
3.2610587e-49
-7.4261621e-54
1.3024837e-51
-2.896573e-56
4.535341e-54
-1.0092791e-58
1.3676599e-56
-2.8756626e-61
3.5835137e-59
-3.5159917e-61
1.5901501e-61
-1.8521301e-59
2.7682221e-60
-2.7004003e-57
8.3712939e-59
-3.0038602e-55
-2.3104701e-56
-2.161241e-53
-4.1838394e-54
-1.0036087e-51
-3.2112037e-52
-3.1330324e-50
-1.4071429e-50
-6.8644569e-49
-3.7529568e-49
-8.6110391e-48
-5.7788467e-48
-2.9934949e-47
-4.0339117e-47
-9.9119685e-47
5.9714145e-78
2.0610218e-77
1.5077598e-75
2.7872937e-75
1.819538e-74
4.3942292e-74
2.8481918e-74
1.1034886e-73
2.8114817e-74
1.2293517e-73
1.4645771e-74
9.3198479e-74
5.735735e-75
4.9799683e-74
3.7485968e-75
2.4900936e-74
1.1104691e-74
5.9041484e-74
2.1822507e-72
1.1813306e-71
2.4593588e-70
1.9481578e-69
1.8434268e-68
2.7507818e-67
3.0060298e-67
3.4102569e-65
-1.9811565e-64
3.7904349e-63
-4.279494e-62
3.8058285e-61
-6.0139657e-60
3.4885769e-59
-6.7551614e-58
2.9366783e-57
-6.5446821e-56
2.2863623e-55
-5.6636617e-54
1.6561485e-53
-4.4394093e-52
1.1200161e-51
-3.1977414e-50
7.1062861e-50
-2.0913358e-48
4.2234914e-48
-1.197347e-46
2.3310367e-46
-6.3623016e-45
1.2166273e-44
-4.3075122e-43
6.7351639e-43
-4.2677809e-41
4.568484e-41
-3.1413321e-39
2.9154691e-39
-9.542532e-38
1.0141169e-37
-1.2465571e-36
1.6524331e-36
-1.0294481e-35
1.601535e-35
-9.216892e-35
1.4210718e-34
-1.5819646e-33
1.9078802e-33
-6.4699843e-32
5.0133417e-32
-4.2360298e-30
2.145617e-30
-2.8919174e-28
1.280337e-28
-1.8066078e-26
7.0864787e-27
-1.0789296e-24
3.6377116e-25
-6.1577975e-23
1.8679328e-23
-3.231043e-21
6.7702014e-22
-1.5995131e-19
2.5589103e-20
-7.2578148e-18
9.5533549e-19
-1.6606693e-16
3.2407982e-17
0
1.1583174e-15
0
6.7832258e-14
0
4.2166291e-12
-2.1456032e-09
2.7861059e-10
-6.6871339e-11
-7.7126575e-09
8.871598e-11
-2.6373173e-09
3.0295495e-10
-1.3720091e-09
5.5441446e-10
-1.4785726e-09
5.0844701e-08
-7.709934e-08
3.728349e-07
-5.2414913e-07
7.7780289e-07
-6.8441804e-07
9.5807848e-07
-5.7865871e-07
9.227589e-07
-3.9347083e-07
9.7528845e-07
-2.7133594e-07
9.5979614e-07
-1.7940745e-07
9.6097771e-07
-1.6429453e-07
9.3933095e-07
-4.1640968e-08
8.6366765e-07
8.7158567e-08
7.8239904e-08
1.0284685e-07
4.0157739e-08
6.1743803e-08
4.7221093e-08
5.8380721e-08
5.0968323e-08
6.4281787e-08
8.2097607e-09
4.5616323e-08
3.0790359e-11
2.1144206e-09
7.3148392e-13
4.8972087e-11
1.5911221e-14
1.3317858e-12
2.7455618e-16
3.3231524e-14
1.8088272e-17
7.7223979e-16
2.9830014e-19
1.6306402e-17
3.0193886e-21
2.5190327e-19
2.6553694e-23
2.8057106e-21
1.7694e-25
2.4491468e-23
8.3799316e-28
1.5421398e-25
2.6149988e-30
6.8455375e-28
4.5363469e-33
2.021293e-30
3.1066068e-36
4.7387668e-33
-2.6297803e-39
1.7727388e-35
-9.6477731e-41
5.6920926e-38
-1.2535148e-42
5.214734e-40
-1.1439571e-44
3.5918829e-42
-8.3438555e-47
1.9968628e-44
-5.2172194e-49
9.8033335e-47
-2.9268637e-51
4.512783e-49
-1.5113656e-53
1.9942664e-51
-7.343721e-56
8.2886519e-54
-3.1369248e-58
3.1567488e-56
-4.9075456e-59
1.1989016e-58
-1.1591245e-58
2.5752863e-59
-1.6021546e-56
1.9602959e-57
-2.0383182e-54
7.6469029e-57
-1.8695525e-52
-2.1003031e-53
-1.1157651e-50
-2.6434922e-51
-4.456129e-49
-1.6588543e-49
-1.2325151e-47
-6.288073e-48
-2.4222322e-46
-1.4977401e-46
-2.704847e-45
-2.0940274e-45
-8.856119e-45
-1.3547945e-44
-3.2090474e-44
1.8032005e-75
5.4042879e-75
4.2567926e-73
6.809838e-73
5.0144042e-72
1.0484816e-71
7.6506884e-72
2.5701532e-71
7.6881289e-72
2.8412016e-71
4.0961194e-72
2.1727234e-71
1.623944e-72
1.1642547e-71
1.0764996e-72
5.6625327e-72
2.0338061e-72
9.3710466e-72
5.8416025e-70
2.224596e-69
8.3498723e-68
4.0867678e-67
9.1033659e-66
6.1955636e-65
7.3044548e-64
8.0939761e-63
3.2631317e-62
9.3293989e-61
-1.9722817e-60
9.6575869e-59
-6.805604e-58
9.0842819e-57
-1.0001466e-55
7.8204103e-55
-1.1069075e-53
6.2005528e-53
-1.0349805e-51
4.5573322e-51
-8.5443949e-50
3.1178359e-49
-6.3786908e-48
1.99599e-47
-4.2757241e-46
1.1930536e-45
-2.53324e-44
6.627414e-44
-1.400358e-42
3.4834623e-42
-8.8469811e-41
1.8797062e-40
-7.0475919e-39
1.1429875e-38
-4.9692048e-37
6.7380684e-37
-2.0432704e-35
2.6855517e-35
-4.2346397e-34
5.9553152e-34
-4.6160991e-33
7.4656617e-33
-3.2979928e-32
6.1869154e-32
-2.452863e-31
4.6816255e-31
-3.7800205e-30
5.6670123e-30
-1.8277561e-28
1.7626908e-28
-1.4194872e-26
9.3170038e-27
-5.8422562e-25
3.9797373e-25
-9.0348103e-24
8.0235169e-24
-1.0494135e-22
7.9562114e-23
-2.0840134e-21
8.2690624e-22
-6.8764262e-20
1.9657869e-20
-2.3415203e-18
5.9525876e-19
-6.1801537e-17
1.7191069e-17
-4.6618375e-17
5.1879984e-16
0
1.9164689e-14
0
6.3433308e-13
-4.7273574e-10
7.8844191e-12
1.9960197e-10
-8.3732e-09
2.1526583e-10
-2.6558104e-09
4.403399e-10
-1.5658605e-09
6.8775738e-10
-1.6635011e-09
1.5841148e-07
-1.4068382e-07
4.7955362e-07
-7.7662509e-07
6.5675139e-07
-7.9534361e-07
7.9849606e-07
-6.7276634e-07
8.9847471e-07
-4.9649161e-07
9.7788992e-07
-3.6607254e-07
1.0676493e-06
-2.7065148e-07
1.006644e-06
-1.0245888e-07
9.6534094e-07
6.5004323e-10
3.4048378e-07
7.8785816e-08
0
3.9240227e-08
7.0919551e-08
2.6951829e-07
2.8519561e-08
2.2951794e-07
1.7623789e-08
6.3524464e-08
3.5348905e-09
1.8134657e-08
0
1.3196427e-09
0
2.893056e-11
0
6.6124863e-13
2.7761624e-16
1.5285589e-14
8.6901769e-18
3.9412306e-16
1.1533114e-19
7.5419816e-18
1.0753214e-21
9.9223448e-20
7.1603192e-24
9.0693987e-22
3.2595577e-26
5.8862359e-24
9.3992368e-29
3.0346112e-26
1.5932189e-31
1.4888657e-28
1.0462776e-34
8.6400044e-31
-3.3067074e-36
3.9894241e-33
-6.6162452e-38
3.7308203e-35
-8.1646693e-40
3.8781545e-37
-7.6883375e-42
2.8757827e-39
-5.9576713e-44
1.8449052e-41
-4.1103899e-46
1.0416587e-43
-2.5859504e-48
5.4148398e-46
-1.572833e-50
2.6059339e-48
-8.5180082e-53
1.2061762e-50
-3.5500322e-55
4.8071458e-53
-1.4115657e-57
1.4597609e-55
-1.8361406e-57
9.518243e-58
-1.0284229e-55
2.1812366e-56
-1.1688404e-53
1.0273527e-54
-1.2239668e-51
-3.3659682e-53
-9.1295475e-50
-1.358016e-50
-4.5827795e-48
-1.2790475e-48
-1.5909152e-46
-6.702502e-47
-3.9277486e-45
-2.2233012e-45
-6.9739987e-44
-4.7620818e-44
-7.0058175e-43
-6.078355e-43
-2.146941e-42
-3.658831e-42
-8.3253824e-42
9.961364e-73
2.5411565e-72
9.9496947e-71
1.3608684e-70
1.1681182e-69
2.0842512e-69
1.7688274e-69
5.0808168e-69
1.8064208e-69
5.6172841e-69
9.8479312e-70
4.3577393e-69
3.8871444e-70
2.3694612e-69
1.8211093e-70
1.0520283e-69
1.615347e-70
7.7252725e-70
1.0324255e-67
2.971014e-67
1.9178865e-65
6.6754406e-65
2.5876269e-63
1.127398e-62
2.7518624e-61
1.5794172e-60
2.3093786e-59
1.9158575e-58
1.4224796e-57
2.0585255e-56
3.8901496e-56
1.9897342e-54
-4.9019533e-54
1.7510438e-52
-1.0574833e-51
1.4168681e-50
-1.2453355e-49
1.056856e-48
-1.164747e-47
7.3197307e-47
-9.3347378e-46
4.7234171e-45
-6.5565736e-44
2.838248e-43
-4.0770472e-42
1.5861754e-41
-2.3836496e-40
8.3949746e-40
-1.4838289e-38
4.4812767e-38
-9.5924108e-37
2.4820176e-36
-5.7720748e-35
1.2906625e-34
-3.1468397e-33
5.5729115e-33
-1.1562881e-31
1.7804384e-31
-1.8605749e-30
3.2157355e-30
-1.295492e-29
2.8614055e-29
-5.9365353e-29
1.5585307e-28
-3.8747624e-28
8.9996296e-28
-1.2421184e-26
1.5766521e-26
-1.3290925e-24
9.3711999e-25
-8.173531e-23
5.1672998e-23
-1.4020593e-21
1.1512072e-21
-9.2308824e-21
9.761037e-21
-5.0389419e-20
4.9567965e-20
-4.1053288e-19
2.8866571e-19
-4.9729711e-18
2.561504e-18
-1.1958215e-16
2.9756905e-17
-3.2179971e-15
6.1853719e-16
0
1.7383961e-14
0
7.5487736e-13
-3.1766242e-10
-4.8988198e-12
2.5403319e-10
-6.4525806e-09
1.962609e-10
-1.6278633e-09
3.7925665e-10
-1.6879539e-09
5.6493112e-10
-1.7107887e-09
1.616628e-07
-2.3855254e-08
3.4250945e-07
-4.3502976e-07
4.7168613e-07
-8.6128168e-07
4.9205159e-07
-6.2774944e-07
4.0171102e-07
-8.8669219e-08
3.5956262e-07
-1.1697534e-08
1.897747e-07
-2.6570206e-09
2.0725251e-08
-8.7118141e-10
2.1459187e-08
9.4658163e-10
9.3650804e-08
6.3529975e-09
4.731112e-07
1.6510397e-07
2.7140418e-07
4.8772631e-07
1.8868128e-08
5.1468515e-07
0
5.6452267e-08
8.5035395e-10
2.7622045e-09
0
8.0770948e-10
0
1.3350642e-11
0
5.2141713e-13
1.2486079e-16
9.6447409e-15
6.628473e-18
3.3356119e-16
4.2719941e-20
6.5417935e-18
2.0804628e-22
5.9518867e-20
9.7996319e-25
5.2040578e-22
3.4452795e-27
2.9845125e-24
8.5213582e-30
2.1731494e-26
-1.0795037e-31
1.9931592e-28
-3.3984117e-33
2.3215366e-30
-5.7513635e-35
2.8300727e-32
-7.4087891e-37
2.7651415e-34
-7.9511777e-39
2.3857664e-36
-7.4511556e-41
1.8447045e-38
-6.1725847e-43
1.2910035e-40
-3.8987195e-45
8.0549433e-43
-2.0303359e-47
3.9066234e-45
-8.8404961e-50
1.5605143e-47
-3.2993542e-52
5.119602e-50
-1.0444742e-54
1.4119146e-52
-2.626679e-55
4.7354135e-55
-5.9210621e-55
1.6656964e-55
-6.6677172e-53
1.1853965e-53
-6.7182774e-51
3.6547477e-52
-5.7911606e-49
-3.4994428e-50
-3.5550473e-47
-6.5743745e-48
-1.5208097e-45
-4.8609035e-46
-4.6378004e-44
-2.1645713e-44
-1.0303909e-42
-6.3509221e-43
-1.6650018e-41
-1.232085e-41
-1.5162315e-40
-1.4440503e-40
-4.3409768e-40
-8.1119802e-40
-1.7712258e-39
1.4049291e-69
2.9669979e-69
1.9825235e-68
2.3954158e-68
2.3578729e-67
3.534929e-67
3.5897785e-67
8.7003353e-67
3.6895369e-67
9.6813659e-67
2.0621921e-67
7.6365075e-67
8.2010159e-68
4.2209169e-67
2.0393329e-68
1.7651871e-67
3.9547037e-69
1.5440941e-68
9.5892744e-66
2.1468753e-65
2.9157858e-63
7.7028696e-63
5.0064431e-61
1.5727474e-60
6.386466e-59
2.4396604e-58
6.5957399e-57
3.1602368e-56
5.642824e-55
3.559878e-54
3.9677795e-53
3.5650012e-52
2.1413281e-51
3.2205517e-50
7.05917e-50
2.6475467e-48
-2.3870103e-48
2.0041289e-46
-6.7576072e-46
1.4040614e-44
-7.4482217e-44
9.1345944e-43
-6.122717e-42
5.5179913e-41
-4.1963029e-40
3.0958585e-39
-2.675434e-38
1.647849e-37
-1.6847963e-36
8.669475e-36
-9.659856e-35
4.4915873e-34
-5.2682976e-33
2.1467572e-32
-3.8596164e-31
1.0062011e-30
-2.3801533e-29
4.5280863e-29
-5.1407563e-28
1.0938967e-27
-3.5997305e-27
1.021343e-26
-1.282561e-26
4.5993162e-26
-4.9744945e-26
1.692688e-25
-1.1627997e-24
1.7643715e-24
-1.8650051e-22
1.311984e-22
-1.2438458e-20
8.3649966e-21
-1.78725e-19
1.6183039e-19
-8.4346273e-19
9.9384291e-19
-2.6248314e-18
3.0576886e-18
-9.0946306e-18
7.9977283e-18
-4.0124532e-17
2.5722325e-17
-3.4554771e-16
9.1718469e-17
-1.57949e-15
1.2340419e-15
-5.4751033e-17
6.7308533e-14
-9.7497391e-12
1.0463635e-11
-1.2855396e-10
-1.7065556e-10
1.0433001e-10
-1.6951712e-09
1.4377837e-11
-1.3018276e-09
2.6683262e-10
-2.0132813e-09
3.9151366e-10
-1.6375392e-09
3.3716054e-09
-2.6696826e-08
5.5016788e-08
-1.4175751e-07
1.3357034e-07
-2.5461704e-07
7.7247355e-08
-1.9985934e-07
1.1198962e-08
-2.1335216e-08
3.9787403e-09
-4.3442725e-09
3.2921642e-09
-1.9680239e-09
3.177858e-09
-7.5207794e-10
3.6536781e-09
4.779795e-10
8.2550879e-09
1.743798e-09
2.7366526e-07
2.4652925e-07
2.617968e-07
4.9388186e-07
1.5140499e-07
6.0796681e-07
1.4223396e-09
2.0051126e-07
0
3.5416652e-09
1.3474495e-11
2.2537249e-10
1.4868976e-12
1.2929726e-11
2.2846559e-14
2.0005096e-12
1.6265562e-14
2.6284535e-13
3.0948326e-16
1.7186319e-14
8.2356812e-20
9.1265873e-17
1.0654774e-22
2.5694354e-19
1.4354502e-25
8.6887272e-22
-3.078269e-27
4.7711304e-24
-1.0360867e-28
6.8686714e-26
-2.0165644e-30
9.4439846e-28
-3.0346999e-32
1.1022222e-29
-3.7924667e-34
1.1262683e-31
-4.0362288e-36
1.0197035e-33
-3.6780856e-38
8.1281268e-36
-2.8736996e-40
5.6325402e-38
-1.9136507e-42
3.3532224e-40
-1.0713774e-44
1.6945354e-42
-5.0176986e-47
7.2863777e-45
-1.957298e-49
2.5996051e-47
-6.6917926e-52
8.2370038e-50
-3.7367596e-54
2.4060955e-52
-5.774253e-54
2.728021e-54
-3.818245e-52
1.0159063e-52
-3.4015691e-50
4.860292e-51
-3.0275038e-48
7.0153194e-50
-2.1744276e-46
-2.0313749e-47
-1.1168469e-44
-2.4575599e-45
-4.1271317e-43
-1.4765378e-43
-1.1165781e-41
-5.6793782e-42
-2.2510552e-40
-1.4880881e-40
-3.3340406e-39
-2.6338562e-39
-2.7685264e-38
-2.8508885e-38
-7.4096717e-38
-1.4985523e-37
-3.1412069e-37
2.060024e-66
3.4770355e-66
3.2120942e-66
4.8707703e-66
4.1900904e-65
5.2216168e-65
6.4794789e-65
1.3068739e-64
6.6909977e-65
1.4744156e-64
3.82709e-65
1.1854155e-64
1.5358658e-65
6.6447764e-65
3.8336567e-66
2.8073315e-65
6.3083382e-67
2.0916922e-66
2.5819295e-64
4.6490688e-64
1.5309386e-61
3.1885132e-61
3.5408835e-59
8.6048177e-59
5.4007447e-57
1.5327602e-56
6.5101873e-55
2.1797511e-54
6.5167546e-53
2.6186679e-52
5.5900365e-51
2.7499672e-50
4.1580295e-49
2.5792361e-48
2.6814362e-47
2.1889924e-46
1.5181585e-45
1.6959315e-44
7.120847e-44
1.2117812e-42
2.5687598e-42
8.0151837e-41
4.0223191e-41
4.9426308e-39
-3.6902969e-39
2.8551411e-37
-5.1086686e-37
1.546137e-35
-3.8107324e-35
7.7624384e-34
-2.149784e-33
3.6827599e-32
-1.9573053e-31
1.9741022e-30
-5.0991741e-29
1.8577736e-28
-6.2844298e-27
1.7601638e-26
-1.4912487e-25
5.0720843e-25
-8.8934884e-25
4.0608049e-24
-2.4516009e-24
1.3624442e-23
-6.7755258e-24
3.3546652e-23
-1.5234469e-22
2.2729686e-22
-2.7749389e-20
2.1423653e-20
-1.1068766e-18
1.0437353e-18
-1.0503694e-17
1.28352e-17
-4.5416805e-17
5.8378354e-17
-1.3033743e-16
1.5191798e-16
-2.4131868e-16
2.7112295e-16
-4.241343e-16
3.60751e-16
-2.7091648e-15
2.5345964e-15
-7.2151579e-14
6.5664525e-14
-1.6915319e-12
1.558382e-12
-1.0550261e-09
-1.066199e-10
-1.4868649e-10
-4.0305987e-09
5.582814e-11
-1.9577984e-09
2.4827029e-11
-1.3431158e-09
2.073204e-10
-2.3445536e-09
6.9110085e-10
-1.6277246e-09
1.0535956e-08
-1.3796725e-07
1.9418412e-08
-3.7260918e-07
5.6020876e-09
-4.1650256e-07
1.3491695e-08
-3.9435773e-07
2.588713e-09
-1.0680428e-08
1.8684024e-09
-3.6416684e-09
1.9030226e-09
-2.0065891e-09
1.8179741e-09
-6.6617655e-10
1.6238956e-09
6.7689407e-10
1.619347e-09
1.7554681e-09
1.8707348e-07
3.7513028e-07
1.463481e-07
5.1907467e-07
1.3228767e-07
6.0185118e-07
8.1323795e-10
3.9375463e-07
0
4.307785e-09
2.303648e-11
1.9906173e-10
3.5195983e-13
2.8769249e-11
1.2009122e-12
2.8401901e-11
0
1.1974501e-12
0
6.0250825e-15
-4.3220338e-21
1.9430305e-17
-9.8245987e-23
1.8795643e-19
-1.8387142e-24
1.1135862e-21
-4.0589592e-26
1.31186e-23
-7.6753245e-28
1.9004156e-25
-1.1360287e-29
2.4669875e-27
-1.3856157e-31
2.6449352e-29
-1.4413648e-33
2.4235545e-31
-1.27414e-35
1.9241034e-33
-9.6185908e-38
1.3336798e-35
-6.2159978e-40
8.3153606e-38
-3.4559079e-42
4.4524778e-40
-1.6902697e-44
2.0489682e-42
-7.0416893e-47
8.2467613e-45
-2.8781715e-49
3.0293315e-47
-9.5446767e-52
1.0428664e-49
-5.3076951e-52
5.170473e-52
-2.1211764e-51
7.123179e-52
-1.8086427e-49
4.0603057e-50
-1.3987375e-47
1.5100082e-48
-1.084985e-45
-6.902194e-48
-6.5462267e-44
-8.2198241e-45
-2.8590906e-42
-7.2453428e-43
-9.2448863e-41
-3.6347927e-41
-2.2414208e-39
-1.2252354e-39
-4.1325994e-38
-2.8944136e-38
-5.6461939e-37
-4.7063748e-37
-4.2971273e-36
-4.729622e-36
-1.0773273e-35
-2.3321777e-35
-4.6980319e-35
2.4196653e-63
3.108703e-63
1.4099312e-63
1.9804617e-63
6.4297766e-63
6.8879606e-63
1.0478333e-62
1.7369169e-62
1.0951847e-62
2.0046102e-62
6.3793412e-63
1.6500192e-62
2.6815647e-63
9.4587783e-63
7.8914558e-64
4.5159647e-63
7.4914843e-65
2.0853395e-64
5.9578413e-63
5.1017178e-63
5.1146681e-60
4.512746e-60
3.1775828e-57
6.2618473e-57
8.0242407e-55
1.8070096e-54
1.2247448e-52
3.1507793e-52
1.4263784e-50
4.2097447e-50
1.3883688e-48
4.7272573e-48
1.1783204e-46
4.6351895e-46
8.8591518e-45
4.060372e-44
6.0240056e-43
3.2141759e-42
3.7737498e-41
2.3233415e-40
2.1757825e-39
1.5463963e-38
1.1762703e-37
9.5116608e-37
5.9443261e-36
5.437038e-35
2.8177319e-34
2.8995533e-33
1.2215972e-32
1.4431012e-31
4.7761995e-31
6.7973271e-30
1.7534234e-29
3.4594648e-28
6.3397787e-28
2.6563508e-26
-5.6490958e-26
2.1983275e-24
-5.9409945e-24
6.8111035e-23
-6.0578452e-23
5.9867013e-22
-1.9344011e-22
1.9714604e-21
-4.9785948e-22
4.004911e-21
-6.5648805e-21
1.4155519e-20
-1.034947e-18
1.0634461e-18
-3.1935772e-17
4.1980843e-17
-2.8145013e-16
4.285935e-16
-1.2861496e-15
1.7487813e-15
-3.1447912e-15
3.8339881e-15
-3.4288371e-15
2.9744396e-15
-4.1365931e-15
3.3325702e-15
-2.2643508e-14
2.2112112e-14
-2.1061828e-13