/*--------------------------------*- C++ -*----------------------------------*\
  =========                 |
  \\      /  F ield         | OpenFOAM: The Open Source CFD Toolbox
   \\    /   O peration     | Website:  https://openfoam.org
    \\  /    A nd           | Version:  9
     \\/     M anipulation  |
\*---------------------------------------------------------------------------*/
FoamFile
{
    format      ascii;
    class       volScalarField;
    location    "0.89";
    object      p;
}
// * * * * * * * * * * * * * * * * * * * * * * * * * * * * * * * * * * * * * //

dimensions      [1 -1 -2 0 0 0 0];

internalField   nonuniform List<scalar> 
10000
(
0
-0.00013800725
0.0020432338
0.0045890258
0.0076162807
0.011705001
0.016312914
0.021628475
0.027526393
0.034159581
0.041510575
0.049547188
0.058351942
0.067934408
0.078338652
0.089664846
0.10194217
0.11527632
0.12986246
0.14583083
0.16330611
0.18248675
0.20353204
0.22676312
0.25264142
0.28177226
0.31487088
0.35283914
0.3968196
0.44819482
0.50864957
0.58024405
0.6654273
0.76705829
0.88847243
1.033495
1.2063452
1.4115167
1.653708
1.9376599
2.2678793
2.6489344
3.0858732
3.5815693
4.1363204
4.7632627
5.4987351
6.3782832
7.3292121
8.0827857
8.5363538
8.7144891
8.6491641
8.3261778
7.8048599
7.3735162
7.1757872
7.2343729
7.4192231
7.6828635
7.9902895
8.226409
8.4904466
8.7322043
8.9131572
9.0576285
9.1571844
9.2097358
9.2223599
9.2026866
9.1576986
9.0939834
9.0168457
8.9303153
8.8374604
8.7405823
8.6414635
8.5415202
8.4418981
8.3435717
8.2473745
8.1540365
8.0642094
7.9784938
7.8975062
7.8216284
7.7511912
7.6864634
7.6276596
7.5748419
7.5279031
7.4865075
7.4502116
7.4186068
7.3900627
7.3671021
7.349219
7.335905
7.3264806
7.3249947
-0.0024586307
-0.0013938031
0.0012587897
0.0039405046
0.007098011
0.01118163
0.015863145
0.021145066
0.027077778
0.033663588
0.040934282
0.048927552
0.057635658
0.067086258
0.07738103
0.088519142
0.10054471
0.11358241
0.12768177
0.14292678
0.15949267
0.17751595
0.19716091
0.21871084
0.24256368
0.26921832
0.29932953
0.33375374
0.37355852
0.42007145
0.47497388
0.54033404
0.61862589
0.71279598
0.82631053
0.96311845
1.1275527
1.3242177
1.5578779
1.8332096
2.1543195
2.5252055
2.9516565
3.4369312
3.9727619
4.566732
5.2891321
6.1824698
7.1441802
7.9104755
8.3547884
8.4250553
8.3754548
8.3143601
8.2859754
6.8769773
6.6880418
6.7985373
6.9722645
7.7057074
7.9521118
7.9276667
8.353125
8.5589709
8.754049
8.9152862
9.0184998
9.0748306
9.0949797
9.0853839
9.0519442
9.0002783
8.9347859
8.8589115
8.7754695
8.6867229
8.5945544
8.5005565
8.4060471
8.312147
8.2198403
8.129959
8.0431842
7.9600351
7.8812894
7.8072734
7.7383475
7.6747923
7.6167354
7.5642372
7.5172454
7.4755991
7.4390714
7.4075328
7.3802767
7.3579447
7.3405398
7.3275918
7.3184797
7.317351
-0.0051268412
-0.0036569192
-0.00073650069
0.002148559
0.0054218185
0.0096236695
0.014336417
0.019675437
0.02567553
0.032282701
0.039566043
0.047542017
0.056186111
0.065588376
0.075750388
0.086656278
0.098397217
0.11101091
0.12452654
0.13904556
0.15469384
0.17155458
0.18977118
0.20957014
0.23122535
0.25514143
0.2818941
0.31221901
0.34705145
0.38762718
0.43555034
0.49280352
0.56181968
0.64559827
0.74772875
0.87233048
1.0239913
1.2076496
1.4283834
1.6910589
1.9993924
2.3559712
2.7669905
3.2368829
3.7361976
4.2482166
4.9610227
6.4067125
8.0901695
8.9919184
9.2777702
9.2116172
8.996677
8.688018
8.019346
6.5307605
6.2701523
6.1916064
6.4275849
6.7391649
7.4738423
7.946573
8.2816326
8.4044086
8.6775136
8.8459678
8.9372939
8.9825248
8.998434
8.990311
8.9617708
8.9171405
8.8597429
8.7921039
8.7164215
8.6346591
8.5485899
8.4598262
8.3697888
8.2796741
8.1905254
8.103332
8.0188233
7.937744
7.8606499
7.7879982
7.7201528
7.6573951
7.5998808
7.5476808
7.5008353
7.4592442
7.4226015
7.3911004
7.3644461
7.3426688
7.3257386
7.3131816
7.3043669
7.303654
-0.0080822475
-0.0065450817
-0.0034448798
-0.00046888765
0.0029658003
0.0071761058
0.011919961
0.017304735
0.0232829
0.029901238
0.037161285
0.045034355
0.053604227
0.06286582
0.072795998
0.083440065
0.094825054
0.10693723
0.11981957
0.1335444
0.14813702
0.16364054
0.18015743
0.19780309
0.21673134
0.23723126
0.25972431
0.28476311
0.31312168
0.34588331
0.38448367
0.43077003
0.4871253
0.55658644
0.6428725
0.75036334
0.88407128
1.0494784
1.2522066
1.4975593
1.789
2.1269858
2.5163846
2.9600194
3.3903787
3.7200065
4.3725934
6.2594473
7.187351
8.0185881
8.4749011
8.6899013
8.3923821
8.4644851
7.8721705
6.6188285
5.6119248
5.1322719
5.3321922
6.1238517
6.5924534
6.9419118
7.6745861
8.1285987
8.5268778
8.777533
8.8721713
8.9010692
8.9120957
8.9064757
8.8826764
8.8437279
8.7924445
8.730874
8.6608484
8.5841863
8.5026103
8.4177289
8.331032
8.2437806
8.1569853
8.0718402
7.9892531
7.9098074
7.8340975
7.7626182
7.6957491
7.6337742
7.5769146
7.5252733
7.4789032
7.4377409
7.401752
7.3705516
7.3443416
7.3230533
7.3066077
7.2945048
7.2860716
7.2858615
-0.011330131
-0.0097595815
-0.0066024544
-0.0034862637
6.2187467e-06
0.0042636458
0.0090720048
0.014453577
0.020453326
0.02706479
0.034258219
0.042091702
0.050510005
0.059566751
0.069259737
0.079602854
0.090550037
0.10210398
0.11430288
0.12712624
0.14053653
0.15453759
0.16913313
0.18431301
0.20010924
0.21663475
0.23408485
0.25279084
0.27331064
0.29647784
0.32346866
0.35594427
0.39619715
0.44725449
0.51296833
0.59809516
0.70829567
0.8499231
1.0295988
1.2535947
1.5258698
1.8453824
2.2122589
2.6226617
2.9936866
3.1980033
4.0536353
4.7467982
6.5534036
7.6387094
8.4303471
9.0982335
8.1954964
7.4229876
6.3623145
5.2263438
4.2980601
4.0712428
3.7087718
3.9784654
5.0060872
6.1131793
6.6783073
7.7112322
8.1693718
8.5801159
8.7211321
8.7627418
8.7869754
8.796563
8.7864015
8.758327
8.7160038
8.6620084
8.5983519
8.5270714
8.4500896
8.3691398
8.2858265
8.2015928
8.1168789
8.0340933
7.9534169
7.8756364
7.8013778
7.7311409
7.6653384
7.6042609
7.5481508
7.4971339
7.4513081
7.4106483
7.3751138
7.3445582
7.3189527
7.298249
7.2823491
7.2707738
7.2628583
7.2633161
-0.015032417
-0.013520082
-0.010263568
-0.0071143559
-0.0035528541
0.00077998293
0.0056087062
0.011029658
0.017046939
0.023615328
0.030769933
0.038517895
0.046816386
0.055628332
0.065093052
0.075091433
0.085593806
0.096603168
0.10808445
0.11996716
0.13217824
0.14463445
0.15721951
0.16980614
0.18226678
0.19447324
0.20634806
0.21795365
0.22953048
0.24155372
0.25486078
0.27084529
0.29160289
0.32006613
0.36020879
0.41725904
0.49777139
0.60944474
0.76065459
0.95968053
1.2126082
1.5195531
1.8777749
2.2815695
2.6642697
2.9489173
3.4867738
4.286523
5.7117379
6.6108768
7.0648181
7.1284105
7.3988821
6.501263
5.1443646
3.7988015
3.2604156
3.7846341
4.5646437
5.7428487
3.4062361
4.834254
6.068606
7.1585048
7.8821057
8.2307407
8.463123
8.5573926
8.6166477
8.6559466
8.6695887
8.6585566
8.6288174
8.584538
8.5285018
8.4633384
8.3913576
8.3145624
8.2347563
8.1532644
8.0715161
7.9908018
7.9119724
7.8357904
7.7629056
7.6938384
7.6290387
7.5688298
7.5134792
7.4631297
7.4179224
7.3778633
7.3429529
7.3130681
7.2881576
7.2681698
7.2529462
7.2419625
7.2346864
7.2359799
-0.019280406
-0.01777046
-0.014519152
-0.011337066
-0.0076772492
-0.0033223311
0.0015623893
0.0070267362
0.013027965
0.019586298
0.026702016
0.034327625
0.04247252
0.051152378
0.060334798
0.069981044
0.080064632
0.09053405
0.10130342
0.11228461
0.12335026
0.13431296
0.14494448
0.15497619
0.16407198
0.17182835
0.17786526
0.18188239
0.18368251
0.18327962
0.18106987
0.17802747
0.17587487
0.17731284
0.18636574
0.20874723
0.25211718
0.32610725
0.44191574
0.61139292
0.84479118
1.1457283
1.5114352
1.9401039
2.3864777
2.7670866
3.3647336
4.0556586
4.9747337
5.4108046
5.5967214
9.1353432
7.6679556
4.9644834
2.9594193
1.5950723
0.67540622
-0.28131058
0.66415556
2.2358053
-0.060155763
2.105247
3.9866191
5.8630866
7.1433163
7.7396017
8.1310626
8.3083607
8.4185098
8.4973223
8.5411159
8.5509804
8.5360421
8.5026126
8.4547457
8.3958347
8.3287663
8.2558699
8.1792819
8.1005624
8.0211729
7.9423801
7.8651708
7.7903675
7.7186768
7.6506473
7.5867505
7.5273487
7.4727483
7.4231141
7.3786007
7.3392564
7.305067
7.275953
7.2518367
7.2326743
7.2182771
7.2080265
7.2015368
7.2038473
-0.024047699
-0.022639896
-0.019360778
-0.0161137
-0.012418137
-0.0080041417
-0.0030530105
0.0024257628
0.0084517686
0.015015261
0.022060279
0.029589238
0.037628589
0.046137411
0.055065365
0.064396377
0.07408717
0.084042739
0.094178279
0.10436845
0.11441548
0.12405727
0.13296919
0.14066162
0.14657761
0.15004269
0.15031912
0.14662231
0.13819991
0.12449179
0.10528054
0.080904693
0.052483305
0.022265465
-0.0058901782
-0.025945102
-0.029075047
-0.003153027
0.067121324
0.19913685
0.40989053
0.70891474
1.0939015
1.5679277
2.105558
2.6181016
3.1666483
3.7431427
4.2624563
4.350959
4.4325155
6.7109532
5.6469559
1.9668391
-1.5519157
-3.9083838
-5.8618974
-5.6600753
-5.1052299
-3.7706528
-3.1795748
0.69652046
2.0582464
4.5210397
6.2061691
7.2501924
7.7903292
8.0524622
8.2164704
8.3361582
8.4106356
8.4417139
8.4418027
8.419019
8.3789967
8.3258193
8.2630512
8.1937094
8.1198855
8.043436
7.9659401
7.8887185
7.8128544
7.7392087
7.6685174
7.6013815
7.5383058
7.4796721
7.4258079
7.37691
7.3331403
7.2945657
7.2612032
7.233003
7.2098087
7.1915858
7.1781569
7.1688067
7.1632813
7.1668508
-0.029447997
-0.028108068
-0.024778581
-0.021516165
-0.017743331
-0.013256843
-0.0082646392
-0.0027231504
0.0033535811
0.0098986087
0.016901386
0.024385408
0.032319253
0.040652188
0.049363602
0.058417061
0.067740604
0.077277919
0.086907706
0.096465605
0.10570411
0.11431163
0.12191929
0.12768913
0.1308906
0.13057888
0.12558192
0.11451235
0.095957514
0.068605837
0.031385551
-0.016251351
-0.074066797
-0.14060523
-0.21263724
-0.28425772
-0.3457818
-0.38235623
-0.37325867
-0.29294951
-0.11449118
0.18163055
0.59857561
1.1314048
1.736403
2.2961312
2.6703672
3.1572122
3.5230351
3.5718195
3.546508
3.0502036
2.3046293
-1.0870055
-3.7742441
-7.0444415
-9.5789952
-10.472369
-9.827904
-7.9603317
-6.7390764
-1.8723367
1.328367
3.0871627
5.4275613
6.7965459
7.4851295
7.8196359
8.0311653
8.1864399
8.2869319
8.3359358
8.3493039
8.3355016
8.3019502
8.2537037
8.1946731
8.1280953
8.0564483
7.98179
7.9057811
7.8297873
7.7549595
7.6822174
7.6123124
7.5458903
7.4835071
7.425572
7.3724063
7.3242384
7.2812551
7.2435602
7.2111214
7.1839137
7.1618033
7.144691
7.132412
7.1240982
7.1197124
7.1248781
-0.035462149
-0.034177197
-0.030846469
-0.027511306
-0.023659307
-0.019118874
-0.014031229
-0.008395576
-0.0022861431
0.0042732238
0.011289677
0.018733131
0.026558293
0.034748365
0.043274744
0.052078283
0.061108797
0.070316957
0.079607658
0.088744184
0.097462545
0.10536554
0.1123552
0.1168128
0.11809527
0.11493453
0.10565436
0.08812612
0.060175451
0.019538194
-0.036062285
-0.10827911
-0.19813211
-0.30546716
-0.42850054
-0.56239491
-0.69752002
-0.8167119
-0.89271959
-0.88864429
-0.7623797
-0.47598094
-0.0072598751
0.62156184
1.2857338
1.8622091
2.1623256
2.478369
2.8158341
2.855485
2.6162642
2.0542216
0.055732447
-2.1189028
-5.4597873
-9.37101
-12.252477
-13.462205
-12.768399
-10.556014
-8.3391066
-3.9909259
-0.42563179
2.1927295
4.7248517
6.4212153
7.2390079
7.6298019
7.876969
8.0594181
8.177977
8.237955
8.2609568
8.2540447
8.2252635
8.1804313
8.124019
8.0594229
7.9893084
7.9158673
7.840856
7.7656693
7.6914819
7.6192946
7.5499144
7.4840041
7.4221377
7.3647782
7.3122571
7.2647964
7.222578
7.1858477
7.1544683
7.1283597
7.1074559
7.0916504
7.0807602
7.0737104
7.0706549
7.0777223
-0.04211944
-0.040929285
-0.037533153
-0.034126852
-0.030209909
-0.025554325
-0.020336591
-0.014620476
-0.0084394363
-0.0018064966
0.005233505
0.012634074
0.020383387
0.028459272
0.036812891
0.045409757
0.054232382
0.063228215
0.07230412
0.081302855
0.089918387
0.097776453
0.10433933
0.10854726
0.10917515
0.10460548
0.092562528
0.070153682
0.034361743
-0.018267129
-0.09178956
-0.18897494
-0.31267672
-0.46461486
-0.64570993
-0.85371642
-1.0809685
-1.3100961
-1.5074539
-1.6217095
-1.5850321
-1.3201184
-0.77004782
0.033688887
0.87285521
1.6558182
1.8190257
2.0935289
2.4970128
2.6492753
2.9241627
2.3208144
0.4474148
-2.306964
-6.2003574
-10.115123
-13.072161
-14.335888
-13.5952
-11.186415
-8.0780865
-4.9047367
-1.2426994
1.8924463
4.2887961
6.1744304
7.0729198
7.4980468
7.7631606
7.9611859
8.0860303
8.1535346
8.1802726
8.1763568
8.1498947
8.1068111
8.051702
7.9880893
7.9187191
7.8458062
7.7711703
7.6962766
7.6223122
7.5502991
7.4811019
7.4154469
7.3539141
7.2969649
7.2449796
7.1982282
7.1569154
7.1210614
7.0907752
7.0659217
7.0463992
7.0321266
7.0228184
7.0172607
7.0158584
7.0251897
-0.049500521
-0.048347613
-0.044895099
-0.041422765
-0.037367113
-0.032563195
-0.027220425
-0.021374885
-0.015055192
-0.0083320793
-0.0012644357
0.0061321543
0.013836645
0.021804646
0.030008364
0.038447482
0.047117789
0.055987293
0.064998727
0.074076523
0.082961107
0.091245295
0.098383616
0.10343183
0.10491724
0.10081174
0.088346377
0.063666733
0.022357189
-0.040483115
-0.13008611
-0.2511648
-0.40942401
-0.60830415
-0.85340027
-1.1474799
-1.4882281
-1.8635632
-2.2379444
-2.5444696
-2.6715698
-2.471575
-1.8310102
-0.70894789
0.55365652
1.6554334
1.9875222
2.2822425
2.7537697
3.0897136
3.0571293
3.4553197
2.3373186
-0.73266072
-5.0852067
-8.8913762
-11.979893
-13.273806
-12.619374
-9.9504667
-6.9384289
-4.4206997
-1.2062913
1.6197985
4.290544
6.1083629
7.0055381
7.4185715
7.7039638
7.8941237
8.0150297
8.08127
8.1071966
8.1029563
8.0763704
8.0332414
7.9780498
7.9142946
7.8447476
7.7716082
7.6966877
7.6214825
7.5472264
7.4749803
7.4056132
7.3398856
7.2784204
7.2216953
7.1701176
7.1239769
7.0834453
7.0486222
7.0195274
6.9960918
6.9781526
6.9656534
6.9581743
6.9543069
6.9548604
6.96687
-0.057613715
-0.056529301
-0.053017828
-0.049395928
-0.045161649
-0.04019649
-0.034664889
-0.028613292
-0.022130613
-0.015298362
-0.0081498104
-0.00071322031
0.006957634
0.014828949
0.0229084
0.031201924
0.039728496
0.048524876
0.05760113
0.066924123
0.076376596
0.085673703
0.094326703
0.10148858
0.10564613
0.10445121
0.094572534
0.071114862
0.028001014
-0.041654847
-0.14476151
-0.28794445
-0.47850922
-0.7243769
-1.0372106
-1.4287659
-1.9065879
-2.4741781
-3.10569
-3.7274444
-4.1702506
-4.1541277
-3.5020003
-1.8431698
0.043620521
1.6158965
2.4693903
2.998159
3.5694351
4.1278381
4.3192576
4.0484638
2.6603226
1.0536749
-2.5721474
-6.2047536
-9.3925682
-10.839012
-10.543865
-8.5692933
-5.4237881
-3.2506333
-1.0614326
2.029106
4.6579294
6.3058172
7.014239
7.3998091
7.6742903
7.849527
7.9603456
8.0196102
8.0408746
8.0334217
8.0045038
7.9596433
7.9030642
7.8380984
7.7674366
7.6932661
7.6173814
7.5412532
7.4661131
7.3930913
7.3231144
7.2569652
7.1952616
7.1384997
7.0871398
7.0414627
7.0017295
6.9679669
6.940197
6.9183063
6.9021373
6.8916535
6.8862749
6.8843273
6.887194
6.9023191
-0.066579953
-0.065571858
-0.061912606
-0.058107385
-0.053674901
-0.048454666
-0.042639213
-0.036342103
-0.029657182
-0.022640172
-0.015345326
-0.0078415757
-0.00018560095
0.0076043706
0.015540597
0.023651448
0.032010497
0.040725405
0.049891933
0.059568945
0.069816805
0.080601187
0.091638451
0.10222989
0.11104414
0.11575583
0.11240959
0.095057074
0.055289369
-0.016515266
-0.12929973
-0.29105868
-0.51066607
-0.80035325
-1.1785972
-1.673987
-2.3076518
-3.1216898
-4.1315325
-5.2819429
-6.3254545
-6.7158233
-5.9109839
-4.311807
-1.8337208
0.77616045
2.7263515
3.9260819
4.7983323
5.5919775
6.0669089
6.0550827
5.4521153
3.1417145
1.37475
-2.6661425
-5.6349887
-7.4039859
-7.6678429
-7.0956514
-5.6814697
-3.3217572
0.083621371
3.0375085
5.2738007
6.5144194
7.0776919
7.4202995
7.6631879
7.8201084
7.9162921
7.9653809
7.9793809
7.9666649
7.9337702
7.885776
7.8266288
7.759468
7.6868193
7.6107915
7.5331598
7.4554171
7.3787785
7.3043848
7.2332481
7.1662159
7.103923
7.0468467
6.9954674
6.9500924
6.911111
6.8784021
6.8520324
6.8318223
6.8176254
6.8094384
6.806453
6.8066873
6.8122817
6.8309693
-0.076502337
-0.07551601
-0.07169734
-0.067658439
-0.062906103
-0.057325141
-0.051166352
-0.044555431
-0.037561446
-0.030270527
-0.022778437
-0.015173975
-0.0075117287
0.00018220098
0.0079222289
0.015787682
0.023906134
0.032438054
0.041580017
0.051569254
0.062691933
0.075209403
0.089216597
0.10446756
0.120086
0.13403691
0.1422316
0.13766669
0.10824548
0.04036946
-0.077314985
-0.2533565
-0.49666577
-0.82247371
-1.2572792
-1.8462945
-2.6489821
-3.7833028
-5.3807319
-7.4925476
-9.7690858
-11.302979
-11.242415
-9.5434702
-6.0527041
-1.70488
2.1556132
4.7415476
6.2336978
7.3724836
7.7838447
8.134889
7.6600728
6.113634
4.917368
1.7059913
-1.1654708
-3.2229352
-3.9420666
-3.1870117
-1.8401616
-1.0700856
1.7744229
4.0494888
5.7272731
6.6902456
7.1452544
7.4535258
7.6613335
7.7979474
7.8776014
7.9152472
7.9206621
7.9014898
7.8635506
7.8114346
7.7487796
7.6785167
7.6030187
7.5242991
7.4440756
7.3638831
7.2849989
7.2085812
7.135693
7.067193
7.0038068
6.9460905
6.8944948
6.8493861
6.8108344
6.7791282
6.7541822
6.7357607
6.7237368
6.7181161
6.717785
6.7204961
6.7293568
6.7521246
-0.087347101
-0.086494687
-0.082505822
-0.078070399
-0.072865279
-0.066850999
-0.060249454
-0.053183174
-0.045759612
-0.03811209
-0.030362517
-0.022611087
-0.014939729
-0.0073817463
0.00010457399
0.0076342992
0.015358567
0.02348661
0.032346329
0.042395684
0.054153169
0.068262807
0.085411021
0.10612702
0.13047319
0.15724671
0.18292404
0.20043604
0.19136678
0.13495605
0.017203844
-0.16861737
-0.4284392
-0.77781052
-1.248825
-1.9081605
-2.8767208
-4.4211481
-6.8980681
-10.491324
-14.581164
-17.625279
-18.313595
-16.180756
-11.453887
-5.1870048
0.88205829
5.2624099
7.695968
10.384877
9.919806
9.7249216
9.6949747
8.7901116
8.0541442
5.6947442
3.0277929
1.0108869
-0.12289824
-0.65927697
0.21256721
2.2591312
4.3206803
4.9556483
6.1390704
6.8116482
7.2033458
7.4786249
7.6596448
7.7759549
7.8401561
7.8663385
7.8629071
7.836827
7.7933123
7.7364825
7.6696334
7.5954792
7.5162728
7.4339586
7.3502303
7.2666729
7.184667
7.1054228
7.0300442
6.9594238
6.8943622
6.8354852
6.7832631
6.7379887
6.6998802
6.6691273
6.6455908
6.6290437
6.6194187
6.6166723
6.6192851
6.6247751
6.6374855
6.6648689
-0.099401177
-0.09846871
-0.094435555
-0.089381986
-0.083636125
-0.07704687
-0.069824997
-0.062145515
-0.054172339
-0.046065824
-0.037976511
-0.03004309
-0.022366659
-0.014973464
-0.0078027564
-0.00074835084
0.0063480299
0.013753737
0.021907578
0.031453653
0.043202708
0.058235162
0.077996685
0.10416321
0.13826009
0.18087823
0.23024081
0.28337464
0.30926516
0.27286602
0.15722441
-0.036190652
-0.3047191
-0.65877342
-1.1361404
-1.8253337
-2.9261277
-4.9230125
-8.3958966
-13.518759
-19.096235
-22.798178
-23.314727
-20.683801
-15.39388
-8.071526
-0.48317122
5.1822095
8.219548
12.286417
10.53079
10.835183
10.920106
10.635514
10.118857
8.6840977
6.9304486
5.1720516
4.0563321
3.8331007
3.9522565
3.694491
4.7944831
5.7087511
6.4454727
6.9252403
7.2611045
7.4973803
7.6539885
7.7507069
7.8010792
7.8165108
7.8047457
7.7719648
7.7228341
7.661012
7.5894718
7.5107287
7.4269555
7.3400773
7.25183
7.1638626
7.0776627
6.9945926
6.9158166
6.8422982
6.7748658
6.7142116
6.6608573
6.6151104
6.5771901
6.5472329
6.5250584
6.5104474
6.5034056
6.5038012
6.5096059
6.5181986
6.5354462
6.5680584
-0.11283974
-0.11168344
-0.10672974
-0.10159791
-0.095248991
-0.087887873
-0.079844184
-0.071380858
-0.062698505
-0.054002548
-0.045493282
-0.037339349
-0.029635721
-0.022407426
-0.015632178
-0.0092347846
-0.0030492326
0.0032280786
0.010083551
0.018261763
0.02886803
0.043477148
0.064339226
0.094442624
0.13765709
0.19733369
0.27345893
0.38342242
0.46697221
0.45724392
0.33547362
0.13206738
-0.13765622
-0.46861537
-0.90487183
-1.518187
-2.6571929
-5.0471529
-9.1858309
-15.104329
-21.05671
-24.689364
-24.928208
-21.883657
-16.467256
-9.0835513
-1.3369123
4.1979382
7.8679484
11.184948
10.415771
11.129162
11.430067
11.455646
10.973143
9.8044827
8.039396
6.9705799
5.6230489
4.5565642
4.5765139
5.0939433
5.6845234
6.2104844
6.6764974
7.0385196
7.3150763
7.5110637
7.6418591
7.7202882
7.7581111
7.7641499
7.7452164
7.7065582
7.6522485
7.5855007
7.5089673
7.4249876
7.3357223
7.2431777
7.1492067
7.0555826
6.9639256
6.8758067
6.7924986
6.7151003
6.6444747
6.5813539
6.5262553
6.4795785
6.4415057
6.4121126
6.39119
6.3784987
6.3741347
6.3778828
6.3870976
6.3991768
6.421776
6.4603281
-0.12795797
-0.12657918
-0.12125315
-0.11516244
-0.10781942
-0.099395513
-0.090283241
-0.080804901
-0.071220866
-0.061795761
-0.052764071
-0.044300624
-0.036503986
-0.029440411
-0.023149065
-0.017585108
-0.012598481
-0.0079229412
-0.0031067056
0.0026153125
0.010498585
0.0224806
0.04153604
0.072022735
0.12169946
0.19969177
0.31573295
0.49270101
0.67267986
0.71081512
0.52174764
0.30492085
0.04022567
-0.23958335
-0.57480234
-1.0691817
-2.1108107
-4.4556276
-8.5487881
-13.995158
-19.540835
-22.775448
-22.789258
-19.894177
-14.86211
-7.9894577
-0.9596598
6.2631136
17.987269
9.0726402
10.18771
10.709547
11.056594
11.330925
11.183482
10.307115
8.9623478
7.6494397
6.5833573
5.9508738
5.7660956
5.9158028
6.2199152
6.5406395
6.8602241
7.1356261
7.3540084
7.51247
7.618815
7.6813804
7.7087142
7.7075981
7.6834769
7.6405325
7.5820691
7.5108187
7.4291716
7.3393613
7.2435931
7.1440579
7.0428651
6.9420446
6.8434143
6.7487634
6.6595631
6.5770512
6.502195
6.4357643
6.3782802
6.3300885
6.2913936
6.2621893
6.2422681
6.2313796
6.229691
6.2368536
6.2495905
6.2656105
6.2946602
6.339995
-0.14511535
-0.14334695
-0.13730879
-0.12997338
-0.12141651
-0.11158848
-0.10108758
-0.090318597
-0.079616986
-0.06928435
-0.059565572
-0.050647406
-0.042673777
-0.035763773
-0.030004536
-0.025399898
-0.02187446
-0.019274328
-0.01727412
-0.015235349
-0.012002967
-0.0056590902
0.0070121048
0.030218667
0.076440998
0.16150744
0.28563339
0.58063691
0.90262619
0.98066138
0.79030151
0.44001056
0.16305152
-0.057557474
-0.2437492
-0.52273669
-1.236078
-3.0235206
-6.2914915
-10.617809
-14.863065
-17.717206
-18.177591
-16.153825
-11.797057
-5.8409467
0.52181905
13.559261
17.89219
7.5261381
9.3948646
9.744688
9.9098489
10.294524
10.51499
10.042674
9.1091292
8.111474
7.2686832
6.7167804
6.4771003
6.4713088
6.6027911
6.7914109
7.0030232
7.2012896
7.3670926
7.4926454
7.5785517
7.6290445
7.6495726
7.6449005
7.6188105
7.5741763
7.5133439
7.4384709
7.351736
7.255411
7.1519178
7.0437856
6.9335102
6.8235422
6.7160576
6.6130956
6.5163702
6.4272818
6.3469415
6.2761373
6.2153625
6.1650258
6.1251409
6.095687
6.0763833
6.0669908
6.0677857
6.0781927
6.0943653
6.1148355
6.151817
6.2050555
-0.16479025
-0.1623181
-0.1552641
-0.14640318
-0.13620195
-0.12445261
-0.11218047
-0.099810822
-0.087719886
-0.07623007
-0.065607807
-0.05607885
-0.047830216
-0.041012832
-0.035748711
-0.032142857
-0.030251089
-0.030087137
-0.031564684
-0.034366037
-0.037772414
-0.040383738
-0.039492664
-0.034229515
-0.010689222
0.036391754
0.12119747
0.7754587
2.2794734
1.891505
0.72597655
0.30235955
0.13469769
-0.0011245975
-0.026054442
-0.014154193
-0.22627406
-1.1041928
-2.9826701
-5.7894232
-8.9586163
-11.930157
-13.365997
-12.215604
-8.6419131
-4.0135586
-0.6256355
17.088098
11.465244
9.0616183
9.2098178
8.7031574
8.3292615
8.5219808
9.0654561
9.105477
8.7078043
8.1258741
7.5728649
7.1714017
6.9497543
6.8726303
6.8924613
6.9726066
7.0895707
7.219356
7.3414317
7.4410436
7.5125267
7.556688
7.5762925
7.57375
7.5507307
7.5083878
7.4478817
7.370749
7.2790545
7.1753303
7.062503
6.9437163
6.8220278
6.7004491
6.5817096
6.4682365
6.3620162
6.2646378
6.1773221
6.1009305
6.0359318
5.9825787
5.94085
5.910554
5.8912936
5.88288
5.8856649
5.8987126
5.9178598
5.9434802
5.9905434
6.0532541
-0.18755384
-0.18399732
-0.17549511
-0.16448671
-0.15160811
-0.13786581
-0.12345875
-0.10910614
-0.09527454
-0.08233668
-0.070595472
-0.060294044
-0.051623485
-0.04474954
-0.039857659
-0.037173237
-0.036915448
-0.039311175
-0.044621969
-0.053057914
-0.064644958
-0.079196708
-0.09521908
-0.11696881
-0.12989598
-0.13725661
-0.032214396
5.461905
6.2874224
6.640556
3.4013231
0.051191697
-0.13325623
-0.17642224
0.01562869
0.3272561
0.61364207
0.66484923
0.20196453
-1.1458534
-3.9201626
-7.6638827
-10.263273
-9.670482
-6.2962372
-2.2110293
-0.015458857
16.554521
8.0563093
8.61656
8.4603609
7.2311418
6.3136851
6.3218344
7.073499
7.7193471
7.9702329
7.896471
7.6723739
7.445137
7.2716941
7.1538616
7.0859282
7.0669532
7.097479
7.1691349
7.259525
7.3435235
7.4091141
7.455424
7.4831018
7.491477
7.4791675
7.4449403
7.3885429
7.3109487
7.2143715
7.1020071
6.9776607
6.8454244
6.7092831
6.5730255
6.440081
6.3133867
6.1952603
6.0875408
5.9915599
5.9082223
5.837902
5.7806819
5.7363843
5.7045323
5.6845175
5.6762582
5.6801436
5.6945636
5.715386
5.7467
5.8069307
5.8809139
-0.21421255
-0.20913608
-0.19851586
-0.18469473
-0.16886199
-0.15199672
-0.13478636
-0.11793578
-0.10196906
-0.08729347
-0.074212462
-0.062939571
-0.053647208
-0.046515588
-0.041789247
-0.039790994
-0.040911156
-0.045647374
-0.05464356
-0.06875755
-0.088906281
-0.1165761
-0.15102129
-0.20711056
-0.26516797
-0.44110419
0.34416203
5.858747
6.2150053
6.5089935
6.0509972
-0.20476883
-0.68500336
-0.55606776
-0.092653984
0.49795594
1.1705345
1.9030737
2.4046848
1.7251264
-1.4815098
-6.3204841
-9.893548
-9.6499708
-6.5097152
-2.3203043
2.5865346
13.774337
6.6223903
8.3585399
7.6733279
5.7388011
4.1780885
3.9850236
4.8704822
6.0628102
6.9994606
7.4885463
7.629719
7.6053368
7.5032225
7.3526021
7.1913279
7.0623341
7.001503
7.0223775
7.0972121
7.1805801
7.2517393
7.3124679
7.3620988
7.394923
7.4047662
7.3869725
7.3397362
7.2638153
7.1621222
7.0391184
6.9001031
6.7506443
6.5960779
6.4412572
6.290483
6.1472809
6.0144194
5.8940098
5.7874902
5.6957217
5.6189532
5.5569273
5.5092934
5.4750823
5.4533888
5.4442482
5.4479585
5.4615362
5.4808433
5.5174588
5.5969087
5.6862543
-0.24587941
-0.23862056
-0.22482911
-0.20716497
-0.1873236
-0.16654761
-0.14581959
-0.12591892
-0.10742643
-0.090737557
-0.076093036
-0.063642211
-0.05352451
-0.045905452
-0.04104425
-0.039319235
-0.041285165
-0.047700289
-0.059581955
-0.078427971
-0.1061715
-0.14583252
-0.20002663
-0.2919965
-0.4057426
-0.67744693
-0.72466174
0.89386858
2.6051328
0.53802091
-0.98675607
-1.6766025
-1.6615283
-1.1888273
-0.39650639
0.47645934
1.5430956
2.8354681
3.5337493
2.876974
-1.2851469
-8.220432
-12.10326
-12.054551
-8.8540101
-9.8649488
7.345357
7.9770229
7.9727696
8.718519
7.2361413
4.6729699
2.5724291
1.8617388
2.6037491
4.168622
5.7502316
6.84013
7.4247584
7.683704
7.6936544
7.5043641
7.2200989
6.9439677
6.7649172
6.7367317
6.8207803
6.9271899
7.0187422
7.111266
7.2038661
7.2812099
7.3297497
7.3397568
7.3080872
7.2359702
7.1280456
6.9911322
6.8329188
6.6611421
6.4829643
6.3046556
6.1315764
5.9679782
5.8171347
5.6813795
5.5622291
5.4604309
5.3760252
5.3084475
5.2568722
5.2195703
5.1952122
5.1840057
5.1859764
5.1952689
5.2057496
5.2434569
5.3528849
5.4665224
-0.28406192
-0.27355402
-0.25505683
-0.23206406
-0.20690706
-0.18116073
-0.15608236
-0.13256096
-0.11116632
-0.092210784
-0.075826351
-0.06205879
-0.050949021
-0.042603169
-0.037233511
-0.035201932
-0.037197116
-0.044187114
-0.057460023
-0.078957981
-0.11112515
-0.15611278
-0.21943687
-0.30350515
-0.41534967
-0.42607025
-0.65947537
-0.71214064
-0.8785736
-1.2330109
-1.9785337
-2.5637064
-2.4375296
-1.7377549
-0.81042659
0.21484542
1.5970332
3.1999838
4.5333608
3.5494079
-2.4246582
-6.6835479
-5.9131279
-12.312467
-13.858069
-11.665972
0.53725789
5.5656693
8.604121
9.244145
7.5126525
4.6492006
1.8393085
0.26538311
0.55618079
2.2990741
4.4187436
6.0782119
7.1299028
7.7402933
7.9162343
7.6673763
7.1963985
6.692839
6.3295393
6.2404967
6.3777064
6.5509153
6.6784266
6.8257572
6.9946552
7.1475897
7.2592627
7.3120494
7.3033174
7.2363301
7.1193271
6.9631658
6.7792023
6.5782133
6.3697481
6.1618825
5.9611813
5.7726649
5.6000468
5.4459327
5.3119161
5.1985227
5.1054926
5.0318512
4.9760755
4.9353523
4.9072366
4.891905
4.8892264
4.8863809
4.8654539
4.8782655
5.0273181
5.1863963
-0.33092881
-0.31543073
-0.28997251
-0.2594813
-0.2272223
-0.19521276
-0.16488522
-0.13717163
-0.11254155
-0.091156073
-0.072978575
-0.057880056
-0.045722285
-0.036447249
-0.030114043
-0.027092543
-0.0280726
-0.034163153
-0.046926178
-0.068581761
-0.10215865
-0.14967011
-0.22120882
-0.31779112
-0.45513793
-0.51467783
-0.76378191
-0.97408103
-1.2003154
-1.7871407
-2.3739879
-2.8873196
-2.7677017
-2.1047668
-1.3071984
-0.34838775
1.4121323
4.0853469
6.9770999
5.6774678
4.5027273
-3.9589847
-7.5903496
-9.0673838
-9.2420302
-1.1657292
-4.4454864
5.2732804
8.8250458
9.7230635
8.2240206
5.3036098
1.8159039
-0.81552799
-1.3107893
0.22482735
2.4657395
4.4943426
6.198393
7.5685213
8.198581
7.878054
7.1377332
6.2778603
5.6041646
5.4277686
5.6935789
5.9806169
6.1604555
6.4045365
6.7152554
6.9940411
7.2009118
7.3176257
7.3393412
7.276547
7.1445073
6.960578
6.7415001
6.502156
6.2550536
6.0102942
5.7756692
5.5570345
5.3585044
5.1828014
5.0315019
4.9049955
4.8026884
4.7231291
4.6634526
4.6198171
4.5873786
4.5662628
4.5546638
4.5230997
4.4271037
4.3497659
4.5745167
4.8760345
-0.38966252
-0.36615197
-0.33016952
-0.28908591
-0.24747518
-0.20773419
-0.17120922
-0.13877667
-0.11071903
-0.086937611
-0.067110957
-0.05084073
-0.03771948
-0.027423379
-0.019799596
-0.015007491
-0.013816747
-0.01730774
-0.027270704
-0.046148341
-0.0772969
-0.12427256
-0.19926963
-0.31329244
-0.46166727
-0.63053806
-0.89654775
-1.187161
-1.5239828
-1.5995922
-2.4459059
-2.9686892
-3.0290326
-2.4536385
-2.1879205
-1.7960361
0.84527639
6.0726361
13.211886
13.212294
6.8774811
-1.3536455
-4.9098397
-4.9905604
-1.9440413
-2.7609858
-0.0053966403
5.731387
9.0406302
10.019015
8.9784721
6.4363388
2.5504188
-0.65814944
-1.9390501
-1.0156716
0.74607497
2.5945817
4.9982249
7.5139392
9.0986126
8.8259994
7.4218976
5.8273811
4.434074
3.9438263
4.415631
5.1116822
5.3889137
5.7923869
6.348595
6.8297707
7.1802229
7.3803062
7.4361059
7.3711975
7.2128299
6.9880942
6.7209523
6.4314124
6.1353878
5.8450933
5.5695111
5.3150984
5.0862068
4.8855487
4.7144817
4.573268
4.461097
4.3761813
4.3146395
4.2709356
4.2393624
4.2219145
4.2127344
4.1660635
4.0378652
3.9659542
5.008496
8.8666047
-0.46473532
-0.42796426
-0.37587975
-0.31987666
-0.26667512
-0.21729194
-0.17355937
-0.13606006
-0.10467953
-0.078828764
-0.057771882
-0.040742347
-0.02698337
-0.015792074
-0.0065993603
0.00048494248
0.0051376873
0.0059710024
0.0015520958
-0.010962291
-0.035109389
-0.075754531
-0.1449172