/*--------------------------------*- C++ -*----------------------------------*\
  =========                 |
  \\      /  F ield         | OpenFOAM: The Open Source CFD Toolbox
   \\    /   O peration     | Website:  https://openfoam.org
    \\  /    A nd           | Version:  9
     \\/     M anipulation  |
\*---------------------------------------------------------------------------*/
FoamFile
{
    format      ascii;
    class       surfaceScalarField;
    location    "0.89";
    object      phi;
}
// * * * * * * * * * * * * * * * * * * * * * * * * * * * * * * * * * * * * * //

dimensions      [0 3 -1 0 0 0 0];

internalField   nonuniform List<scalar> 
19800
(
1.7754456e-05
4.8751845e-05
1.604731e-05
4.9816436e-05
1.4079975e-05
5.1504553e-05
1.1879896e-05
5.334012e-05
9.2929989e-06
5.563289e-05
6.2895782e-06
5.8184592e-05
2.809668e-06
6.0973434e-05
-1.2233946e-06
6.40002e-05
-5.8816226e-06
6.7204258e-05
-1.1278132e-05
7.0560873e-05
-1.7522922e-05
7.4018374e-05
-2.4768881e-05
7.7630412e-05
-3.3164486e-05
8.1296489e-05
-4.2893883e-05
8.4949969e-05
-5.4221885e-05
8.8711007e-05
-6.7425204e-05
9.2533246e-05
-8.2872992e-05
9.6419143e-05
-0.00010086884
0.00010026989
-0.00012198159
0.00010449619
-0.00014669243
0.00010902754
-0.0001753155
0.00011380237
-0.00020836705
0.00011961823
-0.00024605748
0.00012615741
-0.00028890411
0.00013381803
-0.00033742652
0.00014250321
-0.00039215746
0.00015222306
-0.00045363785
0.00016294491
-0.00052238977
0.00017454554
-0.00059888021
0.00018684172
-0.00068346494
0.00019961273
-0.00077631551
0.00021261906
-0.00087734257
0.00022556204
-0.00098614887
0.00023812025
-0.0011020668
0.00025001128
-0.0012242645
0.0002609127
-0.0013518749
0.00027052278
-0.001484161
0.0002787752
-0.0016207313
0.00028590269
-0.0017618166
0.00029248962
-0.0019086044
0.00029948557
-0.0020636497
0.0003080758
-0.0022306677
0.00031847836
-0.0024130052
0.00032796945
-0.0026151653
0.00033457159
-0.0028460914
0.00033465962
-0.0030804768
0.00026630859
-0.0031822413
-3.3359086e-05
-0.0028780629
-0.00070413825
-0.0019553663
-0.0016773975
-0.00077922158
-0.002177074
0.00029100929
-0.0021169141
0.0013109074
-0.0021913838
0.0020887448
-0.0017550418
0.0027614977
-0.0017472145
0.0032053425
-0.0014368259
0.0036141566
-0.0014080749
0.0043370616
-0.0020322411
0.0052336673
-0.0022767781
0.0060674529
-0.0019064426
0.0065015699
-0.0011313371
0.0063252593
-0.00027983628
0.0057477161
0.00041979971
0.005189916
0.0007929317
0.0047392225
0.0010255968
0.0043359755
0.0011863484
0.0039303979
0.0013266548
0.0035247443
0.0014363263
0.0031360442
0.0014883247
0.0027725322
0.0014876496
0.0024375451
0.0014529774
0.002132151
0.0013951957
0.001855163
0.001318967
0.0016041637
0.001228495
0.0013764473
0.0011283475
0.0011693657
0.0010234194
0.00098056476
0.00091870494
0.00080815756
0.00081840896
0.00065075354
0.00072513952
0.00050736799
0.00063986101
0.00037736334
0.00056255878
0.0002604375
0.00049237127
0.00015622995
0.00042904144
6.4376404e-05
0.00037179184
-1.5465907e-05
0.00031987163
-8.3749788e-05
0.00027265768
-0.00014105508
0.00022962949
-0.00018792305
0.00019024918
-0.00022469284
0.00015391948
-0.00025147511
0.00011983033
-0.00027008939
8.8884228e-05
-0.00028185661
6.0632287e-05
-0.00028757812
3.5117731e-05
-0.00028699894
1.265392e-05
-0.00027831878
-7.1762869e-06
-0.00026247729
-2.4074382e-05
-0.00023966068
-3.8278857e-05
-0.00021099638
-5.0211114e-05
-0.00017736907
-6.0147326e-05
-0.00013970314
-6.8067896e-05
-7.5715392e-05
1.9085644e-05
4.9382528e-05
1.805453e-05
5.0848365e-05
1.6644008e-05
5.2919816e-05
1.4900834e-05
5.5088052e-05
1.2688702e-05
5.7845898e-05
1.0020572e-05
6.0854587e-05
6.8032044e-06
6.4192389e-05
2.9645642e-06
6.7841955e-05
-1.5779265e-06
7.1747896e-05
-6.9140177e-06
7.5896715e-05
-1.3147119e-05
8.0254023e-05
-2.0384486e-05
8.4869336e-05
-2.8882073e-05
8.979109e-05
-3.8740554e-05
9.4805161e-05
-5.0250623e-05
0.00010022067
-6.3504096e-05
0.00010578748
-7.8867875e-05
0.00011178454
-9.6824605e-05
0.00011823085
-0.00011759938
0.00012527664
-0.00014171349
0.00013314524
-0.00016973513
0.00014182441
-0.00020173414
0.00015161646
-0.00023832429
0.00016274757
-0.00028002224
0.00017551729
-0.00032749863
0.00018998249
-0.00038127169
0.00020600082
-0.00044191835
0.00022359738
-0.0005099944
0.00024262696
-0.0005860015
0.00026285275
-0.00067032582
0.00028393993
-0.00076315417
0.00030545011
-0.0008644208
0.0003268315
-0.00097377167
0.00034747368
-0.0010905361
0.00036677741
-0.001213783
0.00038416012
-0.0013424554
0.00039919475
-0.0014755438
0.00041186305
-0.0016123942
0.00042275288
-0.0017531565
0.00043325202
-0.0018994109
0.00044574129
-0.0020552185
0.00046388781
-0.0022277504
0.00049101487
-0.0024268393
0.00052705868
-0.0026767167
0.00058444946
-0.0030386345
0.00069658045
-0.003496311
0.00072398107
-0.0036591281
0.00012945093
-0.0028844083
-0.0014788568
-0.0013589589
-0.0032028459
0.00026656885
-0.0038026031
0.0018218159
-0.0036721574
0.0028697208
-0.0032392877
0.0035384856
-0.0024238055
0.0039639319
-0.0021726616
0.0043314735
-0.0018043771
0.0051871409
-0.0022637426
0.0060016789
-0.002846784
0.0068281624
-0.0031032649
0.0077390787
-0.0028173564
0.0081198241
-0.0015120849
0.0076731537
0.00016683139
0.006646061
0.0014468845
0.0056291206
0.0018098677
0.004848871
0.0018058372
0.0043317039
0.0017035135
0.0039052411
0.0017531161
0.0034823323
0.00185924
0.0030671173
0.0019035414
0.0026840551
0.0018707102
0.0023415836
0.0017954467
0.0020368068
0.0016999637
0.0017644434
0.0015913228
0.0015195802
0.0014733607
0.0012979837
0.0013499516
0.0010961493
0.0012252596
0.00091144885
0.0011034071
0.00074216504
0.00098769227
0.00058730958
0.00087999659
0.00044630875
0.00078086451
0.0003188215
0.00069004665
0.00020441596
0.00060677916
0.0001027478
0.00053071663
1.3506394e-05
0.00046103936
-6.3850993e-05
0.00039723033
-0.00012979928
0.00033860861
-0.00018481003
0.00028464167
-0.00022940039
0.00023483626
-0.00026424197
0.00018875997
-0.00029043923
0.00014602573
-0.00030807246
0.00010651936
-0.00031786875
7.0430685e-05
-0.0003191511
3.6407541e-05
-0.00031235707
5.8605613e-06
-0.00029930563
-2.0226241e-05
-0.00027981539
-4.3562969e-05
-0.0002541265
-6.3964045e-05
-0.00022287938
-8.1452613e-05
-0.00018684275
-9.6182939e-05
-0.00014679515
-0.00010810488
-0.00011964215
2.0644918e-05
4.9610516e-05
1.9992513e-05
5.1503314e-05
1.9010989e-05
5.390372e-05
1.7627341e-05
5.6471158e-05
1.5816264e-05
5.9657515e-05
1.3494518e-05
6.3176971e-05
1.0612655e-05
6.7076928e-05
7.0717183e-06
7.1383966e-05
2.8077271e-06
7.6010769e-05
-2.2612684e-06
8.0967167e-05
-8.2856004e-06
8.6280469e-05
-1.5340202e-05
9.1922597e-05
-2.3484538e-05
9.7933373e-05
-3.3059261e-05
0.00010438062
-4.414939e-05
0.00011131298
-5.7086513e-05
0.00011872699
-7.2158714e-05
0.00012686075
-8.9448245e-05
0.00013552596
-0.00010951937
0.00014535212
-0.00013267726
0.00015630466
-0.00015931725
0.00016846455
-0.00018993684
0.00018223686
-0.00022510924
0.00019792202
-0.00026524809
0.00021565927
-0.000311074
0.00023581239
-0.00036317339
0.00025810443
-0.0004222465
0.00028267361
-0.00048895179
0.00030933329
-0.0005638845
0.00033778486
-0.00064750869
0.00036756328
-0.00074008987
0.00039803126
-0.00084164771
0.00042839028
-0.0009518976
0.00045772517
-0.0010701658
0.00048504767
-0.0011953829
0.00050937939
-0.0013261863
0.00053000003
-0.0014610263
0.00054670456
-0.0015985396
0.00056026769
-0.0017380397
0.00057275328
-0.0018804342
0.00058813533
-0.0020291829
0.00061263636
-0.0021918809
0.00065371474
-0.0023884475
0.00072362515
-0.0026818869
0.0008778861
-0.0031827077
0.0011974037
-0.0037778334
0.0013191105
-0.0036831198
3.4735078e-05
-0.0022011581
-0.0029608195
-6.9983762e-05
-0.0053340174
0.0019174434
-0.0057900303
0.0035314764
-0.0052861909
0.0047790123
-0.0044868242
0.0059518279
-0.0035966219
0.0070725226
-0.0032933546
0.0080328155
-0.0027646707
0.008749609
-0.0029805365
0.0091063247
-0.0032035004
0.0091292289
-0.0031261686
0.008978476
-0.0026666042
0.008900741
-0.0014343553
0.0088339008
0.00023367022
0.0082635494
0.0020172321
0.007065249
0.0030081638
0.0057702227
0.003100862
0.0047568694
0.0027168696
0.0040544024
0.0024555827
0.0035053077
0.0024083358
0.0030154425
0.0023934025
0.0025822878
0.0023038587
0.0022122522
0.002165484
0.0018962116
0.0020160083
0.0016216824
0.0018658535
0.00137955
0.001715495
0.001163179
0.0015663255
0.00096758236
0.0014208608
0.00078943784
0.0012815565
0.00062686652
0.0011502645
0.00047890232
0.001027961
0.00034503067
0.00091474155
0.00022488495
0.00081019895
0.00011784453
0.00071382294
2.3487567e-05
0.00062507734
-5.884519e-05
0.00054337834
-0.000129736
0.00046812454
-0.00018969595
0.00039856944
-0.00023926428
0.00033421112
-0.00027895472
0.0002745256
-0.00030927579
0.00021908195
-0.0003307519
0.00016750411
-0.00034384543
0.00011961559
-0.00034864524
7.5229862e-05
-0.00034671708
3.4483401e-05
-0.00033820715
-2.6478163e-06
-0.00032227494
-3.6157811e-05
-0.00029978382
-6.6055156e-05
-0.00027131033
-9.2435844e-05
-0.00023739932
-0.00011535906
-0.00019872191
-0.00013486151
-0.0001559927
-0.0001508303
-0.00016639799
2.2226816e-05
4.9438447e-05
2.2019349e-05
5.1711319e-05
2.146735e-05
5.4453613e-05
2.049544e-05
5.74432e-05
1.9106423e-05
6.1047301e-05
1.7163065e-05
6.5123245e-05
1.4656963e-05
6.9584505e-05
1.1489592e-05
7.4549845e-05
7.6005706e-06
7.9900212e-05
2.893914e-06
8.5676027e-05
-2.6691201e-06
9.1843368e-05
-9.3543223e-06
9.8606705e-05
-1.7057615e-05
0.00010563822
-2.6137642e-05
0.00011346402
-3.6584766e-05
0.0001217632
-4.8782979e-05
0.00013092877
-6.2859508e-05
0.00014094211
-7.9271841e-05
0.00015194257
-9.8086434e-05
0.00016416867
-0.00011978335
0.00017800211
-0.00014487292
0.00019355529
-0.00017367063
0.00021103713
-0.00020679389
0.00023104868
-0.00024469143
0.0002535604
-0.00028826338
0.0002793875
-0.00033816109
0.00030800391
-0.00039519956
0.00033971164
-0.00046018917
0.00037432061
-0.00053389441
0.00041148739
-0.00061696903
0.00045063622
-0.00070986121
0.00049092332
-0.00081271359
0.00053124384
-0.00092524001
0.00057025368
-0.0010466475
0.00060645798
-0.0011755903
0.00063832553
-0.0013101215
0.00066453413
-0.0014478088
0.00068439342
-0.0015859567
0.00069841616
-0.0017222864
0.00070908289
-0.0018556565
0.00072150377
-0.0019861428
0.00074311952
-0.0021185281
0.00078609926
-0.0022874075
0.00089250631
-0.0025879122
0.0011783911
-0.0030636974
0.0016731894
-0.0033878397
0.001643257
-0.0026508228
-0.00070227839
-0.00084932755
-0.0047623174
0.00089628568
-0.0070796324
0.0025832622
-0.0074770051
0.0044996277
-0.0072025573
0.0062980445
-0.0062852409
0.0084820589
-0.0057806338
0.01026439
-0.0050756857
0.011676996
-0.004177272
0.012395331
-0.0036988677
0.012497935
-0.0033061082
0.011982175
-0.0026104121
0.011056896
-0.0017413253
0.010257062
-0.00063452408
0.0096252499
0.00086547828
0.0091260673
0.0025164172
0.0082265139
0.0039077169
0.0069128291
0.0044145447
0.0054463746
0.0041833226
0.0042854722
0.0036164836
0.0035070893
0.0031867178
0.0029365359
0.002963958
0.0024637301
0.0027766627
0.0020682233
0.0025609862
0.0017395309
0.0023447012
0.0014610878
0.0021443015
0.0012200605
0.0019565273
0.0010080112
0.0017783781
0.00081896758
0.0016099051
0.00064893977
0.0014515827
0.00049554689
0.0013036557
0.00035737399
0.0011661343
0.00023368934
0.0010384301
0.00012318454
0.0009207082
2.535898e-05
0.00081165164
-6.0535899e-05
0.00071097709
-0.00013525957
0.00061810873
-0.00019938237
0.00053225057
-0.00025337554
0.00045256107
-0.00029775013
0.0003785849
-0.00033286643
0.00030964216
-0.00035914403
0.00024535766
-0.00037700052
0.0001853591
-0.00038676651
0.00012938163
-0.00038907435
7.7537726e-05
-0.00038386671
2.9275835e-05
-0.00037139419
-1.5121757e-05
-0.00035206351
-5.5486578e-05
-0.00032620642
-9.1911436e-05
-0.00029431319
-0.00012432843
-0.0002569028
-0.00015276616
-0.00021462232
-0.00017713132
-0.00016828784
-0.00019716119
-0.00021683033
2.4472047e-05
4.8691855e-05
2.4736116e-05
5.1443778e-05
2.46027e-05
5.4586147e-05
2.4115825e-05
5.7930917e-05
2.312397e-05
6.204293e-05
2.1637157e-05
6.6612757e-05
1.9528044e-05
7.1692921e-05
1.6834534e-05
7.7243788e-05
1.3403829e-05
8.3333462e-05
9.1603765e-06
8.9920328e-05
3.9744356e-06
9.7028814e-05
-2.0090791e-06
0.0001045918
-9.2828334e-06
0.00011291531
-1.7600063e-05
0.00012178385
-2.7339991e-05
0.00013150513
-3.8496118e-05
0.0001420877
-5.1499998e-05
0.00015394886
-6.6575726e-05
0.00016701958
-8.3865203e-05
0.00018145815
-0.00010378082
0.00019791824
-0.00012673196
0.00021650827
-0.00015327615
0.0002375838
-0.00018370694
0.00026148181
-0.00021879402
0.00028864928
-0.00025932201
0.0003199164
-0.00030622787
0.00035490931
-0.00036040116
0.00039388329
-0.00042283763
0.00043675525
-0.00049453595
0.00048318471
-0.00057640108
0.00053250151
-0.00066914044
0.00058366364
-0.00077312847
0.00063523323
-0.00088826239
0.00068538922
-0.0010137811
0.00073197849
-0.0011480893
0.00077263571
-0.0012885886
0.00080503504
-0.0014316161
0.00082742128
-0.0015725932
0.00083939232
-0.0017064863
0.00084297469
-0.0018280971
0.00084311335
-0.0019313539
0.00084637452
-0.0020146102
0.00086935379
-0.0021052377
0.00098313413
-0.0022549793
0.0013281353
-0.0023971029
0.0018153133
-0.00216369
0.0014098419
-0.0012312129
-0.0016347526
-4.3620209e-05
-0.0059499079
0.0013261814
-0.0084494381
0.0030941338
-0.0092449561
0.0046825735
-0.0087909938
0.0069980253
-0.0086006929
0.0092090054
-0.0079916088
0.011244059
-0.0071107388
0.012801547
-0.005734758
0.013584292
-0.0044816124
0.014168071
-0.0038898863
0.013840863
-0.0022832069
0.012887803
-0.00078827212
0.011565023
0.00068825766
0.010275797
0.0021547033
0.0093688684
0.0034233483
0.0082822821
0.0049943032
0.0069812951
0.0057155312
0.0054151878
0.0057494238
0.0041238994
0.0049077721
0.0032825717
0.0040280396
0.0027194062
0.0035271186
0.0022641672
0.0032319076
0.0018748368
0.0029503205
0.0015493695
0.0026701668
0.0012762048
0.0024174645
0.0010420396
0.0021906907
0.00083805591
0.001982358
0.00065822817
0.0017897296
0.0004984221
0.0016113899
0.00035596209
0.0014461216
0.0002289247
0.0012931774
0.00011533588
0.0011520229
1.4910221e-05
0.0010211383
-7.4029305e-05
0.00090059506
-0.00015225867
0.00078920822
-0.00022016215
0.00068601245
-0.00027819511
0.00059028492
-0.00032680676
0.00050117627
-0.00036631546
0.0004180973
-0.0003970132
0.0003403448
-0.00041919133
0.00026753711
-0.00043314883
0.00019931724
-0.00043914122
0.00013537207
-0.00043729552
7.5693544e-05
-0.00042804136
2.0020414e-05
-0.00041168132
-3.1485607e-05
-0.00038842618
-7.8740044e-05
-0.00035857414
-0.00012175926
-0.0003225998
-0.00016029907
-0.00028115365
-0.000194214
-0.00023471596
-0.0002235613
-0.00018393392
-0.00024793671
-0.0002717361
2.6799166e-05
4.736023e-05
2.769461e-05
5.0547812e-05
2.8137523e-05
5.4144008e-05
2.8214326e-05
5.7858246e-05
2.7730588e-05
6.2530322e-05
2.6747392e-05
6.7596445e-05
2.5174957e-05
7.3266688e-05
2.2942815e-05
7.947944e-05
2.0010401e-05
8.6267995e-05
1.6333644e-05
9.3597412e-05
1.1828904e-05
0.00010153507
6.3424586e-06
0.00011008092
-5.6303626e-08
0.00011931533
-7.6486061e-06
0.00012937579
-1.6411239e-05
0.00014026771
-2.6666211e-05
0.0001523433
-3.8300252e-05
0.00016558293
-5.1656457e-05
0.00018037493
-6.7211279e-05
0.00019701239
-8.4916799e-05
0.00021562407
-0.00010521335
0.00023680533
-0.00012868315
0.00026105358
-0.00015596921
0.00028876745
-0.00018764447
0.00032032424
-0.00022412837
0.00035640028
-0.0002669579
0.00039773912
-0.00031718656
0.00044411278
-0.00037603364
0.00049560391
-0.00044480569
0.0005519588
-0.00052476521
0.00061246273
-0.00061700689
0.00067590616
-0.00072227886
0.00074050528
-0.00084078144
0.00080389152
-0.00097192271
0.00086311934
-0.0011139928
0.00091470525
-0.0012638162
0.00095485784
-0.0014164407
0.00098004517
-0.0015650279
0.00098797903
-0.0017009781
0.00097892434
-0.0018134637
0.00095559829
-0.0018891591
0.00092207013
-0.0019199042
0.00090009873
-0.0019132564
0.00097648282
-0.0018545527
0.0012694302
-0.001647908
0.0016086719
-0.0012147793
0.00097671011
-0.00045682079
-0.0023927138
0.00052831007
-0.0069350328
0.0021091345
-0.010030262
0.0038482674
-0.010984091
0.0056395119
-0.010582235
0.0075969432
-0.010558124
0.010081088
-0.010475751
0.012016408
-0.0090460594
0.013184078
-0.0069024229
0.013793523
-0.0050910596
0.013788659
-0.0038850262
0.013749949
-0.0022444944
0.013385397
-0.00042372339
0.012740249
0.0013334058
0.011636033
0.0032589209
0.0099870026
0.0050723819
0.008201098
0.0067802062
0.0062248606
0.0076917701
0.0046960035
0.007278272
0.0035194955
0.0060842784
0.002791602
0.0047559358
0.0023295116
0.0039892046
0.0019524129
0.0036090056
0.0016082262
0.0032945141
0.0013086495
0.0029697502
0.0010544662
0.0026716493
0.00083622244
0.0024089328
0.00064656875
0.0021720115
0.00048000502
0.0019562958
0.00033339701
0.0017580002
0.00020358851
0.0015759338
8.816616e-05
0.0014086057
-1.3932579e-05
0.0012541265
-0.00010477348
0.0011119818
-0.00018500339
0.00098082596
-0.00025523054
0.00085943569
-0.0003159973
0.00074677864
-0.00036756792
0.00064185416
-0.00041034918
0.00054395741
-0.00044442322
0.00045216795
-0.00047013993
0.00036605974
-0.00048767452
0.00028507045
-0.00049714323
0.00020878928
-0.00049882336
0.00013704964
-0.00049282858
6.97004e-05
-0.00047941645
6.6100775e-06
-0.00045881482
-5.2085728e-05
-0.00043119407
-0.0001063602
-0.00039696476
-0.00015598525
-0.00035650972
-0.00020074716
-0.00031025217
-0.00024047074
-0.00025900078
-0.00027481264
-0.00020294243
-0.00030399584
-0.00033189279
2.9545494e-05
4.5367954e-05
3.105236e-05
4.9042511e-05
3.2130132e-05
5.3070398e-05
3.2711805e-05
5.7280051e-05
3.2796299e-05
6.244672e-05
3.2362661e-05
6.8032129e-05
3.1381943e-05
7.4251809e-05
2.9739322e-05
8.1125427e-05
2.7406841e-05
8.8601978e-05
2.4327793e-05
9.6678543e-05
2.0489114e-05
0.00010537635
1.5808995e-05
0.00011476149
1.0185533e-05
0.00012493663
3.6095179e-06
0.00013594937
-4.1036582e-06
0.00014797961
-1.2887312e-05
0.00016112613
-2.3041123e-05
0.00017573566
-3.4613643e-05
0.0001919465
-4.7865667e-05
0.00021026376
-6.2981451e-05
0.00023073865
-8.0394143e-05
0.00025421563
-0.00010035178
0.00028100829
-0.00012350502
0.00031191864
-0.00015071538
0.00034753438
-0.00018258484
0.00038827139
-0.0002201517
0.00043530903
-0.00026522624
0.00048919114
-0.00031919645
0.00054957783
-0.00038380398
0.00061656899
-0.00046079739
0.00068945719
-0.00055182724
0.0007669356
-0.000658229
0.00084690574
-0.00078077172
0.00092643244
-0.00091932125
0.0010016667
-0.0010723464
0.0010677283
-0.0012363407
0.0011188504
-0.0014052734
0.0011489768
-0.0015700118
0.0011527182
-0.0017178364
0.0011267511
-0.0018315416
0.0010693035
-0.0018910625
0.0009815897
-0.001884429
0.000893467
-0.0018149274
0.00090697923
-0.0016534917
0.0011079873
-0.0012720804
0.0012272624
-0.00061977834
0.00032441221
0.00019629684
-0.0032087923
0.0010426645
-0.0077814004
0.0023717937
-0.011359385
0.0036721635
-0.012284461
0.0051323932
-0.012042466
0.0072739387
-0.012699669
0.0096501378
-0.012851945
0.011571423
-0.01096735
0.01321778
-0.0085487777
0.014290748
-0.006164024
0.015366761
-0.0049610423
0.015229859
-0.0021075938
0.014618462
0.00018767424
0.013638774
0.0023130949
0.012055093
0.0048426053
0.0098797982
0.0072476817
0.0075327994
0.0091271994
0.0055137249
0.0097108396
0.0038796813
0.0089123108
0.0028314499
0.007132507
0.0021992744
0.0053881188
0.0018399431
0.004348546
0.0015567673
0.0038921863
0.0012766832
0.0035746001
0.0010188946
0.0032275397
0.00079460628
0.0028959366
0.00060009857
0.0026034391
0.00043030419
0.0023418057
0.00028191828
0.0021046833
0.00015134776
0.0018885727
3.6074139e-05
0.0016912086
-6.5625176e-05
0.001510306
-0.00015614156
0.0013446417
-0.0002362607
0.001192097
-0.00030682466
0.0010513853
-0.00036832497
0.00092093406
-0.00042121459
0.00079966838
-0.00046577632
0.00068641379
-0.00050216998
0.00058035181
-0.00053059824
0.00048059668
-0.0005511097
0.00038657218
-0.00056378431
0.00029774331
-0.00056871505
0.00021372386
-0.00056602454
0.00013435606
-0.0005557099
5.9382393e-05
-0.00053792399
-1.1177063e-05
-0.0005128074
-7.7197348e-05
-0.00048060848
-0.00013855615
-0.0004415587
-0.00019503896
-0.00039599758
-0.00024630432
-0.00034443077
-0.00029203171
-0.00028768515
-0.00033155184
-0.00022553401
-0.00036614906
-0.00039810664
3.263558e-05
4.2665881e-05
3.4837817e-05
4.6844007e-05
3.6561564e-05
5.1348938e-05
3.7783954e-05
5.6057627e-05
3.8522458e-05
6.1709859e-05
3.8647993e-05
6.7910764e-05
3.8154862e-05
7.4748482e-05
3.7145175e-05
8.2137306e-05
3.5511494e-05
9.0238643e-05
3.3110356e-05
9.9083199e-05
2.9997728e-05
0.00010849012
2.6105505e-05
0.00011865162
2.1458023e-05
0.00012958117
1.5923474e-05
0.00014148226
9.5056261e-06
0.00015439699
2.0807741e-06
0.00016855086
-6.2286869e-06
0.00018404516
-1.5849653e-05
0.00020156735
-2.6584839e-05
0.00022099761
-3.8865399e-05
0.00024301596
-5.2740337e-05
0.0002680863
-6.8635124e-05
0.00029689979
-8.7261682e-05
0.0003305444
-0.00010880135
0.00036907582
-0.00013486931
0.00041434276
-0.00016605943
0.00046650298
-0.0002043345
0.00052746947
-0.00025169182
0.00059693721
-0.00031040675
0.00067528473
-0.00038281418
0.00076186457
-0.00047133962
0.00085546057
-0.00057815988
0.00095372517
-0.00070493588
0.0010532068
-0.00085245619
0.0011491844
-0.0010199599
0.0012352295
-0.0012042084
0.0013030977
-0.0013986952
0.0013434631
-0.0015922087
0.0013462326
-0.0017671854
0.0013017317
-0.0018989186
0.0012010396
-0.001961612
0.0010442802
-0.0019466666
0.00087852142
-0.001866475
0.00082679171
-0.0017095273
0.00095103567
-0.0013296603
0.00084738989
-0.00050795548
-0.0004972894
0.00025860422
-0.0039753476
0.00099091694
-0.0085137163
0.001693904
-0.012062373
0.0019987855
-0.012589336
0.0029822944
-0.013025972
0.0048800858
-0.014597464
0.0073035201
-0.015275376
0.0094040832
-0.013067913
0.011355171
-0.01049987
0.013252007
-0.00806086
0.013946137
-0.0056551705
0.014353436
-0.0025148889
0.013695959
0.0008451541
0.012321905
0.0036871443
0.010537576
0.0066269276
0.0084275812
0.0093576749
0.006634086
0.010920699
0.0049156483
0.011429278
0.0034004923
0.01042747
0.0023198941
0.0082131036
0.0016737929
0.0060342174
0.0013536113
0.0046687301
0.001130526
0.0041152735
0.00090516158
0.0037999648
0.0006923482
0.0034403525
0.00050300466
0.0030852759
0.00033723268
0.0027692043
0.00019198035
0.0024870526
6.5403748e-05
0.0022312587
-4.5809801e-05
0.0019997903
-0.00014414826
0.001789552
-0.00023152552
0.0015976853
-0.00030896047
0.0014220775
-0.00037747035
0.0012606086
-0.0004375374
0.0011114506
-0.00048984708
0.00097323885
-0.00053456334
0.00084438283
-0.00057189397
0.00072374293
-0.00060186574
0.0006103253
-0.00062451717
0.00050325309
-0.0006397807
0.00040184216
-0.00064761511
0.0003055774
-0.00064799093
0.00021410223
-0.00064080196
0.00012716788
-0.00062607223
4.4651704e-05
-0.00060375478
-3.3499898e-05
-0.00057395507
-0.00010699905
-0.00053681468
-0.00017568863
-0.00049259845
-0.00023925147
-0.00044146081
-0.00029744265
-0.00038404553
-0.00034944491
-0.00032106847
-0.00039452542
-0.00025205014
-0.00043516148
-0.00047122269
3.6130332e-05
3.9181034e-05
3.9066752e-05
4.3907712e-05
4.1482118e-05
4.8931906e-05
4.3363094e-05
5.4176996e-05
4.4732761e-05
6.0342794e-05
4.5498632e-05
6.7146939e-05
4.5720148e-05
7.452836e-05
4.5225881e-05
8.2634634e-05
4.4235752e-05
9.1233235e-05
4.2596553e-05
0.0001007252
4.0259409e-05
0.00011082707
3.7261353e-05
0.00012164846
3.3544191e-05
0.00013329829
2.9159576e-05
0.00014586819
2.4038859e-05
0.00015951957
1.8184925e-05
0.00017440676
1.1464664e-05
0.00019076701
4.3318545e-06
0.00020870029
-3.8770304e-06
0.00022920438
-1.2943373e-05
0.00025207875
-2.3113708e-05
0.00027825371
-3.4590458e-05
0.00030837586
-4.7524885e-05
0.00034348038
-6.3083649e-05
0.00038463704
-8.1652847e-05
0.00043291387
-0.00010504005
0.00048989079
-0.00013466813
0.00055709706
-0.0001729459
0.00063521423
-0.00022336451
0.00072570323
-0.00028881774
0.00082731865
-0.00037269842
0.00093934243
-0.00047838367
0.001059411
-0.00060891532
0.0011837378
-0.00076650424
0.0013067712
-0.00095185145
0.0014205745
-0.0011628916
0.0015141381
-0.0013938782
0.0015744517
-0.00163238
0.0015847349
-0.001855216
0.0015245699
-0.0020283922
0.0013742215
-0.0021204249
0.0011363134
-0.0021326776
0.00089077031
-0.00209213
0.00078624662
-0.0019554767
0.00081438632
-0.0015112024
0.00040311175
-0.00056113698
-0.0014473622
0.00018176753
-0.0047182475
0.00071222063
-0.0090441618
0.00089613811
-0.012246291
0.00086299789
-0.012556198
0.0014488226
-0.013611791
0.0027487923
-0.015897434
0.004115454
-0.016642043
0.0058404224
-0.014792883
0.0081296949
-0.012789144
0.0098359702
-0.009767133
0.010532655
-0.0063518548
0.010568298
-0.0025505332
0.009887369
0.0015260821
0.008729065
0.0048454453
0.0079532766
0.0074027116
0.0067495875
0.010561358
0.0054477254
0.012222561
0.0041285189
0.012748482
0.0028650063
0.011690987
0.0018515251
0.0092265908
0.0012162711
0.0066694712
0.00090714027
0.0049778571
0.00070336647
0.0043190433
0.00051249513
0.0039908351
0.00033931047
0.0036135382
0.00018722427
0.0032373629
5.3540115e-05
0.0029028915
-6.2942324e-05
0.00260354
-0.00016548072
0.002333799
-0.00025599202
0.0020903019
-0.00033617376
0.0018697352
-0.00040739826
0.0016689085
-0.00047067379
0.0014853471
-0.00052670649
0.0013166372
-0.00057606075
0.0011608014
-0.00061886575
0.0010160366
-0.00065529016
0.00088080369
-0.00068535731
0.0007538125
-0.00070893558
0.00063390702
-0.00072585696
0.00052017474
-0.00073597139
0.00041195769
-0.00073899644
0.00030860091
-0.00073480088
0.00020990585
-0.0007231718
0.0001155381
-0.00070395308
2.5436942e-05
-0.00067703833
-6.0412508e-05
-0.000642407
-0.00014163287
-0.00060013009
-0.0002179626
-0.00055032135
-0.00028904966
-0.00049325218
-0.00035451088
-0.00042946518
-0.0004132273
-0.00035947795
-0.00046451986
-0.00028277995
-0.00051186157
-0.00055222334
4.0060425e-05
3.4865107e-05
4.3777415e-05
4.0187247e-05
4.691101e-05
4.5797647e-05
4.9516087e-05
5.1572761e-05
5.1533383e-05
5.8325214e-05
5.299038e-05
6.5689277e-05
5.376275e-05
7.3757734e-05
5.4029611e-05
8.2372008e-05
5.356728e-05
9.169953e-05
5.2709012e-05
0.00010158564
5.1217651e-05
0.00011232013
4.9098437e-05
0.00012377052
4.6380001e-05
0.00013602065
4.3128944e-05
0.00014912334
3.9325262e-05
0.00016332708
3.5062003e-05
0.00017867332
3.0306339e-05
0.00019552466
2.5033125e-05
0.00021397345
1.9835888e-05
0.00023440013
1.4050782e-05
0.00025786267
8.0777899e-06
0.00028422715
1.6604977e-06
0.00031479495
-5.1226462e-06
0.00035026508
-1.3141677e-05
0.00039265589
-2.3221328e-05
0.00044299128
-3.6840078e-05
0.00050350623
-5.5794313e-05
0.00057604853
-8.2969048e-05
0.00066238812
-0.00012134379
0.00076407941
-0.00017655437
0.00088253197
-0.00025258521
0.0010153756
-0.00035423669
0.0011610635
-0.00048618548
0.0013156869
-0.00065295058
0.0014735362
-0.00085829148
0.0016259149
-0.001102975
0.0017588228
-0.0013837243
0.0018552045
-0.001687982
0.0018889938
-0.0019860087
0.0018225952
-0.0022341557
0.0016223717
-0.0023999962
0.0013021591
-0.0024859319
0.00097670546
-0.0024762946
0.0007766053
-0.0022071675
0.00054525997
-0.0014538407
-0.00035020891
-0.00042580868
-0.0024753981
0.00038773675
-0.0055317984
0.00073335104
-0.0093897688
0.00081201034
-0.01232494
0.0011907061
-0.012934895
0.0015676417
-0.013988733
0.0019521086
-0.016281899
0.0019734473
-0.016663384
0.0033231477
-0.016142579
0.0047126003
-0.014178597
0.0058217005
-0.010876233
0.0062551284
-0.0067852857
0.0060426178
-0.0023380278
0.0053988926
0.0021698046
0.0046601671
0.0055841676
0.0043503634
0.0077125118
0.0040422657
0.010869455
0.0034785345
0.012786295
0.0027015106
0.013525508
0.0019079939
0.012484502
0.0011942121
0.009940372
0.00072981143
0.0071338775
0.00046868112
0.0052389962
0.00026796985
0.0045197598
0.00010090621
0.0041578987
-3.0690631e-05
0.0037451312
-0.00014483805
0.003351505
-0.00024506242
0.0030031133
-0.0003324812
0.0026909611
-0.000409187
0.0024105063
-0.00047705061
0.0021581638
-0.00053743588
0.0019301218
-0.00059141957
0.0017228962
-0.00063977236
0.0015336981
-0.00068289869
0.0013597597
-0.00072103614
0.0011989401
-0.00075424969
0.0010492518
-0.00078244325
0.00090899583
-0.00080532414
0.00077669367
-0.00082264289
0.00065123026
-0.00083404614
0.00053157892
-0.00083910808
0.00041701865
-0.00083751919
0.00030701119
-0.00082901155
0.0002014008
-0.00081310112
9.9627097e-05
-0.00078947075
1.8049681e-06
-0.00075796783
-9.1910826e-05
-0.00071844313
-0.00018115208
-0.00067085377
-0.00026555035
-0.00061521998
-0.00034467769
-0.00055178041
-0.00041795197
-0.00048105887
-0.00048394011
-0.00040330188
-0.00054227383
-0.00031813665
-0.00059703501
-0.00064201773
4.4465585e-05
2.9658415e-05
4.901963e-05
3.5632437e-05
5.2926038e-05
4.1891562e-05
5.6237609e-05
4.825957e-05
5.8926202e-05
5.5634303e-05
6.102242e-05
6.3593067e-05
6.2525257e-05
7.2257739e-05
6.3368723e-05
8.1532254e-05
6.3660042e-05
9.1411689e-05
6.339398e-05
0.00010185583
6.2740136e-05
0.00011297955
6.1488649e-05
0.00012502826
5.978186e-05
0.00013773313
5.7622295e-05
0.00015128768
5.5117562e-05
0.00016583583
5.2304268e-05
0.00018148962
4.9480192e-05
0.00019835025
4.6455548e-05
0.00021699849
4.3629964e-05
0.00023722623
4.1481433e-05
0.00026001276
3.9625484e-05
0.0002860852
3.8614038e-05
0.00031580746
3.8207815e-05
0.00035067002
3.8446039e-05
0.00039241412
3.842916e-05
0.00044300385
3.7149528e-05
0.00050478271
3.1965275e-05
0.00058123203
1.9729788e-05
0.00067462517
-4.1295596e-06
0.00078794158
-4.4023146e-05
0.00092242833
-0.00010735517
0.0010787094
-0.00020037744
0.0012540866
-0.00033068024
0.0014459911
-0.00050539905
0.0016482578
-0.00073143214
0.00185195
-0.0010134859
0.002040877
-0.0013534993
0.0021952195
-0.0017453159
0.0022808121
-0.0021584359
0.0022357138
-0.0025436093
0.002007544
-0.0028550531
0.0016136061
-0.0030346289
0.0011562868
-0.0029298404
0.0006718168
-0.0022893257
-9.5261955e-05
-0.0011357443
-0.0015037876
7.4505818e-05
-0.0036856409
0.0010249354
-0.0064822304
0.0012836257
-0.0096484644
0.001356751
-0.012398061
0.0020654111
-0.013643547
0.0023743629
-0.014297686
0.0015888696
-0.015496403
0.00071171378
-0.015786232
0.0007345197
-0.016165384
0.0013869425
-0.014831019
0.0018675654
-0.011356853
0.001997152
-0.0069148717
0.0016725154
-0.0020133963
0.0012082871
0.0026340252
0.00076778712
0.006024668
0.00087719484
0.0076031057
0.0011335615
0.010613094