/*--------------------------------*- C++ -*----------------------------------*\
  =========                 |
  \\      /  F ield         | OpenFOAM: The Open Source CFD Toolbox
   \\    /   O peration     | Website:  https://openfoam.org
    \\  /    A nd           | Version:  9
     \\/     M anipulation  |
\*---------------------------------------------------------------------------*/
FoamFile
{
    format      ascii;
    class       volVectorField;
    location    "0.89";
    object      U;
}
// * * * * * * * * * * * * * * * * * * * * * * * * * * * * * * * * * * * * * //

dimensions      [0 1 -1 0 0 0 0];

internalField   nonuniform List<vector> 
10000
(
(0.0016994213 0.0048717652 0)
(0.0016814825 0.0049571389 0)
(0.0017505917 0.0050949402 0)
(0.0011084472 0.0052511818 0)
(0.0011528835 0.0054362062 0)
(0.00078441811 0.0056447015 0)
(0.00046041928 0.0058693994 0)
(8.7917977e-05 0.0061100796 0)
(-0.00034525811 0.006360809 0)
(-0.00084417188 0.0066161261 0)
(-0.0014263778 0.006871685 0)
(-0.0021044249 0.0071292843 0)
(-0.0028825197 0.007379037 0)
(-0.0037866148 0.0076126792 0)
(-0.0048380301 0.0078331977 0)
(-0.0060606445 0.0080395525 0)
(-0.0074619166 0.0082233961 0)
(-0.0091309221 0.0083823229 0)
(-0.011111643 0.0085513138 0)
(-0.013366977 0.0087249033 0)
(-0.016006122 0.008894722 0)
(-0.019083734 0.0091173616 0)
(-0.022610778 0.009377287 0)
(-0.026680543 0.0097022402 0)
(-0.031285667 0.010086385 0)
(-0.036448417 0.010531493 0)
(-0.042261644 0.011034184 0)
(-0.048772208 0.011584017 0)
(-0.056033256 0.012167493 0)
(-0.06408754 0.012772428 0)
(-0.072957638 0.013391889 0)
(-0.082647362 0.01402047 0)
(-0.093145597 0.014654877 0)
(-0.10440285 0.015291722 0)
(-0.11632799 0.015912063 0)
(-0.1288266 0.016485125 0)
(-0.14181949 0.016987773 0)
(-0.15525015 0.017406326 0)
(-0.16910481 0.017736205 0)
(-0.18344869 0.017977859 0)
(-0.19849467 0.018117234 0)
(-0.21456432 0.018059378 0)
(-0.23188381 0.017534756 0)
(-0.25098603 0.016184593 0)
(-0.27348792 0.013181084 0)
(-0.29916126 0.0049920886 0)
(-0.319161 -0.014814041 0)
(-0.31154338 -0.049525521 0)
(-0.24699064 -0.09677002 0)
(-0.13371019 -0.12936782 0)
(-0.027090577 -0.13574037 0)
(0.083164817 -0.15168174 0)
(0.1720917 -0.12687924 0)
(0.24325315 -0.13927478 0)
(0.29543814 -0.12601767 0)
(0.3374958 -0.12193839 0)
(0.39481724 -0.16249229 0)
(0.47725449 -0.17060654 0)
(0.57053766 -0.13031253 0)
(0.64222668 -0.084204243 0)
(0.65697932 -0.057288651 0)
(0.61120262 -0.016696804 0)
(0.54401084 0.027514317 0)
(0.49323689 0.063777945 0)
(0.45375703 0.085056636 0)
(0.41341294 0.099155563 0)
(0.37197743 0.1105568 0)
(0.33201616 0.11768419 0)
(0.29432768 0.12009831 0)
(0.25935933 0.11925092 0)
(0.22741815 0.11605372 0)
(0.19841857 0.11079125 0)
(0.17213648 0.10380721 0)
(0.14830991 0.095566128 0)
(0.12666317 0.086589979 0)
(0.10694259 0.07742705 0)
(0.088936002 0.068556213 0)
(0.072485835 0.060291808 0)
(0.057476612 0.052769571 0)
(0.043849825 0.046018809 0)
(0.031533864 0.039979475 0)
(0.020483162 0.034618164 0)
(0.010699662 0.029854035 0)
(0.0021411063 0.025607055 0)
(-0.0052347596 0.021805456 0)
(-0.011488132 0.018391341 0)
(-0.016675242 0.015317726 0)
(-0.020832654 0.012546807 0)
(-0.023980122 0.01002218 0)
(-0.026225998 0.0076491157 0)
(-0.027723327 0.0054262281 0)
(-0.028588786 0.003379594 0)
(-0.028850974 0.0016226957 0)
(-0.028382253 0.0002177967 0)
(-0.027166505 -0.00093987383 0)
(-0.025225102 -0.0018992055 0)
(-0.022454264 -0.0026961892 0)
(-0.019660859 -0.0033457223 0)
(-0.016738926 -0.0038531179 0)
(-0.009982355 -0.0043307209 0)
(0.0017848737 0.0051922466 0)
(0.0018592732 0.0053290336 0)
(0.0019857673 0.0055383733 0)
(0.0013856591 0.0057556234 0)
(0.0014744162 0.0060348764 0)
(0.0011419687 0.0063406475 0)
(0.00084674701 0.0066764435 0)
(0.00049834045 0.0070408405 0)
(8.0171135e-05 0.0074275363 0)
(-0.00041122075 0.0078348092 0)
(-0.00098593022 0.0082549114 0)
(-0.0016609515 0.0086962142 0)
(-0.0024493296 0.0091502643 0)
(-0.0033655014 0.0096045011 0)
(-0.0044242262 0.010085613 0)
(-0.0056606087 0.010564697 0)
(-0.0070852479 0.011060893 0)
(-0.0087444076 0.011573819 0)
(-0.010685181 0.012136268 0)
(-0.012916026 0.012758372 0)
(-0.015487969 0.013439958 0)
(-0.018465434 0.014228672 0)
(-0.021887249 0.015128187 0)
(-0.025838149 0.016177949 0)
(-0.030336083 0.017368247 0)
(-0.035397487 0.018694272 0)
(-0.04112069 0.020152546 0)
(-0.047556047 0.021729125 0)
(-0.054759068 0.023402985 0)
(-0.062775026 0.025145948 0)
(-0.071632672 0.026921539 0)
(-0.081340125 0.028681138 0)
(-0.091878916 0.030371389 0)
(-0.1031967 0.031946719 0)
(-0.11520894 0.033366605 0)
(-0.12781081 0.034603599 0)
(-0.14089473 0.035665241 0)
(-0.15437427 0.036603053 0)
(-0.168211 0.037522452 0)
(-0.18247236 0.038588899 0)
(-0.19747494 0.040028934 0)
(-0.21382853 0.041990288 0)
(-0.23199397 0.044249957 0)
(-0.25302872 0.046781642 0)
(-0.28310914 0.049898805 0)
(-0.33020741 0.045688468 0)
(-0.37354095 0.0077230413 0)
(-0.34868383 -0.087984639 0)
(-0.21641876 -0.21900346 0)
(-0.044622351 -0.28197741 0)
(0.10272431 -0.27651256 0)
(0.24458173 -0.27219836 0)
(0.32201917 -0.20406704 0)
(0.37695211 -0.1910479 0)
(0.40809979 -0.15970424 0)
(0.47210037 -0.19037168 0)
(0.56184207 -0.25905484 0)
(0.64385702 -0.29328073 0)
(0.72790365 -0.25903269 0)
(0.8080767 -0.13488255 0)
(0.8167302 0.0095021909 0)
(0.72569649 0.10621664 0)
(0.60658629 0.12442489 0)
(0.51608983 0.13007598 0)
(0.45529897 0.1391438 0)
(0.41091756 0.15334204 0)
(0.36907715 0.16413008 0)
(0.32658771 0.16785342 0)
(0.28626662 0.16589726 0)
(0.25001345 0.16052932 0)
(0.21782071 0.15299993 0)
(0.18912401 0.14389036 0)
(0.16340418 0.13364115 0)
(0.14020012 0.122672 0)
(0.11912142 0.11142451 0)
(0.099861439 0.10034447 0)
(0.082205223 0.089797272 0)
(0.066027035 0.079996985 0)
(0.051258852 0.071008809 0)
(0.037860032 0.062812824 0)
(0.025785035 0.0553164 0)
(0.015002279 0.048494403 0)
(0.0054799573 0.042263482 0)
(-0.0028292887 0.036558557 0)
(-0.0099674755 0.031313013 0)
(-0.01598772 0.026473559 0)
(-0.020941084 0.021991974 0)
(-0.024888032 0.017828904 0)
(-0.027918187 0.013933791 0)
(-0.030094916 0.010239869 0)
(-0.031453297 0.0067703752 0)
(-0.031994279 0.0035937224 0)
(-0.031700969 0.00077433294 0)
(-0.030686531 -0.0016591724 0)
(-0.02907392 -0.0037541838 0)
(-0.026807128 -0.0055436327 0)
(-0.023774996 -0.0070574853 0)
(-0.020724336 -0.0083308601 0)
(-0.017590148 -0.0093538324 0)
(-0.0105016 -0.010345315 0)
(0.0018939974 0.0047363391 0)
(0.0020493147 0.004897482 0)
(0.0021975683 0.0051142531 0)
(0.0016347782 0.0053425407 0)
(0.0017726728 0.0056354675 0)
(0.0014721548 0.0059523159 0)
(0.0012115179 0.0063070758 0)
(0.00089335139 0.0066971182 0)
(0.00050553276 0.0071169554 0)
(4.077988e-05 0.0075662414 0)
(-0.00050776233 0.0080465573 0)
(-0.0011520835 0.0085532152 0)
(-0.0019197847 0.0091010372 0)
(-0.0028000555 0.0096716479 0)
(-0.0038303526 0.010291415 0)
(-0.0050427537 0.010941163 0)
(-0.0064166921 0.011651886 0)
(-0.00802504 0.012412684 0)
(-0.0099017329 0.013261759 0)
(-0.01204472 0.014209296 0)
(-0.014522757 0.015258945 0)
(-0.017387058 0.016442564 0)
(-0.020656124 0.017789591 0)
(-0.024438267 0.019321569 0)
(-0.028770507 0.021058761 0)
(-0.03366623 0.022983034 0)
(-0.039226326 0.02510279 0)
(-0.045513944 0.027402108 0)
(-0.052594921 0.02985355 0)
(-0.060522874 0.032416013 0)
(-0.069333995 0.035035419 0)
(-0.079044165 0.037645998 0)
(-0.089640991 0.040172735 0)
(-0.10107651 0.042534752 0)
(-0.11326266 0.044652997 0)
(-0.12607125 0.046469367 0)
(-0.13935097 0.047973174 0)
(-0.15295289 0.049231981 0)
(-0.16675767 0.050420614 0)
(-0.18072935 0.051855347 0)
(-0.19514243 0.054042452 0)
(-0.21075742 0.057496715 0)
(-0.22785214 0.062486082 0)
(-0.24791426 0.071605926 0)
(-0.28613026 0.091160129 0)
(-0.35998453 0.10222435 0)
(-0.40968692 0.023467865 0)
(-0.31556356 -0.20623011 0)
(-0.10399147 -0.43056367 0)
(0.093865862 -0.47441888 0)
(0.27223069 -0.4344061 0)
(0.42589378 -0.36547013 0)
(0.53549867 -0.27995696 0)
(0.64881439 -0.25086772 0)
(0.75229552 -0.21347785 0)
(0.84687993 -0.25831742 0)
(0.90454535 -0.30771294 0)
(0.9211651 -0.32196722 0)
(0.90803694 -0.29619661 0)
(0.89051604 -0.17133698 0)
(0.89320085 0.016159121 0)
(0.87334732 0.18656843 0)
(0.77959611 0.25253959 0)
(0.63747609 0.24382919 0)
(0.51513919 0.21064966 0)
(0.43361691 0.20266244 0)
(0.37559683 0.21166714 0)
(0.32472661 0.21585265 0)
(0.27813818 0.2102451 0)
(0.23801888 0.19969074 0)
(0.20408112 0.18751311 0)
(0.17483354 0.17454923 0)
(0.14920002 0.16106903 0)
(0.12642735 0.14737466 0)
(0.10593817 0.13380621 0)
(0.087320117 0.1206917 0)
(0.070323583 0.10828242 0)
(0.054824976 0.096711401 0)
(0.040764147 0.085999699 0)
(0.028087514 0.076104085 0)
(0.016751089 0.066965418 0)
(0.0067085067 0.058552259 0)
(-0.0021012845 0.050801949 0)
(-0.0097376723 0.043672557 0)
(-0.016254135 0.03710607 0)
(-0.021704234 0.031054495 0)
(-0.026142435 0.025468673 0)
(-0.029618044 0.020305793 0)
(-0.032189471 0.015537497 0)
(-0.033897634 0.01116913 0)
(-0.034771307 0.0071936131 0)
(-0.034902931 0.0035951391 0)
(-0.034366675 0.00032519336 0)
(-0.033128736 -0.0026650469 0)
(-0.031225502 -0.0053382932 0)
(-0.0286579 -0.0076902467 0)
(-0.025363096 -0.0097169642 0)
(-0.022045038 -0.01142599 0)
(-0.018678818 -0.012822 0)
(-0.011184653 -0.014178003 0)
(0.0020077575 0.0050321389 0)
(0.0022376866 0.0052460982 0)
(0.0024268021 0.005497236 0)
(0.0019039589 0.0057714119 0)
(0.0020794279 0.0061018147 0)
(0.0018170293 0.0064723018 0)
(0.0015978621 0.006880888 0)
(0.0013181904 0.0073356962 0)
(0.00096443663 0.0078248541 0)
(0.00053861144 0.0083505123 0)
(2.5603965e-05 0.0089156435 0)
(-0.00057612328 0.0095255555 0)
(-0.0012943568 0.0101729 0)
(-0.0021325247 0.010880041 0)
(-0.0031066252 0.011630626 0)
(-0.0042469526 0.012456573 0)
(-0.0055551511 0.013361373 0)
(-0.0070707353 0.014339984 0)
(-0.0088200554 0.015444209 0)
(-0.01084524 0.016687246 0)
(-0.013176269 0.018069594 0)
(-0.015852975 0.019637755 0)
(-0.018923211 0.021427742 0)
(-0.022481254 0.0234426 0)
(-0.026587888 0.025744142 0)
(-0.031267094 0.028290871 0)
(-0.036614134 0.031103621 0)
(-0.042713512 0.034162751 0)
(-0.049645634 0.037436397 0)
(-0.057483461 0.040871783 0)
(-0.066282759 0.044393873 0)
(-0.076074573 0.047906744 0)
(-0.086853354 0.051297819 0)
(-0.098564919 0.05444494 0)
(-0.11109955 0.057227934 0)
(-0.12428937 0.05955094 0)
(-0.13790952 0.061376564 0)
(-0.15169798 0.062773996 0)
(-0.16538629 0.063975845 0)
(-0.1787339 0.065449169 0)
(-0.19177264 0.067915349 0)
(-0.20510554 0.072279235 0)
(-0.21867377 0.08085555 0)
(-0.23450413 0.10257919 0)
(-0.2747592 0.14581628 0)
(-0.35134255 0.15435927 0)
(-0.34922739 -0.026053179 0)
(-0.16357655 -0.40126473 0)
(0.0096080435 -0.63625341 0)
(0.17418002 -0.67431214 0)
(0.34859591 -0.63083556 0)
(0.53774655 -0.52980809 0)
(0.73912566 -0.45317147 0)
(0.93790913 -0.39801277 0)
(1.1033092 -0.33087794 0)
(1.2173723 -0.32247504 0)
(1.2612553 -0.32035918 0)
(1.2398927 -0.28044026 0)
(1.1646419 -0.22006144 0)
(1.0616901 -0.12049077 0)
(0.98333424 0.029245051 0)
(0.94201278 0.21043188 0)
(0.8847684 0.34500968 0)
(0.76892313 0.376718 0)
(0.61297198 0.34123561 0)
(0.47159673 0.29689172 0)
(0.38051955 0.27603194 0)
(0.31949344 0.2671367 0)
(0.26818307 0.2541105 0)
(0.22457908 0.23648112 0)
(0.18874608 0.2183296 0)
(0.15880832 0.20092948 0)
(0.13309705 0.18407348 0)
(0.11061759 0.16771133 0)
(0.090690101 0.15199308 0)
(0.072819955 0.1370685 0)
(0.05670389 0.12304879 0)
(0.042175308 0.10998724 0)
(0.029119627 0.097861357 0)
(0.017440142 0.086662097 0)
(0.0070581183 0.07631305 0)
(-0.002101913 0.066776746 0)
(-0.010108284 0.057997715 0)
(-0.017025006 0.049910651 0)
(-0.022907059 0.042441644 0)
(-0.027800991 0.035541384 0)
(-0.031754152 0.029145852 0)
(-0.034803046 0.023210472 0)
(-0.03698847 0.017694106 0)
(-0.038352384 0.012566852 0)
(-0.038944478 0.0077922246 0)
(-0.038787083 0.0033469055 0)
(-0.037889544 -0.00073235822 0)
(-0.03628862 -0.0044175693 0)
(-0.034042981 -0.0077338128 0)
(-0.031126588 -0.010682164 0)
(-0.027490485 -0.013259779 0)
(-0.023808135 -0.015446201 0)
(-0.020132968 -0.017242941 0)
(-0.01210357 -0.018998565 0)
(0.0021701955 0.0049175159 0)
(0.0025024871 0.0051767124 0)
(0.0027225219 0.0054760323 0)
(0.0022351576 0.0058006987 0)
(0.0024641672 0.0061854634 0)
(0.0022472435 0.0066216534 0)
(0.002071266 0.0071000158 0)
(0.0018364124 0.0076256202 0)
(0.0015231026 0.0081967681 0)
(0.0011379687 0.0088149565 0)
(0.00067835503 0.0094771497 0)
(0.00012161383 0.010194713 0)
(-0.00054181375 0.010959783 0)
(-0.0013115142 0.011796413 0)
(-0.0022146552 0.012697882 0)
(-0.0032641538 0.013686748 0)
(-0.00447646 0.014781984 0)
(-0.0058758874 0.015988234 0)
(-0.0074785288 0.01732506 0)
(-0.009334588 0.018842986 0)
(-0.011480306 0.020553732 0)
(-0.013931089 0.022484987 0)
(-0.016750119 0.024684028 0)
(-0.0200178 0.02717141 0)
(-0.023822841 0.030028553 0)
(-0.028213124 0.033207576 0)
(-0.03326543 0.036738838 0)
(-0.039093554 0.04060826 0)
(-0.045796339 0.044782082 0)
(-0.053472286 0.049198266 0)
(-0.062203323 0.053762807 0)
(-0.072045427 0.058349093 0)
(-0.083013465 0.062799876 0)
(-0.095065712 0.066935089 0)
(-0.10808508 0.070563323 0)
(-0.12185799 0.073508866 0)
(-0.13606434 0.075658433 0)
(-0.15028817 0.077024527 0)
(-0.16403384 0.077842051 0)
(-0.17672477 0.078640842 0)
(-0.18784756 0.080153291 0)
(-0.1973263 0.083801993 0)
(-0.20479605 0.095448949 0)
(-0.21057105 0.12901481 0)
(-0.22835716 0.18149612 0)
(-0.2591547 0.15869764 0)
(-0.20393104 -0.11436518 0)
(-0.046456074 -0.55106687 0)
(0.047673071 -0.77491437 0)
(0.21943221 -0.83054551 0)
(0.38626241 -0.79677009 0)
(0.57857595 -0.74231741 0)
(0.80701662 -0.68506983 0)
(1.026698 -0.61017954 0)
(1.2119984 -0.49948164 0)
(1.3341043 -0.41362144 0)
(1.3974563 -0.36090309 0)
(1.4116406 -0.24443738 0)
(1.3595808 -0.11911158 0)
(1.2392972 0.013979547 0)
(1.0843369 0.15581562 0)
(0.97064307 0.28897402 0)
(0.89260489 0.43678592 0)
(0.77979757 0.50142327 0)
(0.61749676 0.49365964 0)
(0.45912286 0.42607226 0)
(0.35722672 0.36096302 0)
(0.29618074 0.3252152 0)
(0.24791036 0.30088888 0)
(0.20519804 0.27554193 0)
(0.16940785 0.25052586 0)
(0.13993515 0.22788136 0)
(0.11488556 0.20718225 0)
(0.093152345 0.18788004 0)
(0.074097996 0.16984416 0)
(0.057220649 0.15302957 0)
(0.042190818 0.13738852 0)
(0.028776865 0.12288387 0)
(0.016822939 0.10946127 0)
(0.0061665074 0.097058821 0)
(-0.003307391 0.085610812 0)
(-0.011637174 0.075040241 0)
(-0.018909111 0.0652714 0)
(-0.025189391 0.056221589 0)
(-0.030504734 0.047805485 0)
(-0.034890141 0.03996989 0)
(-0.038385973 0.032644143 0)
(-0.041011044 0.025792028 0)
(-0.042802084 0.019375394 0)
(-0.043785593 0.013365327 0)
(-0.043978749 0.0077576777 0)
(-0.043409747 0.0025656518 0)
(-0.042113641 -0.002219567 0)
(-0.04011796 -0.0065966837 0)
(-0.037476981 -0.01056426 0)
(-0.034161949 -0.014109069 0)
(-0.030140887 -0.017226835 0)
(-0.026029072 -0.019914492 0)
(-0.021967787 -0.022130235 0)
(-0.013291151 -0.024305483 0)
(0.0023396038 0.0048281157 0)
(0.002777185 0.0051179623 0)
(0.0030571678 0.0054537203 0)
(0.0026177728 0.0058107006 0)
(0.0028974314 0.0062521038 0)
(0.0027352125 0.006732516 0)
(0.0026048971 0.0072668953 0)
(0.0024195475 0.0078513294 0)
(0.0021618774 0.0084928811 0)
(0.0018302565 0.0091867081 0)
(0.0014197179 0.0099375916 0)
(0.00092514273 0.010740658 0)
(0.00033129624 0.011615489 0)
(-0.00036462838 0.012561773 0)
(-0.0011802792 0.01359057 0)
(-0.0021196296 0.014724387 0)
(-0.0032023319 0.015978293 0)
(-0.0044685227 0.01737287 0)
(-0.0058986352 0.018928052 0)
(-0.0075421805 0.020683148 0)
(-0.0094544137 0.02267384 0)
(-0.011639396 0.024942263 0)
(-0.014151527 0.027524516 0)
(-0.017048071 0.030462222 0)
(-0.020463626 0.033832716 0)
(-0.02447045 0.03764888 0)
(-0.029125814 0.041915217 0)
(-0.034576605 0.046632101 0)
(-0.04095105 0.051768591 0)
(-0.048383019 0.057254591 0)
(-0.056992849 0.062976311 0)
(-0.066875508 0.068772499 0)
(-0.078080787 0.074433858 0)
(-0.090591014 0.079708647 0)
(-0.10429374 0.08431181 0)
(-0.11894312 0.087947672 0)
(-0.13412745 0.090364761 0)
(-0.14925367 0.091441452 0)
(-0.16354482 0.091310117 0)
(-0.1760035 0.090386462 0)
(-0.1853859 0.089221569 0)
(-0.19068023 0.089752084 0)
(-0.19151051 0.10021743 0)
(-0.18596134 0.13432407 0)
(-0.17495299 0.17850768 0)
(-0.16337109 0.12784094 0)
(-0.098380743 -0.19007554 0)
(0.0053634944 -0.64562289 0)
(0.12325081 -0.92511657 0)
(0.29725348 -1.0152898 0)
(0.4735183 -0.97256619 0)
(0.65522269 -0.9603848 0)
(0.88072138 -0.92423988 0)
(1.1102921 -0.81190408 0)
(1.2746029 -0.6327004 0)
(1.3609117 -0.47040795 0)
(1.3899297 -0.37938464 0)
(1.3879542 -0.21635752 0)
(1.3613472 -0.053222597 0)
(1.3157313 0.10965297 0)
(1.2379074 0.27689181 0)
(1.0906739 0.4160047 0)
(0.91200875 0.57168307 0)
(0.72573446 0.66090198 0)
(0.53681278 0.65022502 0)
(0.3916536 0.55159869 0)
(0.30184351 0.44129392 0)
(0.25132612 0.37780526 0)
(0.21379143 0.34363724 0)
(0.17709971 0.31311261 0)
(0.14413409 0.28241997 0)
(0.11679005 0.25472321 0)
(0.093504429 0.2301899 0)
(0.073266788 0.20790799 0)
(0.05560561 0.1874846 0)
(0.040069642 0.16866983 0)
(0.026338464 0.15131599 0)
(0.014165648 0.13531405 0)
(0.0033310333 0.12054218 0)
(-0.0063044997 0.10689799 0)
(-0.014832169 0.094314128 0)
(-0.022324852 0.08267027 0)
(-0.028842605 0.071867272 0)
(-0.034441749 0.061821532 0)
(-0.039137879 0.052454517 0)
(-0.042964934 0.043693316 0)
(-0.045946248 0.035481537 0)
(-0.048088044 0.027774557 0)
(-0.049425699 0.020537443 0)
(-0.049971979 0.013747026 0)
(-0.04974055 0.0073893397 0)
(-0.048757958 0.0014536157 0)
(-0.047043679 -0.0040597525 0)
(-0.044623834 -0.0091398009 0)
(-0.04153943 -0.013771141 0)
(-0.037767294 -0.017934932 0)
(-0.033308583 -0.02161689 0)
(-0.028706559 -0.024801814 0)
(-0.024180806 -0.027470198 0)
(-0.014751816 -0.030063093 0)
(0.002542251 0.004649099 0)
(0.0030994345 0.0049906555 0)
(0.0034254421 0.0053710185 0)
(0.0030424837 0.0057686098 0)
(0.003385846 0.0062607455 0)
(0.0032701495 0.0067971328 0)
(0.0031971877 0.0073904942 0)
(0.0030723125 0.008036844 0)
(0.0028727062 0.0087429042 0)
(0.0026010782 0.0095102272 0)
(0.002254845 0.010339383 0)
(0.0018274514 0.011233621 0)
(0.0013132481 0.012202614 0)
(0.00070364457 0.013255573 0)
(-5.4471808e-06 0.014400475 0)
(-0.00082291223 0.015662494 0)
(-0.0017657699 0.017055741 0)
(-0.0028547758 0.018606575 0)
(-0.0040886335 0.020357693 0)
(-0.0055003603 0.022315349 0)
(-0.0071257194 0.024552222 0)
(-0.0089796371 0.027109737 0)
(-0.011125681 0.030044711 0)
(-0.013600794 0.033407209 0)
(-0.016521499 0.037251002 0)
(-0.020015174 0.041675817 0)
(-0.024163497 0.046690207 0)
(-0.02911324 0.052283737 0)
(-0.035033693 0.058448099 0)
(-0.042106833 0.065110352 0)
(-0.050505829 0.072143676 0)
(-0.060384005 0.079353151 0)
(-0.071851096 0.086474202 0)
(-0.084942569 0.093170562 0)
(-0.099581522 0.099031125 0)
(-0.11551812 0.10358694 0)
(-0.13226887 0.10637235 0)
(-0.14907168 0.10702557 0)
(-0.16484788 0.10542737 0)
(-0.17810803 0.10166824 0)
(-0.1868256 0.096001336 0)
(-0.18925437 0.09091711 0)
(-0.18559825 0.095807182 0)
(-0.17359045 0.12116388 0)
(-0.14833262 0.1464525 0)
(-0.11780373 0.073383694 0)
(-0.011841941 -0.27721217 0)
(0.049905206 -0.72982676 0)
(0.17812119 -1.0809917 0)
(0.29871337 -1.1934434 0)
(0.43251491 -1.1528395 0)
(0.60871669 -1.1663153 0)
(0.8376624 -1.1672492 0)
(1.0665907 -0.99981078 0)
(1.248444 -0.76350097 0)
(1.3852136 -0.54352482 0)
(1.4920138 -0.4294498 0)
(1.546226 -0.2177844 0)
(1.5126919 -0.017005582 0)
(1.4245328 0.15417573 0)
(1.3049123 0.37887517 0)
(1.114793 0.59969089 0)
(0.87010024 0.78589846 0)
(0.64387892 0.86669309 0)
(0.45613889 0.80977563 0)
(0.3190103 0.66034012 0)
(0.23645194 0.50694499 0)
(0.19569258 0.41795453 0)
(0.17018941 0.37657978 0)
(0.14159864 0.34463661 0)
(0.11330753 0.31074255 0)
(0.089390805 0.27906864 0)
(0.068756722 0.25120423 0)
(0.050704681 0.22621668 0)
(0.034947768 0.2035422 0)
(0.021088537 0.18278374 0)
(0.0089119289 0.16377158 0)
(-0.001886236 0.1463197 0)
(-0.011482443 0.13027534 0)
(-0.019974114 0.11550449 0)
(-0.027476306 0.10187516 0)
(-0.034053006 0.089250811 0)
(-0.039748585 0.077524361 0)
(-0.044603999 0.066590704 0)
(-0.048634701 0.056372491 0)
(-0.051863142 0.046779672 0)
(-0.054295759 0.037763 0)
(-0.055940265 0.029266052 0)
(-0.056811992 0.021250978 0)
(-0.056912781 0.013691828 0)
(-0.056247726 0.0065743005 0)
(-0.054833674 -0.00010535697 0)
(-0.052680484 -0.0063417806 0)
(-0.049803472 -0.012121359 0)
(-0.046240098 -0.017422259 0)
(-0.041974499 -0.022219615 0)
(-0.037010981 -0.026492438 0)
(-0.03186007 -0.030178396 0)
(-0.026793675 -0.033350953 0)
(-0.016506416 -0.036357897 0)
(0.0027741136 0.0044224435 0)
(0.0034582313 0.0048118548 0)
(0.0038448318 0.0052369737 0)
(0.0035171225 0.0056865187 0)
(0.0039245286 0.0062223237 0)
(0.0038731956 0.0068177146 0)
(0.0038525931 0.0074726711 0)
(0.0037828149 0.0081887803 0)
(0.0036503326 0.0089578216 0)
(0.0034471564 0.0097924493 0)
(0.0031699652 0.010693534 0)
(0.0028213857 0.011668194 0)
(0.0023933913 0.012721329 0)
(0.0018812855 0.013865783 0)
(0.001283537 0.015112669 0)
(0.00060130684 0.016477377 0)
(-0.00018318983 0.017982859 0)
(-0.0010803462 0.019673054 0)
(-0.002093114 0.02156295 0)
(-0.0032401882 0.023691631 0)
(-0.0045426026 0.026125145 0)
(-0.0060214996 0.02891218 0)
(-0.0077231439 0.032146027 0)
(-0.0097064356 0.035860298 0)
(-0.012052303 0.040163546 0)
(-0.014883422 0.045129426 0)
(-0.018367012 0.050874156 0)
(-0.022659747 0.057365688 0)
(-0.0279529 0.064626356 0)
(-0.034498815 0.072590022 0)
(-0.042539493 0.081126243 0)
(-0.052310436 0.090011954 0)
(-0.064009759 0.098925764 0)
(-0.077768767 0.10743554 0)
(-0.09360051 0.11498137 0)
(-0.11130854 0.12088232 0)
(-0.13040123 0.1243926 0)
(-0.14999187 0.12477869 0)
(-0.16867283 0.12144331 0)
(-0.18434741 0.11388007 0)
(-0.19409841 0.10205058 0)
(-0.19573889 0.08947405 0)
(-0.19151127 0.087110779 0)
(-0.18082989 0.10278179 0)
(-0.15298643 0.10588583 0)
(-0.11507971 -0.00030071344 0)
(0.0072857152 -0.35903722 0)
(0.054818 -0.816393 0)
(0.15306687 -1.1888536 0)
(0.17852502 -1.2672026 0)
(0.2330299 -1.2665347 0)
(0.37829914 -1.3722297 0)
(0.59353203 -1.4280379 0)
(0.83106504 -1.2119268 0)
(1.0432197 -0.9531752 0)
(1.2397537 -0.71431029 0)
(1.3748781 -0.54332626 0)
(1.4391812 -0.25701399 0)
(1.429517 0.038445896 0)
(1.3113747 0.28532879 0)
(1.1540674 0.56438953 0)
(0.96513475 0.83224851 0)
(0.75247593 1.010686 0)
(0.57108002 1.0623581 0)
(0.40762394 0.96803455 0)
(0.27110763 0.76629566 0)
(0.18228938 0.56942726 0)
(0.14304812 0.45066387 0)
(0.12444388 0.40089767 0)
(0.1020169 0.36951716 0)
(0.078559071 0.33428384 0)
(0.058647793 0.29983112 0)
(0.04115491 0.26931026 0)
(0.025769442 0.24204708 0)
(0.012306686 0.21733648 0)
(0.00043858426 0.19488026 0)
(-0.0099713148 0.17443781 0)
(-0.019200671 0.15574546 0)
(-0.027389361 0.13863534 0)
(-0.034638864 0.12289526 0)
(-0.041038193 0.10837098 0)
(-0.046636898 0.094910834 0)
(-0.051468367 0.08238401 0)
(-0.05555844 0.070672386 0)
(-0.058912012 0.059687239 0)
(-0.061535269 0.049336474 0)
(-0.063418446 0.039560586 0)
(-0.064563431 0.030305232 0)
(-0.064967849 0.021530649 0)
(-0.064619115 0.013209216 0)
(-0.06351071 0.0053338081 0)
(-0.061648531 -0.0020945486 0)
(-0.059034854 -0.009067159 0)
(-0.055680216 -0.015565076 0)
(-0.051609495 -0.021562326 0)
(-0.046810242 -0.027027119 0)
(-0.041272651 -0.031914123 0)
(-0.03552765 -0.036128463 0)
(-0.029836383 -0.039884772 0)
(-0.018587059 -0.043300262 0)
(0.0030387645 0.0041157815 0)
(0.0038619487 0.0045586887 0)
(0.0043102066 0.0050336117 0)
(0.0040391161 0.0055305888 0)
(0.0045154518 0.0061185362 0)
(0.0045296872 0.0067686071 0)
(0.0045773723 0.0074836312 0)
(0.0045695048 0.008262591 0)
(0.0044933629 0.0091017537 0)
(0.0043596361 0.010002197 0)
(0.0041609365 0.010970268 0)
(0.0038929091 0.012015136 0)
(0.0035564322 0.013140508 0)
(0.0031498311 0.014362087 0)
(0.0026708768 0.015689535 0)
(0.0021221974 0.017142237 0)
(0.0015153256 0.018734421 0)
(0.00082202316 0.020510303 0)
(3.8986355e-05 0.022512104 0)
(-0.00081699752 0.024761011 0)
(-0.001772445 0.027329225 0)
(-0.0028165636 0.03028347 0)
(-0.0040280605 0.033732217 0)
(-0.0054282778 0.037723577 0)
(-0.0070921533 0.042408745 0)
(-0.0091339509 0.047867785 0)
(-0.011748392 0.05428089 0)
(-0.015171123 0.06166112 0)
(-0.019607362 0.070097273 0)
(-0.025387725 0.079495413 0)
(-0.032841787 0.089757995 0)
(-0.0423163 0.10063789 0)
(-0.054140472 0.11177059 0)
(-0.068594775 0.12265487 0)
(-0.085842663 0.1325866 0)
(-0.10581548 0.14061132 0)
(-0.12812984 0.14560911 0)
(-0.15189371 0.14626386 0)
(-0.17536501 0.14115197 0)
(-0.19564214 0.12891457 0)
(-0.20879632 0.10952069 0)
(-0.21252827 0.088671472 0)
(-0.21098481 0.079987031 0)
(-0.20584668 0.088473943 0)
(-0.17809909 0.066540774 0)
(-0.11407613 -0.09616419 0)
(-0.0084648217 -0.43669453 0)
(0.053594114 -0.8878773 0)
(0.095345794 -1.2254941 0)
(0.074059748 -1.2520305 0)
(0.10670971 -1.3364855 0)
(0.20745394 -1.5580113 0)
(0.32135753 -1.6322217 0)
(0.48470339 -1.415443 0)
(0.69610983 -1.1812941 0)
(0.90373798 -0.91739551 0)
(1.0343676 -0.62730216 0)
(1.0732668 -0.26942515 0)
(1.0504443 0.11217241 0)
(0.94263021 0.42732915 0)
(0.83441421 0.71199249 0)
(0.74618757 1.0099619 0)
(0.61771702 1.1717115 0)
(0.48406686 1.2173119 0)
(0.34725504 1.1116425 0)
(0.22174926 0.87454906 0)
(0.13483495 0.63617729 0)
(0.097278245 0.48243152 0)
(0.080279599 0.42151384 0)
(0.060567039 0.38994086 0)
(0.041318924 0.35351586 0)
(0.025538208 0.31693578 0)
(0.011319893 0.28432953 0)
(-0.0011161309 0.25516826 0)
(-0.012015469 0.22879561 0)
(-0.02159045 0.20497368 0)
(-0.030035785 0.18337029 0)
(-0.037549665 0.16368417 0)
(-0.044226348 0.14568213 0)
(-0.050152901 0.12913508 0)
(-0.055392182 0.11385494 0)
(-0.059978265 0.0996814 0)
(-0.06393161 0.086456642 0)
(-0.067248731 0.07405777 0)
(-0.069924002 0.062378128 0)
(-0.071943681 0.051329362 0)
(-0.073283988 0.040841108 0)
(-0.073934893 0.030857411 0)
(-0.073877417 0.021345029 0)
(-0.073082211 0.012276384 0)
(-0.071528482 0.0036443853 0)
(-0.06921172 -0.0045463458 0)
(-0.066125945 -0.012277637 0)
(-0.062272585 -0.019522573 0)
(-0.057671523 -0.026248558 0)
(-0.052295176 -0.032421448 0)
(-0.046115061 -0.037950927 0)
(-0.039760797 -0.042750132 0)
(-0.03334072 -0.047151344 0)
(-0.021012382 -0.050980513 0)
(0.0033419571 0.0037262326 0)
(0.0043114133 0.0042279354 0)
(0.0048277157 0.0047558573 0)
(0.0046148539 0.0053076258 0)
(0.005161564 0.005948486 0)
(0.0052487236 0.0066580819 0)
(0.005356543 0.0074331234 0)
(0.0054137035 0.0082711823 0)
(0.0054084824 0.009174442 0)
(0.005341019 0.010137209 0)
(0.0052158985 0.011165029 0)
(0.0050332854 0.012271358 0)
(0.0047910496 0.013463247 0)
(0.0044909777 0.01474355 0)
(0.004135512 0.016134788 0)
(0.0037296583 0.017645976 0)
(0.0032799489 0.019308769 0)
(0.0028051288 0.021127991 0)
(0.0022782563 0.023180224 0)
(0.0017099799 0.025505128 0)
(0.0011244673 0.028138795 0)
(0.00053640269 0.03118336 0)
(-0.00011612553 0.03472422 0)
(-0.00085582452 0.03891292 0)
(-0.0017276057 0.043853923 0)
(-0.0028215492 0.049734652 0)
(-0.0043689361 0.056724604 0)
(-0.006620804 0.064942668 0)
(-0.0098809317 0.074547609 0)
(-0.014583838 0.085534833 0)
(-0.02111982 0.097745284 0)
(-0.029995545 0.11099542 0)
(-0.04167244 0.1248939 0)
(-0.056631107 0.13883071 0)
(-0.075342552 0.15195221 0)
(-0.098027913 0.16303852 0)
(-0.12458902 0.17063138 0)
(-0.15429552 0.17273821 0)
(-0.18500739 0.16662316 0)
(-0.21284955 0.14952163 0)
(-0.23318697 0.12164179 0)
(-0.24410054 0.092686294 0)
(-0.24785391 0.078917727 0)
(-0.23900587 0.073393247 0)
(-0.19243374 0.0083699317 0)
(-0.094022492 -0.20668581 0)
(0.0017184118 -0.51835593 0)
(0.079634783 -0.9338883 0)
(0.076356758 -1.2313193 0)
(0.081058165 -1.2616558 0)
(0.15608724 -1.3873255 0)
(0.18595685 -1.6466136 0)
(0.17477213 -1.6911339 0)
(0.24712647 -1.5763828 0)
(0.38699744 -1.3771434 0)
(0.52670181 -1.0615923 0)
(0.61129592 -0.67679918 0)
(0.62691104 -0.25477845 0)
(0.60277904 0.17979089 0)
(0.51525859 0.52707773 0)
(0.43662043 0.77825563 0)
(0.42694657 1.0907486 0)
(0.39098507 1.2625041 0)
(0.32179208 1.3252471 0)
(0.23164003 1.2197818 0)
(0.14316261 0.96668955 0)
(0.080503427 0.69668783 0)
(0.053872329 0.51269218 0)
(0.036302299 0.44181966 0)
(0.017321861 0.40822745 0)
(0.0024096534 0.36891338 0)
(-0.0095305474 0.33037889 0)
(-0.02032266 0.29612511 0)
(-0.029522264 0.26544088 0)
(-0.037613984 0.23783035 0)
(-0.044744021 0.2129564 0)
(-0.051080846 0.19045407 0)
(-0.05675428 0.16998979 0)
(-0.061827304 0.15129828 0)
(-0.066373612 0.13412097 0)
(-0.070416633 0.11824776 0)
(-0.073971472 0.10349389 0)
(-0.077036309 0.089693131 0)
(-0.07958488 0.076709413 0)
(-0.081592099 0.064425155 0)
(-0.08302412 0.052745892 0)
(-0.083845503 0.041599992 0)
(-0.084021847 0.030927364 0)
(-0.083516103 0.02069772 0)
(-0.08228867 0.010896533 0)
(-0.080305378 0.0015072203 0)
(-0.077541913 -0.0074599618 0)
(-0.073981058 -0.01597519 0)
(-0.069619959 -0.024003636 0)
(-0.064469283 -0.031504733 0)
(-0.058471118 -0.038430786 0)
(-0.051600973 -0.044654799 0)
(-0.044608786 -0.050118386 0)
(-0.037335547 -0.055215517 0)
(-0.023834435 -0.059486198 0)
(0.0036863003 0.0032533311 0)
(0.004811686 0.0038161656 0)
(0.005400587 0.004406516 0)
(0.0052456061 0.0050126104 0)
(0.0058651207 0.0057149184 0)
(0.0060252985 0.0064798071 0)
(0.0062003026 0.0073138171 0)
(0.0063241688 0.0082151667 0)
(0.0063788604 0.0091778805 0)
(0.0063775511 0.010200662 0)
(0.0063304253 0.011288275 0)
(0.0062360823 0.012445588 0)
(0.0060839715 0.013686654 0)
(0.0058880237 0.015015735 0)
(0.0056523147 0.016450223 0)
(0.0053887007 0.017998544 0)
(0.0051030492 0.019685057 0)
(0.0048132507 0.021543455 0)
(0.0045514967 0.02357727 0)
(0.0042902735 0.025900159 0)
(0.0040671097 0.028534539 0)
(0.003940465 0.031561679 0)
(0.0038875023 0.035090456 0)
(0.003894638 0.039316488 0)
(0.0039280474 0.044376584 0)
(0.0039419794 0.050505022 0)
(0.0036846572 0.057959488 0)
(0.0028982703 0.06694878 0)
(0.0012606094 0.0776954 0)
(-0.0018988475 0.090331856 0)
(-0.007080754 0.10475726 0)
(-0.014849501 0.12075489 0)
(-0.025973641 0.13796538 0)
(-0.041218645 0.15583326 0)
(-0.061390543 0.17350478 0)
(-0.08700244 0.18953098 0)
(-0.11841023 0.20198103 0)
(-0.15562666 0.20768004 0)