/*--------------------------------*- C++ -*----------------------------------*\
  =========                 |
  \\      /  F ield         | OpenFOAM: The Open Source CFD Toolbox
   \\    /   O peration     | Website:  https://openfoam.org
    \\  /    A nd           | Version:  9
     \\/     M anipulation  |
\*---------------------------------------------------------------------------*/
FoamFile
{
    format      ascii;
    class       surfaceScalarField;
    location    "5";
    object      phi;
}
// * * * * * * * * * * * * * * * * * * * * * * * * * * * * * * * * * * * * * //

dimensions      [0 3 -1 0 0 0 0];

internalField   nonuniform List<scalar> 
1890
(
0.0093061957
0.00069380425
0.0082843931
0.0010218027
0.0073298986
0.00095449449
0.0064869553
0.00084294334
0.0057695844
0.0007173708
0.00518986
0.00057972444
0.004738168
0.00045169205
0.00439519
0.000342978
0.0041390268
0.00025616317
0.003949107
0.00018991982
0.003807888
0.00014121894
0.0037013783
0.00010650975
0.0036190581
8.2320155e-05
0.003553412
6.5646142e-05
0.0034992849
5.4127105e-05
0.003453245
4.6039844e-05
0.003413051
4.0194017e-05
0.0033772586
3.579238e-05
0.0033449404
3.2318239e-05
0.0033154918
2.9448562e-05
0.0032885043
2.6987579e-05
0.0032636854
2.4818901e-05
0.0032408119
2.287349e-05
0.0032197024
2.1109554e-05
0.0032002019
1.9500489e-05
0.003182174
1.8027888e-05
0.0031654964
1.6677645e-05
0.0031500585
1.5437895e-05
0.0031357606
1.4297985e-05
0.0031225126
1.3248011e-05
0.0031102341
1.2278646e-05
0.003098853
1.1381119e-05
0.0030883058
1.0547235e-05
0.0030785365
9.7694282e-06
0.0030694957
9.0408127e-06
0.0030611406
8.3552517e-06
0.0030534332
7.7074147e-06
0.0030463405
7.0928412e-06
0.0030398326
6.5079544e-06
0.0030338825
5.9500839e-06
0.0030284652
5.4174135e-06
0.0030235563
4.9089442e-06
0.0030191319
4.4243667e-06
0.003015168
3.9639627e-06
0.0030116396
3.5284234e-06
0.0030085209
3.1187159e-06
0.003005785
2.7358892e-06
0.003003404
2.3809419e-06
0.0030013493
2.054663e-06
0.0029995917
1.7575365e-06
0.002998102
1.4896527e-06
0.0029968513
1.250669e-06
0.0029958114
1.0398023e-06
0.0029949555
8.5584689e-07
0.0029942582
6.9723466e-07
0.0029936961
5.6209093e-07
0.0029932477
4.4833178e-07
0.0029928939
3.5373515e-07
0.0029926178
2.7605268e-07
0.0029924047
2.130488e-07
0.002992242
1.6259298e-07
0.0029921193
1.2268715e-07
0.0029920277
9.1526794e-08
0.0029919602
6.7496907e-08
0.002991911
4.9204228e-08
0.0029918755
3.545035e-08
0.0029918503
2.5244414e-08
0.0029918325
1.7763085e-08
0.0029918201
1.2352824e-08
0.0029918116
8.4860636e-09
0.0029918059
5.7617923e-09
0.002991802
3.8631602e-09
0.0029917994
2.5609609e-09
0.0029917978
1.6752376e-09
0.0029917967
1.0848162e-09
0.002991796
6.9208506e-10
0.0029917956
4.3888181e-10
0.0029917953
2.7283921e-10
0.0029917951
1.7071893e-10
0.002991795
1.0306498e-10
0.002991795
6.5349955e-11
0.0029917949
3.7541619e-11
0.0029917949
2.6054485e-11
0.0029917949
1.3078141e-11
0.0029917949
1.2738467e-11
0.0029917949
4.6848103e-12
0.0029917949
1.066721e-11
0.0029917948
4.6099285e-12
0.0029917948
1.8164041e-11
0.0029917948
1.4770983e-11
0.0029917948
4.1439655e-11
0.0029917947
4.6758215e-11
0.0029917946
1.0343976e-10
0.0029917945
1.478929e-10
0.0029917942
3.0787501e-10
0.0029917937
5.344446e-10
0.0029917927
1.0491711e-09
0.0029917907
1.874102e-09
0.0029917873
3.3671212e-09
4.9198196e-09
0.010339525
0.00035427932
0.010570754
0.00079057335
0.010606301
0.00091894821
0.010547572
0.00090167138
0.010422317
0.00084262624
0.010244356
0.00075768559
0.01003942
0.00065662744
0.0098287426
0.00055365586
0.009625135
0.00045977082
0.0094353013
0.00037975351
0.0092624277
0.00031409253
0.0091075333
0.00026140416
0.0089701542
0.00021969932
0.0088489027
0.00018689758
0.0087419722
0.00016105758
0.0086474938
0.0001405183
0.0085636958
0.000123992
0.0084890136
0.00011047457
0.0084221141
9.9217761e-05
0.0083618843
8.9678323e-05
0.0083074057
8.1466191e-05
0.0082579233
7.4301352e-05
0.0082128157
6.7981091e-05
0.0081715688
6.2356416e-05
0.0081337538
5.7315492e-05
0.0080990096
5.277219e-05
0.0080670289
4.8658278e-05
0.0080375487
4.4918167e-05
0.0080103414
4.1505367e-05
0.0079852093
3.8380123e-05
0.0079619801
3.5507836e-05
0.0079405033
3.2858035e-05
0.0079206469
3.0403682e-05
0.0079022956
2.8120741e-05
0.0078853485
2.5987911e-05
0.0078697173
2.3986512e-05
0.0078553243
2.2100463e-05
0.0078421009
2.0316277e-05
0.0078299858
1.8623079e-05
0.0078189234
1.7012545e-05
0.007808862
1.5478822e-05
0.0077997526
1.4018318e-05
0.0077915475
1.2629464e-05
0.0077841992
1.1312332e-05
0.0077776593
1.0068257e-05
0.0077718786
8.8993624e-06
0.0077668064
7.8081281e-06
0.0077623903
6.7969351e-06
0.0077585773
5.8676915e-06
0.0077553133
5.0215058e-06
0.0077525444
4.2584628e-06
0.0077502175
3.577488e-06
0.0077482809
2.9763086e-06
0.0077466852
2.451511e-06
0.0077453837
1.9986614e-06
0.0077443332
1.6124999e-06
0.0077434944
1.287152e-06
0.0077428317
1.0163772e-06
0.0077423139
7.9379261e-07
0.0077419138
6.1309466e-07
0.0077416081
4.682318e-07
0.0077413772
3.5355679e-07
0.0077412047
2.6392183e-07
0.0077410775
1.947457e-07
0.0077409846
1.4203482e-07
0.0077409177
1.0238053e-07
0.00774087
7.2928412e-08
0.0077408364
5.1332515e-08
0.007740813
3.5700232e-08
0.007740797
2.4529282e-08
0.0077407861
1.6650123e-08
0.0077407788
1.1163401e-08
0.007740774
7.3937886e-09
0.0077407708
4.8358265e-09
0.0077407688
3.1251516e-09
0.0077407675
1.9933218e-09
0.0077407667
1.2579455e-09
0.0077407662
7.822281e-10
0.0077407658
4.8387022e-10
0.0077407657
2.9287396e-10
0.0077407655
1.8010938e-10
0.0077407655
1.0512801e-10
0.0077407654
6.7806117e-11
0.0077407654
3.655028e-11
0.0077407654
3.0015656e-11
0.0077407654
1.375304e-11
0.0077407654
2.2630003e-11
0.0077407654
1.2011659e-11
0.0077407654
3.4854279e-11
0.0077407653
3.1969473e-11
0.0077407653
7.7390132e-11
0.0077407653
9.8938653e-11
0.0077407652
1.94826e-10
0.007740765
3.0804912e-10
0.0077407648
5.6369e-10
0.0077407644
1.0117694e-09
0.0077407637
1.7433561e-09
0.0077407624
3.0353313e-09
0.0077407613
4.4755438e-09
6.2716477e-09
0.010188704
0.00016557515
0.010530487
0.000448791
0.010851453
0.00059798178
0.011124174
0.00062895026
0.011350581
0.00061621887
0.011524486
0.00058378056
0.01164633
0.00053478421
0.011724155
0.0004758305
0.011767999
0.00041592665
0.011786639
0.00036111398
0.011787114
0.00031361707
0.011775058
0.00027346017
0.011754861
0.00023989702
0.011729768
0.00021199003
0.011702053
0.00018877215
0.011673239
0.00016933317
0.011644339
0.00015289187
0.011616003
0.00013881016
0.01158863
0.00012659129
0.011562447
0.00011586072
0.011537574
0.00010633943
0.011514056
9.781889e-05
0.011491896
9.0141486e-05
0.011471066
8.3186094e-05
0.011451524
7.6857671e-05
0.011433217
7.1079768e-05
0.011416086
6.5789263e-05
0.011400071
6.0932724e-05
0.011385113
5.6463897e-05
0.011371151
5.234197e-05
0.011358128
4.8530421e-05
0.01134599
4.4996255e-05
0.011334684
4.1709505e-05
0.011324162
3.8642925e-05
0.011314378
3.5771821e-05
0.011305291
3.3074027e-05
0.011296861
3.0529966e-05
0.011289055
2.8122757e-05
0.01128184
2.58383e-05
0.011275187
2.3665346e-05
0.01126907
2.1595482e-05
0.011263465
1.9623041e-05
0.01125835
1.7744874e-05
0.011253702
1.5960055e-05
0.011249501
1.4269441e-05
0.011245725
1.2675201e-05
0.011242353
1.1180262e-05
0.011239362
9.7877839e-06
0.011236729
8.5006222e-06
0.01123443
7.3208885e-06
0.011232439
6.2495745e-06
0.01123073
5.2863014e-06
0.011229277
4.4291817e-06
0.011228054
3.6748025e-06
0.011227034
3.0183215e-06
0.011226193
2.4536455e-06
0.011225506
1.9736886e-06
0.011224952
1.5706557e-06
0.011224509
1.2363589e-06
0.01122416
9.6250182e-07
0.011223887
7.4095792e-07
0.011223677
5.6398166e-07
0.011223516
4.2439413e-07
0.011223395
3.1568845e-07
0.011223305
2.3211064e-07
0.011223239
1.686681e-07
0.011223191
1.2112709e-07
0.011223156
8.5955181e-08
0.011223131
6.0270148e-08
0.011223114
4.1751587e-08
0.011223102
2.8574544e-08
0.011223094
1.9316784e-08
0.011223089
1.2899936e-08
0.011223085
8.5067164e-09
0.011223083
5.5422036e-09
0.011223081
3.5635932e-09
0.01122308
2.2657637e-09
0.011223079
1.4195031e-09
0.011223079
8.8245904e-10
0.011223079
5.3762844e-10
0.011223079
3.295259e-10
0.011223079
1.9373428e-10
0.011223079
1.2100496e-10
0.011223078
6.6909187e-11
0.011223078
4.877602e-11
0.011223078
2.4644291e-11
0.011223078
3.0157661e-11
0.011223078
1.8782674e-11
0.011223078
3.9197472e-11
0.011223078
4.1862517e-11
0.011223078
8.0638861e-11
0.011223078
1.190763e-10
0.011223078
2.0035922e-10
0.011223078
3.5370145e-10
0.011223078
5.7581897e-10
0.011223078
1.0678766e-09
0.011223078
1.6531333e-09
0.011223079
2.8058651e-09
0.011223079
3.7795865e-09
5.1381476e-09
0.010097182
6.8393556e-05
0.010346961
0.00019901112
0.010662469
0.00028247388
0.010982753
0.0003086665
0.011290229
0.00030874343
0.011575251
0.0002987579
0.011829022
0.00028101347
0.012047865
0.00025698757
0.012233272
0.00023051983
0.01238924
0.00020514591
0.012520295
0.00018256236
0.012630755
0.00016299955
0.012724427
0.00014622485
0.012804514
0.000131903
0.012873612
0.00011967404
0.012933771
0.00010917423
0.012986595
0.00010006846
0.01303333
9.2075398e-05
0.013074947
8.4973754e-05
0.013112211
7.8596326e-05
0.013145732
7.2818851e-05
0.013176002
6.7548771e-05
0.013203427
6.2716256e-05
0.013228346
5.8267634e-05
0.013251043
5.4160616e-05
0.013271762
5.0360843e-05
0.013290712
4.6839461e-05
0.013308073
4.3571472e-05
0.013324002
4.0534618e-05
0.013338635
3.7708647e-05
0.013352091
3.5074836e-05
0.013364472
3.2615738e-05
0.013375866
3.0315017e-05
0.013386352
2.8157401e-05
0.013395995
2.6128662e-05
0.013404853
2.421571e-05
0.013412976
2.2406689e-05
0.013420408
2.069112e-05
0.013427186
1.9060029e-05
0.013433346
1.7506046e-05
0.013438918
1.6023476e-05
0.013443932
1.4608294e-05
0.013448419
1.325809e-05
0.013452407
1.197191e-05
0.013455927
1.0750066e-05
0.013459008
9.5938301e-06
0.013461683
8.5051445e-06
0.013463985
7.4862503e-06
0.013465946
6.5393629e-06
0.0134676
5.6663325e-06
0.013468982
4.8683829e-06
0.013470122
4.145882e-06
0.013471053
3.4982116e-06
0.013471804
2.9237006e-06
0.013472403
2.4196427e-06
0.013472874
1.9823845e-06
0.01347324
1.6074629e-06
0.013473521
1.289795e-06
0.013473734
1.0238736e-06
0.013473892
8.0398539e-07
0.013474009
6.2439984e-07
0.013474093
4.7955282e-07
0.013474153
3.6418279e-07
0.013474196
2.734448e-07
0.013474225
2.0297743e-07
0.013474244
1.4894281e-07
0.013474258
1.0803242e-07
0.013474266
7.7449776e-08
0.013474271
5.4877695e-08
0.013474275
3.8427951e-08
0.013474277
2.6593164e-08
0.013474278
1.8184853e-08
0.013474279
1.2288684e-08
0.013474279
8.2041923e-09
0.013474279
5.4135497e-09
0.013474279
3.5276207e-09
0.013474279
2.2733172e-09
0.013474279
1.4449738e-09
0.013474279
9.1049553e-10
0.013474279
5.635586e-10
0.013474279
3.4877107e-10
0.013474279
2.090963e-10
0.013474279
1.297565e-10
0.013474279
7.4558859e-11
0.013474279
5.0643835e-11
0.013474279
2.8573759e-11
0.013474279
2.7795464e-11
0.013474279
2.0831453e-11
0.013474279
3.1364044e-11
0.013474279
3.7988726e-11
0.013474279
5.8577634e-11
0.013474279
9.2148733e-11
0.013474279
1.3466716e-10
0.013474279
2.4421367e-10
0.013474279
3.6502163e-10
0.01347428
6.733914e-10
0.013474281
9.8501214e-10
0.013474282
1.6274699e-09
0.013474283
2.109501e-09
2.8169688e-09
0.010068394
6.6274934e-13
0.010267405
2.4433027e-12
0.010549879
4.5863356e-12
0.010858545
7.3040149e-12
0.011167288
1.0708723e-11
0.011466046
1.5065281e-11
0.01174706
2.0433284e-11
0.012004047
2.7101055e-11
0.012234567
3.516732e-11
0.012439713
4.4980946e-11
0.012622275
5.6586991e-11
0.012785275
7.0361676e-11
0.0129315
8.6267677e-11
0.013063402
1.0467442e-10
0.013183076
1.2540705e-10
0.01329225
1.4868338e-10
0.013392319
1.7381033e-10
0.013484394
2.0029112e-10
0.013569367
2.2655063e-10
0.013647963
2.5104267e-10
0.013720782
2.7128728e-10
0.013788331
2.8459833e-10
0.013851046
2.8828965e-10
0.013909314
2.7924137e-10
0.013963474
2.5612954e-10
0.014013835
2.161889e-10
0.014060674
1.6148228e-10
0.014104245
8.9611592e-11
0.01414478
3.3564368e-12
0.014182489
-9.5028296e-11
0.014217564
-1.9709188e-10
0.01425018
-3.0248986e-10
0.014280495
-4.0080267e-10
0.014308653
-4.9259678e-10
0.014334782
-5.663329e-10
0.014358999
-6.2489611e-10
0.014381406
-6.5779424e-10
0.014402098
-6.7110005e-10
0.014421159
-6.5726721e-10
0.014438665
-6.2458972e-10
0.014454689
-5.6890524e-10
0.014469298
-4.9974855e-10
0.014482557
-4.1635375e-10
0.014494529
-3.2828597e-10
0.014505279
-2.3631485e-10
0.014514873
-1.4855689e-10
0.014523378
-6.8089938e-11
0.014530864
5.2384287e-12
0.014537404
6.444183e-11
0.01454307
1.0969572e-10
0.014547938
1.4137359e-10
0.014552084
1.6057296e-10
0.014555582
1.6817568e-10
0.014558505
1.6786205e-10
0.014560925
1.601157e-10
0.014562907
1.5001683e-10
0.014564515
1.365838e-10
0.014565804
1.2535205e-10
0.014566828
1.1339454e-10
0.014567632
1.064297e-10
0.014568256
9.933467e-11
0.014568736
9.7827553e-11
0.0145691
9.5154359e-11
0.014569373
9.742328e-11
0.014569576
9.6729163e-11
0.014569725
9.9767121e-11
0.014569833
9.8158366e-11
0.01456991
9.9413981e-11
0.014569965
9.4995322e-11
0.014570003
9.3135588e-11
0.01457003
8.5481562e-11
0.014570048
8.0694383e-11
0.01457006
7.0599927e-11
0.014570068
6.4002444e-11
0.014570074
5.3034908e-11
0.014570077
4.6201832e-11
0.014570079
3.5840733e-11
0.014570081
2.9997803e-11
0.014570082
2.1457913e-11
0.014570082
1.7399634e-11
0.014570083
1.1200009e-11
0.014570083
9.1787693e-12
0.014570083
5.4862613e-12
0.014570083
5.6217062e-12
0.014570083
4.0289674e-12
0.014570083
6.3905751e-12
0.014570083
6.5780933e-12
0.014570083
1.131279e-11
0.014570083
1.3478941e-11
0.014570083
1.9525915e-11
0.014570083
2.1797446e-11
0.014570083
2.6710895e-11
0.014570083
2.5819933e-11
0.014570084
2.8105146e-11
0.014570084
2.5080346e-11
0.014570085
2.6037936e-11
0.014570086
2.5769507e-11
0.014570087
2.4107231e-11
0.014570089
1.578947e-11
1.3918142e-11
0.010068394
-6.8393555e-05
0.010267405
-0.00019901112
0.010549879
-0.00028247387
0.010858545
-0.00030866648
0.011167288
-0.00030874341
0.011466046
-0.00029875787
0.01174706
-0.00028101343
0.012004047
-0.00025698752
0.012234567
-0.00023051976
0.012439713
-0.00020514582
0.012622275
-0.00018256225
0.012785275
-0.00016299941
0.0129315
-0.00014622468
0.013063402
-0.0001319028
0.013183076
-0.0001196738
0.01329225
-0.00010917395
0.013392319
-0.00010006813
0.013484394
-9.2075024e-05
0.013569368
-8.4973332e-05
0.013647964
-7.8595861e-05
0.013720782
-7.2818351e-05
0.013788331
-6.7548249e-05
0.013851047
-6.271573e-05
0.013909314
-5.8267128e-05
0.013963475
-5.4160155e-05
0.014013835
-5.0360456e-05
0.014060674
-4.6839176e-05
0.014104246
-4.3571318e-05
0.01414478
-4.0534619e-05
0.014182489
-3.7708821e-05
0.014217564
-3.5075192e-05
0.01425018
-3.2616276e-05
0.014280495
-3.0315728e-05
0.014308653
-2.8158265e-05
0.014334782
-2.6129656e-05
0.014358999
-2.4216797e-05
0.014381406
-2.2407834e-05
0.014402097
-2.0692281e-05
0.014421158
-1.906117e-05
0.014438664
-1.7507125e-05
0.014454688
-1.6024465e-05
0.014469297
-1.460916e-05
0.014482555
-1.325882e-05
0.014494528
-1.1972487e-05
0.014505278
-1.0750492e-05
0.014514872
-9.594104e-06
0.014523377
-8.5052824e-06
0.014530863
-7.4862626e-06
0.014537403
-6.5392745e-06
0.014543069
-5.6661635e-06
0.014547937
-4.868157e-06
0.014552083
-4.1456197e-06
0.014555581
-3.4979312e-06
0.014558505
-2.9234178e-06
0.014560924
-2.4193666e-06
0.014562907
-1.9821246e-06
0.014564514
-1.6072195e-06
0.014565804
-1.2895718e-06
0.014566827
-1.0236648e-06
0.014567631
-8.0379173e-07
0.014568256
-6.242132e-07
0.014568735
-4.7937376e-07
0.014569099
-3.6400369e-07
0.014569373
-2.7326809e-07
0.014569576
-2.0279779e-07
0.014569724
-1.4876489e-07
0.014569832
-1.0785307e-07
0.01456991
-7.7275529e-08
0.014569965
-5.4706835e-08
0.014570003
-3.8267409e-08
0.01457003
-2.6441237e-08
0.014570048
-1.8048049e-08
0.01457006
-1.2164525e-08
0.014570068
-8.0977839e-09
0.014570074
-5.3209672e-09
0.014570077
-3.4527544e-09
0.014570079
-2.2111407e-09
0.014570081
-1.398208e-09
0.014570082
-8.7319168e-10
0.014570082
-5.3808944e-10
0.014570083
-3.2892202e-10
0.014570083
-1.9701872e-10
0.014570083
-1.1904111e-10
0.014570083
-6.7726059e-11
0.014570083
-4.1432298e-11
0.014570083
-1.9715795e-11
0.014570083
-1.2962389e-11
0.014570083
-2.3959811e-12
0.014570083
-4.0281792e-12
0.014570083
-3.9833742e-12
0.014570083
-1.5654238e-11
0.014570083
-4.5996321e-11
0.014570083
-8.4102979e-11
0.014570084
-1.9628623e-10
0.014570084
-3.1582884e-10
0.014570085
-6.2519753e-10
0.014570086
-9.3790357e-10
0.014570087
-1.5885962e-09
0.014570089
-2.0730996e-09
-2.7891637e-09
0.010097182
-0.00016557515
0.010346961
-0.00044879099
0.010662469
-0.00059798177
0.010982753
-0.00062895024
0.011290229
-0.00061621885
0.011575251
-0.00058378054
0.011829022
-0.00053478418
0.012047865
-0.00047583045
0.012233272
-0.00041592659
0.01238924
-0.0003611139
0.012520295
-0.00031361697
0.012630755
-0.00027346005
0.012724427
-0.00023989688
0.012804514
-0.00021198987
0.012873613
-0.00018877196
0.012933772
-0.00016933294
0.012986595
-0.00015289161
0.01303333
-0.00013880987
0.013074948
-0.00012659096
0.013112212
-0.00011586036
0.013145733
-0.00010633905
0.013176003
-9.7818504e-05
0.013203428
-9.0141102e-05
0.013228347
-8.318573e-05
0.013251044
-7.6857347e-05
0.013271763
-7.10795e-05
0.013290713
-6.5789074e-05
0.013308074
-6.0932628e-05
0.013324003
-5.646391e-05
0.013338637
-5.2342098e-05
0.013352092
-4.8530673e-05
0.013364472
-4.4996621e-05
0.013375867
-4.1709984e-05
0.013386352
-3.8643497e-05
0.013395995
-3.5772472e-05
0.013404853
-3.3074733e-05
0.013412976
-3.0530707e-05
0.013420407
-2.8123507e-05
0.013427185
-2.5839037e-05
0.013433344
-2.366605e-05
0.013438916
-2.1596132e-05
0.01344393
-1.9623623e-05
0.013448417
-1.7745375e-05
0.013452405
-1.5960471e-05
0.013455924
-1.4269764e-05
0.013459005
-1.2675435e-05
0.013461681
-1.1180409e-05
0.013463982
-9.7878538e-06
0.013465944
-8.5006218e-06
0.013467598
-7.3208327e-06
0.01346898
-6.2494731e-06
0.01347012
-5.2861683e-06
0.013471051
-4.4290268e-06
0.013471802
-3.6746361e-06
0.013472401
-3.018151e-06
0.013472873
-2.4534764e-06
0.013473239
-1.9735249e-06
0.01347352
-1.5704987e-06
0.013473732
-1.2362096e-06
0.013473891
-9.623591e-07
0.013474008
-7.4082085e-07
0.013474092
-5.6384879e-07
0.013474152
-4.2426403e-07
0.013474195
-3.1556082e-07
0.013474224
-2.3198442e-07
0.013474244
-1.685446e-07
0.013474257
-1.210059e-07
0.013474265
-8.5839024e-08
0.013474271
-6.0158768e-08
0.013474274
-4.1648338e-08
0.013474276
-2.8478869e-08
0.013474278
-1.9231939e-08
0.013474278
-1.2824466e-08
0.013474279
-8.443228e-09
0.013474279
-5.4883311e-09
0.013474279
-3.5212042e-09
0.013474279
-2.2315698e-09
0.013474279
-1.3948127e-09
0.013474279
-8.6356632e-10
0.013474279
-5.2559721e-10
0.013474279
-3.2040465e-10
0.013474279
-1.8857971e-10
0.013474279
-1.1600941e-10
0.013474279
-6.3344763e-11
0.013474279
-4.2746631e-11
0.013474279
-1.7805715e-11
0.013474279
-1.8604962e-11
0.013474279
-3.7801507e-12
0.013474279
-1.7832656e-11
0.013474279
-1.5887873e-11
0.013474279
-4.8697954e-11
0.013474279
-8.5616874e-11
0.013474279
-1.6528805e-10
0.013474279
-3.2112145e-10
0.01347428
-5.4433939e-10
0.01347428
-1.0373756e-09
0.013474281
-1.6187372e-09
0.013474282
-2.771286e-09
0.013474283
-3.754216e-09
-5.1179936e-09
0.010188704
-0.00035427932
0.010530487
-0.00079057335
0.010851453
-0.00091894821
0.011124174
-0.00090167137
0.011350581
-0.00084262623
0.011524486
-0.00075768557
0.01164633
-0.00065662741
0.011724155
-0.00055365582
0.011767999
-0.00045977077
0.011786639
-0.00037975345
0.011787114
-0.00031409246
0.011775058
-0.00026140408
0.011754861
-0.00021969923
0.011729768
-0.00018689748
0.011702054
-0.00016105747
0.011673239
-0.00014051816
0.011644339
-0.00012399185
0.011616004
-0.0001104744
0.01158863
-9.9217579e-05
0.011562448
-8.9678129e-05
0.011537575
-8.146599e-05
0.011514058
-7.4301149e-05
0.011491897
-6.7980893e-05
0.011471068
-6.2356232e-05
0.011451526
-5.7315329e-05
0.011433218
-5.2772057e-05
0.011416087
-4.8658184e-05
0.011400073
-4.4918118e-05
0.011385114
-4.1505368e-05
0.011371152
-3.8380178e-05
0.01135813
-3.5507944e-05
0.011345991
-3.2858194e-05
0.011334685
-3.0403887e-05
0.011324163
-2.812099e-05
0.011314378
-2.5988191e-05
0.01130529
-2.3986821e-05
0.01129686
-2.2100785e-05
0.011289054
-2.0316612e-05
0.011281838
-1.8623409e-05
0.011275185
-1.7012872e-05
0.011269068
-1.5479128e-05
0.011263463
-1.4018607e-05
0.011258347
-1.262972e-05
0.011253699
-1.1312559e-05
0.011249498
-1.0068444e-05
0.011245722
-8.8995141e-06
0.01124235
-7.8082394e-06
0.011239359
-6.797011e-06
0.011236726
-5.8677325e-06
0.011234427
-5.0215171e-06
0.011232436
-4.2584499e-06
0.011230727
-3.5774545e-06
0.011229275
-2.9762623e-06
0.011228051
-2.4514534e-06
0.011227032
-1.9986009e-06
0.011226191
-1.6124351e-06
0.011225504
-1.2870904e-06
0.01122495
-1.0163148e-06
0.011224508
-7.9373591e-07
0.011224158
-6.1303788e-07
0.011223886
-4.6818029e-07
0.011223675
-3.5350427e-07
0.011223515
-2.6387345e-07
0.011223394
-1.9469543e-07
0.011223304
-1.4198785e-07
0.011223238
-1.0233166e-07
0.01122319
-7.2883203e-08
0.011223156
-5.1286401e-08
0.011223131
-3.5658749e-08
0.011223114
-2.4488352e-08
0.011223102
-1.661518e-08
0.011223094
-1.1130282e-08
0.011223089
-7.3673312e-09
0.011223085
-4.8117475e-09
0.011223083
-3.1078552e-09
0.011223081
-1.9781414e-09
0.01122308
-1.2486389e-09
0.011223079
-7.7406159e-10
0.011223079
-4.8039887e-10
0.011223079
-2.8926477e-10
0.011223079
-1.7959943e-10
0.011223079
-1.031158e-10
0.011223079
-6.7633862e-11
0.011223079
-3.3780248e-11
0.011223079
-2.7808795e-11
0.011223079
-7.9057892e-12
0.011223079
-1.6514527e-11
0.011223079
-1.5288133e-12
0.011223079
-2.4082983e-11
0.011223079
-1.7106171e-11
0.011223079
-6.3473727e-11
0.011223079
-8.1980765e-11
0.011223079
-1.7996768e-10
0.011223079
-2.9452973e-10
0.011223079
-5.4909441e-10
0.011223079
-9.9104776e-10
0.011223079
-1.7231212e-09
0.011223079
-3.0251662e-09
0.011223079
-4.4714355e-09
-6.2694408e-09
0.010339525
-0.00069380425
0.010570754
-0.0010218027
0.010606301
-0.00095449449
0.010547572
-0.00084294334
0.010422317
-0.0007173708
0.010244356
-0.00057972443
0.010039421
-0.00045169203
0.0098287427
-0.00034297799
0.0096251351
-0.00025616315
0.0094353014
-0.0001899198
0.0092624279
-0.00014121892
0.0091075335
-0.00010650973
0.0089701544
-8.2320128e-05
0.0088489031
-6.5646112e-05
0.0087419727
-5.4127072e-05
0.0086474943
-4.6039808e-05
0.0085636964
-4.0193977e-05
0.0084890143
-3.5792336e-05
0.0084221149
-3.2318192e-05
0.0083618853
-2.9448513e-05
0.0083074068
-2.6987527e-05
0.0082579245
-2.4818848e-05
0.008212817
-2.2873436e-05
0.0081715702
-2.1109501e-05
0.0081337553
-1.9500438e-05
0.0080990111
-1.8027841e-05
0.0080670305
-1.6677603e-05
0.0080375502
-1.5437862e-05
0.0080103427
-1.4297961e-05
0.0079852105
-1.3247997e-05
0.0079619812
-1.2278643e-05
0.0079405041
-1.1381126e-05
0.0079206475
-1.0547253e-05
0.007902296
-9.7694558e-06
0.0078853486
-9.0408504e-06
0.0078697171
-8.3552953e-06
0.0078553238
-7.7074672e-06
0.0078421001
-7.0928952e-06
0.0078299847
-6.5080149e-06
0.007818922
-5.9501414e-06
0.0078088603
-5.4174753e-06
0.0077997507
-4.9089993e-06
0.0077915454
-4.4244229e-06
0.0077841969
-3.964009e-06
0.0077776569
-3.5284681e-06
0.0077718761
-3.1187502e-06
0.0077668038
-2.7359199e-06
0.0077623878
-2.3809635e-06
0.0077585747
-2.05468e-06
0.0077553108
-1.7575482e-06
0.007752542
-1.4896606e-06
0.0077502153
-1.2506757e-06
0.0077482788
-1.039806e-06
0.0077466832
-8.5585317e-07
0.0077453819
-6.9723858e-07
0.0077443316
-5.6209945e-07
0.0077434929
-4.483377e-07
0.0077428303
-3.5374595e-07
0.0077423127
-2.7606025e-07
0.0077419127
-2.1306023e-07
0.0077416071
-1.626001e-07
0.0077413763
-1.2269683e-07
0.007741204
-9.1531498e-08
0.0077410769
-6.7503027e-08
0.0077409841
-4.9205194e-08
0.0077409172
-3.5452433e-08
0.0077408696
-2.524191e-08
0.0077408361
-1.7761813e-08
0.0077408128
-1.2347826e-08
0.0077407968
-8.4829742e-09
0.007740786
-5.7559837e-09
0.0077407787
-3.8597395e-09
0.0077407739
-2.5555099e-09
0.0077407708
-1.6726801e-09
0.0077407688
-1.0806949e-09
0.0077407675
-6.9086654e-10
0.0077407667
-4.3609589e-10
0.0077407662
-2.7290067e-10
0.0077407659
-1.690535e-10
0.0077407658
-1.0382722e-10
0.0077407656
-6.3971419e-11
0.0077407656
-3.8305842e-11
0.0077407655
-2.4438725e-11
0.0077407655
-1.3056416e-11
0.0077407655
-1.016481e-11
0.0077407655
-3.1218819e-12
0.0077407655
-7.1006167e-12
0.0077407655
-2.5522585e-12
0.0077407655
-1.5573528e-11
0.0077407655
-1.5374501e-11
0.0077407654
-4.0837014e-11
0.0077407654
-4.6867794e-11
0.0077407653
-9.9023766e-11
0.0077407652
-1.3820406e-10
0.007740765
-2.9045258e-10
0.0077407645
-5.2050195e-10
0.0077407638
-1.0494228e-09
0.0077407626
-1.8873345e-09
0.0077407614
-3.3805249e-09
-4.9272112e-09
0.0093061957
0.0082843931
0.0073298986
0.0064869553
0.0057695845
0.00518986
0.004738168
0.00439519
0.0041390269
0.0039491071
0.0038078881
0.0037013784
0.0036190583
0.0035534122
0.0034992851
0.0034532453
0.0034130513
0.003377259
0.0033449408
0.0033154922
0.0032885047
0.0032636858
0.0032408124
0.0032197029
0.0032002024
0.0031821746
0.0031654969
0.0031500591
0.0031357611
0.0031225131
0.0031102345
0.0030988533
0.0030883061
0.0030785366
0.0030694958
0.0030611405
0.003053433
0.0030463401
0.0030398321
0.003033882
0.0030284645
0.0030235555
0.0030191311
0.0030151671
0.0030116386
0.0030085199
0.0030057839
0.003003403
0.0030013483
0.0029995908
0.0029981011
0.0029968505
0.0029958107
0.0029949548
0.0029942576
0.0029936955
0.0029932472
0.0029928934
0.0029926174
0.0029924043
0.0029922418
0.0029921191
0.0029920275
0.00299196
0.0029919108
0.0029918754
0.0029918502
0.0029918324
0.0029918201
0.0029918116
0.0029918059
0.002991802
0.0029917995
0.0029917978
0.0029917967
0.002991796
0.0029917956
0.0029917953
0.0029917952
0.0029917951
0.002991795
0.002991795
0.0029917949
0.0029917949
0.0029917949
0.0029917949
0.0029917949
0.0029917949
0.0029917949
0.0029917949
0.0029917948
0.0029917948
0.0029917947
0.0029917945
0.0029917943
0.0029917938
0.0029917927
0.0029917908
0.0029917874
)
;

boundaryField
{
    top
    {
        type            calculated;
        value           uniform 0;
    }
    inlet
    {
        type            calculated;
        value           nonuniform List<scalar> 10(-0.01 -0.01 -0.01 -0.01 -0.01 -0.01 -0.01 -0.01 -0.01 -0.01);
    }
    outlet
    {
        type            calculated;
        value           nonuniform List<scalar> 10(0.0029917824 0.0077407599 0.01122308 0.013474286 0.014570092 0.014570092 0.013474286 0.011223081 0.0077407601 0.0029917824);
    }
    bottom
    {
        type            calculated;
        value           uniform 0;
    }
    back
    {
        type            empty;
        value           nonuniform List<scalar> 0();
    }
    front
    {
        type            empty;
        value           nonuniform List<scalar> 0();
    }
}


// ************************************************************************* //
