/*--------------------------------*- C++ -*----------------------------------*\
  =========                 |
  \\      /  F ield         | OpenFOAM: The Open Source CFD Toolbox
   \\    /   O peration     | Website:  https://openfoam.org
    \\  /    A nd           | Version:  9
     \\/     M anipulation  |
\*---------------------------------------------------------------------------*/
FoamFile
{
    format      ascii;
    class       volVectorField;
    location    "5";
    object      U;
}
// * * * * * * * * * * * * * * * * * * * * * * * * * * * * * * * * * * * * * //

dimensions      [0 1 -1 0 0 0 0];

internalField   nonuniform List<vector> 
1000
(
(0.91890839 0.035821913 0)
(0.86271384 0.062195638 0)
(0.7870597 0.06251009 0)
(0.69536033 0.054550395 0)
(0.61089745 0.044531651 0)
(0.54411592 0.034015971 0)
(0.49343012 0.024187539 0)
(0.45479413 0.016144229 0)
(0.42544582 0.010265784 0)
(0.40347313 0.0063041422 0)
(0.38715767 0.0037976249 0)
(0.3749622 0.002310332 0)
(0.36566193 0.0014930061 0)
(0.35836274 0.0010851048 0)
(0.3524427 0.00090605254 0)
(0.34748205 0.00084102468 0)
(0.34320354 0.00082368912 0)
(0.33942735 0.00081926597 0)
(0.33603806 0.00081179524 0)
(0.33296132 0.00079572792 0)
(0.33014803 0.00077071708 0)
(0.3275642 0.00073858964 0)
(0.3251847 0.00070173788 0)
(0.32298973 0.00066237128 0)
(0.32096275 0.00062224272 0)
(0.31908934 0.00058260836 0)
(0.31735667 0.00054428696 0)
(0.31575319 0.00050775153 0)
(0.3142684 0.00047322266 0)
(0.31289287 0.00044074906 0)
(0.31161809 0.00041027037 0)
(0.31043646 0.00038166198 0)
(0.30934125 0.0003547659 0)
(0.30832647 0.00032941193 0)
(0.30738689 0.00030543224 0)
(0.30651792 0.00028267196 0)
(0.30571553 0.00026099529 0)
(0.30497621 0.00024029063 0)
(0.30429682 0.00022047191 0)
(0.30367454 0.00020148063 0)
(0.30310677 0.00018328377 0)
(0.30259106 0.000165873 0)
(0.30212501 0.00014925962 0)
(0.30170621 0.00013347149 0)
(0.30133222 0.00011854631 0)
(0.30100051 0.00010452737 0)
(0.30070842 9.1456795e-05 0)
(0.30045323 7.9371513e-05 0)
(0.30023208 6.8298067e-05 0)
(0.30004209 5.8250111e-05 0)
(0.29988033 4.9225871e-05 0)
(0.29974387 4.1207619e-05 0)
(0.29962987 3.4161989e-05 0)
(0.29953557 2.8041219e-05 0)
(0.29945836 2.2785712e-05 0)
(0.29939578 1.8326212e-05 0)
(0.2993456 1.4587453e-05 0)
(0.29930579 1.1490176e-05 0)
(0.29927455 8.9548918e-06 0)
(0.2992503 6.904072e-06 0)
(0.29923169 5.2652209e-06 0)
(0.29921757 3.9711604e-06 0)
(0.29920697 2.961986e-06 0)
(0.29919911 2.1843878e-06 0)
(0.29919335 1.592802e-06 0)
(0.29918917 1.1480746e-06 0)
(0.29918617 8.1809823e-07 0)
(0.29918406 5.7611568e-07 0)
(0.29918257 4.0107592e-07 0)
(0.29918155 2.7584924e-07 0)
(0.29918085 1.8758055e-07 0)
(0.29918037 1.2595915e-07 0)
(0.29918006 8.3681627e-08 0)
(0.29917985 5.4841447e-08 0)
(0.29917972 3.5625017e-08 0)
(0.29917963 2.2778314e-08 0)
(0.29917957 1.4526848e-08 0)
(0.29917954 9.057785e-09 0)
(0.29917952 5.7351475e-09 0)
(0.29917951 3.4768724e-09 0)
(0.2991795 2.2695706e-09 0)
(0.29917949 1.307326e-09 0)
(0.29917949 9.6653123e-10 0)
(0.29917949 4.7831801e-10 0)
(0.29917949 5.3855882e-10 0)
(0.29917949 2.031442e-10 0)
(0.29917948 5.613699e-10 0)
(0.29917949 3.3475842e-10 0)
(0.29917948 1.1683585e-09 0)
(0.29917949 1.1803124e-09 0)
(0.29917948 2.9059578e-09 0)
(0.29917948 3.5902238e-09 0)
(0.29917946 7.5595744e-09 0)
(0.29917947 1.1217661e-08 0)
(0.29917943 2.3480261e-08 0)
(0.29917942 4.0985046e-08 0)
(0.2991793 8.0945252e-08 0)
(0.29917922 1.4001193e-07 0)
(0.29917883 2.4304955e-07 0)
(0.29917849 3.3236684e-07 0)
(1.0016583 0.05381943 0)
(1.0359761 0.10128444 0)
(1.0597199 0.11073663 0)
(1.0628947 0.10592202 0)
(1.0515569 0.096228729 0)
(1.0340529 0.083934061 0)
(1.0142795 0.070327063 0)
(0.99360702 0.056981333 0)
(0.97292576 0.045107478 0)
(0.95310739 0.035236748 0)
(0.93479538 0.027401646 0)
(0.91829012 0.021387221 0)
(0.9036238 0.016884489 0)
(0.89068069 0.013569694 0)
(0.87928178 0.011147725 0)
(0.86923249 0.0093736231 0)
(0.86034435 0.0080568738 0)
(0.85244687 0.0070570449 0)
(0.84539273 0.0062751146 0)
(0.83905842 0.0056436446 0)
(0.83334202 0.0051178172 0)
(0.82815999 0.004668264 0)
(0.82344385 0.0042758114 0)
(0.81913725 0.0039278472 0)
(0.81519342 0.0036158992 0)
(0.81157322 0.0033340693 0)
(0.80824353 0.0030780461 0)
(0.80517606 0.0028444975 0)
(0.80234645 0.0026307043 0)
(0.79973358 0.0024343461 0)
(0.79731907 0.0022533816 0)
(0.79508686 0.002085986 0)
(0.79302289 0.0019305175 0)
(0.79111487 0.0017855015 0)
(0.78935203 0.0016496259 0)
(0.78772496 0.0015217444 0)
(0.7862254 0.0014008814 0)
(0.78484607 0.0012862373 0)
(0.78358052 0.0011771884 0)
(0.78242294 0.0010732832 0)
(0.78136798 0.00097423193 0)
(0.78041064 0.00087989073 0)
(0.77954611 0.00079023852 0)
(0.77876963 0.00070535043 0)
(0.77807642 0.00062536661 0)
(0.77746161 0.00055046145 0)
(0.77692019 0.00048081223 0)
(0.776447 0.0004165718 0)
(0.77603677 0.00035784478 0)
(0.77568411 0.00030467034 0)
(0.77538364 0.00025701084 0)
(0.77512997 0.00021474748 0)
(0.77491786 0.000177682 0)
(0.77474223 0.00014554379 0)
(0.77459828 0.00011800151 0)
(0.7744815 9.4677023e-05 0)
(0.77438777 7.5161553e-05 0)
(0.77431334 5.9030673e-05 0)
(0.77425487 4.5859884e-05 0)
(0.77420946 3.5237454e-05 0)
(0.77417457 2.6775917e-05 0)
(0.77414807 2.0118778e-05 0)
(0.77412818 1.4946437e-05 0)
(0.77411341 1.0977507e-05 0)
(0.77410258 7.9702284e-06 0)
(0.77409472 5.7198595e-06 0)
(0.77408909 4.0572481e-06 0)
(0.77408511 2.8440858e-06 0)
(0.77408232 1.9702885e-06 0)
(0.7740804 1.3486282e-06 0)
(0.77407908 9.122325e-07 0)
(0.77407819 6.0951916e-07 0)
(0.7740776 4.0252013e-07 0)
(0.77407722 2.6247219e-07 0)
(0.77407696 1.6928563e-07 0)
(0.7740768 1.07711e-07 0)
(0.7740767 6.7973901e-08 0)
(0.77407664 4.2193828e-08 0)
(0.7740766 2.622409e-08 0)
(0.77407657 1.5851126e-08 0)
(0.77407656 9.9300658e-09 0)
(0.77407655 5.7675733e-09 0)
(0.77407654 3.9327037e-09 0)
(0.77407655 2.0567609e-09 0)
(0.77407654 1.9530137e-09 0)
(0.77407654 8.0155405e-10 0)
(0.77407653 1.6972023e-09 0)
(0.77407654 7.8750653e-10 0)
(0.77407653 2.8501537e-09 0)
(0.77407655 2.3727256e-09 0)
(0.77407652 6.5147095e-09 0)
(0.77407655 7.5969278e-09 0)
(0.77407649 1.6432588e-08 0)
(0.77407655 2.3980637e-08 0)
(0.77407644 4.7253581e-08 0)
(0.77407654 8.1273994e-08 0)
(0.77407629 1.4864301e-07 0)
(0.77407647 2.5868802e-07 0)
(0.77407579 4.100787e-07 0)
(0.77407628 6.2129113e-07 0)
(1.0014244 0.026824855 0)
(1.0291272 0.062791352 0)
(1.0654292 0.077736553 0)
(1.098962 0.080597201 0)
(1.1253149 0.078285172 0)
(1.145053 0.0731539 0)
(1.1594858 0.066111279 0)
(1.1694287 0.058162064 0)
(1.1755354 0.050296754 0)
(1.1785738 0.043150707 0)
(1.1793571 0.036972822 0)
(1.1785949 0.031771625 0)
(1.1768304 0.027451828 0)
(1.1744518 0.023886749 0)
(1.1717287 0.020947588 0)
(1.1688444 0.018515729 0)
(1.1659194 0.016488003 0)
(1.1630317 0.014779375 0)
(1.1602296 0.01332279 0)
(1.1575415 0.012066838 0)
(1.1549829 0.010972561 0)
(1.1525603 0.010010405 0)
(1.1502751 0.009157769 0)
(1.1481253 0.0083971581 0)
(1.146107 0.0077148272 0)
(1.1442151 0.0070997883 0)
(1.142444 0.0065430926 0)
(1.1407876 0.0060373154 0)
(1.1392399 0.0055761833 0)
(1.1377948 0.0051543059 0)
(1.1364465 0.0047669841 0)
(1.1351893 0.0044100789 0)
(1.134018 0.0040799195 0)
(1.1329274 0.0037732402 0)
(1.1319129 0.0034871402 0)
(1.1309701 0.0032190639 0)
(1.130095 0.0029667947 0)
(1.1292839 0.0027284553 0)
(1.1285335 0.0025025096 0)
(1.1278407 0.0022877595 0)
(1.1272029 0.0020833355 0)
(1.1266174 0.0018886767 0)
(1.1260819 0.0017034997 0)
(1.1255943 0.0015277553 0)
(1.1251524 0.0013615774 0)
(1.124754 0.0012052242 0)
(1.1243971 0.0010590179 0)
(1.1240794 0.00092328483 0)
(1.1237987 0.00079830158 0)
(1.1235526 0.00068424946 0)
(1.1233385 0.00058118009 0)
(1.123154 0.00048899391 0)
(1.1229964 0.00040743162 0)
(1.122863 0.00033607831 0)
(1.1227513 0.00027437805 0)
(1.1226586 0.00022165723 0)
(1.1225826 0.00017715326 0)
(1.1225209 0.00014004632 0)
(1.1224714 0.00010949126 0)
(1.1224321 8.4646592e-05 0)
(1.1224012 6.4700208e-05 0)
(1.1223773 4.8889543e-05 0)
(1.1223589 3.6516892e-05 0)
(1.122345 2.6958323e-05 0)
(1.1223346 1.9668561e-05 0)
(1.1223269 1.4180366e-05 0)
(1.1223212 1.0101855e-05 0)
(1.1223171 7.1099017e-06 0)
(1.1223142 4.9436159e-06 0)
(1.1223122 3.3953299e-06 0)
(1.1223108 2.3033703e-06 0)
(1.1223098 1.5431075e-06 0)
(1.1223091 1.0210067e-06 0)
(1.1223087 6.6691448e-07 0)
(1.1223084 4.3031108e-07 0)
(1.1223082 2.7392955e-07 0)
(1.122308 1.7245059e-07 0)
(1.122308 1.069172e-07 0)
(1.1223079 6.5869369e-08 0)
(1.1223079 3.9692781e-08 0)
(1.1223079 2.4224945e-08 0)
(1.1223079 1.4055692e-08 0)
(1.1223078 8.9140913e-09 0)
(1.1223079 4.7929769e-09 0)
(1.1223078 3.7778203e-09 0)
(1.1223079 1.7525542e-09 0)
(1.1223078 2.6284546e-09 0)
(1.1223079 1.4165999e-09 0)
(1.1223078 3.7017099e-09 0)
(1.1223079 3.5069379e-09 0)
(1.1223078 7.7469031e-09 0)
(1.1223079 1.0565266e-08 0)
(1.1223078 1.9102134e-08 0)
(1.1223079 3.2297746e-08 0)
(1.1223077 5.4602639e-08 0)
(1.122308 1.0145826e-07 0)
(1.1223076 1.63213e-07 0)
(1.1223081 2.8789788e-07 0)
(1.1223073 4.087064e-07 0)
(1.1223084 5.9989082e-07 0)
(1.0007347 0.011814722 0)
(1.0178472 0.030860927 0)
(1.0462163 0.041434442 0)
(1.0799018 0.04519357 0)
(1.1132664 0.045502352 0)
(1.143782 0.044080309 0)
(1.1708941 0.041439983 0)
(1.1945687 0.037973679 0)
(1.2148582 0.03419573 0)
(1.2319652 0.030536887 0)
(1.2462683 0.027222044 0)
(1.2582339 0.024313917 0)
(1.2683135 0.021797881 0)
(1.2768874 0.019633645 0)
(1.2842553 0.0177738 0)
(1.2906478 0.016169606 0)
(1.2962429 0.014775516 0)
(1.3011789 0.013552181 0)
(1.3055642 0.012467684 0)
(1.3094834 0.011497195 0)
(1.3130035 0.010621758 0)
(1.3161783 0.0098269145 0)
(1.3190513 0.009101524 0)
(1.321659 0.0084368701 0)
(1.3240318 0.0078259925 0)
(1.3261959 0.0072631954 0)
(1.3281736 0.0067436915 0)
(1.3299842 0.0062633525 0)
(1.3316444 0.0058185332 0)
(1.3331688 0.0054059493 0)
(1.3345699 0.0050225943 0)
(1.3358589 0.0046656893 0)
(1.3370451 0.0043326537 0)
(1.338137 0.0040210893 0)
(1.3391416 0.0037287756 0)
(1.340065 0.0034536761 0)
(1.3409128 0.0031939523 0)
(1.3416894 0.0029479822 0)
(1.3423989 0.0027143775 0)
(1.3430448 0.0024919989 0)
(1.3436306 0.0022799641 0)
(1.3441592 0.0020776476 0)
(1.3446335 0.0018846707 0)
(1.3450565 0.0017008782 0)
(1.3454311 0.0015263063 0)
(1.3457604 0.0013611397 0)
(1.3460473 0.0012056632 0)
(1.3462952 0.0010602089 0)
(1.3465074 0.0009251044 0)
(1.3466872 0.00080062373 0)
(1.346838 0.0006869467 0)
(1.3469631 0.00058412666 0)
(1.3470657 0.00049207032 0)
(1.3471489 0.00041052933 0)
(1.3472155 0.00033910352 0)
(1.3472682 0.00027725451 0)
(1.3473093 0.00022432736 0)
(1.347341 0.00017957817 0)
(1.3473651 0.00014220439 0)
(1.3473832 0.00011137563 0)
(1.3473966 8.6262622e-05 0)
(1.3474063 6.6062442e-05 0)
(1.3474132 5.0019182e-05 0)
(1.3474181 3.7438872e-05 0)
(1.3474215 2.7699553e-05 0)
(1.3474238 2.0255653e-05 0)
(1.3474254 1.4638932e-05 0)
(1.3474264 1.0454963e-05 0)
(1.347427 7.3783235e-06 0)
(1.3474274 5.1448151e-06 0)
(1.3474276 3.5444007e-06 0)
(1.3474278 2.4121933e-06 0)
(1.3474279 1.6218004e-06 0)
(1.3474279 1.0768854e-06 0)
(1.3474279 7.0643998e-07 0)
(1.3474279 4.5747269e-07 0)
(1.3474279 2.9283657e-07 0)
(1.3474279 1.8480877e-07 0)
(1.3474279 1.1556396e-07 0)
(1.3474279 7.0954881e-08 0)
(1.3474279 4.3565015e-08 0)
(1.3474279 2.5878315e-08 0)
(1.3474279 1.5937435e-08 0)
(1.3474279 9.0216571e-09 0)
(1.3474279 6.0849294e-09 0)
(1.3474279 3.2743087e-09 0)
(1.3474279 3.1808298e-09 0)
(1.3474279 2.130444e-09 0)
(1.3474279 3.4204564e-09 0)
(1.3474279 3.9488702e-09 0)
(1.3474278 6.4189871e-09 0)
(1.347428 1.0218994e-08 0)
(1.3474278 1.5290849e-08 0)
(1.347428 2.8585532e-08 0)
(1.3474278 4.3505668e-08 0)
(1.3474282 8.3482625e-08 0)
(1.3474277 1.2568889e-07 0)
(1.3474284 2.172642e-07 0)
(1.3474275 2.9306243e-07 0)
(1.3474289 4.1327778e-07 0)
(1.0005903 0.0034629159 0)
(1.0136865 0.0093660199 0)
(1.0370283 0.013046806 0)
(1.0674202 0.014563262 0)
(1.1000315 0.014854526 0)
(1.1316428 0.014564992 0)
(1.1610745 0.01388834 0)
(1.1880674 0.012919247 0)
(1.2125204 0.011806509 0)
(1.2343939 0.01069643 0)
(1.2538077 0.0096727455 0)
(1.2710339 0.0087628254 0)
(1.2864009 0.0079659764 0)
(1.3002111 0.0072722157 0)
(1.3127101 0.0066688061 0)
(1.3240902 0.0061419165 0)
(1.3345034 0.0056780533 0)
(1.3440713 0.0052652862 0)
(1.3528922 0.0048938762 0)
(1.3610457 0.0045563012 0)
(1.3685965 0.0042469226 0)
(1.3755989 0.0039615503 0)
(1.382099 0.0036970557 0)
(1.3881371 0.0034510706 0)
(1.3937488 0.0032217614 0)
(1.3989663 0.0030076614 0)
(1.4038186 0.00280755 0)
(1.4083322 0.002620369 0)
(1.4125313 0.0024451671 0)
(1.4164378 0.0022810618 0)
(1.4200718 0.0021272163 0)
(1.4234517 0.0019828279 0)
(1.4265941 0.0018471242 0)
(1.429514 0.0017193621 0)
(1.432225 0.0015988318 0)
(1.4347393 0.0014848631 0)
(1.4370678 0.0013768349 0)
(1.4392204 0.0012741849 0)
(1.4412059 0.001176421 0)
(1.4430323 0.0010831291 0)
(1.4447071 0.00099398105 0)
(1.4462371 0.00090873715 0)
(1.4476288 0.00082724687 0)
(1.4488887 0.00074944287 0)
(1.4500232 0.00067533283 0)
(1.4510387 0.00060498483 0)
(1.4519419 0.00053851182 0)
(1.4527396 0.00047605162 0)
(1.4534389 0.00041774836 0)
(1.4540472 0.00036373236 0)
(1.4545719 0.00031410326 0)
(1.4550205 0.00026891552 0)
(1.4554006 0.00022816819 0)
(1.4557197 0.00019179911 0)
(1.4559849 0.00015968338 0)
(1.4562032 0.00013163681 0)
(1.456381 0.00010742216 0)
(1.4565243 8.6759423e-05 0)
(1.4566386 6.933656e-05 0)
(1.4567287 5.4822635e-05 0)
(1.456799 4.2879024e-05 0)
(1.4568533 3.3171493e-05 0)
(1.4568947 2.5378774e-05 0)
(1.4569259 1.9201067e-05 0)
(1.4569492 1.4364496e-05 0)
(1.4569664 1.0625358e-05 0)
(1.4569789 7.7705694e-06 0)
(1.4569879 5.6183707e-06 0)
(1.4569943 4.0159272e-06 0)
(1.4569988 2.8378456e-06 0)
(1.4570019 1.9823724e-06 0)
(1.4570041 1.3690108e-06 0)
(1.4570055 9.3455954e-07 0)
(1.4570065 6.3072625e-07 0)
(1.4570072 4.2078089e-07 0)
(1.4570076 2.7752422e-07 0)
(1.4570079 1.8095058e-07 0)
(1.457008 1.1660552e-07 0)
(1.4570081 7.4325416e-08 0)
(1.4570082 4.6760779e-08 0)
(1.4570082 2.918034e-08 0)
(1.4570083 1.7889246e-08 0)
(1.4570083 1.1041501e-08 0)
(1.4570083 6.6222195e-09 0)
(1.4570083 4.2699619e-09 0)
(1.4570083 2.6756833e-09 0)
(1.4570083 2.1950376e-09 0)
(1.4570083 1.8961544e-09 0)
(1.4570083 2.2598261e-09 0)
(1.4570084 2.9188646e-09 0)
(1.4570082 3.7746026e-09 0)
(1.4570084 5.8029203e-09 0)
(1.4570082 7.4251066e-09 0)
(1.4570085 1.3024167e-08 0)
(1.4570082 1.8214488e-08 0)
(1.4570087 3.3583925e-08 0)
(1.4570082 4.8501166e-08 0)
(1.4570089 8.1159254e-08 0)
(1.4570081 1.0644003e-07 0)
(1.4570096 1.4636948e-07 0)
(1.0005903 -0.0034629158 0)
(1.0136865 -0.0093660195 0)
(1.0370283 -0.013046806 0)
(1.0674202 -0.014563261 0)
(1.1000315 -0.014854523 0)
(1.1316428 -0.014564989 0)
(1.1610745 -0.013888336 0)
(1.1880674 -0.012919242 0)
(1.2125204 -0.011806502 0)
(1.2343939 -0.010696421 0)
(1.2538077 -0.0096727341 0)
(1.2710339 -0.0087628113 0)
(1.2864009 -0.0079659591 0)
(1.3002111 -0.0072721947 0)
(1.3127101 -0.006668781 0)
(1.3240902 -0.0061418868 0)
(1.3345034 -0.0056780185 0)
(1.3440713 -0.005265246 0)
(1.3528922 -0.0048938307 0)
(1.3610457 -0.0045562508 0)
(1.3685966 -0.004246868 0)
(1.375599 -0.0039614929 0)
(1.3820991 -0.0036969974 0)
(1.3881371 -0.0034510139 0)
(1.3937488 -0.0032217091 0)
(1.3989663 -0.0030076169 0)
(1.4038186 -0.0028075165 0)
(1.4083323 -0.0026203498 0)
(1.4125313 -0.0024451649 0)
(1.4164378 -0.0022810787 0)
(1.4200719 -0.0021272535 0)
(1.4234518 -0.0019828861 0)
(1.4265941 -0.0018472024 0)
(1.429514 -0.0017194586 0)
(1.432225 -0.0015989438 0)
(1.4347393 -0.001484987 0)
(1.4370678 -0.0013769662 0)
(1.4392203 -0.001274319 0)
(1.4412058 -0.0011765532 0)
(1.4430323 -0.0010832549 0)
(1.444707 -0.0009940964 0)
(1.446237 -0.0009088386 0)
(1.4476287 -0.00082733207 0)
(1.4488886 -0.0007495102 0)
(1.4500231 -0.00067538189 0)
(1.4510386 -0.00060501594 0)
(1.4519418 -0.00053852636 0)
(1.4527395 -0.00047605164 0)
(1.4534388 -0.00041773645 0)
(1.4540471 -0.00036371111 0)
(1.4545718 -0.00031407544 0)
(1.4550204 -0.00026888367 0)
(1.4554006 -0.00022813456 0)
(1.4557196 -0.00019176551 0)
(1.4559849 -0.00015965109 0)
(1.4562031 -0.00013160669 0)
(1.4563809 -0.00010739451 0)
(1.4565242 -8.6734278e-05 0)
(1.4566385 -6.9313581e-05 0)
(1.4567287 -5.4801382e-05 0)
(1.456799 -4.2858944e-05 0)
(1.4568533 -3.3152072e-05 0)
(1.4568947 -2.5359587e-05 0)
(1.4569259 -1.9181792e-05 0)
(1.4569492 -1.4345021e-05 0)
(1.4569664 -1.0605632e-05 0)
(1.4569789 -7.7507859e-06 0)
(1.4569879 -5.5986909e-06 0)
(1.4569943 -3.99674e-06 0)
(1.4569988 -2.8193822e-06 0)
(1.4570019 -1.9650484e-06 0)
(1.4570041 -1.3529986e-06 0)
(1.4570055 -9.2019549e-07 0)
(1.4570065 -6.1803161e-07 0)
(1.4570072 -4.0993467e-07 0)
(1.4570076 -2.6838441e-07 0)
(1.4570078 -1.7356886e-07 0)
(1.457008 -1.1070563e-07 0)
(1.4570081 -6.9858228e-08 0)
(1.4570082 -4.3379985e-08 0)
(1.4570082 -2.680926e-08 0)
(1.4570083 -1.6155065e-08 0)
(1.4570083 -9.8512801e-09 0)
(1.4570083 -5.619417e-09 0)
(1.4570083 -3.3856808e-09 0)
(1.4570083 -1.5719312e-09 0)
(1.4570083 -8.1769155e-10 0)
(1.4570084 8.8987426e-11 0)
(1.4570083 3.6250605e-10 0)
(1.4570084 5.8150019e-10 0)
(1.4570082 4.7165102e-10 0)
(1.4570084 -9.0551606e-10 0)
(1.4570082 -2.2652573e-09 0)
(1.4570085 -7.7877999e-09 0)
(1.4570082 -1.3030926e-08 0)
(1.4570087 -2.8325623e-08 0)
(1.4570082 -4.3234949e-08 0)
(1.4570089 -7.6400739e-08 0)
(1.4570081 -1.02689e-07 0)
(1.4570096 -1.4342518e-07 0)
(1.0007347 -0.011814721 0)
(1.0178472 -0.030860926 0)
(1.0462163 -0.041434441 0)
(1.0799018 -0.045193569 0)
(1.1132664 -0.04550235 0)
(1.143782 -0.044080306 0)
(1.1708941 -0.041439979 0)
(1.1945687 -0.037973674 0)
(1.2148582 -0.034195724 0)
(1.2319652 -0.030536879 0)
(1.2462683 -0.027222034 0)
(1.2582339 -0.024313904 0)
(1.2683135 -0.021797865 0)
(1.2768875 -0.019633626 0)
(1.2842553 -0.017773778 0)
(1.2906478 -0.01616958 0)
(1.2962429 -0.014775486 0)
(1.301179 -0.013552146 0)
(1.3055642 -0.012467645 0)
(1.3094834 -0.011497152 0)
(1.3130036 -0.010621713 0)
(1.3161783 -0.0098268669 0)
(1.3190514 -0.0091014763 0)
(1.3216591 -0.0084368243 0)
(1.3240319 -0.0078259511 0)
(1.326196 -0.0072631608 0)
(1.3281737 -0.0067436663 0)
(1.3299843 -0.0062633388 0)
(1.3316445 -0.0058185333 0)
(1.3331689 -0.0054059646 0)
(1.33457 -0.0050226255 0)
(1.335859 -0.0046657362 0)
(1.3370452 -0.0043327153 0)
(1.338137 -0.0040211639 0)
(1.3391416 -0.003728861 0)
(1.340065 -0.0034537692 0)
(1.3409127 -0.0031940501 0)
(1.3416893 -0.0029480811 0)
(1.3423987 -0.0027144745 0)
(1.3430447 -0.0024920908 0)
(1.3436304 -0.0022800483 0)
(1.344159 -0.0020777221 0)
(1.3446333 -0.0018847339 0)
(1.3450563 -0.0017009291 0)
(1.3454309 -0.0015263447 0)
(1.3457601 -0.0013611659 0)
(1.346047 -0.0012056781 0)
(1.346295 -0.0010602136 0)
(1.3465072 -0.00092510029 0)
(1.346687 -0.00080061267 0)
(1.3468378 -0.00068693041 0)
(1.3469629 -0.00058410684 0)
(1.3470655 -0.0004920484 0)
(1.3471487 -0.00041050659 0)
(1.3472153 -0.0003390808 0)
(1.347268 -0.00027723253 0)
(1.3473092 -0.00022430637 0)
(1.3473409 -0.00017955841 0)
(1.347365 -0.00014218565 0)
(1.3473831 -0.00011135788 0)
(1.3473964 -8.6245463e-05 0)
(1.3474062 -6.6045814e-05 0)
(1.3474131 -5.00027e-05 0)
(1.347418 -3.742261e-05 0)
(1.3474214 -2.7683264e-05 0)
(1.3474237 -2.0239601e-05 0)
(1.3474253 -1.4623005e-05 0)
(1.3474263 -1.0439579e-05 0)
(1.347427 -7.3634489e-06 0)
(1.3474274 -5.1309179e-06 0)
(1.3474276 -3.5314251e-06 0)
(1.3474277 -2.4005731e-06 0)
(1.3474278 -1.6113937e-06 0)
(1.3474279 -1.0680232e-06 0)
(1.3474279 -6.988525e-07 0)
(1.3474279 -4.5138891e-07 0)
(1.3474279 -2.8788293e-07 0)
(1.3474279 -1.8113192e-07 0)
(1.3474279 -1.1271603e-07 0)
(1.3474279 -6.9051863e-08 0)
(1.3474279 -4.2136094e-08 0)
(1.3474279 -2.5033693e-08 0)
(1.3474279 -1.5203906e-08 0)
(1.3474279 -8.5320066e-09 0)
(1.3474279 -5.3860175e-09 0)
(1.3474279 -2.5233941e-09 0)
(1.3474279 -1.9117145e-09 0)
(1.3474279 -5.4597683e-10 0)
(1.3474279 -1.0508403e-09 0)
(1.3474279 -1.0838099e-09 0)
(1.3474278 -2.755508e-09 0)
(1.347428 -6.2950967e-09 0)
(1.3474278 -1.1069135e-08 0)
(1.3474281 -2.4599031e-08 0)
(1.3474278 -3.9539068e-08 0)
(1.3474282 -7.959827e-08 0)
(1.3474277 -1.2168406e-07 0)
(1.3474284 -2.1360485e-07 0)
(1.3474275 -2.8994762e-07 0)
(1.3474289 -4.1065707e-07 0)
(1.0014244 -0.026824854 0)
(1.0291272 -0.062791352 0)
(1.0654292 -0.077736552 0)
(1.098962 -0.0805972 0)
(1.1253149 -0.07828517 0)
(1.145053 -0.073153898 0)
(1.1594858 -0.066111276 0)
(1.1694287 -0.058162059 0)
(1.1755354 -0.050296748 0)
(1.1785738 -0.0431507 0)
(1.1793571 -0.036972814 0)
(1.178595 -0.031771616 0)
(1.1768304 -0.027451817 0)
(1.1744518 -0.023886735 0)
(1.1717287 -0.020947572 0)
(1.1688444 -0.018515711 0)
(1.1659195 -0.016487982 0)
(1.1630317 -0.014779352 0)
(1.1602296 -0.013322764 0)
(1.1575416 -0.01206681 0)
(1.154983 -0.010972532 0)
(1.1525604 -0.010010376 0)
(1.1502752 -0.0091577402 0)
(1.1481254 -0.0083971312 0)
(1.1461071 -0.0077148037 0)
(1.1442153 -0.0070997696 0)
(1.1424442 -0.0065430801 0)
(1.1407878 -0.00603731 0)
(1.1392401 -0.0055761861 0)
(1.137795 -0.005154317 0)
(1.1364466 -0.0047670037 0)
(1.1351895 -0.0044101064 0)
(1.1340181 -0.0040799541 0)
(1.1329275 -0.0037732808 0)
(1.131913 -0.0034871855 0)
(1.1309701 -0.0032191125 0)
(1.130095 -0.002966845 0)
(1.1292838 -0.0027285061 0)
(1.1285334 -0.0025025593 0)
(1.1278406 -0.0022878072 0)
(1.1272027 -0.0020833798 0)
(1.1266171 -0.0018887171 0)
(1.1260817 -0.0017035351 0)
(1.125594 -0.0015277857 0)
(1.1251521 -0.0013616021 0)
(1.1247537 -0.0012052434 0)
(1.1243968 -0.0010590314 0)
(1.1240791 -0.00092329316 0)
(1.1237984 -0.00079830509 0)
(1.1235523 -0.0006842489 0)
(1.1233382 -0.00058117612 0)
(1.1231537 -0.00048898725 0)
(1.1229961 -0.00040742305 0)
(1.1228627 -0.00033606835 0)
(1.122751 -0.00027436742 0)
(1.1226584 -0.00022164619 0)
(1.1225824 -0.00017714235 0)
(1.1225207 -0.00014003552 0)
(1.1224712 -0.0001094809 0)
(1.1224319 -8.4636496e-05 0)
(1.1224011 -6.4690568e-05 0)
(1.1223771 -4.8880105e-05 0)
(1.1223588 -3.6507801e-05 0)
(1.1223449 -2.6949371e-05 0)
(1.1223345 -1.9659904e-05 0)
(1.1223268 -1.4171881e-05 0)
(1.1223211 -1.0093734e-05 0)
(1.1223171 -7.1021042e-06 0)
(1.1223142 -4.9363427e-06 0)
(1.1223121 -3.388571e-06 0)
(1.1223107 -2.2973067e-06 0)
(1.1223097 -1.5377173e-06 0)
(1.1223091 -1.0164088e-06 0)
(1.1223086 -6.6303631e-07 0)
(1.1223084 -4.2721196e-07 0)
(1.1223082 -2.7148791e-07 0)
(1.122308 -1.706631e-07 0)
(1.122308 -1.0562278e-07 0)
(1.1223079 -6.5040695e-08 0)
(1.1223079 -3.9157741e-08 0)
(1.1223079 -2.3941447e-08 0)
(1.1223079 -1.3851218e-08 0)
(1.1223079 -8.7641116e-09 0)
(1.1223079 -4.5411276e-09 0)
(1.1223078 -3.4077125e-09 0)
(1.1223079 -1.1184834e-09 0)
(1.1223078 -1.731923e-09 0)
(1.1223079 -1.4090705e-10 0)
(1.1223078 -2.0704929e-09 0)
(1.1223079 -1.4416376e-09 0)
(1.1223078 -5.3956273e-09 0)
(1.1223079 -8.0057389e-09 0)
(1.1223078 -1.6545428e-08 0)
(1.1223079 -2.9973064e-08 0)
(1.1223077 -5.2458999e-08 0)
(1.122308 -9.9299998e-08 0)
(1.1223076 -1.6091235e-07 0)
(1.1223081 -2.8584419e-07 0)
(1.1223073 -4.0716499e-07 0)
(1.1223084 -5.9864919e-07 0)
(1.0016583 -0.05381943 0)
(1.0359761 -0.10128444 0)
(1.0597199 -0.11073663 0)
(1.0628947 -0.10592202 0)
(1.0515569 -0.096228727 0)
(1.0340529 -0.08393406 0)
(1.0142795 -0.070327061 0)
(0.99360703 -0.056981331 0)
(0.97292577 -0.045107475 0)
(0.9531074 -0.035236744 0)
(0.9347954 -0.027401642 0)
(0.91829014 -0.021387216 0)
(0.90362382 -0.016884484 0)
(0.89068072 -0.013569688 0)
(0.87928182 -0.011147718 0)
(0.86923253 -0.0093736152 0)
(0.86034441 -0.0080568651 0)
(0.85244693 -0.0070570355 0)
(0.8453928 -0.0062751046 0)
(0.83905851 -0.0056436342 0)
(0.83334212 -0.0051178067 0)
(0.8281601 -0.0046682536 0)
(0.82344398 -0.0042758015 0)
(0.81913739 -0.003927838 0)
(0.81519357 -0.0036158912 0)
(0.81157337 -0.0033340629 0)
(0.80824368 -0.0030780414 0)
(0.80517621 -0.0028444948 0)
(0.80234659 -0.0026307038 0)
(0.79973372 -0.0024343478 0)
(0.79731919 -0.0022533855 0)
(0.79508696 -0.0020859921 0)
(0.79302297 -0.0019305255 0)
(0.79111492 -0.0017855113 0)
(0.78935206 -0.0016496372 0)
(0.78772496 -0.0015217568 0)
(0.78622536 -0.0014008947 0)
(0.784846 -0.0012862512 0)
(0.78358043 -0.0011772026 0)
(0.78242281 -0.0010732973 0)
(0.78136782 -0.00097424579 0)
(0.78041046 -0.00087990386 0)
(0.77954591 -0.00079025075 0)
(0.77876941 -0.00070536131 0)
(0.77807618 -0.00062537605 0)
(0.77746136 -0.0005504692 0)
(0.77691993 -0.00048081831 0)
(0.77644674 -0.00041657616 0)
(0.77603651 -0.00035784756 0)
(0.77568386 -0.00030467174 0)
(0.77538339 -0.0002570111 0)
(0.77512974 -0.00021474691 0)
(0.77491764 -0.00017768081 0)
(0.77474203 -0.00014554229 0)
(0.77459809 -0.00011799985 0)
(0.77448133 -9.4675468e-05 0)
(0.77438761 -7.5160089e-05 0)
(0.7743132 -5.9029449e-05 0)
(0.77425474 -4.5858794e-05 0)
(0.77420934 -3.5236563e-05 0)
(0.77417447 -2.6775054e-05 0)
(0.77414798 -2.0117978e-05 0)
(0.7741281 -1.4945553e-05 0)
(0.77411334 -1.0976582e-05 0)
(0.77410252 -7.9691534e-06 0)
(0.77409467 -5.7187137e-06 0)
(0.77408905 -4.0559885e-06 0)
(0.77408508 -2.8428058e-06 0)
(0.7740823 -1.9689688e-06 0)
(0.77408038 -1.3473757e-06 0)
(0.77407907 -9.1104612e-07 0)
(0.77407819 -6.0848002e-07 0)
(0.7740776 -4.0160314e-07 0)
(0.77407722 -2.6174209e-07 0)
(0.77407697 -1.6870897e-07 0)
(0.77407681 -1.0731547e-07 0)
(0.77407671 -6.7694177e-08 0)
(0.77407665 -4.2048255e-08 0)
(0.7740766 -2.6148467e-08 0)
(0.77407658 -1.5844026e-08 0)
(0.77407657 -9.9104923e-09 0)
(0.77407656 -5.7439636e-09 0)
(0.77407655 -3.8411155e-09 0)
(0.77407656 -1.9009482e-09 0)
(0.77407655 -1.6667485e-09 0)
(0.77407656 -4.0379131e-10 0)
(0.77407654 -1.1525679e-09 0)
(0.77407656 -1.2454683e-10 0)
(0.77407654 -2.1232552e-09 0)
(0.77407656 -1.6743494e-09 0)
(0.77407653 -5.900899e-09 0)
(0.77407656 -7.0235967e-09 0)
(0.77407651 -1.5787368e-08 0)
(0.77407656 -2.3126272e-08 0)
(0.77407645 -4.5872439e-08 0)
(0.77407655 -7.9526164e-08 0)
(0.7740763 -1.4739587e-07 0)
(0.77407648 -2.5876985e-07 0)
(0.7740758 -4.1090322e-07 0)
(0.7740763 -6.2202898e-07 0)
(0.91890839 -0.035821913 0)
(0.86271384 -0.062195638 0)
(0.7870597 -0.06251009 0)
(0.69536033 -0.054550395 0)
(0.61089745 -0.044531651 0)
(0.54411592 -0.034015971 0)
(0.49343012 -0.024187538 0)
(0.45479414 -0.016144228 0)
(0.42544583 -0.010265783 0)
(0.40347314 -0.0063041412 0)
(0.38715768 -0.0037976239 0)
(0.37496221 -0.0023103309 0)
(0.36566195 -0.0014930051 0)
(0.35836275 -0.0010851038 0)
(0.35244272 -0.00090605149 0)
(0.34748207 -0.00084102364 0)
(0.34320356 -0.00082368806 0)
(0.33942738 -0.00081926487 0)
(0.33603809 -0.00081179407 0)
(0.33296136 -0.00079572666 0)
(0.33014808 -0.00077071569 0)
(0.32756424 -0.0007385881 0)
(0.32518475 -0.00070173614 0)
(0.32298978 -0.00066236937 0)
(0.3209628 -0.00062224062 0)
(0.31908939 -0.00058260616 0)
(0.31735673 -0.00054428465 0)
(0.31575324 -0.00050774926 0)
(0.31426845 -0.00047322043 0)
(0.31289292 -0.000440747 0)
(0.31161813 -0.00041026849 0)
(0.3104365 -0.00038166039 0)
(0.30934128 -0.00035476463 0)
(0.30832649 -0.00032941093 0)
(0.3073869 -0.00030543166 0)
(0.30651792 -0.00028267159 0)
(0.30571552 -0.00026099539 0)
(0.30497619 -0.00024029083 0)
(0.30429678 -0.00022047254 0)
(0.30367449 -0.0002014812 0)
(0.30310671 -0.00018328471 0)
(0.30259099 -0.00016587377 0)
(0.30212492 -0.00014926064 0)
(0.30170612 -0.00013347225 0)
(0.30133213 -0.00011854721 0)
(0.30100041 -0.00010452804 0)
(0.30070832 -9.1457545e-05 0)
(0.30045312 -7.9372103e-05 0)
(0.30023198 -6.8298695e-05 0)
(0.30004199 -5.8250732e-05 0)
(0.29988023 -4.9226545e-05 0)
(0.29974379 -4.1208422e-05 0)
(0.29962979 -3.4162828e-05 0)
(0.2995355 -2.804228e-05 0)
(0.29945829 -2.2786785e-05 0)
(0.29939572 -1.8327527e-05 0)
(0.29934554 -1.4588704e-05 0)
(0.29930574 -1.1491625e-05 0)
(0.29927451 -8.9561911e-06 0)
(0.29925027 -6.905484e-06 0)
(0.29923166 -5.266391e-06 0)
(0.29921755 -3.9723702e-06 0)
(0.29920695 -2.9629124e-06 0)
(0.29919909 -2.1853041e-06 0)
(0.29919333 -1.5934226e-06 0)
(0.29918916 -1.1486844e-06 0)
(0.29918617 -8.1844771e-07 0)
(0.29918405 -5.7646841e-07 0)
(0.29918257 -4.0120692e-07 0)
(0.29918154 -2.7602524e-07 0)
(0.29918085 -1.8758766e-07 0)
(0.29918037 -1.2603619e-07 0)
(0.29918006 -8.3618177e-08 0)
(0.29917985 -5.4880356e-08 0)
(0.29917972 -3.5553696e-08 0)
(0.29917963 -2.2814119e-08 0)
(0.29917958 -1.4453456e-08 0)
(0.29917954 -9.1003406e-09 0)
(0.29917952 -5.6735416e-09 0)
(0.29917951 -3.5152339e-09 0)
(0.2991795 -2.187327e-09 0)
(0.2991795 -1.3237964e-09 0)
(0.29917949 -8.6082193e-10 0)
(0.29917949 -4.562434e-10 0)
(0.29917949 -3.7437841e-10 0)
(0.29917949 -1.2661066e-10 0)
(0.29917949 -3.6114309e-10 0)
(0.29917949 -2.8547658e-10 0)
(0.29917949 -1.1271478e-09 0)
(0.29917949 -1.4412603e-09 0)
(0.29917948 -3.1811078e-09 0)
(0.29917948 -3.9523113e-09 0)
(0.29917947 -7.538966e-09 0)
(0.29917947 -1.0564517e-08 0)
(0.29917943 -2.205489e-08 0)
(0.29917942 -3.9788554e-08 0)
(0.29917931 -8.1040954e-08 0)
(0.29917923 -1.4131565e-07 0)
(0.29917883 -2.4445255e-07 0)
(0.29917849 -3.3325392e-07 0)
)
;

boundaryField
{
    top
    {
        type            fixedValue;
        value           uniform (0 0 0);
    }
    inlet
    {
        type            fixedValue;
        value           uniform (1 0 0);
    }
    outlet
    {
        type            zeroGradient;
    }
    bottom
    {
        type            fixedValue;
        value           uniform (0 0 0);
    }
    back
    {
        type            empty;
    }
    front
    {
        type            empty;
    }
}


// ************************************************************************* //
