/*--------------------------------*- C++ -*----------------------------------*\
  =========                 |
  \\      /  F ield         | OpenFOAM: The Open Source CFD Toolbox
   \\    /   O peration     | Website:  https://openfoam.org
    \\  /    A nd           | Version:  9
     \\/     M anipulation  |
\*---------------------------------------------------------------------------*/
FoamFile
{
    format      ascii;
    class       volScalarField;
    location    "0.002";
    object      mag(U);
}
// * * * * * * * * * * * * * * * * * * * * * * * * * * * * * * * * * * * * * //

dimensions      [0 1 -1 0 0 0 0];

internalField   nonuniform List<scalar> 
100
(
8.46063e-13
5.54317e-14
5.3973e-13
2.91746e-13
0
8.22724e-13
8.75238e-15
8.31476e-13
2.59753e-34
0
2.91746e-13
2.91746e-13
0
1.03382e-31
0
0
1.03382e-31
0
2.91746e-13
2.57288e-28
2.02718e-28
1.16698e-14
1.65858e-12
1.30731e-11
9.73352e-11
7.26755e-10
5.09862e-09
3.49607e-08
2.24902e-07
1.40551e-06
8.20821e-06
4.6239e-05
0.000242222
0.00121253
0.00560886
0.024478
0.0978212
0.361959
1.20615
3.59206
9.0993
19.5225
36.0685
58.7887
86.229
115.63
146.083
175.672
203.416
228.593
250.525
269.751
284.745
294.83
299.313
298.303
294.635
288.481
280.851
271.501
251.415
182.635
61.0379
9.1495
1.22168
0.152115
0.0186087
0.00226147
0.000274236
3.32437e-05
4.02799e-06
4.8575e-07
5.8078e-08
6.84042e-09
7.9064e-10
8.91854e-11
9.59116e-12
9.26295e-13
5.9808e-14
2.83001e-31
0
0
0
0
0
0
0
0
0
0
0
2.55857e-32
0
0
0
0
2.55857e-32
0
0
0
)
;

boundaryField
{
    sides
    {
        type            calculated;
        value           nonuniform List<scalar> 2(0 8.46063e-13);
    }
    empty
    {
        type            empty;
    }
}


// ************************************************************************* //
