/*--------------------------------*- C++ -*----------------------------------*\
  =========                 |
  \\      /  F ield         | OpenFOAM: The Open Source CFD Toolbox
   \\    /   O peration     | Website:  https://openfoam.org
    \\  /    A nd           | Version:  9
     \\/     M anipulation  |
\*---------------------------------------------------------------------------*/
FoamFile
{
    format      ascii;
    class       volScalarField;
    location    "1";
    object      p;
}
// * * * * * * * * * * * * * * * * * * * * * * * * * * * * * * * * * * * * * //

dimensions      [0 2 -2 0 0 0 0];

internalField   nonuniform List<scalar> 
1000
(
2.0364938
1.9154797
1.8195792
1.7556492
1.7067868
1.6649053
1.6294441
1.6005551
1.5771066
1.557356
1.5397534
1.5231859
1.5069436
1.4906432
1.4741427
1.4574228
1.4405203
1.4234829
1.4063537
1.3891664
1.3719446
1.3547037
1.3374529
1.3201972
1.3029396
1.2856812
1.2684227
1.2511643
1.233906
1.2166479
1.1993899
1.182132
1.1648741
1.1476163
1.1303584
1.1131006
1.0958428
1.078585
1.0613271
1.0440693
1.0268115
1.0095537
0.99229583
0.975038
0.95778018
0.94052235
0.92326452
0.90600669
0.88874886
0.87149103
0.8542332
0.83697537
0.81971754
0.8024597
0.78520187
0.76794404
0.75068621
0.73342837
0.71617054
0.69891271
0.68165487
0.66439704
0.64713921
0.62988137
0.61262354
0.5953657
0.57810787
0.56085003
0.5435922
0.52633436
0.50907652
0.49181869
0.47456085
0.45730302
0.44004518
0.42278735
0.40552951
0.38827169
0.37101383
0.35375604
0.3364981
0.31924046
0.30198225
0.28472506
0.26746616
0.25021005
0.23294976
0.21569533
0.19843362
0.1811795
0.16391989
0.14665981
0.1294105
0.11214055
0.094898236
0.077634994
0.060375579
0.043139343
0.025882133
0.0086290083
1.9193169
1.864589
1.8040896
1.7523633
1.7081863
1.6693853
1.6359429
1.6073584
1.5827475
1.5614227
1.5425242
1.5250033
1.5080365
1.4912263
1.4744209
1.4575418
1.4405596
1.4234862
1.4063431
1.3891528
1.3719327
1.3546948
1.3374468
1.3201933
1.3029371
1.2856797
1.2684218
1.2511638
1.2339058
1.2166478
1.1993898
1.182132
1.1648741
1.1476163
1.1303584
1.1131006
1.0958428
1.078585
1.0613271
1.0440693
1.0268115
1.0095537
0.99229583
0.975038
0.95778018
0.94052235
0.92326452
0.90600669
0.88874886
0.87149103
0.8542332
0.83697537
0.81971754
0.8024597
0.78520187
0.76794404
0.75068621
0.73342837
0.71617054
0.69891271
0.68165487
0.66439704
0.64713921
0.62988137
0.61262354
0.5953657
0.57810787
0.56085003
0.5435922
0.52633436
0.50907652
0.49181869
0.47456085
0.45730302
0.44004518
0.42278735
0.40552951
0.3882717
0.37101381
0.35375608
0.33649802
0.3192406
0.301982
0.28472547
0.2674655
0.25021102
0.23294839
0.215697
0.19843173
0.18118099
0.16391929
0.14665888
0.12941427
0.11213291
0.094906088
0.077624675
0.060379037
0.043148486
0.025865695
0.0086209362
1.8586632
1.8328014
1.7951807
1.7539656
1.7135377
1.676933
1.6451843
1.6167391
1.590556
1.5670821
1.5464077
1.5276147
1.5097126
1.4922205
1.4749583
1.4578078
1.4406776
1.4235369
1.4063584
1.3891519
1.3719263
1.3546877
1.3374409
1.3201889
1.3029341
1.2856778
1.2684206
1.2511631
1.2339053
1.2166475
1.1993897
1.1821319
1.1648741
1.1476162
1.1303584
1.1131006
1.0958428
1.078585
1.0613271
1.0440693
1.0268115
1.0095537
0.99229583
0.975038
0.95778018
0.94052235
0.92326452
0.90600669
0.88874886
0.87149103
0.8542332
0.83697537
0.81971754
0.8024597
0.78520187
0.76794404
0.75068621
0.73342837
0.71617054
0.69891271
0.68165487
0.66439704
0.64713921
0.62988137
0.61262354
0.5953657
0.57810787
0.56085003
0.5435922
0.52633436
0.50907652
0.49181869
0.47456085
0.45730302
0.44004518
0.42278736
0.4055295
0.38827171
0.37101378
0.35375613
0.33649793
0.31924075
0.30198173
0.28472589
0.26746479
0.25021199
0.23294697
0.21569863
0.19842975
0.18118236
0.16391816
0.14665711
0.12941737
0.11212545
0.094915417
0.077619401
0.06039091
0.043161813
0.025847964
0.0086179551
1.8294412
1.814319
1.7883668
1.7543425
1.7169859
1.6819786
1.6514452
1.6233608
1.5964285
1.5716579
1.5497695
1.5300222
1.5113611
1.4932682
1.4755746
1.4581517
1.4408693
1.4236223
1.4063921
1.3891612
1.3719251
1.3546832
1.337436
1.3201849
1.3029312
1.2856758
1.2684193
1.2511623
1.2339049
1.2166473
1.1993896
1.1821318
1.164874
1.1476162
1.1303584
1.1131006
1.0958428
1.078585
1.0613271
1.0440693
1.0268115
1.0095537
0.99229583
0.975038
0.95778017
0.94052235
0.92326452
0.90600669
0.88874886
0.87149103
0.8542332
0.83697537
0.81971754
0.8024597
0.78520187
0.76794404
0.75068621
0.73342837
0.71617054
0.69891271
0.68165487
0.66439704
0.64713921
0.62988137
0.61262354
0.5953657
0.57810787
0.56085003
0.54359219
0.52633436
0.50907652
0.49181869
0.47456085
0.45730302
0.44004518
0.42278736
0.40552949
0.38827172
0.37101376
0.35375616
0.33649787
0.31924084
0.30198155
0.28472614
0.26746437
0.25021255
0.23294613
0.21569951
0.19842859
0.18118302
0.16391791
0.14665569
0.12941999
0.11212099
0.094922494
0.077619508
0.060389845
0.043170679
0.025837801
0.0086123862
1.8168234
1.805257
1.78394
1.7535297
1.718056
1.6839853
1.6541042
1.6263428
1.59924
1.5739681
1.5515335
1.5313218
1.5122746
1.4938654
1.4759391
1.4583628
1.4409808
1.4236824
1.4064188
1.3891708
1.3719271
1.3546821
1.337434
1.320183
1.3029297
1.2856747
1.2684186
1.2511618
1.2339046
1.2166471
1.1993895
1.1821318
1.164874
1.1476162
1.1303584
1.1131006
1.0958428
1.078585
1.0613271
1.0440693
1.0268115
1.0095537
0.99229583
0.975038
0.95778017
0.94052235
0.92326452
0.90600669
0.88874886
0.87149103
0.8542332
0.83697537
0.81971753
0.8024597
0.78520187
0.76794404
0.75068621
0.73342837
0.71617054
0.69891271
0.68165487
0.66439704
0.64713921
0.62988137
0.61262354
0.5953657
0.57810787
0.56085003
0.54359219
0.52633436
0.50907652
0.49181869
0.47456085
0.45730302
0.44004518
0.42278736
0.40552949
0.38827172
0.37101376
0.35375617
0.33649784
0.31924088
0.30198147
0.28472625
0.26746417
0.25021277
0.23294576
0.21569982
0.19842814
0.18118311
0.16391783
0.14665475
0.12942154
0.11211945
0.094925262
0.077618828
0.060387795
0.04317442
0.025834163
0.0086086725
1.8168236
1.8052571
1.7839401
1.7535298
1.7180561
1.6839854
1.6541042
1.6263428
1.59924
1.5739681
1.5515336
1.5313218
1.5122746
1.4938654
1.4759392
1.4583628
1.4409808
1.4236825
1.4064189
1.3891709
1.3719271
1.3546821
1.3374341
1.3201831
1.3029297
1.2856747
1.2684186
1.2511618
1.2339046
1.2166471
1.1993895
1.1821318
1.164874
1.1476162
1.1303584
1.1131006
1.0958428
1.078585
1.0613271
1.0440693
1.0268115
1.0095537
0.99229583
0.975038
0.95778017
0.94052235
0.92326452
0.90600669
0.88874886
0.87149103
0.8542332
0.83697537
0.81971754
0.8024597
0.78520187
0.76794404
0.75068621
0.73342837
0.71617054
0.69891271
0.68165487
0.66439704
0.64713921
0.62988137
0.61262354
0.5953657
0.57810787
0.56085003
0.54359219
0.52633436
0.50907652
0.49181869
0.47456085
0.45730302
0.44004518
0.42278736
0.40552949
0.38827172
0.37101376
0.35375617
0.33649784
0.31924088
0.30198147
0.28472625
0.26746417
0.25021277
0.23294576
0.21569982
0.19842814
0.1811831
0.16391783
0.14665474
0.12942154
0.11211944
0.094925257
0.077618822
0.06038779
0.043174416
0.025834162
0.0086086722
1.8294416
1.8143194
1.7883671
1.7543428
1.7169861
1.6819788
1.6514453
1.6233609
1.5964286
1.5716581
1.5497697
1.5300223
1.5113613
1.4932684
1.4755747
1.4581518
1.4408694
1.4236224
1.4063922
1.3891613
1.3719252
1.3546833
1.3374361
1.320185
1.3029313
1.2856758
1.2684194
1.2511623
1.2339049
1.2166473
1.1993896
1.1821318
1.164874
1.1476162
1.1303584
1.1131006
1.0958428
1.078585
1.0613271
1.0440693
1.0268115
1.0095537
0.99229583
0.975038
0.95778018
0.94052235
0.92326452
0.90600669
0.88874886
0.87149103
0.8542332
0.83697537
0.81971754
0.8024597
0.78520187
0.76794404
0.75068621
0.73342837
0.71617054
0.69891271
0.68165487
0.66439704
0.64713921
0.62988137
0.61262354
0.5953657
0.57810787
0.56085003
0.54359219
0.52633436
0.50907652
0.49181869
0.47456085
0.45730302
0.44004518
0.42278736
0.4055295
0.38827172
0.37101376
0.35375616
0.33649787
0.31924083
0.30198154
0.28472613
0.26746435
0.25021254
0.23294612
0.21569951
0.19842859
0.18118301
0.1639179
0.14665567
0.12941997
0.11212097
0.094922478
0.077619493
0.060389831
0.043170671
0.025837798
0.0086123856
1.858664
1.8328021
1.7951813
1.7539661
1.713538
1.6769332
1.6451844
1.6167393
1.5905561
1.5670824
1.546408
1.527615
1.5097129
1.4922207
1.4749585
1.457808
1.4406777
1.423537
1.4063586
1.389152
1.3719264
1.3546878
1.337441
1.320189
1.3029342
1.2856779
1.2684207
1.2511631
1.2339054
1.2166476
1.1993898
1.1821319
1.1648741
1.1476163
1.1303584
1.1131006
1.0958428
1.078585
1.0613271
1.0440693
1.0268115
1.0095537
0.99229583
0.975038
0.95778017
0.94052235
0.92326452
0.90600669
0.88874886
0.87149103
0.8542332
0.83697537
0.81971753
0.8024597
0.78520187
0.76794404
0.75068621
0.73342837
0.71617054
0.69891271
0.68165487
0.66439704
0.64713921
0.62988137
0.61262354
0.5953657
0.57810786
0.56085003
0.54359219
0.52633436
0.50907652
0.49181869
0.47456085
0.45730302
0.44004518
0.42278736
0.4055295
0.38827171
0.37101378
0.35375613
0.33649792
0.31924073
0.3019817
0.28472587
0.26746477
0.25021198
0.23294697
0.21569863
0.19842974
0.18118235
0.16391813
0.14665708
0.12941734
0.11212542
0.094915391
0.077619376
0.060390892
0.043161803
0.02584796
0.0086179541
1.9193179
1.8645899
1.8040903
1.7523639
1.7081866
1.6693855
1.635943
1.6073585
1.5827477
1.561423
1.5425246
1.5250036
1.5080368
1.4912266
1.4744211
1.457542
1.4405597
1.4234864
1.4063433
1.3891529
1.3719329
1.354695
1.3374469
1.3201934
1.3029372
1.2856798
1.2684219
1.2511639
1.2339058
1.2166478
1.1993899
1.182132
1.1648741
1.1476163
1.1303584
1.1131006
1.0958428
1.078585
1.0613271
1.0440693
1.0268115
1.0095537
0.99229583
0.975038
0.95778017
0.94052235
0.92326452
0.90600669
0.88874886
0.87149103
0.8542332
0.83697537
0.81971753
0.8024597
0.78520187
0.76794404
0.75068621
0.73342837
0.71617054
0.69891271
0.68165487
0.66439704
0.64713921
0.62988137
0.61262354
0.5953657
0.57810786
0.56085003
0.54359219
0.52633436
0.50907652
0.49181869
0.47456085
0.45730302
0.44004518
0.42278735
0.40552951
0.3882717
0.37101381
0.35375608
0.33649801
0.31924057
0.30198197
0.28472544
0.26746547
0.25021101
0.23294838
0.215697
0.19843172
0.18118096
0.16391925
0.14665885
0.12941423
0.11213288
0.094906059
0.077624649
0.060379016
0.043148475
0.025865692
0.0086209354
2.0364947
1.9154805
1.8195799
1.7556497
1.7067873
1.6649057
1.6294443
1.6005553
1.5771069
1.5573563
1.5397537
1.5231862
1.506944
1.4906435
1.474143
1.457423
1.4405205
1.4234831
1.4063539
1.3891666
1.3719448
1.3547039
1.337453
1.3201974
1.3029397
1.2856813
1.2684227
1.2511643
1.2339061
1.216648
1.19939
1.182132
1.1648741
1.1476163
1.1303584
1.1131006
1.0958428
1.078585
1.0613271
1.0440693
1.0268115
1.0095537
0.99229583
0.975038
0.95778017
0.94052235
0.92326452
0.90600669
0.88874886
0.87149103
0.8542332
0.83697537
0.81971753
0.8024597
0.78520187
0.76794404
0.75068621
0.73342837
0.71617054
0.69891271
0.68165487
0.66439704
0.64713921
0.62988137
0.61262354
0.5953657
0.57810787
0.56085003
0.54359219
0.52633436
0.50907652
0.49181869
0.47456085
0.45730302
0.44004518
0.42278735
0.40552951
0.38827169
0.37101383
0.35375603
0.33649808
0.31924043
0.30198222
0.28472503
0.26746614
0.25021004
0.23294976
0.21569533
0.1984336
0.18117946
0.16391984
0.14665978
0.12941047
0.11214053
0.09489821
0.077634966
0.060375556
0.043139329
0.025882128
0.0086290066
)
;

boundaryField
{
    top
    {
        type            zeroGradient;
    }
    inlet
    {
        type            zeroGradient;
    }
    outlet
    {
        type            fixedValue;
        value           uniform 0;
    }
    bottom
    {
        type            zeroGradient;
    }
    back
    {
        type            empty;
    }
    front
    {
        type            empty;
    }
}


// ************************************************************************* //
