/*--------------------------------*- C++ -*----------------------------------*\
  =========                 |
  \\      /  F ield         | OpenFOAM: The Open Source CFD Toolbox
   \\    /   O peration     | Website:  https://openfoam.org
    \\  /    A nd           | Version:  9
     \\/     M anipulation  |
\*---------------------------------------------------------------------------*/
FoamFile
{
    format      ascii;
    class       surfaceScalarField;
    location    "1";
    object      phi;
}
// * * * * * * * * * * * * * * * * * * * * * * * * * * * * * * * * * * * * * //

dimensions      [0 3 -1 0 0 0 0];

internalField   nonuniform List<scalar> 
1890
(
0.009307066
0.00069293551
0.0082853715
0.0010216957
0.0073381396
0.00094723182
0.0065176179
0.00082052053
0.0058291019
0.00068851429
0.0052838807
0.00054521991
0.0048872523
0.00039662781
0.0046255473
0.00026170502
0.0044670608
0.00015848698
0.0043779346
8.9126768e-05
0.0043328484
4.5086646e-05
0.0043143053
1.8543361e-05
0.0043098674
4.4378739e-06
0.0043120146
-2.1473966e-06
0.0043159044
-3.8901066e-06
0.0043196973
-3.7931973e-06
0.0043226882
-2.991112e-06
0.0043247991
-2.1109085e-06
0.0043261744
-1.375342e-06
0.0043270145
-8.4007283e-07
0.0043275003
-4.8580782e-07
0.0043277676
-2.6719417e-07
0.0043279072
-1.3965287e-07
0.0043279762
-6.8904776e-08
0.0043280077
-3.1607324e-08
0.0043280207
-1.3018875e-08
0.0043280251
-4.3832747e-09
0.0043280259
-7.8970819e-10
0.0043280253
5.5177378e-10
0.0043280244
8.4350434e-10
0.0043280237
7.2389793e-10
0.0043280232
5.1671431e-10
0.0043280229
3.2799844e-10
0.0043280227
1.8634803e-10
0.0043280226
8.623087e-11
0.0043280226
2.2594489e-11
0.0043280226
-1.524606e-11
0.0043280226
-3.5459574e-11
0.0043280227
-4.816001e-11
0.0043280227
-5.0895059e-11
0.0043280228
-5.2726284e-11
0.0043280228
-4.9153653e-11
0.0043280229
-4.7626794e-11
0.0043280229
-4.2055955e-11
0.004328023
-3.9352714e-11
0.004328023
-3.3441269e-11
0.004328023
-3.1013565e-11
0.0043280231
-2.5398265e-11
0.0043280231
-2.323439e-11
0.0043280231
-1.8181648e-11
0.0043280231
-1.6882218e-11
0.0043280231
-1.2481061e-11
0.0043280231
-1.1634472e-11
0.0043280232
-7.9093173e-12
0.0043280232
-7.9028662e-12
0.0043280232
-4.7375308e-12
0.0043280232
-5.0428256e-12
0.0043280232
-2.3674456e-12
0.0043280232
-3.3022973e-12
0.0043280232
-9.8386008e-13
0.0043280232
-1.973462e-12
0.0043280232
1.1040673e-13
0.0043280232
-1.2365063e-12
0.0043280232
7.214185e-13
0.0043280232
-4.9876547e-13
0.0043280232
1.4623902e-12
0.0043280232
8.5747394e-14
0.0043280232
2.0080908e-12
0.0043280232
9.4196096e-13
0.0043280232
2.4895557e-12
0.0043280232
1.8155514e-12
0.0043280232
1.2847606e-12
0.0043280232
4.7935901e-12
0.0043280232
-6.8113952e-12
0.0043280232
2.0023561e-11
0.0043280232
-4.667118e-11
0.0043280231
1.0197631e-10
0.0043280233
-2.2640408e-10
0.0043280229
4.7676913e-10
0.0043280239
-9.8018398e-10
0.0043280219
1.9829552e-09
0.0043280257
-3.7953001e-09
0.0043280184
7.2219947e-09
0.0043280312
-1.2806918e-08
0.0043280088
2.2386551e-08
0.0043280447
-3.5963888e-08
0.0043279889
5.5843984e-08
0.0043280659
-7.6960815e-08
0.0043279677
9.8332098e-08
0.0043280649
-9.7119926e-08
0.0043279961
6.8744983e-08
0.0043279521
4.3923082e-08
0.0043281363
-1.8432961e-07
0.0043277049
4.3135412e-07
0.0043282057
-5.0077792e-07
0.0043276496
5.5622798e-07
0.0043277365
-8.6896264e-08
0.0043282697
-5.3318682e-07
0.0043278868
3.8286404e-07
-9.5223629e-07
0.010340177
0.00035276008
0.010574183
0.00078769062
0.01061089
0.00091052462
0.010553851
0.00087755821
0.010437779
0.00080458454
0.0102759
0.00070709808
0.010095039
0.00057748827
0.0099250017
0.00043174232
0.0097838598
0.00029962931
0.0096765829
0.0001964043
0.0096008852
0.0001207848
0.0095516081
6.7820724e-05
0.0095224273
3.3618661e-05
0.0095064649
1.3814785e-05
0.009498798
3.7764771e-06
0.0094958506
-8.4605009e-07
0.0094951928
-2.3334642e-06
0.0094955405
-2.4587273e-06
0.0094961732
-2.0080333e-06
0.0094967762
-1.4430274e-06
0.0094972456
-9.5520333e-07
0.0094975732
-5.9469439e-07
0.0094977853
-3.5174425e-07
0.009497915
-1.9857012e-07
0.0094979905
-1.0712642e-07
0.0094980326
-5.5127666e-08
0.0094980551
-2.6899041e-08
0.0094980665
-1.229406e-08
0.0094980722
-5.1011173e-09
0.0094980748
-1.8031628e-09
0.009498076
-4.387111e-10
0.0094980765
1.5909522e-11
0.0094980767
1.2639437e-10
0.0094980768
8.0236684e-11
0.0094980769
1.1212884e-11
0.0094980769
-5.8129027e-11
0.009498077
-1.0400746e-10
0.0094980771
-1.3505443e-10
0.0094980773
-1.4878002e-10
0.0094980774
-1.554596e-10
0.0094980775
-1.5203357e-10
0.0094980776
-1.4750426e-10
0.0094980777
-1.3724709e-10
0.0094980777
-1.2855438e-10
0.0094980778
-1.1566704e-10
0.0094980779
-1.0578239e-10
0.009498078
-9.2822126e-11
0.009498078
-8.3460175e-11
0.0094980781
-7.1105101e-11
0.0094980781
-6.292206e-11
0.0094980781
-5.2211262e-11
0.0094980782
-4.5727106e-11
0.0094980782
-3.6529396e-11
0.0094980782
-3.1674224e-11
0.0094980782
-2.444166e-11
0.0094980783
-2.125483e-11
0.0094980783
-1.541609e-11
0.0094980783
-1.345673e-11
0.0094980783
-9.1239147e-12
0.0094980783
-8.3689574e-12
0.0094980783
-4.6987885e-12
0.0094980783
-4.586496e-12
0.0094980783
-1.7098969e-12
0.0094980783
-2.0900745e-12
0.0094980783
6.98945e-13
0.0094980783
2.5613972e-13
0.0094980783
2.9157273e-12
0.0094980783
2.2209063e-12
0.0094980783
5.2806538e-12
0.0094980783
3.9348456e-12
0.0094980783
7.968203e-12
0.0094980783
2.3269202e-12
0.0094980783
1.3980263e-11
0.0094980783
-1.2638921e-11
0.0094980783
4.1770379e-11
0.0094980783
-8.5928617e-11
0.0094980782
1.8433371e-10
0.0094980784
-4.0047041e-10
0.0094980781
8.1808259e-10
0.0094980788
-1.657144e-09
0.0094980775
3.2585938e-09
0.0094980798
-6.100369e-09
0.0094980757
1.1276204e-08
0.0094980823
-1.9368496e-08
0.0094980719
3.2689669e-08
0.009498086
-5.011069e-08
0.009498068
7.39193e-08
0.0094980849
-9.3782296e-08
0.0094980755
1.0781196e-07
0.0094980588
-8.0384774e-08
0.0094981115
1.6084421e-08
0.0094980022
1.5312366e-07
0.0094981431
-3.2539128e-07
0.0094980254
5.4897587e-07
0.0094980472
-5.2247428e-07
0.0094983763
2.271648e-07
0.0094980615
2.2796817e-07
0.0094984753
-9.4696691e-07
0.0094985883
2.6985282e-07
-8.1616271e-07
0.010188447
0.0001643146
0.010530068
0.00044607116
0.010849081
0.00059151174
0.011115044
0.00061159357
0.011331698
0.00058792906
0.011493444
0.00054535037
0.011596322
0.00047460986
0.011648095
0.0003799696
0.011664782
0.00028294275
0.011661454
0.00019973291
0.011648388
0.00013385109
0.011632261
8.3947877e-05
0.011617245
4.863529e-05
0.011605305
2.5754638e-05
0.0115969
1.2181148e-05
0.011591322
4.7308859e-06
0.011587903
1.0853271e-06
0.011586019
-5.7465447e-07
0.011585033
-1.0215464e-06
0.011584566
-9.7602636e-07
0.011584374
-7.6294645e-07
0.011584314
-5.3480967e-07
0.01158431
-3.4814284e-07
0.011584326
-2.1397446e-07
0.011584344
-1.2525238e-07
0.011584359
-7.014452e-08
0.01158437
-3.7643285e-08
0.011584377
-1.9343506e-08
0.011584381
-9.4873913e-09
0.011584384
-4.4245603e-09
0.011584385
-1.9639981e-09
0.011584386
-8.5026286e-10
0.011584387
-3.8932875e-10
0.011584387
-2.3286904e-10
0.011584387
-2.0142624e-10
0.011584387
-2.1296885e-10
0.011584387
-2.320665e-10
0.011584388
-2.4536449e-10
0.011584388
-2.5111856e-10
0.011584388
-2.4885389e-10
0.011584388
-2.4157734e-10
0.011584388
-2.2989056e-10
0.011584388
-2.1628905e-10
0.011584388
-2.0042106e-10
0.011584388
-1.8422242e-10
0.011584388
-1.67126e-10
0.011584388
-1.5067039e-10
0.011584388
-1.3386401e-10
0.011584388
-1.1825352e-10
0.011584388
-1.0287406e-10
0.011584388
-8.926372e-11
0.011584389
-7.5882716e-11
0.011584389
-6.447778e-11
0.011584389
-5.3594175e-11
0.011584389
-4.4756749e-11
0.011584389
-3.6268559e-11
0.011584389
-2.9571854e-11
0.011584389
-2.3379786e-11
0.011584389
-1.876348e-11
0.011584389
-1.4241008e-11
0.011584389
-1.0985936e-11
0.011584389
-7.7857482e-12
0.011584389
-5.6098355e-12
0.011584389
-3.1494012e-12
0.011584389
-1.3475522e-12
0.011584389
8.4869537e-13
0.011584389
2.3507275e-12
0.011584389
4.4718528e-12
0.011584389
6.2527852e-12
0.011584389
7.5329949e-12
0.011584389
1.0338344e-11
0.011584389
7.1893714e-12
0.011584389
1.7046404e-11
0.011584389
-7.1662394e-12
0.011584389
4.2455257e-11
0.011584389
-7.7355654e-11
0.011584389
1.7003433e-10
0.011584389
-3.6478772e-10
0.011584389
7.2488017e-10
0.011584389
-1.4540326e-09
0.011584389
2.7789859e-09
0.011584388
-5.0877574e-09
0.01158439
9.1400328e-09
0.011584386
-1.5138425e-08
0.011584394
2.4656545e-08
0.011584379
-3.569003e-08
0.011584404
4.9755432e-08
0.011584366
-5.6295524e-08
0.011584418
5.5907603e-08
0.011584358
-1.9838601e-08
0.01158441
-3.5763266e-08
0.011584407
1.5598041e-07
0.011584332
-2.509887e-07
0.011584559
3.2175641e-07
0.011584292
-2.5554461e-07
0.011584574
-5.4419661e-08
0.011584544
2.5768465e-07
0.011584248
-6.5102196e-07
0.011584551
-3.3275135e-08
-5.771182e-07
0.010096547
6.7769183e-05
0.010344789
0.0001978309
0.010657501
0.00027879988
0.01096922
0.00029987333
0.01126237
0.00029477709
0.011527753
0.00027996607
0.011750625
0.00025173764
0.011921205
0.0002093896
0.012042002
0.00016214659
0.012122638
0.00011909723
0.01217308
8.3409641e-05
0.012201887
5.5140734e-05
0.012216434
3.408838e-05
0.012222555
1.9634311e-05
0.01222426
1.047548e-05
0.012223945
5.0459476e-06
0.012222969
2.06128e-06
0.012221853
5.4119141e-07
0.012220953
-1.2153334e-07
0.012220301
-3.2444157e-07
0.012219869
-3.3023839e-07
0.012219599
-2.6490476e-07
0.012219439
-1.8831019e-07
0.012219349
-1.237317e-07
0.0122193
-7.6622173e-08
0.012219275
-4.5193611e-08
0.012219263
-2.5535671e-08
0.012219258
-1.3881042e-08
0.012219256
-7.2810025e-09
0.012219255
-3.7185339e-09
0.012219255
-1.87881e-09
0.012219255
-9.8828289e-10
0.012219255
-5.7744734e-10
0.012219255
-4.1294714e-10
0.012219255
-3.4751352e-10
0.012219256
-3.3229114e-10
0.012219256
-3.2210973e-10
0.012219256
-3.2046965e-10
0.012219256
-3.0782133e-10
0.012219256
-2.9959975e-10
0.012219256
-2.8089959e-10
0.012219256
-2.6829302e-10
0.012219256
-2.4659962e-10
0.012219256
-2.3231677e-10
0.012219256
-2.0978477e-10
0.012219256
-1.9534259e-10
0.012219256
-1.7270232e-10
0.012219256
-1.588233e-10
0.012219256
-1.3707113e-10
0.012219256
-1.2465218e-10
0.012219256
-1.0446086e-10
0.012219256
-9.3945211e-11
0.012219256
-7.6308304e-11
0.012219256
-6.8186019e-11
0.012219256
-5.3116248e-11
0.012219256
-4.7526618e-11
0.012219256
-3.5213501e-11
0.012219256
-3.2040081e-11
0.012219256
-2.1959444e-11
0.012219256
-2.06888e-11
0.012219256
-1.2507057e-11
0.012219256
-1.2706821e-11
0.012219256
-5.6973877e-12
0.012219256
-6.6255132e-12
0.012219256
-4.1231195e-13
0.012219256
-1.7637056e-12
0.012219256
4.572372e-12
0.012219256
2.900754e-12
0.012219256
9.3475085e-12
0.012219256
7.0755674e-12
0.012219256
1.3921091e-11
0.012219256
8.8035599e-12
0.012219256
1.8580074e-11
0.012219256
1.486888e-13
0.012219256
3.0595429e-11
0.012219256
-4.2129288e-11
0.012219256
9.3714407e-11
0.012219256
-2.021037e-10
0.012219257
3.772272e-10
0.012219256
-7.714739e-10
0.012219257
1.4166409e-09
0.012219255
-2.5719921e-09
0.012219259
4.5117514e-09
0.012219251
-7.2541549e-09
0.012219264
1.1537204e-08
0.012219245
-1.5859384e-08
0.012219273
2.1233444e-08
0.012219238
-2.1307166e-08
0.012219276
1.8167867e-08
0.012219253
2.8455557e-09
0.012219247
-2.9335366e-08
0.012219322
8.0708272e-08
0.012219185
-1.140613e-07
0.012219391
1.1604646e-07
0.012219209
-7.392225e-08
0.012219235
-8.0287187e-08
0.012219373
1.2012664e-07
0.012219011
-2.8961809e-07
0.012219066
-8.7739966e-08
-3.0775176e-07
0.010067771
-4.9667936e-10
0.010265604
-5.56057e-10
0.010544405
-4.7182621e-10
0.010844277
-4.5167762e-10
0.011139053
-4.7376934e-10
0.011419019
-3.9985637e-10
0.011670756
-1.3567728e-10
0.011880145
1.6431643e-10
0.012042292
3.3785941e-10
0.01216139
2.963407e-10
0.0122448
7.5170952e-11
0.012299941
-1.7686376e-10
0.01233403
-3.1008305e-10
0.012353665
-2.2338403e-10
0.01236414
5.4648827e-11
0.012369185
4.2371317e-10
0.012371246
7.6892026e-10
0.012371786
8.9342774e-10
0.012371663
8.7214066e-10
0.012371338
6.5906306e-10
0.012371008
3.5724125e-10
0.012370743
5.4365106e-11
0.012370555
-1.9440585e-10
0.012370432
-3.4432764e-10
0.012370356
-4.1547206e-10
0.012370311
-4.1601649e-10
0.012370286
-3.9114742e-10
0.012370272
-3.5177104e-10
0.012370265
-3.3043533e-10
0.012370262
-3.1644842e-10
0.01237026
-3.2472006e-10
0.01237026
-3.3296655e-10
0.012370259
-3.5334733e-10
0.012370259
-3.60419e-10
0.012370259
-3.6704934e-10
0.01237026
-3.5687708e-10
0.01237026
-3.4859857e-10
0.01237026
-3.2674232e-10
0.01237026
-3.1067374e-10
0.01237026
-2.8497909e-10
0.01237026
-2.682159e-10
0.01237026
-2.4355706e-10
0.01237026
-2.2867443e-10
0.01237026
-2.0618569e-10
0.01237026
-1.9343526e-10
0.012370259
-1.7238494e-10
0.012370259
-1.6072444e-10
0.012370259
-1.4056351e-10
0.012370259
-1.3003272e-10
0.012370259
-1.1085221e-10
0.012370259
-1.0135829e-10
0.012370259
-8.3863719e-11
0.012370259
-7.6120023e-11
0.012370259
-6.0638132e-11
0.012370259
-5.4882687e-11
0.012370259
-4.1687444e-11
0.012370259
-3.8271073e-11
0.012370259
-2.724978e-11
0.012370259
-2.5683879e-11
0.012370259
-1.6509045e-11
0.012370259
-1.6659026e-11
0.012370259
-8.8605431e-12
0.012370259
-9.7873209e-12
0.012370259
-2.8775119e-12
0.012370259
-4.4173832e-12
0.012370259
2.2541134e-12
0.012370259
5.8039408e-13
0.012370259
7.3655531e-12
0.012370259
5.3672988e-12
0.012370259
1.1974006e-11
0.012370259
9.6068672e-12
0.012370259
1.5051214e-11
0.012370259
1.0674036e-11
0.012370259
1.3289953e-11
0.012370259
5.8999801e-12
0.012370259
4.8326303e-12
0.012370259
-5.9459617e-12
0.012370259
-8.9097642e-12
0.01237026
-2.0654806e-11
0.012370259
-2.118627e-11
0.01237026
-2.6835132e-11
0.012370258
-1.6135491e-11
0.012370262
-8.1624996e-12
0.012370255
1.3829934e-11
0.012370267
2.5166093e-11
0.012370251
3.66135e-11
0.012370272
2.8496039e-11
0.012370251
1.434781e-11
0.012370269
-1.219781e-11
0.012370272
-3.0229861e-11
0.012370242
-4.3398851e-11
0.012370323
-3.2540676e-11
0.012370209
-1.3802156e-11
0.012370325
2.449584e-11
0.012370251
4.4021085e-11
0.012370171
6.2399933e-11
0.012370291
3.2937292e-11
0.012370001
4.285306e-12
0.012369913
-5.5460148e-11
-9.2015867e-11
0.010067771
-6.777012e-05
0.010265604
-0.000197832
0.010544405
-0.00027880084
0.010844277
-0.00029987427
0.011139054
-0.00029477801
0.011419019
-0.00027996671
0.011670756
-0.0002517377
0.011880145
-0.00020938904
0.012042292
-0.00016214576
0.012161389
-0.00011909664
0.0122448
-8.3409642e-05
0.012299941
-5.5141338e-05
0.01233403
-3.408925e-05
0.012353665
-1.9634958e-05
0.01236414
-1.0475471e-05
0.012369186
-5.0451506e-06
0.012371246
-2.0597238e-06
0.012371787
-5.3951489e-07
0.012371664
1.2331033e-07
0.012371339
3.2571428e-07
0.012371009
3.3089068e-07
0.012370744
2.649423e-07
0.012370556
1.8787564e-07
0.012370433
1.2302051e-07
0.012370357
7.5802907e-08
0.012370312
4.4390718e-08
0.012370287
2.4807097e-08
0.012370273
1.3235298e-08
0.012370266
6.6886635e-09
0.012370263
3.1475771e-09
0.012370261
1.296689e-09
0.012370261
3.8331391e-10
0.01237026
-6.7150484e-11
0.01237026
-2.5536516e-10
0.01237026
-3.2799038e-10
0.01237026
-3.3134747e-10
0.01237026
-3.189392e-10
0.01237026
-2.8538539e-10
0.01237026
-2.6033993e-10
0.01237026
-2.2607959e-10
0.01237026
-2.0589677e-10
0.01237026
-1.7834892e-10
0.01237026
-1.6553012e-10
0.01237026
-1.4435152e-10
0.01237026
-1.3662162e-10
0.01237026
-1.1874527e-10
0.01237026
-1.1356457e-10
0.01237026
-9.7359147e-11
0.01237026
-9.3099123e-11
0.01237026
-7.7546958e-11
0.01237026
-7.3898451e-11
0.01237026
-5.9416124e-11
0.01237026
-5.6662621e-11
0.012370259
-4.321444e-11
0.012370259
-4.1756256e-11
0.012370259
-2.9978688e-11
0.012370259
-2.9903191e-11
0.012370259
-1.947021e-11
0.012370259
-2.0688893e-11
0.012370259
-1.1715254e-11
0.012370259
-1.393111e-11
0.012370259
-5.6803706e-12
0.012370259
-8.4910871e-12
0.012370259
-9.6679008e-13
0.012370259
-3.8844483e-12
0.012370259
3.6296034e-12
0.012370259
4.3673506e-13
0.012370259
8.1162416e-12
0.012370259
4.5296102e-12
0.012370259
1.2479337e-11
0.012370259
7.298231e-12
0.012370259
1.5894531e-11
0.012370259
3.9267152e-12
0.012370259
2.0616497e-11
0.012370259
-1.8006691e-11
0.012370259
4.5843355e-11
0.01237026
-1.0380678e-10
0.012370259
1.7994256e-10
0.01237026
-4.1400617e-10
0.012370259
7.2793381e-10
0.01237026
-1.4618854e-09
0.012370258
2.5415678e-09
0.012370262
-4.5183786e-09
0.012370255
7.2809415e-09
0.012370267
-1.1482675e-08
0.012370251
1.5925064e-08
0.012370272
-2.1180446e-08
0.012370251
2.132538e-08
0.012370269
-1.81978e-08
0.012370272
-2.9079939e-09
0.012370242
2.9248879e-08
0.012370323
-8.0773216e-08
0.012370209
1.1404458e-07
0.012370325
-1.1599752e-07
0.012370251
7.4019942e-08
0.012370171
8.0408414e-08
0.012370291
-1.2006126e-07
0.012370001
2.8961478e-07
0.012369913
8.7631227e-08
3.0756871e-07
0.010096547
-0.00016431572
0.010344789
-0.00044607231
0.010657501
-0.00059151272
0.01096922
-0.00061159444
0.01126237
-0.00058792976
0.011527753
-0.0005453507
0.011750625
-0.00047460953
0.011921204
-0.00037996871
0.012042001
-0.00028294177
0.012122638
-0.00019973241
0.01217308
-0.00013385138
0.012201888
-8.3948879e-05
0.012216435
-4.8636525e-05
0.012222556
-2.5755546e-05
0.012224262
-1.2181329e-05
0.012223946
-4.7301693e-06
0.012222971
-1.0838766e-06
0.012221855
5.7629587e-07
0.012220955
1.0230621e-06
0.012220304
9.7705164e-07
0.012219872
7.633733e-07
0.012219602
5.346862e-07
0.012219442
3.4763548e-07
0.012219352
2.1326161e-07
0.012219304
1.2451386e-07
0.012219278
6.9464684e-08
0.012219266
3.7077377e-08
0.012219261
1.8862496e-08
0.012219258
9.0721292e-09
0.012219257
4.0166561e-09
0.012219257
1.5526194e-09
0.012219257
3.994888e-10
0.012219257
-9.329457e-11
0.012219257
-2.8846379e-10
0.012219257
-3.1561108e-10
0.012219257
-3.0647813e-10
0.012219257
-2.5606381e-10
0.012219257
-2.236751e-10
0.012219257
-1.7377844e-10
0.012219257
-1.5128208e-10
0.012219257
-1.139402e-10
0.012219257
-1.0414967e-10
0.012219257
-7.8409118e-11
0.012219257
-7.7900241e-11
0.012219257
-5.8850353e-11
0.012219257
-6.2940892e-11
0.012219257
-4.7268019e-11
0.012219257
-5.3249382e-11
0.012219257
-3.8303403e-11
0.012219257
-4.4533787e-11
0.012219256
-3.009183e-11
0.012219256
-3.660123e-11
0.012219256
-2.2232307e-11
0.012219256
-2.8911712e-11
0.012219256
-1.5324329e-11
0.012219256
-2.2628442e-11
0.012219256
-9.5081512e-12
0.012219256
-1.7163562e-11
0.012219256
-4.9107164e-12
0.012219256
-1.3101681e-11
0.012219256
-1.1314503e-12
0.012219256
-9.293628e-12
0.012219256
2.0426765e-12
0.012219256
-6.1331156e-12
0.012219256
5.3218978e-12
0.012219256
-2.8628397e-12
0.012219256
8.6653981e-12
0.012219256
7.8781503e-14
0.012219256
1.1582486e-11
0.012219256
3.18813e-12
0.012219256
1.2219148e-11
0.012219256
5.9874847e-12
0.012219256
4.8012744e-12
0.012219256
1.5677061e-11
0.012219256
-3.1042451e-11
0.012219256
7.0031554e-11
0.012219256
-1.7747462e-10
0.012219256
3.3704336e-10
0.012219257
-7.5055993e-10
0.012219256
1.4136663e-09
0.012219257
-2.8030506e-09
0.012219255
5.0669732e-09
0.012219259
-9.1285569e-09
0.012219251
1.5165426e-08
0.012219264
-2.4603472e-08
0.012219245
3.5735181e-08
0.012219273
-4.9719515e-08
0.012219238
5.6286223e-08
0.012219276
-5.5942877e-08
0.012219253
1.9766893e-08
0.012219247
3.5693758e-08
0.012219322
-1.5603512e-07
0.012219185
2.5100123e-07
0.012219391
-3.2169846e-07
0.012219209
2.5564648e-07
0.012219235
5.4507925e-08
0.012219373
-2.5764106e-07
0.012219011
6.5100122e-07
0.012219066
3.3178734e-08
5.7695157e-07
0.010188447
-0.00035276084
0.010530068
-0.0007876913
0.010849081
-0.00091052518
0.011115044
-0.00087755871
0.011331698
-0.00080458499
0.011493444
-0.00070709826
0.011596322
-0.00057748796
0.011648095
-0.00043174157
0.011664782
-0.00029962852
0.011661454
-0.00019640395
0.011648389
-0.00012078513
0.011632262
-6.7821648e-05
0.011617246
-3.3619762e-05
0.011605306
-1.3815585e-05
0.011596901
-3.776632e-06
0.011591324
8.4657709e-07
0.011587906
2.3344838e-06
0.011586022
2.4598637e-06
0.011585036
2.0089906e-06
0.01158457
1.4436005e-06
0.011584378
9.553349e-07
0.011584318
5.9445867e-07
0.011584315
3.5128046e-07
0.01158433
1.9802518e-07
0.011584348
1.0661033e-07
0.011584363
5.4698287e-08
0.011584374
2.6568321e-08
0.01158438
1.2037449e-08
0.011584385
4.8821686e-09
0.011584387
1.5908117e-09
0.011584388
2.2729444e-10
0.011584389
-2.8458088e-10
0.01158439
-4.1119646e-10
0.01158439
-3.8654828e-10
0.01158439
-3.177984e-10
0.01158439
-2.4381804e-10
0.01158439
-1.8092998e-10
0.011584389
-1.2991625e-10
0.011584389
-9.1944766e-11
0.011584389
-6.24955e-11
0.011584389
-4.2377053e-11
0.011584389
-2.8137928e-11
0.011584389
-1.9805946e-11
0.011584389
-1.3716658e-11
0.011584389
-1.0946688e-11
0.011584389
-9.135193e-12
0.011584389
-9.1871711e-12
0.011584389
-8.2412798e-12
0.011584389
-8.3586819e-12
0.011584389
-7.7482074e-12
0.011584389
-8.1987037e-12
0.011584389
-6.9721237e-12
0.011584389
-6.8022401e-12
0.011584389
-5.8128244e-12
0.011584389
-6.0050988e-12
0.011584389
-4.6363231e-12
0.011584389
-4.3199838e-12
0.011584389
-3.3317069e-12
0.011584389
-3.4217004e-12
0.011584389
-2.0933896e-12
0.011584389
-1.6487649e-12
0.011584389
-6.0420111e-13
0.011584389
-4.8939571e-13
0.011584389
1.0072962e-12
0.011584389
1.4073109e-12
0.011584389
2.804682e-12
0.011584389
2.6711077e-12
0.011584389
4.3176644e-12
0.011584389
4.2034539e-12
0.011584389
5.4729952e-12
0.011584389
2.8438243e-12
0.011584389
6.9247448e-12
0.011584389
-5.083673e-12
0.011584389
1.7280734e-11
0.011584389
-4.1517424e-11
0.011584389
7.9536262e-11
0.011584389
-1.9522953e-10
0.011584389
3.8395459e-10
0.011584389
-8.358739e-10
0.011584389
1.6400409e-09
0.011584389
-3.2669789e-09
0.011584388
6.1018689e-09
0.01158439
-1.1261375e-08
0.011584386
1.9391856e-08
0.011584394
-3.2664283e-08
0.011584379
5.0125863e-08
0.011584404
-7.3921485e-08
0.011584366
9.3762544e-08
0.011584418
-1.0784102e-07
0.011584358
8.0350236e-08
0.011584409
-1.6112799e-08
0.011584406
-1.5313835e-07
0.011584332
3.2540326e-07
0.011584559
-5.4893058e-07
0.011584292
5.2253161e-07
0.011584574
-2.271165e-07
0.011584544
-2.2796368e-07
0.011584248
9.469329e-07
0.011584551
-2.6991395e-07
8.1605719e-07
0.010340178
-0.00069293522
0.010574184
-0.0010216953
0.010610891
-0.00094723165
0.010553852
-0.00082052071
0.01043778
-0.00068851485
0.0102759
-0.00054522048
0.010095039
-0.00039662806
0.0099250023
-0.00026170478
0.0097838608
-0.00015848648
0.0096765841
-8.9126384e-05
0.0096008866
-4.5086604e-05
0.0095516093
-1.854367e-05
0.0095224283
-4.4383912e-06
0.0095064658
2.146983e-06
0.0094987991
3.8899409e-06
0.0094958521
3.7933186e-06
0.009495195
2.9914266e-06
0.0094955435
2.1112904e-06
0.0094961768
1.3756447e-06
0.0094967803
8.4023056e-07
0.00949725
4.8579555e-07
0.0094975775
2.6705813e-07
0.0094977895
1.3944253e-07
0.0094979189
6.8689423e-08
0.0094979942
3.1414571e-08
0.0094980361
1.287584e-08
0.0094980584
4.2768471e-09
0.0094980697
7.2169011e-10
0.0094980752
-6.2169531e-10
0.0094980778
-9.0338232e-10
0.0094980788
-7.9583507e-10
0.0094980791
-5.9918912e-10
0.0094980792
-4.2637724e-10
0.0094980791
-2.8239044e-10
0.009498079
-1.8799036e-10
0.0094980788
-1.140797e-10
0.0094980787
-7.3797239e-11
0.0094980787
-3.8262521e-11
0.0094980786
-2.3464651e-11
0.0094980786
-5.1230526e-12
0.0094980785
-2.3968199e-12
0.0094980785
6.9260744e-12
0.0094980785
3.9438664e-12
0.0094980785
1.0081162e-11
0.0094980785
4.4930614e-12
0.0094980784
8.8785418e-12
0.0094980784
2.7180225e-12
0.0094980784
7.2087062e-12
0.0094980784
9.7863728e-13
0.0094980784
5.3121938e-12
0.0094980784
-5.6352232e-13
0.0094980784
4.38432e-12
0.0094980784
-1.2809633e-12
0.0094980784
3.3722868e-12
0.0094980784
-2.0949562e-12
0.0094980784
3.2446097e-12
0.0094980784
-2.2206833e-12
0.0094980784
2.8622126e-12
0.0094980783
-2.433635e-12
0.0094980783
3.19475e-12
0.0094980783
-1.9940125e-12
0.0094980783
3.1956585e-12
0.0094980783
-1.7839201e-12
0.0094980783
3.8315421e-12
0.0094980783
-1.2492514e-12
0.0094980784
3.9409832e-12
0.0094980783
-1.1682267e-12
0.0094980784
4.43287e-12
0.0094980784
-1.2034074e-12
0.0094980784
4.0150877e-12
0.0094980784
-2.6861064e-12
0.0094980784
4.4073512e-12
0.0094980784
-6.9545691e-12
0.0094980784
1.0052012e-11
0.0094980783
-2.5379697e-11
0.0094980784
4.7510664e-11
0.0094980783
-1.0881695e-10
0.0094980785
2.2792074e-10
0.0094980781
-4.8042869e-10
0.0094980788
9.8649363e-10
0.0094980775
-1.9822111e-09
0.0094980798
3.8018855e-09
0.0094980757
-7.2267989e-09
0.0094980822
1.2802701e-08
0.0094980719
-2.2402592e-08
0.009498086
3.5953901e-08
0.009498068
-5.5850829e-08
0.0094980849
7.6978126e-08
0.0094980755
-9.8311682e-08
0.0094980588
9.7143734e-08
0.0094981113
-6.8746743e-08
0.009498002
-4.3940807e-08
0.0094981429
1.8430292e-07
0.0094980253
-4.31363e-07
0.009498047
5.0077628e-07
0.0094983762
-5.5621764e-07
0.0094980614
8.6899016e-08
0.0094984751
5.3318528e-07
0.0094985881
-3.8286721e-07
9.5220444e-07
0.0093070663
0.0082853718
0.0073381398
0.0065176181
0.0058291022
0.0052838808
0.0048872524
0.0046255478
0.0044670617
0.0043779359
0.0043328497
0.0043143063
0.004309868
0.004312015
0.0043159048
0.004319698
0.0043226893
0.0043248006
0.0043261762
0.0043270165
0.0043275024
0.0043277695
0.004327909
0.0043279778
0.0043280092
0.0043280221
0.0043280264
0.0043280271
0.0043280265
0.0043280256
0.0043280248
0.0043280242
0.0043280238
0.0043280235
0.0043280233
0.0043280232
0.0043280232
0.0043280231
0.0043280231
0.0043280231
0.0043280231
0.0043280231
0.0043280231
0.0043280231
0.0043280232
0.0043280232
0.0043280232
0.0043280232
0.0043280232
0.0043280232
0.0043280232
0.0043280232
0.0043280232
0.0043280232
0.0043280232
0.0043280232
0.0043280232
0.0043280232
0.0043280232
0.0043280232
0.0043280232
0.0043280232
0.0043280232
0.0043280232
0.0043280232
0.0043280232
0.0043280232
0.0043280232
0.0043280232
0.0043280232
0.0043280232
0.0043280232
0.0043280232
0.0043280232
0.0043280232
0.0043280232
0.0043280231
0.0043280234
0.0043280229
0.0043280239
0.0043280219
0.0043280257
0.0043280184
0.0043280312
0.0043280088
0.0043280447
0.0043279889
0.004328066
0.0043279677
0.0043280648
0.004327996
0.004327952
0.0043281362
0.0043277048
0.0043282057
0.0043276495
0.0043277364
0.0043282696
0.0043278867
)
;

boundaryField
{
    top
    {
        type            calculated;
        value           uniform 0;
    }
    inlet
    {
        type            calculated;
        value           nonuniform List<scalar> 10(-0.01 -0.01 -0.01 -0.01 -0.01 -0.01 -0.01 -0.01 -0.01 -0.01);
    }
    outlet
    {
        type            calculated;
        value           nonuniform List<scalar> 10(0.0043288391 0.0094984522 0.011584312 0.012218796 0.012369606 0.012369606 0.012218796 0.011584312 0.0094984519 0.0043288389);
    }
    bottom
    {
        type            calculated;
        value           uniform 0;
    }
    back
    {
        type            empty;
        value           nonuniform List<scalar> 0();
    }
    front
    {
        type            empty;
        value           nonuniform List<scalar> 0();
    }
}


// ************************************************************************* //
