/*--------------------------------*- C++ -*----------------------------------*\
  =========                 |
  \\      /  F ield         | OpenFOAM: The Open Source CFD Toolbox
   \\    /   O peration     | Website:  https://openfoam.org
    \\  /    A nd           | Version:  9
     \\/     M anipulation  |
\*---------------------------------------------------------------------------*/
FoamFile
{
    format      ascii;
    class       volScalarField;
    location    "0.16";
    object      alpha.phase1;
}
// * * * * * * * * * * * * * * * * * * * * * * * * * * * * * * * * * * * * * //

dimensions      [0 0 0 0 0 0 0];

internalField   nonuniform List<scalar> 
10000
(
2.5497492e-114
2.6306665e-114
2.1660586e-111
7.5964031e-109
2.0675619e-106
4.5846126e-104
8.5568299e-102
1.3762546e-99
1.9415417e-97
2.4358875e-95
2.7480731e-93
2.8131904e-91
2.6331032e-89
2.26803e-87
1.8079876e-85
1.3405757e-83
9.2877108e-82
6.0376007e-80
3.6971803e-78
2.1407634e-76
1.1764096e-74
6.1578927e-73
3.0818497e-71
1.4804077e-69
6.8530396e-68
3.0691055e-66
1.338735e-64
5.7762208e-63
2.51176e-61
1.1162989e-59
5.0047765e-58
2.1606677e-56
8.6617164e-55
3.1843093e-53
1.0669358e-51
3.230667e-50
8.7494907e-49
2.0954316e-47
4.3813686e-46
7.8540571e-45
1.178541e-43
1.4590062e-42
1.4985078e-41
1.2725582e-40
8.5260145e-40
4.3781253e-39
1.8036241e-38
6.071994e-38
1.583905e-37
3.1482348e-37
3.130211e-37
1.5676037e-37
5.8877646e-38
1.6940237e-38
3.7987293e-39
6.3468615e-40
6.5784423e-41
3.3962198e-42
7.5664758e-44
6.6664856e-46
3.7130882e-48
4.0628132e-51
3.0914393e-54
1.0176603e-57
2.0445324e-59
4.6215839e-60
4.7830668e-62
1.0139498e-62
1.0137442e-62
9.9090853e-63
5.1688059e-63
7.4426119e-64
2.1199689e-65
2.536763e-67
4.9429642e-69
1.192379e-70
2.7845672e-72
6.1228197e-74
1.2770157e-75
2.5293666e-77
4.7463101e-79
8.4139634e-81
1.4050272e-82
2.2031795e-84
3.2330935e-86
4.4234569e-88
5.6190819e-90
6.5959927e-92
7.1165874e-94
7.0133607e-96
6.2665681e-98
5.0317414e-100
3.591383e-102
2.2476064e-104
1.2119013e-106
5.4998442e-109
2.0335609e-111
5.8366353e-114
7.2550591e-117
6.9276843e-117
2.5497492e-114
2.0533455e-112
1.511733e-109
7.145939e-107
2.3000929e-104
5.6967456e-102
1.1521168e-99
1.9723794e-97
2.9289073e-95
3.8400744e-93
4.5058662e-91
4.7825244e-89
4.6323226e-87
4.1244734e-85
3.3970583e-83
2.6025084e-81
1.8635752e-79
1.2528023e-77
7.9393002e-76
4.7611536e-74
2.7119037e-72
1.4724014e-70
7.6479934e-69
3.814386e-67
1.833274e-65
8.5266155e-64
3.8709837e-62
1.7342244e-60
7.7766697e-59
3.533164e-57
1.6093815e-55
7.0509006e-54
2.8646072e-52
1.0647721e-50
3.597109e-49
1.0953959e-47
2.9775676e-46
7.1406305e-45
1.4895428e-43
2.6571803e-42
3.9736834e-41
4.8951501e-40
4.9146641e-39
3.9500259e-38
2.374038e-37
9.478651e-37
2.3990122e-36
4.4854359e-36
8.2714288e-36
1.2724807e-35
1.2716883e-35
8.2654695e-36
4.4873062e-36
2.3441184e-36
8.9730886e-37
1.9774759e-37
2.1798949e-38
1.1886166e-39
2.8970359e-41
3.2505855e-43
1.4980953e-45
1.854416e-48
7.9708773e-52
3.1160918e-55
1.0624257e-57
2.0027346e-59
1.5659071e-61
1.0354289e-62
1.1352599e-62
3.4002014e-62
7.0042917e-61
3.056288e-61
2.1278521e-62
2.3032869e-64
2.0190872e-66
3.8343528e-68
8.3777679e-70
1.7524403e-71
3.4774642e-73
6.5794453e-75
1.1839789e-76
2.0183871e-78
3.247942e-80
4.9159767e-82
6.9718614e-84
9.2262364e-86
1.1340321e-87
1.2878362e-89
1.3430325e-91
1.2770707e-93
1.0977111e-95
8.4398992e-98
5.7270033e-100
3.3698033e-102
1.678211e-104
6.8244617e-107
2.1354926e-109
4.5863383e-112
6.7396149e-115
6.9276843e-117
7.8580211e-113
2.7651812e-110
2.0929866e-107
9.4065064e-105
3.2422055e-102
8.7683258e-100
1.8743276e-97
3.3376266e-95
5.1086356e-93
6.8656433e-91
8.228032e-89
8.897912e-87
8.7660779e-85
7.9290089e-83
6.6280876e-81
5.1499245e-79
3.7378369e-77
2.5456105e-75
1.6334482e-73
9.9136802e-72
5.7116252e-70
3.1348572e-68
1.6448185e-66
8.2799821e-65
4.0132461e-63
1.8820814e-61
8.621323e-60
3.8955142e-58
1.755671e-56
7.9841206e-55
3.6428795e-53
1.6065868e-51
6.5595598e-50
2.4408306e-48
8.2288398e-47
2.493511e-45
6.7258907e-44
1.5966992e-42
3.2905043e-41
5.7879859e-40
8.521583e-39
1.0322361e-37
1.0182919e-36
8.0534901e-36
4.8031194e-35
1.9355061e-34
5.0188453e-34
9.5718542e-34
1.7623639e-33
2.8205362e-33
2.8182097e-33
1.7605804e-33
9.5661016e-34
4.9055306e-34
1.8361129e-34
4.0380182e-35
4.6013861e-36
2.7056517e-37
7.4886436e-39
9.9122864e-41
5.5335175e-43
1.0022291e-45
7.8273149e-49
5.1426048e-52
2.1239039e-54
6.4957778e-56
3.0632219e-58
2.5767829e-61
1.338635e-59
5.0437446e-58
4.8929104e-58
9.2854686e-59
2.5198582e-60
2.3976482e-62
3.8918773e-64
8.5869562e-66
1.9017488e-67
3.9822596e-69
7.8997649e-71
1.4895071e-72
2.6643847e-74
4.5073133e-76
7.1880738e-78
1.0770285e-79
1.5105978e-81
1.9751312e-83
2.3962332e-85
2.682776e-87
2.754297e-89
2.5735215e-91
2.168037e-93
1.627628e-95
1.0723027e-97
6.0695389e-100
2.8612345e-102
1.0656299e-104
3.3270195e-107
7.7948371e-110
1.0881733e-112
2.762613e-115
1.6327272e-110
2.8663435e-108
2.6119837e-105
1.2117593e-102
3.9291909e-100
1.019794e-97
2.3135176e-95
4.3641777e-93
6.9613857e-91
9.661024e-89
1.1888342e-86
1.3152138e-84
1.3221314e-82
1.2180427e-80
1.0356924e-78
8.1767363e-77
6.0250246e-75
4.1625345e-73
2.7076509e-71
1.6646762e-69
9.7081337e-68
5.3894583e-66
2.857572e-64
1.4523461e-62
7.0997101e-61
3.3572087e-59
1.5505768e-57
7.0587837e-56
3.195841e-54
1.4536116e-52
6.620123e-51
2.9197992e-49
1.1933944e-47
4.4366473e-46
1.4895808e-44
4.4823454e-43
1.1975543e-41
2.8095401e-40
5.7102409e-39
9.8869941e-38
1.4300316e-36
1.6980996e-35
1.6400688e-34
1.2715341e-33
7.4844929e-33
3.013297e-32
7.8781985e-32
1.506562e-31
2.7400377e-31
4.4708179e-31
4.4669811e-31
2.7371833e-31
1.5050787e-31
7.70553e-32
2.8651978e-32
6.3514708e-33
7.5156975e-34
4.7729434e-35
1.5013723e-36
2.3306017e-38
1.4941363e-40
4.2978915e-43
6.2214278e-46
1.2567275e-48
1.3988815e-50
3.5886096e-52
1.3169344e-54
9.4422103e-58
6.317549e-57
2.5516898e-55
1.7444088e-55
2.3348849e-56
4.5516596e-58
4.209609e-60
7.5262606e-62
1.6839308e-63
3.6894973e-65
7.6421076e-67
1.5020343e-68
2.8045444e-70
4.9635636e-72
8.3010499e-74
1.3076756e-75
1.933959e-77
2.6750857e-79
3.4461191e-81
4.1144432e-83
4.5268766e-85
4.5586113e-87
4.1667642e-89
3.4209764e-91
2.488544e-93
1.5739851e-95
8.4126499e-98
3.7252361e-100
1.5637332e-102
5.1050531e-105
1.1429897e-107
1.3904098e-110
6.3077383e-113
2.7566731e-108
2.1924982e-106
2.7190176e-103
1.3530613e-100
4.5452115e-98
1.1714976e-95
2.4619999e-93
4.5438992e-91
7.7049147e-89
1.1169948e-86
1.4221936e-84
1.6185001e-82
1.6672327e-80
1.5697042e-78
1.3612896e-76
1.0944377e-74
8.2019193e-73
5.7568047e-71
3.8004876e-69
2.3689942e-67
1.3992542e-65
7.858535e-64
4.2105303e-62
2.1595692e-60
1.0640632e-58
5.0668785e-57
2.3547096e-55
1.0775203e-53
4.8903701e-52
2.2201632e-50
1.0062254e-48
4.4223064e-47
1.8033903e-45
6.6771978e-44
2.2267765e-42
6.6383652e-41
1.7529724e-39
4.056333e-38
8.1166736e-37
1.3809276e-35
1.9581166e-34
2.2736706e-33
2.143158e-32
1.6228132e-31
9.3871231e-31
3.7533026e-30
9.8168442e-30
1.8705978e-29
3.3540288e-29
5.5334196e-29
5.528491e-29
3.3504867e-29
1.8681023e-29
9.6070368e-30
3.5761332e-30
8.03549e-31
9.8888651e-32
6.8018473e-33
2.425636e-34
4.34848e-36
3.4497115e-38
1.3154314e-40
3.9425929e-43
2.508609e-45
2.0163671e-47
2.8625658e-49
2.2991178e-51
1.7379208e-54
1.4127201e-54
6.2518137e-53
4.403209e-53
5.693316e-54
9.1220216e-56
7.2559181e-58
1.2919426e-59
2.8733495e-61
6.1997145e-63
1.2668153e-64
2.4620621e-66
4.5461996e-68
7.950537e-70
1.3126902e-71
2.0397744e-73
2.9727342e-75
4.0475519e-77
5.1258909e-79
6.0067651e-81
6.4732628e-83
6.3671324e-85
5.6620607e-87
4.4956648e-89
3.1322971e-91
1.864174e-93
1.0167763e-95
5.3083672e-98
2.1930813e-100
6.733251e-103
1.425158e-105
1.4261813e-108
1.1824695e-110
3.9120418e-106
9.2698397e-105
2.3879457e-101
1.3045376e-98
4.550189e-96
1.2046416e-93
2.582347e-91
4.5677788e-89
7.1145372e-87
1.0764637e-84
1.4362058e-82
1.6953399e-80
1.8002138e-78
1.7399768e-76
1.5445716e-74
1.2682937e-72
9.6902811e-71
6.9235685e-69
4.6461612e-67
2.9398989e-65
1.7602449e-63
1.0006736e-61
5.4186955e-60
2.8040849e-58
1.391794e-56
6.6671815e-55
3.1135104e-53
1.4294231e-51
6.4888602e-50
2.9319367e-48
1.3172735e-46
5.7444657e-45
2.3304443e-43
8.5710218e-42
2.8315349e-40
8.3417358e-39
2.1720552e-37
4.946984e-36
9.7268156e-35
1.6230769e-33
2.251549e-32
2.5495899e-31
2.3376977e-30
1.7225285e-29
9.7520282e-29
3.8537312e-28
1.0027478e-27
1.8956167e-27
3.3460933e-27
5.5515111e-27
5.5463716e-27
3.3425374e-27
1.8924592e-27
9.8182242e-28
3.6788286e-28
8.413882e-29
1.0784901e-29
8.0532387e-31
3.2563448e-32
6.6485574e-34
6.4778642e-36
3.1504383e-38
1.3651986e-40
1.4339122e-42
3.2138825e-44
2.739564e-46
1.6746098e-48
1.795334e-51
1.4950938e-53
2.3024099e-51
8.1103121e-51
1.0812694e-51
1.5181759e-53
1.1311349e-55
2.0105112e-57
4.4124605e-59
9.3702198e-61
1.8872164e-62
3.619073e-64
6.5923329e-66
1.1363785e-67
1.8476578e-69
2.8243766e-71
4.0444223e-73
5.403194e-75
6.702637e-77
7.6769586e-79
8.0625833e-81
7.6965606e-83
6.6005948e-85
5.0030367e-87
3.3113253e-89
2.1500999e-91
1.3467356e-93
6.7506243e-96
2.6239004e-98
7.7887243e-101
1.5419224e-103
1.092024e-106
1.8864549e-108
4.7749382e-104
8.446149e-104
1.7352881e-99
1.0889519e-96
3.9919726e-94
1.0834985e-91
2.3774791e-89
4.3817267e-87
6.7905597e-85
9.2340515e-83
1.2266446e-80
1.5231579e-78
1.6824417e-76
1.6802455e-74
1.5342829e-72
1.2917362e-70
1.0093585e-68
7.359962e-67
5.0306923e-65
3.2362498e-63
1.9664536e-61
1.1323763e-59
6.1993916e-58
3.2366507e-56
1.617606e-54
7.7874627e-53
3.6496103e-51
1.6784039e-49
7.6050563e-48
3.4117247e-46
1.5149019e-44
6.5317687e-43
2.6279704e-41
9.5736996e-40
3.124071e-38
9.0703253e-37
2.3232439e-35
5.1968085e-34
1.0021255e-32
1.6371747e-31
2.2173574e-30
2.4422299e-29
2.1707051e-28
1.5504599e-27
8.5584344e-27
3.3295759e-26
8.582635e-26
1.6044618e-25
2.7852877e-25
4.6281542e-25
4.6237081e-25
2.7823057e-25
1.6012717e-25
8.4074151e-26
3.1838184e-26
7.4359176e-27
9.9454008e-28
8.0755095e-29
3.6845239e-30
8.43154e-32
9.6745823e-34
6.1074063e-36
3.6052473e-38
5.6292755e-40
1.62016e-41
1.7005087e-43
8.9606738e-46
1.393351e-48
2.2647087e-51
3.3543784e-50
1.2673962e-48
1.4970588e-49
1.5902977e-51
1.3404435e-53
2.642715e-55
5.8689069e-57
1.2431018e-58
2.4918681e-60
4.7413918e-62
8.5449646e-64
1.45386e-65
2.3283929e-67
3.4986258e-69
4.9142974e-71
6.4255506e-73
7.7805933e-75
8.6696188e-77
8.8169093e-79
8.0942736e-81
6.6004547e-83
4.993875e-85
3.7200434e-87
2.6375332e-89
1.5590153e-91
7.3659189e-94
2.7879115e-96
7.9673882e-99
1.4310383e-101
4.0444231e-105
2.6466369e-106
5.0788815e-102
6.6981919e-102
1.0260109e-97
7.8325192e-95
3.0713099e-92
8.6323204e-90
1.9326314e-87
3.6393192e-85
5.9094467e-83
8.1996953e-81
9.974765e-79
1.1823602e-76
1.3624511e-74
1.4203642e-72
1.3437789e-70
1.1662392e-68
9.3593636e-67
6.9881063e-65
4.8783876e-63
3.1974819e-61
1.9749679e-59
1.1533162e-57
6.3877786e-56
3.3654963e-54
1.6933246e-52
8.1876442e-51
3.8467768e-49
1.7700566e-47
7.9947648e-46
3.5538793e-44
1.5548613e-42
6.6009799e-41
2.6240436e-39
9.4391933e-38
3.0335266e-36
8.6549716e-35
2.1749448e-33
4.7675569e-32
9.0004735e-31
1.4372535e-29
1.8970084e-28
2.0268312e-27
1.740063e-26
1.1997429e-25
6.4314688e-25
2.4551027e-24
6.2479819e-24
1.1517023e-23
1.9639628e-23
3.2562598e-23
3.2530496e-23
1.9618484e-23
1.1490513e-23
6.1226049e-24
2.3509214e-24
5.6231003e-25
7.867752e-26
6.9378878e-27
3.5280897e-28
8.937979e-30
1.1990495e-31
1.0121546e-33
8.1758272e-36
2.0145632e-37
6.1857807e-39
1.0026795e-40
3.9699083e-43
8.4842302e-46
2.1603674e-48
6.3107051e-48
2.5514493e-46
2.289577e-47
1.553584e-49
1.5287918e-51
3.2681205e-53
7.2374654e-55
1.5191352e-56
3.021702e-58
5.6912464e-60
1.0124229e-61
1.6960795e-63
2.6681062e-65
3.928338e-67
5.3926259e-69
6.8699398e-71
8.0745119e-73
8.6877045e-75
8.4675859e-77
7.3694988e-79
6.2687337e-81
5.2805332e-83
4.172327e-85
2.8321046e-87
1.5719374e-89
7.1856276e-92
2.6430777e-94
7.1659626e-97
1.1166108e-99
5.3560755e-104
3.29457e-104
4.7435591e-100
5.1542491e-100
3.9148434e-96
4.8392037e-93
2.0817029e-90
6.124708e-88
1.4112761e-85
2.7072445e-83
4.4894166e-81
6.5377019e-79
8.2439103e-77
9.1873595e-75
9.9336033e-73
1.0552563e-70
1.0461728e-68
9.4331633e-67
7.8198558e-65
6.0049093e-63
4.2960785e-61
2.8765904e-59
1.8096866e-57
1.0732493e-55
6.0191054e-54
3.201589e-52
1.6215141e-50
7.8702619e-49
3.7034544e-47
1.7029915e-45
7.6571789e-44
3.3668192e-42
1.4465808e-40
6.0151654e-39
2.3478053e-37
8.3056647e-36
2.620633e-34
7.3246267e-33
1.8006092e-31
3.8585706e-30
7.1182739e-29
1.109445e-27
1.4248619e-26
1.4730522e-25
1.2166548e-24
8.057242e-24
4.1752528e-23
1.5578319e-22
3.8965056e-22
7.0463867e-22
1.1769533e-21
1.944117e-21
1.9421604e-21
1.1757748e-21
7.0280042e-22
3.81921e-22
1.493576e-22
3.6707251e-23
5.3932517e-24
5.1725699e-25
2.9101267e-26
8.0999715e-28
1.2753636e-29
1.4805364e-31
1.6520999e-33
6.0101679e-35
1.7390168e-36
3.4081645e-38
1.4736672e-40
4.5600242e-43
1.6031887e-45
1.0497925e-45
4.4046351e-44
2.9250155e-45
1.3919462e-47
1.7213625e-49
3.8087858e-51
8.3319897e-53
1.7266774e-54
3.3920813e-56
6.2978565e-58
1.1017854e-59
1.8109065e-61
2.7876373e-63
4.0048516e-65
5.3462859e-67
6.5952121e-69
7.4623554e-71
7.6628027e-73
7.2975546e-75
6.8404769e-77
6.2835525e-79
5.4340539e-81
4.1563955e-83
2.6435739e-85
1.4079785e-87
6.2701723e-90
2.2205005e-92
5.6063574e-95
7.2396624e-98
4.7125064e-102
3.6645323e-102
3.9662145e-98
3.6896819e-98
7.263474e-96
2.4546054e-91
1.2116197e-88
3.7823199e-86
9.0479725e-84
1.7828273e-81
3.0117126e-79
4.4858533e-77
5.9587288e-75
6.9660481e-73
7.2513999e-71
7.2226643e-69
7.1235077e-67
6.7493484e-65
5.8309564e-63
4.6357005e-61
3.4160867e-59
2.3461385e-57
1.5079778e-55
9.1043803e-54
5.1796761e-52
2.7850864e-50
1.4210852e-48
6.9260381e-47
3.264166e-45
1.4999721e-43
6.7142573e-42
2.9197601e-40
1.2303108e-38
4.9909024e-37
1.9031793e-35
6.5948322e-34
2.0347825e-32
5.5484867e-31
1.3293214e-29
2.7767262e-28
4.9964357e-27
7.591299e-26
9.4708973e-25
9.4492036e-24
7.4752187e-23
4.7224187e-22
2.3483807e-21
8.5291399e-21
2.0884239e-20
3.685858e-20
6.0186416e-20
9.9704417e-20
9.9596815e-20
6.0136682e-20
3.6749093e-20
2.0470845e-20
8.1860409e-21
2.0743759e-21
3.223836e-22
3.3794784e-23
2.0942528e-24
6.3743559e-26
1.1991099e-27
2.088312e-29
3.0821826e-31
1.3625933e-32
3.9535661e-34
8.9068025e-36
4.8580603e-38
2.1082685e-40
9.0012856e-43
1.1903462e-43
5.1689317e-42
4.0200586e-43
1.3613332e-45
1.779844e-47
4.0416686e-49
8.8060605e-51
1.8053643e-52
3.5002315e-54
6.3962619e-56
1.0980599e-57
1.7653192e-59
2.6486266e-61
3.6938152e-63
4.7629151e-65
5.63761e-67
6.058199e-69
6.2435062e-71
6.3985919e-73
6.3527531e-75
5.9432011e-77
5.0117707e-79
3.5704245e-81
2.1597913e-83
1.1206012e-85
4.8353158e-88
1.628672e-90
3.7246117e-93
2.8152895e-96
3.7958987e-100
3.6574647e-100
2.9142673e-96
2.7114071e-96
1.7364776e-94
9.9439614e-90
5.8868728e-87
1.9954415e-84
5.0077024e-82
1.0216638e-79
1.7739156e-77
2.698035e-75
3.6737862e-73
4.5198044e-71
4.9706729e-69
4.9228057e-67
4.6348202e-65
4.2937726e-63
3.848878e-61
3.1992051e-59
2.4456649e-57
1.7320558e-55
1.1422638e-53
7.0435617e-52
4.0751207e-50
2.2191188e-48
1.1422698e-46
5.595566e-45
2.6439379e-43
1.2158172e-41
5.4304349e-40
2.3402049e-38
9.68091e-37
3.8243491e-35
1.4178695e-33
4.7865818e-32
1.4364316e-30
3.7992788e-29
8.8235162e-28
1.7892299e-26
3.13132e-25
4.6289147e-24
5.6013889e-23
5.3774126e-22
4.0531428e-21
2.4226916e-20
1.1461276e-19
4.0787808e-19
1.0009248e-18
1.7751389e-18
2.8869536e-18
4.7812358e-18
4.7747902e-18
2.8834713e-18
1.7679084e-18
9.8089633e-19
3.9173642e-19
1.015923e-19
1.6864197e-20
1.9477425e-21
1.3257526e-22
4.4148304e-24
1.0255971e-25
2.785724e-27
5.0360607e-29
2.5412813e-30
7.576468e-32
1.9436046e-33
1.6106768e-35
8.446039e-38
4.1875951e-40
5.6784336e-42
9.3726957e-41
8.1814332e-42
1.0777963e-43
1.6952093e-45
3.840992e-47
8.4061034e-49
1.7140247e-50
3.2877196e-52
5.9166338e-54
9.9562118e-56
1.5614785e-57
2.2738624e-59
3.0589293e-61
3.7742553e-63
4.2891617e-65
4.7302943e-67
5.176192e-69
5.476921e-71
5.4912079e-73
5.0293969e-75
3.943566e-77
2.655372e-79
1.5617935e-81
7.8686832e-84
3.2541353e-86
1.0263033e-88
2.0285224e-91
4.5233243e-96
2.9247384e-98
3.2458467e-98
1.8637267e-94
1.6764267e-94
2.6302942e-93
1.9513233e-88
2.2986802e-85
8.7914217e-83
2.3502461e-80
5.0077448e-78
9.0021443e-76
1.4101196e-73
1.9677127e-71
2.4895518e-69
2.880705e-67
3.0264685e-65
2.8890129e-63
2.6008514e-61
2.2892742e-59
1.9572708e-57
1.5682812e-55
1.1536501e-53
7.8487253e-52
4.964078e-50
2.9307335e-48
1.6209487e-46
8.4385334e-45
4.1654076e-43
1.9799852e-41
9.1600631e-40
4.1090416e-38
1.7674183e-36
7.2180874e-35
2.7767979e-33
9.9442264e-32
3.2396977e-30
9.3733003e-29
2.3834718e-27
5.3193642e-26
1.0400885e-24
1.764763e-23
2.5331805e-22
2.9655146e-21
2.7274024e-20
1.9508144e-19
1.1070648e-18
5.0403691e-18
1.8130115e-17
4.8513776e-17
9.6651889e-17
1.6315302e-16
2.4331383e-16
2.4285878e-16
1.6256546e-16
9.6000884e-17
4.7530523e-17
1.7419474e-17
4.4873504e-18
7.8698698e-19
9.9772884e-20
7.4492421e-21
2.7455308e-22
8.2470361e-24
3.366757e-25
7.1304799e-27
4.0247481e-28
1.2497657e-29
3.841428e-31
4.4860048e-33
2.9166633e-35
1.6795114e-37
9.6976367e-40
1.0957091e-41
2.0262407e-42
1.9842335e-42
3.0353421e-43
3.9781851e-45
7.7299746e-47
1.5518698e-48
2.9271226e-50
5.1499663e-52
8.4291589e-54
1.2787676e-55
1.7891967e-57
2.2916793e-59
2.7407784e-61
3.1949736e-63
3.669586e-65
4.0783201e-67
4.3310148e-69
4.2480504e-71
3.609143e-73
2.6592456e-75
1.7352559e-77
9.9064422e-80
4.7943432e-82
1.8771764e-84
5.4062039e-87
8.7845756e-90
1.3291657e-94
2.2498571e-96
2.5437449e-96
1.0237669e-92
9.0776797e-93
4.1403254e-92
1.7992649e-88
6.4759462e-84
3.167618e-81
9.269463e-79
2.0905867e-76
3.9240222e-74
6.3773136e-72
9.2004335e-70
1.1996365e-67
1.4348517e-65
1.5846891e-63
1.6039597e-61
1.4864701e-59
1.2992715e-57
1.1034693e-55
9.0683922e-54
6.9922726e-52
4.9410552e-50
3.2215823e-48
1.9485269e-46
1.09828e-44
5.8020138e-43
2.8978844e-41
1.3943642e-39
6.5591693e-38
2.9950977e-36
1.3016196e-34
5.2903553e-33
1.9837554e-31
6.8081197e-30
2.1100102e-28
5.8018787e-27
1.3983504e-25
2.9573531e-24
5.5145198e-23
9.0162825e-22
1.2522149e-20
1.4154025e-19
1.2471996e-18
8.511097e-18
4.7309412e-17
2.1759156e-16
7.6914304e-16
2.1489001e-15
4.5056588e-15
7.3717773e-15
9.2472023e-15
9.2289573e-15
7.3342174e-15
4.4730155e-15
2.1088126e-15
7.3894396e-16
1.9611408e-16
3.4581039e-17
4.6533987e-18
3.8014385e-19
1.5890107e-20
6.5258284e-22
3.6617507e-23
8.7000895e-25
5.4884189e-26
1.8040993e-27
6.5766594e-29
1.0598078e-30
9.1021341e-33
5.9205017e-35
4.5336681e-37
2.7974032e-39
1.0556306e-41
2.1546955e-42
8.2146642e-42
6.1947168e-43
7.7355903e-45
1.3022662e-46
2.4164641e-48
4.1526036e-50
6.5794797e-52
9.585423e-54
1.2744438e-55
1.5890716e-57
1.931801e-59
2.3007023e-61
2.6526913e-63
2.9461496e-65
3.0630299e-67
2.7882946e-69
2.2153305e-71
1.5748542e-73
9.9558066e-76
5.4575568e-78
2.5088011e-80
9.1367593e-83
2.3057675e-85
1.6237065e-88
2.0457746e-93
1.4919147e-94
1.7455691e-94
4.8715718e-91
4.0060345e-91
1.3199071e-90
1.1778625e-87
6.6585974e-83
7.9618252e-80
2.8077756e-77
6.9640724e-75
1.3920356e-72
2.3793002e-70
3.5914581e-68
4.8875272e-66
6.092112e-64
7.0358726e-62
7.572759e-60
7.5364541e-58
6.8864522e-56
5.903468e-54
4.8762112e-52
3.8519748e-50
2.8415481e-48
1.9227581e-46
1.1979519e-44
6.9174592e-43
3.7320174e-41
1.9045325e-39
9.4198795e-38
4.6070082e-36
2.192788e-34
9.8083674e-33
4.0057202e-31
1.4635783e-29
4.763506e-28
1.3799702e-26
3.5351439e-25
7.9072288e-24
1.5500342e-22
2.7066303e-21
4.2232278e-20
5.669901e-19
6.2664559e-18
5.3870905e-17
3.4504403e-16
1.7843617e-15
7.6311363e-15
2.166407e-14
4.6343253e-14
7.6787676e-14
1.1260544e-13
1.358794e-13
1.3570646e-13
1.1227849e-13
7.6432212e-14
4.546502e-14
2.0830785e-14
6.9476189e-15
1.3481597e-15
2.0374524e-16
1.8903499e-17
9.1751558e-19
5.2037464e-20
3.5173085e-21
9.1203456e-23
6.4926358e-24
2.316176e-25
1.0088317e-26
2.1860585e-28
2.5378776e-30
1.8702458e-32
1.7006193e-34
1.2378425e-36
4.3752395e-39
1.128648e-41
8.8989563e-42
6.0894452e-41
1.1816171e-42
1.0205015e-44
1.7939491e-46
3.0096409e-48
4.5975372e-50
6.3920097e-52
8.3140134e-54
1.0479842e-55
1.2860954e-57
1.5267155e-59
1.7558542e-61
1.9043482e-63
1.8270407e-65
1.5422887e-67
1.1755204e-69
8.0672345e-72
4.8829733e-74
2.5395852e-76
1.0925253e-78
3.584982e-81
6.6885963e-84
1.2807237e-88
3.9878107e-92
8.8300406e-93
1.0469916e-92
1.9606736e-89
1.9172071e-89
4.8424085e-88
4.695106e-85
8.058217e-82
8.2110474e-79
4.8684306e-76
1.5353704e-73
3.4898449e-71
6.5295876e-69
1.0640596e-66
1.5574319e-64
2.0852051e-62
2.5809404e-60
2.9723511e-58
3.1931729e-56
3.175493e-54
2.8988773e-52
2.4601666e-50
1.9788892e-48
1.5030278e-46
1.0602202e-44
6.8652723e-43
4.1023573e-41
2.2915198e-39
1.2209221e-37
6.4011297e-36
3.37478e-34
1.724417e-32
8.0594883e-31
3.3115676e-29
1.1697404e-27
3.5538714e-26
9.4196758e-25
2.199888e-23
4.450972e-22
7.8600654e-21
1.255185e-19
1.862777e-18
2.4717388e-17
2.7442736e-16
2.136584e-15
1.1373357e-14
4.2820621e-14
1.2793559e-13
2.6442243e-13
3.6553498e-13
4.2074357e-13
5.4487392e-13
7.0136747e-13
7.0104725e-13
5.453447e-13
4.1985263e-13
3.572534e-13
2.5439037e-13
1.1513867e-13
3.3287027e-14
7.4002305e-15
8.972553e-16
6.0025445e-17
4.2297716e-18
3.0245164e-19
8.2333263e-21
6.6831473e-22
2.7020898e-23
1.4227538e-24
3.9600928e-26
5.9475585e-28
5.2854175e-30
4.7144793e-32
3.6002138e-34
1.2065304e-36
3.9695242e-39
4.554424e-41
1.8091888e-39
9.5437685e-41
8.3131599e-43
1.2865253e-44
2.0751306e-46
3.0274351e-48
4.0942159e-50
5.2909909e-52
6.5930744e-54
7.92716e-56
9.2668134e-58
1.032818e-59
1.0293073e-61
9.0647886e-64
7.2538671e-66
5.2885188e-68
3.4411866e-70
1.955696e-72
9.3721335e-75
3.5696184e-77
9.21856e-80
5.4962407e-83
8.9603727e-88
1.3660879e-90
4.2097214e-91
5.378059e-91
6.4382332e-88
7.6863773e-88
1.0996145e-85
7.2868319e-83
3.6173265e-80
1.8917932e-77
6.4613673e-75
1.7192323e-72
4.4041854e-70
9.1949239e-68
1.7372918e-65
3.1397287e-63
4.9998847e-61
7.1877638e-59
9.426528e-57
1.1333461e-54
1.2500554e-52
1.2579985e-50
1.1518109e-48
9.6955844e-47
7.6137218e-45
5.582571e-43
3.7915504e-41
2.3844668e-39
1.412752e-37
8.1513163e-36
4.7267536e-34
2.7671667e-32
1.5344172e-30
7.4652557e-29
3.0520105e-27
1.0268956e-25
2.8583651e-24
6.7956104e-23
1.430957e-21
2.5569256e-20
3.9412222e-19
5.7044044e-18
8.2516169e-17
1.0520739e-15
9.7562791e-15
5.0956415e-14
2.2132664e-13
5.5637721e-13
9.4597552e-13
1.5884686e-12
1.5260192e-12
1.225216e-12
1.3210456e-12
1.7722332e-12
1.7750038e-12
1.3242408e-12
1.225364e-12
1.4792714e-12
1.5228965e-12
8.3944173e-13
4.4761267e-13
1.5971262e-13
2.341219e-14
2.6953546e-15
2.7526906e-16
2.5735282e-17
6.5859358e-19
6.0533474e-20
2.959676e-21
1.8628366e-22
6.3250728e-24
1.1991781e-25
1.3087997e-27
1.2204557e-29
7.7627188e-32
3.0703766e-34
1.3898967e-36
4.8948665e-39
1.8643279e-39
3.9254038e-39
9.9985305e-41
9.4106092e-43
1.4067343e-44
1.9727989e-46
2.5979203e-48
3.2525153e-50
3.8908181e-52
4.5057076e-54
5.0500225e-56
5.1267383e-58
4.578269e-60
3.7069602e-62
2.7539649e-64
1.843827e-66
1.0859766e-68
5.4372271e-71
2.1634857e-73
5.5313024e-76
7.3296403e-79
7.2644188e-82
4.8025141e-85
4.2576094e-88
2.2633663e-89
2.345542e-89
1.6941118e-86
2.3667468e-86
5.7905313e-84
3.6526736e-81
1.7533381e-78
6.5191912e-76
2.0715738e-73
5.651777e-71
1.2819239e-68
2.5145539e-66
4.3898855e-64
6.9580742e-62
1.0167064e-59
1.43542e-57
2.1440461e-55
3.239279e-53
4.302678e-51
4.9728491e-49
5.0930759e-47
4.6731048e-45
3.9046491e-43
3.0171138e-41
2.1715607e-39
1.4661359e-37
9.4878684e-36
6.1337234e-34
4.0198759e-32
2.5953919e-30
1.5248784e-28
7.5576138e-27
3.0306565e-25
9.6484434e-24
2.4359072e-22
5.0968897e-21
9.7195817e-20
1.5635254e-18
2.0314523e-17
2.6618464e-16
3.2710653e-15
2.8702091e-14
1.5473151e-13
6.635666e-13
2.4639753e-12
4.8932426e-12
4.8237395e-12
9.304045e-12
1.1725621e-11
8.6759354e-12
1.953008e-11
1.7576855e-11
1.9210425e-11
1.9212667e-11
1.0187871e-11
1.1279222e-11
8.7361313e-12
3.8736917e-12
4.2122249e-12
1.9902862e-12
3.1114161e-13
2.8844763e-14
7.596515e-15
1.1456369e-15
4.7130081e-17
5.2229728e-18
3.238271e-19
2.2221063e-20
8.9608685e-22
2.1081483e-23
2.7537581e-25
2.6388303e-27
1.9013734e-29
8.4198288e-32
3.3023865e-34
6.2120826e-37
9.7787568e-39
1.9755752e-37
9.699914e-39
7.7096589e-41
9.8853912e-43
1.3181126e-44
1.6451234e-46
1.9322121e-48
2.163524e-50
2.346732e-52
2.3204065e-54
1.9930622e-56
1.5219775e-58
1.0508984e-60
6.3943101e-63
3.2581762e-65
1.6513218e-67
7.0546663e-70
2.8788848e-72
1.0459174e-74
2.7926113e-77
5.4139198e-80
1.0763489e-82
1.6726536e-85
1.039321e-87
8.5754077e-88
3.4460344e-85
6.6226877e-85
2.7938397e-82
1.6915771e-79
7.7584953e-77
2.9171699e-74
9.0314641e-72
2.3447767e-69
5.2395872e-67
1.0459839e-64
1.8736739e-62
3.0374939e-60
4.5171668e-58
6.2518335e-56
8.2309841e-54
1.0753629e-51
1.4056682e-49
1.8525409e-47
2.2455131e-45
2.3328691e-43
2.147601e-41
1.7946944e-39
1.3905389e-37
1.0194179e-35
7.2877386e-34
5.2684114e-32
3.8097518e-30
2.6089259e-28
1.5664222e-26
7.7358193e-25
3.0260482e-23
9.170621e-22
2.1158396e-20
3.9515663e-19
7.4394442e-18
1.1675434e-16
1.0170106e-15
8.8516678e-15
6.4905807e-14
3.8131269e-13
1.7314976e-12
8.4312094e-12
3.7537306e-11
4.249217e-11
1.02859e-10
1.13288e-10
1.2853638e-10
1.2804157e-10
6.2880686e-10
1.2953935e-09
1.1817108e-09
6.3232591e-10
1.1746585e-11
9.6547888e-11
8.0803041e-11
6.3194116e-11
1.2033489e-11
2.7301423e-11
7.3951267e-12
9.1002902e-13
1.8979101e-13
7.9323945e-15
1.7448748e-15
3.2621814e-16
3.8466402e-17
2.597847e-18
1.1514875e-19
3.2023922e-21
4.7835376e-23
4.77347e-25
2.6618311e-27
1.7761913e-29
3.6118391e-32
7.3622182e-35
1.3841243e-36
1.384159e-35
9.6049097e-37
7.5468086e-39
8.3569037e-41
1.0245491e-42
1.1575478e-44
1.2060621e-46
1.1716321e-48
1.0186843e-50
7.2505364e-53
4.7706738e-55
3.2329855e-57
2.3269086e-59
1.5914919e-61
9.9440149e-64
5.5926922e-66
2.7635674e-68
1.1667977e-70
4.2365773e-73
1.3609251e-75
3.5807167e-78
7.1772479e-81
1.1674482e-83
3.844455e-86
2.5491181e-86
4.7379984e-84
1.8780635e-83
1.2886319e-80
8.1781063e-78
3.9191325e-75
1.5048048e-72
4.7938725e-70
1.2971029e-67
3.0328207e-65
6.2132141e-63
1.1297753e-60
1.8476036e-58
2.7593419e-56
3.8287271e-54
5.0223999e-52
6.3259755e-50
7.633955e-48
8.8548363e-46
1.0643719e-43
1.2819071e-41
1.3291244e-39
1.2205012e-37
1.0247389e-35
8.0971886e-34
6.2332972e-32
4.8210487e-30
3.6716685e-28
2.5613708e-26
1.5284256e-24
7.4132332e-23
2.8251302e-21
8.245476e-20
1.8303823e-18
3.9022842e-17
5.1320767e-16
4.0875543e-15
2.5159015e-14
1.2497749e-13
7.1533737e-13
6.6994803e-12
7.4417428e-11
8.5022591e-12
1.2709998e-09
2.299646e-09
2.319064e-10
8.0836739e-10
1.5278692e-10
1.7347503e-10
8.6626494e-08
1.4155105e-07
1.2482575e-07
7.7044987e-08
3.545486e-11
9.5562137e-11
1.2302659e-09
2.633165e-09
3.1346501e-09
6.9328857e-10
7.4640505e-12
3.7310164e-11
6.6364709e-12
3.1817133e-14
1.773748e-14
5.3627413e-15
1.8150835e-15
2.3501615e-16
1.5872239e-17
4.1579441e-19
6.6254765e-21
6.4310354e-23
4.3402593e-25
1.4936909e-27
3.0690569e-30
1.8504563e-32
3.014135e-34
1.4772636e-33
1.143731e-34
8.5651482e-37
8.549026e-39
9.4802089e-41
9.3730022e-43
8.0864003e-45
5.6525142e-47
3.5077005e-49
2.7965579e-51
2.4356825e-53
1.9632219e-55
1.4204181e-57
9.6473385e-60
6.0399961e-62
3.3960914e-64
1.6898029e-66
7.3373781e-69
2.7426226e-71
8.6782562e-74
2.2711814e-76
4.7458405e-79
7.4588304e-82
1.3567821e-84
5.5236417e-85
6.5592956e-83
6.0994855e-82
5.4956522e-79
3.6809839e-76
1.8614224e-73
7.5238012e-71
2.5122413e-68
7.0777015e-66
1.707645e-63
3.5715115e-61
6.5467457e-59
1.064755e-56
1.5626618e-54
2.1199414e-52
2.7522803e-50
3.5074849e-48
4.3711645e-46
5.3242531e-44
6.3838483e-42
7.4872581e-40
8.8270525e-38
8.9382615e-36
8.065515e-34
6.7247146e-32
5.3728329e-30
4.2476103e-28
3.2822772e-26
2.2788213e-24
1.3295182e-22
6.2785384e-21
2.3226897e-19
6.7542939e-18
1.8074695e-16
2.3868596e-15
6.9711131e-15
1.7518848e-14
2.0128828e-13
2.2369467e-12
1.1286119e-11
4.113076e-11
1.4147484e-09
6.1895567e-08
6.4451305e-08
2.8571573e-08
2.2698027e-10
1.1559272e-08
2.7937864e-06
1.7470353e-06
9.4733481e-06
5.5432574e-06
5.4115516e-06
1.0019425e-05
1.7060663e-06
2.5132042e-06
1.8954025e-08
2.4390591e-09
2.9957973e-09
6.0775381e-08
3.5860262e-08
2.4762324e-09
8.2961436e-11
3.2076614e-14
6.7746125e-13
1.3523196e-13
7.4429139e-15
3.9472951e-15
1.2689991e-15
5.0717161e-17
7.3854172e-19
6.0015955e-21
3.4437905e-23
1.1526628e-25
3.3771621e-28
2.6600901e-30
6.9558886e-32
3.3479378e-31
1.6985867e-32
9.760745e-35
9.656248e-37
9.6932845e-39
8.1369591e-41
5.0667005e-43
3.8226199e-45
3.0850991e-47
2.5321202e-49
2.0321301e-51
1.4660458e-53
9.6404792e-56
6.6316622e-58
4.4024042e-60
2.5552165e-62
1.2778216e-64
5.4687248e-67
1.9858212e-69
6.0400343e-72
1.5081845e-74
2.9931847e-77
4.4524197e-80
5.1784392e-83
6.7303538e-84
1.9461785e-81
1.9671799e-80
1.9478548e-77
1.3956609e-74
7.5506943e-72
3.2550588e-69
1.1524965e-66
3.4210881e-64
8.6179089e-62
1.8520703e-59
3.4137302e-57
5.420632e-55
7.4718832e-53
9.4411189e-51
1.3245587e-48
1.8052601e-46
2.4093787e-44
3.105252e-42
3.9038634e-40
4.7025074e-38
5.5829661e-36
6.3215198e-34
6.12729e-32
5.3193879e-30
4.3068293e-28
3.3777545e-26
2.5606894e-24
1.7387312e-22
9.863183e-21
4.5088819e-19
1.6638937e-17
5.3783747e-16
9.757794e-15
2.2176472e-14
1.2365554e-13
7.002023e-13
1.1998273e-11
6.3003589e-11
2.5926694e-10
1.3053015e-10
3.2021812e-09
1.1692597e-06
4.6830708e-07
4.1213079e-07
1.054464e-09
1.2914843e-08
1.2627999e-06
0.00010848801
8.6954012e-05
0.00015677564
0.00016452376
0.00011678387
0.00010984245
1.2876566e-06
2.5574628e-08
3.559807e-09
9.2472357e-07
3.6247183e-07
4.3997893e-07
1.4192429e-09
0
2.6637242e-12
3.6953231e-11
1.0507848e-11
4.5355714e-13
1.055266e-13
1.6363699e-14
3.3438952e-15
7.2200213e-17
5.032264e-19
2.297088e-21
9.611515e-24
3.3286125e-26
3.4346428e-28
1.289492e-29
6.208376e-29
2.2037183e-30
1.0800785e-32
1.0539512e-34
9.3578052e-37
6.552396e-39
5.016927e-41
4.032029e-43
3.2853743e-45
2.4590482e-47
1.63392e-49
1.0492364e-51
6.4614509e-54
4.0864725e-56
2.6365899e-58
1.6873334e-60
8.6935339e-63
3.6704534e-65
1.2839194e-67
3.7060225e-70
8.6986851e-73
1.6164371e-75
2.2551717e-78
2.2842259e-81
1.7987698e-82
6.1357479e-80
4.7506886e-79
5.7781271e-76
4.7015698e-73
2.7535848e-70
1.2399822e-67
4.4354614e-65