/*--------------------------------*- C++ -*----------------------------------*\
  =========                 |
  \\      /  F ield         | OpenFOAM: The Open Source CFD Toolbox
   \\    /   O peration     | Website:  https://openfoam.org
    \\  /    A nd           | Version:  9
     \\/     M anipulation  |
\*---------------------------------------------------------------------------*/
FoamFile
{
    format      ascii;
    class       volScalarField;
    location    "0.16";
    object      p_rgh;
}
// * * * * * * * * * * * * * * * * * * * * * * * * * * * * * * * * * * * * * //

dimensions      [1 -1 -2 0 0 0 0];

internalField   nonuniform List<scalar> 
10000
(
0
-0.04382745
-0.10597126
-0.1702798
-0.26485792
-0.3773012
-0.50763197
-0.6560181
-0.8225412
-1.0073207
-1.2105155
-1.432203
-1.6725241
-1.9316484
-2.2098033
-2.5073227
-2.8242941
-3.1605483
-3.5157224
-3.8893276
-4.2807211
-4.6889011
-5.1143583
-5.5569764
-6.0132573
-6.4808061
-6.9617681
-7.4548754
-7.9595013
-8.4739535
-8.9955058
-9.5211699
-10.048173
-10.573404
-11.09355
-11.605109
-12.104514
-12.588184
-13.052498
-13.493812
-13.90827
-14.292213
-14.642371
-14.955817
-15.230036
-15.462953
-15.652852
-15.798363
-15.898457
-15.952413
-15.959835
-15.920737
-15.835528
-15.704957
-15.530207
-15.312784
-15.05441
-14.757032
-14.422872
-14.054581
-13.655416
-13.229049
-12.779273
-12.309806
-11.824258
-11.326168
-10.819099
-10.306553
-9.7917807
-9.2780025
-8.7680936
-8.2652743
-7.7718486
-7.2894002
-6.8190362
-6.3607593
-5.9145142
-5.4795585
-5.0612735
-4.6606702
-4.2767592
-3.9101365
-3.5614037
-3.2310583
-2.9194174
-2.6267641
-2.3531696
-2.0985333
-1.8625308
-1.6448852
-1.4454347
-1.263961
-1.1003444
-0.95444792
-0.82620825
-0.71544227
-0.62198211
-0.55817591
-0.49618369
-0.45225077
0.038519027
-0.0054360963
-0.067711831
-0.13202008
-0.22664428
-0.33900057
-0.46931204
-0.617652
-0.7841269
-0.96891549
-1.1720927
-1.3937754
-1.6340772
-1.8930982
-2.1711188
-2.4687428
-2.78603
-3.1227768
-3.4784951
-3.8527862
-4.2452269
-4.652908
-5.0779383
-5.5202089
-5.9793303
-6.4539815
-6.9403818
-7.4390489
-7.9488343
-8.4681562
-8.9947002
-9.5257988
-10.058603
-10.590033
-11.116856
-11.635511
-12.142293
-12.633435
-13.105162
-13.553602
-13.975112
-14.365771
-14.721546
-15.039742
-15.317974
-15.554154
-15.746575
-15.893885
-15.995103
-16.049601
-16.057123
-16.017666
-15.931448
-15.799057
-15.621765
-15.401134
-15.138891
-14.836891
-14.497258
-14.122777
-13.71647
-13.282544
-12.825119
-12.348007
-11.854954
-11.349682
-10.835879
-10.31701
-9.7964381
-9.2772032
-8.7622183
-8.2542073
-7.7553693
-7.2672972
-6.7910455
-6.3261232
-5.8747544
-5.4410347
-5.0236143
-4.6242176
-4.2397001
-3.8724853
-3.5232862
-3.192592
-2.8805836
-2.5877674
-2.3141969
-2.0597439
-1.8239214
-1.6063941
-1.4070174
-1.225602
-1.0620606
-0.91624718
-0.78810328
-0.6774474
-0.58421069
-0.5198156
-0.45808214
-0.41408526
0.097159476
0.053003564
-0.0092971338
-0.073777155
-0.1683861
-0.28073032
-0.41097642
-0.55922883
-0.72567143
-0.91040249
-1.1135514
-1.33523
-1.5754687
-1.8342675
-2.111709
-2.4094851
-2.7274037
-3.0650911
-3.4210866
-3.7950456
-4.1870745
-4.5998288
-5.0299313
-5.4762226
-5.9388307
-6.4169205
-6.9087129
-7.4133489
-7.9296397
-8.4558682
-8.9898824
-9.5291639
-10.070875
-10.611895
-11.148751
-11.677853
-12.195308
-12.697157
-13.179646
-13.638744
-14.070804
-14.471293
-14.835226
-15.160483
-15.444526
-15.68553
-15.881767
-16.031899
-16.13502
-16.190551
-16.198193
-16.157935
-16.069984
-15.93446
-15.753096
-15.52765
-15.259888
-14.951422
-14.60383
-14.220306
-13.803103
-13.358011
-12.889663
-12.401705
-11.897899
-11.382126
-10.858205
-10.329787
-9.8002195
-9.2727212
-8.7501364
-8.2350217
-7.7295015
-7.2352175
-6.7533906
-6.2847608
-5.8308236
-5.3931096
-4.9716991
-4.5661092
-4.1806172
-3.8139325
-3.4651065
-3.1342417
-2.8214251
-2.5282863
-2.2547213
-2.0008442
-1.7654089
-1.5480617
-1.3487852
-1.1674786
-1.004066
-0.85838933
-0.73033971
-0.61979855
-0.52658359
-0.46167869
-0.40001312
-0.35609726
0.16704875
0.12286619
0.060503632
-0.0041606514
-0.098718705
-0.21090286
-0.34094538
-0.48905675
-0.6553801
-0.84009497
-1.0434058
-1.2654979
-1.5066138
-1.7670732
-2.0470714
-2.3451189
-2.6615253
-2.9965889
-3.351463
-3.7261796
-4.1204771
-4.5342164
-4.9664892
-5.4161968
-5.8829812
-6.3659725
-6.8639941
-7.3759084
-7.9003471
-8.4355889
-8.979549
-9.5297342
-10.083258
-10.636841
-11.186926
-11.729628
-12.260725
-12.775654
-13.270842
-13.740709
-14.180868
-14.588131
-14.960502
-15.293756
-15.585032
-15.831825
-16.032484
-16.185828
-16.291021
-16.347587
-16.355378
-16.314439
-16.225072
-16.088237
-15.903943
-15.672964
-15.39688
-15.078304
-14.720854
-14.327448
-13.902812
-13.448782
-12.968818
-12.46791
-11.950602
-11.42129
-10.884099
-10.343002
-9.8015747
-9.2630835
-8.7304159
-8.2061091
-7.6922595
-7.1905743
-6.7023759
-6.2287686
-5.7708727
-5.3296977
-4.9056231
-4.4993222
-4.112197
-3.7440599
-3.3953782
-3.0660545
-2.7562579
-2.4644881
-2.1908459
-1.9350048
-1.6980107
-1.4798307
-1.2801655
-1.0987606
-0.93542664
-0.78993384
-0.66212857
-0.55186218
-0.45888852
-0.39325195
-0.3317652
-0.28793938
0.25788343
0.21368009
0.15154064
0.085996995
-0.0082461283
-0.12007488
-0.24977191
-0.39748373
-0.56338996
-0.74770866
-0.95062585
-1.1723505
-1.413109
-1.6730833
-1.9523288
-2.250547
-2.5678443
-2.9044917
-3.2609545
-3.6373929
-4.0337418
-4.4498026
-4.8850822
-5.3389364
-5.8108031
-6.2999204
-6.8053122
-7.3258632
-7.8602064
-8.4066493
-8.9631224
-9.5271478
-10.095814
-10.665772
-11.233272
-11.794226
-12.344301
-12.878878
-13.392166
-13.880299
-14.338417
-14.762457
-15.148987
-15.494387
-15.795702
-16.050605
-16.257472
-16.415239
-16.523272
-16.581252
-16.589109
-16.546882
-16.45474
-16.313095
-16.122338
-15.883329
-15.597623
-15.267574
-14.896286
-14.487199
-14.044377
-13.57147
-13.072721
-12.552758
-12.016576
-11.468963
-10.914328
-10.356787
-9.8001253
-9.2476821
-8.7023724
-8.1667231
-7.642807
-7.1323453
-6.6366887
-6.1569183
-5.6939778
-5.2486364
-4.8214614
-4.4130294
-4.0239196
-3.654304
-3.304315
-2.9738761
-2.6628494
-2.3706694
-2.0971252
-1.8420768
-1.6057425
-1.3880686
-1.1888576
-1.0079009
-0.84502792
-0.69994611
-0.57253815
-0.46262715
-0.37000867
-0.30364565
-0.24229219
-0.19848309
0.3663413
0.32223674
0.26030639
0.19366792
0.099901895
-0.011456777
-0.14061164
-0.28773191
-0.45303675
-0.63672952
-0.83903136
-1.0601796
-1.3003842
-1.5598366
-1.8386854
-2.1369846
-2.4548897
-2.792654
-3.15057
-3.5288161
-3.9274355
-4.3463379
-4.7852607
-5.2437996
-5.7214767
-6.2176587
-6.7315371
-7.2620854
-7.8080384
-8.367762
-8.939225
-9.5199744
-10.107085
-10.697103
-11.286054
-11.869579
-12.443065
-13.001207
-13.538494
-14.049803
-14.529985
-14.974332
-15.378617
-15.739121
-16.052836
-16.317508
-16.531676
-16.694541
-16.805763
-16.865281
-16.873164
-16.829436
-16.7341
-16.587254
-16.389174
-16.140567
-15.842807
-15.4981
-15.109515
-14.680726
-14.215978
-13.719849
-13.19729
-12.653508
-12.093863
-11.523561
-10.947358
-10.369652
-9.7944209
-9.2251211
-8.6647014
-8.1156424
-7.5800047
-7.0594324
-6.5552027
-6.0683049
-5.5995293
-5.1495087
-4.7187178
-4.3075525
-3.9162781
-3.545009
-3.1937636
-2.8623892
-2.5506704
-2.258273
-1.9849418
-1.7304871
-1.4948342
-1.2778422
-1.0793236
-0.89902489
-0.73678204
-0.59229049
-0.46544332
-0.35598145
-0.26383364
-0.19676629
-0.13557517
-0.091773333
0.4923158
0.44824396
0.38656144
0.31885663
0.22562761
0.11491353
-0.013513355
-0.15985922
-0.32433116
-0.50716865
-0.70863608
-0.92897739
-1.1684339
-1.4272581
-1.7056768
-2.0038916
-2.3221489
-2.6607313
-3.0199225
-3.3999465
-3.8009469
-4.2229583
-4.6658991
-5.1295705
-5.6136663
-6.1177256
-6.6411213
-7.1829988
-7.7422034
-8.3172412
-8.906169
-9.5065762
-10.11554
-10.729517
-11.344328
-11.955375
-12.55731
-13.144535
-13.710984
-14.250633
-14.757615
-15.226455
-15.65225
-16.030898
-16.359244
-16.635151
-16.857446
-17.025757
-17.140242
-17.201262
-17.209148
-17.163879
-17.065253
-16.912951
-16.706817
-16.447187
-16.13517
-15.772818
-15.363211
-14.910386
-14.419139
-13.894829
-13.343209
-12.77027
-12.182031
-11.584143
-10.981946
-10.380118
-9.7828515
-9.193712
-8.6156918
-8.0512212
-7.5022402
-6.9702597
-6.4564352
-5.9616004
-5.4863779
-5.0312328
-4.5964618
-4.1822703
-3.7887213
-3.415794
-3.0633933
-2.7312911
-2.4192127
-2.1268594
-1.8539267
-1.6001456
-1.365304
-1.1491962
-0.95156361
-0.77215579
-0.61072995
-0.46703152
-0.34090995
-0.23208237
-0.1404312
-0.072686804
-0.011695145
0.03206636
0.63557244
0.59155976
0.53014985
0.46146259
0.36890047
0.2589874
0.13145466
-0.013893424
-0.17730075
-0.35905399
-0.55943074
-0.77870919
-1.0171885
-1.2751687
-1.5529449
-1.8508287
-2.1691567
-2.5082718
-2.8685088
-3.2501722
-3.6535113
-4.0787016
-4.5258481
-4.9949575
-5.4859253
-5.9985164
-6.5323194
-7.0866846
-7.6606607
-8.2529328
-8.8617228
-9.4847321
-10.119068
-10.761112
-11.4065
-12.050194
-12.686429
-13.308795
-13.910426
-14.48433
-15.023613
-15.521787
-15.973175
-16.373139
-16.718287
-17.006626
-17.237435
-17.411053
-17.528448
-17.590673
-17.59857
-17.551953
-17.450345
-17.292739
-17.078218
-16.806446
-16.478084
-16.094982
-15.660343
-15.178692
-14.65556
-14.097269
-13.510595
-12.902516
-12.279889
-11.649159
-11.016226
-10.386088
-9.7632272
-9.1513077
-8.5532635
-7.971407
-7.4075648
-6.863029
-6.33875
-5.8353512
-5.3532438
-4.8926754
-4.4537351
-4.0364147
-3.6406102
-3.2661327
-2.9127681
-2.580208
-2.2680894
-1.9760668
-1.7037768
-1.4508972
-1.217075
-1.0020761
-0.80554362
-0.62726793
-0.46691423
-0.32425588
-0.19900521
-0.09099051
9.2865828e-05
0.068420873
0.12916665
0.17287729
0.79596767
0.75202557
0.69082637
0.62139471
0.52961455
0.42064302
0.29421281
0.15008807
-0.012022756
-0.1924205
-0.3914157
-0.60934254
-0.84654156
-1.1033614
-1.3801818
-1.67741
-1.995465
-2.3347666
-2.6957332
-3.0787686
-3.484245
-3.9125165
-4.3638743
-4.8385393
-5.3366411
-5.858197
-6.4030617
-6.9708679
-7.5609293
-8.172203
-8.8031581
-9.4517139
-10.115039
-10.789484
-11.470498
-12.152697
-12.829618
-13.493969
-14.13781
-14.752866
-15.330883
-15.864114
-16.345768
-16.770438
-17.134419
-17.435903
-17.674902
-17.852881
-17.972127
-18.034891
-18.042634
-17.99534
-17.891754
-17.72977
-17.507237
-17.222694
-16.876075
-16.468955
-16.004789
-15.488756
-14.927412
-14.328332
-13.699619
-13.04954
-12.38607
-11.716677
-11.047774
-10.384956
-9.7328383
-9.0951484
-8.4747196
-7.8737015
-7.2936596
-6.7356246
-6.2002518
-5.6878904
-5.1986739
-4.7325797
-4.2894657
-3.8690938
-3.4712015
-3.095436
-2.7414181
-2.4087428
-2.0969344
-1.8055982
-1.5342659
-1.2825879
-1.0500961
-0.83651227
-0.64140891
-0.46452925
-0.30546554
-0.16403932
-0.039862439
0.067191102
0.15754506
0.22633025
0.28683842
0.33048796
0.97331582
0.92939612
0.86839432
0.79846812
0.70758021
0.59974158
0.47462946
0.33195799
0.17142193
-0.0073101588
-0.20460095
-0.42082311
-0.65635946
-0.91163117
-1.1871037
-1.483266
-1.8006166
-2.139665
-2.5009295
-2.8849352
-3.2922117
-3.7232892
-4.178659
-4.658768
-5.16401
-5.6946958
-6.250998
-6.8328936
-7.4400917
-8.0719004
-8.7271681
-9.4040961
-10.100066
-10.811451
-11.53363
-12.26074
-12.985623
-13.699888
-14.394216
-15.058678
-15.683234
-16.258394
-16.775771
-17.228826
-17.613408
-17.928022
-18.173721
-18.353754
-18.472591
-18.534448
-18.542003
-18.495324
-18.391933
-18.227789
-17.998716
-17.701538
-17.335042
-16.900439
-16.401542
-15.844505
-15.237335
-14.58934
-13.910347
-13.21026
-12.498529
-11.783872
-11.07351
-10.373341
-9.6882199
-9.0218436
-8.3768708
-7.7551424
-7.15785
-6.585665
-6.038845
-5.5173776
-5.0210628
-4.5495753
-4.1024996
-3.6793853
-3.2797541
-2.9030821
-2.5488034
-2.2164294
-1.9053635
-1.6151193
-1.3451476
-1.0950481
-0.86428704
-0.65244426
-0.45909259
-0.28393044
-0.12645498
0.013514671
0.13634208
0.24230528
0.33174795
0.40082056
0.46112911
0.50468514
1.1673641
1.123503
1.0625754
0.99239288
0.90257913
0.79608748
0.67252392
0.53158892
0.37294873
0.19622468
0.0010206808
-0.21307316
-0.44650697
-0.69978067
-0.97343211
-1.2680247
-1.5841424
-1.9223915
-2.2834063
-2.6678565
-3.076438
-3.5098527
-3.9687981
-4.4539704
-4.9660572
-5.5057078
-6.0734773
-6.669774
-7.294785
-7.9483323
-8.6297334
-9.3376599
-10.069875
-10.82297
-11.592207
-12.371378
-13.152587
-13.926062
-14.680796
-15.404757
-16.085502
-16.711016
-17.270664
-17.756277
-18.162953
-18.489507
-18.738573
-18.916131
-19.030298
-19.088613
-19.095884
-19.052333
-18.953276
-18.791294
-18.55885
-18.250274
-17.862676
-17.396788
-16.857008
-16.250928
-15.588598
-14.881733
-14.142529
-13.38302
-12.614489
-11.847289
-11.089303
-10.346961
-9.6251108
-8.9273224
-8.255931
-7.6123059
-6.9971004
-6.4104738
-5.8522007
-5.3217998
-4.8186817
-4.3422075
-3.8916569
-3.4663151
-3.0654522
-2.6883829
-2.3343878
-2.0028251
-1.6930087
-1.4043531
-1.1362637
-0.88816706
-0.65955292
-0.4498856
-0.25865614
-0.085500988
0.070042252
0.20828523
0.32951428
0.43411974
0.52243324
0.59159172
0.65178664
0.69525093
1.3778853
1.334105
1.2730069
1.2028366
1.1143383
1.0094417
0.88771795
0.74884633
0.59245428
0.41813655
0.22546604
0.013972624
-0.2168672
-0.46762069
-0.73889165
-1.0313199
-1.3455783
-1.6823799
-2.0424898
-2.4267229
-2.8359326
-3.2709905
-3.7328138
-4.2223714
-4.7406733
-5.2887451
-5.8675928
-6.4781416
-7.1211607
-7.7971102
-8.5060498
-9.2472773
-10.019144
-10.818693
-11.641347
-12.480472
-13.327722
-14.171501
-14.998748
-15.794695
-16.543644
-17.230119
-17.840259
-18.363356
-18.793323
-19.129084
-19.375372
-19.542246
-19.644131
-19.694122
-19.700946
-19.665227
-19.578014
-19.425803
-19.195814
-18.878575
-18.469111
-17.967691
-17.379468
-16.714238
-15.985119
-15.207078
-14.395576
-13.565367
-12.729826
-11.902125
-11.090002
-10.300397
-9.538248
-8.8066902
-8.1074624
-7.4412724
-6.8079981
-6.2071126
-5.6377891
-5.0990248
-4.5897874
-4.1090351
-3.6557068
-3.2288148
-2.8274306
-2.4506537
-2.0976068
-1.7675001
-1.4595913
-1.1731301
-0.90747757
-0.66192658
-0.43589802
-0.2288357
-0.040176125
0.1305493
0.28381614
0.41997354
0.53935713
0.64230563
0.72925786
0.79831044
0.85855749
0.90187367
1.6044897
1.5609098
1.4992892
1.4294094
1.3425717
1.239579
1.1200192
0.98356128
0.82981945
0.65836416
0.46871488
0.26033652
0.032646102
-0.21498642
-0.48323478
-0.77281608
-1.0844975
-1.4191079
-1.7775388
-2.1607339
-2.5696885
-3.0054575
-3.4691892
-3.9621371
-4.4856575
-5.041174
-5.6302028
-6.2542733
-6.914854
-7.6132499
-8.350412
-9.1266205
-9.9412059
-10.79198
-11.674721
-12.582487
-13.507049
-14.43436
-15.348935
-16.23252
-17.065117
-17.826391
-18.497597
-19.064264
-19.518389
-19.858877
-20.092222
-20.233769
-20.310196
-20.343106
-20.349256
-20.330045
-20.268129
-20.138602
-19.920639
-19.59962
-19.168372
-18.626281
-17.979852
-17.24234
-16.431532
-15.566959
-14.668302
-13.753823
-12.838465
-11.942199
-11.068843
-10.226938
-9.4212407
-8.6541476
-7.9263809
-7.2375959
-6.5867315
-5.9723666
-5.3929593
-4.8468658
-4.3325375
-3.8485176
-3.3933859
-2.9658833
-2.5648351
-2.1891653
-1.8378819
-1.5100043
-1.204719
-0.92117347
-0.65859124
-0.41620508
-0.19333864
0.01061418
0.19627184
0.36410251
0.51468735
0.64838138
0.76560955
0.86660751
0.95183914
1.0205114
1.0811726
1.1242272
1.8466076
1.803274
1.7407741
1.6721381
1.587109
1.4862655
1.3691848
1.2355263
1.0848837
0.91678044
0.73067825
0.52598859
0.3020729
0.058236757
-0.2062661
-0.49223478
-0.80053507
-1.1321032
-1.4879362
-1.869091
-2.2767062
-2.712029
-3.1764348
-3.6714507
-4.1987737
-4.7602766
-5.3580064
-5.9941761
-6.6710859
-7.3910584
-8.1562279
-8.9682771
-9.8278843
-10.734184
-11.683999
-12.671284
-13.684817
-14.711211
-15.731354
-16.722565
-17.659126
-18.513716
-19.260305
-19.878801
-20.357899
-20.696453
-20.90107
-20.991123
-21.020272
-21.019514
-21.026036
-21.036709
-21.026315
-20.939952
-20.748834
-20.432027
-19.97985
-19.390345
-18.67254
-17.845223
-16.933138
-15.962394
-14.958322
-13.944444
-12.942092
-11.96043
-11.017244
-10.118156
-9.2664161
-8.4629043
-7.7068458
-6.9963948
-6.3292599
-5.70293
-5.1149923
-4.5630873
-4.0451081
-3.5591648
-3.1034761
-2.6765109
-2.2769051
-1.9033707
-1.55478
-1.2300288
-0.92817454
-0.64826837
-0.38945046
-0.15089487
0.068148348
0.26839877
0.45049919
0.61499174
0.76244708
0.89329777
1.0079953
1.1068163
1.1902267
1.2575929
1.3189315
1.3617193
2.1036334
2.060772
1.997106
1.9306104
1.8476069
1.7491642
1.6349059
1.5044689
1.3574002
1.1931721
1.0111992
0.81083985
0.59139336
0.35210168
0.092144543
-0.18936504
-0.49338259
-0.82092902
-1.1730914
-1.5510399
-1.9560569
-2.3895639
-2.8531446
-3.3485747
-3.8778756
-4.443363
-5.0476391
-5.6936667
-6.3846896
-7.1242513
-7.9160009
-8.763372
-9.6690405
-10.634197
-11.657389
-12.733329
-13.85149
-14.996006
-16.144539
-17.269088
-18.336661
-19.310417
-20.152687
-20.834412
-21.339474
-21.66817
-21.823253
-21.812553
-21.759156
-21.691509
-21.700625
-21.779975
-21.851174
-21.842915
-21.70282
-21.40176
-20.930861
-20.284632
-19.476472
-18.534944
-17.495607
-16.393243
-15.260239
-14.125734
-13.014035
-11.942138
-10.92315
-9.9633883
-9.0644895
-8.2251489
-7.442357
-6.7123941
-6.0313674
-5.3954223
-4.8011724
-4.245539
-3.7257821
-3.2395789
-2.7848676
-2.3598418
-1.9629351
-1.5927182
-1.2478904
-0.92724824
-0.62975599
-0.35436312
-0.1001049
0.13390873
0.34844927
0.54435709
0.72226785
0.8829001
1.0267439
1.1543557
1.2661854
1.362559
1.4439128
1.5091757
1.5714302
1.6137399
2.374613
2.3317726
2.2692636
2.2044817
2.1236307
2.027856
1.9167919
1.7900212
1.6470341
1.4872588
1.3100619
1.1147413
0.90052929
0.66660148
0.41206311
0.13594709
-0.16277308
-0.4851899
-0.83248178
-1.2059323
-1.6069446
-2.0370777
-2.4980815
-2.9919516
-3.5209897
-4.0879022
-4.6958583
-5.3485349
-6.0503181
-6.8060676
-7.6212483
-8.5015497
-9.4523907
-10.478062
-11.580159
-12.755592
-13.994408
-15.279405
-16.584389
-17.875276
-19.110349
-20.240682
-21.20909
-21.969981
-22.499847
-22.810202
-22.855689
-22.743023
-22.506063
-22.294903
-22.308046
-22.531386
-22.770217
-22.876275
-22.812975
-22.544239
-22.061285
-21.344659
-20.416413
-19.325228
-18.124359
-16.85797
-15.566933
-14.287556
-13.049478
-11.873449
-10.772145
-9.7497275
-8.8045841
-7.9319965
-7.1259292
-6.3801575
-5.6887901
-5.0466064
-4.4490316
-3.8922782
-3.3730344
-2.8885711
-2.4365855
-2.0150774
-1.6222866
-1.2566633
-0.91678715
-0.60137031
-0.30923911
-0.039313402
0.20947959
0.43811419
0.64742584
0.83826718
1.0113704
1.1675288
1.3072645
1.4311666
1.5397413
1.633407
1.7125329
1.7758857
1.8373775
1.8794559
2.6589289
2.6147377
2.5576647
2.4933385
2.4146416
2.3218142
2.2143466
2.0917294
1.9533948
1.7987152
1.6270007
1.4374887
1.2293467
1.0016729
0.75350363
0.48381174
0.19150832
-0.12457472
-0.46570795
-0.83326666
-1.2287396
-1.6537754
-2.1102432
-2.6002941
-3.1264414
-3.691698
-4.2997136
-4.9549183
-5.6627017
-6.4295242
-7.2628361
-8.1711751
-9.1636092
-10.248794
-11.433103
-12.717705
-14.094907
-15.546612
-17.042429
-18.541164
-19.992039
-21.336131
-22.479418
-23.339138
-23.8788
-24.132217
-24.121167
-23.813537
-23.223003
-22.685078
-22.713584
-23.26596
-23.833998
-24.097189
-24.108541
-23.901344
-23.428927
-22.623214
-21.523251
-20.229455
-18.823476
-17.352536
-15.866755
-14.41266
-13.026967
-11.734373
-10.546102
-9.4618121
-8.4743728
-7.5739262
-6.7504234
-5.9943729
-5.2977161
-4.6536169
-4.0564462
-3.5016901
-2.9856224
-2.5051955
-2.0579152
-1.6416496
-1.254522
-0.89487641
-0.5612073
-0.25219148
0.033461943
0.29690471
0.53928697
0.76162846
0.96487318
1.1498694
1.3174845
1.4684744
1.6035268
1.7232469
1.8281819
1.9188485
1.9957357
2.0584612
2.1148807
2.15805
2.9573227
2.911356
2.8588289
2.7960546
2.7198236
2.630365
2.5269857
2.4090882
2.2760428
2.1271638
1.961702
1.7788326
1.5776541
1.3571951
1.1164319
0.8542833
0.56959104
0.26110559
-0.072516267
-0.43270371
-0.82099696
-1.2390962
-1.6889223
-2.1726913
-2.6930203
-3.2530859
-3.8568827
-4.5094526
-5.217127
-5.987883
-6.8315188
-7.7597966
-8.7862954
-9.9257305
-11.191929
-12.593313
-14.126915
-15.77473
-17.503426
-19.261065
-20.986034
-22.637428
-24.049535
-25.040506
-25.572164
-25.736396
-25.693533
-25.214518
-23.868684
-22.561567
-22.636753
-23.975369
-25.246095
-25.592252
-25.636589
-25.551749
-25.143434
-24.213795
-22.830567
-21.253131
-19.594922
-17.869454
-16.141963
-14.4772
-12.918715
-11.498106
-10.222162
-9.0816796
-8.0604414
-7.1413843
-6.3090735
-5.5504379
-4.8549295
-4.2142374
-3.621826
-3.0726367
-2.5626875
-2.0887851
-1.6483333
-1.2391515
-0.85931154
-0.50712143
-0.18103805
0.12034052
0.39834622
0.65420888
0.88913271
1.104234
1.3004779
1.4788225
1.6401746
1.7853343
1.915073
2.030043
2.1308893
2.21817
2.2925718
2.3538543
2.4053398
2.4501198
3.2705557
3.2210677
3.1714563
3.1111871
3.0382712
2.9527814
2.8540815
2.741542
2.6144843
2.4721694
2.3137895
2.1384545
1.9451965
1.7329889
1.5007482
1.2473284
0.97149347
0.67192369
0.34722924
-0.0040492412
-0.38347498
-0.79275618
-1.2337861
-1.7087216
-2.2201298
-2.7711773
-3.3659555
-4.0098469
-4.7099187
-5.4754752
-6.3187261
-7.2548864
-8.3029011
-9.4852467
-10.826594
-12.347643
-14.05414
-15.930643
-17.94438
-20.02244
-22.065137
-24.147047
-26.041131
-27.133081
-27.558567
-27.505287
-27.765266
-27.48015
-24.401981
-21.43467
-21.633312
-24.706448
-27.617235
-27.46765
-27.197217
-27.510932
-27.30964
-26.228233
-24.29844
-22.370803
-20.443833
-18.400641
-16.366964
-14.448198
-12.685645
-11.129795
-9.7730095
-8.5895553
-7.5493926
-6.6256138
-5.796457
-5.0450122
-4.3584512
-3.7273314
-3.1444893
-2.6046604
-2.1038788
-1.6390178
-1.2075236
-0.80729999
-0.43646284
-0.093283635
0.22380222
0.51622174
0.78534855
1.0324789
1.2588549
1.4656721
1.653944
1.824761
1.9789992
2.1175949
2.2413333
2.350938
2.4471115
2.5304211
2.6015162
2.6603004
2.7087922
2.756513
3.5971976
3.5413959
3.4955587
3.4384854
3.3693196
3.2883605
3.1949672
3.0884724
2.9681538
2.8332216
2.6828066
2.515957
2.3316489
2.1288007
1.9062631
1.6628087
1.3971342
1.1078634
0.7935671
0.45275712
0.083865186
-0.3147656
-0.74490676
-1.2085295
-1.7079747
-2.2461876
-2.8269507
-3.4553552
-4.1392551
-4.8886681
-5.7178065
-6.6455866
-7.6965165
-8.9027202
-10.304277
-11.940244
-13.807451
-15.952351
-18.33335
-20.833249
-23.249271
-26.072157
-28.927088
-29.995011
-30.178731
-28.882778
-29.716704
-30.851807
-26.37487
-19.432203
-19.876737
-27.059599
-30.695242
-28.742655
-28.118784
-30.119487
-30.46841
-29.227697
-26.034405
-23.638311
-21.419108
-18.938683
-16.486264
-14.233213
-12.274507
-10.587324
-9.1682832
-7.9660789
-6.9297818
-6.0203832
-5.2096337
-4.4768903
-3.8080185
-3.1932355
-2.6248621
-2.0981195
-1.609433
-1.15602
-0.73557032
-0.34611143
0.01409359
0.34669423
0.65330478
0.93535564
1.1942944
1.431445
1.6481329
1.845561
2.0248791
2.1871952
2.3334674
2.4647077
2.5816969
2.6852619
2.7761372
2.8549198
2.9222596
2.9778575
3.022803
3.0758566
3.9288143
3.876082
3.831438
3.7771645
3.7121695
3.6363206
3.5488985
3.4491809
3.3364008
3.2097191
3.0682088
2.9108638
2.7366071
2.5442921
2.3326945
2.1005069
1.8463662
1.5688413
1.2664434
0.93764259
0.58087753
0.19459863
-0.22276738
-0.67288459
-1.1576886
-1.6795844
-2.2413647
-2.8474503
-3.5061455
-4.2273503
-5.0257237
-5.9248438
-6.9531679
-8.152198
-9.5884095
-11.351771
-13.323485
-15.743457
-18.587467
-21.763393
-23.855305
-25.495038
-30.589361
-34.805111
-35.984247
-29.385581
-29.794025
-38.455752
-29.193556
-12.522901
-13.576836
-30.174745
-37.670253
-28.416646
-27.827777
-35.976263
-35.927697
-32.031661
-25.49707
-24.469516
-22.689115
-19.476071
-16.447598
-13.829525
-11.647222
-9.817885
-8.3749042
-7.1957712
-6.1954794
-5.3241412
-4.5499977
-3.8482085
-3.2056078
-2.6139234
-2.0645902
-1.5541976
-1.0801687
-0.64032159
-0.23275105
0.14423568
0.49221437
0.81271632
1.1073599
1.3776212
1.6249912
1.850871
2.0566316
2.2435249
2.4128112
2.5656009
2.702983
2.825987
2.9354769
3.0322836
3.1171763
3.190868
3.2539968
3.3066476
3.3497941
3.4014042
4.2650388
4.2208236
4.1771883
4.1261153
4.0658518
3.9957722
3.9150421
3.8228838
3.7184896
3.6009767
3.4693723
3.3226187
3.1595806
2.9790341
2.7796868
2.560159
2.3190017
2.0547108
1.7657197
1.4504338
1.1072754
0.73484001
0.33181045
-0.10305717
-0.57090057
-1.073375
-1.6122317
-2.1912652
-2.8168829
-3.4967809
-4.2461385
-5.0948819
-6.0724377
-7.2193456
-8.6129648
-10.574577
-12.871794
-15.324106
-18.730253
-23.848373
-29.829577
-26.341651
-33.951312
-40.093516
-46.913224
-18.443142
-2.9028097
6.5084276
284.72149
490.21822
499.91865
280.97552
7.2625805
1.0350077
-14.208851
-47.817527
-42.932229
-34.399322
-29.496584
-31.084529
-25.492977
-19.976247
-16.155768
-13.207798
-10.693474
-8.7364395
-7.3769044
-6.2804441
-5.3527299
-4.5434954
-3.8258795
-3.1669461
-2.5577725
-1.9924387
-1.4656087
-0.9743918
-0.5172021
-0.09267502
0.30044233
0.6634432
0.99767373
1.3045941
1.5857778
1.8428038
2.077179
2.2904145
2.4839094
2.6590665
2.8171421
2.9593753
3.0869194
3.2007818
3.3019355
3.3912201
3.4694289
3.5373626
3.5957568
3.6452456
3.6874438
3.7306778
4.6085332
4.5696443
4.5302653
4.4839405
4.429299
4.3657658
4.2925052
4.2087295
4.1136117
4.0062415
3.8856042
3.7505859
3.5999907
3.4325318
3.2468348
3.0414376
2.8147827
2.5652615
2.291221
1.9909569
1.6627305
1.3053588
0.91775232
0.49914273
0.049108792
-0.4325192
-0.94591164
-1.4923895
-2.0759291
-2.7048669
-3.3975343
-4.1719433
-5.0964433
-6.208103
-7.5193663
-9.3155489
-11.001538
-12.812469
-16.163585
-23.5302
-27.652996
-21.574884
-39.279927
170.63919
590.19517
810.36644
3288.8693
6082.7995
5987.2983
5036.8409
5118.354
6096.9412
6048.7045
3047.0641
654.72062
584.89261
170.75748
-38.608405
-22.396035
-30.456877
-26.418057
-18.357683
-14.095463
-11.56218
-9.398502
-7.5266921
-6.2778014
-5.2650669
-4.426038
-3.7043602
-3.0474364
-2.4395466
-1.870432
-1.3356201
-0.83298769
-0.36191444
0.077642124
0.48590839
0.86345228
1.2111787
1.5302788
1.8221358
2.0883563
2.330609
2.5504948
2.7496205
2.9294968
3.0916277
3.237303
3.3678726
3.4845054
3.5882926
3.6802146
3.7611579
3.8319454
3.8933429
3.9461728
3.9910022
4.0291578
4.0669926
4.9548516
4.9233405
4.8901221
4.8496804
4.8015587
4.7453584
4.6803583
4.6058146
4.5209043
4.4246938
4.3161251
4.1940381
4.0571866
3.9042183
3.7336561
3.5439308
3.3333665
3.1002263
2.8427833
2.5592071
2.2469881
1.9056133
1.5339875
1.1316456
0.69894765
0.23722054
-0.25113438
-0.76355801
-1.299676
-1.8634083
-2.4753722
-3.1854171
-4.0813673
-5.4074917
-7.6091525
-10.710512
-11.085592
-9.3754267
-12.020684
-30.84972
-62.205293
-38.611034
927.89595
1665.1392
3987.6849
6630.5238
7103.5883
6990.1039
6489.4137
5994.8326
6022.6417
6530.0779
6967.8018
6999.5213
6639.1862
4163.4555
1719.4979
883.56144
-40.395143
-68.164479
-34.972532
-14.652551
-11.149297
-11.861969
-10.202347
-7.067817
-5.2546734
-4.2065042
-3.4578468
-2.8177588
-2.2349167
-1.6839566
-1.1562266
-0.65146162
-0.17182728
0.28020048
0.70260295
1.0944715
1.4558098
1.7872277
2.0898764
2.36516
2.6148468
2.8407142
3.0445258
3.2279897
3.3928156
3.5405287
3.6725447
3.7902734
3.8949223
3.98764
4.0694096
4.1411914
4.2037783
4.2578655
4.3042497
4.343287
4.3755375
4.4066304
5.3073052
5.2838032
5.2568619
5.2228193
5.1818094
5.1336173
5.0776363
5.01318
4.939428
4.8554128
4.7600469
4.6521448
4.5304149
4.3934258
4.2395861
4.0671654
3.874351
3.6592847
3.4201943
3.155685
2.8596541
2.5349211
2.1795495
1.7928102
1.3751918
0.92939287
0.46091804
-0.02201655
-0.51303597
-1.0001679
-1.496468
-2.0914415
-2.9907155
-4.6005841
-7.7884355
-13.894891
-7.1841001
-5.7382416
0.6277135
-29.552524
-140.0031
1435.212
3259.5652
5769.3866
6480.6026
6557.7787
6613.3765
6541.1402
6325.3607
6124.1017
6132.4599
6336.4755
6531.8018
6588.7585
6576.7747
6545.7343
5783.4991
3226.6286
1444.3819
-147.37014
-33.404747
-2.763022
-8.5201485
-7.6262817
-11.05661
-5.6456126
-4.141713
-3.1707448
-2.4720775
-1.9180992
-1.4174393
-0.92241339
-0.43009825
0.050913157
0.51274723
0.94922158
1.3563244
1.7323614
2.0771675
2.3914689
2.6764598
2.9335166
3.1649584
3.3727388
3.5587833
3.7249919
3.8731999
4.0050515
4.1220743
4.2256864
4.3172352
4.3978483
4.4685403
4.5303175
4.5839411
4.6300871
4.6693983
4.7020977
4.728043
4.7508642
5.6712719
5.6520123
5.630332
5.6026839
5.5691556
5.5295447
5.4833046
5.4297735
5.3681165
5.2973471
5.216363
5.1239662
5.018813
4.8993746
4.7639289
4.6105915
4.4373453
4.2420664
4.0225437
3.7740611
3.5001555
3.1940658
2.854975
2.4822411
2.0756877
1.6382736
1.1776709
0.71107552
0.24166969
-0.17903526
-0.51520964
-0.86826096
-1.73785
-3.2537375
-3.6994039
-7.9560356
-12.016886
13.378173
45.677048
56.733743
815.53503
4894.9181
6028.5747
5971.2521
6103.2873
6204.1169
6246.1768
6218.3385
6131.0247
6048.8439
6051.273
6133.784
6214.8082
6240.2347
6211.7715
6120.5169
5966.5684
5995.7403
4830.5131
789.46212
54.916175
40.449403
10.086153
-2.4675876
-2.9033184
-2.1859064
-3.0861752
-2.3103834
-1.5142252
-1.0579602
-0.64358667
-0.18531443
0.29093798
0.76277773
1.2167881
1.6435256
2.0383883
2.3997269
2.7277646
3.0236829
3.2892808
3.527033
3.7384161
3.926269
4.0927096
4.2399089
4.3698334
4.4842816
4.5848793
4.6731021
4.7503631
4.8178218
4.8765467
4.9274938
4.9714408
5.0090911
5.0409644
5.0673033
5.0880055
5.1065304
6.0413827
6.0260976
6.0094294
5.9882329
5.9625071
5.9320081
5.896193
5.8543926
5.8057587
5.749307
5.6839393
5.6084294
5.5213707
5.4211343
5.3058928
5.1736151
5.0220448
4.8486784
4.6505066
4.4260333
4.1719987
3.8848034
3.5618732
3.2020629
2.8016663
2.3620218
1.8870304
1.3863564
0.90370321
0.47757848
0.31531192
0.46111838
-1.1169049
-5.2861669
1.4854317
26.302981
35.958232
40.099381
143.47572
-35.378605
3481.9938
5103.9059
5418.5942
5610.4895
5779.3429
5902.8813
5952.3185
5949.6187
5915.2352
5882.3079
5882.9346
5915.8907
5948.5957
5951.4051
5906.4656
5785.6596
5612.2503
5392.9058
5052.6645
3396.6995
-37.841655
124.0542
36.908179
21.977683
17.732826
-0.59289047
-5.830035
-2.1674396
-0.5316447
-0.30847427
0.014544487
0.49329803
0.99175033
1.4792402
1.9397575
2.3644524
2.7505267
3.0981874
3.4091069
3.6855229
3.9300316
4.1455118
4.334962
4.5007902
4.6456306
4.7719131
4.8817914
4.9772067
5.0598792
5.1313986
5.193146
5.2463844
5.2921996
5.3315194
5.3651649
5.3937875
5.4179188
5.437837
5.4535533
5.4680997
6.4158157
6.4043872
6.3927454
6.3781595
6.3605762
6.3397009
6.3149621
6.2856789
6.2510051
6.2099718
6.1614852
6.1042842
6.0368966
5.957627
5.8645576
5.7555185
5.6280672
5.4794415
5.3065662
5.1065575
4.8755149
4.6090906
4.3024528
3.9577396
3.5597061
3.1102253