/*--------------------------------*- C++ -*----------------------------------*\
  =========                 |
  \\      /  F ield         | OpenFOAM: The Open Source CFD Toolbox
   \\    /   O peration     | Website:  https://openfoam.org
    \\  /    A nd           | Version:  9
     \\/     M anipulation  |
\*---------------------------------------------------------------------------*/
FoamFile
{
    format      ascii;
    class       volVectorField;
    location    "0.16";
    object      U;
}
// * * * * * * * * * * * * * * * * * * * * * * * * * * * * * * * * * * * * * //

dimensions      [0 1 -1 0 0 0 0];

internalField   nonuniform List<vector> 
10000
(
(-0.0030073383 0.0036047024 0)
(-0.0023042615 0.0035857842 0)
(0.00072118565 0.0036109355 0)
(0.0019225597 0.0036183598 0)
(0.0038543814 0.003637167 0)
(0.0056080769 0.0036535569 0)
(0.007373016 0.003668262 0)
(0.0091449443 0.0036788833 0)
(0.010924954 0.0036826635 0)
(0.012713812 0.0036765041 0)
(0.014512038 0.0036578752 0)
(0.016320091 0.0036231258 0)
(0.018136677 0.0035688169 0)
(0.019963248 0.0034934286 0)
(0.021804497 0.0033936576 0)
(0.023655719 0.0032661467 0)
(0.02551027 0.0031103126 0)
(0.027367706 0.0029229494 0)
(0.029221508 0.0026981824 0)
(0.031063219 0.0024389596 0)
(0.032882082 0.0021453368 0)
(0.034676345 0.0017992931 0)
(0.036428946 0.0014066145 0)
(0.038095334 0.00096703445 0)
(0.039602783 0.00048601603 0)
(0.040934578 5.7325489e-05 0)
(0.04208803 -0.00033229689 0)
(0.043145838 -0.00060584077 0)
(0.044192119 -0.00088471218 0)
(0.045134555 -0.0011790118 0)
(0.045864796 -0.0015012075 0)
(0.046337136 -0.0018355256 0)
(0.04654478 -0.0021837394 0)
(0.04645877 -0.0025369239 0)
(0.04605103 -0.0029284302 0)
(0.045297024 -0.0033424897 0)
(0.044175343 -0.0037733684 0)
(0.042679258 -0.0042129728 0)
(0.040848646 -0.0046565595 0)
(0.038600176 -0.0051346516 0)
(0.035954942 -0.0055684133 0)
(0.033022387 -0.0059610848 0)
(0.029786815 -0.0063540786 0)
(0.02628462 -0.0067216016 0)
(0.022555432 -0.0070506609 0)
(0.018639578 -0.0073332184 0)
(0.014574528 -0.0075604475 0)
(0.010400239 -0.0077252574 0)
(0.0061559468 -0.0078276491 0)
(0.001873412 -0.0078720791 0)
(-0.0024276848 -0.007863042 0)
(-0.0067283779 -0.0078011038 0)
(-0.01100948 -0.0076833608 0)
(-0.015236657 -0.0075053883 0)
(-0.019362321 -0.0072664276 0)
(-0.023345292 -0.0069767237 0)
(-0.027150143 -0.0066453845 0)
(-0.030740388 -0.0062804458 0)
(-0.03409543 -0.0058858911 0)
(-0.037115411 -0.0054495757 0)
(-0.039759514 -0.0050240967 0)
(-0.042061928 -0.0045973297 0)
(-0.043991533 -0.0041675969 0)
(-0.045530631 -0.0037396492 0)
(-0.046675385 -0.0033211259 0)
(-0.047436332 -0.0029195964 0)
(-0.047836807 -0.0025423918 0)
(-0.04793848 -0.0022154425 0)
(-0.047687169 -0.0018407899 0)
(-0.047134071 -0.0015256266 0)
(-0.046356833 -0.0012115541 0)
(-0.045348862 -0.00092824172 0)
(-0.044236943 -0.0006640634 0)
(-0.043100634 -0.00038091115 0)
(-0.041916488 -2.3261516e-05 0)
(-0.040537444 0.00041937683 0)
(-0.038948209 0.00088321316 0)
(-0.037222705 0.0013342899 0)
(-0.035398827 0.001731365 0)
(-0.033539101 0.0020846067 0)
(-0.031658323 0.0023844957 0)
(-0.029759624 0.0026462781 0)
(-0.02785295 0.0028718616 0)
(-0.025946584 0.003064556 0)
(-0.024044089 0.0032223913 0)
(-0.022149143 0.0033513245 0)
(-0.020265164 0.0034523437 0)
(-0.018397584 0.003530296 0)
(-0.016544918 0.0035875306 0)
(-0.014704929 0.0036248747 0)
(-0.012877778 0.0036454156 0)
(-0.01106228 0.0036528107 0)
(-0.0092574396 0.0036492715 0)
(-0.007462361 0.0036388402 0)
(-0.0056747719 0.0036239344 0)
(-0.0039012474 0.0036058228 0)
(-0.0019480998 0.003586906 0)
(-0.00073458576 0.0035698642 0)
(0.0023249498 0.0035449874 0)
(0.0030420235 0.0035450691 0)
(-0.0030304282 0.0030265217 0)
(-0.0022973947 0.0029970727 0)
(0.00075398372 0.0030221359 0)
(0.0019525065 0.0030240212 0)
(0.003895072 0.0030393016 0)
(0.005646944 0.0030514666 0)
(0.0074086114 0.0030600967 0)
(0.0091725132 0.003061128 0)
(0.010939164 0.0030517871 0)
(0.012709731 0.0030284724 0)
(0.014484152 0.0029868214 0)
(0.016261786 0.002923365 0)
(0.01804351 0.002833892 0)
(0.019830917 0.002714069 0)
(0.021627043 0.0025589001 0)
(0.023429587 0.0023742646 0)
(0.025231601 0.0021557017 0)
(0.027027456 0.0018968293 0)
(0.028816616 0.0015833632 0)
(0.030595879 0.0012259334 0)
(0.032332958 0.00083059512 0)
(0.034031484 0.00040651898 0)
(0.035691569 -5.6113368e-05 0)
(0.037267772 -0.00055665507 0)
(0.038781199 -0.0010527508 0)
(0.040196247 -0.001496969 0)
(0.041493972 -0.0018661464 0)
(0.042650045 -0.0021094482 0)
(0.043664308 -0.0023147406 0)
(0.044557727 -0.0025219106 0)
(0.045255656 -0.0027375921 0)
(0.045724779 -0.0029414902 0)
(0.045941882 -0.0031369109 0)
(0.045842256 -0.0032648574 0)
(0.04540419 -0.0034106386 0)
(0.044640762 -0.003551307 0)
(0.043520858 -0.0036867744 0)
(0.042035032 -0.0038183165 0)
(0.040184164 -0.0039502715 0)
(0.037957098 -0.0041239617 0)
(0.035400343 -0.0042576114 0)
(0.03250425 -0.0043984699 0)
(0.029282807 -0.0045402059 0)
(0.025826898 -0.0046883863 0)
(0.022158564 -0.0048503941 0)
(0.018312888 -0.0049994232 0)
(0.014327119 -0.0051287902 0)
(0.010236365 -0.005229947 0)
(0.006071162 -0.0052973982 0)
(0.0018599669 -0.0053269144 0)
(-0.0023758405 -0.0053039927 0)
(-0.0066079526 -0.0052301483 0)
(-0.010814274 -0.0051231454 0)
(-0.014961652 -0.0049912596 0)
(-0.019014253 -0.0048357513 0)
(-0.022936542 -0.0046687584 0)
(-0.026690316 -0.0044975708 0)
(-0.030235673 -0.0043323649 0)
(-0.033531285 -0.0041783366 0)
(-0.036524413 -0.004015327 0)
(-0.039173898 -0.0039008527 0)
(-0.041460735 -0.0038027048 0)
(-0.043371587 -0.0037057717 0)
(-0.044898825 -0.0036072755 0)
(-0.046042621 -0.0035052792 0)
(-0.046815197 -0.0033995934 0)
(-0.047259894 -0.0033072573 0)
(-0.047334931 -0.0031794904 0)
(-0.047067149 -0.002981534 0)
(-0.046551866 -0.002813091 0)
(-0.045798872 -0.0026181149 0)
(-0.044846398 -0.0024300712 0)
(-0.043745972 -0.0022361141 0)
(-0.042528425 -0.0020249801 0)
(-0.04119586 -0.0016786755 0)
(-0.039718938 -0.0012155903 0)
(-0.038126117 -0.00072338935 0)
(-0.036468905 -0.0002183757 0)
(-0.03474171 0.00024703063 0)
(-0.032975963 0.00067331327 0)
(-0.031181605 0.0010802529 0)
(-0.029350692 0.0014397554 0)
(-0.027505649 0.0017640713 0)
(-0.025659626 0.0020397359 0)
(-0.023813795 0.002264139 0)
(-0.021968781 0.002453778 0)
(-0.020129308 0.0026105204 0)
(-0.018299445 0.0027394807 0)
(-0.016481495 0.0028378084 0)
(-0.014672372 0.0029081579 0)
(-0.0128697 0.0029546062 0)
(-0.011073917 0.0029816329 0)
(-0.0092838382 0.0029936603 0)
(-0.0074979408 0.0029942914 0)
(-0.0057162674 0.0029867453 0)
(-0.0039450532 0.0029739218 0)
(-0.0019894429 0.0029583413 0)
(-0.00077950771 0.0029437022 0)
(0.0022973145 0.0029180527 0)
(0.0030415502 0.0029252969 0)
(-0.00304594 0.00014674568 0)
(-0.0023052424 0.00012763334 0)
(0.00075689405 0.00014277427 0)
(0.001953019 0.00014379632 0)
(0.0038995787 0.00015144531 0)
(0.0056494458 0.00015635364 0)
(0.0074059705 0.00015688095 0)
(0.0091620402 0.00015050574 0)
(0.010918747 0.00013421584 0)
(0.01267539 0.00010548766 0)
(0.014432928 6.1195712e-05 0)
(0.016191574 -1.1384288e-06 0)
(0.017949477 -8.2583976e-05 0)
(0.019707743 -0.00018460688 0)
(0.021480446 -0.00031060529 0)
(0.023263804 -0.00047536138 0)
(0.025039552 -0.00067733627 0)
(0.026797346 -0.00091299404 0)
(0.028547487 -0.0011674011 0)
(0.030302467 -0.0014469543 0)
(0.032050553 -0.001755395 0)
(0.033773998 -0.0020500241 0)
(0.035447437 -0.0023523571 0)
(0.037079405 -0.0026298854 0)
(0.038644328 -0.0028664055 0)
(0.040106843 -0.0030774934 0)
(0.041467879 -0.003218972 0)
(0.042698586 -0.003307959 0)
(0.043790861 -0.0032766193 0)
(0.044730368 -0.0031800384 0)
(0.045466601 -0.0030152973 0)
(0.045959384 -0.0027839073 0)
(0.046242337 -0.0024907889 0)
(0.046203801 -0.0021479556 0)
(0.045780522 -0.0017297578 0)
(0.045033308 -0.001311086 0)
(0.043916833 -0.00088339414 0)
(0.042420355 -0.0004628602 0)
(0.040544018 -6.1486884e-05 0)
(0.038290954 0.00029408549 0)
(0.035676747 0.00060681926 0)
(0.032735564 0.00084248593 0)
(0.029493646 0.0010563241 0)
(0.025973164 0.0012268411 0)
(0.022246091 0.0013574045 0)
(0.018367268 0.0014345521 0)
(0.014355454 0.0014755427 0)
(0.010249235 0.0014947971 0)
(0.0060813168 0.0015041833 0)
(0.0018804732 0.0015138658 0)
(-0.0023387459 0.0015464117 0)
(-0.0065639035 0.0015997333 0)
(-0.010781721 0.0016500955 0)
(-0.014953965 0.0016886027 0)
(-0.019039236 0.0016951233 0)
(-0.023002643 0.00165083 0)
(-0.026806887 0.0015439537 0)
(-0.030412954 0.0013714402 0)
(-0.033770102 0.0011421494 0)
(-0.036830966 0.00085707437 0)
(-0.039542295 0.00052248176 0)
(-0.041865327 0.00013158042 0)
(-0.043798427 -0.0003084746 0)
(-0.045336699 -0.00077664762 0)
(-0.046478497 -0.0012529743 0)
(-0.047252889 -0.0017248494 0)
(-0.047634271 -0.0021985264 0)
(-0.047632818 -0.002552088 0)
(-0.047341504 -0.0028828969 0)
(-0.046791452 -0.0031478317 0)
(-0.045992138 -0.0033403507 0)
(-0.044977754 -0.0034577081 0)
(-0.043832597 -0.003502261 0)
(-0.042534593 -0.0034529215 0)
(-0.041092107 -0.0033117381 0)
(-0.039563722 -0.003092203 0)
(-0.037931513 -0.0028559242 0)
(-0.036233702 -0.002573649 0)
(-0.03449114 -0.0022648112 0)
(-0.032693293 -0.0019627545 0)
(-0.030883182 -0.0016573097 0)
(-0.029071804 -0.0013591894 0)
(-0.027254024 -0.001095152 0)
(-0.025452461 -0.00085406165 0)
(-0.023641081 -0.00063393914 0)
(-0.021818812 -0.00044956355 0)
(-0.019999711 -0.00030135058 0)
(-0.018193273 -0.00019026966 0)
(-0.016401244 -0.00010321278 0)
(-0.014613997 -3.5485397e-05 0)
(-0.012830119 1.3931089e-05 0)
(-0.011048769 4.7396323e-05 0)
(-0.009269748 6.817007e-05 0)
(-0.007493435 7.8156713e-05 0)
(-0.0057181797 8.0028385e-05 0)
(-0.0039510068 7.6790226e-05 0)
(-0.0019969439 6.9787561e-05 0)
(-0.00079001999 5.8935932e-05 0)
(0.0022960369 4.3688986e-05 0)
(0.0030489967 5.2048373e-05 0)
(-0.0030507094 -0.001403824 0)
(-0.0022966629 -0.0014104503 0)
(0.00077548852 -0.0013905816 0)
(0.0019701296 -0.0013748151 0)
(0.0039192726 -0.001359791 0)
(0.0056666984 -0.0013483285 0)
(0.0074198303 -0.0013404813 0)
(0.0091696504 -0.0013385105 0)
(0.010916962 -0.0013469732 0)
(0.012662679 -0.0013684922 0)
(0.014406853 -0.0014050946 0)
(0.016151107 -0.0014602863 0)
(0.017896967 -0.00153492 0)
(0.019643959 -0.0016296366 0)
(0.021381863 -0.0017470497 0)
(0.023113192 -0.001904128 0)
(0.024849024 -0.0020959321 0)
(0.026597455 -0.0023156779 0)
(0.028347694 -0.0025453108 0)
(0.030077641 -0.0027932809 0)
(0.031803844 -0.0030599935 0)
(0.033511799 -0.0033378356 0)
(0.035191136 -0.0036124236 0)
(0.036833552 -0.0038633763 0)
(0.038411687 -0.004096838 0)
(0.039918279 -0.0042741119 0)
(0.041332656 -0.0043823252 0)
(0.04265445 -0.0044057369 0)
(0.04384593 -0.0043233136 0)
(0.044867021 -0.0041213878 0)
(0.045699597 -0.0038283131 0)
(0.046303297 -0.0034257169 0)
(0.046642027 -0.0029156258 0)
(0.046676391 -0.002367019 0)
(0.046323005 -0.0016580028 0)
(0.045577148 -0.00095277694 0)
(0.044466065 -0.0002217197 0)
(0.042959717 0.0005151629 0)
(0.041048446 0.0012234031 0)
(0.038735703 0.0018828494 0)
(0.036059806 0.0024785107 0)
(0.033063176 0.0029996689 0)
(0.02977285 0.0034216974 0)
(0.026228483 0.003763387 0)
(0.022460391 0.0040403958 0)
(0.018516784 0.0042478111 0)
(0.014463151 0.0043877313 0)
(0.010330424 0.0044710617 0)
(0.0061444697 0.0045231534 0)
(0.0019274262 0.0045569416 0)
(-0.0023101847 0.0046017782 0)
(-0.006553224 0.0046549909 0)
(-0.01078505 0.0046843177 0)
(-0.014986221 0.0046769723 0)
(-0.019131456 0.0046083009 0)
(-0.023175565 0.0044537769 0)
(-0.027064213 0.0041959343 0)
(-0.030737404 0.0038310212 0)
(-0.034149757 0.00337138 0)
(-0.037250495 0.0028238311 0)
(-0.040005881 0.0021887507 0)
(-0.042395874 0.0014807538 0)
(-0.04438 0.00071465175 0)
(-0.045938125 -8.3593615e-05 0)
(-0.047078934 -0.00088241502 0)
(-0.047841002 -0.0016773815 0)
(-0.048158653 -0.0023898569 0)
(-0.048082222 -0.003023926 0)
(-0.047716013 -0.0035773844 0)
(-0.047056361 -0.0040221412 0)
(-0.046156027 -0.0043510754 0)
(-0.045061401 -0.0045751926 0)
(-0.043802602 -0.0046938811 0)
(-0.042406535 -0.0046713916 0)
(-0.040909405 -0.0045756016 0)
(-0.039341037 -0.004402487 0)
(-0.037687044 -0.0041711439 0)
(-0.035956756 -0.0039064898 0)
(-0.034207617 -0.0036176783 0)
(-0.032442104 -0.0033236418 0)
(-0.030647648 -0.0030521978 0)
(-0.028853323 -0.0027830045 0)
(-0.027060423 -0.0025421861 0)
(-0.02525343 -0.0023154777 0)
(-0.023459806 -0.002103561 0)
(-0.021682214 -0.0019246795 0)
(-0.019911757 -0.0017812748 0)
(-0.018138879 -0.0016743811 0)
(-0.016360173 -0.0015915498 0)
(-0.01458459 -0.0015283082 0)
(-0.012812556 -0.0014835459 0)
(-0.011042174 -0.0014547045 0)
(-0.0092727649 -0.0014402853 0)
(-0.0075034734 -0.0014353632 0)
(-0.005732933 -0.0014394987 0)
(-0.0039685205 -0.0014493814 0)
(-0.0020184097 -0.0014612806 0)
(-0.00081377548 -0.0014815307 0)
(0.0022834115 -0.0015015905 0)
(0.0030487197 -0.0015032545 0)
(-0.0030503503 -0.0031467498 0)
(-0.0022835745 -0.0031423959 0)
(0.00080213343 -0.0031206543 0)
(0.0019966018 -0.0030927503 0)
(0.0039413197 -0.0030752406 0)
(0.0056861118 -0.0030596481 0)
(0.0074353529 -0.0030482839 0)
(0.0091774097 -0.0030443993 0)
(0.010912687 -0.0030522515 0)
(0.012643173 -0.0030758306 0)
(0.01436919 -0.0031163805 0)
(0.016091703 -0.0031787479 0)
(0.017811994 -0.0032661903 0)
(0.019529675 -0.003382149 0)
(0.021241983 -0.0035288121 0)
(0.022952835 -0.0036985509 0)
(0.024668039 -0.0038923358 0)
(0.026390003 -0.0041103229 0)
(0.028113449 -0.004356279 0)
(0.029832916 -0.0046217058 0)
(0.031552768 -0.0048888155 0)
(0.033269532 -0.0051593467 0)
(0.03497037 -0.0054091307 0)
(0.036643557 -0.0056327302 0)
(0.038282349 -0.0058016362 0)
(0.039870634 -0.0058943457 0)
(0.041387018 -0.0058842143 0)
(0.0428103 -0.0057567035 0)
(0.044128615 -0.0055145127 0)
(0.045279578 -0.0051182226 0)
(0.046218923 -0.0045745466 0)
(0.046935536 -0.0038936482 0)
(0.04737587 -0.0030819946 0)
(0.047546709 -0.0021581014 0)
(0.047289874 -0.0010718724 0)
(0.046574228 5.7987321e-05 0)
(0.045497916 0.0012353464 0)
(0.043985847 0.0024290101 0)
(0.042037723 0.0035964995 0)
(0.039676012 0.0047002651 0)
(0.036925286 0.0057195295 0)
(0.033809902 0.0066167281 0)
(0.03038576 0.0073779735 0)
(0.026715175 0.0079867219 0)
(0.022846813 0.0084351714 0)
(0.018822188 0.0087663212 0)
(0.014676356 0.0089926947 0)
(0.010471836 0.0091398344 0)
(0.0062418788 0.0092153903 0)
(0.0019942298 0.0092565226 0)
(-0.0022703465 0.0093118566 0)
(-0.0065504857 0.0093777996 0)
(-0.010841742 0.0094009307 0)
(-0.015122634 0.0093403039 0)
(-0.019365026 0.009187701 0)
(-0.023526421 0.0089092945 0)
(-0.027548101 0.0084876246 0)
(-0.031361035 0.0079083683 0)
(-0.034903664 0.0071335398 0)
(-0.038141 0.0061983554 0)
(-0.041011613 0.0051265105 0)
(-0.043462342 0.0039426449 0)
(-0.045480535 0.0026900187 0)
(-0.047044823 0.0014116506 0)
(-0.048175042 0.00014371758 0)
(-0.048853752 -0.0011056661 0)
(-0.049064459 -0.0022062232 0)
(-0.048893624 -0.0032225563 0)
(-0.048402041 -0.0040985372 0)
(-0.047620917 -0.0048322761 0)
(-0.046598755 -0.0054132788 0)
(-0.045373328 -0.0058541338 0)
(-0.043980942 -0.0061221694 0)
(-0.042466446 -0.0062572222 0)
(-0.040871772 -0.0062743239 0)
(-0.039207408 -0.0061884466 0)
(-0.037483602 -0.0060060316 0)
(-0.035728122 -0.0057744176 0)
(-0.033955738 -0.0055143386 0)
(-0.032174355 -0.0052310196 0)
(-0.030387706 -0.0049367678 0)
(-0.028605447 -0.0046589449 0)
(-0.026828668 -0.0043896617 0)
(-0.025054255 -0.0041474024 0)
(-0.023288783 -0.003938021 0)
(-0.021533404 -0.0037534364 0)
(-0.019784393 -0.0035948081 0)
(-0.018036334 -0.0034598388 0)
(-0.016285776 -0.0033545758 0)
(-0.014534373 -0.0032769954 0)
(-0.01278245 -0.0032232327 0)
(-0.011029322 -0.0031892689 0)
(-0.0092722238 -0.0031723818 0)
(-0.0075122837 -0.0031684197 0)
(-0.0057500062 -0.0031737481 0)
(-0.0039885724 -0.0031855065 0)
(-0.0020427542 -0.003200527 0)
(-0.00084125694 -0.0032245079 0)
(0.0022656789 -0.0032471547 0)
(0.0030443201 -0.0032567692 0)
(-0.0030410901 -0.0049487198 0)
(-0.0022597087 -0.0049319788 0)
(0.00083729893 -0.0049040736 0)
(0.0020304095 -0.0048664192 0)
(0.0039694602 -0.004842069 0)
(0.0057129181 -0.0048182792 0)
(0.007456704 -0.0047993311 0)
(0.0091896942 -0.0047890807 0)
(0.010911779 -0.0047911757 0)
(0.012627024 -0.0048089427 0)
(0.014334528 -0.0048453688 0)
(0.016034105 -0.004904881 0)
(0.017728599 -0.0049905257 0)
(0.019418674 -0.0051050043 0)
(0.021105212 -0.0052490411 0)
(0.022791844 -0.0054200135 0)
(0.024482045 -0.0056193008 0)
(0.026180928 -0.0058432391 0)
(0.027886385 -0.0060959812 0)
(0.029597846 -0.006362806 0)
(0.031321473 -0.0066327463 0)
(0.033049053 -0.0068950436 0)
(0.034777203 -0.0071363044 0)
(0.036502001 -0.0073344499 0)
(0.038212256 -0.0074685305 0)
(0.039898646 -0.0075103226 0)
(0.041533936 -0.0074398337 0)
(0.04308853 -0.0072090146 0)
(0.044548426 -0.0068344874 0)
(0.045870824 -0.0062924977 0)
(0.046990285 -0.0055306491 0)
(0.047869711 -0.0045857845 0)
(0.0484632 -0.0034541122 0)
(0.048783302 -0.0021577842 0)
(0.048646757 -0.0006947781 0)
(0.04800241 0.0008673126 0)
(0.046964366 0.0024957963 0)
(0.045456265 0.0041424165 0)
(0.04346154 0.0057585628 0)
(0.041005107 0.0073046402 0)
(0.038125049 0.0087157142 0)
(0.034870531 0.0099398897 0)
(0.031289601 0.010987509 0)
(0.027427858 0.011827276 0)
(0.023375597 0.01246702 0)
(0.019201764 0.012909945 0)
(0.014954708 0.013197383 0)
(0.010661261 0.013381526 0)
(0.0063566428 0.013479856 0)
(0.0020693761 0.013531869 0)
(-0.0022280103 0.013604715 0)
(-0.0065533595 0.013694264 0)
(-0.010925398 0.013729999 0)
(-0.015312957 0.013669529 0)
(-0.019685741 0.013469821 0)
(-0.024007388 0.013083493 0)
(-0.028203603 0.01248895 0)
(-0.032234628 0.011659454 0)
(-0.036005078 0.010603052 0)
(-0.039402883 0.0093116137 0)
(-0.042404892 0.0078342573 0)
(-0.044971484 0.0062085251 0)
(-0.047043986 0.0044752956 0)
(-0.048609696 0.002710907 0)
(-0.049712519 0.00096559321 0)
(-0.05029718 -0.00071435985 0)
(-0.050371213 -0.0022603619 0)
(-0.050059179 -0.0036504314 0)
(-0.049398823 -0.0048588846 0)
(-0.048436689 -0.0058672711 0)
(-0.047241223 -0.0066703552 0)
(-0.045833888 -0.0072662246 0)
(-0.044269789 -0.0076633312 0)
(-0.042621846 -0.0078946071 0)
(-0.040902746 -0.0079782725 0)
(-0.039134035 -0.0079325359 0)
(-0.037333557 -0.0077853093 0)
(-0.035524208 -0.0075812615 0)
(-0.033721421 -0.0073204219 0)
(-0.0319196 -0.0070339834 0)
(-0.030128367 -0.0067426244 0)
(-0.028356664 -0.0064540582 0)
(-0.026596851 -0.0061782165 0)
(-0.024847392 -0.0059277113 0)
(-0.02310899 -0.0057055131 0)
(-0.021379754 -0.00551254 0)
(-0.019656414 -0.0053490872 0)
(-0.01793442 -0.0052142162 0)
(-0.016210672 -0.0051090615 0)
(-0.014484041 -0.0050317347 0)
(-0.012753107 -0.0049796345 0)
(-0.011017345 -0.0049488451 0)
(-0.009275668 -0.0049352176 0)
(-0.0075263425 -0.004937054 0)
(-0.0057695216 -0.0049474852 0)
(-0.0040123829 -0.0049642275 0)
(-0.0020720146 -0.004986259 0)
(-0.00087228639 -0.0050162113 0)
(0.002241775 -0.0050447722 0)
(0.0030344106 -0.0050629487 0)
(-0.0030252905 -0.0067531094 0)
(-0.0022258584 -0.0067237408 0)
(0.00088246758 -0.0066872519 0)
(0.0020755334 -0.0066393927 0)
(0.0040083789 -0.0066034962 0)
(0.0057499943 -0.0065689389 0)
(0.0074880412 -0.0065392075 0)
(0.0092115008 -0.0065184671 0)
(0.010921275 -0.0065094281 0)
(0.012619971 -0.006516044 0)
(0.014306669 -0.0065440046 0)
(0.015982528 -0.0065968121 0)
(0.017650453 -0.0066776836 0)
(0.019312387 -0.0067877913 0)
(0.02097101 -0.0069306479 0)
(0.022629545 -0.0071048709 0)
(0.024294743 -0.0073105589 0)
(0.025966217 -0.0075462437 0)
(0.027649995 -0.0078108062 0)
(0.029355503 -0.008091632 0)
(0.031082733 -0.0083791823 0)
(0.032830518 -0.0086543678 0)
(0.034597839 -0.00890341 0)
(0.036380508 -0.0091036013 0)
(0.038177465 -0.0092248822 0)
(0.03997195 -0.0092429623 0)
(0.041762535 -0.0091277793 0)
(0.043491469 -0.0088363388 0)
(0.045121308 -0.0083406445 0)
(0.046659665 -0.0076338872 0)
(0.048004108 -0.0066627298 0)
(0.049098431 -0.0054457128 0)
(0.049902657 -0.0039870115 0)
(0.050417921 -0.0023023239 0)
(0.050439143 -0.00041494537 0)
(0.049900701 0.0016186514 0)
(0.048919295 0.0037509167 0)
(0.047404284 0.005912827 0)
(0.045363337 0.0080352835 0)
(0.042802188 0.010052721 0)
(0.039732896 0.011892593 0)
(0.03625512 0.01352544 0)
(0.032445171 0.014880312 0)
(0.028362888 0.015950512 0)
(0.024091772 0.016747912 0)
(0.019707028 0.017298328 0)
(0.015293139 0.017624297 0)
(0.010889416 0.017798203 0)
(0.0065131924 0.01789568 0)
(0.0021768366 0.017948658 0)
(-0.0021585231 0.01804756 0)
(-0.006538803 0.018187 0)
(-0.010994863 0.01827228 0)
(-0.015522032 0.018250687 0)
(-0.020100135 0.01804034 0)
(-0.024664604 0.01758565 0)
(-0.029135901 0.016817247 0)
(-0.033414887 0.015734821 0)
(-0.037421304 0.014356527 0)
(-0.04107866 0.012672848 0)
(-0.044280306 0.010723087 0)
(-0.046981645 0.0085764244 0)
(-0.049131327 0.0063156043 0)
(-0.050698882 0.0040046941 0)
(-0.051734534 0.0017238321 0)
(-0.052202646 -0.00043199489 0)
(-0.052111716 -0.0024624223 0)
(-0.051590427 -0.0042530039 0)
(-0.05070504 -0.0057999632 0)
(-0.049511023 -0.0070878232 0)
(-0.04807395 -0.0081201796 0)
(-0.046442319 -0.0088613159 0)
(-0.044685168 -0.0093794447 0)
(-0.042855617 -0.0096864077 0)
(-0.040982002 -0.0098046496 0)
(-0.039084726 -0.0097756496 0)
(-0.037201112 -0.0096402535 0)
(-0.035330185 -0.0094195766 0)
(-0.033473052 -0.0091485887 0)
(-0.031658749 -0.0088444319 0)
(-0.02986734 -0.0085362473 0)
(-0.02809759 -0.0082266604 0)
(-0.026355868 -0.007934067 0)
(-0.024632173 -0.0076681432 0)
(-0.022921403 -0.0074339706 0)
(-0.021221712 -0.0072328125 0)
(-0.019527799 -0.0070651125 0)
(-0.017835031 -0.0069304877 0)
(-0.016139072 -0.0068275992 0)
(-0.014437867 -0.0067545642 0)
(-0.012729784 -0.0067085381 0)
(-0.011012528 -0.0066853491 0)
(-0.0092857194 -0.0066802654 0)
(-0.0075477472 -0.0066897239 0)
(-0.0057978492 -0.0067096841 0)
(-0.004045616 -0.0067364038 0)
(-0.0021106673 -0.0067684049 0)
(-0.00091281786 -0.0068073263 0)
(0.0022084339 -0.0068440357 0)
(0.0030196118 -0.0068743682 0)
(-0.0030015651 -0.0085623068 0)
(-0.002179089 -0.0085167395 0)
(0.00093864672 -0.008467569 0)
(0.0021333711 -0.0084092251 0)
(0.0040610431 -0.0083584822 0)
(0.0058005018 -0.0083096494 0)
(0.0075327726 -0.0082653661 0)
(0.0092474419 -0.0082296545 0)
(0.010944751 -0.0082056155 0)
(0.01262558 -0.0081988579 0)
(0.0142897 -0.0082146291 0)
(0.0159392 -0.008257057 0)
(0.01757921 -0.0083296349 0)
(0.019210096 -0.0084353166 0)
(0.020835572 -0.0085779127 0)
(0.022462489 -0.008756198 0)
(0.024094454 -0.0089725982 0)
(0.025737946 -0.0092270484 0)
(0.027401883 -0.0095094205 0)
(0.029093869 -0.009815089 0)
(0.030826285 -0.010127238 0)
(0.032595432 -0.010441098 0)
(0.034401732 -0.010725743 0)
(0.036257383 -0.010956528 0)
(0.038152592 -0.011098549 0)
(0.0400784 -0.011123072 0)
(0.042026221 -0.010983261 0)
(0.043964099 -0.010667302 0)
(0.045840692 -0.010077039 0)
(0.047638657 -0.009221603 0)
(0.049269846 -0.0080596658 0)
(0.050644892 -0.0065700763 0)
(0.051720363 -0.0047642225 0)
(0.052484577 -0.002643284 0)
(0.052710521 -0.0003083067 0)
(0.05232439 0.0022632804 0)
(0.051426549 0.0049682342 0)
(0.049919666 0.0077176404 0)
(0.047790016 0.010421164 0)
(0.045058219 0.012971123 0)
(0.041798424 0.015310458 0)
(0.038061491 0.017371232 0)
(0.03391786 0.019065918 0)
(0.029495829 0.020366906 0)
(0.024918361 0.021295473 0)
(0.020265345 0.021870024 0)
(0.015632151 0.022173814 0)
(0.011099607 0.022289498 0)
(0.0066580526 0.022319832 0)
(0.0022933081 0.022338626 0)
(-0.0020536473 0.022462293 0)
(-0.0064706682 0.02268674 0)
(-0.011019522 0.022880123 0)
(-0.015713708 0.022949429 0)
(-0.02052961 0.022791319 0)
(-0.025417497 0.022325646 0)
(-0.030247659 0.021444142 0)
(-0.034892181 0.020141112 0)
(-0.039264769 0.018409729 0)
(-0.043232211 0.016273741 0)
(-0.046692738 0.013803094 0)
(-0.049563575 0.011079414 0)
(-0.051791626 0.0081940121 0)
(-0.053367112 0.0052575974 0)
(-0.054303433 0.0023764353 0)
(-0.05462485 -0.00032851692 0)
(-0.054321056 -0.0028923582 0)
(-0.053510208 -0.005117015 0)
(-0.052333025 -0.0070207798 0)
(-0.050848398 -0.0085787092 0)
(-0.049104797 -0.0098319268 0)
(-0.047182972 -0.010711403 0)
(-0.045183302 -0.011317376 0)
(-0.043132651 -0.011658974 0)
(-0.041074384 -0.011785684 0)
(-0.039048798 -0.011753611 0)
(-0.037053849 -0.011591347 0)
(-0.03510619 -0.011326926 0)
(-0.033216834 -0.011017339 0)
(-0.031374614 -0.010674899 0)
(-0.029574911 -0.010319394 0)
(-0.027815433 -0.0099818897 0)
(-0.026096015 -0.0096647348 0)
(-0.024401483 -0.0093770062 0)
(-0.022724466 -0.0091276569 0)
(-0.02105846 -0.0089176447 0)
(-0.019398304 -0.0087460519 0)
(-0.01773797 -0.0086119169 0)
(-0.01607261 -0.0085132239 0)
(-0.014399581 -0.0084473203 0)
(-0.012715548 -0.0084102113 0)
(-0.011018116 -0.0083977529 0)
(-0.0093065835 -0.0084053709 0)
(-0.0075802935 -0.0084274634 0)
(-0.005838535 -0.0084606114 0)
(-0.0040910241 -0.0085004714 0)
(-0.0021605756 -0.0085453721 0)
(-0.00096267352 -0.0085944468 0)
(0.002162887 -0.0086410584 0)
(0.002995633 -0.0086884291 0)
(-0.0029674779 -0.010384741 0)
(-0.0021147451 -0.010318213 0)
(0.001008861 -0.010253532 0)
(0.0022059593 -0.010183788 0)
(0.0041311319 -0.010115618 0)
(0.005868454 -0.010047034 0)
(0.0075957676 -0.0099831851 0)
(0.0093013949 -0.0099276704 0)
(0.010984745 -0.0098853907 0)
(0.012646353 -0.0098615833 0)
(0.014286788 -0.0098604367 0)
(0.015908768 -0.0098898483 0)
(0.017516616 -0.0099498266 0)
(0.019111691 -0.010048649 0)
(0.020700992 -0.010187639 0)
(0.022289252 -0.010372255 0)
(0.023882041 -0.010601963 0)
(0.025491473 -0.010874854 0)
(0.027128108 -0.011186986 0)
(0.028807851 -0.011530621 0)
(0.030530606 -0.011891854 0)
(0.032309837 -0.012262427 0)
(0.034164192 -0.012607357 0)
(0.036093418 -0.012899078 0)
(0.038100471 -0.013102166 0)
(0.040180862 -0.013169674 0)
(0.042316486 -0.013053959 0)
(0.044500057 -0.01271024 0)
(0.046672172 -0.012085962 0)
(0.048783399 -0.011108954 0)
(0.050763778 -0.0097778084 0)
(0.052510138 -0.00801421 0)
(0.053960648 -0.0058465041 0)
(0.05502244 -0.0032570763 0)
(0.055510246 -0.00040653066 0)
(0.055357013 0.0027744939 0)
(0.054567613 0.0061359768 0)
(0.053064542 0.0095645696 0)
(0.050835474 0.012921643 0)
(0.047919636 0.016144114 0)
(0.044368497 0.019065317 0)
(0.040250293 0.021542506 0)
(0.035681787 0.023584419 0)
(0.030831438 0.025124349 0)
(0.025828899 0.026143553 0)
(0.020811658 0.026698468 0)
(0.015929003 0.026901425 0)
(0.011240856 0.026874554 0)
(0.0067498675 0.026767977 0)
(0.0024089652 0.026709511 0)
(-0.0018910645 0.026864428 0)
(-0.0062982024 0.027226862 0)
(-0.010926351 0.027614556 0)
(-0.015816154 0.027877753 0)
(-0.020939357 0.027839783 0)
(-0.026235376 0.027387778 0)
(-0.031549696 0.026436971 0)
(-0.036681344 0.024891835 0)
(-0.041520529 0.022800946 0)
(-0.045914086 0.020184786 0)
(-0.049697319 0.017125015 0)
(-0.052804704 0.013723853 0)
(-0.055156587 0.010117531 0)
(-0.056707123 0.006455701 0)
(-0.057497761 0.0028735185 0)
(-0.05763394 -0.00049075468 0)
(-0.057047972 -0.0035827583 0)
(-0.055849547 -0.0062979568 0)
(-0.054282586 -0.0085858645 0)
(-0.052429623 -0.010434159 0)
(-0.050312128 -0.011837949 0)
(-0.04803191 -0.012845615 0)
(-0.045734057 -0.013494198 0)
(-0.043421446 -0.01383792 0)
(-0.041169788 -0.013947879 0)
(-0.038979251 -0.013863067 0)
(-0.036859315 -0.013628431 0)
(-0.034837457 -0.01330559 0)
(-0.032898705 -0.012921101 0)
(-0.031034506 -0.012512777 0)
(-0.029244175 -0.012102857 0)
(-0.027508764 -0.011719396 0)
(-0.025812839 -0.011366385 0)
(-0.024153235 -0.011053547 0)
(-0.022516194 -0.01078595 0)
(-0.020890512 -0.010565463 0)
(-0.019268987 -0.010391547 0)
(-0.017645712 -0.010260352 0)
(-0.016014567 -0.010169529 0)
(-0.014371633 -0.010113774 0)
(-0.01271366 -0.010089998 0)
(-0.011038279 -0.010092003 0)
(-0.0093434934 -0.010115777 0)
(-0.0076288454 -0.010155303 0)
(-0.0058946408 -0.010205855 0)
(-0.0041518964 -0.010263411 0)
(-0.0022240673 -0.010324033 0)
(-0.0010249755 -0.010384772 0)
(0.0021014073 -0.010445528 0)
(0.0029612257 -0.010512657 0)
(-0.0029198916 -0.012221139 0)
(-0.0020303282 -0.012129557 0)
(0.0010941189 -0.012046044 0)
(0.0022946927 -0.011962811 0)
(0.0042227895 -0.011872842 0)
(0.0059600051 -0.01178104 0)
(0.0076817744 -0.011693366 0)
(0.0093773453 -0.011613999 0)
(0.011045617 -0.011548549 0)
(0.012688127 -0.011501705 0)
(0.014301944 -0.011479571 0)
(0.015893581 -0.011488827 0)
(0.017467503 -0.011534723 0)
(0.019022981 -0.011622663 0)
(0.020566435 -0.011757521 0)
(0.022106608 -0.011946628 0)
(0.023654508 -0.012189349 0)
(0.025220024 -0.012486493 0)
(0.026817851 -0.012836654 0)
(0.028465262 -0.013232988 0)
(0.030175323 -0.013666052 0)
(0.03196571 -0.014109979 0)
(0.033855759 -0.014544948 0)
(0.035858115 -0.014935381 0)
(0.037982514 -0.015238415 0)
(0.040232738 -0.015402058 0)
(0.042598307 -0.015366758 0)
(0.045050726 -0.015062645 0)
(0.04756533 -0.014444929 0)
(0.050072694 -0.01338876 0)
(0.052492483 -0.011895808 0)
(0.054710591 -0.0098695528 0)
(0.056628675 -0.0073412269 0)
(0.058096322 -0.0042333889 0)
(0.058932673 -0.00077022232 0)
(0.059075142 0.0031048551 0)
(0.058441917 0.007235272 0)
(0.05694621 0.011498176 0)
(0.054624164 0.015672799 0)
(0.051469429 0.019590106 0)
(0.047474072 0.023100801 0)
(0.042864015 0.026092734 0)
(0.037786303 0.028523693 0)
(0.032340983 0.030340084 0)
(0.026774488 0.031413225 0)
(0.021298058 0.031884417 0)
(0.01607361 0.031859598 0)
(0.01122111 0.031541442 0)
(0.0067283832 0.031188764 0)
(0.0025024515 0.03098199 0)
(-0.0016392446 0.031176575 0)
(-0.0059444577 0.03176077 0)
(-0.010611043 0.032463215 0)
(-0.015741644 0.033045602 0)
(-0.021282735 0.033300225 0)
(-0.027091286 0.032935119 0)
(-0.033019451 0.031945342 0)
(-0.038805144 0.03019706 0)
(-0.044246301 0.027705522 0)
(-0.049177389 0.024499319 0)
(-0.053414459 0.020781744 0)
(-0.056820365 0.016592842 0)
(-0.059296183 0.012093852 0)
(-0.060832088 0.0075757634 0)
(-0.061454493 0.0031633406 0)
(-0.061268782 -0.00097022311 0)
(-0.060297821 -0.0046481675 0)
(-0.058662844 -0.0079108191 0)
(-0.056602099 -0.010592155 0)
(-0.054226654 -0.01271711 0)
(-0.051640195 -0.014260497 0)
(-0.048960311 -0.015346138 0)
(-0.046292156 -0.015987336 0)
(-0.043697577 -0.016284541 0)
(-0.041205027 -0.016306619 0)
(-0.03882921 -0.016106268 0)
(-0.036591065 -0.015767336 0)
(-0.034488971 -0.015334447 0)