/*--------------------------------*- C++ -*----------------------------------*\
  =========                 |
  \\      /  F ield         | OpenFOAM: The Open Source CFD Toolbox
   \\    /   O peration     | Website:  https://openfoam.org
    \\  /    A nd           | Version:  9
     \\/     M anipulation  |
\*---------------------------------------------------------------------------*/
FoamFile
{
    format      ascii;
    class       volScalarField;
    location    "7.5";
    object      gradTx;
}
// * * * * * * * * * * * * * * * * * * * * * * * * * * * * * * * * * * * * * //

dimensions      [0 -1 0 1 0 0 0];

internalField   nonuniform List<scalar> 10(1.5450554e-06 6.00354e-06 2.2598467e-05 0.00022453799 0.00063744463 0.0067159106 0.024108941 0.070564649 1.2275405 -0);

boundaryField
{
    inlet
    {
        type            calculated;
        value           uniform 1.5450554e-06;
    }
    outlet
    {
        type            calculated;
        value           uniform -25.014242;
    }
    bottom
    {
        type            calculated;
        value           nonuniform List<scalar> 10(1.5450554e-06 6.00354e-06 2.2598467e-05 0.00022453799 0.00063744463 0.0067159106 0.024108941 0.070564649 1.2275405 0);
    }
    top
    {
        type            calculated;
        value           nonuniform List<scalar> 10(1.5450554e-06 6.00354e-06 2.2598467e-05 0.00022453799 0.00063744463 0.0067159106 0.024108941 0.070564649 1.2275405 0);
    }
    frontAndBack
    {
        type            empty;
    }
}


// ************************************************************************* //
