/*--------------------------------*- C++ -*----------------------------------*\
  =========                 |
  \\      /  F ield         | OpenFOAM: The Open Source CFD Toolbox
   \\    /   O peration     | Website:  https://openfoam.org
    \\  /    A nd           | Version:  9
     \\/     M anipulation  |
\*---------------------------------------------------------------------------*/
FoamFile
{
    format      ascii;
    class       volScalarField;
    location    "7.5";
    object      my_laplacianT;
}
// * * * * * * * * * * * * * * * * * * * * * * * * * * * * * * * * * * * * * //

dimensions      [0 -2 0 1 0 0 0];

internalField   nonuniform List<scalar> 10(1.4567146e-05 8.2974635e-05 0.0011905444 0.0018836865 0.03039233 0.095776016 0.22346768 6.3736391 11.097884 -267.96676);

boundaryField
{
    inlet
    {
        type            extrapolatedCalculated;
        value           uniform 1.4567146e-05;
    }
    outlet
    {
        type            extrapolatedCalculated;
        value           uniform -267.96676;
    }
    bottom
    {
        type            extrapolatedCalculated;
        value           nonuniform List<scalar> 10(1.4567146e-05 8.2974635e-05 0.0011905444 0.0018836865 0.03039233 0.095776016 0.22346768 6.3736391 11.097884 -267.96676);
    }
    top
    {
        type            extrapolatedCalculated;
        value           nonuniform List<scalar> 10(1.4567146e-05 8.2974635e-05 0.0011905444 0.0018836865 0.03039233 0.095776016 0.22346768 6.3736391 11.097884 -267.96676);
    }
    frontAndBack
    {
        type            empty;
    }
}


// ************************************************************************* //
