/*--------------------------------*- C++ -*----------------------------------*\
  =========                 |
  \\      /  F ield         | OpenFOAM: The Open Source CFD Toolbox
   \\    /   O peration     | Website:  https://openfoam.org
    \\  /    A nd           | Version:  9
     \\/     M anipulation  |
\*---------------------------------------------------------------------------*/
FoamFile
{
    format      ascii;
    class       volScalarField;
    location    "0.81";
    object      p_rgh;
}
// * * * * * * * * * * * * * * * * * * * * * * * * * * * * * * * * * * * * * //

dimensions      [1 -1 -2 0 0 0 0];

internalField   nonuniform List<scalar> 
10000
(
0
-0.014874988
-0.031053562
-0.050325363
-0.075527241
-0.1047226
-0.13768823
-0.17412262
-0.213548
-0.25556189
-0.29960593
-0.34509247
-0.39139842
-0.43779223
-0.48351169
-0.52768727
-0.56934238
-0.60746709
-0.64098153
-0.66873024
-0.68951252
-0.70204825
-0.70495947
-0.69685235
-0.67651609
-0.64292089
-0.59524928
-0.53292
-0.45558867
-0.36317403
-0.2559281
-0.13453347
-0.00032207485
0.14471239
0.29852486
0.45884697
0.62317948
0.78890477
0.95352548
1.1149883
1.2719642
1.4241742
1.5728532
1.7212232
1.8756317
2.0475523
2.2403361
2.4644314
2.7178762
2.9850938
3.2423217
3.4730427
3.5442501
3.4189192
3.0756965
2.5906298
2.0764382
1.624539
1.3232251
1.1926645
1.2041602
1.3269875
1.4978101
1.6798143
1.8567483
2.0263311
2.1880265
2.3400008
2.4817158
2.6139872
2.7379743
2.8550022
2.9663432
3.0731521
3.1764179
3.2768459
3.37494
3.471046
3.5653522
3.6579793
3.7488892
3.8379465
3.9248285
4.0089589
4.0897039
4.1668971
4.2405962
4.3108433
4.3776051
4.4406743
4.4995946
4.5539794
4.6045339
4.6552112
4.7052197
4.7517571
4.7917303
4.8251587
4.8523243
4.8774302
0.014253394
-0.0015753151
-0.018507257
-0.038279675
-0.064176365
-0.093988634
-0.12771365
-0.16490784
-0.20523857
-0.24821489
-0.29330412
-0.33995339
-0.38749402
-0.43523911
-0.48240387
-0.52807323
-0.57129
-0.61102646
-0.64616626
-0.67554322
-0.69791729
-0.71196549
-0.71633878
-0.70970533
-0.69080753
-0.6585293
-0.61195988
-0.55041943
-0.47349111
-0.38107538
-0.27345297
-0.15137026
-0.016134693
0.13041298
0.28607113
0.44829166
0.61426687
0.78106185
0.94583652
1.1061805
1.260403
1.4078641
1.5494989
1.6880899
1.8288396
1.9813707
2.1653345
2.3875989
2.6390314
2.8942072
3.141465
3.3906281
3.483317
3.3831318
3.0239781
2.4455744
1.8539183
1.3158471
0.96478105
0.8386781
0.92474001
1.1068949
1.2978072
1.4875648
1.6794406
1.8701768
2.0533762
2.2250864
2.3843752
2.5318356
2.6687398
2.7968027
2.9176684
3.0327084
3.1431083
3.2497624
3.3532857
3.4541228
3.5525351
3.6486636
3.742548
3.8340878
3.9230949
4.0092202
4.092175
4.1717644
4.2479003
4.3204795
4.3894306
4.4546376
4.5161588
4.5741699
4.6296724
4.679882
4.7282884
4.7723416
4.8110153
4.8437292
4.8704929
4.8954531
0.03596637
0.018288846
0.00025589251
-0.020408816
-0.047271413
-0.078149595
-0.11294291
-0.15137992
-0.19306043
-0.23751903
-0.28427894
-0.33274925
-0.38230675
-0.4322537
-0.48175836
-0.52992827
-0.57580134
-0.61831668
-0.65634582
-0.68867639
-0.71400034
-0.73096409
-0.73819675
-0.73431176
-0.71796439
-0.68793598
-0.64318232
-0.58287404
-0.50645811
-0.41371642
-0.30483197
-0.18049647
-0.042001769
0.10877275
0.26942278
0.4370486
0.60836032
0.77986751
0.94808931
1.1098756
1.2627085
1.4050274
1.5367845
1.6595926
1.7770213
1.8999477
2.0535774
2.2558359
2.4968834
2.7027823
2.9537495
3.1766731
3.2340176
3.1321563
2.8445103
2.4901863
1.8541512
0.92937624
0.48229795
0.36416394
0.57640133
0.84893586
1.0912831
1.3059885
1.5177414
1.7307871
1.9362511
2.1271532
2.3021511
2.4623762
2.6097548
2.7466899
2.8753636
2.997431
3.1141652
3.2265435
3.3352504
3.4407838
3.5434317
3.6433647
3.7406249
3.8351415
3.9267924
4.0153581
4.1006445
4.1824554
4.2606983
4.3352867
4.4061677
4.4733067
4.5367458
4.5962034
4.6511623
4.7023235
4.7500529
4.7934258
4.8316457
4.8641208
4.8907451
4.9158161
0.062222718
0.041509119
0.021979409
0.00044066062
-0.027755814
-0.059879759
-0.096091341
-0.13608368
-0.17948407
-0.22589999
-0.2748255
-0.3257182
-0.3779719
-0.43084746
-0.48353172
-0.53514293
-0.5846937
-0.63111129
-0.67322679
-0.70975533
-0.739337
-0.76057339
-0.77201094
-0.77215313
-0.7595322
-0.73277451
-0.69064721
-0.63211469
-0.55640938
-0.46310854
-0.35223495
-0.22438453
-0.080832223
0.076447898
0.24479504
0.42085303
0.60067707
0.77996908
0.95432138
1.1194938
1.2717093
1.4079372
1.5265927
1.627516
1.7087989
1.7729862
1.8647021
2.0512827
2.32526
2.4544577
2.7979256
3.0968428
3.5239802
3.6644639
3.2436205
2.3286921
1.3491164
0.73128698
0.58703854
-0.038085566
-0.037948556
0.45201503
0.79621583
1.0431228
1.3003526
1.5605328
1.803054
2.0231622
2.2200116
2.3956644
2.5543263
2.7000934
2.8360815
2.9645099
3.0869572
3.204594
3.3181982
3.4282713
3.5351162
3.6388738
3.7396006
3.8372629
3.9317933
4.0230108
4.1107699
4.1949109
4.2753531
4.3520096
4.4247984
4.4936137
4.5584094
4.6193527
4.675956
4.7282771
4.7763053
4.8196806
4.85786
4.8903563
4.9169818
4.9422306
0.094828172
0.069155938
0.048299958
0.026035383
-0.0037169756
-0.037400344
-0.075311932
-0.11719398
-0.16275761
-0.21159853
-0.26326019
-0.3172325
-0.37288212
-0.42948961
-0.48626407
-0.54231049
-0.59663769
-0.64814795
-0.69560725
-0.73767491
-0.77294402
-0.79992789
-0.81704765
-0.82266879
-0.81515558
-0.79291945
-0.75447539
-0.6985029
-0.62392141
-0.53000957
-0.41655244
-0.28397984
-0.13349081
0.032846581
0.2120405
0.40015569
0.59240786
0.78342834
0.96754825
1.1390924
1.2926354
1.4230866
1.5266783
1.6010463
1.6318833
1.5872337
1.543174
1.7786774
2.5161158
3.0558712
3.373433
3.0751574
2.2811961
1.7463517
1.066258
0.35913917
-1.0054876
-1.4058609
-1.8026772
-2.3510608
-1.4294934
-0.28210521
0.10818598
0.60028396
1.0062832
1.3573166
1.6486804
1.9017583
2.1241238
2.3178572
2.4894869
2.6453522
2.7897619
2.925584
3.0547309
3.178578
3.2979594
3.4133929
3.5251977
3.6335172
3.7384479
3.8399512
3.9379765
4.0324071
4.1231527
4.2100741
4.2930908
4.3721158
4.4470925
4.517953
4.5845952
4.6469877
4.7049261
4.7582976
4.8069868
4.850724
4.8891754
4.9218909
4.9487789
4.9743076
0.13061197
0.10012172
0.078792235
0.056570503
0.024696701
-0.010718389
-0.050537572
-0.094632258
-0.14271668
-0.19443905
-0.24939012
-0.30704646
-0.36679596
-0.42795148
-0.48972091
-0.55121488
-0.61143832
-0.66924657
-0.72335659
-0.77238942
-0.8148659
-0.84917984
-0.87361085
-0.88635589
-0.88555806
-0.8693504
-0.83591787
-0.78356101
-0.71078687
-0.61646479
-0.50000673
-0.36153211
-0.20205374
-0.02369082
0.17019458
0.3749668
0.58479233
0.79289032
0.99192903
1.1744607
1.3331432
1.460515
1.5501346
1.5955008
1.5620391
1.3495801
1.020284
1.4811333
2.4570645
2.2571485
1.4069111
1.3018092
1.1111205
0.39113055
-0.64915594
-1.7635459
-2.93157
-3.8875857
-4.7681074
-4.9433704
-3.9716409
-2.5855612
0.27542873
-0.028266283
0.63331268
1.1648467
1.5056936
1.7804787
2.0229144
2.2329683
2.4171855
2.583396
2.7369562
2.8811623
3.0180182
3.1491011
3.2752658
3.3970109
3.5146651
3.6283718
3.7382117
3.8441765
3.9462581
4.0443807
4.1384756
4.2284428
4.3142214
4.3957764
4.4730596
4.5460229
4.6145316
4.6785104
4.7378738
4.792418
4.8420336
4.8864782
4.9255008
4.9586482
4.9859515
5.0119035
0.16453743
0.13695156
0.11401763
0.092628261
0.057391454
0.020317261
-0.021557889
-0.06810669
-0.11905918
-0.17411917
-0.23286481
-0.29480106
-0.35935765
-0.42585809
-0.4935279
-0.56149413
-0.62873958
-0.69408728
-0.75623246
-0.8137468
-0.86505413
-0.90842476
-0.94198427
-0.96372169
-0.97150935
-0.96314521
-0.93640693
-0.8891198
-0.81926133
-0.72512909
-0.60555218
-0.46013485
-0.28955893
-0.095894158
0.11716614
0.3441901
0.57801948
0.8100369
1.030754
1.2305944
1.4002888
1.5304575
1.612083
1.6339751
1.5491053
1.2067594
0.55958308
2.297234
2.2892566
1.3164388
0.83244421
0.42616247
-0.16877836
-1.6159968
-3.5798698
-5.5999342
-7.1869329
-8.7923287
-9.4158804
-8.9881336
-7.6374868
-5.4659778
-2.3815174
0.80449728
0.40771788
1.0377326
1.3906264
1.6690217
1.9209444
2.1434149
2.3393987
2.5160024
2.679318
2.8328178
2.9780051
3.1174148
3.2512486
3.3801105
3.5043303
3.6240452
3.7393468
3.8502721
3.9568271
4.0589692
4.1566685
4.2499129
4.3386701
4.422906
4.5026199
4.577861
4.6482954
4.7139972
4.7748872
4.8308025
4.8815579
4.9269364
4.9666871
5.0005116
5.0284269
5.0549619
0.19915319
0.17871571
0.15584986
0.13263114
0.093796581
0.056044669
0.012069858
-0.037191189
-0.091363329
-0.15018432
-0.21321175
-0.280017
-0.35005335
-0.42267603
-0.49714949
-0.57260371
-0.64800897
-0.72218954
-0.79382087
-0.86141063
-0.92329015
-0.97760859
-1.0223175
-1.0551678
-1.0737295
-1.0754194
-1.0575351
-1.0173195
-0.95206307
-0.85927143
-0.73692947
-0.58385876
-0.4001387
-0.18757277
0.049938302
0.30609788
0.57209673
0.83685661
1.0879642
1.3132601
1.5018247
1.6436932
1.7294012
1.7493244
1.6626105
1.363313
1.055013
2.135114
1.1698688
0.85827674
0.25560286
-0.38567488
-1.4879603
-3.8231893
-5.9522074
-7.9718525
-9.5367511
-10.271232
-13.204109
-13.160191
-11.544524
-8.7108639
-5.3486929
0.28090795
-0.007797098
0.82094751
1.2296156
1.5388193
1.8061668
2.043403
2.252789
2.440952
2.6153056
2.7791818
2.934617
3.0832076
3.2256804
3.3625218
3.4940538
3.6204669
3.7418551
3.8582461
3.9696756
4.0761869
4.1777935
4.2745207
4.3664312
4.4535271
4.5357773
4.6131531
4.6858585
4.7535091
4.8160691
4.8734795
4.9255074
4.9720668
5.0128188
5.0474872
5.0761742
5.1033978
0.24429394
0.22530094
0.20232287
0.17496702
0.13835883
0.097614073
0.0509871
-0.0014065144
-0.059079417
-0.12211379
-0.18987613
-0.2620891
-0.33823936
-0.41774631
-0.49990797
-0.58385629
-0.66858508
-0.75293352
-0.83555332
-0.91489967
-0.98922579
-1.0565542
-1.1146513
-1.1610263
-1.1929354
-1.2073779
-1.2011024
-1.1706477
-1.1124278
-1.0229
-0.89889143
-0.73807249
-0.53948576
-0.30419974
-0.036102101
0.25758849
0.56612727
0.87514622
1.1677059
1.4283182
1.644698
1.8076682
1.9097026
1.9506358
1.9248874
1.7531965
1.8269568
1.5031374
1.1136379
0.7932785
0.091981819
-0.79418001
-2.7534064
-6.049867
-8.8282114
-11.594845
-13.32566
-14.490092
-17.328527
-17.170963
-15.152561
-11.636299
-7.4207082
-1.4417996
-0.076498829
0.38617187
0.98472544
1.3648664
1.6657553
1.9265257
2.1535166
2.355143
2.5433546
2.7196371
2.8866842
3.0459746
3.1983281
3.3442448
3.4840218
3.6178735
3.7459434
3.8682962
3.9850106
4.0962056
4.2019768
4.3024164
4.397644
4.4877312
4.5726855
4.6525632
4.7273838
4.7970316
4.8613811
4.9204529
4.9739955
5.021869
5.0638518
5.0995221
5.1291367
5.1572806
0.29659386
0.27781135
0.25432016
0.22501678
0.18772859
0.14472829
0.095370572
0.039869507
-0.021499953
-0.089424592
-0.16219492
-0.24030645
-0.32316872
-0.41028507
-0.50099698
-0.59444127
-0.68966407
-0.78552949
-0.88068585
-0.97355976
-1.062331
-1.1448975
-1.218857
-1.2814957
-1.3297572
-1.3602041
-1.3689869
-1.3518298
-1.3040775
-1.2208535
-1.0974193
-0.92974832
-0.71521524
-0.45354289
-0.14789482
0.19323975
0.55727431
0.92619802
1.2747572
1.5820629
1.8346655
2.0249011
2.1458872
2.2097742
2.2401765
2.2132209
2.7583811
1.9881638
1.2996317
1.017263
0.28053347
-0.97782831
-3.3658667
-7.5073891
-11.614441
-15.535793
-18.484034
-20.493957
-21.498438
-20.959272
-18.271277
-13.972198
-9.0321541
-2.8744152
0.31340836
-0.070432675
0.69663201
1.1588839
1.503187
1.791727
2.0390607
2.2595242
2.4630567
2.6537929
2.8342988
3.0059952
3.16969
3.3258638
3.4748377
3.6168698
3.7521624
3.8808953
4.0032183
4.1193415
4.2294622
4.333773
4.4324101
4.5255452
4.6132779
4.6956853
4.7727633
4.8445196
4.9108646
4.9716897
5.0268674
5.0762438
5.1196523
5.1565644
5.1872322
5.2165556
0.35613024
0.337101
0.3128489
0.28198386
0.24326244
0.19801785
0.14585909
0.08694729
0.021366114
-0.050877327
-0.12924568
-0.21386462
-0.30395749
-0.39934542
-0.49947865
-0.6033896
-0.71024394
-0.81897345
-0.92825496
-1.0364993
-1.1418212
-1.2420206
-1.3345624
-1.4165359
-1.4845952
-1.5348889
-1.5629718
-1.5636966
-1.5311668
-1.4588512
-1.3399023
-1.167842
-0.93747394
-0.64639452
-0.29542308
0.10498939
0.54067508
0.99351837
1.4156249
1.7815119
2.0769443
2.2954598
2.4328923
2.5047419
2.601348
2.7063291
2.9545916
2.4673013
1.5552971
2.0521173
3.9099921
-0.887436
-2.0466356
-8.9588446
-12.840266
-18.309467
-21.468329
-23.882744
-24.861734
-23.574259
-20.154359
-15.263257
-10.136375
-3.4251437
-0.49525388
-0.26657984
0.49829477
0.96131902
1.3315016
1.6422787
1.9108828
2.1519465
2.374169
2.5820401
2.7781859
2.9641221
3.1406379
3.3082046
3.4672517
3.6181351
3.7611404
3.8965873
4.0247613
4.145987
4.2605428
4.3687528
4.4708615
4.5670707
4.6575789
4.7425062
4.8219324
4.8958529
4.9642568
5.0270358
5.084032
5.1351518
5.180149
5.2184731
5.2504343
5.281297
0.42317609
0.40355645
0.3784229
0.34611211
0.30567633
0.25810189
0.20306091
0.14061046
0.070795678
-0.006315526
-0.090526682
-0.18169687
-0.27952976
-0.38376535
-0.49431375
-0.60953894
-0.72909245
-0.8520197
-0.97703661
-1.1025446
-1.2266211
-1.3470069
-1.4610686
-1.5657402
-1.6574554
-1.732044
-1.7845606
-1.8090429
-1.7982653
-1.7436761
-1.6355455
-1.463944
-1.2202131
-0.89897732
-0.49227597
-0.017121261
0.50046386
1.0816941
1.5907179
2.0355931
2.3810182
2.6204631
2.7535769
2.7765272
2.9077013
3.2364508
3.605888
2.8746609
2.5605858
8.4344598
8.1276715
0.21405752
-1.3623316
-8.4422857
-13.826594
-18.374507
-22.241435
-24.722743
-25.293079
-23.694562
-19.976793
-14.978748
-9.8989347
-3.6301951
-0.92970825
-0.54780962
0.25267084
0.74359224
1.1386063
1.4744329
1.7682564
2.0332939
2.2775652
2.5054615
2.7196316
2.9216385
3.1123383
3.2923711
3.4622891
3.6225619
3.7736396
3.9160254
4.0501566
4.1764798
4.295462
4.407501
4.5130281
4.6122372
4.7054989
4.7929604
4.8747172
4.9509158
5.0214763
5.0863341
5.1453235
5.1983622
5.2452276
5.2851685
5.3185862
5.3513523
0.49795816
0.47761655
0.45147679
0.4177349
0.3755437
0.325603
0.26761187
0.20157435
0.1274652
0.045270892
-0.04495263
-0.14308624
-0.2488798
-0.3618522
-0.48457811
-0.61148998
-0.74471922
-0.88315077
-1.0255145
-1.1702215
-1.3153388
-1.4585767
-1.5972437
-1.7281952
-1.8477641
-1.9516286
-2.0345795
-2.0900862
-2.10967
-2.0824023
-1.9950277
-1.8327186
-1.5808521
-1.2274826
-0.75645383
-0.18545882
0.46269398
1.1651698
1.8149144
2.3649394
2.7620586
3.0026741
3.0874757
3.0157435
3.0290694
3.2667283
3.5614193
3.1605554
4.4007674
9.4922196
8.3211751
2.6467754
-1.8800749
-6.3731817
-12.391974
-16.861572
-20.68689
-22.941396
-23.15379
-21.270059
-17.653061
-13.072966
-8.3054867
-3.4450093
-2.0449516
-0.85207013
-0.064479587
0.48399522
0.91874446
1.288537
1.6129615
1.9059558
2.1755347
2.4261676
2.6605588
2.8803336
3.086491
3.2798939
3.4612611
3.6312935
3.7906501
3.9399864
4.0800277
4.211343
4.3345822
4.4502521
4.5590083
4.6611341
4.7569918
4.8469092
4.9309863
5.0094509
5.0822486
5.1493002
5.2104914
5.2656789
5.3146266
5.356375
5.3915153
5.4265693
0.58078369
0.55962456
0.53247962
0.49731768
0.45333438
0.40106477
0.34016865
0.27057628
0.19215846
0.10480065
0.0084485732
-0.096903366
-0.21121397
-0.33443318
-0.46680998
-0.60719882
-0.75530504
-0.91054037
-1.0718638
-1.2377374
-1.4062162
-1.5750105
-1.7414397
-1.9023838
-2.054214
-2.19268
-2.3127213
-2.407803
-2.4686968
-2.4820804
-2.4303539
-2.2923716
-2.0448429
-1.6624262
-1.1258541
-0.43782703
0.36645
1.2370309
2.0648928
2.7418049
3.2276403
3.4549513
3.4369513
3.2144214
3.17658
3.0255055
3.3361555
3.5227572
4.3856384
10.235324
8.7100894
3.3690364
-0.44268216
-4.337481
-10.364938
-13.941721
-17.30821
-19.184972
-19.110137
-17.147473
-14.113601
-10.879757
-6.6665582
-3.5700821
-2.2058467
-1.1066137
-0.35157756
0.21861636
0.68800818
1.0923957
1.4501313
1.774057
2.0716415
2.3473022
2.6037248
2.842637
3.0652555
3.272655
3.4658007
3.6456624
3.8132191
3.9693379
4.1149884
4.2509811
4.3781233
4.497181
4.6088192
4.7135648
4.8118403
4.9040524
4.9904147
5.0711392
5.1462335
5.2156274
5.2791466
5.3367185
5.3880355
5.4318013
5.4689479
5.5066973
0.67188428
0.64990878
0.62181036
0.58529684
0.5395739
0.48507499
0.42139484
0.34834516
0.26569512
0.17322893
0.070763436
-0.041857259
-0.16475876
-0.29803136
-0.44169497
-0.59533606
-0.75872921
-0.93202797
-1.1139254
-1.3029502
-1.4970795
-1.6941062
-1.8914614
-2.0861189
-2.2745773
-2.4529112
-2.6168099
-2.7609698
-2.8766795
-2.9487445
-2.9546065
-2.8654091
-2.6460644
-2.2584962
-1.6566225
-0.82629218
0.17574124
1.302105
2.4099385
3.2899952
3.898573
4.0594227
3.8930077
3.4904125
3.1695776
3.1663442
3.6552854
4.2481303
4.7391362
10.286547
6.210525
5.636026
1.5816156
-1.6692066
-6.5809263
-9.9242382
-12.948384
-14.405171
-14.321787
-12.34786
-10.169408
-7.8910356
-5.7321249
-3.5749166
-2.243082
-1.3159806
-0.61231011
-0.038711029
0.45724541
0.89396118
1.2857768
1.6425123
1.9702185
2.2727598
2.5526337
2.8116446
3.0513112
3.2729753
3.4778778
3.6673511
3.8427033
4.0051322
4.1558241
4.2959671
4.4265046
4.5483881
4.6624546
4.7694561
4.8698885
4.9641656
5.0526673
5.1356069
5.2130238
5.2848614
5.3508981
5.4110834
5.4649897
5.5110636
5.5505884
5.5914602
0.77152905
0.74878246
0.71978091
0.68203656
0.63476532
0.5782034
0.51192151
0.43560734
0.34892631
0.25154187
0.14312491
0.023355677
-0.10806968
-0.25141292
-0.40682677
-0.57425137
-0.75352626
-0.94431441
-1.1490882
-1.3633607
-1.5853407
-1.8131892
-2.0445835
-2.2765497
-2.5056699
-2.728481
-2.9422381
-3.145072
-3.3316766
-3.4865343
-3.5806779
-3.5760419
-3.4243018
-3.070518
-2.4364779
-1.4401402
-0.14635201
1.4127009
3.0346708
4.1915935
4.7754938
4.9061277
4.4824738
3.8909233
3.7816508
4.1471876
4.9895905
5.9630248
6.6703771
6.6334777
7.0557053
6.3860434
4.6521969
1.8634916
-1.8505979
-5.1602039
-8.9772945
-9.6241128
-8.9346902
-8.2667596
-6.878548
-6.2600941
-4.6978669
-3.340187
-2.345268
-1.547593
-0.87996477
-0.29600647
0.22644528
0.69703589
1.1247749
1.5163409
1.8760707
2.2069754
2.5113193
2.7910139
3.0478631
3.2835996
3.4998623
3.6983519
3.8807325
4.0486663
4.203623
4.346995
4.4800984
4.6041203
4.7200303
4.8286579
4.9307714
5.0268088
5.1172234
5.202249
5.2820201
5.3563818
5.4251018
5.4881902
5.544985
5.5936529
5.6359884
5.6804823
0.87992816
0.85647025
0.82669686
0.78792044
0.73930128
0.68096263
0.61236426
0.53310078
0.44272159
0.3407552
0.22671266
0.10008519
-0.039639723
-0.19293296
-0.36017578
-0.54162587
-0.73741495
-0.94741504
-1.1710902
-1.4162062
-1.6680235
-1.9290855
-2.1975646
-2.4702759
-2.7435667
-3.0141396
-3.2811766
-3.5502618
-3.8250175
-4.0927194
-4.3144182
-4.4425198
-4.4163888
-4.1569059
-3.6107503
-2.469858
-0.74738017
1.6444033
4.2064307
5.5669811
6.4157574
6.0198816
5.5948745
4.8519457
4.8288941
5.6428405
7.0552002
8.1999174
8.3254833
8.2924164
7.9114173
7.2946008
6.0779043
4.6072078
1.2807114
-1.4627603
-3.8989773
-6.7941648
-7.5154873
-7.3460145
-6.6491449
-5.5891541
-4.3774749
-3.3826935
-2.5483181
-1.8195852
-1.1620873
-0.55875411
-0.0044188743
0.50450291
0.97172795
1.4008788
1.7945719
2.15508
2.4845172
2.7849804
3.0586586
3.3077391
3.5343604
3.7407373
3.9289866
4.1011422
4.2590919
4.4045946
4.5391909
4.6643049
4.7811743
4.8907975
4.9940076
5.0913959
5.1834454
5.270432
5.3524852
5.4294678
5.5011173
5.567381
5.6273921
5.6789702
5.724592
5.7732626
0.99716329
0.9731381
0.9428076
0.90324895
0.85361532
0.79384048
0.72333294
0.6415629
0.54796274
0.44191531
0.32274547
0.18973186
0.042145074
-0.12072613
-0.29955947
-0.49498251
-0.70753047
-0.93755675
-1.1851616
-1.4504571
-1.7415581
-2.0378949
-2.3466725
-2.6637223
-2.9844161
-3.3042776
-3.6217886
-3.9584976
-4.3356151
-4.7530389
-5.1473914
-5.4657533
-5.6521667
-5.6022371
-5.1033013
-4.2884602
-2.2310795
0.7611374
3.9018433
6.0283005
6.7873962
6.8572937
11.125429
9.6669322
8.8522565
8.6255283
8.8106639
9.4541226
9.6362288
9.3288958
9.1736699
8.3424394
6.5953838
5.3478072
1.8356182
-1.4470442
-4.0047678
-5.248207
-5.9476455
-6.1716471
-5.8423929
-5.1469272
-4.3633
-3.5897195
-2.8436334
-2.1371025
-1.4653509
-0.82964258
-0.23373671
0.32033347
0.83205522
1.3022066
1.7319562
2.1230588
2.4777214
2.7984466
3.0879201
3.3489608
3.5843511
3.7968871
3.9892368
4.1639025
4.323231
4.4693151
4.6039801
4.728973
4.8457597
4.955446
5.0590178
5.157191
5.250476
5.3392335
5.4235101
5.5031447
5.5779509
5.6477723
5.7113788
5.7662396
5.8157287
5.8691992
1.123251
1.0989409
1.0683039
1.0283181
0.97804763
0.91730682
0.84541175
0.76171932
0.66553299
0.55606825
0.43244769
0.29373811
0.13898721
-0.032793415
-0.22263601
-0.43157637
-0.66061221
-0.91065541
-1.1824772
-1.4766937
-1.7943658
-2.1341918
-2.4876825
-2.8535642
-3.2256666
-3.5971915
-3.9486377
-4.3459023
-4.8271532
-5.4419745
-6.0570123
-6.635315
-7.1640078
-7.5887302
-7.7072019
-7.1887917
-5.5244037
-1.8369317
2.5909701
5.1187606
5.6861297
5.0015115
5.3644778
7.5268392
8.3254984
9.7560611
9.3151003
9.6182095
10.380974
10.688567
10.401896
9.6366353
8.0374239
5.5198183
2.3594245
-0.85385793
-3.122667
-4.4545534
-5.3421154
-5.8967828
-5.8058896
-5.2794993
-4.6256071
-3.9329947
-3.2210304
-2.5027801
-1.7941774
-1.1090353
-0.45844591
0.15008355
0.7126201
1.2276671
1.695489
2.1177464
2.4971116
2.836783
3.1402434
3.4111157
3.6529709
3.8692735
4.0634051
4.2383348
4.3968516
4.5415696
4.6745986
4.7977928
4.91324
5.0219197
5.1249866
5.2232277
5.3172788
5.4074822
5.4938885
5.5762708
5.6544642
5.7282671
5.7959157
5.8545079
5.9085861
5.9675762
1.25812
1.2339915
1.2033281
1.1633201
1.1129154
1.0517719
0.97914339
0.89426115
0.79627492
0.68421902
0.55702669
0.41356068
0.25262382
0.072917998
-0.12695909
-0.34847926
-0.59316731
-0.86258019
-1.1581896
-1.4811531
-1.8319196
-2.2122973
-2.6163887
-3.0370743
-3.4653109
-3.8889706
-4.2435947
-4.7044575
-5.3154951
-6.1038555
-7.0002888
-7.9013097
-8.9011305
-10.136861
-11.596232
-12.804903
-12.070954
-8.0466025
-1.440355
1.999539
2.4629696
1.9464901
1.5035088
2.2136829
5.2718155
8.407106
7.7514718
8.6740592
10.610889
12.087178
11.923774
11.19536
9.445339
6.6090476
3.1324887
-0.070167454
-2.6608292
-4.6417302
-6.2839634
-6.954407
-6.5321708
-5.7808049
-5.1260256
-4.4296105
-3.6919769
-2.9237829
-2.1504479
-1.3941424
-0.67262101
0.0018615634
0.62247885
1.1863741
1.6937784
2.1469568
2.5495474
2.9058746
3.2205709
3.4982309
3.7433747
3.9603499
4.1531631
4.3254676
4.4805969
4.6215228
4.7508644
4.8708701
4.9830663
5.089343
5.1908225
5.2882907
5.3825007
5.473816
5.562201
5.647393
5.7292532
5.8074655
5.8796467
5.9425251
6.0020735
6.0674421
1.4015879
1.3783274
1.3480716
1.3083999
1.2584127
1.1975659
1.1250051
1.0398028
0.94095287
0.82731681
0.69765371
0.55062046
0.38475698
0.19846078
-0.01003679
-0.242678
-0.50158574
-0.78905051
-1.1074259
-1.4589052
-1.8451582
-2.2676273
-2.7283285
-3.2133805
-3.711306
-4.2008089
-4.5196096
-5.0116317
-5.7656682
-6.7583704
-7.9177073
-9.1989717
-10.75966
-13.069644
-16.482276
-20.103663
-21.819225
-18.12425
-8.6835536
-3.5673846
-3.9059674
-4.5439436
-4.0957293
-3.3542069
-0.97961435
5.2544554
7.1454448
8.0287758
11.382492
13.675549
13.864742
12.92717
10.71274
6.9406136
2.314037
-1.6087593
-4.1252664
-6.2815327
-8.5432336
-9.2420475
-7.8192513
-6.4094083
-5.7766971
-5.0646906
-4.264441
-3.4049962
-2.5326246
-1.6779525
-0.86597802
-0.11260549
0.57348197
1.1896084
1.7370786
2.2197349
2.6428729
3.012361
3.33428
3.6146091
3.8589351
4.0725302
4.2602775
4.4264552
4.5749535
4.7092443
4.8322651
4.9465591
5.0540265
5.1564457
5.2551149
5.350909
5.4445732
5.5365504
5.6267203
5.7147667
5.8006055
5.8837009
5.9609536
6.0287922
6.0949072
6.1676647
1.5536021
1.5317949
1.5023182
1.4635167
1.4146247
1.3549187
1.2833628
1.198858
1.1002499
0.98624525
0.85542974
0.70625245
0.53701291
0.34583476
0.13058075
-0.11118703
-0.38219723
-0.68552673
-1.0246072
-1.4031402
-1.8248284
-2.292851
-2.8164092
-3.3815571
-3.9938624
-4.6595564
-4.8272693
-5.4591811
-6.421104
-7.5773565
-8.8440942
-10.402112
-12.474453
-15.761932
-20.962613
-26.820496
-30.958825
-27.765421
-17.880814
-10.78316
-12.883952
-15.748424
-17.067856
-15.437275
-9.5088634
1.5818351
6.0943636
8.3779051
12.973005
15.499171
15.88461
14.360839
11.41551
6.5977628
0.70929517
-4.176848
-6.6115833
-7.6084719
-10.664827
-11.465857
-8.6424017
-6.2243039
-6.4221198
-5.8385713
-4.9576642
-3.9525138
-2.9336161
-1.9460726
-1.0220488
-0.17689073
0.58104125
1.2511776
1.8373954
2.3462644
2.7854919
3.1630867
3.4869529
3.7645651
4.0028451
4.2081437
4.3861681
4.5420027
4.680103
4.8043926
4.918176
5.0242863
5.1248695
5.2216743
5.316115
5.4091715
5.5015544
5.5936495
5.6853304
5.7762584
5.866361
5.9548463
6.0378013
6.1114529
6.1855544
6.2668979
1.7140768
1.6940196
1.6658345
1.6287153
1.5815189
1.5239661
1.4544872
1.3718544
1.2747677
1.1617917
1.0313373
0.8816731
0.71090452
0.51690016
0.2971747
0.04884655
-0.23137602
-0.54736165
-0.9037316
-1.3060701
-1.7608155
-2.2756197
-2.8653352
-3.5226609
-4.2416687
-5.1627458
-5.4097421
-6.0875139
-7.3743992
-8.7039635
-9.8530391
-11.43344
-13.802274
-17.590684
-24.029458
-30.453315
-33.436247
-31.689076
-25.696571
-19.010198
-21.102559
-25.470327
-30.632625
-32.683033
-19.827923
-6.1340235
4.930979
8.7397388
14.017275
16.998112
17.766071
15.995869
12.772058
7.4135454
2.2695033
-0.45525085
-8.1470826
-8.6152508
-13.880058
-16.958809
-13.207528
-8.2828535
-7.884922
-7.0820712
-5.8241086
-4.5604356
-3.3278531
-2.1729275
-1.1163015
-0.16864877
0.66466994
1.3875923
2.0083962
2.5376917
2.9864057
3.3651602
3.6839876
3.9521646
4.1779842
4.3689814
4.5318287
4.6723855
4.7957202
4.9061904
5.0074314
5.1025229
5.1937815
5.2830512
5.3717452
5.4608629
5.5510957
5.6427091
5.7355366
5.8292721
5.9238537
6.0182106
6.1075582
6.1881354
6.2720816
6.363506
1.8826563
1.8644406
1.838215
1.8035068
1.7590124
1.7047778
1.6385842
1.5591516
1.4650337
1.3546365
1.2262304
1.0779528
0.90774889
0.71326327
0.4917405
0.23998124
-0.045807746
-0.37018841
-0.73887494
-1.1593788
-1.6414253
-2.1993871
-2.8647482
-3.6704915
-4.5224494
-5.5146676
-0.13717713
-1.3902278
-7.7228479
-9.3928907
-10.661251
-12.139969
-14.472339
-18.136862
-23.459664
-28.676854
-31.322852
-31.719694
-31.669081
-33.442513
-14.433712
-6.6232742
-17.508735
-32.164458
-27.225381
-10.286833
0.37066225
9.5744273
14.304102
18.23283
19.63167
18.389259
16.471013
11.543163
-0.44648883
-7.4253597
-17.867652
-13.871586
-22.66815
-32.307413
-29.814183
-17.742969
-11.332818
-8.7145155
-6.8043778
-5.1595796
-3.6631864
-2.3176656
-1.1148171
-0.058749588
0.84774533
1.6176775
2.2651668
2.8059758
3.2549667
3.6257305
3.9307358
4.1811327
4.3867839
4.5564566
4.6977767
4.8173661
4.920954
5.0133139
5.0983189
5.1792926
5.2586378
5.3382503
5.4194877
5.5033306
5.5903818
5.6808033
5.7743286
5.8706676
5.969838
6.070457
6.1668874
6.255848
6.352102
6.4556324
2.0586516
2.0424622
2.0189876
1.9878172
1.9478938
1.8974292
1.8357857
1.7610324
1.6714659
1.5653362
1.4408134
1.2959508
1.1285713
0.93617192
0.71585575
0.4642347
0.17715404
-0.1504219
-0.52483307
-0.95487651
-1.4520759
-2.0326689
-2.7287801
-3.5537987
-4.4860669
-4.6882888
2.2806417
0.85915242
-7.3276392
-9.4894304
-10.893329
-12.250474
-14.211031
-17.027663
-20.57524
-24.096548
-26.143854
-28.992392
-31.731264
-46.367487
29.120655
45.317173
-43.811419
-35.588934
-25.701932
-11.69936
0.83224967
9.2232502
15.700585
21.167384
22.587206
21.723321
22.170526
16.883137
-2.5789045
-19.799557
-15.293699
-22.202161
-14.137847
57.6472
-53.910968
-30.655856
-14.778786
-9.5710264
-7.6414851
-5.637785
-3.8588302
-2.320474
-0.97374972
0.18680977
1.1560748
1.9618315
2.6233905
3.1630928
3.6001548
3.9514445
4.2318864
4.4545834
4.6309948
4.7711831
4.8837483
4.9760011
5.0542354
5.1236511
5.1883454
5.2517258
5.3163952
5.3841596
5.4562496
5.5334822
5.6162849
5.7046953
5.7982747
5.8967781
6.0003915
6.1073493
6.2113655
6.3105933
6.4226862
6.541266
2.241121
2.2272109
2.2071973
2.1804829
2.1455991
2.1013052
2.0460394
1.9776629
1.8943697
1.7943207
1.6756198
1.5362767
1.3740699
1.1864605
0.97053932
0.72282988
0.43910461
0.11417252
-0.2584989
-0.68809723
-1.1869211
-1.772165
-2.4729942
-3.2764754
-4.1383295
-4.5259346
3.0137
1.6808153
-7.8121193
-9.8666379
-10.645445
-11.686989
-13.115343
-14.937722
-17.510687
-20.172018
-21.465545
-24.73103
-26.146267
-49.871968
-3.6566665
-12.763072
-19.495289
-26.792877
-23.6119
-14.394091
6.3192231
13.199528
16.838758
26.964814
27.420122
23.228041
28.048083
30.544437
17.07211
-5.9424594
-37.707892
-27.093006
73.196092
31.421943
-2.0562764
-22.679666
-12.990961
-10.082425
-8.5147222
-5.9740536
-3.8505606
-2.1519785
-0.65520933
0.60132633
1.616051
2.4411139
3.0983637
3.6202216
4.0301351
4.3480107
4.5911319
4.7745252
4.911297
5.0127451
5.0883512
5.1461956
5.1929896
5.234167
5.274092
5.3161853
5.3635713
5.4172445
5.4784
5.5476483
5.6251617
5.710649
5.8034563
5.9034358
6.0108892
6.1234861
6.2348816
6.3468328
6.4802609
6.617474
2.428782
2.4174647
2.401717
2.3806997
2.3525626
2.3164673
2.2693557
2.2091701
2.1339708
2.0418842
1.9309884
1.7992768
1.6445938
1.4644953
1.2561254
1.0160959
0.74038268
0.42400681
0.060648814
-0.35858689
-0.84572074
-1.4173602
-2.0892329
-2.8319414
-3.577622
-4.3124436
0.36731398
1.1950476
-6.7118445
-9.886079
-9.7043961
-10.763794
-11.805309
-13.176399
-15.396119
-16.920954
-15.603615
-15.208693
-15.321182
12.844024
31.272061
41.796136
-12.321172
-14.601994
-23.863286
-31.992229
-5.0715879
161.50448
454.75477
470.80116
496.32322
454.26671
180.94666
-2.8300838
-28.176977
-40.155331
-28.631023
-10.733343
-0.26699934
-0.84884463
-17.128662
-5.1825545
-6.7163429
-9.8924812
-8.8215298
-6.0557883
-3.436313
-1.6749825
-0.086254893
1.2243744
2.2506974
3.0752335
3.7030575
4.186794
4.5514921
4.8195964
5.0106218
5.1414329
5.2268433
5.2792835
5.3090113
5.3247278
5.3335068
5.3409361
5.3514908
5.3683378
5.3956255
5.4329712
5.4814866
5.5415103
5.6128372
5.6945753
5.7856759
5.8860894
5.9962004
6.1126407
6.2296517
6.3572076
6.5210734
6.6817382
2.6199714
2.6114934
2.6008892
2.5873257
2.5675584
2.5424783
2.5057008
2.4556644
2.3904697
2.3082359
2.2070762
2.0850518
1.9401556
1.7700968
1.5722058
1.3433704
1.0799796
0.77751038
0.4304257
0.030248875
-0.43478543
-0.98349203
-1.6389796
-2.396053
-3.1385882
-3.9970815
-4.7092634
-5.5521104
-6.1894621
-8.9934855
-8.8181304
-10.103643
-11.01989
-11.727125
-13.004617
-13.18706
-9.6442965
-2.7702467
7.8657065
24.693582
-2.3612898
32.297348
126.34791
16.299583
79.201748
2109.6498
3998.1087
4358.1358
4384.6986
4041.111
4103.9004
4244.2568
4081.1623
3975.2615
2449.6494
56.876293
-76.151478
132.69786
72.085847
69.506758
4.120053
-0.07055487
-4.4504018
-9.1632131
-8.7372689
-5.2333427
-2.4116618
-0.85369473
0.68428995
2.056436
3.0446721