/*--------------------------------*- C++ -*----------------------------------*\
  =========                 |
  \\      /  F ield         | OpenFOAM: The Open Source CFD Toolbox
   \\    /   O peration     | Website:  https://openfoam.org
    \\  /    A nd           | Version:  9
     \\/     M anipulation  |
\*---------------------------------------------------------------------------*/
FoamFile
{
    format      ascii;
    class       volScalarField;
    location    "42";
    object      p;
}
// * * * * * * * * * * * * * * * * * * * * * * * * * * * * * * * * * * * * * //

dimensions      [0 2 -2 0 0 0 0];

internalField   nonuniform List<scalar> 
400
(
2.8082336e-09
-0.00067287293
-0.0013853508
-0.0019427089
-0.0022200017
-0.0021564984
-0.0017277939
-0.00092620349
0.00023541673
0.0017074004
0.0033872782
0.0051121832
0.0066734613
0.007849085
0.0084583756
0.008423678
0.0078134004
0.0068445279
0.005861313
0.0052989592
0.00065784178
-4.0525413e-05
-0.0005696594
-0.00094062535
-0.0011108628
-0.0010399202
-0.0007057895
-9.5545067e-05
0.00078909781
0.0019161839
0.0032095817
0.0045546974
0.0057819531
0.0067162473
0.0072144186
0.007214527
0.0067699538
0.0060527684
0.0053105313
0.0047384945
0.0014236991
0.00044064982
-0.00011660009
-0.00045324364
-0.00061480921
-0.00058481172
-0.00034658041
0.0001197425
0.00082845811
0.0017699057
0.0028942933
0.0040981695
0.0052282436
0.0061109724
0.0065938627
0.0065976523
0.0061557197
0.0054214931
0.0045937376
0.0037482327
0.0020141937
0.00068168387
1.6768036e-05
-0.00035885439
-0.00057155123
-0.00062656251
-0.00051008559
-0.0001906332
0.0003684994
0.0011843832
0.0022299133
0.0034174324
0.0045913719
0.0055569418
0.0061235472
0.0061665458
0.0056835999
0.0048170319
0.0037472827
0.0024735934
0.0021672643
0.00049611299
-0.00029626294
-0.00074870806
-0.0010582559
-0.0012452747
-0.001292755
-0.0011513098
-0.00075506023
-5.3113668e-05
0.00095701079
0.0022102739
0.0035447073
0.0047326658
0.0055218437
0.0057098767
0.0052292728
0.0042015914
0.0028061754
0.00098395423
0.0016539554
-0.00031448538
-0.0012387934
-0.0017993057
-0.0022526656
-0.0026279136
-0.0028986287
-0.0029910949
-0.0028025546
-0.0022377001
-0.0012511217
0.00013086931
0.0017446358
0.0033271123
0.0045416493
0.005065777
0.0047174854
0.0035661865
0.0017895831
-0.00072593137
0.00028701747
-0.0019195771
-0.0029730054
-0.0036713892
-0.0043203015
-0.0049532031
-0.0055301233
-0.0059479614
-0.0060590185
-0.0057074018
-0.004775741
-0.0032587226
-0.0012665296
0.00090716902
0.002823125
0.0039868317
0.0040250833
0.0028876941
0.00071536618
-0.0026805121
-0.0020764379
-0.0044511991
-0.0056268111
-0.0064923309
-0.0073929283
-0.0083657662
-0.0093569172
-0.010231777
-0.010790974
-0.010804854
-0.01006338
-0.0084617866
-0.0060407945
-0.0030832393
-0.00012632218
0.0021126095
0.0029638117
0.0021355654
-0.00036604892
-0.0048726242
-0.0055241763
-0.0079921228
-0.0092779284
-0.010333798
-0.011538011
-0.012935428
-0.014462708
-0.015956309
-0.017162459
-0.017766041
-0.017438099
-0.015919499
-0.013122987
-0.009251785
-0.0048990294
-0.0010300347
0.0012693917
0.0012777465
-0.0013339738
-0.0072016927
-0.010076921
-0.012565106
-0.013936674
-0.015184013
-0.016718397
-0.018602648
-0.020774219
-0.023048769
-0.025121685
-0.026586359
-0.026969369
-0.025812968
-0.022845704
-0.018074472
-0.012051112
-0.0059519731
-0.0013707586
0.00030057578
-0.0019472195
-0.0093822411
-0.015684995
-0.018132424
-0.019537568
-0.02092682
-0.022757757
-0.025129907
-0.027997049
-0.031166436
-0.034291485
-0.036876858
-0.038294191
-0.037844307
-0.035065883
-0.029601493
-0.021822517
-0.012985596
-0.005184995
-0.00071576908
-0.0017642165
-0.010792272
-0.022243611
-0.024613045
-0.0259456
-0.027334971
-0.029324179
-0.032079251
-0.035588984
-0.039664704
-0.043927312
-0.047801323
-0.050530206
-0.051236506
-0.048956908
-0.043143575
-0.033769039
-0.021926363
-0.010036902
-0.0014154622
-9.8839543e-06
-0.010225636
-0.02964124
-0.031923905
-0.032978744
-0.034079878
-0.035939533
-0.038831529
-0.042795636
-0.047651632
-0.052990587
-0.058163626
-0.062284275
-0.064265558
-0.062875187
-0.057112215
-0.046476767
-0.031649109
-0.015037881
-0.00086440712
0.0046467475
-0.0055215527
-0.037866043
-0.040048538
-0.040440133
-0.040752512
-0.042015071
-0.044653085
-0.048758204
-0.054144083
-0.060356073
-0.06666539
-0.072060725
-0.075268314
-0.074811391
-0.069269293
-0.057628331
-0.03996153
-0.01824799
0.0027890222
0.014445143
0.0069075342
-0.047230629
-0.049134404
-0.048140598
-0.046882282
-0.046905507
-0.04879872
-0.052668316
-0.058276035
-0.065076126
-0.072232026
-0.078595801
-0.082712353
-0.082880238
-0.077309417
-0.064523962
-0.043934975
-0.016748005
0.012502933
0.032938772
0.032408942
-0.058896818
-0.059639927
-0.055883974
-0.05194106
-0.049972306
-0.050629889
-0.053928681
-0.059495377
-0.066611889
-0.074285322
-0.081191195
-0.085679434
-0.085831826
-0.07952222
-0.064876122
-0.040689286
-0.0072409357
0.03213936
0.06498144
0.077749172
-0.076226529
-0.072613739
-0.06351626
-0.055435437
-0.050725028
-0.049781596
-0.052312357
-0.057664396
-0.064891852
-0.072775
-0.079779394
-0.084036775
-0.083391683
-0.075348988
-0.057602696
-0.028375159
0.012933314
0.065396466
0.1155515
0.15150622
-0.10809227
-0.089556311
-0.071233877
-0.057233083
-0.049072184
-0.046330242
-0.048077285
-0.053202632
-0.060434652
-0.068295895
-0.075027424
-0.078526944
-0.076389036
-0.065809702
-0.043865503
-0.0078184666
0.044393656
0.11299814
0.18838042
0.27186076
-0.17684563
-0.10828967
-0.076202453
-0.054651253
-0.042992413
-0.038998062
-0.040570539
-0.045928071
-0.053441567
-0.061438389
-0.068027616
-0.070962589
-0.067551163
-0.054739862
-0.029148838
0.013563582
0.078146943
0.17006435
0.28949545
0.47421821
-0.37208369
-0.12470859
-0.054973101
-0.031962531
-0.022063575
-0.020300547
-0.024359485
-0.03195803
-0.041261591
-0.050640918
-0.058316933
-0.062187496
-0.059782585
-0.048056839
-0.022658553
0.021474187
0.092818706
0.21015276
0.40288841
0.77640928
)
;

boundaryField
{
    movingWall
    {
        type            zeroGradient;
    }
    fixedWalls
    {
        type            zeroGradient;
    }
    frontAndBack
    {
        type            empty;
    }
}


// ************************************************************************* //
