# Residuals  
# Time       	Ux           	Uy           	p            
1            	1.000000e+00	9.909730e-01	1.000000e+00
2            	1.460870e-01	3.796800e-01	3.162100e-01
3            	6.608960e-02	1.545890e-01	1.415920e-01
4            	3.506470e-02	8.247790e-02	7.753740e-02
5            	2.090520e-02	4.875290e-02	4.845200e-02
6            	1.367280e-02	3.116520e-02	3.371500e-02
7            	9.594050e-03	2.114820e-02	2.475250e-02
8            	6.914810e-03	1.497160e-02	1.883370e-02
9            	5.111750e-03	1.084780e-02	1.470590e-02
10           	3.860080e-03	8.003850e-03	1.178190e-02
11           	2.945210e-03	6.009170e-03	9.632890e-03
12           	2.278070e-03	4.597260e-03	7.990650e-03
13           	1.779670e-03	3.562940e-03	6.759500e-03
14           	1.392400e-03	2.810380e-03	5.762140e-03
15           	1.104580e-03	2.234700e-03	4.960940e-03
16           	8.798550e-04	1.787830e-03	4.296620e-03
17           	7.091280e-04	1.450150e-03	3.785960e-03
18           	5.699220e-04	1.173150e-03	3.285620e-03
19           	4.668750e-04	9.662460e-04	2.945760e-03
20           	3.813270e-04	7.895670e-04	2.562760e-03
21           	3.451030e-04	7.012460e-04	2.310210e-03
22           	2.734230e-04	5.368690e-04	2.030560e-03
23           	2.228810e-04	4.607510e-04	1.778290e-03
24           	1.849520e-04	3.861520e-04	1.589180e-03
25           	1.615410e-04	3.342620e-04	1.413070e-03
26           	1.346680e-04	2.801370e-04	1.260090e-03
27           	1.189740e-04	2.449800e-04	1.115000e-03
28           	1.003770e-04	2.056590e-04	9.893560e-04
29           	8.817830e-05	1.799610e-04	8.806620e-04
30           	7.771810e-05	1.561950e-04	7.825190e-04
31           	6.859000e-05	1.361850e-04	6.952150e-04
32           	6.054660e-05	1.191920e-04	6.176460e-04
33           	5.345820e-05	1.045620e-04	5.490010e-04
34           	4.714490e-05	9.221460e-05	4.892220e-04
35           	4.131220e-05	8.155630e-05	4.347310e-04
36           	3.689150e-05	7.230640e-05	3.866380e-04
37           	3.295020e-05	6.420270e-05	3.441270e-04
38           	2.943700e-05	5.705110e-05	3.069000e-04
39           	2.620440e-05	5.014050e-05	2.733820e-04
40           	2.334840e-05	4.503730e-05	2.436780e-04
41           	2.080570e-05	4.050270e-05	2.172810e-04
42           	1.853570e-05	3.644220e-05	1.937840e-04
43           	1.651400e-05	3.278840e-05	1.728520e-04
44           	1.471470e-05	2.951210e-05	1.542240e-04
45           	1.312030e-05	2.655500e-05	1.376280e-04
46           	1.170570e-05	2.387750e-05	1.228700e-04
47           	1.045120e-05	2.145990e-05	1.097300e-04
48           	9.336850e-06	1.928510e-05	9.964720e-05
49           	7.543770e-06	1.741500e-05	8.835100e-05
50           	7.070760e-06	1.543060e-05	7.905920e-05
51           	6.371150e-06	1.381160e-05	7.048970e-05
52           	7.976080e-06	1.540590e-05	6.410450e-05
53           	6.293680e-06	1.100840e-05	5.644290e-05
54           	5.677910e-06	9.597410e-06	5.127530e-05
55           	5.020970e-06	7.813440e-06	4.527320e-05
56           	4.519230e-06	7.000980e-06	4.047340e-05
57           	4.157580e-06	6.313340e-06	3.601000e-05
58           	3.828260e-06	5.723640e-06	3.224560e-05
59           	3.442420e-06	5.570270e-06	2.860930e-05
60           	3.128690e-06	4.922730e-06	2.556040e-05
61           	2.902360e-06	4.549310e-06	2.285040e-05
62           	2.682560e-06	4.160350e-06	2.048060e-05
63           	2.480650e-06	3.856930e-06	1.834850e-05
64           	2.247890e-06	3.740440e-06	1.635350e-05
65           	2.055870e-06	3.391200e-06	1.459880e-05
66           	1.918490e-06	3.134500e-06	1.307520e-05
67           	1.785810e-06	2.911920e-06	1.172860e-05
68           	1.663970e-06	2.711510e-06	1.052640e-05
69           	1.551110e-06	2.536710e-06	9.449660e-06
70           	1.446960e-06	2.378910e-06	8.482580e-06
71           	1.350010e-06	2.238600e-06	7.613590e-06
72           	1.260420e-06	2.112230e-06	6.830530e-06
73           	1.177930e-06	1.999150e-06	6.126260e-06
74           	1.101850e-06	1.895530e-06	5.492790e-06
75           	1.044080e-06	1.801410e-06	4.959140e-06
76           	9.861580e-07	1.684780e-06	4.519310e-06
77           	9.311840e-07	1.603320e-06	4.099740e-06
78           	8.806040e-07	1.519680e-06	3.726480e-06
79           	8.329430e-07	1.453880e-06	3.379480e-06
80           	7.891700e-07	1.386370e-06	3.065940e-06
81           	7.478920e-07	1.329930e-06	2.775700e-06
82           	7.094010e-07	1.275160e-06	2.512050e-06
83           	6.729960e-07	1.226980e-06	2.268580e-06
84           	6.391350e-07	1.181270e-06	2.044670e-06
85           	6.073090e-07	1.139940e-06	1.838180e-06
86           	5.777440e-07	1.100760e-06	1.648020e-06
87           	5.497980e-07	1.064130e-06	1.472100e-06
88           	5.234770e-07	1.030070e-06	1.309460e-06
89           	4.984820e-07	9.981180e-07	1.159680e-06
90           	4.748890e-07	9.673580e-07	1.021440e-06
91           	4.526020e-07	9.377600e-07	8.941050e-07
92           	4.163980e-07	8.687090e-07	9.252200e-07
93           	3.971050e-07	8.285660e-07	9.935190e-07
94           	3.846590e-07	7.995880e-07	1.040530e-06
95           	4.278310e-07	9.088780e-07	8.409060e-07
96           	3.735090e-07	7.904190e-07	8.435830e-07
97           	3.512640e-07	7.470250e-07	9.071700e-07
98           	3.378950e-07	7.188150e-07	9.465840e-07
99           	3.279630e-07	6.956620e-07	9.975860e-07
100          	3.186360e-07	6.747680e-07	1.045120e-06
101          	3.693510e-07	8.148260e-07	7.923090e-07
102          	3.105460e-07	6.782760e-07	7.682140e-07
103          	2.902930e-07	6.368040e-07	8.127320e-07
104          	2.782860e-07	6.100380e-07	8.411900e-07
105          	2.696700e-07	5.892130e-07	8.820860e-07
106          	2.620280e-07	5.710430e-07	9.192630e-07
107          	2.546770e-07	5.542960e-07	9.599080e-07
108          	2.475670e-07	5.383760e-07	9.998620e-07
109          	2.406870e-07	5.230890e-07	1.040530e-06
110          	2.973770e-07	6.860230e-07	7.515370e-07
111          	2.363890e-07	5.380080e-07	7.080920e-07
112          	2.175830e-07	4.986190e-07	7.206570e-07
113          	2.077000e-07	4.755630e-07	7.197010e-07
114          	2.008120e-07	4.576970e-07	7.380120e-07
115          	1.951090e-07	4.430550e-07	7.568980e-07
116          	1.896870e-07	4.298870e-07	7.827810e-07
117          	1.844440e-07	4.175290e-07	8.078230e-07
118          	1.793700e-07	4.057290e-07	8.346710e-07
119          	1.744440e-07	3.943360e-07	8.617170e-07
120          	1.696640e-07	3.833170e-07	8.898140e-07
121          	1.650170e-07	3.726320e-07	9.178270e-07
122          	1.605000e-07	3.622590e-07	9.460080e-07
123          	1.561070e-07	3.521800e-07	9.742660e-07
124          	1.518330e-07	3.423890e-07	1.002730e-06
125          	2.155440e-07	5.266250e-07	6.786360e-07
126          	1.548050e-07	3.732920e-07	6.310200e-07
127          	1.363410e-07	3.345790e-07	6.356200e-07
128          	1.291820e-07	3.143820e-07	6.262610e-07
129          	1.240280e-07	2.999580e-07	6.274280e-07
130          	1.200220e-07	2.888220e-07	6.256230e-07
131          	1.165730e-07	2.795990e-07	6.276530e-07
132          	1.133740e-07	2.713240e-07	6.294810e-07
133          	1.102970e-07	2.636020e-07	6.335870e-07
134          	1.073190e-07	2.562280e-07	6.379320e-07
135          	1.044280e-07	2.491250e-07	6.439190e-07
136          	1.016150e-07	2.422390e-07	6.509100e-07
137          	9.887950e-08	2.355620e-07	6.594170e-07
138          	9.621630e-08	2.290850e-07	6.692050e-07
139          	9.362470e-08	2.227890e-07	6.800630e-07
140          	9.110110e-08	2.166590e-07	6.921800e-07
141          	8.864350e-08	2.106930e-07	7.046030e-07
142          	8.624990e-08	2.048900e-07	7.170430e-07
143          	8.391880e-08	1.992370e-07	7.301630e-07
144          	8.164860e-08	1.937320e-07	7.434690e-07
145          	7.943790e-08	1.883690e-07	7.569760e-07
146          	7.728490e-08	1.831460e-07	7.706090e-07
147          	7.518830e-08	1.780580e-07	7.841940e-07
148          	7.314670e-08	1.731040e-07	7.978370e-07
149          	7.115880e-08	1.682790e-07	8.115370e-07
150          	6.923010e-08	1.635810e-07	8.251190e-07
151          	6.735710e-08	1.590060e-07	8.385440e-07
152          	6.553910e-08	1.545520e-07	8.517960e-07
153          	6.377060e-08	1.502200e-07	8.649400e-07
154          	6.204890e-08	1.460040e-07	8.780370e-07
155          	6.037570e-08	1.419010e-07	8.910740e-07
156          	5.874660e-08	1.379070e-07	9.040720e-07
157          	5.716070e-08	1.340200e-07	9.168910e-07
158          	5.561680e-08	1.302370e-07	9.295080e-07
159          	5.411550e-08	1.265580e-07	9.419230e-07
160          	5.265540e-08	1.229790e-07	9.541410e-07
161          	5.123410e-08	1.194970e-07	9.661640e-07
162          	4.985090e-08	1.161320e-07	9.779970e-07
163          	4.850450e-08	1.128740e-07	9.896300e-07
164          	4.719420e-08	1.097140e-07	1.001060e-06
165          	1.382680e-07	3.676030e-07	6.491120e-07
166          	6.392570e-08	1.769580e-07	5.998960e-07
167          	4.555860e-08	1.318860e-07	5.974900e-07
168          	3.954090e-08	1.146600e-07	5.821370e-07
169          	3.633190e-08	1.034840e-07	5.755200e-07
170          	3.430650e-08	9.615350e-08	5.667330e-07
171          	3.276090e-08	9.079540e-08	5.616860e-07
172          	3.150050e-08	8.656560e-08	5.561460e-07
173          	3.041560e-08	8.318780e-08	5.523570e-07
174          	2.947830e-08	8.025730e-08	5.482310e-07
175          	2.862240e-08	7.757510e-08	5.449240e-07
176          	2.782530e-08	7.520240e-08	5.415950e-07
177          	2.708050e-08	7.299090e-08	5.387680e-07
178          	2.635700e-08	7.089720e-08	5.360270e-07
179          	2.566360e-08	6.890450e-08	5.336250e-07
180          	2.498820e-08	6.701080e-08	5.314030e-07
181          	2.433280e-08	6.516220e-08	5.294470e-07
182          	2.369700e-08	6.337440e-08	5.276590e-07
183          	2.307400e-08	6.164680e-08	5.260210e-07
184          	2.246900e-08	5.996460e-08	5.244990e-07
185          	2.187980e-08	5.833070e-08	5.231150e-07
186          	2.130490e-08	5.673980e-08	5.218330e-07
187          	2.074430e-08	5.518710e-08	5.206840e-07
188          	2.019660e-08	5.367860e-08	5.196690e-07
189          	1.966320e-08	5.220820e-08	5.187530e-07
190          	1.914330e-08	5.078080e-08	5.179760e-07
191          	1.863580e-08	4.939140e-08	5.172870e-07
192          	1.814150e-08	4.804310e-08	5.166780e-07
193          	1.765940e-08	4.672970e-08	5.161600e-07
194          	1.718990e-08	4.544920e-08	5.156760e-07
195          	1.673230e-08	4.420190e-08	5.152250e-07
196          	1.628600e-08	4.298570e-08	5.148150e-07
197          	1.585070e-08	4.179960e-08	5.144540e-07
198          	1.542640e-08	4.064300e-08	5.141310e-07
199          	1.501320e-08	3.951610e-08	5.138530e-07
200          	1.461040e-08	3.841900e-08	5.136080e-07
201          	1.421770e-08	3.735200e-08	5.133910e-07
202          	1.383490e-08	3.631230e-08	5.132010e-07
203          	1.346280e-08	3.529960e-08	5.130300e-07
204          	1.310020e-08	3.431350e-08	5.128770e-07
205          	1.274740e-08	3.335470e-08	5.127400e-07
206          	1.240410e-08	3.242220e-08	5.126180e-07
207          	1.207040e-08	3.151490e-08	5.125260e-07
208          	1.174580e-08	3.063360e-08	5.124590e-07
209          	1.143040e-08	2.977750e-08	5.124160e-07
210          	1.112380e-08	2.894380e-08	5.123830e-07
211          	1.082570e-08	2.813200e-08	5.123620e-07
212          	1.053600e-08	2.734170e-08	5.123670e-07
213          	1.025470e-08	2.657450e-08	5.124230e-07
214          	9.980670e-09	2.582910e-08	5.124840e-07
215          	9.713780e-09	2.510350e-08	5.125520e-07
216          	9.453830e-09	2.439730e-08	5.126250e-07
217          	9.200660e-09	2.371000e-08	5.127020e-07
218          	8.954100e-09	2.304220e-08	5.128010e-07
219          	8.714010e-09	2.239230e-08	5.129160e-07
220          	8.480210e-09	2.176080e-08	5.130350e-07
221          	8.252560e-09	2.114790e-08	5.131640e-07
222          	8.030910e-09	2.055150e-08	5.133120e-07
223          	7.815110e-09	1.997180e-08	5.134620e-07
224          	7.605010e-09	1.940810e-08	5.136160e-07
225          	7.400470e-09	1.885960e-08	5.137710e-07
226          	7.201360e-09	1.832600e-08	5.139260e-07
227          	7.007580e-09	1.780730e-08	5.140880e-07
228          	6.818970e-09	1.730320e-08	5.142630e-07
229          	6.635390e-09	1.681290e-08	5.144380e-07
230          	6.456710e-09	1.633600e-08	5.146120e-07
231          	6.282800e-09	1.587210e-08	5.147860e-07
232          	6.113540e-09	1.542180e-08	5.149590e-07
233          	5.948810e-09	1.498390e-08	5.151310e-07
234          	5.788500e-09	1.455880e-08	5.153010e-07
235          	5.632480e-09	1.414550e-08	5.154710e-07
236          	5.480670e-09	1.374360e-08	5.156390e-07
237          	5.333110e-09	1.335270e-08	5.158060e-07
238          	5.189520e-09	1.297260e-08	5.159760e-07
239          	5.049790e-09	1.260310e-08	5.161470e-07
240          	4.913830e-09	1.224380e-08	5.163160e-07
241          	4.781570e-09	1.189450e-08	5.164960e-07
242          	4.653110e-09	1.155490e-08	5.166890e-07
243          	4.528250e-09	1.122510e-08	5.168820e-07
244          	4.406920e-09	1.090570e-08	5.170720e-07
245          	4.289290e-09	1.059620e-08	5.172600e-07
246          	4.175540e-09	1.029570e-08	5.174460e-07
247          	4.065550e-09	1.000370e-08	5.176300e-07
248          	3.959320e-09	9.720110e-09	5.178110e-07
249          	3.857070e-09	9.444700e-09	5.179890e-07
250          	3.757590e-09	9.177200e-09	5.181660e-07
251          	3.660740e-09	8.917490e-09	5.183390e-07
252          	3.566440e-09	8.665290e-09	5.185100e-07
253          	3.474640e-09	8.420040e-09	5.186780e-07
254          	3.385270e-09	8.181560e-09	5.188440e-07
255          	3.298250e-09	7.949760e-09	5.190070e-07
256          	3.213540e-09	7.724470e-09	5.191670e-07
257          	3.131060e-09	7.505470e-09	5.193250e-07
258          	3.050770e-09	7.292530e-09	5.194800e-07
259          	2.972600e-09	7.085880e-09	5.196390e-07
260          	2.896490e-09	6.884990e-09	5.197950e-07
261          	2.822400e-09	6.689760e-09	5.199560e-07
262          	2.750300e-09	6.500170e-09	5.201160e-07
263          	2.680110e-09	6.315830e-09	5.202740e-07
264          	2.611780e-09	6.136610e-09	5.204340e-07
265          	2.545260e-09	5.962360e-09	5.205940e-07
266          	2.480490e-09	5.793080e-09	5.207510e-07
267          	2.417430e-09	5.628530e-09	5.209060e-07
268          	2.356110e-09	5.468550e-09	5.210570e-07
269          	2.296440e-09	5.313040e-09	5.212060e-07
270          	2.238360e-09	5.161900e-09	5.213520e-07
271          	2.181940e-09	5.014980e-09	5.214950e-07
272          	2.127040e-09	4.872170e-09	5.216400e-07
273          	2.073750e-09	4.733350e-09	5.217860e-07
274          	2.021940e-09	4.598420e-09	5.219290e-07
275          	1.971780e-09	4.467320e-09	5.220700e-07
276          	1.923160e-09	4.340110e-09	5.222080e-07
277          	1.876260e-09	4.216580e-09	5.223430e-07
278          	1.831390e-09	4.096520e-09	5.224760e-07
279          	1.788260e-09	3.979850e-09	5.226060e-07
280          	1.746220e-09	3.866510e-09	5.227340e-07
281          	1.705240e-09	3.756530e-09	5.228590e-07
282          	1.665320e-09	3.649630e-09	5.229820e-07
283          	1.626420e-09	3.545740e-09	5.231020e-07
284          	1.588500e-09	3.444930e-09	5.232200e-07
285          	1.551530e-09	3.346980e-09	5.233360e-07
286          	1.515500e-09	3.251810e-09	5.234490e-07
287          	1.480370e-09	3.159360e-09	5.235600e-07
288          	1.446150e-09	3.069520e-09	5.236690e-07
289          	1.412840e-09	2.982330e-09	5.237750e-07
290          	1.380380e-09	2.897670e-09	5.238800e-07
291          	1.348790e-09	2.815380e-09	5.239840e-07
292          	1.318040e-09	2.735470e-09	5.240860e-07
293          	1.288150e-09	2.657830e-09	5.241860e-07
294          	1.259080e-09	2.582380e-09	5.242830e-07
295          	1.230860e-09	2.509050e-09	5.243790e-07
296          	1.203480e-09	2.437850e-09	5.244730e-07
297          	1.176980e-09	2.368740e-09	5.245640e-07
298          	1.151350e-09	2.301650e-09	5.246540e-07
299          	1.126740e-09	2.236500e-09	5.247420e-07
300          	1.103250e-09	2.173180e-09	5.248290e-07
301          	1.080330e-09	2.111650e-09	5.249160e-07
302          	1.057970e-09	2.051850e-09	5.250020e-07
303          	1.036160e-09	1.993750e-09	5.250850e-07
304          	1.014880e-09	1.937290e-09	5.251690e-07
305          	9.941300e-10	1.882420e-09	5.252520e-07
306          	9.738910e-10	1.829100e-09	5.253320e-07
307          	9.541960e-10	1.777290e-09	5.254110e-07
308          	9.350110e-10	1.727030e-09	5.254880e-07
309          	9.163040e-10	1.678300e-09	5.255630e-07
310          	8.981440e-10	1.630970e-09	5.256370e-07
311          	8.804720e-10	1.584980e-09	5.257090e-07
312          	8.633170e-10	1.540280e-09	5.257820e-07
313          	8.467110e-10	1.496840e-09	5.258540e-07
314          	8.306400e-10	1.454620e-09	5.259240e-07
315          	8.151780e-10	1.413600e-09	5.259930e-07
316          	8.003510e-10	1.373750e-09	5.260600e-07
317          	7.858980e-10	1.335050e-09	5.261260e-07
318          	7.717770e-10	1.297450e-09	5.261900e-07
319          	7.580250e-10	1.260920e-09	5.262530e-07
320          	7.445860e-10	1.225430e-09	5.263150e-07
321          	7.315110e-10	1.191010e-09	5.263750e-07
322          	7.187840e-10	1.157590e-09	5.264340e-07
323          	7.063520e-10	1.125130e-09	5.264920e-07
324          	6.943300e-10	1.093580e-09	5.265480e-07
325          	6.826330e-10	1.062960e-09	5.266040e-07
326          	6.712900e-10	1.033230e-09	5.266580e-07
327          	6.603600e-10	1.004330e-09	5.267100e-07
328          	6.498540e-10	9.762560e-10	5.267620e-07
329          	6.396010e-10	9.489720e-10	5.268120e-07
330          	6.295870e-10	9.225130e-10	5.268620e-07
331          	6.197980e-10	8.968070e-10	5.269100e-07
332          	6.102690e-10	8.718270e-10	5.269570e-07
333          	6.009620e-10	8.475530e-10	5.270040e-07
334          	5.919250e-10	8.239650e-10	5.270490e-07
335          	5.831270e-10	8.010450e-10	5.270930e-07
336          	5.746350e-10	7.787740e-10	5.271360e-07
337          	5.664120e-10	7.571380e-10	5.271780e-07
338          	5.583690e-10	7.361680e-10	5.272190e-07
339          	5.504800e-10	7.158480e-10	5.272600e-07
340          	5.427720e-10	6.961170e-10	5.272990e-07
341          	5.352450e-10	6.769440e-10	5.273380e-07
342          	5.279030e-10	6.583130e-10	5.273750e-07
343          	5.207720e-10	6.402080e-10	5.274120e-07
344          	5.137850e-10	6.226250e-10	5.274480e-07
345          	5.069160e-10	6.055510e-10	5.274830e-07
346          	5.001810e-10	5.889590e-10	5.275180e-07
347          	4.935960e-10	5.728940e-10	5.275510e-07
348          	4.871320e-10	5.572880e-10	5.275840e-07
349          	4.807620e-10	5.421230e-10	5.276160e-07
350          	4.744730e-10	5.273870e-10	5.276480e-07
351          	4.682640e-10	5.130660e-10	5.276780e-07
352          	4.621350e-10	4.991490e-10	5.277080e-07
353          	4.560840e-10	4.856410e-10	5.277380e-07
354          	4.501110e-10	4.725370e-10	5.277660e-07
355          	4.442140e-10	4.598020e-10	5.277950e-07
356          	4.383930e-10	4.474250e-10	5.278230e-07
357          	4.326460e-10	4.354040e-10	5.278500e-07
358          	4.269720e-10	4.237510e-10	5.278770e-07
359          	4.213710e-10	4.124270e-10	5.279030e-07
360          	4.158420e-10	4.014330e-10	5.279290e-07
361          	4.103840e-10	3.907640e-10	5.279540e-07
362          	4.049950e-10	3.803940e-10	5.279780e-07
363          	3.996760e-10	3.703150e-10	5.280020e-07
364          	3.944240e-10	3.605180e-10	5.280250e-07
365          	3.892400e-10	3.510250e-10	5.280480e-07
366          	3.841230e-10	3.418090e-10	5.280700e-07
367          	3.790710e-10	3.328530e-10	5.280920e-07
368          	3.740840e-10	3.241610e-10	5.281130e-07
369          	3.691610e-10	3.157150e-10	5.281340e-07
370          	3.643010e-10	3.075240e-10	5.281540e-07
371          	3.595030e-10	2.995870e-10	5.281740e-07
372          	3.547670e-10	2.918850e-10	5.281930e-07
373          	3.500920e-10	2.844000e-10	5.282120e-07
374          	3.454770e-10	2.771340e-10	5.282310e-07
375          	3.409210e-10	2.700840e-10	5.282490e-07
376          	3.364240e-10	2.632540e-10	5.282660e-07
377          	3.319850e-10	2.566130e-10	5.282830e-07
378          	3.276030e-10	2.501590e-10	5.283000e-07
379          	3.232770e-10	2.438860e-10	5.283170e-07
380          	3.190070e-10	2.377870e-10	5.283330e-07
381          	3.147920e-10	2.318780e-10	5.283480e-07
382          	3.106310e-10	2.261560e-10	5.283630e-07
383          	3.065240e-10	2.205950e-10	5.283780e-07
384          	3.024700e-10	2.151870e-10	5.283930e-07
385          	2.984690e-10	2.099270e-10	5.284070e-07
386          	2.945190e-10	2.048310e-10	5.284210e-07
387          	2.906200e-10	1.998860e-10	5.284340e-07
388          	2.867710e-10	1.950750e-10	5.284480e-07
389          	2.829720e-10	1.903970e-10	5.284610e-07
390          	2.792220e-10	1.858660e-10	5.284740e-07
391          	2.755210e-10	1.814830e-10	5.284870e-07
392          	2.718680e-10	1.772370e-10	5.284990e-07
393          	2.682620e-10	1.731120e-10	5.285110e-07
394          	2.647020e-10	1.690990e-10	5.285230e-07
395          	2.611890e-10	1.652130e-10	5.285350e-07
396          	2.577210e-10	1.614350e-10	5.285460e-07
397          	2.542990e-10	1.577590e-10	5.285570e-07
398          	2.509210e-10	1.541820e-10	5.285670e-07
399          	2.475860e-10	1.507210e-10	5.285780e-07
400          	2.442950e-10	1.473540e-10	5.285880e-07
401          	2.410470e-10	1.440910e-10	5.285980e-07
402          	2.378410e-10	1.409220e-10	5.286080e-07
403          	2.346760e-10	1.378480e-10	5.286170e-07
404          	2.315530e-10	1.348720e-10	5.286260e-07
405          	2.284700e-10	1.319780e-10	5.286350e-07
406          	2.254280e-10	1.291730e-10	5.286440e-07
407          	2.224250e-10	1.264590e-10	5.286530e-07
408          	2.194610e-10	1.238240e-10	5.286610e-07
409          	2.165360e-10	1.212590e-10	5.286690e-07
410          	2.136490e-10	1.187710e-10	5.286770e-07
411          	2.108000e-10	1.163500e-10	5.286850e-07
412          	2.079880e-10	1.140160e-10	5.286920e-07
413          	2.052130e-10	1.117540e-10	5.287000e-07
414          	2.024740e-10	1.095520e-10	5.287070e-07
415          	1.997700e-10	1.074060e-10	5.287140e-07
416          	1.971030e-10	1.053210e-10	5.287210e-07
417          	1.944700e-10	1.033040e-10	5.287270e-07
418          	1.918710e-10	1.013730e-10	5.287340e-07
419          	1.893070e-10	9.949080e-11	5.287400e-07
420          	1.867760e-10	9.765590e-11	5.287460e-07
421          	1.842780e-10	9.586930e-11	5.287520e-07
422          	1.818130e-10	9.414510e-11	5.287580e-07
423          	1.793800e-10	9.246470e-11	5.287640e-07
424          	1.769790e-10	9.082670e-11	5.287690e-07
425          	1.746100e-10	8.923720e-11	5.287750e-07
426          	1.722720e-10	8.770260e-11	5.287800e-07
427          	1.699640e-10	8.621770e-11	5.287850e-07
428          	1.676870e-10	8.476740e-11	5.287900e-07
429          	1.654400e-10	8.335260e-11	5.287950e-07
430          	1.632220e-10	8.198090e-11	5.288000e-07
431          	1.610340e-10	8.064170e-11	5.288040e-07
432          	1.588740e-10	7.934110e-11	5.288090e-07
433          	1.567430e-10	7.807750e-11	5.288130e-07
434          	1.546400e-10	7.685820e-11	5.288170e-07
435          	1.525640e-10	7.567090e-11	5.288210e-07
436          	1.505160e-10	7.450920e-11	5.288250e-07
437          	1.484950e-10	7.337470e-11	5.288290e-07
438          	1.465010e-10	7.226780e-11	5.288330e-07
439          	1.445330e-10	7.119850e-11	5.288370e-07
440          	1.425900e-10	7.016130e-11	5.288400e-07
441          	1.406740e-10	6.915400e-11	5.288440e-07
442          	1.387830e-10	6.817240e-11	5.288470e-07
443          	1.369160e-10	6.721320e-11	5.288500e-07
444          	1.350750e-10	6.627430e-11	5.288530e-07
445          	1.332580e-10	6.537250e-11	5.288570e-07
446          	1.314650e-10	6.448810e-11	5.288600e-07
447          	1.296950e-10	6.362060e-11	5.288630e-07
448          	1.279490e-10	6.277190e-11	5.288660e-07
449          	1.262260e-10	6.195010e-11	5.288690e-07
450          	1.245260e-10	6.115220e-11	5.288720e-07
451          	1.228490e-10	6.036880e-11	5.288750e-07
452          	1.211930e-10	5.959940e-11	5.288780e-07
453          	1.195600e-10	5.885400e-11	5.288800e-07
454          	1.179480e-10	5.812910e-11	5.288830e-07
455          	1.163580e-10	5.742160e-11	5.288860e-07
456          	1.147890e-10	5.673730e-11	5.288880e-07
457          	1.132400e-10	5.606710e-11	5.288900e-07
458          	1.117130e-10	5.540780e-11	5.288930e-07
459          	1.102050e-10	5.476180e-11	5.288950e-07
460          	1.087180e-10	5.413110e-11	5.288970e-07
461          	1.072500e-10	5.351070e-11	5.288990e-07
462          	1.058020e-10	5.290180e-11	5.289010e-07
463          	1.043730e-10	5.231260e-11	5.289030e-07
464          	1.029630e-10	5.173810e-11	5.289050e-07
465          	1.015720e-10	5.117630e-11	5.289070e-07
466          	1.001990e-10	5.062580e-11	5.289090e-07
467          	9.884490e-11	5.008300e-11	5.289100e-07
468          	9.750860e-11	4.955170e-11	5.289120e-07
469          	9.619000e-11	4.903260e-11	5.289140e-07
470          	9.488910e-11	4.852470e-11	5.289150e-07
471          	9.360560e-11	4.802390e-11	5.289170e-07
472          	9.233910e-11	4.753080e-11	5.289180e-07
473          	9.108950e-11	4.704880e-11	5.289190e-07
474          	8.985660e-11	4.657920e-11	5.289210e-07
475          	8.864020e-11	4.611670e-11	5.289220e-07
476          	8.744000e-11	4.566350e-11	5.289230e-07
477          	8.625590e-11	4.521910e-11	5.289250e-07
478          	8.508750e-11	4.478030e-11	5.289260e-07
479          	8.393480e-11	4.434820e-11	5.289270e-07
480          	8.279750e-11	4.392100e-11	5.289280e-07
481          	8.167530e-11	4.350280e-11	5.289290e-07
482          	8.056820e-11	4.309530e-11	5.289300e-07
483          	7.947590e-11	4.269580e-11	5.289310e-07
484          	7.839820e-11	4.230210e-11	5.289320e-07
485          	7.733500e-11	4.191210e-11	5.289330e-07
486          	7.628590e-11	4.152630e-11	5.289330e-07
487          	7.525090e-11	4.114560e-11	5.289340e-07
488          	7.422980e-11	4.076910e-11	5.289350e-07
489          	7.322240e-11	4.040190e-11	5.289360e-07
490          	7.222840e-11	4.004310e-11	5.289360e-07
491          	7.124780e-11	3.968790e-11	5.289370e-07
492          	7.028030e-11	3.933580e-11	5.289380e-07
493          	6.932580e-11	3.898800e-11	5.289380e-07
494          	6.838410e-11	3.864340e-11	5.289390e-07
495          	6.745500e-11	3.830200e-11	5.289390e-07
496          	6.653840e-11	3.796820e-11	5.289400e-07
497          	6.563410e-11	3.764060e-11	5.289400e-07
498          	6.474200e-11	3.731640e-11	5.289410e-07
499          	6.386180e-11	3.699640e-11	5.289410e-07
500          	6.299340e-11	3.667860e-11	5.289420e-07
501          	6.213680e-11	3.636310e-11	5.289420e-07
502          	6.129160e-11	3.605060e-11	5.289420e-07
503          	6.045780e-11	3.574410e-11	5.289430e-07
504          	5.963520e-11	3.544220e-11	5.289430e-07
505          	5.882360e-11	3.514350e-11	5.289430e-07
506          	5.802300e-11	3.484720e-11	5.289430e-07
507          	5.723310e-11	3.455310e-11	5.289440e-07
508          	5.645390e-11	3.426080e-11	5.289440e-07
509          	5.568520e-11	3.397180e-11	5.289440e-07
510          	5.492680e-11	3.368800e-11	5.289440e-07
511          	5.417860e-11	3.340670e-11	5.289440e-07
512          	5.344050e-11	3.312810e-11	5.289450e-07
513          	5.271230e-11	3.285240e-11	5.289450e-07
514          	5.199390e-11	3.257820e-11	5.289450e-07
515          	5.128530e-11	3.230620e-11	5.289450e-07
516          	5.058610e-11	3.203770e-11	5.289450e-07
517          	4.989640e-11	3.177190e-11	5.289450e-07
518          	4.921610e-11	3.150800e-11	5.289450e-07
519          	4.854480e-11	3.124610e-11	5.289450e-07
520          	4.788260e-11	3.098610e-11	5.289450e-07
521          	4.722940e-11	3.072910e-11	5.289450e-07
522          	4.658500e-11	3.047470e-11	5.289450e-07
523          	4.594930e-11	3.022230e-11	5.289450e-07
524          	4.532210e-11	2.997220e-11	5.289450e-07
525          	4.470350e-11	2.972400e-11	5.289450e-07
526          	4.409320e-11	2.947760e-11	5.289450e-07
527          	4.349110e-11	2.923250e-11	5.289440e-07
528          	4.289710e-11	2.898970e-11	5.289440e-07
529          	4.231120e-11	2.874870e-11	5.289440e-07
530          	4.173320e-11	2.850900e-11	5.289440e-07
531          	4.116300e-11	2.827140e-11	5.289440e-07
532          	4.060050e-11	2.803540e-11	5.289440e-07
533          	4.004570e-11	2.780110e-11	5.289440e-07
534          	3.949830e-11	2.756810e-11	5.289430e-07
535          	3.895840e-11	2.733640e-11	5.289430e-07
536          	3.842570e-11	2.710640e-11	5.289430e-07
537          	3.790030e-11	2.687790e-11	5.289430e-07
538          	3.738190e-11	2.665120e-11	5.289420e-07
539          	3.687060e-11	2.642570e-11	5.289420e-07
540          	3.636620e-11	2.620150e-11	5.289420e-07
541          	3.586860e-11	2.597890e-11	5.289420e-07
542          	3.537780e-11	2.575770e-11	5.289420e-07
543          	3.489360e-11	2.553770e-11	5.289410e-07
544          	3.441600e-11	2.531910e-11	5.289410e-07
545          	3.394480e-11	2.510200e-11	5.289410e-07
546          	3.348010e-11	2.488610e-11	5.289400e-07
547          	3.302160e-11	2.467220e-11	5.289400e-07
548          	3.256940e-11	2.445960e-11	5.289400e-07
549          	3.212330e-11	2.424830e-11	5.289400e-07
550          	3.168320e-11	2.403830e-11	5.289390e-07
551          	3.124910e-11	2.382970e-11	5.289390e-07
552          	3.082090e-11	2.362240e-11	5.289390e-07
553          	3.039850e-11	2.341650e-11	5.289380e-07
554          	2.998190e-11	2.321180e-11	5.289380e-07
555          	2.957080e-11	2.300840e-11	5.289380e-07
556          	2.916540e-11	2.280630e-11	5.289370e-07
557          	2.876550e-11	2.260550e-11	5.289370e-07
558          	2.837100e-11	2.240630e-11	5.289370e-07
559          	2.798190e-11	2.220840e-11	5.289360e-07
560          	2.759800e-11	2.201190e-11	5.289360e-07
561          	2.721940e-11	2.181660e-11	5.289350e-07
562          	2.684590e-11	2.162280e-11	5.289350e-07
563          	2.647750e-11	2.143020e-11	5.289350e-07
564          	2.611410e-11	2.123890e-11	5.289340e-07