/*--------------------------------*- C++ -*----------------------------------*\
  =========                 |
  \\      /  F ield         | OpenFOAM: The Open Source CFD Toolbox
   \\    /   O peration     | Website:  https://openfoam.org
    \\  /    A nd           | Version:  9
     \\/     M anipulation  |
\*---------------------------------------------------------------------------*/
FoamFile
{
    format      ascii;
    class       volScalarField;
    location    "0.88";
    object      alpha.phase1;
}
// * * * * * * * * * * * * * * * * * * * * * * * * * * * * * * * * * * * * * //

dimensions      [0 0 0 0 0 0 0];

internalField   nonuniform List<scalar> 
10000
(
5.4482366e-84
2.2244936e-83
9.7217471e-82
4.2221873e-81
4.7264326e-81
1.7805713e-81
5.872773e-82
5.7518467e-82
1.8810913e-81
2.4302093e-79
2.8895089e-77
3.0694221e-75
2.9611274e-73
2.6169071e-71
2.1256113e-69
1.5940415e-67
1.1089906e-65
7.1891019e-64
4.3594821e-62
2.4820664e-60
1.3313904e-58
6.7404481e-57
3.2186606e-55
1.4609401e-53
6.7173388e-52
3.8354356e-50
3.6508567e-48
5.4490404e-46
8.9055117e-44
1.328801e-41
1.74442e-39
2.0136207e-37
2.0550569e-35
1.8667695e-33
1.5202714e-31
1.1184742e-29
7.4921708e-28
4.6054371e-26
2.6176735e-24
1.3854697e-22
6.8677379e-21
3.2027918e-19
1.4335268e-17
6.1908757e-16
1.6202856e-14
1.736403e-13
4.3782619e-11
1.3301254e-09
4.5096186e-09
4.2484037e-08
1.0284428e-07
1.3867162e-07
2.0694047e-07
3.4261922e-07
1.1697178e-06
9.7730428e-07
6.4008079e-07
6.7388226e-07
1.2059475e-06
8.5054738e-07
1.1488502e-07
4.7390574e-10
3.369432e-11
2.6793257e-12
7.5483069e-13
5.7019681e-13
1.96408e-13
1.7626344e-14
4.7477846e-16
1.0865634e-17
2.8351695e-19
6.556791e-21
1.2671067e-22
2.0475357e-24
2.7442248e-26
3.0002014e-28
2.6120903e-30
1.7508248e-32
8.6195357e-35
2.9424712e-37
7.0447742e-40
2.0349087e-42
1.2499812e-44
8.344221e-47
4.996705e-49
2.662523e-51
1.2527419e-53
5.1627378e-56
1.8478284e-58
5.6874046e-61
1.4889034e-63
3.2293244e-65
3.5641539e-65
6.9591189e-63
5.7783393e-61
2.9214187e-59
9.7208027e-58
2.61867e-56
4.9102446e-55
4.880939e-54
5.4485592e-84
1.9665653e-82
6.8957723e-81
3.0450229e-80
3.9382074e-80
2.9539734e-80
1.5911628e-80
8.0473543e-81
4.2806456e-80
6.2313297e-78
7.9134896e-76
8.9662734e-74
9.161601e-72
8.51761e-70
7.2559155e-68
5.7001092e-66
4.151241e-64
2.8165333e-62
1.7877365e-60
1.065895e-58
5.9892257e-57
3.175775e-55
1.5902926e-53
7.5959912e-52
3.5925922e-50
1.8935446e-48
1.5413649e-46
2.233431e-44
3.8298912e-42
6.0596004e-40
8.4111563e-38
1.0216967e-35
1.0921225e-33
1.0346066e-31
8.7534386e-30
6.667761e-28
4.6100583e-26
2.9165612e-24
1.7016871e-22
9.2201265e-21
4.6771763e-19
2.338531e-17
1.0999883e-15
2.1794732e-14
1.8061206e-13
5.1832559e-12
1.6992302e-10
2.3973492e-07
2.5357478e-06
3.2328899e-06
2.8712716e-06
5.1147809e-06
7.5178942e-06
1.304914e-05
1.3065542e-05
2.9852918e-06
6.4008079e-07
6.6480698e-07
5.4081473e-06
1.1123116e-05
5.6740144e-06
2.1395227e-07
4.7392419e-10
3.3682709e-11
2.8350823e-12
6.7177562e-13
8.6399898e-14
4.3929656e-14
4.6202372e-15
6.8477963e-17
6.3437892e-19
9.9695524e-21
1.5794423e-22
2.1288757e-24
2.4149722e-26
2.2346284e-28
1.6065586e-30
8.7278071e-33
3.4299932e-35
1.4744471e-37
9.3073667e-40
6.0510132e-42
4.3150941e-44
3.0032694e-46
1.8638609e-48
1.0189693e-50
4.8654877e-53
2.0101744e-55
7.1125879e-58
2.1308325e-60
5.6345954e-63
4.7187784e-64
1.1928712e-61
1.3670403e-59
9.1889086e-58
3.7916813e-56
9.7973182e-55
1.5576619e-53
1.3378831e-52
1.6771254e-52
3.3896589e-81
2.5741043e-79
6.2049119e-78
2.1074105e-77
2.4646882e-77
1.777333e-77
9.1865173e-78
4.4804497e-78
1.7755977e-77
2.6859945e-75
3.5118108e-73
4.075153e-71
4.24699e-69
4.0139017e-67
3.4659189e-65
2.7519379e-63
2.0205021e-61
1.3782707e-59
8.769938e-58
5.2264016e-56
2.925428e-54
1.5358068e-52
7.5320954e-51
3.5120158e-49
1.6602888e-47
8.0612042e-46
3.3802399e-44
1.246385e-42
8.7550692e-41
1.200672e-38
1.7036173e-36
2.1518398e-34
2.3894443e-32
2.3425991e-30
2.0423335e-28
1.596056e-26
1.1274454e-24
7.2601549e-23
4.2978546e-21
2.3629897e-19
1.2465615e-17
5.8543472e-16
1.4516793e-14
2.7965017e-13
1.0056095e-11
3.4752256e-10
7.4333343e-09
6.9631759e-06
1.8360076e-05
1.8367096e-05
1.8367208e-05
1.8371155e-05
1.8367095e-05
1.8361125e-05
1.5700172e-05
1.7068695e-06
6.9627881e-07
6.7197556e-07
1.7850149e-06
1.1422743e-05
1.1557891e-05
1.1557891e-05
7.198089e-06
9.0790273e-08
1.2914288e-10
8.0553034e-12
6.5507324e-13
1.901193e-13
2.6862999e-13
3.1980702e-14
2.9215394e-16
1.5801177e-18
1.8263761e-20
2.1272527e-22
2.0840579e-24
1.6685316e-26
7.5065649e-29
2.6972357e-31
6.7662454e-34
6.7059102e-37
2.3257076e-39
5.5322655e-41
4.3142305e-43
3.0121361e-45
1.8484533e-47
9.8886672e-50
4.5705105e-52
1.8086177e-54
6.073604e-57
1.7182134e-59
5.6289828e-62
1.0737815e-60
1.650373e-58
1.5009096e-56
8.4662205e-55
3.0546559e-53
7.1137392e-52
1.034977e-50
8.1288404e-50
1.2281837e-49
1.8508149e-78
1.9627833e-76
3.5436899e-75
9.8425843e-75
1.0821329e-74
7.659566e-75
3.8656715e-75
1.8497534e-75
6.1093146e-75
9.6679434e-73
1.3113195e-70
1.5681263e-68
1.6765811e-66
1.6193214e-64
1.4255414e-62
1.1513301e-60
8.5808779e-59
5.9315623e-57
3.8186705e-55
2.2989791e-53
1.2989084e-51
6.8667491e-50
3.3660707e-48
1.5613315e-46
7.7057362e-45
4.4382047e-43
2.0953846e-41
5.4028772e-40
8.5475581e-39
2.0044665e-37
2.0302629e-35
2.6197965e-33
2.9272486e-31
2.8677625e-29
2.482876e-27
1.917379e-25
1.3327502e-23
8.4238124e-22
4.8917613e-20
2.6691435e-18
1.4239178e-16
5.2147983e-15
7.4246281e-14
2.9276474e-12
1.162044e-10
4.1602267e-09
3.7404027e-06
1.7802994e-05
1.8335657e-05
1.8360035e-05
1.8370931e-05
1.7912037e-05
1.7537122e-05
6.8882116e-06
2.0054064e-06
1.5694785e-06
9.3161724e-07
7.1199675e-07
9.1098644e-07
1.0968236e-06
6.267082e-06
1.1544351e-05
1.1324856e-05
4.5831015e-06
1.7200472e-08
1.0564598e-09
4.5897465e-11
1.8256185e-12
1.318717e-13
1.6353023e-14
3.8570338e-16
4.5236655e-18
6.4486466e-20
7.716974e-22
7.1122257e-24
5.2500236e-26
3.5718702e-28
1.8440841e-30
6.691739e-33
1.6778296e-35
5.7911563e-38
4.2665856e-40
3.2781595e-42
2.2153577e-44
1.3079555e-46
6.6867099e-49
2.9352388e-51
1.1005126e-53
3.5261763e-56
1.027282e-58
4.4878494e-60
1.2741584e-57
1.5231652e-55
1.1323018e-53
5.4541894e-52
1.7377709e-50
3.665255e-49
4.9125199e-48
3.5294467e-47
5.8244823e-47
7.3116631e-76
8.8257913e-74
1.3903334e-72
3.4622274e-72
3.6594613e-72
2.5687241e-72
1.27751e-72
6.0162354e-73
1.6655431e-72
2.8038609e-70
3.9899854e-68
4.9531168e-66
5.4602539e-64
5.4122884e-62
4.8700466e-60
4.0097037e-58
3.0390001e-56
2.1320189e-54
1.390729e-52
8.4685081e-51
4.8333437e-49
2.5792377e-47
1.2731874e-45
5.8979349e-44
2.9047774e-42
1.8180175e-40
1.0256848e-38
2.8601851e-37
3.7747297e-36
3.4708421e-35
4.1282594e-34
1.1310786e-32
6.1299477e-31
4.4616912e-29
3.4241641e-27
2.5123e-25
1.7263752e-23
1.0665969e-21
6.0619392e-20
3.2776279e-18
1.8435282e-16
6.430978e-15
6.00767e-14
2.4158818e-12
1.0376298e-10
4.7710298e-09
5.8345979e-06
1.1225416e-05
6.3459395e-06
5.2605906e-06
6.8980392e-06
3.6799007e-06
4.2084834e-06
4.2057568e-06
2.6200757e-06
8.6074687e-06
2.1242531e-05
1.7206055e-05
8.7397477e-06
2.8897636e-06
3.0416644e-06
4.1212751e-06
1.1348447e-05
9.6616853e-06
6.2710371e-07
2.6913433e-09
1.0777675e-10
3.6271323e-12
1.1547798e-13
1.1979373e-14
3.9314964e-16
6.4628491e-18
7.1144387e-20
7.266317e-22
6.977716e-24
5.1881015e-26
2.6291449e-28
9.776984e-31
3.8355786e-33
2.9774141e-35
2.7366423e-37
2.3523101e-39
1.7653848e-41
1.1286181e-43
6.050527e-46
2.7648927e-48
1.1110532e-50
4.0100785e-53
1.3255068e-55
5.8179898e-58
7.309555e-57
1.0755741e-54
1.0235989e-52
6.3364935e-51
2.6372828e-49
7.4745708e-48
1.4343277e-46
1.7802543e-45
1.1759873e-44
2.0317153e-44
2.2264779e-73
2.8363457e-71
4.1701974e-70
9.7716297e-70
1.0061544e-69
7.04335e-70
3.4707809e-70
1.6033316e-70
3.5256219e-70
6.5162544e-68
9.9061994e-66
1.2904423e-63
1.4764394e-61
1.508278e-59
1.3915381e-57
1.1699437e-55
9.0266647e-54
6.42617e-52
4.2438451e-50
2.6107058e-48
1.501385e-46
8.0599404e-45
4.0036652e-43
1.8615502e-41
8.9542668e-40
5.2994576e-38
3.1157267e-36
1.0133729e-34
1.532365e-33
1.3606226e-32
1.0746378e-31
1.2004506e-30
2.4297186e-29
7.9219509e-28
3.4180334e-26
1.3253536e-24
3.6644378e-23
1.0414247e-21
4.3027388e-20
2.2606951e-18
1.1812982e-16
4.031159e-15
4.7379862e-14
3.3048713e-12
2.6430624e-10
1.795307e-07
2.609519e-06
1.387994e-07
1.3730019e-07
1.3686136e-07
1.372926e-07
4.3498936e-06
2.1058047e-05
3.0378296e-05
3.8743825e-05
7.1562181e-05
7.0757107e-05
7.0115732e-05
6.2270669e-05
2.8071941e-05
3.9343715e-06
4.3193067e-06
1.0880827e-05
1.0635679e-05
3.5665707e-06
6.1669136e-09
2.1190533e-10
6.074422e-12
1.5920557e-13
1.3409009e-14
4.2253722e-16
6.4181078e-18
7.3873536e-20
6.4998006e-22
4.5652583e-24
2.3590736e-26
9.3524094e-29
5.612214e-31
5.392309e-33
5.2361777e-35
4.6029876e-37
3.5273099e-39
2.3694411e-41
1.4113193e-43
7.6781074e-46
3.9073822e-48
1.8829912e-50
8.7074025e-53
3.9949541e-55
2.3930845e-56
5.7904579e-54
6.7843172e-52
5.2447772e-50
2.7429372e-48
9.9659248e-47
2.5326329e-45
4.4425709e-44
5.1239402e-43
3.1279224e-42
5.5137019e-42
6.0993882e-71
7.1628557e-69
1.0176494e-67
2.3030353e-67
2.3326116e-67
1.6336061e-67
8.0144041e-68
3.5771511e-68
5.4700056e-68
1.1929535e-65
2.0101315e-63
2.7988149e-61
3.359979e-59
3.5610641e-57
3.3836905e-55
2.9134434e-53
2.2922918e-51
1.6588937e-49
1.1096578e-47
6.8966182e-46
3.9951742e-44
2.1546339e-42
1.0753823e-40
5.0392867e-39
2.3919871e-37
1.2765426e-35
6.7602416e-34
2.4519561e-32
4.9582693e-31
5.6954049e-30
4.3264522e-29
2.9188338e-28
2.7677152e-27
5.9043424e-26
2.7718868e-24
1.3805417e-22
3.2602938e-21
3.5138852e-20
2.8568658e-19
4.2699323e-18
1.2503784e-16
2.9342582e-15
1.0145956e-13
6.6536377e-12
1.8497263e-10
2.2754452e-08
1.347513e-06
2.0443421e-07
1.3673227e-07
1.3651617e-07
1.3467501e-05
6.0855553e-05
7.1614102e-05
7.1614651e-05
7.1595644e-05
7.155388e-05
7.1374232e-05
7.0686305e-05
4.0722695e-05
2.3084703e-05
4.1787061e-05
3.2461068e-05
8.5462096e-06
7.5357109e-06
2.4767988e-06
1.6653682e-08
3.0181634e-10
8.9533789e-12
4.2535473e-13
1.6269316e-14
3.6021331e-16
5.8776411e-18
6.0581083e-20
3.9690782e-22
2.4947147e-24
2.0594967e-26
2.2217262e-28
2.4446539e-30
2.5827553e-32
2.4323493e-34
2.0161334e-36
1.4708085e-38
9.5141671e-41
5.7385352e-43
3.255789e-45
1.8276244e-47
9.28975e-50
3.6985697e-52
2.0455694e-54
2.6217255e-53
3.488594e-51
3.298314e-49
2.1073589e-47
9.4380805e-46
3.0236951e-44
6.9360377e-43
1.1182908e-41
1.2024939e-40
6.8164637e-40
1.2062064e-39
3.0516307e-68
1.5028934e-66
2.0962291e-65
4.6615579e-65
4.6747998e-65
3.2863176e-65
1.6216631e-65
6.561808e-66
4.5152633e-66
1.5649413e-63
3.2039889e-61
4.9470129e-59
6.348875e-57
7.0587604e-55
6.9563391e-53
6.1657441e-51
4.9643865e-49
3.6591501e-47
2.4844914e-45
1.562016e-43
9.1238399e-42
4.945522e-40
2.4801379e-38
1.1722879e-36
5.5384698e-35
2.7142124e-33
1.2501482e-31
4.7683452e-30
1.3588986e-28
2.2407082e-27
1.8436128e-26
9.2217183e-26
4.5092509e-25
4.7026472e-24
2.1621813e-22
1.4447673e-20
3.8941191e-19
3.722564e-18
1.9335923e-17
1.0698343e-16
1.0365107e-15
1.0984113e-14
3.0871003e-13
1.353597e-11
1.0382447e-10
7.9733987e-10
1.3450235e-06
4.5177715e-07
1.3611548e-07
1.3636375e-07
5.4075772e-05
7.0104672e-05
7.0950486e-05
7.1594516e-05
7.155388e-05
6.6486763e-05
3.0296901e-05
8.6007216e-07
3.0616125e-07
1.8167808e-05
4.5965042e-05
4.6904281e-05
1.7304352e-05
8.9489403e-07
4.7405258e-07
4.1052e-08
1.5636514e-10
2.1230467e-12
3.0911918e-13
5.8332035e-14
7.2312604e-16
6.064467e-18
5.7021289e-20
5.2258475e-22
7.017157e-24
9.2417987e-26
1.1909425e-27
1.4188226e-29
1.5230355e-31
1.4751766e-33
1.2953394e-35
1.0438026e-37
7.6719042e-40
4.3999656e-42
2.1193629e-44
8.6575522e-47
3.0765922e-49
1.1152851e-51
7.9738438e-53
1.5481168e-50
1.649523e-48
1.2620855e-46
6.7753382e-45
2.6310365e-43
7.5022306e-42
1.5640315e-40
2.3311867e-39
2.3439958e-38
1.2393379e-37
2.1792899e-37
3.8876257e-65
2.8271776e-64
3.7422643e-63
8.2770675e-63
8.2537173e-63
5.8319202e-63
2.8995821e-63
1.0925395e-63
8.7066136e-65
1.1361162e-61
3.6607447e-59
6.7935526e-57
9.6151024e-55
1.1386919e-52
1.173952e-50
1.0765683e-48
8.9041061e-47
6.70242e-45
4.6243571e-43
2.9435459e-41
1.7346147e-39
9.4595552e-38
4.7691509e-36
2.2681608e-34
1.0609092e-32
4.8732175e-31
2.0476946e-29
8.2920008e-28
3.2727142e-26
7.1687579e-25
6.1555391e-24
2.5496956e-23
8.2461392e-23
4.549155e-22
2.4621637e-20
2.0814165e-18
4.8979382e-17
3.4331183e-16
1.1358672e-15
3.0888324e-15
1.1608978e-14
5.5297045e-14
3.8558273e-13
5.1533145e-12
7.4813695e-12
1.2698648e-09
1.1597714e-06
1.7747269e-07
1.3567109e-07
1.3611315e-07
1.3555926e-05
6.7446952e-05
7.0104672e-05
5.1977062e-05
7.5639351e-06
3.019352e-07
2.9656817e-07
2.9709417e-07
2.9963569e-07
7.3466475e-06
4.676826e-05
4.6846662e-05
4.7569977e-05
5.784479e-06
2.7151953e-08
5.3602493e-09
4.0746306e-11
2.2342255e-11
6.3414221e-11
3.2892754e-12
1.1828241e-15
1.7390778e-17
1.5127028e-19
1.7405711e-21
2.7505607e-23
3.9516946e-25
5.0126311e-27
5.7094024e-29
5.8378644e-31
5.3216128e-33
4.280094e-35
3.0139504e-37
1.8401202e-39
9.6520324e-42
4.2954177e-44
1.6179764e-46
5.4255998e-49
3.2262723e-51
6.548153e-50
7.0067152e-48
6.1259024e-46
3.8617955e-44
1.7687755e-42
6.0279685e-41
1.5432243e-39
2.9436366e-38
4.0797625e-37
3.8468971e-36
1.9047012e-35
3.3079375e-35
5.1395563e-62
6.2585732e-62
5.9259844e-61
1.3092929e-60
1.3029483e-60
9.2649944e-61
4.6151863e-61
1.7425892e-61
1.13919e-62
2.4875097e-60
1.5189657e-57
3.6748821e-55
5.9434465e-53
7.7107628e-51
8.4661533e-49
8.1385776e-47
6.987652e-45
5.4301522e-43
3.8499989e-41
2.5079801e-39
1.5102024e-37
8.4429535e-36
4.399788e-34
2.1338547e-32
9.5472771e-31
4.007181e-29
1.8606413e-27
1.4888889e-25
1.2513021e-23
3.2390239e-22
2.347886e-21
7.1588583e-21
1.5655136e-20
5.4177226e-20
4.4258711e-18
2.7199394e-16
3.7275972e-15
1.7779499e-14
4.8733891e-14
9.6755058e-14
1.2945119e-13
1.7575223e-13
4.9908781e-13
9.093234e-12
5.7623172e-08
7.2220349e-07
1.3568779e-07
1.3546569e-07
1.3557785e-07
1.3567056e-07
1.3630034e-07
1.4876139e-05
1.9758024e-05
4.0136728e-07
3.0703409e-07
2.986731e-07
2.9709417e-07
2.9939219e-07
2.9946545e-07
1.4782431e-05
4.6793663e-05
4.6921072e-05
4.697407e-05
1.7729491e-05
1.9237948e-08
1.4943665e-09
1.4550519e-09
6.1786624e-09
1.8289092e-10
8.1515293e-13
2.9470512e-15
5.4464013e-17
3.8643711e-19
4.8301342e-21
7.7976676e-23
1.1798729e-24
1.474688e-26
1.5743409e-28
1.4685074e-30
1.1883682e-32
8.3601603e-35
5.0927848e-37
2.6979321e-39
1.2705889e-41
5.1680441e-44
2.0808058e-46
9.4245592e-49
2.3502323e-49
2.721548e-47
2.4996939e-45
1.8096308e-43
9.5714928e-42
3.794547e-40
1.1476205e-38
2.66056e-37
4.6740023e-36
6.0560391e-35
5.3706329e-34
2.4993127e-33
4.2712959e-33
5.4364226e-59
2.8610592e-59
8.5665735e-59
1.8654113e-58
1.8610083e-58
1.3337794e-58
6.7110493e-59
2.8371269e-59
1.0939417e-60
4.8045554e-59
4.1200092e-56
2.6451042e-53
6.8955155e-51
1.0954422e-48
1.3373681e-46
1.3749735e-44
1.23646e-42
9.9268069e-41
7.2096649e-39
4.7718235e-37
2.8987761e-35
1.6233151e-33
8.4073038e-32
4.0361314e-30
1.7950811e-28
7.4995543e-27
3.3573742e-25
2.2539618e-23
1.616974e-21
4.359132e-20
3.3674564e-19
9.8872705e-19
1.7888818e-18
4.1657557e-18
2.4072305e-16
1.0697807e-14
1.1153463e-13
4.5810693e-13
1.145486e-12
1.7293132e-12
1.4099061e-12
9.5448138e-13
4.2333716e-12
1.0796354e-10
1.740942e-07
1.6594523e-06
3.3299502e-07
1.3571483e-07
1.3567109e-07
1.4165543e-07
5.3766474e-06
5.8389759e-06
1.0623624e-05
7.5115388e-06
3.1565056e-07
2.9948558e-07
2.9946446e-07
2.9946546e-07
2.9959304e-07
2.3962094e-05
4.6921072e-05
4.6966781e-05
4.7058791e-05
1.4931825e-05
1.4496838e-07
8.7935084e-09
9.3773868e-08
8.0834419e-09
1.5768974e-11
3.785776e-14
2.7520519e-15
6.4200695e-17
6.4840344e-19
8.1792141e-21
1.1633923e-22
1.494103e-24
1.6949809e-26
1.6955308e-28
1.49485e-30
1.164006e-32
7.8834433e-35
4.64055e-37
2.4320152e-39
1.194296e-41
6.1704739e-44
3.0713733e-46
3.2176025e-48
1.1563377e-46
9.3149236e-45
7.1669732e-43
4.3034264e-41
1.9432237e-39
6.7574325e-38
1.8324664e-36
3.8779485e-35
6.3149323e-34
7.6877816e-33
6.4314986e-32
2.822477e-31
4.7358316e-31
4.607378e-56
2.0277995e-56
1.1997984e-56
2.4319403e-56
2.4287669e-56
1.7566138e-56
9.0622904e-57
3.2720343e-57
1.1964932e-58
5.0767509e-59
1.5002129e-56
2.5636982e-51
3.4921837e-48
8.5928993e-46
1.2624546e-43
1.4404388e-41
1.3917974e-39
1.1807194e-37
8.980045e-36
6.2055004e-34
3.9199773e-32
2.2578394e-30
1.1868477e-28
6.142104e-27
3.9001952e-25
3.0369737e-23
1.4233166e-21
2.6221913e-20
2.498947e-19
2.4120939e-18
1.9685562e-17
7.0568538e-17
1.363364e-16
2.6378294e-16
9.7813611e-15
3.9127384e-13
3.6883842e-12
9.6423447e-12
9.5789576e-12
1.6103362e-12
1.4859918e-12
1.5215386e-12
3.2990714e-11
8.2730993e-10
1.7087321e-07
1.6603643e-06
6.100669e-07
1.3726168e-07
1.3768012e-07
1.3772387e-07
2.0492049e-05
2.9078814e-05
2.9126855e-05
2.9116614e-05
4.0951712e-07
2.9526563e-07
3.0021326e-07
2.9949169e-07
2.9914529e-07
1.7561829e-05
4.6778545e-05
4.6921072e-05
3.7250971e-05
3.1363462e-06
2.3219636e-07
1.3482169e-06
7.3548606e-08
8.4619783e-10
4.2911374e-14
4.0919745e-14
2.4364987e-15
5.6554132e-17
6.0546087e-19
7.6610277e-21
1.0571823e-22
1.3144225e-24
1.4606106e-26
1.4307558e-28
1.2252958e-30
9.1507677e-33
6.0345299e-35
3.6018431e-37
2.0148124e-39
1.0827599e-41
5.6873575e-44
3.819461e-46
4.5245265e-46
3.5526485e-44
2.5535476e-42
1.6487828e-40
8.3343011e-39
3.2635786e-37
1.0076211e-35
2.4732459e-34
4.8133714e-33
7.3101447e-32
8.4011286e-31
6.6496499e-30
2.7608342e-29
4.5420622e-29
3.2009715e-53
1.3569719e-53
2.1173298e-54
2.9469604e-54
2.9162176e-54
2.1458859e-54
9.7925963e-55
5.9949506e-56
6.9677208e-56
1.5602232e-53
7.347136e-51
3.4778554e-49
5.4000215e-44
2.5474273e-41
4.6453053e-39
6.0885858e-37
6.6234085e-35
6.3294856e-33
5.4240903e-31
4.1637787e-29
3.1547652e-27
4.3861683e-25
9.2033285e-23
4.0348311e-21
3.4620525e-20
1.2146873e-19
7.2174739e-19
8.2491064e-18
3.6117038e-17
1.0387081e-16
3.4281311e-16
1.5158117e-15
6.1975857e-15
8.0909744e-14
7.5192981e-13
2.8881981e-12
2.5994892e-11
6.6858852e-11
9.7443563e-12
1.7405341e-10
6.6076475e-09
4.6415842e-09
1.9634791e-10
2.4700302e-08
5.0773577e-07
1.6467266e-06
5.034311e-07
1.3769129e-07
1.310536e-07
1.4072074e-07
1.045653e-05
2.8401858e-05
2.9126855e-05
2.6292922e-05
1.0346431e-05
4.8483615e-07
2.9992405e-07
3.0379864e-07
3.1272572e-07
5.3608985e-06
2.6814953e-05
2.3523667e-05
2.6724297e-06
2.8955809e-07
2.7171011e-07
1.6722378e-06
2.2936358e-08
6.9566352e-14
3.2636388e-14
3.9744963e-14
1.7672774e-15
3.8924836e-17
4.4887418e-19
5.7111242e-21
7.6063129e-23
9.1291947e-25
9.7625664e-27
9.2409267e-29
7.7510016e-31
5.8634545e-33
4.0722679e-35
2.6154421e-37
1.5561825e-39
8.4899965e-42
4.2808465e-44
1.3058858e-45
1.4180825e-43
8.701535e-42
5.5749305e-40
3.0639456e-38
1.327968e-36
4.5734534e-35
1.2675008e-33
2.8402288e-32
5.1183052e-31
7.2914438e-30
7.9456281e-29
5.9672196e-28
2.3516346e-27
3.7905246e-27
1.8584101e-50
7.7857367e-51
6.7191836e-52
3.3293503e-52
3.2649507e-52
2.3847872e-52
1.2310947e-52
4.4455887e-53
1.9216855e-52
4.785272e-50
3.2133629e-47
1.4063737e-44
4.9887065e-42
1.6179458e-39
3.0582971e-37
4.273418e-35
4.7566505e-33
4.4941437e-31
3.7479848e-29
2.8198158e-27
1.9321518e-25
1.2195071e-23
7.8419382e-22
5.9853527e-20
7.3476537e-18
4.4443833e-16
6.6012357e-15
2.9509102e-14
5.8734445e-14
7.9010957e-14
1.1480833e-13
2.7855957e-13
5.9303634e-13
1.6159478e-12
1.208048e-11
1.5816643e-11
1.5168489e-11
1.8699492e-11
6.8715825e-09
9.1332523e-08
8.8565089e-08
6.8296642e-09
1.2322282e-09
8.4486494e-08
4.7969432e-07
1.6621254e-07
1.5781864e-07
1.1462504e-07
1.0090644e-07
1.5600393e-07
3.1299868e-07
1.6548839e-05
1.2609936e-05
1.3576483e-05
2.6130524e-05
1.500584e-05
3.1529312e-07
3.1734948e-07
3.3518526e-07
3.7609296e-07
7.1656757e-07
2.1390559e-06
3.8326646e-06
4.9728516e-06
5.0211994e-06
9.5481868e-08
2.5669575e-12
-3.9714973e-13
2.7454252e-14
2.6332097e-14
9.1730458e-16
1.9520014e-17
2.4388693e-19
3.12429e-21
4.1172251e-23
4.9506566e-25
5.2810836e-27
5.0949921e-29
4.4640534e-31
3.5624716e-33
2.5838303e-35
1.6728328e-37
9.4407397e-40
4.4109794e-42
5.4474232e-44
5.4118761e-43
3.1583448e-41
1.7553724e-39
9.8551526e-38
4.6514144e-36
1.7573867e-34
5.390047e-33
1.3538521e-31
2.790691e-30
4.6859879e-29
6.2957501e-28
6.5316804e-27
4.6673416e-26
1.7518685e-25
2.7660287e-25
9.1506678e-48
3.8244608e-48
2.9339249e-49
3.6889214e-50
3.424889e-50
2.490469e-50
1.4081866e-50
5.6105697e-51
1.2766571e-50
1.9622742e-48
8.1144047e-46
4.5558218e-43
1.7017897e-40
6.0661089e-38
1.3138579e-35
1.9274023e-33
2.1745714e-31
2.0638414e-29
1.7163465e-27
1.2798843e-25
8.6408914e-24
5.2537179e-22
3.0025683e-20
2.1473532e-18
2.6811342e-16
1.8360024e-14
2.9949318e-13
1.3771145e-12
2.583599e-12
2.8139407e-12
2.8345392e-12
3.7100101e-12
5.3021537e-12
6.5201546e-12
9.0599213e-12
8.8687657e-12
1.0164392e-11
1.4061342e-08
8.4996e-08
9.1802039e-08
5.3538725e-08
7.4025314e-09
4.3513229e-09
2.1484269e-08
7.0637858e-08
4.056825e-08
4.056825e-08
6.5992818e-08
1.0630552e-07
1.048407e-06
7.0964259e-07
1.425247e-07
8.5288115e-08
1.404108e-05
2.6315241e-05
2.6503082e-05
5.4427328e-06
9.7161309e-07
3.0433579e-06
6.4395254e-06
1.0805631e-05
1.4130457e-05
2.0758314e-05
1.8200952e-05
2.6361031e-06
7.6777172e-11
2.3306434e-13
5.3736011e-14
6.2675971e-14
9.2331538e-15
3.2608707e-16
7.2100478e-18
1.0004661e-19
1.3258702e-21
1.856237e-23
2.402698e-25
2.7361452e-27
2.7799728e-29
2.4941662e-31
1.945833e-33
1.3041892e-35
7.2948296e-38
3.172017e-40
2.61873e-42
7.9594057e-43
1.1844039e-40
5.7951747e-39
2.931573e-37
1.4265537e-35
5.8331842e-34
1.9487033e-32
5.3795653e-31
1.2347731e-29
2.3569335e-28
3.7088077e-27
4.7227206e-26
4.6823275e-25
3.1923184e-24
1.1454883e-23
1.7722612e-23
3.8659374e-45
1.6217748e-45
1.2616786e-46
4.7937127e-48
3.3499386e-48
2.4548836e-48
1.396174e-48
6.2338005e-49
6.3347492e-49
1.2398578e-46
3.9588923e-44
1.6145874e-41
8.6610391e-39
2.2337131e-36
3.3861939e-34
3.9884836e-32
3.9458872e-30
3.4030407e-28
2.6123418e-26
1.8070598e-24
1.1302389e-22
6.3489852e-21
3.3452555e-19
2.1698072e-17
2.2860492e-15
1.3465559e-13
2.0226807e-12
9.0529896e-12
1.6886206e-11
1.8538471e-11
1.4167267e-11
1.2091524e-11
1.3135705e-11
9.5983322e-12
8.6785823e-12
8.6815943e-12
2.0713575e-11
8.7339505e-08
7.5206295e-08
5.8148915e-08
5.4282471e-08
5.7985438e-08
1.6094863e-08
3.0606011e-08
3.8370752e-08
4.0106813e-08
4.1590949e-08
6.8470329e-08
9.9722039e-06
2.0214083e-05
3.0824053e-06
9.4896488e-08
2.2295625e-08
1.0101161e-05
2.6503217e-05
2.6505955e-05
2.6505955e-05
2.6505955e-05
2.6439916e-05
2.5882534e-05
2.4997099e-05
2.4017224e-05
2.1617786e-05
3.5463789e-06
1.8248173e-08
-1.4821644e-11
2.8024891e-14
5.6301214e-14
5.4128446e-14
1.9902966e-15
9.0097578e-17
2.2920513e-18
3.6189496e-20
5.4594961e-22
8.4175665e-24
1.163354e-25
1.3627458e-27
1.3483049e-29
1.1059774e-31
7.2913915e-34
3.7339712e-36
1.4472994e-38
5.1336176e-41
4.4928271e-42
4.3697212e-40
1.9443711e-38
8.6866803e-37
3.9889964e-35
1.6992163e-33
6.1063949e-32
1.8252027e-30
4.5748883e-29
9.6609551e-28
1.717412e-26
2.545465e-25
3.0858079e-24
2.9337427e-23
1.9141781e-22
6.593981e-22
1.0004177e-21
1.414437e-42
5.9844985e-43
4.8558483e-44
9.4816911e-46
3.1312896e-46
2.3114986e-46
1.2528493e-46
5.0276105e-47
4.9137892e-47
1.7740763e-44
5.7902041e-42
1.1390716e-39
1.771995e-37
2.3100434e-35
2.5786897e-33
2.4982194e-31
2.136062e-29
1.6310985e-27
1.1220176e-25
6.9925606e-24
3.9375332e-22
1.9848492e-20
9.2969366e-19
5.1599486e-17
4.5381968e-15
2.4729451e-13
3.7510952e-12
1.8077619e-11
3.7043631e-11
4.1620856e-11
3.3247733e-11
2.0284936e-11
1.5876581e-11
9.3304389e-12
8.6806709e-12
1.0969461e-07
7.1253821e-07
7.4068607e-08
6.5878011e-08
5.7327301e-08
2.2577758e-06
3.9355143e-06
2.5002914e-06
7.2065026e-07
4.3339856e-08
4.0673471e-08
5.9307134e-08
1.5651914e-07
2.6214951e-05
2.6723213e-05
4.5891258e-06
2.7001321e-08
1.4082964e-08
3.2862514e-07
1.9015197e-05
2.6503118e-05
2.6505955e-05
2.6491818e-05
2.647768e-05
2.6370205e-05
1.9831461e-05
9.2243388e-06
3.6507039e-06
1.5480062e-08
6.974506e-11
4.2092553e-13
-3.6909852e-14
7.1678391e-14
1.7226871e-14
4.026572e-16
2.1248374e-17
7.166418e-19
1.3638366e-20
2.2230486e-22
3.6433331e-24
4.8486525e-26
5.1500762e-28
4.266771e-30
2.6652482e-32
1.2099685e-34
3.7052686e-37
7.5766501e-40
5.5384729e-41
1.5328941e-39
6.4709015e-38
2.6145017e-36
1.0705825e-34
4.459212e-33
1.6840649e-31
5.3910437e-30
1.4551474e-28
3.3331427e-27
6.508811e-26
1.0826014e-24
1.5180544e-23
1.7587767e-22
1.6084874e-21
1.0078668e-20
3.3489433e-20
4.9831295e-20
4.5148281e-40
1.9353237e-40
1.6489048e-41
2.6924927e-43
2.7958801e-44
2.0371567e-44
1.1071194e-44
4.2735569e-45
3.522037e-45
8.8996213e-44
2.181646e-41
3.9415294e-39
5.7259966e-37
6.6125603e-35
6.6791206e-33
6.105692e-31
5.0054242e-29
3.6916577e-27
2.4609605e-25
1.4881534e-23
8.1126407e-22
3.938481e-20
1.7976729e-18
1.0130201e-16
8.13447e-15
3.4805224e-13
4.3116151e-12
1.7184299e-11
3.3356255e-11
4.1181167e-11
4.2638333e-11
3.1264361e-11
1.4702634e-11
8.9862765e-12
8.6785823e-12
8.5170757e-07
1.1008659e-06
2.6659754e-07
5.1067949e-07
3.9162863e-06
5.2880138e-06
5.2911233e-06
5.2962042e-06
2.0442562e-06
9.7842084e-08
6.8939267e-08
1.1676849e-07
1.2943825e-06
4.0499701e-05
2.1639847e-05
1.091133e-06
1.4090648e-08
1.1721749e-08
9.6363561e-09
1.3228657e-08
2.9019034e-06
6.0556826e-06
1.0150933e-05
1.304413e-05
6.7164647e-06
8.7534226e-07
4.5198315e-08
2.4090032e-08
1.9558565e-09
4.6819587e-12
6.7660521e-14
4.5197074e-14
4.259905e-14
1.3899377e-15
8.605211e-17
8.1037891e-18
2.3917665e-19
3.5435253e-21
5.8026042e-23
1.0871587e-24
1.2133049e-26
9.7454796e-29
5.5104082e-31
2.2324481e-33
7.4894055e-36
2.9557901e-38
9.262481e-40
4.8053332e-39
2.1160774e-37
7.8579061e-36
2.9227778e-34
1.0988428e-32
4.1559497e-31
1.4069888e-29
4.0555321e-28
9.950441e-27
2.0908375e-25
3.7867614e-24
5.9130201e-23
7.8723155e-22
8.7436253e-21
7.7144245e-20
4.6621203e-19
1.5046235e-18
2.200831e-18
1.2649518e-37
5.5212352e-38
4.9585597e-39
8.3561714e-41
1.1017411e-42
1.6488291e-42
9.6820565e-43
3.5170338e-43
7.7603201e-44
1.0702786e-43
9.4783546e-42
2.3013068e-39
4.8065746e-37
9.9567405e-35
1.6805892e-32
2.1324029e-30
2.2163139e-28
1.9732689e-26
1.5444936e-24
1.0745226e-22
6.6115979e-21
3.6916165e-19
2.2952439e-17
1.9340324e-15
9.264128e-14
1.4709442e-12
9.0152165e-12
9.180492e-12
3.2595984e-11
1.1490298e-10
4.2772755e-11
1.7568416e-10
9.3240501e-12
8.8076623e-12
8.6806709e-12
4.5500771e-07
9.762122e-07
1.4395743e-06
5.0314169e-06
5.2543208e-06
5.2734316e-06
5.2882376e-06
5.2846273e-06
1.9915162e-06
2.0528381e-07
1.468979e-07
2.0197551e-05
6.3497895e-05
5.3302577e-05
1.2998098e-05
8.2850009e-08
1.1554547e-08
9.6363561e-09
9.6363561e-09
2.5327626e-08
8.7482839e-08
1.020743e-07
1.2567704e-07
4.2939429e-08
2.4713565e-08
8.7571605e-09
4.0866512e-09
1.559355e-09
1.0527618e-10
3.82442e-13
1.0965237e-13
9.7007039e-14
8.6363565e-15
1.0243365e-15
1.1225938e-16
4.3820677e-18
1.0634156e-19
-1.6593044e-20
1.2580234e-22
1.4624864e-25
1.2332085e-27
9.6340007e-30
7.7846953e-32
8.4009385e-34
7.3377709e-36
6.7852279e-38
1.2892959e-38
6.7526877e-37
2.3302765e-35
8.0234143e-34
2.7631201e-32
9.5655087e-31
3.2840462e-29
1.0052975e-27
2.6309617e-26
5.8867698e-25
1.1347649e-23
1.9060428e-22
2.7990274e-21
3.5459841e-20
3.7831256e-19
3.2321008e-18
1.9001059e-17
6.0941612e-17
9.112748e-17
3.12743e-35
1.3973523e-35
1.3276939e-36
2.3649211e-38
8.4670963e-41
2.0549172e-40
7.9127553e-41
2.8348317e-41
6.9391217e-42
4.6764565e-42
1.3466726e-40
4.0049823e-38
7.0799242e-36
9.7679522e-34
1.1531581e-31
1.1641979e-29
1.026213e-27
7.9956361e-26
5.5659257e-24
3.4287569e-22
1.853388e-20
8.8706934e-19
4.133738e-17
2.1213307e-15
8.326458e-14
1.2938126e-12
1.3362331e-12
1.6730134e-11
2.7330959e-09
2.5090264e-08
3.848077e-09
1.9461592e-10
3.2827856e-09
1.5329612e-09
8.8076623e-12
4.5617771e-09
8.1334679e-08
3.4418923e-07
1.5116335e-06
5.0381665e-06
5.2543208e-06
5.2814715e-06
3.4209227e-06
4.4209699e-07
3.7706338e-07
3.2523919e-07
0.00015783743
0.00022803944
6.9435438e-05
2.5436271e-06
8.7816226e-08
6.244692e-08
6.5251954e-08
2.2094661e-08
2.2980938e-09
1.5071405e-09
5.5584247e-09
7.1049205e-09
2.5772733e-09
1.763938e-09
6.5522378e-10
3.0566199e-10
1.1255622e-10
7.481133e-12
1.3811419e-12
1.2053773e-12
6.0587854e-13
2.3772806e-13
6.0396331e-14
6.2331474e-15
1.3110299e-18
4.82365e-19
-1.2535006e-19
3.9292362e-22
1.5325083e-25
4.3087315e-27
7.6574882e-29
1.2405629e-30
1.5534595e-32
1.3973655e-34
1.574866e-36
1.7375544e-36
6.7038469e-35
2.1577735e-33
6.9333376e-32
2.2224888e-30
7.1141533e-29
2.2353405e-27
6.2504997e-26
1.4947906e-24
3.0493871e-23
5.361261e-22
8.304218e-21
1.1464367e-19
1.3839014e-18
1.4203668e-17
1.1890346e-16
6.9511934e-16
2.2964776e-15
3.7014419e-15
6.8566745e-33
3.154211e-33
3.182322e-34
5.9684818e-36
2.5808299e-38
8.3728505e-39
5.795376e-39
2.2967978e-39
5.3033454e-40
1.7142477e-40
4.0991496e-39
1.3976787e-37
1.3787573e-35
1.9261508e-33
2.3044215e-31
2.3630668e-29
2.0974737e-27
1.629285e-25
1.0355389e-23
6.3365038e-22
3.5185988e-20
1.6587225e-18
7.7838903e-17
2.6590368e-15
1.1085923e-14
-9.4311332e-14
1.0501009e-12
6.1340724e-06
2.1524164e-05
7.2717391e-06
6.0352607e-07
4.6312599e-10
2.9390499e-09
1.335322e-08
1.288e-08
6.9071768e-09
7.9143853e-09
9.00185e-09
2.058926e-08
8.3441578e-08
1.2095423e-06
2.2480228e-06
8.4457078e-07
4.4446551e-07
4.4157791e-07
4.4127668e-07
0.00023364235
0.00023012042
5.7483887e-05
2.2233929e-06
1.7418014e-07
1.5539635e-07
7.5817689e-07
1.9484434e-07
9.3924338e-11
1.0954326e-10
2.5607785e-10
3.3523879e-10
2.6100017e-10
2.0791339e-10
1.0992196e-10
5.9628264e-11
3.1870188e-11
2.7390063e-11
2.7124413e-11
2.7978242e-11
1.3453212e-11
3.015678e-12
5.5632988e-13
5.282733e-14
0
1.843975e-19
-3.4211938e-19
2.1513354e-21
1.7971912e-24
9.2640142e-26
1.4367904e-27
2.2963052e-29
2.764139e-31
2.414958e-33
4.3458625e-35
1.7239877e-34
5.645117e-33
1.7081084e-31
5.1577523e-30
1.5466748e-28
4.5989702e-27
1.3349689e-25
3.4496488e-24
7.5975862e-23
1.4108664e-21
2.229878e-20
3.1238012e-19
4.0321189e-18
4.6857803e-17
4.6700711e-16
3.9011635e-15
2.1868087e-14
5.8524888e-14
7.0021095e-14
1.3394334e-30
6.3800909e-31
6.8528816e-32
1.350008e-33
6.6784773e-36
9.7282674e-39
3.7783685e-37
1.81927e-37
4.0181725e-38
1.495637e-38
1.5899989e-37
2.7184755e-37