/*--------------------------------*- C++ -*----------------------------------*\
  =========                 |
  \\      /  F ield         | OpenFOAM: The Open Source CFD Toolbox
   \\    /   O peration     | Website:  https://openfoam.org
    \\  /    A nd           | Version:  9
     \\/     M anipulation  |
\*---------------------------------------------------------------------------*/
FoamFile
{
    format      ascii;
    class       volVectorField;
    location    "0.88";
    object      U;
}
// * * * * * * * * * * * * * * * * * * * * * * * * * * * * * * * * * * * * * //

dimensions      [0 1 -1 0 0 0 0];

internalField   nonuniform List<vector> 
10000
(
(0.0017917588 0.0048465934 0)
(0.0019565784 0.0049343922 0)
(0.0021183719 0.0050761166 0)
(0.0014983679 0.0052344682 0)
(0.0016095811 0.0054221149 0)
(0.0013106971 0.0056323654 0)
(0.0010403385 0.0058589426 0)
(0.00072167979 0.006101392 0)
(0.00033831594 0.006353814 0)
(-0.00011495478 0.006610225 0)
(-0.00065494427 0.0068658979 0)
(-0.0012941365 0.0071224557 0)
(-0.0020363825 0.0073704329 0)
(-0.0029068464 0.0076020185 0)
(-0.0039259759 0.0078193321 0)
(-0.0051152721 0.008020996 0)
(-0.0064784199 0.0081982243 0)
(-0.0081000294 0.0083464296 0)
(-0.010021566 0.0084967807 0)
(-0.01220479 0.008641331 0)
(-0.014759531 0.0087696146 0)
(-0.017741684 0.0089377131 0)
(-0.021148723 0.0091325615 0)
(-0.025057466 0.0093786583 0)
(-0.029446757 0.0096669214 0)
(-0.034319518 0.0099956589 0)
(-0.039752202 0.010358338 0)
(-0.045771333 0.010741877 0)
(-0.052405125 0.011131083 0)
(-0.059668065 0.011512409 0)
(-0.067552351 0.011878486 0)
(-0.076029418 0.012225239 0)
(-0.085055197 0.012552728 0)
(-0.094548544 0.012864254 0)
(-0.10438743 0.013150003 0)
(-0.11444997 0.013387796 0)
(-0.12463692 0.013562513 0)
(-0.13488102 0.013666547 0)
(-0.14516812 0.013697305 0)
(-0.15556704 0.013651824 0)
(-0.166282 0.013506247 0)
(-0.17764037 0.013170229 0)
(-0.18995017 0.012414422 0)
(-0.20365573 0.010887707 0)
(-0.21981599 0.0078821257 0)
(-0.2379427 0.0007382332 0)
(-0.25103849 -0.015917612 0)
(-0.24440383 -0.044070955 0)
(-0.19665996 -0.079351049 0)
(-0.10448966 -0.10792867 0)
(-0.018280455 -0.11212225 0)
(0.071336809 -0.12983344 0)
(0.14955619 -0.1102038 0)
(0.21044332 -0.13073076 0)
(0.26635155 -0.13112482 0)
(0.32949723 -0.15409915 0)
(0.41903302 -0.18270267 0)
(0.52903347 -0.15704097 0)
(0.62877361 -0.10889231 0)
(0.67893003 -0.074081297 0)
(0.66011337 -0.035615509 0)
(0.5961743 0.0055944488 0)
(0.53523461 0.044105947 0)
(0.49021509 0.069423505 0)
(0.44760057 0.085421407 0)
(0.40250088 0.098563709 0)
(0.3581265 0.10859748 0)
(0.31639061 0.1138451 0)
(0.27759405 0.11520438 0)
(0.24217682 0.11410442 0)
(0.21023821 0.1109609 0)
(0.18150833 0.10591608 0)
(0.15566168 0.099289633 0)
(0.13236342 0.091493543 0)
(0.11129536 0.083003456 0)
(0.092181096 0.074330902 0)
(0.074798297 0.065920898 0)
(0.058985832 0.058063933 0)
(0.044625739 0.050888121 0)
(0.031657451 0.044428159 0)
(0.020007122 0.038633066 0)
(0.0096311318 0.033478514 0)
(0.00053308532 0.028883501 0)
(-0.0073332878 0.024779003 0)
(-0.014016773 0.021095139 0)
(-0.019576981 0.017777993 0)
(-0.024070398 0.014782154 0)
(-0.027537532 0.012070318 0)
(-0.030005535 0.0095851934 0)
(-0.031588428 0.0072339865 0)
(-0.032450648 0.0050139376 0)
(-0.032736173 0.002955592 0)
(-0.032488475 0.0011976277 0)
(-0.031563461 -0.00019495526 0)
(-0.029860882 -0.0013088639 0)
(-0.027399162 -0.0022359718 0)
(-0.02411847 -0.0030053895 0)
(-0.020851651 -0.003632027 0)
(-0.017387024 -0.0041166653 0)
(-0.010063455 -0.0045770193 0)
(0.00187732 0.0050846198 0)
(0.0021360204 0.0052244477 0)
(0.0023557112 0.0054416878 0)
(0.0017779408 0.0056641383 0)
(0.0019344631 0.0059525006 0)
(0.001671516 0.0062648851 0)
(0.0014306989 0.0066089209 0)
(0.0011365681 0.0069819524 0)
(0.00076811503 0.0073774826 0)
(0.00032133712 0.0077939575 0)
(-0.00021286661 0.0082229011 0)
(-0.00085059626 0.0086687815 0)
(-0.0016038889 0.0091257986 0)
(-0.002487658 0.0095833135 0)
(-0.0035165414 0.010064293 0)
(-0.0047229278 0.010538407 0)
(-0.0061154568 0.011023427 0)
(-0.0077390613 0.011515373 0)
(-0.0096385659 0.012042665 0)
(-0.011819764 0.012610188 0)
(-0.01433212 0.013214569 0)
(-0.017236437 0.013902588 0)
(-0.020561247 0.014678596 0)
(-0.024380215 0.015576184 0)
(-0.028697996 0.016578607 0)
(-0.033511751 0.017672744 0)
(-0.03890284 0.018847151 0)
(-0.044899846 0.020080771 0)
(-0.051531708 0.021346731 0)
(-0.058813627 0.022611734 0)
(-0.06674096 0.023836337 0)
(-0.075286088 0.024972793 0)
(-0.08439354 0.025972142 0)
(-0.09397493 0.026797796 0)
(-0.10391365 0.027423591 0)
(-0.11407884 0.027839839 0)
(-0.12434565 0.028073836 0)
(-0.13462292 0.02819494 0)
(-0.14488156 0.028320191 0)
(-0.15520399 0.028611135 0)
(-0.16588628 0.02926075 0)
(-0.17749664 0.03039925 0)
(-0.19063515 0.031863849 0)
(-0.20612406 0.033344037 0)
(-0.2276803 0.034620305 0)
(-0.26205007 0.030798177 0)
(-0.30107928 0.004012114 0)
(-0.29942933 -0.064152332 0)
(-0.20386758 -0.16703073 0)
(-0.045698413 -0.23642459 0)
(0.082049574 -0.22350428 0)
(0.21018978 -0.2432562 0)
(0.27669059 -0.16786896 0)
(0.31770687 -0.18024143 0)
(0.35905978 -0.18581358 0)
(0.4457612 -0.25831549 0)
(0.55617866 -0.31884081 0)
(0.67173952 -0.31141801 0)
(0.78668489 -0.21234684 0)
(0.84614063 -0.055555928 0)
(0.79428015 0.081033362 0)
(0.6815669 0.1159424 0)
(0.5788862 0.12393464 0)
(0.50297216 0.13033384 0)
(0.4485432 0.14468968 0)
(0.40160694 0.15855788 0)
(0.35500689 0.165531 0)
(0.30988459 0.16582147 0)
(0.26881045 0.16188451 0)
(0.23254766 0.15556767 0)
(0.20058695 0.14765477 0)
(0.17227351 0.13853498 0)
(0.14703336 0.12852219 0)
(0.12436038 0.1179317 0)
(0.10384413 0.10713226 0)
(0.08517031 0.096514504 0)
(0.068123418 0.086401481 0)
(0.052577893 0.076982371 0)
(0.038463649 0.068316766 0)
(0.02573471 0.060390502 0)
(0.014340183 0.053122937 0)
(0.0042391739 0.046499189 0)
(-0.0045961673 0.040441939 0)
(-0.012213402 0.034888877 0)
(-0.018663603 0.029774441 0)
(-0.023998154 0.025047944 0)
(-0.028270003 0.020660415 0)
(-0.031544616 0.01657113 0)
(-0.033916902 0.012727859 0)
(-0.035455611 0.0090645996 0)
(-0.036203215 0.0056031741 0)
(-0.036161396 0.0024198147 0)
(-0.035329956 -0.00040730725 0)
(-0.033813933 -0.0028023453 0)
(-0.031695267 -0.0048205451 0)
(-0.028924424 -0.0065472149 0)
(-0.025391068 -0.0080054549 0)
(-0.021871907 -0.009233456 0)
(-0.018204893 -0.010211357 0)
(-0.010560954 -0.011166981 0)
(0.001988193 0.0045312191 0)
(0.0023314306 0.0046907072 0)
(0.0025734151 0.0049121519 0)
(0.002035092 0.0051465607 0)
(0.002242441 0.0054504342 0)
(0.0020108912 0.0057759085 0)
(0.0018064477 0.006142128 0)
(0.0015430624 0.0065444651 0)
(0.0012059682 0.0069774562 0)
(0.00078724901 0.007440451 0)
(0.00027656435 0.0079345818 0)
(-0.00033470884 0.008453188 0)
(-0.0010677922 0.0090105826 0)
(-0.0019175453 0.0095874108 0)
(-0.0029238588 0.010208229 0)
(-0.0041140976 0.010853352 0)
(-0.0054659906 0.011550404 0)
(-0.0070511935 0.012285508 0)
(-0.0089026765 0.01309398 0)
(-0.011015878 0.013981629 0)
(-0.013456451 0.014947653 0)
(-0.016272633 0.016020798 0)
(-0.019474494 0.01722591 0)
(-0.023161461 0.01857652 0)
(-0.027359015 0.020084894 0)
(-0.032062415 0.021720371 0)
(-0.037354813 0.023480274 0)
(-0.043276855 0.025337633 0)
(-0.049867456 0.027254151 0)
(-0.05714907 0.029178747 0)
(-0.065121202 0.031049901 0)
(-0.073759404 0.032799244 0)
(-0.083009311 0.034355183 0)
(-0.092780409 0.035647055 0)
(-0.10294524 0.036614478 0)
(-0.11334424 0.037226496 0)
(-0.12380751 0.037504539 0)
(-0.13418468 0.037548742 0)
(-0.14437808 0.037559682 0)
(-0.15439558 0.037853601 0)
(-0.16451218 0.038886851 0)
(-0.17545935 0.041146926 0)
(-0.18783939 0.044786845 0)
(-0.20235757 0.050727028 0)
(-0.22864013 0.063592741 0)
(-0.28629109 0.076971078 0)
(-0.34484239 0.033696216 0)
(-0.29421939 -0.1341515 0)
(-0.0976527 -0.34857305 0)
(0.10064305 -0.40540206 0)
(0.25140083 -0.34662947 0)
(0.38147252 -0.31780458 0)
(0.46170046 -0.23616785 0)
(0.55811257 -0.23959377 0)
(0.65013888 -0.25412905 0)
(0.7359973 -0.34401422 0)
(0.80143 -0.39723987 0)
(0.85493357 -0.39560818 0)
(0.89654214 -0.29289311 0)
(0.93038701 -0.09021103 0)
(0.94259245 0.11889115 0)
(0.88633496 0.22988771 0)
(0.75247276 0.25487712 0)
(0.60659734 0.2275952 0)
(0.49420852 0.20854965 0)
(0.41686225 0.21125252 0)
(0.35811322 0.21770572 0)
(0.30582178 0.21542363 0)
(0.25943902 0.20602071 0)
(0.22024326 0.19413196 0)
(0.18702821 0.18155162 0)
(0.15834836 0.16856433 0)
(0.13324126 0.15530597 0)
(0.11098197 0.14198268 0)
(0.091012924 0.12885242 0)
(0.072938954 0.11618286 0)
(0.05652044 0.10418506 0)
(0.041633722 0.092972865 0)
(0.028210435 0.082565007 0)
(0.016189202 0.072922126 0)
(0.0055190299 0.064003787 0)
(-0.003852753 0.055786261 0)
(-0.011988604 0.048216681 0)
(-0.018952417 0.04124603 0)
(-0.024799982 0.034820069 0)
(-0.029585112 0.028892513 0)
(-0.033364799 0.023414076 0)
(-0.036191646 0.018341623 0)
(-0.038128106 0.013647908 0)
(-0.039219554 0.0093395234 0)
(-0.039497512 0.0054115286 0)
(-0.039066294 0.001851798 0)
(-0.037974976 -0.0013836923 0)
(-0.036195259 -0.004322192 0)
(-0.033781049 -0.0069300387 0)
(-0.030714175 -0.0092176106 0)
(-0.026925614 -0.011183776 0)
(-0.023144968 -0.012841954 0)
(-0.019255802 -0.014184231 0)
(-0.011216648 -0.015497789 0)
(0.0021007139 0.0047664677 0)
(0.0025199842 0.0049752725 0)
(0.0028074908 0.0052304042 0)
(0.0023128392 0.005512488 0)
(0.0025589783 0.0058545866 0)
(0.0023662778 0.0062372941 0)
(0.0022053385 0.0066605939 0)
(0.0019817161 0.0071319969 0)
(0.001679206 0.0076389321 0)
(0.0012988516 0.0081822499 0)
(0.00082491951 0.0087647904 0)
(0.00025650396 0.0093940115 0)
(-0.00043219817 0.010057577 0)
(-0.0012462686 0.010776175 0)
(-0.0022010966 0.011527941 0)
(-0.0033258402 0.012354152 0)
(-0.004622596 0.013248612 0)
(-0.0061291307 0.014203975 0)
(-0.0078708076 0.015268217 0)
(-0.0098887407 0.016450943 0)
(-0.01221002 0.01774624 0)
(-0.014870943 0.019194561 0)
(-0.01791404 0.020826067 0)
(-0.021425966 0.022632695 0)
(-0.025458487 0.024666903 0)
(-0.030019963 0.026870213 0)
(-0.035186988 0.029248831 0)
(-0.041022116 0.03176696 0)
(-0.047578166 0.034376064 0)
(-0.054894833 0.03700846 0)
(-0.06298761 0.039576922 0)
(-0.071841707 0.041977904 0)
(-0.081402337 0.044098811 0)
(-0.091563383 0.045828036 0)
(-0.10216422 0.047068846 0)
(-0.11299579 0.0477632 0)
(-0.12380952 0.047923965 0)
(-0.1343435 0.047677288 0)
(-0.14436582 0.047304707 0)
(-0.1537266 0.047295572 0)
(-0.16254759 0.048377093 0)
(-0.17149349 0.051375845 0)
(-0.18090829 0.057516789 0)
(-0.19155372 0.072215282 0)
(-0.21989165 0.10661985 0)
(-0.29143539 0.13493257 0)
(-0.32528488 0.026279857 0)
(-0.16641651 -0.31528198 0)
(0.049738026 -0.57909577 0)
(0.22178438 -0.61945735 0)
(0.4011144 -0.52917632 0)
(0.58084275 -0.44223664 0)
(0.73652115 -0.36250243 0)
(0.88699667 -0.33948141 0)
(1.0107781 -0.33242542 0)
(1.0869955 -0.38795561 0)
(1.1121093 -0.42467484 0)
(1.1101759 -0.39955577 0)
(1.0790163 -0.27835128 0)
(1.0301642 -0.087086662 0)
(1.0018464 0.11084247 0)
(0.97521416 0.28563663 0)
(0.89359503 0.37319579 0)
(0.7396658 0.37965084 0)
(0.55996382 0.33827266 0)
(0.42929234 0.29746205 0)
(0.35271239 0.27791507 0)
(0.29668884 0.26514868 0)
(0.24777382 0.24846004 0)
(0.20624687 0.22959225 0)
(0.1718172 0.21143076 0)
(0.14275638 0.1942664 0)
(0.117667 0.17773146 0)
(0.09570973 0.16177151 0)
(0.076274956 0.1464867 0)
(0.058909807 0.13198153 0)
(0.04333147 0.11834383 0)
(0.029373486 0.10561855 0)
(0.01690947 0.093785362 0)
(0.0058427478 0.082822627 0)
(-0.0039074538 0.072701778 0)
(-0.01242963 0.06337007 0)
(-0.019795867 0.05477192 0)
(-0.026071127 0.046843878 0)
(-0.0313099 0.039515518 0)
(-0.035560465 0.032740484 0)
(-0.03887338 0.026455753 0)
(-0.04128835 0.020618366 0)
(-0.042849871 0.015189153 0)
(-0.043603812 0.010140763 0)
(-0.043606208 0.0054400021 0)
(-0.042878713 0.0010661762 0)
(-0.041430769 -0.0029331499 0)
(-0.039297567 -0.0065525346 0)
(-0.036533847 -0.0097962838 0)
(-0.033118182 -0.012671148 0)
(-0.028992996 -0.015178946 0)
(-0.024850224 -0.017305087 0)
(-0.020664642 -0.019032673 0)
(-0.012101039 -0.020737187 0)
(0.0022608065 0.0045830706 0)
(0.0027855223 0.0048364707 0)
(0.0031103194 0.0051409298 0)
(0.0026545535 0.0054753096 0)
(0.0029577147 0.005874658 0)
(0.0028122993 0.0063273482 0)
(0.0026969348 0.0068254696 0)
(0.0025198637 0.0073731551 0)
(0.0022583 0.0079675457 0)
(0.0019188113 0.0086098153 0)
(0.0014987647 0.009296083 0)
(0.00097402661 0.01003725 0)
(0.00033738797 0.010823944 0)
(-0.00041690059 0.011676867 0)
(-0.0013073871 0.012589017 0)
(-0.0023462842 0.013581165 0)
(-0.0035600609 0.014669542 0)
(-0.0049660321 0.015855956 0)
(-0.0065806171 0.017154883 0)
(-0.0084539516 0.018613112 0)
(-0.010621769 0.02023567 0)
(-0.013095932 0.022041864 0)
(-0.015936108 0.024070741 0)
(-0.019217722 0.026330087 0)
(-0.023022993 0.028888814 0)
(-0.02738771 0.031679471 0)
(-0.032369749 0.034712131 0)
(-0.038062383 0.037951264 0)
(-0.044536168 0.0413401 0)
(-0.051853756 0.044795251 0)
(-0.060052827 0.048204038 0)
(-0.069136735 0.051426044 0)
(-0.079060594 0.054299382 0)
(-0.089717566 0.056653306 0)
(-0.1009247 0.058323376 0)
(-0.11241071 0.059182425 0)
(-0.12381789 0.059190422 0)
(-0.13472623 0.058450927 0)
(-0.14469088 0.057289926 0)
(-0.15328413 0.056335925 0)
(-0.16023887 0.056464847 0)
(-0.16566674 0.05879586 0)
(-0.16958045 0.066960033 0)
(-0.17237397 0.092426016 0)
(-0.1857797 0.14296089 0)
(-0.22547935 0.15504145 0)
(-0.19706098 -0.050191587 0)
(0.013735407 -0.50690639 0)
(0.13997837 -0.73700517 0)
(0.28202067 -0.7838052 0)
(0.44306714 -0.71562903 0)
(0.63238225 -0.62459307 0)
(0.84460814 -0.56622679 0)
(1.0563707 -0.51860253 0)
(1.2201963 -0.44639319 0)
(1.3068198 -0.42943149 0)
(1.3410689 -0.43519153 0)
(1.344212 -0.37662608 0)
(1.2985057 -0.20233721 0)
(1.1896827 0.01432805 0)
(1.0684909 0.1912798 0)
(0.97961304 0.36214386 0)
(0.87518053 0.49467778 0)
(0.71458434 0.54132146 0)
(0.53695828 0.49679819 0)
(0.40041514 0.40889716 0)
(0.32075432 0.34726721 0)
(0.27040063 0.3162546 0)
(0.22686193 0.29211005 0)
(0.18676508 0.26665709 0)
(0.15274981 0.24233737 0)
(0.1243707 0.22042668 0)
(0.099993785 0.20029277 0)
(0.078778016 0.18148435 0)
(0.060187258 0.16389896 0)
(0.043772997 0.14748519 0)
(0.0292332 0.13219513 0)
(0.016338818 0.11799614 0)
(0.0049085845 0.10482718 0)
(-0.0051820632 0.092663282 0)
(-0.014049372 0.081427499 0)
(-0.021779038 0.071042334 0)
(-0.028438651 0.061436465 0)
(-0.034096687 0.052533356 0)
(-0.038782906 0.044250489 0)
(-0.042536047 0.036537642 0)
(-0.045401175 0.029324898 0)
(-0.047400321 0.022578001 0)
(-0.048574561 0.016260283 0)
(-0.048954436 0.010343474 0)
(-0.048559636 0.0048250493 0)
(-0.047421592 -0.00027724197 0)
(-0.045576132 -0.0049746545 0)
(-0.043046127 -0.0092621455 0)
(-0.039887248 -0.013139986 0)
(-0.03607531 -0.016596087 0)
(-0.031571912 -0.019629143 0)
(-0.027000213 -0.022245352 0)
(-0.022443672 -0.02437293 0)
(-0.013244958 -0.026487163 0)
(0.0024282096 0.004415593 0)
(0.0030611404 0.0047000406 0)
(0.0034532546 0.0050417632 0)
(0.0030509046 0.005410485 0)
(0.0034085704 0.0058704965 0)
(0.0033207325 0.0063716876 0)
(0.0032543261 0.0069312246 0)
(0.0031284761 0.0075433011 0)
(0.0029240591 0.0082146474 0)
(0.0026387739 0.0089396724 0)
(0.0022668665 0.0097217686 0)
(0.0018032608 0.010554864 0)
(0.0012318153 0.011458281 0)
(0.00054908957 0.012427621 0)
(-0.00026039841 0.013479405 0)
(-0.0012018152 0.014624169 0)
(-0.0022962628 0.015875924 0)
(-0.0035843886 0.01725919 0)
(-0.0050467664 0.018784727 0)
(-0.0067334112 0.020487467 0)
(-0.0087011622 0.022396484 0)
(-0.010952262 0.024545787 0)
(-0.013539973 0.026959983 0)
(-0.016518692 0.029666372 0)
(-0.020019934 0.032725176 0)
(-0.024108653 0.036129927 0)
(-0.028825358 0.039857357 0)
(-0.034297567 0.043879299 0)
(-0.040625773 0.048134499 0)
(-0.047906235 0.052522241 0)
(-0.056211399 0.056900152 0)
(-0.065576203 0.061083567 0)
(-0.07597799 0.064849819 0)
(-0.087315493 0.067950393 0)
(-0.099386264 0.070127639 0)
(-0.11185775 0.071145486 0)
(-0.12425163 0.070853502 0)
(-0.13595017 0.069270104 0)
(-0.14622509 0.066695263 0)
(-0.15427359 0.063781661 0)
(-0.15924669 0.061361812 0)
(-0.16035965 0.060852212 0)
(-0.15747577 0.068202611 0)
(-0.15052337 0.096955644 0)
(-0.13917504 0.14537349 0)
(-0.12966823 0.13105673 0)
(-0.071444464 -0.13915696 0)
(0.074457514 -0.62481985 0)
(0.17768661 -0.87079547 0)
(0.33740184 -0.92245601 0)
(0.5120472 -0.88787088 0)
(0.71440133 -0.84259384 0)
(0.93357515 -0.79443806 0)
(1.1275644 -0.71945318 0)
(1.2567202 -0.5555929 0)
(1.331102 -0.48887706 0)
(1.3896628 -0.46817018 0)
(1.4128295 -0.36754198 0)
(1.4087394 -0.17018906 0)
(1.3822033 0.10033953 0)
(1.2505666 0.33133622 0)
(1.0447877 0.50689922 0)
(0.85161759 0.65856959 0)
(0.65493819 0.71578474 0)
(0.47298011 0.64749978 0)
(0.34494473 0.51493295 0)
(0.26823935 0.41093471 0)
(0.2273986 0.35991516 0)
(0.19465714 0.33089607 0)
(0.15991111 0.30215879 0)
(0.12837905 0.2729067 0)
(0.10196879 0.24645546 0)
(0.079224839 0.22277445 0)
(0.059414554 0.20109168 0)
(0.042148148 0.18114483 0)
(0.027014124 0.16270531 0)
(0.013714893 0.14566554 0)
(0.0019923922 0.12991196 0)
(-0.0083471933 0.11537297 0)
(-0.017436018 0.10195431 0)
(-0.025401124 0.08955166 0)
(-0.032312197 0.078069529 0)
(-0.038229595 0.067414648 0)
(-0.043215751 0.057506028 0)
(-0.047290334 0.048268443 0)
(-0.050492211 0.039629492 0)
(-0.052849429 0.031534843 0)
(-0.054370711 0.023940647 0)
(-0.055096407 0.016812858 0)
(-0.055042422 0.010129046 0)
(-0.054224616 0.0038768505 0)
(-0.052672642 -0.0019534403 0)
(-0.050407565 -0.0073599097 0)
(-0.047453715 -0.012332617 0)
(-0.043852878 -0.016856937 0)
(-0.039586095 -0.020915205 0)
(-0.034653503 -0.024495943 0)
(-0.029591069 -0.027595069 0)
(-0.024587994 -0.030153634 0)
(-0.014650906 -0.032675181 0)
(0.0026286874 0.0041521089 0)
(0.0033853126 0.0044885851 0)
(0.0038315645 0.0048768599 0)
(0.0034921655 0.0052887051 0)
(0.0039193797 0.0058034001 0)
(0.00388118 0.0063656011 0)
(0.0038758112 0.0069895924 0)
(0.0038133471 0.0076702054 0)
(0.0036690452 0.0084134362 0)
(0.0034445239 0.0092195595 0)
(0.0031367823 0.010088082 0)
(0.0027388465 0.011021288 0)
(0.0022446088 0.012027234 0)
(0.0016450279 0.013114539 0)
(0.00093663199 0.014289391 0)
(0.00010456044 0.015573363 0)
(-0.00086221017 0.016978783 0)
(-0.0019851708 0.018529338 0)
(-0.0032718797 0.020262866 0)
(-0.0047529066 0.022182575 0)
(-0.0064669515 0.024353587 0)
(-0.0084303766 0.026808484 0)
(-0.010709329 0.029592088 0)
(-0.01334176 0.032737713 0)
(-0.01644255 0.03627866 0)
(-0.020137139 0.040291653 0)
(-0.024498108 0.044755254 0)
(-0.029654084 0.049619561 0)
(-0.035747974 0.054837041 0)
(-0.04292422 0.060292414 0)
(-0.051304503 0.065817124 0)
(-0.060974161 0.071179477 0)
(-0.071956802 0.076087511 0)
(-0.084182665 0.08019472 0)
(-0.097452741 0.083108866 0)
(-0.11138538 0.084423989 0)
(-0.12537467 0.083801855 0)
(-0.1385806 0.0810815 0)
(-0.1499422 0.076426859 0)
(-0.1581882 0.070355069 0)
(-0.16179153 0.063517222 0)
(-0.15922323 0.057739257 0)
(-0.15082535 0.060620361 0)
(-0.13702345 0.084332528 0)
(-0.11149012 0.1175576 0)
(-0.085672212 0.077019488 0)
(0.025526648 -0.25462325 0)
(0.11576649 -0.71875705 0)
(0.24481353 -1.0273338 0)
(0.42568135 -1.1159148 0)
(0.59888392 -1.0731314 0)
(0.77136753 -1.0597741 0)
(0.97639235 -0.99638598 0)
(1.1493821 -0.85813792 0)
(1.2853813 -0.66107558 0)
(1.4023732 -0.56392394 0)
(1.4933599 -0.53433312 0)
(1.5353685 -0.3868126 0)
(1.4965668 -0.16681076 0)
(1.3985406 0.17651237 0)
(1.2445373 0.50518457 0)
(1.0299864 0.72377927 0)
(0.81422259 0.86301459 0)
(0.61896152 0.90845782 0)
(0.44134594 0.796997 0)
(0.30350537 0.61808109 0)
(0.21699335 0.47077172 0)
(0.17910959 0.39458874 0)
(0.15552672 0.36117178 0)
(0.12704555 0.33254191 0)
(0.099188423 0.30044883 0)
(0.075638145 0.27027045 0)
(0.055207786 0.24341703 0)
(0.037398803 0.21906353 0)
(0.021914462 0.19684905 0)
(0.0083680643 0.17641075 0)
(-0.0034543715 0.15766881 0)
(-0.013833853 0.14044015 0)
(-0.022945107 0.12460721 0)
(-0.030928867 0.11001289 0)
(-0.037888046 0.096538982 0)
(-0.043894309 0.084057001 0)
(-0.048998742 0.072464759 0)
(-0.053248279 0.061658225 0)
(-0.05666337 0.051563816 0)
(-0.059271216 0.042091235 0)
(-0.06108244 0.033193714 0)
(-0.062108684 0.024815224 0)
(-0.062369776 0.01691884 0)
(-0.061870725 0.0094792778 0)
(-0.060617963 0.0024822353 0)
(-0.05863312 -0.0040741151 0)
(-0.055928338 -0.010185821 0)
(-0.05251715 -0.015839354 0)
(-0.048438233 -0.021014311 0)
(-0.043681072 -0.025686998 0)
(-0.038252517 -0.029841183 0)
(-0.032639349 -0.033422709 0)
(-0.027117884 -0.036461038 0)
(-0.016337581 -0.039384742 0)
(0.00285872 0.0038340063 0)
(0.0037474768 0.0042190268 0)
(0.0042638713 0.0046542069 0)
(0.0039870823 0.0051219894 0)
(0.0044848212 0.005684193 0)
(0.0045153384 0.0063107783 0)
(0.0045672019 0.0070030935 0)
(0.0045634336 0.0077612337 0)
(0.0044887245 0.0085755475 0)
(0.0043341158 0.0094578553 0)
(0.0040957766 0.010407867 0)
(0.0037758444 0.011431476 0)
(0.0033657144 0.012532359 0)
(0.0028599539 0.013721943 0)
(0.0022561644 0.015009533 0)
(0.0015542188 0.016407659 0)
(0.00073563382 0.01794239 0)
(-0.00021350744 0.019647891 0)
(-0.001296312 0.021539164 0)
(-0.0025348413 0.023650711 0)
(-0.0039573041 0.026042341 0)
(-0.0055877724 0.028754546 0)
(-0.0074789769 0.031870147 0)
(-0.0096956626 0.035400669 0)
(-0.012322151 0.039436614 0)
(-0.015482638 0.04401918 0)
(-0.019344076 0.049234386 0)
(-0.024053495 0.055001335 0)
(-0.029776968 0.061291055 0)
(-0.036731781 0.067979172 0)
(-0.045106272 0.074877247 0)
(-0.055061157 0.081706501 0)
(-0.066695685 0.088097162 0)
(-0.080012439 0.093583641 0)
(-0.094862141 0.097602191 0)
(-0.11085132 0.099520566 0)
(-0.12727429 0.098732726 0)
(-0.14306674 0.094769491 0)
(-0.15676228 0.087474807 0)
(-0.16647541 0.077012515 0)
(-0.16987946 0.06383977 0)
(-0.16491905 0.05071934 0)
(-0.15368624 0.04722449 0)
(-0.13956447 0.064390589 0)
(-0.10854628 0.07921891 0)
(-0.077169137 0.002169078 0)
(0.063317909 -0.3546964 0)
(0.11853066 -0.81724544 0)
(0.25041062 -1.1911351 0)
(0.36466368 -1.2985171 0)
(0.49100558 -1.2373506 0)
(0.64987246 -1.2528333 0)
(0.85133748 -1.1944411 0)
(1.0585532 -1.009956 0)
(1.2372223 -0.82349867 0)
(1.3998294 -0.70110444 0)
(1.4959929 -0.60388921 0)
(1.4765336 -0.35856675 0)
(1.3291486 -0.02530283 0)
(1.1724282 0.32917478 0)
(1.0718268 0.67435931 0)
(0.93564798 0.91894488 0)
(0.76891813 1.0500708 0)
(0.60075199 1.0938614 0)
(0.43197491 0.95573746 0)
(0.28039852 0.73470769 0)
(0.17816788 0.53969332 0)
(0.13586694 0.42774013 0)
(0.11511697 0.38581164 0)
(0.090594978 0.35794058 0)
(0.066379558 0.32416293 0)
(0.046090938 0.29106355 0)
(0.028365713 0.26147264 0)
(0.012988545 0.23472564 0)
(-0.00036080087 0.2103732 0)
(-0.012013761 0.18818665 0)
(-0.022103187 0.16795372 0)
(-0.030950751 0.14945254 0)
(-0.038692684 0.1324907 0)
(-0.045448484 0.11688348 0)
(-0.051315987 0.10248258 0)
(-0.056352087 0.089140333 0)
(-0.060597101 0.076728259 0)
(-0.064084046 0.065130237 0)
(-0.066822986 0.054259948 0)
(-0.068825727 0.044026105 0)
(-0.070086294 0.034370108 0)
(-0.070610817 0.025238167 0)
(-0.070401908 0.01659128 0)
(-0.069450957 0.008401946 0)
(-0.06775118 0.00066336165 0)
(-0.065314841 -0.0066259831 0)
(-0.062147241 -0.013455359 0)
(-0.05825772 -0.019807124 0)
(-0.053672421 -0.025657459 0)
(-0.048385684 -0.030975905 0)
(-0.042391394 -0.035725014 0)
(-0.03618093 -0.039810762 0)
(-0.030060695 -0.043408373 0)
(-0.018334312 -0.046725397 0)
(0.0031217619 0.0034274238 0)
(0.0041561799 0.0038667062 0)
(0.0047455957 0.0043546365 0)
(0.0045335245 0.0048739979 0)
(0.0051075552 0.0054927962 0)
(0.0052096139 0.0061807302 0)
(0.0053358501 0.0069408463 0)
(0.005398266 0.0077702721 0)
(0.0053830502 0.0086642328 0)
(0.0053001202 0.0096226122 0)
(0.005141231 0.01065035 0)
(0.0049015552 0.01175556 0)
(0.0045813251 0.012940542 0)
(0.0041778237 0.014219526 0)
(0.0036880104 0.015600983 0)
(0.0031134813 0.017103051 0)
(0.0024646925 0.01873866 0)
(0.0017094709 0.020549205 0)
(0.00084090907 0.022577873 0)
(-0.00012813088 0.024837364 0)
(-0.0012301615 0.027396572 0)
(-0.0024603508 0.030314454 0)
(-0.0039133386 0.033695901 0)
(-0.005619941 0.037560326 0)
(-0.007662931 0.0420408 0)
(-0.010167738 0.04718333 0)
(-0.01333501 0.053130675 0)
(-0.017404092 0.059838347 0)
(-0.022562951 0.067335478 0)
(-0.029111704 0.07544684 0)
(-0.037325379 0.083995408 0)
(-0.047472601 0.092655571 0)
(-0.059774021 0.10098455 0)
(-0.074361713 0.1084111 0)
(-0.091196462 0.11418458 0)
(-0.10993036 0.11734782 0)
(-0.12982794 0.11690042 0)
(-0.14964527 0.11184954 0)
(-0.16742784 0.10140751 0)
(-0.18043452 0.085185676 0)
(-0.18531666 0.063710945 0)
(-0.17984226 0.041913699 0)
(-0.16809092 0.032705936 0)
(-0.15789453 0.046009893 0)
(-0.13191803 0.043221878 0)
(-0.079069636 -0.093458286 0)
(0.041961899 -0.43989036 0)
(0.095470268 -0.91010977 0)
(0.18520386 -1.2921202 0)
(0.18307936 -1.3507638 0)
(0.2137679 -1.3267791 0)
(0.34026573 -1.4486176 0)
(0.53643859 -1.4117903 0)
(0.74886888 -1.2170755 0)
(0.94178895 -1.0232791 0)
(1.0960001 -0.84475795 0)
(1.1548994 -0.61145508 0)
(1.1224194 -0.26220043 0)
(1.025003 0.13563625 0)
(0.87052637 0.45279445 0)
(0.77159678 0.77671844 0)
(0.71198854 1.0353804 0)
(0.62880023 1.1853814 0)
(0.51583266 1.2452928 0)
(0.37843034 1.1045719 0)
(0.23898871 0.85895028 0)
(0.14030495 0.61712841 0)
(0.097415585 0.46443632 0)
(0.074993724 0.40983602 0)
(0.051600105 0.3805062 0)
(0.030750818 0.34451717 0)
(0.013958458 0.30875159 0)
(-0.00089109302 0.27672512 0)
(-0.01354433 0.24788179 0)
(-0.024412754 0.22171006 0)
(-0.033837224 0.19805651 0)
(-0.042017366 0.17657276 0)
(-0.049173302 0.15698904 0)
(-0.055418961 0.13907656 0)
(-0.06085895 0.12261542 0)
(-0.065568727 0.10742039 0)
(-0.069592051 0.093336209 0)
(-0.072957957 0.080204469 0)
(-0.075668614 0.067904401 0)
(-0.077724717 0.056329796 0)
(-0.079118345 0.045393481 0)
(-0.079829915 0.035025837 0)
(-0.079854235 0.025170202 0)
(-0.079177258 0.015794095 0)
(-0.077772647 0.0068695933 0)
(-0.075622827 -0.0016095464 0)
(-0.072728277 -0.0096435705 0)
(-0.069083809 -0.017211784 0)
(-0.064692902 -0.024289486 0)
(-0.059576799 -0.030845212 0)
(-0.053717846 -0.036847795 0)
(-0.047086438 -0.042216504 0)
(-0.040265959 -0.04685748 0)
(-0.033446471 -0.051074491 0)
(-0.02065432 -0.054787448 0)
(0.0034237676 0.0029279368 0)
(0.0046130382 0.003427585 0)
(0.0052833423 0.0039714249 0)
(0.0051382015 0.0045500508 0)
(0.0057917746 0.0052277483 0)
(0.0059743452 0.0059828538 0)
(0.0061673645 0.0068116304 0)
(0.006300226 0.0077099369 0)
(0.0063602396 0.0086787902 0)
(0.006346216 0.0097108059 0)
(0.0062623972 0.010810328 0)
(0.0061084641 0.011989482 0)
(0.0058812559 0.013253884 0)
(0.0055820431 0.014605248 0)
(0.0052126629 0.016065652 0)
(0.0047767304 0.017642799 0)
(0.004278488 0.019367655 0)
(0.0037353198 0.021243195 0)
(0.0031143626 0.023347015 0)
(0.0024185916 0.025717398 0)
(0.0016658847 0.028384562 0)
(0.00086755666 0.031446457 0)
(-6.5607609e-05 0.034979135 0)
(-0.0011763721 0.039123373 0)
(-0.0025179071 0.043954288 0)
(-0.004202073 0.049630363 0)
(-0.0064824355 0.056269371 0)
(-0.0096227861 0.06392975 0)
(-0.01392482 0.072694389 0)
(-0.019808582 0.082462211 0)
(-0.027608229 0.092958248 0)
(-0.037752544 0.10389767 0)
(-0.05059519 0.11477829 0)
(-0.066458123 0.12486479 0)
(-0.085583938 0.1331807 0)
(-0.10782621 0.13839816 0)
(-0.13253648 0.13908874 0)
(-0.15836253 0.13359857 0)
(-0.18267452 0.12005419 0)
(-0.2015352 0.097059377 0)
(-0.21047507 0.065357452 0)
(-0.20757562 0.034034485 0)
(-0.19758187 0.021074573 0)
(-0.18574028 0.030472812 0)
(-0.15265216 -0.0031686049 0)
(-0.071135844 -0.20016136 0)
(0.018249107 -0.51795206 0)
(0.083202771 -0.97547121 0)
(0.095826648 -1.2994844 0)
(0.026498657 -1.2931449 0)
(0.037217947 -1.3862531 0)
(0.11428425 -1.6223776 0)
(0.20414112 -1.57142 0)
(0.34714812 -1.409497 0)
(0.51633457 -1.2104793 0)
(0.6508987 -0.94564723 0)
(0.70315408 -0.60169482 0)
(0.67894089 -0.19105602 0)
(0.61741927 0.24646371 0)
(0.49541876 0.57555173 0)
(0.41255589 0.83618846 0)
(0.4097676 1.0828473 0)
(0.39047974 1.2633193 0)
(0.33571801 1.3385826 0)
(0.25474624 1.2142236 0)
(0.15853439 0.96255947 0)
(0.088830992 0.68550856 0)
(0.057287819 0.50157058 0)
(0.032295783 0.43548637 0)
(0.0094371975 0.40169219 0)
(-0.007457688 0.36162521 0)
(-0.020757359 0.32316874 0)
(-0.032261247 0.28897425 0)
(-0.041779007 0.25832861 0)
(-0.04992327 0.23071804 0)
(-0.056929663 0.2058426 0)
(-0.063009509 0.18334686 0)
(-0.068326292 0.16289658 0)
(-0.072965196 0.14423046 0)
(-0.077020316 0.1270887 0)
(-0.080526698 0.11126254 0)
(-0.0835104 0.096567482 0)
(-0.085978595 0.0828378 0)
(-0.087911349 0.069937287 0)
(-0.089289708 0.057748898 0)
(-0.090085181 0.046177489 0)
(-0.09026754 0.035152241 0)
(-0.089807201 0.024612202 0)
(-0.088672175 0.014526611 0)
(-0.086825124 0.0048812653 0)
(-0.084236468 -0.0043385905 0)
(-0.080887572 -0.013129269 0)
(-0.076762395 -0.021459525 0)
(-0.071859684 -0.029297043 0)
(-0.066192373 -0.036601999 0)
(-0.059715606 -0.043331211 0)
(-0.052396501 -0.049367955 0)
(-0.04494087 -0.054639747 0)
(-0.037300554 -0.05952067 0)
(-0.023345884 -0.063658857 0)
(0.0037679218 0.0023336521 0)
(0.0051231632 0.0028958301 0)
(0.0058802008 0.0035053694 0)
(0.0058039182 0.0041440178 0)
(0.0065409842 0.0048905956 0)
(0.0068051608 0.0057092755 0)
(0.0070735995 0.0066071282 0)
(0.0072796145 0.0075799742 0)
(0.0074042269 0.0086202088 0)
(0.0074598367 0.0097249551 0)
(0.0074561429 0.010897536 0)
(0.0073910433 0.012141058 0)
(0.0072535141 0.013468653 0)
(0.0070574429 0.014883977 0)
(0.0068059411 0.016403592 0)
(0.0065095678 0.018035061 0)
(0.006172662 0.019802762 0)
(0.0058107579 0.021741783 0)
(0.0054528501 0.023853825 0)
(0.0050608941 0.026257529 0)
(0.004663258 0.028974079 0)
(0.0043090082 0.032081398 0)
(0.003952253 0.03567797 0)
(0.0035513199 0.039962302 0)
(0.0030455506 0.045043796 0)
(0.0023561989 0.051125511 0)
(0.0011932173 0.058414491 0)
(-0.00072709986 0.067040278 0)
(-0.0037483552 0.077124151 0)
(-0.0085463869 0.088689719 0)
(-0.015574195 0.10151702 0)
(-0.025313159 0.11522874 0)
(-0.038446389 0.12931523 0)
(-0.055603865 0.14304525 0)
(-0.077366012 0.15534789 0)
(-0.10381572 0.16448072 0)