/*--------------------------------*- C++ -*----------------------------------*\
  =========                 |
  \\      /  F ield         | OpenFOAM: The Open Source CFD Toolbox
   \\    /   O peration     | Website:  https://openfoam.org
    \\  /    A nd           | Version:  9
     \\/     M anipulation  |
\*---------------------------------------------------------------------------*/
FoamFile
{
    format      ascii;
    class       volScalarField;
    location    "1";
    object      p;
}
// * * * * * * * * * * * * * * * * * * * * * * * * * * * * * * * * * * * * * //

dimensions      [0 2 -2 0 0 0 0];

internalField   nonuniform List<scalar> 
918
(
2.1134644
1.6961648
0.29969599
2.1399259
0.030703061
1.6398655
-0.66636377
2.1583891
2.4908316
0.32853072
0.25866157
2.2248205
1.3330407
1.2136138
0.12862656
0.16044161
2.3224759
-0.64705557
2.323776
0.13731046
1.2775041
2.2760353
2.0231273
2.2074335
2.2551747
1.1450928
1.3758441
0.057091592
-0.10269815
-0.041396699
0.11483514
0.1646151
0.099464498
1.3948554
1.5180193
1.6395857
2.2507425
1.39048
-0.26087022
-0.38747448
-0.42948305
-0.86294824
2.1746135
2.1955652
0.52446242
2.1115792
2.0714995
2.3159258
2.5180138
2.5037131
2.2029337
2.4751976
2.410563
0.80220102
0.30145577
0.26457174
0.35769383
0.3195386
0.44065973
0.28041568
0.26477781
0.30542306
0.30373486
2.0797522
2.2222493
2.2098708
2.2424417
2.2191846
1.6384192
1.6747011
1.7191882
1.1761009
1.3455057
1.3082212
1.3800642
1.2309649
1.2516426
1.2524947
1.2045818
-0.1005527
-0.71691925
0.49324764
0.6059563
0.002316564
0.17038513
0.17972567
2.307417
2.3229813
2.2828516
2.2830859
1.4392689
-0.45695732
-0.87229104
2.3212878
2.3513158
2.2471386
2.0864998
2.411322
2.3780381
0.14796784
0.14407679
0.12350428
0.15183245
0.15091512
1.5282393
1.6913139
2.1843776
2.3208662
2.2086525
2.2472762
2.2372146
1.699255
2.3547849
2.2965266
1.0705107
1.2329725
1.1106396
1.1848429
1.3265853
1.2695217
1.462509
1.4154615
-0.087468213
0.001225394
0.18358666
0.12189893
0.16141426
2.24387
2.211582
2.2825545
2.2493168
2.2823586
1.218911
1.153377
1.4425468
1.5585516
0.072216452
0.0049782713
-0.6148166
-0.6307884
-0.93676194
1.7021991
2.2235691
2.2501814
0.36447985
0.57230116
0.29014744
0.73986458
0.70204646
2.2804417
2.3126219
2.2862594
2.3057029
2.3364922
2.3403482
2.2550714
2.4708487
2.3355189
0.85503288
0.95320296
0.7774322
0.68104603
-0.15251722
0.077373859
-0.16529485
0.31858623
0.37560629
0.46817702
0.49121593
0.48545364
0.41418468
0.32595571
0.31716603
0.32505259
0.24307906
0.19838216
2.068506
2.0455199
2.1110627
2.144995
2.2373513
2.2178543
2.2379478
2.2499456
1.3882413
1.3585786
1.3466972
1.321217
-1.5784793
-3.5316622
0.78541843
0.85743518
0.01596396
-0.013615199
0.0079864792
-0.0065074566
0.0041433362
-0.023132544
0.26325817
0.23071825
0.19661809
0.27836694
2.3277007
2.3501876
1.4146538
1.4891662
1.2938988
1.2999417
2.3247831
2.3525591
2.3678589
2.3673456
0.21030991
0.19565726
0.23083404
2.0201765
1.8475458
1.9368243
1.6022656
1.443288
1.7908045
1.880427
2.3278543
2.2902781
2.3468757
1.0768725
1.1278215
1.6122096
1.3532425
1.6314545
1.4625561
1.5051553
1.5200643
1.2834554
2.1518771
2.180627
2.1872535
2.2892065
2.3003948
2.3254641
2.2571391
2.2697921
2.2574098
0.9522872
0.67928626
1.7178521
1.6336985
1.5482065
1.6510595
1.6865721
1.7102366
2.2576415
2.231428
2.2626351
1.0171514
1.0180996
0.61043063
0.60212245
1.9450792
2.0048433
1.9739164
1.3222385
1.2666974
1.320135
1.2977721
1.2935395
1.3347943
0.58319506
-0.055202382
0.24393581
1.0514049
0.95130077
0.99125351
0.3614649
0.3498138
0.35839475
1.4849676
1.5925772
1.0028219
1.1761813
1.1567721
1.1146382
1.2131256
1.2132618
1.0817976
1.1706353
1.2834038
1.2498894
1.6654746
1.6676191
1.7354313
1.629417
1.6816474
1.3612491
1.1685543
1.1147263
0.52041399
0.55110805
0.51357165
1.5520316
1.6090089
1.6063595
2.293602
2.2058649
-0.07214726
0.058479867
2.2806777
2.4533508
-0.13977219
-0.0096865215
0.97753878
0.62045444
1.3162469
2.3847655
2.3161261
2.2744439
0.27189246
0.71884263
0.27632381
0.34540679
0.28478238
2.1617334
2.1033491
1.9896789
-0.07082586
0.20737751
0.16890483
0.1362703
2.4088043
2.3771166
2.3547911
2.314622
2.3460842
0.022469075
0.0053132908
0.046364642
0.11313696
0.16255288
0.19256091
2.2938291
2.2485008
0.31189944
2.3373685
2.2971828
2.3171994
2.4708241
2.3992581
2.4139201
0.18392375
0.09763881
0.18841584
1.6274781
1.8489516
1.2300324
1.1403569
1.1717764
0.91340838
0.7669203
1.0791347
1.1645529
1.0984972
1.1314381
2.1653435
2.1001117
1.4496547
1.0118649
1.4291828
1.3777039
2.3513137
2.3994898
2.346132
2.3311524
2.4180669
2.2395865
2.5127906
2.3846874
2.4557269
2.5440927
0.34883478
0.45955147
0.38586343
0.21864741
0.76920788
0.91990011
0.70300433
0.7829676
0.45177545
0.22965179
0.28384948
0.23305072
0.29529372
0.28288321
0.34542478
0.3205574
0.47230366
0.37215976
0.3766118
0.20679826
0.43082966
0.28089276
2.112684
2.1951152
2.1477256
2.2638089
2.1063574
2.1618368
2.0771441
2.098092
2.1131983
1.9289562
2.0159648
1.9919316
-0.019906101
0.096510219
0.13119463
0.21308359
0.20429822
-0.010679605
0.069175908
0.0092387834
0.068968466
0.052659184
0.12835161
0.14801174
0.16829667
-0.080737496
1.3738604
1.1507073
0.55994167
2.2639304
2.4153476
2.337113
2.4264794
2.4631533
2.5367798
2.5084476
2.3721375
2.2649542
2.3009911
2.2385335
2.289452
0.3683119
0.23427477
0.2663221
0.41763014
1.3839215
2.2552221
1.9318323
1.7568046
1.7908304
2.0135421
1.6317066
1.4975332
1.1393095
0.90030329
0.64763125
0.57952906
0.61114875
0.94435992
1.2112814
1.1139759
1.1974037
1.2477748
1.1750964
1.1584136
0.79324925
1.8904767
0.82888126
0.69227628
1.2252317
1.0525469
1.7933762
2.1767653
2.1973821
2.0623274
2.0509181
2.1322301
2.0660762
2.0682781
2.167076
2.1786322
1.9797976
1.6746647
1.5852335
1.5193193
2.2068065
2.0045443
2.0817212
1.9237507
2.3687383
2.4213164
2.3339066
2.3129031
2.3779946
2.2714203
2.3165671
2.2557887
2.3169212
2.3739198
2.3514426
2.2988223
0.49262895
0.38470462
0.43775473
0.26903583
0.39524587
0.20027072
0.42556704
0.60854266
0.4380067
0.63777509
0.8633385
0.5425009
0.3575138
0.44156267
0.4089396
0.79885004
0.70056115
0.59014422
0.48253976
0.54923323
0.58685462
0.64282691
0.57643642
0.33087549
0.34467176
0.48695596
0.25017481
0.40933477
0.40309735
0.52162608
0.28763191
0.41051729
0.27348734
0.23689696
0.29777174
0.49786784
0.32694846
0.47054768
0.095921319
0.13714529
-0.038323618
0.14761116
0.41576236
0.43214689
2.2948139
2.2087729
2.2228331
2.2117621
2.2963998
2.2276138
2.0586103
2.3007224
2.3251941
2.2476838
2.1158281
2.0541222
2.0362055
2.0605231
2.1519337
2.1092043
2.3112186
2.266788
2.1574549
2.1451171
2.0028972
2.0761487
1.9934208
2.0604808
2.0604525
-0.043342337
0.17817499
0.04865325
0.10844161
0.1660683
0.21358432
0.34512306
0.15912502
0.3064188
0.29164763
0.24062297
0.12254778
0.17328655
0.41934962
0.56930506
0.27615286
0.070254206
-0.060446358
1.374273
1.4357199
1.2600435
1.0805615
1.173122
1.3048315
1.3518562
1.0363559
1.0535852
1.1535146
1.6047242
1.4856892
2.2937827
2.2459365
2.3339952
2.4007774
2.3401187
0.55689949
0.86113057
0.91274444
1.2994726
1.4113103
1.4101588
1.1791377
1.1683387
1.2550598
1.3304976
2.2359076
2.2940892
2.2067126
2.2674874
2.252226
1.8431559
2.1192458
2.1064621
2.2676498
2.1082479
2.1456909
2.2566182
2.1692803
2.0186504
2.0192096
2.0827318
2.0201165
2.0060891
1.9796975
2.0053663
2.1243548
2.0949702
2.1251315
2.0966951
2.18699
2.0327218
2.1945437
2.3125955
2.2460161
1.9594008
1.9605655
2.0274189
2.0511738
1.9975701
2.0280814
2.0074212
1.1790784
1.2943556
1.2301842
1.2365751
1.266898
1.014836
1.0689081
1.1548032
1.1649448
0.84231907
0.66958211
0.481864
1.7045637
1.5269755
1.6941155
1.2994606
2.0214374
2.0664838
1.9796704
1.9230203
1.9191008
2.1792569
2.2201603
2.2389777
2.069685
2.0336437
2.1021456
2.0763379
2.0254899
1.6529383
1.5450548
1.6443841
1.3672905
1.4697897
1.8184572
1.6744353
1.5998978
1.6796852
2.0288664
1.7169109
1.7872597
1.9728587
1.753156
1.7904148
2.0081557
2.106127
2.156665
2.0650268
1.8622056
1.9800937
1.9311233
2.0217373
2.1115923
2.1079251
2.3111726
2.2810174
2.2586682
2.3231243
2.2954463
2.3029489
2.2092514
2.3234309
2.3410775
2.3707786
2.4028391
0.20237733
0.3143662
0.41317499
0.26430762
0.39712797
0.36715495
0.47014714
0.39381636
0.47870774
0.56013908
0.4285771
0.45898866
0.48653386
0.39013931
0.54017264
0.57859889
0.46891806
0.44542152
0.8908015
0.97028058
1.0005002
0.94635195
0.86317413
0.76416767
0.86301589
0.31475705
0.48432631
0.42264844
0.2871251
0.28790408
0.21378059
0.32564473
0.18943502
0.40600145
0.32437562
-0.025180422
0.19741917
0.25112974
0.10279988
0.20542245
0.22163424
2.212707
2.1776426
2.0852059
2.0545875
2.0564472
2.1495852
2.23093
2.3149992
2.2977509
2.2687445
2.2512921
2.2373926
2.2392704
0.18828467
0.41993953
0.46931662
0.18046377
0.21925334
0.0085779558
-0.011696769
1.1752022
0.81234023
0.82277979
0.70931743
0.37362381
0.51808952
1.4310967
1.5932463
1.5733319
1.5172229
1.3954784
1.3620181
1.5309693
1.6075532
1.2530576
1.330282
1.2592397
1.3907683
1.4310327
1.4902212
1.3863718
1.121347
1.48177
1.6936541
0.97915389
1.1841177
1.3773983
1.3524685
1.4210679
1.3803676
1.5546377
1.3519503
1.2673696
1.2260234
1.244094
1.4174502
1.4079144
1.4550324
1.523941
1.0253927
1.0972477
1.0199293
2.1768836
2.2496265
2.2784689
2.2011288
2.2494296
2.1963769
2.1385125
2.2386357
2.2920115
2.32657
0.45930645
0.4707458
0.26628869
0.84113297
1.197276
1.8420479
1.5563341
2.1101926
2.0497703
1.8790934
2.0093635
2.0383918
1.9637067
2.0255322
1.9801292
1.7145459
1.8486201
1.7475219
1.8283424
1.5904954
1.5536218
2.1217211
2.075758
2.1514416
2.1449521
2.0842061
2.1675363
2.1738424
2.3022878
2.14932
2.2650232
2.290319
2.3353238
0.56735735
0.44322752
0.57471716
0.54531658
0.44833593
0.38203615
0.080355318
0.16274581
0.41287007
0.34774299
0.22382321
0.26378059
0.99853733
1.0334307
0.69890887
0.97337161
0.63982707
0.41732052
0.43576243
0.58705301
0.77906762
0.86017776
1.3503026
1.2866356
1.4049916
1.3321861
1.2226482
1.3931214
1.5799285
1.554545
1.5942571
1.4525099
1.4398533
1.4459353
0.73187561
1.0695526
2.0590257
2.2277035
1.8079609
1.6189414
1.4127267
1.6654692
2.0017563
1.8172134
1.8468062
2.0576927
1.9443166
1.2588811
1.2402126
1.4040211
1.4180987
1.3421265
1.2247798
1.2429666
1.3724069
1.4386247
)
;

boundaryField
{
    wall-4
    {
        type            zeroGradient;
    }
    velocity-inlet-5
    {
        type            zeroGradient;
    }
    velocity-inlet-6
    {
        type            zeroGradient;
    }
    pressure-outlet-7
    {
        type            fixedValue;
        value           uniform 0;
    }
    wall-8
    {
        type            zeroGradient;
    }
    frontAndBackPlanes
    {
        type            empty;
    }
}


// ************************************************************************* //
