/*--------------------------------*- C++ -*----------------------------------*\
  =========                 |
  \\      /  F ield         | OpenFOAM: The Open Source CFD Toolbox
   \\    /   O peration     | Website:  https://openfoam.org
    \\  /    A nd           | Version:  9
     \\/     M anipulation  |
\*---------------------------------------------------------------------------*/
FoamFile
{
    format      ascii;
    class       volScalarField;
    location    "4";
    object      p;
}
// * * * * * * * * * * * * * * * * * * * * * * * * * * * * * * * * * * * * * //

dimensions      [0 2 -2 0 0 0 0];

internalField   nonuniform List<scalar> 
1000
(
1.6854724
1.5643946
1.4684141
1.404758
1.3562485
1.3137764
1.2762412
1.2440695
1.2166691
1.1928317
1.1714375
1.1516738
1.132997
1.1150578
1.0976431
1.0806298
1.0639503
1.0475681
1.0314628
1.015621
1.0000319
0.98468519
0.9695702
0.95467617
0.93999232
0.92550814
0.91121362
0.89709933
0.88315649
0.86937682
0.85575244
0.8422757
0.82893893
0.81573438
0.80265399
0.7896894
0.77683192
0.76407253
0.75140202
0.73881111
0.72629059
0.71383151
0.70142532
0.68906401
0.67674025
0.6644474
0.65217963
0.63993191
0.62769996
0.61548021
0.60326976
0.5910663
0.57886799
0.56667343
0.55448154
0.54229153
0.53010282
0.51791499
0.50572776
0.49354091
0.48135432
0.46916788
0.45698154
0.44479526
0.43260901
0.42042279
0.40823657
0.39605037
0.38386417
0.37167797
0.35949177
0.34730557
0.33511937
0.32293318
0.31074698
0.29856078
0.28637459
0.27418839
0.26200219
0.249816
0.2376298
0.2254436
0.21325741
0.20107121
0.18888501
0.17669882
0.16451262
0.15232642
0.14014023
0.12795403
0.11576784
0.10358164
0.091395448
0.079209259
0.067023068
0.054836887
0.042650715
0.03046459
0.01827852
0.0060926708
1.5682528
1.5133237
1.4523712
1.4008035
1.3575335
1.3185652
1.2829789
1.2512063
1.2232454
1.1984676
1.1760658
1.1553646
1.1358832
1.1172955
1.0993824
1.0819984
1.0650476
1.0484679
1.0322176
1.0162675
1.0005954
0.98518289
0.97001406
0.95507442
0.94035075
0.92583093
0.9115039
0.89735952
0.88338857
0.8695825
0.85593332
0.84243331
0.82907487
0.81585027
0.80275156
0.78977043
0.77689822
0.76412592
0.75144429
0.73884397
0.72631563
0.71385019
0.70143891
0.68907364
0.67674684
0.66445173
0.65218235
0.63993349
0.62770078
0.61548055
0.60326982
0.5910662
0.57886782
0.56667324
0.55448136
0.54229138
0.5301027
0.5179149
0.50572769
0.49354086
0.48135428
0.46916786
0.45698152
0.44479525
0.43260901
0.42042278
0.40823657
0.39605037
0.38386417
0.37167797
0.35949177
0.34730557
0.33511937
0.32293318
0.31074698
0.29856078
0.28637459
0.27418839
0.26200219
0.249816
0.2376298
0.2254436
0.21325741
0.20107121
0.18888501
0.17669882
0.16451262
0.15232642
0.14014023
0.12795403
0.11576783
0.10358164
0.091395443
0.079209252
0.067023049
0.054836856
0.042650645
0.030464482
0.018278336
0.0060925245
1.5074315
1.4812564
1.4428596
1.4017267
1.3626414
1.3260506
1.291753
1.2600354
1.2311794
1.2050784
1.1813245
1.1594346
1.138985
1.1196445
1.1011648
1.0833645
1.0661137
1.0493198
1.0329161
1.0168544
1.0010989
0.9856221
0.97040202
0.95542023
0.94066086
0.92611003
0.91175552
0.89758643
0.88359297
0.86976617
0.85609774
0.84257977
0.82920452
0.8159642
0.80285082
0.78985608
0.77697135
0.76418765
0.75149576
0.73888633
0.72635003
0.71387772
0.70146064
0.68909052
0.67675976
0.66446148
0.65218957
0.63993876
0.62770456
0.61548321
0.60327166
0.59106745
0.57886865
0.56667378
0.55448171
0.54229159
0.53010283
0.51791498
0.50572774
0.49354089
0.4813543
0.46916786
0.45698153
0.44479525
0.43260901
0.42042278
0.40823657
0.39605037
0.38386417
0.37167797
0.35949177
0.34730557
0.33511937
0.32293318
0.31074698
0.29856078
0.28637459
0.27418839
0.26200219
0.249816
0.2376298
0.2254436
0.21325741
0.20107121
0.18888501
0.17669882
0.16451262
0.15232642
0.14014022
0.12795403
0.11576783
0.10358163
0.091395423
0.07920922
0.067022986
0.054836751
0.042650465
0.030464223
0.018278013
0.0060923072
1.478023
1.4625249
1.435655
1.4017311
1.3659301
1.3309788
1.2976769
1.2663239
1.2371932
1.2104018
1.1858144
1.1631224
1.1419708
1.1220425
1.1030849
1.0849061
1.0673615
1.0503424
1.0337665
1.0175723
1.0017137
0.98615549
0.97087013
0.95583519
0.94103185
0.92644406
0.91205801
0.89786166
0.88384428
0.86999616
0.85630839
0.84277259
0.82938065
0.81612451
0.80299601
0.78998676
0.77708809
0.76429105
0.75158648
0.73896511
0.7264177
0.71393518
0.70150884
0.68913046
0.67679243
0.66448784
0.65221057
0.63995527
0.62771735
0.61549299
0.60327903
0.59107293
0.57887267
0.56667668
0.55448377
0.54229304
0.53010383
0.51791566
0.50572819
0.49354119
0.48135449
0.46916799
0.4569816
0.4447953
0.43260904
0.4204228
0.40823658
0.39605037
0.38386417
0.37167797
0.35949177
0.34730557
0.33511937
0.32293318
0.31074698
0.29856078
0.28637459
0.27418839
0.26200219
0.249816
0.2376298
0.2254436
0.21325741
0.20107121
0.18888501
0.17669882
0.16451262
0.15232642
0.14014022
0.12795402
0.11576782
0.10358162
0.091395396
0.079209176
0.067022904
0.05483662
0.042650261
0.030463952
0.018277719
0.0060921245
1.4652915
1.4533381
1.4311037
1.4008162
1.366955
1.3329594
1.3002619
1.2692563
1.240159
1.2131472
1.1882203
1.1651709
1.1436897
1.1234726
1.1042697
1.0858884
1.0681809
1.0510324
1.0343545
1.0180797
1.0021565
0.98654614
0.97121804
0.95614766
0.94131452
0.92670132
0.91229335
0.89807786
0.88404358
0.87018031
0.85647875
0.84293017
0.82952622
0.8162586
0.80311901
0.79009895
0.7771897
0.76438234
0.75166774
0.7390367
0.72648008
0.7139889
0.70155453
0.68916883
0.67682423
0.66451384
0.65223153
0.63997192
0.6277304
0.61550307
0.6032867
0.59107868
0.57887692
0.56667978
0.55448599
0.54229461
0.53010492
0.51791641
0.5057287
0.49354153
0.48135471
0.46916813
0.45698169
0.44479535
0.43260907
0.42042282
0.40823659
0.39605038
0.38386417
0.37167797
0.35949177
0.34730557
0.33511937
0.32293318
0.31074698
0.29856078
0.28637459
0.27418839
0.26200219
0.249816
0.2376298
0.2254436
0.21325741
0.20107121
0.18888501
0.17669882
0.16451262
0.15232642
0.14014022
0.12795402
0.11576781
0.10358161
0.091395377
0.079209144
0.067022848
0.054836533
0.042650133
0.030463792
0.018277554
0.0060920276
1.4652915
1.4533381
1.4311037
1.4008162
1.366955
1.3329594
1.3002619
1.2692563
1.240159
1.2131472
1.1882203
1.1651709
1.1436897
1.1234726
1.1042697
1.0858885
1.0681809
1.0510324
1.0343545
1.0180797
1.0021566
0.98654615
0.97121805
0.95614767
0.94131453
0.92670133
0.91229335
0.89807787
0.88404358
0.87018031
0.85647875
0.84293017
0.82952621
0.8162586
0.80311901
0.79009894
0.7771897
0.76438233
0.75166773
0.7390367
0.72648007
0.71398889
0.70155453
0.68916883
0.67682422
0.66451384
0.65223153
0.63997192
0.6277304
0.61550307
0.6032867
0.59107868
0.57887692
0.56667978
0.55448599
0.54229461
0.53010492
0.51791641
0.5057287
0.49354152
0.48135471
0.46916813
0.45698169
0.44479535
0.43260907
0.42042282
0.40823659
0.39605038
0.38386417
0.37167797
0.35949177
0.34730557
0.33511937
0.32293318
0.31074698
0.29856078
0.28637459
0.27418839
0.26200219
0.249816
0.2376298
0.2254436
0.21325741
0.20107121
0.18888501
0.17669882
0.16451262
0.15232642
0.14014022
0.12795402
0.11576781
0.10358161
0.091395377
0.079209145
0.067022849
0.054836533
0.042650134
0.030463793
0.018277557
0.0060920286
1.478023
1.4625249
1.435655
1.4017311
1.3659301
1.3309788
1.2976769
1.2663239
1.2371932
1.2104018
1.1858144
1.1631224
1.1419708
1.1220425
1.1030849
1.0849061
1.0673615
1.0503424
1.0337665
1.0175724
1.0017137
0.98615551
0.97087015
0.95583522
0.94103187
0.92644408
0.91205803
0.89786168
0.88384429
0.86999617
0.85630839
0.84277258
0.82938064
0.8161245
0.802996
0.78998675
0.77708808
0.76429104
0.75158647
0.7389651
0.72641768
0.71393516
0.70150883
0.68913045
0.67679242
0.66448784
0.65221057
0.63995526
0.62771734
0.61549298
0.60327902
0.59107292
0.57887266
0.56667668
0.55448377
0.54229304
0.53010383
0.51791566
0.50572819
0.49354119
0.48135449
0.46916799
0.4569816
0.4447953
0.43260903
0.4204228
0.40823658
0.39605037
0.38386417
0.37167797
0.35949177
0.34730557
0.33511937
0.32293318
0.31074698
0.29856078
0.28637459
0.27418839
0.26200219
0.249816
0.2376298
0.2254436
0.21325741
0.20107121
0.18888501
0.17669882
0.16451262
0.15232642
0.14014022
0.12795402
0.11576782
0.10358162
0.091395397
0.079209177
0.067022905
0.054836621
0.042650263
0.030463957
0.018277723
0.0060921264
1.5074315
1.4812564
1.4428596
1.4017267
1.3626414
1.3260506
1.291753
1.2600354
1.2311794
1.2050784
1.1813245
1.1594346
1.138985
1.1196444
1.1011648
1.0833645
1.0661138
1.0493198
1.0329161
1.0168544
1.0010989
0.98562213
0.97040206
0.95542027
0.94066089
0.92611005
0.91175554
0.89758645
0.88359298
0.86976618
0.85609774
0.84257977
0.82920451
0.81596419
0.80285081
0.78985607
0.77697133
0.76418763
0.75149574
0.73888631
0.72635001
0.7138777
0.70146062
0.68909051
0.67675975
0.66446147
0.65218956
0.63993875
0.62770455
0.6154832
0.60327165
0.59106744
0.57886865
0.56667378
0.5544817
0.54229159
0.53010282
0.51791497
0.50572773
0.49354089
0.48135429
0.46916786
0.45698152
0.44479525
0.432609
0.42042278
0.40823657
0.39605037
0.38386417
0.37167797
0.35949177
0.34730557
0.33511937
0.32293318
0.31074698
0.29856078
0.28637459
0.27418839
0.26200219
0.249816
0.2376298
0.2254436
0.21325741
0.20107121
0.18888501
0.17669882
0.16451262
0.15232642
0.14014022
0.12795403
0.11576782
0.10358163
0.091395425
0.079209223
0.067022989
0.054836753
0.042650468
0.030464228
0.018278019
0.0060923095
1.5682528
1.5133237
1.4523712
1.4008035
1.3575335
1.3185651
1.2829789
1.2512063
1.2232454
1.1984676
1.1760658
1.1553646
1.1358832
1.1172955
1.0993824
1.0819984
1.0650476
1.0484679
1.0322176
1.0162675
1.0005954
0.98518293
0.97001409
0.95507445
0.94035078
0.92583096
0.91150392
0.89735954
0.88338858
0.86958251
0.85593332
0.84243331
0.82907486
0.81585026
0.80275155
0.78977042
0.77689821
0.76412591
0.75144428
0.73884395
0.72631561
0.71385017
0.7014389
0.68907362
0.67674682
0.66445172
0.65218233
0.63993348
0.62770077
0.61548054
0.60326981
0.59106619
0.57886781
0.56667323
0.55448135
0.54229137
0.53010269
0.5179149
0.50572769
0.49354086
0.48135428
0.46916785
0.45698152
0.44479525
0.432609
0.42042278
0.40823657
0.39605037
0.38386417
0.37167797
0.35949177
0.34730557
0.33511937
0.32293318
0.31074698
0.29856078
0.28637459
0.27418839
0.26200219
0.249816
0.2376298
0.2254436
0.21325741
0.20107121
0.18888501
0.17669882
0.16451262
0.15232642
0.14014022
0.12795403
0.11576783
0.10358164
0.091395446
0.079209256
0.067023052
0.054836858
0.042650649
0.030464489
0.018278342
0.0060925269
1.6854724
1.5643945
1.4684141
1.404758
1.3562485
1.3137764
1.2762412
1.2440695
1.2166691
1.1928317
1.1714374
1.1516738
1.132997
1.1150578
1.0976431
1.0806298
1.0639503
1.0475681
1.0314628
1.015621
1.000032
0.98468522
0.96957024
0.95467621
0.93999235
0.92550817
0.91121364
0.89709935
0.8831565
0.86937682
0.85575245
0.84227569
0.82893893
0.81573436
0.80265397
0.78968939
0.7768319
0.76407251
0.751402
0.73881108
0.72629057
0.71383149
0.7014253
0.689064
0.67674023
0.66444738
0.65217962
0.6399319
0.62769995
0.6154802
0.60326976
0.59106629
0.57886798
0.56667342
0.55448153
0.54229152
0.53010281
0.51791499
0.50572776
0.49354091
0.48135431
0.46916788
0.45698154
0.44479526
0.43260901
0.42042279
0.40823657
0.39605037
0.38386417
0.37167797
0.35949177
0.34730557
0.33511937
0.32293318
0.31074698
0.29856078
0.28637459
0.27418839
0.26200219
0.249816
0.2376298
0.2254436
0.21325741
0.20107121
0.18888501
0.17669882
0.16451262
0.15232642
0.14014022
0.12795403
0.11576783
0.10358164
0.09139545
0.079209261
0.06702307
0.05483689
0.04265072
0.030464599
0.018278527
0.006092673
)
;

boundaryField
{
    top
    {
        type            zeroGradient;
    }
    inlet
    {
        type            zeroGradient;
    }
    outlet
    {
        type            fixedValue;
        value           uniform 0;
    }
    bottom
    {
        type            zeroGradient;
    }
    back
    {
        type            empty;
    }
    front
    {
        type            empty;
    }
}


// ************************************************************************* //
