/*--------------------------------*- C++ -*----------------------------------*\
  =========                 |
  \\      /  F ield         | OpenFOAM: The Open Source CFD Toolbox
   \\    /   O peration     | Website:  https://openfoam.org
    \\  /    A nd           | Version:  9
     \\/     M anipulation  |
\*---------------------------------------------------------------------------*/
FoamFile
{
    format      ascii;
    class       volScalarField;
    location    "40";
    object      p;
}
// * * * * * * * * * * * * * * * * * * * * * * * * * * * * * * * * * * * * * //

dimensions      [0 2 -2 0 0 0 0];

internalField   nonuniform List<scalar> 
918
(
0.54361506
1.7520109
0.012117282
0.52246224
-0.0083499135
1.7226865
-0.92254597
1.2484079
0.5710783
-0.1785382
-0.053778286
0.69195594
1.5940584
1.3525441
-0.67248699
-0.022426076
1.0860106
-0.73836135
0.58135723
-0.067798448
1.3143239
0.51462522
0.54095846
0.51469766
0.8454179
1.3129356
1.4572238
0.0076134576
0.001982021
-0.01062223
-0.0045580735
-0.050922752
-0.033349713
1.5989628
1.6529841
1.6766662
0.52392448
0.59645835
-0.73325294
-0.81191345
-0.80340105
-0.98342045
1.2339495
1.225679
-0.42101527
1.2585668
1.2690555
0.52588655
0.56781775
0.58046687
0.51082149
0.5441765
0.5588839
0.47747622
-0.19915825
-0.26065148
-0.13357777
-0.11064116
0.06316725
-0.044702146
-0.048249429
-0.043420543
-0.041419469
0.50854247
0.67283562
0.65333275
0.7087289
0.73745993
1.6891066
1.6525545
1.6795289
1.6263491
1.6166535
1.5738877
1.5370313
1.3917606
1.3993313
1.3494863
1.3121678
-1.1912091
-2.2140302
-0.10668273
0.19086084
-0.0040433866
-0.0068734632
0.0063961547
1.0664411
1.0491048
1.1095335
1.1337934
1.30154
-0.70351653
-0.92114447
0.58492845
0.58140758
0.56420618
0.54613718
0.59269346
0.63802652
-0.049125437
-0.044998123
-0.083535281
-0.061675328
-0.067411792
1.2980076
1.3011228
0.5294054
0.53398642
0.75497144
0.8046228
0.78704215
0.32064333
0.85186259
0.86300675
1.135692
1.3189908
1.3231798
1.3079894
1.4435757
1.3991685
1.5038236
1.5293635
0.029373502
0.0027287564
-0.0059644796
-0.024930591
-0.0056910425
0.53152919
0.52619384
0.58968497
0.52679879
0.53384883
0.5407817
0.40123515
0.68603279
0.70230916
-0.60549454
-0.65864746
-0.81905244
-0.85006284
-0.99363194
0.95105896
1.2098134
1.1975527
-0.47777474
-0.36178082
-0.52887863
-0.27227311
-0.31664387
0.53161155
0.53679812
0.53207047
0.52886547
0.5298629
0.53128826
0.55934043
0.55716275
0.57349385
0.54956377
0.69076533
0.42503122
0.36836314
-0.48078128
-0.29890937
-0.45675581
-0.089493166
-0.077835138
0.087842685
0.13575881
0.065924407
0.063889985
-0.064213778
-0.050478639
-0.057921274
-0.04255194
-0.040530822
0.49798495
0.49132594
0.51307845
0.51940837
0.61627613
0.61962894
0.63964463
0.63169295
1.4630145
1.486669
1.5313485
1.4942593
-3.5749407
-6.2147549
0.50869279
0.6835323
-0.0085276077
-0.0076562999
0.00457155
-0.00011378403
0.002532513
-0.0085043845
0.023343223
0.015348022
0.0085010786
0.01641947
1.0197356
1.003235
1.2501111
1.2878803
1.1649679
1.1536303
0.59022023
0.58707808
0.5933605
0.58471046
-0.04195852
-0.042708344
-0.039130229
1.2772119
1.2930384
1.2861618
0.23442236
0.14247215
0.36491961
0.40996661
0.96875772
0.90905105
0.94677264
1.2086429
1.2412144
1.5187628
1.530777
1.5687162
1.565455
1.6137324
1.6060362
1.5645295
0.51768349
0.5258698
0.52599025
0.58719431
0.59175604
0.59136627
0.60576138
0.60193045
0.60010666
0.23804544
-0.094679226
0.78032121
0.7729159
0.74901464
0.74451078
1.021822
1.1072302
1.1459699
1.1793352
1.1665197
-0.17015094
-0.19164927
0.29954863
0.27307636
0.4356764
0.47342053
0.46149576
1.437081
1.4372295
1.4837679
1.4459557
1.3872929
1.4101679
-0.12077701
-1.2666186
-0.66069809
1.0715705
0.8594062
0.95983146
0.025195905
0.023555194
0.0034733718
1.2621515
1.326084
0.75146375
1.0033235
1.0041554
1.2857558
1.307804
1.3805185
1.3076554
1.3331332
1.3560009
1.338835
0.90270752
0.81424413
0.83659494
1.149795
1.1986175
0.059491328
-0.058499876
-0.062692749
0.14753541
0.20514917
0.17163049
1.2955064
1.2390402
1.3065635
0.54101262
0.53361598
0.0018034027
0.0064606613
0.58509461
0.5612968
-0.023696967
-0.0024462871
0.93709257
-0.41420163
0.065479355
0.59533574
0.55000511
0.5616015
-0.16880597
0.43833569
-0.04374573
0.064465504
0.0045871172
0.67510874
0.53152113
0.49143465
-0.0062129857
-0.027533233
-0.038746651
-0.40106363
0.5484455
0.52669377
0.54929866
0.53044333
0.56515981
-0.020254826
-0.013863914
-0.0043648568
-0.043345363
-0.038876264
-0.050483212
0.5380042
0.60509411
-0.33820286
0.56838843
0.55909189
0.57374398
0.54339072
0.59870033
0.5541358
-0.0066129723
-0.0081135617
0.00018530542
0.25642046
0.42350705
1.2392772
1.3693028
1.271649
0.89268428
0.57240454
1.1044553
1.1955352
1.0695808
1.2322578
1.2118514
1.2524533
0.167558
-0.066170491
0.18742467
0.069868204
0.58922078
0.59301064
0.54459795
0.53737429
0.56979262
0.54283802
0.57278188
0.57985546
0.57832679
0.5928487
-0.10220425
-0.12690403
-0.16603933
-0.26271989
0.45392307
0.73197319
0.34984375
0.3912501
0.19000125
-0.035537837
-0.043429337
-0.040891786
-0.052383492
0.031818395
-0.026330075
0.086343777
0.083131951
0.060028478
0.0086155424
-0.0019329494
-0.02551907
0.01242419
0.62755944
0.62235922
0.67061689
0.70955554
0.52828207
0.51947311
0.50014129
0.53090673
0.50559644
0.43183486
0.49449046
0.45335587
-0.0091278811
-0.0097116389
-0.011475196
-0.014037556
0.0033237055
-0.012833403
-0.020213721
-0.017055285
-0.019838858
-0.026263099
-0.037549823
-0.040763439
-0.35116958
-0.52478334
1.2056116
1.0605509
0.25060939
0.52308612
0.52484659
0.50963461
0.55726189
0.54490992
0.54599027
0.5454549
0.541875
0.55829348
0.56631132
0.60139609
0.60903047
-0.24324918
-0.47468992
-0.22011878
-0.32521905
0.4663409
0.98464282
0.43319932
0.32909417
0.33245296
0.79335753
1.4920152
1.3369685
1.3040649
1.3081443
-0.067803383
0.38745549
0.11420383
0.78210481
1.0204372
1.2135416
1.2672267
1.2703871
1.2409097
1.1829413
0.04638912
1.060258
-0.19721306
-0.1393719
0.25690366
0.0030612436
1.2406749
1.1774296
1.1685052
1.2396455
1.2685911
1.2038316
1.1737609
1.1824824
1.2235151
1.2214899
0.91704304
0.30710203
0.19724766
0.15696123
1.1106273
0.97415025
1.0637742
0.84366395
0.57691694
0.59731066
0.58157281
0.51185337
0.53816949
0.51252171
0.56713484
0.60126648
0.58547107
0.56254595
0.58252021
0.55662148
-0.0850687
-0.084971048
-0.048644218
-0.27777797
-0.25215965
-0.36331938
-0.13185821
0.097333258
0.062703783
0.28513536
0.42851736
0.046776826
-0.15355192
-0.091086672
-0.013134022
0.20269779
0.24937396
0.12246085
0.18805376
0.17576277
0.1496285
0.2934343
0.29775491
-0.0085583933
-0.002261958
-0.027906661
-0.024294049
0.051241424
0.15759115
0.16090049
0.020240303
0.0094497829
-0.036141722
-0.039596435
0.014457884
-0.017585812
0.0034811121
0.024301855
-0.015502302
0.016353337
0.013526109
0.0049116109
0.029419598
0.024352896
0.62168301
0.61722356
0.61356298
0.74463587
0.73252335
0.76219568
0.74533885
0.53755862
0.52987944
0.53081697
0.55099173
0.53333826
0.55732994
0.58335132
0.63627168
0.65120847
0.59916399
0.57812873
0.61901475
0.57950812
0.56837132
0.5783937
0.57954816
0.51369436
0.52169603
-0.02128989
0.00075888866
0.017954358
-0.057246007
0.0037489309
-0.015933283
0.0094804414
0.044196939
-0.0012491817
0.019571548
0.010923356
-0.014725614
-0.0055994549
-0.15660971
0.012210132
-0.40705662
-0.43980522
-0.55305231
1.1007822
1.2618727
0.99540488
0.71401244
0.75108294
1.0369941
1.1781333
0.68527344
0.81947817
0.93218391
0.91902188
1.1362029
0.54982796
0.54019031
0.55185455
0.52617335
0.56008208
-0.026799044
0.21872146
0.10885468
0.31934782
0.58453303
0.63321417
0.43417372
0.37585507
0.52499383
0.4219508
0.99148877
1.0235694
0.88166725
0.94119869
0.91396033
0.59866383
0.83161262
0.96917766
0.84397432
0.89016523
0.92944162
0.88427841
0.94030231
0.83361557
0.71800709
0.75141
0.52983417
0.61510535
0.56411367
0.50948287
0.66286657
0.61734772
0.66403095
0.63807443
0.70371207
0.79636977
0.7791463
0.78455588
0.82836053
0.68688882
0.61045992
0.63266037
0.70761651
0.57870541
0.60247885
0.64532821
0.45797391
0.47186978
0.3496475
0.26228628
0.32323534
0.1714576
0.14538306
0.19198355
0.49851623
-0.11570244
-0.11727157
-0.48390296
0.93772766
1.506374
1.1399166
1.1128284
1.2680381
1.2413786
1.2331228
1.2794272
1.2805389
1.1080246
1.1530227
1.14381
1.1073904
1.152437
1.2267394
1.2088624
0.99739604
0.66377019
0.63738195
0.56132084
0.25589371
0.36087221
0.77579569
0.61249907
0.44287359
0.41577486
0.74127696
0.47175064
0.60988074
0.76051349
0.57346295
0.46502202
0.93171432
1.0546484
1.0455154
0.99544801
0.83828859
0.89551842
0.97717878
1.0476373
1.0818941
1.1560061
0.53948324
0.55910617
0.55165551
0.53015151
0.55695833
0.57309322
0.57355016
0.56511445
0.57064953
0.57795433
0.58873599
-0.049710039
-0.03857363
-0.059723929
-0.065466237
-0.022972761
-0.048633383
0.028737042
0.004218614
-0.0059923119
-0.0014589688
-0.040429583
-0.055344457
-0.035753419
-0.017879558
0.15482021
0.19005421
0.1348035
0.12050078
0.32958951
0.46944551
0.52623547
0.44082217
0.25630431
0.28262198
0.35151674
0.0386859
0.057683817
0.070986383
0.090841361
0.094726025
-0.025455138
-0.031568887
-0.025225745
-0.018812979
-0.0059463342
-0.029189715
-0.035460555
-0.024476125
-0.025546136
-0.032498174
-0.040739573
0.5348949
0.5445754
0.5885124
0.54769136
0.5480025
0.5898656
0.5704386
0.58712859
0.59583597
0.61860917
0.59322044
0.62394978
0.62078019
-0.011843127
-0.016560756
-0.03384051
-0.022675282
-0.017746585
-0.017157821
-0.024761931
0.26962169
0.11428602
0.15474185
0.021368172
-0.23712935
-0.12706966
0.65446535
0.79748442
0.79903542
1.007772
0.79217407
0.75042714
0.90220265
1.0192151
0.43487033
0.66639202
0.48147852
1.127908
1.0380016
1.2079316
0.7541428
0.46569713
0.71748585
0.80171115
0.50095718
0.61147627
0.54810864
0.3556488
0.42139862
0.48718837
0.66587569
0.4744796
0.52829807
0.45777796
0.47298107
0.53317352
0.55011283
0.64901291
0.71008703
0.38494908
0.35961252
0.2881967
1.0078041
1.0280872
1.0586273
1.0571713
1.07814
0.85086308
0.84212365
0.88323026
0.8705855
0.84314041
-0.3053623
-0.39070111
-0.75079031
-0.21808607
0.40330415
0.99090193
0.87161349
1.4014202
1.1337491
1.2977615
1.2352462
1.1975067
1.1136853
1.1262546
1.1906561
0.5785879
0.78332424
0.76298242
0.70799575
0.49876014
0.39872804
1.0373442
1.0121658
1.0898235
1.1228055
1.0564909
1.1336056
0.56036644
0.57788842
0.55601385
0.56846391
0.54685919
0.55885119
0.079635315
0.025192076
0.13818726
0.1177263
0.034815518
0.0099592934
-0.0045232433
-0.0019903639
-0.018881328
-0.01277258
0.0020563952
0.009150618
0.30800859
0.25843821
0.040175673
0.15996551
-0.04428504
-0.14095491
-0.20720476
-0.00034324928
0.15814444
0.16258874
0.56190598
0.84258121
0.68978084
0.7966359
0.6201992
0.73327739
0.74779827
0.70561364
0.7465342
0.61850955
0.62918402
0.68753881
-0.10953339
0.21630103
1.4520911
1.4038069
1.0150283
0.87364895
0.8088426
1.0972774
1.0178821
0.85084022
0.95773621
1.0733239
1.0546795
0.4509991
0.41687681
0.81795651
0.95481336
0.54808648
0.4259162
0.39180638
0.57464032
0.63070064
)
;

boundaryField
{
    wall-4
    {
        type            zeroGradient;
    }
    velocity-inlet-5
    {
        type            zeroGradient;
    }
    velocity-inlet-6
    {
        type            zeroGradient;
    }
    pressure-outlet-7
    {
        type            fixedValue;
        value           uniform 0;
    }
    wall-8
    {
        type            zeroGradient;
    }
    frontAndBackPlanes
    {
        type            empty;
    }
}


// ************************************************************************* //
