/*--------------------------------*- C++ -*----------------------------------*\
  =========                 |
  \\      /  F ield         | OpenFOAM: The Open Source CFD Toolbox
   \\    /   O peration     | Website:  https://openfoam.org
    \\  /    A nd           | Version:  9
     \\/     M anipulation  |
\*---------------------------------------------------------------------------*/
FoamFile
{
    format      ascii;
    class       surfaceScalarField;
    location    "40";
    object      phi;
}
// * * * * * * * * * * * * * * * * * * * * * * * * * * * * * * * * * * * * * //

dimensions      [0 3 -1 0 0 0 0];

internalField   nonuniform List<scalar> 
1300
(
1.7582594
5.6264299
-5.0589892
1.7582594
-8.5212493
5.6264299
-5.3948043
5.3948043
-0.8392221
0.8392221
3.7318728
3.6528165
-4.130149
4.130149
-3.5571666
3.5571666
-0.79563351
0.79563351
-5.2377234
5.2377234
-5.0576615
5.0576615
4.7238332
-4.7238332
-6.9105505
6.9105505
-0.77782784
0.77782784
-5.0169695
5.0169695
1.4999783
-1.4999783
-3.498381
3.498381
-0.0033612538
0.0033612536
-0.56987156
5.1413459
1.1883878
1.1883878
-0.71942189
0.71942189
-4.8633398
4.8633398
6.2141136
-6.2141136
7.8587267
-7.8587267
-2.7997375
-3.3745058
1.9717352
-12.52081
-6.5495141
-6.5495141
-8.4382634
8.4382633
-2.8118334
2.8145965
1.4655891
-1.4655891
-1.7704538
1.7704538
-5.3223553
-0.072449027
-5.3223553
5.4574683
-0.062664074
5.4574683
-0.90482751
0.06560539
-0.90482751
4.7086231
-4.7086231
0.7264072
0.11281489
0.7264072
1.2729724
-1.2729724
-3.7399617
7.4718345
3.6447276
-3.0545317
8.1958776
-3.3924193
7.0452359
-6.5402871
6.5402871
-4.3455457
0.21539678
-4.3455457
3.9673361
0.16281285
3.9673361
-7.429313
7.429313
-3.6276097
0.070443122
-3.6276097
3.5141923
0.042974323
3.5141923
2.0659734
-2.0659734
-0.81942346
0.023789951
-0.81942347
0.77238124
0.023252265
0.77238125
0.35898222
5.2674477
-5.9854121
8.8000086
-5.2674476
0.029724155
5.2000905
0.037632866
5.2000904
-5.0938273
0.036165767
-5.0938273
5.015663
0.041998536
5.015663
4.811688
-0.087854875
4.8116879
-4.8321548
0.10832163
-4.8321548
-4.0239507
-4.5007849
-7.0757342
0.16518377
-7.0757342
-0.7087861
-0.069041746
-0.70878612
0.87349209
-0.095664271
0.87349208
-4.1173646
4.1173646
-5.3304108
0.31344124
-5.3304108
1.3688549
0.13112343
1.3688549
2.0091816
2.5622927
3.767441
-3.767441
2.2674627
-3.4835355
-0.014845483
-3.4835355
-3.5633777
-4.2953491
3.5633777
-0.064996731
-0.40534935
0.40198813
-0.40534933
1.2452427
-0.056854908
1.2452428
0.74849154
0.023889713
-0.74849154
0.029069642
3.3300694
-3.3300694
0.31938057
0.40004131
0.31938056
-5.5705606
5.5705606
4.957593
0.058069977
-4.957593
0.094253313
6.1533677
0.060745846
6.1533677
-6.1926503
-0.021463245
-6.1926503
3.4393461
-6.813852
-3.4826447
6.7343526
0.17619786
-6.7343526
0.1848385
1.5751373
-0.1095482
1.5751373
-1.0596528
1.0596528
-1.4272971
-0.038291981
-1.4272971
-2.0943809
0.32392708
-2.0943809
1.5103863
0.2600675
1.5103863
-5.1314569
-0.19089836
-5.1314569
-5.4487884
0.11837763
5.4487884
0.0086798897
1.4343232
-1.4343232
-0.93575306
0.030925552
-0.93575305
-4.8985067
-0.23295025
4.8985067
-0.18988366
-4.5793806
-0.12924248
-4.5793806
-1.3406778
-0.086619276
1.3406778
-0.067705403
1.2761084
-0.030865625
-1.2761084
0.0031359834
-3.049975
5.6122677
-3.396976
7.0417036
-6.1645608
-0.37572631
-6.1645608
6.8729938
-0.33270666
6.8729938
4.7048756
0.3120939
-4.7048756
0.3593299
3.834251
0.13308516
3.834251
-7.3953882
-0.033924756
-7.3953882
7.4429681
-0.013655116
7.4429681
3.7232257
0.11102522
-3.7232257
0.095616016
3.4894549
0.024737383
3.4894549
2.2735207
-0.20754733
2.2735207
-1.8753892
-0.19058417
-1.8753893
0.95960106
-0.95960106
0.91020997
0.049391079
-0.91020997
0.090786503
-11.148737
11.127274
-0.035759393
-11.112978
5.164331
5.164331
4.0231716
0.78851638
4.0231715
-5.0304824
0.19832768
-5.0304824
3.4970179
-6.9796626
3.8157691
-7.8397198
5.0555826
-17.576392
4.7098134
-9.2105984
7.308025
-7.308025
7.1997991
0.1082259
-7.1997991
0.1240648
-0.62371577
-0.085070355
-0.62371579
-3.4986401
-0.61872451
-3.49864
4.781322
-0.66395735
4.781322
-1.277867
1.277867
-1.306774
0.028906964
1.306774
0.062080977
3.4810152
0.0084397219
-3.4810152
-0.0025203472
0.58736343
0.13904377
-0.58736341
0.18201407
3.7832922
-0.45322274
3.7832922
-2.8592473
-0.47082209
-2.8592473
-0.48408505
-0.13963074
0.48408508
-0.16470452
-5.8177018
0.24714116
-5.8177017
-11.213441
0.10046253
-11.175808
-6.0921878
-6.0921878
2.3460753
11.146084
-1.718462
-0.15692723
1.718462
-0.14332471
1.2187156
0.059151364
-1.2187156
0.15906288
-0.99338333
0.033782272
0.99338333
0.066269423
-2.5125768
0.4181959
-2.5125768
-1.2467268
1.2467268
-1.3300322
0.083305393
1.3300322
0.18035415
1.734793
-0.30046988
1.734793
0.91890691
-0.045414823
-0.91890692
-0.016846136
-4.3917572
-0.18762338
-4.3917572
7.1300027
-0.25700891
7.1300027
-2.5475337
-0.31171366
2.5475337
-0.27401293
-0.035163997
11.162438
-5.129167
0.035339776
5.129167
-11.223184
11.258524
-3.0837146
0.57113776
3.0837147
0.93945682
5.2994098
0.27115075
-5.2994099
0.26892741
7.3863739
0.056594142
-7.3863739
0.078348919
-2.9918428
-0.50679721
-2.9918428
-5.5261143
-0.63844643
5.5261143
-0.74479236
-11.475143
-0.19721109
11.672354
-11.433144
6.0149128
0.13845485
-6.0149128
11.396979
-1.2706926
-0.16363056
1.2706926
-0.023965874
2.0769107
-0.34211772
2.0769107
4.1616342
-0.37834206
-4.1616342
-0.23012302
-7.2853908
-0.1099974
7.2853908
-0.15538817
-2.5119086
-0.4799342
2.5119085
-0.43499776
-5.3394355
5.2825806
2.8564421
-3.3318378
-3.4820141
-7.6271869
2.5387556
3.0735121
4.8062184
-11.022781
-6.5536117
-10.837942
7.2657547
-6.9968273
-9.4407597
9.3529048
10.631549
-10.760792
-7.2758442
7.3379252
8.7426988
-8.8104042
3.7977819
3.6740526
10.725097
-10.5097
-16.86675
16.491024
10.293993
-10.22355
17.030743
-17.064668
-19.257842
19.314436
-7.2271579
7.2509478
-9.4717525
9.2811683
-9.8423959
9.568383
-3.6557074
-4.1840124
14.217977
-14.052793
11.746252
-11.761097
-11.431524
11.744965
4.0475654
1.2350152
4.0166998
-3.6104422
7.4082241
-3.4347936
6.2912358
3.5742105
-7.2299179
3.4054521
-6.8874662
6.0231597
5.7230921
-5.958163
-1.6690239
-8.2292486
8.1197004
-7.381127
7.4473964
12.085019
-12.157468
-3.612341
7.2863937
-3.4293626
6.5028747
-3.677154
-3.5986902
3.5460306
1.2601878
8.7710111
5.4469657
-8.947209
-1.8907331
-11.231968
10.853626
-11.789085
11.318263
-0.43995305
5.786095
-5.346142
4.4233867
-1.4855239
7.2716189
5.780231
5.9785586
5.8661261
-5.5949753
1.1307012
-6.4768431
-6.3825898
-2.6229134
2.6538389
2.6045177
-2.4917028
8.107244
2.5243055
7.9173603
-7.6889269
-3.071865
-7.8765503
4.3748831
2.9630421
4.4037901
5.2631151
3.4795837
5.1764958
5.8455506
-5.9703791
0.12482851
-5.4803869
11.325938
1.3160145
-9.0790771
-7.8188893
6.8478308
3.877266
7.0106437
-7.3473265
-3.1623736
-6.9879965
-10.271143
-6.5956069
-10.90959
10.99286
5.4981633
10.660154
-12.912537
12.757149
6.7046601
3.5893332
6.7476344
-6.815007
-3.4085432
-6.719391
13.301871
-3.1586681
-10.143203
-11.140526
-8.1173161
11.154181
5.8765617
11.859854
7.4545826
11.938202
4.8596955
8.4421756
-10.736257
2.6189411
-4.4538343
-2.7733235
-4.3630478
4.3817181
2.8692297
4.4049704
-5.5488656
-3.9228868
-5.7057929
-5.6060977
-4.2362981
5.8136451
3.4675232
-5.8590487
-5.9300367
6.1707624
3.3976206
4.3851358
-10.938748
4.8254626
-9.009475
-9.9560623
-4.0967308
-9.8319976
4.5339702
3.1270813
-7.6610515
-2.6959477
11.252438
-5.5293458
9.5834139
-7.2422755
-4.5188219
-7.2447959
-8.9573121
-2.4742115
-8.8389345
-9.5544874
9.0476903
-9.9448366
9.2808793
14.052048
-6.9266544
-7.1253932
-4.8855096
-3.9248946
4.8823736
-0.86567381
-7.2011386
7.3259671
0.20708559
6.4983214
7.7333366
6.8676628
-4.4510618
-2.9300652
-4.291999
4.4563505
2.9910459
4.4901328
9.0424265
3.0425927
8.9797624
-8.6164572
-3.541011
-8.8073556
9.4899856
-9.1660585
2.7618289
-2.9014597
7.4430528
3.8752105
-6.98983
-4.2421383
9.4569941
-4.4448522
-5.012142
-12.070847
10.587363
1.4834847
-4.7992283
-0.3758416
-0.37248035
-5.5549998
-3.88576
5.4466783
0.53188036
11.119243
7.2334832
-5.5155799
5.7627211
6.1567741
6.2148441
-0.16774578
6.0316102
-5.4604724
7.0523699
-3.6194621
-3.4329079
7.0817836
-7.3147339
-1.725572
-7.826747
6.1011749
0.60262633
1.9463338
-1.5443457
-1.8706074
-0.75230594
-1.8874536
1.5459076
1.0586101
1.6849513
0.95407393
1.699765
-3.5300253
0.72633242
2.8036929
-2.5759514
-1.7653704
-5.1994864
-2.0038947
7.2033811
7.8493316
3.0042946
-7.6192086
-0.25734178
2.565912
-2.6615762
-0.75327982
-4.4462066
2.997068
-3.7503478
-5.9400674
-2.5104069
8.4504742
-3.6773917
-0.61460723
3.6182404
0.78554975
-4.8178908
-3.4113578
4.8561828
0.32031304
-5.4348061
11.059088
-5.6242821
-8.3648712
4.4784391
6.8474985
7.4414812
-9.1695704
4.8077237
4.3618467
-2.3220719
5.8787282
1.1319155
6.0118134
-9.2049827
6.0426091
7.7507347
3.9942301
-8.0628286
1.0748321
-8.1301506
10.77237
-9.3887504
-1.3836197
5.3738616
5.3985085
7.6461216
6.405926
-6.0494212
13.695543
-1.4272987
-7.9614517
9.5574493
-5.5632191
6.3396424
-11.902862
-12.745569
4.7841169
-9.9360357
11.98128
-2.0452441
-3.8582626
-9.0542741
13.794298
-1.3488709
-12.445427
9.311283
-5.5887624
-5.6266179
11.21538
-8.7474305
9.0351611
-2.6187104
-6.4164507
-10.8806
-6.1840674
10.990598
1.766551
-11.833914
14.452855
-3.3917383
5.8026022
0.94503225
5.8273395
4.2198161
-6.7992557
2.5794396
4.5276145
-7.1463248
2.6812992
-9.4805549
-7.1919826
13.264909
-6.0729262
-11.288713
-10.225582
-1.0631311
2.7837445
11.66911
-10.238327
8.0111515
2.2271755
3.6836005
0.8065323
-3.7329915
-0.63005634
0.50267477
6.8081864
-7.3108611
4.9076451
4.9315348
5.0448442
1.7633422
5.1611286
2.9585717
-5.0178039
-0.68798897
-6.5909607
2.3546625
-3.1234375
-6.5606715
8.915334
-7.2149025
0.65423105
-4.4239542
-6.1667314
10.590686
-7.1972777
5.2310468
5.8280414
8.2220927
-8.7938764
2.6271449
-4.38002
-4.4138564
4.5877576
-7.7111951
3.4319755
5.4833586
6.8295961
0.89955939
6.5193774
6.7455314
-9.6464586
0.6369836
12.192497
-10.301764
2.6543033
9.2838992
-10.665455
0.43987253
-9.392125
1.2605569
-6.7899026
-6.4004947
6.9061515
-9.380363
-4.9967102
8.1779431
0.80181927
-8.186623
-0.65231147
-6.5240858
-3.0304016
-7.0040199
-3.3035642
-6.6412724
-9.3529854
-1.7876935
-7.565292
7.2599969
-7.2402848
-3.6693048
7.9850772
1.2958022
-7.9895779
7.8259473
-8.052522
7.7104044
0.28775655
7.0382106
7.1554193
3.2305248
-4.7161387
7.9466634
-7.0716107
10.114203
-12.168012
5.0964008
5.9998651
-9.5408761
-6.1681465
5.4426634
4.0473222
5.7027309
9.3347619
-10.698181
1.3634192
-10.958176
12.581755
-1.6235788
-16.992703
6.0345264
-7.657941
2.582891
0.17893789
2.4978206
0.79786026
2.8944734
-3.6923337
-2.1035995
-2.268304
-3.7573429
-5.6524225
9.4097654
1.8280184
-5.3017895
3.4737711
-4.746944
6.5749624
0.058091476
-5.359881
7.1522965
-4.2578231
7.3312344
-4.6888525
2.6423819
5.199171
9.1172239
-3.9180529
6.8500687
-2.9748581
3.0444922
-6.9625451
-2.6079304
-4.9068657
7.7760954
-5.6838199
6.3380509
-0.4652342
6.8032851
-5.8340299
1.3891777
-0.78918571
4.1423491
4.1714188
7.0206285
-5.2572863
4.9540586
-7.9289167
-2.0084865
-7.0293573
-1.5459988
-0.39031654
-5.1739213
5.5642378
6.6878355
-7.078152
-5.2969006
9.6681179
-4.3712173
8.0131531
-5.4937789
-2.5193742
-4.5217445
-4.644314
4.1035486
1.9280616
9.9412147
0.27582858
-5.7696075
-5.1846438
-4.2451869
4.2594654
2.7929046
-2.1190295
3.6025142
2.4915098
-0.54517602
0.60175238
1.083199
2.1817886
-1.5800363
0.27913274
1.9026559
-1.265213
1.8856251
0.68028684
-1.8402103
-0.047243282
-1.4874033
4.4844713
1.3162895
-2.3748996
0.79486332
1.4017946
-5.0212567
7.3420642
-3.9476928
-3.3943714
8.7438588
1.536526
-5.4842188
6.290221
-5.6875946
3.3490572
-5.3529519
-2.1351616
-7.8227562
-5.2984507
-4.2154334
7.6892044
-5.194332
8.1986266
1.749137
-7.9412848
9.6904218
-4.8504144
2.3400075
-4.1341324
4.8144192
-1.7245479
-2.4095845
4.3117495
4.1387247
-4.3403278
-0.10587879
-0.028578283
3.1340936
-3.1626719
-0.61625424
-3.1922056
-7.6318074
7.9521204
-3.7944398
8.6021635
4.1522237
-3.6093992
12.211563
3.1794313
-6.7888304
-5.1854399
-5.8000472
-2.4269838
5.0144974
-0.82642133
-5.8929696
-7.242872
5.7819444
0.22986903
-9.199299
10.346113
-1.1468141
-5.3220329
-0.72057618
6.0944378
-7.8169333
0.67060841
-5.135634
5.2104791
6.3423946
6.5722636
-12.249345
-0.19608231
-6.7511817
1.3757489
-8.1269306
6.7742575
-3.8329003
8.6170172
-11.158445
7.48914
-9.8626426
7.2333975
-0.89353314
7.1648238
-4.5853841
2.9783791
-9.1624466
-7.3958956
7.242667
-3.6533338
8.1876993
-4.1703082
12.358007
-7.5620465
7.046802
5.3112054
-1.3805695
-5.8642264
-7.0183548
5.6377854
0.028447175
5.8557867
7.9811123
-5.0225406
7.2931233
4.3409586
-8.7209786
-3.3702365
-11.933544
3.2125654
-6.1055027
-3.2302759
6.4428413
4.9918168
5.7983491
2.0289849
-5.1682928
8.373254
-9.4363851
-2.3003277
-4.100167
6.9512911
-1.3135057
4.3574334
-8.4576005
-2.4324692
5.8328057
-0.6395372
-5.1932685
1.0938487
-6.0905588
2.4143081
-8.504867
6.9660548
-7.6183663
2.3412757
-9.9992167
-5.6483022
-5.6722681
-2.4200073
-5.6325147
-7.9274891
5.5074818
-1.8929627
5.9329845
-8.8629427
8.2234055
-3.7188126
9.2262944
-5.8681345
-1.1358854
6.3031322
1.4072722
10.633567
0.52808493
-6.6962315
-2.8673917
5.4481382
-2.5807465
1.3920738
-4.6458363
0.80230179
3.5246787
5.2191801
-9.6258536
0.084977513
-6.6112539
-4.1479831
8.1953053
5.5201349
12.20797
1.5097893
9.3293113
-1.1340061
10.839101
4.5687248
4.7490789
-4.2017935
5.5652128
1.3624443
6.4588452
-0.84797507
3.4903569
1.6498456
1.5808038
1.0807725
2.619223
1.5521958
4.0084007
0.31606696
-1.952237
4.6659194
-8.9111063
-1.1036883
-8.1225898
1.230315
5.8320544
-4.6017393
4.0620836
-1.269179
1.4813369
-0.19063231
-1.8010271
1.9916594
-3.6235404
-2.3462031
-0.4435472
-2.0783834
2.8732467
2.406088
-2.4296995
-1.1938409
0.68790207
-5.9863528
4.6650499
-4.7709287
-0.63220399
9.0582178
-3.6538163
0.49114447
-1.3138088
-2.7010612
-3.4533671
3.5006104
11.578633
0.63292921
5.9543514
8.5850496
5.1736919
0.15115132
4.9221702
-6.9674142
-4.5583847
-7.1634965
-0.38923906
5.7051988
2.2235248
9.4455856
7.5347302
6.2212245
-2.236376
-11.672761
8.4506124
-2.8853996
6.8270335
-1.6337651
-6.8711019
6.8131696
3.3010338
-7.6149889
-0.0033774231
-6.8744793
-9.759879
-0.47790856
8.701314
-10.155658
9.0197726
5.9893711
1.5759209
-4.8039467
-0.86832138
4.7206414
0.028437445
10.867538
-1.195709
-6.9567387
8.1524476
-4.6363455
3.5326572
0.91338017
2.6891341
2.9050398
1.6358608
-5.3208778
-9.9226172
-3.0552147
-1.966042
-6.4495861
0.75379498
-3.1598829
6.227751
-2.6950938
3.7083768
5.4573537
6.9386907
-1.9878714
-5.0902806
6.3590887
-2.6507118
4.2879788
)
;

boundaryField
{
    wall-4
    {
        type            calculated;
        value           uniform 0;
    }
    velocity-inlet-5
    {
        type            calculated;
        value           nonuniform List<scalar> 8(-1.7582594 -1.7582594 -7.3846893 -4.5714743 -7.3846893 -6.446951 -4.5714743 -6.446951);
    }
    velocity-inlet-6
    {
        type            calculated;
        value           uniform -5.6264299;
    }
    pressure-outlet-7
    {
        type            calculated;
        value           nonuniform List<scalar> 8(5.0589892 8.5212493 6.1742434 10.549075 8.5247356 6.9219909 7.312787 9.765396);
    }
    wall-8
    {
        type            calculated;
        value           uniform 0;
    }
    frontAndBackPlanes
    {
        type            empty;
        value           nonuniform List<scalar> 0();
    }
}


// ************************************************************************* //
