/*--------------------------------*- C++ -*----------------------------------*\
  =========                 |
  \\      /  F ield         | OpenFOAM: The Open Source CFD Toolbox
   \\    /   O peration     | Website:  https://openfoam.org
    \\  /    A nd           | Version:  9
     \\/     M anipulation  |
\*---------------------------------------------------------------------------*/
FoamFile
{
    format      ascii;
    class       volVectorField;
    location    "40";
    object      U;
}
// * * * * * * * * * * * * * * * * * * * * * * * * * * * * * * * * * * * * * //

dimensions      [0 1 -1 0 0 0 0];

internalField   nonuniform List<vector> 
918
(
(0.40889076 -0.00020551474 0)
(0.0090456889 2.9576278 0)
(-0.0059763191 1.3384347 0)
(0.29035583 -0.0084140617 0)
(-0.012478155 2.2656761 3.9216523e-20)
(-0.011743965 2.9485787 -3.378877e-18)
(0.91889424 1.4400718 7.7895499e-19)
(0.24844713 0.1527291 -2.7097529e-20)
(1.9883354 0.0039332459 0)
(0.019424947 1.1682601 0)
(0.0043640388 0.96889298 0)
(0.14782594 -0.0040902482 0)
(0.01283557 2.9163572 0)
(0.013676125 2.7912013 0)
(0.098464902 3.1635711 3.1900608e-19)
(-0.0094113516 2.1270417 1.2361943e-20)
(0.16913772 0.034398807 1.6810044e-18)
(0.19574764 1.5654268 5.8742312e-19)
(0.37390561 0.0063366339 0)
(-0.0083987815 0.9385961 0)
(-0.042258576 0.14498131 -1.3315263e-18)
(1.0478789 -0.021700859 0)
(0.54376618 -0.027713855 0)
(0.24782804 -0.0067039476 0)
(0.18975764 0.009711981 0)
(0.021456925 2.6227068 0)
(-0.0099848986 2.9058178 1.2433485e-18)
(-0.018737308 1.3950485 0)
(-0.033684539 1.6480781 0)
(-0.014666341 1.3688292 0)
(-0.0090477626 2.8152474 0)
(-0.0040097089 2.3215228 -3.0830564e-20)
(-0.0060141385 2.106458 0)
(-0.018162213 2.9813193 -1.2580276e-22)
(-0.018376439 3.0070219 2.6233199e-18)
(0.00085860417 3.0015931 0)
(0.29172299 -0.0029495347 0)
(0.43384725 0.90930436 3.455912e-19)
(1.0314025 1.4674126 -9.5842803e-19)
(1.0574392 1.295932 9.7610085e-19)
(0.86730801 1.6049888 -1.7936352e-19)
(0.7533623 1.5584627 1.0233665e-18)
(0.33468626 0.18892625 2.6406175e-20)
(0.2581322 0.12283659 0)
(1.2757142 0.74157143 0)
(0.2967353 0.19599085 1.2119257e-19)
(0.22680883 0.15716619 -1.2602825e-19)
(0.25061228 -0.013676691 0)
(1.9896433 0.00094744587 0)
(1.9887291 -0.0018662996 0)
(1.3548331 0.0020011688 0)
(1.8676253 0.005807886 0)
(1.7381162 0.0033528211 0)
(0.025796513 2.0205773 -8.4646383e-19)
(0.036304936 1.3958934 0)
(0.038962944 1.2465085 0)
(0.022867776 1.3606125 0)
(0.015865078 1.1000736 0)
(-0.0012633666 2.2195255 0)
(0.014414209 1.2238905 0)
(0.013594884 0.99680189 0)
(0.0041752627 1.2235161 0)
(0.0012510758 0.94220746 0)
(0.48764989 0.024232254 0)
(0.3443742 -0.00011471144 0)
(0.15212968 0.014154498 0)
(0.33726954 -0.0036395647 0)
(0.14942675 0.0026461077 0)
(0.016738602 3.0145162 1.2934925e-18)
(0.012390168 3.0113864 0)
(0.007727184 3.0035747 0)
(0.013324002 3.0004912 1.3780121e-23)
(0.01055622 2.9476303 -1.8473382e-18)
(0.016838726 2.9848947 0)
(0.013432715 2.8938528 0)
(0.017562186 2.9241232 2.9689739e-24)
(0.01382898 2.8182941 0)
(0.017351828 2.9108109 0)
(0.010948136 2.7549575 0)
(0.24720384 3.61615 0)
(0.17592748 3.5519234 0)
(0.13113938 3.2973294 -2.9827233e-19)
(0.047806207 2.9920058 0)
(-0.018863692 2.2738847 0)
(-0.014051335 2.3458357 -1.2184056e-20)
(-0.0091859251 2.1481844 -6.0860136e-21)
(0.32987136 0.06741583 -5.7628151e-19)
(0.14549348 0.0149191 -5.4719392e-19)
(0.35750228 0.076507527 -1.7641571e-18)
(0.20652999 0.049548263 -1.1809466e-18)
(0.17847201 1.1516883 0)
(0.30400563 1.7033951 -6.4463067e-19)
(0.382405 1.6475357 1.0737531e-18)
(0.54106284 0.040074124 0)
(0.3225958 0.029157374 0)
(1.2189802 -0.0013463702 0)
(0.73696162 -0.035216506 0)
(0.6466288 0.017153998 -3.0028821e-18)
(0.64935348 -0.025903895 2.3531287e-18)
(-0.0029718451 1.1995943 0)
(0.002133413 0.94749368 0)
(-0.040852544 1.4256305 0)
(-0.019116757 1.2384323 0)
(-0.013742396 0.93769232 0)
(-0.010180149 0.21804108 4.0538819e-19)
(0.13077467 0.12323197 0)
(0.50616738 0.02018505 0)
(0.2462714 0.014153802 0)
(0.31102871 -0.00037579139 0)
(0.27348678 -0.011712736 0)
(0.16966896 0.0099277343 0)
(0.91170162 0.053647441 0)
(0.21613414 0.029658389 0)
(0.032835355 -0.012763569 2.1677582e-18)
(0.0013346514 2.8586596 1.0911158e-18)
(0.020608026 2.9005928 0)
(0.033629646 2.8777928 0)
(0.015136547 2.705606 0)
(-0.010501786 2.9856905 1.2014662e-18)
(-0.0091541808 2.890564 0)
(-0.011788276 2.9907381 -3.6901793e-18)
(-0.0096008641 2.9158309 1.2623969e-18)
(-0.017463573 1.8375199 0)
(-0.004997327 1.8467117 0)
(-0.0075145662 2.3326816 7.8057838e-23)
(-0.0073389532 2.3017248 0)
(-0.0085437726 2.1066993 0)
(0.62926751 0.02008604 0)
(0.31521333 0.012714473 0)
(0.22747353 0.02834987 0)
(0.60157186 0.0022772557 0)
(0.28709308 0.015101853 0)
(0.51965532 1.087339 -4.2383446e-19)
(0.55168818 1.1222031 0)
(0.41449993 0.89850871 5.5119442e-20)
(0.32123032 0.68460511 0)
(1.1546601 1.3058364 -2.7968883e-19)
(1.1423744 1.1074339 5.4474996e-19)
(0.49577932 1.7385299 0)
(0.68932437 1.7027952 0)
(0.57496716 1.63291 0)
(0.15363243 0.26721742 -4.4045094e-19)
(0.35725326 0.1595483 0)
(0.24863193 0.10693973 3.3997348e-19)
(1.2536218 1.1219217 0)
(1.3317784 0.92746808 0)
(1.2136341 0.92168974 -4.4482549e-19)
(1.3943449 0.73385934 0)
(1.3204129 0.57041563 6.1005919e-20)
(0.57865407 0.022243544 0)
(0.54277694 0.012555471 0)
(0.26328852 0.010376445 0)
(0.52539481 0.0082181608 0)
(0.5341343 -0.01369358 0)
(0.25666568 0.0074387629 0)
(1.4985247 -0.0015211224 0)
(1.8698389 -0.0014632304 0)
(1.7318211 0.00062863196 0)
(0.040098717 2.2478233 4.5935755e-19)
(0.050115487 1.9460121 0)
(0.032175476 2.3361137 7.3984687e-19)
(0.019593717 2.0807348 -6.1789415e-19)
(0.1382375 1.5816165 -4.8335014e-19)
(0.060858265 1.463173 0)
(0.080422293 1.3941946 0)
(0.020986438 1.3225333 0)
(0.014497147 1.0565182 0)
(-0.0038457176 2.4063574 -9.7778313e-22)
(0.0023173904 2.2158681 0)
(0.0025219159 2.4100705 -5.0627967e-20)
(-0.00072486526 2.2214398 8.517501e-20)
(0.019823858 1.287215 0)
(0.018697339 1.2531111 0)
(0.01464524 1.022223 0)
(0.0017529548 1.2166973 0)
(0.000303517 0.93595486 0)
(0.81734072 0.045679395 0)
(0.55033878 0.025263327 0)
(0.75669623 0.039368336 0)
(0.4182334 0.012892822 0)
(0.18810401 -0.0043094145 0)
(0.39334403 0.010078208 0)
(0.36885963 0.027838141 0)
(0.17812911 0.0013965583 0)
(0.0036797988 3.0720309 -1.1088937e-20)
(0.010776888 3.0616113 0)
(0.016162227 2.9688167 0)
(0.013249197 2.8677454 0)
(0.72459287 4.1955063 0)
(1.2206509 3.2655881 8.6164914e-19)
(0.069480961 3.1252354 0)
(0.02858633 2.8997916 0)
(-0.010715771 1.8448483 0)
(-0.016814425 2.0804566 0)
(-0.015369874 1.9452805 0)
(-0.020918858 2.7562479 -1.0332686e-20)
(-0.014243115 2.4598119 0)
(-0.018254097 2.6066288 0)
(-0.0025669559 2.1688243 3.2460494e-21)
(-0.0063162726 2.3926345 1.5184069e-20)
(-0.0079755704 2.3723276 6.1715315e-21)
(-0.0058629477 2.1539345 0)
(0.3243143 0.032183636 8.3182369e-19)
(0.11440333 -0.0054834166 -8.2527683e-19)
(0.30481151 1.6997879 0)
(0.20576145 0.93077961 -3.7724694e-19)
(0.22563097 1.8409197 -1.1744475e-18)
(0.13741779 1.3933964 1.1784027e-18)
(0.28969124 -0.0013084684 0)
(0.50391452 0.0013461212 0)
(0.50722048 0.018713097 0)
(0.29894833 0.0068739529 0)
(0.0003959895 1.2092073 0)
(0.00054167669 1.2002237 0)
(0.0017225191 0.93884984 0)
(0.25271385 0.19702115 1.1235614e-18)
(0.18615264 0.19055069 -1.3328406e-18)
(0.18704631 0.15566849 0)
(1.2212592 0.1387108 2.7601098e-20)
(1.1150479 0.11596794 0)
(1.0742141 0.094128949 0)
(0.74488322 0.03564106 0)
(0.29912279 -0.0052879333 0)
(0.25051703 -0.028783882 -3.5028721e-18)
(0.063655958 -0.012097179 1.3457273e-18)
(0.0022992851 2.9841581 1.0892523e-18)
(-0.0037157931 2.8641506 4.5248934e-20)
(0.0038347837 3.0539802 -2.3199412e-20)
(0.012750234 3.0472289 8.3527328e-19)
(-0.0094003869 2.9952549 4.1014039e-20)
(-0.0083918097 2.9361636 -1.6463194e-22)
(-0.013161771 3.020164 -7.7260075e-19)
(0.0012130982 3.0231342 5.5686943e-19)
(0.0066732876 3.0398424 -8.3587426e-19)
(0.72015498 0.031250546 0)
(0.67998214 0.03246788 0)
(0.35638234 0.016943117 0)
(0.48508986 0.013959319 0)
(0.45125953 0.044282262 0)
(0.28047038 0.0062964132 0)
(0.40764859 -0.0012097913 0)
(0.41134079 0.015733988 0)
(0.20185191 0.0031988574 0)
(0.70308774 1.3681389 -1.526093e-19)
(0.76929803 1.4479633 0)
(0.1677298 0.35826967 1.0784011e-19)
(0.34049075 0.7756396 8.2395115e-19)
(0.3602969 0.80287041 -4.8383978e-19)
(0.23099909 0.48806544 9.4363185e-19)
(0.41964682 0.97177592 2.2411168e-18)
(0.16900196 0.34720366 4.9418367e-19)
(0.36577775 0.10949053 1.2490297e-18)
(0.36730739 0.14169106 3.317511e-19)
(0.23357642 0.074476751 6.3097251e-19)
(1.4259953 0.5531555 1.9949041e-19)
(1.3082637 0.39573388 1.6485841e-19)
(0.022544446 2.3907604 2.7782961e-19)
(0.010390141 2.1519009 0)
(0.96873234 0.065021651 0)
(0.88479716 0.054805024 0)
(0.64527279 0.03149672 0)
(0.0099911788 3.0770103 0)
(0.016944795 2.938796 1.6301593e-18)
(0.016529203 2.9537308 0)
(0.0134952 2.8434165 -1.6272707e-18)
(0.0094266282 3.0917796 3.7337525e-19)
(0.0036743525 3.0888062 0)
(0.85846173 1.7338675 -8.4597336e-20)
(1.120285 2.338618 2.3228434e-20)
(0.83719699 1.8490472 -7.7148406e-19)
(0.013705342 2.996078 -1.0006834e-18)
(0.034313886 3.0338037 0)
(0.01179881 2.8701584 0)
(-0.0085865312 2.3934468 -2.3493001e-20)
(-0.0034457952 2.4006663 -2.9116681e-20)
(-0.0011709508 2.2039991 -6.1697152e-22)
(0.34359775 1.5374699 1.1916798e-18)
(0.21041807 0.74879228 -8.1790801e-19)
(0.088072951 2.159473 8.2213791e-19)
(0.1666975 2.0208898 -1.0099758e-18)
(0.082493802 1.6817866 1.237393e-19)
(0.013614472 3.1144953 -2.4718474e-18)
(0.016392661 3.1195882 2.7982207e-18)
(-0.0087888139 2.9801215 1.1494984e-18)
(-0.0056206104 2.976931 -1.1296971e-18)
(-0.0077124264 2.8757291 -1.1710078e-18)
(0.0044482411 3.1055176 -2.9044318e-18)
(0.0093156094 3.1049429 2.8840343e-18)
(0.38001674 0.84360377 0)
(0.33737607 0.78565913 -1.8289946e-18)
(0.13864147 0.29172735 8.119172e-19)
(0.41370546 1.0907523 1.4169866e-18)
(0.19170914 0.43670726 -2.2016789e-18)
(1.3570368 0.22498596 4.9223824e-20)
(1.4184676 0.37952211 0)
(1.2595864 0.23732963 2.6841634e-20)
(0.0075625095 2.4148411 -1.908471e-21)
(0.0075152858 2.4027547 0)
(0.0044814191 2.1888268 0)
(0.39181871 1.4019656 -4.300636e-19)
(0.42169192 1.2582509 -9.6520346e-19)
(0.20033997 0.57323546 1.7415215e-18)
(1.1919164 0.0070704564 0)
(1.3371973 0.0028992292 4.7784407e-19)
(-0.022671106 1.8058516 0)
(-0.036724475 1.8320639 0)
(1.512551 0.00014208738 4.4126703e-21)
(1.099292 0.015562277 1.0727602e-18)
(-0.017898173 2.7607866 1.3399334e-20)
(-0.017315014 2.8022606 0)
(0.059132369 3.1755375 8.0725343e-19)
(0.5269282 3.5356087 0)
(1.564092 0.89884712 -4.7276156e-20)
(1.2715528 0.013269885 2.3305101e-20)
(1.3738255 0.026318047 0)
(1.9988639 0.0098777471 9.6709297e-21)
(0.087903615 1.8489274 0)
(0.1193158 2.764424 0)
(0.023451282 1.7958729 0)
(0.0018883441 2.825528 4.7026494e-20)
(-0.018703572 2.7707117 2.5053514e-20)
(1.2586497 0.02035242 2.1417242e-20)
(1.4637041 0.066304886 0)
(1.5216696 0.10152779 0)
(-0.016946807 2.0998924 0)
(-0.011064546 2.792491 0)
(-0.0067147668 1.7948413 0)
(0.31914052 1.9649501 -3.0398757e-19)
(1.2994381 0.01117276 0)
(1.0940116 0.0097731816 0)
(1.9713302 0.012899358 6.2544755e-19)
(1.6584852 0.017158082 -7.1477781e-19)
(1.9059101 0.011517807 0)
(-0.012119531 1.9192053 0)
(-0.015631949 1.8207039 0)
(-0.012249987 1.8698992 0)
(-0.0097895295 1.787914 0)
(-0.011571682 1.7703948 0)
(-0.016362111 1.7783444 0)
(1.4187463 0.043683565 0)
(1.2869486 0.023233229 2.1405213e-20)
(1.042994 1.7024237 4.6752078e-19)
(1.9565535 0.0033989952 -6.3822559e-19)
(1.7066083 -0.003200979 7.6609155e-19)
(1.8969988 -0.0048744039 0)
(1.3033133 0.0053838595 6.3941585e-19)
(1.1785817 0.0026767798 -7.9919526e-19)
(0.92350115 0.020828442 0)
(-0.015861145 2.8310238 0)
(-0.01929965 2.8063813 -6.8104627e-21)
(-0.016074038 2.8244717 2.9604596e-21)
(1.6926009 0.38151858 6.2736422e-19)
(1.6314911 0.17833395 0)
(0.072351586 3.055744 -1.4798315e-18)
(0.041888846 2.8523566 -1.0312975e-19)
(0.17549716 3.1785445 2.2599246e-18)
(0.16203016 3.24144 -3.6216264e-19)
(0.1592983 3.2830853 0)
(0.030319882 3.134063 4.224692e-19)
(0.08151219 3.1732672 1.4546287e-18)
(0.077893986 3.1980861 -7.8639168e-19)
(0.047434247 3.1096761 0)
(0.6626103 0.29246652 0)
(0.60456521 0.36802864 0)
(1.5357581 0.97533795 7.7077653e-20)
(1.4708934 1.1087692 -2.0431431e-20)
(1.6359653 0.79245514 0)
(1.6270033 0.71836561 0)
(1.2716645 0.020970512 -1.2806786e-18)
(1.0810764 0.016506329 1.6424877e-18)
(1.3973959 0.023608765 0)
(1.2343 0.022400419 0)
(2.0040424 0.017558253 0)
(1.8767461 0.0084397293 0)
(1.9364949 0.011797746 0)
(1.7261818 -0.0014060679 0)
(1.6652124 0.0015075468 0)
(1.7973275 0.0012007027 0)
(0.077096308 1.8389745 0)
(0.060603869 1.8275958 0)
(0.11298455 1.8759805 0)
(0.12240013 1.8911635 0)
(0.14042181 2.7928261 0)
(0.18111903 2.8693857 -5.0021439e-19)
(0.09622065 2.8639504 0)
(0.078387628 2.8758479 2.2218372e-19)
(0.026182644 2.8891593 -1.9452614e-19)
(0.020790549 1.8018523 0)
(0.017901999 1.7689262 0)
(0.026364994 1.8062774 0)
(0.030842517 1.7808658 0)
(0.00058470955 2.2698405 -8.7755846e-21)
(-0.018235316 2.8190708 -2.2737011e-20)
(-0.0037124476 2.8696937 4.4042186e-20)
(-0.0073609514 2.9012477 0)
(-0.016890935 2.8238122 -6.352733e-20)
(-0.015326429 2.8198899 -1.0516728e-20)
(0.0030946269 2.2643651 1.1487782e-20)
(-0.01446678 2.5863308 3.0024465e-20)
(-0.021062395 2.6246195 -5.5957109e-20)
(1.2984613 0.018944014 1.3800674e-18)
(1.0608473 0.01639019 -1.7214183e-18)
(1.2418512 0.024625795 -1.478502e-18)
(1.1213461 0.019701564 1.9546828e-18)
(1.4968824 0.06040266 0)
(1.3528503 0.054067539 0)
(1.544601 0.093266558 0)
(1.5067355 0.070671618 0)
(1.3532871 0.065675561 0)
(1.6355972 0.16375873 0)
(1.5639734 0.11298183 0)
(1.4360515 0.10151057 0)
(-0.015957567 2.6288526 4.3341301e-22)
(-0.014094085 2.2853227 0)
(-0.015116782 2.4560573 0)
(-0.010328646 2.8193841 9.1896143e-22)
(-0.010561522 2.8299861 -1.3434427e-22)
(-0.0036770981 2.0006165 -1.8166232e-20)
(-0.011689448 1.9438382 1.8313236e-20)
(-0.015415355 1.8438758 0)
(-0.017822208 1.8504254 0)
(-0.017611543 1.8483604 0)
(-0.0049253189 1.7954471 0)
(-0.0022724893 1.7606812 0)
(0.4660979 1.9800762 5.1854112e-19)
(0.48650003 1.9809122 2.6204985e-19)
(0.59230431 2.645129 -2.7417391e-19)
(0.38162463 2.7761231 7.1813083e-19)
(0.4174201 2.2722269 9.6469822e-20)
(1.4087886 0.02524359 0)
(1.3355519 0.024624521 0)
(1.1454897 0.015832489 0)
(1.981965 0.020730343 0)
(1.9615327 0.015067419 0)
(1.7256084 0.020541598 0)
(1.6340054 0.019148972 0)
(1.6486972 0.023862206 0)
(1.3310859 0.019694654 1.2357434e-18)
(1.0234495 0.03311996 -1.569562e-18)
(1.2884471 0.029155105 -1.3067761e-18)
(1.1115351 0.021951555 1.688631e-18)
(1.0007477 1.742112 0)
(0.87454308 1.8412552 4.7127391e-19)
(1.1605754 1.6189444 2.2144481e-19)
(1.1971849 1.569011 -2.9502969e-19)
(1.2722353 2.6937659 8.918368e-19)
(0.79273881 0.070990409 8.8884965e-19)
(1.6469014 0.20167103 0)
(1.6990132 0.29773462 -4.8583673e-19)
(1.6078892 0.24338544 -1.931812e-20)
(1.5412431 0.17722472 0)
(0.20883775 2.9258009 1.0172731e-18)
(0.096077648 2.8160646 -2.144771e-18)
(0.024350167 2.3905074 1.3335877e-18)
(0.076402563 -0.17863846 -6.3759562e-19)
(0.36115163 3.4539154 1.6852144e-20)
(0.2317506 3.3641997 0)
(0.24528696 3.4220834 -2.3731139e-20)
(0.25697036 3.081965 -2.4918115e-18)
(0.38921253 3.170053 0)
(0.013312681 3.1196728 7.6150487e-20)
(0.016378665 3.1323815 -8.1144314e-19)
(0.030558078 3.118354 1.2612315e-18)
(0.036764905 3.1484188 0)
(0.034289535 3.1557547 0)
(1.3486974 2.7845263 0)
(0.78053104 1.0182173 -9.0347637e-19)
(1.36133 1.3254942 -6.4445911e-20)
(1.2936977 1.4302848 0)
(1.2091813 1.3712342 -1.645632e-19)
(1.4306809 1.2052178 3.8740551e-20)
(0.35069069 0.42657724 -1.5352218e-18)
(0.74080025 0.30175097 -2.3383108e-20)
(0.61012948 0.20631618 7.197422e-19)
(0.63241758 0.41573368 5.2466494e-20)
(0.51278795 0.36270376 -2.1461625e-18)
(0.70466025 0.33232455 0)
(0.87330239 0.47595279 1.2001478e-18)
(0.87313438 0.44287493 0)
(0.68053934 0.37757344 0)
(0.57319952 0.28414817 0)
(1.2354925 0.85803539 7.0801241e-19)
(1.7030019 0.41813921 -5.6604422e-19)
(1.6891167 0.59316395 0)
(1.6702408 0.52026744 0)
(0.72792067 0.16346151 1.0356372e-18)
(1.2386339 0.72641243 -6.71733e-19)
(1.015891 0.63569358 1.2133493e-18)
(1.4591314 0.56331436 -1.2048289e-18)
(1.2493576 0.015547571 8.4521941e-19)
(1.2301954 0.017458061 -8.7857431e-19)
(0.98835984 0.015597845 0)
(1.448417 0.042720203 0)
(1.3895449 0.032306714 -7.4728114e-19)
(1.2015333 0.022536135 7.3828098e-19)
(1.8306253 0.029095011 0)
(1.7033159 0.016182773 0)
(1.9103127 0.0084323429 0)
(1.6733012 0.014484003 0)
(1.9572207 0.023171478 0)
(1.9415572 0.019944247 0)
(0.053585724 1.8254239 0)
(0.046953506 1.8031014 0)
(0.15115684 1.8352209 2.145225e-20)
(0.29782801 1.9516992 1.5849048e-19)
(0.17096853 1.930091 3.5091756e-19)
(0.19813842 1.9454954 -5.6609991e-19)
(0.18969955 1.8684489 0)
(0.16916329 2.0110161 -7.3305475e-20)
(0.14698609 1.9956315 0)
(0.38523071 2.233125 -1.3363215e-19)
(0.36359974 2.5210866 6.7289128e-19)
(0.22878828 1.9518982 6.5713917e-20)
(0.29837438 1.8882537 6.1456065e-20)
(0.23799995 1.8704884 -5.0058695e-20)
(0.34677547 1.8532807 -1.0114504e-19)
(0.27665132 2.0013543 0)
(0.32983455 2.0154178 1.1167071e-19)
(0.034791726 2.4918043 -4.0318674e-20)
(0.031765211 2.8821943 0)
(0.061684159 2.5966325 1.648539e-19)
(0.052319971 2.6018629 0)
(0.056631116 2.8965649 -2.4710562e-19)
(0.043171622 2.934258 0)
(0.021699517 1.8670706 1.604828e-20)
(0.02311482 1.9132967 0)
(0.030734861 1.8417696 0)
(0.024675751 1.8336726 -1.8204057e-20)
(0.004119472 2.857617 -2.2756788e-21)
(0.013489963 2.8928939 2.2486068e-19)
(0.0073025434 2.9274839 1.5729208e-21)
(0.0040860227 2.16314 8.1372911e-21)
(-0.00041627819 2.0703187 7.9125012e-22)
(0.015909072 1.7909535 0)
(0.011506718 1.7561361 0)
(0.038585675 1.9927122 2.4356057e-20)
(0.030232479 1.8791637 -1.0144461e-20)
(0.031739549 1.9433408 2.8136352e-21)
(0.045289984 2.0109064 0)
(-0.029038686 2.4830248 2.4047346e-20)
(-0.025315767 2.7266129 5.7292741e-21)
(-0.024919277 2.6452803 -4.0547811e-21)
(0.0020136537 2.1656907 -9.628867e-21)
(-0.021694169 2.6731047 -6.4567751e-21)
(-0.02271933 2.6449175 5.0077709e-20)
(1.2418605 0.020791484 -9.0753577e-19)
(1.2502156 0.012784963 9.1517321e-19)
(1.0179506 0.014448585 0)
(1.5126183 0.080841196 1.4736637e-18)
(1.1837367 0.024276579 -1.6280328e-18)
(1.1260032 0.017845565 1.8450908e-18)
(1.5370168 0.11336292 -2.0101146e-19)
(1.4379587 0.043855436 0)
(1.4517071 0.051400435 7.4967375e-19)
(1.3239492 0.04337838 -7.4349108e-19)
(1.7159809 0.10775436 -4.5956404e-20)
(1.6866652 0.087771082 3.9575514e-19)
(1.8141522 0.11318584 0)
(1.8724167 0.10893866 -1.5403983e-19)
(1.7472164 0.054248993 0)
(1.620072 0.038254004 0)
(1.8595085 0.029286902 0)
(1.6634298 0.026327343 0)
(1.8737723 0.067399232 3.0618775e-19)
(1.8561102 0.048994586 -6.4688259e-19)
(1.8598527 0.093932516 -3.0975997e-19)
(1.8622136 0.088242107 -3.6033909e-19)
(1.8381924 0.13543897 7.1289799e-19)
(1.7056604 0.13207686 0)
(1.7531413 0.18056795 0)
(-0.022553495 2.479984 4.6160794e-20)
(-0.014662392 2.2957076 -3.3025751e-22)
(-0.015306057 2.2892493 0)
(-0.023392936 2.6667922 -4.7429807e-20)
(-0.017169639 2.6288932 -9.4438843e-23)
(-0.020748109 2.659837 3.1410149e-21)
(-0.016939322 2.8353885 1.052869e-20)
(-0.013859796 2.7519065 -2.4256359e-21)
(-0.01705484 2.7184515 1.3564476e-21)
(-0.0098604337 2.8278608 -8.0506095e-21)
(-0.016813021 2.8292874 1.1483233e-20)
(-0.0077590522 1.9172483 -2.2273069e-21)
(0.0047166303 2.0235773 -1.1705109e-20)
(0.48439203 1.9490908 -2.240656e-19)
(0.45239468 1.8875282 5.5593576e-20)
(0.83656886 1.8823083 -4.5724481e-19)
(0.65316871 1.964583 -2.5288486e-19)
(0.68807886 1.9394141 0)
(0.64237096 2.6065024 2.5284194e-19)
(0.69759031 2.6226237 4.0039184e-19)
(0.44795114 2.7062714 1.1283525e-19)
(0.45808826 2.7095659 -6.9507564e-19)
(0.54545277 2.6394553 6.8129026e-19)
(0.55386862 2.6621216 0)
(0.48510658 2.7208753 -6.3724617e-19)
(0.22757525 2.7924726 1.2780211e-18)
(0.334723 2.7768404 -5.0660953e-20)
(0.26969734 2.8667042 -1.7493851e-18)
(1.0217632 2.540331 1.0587051e-18)
(0.89133149 2.5603005 0)
(1.9560951 0.027627939 2.4526461e-20)
(1.6624233 0.025909927 -2.0973338e-20)
(1.6827488 0.025715593 -3.6836084e-19)
(1.8832923 0.032958964 3.6919192e-19)
(1.9911176 0.034199533 0)
(0.93209043 1.7553589 0)
(0.94437579 1.6684171 0)
(1.1224863 1.5614757 0)
(0.97632762 1.5703277 0)
(1.2787047 2.7264729 2.2625108e-21)
(1.1923994 2.5605197 0)
(0.93956709 2.2467697 6.5982653e-21)
(0.88241668 2.5268449 0)
(0.99597073 2.5939873 -5.4952897e-19)
(1.0247543 2.5808306 3.7540268e-19)
(0.80309714 0.11027647 0)
(0.75879001 0.11290602 2.4767818e-19)
(1.0780392 0.12030484 1.357199e-18)
(0.8428171 0.072656761 -5.3670232e-19)
(0.79067545 0.018255958 -1.5712522e-18)
(1.7329053 0.34844555 -1.1531043e-18)
(1.5741585 0.42056052 -2.9789093e-20)
(1.2792216 0.33321351 1.3872243e-18)
(1.544497 0.30035091 1.1175801e-18)
(1.300812 0.17493029 -1.8222706e-18)
(1.2416176 0.18948917 2.3193375e-19)
(1.2803134 0.26068536 -5.155261e-19)
(1.2748743 0.23007683 0)
(1.5375764 0.21910892 8.9394289e-19)
(1.6689162 0.26085091 0)
(1.6634152 0.31153405 0)
(1.7250522 0.22101982 3.5111866e-19)
(1.7961278 0.27233469 -2.3008393e-20)
(1.7635757 0.34821541 -2.0312062e-19)
(1.7374012 0.31484558 0)
(1.5690427 0.043286419 7.5239164e-19)
(1.828605 0.092154471 9.0994403e-19)
(1.7786603 0.065225774 -7.1501598e-19)
(1.7748312 0.11073791 -6.2027821e-19)
(1.5596666 0.077994715 -1.0568061e-18)
(1.4111554 0.13868424 0)
(1.435083 0.12641143 0)
(1.1361684 0.03943527 -6.6894327e-19)
(1.0275471 0.035865339 2.7443159e-19)
(1.6963454 0.14035017 9.1694007e-19)
(1.8155064 0.21045566 -1.0351864e-18)
(1.7864178 0.22445054 9.5025434e-19)
(1.7197758 0.20572855 0)
(1.8086204 0.17563969 0)
(1.838492 0.15567173 -4.0406453e-19)
(1.8020003 0.14437644 -7.472068e-19)
(0.75899876 1.4815062 2.6819511e-19)
(0.82228532 1.8010959 -2.9680756e-19)
(1.1792267 2.750645 -3.37518e-19)
(1.2951473 3.1073584 6.6971281e-20)
(1.3403375 2.8051046 -6.9691861e-19)
(1.3911994 2.8704337 1.0552196e-19)
(1.2646393 2.5492546 2.44035e-20)
(1.3283226 3.0312447 -2.5807069e-19)
(1.3375983 3.0509166 4.8320279e-19)
(1.3111951 3.3148991 -4.0917819e-20)
(1.4259934 3.0831891 4.2227581e-20)
(1.440573 3.0119629 0)
(0.78491006 1.0994585 -8.2953608e-20)
(0.2167395 1.3115001 8.8847519e-19)
(0.66150324 0.59840162 1.0197825e-18)
(0.43683158 0.17858035 1.1427092e-18)
(0.557045 0.42328685 1.2088776e-18)
(0.66359975 0.54442848 -1.997949e-18)
(0.65042489 0.54592917 1.6220561e-18)
(0.54884313 0.45105888 -6.1536835e-19)
(0.40042677 0.34261571 1.3970453e-18)
(0.76821048 0.21452392 -5.8663189e-19)
(0.73268168 0.24219988 0)
(0.62470126 0.18366625 1.0843411e-20)
(0.94282328 0.6213028 6.4173186e-19)
(0.8762557 0.5474714 -2.3407634e-18)
(0.72017837 0.5425189 1.624234e-20)
(0.73681609 0.51580974 0)
(0.95880048 1.0246358 7.0950357e-19)
(1.2522909 1.1108339 6.2126247e-19)
(1.1504787 1.2303674 -7.1566973e-19)
(1.3135591 1.1441603 -2.4185209e-19)
(1.3619886 1.2071504 -5.0073204e-20)
(1.3452189 1.2044391 5.0535377e-20)
(1.339632 0.92238421 -1.1631118e-18)
(1.3756418 1.0299492 2.2704801e-19)
(1.4616317 1.0344192 0)
(1.4891294 0.98296981 -2.8836553e-19)
(1.6274623 0.4545651 3.3303893e-19)
(1.7297448 0.45023452 3.5413323e-19)
(1.7279475 0.41613166 4.9040759e-19)
(1.6128961 0.54626855 -6.7401089e-19)
(1.6294654 0.60990516 0)
(1.660591 0.58459339 0)
(1.2583633 0.46326676 2.5821828e-20)
(1.0867346 0.31612283 0)
(1.1564906 0.29537519 6.738202e-19)
(1.2618548 0.34371714 -1.7314885e-20)
(1.455675 0.61106975 3.1247472e-18)
(1.364303 0.71038562 8.7691624e-19)
(1.3313389 0.61387865 -9.9317136e-19)
(1.1005719 0.5410236 1.0828611e-18)
(1.0479772 0.53469587 6.4262187e-19)
(0.97272143 0.47052231 -6.3053098e-19)
(1.6808978 0.040435137 6.221003e-19)
(1.9520186 0.037770211 0)
(1.9186593 0.043908345 4.2310955e-19)
(1.6996079 0.040158635 -9.454083e-19)
(1.9360236 0.036146429 4.7059481e-19)
(1.8748269 0.019747928 -9.9947895e-19)
(1.6909505 0.020214565 0)
(1.5755634 0.024146743 -2.0892693e-19)
(1.8405702 0.017527665 5.2084514e-19)
(1.6673187 0.019027397 -2.6936179e-19)
(1.6046996 0.024697934 1.9725531e-19)
(0.033050521 1.80549 0)
(0.033949188 1.8186539 0)
(0.040949474 1.8096316 0)
(0.035967472 1.7888488 0)
(0.067467224 1.8320815 -6.8915527e-20)
(0.081430841 1.8133766 3.0637307e-20)
(0.12539384 1.9298924 -1.7754085e-20)
(0.10275414 1.8152562 -1.0050308e-20)
(0.036417189 1.8866708 5.5670308e-21)
(0.038081013 1.8809007 -4.373369e-21)
(0.062737469 1.8197998 -1.8001e-20)
(0.055547119 1.823353 6.2174247e-20)
(0.046047172 1.8094873 8.2228013e-21)
(0.036761835 1.820099 2.0206787e-21)
(0.088886958 2.5423292 -1.7722447e-19)
(0.094057081 2.5751985 0)
(0.16020337 2.2925025 1.0803111e-19)
(0.14349847 2.0834994 5.7367034e-20)
(0.27396396 2.2612658 -1.0055367e-19)
(0.23493084 2.6183572 0)
(0.27933342 2.6046013 -6.5989836e-19)
(0.33028961 2.5046055 4.7453094e-19)
(0.2327557 2.2247126 -2.5159883e-19)
(0.17898106 2.3803864 1.7611685e-19)
(0.16774435 2.5081996 0)
(0.014043874 2.2281659 -6.6304765e-20)
(0.01443251 2.6007063 -9.7154715e-20)
(0.0090064331 2.3706954 0)
(0.012907295 2.6601977 -1.5919633e-20)
(0.030362923 2.4975651 4.4542293e-20)
(0.012670932 1.8531757 -4.8221189e-21)
(0.011004029 1.8465285 8.0193149e-20)
(0.01236333 1.8538551 -2.9426706e-20)
(0.015017878 1.8498401 -2.062638e-20)
(0.021095564 1.8747594 0)
(0.006693401 1.83414 0)
(0.00080369976 1.7864073 -3.6765124e-20)
(0.0026565396 1.828472 9.8735355e-21)
(0.00542628 1.8296378 0)
(0.0080730498 1.7832392 -2.7991285e-20)
(0.0036821741 1.7522339 5.7498877e-20)
(1.6619668 0.05552923 0)
(1.6544491 0.058032669 -6.9226088e-20)
(1.9416908 0.062087948 -5.3843542e-19)
(1.8242998 0.071146653 0)
(1.6751263 0.062714645 0)
(1.9091654 0.050649731 8.4517603e-22)
(1.9111529 0.050837312 8.134285e-19)
(1.7822682 0.034394055 1.0400019e-18)
(1.658042 0.029603581 0)
(1.5803498 0.033716707 0)
(1.770091 0.04679187 5.3407458e-19)
(1.6113233 0.042050746 0)
(1.5782231 0.028682063 0)
(-0.014229247 2.2867819 0)
(0.002269062 2.0524514 -8.53535e-21)
(-0.0081770006 2.1709635 -1.2306483e-20)
(0.00096893575 1.8378579 0)
(-0.0056984663 1.967763 -9.5285429e-21)
(-0.0062066869 1.9008194 6.2622333e-21)
(-0.0026924038 1.8405973 0)
(0.51545143 1.9334871 0)
(0.47191756 1.7957784 -1.3787448e-19)
(0.42906772 1.7702867 0)
(0.57076531 1.8351824 1.6322726e-20)
(0.63322325 1.9496338 0)
(0.58184434 1.9169627 4.5609546e-20)
(1.1105054 2.7862286 -2.1891023e-20)
(1.0431155 2.5578838 -1.218307e-18)
(1.0405896 2.4522713 1.4143199e-18)
(0.92048721 2.5460314 3.4252153e-19)
(0.90963875 2.5949439 0)
(0.97483069 2.5733821 0)
(0.99690753 2.5457781 0)
(0.97663709 2.5469053 -1.2409668e-18)
(0.74135816 2.5433993 -5.5297504e-19)
(0.86160855 2.5661602 -1.3042651e-19)
(0.86464426 2.5190606 1.0435494e-19)
(0.74759952 2.5834344 0)
(0.84807971 2.5733441 0)
(0.80318531 2.594869 -4.3918508e-19)
(0.80596768 2.5931069 0)
(0.92043273 1.5149796 0)
(0.72580068 1.2270555 -8.5949856e-19)
(0.82977967 1.2641835 -5.2210687e-20)
(0.7794902 1.3869134 0)
(0.75232987 1.3304592 1.312026e-18)
(1.1673661 1.2771733 -1.962056e-19)
(1.1387234 1.41487 0)
(1.1558728 1.3575055 2.846736e-19)
(0.97653219 1.4583005 0)
(0.99261268 1.3323286 0)
(1.2488992 2.7975427 -3.8997448e-19)
(1.2084661 2.8323438 -2.8422912e-19)
(1.0025781 2.3395768 4.9631741e-19)
(1.0038799 2.3747742 -1.6492702e-19)
(1.2195251 2.7888636 0)
(1.1773717 2.7448503 2.092907e-19)
(1.2048226 2.6305426 -3.8175208e-19)
(1.1184075 2.4804655 -2.9031345e-20)
(0.69959884 1.6889085 0)
(0.7235259 1.5050304 -2.360927e-19)
(0.81392434 1.63073 0)
(1.0841515 0.23211051 0)
(0.77168004 0.13210597 0)
(0.61055404 0.10537644 0)
(1.0649072 0.23897635 -1.0504786e-18)
(0.79482135 0.16791972 6.1044751e-19)
(1.0422314 0.03402142 -5.4383014e-19)
(1.1474963 0.097085439 0)
(1.1252617 0.11166213 2.4117141e-19)
(0.88400786 0.032084469 9.7457246e-19)
(0.80492293 0.014328531 -6.1589136e-19)
(1.3152536 3.4389693 -2.4729884e-19)
(1.3008533 3.3705257 0)
(1.3341095 3.3951361 -5.872334e-19)
(0.52550094 3.4985783 5.5238444e-19)
(0.76705819 3.0304512 -4.0715992e-19)
(0.6601853 1.0651864 1.0331392e-18)
(0.62541549 1.1112249 0)
(0.49454517 0.54644882 -2.7467305e-19)
(0.63028385 0.88700394 1.4999599e-18)
(0.66949968 0.51130414 -3.6312082e-19)
(0.62126664 0.63155421 4.218529e-19)
(0.80283773 0.6197153 8.7315283e-19)
(0.89801535 0.66520548 0)
(0.8440305 0.74671778 0)
(0.74432565 0.67666223 0)
(1.5189653 0.86579966 8.6229634e-20)
(1.4075424 0.78270404 -8.3306936e-19)
(1.4166346 0.83235741 6.2046592e-19)
(1.4797643 0.73324415 -6.2942439e-19)
(1.606757 0.73022539 0)
(1.6125098 0.7981906 -1.4232914e-19)
(1.0974337 0.48152654 -1.4260433e-18)
(1.1325929 0.47723406 -1.6978564e-18)
(1.018247 0.43007928 1.1165988e-18)
(1.0060305 0.39419784 -1.1342757e-18)
(1.0848559 0.35139395 -8.7951652e-19)
(0.98190442 0.3327797 1.0922419e-18)
(1.9179221 0.037156102 -5.0412973e-19)
(1.9483082 0.039836139 1.0194794e-18)
(1.6851534 0.040841763 6.3248703e-19)
(1.7018199 0.047479696 -7.5251557e-19)
(1.7956603 0.056120737 0)
(1.9462752 0.053259379 -1.3207174e-18)
(0.065674196 2.0571705 2.1769114e-20)
(0.058869123 1.9933533 0)
(0.09936848 2.0525168 2.4284181e-19)
(0.11189374 2.0471827 -2.2042339e-19)
(0.090837417 1.9544572 3.1446888e-20)
(0.07917682 1.9448886 0)
(0.0057084221 2.0765763 0)
(0.0018266331 1.9192599 3.0487141e-21)
(0.0010525635 1.8865489 -2.7585651e-21)
(-0.0059411728 1.9680998 5.4503511e-21)
(-0.0053469659 2.207983 2.8191547e-21)
(-0.0053893589 2.2295449 5.2841391e-21)
(0.69398994 1.7243041 -5.3281803e-19)
(0.64958453 1.7593785 5.6255594e-19)
(0.61475851 1.8074448 -2.5654873e-20)
(0.61000369 1.7239608 1.8216395e-20)
(0.86579329 1.7979415 0)
(0.72418331 1.8919327 2.1021637e-19)
(0.78526448 1.8845977 -2.0408124e-19)
(0.66374483 1.8412261 2.5474719e-20)
(0.73898783 1.7494582 0)
(0.80194877 1.7220728 0)
(0.71961442 2.5157807 8.0939933e-19)
(0.71545546 2.5864035 1.4781482e-18)
(0.76259581 2.5839794 -1.0623866e-18)
(0.63391436 2.5958492 -2.2132941e-19)
(0.62481661 2.6492562 3.6479032e-19)
(0.57637109 2.6251428 -9.1688855e-19)