/*--------------------------------*- C++ -*----------------------------------*\
  =========                 |
  \\      /  F ield         | OpenFOAM: The Open Source CFD Toolbox
   \\    /   O peration     | Website:  https://openfoam.org
    \\  /    A nd           | Version:  9
     \\/     M anipulation  |
\*---------------------------------------------------------------------------*/
FoamFile
{
    format      ascii;
    class       volScalarField;
    location    "3";
    object      p;
}
// * * * * * * * * * * * * * * * * * * * * * * * * * * * * * * * * * * * * * //

dimensions      [0 2 -2 0 0 0 0];

internalField   nonuniform List<scalar> 
1000
(
1.7068998
1.5858219
1.4898414
1.4261853
1.3776758
1.335204
1.2976693
1.2654986
1.2381004
1.2142663
1.1928771
1.1731209
1.1544554
1.1365337
1.1191445
1.1021677
1.0855394
1.069228
1.0532186
1.0375034
1.0220777
1.0069364
0.99207293
0.97747832
0.96314057
0.94904479
0.93517335
0.92150638
0.9080224
0.8946991
0.88151406
0.86844558
0.85547336
0.84257895
0.82974614
0.81696101
0.80421204
0.79148984
0.77878706
0.76609803
0.75341851
0.74074542
0.72807657
0.71541045
0.70274602
0.69008263
0.67741985
0.6647574
0.65209515
0.63943299
0.62677088
0.61410879
0.6014467
0.58878462
0.57612253
0.56346045
0.55079836
0.53813627
0.52547419
0.5128121
0.50015001
0.48748793
0.47482584
0.46216376
0.44950167
0.43683959
0.4241775
0.41151542
0.39885333
0.38619125
0.37352916
0.36086708
0.34820499
0.33554291
0.32288082
0.31021874
0.29755666
0.28489457
0.27223249
0.2595704
0.24690832
0.23424623
0.22158415
0.20892206
0.19625998
0.18359789
0.17093581
0.15827373
0.14561164
0.13294956
0.12028748
0.1076254
0.094963318
0.082301246
0.069639171
0.056977114
0.044315077
0.031653153
0.018991359
0.0063300704
1.5896802
1.5347511
1.4737987
1.4222311
1.3789612
1.3399931
1.3044072
1.2726352
1.2446756
1.2199004
1.197503
1.1768078
1.1573352
1.1387612
1.1208694
1.1035165
1.0866099
1.0700917
1.0539258
1.0380893
1.0225661
1.0073437
0.99241089
0.97775598
0.96336561
0.94922414
0.93531349
0.92161343
0.90810209
0.89475663
0.88155415
0.86847238
0.85549036
0.84258903
0.82975153
0.81696341
0.80421264
0.79148949
0.77878628
0.76609714
0.75341768
0.74074473
0.72807604
0.71541005
0.70274575
0.69008245
0.67741973
0.66475733
0.65209511
0.63943297
0.62677087
0.61410878
0.6014467
0.58878461
0.57612253
0.56346045
0.55079836
0.53813627
0.52547419
0.5128121
0.50015001
0.48748793
0.47482584
0.46216376
0.44950167
0.43683959
0.4241775
0.41151542
0.39885333
0.38619125
0.37352916
0.36086708
0.34820499
0.33554291
0.32288083
0.31021874
0.29755665
0.28489457
0.27223248
0.2595704
0.24690832
0.23424623
0.22158415
0.20892206
0.19625998
0.18359789
0.17093581
0.15827373
0.14561164
0.13294956
0.12028747
0.10762539
0.094963307
0.08230123
0.069639129
0.056977042
0.044314921
0.031652915
0.018990956
0.0063297418
1.528859
1.502684
1.4642872
1.4231545
1.3840696
1.3474791
1.313182
1.2814653
1.2526105
1.2265118
1.2027625
1.1808799
1.1604399
1.1411127
1.1226538
1.1048851
1.0876791
1.0709457
1.0546236
1.0386712
1.0230596
1.0077667
0.99277488
0.97806863
0.96363259
0.94945004
0.93550232
0.92176897
0.90822812
0.89485701
0.88163265
0.86853261
0.85553567
0.84262242
0.82977562
0.81698042
0.80422438
0.79149741
0.77879149
0.76610048
0.75341977
0.740746
0.72807678
0.71541047
0.70274597
0.69008256
0.67741978
0.66475735
0.65209511
0.63943296
0.62677086
0.61410877
0.60144669
0.58878461
0.57612253
0.56346044
0.55079836
0.53813627
0.52547418
0.5128121
0.50015001
0.48748793
0.47482584
0.46216376
0.44950167
0.43683959
0.4241775
0.41151542
0.39885333
0.38619125
0.37352916
0.36086708
0.348205
0.33554291
0.32288083
0.31021874
0.29755665
0.28489457
0.27223248
0.2595704
0.24690831
0.23424623
0.22158415
0.20892206
0.19625998
0.18359789
0.17093581
0.15827373
0.14561163
0.13294955
0.12028745
0.10762537
0.094963262
0.082301158
0.069638987
0.056976812
0.044314527
0.031652356
0.018990266
0.0063292736
1.4994505
1.4839525
1.4570828
1.4231592
1.3873586
1.3524078
1.3191064
1.2877545
1.2586255
1.2318369
1.2072552
1.1845728
1.1634337
1.1435204
1.1245848
1.1064403
1.0889449
1.0719908
1.0554996
1.0394171
1.0237043
1.0083308
0.99327189
0.97850753
0.96401956
0.94978957
0.93579783
0.92202339
0.90844436
0.89503821
0.8817822
0.86865408
0.8556327
0.8426986
0.82983439
0.81702496
0.80425754
0.79152163
0.77880886
0.76611271
0.75342821
0.74075171
0.72808057
0.71541293
0.70274754
0.69008353
0.67742037
0.6647577
0.65209531
0.63943307
0.62677092
0.6141088
0.6014467
0.58878461
0.57612253
0.56346044
0.55079836
0.53813627
0.52547418
0.5128121
0.50015001
0.48748793
0.47482584
0.46216376
0.44950167
0.43683959
0.4241775
0.41151542
0.39885333
0.38619125
0.37352916
0.36086708
0.348205
0.33554291
0.32288083
0.31021874
0.29755666
0.28489457
0.27223248
0.2595704
0.24690831
0.23424623
0.22158415
0.20892206
0.19625998
0.18359789
0.1709358
0.15827372
0.14561163
0.13294954
0.12028744
0.10762534
0.094963201
0.082301061
0.069638806
0.056976528
0.044314096
0.031651791
0.018989659
0.0063289031
1.486719
1.4747658
1.4525316
1.4222444
1.3883837
1.3543886
1.3216916
1.2906873
1.261592
1.2345834
1.2096631
1.186625
1.1651579
1.1449568
1.1257766
1.1074316
1.0897766
1.0726968
1.0561065
1.0399457
1.0241706
1.0087463
0.9936445
0.97884223
0.96431978
0.95005769
0.93603555
0.92223202
0.9086252
0.89519279
0.88191234
0.86876187
0.85572046
0.84276879
0.82988951
0.81706743
0.80428965
0.79154544
0.77882617
0.76612504
0.75343682
0.7407576
0.72808451
0.71541551
0.70274919
0.69008456
0.67742099
0.66475807
0.65209552
0.63943319
0.62677098
0.61410883
0.60144672
0.58878462
0.57612253
0.56346044
0.55079835
0.53813627
0.52547418
0.5128121
0.50015001
0.48748793
0.47482584
0.46216376
0.44950167
0.43683959
0.4241775
0.41151542
0.39885333
0.38619125
0.37352916
0.36086707
0.348205
0.3355429
0.32288083
0.31021874
0.29755666
0.28489457
0.27223248
0.2595704
0.24690831
0.23424624
0.22158414
0.20892207
0.19625997
0.18359789
0.1709358
0.15827371
0.14561162
0.13294953
0.12028742
0.10762532
0.094963157
0.082300995
0.069638686
0.056976343
0.044313835
0.031651465
0.018989333
0.0063287172
1.486719
1.4747658
1.4525316
1.4222444
1.3883837
1.3543886
1.3216916
1.2906873
1.261592
1.2345834
1.2096631
1.186625
1.1651579
1.1449568
1.1257766
1.1074316
1.0897766
1.0726968
1.0561066
1.0399457
1.0241706
1.0087463
0.9936445
0.97884223
0.96431978
0.95005769
0.93603554
0.92223201
0.90862519
0.89519278
0.88191234
0.86876187
0.85572046
0.84276879
0.82988951
0.81706743
0.80428964
0.79154544
0.77882617
0.76612504
0.75343682
0.74075759
0.7280845
0.71541551
0.70274918
0.69008456
0.67742099
0.66475806
0.65209552
0.63943318
0.62677097
0.61410883
0.60144671
0.58878462
0.57612253
0.56346044
0.55079835
0.53813627
0.52547418
0.5128121
0.50015001
0.48748792
0.47482584
0.46216375
0.44950167
0.43683959
0.4241775
0.41151542
0.39885333
0.38619125
0.37352916
0.36086707
0.348205
0.3355429
0.32288083
0.31021874
0.29755666
0.28489457
0.27223248
0.2595704
0.24690831
0.23424624
0.22158414
0.20892207
0.19625997
0.18359789
0.1709358
0.15827371
0.14561162
0.13294953
0.12028742
0.10762532
0.094963158
0.082300996
0.069638688
0.056976344
0.044313837
0.031651468
0.018989337
0.0063287187
1.4994505
1.4839525
1.4570828
1.4231592
1.3873586
1.3524078
1.3191064
1.2877545
1.2586255
1.2318369
1.2072552
1.1845728
1.1634337
1.1435204
1.1245848
1.1064403
1.088945
1.0719908
1.0554996
1.0394171
1.0237043
1.0083308
0.99327189
0.97850752
0.96401955
0.94978956
0.93579782
0.92202338
0.90844435
0.8950382
0.88178219
0.86865407
0.85563269
0.84269859
0.82983438
0.81702495
0.80425752
0.79152162
0.77880885
0.76611269
0.75342819
0.74075169
0.72808055
0.71541292
0.70274752
0.69008352
0.67742035
0.66475768
0.6520953
0.63943306
0.62677091
0.61410879
0.6014467
0.58878461
0.57612252
0.56346044
0.55079835
0.53813627
0.52547418
0.51281209
0.50015001
0.48748792
0.47482584
0.46216375
0.44950167
0.43683958
0.4241775
0.41151542
0.39885333
0.38619124
0.37352916
0.36086707
0.34820499
0.3355429
0.32288083
0.31021874
0.29755666
0.28489457
0.27223248
0.2595704
0.24690831
0.23424623
0.22158414
0.20892206
0.19625997
0.18359789
0.1709358
0.15827372
0.14561162
0.13294954
0.12028743
0.10762534
0.094963204
0.082301065
0.069638808
0.056976529
0.0443141
0.0316518
0.018989668
0.0063289061
1.528859
1.5026839
1.4642872
1.4231545
1.3840696
1.3474791
1.313182
1.2814653
1.2526105
1.2265118
1.2027626
1.1808799
1.16044
1.1411128
1.1226538
1.1048851
1.0876791
1.0709458
1.0546236
1.0386713
1.0230596
1.0077667
0.99277488
0.97806863
0.96363258
0.94945003
0.93550231
0.92176896
0.90822811
0.894857
0.88163265
0.86853261
0.85553566
0.8426224
0.8297756
0.8169804
0.80422436
0.79149738
0.77879146
0.76610045
0.75341974
0.74074597
0.72807675
0.71541045
0.70274595
0.69008254
0.67741976
0.66475733
0.65209509
0.63943295
0.62677084
0.61410876
0.60144668
0.5887846
0.57612252
0.56346043
0.55079835
0.53813627
0.52547418
0.51281209
0.50015001
0.48748792
0.47482584
0.46216375
0.44950167
0.43683958
0.4241775
0.41151541
0.39885333
0.38619125
0.37352916
0.36086707
0.34820499
0.33554291
0.32288082
0.31021874
0.29755665
0.28489457
0.27223248
0.2595704
0.24690831
0.23424623
0.22158415
0.20892206
0.19625998
0.18359789
0.1709358
0.15827372
0.14561162
0.13294955
0.12028745
0.10762537
0.094963268
0.082301165
0.069638992
0.056976815
0.044314533
0.031652367
0.018990277
0.0063292772
1.5896801
1.5347511
1.4737986
1.4222311
1.3789611
1.339993
1.3044072
1.2726352
1.2446756
1.2199004
1.197503
1.1768078
1.1573352
1.1387613
1.1208694
1.1035166
1.08661
1.0700917
1.0539259
1.0380894
1.0225661
1.0073437
0.99241089
0.97775598
0.96336561
0.94922414
0.93531349
0.92161343
0.90810209
0.89475663
0.88155415
0.86847237
0.85549035
0.84258901
0.8297515
0.81696338
0.80421261
0.79148946
0.77878625
0.7660971
0.75341765
0.7407447
0.72807601
0.71541002
0.70274572
0.69008242
0.6774197
0.66475731
0.65209509
0.63943295
0.62677085
0.61410876
0.60144668
0.5887846
0.57612252
0.56346044
0.55079835
0.53813627
0.52547418
0.51281209
0.50015001
0.48748792
0.47482584
0.46216375
0.44950167
0.43683958
0.4241775
0.41151541
0.39885333
0.38619124
0.37352916
0.36086708
0.34820499
0.33554291
0.32288082
0.31021874
0.29755665
0.28489457
0.27223248
0.2595704
0.24690831
0.23424623
0.22158415
0.20892206
0.19625998
0.18359789
0.17093581
0.15827372
0.14561163
0.13294955
0.12028747
0.1076254
0.094963314
0.082301239
0.069639135
0.056977044
0.044314927
0.031652928
0.018990969
0.006329746
1.7068998
1.5858219
1.4898414
1.4261853
1.3776758
1.335204
1.2976692
1.2654986
1.2381004
1.2142663
1.1928771
1.1731209
1.1544555
1.1365337
1.1191446
1.1021677
1.0855394
1.069228
1.0532186
1.0375035
1.0220777
1.0069364
0.99207293
0.97747832
0.96314057
0.94904479
0.93517335
0.92150638
0.9080224
0.89469909
0.88151405
0.86844557
0.85547334
0.84257893
0.82974611
0.81696098
0.804212
0.79148981
0.77878702
0.76609799
0.75341847
0.74074539
0.72807654
0.71541042
0.70274599
0.6900826
0.67741982
0.66475738
0.65209513
0.63943297
0.62677086
0.61410877
0.60144669
0.5887846
0.57612252
0.56346044
0.55079835
0.53813627
0.52547418
0.51281209
0.50015001
0.48748792
0.47482584
0.46216375
0.44950167
0.43683958
0.4241775
0.41151541
0.39885333
0.38619125
0.37352916
0.36086708
0.34820499
0.33554291
0.32288082
0.31021874
0.29755665
0.28489457
0.27223248
0.2595704
0.24690831
0.23424623
0.22158414
0.20892206
0.19625998
0.18359789
0.17093581
0.15827372
0.14561164
0.13294956
0.12028747
0.1076254
0.094963324
0.082301253
0.069639174
0.056977117
0.044315087
0.031653171
0.018991374
0.0063300748
)
;

boundaryField
{
    top
    {
        type            zeroGradient;
    }
    inlet
    {
        type            zeroGradient;
    }
    outlet
    {
        type            fixedValue;
        value           uniform 0;
    }
    bottom
    {
        type            zeroGradient;
    }
    back
    {
        type            empty;
    }
    front
    {
        type            empty;
    }
}


// ************************************************************************* //
