/*--------------------------------*- C++ -*----------------------------------*\
  =========                 |
  \\      /  F ield         | OpenFOAM: The Open Source CFD Toolbox
   \\    /   O peration     | Website:  https://openfoam.org
    \\  /    A nd           | Version:  9
     \\/     M anipulation  |
\*---------------------------------------------------------------------------*/
FoamFile
{
    format      ascii;
    class       volVectorField;
    location    "3";
    object      U;
}
// * * * * * * * * * * * * * * * * * * * * * * * * * * * * * * * * * * * * * //

dimensions      [0 1 -1 0 0 0 0];

internalField   nonuniform List<vector> 
1000
(
(0.9189084 0.035821918 0)
(0.86271383 0.062195575 0)
(0.78705981 0.06251004 0)
(0.69536055 0.054550087 0)
(0.61089854 0.044530912 0)
(0.54411833 0.034014774 0)
(0.49343484 0.024184831 0)
(0.45480275 0.016139335 0)
(0.42545931 0.010259616 0)
(0.40349261 0.0062965951 0)
(0.38718592 0.0037860131 0)
(0.37500403 0.0022919076 0)
(0.36572394 0.0014671323 0)
(0.35845339 0.0010519932 0)
(0.35257282 0.00086481321 0)
(0.34766576 0.00078967432 0)
(0.34345989 0.00076031134 0)
(0.33978155 0.00074246902 0)
(0.3365222 0.0007201098 0)
(0.33361488 0.00068712159 0)
(0.33101853 0.00064289951 0)
(0.32870734 0.00058969181 0)
(0.32666353 0.00053071736 0)
(0.32487261 0.00046908334 0)
(0.32332065 0.00040740895 0)
(0.32199272 0.00034783338 0)
(0.32087225 0.00029202331 0)
(0.31994092 0.00024115117 0)
(0.31917898 0.00019590076 0)
(0.31856591 0.00015653223 0)
(0.31808104 0.00012297398 0)
(0.31770432 9.4940674e-05 0)
(0.31741694 7.1997375e-05 0)
(0.31720179 5.3601977e-05 0)
(0.31704378 3.9158436e-05 0)
(0.31693001 2.8053652e-05 0)
(0.31684973 1.9698474e-05 0)
(0.31679425 1.3546307e-05 0)
(0.31675673 9.1166489e-06 0)
(0.31673192 5.9972826e-06 0)
(0.31671589 3.8524138e-06 0)
(0.31670579 2.4117791e-06 0)
(0.3166996 1.4690614e-06 0)
(0.31669591 8.6739137e-07 0)
(0.31669378 4.9510155e-07 0)
(0.31669261 2.7101686e-07 0)
(0.31669198 1.4141165e-07 0)
(0.31669168 6.8807336e-08 0)
(0.31669154 3.0886504e-08 0)
(0.31669149 1.1426713e-08 0)
(0.31669147 3.0071338e-09 0)
(0.31669148 -4.5722199e-10 0)
(0.31669148 -9.9465524e-10 0)
(0.31669149 -1.1759398e-09 0)
(0.3166915 -4.5461667e-10 0)
(0.3166915 -3.9221673e-10 0)
(0.3166915 2.8674456e-10 0)
(0.31669151 7.347613e-12 0)
(0.31669151 5.9399392e-10 0)
(0.31669151 -8.3449305e-12 0)
(0.31669151 7.0039778e-10 0)
(0.31669151 -2.6922484e-10 0)
(0.31669151 7.5737962e-10 0)
(0.31669151 -6.206872e-10 0)
(0.31669151 9.3558939e-10 0)
(0.31669152 -9.7674671e-10 0)
(0.3166915 1.106985e-09 0)
(0.31669152 -1.1923762e-09 0)
(0.3166915 1.1608207e-09 0)
(0.31669152 -1.0623095e-09 0)
(0.3166915 7.7633623e-10 0)
(0.31669153 -3.4929457e-10 0)
(0.31669149 -1.553827e-10 0)
(0.31669153 9.4149832e-10 0)
(0.31669149 -1.5579533e-09 0)
(0.31669154 2.3511624e-09 0)
(0.31669148 -2.6664547e-09 0)
(0.31669154 3.0719726e-09 0)
(0.31669148 -2.7092947e-09 0)
(0.31669154 2.4587183e-09 0)
(0.31669148 -1.2692309e-09 0)
(0.31669154 6.7559825e-10 0)
(0.31669148 4.7955424e-10 0)
(0.31669155 -5.3718957e-10 0)
(0.31669147 2.1236563e-09 0)
(0.31669155 -1.0204875e-09 0)
(0.31669146 4.1883701e-09 0)
(0.31669155 -6.9013073e-10 0)
(0.31669146 9.3321782e-09 0)
(0.31669154 1.9065889e-09 0)
(0.31669143 1.9861055e-08 0)
(0.31669151 1.5297324e-08 0)
(0.31669136 4.5376922e-08 0)
(0.31669142 6.2419425e-08 0)
(0.31669117 1.3139397e-07 0)
(0.31669116 2.1785765e-07 0)
(0.31669052 4.0559728e-07 0)
(0.31669019 6.7107615e-07 0)
(0.31668819 1.1278176e-06 0)
(0.31668678 1.5481154e-06 0)
(1.0016584 0.053819427 0)
(1.0359761 0.10128436 0)
(1.0597199 0.11073636 0)
(1.0628945 0.10592146 0)
(1.051557 0.09622749 0)
(1.0340537 0.083931749 0)
(1.0142815 0.070323293 0)
(0.99361177 0.056975149 0)
(0.97293534 0.045097853 0)
(0.95312371 0.035223375 0)
(0.93482135 0.027383633 0)
(0.91833192 0.021361077 0)
(0.90369165 0.016844808 0)
(0.89078803 0.01351129 0)
(0.8794455 0.011064905 0)
(0.86947504 0.0092572168 0)
(0.86069748 0.0078936125 0)
(0.85295365 0.0068317991 0)
(0.84610835 0.0059726205 0)
(0.84005134 0.005248332 0)
(0.83469538 0.0046138388 0)
(0.829972 0.0040412596 0)
(0.82582627 0.003515384 0)
(0.82221213 0.0030292539 0)
(0.81908881 0.0025806732 0)
(0.81641798 0.0021700192 0)
(0.81416174 0.001798803 0)
(0.81228138 0.0014685333 0)
(0.81073719 0.0011798884 0)
(0.80948881 0.00093232913 0)
(0.80849621 0.00072409098 0)
(0.80772061 0.0005524011 0)
(0.80712545 0.00041372867 0)
(0.80667722 0.00030405179 0)
(0.80634611 0.00021913982 0)
(0.80610633 0.00015480769 0)
(0.8059362 0.00010712717 0)
(0.80581802 7.2566292e-05 0)
(0.80573769 4.8077983e-05 0)
(0.80568431 3.1122567e-05 0)
(0.80564967 1.9658757e-05 0)
(0.80562774 1.2094565e-05 0)
(0.80561423 7.2308188e-06 0)
(0.80560614 4.1864615e-06 0)
(0.80560146 2.3366259e-06 0)
(0.80559885 1.2474171e-06 0)
(0.80559746 6.303043e-07 0)
(0.80559676 2.9468573e-07 0)
(0.80559644 1.2228566e-07 0)
(0.80559632 3.8849417e-08 0)
(0.80559628 2.723421e-09 0)
(0.80559629 -1.0215869e-08 0)
(0.8055963 -1.1591938e-08 0)
(0.80559632 -9.8040223e-09 0)
(0.80559634 -6.2892465e-09 0)
(0.80559635 -4.3135897e-09 0)
(0.80559636 -1.7416372e-09 0)
(0.80559636 -1.6076187e-09 0)
(0.80559636 2.4090128e-10 0)
(0.80559637 -1.1233629e-09 0)
(0.80559637 1.048324e-09 0)
(0.80559638 -1.7386889e-09 0)
(0.80559637 1.6488343e-09 0)
(0.80559639 -2.7401625e-09 0)
(0.80559636 2.3915802e-09 0)
(0.8055964 -3.6978056e-09 0)
(0.80559635 2.947952e-09 0)
(0.80559642 -3.9390095e-09 0)
(0.80559634 2.6487149e-09 0)
(0.80559644 -2.6063502e-09 0)
(0.80559632 4.6463452e-10 0)
(0.80559646 1.0321378e-09 0)
(0.8055963 -3.8708045e-09 0)
(0.80559647 6.5021547e-09 0)
(0.80559629 -9.1177374e-09 0)
(0.80559648 1.1256378e-08 0)
(0.80559629 -1.1772967e-08 0)
(0.80559648 1.1337682e-08 0)
(0.80559629 -8.1383367e-09 0)
(0.80559648 4.4646257e-09 0)
(0.80559629 1.7817975e-09 0)
(0.80559648 -6.1972445e-09 0)
(0.80559629 1.1776094e-08 0)
(0.80559648 -1.2828311e-08 0)
(0.80559628 1.6105122e-08 0)
(0.80559648 -1.1153424e-08 0)
(0.80559628 1.5354832e-08 0)
(0.80559648 -3.9782441e-09 0)
(0.80559627 1.9678647e-08 0)
(0.80559648 6.7448468e-09 0)
(0.80559623 3.8757076e-08 0)
(0.80559649 3.3951709e-08 0)
(0.8055961 8.8584423e-08 0)
(0.8055965 1.2151347e-07 0)
(0.80559581 2.455105e-07 0)
(0.80559644 4.1458086e-07 0)
(0.80559506 7.2942451e-07 0)
(0.80559607 1.233108e-06 0)
(0.80559264 1.8774178e-06 0)
(0.80559527 2.8525179e-06 0)
(1.0014245 0.026824827 0)
(1.0291271 0.062791276 0)
(1.0654289 0.077736185 0)
(1.0989615 0.080596455 0)
(1.1253137 0.078283719 0)
(1.1450514 0.073151078 0)
(1.1594838 0.066106748 0)
(1.1694261 0.058155133 0)
(1.1755326 0.050285691 0)
(1.1785713 0.043133911 0)
(1.179354 0.036948847 0)
(1.1785905 0.031736504 0)
(1.1768264 0.027398105 0)
(1.1744519 0.023806033 0)
(1.1717355 0.020831365 0)
(1.1688594 0.018351969 0)
(1.1659469 0.016258524 0)
(1.1630806 0.014461254 0)
(1.160312 0.012890742 0)
(1.1576713 0.01149336 0)
(1.1551769 0.010227524 0)
(1.1528411 0.009062944 0)
(1.1506719 0.0079801388 0)
(1.1486743 0.0069684537 0)
(1.1468518 0.0060235655 0)
(1.1452067 0.005145567 0)
(1.1437399 0.0043374211 0)
(1.1424499 0.003603304 0)
(1.1413324 0.0029469702 0)
(1.1403799 0.0023705679 0)
(1.1395821 0.0018740339 0)
(1.1389259 0.0014549236 0)
(1.1383963 0.0011085736 0)
(1.1379773 0.00082850949 0)
(1.1376522 0.00060701002 0)
(1.1374052 0.00043572654 0)
(1.1372214 0.00030626119 0)
(1.1370876 0.00021063924 0)
(1.1369922 0.0001416499 0)
(1.1369256 9.30478e-05 0)
(1.1368803 5.9632123e-05 0)
(1.1368502 3.7225468e-05 0)
(1.1368306 2.2586713e-05 0)
(1.1368181 1.3280427e-05 0)
(1.1368105 7.5343087e-06 0)
(1.1368059 4.0966831e-06 0)
(1.1368033 2.1124046e-06 0)
(1.1368018 1.0131648e-06 0)
(1.136801 4.3424907e-07 0)
(1.1368006 1.4861632e-07 0)
(1.1368004 2.0847523e-08 0)
(1.1368004 -2.7164513e-08 0)
(1.1368003 -3.7373342e-08 0)
(1.1368003 -3.3545963e-08 0)
(1.1368003 -2.4750995e-08 0)
(1.1368004 -1.7584497e-08 0)
(1.1368004 -1.0641547e-08 0)
(1.1368004 -7.9960051e-09 0)
(1.1368004 -3.6674116e-09 0)
(1.1368004 -4.8377982e-09 0)
(1.1368004 -7.2885319e-10 0)
(1.1368004 -4.848422e-09 0)
(1.1368004 9.12578e-10 0)
(1.1368004 -5.8772543e-09 0)
(1.1368004 2.1924704e-09 0)
(1.1368005 -6.6689658e-09 0)
(1.1368003 2.6272812e-09 0)
(1.1368005 -5.7917803e-09 0)
(1.1368003 9.6915472e-10 0)
(1.1368005 -1.7822026e-09 0)
(1.1368003 -4.1100787e-09 0)
(1.1368006 5.9053399e-09 0)
(1.1368002 -1.2068421e-08 0)
(1.1368006 1.4847021e-08 0)
(1.1368002 -1.8688638e-08 0)
(1.1368006 1.8828496e-08 0)
(1.1368003 -1.6636447e-08 0)
(1.1368006 1.0824212e-08 0)
(1.1368003 -1.4658558e-09 0)
(1.1368005 -8.6140539e-09 0)
(1.1368003 2.0033576e-08 0)
(1.1368005 -2.6388954e-08 0)
(1.1368003 3.1083001e-08 0)
(1.1368005 -2.524529e-08 0)
(1.1368003 2.1098439e-08 0)
(1.1368005 -5.5333374e-09 0)
(1.1368003 6.4764646e-09 0)
(1.1368005 1.0579541e-08 0)
(1.1368003 1.3740061e-08 0)
(1.1368006 1.5889397e-08 0)
(1.1368002 4.7553858e-08 0)
(1.1368007 4.315437e-08 0)
(1.1368 1.0607887e-07 0)
(1.1368009 1.5877082e-07 0)
(1.1367998 2.7337452e-07 0)
(1.1368012 5.0574696e-07 0)
(1.1367993 7.8881906e-07 0)
(1.1368017 1.3579276e-06 0)
(1.1367978 1.8755203e-06 0)
(1.136803 2.7265952e-06 0)
(1.0007347 0.01181469 0)
(1.0178471 0.03086087 0)
(1.046216 0.041434182 0)
(1.079901 0.045192975 0)
(1.1132646 0.045501214 0)
(1.1437791 0.04407811 0)
(1.1708899 0.041436392 0)
(1.194562 0.037968238 0)
(1.2148478 0.034187064 0)
(1.23195 0.030523269 0)
(1.2462444 0.027201671 0)
(1.2581943 0.024283135 0)
(1.2682522 0.02175027 0)
(1.2767992 0.019561866 0)
(1.2841297 0.017670586 0)
(1.290466 0.016025208 0)
(1.2959807 0.014575033 0)
(1.3008094 0.013276325 0)
(1.3050539 0.012094916 0)
(1.3087877 0.011004065 0)
(1.3120662 0.0099822719 0)
(1.3149337 0.009013464 0)
(1.3174263 0.0080876289 0)
(1.3195739 0.0072000995 0)
(1.3214028 0.0063501932 0)
(1.3229391 0.005540252 0)
(1.3242097 0.0047749724 0)
(1.3252426 0.0040604598 0)
(1.3260664 0.0034030352 0)
(1.32671 0.0028081384 0)
(1.3272016 0.0022795604 0)
(1.3275683 0.0018189819 0)
(1.3278348 0.0014257934 0)
(1.3280232 0.0010971781 0)
(1.3281524 0.00082843314 0)
(1.3282379 0.00061345494 0)
(1.3282924 0.00044529296 0)
(1.3283255 0.00031669329 0)
(1.3283443 0.00022056587 0)
(1.3283542 0.00015034585 0)
(1.3283586 0.0001002295 0)
(1.32836 6.5294384e-05 0)
(1.3283599 4.1519482e-05 0)
(1.3283591 2.5732974e-05 0)
(1.3283581 1.5514433e-05 0)
(1.3283572 9.0738594e-06 0)
(1.3283565 5.1278779e-06 0)
(1.3283559 2.7830694e-06 0)
(1.3283555 1.4368881e-06 0)
(1.3283553 6.9364179e-07 0)
(1.3283551 3.0319553e-07 0)
(1.328355 1.0968271e-07 0)
(1.328355 2.2292511e-08 0)
(1.3283549 -1.2435436e-08 0)
(1.3283549 -2.1398169e-08 0)
(1.3283549 -2.1472309e-08 0)
(1.3283549 -1.6552285e-08 0)
(1.3283549 -1.3981952e-08 0)
(1.3283549 -8.7362642e-09 0)
(1.3283549 -9.173938e-09 0)
(1.3283549 -4.200751e-09 0)
(1.328355 -7.8142983e-09 0)
(1.3283549 -1.7244512e-09 0)
(1.328355 -7.8676086e-09 0)
(1.3283549 -2.8890088e-10 0)
(1.328355 -7.6623673e-09 0)
(1.3283548 -1.8774941e-10 0)
(1.3283551 -5.5227863e-09 0)
(1.3283548 -2.5934972e-09 0)
(1.3283551 -3.051244e-10 0)
(1.3283547 -8.1123746e-09 0)
(1.3283552 7.7548524e-09 0)
(1.3283547 -1.501577e-08 0)
(1.3283552 1.4820092e-08 0)
(1.3283547 -1.7834424e-08 0)
(1.3283551 1.4134953e-08 0)
(1.3283548 -9.9240431e-09 0)
(1.3283551 9.3971119e-10 0)
(1.3283548 9.0727791e-09 0)
(1.328355 -1.9050278e-08 0)
(1.3283549 2.764868e-08 0)
(1.328355 -2.9114455e-08 0)
(1.3283549 2.7774122e-08 0)
(1.328355 -1.5945951e-08 0)
(1.3283549 8.5956485e-09 0)
(1.3283551 7.7758846e-09 0)
(1.3283548 -4.3373528e-09 0)
(1.3283551 1.7086766e-08 0)
(1.3283547 1.0886735e-08 0)
(1.3283552 1.3043711e-08 0)
(1.3283546 4.3987622e-08 0)
(1.3283554 3.6661539e-08 0)
(1.3283545 8.4341841e-08 0)
(1.3283557 1.389237e-07 0)
(1.3283543 2.1101546e-07 0)
(1.3283563 4.1022578e-07 0)
(1.3283541 6.0352513e-07 0)
(1.3283573 1.0122795e-06 0)
(1.3283533 1.3425578e-06 0)
(1.3283598 1.8596508e-06 0)
(1.0005903 0.0034629061 0)
(1.0136863 0.0093660117 0)
(1.0370279 0.013046738 0)
(1.0674194 0.014563062 0)
(1.1000295 0.014854122 0)
(1.1316394 0.014564204 0)
(1.1610695 0.013887021 0)
(1.1880592 0.012917216 0)
(1.2125072 0.011803268 0)
(1.2343739 0.010691274 0)
(1.2537753 0.0096648383 0)
(1.2709794 0.0087506525 0)
(1.286315 0.0079470545 0)
(1.3000849 0.0072437516 0)
(1.3125273 0.0066280311 0)
(1.3238218 0.0060850986 0)
(1.3341111 0.0055994551 0)
(1.3435104 0.0051574585 0)
(1.3521067 0.0047485548 0)
(1.3599614 0.0043645889 0)
(1.3671193 0.0039989828 0)
(1.3736164 0.0036468258 0)
(1.3794823 0.0033051967 0)
(1.3847406 0.0029729582 0)
(1.3894128 0.002650299 0)
(1.3935217 0.0023384401 0)
(1.3970939 0.0020394852 0)
(1.4001603 0.001756149 0)
(1.4027561 0.0014913569 0)
(1.4049208 0.0012478356 0)
(1.4066976 0.0010277955 0)
(1.4081319 0.00083270556 0)
(1.4092697 0.00066315668 0)
(1.4101562 0.00051883005 0)
(1.4108343 0.00039855955 0)
(1.4113431 0.00030048528 0)
(1.4117175 0.00022224547 0)
(1.4119875 0.0001611967 0)
(1.4121784 0.00011460956 0)
(1.4123105 7.9846259e-05 0)
(1.4123999 5.4481499e-05 0)
(1.4124592 3.6389746e-05 0)
(1.4124976 2.3775751e-05 0)
(1.4125219 1.5183204e-05 0)
(1.4125369 9.4653086e-06 0)
(1.4125458 5.7523405e-06 0)
(1.4125511 3.39987e-06 0)
(1.412554 1.9490516e-06 0)
(1.4125556 1.0781101e-06 0)
(1.4125565 5.7180351e-07 0)
(1.4125569 2.8649162e-07 0)
(1.4125571 1.3252844e-07 0)
(1.4125571 5.2706084e-08 0)
(1.4125572 1.4573921e-08 0)
(1.4125572 -2.5558244e-09 0)
(1.4125572 -8.8355485e-09 0)
(1.4125572 -1.0367494e-08 0)
(1.4125572 -1.023166e-08 0)
(1.4125571 -8.7938493e-09 0)
(1.4125572 -8.5409314e-09 0)
(1.4125571 -6.6411719e-09 0)
(1.4125572 -7.4411185e-09 0)
(1.4125571 -5.0329347e-09 0)
(1.4125572 -6.7784976e-09 0)
(1.4125571 -3.952637e-09 0)
(1.4125573 -5.9924069e-09 0)
(1.412557 -3.4826296e-09 0)
(1.4125573 -4.3212571e-09 0)
(1.412557 -4.1615388e-09 0)
(1.4125574 -1.4605185e-09 0)
(1.4125569 -6.0086287e-09 0)
(1.4125574 2.3431844e-09 0)
(1.4125569 -8.0531029e-09 0)
(1.4125574 5.1989865e-09 0)
(1.4125569 -7.8797032e-09 0)
(1.4125574 4.319895e-09 0)
(1.412557 -3.1191141e-09 0)
(1.4125573 -1.6157636e-09 0)
(1.4125571 5.4110081e-09 0)
(1.4125572 -9.3087362e-09 0)
(1.4125571 1.2305428e-08 0)
(1.4125572 -1.1094072e-08 0)
(1.4125571 1.0322319e-08 0)
(1.4125572 -3.0890791e-09 0)
(1.4125571 1.8115596e-09 0)
(1.4125573 7.2754227e-09 0)
(1.412557 -1.7594604e-09 0)
(1.4125574 1.0416336e-08 0)
(1.4125569 7.8112934e-09 0)
(1.4125575 8.3914032e-09 0)
(1.4125568 2.2327729e-08 0)
(1.4125577 1.8805504e-08 0)
(1.4125567 3.5189419e-08 0)
(1.4125581 5.8464399e-08 0)
(1.4125566 8.1575082e-08 0)
(1.4125589 1.5841295e-07 0)
(1.4125565 2.2702298e-07 0)
(1.4125601 3.6977405e-07 0)
(1.412556 4.8057479e-07 0)
(1.412563 6.4951378e-07 0)
(1.0005903 -0.0034628961 0)
(1.0136863 -0.0093659711 0)
(1.0370279 -0.013046673 0)
(1.0674194 -0.014562982 0)
(1.1000295 -0.014854032 0)
(1.1316394 -0.014564109 0)
(1.1610695 -0.013886924 0)
(1.1880592 -0.012917123 0)
(1.2125072 -0.011803183 0)
(1.2343739 -0.010691199 0)
(1.2537753 -0.0096647753 0)
(1.2709794 -0.0087506059 0)
(1.286315 -0.0079470262 0)
(1.3000849 -0.0072437449 0)
(1.3125272 -0.006628043 0)
(1.3238218 -0.0060851294 0)
(1.334111 -0.0055995032 0)
(1.3435103 -0.005157525 0)
(1.3521067 -0.0047486378 0)
(1.3599613 -0.004364684 0)
(1.3671192 -0.0039990853 0)
(1.3736164 -0.0036469289 0)
(1.3794822 -0.0033052973 0)
(1.3847405 -0.0029730504 0)
(1.3894127 -0.0026503818 0)
(1.3935216 -0.0023385102 0)
(1.3970938 -0.0020395447 0)
(1.4001602 -0.0017561989 0)
(1.402756 -0.0014914013 0)
(1.4049207 -0.0012478772 0)
(1.4066975 -0.001027837 0)
(1.4081318 -0.00083274892 0)
(1.4092697 -0.00066320234 0)
(1.4101562 -0.00051887857 0)
(1.4108343 -0.00039860972 0)
(1.4113431 -0.00030053677 0)
(1.4117175 -0.00022229701 0)
(1.4119875 -0.00016124803 0)
(1.4121784 -0.00011466013 0)
(1.4123105 -7.9896058e-05 0)
(1.4123999 -5.4530563e-05 0)
(1.4124592 -3.6437737e-05 0)
(1.4124976 -2.3822694e-05 0)
(1.4125219 -1.5228487e-05 0)
(1.4125369 -9.5090051e-06 0)
(1.4125459 -5.793361e-06 0)
(1.4125511 -3.4384008e-06 0)
(1.4125541 -1.9842793e-06 0)
(1.4125556 -1.1106373e-06 0)
(1.4125565 -6.0105682e-07 0)
(1.4125569 -3.1346178e-07 0)
(1.4125571 -1.5704053e-07 0)
(1.4125571 -7.5321521e-08 0)
(1.4125572 -3.5071092e-08 0)
(1.4125572 -1.6779702e-08 0)
(1.4125572 -8.9119328e-09 0)
(1.4125572 -6.6908098e-09 0)
(1.4125572 -5.4889246e-09 0)
(1.4125571 -6.3172488e-09 0)
(1.4125572 -5.3420194e-09 0)
(1.4125571 -6.7899368e-09 0)
(1.4125572 -4.8051743e-09 0)
(1.4125571 -6.73238e-09 0)
(1.4125572 -3.8342669e-09 0)
(1.4125571 -6.2757695e-09 0)
(1.4125573 -3.0731779e-09 0)
(1.412557 -5.1164693e-09 0)
(1.4125573 -3.1008944e-09 0)
(1.412557 -2.8764193e-09 0)
(1.4125574 -4.36441e-09 0)
(1.4125569 6.2528004e-10 0)
(1.4125574 -6.5299429e-09 0)
(1.4125569 4.1886396e-09 0)
(1.4125574 -7.9241736e-09 0)
(1.4125569 5.4128024e-09 0)
(1.4125574 -5.7347798e-09 0)
(1.412557 1.7907132e-09 0)
(1.4125573 1.273189e-09 0)
(1.4125571 -5.6945686e-09 0)
(1.4125572 9.9483226e-09 0)
(1.4125571 -1.1640048e-08 0)
(1.4125572 1.2753904e-08 0)
(1.4125571 -8.3794565e-09 0)
(1.4125572 6.1778986e-09 0)
(1.4125571 1.8535053e-09 0)
(1.4125573 -2.0452102e-09 0)
(1.412557 8.1716292e-09 0)
(1.4125574 -1.796414e-09 0)
(1.4125569 2.5517726e-09 0)
(1.4125575 4.5084273e-09 0)
(1.4125568 -8.421087e-09 0)
(1.4125577 -4.8620133e-09 0)
(1.4125567 -2.3533339e-08 0)
(1.4125581 -4.8690483e-08 0)
(1.4125566 -7.3370029e-08 0)
(1.4125589 -1.4940578e-07 0)
(1.4125565 -2.1868678e-07 0)
(1.4125601 -3.6525689e-07 0)
(1.412556 -4.8189954e-07 0)
(1.412563 -6.5124437e-07 0)
(1.0007347 -0.011814681 0)
(1.0178471 -0.030860834 0)
(1.046216 -0.041434125 0)
(1.079901 -0.045192904 0)
(1.1132647 -0.045501136 0)
(1.1437791 -0.044078028 0)
(1.17089 -0.04143631 0)
(1.194562 -0.037968159 0)
(1.2148479 -0.034186992 0)
(1.23195 -0.030523205 0)
(1.2462444 -0.027201617 0)
(1.2581943 -0.024283091 0)
(1.2682522 -0.021750239 0)
(1.2767992 -0.019561847 0)
(1.2841297 -0.01767058 0)
(1.2904659 -0.016025214 0)
(1.2959806 -0.014575051 0)
(1.3008093 -0.013276355 0)
(1.3050538 -0.012094957 0)
(1.3087876 -0.011004115 0)
(1.312066 -0.0099823279 0)
(1.3149335 -0.0090135228 0)
(1.3174261 -0.0080876876 0)
(1.3195738 -0.0072001566 0)
(1.3214027 -0.0063502469 0)
(1.322939 -0.0055403027 0)
(1.3242096 -0.0047750203 0)
(1.3252425 -0.0040605071 0)
(1.3260663 -0.0034030833 0)
(1.3267099 -0.0028081892 0)
(1.3272015 -0.0022796142 0)
(1.3275682 -0.0018190389 0)
(1.3278348 -0.0014258524 0)
(1.3280232 -0.0010972384 0)
(1.3281524 -0.00082849288 0)
(1.3282379 -0.00061351345 0)
(1.3282924 -0.00044534884 0)
(1.3283254 -0.00031674693 0)
(1.3283443 -0.00022061642 0)
(1.3283542 -0.00015039453 0)
(1.3283586 -0.00010027558 0)
(1.32836 -6.5339147e-05 0)
(1.3283599 -4.1561744e-05 0)
(1.3283591 -2.5773941e-05 0)
(1.3283581 -1.5552646e-05 0)
(1.3283572 -9.1102707e-06 0)
(1.3283565 -5.1608789e-06 0)
(1.328356 -2.8140103e-06 0)
(1.3283556 -1.4641059e-06 0)
(1.3283553 -7.1850465e-07 0)
(1.3283552 -3.2422267e-07 0)
(1.3283551 -1.3002161e-07 0)
(1.328355 -4.0741811e-08 0)
(1.328355 -5.4165349e-09 0)
(1.328355 5.6053089e-09 0)
(1.328355 6.0615108e-09 0)
(1.3283549 2.9320448e-09 0)
(1.328355 6.2042862e-10 0)
(1.3283549 -2.9436046e-09 0)
(1.328355 -2.3988339e-09 0)
(1.3283549 -5.8405531e-09 0)
(1.328355 -2.2185595e-09 0)
(1.3283549 -6.8136212e-09 0)
(1.328355 -7.4150691e-10 0)
(1.3283549 -6.916171e-09 0)
(1.328355 3.5761995e-10 0)
(1.3283548 -5.6733652e-09 0)
(1.3283551 -4.7233799e-10 0)
(1.3283548 -2.0025045e-09 0)
(1.3283551 -4.4189816e-09 0)
(1.3283547 4.8576683e-09 0)
(1.3283552 -1.1207628e-08 0)
(1.3283547 1.286194e-08 0)
(1.3283552 -1.7169226e-08 0)
(1.3283547 1.6771272e-08 0)
(1.3283551 -1.5524744e-08 0)
(1.3283548 9.7443763e-09 0)
(1.3283551 -1.5423601e-09 0)
(1.3283548 -8.3740988e-09 0)
(1.328355 1.9265816e-08 0)
(1.3283549 -2.6216091e-08 0)
(1.328355 3.0316125e-08 0)
(1.3283549 -2.5242715e-08 0)
(1.328355 1.8339056e-08 0)
(1.3283548 -4.6423049e-09 0)
(1.3283551 -3.669737e-09 0)
(1.3283548 1.037606e-08 0)
(1.3283551 -1.0285789e-08 0)
(1.3283547 -1.4005147e-09 0)
(1.3283552 -2.8842333e-09 0)
(1.3283546 -3.1943134e-08 0)
(1.3283554 -2.593458e-08 0)
(1.3283545 -7.4770612e-08 0)
(1.3283557 -1.3220463e-07 0)
(1.3283543 -2.0497938e-07 0)
(1.3283563 -4.0405605e-07 0)
(1.3283541 -5.9690318e-07 0)
(1.3283573 -1.008123e-06 0)
(1.3283533 -1.3412395e-06 0)
(1.3283598 -1.8585732e-06 0)
(1.0014245 -0.02682482 0)
(1.0291271 -0.06279125 0)
(1.0654289 -0.077736144 0)
(1.0989615 -0.080596405 0)
(1.1253138 -0.078283663 0)
(1.1450515 -0.073151021 0)
(1.1594839 -0.066106692 0)
(1.1694261 -0.058155079 0)
(1.1755326 -0.050285642 0)
(1.1785713 -0.043133867 0)
(1.1793541 -0.036948808 0)
(1.1785906 -0.031736468 0)
(1.1768264 -0.027398074 0)
(1.1744519 -0.023806006 0)
(1.1717355 -0.020831343 0)
(1.1688593 -0.018351951 0)
(1.1659468 -0.01625851 0)
(1.1630805 -0.014461245 0)
(1.1603119 -0.012890738 0)
(1.1576712 -0.011493362 0)
(1.1551768 -0.01022753 0)
(1.152841 -0.0090629566 0)
(1.1506717 -0.0079801539 0)
(1.1486742 -0.0069684751 0)
(1.1468517 -0.0060235904 0)
(1.1452066 -0.0051455989 0)
(1.1437397 -0.0043374588 0)
(1.1424497 -0.0036033496 0)
(1.1413322 -0.0029470232 0)
(1.1403798 -0.0023706275 0)
(1.139582 -0.0018740997 0)
(1.1389258 -0.0014549923 0)
(1.1383962 -0.0011086447 0)
(1.1379772 -0.00082857893 0)
(1.1376521 -0.00060707788 0)
(1.1374052 -0.00043578956 0)
(1.1372214 -0.00030632048 0)
(1.1370876 -0.00021069285 0)
(1.1369922 -0.00014169963 0)
(1.1369257 -9.3092635e-05 0)
(1.1368804 -5.9673734e-05 0)
(1.1368502 -3.7263137e-05 0)
(1.1368306 -2.2621796e-05 0)
(1.1368182 -1.3312232e-05 0)
(1.1368106 -7.5634783e-06 0)
(1.136806 -4.1227274e-06 0)
(1.1368033 -2.1360539e-06 0)
(1.1368019 -1.0338683e-06 0)
(1.1368011 -4.5329464e-07 0)
(1.1368007 -1.6611664e-07 0)
(1.1368005 -3.7441177e-08 0)
(1.1368004 1.3080256e-08 0)
(1.1368004 2.4230005e-08 0)
(1.1368004 2.186254e-08 0)
(1.1368004 1.3792386e-08 0)
(1.1368004 7.8903966e-09 0)
(1.1368004 1.6409536e-09 0)
(1.1368004 1.6297478e-10 0)
(1.1368004 -3.6593855e-09 0)
(1.1368004 -1.5196603e-09 0)
(1.1368004 -5.2396783e-09 0)
(1.1368004 -2.6504349e-10 0)
(1.1368004 -5.8011138e-09 0)
(1.1368005 1.6620342e-09 0)
(1.1368004 -6.2246245e-09 0)
(1.1368005 3.2830135e-09 0)
(1.1368004 -5.897337e-09 0)
(1.1368005 3.1294418e-09 0)
(1.1368003 -3.4790542e-09 0)
(1.1368005 -1.1160365e-10 0)
(1.1368003 2.2797805e-09 0)
(1.1368006 -7.0902356e-09 0)
(1.1368003 1.0938943e-08 0)
(1.1368006 -1.5469521e-08 0)
(1.1368003 1.8167341e-08 0)
(1.1368006 -1.8894425e-08 0)
(1.1368003 1.6640826e-08 0)
(1.1368006 -1.0351056e-08 0)
(1.1368003 1.9326707e-09 0)
(1.1368005 9.6151296e-09 0)
(1.1368003 -1.9070366e-08 0)
(1.1368005 2.7883734e-08 0)
(1.1368003 -2.9433723e-08 0)
(1.1368005 2.7579294e-08 0)
(1.1368003 -1.8506978e-08 0)
(1.1368005 9.0712851e-09 0)
(1.1368003 -2.4397762e-09 0)
(1.1368006 -5.3041291e-09 0)
(1.1368003 -7.6213061e-09 0)
(1.1368006 -8.4260901e-09 0)
(1.1368002 -4.019552e-08 0)
(1.1368007 -3.5989162e-08 0)
(1.1368 -1.0047831e-07 0)
(1.1368009 -1.5536062e-07 0)
(1.1367998 -2.7110761e-07 0)
(1.1368012 -5.0291401e-07 0)
(1.1367993 -7.8458871e-07 0)
(1.1368017 -1.3545219e-06 0)
(1.1367978 -1.8749036e-06 0)
(1.136803 -2.7260067e-06 0)
(1.0016584 -0.053819425 0)
(1.0359761 -0.10128435 0)
(1.0597199 -0.11073634 0)
(1.0628945 -0.10592144 0)
(1.0515571 -0.096227464 0)
(1.0340537 -0.083931723 0)
(1.0142816 -0.070323266 0)
(0.99361183 -0.056975123 0)
(0.97293539 -0.045097828 0)
(0.95312375 -0.035223353 0)
(0.93482138 -0.027383611 0)
(0.91833193 -0.021361053 0)
(0.90369164 -0.016844781 0)
(0.89078801 -0.013511262 0)
(0.87944547 -0.011064874 0)
(0.86947499 -0.0092571836 0)
(0.86069744 -0.0078935774 0)
(0.85295359 -0.0068317634 0)
(0.84610831 -0.0059725882 0)
(0.84005129 -0.0052483046 0)
(0.83469534 -0.0046138196 0)
(0.82997194 -0.0040412478 0)
(0.8258262 -0.0035153813 0)
(0.82221204 -0.0030292584 0)
(0.81908871 -0.0025806859 0)
(0.81641787 -0.0021700388 0)
(0.81416161 -0.0017988298 0)
(0.81228124 -0.0014685662 0)
(0.81073703 -0.0011799269 0)
(0.80948866 -0.00093237256 0)
(0.80849607 -0.00072413821 0)
(0.80772049 -0.00055245156 0)
(0.80712533 -0.00041378039 0)
(0.80667713 -0.00030410419 0)
(0.80634604 -0.00021919086 0)
(0.80610629 -0.000154857 0)
(0.80593619 -0.00010717307 0)
(0.80581803 -7.2608848e-05 0)
(0.80573771 -4.8116287e-05 0)
(0.80568435 -3.1156843e-05 0)
(0.80564972 -1.9688578e-05 0)
(0.8056278 -1.2120626e-05 0)
(0.8056143 -7.2531611e-06 0)
(0.80560622 -4.2055072e-06 0)
(0.80560153 -2.3524352e-06 0)
(0.80559892 -1.2608565e-06 0)
(0.80559753 -6.4146365e-07 0)
(0.80559683 -3.040339e-07 0)
(0.80559651 -1.3040521e-07 0)
(0.80559638 -4.6611195e-08 0)
(0.80559634 -1.0566594e-08 0)
(0.80559635 3.7801165e-09 0)
(0.80559636 6.4533858e-09 0)
(0.80559637 5.4045348e-09 0)
(0.80559638 2.5040907e-09 0)
(0.80559639 1.0344857e-09 0)
(0.80559639 -1.0060414e-09 0)
(0.8055964 -8.4615109e-10 0)
(0.8055964 -2.3404414e-09 0)
(0.80559641 -7.4245139e-10 0)
(0.80559639 -2.6188653e-09 0)
(0.80559641 2.805087e-10 0)
(0.80559639 -2.9441562e-09 0)
(0.80559641 1.5651058e-09 0)
(0.80559638 -3.373074e-09 0)
(0.80559642 2.7814838e-09 0)
(0.80559637 -3.74707e-09 0)
(0.80559643 3.2517194e-09 0)
(0.80559635 -3.1646198e-09 0)
(0.80559645 2.1554313e-09 0)
(0.80559633 -8.2194405e-10 0)
(0.80559647 -1.3117757e-09 0)
(0.80559631 3.8619236e-09 0)
(0.80559649 -6.4984876e-09 0)
(0.8055963 9.2504894e-09 0)
(0.80559649 -1.1062292e-08 0)
(0.8055963 1.214387e-08 0)
(0.80559649 -1.0918632e-08 0)
(0.8055963 8.6807581e-09 0)
(0.80559649 -3.7688456e-09 0)
(0.8055963 -8.6942418e-10 0)
(0.80559649 7.0032124e-09 0)
(0.8055963 -1.078927e-08 0)
(0.8055965 1.4033666e-08 0)
(0.80559629 -1.4531662e-08 0)
(0.8055965 1.2970661e-08 0)
(0.80559629 -1.3082857e-08 0)
(0.8055965 6.3926272e-09 0)
(0.80559629 -1.7214543e-08 0)
(0.8055965 -4.4271493e-09 0)
(0.80559625 -3.6582908e-08 0)
(0.80559651 -3.1771705e-08 0)
(0.80559612 -8.6648458e-08 0)
(0.80559651 -1.2001927e-07 0)
(0.80559583 -2.4306126e-07 0)
(0.80559646 -4.1081887e-07 0)
(0.80559508 -7.2658356e-07 0)
(0.80559609 -1.2344142e-06 0)
(0.80559265 -1.8818222e-06 0)
(0.8055953 -2.8553926e-06 0)
(0.9189084 -0.035821918 0)
(0.86271383 -0.062195574 0)
(0.78705981 -0.062510036 0)
(0.69536055 -0.054550081 0)
(0.61089855 -0.044530906 0)
(0.54411835 -0.034014767 0)
(0.49343486 -0.024184825 0)
(0.45480276 -0.016139329 0)
(0.42545932 -0.01025961 0)
(0.40349262 -0.0062965891 0)
(0.38718592 -0.003786005 0)
(0.37500402 -0.0022918974 0)
(0.36572393 -0.0014671188 0)
(0.35845337 -0.0010519767 0)
(0.35257281 -0.00086479338 0)
(0.34766576 -0.00078965151 0)
(0.34345989 -0.00076028792 0)
(0.33978156 -0.00074244564 0)
(0.3365222 -0.00072009097 0)
(0.33361489 -0.00068710597 0)
(0.33101853 -0.00064289124 0)
(0.32870733 -0.0005896868 0)
(0.3266635 -0.00053071848 0)
(0.32487258 -0.00046908593 0)
(0.3233206 -0.0004074154 0)
(0.32199266 -0.00034784053 0)
(0.32087219 -0.00029203259 0)
(0.31994085 -0.00024116125 0)
(0.31917893 -0.00019591199 0)
(0.31856586 -0.00015654518 0)
(0.318081 -0.00012298779 0)
(0.31770429 -9.495678e-05 0)
(0.31741692 -7.2013666e-05 0)
(0.31720178 -5.3620177e-05 0)
(0.31704378 -3.9175822e-05 0)
(0.31693001 -2.8071876e-05 0)
(0.31684974 -1.9714774e-05 0)
(0.31679427 -1.3562327e-05 0)
(0.31675676 -9.1300335e-06 0)
(0.31673195 -6.0096734e-06 0)
(0.31671593 -3.8621114e-06 0)
(0.31670583 -2.4204712e-06 0)
(0.31669963 -1.4753067e-06 0)
(0.31669594 -8.7288858e-07 0)
(0.31669382 -4.9873185e-07 0)
(0.31669264 -2.7427839e-07 0)
(0.31669202 -1.4316766e-07 0)
(0.31669171 -7.0362954e-08 0)
(0.31669156 -3.0974548e-08 0)
(0.31669151 -1.1816704e-08 0)
(0.31669149 -2.7183241e-09 0)
(0.3166915 -7.1412878e-11 0)
(0.3166915 1.1358339e-09 0)
(0.31669151 7.7966027e-10 0)
(0.31669151 7.7521112e-10 0)
(0.31669152 1.2674981e-10 0)
(0.31669152 6.9861509e-11 0)
(0.31669152 -2.9905085e-10 0)
(0.31669152 -2.9259424e-10 0)
(0.31669152 -2.9769552e-10 0)
(0.31669152 -4.2183774e-10 0)
(0.31669152 -1.2925124e-10 0)
(0.31669152 -5.4787251e-10 0)
(0.31669152 3.0841594e-10 0)
(0.31669151 -6.7599174e-10 0)
(0.31669152 6.7047253e-10 0)
(0.31669151 -8.6841041e-10 0)
(0.31669152 9.2664408e-10 0)
(0.31669151 -8.7416065e-10 0)
(0.31669153 7.8584656e-10 0)
(0.3166915 -4.713841e-10 0)
(0.31669153 4.361889e-11 0)
(0.3166915 5.8145712e-10 0)
(0.31669154 -1.124749e-09 0)
(0.31669149 1.9067045e-09 0)
(0.31669154 -2.4851006e-09 0)
(0.31669149 3.0821972e-09 0)
(0.31669154 -3.167308e-09 0)
(0.31669149 3.1462108e-09 0)
(0.31669155 -2.543245e-09 0)
(0.31669149 1.9054051e-09 0)
(0.31669155 -7.8535758e-10 0)
(0.31669148 6.6388608e-12 0)
(0.31669155 6.1322209e-10 0)
(0.31669148 -1.3937643e-09 0)
(0.31669156 1.2025411e-09 0)
(0.31669148 -3.3493829e-09 0)
(0.31669156 7.9094406e-10 0)
(0.31669147 -8.8195034e-09 0)
(0.31669154 -2.428641e-09 0)
(0.31669144 -1.9691859e-08 0)
(0.31669151 -1.5659681e-08 0)
(0.31669137 -4.5043669e-08 0)
(0.31669143 -6.1387097e-08 0)
(0.31669118 -1.2856683e-07 0)
(0.31669117 -2.1535728e-07 0)
(0.31669052 -4.0574675e-07 0)
(0.31669018 -6.7410427e-07 0)
(0.31668819 -1.1315826e-06 0)
(0.3166868 -1.5499778e-06 0)
)
;

boundaryField
{
    top
    {
        type            fixedValue;
        value           uniform (0 0 0);
    }
    inlet
    {
        type            fixedValue;
        value           uniform (1 0 0);
    }
    outlet
    {
        type            zeroGradient;
    }
    bottom
    {
        type            fixedValue;
        value           uniform (0 0 0);
    }
    back
    {
        type            empty;
    }
    front
    {
        type            empty;
    }
}


// ************************************************************************* //
