/*--------------------------------*- C++ -*----------------------------------*\
  =========                 |
  \\      /  F ield         | OpenFOAM: The Open Source CFD Toolbox
   \\    /   O peration     | Website:  https://openfoam.org
    \\  /    A nd           | Version:  9
     \\/     M anipulation  |
\*---------------------------------------------------------------------------*/
FoamFile
{
    format      ascii;
    class       volScalarField;
    location    "1";
    object      p;
}
// * * * * * * * * * * * * * * * * * * * * * * * * * * * * * * * * * * * * * //

dimensions      [1 -1 -2 0 0 0 0];

internalField   nonuniform List<scalar> 
5250
(
1
1.00001
1.00002
1.00006
1.00016
1.00038
1.00102
1.00234
1.00632
1.01456
1.03877
1.09333
1.24672
1.65908
2.90477
6.77412
12.7011
11.689
11.3248
11.4606
11.7642
11.9845
12.1136
12.2049
12.2732
1
1.00001
1.00002
1.00006
1.00016
1.00039
1.00098
1.00238
1.0061
1.01458
1.03777
1.09245
1.24186
1.64715
2.86516
6.64563
12.6925
11.6925
11.3211
11.4554
11.7565
11.9745
12.1035
12.1963
12.266
1
1.00001
1.00002
1.00006
1.00015
1.00038
1.00095
1.00232
1.00593
1.0142
1.03663
1.08964
1.23362
1.62288
2.78477
6.37217
12.6571
11.69
11.3026
11.429
11.7185
11.9293
12.0548
12.1468
12.2167
1
1.00001
1.00002
1.00006
1.00015
1.00037
1.00092
1.00224
1.00571
1.01368
1.03523
1.08603
1.22335
1.592
2.68022
5.99668
12.559
11.6685
11.266
11.3786
11.646
11.8468
11.9671
12.0566
12.1264
1
1.00001
1.00002
1.00006
1.00014
1.00035
1.00088
1.00214
1.00546
1.01304
1.03361
1.08187
1.21222
1.56014
2.58186
5.67947
12.2953
11.5998
11.2093
11.304
11.5405
11.7305
11.8445
11.9297
11.9983
1
1.00001
1.00002
1.00005
1.00013
1.00033
1.00083
1.00201
1.00517
1.01224
1.03179
1.07692
1.19967
1.5243
2.47517
5.34339
11.8904
11.4647
11.1319
11.2026
11.3954
11.5743
11.6799
11.7574
11.8238
1
1.00001
1.00002
1.00005
1.00012
1.00031
1.00078
1.00186
1.00484
1.01133
1.02972
1.07135
1.18573
1.4848
2.35949
4.97972
11.372
11.2837
11.0449
11.0759
11.2081
11.373
11.4623
11.5222
11.576
1
1.00001
1.00002
1.00004
1.00011
1.00028
1.00071
1.00169
1.00445
1.01031
1.02733
1.06507
1.16984
1.44092
2.23235
4.58626
10.693
11.1055
10.951
10.92
10.9878
11.1226
11.1797
11.2049
11.2233
1
1.00001
1.00002
1.00004
1.00011
1.00024
1.00065
1.00149
1.00404
1.0092
1.02471
1.05819
1.15259
1.39281
2.09291
4.16847
9.8337
10.9833
10.8326
10.7127
10.7438
10.8157
10.8123
10.7671
10.6738
1
1
1.00001
1.00004
1.00009
1.00022
1.00054
1.0014
1.00329
1.00868
1.02037
1.05331
1.13063
1.34569
1.94245
3.73021
8.7911
10.8848
10.7105
10.4772
10.4625
10.4476
10.3625
10.1495
9.75522
1
1
1.00001
1.00003
1.00008
1.00019
1.00048
1.00113
1.00298
1.00692
1.01841
1.04352
1.11374
1.28896
1.7921
3.26815
7.57808
10.8077
10.5974
10.2459
10.154
10.0442
9.78063
9.16897
7.57244
1
1
1.00001
1.00002
1.00006
1.00016
1.00038
1.00097
1.00232
1.00605
1.01428
1.03731
1.09067
1.23721
1.63028
2.79386
6.20501
10.6646
10.4648
10.044
9.84297
9.63615
9.21161
8.37115
6.70351
1
1
1.00001
1.00002
1.00005
1.00012
1.00032
1.00075
1.002
1.00457
1.0123
1.02848
1.07498
1.1846
1.49263
2.35986
4.87287
10.2617
10.1975
9.87993
9.5438
9.23935
8.72369
7.85519
6.49579
1
1
1.00001
1.00002
1.00004
1.00011
1.00024
1.00066
1.00149
1.00403
1.00927
1.0245
1.05862
1.15173
1.39229
2.08152
4.08972
9.22116
9.84472
9.65598
9.26701
8.88663
8.35077
7.54255
6.45365
1
1
1.00001
1.00001
1.00003
1.00008
1.00021
1.00048
1.00129
1.00301
1.00781
1.01885
1.04782
1.11941
1.31047
1.84258
3.39509
7.65498
9.54849
9.41422
9.06075
8.60429
8.07013
7.3419
6.43476
1
1
1
1.00001
1.00002
1.00007
1.00015
1.0004
1.00094
1.0024
1.00591
1.01455
1.03675
1.09113
1.23513
1.62573
2.75833
5.96774
9.31251
9.23467
8.92613
8.39812
7.85957
7.20494
6.42277
1
1
1
1.00001
1.00002
1.00005
1.00012
1.00029
1.0007
1.00183
1.00424
1.01124
1.0262
1.06838
1.16799
1.44391
2.2019
4.30842
8.77951
9.00921
8.78555
8.27715
7.70653
7.09749
6.4053
1
1
1
1.00001
1.00001
1.00003
1.00009
1.00021
1.00056
1.00126
1.00342
1.00778
1.02082
1.04902
1.12739
1.3242
1.87989
3.45498
7.50373
8.70329
8.56036
8.16945
7.59034
7.01323
6.394
1
1
1
1
1.00001
1.00003
1.00006
1.00015
1.0004
1.00093
1.00247
1.00564
1.01517
1.03523
1.09265
1.23023
1.61959
2.70798
5.69684
8.37979
8.33535
8.08142
7.54225
6.96076
6.38292
1
1
1
1
1.00001
1.00002
1.00005
1.00011
1.00027
1.00068
1.00163
1.0042
1.00983
1.02573
1.06111
1.15802
1.40303
2.08364
3.89093
7.71075
8.13711
7.96654
7.53376
6.9434
6.38398
1
1
1
1
1
1.00001
1.00003
1.00008
1.00018
1.00049
1.0011
1.00297
1.00673
1.01804
1.04205
1.10959
1.27463
1.73668
3.00659
6.2668
7.87123
7.79137
7.50787
6.95093
6.39148
1
1
1
1
1
1.00001
1.00002
1.00005
1.00013
1.0003
1.0008
1.00181
1.00486
1.01104
1.02949
1.06926
1.18116
1.46376
2.25127
4.31228
7.3787
7.59737
7.43408
7.00014
6.41636
1
1
1
1
1
1.00001
1.00001
1.00003
1.00009
1.0002
1.00053
1.00122
1.00316
1.00755
1.01893
1.04673
1.11676
1.2995
1.7891
3.11346
6.26602
7.37508
7.29276
7.0078
6.47243
1
1
1
1
1
1
1.00001
1.00002
1.00005
1.00013
1.00033
1.00078
1.00206
1.00471
1.01254
1.02899
1.07604
1.18577
1.49079
2.29925
4.39182
6.91674
7.10105
6.96455
6.59816
1
1
1
1
1
1
1.00001
1.00001
1.00003
1.00009
1.0002
1.00053
1.00122
1.00317
1.00752
1.01894
1.04657
1.11612
1.29679
1.77231
3.02332
5.89788
6.89511
6.84886
6.63186
1
1
1
1
1
1
1
1.00001
1.00002
1.00005
1.00012
1.00032
1.00074
1.00197
1.00447
1.0119
1.02753
1.0716
1.17488
1.45621
2.19018
4.04215
6.42644
6.7011
6.59222
1
1
1
1
1
1
1
1.00001
1.00001
1.00003
1.00008
1.0002
1.00045
1.00119
1.00273
1.00725
1.01658
1.04373
1.10369
1.27043
1.69009
2.79388
5.35019
6.46992
6.46021
1
1
1
1
1
1
1
1
1.00001
1.00002
1.00005
1.00011
1.00028
1.00067
1.00166
1.00411
1.00983
1.02495
1.05959
1.15146
1.37926
1.97374
3.40962
5.91836
6.32514
1
1
1
1
1
1
1
1
1
1.00001
1.00003
1.00006
1.00017
1.00038
1.00102
1.0023
1.00608
1.01406
1.03624
1.08715
1.22262
1.56784
2.46322
4.62827
6.00955
1
1
1
1
1
1
1
1
1
1.00001
1.00001
1.00004
1.00009
1.00022
1.00056
1.00132
1.00345
1.00785
1.02074
1.04791
1.12379
1.30366
1.77476
2.89568
5.25495
1
1
1
1
1
1
1
1
1
1
1.00001
1.00002
1.00005
1.00013
1.00029
1.00078
1.00175
1.00467
1.01062
1.02781
1.06557
1.16794
1.41981
2.06852
3.63151
1
1
1
1
1
1
1
1
1
1
1
1.00001
1.00003
1.00007
1.00017
1.00042
1.00098
1.00254
1.00582
1.01536
1.03547
1.09204
1.22426
1.57451
2.43115
1
1
1
1
1
1
1
1
1
1
1
1.00001
1.00002
1.00003
1.00009
1.00021
1.00055
1.00126
1.0033
1.00765
1.01952
1.04665
1.1167
1.28872
1.71746
1
1
1
1
1
1
1
1
1
1
1
1
1.00001
1.00002
1.00004
1.00012
1.00027
1.00068
1.00166
1.00397
1.01003
1.02359
1.06015
1.14489
1.36754
1
1
1
1
1
1
1
1
1
1
1
1
1
1.00001
1.00002
1.00006
1.00014
1.00036
1.00082
1.00213
1.00495
1.01261
1.03023
1.07518
1.18672
1
1
1
1
1
1
1
1
1
1
1
1
1
1
1.00001
1.00003
1.00007
1.00018
1.00042
1.00107
1.00248
1.00647
1.01477
1.03866
1.09068
1
1
1
1
1
1
1
1
1
1
1
1
1
1
1.00001
1.00001
1.00004
1.00008
1.00022
1.00049
1.0013
1.00295
1.00769
1.01777
1.04513
1
1
1
1
1
1
1
1
1
1
1
1
1
1
1
1.00001
1.00002
1.00004
1.0001
1.00025
1.0006
1.0015
1.00346
1.00893
1.02028
1
1
1
1
1
1
1
1
1
1
1
1
1
1
1
1
1.00001
1.00002
1.00005
1.00012
1.00028
1.0007
1.00166
1.00404
1.00995
1
1
1
1
1
1
1
1
1
1
1
1
1
1
1
1
1
1.00001
1.00002
1.00006
1.00013
1.00033
1.00074
1.00195
1.00439
1
1
1
1
1
1
1
1
1
1
1
1
1
1
1
1
1
1
1.00001
1.00002
1.00006
1.00015
1.00034
1.00089
1.002
1
1
1
1
1
1
1
1
1
1
1
1
1
1
1
1
1
1
1
1.00001
1.00003
1.00006
1.00016
1.00038
1.00092
1
1
1
1
1
1
1
1
1
1
1
1
1
1
1
1
1
1
1
1
1.00001
1.00003
1.00007
1.00016
1.00042
1
1
1
1
1
1
1
1
1
1
1
1
1
1
1
1
1
1
1
1
1
1.00001
1.00003
1.00007
1.00018
1
1
1
1
1
1
1
1
1
1
1
1
1
1
1
1
1
1
1
1
1
1.00001
1.00001
1.00003
1.00007
1
1
1
1
1
1
1
1
1
1
1
1
1
1
1
1
1
1
1
1
1
1
1.00001
1.00001
1.00003
1
1
1
1
1
1
1
1
1
1
1
1
1
1
1
1
1
1
1
1
1
1
1
1
1.00001
1
1
1
1
1
1
1
1
1
1
1
1
1
1
1
1
1
1
1
1
1
1
1
1
1
1
1
1
1
1
1
1
1
1
1
1
1
1
1
1
1
1
1
1
1
1
1
1
1
1
1
1
1
1
1
1
1
1
1
1
1
1
1
1
1
1
1
1
1
1
1
1
1
1
1
3.04942
1.5404
1.04011
0.920794
0.940787
1.00687
1.14647
1.26402
1.30101
1.29783
1.28775
1.26723
1.25354
1.24954
1.24849
1.24678
1.2433
1.23712
1.22926
1.22055
1.21159
1.20269
1.19384
1.18489
1.17569
1.16616
1.15627
1.14602
1.13547
1.12469
1.11376
1.10277
1.09176
1.08078
1.06989
1.05912
1.04853
1.03808
1.0278
1.01776
1.00797
0.998406
0.989073
0.979992
0.971175
0.962622
0.95433
0.946307
0.938552
0.931057
0.923824
0.916848
0.910144
0.903711
0.897553
0.891697
0.886125
0.880856
0.875889
0.871218
0.866855
0.862785
0.859014
0.85554
0.852339
0.849435
0.846808
0.844488
0.842449
0.840725
0.839359
0.838263
0.837511
0.836982
0.836851
0.836866
0.836956
0.837225
0.837822
0.838885
0.840055
0.841373
0.842848
0.844462
0.846274
0.848023
0.849951
0.851947
0.854204
0.856432
0.858383
0.861277
0.863011
0.866575
0.868255
0.872072
0.874074
0.878667
0.882431
0.890898
3.76918
2.35221
1.74323
1.47835
1.34748
1.25175
1.20475
1.20707
1.21719
1.2396
1.27117
1.28034
1.27848
1.27295
1.26158
1.25034
1.24127
1.23398
1.2274
1.22063
1.21317
1.20489
1.19588
1.18645
1.17672
1.16676
1.1566
1.14623
1.13563
1.12483
1.11391
1.10293
1.09192
1.08095
1.07004
1.05924
1.04866
1.03821
1.02789
1.01786
1.00808
0.99859
0.989236
0.980162
0.971358
0.962815
0.954522
0.946491
0.93873
0.931205
0.923945
0.916944
0.910229
0.903773
0.897559
0.891715
0.886071
0.88085
0.875837
0.871125
0.866735
0.862607
0.858808
0.855335
0.852217
0.849429
0.846875
0.844667
0.84264
0.840962
0.839623
0.838501
0.837646
0.837092
0.836961
0.836975
0.837064
0.837326
0.837902
0.838974
0.840139
0.841472
0.842877
0.844458
0.846213
0.848015
0.84993
0.851995
0.854168
0.856447
0.858661
0.86109
0.863536
0.866284
0.868576
0.871899
0.874132
0.878497
0.881767
0.888935
4.59419
3.27289
2.43933
1.90596
1.56172
1.34399
1.21324
1.16817
1.17137
1.18337
1.20978
1.24017
1.25934
1.2592
1.25745
1.25273
1.243
1.23308
1.22452
1.21675
1.20891
1.20082
1.19235
1.18347
1.1742
1.16453
1.15451
1.1442
1.13366
1.12294
1.1121
1.10128
1.09047
1.07959
1.06877
1.05813
1.04763
1.03726
1.02702
1.01701
1.00728
0.997834
0.988571
0.97954
0.97078
0.962283
0.954018
0.946016
0.938237
0.930707
0.923458
0.916456
0.909721
0.903263
0.897084
0.891212
0.885638
0.880365
0.875412
0.870753
0.866388
0.862397
0.858633
0.855065
0.851736
0.848735
0.846316
0.843933
0.842025
0.840237
0.838934
0.837845
0.837063
0.836509
0.83639
0.836409
0.836507
0.83678
0.8374
0.83857
0.839627
0.841132
0.84245
0.844282
0.845884
0.847888
0.849833
0.851935
0.854075
0.856304
0.858622
0.861001
0.863522
0.86621
0.868592
0.871849
0.874209
0.878317
0.881306
0.887488
5.04343
3.83732
2.94865
2.33214
1.91818
1.63684
1.45438
1.33558
1.26
1.22275
1.21919
1.22197
1.22969
1.24524
1.25405
1.25387
1.25207
1.24736
1.23748
1.22572
1.2148
1.20463
1.19512
1.18588
1.17649
1.16672
1.15653
1.146
1.13525
1.12437
1.11346
1.10257
1.0917
1.08084
1.07004
1.05936
1.04882
1.03841
1.02811
1.01808
1.00832
0.998761
0.989419
0.980387
0.971574
0.96303
0.954768
0.946688
0.938809
0.931312
0.924033
0.916982
0.910194
0.903676
0.897462
0.891523
0.88591
0.8806
0.875584
0.870851
0.866471
0.862294
0.858486
0.855081
0.851945
0.849097
0.84654
0.844251
0.842312
0.840567
0.839272
0.838159
0.837315
0.836875
0.836729
0.836743
0.836828
0.83707
0.837638
0.838837
0.83989
0.841421
0.842673
0.844556
0.84604
0.84817
0.849948
0.852134
0.854253
0.856518
0.858874
0.861301
0.86378
0.866467
0.868992
0.872107
0.87444
0.878425
0.881133
0.886643
5.31515
4.25928
3.40294
2.75627
2.28367
1.93931
1.68759
1.50296
1.37337
1.28215
1.22812
1.20576
1.20609
1.20856
1.21454
1.22476
1.22899
1.2287
1.22709
1.22289
1.21414
1.20336
1.19267
1.18224
1.172
1.16181
1.15161
1.14136
1.13102
1.1206
1.1101
1.09954
1.08893
1.07831
1.06769
1.05718
1.04683
1.03656
1.02639
1.0164
1.00673
0.997246
0.987995
0.978997
0.970217
0.961661
0.953376
0.945332
0.937562
0.930026
0.922758
0.915749
0.908998
0.902528
0.896341
0.890444
0.884851
0.879557
0.874566
0.869897
0.865513
0.861461
0.857731
0.854206
0.850971
0.848065
0.845456
0.843176
0.841205
0.839506
0.838166
0.837129
0.836327
0.835864
0.835778
0.835806
0.835927
0.836235
0.836908
0.83805
0.839155
0.840745
0.842009
0.844081
0.845542
0.847831
0.849559
0.851968
0.854019
0.856502
0.858824
0.861285
0.863788
0.866599
0.869059
0.872357
0.874605
0.878693
0.881205
0.886402
5.49633
4.5817
3.78595
3.14121
2.63797
2.25144
1.95621
1.73208
1.56282
1.43583
1.34444
1.27796
1.2379
1.21622
1.21076
1.21158
1.21371
1.21839
1.22042
1.21988
1.21779
1.21287
1.20282
1.19059
1.17805
1.16595
1.15448
1.14357
1.13299
1.12256
1.11215
1.10168
1.09115
1.08054
1.0699
1.05939
1.04903
1.03868
1.0284
1.01835
1.00857
0.998995
0.989657
0.980527
0.971626
0.963
0.954627
0.946516
0.938676
0.931112
0.923817
0.916759
0.909973
0.903479
0.897265
0.891336
0.885699
0.880356
0.875319
0.870578
0.866135
0.862003
0.858144
0.854628
0.851433
0.848544
0.84594
0.843649
0.841669
0.839963
0.838598
0.837565
0.836748
0.83627
0.836198
0.836223
0.836336
0.836651
0.837353
0.83848
0.83972
0.841242
0.842588
0.844694
0.846178
0.848611
0.85035
0.852909
0.854974
0.857574
0.859863
0.862568
0.864986
0.868004
0.870289
0.873809
0.875939
0.880039
0.882372
0.88728
5.61829
4.82178
4.09453
3.47289
2.96196
2.55151
2.22512
1.96707
1.76291
1.60168
1.47519
1.37735
1.304
1.25186
1.22066
1.20462
1.19786
1.19754
1.19779
1.19835
1.1981
1.19689
1.19374
1.187
1.17627
1.1644
1.15244
1.14081
1.1296
1.11875
1.10818
1.09779
1.0875
1.07722
1.06693
1.05674
1.04667
1.03651
1.02635
1.01643
1.00671
0.997195
0.987921
0.978846
0.969937
0.961328
0.953071
0.944969
0.937206
0.929668
0.922387
0.915366
0.908543
0.90212
0.895955
0.890055
0.884432
0.879093
0.87405
0.869307
0.864862
0.860721
0.856897
0.853371
0.850154
0.847265
0.84466
0.842365
0.84039
0.838688
0.837338
0.83633
0.835526
0.835109
0.835079
0.835123
0.835288
0.835682
0.836502
0.837822
0.839206
0.840894
0.842634
0.844739
0.846607
0.849334
0.85137
0.85434
0.856481
0.859486
0.861897
0.865122
0.867481
0.871007
0.873135
0.876981
0.879005
0.883126
0.885325
0.890179
5.70931
5.0069
4.34384
3.75482
3.25106
2.83096
2.48506
2.20272
1.97324
1.78688
1.63634
1.5153
1.41848
1.34334
1.28518
1.24193
1.21469
1.19848
1.19055
1.18728
1.18618
1.18571
1.18468
1.18234
1.17753
1.16874
1.15811
1.14648
1.13449
1.12262
1.11112
1.10009
1.08944
1.07906
1.06885
1.05876
1.04871
1.03867
1.02866
1.01875
1.00898
0.999432
0.990089
0.980927
0.972034
0.963457
0.95506
0.946898
0.939157
0.931651
0.924292
0.917069
0.91027
0.903795
0.897564
0.891594
0.885901
0.880491
0.875377
0.870562
0.866042
0.86183
0.857927
0.854329
0.851046
0.848092
0.845449
0.843087
0.841064
0.839333
0.837969
0.836959
0.836174
0.835845
0.835855
0.835955
0.836243
0.836863
0.8381
0.839728
0.841689
0.843975
0.846376
0.849163
0.852038
0.855255
0.858216
0.861802
0.864784
0.869016
0.871775
0.876058
0.878435
0.882627
0.884592
0.888548
0.890272
0.893902
0.895716
0.900186
5.77073
5.14619
4.54389
3.99231
3.50508
3.08576
2.73057
2.43265
2.18418
1.97772
1.80632
1.66445
1.54698
1.4504
1.37141
1.30887
1.25958
1.22255
1.19873
1.18386
1.17524
1.17074
1.16791
1.16576
1.16308
1.15844
1.15169
1.14296
1.13271
1.12155
1.1101
1.09874
1.08765
1.07689
1.06645
1.05628
1.04631
1.03646
1.02672
1.01707
1.00753
0.998151
0.988919
0.979838
0.971004
0.962455
0.954084
0.945912
0.938177
0.930749
0.923382
0.916134
0.909284
0.902792
0.896526
0.890511
0.884767
0.879308
0.874146
0.869288
0.864735
0.860499
0.856574
0.85296
0.849681
0.846709
0.844032
0.841728
0.839768
0.838111
0.836849
0.835955
0.835383
0.83543
0.83563
0.836112
0.837106
0.838846
0.841192
0.844129
0.847583
0.851668
0.856265
0.861433
0.866925
0.872968
0.878905
0.88533
0.890815
0.897027
0.901323
0.907659
0.910422
0.915306
0.916884
0.920283
0.921193
0.923331
0.923964
0.927411
5.82146
5.25602
4.70482
4.19026
3.72488
3.3141
2.95741
2.65119
2.38995
2.16827
1.98011
1.821
1.68648
1.57335
1.47844
1.39972
1.33451
1.28246
1.24028
1.20785
1.1855
1.17053
1.16111
1.15538
1.15149
1.14816
1.14432
1.13911
1.13224
1.12373
1.11387
1.10306
1.09179
1.08048
1.06942
1.05871
1.0484
1.03842
1.02869
1.01915
1.00974
1.00047
0.991312
0.982264
0.973403
0.964779
0.956327
0.948055
0.940172
0.932655
0.925204
0.917923
0.910997
0.904445
0.898137
0.89209
0.886308
0.880805
0.87559
0.870674
0.866054
0.861744
0.857752
0.854071
0.850738
0.847746
0.845068
0.842812
0.840965
0.839488
0.838511
0.838325
0.838559
0.839232
0.840682
0.843377
0.84725
0.852457
0.859068
0.867187
0.876676
0.887495
0.899304
0.91203
0.924972
0.938307
0.95078
0.96324
0.973448
0.983627
0.990029
0.998529
1.00123
1.00556
1.00551
1.00542
1.00408
1.00169
0.996131
0.998863
5.85913
5.3405
4.83665
4.35818
3.9165
3.51806
3.16469
2.85506
2.58581
2.35308
2.15239
1.97985
1.83155
1.70446
1.59539
1.50232
1.42295
1.35621
1.30018
1.25453
1.21744
1.18867
1.16787
1.15342
1.14356
1.13683
1.13165
1.12702
1.1221
1.11608
1.10885
1.10023
1.09061
1.08027
1.06954
1.05867
1.04817
1.03796
1.02803
1.01836
1.00892
0.999679
0.990602
0.981662
0.972884
0.96429
0.955853
0.947566
0.939569
0.931953
0.924468
0.917153
0.910205
0.903624
0.897317
0.891281
0.885505
0.879993
0.874765
0.869824
0.865167
0.86081
0.856779
0.853083
0.849768
0.846858
0.844386
0.842489
0.841203
0.841038
0.841551
0.843044
0.846186
0.851297
0.85909
0.869684
0.883326
0.90015
0.920009
0.942725
0.967722
0.994376
1.02178
1.0497
1.07632
1.10151
1.12362
1.14397
1.15957
1.17376
1.18193
1.18958
1.19041
1.18967
1.18601
1.18109
1.17089
1.16091
1.14146
1.14699
5.90405
5.42154
4.95458
4.50654
4.08688
3.70184
3.35434
3.04457
2.7708
2.53041
2.32015
2.13682
1.97717
1.83835
1.71768
1.61296
1.52214
1.44375
1.37628
1.31877
1.27009
1.2298
1.19686
1.17076
1.15094
1.13665
1.12635
1.11892
1.11305
1.10785
1.10252
1.09661
1.08979
1.08155
1.07227
1.06239
1.05192
1.04132
1.03085
1.0207
1.01086
1.00137
0.992183
0.98326
0.974576
0.966097
0.957787
0.949634
0.941686
0.934033
0.926602
0.919321
0.912344
0.9057
0.899314
0.893187
0.887315
0.881711
0.876416
0.871424
0.866724
0.862353
0.858382
0.854877
0.851937
0.849784
0.848484
0.849024
0.850671
0.853999
0.860722
0.871622
0.887515
0.908854
0.936257
0.96939
1.00858
1.05318
1.1013
1.15263
1.20641
1.26
1.30923
1.35256
1.38738
1.4163
1.43684
1.45326
1.46164
1.46688
1.46832
1.46706
1.46363
1.45892
1.44987
1.44101
1.42353
1.40897
1.37867
1.3883
5.96407
5.50042
5.06102
4.63964
4.24002
3.86828
3.52793
3.22018
2.94441
2.69907
2.48183
2.29011
2.12133
1.97287
1.84245
1.72789
1.62729
1.53904
1.46173
1.39421
1.3355
1.28485
1.24162
1.20523
1.17537
1.15127
1.13251
1.11836
1.10781
1.0998
1.09326
1.08751
1.08162
1.07546
1.06846
1.06048
1.05161
1.04203
1.03205
1.02191
1.01187
1.00206
0.99255
0.983367
0.974519
0.965977
0.957699
0.949702
0.941963
0.934463
0.927157
0.919999
0.912992
0.906214
0.899705
0.893415
0.887333
0.88162
0.876252
0.871236
0.866638
0.862463
0.859148
0.856731
0.856214
0.8574
0.860876
0.868142
0.880958
0.901252
0.930724
0.969498
1.01859
1.07821
1.14751
1.2281
1.31262
1.39073
1.45653
1.50719
1.54136
1.56118
1.5718
1.57655
1.57622
1.57396
1.57077
1.56578
1.56043
1.55463
1.54917
1.54372
1.53757
1.53242
1.52566
1.52059
1.51235
1.50739
1.49688
1.50096
6.06224
5.59301
5.16479
4.76118
4.37859
4.01951
3.68707
3.38295
3.10721
2.85904
2.63689
2.43878
2.26265
2.10628
1.96762
1.84468
1.73569
1.63904
1.55337
1.47746
1.41032
1.35113
1.29922
1.25405
1.21522
1.18221
1.1548
1.13242
1.11468
1.10088
1.09027
1.08202
1.07528
1.06932
1.06354
1.05727
1.05024
1.04238
1.03383
1.02474
1.01531
1.00573
0.996196
0.986834
0.977747
0.96899
0.960575
0.95246
0.944606
0.937029
0.929625
0.922355
0.915231
0.9083
0.901634
0.895314
0.889252
0.883579
0.878547
0.874018
0.870439
0.868192
0.869084
0.872214
0.87875
0.892245
0.915254
0.951393
1.00053
1.06627
1.14608
1.24717
1.36034
1.46051
1.54121
1.59206
1.61815
1.63003
1.6334
1.63148
1.62796
1.62231
1.61549
1.60878
1.60107
1.59403
1.5865
1.57927
1.57197
1.56555
1.55856
1.55309
1.54658
1.54119
1.53485
1.52987
1.52297
1.5183
1.50949
1.51018
6.17606
5.69
5.26189
4.87109
4.50355
4.15705
3.83306
3.53368
3.25951
3.01031
2.78507
2.58234
2.40046
2.23763
2.09204
1.96195
1.84569
1.74177
1.64882
1.56566
1.49128
1.42479
1.3655
1.3128
1.26625
1.22545
1.1901
1.15988
1.13446
1.11355
1.09675
1.08341
1.07284
1.06435
1.05722
1.05101
1.04499
1.03867
1.03175
1.02413
1.01586
1.00711
0.998029
0.988813
0.979624
0.970587
0.961785
0.953275
0.945059
0.937121
0.929478
0.9222
0.915159
0.908518
0.902199
0.896282
0.890714
0.886003
0.882384
0.880952
0.882771
0.888308
0.899757
0.921497
0.959887
1.01541
1.09233
1.19062
1.32074
1.45582
1.56569
1.63614
1.67014
1.68392
1.68668
1.68373
1.67751
1.66904
1.65944
1.64936
1.63917
1.62958
1.62003
1.61124
1.60237
1.5942
1.58578
1.57832
1.57031
1.56412
1.55643
1.55128
1.54425
1.53953
1.53312
1.52892
1.52203
1.51802
1.50969
1.51064
6.30008
5.80711
5.36866
4.97963
4.61965
4.28334
3.96826
3.67426
3.40266
3.15365
2.92666
2.72067
2.53437
2.36631
2.21494
2.07874
1.95619
1.84591
1.74658
1.65706
1.57633
1.5035
1.43783
1.37872
1.32564
1.2782
1.23607
1.19897
1.16663
1.13886
1.11532
1.09576
1.07985
1.06703
1.05666
1.04819
1.04105
1.03461
1.02834
1.02187
1.01495
1.00749
0.999568
0.991261
0.982693
0.974006
0.96533
0.956785
0.948456
0.940405
0.932687
0.925308
0.91845
0.911987
0.906057
0.90109
0.897607
0.898088
0.901664
0.909574
0.927768
0.963085
1.02017
1.10189
1.21149
1.36178
1.51836
1.64066
1.70558
1.73333
1.74345
1.74102
1.73454
1.72365
1.71044
1.69698
1.68394
1.67164
1.65976
1.64827
1.63674
1.62569
1.61454
1.60424
1.59382
1.58443
1.57475
1.56654
1.55779
1.55108
1.54312
1.5377
1.53089
1.52637
1.5204
1.51678
1.51068
1.50743
1.5009
1.50125
6.30691
5.95359
5.49218
5.09022
4.73349
4.40336
4.09413
3.80539
3.53721
3.28949
3.06189
2.85382
2.66426
2.49206
2.33592
2.19449
2.06649
1.95059
1.84562
1.75044
1.66408
1.58564
1.51439
1.44966
1.39094
1.33778
1.28984
1.2468
1.20843
1.17452
1.14482
1.11918
1.0973
1.07892
1.06375
1.05133
1.04113
1.03256
1.02515
1.01841
1.01194
1.00541
0.998584
0.991359
0.983767
0.975856
0.967715
0.959465
0.951228
0.943125
0.9353
0.927911
0.921333
0.915955
0.912572
0.914171
0.919827
0.932075
0.958258
1.00883
1.08791
1.19896
1.36003
1.54013
1.68935
1.76242
1.79459
1.80537
1.80106
1.79019
1.77545
1.75828
1.7412
1.72525
1.70991
1.69472
1.67928
1.66416
1.64894
1.63435
1.61987
1.60627
1.59291
1.58072
1.56871
1.55807
1.54745
1.53848
1.5293
1.52199
1.5142
1.50836
1.50195
1.49754
1.4922
1.48898
1.48393
1.48151
1.47716
1.47663
6.26061
6.05054
5.62556
5.20866
4.84527
4.51771
4.21402
3.93033
3.66577
3.41954
3.19184
2.98248
2.79061
2.61515
2.45507
2.30916
2.17634
2.05545
1.9454
1.84513
1.7537
1.67022
1.59395
1.52424
1.46052
1.40236
1.34935
1.30119
1.25762
1.21839
1.18333
1.15223
1.12486
1.10109
1.08063
1.06326
1.04868
1.03658
1.02647
1.01786
1.0103
1.00339
0.9968
0.990268
0.98356
0.976605
0.969397
0.961973
0.954474
0.947161
0.940334
0.935135
0.932302
0.934546
0.941753
0.959657
0.993737
1.06116
1.16513
1.31686
1.5206
1.70973
1.81143
1.85467
1.87158
1.86714
1.85536
1.83705
1.81551
1.79527
1.77587
1.75672
1.73697
1.71723
1.69724
1.6776
1.65814
1.63953
1.62136
1.60433
1.58783
1.57267
1.55801
1.54483
1.53204
1.52083
1.50987
1.50052
1.49132
1.48373
1.47616
1.47016
1.46409
1.45963
1.45481
1.45156
1.44771
1.44485
1.44355
1.44099
6.12871
6.02788
5.77063
5.34455
4.96537
4.63355
4.33215
4.05155
3.78904
3.54476
3.31782
3.10769
2.91393
2.73577
2.5723
2.42254
2.2855
2.16017
2.04557
1.9407
1.84465
1.75659
1.67576
1.60151
1.53329
1.47063
1.41314
1.36048
1.31235
1.26852
1.22876
1.19287
1.16071
1.132
1.10661
1.08439
1.06509
1.04849
1.03435
1.02243
1.01232
1.00363
0.995949
0.988945
0.98235
0.975937
0.969595
0.963392
0.957812
0.953024
0.952716
0.955416
0.964321
0.986344
1.02975
1.11368
1.23891
1.44585
1.67221
1.84571
1.90886
1.93994
1.94084
1.93107
1.90964
1.88486
1.86043
1.83695
1.81336
1.78919
1.7643
1.7393
1.71444
1.69026
1.66666
1.64418
1.62253
1.60229
1.5829
1.56505
1.54798
1.53249
1.51764
1.50439
1.49165
1.48046
1.4697
1.46036
1.45145
1.44382
1.43657
1.4305
1.42479
1.42003
1.41583
1.41198
1.40931
1.40587
1.40483
1.40254
5.94299
5.92916
5.80009
5.5066
5.11118
4.76191
4.45318
4.17198
3.90962
3.66566
3.43933
3.22895
3.03387
2.85365
2.68745
2.53442
2.39372
2.26448
2.14579
2.03676
1.93652
1.84427
1.75926
1.68086
1.60853
1.54179
1.48023
1.42351
1.37132
1.32341
1.27953
1.23947
1.20301
1.17004
1.1403
1.1136
1.08986
1.06887
1.05049
1.03448
1.02068
1.00889
0.998832
0.990168
0.982624
0.975979
0.970935
0.967456
0.968691
0.973122
0.98511
1.0098
1.06252
1.16432
1.31061
1.56346
1.8141
1.95045
2.00355
2.02179
2.01289
1.9931
1.96803
1.93867
1.91076
1.88306
1.85412
1.82426
1.79399
1.76393
1.73437
1.70584
1.67834
1.65232
1.6275
1.60437
1.58238
1.56213
1.54288
1.52533
1.5086
1.4935
1.47906
1.46617
1.45383
1.44292
1.43251
1.42339
1.41474
1.40722
1.40022
1.39409
1.3886
1.38369
1.37964
1.37571
1.37296
1.36968
1.36851
1.36608
5.48024
5.8043
5.76062
5.60342
5.27516
4.9051
4.5808
4.29291
4.03052
3.7869
3.55979
3.34886
3.15209
2.96945
2.80067
2.64479
2.50091
2.36821
2.24587
2.13307
2.029
1.9329
1.84405
1.76184
1.68572
1.61522
1.54992
1.4895
1.43362
1.38201
1.33444
1.29066
1.25046
1.21364
1.18004
1.14947
1.12174
1.0967
1.07427
1.05429
1.03666
1.0212
1.00782
0.996501
0.987575
0.981428
0.982737
0.987788
1.00029
1.0277
1.08628
1.20118
1.36609
1.64991
1.92709
2.04033
2.09429
2.0985
2.0862
2.05973
2.02933
1.99777
1.96589
1.93277
1.89813
1.86269
1.82722
1.79245
1.75869
1.72631
1.6954
1.66625
1.63866
1.61294
1.58861
1.56613
1.54481
1.52526
1.50665
1.48972
1.47353
1.4589
1.44489
1.43232
1.42031
1.4096
1.39942
1.3904
1.38192
1.37444
1.36752
1.36141
1.35594
1.35102
1.34691
1.34294
1.34018
1.33679
1.33557
1.33303
4.39854
5.50925
5.65777
5.58719
5.40584
5.05209
4.71462
4.41602
4.14862
3.90352
3.67596
3.46416
3.26735
3.08419
2.91294
2.75394
2.60699
2.4712
2.34561
2.22941
2.12184
2.0222
1.92981
1.84408
1.76445
1.69047
1.62172
1.55786
1.49858
1.44358
1.39263
1.34547
1.3019
1.26169
1.22463
1.1906
1.15936
1.13079
1.10473
1.0811
1.05988
1.04105
1.02464
1.01187
1.0065
1.00942
1.02067
1.04803
1.10739
1.22303
1.40089
1.70218
2.00497
2.12065
2.17971
2.17587
2.15794
2.12822
2.09335
2.05881
2.02203
1.98302
1.94288
1.90259
1.86287
1.82432
1.78727
1.75199
1.71847
1.68686
1.65701
1.62906
1.60264
1.57806
1.55472
1.53314
1.51254
1.49361
1.47548
1.4589
1.44299
1.42852
1.41467
1.40212
1.39017
1.3794
1.36922
1.36011
1.35159
1.34401
1.33705
1.33085
1.32535
1.32036
1.31624
1.31222
1.30945
1.30606
1.30481
1.30216
2.71529
4.78186
5.45473
5.49565
5.40797
5.19946
4.8602
4.54659
4.27007
4.02101
3.79209
3.57918
3.38092
3.19575
3.02346
2.86321
2.71297
2.57363
2.4448
2.32547
2.21477
2.11193
2.01629
1.92731
1.84443
1.76722
1.69526
1.62821
1.56575
1.50761
1.45352
1.40325
1.35658
1.31327
1.27314
1.23596
1.20162
1.16993
1.14079
1.11411
1.09017
1.06941
1.05262
1.0529
1.0606
1.08153
1.13737
1.24777
1.43014
1.74166
2.06911
2.19855
2.26703
2.25959
2.23602
2.20014
2.15935
2.11886
2.0756
2.03055
1.98543
1.94125
1.89852
1.85756
1.8185
1.78143
1.74631
1.7131
1.68165
1.65195
1.6238
1.59729
1.57208
1.54843
1.52582
1.50475
1.4845
1.46575
1.44772
1.4311
1.41513
1.40049
1.38647
1.37368
1.36153
1.3505
1.34011
1.33075
1.32204
1.31424
1.30714
1.30077
1.29517
1.29007
1.2859
1.28187
1.27908
1.27575
1.27448
1.27173
1.9057
3.18853
4.94002
5.36021
5.35069
5.25336
5.0307
4.70313
4.40636
4.14583
3.9112
3.69583
3.49498
3.30767
3.13348
2.97034
2.81888
2.67758
2.54507
2.42214
2.30811
2.20217
2.10348
2.01144
1.92551
1.84528
1.7703
1.70027
1.63483
1.57374
1.51671
1.46353
1.41396
1.3678
1.32483
1.28489
1.24776
1.21351
1.18209
1.15341
1.13058
1.11584
1.12043
1.13987
1.18594
1.28668
1.46921
1.78925
2.14912
2.29981
2.37328
2.3644
2.33494
2.28593
2.23488
2.18471
2.13311
2.08135
2.03096
1.98277
1.93708
1.89397
1.85324
1.81473
1.77824
1.74371
1.7109
1.67974
1.65002
1.62177
1.59477
1.56915
1.5446
1.5214
1.49909
1.47814
1.45795
1.4391
1.42096
1.4041
1.38793
1.37298
1.3587
1.34558
1.33314
1.32176
1.31111
1.30141
1.29248
1.28438
1.2771
1.27052
1.26479
1.25957
1.25533
1.25126
1.24845
1.24518
1.24386
1.24099
1.46589
2.1527
3.72789
4.99505
5.24107
5.21534
5.10553
4.86912
4.56035
4.28199
4.03643
3.81487
3.61174
3.42224
3.24454
3.07889
2.92449
2.77995
2.64573
2.52028
2.40284
2.2934
2.19157
2.09654
2.00769
1.92457
1.84674
1.77387
1.70563
1.64175
1.58196
1.52603
1.47375
1.42493
1.37939
1.33708
1.29775
1.26213
1.23116
1.20498
1.20557
1.21881
1.25409
1.34537
1.52135
1.84899
2.25174
2.44188
2.52045
2.50738
2.47082
2.40695
2.33794
2.27497
2.21175
2.15038
2.0923
2.03794
1.98719
1.9397
1.89573
1.85481
1.81609
1.77929
1.74443
1.71141
1.67985
1.64974
1.62086
1.5933
1.56683
1.54161
1.51736
1.49432
1.47214
1.45118
1.431
1.41202
1.39379
1.37672
1.36039
1.34518
1.33069
1.31727
1.30459
1.29291
1.28202
1.27202
1.26288
1.2545
1.24705
1.24025
1.23438
1.22903
1.22471
1.22059
1.21773
1.21452
1.21311
1.2101
1.23144
1.5652
2.35992
4.09662
4.96625
5.11965
5.08128
4.96257
4.71593
4.42853
4.16862
3.93792
3.72909
3.5367
3.35746
3.18936
3.03178
2.88434
2.74672
2.61797
2.49822
2.38598
2.28083
2.18267
2.0909
2.00498
1.92442
1.84888
1.77798
1.71149
1.6491
1.59063
1.53587
1.48472
1.43708
1.39363
1.35378
1.32207
1.3072
1.31524
1.34879
1.4282
1.59077
1.91137
2.36832
2.6264
2.71298
2.69682
2.65057
2.57241
2.48971
2.40989
2.3329
2.26061
2.19323
2.13004
2.07076
2.01532
1.96335
1.91472
1.86911
1.82635
1.78663
1.74943
1.71489
1.68227
1.65104
1.62126
1.59264
1.56532
1.53903
1.51393
1.48978
1.46676
1.44463
1.42362
1.40345
1.38435
1.36608
1.34884
1.33242
1.31701
1.30238
1.28874
1.2759
1.26399
1.25292
1.2427
1.23339
1.22481
1.21721
1.21025
1.20427
1.19882
1.19444
1.1903
1.1874
1.18425
1.18278
1.17962
1.10789
1.26852
1.64704
2.50235
4.25911
4.89915
4.99764
4.95023
4.82595
4.57445
4.30771
4.06615
3.84916
3.65183
3.46935
3.29888
3.13917
2.98945
2.84904
2.71749
2.59428
2.4791
2.37151
2.2702
2.1753
2.08649
2.00325
1.92514
1.85176
1.78284
1.71812
1.65742
1.60077
1.54829
1.50014
1.46111
1.42966
1.43479
1.46214
1.52678
1.67756
1.97364
2.48474
2.84507
2.95106
2.93436
2.87661
2.78212
2.68312
2.58853
2.49606
2.40909
2.33003
2.25571
2.18651
2.12223
2.06204
2.00582
1.9529
1.90346
1.85651
1.81234
1.77035
1.73106
1.6938
1.65943
1.62704
1.59642
1.56711
1.53926
1.51251
1.48706
1.46262
1.43935
1.41704
1.39583
1.37552
1.35625
1.33786
1.32046
1.30391
1.28833
1.2736
1.2598
1.24684
1.23478
1.22359
1.21323
1.2038
1.19509
1.18741
1.18035
1.17432
1.16883
1.16445
1.16034
1.15745
1.15444
1.15296
1.14972
1.05256
1.12239