/*--------------------------------*- C++ -*----------------------------------*\
  =========                 |
  \\      /  F ield         | OpenFOAM: The Open Source CFD Toolbox
   \\    /   O peration     | Website:  https://openfoam.org
    \\  /    A nd           | Version:  9
     \\/     M anipulation  |
\*---------------------------------------------------------------------------*/
FoamFile
{
    format      ascii;
    class       surfaceScalarField;
    location    "1";
    object      phi;
}
// * * * * * * * * * * * * * * * * * * * * * * * * * * * * * * * * * * * * * //

dimensions      [1 0 -1 0 0 0 0];

internalField   nonuniform List<scalar> 
10325
(
0.00840003
2.6165e-11
0.00840003
6.91638e-11
0.00840002
5.49654e-10
0.00840005
6.73627e-10
0.00839994
3.88522e-09
0.00840017
5.72242e-09
0.00839937
2.18876e-08
0.00840106
4.59962e-08
0.00839612
1.21783e-07
0.00840472
3.35488e-07
0.00838369
7.5613e-07
0.00840137
2.25684e-06
0.00835383
6.12827e-06
0.00832545
2.03861e-05
0.00812836
7.76021e-05
0.0073861
0.00040581
0.00678869
0.000679749
0.00619011
0.000650395
0.00552374
0.000691218
0.00477684
0.000754331
0.00392906
0.000831762
0.00302248
0.000903544
0.00205951
0.000956595
0.00104652
0.000990216
0.000981805
0.00840003
3.59081e-11
0.00840003
1.91393e-10
0.00840003
7.80434e-10
0.00840001
1.87382e-09
0.00840003
5.78171e-09
0.00839995
1.32423e-08
0.00839987
3.62585e-08
0.00839992
8.83842e-08
0.00839835
2.33401e-07
0.00839991
5.82654e-07
0.0083919
1.55564e-06
0.00839138
4.10979e-06
0.00836631
1.19369e-05
0.00832509
3.80146e-05
0.0081496
0.000144592
0.00749301
0.000735573
0.00686603
0.0013752
0.00623196
0.00133154
0.0055474
0.00139862
0.00479144
0.00151667
0.00392834
0.00167613
0.00301056
0.0018157
0.00204178
0.0019177
0.00103008
0.00197902
0.00194772
0.00840003
4.7639e-11
0.00840003
3.11007e-10
0.00840004
1.04648e-09
0.0084
3.08076e-09
0.00840005
7.9323e-09
0.00839994
2.04389e-08
0.00839992
5.14369e-08
0.00839988
1.27084e-07
0.00839867
3.23176e-07
0.00839978
8.05251e-07
0.00839355
2.08239e-06
0.00839259
5.44911e-06
0.00837328
1.54695e-05
0.00834027
4.86622e-05
0.00820783
0.000181384
0.0077483
0.000908038
0.00704927
0.0020895
0.00632913
0.00207845
0.00561233
0.00213236
0.00484474
0.0022881
0.00397318
0.00252436
0.0030463
0.00273226
0.0020682
0.00288592
0.00104452
0.00297982
0.00292983
0.00840003
6.24168e-11
0.00840003
4.01871e-10
0.00840003
1.36275e-09
0.00840001
3.96471e-09
0.00840004
1.0257e-08
0.00839995
2.63313e-08
0.00839993
6.59038e-08
0.00839989
1.62666e-07
0.00839879
4.09192e-07
0.00839993
1.01353e-06
0.0083944
2.57907e-06
0.00839478
6.637e-06
0.00838013
1.83087e-05
0.00835909
5.5602e-05
0.00828845
0.000195761
0.00808238
0.00092152
0.00724618
0.00286678
0.00644089
0.00288704
0.00570134
0.00288651
0.00493275
0.00305935
0.00406047
0.00336846
0.00312794
0.00365055
0.00213494
0.00386731
0.00108425
0.0040089
0.00395385
0.00840003
7.42239e-11
0.00840003
4.91924e-10
0.00840003
1.62303e-09
0.00840001
4.79797e-09
0.00840004
1.23376e-08
0.00839996
3.16487e-08
0.00839993
7.86852e-08
0.00839993
1.94774e-07
0.0083988
4.89399e-07
0.00840016
1.20686e-06
0.00839445
3.06368e-06
0.00839612
7.8275e-06
0.00838194
2.13293e-05
0.00836416
6.38437e-05
0.0083041
0.000219084
0.00810545
0.000999304
0.00734311
0.00348869
0.00652772
0.00367803
0.00579724
0.00362762
0.00505021
0.00380845
0.00418462
0.00420431
0.00325479
0.0045644
0.00224979
0.0048604
0.00115697
0.00508115
0.00505284
0.00840003
8.9353e-11
0.00840003
5.58793e-10
0.00840003
1.94384e-09
0.00840001
5.49919e-09
0.00840003
1.45139e-08
0.00839998
3.65656e-08
0.00839989
9.14615e-08
0.00840007
2.25776e-07
0.00839851
5.64995e-07
0.00840102
1.39076e-06
0.0083932
3.50345e-06
0.00839886
8.92435e-06
0.0083811
2.39993e-05
0.00836952
7.10182e-05
0.00832076
0.000239753
0.00815278
0.00106327
0.00740447
0.00409549
0.00658
0.00446583
0.00591709
0.0043065
0.00520302
0.00452819
0.00434987
0.00502324
0.00342916
0.00546749
0.0024047
0.00587073
0.00126042
0.00620281
0.00625696
0.00840003
1.0214e-10
0.00840003
6.3813e-10
0.00840003
2.22012e-09
0.00840002
6.29095e-09
0.00840002
1.64988e-08
0.00839999
4.18606e-08
0.00839985
1.046e-07
0.0084002
2.59341e-07
0.0083982
6.44773e-07
0.00840184
1.59649e-06
0.00839177
3.99857e-06
0.00840123
1.01595e-05
0.00837853
2.72217e-05
0.00837107
7.93299e-05
0.00831438
0.000264098
0.00817851
0.00111359
0.00740315
0.00473099
0.00678896
0.00502975
0.0061195
0.00499924
0.00536578
0.00528657
0.00456507
0.00578276
0.00366898
0.00634283
0.00263897
0.00688656
0.00143264
0.00739182
0.00763739
0.00840003
1.09477e-10
0.00840003
7.08056e-10
0.00840003
2.37556e-09
0.00840002
7.00588e-09
0.00840002
1.78029e-08
0.00840001
4.63757e-08
0.00839981
1.15608e-07
0.00840033
2.81434e-07
0.00839797
7.27296e-07
0.0084026
1.70181e-06
0.0083907
4.51069e-06
0.00840379
1.09085e-05
0.00837703
2.98252e-05
0.00837389
8.5058e-05
0.00833696
0.00028215
0.00822687
0.00113811
0.00755393
0.00523193
0.00696367
0.00560879
0.00633529
0.00562929
0.0056076
0.00600092
0.00484583
0.00649727
0.00399321
0.007178
0.0029677
0.00790805
0.00169952
0.00865138
0.0092891
0.00840003
1.45738e-10
0.00840003
6.63049e-10
0.00840002
2.94627e-09
0.00840004
6.48996e-09
0.00839997
2.18498e-08
0.00840014
4.35806e-08
0.00839958
1.39065e-07
0.00840086
2.74598e-07
0.0083973
8.46893e-07
0.00840474
1.7315e-06
0.00838725
5.08624e-06
0.00841055
1.14594e-05
0.00836984
3.23505e-05
0.00838484
8.9504e-05
0.00832675
0.000293998
0.00825943
0.00114529
0.00774478
0.00553658
0.00713243
0.00622371
0.00654318
0.00621778
0.00592108
0.00660533
0.00521997
0.00716908
0.00444321
0.00795488
0.00352637
0.00883183
0.0021903
0.00999342
0.0114416
0.00840003
1.06181e-10
0.00840003
8.5191e-10
0.00840003
2.50695e-09
0.00840003
8.4133e-09
0.00840002
1.87851e-08
0.00839998
5.67226e-08
0.00840005
1.17834e-07
0.00839948
3.57618e-07
0.00840068
7.22896e-07
0.00839635
2.20079e-06
0.00840302
4.59847e-06
0.00838683
1.33492e-05
0.00839638
3.21701e-05
0.00836563
9.45536e-05
0.00834821
0.000298074
0.00828508
0.00113306
0.00803095
0.00555586
0.00743544
0.0068434
0.00685837
0.00680861
0.00634369
0.00711518
0.0057572
0.00772703
0.00514759
0.00854903
0.00430759
0.00966455
0.00300003
0.0112908
0.0144104
0.00840003
1.34448e-10
0.00840003
7.16843e-10
0.00840003
2.7908e-09
0.00840002
7.03048e-09
0.00840002
2.11446e-08
0.00840002
4.66458e-08
0.00839989
1.37599e-07
0.00840022
2.90113e-07
0.00839866
8.65237e-07
0.0084018
1.81013e-06
0.00839293
5.34701e-06
0.00840434
1.19774e-05
0.00838051
3.39675e-05
0.00838775
9.11777e-05
0.00835659
0.000291378
0.0083649
0.00107475
0.00858349
0.00508644
0.00798463
0.00747294
0.00733366
0.00746598
0.00684008
0.00758638
0.00637776
0.0081487
0.00595223
0.00895749
0.00561632
0.00999755
0.00566698
0.011248
0.0114797
0.00858478
0.00840003
9.06053e-11
0.00840003
6.94402e-10
0.00840003
2.12807e-09
0.00840003
6.91923e-09
0.00840002
1.59942e-08
0.00840002
4.71214e-08
0.00840003
1.01962e-07
0.00839979
2.97923e-07
0.00840041
6.39971e-07
0.00839809
1.85384e-06
0.00840245
4.09964e-06
0.00839303
1.15267e-05
0.00840365
2.80341e-05
0.00839292
8.00345e-05
0.00842598
0.000241581
0.00856789
0.00087111
0.00952301
0.00385155
0.00883815
0.00817391
0.00803253
0.00828667
0.00754702
0.00806679
0.00716003
0.00852469
0.00687597
0.00923611
0.00683149
0.0100531
0.00729943
0.0108087
0.0106178
0.00818265
0.00840003
1.01491e-10
0.00840003
5.0846e-10
0.00840003
2.12255e-09
0.00840003
5.04226e-09
0.00840001
1.57836e-08
0.00840008
3.44317e-08
0.00839985
9.96672e-08
0.00840046
2.17724e-07
0.00839884
6.07813e-07
0.00840291
1.37146e-06
0.00839395
3.67664e-06
0.00841233
8.77504e-06
0.00838586
2.29383e-05
0.00842982
6.04722e-05
0.0084473
0.000176468
0.00869024
0.000594258
0.0099173
0.00247686
0.00945983
0.00856715
0.0089585
0.00875343
0.00829032
0.00871216
0.00791868
0.00885848
0.00776424
0.00935741
0.00791115
0.00989323
0.00847129
0.0102641
0.0100572
0.00905635
0.00840003
6.9598e-11
0.00840003
5.30015e-10
0.00840003
1.58882e-09
0.00840002
5.20872e-09
0.00840006
1.21376e-08
0.00839995
3.41444e-08
0.00840023
7.89932e-08
0.00839956
2.07854e-07
0.00840116
4.98876e-07
0.00839755
1.24775e-06
0.00840525
3.14335e-06
0.00839006
7.61654e-06
0.00841406
1.99363e-05
0.00838467
5.10196e-05
0.00842964
0.000147243
0.00849653
0.000474965
0.009015
0.00187313
0.00952697
0.00783455
0.00922682
0.00901482
0.00876657
0.00914249
0.00850732
0.00909836
0.00845846
0.00938484
0.00862993
0.00970603
0.00909778
0.00980281
0.00953987
0.00963353
0.00840003
7.20408e-11
0.00840003
4.21214e-10
0.00840003
1.56489e-09
0.00840004
4.15615e-09
0.0084
1.16164e-08
0.00840009
2.84433e-08
0.00839989
7.28422e-08
0.00840032
1.82252e-07
0.00839936
4.4052e-07
0.00840132
1.15327e-06
0.00839691
2.67396e-06
0.00840449
7.23492e-06
0.00839045
1.71077e-05
0.00840785
4.67388e-05
0.00839302
0.000127531
0.00845081
0.000406011
0.00873114
0.00151457
0.00968437
0.00666319
0.00954049
0.00915998
0.00926036
0.00941301
0.00903417
0.00931235
0.00902769
0.00938856
0.00919159
0.00954996
0.00953324
0.00948221
0.00913109
0.00996542
0.00840003
5.68582e-11
0.00840003
3.6042e-10
0.00840003
1.22981e-09
0.00840002
3.55622e-09
0.00840005
9.38394e-09
0.00839999
2.34996e-08
0.00840012
6.13604e-08
0.00839987
1.45298e-07
0.0084003
3.88646e-07
0.00839961
8.9037e-07
0.00840035
2.44558e-06
0.00839934
5.57986e-06
0.0084013
1.53283e-05
0.0084001
3.75504e-05
0.00841621
0.000106031
0.00847255
0.00031833
0.00880185
0.00114027
0.0104067
0.00478795
0.0101477
0.00939999
0.00987937
0.00967129
0.009572
0.00961529
0.00954207
0.00940508
0.00967824
0.00940776
0.0099088
0.00924676
0.00884814
0.0102117
0.00840003
4.0855e-11
0.00840003
2.91909e-10
0.00840003
9.37727e-10
0.00840003
2.90055e-09
0.00840003
7.05364e-09
0.00840004
1.95733e-08
0.00840003
4.47466e-08
0.0084
1.22405e-07
0.00840024
2.76171e-07
0.00839949
7.52152e-07
0.00840202
1.70604e-06
0.00839711
4.58666e-06
0.00841013
1.07613e-05
0.00839936
2.84534e-05
0.00844163
7.34321e-05
0.00851115
0.000212805
0.00893101
0.000698643
0.0108155
0.00277168
0.0107992
0.00930263
0.0105918
0.00985728
0.0102338
0.00995726
0.0100228
0.0096092
0.0100591
0.00936877
0.0102032
0.00909752
0.00866494
0.0103987
0.00840003
3.68737e-11
0.00840003
2.1953e-10
0.00840003
8.05134e-10
0.00840003
2.16994e-09
0.00840002
5.9881e-09
0.00840005
1.47236e-08
0.00839997
3.77068e-08
0.00840021
9.29875e-08
0.00839966
2.30646e-07
0.00840115
5.76334e-07
0.00839804
1.40948e-06
0.00840592
3.57366e-06
0.00839166
8.69822e-06
0.00841994
2.24826e-05
0.00839478
5.7267e-05
0.00846606
0.000161439
0.00860165
0.000507163
0.00935567
0.00194346
0.0108947
0.00754027
0.0109019
0.00983457
0.0107046
0.0101438
0.0104659
0.00984519
0.0104371
0.00938775
0.0105081
0.00901609
0.00856321
0.0106089
0.00840003
2.82614e-11
0.00840003
1.68698e-10
0.00840003
6.04272e-10
0.00840003
1.67287e-09
0.00840003
4.58631e-09
0.00840003
1.11742e-08
0.00840003
2.9849e-08
0.00840007
6.9221e-08
0.00839991
1.87625e-07
0.00840052
4.25685e-07
0.00839897
1.16652e-06
0.00840358
2.64408e-06
0.00839463
7.23858e-06
0.00841511
1.69744e-05
0.00839432
4.61402e-05
0.00845035
0.000122015
0.00853229
0.000373076
0.00910944
0.00132557
0.0111974
0.00518391
0.0112662
0.00973923
0.0111946
0.0101832
0.010939
0.01009
0.0107776
0.00955224
0.010756
0.00903169
0.00852152
0.010795
0.00840003
2.0331e-11
0.00840003
1.26537e-10
0.00840003
4.49354e-10
0.00840003
1.24738e-09
0.00840003
3.37932e-09
0.00840004
8.38217e-09
0.00840002
2.14255e-08
0.00840007
5.28443e-08
0.00840005
1.3066e-07
0.00840007
3.29342e-07
0.00840057
7.92985e-07
0.00839961
2.03746e-06
0.00840442
4.86762e-06
0.00839991
1.26219e-05
0.00842257
3.10056e-05
0.00843907
8.27865e-05
0.008572
0.000232749
0.00909575
0.000757499
0.0113131
0.00285854
0.0118171
0.00911051
0.0117491
0.0102315
0.0115036
0.0103284
0.011202
0.00986791
0.0110914
0.00914608
0.00856601
0.0110448
0.00840003
1.34972e-11
0.00840003
9.77273e-11
0.00840003
3.10558e-10
0.00840003
9.69011e-10
0.00840003
2.35174e-09
0.00840003
6.53008e-09
0.00840005
1.50755e-08
0.0084
4.08859e-08
0.00840018
9.39087e-08
0.00839978
2.50922e-07
0.00840109
5.83118e-07
0.00839857
1.53422e-06
0.00840599
3.6249e-06
0.00839414
9.4101e-06
0.00842328
2.30036e-05
0.00840393
6.03506e-05
0.00849467
0.000163793
0.00868161
0.000506544
0.00961789
0.00187194
0.011806
0.00666112
0.0120218
0.00997228
0.0119096
0.0103937
0.0115536
0.0102042
0.0113958
0.00929557
0.00869017
0.0112679
0.00840003
1.05155e-11
0.00840003
6.57481e-11
0.00840003
2.29894e-10
0.00840003
6.49534e-10
0.00840003
1.73472e-09
0.00840003
4.32496e-09
0.00840003
1.11159e-08
0.00840006
2.67319e-08
0.00840001
6.88791e-08
0.00840026
1.62672e-07
0.00839979
4.22177e-07
0.00840163
9.91255e-07
0.00839862
2.57935e-06
0.00840945
6.09124e-06
0.00839619
1.58818e-05
0.0084398
3.89706e-05
0.00844621
0.000105178
0.00865208
0.000300462
0.0094035
0.00101484
0.0120254
0.00369999
0.0123783
0.0095575
0.0124518
0.0103291
0.0122897
0.0103797
0.0118196
0.00979542
0.00894675
0.0115719
0.00840003
7.46285e-12
0.00840003
4.48503e-11
0.00840003
1.63635e-10
0.00840003
4.4606e-10
0.00840003
1.22296e-09
0.00840004
3.02399e-09
0.00840002
7.71115e-09
0.00840006
1.90262e-08
0.0084
4.68096e-08
0.00840021
1.17815e-07
0.00839992
2.82957e-07
0.00840089
7.22735e-07
0.00839981
1.71503e-06
0.00840373
4.43527e-06
0.00840192
1.05299e-05
0.00841804
2.74641e-05
0.00843193
6.86742e-05
0.00853448
0.000191949
0.00890881
0.000592327
0.0103199
0.00218725
0.0125078
0.00717225
0.0127465
0.010069
0.0126791
0.010416
0.0121787
0.0102649
0.00921155
0.0118957
0.00840003
4.98037e-12
0.00840003
3.01024e-11
0.00840003
1.08201e-10
0.00840003
2.98403e-10
0.00840003
8.12482e-10
0.00840003
1.99494e-09
0.00840004
5.18366e-09
0.00840003
1.23265e-08
0.00840005
3.20242e-08
0.00840009
7.51677e-08
0.00840004
1.95051e-07
0.00840058
4.59385e-07
0.00839968
1.18323e-06
0.00840401
2.82147e-06
0.0083985
7.19548e-06
0.00842042
1.76281e-05
0.00841227
4.52435e-05
0.00849853
0.000119179
0.00868201
0.000346788
0.00963391
0.00118211
0.0123545
0.00411973
0.0129008
0.00943866
0.013047
0.0102679
0.0128944
0.0104211
0.00972447
0.012392
0.00840003
3.10121e-12
0.00840003
2.03902e-11
0.00840003
6.86359e-11
0.00840003
2.02481e-10
0.00840003
5.17408e-10
0.00840003
1.35166e-09
0.00840004
3.31696e-09
0.00840002
8.34331e-09
0.00840007
2.05443e-08
0.0084
5.07109e-08
0.00840024
1.26406e-07
0.00839993
3.07679e-07
0.0084011
7.73404e-07
0.0083999
1.87161e-06
0.00840485
4.75013e-06
0.00840311
1.1496e-05
0.00842367
2.95141e-05
0.00844431
7.45707e-05
0.00857787
0.000206828
0.00907576
0.000637671
0.0108091
0.00228528
0.0130337
0.00699867
0.0132047
0.01007
0.0133161
0.0102711
0.010177
0.0128473
0.00840003
1.9433e-12
0.00840003
1.29875e-11
0.00840003
4.36067e-11
0.00840003
1.28668e-10
0.00840003
3.28603e-10
0.00840003
8.5927e-10
0.00840003
2.08894e-09
0.00840003
5.32203e-09
0.00840005
1.28519e-08
0.00840002
3.23045e-08
0.00840016
7.84911e-08
0.00839995
1.9503e-07
0.00840093
4.79107e-07
0.00839952
1.17803e-06
0.00840538
2.92416e-06
0.00839839
7.17108e-06
0.00842626
1.8069e-05
0.00841527
4.51959e-05
0.00852578
0.000120025
0.00874396
0.000343282
0.00979739
0.00116062
0.0125971
0.00385439
0.0134273
0.00917739
0.0136207
0.0100935
0.0103926
0.0134168
0.00840003
1.20739e-12
0.00840003
8.13209e-12
0.00840003
2.74155e-11
0.00840003
8.05089e-11
0.00840003
2.06936e-10
0.00840003
5.38551e-10
0.00840003
1.31448e-09
0.00840003
3.35966e-09
0.00840003
8.03734e-09
0.00840004
2.05801e-08
0.00840008
4.8889e-08
0.00840004
1.25079e-07
0.00840043
2.98213e-07
0.00839991
7.57031e-07
0.00840281
1.82797e-06
0.00839942
4.59126e-06
0.00841594
1.13147e-05
0.00840609
2.84219e-05
0.00847629
7.27509e-05
0.00855959
0.000197931
0.00911437
0.000605951
0.0107424
0.00210123
0.0133514
0.0063376
0.0135867
0.00982966
0.0100595
0.0139037
0.00840003
7.78456e-13
0.00840003
4.82878e-12
0.00840003
1.72631e-11
0.00840003
4.80126e-11
0.00840003
1.29681e-10
0.00840003
3.24062e-10
0.00840003
8.19658e-10
0.00840003
2.02421e-09
0.00840003
4.99247e-09
0.00840005
1.24135e-08
0.00840003
3.01162e-08
0.00840015
7.55178e-08
0.00840007
1.81268e-07
0.00840054
4.57838e-07
0.00840079
1.08782e-06
0.00840206
2.77156e-06
0.00840637
6.57289e-06
0.00841283
1.68298e-05
0.00844191
4.10699e-05
0.00851224
0.000108324
0.00878915
0.000300768
0.0098046
0.000978156
0.0127295
0.00312827
0.0139365
0.0085567
0.00995227
0.0140293
0.00840003
4.74769e-13
0.00840003
2.85925e-12
0.00840003
1.04034e-11
0.00840003
2.83798e-11
0.00840003
7.83313e-11
0.00840003
1.90281e-10
0.00840003
4.97813e-10
0.00840003
1.18226e-09
0.00840003
3.04821e-09
0.00840004
7.23718e-09
0.00840003
1.84458e-08
0.00840011
4.42694e-08
0.0084
1.1083e-07
0.00840054
2.7047e-07
0.00839992
6.65575e-07
0.00840297
1.65008e-06
0.00839998
4.0047e-06
0.00841511
1.01006e-05
0.00840929
2.45932e-05
0.00847209
6.35494e-05
0.00854986
0.000167267
0.00901832
0.000500566
0.0103672
0.00168275
0.0134359
0.00519002
0.00929585
0.0140127
0.00840003
2.67644e-13
0.00840003
1.73729e-12
0.00840003
5.9004e-12
0.00840003
1.72823e-11
0.00840003
4.44263e-11
0.00840003
1.1496e-10
0.00840003
2.85151e-10
0.00840003
7.06835e-10
0.00840003
1.77024e-09
0.00840003
4.27916e-09
0.00840004
1.08624e-08
0.00840004
2.58425e-08
0.00840009
6.64579e-08
0.00840017
1.56203e-07
0.00840022
4.03538e-07
0.00840129
9.46786e-07
0.00840057
2.44042e-06
0.00840879
5.75791e-06
0.00840555
1.47705e-05
0.00844727
3.5794e-05
0.0084832
9.33649e-05
0.00873663
0.000251933
0.00956181
0.000784969
0.0121382
0.00252182
0.00712853
0.0141087
0.00840003
1.48369e-13
0.00840003
9.98056e-13
0.00840003
3.36035e-12
0.00840003
9.91116e-12
0.00840003
2.52989e-11
0.00840003
6.63132e-11
0.00840003
1.59768e-10
0.00840003
4.11641e-10
0.00840003
9.75086e-10
0.00840003
2.5033e-09
0.00840004
5.92489e-09
0.00840003
1.51004e-08
0.00840009
3.5987e-08
0.00840003
9.05711e-08
0.00840046
2.18722e-07
0.00840003
5.42294e-07
0.00840262
1.32639e-06
0.00840047
3.25215e-06
0.00841428
8.07175e-06
0.00840859
1.97598e-05
0.00847083
5.02225e-05
0.00853145
0.000129813
0.00893971
0.000371409
0.01012
0.0012102
0.00368494
0.0131638
0.00840003
8.75785e-14
0.00840003
5.38371e-13
0.00840003
1.94604e-12
0.00840003
5.35404e-12
0.00840003
1.45758e-11
0.00840003
3.60617e-11
0.00840003
9.16583e-11
0.00840003
2.2452e-10
0.00840003
5.56175e-10
0.00840003
1.37305e-09
0.00840003
3.34608e-09
0.00840004
8.36324e-09
0.00840004
2.00985e-08
0.00840009
5.07518e-08
0.00840014
1.20764e-07
0.00840024
3.07219e-07
0.008401
7.27381e-07
0.0084007
1.8521e-06
0.00840686
4.41433e-06
0.00840466
1.12006e-05
0.00843844
2.73289e-05
0.00845905
7.02192e-05
0.00864746
0.000186395
0.0092275
0.000558206
0.00180917
0.0110121
0.00840003
4.8909e-14
0.00840003
2.98891e-13
0.00840003
1.07148e-12
0.00840003
2.96823e-12
0.00840003
8.06192e-12
0.00840003
1.97507e-11
0.00840003
5.12421e-11
0.00840003
1.21447e-10
0.00840003
3.12943e-10
0.00840003
7.37207e-10
0.00840003
1.89162e-09
0.00840004
4.47002e-09
0.00840003
1.13658e-08
0.00840008
2.71908e-08
0.00840004
6.81588e-08
0.00840035
1.65296e-07
0.00840011
4.07927e-07
0.00840184
1.00704e-06
0.00840093
2.44308e-06
0.00840975
6.13358e-06
0.00840951
1.47949e-05
0.00845233
3.77831e-05
0.0085036
9.46997e-05
0.00880103
0.000260451
0.000796233
0.00974472
0.00840003
2.49842e-14
0.00840003
1.66332e-13
0.00840003
5.58167e-13
0.00840003
1.65457e-12
0.00840003
4.19721e-12
0.00840003
1.10036e-11
0.00840003
2.6637e-11
0.00840003
6.75372e-11
0.00840003
1.63404e-10
0.00840003
4.06606e-10
0.00840003
9.92255e-10
0.00840003
2.43903e-09
0.00840004
6.01015e-09
0.00840004
1.46136e-08
0.00840009
3.6245e-08
0.00840009
8.74889e-08
0.00840032
2.18244e-07
0.00840057
5.226e-07
0.00840135
1.30948e-06
0.00840411
3.1277e-06
0.00840701
7.85709e-06
0.00842641
1.89773e-05
0.00845253
4.8086e-05
0.00857732
0.000122959
0.000346457
0.00896036
0.00840003
1.3065e-14
0.00840003
8.69952e-14
0.00840003
2.9689e-13
0.00840003
8.64099e-13
0.00840003
2.23289e-12
0.00840003
5.77175e-12
0.00840003
1.40495e-11
0.00840003
3.57718e-11
0.00840003
8.49962e-11
0.00840003
2.17039e-10
0.00840003
5.10808e-10
0.00840003
1.30439e-09
0.00840004
3.0765e-09
0.00840003
7.77969e-09
0.00840007
1.85622e-08
0.00840004
4.62607e-08
0.00840026
1.11924e-07
0.00840013
2.74239e-07
0.00840132
6.75047e-07
0.00840089
1.62638e-06
0.00840684
4.06823e-06
0.00840723
9.7222e-06
0.00843542
2.47638e-05
0.00846657
6.0559e-05
0.000162119
0.00864145
0.00840003
7.20618e-15
0.00840003
4.37212e-14
0.00840003
1.58029e-13
0.00840003
4.3423e-13
0.00840003
1.18668e-12
0.00840003
2.90107e-12
0.00840003
7.47753e-12
0.00840003
1.79008e-11
0.00840003
4.52076e-11
0.00840003
1.08707e-10
0.00840003
2.69868e-10
0.00840003
6.57416e-10
0.00840003
1.60555e-09
0.00840004
3.96697e-09
0.00840004
9.55186e-09
0.00840007
2.38707e-08
0.00840008
5.68572e-08
0.00840019
1.43433e-07
0.00840047
3.39015e-07
0.0084007
8.59225e-07
0.00840333
2.03156e-06
0.00840318
5.1522e-06
0.00842054
1.23097e-05
0.00842725
3.13395e-05
7.79845e-05
0.00851736
0.00840003
3.43098e-15
0.00840003
2.29042e-14
0.00840003
7.70904e-14
0.00840003
2.28039e-13
0.00840003
5.80598e-13
0.00840003
1.51181e-12
0.00840003
3.68246e-12
0.00840003
9.24072e-12
0.00840003
2.24563e-11
0.00840003
5.53128e-11
0.00840003
1.35906e-10
0.00840003
3.29381e-10
0.00840003
8.18116e-10
0.00840003
1.9626e-09
0.00840003
4.91335e-09
0.00840005
1.17076e-08
0.00840004
2.94083e-08
0.00840018
7.00409e-08
0.0084001
1.75842e-07
0.00840091
4.19339e-07
0.00840058
1.0496e-06
0.00840508
2.52261e-06
0.0084042
6.2743e-06
0.00842787
1.53e-05
3.82775e-05
0.00843877
0.00840003
1.78086e-15
0.00840003
1.09276e-14
0.00840003
3.99622e-14
0.00840003
1.08714e-13
0.00840003
2.98443e-13
0.00840003
7.25969e-13
0.00840003
1.87977e-12
0.00840003
4.45479e-12
0.00840003
1.13984e-11
0.00840003
2.6881e-11
0.00840003
6.82938e-11
0.00840003
1.61561e-10
0.00840003
4.07429e-10
0.00840003
9.71375e-10
0.00840003
2.42049e-09
0.00840004
5.84152e-09
0.00840004
1.43694e-08
0.00840009
3.5132e-08
0.00840013
8.50568e-08
0.00840029
2.11347e-07
0.00840077
5.03626e-07
0.00840128
1.2664e-06
0.00840534
2.98917e-06
0.00840684
7.57588e-06
1.79271e-05
0.00843376
0.00840003
8.40202e-16
0.00840003
5.59462e-15
0.00840003
1.87132e-14
0.00840003
5.51596e-14
0.00840003
1.40011e-13
0.00840003
3.65968e-13
0.00840003
8.82695e-13
0.00840003
2.24631e-12
0.00840003
5.3495e-12
0.00840003
1.35354e-11
0.00840003
3.21091e-11
0.00840003
8.08544e-11
0.00840003
1.92534e-10
0.00840003
4.8159e-10
0.00840003
1.1552e-09
0.00840003
2.85895e-09
0.00840004
6.9229e-09
0.00840004
1.69434e-08
0.00840011
4.146e-08
0.00840012
1.00117e-07
0.00840047
2.47354e-07
0.0084007
5.90959e-07
0.00840222
1.47098e-06
0.00840495
3.48797e-06
8.74037e-06
0.00841161
0.00840003
4.65502e-16
0.00840003
2.46832e-15
0.00840003
9.08458e-15
0.00840003
2.52406e-14
0.00840003
6.79634e-14
0.00840003
1.69525e-13
0.00840003
4.2779e-13
0.00840003
1.04488e-12
0.00840003
2.58528e-12
0.00840003
6.29987e-12
0.00840003
1.54649e-11
0.00840003
3.78419e-11
0.00840003
9.20046e-11
0.00840003
2.26497e-10
0.00840003
5.47326e-10
0.00840003
1.35347e-09
0.00840003
3.24883e-09
0.00840004
8.05337e-09
0.00840006
1.92958e-08
0.00840007
4.77369e-08
0.00840027
1.14454e-07
0.00840023
2.81429e-07
0.00840154
6.78689e-07
0.00840118
1.65807e-06
4.01944e-06
0.00840895
0.00840003
9.1344e-17
0.00840003
1.14603e-15
0.00840003
3.83507e-15
0.00840003
1.18733e-14
0.00840003
3.15436e-14
0.00840003
7.85103e-14
0.00840003
2.00777e-13
0.00840003
4.81412e-13
0.00840003
1.21179e-12
0.00840003
2.90658e-12
0.00840003
7.22359e-12
0.00840003
1.74638e-11
0.00840003
4.29152e-11
0.00840003
1.04622e-10
0.00840003
2.54426e-10
0.00840003
6.25259e-10
0.00840003
1.50545e-09
0.00840004
3.72628e-09
0.00840004
8.89592e-09
0.00840006
2.21089e-08
0.00840012
5.25411e-08
0.00840016
1.30648e-07
0.00840067
3.10791e-07
0.00840065
7.67488e-07
1.8432e-06
0.00840407
0.00840003
5.39391e-17
0.00840003
4.90818e-16
0.00840003
1.90418e-15
0.00840003
5.29497e-15
0.00840003
1.42644e-14
0.00840003
3.55619e-14
0.00840003
8.99999e-14
0.00840003
2.20196e-13
0.00840003
5.48606e-13
0.00840003
1.31966e-12
0.00840003
3.30098e-12
0.00840003
7.87631e-12
0.00840003
1.96957e-11
0.00840003
4.70197e-11
0.00840003
1.16755e-10
0.00840003
2.80774e-10
0.00840003
6.89975e-10
0.00840003
1.67248e-09
0.00840003
4.06584e-09
0.00840005
9.93632e-09
0.00840006
2.39327e-08
0.00840014
5.88149e-08
0.00840022
1.40647e-07
0.00840056
3.48102e-07
8.27389e-07
0.00840137
0.00840003
1.19479e-16
0.00840003
4.64635e-16
0.00840003
1.08496e-15
0.00840003
2.60604e-15
0.00840003
6.51364e-15
0.00840003
1.64382e-14
0.00840003
3.99045e-14
0.00840003
9.96412e-14
0.00840003
2.416e-13
0.00840003
5.95715e-13
0.00840003
1.45745e-12
0.00840003
3.53333e-12
0.00840003
8.74852e-12
0.00840003
2.09256e-11
0.00840003
5.22624e-11
0.00840003
1.23909e-10
0.00840003
3.10172e-10
0.00840003
7.3412e-10
0.00840003
1.83254e-09
0.00840004
4.34754e-09
0.00840004
1.07786e-08
0.00840009
2.57717e-08
0.00840009
6.31669e-08
0.00840038
1.52886e-07
3.70142e-07
0.0084004
0.00840003
8.40257e-17
0.00840003
1.05493e-16
0.00840003
4.11184e-16
0.00840003
1.18262e-15
0.00840003
2.91005e-15
0.00840003
7.32135e-15
0.00840003
1.75563e-14
0.00840003
4.37134e-14
0.00840003
1.04748e-13
0.00840003
2.63168e-13
0.00840003
6.24522e-13
0.00840003
1.57227e-12
0.00840003
3.7313e-12
0.00840003
9.31704e-12
0.00840003
2.2309e-11
0.00840003
5.4984e-11
0.00840003
1.32997e-10
0.00840003
3.23661e-10
0.00840003
7.89951e-10
0.00840003
1.90276e-09
0.00840004
4.67155e-09
0.00840005
1.11721e-08
0.00840008
2.76126e-08
0.00840014
6.55702e-08
1.62926e-07
0.00840026
0.00840003
-6.14472e-17
0.00840003
-1.19804e-17
0.00840003
9.51116e-17
0.00840003
3.42635e-16
0.00840003
1.07621e-15
0.00840003
2.7532e-15
0.00840003
7.36602e-15
0.00840003
1.79882e-14
0.00840003
4.5511e-14
0.00840003
1.09458e-13
0.00840003
2.72178e-13
0.00840003
6.59053e-13
0.00840003
1.61034e-12
0.00840003
3.9578e-12
0.00840003
9.49389e-12
0.00840003
2.36507e-11
0.00840003
5.5969e-11
0.00840003
1.40262e-10
0.00840003
3.3047e-10
0.00840003
8.27097e-10
0.00840003
1.95073e-09
0.00840003
4.85447e-09
0.00840006
1.15183e-08
0.00840006
2.84325e-08
6.80413e-08
0.0084002
0.00840003
1.03867e-16
0.00840003
1.76481e-16
0.00840003
3.46294e-16
0.00840003
5.16975e-16
0.00840003
9.30517e-16
0.00840003
1.78671e-15
0.00840003
3.46058e-15
0.00840003
8.0215e-15
0.00840003
1.92299e-14
0.00840003
4.6105e-14
0.00840003
1.14008e-13
0.00840003
2.73198e-13
0.00840003
6.80602e-13
0.00840003
1.61808e-12
0.00840003
4.059e-12
0.00840003
9.5827e-12
0.00840003
2.40681e-11
0.00840003
5.67857e-11
0.00840003
1.41683e-10
0.00840003
3.36521e-10
0.00840003
8.3086e-10
0.00840004
1.99053e-09
0.00840004
4.85752e-09
0.00840006
1.17631e-08
2.8373e-08
0.00840007
0.00840003
-9.35124e-18
0.00840003
-3.90313e-17
0.00840003
1.2387e-17
0.00840003
1.55502e-16
0.00840003
2.55465e-16
0.00840003
5.61102e-16
0.00840003
1.32996e-15
0.00840003
3.29646e-15
0.00840003
7.73684e-15
0.00840003
1.91618e-14
0.00840003
4.5099e-14
0.00840003
1.13733e-13
0.00840003
2.68615e-13
0.00840003
6.7589e-13
0.00840003
1.59935e-12
0.00840003
4.01029e-12
0.00840003
9.51863e-12
0.00840003
2.36399e-11
0.00840003
5.65833e-11
0.00840003
1.38716e-10
0.00840003
3.35581e-10
0.00840003
8.10967e-10
0.00840003
1.98466e-09
0.00840004
4.73105e-09
1.17059e-08
0.00840005
0.00840003
-8.8498e-17
0.00840003
-6.49708e-17
0.00840003
-7.93365e-17
0.00840003
-7.20994e-17
0.00840003
-5.25296e-17
0.00840003
1.61546e-16
0.00840003
5.11852e-16
0.00840003
1.20837e-15
0.00840003
3.13993e-15
0.00840003
7.33045e-15
0.00840003
1.82455e-14
0.00840003
4.33913e-14
0.00840003
1.08114e-13
0.00840003
2.57919e-13
0.00840003
6.40793e-13
0.00840003
1.53718e-12
0.00840003
3.78627e-12
0.00840003
9.16409e-12
0.00840003
2.22532e-11
0.00840003
5.44386e-11
0.00840003
1.30452e-10
0.00840003
3.22363e-10
0.00840003
7.63188e-10
0.00840003
1.89679e-09
4.46973e-09
0.00840004
0.00840003
1.05683e-16
0.00840003
1.53035e-16
0.00840003
3.56323e-16
0.00840003
4.94694e-16
0.00840003
6.12384e-16
0.00840003
6.40005e-16
0.00840003
6.58978e-16
0.00840003
9.15555e-16
0.00840003
1.39756e-15
0.00840003
2.88002e-15
0.00840003
6.32147e-15
0.00840003
1.50251e-14
0.00840003
3.67624e-14
0.00840003
8.83054e-14
0.00840003
2.18139e-13
0.00840003
5.22177e-13
0.00840003
1.30095e-12
0.00840003
3.07823e-12
0.00840003
7.73087e-12
0.00840003
1.81499e-11
0.00840003
4.56819e-11
0.00840003
1.06899e-10
0.00840003
2.68275e-10
0.00840003
6.30278e-10
1.56524e-09
0.00840003
0.00840003
0.00840003
0.00840003
0.00840003
0.00840003
0.00840003
0.00840003
0.00840003
0.00840003
0.00840003
0.00840003
0.00840003
0.00840003
0.00840003
0.00840003
0.00840003
0.00840003
0.00840003
0.00840003
0.00840003
0.00840003
0.00840003
0.00840003
0.00840003
0.00840003
0.00466149
0.00391551
0.00310487
0.00155375
0.00243637
0.000665076
0.00217203
0.000257916
0.00214704
1.77328e-05
0.00231567
-0.000178309
0.00250338
-0.000200058
0.00262259
-0.00013249
0.00267185
-6.17325e-05
0.00267371
-1.40384e-05
0.00264806
1.36428e-05
0.00262474
1.26807e-05
0.0026146
-7.95359e-07
0.00261822
-1.47816e-05
0.00262585
-1.85651e-05
0.00263429
-1.96056e-05
0.00264147
-1.85308e-05
0.00264684
-1.68349e-05
0.0026508
-1.56151e-05
0.00265419
-1.52726e-05
0.00265741
-1.56017e-05
0.00266059
-1.60933e-05
0.00266374
-1.63946e-05
0.0026667
-1.64194e-05
0.00266911
-1.61968e-05
0.00267062
-1.58081e-05
0.00267097
-1.53362e-05
0.00267
-1.48441e-05
0.00266772
-1.43668e-05
0.00266437
-1.39208e-05
0.00266019
-1.35249e-05
0.00265526
-1.31757e-05
0.0026496
-1.28453e-05
0.00264333
-1.2524e-05
0.00263672
-1.21853e-05
0.0026301
-1.18246e-05
0.00262363
-1.14499e-05
0.00261732
-1.10179e-05
0.00261115
-1.05224e-05
0.0026051
-1.00394e-05
0.00259901
-9.54057e-06
0.00259279
-9.03762e-06
0.00258644
-8.49842e-06
0.00258
-7.9731e-06
0.00257357
-7.46838e-06
0.00256725
-6.98231e-06
0.0025611
-6.51063e-06
0.00255521
-6.05711e-06
0.00254956
-5.61554e-06
0.00254416
-5.17596e-06
0.00253897
-4.74495e-06
0.00253392
-4.32432e-06
0.00252901
-3.91743e-06
0.00252427
-3.51593e-06
0.00251974
-3.11888e-06
0.00251552
-2.76369e-06
0.00251167
-2.39681e-06
0.00250841
-2.07931e-06
0.00250585
-1.75975e-06
0.0025042
-1.45713e-06
0.00250337
-1.17961e-06
0.00250338
-9.16493e-07
0.00250433
-6.259e-07
0.00250609
-4.22791e-07
0.00250833
-1.65682e-07
0.0025105