/*--------------------------------*- C++ -*----------------------------------*\
  =========                 |
  \\      /  F ield         | OpenFOAM: The Open Source CFD Toolbox
   \\    /   O peration     | Website:  https://openfoam.org
    \\  /    A nd           | Version:  9
     \\/     M anipulation  |
\*---------------------------------------------------------------------------*/
FoamFile
{
    format      ascii;
    class       volScalarField;
    location    "1";
    object      rho;
}
// * * * * * * * * * * * * * * * * * * * * * * * * * * * * * * * * * * * * * //

dimensions      [1 -3 0 0 0 0 0];

internalField   nonuniform List<scalar> 
5250
(
1.40001
1.40001
1.40002
1.40005
1.40013
1.40026
1.40076
1.40163
1.40457
1.41016
1.42717
1.46206
1.55086
1.73314
2.14319
3.54858
6.31643
5.8931
5.70879
5.73956
5.80696
5.85974
5.90103
5.89421
5.5551
1.40001
1.40001
1.40002
1.40005
1.40012
1.40026
1.40075
1.40159
1.40456
1.40987
1.42703
1.46076
1.54891
1.72803
2.12931
3.49632
6.31662
5.89653
5.7084
5.73869
5.80548
5.85763
5.89912
5.89308
5.55398
1.40001
1.40001
1.40002
1.40005
1.40012
1.40026
1.40073
1.40155
1.40444
1.4096
1.42624
1.45894
1.54446
1.71857
2.0998
3.38773
6.30964
5.89913
5.70279
5.73053
5.7938
5.84294
5.88353
5.87815
5.54085
1.40001
1.40001
1.40002
1.40004
1.40012
1.40025
1.4007
1.4015
1.40428
1.40924
1.42527
1.45664
1.53882
1.70597
2.0616
3.23913
6.27276
5.89252
5.68975
5.71365
5.77049
5.81594
5.8547
5.84843
5.51498
1.40001
1.40001
1.40002
1.40004
1.40011
1.40024
1.40067
1.40143
1.40409
1.40881
1.42413
1.45404
1.53274
1.69289
2.02891
3.11388
6.15974
5.86497
5.67076
5.68953
5.73716
5.77717
5.81547
5.81468
5.49223
1.40001
1.40001
1.40002
1.40004
1.40011
1.40022
1.40064
1.40135
1.40386
1.40831
1.42279
1.45101
1.52579
1.67794
1.99814
2.9797
5.98613
5.81091
5.64805
5.65954
5.69127
5.72592
5.761
5.75666
5.44301
1.40001
1.40001
1.40002
1.40004
1.4001
1.40021
1.40059
1.40126
1.40359
1.40773
1.42129
1.44755
1.51798
1.66102
1.96181
2.83516
5.77021
5.74068
5.62617
5.62215
5.62544
5.6556
5.68516
5.68327
5.39422
1.40001
1.40001
1.40002
1.40003
1.40009
1.40019
1.40054
1.40115
1.4033
1.40706
1.41958
1.44362
1.50898
1.6419
1.9288
2.69271
5.48045
5.67223
5.59733
5.57049
5.54975
5.56401
5.58698
5.57695
5.2948
1.40001
1.40001
1.40002
1.40003
1.40008
1.40017
1.40049
1.40105
1.4029
1.40654
1.41727
1.43998
1.49814
1.62096
1.88702
2.54703
5.10623
5.62492
5.55472
5.48688
5.46056
5.46276
5.46214
5.44224
5.18352
1.40001
1.40001
1.40001
1.40003
1.40006
1.40017
1.40037
1.40105
1.40225
1.40637
1.41396
1.43737
1.48431
1.60041
1.83598
2.40611
4.63794
5.59668
5.52765
5.4074
5.38236
5.34373
5.31332
5.24279
4.89833
1.40001
1.40001
1.40001
1.40002
1.40006
1.40013
1.40037
1.40077
1.40223
1.40474
1.41339
1.42959
1.47614
1.57101
1.78494
2.26596
4.09566
5.59516
5.51653
5.33262
5.26698
5.19804
5.08949
4.88275
4.09951
1.40001
1.40001
1.40001
1.40002
1.40005
1.40012
1.40026
1.40074
1.40158
1.40452
1.40979
1.42676
1.46012
1.54728
1.72344
2.13689
3.45929
5.56033
5.48441
5.27911
5.17623
5.07819
4.90075
4.60222
3.83269
1.40001
1.40001
1.40001
1.40002
1.40004
1.40009
1.40025
1.40052
1.40147
1.40323
1.40879
1.41999
1.45113
1.517
1.6683
1.98858
2.84878
5.43717
5.42019
5.2593
5.08704
4.94582
4.72838
4.40189
3.83856
1.40001
1.40001
1.40001
1.40002
1.40003
1.40008
1.40018
1.40047
1.4011
1.4028
1.40684
1.41678
1.44113
1.49719
1.62321
1.88757
2.54631
4.9818
5.26582
5.18145
4.99048
4.81487
4.58134
4.24864
3.83797
1.40001
1.40001
1.40001
1.40001
1.40003
1.40006
1.40015
1.40037
1.40087
1.40231
1.40525
1.41399
1.43215
1.48009
1.58213
1.80533
2.30359
4.2727
5.17196
5.12082
4.94709
4.73633
4.50099
4.17677
3.82464
1.40001
1.40001
1.40001
1.40001
1.40002
1.40005
1.40012
1.40027
1.40073
1.40162
1.40448
1.40988
1.42661
1.46031
1.54653
1.72266
2.12364
3.47284
5.09743
5.06441
4.93255
4.68302
4.45735
4.15807
3.82605
1.40001
1.40001
1.40001
1.40001
1.40002
1.40004
1.40008
1.40023
1.40048
1.40138
1.40293
1.40826
1.4181
1.44763
1.50728
1.64917
1.93488
2.68352
4.91921
5.00083
4.90306
4.65482
4.40745
4.12829
3.82748
1.40001
1.40001
1.40001
1.40001
1.40002
1.40003
1.40007
1.40015
1.40041
1.40093
1.40241
1.40573
1.41439
1.43473
1.48324
1.59176
1.82069
2.34108
4.33016
4.90862
4.85388
4.66545
4.39706
4.13247
3.85144
1.40001
1.40001
1.40001
1.40001
1.40001
1.40002
1.40005
1.40011
1.40031
1.40064
1.40184
1.40395
1.41101
1.42447
1.46317
1.54233
1.72365
2.10431
3.44692
4.79989
4.76941
4.65368
4.39741
4.12455
3.85985
1.40001
1.40001
1.40001
1.40001
1.40001
1.40002
1.40004
1.40009
1.40019
1.40053
1.40111
1.40319
1.40674
1.41883
1.44136
1.50402
1.62948
1.89272
2.55137
4.54867
4.73074
4.65032
4.44215
4.16098
3.89455
1.40001
1.40001
1.40001
1.40001
1.40001
1.40001
1.40003
1.40006
1.40013
1.40036
1.4008
1.40212
1.40494
1.41263
1.4299
1.47292
1.56736
1.76972
2.20138
3.85307
4.65693
4.61034
4.46969
4.19171
3.91819
1.40001
1.40001
1.40001
1.40001
1.40001
1.40001
1.40002
1.40004
1.4001
1.40021
1.4006
1.40128
1.40355
1.40789
1.42095
1.44786
1.51703
1.66005
1.95693
2.8156
4.46334
4.55443
4.47759
4.2652
3.97415
1.40001
1.40001
1.40001
1.40001
1.40001
1.40001
1.40002
1.40003
1.40007
1.40016
1.40037
1.40094
1.40216
1.40573
1.41298
1.43374
1.47686
1.58246
1.78888
2.25262
3.94282
4.517
4.47194
4.32323
4.03525
1.40001
1.40001
1.40001
1.40001
1.40001
1.40001
1.40001
1.40002
1.40005
1.40009
1.40026
1.40055
1.40155
1.40332
1.4092
1.42038
1.45301
1.51915
1.67394
1.97493
2.92928
4.31956
4.40054
4.33709
4.15253
1.40001
1.40001
1.40001
1.40001
1.40001
1.40001
1.40001
1.40002
1.40003
1.40007
1.40016
1.40037
1.40094
1.40217
1.40575
1.41299
1.43386
1.47661
1.58233
1.78069
2.24258
3.83512
4.37126
4.32281
4.20846
1.40001
1.40001
1.40001
1.40001
1.40001
1.40001
1.40001
1.40001
1.40002
1.40005
1.40009
1.40024
1.40054
1.40141
1.40334
1.40838
1.4202
1.44904
1.51502
1.65783
1.94321
2.78499
4.15709
4.29066
4.23776
1.40001
1.40001
1.40001
1.40001
1.40001
1.40001
1.40001
1.40001
1.40001
1.40003
1.40006
1.40015
1.40032
1.4009
1.40194
1.40534
1.41187
1.4311
1.4703
1.5681
1.75138
2.16758
3.61127
4.23046
4.19828
1.40001
1.40001
1.40001
1.40001
1.40001
1.40001
1.40001
1.40001
1.40001
1.40002
1.40004
1.40009
1.4002
1.40053
1.40114
1.40318
1.40676
1.41867
1.44064
1.50209
1.62125
1.85038
2.47819
3.98848
4.19197
1.40001
1.40001
1.40001
1.40001
1.40001
1.40001
1.40001
1.40001
1.40001
1.40001
1.40003
1.40005
1.40013
1.40029
1.40073
1.40175
1.40427
1.41061
1.42517
1.46133
1.54097
1.70672
2.04966
3.26273
4.0588
1.40001
1.40001
1.40001
1.40001
1.40001
1.40001
1.40001
1.40001
1.40001
1.40001
1.40002
1.40003
1.40008
1.40016
1.40044
1.40093
1.40261
1.40558
1.4153
1.43349
1.48459
1.58482
1.77465
2.24848
3.69012
1.40001
1.40001
1.40001
1.40001
1.40001
1.40001
1.40001
1.40001
1.40001
1.40001
1.40001
1.40002
1.40004
1.4001
1.40022
1.40057
1.40132
1.40335
1.40802
1.41962
1.44718
1.51053
1.64368
1.90473
2.69977
1.40001
1.40001
1.40001
1.40001
1.40001
1.40001
1.40001
1.40001
1.40001
1.40001
1.40001
1.40001
1.40002
1.40006
1.40012
1.40033
1.40069
1.40195
1.40416
1.41145
1.42523
1.46451
1.54392
1.70783
2.06498
1.40001
1.40001
1.40001
1.40001
1.40001
1.40001
1.40001
1.40001
1.40001
1.40001
1.40001
1.40001
1.40002
1.40003
1.40007
1.40016
1.4004
1.40099
1.40231
1.40594
1.4136
1.43454
1.47844
1.58068
1.75423
1.40001
1.40001
1.40001
1.40001
1.40001
1.40001
1.40001
1.40001
1.40001
1.40001
1.40001
1.40001
1.40001
1.40002
1.40004
1.40009
1.40022
1.40048
1.4013
1.40279
1.4077
1.41667
1.44384
1.49686
1.62003
1.40001
1.40001
1.40001
1.40001
1.40001
1.40001
1.40001
1.40001
1.40001
1.40001
1.40001
1.40001
1.40001
1.40001
1.40002
1.40005
1.40011
1.40026
1.40064
1.4015
1.4039
1.40881
1.42304
1.45171
1.52613
1.40001
1.40001
1.40001
1.40001
1.40001
1.40001
1.40001
1.40001
1.40001
1.40001
1.40001
1.40001
1.40001
1.40001
1.40001
1.40003
1.40006
1.40014
1.4003
1.40084
1.40178
1.40496
1.41062
1.42863
1.46284
1.40001
1.40001
1.40001
1.40001
1.40001
1.40001
1.40001
1.40001
1.40001
1.40001
1.40001
1.40001
1.40001
1.40001
1.40001
1.40002
1.40003
1.40007
1.40017
1.40038
1.40094
1.40231
1.40545
1.41372
1.43161
1.40001
1.40001
1.40001
1.40001
1.40001
1.40001
1.40001
1.40001
1.40001
1.40001
1.40001
1.40001
1.40001
1.40001
1.40001
1.40001
1.40002
1.40004
1.40008
1.4002
1.40043
1.40117
1.40249
1.40684
1.41463
1.40001
1.40001
1.40001
1.40001
1.40001
1.40001
1.40001
1.40001
1.40001
1.40001
1.40001
1.40001
1.40001
1.40001
1.40001
1.40001
1.40001
1.40002
1.40004
1.40009
1.40022
1.4005
1.40133
1.40287
1.40779
1.40001
1.40001
1.40001
1.40001
1.40001
1.40001
1.40001
1.40001
1.40001
1.40001
1.40001
1.40001
1.40001
1.40001
1.40001
1.40001
1.40001
1.40001
1.40002
1.40005
1.4001
1.40026
1.40057
1.40145
1.40338
1.40001
1.40001
1.40001
1.40001
1.40001
1.40001
1.40001
1.40001
1.40001
1.40001
1.40001
1.40001
1.40001
1.40001
1.40001
1.40001
1.40001
1.40001
1.40001
1.40002
1.40005
1.40012
1.40025
1.40068
1.40151
1.40001
1.40001
1.40001
1.40001
1.40001
1.40001
1.40001
1.40001
1.40001
1.40001
1.40001
1.40001
1.40001
1.40001
1.40001
1.40001
1.40001
1.40001
1.40001
1.40001
1.40002
1.40006
1.40012
1.40031
1.40066
1.40001
1.40001
1.40001
1.40001
1.40001
1.40001
1.40001
1.40001
1.40001
1.40001
1.40001
1.40001
1.40001
1.40001
1.40001
1.40001
1.40001
1.40001
1.40001
1.40001
1.40001
1.40003
1.40006
1.40013
1.40031
1.40001
1.40001
1.40001
1.40001
1.40001
1.40001
1.40001
1.40001
1.40001
1.40001
1.40001
1.40001
1.40001
1.40001
1.40001
1.40001
1.40001
1.40001
1.40001
1.40001
1.40001
1.40001
1.40003
1.40006
1.40015
1.40001
1.40001
1.40001
1.40001
1.40001
1.40001
1.40001
1.40001
1.40001
1.40001
1.40001
1.40001
1.40001
1.40001
1.40001
1.40001
1.40001
1.40001
1.40001
1.40001
1.40001
1.40001
1.40001
1.40003
1.40006
1.40001
1.40001
1.40001
1.40001
1.40001
1.40001
1.40001
1.40001
1.40001
1.40001
1.40001
1.40001
1.40001
1.40001
1.40001
1.40001
1.40001
1.40001
1.40001
1.40001
1.40001
1.40001
1.40001
1.40001
1.40003
1.40001
1.40001
1.40001
1.40001
1.40001
1.40001
1.40001
1.40001
1.40001
1.40001
1.40001
1.40001
1.40001
1.40001
1.40001
1.40001
1.40001
1.40001
1.40001
1.40001
1.40001
1.40001
1.40001
1.40001
1.40001
1.40001
1.40001
1.40001
1.40001
1.40001
1.40001
1.40001
1.40001
1.40001
1.40001
1.40001
1.40001
1.40001
1.40001
1.40001
1.40001
1.40001
1.40001
1.40001
1.40001
1.40001
1.40001
1.40001
1.40001
1.40001
1.40001
1.40001
1.40001
1.40001
1.40001
1.40001
1.40001
1.40001
1.40001
1.40001
1.40001
1.40001
1.40001
1.40001
1.40001
1.40001
1.40001
1.40001
1.40001
1.40001
1.40001
1.40001
1.40001
1.40001
1.40001
1.40001
1.40001
1.40001
1.40001
1.40001
1.40001
1.40001
1.40001
1.40001
1.40001
1.40001
1.40001
1.40001
1.40001
1.40001
1.40001
1.40001
1.40001
1.40001
1.40001
1.40001
1.40001
1.40001
1.40001
1.40001
1.75526
0.958273
0.6632
0.58083
0.576458
0.602112
0.662838
0.722081
0.736258
0.734911
0.729473
0.718163
0.70995
0.706614
0.704974
0.703292
0.700831
0.69735
0.692988
0.688258
0.683439
0.678619
0.673836
0.669071
0.66425
0.659281
0.6541
0.648672
0.642992
0.637117
0.631136
0.625097
0.619012
0.6129
0.606816
0.600841
0.595032
0.589409
0.583965
0.578701
0.573581
0.568582
0.563699
0.558945
0.554335
0.549896
0.545648
0.541608
0.53778
0.534161
0.530749
0.527528
0.524485
0.521619
0.518936
0.516447
0.514159
0.512092
0.510295
0.508761
0.507574
0.506605
0.505982
0.505604
0.505514
0.505519
0.505584
0.505797
0.506168
0.506449
0.506836
0.507435
0.508097
0.50938
0.510784
0.512328
0.513908
0.515826
0.517893
0.520057
0.522095
0.523938
0.525609
0.527153
0.528658
0.530301
0.531854
0.533423
0.535058
0.536889
0.538612
0.541759
0.544648
0.551711
0.557343
0.571088
0.580371
0.601724
0.615052
0.650981
2.21026
1.43288
1.08956
0.940707
0.872141
0.825075
0.797647
0.797931
0.801265
0.808623
0.823982
0.824708
0.823077
0.819437
0.812262
0.805222
0.799309
0.794397
0.790065
0.785756
0.781119
0.776178
0.771037
0.765774
0.76042
0.754967
0.749387
0.743628
0.737619
0.73131
0.724709
0.717862
0.710826
0.703707
0.696594
0.689511
0.682511
0.675639
0.668912
0.662423
0.65621
0.650381
0.644718
0.639269
0.633884
0.628598
0.623373
0.618213
0.613139
0.608196
0.603373
0.598705
0.594223
0.589927
0.585832
0.58202
0.578359
0.575075
0.571926
0.569026
0.566423
0.563912
0.561814
0.559845
0.55823
0.557063
0.556056
0.555179
0.555025
0.554794
0.55509
0.555141
0.555883
0.556464
0.557532
0.558122
0.558977
0.559891
0.561216
0.563116
0.564912
0.567495
0.569806
0.572862
0.575556
0.578772
0.581339
0.584496
0.587013
0.590111
0.592485
0.595552
0.597917
0.601212
0.60363
0.60776
0.61093
0.617997
0.623904
0.641659
2.78653
2.02929
1.55516
1.25521
1.06589
0.941812
0.867275
0.836111
0.837052
0.84165
0.851583
0.869487
0.876115
0.87558
0.873058
0.869272
0.862537
0.855687
0.849883
0.844811
0.840053
0.835376
0.830678
0.825866
0.820816
0.815413
0.809608
0.803415
0.796867
0.789966
0.782721
0.775233
0.767616
0.759875
0.752043
0.744264
0.736629
0.729182
0.721918
0.714878
0.708083
0.701605
0.695421
0.689416
0.683539
0.677787
0.672078
0.666442
0.660936
0.655544
0.650285
0.645174
0.64022
0.635437
0.630813
0.626338
0.622032
0.617921
0.613959
0.610224
0.606782
0.60363
0.600742
0.598055
0.595655
0.593566
0.591985
0.590467
0.589478
0.588774
0.588416
0.587948
0.588071
0.588283
0.588962
0.589366
0.589869
0.590607
0.591373
0.592938
0.594057
0.595981
0.597466
0.600035
0.601997
0.605254
0.607698
0.611423
0.614336
0.618539
0.621716
0.626005
0.629109
0.633453
0.636406
0.641329
0.644691
0.651447
0.656322
0.670049
3.12526
2.45223
1.94356
1.58441
1.34109
1.17299
1.06473
0.992435
0.94701
0.920163
0.916317
0.915374
0.917876
0.923743
0.927923
0.926499
0.925197
0.922244
0.916251
0.909638
0.903701
0.898172
0.892858
0.887467
0.88175
0.875547
0.868816
0.861616
0.854054
0.846237
0.838263
0.8302
0.822099
0.814029
0.806067
0.79826
0.79062
0.783093
0.775576
0.768091
0.760714
0.75342
0.746156
0.738947
0.731867
0.724993
0.718411
0.712134
0.706168
0.700557
0.695195
0.689936
0.684807
0.679831
0.674978
0.670142
0.665209
0.660226
0.655346
0.650567
0.645928
0.64154
0.637561
0.63396
0.630718
0.627856
0.625282
0.622967
0.621094
0.619388
0.617956
0.616873
0.615962
0.615431
0.615223
0.615067
0.61503
0.615195
0.615646
0.616699
0.617654
0.619186
0.620418
0.622533
0.624195
0.627099
0.62933
0.632984
0.635923
0.640367
0.643867
0.648676
0.652192
0.656943
0.660163
0.665107
0.668314
0.674546
0.678943
0.691512
3.30254
2.74958
2.2702
1.89641
1.61733
1.41089
1.25743
1.14435
1.06435
1.00605
0.970795
0.95361
0.953158
0.953329
0.956516
0.961364
0.964771
0.964519
0.963497
0.960891
0.955296
0.948077
0.940705
0.933359
0.926075
0.918817
0.911544
0.904205
0.896776
0.889265
0.881682
0.874013
0.866243
0.858362
0.850348
0.842202
0.833995
0.82578
0.817549
0.809273
0.801009
0.792859
0.784919
0.777277
0.769985
0.763052
0.756445
0.750044
0.743844
0.737791
0.731888
0.726094
0.720294
0.714383
0.708322
0.702143
0.695951
0.689875
0.684002
0.678454
0.673322
0.668672
0.664449
0.660539
0.65712
0.654027
0.651221
0.648658
0.646325
0.644038
0.642118
0.640263
0.638464
0.637224
0.63661
0.635728
0.634953
0.634689
0.634838
0.635561
0.636356
0.63759
0.63871
0.640677
0.642246
0.645041
0.647165
0.650832
0.65362
0.658186
0.661602
0.666686
0.670239
0.675505
0.678999
0.684822
0.68855
0.696185
0.701318
0.716117
3.41221
2.9563
2.52854
2.16595
1.87341
1.64359
1.46439
1.32636
1.22044
1.14098
1.08295
1.04047
1.0138
0.998815
0.994135
0.994099
0.994395
0.997225
0.998069
0.997234
0.995769
0.99254
0.98599
0.977975
0.969618
0.961517
0.953813
0.946391
0.939101
0.931839
0.924491
0.916939
0.909115
0.901009
0.892637
0.884082
0.875448
0.866744
0.857937
0.849053
0.840201
0.831487
0.823031
0.814917
0.807187
0.799832
0.792736
0.785901
0.779257
0.772808
0.766523
0.760269
0.753897
0.747336
0.740581
0.733728
0.726914
0.720269
0.713896
0.707857
0.70225
0.697127
0.692434
0.688099
0.684151
0.680459
0.677044
0.673625
0.67058
0.667694
0.664947
0.662312
0.660225
0.658461
0.656922
0.65578
0.654941
0.654234
0.654059
0.654555
0.655274
0.656404
0.657474
0.659263
0.660752
0.663452
0.665531
0.669157
0.671877
0.676299
0.679493
0.684503
0.687944
0.693425
0.696941
0.703326
0.707346
0.715853
0.721402
0.737577
3.47825
3.10186
2.72873
2.39039
2.10001
1.85971
1.66355
1.50553
1.37802
1.27675
1.19568
1.13296
1.08523
1.05037
1.02882
1.01757
1.01172
1.01096
1.01045
1.00998
1.00959
1.0088
1.00687
1.00279
0.99621
0.988964
0.981716
0.974617
0.967577
0.960536
0.953481
0.946335
0.938941
0.931162
0.922965
0.914452
0.905755
0.896871
0.887758
0.878504
0.869301
0.860314
0.851682
0.843463
0.835646
0.828231
0.821191
0.814356
0.807666
0.801112
0.794679
0.788198
0.781438
0.774365
0.767131
0.759896
0.75282
0.746069
0.73972
0.733834
0.728418
0.723436
0.718856
0.714536
0.71054
0.7067
0.702988
0.699165
0.695612
0.6921
0.68883
0.685684
0.682891
0.680676
0.678906
0.677291
0.675673
0.674922
0.674626
0.674817
0.675304
0.676219
0.677325
0.678925
0.68044
0.682768
0.684831
0.688171
0.690785
0.695021
0.698159
0.703158
0.70653
0.712384
0.716086
0.723486
0.728131
0.738323
0.744822
0.763982
3.53715
3.20699
2.87902
2.57224
2.29528
2.0553
1.851
1.6804
1.53874
1.4215
1.32561
1.2469
1.18345
1.1341
1.09558
1.06604
1.04722
1.03535
1.02907
1.02612
1.02481
1.02437
1.0237
1.02242
1.01991
1.01489
1.00858
1.00144
0.993857
0.986076
0.978234
0.9704
0.962532
0.954507
0.946245
0.937761
0.929115
0.920373
0.911616
0.902941
0.894458
0.886299
0.878552
0.871227
0.864287
0.857619
0.850972
0.844197
0.837391
0.830635
0.823801
0.816661
0.809194
0.801576
0.793989
0.786586
0.779483
0.772802
0.766594
0.760838
0.755491
0.75057
0.745975
0.741558
0.737246
0.733009
0.728822
0.724554
0.720549
0.716761
0.713319
0.710032
0.707214
0.705095
0.70328
0.701712
0.700208
0.699381
0.699056
0.6993
0.699734
0.7006
0.701669
0.703225
0.704945
0.707174
0.709379
0.712269
0.71483
0.718702
0.721706
0.726762
0.730124
0.736575
0.740568
0.749118
0.754407
0.766232
0.773531
0.795808
3.58152
3.28857
2.99378
2.71278
2.45318
2.22165
2.01826
1.84245
1.69244
1.56491
1.45701
1.36602
1.28935
1.22556
1.17283
1.13096
1.0974
1.07141
1.05444
1.04365
1.03727
1.03419
1.03247
1.03145
1.03036
1.02815
1.02451
1.01934
1.01289
1.00557
0.997732
0.989558
0.981173
0.972642
0.963996
0.95526
0.946501
0.937793
0.929193
0.92078
0.912679
0.905017
0.897837
0.891082
0.884666
0.878444
0.872159
0.865609
0.858848
0.852027
0.845081
0.837856
0.830358
0.822802
0.815393
0.808264
0.801499
0.79517
0.789298
0.783839
0.778733
0.773949
0.769356
0.764777
0.760224
0.755683
0.751246
0.746777
0.74265
0.738739
0.735211
0.731854
0.729103
0.727144
0.725366
0.723929
0.722849
0.722654
0.723013
0.723927
0.72521
0.727013
0.729126
0.731794
0.734739
0.738343
0.741966
0.746376
0.750229
0.755239
0.758986
0.765003
0.768882
0.776619
0.781177
0.79138
0.79736
0.810873
0.818753
0.845484
3.63204
3.3605
3.09146
2.83143
2.58714
2.36402
2.1637
1.98695
1.83162
1.69729
1.58054
1.48059
1.39445
1.32113
1.2585
1.20592
1.16183
1.12644
1.09763
1.0754
1.06009
1.05001
1.04412
1.04103
1.03916
1.03789
1.03637
1.03373
1.02972
1.02428
1.01756
1.00975
1.00115
0.992107
0.98289
0.973669
0.964591
0.955757
0.947224
0.939014
0.931155
0.923717
0.916711
0.910064
0.903668
0.897395
0.89105
0.884432
0.877548
0.870557
0.86349
0.856322
0.849068
0.841929
0.834993
0.828389
0.82207
0.816162
0.810598
0.80541
0.800397
0.795677
0.791031
0.786402
0.78169
0.777111
0.772624
0.768143
0.763977
0.7602
0.756876
0.754159
0.752004
0.750597
0.749731
0.749862
0.750738
0.75273
0.755701
0.75975
0.764596
0.770437
0.776763
0.783899
0.791162
0.799145
0.806594
0.81476
0.821533
0.829534
0.83507
0.84319
0.847911
0.857369
0.862355
0.873311
0.879489
0.893596
0.897753
0.932845
3.66553
3.41888
3.17282
2.93226
2.70319
2.48944
2.29406
2.11779
1.96029
1.82098
1.69805
1.59057
1.49634
1.41477
1.34346
1.28235
1.22956
1.18511
1.14765
1.11718
1.09284
1.07404
1.06073
1.05208
1.04654
1.04309
1.04072
1.03855
1.03596
1.03227
1.02727
1.0208
1.01325
1.00487
0.995933
0.986718
0.977664
0.968807
0.96029
0.952261
0.944771
0.937778
0.931191
0.924899
0.918754
0.91259
0.906258
0.899628
0.892677
0.885553
0.878384
0.871207
0.864138
0.857299
0.850775
0.844582
0.838673
0.833077
0.827792
0.822749
0.817825
0.812986
0.808152
0.803252
0.798344
0.79355
0.789062
0.784787
0.781124
0.778286
0.776055
0.774689
0.774541
0.776142
0.779453
0.784756
0.791965
0.801354
0.812621
0.825872
0.840257
0.855982
0.871888
0.888455
0.903929
0.919431
0.933348
0.947491
0.959406
0.971673
0.980254
0.991069
0.997076
1.00731
1.01184
1.02426
1.02547
1.0395
1.03268
1.08312
3.71826
3.48272
3.25063
3.02551
2.8089
2.60403
2.41348
2.23886
2.08043
1.938
1.81069
1.69761
1.59725
1.5088
1.43099
1.36271
1.30313
1.25154
1.20709
1.1693
1.13758
1.11147
1.09055
1.07404
1.06173
1.05318
1.0471
1.04283
1.03941
1.03608
1.03217
1.02737
1.02165
1.01474
1.00699
0.998698
0.989943
0.981252
0.972944
0.965221
0.958093
0.95155
0.945418
0.939498
0.933625
0.927649
0.921446
0.914936
0.908085
0.900971
0.893797
0.886681
0.879722
0.873029
0.866704
0.860652
0.854895
0.849362
0.844125
0.839093
0.834125
0.829171
0.824279
0.81941
0.814679
0.810365
0.806692
0.804086
0.802518
0.802117
0.804142
0.809108
0.817354
0.829552
0.845345
0.865129
0.888087
0.914174
0.94117
0.971224
1.00255
1.03477
1.06463
1.09237
1.11552
1.13617
1.15239
1.16704
1.1771
1.18772
1.19413
1.20435
1.20871
1.2217
1.22372
1.23791
1.23498
1.2509
1.23573
1.30347
3.7715
3.54046
3.32364
3.11042
2.9054
2.70977
2.52541
2.35382
2.1955
2.05112
1.92044
1.80261
1.69744
1.60323
1.51975
1.44573
1.38028
1.3228
1.27247
1.22863
1.19061
1.15802
1.13024
1.10688
1.08782
1.07232
1.06023
1.05098
1.04382
1.03814
1.03311
1.02819
1.02291
1.01737
1.01123
1.00442
0.997223
0.989881
0.982605
0.975561
0.968906
0.96265
0.956681
0.950875
0.945035
0.939062
0.932837
0.926399
0.919691
0.912779
0.905763
0.898803
0.89199
0.885483
0.879366
0.873651
0.868106
0.862677
0.857392
0.852402
0.847545
0.842803
0.83837
0.83424
0.831235
0.829301
0.828917
0.83099
0.836811
0.847706
0.864221
0.88703
0.915953
0.950603
0.989718
1.03682
1.08656
1.13426
1.17584
1.20893
1.23197
1.24769
1.25718
1.26412
1.26761
1.27341
1.27492
1.28214
1.28296
1.29219
1.29371
1.30587
1.30836
1.32389
1.32762
1.34529
1.3494
1.36963
1.37183
1.4228
3.86949
3.62183
3.40093
3.19461
2.99636
2.80777
2.62877
2.46088
2.30438
2.15986
2.02728
1.90649
1.79711
1.69849
1.61007
1.53093
1.46047
1.39777
1.3423
1.29318
1.24985
1.21165
1.17817
1.14898
1.12377
1.10219
1.08407
1.06896
1.05656
1.04649
1.0382
1.03137
1.02538
1.01985
1.01465
1.00929
1.00373
0.997932
0.99199
0.986014
0.980095
0.974203
0.968333
0.962417
0.956395
0.95023
0.943853
0.937227
0.930452
0.923613
0.916784
0.91008
0.903647
0.897556
0.891823
0.886439
0.88129
0.876192
0.871198
0.866537
0.862496
0.859039
0.857636
0.85744
0.859304
0.865631
0.878516
0.899048
0.928481
0.967201
1.01292
1.07165
1.1372
1.19971
1.2513
1.28588
1.30483
1.31536
1.32015
1.3227
1.32364
1.32601
1.32467
1.32926
1.32759
1.33408
1.33345
1.34204
1.34222
1.35325
1.35436
1.36805
1.37078
1.3866
1.39062
1.40838
1.41291
1.43174
1.43508
1.46994
3.96376
3.70177
3.47597
3.27441
3.0843
2.90155
2.72794
2.56348
2.40882
2.26457
2.1309
2.0079
1.89546
1.79316
1.70061
1.6174
1.54252
1.47554
1.41547
1.3617
1.31355
1.27045
1.232
1.19765
1.16724
1.14028
1.11657
1.09595
1.07811
1.06291
1.05029
1.03979
1.03111
1.02393
1.01779
1.01255
1.0078
1.00321
0.998591
0.993784
0.988745
0.98342
0.977797
0.971851
0.965609
0.9591
0.952326
0.945416
0.938443
0.931562
0.924917
0.918679
0.912751
0.907315
0.902296
0.897535
0.893112
0.888844
0.885018
0.882568
0.882457
0.884543
0.890175
0.902874
0.925042
0.95861
1.00458
1.06132
1.13763
1.2177
1.28896
1.33603
1.36056
1.37243
1.37672
1.37844
1.37712
1.37717
1.3742
1.37525
1.3719
1.37512
1.37264
1.37756
1.37667
1.38361
1.38389
1.3929
1.39413
1.40545
1.40741
1.42069
1.42391
1.43912
1.44337
1.46006
1.46413
1.48211
1.48414
1.51297
4.08604
3.81527
3.57388
3.35985
3.16909
2.99168
2.82178
2.66087
2.5086
2.36537
2.23154
2.10715
1.99238
1.88727
1.79127
1.70427
1.6255
1.55436
1.49019
1.43232
1.38005
1.33292
1.29022
1.25169
1.21674
1.18521
1.15675
1.13125
1.10851
1.08853
1.07113
1.05626
1.04385
1.03367
1.02533
1.01858
1.0131
1.00849
1.00433
1.0003
0.996134
0.991626
0.986693
0.981251
0.975331
0.968959
0.962298
0.955452
0.948592
0.941904
0.935536
0.929627
0.924199
0.919347
0.914749
0.911042
0.907963
0.907695
0.909203
0.913406
0.924661
0.946035
0.980838
1.03157
1.09575
1.18535
1.27989
1.36039
1.40595
1.42761
1.43669
1.438
1.43643
1.43406
1.42871
1.42623
1.42119
1.42109
1.41699
1.41851
1.41606
1.41772
1.41661
1.42033
1.41999
1.42613
1.42619
1.43517
1.43563
1.44691
1.44798
1.46082
1.46318
1.47752
1.4811
1.4969
1.50065
1.51787
1.52044
1.54391
4.11924
3.92897
3.67618
3.45869
3.26207
3.0815
2.91385
2.75462
2.60446
2.46263
2.32914
2.20438
2.08817
1.98072
1.88198
1.79148
1.70915
1.63425
1.56628
1.50463
1.44874
1.3978
1.35156
1.30915
1.27051
1.23502
1.20263
1.17301
1.14615
1.12188
1.10021
1.08116
1.06461
1.05052
1.03883
1.02932
1.02167
1.0155
1.01045
1.00613
1.00213
0.99813
0.993828
0.98904
0.983706
0.977859
0.971608
0.965101
0.958554
0.952089
0.946005
0.940281
0.935464
0.931489
0.928823
0.929795
0.93343
0.941292
0.958766
0.989677
1.04016
1.10697
1.20394
1.31434
1.41134
1.46563
1.49137
1.50156
1.50181
1.49836
1.4925
1.48631
1.47887
1.4748
1.46878
1.46623
1.46072
1.45865
1.45437
1.45313
1.44967
1.45049
1.44772
1.45084
1.44932
1.45497
1.45397
1.4622
1.46191
1.47206
1.47271
1.48387
1.48584
1.49875
1.502
1.51652
1.52027
1.53644
1.54018
1.55838
4.15353
4.03546
3.791
3.55646
3.35416
3.17344
3.00538
2.84983
2.69983
2.55856
2.42501
2.29953
2.18213
2.07281
1.97178
1.87858
1.79315
1.71501
1.64372
1.57864
1.51924
1.46488
1.41507
1.36937
1.32725
1.28852
1.25271
1.21977
1.18941
1.16162
1.13633
1.11348
1.09317
1.07535
1.05994
1.0469
1.03608
1.0273
1.02022
1.0144
1.00946
1.005
1.00067
0.996237
0.991457
0.986273
0.980765
0.974963
0.969179
0.963482
0.958421
0.954476
0.95235
0.953939
0.959011
0.971369
0.993766
1.03612
1.10237
1.19412
1.31966
1.4399
1.51522
1.55049
1.56626
1.56754
1.56388
1.55667
1.5472
1.53928
1.53117
1.52442
1.51644
1.50967
1.50193
1.49601
1.48904
1.48451
1.47819
1.47583
1.4709
1.47056
1.46691
1.46918
1.46643
1.47144
1.46925
1.47639
1.47531
1.48376
1.48385
1.49346
1.49492
1.50625
1.50913
1.52211
1.52623
1.54023
1.5463
1.5588
4.11072
4.06371
3.92667
3.68191
3.46421
3.2739
3.09905
2.94072
2.79323
2.65268
2.51948
2.39387
2.27567
2.1649
2.06168
1.966
1.8777
1.79648
1.72197
1.65371
1.59108
1.53369
1.48083
1.43216
1.38714
1.34541
1.3067
1.27069
1.23729
1.20639
1.17787
1.15186
1.12818
1.10693
1.0881
1.07163
1.05743
1.04536
1.03524
1.02687
1.01989
1.01395
1.00865
1.00369
0.998896
0.994082
0.989249
0.984447
0.980181
0.976515
0.976082
0.977966
0.984282
0.999871
1.02756
1.08124
1.1596
1.28576
1.42916
1.54571
1.59932
1.62729
1.63282
1.63253
1.62391
1.61369
1.60301
1.59339
1.58345
1.57324
1.56239
1.55183
1.54086
1.53104
1.52105
1.51325
1.50446
1.4988
1.49162
1.48822
1.48255
1.48187
1.47728
1.47921
1.47539
1.47969
1.4766
1.4825
1.48092
1.48787
1.48747
1.4958
1.49683
1.50672
1.50948
1.52071
1.52536
1.53678
1.5436
1.55285
4.07868
4.04056
3.96977
3.80482
3.5783
3.37702
3.20073
3.03572
2.88538
2.74501
2.61264
2.48697
2.36858
2.25691
2.15207
2.05407
1.96301
1.87878
1.8011
1.72976
1.66417
1.60391
1.54839
1.49704
1.44943
1.40509
1.36371
1.32508
1.28895
1.25529
1.22401
1.19504
1.16847
1.14424
1.1223
1.10266
1.08529
1.07003
1.0568
1.04534
1.03552
1.0271
1.0199
1.01356
1.00797
1.0029
0.998968
0.996053
0.996826
0.999916
1.00807
1.02547
1.05885
1.12358
1.2147
1.36996
1.53186
1.63218
1.67812
1.69851
1.69965
1.69336
1.68395
1.67188
1.66019
1.64871
1.63575
1.62231
1.60813
1.59418
1.57999
1.56686
1.55377
1.54285
1.53145
1.52287
1.51343
1.50742
1.49959
1.49638
1.48985
1.48911
1.4835
1.48496
1.48064
1.4834
1.48033
1.48446
1.48281
1.48822
1.48798
1.49479
1.49591
1.50408
1.50707
1.51586
1.52133
1.52944
1.53685
1.54355
3.83712
4.01118
3.98482
3.8959
3.70624
3.49013
3.30327
3.13785
2.98585
2.84348
2.70923
2.58264
2.46212
2.34866
2.24231
2.14232
2.049
1.96213
1.88168
1.80743
1.73902
1.676
1.61784
1.56399
1.51388
1.46714
1.42331
1.38224
1.34367
1.30756
1.27374
1.24231
1.21307
1.18619
1.16154
1.13912
1.11882
1.10063
1.0844
1.06997
1.05725
1.04603
1.03622
1.02781
1.02096
1.01591
1.01671
1.01992
1.02844
1.04698
1.08402
1.15645
1.25883
1.43386
1.61423
1.70523
1.75184
1.76321
1.7636
1.75424
1.74248
1.72972
1.71658
1.70229
1.68652
1.66994
1.6524
1.63553
1.61867
1.60294
1.5874
1.57364
1.56008
1.54898
1.53733
1.52908
1.5192
1.51366
1.50539
1.5022
1.49518
1.49371
1.48801
1.48816
1.48365
1.48491
1.48181
1.48439
1.48273
1.48694
1.48671
1.49212
1.49351
1.49967
1.50327
1.50928
1.51523
1.52102
1.52764
1.53276
3.22181
3.88139
3.96106
3.92638
3.82949
3.62411
3.42611
3.24591
3.08488
2.94002
2.80511
2.67845
2.55896
2.44316
2.33322
2.23075
2.13508
2.04612
1.96337
1.88671
1.81578
1.75022
1.68946
1.63309
1.5805
1.53135
1.48524
1.44184
1.40107
1.36264
1.32662
1.2928
1.26132
1.23198
1.20493
1.18
1.15717
1.13633
1.11737
1.10021
1.08475
1.0709
1.05877
1.04899
1.04393
1.04584
1.05378
1.07168
1.10841
1.17942
1.29038
1.47554
1.67291
1.76804
1.81938
1.82646
1.82353
1.81305
1.79933
1.78517
1.76975
1.75234
1.73343
1.71406
1.69455
1.67502
1.65615
1.63855
1.62158
1.6058
1.59072
1.57752
1.56445
1.55382
1.54241
1.53448
1.52442
1.51881
1.51001
1.50632
1.49846
1.49625
1.48997
1.48875
1.4839
1.48383
1.48031
1.48185
1.47998
1.48297
1.48269
1.48662
1.48796
1.49233
1.49579
1.50011
1.50511
1.50989
1.51534
1.51927
2.20297
3.51073
3.90495
3.90547
3.85864
3.7429
3.54658
3.36308
3.19634
3.04123
2.90025
2.77062
2.64959
2.53556
2.42694
2.32169
2.22274
2.13098
2.04607
1.96725
1.89394
1.82596
1.76272
1.70393
1.64896
1.59754
1.54918
1.5037
1.46074
1.42025
1.38205
1.34612
1.31245
1.28097
1.25168
1.22453
1.19942
1.1763
1.15499
1.13553
1.11786
1.10236
1.08942
1.08867
1.09273
1.10719
1.14202
1.20658
1.31945
1.50968
1.72238
1.82687
1.88625
1.89226
1.88684
1.87319
1.85589
1.83858
1.81927
1.7985
1.77679
1.75521
1.73405
1.71352
1.69359
1.6747
1.65695
1.6402
1.62429
1.60944
1.59539
1.58269
1.57004
1.55976
1.54825
1.54018
1.52945
1.5233
1.51361
1.5087
1.5003
1.49667
1.48971
1.48726
1.48169
1.48045
1.4764
1.47675
1.47448
1.47606
1.47523
1.47769
1.4783
1.48128
1.48353
1.48707
1.49046
1.49455
1.49873
1.50152
1.84491
2.49789
3.62205
3.88286
3.86774
3.81141
3.68163
3.48646
3.30768
3.15057
3.00496
2.86785
2.74209
2.62567
2.51643