/*--------------------------------*- C++ -*----------------------------------*\
  =========                 |
  \\      /  F ield         | OpenFOAM: The Open Source CFD Toolbox
   \\    /   O peration     | Website:  https://openfoam.org
    \\  /    A nd           | Version:  9
     \\/     M anipulation  |
\*---------------------------------------------------------------------------*/
FoamFile
{
    format      ascii;
    class       volScalarField;
    location    "1";
    object      T;
}
// * * * * * * * * * * * * * * * * * * * * * * * * * * * * * * * * * * * * * //

dimensions      [0 0 0 1 0 0 0];

internalField   nonuniform List<scalar> 
5250
(
1
1
1.00001
1.00003
1.00008
1.0002
1.00048
1.00118
1.00304
1.00725
1.019
1.04692
1.12545
1.34018
1.8975
2.67256
2.81513
2.77693
2.77727
2.79548
2.83625
2.86334
2.87391
2.89892
3.0931
1
1
1.00001
1.00003
1.00007
1.00021
1.00045
1.00124
1.00284
1.00748
1.01812
1.04701
1.12247
1.33448
1.88382
2.66106
2.81314
2.77614
2.77653
2.79464
2.83512
2.86198
2.87245
2.89744
3.09192
1
1
1.00001
1.00003
1.00007
1.0002
1.00043
1.00121
1.00275
1.0073
1.01756
1.04562
1.11824
1.32205
1.8567
2.63335
2.8084
2.77431
2.77472
2.79217
2.83165
2.85833
2.86848
2.89302
3.08679
1
1
1.00001
1.00003
1.00007
1.0002
1.00042
1.00117
1.00265
1.00704
1.01688
1.0438
1.113
1.30648
1.82011
2.59186
2.80303
2.77232
2.77207
2.78807
2.8255
2.85174
2.86163
2.88613
3.07835
1
1
1.00001
1.00003
1.00006
1.00019
1.0004
1.00112
1.00253
1.00671
1.0161
1.04166
1.10724
1.29022
1.78155
2.5535
2.79452
2.76895
2.76736
2.78153
2.81616
2.84271
2.85143
2.87233
3.05845
1
1
1.00001
1.00003
1.00006
1.00017
1.00038
1.00105
1.00241
1.00627
1.01526
1.03906
1.10077
1.27182
1.73424
2.51058
2.78086
2.76216
2.75931
2.77119
2.80316
2.82994
2.8384
2.85936
3.04122
1
1
1.00001
1.00003
1.00006
1.00016
1.00036
1.00096
1.00227
1.00578
1.0143
1.03617
1.09357
1.25148
1.68379
2.45899
2.75915
2.75181
2.74838
2.75808
2.78935
2.81531
2.82265
2.83836
3.0044
1
1
1.00001
1.00002
1.00005
1.00015
1.00033
1.00087
1.00209
1.00524
1.01316
1.03289
1.08535
1.22863
1.62033
2.3845
2.73158
2.74104
2.73907
2.74446
2.77183
2.79864
2.80146
2.81282
2.96756
1
1
1.00001
1.00002
1.00005
1.00012
1.00031
1.00075
1.00197
1.00451
1.01223
1.02882
1.07709
1.20295
1.55276
2.29125
2.69616
2.73367
2.73024
2.73339
2.75454
2.77187
2.77132
2.76981
2.88287
1
1
1.00001
1.00002
1.00005
1.0001
1.00028
1.00065
1.00169
1.00411
1.01029
1.02593
1.06642
1.17719
1.48119
2.17044
2.65367
2.72282
2.71269
2.71261
2.72139
2.73717
2.7304
2.71025
2.78816
1
1
1.00001
1.00002
1.00003
1.0001
1.00022
1.00059
1.00138
1.00353
1.00877
1.02192
1.05629
1.14866
1.40561
2.0192
2.59039
2.70426
2.68944
2.68992
2.69901
2.70524
2.69043
2.62897
2.58603
1
1
1.00001
1.00001
1.00003
1.00007
1.0002
1.00044
1.0012
1.00282
1.00724
1.01786
1.04577
1.11945
1.32433
1.83042
2.51122
2.68519
2.67134
2.66365
2.66221
2.65659
2.63149
2.54652
2.44866
1
1
1
1.00001
1.00002
1.00006
1.00015
1.00038
1.00096
1.00226
1.00599
1.01401
1.03711
1.09324
1.25259
1.66139
2.39472
2.64226
2.63396
2.63
2.62655
2.61537
2.58296
2.49831
2.36915
1
1
1
1.00001
1.00002
1.00005
1.00012
1.00033
1.00071
1.00203
1.00437
1.01237
1.02841
1.07697
1.20084
1.54386
2.2486
2.59137
2.61738
2.609
2.59972
2.58394
2.5519
2.48541
2.35415
1
1
1
1.00001
1.00002
1.00004
1.00011
1.00022
1.00067
1.00136
1.00405
1.00877
1.0243
1.05884
1.15962
1.42889
2.06336
2.50825
2.5847
2.5738
2.56415
2.54333
2.51016
2.46092
2.35544
1
1
1
1.00001
1.00001
1.00003
1.00007
1.00021
1.00042
1.00124
1.0027
1.00745
1.01741
1.04607
1.11811
1.32123
1.81842
2.40578
2.55767
2.55283
2.5335
2.51064
2.4686
2.42587
2.35018
1
1
1
1
1.00001
1.00002
1.00006
1.00013
1.00036
1.00085
1.00215
1.00531
1.01311
1.03324
1.08486
1.22575
1.5932
2.24772
2.49864
2.52217
2.5086
2.48947
2.44794
2.40693
2.34292
1
1
1
1
1.00001
1.00002
1.00004
1.0001
1.00027
1.0006
1.0017
1.00368
1.01043
1.02363
1.06412
1.16467
1.44553
2.06614
2.42607
2.4823
2.46907
2.45148
2.41674
2.37595
2.32423
1
1
1
1
1
1.00001
1.00003
1.00008
1.00018
1.00047
1.00116
1.00281
1.00726
1.01745
1.04548
1.11671
1.31549
1.80163
2.31384
2.44417
2.44674
2.4312
2.40123
2.3627
2.31515
1
1
1
1
1
1.00001
1.00002
1.00005
1.00014
1.0003
1.00084
1.00192
1.005
1.01212
1.03067
1.07793
1.20544
1.54122
2.13506
2.37324
2.40808
2.39837
2.37437
2.33618
2.2949
1
1
1
1
1
1.00001
1.00002
1.00004
1.00009
1.00023
1.00053
1.00146
1.0032
1.00894
1.02027
1.05466
1.13853
1.37387
1.91209
2.27703
2.36631
2.36598
2.35163
2.32156
2.28374
1
1
1
1
1
1
1.00001
1.00003
1.00006
1.00015
1.00037
1.0009
1.00232
1.00537
1.01432
1.03392
1.09004
1.23447
1.61058
2.1442
2.31446
2.33539
2.32441
2.29772
2.26034
1
1
1
1
1
1
1.00001
1.00002
1.00004
1.00009
1.00027
1.00055
1.00162
1.00344
1.00958
1.0221
1.05864
1.14967
1.40017
1.93502
2.22492
2.28584
2.2831
2.26936
2.24557
1
1
1
1
1
1
1
1.00001
1.00002
1.00007
1.00015
1.00039
1.00096
1.00233
1.00593
1.01423
1.03679
1.09277
1.24682
1.62991
2.099
2.24177
2.25916
2.24815
2.22454
1
1
1
1
1
1
1
1.00001
1.00002
1.00004
1.00009
1.00027
1.00055
1.00162
1.0034
1.00957
1.02186
1.05821
1.14737
1.39341
1.88741
2.15301
2.20833
2.2181
2.20618
1
1
1
1
1
1
1
1
1.00001
1.00002
1.00006
1.00015
1.00035
1.00096
1.00208
1.00588
1.01292
1.03534
1.08569
1.22975
1.57794
2.03198
2.16426
2.18651
2.17783
1
1
1
1
1
1
1
1
1.00001
1.00001
1.00004
1.00009
1.00023
1.00055
1.00134
1.00343
1.00804
1.02105
1.05092
1.13424
1.35101
1.80452
2.07415
2.14112
2.15429
1
1
1
1
1
1
1
1
1
1.00001
1.00002
1.00005
1.00014
1.0003
1.00085
1.00183
1.00497
1.01146
1.0297
1.0732
1.19104
1.49334
1.92619
2.07742
2.11243
1
1
1
1
1
1
1
1
1
1.00001
1.00001
1.00003
1.00008
1.00018
1.0005
1.00105
1.00303
1.00643
1.01795
1.04153
1.11078
1.28608
1.68249
1.98594
2.07288
1
1
1
1
1
1
1
1
1
1
1.00001
1.00002
1.00004
1.00011
1.00025
1.00066
1.00158
1.00386
1.00971
1.02343
1.05976
1.15164
1.40009
1.80299
1.99369
1
1
1
1
1
1
1
1
1
1
1
1.00001
1.00002
1.00006
1.00014
1.00037
1.00081
1.00227
1.00487
1.01361
1.03083
1.08249
1.20933
1.52039
1.88317
1
1
1
1
1
1
1
1
1
1
1
1
1.00001
1.00003
1.00008
1.00018
1.00049
1.00116
1.00284
1.00713
1.01714
1.04394
1.11015
1.29071
1.64826
1
1
1
1
1
1
1
1
1
1
1
1
1.00001
1.00002
1.00004
1.0001
1.00027
1.00056
1.00165
1.00339
1.00971
1.02145
1.05746
1.14142
1.37066
1
1
1
1
1
1
1
1
1
1
1
1
1
1.00001
1.00002
1.00006
1.00012
1.00034
1.00073
1.00197
1.00451
1.01155
1.02796
1.07081
1.18181
1
1
1
1
1
1
1
1
1
1
1
1
1
1
1.00001
1.00003
1.00006
1.00017
1.00036
1.00106
1.00216
1.00628
1.01356
1.03688
1.08865
1
1
1
1
1
1
1
1
1
1
1
1
1
1
1.00001
1.00001
1.00004
1.00008
1.00021
1.00047
1.00121
1.00293
1.00713
1.01785
1.04382
1
1
1
1
1
1
1
1
1
1
1
1
1
1
1
1.00001
1.00002
1.00004
1.0001
1.00022
1.00063
1.00131
1.00379
1.0079
1.02206
1
1
1
1
1
1
1
1
1
1
1
1
1
1
1
1
1.00001
1.00002
1.00005
1.00011
1.00029
1.00066
1.00168
1.00403
1.00973
1
1
1
1
1
1
1
1
1
1
1
1
1
1
1
1
1
1.00001
1.00002
1.00006
1.00012
1.00035
1.00072
1.00199
1.00437
1
1
1
1
1
1
1
1
1
1
1
1
1
1
1
1
1
1
1.00001
1.00002
1.00006
1.00015
1.00034
1.00092
1.00198
1
1
1
1
1
1
1
1
1
1
1
1
1
1
1
1
1
1
1
1.00001
1.00003
1.00007
1.00016
1.0004
1.00092
1
1
1
1
1
1
1
1
1
1
1
1
1
1
1
1
1
1
1
1
1.00001
1.00003
1.00008
1.00016
1.00045
1
1
1
1
1
1
1
1
1
1
1
1
1
1
1
1
1
1
1
1
1.00001
1.00001
1.00003
1.00007
1.0002
1
1
1
1
1
1
1
1
1
1
1
1
1
1
1
1
1
1
1
1
1
1.00001
1.00001
1.00003
1.00007
1
1
1
1
1
1
1
1
1
1
1
1
1
1
1
1
1
1
1
1
1
1
1.00001
1.00001
1.00003
1
1
1
1
1
1
1
1
1
1
1
1
1
1
1
1
1
1
1
1
1
1
1
1.00001
1.00001
1
1
1
1
1
1
1
1
1
1
1
1
1
1
1
1
1
1
1
1
1
1
1
1
1.00001
1
1
1
1
1
1
1
1
1
1
1
1
1
1
1
1
1
1
1
1
1
1
1
1
1
1
1
1
1
1
1
1
1
1
1
1
1
1
1
1
1
1
1
1
1
1
1
1
1
1
1
1
1
1
1
1
1
1
1
1
1
1
1
1
1
1
1
1
1
1
1
1
1
1
1
2.43224
2.25048
2.19566
2.21944
2.28483
2.34113
2.4215
2.45074
2.47389
2.47237
2.47146
2.47036
2.47195
2.4757
2.47936
2.48189
2.48366
2.48365
2.4834
2.48275
2.48191
2.48118
2.4804
2.47933
2.47794
2.47638
2.47482
2.47342
2.4723
2.4714
2.47058
2.46983
2.46921
2.46876
2.46837
2.46784
2.467
2.46571
2.46406
2.46219
2.46027
2.45835
2.45647
2.45462
2.45276
2.45078
2.44859
2.44611
2.44334
2.44024
2.43686
2.43322
2.42944
2.42553
2.42145
2.41725
2.41283
2.40817
2.40302
2.39741
2.39099
2.38431
2.37681
2.36897
2.36053
2.35246
2.34488
2.33747
2.33012
2.32407
2.31851
2.31276
2.30767
2.3004
2.29372
2.28685
2.28006
2.27232
2.26486
2.2583
2.25262
2.24822
2.245
2.24271
2.24112
2.2388
2.23734
2.23599
2.23507
2.23325
2.23118
2.2257
2.21835
2.19899
2.18099
2.13786
2.10849
2.04436
2.00862
1.91597
2.38744
2.29825
2.23993
2.20015
2.16305
2.124
2.11455
2.11786
2.12673
2.14618
2.15982
2.17347
2.17462
2.17483
2.17445
2.17392
2.17411
2.1747
2.17496
2.17483
2.17437
2.17328
2.17142
2.16909
2.16645
2.16364
2.16076
2.15796
2.15543
2.15336
2.15187
2.15098
2.15058
2.15052
2.15055
2.15072
2.15107
2.1513
2.15133
2.15121
2.15071
2.14956
2.14812
2.14656
2.14535
2.14437
2.14372
2.14342
2.14344
2.14354
2.14383
2.14417
2.14452
2.14482
2.14496
2.14495
2.14487
2.14441
2.14394
2.14328
2.14228
2.14156
2.14009
2.13894
2.1373
2.13478
2.13221
2.13001
2.12549
2.12214
2.11763
2.11461
2.10963
2.10603
2.10167
2.09949
2.0965
2.09373
2.09022
2.08584
2.08209
2.0759
2.07094
2.06375
2.05836
2.05129
2.04684
2.04073
2.03716
2.03187
2.02896
2.02422
2.02194
2.01726
2.0145
2.00846
2.00316
1.99014
1.97863
1.93953
2.30821
2.25796
2.19597
2.12582
2.05126
1.99784
1.95848
1.95601
1.95917
1.96842
1.98888
1.99686
2.01239
2.01339
2.01641
2.01758
2.01754
2.01746
2.01714
2.01637
2.01474
2.01245
2.00955
2.00622
2.00274
1.99942
1.99643
1.99384
1.99171
1.99011
1.98914
1.98882
1.98884
1.98905
1.98963
1.99041
1.99107
1.99151
1.99169
1.99169
1.99157
1.99111
1.99017
1.98916
1.98833
1.98765
1.98731
1.98731
1.98739
1.98765
1.98812
1.98868
1.98934
1.99008
1.99096
1.99206
1.9933
1.99462
1.99619
1.99772
1.99898
2.00016
2.00101
2.00165
2.00189
2.00186
2.00148
2.00098
1.9998
1.99794
1.99606
1.99505
1.99277
1.99074
1.98816
1.98684
1.98538
1.98355
1.98245
1.97998
1.97874
1.97588
1.97406
1.96988
1.96719
1.96124
1.95783
1.95072
1.94634
1.93816
1.93348
1.92555
1.92166
1.91443
1.91078
1.90322
1.89842
1.88757
1.87992
1.85432
2.25927
2.19077
2.124
2.06071
2.00246
1.95364
1.91235
1.88407
1.86272
1.86039
1.86275
1.86892
1.8756
1.88725
1.89205
1.89469
1.89463
1.89354
1.89084
1.88648
1.88196
1.8777
1.87396
1.87076
1.86799
1.86559
1.86362
1.86209
1.86096
1.86015
1.85962
1.85932
1.85912
1.85887
1.85848
1.85792
1.85722
1.85645
1.85585
1.85566
1.85569
1.8559
1.85644
1.85743
1.85855
1.85967
1.86061
1.86112
1.86123
1.86115
1.86085
1.86072
1.86078
1.86098
1.86147
1.8625
1.8645
1.86731
1.8705
1.87405
1.87802
1.88175
1.88513
1.88832
1.89106
1.89333
1.8954
1.8973
1.89865
1.89994
1.90141
1.90222
1.90311
1.90375
1.90406
1.90458
1.90489
1.90493
1.90483
1.90429
1.90374
1.90249
1.90154
1.89931
1.89758
1.89355
1.89079
1.88471
1.88066
1.87256
1.86751
1.8589
1.8542
1.84652
1.84287
1.83573
1.8318
1.82315
1.81693
1.79506
2.25319
2.1687
2.09855
2.03479
1.97681
1.92434
1.87895
1.83873
1.80648
1.78422
1.77111
1.77019
1.77152
1.77482
1.77767
1.78358
1.78343
1.78347
1.78302
1.78173
1.77935
1.77698
1.775
1.77332
1.77178
1.77026
1.76871
1.7672
1.7657
1.7642
1.7627
1.76125
1.75992
1.75874
1.75784
1.75737
1.75729
1.75736
1.75764
1.75833
1.75956
1.7609
1.76222
1.76334
1.76407
1.7644
1.76448
1.76452
1.76461
1.76478
1.76512
1.76568
1.76678
1.76872
1.77163
1.77546
1.78
1.78494
1.79005
1.79505
1.79962
1.80365
1.80725
1.81048
1.81301
1.81536
1.81757
1.81983
1.82213
1.82491
1.82745
1.83047
1.83387
1.83643
1.83801
1.84062
1.84313
1.84458
1.84563
1.84604
1.84617
1.84609
1.84562
1.84448
1.84316
1.84014
1.83784
1.83267
1.82924
1.82184
1.81734
1.80865
1.80429
1.79605
1.79188
1.78339
1.7783
1.76702
1.7591
1.73291
2.25511
2.16974
2.09621
2.03038
1.97136
1.91777
1.87019
1.82825
1.79276
1.7618
1.73806
1.71955
1.70949
1.70473
1.70507
1.70629
1.70878
1.7105
1.71189
1.71257
1.71216
1.71079
1.70788
1.70437
1.70095
1.69766
1.69455
1.69169
1.68906
1.68655
1.68418
1.68207
1.68033
1.67897
1.67803
1.67761
1.67759
1.67772
1.67817
1.67916
1.68056
1.68204
1.68344
1.68452
1.68521
1.68561
1.68591
1.68613
1.68642
1.68679
1.68729
1.68818
1.68984
1.69251
1.6962
1.70073
1.70582
1.71117
1.71657
1.72184
1.72673
1.73112
1.73505
1.73883
1.74232
1.74583
1.74925
1.75337
1.7572
1.76122
1.76562
1.77046
1.77432
1.77806
1.78207
1.78523
1.78776
1.79036
1.79235
1.79339
1.79408
1.79424
1.79418
1.79379
1.79289
1.79072
1.78879
1.78445
1.78153
1.77526
1.77163
1.7642
1.7603
1.75247
1.74822
1.73936
1.73369
1.72111
1.71239
1.68416
2.26138
2.17628
2.10074
2.034
1.97464
1.9208
1.87262
1.8292
1.79103
1.75631
1.72728
1.70201
1.68223
1.66857
1.66106
1.65736
1.65757
1.65838
1.65957
1.66112
1.66141
1.66104
1.65983
1.65718
1.65305
1.64835
1.64347
1.63873
1.63444
1.63061
1.62715
1.62406
1.62152
1.61961
1.61838
1.61785
1.61781
1.61797
1.61856
1.6198
1.62131
1.62275
1.62396
1.62472
1.62499
1.62499
1.62484
1.62455
1.62455
1.62467
1.62499
1.62588
1.62772
1.63098
1.63511
1.6398
1.64476
1.64963
1.65424
1.65846
1.66225
1.66568
1.66885
1.67203
1.67509
1.67847
1.68214
1.68675
1.69139
1.69653
1.70184
1.70759
1.71292
1.71764
1.72206
1.72625
1.73073
1.73347
1.73594
1.73818
1.7398
1.74094
1.74169
1.74193
1.74189
1.74155
1.74046
1.73806
1.73582
1.73129
1.72834
1.72248
1.71893
1.71174
1.70705
1.69703
1.6901
1.67458
1.6641
1.63126
2.25974
2.18575
2.11232
2.04365
1.98298
1.92836
1.87958
1.83516
1.79533
1.75986
1.72817
1.70136
1.67805
1.6583
1.64229
1.63101
1.6239
1.6206
1.6197
1.6199
1.62046
1.62051
1.62016
1.61898
1.61635
1.61224
1.60757
1.60277
1.59811
1.59386
1.59019
1.58711
1.5846
1.58269
1.58141
1.58065
1.58022
1.57994
1.57975
1.57956
1.57926
1.57871
1.57774
1.57629
1.57454
1.57278
1.57125
1.57032
1.57014
1.57026
1.57079
1.57213
1.57488
1.57854
1.58263
1.5869
1.59114
1.59509
1.59867
1.60191
1.60487
1.60753
1.61011
1.61291
1.61611
1.61981
1.62404
1.62904
1.63416
1.63942
1.64465
1.65027
1.6553
1.65962
1.66392
1.66784
1.672
1.67521
1.67847
1.68114
1.68402
1.68651
1.68873
1.69055
1.69213
1.69316
1.69374
1.69392
1.69369
1.69281
1.69112
1.6876
1.68439
1.67761
1.67227
1.66058
1.65214
1.63328
1.62114
1.58363
2.25576
2.19083
2.12489
2.06035
2.00031
1.94453
1.89412
1.84848
1.80678
1.76932
1.73566
1.70585
1.67974
1.65684
1.63705
1.62024
1.60692
1.59749
1.59158
1.58809
1.58623
1.58486
1.58365
1.58231
1.58033
1.57742
1.5738
1.56979
1.56562
1.56148
1.55768
1.55447
1.55193
1.55006
1.5488
1.54806
1.54763
1.54731
1.54695
1.54641
1.54551
1.54408
1.54203
1.53945
1.53664
1.5339
1.53151
1.52989
1.52932
1.52936
1.52972
1.5308
1.53308
1.53611
1.53931
1.54247
1.54545
1.54814
1.5505
1.55262
1.55462
1.55657
1.55872
1.56143
1.56475
1.56864
1.57292
1.57801
1.58309
1.58833
1.59355
1.59915
1.60408
1.60849
1.61282
1.61696
1.6213
1.62511
1.62884
1.63246
1.63625
1.64005
1.64413
1.64802
1.65188
1.65527
1.65839
1.66065
1.66235
1.66284
1.66256
1.66107
1.65772
1.65002
1.64322
1.62804
1.61743
1.59417
1.57991
1.53566
2.24394
2.18969
2.13063
2.07188
2.01568
1.96265
1.91357
1.86803
1.82676
1.7885
1.75393
1.72188
1.6932
1.66728
1.64468
1.625
1.60807
1.5939
1.58196
1.57244
1.56564
1.5607
1.55688
1.55379
1.55134
1.54875
1.54584
1.54272
1.5394
1.53593
1.53251
1.52939
1.52675
1.52472
1.52326
1.52229
1.52164
1.52109
1.52042
1.51948
1.51816
1.51634
1.51394
1.51107
1.50804
1.50513
1.50257
1.50072
1.49991
1.49987
1.50006
1.50072
1.50212
1.50396
1.50588
1.50766
1.5094
1.51089
1.51225
1.51345
1.51485
1.51625
1.51809
1.52047
1.52367
1.52726
1.53127
1.53609
1.54109
1.54602
1.55101
1.55625
1.56115
1.56533
1.56984
1.5746
1.57998
1.58549
1.5915
1.59798
1.60523
1.61272
1.62087
1.62884
1.63679
1.6438
1.65027
1.65514
1.65889
1.66007
1.6598
1.65793
1.65316
1.64199
1.63242
1.61179
1.59833
1.56936
1.55342
1.49908
2.23782
2.18689
2.13417
2.08081
2.02839
1.97848
1.93133
1.88739
1.84674
1.8091
1.77459
1.74265
1.71364
1.68667
1.66254
1.64016
1.62021
1.60213
1.58607
1.57213
1.55963
1.54942
1.54141
1.53486
1.52979
1.52583
1.52233
1.51926
1.51641
1.51367
1.51119
1.50893
1.50689
1.50505
1.50348
1.5021
1.50097
1.49994
1.49876
1.49718
1.49506
1.49242
1.48933
1.48593
1.48249
1.47932
1.47662
1.47461
1.47355
1.47336
1.47346
1.47384
1.47464
1.47566
1.47659
1.47741
1.47818
1.47885
1.47945
1.48011
1.48105
1.48236
1.48424
1.48686
1.49018
1.49405
1.49817
1.50294
1.50769
1.51289
1.51816
1.52354
1.52951
1.53557
1.54304
1.55152
1.56151
1.57261
1.58501
1.59809
1.61238
1.62636
1.6407
1.6541
1.667
1.67725
1.68541
1.69032
1.69209
1.69118
1.68803
1.68042
1.67147
1.65346
1.64099
1.61437
1.59855
1.56352
1.54747
1.48256
2.223
2.17938
2.13387
2.08533
2.03697
1.99022
1.94578
1.90383
1.86458
1.82796
1.79392
1.76222
1.733
1.7058
1.68049
1.6571
1.63531
1.61501
1.59624
1.57897
1.56308
1.54906
1.53649
1.52609
1.51765
1.51096
1.50596
1.50215
1.49919
1.49697
1.49543
1.49437
1.49337
1.49217
1.49077
1.48929
1.48766
1.4857
1.48332
1.48047
1.47711
1.4733
1.46926
1.46522
1.46141
1.45803
1.45522
1.4531
1.45181
1.45138
1.45139
1.45154
1.45192
1.4524
1.45268
1.45293
1.4531
1.45333
1.45356
1.45395
1.45472
1.45603
1.45793
1.4606
1.46403
1.46811
1.47254
1.47825
1.48401
1.49056
1.49851
1.50817
1.52018
1.53384
1.55057
1.56873
1.58995
1.61289
1.6382
1.6615
1.68467
1.70474
1.72167
1.73347
1.7412
1.74519
1.74557
1.74336
1.73843
1.72906
1.72146
1.70539
1.69526
1.67184
1.65873
1.6297
1.61374
1.57692
1.56195
1.49112
2.2139
2.17503
2.13184
2.08831
2.04311
1.99855
1.95577
1.91529
1.87757
1.84226
1.80926
1.77862
1.74962
1.72279
1.69728
1.67324
1.65054
1.62886
1.60823
1.58868
1.57038
1.55333
1.53796
1.5244
1.51268
1.50308
1.49544
1.48976
1.48583
1.48316
1.48152
1.48078
1.48036
1.47995
1.47923
1.47814
1.47635
1.47376
1.47046
1.46651
1.46209
1.45732
1.4525
1.44784
1.44368
1.44013
1.43732
1.43522
1.43391
1.43326
1.43307
1.43302
1.43297
1.43278
1.43239
1.43168
1.43101
1.43075
1.4308
1.43094
1.43154
1.43266
1.4347
1.43775
1.44208
1.44744
1.45398
1.4626
1.47386
1.48844
1.50774
1.53016
1.55688
1.58795
1.62321
1.65828
1.69128
1.71656
1.7342
1.74542
1.75159
1.75178
1.75037
1.74602
1.74085
1.73044
1.72489
1.70972
1.70279
1.68434
1.67645
1.65501
1.64527
1.62052
1.60884
1.58244
1.56907
1.54081
1.52762
1.47691
2.19336
2.16196
2.12611
2.08654
2.04584
2.0042
1.96362
1.92457
1.88776
1.85321
1.82099
1.79089
1.76267
1.73613
1.7109
1.68693
1.66383
1.64166
1.62014
1.59951
1.57975
1.56117
1.54384
1.52803
1.51394
1.50165
1.49134
1.48313
1.47701
1.47276
1.47021
1.46877
1.46814
1.46791
1.46747
1.46656
1.46487
1.46237
1.45905
1.45499
1.4503
1.44532
1.44029
1.43552
1.43126
1.42764
1.42481
1.42276
1.4213
1.42034
1.41961
1.41889
1.41795
1.41676
1.41541
1.41402
1.41265
1.41181
1.41181
1.41209
1.4129
1.41492
1.41869
1.42413
1.43169
1.44305
1.45855
1.48152
1.50864
1.5434
1.58405
1.6293
1.67471
1.70435
1.72437
1.73337
1.73618
1.73493
1.7322
1.72683
1.72189
1.71285
1.70737
1.6944
1.6884
1.6728
1.66568
1.64749
1.63964
1.61964
1.61109
1.58936
1.57955
1.55609
1.54521
1.52077
1.50906
1.48464
1.47259
1.43833
2.18139
2.15195
2.11932
2.08268
2.04422
2.00579
1.96716
1.92986
1.89443
1.86104
1.82979
1.80053
1.77301
1.74703
1.72225
1.69825
1.67516
1.6526
1.63081
1.60971
1.58943
1.57009
1.55171
1.53461
1.51876
1.50458
1.4922
1.48167
1.47318
1.4667
1.46193
1.45874
1.45666
1.45527
1.45424
1.45318
1.45168
1.4495
1.4465
1.44275
1.4384
1.43373
1.42897
1.42444
1.42032
1.41677
1.41391
1.41164
1.40988
1.40836
1.40691
1.40537
1.4037
1.40186
1.39986
1.39805
1.39625
1.39553
1.39584
1.39744
1.4005
1.40596
1.41507
1.42888
1.45274
1.48297
1.52231
1.57057
1.62536
1.67377
1.70058
1.71449
1.71856
1.71776
1.71521
1.71007
1.70538
1.69672
1.6906
1.67905
1.67274
1.65907
1.65232
1.6375
1.62952
1.61309
1.60425
1.58637
1.57692
1.55806
1.54825
1.52869
1.51833
1.49769
1.48707
1.46603
1.45536
1.43392
1.4241
1.39785
2.15861
2.13091
2.10308
2.07494
2.04082
2.00446
1.96882
1.9332
1.89896
1.86657
1.83611
1.80763
1.78085
1.75537
1.73113
1.70762
1.68482
1.6626
1.64088
1.61968
1.59912
1.57917
1.56018
1.54208
1.52531
1.50985
1.496
1.48382
1.47341
1.46473
1.45776
1.45237
1.44828
1.44519
1.44278
1.4407
1.43863
1.43626
1.43348
1.43019
1.42645
1.42241
1.41827
1.41429
1.41057
1.4073
1.40442
1.40196
1.3998
1.39778
1.39574
1.3935
1.3913
1.3888
1.3867
1.38471
1.38404
1.38519
1.3884
1.39413
1.40471
1.42524
1.45614
1.49545
1.54789
1.60838
1.66086
1.68844
1.69837
1.69982
1.69894
1.69502
1.69056
1.68271
1.67607
1.66578
1.65884
1.64684
1.63987
1.62677
1.61818
1.60538
1.59561
1.58128
1.57139
1.5554
1.54584
1.52815
1.51913
1.5008
1.49199
1.47368
1.46478
1.44629
1.43716
1.4186
1.40936
1.39038
1.38202
1.36133
2.14353
2.12144
2.0916
2.06041
2.0315
2.00056
1.96709
1.93404
1.9014
1.87008
1.84045
1.81247
1.78624
1.76142
1.73769
1.71495
1.69271
1.67101
1.64969
1.62872
1.60811
1.58814
1.56867
1.55026
1.53271
1.5165
1.50152
1.48808
1.47607
1.4657
1.45676
1.44923
1.443
1.43786
1.43359
1.42994
1.42667
1.42353
1.42037
1.41709
1.41371
1.41021
1.4067
1.40329
1.40009
1.39714
1.3944
1.39183
1.38931
1.38682
1.38416
1.38159
1.37886
1.37666
1.37551
1.37648
1.3796
1.3863
1.39926
1.4271
1.46428
1.51634
1.58151
1.64051
1.67578
1.68351
1.68465
1.68327
1.67897
1.67268
1.66542
1.65619
1.64834
1.63776
1.62984
1.61817
1.60948
1.59725
1.5873
1.5746
1.56437
1.55037
1.54041
1.52533
1.51533
1.49921
1.49001
1.47304
1.46454
1.44749
1.43945
1.42311
1.41519
1.39887
1.39086
1.37458
1.36654
1.34995
1.34272
1.32656
2.11023
2.09909
2.07751
2.0504
2.02239
1.99305
1.96303
1.93081
1.9009
1.87112
1.84271
1.8158
1.79039
1.76632
1.74315
1.7209
1.69918
1.67791
1.65696
1.63635
1.61607
1.59625
1.57699
1.55834
1.54058
1.52369
1.50801
1.49346
1.48029
1.46843
1.45791
1.44873
1.44059
1.43352
1.42734
1.42188
1.41703
1.41265
1.40858
1.40478
1.40117
1.39776
1.39459
1.39162
1.38885
1.38628
1.38378
1.38135
1.37876
1.37629
1.37358
1.37163
1.37053
1.37154
1.37481
1.38312
1.39996
1.43384
1.47971
1.54391
1.61317
1.66236
1.67369
1.67467
1.67292
1.66758
1.66093
1.65217
1.64279
1.63283
1.62375
1.61334
1.6036
1.59249
1.58206
1.56994
1.55899
1.54621
1.5356
1.5219
1.5113
1.49722
1.48694
1.47209
1.46264
1.44699
1.4387
1.42289
1.4152
1.39997
1.39275
1.37817
1.37114
1.35667
1.34961
1.33511
1.32798
1.31331
1.30698
1.2942
2.08728
2.07669
2.05744
2.0322
2.00667
1.98143
1.95706
1.92884
1.89912
1.87082
1.84362
1.81747
1.79267
1.76918
1.74675
1.72511
1.70406
1.68343
1.6631
1.64297
1.62313
1.60348
1.58429
1.56556
1.54751
1.53031
1.51405
1.49893
1.48494
1.47211
1.46049
1.44985
1.44037
1.43172
1.42383
1.41668
1.41015
1.4042
1.3988
1.39394
1.38961
1.38576
1.38238
1.37944
1.37681
1.37445
1.37219
1.37006
1.36806
1.36633
1.36649
1.36772
1.37161
1.38106
1.40299
1.44201
1.49576
1.57432
1.6381
1.67173
1.67096
1.66899
1.66411
1.65602
1.64634
1.63526
1.62482
1.614
1.60328
1.59217
1.58093
1.56913
1.55772
1.54559
1.53403
1.52114
1.50988
1.49667
1.48567
1.47228
1.46179
1.44783
1.43825
1.42384
1.41544
1.40073
1.39346
1.3791
1.37215
1.35856
1.3521
1.33888
1.33262
1.31945
1.31314
1.2999
1.29349
1.28075
1.27414
1.26448
2.03993
2.05438
2.0455
2.02619
1.99974
1.97413
1.94783
1.92402
1.89697
1.86956
1.84299
1.81769
1.79325
1.77017
1.74829
1.7274
1.70719
1.68742
1.66793
1.64848
1.62913
1.6098
1.59066
1.57192
1.55368
1.53621
1.51962
1.504
1.48947
1.47598
1.4635
1.45206
1.44138
1.43157
1.42246
1.41389
1.40589
1.39849
1.39166
1.38546
1.37993
1.37518
1.37109
1.36769
1.3648
1.36242
1.36072
1.35981
1.36049
1.36249
1.36812
1.37861
1.40486
1.45076
1.51054
1.59774
1.65796
1.673
1.67151
1.66648
1.65802
1.64782
1.63618
1.62342
1.6113
1.599
1.58691
1.57428
1.56181
1.54908
1.53679
1.52418
1.51225
1.49934
1.48781
1.47493
1.46379
1.45081
1.44042
1.42709
1.41763
1.40413
1.39582
1.38229
1.37466
1.3618
1.35477
1.34241
1.33573
1.32381
1.31743
1.30569
1.29958
1.28795
1.28162
1.27056
1.26346
1.25376
1.24666
1.23904
1.99951
2.02585
2.0239
2.01361
1.99266
1.9676
1.94146
1.91535
1.88983
1.86451
1.83954
1.81536
1.79233
1.77005
1.74862
1.72837
1.70878
1.68975
1.67097
1.65224
1.63346
1.61459
1.59576
1.57711
1.55891
1.54131
1.52455
1.50864
1.49373
1.47973
1.46671
1.45449
1.44316
1.4324
1.42231
1.41273
1.40366
1.39501
1.38693
1.37949
1.37274
1.36677
1.36163
1.35735
1.35422
1.35249
1.35322
1.35589
1.36169
1.37422
1.40292
1.45416
1.51929
1.61096
1.67134
1.67512
1.67368
1.66623
1.65609
1.64381
1.63048
1.61695
1.60333
1.58956
1.57567
1.5616
1.54812
1.53433
1.52111
1.50776
1.49525
1.4824
1.47052
1.45781
1.44671
1.43393
1.42361
1.41074
1.40118
1.38837
1.37973
1.36738
1.35944
1.34747
1.34023
1.329
1.32216
1.31136
1.30482
1.29408
1.28777
1.27736
1.27105
1.26123
1.25438
1.24571
1.23827
1.23043
1.22398
1.21757
1.91134
1.98717
1.99969
1.99219
1.97629
1.95164
1.92653
1.90469
1.88276
1.85881
1.83463
1.81069
1.78757
1.76733
1.74786
1.72836
1.70944
1.69086
1.67256
1.6543
1.63599
1.61757
1.59917
1.58088
1.56295
1.54547
1.52866
1.51266
1.49744
1.48317
1.46967
1.45705
1.44505
1.43376
1.4229
1.41258
1.40265
1.39318
1.38417
1.37569
1.36791
1.36097
1.35487
1.35045
1.34981
1.35125
1.35601
1.36911
1.39872
1.45177
1.51991
1.61504
1.67789
1.67921
1.67728
1.66783
1.65675
1.64337
1.62877
1.61461
1.59958
1.5843
1.56917
1.55399
1.53907
1.52479
1.51085
1.49693
1.48365
1.47068
1.45835
1.44574
1.43418
1.42184
1.41118
1.39879
1.3891
1.37678
1.36799
1.35594
1.34818
1.33664
1.32925
1.31854
1.31157
1.30148
1.29494
1.28499
1.27855
1.26882
1.26249
1.25331
1.24701
1.23867
1.23195
1.22465
1.21801
1.21101
1.2055
1.19994
1.72559
1.90691
1.95563
1.97004
1.96214
1.94482
1.91855
1.89268
1.8703
1.85104
1.83051
1.80857
1.78643
1.76453
1.74411
1.72655
1.70878
1.69081
1.67283
1.65493
1.63716
1.61927
1.6014
1.58354
1.56596
1.5487
1.53201
1.51593
1.50065
1.48612
1.4724
1.45943
1.44708
1.43531
1.424
1.41307
1.40257
1.39242
1.38279
1.37359
1.36534
1.35816
1.35271
1.354
1.35885
1.36755
1.3943
1.44779
1.51746
1.61513
1.68184
1.68483
1.68263
1.67177
1.65909
1.64437
1.62893
1.61343
1.59726
1.58064
1.5644
1.5484
1.53279
1.51769
1.50325
1.48923
1.47551
1.46223
1.44945
1.43699
1.42494
1.41292
1.40182
1.38984
1.37972
1.36779
1.35886
1.34711
1.33906
1.32799
1.32053
1.31003
1.30298
1.29309
1.28647
1.27712
1.27076
1.26159
1.25527
1.24652
1.24049
1.23238
1.22657
1.21929
1.21351
1.20681
1.20146
1.19505
1.19053
1.18576
1.44614
1.78709
1.90943
1.93268
1.93679
1.92966
1.91302
1.88857
1.86503
1.84227
1.82222
1.8042
1.7844
1.76365
1.7433
1.72334
1.70493
1.68877
1.67192
1.65468
1.63727
1.62003
1.60279
1.5855
1.56834
1.55134
1.5348
1.51873
1.50339
1.48874
1.47486
1.46163
1.44903
1.43693
1.42526
1.41399
1.40305
1.39255
1.3827
1.37332
1.36647
1.36369
1.36581
1.37271
1.39719
1.44507
1.5151
1.6163
1.68807
1.69443
1.6912
1.67877
1.66449
1.64766
1.63008
1.61252
1.59534
1.57746
1.56016
1.54347
1.5272
1.51156
1.49675
1.48237
1.4686
1.45519
1.44213
1.42933
1.41709
1.40499
1.39348
1.38177
1.37102
1.35951
1.34982
1.33866
1.33002
1.31926
1.31141
1.30129
1.29388
1.28429
1.27731
1.26814
1.26166
1.25299
1.24664
1.23842
1.23219
1.22477
1.21891
1.21231
1.20706
1.20085
1.19622
1.19017
1.18603
1.18065
1.17683
1.17335
1.23534
1.53428
1.81324
1.89488
1.91226
1.90957
1.90058
1.88226
1.86064
1.83903
1.81764
1.79688
1.77863
1.76061
1.74141
1.72204
1.70332
1.6847
1.66805
1.65276
1.63662
1.61999
1.60333
1.58664
1.56996
1.55335
1.53708
1.52114
1.50586
1.49112
1.47711
1.46368
1.45086
1.4385
1.42662
1.41512
1.40405
1.39379
1.38507
1.37802
1.38017
1.38705
1.40159
1.44425
1.51371
1.6187
1.69727
1.71169
1.70622
1.69127
1.676
1.65597
1.63552
1.61604
1.59643
1.5776
1.55927
1.54148
1.52463
1.508
1.49259
1.47765
1.46351
1.44966
1.43652
1.42339
1.41084
1.39838
1.3866
1.37479
1.36362
1.35226
1.3418
1.33089
1.32149
1.31105
1.30239
1.29257
1.2845
1.27524
1.26753
1.25855
1.25137
1.24278
1.23609
1.22815
1.22154
1.21447
1.20791
1.20214
1.19586
1.19108
1.18566
1.18086
1.17657
1.17177
1.16808
1.1642
1.16074
1.15885
1.11132
1.29497
1.59848
1.81623
1.87845
1.88889
1.88386
1.87115
1.85136
1.83257
1.81366
1.79378
1.77329
1.75373
1.73578
1.71835
1.70078
1.68325
1.66611
1.64937
1.63424
1.61917
1.6032
1.58696
1.57068
1.55447
1.53854
1.52289
1.50778
1.4931
1.47909
1.46552
1.45258
1.44007
1.42813
1.41702
1.40658
1.39865
1.3988
1.40195
1.41269
1.44878
1.51498
1.61873
1.70798
1.7362
1.72644
1.71046
1.69425
1.67137
1.649
1.62659
1.60546
1.58475
1.56533
1.54658
1.52848
1.51091
1.49428
1.4783
1.46314
1.44844
1.43444
1.42077
1.40776
1.39478
1.38255
1.37036
1.35888
1.34725
1.33638
1.32525
1.31516
1.30482
1.29554
1.28574
1.27711
1.26792
1.2597
1.25089
1.24293
1.23438
1.22705
1.21903
1.21216
1.20486
1.19807
1.19176
1.18505
1.18014
1.17368
1.16975
1.16417
1.16044
1.15575
1.15248
1.1484
1.14578
1.1425
1.14153
1.05028
1.13295
1.32945
1.63645
1.80815
1.8547
1.86494
1.85868
1.84439
1.82301
1.80502
1.78832
1.77004
1.75009
1.73025
1.71196
1.69543
1.67982
1.66409
1.64822
1.63229
1.61681
1.60193
1.58651
1.57061
1.55475
1.53912
1.5238
1.50894
1.49445
1.48055
1.46706
1.45426
1.44204
1.43067
1.42234
1.41761
1.42024
1.43084
1.4576
1.51571
1.61405
1.71916
1.76431
1.75146
1.73651
1.71798
1.69298
1.66878
1.64469
1.6213
1.59881
1.57786
1.55755
1.53852
1.51975
1.50203
1.48458
1.46834
1.45238
1.43739
1.42267
1.40873
1.39496
1.38211
1.36932
1.35748
1.34535
1.3341
1.32251
1.31188
1.30107
1.29131
1.28134
1.27215
1.26281
1.25415
1.24534
1.23704
1.22858
1.22067
1.21274
1.20555
1.19819
1.19148
1.18461
1.17817
1.17191
1.16598
1.1607
1.15503
1.15094
1.14556
1.14217
1.13733
1.13466
1.13047
1.12838
1.12505
1.12422
1.02431
1.05907
1.15112
1.36855
1.66331
1.79634
1.82625
1.83913
1.83289
1.81922
1.79831
1.77919
1.76296
1.74597
1.72743
1.70842
1.6907
1.67495
1.66025
1.64575
1.63057
1.6152
1.59959
1.58438
1.56953
1.55434
1.53905
1.52406
1.50944
1.49525
1.48165
1.46854
1.45667
1.44682
1.43937
1.44162
1.4508
1.46933
1.51915
1.60945
1.72807
1.79195
1.78175
1.7662
1.74592
1.71993
1.69345
1.66791
1.64261
1.61863
1.59594
1.57394
1.5535
1.53354
1.51465
1.49624
1.47901
1.46198
1.44611
1.43025
1.41564
1.40068
1.38684
1.37261
1.35951
1.34621
1.33424
1.32185
1.31082
1.29937
1.2892
1.2787
1.26921
1.25943
1.25035
1.24123
1.23263
1.22407
1.21601
1.20797
1.20056
1.19326
1.1864
1.17968
1.17315
1.16681
1.16063
1.1548
1.14923
1.14425
1.1389
1.13514
1.13007
1.12683
1.12248
1.11999
1.116
1.11409
1.1108
1.10971
1.01151
1.02693
1.06896
1.1735
1.41047
1.68201
1.78401
1.8038
1.8148
1.80929
1.79583
1.77508
1.75518
1.73851
1.72277
1.70596
1.68845
1.67167
1.65617
1.64189
1.62767
1.61298
1.59785
1.58258
1.56738
1.55267
1.5383
1.52389
1.50981
1.49615
1.48367
1.47234
1.46379