/*--------------------------------*- C++ -*----------------------------------*\
  =========                 |
  \\      /  F ield         | OpenFOAM: The Open Source CFD Toolbox
   \\    /   O peration     | Website:  https://openfoam.org
    \\  /    A nd           | Version:  9
     \\/     M anipulation  |
\*---------------------------------------------------------------------------*/
FoamFile
{
    format      ascii;
    class       volVectorField;
    location    "1";
    object      U;
}
// * * * * * * * * * * * * * * * * * * * * * * * * * * * * * * * * * * * * * //

dimensions      [0 1 -1 0 0 0 0];

internalField   nonuniform List<vector> 
5250
(
(3 3.06954e-09 0)
(3 1.09431e-08 0)
(2.99999 7.62613e-08 0)
(2.99997 1.05244e-07 0)
(2.99994 5.54298e-07 0)
(2.99984 8.87872e-07 0)
(2.9996 3.1347e-06 0)
(2.999 7.06894e-06 0)
(2.99754 1.74148e-05 0)
(2.99381 5.04724e-05 0)
(2.98458 0.000111255 0)
(2.96047 0.000321817 0)
(2.89498 0.000830411 0)
(2.70396 0.00242728 0)
(2.11884 0.00737228 0)
(0.948434 0.0228755 0)
(0.296341 0.0229421 0)
(0.508629 0.0241836 0)
(0.553858 0.0274399 0)
(0.481802 0.030889 0)
(0.378125 0.0346146 0)
(0.288694 0.0381956 0)
(0.212584 0.0413468 0)
(0.13642 0.044512 0)
(0.0647573 0.0487356 0)
(3 8.44623e-09 0)
(3 3.9409e-08 0)
(2.99999 1.92316e-07 0)
(2.99997 3.83634e-07 0)
(2.99994 1.40957e-06 0)
(2.99984 2.8548e-06 0)
(2.99961 8.48931e-06 0)
(2.99901 2.02594e-05 0)
(2.99757 5.20654e-05 0)
(2.99389 0.000137496 0)
(2.9848 0.000339913 0)
(2.96108 0.000915944 0)
(2.89673 0.00245976 0)
(2.70963 0.00709665 0)
(2.13698 0.0218437 0)
(0.964393 0.0674056 0)
(0.305059 0.0675192 0)
(0.512201 0.0687979 0)
(0.555684 0.0744974 0)
(0.482432 0.0803151 0)
(0.37853 0.0871034 0)
(0.288731 0.0930677 0)
(0.211701 0.0971833 0)
(0.134427 0.0998961 0)
(0.0632198 0.104001 0)
(3 1.2484e-08 0)
(3 7.48441e-08 0)
(2.99999 2.71768e-07 0)
(2.99997 7.38877e-07 0)
(2.99994 2.03917e-06 0)
(2.99984 5.0202e-06 0)
(2.99962 1.30394e-05 0)
(2.99903 3.21519e-05 0)
(2.99764 8.2715e-05 0)
(2.99405 0.000206278 0)
(2.98523 0.000533381 0)
(2.96225 0.00137333 0)
(2.90018 0.00372117 0)
(2.72073 0.0105895 0)
(2.17438 0.0326347 0)
(0.999833 0.101664 0)
(0.325974 0.113654 0)
(0.519947 0.119044 0)
(0.560745 0.127721 0)
(0.487127 0.136953 0)
(0.383928 0.149102 0)
(0.293611 0.159664 0)
(0.215262 0.167003 0)
(0.136265 0.17197 0)
(0.064064 0.178885 0)
(3 1.63961e-08 0)
(3 1.06219e-07 0)
(2.99999 3.58927e-07 0)
(2.99998 1.05145e-06 0)
(2.99994 2.71401e-06 0)
(2.99985 6.97786e-06 0)
(2.99963 1.75138e-05 0)
(2.99907 4.32017e-05 0)
(2.99772 0.000108945 0)
(2.99427 0.000269356 0)
(2.98578 0.000682794 0)
(2.96375 0.00172982 0)
(2.90451 0.00457753 0)
(2.73445 0.0127261 0)
(2.22085 0.0380229 0)
(1.0494 0.116756 0)
(0.355438 0.161561 0)
(0.528857 0.173527 0)
(0.566763 0.182938 0)
(0.495028 0.194336 0)
(0.394204 0.211745 0)
(0.303243 0.227242 0)
(0.223102 0.238517 0)
(0.141492 0.246781 0)
(0.0667948 0.257691 0)
(3 2.03357e-08 0)
(3 1.33075e-07 0)
(2.99999 4.44582e-07 0)
(2.99998 1.30522e-06 0)
(2.99994 3.36388e-06 0)
(2.99986 8.63646e-06 0)
(2.99965 2.15264e-05 0)
(2.99911 5.31961e-05 0)
(2.99782 0.00013348 0)
(2.99453 0.000328767 0)
(2.98645 0.000826728 0)
(2.9655 0.00207464 0)
(2.90941 0.00539481 0)
(2.74904 0.0147009 0)
(2.26643 0.0425076 0)
(1.11559 0.127557 0)
(0.395742 0.211325 0)
(0.536956 0.231179 0)
(0.571342 0.238614 0)
(0.504807 0.250931 0)
(0.408711 0.273759 0)
(0.317388 0.294464 0)
(0.235271 0.310366 0)
(0.150474 0.322975 0)
(0.0718304 0.338945 0)
(3 2.43447e-08 0)
(3 1.56412e-07 0)
(2.99999 5.30732e-07 0)
(2.99998 1.53293e-06 0)
(2.99995 3.99443e-06 0)
(2.99986 1.01524e-05 0)
(2.99967 2.52968e-05 0)
(2.99916 6.24937e-05 0)
(2.99795 0.000156356 0)
(2.99485 0.000384137 0)
(2.98724 0.00096084 0)
(2.96755 0.00240287 0)
(2.91506 0.00618366 0)
(2.76552 0.0167074 0)
(2.3172 0.0476606 0)
(1.19937 0.142867 0)
(0.451642 0.260224 0)
(0.54642 0.290169 0)
(0.574155 0.293061 0)
(0.517177 0.306198 0)
(0.428269 0.335882 0)
(0.336612 0.362837 0)
(0.252537 0.385085 0)
(0.163827 0.40432 0)
(0.0794855 0.428214 0)
(3 2.85027e-08 0)
(3 1.78298e-07 0)
(2.99999 6.21077e-07 0)
(2.99998 1.75705e-06 0)
(2.99995 4.6298e-06 0)
(2.99987 1.16852e-05 0)
(2.99969 2.92408e-05 0)
(2.99922 7.21994e-05 0)
(2.99809 0.000179907 0)
(2.9952 0.000442443 0)
(2.98813 0.00110135 0)
(2.96985 0.00274702 0)
(2.92134 0.0070364 0)
(2.78363 0.0188453 0)
(2.37285 0.0533134 0)
(1.2993 0.158624 0)
(0.524393 0.314292 0)
(0.557727 0.343217 0)
(0.574614 0.344865 0)
(0.533369 0.362677 0)
(0.454037 0.398001 0)
(0.362557 0.432574 0)
(0.27736 0.463871 0)
(0.184846 0.493354 0)
(0.0922479 0.530614 0)
(3 3.15146e-08 0)
(3 2.00425e-07 0)
(2.99999 6.84831e-07 0)
(2.99998 1.98199e-06 0)
(2.99995 5.11288e-06 0)
(2.99988 1.31575e-05 0)
(2.99972 3.28166e-05 0)
(2.99929 8.06607e-05 0)
(2.99826 0.000204026 0)
(2.99561 0.000489897 0)
(2.98916 0.00125037 0)
(2.97249 0.0030485 0)
(2.92848 0.00788547 0)
(2.80403 0.0208771 0)
(2.43448 0.0589007 0)
(1.42594 0.172821 0)
(0.612978 0.3731 0)
(0.566317 0.389659 0)
(0.580515 0.394642 0)
(0.554393 0.421071 0)
(0.485367 0.459482 0)
(0.397574 0.503437 0)
(0.312963 0.547589 0)
(0.217707 0.592766 0)
(0.113578 0.655104 0)
(3 3.81013e-08 0)
(3 2.04056e-07 0)
(2.99999 7.93271e-07 0)
(2.99998 2.01115e-06 0)
(2.99996 5.90053e-06 0)
(2.9999 1.34125e-05 0)
(2.99975 3.78822e-05 0)
(2.99936 8.28827e-05 0)
(2.99843 0.000233858 0)
(2.99607 0.000509473 0)
(2.99026 0.00141278 0)
(2.97537 0.00323675 0)
(2.93621 0.0086605 0)
(2.82606 0.0224128 0)
(2.50033 0.0633901 0)
(1.5752 0.184818 0)
(0.715182 0.433135 0)
(0.572542 0.437222 0)
(0.594057 0.443311 0)
(0.581638 0.477358 0)
(0.523289 0.519865 0)
(0.445201 0.574776 0)
(0.364585 0.634115 0)
(0.272514 0.705286 0)
(0.152963 0.816048 0)
(3 3.7172e-08 0)
(3 2.27198e-07 0)
(2.99999 8.15113e-07 0)
(2.99999 2.23518e-06 0)
(2.99996 6.08773e-06 0)
(2.99991 1.50269e-05 0)
(2.99978 3.84631e-05 0)
(2.99945 9.45114e-05 0)
(2.99861 0.000234636 0)
(2.9966 0.000585097 0)
(2.99143 0.00143412 0)
(2.97853 0.00361182 0)
(2.94443 0.00907849 0)
(2.84959 0.0240292 0)
(2.56999 0.0669519 0)
(1.75027 0.195043 0)
(0.8361 0.491509 0)
(0.58188 0.486376 0)
(0.615953 0.489782 0)
(0.619136 0.52694 0)
(0.572627 0.576235 0)
(0.507755 0.641881 0)
(0.439972 0.72308 0)
(0.367046 0.841893 0)
(0.226112 1.07773 0)
(3 3.59778e-08 0)
(3 2.35873e-07 0)
(3 7.97681e-07 0)
(2.99999 2.3306e-06 0)
(2.99997 6.02492e-06 0)
(2.99992 1.56128e-05 0)
(2.99981 3.85777e-05 0)
(2.99953 9.77923e-05 0)
(2.99884 0.000239661 0)
(2.99707 0.000603671 0)
(2.99278 0.00148846 0)
(2.98174 0.00374197 0)
(2.95319 0.00946745 0)
(2.87429 0.0248941 0)
(2.64282 0.0693859 0)
(1.9494 0.202248 0)
(0.982533 0.544249 0)
(0.609587 0.540274 0)
(0.653134 0.540584 0)
(0.6719 0.572028 0)
(0.637818 0.626021 0)
(0.592061 0.699525 0)
(0.556622 0.800493 0)
(0.562699 0.952082 0)
(0.62731 1.2235 0)
(3 3.37012e-08 0)
(3 2.10483e-07 0)
(3 7.36211e-07 0)
(2.99999 2.08591e-06 0)
(2.99997 5.5597e-06 0)
(2.99994 1.40432e-05 0)
(2.99984 3.58987e-05 0)
(2.99962 8.82009e-05 0)
(2.99904 0.000225592 0)
(2.99764 0.000549203 0)
(2.99404 0.00140936 0)
(2.98518 0.00347482 0)
(2.96206 0.00893282 0)
(2.89955 0.0233571 0)
(2.71848 0.0649888 0)
(2.17229 0.191027 0)
(1.1749 0.551703 0)
(0.684141 0.585104 0)
(0.71448 0.598037 0)
(0.739958 0.616103 0)
(0.718647 0.669022 0)
(0.692041 0.745577 0)
(0.689999 0.851891 0)
(0.751706 0.999691 0)
(0.922121 1.20402 0)
(3 2.80795e-08 0)
(3 1.78149e-07 0)
(3 6.27568e-07 0)
(2.99999 1.76633e-06 0)
(2.99998 4.69671e-06 0)
(2.99995 1.20369e-05 0)
(2.99987 2.9802e-05 0)
(2.99968 7.60615e-05 0)
(2.99923 0.000184312 0)
(2.99806 0.000474966 0)
(2.99522 0.00114291 0)
(2.98802 0.00295668 0)
(2.96978 0.00727634 0)
(2.92111 0.0191697 0)
(2.78349 0.051803 0)
(2.37606 0.151426 0)
(1.39327 0.46207 0)
(0.78271 0.614097 0)
(0.774119 0.652075 0)
(0.798239 0.665829 0)
(0.799427 0.710423 0)
(0.792981 0.782372 0)
(0.815493 0.879287 0)
(0.899698 1.00113 0)
(1.08427 1.12898 0)
(3 2.54357e-08 0)
(3 1.53853e-07 0)
(3 5.49732e-07 0)
(2.99999 1.51826e-06 0)
(2.99998 4.12805e-06 0)
(2.99996 1.01569e-05 0)
(2.9999 2.63934e-05 0)
(2.99975 6.29206e-05 0)
(2.99937 0.000163201 0)
(2.99844 0.000385653 0)
(2.99611 0.00100033 0)
(2.99029 0.0023841 0)
(2.97556 0.00613294 0)
(2.93669 0.0153345 0)
(2.82785 0.0409609 0)
(2.50821 0.115101 0)
(1.62634 0.347334 0)
(0.898041 0.658933 0)
(0.813527 0.700464 0)
(0.837015 0.717195 0)
(0.862045 0.748294 0)
(0.878849 0.809657 0)
(0.919815 0.890199 0)
(1.0108 0.982855 0)
(1.18088 1.06316 0)
(3 2.10894e-08 0)
(3 1.41816e-07 0)
(3 4.70646e-07 0)
(2.99999 1.39659e-06 0)
(2.99999 3.54779e-06 0)
(2.99997 9.33423e-06 0)
(2.99992 2.2654e-05 0)
(2.9998 5.81885e-05 0)
(2.9995 0.000139944 0)
(2.99876 0.000357549 0)
(2.99689 0.000863078 0)
(2.99229 0.00219397 0)
(2.98057 0.00538794 0)
(2.95005 0.0137977 0)
(2.86579 0.0361208 0)
(2.61909 0.100818 0)
(1.8965 0.296666 0)
(1.06657 0.705497 0)
(0.850154 0.73896 0)
(0.868965 0.756832 0)
(0.909508 0.775735 0)
(0.948427 0.825318 0)
(1.00195 0.890615 0)
(1.09342 0.959608 0)
(1.24406 1.01339 0)
(3 1.91357e-08 0)
(3 1.16545e-07 0)
(3 4.16893e-07 0)
(3 1.15068e-06 0)
(2.99999 3.13645e-06 0)
(2.99997 7.75487e-06 0)
(2.99994 2.00664e-05 0)
(2.99984 4.89392e-05 0)
(2.99962 0.000124114 0)
(2.99904 0.000305442 0)
(2.99764 0.000765674 0)
(2.99407 0.00190538 0)
(2.98523 0.00478582 0)
(2.96227 0.0121026 0)
(2.90017 0.0317898 0)
(2.72118 0.0877955 0)
(2.18183 0.257793 0)
(1.29614 0.703212 0)
(0.925873 0.766798 0)
(0.919957 0.788054 0)
(0.959343 0.800624 0)
(1.01141 0.834324 0)
(1.07019 0.885759 0)
(1.15733 0.937977 0)
(1.28904 0.976378 0)
(3 1.4536e-08 0)
(3 9.66786e-08 0)
(3 3.20457e-07 0)
(3 9.56447e-07 0)
(2.99999 2.42721e-06 0)
(2.99998 6.37969e-06 0)
(2.99995 1.5674e-05 0)
(2.99988 3.9652e-05 0)
(2.99971 9.82057e-05 0)
(2.99929 0.00024316 0)
(2.99822 0.000612533 0)
(2.99564 0.00149841 0)
(2.98906 0.00380927 0)
(2.97257 0.00946423 0)
(2.92883 0.0246313 0)
(2.80673 0.0664749 0)
(2.44762 0.193157 0)
(1.58173 0.57908 0)
(1.04914 0.773658 0)
(0.988914 0.812821 0)
(1.01172 0.830758 0)
(1.06726 0.84786 0)
(1.13019 0.88366 0)
(1.21113 0.92216 0)
(1.3252 0.949682 0)
(3 1.15076e-08 0)
(3 7.58568e-08 0)
(3 2.58618e-07 0)
(3 7.50072e-07 0)
(2.99999 1.93498e-06 0)
(2.99999 5.0702e-06 0)
(2.99997 1.2217e-05 0)
(2.99991 3.18177e-05 0)
(2.99979 7.49544e-05 0)
(2.99947 0.000195972 0)
(2.99869 0.000459091 0)
(2.99673 0.00119816 0)
(2.99187 0.00283685 0)
(2.9796 0.00731306 0)
(2.94759 0.0181131 0)
(2.85941 0.0481038 0)
(2.6034 0.13354 0)
(1.87849 0.403903 0)
(1.19379 0.788664 0)
(1.04633 0.839246 0)
(1.05565 0.863756 0)
(1.10909 0.869766 0)
(1.1778 0.887045 0)
(1.25496 0.9123 0)
(1.35492 0.931069 0)
(3 9.68004e-09 0)
(3 5.76207e-08 0)
(3 2.09076e-07 0)
(3 5.69991e-07 0)
(3 1.56782e-06 0)
(2.99999 3.84264e-06 0)
(2.99997 1.00228e-05 0)
(2.99994 2.40734e-05 0)
(2.99985 6.21149e-05 0)
(2.99961 0.00014871 0)
(2.99906 0.000382621 0)
(2.99762 0.000921318 0)
(2.99416 0.00235574 0)
(2.98529 0.00576864 0)
(2.96269 0.0147698 0)
(2.90143 0.0382786 0)
(2.72596 0.105508 0)
(2.19957 0.311745 0)
(1.41942 0.782025 0)
(1.12494 0.865287 0)
(1.10811 0.889544 0)
(1.14662 0.893551 0)
(1.21642 0.8948 0)
(1.29321 0.907461 0)
(1.3826 0.918949 0)
(3 7.20887e-09 0)
(3 4.36739e-08 0)
(3 1.55542e-07 0)
(3 4.31104e-07 0)
(3 1.17406e-06 0)
(2.99999 2.88669e-06 0)
(2.99998 7.55993e-06 0)
(2.99996 1.80151e-05 0)
(2.99989 4.69419e-05 0)
(2.99973 0.000111397 0)
(2.99933 0.000288952 0)
(2.99837 0.000689523 0)
(2.99591 0.00177871 0)
(2.98995 0.00431466 0)
(2.97464 0.0110578 0)
(2.93477 0.0281595 0)
(2.82455 0.0762001 0)
(2.50009 0.220379 0)
(1.72903 0.639128 0)
(1.25387 0.863522 0)
(1.17682 0.901163 0)
(1.19116 0.914885 0)
(1.2514 0.909252 0)
(1.32747 0.909932 0)
(1.40928 0.913971 0)
(3 5.00674e-09 0)
(3 3.32024e-08 0)
(3 1.12465e-07 0)
(3 3.26931e-07 0)
(3 8.47647e-07 0)
(3 2.19854e-06 0)
(2.99999 5.39249e-06 0)
(2.99997 1.38183e-05 0)
(2.99992 3.31367e-05 0)
(2.99981 8.55505e-05 0)
(2.99954 0.000202682 0)
(2.99887 0.000525831 0)
(2.99718 0.00124581 0)
(2.99302 0.00321809 0)
(2.98253 0.00777729 0)
(2.95551 0.0200007 0)
(2.88201 0.0517741 0)
(2.67098 0.143568 0)
(2.06316 0.430206 0)
(1.42083 0.859969 0)
(1.24106 0.922231 0)
(1.23561 0.939978 0)
(1.28183 0.933238 0)
(1.35644 0.921002 0)
(1.43456 0.917008 0)
(3 3.55832e-09 0)
(3 2.41726e-08 0)
(3 7.96708e-08 0)
(3 2.38601e-07 0)
(3 6.01458e-07 0)
(3 1.59956e-06 0)
(2.99999 3.85429e-06 0)
(2.99998 9.96993e-06 0)
(2.99995 2.39594e-05 0)
(2.99988 6.10102e-05 0)
(2.9997 0.000147954 0)
(2.99924 0.000372487 0)
(2.99815 0.000911789 0)
(2.99539 0.00227593 0)
(2.98861 0.00565065 0)
(2.97126 0.0141698 0)
(2.92564 0.0365732 0)
(2.79825 0.0988741 0)
(2.41578 0.290984 0)
(1.69993 0.755111 0)
(1.34847 0.918168 0)
(1.29722 0.950473 0)
(1.31816 0.955517 0)
(1.38266 0.939056 0)
(1.45894 0.926172 0)
(3 2.65895e-09 0)
(3 1.63151e-08 0)
(3 5.79157e-08 0)
(3 1.60943e-07 0)
(3 4.34287e-07 0)
(3 1.07836e-06 0)
(2.99999 2.7629e-06 0)
(2.99999 6.70764e-06 0)
(2.99997 1.69648e-05 0)
(2.99992 4.1062e-05 0)
(2.9998 0.000103271 0)
(2.9995 0.000250432 0)
(2.99876 0.00062712 0)
(2.99697 0.00153124 0)
(2.99244 0.00382066 0)
(2.98121 0.00947091 0)
(2.95197 0.0239817 0)
(2.87285 0.0631069 0)
(2.64435 0.177213 0)
(2.02979 0.524012 0)
(1.49627 0.892674 0)
(1.36388 0.956055 0)
(1.36093 0.974562 0)
(1.40777 0.962673 0)
(1.47961 0.938225 0)
(3 1.83842e-09 0)
(3 1.10541e-08 0)
(3 4.00317e-08 0)
(3 1.09212e-07 0)
(3 2.99222e-07 0)
(3 7.35737e-07 0)
(3 1.89473e-06 0)
(2.99999 4.59602e-06 0)
(2.99998 1.15814e-05 0)
(2.99995 2.83007e-05 0)
(2.99987 7.02039e-05 0)
(2.99968 0.000173394 0)
(2.99922 0.000425255 0)
(2.99805 0.00106298 0)
(2.99523 0.00258712 0)
(2.98804 0.00652822 0)
(2.97002 0.0161333 0)
(2.92206 0.041945 0)
(2.7882 0.112987 0)
(2.38826 0.334785 0)
(1.74737 0.796933 0)
(1.45974 0.947508 0)
(1.41609 0.980794 0)
(1.43565 0.982361 0)
(1.49588 0.956763 0)
(3 1.19701e-09 0)
(3 7.43491e-09 0)
(3 2.59231e-08 0)
(3 7.33302e-08 0)
(3 1.94257e-07 0)
(3 4.89069e-07 0)
(3 1.24056e-06 0)
(2.99999 3.01825e-06 0)
(2.99999 7.6698e-06 0)
(2.99997 1.83708e-05 0)
(2.99992 4.68972e-05 0)
(2.9998 0.000111896 0)
(2.9995 0.000285321 0)
(2.99877 0.00068355 0)
(2.99699 0.00173655 0)
(2.99249 0.00420989 0)
(2.98138 0.0106599 0)
(2.95247 0.0267607 0)
(2.87475 0.0708591 0)
(2.64936 0.200194 0)
(2.07176 0.573516 0)
(1.60384 0.916717 0)
(1.48298 0.980646 0)
(1.47513 0.99574 0)
(1.51413 0.98097 0)
(3 7.4616e-10 0)
(3 4.91431e-09 0)
(3 1.64431e-08 0)
(3 4.84347e-08 0)
(3 1.23573e-07 0)
(3 3.22929e-07 0)
(3 7.89218e-07 0)
(3 1.99582e-06 0)
(2.99999 4.87503e-06 0)
(2.99998 1.21237e-05 0)
(2.99995 2.9907e-05 0)
(2.99988 7.34099e-05 0)
(2.9997 0.000182765 0)
(2.99926 0.000444911 0)
(2.99816 0.00111753 0)
(2.99547 0.00270973 0)
(2.98877 0.00684524 0)
(2.97185 0.0168773 0)
(2.92738 0.0438127 0)
(2.80411 0.117541 0)
(2.43725 0.347423 0)
(1.85171 0.798396 0)
(1.57569 0.96012 0)
(1.52791 0.99478 0)
(1.54097 0.998537 0)
(3 4.64931e-10 0)
(3 3.10165e-09 0)
(3 1.03718e-08 0)
(3 3.04817e-08 0)
(3 7.79201e-08 0)
(3 2.03256e-07 0)
(3 4.94514e-07 0)
(3 1.26143e-06 0)
(2.99999 3.03316e-06 0)
(2.99999 7.67955e-06 0)
(2.99997 1.84801e-05 0)
(2.99993 4.6438e-05 0)
(2.99981 0.000112665 0)
(2.99955 0.00028032 0)
(2.99888 0.000687322 0)
(2.99726 0.00169693 0)
(2.99318 0.00421618 0)
(2.98313 0.0104224 0)
(2.95711 0.0264696 0)
(2.88786 0.0690053 0)
(2.68794 0.194658 0)
(2.17378 0.550238 0)
(1.72266 0.916068 0)
(1.59493 0.989049 0)
(1.58091 1.00699 0)
(3 2.92522e-10 0)
(3 1.90115e-09 0)
(3 6.51787e-09 0)
(3 1.86995e-08 0)
(3 4.89435e-08 0)
(3 1.25332e-07 0)
(3 3.10134e-07 0)
(3 7.82317e-07 0)
(3 1.89347e-06 0)
(2.99999 4.79648e-06 0)
(2.99998 1.14836e-05 0)
(2.99996 2.91745e-05 0)
(2.99989 6.97046e-05 0)
(2.99974 0.000176712 0)
(2.99934 0.000423739 0)
(2.99841 0.00106929 0)
(2.99604 0.00258917 0)
(2.99035 0.00649928 0)
(2.97584 0.0160562 0)
(2.9386 0.0412403 0)
(2.83731 0.10999 0)
(2.53858 0.320285 0)
(1.98709 0.758572 0)
(1.69352 0.954666 0)
(1.63581 0.999534 0)
(3 1.84532e-10 0)
(3 1.12416e-09 0)
(3 4.02533e-09 0)
(3 1.10724e-08 0)
(3 3.01413e-08 0)
(3 7.44316e-08 0)
(3 1.90732e-07 0)
(3 4.63763e-07 0)
(3 1.16348e-06 0)
(3 2.8407e-06 0)
(2.99999 7.0223e-06 0)
(2.99997 1.73068e-05 0)
(2.99994 4.21895e-05 0)
(2.99984 0.000105094 0)
(2.99962 0.000252724 0)
(2.99907 0.000636358 0)
(2.9977 0.00151703 0)
(2.99434 0.00384095 0)
(2.98595 0.00924841 0)
(2.96468 0.0234991 0)
(2.90848 0.0598677 0)
(2.74946 0.164937 0)
(2.31883 0.46512 0)
(1.8604 0.871533 0)
(1.7057 0.980631 0)
(3 1.09359e-10 0)
(3 6.70387e-10 0)
(3 2.36565e-09 0)
(3 6.60217e-09 0)
(3 1.7724e-08 0)
(3 4.40281e-08 0)
(3 1.12914e-07 0)
(3 2.72289e-07 0)
(3 6.94778e-07 0)
(3 1.65984e-06 0)
(2.99999 4.22731e-06 0)
(2.99999 1.01093e-05 0)
(2.99996 2.55879e-05 0)
(2.99991 6.15712e-05 0)
(2.99979 0.000154443 0)
(2.99947 0.000374983 0)
(2.99871 0.00093108 0)
(2.99679 0.00228558 0)
(2.99218 0.0056452 0)
(2.98046 0.0140381 0)
(2.95076 0.0354732 0)
(2.8712 0.09348 0)
(2.63987 0.265428 0)
(2.14403 0.676003 0)
(1.82025 0.940996 0)
(3 6.10219e-11 0)
(3 3.98736e-10 0)
(3 1.33954e-09 0)
(3 3.92666e-09 0)
(3 1.0039e-08 0)
(3 2.61101e-08 0)
(3 6.39974e-08 0)
(3 1.61e-07 0)
(3 3.94829e-07 0)
(3 9.76165e-07 0)
(3 2.4146e-06 0)
(2.99999 5.892e-06 0)
(2.99998 1.47391e-05 0)
(2.99995 3.55054e-05 0)
(2.99988 8.95365e-05 0)
(2.99971 0.000214113 0)
(2.99929 0.000541549 0)
(2.99827 0.00129221 0)
(2.99573 0.00326581 0)
(2.98947 0.00786697 0)
(2.97373 0.0198887 0)
(2.93287 0.0501417 0)
(2.81981 0.135082 0)
(2.4974 0.383965 0)
(2.03506 0.803378 0)
(3 3.43678e-11 0)
(3 2.23273e-10 0)
(3 7.64534e-10 0)
(3 2.19238e-09 0)
(3 5.71994e-09 0)
(3 1.4669e-08 0)
(3 3.60043e-08 0)
(3 9.10874e-08 0)
(3 2.1901e-07 0)
(3 5.5459e-07 0)
(3 1.32465e-06 0)
(3 3.35379e-06 0)
(2.99999 8.00314e-06 0)
(2.99997 2.01706e-05 0)
(2.99994 4.83746e-05 0)
(2.99984 0.000121028 0)
(2.99961 0.000292062 0)
(2.99906 0.000725123 0)
(2.99765 0.00176855 0)
(2.99429 0.00436268 0)
(2.98575 0.0107921 0)
(2.96429 0.0269874 0)
(2.90767 0.0699542 0)
(2.74604 0.19434 0)
(2.34422 0.527067 0)
(3 1.99605e-11 0)
(3 1.21194e-10 0)
(3 4.34352e-10 0)
(3 1.19141e-09 0)
(3 3.23971e-09 0)
(3 7.97237e-09 0)
(3 2.0422e-08 0)
(3 4.93829e-08 0)
(3 1.2414e-07 0)
(3 3.01156e-07 0)
(3 7.47862e-07 0)
(3 1.8316e-06 0)
(2.99999 4.49235e-06 0)
(2.99999 1.1129e-05 0)
(2.99997 2.69792e-05 0)
(2.99992 6.75187e-05 0)
(2.99979 0.000162211 0)
(2.9995 0.000408772 0)
(2.99876 0.000979382 0)
(2.99698 0.00247201 0)
(2.99254 0.0059718 0)
(2.98162 0.0150751 0)
(2.95368 0.0377455 0)
(2.87932 0.0997377 0)
(2.66603 0.281361 0)
(3 1.08099e-11 0)
(3 6.72379e-11 0)
(3 2.33979e-10 0)
(3 6.61041e-10 0)
(3 1.74995e-09 0)
(3 4.38553e-09 0)
(3 1.1104e-08 0)
(3 2.69234e-08 0)
(3 6.78982e-08 0)
(3 1.629e-07 0)
(3 4.11047e-07 0)
(3 9.8376e-07 0)
(3 2.47641e-06 0)
(2.99999 5.95295e-06 0)
(2.99998 1.48773e-05 0)
(2.99996 3.59892e-05 0)
(2.99989 8.91938e-05 0)
(2.99974 0.000217694 0)
(2.99937 0.000533775 0)
(2.99844 0.00131489 0)
(2.99624 0.00320406 0)
(2.99068 0.00796067 0)
(2.97703 0.019584 0)
(2.94172 0.0498769 0)
(2.84524 0.132558 0)
(3 5.52484e-12 0)
(3 3.65531e-11 0)
(3 1.22078e-10 0)
(3 3.58872e-10 0)
(3 9.12821e-10 0)
(3 2.3824e-09 0)
(3 5.7677e-09 0)
(3 1.46616e-08 0)
(3 3.52078e-08 0)
(3 8.84684e-08 0)
(3 2.12963e-07 0)
(3 5.30699e-07 0)
(3 1.28701e-06 0)
(3 3.17133e-06 0)
(2.99999 7.75719e-06 0)
(2.99998 1.89161e-05 0)
(2.99995 4.66795e-05 0)
(2.99987 0.000112474 0)
(2.99968 0.000280041 0)
(2.99921 0.000668881 0)
(2.99808 0.00167477 0)
(2.99524 0.00400448 0)
(2.98836 0.0100419 0)
(2.97081 0.0245791 0)
(2.92551 0.0633332 0)
(3 2.92911e-12 0)
(3 1.87968e-11 0)
(3 6.4759e-11 0)
(3 1.8412e-10 0)
(3 4.84108e-10 0)
(3 1.2266e-09 0)
(3 3.04299e-09 0)
(3 7.58728e-09 0)
(3 1.83881e-08 0)
(3 4.60366e-08 0)
(3 1.10172e-07 0)
(3 2.77124e-07 0)
(3 6.60264e-07 0)
(3 1.65794e-06 0)
(3 3.96229e-06 0)
(2.99999 9.89012e-06 0)
(2.99997 2.37776e-05 0)
(2.99993 5.88483e-05 0)
(2.99984 0.000142825 0)
(2.99961 0.000349956 0)
(2.99902 0.000858432 0)
(2.99764 0.00208833 0)
(2.99414 0.00518263 0)
(2.98566 0.0126718 0)
(2.96394 0.0320055 0)
(3 1.54325e-12 0)
(3 9.53167e-12 0)
(3 3.34079e-11 0)
(3 9.35386e-11 0)
(3 2.49382e-10 0)
(3 6.21596e-10 0)
(3 1.5724e-09 0)
(3 3.81929e-09 0)
(3 9.52588e-09 0)
(3 2.30684e-08 0)
(3 5.70901e-08 0)
(3 1.38753e-07 0)
(3 3.40773e-07 0)
(3 8.33661e-07 0)
(3 2.03301e-06 0)
(2.99999 5.00203e-06 0)
(2.99999 1.21228e-05 0)
(2.99997 3.00248e-05 0)
(2.99992 7.23615e-05 0)
(2.99981 0.000179871 0)
(2.99953 0.000433032 0)
(2.99884 0.00107866 0)
(2.99717 0.00260392 0)
(2.99309 0.00649483 0)
(2.98292 0.0159298 0)
(3 7.50979e-13 0)
(3 4.82637e-12 0)
(3 1.65522e-11 0)
(3 4.74061e-11 0)
(3 1.23457e-10 0)
(3 3.13967e-10 0)
(3 7.80035e-10 0)
(3 1.91929e-09 0)
(3 4.74527e-09 0)
(3 1.15111e-08 0)
(3 2.86195e-08 0)
(3 6.87154e-08 0)
(3 1.71748e-07 0)
(3 4.10574e-07 0)
(3 1.02761e-06 0)
(3 2.45552e-06 0)
(2.99999 6.13294e-06 0)
(2.99998 1.47194e-05 0)
(2.99996 3.654e-05 0)
(2.99991 8.82699e-05 0)
(2.99977 0.000217392 0)
(2.99945 0.000529941 0)
(2.99865 0.0012932 0)
(2.99675 0.00318229 0)
(2.99198 0.00775139 0)
(3 3.76883e-13 0)
(3 2.35538e-12 0)
(3 8.2823e-12 0)
(3 2.29832e-11 0)
(3 6.14006e-11 0)
(3 1.52564e-10 0)
(3 3.86094e-10 0)
(3 9.35305e-10 0)
(3 2.34009e-09 0)
(3 5.64108e-09 0)
(3 1.40256e-08 0)
(3 3.3833e-08 0)
(3 8.37987e-08 0)
(3 2.02785e-07 0)
(3 4.99254e-07 0)
(3 1.21437e-06 0)
(3 2.97164e-06 0)
(2.99999 7.26694e-06 0)
(2.99998 1.76455e-05 0)
(2.99996 4.34506e-05 0)
(2.99989 0.000104625 0)
(2.99974 0.000258798 0)
(2.99938 0.000620058 0)
(2.99847 0.00153576 0)
(2.99632 0.00367911 0)
(3 1.89596e-13 0)
(3 1.14687e-12 0)
(3 3.89967e-12 0)
(3 1.12368e-11 0)
(3 2.89376e-11 0)
(3 7.45736e-11 0)
(3 1.82163e-10 0)
(3 4.58087e-10 0)
(3 1.10265e-09 0)
(3 2.75961e-09 0)
(3 6.60965e-09 0)
(3 1.65075e-08 0)
(3 3.95197e-08 0)
(3 9.8436e-08 0)
(3 2.36452e-07 0)
(3 5.85201e-07 0)
(3 1.41226e-06 0)
(3 3.4701e-06 0)
(2.99999 8.43262e-06 0)
(2.99998 2.04995e-05 0)
(2.99995 5.01806e-05 0)
(2.99988 0.000120768 0)
(2.99971 0.000297694 0)
(2.9993 0.000710604 0)
(2.9983 0.00176013 0)
(3 7.71534e-14 0)
(3 5.08182e-13 0)
(3 1.79525e-12 0)
(3 5.14382e-12 0)
(3 1.38052e-11 0)
(3 3.43204e-11 0)
(3 8.7054e-11 0)
(3 2.11052e-10 0)
(3 5.25262e-10 0)
(3 1.27278e-09 0)
(3 3.13662e-09 0)
(3 7.64736e-09 0)
(3 1.86405e-08 0)
(3 4.57843e-08 0)
(3 1.10703e-07 0)
(3 2.73557e-07 0)
(3 6.56048e-07 0)
(3 1.6278e-06 0)
(3 3.88796e-06 0)
(2.99999 9.64563e-06 0)
(2.99998 2.30177e-05 0)
(2.99995 5.68554e-05 0)
(2.99987 0.000136357 0)
(2.99969 0.000334253 0)
(2.99923 0.000806985 0)
(3 1.58604e-14 0)
(3 2.22333e-13 0)
(3 7.83984e-13 0)
(3 2.36178e-12 0)
(3 6.31433e-12 0)
(3 1.56866e-11 0)
(3 4.00778e-11 0)
(3 9.65148e-11 0)
(3 2.42673e-10 0)
(3 5.81515e-10 0)
(3 1.4502e-09 0)
(3 3.48701e-09 0)
(3 8.62305e-09 0)
(3 2.08677e-08 0)
(3 5.10788e-08 0)
(3 1.24686e-07 0)
(3 3.0187e-07 0)
(3 7.42877e-07 0)
(3 1.78077e-06 0)
(3 4.40839e-06 0)
(2.99999 1.05007e-05 0)
(2.99998 2.60566e-05 0)
(2.99994 6.19599e-05 0)
(2.99986 0.000153328 0)
(2.99966 0.000366457 0)
(3 2.3652e-14 0)
(3 1.30739e-13 0)
(3 4.13907e-13 0)
(3 1.07874e-12 0)
(3 2.83944e-12 0)
(3 7.10031e-12 0)
(3 1.77718e-11 0)
(3 4.37642e-11 0)
(3 1.08253e-10 0)
(3 2.62043e-10 0)
(3 6.5229e-10 0)
(3 1.56059e-09 0)
(3 3.89948e-09 0)
(3 9.29291e-09 0)
(3 2.31599e-08 0)
(3 5.53528e-08 0)
(3 1.36958e-07 0)
(3 3.2922e-07 0)
(3 8.06977e-07 0)
(3 1.95415e-06 0)
(3 4.74572e-06 0)
(2.99999 1.15714e-05 0)
(2.99997 2.78458e-05 0)
(2.99994 6.85556e-05 0)
(2.99985 0.000163488 0)
(3 3.49203e-14 0)
(3 1.00413e-13 0)
(3 2.44303e-13 0)
(3 5.75718e-13 0)
(3 1.36125e-12 0)
(3 3.34043e-12 0)
(3 7.93828e-12 0)
(3 1.9664e-11 0)
(3 4.72939e-11 0)
(3 1.17255e-10 0)
(3 2.83878e-10 0)
(3 6.95912e-10 0)
(3 1.70191e-09 0)
(3 4.11869e-09 0)
(3 1.01726e-08 0)
(3 2.43487e-08 0)
(3 6.04422e-08 0)
(3 1.43906e-07 0)
(3 3.57578e-07 0)
(3 8.50092e-07 0)
(3 2.10514e-06 0)
(3 5.02597e-06 0)
(2.99999 1.23614e-05 0)
(2.99997 2.97222e-05 0)
(2.99994 7.25472e-05 0)
(3 -5.4482e-15 0)
(3 -7.69303e-15 0)
(3 3.25541e-14 0)
(3 1.55222e-13 0)
(3 4.8274e-13 0)
(3 1.3023e-12 0)
(3 3.31466e-12 0)
(3 8.31224e-12 0)
(3 2.02869e-11 0)
(3 5.05168e-11 0)
(3 1.21303e-10 0)
(3 3.02793e-10 0)
(3 7.22868e-10 0)
(3 1.80094e-09 0)
(3 4.3052e-09 0)
(3 1.06595e-08 0)
(3 2.55901e-08 0)
(3 6.28366e-08 0)
(3 1.5175e-07 0)
(3 3.69521e-07 0)
(3 8.96918e-07 0)
(3 2.16758e-06 0)
(3 5.30044e-06 0)
(2.99999 1.27043e-05 0)
(2.99997 3.12814e-05 0)
(3 7.63153e-15 0)
(3 2.50026e-14 0)
(3 5.87413e-14 0)
(3 1.04645e-13 0)
(3 2.53723e-13 0)
(3 5.92971e-13 0)
(3 1.43929e-12 0)
(3 3.48606e-12 0)
(3 8.72927e-12 0)
(3 2.09444e-11 0)
(3 5.21136e-11 0)
(3 1.25657e-10 0)
(3 3.08786e-10 0)
(3 7.51823e-10 0)
(3 1.82473e-09 0)
(3 4.48238e-09 0)
(3 1.07703e-08 0)
(3 2.65789e-08 0)
(3 6.35241e-08 0)
(3 1.56914e-07 0)
(3 3.74287e-07 0)
(3 9.22673e-07 0)
(3 2.20349e-06 0)
(3 5.41619e-06 0)
(2.99999 1.29731e-05 0)
(3 2.07398e-14 0)
(3 4.14184e-14 0)
(3 9.49392e-14 0)
(3 1.62461e-13 0)
(3 2.50041e-13 0)
(3 4.18262e-13 0)
(3 7.47533e-13 0)
(3 1.62108e-12 0)
(3 3.71268e-12 0)
(3 8.82615e-12 0)
(3 2.14052e-11 0)
(3 5.18278e-11 0)
(3 1.27312e-10 0)
(3 3.06774e-10 0)
(3 7.58869e-10 0)
(3 1.81799e-09 0)
(3 4.50386e-09 0)
(3 1.07609e-08 0)
(3 2.65719e-08 0)
(3 6.36134e-08 0)
(3 1.56224e-07 0)
(3 3.75064e-07 0)
(3 9.15734e-07 0)
(3 2.20818e-06 0)
(3 5.36048e-06 0)
(3 -2.43015e-14 0)
(3 -4.45252e-14 0)
(3 -6.56389e-14 0)
(3 -6.83272e-14 0)
(3 -6.77163e-14 0)
(3 -2.4079e-15 0)
(3 1.5539e-13 0)
(3 5.14923e-13 0)
(3 1.37017e-12 0)
(3 3.46747e-12 0)
(3 8.35492e-12 0)
(3 2.09083e-11 0)
(3 5.00304e-11 0)
(3 1.24453e-10 0)
(3 2.97758e-10 0)
(3 7.39172e-10 0)
(3 1.76964e-09 0)
(3 4.36798e-09 0)
(3 1.04919e-08 0)
(3 2.5699e-08 0)
(3 6.20516e-08 0)
(3 1.50695e-07 0)
(3 3.65941e-07 0)
(3 8.80814e-07 0)
(3 2.15449e-06 0)
(3 4.5897e-15 0)
(3 2.13222e-14 0)
(3 4.94518e-14 0)
(3 7.06696e-14 0)
(3 8.96989e-14 0)
(3 1.24693e-13 0)
(3 1.73105e-13 0)
(3 2.95152e-13 0)
(3 6.14924e-13 0)
(3 1.36053e-12 0)
(3 3.2604e-12 0)
(3 7.72286e-12 0)
(3 1.92037e-11 0)
(3 4.57869e-11 0)
(3 1.13812e-10 0)
(3 2.7251e-10 0)
(3 6.73626e-10 0)
(3 1.62106e-09 0)
(3 3.96656e-09 0)
(3 9.61752e-09 0)
(3 2.32857e-08 0)
(3 5.69035e-08 0)
(3 1.36353e-07 0)
(3 3.35026e-07 0)
(3 7.9795e-07 0)
(3 1.93356e-14 0)
(3 4.44353e-14 0)
(3 1.04757e-13 0)
(3 1.59068e-13 0)
(3 1.99066e-13 0)
(3 2.13668e-13 0)
(3 2.16399e-13 0)
(3 2.51421e-13 0)
(3 3.13278e-13 0)
(3 5.09593e-13 0)
(3 9.55704e-13 0)
(3 2.08639e-12 0)
(3 4.95767e-12 0)
(3 1.16868e-11 0)
(3 2.88856e-11 0)
(3 6.86283e-11 0)
(3 1.72004e-10 0)
(3 4.03866e-10 0)
(3 1.02277e-09 0)
(3 2.38302e-09 0)
(3 6.04044e-09 0)
(3 1.40483e-08 0)
(3 3.54548e-08 0)
(3 8.29939e-08 0)
(3 2.06498e-07 0)
(1.33154 1.12188 0)
(1.7645 0.912285 0)
(1.96678 0.640557 0)
(2.01135 0.366378 0)
(1.97628 0.142499 0)
(1.90516 -0.00685602 0)
(1.82774 -0.0482794 0)
(1.79005 -0.0270553 0)
(1.78965 0.00881975 0)
(1.79996 0.0344185 0)
(1.81491 0.0418376 0)
(1.83159 0.0360436 0)
(1.84265 0.0248072 0)
(1.85116 0.0138864 0)
(1.85976 0.00746614 0)
(1.86987 0.00526805 0)
(1.88199 0.00552603 0)
(1.8959 0.00631153 0)
(1.91096 0.00660622 0)
(1.92669 0.00611605 0)
(1.94274 0.00505547 0)
(1.95892 0.00382109 0)
(1.9752 0.0027159 0)
(1.9916 0.00186697 0)
(2.00812 0.00128368 0)
(2.02478 0.000907198 0)
(2.04156 0.000660097 0)
(2.05841 0.000477796 0)
(2.07529 0.000320977 0)
(2.09216 0.000170526 0)
(2.10898 1.77634e-05 0)
(2.12571 -0.000132684 0)
(2.14233 -0.00027095 0)
(2.15879 -0.000388641 0)
(2.17506 -0.000466228 0)
(2.19115 -0.00050192 0)
(2.20703 -0.000501212 0)
(2.22268 -0.00044991 0)
(2.23807 -0.000346363 0)
(2.25319 -0.000237302 0)
(2.26804 -0.000101006 0)
(2.2826 6.35384e-05 0)
(2.2968 0.000261706 0)
(2.31062 0.000466337 0)
(2.32401 0.000671995 0)
(2.33697 0.000879487 0)
(2.34944 0.00109114 0)
(2.36141 0.00130336 0)
(2.37287 0.00151952 0)
(2.38379 0.00174614 0)
(2.39415 0.00198265 0)
(2.40393 0.00222606 0)
(2.41314 0.00247562 0)
(2.42177 0.00273751 0)
(2.42981 0.00301114 0)
(2.43728 0.00326956 0)
(2.44418 0.00355745 0)
(2.45052 0.00383045 0)
(2.45631 0.00412316 0)
(2.46154 0.00442458 0)
(2.46624 0.0047315 0)
(2.4704 0.00504645 0)
(2.47403 0.00533568 0)
(2.47717 0.00556411 0)
(2.47982 0.00570003 0)
(2.48202 0.00575124 0)
(2.48378 0.00574716 0)
(2.48514 0.00568761 0)
(2.4861 0.00563056 0)
(2.48667 0.00552373 0)
(2.48692 0.00541703 0)
(2.48689 0.00533649 0)
(2.48661 0.00529743 0)
(2.48616 0.00525312 0)
(2.48567 0.00519291 0)
(2.48515 0.00512388 0)
(2.48441 0.00505628 0)
(2.48334 0.00498854 0)
(2.48201 0.00491227 0)
(2.48068 0.00479741 0)
(2.47947 0.00465598 0)
(2.47838 0.00447634 0)
(2.47748 0.00426489 0)
(2.47685 0.00396332 0)
(2.47657 0.00355852 0)
(2.47661 0.00303164 0)
(2.47699 0.00244261 0)
(2.47782 0.00178201 0)
(2.47914 0.00109484 0)
(2.48124 0.000393143 0)
(2.48374 -0.000483597 0)
(2.48703 -0.00109747 0)
(2.49094 -0.00196236 0)
(2.49574 -0.00242772 0)
(2.50125 -0.00306435 0)
(2.50752 -0.00347676 0)
(2.5143 -0.00390502 0)
(2.52141 -0.00416752 0)
(2.52789 -0.00414065 0)
(2.53546 -0.00359945 0)
(1.41531 1.02366 0)
(1.74884 0.732467 0)
(1.93842 0.41268 0)
(2.03711 0.136731 0)
(2.09982 -0.0598649 0)
(2.14452 -0.16614 0)
(2.16615 -0.18103 0)
(2.1718 -0.142866 0)
(2.17074 -0.0956962 0)
(2.162 -0.0557962 0)
(2.15447 -0.0289866 0)
(2.15587 -0.0197324 0)
(2.16231 -0.021696 0)
(2.17138 -0.0250225 0)
(2.18244 -0.0281563 0)
(2.1933 -0.030266 0)
(2.20337 -0.0302583 0)
(2.21301 -0.0289886 0)
(2.22269 -0.0274521 0)
(2.23279 -0.0261694 0)
(2.24344 -0.0252186 0)
(2.25462 -0.0244985 0)
(2.26618 -0.0238812 0)
(2.27799 -0.0232818 0)
(2.29 -0.0226598 0)
(2.30216 -0.0220058 0)
(2.31447 -0.0213306 0)
(2.32691 -0.0206575 0)
(2.33947 -0.0200094 0)
(2.35212 -0.0194016 0)
(2.36484 -0.0188541 0)
(2.3776 -0.0183797 0)
(2.39039 -0.017945 0)
(2.40316 -0.0175278 0)
(2.41589 -0.0171358 0)
(2.42856 -0.0167587 0)
(2.44116 -0.0163667 0)
(2.45369 -0.0159423 0)
(2.46607 -0.015477 0)
(2.47832 -0.0149939 0)
(2.49047 -0.0145115 0)
(2.50249 -0.0140302 0)
(2.51431 -0.0135359 0)
(2.5259 -0.0130446 0)
(2.53725 -0.0125707 0)
(2.54832 -0.0121135 0)
(2.55909 -0.0116709 0)
(2.56952 -0.0112442 0)
(2.57961 -0.0108219 0)