/*--------------------------------*- C++ -*----------------------------------*\
  =========                 |
  \\      /  F ield         | OpenFOAM: The Open Source CFD Toolbox
   \\    /   O peration     | Website:  https://openfoam.org
    \\  /    A nd           | Version:  9
     \\/     M anipulation  |
\*---------------------------------------------------------------------------*/
FoamFile
{
    format      ascii;
    class       volScalarField;
    location    "3.5";
    object      Ma;
}
// * * * * * * * * * * * * * * * * * * * * * * * * * * * * * * * * * * * * * //

dimensions      [0 0 0 0 0 0 0];

internalField   nonuniform List<scalar> 
5250
(
3
2.99997
2.99991
2.99977
2.99941
2.99854
2.99638
2.99095
2.97815
2.94446
2.86474
2.65982
2.19218
1.31597
0.5422
0.260927
0.32226
0.339528
0.305745
0.250264
0.199093
0.15815
0.117811
0.0732657
0.0393984
3
2.99997
2.99992
2.99976
2.99944
2.99851
2.9965
2.99105
2.97833
2.9459
2.86621
2.66574
2.20371
1.33376
0.551241
0.262045
0.324637
0.342707
0.309179
0.254534
0.204562
0.164934
0.126662
0.0870874
0.0623532
3
2.99997
2.99992
2.99978
2.99944
2.9986
2.99659
2.99132
2.97941
2.94691
2.8721
2.67632
2.22909
1.3739
0.572731
0.267447
0.33204
0.351932
0.319281
0.266674
0.219324
0.182728
0.148981
0.11716
0.100057
3
2.99998
2.99992
2.99979
2.99946
2.9987
2.99665
2.99216
2.97946
2.95184
2.87597
2.69651
2.26587
1.43732
0.605975
0.278064
0.344757
0.367326
0.336049
0.286226
0.242016
0.20903
0.180115
0.154561
0.141519
3
2.99998
2.99993
2.9998
2.99952
2.99872
2.99709
2.99213
2.98229
2.95263
2.88871
2.71473
2.31754
1.52281
0.650903
0.297515
0.364373
0.38942
0.359557
0.312724
0.271388
0.241882
0.217186
0.196371
0.185889
3
2.99998
2.99993
2.99982
2.99955
2.99888
2.99718
2.99325
2.98268
2.95898
2.89515
2.74366
2.374
1.63047
0.708987
0.33148
0.394252
0.419733
0.391154
0.346886
0.308217
0.281545
0.26072
0.243995
0.236208
3
2.99998
2.99994
2.99984
2.99959
2.99896
2.9975
2.99359
2.98501
2.96089
2.90743
2.76426
2.42995
1.73109
0.76994
0.365031
0.42364
0.449004
0.424254
0.385534
0.350621
0.327798
0.311223
0.299525
0.296196
3
2.99999
2.99994
2.99986
2.99961
2.99911
2.99755
2.99463
2.98513
2.96669
2.912
2.78849
2.47426
1.81808
0.842007
0.406973
0.448617
0.469238
0.453568
0.424001
0.396217
0.379224
0.369338
0.365127
0.372032
3
2.99999
2.99995
2.99987
2.99966
2.99915
2.99789
2.99489
2.98698
2.96907
2.92093
2.80731
2.52106
1.90753
0.937872
0.467736
0.467759
0.482887
0.48066
0.461658
0.44349
0.435096
0.434729
0.445058
0.475009
3
2.99999
2.99996
2.99988
2.99971
2.99921
2.99821
2.99511
2.98916
2.9705
2.93219
2.82384
2.572
2.00317
1.05797
0.540273
0.483449
0.499304
0.507422
0.498814
0.491738
0.493529
0.509374
0.549814
0.65123
3
2.99999
2.99997
2.99989
2.99975
2.99931
2.99838
2.99589
2.98994
2.97525
2.93842
2.84765
2.62107
2.10958
1.20462
0.625395
0.501718
0.519193
0.534896
0.535924
0.539057
0.554081
0.592724
0.676244
0.844786
3
2.99999
2.99997
2.99992
2.99977
2.99945
2.99852
2.99667
2.99096
2.97963
2.94596
2.87179
2.67404
2.22789
1.38482
0.725229
0.528313
0.545446
0.564878
0.573571
0.58558
0.613782
0.671287
0.778697
0.960618
3
3
2.99998
2.99993
2.99981
2.99954
2.99879
2.99721
2.99255
2.98311
2.9552
2.89465
2.73107
2.35649
1.6036
0.842107
0.573779
0.585564
0.601846
0.614879
0.632789
0.669642
0.735636
0.844485
1.00363
3
3
2.99998
2.99994
2.99985
2.99962
2.99902
2.99774
2.99399
2.98643
2.96383
2.91616
2.78512
2.48421
1.84432
0.974129
0.637807
0.634393
0.645979
0.66156
0.681354
0.720213
0.785327
0.884497
1.02057
3.00001
3
2.99999
2.99996
2.99987
2.99971
2.99918
2.99821
2.99501
2.98903
2.97047
2.93148
2.82412
2.57405
2.0156
1.12002
0.70821
0.672732
0.686374
0.704279
0.726756
0.764946
0.82558
0.912835
1.02955
3.00001
3
2.99999
2.99996
2.99991
2.99974
2.9994
2.99838
2.9964
2.99017
2.97802
2.94172
2.86194
2.65077
2.18204
1.33396
0.814079
0.704255
0.716367
0.736913
0.765202
0.80341
0.859273
0.936113
1.03642
3.00001
3
2.99999
2.99998
2.99992
2.99981
2.99951
2.99879
2.99706
2.99256
2.98245
2.95473
2.89219
2.7273
2.34858
1.5981
0.946087
0.747169
0.748249
0.767549
0.798674
0.836843
0.888454
0.956597
1.04319
3.00001
3
3
2.99998
2.99995
2.99985
2.99963
2.99909
2.99774
2.99459
2.98625
2.96763
2.91768
2.80146
2.51426
1.91278
1.10921
0.814525
0.791822
0.805605
0.833489
0.870003
0.916414
0.976405
1.05125
3.00001
3
3
2.99999
2.99996
2.99988
2.99974
2.99926
2.9984
2.99561
2.99013
2.97415
2.93922
2.84595
2.62625
2.12825
1.29758
0.892671
0.828711
0.840247
0.86525
0.900819
0.943241
0.996173
1.06113
3.00001
3.00001
3
2.99999
2.99997
2.99992
2.9998
2.99947
2.99877
2.99673
2.99268
2.98029
2.95529
2.88347
2.72007
2.32418
1.57245
1.02193
0.872469
0.873008
0.893213
0.927171
0.96782
1.01552
1.07238
3.00001
3.00001
3
3
2.99998
2.99994
2.99986
2.99961
2.99914
2.99762
2.99485
2.98589
2.9685
2.91783
2.80506
2.52252
1.93439
1.19493
0.938959
0.913829
0.92656
0.95541
0.993478
1.03587
1.0856
3.00001
3.00001
3
3
2.99999
2.99996
2.99989
2.99974
2.99934
2.99837
2.9961
2.99009
2.97689
2.94061
2.859
2.64845
2.18685
1.40175
1.01917
0.950884
0.95966
0.983691
1.01811
1.05644
1.10029
3.00001
3.00001
3.00001
3
2.99999
2.99998
2.99993
2.99982
2.99951
2.99891
2.99701
2.99353
2.98221
2.96036
2.89617
2.75275
2.40031
1.71202
1.15708
1.0015
0.994413
1.00964
1.03929
1.07613
1.11628
3.00001
3.00001
3.00001
3
3
2.99999
2.99995
2.99987
2.99969
2.99919
2.99814
2.99512
2.98902
2.971
2.93355
2.83069
2.59758
2.07682
1.3548
1.07885
1.03421
1.04095
1.06327
1.09624
1.13309
3.00001
3.00001
3.00001
3
3
2.99999
2.99997
2.99991
2.99979
2.99943
2.99876
2.99658
2.99261
2.97999
2.95475
2.88352
2.72205
2.33668
1.63066
1.19332
1.07894
1.07293
1.08591
1.11399
1.14989
3.00001
3.00001
3.00001
3.00001
3
3
2.99998
2.99995
2.99986
2.99965
2.99914
2.99785
2.99501
2.98709
2.97065
2.9242
2.82235
2.56626
2.02726
1.37225
1.14299
1.10922
1.1145
1.13601
1.16637
3.00001
3.00001
3.00001
3.00001
3
3
2.99999
2.99997
2.99991
2.99975
2.99946
2.99851
2.99677
2.99131
2.98044
2.94955
2.88121
2.70481
2.31313
1.61493
1.23543
1.14784
1.14346
1.15629
1.18218
3.00001
3.00001
3.00001
3.00001
3.00001
3
3
2.99998
2.99994
2.99985
2.99963
2.99911
2.99773
2.99482
2.9865
2.96939
2.92123
2.81485
2.55007
1.99843
1.40403
1.20533
1.17648
1.18179
1.20217
3.00001
3.00001
3.00001
3.00001
3.00001
3
3
2.99999
2.99997
2.99991
2.99976
2.99943
2.99854
2.99666
2.9913
2.98045
2.94904
2.88208
2.70579
2.31856
1.6494
1.29986
1.2169
1.21036
1.22114
3.00001
3.00001
3.00001
3.00001
3.00001
3.00001
3
3
2.99998
2.99994
2.99986
2.99962
2.99916
2.99774
2.99499
2.98697
2.97005
2.92467
2.82115
2.56862
2.03956
1.47034
1.27512
1.24313
1.2457
3.00001
3.00001
3.00001
3.00001
3.00001
3.00001
3
3
2.99999
2.99997
2.99991
2.99977
2.99947
2.99858
2.99693
2.99167
2.98176
2.95218
2.88968
2.72539
2.36335
1.72637
1.37476
1.28393
1.27356
3.00001
3.00001
3.00001
3.00001
3.00001
3.00001
3.00001
3
3
2.99998
2.99995
2.99987
2.99966
2.99921
2.99801
2.99528
2.9886
2.97221
2.93383
2.83848
2.61736
2.13548
1.55923
1.34593
1.30752
3.00001
3.00001
3.00001
3.00001
3.00001
3.00001
3.00001
3
3
2.99999
2.99997
2.99992
2.99979
2.99953
2.99874
2.99726
2.99259
2.98391
2.95749
2.90317
2.75776
2.43791
1.83642
1.4506
1.34565
3.00001
3.00001
3.00001
3.00001
3.00001
3.00001
3.00001
3.00001
3
3
2.99999
2.99995
2.99989
2.99971
2.99929
2.9983
2.99578
2.99027
2.97529
2.9434
2.85812
2.66823
2.23448
1.65656
1.41876
3.00001
3.00001
3.00001
3.00001
3.00001
3.00001
3.00001
3.00001
3.00001
3
2.99999
2.99998
2.99994
2.99982
2.9996
2.99893
2.99769
2.99374
2.98651
2.96427
2.9194
2.79786
2.53062
1.98916
1.55273
3.00001
3.00001
3.00001
3.00001
3.00001
3.00001
3.00001
3.00001
3.00001
3
3
2.99999
2.99996
2.99991
2.99975
2.99944
2.9985
2.99676
2.99131
2.9811
2.95071
2.88735
2.72313
2.36185
1.79343
3.00001
3.00001
3.00001
3.00001
3.00001
3.00001
3.00001
3.00001
3.00001
3.00001
3
3
2.99998
2.99995
2.99987
2.99965
2.99924
2.99798
2.99556
2.98859
2.97407
2.93551
2.84935
2.63916
2.19886
3.00001
3.00001
3.00001
3.00001
3.00001
3.00001
3.00001
3.00001
3.00001
3.00001
3
3
2.99999
2.99998
2.99992
2.99982
2.99953
2.99892
2.99733
2.99364
2.98486
2.96296
2.91297
2.78829
2.50655
3.00001
3.00001
3.00001
3.00001
3.00001
3.00001
3.00001
3.00001
3.00001
3.00001
3.00001
3
3
2.99999
2.99996
2.99989
2.99976
2.99936
2.99857
2.99636
2.99164
2.97948
2.95146
2.88301
2.72302
3.00001
3.00001
3.00001
3.00001
3.00001
3.00001
3.00001
3.00001
3.00001
3.00001
3.00001
3.00001
3
3
2.99998
2.99995
2.99986
2.99968
2.99916
2.99811
2.9953
2.98903
2.97369
2.93716
2.85079
3.00001
3.00001
3.00001
3.00001
3.00001
3.00001
3.00001
3.00001
3.00001
3.00001
3.00001
3.00001
3.00001
3
2.99999
2.99997
2.99993
2.99982
2.99956
2.99894
2.9974
2.99403
2.98495
2.96617
2.91443
3.00001
3.00001
3.00001
3.00001
3.00001
3.00001
3.00001
3.00001
3.00001
3.00001
3.00001
3.00001
3.00001
3
3
2.99999
2.99997
2.9999
2.99977
2.99939
2.99869
2.99653
2.99244
2.98059
2.9562
3.00001
3.00001
3.00001
3.00001
3.00001
3.00001
3.00001
3.00001
3.00001
3.00001
3.00001
3.00001
3.00001
3.00001
3
3
2.99998
2.99995
2.99987
2.99971
2.99925
2.99827
2.99581
2.99007
2.97666
3.00001
3.00001
3.00001
3.00001
3.00001
3.00001
3.00001
3.00001
3.00001
3.00001
3.00001
3.00001
3.00001
3.00001
3.00001
3
2.99999
2.99998
2.99993
2.99985
2.99959
2.99911
2.99763
2.99493
2.98681
3.00001
3.00001
3.00001
3.00001
3.00001
3.00001
3.00001
3.00001
3.00001
3.00001
3.00001
3.00001
3.00001
3.00001
3.00001
3
3
2.99999
2.99997
2.99991
2.9998
2.99946
2.99883
2.9969
2.99331
3.00001
3.00001
3.00001
3.00001
3.00001
3.00001
3.00001
3.00001
3.00001
3.00001
3.00001
3.00001
3.00001
3.00001
3.00001
3.00001
3
3
2.99998
2.99995
2.99987
2.9997
2.99922
2.99824
2.99564
3.00001
3.00001
3.00001
3.00001
3.00001
3.00001
3.00001
3.00001
3.00001
3.00001
3.00001
3.00001
3.00001
3.00001
3.00001
3.00001
3
3
2.99999
2.99997
2.99991
2.99978
2.99941
2.99872
2.99648
3.00001
3.00001
3.00001
3.00001
3.00001
3.00001
3.00001
3.00001
3.00001
3.00001
3.00001
3.00001
3.00001
3.00001
3.00001
3.00001
3.00001
3
2.99999
2.99997
2.99992
2.99981
2.99949
2.99884
2.99685
3.00001
3.00001
3.00001
3.00001
3.00001
3.00001
3.00001
3.00001
3.00001
3.00001
3.00001
3.00001
3.00001
3.00001
3.00001
3.00001
3.00001
3
2.99999
2.99998
2.99992
2.99982
2.99951
2.99888
2.99702
3.00001
3.00001
3.00001
3.00001
3.00001
3.00001
3.00001
3.00001
3.00001
3.00001
3.00001
3.00001
3.00001
3.00001
3.00001
3.00001
3.00001
3
2.99999
2.99998
2.99993
2.99983
2.99951
2.99889
2.99704
1.12016
1.32479
1.38855
1.35083
1.27884
1.19075
1.1096
1.06937
1.063
1.06574
1.06838
1.06883
1.06717
1.06395
1.05884
1.05307
1.04585
1.03253
1.0043
0.943833
0.81597
0.567306
0.289873
0.122117
0.081827
0.153787
0.241246
0.327465
0.395141
0.435423
0.456256
0.467359
0.471846
0.467247
0.449152
0.416
0.370299
0.316202
0.258014
0.199131
0.143587
0.0915893
0.0490031
0.0327965
0.0644306
0.103224
0.140159
0.174913
0.206537
0.235994
0.266555
0.2969
0.325739
0.35256
0.378589
0.403214
0.427434
0.450383
0.473105
0.494617
0.516048
0.536309
0.556619
0.575786
0.59513
0.613358
0.631891
0.649345
0.667164
0.684029
0.701225
0.717553
0.734253
0.750109
0.766366
0.78182
0.797653
0.812743
0.82818
0.842919
0.857964
0.872352
0.887014
0.901046
0.915345
0.929031
0.942997
0.956368
0.970034
0.98313
0.99652
1.00932
1.02243
1.03483
1.04746
1.05918
1.07071
1.08056
1.08847
1.09369
1.1342
1.25235
1.31853
1.36303
1.40847
1.44377
1.45326
1.44872
1.43237
1.4093
1.39158
1.38581
1.38607
1.38653
1.38628
1.38473
1.38002
1.36787
1.34139
1.28681
1.17501
0.956704
0.666978
0.470419
0.370085
0.287173
0.216814
0.147796
0.0842685
0.0749818
0.13214
0.184305
0.214348
0.222921
0.197131
0.161755
0.122156
0.0854539
0.0683246
0.0850421
0.11935
0.157028
0.194528
0.228356
0.261856
0.294355
0.326353
0.356459
0.38482
0.410572
0.437069
0.463687
0.489608
0.513498
0.53691
0.558991
0.581055
0.601835
0.62272
0.642367
0.662173
0.68087
0.699702
0.71757
0.735569
0.752689
0.769999
0.786462
0.803199
0.819095
0.835353
0.850777
0.866621
0.88167
0.897138
0.911874
0.926993
0.94143
0.956214
0.970334
0.984793
0.998574
1.01272
1.02616
1.03999
1.0531
1.06664
1.07945
1.09272
1.10525
1.11829
1.13059
1.14343
1.15547
1.16797
1.1794
1.19087
1.20057
1.20861
1.21366
1.13394
1.24208
1.33935
1.4326
1.51868
1.58683
1.61937
1.6222
1.61713
1.60243
1.58248
1.56656
1.55732
1.55358
1.55256
1.55147
1.54865
1.54169
1.52513
1.48816
1.40909
1.24211
0.970864
0.761753
0.651273
0.572258
0.504749
0.439628
0.369384
0.299068
0.232249
0.169629
0.120099
0.0884559
0.0955629
0.140091
0.186054
0.230272
0.269083
0.302968
0.334874
0.365224
0.394438
0.421396
0.447926
0.473313
0.49875
0.522909
0.546313
0.567392
0.58877
0.61062
0.632816
0.653346
0.673408
0.692483
0.711583
0.729815
0.748135
0.765601
0.783178
0.799992
0.816905
0.833152
0.849484
0.865206
0.881067
0.896294
0.911774
0.926558
0.941685
0.956106
0.970904
0.985054
0.999565
1.01351
1.02777
1.04151
1.05553
1.06903
1.0828
1.09602
1.10953
1.12244
1.13569
1.14833
1.16134
1.1738
1.18665
1.19899
1.21168
1.22385
1.2363
1.24819
1.26026
1.27159
1.28276
1.29253
1.30053
1.30568
1.14244
1.24997
1.34949
1.44083
1.52187
1.58948
1.64184
1.68012
1.70051
1.70574
1.70383
1.69621
1.68401
1.67257
1.66513
1.66148
1.65937
1.65541
1.64596
1.62333
1.57179
1.45533
1.24344
0.996537
0.856222
0.788923
0.730059
0.668478
0.607158
0.547098
0.484963
0.426355
0.37863
0.35239
0.356607
0.384439
0.421979
0.459214
0.491192
0.515898
0.537913
0.558143
0.578176
0.597218
0.616361
0.634909
0.653753
0.672078
0.690265
0.706854
0.72345
0.740354
0.758719
0.775878
0.793046
0.80911
0.825577
0.841194
0.857269
0.872461
0.888159
0.902919
0.918294
0.9327
0.947766
0.961871
0.976588
0.990428
1.00483
1.01846
1.03264
1.04609
1.0601
1.07338
1.08719
1.10031
1.11391
1.1269
1.14028
1.15314
1.16629
1.17896
1.1919
1.20432
1.21709
1.22935
1.242
1.25415
1.26664
1.27865
1.29097
1.30284
1.31496
1.3266
1.33838
1.34955
1.36054
1.37038
1.37847
1.38376
1.14491
1.24956
1.34504
1.43257
1.51212
1.58367
1.64655
1.69971
1.74099
1.76778
1.77799
1.77807
1.77555
1.76843
1.75863
1.75011
1.74353
1.73809
1.73046
1.71486
1.68192
1.6119
1.463
1.22026
1.04311
0.959833
0.898347
0.844902
0.795099
0.737748
0.678409
0.620317
0.569386
0.544435
0.550556
0.578255
0.615352
0.651138
0.679759
0.698892
0.711743
0.72201
0.732802
0.743681
0.75597
0.767963
0.781024
0.793624
0.807179
0.81951
0.832227
0.844834
0.859419
0.873707
0.888162
0.901599
0.915645
0.929113
0.943276
0.956812
0.970825
0.984163
0.99795
1.01117
1.02495
1.03819
1.05197
1.06511
1.07872
1.09164
1.10502
1.11782
1.1311
1.14391
1.15714
1.16991
1.18302
1.19561
1.20853
1.2209
1.23365
1.2459
1.25858
1.27083
1.2834
1.29556
1.30792
1.31993
1.33207
1.34386
1.35582
1.36735
1.37916
1.39045
1.40201
1.41297
1.42389
1.43379
1.44206
1.44757
1.14208
1.24181
1.33352
1.41783
1.49531
1.56606
1.62973
1.68591
1.73354
1.77256
1.80234
1.8215
1.82901
1.82918
1.82723
1.82166
1.81314
1.80436
1.79587
1.78513
1.76447
1.72115
1.62771
1.44878
1.21496
1.09068
1.03467
0.984634
0.934028
0.881538
0.824853
0.757673
0.700621
0.678946
0.688097
0.717958
0.759102
0.798161
0.827708
0.84753
0.856467
0.859251
0.86134
0.864856
0.870505
0.877244
0.885403
0.893801
0.903415
0.912238
0.921443
0.930518
0.941729
0.95378
0.966538
0.978479
0.990725
1.00243
1.01492
1.02714
1.0402
1.05274
1.06583
1.07821
1.09105
1.10335
1.11624
1.12875
1.14183
1.15443
1.16745
1.17986
1.19266
1.20489
1.21764
1.22987
1.2427
1.25497
1.26776
1.27995
1.29264
1.30471
1.31716
1.32909
1.34137
1.35321
1.36537
1.37709
1.38912
1.40067
1.41255
1.42392
1.43559
1.44679
1.45815
1.46902
1.47975
1.48961
1.49792
1.50334
1.13793
1.23082
1.31827
1.39942
1.47473
1.54418
1.60801
1.66595
1.71796
1.76363
1.80223
1.83359
1.85614
1.86913
1.8734
1.87309
1.87093
1.86552
1.85797
1.84853
1.83369
1.80489
1.74703
1.62336
1.42209
1.23454
1.14024
1.09003
1.046
0.991366
0.921991
0.844476
0.786597
0.770215
0.783098
0.815114
0.861191
0.906308
0.937243
0.957078
0.968796
0.970521
0.966396
0.962909
0.961842
0.9632
0.966627
0.971202
0.97733
0.983745
0.990847
0.997848
1.00663
1.01651
1.02799
1.03903
1.05056
1.06157
1.07322
1.08457
1.09674
1.10867
1.12133
1.13359
1.14634
1.15851
1.17111
1.18317
1.19577
1.20795
1.22072
1.23305
1.24582
1.25807
1.2706
1.28263
1.29493
1.30689
1.31924
1.33123
1.34358
1.35546
1.36773
1.37941
1.39149
1.40296
1.41481
1.42617
1.43783
1.44909
1.4606
1.4717
1.48302
1.49385
1.50493
1.51539
1.52595
1.53553
1.54389
1.5492
1.13504
1.22024
1.30235
1.38
1.45259
1.52042
1.58321
1.64139
1.69435
1.74254
1.78497
1.8219
1.85235
1.87677
1.89372
1.90342
1.90641
1.90587
1.90335
1.89744
1.88695
1.86863
1.83259
1.76025
1.61258
1.39694
1.25296
1.17963
1.12476
1.06369
0.979319
0.888847
0.833233
0.824619
0.841137
0.879867
0.932329
0.982007
1.01634
1.03601
1.04731
1.05268
1.0505
1.04352
1.03709
1.03375
1.03281
1.03442
1.03813
1.04312
1.04936
1.05533
1.06269
1.07118
1.08178
1.09249
1.10384
1.11465
1.12609
1.13711
1.14897
1.16049
1.17281
1.18471
1.19725
1.20923
1.22172
1.2336
1.24596
1.25776
1.27008
1.28193
1.29432
1.30626
1.31863
1.33054
1.3428
1.35456
1.36653
1.37807
1.38985
1.40128
1.41302
1.4244
1.4361
1.44733
1.45886
1.46984
1.4811
1.49181
1.50281
1.51334
1.5242
1.53461
1.5454
1.55556
1.566
1.57533
1.58376
1.58883
1.13485
1.21183
1.28814
1.36141
1.43102
1.49649
1.55788
1.61517
1.66827
1.71727
1.76187
1.80219
1.83768
1.86843
1.89354
1.91338
1.92646
1.9331
1.9342
1.93297
1.92888
1.91928
1.89829
1.85435
1.76368
1.59176
1.37813
1.26023
1.18791
1.1057
0.994423
0.894061
0.852423
0.852991
0.874942
0.921795
0.979419
1.02931
1.06533
1.08851
1.10065
1.10678
1.10979
1.10724
1.10085
1.0944
1.09068
1.08913
1.09094
1.09485
1.10066
1.10672
1.11388
1.1216
1.13146
1.14196
1.15335
1.16426
1.17574
1.18668
1.19831
1.20951
1.22147
1.23301
1.24522
1.25692
1.26918
1.28085
1.29301
1.30453
1.31652
1.32787
1.33973
1.35101
1.36288
1.3743
1.38616
1.39757
1.40933
1.42061
1.43215
1.44316
1.45444
1.46516
1.47624
1.48678
1.49774
1.50818
1.51905
1.52936
1.54004
1.55016
1.56055
1.57047
1.58055
1.59026
1.59992
1.60902
1.61698
1.62208
1.13722
1.20639
1.27635
1.34509
1.41094
1.47398
1.53321
1.58936
1.64159
1.69073
1.73588
1.77782
1.81565
1.8498
1.87972
1.90495
1.92582
1.9414
1.95196
1.95541
1.95466
1.95095
1.94081
1.91684
1.86441
1.75075
1.56158
1.35395
1.22888
1.11303
0.96846
0.873048
0.849677
0.858909
0.893211
0.947594
1.00449
1.05146
1.08761
1.11422
1.13174
1.14246
1.14843
1.15315
1.1543
1.15126
1.14692
1.14394
1.14418
1.14706
1.15238
1.1588
1.16614
1.17333
1.18224
1.19193
1.20293
1.21357
1.22484
1.23553
1.24678
1.25746
1.26876
1.27955
1.29098
1.30193
1.31346
1.3245
1.33608
1.34713
1.35867
1.36967
1.38109
1.39201
1.40326
1.41395
1.42499
1.43556
1.44652
1.45704
1.46798
1.47846
1.48931
1.49966
1.51034
1.52051
1.531
1.54097
1.5513
1.5611
1.57129
1.58096
1.59106
1.60061
1.6106
1.61998
1.62966
1.63846
1.6465
1.65138
1.14247
1.20427
1.26792
1.33151
1.39353
1.45327
1.51043
1.56457
1.61595
1.6641
1.70954
1.7516
1.79101
1.82674
1.85979
1.88869
1.91463
1.93589
1.95325
1.96612
1.97177
1.97129
1.9674
1.95562
1.9266
1.86166
1.72024
1.49989
1.2839
1.08611
0.905217
0.833621
0.82991
0.847644
0.893516
0.952792
1.0057
1.05057
1.0884
1.11967
1.14555
1.16527
1.17972
1.19043
1.199
1.20529
1.20635
1.20488
1.20393
1.20504
1.20842
1.21351
1.22033
1.22666
1.23398
1.24186
1.25158
1.26123
1.27166
1.28153
1.29197
1.30178
1.3122
1.3221
1.33264
1.3427
1.35332
1.36351
1.37421
1.3845
1.39528
1.40565
1.4165
1.42683
1.43752
1.44771
1.45824
1.4683
1.4787
1.48863
1.49893
1.50878
1.51901
1.52882
1.539
1.54875
1.55887
1.56853
1.57858
1.58812
1.59806
1.60747
1.61727
1.62654
1.63617
1.64525
1.65457
1.66309
1.67093
1.67562
1.15056
1.20545
1.26306
1.32136
1.37914
1.43549
1.48988
1.5421
1.59184
1.6392
1.6839
1.72619
1.76569
1.80283
1.83689
1.86862
1.8968
1.92239
1.94409
1.96205
1.976
1.982
1.98112
1.97584
1.95984
1.92053
1.83266
1.65675
1.36269
1.03741
0.824534
0.77763
0.786831
0.821183
0.87638
0.934627
0.988605
1.03747
1.08178
1.12168
1.15727
1.18798
1.21282
1.2317
1.246
1.25736
1.26551
1.26956
1.26959
1.26873
1.26854
1.27044
1.27423
1.27891
1.2845
1.28996
1.29729
1.3052
1.31427
1.32298
1.33238
1.34124
1.35074
1.35973
1.36942
1.37865
1.38851
1.39795
1.40795
1.41758
1.4277
1.43746
1.44755
1.45722
1.46724
1.47687
1.4869
1.49654
1.50658
1.51622
1.52624
1.53585
1.54581
1.55532
1.56519
1.57457
1.58434
1.59362
1.60331
1.6125
1.62211
1.63123
1.64075
1.64977
1.65915
1.66802
1.67713
1.68547
1.69322
1.69781
1.16081
1.20957
1.26115
1.31448
1.36782
1.42065
1.47208
1.52202
1.56989
1.61603
1.65972
1.70171
1.74094
1.77864
1.81323
1.84641
1.87616
1.90439
1.92877
1.95124
1.96902
1.98254
1.98586
1.98277
1.97157
1.94195
1.87305
1.72618
1.43012
1.02407
0.759754
0.711625
0.732429
0.785654
0.858341
0.927807
0.991303
1.04775
1.09864
1.14459
1.18656
1.22344
1.25431
1.27815
1.29599
1.30975
1.31978
1.32703
1.33067
1.33049
1.32808
1.32633
1.32582
1.32762
1.33099
1.33479
1.33967
1.34515
1.35261
1.36027
1.36888
1.37707
1.38583
1.39413
1.40305
1.41158
1.42077
1.42957
1.439
1.44806
1.45768
1.46685
1.47645
1.48567
1.49528
1.50453
1.51413
1.52337
1.53295
1.54215
1.55172
1.5609
1.57048
1.57962
1.58921
1.59828
1.60786
1.61686
1.62639
1.63533
1.64478
1.65365
1.66299
1.67179
1.68098
1.68965
1.69858
1.70678
1.71442
1.71899
1.1727
1.21592
1.26215
1.31035
1.35974
1.40886
1.45747
1.50491
1.55095
1.59533
1.63809
1.67893
1.71804
1.75523
1.79033
1.82381
1.85463
1.88416
1.91035
1.93523
1.95569
1.97318
1.9796
1.97705
1.96749
1.94146
1.88003
1.74961
1.49285
1.13728
0.830119
0.761335
0.790125
0.845099
0.918163
0.985794
1.04634
1.10021
1.14675
1.18817
1.22564
1.26007
1.28965
1.31519
1.33531
1.35098
1.36306
1.37192
1.37756
1.38086
1.38131
1.37922
1.37677
1.37518
1.37555
1.37761
1.38088
1.38426
1.38921
1.3952
1.40293
1.41044
1.41864
1.42634
1.43465
1.44257
1.45113
1.45933
1.46819
1.4767
1.48574
1.49439
1.50357
1.51236
1.52164
1.53053
1.53982
1.54875
1.55804
1.56695
1.57626
1.58516
1.59452
1.60339
1.61278
1.6216
1.63096
1.63971
1.64901
1.6577
1.66691
1.67554
1.68466
1.69324
1.70225
1.71072
1.71951
1.72753
1.7351
1.73957
1.18542
1.22396
1.26553
1.30938
1.35441
1.40044
1.44579
1.49086
1.53491
1.57746
1.61911
1.65865
1.69715
1.73373
1.76865
1.80219
1.83337
1.86352
1.89075
1.91677
1.93874
1.95704
1.96299
1.95947
1.94797
1.91799
1.85054
1.71448
1.5104
1.27764
1.03087
0.89766
0.8925
0.919876
0.966384
1.02496
1.07988
1.12931
1.17223
1.21062
1.24616
1.27937
1.30966
1.33632
1.35973
1.37898
1.39456
1.40662
1.41664
1.42261
1.42591
1.4269
1.42554
1.42262
1.4207
1.41965
1.42081
1.42296
1.42595
1.42956
1.43523
1.44177
1.44944
1.4568
1.46481
1.47237
1.48057
1.48842
1.49693
1.50505
1.51371
1.52201
1.5308
1.53924
1.54813
1.55663
1.5656
1.57413
1.58315
1.5917
1.60075
1.60932
1.61838
1.62694
1.63598
1.64452
1.65354
1.66205
1.67103
1.67951
1.68846
1.69689
1.7058
1.71418
1.72301
1.7313
1.73991
1.74777
1.75522
1.75963
1.19973
1.23428
1.27175
1.3115
1.35281
1.39495
1.43801
1.47969
1.52214
1.56245
1.60267
1.64119
1.67834
1.71461
1.74858
1.78223
1.81298
1.84363
1.87095
1.89734
1.91945
1.93477
1.93611
1.92951
1.91063
1.86448
1.76337
1.60887
1.46917
1.36663
1.23246
1.07066
0.987206
0.980709
1.00162
1.03802
1.08729
1.1372
1.18219
1.22194
1.2586
1.29207
1.32321
1.35119
1.3768
1.399
1.41824
1.43349
1.44612
1.45625
1.4631
1.46692
1.46882
1.4687
1.46667
1.46399
1.46241
1.46234
1.46393
1.46623
1.46953
1.47385
1.48027
1.48711
1.49485
1.5022
1.51003
1.51756
1.52555
1.53319
1.54133
1.54915
1.55752
1.56553
1.5741
1.58225
1.59092
1.59916
1.60785
1.61614
1.62485
1.63314
1.64188
1.65016
1.65894
1.6672
1.67598
1.68422
1.69297
1.70118
1.70987
1.71805
1.72667
1.73484
1.74337
1.75148
1.75984
1.76758
1.77489
1.7793
1.2147
1.24761
1.28099
1.31693
1.3547
1.39307
1.43301
1.47255
1.51176
1.55111
1.58857
1.6265
1.66197
1.6976
1.73089
1.76372
1.79474
1.82418
1.85239
1.87686
1.89787
1.90499
1.90056
1.88698
1.8527
1.77332
1.63568
1.50818
1.44348
1.40347
1.35223
1.26213
1.14893
1.07477
1.05855
1.07273
1.09759
1.13742
1.18278
1.22532
1.26423
1.29938
1.33162
1.36137
1.3887
1.41334
1.43513
1.45426
1.46997
1.48342
1.49409
1.50246
1.5068
1.50939
1.51009
1.50896
1.50641
1.50464
1.50346
1.50439
1.50637
1.50873
1.51245
1.51757
1.52463
1.53159
1.53922
1.54639
1.55403
1.56129
1.56902
1.57648
1.58442
1.59212
1.60027
1.60812
1.61641
1.62431
1.63267
1.64058
1.64898
1.65693
1.66539
1.67338
1.68188
1.68988
1.6984
1.70637
1.71486
1.72279
1.73121
1.73914
1.7475
1.75546
1.76376
1.77169
1.77985
1.78741
1.79457
1.79886
1.23087
1.26086
1.29264
1.32456
1.35941
1.39462
1.43091
1.46811
1.50495
1.54168
1.57818
1.61339
1.64876
1.68202
1.71565
1.74671
1.77786
1.80633
1.83323
1.85637
1.86879
1.86778
1.8572
1.82964
1.76479
1.63843
1.51223
1.44793
1.42915
1.42304
1.41055
1.37983
1.32006
1.23517
1.15725
1.12609
1.13126
1.14835
1.17971
1.22096
1.26228
1.3009
1.33604
1.36829
1.39738
1.42442
1.44829
1.47033
1.4893
1.50595
1.51959
1.53131
1.54046
1.54611
1.54903
1.55051
1.55048
1.54882
1.54638
1.54493
1.54485
1.54615
1.54821
1.5509
1.55535
1.56112
1.56825
1.57512
1.58254
1.58944
1.59688
1.60387
1.61146
1.61868
1.62646
1.63391
1.64182
1.64945
1.65744
1.66516
1.67322
1.68097
1.68911
1.69683
1.70507
1.71276
1.72103
1.7287
1.73694
1.74461
1.75279
1.76045
1.76857
1.77622
1.78428
1.7919
1.79984
1.80714
1.81415
1.81834
1.24486
1.27547
1.30506
1.33518
1.36602
1.39899
1.43221
1.46633
1.50103
1.53559
1.56984
1.60394
1.63705
1.66996
1.70132
1.73268
1.76161
1.78984
1.81373
1.83086
1.83248
1.8237
1.80017
1.74712
1.6333
1.50375
1.4346
1.41818
1.42318
1.4339
1.44071
1.43889
1.42172
1.37985
1.312
1.23497
1.19346
1.18803
1.20113
1.22379
1.25853
1.29748
1.33582
1.37107
1.40322
1.4324
1.45906
1.48314
1.50513
1.52438
1.54134
1.55539
1.56786
1.57773
1.58494
1.58843
1.59053
1.59112
1.59025
1.58793
1.58639
1.5851
1.58577
1.58729
1.58928
1.59236
1.59756
1.60375
1.61079
1.61749
1.62466
1.63139
1.63862
1.64546
1.65287
1.65992
1.66752
1.67473
1.68246
1.68976
1.69756
1.70492
1.71278
1.72019
1.72811
1.73558
1.74354
1.75104
1.75896
1.76644
1.77428
1.78172
1.78949
1.7969
1.80464
1.812
1.81966
1.82668
1.83348
1.8375
1.26342
1.28933
1.31787
1.34582
1.37486
1.40451
1.43584
1.4674
1.49942
1.53202
1.5645
1.59652
1.62856
1.65954
1.69032
1.71931
1.74786
1.77246
1.79212
1.79647
1.78893
1.76895
1.72248
1.62166
1.48925
1.4127
1.39642
1.40482
1.41991
1.44205
1.4618
1.47073
1.47118
1.46127
1.43312
1.38112
1.31581
1.2664
1.24873
1.25582
1.2706
1.29705
1.3327
1.36918
1.40473
1.43692
1.46618
1.49284
1.51742
1.53919
1.55889
1.57609
1.59097
1.60381
1.61476
1.62283
1.6275
1.62993
1.63092
1.63083
1.62926
1.62666
1.62543
1.62468
1.62567
1.62703
1.62932
1.63316
1.63907
1.64532
1.65225
1.65881
1.66576
1.67231
1.67933
1.68602
1.69323
1.70008
1.70742
1.71437
1.72182
1.72885
1.73642
1.74351
1.75117
1.75829
1.76598
1.77311
1.78075
1.7879
1.79545
1.80265
1.81014
1.81735
1.82481
1.83198
1.83937
1.84619
1.85277
1.85666
1.28155
1.3025
1.33051
1.35786
1.38461
1.41252
1.44075
1.47064
1.50037
1.53072
1.56119
1.59185
1.62185
1.65175
1.68065
1.70844
1.73333
1.75452
1.76072
1.75404
1.7365
1.69442
1.60755
1.47287
1.38865
1.37029
1.37892
1.39617
1.42158
1.45004
1.47526
1.4913
1.49966
1.50205
1.49831
1.48178
1.44688
1.39605
1.34295
1.31502
1.31099
1.32151
1.33938
1.36829
1.40214
1.43588
1.46846
1.49856
1.52558
1.55027
1.57262
1.59279
1.61046
1.62595
1.63918
1.65077
1.65958
1.66559
1.6685
1.66994
1.67031
1.66935
1.66717
1.66494
1.6636
1.66359
1.66454
1.66614
1.66916
1.67373
1.67993
1.68613
1.69287
1.69918
1.70591
1.71226
1.71908
1.72555
1.7325
1.73908
1.74615
1.75283
1.76005
1.76682
1.77413
1.78096
1.78832
1.79522
1.80256
1.80953
1.81684
1.8238
1.83109
1.83796
1.84523
1.85199
1.85916
1.8656
1.87195
1.87565
1.30614
1.31956
1.34267
1.36996
1.39597
1.4216
1.44817
1.47517
1.50345
1.53167
1.56029
1.58885
1.61757
1.64537
1.67275
1.69739
1.71851
1.72655
1.72092
1.70478
1.66644
1.58767
1.45074
1.35962
1.33988
1.34926
1.36774
1.39509
1.42714
1.4559
1.48125
1.50261
1.51872
1.5285
1.53462
1.5355
1.52828
1.50754
1.46992
1.425
1.3873
1.37093
1.37457
1.38593
1.40571
1.43488
1.46702
1.499
1.52914
1.55695
1.58222
1.60517
1.62581
1.64404
1.66006
1.67381
1.68581
1.69556
1.70264
1.70652
1.70844
1.70903
1.70868
1.70692
1.70406
1.70247
1.70136
1.70193
1.70293
1.70489
1.70876
1.71393
1.72013
1.7261
1.73257
1.73858
1.74503
1.75107
1.7576
1.76381
1.77051
1.77689
1.78375
1.79025
1.79723
1.8038
1.81085
1.81746
1.82453
1.83114
1.8382
1.84479
1.85184
1.85839
1.86539
1.87185
1.87871
1.88479
1.89076
1.89417
1.33151
1.33787
1.35653
1.38162
1.40682
1.43151
1.45618
1.48175
1.50753
1.53441
1.56107
1.58809
1.61453
1.64065
1.66461
1.6854
1.69426
1.68951
1.67376
1.63713
1.56168
1.43038
1.33517
1.31311
1.32164
1.33981
1.36838
1.40144
1.43184
1.45914
1.48413
1.50747
1.52849
1.54631
1.5592
1.56848
1.5732
1.57283
1.56288
1.53969
1.50382
1.46486
1.43925
1.43
1.43657
1.44823
1.46934
1.49775
1.52843
1.55881
1.58711
1.61298
1.63656
1.65786
1.67673
1.69334
1.70761
1.72026
1.73073
1.73877
1.74379
1.74633
1.74709
1.74717
1.74588
1.74354
1.74057
1.7392
1.7385
1.73915
1.74049
1.74317
1.74777
1.75298
1.75911
1.76482
1.77101
1.77674
1.78292
1.78876
1.79505
1.80106
1.80753
1.81368
1.82033
1.82656
1.83333
1.83961
1.84643
1.85274
1.85954
1.86582
1.87257
1.87877
1.88544
1.89145
1.89788
1.90339
1.90877
1.91176
1.36886
1.36352
1.37248
1.39236
1.41772
1.442
1.46563
1.48928
1.51359
1.53818
1.56333
1.58839
1.613
1.63576
1.65548
1.66437
1.65986
1.64398
1.60796
1.53394
1.40743
1.30796
1.285
1.29351
1.31155
1.34085
1.37499
1.40666
1.43466
1.46122
1.48596
1.5105
1.53381
1.55583
1.57552
1.5909
1.60312
1.6124
1.6154
1.6137
1.60215
1.57826
1.54557
1.5122
1.49355
1.48919
1.49656
1.50891
1.53042
1.55863
1.58724
1.61607
1.64268
1.66705
1.68886
1.70862
1.72581
1.74088
1.75383
1.76498
1.77389
1.77997
1.78355
1.78473
1.78495
1.78423
1.78168
1.77881
1.77645
1.77528
1.77544
1.7761
1.77777
1.78102
1.78613
1.79126
1.7971
1.80261
1.80852
1.81406
1.82001
1.82562
1.83172
1.83745
1.84372
1.84956
1.85595
1.86189
1.86832
1.8743
1.88075
1.88666
1.89306
1.89876
1.90502
1.91035
1.91614
1.92076
1.92512
1.9275
1.41421
1.39036
1.39186
1.40562
1.42733
1.45182
1.47501
1.49753
1.52019
1.54322
1.56636
1.58933
1.61093
1.62934
1.63743
1.63246
1.61593
1.5794
1.50517
1.38144
1.27889
1.25527
1.26444
1.28298
1.31355
1.34887
1.38123
1.41031
1.43721
1.46291
1.48832
1.51309
1.53804
1.56183
1.58499
1.60585
1.62349
1.63825
1.6499
1.65856
1.66061
1.65773
1.64526