/*--------------------------------*- C++ -*----------------------------------*\
  =========                 |
  \\      /  F ield         | OpenFOAM: The Open Source CFD Toolbox
   \\    /   O peration     | Website:  https://openfoam.org
    \\  /    A nd           | Version:  9
     \\/     M anipulation  |
\*---------------------------------------------------------------------------*/
FoamFile
{
    format      ascii;
    class       volScalarField;
    location    "3.5";
    object      p;
}
// * * * * * * * * * * * * * * * * * * * * * * * * * * * * * * * * * * * * * //

dimensions      [1 -1 -2 0 0 0 0];

internalField   nonuniform List<scalar> 
5250
(
1
1.00003
1.00008
1.00021
1.0005
1.00133
1.00302
1.00813
1.01844
1.04947
1.11712
1.31083
1.82843
3.36619
7.86396
11.7446
11.3046
11.0443
11.1292
11.3617
11.5922
11.7315
11.838
11.9202
11.983
1.00001
1.00003
1.00008
1.0002
1.00052
1.00123
1.0032
1.00743
1.01955
1.04591
1.11941
1.3005
1.81792
3.31944
7.74857
11.7586
11.3043
11.0344
11.1203
11.3537
11.5841
11.7239
11.832
11.9155
11.9799
1
1.00003
1.00007
1.0002
1.00047
1.00127
1.00287
1.00773
1.01752
1.04698
1.11107
1.29439
1.78156
3.22768
7.48901
11.7861
11.3004
11.0045
11.0888
11.32
11.5486
11.6865
11.7942
11.8772
11.9422
1
1.00002
1.00007
1.00018
1.00049
1.0011
1.00297
1.0067
1.01808
1.04154
1.1097
1.27189
1.74002
3.0834
7.09101
11.8248
11.2954
10.9552
11.0346
11.2591
11.485
11.6194
11.7242
11.8055
11.8719
1
1.00002
1.00006
1.00018
1.00041
1.00112
1.00252
1.00682
1.01549
1.04109
1.09775
1.2565
1.67543
2.90859
6.57186
11.8547
11.2885
10.8898
10.9609
11.1733
11.3958
11.5247
11.6244
11.7028
11.7718
1
1.00002
1.00006
1.00015
1.00041
1.00094
1.00253
1.00572
1.01536
1.0352
1.09303
1.22763
1.61371
2.7038
5.95691
11.8215
11.2645
10.8081
10.8672
11.0599
11.2755
11.3954
11.4859
11.5576
11.6285
1
1.00002
1.00005
1.00015
1.00035
1.00094
1.00211
1.0057
1.01282
1.03451
1.08036
1.21169
1.54691
2.52705
5.41934
11.6152
11.1714
10.7046
10.7505
10.9144
11.1163
11.2218
11.2954
11.3515
11.419
1
1.00002
1.00005
1.00013
1.00035
1.00078
1.0021
1.00479
1.01266
1.02957
1.07634
1.18843
1.49947
2.37558
4.98534
11.1254
10.9571
10.5974
10.6187
10.7342
10.9112
10.9935
11.0376
11.0593
11.1025
1
1.00002
1.00005
1.00012
1.00031
1.00071
1.0019
1.00431
1.01157
1.02641
1.07014
1.16903
1.45093
2.23233
4.5542
10.4131
10.699
10.5226
10.4721
10.5311
10.6581
10.7021
10.6935
10.6428
10.5924
1
1.00001
1.00004
1.00011
1.00025
1.0007
1.00156
1.0042
1.00959
1.02529
1.05986
1.15505
1.39596
2.09139
4.11671
9.5295
10.5477
10.4234
10.2916
10.3119
10.3642
10.3482
10.2595
10.0399
9.69842
1
1.00001
1.00004
1.00009
1.00024
1.00057
1.00148
1.00342
1.0091
1.0208
1.0551
1.13213
1.34907
1.93849
3.67565
8.48463
10.44
10.3252
10.1037
10.0706
10.0468
9.95371
9.6962
9.09437
7.53382
1
1.00001
1.00003
1.00008
1.00021
1.00048
1.00129
1.00291
1.00781
1.01786
1.04695
1.11269
1.29544
1.78516
3.2191
7.28645
10.3602
10.2275
9.93533
9.82292
9.73472
9.54071
9.12497
8.29192
6.64145
1
1.00001
1.00003
1.00006
1.00018
1.0004
1.00108
1.0024
1.00651
1.01467
1.03913
1.09225
1.24192
1.63094
2.7604
5.98267
10.2397
10.1149
9.79511
9.58268
9.42743
9.14965
8.63147
7.76875
6.42322
1
1.00001
1.00002
1.00005
1.00014
1.00032
1.00088
1.00194
1.00527
1.0118
1.0316
1.07352
1.19218
1.49066
2.34491
4.74766
9.89111
9.895
9.68293
9.36224
9.1324
8.80757
8.27161
7.47176
6.39517
1
1.00001
1.00002
1.00004
1.00012
1.00027
1.00071
1.00161
1.00421
1.00991
1.02504
1.06123
1.1543
1.39688
2.07891
4.02973
8.95139
9.6249
9.47811
9.15931
8.86998
8.52101
8.00733
7.29159
6.39358
1
1
1.00001
1.00004
1.00009
1.00023
1.00052
1.00141
1.00317
1.00844
1.01942
1.05056
1.12194
1.31853
1.8471
3.37361
7.47222
9.35606
9.26508
9.00302
8.65259
8.28489
7.80175
7.16306
6.39013
1
1
1.00001
1.00003
1.00007
1.00018
1.00041
1.0011
1.00248
1.00665
1.01498
1.04013
1.09369
1.24671
1.64036
2.77422
5.91022
9.15768
9.11722
8.90016
8.48608
8.0934
7.63546
7.06125
6.38313
1
1
1.00001
1.00002
1.00006
1.00013
1.00034
1.00077
1.00204
1.0046
1.01225
1.02784
1.07332
1.17553
1.46317
2.23107
4.33831
8.71388
8.97645
8.79639
8.38752
7.94727
7.50015
6.9776
6.37463
1
1
1.00001
1.00002
1.00004
1.00011
1.00024
1.00063
1.00147
1.00366
1.00903
1.02172
1.0548
1.13429
1.34623
1.92204
3.53925
7.60565
8.72044
8.60579
8.29042
7.82865
7.38736
6.90604
6.3645
1
1
1
1.00001
1.00003
1.00008
1.00018
1.00048
1.00106
1.00286
1.00642
1.01708
1.03934
1.10247
1.25197
1.67377
2.83193
5.96008
8.45605
8.41724
8.20405
7.75599
7.29989
6.84469
6.35299
1
1
1
1.00001
1.00002
1.00006
1.00013
1.00034
1.00078
1.00203
1.00467
1.01196
1.02836
1.07128
1.17528
1.45313
2.19347
4.15017
7.98812
8.28667
8.1258
7.7349
7.24474
6.79778
6.34371
1
1
1
1.00001
1.00002
1.00004
1.00009
1.00025
1.00056
1.00148
1.00332
1.00884
1.01991
1.05277
1.12378
1.32495
1.84477
3.29352
6.86015
8.05219
7.96471
7.69179
7.21628
6.76785
6.33911
1
1
1
1
1.00001
1.00003
1.00007
1.00016
1.00043
1.00097
1.00255
1.00585
1.0151
1.03563
1.09029
1.22334
1.58589
2.56588
5.15438
7.70619
7.74865
7.60096
7.22909
6.76878
6.34175
1
1
1
1
1.00001
1.00002
1.00005
1.00012
1.00027
1.00073
1.00161
1.0043
1.00961
1.02545
1.05849
1.15138
1.37503
1.98625
3.56222
6.97487
7.60534
7.50618
7.22641
6.78376
6.35328
1
1
1
1
1.00001
1.00001
1.00003
1.00008
1.00019
1.00049
1.00112
1.0029
1.00672
1.01702
1.04073
1.10173
1.25329
1.66043
2.7459
5.48969
7.35032
7.34194
7.20037
6.84264
6.38366
1
1
1
1
1
1.00001
1.00002
1.00005
1.00013
1.00033
1.00073
1.00194
1.0043
1.01145
1.0256
1.06746
1.15797
1.41136
2.04663
3.65136
6.80942
7.24261
7.14655
6.88784
6.44481
1
1
1
1
1
1.00001
1.00001
1.00004
1.00008
1.00022
1.00049
1.00127
1.00296
1.00734
1.01783
1.04318
1.10725
1.2672
1.69114
2.80951
5.56584
7.02033
7.01331
6.87729
6.55174
1
1
1
1
1
1
1.00001
1.00002
1.00006
1.00013
1.00034
1.00077
1.00203
1.0045
1.01194
1.0268
1.07006
1.165
1.42806
2.08882
3.75114
6.5074
6.90321
6.82585
6.60215
1
1
1
1
1
1
1.00001
1.00001
1.00004
1.00008
1.00022
1.00049
1.00131
1.0029
1.00768
1.01718
1.04493
1.10468
1.26962
1.67939
2.76205
5.33678
6.66847
6.69135
6.58429
1
1
1
1
1
1
1
1.00001
1.00002
1.00006
1.00013
1.00033
1.00077
1.00191
1.00462
1.01099
1.02742
1.06499
1.1629
1.405
2.03062
3.5547
6.13326
6.57828
6.52611
1
1
1
1
1
1
1
1.00001
1.00001
1.00004
1.00008
1.00021
1.00047
1.00123
1.00277
1.00714
1.01655
1.04126
1.09965
1.24882
1.62929
2.60576
4.93327
6.32378
6.40543
1
1
1
1
1
1
1
1
1.00001
1.00002
1.00005
1.00012
1.0003
1.00073
1.00169
1.00432
1.00972
1.02525
1.0574
1.14723
1.35538
1.89695
3.16928
5.73759
6.28607
1
1
1
1
1
1
1
1
1.00001
1.00001
1.00003
1.00007
1.00019
1.00042
1.0011
1.00247
1.00638
1.0146
1.03674
1.08745
1.21867
1.5467
2.38777
4.42028
5.97356
1
1
1
1
1
1
1
1
1
1.00001
1.00002
1.00004
1.00011
1.00026
1.00065
1.00146
1.00381
1.00845
1.0221
1.04969
1.12824
1.30567
1.77248
2.87819
5.23951
1
1
1
1
1
1
1
1
1
1
1.00001
1.00003
1.00006
1.00016
1.00036
1.00094
1.0021
1.00538
1.01232
1.03079
1.07313
1.18106
1.44767
2.11955
3.71935
1
1
1
1
1
1
1
1
1
1
1.00001
1.00002
1.00004
1.00009
1.00023
1.00051
1.00131
1.00293
1.00752
1.01714
1.04298
1.10168
1.25312
1.62407
2.53182
1
1
1
1
1
1
1
1
1
1
1
1.00001
1.00002
1.00005
1.00012
1.00031
1.0007
1.00173
1.00411
1.00973
1.02388
1.0559
1.13827
1.33313
1.81364
1
1
1
1
1
1
1
1
1
1
1
1.00001
1.00001
1.00003
1.00007
1.00017
1.0004
1.00101
1.00228
1.00582
1.01302
1.03367
1.07621
1.19499
1.46742
1
1
1
1
1
1
1
1
1
1
1
1
1.00001
1.00002
1.00004
1.0001
1.00023
1.00055
1.00133
1.00309
1.00773
1.01755
1.04447
1.10287
1.25693
1
1
1
1
1
1
1
1
1
1
1
1
1
1.00001
1.00002
1.00005
1.00013
1.0003
1.00072
1.00175
1.00401
1.01012
1.02264
1.05772
1.13223
1
1
1
1
1
1
1
1
1
1
1
1
1
1.00001
1.00001
1.00003
1.00007
1.00016
1.00041
1.00092
1.00237
1.00521
1.01352
1.02986
1.07708
1
1
1
1
1
1
1
1
1
1
1
1
1
1
1.00001
1.00002
1.00004
1.00009
1.00021
1.00053
1.00121
1.00298
1.00701
1.01663
1.04032
1
1
1
1
1
1
1
1
1
1
1
1
1
1
1
1.00001
1.00002
1.00005
1.00012
1.00028
1.00065
1.00161
1.00361
1.00913
1.02024
1
1
1
1
1
1
1
1
1
1
1
1
1
1
1
1
1.00001
1.00003
1.00007
1.00014
1.00037
1.00082
1.00206
1.00469
1.01134
1
1
1
1
1
1
1
1
1
1
1
1
1
1
1
1
1.00001
1.00002
1.00003
1.00009
1.00019
1.00048
1.00108
1.00268
1.00621
1
1
1
1
1
1
1
1
1
1
1
1
1
1
1
1
1
1.00001
1.00002
1.00005
1.00012
1.00028
1.00067
1.00164
1.00374
1
1
1
1
1
1
1
1
1
1
1
1
1
1
1
1
1
1.00001
1.00002
1.00003
1.00009
1.0002
1.00052
1.00118
1.00301
1
1
1
1
1
1
1
1
1
1
1
1
1
1
1
1
1
1
1.00001
1.00003
1.00008
1.00017
1.00046
1.00103
1.00274
1
1
1
1
1
1
1
1
1
1
1
1
1
1
1
1
1
1
1.00001
1.00003
1.00007
1.00017
1.00042
1.00105
1.00249
1
1
1
1
1
1
1
1
1
1
1
1
1
1
1
1
1
1
1.00001
1.00003
1.00007
1.00017
1.00041
1.00104
1.00247
3.02545
1.53102
1.03687
0.940791
0.967916
1.05179
1.22777
1.36496
1.4064
1.40455
1.39864
1.39677
1.39822
1.40288
1.41304
1.42667
1.43968
1.45875
1.49836
1.58327
1.76759
2.16901
2.95446
3.429
3.50911
3.52936
3.48877
3.43173
3.38112
3.35313
3.34059
3.33722
3.34387
3.3745
3.43999
3.54426
3.67803
3.82612
3.97442
4.11224
4.23106
4.32942
4.40622
4.47354
4.52488
4.55825
4.57766
4.58648
4.58592
4.58061
4.56652
4.5429
4.51474
4.48398
4.44965
4.41299
4.37352
4.33246
4.2893
4.24499
4.19904
4.15217
4.10403
4.05522
4.00554
3.9555
3.90494
3.85431
3.80348
3.75279
3.70213
3.65174
3.60155
3.55171
3.5022
3.45312
3.40446
3.35629
3.3086
3.26142
3.21474
3.16858
3.12294
3.0778
3.0332
2.98914
2.94565
2.90273
2.86044
2.81874
2.77774
2.73743
2.69793
2.65924
2.62178
2.58571
2.5517
2.52087
2.49504
2.47992
3.72932
2.33688
1.74339
1.49364
1.37798
1.29513
1.27805
1.28646
1.3099
1.35801
1.40355
1.42249
1.42224
1.42104
1.42131
1.42348
1.43026
1.44676
1.48278
1.55947
1.7227
2.07531
2.82148
3.41296
3.5317
3.51927
3.47183
3.41571
3.3872
3.37014
3.346
3.33292
3.33081
3.35384
3.4176
3.52188
3.65287
3.79756
3.94448
4.08669
4.20796
4.30775
4.3878
4.45573
4.50738
4.54311
4.56391
4.57418
4.57413
4.5708
4.55978
4.53663
4.50745
4.47681
4.44336
4.40734
4.36834
4.32747
4.28456
4.24039
4.1947
4.14801
4.10017
4.05159
4.00221
3.95237
3.90208
3.85161
3.80099
3.75041
3.6999
3.6496
3.59952
3.54976
3.50034
3.45131
3.40272
3.35458
3.30693
3.25977
3.21314
3.16699
3.1214
3.0763
3.03177
2.98775
2.94433
2.90145
2.85922
2.81753
2.7766
2.73637
2.69697
2.65842
2.62088
2.58464
2.55038
2.51918
2.49263
2.47723
4.55899
3.26123
2.4448
1.92785
1.59374
1.3885
1.26814
1.25556
1.26328
1.28561
1.33204
1.37551
1.40427
1.41794
1.42187
1.42356
1.42768
1.43781
1.46154
1.51509
1.63263
1.89193
2.45771
3.28103
3.50818
3.50049
3.46989
3.42125
3.38651
3.36079
3.33911
3.32886
3.33436
3.35969
3.41766
3.51053
3.63802
3.77977
3.92452
4.06307
4.18284
4.28313
4.36412
4.43133
4.48317
4.52061
4.54353
4.55536
4.55657
4.55437
4.54621
4.52738
4.49755
4.46655
4.43368
4.39839
4.36015
4.31973
4.27725
4.23334
4.188
4.14162
4.09418
4.04595
3.99697
3.94748
3.89755
3.84737
3.79703
3.74666
3.69636
3.64621
3.5963
3.54665
3.49736
3.44841
3.39991
3.35183
3.30424
3.25712
3.21054
3.16445
3.11893
3.07391
3.02952
2.98561
2.94227
2.89951
2.85742
2.81594
2.77511
2.73491
2.69551
2.65691
2.61934
2.58299
2.54844
2.51676
2.48926
2.47308
5.0177
3.84075
2.97028
2.36485
1.95854
1.68584
1.51411
1.40611
1.34307
1.32723
1.33093
1.34315
1.36911
1.39921
1.42113
1.43393
1.4386
1.44475
1.45864
1.49138
1.56783
1.73942
2.11582
2.91482
3.42922
3.49245
3.47924
3.44109
3.40306
3.37981
3.36862
3.37051
3.38291
3.41315
3.46807
3.54665
3.65138
3.77348
3.899
4.02679
4.1445
4.24576
4.32849
4.39611
4.44883
4.48788
4.51325
4.52726
4.53058
4.52922
4.52371
4.51004
4.48257
4.45127
4.41841
4.38375
4.3465
4.30693
4.26521
4.22188
4.17713
4.13127
4.08441
4.03672
3.98832
3.93933
3.88991
3.84015
3.79023
3.74019
3.69023
3.64034
3.59069
3.54124
3.49214
3.44335
3.39499
3.34702
3.29955
3.25253
3.20607
3.16011
3.11474
3.06985
3.02564
2.98196
2.93893
2.89633
2.85437
2.81298
2.77228
2.7322
2.6929
2.65435
2.61678
2.58032
2.54546
2.51327
2.48474
2.46753
5.29439
4.2612
3.42262
2.78943
2.32676
1.99024
1.7458
1.57072
1.44823
1.37164
1.3322
1.33247
1.33662
1.34791
1.37101
1.39344
1.41054
1.42439
1.43632
1.46032
1.51089
1.62009
1.85765
2.36662
3.206
3.46047
3.48443
3.47378
3.44705
3.42905
3.43372
3.45299
3.49801
3.55483
3.60506
3.65705
3.72081
3.79673
3.88387
3.97603
4.08519
4.18975
4.27846
4.35029
4.40553
4.4465
4.47423
4.49083
4.49698
4.49634
4.49299
4.48369
4.46343
4.43235
4.39924
4.36499
4.32874
4.29029
4.24967
4.20726
4.16337
4.11826
4.07213
4.02513
3.97742
3.92907
3.88026
3.83104
3.78162
3.73203
3.68247
3.63292
3.58359
3.53441
3.48556
3.43696
3.38879
3.34098
3.29367
3.24683
3.20054
3.15478
3.1097
3.06516
3.02116
2.97766
2.93478
2.8924
2.85064
2.80943
2.7689
2.72898
2.68981
2.65134
2.61379
2.57725
2.54213
2.50947
2.47998
2.46159
5.4807
4.58375
3.80462
3.17433
2.68264
2.30527
2.01756
1.80063
1.63832
1.52154
1.43756
1.38429
1.35623
1.35632
1.35945
1.36827
1.38653
1.40724
1.42735
1.44631
1.47857
1.54672
1.69329
2.01205
2.69611
3.32304
3.47606
3.50203
3.50035
3.50471
3.52816
3.59106
3.70595
3.7847
3.82051
3.83912
3.85107
3.85962
3.88125
3.92954
4.00355
4.10465
4.2037
4.28675
4.34998
4.39584
4.42722
4.44697
4.45646
4.45685
4.45524
4.44957
4.43608
4.40897
4.37658
4.34257
4.30703
4.26963
4.23023
4.18898
4.14617
4.10199
4.05675
4.01054
3.96359
3.91595
3.86783
3.81925
3.77043
3.72137
3.6723
3.62318
3.57423
3.52538
3.47682
3.42848
3.38054
3.33295
3.28581
3.23923
3.19337
3.14798
3.10323
3.05894
3.01522
2.97195
2.92929
2.88714
2.84561
2.80461
2.76429
2.72455
2.68554
2.6472
2.60972
2.57317
2.53787
2.50482
2.47455
2.45495
5.61108
4.83033
4.11804
3.50979
3.01036
2.60901
2.28994
2.03797
1.83942
1.68478
1.56471
1.47677
1.41271
1.37515
1.35831
1.3589
1.36227
1.37057
1.38733
1.40597
1.43084
1.47613
1.56908
1.76261
2.16338
2.97247
3.39907
3.50161
3.54146
3.58156
3.66433
3.83053
4.00987
4.09971
4.1049
4.09104
4.04721
3.95789
3.91128
3.91777
3.94387
4.00195
4.09961
4.19499
4.27236
4.32955
4.3691
4.3944
4.4081
4.41204
4.41115
4.40777
4.39903
4.38029
4.35024
4.31685
4.28192
4.24546
4.20729
4.16733
4.12576
4.08273
4.03852
3.99327
3.94721
3.9004
3.85307
3.80522
3.75709
3.70866
3.66017
3.61156
3.56306
3.51459
3.46637
3.41835
3.3707
3.32344
3.27689
3.23075
3.18525
3.14021
3.09577
3.05175
3.00832
2.96532
2.92294
2.88104
2.83977
2.79904
2.75897
2.71946
2.68067
2.64252
2.60517
2.56866
2.53328
2.49995
2.46909
2.44825
5.70415
5.01797
4.37056
3.7949
3.30252
2.89156
2.55319
2.27712
2.05265
1.87142
1.72584
1.6109
1.52155
1.45518
1.40748
1.37975
1.36753
1.36829
1.37204
1.38115
1.39985
1.42942
1.48617
1.60178
1.84443
2.34898
3.14311
3.45422
3.57324
3.68159
3.86674
4.17147
4.41667
4.47838
4.46304
4.40345
4.26489
4.08375
3.96552
3.92239
3.92777
3.94855
3.99608
4.08131
4.16817
4.24058
4.29432
4.33043
4.35172
4.36134
4.36157
4.36009
4.35512
4.34334
4.31926
4.28763
4.25362
4.21807
4.18099
4.14228
4.10201
4.06022
4.01719
3.973
3.92795
3.88207
3.83563
3.7886
3.74125
3.69352
3.64567
3.59763
3.54963
3.50161
3.45379
3.40614
3.35904
3.31238
3.26633
3.2207
3.1756
3.13092
3.08679
3.04309
2.99997
2.95729
2.91523
2.87365
2.83271
2.79228
2.75251
2.71329
2.67476
2.63683
2.59966
2.56327
2.52789
2.49435
2.4631
2.44107
5.772
5.1621
4.57364
4.03442
3.55822
3.14814
2.80049
2.50897
2.26575
2.06396
1.89691
1.75958
1.64738
1.55723
1.48682
1.43364
1.39687
1.37564
1.37029
1.37182
1.37771
1.3922
1.42402
1.49203
1.63561
1.93956
2.57857
3.26847
3.56213
3.80221
4.16282
4.64367
4.90749
4.90638
4.86354
4.73481
4.47147
4.23021
4.06224
3.96529
3.92791
3.93062
3.94477
3.98039
4.05168
4.12831
4.19685
4.24907
4.28261
4.30109
4.3078
4.30718
4.30438
4.297
4.28106
4.25349
4.22143
4.18709
4.15113
4.11361
4.07465
4.0342
3.99248
3.94952
3.90564
3.86086
3.81545
3.76938
3.72291
3.67598
3.62886
3.58146
3.53405
3.48652
3.43929
3.39239
3.346
3.29998
3.25445
3.20927
3.16459
3.12028
3.07653
3.0332
2.99047
2.94818
2.90651
2.8653
2.82474
2.78466
2.74524
2.70633
2.66811
2.63045
2.59351
2.5573
2.52201
2.4884
2.45691
2.43383
5.82255
5.27488
4.73818
4.23547
3.7801
3.378
3.02852
2.72862
2.47279
2.25594
2.07243
1.9179
1.78818
1.68007
1.59126
1.51919
1.46369
1.4212
1.39226
1.3772
1.37783
1.38255
1.39696
1.4322
1.51253
1.68549
2.05144
2.81176
3.47011
3.93757
4.62004
5.24785
5.41741
5.38428
5.26446
4.99817
4.66399
4.39263
4.19232
4.05382
3.96789
3.92693
3.92471
3.93132
3.95546
4.00804
4.07784
4.14379
4.19369
4.22612
4.24409
4.24821
4.2471
4.24306
4.23338
4.21338
4.18449
4.1519
4.11729
4.08107
4.04347
4.00444
3.96415
3.9226
3.88008
3.83658
3.79236
3.74738
3.70191
3.65589
3.60956
3.56288
3.51611
3.46939
3.42304
3.37697
3.3313
3.2859
3.24091
3.19622
3.152
3.10815
3.06484
3.02194
2.97964
2.93779
2.89655
2.85577
2.81562
2.77595
2.73692
2.69838
2.66051
2.62315
2.5865
2.5505
2.51537
2.48174
2.45019
2.42622
5.86234
5.36541
4.87343
4.40506
3.97257
3.58258
3.23673
2.93377
2.67053
2.44306
2.24727
2.07911
1.9352
1.81227
1.70809
1.6202
1.54753
1.48828
1.44238
1.40906
1.3851
1.38545
1.3903
1.4062
1.44821
1.54636
1.76274
2.22218
3.17283
4.00015
5.25562
5.90496
5.90945
5.83093
5.60895
5.20639
4.8512
4.56691
4.34379
4.17217
4.04615
3.96241
3.91884
3.90588
3.90843
3.92285
3.95766
4.01978
4.07931
4.12706
4.1605
4.17774
4.18165
4.18032
4.17553
4.16429
4.14154
4.1119
4.07909
4.04435
4.00824
3.97073
3.93204
3.8921
3.85116
3.80916
3.76633
3.72261
3.67828
3.63326
3.58782
3.54196
3.49619
3.45051
3.40512
3.35988
3.31494
3.27017
3.22578
3.18164
3.13797
3.09464
3.05185
3.00946
2.96766
2.9263
2.88555
2.84524
2.80555
2.76632
2.72772
2.68958
2.65208
2.61508
2.57875
2.54302
2.50812
2.47456
2.44305
2.41843
5.89452
5.43917
4.98614
4.54958
4.14023
3.76473
3.42588
3.1239
2.85703
2.62275
2.41782
2.23924
2.0838
1.949
1.83222
1.73173
1.64568
1.57292
1.51269
1.46338
1.42783
1.40096
1.4015
1.40792
1.42975
1.48686
1.62176
1.92467
2.58608
3.93846
5.91185
6.4629
6.4022
6.20848
5.813
5.3935
5.03579
4.74149
4.49971
4.30317
4.14737
4.02956
3.94764
3.90009
3.87933
3.8741
3.88096
3.90282
3.94881
4.00221
4.04965
4.0832
4.10265
4.10779
4.10656
4.10173
4.09013
4.06664
4.03686
4.00396
3.96936
3.93337
3.8963
3.85811
3.81895
3.77866
3.7374
3.69511
3.65204
3.60811
3.56372
3.51905
3.47447
3.42987
3.38544
3.34104
3.29686
3.2528
3.20907
3.16556
3.12249
3.07975
3.03752
2.9957
2.95445
2.91362
2.8734
2.83361
2.79443
2.75568
2.71754
2.67984
2.64276
2.60614
2.57016
2.53475
2.50012
2.4667
2.43532
2.4102
5.92224
5.50141
5.08241
4.67499
4.28798
3.92784
3.59791
3.29949
3.03182
2.79355
2.58222
2.3957
2.23114
2.08666
1.95956
1.8486
1.75154
1.6676
1.59544
1.53408
1.4847
1.44434
1.42591
1.42901
1.44332
1.48472
1.58858
1.83296
2.39571
3.66018
6.23417
6.86549
6.75694
6.46522
5.9869
5.56168
5.20352
4.90309
4.65054
4.43876
4.26342
4.12107
4.00956
3.92763
3.87457
3.84682
3.82937
3.83171
3.84371
3.87173
3.91872
3.96283
3.99786
4.019
4.02785
4.02697
4.02276
4.01204
3.98998
3.96062
3.92775
3.89302
3.85735
3.82082
3.78349
3.74502
3.70549
3.66478
3.62309
3.58048
3.53749
3.49419
3.45083
3.40732
3.36386
3.32036
3.27702
3.23375
3.19076
3.14797
3.10558
3.06349
3.02191
2.98071
2.94008
2.89984
2.86021
2.82097
2.78233
2.7441
2.70646
2.66922
2.63259
2.59638
2.56079
2.52572
2.49141
2.45819
2.42702
2.40152
5.95169
5.55869
5.16875
4.78672
4.4202
4.07494
3.75464
3.46115
3.19469
2.95443
2.73904
2.54654
2.37505
2.22267
2.08727
1.96757
1.86148
1.76835
1.68651
1.61564
1.55532
1.50646
1.47259
1.47449
1.48632
1.523
1.61611
1.83627
2.33491
3.4605
5.92091
7.0555
6.97864
6.72874
6.23558
5.77378
5.38884
5.0724
4.80757
4.5835
4.39314
4.23238
4.09784
3.98832
3.90345
3.84339
3.80746
3.78005
3.77454
3.77983
3.79606
3.83022
3.87075
3.9064
3.93054
3.94274
3.94243
3.93951
3.9309
3.91229
3.88346
3.85045
3.81604
3.78086
3.74507
3.70827
3.67049
3.63145
3.59141
3.55051
3.50916
3.4673
3.42522
3.38285
3.34043
3.2979
3.25547
3.21306
3.17089
3.12888
3.08724
3.04588
3.00501
2.96448
2.92451
2.88492
2.84591
2.80727
2.76922
2.73153
2.69442
2.65768
2.62152
2.58576
2.5506
2.51591
2.48197
2.44899
2.41808
2.39231
5.98923
5.61632
5.24902
4.88845
4.53969
4.20829
3.89761
3.60981
3.34595
3.10527
2.88759
2.69094
2.51423
2.35569
2.21352
2.08669
1.97311
1.87231
1.78266
1.70379
1.6361
1.5796
1.54365
1.54623
1.5608
1.6044
1.71012
1.94221
2.42547
3.36715
4.89323
6.63666
6.91726
6.81133
6.51786
6.04019
5.61159
5.26557
4.97879
4.73702
4.53152
4.35524
4.20268
4.07144
3.96137
3.87268
3.80578
3.76202
3.72791
3.70895
3.711
3.72023
3.74156
3.77719
3.81064
3.83712
3.85236
3.85516
3.85337
3.84696
3.83229
3.80468
3.7731
3.73929
3.7045
3.66886
3.63252
3.59518
3.55704
3.51807
3.47845
3.43814
3.39743
3.35629
3.31502
3.27353
3.2321
3.19063
3.14938
3.10823
3.06743
3.02687
2.98678
2.947
2.90776
2.86887
2.83053
2.79254
2.7551
2.718
2.68144
2.64524
2.60958
2.5743
2.53959
2.50532
2.47178
2.4391
2.40851
2.38254
6.04335
5.67686
5.32484
4.98123
4.64784
4.32882
4.02791
3.74619
3.486
3.24637
3.02768
2.82864
2.64799
2.48491
2.33726
2.20465
2.08488
1.97769
1.88182
1.79645
1.72491
1.66294
1.64283
1.64915
1.67571
1.74784
1.91225
2.25598
2.8903
3.47814
4.12317
5.24024
6.32645
6.58982
6.52089
6.30967
5.89702
5.51678
5.1915
4.91643
4.68652
4.4905
4.31999
4.16993
4.03939
3.92783
3.8357
3.76305
3.71231
3.67128
3.64368
3.64018
3.64403
3.65597
3.68137
3.71257
3.74023
3.75806
3.76554
3.76455
3.76008
3.74886
3.72589
3.69589
3.66237
3.62748
3.59218
3.55639
3.52011
3.48301
3.44518
3.40653
3.36733
3.32757
3.28755
3.24723
3.20689
3.16646
3.1262
3.08601
3.04613
3.00646
2.96722
2.92826
2.8898
2.85166
2.81404
2.77673
2.73994
2.70346
2.66749
2.63186
2.59673
2.56197
2.52775
2.49394
2.46085
2.42851
2.3983
2.37221
6.11585
5.73997
5.39598
5.06564
4.74626
4.43833
4.14662
3.87184
3.61563
3.37844
3.15972
2.95959
2.77633
2.60976
2.45801
2.32053
2.19592
2.08343
1.98268
1.89376
1.81964
1.76741
1.76955
1.78661
1.84147
1.97453
2.25666
2.82156
3.2902
3.56524
3.84895
4.30965
5.05487
5.91488
6.26954
6.23571
6.0984
5.80569
5.46613
5.14158
4.87238
4.64612
4.45078
4.28014
4.13079
4.00033
3.88771
3.793
3.71617
3.65902
3.6125
3.57951
3.56404
3.56549
3.57201
3.58728
3.61473
3.64066
3.6611
3.6729
3.67277
3.67042
3.66295
3.64637
3.61753
3.5845
3.55038
3.51573
3.48076
3.44521
3.4091
3.37221
3.3347
3.2965
3.2579
3.21889
3.17976
3.14048
3.10132
3.06218
3.02331
2.98461
2.94629
2.90821
2.8706
2.83325
2.79639
2.7598
2.7237
2.68788
2.65254
2.61751
2.58296
2.54875
2.51506
2.48176
2.44917
2.41723
2.38745
2.36133
6.18693
5.80486
5.46365
5.14295
4.83522
4.53911
4.25574
3.98798
3.73651
3.50211
3.28469
3.08398
2.8995
2.73016
2.57548
2.4341
2.30564
2.18935
2.08523
1.99705
1.92456
1.9109
1.92244
1.96629
2.08357
2.3394
2.86143
3.34089
3.5776
3.66818
3.77936
3.93898
4.22946
4.71938
5.45541
5.94518
5.97288
5.90961
5.73782
5.41914
5.11523
4.84382
4.61045
4.41137
4.23855
4.08838
3.95688
3.8431
3.74608
3.66586
3.60319
3.55262
3.51313
3.48815
3.48541
3.48808
3.49665
3.5152
3.5398
3.56177
3.57616
3.58095
3.5797
3.5747
3.56272
3.53842
3.50752
3.47386
3.43954
3.40493
3.37018
3.33491
3.29913
3.26264
3.22568
3.1882
3.1505
3.11254
3.0746
3.03663
2.99886
2.96121
2.92389
2.88677
2.85005
2.81356
2.77751
2.7417
2.70633
2.67122
2.63655
2.60216
2.56824
2.53463
2.50153
2.46879
2.43675
2.40528
2.376
2.34995
6.30928
5.89221
5.5357
5.21798
4.91885
4.63219
4.35796
4.09642
3.84984
3.61864
3.40294
3.20264
3.01735
2.84647
2.68933
2.54537
2.41408
2.29559
2.19256
2.10669
2.06991
2.07825
2.11617
2.2231
2.46313
2.95872
3.47954
3.72132
3.78196
3.77995
3.78096
3.80349
3.88605
4.07154
4.44428
5.04808
5.5762
5.76124
5.73039
5.61581
5.37218
5.09576
4.81641
4.57889
4.37407
4.19735
4.04406
3.91092
3.79539
3.69622
3.61282
3.54558
3.49118
3.44582
3.41485
3.402
3.40287
3.40733
3.41817
3.4396
3.46091
3.47807
3.48737
3.48699
3.4842
3.4761
3.4586
3.42967
3.39723
3.36344
3.32944
3.29523
3.26084
3.22598
3.19074
3.15497
3.1189
3.08246
3.04593
3.00927
2.97273
2.93622
2.89999
2.86388
2.82813
2.79256
2.75737
2.72238
2.68779
2.65344
2.61949
2.58581
2.55257
2.51962
2.48717
2.45505
2.42365
2.39272
2.36403
2.33819
6.34818
5.98253
5.6152
5.29384
4.99963
4.72051
4.45343
4.19903
3.95693
3.72908
3.51543
3.31596
3.13056
2.95871
2.80016
2.65455
2.52206
2.40518
2.30637
2.24844
2.25369
2.28523
2.38095
2.60599
3.07988
3.65908
3.93124
3.96345
3.94658
3.89654
3.79482
3.75786
3.76892
3.82215
3.95353
4.22392
4.67464
5.18932
5.51209
5.50583
5.45138
5.31864
5.05367
4.79952
4.55291
4.34206
4.15995
4.00182
3.86527
3.74698
3.64506
3.55837
3.48669
3.42875
3.37858
3.34141
3.32054
3.31661
3.31855
3.32506
3.33943
3.36017
3.37862
3.39155
3.39428
3.39287
3.38771
3.37545
3.35067
3.32026
3.28752
3.25404
3.22051
3.18687
3.15316
3.1191
3.08477
3.05003
3.01511
2.97993
2.94477
2.90954
2.87449
2.83949
2.80477
2.77017
2.73591
2.70181
2.66808
2.63455
2.60139
2.56848
2.53598
2.50378
2.47204
2.44063
2.40995
2.3797
2.35169
2.3263
6.32489
6.10509
5.71749
5.37833
5.08053
4.80558
4.54439
4.29551
4.0588
3.83422
3.62279
3.42463
3.23958
3.06756
2.90856
2.7629
2.63247
2.52234
2.4441
2.44664
2.47342
2.56201
2.78219
3.24758
3.87933
4.18329
4.20629
4.18281
4.11423
3.97408
3.84352
3.75064
3.72826
3.73325
3.76473
3.85155
4.03312
4.33906
4.79116
5.14611
5.28604
5.2649
5.18242
4.99983
4.76328
4.53165
4.31375
4.12581
3.9627
3.82121
3.69909
3.59355
3.50317
3.42693
3.36529
3.3113
3.26887
3.24159
3.22962
3.23025
3.23377
3.24259
3.26046
3.27923
3.29424
3.30184
3.30126
3.29796
3.2891
3.27035
3.24257
3.21118
3.17875
3.14608
3.11356
3.08093
3.04823
3.01523
2.98204
2.94853
2.91491
2.8811
2.84735
2.81356
2.77996
2.74642
2.71315
2.68002
2.6472
2.61455
2.58226
2.5502
2.51854
2.48715
2.45625
2.42566
2.39583
2.36647
2.33932
2.31477
6.25891
6.12641
5.83473
5.4762
5.16634
4.89018
4.63293
4.38842
4.15573
3.93493
3.72592
3.52932
3.34528
3.17386
3.01613
2.87298
2.75246
2.6566
2.65445
2.67743
2.75849
2.97349
3.42721
4.13015
4.46991
4.48645
4.45781
4.3739
4.20431
4.04574
3.91582
3.81188
3.73582
3.70124
3.69586
3.70639
3.75203
3.86011
4.06938
4.39068
4.75259
5.00784
5.03939
5.00766
4.91412
4.7176
4.50251
4.29089
4.09556
3.92643
3.77937
3.65198
3.54214
3.44758
3.36711
3.30095
3.24434
3.19767
3.16452
3.146
3.14261
3.14423
3.14976
3.16213
3.18043
3.19636
3.20798
3.20842
3.20679
3.20145
3.18876
3.16375
3.13494
3.10406
3.07268
3.04114
3.00975
2.97829
2.94677
2.91497
2.883
2.85075
2.81844
2.78599
2.75362
2.72124
2.68907
2.65698
2.62517
2.59351
2.56219
2.53107
2.50035
2.46991
2.43999
2.41043
2.38167
2.35358
2.32756
2.30461
6.15961
6.09705
5.92326
5.57696
5.25666
4.97569
4.71924
4.4783
4.24921
4.03167
3.82544
3.63103
3.44867
3.2796
3.1255
2.99356
2.8887
2.87308
2.8953
2.97651
3.19229
3.65289
4.40628
4.77596
4.79066
4.75716
4.65992
4.46526
4.28691
4.13772
4.01157
3.90143
3.80538
3.7249
3.67532
3.64488
3.64153
3.65529
3.71082
3.83515
4.05027
4.36115
4.63327
4.80903
4.80039
4.7558
4.65223
4.46267
4.26279
4.06769
3.89239
3.73935
3.60614
3.49117
3.39234
3.3081
3.2374
3.17863
3.12825
3.08979
3.06658
3.0556
3.05612
3.05906
3.06654
3.0817
3.09875
3.11135
3.1173
3.11654
3.11303
3.10403
3.08541
3.05953
3.03046
3.00025
2.96999
2.93975
2.90962
2.87936
2.84902
2.8184
2.78766
2.75669
2.72571
2.69463
2.66368
2.63276
2.60208
2.57151
2.54127
2.51124
2.48164
2.45236
2.42365
2.3955
2.36821
2.34209
2.3178
2.29783
5.98694
5.99887
5.91583
5.70707
5.3675
5.06871
4.80663
4.5663
4.34023
4.12582
3.9226
3.73086
3.55194
3.3877
3.24605
3.13244
3.108
3.13001
3.21304
3.43531
3.9135
4.72623
5.11898
5.12097
5.08103
4.96773
4.75162
4.55359
4.38816
4.247
4.12046
4.00334
3.89363
3.79249
3.70422
3.63474
3.59508
3.55893
3.56022
3.5784
3.63972
3.77161
3.98155
4.25749
4.47338
4.58084
4.56899
4.52027
4.40856
4.22182
4.03899
3.8605
3.701
3.56237
3.44214
3.33875
3.25033
3.17562
3.11419
3.06134
3.01888
2.98946
2.97224
2.96823
2.96952
2.97414
2.98448
3.0012
3.01524
3.02548
3.02573
3.02422
3.01898
3.00712
2.984
2.95755
2.92923
2.90021
2.87116
2.84213
2.81318
2.78411
2.75496
2.72559
2.69615
2.66654
2.637
2.60741
2.57802
2.54872
2.51976
2.49105
2.46282
2.43507
2.40806
2.38196
2.35703
2.33409
2.31296
2.29827
5.55104
5.89286
5.86552
5.74537
5.48457
5.17068
4.89745
4.65464
4.43025
4.2188
4.01888
3.8313
3.65819
3.50809
3.38704
3.35749
3.38046
3.46838
3.70439
4.21452
5.08012
5.49367
5.48913
5.43612
5.2948
5.05871
4.84151
4.66019
4.50506
4.36539
4.2345
4.10919
3.98894
3.87419
3.76708
3.6704
3.58946
3.53257
3.48705
3.45457
3.45766
3.48017
3.54424
3.67649
3.87844
4.10933
4.28912
4.35465
4.34035
4.28965
4.17842
4.00166
3.82851
3.66652
3.52092
3.39497
3.28716
3.19539
3.11736
3.05172
2.99553
2.94922
2.91517
2.89334
2.88245
2.88282
2.8853
2.8918
2.90507
2.9199
2.9312
2.93712
2.93646
2.93339
2.92552
2.90908
2.88567
2.85916
2.83162
2.80376
2.776
2.74824
2.72058
2.69279
2.665
2.63703
2.6091
2.58107
2.55323
2.52548
2.49811
2.4711
2.44477
2.41924
2.3949
2.3721
2.35137
2.33408
2.3162
2.30501
4.57375
5.65044
5.77417
5.72307
5.57871
5.28508
4.99784
4.74757
4.52206
4.31256
4.11668
3.93563
3.77806
3.6511
3.62108
3.64634
3.74302
3.99869
4.55279
5.46682
5.88967
5.8811
5.81455
5.64555
5.38522
5.14954
4.95261
4.7837
4.63124
4.48765
4.34951
4.21547
4.08576
3.96082
3.84175
3.7299
3.62767
3.53675
3.46846
3.40925
3.36526
3.33748
3.34221
3.36675
3.43057
3.56066
3.74943
3.94198
4.09502
4.13424
4.11969
4.07027
3.96184
3.7988
3.63025
3.48185
3.35207
3.23923
3.14105
3.05772
2.9881
2.93003
2.88076
2.84314
2.81714
2.80169
2.79795
2.79909
2.80302
2.81207
2.82656
2.83953
2.84885
2.85013
2.84879
2.84419
2.83392
2.81356
2.78999
2.76431
2.73798
2.71145
2.6851
2.6588
2.63265
2.60642
2.58029
2.55411
2.52816
2.5024
2.4772
2.45265
2.42929
2.40729
2.38777
2.3709
2.35493
2.3409
2.32909
2.32519
2.90422
5.0782
5.64454
5.65098
5.58239
5.41233
5.11832
4.8522
4.61942
4.40997
4.21939
4.05498
3.92323
3.89819
3.92728
4.03616
4.32047
4.93341
5.90421
6.31649
6.30214
6.21711
6.01298
5.72815
5.47491
5.26377
5.08195
4.91681
4.76063
4.60972
4.46286
4.32001
4.18156
4.0481
3.9201
3.79832
3.68354
3.57712
3.48151
3.4
3.33589
3.27637
3.23299
3.21062
3.21655
3.24216
3.30406
3.42847
3.60154
3.76627
3.89999
3.92457
3.90999
3.86341
3.76155
3.61195
3.45928
3.31777
3.19072
3.0872
2.99942
2.92533
2.86347
2.81198
2.7707
2.74079
2.72126
2.71328
2.71384
2.71658
2.72326
2.73659
2.75019
2.76069
2.76648
2.76602
2.76348
2.75678
2.7428
2.72205
2.69858
2.67391
2.6491
2.62428
2.59978
2.57537
2.55126
2.52729
2.50378
2.48081
2.45886
2.43834
2.42013
2.40488
2.39112
2.37812
2.36903
2.36276
2.36387
2.36935
2.16378
3.78921
5.27898
5.56124
5.545
5.45488
5.25081
4.97038
4.72486
4.51395
4.3391
4.20149
4.18656
4.22121
4.34779