/*--------------------------------*- C++ -*----------------------------------*\
  =========                 |
  \\      /  F ield         | OpenFOAM: The Open Source CFD Toolbox
   \\    /   O peration     | Website:  https://openfoam.org
    \\  /    A nd           | Version:  9
     \\/     M anipulation  |
\*---------------------------------------------------------------------------*/
FoamFile
{
    format      ascii;
    class       volScalarField;
    location    "3.5";
    object      rho;
}
// * * * * * * * * * * * * * * * * * * * * * * * * * * * * * * * * * * * * * //

dimensions      [1 -3 0 0 0 0 0];

internalField   nonuniform List<scalar> 
5250
(
1.40001
1.40002
1.40005
1.40016
1.40034
1.40098
1.40207
1.40587
1.41266
1.43431
1.47579
1.58235
1.79309
2.26633
4.16118
5.95112
5.76875
5.64997
5.6688
5.75415
5.84497
5.8976
5.93751
5.95776
5.98159
1.40001
1.40002
1.40006
1.40014
1.40039
1.40082
1.40239
1.40499
1.41418
1.43062
1.47937
1.57423
1.79216
2.25
4.10809
5.95892
5.77034
5.64733
5.66659
5.75251
5.84348
5.89633
5.93702
5.95803
5.98279
1.40001
1.40002
1.40005
1.40015
1.40032
1.40093
1.40199
1.40552
1.41219
1.43233
1.47266
1.57364
1.77651
2.22313
3.98833
5.97626
5.77385
5.63906
5.65763
5.7425
5.83258
5.88413
5.92563
5.94602
5.97055
1.40001
1.40002
1.40006
1.40012
1.40036
1.40077
1.40212
1.40474
1.4126
1.42874
1.47203
1.56158
1.76264
2.17929
3.80424
6.00271
5.78096
5.62594
5.64223
5.72394
5.81374
5.8626
5.90287
5.92241
5.94782
1.40001
1.40002
1.40005
1.40013
1.4003
1.40079
1.40183
1.40468
1.41123
1.42762
1.46581
1.55312
1.73871
2.12821
3.56307
6.03121
5.79319
5.61036
5.62077
5.69837
5.78398
5.83287
5.86893
5.88966
5.91555
1.40001
1.40002
1.40005
1.40011
1.40031
1.40065
1.40183
1.404
1.41084
1.4243
1.46214
1.5386
1.71581
2.07105
3.27679
6.03954
5.80631
5.59493
5.60185
5.66212
5.74903
5.78938
5.8241
5.83889
5.86771
1.40001
1.40002
1.40004
1.40011
1.40024
1.40069
1.40148
1.40405
1.40904
1.42381
1.45406
1.53095
1.68751
2.0205
3.03048
5.96143
5.7852
5.56836
5.56911
5.62213
5.69571
5.73488
5.75912
5.77198
5.79827
1.40001
1.40002
1.40004
1.40009
1.40024
1.40058
1.40142
1.40358
1.40845
1.42143
1.45011
1.51932
1.66663
1.97373
2.84566
5.74612
5.69775
5.53215
5.52691
5.56174
5.63017
5.6564
5.67316
5.66936
5.69435
1.40001
1.40001
1.40004
1.40008
1.40023
1.40049
1.40139
1.403
1.40823
1.41828
1.44765
1.50641
1.64721
1.92844
2.67766
5.43362
5.58287
5.50667
5.478
5.49019
5.54107
5.55645
5.55176
5.5286
5.52476
1.40001
1.40001
1.40003
1.40008
1.40019
1.40049
1.40115
1.40286
1.40709
1.41693
1.44192
1.49753
1.62271
1.88357
2.51999
5.04185
5.51989
5.47128
5.41116
5.4127
5.43465
5.42838
5.39823
5.32261
5.25309
1.40001
1.40001
1.40003
1.40007
1.40019
1.40038
1.40111
1.40231
1.40665
1.4141
1.43843
1.48425
1.60133
1.83171
2.37162
4.5731
5.48231
5.44067
5.34122
5.32511
5.31668
5.2846
5.19105
4.96286
4.29582
1.40001
1.40001
1.40003
1.40006
1.40015
1.40035
1.4009
1.40212
1.40534
1.41292
1.43154
1.47483
1.57302
1.77961
2.2263
4.02583
5.46872
5.41722
5.28503
5.23514
5.20204
5.13126
4.97625
4.65211
3.92781
1.40001
1.40001
1.40002
1.40005
1.40013
1.40028
1.40077
1.40173
1.40452
1.41055
1.42656
1.46213
1.54628
1.72211
2.08953
3.41498
5.4564
5.40411
5.2515
5.15416
5.09215
4.98639
4.78293
4.44448
3.85863
1.40001
1.40001
1.40002
1.40004
1.40011
1.40023
1.40063
1.40139
1.40368
1.40852
1.42153
1.45047
1.51982
1.66632
1.96931
2.8244
5.34715
5.34554
5.24576
5.09008
4.99029
4.86351
4.64461
4.32354
3.86732
1.40001
1.40001
1.40002
1.40004
1.40009
1.4002
1.40048
1.40123
1.4028
1.40743
1.41666
1.44317
1.49693
1.62512
1.8827
2.52141
4.92359
5.24769
5.18562
5.03496
4.90217
4.76106
4.54948
4.2545
3.87752
1.40001
1.40001
1.40001
1.40003
1.40007
1.40017
1.40038
1.40097
1.40235
1.40572
1.41414
1.43381
1.48079
1.58469
1.80405
2.2865
4.23081
5.1417
5.10681
4.99171
4.8328
4.67833
4.4771
4.20944
3.88301
1.40001
1.40001
1.40001
1.40003
1.40005
1.40014
1.40029
1.40081
1.40172
1.40477
1.41049
1.42776
1.46232
1.54993
1.72563
2.09532
3.48363
5.08967
5.06855
4.97466
4.78421
4.61455
4.42141
4.17701
3.88681
1.40001
1.40001
1.40001
1.40002
1.40005
1.40009
1.40025
1.40053
1.40149
1.40322
1.40871
1.41939
1.44988
1.51099
1.65604
1.93196
2.70281
4.93465
5.05067
4.96887
4.77628
4.57561
4.38082
4.15464
3.89221
1.40001
1.40001
1.40001
1.40002
1.40003
1.40008
1.40019
1.40042
1.40113
1.40243
1.4068
1.41445
1.43899
1.4853
1.60242
1.83058
2.36635
4.40825
4.95885
4.9103
4.76563
4.54977
4.35184
4.13915
3.89951
1.40001
1.40001
1.40001
1.40001
1.40003
1.40006
1.40013
1.40034
1.40077
1.40199
1.4047
1.41163
1.42799
1.46695
1.55351
1.7398
2.11696
3.60198
4.87134
4.84985
4.75645
4.5445
4.33396
4.12921
3.90783
1.40001
1.40001
1.40001
1.40001
1.40002
1.40005
1.4001
1.40024
1.40059
1.40136
1.40355
1.40799
1.4208
1.44702
1.51336
1.65007
1.9184
2.66713
4.69801
4.83514
4.76035
4.57337
4.33739
4.12857
3.92049
1.40001
1.40001
1.40001
1.40001
1.40002
1.40004
1.40007
1.40019
1.40039
1.40108
1.40233
1.4063
1.41402
1.43624
1.48123
1.59091
1.80548
2.29327
4.14238
4.75406
4.71577
4.59024
4.35605
4.13927
3.93737
1.40001
1.40001
1.40001
1.40001
1.40001
1.40002
1.40006
1.40012
1.4003
1.40073
1.40173
1.40443
1.41005
1.42598
1.45878
1.5399
1.70528
2.03611
3.2666
4.62572
4.64045
4.57505
4.39581
4.16805
3.96106
1.40001
1.40001
1.40001
1.40001
1.40001
1.40002
1.40004
1.40009
1.4002
1.40052
1.40116
1.40302
1.40698
1.4175
1.44083
1.4973
1.61633
1.84913
2.43518
4.29896
4.61606
4.5664
4.42993
4.20815
3.99245
1.40001
1.40001
1.40001
1.40001
1.40001
1.40002
1.40003
1.40006
1.40014
1.40034
1.40085
1.40195
1.40509
1.41138
1.42948
1.46614
1.55637
1.73557
2.10408
3.52605
4.53058
4.51606
4.44915
4.26968
4.03749
1.40001
1.40001
1.40001
1.40001
1.40001
1.40001
1.40002
1.40005
1.40009
1.40025
1.40052
1.4014
1.40308
1.40806
1.41825
1.44578
1.50248
1.63407
1.86516
2.513
4.29402
4.51242
4.461
4.33313
4.09836
1.40001
1.40001
1.40001
1.40001
1.40001
1.40001
1.40002
1.40003
1.40007
1.40015
1.40038
1.40086
1.40225
1.40493
1.41327
1.4288
1.47339
1.55978
1.75173
2.13611
3.63271
4.43502
4.42363
4.35819
4.19181
1.40001
1.40001
1.40001
1.40001
1.40001
1.40001
1.40001
1.40002
1.40005
1.4001
1.40026
1.40055
1.40145
1.40325
1.40837
1.41915
1.44747
1.50659
1.64172
1.87917
2.61493
4.19887
4.40713
4.36634
4.25539
1.40001
1.40001
1.40001
1.40001
1.40001
1.40001
1.40001
1.40001
1.40003
1.40006
1.40017
1.40035
1.40094
1.40209
1.40539
1.41244
1.43067
1.47086
1.5631
1.74391
2.13131
3.57014
4.32167
4.32597
4.27404
1.40001
1.40001
1.40001
1.40001
1.40001
1.40001
1.40001
1.40001
1.40002
1.40004
1.4001
1.40023
1.4006
1.40129
1.40351
1.4074
1.42022
1.44314
1.50754
1.62864
1.86094
2.54538
4.06372
4.30581
4.27584
1.40001
1.40001
1.40001
1.40001
1.40001
1.40001
1.40001
1.40001
1.40001
1.40003
1.40006
1.40015
1.40035
1.40085
1.4021
1.40484
1.41236
1.42765
1.46886
1.55083
1.72624
2.07792
3.39936
4.20424
4.24172
1.40001
1.40001
1.40001
1.40001
1.40001
1.40001
1.40001
1.40001
1.40001
1.40002
1.40004
1.4001
1.40021
1.40056
1.40117
1.40321
1.40676
1.41824
1.43908
1.49761
1.60638
1.81374
2.35491
3.90811
4.2176
1.40001
1.40001
1.40001
1.40001
1.40001
1.40001
1.40001
1.40001
1.40001
1.40001
1.40003
1.40006
1.40014
1.40032
1.40077
1.40187
1.40433
1.41095
1.42469
1.46113
1.53493
1.69419
1.99764
3.14074
4.06834
1.40001
1.40001
1.40001
1.40001
1.40001
1.40001
1.40001
1.40001
1.40001
1.40001
1.40002
1.40004
1.40009
1.40018
1.40049
1.40104
1.40276
1.40605
1.41561
1.4348
1.48488
1.58338
1.7707
2.22909
3.6743
1.40001
1.40001
1.40001
1.40001
1.40001
1.40001
1.40001
1.40001
1.40001
1.40001
1.40001
1.40003
1.40005
1.40012
1.40027
1.40065
1.40159
1.40365
1.40932
1.4207
1.45197
1.5139
1.65246
1.89701
2.75697
1.40001
1.40001
1.40001
1.40001
1.40001
1.40001
1.40001
1.40001
1.40001
1.40001
1.40001
1.40002
1.40003
1.40007
1.40017
1.40038
1.40091
1.40222
1.40513
1.4128
1.42906
1.47014
1.55475
1.71902
2.07974
1.40001
1.40001
1.40001
1.40001
1.40001
1.40001
1.40001
1.40001
1.40001
1.40001
1.40001
1.40001
1.40002
1.40004
1.4001
1.40022
1.40054
1.40118
1.40313
1.40664
1.41774
1.43759
1.49375
1.59429
1.7848
1.40001
1.40001
1.40001
1.40001
1.40001
1.40001
1.40001
1.40001
1.40001
1.40001
1.40001
1.40001
1.40001
1.40003
1.40005
1.40014
1.40028
1.40076
1.40159
1.40431
1.40912
1.42413
1.45172
1.52592
1.65624
1.40001
1.40001
1.40001
1.40001
1.40001
1.40001
1.40001
1.40001
1.40001
1.40001
1.40001
1.40001
1.40001
1.40002
1.40004
1.40007
1.40018
1.40038
1.40102
1.40213
1.4058
1.41208
1.43211
1.46805
1.56076
1.40001
1.40001
1.40001
1.40001
1.40001
1.40001
1.40001
1.40001
1.40001
1.40001
1.40001
1.40001
1.40001
1.40001
1.40002
1.40005
1.40009
1.40024
1.4005
1.40134
1.40278
1.40753
1.41568
1.44124
1.48639
1.40001
1.40001
1.40001
1.40001
1.40001
1.40001
1.40001
1.40001
1.40001
1.40001
1.40001
1.40001
1.40001
1.40001
1.40001
1.40003
1.40006
1.40012
1.40031
1.40066
1.40174
1.40376
1.40964
1.42144
1.45258
1.40001
1.40001
1.40001
1.40001
1.40001
1.40001
1.40001
1.40001
1.40001
1.40001
1.40001
1.40001
1.40001
1.40001
1.40001
1.40002
1.40003
1.40007
1.40016
1.40037
1.40093
1.40204
1.40535
1.41131
1.42964
1.40001
1.40001
1.40001
1.40001
1.40001
1.40001
1.40001
1.40001
1.40001
1.40001
1.40001
1.40001
1.40001
1.40001
1.40001
1.40001
1.40002
1.40004
1.40009
1.40022
1.40045
1.40121
1.40253
1.40676
1.41423
1.40001
1.40001
1.40001
1.40001
1.40001
1.40001
1.40001
1.40001
1.40001
1.40001
1.40001
1.40001
1.40001
1.40001
1.40001
1.40001
1.40001
1.40002
1.40005
1.40011
1.40026
1.40063
1.40142
1.4036
1.40774
1.40001
1.40001
1.40001
1.40001
1.40001
1.40001
1.40001
1.40001
1.40001
1.40001
1.40001
1.40001
1.40001
1.40001
1.40001
1.40001
1.40001
1.40002
1.40003
1.40007
1.40015
1.40034
1.40083
1.40185
1.40475
1.40001
1.40001
1.40001
1.40001
1.40001
1.40001
1.40001
1.40001
1.40001
1.40001
1.40001
1.40001
1.40001
1.40001
1.40001
1.40001
1.40001
1.40001
1.40002
1.40004
1.40009
1.40022
1.40046
1.40125
1.4026
1.40001
1.40001
1.40001
1.40001
1.40001
1.40001
1.40001
1.40001
1.40001
1.40001
1.40001
1.40001
1.40001
1.40001
1.40001
1.40001
1.40001
1.40001
1.40002
1.40003
1.40007
1.40015
1.40036
1.4009
1.40204
1.40001
1.40001
1.40001
1.40001
1.40001
1.40001
1.40001
1.40001
1.40001
1.40001
1.40001
1.40001
1.40001
1.40001
1.40001
1.40001
1.40001
1.40001
1.40001
1.40003
1.40006
1.40013
1.40033
1.40076
1.40189
1.40001
1.40001
1.40001
1.40001
1.40001
1.40001
1.40001
1.40001
1.40001
1.40001
1.40001
1.40001
1.40001
1.40001
1.40001
1.40001
1.40001
1.40001
1.40001
1.40003
1.40005
1.40013
1.40028
1.4008
1.40167
1.40001
1.40001
1.40001
1.40001
1.40001
1.40001
1.40001
1.40001
1.40001
1.40001
1.40001
1.40001
1.40001
1.40001
1.40001
1.40001
1.40001
1.40001
1.40001
1.40003
1.40005
1.40013
1.40028
1.4008
1.40166
1.89229
1.03415
0.718288
0.64205
0.642436
0.67521
0.76516
0.838605
0.862125
0.861762
0.859206
0.858575
0.859003
0.860925
0.865605
0.872212
0.877806
0.885143
0.900041
0.931201
0.996798
1.14404
1.45826
1.65089
1.68201
1.66764
1.61465
1.58672
1.58319
1.58355
1.5835
1.58689
1.59217
1.60714
1.63617
1.67839
1.73516
1.79561
1.85632
1.91397
1.96552
2.00915
2.0446
2.07539
2.10245
2.12009
2.13414
2.14134
2.14773
2.14895
2.15047
2.14394
2.13992
2.12982
2.12259
2.10958
2.09972
2.08443
2.07256
2.05555
2.04216
2.02377
2.00917
1.98969
1.97419
1.95396
1.93787
1.9173
1.90065
1.88034
1.8633
1.84307
1.82598
1.80588
1.78874
1.76889
1.75169
1.73217
1.71501
1.69585
1.6788
1.66003
1.64316
1.62478
1.60817
1.59018
1.57391
1.55635
1.54045
1.52338
1.5079
1.49128
1.47634
1.46022
1.44595
1.43079
1.41769
1.40438
1.39389
1.38702
2.33882
1.53233
1.17289
1.023
0.960989
0.916208
0.907494
0.911753
0.922095
0.947165
0.971741
0.982276
0.982178
0.981499
0.981578
0.982437
0.985172
0.991435
1.00477
1.03271
1.08909
1.21242
1.47242
1.69487
1.73035
1.70064
1.63878
1.58597
1.55895
1.54392
1.53344
1.53345
1.53889
1.55099
1.57876
1.62639
1.68909
1.76217
1.83876
1.91502
1.99571
2.05187
2.10911
2.1501
2.19148
2.21722
2.24272
2.25636
2.27009
2.27591
2.28364
2.28092
2.2796
2.27232
2.26806
2.25749
2.25013
2.23655
2.22671
2.21114
2.19911
2.18225
2.16828
2.15041
2.13503
2.11625
2.09994
2.0804
2.06349
2.0434
2.02612
2.00577
1.98825
1.96791
1.95019
1.93003
1.91219
1.89222
1.87435
1.85456
1.83677
1.81713
1.79952
1.78009
1.7627
1.74353
1.7264
1.70754
1.69073
1.6722
1.65578
1.63774
1.62189
1.60447
1.58927
1.57265
1.55857
1.54379
1.53221
1.52427
2.86117
2.13018
1.65817
1.357
1.16213
1.04178
0.964655
0.956257
0.960081
0.97098
0.997593
1.02326
1.04061
1.04907
1.05151
1.05225
1.05397
1.05819
1.06788
1.08933
1.13473
1.22139
1.43003
1.78142
1.82431
1.77293
1.74222
1.69737
1.64092
1.59652
1.55992
1.53951
1.53709
1.54493
1.57437
1.62566
1.70266
1.78794
1.87672
1.96242
2.03748
2.09941
2.15555
2.19953
2.24066
2.26897
2.29525
2.31077
2.32582
2.33356
2.34261
2.34304
2.34146
2.33545
2.33095
2.32203
2.31434
2.30226
2.2918
2.27742
2.26478
2.2489
2.23453
2.21756
2.2019
2.18397
2.1675
2.14866
2.1317
2.11211
2.09468
2.07465
2.05679
2.03667
2.01854
1.99858
1.98037
1.96062
1.94243
1.92283
1.90472
1.8852
1.86727
1.84784
1.83015
1.81096
1.79344
1.77466
1.75745
1.73916
1.7223
1.70442
1.68794
1.67058
1.65466
1.63804
1.62316
1.60822
1.59562
1.58754
3.16316
2.51768
2.02357
1.67115
1.43088
1.267
1.16349
1.09831
1.05832
1.04816
1.05021
1.05636
1.07114
1.08929
1.10283
1.11097
1.11356
1.11631
1.12225
1.13588
1.16712
1.22519
1.38261
1.70743
1.88214
1.8906
1.86669
1.80177
1.74336
1.71442
1.68053
1.65223
1.63868
1.64568
1.67576
1.72709
1.80141
1.88316
1.96769
2.04692
2.12231
2.18471
2.24081
2.28622
2.32701
2.35742
2.38333
2.40051
2.41497
2.42364
2.4331
2.43448
2.43318
2.42557
2.42101
2.4112
2.40366
2.39089
2.38034
2.36485
2.35207
2.33449
2.32022
2.3013
2.28585
2.26605
2.24941
2.22902
2.21145
2.19075
2.17274
2.15191
2.13365
2.11271
2.09416
2.07322
2.05439
2.03367
2.01471
1.99433
1.97541
1.95528
1.93653
1.91652
1.89803
1.87831
1.8602
1.84085
1.82301
1.80417
1.78673
1.76844
1.75141
1.7337
1.71719
1.7002
1.68459
1.66919
1.65558
1.64693
3.34353
2.79595
2.32891
1.96519
1.69321
1.49224
1.34434
1.23739
1.16143
1.11285
1.08568
1.08591
1.08809
1.09386
1.10788
1.12182
1.13232
1.14071
1.14632
1.15731
1.17979
1.22616
1.31421
1.51692
1.90618
1.99028
1.94982
1.91182
1.88036
1.83472
1.80292
1.7869
1.78706
1.80664
1.83603
1.87783
1.93193
1.99344
2.05536
2.11633
2.18466
2.24668
2.30294
2.34719
2.38773
2.41613
2.44189
2.45711
2.47186
2.47881
2.48915
2.49235
2.49383
2.48496
2.478
2.46641
2.45767
2.44474
2.43415
2.41924
2.40583
2.38841
2.37266
2.35389
2.33741
2.31832
2.30153
2.28183
2.26412
2.24347
2.2248
2.2038
2.18479
2.16404
2.14504
2.12443
2.1053
2.08451
2.0652
2.04431
2.02509
2.00452
1.9857
1.96578
1.94725
1.92781
1.90937
1.89027
1.87195
1.85301
1.835
1.81625
1.79873
1.78041
1.76351
1.74602
1.73002
1.71427
1.69994
1.69083
3.45737
3.00058
2.57964
2.2252
1.94053
1.71703
1.54341
1.41082
1.31017
1.23753
1.18449
1.15016
1.13057
1.13069
1.13232
1.13688
1.14769
1.16038
1.17244
1.1824
1.19751
1.22832
1.28796
1.42694
1.70128
1.99553
2.05852
2.0314
1.98811
1.95557
1.9428
1.93807
1.96432
1.99802
2.02316
2.05151
2.08497
2.11588
2.14822
2.19085
2.23894
2.29742
2.35486
2.40419
2.44552
2.47638
2.50217
2.51911
2.53357
2.5382
2.54555
2.54826
2.5513
2.54467
2.5379
2.52652
2.51601
2.50142
2.48907
2.47371
2.46094
2.44443
2.42939
2.41025
2.39257
2.37202
2.3537
2.33349
2.31545
2.29527
2.27663
2.25548
2.23584
2.21398
2.19415
2.17252
2.1532
2.13212
2.11308
2.09229
2.0734
2.05282
2.03384
2.01354
1.99465
1.97476
1.95615
1.93663
1.91839
1.89915
1.88126
1.86238
1.84479
1.82642
1.80912
1.79142
1.7747
1.75831
1.74302
1.7326
3.53352
3.14847
2.77623
2.4432
2.16052
1.92676
1.73702
1.58424
1.46217
1.36585
1.28986
1.23419
1.19229
1.16724
1.15502
1.15533
1.15705
1.16121
1.17153
1.18213
1.19513
1.21693
1.26012
1.33284
1.51435
1.89969
2.07712
2.1017
2.10227
2.08294
2.07837
2.12159
2.18316
2.22531
2.23733
2.25262
2.26168
2.24625
2.24293
2.26328
2.2888
2.32399
2.37691
2.42944
2.47359
2.50798
2.53423
2.55155
2.56468
2.57011
2.57591
2.57874
2.58315
2.57987
2.57339
2.56201
2.552
2.53808
2.52554
2.50977
2.49599
2.47956
2.46507
2.44765
2.43154
2.41222
2.39418
2.3735
2.35472
2.33403
2.31544
2.29499
2.2761
2.25515
2.23525
2.21361
2.19309
2.1715
2.15155
2.13067
2.11139
2.09091
2.07197
2.05148
2.03251
2.01206
1.99305
1.97297
1.95417
1.93462
1.91615
1.89699
1.87888
1.85996
1.84225
1.82373
1.80663
1.78935
1.77349
1.76183
3.58754
3.25723
2.92761
2.62131
2.34891
2.11497
1.91692
1.7524
1.61559
1.50402
1.41262
1.34002
1.28249
1.23983
1.20799
1.18931
1.18016
1.18049
1.18233
1.18699
1.19727
1.21252
1.24016
1.2935
1.39041
1.61193
2.03017
2.15072
2.17039
2.19238
2.23907
2.34863
2.43896
2.47122
2.47602
2.47479
2.4398
2.37729
2.33785
2.32972
2.34339
2.36009
2.38654
2.43115
2.47656
2.51831
2.54933
2.57201
2.58784
2.59645
2.60247
2.60536
2.61028
2.61049
2.60687
2.59654
2.58719
2.5739
2.56201
2.54651
2.53302
2.51643
2.50191
2.48435
2.46857
2.44969
2.43234
2.41204
2.39329
2.37206
2.35263
2.33122
2.3117
2.29044
2.27075
2.24945
2.22949
2.20813
2.18785
2.16646
2.14618
2.12505
2.10519
2.08449
2.06509
2.04464
2.02541
2.00495
1.98566
1.96525
1.94605
1.926
1.90728
1.88782
1.86986
1.85102
1.83387
1.81603
1.79994
1.78691
3.62998
3.33967
3.04667
2.76576
2.50868
2.27981
2.08053
1.9095
1.76378
1.64091
1.53739
1.45138
1.37994
1.32223
1.27625
1.24152
1.21647
1.20159
1.19727
1.19789
1.20074
1.208
1.2238
1.25676
1.32161
1.45487
1.74303
2.10761
2.22794
2.30246
2.42179
2.61396
2.72764
2.729
2.72584
2.69755
2.59939
2.50482
2.43771
2.40165
2.38971
2.39587
2.40742
2.42707
2.4652
2.5057
2.54557
2.57367
2.59504
2.60857
2.61773
2.62115
2.62715
2.62949
2.63052
2.62279
2.61498
2.60313
2.59242
2.5779
2.56491
2.54859
2.53418
2.5168
2.50127
2.48288
2.46613
2.44655
2.42846
2.40758
2.38818
2.36618
2.34586
2.32341
2.30299
2.28117
2.26124
2.24007
2.22036
2.19929
2.17934
2.15794
2.13765
2.11598
2.09567
2.07412
2.05416
2.03303
2.0135
1.99278
1.97346
1.95306
1.93377
1.91371
1.89454
1.87507
1.85641
1.83818
1.82084
1.8072
3.66494
3.40579
3.14139
2.88493
2.64306
2.42386
2.22663
2.05433
1.90306
1.77336
1.66086
1.56543
1.48364
1.41501
1.3579
1.31077
1.27467
1.24595
1.22644
1.21475
1.21481
1.21682
1.22372
1.24082
1.27932
1.34979
1.52369
1.88135
2.20065
2.39178
2.6661
2.93116
3.00965
3.00107
2.96783
2.87256
2.73632
2.62253
2.53708
2.47849
2.44071
2.42622
2.42854
2.43805
2.45583
2.48605
2.52537
2.56154
2.59184
2.61399
2.63017
2.63779
2.64505
2.64867
2.65282
2.6491
2.64284
2.63197
2.62231
2.60886
2.5966
2.5806
2.56596
2.54809
2.53185
2.51287
2.49553
2.4757
2.45742
2.43675
2.41752
2.39596
2.37569
2.35348
2.33264
2.31014
2.28906
2.26662
2.24569
2.22356
2.20295
2.18114
2.16075
2.1391
2.11877
2.09719
2.07691
2.05544
2.03534
2.01413
1.99437
1.97355
1.95423
1.93391
1.9151
1.89537
1.87713
1.85841
1.84119
1.82643
3.697
3.46167
3.22065
2.98402
2.75822
2.54833
2.35737
2.1854
2.0331
1.89826
1.78073
1.67744
1.58854
1.5107
1.44489
1.38772
1.34098
1.30152
1.27123
1.24885
1.23055
1.23054
1.23248
1.23968
1.2598
1.30579
1.39012
1.60552
2.06874
2.39906
2.97067
3.25709
3.26078
3.23705
3.1625
2.99719
2.84744
2.72608
2.62989
2.55415
2.50141
2.46746
2.45416
2.45615
2.46646
2.48361
2.50641
2.54437
2.58006
2.61114
2.63575
2.65066
2.66093
2.66505
2.67019
2.66994
2.66607
2.6558
2.64629
2.63292
2.62074
2.60473
2.59002
2.57209
2.55563
2.53638
2.51843
2.49806
2.47897
2.45778
2.43787
2.41605
2.39568
2.37363
2.35294
2.33065
2.30961
2.28708
2.26578
2.24315
2.22181
2.19933
2.17818
2.15603
2.13524
2.11346
2.09306
2.07163
2.05159
2.03046
2.01074
1.98994
1.97049
1.95005
1.93089
1.91089
1.89215
1.87301
1.85535
1.83969
3.72849
3.51079
3.28947
3.06987
2.85821
2.65869
2.47385
2.30537
2.15291
2.01661
1.89486
1.78727
1.69177
1.60829
1.53436
1.47076
1.4148
1.36781
1.32786
1.29486
1.27124
1.2503
1.25022
1.25281
1.26276
1.28969
1.35145
1.48685
1.74998
2.33888
3.25095
3.51158
3.48879
3.41773
3.25833
3.08487
2.93839
2.8166
2.71572
2.63423
2.57299
2.53065
2.50408
2.49249
2.49297
2.50129
2.51482
2.5346
2.56458
2.59855
2.62793
2.65112
2.66713
2.67377
2.67899
2.68006
2.68073
2.67212
2.66253
2.64873
2.63615
2.62008
2.60543
2.58768
2.57151
2.55243
2.53468
2.51435
2.49517
2.47383
2.45358
2.43164
2.41084
2.38852
2.36738
2.34486
2.32363
2.30115
2.27998
2.25764
2.23658
2.21438
2.19342
2.17131
2.15048
2.12849
2.10786
2.0861
2.06577
2.04437
2.0244
2.00343
1.98379
1.96323
1.94393
1.9238
1.90493
1.88556
1.86776
1.85149
3.75932
3.55635
3.35002
3.14631
2.94687
2.75734
2.57901
2.41453
2.26326
2.12671
2.00249
1.89201
1.79177
1.70386
1.62392
1.55488
1.4921
1.43884
1.39093
1.35128
1.31753
1.28988
1.27473
1.27558
1.28163
1.3006
1.3487
1.45702
1.65037
2.20144
3.36517
3.65097
3.61246
3.50644
3.32847
3.17278
3.04114
2.92231
2.8207
2.73689
2.67426
2.62641
2.58944
2.55996
2.54234
2.53758
2.53563
2.54628
2.55793
2.57611
2.60399
2.63058
2.65145
2.66679
2.67594
2.67815
2.68112
2.67856
2.67233
2.65975
2.64744
2.63164
2.61707
2.59979
2.58381
2.56513
2.54762
2.52744
2.50841
2.48704
2.467
2.4451
2.42444
2.40226
2.38118
2.35877
2.33739
2.31477
2.29321
2.2705
2.249
2.22642
2.2052
2.18285
2.16201
2.13992
2.11946
2.09767
2.07755
2.05611
2.0363
2.01524
1.99569
1.97505
1.95574
1.93555
1.91662
1.89716
1.87928
1.86261
3.79424
3.60165
3.4083
3.21553
3.02835
2.84698
2.67563
2.51506
2.36633
2.22943
2.10481
1.99119
1.8887
1.7962
1.71259
1.63842
1.57077
1.51213
1.45835
1.41302
1.37207
1.33973
1.31283
1.31288
1.31752
1.33404
1.37667
1.47518
1.6602
2.1877
3.24521
3.79757
3.78987
3.72381
3.54531
3.35887
3.20794
3.08592
2.97443
2.87793
2.79761
2.73468
2.67941
2.63591
2.59977
2.57605
2.56422
2.55467
2.55678
2.56405
2.57615
2.59728
2.62234
2.64389
2.66039
2.67027
2.67351
2.67426
2.67412
2.66684
2.65594
2.64017
2.62553
2.60816
2.59221
2.57364
2.55617
2.53611
2.51708
2.49584
2.47591
2.45407
2.43363
2.41151
2.39068
2.36837
2.34717
2.32467
2.30324
2.28066
2.25931
2.23682
2.21581
2.19353
2.17288
2.15083
2.13049
2.10872
2.08862
2.06717
2.04731
2.02622
2.00664
1.98596
1.96668
1.94644
1.92756
1.90796
1.8901
1.87298
3.83617
3.6496
3.4655
3.28284
3.10262
2.93053
2.76387
2.6079
2.46203
2.32562
2.20151
2.08584
1.98161
1.88602
1.79912
1.72123
1.64946
1.58649
1.5282
1.47793
1.4325
1.3947
1.36601
1.36601
1.37157
1.39079
1.43811
1.53522
1.75779
2.21262
2.91737
3.75162
3.89438
3.86774
3.75102
3.54839
3.37478
3.23711
3.11044
2.99974
2.90875
2.83423
2.76981
2.71224
2.66469
2.62519
2.5973
2.58025
2.56881
2.56187
2.56712
2.57385
2.5869
2.60741
2.62842
2.64427
2.65573
2.65915
2.66095
2.65947
2.65544
2.64202
2.62867
2.61187
2.59621
2.57798
2.56109
2.54184
2.5238
2.50353
2.4843
2.46313
2.44298
2.42116
2.40041
2.37809
2.35701
2.33438
2.31317
2.29047
2.26929
2.24672
2.22569
2.20335
2.18256
2.16051
2.13996
2.11824
2.09798
2.07659
2.05669
2.03566
2.01612
1.99549
1.97625
1.95605
1.93717
1.91756
1.89967
1.88226
3.89324
3.70334
3.524
3.3479
3.17488
3.00673
2.84832
2.69299
2.55204
2.41574
2.2923
2.17674
2.07009
1.9736
1.88305
1.80311
1.72728
1.66144
1.59912
1.54508
1.49739
1.45391
1.43645
1.43757
1.44818
1.47945
1.5447
1.70797
2.05533
2.36876
2.65776
3.15421
3.68418
3.82598
3.81271
3.7279
3.54906
3.39566
3.25272
3.12517
3.02318
2.93635
2.86204
2.79395
2.73603
2.68478
2.64347
2.6097
2.58852
2.57055
2.55887
2.56056
2.5648
2.5729
2.58833
2.60643
2.62339
2.635
2.64165
2.64263
2.64301
2.63869
2.62973
2.61493
2.59972
2.58172
2.5649
2.54628
2.52859
2.50888
2.48993
2.46903
2.4492
2.42754
2.40717
2.38505
2.36423
2.34186
2.32076
2.29832
2.27717
2.25477
2.23377
2.21154
2.19083
2.16885
2.14843
2.12671
2.10654
2.08513
2.0652
2.04417
2.02447
2.00388
1.98448
1.96436
1.94538
1.92587
1.90799
1.89046
3.95935
3.76504
3.5833
3.41171
3.24499
3.07977
2.9256
2.77601
2.63424
2.50322
2.37704
2.26395
2.15502
2.05792
1.96557
1.88263
1.80556
1.735
1.67204
1.61368
1.56542
1.52461
1.52327
1.5284
1.55115
1.60405
1.7297
2.04107
2.314
2.46237
2.60366
2.80552
3.13611
3.56366
3.74311
3.73732
3.68333
3.56794
3.42209
3.271
3.14962
3.04648
2.95694
2.87894
2.81088
2.75053
2.69745
2.6533
2.61657
2.59169
2.56971
2.55608
2.54865
2.55266
2.55725
2.56666
2.58255
2.59897
2.61093
2.62004
2.62171
2.62189
2.62051
2.61319
2.60029
2.58299
2.56659
2.54812
2.53079
2.5116
2.49326
2.47316
2.45378
2.43283
2.41268
2.39104
2.3704
2.34824
2.32731
2.30491
2.28392
2.2616
2.24077
2.21869
2.19813
2.17628
2.15599
2.13433
2.11423
2.09282
2.07287
2.05187
2.03214
2.01165
1.99226
1.97227
1.95334
1.93385
1.91604
1.8982
4.03131
3.82438
3.64679
3.47298
3.31261
3.15252
2.99879
2.85396
2.71462
2.58352
2.46104
2.34457
2.23878
2.13726
2.04673
1.95955
1.88228
1.809
1.74367
1.68679
1.63418
1.62168
1.62331
1.63982
1.6881
1.79377
2.07472
2.35384
2.49986
2.55599
2.619
2.6921
2.81418
3.04138
3.39768
3.6361
3.6593
3.64714
3.58282
3.43747
3.30079
3.17536
3.0664
2.97446
2.89265
2.8232
2.75919
2.70576
2.65828
2.62057
2.59042
2.56696
2.54809
2.53582
2.53671
2.53969
2.54565
2.55709
2.5714
2.58527
2.595
2.59952
2.60046
2.59899
2.59481
2.58227
2.56735
2.54889
2.53156
2.5123
2.49452
2.47476
2.45615
2.43559
2.41602
2.39481
2.3745
2.35293
2.3322
2.31048
2.28964
2.26784
2.24718
2.22536
2.205
2.18323
2.16311
2.14151
2.12153
2.10021
2.08035
2.05937
2.03971
2.01914
1.99979
1.97967
1.9608
1.94122
1.92352
1.90552
4.13268
3.9044
3.71064
3.5402
3.37708
3.22411
3.07317
2.92887
2.79258
2.66281
2.54009
2.42556
2.31716
2.21743
2.12277
2.03743
1.9559
1.88374
1.81717
1.75986
1.72932
1.72931
1.74224
1.78745
1.88467
2.1381
2.43888
2.58963
2.63671
2.64608
2.65288
2.66645
2.70387
2.78
2.95507
3.23234
3.50461
3.6114
3.60895
3.56233
3.45768
3.33245
3.20081
3.08909
2.99157
2.90635
2.83231
2.76716
2.71128
2.66193
2.62116
2.5873
2.56154
2.53847
2.52394
2.51742
2.52053
2.52381
2.53066
2.54306
2.55739
2.56738
2.57465
2.57538
2.5748
2.57129
2.56362
2.54771
2.53098
2.51194
2.49409
2.47466
2.45643
2.43645
2.41759
2.39696
2.37743
2.35621
2.33616
2.31459
2.29428
2.27258
2.25224
2.23062
2.21041
2.189
2.16894
2.14775
2.12778
2.10676
2.08684
2.06604
2.04628
2.02582
2.0064
1.98633
1.96747
1.94786
1.93024
1.91204
4.18819
3.98542
3.78317
3.60538
3.44552
3.29126
3.14594
3.00418
2.86795
2.74003
2.6185
2.5031
2.39593
2.29407
2.20045
2.11144
2.03195
1.95769
1.89413
1.84917
1.84709
1.85611
1.89424
1.98442
2.21318
2.54295
2.71238
2.7442
2.74768
2.73879
2.68956
2.672
2.67871
2.70354
2.76137
2.88216
3.09653
3.36622
3.53555
3.53957
3.52667
3.47491
3.34986
3.23118
3.11319
3.01046
2.92034
2.84146
2.77451
2.71452
2.66333
2.61922
2.58321
2.5544
2.52904
2.51
2.49905
2.49853
2.5003
2.50482
2.51367
2.52513
2.53783
2.54517
2.54788
2.5476
2.54557
2.53943
2.52699
2.50982
2.49239
2.47312
2.45494
2.43534
2.41691
2.397
2.3781
2.3576
2.33806
2.31702
2.2971
2.2758
2.25584
2.23449
2.21464
2.19331
2.17352
2.1523
2.1325
2.11153
2.09172
2.07116
2.05149
2.03135
2.01204
1.99228
1.97357
1.9542
1.93678
1.91866
4.20144
4.08854
3.87097
3.68133
3.51399
3.36235
3.21522
3.07803
2.94346
2.81568
2.69439
2.58051
2.47187
2.37092
2.27588
2.18797
2.10662
2.03786
1.97892
1.97497
1.98084
2.01391
2.10639
2.31892
2.67062
2.85677
2.8822
2.88579
2.8682
2.80273
2.73965
2.69014
2.68352
2.68703
2.70455
2.74607
2.82874
2.97901
3.20292
3.39499
3.47728
3.47605
3.44242
3.36289
3.251
3.13698
3.02821
2.93514
2.85208
2.77999
2.71758
2.66365
2.6166
2.57733
2.54535
2.51726
2.49422
2.47985
2.47318
2.47493
2.47742
2.48281
2.49354
2.50461
2.51375
2.51879
2.51877
2.51734
2.51324
2.50282
2.48806
2.46972
2.45187
2.43255
2.41446
2.39506
2.37673
2.35695
2.33807
2.3177
2.29831
2.2775
2.25791
2.23692
2.21728
2.1963
2.17667
2.15588
2.13628
2.11579
2.09629
2.07603
2.05677
2.03668
2.0178
1.99799
1.97968
1.96041
1.94336
1.9256
4.19733
4.13021
3.96935
3.766
3.59037
3.43329
3.28863
3.14906
3.0182
2.89109
2.77034
2.65558
2.54829
2.44603
2.35238
2.26414
2.18906
2.11966
2.11261
2.11475
2.14232
2.23214
2.42379
2.81091
3.01633
3.03846
3.04136
3.01644
2.93885
2.86118
2.79858
2.74798
2.71158
2.69613
2.69822
2.70494
2.72842
2.78036
2.87913
3.044
3.23586
3.37483
3.40015
3.39425
3.35477
3.26073
3.15642
3.05034
2.94966
2.8628
2.7864
2.71997
2.66242
2.61208
2.56928
2.53383
2.50336
2.4777
2.45954
2.44883
2.44798
2.44909
2.4527
2.46011
2.46991
2.48059
2.487
2.48755
2.48693
2.48429
2.47804
2.46323
2.4474
2.42876
2.41099
2.39169
2.37363
2.35426
2.33594
2.31629
2.29757
2.27754
2.25846
2.23812
2.21886
2.1984
2.1791
2.15866
2.13941
2.11909
2.09998
2.07986
2.061
2.04119
2.02272
2.00335
1.98549
1.96676
1.95018
1.93327
4.1719
4.13993
4.05196
3.85319
3.66888
3.50785
3.36026
3.22291
3.09017
2.96593
2.84534
2.73186
2.62327
2.52276
2.42863
2.34731
2.27309
2.25596
2.25686
2.28318
2.37032
2.56272
2.97109
3.18957
3.20981
3.20988
3.18055
3.08853
3.00237
2.93048
2.87045
2.81907
2.77339
2.73552
2.71251
2.70021
2.70073
2.70935
2.73701
2.79756
2.90579
3.06742
3.2215
3.32062
3.32113
3.30552
3.26231
3.16634
3.06576
2.96575
2.87371
2.79242
2.72132
2.65978
2.60614
2.56013
2.52098
2.48919
2.46066
2.43904
2.42567
2.41934
2.41991
2.42189
2.42598
2.43509
2.44405
2.4523
2.45504
2.45484
2.45306
2.44814
2.43816
2.42236
2.40581
2.38695
2.36923
2.35021
2.33234
2.3133
2.29512
2.27579
2.25727
2.23755
2.21884
2.19885
2.1801
2.16008
2.14139
2.12148
2.10288
2.08318
2.06482
2.04544
2.02754
2.00868
1.99153
1.9737
1.95791
1.94293
4.1152
4.11478
4.0724
3.96022
3.76281
3.58858
3.43617
3.29601
3.16482
3.03919
2.92045
2.80721
2.70063
2.60035
2.51271
2.43347
2.40961
2.40905
2.43446
2.5214
2.7207
3.15398
3.38189
3.39388
3.39105
3.35425
3.2518
3.15716
3.07656
3.01124
2.95065
2.89685
2.84475
2.79653
2.75438
2.71962
2.703
2.68642
2.68741
2.6983
2.72914
2.79532
2.90682
3.05276
3.17779
3.24206
3.24137
3.22103
3.17033
3.07504
2.9786
2.88448
2.79831
2.72313
2.65673
2.60006
2.55036
2.50848
2.47389
2.44374
2.41929
2.40172
2.39155
2.38888
2.3896
2.39219
2.39698
2.4069
2.41509
2.42126
2.42131
2.42042
2.41755
2.41066
2.3974
2.38068
2.36389
2.34544
2.3279
2.30928
2.29165
2.27285
2.25502
2.23586
2.21779
2.19836
2.18012
2.16065
2.14239
2.12306
2.10497
2.08582
2.06815
2.0493
2.03237
2.01432
1.99851
1.98231
1.96815
1.95682
3.88569
4.0856
4.06911
4.00796
3.85987
3.6754
3.51457
3.37137
3.2391
3.11436
2.99559
2.88367
2.77882
2.6856
2.6012
2.57276
2.5709
2.59624
2.68642
2.89972
3.35235
3.58823
3.59646
3.58546
3.53659
3.42742
3.32293
3.23644
3.16317
3.09725
3.03629
2.97628
2.9203
2.86426
2.81313
2.76484
2.72384
2.6973
2.674
2.65969
2.66153
2.67419
2.70641
2.77437
2.88626
3.01214
3.11742
3.15808
3.156
3.13345
3.07962
2.98793
2.89453
2.80551
2.72527
2.65435
2.59399