/*--------------------------------*- C++ -*----------------------------------*\
  =========                 |
  \\      /  F ield         | OpenFOAM: The Open Source CFD Toolbox
   \\    /   O peration     | Website:  https://openfoam.org
    \\  /    A nd           | Version:  9
     \\/     M anipulation  |
\*---------------------------------------------------------------------------*/
FoamFile
{
    format      ascii;
    class       volScalarField;
    location    "3.5";
    object      T;
}
// * * * * * * * * * * * * * * * * * * * * * * * * * * * * * * * * * * * * * //

dimensions      [0 0 0 1 0 0 0];

internalField   nonuniform List<scalar> 
5250
(
1
1.00002
1.00004
1.0001
1.00026
1.00063
1.00154
1.00392
1.00931
1.02437
1.05975
1.15978
1.4276
2.07944
2.64578
2.76292
2.7435
2.73666
2.74855
2.76435
2.77659
2.7849
2.79129
2.8011
2.80466
1
1.00002
1.00004
1.00011
1.00024
1.00065
1.00149
1.00385
1.00933
1.02353
1.05936
1.15657
1.42013
2.06544
2.64066
2.76261
2.74267
2.73549
2.74741
2.76318
2.77538
2.78368
2.7901
2.79988
2.80336
1
1.00001
1.00004
1.0001
1.00024
1.00061
1.00145
1.00378
1.00873
1.02336
1.05625
1.15156
1.40398
2.03262
2.62883
2.76103
2.74004
2.73208
2.74397
2.75978
2.77203
2.78057
2.78653
2.79652
2.80026
1
1.00001
1.00004
1.00009
1.00023
1.00055
1.00146
1.0033
1.00901
1.02059
1.0554
1.14029
1.38204
1.98081
2.60957
2.75789
2.73547
2.72617
2.73802
2.75384
2.76571
2.77475
2.78066
2.79071
2.79441
1
1.00001
1.00003
1.00009
1.0002
1.00056
1.00121
1.00347
1.00742
1.02095
1.04847
1.13262
1.34905
1.91336
2.58222
2.7518
2.72801
2.71743
2.7301
2.74512
2.75834
2.76616
2.77295
2.78181
2.78596
1
1.00001
1.00003
1.00008
1.0002
1.00048
1.00122
1.00286
1.00756
1.01754
1.04658
1.11705
1.3167
1.82774
2.54508
2.74031
2.71606
2.70449
2.7159
2.73465
2.74582
2.75568
2.76099
2.77119
2.77451
1
1.00001
1.00003
1.00007
1.00018
1.00045
1.00106
1.0028
1.00633
1.01721
1.0402
1.10805
1.28336
1.751
2.5036
2.72775
2.70346
2.69136
2.70253
2.71788
2.7324
2.73947
2.74584
2.75332
2.75714
1
1.00001
1.00003
1.00006
1.00018
1.00037
1.00109
1.00223
1.00658
1.01405
1.03915
1.0951
1.25958
1.68505
2.45268
2.71063
2.6923
2.68186
2.6898
2.70201
2.71318
2.72097
2.72383
2.731
2.72965
1
1.00001
1.00002
1.00006
1.00015
1.00037
1.00091
1.00217
1.00567
1.01319
1.03492
1.08646
1.23318
1.62062
2.38115
2.68301
2.68296
2.67524
2.67634
2.68545
2.69288
2.69649
2.6966
2.69507
2.68418
1
1.00001
1.00002
1.00006
1.00012
1.00035
1.00075
1.00216
1.00451
1.01304
1.02906
1.07983
1.20438
1.55447
2.28708
2.64612
2.6752
2.66717
2.6627
2.66718
2.6699
2.66886
2.66075
2.64079
2.58473
1
1.00001
1.00002
1.00005
1.00011
1.0003
1.00069
1.00177
1.00434
1.01062
1.02691
1.06787
1.17946
1.48161
2.16979
2.59748
2.66605
2.6569
2.64832
2.64762
2.64556
2.63695
2.61502
2.56549
2.45527
1
1.00001
1.00002
1.00004
1.00011
1.00023
1.00065
1.00139
1.00399
1.00856
1.02389
1.05624
1.15295
1.40437
2.02433
2.5339
2.65223
2.64317
2.63187
2.62689
2.61987
2.60308
2.5672
2.49537
2.36724
1
1
1.00001
1.00003
1.00009
1.0002
1.00053
1.00117
1.00328
1.00709
1.01979
1.04584
1.12443
1.32589
1.84949
2.45266
2.6273
2.6204
2.61129
2.60291
2.59192
2.5689
2.52651
2.44715
2.3305
1
1
1.00001
1.00003
1.00007
1.00016
1.00043
1.00095
1.00264
1.00568
1.01598
1.03617
1.09819
1.25242
1.66703
2.35333
2.58972
2.59152
2.58421
2.57504
2.56205
2.53534
2.49327
2.41943
2.31511
1
1
1.00001
1.00002
1.00006
1.00012
1.00037
1.00074
1.00221
1.00458
1.01299
1.02949
1.07956
1.20338
1.54591
2.23749
2.5453
2.56778
2.55888
2.54681
2.53317
2.50563
2.46409
2.3994
2.30844
1
1
1.00001
1.00002
1.00004
1.00012
1.00025
1.00071
1.0015
1.00434
1.00923
1.02579
1.06073
1.16487
1.43341
2.06564
2.47261
2.54751
2.53997
2.52504
2.50655
2.47928
2.43963
2.38234
2.30394
1
1
1.00001
1.00001
1.00004
1.00008
1.00021
1.00052
1.00125
1.00324
1.00743
1.01991
1.04708
1.12612
1.33083
1.85362
2.3752
2.51898
2.5183
2.50475
2.48328
2.45545
2.41771
2.36671
2.29916
1
1
1
1.00001
1.00003
1.00007
1.00016
1.00039
1.00098
1.0023
1.00599
1.0138
1.0364
1.08919
1.23696
1.61676
2.24716
2.4722
2.4882
2.47843
2.45852
2.43164
2.39687
2.35127
2.29291
1
1
1
1.00001
1.00002
1.00005
1.00011
1.00033
1.00067
1.00192
1.00416
1.01129
1.02622
1.06915
1.17617
1.46995
2.09392
2.41546
2.462
2.45365
2.43549
2.40894
2.37654
2.33587
2.28499
1
1
1
1.00001
1.00002
1.00004
1.00009
1.00023
1.00052
1.00144
1.00305
1.0087
1.01897
1.05215
1.12826
1.34687
1.87284
2.31654
2.43024
2.4298
2.41477
2.38935
2.35809
2.32069
2.276
1
1
1
1
1.00001
1.00003
1.00006
1.00018
1.00036
1.00106
1.00214
1.00623
1.01331
1.03647
1.08724
1.23291
1.60074
2.17847
2.38046
2.39939
2.38977
2.36782
2.33843
2.30514
2.26533
1
1
1
1
1.00001
1.00002
1.00005
1.00012
1.00028
1.00071
1.00166
1.00432
1.0098
1.02621
1.06215
1.16595
1.43047
2.01064
2.31853
2.37126
2.36454
2.34597
2.31926
2.28906
2.25399
1
1
1
1
1.00001
1.00001
1.00004
1.00008
1.00022
1.00046
1.00132
1.00268
1.00787
1.01676
1.04636
1.1122
1.30199
1.76427
2.20907
2.33233
2.33774
2.32596
2.30237
2.27356
2.24144
1
1
1
1
1
1.00001
1.00002
1.00006
1.00014
1.00035
1.00078
1.00214
1.0046
1.01279
1.0285
1.07656
1.191
1.50382
2.04795
2.27145
2.30663
2.30131
2.28379
2.25688
2.22786
1
1
1
1
1
1.00001
1.00002
1.00004
1.00009
1.00025
1.00052
1.00151
1.00308
1.00882
1.01927
1.05203
1.12738
1.3394
1.82705
2.17966
2.27134
2.27604
2.26572
2.24367
2.21354
1
1
1
1
1
1
1.00001
1.00003
1.00006
1.00015
1.00037
1.00094
1.0021
1.00566
1.0124
1.03366
1.07899
1.20919
1.53622
2.03419
2.22011
2.24706
2.24282
2.22542
2.20155
1
1
1
1
1
1
1.00001
1.00002
1.00004
1.00011
1.00023
1.00066
1.00135
1.00381
1.00828
1.02216
1.0521
1.1374
1.35158
1.84136
2.14501
2.21611
2.2196
2.20923
2.18819
1
1
1
1
1
1
1
1.00001
1.00003
1.00007
1.00016
1.00038
1.00099
1.00218
1.00593
1.01295
1.03497
1.08258
1.2178
1.5562
2.00832
2.16972
2.19293
2.18861
2.17208
1
1
1
1
1
1
1
1.00001
1.00002
1.00004
1.00011
1.00025
1.00064
1.0014
1.00382
1.00823
1.02253
1.05146
1.13715
1.34821
1.81432
2.09278
2.16025
2.16551
2.15675
1
1
1
1
1
1
1
1
1.00001
1.00003
1.00006
1.00017
1.00035
1.00099
1.00211
1.00568
1.0128
1.03316
1.07995
1.20776
1.52766
1.95515
2.11299
2.13889
2.13679
1
1
1
1
1
1
1
1
1.00001
1.00002
1.00004
1.00011
1.00022
1.00063
1.00128
1.00368
1.00765
1.02109
1.0481
1.12737
1.32137
1.75564
2.03173
2.10581
2.11415
1
1
1
1
1
1
1
1
1
1.00001
1.00003
1.00006
1.00015
1.00034
1.00086
1.00203
1.00488
1.01207
1.02869
1.07246
1.18125
1.46423
1.88415
2.05538
2.08662
1
1
1
1
1
1
1
1
1
1.00001
1.00002
1.00004
1.00009
1.0002
1.00056
1.00114
1.00328
1.00673
1.01878
1.04196
1.11155
1.27812
1.67341
1.97037
2.05563
1
1
1
1
1
1
1
1
1
1
1.00001
1.00002
1.00005
1.00013
1.00031
1.00073
1.00183
1.00411
1.01083
1.02424
1.06375
1.15446
1.40141
1.80768
1.99639
1
1
1
1
1
1
1
1
1
1
1.00001
1.00001
1.00003
1.00008
1.00017
1.00047
1.00096
1.00277
1.00563
1.01577
1.03472
1.09221
1.2265
1.56424
1.88871
1
1
1
1
1
1
1
1
1
1
1
1.00001
1.00002
1.00004
1.00011
1.00024
1.00066
1.00135
1.00384
1.00792
1.02178
1.04913
1.12839
1.32268
1.70432
1
1
1
1
1
1
1
1
1
1
1
1
1.00001
1.00003
1.00006
1.00016
1.00032
1.00089
1.00187
1.00497
1.01107
1.0283
1.06684
1.17067
1.42263
1
1
1
1
1
1
1
1
1
1
1
1
1.00001
1.00001
1.00004
1.00008
1.00021
1.00047
1.00115
1.00274
1.00647
1.01616
1.03787
1.09639
1.2404
1
1
1
1
1
1
1
1
1
1
1
1
1
1.00001
1.00002
1.00005
1.0001
1.00028
1.00061
1.00158
1.00357
1.00885
1.02105
1.05175
1.12747
1
1
1
1
1
1
1
1
1
1
1
1
1
1
1.00001
1.00002
1.00007
1.00014
1.00037
1.0008
1.00203
1.00472
1.01131
1.02745
1.06643
1
1
1
1
1
1
1
1
1
1
1
1
1
1
1.00001
1.00002
1.00003
1.00008
1.00019
1.00046
1.00113
1.00252
1.00659
1.01433
1.0381
1
1
1
1
1
1
1
1
1
1
1
1
1
1
1
1.00001
1.00002
1.00005
1.0001
1.00027
1.00055
1.00152
1.00318
1.00849
1.01875
1
1
1
1
1
1
1
1
1
1
1
1
1
1
1
1
1.00001
1.00002
1.00006
1.00013
1.00033
1.00074
1.0018
1.00429
1.00998
1
1
1
1
1
1
1
1
1
1
1
1
1
1
1
1
1.00001
1.00001
1.00003
1.00007
1.00018
1.00037
1.00105
1.00212
1.00578
1
1
1
1
1
1
1
1
1
1
1
1
1
1
1
1
1
1.00001
1.00002
1.00004
1.00009
1.00024
1.00049
1.00136
1.00281
1
1
1
1
1
1
1
1
1
1
1
1
1
1
1
1
1
1
1.00001
1.00002
1.00006
1.00013
1.00034
1.00075
1.00188
1
1
1
1
1
1
1
1
1
1
1
1
1
1
1
1
1
1
1.00001
1.00002
1.00004
1.00009
1.00026
1.00053
1.00156
1
1
1
1
1
1
1
1
1
1
1
1
1
1
1
1
1
1
1.00001
1.00001
1.00004
1.00008
1.00023
1.00049
1.00139
1
1
1
1
1
1
1
1
1
1
1
1
1
1
1
1
1
1
1.00001
1.00001
1.00004
1.00008
1.00022
1.00048
1.0013
1
1
1
1
1
1
1
1
1
1
1
1
1
1
1
1
1
1
1.00001
1.00001
1.00004
1.00008
1.00022
1.00047
1.00129
2.23836
2.07266
2.02095
2.05142
2.1093
2.18083
2.24644
2.27872
2.28385
2.28181
2.27897
2.27759
2.27881
2.28131
2.2854
2.28997
2.29613
2.30727
2.33069
2.38034
2.48259
2.65429
2.83644
2.9079
2.92077
2.96294
3.02499
3.02791
2.98991
2.96447
2.95348
2.94421
2.94029
2.93958
2.94346
2.9564
2.9676
2.98315
2.99744
3.00797
3.01371
3.0168
3.01708
3.01773
3.01308
3.01005
3.00296
2.99863
2.98935
2.98419
2.97291
2.96653
2.95369
2.94747
2.93487
2.92864
2.91608
2.90989
2.8974
2.8912
2.87866
2.87239
2.85972
2.85337
2.84055
2.8341
2.82111
2.8144
2.80161
2.79413
2.78163
2.77388
2.76136
2.75347
2.74108
2.733
2.72095
2.71268
2.70089
2.69245
2.68088
2.67225
2.66081
2.65202
2.64059
2.63166
2.62019
2.61113
2.59965
2.59046
2.57899
2.56988
2.55843
2.54959
2.53846
2.53008
2.51987
2.51301
2.50599
2.50314
2.23235
2.13508
2.08097
2.04408
2.00749
1.97901
1.97166
1.97538
1.9888
2.00728
2.02211
2.02743
2.02728
2.02696
2.02719
2.02851
2.03251
2.04297
2.06605
2.1141
2.2145
2.3964
2.68271
2.81919
2.85746
2.89715
2.96597
3.0152
3.04185
3.056
3.05484
3.04288
3.03021
3.02736
3.03065
3.03166
3.02769
3.01707
3.00327
2.98764
2.95191
2.93921
2.91257
2.90128
2.8795
2.86863
2.84899
2.83814
2.82095
2.81169
2.79542
2.78454
2.76823
2.75822
2.74275
2.73325
2.71793
2.70885
2.69385
2.68484
2.67045
2.66113
2.64738
2.63775
2.62437
2.61469
2.60146
2.59194
2.57884
2.56953
2.55655
2.54738
2.53457
2.52536
2.51283
2.50351
2.49129
2.48196
2.47004
2.4608
2.44909
2.44
2.42841
2.41945
2.40795
2.39908
2.38767
2.37889
2.36757
2.3589
2.34769
2.33916
2.32801
2.31965
2.30876
2.3009
2.29092
2.28455
2.27756
2.27528
2.23077
2.14336
2.06417
1.98895
1.91996
1.86594
1.84045
1.83819
1.84214
1.85365
1.86936
1.88194
1.88927
1.89228
1.8931
1.89404
1.89641
1.90225
1.91609
1.94719
2.0143
2.1686
2.40611
2.57854
2.69223
2.76417
2.78831
2.82187
2.88931
2.94712
2.9968
3.02721
3.03699
3.04452
3.03915
3.02324
2.99135
2.95967
2.92764
2.89862
2.87414
2.85623
2.83445
2.82055
2.80117
2.78932
2.77136
2.75991
2.74279
2.73237
2.71693
2.70518
2.68918
2.67751
2.66294
2.65189
2.63757
2.62682
2.61287
2.60237
2.58888
2.57828
2.56513
2.55432
2.54134
2.53048
2.51746
2.50683
2.49372
2.48346
2.47051
2.46052
2.44791
2.43796
2.42567
2.41561
2.40354
2.39341
2.38154
2.3715
2.35981
2.35002
2.33845
2.32893
2.31749
2.30809
2.29681
2.28739
2.27625
2.2668
2.2558
2.24644
2.2357
2.22659
2.21622
2.20764
2.19808
2.19092
2.18409
2.18094
2.22082
2.13573
2.05498
1.98116
1.91628
1.86281
1.8219
1.79235
1.77669
1.77275
1.77423
1.78009
1.78947
1.79833
1.80408
1.80699
1.80867
1.81192
1.81965
1.83816
1.88067
1.98762
2.14244
2.39
2.55078
2.58618
2.6094
2.67379
2.73282
2.75998
2.80631
2.85599
2.89018
2.90362
2.89738
2.87497
2.83775
2.80533
2.77413
2.75415
2.73397
2.72076
2.70434
2.69203
2.67656
2.66523
2.65116
2.64036
2.62647
2.61628
2.60294
2.5936
2.57919
2.56921
2.55504
2.54532
2.5316
2.52196
2.50859
2.49938
2.48632
2.47754
2.46451
2.45576
2.44271
2.43378
2.42103
2.41192
2.39948
2.39018
2.3778
2.36836
2.35605
2.34663
2.33459
2.32522
2.31358
2.30413
2.29283
2.28325
2.27219
2.26268
2.25179
2.24251
2.23174
2.22261
2.21186
2.20272
2.19205
2.18282
2.17224
2.16298
2.15259
2.14345
2.13343
2.12472
2.11545
2.10797
2.10116
2.09757
2.21687
2.13369
2.05748
1.9872
1.92384
1.86722
1.81808
1.77714
1.74572
1.72557
1.71789
1.71789
1.71979
1.72515
1.73253
1.73898
1.74401
1.74817
1.75419
1.76655
1.79291
1.84978
1.97892
2.18422
2.35466
2.43417
2.50189
2.54381
2.56647
2.61658
2.66635
2.70536
2.74039
2.75471
2.74892
2.7265
2.69635
2.66646
2.64548
2.63024
2.61793
2.61082
2.60096
2.59477
2.5831
2.57649
2.5652
2.55878
2.54698
2.53949
2.52705
2.51858
2.50571
2.49715
2.48545
2.4777
2.46585
2.45688
2.44421
2.43473
2.42276
2.41398
2.40279
2.394
2.3823
2.37271
2.36033
2.35051
2.33834
2.32892
2.31727
2.30789
2.29635
2.28655
2.27492
2.26496
2.25352
2.24388
2.23279
2.22352
2.21263
2.20338
2.19247
2.18297
2.17211
2.16243
2.15186
2.14223
2.13195
2.12262
2.11252
2.10356
2.09356
2.08486
2.07501
2.06651
2.0572
2.04942
2.04242
2.03819
2.21932
2.13867
2.06482
1.99716
1.9354
1.87963
1.8301
1.78682
1.75066
1.72131
1.69912
1.68499
1.67944
1.67938
1.68083
1.68495
1.69135
1.69785
1.7044
1.71248
1.7286
1.76291
1.8406
1.97407
2.21867
2.33134
2.36407
2.41354
2.46491
2.50905
2.54243
2.59407
2.64129
2.65192
2.64375
2.61992
2.58589
2.55377
2.52943
2.51107
2.50341
2.50129
2.49917
2.49626
2.49026
2.48516
2.4771
2.47142
2.46257
2.45829
2.45029
2.44458
2.43426
2.42569
2.41429
2.40632
2.3966
2.38964
2.37934
2.37077
2.35871
2.34935
2.33781
2.32954
2.31928
2.31126
2.30062
2.2914
2.27974
2.26986
2.25827
2.24895
2.23806
2.22926
2.21842
2.20936
2.19802
2.1885
2.17699
2.16745
2.15623
2.14689
2.13613
2.12686
2.11633
2.10697
2.09648
2.08713
2.07667
2.06749
2.05714
2.04812
2.03805
2.02915
2.01955
2.01094
2.00205
1.9944
1.98758
1.9837
2.22315
2.14786
2.07666
2.01118
1.9507
1.89574
1.84565
1.80097
1.76122
1.72692
1.69833
1.67517
1.65883
1.64937
1.64642
1.64668
1.64832
1.65242
1.65788
1.6651
1.67613
1.6982
1.74326
1.85143
2.00003
2.1906
2.29102
2.33252
2.35844
2.40727
2.46833
2.52772
2.57143
2.57925
2.56864
2.54259
2.50527
2.46681
2.44137
2.42343
2.41238
2.41084
2.41468
2.41743
2.41808
2.41684
2.41366
2.41116
2.40629
2.40335
2.39746
2.39299
2.38417
2.37703
2.36667
2.35893
2.34903
2.3418
2.33226
2.32462
2.31415
2.30518
2.29363
2.28407
2.27268
2.26371
2.2531
2.2445
2.23379
2.22454
2.21308
2.20314
2.1916
2.18187
2.1711
2.16195
2.15176
2.14267
2.13226
2.12284
2.11205
2.10259
2.09178
2.08262
2.07215
2.0633
2.05319
2.04436
2.03447
2.02555
2.01579
2.007
1.99744
1.98904
1.97977
1.97186
1.96311
1.95599
1.94911
1.94546
2.22599
2.1568
2.09003
2.0268
1.96838
1.91407
1.86469
1.8192
1.77875
1.742
1.71042
1.68301
1.66097
1.64319
1.6312
1.62419
1.62228
1.62273
1.62464
1.62901
1.63689
1.65044
1.67772
1.73367
1.85717
2.04015
2.16749
2.24852
2.3049
2.35099
2.41773
2.48659
2.53524
2.53711
2.52352
2.49106
2.44727
2.40495
2.37473
2.35709
2.34655
2.34228
2.3442
2.35027
2.35628
2.35747
2.35829
2.35716
2.35426
2.35163
2.34632
2.34292
2.33583
2.32933
2.31963
2.31181
2.30176
2.2943
2.2847
2.27731
2.26718
2.25889
2.24792
2.2389
2.22767
2.21861
2.20771
2.199
2.18852
2.17994
2.16947
2.16054
2.14972
2.14032
2.12939
2.1199
2.10931
2.10012
2.09012
2.08127
2.07152
2.06269
2.0528
2.04383
2.03379
2.02492
2.01507
2.0066
1.99722
1.98916
1.98018
1.97228
1.96336
1.95547
1.94642
1.93871
1.92983
1.92294
1.91582
1.91253
2.22613
2.16397
2.10168
2.04219
1.98572
1.93324
1.88448
1.83952
1.79844
1.76095
1.7274
1.6973
1.67133
1.64883
1.63099
1.61665
1.60762
1.6028
1.60232
1.60328
1.60635
1.61347
1.62907
1.66208
1.73263
1.86641
2.07111
2.17112
2.23839
2.31193
2.40647
2.48709
2.51885
2.51702
2.49794
2.45732
2.40829
2.36437
2.33299
2.3115
2.30115
2.29682
2.29403
2.296
2.30098
2.30661
2.30817
2.31138
2.31043
2.30837
2.30388
2.30054
2.2938
2.28783
2.27844
2.27045
2.26006
2.25188
2.24176
2.23402
2.22407
2.21609
2.20564
2.19698
2.18605
2.177
2.16601
2.15698
2.14625
2.13758
2.12731
2.11905
2.10911
2.10085
2.09078
2.08199
2.07161
2.06243
2.05203
2.04293
2.03292
2.02435
2.0149
2.00687
1.99777
1.98998
1.98092
1.97313
1.96407
1.95632
1.94751
1.93997
1.93165
1.92435
1.91652
1.90939
1.90197
1.89523
1.88907
1.88545
2.22421
2.16832
2.11164
2.0554
2.00229
1.95111
1.90419
1.85953
1.81913
1.78098
1.74694
1.71523
1.68738
1.66226
1.6406
1.62261
1.60761
1.59692
1.58929
1.58724
1.58787
1.59069
1.5982
1.61594
1.65522
1.74819
1.88492
2.09237
2.2076
2.30482
2.42605
2.50652
2.52003
2.51178
2.48339
2.43597
2.38628
2.34495
2.3134
2.28985
2.276
2.26596
2.26252
2.25749
2.25491
2.2571
2.26066
2.26478
2.26526
2.26344
2.25907
2.25474
2.24796
2.24275
2.23414
2.2267
2.21667
2.20849
2.19815
2.19005
2.18011
2.17245
2.16287
2.15521
2.14552
2.13749
2.12753
2.11914
2.109
2.10044
2.09033
2.08186
2.07206
2.06383
2.05444
2.04653
2.03745
2.02958
2.02045
2.01241
2.00314
1.99502
1.98579
1.97781
1.96884
1.96116
1.95251
1.94513
1.93672
1.92954
1.92126
1.91419
1.90598
1.89897
1.89082
1.88391
1.87602
1.86958
1.86307
1.85976
2.21999
2.16993
2.11846
2.06671
2.01638
1.9682
1.92225
1.87943
1.83894
1.80181
1.76679
1.73524
1.70553
1.67948
1.65503
1.63454
1.61565
1.6009
1.58849
1.57961
1.57585
1.57625
1.57928
1.58806
1.60938
1.65793
1.77527
1.93773
2.14719
2.33434
2.47684
2.53815
2.5372
2.52184
2.48302
2.43194
2.3852
2.34538
2.31239
2.28688
2.26457
2.24822
2.23555
2.22635
2.21849
2.2113
2.21063
2.21183
2.21353
2.21278
2.20989
2.20657
2.20011
2.196
2.18927
2.18357
2.1748
2.16758
2.15802
2.15051
2.14121
2.13421
2.12541
2.11849
2.10971
2.10254
2.09372
2.08629
2.07731
2.06958
2.06039
2.05243
2.04313
2.03516
2.02606
2.01825
2.0094
2.00179
1.99318
1.98574
1.97729
1.96993
1.96154
1.95418
1.9458
1.93845
1.93008
1.92281
1.91451
1.90738
1.89921
1.89223
1.88426
1.87746
1.86974
1.86313
1.85576
1.84965
1.84348
1.84042
2.21333
2.16899
2.12211
2.07482
2.02796
1.98242
1.93878
1.89708
1.85788
1.82081
1.7864
1.75404
1.72442
1.69659
1.67179
1.64841
1.62846
1.60994
1.59488
1.58221
1.57246
1.5687
1.56941
1.57334
1.58515
1.61404
1.68003
1.81226
2.06889
2.35748
2.54591
2.57665
2.56912
2.54318
2.49767
2.44773
2.39932
2.35679
2.31969
2.28699
2.25664
2.22923
2.20708
2.19064
2.17856
2.16838
2.16054
2.15575
2.15565
2.15625
2.15741
2.15626
2.15352
2.15087
2.14604
2.14266
2.13606
2.13064
2.12265
2.11632
2.10804
2.10174
2.09364
2.08735
2.07915
2.07259
2.06431
2.05746
2.04911
2.04192
2.03345
2.02608
2.01767
2.01038
2.00206
1.99477
1.98639
1.97899
1.97051
1.96303
1.95455
1.94712
1.93878
1.93155
1.9234
1.91643
1.90847
1.90167
1.89383
1.88711
1.87936
1.87269
1.86505
1.85847
1.85101
1.8446
1.83743
1.83149
1.82543
1.82247
2.2055
2.1657
2.12398
2.08022
2.03714
1.99431
1.95311
1.91312
1.87542
1.83898
1.80532
1.77271
1.74331
1.71454
1.68937
1.66447
1.64343
1.62259
1.60585
1.5894
1.57763
1.56765
1.56605
1.5684
1.57663
1.59819
1.64901
1.76124
2.03228
2.32769
2.59359
2.63265
2.61864
2.58135
2.51818
2.45412
2.39547
2.34894
2.30821
2.27056
2.23195
2.19673
2.1678
2.14796
2.13363
2.12232
2.11432
2.10676
2.10374
2.10412
2.10686
2.10903
2.11093
2.10988
2.1073
2.10511
2.10057
2.09698
2.09031
2.08474
2.07705
2.07104
2.06349
2.05754
2.05004
2.04397
2.0363
2.03001
2.02213
2.01553
2.0075
2.00069
1.9927
1.98574
1.97777
1.97074
1.96281
1.95582
1.94796
1.94105
1.93323
1.92637
1.91851
1.91173
1.90384
1.89717
1.88931
1.88275
1.87494
1.86846
1.86075
1.85433
1.84679
1.84043
1.83313
1.82688
1.81987
1.81402
1.80805
1.80507
2.19607
2.16073
2.12313
2.08408
2.04345
2.00385
1.96459
1.92665
1.8901
1.85528
1.82186
1.79047
1.76052
1.7324
1.7063
1.68127
1.65912
1.63723
1.61904
1.60076
1.58699
1.57423
1.57037
1.57234
1.57937
1.59831
1.6435
1.74269
1.96897
2.21453
2.55432
2.60107
2.57796
2.52974
2.46236
2.40656
2.35179
2.30122
2.26283
2.2297
2.19846
2.16674
2.14114
2.1183
2.10205
2.08877
2.07878
2.07153
2.06681
2.06383
2.06297
2.0646
2.0665
2.06853
2.06841
2.06715
2.06449
2.06238
2.05798
2.05383
2.04706
2.04179
2.03482
2.02949
2.02265
2.01722
2.01031
2.00467
1.99755
1.9916
1.98426
1.97803
1.97044
1.96391
1.95619
1.94947
1.94178
1.93502
1.9274
1.92069
1.91304
1.90638
1.89864
1.89206
1.88429
1.87783
1.87013
1.86379
1.85621
1.84995
1.84252
1.83631
1.829
1.82284
1.81567
1.8096
1.80267
1.79699
1.79108
1.78819
2.18576
2.15445
2.12052
2.08474
2.04846
2.01043
1.97428
1.93786
1.90264
1.86935
1.8363
1.80614
1.7763
1.74865
1.72248
1.69726
1.6747
1.65223
1.63312
1.61396
1.59899
1.5856
1.58206
1.58472
1.59316
1.61502
1.66481
1.77116
1.93178
2.13051
2.34819
2.47663
2.48671
2.46549
2.43269
2.38314
2.32793
2.27729
2.24094
2.21081
2.18106
2.15133
2.12425
2.1016
2.08127
2.06529
2.0514
2.04122
2.03172
2.02686
2.02384
2.02356
2.02489
2.02809
2.0297
2.03156
2.03082
2.02969
2.02737
2.02513
2.02047
2.0161
2.00952
2.00432
1.99765
1.99242
1.9857
1.98016
1.97317
1.96734
1.96025
1.95418
1.94697
1.94073
1.93344
1.92716
1.91979
1.91353
1.90611
1.89984
1.89241
1.88615
1.87874
1.87252
1.86519
1.85902
1.85179
1.84567
1.83851
1.83243
1.82528
1.81923
1.81211
1.80609
1.79908
1.79313
1.78637
1.78078
1.775
1.77211
2.17318
2.14607
2.11543
2.08302
2.04953
2.01561
1.9798
1.94753
1.91236
1.88139
1.84913
1.81928
1.79084
1.76271
1.7377
1.71177
1.68985
1.6665
1.64751
1.62777
1.61273
1.60129
1.60115
1.60606
1.61997
1.65398
1.73313
1.84921
1.96875
2.05568
2.17193
2.32589
2.40408
2.41135
2.39443
2.36958
2.32621
2.27453
2.23447
2.20245
2.17028
2.141
2.11318
2.08949
2.06693
2.04821
2.03142
2.01873
2.00781
1.99949
1.99353
1.9903
1.98911
1.98934
1.99122
1.99415
1.99601
1.9967
1.99564
1.99437
1.99172
1.98902
1.98357
1.97874
1.97227
1.96709
1.96073
1.95538
1.94898
1.94359
1.93711
1.93159
1.92483
1.91907
1.91204
1.9061
1.899
1.89297
1.88589
1.87982
1.87277
1.86674
1.85969
1.85372
1.84667
1.84077
1.83374
1.82791
1.82096
1.81516
1.8083
1.8025
1.79575
1.78991
1.78327
1.77744
1.77096
1.7654
1.75978
1.75677
2.16253
2.13437
2.10823
2.0787
2.0477
2.01758
1.98431
1.95265
1.92158
1.8895
1.86098
1.83018
1.80364
1.77542
1.75075
1.72565
1.70268
1.68116
1.66011
1.643
1.62736
1.62296
1.62635
1.63652
1.66203
1.72335
1.82652
1.93536
1.99062
2.02706
2.06961
2.15059
2.25657
2.32369
2.34495
2.33591
2.31796
2.27807
2.23624
2.20062
2.16577
2.13512
2.10728
2.0814
2.05741
2.03615
2.01776
2.00136
1.98835
1.97657
1.96813
1.96055
1.95777
1.95549
1.95555
1.95671
1.95955
1.96114
1.96312
1.96259
1.96128
1.95989
1.95693
1.95353
1.94769
1.94284
1.93664
1.93164
1.92551
1.92042
1.91427
1.90894
1.90261
1.89701
1.89045
1.88472
1.87803
1.87233
1.86561
1.85997
1.85324
1.84757
1.8408
1.8351
1.82831
1.82264
1.81586
1.81028
1.80358
1.79807
1.79151
1.78595
1.77949
1.7738
1.76739
1.76166
1.75537
1.74995
1.74446
1.74158
2.14861
2.12501
2.0975
2.07319
2.0435
2.01578
1.98682
1.9563
1.92702
1.89779
1.86855
1.84153
1.81318
1.78838
1.76168
1.73904
1.7149
1.69436
1.67425
1.65751
1.64878
1.64968
1.65798
1.67873
1.72797
1.82585
1.93088
1.98708
2.00358
2.00919
2.02029
2.04844
2.10408
2.17242
2.24789
2.28907
2.28516
2.26849
2.24208
2.20709
2.16959
2.13562
2.10496
2.07633
2.0514
2.0274
2.00771
1.98848
1.97291
1.95844
1.94736
1.93758
1.93023
1.92577
1.92359
1.9228
1.92302
1.92457
1.92725
1.92881
1.92934
1.92857
1.9272
1.9256
1.92223
1.91839
1.91269
1.90805
1.90213
1.89743
1.89145
1.8866
1.8805
1.8754
1.86918
1.86382
1.85753
1.85198
1.84566
1.84001
1.83366
1.82804
1.8216
1.81611
1.80956
1.80421
1.79766
1.79237
1.78592
1.78064
1.77431
1.76901
1.76277
1.75744
1.75127
1.74591
1.73983
1.73468
1.72934
1.72653
2.13736
2.11278
2.0886
2.0635
2.03916
2.01143
1.9853
1.9581
1.93004
1.90254
1.87558
1.84853
1.82305
1.79716
1.77366
1.74904
1.72796
1.70609
1.68921
1.67592
1.67574
1.6825
1.70048
1.74123
1.82971
1.93733
1.99738
2.01182
2.00809
1.99992
1.99533
1.997
2.01211
2.05043
2.10554
2.18645
2.22755
2.23342
2.22297
2.20703
2.17518
2.1408
2.10665
2.0752
2.04699
2.02188
1.99897
1.97867
1.9598
1.94397
1.92967
1.91853
1.9081
1.90043
1.89419
1.89194
1.89009
1.89012
1.89099
1.89357
1.89462
1.89661
1.89631
1.89557
1.89448
1.89265
1.88876
1.88465
1.87917
1.87458
1.86891
1.86424
1.85847
1.85367
1.84773
1.84275
1.83664
1.83153
1.82535
1.82019
1.814
1.80884
1.80265
1.79746
1.79125
1.78602
1.77982
1.77457
1.76847
1.76329
1.75735
1.75222
1.74639
1.74127
1.73547
1.73036
1.72461
1.71974
1.71463
1.71204
2.12204
2.10155
2.07797
2.05565
2.03148
2.00797
1.98186
1.95683
1.9316
1.90535
1.87955
1.85464
1.82926
1.80562
1.78156
1.76011
1.73769
1.72002
1.70471
1.70229
1.70818
1.72368
1.75973
1.83852
1.94826
2.01448
2.02912
2.02203
2.01087
1.99182
1.97533
1.96895
1.9698
1.97927
2.00442
2.05176
2.1135
2.15823
2.18268
2.17772
2.16407
2.14282
2.11208
2.07954
2.04745
2.01926
1.99427
1.97172
1.9504
1.93249
1.91606
1.90199
1.88966
1.87922
1.87029
1.86374
1.86021
1.8584
1.85817
1.85846
1.85992
1.86298
1.86383
1.86557
1.86508
1.86452
1.86316
1.86091
1.85634
1.85208
1.84664
1.84207
1.8366
1.83204
1.82649
1.82176
1.81603
1.81118
1.80541
1.80055
1.79474
1.78986
1.78395
1.77906
1.77306
1.76822
1.76225
1.75745
1.75162
1.74678
1.74113
1.73617
1.73064
1.7256
1.72008
1.71507
1.70956
1.70484
1.69993
1.69745
2.10758
2.09052
2.06783
2.04537
2.02413
2.00093
1.97876
1.95376
1.9305
1.90644
1.8824
1.85796
1.83482
1.81136
1.78919
1.76788
1.74947
1.73284
1.7291
1.73436
1.74814
1.78102
1.84917
1.96067
2.03364
2.05008
2.04317
2.02923
2.0082
1.98511
1.9641
1.95191
1.94505
1.9451
1.94881
1.9636
1.99608
2.03917
2.09423
2.12212
2.12824
2.12048
2.10765
2.08148
2.05125
2.02243
1.99434
1.96793
1.94518
1.92436
1.90564
1.88876
1.87436
1.86151
1.85099
1.84162
1.83482
1.83005
1.8282
1.82727
1.82742
1.82843
1.8306
1.833
1.83469
1.83525
1.83493
1.83414
1.83219
1.82934
1.82456
1.82032
1.81505
1.81066
1.80537
1.80092
1.79555
1.79102
1.7856
1.78106
1.7756
1.77104
1.76549
1.7609
1.75528
1.75067
1.74507
1.74037
1.73484
1.73004
1.72456
1.71977
1.71432
1.70965
1.70421
1.69968
1.6943
1.68999
1.68525
1.68295
2.08763
2.07665
2.05793
2.03577
2.01453
1.99408
1.97229
1.951
1.92765
1.90548
1.88291
1.86064
1.83786
1.81659
1.79503
1.77647
1.76033
1.75464
1.75908
1.77251
1.80267
1.86498
1.97959
2.05707
2.07467
2.06718
2.05203
2.03003
2.00284
1.97962
1.95891
1.94203
1.92883
1.92192
1.91764
1.91833
1.92524
1.9437
1.97878
2.01937
2.05622
2.07744
2.07496
2.06548
2.05075
2.02552
1.99705
1.96938
1.94389
1.92015
1.89892
1.87973
1.86259
1.84781
1.83474
1.82386
1.8144
1.80682
1.80129
1.79858
1.79727
1.79738
1.79789
1.79951
1.80275
1.80398
1.80587
1.80571
1.80525
1.80416
1.80153
1.79816
1.79331
1.78927
1.78424
1.78017
1.7752
1.7711
1.7661
1.76185
1.75673
1.75236
1.74714
1.74271
1.73742
1.73297
1.72764
1.72319
1.71788
1.71343
1.70814
1.70372
1.69845
1.69406
1.68881
1.68449
1.67936
1.67535
1.67092
1.66891
2.06704
2.06185
2.04656
2.02632
2.00588
1.98582
1.96621
1.94533
1.92511
1.90306
1.88225
1.8608
1.84051
1.82001
1.80172
1.78545
1.77916
1.78298
1.79605
1.82514
1.88549
1.99556
2.07628
2.09632
2.08952
2.07486
2.05119
2.02406
1.99899
1.97675
1.95656
1.93753
1.92095
1.90636
1.89694
1.88979
1.8877
1.8888
1.89812
1.91925
1.95141
1.99048
2.01353
2.02753
2.02358
2.01425
1.99648
1.97318
1.94664
1.92019
1.89628
1.87476
1.85521
1.83761
1.82235
1.80903
1.79787
1.78777
1.77984
1.77354
1.76992
1.76819
1.76808
1.76833
1.76967
1.77176
1.77503
1.77625
1.77766
1.77738
1.77666
1.77509
1.77166
1.76826
1.7635
1.75972
1.755
1.75119
1.74652
1.74258
1.73787
1.73381
1.72896
1.72482
1.71983
1.71566
1.71055
1.70636
1.7012
1.69699
1.69187
1.68768
1.68262
1.67852
1.67352
1.66961
1.66481
1.66131
1.65735
1.65574
2.03678
2.04104
2.03374
2.01754
1.99705
1.97745
1.95837
1.93957
1.91996
1.90056
1.88041
1.86064
1.84132
1.82391
1.8086
1.80213
1.80578
1.81899
1.84775
1.90745
2.01379
2.0979
2.11911
2.11244
2.09772
2.07345
2.04572
2.01924
1.99686
1.97454
1.95505
1.93475
1.91619
1.8986
1.88279
1.87109
1.86205
1.8547
1.8547
1.85664
1.86712
1.88897
1.91762
1.9525
1.97079
1.97813
1.97343
1.96471
1.9468
1.92211
1.89841
1.87373
1.85162
1.83147
1.81389
1.79775
1.78425
1.77234
1.76235
1.75382
1.74698
1.74261
1.73993
1.73953
1.73976
1.74059
1.74315
1.74568
1.74791
1.74937
1.74948
1.74925
1.7483
1.7464
1.74256
1.73924
1.73483
1.73115
1.72673
1.72304
1.71862
1.71493
1.71039
1.70665
1.70198
1.69816
1.6934
1.68948
1.68468
1.6807
1.67588
1.67199
1.66718
1.66354
1.6588
1.65553
1.65116
1.64845
1.64527
1.64429
2.00002
2.01929
2.01807
2.00689
1.9893
1.96958
1.95086
1.9329
1.91484
1.89649
1.87824
1.86008
1.84304
1.82877
1.82296
1.82703
1.84086
1.87031
1.93051
2.0348
2.12155
2.14345
2.13677
2.12263
2.09601
2.06634
2.03981
2.01588
1.99392
1.97322
1.95249
1.93291
1.91231
1.89364
1.87476
1.85854
1.84491
1.83354
1.82569
1.81841
1.81878
1.82195
1.83341
1.85523
1.88127
1.90996
1.92621
1.93046
1.92538
1.91659
1.89952
1.87499
1.85175
1.82966
1.80874
1.79063
1.77411
1.76026
1.74779
1.73771
1.72837
1.72143
1.71599
1.71278
1.71173
1.71189
1.71235
1.71427
1.71648
1.71964
1.72105
1.72257
1.72255
1.72208
1.72058
1.71846
1.71459
1.71128
1.70699
1.7035
1.69931
1.69584
1.69169
1.68824
1.684
1.6806
1.6762
1.6728
1.66823
1.6648
1.66018
1.6568
1.65236
1.64922
1.64519
1.64257
1.63931
1.63765
1.63515
1.63458
1.92479
1.98663
1.99706
1.9933
1.98029
1.96227
1.94379
1.92643
1.90916
1.89234
1.87542
1.85994
1.84643
1.84133
1.84624
1.8609
1.89248
1.95253
2.05987
2.14492
2.16559
2.1577
2.14378
2.11695
2.08634
2.05907
2.03492
2.01301
1.99167
1.9713
1.9503
1.92991
1.90912
1.88898
1.86956
1.85054
1.83394
1.81798
1.80608
1.79446
1.78693
1.7815
1.78208
1.78596
1.79813
1.82014
1.84405
1.8676
1.88215
1.88383
1.87945
1.87077
1.85377
1.83102
1.80738
1.78713
1.76851
1.75162
1.73679
1.72382
1.71331
1.70379
1.69647
1.6905
1.68716
1.68491
1.68497
1.68531
1.68647
1.68914
1.6915
1.69431
1.69524
1.69643
1.69632
1.69561
1.69372
1.69134
1.68766
1.68462
1.68066
1.67763
1.6737
1.67069
1.66667
1.66357
1.65947
1.65634
1.65225
1.64922
1.64516
1.64237
1.63851
1.63622
1.63314
1.63178
1.62929
1.62855
1.62759
1.62771
1.78418
1.93916
1.97071
1.97469
1.96898
1.95518
1.93736
1.92012
1.90373
1.88771
1.87351
1.8614
1.85787
1.864
1.87982
1.91451
1.97588
2.08388
2.16768
2.18696
2.17885
2.16213
2.1357
2.10575
2.07816
2.05386
2.0316
2.01039
1.98955
1.96852
1.94753
1.92625
1.90542
1.88438
1.86435
1.8444
1.8258
1.8081
1.79215
1.77858
1.76648
1.75599
1.74898
1.74485
1.74547
1.74954
1.76132
1.78303
1.8051
1.82533
1.83869
1.83893
1.83519
1.8268
1.81119
1.78931
1.76794
1.7478
1.72998
1.7145
1.70123
1.68976
1.68017
1.67229
1.66584
1.66177
1.65873
1.65854
1.65877
1.65975
1.66171
1.66495
1.66704
1.6695
1.67027
1.67111
1.67084
1.66986
1.66762
1.66519
1.66176
1.65894
1.65534
1.65273
1.64904
1.64664
1.64283
1.64052
1.63669
1.63445
1.63087
1.62893
1.62629
1.62512
1.6234
1.62247
1.62242
1.62299
1.62526
1.62561
1.57119
1.85216
1.94076
1.95638
1.95592
1.94702
1.93167
1.91429
1.89847
1.88434
1.87322
1.87153
1.87949
1.89714
1.93505
2.0023
2.10897
2.19107
2.20876
2.20035
2.18136
2.15312
2.1235
2.0966
2.07253
2.05007
2.02856
2.00723
1.98588
1.96451
1.94304
1.92161
1.90032
1.87925
1.85874
1.83876