/*--------------------------------*- C++ -*----------------------------------*\
  =========                 |
  \\      /  F ield         | OpenFOAM: The Open Source CFD Toolbox
   \\    /   O peration     | Website:  https://openfoam.org
    \\  /    A nd           | Version:  9
     \\/     M anipulation  |
\*---------------------------------------------------------------------------*/
FoamFile
{
    format      ascii;
    class       volVectorField;
    location    "3.5";
    object      U;
}
// * * * * * * * * * * * * * * * * * * * * * * * * * * * * * * * * * * * * * //

dimensions      [0 1 -1 0 0 0 0];

internalField   nonuniform List<vector> 
5250
(
(3 -1.2696e-08 0)
(2.99999 1.49095e-07 0)
(2.99997 -8.94035e-08 0)
(2.99991 1.50257e-06 0)
(2.99978 -2.90148e-07 0)
(2.99948 9.58991e-06 0)
(2.99869 -1.57405e-06 0)
(2.9968 5.80654e-05 0)
(2.99198 4.97091e-06 0)
(2.98012 0.000303769 0)
(2.94907 0.000273501 0)
(2.86443 0.00144614 0)
(2.61925 0.00317869 0)
(1.89764 0.00978918 0)
(0.881533 0.0265283 0)
(0.433029 0.0243368 0)
(0.533217 0.0243759 0)
(0.561062 0.0262128 0)
(0.506107 0.028075 0)
(0.415014 0.0299806 0)
(0.330183 0.0322159 0)
(0.261611 0.0348383 0)
(0.193203 0.0376016 0)
(0.115631 0.0408074 0)
(0.0486894 0.0445287 0)
(3 3.14502e-08 0)
(2.99999 2.32831e-07 0)
(2.99997 7.37694e-07 0)
(2.99991 2.27873e-06 0)
(2.99979 5.76015e-06 0)
(2.99948 1.51174e-05 0)
(2.99873 3.6278e-05 0)
(2.99681 9.47114e-05 0)
(2.99218 0.000223458 0)
(2.98034 0.000587119 0)
(2.95004 0.00142837 0)
(2.86683 0.00381751 0)
(2.62612 0.0104519 0)
(1.91658 0.0300872 0)
(0.892105 0.0809342 0)
(0.429823 0.0703791 0)
(0.533415 0.0671947 0)
(0.562455 0.0701583 0)
(0.507213 0.073224 0)
(0.416138 0.0764734 0)
(0.331255 0.0800455 0)
(0.262056 0.0839731 0)
(0.19259 0.0875859 0)
(0.113771 0.0910546 0)
(0.0464202 0.0935113 0)
(3 6.18278e-08 0)
(2.99999 3.89771e-07 0)
(2.99997 1.33077e-06 0)
(2.99992 3.80823e-06 0)
(2.9998 1.00042e-05 0)
(2.9995 2.45763e-05 0)
(2.99875 6.51489e-05 0)
(2.99696 0.000149403 0)
(2.99239 0.000404764 0)
(2.98113 0.000937255 0)
(2.95177 0.00248474 0)
(2.87197 0.00633478 0)
(2.64118 0.0176557 0)
(1.9581 0.0508342 0)
(0.918204 0.138594 0)
(0.427979 0.119685 0)
(0.537888 0.112993 0)
(0.569595 0.118087 0)
(0.514172 0.123886 0)
(0.423312 0.130646 0)
(0.338308 0.137441 0)
(0.268217 0.144572 0)
(0.197295 0.151402 0)
(0.116494 0.157529 0)
(0.046862 0.160744 0)
(3 7.53197e-08 0)
(2.99999 5.26243e-07 0)
(2.99997 1.71297e-06 0)
(2.99992 5.16332e-06 0)
(2.99981 1.28266e-05 0)
(2.99952 3.45608e-05 0)
(2.99883 8.148e-05 0)
(2.99709 0.000216914 0)
(2.99284 0.000504099 0)
(2.98207 0.00134401 0)
(2.95455 0.00322896 0)
(2.87943 0.00868847 0)
(2.66365 0.0237133 0)
(2.02173 0.0688108 0)
(0.960029 0.191287 0)
(0.430033 0.168251 0)
(0.547768 0.158366 0)
(0.583516 0.165367 0)
(0.52813 0.174012 0)
(0.437519 0.184893 0)
(0.351862 0.195409 0)
(0.280479 0.206322 0)
(0.207507 0.217139 0)
(0.123435 0.226785 0)
(0.0494978 0.231333 0)
(3 9.55643e-08 0)
(2.99999 5.85756e-07 0)
(2.99997 2.08611e-06 0)
(2.99993 5.80263e-06 0)
(2.99982 1.56434e-05 0)
(2.99956 3.93888e-05 0)
(2.99891 9.94679e-05 0)
(2.99731 0.000247727 0)
(2.99333 0.000618495 0)
(2.9834 0.00154787 0)
(2.95789 0.00390494 0)
(2.88912 0.0102325 0)
(2.69164 0.0282135 0)
(2.10482 0.081857 0)
(1.0193 0.234642 0)
(0.442651 0.218255 0)
(0.565148 0.206877 0)
(0.605127 0.214271 0)
(0.549995 0.22462 0)
(0.459597 0.239232 0)
(0.372561 0.253679 0)
(0.299259 0.268855 0)
(0.223449 0.284375 0)
(0.134629 0.298572 0)
(0.0542551 0.305491 0)
(3 1.0163e-07 0)
(2.99999 6.11266e-07 0)
(2.99997 2.18005e-06 0)
(2.99993 6.09379e-06 0)
(2.99984 1.63448e-05 0)
(2.99959 4.06763e-05 0)
(2.99901 0.000104151 0)
(2.99752 0.000252837 0)
(2.99393 0.00064955 0)
(2.98481 0.00157207 0)
(2.9618 0.00407859 0)
(2.89976 0.0104301 0)
(2.72394 0.0288029 0)
(2.20272 0.0830328 0)
(1.10445 0.243912 0)
(0.483194 0.260049 0)
(0.596605 0.257356 0)
(0.63724 0.265306 0)
(0.582123 0.276889 0)
(0.491892 0.29513 0)
(0.402643 0.314204 0)
(0.32637 0.33454 0)
(0.246735 0.356088 0)
(0.151461 0.376879 0)
(0.0619792 0.388534 0)
(3 1.00853e-07 0)
(2.99999 5.89215e-07 0)
(2.99998 2.15399e-06 0)
(2.99994 5.77127e-06 0)
(2.99985 1.59914e-05 0)
(2.99963 3.78847e-05 0)
(2.99908 0.000101238 0)
(2.99776 0.000232197 0)
(2.99443 0.000619749 0)
(2.98626 0.00143477 0)
(2.96528 0.00378919 0)
(2.90974 0.00939885 0)
(2.75266 0.0257761 0)
(2.2895 0.0728634 0)
(1.19901 0.215695 0)
(0.526213 0.294216 0)
(0.622713 0.312119 0)
(0.664357 0.318146 0)
(0.614437 0.329996 0)
(0.528923 0.352442 0)
(0.439868 0.377388 0)
(0.361784 0.404316 0)
(0.278806 0.433851 0)
(0.17641 0.464644 0)
(0.074515 0.486143 0)
(3 7.66838e-08 0)
(2.99999 6.27002e-07 0)
(2.99998 1.76865e-06 0)
(2.99994 6.16054e-06 0)
(2.99986 1.32931e-05 0)
(2.99966 4.0193e-05 0)
(2.99917 8.49156e-05 0)
(2.99795 0.000242332 0)
(2.99493 0.000526966 0)
(2.98745 0.00144262 0)
(2.96844 0.00331353 0)
(2.91806 0.00887984 0)
(2.77679 0.0230565 0)
(2.35912 0.0652089 0)
(1.3046 0.192074 0)
(0.578967 0.337267 0)
(0.635552 0.37137 0)
(0.673942 0.369192 0)
(0.638479 0.381705 0)
(0.564756 0.408421 0)
(0.480702 0.441431 0)
(0.404229 0.477391 0)
(0.320961 0.51821 0)
(0.213321 0.564431 0)
(0.0957183 0.607158 0)
(3 9.24289e-08 0)
(2.99999 5.27016e-07 0)
(2.99998 2.04346e-06 0)
(2.99995 5.19316e-06 0)
(2.99988 1.51299e-05 0)
(2.99969 3.54192e-05 0)
(2.99925 9.27128e-05 0)
(2.99813 0.000223898 0)
(2.99543 0.000550484 0)
(2.98857 0.0013845 0)
(2.97149 0.00336383 0)
(2.92613 0.00865483 0)
(2.79951 0.0228465 0)
(2.42751 0.0639041 0)
(1.43493 0.188234 0)
(0.661916 0.385803 0)
(0.643356 0.416074 0)
(0.672892 0.413551 0)
(0.657642 0.431079 0)
(0.59975 0.461131 0)
(0.525415 0.50357 0)
(0.454564 0.551214 0)
(0.376206 0.606709 0)
(0.270875 0.678567 0)
(0.134168 0.766574 0)
(3 9.12634e-08 0)
(2.99999 5.68018e-07 0)
(2.99998 2.00449e-06 0)
(2.99996 5.55608e-06 0)
(2.99989 1.48827e-05 0)
(2.99973 3.69439e-05 0)
(2.99932 9.28381e-05 0)
(2.99833 0.000229361 0)
(2.99589 0.000563255 0)
(2.9898 0.0014082 0)
(2.97448 0.00347673 0)
(2.93436 0.00884879 0)
(2.82251 0.0233394 0)
(2.49666 0.0652056 0)
(1.58859 0.190509 0)
(0.764018 0.434351 0)
(0.650916 0.448957 0)
(0.679046 0.451474 0)
(0.6779 0.475426 0)
(0.635266 0.509969 0)
(0.575427 0.560783 0)
(0.514596 0.62068 0)
(0.451119 0.697748 0)
(0.366408 0.814886 0)
(0.20681 1.02636 0)
(3 8.87969e-08 0)
(2.99999 6.16391e-07 0)
(2.99998 1.93609e-06 0)
(2.99996 6.06445e-06 0)
(2.9999 1.44945e-05 0)
(2.99976 3.97735e-05 0)
(2.99941 9.3301e-05 0)
(2.99852 0.000241274 0)
(2.99641 0.000584128 0)
(2.991 0.00145573 0)
(2.97769 0.00363923 0)
(2.94268 0.00918398 0)
(2.84645 0.0241647 0)
(2.56693 0.0672696 0)
(1.76365 0.195245 0)
(0.884613 0.483091 0)
(0.660905 0.484046 0)
(0.692482 0.486479 0)
(0.704036 0.511911 0)
(0.674737 0.552415 0)
(0.630885 0.60888 0)
(0.588955 0.680213 0)
(0.560056 0.777849 0)
(0.560582 0.926799 0)
(0.603018 1.17839 0)
(3 9.70056e-08 0)
(2.99999 5.92165e-07 0)
(2.99999 2.09523e-06 0)
(2.99997 5.84696e-06 0)
(2.99992 1.56345e-05 0)
(2.99979 3.89459e-05 0)
(2.99949 9.98994e-05 0)
(2.99874 0.000240759 0)
(2.99691 0.000617314 0)
(2.99234 0.00147731 0)
(2.98093 0.00380169 0)
(2.95141 0.00939162 0)
(2.87115 0.0248622 0)
(2.63929 0.0685733 0)
(1.96025 0.198725 0)
(1.02768 0.525924 0)
(0.682736 0.523587 0)
(0.715315 0.524111 0)
(0.737702 0.543679 0)
(0.720572 0.587346 0)
(0.692437 0.647217 0)
(0.673284 0.72618 0)
(0.680739 0.832727 0)
(0.744279 0.979366 0)
(0.900411 1.17205 0)
(3 9.00131e-08 0)
(3 5.77789e-07 0)
(2.99999 2.00235e-06 0)
(2.99997 5.68159e-06 0)
(2.99993 1.50062e-05 0)
(2.99983 3.79865e-05 0)
(2.99958 9.52677e-05 0)
(2.99895 0.000238271 0)
(2.99744 0.000587106 0)
(2.99366 0.00147375 0)
(2.98428 0.00364778 0)
(2.96024 0.00924436 0)
(2.89591 0.0240103 0)
(2.71263 0.0660791 0)
(2.17243 0.191054 0)
(1.20414 0.537886 0)
(0.738451 0.565375 0)
(0.755882 0.571956 0)
(0.781788 0.578498 0)
(0.775865 0.618164 0)
(0.760214 0.678184 0)
(0.760869 0.756982 0)
(0.794116 0.858264 0)
(0.884466 0.981278 0)
(1.06345 1.10296 0)
(3 8.14587e-08 0)
(3 4.98062e-07 0)
(2.99999 1.77363e-06 0)
(2.99998 4.89094e-06 0)
(2.99994 1.32586e-05 0)
(2.99986 3.24769e-05 0)
(2.99966 8.39706e-05 0)
(2.99915 0.000201121 0)
(2.99794 0.00051554 0)
(2.99489 0.00123668 0)
(2.9874 0.00315835 0)
(2.96841 0.00773261 0)
(2.91859 0.0201154 0)
(2.77959 0.0538747 0)
(2.37629 0.153833 0)
(1.42322 0.455593 0)
(0.840201 0.589534 0)
(0.81497 0.615457 0)
(0.831871 0.621568 0)
(0.838769 0.650738 0)
(0.8326 0.704406 0)
(0.844767 0.775538 0)
(0.891627 0.861797 0)
(0.988102 0.957314 0)
(1.1574 1.03526 0)
(3 6.99855e-08 0)
(3 4.06284e-07 0)
(2.99999 1.51835e-06 0)
(2.99998 3.99071e-06 0)
(2.99995 1.12655e-05 0)
(2.99989 2.66775e-05 0)
(2.99972 7.02512e-05 0)
(2.99931 0.000164458 0)
(2.9983 0.000421342 0)
(2.99586 0.00100695 0)
(2.98969 0.00252195 0)
(2.97438 0.00619974 0)
(2.93427 0.015692 0)
(2.8234 0.0411472 0)
(2.50348 0.114073 0)
(1.64066 0.339117 0)
(0.941408 0.624794 0)
(0.855067 0.656467 0)
(0.870777 0.668771 0)
(0.890915 0.685203 0)
(0.8991 0.727715 0)
(0.920031 0.787201 0)
(0.97251 0.856557 0)
(1.0666 0.928281 0)
(1.21778 0.981778 0)
(3 6.03712e-08 0)
(3 3.58572e-07 0)
(2.99999 1.31398e-06 0)
(2.99999 3.52935e-06 0)
(2.99996 9.73447e-06 0)
(2.99991 2.3586e-05 0)
(2.99977 6.07446e-05 0)
(2.99945 0.000145765 0)
(2.99864 0.000365849 0)
(2.99665 0.00089103 0)
(2.99173 0.00220195 0)
(2.9794 0.00546694 0)
(2.94752 0.0137289 0)
(2.86072 0.0357628 0)
(2.61058 0.0986087 0)
(1.8956 0.287041 0)
(1.09359 0.665371 0)
(0.885962 0.691785 0)
(0.898243 0.704712 0)
(0.92898 0.712875 0)
(0.954745 0.745738 0)
(0.98448 0.794409 0)
(1.03909 0.849464 0)
(1.12783 0.903136 0)
(1.26043 0.941333 0)
(3 4.90006e-08 0)
(3 3.33272e-07 0)
(3 1.08447e-06 0)
(2.99999 3.28137e-06 0)
(2.99997 8.11697e-06 0)
(2.99993 2.16652e-05 0)
(2.99982 5.15407e-05 0)
(2.99957 0.000133154 0)
(2.99893 0.000318745 0)
(2.99739 0.000806781 0)
(2.9935 0.00196607 0)
(2.98399 0.00494647 0)
(2.95946 0.0123295 0)
(2.89398 0.0322184 0)
(2.70792 0.0879105 0)
(2.16083 0.254464 0)
(1.29246 0.674933 0)
(0.939883 0.723094 0)
(0.934293 0.732824 0)
(0.965747 0.736852 0)
(1.00446 0.758344 0)
(1.04089 0.79756 0)
(1.09523 0.841955 0)
(1.17732 0.882968 0)
(1.29317 0.910896 0)
(3 4.04425e-08 0)
(3 2.71322e-07 0)
(3 9.0636e-07 0)
(2.99999 2.66542e-06 0)
(2.99998 6.75913e-06 0)
(2.99994 1.77542e-05 0)
(2.99987 4.24134e-05 0)
(2.99967 0.00010964 0)
(2.9992 0.000258307 0)
(2.99802 0.000667945 0)
(2.99518 0.00157477 0)
(2.98802 0.00407022 0)
(2.97029 0.00984323 0)
(2.9236 0.0257141 0)
(2.79548 0.0683888 0)
(2.42425 0.195655 0)
(1.56288 0.567616 0)
(1.05165 0.730893 0)
(0.994505 0.755651 0)
(1.0115 0.765091 0)
(1.05281 0.774287 0)
(1.09425 0.801954 0)
(1.14599 0.836429 0)
(1.22004 0.867817 0)
(1.32091 0.888343 0)
(3 3.50368e-08 0)
(3 2.03061e-07 0)
(3 7.53121e-07 0)
(2.99999 1.99455e-06 0)
(2.99998 5.56796e-06 0)
(2.99996 1.3224e-05 0)
(2.9999 3.46884e-05 0)
(2.99975 8.09735e-05 0)
(2.99939 0.000208235 0)
(2.99849 0.000489945 0)
(2.99634 0.00124152 0)
(2.99088 0.00296914 0)
(2.97749 0.00747245 0)
(2.94263 0.0184713 0)
(2.84778 0.0485176 0)
(2.57689 0.13288 0)
(1.83556 0.395336 0)
(1.17522 0.737311 0)
(1.04291 0.776614 0)
(1.04982 0.793839 0)
(1.09069 0.796071 0)
(1.13914 0.810649 0)
(1.19047 0.834979 0)
(1.25759 0.858178 0)
(1.34578 0.87279 0)
(3 2.65432e-08 0)
(3 1.68455e-07 0)
(3 5.80113e-07 0)
(2.99999 1.65489e-06 0)
(2.99999 4.33728e-06 0)
(2.99997 1.09181e-05 0)
(2.99992 2.7352e-05 0)
(2.99981 6.67925e-05 0)
(2.99954 0.000166722 0)
(2.99888 0.000402605 0)
(2.99724 0.00101276 0)
(2.99322 0.00244192 0)
(2.98318 0.00615859 0)
(2.95766 0.0152553 0)
(2.88897 0.039705 0)
(2.69516 0.10788 0)
(2.12882 0.314477 0)
(1.3592 0.756198 0)
(1.09352 0.808773 0)
(1.0857 0.820434 0)
(1.12058 0.819067 0)
(1.17475 0.820952 0)
(1.22874 0.836042 0)
(1.29087 0.852597 0)
(1.36868 0.862611 0)
(3 2.03909e-08 0)
(3 1.325e-07 0)
(3 4.47729e-07 0)
(3 1.30134e-06 0)
(2.99999 3.33789e-06 0)
(2.99998 8.58882e-06 0)
(2.99994 2.10692e-05 0)
(2.99986 5.24667e-05 0)
(2.99967 0.000128529 0)
(2.99919 0.000316071 0)
(2.99804 0.000779804 0)
(2.99516 0.00190991 0)
(2.98817 0.00476209 0)
(2.97054 0.0117901 0)
(2.92469 0.030273 0)
(2.79974 0.0809404 0)
(2.43639 0.231784 0)
(1.64161 0.644715 0)
(1.20188 0.808812 0)
(1.14335 0.834525 0)
(1.15933 0.841183 0)
(1.20934 0.835981 0)
(1.26516 0.841055 0)
(1.32273 0.850804 0)
(1.39134 0.856677 0)
(3 1.50695e-08 0)
(3 1.00327e-07 0)
(3 3.31555e-07 0)
(3 9.83529e-07 0)
(2.99999 2.46283e-06 0)
(2.99998 6.43228e-06 0)
(2.99996 1.54918e-05 0)
(2.9999 3.8826e-05 0)
(2.99976 9.41668e-05 0)
(2.99942 0.000230083 0)
(2.99857 0.000566725 0)
(2.99653 0.00136512 0)
(2.99142 0.00341125 0)
(2.97888 0.00824957 0)
(2.94643 0.0208794 0)
(2.85927 0.0538143 0)
(2.61133 0.147833 0)
(1.9394 0.435221 0)
(1.33279 0.794928 0)
(1.19557 0.845363 0)
(1.19598 0.864422 0)
(1.2375 0.859443 0)
(1.2952 0.852331 0)
(1.35144 0.853424 0)
(1.41347 0.854896 0)
(3 1.14548e-08 0)
(3 7.4312e-08 0)
(3 2.53663e-07 0)
(3 7.28269e-07 0)
(3 1.88281e-06 0)
(2.99999 4.81605e-06 0)
(2.99997 1.17558e-05 0)
(2.99993 2.94482e-05 0)
(2.99983 7.0861e-05 0)
(2.99959 0.000176762 0)
(2.99899 0.000426143 0)
(2.99753 0.00105915 0)
(2.99391 0.00256927 0)
(2.98505 0.00640747 0)
(2.9625 0.0158266 0)
(2.90279 0.0408046 0)
(2.73666 0.109681 0)
(2.25163 0.318186 0)
(1.53967 0.766141 0)
(1.26309 0.862525 0)
(1.23769 0.883065 0)
(1.26158 0.882833 0)
(1.31584 0.869133 0)
(1.37503 0.861501 0)
(1.43425 0.857878 0)
(3 8.91698e-09 0)
(3 5.3197e-08 0)
(3 1.93377e-07 0)
(3 5.20855e-07 0)
(3 1.42845e-06 0)
(2.99999 3.45957e-06 0)
(2.99998 8.87986e-06 0)
(2.99995 2.12639e-05 0)
(2.99988 5.31738e-05 0)
(2.99972 0.000128764 0)
(2.99931 0.000315874 0)
(2.99832 0.000779031 0)
(2.99588 0.00188476 0)
(2.98992 0.00472103 0)
(2.97503 0.0115255 0)
(2.93689 0.0294388 0)
(2.83375 0.0775268 0)
(2.53738 0.21889 0)
(1.8395 0.612519 0)
(1.38333 0.854502 0)
(1.29518 0.888609 0)
(1.29751 0.900055 0)
(1.339 0.888254 0)
(1.39667 0.872633 0)
(1.45389 0.864019 0)
(3 6.09067e-09 0)
(3 3.96342e-08 0)
(3 1.3367e-07 0)
(3 3.87853e-07 0)
(3 9.90881e-07 0)
(2.99999 2.54394e-06 0)
(2.99999 6.18701e-06 0)
(2.99997 1.5438e-05 0)
(2.99992 3.73129e-05 0)
(2.99981 9.21047e-05 0)
(2.99953 0.000222976 0)
(2.99884 0.000548169 0)
(2.9972 0.0013351 0)
(2.99309 0.00327648 0)
(2.98306 0.0080683 0)
(2.95751 0.020058 0)
(2.88976 0.0516102 0)
(2.70068 0.139559 0)
(2.16606 0.407923 0)
(1.55128 0.835074 0)
(1.35265 0.902457 0)
(1.33494 0.91545 0)
(1.35918 0.907929 0)
(1.4131 0.887401 0)
(1.47163 0.872437 0)
(3 4.30808e-09 0)
(3 2.78422e-08 0)
(3 9.4516e-08 0)
(3 2.72643e-07 0)
(3 7.0055e-07 0)
(3 1.78704e-06 0)
(2.99999 4.36833e-06 0)
(2.99998 1.08238e-05 0)
(2.99995 2.62974e-05 0)
(2.99987 6.44162e-05 0)
(2.99969 0.000157205 0)
(2.99925 0.000382219 0)
(2.99815 0.000938442 0)
(2.99553 0.00228162 0)
(2.98901 0.00563253 0)
(2.97297 0.0138983 0)
(2.93149 0.0351511 0)
(2.8204 0.0931423 0)
(2.49855 0.265963 0)
(1.83141 0.690262 0)
(1.45726 0.881371 0)
(1.38968 0.912964 0)
(1.39221 0.920648 0)
(1.43294 0.904765 0)
(1.48904 0.881923 0)
(3 2.85004e-09 0)
(3 1.9235e-08 0)
(3 6.36939e-08 0)
(3 1.8735e-07 0)
(3 4.72127e-07 0)
(3 1.2265e-06 0)
(2.99999 2.92313e-06 0)
(2.99999 7.43353e-06 0)
(2.99996 1.7448e-05 0)
(2.99991 4.41331e-05 0)
(2.99979 0.000103481 0)
(2.99949 0.000260009 0)
(2.99878 0.00061431 0)
(2.997 0.00153178 0)
(2.99274 0.00366469 0)
(2.98202 0.00912165 0)
(2.95522 0.0224008 0)
(2.88407 0.0577773 0)
(2.68463 0.156333 0)
(2.14524 0.447404 0)
(1.59966 0.845564 0)
(1.44363 0.914181 0)
(1.42753 0.929673 0)
(1.45012 0.92244 0)
(1.50097 0.897296 0)
(3 1.96149e-09 0)
(3 1.31262e-08 0)
(3 4.34211e-08 0)
(3 1.28153e-07 0)
(3 3.22287e-07 0)
(3 8.36266e-07 0)
(3 2.0038e-06 0)
(2.99999 5.03776e-06 0)
(2.99998 1.20091e-05 0)
(2.99994 2.9782e-05 0)
(2.99987 7.15251e-05 0)
(2.99967 0.000175154 0)
(2.99921 0.000425719 0)
(2.99807 0.00103098 0)
(2.99533 0.00254034 0)
(2.98854 0.0061445 0)
(2.97182 0.015325 0)
(2.92852 0.0384275 0)
(2.81225 0.101803 0)
(2.47609 0.289794 0)
(1.85491 0.719923 0)
(1.53256 0.896374 0)
(1.47422 0.928379 0)
(1.47701 0.935461 0)
(1.51533 0.918067 0)
(3 1.4054e-09 0)
(3 8.42856e-09 0)
(3 3.03198e-08 0)
(3 8.24817e-08 0)
(3 2.22572e-07 0)
(3 5.40869e-07 0)
(3 1.37749e-06 0)
(2.99999 3.26603e-06 0)
(2.99999 8.19965e-06 0)
(2.99996 1.93699e-05 0)
(2.99991 4.82821e-05 0)
(2.99979 0.000114847 0)
(2.99949 0.00028328 0)
(2.99876 0.000680532 0)
(2.997 0.00166584 0)
(2.99267 0.00405551 0)
(2.98205 0.00993258 0)
(2.9552 0.0246984 0)
(2.88468 0.0632882 0)
(2.6866 0.172539 0)
(2.16785 0.486099 0)
(1.67234 0.859799 0)
(1.52789 0.929802 0)
(1.5098 0.944946 0)
(1.52862 0.937759 0)
(3 9.27556e-10 0)
(3 5.5938e-09 0)
(3 1.99886e-08 0)
(3 5.46587e-08 0)
(3 1.46851e-07 0)
(3 3.57026e-07 0)
(3 9.09982e-07 0)
(3 2.149e-06 0)
(2.99999 5.42145e-06 0)
(2.99998 1.27208e-05 0)
(2.99995 3.18918e-05 0)
(2.99987 7.52218e-05 0)
(2.99968 0.000187059 0)
(2.99922 0.000444576 0)
(2.99814 0.00109792 0)
(2.99543 0.00264351 0)
(2.98898 0.00648874 0)
(2.97272 0.0159604 0)
(2.93147 0.0401107 0)
(2.82088 0.105687 0)
(2.50288 0.300527 0)
(1.92463 0.722929 0)
(1.61675 0.906472 0)
(1.55536 0.941395 0)
(1.55407 0.949027 0)
(3 5.66465e-10 0)
(3 3.76272e-09 0)
(3 1.24814e-08 0)
(3 3.66553e-08 0)
(3 9.23388e-08 0)
(3 2.38004e-07 0)
(3 5.72706e-07 0)
(3 1.42309e-06 0)
(2.99999 3.41818e-06 0)
(2.99999 8.34986e-06 0)
(2.99997 2.02336e-05 0)
(2.99992 4.87028e-05 0)
(2.9998 0.000119555 0)
(2.99952 0.000284113 0)
(2.99883 0.000705497 0)
(2.99716 0.00166389 0)
(2.99314 0.00416851 0)
(2.98313 0.00993628 0)
(2.95826 0.025055 0)
(2.89305 0.0632163 0)
(2.71123 0.172152 0)
(2.237 0.477694 0)
(1.761 0.859496 0)
(1.60965 0.938282 0)
(1.58651 0.955006 0)
(3 3.59741e-10 0)
(3 2.40511e-09 0)
(3 7.99754e-09 0)
(3 2.34107e-08 0)
(3 5.90234e-08 0)
(3 1.52574e-07 0)
(3 3.6334e-07 0)
(3 9.15352e-07 0)
(3 2.15331e-06 0)
(2.99999 5.37908e-06 0)
(2.99998 1.26849e-05 0)
(2.99995 3.13854e-05 0)
(2.99988 7.4718e-05 0)
(2.99971 0.000182865 0)
(2.99929 0.00043986 0)
(2.99831 0.00106607 0)
(2.99587 0.00260134 0)
(2.99008 0.00627464 0)
(2.97557 0.0155711 0)
(2.93926 0.0386079 0)
(2.84287 0.101424 0)
(2.56825 0.285231 0)
(2.02493 0.693101 0)
(1.70584 0.901939 0)
(1.63494 0.945642 0)
(3 2.36331e-10 0)
(3 1.45994e-09 0)
(3 5.16253e-09 0)
(3 1.42221e-08 0)
(3 3.78147e-08 0)
(3 9.30171e-08 0)
(3 2.30979e-07 0)
(3 5.60128e-07 0)
(3 1.35516e-06 0)
(2.99999 3.30166e-06 0)
(2.99999 7.87219e-06 0)
(2.99997 1.93878e-05 0)
(2.99993 4.5629e-05 0)
(2.99982 0.000113216 0)
(2.99957 0.000265391 0)
(2.99896 0.000659127 0)
(2.99748 0.0015474 0)
(2.99392 0.00384373 0)
(2.98511 0.00914275 0)
(2.96336 0.0228277 0)
(2.90694 0.0569652 0)
(2.75191 0.152749 0)
(2.33792 0.421408 0)
(1.86306 0.821653 0)
(1.69104 0.928804 0)
(3 1.49743e-10 0)
(3 9.08216e-10 0)
(3 3.22524e-09 0)
(3 8.85687e-09 0)
(3 2.36049e-08 0)
(3 5.7574e-08 0)
(3 1.45274e-07 0)
(3 3.43675e-07 0)
(3 8.57651e-07 0)
(3 2.014e-06 0)
(2.99999 5.00129e-06 0)
(2.99998 1.1789e-05 0)
(2.99996 2.90361e-05 0)
(2.99989 6.89646e-05 0)
(2.99975 0.000168444 0)
(2.99938 0.000404201 0)
(2.99852 0.000977198 0)
(2.9964 0.002376 0)
(2.99135 0.00572155 0)
(2.97882 0.014133 0)
(2.9476 0.0348094 0)
(2.86546 0.0903816 0)
(2.63342 0.249428 0)
(2.13558 0.632355 0)
(1.79676 0.888891 0)
(3 8.78762e-11 0)
(3 5.72141e-10 0)
(3 1.92328e-09 0)
(3 5.56028e-09 0)
(3 1.41517e-08 0)
(3 3.59295e-08 0)
(3 8.71387e-08 0)
(3 2.13346e-07 0)
(3 5.14093e-07 0)
(3 1.24143e-06 0)
(3 3.00952e-06 0)
(2.99999 7.18152e-06 0)
(2.99997 1.75311e-05 0)
(2.99994 4.16078e-05 0)
(2.99985 0.000101813 0)
(2.99963 0.000241165 0)
(2.99912 0.000590248 0)
(2.99787 0.00140256 0)
(2.9949 0.00343206 0)
(2.98754 0.00822827 0)
(2.96958 0.020331 0)
(2.92356 0.0505391 0)
(2.79941 0.133526 0)
(2.46007 0.370615 0)
(1.98926 0.772298 0)
(3 5.34166e-11 0)
(3 3.45922e-10 0)
(3 1.17623e-09 0)
(3 3.35843e-09 0)
(3 8.63095e-09 0)
(3 2.1759e-08 0)
(3 5.27842e-08 0)
(3 1.29871e-07 0)
(3 3.10214e-07 0)
(3 7.59044e-07 0)
(3 1.80411e-06 0)
(2.99999 4.40955e-06 0)
(2.99998 1.04947e-05 0)
(2.99996 2.55463e-05 0)
(2.99991 6.10093e-05 0)
(2.99979 0.000147954 0)
(2.99949 0.000355247 0)
(2.99877 0.000856939 0)
(2.99704 0.00207354 0)
(2.99287 0.00500456 0)
(2.98264 0.0122335 0)
(2.95726 0.0301325 0)
(2.89165 0.0766697 0)
(2.70829 0.208616 0)
(2.27703 0.544842 0)
(3 3.28945e-11 0)
(3 2.04485e-10 0)
(3 7.13398e-10 0)
(3 1.98933e-09 0)
(3 5.21238e-09 0)
(3 1.28687e-08 0)
(3 3.19112e-08 0)
(3 7.63424e-08 0)
(3 1.8764e-07 0)
(3 4.44007e-07 0)
(3 1.08942e-06 0)
(3 2.57131e-06 0)
(2.99999 6.30396e-06 0)
(2.99998 1.48824e-05 0)
(2.99995 3.63865e-05 0)
(2.99988 8.62276e-05 0)
(2.99971 0.000209857 0)
(2.9993 0.000499633 0)
(2.99835 0.00121058 0)
(2.996 0.00290744 0)
(2.99047 0.00704522 0)
(2.9767 0.017147 0)
(2.94271 0.0426482 0)
(2.85337 0.110269 0)
(2.60475 0.306024 0)
(3 1.8769e-11 0)
(3 1.21915e-10 0)
(3 4.13325e-10 0)
(3 1.18237e-09 0)
(3 3.02603e-09 0)
(3 7.64259e-09 0)
(3 1.84409e-08 0)
(3 4.52876e-08 0)
(3 1.07641e-07 0)
(3 2.62608e-07 0)
(3 6.22968e-07 0)
(3 1.51177e-06 0)
(2.99999 3.59187e-06 0)
(2.99999 8.681e-06 0)
(2.99997 2.07146e-05 0)
(2.99993 4.9708e-05 0)
(2.99983 0.000119237 0)
(2.99961 0.000284593 0)
(2.99904 0.000685826 0)
(2.99773 0.00162929 0)
(2.99448 0.00394952 0)
(2.98678 0.00944055 0)
(2.96751 0.0231114 0)
(2.91901 0.0573779 0)
(2.78752 0.151109 0)
(3 1.13083e-11 0)
(3 6.99944e-11 0)
(3 2.45729e-10 0)
(3 6.79434e-10 0)
(3 1.79154e-09 0)
(3 4.39858e-09 0)
(3 1.08864e-08 0)
(3 2.61047e-08 0)
(3 6.3387e-08 0)
(3 1.51537e-07 0)
(3 3.65075e-07 0)
(3 8.76084e-07 0)
(3 2.09441e-06 0)
(2.99999 5.05472e-06 0)
(2.99998 1.20108e-05 0)
(2.99996 2.91505e-05 0)
(2.99991 6.88804e-05 0)
(2.99978 0.00016779 0)
(2.99947 0.000396465 0)
(2.99872 0.000964801 0)
(2.99697 0.00228993 0)
(2.99263 0.00558261 0)
(2.98233 0.013438 0)
(2.95648 0.0331787 0)
(2.89013 0.0840792 0)
(3 6.35333e-12 0)
(3 4.11726e-11 0)
(3 1.39152e-10 0)
(3 3.98993e-10 0)
(3 1.01648e-09 0)
(3 2.56695e-09 0)
(3 6.17635e-09 0)
(3 1.51568e-08 0)
(3 3.60079e-08 0)
(3 8.74949e-08 0)
(3 2.07464e-07 0)
(3 5.01776e-07 0)
(3 1.19403e-06 0)
(3 2.87008e-06 0)
(2.99999 6.85481e-06 0)
(2.99998 1.64043e-05 0)
(2.99995 3.94142e-05 0)
(2.99988 9.36106e-05 0)
(2.99971 0.00022627 0)
(2.99931 0.000535192 0)
(2.99833 0.00130022 0)
(2.99606 0.00307305 0)
(2.99045 0.00750811 0)
(2.97714 0.0180123 0)
(2.94361 0.0447544 0)
(3 3.7649e-12 0)
(3 2.30493e-11 0)
(3 8.10627e-11 0)
(3 2.23175e-10 0)
(3 5.90103e-10 0)
(3 1.43574e-09 0)
(3 3.5807e-09 0)
(3 8.44595e-09 0)
(3 2.07638e-08 0)
(3 4.87255e-08 0)
(3 1.18843e-07 0)
(3 2.79482e-07 0)
(3 6.77032e-07 0)
(3 1.60307e-06 0)
(3 3.84548e-06 0)
(2.99999 9.17525e-06 0)
(2.99997 2.18221e-05 0)
(2.99993 5.25228e-05 0)
(2.99984 0.000123602 0)
(2.99961 0.000299826 0)
(2.99908 0.000701301 0)
(2.9978 0.00171013 0)
(2.99476 0.0039943 0)
(2.98733 0.00980587 0)
(2.96933 0.023302 0)
(3 2.02756e-12 0)
(3 1.33694e-11 0)
(3 4.45036e-11 0)
(3 1.29441e-10 0)
(3 3.24794e-10 0)
(3 8.2955e-10 0)
(3 1.97108e-09 0)
(3 4.86792e-09 0)
(3 1.14582e-08 0)
(3 2.78728e-08 0)
(3 6.59587e-08 0)
(3 1.58499e-07 0)
(3 3.7834e-07 0)
(3 8.98955e-07 0)
(3 2.16969e-06 0)
(2.99999 5.1005e-06 0)
(2.99998 1.23976e-05 0)
(2.99996 2.90059e-05 0)
(2.99991 7.07584e-05 0)
(2.99979 0.000165105 0)
(2.9995 0.000402987 0)
(2.99881 0.000943264 0)
(2.99719 0.00229856 0)
(2.99319 0.00542458 0)
(2.98375 0.0132695 0)
(3 1.15468e-12 0)
(3 7.2452e-12 0)
(3 2.51148e-11 0)
(3 7.03485e-11 0)
(3 1.82649e-10 0)
(3 4.52845e-10 0)
(3 1.09958e-09 0)
(3 2.6719e-09 0)
(3 6.32608e-09 0)
(3 1.53925e-08 0)
(3 3.60545e-08 0)
(3 8.79612e-08 0)
(3 2.05035e-07 0)
(3 5.00456e-07 0)
(3 1.16816e-06 0)
(3 2.83893e-06 0)
(2.99999 6.65801e-06 0)
(2.99998 1.60816e-05 0)
(2.99995 3.80103e-05 0)
(2.99989 9.09134e-05 0)
(2.99973 0.000217066 0)
(2.99937 0.000514264 0)
(2.99849 0.00124162 0)
(2.99646 0.00291982 0)
(2.99146 0.00712945 0)
(3 6.4504e-13 0)
(3 3.95653e-12 0)
(3 1.3853e-11 0)
(3 3.82152e-11 0)
(3 1.00351e-10 0)
(3 2.44591e-10 0)
(3 6.05179e-10 0)
(3 1.43029e-09 0)
(3 3.48941e-09 0)
(3 8.18797e-09 0)
(3 1.98476e-08 0)
(3 4.65481e-08 0)
(3 1.12447e-07 0)
(3 2.64656e-07 0)
(3 6.34439e-07 0)
(3 1.50276e-06 0)
(3 3.57741e-06 0)
(2.99999 8.53423e-06 0)
(2.99997 2.01222e-05 0)
(2.99994 4.8383e-05 0)
(2.99986 0.000113307 0)
(2.99966 0.000273706 0)
(2.99919 0.000637916 0)
(2.9981 0.00154781 0)
(2.99542 0.00360843 0)
(3 3.3272e-13 0)
(3 2.19478e-12 0)
(3 7.24415e-12 0)
(3 2.07758e-11 0)
(3 5.2726e-11 0)
(3 1.32639e-10 0)
(3 3.1829e-10 0)
(3 7.71492e-10 0)
(3 1.83418e-09 0)
(3 4.37773e-09 0)
(3 1.04428e-08 0)
(3 2.46492e-08 0)
(3 5.912e-08 0)
(3 1.38699e-07 0)
(3 3.33744e-07 0)
(3 7.79734e-07 0)
(3 1.8786e-06 0)
(2.99999 4.38885e-06 0)
(2.99999 1.05431e-05 0)
(2.99997 2.47068e-05 0)
(2.99992 5.90633e-05 0)
(2.99981 0.000138915 0)
(2.99956 0.000330394 0)
(2.99894 0.000781997 0)
(2.9975 0.00184681 0)
(3 1.7649e-13 0)
(3 1.09462e-12 0)
(3 3.81918e-12 0)
(3 1.05376e-11 0)
(3 2.77478e-11 0)
(3 6.75163e-11 0)
(3 1.65652e-10 0)
(3 3.93248e-10 0)
(3 9.38479e-10 0)
(3 2.23432e-09 0)
(3 5.24051e-09 0)
(3 1.25927e-08 0)
(3 2.90812e-08 0)
(3 7.05558e-08 0)
(3 1.61547e-07 0)
(3 3.92433e-07 0)
(3 8.96636e-07 0)
(3 2.17249e-06 0)
(2.99999 4.97367e-06 0)
(2.99998 1.19427e-05 0)
(2.99995 2.75863e-05 0)
(2.99989 6.52618e-05 0)
(2.99973 0.000152444 0)
(2.99936 0.000354699 0)
(2.99845 0.000840383 0)
(3 7.62476e-14 0)
(3 5.09278e-13 0)
(3 1.87214e-12 0)
(3 5.22307e-12 0)
(3 1.36399e-11 0)
(3 3.29771e-11 0)
(3 8.13429e-11 0)
(3 1.88129e-10 0)
(3 4.5829e-10 0)
(3 1.04677e-09 0)
(3 2.53553e-09 0)
(3 5.77402e-09 0)
(3 1.38529e-08 0)
(3 3.18097e-08 0)
(3 7.49738e-08 0)
(3 1.74117e-07 0)
(3 4.03163e-07 0)
(3 9.47669e-07 0)
(2.99999 2.1476e-06 0)
(2.99999 5.1003e-06 0)
(2.99997 1.13591e-05 0)
(2.99992 2.71087e-05 0)
(2.9998 5.92622e-05 0)
(2.99951 0.000141633 0)
(2.99881 0.000305624 0)
(3 4.97548e-14 0)
(3 2.44031e-13 0)
(3 8.49609e-13 0)
(3 2.49784e-12 0)
(3 6.09815e-12 0)
(3 1.56935e-11 0)
(3 3.60566e-11 0)
(3 8.92519e-11 0)
(3 2.01545e-10 0)
(3 4.86941e-10 0)
(3 1.10365e-09 0)
(3 2.60393e-09 0)
(3 6.00501e-09 0)
(3 1.3749e-08 0)
(3 3.22654e-08 0)
(3 7.22392e-08 0)
(3 1.7165e-07 0)
(3 3.73969e-07 0)
(3 8.99806e-07 0)
(2.99999 1.92552e-06 0)
(2.99997 4.62263e-06 0)
(2.99993 9.69163e-06 0)
(2.99982 2.31676e-05 0)
(2.99956 4.76221e-05 0)
(2.99893 0.000111106 0)
(3 1.63762e-14 0)
(3 1.16038e-13 0)
(3 3.85669e-13 0)
(3 1.12928e-12 0)
(3 2.56149e-12 0)
(3 7.00255e-12 0)
(3 1.46806e-11 0)
(3 3.86097e-11 0)
(3 8.05402e-11 0)
(3 2.06725e-10 0)
(3 4.35741e-10 0)
(3 1.08026e-09 0)
(3 2.34017e-09 0)
(3 5.4903e-09 0)
(3 1.25723e-08 0)
(3 2.73231e-08 0)
(3 6.63221e-08 0)
(3 1.32567e-07 0)
(3 3.44736e-07 0)
(2.99999 6.29412e-07 0)
(2.99997 1.73035e-06 0)
(2.99993 2.86925e-06 0)
(2.99983 8.36177e-06 0)
(2.99958 1.24074e-05 0)
(2.99895 3.71732e-05 0)
(3 -1.51979e-14 0)
(3 4.33256e-14 0)
(3 1.25675e-13 0)
(3 3.33504e-13 0)
(3 8.33542e-13 0)
(3 1.9998e-12 0)
(3 4.46686e-12 0)
(3 1.02315e-11 0)
(3 2.35377e-11 0)
(3 5.3366e-11 0)
(3 1.25701e-10 0)
(3 2.82114e-10 0)
(3 6.55637e-10 0)
(3 1.46854e-09 0)
(3 3.38865e-09 0)
(3 7.49636e-09 0)
(3 1.69481e-08 0)
(3 3.72938e-08 0)
(3 8.31409e-08 0)
(2.99999 1.7621e-07 0)
(2.99997 3.89492e-07 0)
(2.99993 7.85513e-07 0)
(2.99983 1.68937e-06 0)
(2.99959 3.30774e-06 0)
(2.99896 6.28166e-06 0)
(1.27871 1.08329 0)
(1.69056 0.882974 0)
(1.87447 0.618761 0)
(1.9019 0.355075 0)
(1.85237 0.135342 0)
(1.75842 -0.00916954 0)
(1.66246 -0.045307 0)
(1.61419 -0.0148057 0)
(1.60625 0.0255933 0)
(1.60922 0.0455335 0)
(1.61226 0.043413 0)
(1.61271 0.0322786 0)
(1.61083 0.0218473 0)
(1.60693 0.0138876 0)
(1.60067 0.0101897 0)
(1.59353 0.0114407 0)
(1.5847 0.0153207 0)
(1.56825 0.0200534 0)
(1.53301 0.0257907 0)
(1.45578 0.034088 0)
(1.2847 0.0496354 0)
(0.920488 0.083329 0)
(0.465539 0.146996 0)
(0.130812 0.162026 0)
(-0.0427 0.133166 0)
(-0.245826 0.0982032 0)
(-0.416395 0.051647 0)
(-0.569575 0.0165997 0)
(-0.683243 -0.0033019 0)
(-0.749684 -0.00377148 0)
(-0.784058 0.00862863 0)
(-0.801797 0.0144081 0)
(-0.808971 0.0135957 0)
(-0.801067 0.00765289 0)
(-0.770581 -0.0028902 0)
(-0.715133 -0.0143301 0)
(-0.637436 -0.0243832 0)
(-0.545141 -0.0329685 0)
(-0.44485 -0.04062 0)
(-0.342155 -0.0469568 0)
(-0.244358 -0.0492263 0)
(-0.150893 -0.0503761 0)
(-0.0665518 -0.0530635 0)
(0.0266515 -0.0503545 0)
(0.103277 -0.0429179 0)
(0.174641 -0.0396621 0)
(0.240085 -0.0367509 0)
(0.300944 -0.0342628 0)
(0.355707 -0.0314601 0)
(0.406616 -0.0293497 0)
(0.458708 -0.0285526 0)
(0.51061 -0.0278367 0)
(0.55921 -0.0262046 0)
(0.604791 -0.0243612 0)
(0.648177 -0.022779 0)
(0.689698 -0.0213888 0)
(0.729629 -0.0201561 0)
(0.768044 -0.0189944 0)
(0.805106 -0.0179346 0)
(0.840851 -0.0169377 0)
(0.875409 -0.0160261 0)
(0.908814 -0.0151643 0)
(0.94117 -0.0143679 0)
(0.972515 -0.0136021 0)
(1.00294 -0.0128839 0)
(1.0325 -0.0121846 0)
(1.06127 -0.0115248 0)
(1.0893 -0.0108807 0)
(1.11665 -0.0102761 0)
(1.14336 -0.00968797 0)
(1.16948 -0.00913331 0)
(1.19505 -0.00859596 0)
(1.2201 -0.00808798 0)
(1.24467 -0.00759454 0)
(1.26879 -0.00712571 0)
(1.29247 -0.00666933 0)
(1.31573 -0.00623422 0)
(1.33859 -0.00581142 0)
(1.36105 -0.00540873 0)
(1.38311 -0.00501939 0)
(1.40477 -0.00465017 0)
(1.42603 -0.00429464 0)
(1.44689 -0.00395793 0)
(1.46735 -0.00363229 0)
(1.48742 -0.00332265 0)
(1.5071 -0.00302093 0)
(1.52642 -0.00272881 0)
(1.54539 -0.00244179 0)
(1.56402 -0.00216201 0)
(1.58233 -0.0018781 0)
(1.60033 -0.00160622 0)
(1.61802 -0.00134942 0)
(1.63538 -0.00111817 0)
(1.65236 -0.000919137 0)
(1.66887 -0.000698549 0)
(1.68476 -0.000430572 0)
(1.69966 -0.000100918 0)
(1.71296 0.000321675 0)
(1.72308 0.000926375 0)
(1.73035 0.00160565 0)
(1.37232 0.994204 0)
(1.68608 0.711151 0)
(1.85992 0.398132 0)
(1.94438 0.130174 0)
(1.99465 -0.0613762 0)
(2.02454 -0.162407 0)
(2.03362 -0.168582 0)
(2.0321 -0.128242 0)
(2.01841 -0.0801015 0)
(1.99624 -0.0417025 0)
(1.97874 -0.0203499 0)
(1.97317 -0.013598 0)
(1.97345 -0.0154863 0)
(1.97391 -0.0201978 0)
(1.97363 -0.0230111 0)
(1.97208 -0.0221543 0)
(1.96734 -0.018701 0)
(1.95509 -0.0128105 0)
(1.92807 -0.00273302 0)
(1.87094 0.0153465 0)
(1.74783 0.0501217 0)