/*--------------------------------*- C++ -*----------------------------------*\
  =========                 |
  \\      /  F ield         | OpenFOAM: The Open Source CFD Toolbox
   \\    /   O peration     | Website:  https://openfoam.org
    \\  /    A nd           | Version:  9
     \\/     M anipulation  |
\*---------------------------------------------------------------------------*/
FoamFile
{
    format      ascii;
    class       volScalarField;
    location    "0.87";
    object      p;
}
// * * * * * * * * * * * * * * * * * * * * * * * * * * * * * * * * * * * * * //

dimensions      [1 -1 -2 0 0 0 0];

internalField   nonuniform List<scalar> 
10000
(
0
0.010630775
0.034478884
0.069733729
0.11665644
0.17532018
0.24549899
0.32698386
0.41963915
0.5231522
0.63728989
0.76172871
0.89611972
1.0401325
1.1932965
1.3551461
1.525219
1.7029956
1.8877989
2.0795337
2.2779766
2.4822692
2.6913838
2.9046577
3.1215699
3.34181
3.565167
3.7915229
4.0209785
4.2538594
4.4906546
4.7320537
4.979009
5.2326625
5.4942371
5.7650058
6.046196
6.3388016
6.6435263
6.9608264
7.2908354
7.6333112
7.9878133
8.353203
8.7270602
9.1119345
9.5275831
9.976967
10.416224
10.69722
10.687735
10.532931
10.142558
9.7509977
9.3478208
9.2180942
9.3089372
9.3518455
9.3511179
9.338983
9.3284936
9.4063
9.4475009
9.4193289
9.3320209
9.1896882
8.9997119
8.7741406
8.5236859
8.2559883
7.9775398
7.6934585
7.40739
7.1221013
6.8396686
6.5616446
6.2893582
6.0239198
5.7663285
5.5175456
5.2783812
5.0496295
4.8319361
4.6258062
4.4317998
4.250528
4.0824006
3.9275788
3.7860735
3.6576945
3.5423425
3.439902
3.3501722
3.2731525
3.2076216
3.1538475
3.1118122
3.0811527
3.0613685
3.05683
-0.010541792
0.00016691719
0.024116257
0.059509682
0.10648457
0.16525828
0.235499
0.31712822
0.40987242
0.51352909
0.6278129
0.75240661
0.88704101
1.0312994
1.1847426
1.3469354
1.5173575
1.6955145
1.880768
2.0723184
2.2705306
2.4742484
2.682632
2.894981
3.110765
3.3296068
3.5512265
3.7755194
4.0026303
4.2329051
4.4668909
4.7054109
4.9495968
5.2007901
5.4604133
5.7299336
6.0107573
6.3039587
6.610138
6.929434
7.2613777
7.6049328
7.95933
8.323631
8.6932807
9.0682177
9.4824169
9.9792061
10.524088
10.896859
10.898299
10.554214
9.771651
9.3922377
9.1666318
8.6437802
8.9481724
8.9405351
9.7096483
9.1942828
9.095698
9.2192222
9.2328155
9.2271048
9.1511013
9.0136707
8.8320335
8.6192828
8.3843418
8.1331509
7.8708673
7.6015586
7.3284508
7.0542562
6.7811419
6.5108726
6.2450229
5.9849722
5.7319348
5.4870476
5.2512116
5.0253272
4.8101059
4.6062219
4.4142061
4.2345662
4.0677016
3.9138072
3.7729515
3.6450827
3.5300616
3.4278403
3.3382706
3.2610518
3.1957954
3.1424382
3.1008827
3.0706982
3.0512934
3.047053
-0.03416609
-0.023346315
0.00086825057
0.036470418
0.083749643
0.14278649
0.21341401
0.29541641
0.38864371
0.49284902
0.60772405
0.73302322
0.8683834
1.0133952
1.1676687
1.3307063
1.5020077
1.6811194
1.8675136
2.0590218
2.2579084
2.4618921
2.6702989
2.8824698
3.097801
3.3157922
3.5361136
3.7586599
3.9835234
4.2110095
4.4417394
4.6766707
4.9170684
5.1644971
5.4207341
5.6876147
5.9668681
6.2598605
6.5673254
6.8892071
7.2243511
7.5703635
7.9253791
8.2887002
8.6482494
8.9821924
9.3519197
9.9484821
10.97597
11.469943
11.287623
10.895102
10.557958
9.8186965
8.3893846
7.913634
8.1768193
8.3647942
8.829142
9.0834904
9.1740515
9.2381984
9.1205595
9.160823
9.0614976
8.8993257
8.7024483
8.4880466
8.2598833
8.0188448
7.7678783
7.5098176
7.2471888
6.9823493
6.7173016
6.453833
6.1936418
5.9382986
5.689174
5.4475013
5.21444
4.9908896
4.7776326
4.5754185
4.3848192
4.2063076
4.0402946
3.8870128
3.7465651
3.6189226
3.5040452
3.401877
3.3123006
3.2351833
3.1701917
3.1172159
3.0760643
3.0462581
3.0272865
3.0236181
-0.070020503
-0.059067026
-0.034669426
0.0012433911
0.048828961
0.10829415
0.17937232
0.26195147
0.35585733
0.46081689
0.57660704
0.70291039
0.83935726
0.98558957
1.1411553
1.3055586
1.4783122
1.6588225
1.8463869
2.0400752
2.2396988
2.4445304
2.6535944
2.8661356
3.0814057
3.2987834
3.5178761
3.7384924
3.960616
4.1845106
4.4108561
4.6407377
4.8756109
5.1173649
5.3682655
5.6307004
5.9069371
6.1988525
6.5075098
6.8327494
7.1726272
7.5227646
7.8789369
8.2402321
8.5831749
8.8298706
9.0639017
10.309799
11.42348
11.950262
11.771631
11.158278
10.016383
8.6072612
7.8917448
7.0988989
7.1312338
7.5527753
8.0054055
8.0112178
7.9857952
8.4850742
8.7476448
8.9057455
8.904776
8.756447
8.5538937
8.3460482
8.1314259
7.9046762
7.6662762
7.4188693
7.1653132
6.9080428
6.6492427
6.3909184
6.1349027
5.882978
5.6366696
5.3973634
5.1662527
4.9443517
4.7325069
4.5314997
4.3419407
4.164324
3.9990668
3.8464067
3.7065063
3.5794111
3.4650465
3.3633483
3.2742301
3.1975503
3.1330516
3.0805868
3.0399168
3.0105165
2.9919516
2.9889504
-0.11747274
-0.1064786
-0.081826888
-0.045625044
0.0024129897
0.062381212
0.13411929
0.21749425
0.31228658
0.41830381
0.53527664
0.66288363
0.80081434
0.94867086
1.1059803
1.272281
1.447012
1.6295092
1.8191036
2.0150387
2.2164737
2.4228162
2.6332129
2.8466849
3.0623396
3.2794322
3.4974213
3.7159325
3.9348198
4.1542971
4.3750421
4.5982389
4.8256023
5.0594442
5.3026406
5.5583808
5.8298477
6.1198258
6.4300481
6.7604649
7.1084481
7.4675972
7.8294076
8.1881901
8.5120765
8.6553902
8.7444077
10.274701
10.81585
11.029495
10.743524
11.006411
10.168374
8.6552084
7.0055829
5.7595762
5.3662687
5.5921369
5.7828265
6.5412793
7.268759
7.0950748
8.1704829
8.2617497
8.4537365
8.453145
8.3206366
8.1501877
7.9652528
7.7643382
7.5455864
7.3125461
7.0699414
6.821103
6.5688338
6.3156435
6.0636175
5.8148995
5.5713129
5.3342102
5.1049013
4.8845408
4.6740299
4.4741638
4.2856296
4.1089436
3.9445057
3.7925749
3.6533243
3.5268154
3.413013
3.3118957
3.2233567
3.1472706
3.083405
3.0315821
2.9915758
2.9627457
2.9447236
2.9424833
-0.17703949
-0.16594615
-0.14109548
-0.10448728
-0.055959998
0.0046684106
0.077237662
0.16156504
0.25750274
0.36482546
0.48325897
0.61255163
0.75236668
0.90227908
1.0618567
1.2305886
1.4078661
1.5930389
1.7854012
1.9841517
2.1883998
2.3970382
2.6094956
2.8246085
3.0412904
3.2586097
3.4757523
3.6921032
3.9073516
4.1215962
4.3354264
4.5500791
4.7675615
4.9906988
5.2231329
5.4691647
5.7333892
6.0200873
6.3323086
6.6707424
7.0325294
7.4100425
7.7906762
8.1620003
8.4919569
8.6507697
8.8813397
9.2776644
10.326345
10.885331
11.223566
10.71937
9.5996992
7.787048
6.0528923
5.0874222
3.9458923
2.9409343
4.4074265
4.3440555
5.0778381
6.208876
6.9950521
7.8856108
7.842246
8.0475576
8.0266634
7.9139647
7.7689254
7.6010727
7.4070327
7.1912797
6.9611916
6.7215659
6.4762214
6.2284097
5.9800855
5.73475
5.4937352
5.2587059
5.0310658
4.8120702
4.6027204
4.4038483
4.2161858
4.0402812
3.8765486
3.7252873
3.5866707
3.4607789
3.3476482
3.2472699
3.1594919
3.0841866
3.0211126
2.9701045
2.9309067
2.902824
2.885529
2.8842081
-0.24882994
-0.23769516
-0.21252924
-0.17551638
-0.12637467
-0.064957563
0.0085426406
0.094013754
0.19128243
0.30012387
0.42034404
0.55167555
0.69375413
0.84619224
1.0085391
1.180243
1.3607164
1.5493066
1.7452146
1.9475407
2.1553173
2.3674871
2.5828429
2.8004514
3.0189755
3.237194
3.4539235
3.6682509
3.8795949
4.0878035
4.2932754
4.4972286
4.7019168
4.910719
5.1282229
5.36021
5.6133118
5.8941967
6.208271
6.5579829
6.9410497
7.3492477
7.7672494
8.181761
8.5684441
8.829932
9.170876
9.5462241
10.148082
10.435554
10.149215
10.050732
8.8413611
7.2665532
5.7152514
4.7556251
3.8046816
-0.021525854
-0.23596708
1.0965405
2.7163315
3.5153681
5.2117519
6.4224892
7.1923552
7.6186842
7.7233485
7.6695825
7.5641499
7.4292851
7.2603432
7.0619441
6.8442169
6.6132575
6.3744304
6.1312464
5.8868777
5.6441405
5.4051283
5.1716511
4.9452226
4.7271739
4.5186026
4.3204164
4.1333772
3.9580694
3.7949412
3.6443129
3.5063424
3.38115
3.2688033
3.1692794
3.0824488
3.0081157
2.9460514
2.8960476
2.8578236
2.8306672
2.8142942
2.8140792
-0.333038
-0.32178611
-0.29636026
-0.25887771
-0.20900598
-0.14672704
-0.072143218
0.014611155
0.11336757
0.22399301
0.34629375
0.47997733
0.62471997
0.78013549
0.94574147
1.1210242
1.3054126
1.4981766
1.6984381
1.9052486
2.1175634
2.3341832
2.5537789
2.7750051
2.9963324
3.2163597
3.4334115
3.6461525
3.8535395
4.0549993
4.2506052
4.4414235
4.6297997
4.8195983
5.0164842
5.2281287
5.4639724
5.7343278
6.0485221
6.4122296
6.8245266
7.2764831
7.7482797
8.2254184
8.6970726
9.0842573
9.5812985
9.8646224
10.015413
9.5666904
11.304358
10.272915
8.0172693
5.6084411
3.7671345
0.36231473
-3.1432769
-3.8545539
-4.1700143
-3.2291227
-1.0542693
1.2291145
3.0546565
5.1281494
6.458709
7.202047
7.436812
7.4366056
7.3660476
7.2596117
7.1123646
6.9289062
6.722247
6.4979971
6.2648481
6.0255933
5.7840225
5.5431915
5.3054849
5.0729075
4.8471298
4.6295515
4.421353
4.2235301
4.0368749
3.861999
3.6993652
3.5493108
3.4120215
3.2876181
3.1761987
3.0776862
2.9919632
2.9188133
2.8579861
2.8092173
2.7722213
2.7461885
2.7309425
2.7320671
-0.42977973
-0.41847627
-0.39268956
-0.35466628
-0.30409876
-0.24084065
-0.16507994
-0.076932103
0.023525084
0.13616695
0.26078889
0.39714788
0.54493621
0.70375053
0.87315511
1.0526731
1.2416832
1.4393944
1.6449198
1.8572583
2.0752427
2.2975333
2.5226429
2.7489178
2.9745349
3.1975429
3.4160191
3.6279998
3.8317108
4.0259519
4.2102636
4.3852977
4.5532096
4.7181381
4.8867905
5.0690413
5.2780338
5.5293786
5.8386832
6.2172473
6.6666714
7.1764158
7.7215393
8.2791697
8.8372234
9.3534347
9.8194896
10.109903
9.9022694
9.0154006
11.269465
9.5993386
6.7855935
2.8573021
-1.3969975
-4.2155847
-7.1450189
-8.4427215
-7.9409064
-6.5220556
-3.7815746
-1.118984
1.5545094
3.4588304
5.6199224
6.7738882
7.1707291
7.2208785
7.1819265
7.098124
6.9666864
6.7940156
6.595319
6.3775568
6.1479919
5.911303
5.6714557
5.4316709
5.1945509
4.9622452
4.7365406
4.5189429
4.310726
4.1129354
3.9263912
3.7517514
3.5894927
3.4399509
3.303379
3.1798856
3.0694921
2.9721731
2.8877437
2.8160134
2.7566714
2.7094126
2.6739404
2.6492765
2.6353294
2.6381298
-0.53931431
-0.52792082
-0.50175157
-0.46318678
-0.41183011
-0.34757579
-0.27056142
-0.18086555
-0.078538087
0.036288737
0.16347335
0.30280757
0.45397822
0.61663649
0.7904053
0.97478157
1.1691048
1.3726085
1.5844014
1.8034102
2.0283453
2.2577515
2.4899442
2.72295
2.9545504
3.1823632
3.4038546
3.6163367
3.8172409
4.0042772
4.1761339
4.3326605
4.4754004
4.6083144
4.7386872
4.8784875
5.0453757
5.2627087
5.5563629
5.9474125
6.4423346
7.0293767
7.6761218
8.3397572
8.9430166
9.4691546
9.8450963
10.167112
9.8574684
8.5941782
8.2731615
9.23318
4.8327864
0.84230628
-3.1611468
-7.3988962
-10.570539
-11.800722
-11.012085
-8.6073667
-5.4124187
-2.6536061
0.43795121
2.1437378
4.863088
6.3797449
6.9424788
7.0274252
7.0161838
6.9480638
6.8245593
6.6593707
6.4654864
6.2512748
6.0239319
5.7885973
5.5494093
5.3097421
5.0723871
4.8396258
4.6133526
4.3951853
4.1864731
3.9883002
3.8015408
3.6269052
3.4648997
3.3158453
3.1799973
3.057439
2.9482395
2.8523084
2.7694576
2.6994057
2.6418066
2.5963842
2.5627238
2.5396943
2.5273146
2.5321749
-0.66179085
-0.65032847
-0.62380303
-0.58463201
-0.5324763
-0.46719643
-0.38885604
-0.29747584
-0.19318272
-0.076008451
0.053953113
0.19650188
0.3513888
0.51833972
0.69697703
0.88678764
1.0871574
1.2973606
1.5164795
1.7433739
1.9766996
2.2148651
2.4559715
2.6977391
2.9375639
3.1725206
3.399311
3.6143015
3.8138617
3.9945781
4.1533938
4.2889283
4.4015797
4.4943212
4.5738797
4.6534571
4.7554079
4.9132698
5.1692552
5.5622989
6.1101303
6.8052418
7.6073258
8.4032463
9.0786716
9.6417902
9.8230475
10.100815
10.082061
9.0876005
8.5251618
6.0721852
2.8371984
0.084818063
-4.3631398
-8.9403996
-12.22119
-13.458277
-12.511134
-9.7620602
-5.7569428
-3.271339
-1.1742146
1.4578128
4.4367525
6.1049658
6.770992
6.8564472
6.8708408
6.8071363
6.6865006
6.5243604
6.3325651
6.1198103
5.8931246
5.6577949
5.4180813
5.1774745
4.9389275
4.7048699
4.4773101
4.2579332
4.0481451
3.8491331
3.6618373
3.4869661
3.3250562
3.1764147
3.0412911
2.9198183
2.8119825
2.7176598
2.6366457
2.5685777
2.5130642
2.4698127
2.4383319
2.41722
2.4067586
2.4140642
-0.7974236
-0.78593576
-0.7590068
-0.71924802
-0.6663023
-0.59993695
-0.52022131
-0.42719315
-0.3207769
-0.2011282
-0.06824097
0.077740465
0.23665977
0.40826804
0.5922074
0.78803666
0.99521751
1.2130297
1.4405471
1.676638
1.9199247
2.1686873
2.4208138
2.673791
2.9246107
3.1697163
3.404951
3.6255033
3.8262866
4.0022507
4.1485744
4.2614898
4.3393624
4.3831793
4.3970589
4.3926257
4.3951312
4.4498482
4.6251047
4.9924902
5.597419
6.4523174
7.5173712
8.5807447
9.4168227
9.8761897
9.8858252
10.145913
10.342596
9.6957029
9.0102474
7.6527383
3.8643289
0.54477653
-3.8632022
-8.379128
-11.799479
-13.233734
-12.462239
-10.200783
-6.1087548
-4.4139113
-1.8961496
1.5655496
4.3433641
6.3171494
6.5972633
6.7080456
6.733722
6.6690731
6.5492367
6.3876491
6.1961094
5.9831882
5.755692
5.5190099
5.277529
5.0348712
4.7941099
4.5577975
4.3280766
4.1067523
3.8952888
3.6949458
3.5067223
3.3313263
3.1693443
3.0210645
2.88672
2.7664216
2.6601261
2.5676735
2.4887835
2.423054
2.3700264
2.329356
2.3004471
2.2816138
2.2734486
2.2836267
-0.94643247
-0.93488433
-0.90760791
-0.86728627
-0.8135174
-0.74607256
-0.66500399
-0.57027657
-0.46181839
-0.33956034
-0.20361992
-0.054013303
0.10915745
0.28569686
0.47534881
0.67777753
0.8924815
1.1187742
1.3557927
1.6024607
1.8573733
2.1187222
2.384274
2.6513154
2.9164664
3.1755244
3.4233778
3.6537969
3.8597528
4.0339364
4.1693795
4.2600557
4.2996792
4.2862679
4.2183475
4.1001904
3.9539243
3.8342527
3.849831
4.1349393
4.7936126
5.8660495
7.3419225
8.8721147
9.9992633
10.566155
10.53157
10.797548
11.058899
10.719967
10.808609
10.244255
7.7287693
3.3491289
-0.99108637
-5.7534921
-9.4194394
-11.181458
-10.908276
-9.0646764
-6.9567082
-4.266534
-1.235333
1.7312552
4.640186
6.0771998
6.4339395
6.5700389
6.5906013
6.5287898
6.4094069
6.2477066
6.0554707
5.8412176
5.6116769
5.3723451
5.1278232
4.8819129
4.6377808
4.3981388
4.1652749
3.9411486
3.7273331
3.5250958
3.3354891
3.1592726
2.9970229
2.8490188
2.7154941
2.5965189
2.4920124
2.4017381
2.3253129
2.2622992
2.2121514
2.1745385
2.1486552
2.1325129
2.1270864
2.1406354
-1.1089777
-1.097424
-1.0698285
-1.0289371
-0.97439578
-0.90593547
-0.82352786
-0.72709745
-0.6165431
-0.49176745
-0.35271539
-0.19941034
-0.031874256
0.1498293
0.3455753
0.55508999
0.77793693
1.0135482
1.2611786
1.5198068
1.7880463
2.0641063
2.3457344
2.6300804
2.9134624
3.1911394
3.4569636
3.7031366
3.9201763
4.0976993
4.2257187
4.295152
4.2967945
4.219645
4.0553112
3.7933377
3.438501
3.0353763
2.7321571
2.775423
3.4208464
4.7711173
6.8656888
9.1516774
10.939057
11.72242
11.877166
12.141608
12.482312
12.47834
11.994265
13.013344
10.740384
5.9214371
2.0862005
-1.7532147
-5.4870678
-7.5596819
-8.0027479
-6.8699762
-4.6631169
-2.2453012
-0.45217122
3.9571293
5.8648552
5.9347458
6.2614154
6.418371
6.4391566
6.3832823
6.2652334
6.1038078
5.9104779
5.6940478
5.4614
5.2181865
4.9692515
4.7186685
4.4698106
4.2256182
3.9885404
3.7606385
3.543632
3.3388413
3.1473638
2.9699779
2.8072468
2.6594542
2.5268051
2.4093033
2.3068263
2.2190435
2.1454898
2.0856232
2.0388664
2.0048294
1.9824739
1.9694351
1.9673312
1.9848237
-1.2853004
-1.2737693
-1.2458501
-1.2044624
-1.1492363
-1.0798178
-0.9961408
-0.89810611
-0.7855412
-0.65826531
-0.51615895
-0.35920979
-0.18724227
-0.00019542146
0.20189587
0.41885046
0.65038623
0.89609936
1.1553752
1.4272783
1.7105348
2.0035027
2.3040223
2.6092155
2.9152584
3.217034
3.5075884
3.7775002
4.0138841
4.2023077
4.32903
4.3817508
4.347358
4.2071153
3.9386918
3.506942
2.8598889
1.965887
0.98857997
0.39522061
0.74646652
2.3816101
5.2439862
8.7404002
11.740099
13.364941
13.826982
14.040258
14.407001
14.524508
13.956175
13.711697
12.28409
9.5597271
6.9906117
3.5643065
-0.55587273
-2.4125273
-3.9986816
-3.8096986
-2.8911367
-0.79458254
2.1153521
4.6094201
5.1481381
5.7963352
6.1134276
6.2633176
6.2876714
6.2343619
6.11803
5.9569355
5.7621148
5.5426081
5.3056155
5.0570946
4.8021838
4.5453056
4.2901741
4.0399822
3.7974034
3.5646236
3.343477
3.1353666
2.9414556
2.7625048
2.5990469
2.4514014
2.3197232
2.2038691
2.1036447
2.0186953
1.9484765
1.8922609
1.8494495
1.8196114
1.8013712
1.791917
1.7937699
1.8158432
-1.4755932
-1.4640776
-1.4359271
-1.3941304
-1.3382819
-1.2680161
-1.1832229
-1.0837319
-0.96929893
-0.83971546
-0.69478267
-0.5342068
-0.35780304
-0.16537693
0.043151991
0.26779329
0.50846651
0.76492987
1.0367084
1.3230712
1.6229764
1.9350044
2.2572243
2.5869477
2.9204821
3.2526559
3.5761841
3.8803077
4.1472778
4.3570048
4.4912902
4.5356303
4.4745579
4.2785998
3.9050426
3.2707305
2.1882701
0.43867291
-1.8349233
-3.7867711
-4.2456842
-2.7903665
1.0438804
6.533008
11.754188
14.975302
16.174559
16.450624
16.86346
16.80968
16.551707
16.058439
14.838471
12.614386
10.956428
8.0672322
5.1579818
2.7098004
1.6321823
1.1013526
1.38658
2.6088541
3.5894721
4.540413
5.2741532
5.7065309
5.9794176
6.1107249
6.1378083
6.0850477
5.9704213
5.8092232
5.6122407
5.3885004
5.1455875
4.8899535
4.6271715
4.3620952
4.0988615
3.8409692
3.5913577
3.3523854
3.126013
2.9137507
2.716751
2.5358029
2.371403
2.2238662
2.0931628
1.9791502
1.8815049
1.7997856
1.7333212
1.6813
1.6430597
1.6181085
1.6045707
1.5993011
1.6058787
1.6332074
-1.6800112
-1.6685786
-1.6402675
-1.5981268
-1.5417927
-1.4708516
-1.3851229
-1.2843763
-1.1683306
-1.0366966
-0.88911097
-0.72513919
-0.5444963
-0.3468504
-0.13192376
0.10052199
0.35059819
0.61823611
0.90318926
1.2050197
1.5230019
1.8560344
2.2025617
2.5604153
2.9264143
3.2958089
3.6616181
4.0133712
4.3255448
4.5694808
4.7216089
4.768104
4.6976771
4.4724777
4.0105899
3.163441
1.4766454
-1.6516825
-5.8974544
-9.7892076
-11.423862
-9.9817474
-4.9868783
2.9314552
10.723522
16.048125
18.434348
19.38443
21.01171
19.818937
18.828045
17.949879
16.566261
14.748525
13.252052
11.112932
8.5950161
6.6287059
4.6685716
3.8092781
3.0253804
3.1573067
4.084759
4.8244827
5.2998135
5.6225883
5.8491484
5.9640719
5.9896558
5.9380982
5.8252521
5.6635217
5.463384
5.2338755
4.9830606
4.7180589
4.4450444
4.1694284
3.8958613
3.6282412
3.3698203
3.1231409
2.8902881
2.6729084
2.4721126
2.2886951
2.1230746
1.9754858
1.8458697
1.7339269
1.6392083
1.5611561
1.4989835
1.4517299
1.4187063
1.3993381
1.391193
1.3907944
1.4030289
1.4364194
-1.8987508
-1.8874374
-1.8590076
-1.8166564
-1.7600045
-1.6885803
-1.6021469
-1.5004583
-1.3831526
-1.2497952
-1.0998913
-0.93293223
-0.7483976
-0.5458188
-0.32467539
-0.0845245
0.17496149
0.45396538
0.75254403
1.0705859
1.4077245
1.7633067
2.1363567
2.5254474
2.9284919
3.3418604
3.7597195
4.1761801
4.5519297
4.8440774
5.021315
5.0782299
5.0223284
4.8171379
4.3284012
3.2698836
0.96873758
-3.663263
-9.7864304
-15.026747
-17.300975
-15.413566
-9.8460667
-0.67878095
9.1534329
16.131682
19.883256
21.0181
22.910796
21.819794
20.865719
19.530852
17.906564
16.157859
14.279608
12.111187
9.7036226
7.308508
5.8754089
4.7489991
4.1934697
4.1918405
4.5295387
4.9245078
5.2498504
5.5195513
5.7136094
5.819436
5.8446217
5.7964497
5.6859641
5.5234002
5.3188113
5.0815278
4.820263
4.5430191
4.2568125
3.9677654
3.6811726
3.4014106
3.1320546
2.8759243
2.635213
2.4115985
2.2061974
2.01976
1.8526189
1.7049716
1.5765322
1.4668847
1.3754632
1.3015323
1.2441564
1.2022608
1.1751906
1.1621682
1.1601479
1.1654196
1.1844244
1.2248403
-2.1319422
-2.1207306
-2.0923167
-2.0498864
-1.9930786
-1.9213982
-1.8345935
-1.7323524
-1.614189
-1.4795517
-1.3278482
-1.1584326
-0.97057194
-0.76351674
-0.53658188
-0.28909458
-0.020445892
0.26987331
0.58223198
0.91684848
1.2737807
1.6529111
2.0540064
2.4766079
2.9203891
3.3839092
3.8624579
4.3628481
4.8248887
5.1799145
5.381937
5.4479557
5.4237673
5.290928
4.8745676
3.7189104
0.87759531
-4.3797745
-11.117215
-16.718141
-18.94559
-17.144929
-11.734087
-2.7349828
7.2567678
14.351049
18.698886
20.864875
23.484434
23.427623
22.470845
20.639693
18.638104
16.708417
14.791739
12.669286
10.352302
8.2174342
6.5511453
5.3642797
4.7377802
4.5443073
4.6530899
4.8880762
5.1445851
5.3813607
5.5622157
5.6705024
5.7031894
5.6629261
5.5566959
5.3932698
5.1826253
4.9349091
4.6598754
4.366679
4.0635355
3.7575221
3.4546473
3.1598847
2.8771446
2.6095481
2.3594248
2.1283899
1.9175271
1.727457
1.5584103
1.4107649
1.2836838
1.1766078
1.0888067
1.0194344
0.9673674
0.93145782
0.91102115
0.90509428
0.90996037
0.92179871
0.94902513
0.99768293
-2.3796706
-2.3685612
-2.3402934
-2.2978825
-2.2410994
-2.1694746
-2.0826817
-1.9803141
-1.8618025
-1.7265161
-1.5737189
-1.4025469
-1.2120421
-1.0012458
-0.76923948
-0.51506131
-0.23775347
0.063525056
0.3894469
0.74058198
1.1174398
1.5204557
1.9500991
2.4067343
2.8925359
3.4098868
3.9556588
4.5467033
5.1183265
5.5751432
5.7701421
5.8271956
5.8340843
5.8030492
5.5523202
4.5596843
1.9319964
-2.9856436
-9.090236
-14.044566
-16.141732
-14.964916
-10.343039
-2.6386834
5.4943059
15.429592
23.371183
19.580019
22.768061
24.639824
23.594645
21.341902
18.772825
16.163441
14.241378
12.204868
10.059025
8.089304
6.5160186
5.3986209
4.7765673
4.5399465
4.5658517
4.7372956
4.9659026
5.1959147
5.3867863
5.5141621
5.5665335
5.5413699
5.4426884
5.2786251
5.0598823
4.7981358
4.5049245
4.1910796
3.8662991
3.5389255
3.2158679
2.9027302
2.6038422
2.3225449
2.0612595
1.8215507
1.6044096
1.4101532
1.2385652
1.0912052
0.96564911
0.86138996
0.77760042
0.7132411
0.66696891
0.63757968
0.62440804
0.62622129
0.63865313
0.65809813
0.69538495
0.75383021
-2.64203
-2.6309459
-2.6029142
-2.5606466
-2.504124
-2.4328702
-2.3464814
-2.2445117
-2.1263392
-1.9912046
-1.8381643
-1.6661315
-1.4739577
-1.2604528
-1.0243544
-0.76437563
-0.47922237
-0.16771617
0.17116099
0.53834886
0.93476147
1.3612677
1.8189797
2.3086252
2.8353922
3.4025908
4.0008808
4.6577201
5.3340001
5.8827785
6.0638041
6.1610347
6.2068489
6.2701947
6.2487698
5.7090309
4.0061218
0.67533808
-3.7325685
-7.8381033
-10.230512
-10.459973
-7.1270199
-0.70657728
6.4694913
19.676269
34.500485
17.32017
23.044547
25.581616
24.609973
22.007255
18.480011
15.47166
13.140459
11.038116
9.0113588
7.2458799
5.8858884
4.9557889
4.4380372
4.2443044
4.2749499
4.4466231
4.690012
4.9493817
5.1801332
5.3497627
5.4382862
5.4381172
5.3513573
5.1866722
4.9567709
4.6760309
4.358737
4.0181238
3.6658541
3.3118002
2.9639297
2.628541
2.3104193
2.0129926
1.7386841
1.4890085
1.2647701
1.0661705
0.89305476
0.74478365
0.62060759
0.51940448
0.44004772
0.38110708
0.34108555
0.31869354
0.31322709
0.32320011
0.34359416
0.37182641
0.42163991
0.49202367
-2.919029
-2.9078401
-2.8801151
-2.838137
-2.7820684
-2.7114749
-2.6259593
-2.5250601
-2.4080569
-2.2740005
-2.1217476
-1.9500276
-1.757462
-1.5425334
-1.3036165
-1.0390888
-0.74729318
-0.4266466
-0.075771255
0.30661537
0.72167207
1.1704508
1.6542182
2.1719129
2.728475
3.3183756
3.9630361
7.8361174
9.0972997
7.3472992
6.1439713
6.3111596
6.4540378
6.6752845
6.8994191
6.9017495
6.4038035
5.0738803
2.6222838
-0.95654401
-4.4820571
-6.0884957
-4.141644
0.93728293
6.9840536
18.986702
29.053782
16.407382
23.299841
26.315718
25.609521
22.615828
18.566449
14.899648
12.094656
9.6301238
7.4372912
5.7679093
4.6884979
4.0638639
3.7623537
3.6880328
3.7768299
3.992207
4.2927141
4.6246862
4.934638
5.1784243
5.3253928
5.3630173
5.2931021
5.1268541
4.880955
4.5741156
4.2247433
3.849448
3.4623971
3.0752926
2.697279
2.3352826
1.9944764
1.6783503
1.3891584
1.1282009
0.89602702
0.69261743
0.51754089
0.36878613
0.24632988
0.14861946
0.074138071
0.021115964
-0.012293205
-0.027424323
-0.025033781
-0.0069956011
0.021298155
0.059630355
0.12544828
0.21086151
-3.2106273
-3.19926
-3.1717985
-3.1301511
-3.0746589
-3.0050483
-2.9209805
-2.8219235
-2.7070176
-2.5751388
-2.4249729
-2.2550294
-2.0636187
-1.8488535
-1.6087572
-1.3413255
-1.0445136
-0.71614394
-0.35456343
0.041818391
0.47434382
0.94405389
1.452674
1.9961342
2.5962093
3.3080007
4.5863961
10.658916
12.151257
12.936239
7.1733708
6.3967857
6.6091978
7.0486334
7.470602
7.7995008
8.1646125
8.4497973
7.3138196
3.9142531
-0.73080167
-3.9640205
-3.0548206
0.78942845
1.2458409
18.868634
20.603857
18.872586
24.206495
26.725651
26.400684
23.417941
18.984179
14.959229
11.548551
8.3267517
5.4795858
3.599373
2.8056542
2.6605446
2.7316562
2.8575506
3.0424988
3.3343775
3.7385927
4.199867
4.6426267
5.0051764
5.2400599
5.3311288
5.282579
5.1114788
4.8415933
4.4983428
4.1060593
3.6858953
3.2551584
2.8275062
2.4132871
2.0199713
1.6528676
1.3153655
1.0094725
0.73603518
0.49518456
0.28648045
0.10903545
-0.039460389
-0.15958535
-0.25312871
-0.32217461
-0.36888609
-0.3953942
-0.40317708
-0.39308657
-0.36795682
-0.33315949
-0.28404681
-0.19770748
-0.093778279
-3.5168622
-3.5052197
-3.4777338
-3.436299
-3.3814823
-3.3132088
-3.2311891
-3.134799
-3.02306
-2.8947097
-2.7482257
-2.5818047
-2.3933902
-2.180744
-1.9414864
-1.6732082
-1.3736461
-1.0392652
-0.66861372
-0.25965822
0.18893918
0.67746456
1.2043765
1.757677
2.3436801
2.9207301
6.3759549
11.079705
11.580515
11.510863
6.5793409
5.9982037
6.6516764
7.4507506
7.9976002
8.3495218
8.9102667
9.4944924
8.7614278
5.6393159
-0.53149282
-5.9173772
-5.4515483
-0.23949084
1.3798449
14.476427
14.640973
16.972665
23.009382
26.149424
26.578727
24.139114
19.88226
15.597493
11.542475
7.3968048
3.5239133
1.009635
0.34336098
0.79516261
1.395607
1.76776
2.0194995
2.3918341
2.9673441
3.6477274
4.2983347
4.8443011
5.2040536
5.3657964
5.3408534
5.1565756
4.8491831
4.4544426
4.0047291
3.5268448
3.041662
2.564849
2.1077884
1.6782553
1.281288
0.91994825
0.5957164
0.30882367
0.058852711
-0.15528744
-0.33508415
-0.48275516
-0.59975435
-0.68835609
-0.75116471
-0.79100735
-0.81044732
-0.81092899
-0.79346216
-0.76304599
-0.72580558
-0.66734776
-0.55315171
-0.42413753
-3.8378598
-3.8256412
-3.7976384
-3.7560863
-3.7019427
-3.6352878
-3.555892
-3.4631017
-3.355824
-3.2326115
-3.0916612
-2.9308215
-2.7476649
-2.5395621
-2.3036696
-2.0369214
-1.7361315
-1.3991507
-1.0216057
-0.60144866
-0.137003
0.37250983
0.92236556
1.5015556
2.09021
2.7447541
3.1995956
6.559119
7.339088
6.3339189
5.6338517
5.9519933
6.9546593
7.9714428
8.5117556
8.5153442
8.1975255
8.2629318
7.6197292
4.3496724
-4.8029293
-12.521751
-11.62323
-6.3305591
2.4622821
11.12005
6.8650194
15.003026
21.362868
24.683664
25.789538
23.925696
20.051119
15.251327
10.701524
6.0962911
1.3654218
-2.0108259
-2.8017387
-1.6469122
-0.27248813
0.41955972
0.61956733
0.98997505
1.8606364
2.9445183
3.8992421
4.6944671
5.2429241
5.4960128
5.4911137
5.2788866
4.9135001
4.446645
3.9204181
3.3689756
2.8168101
2.2814149
1.7746423
1.3040817
0.8740924
0.48691473
0.14314832
-0.15776121
-0.41705623
-0.63643329
-0.81795228
-0.9641548
-1.077143
-1.159721
-1.2151787
-1.247294
-1.2594244
-1.2527851
-1.2283214
-1.1952957
-1.1646083
-1.1036469
-0.94780874
-0.77736123
-4.1739437
-4.1605434
-4.1312063
-4.0888672
-4.0351085
-3.9702184
-3.8940612
-3.8059617
-3.7046635
-3.5884403
-3.4551702
-3.3023733
-3.127225
-2.9266033
-2.6971047
-2.4351631
-2.1371178
-1.7995464
-1.417905
-0.9885599
-0.50909806
0.023179987
0.60403381
1.236647
1.9474899
2.7880067
3.558689
4.5853926
5.6004761
6.0464221
5.906778
6.5437997
7.8035367
8.8440602
9.293061
8.8831855
7.619992
7.0945844
7.8905233
3.9718087
-11.507398
-22.585718
-18.887855
-11.569456
-2.0550418
3.4681475
8.5384913
15.111818
20.087737
22.737081
23.526318
21.861487
18.064533
12.235521
6.2591938
2.4333637
-1.3989029
-5.6981561
-7.0556475
-4.8644067
-2.2914671
-1.2327364
-1.3573202
-1.1248027
0.42050591
2.0813562
3.4572181
4.630574
5.4269532
5.7737708
5.7718747
5.5015471
5.0451993
4.4757529
3.8482857
3.2046368
2.571747
1.9681158
1.4051859
0.88945599
0.42402546
0.0097899409
-0.35396258
-0.6689056
-0.93718106
-1.1611105
-1.3434339
-1.487169
-1.5951093
-1.670277
-1.716749
-1.7396697
-1.7441061
-1.7314753
-1.7016683
-1.6725455
-1.6760921
-1.6530574
-1.4468453
-1.2016564
-4.5260161
-4.5102288
-4.477995
-4.4335748
-4.3795658
-4.3165156
-4.2442975
-4.1621343
-4.0685267
-3.9614285
-3.8383907
-3.6965679
-3.5326573
-3.3429646
-3.1235151
-2.8701004
-2.5783188
-2.2436924
-1.8624936
-1.4272008
-0.93504095
-0.38229577
0.22924315
0.9000691
1.663845
2.5465264
3.4656814
4.5569917
5.565315
6.4628642
6.6662154
7.6601135
9.111483
10.059821
10.343001
9.7284052
8.4266428
9.6383524
16.95512
14.332793
-14.094033
-14.402256
-12.221431
-8.0726841
-5.3580608
-0.53639993
9.5433746
16.171979
20.068078
21.761502
21.282793
18.828133
14.448196
9.4772711
13.609423
2.8036475
-3.8126825
-8.2774884
-10.219817
-8.0070957
-6.8193291
-5.6383614
-3.870265
-3.2312772
-1.5419367
1.1205304
2.9873098
4.6796575
5.8356797
6.2528363
6.2222899
5.8428815
5.2470306
4.5360078
3.7785553
3.0203678
2.2924933
1.6117882
0.98754493
0.4240321
-0.077817168
-0.51916612
-0.90239475
-1.2305583
-1.5068537
-1.7344413
-1.9165174
-2.0564115
-2.1580019
-2.2235402
-2.2585047
-2.2697186
-2.2649562
-2.2459516
-2.2110337
-2.1959127
-2.2860171
-2.4085296
-2.144877
-1.7342647
-4.8961042
-4.8754303
-4.837271
-4.7885962
-4.7333276
-4.6721265
-4.6046662
-4.5298571
-4.4459042
-4.3504484
-4.2406589
-4.1132193
-3.9642912
-3.7895945
-3.584539
-3.3441849
-3.0632381
-2.7362727
-2.35764
-1.9233611
-1.4235345
-0.85493514
-0.21678426
0.49124905
1.3030456
2.2272764
3.2629653
4.4787162
5.9679786
7.2611007
7.7716747
8.8925621
10.256001
10.979465
10.76816
9.4184227
8.9421297
14.571453
28.660408
40.011988
28.129414
-8.2231849
-6.1360348
-11.605952
-4.7629143
5.0076636
13.075525
18.767272
21.908198
22.839145
21.618348
18.684141
14.371253
8.648324
9.5450428
10.269499
-7.9293146
-11.383055
-20.5213
-33.501967
-33.507654
-22.684431
-13.550706
-8.3907174
-4.8411955
0.46843594
2.7113511
4.9686707
6.6012427
7.0182395
6.8677522
6.3087986
5.507255
4.6068008
3.6852754
2.7932177
1.9585935
1.1945685
0.50643556
-0.1051254
-0.64234801
-1.1091302
-1.5099983
-1.8496257
-2.1324468
-2.3625142
-2.5431771
-2.6779461
-2.7713157
-2.8239906
-2.8440206
-2.8387784
-2.8167561
-2.7768316
-2.7156041
-2.6833275
-2.7949006
-2.9369808
-1.9381749
2.7316103
-5.288239
-5.2572869
-5.2075588
-5.1512973
-5.0935562
-5.0342261
-4.9724661
-4.9067362
-4.834817
-4.7539715
-4.6609027
-4.5517628
-4.4221829
-4.2672855
-4.0817507
-3.859826
-3.5953529
-3.2819302
-2.9130366
-2.4821873
-1.9829482
-1.4048481
-0.74453972
0.002355529
0.86789075
1.8953042
3.1326025
4.6010571
6.2035077
7.5459992
8.886977
10.042107
11.1569
10.706035
6.7386688
-1.7850424
-5.7199999
9.5297513
21.361735
38.796435
1.4929165
-1.1371157
-5.0879465
-0.84560671
5.4935654
13.267985
20.764541
24.454657
25.719768