/*--------------------------------*- C++ -*----------------------------------*\
  =========                 |
  \\      /  F ield         | OpenFOAM: The Open Source CFD Toolbox
   \\    /   O peration     | Website:  https://openfoam.org
    \\  /    A nd           | Version:  9
     \\/     M anipulation  |
\*---------------------------------------------------------------------------*/
FoamFile
{
    format      ascii;
    class       surfaceScalarField;
    location    "0.87";
    object      phi;
}
// * * * * * * * * * * * * * * * * * * * * * * * * * * * * * * * * * * * * * //

dimensions      [0 3 -1 0 0 0 0];

internalField   nonuniform List<scalar> 
19800
(
2.6728327e-05
4.2053602e-05
3.1369782e-05
4.3156964e-05
3.56757e-05
4.4970966e-05
3.9645149e-05
4.6928487e-05
4.3074434e-05
4.9427038e-05
4.5917882e-05
5.2180603e-05
4.8071424e-05
5.5234876e-05
4.9408582e-05
5.8551247e-05
4.9827567e-05
6.2092199e-05
4.9173198e-05
6.5808758e-05
4.7311815e-05
6.9646102e-05
4.4087912e-05
7.3638548e-05
3.9316954e-05
7.7703315e-05
3.2830538e-05
8.1749274e-05
2.4360533e-05
8.5899201e-05
1.367691e-05
9.0037719e-05
4.8576775e-07
9.4161291e-05
-1.554134e-05
9.8235445e-05
-3.4772465e-05
0.0001022882
-5.7768773e-05
0.00010635037
-8.483774e-05
0.0001101836
-0.00011665326
0.00011471435
-0.00015280443
0.0001196857
-0.00019351579
0.00012542228
-0.00023898781
0.00013165042
-0.00028939324
0.00013826316
-0.00034484751
0.00014512142
-0.0004053983
0.0001520052
-0.00047098092
0.00015865478
-0.00054136308
0.00016480944
-0.00061610737
0.00017023619
-0.00069452884
0.00017469325
-0.00077566143
0.0001779806
-0.00085832251
0.00018003479
-0.00094127363
0.00018083487
-0.0010233891
0.00018040328
-0.0011038341
0.00017900947
-0.0011822726
0.00017717284
-0.0012591028
0.00017562929
-0.0013356799
0.00017520558
-0.001414554
0.00017650529
-0.0014993525
0.00017926394
-0.001593775
0.00018125473
-0.001700712
0.00017844185
-0.0018218432
0.00016371213
-0.0019414249
0.00010454388
-0.0019761857
-8.4162167e-05
-0.0017948176
-0.00047548515
-0.0012729615
-0.0010090547
-0.00054833131
-0.0013442384
4.9471951e-05
-0.0012518723
0.00082889899
-0.0016121718
0.0014211778
-0.0013798811
0.0021406114
-0.0017090312
0.0029518322
-0.0019533247
0.0040496493
-0.002487922
0.0053264699
-0.0026507492
0.0063229598
-0.0020157763
0.00681556
-0.0011933648
0.0065741607
-0.00019140383
0.0060151607
0.00042369968
0.005461402
0.00074888353
0.004973775
0.00094795239
0.0045048304
0.0011042536
0.0040251229
0.0012523484
0.00355534
0.001360189
0.0031150609
0.0014115316
0.0027102645
0.0014153421
0.0023427874
0.0013903628
0.0020127947
0.0013470696
0.0017178726
0.0012881003
0.0014541643
0.001215512
0.0012178011
0.0011319456
0.0010052865
0.0010405047
0.00081356823
0.00094504796
0.00064014994
0.00084975564
0.00048314443
0.00075816437
0.00034118201
0.00067248169
0.00021327354
0.00059360191
9.8779229e-05
0.00052164232
-2.4669922e-06
0.00045588084
-9.0823307e-05
0.00039632798
-0.00016681317
0.00034236322
-0.00023078767
0.00029330436
-0.00028313246
0.00024861302
-0.00032440962
0.00020776163
-0.00035528238
0.00017014308
-0.00037619674
0.00013509459
-0.00038741438
0.00010189312
-0.00039070573
7.1396757e-05
-0.00038770257
4.3200193e-05
-0.0003798518
1.7450354e-05
-0.0003674658
-5.4243769e-06
-0.00034742453
-2.5228941e-05
-0.00031939093
-4.135481e-05
-0.00028456478
-5.4833764e-05
-0.0002440365
-6.6049683e-05
-0.00019865413
-7.5369768e-05
-0.00014940966
-8.2642928e-05
-8.9768614e-05
2.8124288e-05
3.6393154e-05
3.3454719e-05
3.7841548e-05
3.8350905e-05
4.0064105e-05
4.2834744e-05
4.2455458e-05
4.6680582e-05
4.5570894e-05
4.9894458e-05
4.8976802e-05
5.2326828e-05
5.2794064e-05
5.3885323e-05
5.7002264e-05
5.4450048e-05
6.1529875e-05
5.3889838e-05
6.6366433e-05
5.2055603e-05
7.1482199e-05
4.8806263e-05
7.6871318e-05
4.395304e-05
8.254646e-05
3.7322031e-05
8.8378975e-05
2.8658925e-05
9.4555881e-05
1.7823143e-05
0.00010087614
4.4785761e-06
0.00010750848
-1.1661895e-05
0.00011436778
-3.0927539e-05
0.0001215535
-5.380579e-05
0.00012923451
-8.0865028e-05
0.00013723875
-0.00011198562
0.00014583045
-0.0001475177
0.00015522038
-0.00018767653
0.00016557846
-0.00023283348
0.00017680164
-0.00028311492
0.00018855012
-0.00033865849
0.00020067527
-0.00039951612
0.0002128632
-0.00046560451
0.00022473889
-0.00053666676
0.00023587385
-0.00061221812
0.00024579157
-0.00069151549
0.00025398845
-0.00077355992
0.00026002172
-0.00085712276
0.00026359995
-0.00094085823
0.00026457135
-0.001023495
0.00026303257
-0.0011040351
0.00025954389
-0.0011820614
0.00025520396
-0.0012581292
0.00025170142
-0.0013341784
0.00025124959
-0.0014141625
0.00025648336
-0.0015045453
0.00026964484
-0.0016135174
0.00029022717
-0.0017519641
0.00031688997
-0.0019475151
0.00035926239
-0.0022281948
0.00038522565
-0.0024618916
0.00014953916
-0.0022110589
-0.00072631853
-0.0012073277
-0.0020127882
-4.5473177e-05
-0.0025060958
0.00089515475
-0.0021924986
0.0019750066
-0.0026920241
0.0023585678
-0.0017634477
0.0029042772
-0.0022547411
0.0038349835
-0.0028840261
0.0051869995
-0.0038399348
0.0065917598
-0.004055506
0.0079025884
-0.0033266032
0.0083222544
-0.0016130355
0.0078451076
0.00028574049
0.0069393042
0.0013295032
0.0059492919
0.0017388987
0.0051556596
0.0017415891
0.0045568357
0.001703083
0.0040339745
0.0017752154
0.0035344779
0.0018596923
0.0030594397
0.0018865692
0.0026287679
0.0018460125
0.0022495777
0.0017695605
0.0019174136
0.0016792391
0.0016252873
0.0015802296
0.0013667312
0.0014740736
0.0011362289
0.0013624509
0.00092921301
0.0012475244
0.00074208129
0.0011321862
0.00057224768
0.0010195925
0.00041807036
0.00091234223
0.00027858529
0.00081196454
0.00015318177
0.00071899819
4.1481394e-05
0.00063333592
-5.704778e-05
0.00055440809
-0.00014279807
0.00048207622
-0.00021615908
0.00041572017
-0.00027764145
0.00035478596
-0.00032771861
0.00029868932
-0.00036688722
0.00024692857
-0.00039573256
0.00019898616
-0.00041505856
0.00015441434
-0.00042603338
0.0001128653
-0.00042889569
7.4255712e-05
-0.00042447898
3.878035e-05
-0.00041187403
4.8452532e-06
-0.00039278978
-2.4507485e-05
-0.00036753618
-5.0481074e-05
-0.0003358919
-7.2999286e-05
-0.00029822028
-9.2509418e-05
-0.00025516828
-0.00010910833
-0.00020747255
-0.00012306437
-0.00015599545
-0.00013412147
-0.00014496522
2.9751951e-05
3.0169139e-05
3.554498e-05
3.203941e-05
4.0979453e-05
3.4635594e-05
4.5886614e-05
3.7537932e-05
5.0230938e-05
4.1232693e-05
5.3868897e-05
4.5327095e-05
5.6720447e-05
4.9945038e-05
5.8640003e-05
5.5079236e-05
5.9532276e-05
6.0632132e-05
5.9296883e-05
6.660884e-05
5.7756826e-05
7.3017438e-05
5.4781148e-05
7.9845931e-05
5.0187679e-05
8.7145577e-05
4.3730154e-05
9.4833301e-05
3.5432867e-05
0.00010285426
2.4867763e-05
0.00011144368
1.1782234e-05
0.00012058554
-4.0734635e-06
0.00013021983
-2.3101872e-05
0.00014058696
-4.5485087e-05
0.00015161556
-7.1613828e-05
0.00016336299
-0.00010188467
0.00017610424
-0.00013666993
0.00019000552
-0.00017611041
0.00020501315
-0.00022061265
0.00022130641
-0.00027038512
0.00023833234
-0.00032568448
0.00025597737
-0.00038663382
0.00027380976
-0.00045320416
0.00029131126
-0.00052516739
0.00030784107
-0.00060203706
0.00032266069
-0.00068304325
0.00033499337
-0.00076713115
0.0003441111
-0.00085293767
0.00034940662
-0.0009388602
0.00035049018
-0.0010232699
0.00034743763
-0.0011046852
0.00034095896
-0.0011822115
0.00033273559
-0.001255941
0.00032543321
-0.00132771
0.00032301267
-0.0014019829
0.00033075154
-0.0014867492
0.0003544118
-0.0015941195
0.00039759828
-0.0017517056
0.00047447863
-0.0020403928
0.00064795131
-0.0025226218
0.00086745444
-0.0027952279
0.00042214431
-0.001957429
-0.0015641234
-0.00015738507
-0.0038128356
0.0014688227
-0.0041323042
0.0025714317
-0.0032951046
0.0032212824
-0.0033418729
0.0041199563
-0.0026621231
0.0050034534
-0.0031382391
0.0059873015
-0.0038678725
0.007030131
-0.00488276
0.0080932554
-0.0051186312
0.0090102451
-0.0042435937
0.0095001104
-0.0021029037
0.0097527512
3.3104165e-05
0.0091122345
0.0019700206
0.0077935643
0.0030575703
0.0063497261
0.0031854289
0.0051126697
0.0029401375
0.004224775
0.0026631156
0.0035768187
0.0025076438
0.0030309778
0.0024324164
0.0025511614
0.0023258256
0.0021406824
0.002180039
0.0017927666
0.0020271604
0.0014941139
0.0018788876
0.0012342843
0.0017339096
0.0010058156
0.0015909174
0.00080276557
0.0014505751
0.00062061167
0.0013143462
0.00045633718
0.0011838682
0.0003081762
0.0010605009
0.00017510018
0.00094503801
5.6445096e-05
0.00083764822
-4.8169538e-05
0.00073794479
-0.00013961036
0.00064584774
-0.00021839359
0.00056086011
-0.00028516197
0.00048248501
-0.00034051079
0.00041013345
-0.00038497474
0.00034315297
-0.000419129
0.00028107975
-0.00044353966
0.00022339506
-0.00045881121
0.00016968214
-0.00046553874
0.00011959086
-0.00046423127
7.2946095e-05
-0.00045501528
2.9564341e-05
-0.00043986426
-1.0305853e-05
-0.00041798055
-4.6389321e-05
-0.00038959063
-7.8868606e-05
-0.00035489463
-0.00010770119
-0.00031445426
-0.00013295074
-0.00026881281
-0.00015475281
-0.00021858587
-0.00017329294
-0.00016457396
-0.00018813428
-0.00020282107
3.1362057e-05
2.341331e-05
3.7767755e-05
2.5647733e-05
4.3742165e-05
2.8652208e-05
4.9198893e-05
3.2094592e-05
5.4096365e-05
3.6329388e-05
5.8228797e-05
4.1200823e-05
6.1566307e-05
4.6608065e-05
6.3964375e-05
5.2673952e-05
6.5330029e-05
5.9269487e-05
6.5518531e-05
6.6414132e-05
6.4465409e-05
7.4066401e-05
6.1872642e-05
8.244282e-05
5.78772e-05
9.1137828e-05
5.2028094e-05
0.00010068211
4.4184533e-05
0.0001107021
3.417258e-05
0.00012145066
2.1740927e-05
0.00013301332
6.5750401e-06
0.00014539034
-1.1521944e-05
0.0001586825
-3.2936567e-05
0.00017302354
-5.8157575e-05
0.00018858501
-8.7368125e-05
0.00020531685
-0.00012103916
0.00022367169
-0.00015937094
0.00024334419
-0.00020299645
0.00026494042
-0.00025220606
0.00028754702
-0.00030735937
0.00031112815
-0.00036870374
0.00033515492
-0.00043633583
0.00035894943
-0.00051014392
0.00038165056
-0.00058970929
0.00040222298
-0.00067423446
0.00041952034
-0.00076247809
0.00043235861
-0.00085275381
0.0004396789
-0.00094298957
0.00044072009
-0.0010308276
0.00043527663
-0.0011139443
0.00042407962
-0.001190386
0.00040917801
-0.0012592473
0.00039429241
-0.0013214693
0.00038523107
-0.0013807008
0.00038998276
-0.0014436954
0.00041741057
-0.0015284903
0.00048239476
-0.0016974955
0.00064348454
-0.0020585031
0.0010089583
-0.002549636
0.001358582
-0.0024577906
0.00033029445
-0.00070574679
-0.003316171
0.0013148908
-0.0058334721
0.0031769012
-0.0059943118
0.004794836
-0.0049130375
0.0061879959
-0.0047350355
0.0072307811
-0.00370491
0.0081138404
-0.0040212941
0.0089692734
-0.0047233073
0.0096138186
-0.0055273049
0.010185765
-0.0056905788
0.010445151
-0.0045029762
0.010432455
-0.0020902082
0.010257462
0.00020810171
0.010024329
0.0022031511
0.0090660417
0.0040158562
0.0075217195
0.0047297509
0.0057196289
0.0047422251
0.0043525312
0.0040302225
0.0034992356
0.0033609361
0.0029185767
0.0030130741
0.0024343847
0.0028100256
0.0020112901
0.0026031379
0.0016517868
0.0023866622
0.0013474735
0.0021832004
0.0010860019
0.0019953857
0.00085861675
0.0018183073
0.00065899927
0.0016501931
0.00048228427
0.0014910595
0.00032503765
0.0013411143
0.0001850204
0.0012005154
6.0770905e-05
0.0010692868
-4.8536587e-05
0.00094695903
-0.00014429426
0.00083370323
-0.00022733165
0.00072888557
-0.00029836941
0.00063190073
-0.00035813209
0.00054224506
-0.00040724563
0.0004592433
-0.00044619179
0.0003820971
-0.00047554007
0.0003104248
-0.0004957013
0.00024355639
-0.00050717219
0.00018114987
-0.00051044213
0.0001228566
-0.00050592061
6.8424827e-05
-0.0004944172
1.8063263e-05
-0.00047576865
-2.8956254e-05
-0.00045029045
-7.1872056e-05
-0.0004183409
-0.00011082096
-0.00038022432
-0.00014582236
-0.00033637468
-0.00017679991
-0.00028727919
-0.00020384783
-0.00023354261
-0.00022702826
-0.00017610455
-0.00024557666
-0.00026417772
3.3705832e-05
1.5825391e-05
4.0750922e-05
1.8596411e-05
4.7335812e-05
2.2075545e-05
5.3445269e-05
2.598007e-05
5.8886115e-05
3.0893317e-05
6.3640965e-05
3.644563e-05
6.7524552e-05
4.2718596e-05
7.0547837e-05
4.9656025e-05
7.2501595e-05
5.731399e-05
7.3270775e-05
6.5643177e-05
7.2689062e-05
7.4653248e-05
7.0889037e-05
8.4239331e-05
6.7308461e-05
9.4714425e-05
6.224292e-05
0.00010574967
5.5135065e-05
0.0001178052
4.6000617e-05
0.00013057964
3.4476488e-05
0.00014454067
2.0302467e-05
0.00015956345
3.3911024e-06
0.00017558555
-1.6905001e-05
0.00019331774
-4.0740487e-05
0.0002124233
-6.8655362e-05
0.00023322855
-0.000100789
0.00025580236
-0.00013775041
0.00028031089
-0.00018007193
0.00030726717
-0.00022837777
0.00033585136
-0.00028309405
0.00036584367
-0.00034463566
0.00039670142
-0.00041328937
0.00042760717
-0.00048909637
0.0004574564
-0.0005717483
0.0004848741
-0.00066047907
0.00050825505
-0.00075397899
0.0005258613
-0.00085029201
0.00053598748
-0.00094678073
0.00053720433
-0.0010401741
0.00052867332
-0.0011268076
0.0005107165
-0.0012030782
0.00048544514
-0.0012661464
0.00045735838
-0.001314789
0.00043387614
-0.0013493495
0.0004245466
-0.0013719654
0.0004400292
-0.0014027352
0.00051316274
-0.0015112588
0.00075200552
-0.0017429681
0.0012406671
-0.0018334764
0.0014490866
-0.00098658869
-0.00051659572
0.0009515
-0.0052542604
0.0026000106
-0.0074819818
0.0043428782
-0.0077371802
0.0060799365
-0.006650094
0.0076487513
-0.0063038504
0.0095500509
-0.0056062141
0.010799984
-0.0052712229
0.011704562
-0.005627887
0.012239569
-0.0060623116
0.01264664
-0.0060976494
0.012684575
-0.0045409043
0.011888563
-0.0012941946
0.011028217
0.0010684521
0.009982556
0.0032488048
0.008817154
0.0051812604
0.0071431482
0.0064037554
0.0054881
0.006397276
0.0040837547
0.0054345719
0.0031748059
0.0042698894
0.002624724
0.0035631542
0.0022054293
0.0032293193
0.0018168308
0.0029917406
0.0014675568
0.0027359437
0.00116901
0.0024817536
0.00091361071
0.0022507849
0.00069257091
0.0020393469
0.00050005666
0.0018427071
0.00033145676
0.0016596597
0.00018325923
0.0014893142
5.3008349e-05
0.0013307639
-6.10195e-05
0.0011833109
-0.00016093211
0.0010468735
-0.00024792405
0.00092069733
-0.00032297486
0.00080393466
-0.00038693021
0.00069585726
-0.00044029371
0.00059561022
-0.00048360719
0.00050255819
-0.00051740838
0.00041590038
-0.00054208068
0.00033509807
-0.0005579919
0.00025946965
-0.00056551278
0.00018867117
-0.00056502751
0.00012237341
-0.00055686669
6.0268829e-05
-0.00054119386
2.3892192e-06
-0.00051859191
-5.1557637e-05
-0.00048920377
-0.00010126188
-0.00045330545
-0.00014672006
-0.00041117814
-0.00018794906
-0.0003632732
-0.00022470939
-0.00031023361
-0.00025688734
-0.00025247299
-0.00028478602
-0.00019078359
-0.00030726384
-0.00032980589
3.6130248e-05
7.4377655e-06
4.4051743e-05
1.0688693e-05
5.1424268e-05
1.4693153e-05
5.8332517e-05
1.9078845e-05
6.4492373e-05
2.4733469e-05
6.9942997e-05
3.0985532e-05
7.4563489e-05
3.8100486e-05
7.8224922e-05
4.5992661e-05
8.0846451e-05
5.4691097e-05
8.2346975e-05
6.4149284e-05
8.258816e-05
7.4410612e-05
8.136728e-05
8.5455726e-05
7.8746618e-05
9.7336482e-05
7.4321068e-05
0.00011017128
6.8205937e-05
0.00012391375
5.9872291e-05
0.00013891447
4.9546604e-05
0.00015486488
3.679705e-05
0.00017230286
2.1065191e-05
0.00019131241
2.5204359e-06
0.00021186517
-1.9466325e-05
0.00023440842
-4.5336856e-05
0.00025909476
-7.5699733e-05
0.00028616774
-0.00011095976
0.00031557518
-0.00015131312
0.00034761837
-0.00019805304
0.00038258913
-0.0002518125
0.00041960763
-0.00031322864
0.00045812193
-0.00038284887
0.00049722633
-0.00046096824
0.0005355755
-0.00054750447
0.00057141454
-0.00064182691
0.00060258104
-0.00074257814
0.00062661215
-0.00084751248
0.00064091933
-0.00095334068
0.00064303088
-0.0010556784
0.0006310123
-0.0011491724
0.00060421147
-0.0012279105
0.00056418143
-0.0012862029
0.0005156526
-0.0013191807
0.00046685963
-0.0013218948
0.00042726052
-0.0012908185
0.0004089484
-0.0012392419
0.00046158145
-0.0011975523
0.0007103143
-0.0011044731
0.0011475912
-0.00074028803
0.0010849015
0.0003851851
-0.0016420707
0.0016206463
-0.0064897232
0.0029055693
-0.0087669034
0.0042139229
-0.0090455362
0.0062704985
-0.0087066706
0.0083755465
-0.0084088958
0.010435573
-0.0076662439
0.011925984
-0.0067616318
0.013229663
-0.0069315642
0.013744855
-0.0065775006
0.014209396
-0.0065621876
0.014231846
-0.004563352
0.013854606
-0.00091695605
0.012336051
0.0025870141
0.01063555
0.0049493011
0.0089541673
0.0068626497
0.0069598097
0.0083981103
0.0051414396
0.0082156459
0.0037344887
0.0068415262
0.0027555169
0.0052488533
0.0022083995
0.0041102702
0.0018672395
0.0035704882
0.0015437416
0.0033152425
0.0012269073
0.003052779
0.00094702431
0.0027616364
0.00070655888
0.0024912507
0.00049869644
0.0022472165
0.00031854528
0.0020228633
0.0001615885
0.0018166185
2.5439167e-05
0.001625466
-9.301914e-05
0.001449222
-0.00019643966
0.0012867299
-0.00028642481
0.0011368602
-0.00036419429
0.00099846963
-0.0004308345
0.00087057358
-0.0004870675
0.00075209008
-0.00053353694
0.00064208033
-0.0005705703
0.00053959173
-0.00059869678
0.0004440277
-0.00061805287
0.00035445287
-0.00062910036
0.00027051594
-0.00063208537
0.00019165703
-0.00062719021
0.00011747998
-0.00061476708
4.7845912e-05
-0.00059498599
-1.7394616e-05
-0.00056817129
-7.8372681e-05
-0.00053454626
-0.00013489162
-0.00049427993
-0.00018698468
-0.00044780502
-0.00023442366
-0.00039549809
-0.00027701213
-0.00033773472
-0.00031465002
-0.00027532394
-0.00034719804
-0.00020857531
-0.00037401306
-0.00040044264
3.903331e-05
-1.8744209e-06
4.7828064e-05
1.8877977e-06
5.6107479e-05
6.4173393e-06
6.3750553e-05
1.1437019e-05
7.0740115e-05
1.7738787e-05
7.7002829e-05
2.4725833e-05
8.2451697e-05
3.2649561e-05
8.6931951e-05
4.151087e-05
9.0374336e-05
5.1255264e-05
9.2664715e-05
6.1858151e-05
9.3746149e-05
7.3324522e-05
9.3493935e-05
8.5709435e-05
9.1740325e-05
9.9087766e-05
8.8437072e-05
0.00011346859
8.3348555e-05
0.00012900331
7.6560235e-05
0.00014570226
6.7477097e-05
0.00016393756
5.6188656e-05
0.00018358377
4.2377566e-05
0.00020512547
2.5780503e-05
0.00022846225
5.9140433e-06
0.0002542701
-1.761081e-05
0.00028261939
-4.5350572e-05
0.0003139108
-7.8028884e-05
0.0003482515
-0.00011620103
0.00038578621
-0.00016060418
0.00042699464
-0.00021277091
0.00047178028
-0.00027352047
0.00051887176
-0.00034380458
0.00056750756
-0.00042431349
0.0006160875
-0.00051534793
0.0006624556
-0.00061658522
0.00070381924
-0.00072681304
0.0007368372
-0.00084364195
0.00075774896
-0.00096316764
0.00076255831
-0.0010796963
0.00074754059
-0.0011858301
0.00071034567
-0.0012727691
0.00065112154
-0.0013310559
0.00057394025
-0.0013509557
0.00048675928
-0.0013219097
0.00039820874
-0.0012378359
0.00032486875
-0.0011100729
0.00033381799
-0.00095195013
0.00055219195
-0.00065177898
0.00084742014
-5.5221638e-05
0.00048834147
0.0011142649
-0.0028115583
0.0021675316
-0.0075429888
0.0036004054
-0.010199773
0.0053224573
-0.010767588
0.0070680466
-0.010452265
0.0089199358
-0.010260785
0.010691022
-0.0094373276
0.011982151
-0.0080527575
0.01310599
-0.0080554009
0.014279234
-0.0077507455
0.014765789
-0.0070487377
0.014467593
-0.0042651523
0.013715345
-0.00016470641
0.012549356
0.0037530033
0.010816242
0.0066824101
0.008847596
0.0088312961
0.0071066422
0.010139066
0.0052748748
0.010047406
0.0036845025
0.008431899
0.0024897247
0.0064436313
0.0018209507
0.0047790459
0.0014915716
0.0038998742
0.0012170886
0.0035897284
0.00093746709
0.0033324032
0.00068376758
0.0030153346
0.00046424015
0.0027107775
0.00027498609
0.0024364747
0.00011127453
0.0021865798
-2.8866082e-05
0.0019567617
-0.0001501519
0.0017467541
-0.00025530943
0.0015543821
-0.00034638834
0.0013778095
-0.00042504452
0.0012155154
-0.00049249221
0.0010659187
-0.00054977789
0.00092785937
-0.00059750299
0.0007998154
-0.00063625744
0.0006808356
-0.0006664274
0.00056976097
-0.0006882548
0.00046585488
-0.00070205472
0.00036825046
-0.00070794705
0.0002764081
-0.00070608904
0.00018980466
-0.00069666634
0.00010806298
-0.00067986925
3.1050467e-05
-0.0006557345
-4.1531714e-05
-0.0006245142
-0.00010959847
-0.00058634814
-0.00017306072
-0.00054151751
-0.00023181711
-0.00049024903
-0.00028568768
-0.00043290746
-0.00033434742
-0.0003699549
-0.00037759949
-0.00030226402
-0.00041488942
-0.00022965822
-0.00044662242
-0.0004768439
4.2315105e-05
-1.2217941e-05
5.2125976e-05
-7.9128526e-06
6.134941e-05
-2.8091345e-06
6.9946433e-05
2.8337315e-06
7.7895785e-05
9.7963122e-06
8.4996975e-05
1.7624137e-05
9.1212088e-05
2.643359e-05
9.6604492e-05
3.6125861e-05
0.00010100534
4.6854731e-05
0.00010421779
5.8641456e-05
0.00010625531
7.1288944e-05
0.00010698862
8.4975365e-05
0.00010638626
9.9685287e-05
0.00010425016
0.00011560649
0.00010052276
0.00013273247
9.4984214e-05
0.0001512324
8.7773728e-05
0.00017114017
7.8262052e-05
0.00019309702
6.6554711e-05
0.00021683393
5.2152005e-05
0.00024286025
3.4973172e-05
0.00027144692
1.4507922e-05
0.00030308676
-1.01213e-05
0.00033853807
-3.9269463e-05
0.00037739465
-7.432952e-05
0.0004208468
-0.00011571918
0.00046838941
-0.00016517478
0.00052123746
-0.00022426737
0.00057796193
-0.0002945024
0.00063774265
-0.00037708873
0.00069867832
-0.00047294042
0.00075831105
-0.00058228165
0.00081315945
-0.00070431596
0.00085886991
-0.0008368297
0.00089026604
-0.0009755801
0.00090131231
-0.0011135664
0.00088552583
-0.0012410924
0.00083787115
-0.0013458621
0.00075589169
-0.0014133648
0.00064143832
-0.0014277545
0.00050114158
-0.0013731405
0.00034358827
-0.0012471128
0.00019883839
-0.0010730955
0.00015980197
-0.0008689898
0.00034808424
-0.00053415574
0.0005125825
0.00031193592
-0.00035775317
0.0014174656
-0.0039170848
0.0024072759
-0.0085327962
0.0041267446
-0.011919241
0.0059823787
-0.012623223
0.0075582746
-0.012028159
0.0091263966
-0.011828907
0.010578644
-0.010889574
0.011957806
-0.009431918
0.013626314
-0.0097239067
0.014632002
-0.0087564321
0.01412401
-0.0065407408
0.01270939
-0.002850534
0.01152594
0.0010187485
0.010630772
0.004648168
0.0096336958
0.0076794912
0.0084710539
0.0099939357
0.0070276347
0.011582476
0.0053801487
0.011694892
0.0037027532
0.010109298
0.0023243601
0.0078220254
0.0015177414
0.0055856689
0.0011358909
0.0042817304
0.00086592408
0.0038596973
0.00061135059
0.0035869798
0.0003853478
0.0032413386
0.00018979998
0.0029063256
2.3701463e-05
0.0026025734
-0.0001173451
0.0023276303
-0.00023857531
0.0020779953
-0.00034262348
0.0018508019
-0.00043206745
0.0016438261
-0.00050898752
0.0014547322
-0.00057492827
0.0012814565
-0.00063109402
0.0011220836
-0.00067806155
0.00097482745
-0.00071675018
0.00083850589
-0.00074741072
0.00071149794
-0.00077038707
0.00059273756
-0.00078579992
0.00048126839
-0.00079379612
0.00037624798
-0.0007943961
0.00027701038
-0.00078764139
0.00018305195
-0.00077360526
9.4027043e-05
-0.0007522361
9.6836184e-06
-0.00072360419
-7.0165687e-05
-0.00068779363
-0.00014541226
-0.00064489993
-0.00021595245
-0.00059511275
-0.0002816058
-0.00053872308
-0.0003420788
-0.00047588041
-0.00039719163
-0.00040721535
-0.00044626309
-0.00033353778
-0.00048856889
-0.00025432735
-0.00052583163
-0.00055982228
4.6049683e-05
-2.3692568e-05
5.6939272e-05
-1.8800147e-05
6.7223812e-05
-1.3098481e-05
7.6830371e-05
-6.768111e-06
8.5743434e-05
8.8362263e-07
9.3823817e-05
9.5439519e-06
0.00010109363
1.9170938e-05
0.00010731376
2.9906033e-05
0.00011266788
4.1496634e-05
0.00011694755
5.4364016e-05
0.00012004292
6.8193679e-05
0.00012193194
8.3082231e-05
0.00012249117
9.9128504e-05
0.00012170288
0.00011639881
0.00011940925
0.00013502061
0.00011552662
0.0001551084
0.0001098182
0.00017685071
0.00010268125
0.00020023618
9.3247331e-05
0.00022626301
8.1620536e-05
0.00025448325
6.7362668e-05
0.0002857061
5.0167898e-05
0.00032027995
2.963419e-05
0.00035906569
4.4981776e-06
0.00040252939
-2.5745189e-05
0.00045109563
-6.2970441e-05
0.00050561733
-0.00010841438
0.00056667792
-0.00016405373
0.00063359928
-0.00023291015
0.00070660169
-0.00031666547
0.00078243542
-0.00041707804
0.00085872292
-0.00053529201
0.00093137393
-0.00067144459
0.00099502497
-0.0008239669
0.0010427912
-0.00098869984
0.001066046
-0.0011575227
0.0010543452
-0.0013184124
0.00099875759
-0.0014549811
0.00089245942
-0.001545766
0.00073221872
-0.0015668983
0.00052226721
-0.0014971879
0.00027387326
-0.0013435868
4.5232906e-05
-0.0011629262
-2.086343e-05
-0.00098369342
0.00016884639
-0.00064322204
0.00017211192
0.00030632849
-0.0013073002
0.0011557718
-0.0047665248
0.0020950009
-0.0094720241
0.0033887832
-0.013213026
0.0045008239
-0.013735266
0.0054246555
-0.012951986
0.0070567794
-0.013461028
0.0090427519
-0.012875546
0.010822293
-0.011211457
0.011689678
-0.010591289
0.011921978
-0.0089887308
0.011301934
-0.0059206915
0.010256034
-0.00180464
0.0088356245
0.0024391661
0.0077800565
0.0057037333
0.0071587868
0.0083007609
0.0066007354
0.010551996
0.0058194236
0.012363788
0.0046543288
0.012859989
0.0032456723
0.011517959
0.0019874159
0.0090802846
0.0012077347
0.0063653566
0.00078101504
0.0047084558
0.00049052679
0.0041501908
0.00025101322
0.0038264958
5.1262228e-05
0.0034410917
-0.00011207415
0.0030696633
-0.00025025455
0.0027407542
-0.00036709187
0.0024444697
-0.00046578809
0.0021766902
-0.00054971916
0.0019347284
-0.00062143151
0.001715535
-0.00068259025
0.0015158902
-0.00073459142
0.0013334562
-0.00077837948
0.00116587
-0.00081475757
0.0010112053
-0.00084393833
0.00086768603
-0.00086626902
0.00073382704
-0.0008819064
0.00060837679
-0.00089083172
0.0004901966
-0.00089296969
0.00037838967
-0.00088829129
0.00027233147
-0.00087658748
0.00017134405
-0.00085783549
7.5273588e-05
-0.00083185495
-1.6300393e-05
-0.00079865632
-0.0001033692
-0.00075813232
-0.00018593381
-0.00071033298
-0.00026375271
-0.00065537263
-0.00033656537
-0.00059340849
-0.0004040423
-0.00052471769
-0.00046588149
-0.00044982984
-0.00052115111
-0.00036938536
-0.00056901545
-0.00028281032
-0.00061240972
-0.00065034787
5.0265357e-05
-3.6401572e-05
6.2326535e-05
-3.0863355e-05
7.373318e-05
-2.4496415e-05
8.4461342e-05
-1.7500276e-05
9.4428987e-05
-9.0842161e-06
0.00010357284
4.0718471e-07
0.00011176907
1.0973596e-05
0.00011912631
2.2543813e-05
0.00012536631
3.5258102e-05
0.00013078573
4.8943957e-05
0.00013507294
6.3901422e-05
0.00013817061
7.9986259e-05
0.00014003449
9.7269663e-05
0.00014064865
0.00011578162
0.00013990318
0.0001357612
0.00013779774
0.00015721683
0.00013417169
0.00018047993
0.0001288374
0.0002055657
0.00012232447
0.00023277062
0.00011364382
0.00026316402
0.00010302387
0.00029632481
8.9864493e-05
0.00033343305
7.4229986e-05
0.00037469684
5.472437e-05
0.00042203904
3.021031e-05
0.00047561384
-1.1047825e-06
0.00053693025
-4.0873779e-05
0.00060644238
-9.1937003e-05
0.00068466175
-0.00015657018
0.0007712361
-0.00023976491
0.00086562838
-0.00034366681
0.00096262259
-0.00047067806
0.0010583878
-0.00062221726
0.0011465677
-0.00079837828
0.0012189511
-0.00099663494
0.0012642994
-0.0012085968
0.0012663039
-0.0014198237
0.0012099812
-0.0016085425
0.0010811763
-0.0017431563
0.0008668302
-0.0017877439
0.00056685129
-0.0017195807
0.00020570712
-0.0015567155
-0.00011763687
-0.0013832397
-0.00019434499
-0.0012027849
-1.1615321e-05
-0.00076310774
-0.00026756619
0.00010307393
-0.0021734776
0.00077426177
-0.0054377112
0.0014525041
-0.010150265
0.0017854752
-0.013545994
0.0014784033
-0.013428197
0.0018670594
-0.013340642
0.0035722272
-0.015166193
0.0051147001
-0.014418018
0.0065926899
-0.012689442
0.0075400515
-0.011538652
0.0076527961
-0.0091014728
0.0071433003
-0.0054111938
0.0063221313
-0.00098347098
0.0051389262
0.0036223755
0.0041746858
0.0066679752
0.0040483849
0.0084270706
0.0040194834
0.010580899
0.0036468194
0.012736449
0.0030414392
0.01346537
0.0021699223
0.012389482
0.0013134719
0.0099367387
0.00076037596
0.0069184579
0.00036128237
0.0051075552
6.5677939e-05
0.004445798
-0.00014794528
0.0040401204
-0.00030920359
0.0036023559
-0.00044032553
0.0032007911
-0.00054716595
0.0028475966
-0.00063496875
0.002532272
-0.00070817649
0.0022498969
-0.00076971767
0.0019962691
-0.00082164314
0.0017674598
-0.00086556265
0.0015598103
-0.00090261896
0.0013705163
-0.00093343291
0.0011966872
-0.00095845869
0.0010362309
-0.00097792318
0.00088715201
-0.000991882
0.00074778964
-0.0010001467
0.000616646
-0.0010026135
0.00049266207
-0.00099902483
0.00037479991
-0.00098904524
0.00026235152
-0.00097249583
0.0001547938
-0.00094922363
5.200929e-05
-0.00091875113
-4.6774056e-05
-0.0008809323
-0.00014119098
-0.00083567211
-0.00023120156
-0.00078286757
-0.00031656229
-0.00072252984
-0.0003969033
-0.00065474189
-0.00047182929
-0.00057974072
-0.00054087907
-0.00049806861
-0.00060282522
-0.0004101087
-0.000656973
-0.00031544133
-0.0007070825
-0.00074931736
5.4999315e-05
-5.0442578e-05
6.8365701e-05
-4.4225735e-05
8.0976263e-05
-3.7109298e-05
9.2849235e-05
-2.9375985e-05
0.0001039091
-2.0139233e-05
0.00011416787
-9.8542947e-06
0.00012350458
1.6307854e-06
0.000131859
1.4189517e-05
0.00013927751
2.7837268e-05
0.00014569338
4.252103e-05
0.00015123012
5.8364176e-05
0.00015559471
7.5625651e-05
0.00015885428
9.4007838e-05
0.0001609221
0.00011371023
0.00016181579
0.00013487151
0.00016145035
0.00015758636
0.00016000331
0.00018192243
0.00015709522
0.00020846765
0.00015295725
0.00023690828
0.00014789422
0.00026822627
0.00014111263
0.00030309982
0.00013293308
0.00034160768
0.00012253658
0.00038509637
0.00010960742
0.00043497251
9.2582959e-05
0.00049263622
7.0020655e-05
0.00055948734
3.84967e-05
0.00063796402
-4.9990563e-06
0.0007281571
-6.4406456e-05
0.00083064202
-0.00014298937
0.00094420914
-0.00024765139
0.0010672834
-0.00038192301
0.0011926595
-0.00055009864
0.001314742
-0.00075469054
0.0014235388
-0.000995114
0.0015047213
-0.0012638751
0.0015350678
-0.0015441814
0.001490288
-0.001810423
0.0013474139
-0.0020191128
0.0010755155
-0.0021194781
0.00066721373
-0.0020803644
0.000166593
-0.0019088614
-0.00028914104
-0.0016444675
-0.00045874077
-0.0012427886
-0.00041329914
-0.00057066322
-0.00093969709
0.00011134668
-0.0028554851
0.00061168379
-0.0059380454
0.00071172083
-0.010250302
0.0001284819
-0.012962753
-0.00079773707
-0.012501977
-0.00039161983
-0.013746758
0.00010521595
-0.015663026
0.00085956147
-0.01517237
0.0019908335
-0.01382071
0.0026644961
-0.012212317
0.0028604574
-0.0092974247
0.0026764339
-0.0052271718
0.0022511137
-0.0005581513
0.0017640057
0.004109486
0.0013373401
0.0070946345
0.0013219058
0.0084425074