/*--------------------------------*- C++ -*----------------------------------*\
  =========                 |
  \\      /  F ield         | OpenFOAM: The Open Source CFD Toolbox
   \\    /   O peration     | Website:  https://openfoam.org
    \\  /    A nd           | Version:  9
     \\/     M anipulation  |
\*---------------------------------------------------------------------------*/
FoamFile
{
    format      ascii;
    class       volVectorField;
    location    "0.87";
    object      U;
}
// * * * * * * * * * * * * * * * * * * * * * * * * * * * * * * * * * * * * * //

dimensions      [0 1 -1 0 0 0 0];

internalField   nonuniform List<vector> 
10000
(
(0.0020895685 0.0046064555 0)
(0.0028978853 0.0046907983 0)
(0.0036602426 0.0048345426 0)
(0.0035632167 0.0049958815 0)
(0.004222607 0.0051893845 0)
(0.0044602889 0.0054057224 0)
(0.0047044454 0.005640613 0)
(0.0048809006 0.0058919015 0)
(0.0049689327 0.0061546591 0)
(0.0049599843 0.0064223888 0)
(0.0048331866 0.0066903662 0)
(0.0045738288 0.0069597095 0)
(0.0041785691 0.0072217853 0)
(0.0036185946 0.0074671549 0)
(0.0028694709 0.0076998894 0)
(0.0019129608 0.0079149825 0)
(0.00073026883 0.0081064062 0)
(-0.00072540037 0.0082738619 0)
(-0.0024923885 0.0084274899 0)
(-0.0045655119 0.008567853 0)
(-0.0070388212 0.0086789294 0)
(-0.0099776233 0.0088146378 0)
(-0.013366491 0.0089679767 0)
(-0.0172572 0.0091611318 0)
(-0.02161097 0.0093814317 0)
(-0.0264092 0.009624053 0)
(-0.031708044 0.0098810179 0)
(-0.037510236 0.010137786 0)
(-0.043818131 0.010378262 0)
(-0.050618347 0.010589736 0)
(-0.057873192 0.010767239 0)
(-0.065525037 0.0109101 0)
(-0.073505421 0.011023848 0)
(-0.081713726 0.011120955 0)
(-0.090012011 0.01120267 0)
(-0.098270839 0.011256643 0)
(-0.10639459 0.011276314 0)
(-0.11432738 0.011259663 0)
(-0.12207229 0.01120407 0)
(-0.12971403 0.011098654 0)
(-0.13745997 0.010901241 0)
(-0.14563853 0.010505024 0)
(-0.15459293 0.0096866041 0)
(-0.16473619 0.0080983441 0)
(-0.17678942 0.0051002165 0)
(-0.19019558 -0.0013843636 0)
(-0.19895993 -0.015671185 0)
(-0.19231012 -0.03970375 0)
(-0.15694447 -0.066695556 0)
(-0.089839082 -0.085491261 0)
(-0.028994378 -0.090455478 0)
(0.04043408 -0.11353638 0)
(0.11321548 -0.1059928 0)
(0.17530182 -0.13280764 0)
(0.25004874 -0.15031033 0)
(0.34739036 -0.18211544 0)
(0.46924767 -0.18033076 0)
(0.5899303 -0.13168279 0)
(0.67101582 -0.091687127 0)
(0.68429831 -0.056863576 0)
(0.63729168 -0.015523123 0)
(0.57287143 0.02397029 0)
(0.52025971 0.052684422 0)
(0.474477 0.07074244 0)
(0.42661372 0.084972226 0)
(0.37804101 0.097169975 0)
(0.33236457 0.10539605 0)
(0.29013146 0.10918072 0)
(0.25143768 0.11008588 0)
(0.21662248 0.1090486 0)
(0.18551311 0.10611616 0)
(0.15770946 0.10139624 0)
(0.13282508 0.095183415 0)
(0.11048594 0.087844626 0)
(0.090359351 0.079825294 0)
(0.072167788 0.071610541 0)
(0.055693564 0.063619409 0)
(0.040780923 0.056125821 0)
(0.027315258 0.049255057 0)
(0.015238196 0.043048538 0)
(0.0044797683 0.037463452 0)
(-0.0050018091 0.032481147 0)
(-0.013201873 0.028029384 0)
(-0.020171529 0.024041521 0)
(-0.025959357 0.020456955 0)
(-0.030615928 0.017222059 0)
(-0.034202126 0.014290704 0)
(-0.036767758 0.011626312 0)
(-0.03834716 0.0091743019 0)
(-0.039052367 0.0068451306 0)
(-0.039046374 0.0046308594 0)
(-0.038491472 0.0025575307 0)
(-0.037481595 0.00078031794 0)
(-0.035853816 -0.00062293354 0)
(-0.033459427 -0.0017345388 0)
(-0.030319776 -0.0026486721 0)
(-0.026352352 -0.0034020736 0)
(-0.022420594 -0.0040136988 0)
(-0.018229976 -0.0044810718 0)
(-0.010194235 -0.0049274569 0)
(0.0021732636 0.0042800548 0)
(0.0030794991 0.0044163504 0)
(0.003906257 0.0046404545 0)
(0.0038549056 0.0048752268 0)
(0.0045630969 0.0051831049 0)
(0.0048392575 0.0055189527 0)
(0.0051161006 0.0058918715 0)
(0.0053195145 0.0062981579 0)
(0.0054253684 0.0067317045 0)
(0.0054253257 0.0071898593 0)
(0.0053061954 0.0076648186 0)
(0.0050504158 0.0081608721 0)
(0.004645298 0.0086692389 0)
(0.0040735445 0.0091804447 0)
(0.003314506 0.0097159299 0)
(0.00233975 0.010245714 0)
(0.0011335326 0.010784947 0)
(-0.000334854 0.011328788 0)
(-0.0021029553 0.011887344 0)
(-0.0041943545 0.012470732 0)
(-0.0066531284 0.013065184 0)
(-0.0095375127 0.013715364 0)
(-0.012863745 0.01443188 0)
(-0.016689874 0.015243092 0)
(-0.021004068 0.016124279 0)
(-0.025779965 0.017055148 0)
(-0.031077152 0.018018908 0)
(-0.036899954 0.01898894 0)
(-0.04324891 0.019934612 0)
(-0.050107549 0.020822733 0)
(-0.057438368 0.021617192 0)
(-0.065181847 0.02227648 0)
(-0.073253345 0.022762819 0)
(-0.081540472 0.023057367 0)
(-0.089910608 0.023155846 0)
(-0.098228107 0.023071779 0)
(-0.10637615 0.022856397 0)
(-0.11428356 0.022597524 0)
(-0.12195218 0.022418151 0)
(-0.12949881 0.022464296 0)
(-0.137229 0.022879865 0)
(-0.14568212 0.02373106 0)
(-0.15549782 0.024842927 0)
(-0.16746193 0.025791415 0)
(-0.18395497 0.025932009 0)
(-0.20953611 0.021530535 0)
(-0.24078344 8.6153615e-05 0)
(-0.24739024 -0.05171731 0)
(-0.17965785 -0.12865237 0)
(-0.05156568 -0.17772193 0)
(0.040160305 -0.16450273 0)
(0.14716603 -0.22234412 0)
(0.21610905 -0.1550137 0)
(0.25878979 -0.19801889 0)
(0.33272199 -0.24508186 0)
(0.45065334 -0.32472356 0)
(0.58879551 -0.34819348 0)
(0.72981448 -0.27282636 0)
(0.83248031 -0.12807228 0)
(0.83268973 0.026829262 0)
(0.74738781 0.10060174 0)
(0.64034245 0.11751348 0)
(0.5501655 0.12327578 0)
(0.48267383 0.13547674 0)
(0.42851428 0.15124381 0)
(0.37774744 0.16119684 0)
(0.32856875 0.16398648 0)
(0.28293777 0.16172755 0)
(0.24248204 0.15665148 0)
(0.20711312 0.14995067 0)
(0.17607456 0.14205038 0)
(0.14870011 0.13318791 0)
(0.12439111 0.12356694 0)
(0.10263057 0.11343078 0)
(0.083010383 0.10310269 0)
(0.065222803 0.092937089 0)
(0.049060901 0.083229199 0)
(0.034404925 0.074154543 0)
(0.02118653 0.065774284 0)
(0.009356757 0.05808324 0)
(-0.0011374366 0.051011117 0)
(-0.010337348 0.04455544 0)
(-0.018271707 0.038644766 0)
(-0.024988707 0.033216252 0)
(-0.030540146 0.028213101 0)
(-0.034976274 0.02358329 0)
(-0.038352147 0.019274467 0)
(-0.040737949 0.015245073 0)
(-0.042232658 0.011444569 0)
(-0.042910256 0.0078088584 0)
(-0.042818306 0.0043543818 0)
(-0.041955075 0.0011555873 0)
(-0.040355043 -0.0017052356 0)
(-0.038115568 -0.0041049769 0)
(-0.035281674 -0.0061103757 0)
(-0.031819116 -0.0078091378 0)
(-0.027596231 -0.0092332751 0)
(-0.023410892 -0.010430305 0)
(-0.019023409 -0.011372757 0)
(-0.010673332 -0.012297703 0)
(0.0022834348 0.0030999938 0)
(0.0032790115 0.0032598824 0)
(0.0041375967 0.0034932607 0)
(0.0041341117 0.0037488396 0)
(0.004901122 0.0040845746 0)
(0.0052151446 0.0044493733 0)
(0.005535165 0.0048636516 0)
(0.0057761431 0.0053228589 0)
(0.0059190464 0.0058202319 0)
(0.0059528505 0.0063551637 0)
(0.005864008 0.0069285599 0)
(0.0056379593 0.0075337682 0)
(0.0052552376 0.0081837385 0)
(0.0047189893 0.0088572252 0)
(0.0039845575 0.0095681408 0)
(0.0030266055 0.010313395 0)
(0.0018513949 0.011103939 0)
(0.00040914773 0.011930294 0)
(-0.0013240286 0.012809925 0)
(-0.003368359 0.013748275 0)
(-0.0057817567 0.014739492 0)
(-0.0086048978 0.015808256 0)
(-0.011838048 0.016975933 0)
(-0.01556968 0.018247037 0)
(-0.019809371 0.019625543 0)
(-0.02452847 0.021069801 0)
(-0.029788028 0.022567258 0)
(-0.035603309 0.024081647 0)
(-0.041981773 0.025567961 0)
(-0.048910953 0.026971791 0)
(-0.056354129 0.028232107 0)
(-0.06424958 0.029286818 0)
(-0.072506451 0.030078977 0)
(-0.081003318 0.030561706 0)
(-0.089591569 0.030705889 0)
(-0.09810333 0.030518067 0)
(-0.10637822 0.030060368 0)
(-0.11429587 0.029468049 0)
(-0.12181005 0.028959568 0)
(-0.12899719 0.02883677 0)
(-0.13617324 0.029484937 0)
(-0.14405031 0.031292182 0)
(-0.15340381 0.034346028 0)
(-0.16485842 0.038784958 0)
(-0.1845092 0.047135822 0)
(-0.22935538 0.057859981 0)
(-0.2864231 0.033555903 0)
(-0.26675876 -0.088968238 0)
(-0.10315003 -0.26836245 0)
(0.078807653 -0.31131419 0)
(0.20010306 -0.25221081 0)
(0.30036335 -0.29537984 0)
(0.35886731 -0.22065296 0)
(0.44961019 -0.27681848 0)
(0.54898906 -0.34690768 0)
(0.65540583 -0.44129024 0)
(0.76229687 -0.46560516 0)
(0.85744731 -0.39260321 0)
(0.92934337 -0.201781 0)
(0.97762299 0.016556082 0)
(0.96705933 0.18069194 0)
(0.86114656 0.25163532 0)
(0.70472899 0.24302859 0)
(0.5625497 0.21964321 0)
(0.45797693 0.21275531 0)
(0.3859861 0.21665583 0)
(0.32884475 0.21744851 0)
(0.27739197 0.21039289 0)
(0.23274472 0.19919039 0)
(0.19517004 0.18705273 0)
(0.16313056 0.17466237 0)
(0.13541646 0.1620347 0)
(0.11118067 0.14923766 0)
(0.089745666 0.13641858 0)
(0.070586366 0.12378911 0)
(0.053329633 0.11158372 0)
(0.037747484 0.099992352 0)
(0.023717949 0.089122395 0)
(0.011166732 0.078998596 0)
(2.4558407e-05 0.069590368 0)
(-0.0097603116 0.0608759 0)
(-0.018244981 0.052837521 0)
(-0.025496352 0.045426068 0)
(-0.031577345 0.038594797 0)
(-0.036543662 0.032291989 0)
(-0.040449973 0.026472509 0)
(-0.04335558 0.021086293 0)
(-0.045316214 0.016090321 0)
(-0.046397841 0.011457852 0)
(-0.046650011 0.0071959471 0)
(-0.04610471 0.0033016375 0)
(-0.044874003 -0.00023712716 0)
(-0.043008296 -0.0034679237 0)
(-0.040478245 -0.0063827549 0)
(-0.03734 -0.00896009 0)
(-0.03357363 -0.011210326 0)
(-0.029093948 -0.013134847 0)
(-0.024647187 -0.014755511 0)
(-0.02004306 -0.016052613 0)
(-0.011303745 -0.017327991 0)
(0.0023963507 0.0027501666 0)
(0.0034757826 0.0029625464 0)
(0.0043916763 0.0032356735 0)
(0.00444304 0.0035484241 0)
(0.0052595182 0.0039342444 0)
(0.0056218096 0.0043716445 0)
(0.0059962536 0.0048621447 0)
(0.0062866138 0.0054122039 0)
(0.006473639 0.0060092246 0)
(0.0065551027 0.0066539266 0)
(0.0065111504 0.0073478379 0)
(0.0063382949 0.0080984572 0)
(0.0060079964 0.0088940247 0)
(0.0055034521 0.009749988 0)
(0.0048220694 0.010641619 0)
(0.0039326429 0.011606614 0)
(0.0028136662 0.012640237 0)
(0.001440574 0.013738289 0)
(-0.0002096052 0.014923483 0)
(-0.0021830359 0.016197844 0)
(-0.0045050504 0.017561339 0)
(-0.0072077155 0.019042331 0)
(-0.010326278 0.020662631 0)
(-0.013936775 0.022401516 0)
(-0.018076169 0.024302206 0)
(-0.022731455 0.026289223 0)
(-0.027955558 0.028354023 0)
(-0.033783684 0.030447793 0)
(-0.040234322 0.032511055 0)
(-0.047308461 0.034467995 0)
(-0.054979519 0.036228801 0)
(-0.063187209 0.03769595 0)
(-0.071830487 0.038773189 0)
(-0.080762095 0.039378013 0)
(-0.08979007 0.039456833 0)
(-0.098689707 0.039007716 0)
(-0.10722205 0.038108227 0)
(-0.11516724 0.036947336 0)
(-0.12237162 0.035848263 0)
(-0.12880293 0.03529678 0)
(-0.13470348 0.035965744 0)
(-0.14081663 0.03858746 0)
(-0.14776943 0.043845029 0)
(-0.1559508 0.054753297 0)
(-0.17712664 0.080890839 0)
(-0.23958013 0.11327365 0)
(-0.29517987 0.049556768 0)
(-0.18159442 -0.23391646 0)
(0.052502461 -0.49334885 0)
(0.2296221 -0.5071059 0)
(0.39372847 -0.39902585 0)
(0.55567699 -0.38846809 0)
(0.67081076 -0.30655476 0)
(0.76573105 -0.34952492 0)
(0.85512035 -0.43081707 0)
(0.93374675 -0.52590037 0)
(0.99952653 -0.54316781 0)
(1.043334 -0.43731927 0)
(1.0461476 -0.22105938 0)
(1.0327732 -0.010726533 0)
(1.0255686 0.19342316 0)
(0.97751343 0.34795472 0)
(0.84576547 0.3930308 0)
(0.65658808 0.37888324 0)
(0.48528616 0.32871526 0)
(0.3804993 0.2899976 0)
(0.31746614 0.27208464 0)
(0.2664278 0.25743787 0)
(0.22066129 0.23940903 0)
(0.18143595 0.22079311 0)
(0.14855409 0.20332433 0)
(0.12056138 0.18677529 0)
(0.096314998 0.17080399 0)
(0.07511557 0.15538644 0)
(0.056415485 0.14060436 0)
(0.03979825 0.1265476 0)
(0.024995457 0.11329853 0)
(0.01183998 0.10090223 0)
(0.00019598653 0.089345078 0)
(-0.010035759 0.078623079 0)
(-0.018940945 0.068712962 0)
(-0.026614902 0.059562526 0)
(-0.033129121 0.051122407 0)
(-0.038549059 0.04333348 0)
(-0.042930018 0.03612694 0)
(-0.046321554 0.029459475 0)
(-0.048776953 0.023268824 0)
(-0.050338937 0.017513842 0)
(-0.05105569 0.012157121 0)
(-0.050976367 0.0071732927 0)
(-0.05016407 0.0025314974 0)
(-0.048643929 -0.0017901035 0)
(-0.046425555 -0.0057398211 0)
(-0.043543163 -0.0093127809 0)
(-0.040051282 -0.012506797 0)
(-0.03593271 -0.015328739 0)
(-0.031116515 -0.017782815 0)
(-0.02630514 -0.019861327 0)
(-0.021413339 -0.021528368 0)
(-0.012155906 -0.023186441 0)
(0.0025588383 0.0019730245 0)
(0.0037546063 0.0022325653 0)
(0.0047233376 0.0025617345 0)
(0.0048276867 0.0029370294 0)
(0.00571512 0.0033928722 0)
(0.0061383341 0.0039173374 0)
(0.006571497 0.0045021219 0)
(0.0069216792 0.005151448 0)
(0.0071628544 0.0058627756 0)
(0.0072972126 0.0066361434 0)
(0.0073190821 0.0074673822 0)
(0.0072002839 0.0083665115 0)
(0.0069300518 0.0093221012 0)
(0.0064970301 0.010352642 0)
(0.0058794456 0.011456683 0)
(0.00507189 0.012633871 0)
(0.0040386067 0.013911179 0)
(0.0027573005 0.015283533 0)
(0.0012099247 0.016752534 0)
(-0.00064727452 0.018358786 0)
(-0.0028467842 0.020095057 0)
(-0.0054072342 0.021974755 0)
(-0.0083788866 0.024023925 0)
(-0.011827642 0.026235547 0)
(-0.01582319 0.028664739 0)
(-0.020383697 0.031222479 0)
(-0.025540641 0.033898104 0)
(-0.031358069 0.03663835 0)
(-0.037870117 0.039369292 0)
(-0.045096028 0.041993451 0)
(-0.053022871 0.044391204 0)
(-0.061597593 0.046426064 0)
(-0.070716005 0.047952879 0)
(-0.080214394 0.048835008 0)
(-0.08986243 0.048964124 0)
(-0.099359441 0.048290913 0)
(-0.10835079 0.046872251 0)
(-0.11646791 0.044916217 0)
(-0.12337721 0.042834569 0)
(-0.12883216 0.041300523 0)
(-0.1328209 0.041230392 0)
(-0.13572031 0.043602207 0)
(-0.13775933 0.050624763 0)
(-0.13961645 0.07094179 0)
(-0.15151247 0.11637106 0)
(-0.19636099 0.14739362 0)
(-0.20145839 -0.0033831273 0)
(0.019271742 -0.4491941 0)
(0.19003148 -0.68120282 0)
(0.34096696 -0.70401256 0)
(0.51393627 -0.58289135 0)
(0.69010716 -0.538899 0)
(0.86130929 -0.4499243 0)
(1.0177176 -0.44659632 0)
(1.1329434 -0.50737322 0)
(1.2061247 -0.57433223 0)
(1.252452 -0.59225582 0)
(1.2815045 -0.45161238 0)
(1.2461098 -0.1637777 0)
(1.1450116 0.061971889 0)
(1.0484555 0.26527914 0)
(0.9571806 0.45478031 0)
(0.81420052 0.55422211 0)
(0.62723016 0.55519801 0)
(0.4611481 0.47153544 0)
(0.3471946 0.37906952 0)
(0.28283095 0.32852496 0)
(0.24059714 0.30303954 0)
(0.20067689 0.28022646 0)
(0.16268783 0.25595964 0)
(0.13026599 0.23295126 0)
(0.10294168 0.21205103 0)
(0.079332371 0.19265589 0)
(0.058799228 0.17444582 0)
(0.040870933 0.15736233 0)
(0.025136371 0.14137387 0)
(0.011305567 0.12644315 0)
(-0.00085323263 0.11253628 0)
(-0.011519093 0.099628467 0)
(-0.020823562 0.087690068 0)
(-0.028890529 0.076645203 0)
(-0.035804406 0.066423829 0)
(-0.041634574 0.056960804 0)
(-0.046454275 0.04818489 0)
(-0.050295348 0.040016156 0)
(-0.05319931 0.032407993 0)
(-0.055215579 0.025291232 0)
(-0.056369094 0.018633264 0)
(-0.056705346 0.012398843 0)
(-0.056259468 0.0065599159 0)
(-0.055054341 0.0011138497 0)
(-0.053126679 -0.0039179705 0)
(-0.050513018 -0.0085460939 0)
(-0.047232517 -0.012764085 0)
(-0.043343893 -0.016571262 0)
(-0.038828081 -0.019955818 0)
(-0.033637199 -0.022917492 0)
(-0.028394209 -0.025473831 0)
(-0.023143796 -0.027521517 0)
(-0.013258781 -0.029580001 0)
(0.0027294056 0.0011890199 0)
(0.0040482827 0.0014828593 0)
(0.0051035626 0.0018558886 0)
(0.0052785063 0.0022747424 0)
(0.0062381969 0.0028054543 0)
(0.0067351133 0.0033942647 0)
(0.0072341637 0.0040603593 0)
(0.0076526404 0.0047979036 0)
(0.0079673111 0.0056130733 0)
(0.0081719901 0.006500207 0)
(0.0082570515 0.0074621291 0)
(0.0082130749 0.0084909773 0)
(0.0080198709 0.0096054811 0)
(0.0076698021 0.010798471 0)
(0.0071411187 0.012086158 0)
(0.0064316875 0.013475253 0)
(0.005515588 0.014969331 0)
(0.004341864 0.016592993 0)
(0.0029329037 0.018345443 0)
(0.0012342702 0.020260399 0)
(-0.00080860564 0.022343924 0)
(-0.0031946523 0.024619672 0)
(-0.0059786215 0.027102692 0)
(-0.0092056218 0.029799131 0)
(-0.012998231 0.032750752 0)
(-0.017407501 0.035927343 0)
(-0.022446488 0.039276935 0)
(-0.028211665 0.042745122 0)
(-0.034765569 0.046245174 0)
(-0.042155588 0.049654323 0)
(-0.050394024 0.052815537 0)
(-0.059446481 0.05554112 0)
(-0.069213807 0.057621543 0)
(-0.079514199 0.058844855 0)
(-0.090070103 0.059022162 0)
(-0.10049306 0.05802171 0)
(-0.11028832 0.055833466 0)
(-0.11888715 0.05264298 0)
(-0.12569859 0.04891322 0)
(-0.13017032 0.045448092 0)
(-0.13186738 0.043248862 0)
(-0.13040752 0.043456463 0)
(-0.12564479 0.050243029 0)
(-0.11883316 0.076024491 0)
(-0.11029113 0.12553917 0)
(-0.10664399 0.13463047 0)
(-0.061095328 -0.085620492 0)
(0.12885254 -0.5923735 0)
(0.22932337 -0.81528357 0)
(0.34842317 -0.83607241 0)
(0.51572407 -0.76821177 0)
(0.72750827 -0.73401917 0)
(0.94297437 -0.66360274 0)
(1.1240364 -0.59786926 0)
(1.2633802 -0.62098791 0)
(1.3575702 -0.62238776 0)
(1.4114875 -0.63363639 0)
(1.4308123 -0.46702107 0)
(1.4185624 -0.11562904 0)
(1.3305978 0.17780891 0)
(1.1565506 0.39862091 0)
(0.98333058 0.59242965 0)
(0.80192995 0.73603804 0)
(0.59990963 0.73084023 0)
(0.43089462 0.61088075 0)
(0.30753247 0.4711718 0)
(0.23594742 0.38137956 0)
(0.20171185 0.34071466 0)
(0.17139458 0.31644853 0)
(0.13759317 0.2899728 0)
(0.10710967 0.26242227 0)
(0.081449848 0.23730359 0)
(0.059266779 0.21451816 0)
(0.040004238 0.19347122 0)
(0.023305026 0.17401091 0)
(0.0087758278 0.1559543 0)
(-0.0038919984 0.13922586 0)
(-0.014933839 0.12373866 0)
(-0.024547461 0.1094302 0)
(-0.032891735 0.096204901 0)
(-0.040083702 0.08396851 0)
(-0.046198454 0.072632155 0)
(-0.051300422 0.062106827 0)
(-0.055458256 0.052315559 0)
(-0.058695213 0.043187514 0)
(-0.0610543 0.034651411 0)
(-0.062568699 0.026655387 0)
(-0.063249298 0.019156158 0)
(-0.063141407 0.01212059 0)
(-0.062265245 0.0055268992 0)
(-0.060639455 -0.00063641584 0)
(-0.058297971 -0.0063787129 0)
(-0.055263282 -0.011694482 0)
(-0.051559115 -0.016576136 0)
(-0.047228835 -0.021008873 0)
(-0.042257937 -0.024975765 0)
(-0.036644101 -0.028466617 0)
(-0.03090733 -0.031490451 0)
(-0.025226725 -0.03394662 0)
(-0.014613193 -0.036402389 0)
(0.002935532 0.00029003867 0)
(0.0043957623 0.0006391759 0)
(0.005526467 0.0010653338 0)
(0.0057859154 0.001537317 0)
(0.00683585 0.0021352951 0)
(0.0074016709 0.0028013014 0)
(0.0079829423 0.0035521119 0)
(0.0084851173 0.0043815814 0)
(0.0088803057 0.0052961136 0)
(0.0091657722 0.0062958841 0)
(0.0093337867 0.0073792974 0)
(0.0093732345 0.0085481794 0)
(0.0092735317 0.0098092562 0)
(0.0090203001 0.011169065 0)
(0.0086058061 0.012631397 0)
(0.0080115809 0.014216867 0)
(0.0072210078 0.015926375 0)
(0.0062068805 0.017780914 0)
(0.0049589736 0.019810878 0)
(0.003441352 0.022008221 0)
(0.0016098215 0.024428908 0)
(-0.00054536746 0.027084991 0)
(-0.0030917163 0.030005835 0)
(-0.0060669188 0.033195833 0)
(-0.009575879 0.036677146 0)
(-0.013736044 0.040490305 0)
(-0.01859673 0.044582258 0)
(-0.024253996 0.048863209 0)
(-0.030810014 0.05324974 0)
(-0.038355037 0.057593786 0)
(-0.046941069 0.061700043 0)
(-0.056569136 0.065321659 0)
(-0.067164211 0.068170617 0)
(-0.078544728 0.069933384 0)
(-0.09039667 0.070292898 0)
(-0.10223702 0.068972531 0)
(-0.11339819 0.065828545 0)
(-0.12306051 0.060953396 0)
(-0.13031316 0.054795249 0)
(-0.13421103 0.048189425 0)
(-0.13378813 0.042069489 0)
(-0.12797687 0.037814699 0)
(-0.1168399 0.041295268 0)
(-0.10300724 0.065466757 0)
(-0.079322708 0.10427294 0)
(-0.059783679 0.087170432 0)
(0.046868692 -0.22135373 0)
(0.16806685 -0.6974094 0)
(0.28208921 -0.93745004 0)
(0.44599999 -0.97554098 0)
(0.620368 -0.96008586 0)
(0.79877526 -0.94285091 0)
(0.97913417 -0.86551142 0)
(1.1336251 -0.74395591 0)
(1.2588732 -0.74686218 0)
(1.3802949 -0.71676453 0)
(1.4692656 -0.68826073 0)
(1.4693354 -0.46989236 0)
(1.4193075 -0.078279389 0)
(1.3336736 0.30222831 0)
(1.1837464 0.57799497 0)
(0.98832118 0.78358077 0)
(0.79694687 0.92922213 0)
(0.61686635 0.91417597 0)
(0.44283776 0.76012772 0)
(0.29061092 0.57875048 0)
(0.19714315 0.44005149 0)
(0.16056315 0.37259809 0)
(0.13656038 0.3458192 0)
(0.10728695 0.3199609 0)
(0.079526128 0.28947747 0)
(0.056170559 0.26066603 0)
(0.035978148 0.23471393 0)
(0.018528453 0.21096985 0)
(0.0034854619 0.18914303 0)
(-0.0095460836 0.16904613 0)
(-0.020786887 0.15057433 0)
(-0.030528276 0.1335811 0)
(-0.038958664 0.11793581 0)
(-0.046222311 0.10350236 0)
(-0.05242692 0.090169945 0)
(-0.05765126 0.077813174 0)
(-0.061951623 0.066335691 0)
(-0.065380779 0.055635101 0)
(-0.067964075 0.04564315 0)
(-0.069733254 0.036269694 0)
(-0.070703572 0.027471326 0)
(-0.070890456 0.01919258 0)
(-0.07031821 0.011397024 0)
(-0.068996666 0.0040600794 0)
(-0.066934672 -0.0028317706 0)
(-0.064158617 -0.009280914 0)
(-0.060682654 -0.01528225 0)
(-0.056520347 -0.020823314 0)
(-0.051711897 -0.025884937 0)
(-0.046251988 -0.030443987 0)
(-0.040149862 -0.034489069 0)
(-0.033858083 -0.037975659 0)
(-0.027680554 -0.040886555 0)
(-0.016235174 -0.043732927 0)
(0.0031720421 -0.0006845573 0)
(0.0047862699 -0.00028448041 0)
(0.0060127762 0.00019529672 0)
(0.0063578555 0.00073300669 0)
(0.007502365 0.0013909287 0)
(0.0081606552 0.00213808 0)
(0.008823285 0.0029768925 0)
(0.0094084453 0.0039077529 0)
(0.0098977249 0.004921095 0)
(0.010276822 0.0060284661 0)
(0.010537641 0.0072295654 0)
(0.010677775 0.0085299682 0)
(0.010682906 0.0099318236 0)
(0.010542433 0.01144523 0)
(0.010248752 0.013077417 0)
(0.0097957744 0.014836663 0)
(0.0091581421 0.016743378 0)
(0.0083154148 0.018826318 0)
(0.0072591876 0.021092072 0)
(0.0059612358 0.023563403 0)
(0.0043867587 0.026288214 0)
(0.0025085635 0.029293147 0)
(0.00026432699 0.032634737 0)
(-0.0023973447 0.036299372 0)
(-0.0055592724 0.040350498 0)
(-0.0093517394 0.044791631 0)
(-0.013917835 0.049673245 0)
(-0.019378459 0.054862371 0)
(-0.025854251 0.06027908 0)
(-0.03350454 0.065749248 0)
(-0.042439748 0.071040655 0)
(-0.052720276 0.075840422 0)
(-0.064320835 0.079765164 0)
(-0.077093214 0.082368089 0)
(-0.090717504 0.083154475 0)
(-0.10462418 0.081635961 0)
(-0.11796064 0.077458892 0)
(-0.12961499 0.070522158 0)
(-0.13826087 0.061135167 0)
(-0.14242995 0.050028331 0)
(-0.14053552 0.038019236 0)
(-0.13106056 0.027215961 0)
(-0.11523005 0.025467452 0)
(-0.099921204 0.045717593 0)
(-0.067596293 0.070080898 0)
(-0.041737771 0.014709101 0)
(0.10842128 -0.34217398 0)
(0.1765426 -0.80315928 0)
(0.31626589 -1.1040897 0)
(0.51120831 -1.1775666 0)
(0.68373704 -1.142662 0)
(0.82780069 -1.1128939 0)
(0.9822349 -1.0147576 0)
(1.1303307 -0.87098695 0)
(1.2854649 -0.89276413 0)
(1.4231426 -0.84734401 0)
(1.4629982 -0.70634536 0)
(1.3640536 -0.37498659 0)
(1.2024692 0.037755432 0)
(1.1103199 0.40970181 0)
(1.0271281 0.71719378 0)
(0.91094909 0.94904538 0)
(0.78158672 1.094644 0)
(0.63101996 1.090662 0)
(0.45348146 0.92709239 0)
(0.28153994 0.71129159 0)
(0.16980826 0.51572233 0)
(0.12462738 0.40748641 0)
(0.10026464 0.37206874 0)
(0.073334573 0.34637216 0)
(0.048293833 0.31352209 0)
(0.027611288 0.28150092 0)
(0.0098047265 0.25256753 0)
(-0.0054388236 0.22627237 0)
(-0.018468053 0.2022357 0)
(-0.029635284 0.18030597 0)
(-0.039210988 0.16028239 0)
(-0.047465581 0.14195001 0)
(-0.054554237 0.12512893 0)
(-0.060608295 0.1096435 0)
(-0.065736152 0.095350577 0)
(-0.070000975 0.082107841 0)
(-0.073448748 0.069789511 0)
(-0.076119133 0.058282003 0)
(-0.078027311 0.04750314 0)
(-0.079190652 0.037363241 0)
(-0.079607461 0.027805472 0)
(-0.079289173 0.018777096 0)
(-0.078243531 0.010239344 0)
(-0.076465678 0.0021642443 0)
(-0.073952414 -0.0054532892 0)
(-0.070721125 -0.01261663 0)
(-0.066778829 -0.019314698 0)
(-0.062136395 -0.0255314 0)
(-0.056820867 -0.031244647 0)
(-0.050834069 -0.036425057 0)
(-0.044174575 -0.041043556 0)
(-0.037280503 -0.045009061 0)
(-0.030530948 -0.048454165 0)
(-0.018152124 -0.051679832 0)
(0.0034430054 -0.0017722364 0)
(0.0052276518 -0.0013148096 0)
(0.0065557288 -0.00077679828 0)
(0.0069927165 -0.00017830468 0)
(0.0082412617 0.00054862367 0)
(0.0089975691 0.0013737349 0)
(0.009762868 0.0022999322 0)
(0.010442556 0.0033256952 0)
(0.011019275 0.0044460749 0)
(0.011498568 0.0056614652 0)
(0.011867333 0.006977247 0)
(0.012115106 0.0084010984 0)
(0.012236659 0.0099347992 0)
(0.012223393 0.011591754 0)
(0.012065105 0.013377675 0)
(0.011756147 0.015307077 0)
(0.011300254 0.01738848 0)
(0.010656659 0.019657676 0)
(0.0098091968 0.022150034 0)
(0.008761852 0.02486588 0)
(0.0074744804 0.02786088 0)
(0.0059444519 0.031177693 0)
(0.0040648916 0.034898027 0)
(0.0018041648 0.039019144 0)
(-0.00092233584 0.043624537 0)
(-0.0042414511 0.048727893 0)
(-0.0083434965 0.054423629 0)
(-0.013451732 0.060603247 0)
(-0.019710679 0.067236389 0)
(-0.027359541 0.074067401 0)
(-0.036587587 0.080852486 0)
(-0.047548595 0.087206245 0)
(-0.060311462 0.092642776 0)
(-0.074815037 0.096577843 0)
(-0.090781597 0.098301558 0)
(-0.10757638 0.096982788 0)
(-0.12416627 0.091918383 0)
(-0.13912108 0.082643301 0)
(-0.15056469 0.069108906 0)
(-0.15629839 0.051855221 0)
(-0.15392006 0.031819151 0)
(-0.14183749 0.012927107 0)
(-0.12321015 0.0067559403 0)
(-0.11007376 0.025055804 0)
(-0.084630266 0.036488976 0)
(-0.038871188 -0.079505159 0)
(0.1004371 -0.43553819 0)
(0.14375864 -0.90301653 0)
(0.28128069 -1.2792149 0)
(0.3969943 -1.3642078 0)
(0.49260182 -1.2750606 0)
(0.60509962 -1.2655298 0)
(0.80114499 -1.1854941 0)
(1.0045014 -1.036425 0)
(1.1394599 -1.0291632 0)
(1.1930944 -0.90921005 0)
(1.1685684 -0.64065872 0)
(1.0891557 -0.23602683 0)
(0.96524649 0.16903474 0)
(0.83067952 0.51626113 0)
(0.74076092 0.80969051 0)
(0.68898611 1.0419575 0)
(0.63881518 1.2070023 0)
(0.54356668 1.2351549 0)
(0.39771438 1.0874742 0)
(0.24285251 0.8507166 0)
(0.13852014 0.60045921 0)
(0.090747702 0.44923343 0)
(0.062504213 0.39988366 0)
(0.035858258 0.37105426 0)
(0.013718232 0.33487667 0)
(-0.0038959677 0.2995664 0)
(-0.019074104 0.26786434 0)
(-0.031641228 0.23921931 0)
(-0.042267509 0.21325906 0)
(-0.051294143 0.18973203 0)
(-0.058984762 0.16836177 0)
(-0.065568721 0.14887434 0)
(-0.071176962 0.1310461 0)
(-0.075927171 0.11466077 0)
(-0.079903759 0.099534861 0)
(-0.083158715 0.085519483 0)
(-0.085729018 0.07245713 0)
(-0.087621101 0.060230292 0)
(-0.088841884 0.048734723 0)
(-0.089389822 0.037885529 0)
(-0.089249997 0.027614463 0)
(-0.088423551 0.017864881 0)
(-0.086902535 0.0086057554 0)
(-0.084662289 -0.00019167685 0)
(-0.081691123 -0.0085341367 0)
(-0.077994983 -0.016422495 0)
(-0.07357054 -0.023837258 0)
(-0.068423018 -0.030755756 0)
(-0.062574931 -0.037147952 0)
(-0.05601977 -0.042986199 0)
(-0.048728908 -0.0481991 0)
(-0.041222895 -0.052688813 0)
(-0.033806445 -0.05672715 0)
(-0.020372447 -0.060331269 0)
(0.0037543583 -0.0029809232 0)
(0.0057215764 -0.0024608887 0)
(0.0071620865 -0.0018606485 0)
(0.0076959332 -0.0011937136 0)
(0.0090558045 -0.00039648766 0)
(0.009923444 0.0005103288 0)
(0.01078667 0.0015257527 0)
(0.011568931 0.002643329 0)
(0.012253729 0.0038659072 0)
(0.012835166 0.0051870442 0)
(0.013312311 0.0066115008 0)
(0.013679332 0.0081521004 0)
(0.013926942 0.009814748 0)
(0.014049021 0.01159979 0)
(0.01403943 0.01352759 0)
(0.013894192 0.015603468 0)
(0.013608652 0.017855001 0)
(0.013190191 0.02027834 0)
(0.012594032 0.022944114 0)
(0.011811339 0.025881561 0)
(0.010849217 0.029106253 0)
(0.009706029 0.032698418 0)
(0.0082766806 0.036710385 0)
(0.0065060228 0.041258462 0)
(0.0043323255 0.046371584 0)
(0.0016389899 0.052164158 0)
(-0.0018347635 0.058690299 0)
(-0.0063372132 0.065937392 0)
(-0.012140761 0.073905778 0)
(-0.019615967 0.082400979 0)
(-0.028998814 0.091034973 0)
(-0.040592547 0.099428268 0)
(-0.054578984 0.10699971 0)
(-0.071047124 0.11294812 0)
(-0.089930612 0.11626492 0)
(-0.11064786 0.11567346 0)
(-0.13199182 0.11002845 0)
(-0.15215868 0.098380243 0)
(-0.16844296 0.08000977 0)
(-0.17756298 0.055077332 0)
(-0.17617535 0.024754522 0)
(-0.16280327 -0.0033105098 0)
(-0.14355998 -0.011365349 0)
(-0.13075286 0.009024132 0)
(-0.10860488 -0.0012971975 0)
(-0.03968121 -0.18697901 0)
(0.060295767 -0.51576131 0)
(0.11264615 -0.994982 0)
(0.18466006 -1.3705535 0)
(0.15145272 -1.3920124 0)
(0.1525315 -1.314806 0)
(0.24964598 -1.433563 0)
(0.42975183 -1.3891133 0)
(0.59770822 -1.2239208 0)
(0.71228959 -1.1253896 0)
(0.76181869 -0.91348642 0)
(0.74363857 -0.56955162 0)
(0.68296218 -0.13836576 0)
(0.59985309 0.30492426 0)
(0.46822249 0.63390991 0)
(0.3910522 0.85559568 0)
(0.39942238 1.0671813 0)
(0.40445072 1.2622814 0)
(0.35685686 1.3264565 0)
(0.26465579 1.208594 0)
(0.16069447 0.9618711 0)
(0.086914231 0.67335751 0)
(0.05116208 0.4926664 0)
(0.019337565 0.43020639 0)
(-0.0062205835 0.39447268 0)
(-0.024448554 0.35325705 0)
(-0.038534385 0.31451767 0)
(-0.050315448 0.28026473 0)
(-0.0597956 0.24956005 0)
(-0.067703144 0.22194878 0)
(-0.074326302 0.19707984 0)
(-0.079919503 0.17460381 0)
(-0.084669013 0.1541752 0)
(-0.088672574 0.13553455 0)
(-0.092039943 0.11841968 0)
(-0.094812758 0.10262389 0)
(-0.097024504 0.087963898 0)
(-0.098690391 0.074277704 0)
(-0.099796446 0.0614308 0)
(-0.10032982 0.049308088 0)
(-0.10026809 0.037815364 0)
(-0.099587079 0.026883647 0)
(-0.098262982 0.016452268 0)
(-0.096270493 0.0064909903 0)
(-0.093575009 -0.0030128192 0)
(-0.090153936 -0.012079779 0)
(-0.085993118 -0.020704093 0)
(-0.081079873 -0.028856602 0)
(-0.075414545 -0.036507855 0)
(-0.069012783 -0.043620108 0)
(-0.061843324 -0.050155232 0)
(-0.053867672 -0.056006899 0)
(-0.045728907 -0.061092575 0)
(-0.037527929 -0.06576234 0)
(-0.022939765 -0.069774276 0)
(0.0041085021 -0.0043151768 0)
(0.006273286 -0.0037301727 0)
(0.007835569 -0.0030584447 0)
(0.008470259 -0.0023231082 0)
(0.009947138 -0.0014449768 0)
(0.010932127 -0.00046031585 0)
(0.011907471 0.00064176089 0)
(0.012797983 0.001856405 0)
(0.013584521 0.0031770039 0)
(0.014273692 0.0046021202 0)
(0.01487015 0.0061366061 0)
(0.015366037 0.0077848296 0)
(0.015742762 0.0095603703 0)
(0.016006345 0.011466446 0)
(0.016151755 0.013519533 0)
(0.016180592 0.015725589 0)
(0.01608615 0.01810534 0)
(0.015871657 0.020689565 0)
(0.015554527 0.023472303 0)
(0.015080553 0.026566265 0)
(0.014461631 0.029978917 0)
(0.013730305 0.03377012 0)
(0.012820488 0.038017288 0)
(0.011668822 0.042892133 0)
(0.010192224 0.048461745 0)
(0.0082933602 0.054874298 0)
(0.0056645756 0.062267948 0)
(0.0020222593 0.070680774 0)
(-0.0029587747 0.080120805 0)
(-0.0099182686 0.090497453 0)
(-0.019228157 0.10146926 0)
(-0.031221755 0.11248157 0)
(-0.046400097 0.12288798 0)
(-0.065154557 0.13184655 0)
(-0.087704142 0.13813183 0)
(-0.11353175 0.13986893 0)
(-0.14127386 0.13509518 0)