/*--------------------------------*- C++ -*----------------------------------*\
  =========                 |
  \\      /  F ield         | OpenFOAM: The Open Source CFD Toolbox
   \\    /   O peration     | Website:  https://openfoam.org
    \\  /    A nd           | Version:  9
     \\/     M anipulation  |
\*---------------------------------------------------------------------------*/
FoamFile
{
    format      ascii;
    class       surfaceScalarField;
    location    "0.55";
    object      alphaPhi0.phase1;
}
// * * * * * * * * * * * * * * * * * * * * * * * * * * * * * * * * * * * * * //

dimensions      [0 3 -1 0 0 0 0];

internalField   nonuniform List<scalar> 
19800
(
4.6313165e-88
-1.8630246e-87
7.1604229e-88
-1.9659873e-87
3.6138263e-86
-8.5460088e-87
1.1462208e-84
-2.7395098e-85
1.4978142e-84
-4.0002792e-85
4.4431268e-85
-1.8466048e-85
1.2042959e-85
-5.6928535e-86
7.7213089e-86
-1.7420078e-86
8.0754258e-86
-5.1246069e-86
8.5171424e-86
-5.1794866e-86
6.0772715e-84
-3.1917125e-85
1.794963e-81
-6.0286775e-83
9.5567048e-80
-3.5620865e-81
1.197193e-78
-4.779802e-80
6.4017541e-78
-2.736053e-79
2.2753434e-77
-9.4023333e-79
6.1827652e-77
-2.3337042e-78
1.1240085e-76
-4.2092106e-78
1.5025015e-76
-5.3590803e-78
3.7160781e-75
-7.3776582e-77
4.0646101e-73
-6.7618646e-75
3.8876214e-71
-5.4664618e-73
3.1424281e-69
-3.6649919e-71
2.2115613e-67
-2.0886472e-69
1.4747782e-65
-1.0793854e-67
1.0499634e-63
-5.5412081e-66
7.3575733e-62
-2.376768e-64
5.8616411e-60
-6.5180219e-63
9.3162511e-58
9.4500217e-61
3.9925209e-56
1.6697459e-58
7.4515145e-55
5.5891132e-57
1.1373945e-50
1.1850008e-52
4.2463768e-47
7.7560829e-49
8.0139962e-47
1.9710054e-48
2.0227947e-46
8.902369e-48
1.7429462e-46
1.006155e-47
3.9220764e-47
5.3638727e-48
2.3557997e-48
8.4274386e-49
1.2895982e-48
1.2930545e-49
1.1033801e-48
1.3730261e-49
4.7559911e-48
4.4411257e-49
6.8444771e-47
6.5210192e-48
8.5903455e-46
9.4226777e-47
9.1006803e-45
1.1210895e-45
7.8472457e-44
1.0483495e-44
5.4177811e-43
7.514806e-44
3.0530466e-42
4.1695735e-43
1.4160081e-41
1.7960085e-42
5.2697541e-41
5.7113015e-42
1.4281005e-40
1.416061e-41
1.7180439e-40
1.2717361e-41
1.2233676e-40
3.9249452e-42
3.7650353e-41
-9.127039e-43
1.9318271e-41
-1.168023e-42
9.9628272e-42
-4.0030891e-40
3.2362884e-40
-7.2520185e-40
4.7745506e-39
-1.7526545e-38
3.3959051e-38
-1.7937723e-37
9.9458694e-38
-8.4889038e-37
1.2396834e-37
-1.6295492e-38
9.182651e-39
-3.2000748e-39
1.5262603e-39
-1.3875454e-40
8.8284814e-40
1.9413696e-42
3.0459039e-40
1.703448e-41
3.3285826e-41
6.8774714e-42
1.7902889e-42
1.008616e-42
6.4890669e-44
8.2889679e-44
8.9920325e-46
3.1404677e-45
4.9186849e-48
4.2666898e-47
3.2468146e-50
4.0911244e-49
2.2172455e-52
3.7505891e-51
1.286256e-54
2.9817745e-53
7.7481441e-57
2.030892e-55
7.8372122e-59
1.7729952e-57
5.561819e-61
1.948921e-59
1.4911019e-63
1.1577548e-61
4.2965465e-66
5.5338937e-64
1.0544962e-68
2.7566121e-66
-8.7497046e-72
1.3953873e-68
-3.7555545e-73
6.9740812e-71
-3.5642913e-75
3.472575e-73
-1.615467e-76
1.6926459e-75
-7.1505366e-77
6.0123553e-77
-2.9956217e-77
2.0401104e-77
-1.1277152e-77
6.110592e-78
-3.5724286e-78
1.6523522e-78
-8.3625384e-79
3.5679811e-79
-9.2439609e-80
5.1271908e-80
-2.4940989e-81
2.8913441e-81
-1.1043701e-83
2.0746407e-83
-1.0309267e-86
-1.3166333e-85
-1.0093212e-86
-8.1256287e-87
-9.9082986e-87
-8.2582135e-87
-1.6447654e-86
-1.5209636e-87
-1.3973196e-86
-2.9988582e-87
-1.9991076e-87
-2.6913138e-87
-1.6687388e-88
-3.6251118e-88
-3.2133313e-89
-4.4565233e-89
-2.2422766e-89
-3.1258392e-88
-3.1149455e-88
1.7148113e-87
-4.4030227e-87
1.5489568e-85
-1.4173377e-85
6.6213914e-84
-5.1734246e-84
3.0917323e-83
-2.9978034e-83
3.8154506e-83
-3.6705601e-83
2.8363341e-83
-2.7312397e-83
1.8200762e-83
-1.7379258e-83
5.3918442e-84
-6.886896e-84
5.2384984e-85
-1.1527799e-84
2.5379891e-85
-1.1165192e-85
5.244957e-84
-5.4506025e-85
1.1606055e-81
-9.3404653e-83
7.3670108e-80
-5.3503451e-81
9.8892599e-79
-5.8703326e-80
6.2556432e-78
-4.3207772e-79
2.2465771e-77
-1.5341892e-78
5.7314677e-77
-3.6122721e-78
1.0682794e-76
-6.4177241e-78
1.8263809e-76
-1.1920016e-77
6.6630908e-74
-6.755926e-75
8.5577765e-72
-5.3306762e-73
6.9784015e-70
-3.4048761e-71
4.5561851e-68
-1.7196945e-69
2.7267495e-66
-7.6388674e-68
1.5852293e-64
-3.0334012e-66
1.2349203e-62
-1.346731e-64
1.3830119e-60
-3.5956586e-63
1.5515292e-58
7.4699202e-61
1.1824606e-56
1.3781076e-58
1.1215287e-54
2.2049841e-56
8.1733653e-52
2.3157339e-53
1.9813049e-49
7.1079245e-51
1.2368347e-45
1.1260938e-46
6.7447611e-46
9.5617973e-47
3.3337643e-46
3.113292e-47
7.1511849e-44
1.1448945e-44
6.7681204e-44
1.2980259e-44
7.0010318e-45
4.648674e-45
1.150082e-46
2.5216933e-46
7.3502227e-47
2.2294104e-47
9.2853644e-46
1.8079181e-46
1.1897288e-44
2.5626857e-45
1.2935957e-43
3.116929e-44
1.1940912e-42
3.1410041e-43
8.6468479e-42
2.4171396e-42
4.474481e-41
1.2856495e-41
1.5909318e-40
4.4498613e-41
4.129711e-40
1.0056625e-40
9.2437734e-40
1.6124948e-40
1.7823271e-39
1.7742231e-40
2.0770818e-39
-9.7857448e-42
1.8962121e-39
-3.0016409e-40
1.0703371e-39
-3.850284e-40
6.3183394e-40
-2.643028e-40
4.6950611e-39
-1.1478857e-39
3.6541912e-37
-3.7451387e-37
4.6264928e-36
-4.4357149e-36
2.9048075e-35
-2.5470508e-35
7.4280894e-35
-4.7796767e-35
9.7328369e-35
-2.7639758e-35
1.457055e-35
-6.4928053e-36
5.6652636e-37
-3.0700664e-37
1.8409973e-37
-2.8277185e-40
1.0459459e-37
1.4470617e-38
1.950315e-38
8.7494946e-39
1.7148402e-39
1.9845002e-39
9.8407588e-41
2.55301e-40
1.8589145e-42
1.4259769e-41
9.2311287e-45
2.275471e-43
5.251274e-47
2.0375776e-45
3.4542353e-49
1.8015917e-47
1.9383883e-51
1.3949863e-49
1.0106792e-53
9.0996738e-52
8.7689793e-56
6.4101648e-54
8.9539592e-58
7.6752724e-56
2.1081472e-60
5.1370164e-58
3.9228209e-63
1.9406846e-60
7.8537647e-66
8.2444191e-63
-2.1516544e-68
3.9816953e-65
-4.3456391e-70
1.9611386e-67
-3.6121463e-72
9.4740295e-70
-2.3557858e-74
4.2325606e-72
-3.3361371e-76
1.7886067e-74
-4.8309003e-77
1.632158e-76
-1.4554685e-77
1.4365394e-77
-4.1989723e-78
2.9525302e-78
-8.9954032e-79
5.3465626e-79
-9.3849871e-80
6.2321592e-80
-2.6412877e-81
2.8923327e-81
-1.6412404e-83
8.3293276e-85
-9.7674602e-86
-8.3019179e-85
-3.484358e-85
-2.6169703e-86
-6.4829423e-85
-2.0181561e-85
-1.0143628e-84
-3.9876839e-85
-8.856053e-85
-6.5641015e-85
-3.4034593e-85
-6.9219029e-85
-3.5012172e-86
-2.1262367e-85
-3.1078308e-87
-2.5585331e-86
-2.4987139e-88
-3.160897e-87
-6.3912981e-88
1.406657e-84
-4.2341855e-84
1.3993962e-82
-1.670938e-82
5.9925727e-81
-6.2062141e-81
2.3279565e-80
-2.9701999e-80
2.7749275e-80
-3.3368894e-80
1.9854772e-80
-2.454431e-80
1.21652e-80
-1.5183472e-80
3.6148223e-81
-5.9188128e-81
4.0207361e-82
-1.0166808e-81
1.7687552e-82
-1.3635387e-82
3.8196426e-82
-1.5221058e-82
9.1801192e-81
-2.1568719e-81
2.4971099e-79
-4.6208146e-80
8.1891464e-78
-1.5125039e-78
2.569582e-76
-2.3622957e-76
1.0841858e-75
-5.781487e-76
6.1099233e-76
-1.9686275e-76
1.7306229e-75
-4.3647267e-76
6.3031352e-74
-5.9468673e-75
8.0872372e-71
-7.0037455e-71
1.0063203e-68
-8.4749881e-70
8.4009393e-67
-5.082568e-68
5.493962e-65
-2.4999377e-66
3.2688464e-63
-1.0715104e-64
1.9120547e-61
-3.9332737e-63
1.5575494e-59
-1.419429e-61
1.9189951e-57
4.3602025e-60
2.1320959e-55
2.5422351e-57
1.560681e-53
3.361969e-55
1.6340795e-51
5.1407011e-53
6.419102e-49
2.6935699e-50
3.2848689e-46
1.7193074e-47
1.1204516e-42
1.4339938e-43
5.4477935e-43
1.1631906e-43
9.9401036e-44
1.7756321e-44
8.1592378e-41
1.6498841e-41
7.9512789e-41
1.9121403e-41
9.6529136e-42
7.2968625e-42
1.0298418e-43
4.4555846e-43
2.7610846e-44
9.9220094e-45
1.6317412e-43
3.9243801e-44
2.0120564e-42
4.9077675e-43
2.0686312e-41
5.5419887e-42
1.8156346e-40
5.2269056e-41
1.2710321e-39
3.824445e-40
6.4899374e-39
1.9637433e-39
2.3063093e-38
6.5501461e-39
5.9566612e-38
1.3713564e-38
1.3102619e-37
1.7439661e-38
2.582157e-37
2.826538e-39
3.0626057e-37
-5.6142582e-38
2.8311014e-37
-1.1319828e-37
1.6323747e-37
-1.1358599e-37
9.9120502e-38
-6.9758901e-38
3.0933864e-36
-1.2603407e-36
2.1218732e-34
-2.2425857e-34
2.5472884e-33
-2.4938626e-33
1.6564799e-32
-1.4851082e-32
4.8319469e-32
-3.3335107e-32
7.2416322e-32
-2.9056944e-32
1.2020994e-32
-7.2614019e-33
7.5474877e-34
-4.3828915e-34
2.4172839e-34
-4.7946177e-36
9.6239006e-35
2.2008727e-35
1.2662721e-35
9.7473003e-36
1.081099e-36
1.8617918e-36
6.9914706e-38
2.3859465e-37
1.5530826e-39
1.4664094e-38
8.1923519e-42
2.57586e-40
4.4225762e-44
2.3058482e-42
2.8541123e-46
2.0198448e-44
1.5754561e-48
1.5503853e-46
7.9998651e-51
9.9966403e-49
6.2252041e-53
6.8554729e-51
5.0727578e-55
6.9512913e-53
1.3238905e-57
4.5158218e-55
2.7112993e-60
1.8956888e-57
3.8768838e-63
8.6119984e-60
-3.4101627e-65
4.26263e-62
-4.5137554e-67
2.1390043e-64
-3.447739e-69
1.0239442e-66
-2.1217785e-71
4.5085503e-69
-2.0561181e-73
1.8505377e-71
-1.4390091e-74
1.3056373e-73
-2.8971442e-75
7.1812038e-75
-5.4921135e-76
1.0732939e-75
-6.7799028e-77
1.3346629e-76
-5.6535535e-78
9.4690699e-78
-3.6098535e-79
3.1293273e-79
-1.1079033e-80
-8.0319306e-81
-1.8764468e-82
-1.1083382e-81
-6.4572759e-82
-6.1630186e-83
-9.6233975e-82
-4.1814758e-82
-1.2751486e-81
-7.2045999e-82
-1.1150069e-81
-1.0630213e-81
-3.9229045e-82
-1.0541907e-81
-3.739644e-83
-3.1366217e-82
-3.2132781e-84
-3.5154949e-83
-2.379906e-85
-4.1600164e-84
-7.5734887e-85
7.160979e-82
-2.6076523e-81
8.7916528e-80
-1.2371875e-79
3.749227e-78
-4.6629078e-78
1.1925876e-77
-1.9220423e-77
1.3987918e-77
-2.0373881e-77
9.9585619e-78
-1.4977084e-77
5.9521102e-78
-9.1205875e-78
1.7574566e-78
-3.5178706e-78
2.2845976e-79
-6.0966072e-79
1.195317e-79
-1.1388858e-79
3.9916637e-79
-1.7172422e-79
7.9672806e-78
-2.4551675e-78
1.9061012e-76
-1.3917409e-76
8.6319611e-75
-7.9227308e-75
4.3910454e-73
-1.0866717e-73
1.6736203e-72
-6.5092928e-73
3.8248789e-73
-1.7636983e-73
3.0971839e-72
-2.0563265e-72
1.1324064e-70
-6.4980049e-71
3.7332005e-68
-2.0370727e-69
7.2353535e-66
-1.4739281e-66
6.7106093e-64
-4.9911305e-65
4.6096182e-62
-2.1571726e-63
2.8119432e-60
-1.0198486e-61
1.6744087e-58
-3.4652994e-60
1.3848337e-56
-9.018768e-59
1.7425182e-54
1.157205e-56
2.051798e-52
3.8482683e-54
1.4727111e-50
4.5477185e-52
1.5894885e-48
6.7901966e-50
4.977755e-46
2.7325932e-47
3.647254e-43
2.4612921e-44
7.4243093e-40
1.2014197e-40
3.4013194e-40
9.3720756e-41
5.5213817e-41
1.2215649e-41
6.8786227e-38
1.6019658e-38
6.7595364e-38
1.9609208e-38
9.9908812e-39
8.1755869e-39
1.1495951e-40
5.7791323e-40
1.461223e-41
6.7105299e-42
1.8302828e-41
7.518107e-42
2.5278553e-40
7.1036068e-41
2.4684811e-39
7.5232622e-40
2.0503835e-38
6.7227622e-39
1.3777926e-37
4.7297321e-38
6.8671653e-37
2.3682473e-37
2.4124328e-36
7.7052826e-37
6.1667133e-36
1.5204291e-36
1.3366922e-35
1.5101286e-36
2.6765682e-35
-2.0983282e-36
3.1937217e-35
-1.192376e-35
2.9737354e-35
-2.015692e-35
1.816579e-35
-1.9140816e-35
1.3759605e-35
-1.3413627e-35
1.2731282e-33
-1.3290055e-33
7.8899611e-32
-8.6347807e-32
9.1828058e-31
-9.2348581e-31
6.2630397e-30
-5.7840102e-30
2.0798712e-29
-1.5373995e-29
3.6036595e-29
-1.9047179e-29
6.7194688e-30
-5.0583626e-30
6.7851865e-31
-4.0261344e-31
2.3680655e-31
-1.0075245e-32
6.8176457e-32
2.2428624e-32
6.3018329e-33
7.5797428e-33
5.1600777e-34
1.2224186e-33
3.7024202e-35
1.557256e-34
9.5600626e-37
1.0424754e-35
5.501462e-39
2.0376971e-37
2.8357768e-41
1.8522894e-39
1.7925291e-43
1.6115761e-41
9.7261359e-46
1.2320701e-43
4.8564092e-48
7.8861487e-46
3.7292372e-50
5.3998493e-48
2.6498682e-52
5.2024604e-50
6.5085593e-55
3.2085604e-52
1.266424e-57
1.3817922e-54
1.3328245e-61
6.5706702e-57
-3.5892323e-62
3.2975567e-59
-3.639482e-64
1.6902193e-61
-2.5485149e-66
7.9910014e-64
-1.479887e-68
3.4617215e-66
-1.1684582e-70
1.3770195e-68
-7.298547e-72
7.9915883e-71
-1.5911532e-72
3.9836639e-72
-3.3557368e-73
6.4773757e-73
-5.1990944e-74
8.8604034e-74
-5.1604047e-75
7.5529825e-75
-3.0566684e-76
2.4378958e-76
-8.0930489e-78
-1.3223016e-77
-2.2773285e-79
-1.0829297e-78
-7.528044e-79
-9.3892737e-80
-1.02976e-78
-5.6705082e-79
-1.161595e-78
-8.7827532e-79
-9.8646114e-79
-1.1736743e-78
-3.3019237e-79
-1.0597648e-78
-2.9415876e-80
-3.199214e-79
-2.3888895e-81
-3.3248652e-80
-1.5662445e-82
-3.6462249e-81
-5.9732044e-82
2.8230064e-79
-1.1998388e-78
3.9360366e-77
-6.386571e-77
1.6729767e-75
-2.4298446e-75
4.7138822e-75
-9.1609927e-75
5.4887746e-75
-9.3405134e-75
3.9115984e-75
-6.8813968e-75
2.2987903e-75
-4.149727e-75
6.7601083e-76
-1.5877362e-75
1.0030283e-76
-2.7889624e-76
5.9214919e-77
-6.6178191e-77
3.2647452e-76
-1.5446482e-76
6.2984491e-75
-2.265614e-75
1.6343795e-73
-1.2835252e-73
7.9280901e-72
-7.3485776e-72
2.8151668e-70
-8.0437125e-71
8.3192874e-70
-3.6037523e-70
1.8023368e-70
-9.0855412e-71
4.5061304e-69
-3.657508e-69
1.7379572e-67
-1.3451998e-67
4.9619302e-66
-5.526138e-67
2.9715505e-63
-1.268467e-63
3.7111432e-61
-5.4998533e-62
2.8304268e-59
-2.8903385e-60
1.7798792e-57
-6.7669742e-59
1.0782566e-55
-2.2841098e-57
8.6367921e-54
-3.4831082e-56
1.1307683e-51
1.2716197e-53
1.3954342e-49
3.5816761e-51
1.009484e-47
4.0151834e-49
1.0974898e-45
5.8768782e-47
3.0175808e-43
2.0370348e-44
2.7056886e-40
2.2100325e-41
3.8996381e-37
7.555776e-38
1.7063813e-37
5.7076437e-38
2.7255628e-38
7.1019819e-39
4.4728245e-35
1.1209619e-35
4.5140552e-35
1.5203811e-35
8.2292193e-36
6.9767478e-36
1.2323189e-37
5.9314929e-37
2.7730176e-39
7.3982991e-39
2.5548765e-39
1.3328526e-39
2.4341149e-38
7.9932406e-39
2.2573041e-37
7.8982291e-38
1.764246e-36
6.741341e-37
1.1294757e-35
4.6159445e-36
5.4502378e-35
2.2932811e-35
1.8729131e-34
7.4873496e-35
4.6909233e-34
1.4672694e-34
9.9380879e-34
1.304941e-34
1.9838024e-33
-2.9933236e-34
2.3669196e-33
-1.4225028e-33
2.2286932e-33
-2.3453856e-33
1.5782594e-33
-2.195746e-33
2.5441556e-33
-2.5380303e-33
3.5994964e-31
-4.1798052e-31
2.0453886e-29
-2.3295717e-29
2.3319885e-28
-2.4135152e-28
1.6724221e-27
-1.5901804e-27
6.3418468e-27
-4.9622733e-27
1.2874736e-26
-8.6356046e-27
2.7445272e-27
-2.4379242e-27
4.3378353e-28
-2.6109805e-28
1.6864728e-28
-1.0039867e-29
3.822137e-29
1.6588531e-29
2.5582258e-30
4.4809466e-30
1.95116e-31
6.0923203e-31
1.5242913e-32
7.6425293e-32
4.5346044e-34
5.5222677e-33
2.9077224e-36
1.2088255e-34
1.4345673e-38
1.1292302e-36
8.8115133e-41
9.7316249e-39
4.6469662e-43
7.3821942e-41
2.2575856e-45
4.6457021e-43
1.8070779e-47
3.1873168e-45
1.1285948e-49
3.0321464e-47
2.5026833e-52
1.8150658e-49
3.7806524e-55
7.9873735e-52
-1.5572862e-57
3.9428778e-54
-2.8242207e-59
2.0616831e-56
-2.3867975e-61
1.0482694e-58
-1.5413031e-63
4.8794123e-61
-8.3897498e-66
2.0650753e-63
-5.3118164e-68
7.9162229e-66
-2.7365806e-69
3.7252809e-68
-6.7321352e-70
1.5653761e-69
-1.5544875e-70
2.8818744e-70
-2.71691e-71
4.2136671e-71
-2.9345159e-72
3.8346061e-72
-1.7116221e-73
9.8237187e-74
-4.2457318e-75
-1.1484189e-74
-2.2197241e-76
-7.1447305e-76
-6.6615314e-76
-1.1005919e-76
-8.6415394e-76
-5.6047291e-76
-8.1648376e-76
-8.043608e-76
-6.6396907e-76
-9.481787e-76
-2.1544606e-76
-7.8592402e-76
-1.7888764e-77
-2.3810371e-76
-1.3441901e-78
-2.3019727e-77
-7.9861822e-80
-2.3266403e-78
-3.4936255e-79
9.072725e-77
-4.3836578e-76
1.3740389e-74
-2.5190778e-74
5.8168429e-73
-9.6317855e-73
1.5168942e-72
-3.4334616e-72
1.7604292e-72
-3.4090404e-72
1.2606773e-72
-2.5217967e-72
7.3197715e-73
-1.5109741e-72
2.1522225e-73
-5.7605553e-73
3.54893e-74
-1.0268785e-73
2.6168366e-74
-2.8590247e-74
2.1993775e-73
-1.3010123e-73
4.1254527e-72
-1.6815427e-72
1.1628458e-70
-9.7177487e-71
7.5060872e-69
-2.9739757e-69
1.2282012e-67
-4.1733544e-68
2.9696531e-67
-1.4565083e-67
8.12881e-68
-3.2288108e-68
5.2427387e-66
-4.6077831e-66
2.2757881e-64
-1.9157925e-64
6.9112201e-63
-5.3130109e-63
3.4702493e-61
-2.7101634e-62
1.3773358e-58
-1.4352935e-58
1.6436181e-56
-4.3239525e-56
8.7141198e-55
-6.2486532e-56
5.5747408e-53
-1.2224113e-54
4.1753321e-51
-3.0125216e-54
5.6219239e-49
9.1187343e-51
7.0008528e-47
2.2934811e-48
5.3322119e-45
2.6012647e-46
5.5659467e-43
3.5739328e-44
1.6518206e-40
1.3131235e-41
1.795631e-37
1.7114389e-38
1.6840409e-34
3.7670442e-35
7.1351838e-35
2.7844218e-35
1.132721e-35
3.3655514e-36
2.2680555e-32
5.9512118e-33
2.4127057e-32
9.2017579e-33
5.4157901e-33
4.667827e-33
1.1001781e-34
4.8381784e-34
5.7944955e-37
7.5382283e-36
3.6523349e-37
2.1220918e-37
1.9031635e-36
7.4852982e-37
1.6373293e-35
6.5840887e-36
1.1956964e-34
5.3856566e-35
7.2232034e-34
3.6179119e-34
3.3362446e-33
1.8092811e-33
1.1039631e-32
6.072236e-33
2.6548629e-32
1.2455137e-32
5.3670131e-32
1.2487332e-32
1.0397776e-31
-1.8966923e-32
1.2287e-31
-1.1097067e-31
1.1734932e-31
-1.90211e-31
8.7067212e-32
-1.7321645e-31
5.0506065e-31
-5.5493263e-31
7.3528649e-29
-9.0759748e-29
3.8754785e-27
-4.6231718e-27
4.3664079e-26
-4.6516412e-26
3.313435e-25
-3.2337859e-25
1.4309994e-24
-1.159547e-24
3.4401293e-24
-2.8353974e-24
8.5403698e-25
-8.5632358e-25
2.0268085e-25
-1.2604221e-25
8.6945652e-26
-5.8034167e-27
1.7176191e-26
9.169852e-27
8.9660037e-28
2.1383641e-27
6.088919e-29
2.4532919e-28
5.0082252e-30
2.959506e-29
1.7127485e-31
2.2811505e-30
1.2739258e-33
5.69249e-32
6.0291349e-36
5.5714243e-34
3.5415604e-38
4.7241063e-36
1.7941895e-40
3.5261021e-38
8.5690262e-43
2.1841988e-40
7.5335664e-45
1.533721e-42
3.8203428e-47
1.4584578e-44
6.8872715e-50
8.2309921e-47
2.6376331e-53
3.7076136e-49
-1.5465853e-54
1.9148005e-51
-1.7192473e-56
1.0428454e-53
-1.2733858e-58
5.2268336e-56
-7.5855732e-61
2.3795322e-58
-3.8390923e-63
9.7441961e-61
-2.0212854e-65
3.5555907e-63
-8.4087257e-67
1.4011853e-65
-2.3008758e-67
4.8686554e-67
-5.6284968e-68
9.9612102e-68
-1.0665696e-68
1.5045924e-68
-1.2452551e-69
1.3880611e-69
-7.2299444e-71
1.9165657e-71
-1.6605853e-72
-6.5919118e-72
-1.810239e-73
-3.354032e-73
-4.6539049e-73
-1.0630717e-73
-5.6490433e-73
-4.2634397e-73
-4.9212943e-73
-5.8136327e-73
-3.5516998e-73
-5.913398e-73
-1.1068702e-73
-4.5480122e-73
-8.57997e-75
-1.3564382e-73
-6.0110621e-76
-1.2229703e-74
-3.2772302e-77
-1.1493061e-75
-1.5991931e-76
2.4601656e-74
-1.3242142e-73
3.9417827e-72
-8.0231911e-72
1.6620162e-70
-3.0754358e-70
4.1626581e-70
-1.0564928e-69
4.723918e-70
-1.0301424e-69
3.4401176e-70
-7.6585604e-70
1.9834393e-70
-4.5753738e-70
5.843741e-71
-1.7422965e-70
1.0323487e-71
-3.1570404e-71
8.4573061e-72
-9.4425669e-72
1.2561307e-70
-8.9339987e-71
2.3153079e-69
-1.0503838e-69
7.03434e-68
-6.1235126e-68
4.1306744e-66
-1.5628599e-66
4.0632493e-65
-1.5305549e-65
8.5257195e-65
-4.5714774e-65
5.3621456e-65
-2.8702521e-65
5.1549318e-63
-4.7185511e-63
2.5621544e-61
-2.275368e-61
9.0827525e-60
-7.7138305e-60
2.7497575e-58
-2.2071743e-58
1.5972783e-56
-8.6359235e-58
3.2483629e-54
-1.0256541e-55
3.6628546e-52
-4.9084915e-52
2.3230993e-50
-1.0408557e-51
1.5631144e-48
4.0272025e-51
2.1872826e-46
4.7798402e-48
2.9007647e-44
1.1695697e-45
2.2124985e-42
1.2839866e-43
2.1795512e-40
1.6311882e-41
4.2186275e-38
3.4957056e-39
9.0463662e-35
9.766768e-36
6.1517947e-32
1.5496731e-32
2.369174e-32
1.0834383e-32
3.4857053e-33
1.1563161e-33
9.1285569e-30
2.4948015e-30
1.0400322e-29
4.4223215e-30
2.8792521e-30
2.4858768e-30
7.9319109e-32
3.1376723e-31
2.8403311e-34
6.1171215e-33
8.124984e-35
5.5760478e-35
1.2139036e-34
7.1601459e-35
9.4947141e-34
4.4278835e-34
6.514552e-33
3.4640076e-33
3.6748047e-32
2.2911617e-32
1.5987859e-31
1.1613257e-31
4.9594818e-31
4.0479407e-31
1.0929274e-30
8.8659022e-31
1.9829477e-30
1.0741391e-30
3.5109284e-30
-2.9513442e-31
3.9923455e-30
-5.4319607e-30
3.9102651e-30
-1.0234225e-29
3.3361136e-30
-9.219678e-30
8.0402452e-29
-1.2525586e-28
1.1008934e-26
-1.5684279e-26
5.4833256e-25
-7.2178051e-25
6.1679092e-24
-7.2832305e-24
4.9666536e-23
-5.0849314e-23
2.4449357e-22
-2.0536983e-22
7.0015492e-22
-7.0560421e-22
2.0882856e-22
-2.4903894e-22
7.2097432e-23
-6.2251844e-23
3.2516712e-23
-2.5656969e-24
6.0591249e-24
3.8743839e-24
2.7205022e-25
8.3039162e-25
1.5933537e-26
8.1716606e-26
1.332843e-27
9.2547639e-27
5.2209179e-29
7.521173e-28
4.6307249e-31
2.1593713e-29
2.1184828e-33
2.2613341e-31
1.1641788e-35
1.8666044e-33
5.5868021e-38
1.3561601e-35
2.6427801e-40
8.2393532e-38
2.4809604e-42
5.9157881e-40
9.442031e-45
5.4989271e-42
1.1981731e-47
3.0181744e-44
-5.1806188e-50
1.431604e-46
-9.4500531e-52
7.903994e-49
-8.271339e-54
4.2948051e-51
-5.4832626e-56
2.1083176e-53
-2.9878244e-58
9.2746644e-56
-1.3694618e-60
3.6048558e-58
-6.0277149e-63
1.2174093e-60
-2.1519662e-64
4.0364901e-63
-6.4462859e-65
1.2288359e-64
-1.6694084e-65
2.7373872e-65
-3.4188116e-66
4.2482754e-66
-4.2589644e-67
3.8665619e-67
-2.3995707e-68
-2.814947e-69
-4.9085982e-70
-2.8023599e-69
-1.2526803e-70
-1.3012665e-70
-2.6727952e-70
-8.3560715e-71
-2.9802568e-70
-2.6089149e-70
-2.3965606e-70
-3.3700594e-70
-1.5596011e-70
-2.9754085e-70
-4.6326235e-71
-2.1260651e-70
-3.3534167e-72
-6.1702126e-71
-2.2071357e-73
-5.1849053e-72
-1.1154568e-74
-4.5676166e-73
-5.9332637e-74
5.768909e-72
-3.4034533e-71
9.6138211e-70
-2.1404693e-69
4.0377165e-68
-8.2100785e-68
9.8485647e-68
-2.7505967e-67
1.1004829e-67
-2.6494625e-67
8.1383719e-68
-1.9816264e-67
4.6750864e-68
-1.1834377e-67
1.3829001e-68
-4.5088456e-68
2.5225942e-69
-8.3196156e-69
2.0789485e-69
-2.4538155e-69
4.8825887e-68
-3.2340803e-68
1.1419601e-66
-6.9551305e-67
3.9821866e-65
-2.0931976e-65
1.365771e-63
-5.6758778e-64
1.0409663e-62
-4.3590282e-63
2.6399014e-62
-1.180254e-62
7.0550505e-62
-3.2481986e-62
4.420589e-60
-4.0929663e-60
2.5286965e-58
-2.3243089e-58
1.0572569e-56
-9.499916e-57
3.826621e-55
-3.3626348e-55
6.5881818e-54
-5.0838383e-54
1.4497092e-52
-8.6292705e-53
5.5066528e-50
-1.1622561e-51
7.3418468e-48
-2.2133767e-48
7.1833674e-46
4.9264263e-48
6.4788714e-44
1.83427e-45
9.8522092e-42
4.8006422e-43
7.088437e-40
4.801015e-41
6.7433178e-38
6.9536169e-39
1.8932412e-37
2.1270759e-38
3.9114269e-32
4.6894254e-33
1.9454155e-29
5.3656954e-30
6.5430491e-30
3.500094e-30
9.6827282e-31
3.5294531e-31
3.0004025e-27
8.623289e-28
3.6428693e-27
1.7045594e-27
1.2281606e-27
1.0589421e-27
4.4936668e-29
1.6008027e-28
1.8749218e-31
3.8460625e-30
9.4573261e-33
3.0675703e-32
8.8823183e-33
6.7816075e-33
4.5006131e-32
2.4732633e-32
2.8850539e-31
1.7888155e-31
1.5025817e-30
1.1636786e-30
6.0239999e-30
5.9556776e-30
1.6834703e-29
2.1523634e-29
3.1223297e-29
5.0030213e-29
4.2776316e-29
7.025677e-29
5.3328749e-29
3.7321618e-29
4.7118541e-29
-1.5966821e-28
5.293483e-29
-3.7298348e-28
8.3276549e-29
-4.3683572e-28
8.8357587e-27
-2.4471578e-26
1.1912816e-24
-2.6186265e-24
5.8262875e-23
-1.0741382e-22
6.6462796e-22
-1.0278995e-21
5.7334136e-21
-7.334878e-21
3.20676e-20
-3.2833005e-20
1.1044298e-19
-1.4211722e-19
4.0688548e-20
-5.5473561e-20
2.030959e-20
-1.6339263e-20
9.2654751e-21
-5.195656e-22
1.608702e-21
1.2571969e-21
7.0013371e-23
2.5876421e-22
3.5455826e-24
2.2757447e-23
2.8970396e-25
2.3705408e-24
1.287575e-26
2.0016979e-25
1.3931554e-28
6.641815e-27
6.2573839e-31
7.6242614e-29
4.2378969e-33
6.0586866e-31
1.4080859e-35
4.27431e-33
6.821858e-38
2.5163817e-35
6.1303713e-40
1.867631e-37
1.5193546e-42
1.6142172e-39
-1.5727136e-46
8.8760187e-42
-3.7916161e-47
4.5705077e-44
-4.1645697e-49
2.6814282e-46
-3.1190389e-51
1.4295323e-48
-1.8476388e-53
6.7799295e-51
-8.9097202e-56
2.816529e-53
-3.437688e-58
9.9632442e-56
-1.122687e-60
2.8687531e-58
-4.5126818e-62
7.1091484e-61
-1.5332617e-62
2.5139935e-62
-4.174633e-63
6.2607411e-63
-9.1192262e-64
9.7475105e-64
-1.1964061e-64
8.2619522e-65
-6.5984393e-66
-3.8962663e-66
-1.1695052e-67
-9.5943502e-67
-7.0333985e-68
-4.492653e-68
-1.3103629e-67
-5.329741e-68
-1.2993504e-67
-1.3200914e-67
-9.6423767e-68
-1.596863e-67
-5.7405206e-68
-1.2379949e-67
-1.6184605e-68
-8.2168654e-68
-1.0924465e-69
-2.3008346e-68
-6.8024911e-71
-1.8040867e-69
-3.2095005e-72
-1.5000359e-70
-1.8277711e-71
1.1916705e-69
-7.6010939e-69
2.041523e-67
-4.9084381e-67
8.5377155e-66
-1.8809397e-65
2.0446988e-65
-6.1943139e-65
2.2643991e-65
-5.9214492e-65
1.6984737e-65
-4.4593226e-65
9.73987e-66
-2.6662433e-65
2.8978181e-66
-1.0182221e-65
5.3615784e-67
-1.9130984e-66
4.3852344e-67
-5.4761097e-67
1.3896393e-65
-7.7262364e-66
5.4942924e-64
-3.334334e-64
1.9855742e-62
-1.0862732e-62
3.6657648e-61
-1.7600517e-61
2.2473967e-60
-1.0387942e-60
6.6877171e-60
-2.7908213e-60
5.5527657e-59
-2.0450368e-59
4.5653886e-57
-1.4330875e-57
2.4472895e-55
-8.49062e-56
1.0999263e-53
-1.0068255e-53
4.8895904e-52
-4.4755941e-52
1.0811848e-50
-9.4045036e-51
3.136641e-49
-2.6926067e-49
5.1418894e-48
-3.8038724e-48
5.7837837e-46
-4.1000044e-48
1.3612843e-43
1.2174728e-45
1.9417739e-41
6.9919254e-43
2.6153202e-39
1.523417e-40
1.8182583e-37
1.4237655e-38
1.4388924e-35
2.7534586e-36
7.2330146e-36
1.6245684e-36
1.6999516e-29
2.213486e-30
5.3677528e-27
1.5931384e-27
1.6509241e-27
8.9769521e-28
1.0595752e-27
4.1616946e-28
8.4401658e-25
2.602044e-25
1.0433489e-24
5.3631064e-25
4.0911774e-25
3.5941662e-25
1.9633158e-26
6.3494289e-26
1.0697856e-28
1.8775149e-27
9.89657e-31
1.6842466e-29
7.6308896e-31
6.0069232e-31
1.8975008e-30
1.2684492e-30
1.0375743e-29
7.3423459e-30
4.9842116e-29
4.6672592e-29
1.8124712e-28
2.4065532e-28
4.425938e-28
9.0841786e-28
5.985735e-28
2.2879469e-27
1.7690468e-28
3.6346214e-27
-1.4153178e-27
3.7327497e-27
-2.4552421e-27
-2.7458461e-27
-2.0606671e-27
-1.2012385e-26
-3.3584594e-27
-3.5611659e-26
3.788441e-25
-4.158048e-24
8.3254825e-23
-3.4450556e-22
4.5142304e-21
-1.2387835e-20
5.4237519e-20
-1.1440689e-19
5.0940562e-19
-8.765997e-19
3.2617986e-18
-3.743908e-18
1.2729129e-17
-1.4230567e-17
4.6930422e-18
-4.8171853e-18
2.4507615e-18
-8.4163011e-19
1.7838542e-18
1.0391971e-20
4.0943512e-19
3.0740629e-19
1.8139728e-20
7.1765281e-20
6.9947626e-22
5.7490716e-21
5.09882e-23
5.137989e-22
2.5098992e-24
4.3129099e-23
3.4054208e-26
1.6473738e-24
1.5532111e-28
2.1343739e-26
1.0960089e-30
1.6130674e-28
2.8154016e-33
1.099808e-30
1.3591528e-35
6.1883648e-33
1.1179887e-37
4.9662082e-35
1.1967271e-40
3.8762258e-37
-1.0220953e-42
2.1603215e-39
-1.5744442e-44
1.260301e-41
-1.3704021e-46
7.3099106e-44
-8.9328032e-49
3.762398e-46
-4.5476419e-51
1.676276e-48
-1.7343811e-53
6.2223847e-51
-3.6777815e-56
1.7464262e-53
-5.8274041e-59
2.8131004e-56
-7.1503013e-60
3.6264462e-59
-3.1286931e-60
4.0009812e-60
-9.0823703e-61
1.2285018e-60
-2.1390431e-61
1.8806436e-61
-2.9289919e-62
1.371333e-62
-1.5542561e-63
-1.7868793e-63
-2.9672064e-65
-2.7045003e-64
-2.7128174e-65
-1.4589633e-65
-5.4082652e-65
-2.7570476e-65
-4.9256352e-65
-5.6443319e-65
-3.2741193e-65
-6.2761548e-65
-1.7953044e-65
-4.3308081e-65
-4.7881277e-66
-2.6705996e-65
-3.0166495e-67
-7.1766658e-66
-1.7875239e-68
-5.2576016e-67
-7.9113351e-70
-4.1504214e-68
-4.7578994e-69
2.1981952e-67
-1.498709e-66
3.8413605e-65
-9.8638791e-65
1.5977078e-63
-3.7694688e-63
3.7815694e-63
-1.2273372e-62
4.1691261e-63
-1.1683131e-62
3.1688255e-63
-8.8642087e-63
1.8174325e-63
-5.313725e-63
5.442862e-64
-2.036749e-63
1.0440038e-64
-3.8830306e-64
8.6415116e-65
-1.182864e-64
3.0727327e-63
-1.8798248e-63
2.159011e-61
-1.313462e-61
6.5839649e-60
-3.6642462e-60
8.3949564e-59
-4.3036919e-59
4.2225154e-58
-2.1117925e-58
1.2781006e-57
-5.9810856e-58
1.9828595e-56
-7.5303954e-57
2.2952871e-54
-7.2409764e-55
2.158298e-52
-5.6084695e-53
1.5542726e-50
-3.4798093e-51
6.9625865e-49
-1.7338449e-49
1.6345242e-47
-1.4288794e-47
6.7919949e-46
-6.0326858e-46
1.6426814e-44
-1.3688828e-44
5.2066795e-44
-9.7518377e-45
2.2526469e-43
3.6753649e-45
3.4165522e-39
1.2435918e-40
5.7923604e-37
4.0060797e-38
4.7354824e-35
4.2725923e-36
3.7067961e-33
7.693923e-34
1.6806571e-33
4.1546362e-34
5.2484958e-27
7.173661e-28
1.3144046e-24
4.1130264e-25
5.2737191e-25
1.8781885e-25
5.1127809e-23
1.1479929e-23
2.2879899e-22
8.5709738e-23
2.4906806e-22
1.412339e-22
1.0387624e-22
9.8039763e-23
6.2960281e-24
1.9209141e-23
4.60127e-26
6.7483677e-25
2.3053252e-28
6.8387362e-27
7.8327033e-29
9.5891115e-29
7.568558e-29
7.0827894e-29
2.9824979e-28
2.4099874e-28
1.3532387e-27
1.4562843e-27
4.5569608e-27
7.7121079e-27
9.6961612e-27
3.1322029e-26
5.7037175e-27
9.0637132e-26
-4.6260909e-26
1.7915154e-25
-1.6726759e-25
2.5529732e-25
-2.2658772e-25
5.0552505e-26
-2.5968578e-25
-3.4381131e-25
-2.8190646e-24
-4.4136573e-24
-1.3900005e-22
-5.6428089e-22
1.8145686e-21
-3.7541109e-20
2.3797142e-19
-1.1546461e-18
3.3258156e-18
-1.0972451e-17
3.3620117e-17
-5.8953851e-17
2.3877289e-16
-2.2534549e-16
1.0685584e-15
-9.5256482e-16
3.3459372e-16
-2.0162334e-18
1.370425e-16
-1.5137017e-17
1.5397862e-16
1.7795965e-17
4.8664624e-17
5.2213437e-17
3.1705377e-18
1.1594705e-17
1.2381675e-19
1.0790394e-18
7.9501018e-21
9.3094305e-20
4.0507994e-22
7.7444717e-21
6.6725601e-24
3.3283026e-22
3.1844944e-26
4.9211524e-24
2.1952746e-28
3.5117265e-26
4.2071267e-31
2.243892e-28
1.9904015e-33
1.1691573e-30
1.2847826e-35
1.0403737e-32
-1.4725242e-38
7.6733191e-35
-4.3485963e-40
4.4867164e-37
-4.5267688e-42
2.7583048e-39
-3.2920094e-44
1.5515241e-41
-1.7852266e-46
7.4781844e-44
-7.8995001e-49
2.9158843e-46
-4.5605081e-52
6.5072698e-49
-1.2176763e-54
4.1556638e-52
-5.5109356e-57
8.6156407e-55
-6.4650303e-58
3.2414191e-57
-5.2068281e-58
4.1798297e-58
-1.7862279e-58
2.260489e-58
-4.3510529e-59
3.1106889e-59
-6.1180865e-60
1.4891211e-60
-3.1348974e-61
-5.5131972e-61
-7.6218803e-63
-6.2985862e-62
-1.0161318e-62
-4.4175033e-63
-1.8628567e-62
-1.1676438e-62
-1.6310208e-62
-2.1066506e-62
-9.4924787e-63
-2.0454186e-62
-4.8191414e-63
-1.2900077e-62
-1.214526e-63
-7.3949147e-63
-7.1535303e-65
-1.9020266e-63
-4.0519881e-66
-1.3036582e-64
-1.6867239e-67
-9.8149655e-66
-1.0607996e-66
3.6617815e-65
-2.6413708e-64
6.48935e-63
-1.7627267e-62
2.6810514e-61
-6.7046221e-61
6.2990005e-61
-2.1676736e-60
6.9366921e-61
-2.0602552e-60
5.3412993e-61
-1.5759187e-60
3.0684703e-61
-9.4812787e-61
9.2589227e-62
-3.652235e-61
1.9324817e-62
-7.0343784e-62
1.6798379e-62
-2.5940207e-62
7.3911534e-61
-4.9226518e-61
6.0910482e-59
-3.8740324e-59
1.5627606e-57
-9.2976967e-58
1.5495173e-56
-8.6364713e-57
6.8800806e-56
-3.8042659e-56
1.9800092e-55
-9.1730514e-56
4.3621798e-54
-1.377706e-54
6.7046849e-52
-2.1733525e-52
7.7763e-50
-2.1593429e-50
7.1428927e-48
-1.5649102e-48
5.6077898e-46
-9.7032082e-47
3.9177093e-44
-5.2788015e-45
2.4328508e-42
-2.3836106e-43
1.2050833e-40
-7.4807848e-42
1.1093577e-39
-3.4947316e-41
2.9574284e-40
1.6396315e-41
8.6169946e-39
4.0751146e-40
9.4822055e-35
7.5329858e-36
7.1122445e-33
7.0996743e-34
1.0797015e-31
1.3016835e-32
6.4976318e-28
9.0148823e-29
1.7326903e-25
2.4689981e-26
3.0550123e-22
9.7480796e-23