/*--------------------------------*- C++ -*----------------------------------*\
  =========                 |
  \\      /  F ield         | OpenFOAM: The Open Source CFD Toolbox
   \\    /   O peration     | Website:  https://openfoam.org
    \\  /    A nd           | Version:  9
     \\/     M anipulation  |
\*---------------------------------------------------------------------------*/
FoamFile
{
    format      ascii;
    class       volScalarField;
    location    "0.55";
    object      p;
}
// * * * * * * * * * * * * * * * * * * * * * * * * * * * * * * * * * * * * * //

dimensions      [1 -1 -2 0 0 0 0];

internalField   nonuniform List<scalar> 
10000
(
0
0.010266007
0.033638081
0.066137
0.10879988
0.16185666
0.22541436
0.29937715
0.38378651
0.47848521
0.58347017
0.69862384
0.82373399
0.9586766
1.1031831
1.2569973
1.4199215
1.5916212
1.7717692
1.9601026
2.1562685
2.3599113
2.5707314
2.7883861
3.0125219
3.2429386
3.4797537
3.7224749
3.9668504
4.2149846
4.4646672
4.7169956
4.9725951
5.230941
5.4910351
5.7517818
6.0119797
6.2702787
6.5250362
6.7741457
7.014577
7.2432417
7.4577243
7.6556355
7.8343408
7.9910469
8.1229885
8.2274232
8.3015646
8.3426076
8.3481249
8.3178789
8.2580066
8.1674012
8.047328
7.9166348
7.7458845
7.5428686
7.3160448
7.0734426
6.8228632
6.5718826
6.3285176
6.096969
5.8818144
5.6853004
5.5082649
5.3504741
5.2107517
5.0874957
4.9786938
4.8822331
4.7960679
4.7182787
4.6472571
4.5816558
4.5203351
4.4623691
4.4070775
4.354314
4.3032681
4.2539063
4.2061505
4.1600843
4.1161422
4.0751308
4.0370739
4.001786
3.9693035
3.9397146
3.912621
3.8882042
3.8668458
3.8485772
3.8334522
3.8215449
3.8128398
3.8072192
3.8046007
3.8093008
-0.0090501637
-0.00099666318
0.021520889
0.053658051
0.096057596
0.14900356
0.21239707
0.28632785
0.37062209
0.46526734
0.57020383
0.68524731
0.81036001
0.94530834
1.0898214
1.2437463
1.4067812
1.5785858
1.7589029
1.9473513
2.1435031
2.3470203
2.5575384
2.7746214
2.9979095
3.2271281
3.4620037
3.7018199
3.9484773
4.197512
4.4488194
4.7031172
4.9604518
5.2204592
5.4824228
5.7454396
6.0083834
6.2698536
6.5281203
6.7809996
7.0258778
7.2600144
7.4806986
7.6852469
7.8709284
8.0348736
8.1742117
8.2861688
8.3679538
8.4169631
8.4307723
8.4177293
8.3611845
8.2712708
8.1487332
7.9966152
7.8098076
7.5919644
7.3498413
7.0914717
6.8255088
6.5604207
6.3029226
6.0625855
5.8395992
5.6371848
5.4564195
5.2969457
5.1573733
5.0356736
4.9295014
4.8364488
4.7541845
4.6806035
4.6138487
4.5523741
4.4949108
4.4405251
4.388613
4.3387601
4.2903523
4.2433764
4.197801
4.1537917
4.1116142
4.0717166
4.0342733
3.999445
3.9672695
3.9378829
3.9109002
3.8867315
3.8655775
3.8475013
3.8325095
3.820704
3.8121311
3.8066284
3.8040922
3.8090058
-0.031879364
-0.024743703
-0.0027555168
0.028989103
0.071201162
0.12394536
0.18731023
0.26113804
0.34544424
0.44019955
0.54521558
0.66046172
0.78579197
0.92097138
1.0658586
1.2202011
1.3836637
1.5559928
1.7368515
1.9258207
2.1225511
2.3266772
2.5377433
2.755358
2.9791859
3.20882
3.4439403
3.6849565
3.9307894
4.1802421
4.4329719
4.6890216
4.9483613
5.2106548
5.4753955
5.7418317
6.0089283
6.2753008
6.5392368
6.7986228
7.050922
7.2933798
7.5230977
7.7371465
7.9326404
8.1066214
8.2561367
8.3783799
8.4706448
8.530426
8.5580001
8.5408272
8.4867924
8.3946924
8.2643596
8.0966903
7.8922201
7.6549427
7.3918924
7.1119459
6.8249819
6.5407558
6.2682189
6.0136468
5.7813571
5.5735515
5.3906604
5.231794
5.0948604
4.9772308
4.8760376
4.7884115
4.7116865
4.6434835
4.5817857
4.5249597
4.4716425
4.4208406
4.3723204
4.3250302
4.2788065
4.2336471
4.189594
4.1468585
4.1057014
4.0664282
4.0292609
3.9943521
3.9617787
3.9316927
3.9047185
3.8805592
3.8593768
3.8412775
3.8262708
3.8144863
3.8059553
3.8005212
3.7979902
3.8031264
-0.06554748
-0.058839732
-0.037240838
-0.0057073935
0.036276002
0.089001273
0.15231568
0.22617443
0.31061042
0.40549321
0.51079942
0.62642389
0.75215858
0.88788569
1.0334036
1.1884087
1.3526563
1.525859
1.7076198
1.897564
2.0953217
2.3004432
2.512492
2.7311027
2.9559138
3.1865652
3.4226517
3.6635528
3.909402
4.1594832
4.4134843
4.6713313
4.9328808
5.197979
5.4662351
5.7370782
6.0096088
6.2825265
6.5541668
6.8224174
7.0846791
7.3380627
7.5794976
7.8058011
8.013848
8.200544
8.3628173
8.4977037
8.6022919
8.673712
8.7072574
8.6994554
8.6493239
8.5551056
8.4158637
8.2320688
8.0057774
7.7421037
7.4494124
7.1383978
6.821283
6.509975
6.2152844
5.9418695
5.6975471
5.4834389
5.2989971
5.1422796
5.0102585
4.8993161
4.805826
4.7262956
4.657589
4.5970039
4.5422721
4.4916244
4.4436137
4.3970466
4.3531511
4.3085712
4.2647025
4.2214084
4.1788136
4.137154
4.0967355
4.0578583
4.0208289
3.9859155
3.9533853
3.9233434
3.8961239
3.8717655
3.8503936
3.8321251
3.8170123
3.805164
3.7966351
3.7912586
3.7888161
3.7941978
-0.11043048
-0.10406798
-0.082672365
-0.051391828
-0.0094938171
0.043131247
0.10646445
0.18047341
0.26505484
0.36022828
0.46594705
0.58203973
0.70841248
0.84491126
0.99126601
1.1472548
1.3126316
1.4870314
1.6700854
1.8614238
2.0605853
2.2670862
2.4805077
2.7004396
2.9264465
3.1581177
3.3950724
3.6369577
3.883574
4.1346461
4.3900431
4.6497172
4.9136704
5.1819156
5.4543092
5.7304557
6.0096928
6.2908652
6.5723837
6.8520933
7.1272197
7.394589
7.6508411
7.8925004
8.116167
8.3185734
8.4965034
8.6467589
8.7659085
8.8506133
8.8965454
8.8988333
8.8536949
8.7577689
8.608744
8.4061999
8.1527021
7.8543768
7.5215419
7.1677816
6.8086994
6.4593096
6.132353
5.8388519
5.5813738
5.3613017
5.1770564
5.0252639
4.9014394
4.8006931
4.7183429
4.6500964
4.5922396
4.541686
4.4959364
4.4531143
4.4118025
4.3710755
4.3308455
4.2900372
4.2489336
4.2076782
4.166557
4.1259016
4.0860984
4.0474963
4.0105034
3.9754521
3.9426372
3.9123
3.88465
3.8599141
3.8382084
3.8196634
3.8043355
3.7923652
3.7837714
3.7784101
3.7760533
3.7818101
-0.16650288
-0.16035281
-0.13921199
-0.10801539
-0.06626338
-0.013704422
0.049709827
0.12383738
0.20869901
0.30429252
0.41049385
0.5272433
0.65444462
0.79187775
0.93934875
1.0966559
1.2634787
1.4394635
1.6242539
1.8173988
2.0183852
2.2267361
2.441991
2.6636531
2.8912504
3.1243897
3.3625752
3.6056059
3.8532754
4.1054908
4.362282
4.6237706
4.8901717
5.1617656
5.438692
5.7208873
6.0079675
6.2990707
6.5926779
6.8865399
7.1776262
7.4623452
7.7368557
7.9972661
8.2398776
8.4612679
8.6581163
8.8271343
8.9646658
9.0666511
9.1286561
9.1441135
9.1067012
9.0106555
8.8514737
8.6270907
8.3395931
7.9960996
7.6096766
7.1983773
6.7829672
6.3836584
6.0174236
5.6975744
5.4255472
5.200856
5.019893
4.8771544
4.7661038
4.6801226
4.6132043
4.5601035
4.5164167
4.4786171
4.4440232
4.4106752
4.3772058
4.3430293
4.3074639
4.270484
4.2322194
4.1929747
4.1531868
4.1133101
4.0738395
4.0352282
3.9979768
3.9625078
3.929145
3.8982487
3.8700458
3.8447571
3.8225725
3.8036372
3.7880258
3.7758658
3.7671513
3.7617807
3.7594889
3.7656527
-0.23364354
-0.22780258
-0.20678835
-0.17576535
-0.13410762
-0.081540006
-0.018102856
0.056218448
0.14144318
0.23748223
0.34430423
0.46186926
0.5900239
0.72862218
0.87751523
1.0364328
1.2050525
1.3830533
1.5700084
1.7653968
1.9687087
2.1794309
2.3969956
2.6208404
2.8504431
3.0853087
3.3251216
3.5694968
3.8183374
4.0716773
4.3297075
4.5927885
4.8614352
5.1362378
5.4177718
5.7064069
6.0022308
6.3047708
6.6127118
6.9236848
7.2342551
7.5401696
7.8368205
8.1196807
8.3846916
8.6283634
8.8474414
9.0387254
9.1985318
9.3218629
9.4055407
9.4393851
9.4144934
9.3218462
9.153257
8.9037866
8.5739946
8.1718443
7.7140071
7.2252918
6.7345998
6.2697894
5.8532389
5.5039393
5.2178999
4.9922498
4.8201088
4.6927837
4.6009913
4.5359012
4.4898509
4.4564903
4.4307388
4.4087082
4.3875992
4.3654393
4.3410135
4.3138629
4.2836745
4.2506432
4.2151458
4.1777102
4.1389578
4.0995211
4.0600127
4.0210368
3.9831837
3.9469964
3.9128356
3.8811263
3.8521486
3.8261201
3.8032993
3.783849
3.767864
3.7554339
3.7465849
3.7411773
3.7389642
3.7455746
-0.31191232
-0.30628914
-0.28552886
-0.25467118
-0.21306347
-0.16054752
-0.097022522
-0.022454981
0.063104224
0.15966263
0.26721802
0.38567491
0.5149551
0.65498076
0.8055512
0.96638849
1.1372082
1.3176441
1.5072077
1.7053664
1.9115779
2.1252236
2.3456445
2.57221
2.8043225
3.0413927
3.2829897
3.5288234
3.7788153
4.0330867
4.2919982
4.5561781
4.8264689
5.1039388
5.3896748
5.6847208
5.9898193
6.3051773
6.6298244
6.9612963
7.29551
7.6271238
7.9503309
8.2596656
8.5505696
8.8195992
9.0639726
9.2810216
9.4676587
9.6198673
9.7296528
9.7889006
9.7843888
9.7019101
9.526972
9.2498507
8.8677795
8.3889895
7.835195
7.2414145
6.6494829
6.0992176
5.6196653
5.2397012
4.9428683
4.7231554
4.568814
4.4663582
4.402757
4.3665068
4.3480748
4.3399493
4.3364673
4.3335086
4.3282614
4.3188301
4.3047524
4.2850828
4.2604992
4.2313663
4.1983825
4.162397
4.1242562
4.0848054
4.0448078
4.00504
3.9661902
3.9288971
3.8936178
3.8607702
3.8307562
3.8038248
3.780224
3.760144
3.7436618
3.7308834
3.7219011
3.7164614
3.7143173
3.72144
-0.40124459
-0.3959813
-0.37543053
-0.34473235
-0.30328863
-0.2507892
-0.18715026
-0.11240131
-0.026486581
0.070643283
0.17894737
0.29840546
0.42901766
0.57067102
0.72316128
0.88626609
1.059684
1.2429858
1.4356761
1.6372128
1.8469448
2.0641352
2.2880501
2.5179601
2.7531164
2.9927816
3.2364829
3.4838916
3.7349216
3.9897583
4.2489295
4.5133503
4.7842701
5.0632614
5.3521473
5.6529024
5.9673033
6.2965031
6.6403131
6.996284
7.3593474
7.7223099
8.0773734
8.417605
8.737795
9.0347741
9.3068364
9.5525742
9.769743
9.9568267
10.100576
10.19549
10.222382
10.162464
9.988462
9.6830869
9.23682
8.6569974
7.9722138
7.2336419
6.5043688
5.8439926
5.2893369
4.8795052
4.5793939
4.37817
4.2557785
4.1918294
4.1684853
4.1711589
4.1885155
4.2120538
4.2356777
4.2552999
4.2683909
4.273374
4.2698616
4.2582344
4.2392215
4.2136979
4.1827821
4.1476932
4.1095504
4.0694448
4.028365
3.9872465
3.9468969
3.9080507
3.8712795
3.8370139
3.8056992
3.7776574
3.7531199
3.7322626
3.7152156
3.7020486
3.6928673
3.6873655
3.6853423
3.6929734
-0.50177232
-0.49686278
-0.47651989
-0.44609201
-0.40480157
-0.35234547
-0.2887024
-0.21379632
-0.1275261
-0.029871697
0.079214358
0.19980681
0.33188137
0.47532847
0.63001166
0.79571967
0.97212
1.1587837
1.3552061
1.5607638
1.7746961
1.99618
2.2243715
2.458363
2.6972201
2.9399893
3.1861555
3.4352561
3.6871234
3.9419804
4.200518
4.4639296
4.733886
5.012556
5.3027298
5.6075018
5.9301582
6.2736056
6.6390448
7.0244077
7.4232127
7.8251086
8.2187877
8.5948584
8.9472625
9.2735954
9.5742547
9.8505059
10.102765
10.327947
10.514987
10.660957
10.736427
10.713341
10.556123
10.226652
9.7027166
8.987652
8.1198095
7.1774917
6.2594151
5.4605204
4.851841
4.3891841
4.0989201
3.9380264
3.8694751
3.8632996
3.8960848
3.9502216
4.0130353
4.0755019
4.1314417
4.1771383
4.2109409
4.2311961
4.2390022
4.2352874
4.2213776
4.1988241
4.1692186
4.1341914
4.0952125
4.0536293
4.0107162
3.9675689
3.9251399
3.884259
3.8455733
3.8095647
3.7766707
3.7472911
3.7216565
3.6999097
3.6822152
3.6685956
3.6591616
3.6535859
3.6517749
3.6599181
-0.61344165
-0.60894323
-0.58895096
-0.55876431
-0.51767571
-0.46541392
-0.40183688
-0.3268293
-0.2403113
-0.14216645
-0.03224513
0.089523783
0.22312972
0.36854704
0.52567951
0.69430266
0.87410376
1.0646831
1.2654761
1.4757566
1.6946987
1.9213776
2.1547554
2.3937044
2.6371502
2.883686
3.1327876
3.3837231
3.6361999
3.8904154
4.1471466
4.4078567
4.6746244
4.9503585
5.2387045
5.5441232
5.8724079
6.2292714
6.6186202
7.0395097
7.4838247
7.9356053
8.3770119
8.79458
9.181032
9.535662
9.862746
10.168141
10.456226
10.727144
10.975293
11.180813
11.326882
11.367473
11.248006
10.908152
10.291211
9.3894144
8.2565703
7.0203827
5.8377537
4.8485712
4.144412
3.6928232
3.4596805
3.3796438
3.3982475
3.4760912
3.5851146
3.7058583
3.8252583
3.9345432
4.0281235
4.103036
4.1596183
4.1957483
4.2147641
4.2183616
4.2086774
4.1880022
4.158539
4.1223886
4.0814659
4.0374177
3.9917713
3.9458325
3.9007056
3.8572616
3.8161541
3.7780203
3.7433061
3.7123866
3.6854708
3.6627172
3.6443235
3.630235
3.6204925
3.6148853
3.6132742
3.6220499
-0.736276
-0.73231355
-0.71269202
-0.68282798
-0.64210214
-0.59012501
-0.52671995
-0.45177876
-0.3651141
-0.26650411
-0.15579621
-0.032889076
0.10231303
0.24984782
0.40962955
0.58148454
0.76515357
0.960213
1.1660394
1.3818612
1.6067748
1.8396892
2.0793367
2.3243447
2.573287
2.824676
3.0774154
3.3304921
3.5834089
3.8362445
4.0897543
4.3456611
4.606321
4.8754375
5.1574243
5.4579353
5.7862124
6.1534381
6.5680059
7.0319623
7.5365846
8.0552631
8.5572807
9.0230174
9.4431134
9.8205652
10.166613
10.494463
10.815178
11.13409
11.447237
11.733314
11.984037
12.127618
12.086916
11.755045
11.036442
9.8728904
8.344583
6.6770911
5.1238607
3.8857176
3.117031
2.7261358
2.6195877
2.6813824
2.8330284
3.028744
3.238406
3.4430099
3.631089
3.7953902
3.9318303
4.0393341
4.1180652
4.1706439
4.2001509
4.2097698
4.2027935
4.1823765
4.1514657
4.1127009
4.0684521
4.020749
3.9713584
3.9217653
3.8731635
3.8264801
3.7825712
3.7419576
3.7051367
3.6724326
3.644119
3.6202904
3.6011156
3.5865198
3.5765486
3.5709344
3.5695088
3.5790239
-0.87035586
-0.86687668
-0.84778957
-0.81843367
-0.77816746
-0.72661414
-0.66359729
-0.58887977
-0.50216986
-0.40323443
-0.29188323
-0.16789197
-0.03107517
0.11864271
0.2812506
0.45665733
0.64462892
0.84472998
1.056339
1.2786531
1.5106467
1.7510318
1.9982971
2.2507453
2.5064396
2.7640686
3.0214464
3.2772669
3.5306189
3.7813218
4.0299775
4.2786326
4.5295442
4.7876073
5.0567726
5.342687
5.6607808
6.0310779
6.4699977
6.985586
7.5739221
8.1884191
8.7695923
9.2915861
9.7405211
10.127612
10.476521
10.81203
11.154849
11.519075
11.907278
12.308672
12.679719
12.976298
13.077088
12.810328
11.977672
10.461433
8.3353167
6.0317444
3.9660008
2.3648571
1.6053472
1.3760295
1.5244784
1.8243906
2.171445
2.5258923
2.8634227
3.1700953
3.4392213
3.6667992
3.8505681
3.991228
4.0930084
4.1605903
4.1986652
4.212073
4.2054701
4.1830495
4.1485703
4.1053348
4.0561665
4.0033998
3.9490683
3.8948305
3.8419667
3.7914814
3.7442166
3.7007639
3.6615755
3.6269134
3.5970773
3.5721271
3.5521584
3.537041
3.5269147
3.5213001
3.5200895
3.5305543
-1.0155913
-1.0126782
-0.99432884
-0.96558937
-0.92595873
-0.87507915
-0.81264929
-0.73832379
-0.65180091
-0.55278295
-0.44095364
-0.31599338
-0.17764595
-0.025738163
0.13983396
0.31904967
0.51171244
0.7174447
0.93566571
1.165531
1.4058656
1.6552063
1.9117947
2.173569
2.4380896
2.7033403
2.9667769
3.226324
3.4803821
3.7283231
3.97034
4.208996
4.4457037
4.6891002
4.9372665
5.1929344
5.4830274
5.8435891
6.3002336
6.8725368
7.5794246
8.3256561
9.0295357
9.6199609
10.0839
10.454104
10.776252
11.092446
11.435447
11.83109
12.289154
12.802184
13.330073
13.844203
14.169063
14.04157
13.064112
10.903314
7.7690683
4.5043185
1.8226878
0.42269581
-0.3750998
-0.3984467
0.13624988
0.79293102
1.4109064
1.9773141
2.4729577
2.8993711
3.2617286
3.5605087
3.793496
3.9676291
4.0907911
4.1704741
4.2138454
4.2276981
4.2182537
4.1909043
4.1502567
4.100253
4.0442154
3.9847906
3.9242134
3.8642856
3.8063191
3.751398
3.7003195
3.6536904
3.6118921
3.575191
3.5437579
3.5176726
3.4968735
3.4813297
3.4710955
3.465566
3.4645535
3.4762323
-1.1719788
-1.1697807
-1.152226
-1.1243227
-1.0856144
-1.0356344
-0.9740129
-0.90038183
-0.81437679
-0.71556088
-0.60349852
-0.47780088
-0.33809413
-0.18405387
-0.015477526
0.1677036
0.36541949
0.57740192
0.8031042
1.0416411
1.2917559
1.5518066
1.8197432
2.0930818
2.3687752
2.6440624
2.9156611
3.1805421
3.4360692
3.6809414
3.914396
4.1401326
4.3559422
4.587363
4.8045859
5.0054103
5.2387303
5.5563626
6.0071471
6.6312089
7.5210225
8.5000301
9.3759876
10.041506
10.486466
10.790326
11.036745
11.290185
11.596396
11.994161
12.502462
13.121304
13.829757
14.559771
15.176762
15.241638
13.834064
10.084152
4.8352519
-0.1054335
-3.2244077
-4.3119681
-3.2489642
-2.4129388
-1.4475396
-0.36424881
0.58514971
1.4058788
2.0870605
2.6495542
3.1146683
3.4922463
3.7732918
3.9782369
4.1186689
4.2055883
4.2492802
4.2589408
4.2424421
4.2064465
4.1564516
4.0970147
4.0318788
3.9640101
3.8957771
3.8290474
3.765175
3.7052141
3.6499334
3.5998314
3.5552581
3.5164444
3.4833767
3.4561983
3.4346798
3.4188469
3.4086068
3.4032787
3.4025099
3.4155613
-1.3394392
-1.3380815
-1.3214573
-1.2946904
-1.2571641
-1.2083489
-1.1479009
-1.0753625
-0.99023357
-0.89198285
-0.78008034
-0.65399214
-0.51318746
-0.35721348
-0.1857324
0.0014922483
0.20457303
0.42337675
0.65741576
0.90582674
1.1673303
1.4401287
1.721846
2.0095385
2.2994886
2.588012
2.8707868
3.1434648
3.4020057
3.6439713
3.8667028
4.0762421
4.253936
4.4493752
4.6418251
4.7202045
4.880721
5.1495466
5.5389196
6.2127648
7.270016
8.6942573
9.8482815
10.595755
10.949004
11.104748
11.204815
11.33461
11.549346
11.899805
12.412357
13.084851
13.874047
14.757285
15.681577
15.889104
13.220845
6.2982872
-2.4894048
-9.6362921
-13.074368
-13.248414
-10.330509
-6.6434982
-3.6421852
-1.699511
-0.33148772
0.82008398
1.7246336
2.4436032
3.0266874
3.4755084
3.8038579
4.0338473
4.1842631
4.2711058
4.3082885
4.3076555
4.2787868
4.229618
4.1665314
4.0946356
4.017974
3.9397413
3.8623867
3.7877743
3.7172181
3.6516607
3.5918275
3.5380733
3.4906666
3.4497548
3.4151973
3.387009
3.3649412
3.348919
3.3388376
3.3338778
3.3335906
3.3482166
-1.5177662
-1.5175324
-1.5020285
-1.4766269
-1.4405937
-1.3933525
-1.3345182
-1.2635082
-1.1797196
-1.0825358
-0.97128837
-0.84527155
-0.70380676
-0.54628538
-0.37214772
-0.18090925
0.027724375
0.25378868
0.49697136
0.75652844
1.0311956
1.3190594
1.6174419
1.9228894
2.2311355
2.5370762
2.8351253
3.1193242
3.3836565
3.6227728
3.8367683
4.0325365
4.1694481
4.3829066
5.1638571
6.7033316
4.6012508
4.4987875
4.6288478
5.2880385
6.6889529
8.7674188
10.493034
11.312609
11.445474
11.323614
11.186736
11.117837
11.175932
11.40802
11.84492
12.464939
13.114877
13.85106
14.881936
14.934243
10.158904
-0.60561876
-12.854865
-21.459594
-25.309702
-24.46685
-19.585574
-12.453266
-6.632804
-3.1848147
-1.335613
0.27931161
1.4363542
2.3221882
3.023508
3.5409701
3.9039156
4.1466394
4.2954208
4.3717338
4.3933702
4.3747443
4.3271157
4.2595418
4.1791716
4.091493
4.0007452
3.9102234
3.8222918
3.7387298
3.6607895
3.5892702
3.5246473
3.4672315
3.4170714
3.3741619
3.3382668
3.3092914
3.2868732
3.2708824
3.2611539
3.2567103
3.2570968
3.2736747
-1.706835
-1.7080188
-1.693807
-1.6700529
-1.6359407
-1.5907345
-1.5339815
-1.4650383
-1.3832002
-1.2877058
-1.1777262
-1.0524211
-0.91094505
-0.75244189
-0.57606718
-0.38107213
-0.16692555
0.066675137
0.31972193
0.59168887
0.88141099
1.1869477
1.5054083
1.8328216
2.1641687
2.4929617
2.8118969
3.1128791
3.3869566
3.6207068
3.8302811
3.9983528
4.1019906
6.1394969
7.286987
7.4153418
5.8297178
3.715608
3.1785856
3.2607081
5.14365
8.3561262
11.19018
12.092869
11.736039
11.223059
10.812585
10.490841
10.327606
10.362575
10.608488
10.992578
11.137581
11.105368
11.652878
11.328718
4.8548645
-8.5393975
-22.044792
-31.063118
-35.114724
-34.246908
-28.2765
-18.57426
-9.655609
-4.4625852
-1.5578856
-0.14213037
1.3082752
2.3614733
3.1555658
3.7189255
4.0926091
4.3282371
4.4587981
4.5108242
4.505655
4.4598472
4.3861107
4.2943211
4.1921223
4.085197
3.9777862
3.8730526
3.7732382
3.6799029
3.5940692
3.516326
3.4469013
3.3859267
3.3331895
3.2885503
3.251598
3.2221833
3.1997036
3.1840555
3.1750366
3.1713272
3.1724705
3.1912772
-1.906434
-1.9092798
-1.896637
-1.8749216
-1.8431707
-1.8004845
-1.7463864
-1.6801693
-1.600987
-1.5079291
-1.4000308
-1.2762895
-1.1356315
-0.97691759
-0.79899934
-0.60082966
-0.38150514
-0.14031743
0.12311483
0.4086259
0.71531862
1.0413618
1.3837676
1.7380948
2.0985527
2.4570302
2.8041582
3.1288739
3.4172306
3.646437
3.8633621
4.0293568
4.1976156
7.5765927
7.3140643
7.3121671
6.4095213
2.5728021
0.77407257
-1.2572393
0.81357038
6.1022976
10.875216
11.996657
11.265074
10.473811
9.861151
9.273343
8.8577604
8.6352481
8.5646968
8.5129512
7.778719
6.2916948
6.2880918
8.9059758
-1.3997498
-15.335412
-28.287386
-36.997135
-41.146573
-40.929404
-34.243679
-23.116228
-11.733784
-5.6966833
-2.2700518
0.19911321
1.7666244
2.6318606
3.4612247
4.0329102
4.38391
4.5865928
4.6780963
4.6892488
4.6441445
4.5608195
4.4529321
4.3307845
4.2020996
4.0724371
3.9458655
3.8252615
3.7125193
3.6088257
3.5148241
3.4308151
3.3567907
3.2925204
3.2375855
3.1916333
3.1541357
3.1246751
3.1026342
3.0877123
3.0797636
3.0771079
3.0793184
3.1005773
-2.1162448
-2.1210819
-2.1103645
-2.0910722
-2.0621487
-2.0225687
-1.9718092
-1.9090525
-1.8333234
-1.7436156
-1.6388267
-1.5177078
-1.378913
-1.2210453
-1.0426482
-0.84224586
-0.61843742
-0.3699981
-0.096015234
0.20389739
0.52933197
0.87879881
1.2493918
1.6364016
2.0332491
2.4301281
2.8151944
3.1739893
3.4832959
3.7230565
3.9415891
4.1445784
4.2845829
5.3118145
6.7886229
7.1663092
5.5815898
1.3373548
-2.1649247
-6.5838392
-6.0148469
1.2743603
12.662366
10.404652
8.0960822
8.167217
7.9785775
7.2820846
6.6727349
6.194745
5.7301142
5.1182514
3.3348708
-0.18268604
-1.457575
1.8450378
-8.6478076
-19.698356
-31.101032
-38.79966
-42.960236
-42.662441
-36.334225
-24.485968
-12.912001
-5.6000656
-1.6521051
0.87667587
2.4131328
3.0991671
3.9288815
4.4856138
4.7811251
4.9233276
4.9526367
4.9045841
4.8052073
4.6733417
4.5229866
4.3642818
4.2045558
4.0489826
3.9011083
3.7632604
3.6367864
3.5224802
3.4204475
3.3305085
3.2523315
3.1853026
3.1288007
3.082145
3.0447608
3.0157803
2.994706
2.9810907
2.9746443
2.9733273
2.976939
3.0010099
-2.3359857
-2.3431727
-2.3347016
-2.3182474
-2.2927251
-2.2569168
-2.2102167
-2.1517446
-2.0804378
-1.995162
-1.8946394
-1.7774073
-1.6418571
-1.4862814
-1.3088506
-1.1075782
-0.8804705
-0.62567198
-0.3415401
-0.026862347
0.31872529
0.69437444
1.0975948
1.5237241
1.9653172
2.4115881
2.8478498
3.2559092
3.5984996
3.8592819
4.0933814
4.3501201
4.4944338
4.7353514
5.0002076
6.7215521
3.2251853
0.14636798
-4.588711
-9.7947558
-9.495106
-2.6136603
18.650247
15.760056
2.8298706
4.2099036
4.9153353
4.4387823
3.8289748
3.1789785
2.3507002
1.1775359
-1.4234883
-6.7459779
-9.9300345
-6.9088254
-13.747245
-20.841711
-30.37785
-36.729533
-40.242838
-39.574273
-33.451369
-22.083595
-11.0761
-4.0899862
-0.28352566
1.7424244
3.453537
4.0694186
4.5738773
5.0813157
5.2854837
5.3355759
5.2772924
5.1505902
4.982107
4.7906497
4.5896765
4.3885625
4.1937756
4.0096421
3.8388517
3.6829318
3.5425654
3.4177294
3.3080782
3.2129133
3.1313904
3.0624855
3.0052845
2.958804
2.9222618
2.8946027
2.8751321
2.8634067
2.8590507
2.8595801
2.8648798
2.892007
-2.5652959
-2.5751623
-2.5693044
-2.5561964
-2.5346913
-2.5033398
-2.4614901
-2.408251
-2.3424673
-2.2628451
-2.1679181
-2.0560612
-1.9254535
-1.7740208
-1.5994484
-1.3992256
-1.1706824
-0.91114588
-0.6180405
-0.28904048
0.077405786
0.48153695
0.92176061
1.3939272
1.8903981
2.3988792
2.9026793
3.3783676
3.7762819
4.0661995
4.3107515
4.5433044
4.6753274
4.9043217
5.0848629
4.7815027
3.5010436
0.8502261
-3.7226695
-8.0354732
-8.4147495
-2.0750151
11.004257
12.788796
-1.8046561
-0.80161278
1.1098006
1.0967978
0.63099879
-0.081383266
-1.1261663
-2.6880433
-5.479058
-11.201794
-16.237736
-12.443211
-15.43508
-19.719725
-27.091213
-31.556962
-33.392185
-32.092335
-26.132313
-16.116985
-6.9188272
-1.2396989
1.7499847
3.4610968
4.8118619
5.1495545
5.5181395
5.8441402
5.8974332
5.8153621
5.6419951
5.4168069
5.1647701
4.903349
4.6444535
4.3959018
4.1627816
3.9481533
3.7535382
3.5793552
3.4254185
3.2909012
3.1746808
3.0754164
2.9916951
2.9220934
2.8653493
2.8201867
2.7854715
2.7600916
2.7431259
2.7340164
2.7322668
2.7351305
2.7426271
2.7731078
-2.8036808
-2.8166304
-2.813843
-2.8046008
-2.7877183
-2.7615588
-2.7254642
-2.6785011
-2.6193941
-2.546736
-2.458951
-2.3542444
-2.2305457
-2.0854462
-1.9161611
-1.7195972
-1.4923293
-1.2306605
-0.93082345
-0.58908766
-0.20220842
0.23175661
0.71276804
1.2379038
1.8000757
2.3865289
2.9767911
3.5434396
4.0284813
4.3777646
4.6299635
4.8332566
4.9730948
5.2019878
5.5556876
5.653325
4.9467498
2.9928245
-0.58490445
-4.2099321
-5.3332005
-0.6556777
5.3959969
6.3387515
-7.2214873
-4.5404291
-2.2706567
-2.0722739
-2.460826
-3.2018116
-4.3040759
-5.9342033
-8.3728893
-12.809364
-18.103512
-18.378849
-12.726767
-15.726517
-22.992158
-24.653991
-24.161182
-21.429625
-15.354692
-8.0175516
-1.4400609
2.43674
4.2905496
5.7194967
6.4331404
6.3208779
6.6861313
6.7462456
6.5966848
6.344495
6.0302299
5.688121
5.3396521
4.9993965
4.6766482
4.3769667
4.1034731
3.8574718
3.6390015
3.4472279
3.2809443
3.138144
3.0168967
2.915149
2.8308723
2.7621113
2.7073089
2.664802
2.633209
2.6112324
2.5977287
2.5921773
2.5938528
2.5995881
2.6097864
2.6439614
-3.0506274
-3.0671459
-3.0678912
-3.0630136
-3.051425
-3.0312803
-3.0018855
-2.9622638
-2.9110585
-2.8467967
-2.7678371
-2.6722436
-2.5577117
-2.4215356
-2.260546
-2.0710298
-1.8487185
-1.5887516
-1.2858687
-0.93456413
-0.52938926
-0.065908761
0.45834348
1.0426541
1.6814262
2.3620936
3.0626731
3.748271
4.3588596
4.8276388
5.1357161
5.3577878
5.5068851
5.7178532
6.0841072
6.3400009
6.2020364
5.2879958
2.6830454
-0.63977493
-2.1374645
1.5772477
9.1456354
-2.0850526
-7.1982129
-5.4217199
-4.5662061
-4.6164617
-5.1333863
-5.9598322
-7.0585388
-8.540702
-10.509888
-13.574852
-17.78656
-19.06157
-17.789964
-4.7474081
-19.109432
-17.806422
-15.412895
-11.618354
-6.2454129
-0.59534035
3.7804716
6.1312047
7.20735
7.5580404
7.797215
7.9786292
7.9885809
7.7377129
7.3474245
6.8956495
6.4191361
5.9449402
5.489845
5.0642179
4.6737527
4.3210569
4.0066778
3.7297734
3.4886134
3.2810781
3.1042172
2.9552396
2.8311764
2.7291194
2.6463993
2.5805232
2.5294608
2.4912789
2.4643421
2.4471427
2.4383303
2.4373359
2.4433006
2.4526092
2.466026
2.5042251
-3.3056131
-3.3261719
-3.3309021
-3.330957
-3.3254108
-3.3121408
-3.2903897
-3.2591918
-3.2171767
-3.1628362
-3.0944715
-3.0100657
-2.9072048
-2.7829854
-2.6338922
-2.4556286
-2.2430603
-1.9900786
-1.6896719
-1.3341299
-0.91524449
-0.42516758
0.14229424
0.79012709
1.5158181
2.3083916
3.145311
3.9906513
4.7851508
5.4362092
5.8849673
6.134455
6.3155476
6.5209632
6.758417
6.9157449
7.2162759
6.6969279
3.7307013
-0.61268389
-3.8053977
-3.1955811
12.633995
-2.0773894
-5.893923
-6.4381815
-6.4623598
-6.7897973
-7.4415972
-8.375696
-9.5085934
-10.881867
-12.401637
-14.492336
-18.255085
-21.199774
-22.003161
-2.9252127
-11.695507
-14.544651
-9.9849815
-4.7785816
0.4198074
4.9408309
8.0136868
9.5188353
9.982844
10.069861
10.001342
9.7787877
9.3621106
8.7701569
8.1090462
7.4355947
6.7806248
6.16363
5.5954668
5.0811306
4.6218101
4.2164278
3.8624869
3.5566358
3.2951013
3.0744707
2.8900453
2.7378493
2.6138863
2.5143546
2.4357949
2.3752461
2.3301101
2.298231
2.2777697
2.2668993
2.2641813
2.2689905
2.2802399
2.2938915
2.3111257
2.3536715
-3.5679641
-3.5930934
-3.602357
-3.6079787
-3.6092337
-3.6036853
-3.5905365
-3.5688726
-3.5373338
-3.4944088
-3.4384234
-3.3673973
-3.2789278
-3.1700285
-3.0369469
-2.8749374
-2.6780748
-2.4390137
-2.1488597
-1.7972925
-1.3726719
-0.86269479
-0.25586658
0.45650737
1.2770383
2.1979161
3.1954647
4.2273049
5.2192065
6.0591584
6.6299294
6.9742686
7.244851
7.455193
7.5117231
7.4368099
8.2340953
6.7961059
1.2036283
-7.3068377
-14.448722
-3.5529643
-6.4129885
-4.4074864
-7.0713027
-8.6810938
-8.7023213
-8.9506103
-9.582115
-10.628729
-11.863941
-13.261923
-14.318699
-16.020822
-19.675659
-22.436685
-21.629454
-13.615922
-14.198357
-17.034199
-8.1397669
-0.5730819
5.0628868
9.0653511
11.590996
12.743134
13.030078
12.826717
12.33246
11.621757
10.750395
9.7940616
8.8378149
7.9260478
7.0819852
6.316874
5.6340173
5.0317495
4.5058048
4.0507197
3.6605602
3.3293832
3.0516144
2.8213049
2.6331047
2.4815196
2.3613398
2.2677669
2.1965711
2.1441817
2.1075524
2.0842819
2.0723172
2.069666
2.0746925
2.086726
2.1044364
2.1233137
2.1450467
2.1923068
-3.8368892
-3.8672969
-3.881744
-3.8935902
-3.9024264
-3.9054756
-3.9018949
-3.8908345
-3.8709681
-3.8408522
-3.7989561
-3.7434802
-3.6721631
-3.5821125
-3.4695381
-3.3295174
-3.1555547
-2.9391897
-2.6696647
-2.3338416
-1.9159771
-1.3980871
-0.76147018
0.011113862
0.93098991
1.9973076
3.1865005
4.4484758
5.6856354
6.751537
7.4299755
7.796212
8.1305783
8.236654
7.9739811
7.688021
7.6359634
5.148923
-3.3391174
-15.812665
25.859081
-34.171513
-23.330606
-8.6275461
-10.988727
-14.146892
-13.362796
-11.541227
-11.774965
-12.958515
-14.388944
-16.19347
-17.53211
-21.031021
-27.106313
-29.111625
-26.808899
-31.795389
-16.681805
-17.368135
-5.840581
3.0941499
9.1928704
12.931409
15.265408
16.298134
16.356014
15.741874
14.715783
13.460752
12.108056
10.75878
9.4852564
8.3231694
7.2859332
6.3740521
5.580896
4.8965105
4.3101003
3.8112585
3.3904256
3.0391122
2.7498437
2.5150133
2.3278749
2.1815914
2.0696437
1.9861806
1.9261033
1.8851995
1.8600041
1.8480428
1.8469795
1.8546792
1.869369
1.8902924
1.915839
1.9410514
1.9680735
2.0204867
-4.1117117
-4.148216
-4.1685375
-4.1873107
-4.2045828
-4.2171631
-4.2240921
-4.2245975
-4.2174513
-4.2013662
-4.1750591
-4.1370483
-4.0854159
-4.0176401
-3.9302816
-3.8185444
-3.6757872
-3.4928272
-3.2572307
-2.9530174
-2.5600357
-2.0535236
-1.4053272
-0.58578589
0.4314976
1.660982
3.0843827
4.648968
6.2280336
7.6489158
8.4768782
9.0702819
9.4248882
9.8124881
8.2412914
6.6310551
4.9792216
3.651989
-3.2948364
-15.661095
34.037662
-22.76887
-25.591675
-17.039745
-19.392705
-27.940963
-24.126528
-15.245978
-14.374894
-15.302518
-17.069946
-19.734004
-22.598845
-31.619895
-43.32415
-43.021489
-34.103021
-30.971948
-4.3624035
-3.5175074
-0.22324241
5.9576409
12.765388
16.824879
19.284286
20.227926
19.952429
18.804927
17.142697
15.27031
13.384994
11.603609
9.9920036
8.5747295
7.349651
6.301479
5.410241
4.6556919
4.0194997
3.4860591
3.0424179
2.6777378
2.3829269
2.1493043
1.968727
1.8331684
1.7347747
1.6663221
1.6216644
1.5960532
1.5857462
1.5880884
1.6006481
1.621173
1.6477949
1.6796041
1.7146916
1.7475989
1.7808377
1.8388738
-4.391889
-4.435413
-4.4623805
-4.4888737
-4.515488
-4.538534
-4.556871
-4.5698061
-4.5762392
-4.5751099
-4.5654846
-4.5463628
-4.5164628
-4.4740039
-4.4163514
-4.3394084
-4.2369355
-4.0996866
-3.91417
-3.6620079
-3.3187481
-2.8524326
-2.2235118
-1.3853232
-0.28668402
1.1183421
2.8359474
4.8309451
6.9170565
8.941035
10.278744
11.857175
11.364012
11.418094
8.8691283
7.0663742
3.8676875
1.5066775
-0.79322128
13.208933
30.862908
2.4147309
-17.551098
-14.588999
-23.615117
-38.520806
-32.662527
-19.608893
-15.307296
-16.417308
-19.02556
-22.163276
-26.161466
-39.172725
-53.990706
-47.082665
-33.37927
-22.69329
0.32429921