/*--------------------------------*- C++ -*----------------------------------*\
  =========                 |
  \\      /  F ield         | OpenFOAM: The Open Source CFD Toolbox
   \\    /   O peration     | Website:  https://openfoam.org
    \\  /    A nd           | Version:  9
     \\/     M anipulation  |
\*---------------------------------------------------------------------------*/
FoamFile
{
    format      ascii;
    class       volScalarField;
    location    "23";
    object      p;
}
// * * * * * * * * * * * * * * * * * * * * * * * * * * * * * * * * * * * * * //

dimensions      [0 2 -2 0 0 0 0];

internalField   nonuniform List<scalar> 
400
(
6.8747323e-07
-0.00067209523
-0.001384553
-0.0019418972
-0.0022191805
-0.0021556707
-0.0017269613
-0.00092536788
0.00023625208
0.0017082335
0.0033881102
0.0051130175
0.0066742986
0.0078499234
0.0084592127
0.0084245141
0.0078142395
0.0068453749
0.0058621657
0.005299812
0.00065860668
-3.9744405e-05
-0.0005688671
-0.00093982142
-0.0011100505
-0.0010391031
-0.00070496809
-9.4717827e-05
0.00078993039
0.0019170185
0.0032104159
0.0045555325
0.005782792
0.0067170918
0.0072152665
0.0072153772
0.0067708087
0.0060536294
0.0053113945
0.004739355
0.0014244635
0.00044142514
-0.00011581456
-0.00045244718
-0.00061400294
-0.00058399888
-0.00034576307
0.00012056524
0.00082928789
0.0017707413
0.0028951306
0.0040990048
0.0052290813
0.00611182
0.0065947242
0.0065985273
0.0061566045
0.0054223795
0.0045946176
0.0037491085
0.0020149541
0.00068245701
1.7549845e-05
-0.0003580642
-0.00057075056
-0.00062575083
-0.00050926441
-0.00018980385
0.00036933754
0.0011852305
0.0022307656
0.0034182843
0.0045922246
0.0055578012
0.0061244195
0.0061674337
0.0056844989
0.0048179313
0.0037481756
0.0024744861
0.0021680207
0.00049688578
-0.0002954806
-0.00074791831
-0.0010574556
-0.0012444591
-0.0012919213
-0.0011504588
-0.00075419442
-5.223631e-05
0.00095789379
0.0022111565
0.0035455851
0.0047335385
0.0055227185
0.0057107618
0.00523017
0.0042024942
0.0028070799
0.00098486457
0.0016547125
-0.0003137101
-0.0012380057
-0.0017985073
-0.0022518544
-0.0026270843
-0.0028977748
-0.0029902133
-0.0028016494
-0.0022367809
-0.0012501998
0.00013178728
0.0017455411
0.0033280035
0.0045425331
0.005066665
0.0047183844
0.0035670959
0.0017905009
-0.00072500233
0.00028778646
-0.0019187917
-0.0029722061
-0.0036705735
-0.004319467
-0.0049523472
-0.0055292416
-0.0059470487
-0.0060580747
-0.0057064375
-0.0047747703
-0.00325776
-0.0012655822
0.00090809888
0.0028240413
0.0039877437
0.0040259991
0.0028886175
0.00071629911
-0.0026795644
-0.0020756449
-0.0044503918
-0.0056259912
-0.0064914912
-0.0073920618
-0.0083648712
-0.0093559965
-0.010230829
-0.010789991
-0.010803841
-0.010062352
-0.0084607604
-0.0060397824
-0.0030822492
-0.00012535407
0.0021135618
0.0029647556
0.0021365081
-0.00036509987
-0.0048716583
-0.0055233507
-0.0079912831
-0.0092770774
-0.010332927
-0.011537108
-0.012934486
-0.014461734
-0.015955308
-0.017161427
-0.017764974
-0.017437006
-0.015918398
-0.013121899
-0.0092507252
-0.0048980021
-0.0010290364
0.0012703683
0.001278711
-0.0013330082
-0.0072007098
-0.010076058
-0.012564231
-0.013935786
-0.015183105
-0.016717454
-0.01860166
-0.020773187
-0.023047701
-0.025120587
-0.026585232
-0.026968215
-0.025811801
-0.022844547
-0.018073346
-0.012050026
-0.005950928
-0.0013697484
0.00030156242
-0.001946239
-0.0093812453
-0.015684091
-0.018131515
-0.019536647
-0.020925874
-0.022756774
-0.02512888
-0.027995971
-0.03116531
-0.034290323
-0.036875673
-0.038292988
-0.037843089
-0.035064679
-0.029600318
-0.021821386
-0.012984512
-0.0051839556
-0.00071476383
-0.0017632262
-0.010791272
-0.022242663
-0.024612106
-0.025944659
-0.027334001
-0.029323164
-0.032078192
-0.03558788
-0.039663548
-0.043926113
-0.047800098
-0.05052897
-0.051235274
-0.048955686
-0.043142383
-0.03376789
-0.021925263
-0.010035849
-0.0014144483
-8.8930649e-06
-0.010224645
-0.02964025
-0.031922934
-0.032977789
-0.034078906
-0.035938512
-0.038830457
-0.042794519
-0.047650469
-0.052989383
-0.058162395
-0.062283033
-0.064264325
-0.062873978
-0.057111043
-0.04647564
-0.031648027
-0.015036841
-0.00086340375
0.0046477247
-0.0055205866
-0.037865027
-0.04004754
-0.040439159
-0.040751542
-0.042014072
-0.044652034
-0.048757096
-0.054142928
-0.060354884
-0.066664181
-0.072059511
-0.075267116
-0.074810227
-0.069268176
-0.057627263
-0.039960504
-0.018246998
0.0027899879
0.014446087
0.0069084581
-0.047229611
-0.049133405
-0.048139609
-0.046881306
-0.046904533
-0.048797714
-0.052667249
-0.05827491
-0.065074964
-0.072230851
-0.07859463
-0.082711207
-0.082879138
-0.077308373
-0.064522975
-0.043934032
-0.016747091
0.012503833
0.032939661
0.032409809
-0.058895814
-0.05963896
-0.055883005
-0.051940092
-0.049971347
-0.050628919
-0.053927663
-0.059494302
-0.06661077
-0.074284187
-0.081190069
-0.085678341
-0.085830788
-0.079521251
-0.06487522
-0.040688434
-0.0072401133
0.032140176
0.064982258
0.077749976
-0.076225548
-0.072612811
-0.063515349
-0.055434525
-0.050724108
-0.049780654
-0.052311376
-0.057663364
-0.064890779
-0.072773908
-0.079778311
-0.084035729
-0.083390697
-0.075348077
-0.05760186
-0.028374384
0.012934053
0.065397208
0.11555225
0.15150696
-0.10809133
-0.089555402
-0.071233014
-0.057232249
-0.049071339
-0.046329358
-0.048076348
-0.053201641
-0.06043362
-0.068294843
-0.075026379
-0.078525934
-0.076388085
-0.065808827
-0.043864706
-0.0078177357
0.044394347
0.11299883
0.18838111
0.27186145
-0.17684475
-0.1082888
-0.076201617
-0.054650456
-0.042991617
-0.038997229
-0.040569648
-0.045927121
-0.053440571
-0.061437369
-0.0680266
-0.070961604
-0.067550234
-0.054739
-0.02914805
0.013564304
0.078147623
0.17006501
0.28949612
0.47421889
-0.37208285
-0.12470776
-0.0549723
-0.031961753
-0.022062798
-0.020299739
-0.024358625
-0.03195711
-0.041260622
-0.050639919
-0.058315928
-0.062186511
-0.059781644
-0.048055968
-0.022657754
0.021474924
0.092819399
0.21015343
0.40288909
0.77640996
)
;

boundaryField
{
    movingWall
    {
        type            zeroGradient;
    }
    fixedWalls
    {
        type            zeroGradient;
    }
    frontAndBack
    {
        type            empty;
    }
}


// ************************************************************************* //
