/*--------------------------------*- C++ -*----------------------------------*\
  =========                 |
  \\      /  F ield         | OpenFOAM: The Open Source CFD Toolbox
   \\    /   O peration     | Website:  https://openfoam.org
    \\  /    A nd           | Version:  9
     \\/     M anipulation  |
\*---------------------------------------------------------------------------*/
FoamFile
{
    format      ascii;
    class       surfaceScalarField;
    location    "23";
    object      phi;
}
// * * * * * * * * * * * * * * * * * * * * * * * * * * * * * * * * * * * * * //

dimensions      [0 3 -1 0 0 0 0];

internalField   nonuniform List<scalar> 
760
(
1.2698961e-05
-1.2706937e-05
-2.8725148e-05
4.1424126e-05
-0.00012229248
9.3567345e-05
-0.00025039601
0.00012810353
-0.00039607443
0.0001456784
-0.00054539035
0.0001493159
-0.00068627072
0.00014088038
-0.00080689121
0.00012062051
-0.00089495148
8.8060308e-05
-0.00093838952
4.3438084e-05
-0.00092727336
-1.1116115e-05
-0.00085686072
-7.0412611e-05
-0.00073042806
-0.00012643263
-0.00056134075
-0.00016908729
-0.00037275982
-0.00018858092
-0.00019447405
-0.00017828573
-5.6522386e-05
-0.00013795163
1.9613889e-05
-7.6136231e-05
3.0411004e-05
-1.0797061e-05
3.0411062e-05
-4.3184391e-05
3.0477467e-05
-0.00020456696
0.00020280672
-0.00046832379
0.00035732416
-0.00080070508
0.0004604848
-0.0011673458
0.0005123191
-0.0015364428
0.00051841293
-0.0018782192
0.00048265682
-0.0021636723
0.00040607369
-0.0023645335
0.00028892155
-0.0024553402
0.00013424483
-0.0024181337
-4.8322537e-05
-0.0022453504
-0.00024319587
-0.00194755
-0.00042423298
-0.0015544643
-0.00056217297
-0.0011143181
-0.00062872704
-0.00068747318
-0.00060513063
-0.00033452527
-0.00049089949
-0.00010089701
-0.00030976442
-1.552178e-06
-0.00011014181
2.8858916e-05
-0.00011002751
0.00014050499
-0.00040303127
0.0004958105
-0.00083138658
0.00078567948
-0.0013456141
0.00097471227
-0.0018985936
0.0010652986
-0.0024465738
0.0010663932
-0.0029480235
0.0009841066
-0.0033626082
0.00082065841
-0.003651879
0.00057819241
-0.0037823054
0.00026467132
-0.0037298114
-0.00010081656
-0.0034858004
-0.00048720684
-0.0030632634
-0.00084677001
-0.0024999842
-0.0011254522
-0.0018582276
-0.0012704836
-0.00121814
-0.0012452182
-0.00066373477
-0.0010453047
-0.0002630892
-0.00071040998
-4.7956412e-05
-0.00032527455
-1.9097489e-05
-0.00017343937
0.00031394437
-0.00059329119
0.00091566235
-0.0011776928
0.0013700811
-0.001858366
0.0016553855
-0.002576903
0.0017838356
-0.0032813002
0.0017707904
-0.0039227835
0.0016255899
-0.0044541238
0.0013519987
-0.0048302452
0.00095431386
-0.0050112178
0.00044564393
-0.0049672362
-0.00014479816
-0.0046844144
-0.0007700287
-0.004172332
-0.0013588524
-0.0034691122
-0.0018286721
-0.0026439984
-0.0020955975
-0.0017931937
-0.002096023
-0.0010258468
-0.0018126517
-0.00044021355
-0.0012960432
-9.6723667e-05
-0.00066876442
-0.00011582116
-0.0002297949
0.00054373928
-0.00076507262
0.0014509401
-0.0014914815
0.00209649
-0.0023225416
0.0024864456
-0.0031901324
0.0026514265
-0.0040368122
0.0026174702
-0.0048100243
0.0023988021
-0.0054589503
0.0020009249
-0.0059341658
0.0014295293
-0.0061897962
0.00070127428
-0.0061883775
-0.0001462169
-0.00590555
-0.0010528562
-0.00534039
-0.0019240124
-0.004523094
-0.0026459681
-0.00352296
-0.0030957315
-0.0024497937
-0.0031691892
-0.0014425332
-0.0028199123
-0.00064122865
-0.0020973477
-0.00014883636
-0.0011611567
-0.00026465754
-0.00027729691
0.00082103622
-0.00091154422
0.0020851875
-0.0017607251
0.0029456709
-0.0027228009
0.0034485214
-0.0037222007
0.0036508264
-0.0046986815
0.0035939509
-0.0055988756
0.0032989962
-0.0063711736
0.0027732228
-0.0069637097
0.0020220654
-0.007324817
0.0010623816
-0.00740744
-6.3593882e-05
-0.0071716734
-0.0012886228
-0.0065988659
-0.0024968199
-0.0057016585
-0.0035431756
-0.0045400011
-0.0042573889
-0.0032318291
-0.0044773612
-0.0019490126
-0.0041027288
-0.00088728392
-0.0031590764
-0.00021159332
-0.0018368473
-0.00047625088
-0.00031411428
0.0011351505
-0.0010263338
0.002797407
-0.0019734982
0.0038928353
-0.0030417398
0.004516763
-0.0041506978
0.0047597844
-0.0052399209
0.0046831741
-0.0062580471
0.0043171224
-0.0071554971
0.0036706728
-0.0078803374
0.0027469057
-0.0083768119
0.001558856
-0.0085853592
0.00014495352
-0.0084512907
-0.0014226913
-0.0079294723
-0.0030186383
-0.0070049394
-0.0044677083
-0.0057150233
-0.005547305
-0.0041735657
-0.0060188188
-0.0025818346
-0.0056944599
-0.0012040998
-0.0045368112
-0.00029450279
-0.0027464444
-0.00077075367
-0.00033824641
0.001473397
-0.0011031626
0.0035623233
-0.0021176219
0.0049072947
-0.0032598715
0.0056590126
-0.0044473832
0.005947296
-0.005621933
0.0058577238
-0.0067369158
0.0054321052
-0.0077479308
0.0046816878
-0.0086063366
0.0036053114
-0.0092552123
0.0022077317
-0.0096269764
0.00051671777
-0.0096491693
-0.0014004983
-0.0092489468
-0.0034188607
-0.0083739133
-0.0053427417
-0.0070220478
-0.0068991705
-0.005281795
-0.0077590715
-0.0033676546
-0.0076086002
-0.0016173573
-0.0062871085
-0.00040826729
-0.0039555344
-0.001179021
-0.00034815437
0.0018215514
-0.0011372093
0.0043513783
-0.0021827779
0.0059528633
-0.0033586042
0.0068348389
-0.004582222
0.0071709138
-0.0057997977
0.0070752995
-0.0069721672
0.0066044747
-0.0080636385
0.0057731591
-0.0090334112
0.0045750841
-0.009828963
0.0030032836
-0.010381244
0.0010689991
-0.010604497
-0.001177246
-0.01040075
-0.0036226072
-0.00967487
-0.0060686216
-0.0083686526
-0.0082053878
-0.0065156675
-0.0096120566
-0.0043098723
-0.0098143955
-0.0021483168
-0.008448664
-0.00056492338
-0.0055389278
-0.0017439443
-0.00034393374
0.0021654851
-0.0011278562
0.0051353007
-0.0021647032
0.0069897104
-0.0033258922
0.0079960279
-0.0045307898
0.0083758114
-0.0057319293
0.008276439
-0.0069002049
0.0077727503
-0.0080123642
0.0068853184
-0.0090408087
0.0056035286
-0.0099449497
0.0039074247
-0.010663378
0.0017874274
-0.011106729
-0.00073389495
-0.011163404
-0.0035659325
-0.010697111
-0.0065349139
-0.0095825831
-0.0093199159
-0.0077667627
-0.011427877
-0.00537149
-0.012209668
-0.0028071721
-0.011012982
-0.00077836681
-0.007567733
-0.0025223111
-0.00032890781
0.002494393
-0.0010824208
0.0058888137
-0.0020707755
0.0079780651
-0.0031636102
0.0090888626
-0.0042838984
0.0094960996
-0.0053928496
0.0093853901
-0.0064741368
0.0088540376
-0.0075205452
0.0079317268
-0.0085229161
0.0066058996
-0.0094603437
0.0048448524
-0.010291332
0.0026184154
-0.010933226
-9.2000598e-05
-0.01128321
-0.0032159484
-0.011173629
-0.0066444945
-0.010415708
-0.010077838
-0.0088467286
-0.012996856
-0.0064557462
-0.01460065
-0.0035815214
-0.013887207
-0.0010642207
-0.010085034
-0.0035865318
-0.0003117851
0.0028061781
-0.0010206815
0.0065977101
-0.0019261041
0.0088834878
-0.0028949546
0.010057713
-0.0038568899
0.010458035
-0.0047855722
0.010314073
-0.005680777
0.0097492425
-0.0065544683
0.0088054181
-0.0074199037
0.0074713351
-0.0082818407
0.0057067895
-0.0091251716
0.0034617464
-0.0099086558
0.00069148359
-0.010527271
-0.0025973336
-0.010827024
-0.0063447406
-0.010573634
-0.010331228
-0.0094932101
-0.01407728
-0.0073911368
-0.016702724
-0.0044189113
-0.016859432
-0.0014372098
-0.013066735
-0.0050237415
-0.00031004475
0.0031162228
-0.00098037019
0.0072680355
-0.0017790582
0.0096821757
-0.0025693792
0.010848034
-0.0032946126
0.011183268
-0.0039479169
0.010967377
-0.0045499936
0.010351319
-0.0051348116
0.0093902362
-0.0057399483
0.0080764719
-0.006398554
0.0063653952
-0.007130157
0.0041933494
-0.0079302883
0.0014916148
-0.0087388327
-0.0017887892
-0.0094303819
-0.0056531914
-0.0097685987
-0.0099930107
-0.0094003547
-0.014445524
-0.0079305842
-0.018172494
-0.0052061615
-0.019583855
-0.001902611
-0.016370286
-0.0069263526
-0.00035604297
0.0034722658
-0.0010240051
0.0079359977
-0.0017042442
0.010362415
-0.0022608182
0.011404608
-0.0026657467
0.011588197
-0.0029440392
0.01124567
-0.0031442821
0.010551562
-0.0033249027
0.0095708569
-0.00354723
0.0082987992
-0.0038710837
0.006689249
-0.0043492088
0.0046714744
-0.005018417
0.0021608231
-0.0058766475
-0.00093055873
-0.0068578663
-0.0046719727
-0.007776314
-0.009074563
-0.0082658542
-0.013955984
-0.0077687513
-0.018669597
-0.0057511037
-0.021601502
-0.0024366714
-0.019684718
-0.0093630239
-0.00050826441
0.0039805302
-0.0012456412
0.0086733745
-0.0017959011
0.010912675
-0.0020480238
0.011656731
-0.0020325373
0.01157271
-0.0018254628
0.011038595
-0.0015122332
0.010238333
-0.0011779036
0.0092365273
-0.00090475828
0.0080256539
-0.00077376557
0.0065582563
-0.0008635347
0.0047612435
-0.0012474004
0.0025446888
-0.0019828718
-0.00019508738
-0.0030819041
-0.0035729404
-0.0044600624
-0.0076964047
-0.005827511
-0.012588535
-0.0065661798
-0.017930928
-0.0057684548
-0.022399227
-0.0029512267
-0.022501946
-0.012314251
-0.00086855672
0.0048490869
-0.0017629933
0.0095678111
-0.0021213729
0.011271054
-0.0019368699
0.011472228
-0.0013509524
0.010986793
-0.00051622778
0.01020387
0.00043700278
0.0092851021
0.0013995737
0.0082739564
0.0022723368
0.0071528908
0.0029608763
0.0058697167
0.0033691132
0.0043530066
0.0033967641
0.0025170378
0.0029385127
0.00026316396
0.0019095808
-0.0025440085
0.00026965821
-0.0060564821
-0.0018541856
-0.010464692
-0.0039516123
-0.015833501
-0.0048608436
-0.021489996
-0.0032547063
-0.024108083
-0.015568957
-0.0015910866
0.0064401735
-0.0026108611
0.010587586
-0.0025131513
0.011173344
-0.0015899277
0.010549005
-0.00017219751
0.0095690627
0.0014927693
0.0085389036
0.0032328627
0.0075450087
0.0049232004
0.0065836186
0.0064629591
0.005613132
0.0077574647
0.0045752112
0.0087074725
0.0034029988
0.0092014634
0.0020230469
0.0091033116
0.00036131574
0.008275064
-0.0017157609
0.0065654374
-0.0043468555
0.003904216
-0.0078034701
0.00055894014
-0.012488226
-0.0024680634
-0.018462992
-0.0030273201
-0.023548827
-0.018596277
-0.0027183606
0.0091585341
-0.0031498698
0.011019095
-0.0018030077
0.0098264823
0.00046668683
0.0082793101
0.0030894035
0.006946346
0.0057737862
0.005854521
0.0083628694
0.0049559254
0.010760365
0.0041861234
0.012893459
0.0034800375
0.014690628
0.0027780422
0.016068315
0.0020253119
0.016923257
0.0011681052
0.017119689
0.00016488387
0.016490809
-0.0010868809
0.014816823
-0.0026728697
0.011846643
-0.0048332906
0.0074354819
-0.008077064
0.0022629226
-0.013290433
-0.0012724695
-0.020013434
-0.019868747
-0.0024132785
0.011571812
2.8057298e-05
0.0085777595
0.004255136
0.0055994036
0.0084161159
0.0041183303
0.012231473
0.0031309888
0.015656247
0.0024297469
0.018686526
0.0019256463
0.021329167
0.0015434831
0.023583466
0.0012257386
0.025429201
0.00093230719
0.026820146
0.000634367
0.02767716
0.00031109101
0.027900187
-5.81431e-05
0.027347212
-0.0005339054
0.025771623
-0.0010972805
0.02284304
-0.0019047085
0.018054766
-0.0032887891
0.011113584
-0.0063492513
0.0033886742
-0.012288525
-0.016480072
0.011571812
0.020149572
0.025748975
0.029867306
0.032998295
0.035428041
0.037353688
0.038897171
0.04012291
0.041055217
0.041689584
0.042000675
0.041942532
0.041408627
0.040311346
0.038406638
0.035117849
0.028768597
0.016480072
)
;

boundaryField
{
    movingWall
    {
        type            calculated;
        value           uniform 0;
    }
    fixedWalls
    {
        type            calculated;
        value           uniform 0;
    }
    frontAndBack
    {
        type            empty;
        value           nonuniform List<scalar> 0();
    }
}


// ************************************************************************* //
