/*--------------------------------*- C++ -*----------------------------------*\
  =========                 |
  \\      /  F ield         | OpenFOAM: The Open Source CFD Toolbox
   \\    /   O peration     | Website:  https://openfoam.org
    \\  /    A nd           | Version:  9
     \\/     M anipulation  |
\*---------------------------------------------------------------------------*/
FoamFile
{
    format      ascii;
    class       surfaceScalarField;
    location    "23";
    object      phi_0;
}
// * * * * * * * * * * * * * * * * * * * * * * * * * * * * * * * * * * * * * //

dimensions      [0 3 -1 0 0 0 0];

internalField   nonuniform List<scalar> 
760
(
1.2698955e-05
-1.2706949e-05
-2.8725135e-05
4.1424117e-05
-0.00012229247
9.3567343e-05
-0.00025039601
0.00012810353
-0.00039607442
0.0001456784
-0.00054539033
0.0001493159
-0.0006862707
0.00014088036
-0.00080689119
0.00012062049
-0.00089495146
8.8060304e-05
-0.00093838949
4.3438094e-05
-0.00092727333
-1.1116105e-05
-0.00085686068
-7.0412614e-05
-0.00073042805
-0.00012643264
-0.00056134076
-0.00016908728
-0.00037275983
-0.00018858088
-0.00019447405
-0.00017828569
-5.652237e-05
-0.00013795161
1.96139e-05
-7.6136228e-05
3.0410999e-05
-1.0797064e-05
3.0411053e-05
-4.3184391e-05
3.047747e-05
-0.00020456694
0.00020280671
-0.00046832376
0.00035732414
-0.00080070505
0.00046048478
-0.0011673458
0.00051231908
-0.0015364428
0.00051841291
-0.0018782192
0.00048265679
-0.0021636723
0.00040607366
-0.0023645334
0.00028892153
-0.0024553401
0.00013424482
-0.0024181336
-4.8322513e-05
-0.0022453503
-0.00024319582
-0.0019475499
-0.00042423294
-0.0015544643
-0.00056217293
-0.0011143181
-0.00062872699
-0.00068747318
-0.00060513056
-0.00033452526
-0.00049089943
-0.000100897
-0.00030976439
-1.5521879e-06
-0.00011014181
2.8858923e-05
-0.0001100275
0.00014050499
-0.00040303124
0.00049581049
-0.00083138654
0.00078567944
-0.001345614
0.00097471222
-0.0018985935
0.0010652985
-0.0024465737
0.0010663931
-0.0029480234
0.00098410657
-0.003362608
0.00082065839
-0.0036518788
0.00057819238
-0.0037823053
0.00026467131
-0.0037298112
-0.00010081655
-0.0034858003
-0.00048720679
-0.0030632633
-0.00084676994
-0.0024999841
-0.0011254521
-0.0018582275
-0.0012704836
-0.00121814
-0.0012452182
-0.00066373478
-0.0010453047
-0.00026308921
-0.00071040996
-4.7956418e-05
-0.00032527454
-1.9097486e-05
-0.00017343936
0.00031394436
-0.00059329117
0.00091566231
-0.0011776927
0.001370081
-0.0018583659
0.0016553854
-0.0025769029
0.0017838355
-0.0032813001
0.0017707903
-0.0039227834
0.0016255899
-0.0044541236
0.0013519987
-0.004830245
0.00095431386
-0.0050112176
0.00044564393
-0.004967236
-0.00014479816
-0.0046844142
-0.00077002867
-0.0041723319
-0.0013588524
-0.0034691121
-0.001828672
-0.0026439983
-0.0020955974
-0.0017931937
-0.0020960229
-0.0010258468
-0.0018126517
-0.00044021357
-0.0012960432
-9.6723675e-05
-0.00066876441
-0.00011582116
-0.00022979488
0.00054373925
-0.00076507259
0.00145094
-0.0014914814
0.0020964899
-0.0023225415
0.0024864455
-0.0031901323
0.0026514264
-0.004036812
0.0026174701
-0.0048100241
0.002398802
-0.0054589501
0.0020009248
-0.0059341656
0.0014295293
-0.0061897959
0.0007012743
-0.0061883772
-0.00014621689
-0.0059055498
-0.0010528562
-0.0053403899
-0.0019240124
-0.0045230939
-0.0026459681
-0.0035229599
-0.0030957314
-0.0024497937
-0.0031691891
-0.0014425332
-0.0028199123
-0.00064122865
-0.0020973477
-0.00014883637
-0.0011611567
-0.00026465754
-0.0002772969
0.00082103619
-0.00091154417
0.0020851874
-0.0017607251
0.0029456708
-0.0027228008
0.0034485213
-0.0037222006
0.0036508262
-0.0046986813
0.0035939508
-0.0055988754
0.0032989961
-0.0063711734
0.0027732227
-0.0069637095
0.0020220653
-0.0073248168
0.0010623816
-0.0074074398
-6.3593832e-05
-0.0071716732
-0.0012886228
-0.0065988658
-0.0024968198
-0.0057016583
-0.0035431755
-0.004540001
-0.0042573888
-0.003231829
-0.0044773611
-0.0019490125
-0.0041027287
-0.00088728389
-0.0031590764
-0.00021159332
-0.0018368473
-0.00047625087
-0.00031411427
0.0011351505
-0.0010263337
0.0027974069
-0.0019734981
0.0038928352
-0.0030417397
0.0045167628
-0.0041506976
0.0047597842
-0.0052399207
0.0046831739
-0.0062580469
0.0043171223
-0.0071554969
0.0036706727
-0.0078803372
0.0027469056
-0.0083768117
0.001558856
-0.0085853591
0.00014495359
-0.0084512905
-0.0014226912
-0.0079294721
-0.0030186381
-0.0070049393
-0.0044677082
-0.0057150232
-0.0055473048
-0.0041735656
-0.0060188186
-0.0025818346
-0.0056944597
-0.0012040998
-0.0045368111
-0.00029450278
-0.0027464443
-0.00077075367
-0.00033824641
0.0014733969
-0.0011031626
0.0035623232
-0.0021176219
0.0049072945
-0.0032598714
0.0056590124
-0.004447383
0.0059472958
-0.0056219328
0.0058577236
-0.0067369157
0.0054321051
-0.0077479306
0.0046816877
-0.0086063364
0.0036053114
-0.009255212
0.0022077317
-0.0096269763
0.00051671782
-0.0096491692
-0.0014004982
-0.0092489466
-0.0034188606
-0.0083739132
-0.0053427415
-0.0070220476
-0.0068991703
-0.0052817949
-0.0077590713
-0.0033676546
-0.0076086
-0.0016173573
-0.0062871084
-0.00040826728
-0.0039555343
-0.0011790209
-0.00034815436
0.0018215513
-0.0011372093
0.0043513781
-0.0021827779
0.0059528632
-0.0033586041
0.0068348387
-0.0045822219
0.0071709136
-0.0057997975
0.0070752992
-0.0069721671
0.0066044745
-0.0080636384
0.005773159
-0.009033411
0.0045750841
-0.0098289628
0.0030032836
-0.010381244
0.0010689991
-0.010604496
-0.0011772459
-0.01040075
-0.003622607
-0.0096748699
-0.0060686214
-0.0083686525
-0.0082053876
-0.0065156674
-0.0096120563
-0.0043098722
-0.0098143953
-0.0021483167
-0.0084486638
-0.00056492337
-0.0055389277
-0.0017439443
-0.00034393373
0.0021654851
-0.0011278562
0.0051353005
-0.0021647032
0.0069897102
-0.0033258922
0.0079960277
-0.0045307897
0.0083758112
-0.0057319292
0.0082764388
-0.0069002048
0.0077727501
-0.0080123641
0.0068853182
-0.0090408086
0.0056035286
-0.0099449496
0.0039074248
-0.010663378
0.0017874274
-0.011106729
-0.00073389488
-0.011163403
-0.0035659324
-0.010697111
-0.0065349137
-0.0095825831
-0.0093199157
-0.0077667627
-0.011427877
-0.0053714899
-0.012209668
-0.0028071721
-0.011012982
-0.00077836679
-0.0075677329
-0.0025223111
-0.00032890781
0.0024943929
-0.0010824208
0.0058888135
-0.0020707755
0.0079780649
-0.0031636102
0.0090888624
-0.0042838985
0.0094960994
-0.0053928496
0.00938539
-0.0064741367
0.0088540375
-0.0075205451
0.0079317266
-0.0085229161
0.0066058995
-0.0094603438
0.0048448524
-0.010291332
0.0026184155
-0.010933226
-9.2000494e-05
-0.01128321
-0.0032159483
-0.011173629
-0.0066444943
-0.010415708
-0.010077837
-0.0088467285
-0.012996856
-0.0064557462
-0.01460065
-0.0035815213
-0.013887206
-0.0010642207
-0.010085034
-0.0035865317
-0.00031178512
0.002806178
-0.0010206815
0.0065977099
-0.0019261041
0.0088834876
-0.0028949546
0.010057713
-0.0038568899
0.010458035
-0.0047855723
0.010314072
-0.0056807771
0.0097492424
-0.0065544682
0.008805418
-0.0074199037
0.007471335
-0.0082818408
0.0057067894
-0.0091251717
0.0034617464
-0.0099086558
0.0006914837
-0.010527271
-0.0025973335
-0.010827024
-0.0063447405
-0.010573634
-0.010331227
-0.0094932101
-0.01407728
-0.0073911368
-0.016702724
-0.0044189113
-0.016859432
-0.0014372098
-0.013066735
-0.0050237415
-0.00031004473
0.0031162227
-0.00098037027
0.0072680354
-0.0017790583
0.0096821756
-0.0025693793
0.010848034
-0.0032946126
0.011183268
-0.0039479171
0.010967377
-0.0045499938
0.010351319
-0.0051348117
0.0093902362
-0.0057399484
0.0080764719
-0.0063985541
0.0063653952
-0.0071301572
0.0041933494
-0.0079302884
0.0014916149
-0.0087388328
-0.0017887891
-0.009430382
-0.0056531912
-0.0097685988
-0.0099930106
-0.0094003548
-0.014445524
-0.0079305842
-0.018172494
-0.0052061615
-0.019583855
-0.001902611
-0.016370285
-0.0069263525
-0.00035604292
0.0034722657
-0.0010240051
0.0079359974
-0.0017042443
0.010362415
-0.0022608185
0.011404608
-0.0026657468
0.011588197
-0.0029440393
0.011245669
-0.0031442823
0.010551562
-0.003324903
0.0095708568
-0.0035472302
0.0082987993
-0.0038710839
0.0066892491
-0.0043492089
0.0046714745
-0.0050184172
0.0021608232
-0.0058766477
-0.00093055862
-0.0068578664
-0.0046719725
-0.0077763142
-0.0090745628
-0.0082658543
-0.013955984
-0.0077687513
-0.018669597
-0.0057511037
-0.021601502
-0.0024366714
-0.019684718
-0.0093630239
-0.00050826445
0.0039805302
-0.0012456411
0.0086733743
-0.001795901
0.010912674
-0.0020480242
0.011656731
-0.0020325376
0.01157271
-0.0018254629
0.011038595
-0.0015122334
0.010238332
-0.0011779038
0.0092365271
-0.00090475857
0.0080256539
-0.00077376583
0.0065582563
-0.00086353492
0.0047612436
-0.0012474006
0.0025446889
-0.001982872
-0.00019508727
-0.0030819043
-0.0035729403
-0.0044600625
-0.0076964046
-0.0058275111
-0.012588535
-0.0065661798
-0.017930928
-0.0057684548
-0.022399227
-0.0029512267
-0.022501946
-0.012314251
-0.00086855692
0.0048490871
-0.0017629934
0.0095678113
-0.0021213726
0.011271054
-0.0019368701
0.011472228
-0.0013509528
0.010986793
-0.00051622809
0.01020387
0.0004370026
0.0092851022
0.0013995735
0.0082739564
0.0022723366
0.0071528907
0.0029608761
0.0058697167
0.0033691129
0.0043530066
0.0033967638
0.0025170379
0.0029385125
0.00026316404
0.0019095806
-0.0025440084
0.00026965804
-0.0060564821
-0.0018541857
-0.010464692
-0.0039516124
-0.015833501
-0.0048608436
-0.021489996
-0.0032547063
-0.024108083
-0.015568957
-0.0015910866
0.0064401734
-0.0026108616
0.010587586
-0.0025131511
0.011173345
-0.0015899275
0.010549004
-0.00017219769
0.0095690622
0.0014927689
0.0085389034
0.0032328624
0.0075450086
0.0049232002
0.0065836186
0.0064629589
0.005613132
0.0077574645
0.0045752111
0.0087074723
0.0034029988
0.0092014632
0.0020230469
0.0091033114
0.00036131579
0.0082750638
-0.0017157608
0.0065654373
-0.0043468555
0.0039042159
-0.0078034701
0.00055894007
-0.012488226
-0.0024680634
-0.018462992
-0.0030273201
-0.023548826
-0.018596277
-0.00271836
0.0091585337
-0.0031498704
0.011019095
-0.001803008
0.0098264829
0.00046668692
0.0082793106
0.0030894035
0.0069463461
0.005773786
0.0058545208
0.0083628692
0.0049559253
0.010760364
0.0041861234
0.012893459
0.0034800375
0.014690628
0.0027780422
0.016068315
0.0020253119
0.016923257
0.0011681052
0.017119688
0.00016488389
0.016490808
-0.0010868808
0.014816823
-0.0026728697
0.011846643
-0.0048332906
0.0074354818
-0.008077064
0.0022629225
-0.013290433
-0.0012724695
-0.020013434
-0.019868747
-0.0024132774
0.011571812
2.805731e-05
0.0085777585
0.0042551356
0.005599403
0.0084161156
0.0041183302
0.012231473
0.0031309889
0.015656247
0.002429747
0.018686526
0.0019256463
0.021329167
0.0015434831
0.023583465
0.0012257386
0.025429201
0.00093230718
0.026820146
0.000634367
0.02767716
0.00031109101
0.027900187
-5.8143105e-05
0.027347212
-0.0005339054
0.025771622
-0.0010972805
0.02284304
-0.0019047085
0.018054766
-0.0032887891
0.011113584
-0.0063492513
0.0033886742
-0.012288525
-0.016480072
0.011571813
0.020149572
0.025748976
0.029867306
0.032998294
0.035428041
0.037353688
0.038897171
0.04012291
0.041055217
0.041689584
0.042000675
0.041942532
0.041408627
0.040311346
0.038406638
0.035117849
0.028768597
0.016480072
)
;

boundaryField
{
    movingWall
    {
        type            calculated;
        value           uniform 0;
    }
    fixedWalls
    {
        type            calculated;
        value           uniform 0;
    }
    frontAndBack
    {
        type            empty;
        value           nonuniform List<scalar> 0();
    }
}


// ************************************************************************* //
