/*--------------------------------*- C++ -*----------------------------------*\
  =========                 |
  \\      /  F ield         | OpenFOAM: The Open Source CFD Toolbox
   \\    /   O peration     | Website:  https://openfoam.org
    \\  /    A nd           | Version:  9
     \\/     M anipulation  |
\*---------------------------------------------------------------------------*/
FoamFile
{
    format      ascii;
    class       volVectorField;
    location    "23";
    object      U;
}
// * * * * * * * * * * * * * * * * * * * * * * * * * * * * * * * * * * * * * //

dimensions      [0 1 -1 0 0 0 0];

internalField   nonuniform List<vector> 
400
(
(0.00028439579 -0.00028143831 0)
(0.00011062834 7.9944348e-05 0)
(-0.0013272173 0.00047802119 0)
(-0.0036219011 0.00073592482 0)
(-0.0064236443 0.00086751801 0)
(-0.0094314655 0.00090726786 0)
(-0.012387985 0.00087486586 0)
(-0.015056426 0.00077153024 0)
(-0.017194531 0.000588489 0)
(-0.018552833 0.00032008383 0)
(-0.018902599 -2.4811812e-05 0)
(-0.018086121 -0.00041826558 0)
(-0.016079868 -0.00079971918 0)
(-0.013048919 -0.0010930784 0)
(-0.0093663745 -0.0012212069 0)
(-0.0055776532 -0.0011294761 0)
(-0.0023003456 -0.00081286862 0)
(-8.2964011e-05 -0.00033798322 0)
(0.00076014133 0.00015229112 0)
(0.00040943813 0.00038933566 0)
(-8.6085193e-05 -0.00012364237 0)
(-0.001869292 0.0017872136 0)
(-0.0063065314 0.0036260308 0)
(-0.012452674 0.0048624786 0)
(-0.019600626 0.0054985168 0)
(-0.027106923 0.0056206613 0)
(-0.034358858 0.0052860219 0)
(-0.040768838 0.004504371 0)
(-0.045758126 0.0032662122 0)
(-0.048775856 0.0015896485 0)
(-0.049366615 -0.0004354669 0)
(-0.047253813 -0.0026181806 0)
(-0.042451986 -0.0046645281 0)
(-0.035361481 -0.0062189044 0)
(-0.026778603 -0.0069375756 0)
(-0.017827255 -0.0065922588 0)
(-0.0097755353 -0.0051797739 0)
(-0.0037463021 -0.0029994359 0)
(-0.00038876142 -0.00066554326 0)
(0.00028989069 0.00078354021 0)
(-0.00058808743 0.001433602 0)
(-0.0042428102 0.0063774765 0)
(-0.011758556 0.010640552 0)
(-0.021468677 0.013483582 0)
(-0.03236617 0.014898281 0)
(-0.043587978 0.015017362 0)
(-0.054287368 0.013936136 0)
(-0.063642502 0.011684213 0)
(-0.070855788 0.0082813403 0)
(-0.075188313 0.003828645 0)
(-0.076039505 -0.0014058978 0)
(-0.073057716 -0.0069356273 0)
(-0.066266614 -0.012071718 0)
(-0.056169295 -0.016000222 0)
(-0.043780761 -0.017942714 0)
(-0.030569149 -0.017379926 0)
(-0.018250633 -0.014289955 0)
(-0.0084179657 -0.0093122921 0)
(-0.0021511238 -0.00376184 0)
(-1.9730207e-06 0.00031695571 0)
(-0.0010530642 0.004300356 0)
(-0.0065148463 0.013565686 0)
(-0.016999091 0.020864031 0)
(-0.030030845 0.025561178 0)
(-0.044300521 0.02776139 0)
(-0.058784218 0.027687889 0)
(-0.072487442 0.025487567 0)
(-0.084446807 0.021218359 0)
(-0.093728807 0.014945077 0)
(-0.099464073 0.0068783735 0)
(-0.10093 -0.002501249 0)
(-0.097662671 -0.012378377 0)
(-0.089592895 -0.02160533 0)
(-0.077182049 -0.028824702 0)
(-0.061504941 -0.032705983 0)
(-0.044253533 -0.032299848 0)
(-0.027562153 -0.027445842 0)
(-0.013581728 -0.019080671 0)
(-0.0040263457 -0.009270691 0)
(-0.00026772147 -0.0011082017 0)
(-0.0014558577 0.0083649845 0)
(-0.0085490231 0.023181117 0)
(-0.021746124 0.034051492 0)
(-0.037792287 0.040762883 0)
(-0.055096662 0.043701544 0)
(-0.072519256 0.043258825 0)
(-0.08898404 0.039661293 0)
(-0.10345802 0.033001217 0)
(-0.11493176 0.023384159 0)
(-0.12243642 0.011116749 0)
(-0.12511484 -0.0031288618 0)
(-0.12231942 -0.018219233 0)
(-0.1137611 -0.032541419 0)
(-0.09969789 -0.044132404 0)
(-0.081100209 -0.050966062 0)
(-0.059776121 -0.051441031 0)
(-0.038291056 -0.045013484 0)
(-0.019520392 -0.032755454 0)
(-0.0060923233 -0.017491818 0)
(-0.00051102156 -0.0035220333 0)
(-0.0017889227 0.013475368 0)
(-0.010269656 0.03496065 0)
(-0.025805365 0.049908346 0)
(-0.044466526 0.05879447 0)
(-0.064427387 0.062458034 0)
(-0.084477138 0.061550586 0)
(-0.10351609 0.056415774 0)
(-0.12050299 0.04718201 0)
(-0.13440339 0.033970245 0)
(-0.14417335 0.01713237 0)
(-0.1488029 -0.0025358024 0)
(-0.14739276 -0.023636208 0)
(-0.13931064 -0.044142353 0)
(-0.12443515 -0.061441829 0)
(-0.10343129 -0.072642012 0)
(-0.078055649 -0.075173638 0)
(-0.051260757 -0.067706525 0)
(-0.026809366 -0.051124027 0)
(-0.0086122736 -0.028965588 0)
(-0.00078707057 -0.0070521478 0)
(-0.0020420214 0.019436396 0)
(-0.011605582 0.048528619 0)
(-0.028995632 0.067997933 0)
(-0.049757459 0.079225567 0)
(-0.071891253 0.083656942 0)
(-0.094161605 0.082297312 0)
(-0.11549948 0.075649334 0)
(-0.13491439 0.063876647 0)
(-0.15140261 0.047075848 0)
(-0.16388408 0.025567778 0)
(-0.17119171 0.00016318688 0)
(-0.17215392 -0.027610345 0)
(-0.16571509 -0.05539594 0)
(-0.15119147 -0.079945286 0)
(-0.12870018 -0.097350719 0)
(-0.099669691 -0.10369813 0)
(-0.067241623 -0.096285745 0)
(-0.036119009 -0.075219961 0)
(-0.011929693 -0.044539694 0)
(-0.0011708131 -0.012001463 0)
(-0.0022012745 0.026013196 0)
(-0.012484652 0.063419172 0)
(-0.031139757 0.087763913 0)
(-0.053354308 0.10148964 0)
(-0.077017363 0.10677651 0)
(-0.10091161 0.1050732 0)
(-0.12404955 0.09708772 0)
(-0.14555116 0.083021043 0)
(-0.16450898 0.062902018 0)
(-0.17987529 0.03693082 0)
(-0.19039858 0.0057957063 0)
(-0.19465505 -0.029033073 0)
(-0.19113571 -0.065017622 0)
(-0.17848923 -0.098390522 0)
(-0.15602446 -0.12417688 0)
(-0.12444455 -0.13676223 0)
(-0.086646372 -0.13132858 0)
(-0.048063612 -0.10623247 0)
(-0.016429313 -0.065393031 0)
(-0.0017537856 -0.018878369 0)
(-0.0022556976 0.032933033 0)
(-0.012853657 0.079087972 0)
(-0.032098789 0.10853432 0)
(-0.054981621 0.12486351 0)
(-0.079334559 0.13109213 0)
(-0.10399382 0.12919861 0)
(-0.12809988 0.12015078 0)
(-0.15094458 0.10420108 0)
(-0.17179678 0.081278138 0)
(-0.18974417 0.051375578 0)
(-0.20357569 0.014915609 0)
(-0.21172855 -0.026875728 0)
(-0.21232466 -0.071531811 0)
(-0.20333768 -0.11502542 0)
(-0.18306237 -0.15144638 0)
(-0.15101754 -0.17328436 0)
(-0.10916531 -0.17282122 0)
(-0.063026201 -0.14524333 0)
(-0.022524903 -0.092977764 0)
(-0.0026589516 -0.028422105 0)
(-0.0022086269 0.039904248 0)
(-0.012717044 0.094943613 0)
(-0.031841205 0.12953936 0)
(-0.054496664 0.14845763 0)
(-0.078499864 0.15563461 0)
(-0.10277073 0.15366566 0)
(-0.12662112 0.1438454 0)
(-0.14957626 0.12651293 0)
(-0.17117058 0.10149228 0)
(-0.19075541 0.068517124 0)
(-0.20732676 0.027627773 0)
(-0.21937739 -0.020393853 0)
(-0.22488746 -0.073461375 0)
(-0.22130625 -0.1276881 0)
(-0.20585446 -0.1766198 0)
(-0.17647595 -0.2109912 0)
(-0.1333463 -0.21961235 0)
(-0.080898987 -0.19275327 0)
(-0.030641815 -0.12885218 0)
(-0.0040700577 -0.041636909 0)
(-0.0020933498 0.046663 0)
(-0.012189722 0.11041789 0)
(-0.030536192 0.14996492 0)
(-0.052017549 0.17124204 0)
(-0.074464939 0.17919159 0)
(-0.096919835 0.17712028 0)
(-0.11891398 0.16672914 0)
(-0.14026644 0.14850232 0)
(-0.16086203 0.12219225 0)
(-0.18044319 0.087272661 0)
(-0.19840291 0.043352829 0)
(-0.21353681 -0.0093892464 0)
(-0.22401458 -0.069676106 0)
(-0.22708282 -0.13413278 0)
(-0.21908949 -0.19645254 0)
(-0.19626635 -0.24625138 0)
(-0.15621911 -0.26885949 0)
(-0.1007061 -0.24798735 0)
(-0.041145936 -0.17433451 0)
(-0.0062706018 -0.059833755 0)
(-0.0019963376 0.053057186 0)
(-0.011565537 0.12508285 0)
(-0.028661023 0.1690443 0)
(-0.048056712 0.19210818 0)
(-0.067638561 0.20035574 0)
(-0.086644039 0.19791203 0)
(-0.10489608 0.18696662 0)
(-0.12256965 0.16821819 0)
(-0.13996425 0.14140893 0)
(-0.15729788 0.1057991 0)
(-0.1745159 0.060572053 0)
(-0.19108401 0.0052261624 0)
(-0.20560189 -0.059921895 0)
(-0.2155061 -0.13260728 0)
(-0.21690153 -0.20752719 0)
(-0.20457812 -0.27431739 0)
(-0.17317487 -0.31571703 0)
(-0.1201709 -0.30807908 0)
(-0.054147425 -0.2298832 0)
(-0.0096748849 -0.084652934 0)
(-0.0020996182 0.059184024 0)
(-0.011414932 0.13881527 0)
(-0.027115527 0.18617257 0)
(-0.043625076 0.20994621 0)
(-0.058981527 0.21760068 0)
(-0.072778187 0.21419702 0)
(-0.085250384 0.20247307 0)
(-0.097001638 0.1833938 0)
(-0.10878913 0.15675607 0)
(-0.12135086 0.12168638 0)
(-0.13525455 0.077015692 0)
(-0.15070335 0.021618617 0)
(-0.16712262 -0.045110258 0)
(-0.18274054 -0.12251552 0)
(-0.19405397 -0.20712557 0)
(-0.19523534 -0.2901141 0)
(-0.17829441 -0.35358442 0)
(-0.1354055 -0.36743742 0)
(-0.069088995 -0.29415239 0)
(-0.014795011 -0.11798422 0)
(-0.0027677184 0.065619758 0)
(-0.012741093 0.15199805 0)
(-0.027330192 0.20099656 0)
(-0.040244845 0.22368288 0)
(-0.049928996 0.2293301 0)
(-0.05664389 0.22403687 0)
(-0.061233096 0.21108011 0)
(-0.064816554 0.19168148 0)
(-0.068621277 0.16572035 0)
(-0.073875593 0.13227364 0)
(-0.081728797 0.089960529 0)
(-0.093120696 0.03720052 0)
(-0.10846985 -0.027478634 0)
(-0.12721436 -0.10497591 0)
(-0.14705472 -0.19422026 0)
(-0.16280387 -0.28948593 0)
(-0.16509102 -0.37509884 0)
(-0.14090161 -0.41772639 0)
(-0.084061589 -0.36281349 0)
(-0.022011625 -0.16157382 0)
(-0.0047196095 0.073834626 0)
(-0.017222537 0.16572601 0)
(-0.031284572 0.21337777 0)
(-0.03968354 0.23217357 0)
(-0.041883899 0.23380184 0)
(-0.039351581 0.2253941 0)
(-0.033813106 0.21061213 0)
(-0.027000973 0.19081059 0)
(-0.02059265 0.16589796 0)
(-0.016216074 0.13493937 0)
(-0.01547701 0.096471152 0)
(-0.019926197 0.04869036 0)
(-0.030919239 -0.010412323 0)
(-0.049234849 -0.082920089 0)
(-0.07439962 -0.17014276 0)
(-0.10327709 -0.27050219 0)
(-0.12725491 -0.37369496 0)
(-0.12973518 -0.44868737 0)
(-0.094914881 -0.42750654 0)
(-0.030930668 -0.21612781 0)
(-0.0093000252 0.086952089 0)
(-0.027432207 0.18185317 0)
(-0.040981857 0.2230332 0)
(-0.04267976 0.23378919 0)
(-0.034405766 0.2288019 0)
(-0.019623017 0.21592265 0)
(-0.0012388427 0.19877981 0)
(0.018345106 0.17856463 0)
(0.037071076 0.15508357 0)
(0.053055292 0.12735948 0)
(0.064421199 0.09393647 0)
(0.069230581 0.053014817 0)
(0.065414718 0.0024628697 0)
(0.051047038 -0.060339081 0)
(0.02464258 -0.13837638 0)
(-0.013702331 -0.2341712 0)
(-0.05875414 -0.34517011 0)
(-0.093511164 -0.44953974 0)
(-0.09447002 -0.47558799 0)
(-0.039216134 -0.28048265 0)
(-0.018580332 0.11087147 0)
(-0.046039733 0.20177644 0)
(-0.055230203 0.22793145 0)
(-0.043985046 0.22501741 0)
(-0.019372707 0.21061271 0)
(0.012333142 0.19227983 0)
(0.046992831 0.17278481 0)
(0.081753898 0.1526539 0)
(0.11443761 0.13135283 0)
(0.14315294 0.1077956 0)
(0.16601651 0.080591726 0)
(0.18098083 0.048112306 0)
(0.18557571 0.0084494318 0)
(0.17716534 -0.040817372 0)
(0.1527591 -0.1031761 0)
(0.10948847 -0.18390613 0)
(0.047240239 -0.2885546 0)
(-0.021439494 -0.41051033 0)
(-0.072253052 -0.49101691 0)
(-0.04114751 -0.35054285 0)
(-0.033352245 0.15561547 0)
(-0.068601675 0.22040441 0)
(-0.055187419 0.21729215 0)
(-0.016078797 0.19532428 0)
(0.034510951 0.17092334 0)
(0.088507538 0.14849452 0)
(0.14176828 0.12861251 0)
(0.1919687 0.11057754 0)
(0.23754035 0.093297588 0)
(0.27711982 0.075575112 0)
(0.30921782 0.056181538 0)
(0.33204299 0.033823397 0)
(0.34317536 0.0070273581 0)
(0.33982857 -0.025910392 0)
(0.31813224 -0.067741699 0)
(0.27327702 -0.12410791 0)
(0.20044706 -0.2058471 0)
(0.10213965 -0.3250691 0)
(-0.012387351 -0.45457166 0)
(-0.023756676 -0.40864067 0)
(-0.033081104 0.2390732 0)
(-0.042647135 0.21792013 0)
(0.042207212 0.16426627 0)
(0.12760453 0.12783573 0)
(0.20769785 0.10143543 0)
(0.28028141 0.081658094 0)
(0.34487285 0.066648076 0)
(0.40158271 0.054703011 0)
(0.4505503 0.044399467 0)
(0.49162006 0.034639947 0)
(0.52416152 0.024550631 0)
(0.54698576 0.01338176 0)
(0.55822209 0.00039980308 0)
(0.55570919 -0.015137272 0)
(0.53552605 -0.034969133 0)
(0.49244646 -0.06248816 0)
(0.41797262 -0.10694761 0)
(0.30410588 -0.19317543 0)
(0.12313778 -0.33691905 0)
(0.052374193 -0.39437913 0)
(0.24299927 0.15257481 0)
(0.30529622 0.11854288 0)
(0.45481219 0.076108147 0)
(0.56000887 0.05084019 0)
(0.63223321 0.035126074 0)
(0.68654911 0.024812293 0)
(0.72943819 0.017960085 0)
(0.76379622 0.013255917 0)
(0.79127917 0.0097622002 0)
(0.81275134 0.0068543667 0)
(0.82841126 0.0041185307 0)
(0.83794387 0.0012768721 0)
(0.84057066 -0.0018441864 0)
(0.83497551 -0.0053262454 0)
(0.81886695 -0.009828952 0)
(0.78942866 -0.016232741 0)
(0.73784288 -0.026935703 0)
(0.65316764 -0.051286552 0)
(0.45609767 -0.11374603 0)
(0.31788988 -0.17206003 0)
)
;

boundaryField
{
    movingWall
    {
        type            fixedValue;
        value           uniform (1 0 0);
    }
    fixedWalls
    {
        type            fixedValue;
        value           uniform (0 0 0);
    }
    frontAndBack
    {
        type            empty;
    }
}


// ************************************************************************* //
