/*--------------------------------*- C++ -*----------------------------------*\
  =========                 |
  \\      /  F ield         | OpenFOAM: The Open Source CFD Toolbox
   \\    /   O peration     | Website:  https://openfoam.org
    \\  /    A nd           | Version:  9
     \\/     M anipulation  |
\*---------------------------------------------------------------------------*/
FoamFile
{
    format      ascii;
    class       volVectorField;
    location    "23";
    object      U_0;
}
// * * * * * * * * * * * * * * * * * * * * * * * * * * * * * * * * * * * * * //

dimensions      [0 1 -1 0 0 0 0];

internalField   nonuniform List<vector> 
400
(
(0.00028439566 -0.00028143849 0)
(0.00011062833 7.994422e-05 0)
(-0.0013272171 0.00047802116 0)
(-0.0036219009 0.00073592486 0)
(-0.0064236442 0.00086751807 0)
(-0.0094314653 0.00090726784 0)
(-0.012387985 0.00087486574 0)
(-0.015056426 0.00077153011 0)
(-0.01719453 0.00058848898 0)
(-0.018552833 0.00032008393 0)
(-0.018902598 -2.4811719e-05 0)
(-0.01808612 -0.00041826561 0)
(-0.016079867 -0.00079971927 0)
(-0.013048919 -0.0010930783 0)
(-0.0093663747 -0.0012212066 0)
(-0.0055776533 -0.0011294757 0)
(-0.0023003454 -0.00081286839 0)
(-8.2963744e-05 -0.00033798319 0)
(0.00076014139 0.0001522911 0)
(0.00040943809 0.00038933557 0)
(-8.6085251e-05 -0.00012364252 0)
(-0.0018692918 0.0017872135 0)
(-0.0063065309 0.0036260306 0)
(-0.012452674 0.0048624785 0)
(-0.019600626 0.0054985167 0)
(-0.027106922 0.0056206611 0)
(-0.034358857 0.0052860215 0)
(-0.040768836 0.0045043706 0)
(-0.045758125 0.0032662119 0)
(-0.048775854 0.0015896486 0)
(-0.049366614 -0.0004354666 0)
(-0.047253812 -0.0026181803 0)
(-0.042451985 -0.0046645278 0)
(-0.03536148 -0.006218904 0)
(-0.026778603 -0.0069375749 0)
(-0.017827255 -0.0065922578 0)
(-0.0097755353 -0.0051797731 0)
(-0.003746302 -0.0029994355 0)
(-0.00038876147 -0.00066554329 0)
(0.00028989057 0.00078354016 0)
(-0.00058808744 0.0014336021 0)
(-0.00424281 0.0063774764 0)
(-0.011758555 0.010640552 0)
(-0.021468676 0.013483582 0)
(-0.032366169 0.01489828 0)
(-0.043587976 0.015017361 0)
(-0.054287366 0.013936135 0)
(-0.0636425 0.011684213 0)
(-0.070855785 0.0082813398 0)
(-0.07518831 0.0038286448 0)
(-0.076039502 -0.0014058975 0)
(-0.073057714 -0.0069356265 0)
(-0.066266612 -0.012071717 0)
(-0.056169293 -0.016000222 0)
(-0.043780759 -0.017942713 0)
(-0.030569149 -0.017379925 0)
(-0.018250633 -0.014289954 0)
(-0.0084179659 -0.0093122916 0)
(-0.002151124 -0.00376184 0)
(-1.9731176e-06 0.00031695577 0)
(-0.0010530642 0.004300356 0)
(-0.006514846 0.013565685 0)
(-0.01699909 0.02086403 0)
(-0.030030844 0.025561176 0)
(-0.04430052 0.027761389 0)
(-0.058784215 0.027687888 0)
(-0.07248744 0.025487566 0)
(-0.084446804 0.021218358 0)
(-0.093728803 0.014945077 0)
(-0.099464069 0.0068783733 0)
(-0.10092999 -0.0025012488 0)
(-0.097662668 -0.012378376 0)
(-0.089592892 -0.021605329 0)
(-0.077182047 -0.028824701 0)
(-0.061504939 -0.032705982 0)
(-0.044253532 -0.032299848 0)
(-0.027562153 -0.027445842 0)
(-0.013581728 -0.01908067 0)
(-0.004026346 -0.0092706908 0)
(-0.00026772159 -0.0011082016 0)
(-0.0014558576 0.0083649841 0)
(-0.0085490226 0.023181116 0)
(-0.021746123 0.034051491 0)
(-0.037792286 0.040762882 0)
(-0.05509666 0.043701543 0)
(-0.072519253 0.043258824 0)
(-0.088984037 0.039661292 0)
(-0.10345802 0.033001216 0)
(-0.11493175 0.023384159 0)
(-0.12243642 0.011116749 0)
(-0.12511483 -0.0031288617 0)
(-0.12231942 -0.018219233 0)
(-0.1137611 -0.032541418 0)
(-0.099697887 -0.044132403 0)
(-0.081100207 -0.050966061 0)
(-0.059776119 -0.05144103 0)
(-0.038291055 -0.045013484 0)
(-0.019520392 -0.032755453 0)
(-0.0060923233 -0.017491818 0)
(-0.00051102164 -0.0035220332 0)
(-0.0017889226 0.013475367 0)
(-0.010269656 0.034960648 0)
(-0.025805364 0.049908344 0)
(-0.044466524 0.058794468 0)
(-0.064427385 0.062458032 0)
(-0.084477134 0.061550584 0)
(-0.10351608 0.056415773 0)
(-0.12050298 0.047182008 0)
(-0.13440339 0.033970244 0)
(-0.14417334 0.01713237 0)
(-0.14880289 -0.0025358018 0)
(-0.14739276 -0.023636207 0)
(-0.13931064 -0.044142352 0)
(-0.12443514 -0.061441827 0)
(-0.10343129 -0.07264201 0)
(-0.078055647 -0.075173636 0)
(-0.051260756 -0.067706524 0)
(-0.026809365 -0.051124027 0)
(-0.0086122734 -0.028965587 0)
(-0.00078707056 -0.0070521478 0)
(-0.0020420214 0.019436395 0)
(-0.011605582 0.048528617 0)
(-0.02899563 0.06799793 0)
(-0.049757457 0.079225564 0)
(-0.07189125 0.083656939 0)
(-0.094161602 0.082297309 0)
(-0.11549948 0.075649332 0)
(-0.13491439 0.063876645 0)
(-0.15140261 0.047075847 0)
(-0.16388408 0.025567778 0)
(-0.17119171 0.00016318812 0)
(-0.17215392 -0.027610343 0)
(-0.16571509 -0.055395938 0)
(-0.15119147 -0.079945284 0)
(-0.12870017 -0.097350717 0)
(-0.099669688 -0.10369813 0)
(-0.067241622 -0.096285743 0)
(-0.036119008 -0.075219959 0)
(-0.011929693 -0.044539693 0)
(-0.001170813 -0.012001463 0)
(-0.0022012745 0.026013195 0)
(-0.012484652 0.06341917 0)
(-0.031139756 0.08776391 0)
(-0.053354306 0.10148964 0)
(-0.07701736 0.10677651 0)
(-0.10091161 0.10507319 0)
(-0.12404955 0.097087718 0)
(-0.14555115 0.083021041 0)
(-0.16450898 0.062902017 0)
(-0.17987528 0.03693082 0)
(-0.19039857 0.0057957076 0)
(-0.19465504 -0.02903307 0)
(-0.1911357 -0.065017619 0)
(-0.17848922 -0.098390519 0)
(-0.15602446 -0.12417687 0)
(-0.12444455 -0.13676222 0)
(-0.086646371 -0.13132858 0)
(-0.048063611 -0.10623247 0)
(-0.016429312 -0.06539303 0)
(-0.0017537855 -0.018878369 0)
(-0.0022556975 0.032933032 0)
(-0.012853656 0.07908797 0)
(-0.032098789 0.10853432 0)
(-0.05498162 0.1248635 0)
(-0.079334557 0.13109213 0)
(-0.10399382 0.1291986 0)
(-0.12809988 0.12015078 0)
(-0.15094458 0.10420107 0)
(-0.17179678 0.081278137 0)
(-0.18974416 0.051375578 0)
(-0.20357569 0.01491561 0)
(-0.21172854 -0.026875725 0)
(-0.21232465 -0.071531807 0)
(-0.20333768 -0.11502542 0)
(-0.18306237 -0.15144637 0)
(-0.15101754 -0.17328435 0)
(-0.10916531 -0.17282122 0)
(-0.0630262 -0.14524333 0)
(-0.022524903 -0.092977762 0)
(-0.0026589515 -0.028422104 0)
(-0.0022086268 0.039904247 0)
(-0.012717044 0.09494361 0)
(-0.031841205 0.12953935 0)
(-0.054496663 0.14845763 0)
(-0.078499863 0.15563461 0)
(-0.10277073 0.15366565 0)
(-0.12662111 0.1438454 0)
(-0.14957626 0.12651292 0)
(-0.17117058 0.10149228 0)
(-0.19075541 0.068517124 0)
(-0.20732676 0.027627774 0)
(-0.21937739 -0.020393851 0)
(-0.22488746 -0.073461372 0)
(-0.22130625 -0.1276881 0)
(-0.20585446 -0.1766198 0)
(-0.17647595 -0.21099119 0)
(-0.1333463 -0.21961235 0)
(-0.080898986 -0.19275326 0)
(-0.030641815 -0.12885217 0)
(-0.0040700576 -0.041636908 0)
(-0.0020933499 0.046662999 0)
(-0.012189722 0.11041789 0)
(-0.030536192 0.14996492 0)
(-0.052017549 0.17124204 0)
(-0.074464939 0.17919158 0)
(-0.096919835 0.17712027 0)
(-0.11891398 0.16672913 0)
(-0.14026644 0.14850232 0)
(-0.16086203 0.12219225 0)
(-0.18044319 0.087272661 0)
(-0.19840291 0.04335283 0)
(-0.21353681 -0.0093892446 0)
(-0.22401458 -0.069676104 0)
(-0.22708282 -0.13413277 0)
(-0.21908949 -0.19645254 0)
(-0.19626635 -0.24625137 0)
(-0.15621911 -0.26885949 0)
(-0.1007061 -0.24798735 0)
(-0.041145935 -0.17433451 0)
(-0.0062706017 -0.059833754 0)
(-0.0019963378 0.053057185 0)
(-0.011565537 0.12508284 0)
(-0.028661023 0.16904429 0)
(-0.048056712 0.19210817 0)
(-0.067638561 0.20035573 0)
(-0.08664404 0.19791202 0)
(-0.10489608 0.18696662 0)
(-0.12256965 0.16821819 0)
(-0.13996425 0.14140893 0)
(-0.15729788 0.1057991 0)
(-0.1745159 0.060572055 0)
(-0.19108401 0.0052261647 0)
(-0.20560189 -0.059921893 0)
(-0.2155061 -0.13260728 0)
(-0.21690153 -0.20752719 0)
(-0.20457812 -0.27431739 0)
(-0.17317487 -0.31571703 0)
(-0.1201709 -0.30807908 0)
(-0.054147425 -0.2298832 0)
(-0.0096748848 -0.084652933 0)
(-0.0020996181 0.059184022 0)
(-0.011414933 0.13881526 0)
(-0.027115528 0.18617256 0)
(-0.043625078 0.20994621 0)
(-0.058981527 0.21760068 0)
(-0.072778188 0.21419701 0)
(-0.085250387 0.20247307 0)
(-0.097001642 0.1833938 0)
(-0.10878913 0.15675607 0)
(-0.12135087 0.12168638 0)
(-0.13525455 0.077015693 0)
(-0.15070335 0.021618619 0)
(-0.16712262 -0.045110255 0)
(-0.18274054 -0.12251551 0)
(-0.19405398 -0.20712557 0)
(-0.19523534 -0.2901141 0)
(-0.17829441 -0.35358442 0)
(-0.1354055 -0.36743742 0)
(-0.069088994 -0.29415239 0)
(-0.014795011 -0.11798422 0)
(-0.002767718 0.065619756 0)
(-0.012741092 0.15199805 0)
(-0.027330194 0.20099656 0)
(-0.040244849 0.22368288 0)
(-0.049928999 0.2293301 0)
(-0.05664389 0.22403686 0)
(-0.061233099 0.21108011 0)
(-0.06481656 0.19168148 0)
(-0.068621282 0.16572035 0)
(-0.073875598 0.13227365 0)
(-0.0817288 0.08996053 0)
(-0.0931207 0.037200522 0)
(-0.10846986 -0.027478631 0)
(-0.12721437 -0.10497591 0)
(-0.14705473 -0.19422026 0)
(-0.16280387 -0.28948593 0)
(-0.16509102 -0.37509884 0)
(-0.14090162 -0.41772639 0)
(-0.084061589 -0.36281349 0)
(-0.022011625 -0.16157381 0)
(-0.0047196098 0.073834626 0)
(-0.017222536 0.165726 0)
(-0.031284571 0.21337777 0)
(-0.039683544 0.23217356 0)
(-0.041883906 0.23380184 0)
(-0.039351585 0.22539409 0)
(-0.033813108 0.21061212 0)
(-0.027000977 0.19081059 0)
(-0.020592655 0.16589796 0)
(-0.016216079 0.13493938 0)
(-0.015477015 0.096471153 0)
(-0.019926201 0.048690362 0)
(-0.030919243 -0.010412321 0)
(-0.049234853 -0.082920087 0)
(-0.074399624 -0.17014276 0)
(-0.10327709 -0.27050218 0)
(-0.12725491 -0.37369496 0)
(-0.12973518 -0.44868737 0)
(-0.094914881 -0.42750654 0)
(-0.030930668 -0.2161278 0)
(-0.009300027 0.086952091 0)
(-0.027432209 0.18185317 0)
(-0.040981855 0.22303319 0)
(-0.042679759 0.23378918 0)
(-0.034405772 0.2288019 0)
(-0.019623024 0.21592265 0)
(-0.0012388476 0.1987798 0)
(0.018345102 0.17856463 0)
(0.037071072 0.15508357 0)
(0.053055287 0.12735948 0)
(0.064421194 0.093936471 0)
(0.069230576 0.053014819 0)
(0.065414714 0.0024628716 0)
(0.051047034 -0.060339079 0)
(0.024642577 -0.13837638 0)
(-0.013702334 -0.2341712 0)
(-0.058754142 -0.34517011 0)
(-0.093511165 -0.44953974 0)
(-0.09447002 -0.47558799 0)
(-0.039216134 -0.28048265 0)
(-0.018580332 0.11087147 0)
(-0.046039738 0.20177645 0)
(-0.055230207 0.22793145 0)
(-0.043985042 0.22501741 0)
(-0.019372706 0.2106127 0)
(0.012333137 0.19227983 0)
(0.046992824 0.17278481 0)
(0.081753893 0.1526539 0)
(0.11443761 0.13135283 0)
(0.14315293 0.1077956 0)
(0.1660165 0.080591726 0)
(0.18098082 0.048112308 0)
(0.18557571 0.0084494332 0)
(0.17716534 -0.04081737 0)
(0.1527591 -0.1031761 0)
(0.10948847 -0.18390613 0)
(0.047240237 -0.2885546 0)
(-0.021439495 -0.41051033 0)
(-0.072253052 -0.49101691 0)
(-0.04114751 -0.35054285 0)
(-0.03335224 0.15561546 0)
(-0.068601676 0.22040441 0)
(-0.055187428 0.21729216 0)
(-0.016078799 0.19532428 0)
(0.034510952 0.17092334 0)
(0.088507538 0.14849451 0)
(0.14176827 0.12861251 0)
(0.1919687 0.11057753 0)
(0.23754034 0.093297588 0)
(0.27711981 0.075575111 0)
(0.30921781 0.056181538 0)
(0.33204298 0.033823398 0)
(0.34317536 0.0070273589 0)
(0.33982857 -0.025910391 0)
(0.31813224 -0.067741698 0)
(0.27327702 -0.12410791 0)
(0.20044706 -0.2058471 0)
(0.10213965 -0.3250691 0)
(-0.012387351 -0.45457165 0)
(-0.023756676 -0.40864067 0)
(-0.033081095 0.23907319 0)
(-0.042647125 0.21792012 0)
(0.042207209 0.16426627 0)
(0.12760453 0.12783574 0)
(0.20769785 0.10143543 0)
(0.28028141 0.081658093 0)
(0.34487284 0.066648075 0)
(0.40158271 0.05470301 0)
(0.4505503 0.044399466 0)
(0.49162006 0.034639947 0)
(0.52416152 0.024550631 0)
(0.54698575 0.01338176 0)
(0.55822209 0.00039980317 0)
(0.55570919 -0.015137272 0)
(0.53552605 -0.034969133 0)
(0.49244646 -0.06248816 0)
(0.41797262 -0.10694761 0)
(0.30410588 -0.19317543 0)
(0.12313778 -0.33691904 0)
(0.052374193 -0.39437913 0)
(0.24299928 0.1525748 0)
(0.30529623 0.11854288 0)
(0.4548122 0.076108142 0)
(0.56000887 0.05084019 0)
(0.63223321 0.035126075 0)
(0.6865491 0.024812293 0)
(0.72943819 0.017960085 0)
(0.76379622 0.013255917 0)
(0.79127917 0.0097622 0)
(0.81275134 0.0068543666 0)
(0.82841126 0.0041185307 0)
(0.83794387 0.001276872 0)
(0.84057066 -0.0018441866 0)
(0.83497551 -0.0053262455 0)
(0.81886695 -0.009828952 0)
(0.78942866 -0.016232741 0)
(0.73784288 -0.026935703 0)
(0.65316764 -0.051286552 0)
(0.45609767 -0.11374603 0)
(0.31788988 -0.17206003 0)
)
;

boundaryField
{
    movingWall
    {
        type            fixedValue;
        value           uniform (1 0 0);
    }
    fixedWalls
    {
        type            fixedValue;
        value           uniform (0 0 0);
    }
    frontAndBack
    {
        type            empty;
    }
}


// ************************************************************************* //
