/*--------------------------------*- C++ -*----------------------------------*\
  =========                 |
  \\      /  F ield         | OpenFOAM: The Open Source CFD Toolbox
   \\    /   O peration     | Website:  https://openfoam.org
    \\  /    A nd           | Version:  9
     \\/     M anipulation  |
\*---------------------------------------------------------------------------*/
FoamFile
{
    format      ascii;
    class       surfaceScalarField;
    location    "0.63";
    object      alphaPhi0.phase1;
}
// * * * * * * * * * * * * * * * * * * * * * * * * * * * * * * * * * * * * * //

dimensions      [0 3 -1 0 0 0 0];

internalField   nonuniform List<scalar> 
19800
(
-2.0952047e-89
2.3615288e-88
-2.4753457e-88
2.4714558e-88
-1.5016332e-85
4.9108649e-87
-5.839832e-85
1.9612505e-85
-5.7206526e-85
3.2918422e-85
-2.3480762e-85
1.7921052e-85
-5.7804319e-86
5.4528834e-86
-5.3249442e-86
1.5970386e-86
-8.7738379e-86
1.449118e-86
-1.2666107e-85
1.8246129e-86
-2.377232e-83
1.0307216e-84
-3.9508217e-81
1.6647311e-82
-1.2497518e-79
7.481784e-81
-1.1337676e-78
9.5096711e-80
-4.6695159e-78
5.4855137e-79
-1.9544009e-77
2.4083899e-78
-6.6961035e-76
4.8324077e-77
-7.6173825e-74
4.9264982e-75
-8.5991723e-72
5.3161995e-73
-9.0554252e-70
5.3633675e-71
-8.9151637e-68
5.062281e-69
-8.2316889e-66
4.4722841e-67
-7.1488891e-64
3.7221641e-65
-5.8544323e-62
2.9162405e-63
-4.5316184e-60
2.1593484e-61
-3.3227988e-58
1.5098087e-59
-2.3103745e-56
9.9853015e-58
-1.512073e-54
6.2451841e-56
-9.4998699e-53
3.6929828e-54
-8.116747e-51
2.128274e-52
-1.1542056e-48
1.3974241e-50
-3.2315275e-47
5.3628793e-49
-1.5670667e-46
4.2678451e-48
-4.3606985e-46
1.0206099e-47
-4.4471187e-46
1.3032303e-47
-1.4787691e-45
6.3560528e-48
-3.2854722e-45
-8.8791925e-48
-1.0603503e-43
-3.128941e-45
-4.851004e-42
-2.8316199e-43
-1.9154375e-40
-1.76156e-41
-6.3596661e-39
-8.3923158e-40
-1.6670727e-37
-3.0372463e-38
-3.0018882e-36
-7.8150243e-37
-2.7722835e-35
-2.9228652e-35
-1.3385873e-34
-5.8518132e-34
-6.8132148e-34
-4.8206452e-33
2.8724774e-34
-3.9074128e-32
2.8359436e-31
-9.4261863e-31
1.7778074e-29
-3.623418e-29
8.6329036e-28
-1.4175005e-27
3.9342349e-26
-5.6646991e-26
1.7306963e-24
-2.3187815e-24
4.0191155e-23
-5.9479232e-23
1.9434356e-22
-5.3403755e-22
3.5167744e-22
-1.7140348e-21
2.5624956e-22
-9.7071073e-22
7.4331806e-23
-1.405805e-22
1.3368662e-23
-9.75631e-24
1.1901412e-24
-1.0712412e-24
7.1226192e-26
-4.3642938e-26
2.2898675e-27
-7.9239832e-28
1.3453885e-28
2.0720937e-29
7.9459814e-30
3.0861726e-30
3.9592845e-31
2.6203974e-31
1.8974295e-32
1.7707159e-32
8.6174069e-34
1.0419764e-33
3.6569665e-35
5.4808585e-35
1.4421093e-36
2.6032826e-36
5.2654314e-38
1.1219354e-37
1.7740851e-39
4.3968502e-39
5.4989161e-41
1.5682183e-40
1.5635278e-42
5.0910103e-42
4.0673291e-44
1.5037622e-43
9.6560121e-46
4.0388827e-45
2.0869523e-47
9.8549411e-47
4.0963501e-49
2.1812685e-48
7.2838852e-51
4.3727961e-50
1.1702855e-52
7.9257584e-52
1.6942411e-54
1.2956522e-53
2.2032638e-56
1.9107927e-55
2.5655907e-58
2.5247754e-57
2.6648077e-60
2.993548e-59
2.4584608e-62
3.1634285e-61
2.0051681e-64
2.9725673e-63
1.4382144e-66
2.4708364e-65
9.0147282e-69
1.8097727e-67
4.9028855e-71
1.1598569e-69
2.2930961e-73
6.4643089e-72
9.1109444e-76
3.1089957e-74
3.0278314e-78
1.2764822e-76
8.260962e-81
4.421515e-79
2.8058866e-83
1.2731458e-81
1.1223933e-83
2.9806958e-84
3.5052422e-86
1.8040122e-86
2.3231983e-86
1.5337916e-86
1.3846925e-85
7.799712e-86
1.5998489e-85
2.4888052e-85
4.3179497e-88
2.4560912e-85
-1.5174108e-85
2.2480895e-85
2.0185617e-85
-1.9951052e-89
4.695307e-88
-9.130281e-87
1.2751728e-86
-1.587724e-84
4.8375772e-85
-7.2983611e-84
6.9938732e-84
-9.420529e-84
1.2858817e-83
-9.6779673e-84
1.1907324e-83
-6.6991317e-84
9.0931826e-84
-1.9324113e-84
4.4870922e-84
-1.1702939e-85
9.3578249e-85
-1.5579571e-85
6.1659332e-86
-1.4653896e-83
1.1483789e-84
-2.7100372e-81
1.6303887e-82
-7.5440343e-80
8.0902232e-81
-6.7068199e-79
1.1652173e-79
-6.8114303e-78
1.4932512e-78
-5.1084944e-76
1.09797e-76
-6.6188867e-74
1.3546142e-74
-8.1267822e-72
1.5825701e-72
-9.2631616e-70
1.7208788e-70
-9.8344342e-68
1.7446989e-68
-9.7605765e-66
1.6537242e-66
-9.0869323e-64
1.4707664e-64
-7.9574322e-62
1.2310132e-62
-6.5712722e-60
9.7060767e-61
-5.1293803e-58
7.223107e-59
-3.7936661e-56
5.0814224e-57
-2.6565373e-54
3.3785377e-55
-1.7434086e-52
2.1244481e-53
-1.1740187e-50
1.2673164e-51
-1.6813016e-48
7.8197071e-50
-1.7382779e-46
5.3434652e-48
-1.2817019e-45
1.0020932e-46
-2.413714e-45
3.1870606e-46
-1.9227828e-44
5.1750584e-46
-9.6803327e-44
3.8870729e-45
-1.6292705e-43
5.0343858e-45
-9.1936675e-43
-8.6527604e-45
-3.9527766e-41
-1.7250571e-42
-1.7664735e-39
-1.5095429e-40
-6.8227514e-38
-9.1070521e-39
-2.2204882e-36
-4.2008469e-37
-5.8186409e-35
-1.4629475e-35
-9.953971e-34
-3.557629e-34
-7.2598016e-33
-5.187761e-33
-2.4368272e-32
-4.187019e-32
-9.9654077e-32
-2.8708558e-31
-2.7171804e-31
-5.1337791e-30
3.9795869e-29
-1.4327536e-28
2.5020248e-27
-4.3323498e-27
1.154446e-25
-1.3463608e-25
5.0598967e-24
-5.5419195e-24
2.1745253e-22
-2.3412534e-22
4.8386708e-21
-5.0644318e-21
1.6838969e-20
-1.4098985e-20
2.2559667e-20
-1.7835477e-20
2.2271763e-20
-1.5337582e-20
1.2303285e-20
-8.7385488e-21
2.8684445e-21
-2.4547474e-21
2.6531514e-22
-2.9945323e-22
1.3581481e-23
-1.3321789e-23
5.0643328e-25
-2.0310853e-25
3.0165373e-26
1.4377525e-26
1.7809839e-27
2.0963419e-27
8.9648462e-29
1.7649405e-28
4.2772162e-30
1.1793574e-29
1.9225849e-31
6.8366721e-31
8.0419899e-33
3.5321999e-32
3.1148488e-34
1.6438496e-33
1.1138768e-35
6.9287161e-35
3.6674333e-37
2.6519587e-36
1.1088463e-38
9.2281986e-38
3.0710197e-40
2.9205299e-39
7.7723962e-42
8.4042791e-41
1.7933844e-43
2.1977034e-42
3.7639504e-45
5.2174581e-44
7.1690569e-47
1.1230868e-45
1.2361193e-48
2.1889722e-47
1.9247629e-50
3.8549911e-49
2.6983497e-52
6.1271525e-51
3.3957202e-54
8.7707302e-53
3.8219102e-56
1.1264715e-54
3.8326905e-58
1.295328e-56
3.4100574e-60
1.3279197e-58
2.6781568e-62
1.2097145e-60
1.845858e-64
9.7426786e-63
1.108803e-66
6.9059373e-65
5.7584078e-69
4.2769104e-67
2.5596217e-71
2.2996381e-69
9.6209055e-74
1.0634054e-71
3.0166308e-76
4.1776176e-74
7.7427805e-79
1.3834969e-76
1.5873644e-81
3.795994e-79
4.5458618e-84
8.4657758e-82
2.3804446e-84
4.2680064e-84
6.4097841e-84
1.0446139e-83
6.0166295e-84
1.9738768e-83
1.2964629e-84
1.1443099e-83
-2.7302162e-86
5.0439862e-84
-1.8636128e-85
4.0233951e-85
3.8723186e-85
-5.1560566e-87
1.4093173e-84
-2.0027892e-83
2.8506214e-83
-1.8397043e-81
1.0859754e-81
-5.7066603e-81
9.834822e-81
-7.1963937e-81
1.4608323e-80
-6.9364288e-81
1.2618369e-80
-4.5584243e-81
8.8956954e-81
-1.3609646e-81
4.2176772e-81
-1.5331056e-82
9.347168e-82
-1.0172913e-83
8.901339e-83
-1.9484101e-83
8.162252e-84
-1.7625282e-81
3.5083557e-82
-1.219095e-79
4.0280269e-80
-1.7229189e-77
5.5517461e-78
-2.7251473e-75
8.3997202e-76
-3.9701453e-73
1.1594596e-73
-5.3154238e-71
1.4700309e-71
-6.5731983e-69
1.7273073e-69
-7.5361499e-67
1.8849684e-67
-8.043863e-65
1.9173664e-65
-8.0227085e-63
1.8234527e-63
-7.5014918e-61
1.6261924e-61
-6.5954273e-59
1.3653806e-59
-5.4662197e-57
1.0786537e-57
-4.281357e-55
8.0499947e-56
-3.1756588e-53
5.6714899e-54
-2.2292323e-51
3.7770213e-52
-1.466351e-49
2.376023e-50
-9.8992872e-48
1.4171426e-48
-1.412601e-45
8.7394806e-47
-1.4189468e-43
5.9429428e-45
-1.0146308e-42
1.1154747e-43
-2.1276276e-42
3.6997048e-43
-2.2074028e-41
6.9840047e-43
-1.2772837e-40
5.6609116e-42
-1.6405251e-40
7.0040158e-42
-3.378184e-40
-5.7138296e-42
-8.8654239e-39
-4.5290439e-40
-3.8649009e-37
-4.1054183e-38
-1.4638163e-35
-2.4417224e-36
-4.6691228e-34
-1.0972469e-34
-1.1953446e-32
-3.686953e-33
-1.955717e-31
-8.4819943e-32
-1.3051773e-30
-1.1308451e-30
-3.8409735e-30
-7.9896811e-30
-1.4965327e-29
-4.6259918e-29
-8.0306103e-29
-7.7119848e-28
2.9143038e-27
-1.9661533e-26
2.0717665e-25
-5.4335075e-25
9.4452042e-24
-1.5785516e-23
3.9811169e-22
-4.9176381e-22
1.6731141e-20
-1.9048891e-20
3.7293245e-19
-4.0873673e-19
1.349627e-18
-1.3673065e-18
1.8742316e-18
-2.1528154e-18
2.0760004e-18
-2.0656907e-18
1.2289229e-18
-1.1882931e-18
3.100773e-19
-3.4394029e-19
3.2805023e-20
-4.4457381e-20
1.59994e-21
-2.168782e-21
6.7784395e-23
-2.5022522e-23
4.186968e-24
2.8584237e-24
2.4826237e-25
4.0119001e-25
1.2770032e-26
3.3758538e-26
6.1584895e-28
2.2653052e-27
2.7763032e-29
1.3146291e-28
1.1588569e-30
6.7743894e-30
4.4590579e-32
3.13347e-31
1.5775537e-33
1.3080811e-32
5.1196682e-35
4.9429114e-34
1.5208e-36
1.6931743e-35
4.1265891e-38
5.2610426e-37
1.0208017e-39
1.4829778e-38
2.2975096e-41
3.7912075e-40
4.6949347e-43
8.7845017e-42
8.6918053e-45
1.8426486e-43
1.4543459e-46
3.4951394e-45
2.1940809e-48
5.9814287e-47
2.975352e-50
9.230371e-49
3.6169664e-52
1.2798164e-50
3.9261901e-54
1.5926071e-52
3.7908367e-56
1.7701477e-54
3.2411832e-58
1.7526563e-56
2.4412751e-60
1.5393769e-58
1.6097752e-62
1.1939342e-60
9.2292656e-65
8.1290185e-63
4.5613031e-67
4.830193e-65
1.9244869e-69
2.4835152e-67
6.8528937e-72
1.0957556e-69
2.0248076e-74
4.1101369e-72
4.8603291e-77
1.2922912e-74
1.7329246e-79
3.3474735e-77
1.9017599e-81
7.1535016e-80
2.3631821e-81
5.106241e-81
6.7345724e-81
1.6648782e-80
5.4290385e-81
2.9194227e-80
1.3310624e-81
2.1490235e-80
-1.8033796e-82
1.0446266e-80
-3.5805389e-82
2.4306926e-81
1.6390037e-81
5.1780667e-84
9.74465e-82
-2.253929e-80
3.116407e-80
-1.146023e-78
1.2170967e-78
-2.8700266e-78
7.3230516e-78
-3.6398128e-78
9.6783814e-78
-3.4511274e-78
8.2544463e-78
-2.2191812e-78
5.674594e-78
-6.5072151e-79
2.6342726e-78
-1.0852972e-79
5.8434918e-79
-4.8734351e-81
8.0886732e-80
-4.8995452e-81
5.2502576e-81
-3.0889107e-79
1.4732347e-79
-6.3511828e-77
2.7293533e-77
-1.2830796e-74
4.7165697e-75
-1.6972601e-72
7.0314086e-73
-2.3313142e-70
8.6362907e-71
-3.1355957e-68
1.0940168e-68
-3.9051108e-66
1.2924533e-66
-4.5058032e-64
1.4167318e-64
-4.8382061e-62
1.4481623e-62
-4.8524114e-60
1.3836532e-60
-4.5594296e-58
1.2396371e-58
-4.0250266e-56
1.0428862e-56
-3.3486831e-54
8.2729176e-55
-2.6311801e-52
6.1874815e-53
-1.9572622e-50
4.3730413e-51
-1.3771275e-48
2.9190683e-49
-9.078769e-47
1.8409744e-47
-6.1406547e-45
1.0994344e-45
-8.7025211e-43
6.7848324e-44
-8.4923156e-41
4.5992308e-42
-5.9575344e-40
8.668808e-41
-1.3775313e-39
2.9925993e-40
-1.7514717e-38
6.5476663e-40
-1.1407097e-37
5.9324503e-39
-1.2744592e-37
8.1249784e-39
-1.5734388e-37
-2.2820408e-39
-1.4847266e-36
-7.4918799e-38
-6.1572983e-35
-7.1891926e-36
-2.2962342e-33
-4.268602e-34
-7.2000135e-32
-1.8917534e-32
-1.8099709e-30
-6.163042e-31
-2.8389226e-29
-1.3465613e-29
-1.7392709e-28
-1.6417228e-28
-4.4818419e-28
-1.0125801e-27
-1.6221999e-27
-4.868109e-27
-1.2184896e-26
-7.5056323e-26
8.3969225e-26
-1.8023043e-24
1.0884384e-23
-4.4896858e-23
5.1797929e-22
-1.2192264e-21
2.1775199e-20
-3.6190719e-20
8.9891857e-19
-1.1811932e-18
2.0036676e-17
-2.3080938e-17
7.5050814e-17
-8.703319e-17
1.0862972e-16
-1.1853707e-16
1.2628305e-16
-1.1000799e-16
8.3671932e-17
-7.4636549e-17
2.394487e-17
-2.6413372e-17
2.9149491e-18
-4.3383387e-18
1.6029085e-19
-2.3909968e-19
6.9575178e-21
-2.0988018e-21
4.4485527e-22
4.2120785e-22
2.6742655e-23
5.6368541e-23
1.4112491e-24
4.7527566e-24
6.8907389e-26
3.211644e-25
3.1142439e-27
1.8688131e-26
1.2944412e-28
9.6056248e-28
4.9318867e-30
4.4096092e-29
1.7190954e-31
1.8185604e-30
5.4726463e-33
6.7602338e-32
1.5885586e-34
2.2694737e-33
4.1978895e-36
6.8880347e-35
1.0082933e-37
1.8908492e-36
2.1976436e-39
4.6948319e-38
4.3390791e-41
1.0539502e-39
7.7456912e-43
2.1377036e-41
1.2475471e-44
3.9127911e-43
1.8085e-46
6.4533711e-45
2.3526173e-48
9.5823078e-47
2.7366717e-50
1.2770102e-48
2.8376186e-52
1.5226687e-50
2.6118702e-54
1.6204977e-52
2.1233979e-56
1.5332956e-54
1.5166708e-58
1.283843e-56
9.4527557e-61
9.4761062e-59
5.1020162e-63
6.1198316e-61
2.3966373e-65
3.4373051e-63
9.754673e-68
1.6655472e-65
3.3389467e-70
6.8920877e-68
9.4582252e-73
2.4062751e-70
2.2041238e-75
6.9804568e-73
3.8751391e-78
1.652768e-75
1.3965731e-78
5.1538141e-78
1.9742369e-78
6.005941e-78
4.6062301e-78
1.7828072e-77
3.1248547e-78
2.8645707e-77
4.2330445e-79
2.296877e-77
-3.4233157e-79
1.1137459e-77
-3.186436e-79
2.9441961e-78
1.5335945e-78
6.5805712e-81
4.8895809e-79
-1.2099385e-77
1.9202684e-77
-4.9772484e-76
7.6060037e-76
-1.1011375e-75
3.8177989e-75
-1.4062658e-75
4.6926379e-75
-1.3248857e-75
3.9852406e-75
-8.4206589e-76
2.69725e-75
-2.4428289e-76
1.2368224e-75
-5.3274869e-77
2.753634e-76
-1.5154773e-78
4.9487722e-77
-1.8321835e-78
2.1335546e-78
-1.4738924e-76
8.5981995e-77
-3.2212383e-74
1.6160792e-74
-7.2314946e-72
2.9251109e-72
-8.0553588e-70
4.1838033e-70
-1.0813674e-67
4.8631518e-68
-1.4679448e-65
6.2061439e-66
-1.844499e-63
7.3875596e-64
-2.145203e-61
8.1513453e-62
-2.3194177e-59
8.3800392e-60
-2.3402923e-57
8.0494235e-58
-2.211324e-55
7.2443415e-56
-1.9628175e-53
6.1291107e-54
-1.6405774e-51
4.8805045e-52
-1.2946125e-49
3.6674349e-50
-9.6630513e-48
2.6020678e-48
-6.8145094e-46
1.742084e-46
-4.4999582e-44
1.1002279e-44
-3.0483471e-42
6.5885739e-43
-4.3121337e-40
4.0781332e-41
-4.1277392e-38
2.7702553e-39
-2.8544986e-37
5.2324252e-38
-6.911716e-37
1.8534625e-37
-9.6856802e-36
4.4373864e-37
-7.3298381e-35
4.5438782e-36
-7.9362745e-35
7.4901026e-36
-6.3887531e-35
5.1672745e-37
-2.1741627e-34
-1.143433e-35
-7.6926667e-33
-8.9224186e-34
-2.8289703e-31
-5.4463962e-32
-8.7594792e-30
-2.3989837e-30
-2.1721263e-28
-7.6381458e-29
-3.2698149e-27
-1.5924419e-27
-1.8502961e-26
-1.7753786e-26
-4.1241989e-26
-9.5443136e-26
-1.3169754e-25
-3.7231436e-25
-1.1853023e-24
-5.2223322e-24
-4.6725316e-24
-1.2141123e-22
3.5901379e-22
-2.7282326e-21
2.0181561e-20
-6.8623173e-20
8.7354154e-19
-1.9944225e-18
3.6297819e-17
-5.8913323e-17
7.9856577e-16
-9.527445e-16
2.9387345e-15
-2.909754e-15
4.3804625e-15
-2.4672814e-15
5.2184565e-15
-1.8319614e-15
3.8597964e-15
-3.3730541e-16
1.3789623e-15
-2.0886801e-16
2.0602282e-16
-1.9159013e-16
1.3051729e-17
-1.6369741e-17
5.903395e-19
-7.6436753e-20
3.8707474e-20
4.9735125e-20
2.3609087e-21
6.3098099e-21
1.279465e-22
5.3292156e-22
6.326939e-24
3.6274119e-23
2.8630965e-25
2.1159836e-24
1.1816236e-26
1.0833683e-25
4.4388515e-28
4.9227639e-27
1.5161892e-29
1.9977659e-28
4.7046581e-31
7.2691657e-30
1.3249493e-32
2.3773473e-31
3.3833306e-34
6.9997144e-33
7.8250022e-36
1.8572102e-34
1.6371092e-37
4.44228e-36
3.0938675e-39
9.5786631e-38
5.2721171e-41
1.861304e-39
8.0870963e-43
3.2548328e-41
1.1135062e-44
5.1213924e-43
1.3724296e-46
7.2325518e-45
1.5097406e-48
9.1479128e-47
1.4765119e-50
1.0335341e-48
1.3050099e-52
1.0396872e-50
1.0204056e-54
9.2754531e-53
6.9905728e-57
7.3064755e-55
4.1690512e-59
5.0492243e-57
2.1463753e-61
3.0423788e-59
9.4540657e-64
1.5851248e-61
3.5201331e-66
7.081882e-64
1.0921512e-68
2.6817117e-66
2.7849454e-71
8.4894588e-69
1.6774851e-73
2.2082912e-71
6.7286251e-76
4.7605834e-74
4.7888712e-76
2.0845472e-75
1.3896231e-75
5.3075442e-75
2.1903006e-75
1.4047618e-74
1.0891687e-75
2.0963871e-74
-2.7976282e-76
1.741297e-74
-3.6200702e-76
8.2506394e-75
-2.1604071e-76
2.2832796e-75
1.0210754e-75
4.0341153e-78
1.9211874e-76
-4.0909816e-75
8.348307e-75
-1.616849e-73
3.3302366e-73
-3.3682842e-73
1.5227576e-72
-4.3676667e-73
1.7885854e-72
-4.1209664e-73
1.5162499e-72
-2.6103124e-73
1.0177007e-72
-7.5334231e-74
4.6304126e-73
-1.6747756e-74
1.0394121e-73
-7.3356242e-75
2.2692168e-74
-3.958894e-75
1.0534055e-74
-9.1186762e-74
6.0039393e-74
-3.7888897e-71
1.2324853e-71
-3.9850695e-69
2.4370174e-69
-3.0851873e-67
1.9327937e-67
-4.1112071e-65
2.1823661e-65
-5.6466182e-63
2.8152048e-63
-7.1659591e-61
3.379215e-61
-8.4083437e-59
3.7584451e-59
-9.1613333e-57
3.8877097e-57
-9.3091205e-55
3.7580954e-55
-8.8515883e-53
3.4015785e-53
-7.9006759e-51
2.8928595e-51
-6.6367904e-49
2.3159353e-49
-5.2575048e-47
1.7471954e-47
-3.9367637e-45
1.243997e-45
-2.7849372e-43
8.3665476e-44
-1.8450631e-41
5.3110482e-42
-1.2530417e-39
3.1932636e-40
-1.7781233e-37
1.9863512e-38
-1.6786479e-35
1.3537915e-36
-1.1430884e-34
2.5602245e-35
-2.8001114e-34
9.1692413e-35
-4.038282e-33
2.308669e-34
-3.4535487e-32
2.6603145e-33
-4.0984144e-32
5.368904e-33
-2.7556457e-32
1.7892462e-33
-3.6865023e-32
-2.0033465e-33
-7.9321223e-31
-8.1429832e-32
-2.8788463e-29
-5.3693671e-30
-8.8348316e-28
-2.3831299e-28
-2.1712735e-26
-7.4855149e-27
-3.1449512e-25
-1.4975354e-25
-1.650511e-24
-1.5303849e-24
-3.1332721e-24
-7.1495968e-24
-8.3457996e-24
-2.2019728e-23
-8.1075482e-23
-2.7316078e-22
-7.1054393e-22
-6.1968326e-21
4.5979233e-21
-1.3189959e-19
5.4912055e-19
-3.0746781e-18
2.6416043e-17
-8.3323081e-17
1.113804e-15
-1.6041107e-15
2.4613838e-14
-3.1592695e-14
9.5690895e-14
-9.7787723e-14
1.5371733e-13
-9.3062003e-14
1.9341481e-13
-7.7312483e-14
1.5943847e-13
0
5.7856198e-14
0
9.6168042e-15
0
8.317738e-16
-6.3508872e-17
4.4398222e-17
6.6550834e-18
2.8838814e-18
4.9657928e-18
1.7844041e-19
5.930256e-19
9.9075128e-21
5.0124213e-20
4.9501509e-22
3.4328606e-21
2.2342323e-23
2.0026432e-22
9.1069619e-25
1.017461e-23
3.3511991e-26
4.553235e-25
1.1133089e-27
1.8071523e-26
3.3391872e-29
6.3902898e-28
9.0415208e-31
2.0197149e-29
2.2095638e-32
5.718474e-31
4.8711161e-34
1.4526641e-32
9.680276e-36
3.3143541e-34
1.7327439e-37
6.794187e-36
2.8272715e-39
1.2519015e-37
4.1836368e-41
2.0730325e-39
5.5413531e-43
3.0805469e-41
6.5525537e-45
4.0970465e-43
6.8953106e-47
4.8668367e-45
6.4343526e-49
5.1470309e-47
5.2976263e-51
4.8307941e-49
3.8287842e-53
4.0038284e-51
2.4127353e-55
2.9165218e-53
1.3154675e-57
1.8548989e-55
6.1468249e-60
1.0224268e-57
2.4336334e-62
4.839838e-60
8.0507399e-65
1.9459013e-62
2.1863166e-67
6.5562092e-65
4.7041862e-70
1.8222455e-67
5.9665255e-73
4.0973982e-70
2.192737e-73
1.240321e-72
3.0405361e-73
1.5539113e-72
5.84436e-73
3.6633859e-72
6.5568714e-73
8.6429886e-72
2.3022136e-74
1.2016387e-71
-4.2937584e-73
1.0036138e-71
-2.6075097e-73
4.601015e-72
-1.1642303e-73
1.2883853e-72
5.1870822e-73
1.7480921e-75
6.2224273e-74
-9.8087885e-73
2.8290492e-72
-4.198416e-71
1.1327832e-70
-8.5588918e-71
4.902618e-70
-1.1282924e-70
5.5957868e-70
-1.072502e-70
4.7465665e-70
-6.8146616e-71
3.1737907e-70
-1.961131e-71
1.440849e-70
-3.6293059e-72
3.2691543e-71
-1.0248485e-71
8.5853229e-72
-8.184434e-72
2.8639347e-71
-5.8869073e-71
3.9278517e-71
-4.0386255e-68
9.2156515e-69
-1.7910387e-66
1.5517777e-66
-9.6748109e-65
7.1154254e-65
-1.2934309e-62
7.948054e-63
-1.8005353e-60
1.0382882e-60
-2.3109394e-58
1.2584504e-58
-2.7391112e-56
1.412166e-56
-3.0116161e-54
1.4727317e-54
-3.0838927e-52
1.432934e-52
-2.9527805e-50
1.3054194e-50
-2.6521278e-48
1.1170308e-48
-2.2408168e-46
8.9966824e-47
-1.7852966e-44
6.8295118e-45
-1.3438828e-42
4.8940684e-43
-9.5463133e-41
3.310341e-41
-6.3464411e-39
2.1125159e-39
-4.3212989e-37
1.2757153e-37
-6.1826947e-35
7.9952077e-36
-5.7935955e-33
5.4870503e-34
-3.8632775e-32
1.0377294e-32
-9.4020831e-32
3.7284685e-32
-1.361241e-30
9.6345349e-32
-1.2866734e-29
1.2373389e-30
-1.6769819e-29
2.9792048e-30
-8.2419956e-30
1.6520753e-30
-8.4401473e-30
-2.262792e-31
-6.9994664e-29
-5.5020711e-30
-2.4924037e-27
-4.191433e-28
-7.6291825e-26
-1.91876e-26
-1.8663778e-24
-6.0433642e-25
-2.6094053e-23
-1.1690711e-23
-1.2795593e-22
-1.0985858e-22
-2.0270033e-22
-4.4510773e-22
-4.2720074e-22
-1.051292e-21
-4.0382544e-21
-1.1031187e-20
-4.7452718e-20
-2.4500626e-19
-2.7372365e-19
-5.2342842e-18
8.6769524e-18
-1.3565545e-16
6.7279478e-16
-1.8288012e-15
3.4768898e-14
-4.7041318e-14
6.4094941e-13
-8.4220862e-13
2.4882468e-12
-2.6807018e-12
4.2575273e-12
-2.8524645e-12
5.6759848e-12
-2.6898519e-12
5.5133956e-12
-1.8250783e-13
2.1426153e-12
0
3.8081829e-13
0
3.9837632e-14
0
2.6756688e-15
4.3423584e-15
1.8125992e-16
5.4011388e-16
1.1639808e-17
4.807559e-17
6.5796924e-19
3.9916265e-18
3.2978763e-20
2.7362111e-19
1.474111e-21
1.5876768e-20
5.8862786e-23
7.9522787e-22
2.1021493e-24
3.4774739e-23
6.7231652e-26
1.337721e-24
1.9279246e-27
4.5514044e-26
4.9614534e-29
1.3756179e-27
1.1468622e-30
3.7033078e-29
2.4747875e-32
8.9056133e-31
4.8504254e-34
1.9232724e-32
8.3549018e-36
3.7189469e-34
1.2867544e-37
6.4282449e-36
1.7720812e-39
9.9429548e-38
2.1761514e-41
1.3746893e-39
2.3773461e-43
1.6949601e-41
2.3017829e-45
1.8600174e-43
1.9671441e-47
1.810133e-45
1.4758138e-49
1.5563629e-47
9.653177e-52
1.1761567e-49
5.4624407e-54
7.7601457e-52
2.6488641e-56
4.4370959e-54
1.0881384e-58
2.1786661e-56
3.7292637e-61
9.0868045e-59
1.045425e-63
3.1722988e-61
2.1030418e-66
9.1102504e-64
8.4050989e-69
2.132756e-66
7.3583723e-71
4.6116699e-69
5.1424883e-71
3.8507113e-70
1.3074956e-70
9.5761433e-70
1.5295159e-70
2.0353876e-69
4.1822747e-71
4.3002367e-69
-2.3294422e-70
5.5602094e-69
-3.084754e-70
4.6060251e-69
-1.4127622e-70
2.026036e-69
-5.1360177e-71
5.6466964e-70
2.1008856e-70
6.0597684e-73
1.72532e-71
-1.6062903e-70
7.8781758e-70
-8.7723352e-69
3.1528671e-68
-1.8309263e-68
1.3229057e-67
-2.4767972e-68
1.482368e-67
-2.3877983e-68
1.2606595e-67
-1.5308221e-68
8.4258575e-68
-4.4502272e-69
3.8320152e-68
-9.5310841e-70
8.8544693e-69
-5.4963058e-69
2.6322135e-69
-4.4426101e-69
1.7600538e-68
-3.4816835e-68
1.9132572e-68
-1.724896e-65
5.2084624e-66
-5.2950186e-64
5.565695e-64
-2.4863341e-62
2.0892121e-62
-3.3939529e-60
2.380179e-60
-4.7968147e-58
3.152888e-58
-6.2354493e-56
3.8641737e-56
-7.4716721e-54
4.3777369e-54
-8.2936874e-52
4.6036427e-52
-8.5665971e-50
4.5139644e-50
-8.2662445e-48
4.1415338e-48
-7.4771993e-46
3.5685754e-46
-6.358358e-44
2.8928911e-44
-5.0961943e-42
2.2113813e-42
-3.8570322e-40
1.5956362e-40
-2.7535818e-38
1.087147e-38
-1.8398157e-36
6.9837823e-37
-1.2576892e-34
4.2512915e-35
-1.8175959e-32
2.6858932e-33
-1.7041929e-30
1.8685453e-31
-1.1150846e-29
3.5486633e-30
-2.6938307e-29
1.2784699e-29
-3.9037961e-28
3.3772919e-29
-3.9181609e-27
4.7200061e-28
-5.5370028e-27
1.296918e-27
-2.9395287e-27
9.574766e-28
-1.6600523e-27
9.8312968e-29
-5.5733449e-27
-2.8470373e-28
-1.8696638e-25
-2.5887875e-26
-5.7463278e-24
-1.2769349e-24
-1.4094414e-22
-4.1191288e-23
-1.9149062e-21
-7.8206335e-22
-8.8554464e-21
-6.8438552e-21
-1.1450438e-20
-2.4043321e-20
-1.8143401e-20
-4.2451026e-20
-1.514303e-19
-3.4922751e-19
-2.1460207e-18
-7.7471809e-18
-2.5234154e-17
-1.6241359e-16
-3.6126363e-17
-2.2546495e-15
2.1858432e-14
-3.4956874e-14
8.1859349e-13
-1.0704912e-12
1.2235661e-11
-1.7232528e-11
5.0156602e-11
-5.7782298e-11
9.4498987e-11
-7.0451292e-11
1.4476365e-10
-8.339435e-11
1.6525279e-10
-5.3287517e-11
6.8700815e-11
0
1.2768169e-11
0
1.1718832e-12
0
1.1137785e-13
7.1011895e-13
4.9364091e-15
1.0235904e-13
4.1070704e-16
4.4806708e-15
3.1258499e-17
2.0470496e-16
1.3422997e-18
1.3304846e-17
5.774272e-20
7.5256477e-19
2.2381983e-21
3.6812106e-20
7.6653945e-23
1.5575267e-21
2.3286948e-24
5.7415864e-23
6.6991002e-26
1.8572319e-24
1.6910783e-27
5.3549717e-26
3.7979827e-29
1.3641335e-27
7.5973604e-31
3.0830618e-29
1.3541229e-32
6.1961074e-31
2.1515617e-34
1.1089227e-32
3.0462208e-36
1.7687558e-34
3.8362857e-38
2.5141673e-36
4.2902387e-40
3.1795039e-38
4.2474849e-42
3.5727637e-40
3.707099e-44
3.557353e-42
2.8364283e-46
3.1264324e-44
1.8901178e-48
2.4126938e-46
1.0878076e-50
1.6249e-48
5.3519009e-53
9.4756346e-51
2.2217491e-55
4.7394758e-53
7.6504494e-58
2.009171e-55
2.1338707e-60
7.1084063e-58
3.202252e-63
2.0588229e-60
5.2053843e-66
4.9263174e-63
4.2432431e-68
1.2331116e-65
1.6251348e-68
1.4666676e-67
2.3687553e-68
2.3558064e-67
2.7051212e-68
4.8175991e-67
2.8888562e-69
9.2991058e-67
-9.3996203e-68
1.7699998e-66
-1.782441e-67
2.127842e-66
-1.5556768e-67
1.7316714e-66
-6.0811879e-68
7.2712534e-67
-1.8981098e-68
1.9998965e-67
6.9849486e-68
1.78932e-70
4.2250376e-69
-1.1274035e-68
1.8652026e-67
-1.5068292e-66
7.4480682e-66
-3.3450062e-66
3.067595e-65
-4.6894269e-66
3.4004222e-65
-4.6175406e-66
2.9050362e-65
-3.005926e-66
1.9461288e-65
-9.2074849e-67
8.8915829e-66
-1.5496444e-67
2.0938668e-66
-2.6351542e-67
4.9716693e-67
-1.9460675e-66
4.1669434e-66
-9.6101835e-65
6.1221908e-65
-7.2022801e-63
5.0877884e-63
-1.3017533e-61
1.6273915e-61
-5.249121e-60
4.9743077e-60
-7.3427712e-58
5.8025779e-58
-1.0554447e-55
7.8063633e-56
-1.3911076e-53
9.6835594e-54
-1.6868119e-51
1.1082524e-51
-1.8921387e-49
1.176079e-49
-1.9729564e-47
1.1631208e-47
-1.9197105e-45
1.0754681e-45
-1.7495246e-43
9.331406e-44
-1.4985367e-41
7.6241924e-42
-1.2092052e-39
5.872583e-40
-9.2118267e-38
4.2729201e-38
-6.6193663e-36
2.9366254e-36
-4.4540584e-34
1.9050757e-34
-3.0595769e-32
1.1705549e-32
-4.4555695e-30
7.4704968e-31
-4.1900773e-28
5.2855777e-29
-2.6951604e-27
1.0161468e-27
-6.6914187e-27
3.7378667e-27
-1.0255867e-25
1.0540055e-26
-1.005401e-24
1.5438006e-25
-1.4588055e-24
4.4889717e-25
-8.7389461e-25
3.902488e-25
-2.7255112e-25
8.170809e-26
-4.5676411e-25
-7.3713127e-27
-1.230069e-23
-1.1982224e-24
-3.8332021e-22
-7.0182974e-23
-9.4872729e-21
-2.407836e-21
-1.2725197e-19
-4.6390953e-20
-5.6357037e-19
-3.8078233e-19
-5.7827975e-19
-1.3345687e-18
-6.6416578e-19
-1.5767549e-18
-4.4324645e-18
-8.7507622e-18
-8.9388333e-17
-1.9158138e-16
-5.7084037e-16
-2.9376706e-15
-3.0069852e-16
-1.1171983e-15
-4.8918945e-15
-2.4114364e-13
8.2274171e-12
-1.3967355e-11
1.7712071e-10
-2.8467253e-10
8.7898334e-10
-1.0780471e-09
1.8844118e-09
-1.5030838e-09
3.4342763e-09
-2.2436172e-09
4.2071974e-09
-1.6386624e-09
2.0366486e-09
0
4.5905558e-10
0
7.0599606e-11
-8.0656045e-11
4.9491106e-12
2.7512432e-11
4.1797861e-13
4.5457764e-12
1.7820465e-14
3.9479324e-13
1.0914433e-15
1.6473477e-14
7.1243152e-17
7.5134663e-16
2.6541139e-18
4.1751706e-17
9.4798467e-20
1.9383138e-18
3.156565e-21
7.7591985e-20
9.8125285e-23
2.710565e-21
2.6793262e-24
8.3091101e-23
6.2594813e-26
2.2287455e-24
1.2885743e-27
5.2354953e-26
2.3485116e-29
1.0840601e-27
3.7939658e-31
1.9841074e-29
5.4345854e-33
3.2176247e-31
6.9018962e-35
4.6263358e-33
7.757661e-37
5.8991798e-35
7.6976614e-39
6.6609503e-37
6.7175973e-41
6.6457155e-39
5.1265952e-43
5.8393281e-41
3.3962908e-45
4.4949598e-43
1.9348574e-47
3.010751e-45
9.359003e-50
1.7398559e-47
3.7784909e-52
8.5738012e-50
1.2423094e-54
3.5489932e-52
3.197255e-57
1.2083793e-54
4.9704459e-60
3.2819408e-57
8.9644932e-63
8.2176053e-60
2.1638933e-64
2.9610007e-62
5.9600971e-66
5.9643205e-64
2.7484324e-66
5.007188e-65
3.7883395e-66
1.1715569e-64
-2.6908668e-66
2.0096988e-64
-2.6574631e-65
3.5521613e-64
-6.5746858e-65
6.1262844e-64
-8.5902187e-65
6.8425192e-64
-6.1085225e-65
5.4428074e-64
-2.1512652e-65
2.1749605e-64
-5.9660787e-66
5.8727548e-65
1.9451314e-65
4.6435299e-68
9.4008705e-67
4.290964e-67
3.8665044e-65
-2.0700067e-64
1.524163e-63
-5.2142256e-64
6.2282752e-63
-7.7152687e-64
6.8757582e-63
-7.8345968e-64
5.9092926e-63
-5.214177e-64
3.9756286e-63
-1.6529405e-64
1.8290736e-63
-2.6936685e-65
4.3882887e-64
-3.4720929e-65
1.0032148e-64
-6.9811207e-64
8.1258288e-64
-6.8505132e-62
5.2083719e-62
-2.3714277e-60
2.250923e-60
-2.7396528e-59
3.9059759e-59
-5.8745863e-58
6.6963038e-58
-8.1229605e-56
6.8430501e-56
-1.2209106e-53
9.3305916e-54
-1.542823e-51
1.1700243e-51
-1.8462162e-49
1.3521701e-49
-2.0924021e-47
1.4472842e-47
-2.2015094e-45
1.4422761e-45
-2.1602363e-43
1.3438309e-43
-1.9838538e-41
1.1747862e-41
-1.7107081e-39
9.662104e-40
-1.3899574e-37
7.5018127e-38
-1.0664515e-35
5.5100491e-36
-7.7200125e-34
3.8230021e-34
-5.2383663e-32
2.5059837e-32
-3.5398901e-30
1.554846e-30
-4.0690443e-28
9.7451425e-29
-3.9358249e-26
6.871634e-27
-4.1510663e-25
1.8185859e-25
-2.5084427e-24
1.1935879e-24
-5.2506146e-23
7.4556865e-24
-2.5263147e-22
6.628066e-23
-3.0644349e-22
1.3426818e-22
-1.924161e-22
1.1773821e-22
-3.4943e-23
3.169778e-23
-4.5617795e-23
2.9243603e-24
-7.1611297e-22
-3.2606592e-23
-2.2910599e-20
-3.0915652e-21
-5.8284813e-19
-1.2169357e-19
-7.7088049e-18
-2.4300597e-18
-2.8100411e-17
-1.7448419e-17
-2.2490928e-17
-4.285144e-17
-2.1918152e-17
-5.0398011e-17
-9.8710564e-17
-1.5361113e-16
-1.2575689e-15
-3.1877685e-15
-1.6228064e-15
-3.6339834e-14
-5.4647879e-14
-1.1623988e-13
-8.8001538e-13
-3.0288278e-12
-5.9731381e-12
-9.3497029e-11
2.8219777e-09
-4.7019617e-09
1.5822956e-08
-2.7624164e-08
4.8457711e-08
-1.0574832e-07
1.4259123e-07
-2.9325059e-07
1.7245245e-07
-4.0183237e-07
7.0895624e-08
-2.6079396e-07
8.5870122e-09
-1.0204805e-08
5.9759647e-10
1.1593296e-09
8.6939099e-11
4.6530469e-10
8.4965051e-12
7.7588161e-11
5.7446461e-13
7.890327e-12
2.8583659e-14
5.1778928e-13
1.5221132e-15
2.4607916e-14
6.8144869e-17
1.2797634e-15
2.5752898e-18
5.7479791e-17
8.2723653e-20
2.2018207e-18
2.2869666e-21
7.1539082e-20
5.4799137e-23
1.9965068e-21
1.1434993e-24
4.8199097e-23
2.0865485e-26
1.0123423e-24
3.3399271e-28
1.8582533e-26
4.6959446e-30
2.9921387e-28
5.8034785e-32
4.2335134e-30
6.2931164e-34
5.2701393e-32
5.9658397e-36
5.7657713e-34
4.91816e-38
5.5276136e-36
3.4874747e-40
4.6258998e-38
2.095405e-42
3.3509662e-40
1.0349353e-44
2.0748794e-42
4.2922542e-47
1.0728858e-44
1.6732875e-49
4.6134926e-47
5.3552372e-52
1.9361793e-49
1.3729818e-54
6.7606787e-52
2.7372136e-57
1.9229791e-54
6.3994302e-60
4.831254e-57
3.2248744e-61
2.8900844e-59
1.7859739e-62
2.2787051e-60
8.1790671e-64
1.0980962e-61
8.3324753e-65
1.901612e-62
-1.5129253e-63
4.7621399e-62
-5.4231107e-63
7.0677161e-62
-1.6841449e-62
1.1455558e-61
-2.7952126e-62
1.8062433e-61
-3.1599336e-62
1.8729318e-61
-1.9602809e-62
1.4493883e-61
-6.3946552e-63
5.5087055e-62
-1.6148814e-63
1.454755e-62
4.6036598e-63
1.1138293e-65
1.9470479e-64
2.5374497e-64
7.1304789e-63
-2.0201748e-62
2.7570177e-61
-6.8813211e-62
1.1250528e-60
-1.1052171e-61
1.2419579e-60
-1.1721458e-61
1.0752593e-60
-8.0443594e-62
7.2774291e-61
-2.604209e-62
3.3785897e-61
-4.8061492e-63
8.2177615e-62
-6.111254e-63
2.0832367e-62
-2.3026537e-61
1.8583149e-61
-2.1631985e-59
1.8766441e-59
-5.0519574e-58
6.1473607e-58
-5.1385246e-57
8.0526628e-57
-1.2100411e-55
1.4881538e-55
-1.8659629e-53
1.7040841e-53
-2.7482708e-51
2.3714978e-51
-3.484426e-49
3.0168286e-49
-4.3385095e-47
3.5292907e-47
-4.9793681e-45
3.8188249e-45
-5.2948542e-43
3.8406374e-43
-5.243816e-41
3.6088405e-41
-4.8595616e-39
3.1826332e-39
-4.2305451e-37
2.6430889e-37
-3.4696525e-35
2.0747049e-35
-2.6867073e-33
1.539985e-33
-1.9659436e-31
1.0843279e-31
-1.3505804e-29
7.2237001e-30
-9.3299687e-28
4.5684848e-28
-1.2499395e-25
2.9639284e-26
-1.2594524e-23
2.1924213e-24
-9.9110463e-23
5.0513488e-23
-3.58054e-22
2.4293249e-22
-6.6936373e-21
1.009821e-21
-3.8839447e-20
1.1148623e-20
-4.6405914e-20
2.5954522e-20
-2.9719242e-20
2.4377915e-20