/*--------------------------------*- C++ -*----------------------------------*\
  =========                 |
  \\      /  F ield         | OpenFOAM: The Open Source CFD Toolbox
   \\    /   O peration     | Website:  https://openfoam.org
    \\  /    A nd           | Version:  9
     \\/     M anipulation  |
\*---------------------------------------------------------------------------*/
FoamFile
{
    format      ascii;
    class       surfaceScalarField;
    location    "0.63";
    object      phi;
}
// * * * * * * * * * * * * * * * * * * * * * * * * * * * * * * * * * * * * * //

dimensions      [0 3 -1 0 0 0 0];

internalField   nonuniform List<scalar> 
19800
(
-8.7860208e-06
5.2327535e-05
-4.0941047e-05
5.4075112e-05
-7.3976141e-05
5.5704751e-05
-0.00010783232
5.7540161e-05
-0.00014253811
5.944744e-05
-0.00017808388
6.1494813e-05
-0.000214488
6.3629139e-05
-0.00025172174
6.5880575e-05
-0.00028983203
6.8175331e-05
-0.00032873905
7.0519182e-05
-0.0003685002
7.2932437e-05
-0.00040904442
7.5250723e-05
-0.0004503507
7.763667e-05
-0.00049232502
7.9891675e-05
-0.00053496885
8.2082191e-05
-0.00057815965
8.4124286e-05
-0.00062182519
8.6063107e-05
-0.00066595057
8.7861515e-05
-0.00071045865
8.9484308e-05
-0.00075525053
9.0907094e-05
-0.00080024689
9.2122391e-05
-0.00084531631
9.2904873e-05
-0.00089036626
9.358214e-05
-0.00093522082
9.3855554e-05
-0.00097969937
9.3875849e-05
-0.0010235679
9.3372347e-05
-0.00106648
9.2331769e-05
-0.0011080361
9.0619375e-05
-0.0011476712
8.8014992e-05
-0.0011847103
8.4390598e-05
-0.0012182716
7.9409974e-05
-0.001247146
7.2752016e-05
-0.0012697374
6.3912741e-05
-0.0012849604
5.21373e-05
-0.0012920323
3.6770293e-05
-0.0012897815
1.6922367e-05
-0.0012803503
-4.7454669e-06
-0.001256661
-3.0536043e-05
-0.0012146576
-5.7590175e-05
-0.0011523648
-8.7415435e-05
-0.0010674989
-0.00012038122
-0.00095796645
-0.00015631934
-0.00082185371
-0.00019506336
-0.00065783174
-0.00023614756
-0.00046466564
-0.00027954286
-0.00024136457
-0.00032430675
1.2427242e-05
-0.00037054321
0.00029443458
-0.00041398052
0.00060484108
-0.00045934688
0.00094016674
-0.00050027134
0.0012958955
-0.00053491122
0.0016654441
-0.00055985249
0.0020398499
-0.00057113656
0.0024078991
-0.00056501327
0.0027567468
-0.00053871135
0.0030730498
-0.00049117285
0.0033443965
-0.00042356034
0.0035605896
-0.00033911768
0.0037145452
-0.00024265535
0.003802545
-0.00013964824
0.0038235871
-3.5355509e-05
0.0037883099
6.5118622e-05
0.0037074494
0.00016045696
0.0035899392
0.00024438817
0.0034443627
0.00031422609
0.0032786197
0.00036905831
0.0030996028
0.0004091409
0.0029130664
0.00043550363
0.002723658
0.00044967852
0.0025350092
0.00045346423
0.0023498826
0.0004487776
0.0021703343
0.00043749805
0.0019978386
0.00042134789
0.0018334107
0.00040184531
0.0016776602
0.00038022752
0.0015308979
0.00035736577
0.0013931685
0.00033398124
0.001264394
0.00031062274
0.0011443019
0.00028755528
0.0010325195
0.00026574279
0.00092880679
0.00024423572
0.00083255604
0.00022423117
0.00074345027
0.00020502193
0.00066106988
0.00018696336
0.00058504281
0.00016991059
0.00051492304
0.00015403306
0.00045041157
0.00013911107
0.00039098437
0.00012518973
0.0003360603
0.00011227755
0.0002852744
0.00010031714
0.00023851299
8.9407096e-05
0.00019561683
7.9567613e-05
0.00015631842
7.0604627e-05
0.00012038273
6.2716298e-05
8.7473855e-05
5.5760179e-05
5.7246884e-05
4.9620001e-05
2.9423697e-05
4.4344639e-05
3.6743262e-06
3.9980859e-05
-1.9822808e-05
3.5862511e-05
3.2240922e-05
-6.7906035e-06
8.3469667e-05
-3.8970696e-05
8.6251755e-05
-7.187338e-05
8.8615945e-05
-0.00010552834
9.1182423e-05
-0.0001401532
9.4089071e-05
-0.00017548716
9.6806545e-05
-0.0002117408
9.9899637e-05
-0.00024891099
0.00010304397
-0.00028685334
0.00010612084
-0.00032576799
0.00010944691
-0.00036554746
0.00011270319
-0.00040609446
0.00011580259
-0.00044736693
0.00011891409
-0.00048944702
0.00012196685
-0.00053209494
0.00012473751
-0.00057537355
0.00012740886
-0.00061928257
0.00012996818
-0.00066354154
0.00013212229
-0.00070822284
0.00013416857
-0.00075323304
0.00013591428
-0.00079838076
0.00013727166
-0.00084375997
0.00013829051
-0.00088918968
0.00013901395
-0.00093456082
0.00013922821
-0.00097957008
0.00013889179
-0.0010241016
0.00013790996
-0.0010677812
0.0001360127
-0.0011102947
0.00013313322
-0.0011511167
0.00012883815
-0.001189589
0.00012286297
-0.0012248954
0.00011471711
-0.0012559956
0.00010385629
-0.0012817225
8.9645596e-05
-0.0013009511
7.1369976e-05
-0.0013125002
4.8320731e-05
-0.0013155211
1.9944376e-05
-0.0013071964
-1.3068158e-05
-0.0012854538
-5.2278211e-05
-0.0012464055
-9.6641331e-05
-0.0011874244
-0.00014639993
-0.0011059834
-0.00020182487
-0.00099975535
-0.00026254956
-0.00086651765
-0.00032830341
-0.00070471576
-0.00039795313
-0.00051342197
-0.00047083867
-0.00029123055
-0.00054650207
-3.8770272e-05
-0.00062300866
0.00024514762
-0.00069789966
0.00055923093
-0.00077343167
0.00090131142
-0.00084235217
0.0012675607
-0.00090116228
0.0016518053
-0.00094409927
0.0020448574
-0.00096419112
0.0024345597
-0.0009547141
0.0028062493
-0.00091040006
0.0031443488
-0.00082927271
0.0034343417
-0.00071355405
0.0036643725
-0.00056915056
0.0038264845
-0.00040476779
0.0039175349
-0.00023069953
0.0039395428
-5.7364955e-05
0.0038988068
0.00010585277
0.0038071164
0.00025214485
0.003674699
0.00037680804
0.0035120994
0.00047682701
0.0033289762
0.00055218016
0.0031335023
0.00060462003
0.0029322557
0.00063675473
0.0027302894
0.00065164364
0.0025313682
0.00065238384
0.0023381823
0.0006419585
0.0021525598
0.0006231166
0.0019756934
0.00059821122
0.0018083014
0.0005692339
0.0016507629
0.00053776246
0.0015031478
0.00050497955
0.0013652644
0.00047186346
0.0012369611
0.00043892555
0.0011175503
0.00040696349
0.0010068791
0.00037641302
0.00090412721
0.00034698595
0.00080915235
0.00031920327
0.00072135337
0.00029281678
0.00064025913
0.00026805447
0.00056542198
0.00024474457
0.00049639966
0.00022305454
0.00043282855
0.00020268247
0.00037424486
0.00018377453
0.0003203634
0.00016616121
0.00027111782
0.00014956591
0.00022594151
0.0001345818
0.00018457967
0.00012092941
0.00014669618
0.00010849213
0.00011190124
9.75123e-05
8.015676e-05
8.7500882e-05
5.1225703e-05
7.8556524e-05
2.4502547e-05
7.1078842e-05
-1.0732181e-07
6.4595606e-05
-2.2970363e-05
5.8731148e-05
5.3167101e-05
-4.301521e-06
0.00011421023
-3.676717e-05
0.00011872676
-6.9599012e-05
0.00012143182
-0.00010319985
0.00012479922
-0.00013735574
0.00012822485
-0.00017256587
0.00013203318
-0.00020869923
0.00013602768
-0.0002457787
0.00014012241
-0.00028374497
0.0001440988
-0.00032260558
0.00014830013
-0.00036235435
0.00015245544
-0.00040293922
0.00015639368
-0.00044438759
0.00016035695
-0.0004865264
0.00016410897
-0.00052937377
0.00016758996
-0.00057295389
0.00017098538
-0.00061690528
0.00017392089
-0.000661462
0.00017668377
-0.00070641772
0.00017912298
-0.0007517022
0.00018119894
-0.00079726101
0.00018283549
-0.00084297869
0.00018400994
-0.00088889504
0.00018493013
-0.00093470769
0.00018504511
-0.00098046746
0.00018465602
-0.0010258334
0.00018327564
-0.0010706468
0.00018082514
-0.0011145164
0.00017700352
-0.0011570284
0.00017134952
-0.0011976409
0.00016347425
-0.0012356791
0.00015275771
-0.001270094
0.0001382753
-0.0012999502
0.00011950344
-0.001323869
9.5289219e-05
-0.0013405043
6.4957847e-05
-0.0013482239
2.7665189e-05
-0.0013445534
-1.6740078e-05
-0.0013271867
-6.964716e-05
-0.0012931958
-0.00013063363
-0.0012389257
-0.0002006699
-0.0011622839
-0.00027846707
-0.0010603161
-0.00036451908
-0.00093116858
-0.00045745209
-0.00077292092
-0.00055620384
-0.0005838821
-0.00065987963
-0.00036318547
-0.0007672006
-0.00011026347
-0.0008759341
0.00017654279
-0.00098470619
0.00049620444
-0.0010930948
0.00084835114
-0.0011945005
0.0012302692
-0.0012830818
0.0016367639
-0.0013505929
0.0020584271
-0.0013858546
0.0024813919
-0.0013776782
0.0028877125
-0.001316721
0.0032579084
-0.0011994686
0.0035740122
-0.0010296575
0.0038216928
-0.00081683101
0.0039918323
-0.00057490784
0.0040813144
-0.00032018293
0.0040918944
-6.7944483e-05
0.0040355427
0.00016220293
0.0039239755
0.0003637114
0.0037698478
0.00053093681
0.0035853626
0.000661315
0.0033813413
0.00075620367
0.0031667935
0.00081916603
0.0029487947
0.00085475658
0.0027327304
0.00086770925
0.0025224082
0.00086270024
0.0023204142
0.00084395005
0.0021283579
0.00081516503
0.0019471284
0.00077944041
0.0017770499
0.00073931244
0.0016180646
0.00069674199
0.0014699576
0.00065308729
0.0013322692
0.00060955175
0.0012046448
0.00056654853
0.0010862582
0.00052534904
0.00097701978
0.00048565177
0.00087575024
0.00044825168
0.00078235956
0.00041258887
0.00069614547
0.00037902785
0.00061668345
0.00034751449
0.00054339078
0.00031803544
0.00047601067
0.00029043285
0.00041396348
0.00026472908
0.00035709274
0.00024064525
0.00030506038
0.00021819821
0.00025710176
0.00019752521
0.00021311988
0.00017856342
0.00017281536
0.00016123335
0.00013597571
0.00014533532
0.0001024549
0.00013103246
7.1855835e-05
0.00011809977
4.3745101e-05
0.00010666542
1.8229647e-05
9.6594796e-05
-5.3390316e-06
8.8169887e-05
-2.7279665e-05
8.0671186e-05
7.3127994e-05
-1.5926478e-06
0.00014489907
-3.3516496e-05
0.00015063987
-6.6098993e-05
0.00015403134
-9.949324e-05
0.00015817323
-0.000133752
0.00016249814
-0.00016887201
0.00016715061
-0.00020486595
0.00017202
-0.00024173648
0.00017700487
-0.0002797381
0.00018209508
-0.00031861664
0.00018718099
-0.00035838763
0.00019223458
-0.00039913397
0.00019713623
-0.0004407208
0.00020194461
-0.00048306949
0.00020646179
-0.00052619399
0.00021071064
-0.00056990841
0.00021469946
-0.00061427484
0.00021829277
-0.00065912572
0.0002215351
-0.00070430572
0.00022430204
-0.00074991591
0.00022681265
-0.00079591049
0.00022883192
-0.00084229751
0.00023039573
-0.00088859318
0.0002312277
-0.00093517807
0.00023163345
-0.00098164425
0.00023112115
-0.0010280996
0.00022972745
-0.0010742698
0.00022699458
-0.001120069
0.00022280348
-0.0011650155
0.00021629495
-0.0012085431
0.00020700107
-0.0012501369
0.00019435326
-0.0012890278
0.00017716783
-0.0013241873
0.00015466224
-0.0013543876
0.00012548927
-0.0013780577
8.8629627e-05
-0.0013933356
4.2943033e-05
-0.0013981445
-1.193451e-05
-0.0013892796
-7.8514124e-05
-0.001363581
-0.00015633073
-0.0013182674
-0.00024598082
-0.0012492179
-0.00034751642
-0.0011542923
-0.00045944763
-0.0010308926
-0.00058085323
-0.00087676927
-0.00071032898
-0.00069116668
-0.00084548392
-0.00047238045
-0.00098598762
-0.00021848614
-0.0011298318
7.1948278e-05
-0.0012751416
0.00039756177
-0.0014187088
0.00076299602
-0.0015599344
0.0011671433
-0.00168723
0.0016063047
-0.0017897537
0.0020714956
-0.0018510469
0.0025463433
-0.0018525264
0.0030072377
-0.0017776161
0.0034278222
-0.0016200515
0.003784609
-0.0013864429
0.0040594228
-0.0010916439
0.0042408226
-0.00075630795
0.0043258878
-0.00040525117
0.0043199468
-6.200209e-05
0.0042363326
0.00024581765
0.0040907748
0.00050927036
0.0039004011
0.00072131171
0.0036809292
0.00088078702
0.0034453494
0.00099178834
0.0032036822
0.0010608344
0.0029633309
0.0010951054
0.0027294545
0.0011015854
0.0025054417
0.0010867054
0.0022933328
0.0010560548
0.0020941235
0.0010143693
0.0019081455
0.00096541714
0.0017352767
0.00091218451
0.0015751066
0.00085691106
0.0014269467
0.00080124448
0.0012902001
0.00074629709
0.0011639703
0.00069277789
0.0010474345
0.00064188154
0.00093973298
0.00059334949
0.00084072168
0.00054725885
0.00074940167
0.00050390709
0.00066523848
0.00046318924
0.00058783334
0.00042491395
0.00051645593
0.00038940882
0.0004508693
0.00035601739
0.00039067449
0.00032492325
0.00033536786
0.00029595105
0.00028457359
0.00026899413
0.00023803652
0.00024406405
0.00019553323
0.00022106549
0.00015680792
0.00019995899
0.00012151328
0.00018063253
8.9416966e-05
0.00016313022
6.0251206e-05
0.00014726626
3.3625919e-05
0.00013328921
9.5146586e-06
0.00012070316
-1.2545618e-05
0.0001102321
-3.309224e-05
0.00010121626
9.1723287e-05
1.5098351e-06
0.00017559684
-3.0102993e-05
0.00018227256
-6.2381266e-05
0.00018629155
-9.5345963e-05
0.00019115345
-0.00012920599
0.00019635576
-0.0001640767
0.00020201875
-0.00019986506
0.00020782023
-0.00023677623
0.0002139125
-0.00027468637
0.00022000689
-0.0003136258
0.00022612964
-0.00035354733
0.00023215401
-0.00039447471
0.00023806303
-0.00043624199
0.00024371536
-0.00047883345
0.00024904955
-0.00052222224
0.00025409768
-0.00056624215
0.00025872485
-0.00061087591
0.00026292851
-0.00065608523
0.00026674274
-0.00070172872
0.000269947
-0.00074776622
0.00027285135
-0.00079418294
0.00027524692
-0.00084082924
0.0002770425
-0.00088796014
0.00027836105
-0.00093523096
0.00027890284
-0.00098288871
0.00027877442
-0.0010308178
0.00027765444
-0.0010788155
0.00027499288
-0.0011265115
0.00027049975
-0.0011740611
0.00026384393
-0.0012209902
0.00025392935
-0.0012670897
0.00024045156
-0.0013112856
0.00022136298
-0.0013529455
0.00019632252
-0.0013907163
0.00016326142
-0.0014230861
0.00012099981
-0.0014480449
6.7899749e-05
-0.0014630532
3.0711978e-06
-0.0014657763
-7.5790362e-05
-0.0014518938
-0.00017021058
-0.001417905
-0.00027996819
-0.0013598301
-0.00040559241
-0.001274351
-0.00054493031
-0.0011587551
-0.00069645039
-0.001011443
-0.00085764188
-0.0008303226
-0.0010266062
-0.00061487409
-0.0012014367
-0.00036253889
-0.0013821693
-7.1483163e-05
-0.0015661982
0.00026161406
-0.0017518061
0.00064152445
-0.0019398439
0.0010718007
-0.0021175089
0.0015534042
-0.0022713591
0.0020791931
-0.0023768385
0.0026296374
-0.0024029701
0.0031703186
-0.0023182971
0.0036631833
-0.0021129151
0.0040768643
-0.0018001241
0.0043877728
-0.0014025524
0.0045817114
-0.00095024651
0.0046566402
-0.00048018016
0.0046197181
-2.5078016e-05
0.0044943136
0.00037122481
0.0042998008
0.00070378522
0.0040595039
0.00096160843
0.0037934386
0.0011468533
0.0035168172
0.0012684129
0.0032406423
0.0013370103
0.0029724828
0.0013632627
0.0027170849
0.0013569779
0.0024770634
0.0013267236
0.0022535725
0.0012795442
0.00204676
0.001221182
0.0018561275
0.0011560488
0.001680868
0.0010874421
0.0015199871
0.0010177919
0.0013723085
0.00094892291
0.0012370784
0.00088152553
0.0011126175
0.00081723718
0.00099843517
0.00075605934
0.00089359226
0.00069818876
0.00079716525
0.00064368325
0.00070850762
0.00059256181
0.00062705359
0.00054464162
0.000551939
0.00050002848
0.00048303634
0.00045831033
0.00041966077
0.00041939175
0.00036160364
0.00038297878
0.00030837084
0.00034918626
0.0002596203
0.00031773854
0.00021509842
0.00028858587
0.00017447737
0.00026168855
0.00013756113
0.00023687752
0.00010405691
0.00021413365
7.3695968e-05
0.00019349566
4.6219041e-05
0.00017474793
2.1449922e-05
0.00015805655
-1.2171653e-06
0.00014337248
-2.1656586e-05
0.00013067048
-4.0480078e-05
0.00012003056
0.00010867683
5.1852668e-06
0.0002061209
-2.5708716e-05
0.00021314761
-5.7350147e-05
0.00021795166
-8.9980455e-05
0.00022378257
-0.00012367556
0.00023004891
-0.00015827302
0.00023662783
-0.00019399224
0.00024353617
-0.00023072966
0.00025065075
-0.00026862042
0.00025790729
-0.00030761304
0.00026512171
-0.0003476745
0.00027221451
-0.00038876739
0.00027915915
-0.00043082401
0.00028576849
-0.00047377497
0.00029199745
-0.00051751649
0.00029784417
-0.00056192295
0.00030313459
-0.00060702353
0.0003080275
-0.00065261572
0.00031233514
-0.00069878192
0.00031611393
-0.00074521731
0.00031928475
-0.00079212474
0.00032215412
-0.00083943357
0.00032435404
-0.00088716988
0.00032609668
-0.00093548458
0.00032721251
-0.00098413803
0.00032742505
-0.0010330829
0.00032660075
-0.0010826178
0.00032452908
-0.0011329126
0.00032079388
-0.0011837435
0.0003146739
-0.0012349045
0.00030508851
-0.0012859111
0.00029145546
-0.0013366566
0.00027210803
-0.0013857945
0.00024546348
-0.0014327754
0.0002102445
-0.0014759531
0.00016417602
-0.0015132857
0.00010522935
-0.0015417429
3.1527415e-05
-0.0015588609
-5.8670519e-05
-0.0015598898
-0.00016918067
-0.0015406003
-0.0002992595
-0.0014963857
-0.00044980925
-0.0014233422
-0.00061797628
-0.001317958
-0.00080183558
-0.0011784867
-0.00099711393
-0.0010039596
-0.001201136
-0.00079271228
-0.0014126841
-0.00054457521
-0.0016303066
-0.00025522781
-0.001855546
8.2071165e-05
-0.0020891077
0.00047159576
-0.0023293705
0.00092880451
-0.0025747215
0.0014629711
-0.0028055282
0.0020711584
-0.0029850285
0.0027272547
-0.0030590665
0.0033776961
-0.0029687376
0.0039685081
-0.0027037267
0.0044610462
-0.0022926638
0.0048238862
-0.0017653914
0.0050350019
-0.0011613615
0.0050918934
-0.0005370685
0.005008944
5.7872928e-05
0.0048207152
0.00055945431
0.0045557414
0.0009687636
0.0042466894
0.0012706611
0.0039188355
0.0014747076
0.0035898188
0.0015974332
0.0032712671
0.0016555585
0.0029702256
0.0016643013
0.0026903099
0.00163689
0.0024328337
0.0015842006
0.0021975505
0.0015148282
0.0019834006
0.0014353318
0.0017888697
0.0013505792
0.0016122384
0.001264074
0.0014517821
0.0011782479
0.0013059184
0.0010947854
0.0011729648
0.0010144745
0.0010515241
0.00093867448
0.00094057974
0.00086700119
0.00083900581
0.00079975939
0.00074597388
0.00073671328
0.0006605504
0.00067798575
0.00058213594
0.00062305371
0.00051015198
0.00057201065
0.00044406713
0.00052439255
0.00038343077
0.00048002811
0.00032777899
0.00043862911
0.00027690205
0.00040006626
0.00023052467
0.00036411598
0.00018819481
0.00033091258
0.00014970858
0.00030017537
0.00011483285
0.00027176251
8.3371479e-05
0.0002455946
5.5043665e-05
0.00022181984
2.9543703e-05
0.00020024763
6.7281249e-06
0.00018086637
-1.3923389e-05
0.00016402679
-3.2447644e-05
0.0001491949
-4.9316799e-05
0.00013689516
0.00012357583
9.7285606e-06
0.0002359585
-2.0624241e-05
0.00024351893
-5.1918503e-05
0.00024924161
-8.4015457e-05
0.0002558788
-0.00011717346
0.0002632191
-0.00015146272
0.00027091334
-0.00018694388
0.00027901651
-0.00022359365
0.00028730868
-0.0002615084
0.00029582145
-0.00030058948
0.00030420172
-0.00034083658
0.00031246542
-0.00038217713
0.00032049728
-0.00042458445
0.00032817226
-0.00046792087
0.00033533824
-0.00051209005
0.00034201773
-0.00055694357
0.00034798746
-0.000602519
0.00035360314
-0.00064856436
0.0003583818
-0.00069513119
0.00036267958
-0.00074220984
0.00036636319
-0.00078955979
0.00036950731
-0.0008373425
0.00037213804
-0.00088562008
0.00037437061
-0.00093449253
0.00037608159
-0.00098408833
0.00037702197
-0.0010346714
0.0003771866
-0.0010862953
0.00037615368
-0.001139122
0.00037361918
-0.0011930152
0.00036856516
-0.0012485438
0.00036061491
-0.0013049575
0.00034786774
-0.0013626326
0.0003297848
-0.0014208927
0.00030372725
-0.0014786043
0.00026795717
-0.0015345388
0.00022010823
-0.0015866818
0.00015737002
-0.0016320296
7.6874223e-05
-0.00166768
-2.3020655e-05
-0.0016880759
-0.00014878641
-0.001688187
-0.00029915145
-0.0016621931
-0.00047580475
-0.0016039347
-0.00067623568
-0.0015109876
-0.00089478345
-0.0013807858
-0.0011273163
-0.0012132207
-0.0013687033
-0.0010092014
-0.0016167039
-0.00076790972
-0.0018715989
-0.00048602619
-0.002137431
-0.00015593971
-0.0024191978
0.00023795227
-0.0027232654
0.00071714298
-0.0030539148
0.0013067553
-0.003395142
0.0020099563
-0.0036882313
0.002798569
-0.0038476824
0.0035935127
-0.0037636829
0.0043175387
-0.0034277521
0.0049247279
-0.0028998531
0.0053662123
-0.0022068722
0.0056089703
-0.0014041178
0.0056458571
-0.00057395078
0.0055043669
0.00019936567
0.005223831
0.00083998932
0.0048589105
0.0013336872
0.0044563804
0.0016731924
0.0040486533
0.001882432
0.0036550003
0.0019910835
0.0032864427
0.0020241141
0.0029483509
0.0020023907
0.0026421961
0.0019430441
0.0023670976
0.0018592971
0.0021208502
0.001761073
0.0019007114
0.0016554715
0.0017038149
0.0015474756
0.0015274104
0.0014404783
0.0013689233
0.0013367321
0.0012262765
0.0012374301
0.0010970859
0.0011436623
0.00097988085
0.0010558742
0.00087332959
0.00097354653
0.0007761199
0.00089696801
0.00068725625
0.00082557702
0.00060588481
0.00075935727
0.00053109676
0.00069784106
0.00046253317
0.00064057289
0.00039966795
0.00058725611
0.00034209882
0.00053759335
0.00028932235
0.00049140461
0.00024115123
0.00044823331
0.00019733779
0.00040793162
0.00015743554
0.0003708156
0.00012133575
0.00033627544
8.880332e-05
0.00030429664
5.95607e-05
0.00027483681
3.3484188e-05
0.00024789579
1.02205e-05
0.00022351416
-1.05598e-05
0.00020164353
-2.8801299e-05
0.00018226575
-4.4999521e-05
0.00016539168
-5.9585989e-05
0.00015148038
0.0001361522
1.4997608e-05
0.00026487106
-1.4647636e-05
0.00027315604
-4.5096348e-05
0.00027968854
-7.6813754e-05
0.0002876077
-0.00010953846
0.00029593882
-0.00014347893
0.00030485195
-0.00017867838
0.00031422194
-0.00021522533
0.0003238532
-0.00025314875
0.00033374289
-0.00029235055
0.00034340786
-0.00033285848
0.00035297248
-0.00037456067
0.00036219635
-0.00041733189
0.00037094755
-0.00046118314
0.00037919468
-0.00050585237
0.00038668764
-0.00055134344
0.00039347988
-0.00059744616
0.00039970879
-0.00064409904
0.00040503519
-0.0006912018
0.00040978293
-0.00073865937
0.00041382487
-0.00078649473
0.00041734585
-0.00083473477
0.00042037634
-0.00088356439
0.0004231976
-0.00093301848
0.00042553652
-0.00098347605
0.00042748201
-0.0010351533
0.00042886503
-0.001088431
0.00042943121
-0.0011433183
0.00042850536
-0.0012006193
0.00042586411
-0.001260215
0.00042020882
-0.0013228346
0.00041048788
-0.0013883571
0.00039531013
-0.0014563513
0.00037172397
-0.0015262379
0.00033784356
-0.0015970792
0.00029094741
-0.0016670635
0.00022735249
-0.001733524
0.00014333231
-0.001791169
3.462098e-05
-0.0018364989
-0.00010345892
-0.0018613893
-0.00027426183
-0.0018578274
-0.00047936614
-0.001818903
-0.00071516056
-0.0017401997
-0.000973488
-0.0016200676
-0.0012474486
-0.0014599783
-0.0015287936
-0.0012633727
-0.0018133112
-0.0010324406
-0.0021025334
-0.00076623063
-0.0024036434
-0.00045542716
-0.0027300024
-7.8066051e-05
-0.0031006274
0.00039772147
-0.0035297028
0.0010100759
-0.0040074982
0.0018015687
-0.0044797246
0.0028143949
-0.0048605125
0.0038831289
-0.0048324196
0.004847031
-0.0043916544
0.0056319258
-0.0036847454
0.006150019
-0.0027249611
0.0063751642
-0.0016292628
0.0063514116
-0.00055019468
0.0061173791
0.0004334017
0.0057098239
0.0012475452
0.005205546
0.001837964
0.0046784684
0.002200263
0.0041698765
0.0023910206
0.0036988909
0.0024620649
0.0032738023
0.0024492022
0.0028963583
0.0023798323
0.0025642709
0.0022751284
0.0022732471
0.0021503209
0.0020184372
0.0020158813
0.0017949674
0.0018789387
0.0015983473
0.0017440945
0.0014246532
0.0016141698
0.0012705113
0.0014908714
0.0011328209
0.0013751202
0.0010090239
0.0012674586
0.00089765848
0.001167237
0.00079672353
0.0010744762
0.00070490979
0.00098877867
0.00062095501
0.00090953103
0.00054415194
0.0008361584
0.00047377573
0.00076821748
0.00040924344
0.00070510357
0.00035006419
0.00064643891
0.00029580126
0.00059185448
0.00024624148
0.00054095972
0.00020110034
0.00049337035
0.00015993958
0.00044909507
0.00012279582
0.00040795852
8.9380088e-05
0.00036969059
5.948703e-05
0.00033419601
3.2797138e-05
0.00030153329
9.1720873e-06
0.00027152551
-1.1603493e-05
0.00024429102
-2.981774e-05
0.00021985286
-4.5671804e-05
0.00019811488
-5.9347656e-05
0.00017906954
-7.1389886e-05
0.0001635255
0.00014617996
2.1010256e-05
0.00029263323
-7.5077727e-06
0.00030167346
-3.7515334e-05
0.0003097057
-6.8525926e-05
0.00031861065
-0.00010067505
0.00032808532
-0.0001341808
0.00033836174
-0.00016912804
0.00034916445
-0.00020555386
0.00036027586
-0.00024345948
0.00037165324
-0.00028287912
0.0003828283
-0.00032366008
0.00039375136
-0.00036579945
0.00040433971
-0.00040912997
0.00041428337
-0.00045351839
0.0004235844
-0.00049887539
0.00043204695
-0.00054504206
0.00043965129
-0.00059183439
0.00044650355
-0.00063914197
0.00045234407
-0.00068675028
0.00045739568
-0.00073462895
0.00046170826
-0.00078293037
0.00046564744
-0.00083162203
0.00046906599
-0.00088064577
0.00047222182
-0.00093055809
0.00047545089
-0.00098148289
0.00047840737
-0.0010339568
0.0004813386
-0.0010883763
0.00048385095
-0.0011455148
0.0004856436
-0.0012057423
0.00048608982
-0.001269718
0.00048418337
-0.001338574
0.00047934547
-0.0014114087
0.0004681477
-0.0014900077
0.00045032497
-0.0015735931
0.0004214288
-0.0016607608
0.00037811328
-0.0017510232
0.00031761216
-0.0018420332
0.00023433907
-0.0019285804
0.00012116546
-0.0020054107
-2.6628976e-05
-0.0020614281
-0.00021824225
-0.0020872699
-0.00045352187
-0.002072311
-0.00073011992
-0.0020096574
-0.0010361439
-0.0018988612
-0.0013582463
-0.0017438812
-0.0016837743
-0.0015529802
-0.0020042131
-0.0013347938
-0.0023207199
-0.0010933721
-0.0026450665
-0.00082348678
-0.0029998867
-0.00050639731
-0.0034177167
-9.8998896e-05
-0.0039371001
0.00047831329
-0.0045848131
0.0015412982
-0.0055427108
0.0031411341
-0.006460353
0.0048079831
-0.0064992689
0.0062185425
-0.0058022137
0.0072386654
-0.0047048644
0.00775188
-0.0032381706
0.0077444033
-0.0016217853
0.0074047494
-0.000210539
0.0069156502
0.00092249945
0.0062855923
0.0018775999
0.0055861142
0.002537439
0.0048959873
0.0028903854
0.0042623699
0.0030246365
0.0037021556
0.0030222771
0.0032168328
0.002934521
0.0028010385
0.0027956278
0.0024463706
0.0026297966
0.0021438481
0.0024528433
0.0018850125
0.0022747185
0.0016625057
0.0021014447
0.0014700163
0.0019365821
0.0013025185
0.0017816645
0.0011553519
0.0016380341
0.0010251862
0.001505283
0.00090916238
0.0013834807
0.00080500029
0.0012713977
0.00071096644
0.0011685088
0.0006255061
0.0010742369
0.00054750936
0.00098752671
0.00047612726
0.00090753806
0.00041064132
0.00083370226
0.00035051628
0.00076522672
0.00029536851
0.00070158154
0.00024486569
0.00064235685
0.00019875847
0.00058706724
0.00015683413
0.00053529343
0.00011876926
0.00048715924
8.4527658e-05
0.00044220489
5.3931031e-05
0.00040028633
2.6757478e-05
0.00036136516
2.8483136e-06
0.00032543621
-1.8017e-05
0.00029238833
-3.6030118e-05
0.0002623061
-5.1445525e-05
0.00023526925
-6.453734e-05
0.00021120213
-7.5513334e-05
0.00019004315
-8.4678459e-05
0.00017268775
0.0001534354
2.7669844e-05
0.00031919962
-2.2021017e-09
0.00032935457
-2.8830598e-05
0.00033852409
-5.8849524e-05
0.00034862761
-9.0404597e-05
0.00035964294
-0.00012346007
0.00037141021
-0.00015811349
0.00038381389
-0.00019441911
0.00039658665
-0.00023237746
0.00040961407
-0.00027199513
0.00042244557
-0.00031318383
0.00043494439
-0.00035579418
0.00044695481
-0.00039977244
0.0004582622
-0.00044493703
0.00046875081
-0.00049107914
0.00047819417
-0.00053806048
0.00048663585
-0.00058565358
0.0004940979
-0.00063362991
0.0005003241
-0.0006819102
0.00050568078
-0.00073041124
0.00051021058
-0.00077899356
0.00051422851
-0.00082789483
0.00051796737
-0.000877264
0.0005215921
-0.00092699415
0.00052518068
-0.0009778188
0.00052923106
-0.0010306394
0.00053415978
-0.0010858007
0.00053901347
-0.0011442487
0.00054409117
-0.0012069301
0.00054876978
-0.0012747624
0.00055201582
-0.0013480762
0.00055266158
-0.0014289868
0.00054906107
-0.0015184287
0.00053976915
-0.0016161087
0.00051910942
-0.001721728
0.000483731
-0.0018351993
0.00043108041
-0.0019552391
0.00035437672
-0.0020775319
0.00024345895
-0.0021921353
8.7976744e-05
-0.0022902135
-0.00012016147
-0.0023542349
-0.000389498
-0.0023695995
-0.00071475574
-0.0023256546
-0.0010800909
-0.0022208434
-0.0014630595
-0.0020639422
-0.0018406749
-0.001871857
-0.0021962981
-0.0016633996
-0.0025291749
-0.0014538258
-0.0028546406
-0.0012578275
-0.0031958835
-0.0010894556
-0.0035860885
-0.00085082887
-0.0041757263
-3.4337706e-05
-0.005401308
0.0019213521
-0.0074984022
0.0045005706
-0.0090395747
0.0068821756
-0.0088808717
0.0087650106
-0.0076850485
0.0099898186
-0.0059296695
0.010397854
-0.003646204
0.010062526
-0.0012864583
0.0092473852
0.00060460307
0.0081395533
0.0020303265
0.0069907049
0.0030264494
0.0059647501
0.0035633945
0.0050696664
0.0037854706
0.0042939814
0.0038003202
0.0036379668
0.0036782931
0.0030943718
0.0034781175
0.0026466979
0.0032433019
0.0022773517
0.0029991427
0.0019711059
0.0027590888
0.001715351
0.0025304713
0.001499982
0.0023168148
0.0013170245
0.0021195414
0.0011595652
0.0019391226
0.0010231105
0.0017744872
0.00090323057
0.0016251596
0.00079702045
0.0014896862
0.00070228253
0.0013661305
0.00061629506
0.0012544955
0.00053853498
0.0011519985
0.00046744223
0.0010586186
0.00040211365
0.00097286568
0.00034209683
0.00089371271
0.00028684648
0.00082047733
0.00023604454
0.00075238028
0.00018958389
0.00068881201
0.00014714265
0.00062950555
0.00010859817
0.0005738371
7.3827404e-05
0.00052192127
4.2675747e-05
0.00047335107
1.5054558e-05
0.0004279096
-9.1550811e-06
0.00038558049
-3.0107318e-05
0.0003463898
-4.7993704e-05
0.00031027541
-6.3068178e-05
0.00027737884
-7.5469929e-05
0.00024767504
-8.5442709e-05
0.0002211761
-9.3440813e-05
0.00019803719
-9.9403214e-05
0.00017864598
0.0001577079
3.5189981e-05
0.00034447529
8.5750515e-06
0.00035595833
-1.8974759e-05
0.00036607453
-4.8013419e-05
0.00037766891
-7.8721759e-05
0.00039034275
-0.00011115636
0.00040384049
-0.00014542657
0.00041808963
-0.00018160997
0.00043277381
-0.00021960676
0.00044761241
-0.00025953282
0.00046237702
-0.00030118413
0.00047660003
-0.00034447391
0.00049024369
-0.00038926939
0.00050305764
-0.00043530983
0.00051479484
-0.000482493
0.00052537942
-0.000530464
0.0005346065
-0.00057893877
0.00054257443
-0.00062782305
0.00054921203
-0.00067681542
0.00055467431
-0.00072585022
0.00055924419
-0.00077472601
0.00056310421
-0.00082351185
0.00056675395
-0.00087248099
0.00057056019
-0.00092200047
0.00057469814
-0.00097279734
0.00058002805
-0.0010247114
0.00058607596
-0.0010797149
0.00059401803
-0.0011384953
0.00060287076
-0.0012026344
0.00061290873
-0.0012732378
0.00062262124
-0.0013508117
0.00063023861
-0.0014380695
0.0006363213
-0.0015379727
0.00063967434
-0.0016509468
0.00063208491
-0.0017755567
0.00060834063
-0.0019142409
0.00056976305
-0.0020679441
0.0005080788
-0.0022330737
0.00040859119
-0.0023992376
0.0002541444
-0.0025498204
3.0422403e-05
-0.0026657796
-0.00027353846
-0.0027215401
-0.00065899592
-0.0026981294
-0.0011035005
-0.0025924886
-0.0015686997
-0.0024195375
-0.0020136238
-0.0022091827
-0.0024066535
-0.0019959718
-0.0027423846
-0.001818329
-0.0030322838
-0.0017395829
-0.0032746296
-0.0017931042
-0.0035325687
-0.0015621182
-0.0044067151
0.00030247512
-0.0072659039
0.0036429231
-0.010838849
0.0069242594
-0.012320911
0.0094814266
-0.011438036
0.011490492
-0.0096941182
0.01262748
-0.0070666573
0.013022063