/*--------------------------------*- C++ -*----------------------------------*\
  =========                 |
  \\      /  F ield         | OpenFOAM: The Open Source CFD Toolbox
   \\    /   O peration     | Website:  https://openfoam.org
    \\  /    A nd           | Version:  9
     \\/     M anipulation  |
\*---------------------------------------------------------------------------*/
FoamFile
{
    format      ascii;
    class       volScalarField;
    location    "41";
    object      p;
}
// * * * * * * * * * * * * * * * * * * * * * * * * * * * * * * * * * * * * * //

dimensions      [0 2 -2 0 0 0 0];

internalField   nonuniform List<scalar> 
918
(
0.54633915
1.7437552
0.012177918
0.52652011
-0.0083806722
1.7144306
-0.92660793
1.241948
0.57434269
-0.18560374
-0.054722081
0.6890978
1.5858012
1.344199
-0.67357942
-0.023428458
1.0800128
-0.73630569
0.58568618
-0.069505471
1.3066906
0.51739628
0.54367895
0.51735351
0.83822391
1.3033552
1.4489751
0.0079741467
0.0021665704
-0.010429657
-0.0046269011
-0.051330821
-0.033768322
1.5907078
1.6447282
1.6684104
0.525807
0.59688512
-0.73794303
-0.8171807
-0.80771024
-0.98491331
1.227721
1.2194764
-0.42999929
1.252042
1.2621409
0.52852857
0.5712559
0.58408048
0.51365418
0.54730354
0.56186606
0.47539703
-0.20801739
-0.26939607
-0.14092093
-0.11625663
0.06059029
-0.045253565
-0.049262052
-0.044098776
-0.042818424
0.50630934
0.67119048
0.65245998
0.70522773
0.73259226
1.6808507
1.6442988
1.6712729
1.6180934
1.6083986
1.5656292
1.5287706
1.3834511
1.3910358
1.3411084
1.3037002
-1.1905209
-2.2101046
-0.1098214
0.18659794
-0.0039996399
-0.0082826822
0.0051552018
1.0605428
1.042577
1.1038069
1.127208
1.3019846
-0.70428368
-0.91661173
0.58930109
0.58599659
0.56821296
0.55018868
0.59671123
0.64208659
-0.05099485
-0.047074887
-0.08441925
-0.063191697
-0.068541186
1.2883375
1.2929477
0.53211828
0.53677363
0.74992317
0.79737426
0.78052765
0.31495561
0.84319434
0.85273657
1.1279849
1.3104357
1.3141618
1.2991895
1.4353353
1.3909414
1.4955715
1.5211092
0.029684388
0.0027639261
-0.0072228261
-0.025780531
-0.0063814129
0.53320982
0.52741771
0.59428047
0.52886427
0.53610505
0.54152794
0.40246105
0.68666374
0.70210275
-0.61188801
-0.66581413
-0.81989211
-0.85266388
-0.99198494
0.95708079
1.2037837
1.1913945
-0.48554696
-0.37035713
-0.53725228
-0.28081707
-0.3253136
0.53404129
0.5394363
0.53460869
0.53162503
0.53260243
0.53404911
0.56332498
0.56091371
0.57736543
0.54789205
0.68919433
0.42282566
0.36573917
-0.48833899
-0.30861371
-0.46214044
-0.094429052
-0.08138483
0.08511946
0.13278284
0.063447659
0.061312238
-0.066822777
-0.051797779
-0.059173207
-0.043971094
-0.042477366
0.49546969
0.48809477
0.51177518
0.51840707
0.61933868
0.62198806
0.6402094
0.63329068
1.4547523
1.4784085
1.5230859
1.4859935
-3.5656028
-6.1973811
0.50327402
0.67738099
-0.0084350838
-0.0073550465
0.0046879825
-0.00017002585
0.0025576938
-0.0085506312
0.021535757
0.013416013
0.0069891032
0.014982866
1.0137656
0.99726862
1.2510758
1.2891965
1.165098
1.1533357
0.59469115
0.5915388
0.59770089
0.58909174
-0.043858653
-0.044781577
-0.041299885
1.2700653
1.2848835
1.2785496
0.22832469
0.13607881
0.35971764
0.40518384
0.96173989
0.90034016
0.93972361
1.2007542
1.2332034
1.5105027
1.52252
1.5604606
1.5571999
1.6054781
1.5977815
1.5562727
0.5175573
0.52673167
0.5262819
0.5917016
0.59629694
0.59586228
0.60921753
0.6063762
0.60395594
0.23991266
-0.091610489
0.78221377
0.77337531
0.74856603
0.74465342
1.0277973
1.1131035
1.1399077
1.1734396
1.1604664
-0.17874398
-0.20009014
0.29696666
0.27024629
0.43130257
0.46988531
0.45732897
1.4288148
1.4289479
1.4754986
1.4376804
1.3790171
1.4019026
-0.11767661
-1.2606345
-0.65587908
1.0640677
0.85259908
0.95266354
0.022831758
0.021245923
0.0012850488
1.2642572
1.3283886
0.75020259
1.0027746
1.003223
1.2775238
1.2995236
1.3723144
1.2995481
1.3249657
1.3477302
1.330544
0.90799489
0.81766278
0.84140085
1.15483
1.2028246
0.052249566
-0.066639484
-0.070602424
0.14478337
0.20245003
0.16877543
1.2978144
1.2426591
1.3096136
0.54376324
0.53642095
0.0018994578
0.0065093621
0.5891075
0.56546678
-0.023779409
-0.0026734327
0.92996523
-0.41551297
0.058397932
0.59986926
0.55271718
0.56503576
-0.17513548
0.43584239
-0.045228143
0.061190899
0.0025052465
0.67290041
0.52965104
0.48743879
-0.0059729722
-0.028095547
-0.040572036
-0.40869287
0.55128839
0.52945776
0.55256507
0.53339325
0.56828989
-0.020181369
-0.013904045
-0.0043039975
-0.04482931
-0.039537282
-0.051764711
0.53964147
0.60911029
-0.34281006
0.57202029
0.56302075
0.57749751
0.54784988
0.6029619
0.55854976
-0.0069229002
-0.0084944285
-0.00051897132
0.24967241
0.41821456
1.2307382
1.3593947
1.2637581
0.88594581
0.56671699
1.0967796
1.1873345
1.0621253
1.2237234
1.2074783
1.247749
0.16290282
-0.073610642
0.1812644
0.062170806
0.59352843
0.59750927
0.54723385
0.53991087
0.57337597
0.54662157
0.57644964
0.5839091
0.58241323
0.59680602
-0.10940404
-0.1316222
-0.17207553
-0.27250251
0.45190472
0.7300543
0.34669694
0.38838373
0.18682311
-0.037390949
-0.044836714
-0.042788374
-0.053410914
0.028479223
-0.028354546
0.083195052
0.080989615
0.058182961
0.0066672936
-0.0046662147
-0.028108732
0.008870049
0.62493721
0.62222748
0.66848119
0.70512831
0.52677102
0.51891759
0.49668494
0.52903472
0.50290166
0.42665208
0.49061862
0.44885659
-0.0090566972
-0.0094868564
-0.011271325
-0.014707407
0.0024508379
-0.013249387
-0.020410332
-0.017853677
-0.020464729
-0.026587043
-0.03948998
-0.043379746
-0.35613567
-0.53209571
1.2067495
1.0598476
0.25409285
0.52589153
0.5275266
0.51220814
0.5606181
0.54816741
0.54893534
0.54835295
0.54480761
0.56252326
0.5708355
0.60513383
0.61267413
-0.24484785
-0.48040011
-0.22302232
-0.33132785
0.46746864
0.97870625
0.42793409
0.32273985
0.32652892
0.78815169
1.4853158
1.3290239
1.2932278
1.2904478
-0.070429814
0.38238553
0.11036851
0.77623811
1.0149117
1.2055138
1.2589108
1.2619659
1.2325396
1.1749593
0.049035039
1.0611549
-0.20417008
-0.14399527
0.25633852
-0.0020684866
1.2308549
1.1729347
1.163507
1.2345328
1.2630343
1.1996845
1.1706828
1.1788749
1.2187809
1.2162666
0.91657779
0.30118331
0.19079489
0.14957747
1.1053737
0.97293966
1.0618342
0.84104944
0.58146685
0.60173709
0.58611539
0.51377989
0.54055781
0.51460844
0.56999701
0.60485191
0.58925634
0.56653354
0.58595307
0.55999778
-0.089753133
-0.088173361
-0.052962284
-0.28342833
-0.25937574
-0.37255508
-0.13522903
0.092892526
0.057613197
0.28470736
0.43087376
0.042471551
-0.15626058
-0.094440181
-0.013577257
0.20212155
0.24772212
0.11787054
0.18513665
0.17199543
0.14576624
0.29017254
0.29464694
-0.010755476
-0.0047007162
-0.030790724
-0.026744631
0.048282008
0.15410593
0.15776567
0.017714037
0.006613978
-0.037828651
-0.041621426
0.010503445
-0.021602354
-5.9007297e-05
0.019582483
-0.01593274
0.015673576
0.012493756
0.0030742482
0.027713714
0.022104178
0.62479611
0.61866037
0.6160038
0.74024104
0.72720133
0.75605324
0.74053574
0.53887882
0.53027034
0.53185391
0.54844185
0.53173957
0.55419822
0.58075171
0.634931
0.65029485
0.60154996
0.58073337
0.6178467
0.57895525
0.56743915
0.57701088
0.57629002
0.51030099
0.51742844
-0.02156697
0.00059941864
0.017538043
-0.057482165
0.0038300326
-0.015926213
0.0081527079
0.042643906
-0.0026278191
0.018306167
0.00912224
-0.015416863
-0.0062219893
-0.15855557
0.010203122
-0.40976861
-0.44291072
-0.55899017
1.1024866
1.2641275
0.99541637
0.71501944
0.75289614
1.0383577
1.1788326
0.68385327
0.81895829
0.93141575
0.92465544
1.1410236
0.55297895
0.54318192
0.55481594
0.52907495
0.56324332
-0.024834104
0.22326777
0.10892824
0.32213165
0.58611356
0.63396255
0.44076949
0.38372437
0.53112796
0.42714999
0.98629555
1.01845
0.87574076
0.9348677
0.905055
0.59447361
0.82757216
0.9651898
0.84021754
0.88461646
0.92419896
0.8798704
0.93590191
0.82880227
0.71373182
0.74760027
0.52543557
0.61092787
0.55970978
0.50413295
0.66022697
0.61479945
0.66187773
0.63482994
0.70005477
0.79119284
0.77422093
0.77836972
0.82103767
0.68209997
0.60641689
0.62813265
0.70273803
0.57466308
0.59877166
0.64143477
0.46442335
0.47764074
0.35414365
0.26596655
0.32457235
0.17414812
0.14731466
0.19560167
0.50236743
-0.11180389
-0.11398442
-0.48038224
0.94078254
1.4989677
1.1239313
1.0956994
1.2620023
1.2353551
1.2263581
1.2723462
1.2734678
1.1037194
1.1482447
1.1386054
1.1049248
1.1498083
1.2215019
1.2039776
0.99850078
0.66429261
0.63814651
0.56117149
0.25398394
0.3599525
0.77514652
0.61173541
0.44159069
0.41395014
0.73733869
0.46773123
0.60590054
0.75751858
0.56987605
0.46117357
0.9284751
1.0503727
1.041449
0.99184724
0.83596163
0.89380529
0.97542152
1.0452166
1.079167
1.1529669
0.54177749
0.56206364
0.55435382
0.53262512
0.5596845
0.57650562
0.57724254
0.56896377
0.57432342
0.58200024
0.59281551
-0.051399571
-0.041202213
-0.063109032
-0.066972314
-0.027892873
-0.05479113
0.022966222
-0.0013728081
-0.0103989
-0.0068417827
-0.044585157
-0.060080804
-0.04079572
-0.022422382
0.15074929
0.18733741
0.13167561
0.11699983
0.33053355
0.4683818
0.52543046
0.44058646
0.25517368
0.28157022
0.35080835
0.034245491
0.054419139
0.067597662
0.08738129
0.090519249
-0.02703953
-0.033106094
-0.027465154
-0.021894406
-0.0080530513
-0.03154636
-0.037681419
-0.02603835
-0.027384124
-0.034499199
-0.043152576
0.53580322
0.54482773
0.58843538
0.54715944
0.54768543
0.59091499
0.57184341
0.5888206
0.59802307
0.62044572
0.59391311
0.62402801
0.62152182
-0.012969312
-0.017364435
-0.034611217
-0.024217472
-0.018846762
-0.018063489
-0.025793546
0.27544869
0.11834515
0.16048015
0.023252911
-0.23824519
-0.12752055
0.65909278
0.80279413
0.80330988
1.0122808
0.79609396
0.75517464
0.90747368
1.0249415
0.43966371
0.67031138
0.48680291
1.1305499
1.0418825
1.211053
0.75809188
0.47070285
0.72156027
0.80496959
0.50751342
0.61717394
0.54950926
0.35609469
0.4223084
0.49074302
0.6690474
0.47812596
0.53346248
0.46248871
0.47837167
0.53646847
0.55417738
0.64944088
0.71003908
0.39094058
0.36469495
0.29391206
1.0027523
1.0230406
1.0528167
1.0528489
1.0723739
0.84418024
0.83562343
0.87657644
0.86199824
0.83505371
-0.30121472
-0.38584442
-0.74830323
-0.21889782
0.40320793
0.99323722
0.87622668
1.3992586
1.1316984
1.2913982
1.2293175
1.1942002
1.1112996
1.1243294
1.1877776
0.57700606
0.78146883
0.76201651
0.7053441
0.49510678
0.39509665
1.0344221
1.0089937
1.0864119
1.1192881
1.0528314
1.1294196
0.56283466
0.58035101
0.5581862
0.57050557
0.54845132
0.5606657
0.07494819
0.020194769
0.13454429
0.11412705
0.029903736
0.0043937739
-0.0055971047
-0.0033061186
-0.020642283
-0.014280256
0.00090969386
0.0072447588
0.31638211
0.26347624
0.043118218
0.16366656
-0.04262871
-0.14300901
-0.2090586
0.0032695207
0.16575763
0.16824266
0.5657546
0.84510735
0.69333779
0.79945176
0.62271512
0.73602949
0.75116194
0.70671183
0.74808987
0.62211865
0.63336687
0.69242086
-0.10494407
0.21944968
1.4475597
1.4020524
1.0129666
0.87321465
0.80810075
1.0909511
1.0180887
0.8511783
0.95776541
1.0719874
1.0533279
0.45463085
0.42055869
0.82539279
0.96240548
0.55363587
0.42967696
0.39658095
0.57985668
0.63671047
)
;

boundaryField
{
    wall-4
    {
        type            zeroGradient;
    }
    velocity-inlet-5
    {
        type            zeroGradient;
    }
    velocity-inlet-6
    {
        type            zeroGradient;
    }
    pressure-outlet-7
    {
        type            fixedValue;
        value           uniform 0;
    }
    wall-8
    {
        type            zeroGradient;
    }
    frontAndBackPlanes
    {
        type            empty;
    }
}


// ************************************************************************* //
