/*--------------------------------*- C++ -*----------------------------------*\
  =========                 |
  \\      /  F ield         | OpenFOAM: The Open Source CFD Toolbox
   \\    /   O peration     | Website:  https://openfoam.org
    \\  /    A nd           | Version:  9
     \\/     M anipulation  |
\*---------------------------------------------------------------------------*/
FoamFile
{
    format      ascii;
    class       surfaceScalarField;
    location    "41";
    object      phi;
}
// * * * * * * * * * * * * * * * * * * * * * * * * * * * * * * * * * * * * * //

dimensions      [0 3 -1 0 0 0 0];

internalField   nonuniform List<scalar> 
1300
(
1.7582594
5.6264299
-5.0503592
1.7582594
-8.5238835
5.6264299
-5.3780196
5.3780196
-0.79465505
0.79465505
3.7316545
3.6530348
-4.0668962
4.0668962
-3.5503164
3.5503164
-0.73696648
0.73696648
-5.2377237
5.2377237
-5.0577012
5.0577012
4.7208394
-4.7208394
-6.9044967
6.9044967
-0.70507187
0.70507187
-4.9306683
4.9306683
1.5005999
-1.5005999
-3.4810652
3.4810652
0.020768744
-0.020768744
-0.56955257
5.1410269
1.1887068
1.1887068
-0.6363449
0.6363449
-4.8640309
4.8640309
6.214104
-6.214104
7.8501463
-7.8501463
-2.7997871
-3.3763742
1.9756078
-12.521517
-6.5482756
-6.5482756
-8.4382631
8.4382631
-2.8118333
2.8145966
1.4714244
-1.4714244
-1.763599
1.763599
-5.3158372
-0.062182451
-5.3158372
5.4247598
-0.046740165
5.4247598
-0.85119018
0.056535112
-0.85119017
4.7157248
-4.7157248
0.69131649
0.10333856
0.69131649
1.2761021
-1.2761021
-3.7401857
7.4718402
3.6445036
-3.0547607
8.1957876
-3.3921903
7.0452251
-6.5459642
6.5459642
-4.2651757
0.19827957
-4.2651757
3.9252224
0.14167381
3.9252224
-7.4292899
7.4292899
-3.6223921
0.072075708
-3.6223921
3.5034039
0.046912479
3.5034039
2.0655642
-2.0655642
-0.77307221
0.036105729
-0.77307222
0.70130786
0.035658617
0.70130786
0.35898221
5.2674477
-5.9854119
8.8000085
-5.2674477
0.029723908
5.2000914
0.037632218
5.2000914
-5.0938423
0.036141167
-5.0938423
5.0157581
0.041943102
5.0157581
4.8071087
-0.086269365
4.8071087
-4.8301968
0.10935734
-4.8301968
-4.0279458
-4.4962954
-7.068578
0.16408122
-7.068578
-0.63850389
-0.066567988
-0.6385039
0.8043293
-0.099257445
0.8043293
-4.1222037
4.1222037
-5.2555966
0.32492839
-5.2555967
1.369181
0.13141894
1.369181
2.0091074
2.562367
3.7673667
-3.7673667
2.2667668
-3.464246
-0.016819245
-3.464246
-3.5492393
-4.3009071
3.5492393
-0.068174044
-0.38719882
0.40796757
-0.38719879
1.2463402
-0.057633407
1.2463402
0.66828249
0.033025376
-0.66828249
0.031937591
3.3319621
-3.3319621
0.2427726
0.39357228
0.2427726
-5.5702225
5.5702225
4.9578567
0.057901343
-4.9578567
0.093825927
6.1533409
0.060763014
6.1533409
-6.1926469
-0.021457046
-6.1926469
3.4430155
-6.8193897
-3.4857402
6.7304564
0.17404032
-6.7304564
0.18218076
1.5807697
-0.10934532
1.5807697
-1.052472
1.052472
-1.4325254
-0.038898958
-1.4325254
-2.0875135
0.32391457
-2.0875135
1.5042206
0.25937839
1.5042206
-5.1330826
-0.1827546
-5.1330826
-5.3959265
0.14032986
5.3959265
0.028833254
1.4403708
-1.4403708
-0.87506523
0.023875061
-0.87506522
-4.9039771
-0.22910549
4.9039771
-0.18825226
-4.5870335
-0.12869133
-4.5870335
-1.3449037
-0.087621693
1.3449037
-0.068801598
1.2778526
-0.03151239
-1.2778526
0.0017505013
-3.0497659
5.6121329
-3.397185
7.0416887
-6.1696761
-0.37628811
-6.1696761
6.8787142
-0.33274996
6.8787142
4.6150686
0.31559965
-4.6150686
0.34989286
3.8114264
0.11379597
3.8114265
-7.3974087
-0.031881204
-7.3974087
7.440304
-0.011014134
7.440304
3.7132251
0.09820131
-3.7132252
0.090833091
3.4740149
0.029388976
3.4740149
2.2715352
-0.20597098
2.2715352
-1.8769635
-0.18860073
-1.8769635
0.94084602
-0.94084602
0.88114654
0.059699468
-0.88114653
0.10807431
-11.148738
11.127281
-0.035757894
-11.112981
5.1643334
5.1643334
4.0171014
0.79000728
4.0171013
-5.0293604
0.19916359
-5.0293604
3.5014786
-6.9872188
3.815946
-7.8438919
5.050316
-17.571833
4.7114153
-9.2077107
7.3018349
-7.3018349
7.1925065
0.10932837
-7.1925065
0.12392848
-0.55416574
-0.084338162
-0.55416576
-3.5041428
-0.61806086
-3.5041428
4.7859883
-0.66378457
4.7859883
-1.2755502
1.2755502
-1.3057461
0.030195916
1.3057461
0.063434829
3.4624237
0.011591242
-3.4624237
-0.0018223516
0.56255452
0.12876197
-0.56255451
0.17535572
3.7881975
-0.45623547
3.7881975
-2.8586426
-0.47331942
-2.8586426
-0.41173277
-0.14243299
0.41173279
-0.1689602
-5.8175323
0.24730975
-5.8175323
-11.213441
0.10046002
-11.175808
-6.0921869
-6.0921869
2.3460761
11.146085
-1.7230376
-0.15392597
1.7230376
-0.14226787
1.2147681
0.060782056
-1.2147681
0.16229608
-0.98095583
0.0401098
0.98095584
0.071516201
-2.5059746
0.41846102
-2.5059746
-1.2455442
1.2455442
-1.3256167
0.080072512
1.3256166
0.17860402
1.7424037
-0.30203286
1.7424037
0.85395291
-0.049623609
-0.85395293
-0.021112295
-4.3997763
-0.18725725
-4.3997763
7.1350151
-0.25630094
7.1350151
-2.5457371
-0.31290552
2.5457371
-0.2742019
-0.035160434
11.162442
-5.129173
0.035330703
5.129173
-11.223205
11.258535
-3.0773821
0.5714075
3.0773822
0.93971912
5.2987946
0.2714279
-5.2987947
0.26943428
7.3819639
0.058340067
-7.3819639
0.080129018
-2.9984144
-0.50572842
-2.9984143
-5.5308802
-0.63879583
5.5308802
-0.74489191
-11.475118
-0.19731043
11.672428
-11.433175
6.0148427
0.13849819
-6.0148427
11.397034
-1.273758
-0.16661281
1.273758
-0.02821389
2.0847103
-0.34230663
2.0847103
4.1686929
-0.38049537
-4.1686929
-0.23108338
-7.2892252
-0.10818344
7.2892252
-0.15421008
-2.5191757
-0.47923867
2.5191756
-0.43446529
-5.3400282
5.2823948
2.8557595
-3.332087
-3.4873027
-7.6329941
2.5379973
3.0741356
4.8047642
-11.01802
-6.5538135
-10.835839
7.2652771
-6.9958428
-9.4354259
9.3491566
10.688694
-10.817386
-7.2711238
7.3345587
8.7452417
-8.8140433
3.7995042
3.672336
10.686997
-10.488717
-16.877573
16.501285
10.275999
-10.203923
17.05167
-17.083551
-19.273369
19.331709
-7.2036109
7.2397167
-9.4972015
9.3086008
-9.8821158
9.6079139
-3.6578864
-4.1860055
14.2158
-14.051719
11.75138
-11.768199
-11.430866
11.755795
4.0484401
1.2339547
4.0169277
-3.6096527
7.4091569
-3.4355724
6.2913318
3.5794111
-7.2372975
3.4078077
-6.8951104
6.0276404
5.7237398
-5.9594663
-1.6735277
-8.2374301
8.1280848
-7.364544
7.4360602
12.151347
-12.213529
-3.6130736
7.2854096
-3.4286151
6.5027507
-3.675362
-3.5957619
3.543943
1.2608211
8.7698807
5.4459191
-8.943921
-1.8919182
-11.290437
10.909942
-11.84512
11.371801
-0.43925279
5.7863033
-5.3470505
4.4247781
-1.4867705
7.2730739
5.7785066
5.9776702
5.8660541
-5.5946262
1.1297887
-6.4768391
-6.3830132
-2.5881519
2.612027
2.5553055
-2.451967
8.1512118
2.5374825
7.9629595
-7.7322028
-3.0851828
-7.9194601
4.3699716
2.9645871
4.4001675
5.265698
3.4795437
5.1780763
5.8432419
-5.9717364
0.12849459
-5.4814831
11.324725
1.3136732
-9.077245
-7.8164239
6.8317418
3.8552552
6.9734156
-7.3186456
-3.1700718
-6.9687527
-10.274854
-6.6027187
-10.91365
11.000843
5.500442
10.668093
-12.925954
12.771744
6.6929156
3.5830833
6.739828
-6.7948193
-3.4091038
-6.7039862
13.31691
-3.1518259
-10.165084
-11.152241
-8.1211276
11.163256
5.8884143
11.866225
7.4654842
11.946354
4.8618577
8.4550526
-10.750272
2.6291444
-4.4424173
-2.7611936
-4.334343
4.3567737
2.8829429
4.3924323
-5.5611909
-3.9360107
-5.7151168
-5.6270565
-4.2550593
5.8330275
3.4755733
-5.8871007
-5.9580198
6.2000063
3.4079076
4.3813716
-10.935185
4.8263391
-9.0123446
-9.956998
-4.0947206
-9.8330696
4.5425937
3.1252552
-7.6678489
-2.6947038
11.263342
-5.5396022
9.5898142
-7.2424975
-4.525702
-7.2443198
-8.9803239
-2.4505423
-8.839994
-9.5489006
9.0431722
-9.9440566
9.280272
14.051155
-6.9482522
-7.1029031
-4.8863386
-3.9277047
4.8845881
-0.86766034
-7.1998021
7.3282967
0.20935482
6.5006867
7.7346414
6.866981
-4.4436552
-2.9208889
-4.2813591
4.437625
2.9984353
4.4777348
9.070543
3.0808039
9.0238028
-8.6678495
-3.54568
-8.8506041
9.4764027
-9.1524882
2.7256764
-2.8681094
7.4822159
3.8895852
-7.0259804
-4.2644566
9.4741361
-4.4557724
-5.0183637
-12.071705
10.583745
1.4879601
-4.7986314
-0.37385328
-0.39462202
-5.5533583
-3.8820676
5.444001
0.53366919
11.117414
7.2353468
-5.515468
5.7627777
6.1569603
6.2148617
-0.16815156
6.0231185
-5.4517109
7.0132842
-3.6141445
-3.3991397
7.1241259
-7.3532315
-1.7264782
-7.8652349
6.1387568
0.60972801
1.9213428
-1.5133752
-1.8366791
-0.75147278
-1.8577914
1.5136532
1.0416523
1.6424151
0.94124895
1.670778
-3.5148315
0.72465383
2.7901777
-2.5735826
-1.7273131
-5.2027784
-2.0070878
7.2098661
7.892252
3.0176896
-7.6611686
-0.25829152
2.5319528
-2.6312102
-0.75039293
-4.4523854
2.9931825
-3.7435755
-5.9564137
-2.5105519
8.4669656
-3.6721934
-0.60916573
3.6114113
0.78875621
-4.8207601
-3.41667
4.8596591
0.31841719
-5.4397569
11.059666
-5.6199089
-8.3606458
4.4744126
6.8503124
7.4389996
-9.1692314
4.8117304
4.357501
-2.3189189
5.8657587
1.1076569
5.9795547
-9.2337683
6.0636966
7.7333548
4.0224398
-8.0489545
1.0802018
-8.1535665
10.820948
-9.4440184
-1.3769295
5.3936096
5.4273384
7.6468536
6.4043017
-6.0404088
13.687262
-1.4508474
-7.993171
9.6044138
-5.581974
6.4022044
-11.984178
-12.806506
4.8133352
-9.9538265
12.004767
-2.0509409
-3.8632759
-9.0626783
13.817102
-1.3491134
-12.467989
9.3189792
-5.5941167
-5.6101656
11.204282
-8.7459426
9.0192693
-2.6285644
-6.3907049
-10.893181
-6.1903702
11.001364
1.7703797
-11.83451
14.463655
-3.3794576
5.7945691
0.94525892
5.8239581
4.2321473
-6.8124547
2.5803074
4.5137953
-7.1423596
2.699294
-9.5117486
-7.195973
13.268274
-6.0723008
-11.290694
-10.232919
-1.0577744
2.7801647
11.68349
-10.245649
8.0103066
2.2353423
3.659825
0.81790975
-3.7195244
-0.61481859
0.48996886
6.8177496
-7.3077184
4.8824011
4.9154265
5.0419368
1.7758128
5.1666314
2.9614534
-5.0243636
-0.69075329
-6.6122705
2.3572112
-3.1366972
-6.5857805
8.9429917
-7.2302194
0.64443893
-4.4402749
-6.1647079
10.604983
-7.2014686
5.2229131
5.8367527
8.2213484
-8.8044732
2.6397652
-4.3768822
-4.427591
4.5904542
-7.7271514
3.4476601
5.4953315
6.8555678
0.89754797
6.5238908
6.744383
-9.6491459
0.63680128
12.190302
-10.298384
2.6595113
9.2868426
-10.669818
0.43689865
-9.3961709
1.2578314
-6.7974335
-6.4100175
6.9651833
-9.4157256
-5.0189952
8.1888435
0.83495935
-8.2176767
-0.62231737
-6.5204455
-3.028455
-6.9996842
-3.3037808
-6.6402757
-9.3441896
-1.7848357
-7.5593539
7.2583365
-7.2418102
-3.6718395
7.9867021
1.2935699
-7.9799606
7.8133477
-8.0440609
7.7017543
0.28999119
7.0383055
7.1569722
3.2292675
-4.7193866
7.9486541
-7.0836863
10.16449
-12.207359
5.123673
6.0378024
-9.5834824
-6.1695568
5.4349903
4.0414124
5.6943687
9.3148583
-10.670129
1.3552709
-10.927321
12.555548
-1.6282264
-16.952925
6.0256036
-7.6380664
2.5479234
0.17775302
2.4635852
0.79291471
2.8900311
-3.6829458
-2.0751947
-2.2441549
-3.7704307
-5.672689
9.4431197
1.8307609
-5.3136848
3.4829239
-4.7455594
6.5763203
0.056431222
-5.370116
7.1510347
-4.2610036
7.3287876
-4.6891282
2.6396594
5.2131324
9.1405467
-3.9274143
6.8791588
-2.9895736
3.0579868
-6.9854011
-2.6147022
-4.9044407
7.7873836
-5.7005422
6.3449811
-0.47966516
6.8246462
-5.8407339
1.3849615
-0.79879712
4.1166294
4.148567
7.0389385
-5.2631257
4.9648264
-7.9544
-2.0205747
-7.0568521
-1.5615206
-0.38716596
-5.1426588
5.5298248
6.6669191
-7.054085
-5.2925214
9.6549936
-4.3624722
8.0034301
-5.4898749
-2.5135552
-4.5145406
-4.6379476
4.0960795
1.927039
9.930469
0.27336307
-5.763238
-5.1783478
-4.2386286
4.2373958
2.7758885
-2.1033153
3.5912754
2.4979373
-0.57659454
0.58637846
1.0560366
2.1564061
-1.5700276
0.28198294
1.8744232
-1.2313923
1.8573571
0.67459571
-1.8077335
-0.050057961
-1.4784069
4.4715894
1.3117708
-2.3534231
0.78339546
1.4040455
-5.01819
7.3618212
-3.9604546
-3.4013666
8.7658668
1.5419167
-5.5023714
6.3233182
-5.7135902
3.359129
-5.3662168
-2.1432423
-7.8568326
-5.3193501
-4.2285565
7.7114803
-5.2145632
8.2322528
1.7550666
-7.9739612
9.7290278
-4.8497689
2.339217
-4.1320178
4.8066135
-1.7265514
-2.4054664
4.3189541
4.1480115
-4.3460958
-0.10628965
-0.027141744
3.1301932
-3.157335
-0.61338223
-3.1869648
-7.6387922
7.9572094
-3.7894056
8.601136
4.1592485
-3.6154453
12.216581
3.1736551
-6.7891004
-5.1869907
-5.7961564
-2.4315994
5.0074002
-0.83719701
-5.8667892
-7.2279019
5.7685878
0.21096688
-9.1953209
10.352344
-1.1570227
-5.3400657
-0.72363088
6.1172405
-7.8255621
0.6832025
-5.1262681
5.2260756
6.3337326
6.5446994
-12.268817
-0.19917193
-6.7683749
1.3743051
-8.14268
6.8016435
-3.8233508
8.636686
-11.157482
7.4856422
-9.8639117
7.2597565
-0.88292349
7.1774053
-4.5970979
2.987679
-9.1780492
-7.4076694
7.2368664
-3.6537831
8.1821254
-4.1710415
12.353167
-7.5504991
7.0471823
5.3059846
-1.3814267
-5.8628931
-7.0198385
5.6384118
0.02734377
5.8513019
7.9966236
-5.0351702
7.3058703
4.3572918
-8.734174
-3.3698596
-11.938794
3.2046201
-6.1020414
-3.2390707
6.4436908
4.9822776
5.8001874
2.0160998
-5.1853688
8.3845372
-9.4423116
-2.3122364
-4.0977812
6.9569471
-1.3185353
4.3661885
-8.4639697
-2.4312451
5.8225837
-0.62529826
-5.1972854
1.1256685
-6.1446636
2.4016677
-8.5463313
7.0140579
-7.6363753
2.340992
-9.9790584
-5.6389686
-5.6671825
-2.4191131
-5.6249477
-7.9119708
5.4928577
-1.8863671
5.9269806
-8.8400409
8.2147427
-3.7155065
9.2083642
-5.8637784
-1.1359058
6.2982437
1.4035106
10.611875
0.53340057
-6.7029574
-2.8555795
5.4035678
-2.5479883
1.3818163
-4.6092583
0.79430944
3.5361385
5.2297283
-9.6748952
0.091412781
-6.6115446
-4.1424983
8.1839107
5.5124953
12.179414
1.5092852
9.3148197
-1.130909
10.824105
4.5634596
4.7420635
-4.1836826
5.5389535
1.3461423
6.4698152
-0.84288406
3.4825435
1.6207011
1.5541331
1.0770771
2.6124504
1.5361166
3.9974119
0.31446609
-1.9296889
4.663882
-8.9025106
-1.099356
-8.1125032
1.2366534
5.8291223
-4.592469
4.0159812
-1.2400927
1.4679928
-0.20135489
-1.7426283
1.9439831
-3.6004948
-2.3192227
-0.44479959
-2.070333
2.8537285
2.4012564
-2.4089289
-1.1915659
0.69004866
-6.0093987
4.6761682
-4.7824579
-0.63444631
9.0945815
-3.6498888
0.49255384
-1.3106719
-2.6944109
-3.4458837
3.4959417
11.579641
0.63693992
5.9597324
8.5941493
5.1774793
0.14230901
4.9423686
-6.9933095
-4.5693799
-7.1924814
-0.39083791
5.7264026
2.2310657
9.4524242
7.5370502
6.2185149
-2.2454548
-11.687766
8.448072
-2.9091185
6.8198456
-1.6225602
-6.923771
6.8294756
3.3350147
-7.664435
0.028059702
-6.8957114
-9.8048299
-0.47073406
8.6854768
-10.141141
9.0052351
5.9767801
1.5825737
-4.7964226
-0.87075991
4.7163502
0.025713347
10.849818
-1.198152
-6.9380439
8.1361958
-4.6309704
3.5316143
0.91345641
2.677819
2.8574398
1.6173471
-5.3206967
-9.9131657
-3.0556607
-1.9625293
-6.4570273
0.75283887
-3.1540953
6.2197116
-2.6880973
3.7061565
5.4480985
6.9160913
-1.9852855
-5.0687995
6.3477576
-2.6416012
4.2744901
)
;

boundaryField
{
    wall-4
    {
        type            calculated;
        value           uniform 0;
    }
    velocity-inlet-5
    {
        type            calculated;
        value           nonuniform List<scalar> 8(-1.7582594 -1.7582594 -7.3846893 -4.5714743 -7.3846893 -6.446951 -4.5714743 -6.446951);
    }
    velocity-inlet-6
    {
        type            calculated;
        value           uniform -5.6264299;
    }
    pressure-outlet-7
    {
        type            calculated;
        value           nonuniform List<scalar> 8(5.0503592 8.5238835 6.1761613 10.54591 8.5242412 6.9287557 7.3174246 9.7617313);
    }
    wall-8
    {
        type            calculated;
        value           uniform 0;
    }
    frontAndBackPlanes
    {
        type            empty;
        value           nonuniform List<scalar> 0();
    }
}


// ************************************************************************* //
