/*--------------------------------*- C++ -*----------------------------------*\
  =========                 |
  \\      /  F ield         | OpenFOAM: The Open Source CFD Toolbox
   \\    /   O peration     | Website:  https://openfoam.org
    \\  /    A nd           | Version:  9
     \\/     M anipulation  |
\*---------------------------------------------------------------------------*/
FoamFile
{
    format      ascii;
    class       volVectorField;
    location    "41";
    object      U;
}
// * * * * * * * * * * * * * * * * * * * * * * * * * * * * * * * * * * * * * //

dimensions      [0 1 -1 0 0 0 0];

internalField   nonuniform List<vector> 
918
(
(0.40881872 -0.00020970734 0)
(0.0090456982 2.9576278 0)
(-0.005601335 1.3361656 0)
(0.29036695 -0.008412656 0)
(-0.012121493 2.2663346 3.9499361e-20)
(-0.011743957 2.9485787 -3.3623857e-18)
(0.91583202 1.4333668 7.8258981e-19)
(0.23342216 0.14330954 -2.6989287e-20)
(1.9883316 0.003987834 0)
(0.016590934 1.1469216 0)
(0.005115767 0.96678096 0)
(0.13573593 -0.0028400764 0)
(0.0128355 2.9163573 0)
(0.013670718 2.7912206 0)
(0.098078587 3.1617692 3.2070576e-19)
(-0.0090271054 2.1247969 1.3375634e-20)
(0.14483557 0.028731024 1.6741866e-18)
(0.19295214 1.5358305 5.9014567e-19)
(0.37456644 0.0065387543 0)
(-0.0088174082 0.93196485 0)
(-0.04710856 0.13450817 -1.3193776e-18)
(1.0479098 -0.021657438 0)
(0.54394549 -0.027623218 0)
(0.24775614 -0.0065991346 0)
(0.1693799 0.013605651 0)
(0.021282406 2.6229684 0)
(-0.0099867368 2.9058123 1.2365542e-18)
(-0.018655049 1.3935232 0)
(-0.033455795 1.6485671 0)
(-0.014461972 1.3671524 0)
(-0.0079922028 2.8144114 0)
(-0.0034598287 2.3215116 -3.1053167e-20)
(-0.0056088353 2.1061272 0)
(-0.018162214 2.9813192 -1.2515328e-22)
(-0.018376466 3.0070218 2.6105163e-18)
(0.00085856815 3.0015931 0)
(0.29337444 -0.002993031 0)
(0.43189397 0.90557241 3.460851e-19)
(1.0314246 1.4651201 -9.6607692e-19)
(1.055932 1.2922987 9.8303149e-19)
(0.86635675 1.5993611 -1.8002175e-19)
(0.74896759 1.5461379 1.0257588e-18)
(0.31897455 0.17876337 2.630582e-20)
(0.24054266 0.11247853 0)
(1.2765766 0.74201167 0)
(0.28360493 0.18576487 1.2069661e-19)
(0.21494005 0.14831189 -1.2548446e-19)
(0.2513588 -0.013614345 0)
(1.9896464 0.0010215779 0)
(1.9887324 -0.0018112017 0)
(1.3548486 0.0021196821 0)
(1.8676226 0.0058968552 0)
(1.7381144 0.0033953365 0)
(0.025699277 2.0223219 -8.4286798e-19)
(0.032528155 1.3755948 0)
(0.036482926 1.2199774 0)
(0.01873317 1.3458174 0)
(0.013227377 1.0861537 0)
(-0.0015912191 2.2192746 0)
(0.015162946 1.2220781 0)
(0.013830172 0.99525226 0)
(0.0052395969 1.2209787 0)
(0.0019455943 0.93850112 0)
(0.486209 0.0238084 0)
(0.32187505 0.0030106391 0)
(0.14443307 0.016498901 0)
(0.31180482 -0.00073119771 0)
(0.13247786 0.0038616859 0)
(0.016738591 3.0145162 1.2870024e-18)
(0.012390079 3.0113866 0)
(0.0077271205 3.0035747 0)
(0.013323961 3.0004913 1.3709291e-23)
(0.010556204 2.9476303 -1.8380692e-18)
(0.01683846 2.9848952 0)
(0.013432404 2.893853 0)
(0.017554978 2.9241399 2.9510368e-24)
(0.013826936 2.8183009 0)
(0.01733004 2.9108519 0)
(0.010928827 2.7550002 0)
(0.24638823 3.6130919 0)
(0.17537088 3.5486301 0)
(0.13061644 3.2955181 -2.9984151e-19)
(0.047572769 2.9908684 0)
(-0.017569862 2.273765 0)
(-0.01368614 2.3439715 -1.3183371e-20)
(-0.0089345673 2.1456087 -4.9616061e-21)
(0.30554036 0.06271402 -5.7390343e-19)
(0.1234626 0.010837644 -5.4450979e-19)
(0.33547989 0.069014539 -1.7573061e-18)
(0.18286179 0.041801333 -1.1759222e-18)
(0.1785881 1.1537044 0)
(0.30157961 1.6795374 -6.4376207e-19)
(0.37842159 1.6208331 1.0714106e-18)
(0.54048424 0.040223242 0)
(0.32387216 0.029588462 0)
(1.2189819 -0.0013345476 0)
(0.73693149 -0.035199983 0)
(0.64642734 0.017206121 -3.0230896e-18)
(0.64935095 -0.025849022 2.36854e-18)
(-0.0034237234 1.1951101 0)
(0.0020442645 0.94035528 0)
(-0.041292221 1.4244966 0)
(-0.019867405 1.2350045 0)
(-0.01406674 0.93189399 0)
(-0.024206368 0.21402477 4.0268763e-19)
(0.12685345 0.11637816 0)
(0.50663126 0.020394588 0)
(0.24637381 0.014242529 0)
(0.28358915 0.0014289172 0)
(0.24461236 -0.011508096 0)
(0.14866344 0.011616937 0)
(0.91055803 0.053735405 0)
(0.18266222 0.03207697 0)
(0.0072643892 -0.018401324 2.1483517e-18)
(0.0012793274 2.858469 1.0836069e-18)
(0.020549172 2.9007065 0)
(0.033469963 2.8781006 0)
(0.015081965 2.7057169 0)
(-0.010507557 2.9856845 1.194637e-18)
(-0.0091587585 2.8905478 0)
(-0.011790626 2.9907356 -3.6697809e-18)
(-0.0096016798 2.9158291 1.2555273e-18)
(-0.017581421 1.8391211 0)
(-0.0047030832 1.8485409 0)
(-0.0069860296 2.3312801 1.0434391e-22)
(-0.0067630677 2.3008724 0)
(-0.008130276 2.1052849 0)
(0.6311943 0.019872882 0)
(0.31679472 0.012430363 0)
(0.22851945 0.028842298 0)
(0.60348323 0.0023906816 0)
(0.2885453 0.015212306 0)
(0.51745083 1.0837382 -4.2443346e-19)
(0.54939331 1.1187029 0)
(0.41341859 0.8957269 5.5183483e-20)
(0.31946361 0.67942642 0)
(1.1562876 1.3061169 -2.8199807e-19)
(1.1419168 1.1062801 5.5066506e-19)
(0.49366508 1.7208998 0)
(0.68760245 1.6917407 0)
(0.57012474 1.6136059 0)
(0.15458281 0.2692416 -4.4304326e-19)
(0.33904029 0.14890962 0)
(0.22842572 0.098123005 3.3867353e-19)
(1.25616 1.1236341 0)
(1.3348967 0.9295594 0)
(1.2139338 0.92161645 -4.5183129e-19)
(1.3976349 0.73563724 0)
(1.3216084 0.57081672 6.1030663e-20)
(0.58025731 0.022429468 0)
(0.54412191 0.012745156 0)
(0.26441127 0.010406556 0)
(0.52606347 0.0083786412 0)
(0.53512896 -0.01353996 0)
(0.2569408 0.0075409866 0)
(1.4984972 -0.0014589607 0)
(1.8698388 -0.0013753713 0)
(1.7318211 0.00067035245 0)
(0.040059145 2.2497372 4.5764135e-19)
(0.050061867 1.9476409 0)
(0.032014519 2.338118 7.3580234e-19)
(0.019433554 2.0824356 -6.1360211e-19)
(0.13599116 1.5552981 -4.8600187e-19)
(0.058291448 1.4383479 0)
(0.078290182 1.3648841 0)
(0.017383826 1.3134479 0)
(0.012451321 1.0487922 0)
(-0.0042409911 2.4069785 -9.4202389e-22)
(0.0020526365 2.2162499 0)
(0.0021718079 2.4098539 -4.8658655e-20)
(-0.00085803738 2.22028 8.128818e-20)
(0.017435661 1.2832305 0)
(0.018126358 1.2512064 0)
(0.013787774 1.0185837 0)
(0.0027388262 1.2131998 0)
(0.00082331199 0.93044038 0)
(0.81851843 0.04531167 0)
(0.54798295 0.024992636 0)
(0.75792398 0.038687973 0)
(0.41786122 0.012389949 0)
(0.18625719 -0.0030915049 0)
(0.38142032 0.012560654 0)
(0.35146445 0.032519174 0)
(0.17458534 0.0028819136 0)
(0.0036769108 3.0720272 -1.1027447e-20)
(0.01077614 3.0616147 0)
(0.016161593 2.9688182 0)
(0.013248613 2.8677459 0)
(0.72317097 4.1910485 0)
(1.218328 3.2611809 8.5931172e-19)
(0.06914027 3.1242188 0)
(0.028421089 2.8991841 0)
(-0.010657308 1.8468547 0)
(-0.016303838 2.0815655 0)
(-0.014565347 1.9465156 0)
(-0.01998166 2.7552074 -1.0386908e-20)
(-0.013334851 2.4589468 0)
(-0.017130954 2.6056663 0)
(-0.0025300506 2.1664111 3.0983116e-21)
(-0.0063492796 2.3909497 1.3723751e-20)
(-0.0078252232 2.370323 5.0290226e-21)
(-0.005802233 2.1512259 0)
(0.29888767 0.028153825 8.2794417e-19)
(0.09150806 -0.0073758325 -8.2153926e-19)
(0.30474364 1.7013552 0)
(0.20591897 0.93326338 -3.7758889e-19)
(0.22558267 1.842439 -1.1742767e-18)
(0.137411 1.3951052 1.1782257e-18)
(0.29150669 -0.00095368152 0)
(0.50106111 0.0016670767 0)
(0.50535862 0.019210065 0)
(0.30079512 0.0072479692 0)
(0.0010509137 1.2048413 0)
(0.00072956874 1.1954803 0)
(0.0019511416 0.93203935 0)
(0.24267186 0.18774698 1.1191883e-18)
(0.1776296 0.1828763 -1.3262046e-18)
(0.17883734 0.14869438 0)
(1.2240427 0.13946516 2.6995126e-20)
(1.1151574 0.11615322 0)
(1.0761847 0.094550101 0)
(0.74274423 0.035540421 0)
(0.27406317 -0.0094216545 0)
(0.22355403 -0.034103039 -3.4736499e-18)
(0.037627581 -0.013169257 1.3365604e-18)
(0.0022371022 2.9840513 1.0821942e-18)
(-0.0037431607 2.8640485 4.514782e-20)
(0.0038338173 3.0539784 -2.3075872e-20)
(0.012749908 3.0472298 8.3081702e-19)
(-0.00940123 2.9952542 4.0795638e-20)
(-0.0083919727 2.9361632 -1.637638e-22)
(-0.01316195 3.0201639 -7.6864092e-19)
(0.0012128024 3.0231341 5.5401528e-19)
(0.0066729529 3.0398422 -8.3141479e-19)
(0.72167093 0.030499785 0)
(0.68176216 0.032055993 0)
(0.35755453 0.016759229 0)
(0.48141143 0.014326486 0)
(0.44653339 0.044956804 0)
(0.28217237 0.0067439538 0)
(0.399582 0.00023872081 0)
(0.40513141 0.016775642 0)
(0.20115989 0.0039928619 0)
(0.70059456 1.3644889 -1.541949e-19)
(0.7668968 1.4444288 0)
(0.16728381 0.35605556 1.0820264e-19)
(0.34164187 0.77570292 8.2528115e-19)
(0.36066573 0.80208556 -4.839177e-19)
(0.22934113 0.48347145 9.4363433e-19)
(0.42086768 0.97482576 2.2534268e-18)
(0.16993945 0.35044191 4.9624605e-19)
(0.34573173 0.10185165 1.2434852e-18)
(0.34765131 0.13337446 3.3078446e-19)
(0.21128753 0.066145185 6.2851916e-19)
(1.4297251 0.55469792 2.064784e-19)
(1.3094575 0.39619913 1.7209805e-19)
(0.022287543 2.3926946 2.7564518e-19)
(0.010161393 2.1532877 0)
(0.97036545 0.065223118 0)
(0.886026 0.054709573 0)
(0.64277337 0.031340143 0)
(0.0099887021 3.0770161 0)
(0.016941991 2.9388031 1.6207975e-18)
(0.01652794 2.9537341 0)
(0.013494169 2.8434187 -1.6179256e-18)
(0.0094192943 3.0917883 3.711251e-19)
(0.0036668516 3.0888018 0)
(0.855983 1.7301891 -8.3781084e-20)
(1.1178178 2.3348263 2.10579e-20)
(0.83482938 1.8454639 -7.6789275e-19)
(0.013597138 2.9958305 -9.938088e-19)
(0.034111737 3.0332846 0)
(0.011703503 2.8698332 0)
(-0.0087659261 2.3927657 -2.3349022e-20)
(-0.0035438937 2.3995042 -2.5726917e-20)
(-0.001183201 2.2021438 -5.9573917e-22)
(0.34346435 1.5391259 1.1934315e-18)
(0.21087524 0.752144 -8.1917975e-19)
(0.088040006 2.1612194 8.210432e-19)
(0.16668152 2.0224694 -1.0091483e-18)
(0.082522095 1.6834108 1.240711e-19)
(0.013565705 3.1145193 -2.4561133e-18)
(0.016356879 3.1195876 2.7804151e-18)
(-0.0088037688 2.980106 1.1425633e-18)
(-0.0056526595 2.9768895 -1.1225535e-18)
(-0.0077242724 2.8756857 -1.1639445e-18)
(0.0044286507 3.1055135 -2.8866095e-18)
(0.0092954179 3.1049579 2.8662994e-18)
(0.38189106 0.84620745 0)
(0.33955261 0.7868215 -1.8375015e-18)
(0.13926507 0.29159166 8.1584789e-19)
(0.41433612 1.0936043 1.421869e-18)
(0.19265313 0.44025424 -2.2095784e-18)
(1.3602955 0.22583089 4.6373821e-20)
(1.4222222 0.38080864 0)
(1.2605593 0.23768654 3.0224863e-20)
(0.0071623848 2.4159595 -1.87206e-21)
(0.0071976072 2.404384 0)
(0.0042030895 2.1898454 0)
(0.3919271 1.4041982 -4.3076262e-19)
(0.4221169 1.2610482 -9.672461e-19)
(0.20091645 0.57636969 1.7457889e-18)
(1.1919744 0.0072694483 0)
(1.3372525 0.0030635168 4.8044365e-19)
(-0.023190085 1.8072714 0)
(-0.037525387 1.8333829 0)
(1.512489 0.0002973008 4.5484811e-21)
(1.0990418 0.015589529 1.0804821e-18)
(-0.017023686 2.7598646 1.3469772e-20)
(-0.016454441 2.8013882 0)
(0.058790493 3.175145 8.0114964e-19)
(0.52507462 3.5338176 0)
(1.5728247 0.90284773 -4.4894506e-20)
(1.2706918 0.013656093 2.3231184e-20)
(1.3742323 0.026802752 0)
(1.9988591 0.010160791 9.8560695e-21)
(0.082871896 1.8436615 0)
(0.11997384 2.7664074 0)
(0.023076002 1.7922785 0)
(0.0011266951 2.8286911 4.4469476e-20)
(-0.019835811 2.773188 2.366741e-20)
(1.2551152 0.024398661 2.1661224e-20)
(1.4679412 0.066373819 0)
(1.5281316 0.10209911 0)
(-0.017008533 2.1011181 0)
(-0.01106788 2.7923007 0)
(-0.0074224587 1.7958781 0)
(0.32654466 1.9644015 -3.0904493e-19)
(1.2995427 0.011438004 0)
(1.0941444 0.0099683847 0)
(1.9713541 0.013215673 6.2920807e-19)
(1.6585606 0.017376915 -7.1866499e-19)
(1.905913 0.011704134 0)
(-0.012539845 1.9215665 0)
(-0.016123384 1.8225273 0)
(-0.01251915 1.8719296 0)
(-0.010606845 1.7887866 0)
(-0.012434057 1.7712744 0)
(-0.017277498 1.7792367 0)
(1.4199769 0.044018822 0)
(1.2839182 0.025135453 2.1162822e-20)
(1.0520915 1.7076578 4.709515e-19)
(1.9565329 0.0037001377 -6.4223306e-19)
(1.7065451 -0.002998374 7.7141366e-19)
(1.8969819 -0.0046954916 0)
(1.3027236 0.0057437944 6.4451812e-19)
(1.1780931 0.0027989701 -8.0499357e-19)
(0.92285229 0.020843792 0)
(-0.015631926 2.8304734 0)
(-0.01862971 2.8055543 -7.2850249e-21)
(-0.015543505 2.8238308 3.3834808e-21)
(1.7014628 0.38335867 6.1399984e-19)
(1.6393165 0.17956253 0)
(0.071810342 3.055896 -1.4697176e-18)
(0.041731786 2.8529935 -1.0239661e-19)
(0.17478742 3.1786447 2.2462621e-18)
(0.16143134 3.241148 -3.5897817e-19)
(0.15858766 3.2822212 0)
(0.030164777 3.1340002 4.1953217e-19)
(0.081104028 3.1732586 1.444616e-18)
(0.0774878 3.1978439 -7.8095763e-19)
(0.047201938 3.1097826 0)
(0.65305836 0.28623034 0)
(0.59520043 0.35909327 0)
(1.5445075 0.97976232 6.9480483e-20)
(1.4797351 1.1137996 -1.0237142e-20)
(1.6449749 0.79597608 0)
(1.6365267 0.72155809 0)
(1.2709726 0.021475546 -1.2902711e-18)
(1.079797 0.016916248 1.654848e-18)
(1.3980939 0.024060836 0)
(1.2346075 0.022738021 0)
(2.0039845 0.018179949 0)
(1.8765486 0.0090972539 0)
(1.9364205 0.012226624 0)
(1.725874 -0.0008161752 0)
(1.66499 0.0019309171 0)
(1.797191 0.001581535 0)
(0.071813962 1.8333465 0)
(0.054087811 1.8203581 0)
(0.11071454 1.8718412 0)
(0.1201429 1.8837626 0)
(0.14127802 2.7942071 0)
(0.18142283 2.8706645 -4.9902228e-19)
(0.09676888 2.8657143 0)
(0.078639387 2.8779568 2.2013269e-19)
(0.025893875 2.892145 -1.9077613e-19)
(0.020634472 1.7991062 0)
(0.018734181 1.7658304 0)
(0.024608223 1.802298 0)
(0.028921015 1.7758036 0)
(-0.00098864675 2.2731366 -6.4944334e-21)
(-0.019459155 2.8215945 -2.4789678e-20)
(-0.0045995087 2.8730505 4.0777974e-20)
(-0.0082669627 2.9037316 0)
(-0.018048973 2.8258632 -6.0064176e-20)
(-0.016315393 2.8218127 -8.6387364e-21)
(0.0014403914 2.2677494 9.7166253e-21)
(-0.016027441 2.589774 3.2734245e-20)
(-0.022372726 2.6280928 -5.1811262e-20)
(1.2970709 0.022784342 1.3764064e-18)
(1.0523578 0.020519319 -1.7208924e-18)
(1.2392739 0.028517189 -1.4726172e-18)
(1.1141346 0.023733966 1.9435835e-18)
(1.500829 0.060742335 0)
(1.3550995 0.053568033 0)
(1.5504632 0.093930599 0)
(1.5114411 0.070944702 0)
(1.3580991 0.065378711 0)
(1.6431467 0.16499328 0)
(1.570561 0.11376162 0)
(1.4432883 0.10204326 0)
(-0.015431675 2.6279549 4.2204741e-22)
(-0.014196628 2.2856633 0)
(-0.014393632 2.455371 0)
(-0.010614206 2.8192983 5.3225709e-22)
(-0.010862144 2.8301732 -1.0748026e-22)
(-0.004728646 2.0030993 -1.8501333e-20)
(-0.012498692 1.9460186 1.8650929e-20)
(-0.016432981 1.8457199 0)
(-0.018726498 1.8523508 0)
(-0.018399013 1.8503565 0)
(-0.005503413 1.7963407 0)
(-0.0021937715 1.7604851 0)
(0.47432639 1.9821669 5.2656264e-19)
(0.49628562 1.9798667 2.6483976e-19)
(0.59202274 2.6439465 -2.7457049e-19)
(0.38182864 2.7761889 7.1764557e-19)
(0.42065284 2.271037 9.6888242e-20)
(1.4092374 0.025713294 0)
(1.3358409 0.024996051 0)
(1.1458867 0.016148542 0)
(1.9819806 0.021294866 0)
(1.9615709 0.015497041 0)
(1.7257012 0.020933162 0)
(1.6342685 0.019573336 0)
(1.648858 0.024362694 0)
(1.329201 0.021245391 1.2451689e-18)
(1.0202989 0.034150953 -1.5820635e-18)
(1.2864227 0.031398406 -1.3150828e-18)
(1.1062362 0.024069638 1.6986475e-18)
(1.0102312 1.7479341 0)
(0.8841132 1.8444657 4.7566943e-19)
(1.169818 1.6255465 2.2509648e-19)
(1.2063939 1.5745309 -2.998912e-19)
(1.2703211 2.6902672 8.9481237e-19)
(0.7828148 0.068920039 8.8365054e-19)
(1.6548115 0.20300022 0)
(1.7075091 0.29954876 -4.748498e-19)
(1.6166352 0.24480489 -1.8887826e-20)
(1.5440374 0.17858686 0)
(0.20730599 2.9261857 1.0105651e-18)
(0.094734159 2.8159699 -2.1306749e-18)
(0.022632958 2.3910267 1.3237198e-18)
(0.078725617 -0.18926215 -6.2460532e-19)
(0.35976939 3.4525898 1.5265791e-20)
(0.23082068 3.3633478 0)
(0.24436502 3.420624 -2.1494976e-20)
(0.25558059 3.081695 -2.4771618e-18)
(0.38741698 3.1699073 0)
(0.013225129 3.1196986 7.5649812e-20)
(0.016305571 3.1323794 -8.0608471e-19)
(0.030457606 3.1184036 1.2529042e-18)
(0.036585482 3.1484161 0)
(0.034068669 3.1556648 0)
(1.3456842 2.7806958 0)
(0.7774651 1.0121689 -9.0297225e-19)
(1.3700761 1.3311321 -6.8182632e-20)
(1.3026297 1.4369478 0)
(1.2167523 1.3773653 -1.6459317e-19)
(1.439685 1.2110354 3.862471e-20)
(0.33892894 0.42067252 -1.5188932e-18)
(0.73224064 0.29708326 -2.2597448e-20)
(0.59726084 0.19970601 7.1770121e-19)
(0.6215531 0.4059664 5.2304999e-20)
(0.50119415 0.35118841 -2.1385992e-18)
(0.69498813 0.32574534 0)
(0.8704026 0.47328998 1.1975405e-18)
(0.86971802 0.43994192 0)
(0.67112262 0.36965759 0)
(0.56083576 0.27438142 0)
(1.2368409 0.85906436 7.0780567e-19)
(1.7118609 0.42008553 -5.5637695e-19)
(1.698279 0.59591552 0)
(1.679738 0.52275485 0)
(0.71893564 0.16025 1.0317811e-18)
(1.2395804 0.72618816 -6.7033073e-19)
(1.0142757 0.63433746 1.2115613e-18)
(1.4620874 0.56416054 -1.2012361e-18)
(1.2476964 0.016580153 8.5204748e-19)
(1.2289868 0.018171783 -8.8520192e-19)
(0.98614101 0.016090366 0)
(1.4497529 0.043205488 0)
(1.3904013 0.032721892 -7.5045175e-19)
(1.2021252 0.022776187 7.4138537e-19)
(1.8306147 0.030920264 0)
(1.7025107 0.01809665 0)
(1.9101436 0.0092264413 0)
(1.6727849 0.015404661 0)
(1.9572861 0.024187101 0)
(1.9415296 0.020787443 0)
(0.047264106 1.8184755 0)
(0.040844696 1.7958661 0)
(0.15046478 1.8412092 2.6419099e-20)
(0.30431021 1.9508097 1.6219273e-19)
(0.17239968 1.9260927 3.6033404e-19)
(0.20144768 1.9405152 -5.8066612e-19)
(0.19086819 1.8740488 0)
(0.17312271 2.0208248 -6.8923231e-20)
(0.14960899 2.0050351 0)
(0.38832543 2.2321953 -1.3421188e-19)
(0.36460128 2.5190361 6.7463296e-19)
(0.23381182 1.96186 6.1785054e-20)
(0.3029671 1.8964584 6.2893934e-20)
(0.24149071 1.8796123 -5.1233797e-20)
(0.35517072 1.8677519 -9.9718435e-20)
(0.28279922 2.0109917 0)
(0.33683265 2.0233823 1.1065475e-19)
(0.034765916 2.4965043 -3.841137e-20)
(0.031642327 2.8851972 0)
(0.062507084 2.6009443 1.6090451e-19)
(0.052770426 2.606494 0)
(0.056766117 2.898879 -2.4485105e-19)
(0.043063633 2.9367299 0)
(0.019280405 1.8651468 1.8265632e-20)
(0.020736709 1.9133232 0)
(0.027565578 1.838302 0)
(0.022276448 1.8301174 -2.0720498e-20)
(0.0034372547 2.8609617 -2.308539e-21)
(0.013094632 2.8961956 2.2020375e-19)
(0.0067467093 2.9304867 1.5427583e-21)
(0.0020030084 2.1652534 6.6622518e-21)
(-0.0022606297 2.0719243 -1.7475944e-22)
(0.016693586 1.7891071 0)
(0.012682339 1.7540308 0)
(0.037269799 1.9972819 1.904285e-20)
(0.026927287 1.8778995 -1.5178043e-20)
(0.029342151 1.9443546 9.0498224e-21)
(0.044072388 2.0157921 0)
(-0.029998834 2.4836982 2.5277793e-20)
(-0.026171086 2.7268524 5.1855481e-21)
(-0.026079488 2.6462547 -3.8279422e-21)
(-5.6888192e-06 2.167639 -7.8833548e-21)
(-0.023207124 2.6749298 -5.8864056e-21)
(-0.024190678 2.6469736 4.7390958e-20)
(1.2383431 0.023561697 -9.1265311e-19)
(1.2466491 0.015958037 9.1652581e-19)
(1.0101794 0.017343245 0)
(1.5147412 0.083074852 1.4654056e-18)
(1.1816934 0.02784714 -1.6167085e-18)
(1.120385 0.021342751 1.8309465e-18)
(1.5392011 0.1154532 -1.9966792e-19)
(1.4398713 0.044118182 0)
(1.4540889 0.051540942 7.5056448e-19)
(1.3250953 0.043198279 -7.444655e-19)
(1.7218761 0.10939532 -4.576751e-20)
(1.6914939 0.0890532 3.9466613e-19)
(1.8193266 0.11511137 0)
(1.8766242 0.1111053 -1.5335936e-19)
(1.7492813 0.05719179 0)
(1.6214336 0.041597814 0)
(1.8597094 0.031265187 0)
(1.6630717 0.029059658 0)
(1.8762794 0.069863937 3.0549927e-19)
(1.8578734 0.051555601 -6.4691868e-19)
(1.8641824 0.095821297 -3.0898493e-19)
(1.8660159 0.090205364 -3.5950419e-19)
(1.8436706 0.13746955 7.0851168e-19)
(1.7119169 0.13350926 0)
(1.7598323 0.1824256 0)
(-0.023438784 2.4805747 4.6459435e-20)
(-0.01507683 2.2966218 -3.241087e-22)
(-0.01600464 2.2902957 0)
(-0.023509077 2.6664123 -4.7739476e-20)
(-0.016841323 2.6281469 -8.9543385e-23)
(-0.020611067 2.6592939 3.2001368e-21)
(-0.017755512 2.8367523 8.848177e-21)
(-0.01500239 2.7528238 -2.3161299e-21)
(-0.018403891 2.7196626 9.2458505e-22)
(-0.010369383 2.8287748 -7.0758031e-21)
(-0.017407104 2.83031 1.0309535e-20)
(-0.0088993449 1.9199292 -2.2819651e-21)
(0.003386458 2.0258594 -1.2485822e-20)
(0.4925961 1.9562804 -2.2708394e-19)
(0.45981279 1.899213 5.6159601e-20)
(0.8459825 1.8870667 -4.614439e-19)
(0.66197418 1.9672791 -2.5563185e-19)
(0.69830676 1.9395876 0)
(0.64213042 2.6045671 2.5344948e-19)
(0.69714426 2.6215003 4.0114416e-19)
(0.44820327 2.7055662 1.1278847e-19)
(0.45879378 2.7071809 -6.9767039e-19)
(0.54592211 2.6365215 6.8338592e-19)
(0.5537702 2.6608888 0)
(0.48490842 2.7207628 -6.3748766e-19)
(0.22801206 2.7930538 1.2756718e-18)
(0.33506762 2.7768888 -5.0702069e-20)
(0.26978903 2.867511 -1.7475631e-18)
(1.0219661 2.5362774 1.0657119e-18)
(0.89083684 2.5573328 0)
(1.9562669 0.028287187 2.4664136e-20)
(1.6627225 0.026467102 -2.109134e-20)
(1.683132 0.026280893 -3.7035731e-19)
(1.8836743 0.033684971 3.7119086e-19)
(1.9912552 0.03499539 0)
(0.94040424 1.7603611 0)
(0.95090372 1.6726934 0)
(1.1304659 1.5684778 0)
(0.98178607 1.5734664 0)
(1.276744 2.7222783 3.1845022e-21)
(1.1909256 2.5569296 0)
(0.93730399 2.2400072 6.6850723e-21)
(0.88159728 2.5199774 0)
(0.99499832 2.5876387 -5.562948e-19)
(1.0234056 2.5747279 3.7997573e-19)
(0.79268512 0.10863731 0)
(0.74806277 0.11097437 2.4647941e-19)
(1.0748022 0.11988134 1.348469e-18)
(0.83287954 0.071160945 -5.3539078e-19)
(0.78122064 0.017004883 -1.5584036e-18)
(1.7386239 0.35024829 -1.1445703e-18)
(1.5778706 0.42161087 -2.9852243e-20)
(1.2794858 0.33318072 1.3817628e-18)
(1.5472884 0.30129731 1.1122081e-18)
(1.3009945 0.17515956 -1.811064e-18)
(1.2409687 0.18949243 2.3055784e-19)
(1.2790459 0.26071896 -5.1310557e-19)
(1.2749796 0.23005679 0)
(1.5403064 0.22021241 8.884143e-19)
(1.6730918 0.26231185 0)
(1.6674975 0.3129869 0)
(1.7322416 0.22262858 3.4839607e-19)
(1.8018685 0.27429849 -2.297666e-20)
(1.7705476 0.34976478 -2.0161873e-19)
(1.7446369 0.31736708 0)
(1.5707679 0.046731555 7.4958396e-19)
(1.8320439 0.094760916 9.0576899e-19)
(1.7812597 0.068002414 -7.1233076e-19)
(1.7780358 0.11325826 -6.1732435e-19)
(1.5612496 0.080826255 -1.0507951e-18)
(1.4127727 0.13954782 0)
(1.4365584 0.12769099 0)
(1.1336567 0.042016721 -6.6368417e-19)
(1.0215167 0.037505163 2.7226285e-19)
(1.6997899 0.14250871 9.1072898e-19)
(1.8213614 0.21252813 -1.0276169e-18)
(1.7916412 0.22613412 9.4350128e-19)
(1.7237573 0.20763685 0)
(1.8144852 0.17767055 0)
(1.8436486 0.15769177 -4.0164153e-19)
(1.8060992 0.14671496 -7.4224046e-19)
(0.7543797 1.4708199 2.7208727e-19)
(0.81835191 1.7933557 -3.0021432e-19)
(1.1770682 2.7472565 -3.411343e-19)
(1.292655 3.1049044 6.7713933e-20)
(1.3380754 2.8013767 -6.9951716e-19)
(1.3884196 2.8666807 1.0710065e-19)
(1.2616541 2.544745 2.4111073e-20)
(1.325952 3.0283209 -2.611285e-19)
(1.3356692 3.0479503 4.8835829e-19)
(1.3085544 3.3119685 -3.9669979e-20)
(1.4230498 3.0798149 4.0945306e-20)
(1.4373406 3.0084528 0)
(0.78138336 1.0925529 -8.329628e-20)
(0.21290248 1.3085515 8.8447575e-19)
(0.66307381 0.5879378 1.0107241e-18)
(0.43965257 0.16919063 1.1261514e-18)
(0.54538355 0.41196342 1.2051007e-18)
(0.65740581 0.53568512 -1.9896794e-18)
(0.64397727 0.53661488 1.6149448e-18)
(0.54151126 0.43949537 -6.1195235e-19)
(0.38823162 0.33156715 1.3906469e-18)
(0.75908328 0.21119859 -5.8448765e-19)
(0.72357657 0.23798236 0)
(0.61227985 0.17823011 1.0349812e-20)
(0.94076878 0.61930099 6.4036474e-19)
(0.87412646 0.54405655 -2.3358184e-18)
(0.71512073 0.53513547 1.524739e-20)
(0.7310851 0.51053186 0)
(0.95793939 1.024535 7.0992261e-19)
(1.2556521 1.114072 6.2179983e-19)
(1.1534534 1.2331731 -7.162191e-19)
(1.3182499 1.1480209 -2.416024e-19)
(1.3692772 1.2128731 -4.9825873e-20)
(1.351714 1.2097592 5.0282366e-20)
(1.3427251 0.92473778 -1.1621028e-18)
(1.3799547 1.0332538 2.2681737e-19)
(1.4679195 1.0388074 0)
(1.4955173 0.98741366 -2.8733062e-19)
(1.6321313 0.45581119 3.3157963e-19)
(1.7365894 0.45208501 3.4957158e-19)
(1.7340401 0.4180623 4.8693337e-19)
(1.6178391 0.54779821 -6.7076583e-19)
(1.6359609 0.61233051 0)
(1.6674712 0.58733981 0)
(1.2581249 0.46290967 2.6053698e-20)
(1.0854433 0.3151792 0)
(1.155986 0.29455348 6.711332e-19)
(1.2620464 0.34357389 -1.6914182e-20)
(1.4587016 0.61199609 3.1148558e-18)
(1.3666791 0.71133198 8.749825e-19)
(1.3331861 0.61410422 -9.9101181e-19)
(1.0988534 0.53987234 1.0807276e-18)
(1.0467918 0.53348705 6.4105629e-19)
(0.97247086 0.46913899 -6.2897372e-19)
(1.682073 0.041176949 6.2482641e-19)
(1.9523026 0.038773563 0)
(1.9191633 0.044841097 4.2512351e-19)
(1.7007719 0.040969353 -9.4971169e-19)
(1.9364559 0.037507059 4.7319682e-19)
(1.8746272 0.02120639 -1.0051621e-18)
(1.6902754 0.021843156 0)
(1.5747254 0.025533397 -2.1037289e-19)
(1.8402877 0.018661444 5.2423678e-19)
(1.6667786 0.020071404 -2.7116781e-19)
(1.6039517 0.025894724 1.9861994e-19)
(0.029539579 1.7998628 0)
(0.030345949 1.8145416 0)
(0.035658327 1.8031291 0)
(0.031938477 1.7822816 0)
(0.063383942 1.8326855 -7.8996408e-20)
(0.077433566 1.8141407 3.3896064e-20)
(0.12639568 1.9379857 -1.4920461e-20)
(0.10269189 1.8237087 -1.2247466e-20)
(0.033069195 1.8862165 1.2293823e-20)
(0.034634217 1.8811084 -9.5853297e-21)
(0.058005911 1.8187931 -1.7960549e-20)
(0.050181085 1.8207726 6.7753967e-20)
(0.041220456 1.8062637 9.1097399e-21)
(0.032574033 1.8169387 2.7855186e-21)
(0.090069798 2.5468515 -1.7296538e-19)
(0.095507343 2.5792296 0)
(0.16262893 2.2983569 1.0735091e-19)
(0.14577746 2.0924481 5.5852886e-20)
(0.27821806 2.2648638 -1.0050784e-19)
(0.23605354 2.6178673 0)
(0.28063961 2.6040443 -6.5913799e-19)
(0.33211548 2.5022401 4.7401272e-19)
(0.23655018 2.2296435 -2.5013973e-19)
(0.18179328 2.3843072 1.7619564e-19)
(0.16952396 2.5087962 0)
(0.013158173 2.2328548 -6.0168789e-20)
(0.013700054 2.6050938 -9.1887941e-20)
(0.0079866885 2.3755413 0)
(0.012507891 2.6643997 -1.5879664e-20)
(0.030062818 2.5025704 4.1679482e-20)
(0.0120031 1.8515385 -5.087028e-21)
(0.010791624 1.8452745 8.5132993e-20)
(0.011829502 1.852996 -3.0171799e-20)
(0.013414525 1.8485635 -2.3171074e-20)
(0.019095502 1.8729943 0)
(0.0063340645 1.8334983 0)
(0.0010820702 1.7863637 -3.902265e-20)
(0.0020952817 1.8290453 1.049636e-20)
(0.0050935519 1.8299211 0)
(0.0089110184 1.7824121 -2.9679995e-20)
(0.0045535933 1.7510783 6.0978779e-20)
(1.664965 0.056666519 0)
(1.6573125 0.059047319 -6.92584e-20)
(1.9439248 0.064082104 -5.388017e-19)
(1.8277867 0.072832399 0)
(1.6794696 0.064035701 0)
(1.910666 0.052539747 2.3691821e-23)
(1.9125355 0.052580321 8.1575616e-19)
(1.7828594 0.036881915 1.04248e-18)
(1.6578168 0.032366539 0)
(1.5799898 0.037178966 0)
(1.7710954 0.049441912 5.3380977e-19)
(1.612145 0.045751247 0)
(1.5777915 0.032624348 0)
(-0.015879764 2.2885946 0)
(0.00058432363 2.0545665 -8.5870081e-21)
(-0.0098338916 2.1730914 -1.2509546e-20)
(0.00023413016 1.8391321 0)
(-0.0073165343 1.9697491 -1.0324338e-20)
(-0.007484475 1.9027645 6.5753818e-21)
(-0.0036053414 1.8424078 0)
(0.51660579 1.9282431 0)
(0.47971411 1.8091279 -1.4220209e-19)
(0.43346593 1.7730575 0)
(0.58026476 1.8453531 2.0641247e-20)
(0.64176439 1.954791 0)
(0.59151301 1.9247963 4.4677996e-20)
(1.109817 2.7807631 -2.204735e-20)
(1.0431069 2.5533364 -1.2264048e-18)
(1.0413124 2.4488656 1.4213907e-18)
(0.92058813 2.5426122 3.4433626e-19)
(0.9089307 2.5895101 0)
(0.97425475 2.5678473 0)
(0.99695986 2.5416366 0)
(0.97659186 2.543792 -1.2480321e-18)
(0.74167403 2.5370109 -5.5766256e-19)
(0.86112653 2.56004 -1.3148113e-19)
(0.86414432 2.5124936 1.0520386e-19)
(0.74718766 2.5813814 0)
(0.84764497 2.5705305 0)
(0.80272193 2.5932099 -4.4044573e-19)
(0.80546191 2.5880069 0)
(0.92285291 1.5149247 0)
(0.72099236 1.2162776 -8.6675462e-19)
(0.82736362 1.2587486 -5.2573753e-20)
(0.77612955 1.3780348 0)
(0.74711071 1.3189853 1.3231094e-18)
(1.170661 1.2803445 -1.9662095e-19)
(1.1448039 1.4200138 0)
(1.1621405 1.3637011 2.8493014e-19)
(0.97957949 1.4591314 0)
(0.99409171 1.3322301 0)
(1.2472242 2.7937234 -3.9193207e-19)
(1.2067346 2.8289581 -2.87134e-19)
(1.0001927 2.334325 5.0183641e-19)
(1.0017518 2.3692798 -1.6648567e-19)
(1.2184403 2.7845133 0)
(1.1764658 2.7400784 2.1120533e-19)
(1.2034353 2.6263411 -3.8198595e-19)
(1.1179929 2.4774342 -2.8786194e-20)
(0.6971085 1.6802039 0)
(0.72090578 1.4971478 -2.395074e-19)
(0.81813303 1.6318955 0)
(1.0819931 0.23165398 0)
(0.76143981 0.13036335 0)
(0.59609016 0.10253144 0)
(1.0628735 0.2380564 -1.0464109e-18)
(0.78680181 0.16580708 6.077273e-19)
(1.0374745 0.035400213 -5.3967396e-19)
(1.1447963 0.098064394 0)
(1.1229057 0.11149784 2.3908827e-19)
(0.87525056 0.031755113 9.6537536e-19)
(0.79302239 0.015122934 -6.10253e-19)
(1.3123222 3.436049 -2.4549631e-19)
(1.2981416 3.3677838 0)
(1.3310397 3.392395 -5.8700369e-19)
(0.52381901 3.4967274 5.512411e-19)
(0.76404009 3.0291551 -4.0693088e-19)
(0.6566977 1.0516049 1.0338553e-18)
(0.61999872 1.0962633 0)
(0.48443724 0.52473213 -2.7390377e-19)
(0.6250921 0.87774811 1.4991153e-18)
(0.66813671 0.49393269 -3.6102651e-19)
(0.61390133 0.62319707 4.2021225e-19)
(0.79916337 0.61547013 8.705221e-19)
(0.8953513 0.66307348 0)
(0.84120549 0.74199911 0)
(0.74013364 0.66928652 0)
(1.5246015 0.86888624 8.4793576e-20)
(1.4106277 0.78451389 -8.3112499e-19)
(1.420168 0.83460047 6.191598e-19)
(1.483679 0.73524054 -6.2728787e-19)
(1.6132402 0.73295775 0)
(1.6193122 0.80154371 -1.4161252e-19)
(1.0961491 0.48062324 -1.4219132e-18)
(1.1314786 0.47639181 -1.6923853e-18)
(1.016442 0.42830788 1.1133877e-18)
(1.0050894 0.39269009 -1.1304552e-18)
(1.0835184 0.35020853 -8.7645399e-19)
(0.97982585 0.33116059 1.0884078e-18)
(1.9184342 0.038544549 -5.0628739e-19)
(1.9488811 0.0412634 1.0237106e-18)
(1.686635 0.041646919 6.3478919e-19)
(1.7034362 0.04825152 -7.5524139e-19)
(1.7975754 0.057312906 0)
(1.947639 0.054798454 -1.3248329e-18)
(0.065884923 2.0646258 2.0361787e-20)
(0.057787879 1.9995978 0)
(0.10005651 2.0602387 2.3554581e-19)
(0.11292815 2.0551872 -2.1405493e-19)
(0.090737921 1.961655 2.6423369e-20)
(0.078055182 1.9511431 0)
(0.0037177698 2.0784286 0)
(0.00041266541 1.919567 3.5149477e-21)
(-0.00025359045 1.8875904 -3.1804352e-21)
(-0.0075978887 1.9698398 5.4288343e-21)
(-0.0071739051 2.2101928 3.5093271e-21)
(-0.0072374813 2.2318279 4.8170797e-21)
(0.69571469 1.7202161 -5.4535798e-19)
(0.65101425 1.753613 5.7582592e-19)
(0.62305011 1.8163972 -2.9796839e-20)
(0.61416933 1.7246998 1.860453e-20)
(0.87446895 1.8036961 0)
(0.73428226 1.8989919 2.1248189e-19)
(0.79418421 1.8905839 -2.0627299e-19)
(0.67481001 1.8511997 2.9585539e-20)
(0.74608591 1.7532917 0)
(0.80962196 1.7253233 0)
(0.72028122 2.5099623 8.1626131e-19)
(0.71530794 2.5820925 1.4840865e-18)
(0.76245548 2.5788092 -1.0666757e-18)
(0.63367323 2.5918832 -2.2189143e-19)
(0.62531805 2.6433287 3.6626031e-19)
(0.57721954 2.6207717 -9.2005433e-19)
(1.0899827 2.5337148 -7.730694e-19)