/*--------------------------------*- C++ -*----------------------------------*\
  =========                 |
  \\      /  F ield         | OpenFOAM: The Open Source CFD Toolbox
   \\    /   O peration     | Website:  https://openfoam.org
    \\  /    A nd           | Version:  9
     \\/     M anipulation  |
\*---------------------------------------------------------------------------*/
FoamFile
{
    format      ascii;
    class       volVectorField;
    location    "6.5";
    object      gradT;
}
// * * * * * * * * * * * * * * * * * * * * * * * * * * * * * * * * * * * * * //

dimensions      [0 -1 0 1 0 0 0];

internalField   nonuniform List<vector> 10((-2.4559861e-07 0 0) (-1.4373794e-06 0 0) (-5.0112512e-06 0 0) (-4.0895503e-05 0 0) (-0 -0 -0) (0.0041895394 0 0) (0.018711395 0 0) (0.057561972 0 0) (1.2346253 0 0) (-0 0 0));

boundaryField
{
    inlet
    {
        type            extrapolatedCalculated;
        value           uniform (-2.4559861e-07 0 0);
    }
    outlet
    {
        type            extrapolatedCalculated;
        value           uniform (-25.018669 0 0);
    }
    bottom
    {
        type            extrapolatedCalculated;
        value           nonuniform List<vector> 10((-2.4559861e-07 0 0) (-1.4373794e-06 0 0) (-5.0112512e-06 0 0) (-4.0895503e-05 0 0) (0 0 -0) (0.0041895394 0 0) (0.018711395 0 0) (0.057561972 0 0) (1.2346253 0 0) (0 0 0));
    }
    top
    {
        type            extrapolatedCalculated;
        value           nonuniform List<vector> 10((-2.4559861e-07 0 0) (-1.4373794e-06 0 0) (-5.0112512e-06 0 0) (-4.0895503e-05 0 0) (0 0 0) (0.0041895394 0 0) (0.018711395 0 0) (0.057561972 0 0) (1.2346253 0 0) (0 0 0));
    }
    frontAndBack
    {
        type            empty;
    }
}


// ************************************************************************* //
