/*--------------------------------*- C++ -*----------------------------------*\
  =========                 |
  \\      /  F ield         | OpenFOAM: The Open Source CFD Toolbox
   \\    /   O peration     | Website:  https://openfoam.org
    \\  /    A nd           | Version:  9
     \\/     M anipulation  |
\*---------------------------------------------------------------------------*/
FoamFile
{
    format      ascii;
    class       volScalarField;
    location    "0.85";
    object      p;
}
// * * * * * * * * * * * * * * * * * * * * * * * * * * * * * * * * * * * * * //

dimensions      [1 -1 -2 0 0 0 0];

internalField   nonuniform List<scalar> 
4096
(
-0.000340328
0
0.000680081
0.00166802
0.00292729
0.00441136
0.00606504
0.00782632
0.00962791
0.0114004
0.0130749
0.0145861
0.0158743
0.0168883
0.0175877
0.0179444
0.0179441
0.0175867
0.0168867
0.0158721
0.0145834
0.0130718
0.0113968
0.00962414
0.00782246
0.00606135
0.00440829
0.00292559
0.00166887
0.00068519
1.16076e-05
-0.000331428
-0.052612
-0.0522557
-0.0515538
-0.0505307
-0.0492253
-0.0476863
-0.0459714
-0.0441449
-0.0422763
-0.040438
-0.0387011
-0.0371338
-0.0357977
-0.0347459
-0.0340205
-0.0336506
-0.0336509
-0.0340215
-0.0347475
-0.0357998
-0.0371365
-0.0387043
-0.0404414
-0.0422801
-0.0441487
-0.045975
-0.0476893
-0.049227
-0.0505303
-0.0515504
-0.0522489
-0.0526047
-0.105245
-0.104862
-0.10411
-0.103012
-0.101612
-0.0999599
-0.0981189
-0.0961581
-0.0941521
-0.0921783
-0.0903133
-0.0886303
-0.0871956
-0.0860662
-0.0852873
-0.08489
-0.0848903
-0.0852882
-0.0860678
-0.0871978
-0.088633
-0.0903164
-0.0921817
-0.0941558
-0.0961619
-0.0981224
-0.0999628
-0.101614
-0.103013
-0.104107
-0.104857
-0.105239
-0.158267
-0.157843
-0.157013
-0.1558
-0.154251
-0.152424
-0.150387
-0.148218
-0.145998
-0.143814
-0.14175
-0.139887
-0.138299
-0.137049
-0.136187
-0.135747
-0.135748
-0.136188
-0.137051
-0.138302
-0.13989
-0.141753
-0.143818
-0.146002
-0.148222
-0.150391
-0.152427
-0.154253
-0.1558
-0.157011
-0.157841
-0.158263
-0.211721
-0.211241
-0.2103
-0.208926
-0.207171
-0.2051
-0.202791
-0.200331
-0.197814
-0.195336
-0.192995
-0.190881
-0.18908
-0.187661
-0.186682
-0.186183
-0.186183
-0.186683
-0.187662
-0.189082
-0.190884
-0.192998
-0.19534
-0.197818
-0.200335
-0.202795
-0.205103
-0.207173
-0.208927
-0.2103
-0.21124
-0.211719
-0.265665
-0.265112
-0.264026
-0.262439
-0.260412
-0.258019
-0.255351
-0.252508
-0.249598
-0.246733
-0.244025
-0.24158
-0.239495
-0.237853
-0.23672
-0.236143
-0.236143
-0.236721
-0.237855
-0.239497
-0.241582
-0.244028
-0.246736
-0.249602
-0.252512
-0.255355
-0.258023
-0.260414
-0.262441
-0.264026
-0.265112
-0.265665
-0.32018
-0.319532
-0.31826
-0.316402
-0.314027
-0.311224
-0.308097
-0.304763
-0.30135
-0.297988
-0.29481
-0.291939
-0.289491
-0.287563
-0.286233
-0.285554
-0.285554
-0.286234
-0.287565
-0.289493
-0.291942
-0.294813
-0.297992
-0.301353
-0.304767
-0.3081
-0.311227
-0.31403
-0.316404
-0.318261
-0.319533
-0.32018
-0.375364
-0.374598
-0.373094
-0.370896
-0.368086
-0.364768
-0.361065
-0.357115
-0.35307
-0.349084
-0.345314
-0.341907
-0.339001
-0.336711
-0.335132
-0.334325
-0.334326
-0.335133
-0.336713
-0.339003
-0.34191
-0.345317
-0.349088
-0.353074
-0.35712
-0.361069
-0.364772
-0.36809
-0.370899
-0.373096
-0.3746
-0.375366
-0.431348
-0.430436
-0.428644
-0.426027
-0.422679
-0.418723
-0.414306
-0.409593
-0.404762
-0.4
-0.395492
-0.391418
-0.38794
-0.3852
-0.383308
-0.382343
-0.382343
-0.383309
-0.385202
-0.387943
-0.391421
-0.395496
-0.400003
-0.404766
-0.409597
-0.414311
-0.418728
-0.422683
-0.42603
-0.428648
-0.430439
-0.43135
-0.48829
-0.4872
-0.485057
-0.481926
-0.477918
-0.47318
-0.467886
-0.462232
-0.456433
-0.450712
-0.445294
-0.440393
-0.436208
-0.432908
-0.43063
-0.429467
-0.429468
-0.430631
-0.43291
-0.436211
-0.440396
-0.445298
-0.450716
-0.456438
-0.462237
-0.467891
-0.473185
-0.477923
-0.48193
-0.485062
-0.487204
-0.488294
-0.546394
-0.545086
-0.542517
-0.538759
-0.533948
-0.528255
-0.521889
-0.515085
-0.508098
-0.5012
-0.49466
-0.488741
-0.483683
-0.479693
-0.476937
-0.47553
-0.47553
-0.476938
-0.479695
-0.483685
-0.488745
-0.494664
-0.501204
-0.508103
-0.51509
-0.521895
-0.528261
-0.533953
-0.538764
-0.542522
-0.545091
-0.546399
-0.605906
-0.604336
-0.601251
-0.596736
-0.59095
-0.584099
-0.576429
-0.56822
-0.559783
-0.551442
-0.543526
-0.536355
-0.530222
-0.525381
-0.522036
-0.520329
-0.520329
-0.522038
-0.525384
-0.530225
-0.536359
-0.543531
-0.551447
-0.559788
-0.568226
-0.576435
-0.584105
-0.590956
-0.596742
-0.601257
-0.604342
-0.605912
-0.667138
-0.665253
-0.661546
-0.656119
-0.649157
-0.640905
-0.631652
-0.621737
-0.61153
-0.601426
-0.591825
-0.583117
-0.575662
-0.569773
-0.565702
-0.563623
-0.563623
-0.565704
-0.569776
-0.575665
-0.583121
-0.59183
-0.601432
-0.611537
-0.621744
-0.631659
-0.640912
-0.649164
-0.656126
-0.661553
-0.66526
-0.667145
-0.730473
-0.728212
-0.723761
-0.71724
-0.708865
-0.698923
-0.687759
-0.675773
-0.663413
-0.651155
-0.63949
-0.628895
-0.619814
-0.612635
-0.607669
-0.605132
-0.605133
-0.607671
-0.612638
-0.619818
-0.628899
-0.639495
-0.651161
-0.66342
-0.67578
-0.687766
-0.698931
-0.708873
-0.717248
-0.72377
-0.72822
-0.730482
-0.796392
-0.793683
-0.788346
-0.780518
-0.770453
-0.758482
-0.745012
-0.730521
-0.715543
-0.700658
-0.686465
-0.673553
-0.662472
-0.653703
-0.647633
-0.644532
-0.644532
-0.647635
-0.653706
-0.662476
-0.673559
-0.686471
-0.700665
-0.715551
-0.730529
-0.745021
-0.758491
-0.770462
-0.780528
-0.788356
-0.793692
-0.796402
-0.865491
-0.862252
-0.855867
-0.846489
-0.83441
-0.820012
-0.803772
-0.786254
-0.768099
-0.750009
-0.732721
-0.716962
-0.703417
-0.692686
-0.685252
-0.681453
-0.681454
-0.685254
-0.692689
-0.703421
-0.716968
-0.732728
-0.750017
-0.768108
-0.786263
-0.803782
-0.820022
-0.83442
-0.8465
-0.855878
-0.862263
-0.865502
-0.938515
-0.934655
-0.927037
-0.915832
-0.901368
-0.884083
-0.864527
-0.843363
-0.821356
-0.799357
-0.778275
-0.759014
-0.742429
-0.729273
-0.720154
-0.715491
-0.715492
-0.720156
-0.729277
-0.742434
-0.759021
-0.778283
-0.799366
-0.821366
-0.843373
-0.864538
-0.884095
-0.90138
-0.915844
-0.927049
-0.934667
-0.938527
-1.0164
-1.01182
-1.00276
-0.989421
-0.972156
-0.951456
-0.927948
-0.902404
-0.875738
-0.848972
-0.823236
-0.799658
-0.779316
-0.763159
-0.751952
-0.746222
-0.746222
-0.751954
-0.763164
-0.779322
-0.799666
-0.823245
-0.848982
-0.875749
-0.902416
-0.92796
-0.951469
-0.972169
-0.989435
-1.00278
-1.01183
-1.01641
-1.1003
-1.09489
-1.08419
-1.06838
-1.04786
-1.02315
-0.994961
-0.964182
-0.931888
-0.899311
-0.86786
-0.838953
-0.813956
-0.794079
-0.780284
-0.773232
-0.773233
-0.780287
-0.794084
-0.813963
-0.838962
-0.86787
-0.899323
-0.9319
-0.964195
-0.994975
-1.02316
-1.04787
-1.0684
-1.08421
-1.09491
-1.10032
-1.19169
-1.18536
-1.17278
-1.15416
-1.12989
-1.10054
-1.06686
-1.02985
-0.990789
-0.951131
-0.912652
-0.877149
-0.846375
-0.821878
-0.804876
-0.796191
-0.796192
-0.80488
-0.821884
-0.846383
-0.877159
-0.912663
-0.951144
-0.990804
-1.02987
-1.06687
-1.10055
-1.12991
-1.15418
-1.1728
-1.18537
-1.19171
-1.2924
-1.28504
-1.2704
-1.24864
-1.22015
-1.18549
-1.14544
-1.1011
-1.05393
-1.00566
-0.958521
-0.914836
-0.876872
-0.846632
-0.82566
-0.814961
-0.814963
-0.825664
-0.846639
-0.876881
-0.914848
-0.958534
-1.00567
-1.05395
-1.10112
-1.14545
-1.18551
-1.22017
-1.24866
-1.27042
-1.28506
-1.29242
-1.40471
-1.39626
-1.3794
-1.35425
-1.32113
-1.28053
-1.23322
-1.18036
-1.12359
-1.06485
-1.00705
-0.95319
-0.906235
-0.868837
-0.842973
-0.829828
-0.829829
-0.842978
-0.868845
-0.906246
-0.953204
-1.00706
-1.06486
-1.12361
-1.18038
-1.23324
-1.28055
-1.32115
-1.35427
-1.37942
-1.39628
-1.40473
-1.53143
-1.52188
-1.50276
-1.4741
-1.4361
-1.38912
-1.33377
-1.2712
-1.20329
-1.13183
-1.06087
-0.994216
-0.935851
-0.889567
-0.857854
-0.841873
-0.841875
-0.85786
-0.889576
-0.935863
-0.994232
-1.06088
-1.13185
-1.20331
-1.27122
-1.3338
-1.38914
-1.43613
-1.47412
-1.50278
-1.5219
-1.53145
-1.67602
-1.66545
-1.64421
-1.61219
-1.5694
-1.51592
-1.45208
-1.37873
-1.29745
-1.21139
-1.12395
-1.04079
-0.967998
-0.91098
-0.872404
-0.853094
-0.853096
-0.872411
-0.910991
-0.968013
-1.04081
-1.12397
-1.21142
-1.29747
-1.37876
-1.45211
-1.51595
-1.56943
-1.61222
-1.64424
-1.66547
-1.67604
-1.84262
-1.83126
-1.80834
-1.77357
-1.72666
-1.66728
-1.59524
-1.51088
-1.41545
-1.31169
-1.20368
-1.10004
-1.00954
-0.938349
-0.890109
-0.866018
-0.866021
-0.890117
-0.938362
-1.00956
-1.10006
-1.20371
-1.31172
-1.41547
-1.51091
-1.59527
-1.66731
-1.72669
-1.7736
-1.80837
-1.83129
-1.84264
-2.03607
-2.02438
-2.00066
-1.96444
-1.91508
-1.85159
-1.77296
-1.67862
-1.56907
-1.44666
-1.31627
-1.1858
-1.06737
-0.977292
-0.917986
-0.888912
-0.888916
-0.917995
-0.977307
-1.06739
-1.18582
-1.3163
-1.44669
-1.5691
-1.67865
-1.77299
-1.85162
-1.91511
-1.96447
-2.00069
-2.02441
-2.03609
-2.2618
-2.25053
-2.22755
-2.19224
-2.14359
-2.07983
-1.99875
-1.8985
-1.77657
-1.62909
-1.46902
-1.32405
-1.18624
-1.06965
-1.00007
-0.969387
-0.96939
-1.00008
-1.06967
-1.18627
-1.32409
-1.46905
-1.62914
-1.77661
-1.89854
-1.99879
-2.07987
-2.14363
-2.19227
-2.22758
-2.25057
-2.26183
-2.52552
-2.51583
-2.49595
-2.46533
-2.42279
-2.36586
-2.29121
-2.188
-2.04188
-1.87888
-1.70549
-1.53856
-1.42453
-1.32336
-1.2553
-1.22348
-1.22349
-1.25531
-1.32338
-1.42456
-1.5386
-1.70553
-1.87893
-2.04192
-2.18804
-2.29125
-2.3659
-2.42282
-2.46537
-2.49598
-2.51587
-2.52555
-2.83264
-2.82616
-2.81278
-2.79239
-2.76465
-2.7284
-2.67096
-2.54952
-2.383
-2.22571
-2.11767
-1.96203
-1.83773
-1.7546
-1.69645
-1.66835
-1.66835
-1.69646
-1.75462
-1.83777
-1.96208
-2.11773
-2.22577
-2.38306
-2.54957
-2.671
-2.72844
-2.76469
-2.79242
-2.81282
-2.82619
-2.83267
-3.1873
-3.18614
-3.18374
-3.18115
-3.18265
-3.18496
-3.13085
-2.98727
-2.87417
-2.85022
-2.7556
-2.57568
-2.42252
-2.31349
-2.23592
-2.19994
-2.19995
-2.23594
-2.31352
-2.42256
-2.57573
-2.75567
-2.85026
-2.87422
-2.98732
-3.13089
-3.185
-3.18269
-3.18118
-3.18377
-3.18617
-3.18733
-3.59098
-3.59772
-3.61166
-3.63692
-3.68312
-3.71566
-3.62392
-3.57842
-3.63664
-3.6726
-3.54287
-3.29397
-3.07347
-2.92195
-2.81371
-2.76481
-2.76481
-2.81373
-2.92198
-3.07352
-3.29403
-3.54294
-3.67264
-3.63666
-3.57845
-3.62396
-3.7157
-3.68315
-3.63695
-3.61169
-3.59774
-3.59101
-4.04103
-4.0584
-4.09534
-4.16313
-4.26576
-4.31699
-4.25977
-4.36321
-4.5446
-4.60391
-4.49354
-4.17951
-3.83765
-3.62242
-3.46875
-3.3996
-3.39961
-3.46878
-3.62246
-3.83771
-4.1796
-4.49362
-4.60396
-4.54462
-4.36324
-4.25982
-4.31704
-4.26579
-4.16315
-4.09536
-4.05842
-4.04105
-4.52725
-4.55764
-4.62352
-4.74507
-4.90017
-4.93496
-5.10588
-5.28497
-5.49471
-5.7185
-5.70924
-5.34595
-4.7664
-4.42314
-4.20802
-4.10254
-4.10255
-4.20805
-4.42319
-4.76649
-5.34608
-5.70934
-5.71855
-5.49474
-5.28499
-5.10591
-4.93499
-4.90018
-4.74508
-4.62354
-4.55765
-4.52727
-5.03273
-5.07746
-5.1763
-5.35649
-5.57105
-5.61316
-5.85773
-6.09781
-6.45207
-6.69317
-6.69915
-6.47973
-5.7323
-5.22047
-4.96179
-4.81774
-4.81775
-4.96182
-5.22052
-5.73241
-6.47983
-6.69917
-6.69317
-6.45207
-6.09782
-5.85775
-5.61316
-5.57105
-5.35649
-5.1763
-5.07747
-5.03274
-5.53617
-5.59565
-5.72918
-5.9636
-6.23442
-6.38923
-6.53397
-6.74926
-7.04835
-7.05746
-7.07321
-7.0359
-6.47573
-5.9098
-5.64896
-5.48729
-5.4873
-5.64899
-5.90985
-6.47584
-7.03594
-7.07321
-7.05745
-7.04833
-6.74925
-6.53398
-6.38919
-6.23442
-5.96359
-5.72918
-5.59564
-5.53616
-6.01066
-6.08471
-6.25205
-6.53035
-6.84083
-7.1183
-7.14977
-7.2951
-7.30739
-7.30316
-7.33638
-7.35483
-7.01813
-6.47082
-6.23021
-6.07148
-6.07148
-6.23024
-6.47086
-7.01821
-7.35482
-7.33636
-7.30314
-7.30738
-7.2951
-7.14981
-7.1183
-6.84083
-6.53033
-6.25203
-6.08469
-6.01064
-6.42747
-6.51523
-6.7132
-7.03105
-7.38954
-7.75791
-7.81473
-7.71927
-7.56166
-7.54094
-7.55553
-7.57699
-7.38838
-6.90886
-6.69618
-6.55133
-6.55133
-6.69619
-6.90888
-7.38841
-7.57695
-7.5555
-7.54093
-7.56168
-7.71934
-7.81488
-7.75796
-7.38952
-7.03102
-6.71316
-6.51519
-6.42744
-6.76286
-6.86186
-7.08084
-7.43582
-7.84911
-8.39704
-8.4912
-8.28165
-7.91956
-7.81374
-7.78349
-7.79822
-7.66352
-7.23831
-7.04854
-6.91994
-6.91994
-7.04853
-7.2383
-7.66354
-7.79816
-7.78347
-7.81373
-7.91959
-8.28179
-8.49163
-8.39707
-7.84905
-7.43576
-7.08078
-6.86181
-6.76281
-6.99837
-7.10433
-7.32481
-7.69392
-8.13814
-8.7838
-9.24431
-8.87033
-8.34083
-8.08445
-7.99304
-7.98285
-7.83084
-7.45311
-7.28939
-7.17341
-7.17341
-7.28936
-7.45306
-7.83083
-7.98277
-7.99301
-8.08442
-8.34083
-8.87033
-9.24392
-8.78364
-8.13802
-7.69383
-7.32473
-7.10426
-6.99831
-7.13226
-7.22781
-7.42786
-7.76466
-8.19179
-8.69487
-9.03372
-8.92144
-8.48714
-8.20676
-8.09529
-8.04049
-7.8836
-7.56883
-7.42791
-7.31993
-7.31996
-7.4278
-7.56877
-7.88356
-8.04042
-8.09524
-8.20671
-8.4871
-8.92138
-9.03354
-8.69469
-8.19165
-7.76454
-7.42776
-7.22772
-7.13218
-7.16998
-7.248
-7.4106
-7.67588
-8.02089
-8.37306
-8.59458
-8.56682
-8.36169
-8.17347
-8.05504
-7.99145
-7.85465
-7.60018
-7.47463
-7.39511
-7.3951
-7.47458
-7.60013
-7.85459
-7.99138
-8.05498
-8.1734
-8.36161
-8.56671
-8.59443
-8.3729
-8.02075
-7.67575
-7.4105
-7.24791
-7.16989
-7.1402
-7.20003
-7.32283
-7.5157
-7.76672
-8.03119
-8.19432
-8.20542
-8.11982
-8.00691
-7.9126
-7.86068
-7.7536
-7.56437
-7.45708
-7.39967
-7.39966
-7.45704
-7.56432
-7.75353
-7.86059
-7.91252
-8.00683
-8.11973
-8.20532
-8.19419
-8.03105
-7.76659
-7.51559
-7.32274
-7.19994
-7.14012
-7.07557
-7.11923
-7.20823
-7.34443
-7.51925
-7.71293
-7.84847
-7.88595
-7.84212
-7.77308
-7.71063
-7.67679
-7.59924
-7.47184
-7.38752
-7.34546
-7.34545
-7.38749
-7.47179
-7.59916
-7.6767
-7.71054
-7.77299
-7.84201
-7.88583
-7.84835
-7.7128
-7.51913
-7.34433
-7.20814
-7.11915
-7.07549
-6.99937
-7.03
-7.09204
-7.18497
-7.30153
-7.42845
-7.52759
-7.5682
-7.55457
-7.5154
-7.47997
-7.45617
-7.41217
-7.34128
-7.28485
-7.25711
-7.2571
-7.28482
-7.34123
-7.41211
-7.45609
-7.47989
-7.51531
-7.55448
-7.5681
-7.52748
-7.42835
-7.30143
-7.18489
-7.09197
-7.02993
-6.9993
-6.92559
-6.94597
-6.98666
-7.04618
-7.11926
-7.19676
-7.26
-7.29061
-7.29056
-7.2729
-7.25567
-7.23452
-7.2171
-7.19366
-7.16246
-7.14838
-7.14837
-7.16244
-7.19361
-7.21704
-7.23445
-7.25559
-7.27282
-7.29047
-7.29052
-7.25991
-7.19667
-7.11918
-7.04611
-6.9866
-6.94591
-6.92553
-6.86124
-6.87369
-6.89827
-6.93339
-6.97542
-7.01829
-7.05313
-7.07133
-7.07439
-7.06898
-7.06264
-7.03898
-7.02839
-7.04631
-7.03814
-7.03411
-7.0341
-7.03812
-7.04627
-7.02834
-7.03892
-7.06257
-7.06891
-7.07432
-7.07125
-7.05306
-7.01822
-6.97535
-6.93333
-6.89821
-6.87363
-6.86118
-6.80923
-6.8161
-6.82942
-6.84774
-6.86852
-6.88813
-6.90279
-6.90972
-6.91079
-6.91
-6.90842
-6.87686
-6.86148
-6.91375
-6.92832
-6.93122
-6.93121
-6.9283
-6.91372
-6.86143
-6.87681
-6.90837
-6.90994
-6.91073
-6.90966
-6.90273
-6.88807
-6.86846
-6.84769
-6.82937
-6.81605
-6.80918
-6.77083
-6.77394
-6.77976
-6.78706
-6.79408
-6.79897
-6.80047
-6.79869
-6.79614
-6.7952
-6.79487
-6.77533
-6.77577
-6.82
-6.84287
-6.8455
-6.84549
-6.84284
-6.81996
-6.77573
-6.77529
-6.79482
-6.79515
-6.79609
-6.79864
-6.80041
-6.79892
-6.79403
-6.78701
-6.77971
-6.7739
-6.77078
-6.74553
-6.74621
-6.74721
-6.74763
-6.74629
-6.74236
-6.73592
-6.72846
-6.72272
-6.72072
-6.72052
-6.71388
-6.72446
-6.76582
-6.77803
-6.7775
-6.77749
-6.77801
-6.76578
-6.72443
-6.71384
-6.72047
-6.72068
-6.72267
-6.72842
-6.73587
-6.74232
-6.74625
-6.74759
-6.74717
-6.74617
-6.74549
-6.73188
-6.73106
-6.72916
-6.72553
-6.71948
-6.71077
-6.70019
-6.68982
-6.6827
-6.68094
-6.68108
-6.68227
-6.69042
-6.72512
-6.72694
-6.72485
-6.72484
-6.72692
-6.72509
-6.69039
-6.68223
-6.68105
-6.68091
-6.68266
-6.68978
-6.70015
-6.71073
-6.71944
-6.72549
-6.72912
-6.73102
-6.73184
-6.72815
-6.72648
-6.72297
-6.71721
-6.70882
-6.69797
-6.68576
-6.67444
-6.66696
-6.6652
-6.66789
-6.67045
-6.67468
-6.69156
-6.69075
-6.68682
-6.68681
-6.69073
-6.69154
-6.67465
-6.67042
-6.66786
-6.66516
-6.66693
-6.67441
-6.68573
-6.69793
-6.70878
-6.71717
-6.72294
-6.72645
-6.72812
-6.73271
-6.73062
-6.72634
-6.71964
-6.71038
-6.69894
-6.68648
-6.67511
-6.66733
-6.6645
-6.66528
-6.66707
-6.66759
-6.67024
-6.66796
-6.66294
-6.66294
-6.66795
-6.67022
-6.66756
-6.66704
-6.66526
-6.66447
-6.6673
-6.67508
-6.68645
-6.6989
-6.71035
-6.71961
-6.72631
-6.73059
-6.73268
-6.7441
-6.74186
-6.73734
-6.7304
-6.72109
-6.70985
-6.69777
-6.68661
-6.67834
-6.67393
-6.6724
-6.6721
-6.66956
-6.66462
-6.65823
-6.65229
-6.65229
-6.65822
-6.6646
-6.66954
-6.67208
-6.67237
-6.6739
-6.67831
-6.68658
-6.69774
-6.70982
-6.72106
-6.73037
-6.73731
-6.74183
-6.74407
-6.76111
-6.75889
-6.75442
-6.74766
-6.73871
-6.72804
-6.71658
-6.70574
-6.69701
-6.69107
-6.68735
-6.68496
-6.67996
-6.67549
-6.66193
-6.65375
-6.65375
-6.66192
-6.67547
-6.67994
-6.68494
-6.68733
-6.69105
-6.69698
-6.70572
-6.71655
-6.72801
-6.73869
-6.74763
-6.75439
-6.75886
-6.76108
-6.78278
-6.78066
-6.77642
-6.77005
-6.7617
-6.75179
-6.74111
-6.73077
-6.7219
-6.71504
-6.70981
-6.70587
-6.69793
-6.69711
-6.67523
-6.66454
-6.66454
-6.67522
-6.69709
-6.69791
-6.70584
-6.70979
-6.71501
-6.72188
-6.73075
-6.74108
-6.75177
-6.76168
-6.77003
-6.77639
-6.78063
-6.78276
-6.80833
-6.80636
-6.80245
-6.79661
-6.78899
-6.77996
-6.7702
-6.7606
-6.75203
-6.74493
-6.73909
-6.73424
-6.72241
-6.72249
-6.6946
-6.68215
-6.68215
-6.69459
-6.72247
-6.72239
-6.73421
-6.73907
-6.74491
-6.75201
-6.76058
-6.77018
-6.77994
-6.78896
-6.79658
-6.80242
-6.80634
-6.8083
-6.83712
-6.83535
-6.83181
-6.82656
-6.81974
-6.81169
-6.80297
-6.79429
-6.78638
-6.77957
-6.77374
-6.76874
-6.75434
-6.74916
-6.71926
-6.70555
-6.70555
-6.71926
-6.74914
-6.75432
-6.76872
-6.77372
-6.77955
-6.78635
-6.79427
-6.80294
-6.81167
-6.81972
-6.82654
-6.83179
-6.83532
-6.8371
-6.86865
-6.86708
-6.86394
-6.85931
-6.85332
-6.84627
-6.83862
-6.83097
-6.82387
-6.81756
-6.81192
-6.80698
-6.79229
-6.7802
-6.74876
-6.73377
-6.73377
-6.74875
-6.78019
-6.79227
-6.80697
-6.8119
-6.81754
-6.82385
-6.83095
-6.8386
-6.84624
-6.8533
-6.85929
-6.86392
-6.86705
-6.86863
-6.90249
-6.90112
-6.89839
-6.89437
-6.8892
-6.88312
-6.87654
-6.86994
-6.8637
-6.85795
-6.85252
-6.84758
-6.83346
-6.81725
-6.78195
-6.76544
-6.76544
-6.78195
-6.81723
-6.83344
-6.84756
-6.8525
-6.85793
-6.86368
-6.86992
-6.87652
-6.8831
-6.88918
-6.89435
-6.89837
-6.9011
-6.90247
-6.93828
-6.93711
-6.93478
-6.93136
-6.92697
-6.92184
-6.91629
-6.9107
-6.90535
-6.90026
-6.89526
-6.89052
-6.87622
-6.85671
-6.81727
-6.79915
-6.79915
-6.81727
-6.8567
-6.87621
-6.89051
-6.89525
-6.90025
-6.90533
-6.91068
-6.91628
-6.92182
-6.92695
-6.93134
-6.93476
-6.93709
-6.93826
-6.97572
-6.97474
-6.97279
-6.96994
-6.96631
-6.96208
-6.95751
-6.9529
-6.94845
-6.94415
-6.93986
-6.93568
-6.92094
-6.89575
-6.85343
-6.83381
-6.83381
-6.85342
-6.89574
-6.92093
-6.93566
-6.93984
-6.94414
-6.94843
-6.95288
-6.9575
-6.96206
-6.96629
-6.96992
-6.97277
-6.97472
-6.9757
-7.01454
-7.01374
-7.01215
-7.00985
-7.00692
-7.00353
-6.99989
-6.9962
-6.99261
-6.98912
-6.98569
-6.9823
-6.9681
-6.93455
-6.88975
-6.8686
-6.8686
-6.88974
-6.93454
-6.96809
-6.98228
-6.98568
-6.98911
-6.99259
-6.99619
-6.99987
-7.00351
-7.0069
-7.00983
-7.01214
-7.01372
-7.01452
-7.05452
-7.05388
-7.05263
-7.05083
-7.04855
-7.04594
-7.04314
-7.04028
-7.03744
-7.03469
-7.03218
-7.02983
-7.01734
-6.97313
-6.92552
-6.90277
-6.90276
-6.92552
-6.97312
-7.01733
-7.02982
-7.03216
-7.03467
-7.03742
-7.04026
-7.04313
-7.04593
-7.04854
-7.05081
-7.05262
-7.05386
-7.0545
-7.09544
-7.09496
-7.09402
-7.09268
-7.091
-7.0891
-7.08703
-7.08485
-7.08259
-7.0804
-7.07898
-7.0786
-7.06909
-7.01118
-6.95988
-6.93541
-6.9354
-6.95988
-7.01117
-7.06908
-7.07858
-7.07897
-7.08039
-7.08257
-7.08484
-7.08701
-7.08908
-7.09099
-7.09266
-7.094
-7.09494
-7.09542
-7.13715
-7.13681
-7.13616
-7.13524
-7.1341
-7.1328
-7.13135
-7.1297
-7.12776
-7.12575
-7.12517
-7.12717
-7.12388
-7.04794
-6.99163
-6.96545
-6.96544
-6.99163
-7.04793
-7.12387
-7.12715
-7.12516
-7.12574
-7.12774
-7.12968
-7.13133
-7.13278
-7.13408
-7.13522
-7.13614
-7.13679
-7.13713
-7.17951
-7.1793
-7.17891
-7.17835
-7.17768
-7.1769
-7.17595
-7.17467
-7.17277
-7.17018
-7.1678
-7.16387
-7.1701
-7.08024
-7.01965
-6.99222
-6.99222
-7.01965
-7.08023
-7.17009
-7.16386
-7.16779
-7.17016
-7.17275
-7.17466
-7.17594
-7.17688
-7.17766
-7.17834
-7.17889
-7.17929
-7.17949
-7.22241
-7.22231
-7.22213
-7.2219
-7.22163
-7.22129
-7.22078
-7.21979
-7.21784
-7.21442
-7.2093
-7.19207
-7.20362
-7.10781
-7.04432
-7.01601
-7.01601
-7.04431
-7.10781
-7.20361
-7.19206
-7.20928
-7.21441
-7.21783
-7.21978
-7.22076
-7.22128
-7.22161
-7.22188
-7.22212
-7.22229
-7.22239
-7.26572
-7.26572
-7.26574
-7.26578
-7.26585
-7.2659
-7.26577
-7.26509
-7.26325
-7.25944
-7.25289
-7.22541
-7.23333
-7.13202
-7.06662
-7.0377
-7.03769
-7.06662
-7.13202
-7.23331
-7.22539
-7.25288
-7.25943
-7.26323
-7.26507
-7.26575
-7.26589
-7.26584
-7.26576
-7.26572
-7.26571
-7.26571
-7.3094
-7.30948
-7.30966
-7.30994
-7.3103
-7.31067
-7.31085
-7.31047
-7.30894
-7.30541
-7.29872
-7.26693
-7.25671
-7.15345
-7.08797
-7.05875
-7.05875
-7.08796
-7.15344
-7.2567
-7.26692
-7.2987
-7.3054
-7.30892
-7.31046
-7.31084
-7.31066
-7.31029
-7.30992
-7.30965
-7.30947
-7.30938
-7.3534
-7.35356
-7.35388
-7.35435
-7.35495
-7.35557
-7.35599
-7.35585
-7.35468
-7.35202
-7.34654
-7.3188
-7.27842
-7.17429
-7.11025
-7.0811
-7.0811
-7.11025
-7.17428
-7.27841
-7.31879
-7.34653
-7.352
-7.35467
-7.35584
-7.35598
-7.35556
-7.35494
-7.35434
-7.35386
-7.35354
-7.35338
-7.3977
-7.39793
-7.39838
-7.39902
-7.39982
-7.40062
-7.40119
-7.40115
-7.40014
-7.39829
-7.3948
-7.38119
-7.30274
-7.19745
-7.1356
-7.10693
-7.10693
-7.1356
-7.19744
-7.30273
-7.38118
-7.39479
-7.39828
-7.40013
-7.40114
-7.40118
-7.40061
-7.3998
-7.39901
-7.39836
-7.39791
-7.39769
-7.44232
-7.44261
-7.44317
-7.44397
-7.44494
-7.44589
-7.44652
-7.4464
-7.44504
-7.44199
-7.43369
-7.44563
-7.32884
-7.22416
-7.16606
-7.13879
-7.13879
-7.16606
-7.22415
-7.32883
-7.44562
-7.43368
-7.44197
-7.44503
-7.44638
-7.4465
-7.44587
-7.44492
-7.44396
-7.44316
-7.44259
-7.4423
-7.48726
-7.48761
-7.48829
-7.48925
-7.49037
-7.49146
-7.49214
-7.49191
-7.49004
-7.48445
-7.4614
-7.48562
-7.35367
-7.25653
-7.20465
-7.18009
-7.18009
-7.20464
-7.25653
-7.35366
-7.48561
-7.46139
-7.48444
-7.49003
-7.4919
-7.49213
-7.49144
-7.49036
-7.48923
-7.48828
-7.4876
-7.48725
-7.53258
-7.53299
-7.53378
-7.53489
-7.53617
-7.53741
-7.53819
-7.53799
-7.5362
-7.53085
-7.51052
-7.49749
-7.38034
-7.2997
-7.25586
-7.23499
-7.23498
-7.25585
-7.29969
-7.38034
-7.49747
-7.51051
-7.53084
-7.53618
-7.53797
-7.53818
-7.5374
-7.53616
-7.53487
-7.53377
-7.53298
-7.53257
-7.57833
-7.5788
-7.5797
-7.58094
-7.58238
-7.58373
-7.58453
-7.58408
-7.58109
-7.57285
-7.58512
-7.51924
-7.42132
-7.35963
-7.32489
-7.30832
-7.30832
-7.32488
-7.35963
-7.42131
-7.51923
-7.58511
-7.57284
-7.58108
-7.58407
-7.58452
-7.58371
-7.58236
-7.58093
-7.57968
-7.57879
-7.57832
-7.62459
-7.62511
-7.62611
-7.62749
-7.62907
-7.63054
-7.63128
-7.63017
-7.62462
-7.61469
-7.64325
-7.5584
-7.48432
-7.44137
-7.41664
-7.40486
-7.40485
-7.41664
-7.44137
-7.48431
-7.55839
-7.64324
-7.61468
-7.62461
-7.63016
-7.63126
-7.63052
-7.62906
-7.62748
-7.6261
-7.6251
-7.62457
-7.67147
-7.67204
-7.67313
-7.67463
-7.67634
-7.67797
-7.67884
-7.67722
-7.66978
-7.68628
-7.68229
-7.61993
-7.57515
-7.55005
-7.53524
-7.52821
-7.52821
-7.53524
-7.55004
-7.57514
-7.61993
-7.68228
-7.68627
-7.66977
-7.67721
-7.67882
-7.67796
-7.67633
-7.67462
-7.67312
-7.67203
-7.67146
-7.71913
-7.71974
-7.72089
-7.72249
-7.72429
-7.72608
-7.72745
-7.72666
-7.73241
-7.77224
-7.75228
-7.71943
-7.69992
-7.68945
-7.68344
-7.68065
-7.68065
-7.68344
-7.68945
-7.69991
-7.71942
-7.75228
-7.77223
-7.73239
-7.72665
-7.72744
-7.72607
-7.72428
-7.72248
-7.72088
-7.71972
-7.71912
-7.76779
-7.76841
-7.76963
-7.77137
-7.77324
-7.77503
-7.77708
-7.78582
-7.83824
-7.86837
-7.86366
-7.85951
-7.85971
-7.86097
-7.86213
-7.86276
-7.86276
-7.86213
-7.86097
-7.8597
-7.8595
-7.86365
-7.86836
-7.83823
-7.78581
-7.77707
-7.77502
-7.77322
-7.77135
-7.76962
-7.7684
-7.76777
-7.81785
-7.81845
-7.81977
-7.82191
-7.82369
-7.82506
-7.8462
-7.90446
-7.97023
-8.00509
-8.02464
-8.04115
-8.05439
-8.06411
-8.0705
-8.07364
-8.07364
-8.0705
-8.06411
-8.05439
-8.04114
-8.02463
-8.00508
-7.97022
-7.90445
-7.84619
-7.82505
-7.82368
-7.8219
-7.81976
-7.81844
-7.81784
-7.86964
-7.87026
-7.87127
-7.87417
-7.89464
-7.94595
-8.00822
-8.08715
-8.15239
-8.19813
-8.23333
-8.26083
-8.28167
-8.29669
-8.30642
-8.31118
-8.31118
-8.30641
-8.29668
-8.28167
-8.26082
-8.23332
-8.19812
-8.15238
-8.08713
-8.00821
-7.94593
-7.89463
-7.87416
-7.87125
-7.87025
-7.86963
-7.97195
-7.98118
-8.00488
-8.046
-8.0961
-8.16458
-8.24608
-8.32445
-8.3891
-8.44055
-8.4813
-8.51328
-8.53772
-8.5554
-8.56688
-8.57253
-8.57252
-8.56688
-8.5554
-8.53771
-8.51327
-8.48129
-8.44054
-8.38909
-8.32443
-8.24607
-8.16457
-8.09608
-8.04598
-8.00487
-7.98116
-7.97194
-8.24159
-8.25917
-8.29403
-8.34481
-8.40463
-8.47239
-8.5439
-8.61099
-8.66995
-8.71956
-8.76023
-8.79282
-8.81805
-8.83649
-8.84853
-8.85448
-8.85447
-8.84853
-8.83648
-8.81805
-8.79281
-8.76022
-8.71956
-8.66993
-8.61098
-8.54389
-8.47237
-8.40461
-8.3448
-8.29401
-8.25915
-8.24157
-8.62827
-8.64253
-8.67019
-8.70962
-8.75878
-8.8151
-8.87328
-8.92928
-8.98051
-9.02529
-9.06309
-9.094
-9.11828
-9.1362
-9.148
-9.15384
-9.15384
-9.148
-9.1362
-9.11828
-9.09399
-9.06308
-9.02528
-8.9805
-8.92927
-8.87326
-8.81508
-8.75877
-8.70961
-8.67017
-8.64251
-8.62825
-9.02384
-9.03518
-9.05736
-9.08928
-9.12907
-9.17398
-9.22101
-9.26743
-9.31113
-9.35025
-9.38402
-9.41211
-9.43447
-9.45113
-9.46217
-9.46767
-9.46767
-9.46217
-9.45113
-9.43446
-9.4121
-9.38401
-9.35025
-9.31112
-9.26742
-9.221
-9.17396
-9.12906
-9.08927
-9.05735
-9.03517
-9.02382
-9.42149
-9.43065
-9.44851
-9.47412
-9.50595
-9.5421
-9.58051
-9.61908
-9.65559
-9.68905
-9.71846
-9.74329
-9.76328
-9.77831
-9.78833
-9.79333
-9.79333
-9.78833
-9.7783
-9.76327
-9.74328
-9.71845
-9.68904
-9.65558
-9.61907
-9.5805
-9.54209
-9.50594
-9.47411
-9.4485
-9.43063
-9.42148
-9.81874
-9.82609
-9.84042
-9.86097
-9.88659
-9.91586
-9.94716
-9.97886
-10.0094
-10.0377
-10.0629
-10.0845
-10.102
-10.1153
-10.1241
-10.1286
-10.1286
-10.1241
-10.1153
-10.102
-10.0845
-10.0629
-10.0377
-10.0094
-9.97885
-9.94715
-9.91585
-9.88658
-9.86096
-9.84041
-9.82608
-9.81873
-10.2144
-10.2203
-10.2318
-10.2483
-10.269
-10.2927
-10.3183
-10.3443
-10.3697
-10.3935
-10.4149
-10.4333
-10.4484
-10.46
-10.4677
-10.4716
-10.4716
-10.4677
-10.46
-10.4484
-10.4333
-10.4149
-10.3935
-10.3697
-10.3443
-10.3183
-10.2927
-10.269
-10.2483
-10.2318
-10.2203
-10.2143
-10.6078
-10.6126
-10.6219
-10.6352
-10.652
-10.6712
-10.692
-10.7135
-10.7345
-10.7543
-10.7723
-10.788
-10.8009
-10.8108
-10.8175
-10.8209
-10.8209
-10.8175
-10.8108
-10.8009
-10.788
-10.7723
-10.7543
-10.7345
-10.7134
-10.692
-10.6712
-10.652
-10.6352
-10.6219
-10.6126
-10.6078
-10.999
-11.0029
-11.0104
-11.0212
-11.0347
-11.0504
-11.0674
-11.085
-11.1024
-11.1189
-11.134
-11.1472
-11.1582
-11.1666
-11.1723
-11.1752
-11.1752
-11.1723
-11.1666
-11.1581
-11.1472
-11.134
-11.1189
-11.1024
-11.085
-11.0674
-11.0504
-11.0347
-11.0212
-11.0104
-11.0029
-10.999
-11.388
-11.3911
-11.3972
-11.406
-11.417
-11.4297
-11.4436
-11.4581
-11.4724
-11.4862
-11.4988
-11.5098
-11.5191
-11.5262
-11.531
-11.5335
-11.5335
-11.531
-11.5262
-11.5191
-11.5098
-11.4987
-11.4861
-11.4724
-11.4581
-11.4436
-11.4297
-11.417
-11.406
-11.3972
-11.3911
-11.388
-11.775
-11.7775
-11.7825
-11.7896
-11.7986
-11.809
-11.8203
-11.8322
-11.844
-11.8554
-11.8659
-11.8751
-11.8829
-11.8889
-11.893
-11.895
-11.895
-11.893
-11.8889
-11.8829
-11.8751
-11.8659
-11.8554
-11.844
-11.8322
-11.8203
-11.809
-11.7985
-11.7896
-11.7825
-11.7775
-11.775
-12.1602
-12.1623
-12.1663
-12.1721
-12.1794
-12.1879
-12.1972
-12.2069
-12.2167
-12.2261
-12.2348
-12.2425
-12.249
-12.254
-12.2575
-12.2592
-12.2592
-12.2575
-12.254
-12.249
-12.2425
-12.2348
-12.2261
-12.2167
-12.2069
-12.1972
-12.1879
-12.1794
-12.1721
-12.1663
-12.1623
-12.1602
-12.5439
-12.5456
-12.5488
-12.5535
-12.5595
-12.5665
-12.5741
-12.5821
-12.5901
-12.5979
-12.6051
-12.6116
-12.6169
-12.6211
-12.624
-12.6255
-12.6255
-12.624
-12.6211
-12.6169
-12.6116
-12.6051
-12.5979
-12.5901
-12.5821
-12.5741
-12.5665
-12.5595
-12.5535
-12.5488
-12.5456
-12.5439
-12.9262
-12.9276
-12.9302
-12.9341
-12.939
-12.9447
-12.9509
-12.9575
-12.9641
-12.9706
-12.9765
-12.9819
-12.9863
-12.9898
-12.9922
-12.9934
-12.9934
-12.9922
-12.9898
-12.9863
-12.9819
-12.9765
-12.9706
-12.9641
-12.9575
-12.9509
-12.9447
-12.939
-12.9341
-12.9302
-12.9276
-12.9262
-13.3074
-13.3085
-13.3107
-13.3139
-13.3178
-13.3225
-13.3276
-13.3331
-13.3385
-13.3438
-13.3488
-13.3532
-13.3569
-13.3598
-13.3618
-13.3628
-13.3628
-13.3618
-13.3598
-13.3569
-13.3532
-13.3488
-13.3438
-13.3385
-13.3331
-13.3276
-13.3225
-13.3178
-13.3139
-13.3107
-13.3085
-13.3074
-13.6877
-13.6886
-13.6904
-13.6929
-13.6962
-13.7
-13.7042
-13.7087
-13.7132
-13.7176
-13.7216
-13.7253
-13.7284
-13.7308
-13.7324
-13.7333
-13.7333
-13.7324
-13.7308
-13.7284
-13.7253
-13.7216
-13.7176
-13.7132
-13.7087
-13.7042
-13.7
-13.6962
-13.6929
-13.6903
-13.6886
-13.6877
-14.0671
-14.0678
-14.0693
-14.0714
-14.0741
-14.0772
-14.0807
-14.0844
-14.0881
-14.0917
-14.095
-14.0981
-14.1006
-14.1026
-14.104
-14.1047
-14.1047
-14.104
-14.1026
-14.1006
-14.0981
-14.095
-14.0917
-14.0881
-14.0844
-14.0807
-14.0772
-14.0741
-14.0714
-14.0693
-14.0678
-14.0671
-14.4459
-14.4465
-14.4477
-14.4494
-14.4516
-14.4542
-14.457
-14.46
-14.4631
-14.4661
-14.4689
-14.4714
-14.4735
-14.4751
-14.4763
-14.4768
-14.4768
-14.4763
-14.4751
-14.4735
-14.4713
-14.4689
-14.4661
-14.4631
-14.46
-14.457
-14.4542
-14.4516
-14.4494
-14.4477
-14.4465
-14.4459
-14.8241
-14.8246
-14.8256
-14.827
-14.8288
-14.8309
-14.8333
-14.8357
-14.8382
-14.8407
-14.843
-14.8451
-14.8468
-14.8482
-14.8491
-14.8496
-14.8496
-14.8491
-14.8482
-14.8468
-14.8451
-14.843
-14.8407
-14.8382
-14.8357
-14.8333
-14.8309
-14.8288
-14.827
-14.8256
-14.8246
-14.8241
-15.2018
-15.2023
-15.2031
-15.2042
-15.2057
-15.2074
-15.2094
-15.2114
-15.2135
-15.2155
-15.2174
-15.2191
-15.2205
-15.2217
-15.2224
-15.2228
-15.2228
-15.2224
-15.2217
-15.2205