/*--------------------------------*- C++ -*----------------------------------*\
  =========                 |
  \\      /  F ield         | OpenFOAM: The Open Source CFD Toolbox
   \\    /   O peration     | Website:  https://openfoam.org
    \\  /    A nd           | Version:  9
     \\/     M anipulation  |
\*---------------------------------------------------------------------------*/
FoamFile
{
    format      ascii;
    class       surfaceScalarField;
    location    "0.85";
    object      phi;
}
// * * * * * * * * * * * * * * * * * * * * * * * * * * * * * * * * * * * * * //

dimensions      [0 3 -1 0 0 0 0];

internalField   nonuniform List<scalar> 
8032
(
-1.43937e-05
1.43943e-05
-2.83375e-05
1.39422e-05
-4.1248e-05
1.2911e-05
-5.26046e-05
1.13571e-05
-6.19565e-05
9.35228e-06
-6.89357e-05
6.97949e-06
-7.32675e-05
4.33202e-06
-7.47792e-05
1.5119e-06
-7.34106e-05
-1.36855e-06
-6.92084e-05
-4.2021e-06
-6.23299e-05
-6.87843e-06
-5.30377e-05
-9.2921e-06
-4.16893e-05
-1.13484e-05
-2.8723e-05
-1.29662e-05
-1.46412e-05
-1.40818e-05
9.60192e-09
-1.46507e-05
1.46603e-05
-1.46506e-05
2.87418e-05
-1.40815e-05
4.17077e-05
-1.29658e-05
5.30555e-05
-1.13478e-05
6.23469e-05
-9.29133e-06
6.92244e-05
-6.87751e-06
7.34255e-05
-4.20104e-06
7.47929e-05
-1.36737e-06
7.32797e-05
1.5132e-06
6.89463e-05
4.33342e-06
6.19654e-05
6.98097e-06
5.26116e-05
9.35385e-06
4.12528e-05
1.13588e-05
2.83401e-05
1.29128e-05
1.43958e-05
1.39443e-05
1.43959e-05
-1.50429e-05
2.9437e-05
-2.96183e-05
2.85176e-05
-4.31156e-05
2.64086e-05
-5.49884e-05
2.32303e-05
-6.47665e-05
1.91307e-05
-7.20653e-05
1.42786e-05
-7.65978e-05
8.86469e-06
-7.81834e-05
3.09759e-06
-7.67549e-05
-2.79695e-06
-7.23639e-05
-8.59296e-06
-6.51746e-05
-1.40677e-05
-5.54607e-05
-1.9006e-05
-4.35953e-05
-2.32136e-05
-3.00371e-05
-2.65244e-05
-1.53114e-05
-2.88074e-05
9.66592e-09
-2.99718e-05
1.53307e-05
-2.99716e-05
3.0056e-05
-2.88068e-05
4.36138e-05
-2.65235e-05
5.54785e-05
-2.32124e-05
6.51917e-05
-1.90045e-05
7.238e-05
-1.40658e-05
7.67698e-05
-8.59081e-06
7.8197e-05
-2.79454e-06
7.661e-05
3.10023e-06
7.20759e-05
8.86755e-06
6.47753e-05
1.42817e-05
5.49953e-05
1.91339e-05
4.31205e-05
2.32336e-05
2.96213e-05
2.6412e-05
1.50444e-05
2.85212e-05
2.94403e-05
-1.62013e-05
4.56381e-05
-3.18987e-05
4.42149e-05
-4.64367e-05
4.09467e-05
-5.92275e-05
3.60213e-05
-6.97643e-05
2.96677e-05
-7.76328e-05
2.21474e-05
-8.25231e-05
1.37551e-05
-8.42397e-05
4.81437e-06
-8.27089e-05
-4.32768e-06
-7.7984e-05
-1.33178e-05
-7.0242e-05
-2.18096e-05
-5.97773e-05
-2.94707e-05
-4.69915e-05
-3.59994e-05
-3.23787e-05
-4.11371e-05
-1.65059e-05
-4.46801e-05
9.75875e-09
-4.64874e-05
1.65253e-05
-4.64871e-05
3.23979e-05
-4.46793e-05
4.70101e-05
-4.11358e-05
5.97953e-05
-3.59975e-05
7.02592e-05
-2.94683e-05
7.80001e-05
-2.18067e-05
8.27239e-05
-1.33145e-05
8.42534e-05
-4.324e-06
8.25352e-05
4.81841e-06
7.76434e-05
1.37594e-05
6.9773e-05
2.2152e-05
5.92343e-05
2.96726e-05
4.64416e-05
3.60264e-05
3.19017e-05
4.09519e-05
1.62028e-05
4.42201e-05
4.56432e-05
-1.79418e-05
6.35798e-05
-3.5326e-05
6.1599e-05
-5.14292e-05
5.70499e-05
-6.56009e-05
5.01932e-05
-7.72801e-05
4.13471e-05
-8.60073e-05
3.08747e-05
-9.14378e-05
1.91857e-05
-9.33536e-05
6.73026e-06
-9.16711e-05
-6.01015e-06
-8.64465e-05
-1.85423e-05
-7.78743e-05
-3.03816e-05
-6.628e-05
-4.1065e-05
-5.21083e-05
-5.01709e-05
-3.59072e-05
-5.73382e-05
-1.83058e-05
-6.22814e-05
9.94236e-09
-6.48031e-05
1.83256e-05
-6.48027e-05
3.59266e-05
-6.22803e-05
5.21273e-05
-5.73364e-05
6.62983e-05
-5.01684e-05
7.78917e-05
-4.10618e-05
8.64628e-05
-3.03778e-05
9.16862e-05
-1.85378e-05
9.33674e-05
-6.00515e-06
9.14501e-05
6.73576e-06
8.60179e-05
1.91916e-05
7.7289e-05
3.0881e-05
6.56079e-05
4.13538e-05
5.14342e-05
5.02001e-05
3.53293e-05
5.70569e-05
1.79434e-05
6.1606e-05
6.35866e-05
-2.03424e-05
8.3922e-05
-4.00544e-05
8.13109e-05
-5.83177e-05
7.53132e-05
-7.43964e-05
6.62719e-05
-8.76544e-05
5.46052e-05
-9.75696e-05
4.07901e-05
-0.000103749
2.53656e-05
-0.000105944
8.92461e-06
-0.000104055
-7.89904e-06
-9.8143e-05
-2.44539e-05
-8.84263e-05
-4.00983e-05
-7.52723e-05
-5.42189e-05
-5.91854e-05
-6.62578e-05
-4.07879e-05
-7.57357e-05
-2.07958e-05
-8.22736e-05
1.02371e-08
-8.56091e-05
2.08161e-05
-8.56086e-05
4.0808e-05
-8.22721e-05
5.92049e-05
-7.57333e-05
7.52911e-05
-6.62545e-05
8.84442e-05
-5.42148e-05
9.81598e-05
-4.00933e-05
0.00010407
-2.44483e-05
0.000105958
-7.89266e-06
0.000103762
8.93163e-06
9.75805e-05
2.53732e-05
8.76634e-05
4.07982e-05
7.44036e-05
5.46136e-05
5.8323e-05
6.62807e-05
4.00578e-05
7.53221e-05
2.03441e-05
8.13198e-05
8.39307e-05
-2.34979e-05
0.00010742
-4.62704e-05
0.000104083
-6.73751e-05
9.64179e-05
-8.59636e-05
8.48605e-05
-0.000101301
6.99431e-05
-0.000112784
5.2273e-05
-0.000119955
3.25368e-05
-0.000122522
1.14913e-05
-0.000120367
-1.00543e-05
-0.000113555
-3.12656e-05
-0.000102335
-5.13186e-05
-8.71281e-05
-6.94253e-05
-6.85181e-05
-8.48677e-05
-4.72253e-05
-9.70284e-05
-2.40801e-05
-0.000105419
1.0652e-08
-0.0001097
2.41013e-05
-0.000109699
4.72462e-05
-0.000105417
6.85384e-05
-9.70255e-05
8.71476e-05
-8.48637e-05
0.000102353
-6.94203e-05
0.000113572
-5.13126e-05
0.000120383
-3.12587e-05
0.000122537
-1.00464e-05
0.000119968
1.14999e-05
0.000112796
3.25461e-05
0.000101311
5.22829e-05
8.59711e-05
6.99534e-05
6.73807e-05
8.48711e-05
4.62741e-05
9.64287e-05
2.34998e-05
0.000104094
0.000107431
-2.75267e-05
0.000134947
-5.42075e-05
0.000130764
-7.89423e-05
0.000121153
-0.00010074
0.000106658
-0.000118741
8.79438e-05
-0.000132234
6.57666e-05
-0.000140681
4.09842e-05
-0.000143734
1.45435e-05
-0.000141247
-1.25412e-05
-0.000133291
-3.92212e-05
-0.000120152
-6.44578e-05
-0.000102321
-8.7256e-05
-8.0481e-05
-0.000106708
-5.54786e-05
-0.000122031
-2.82914e-05
-0.000132606
1.11914e-08
-0.000138002
2.83137e-05
-0.000138002
5.55005e-05
-0.000132604
8.05023e-05
-0.000122027
0.000102341
-0.000106703
0.000120171
-8.72499e-05
0.000133309
-6.44506e-05
0.000141263
-3.92129e-05
0.000143749
-1.25318e-05
0.000140695
1.45538e-05
0.000132246
4.09952e-05
0.000118751
6.57783e-05
0.000100748
8.7956e-05
7.89483e-05
0.000106671
5.42114e-05
0.000121166
2.75287e-05
0.000130777
0.000134959
-3.25759e-05
0.000167522
-6.41562e-05
0.000162344
-9.34448e-05
0.000150442
-0.000119272
0.000132486
-0.000140622
0.000109293
-0.00015665
8.17948e-05
-0.000166713
5.10471e-05
-0.000170389
1.82201e-05
-0.0001675
-1.54306e-05
-0.000158119
-4.86022e-05
-0.000142576
-8.00002e-05
-0.000121451
-0.000108382
-9.5549e-05
-0.000132609
-6.58766e-05
-0.000151703
-3.3598e-05
-0.000164884
1.18595e-08
-0.000171612
3.36216e-05
-0.000171611
6.58998e-05
-0.000164882
9.55715e-05
-0.000151699
0.000121472
-0.000132604
0.000142597
-0.000108374
0.000158138
-7.99917e-05
0.000167518
-4.85923e-05
0.000170406
-1.54196e-05
0.000166727
1.82322e-05
0.000156662
5.10601e-05
0.000140632
8.18085e-05
0.000119281
0.000109308
9.34511e-05
0.000132501
6.41604e-05
0.000150456
3.2578e-05
0.000162359
0.000167537
-3.88273e-05
0.00020635
-7.64758e-05
0.000199993
-0.000111409
0.000185375
-0.000142238
0.000163315
-0.000167751
0.000134807
-0.00018694
0.000100984
-0.000199029
6.31356e-05
-0.000203503
2.26946e-05
-0.000200136
-1.87981e-05
-0.000189002
-5.97352e-05
-0.000170487
-9.85156e-05
-0.000145273
-0.000133596
-0.00011432
-0.000163561
-7.88342e-05
-0.000187189
-4.0212e-05
-0.000203506
1.26628e-08
-0.000211837
4.02372e-05
-0.000211836
7.88589e-05
-0.000203504
0.000114344
-0.000187184
0.000145296
-0.000163555
0.000170509
-0.000133588
0.000189023
-9.85057e-05
0.000200155
-5.97238e-05
0.00020352
-1.87853e-05
0.000199044
2.27086e-05
0.000186953
6.31505e-05
0.000167762
0.000101
0.000142247
0.000134823
0.000111416
0.000163332
7.64803e-05
0.000185392
3.88296e-05
0.00020001
0.000206367
-4.65031e-05
0.000252853
-9.16057e-05
0.000245096
-0.000133479
0.000227248
-0.000170467
0.000200303
-0.000201121
0.00016546
-0.000224226
0.000124088
-0.000238839
7.77494e-05
-0.000244331
2.81863e-05
-0.000240408
-2.27214e-05
-0.000227142
-7.30004e-05
-0.00020498
-0.000120678
-0.00017473
-0.000163845
-0.000137545
-0.000200747
-9.48715e-05
-0.000229862
-4.83998e-05
-0.000249978
1.36105e-08
-0.00026025
4.84269e-05
-0.000260249
9.48981e-05
-0.000249975
0.00013757
-0.000229857
0.000174755
-0.00020074
0.000205003
-0.000163836
0.000227164
-0.000120666
0.000240428
-7.29873e-05
0.000244349
-2.27068e-05
0.000238856
2.82023e-05
0.00022424
7.77665e-05
0.000201133
0.000124107
0.000170477
0.000165479
0.000133486
0.000200322
9.16106e-05
0.000227268
4.65055e-05
0.000245115
0.000252872
-5.58724e-05
0.000308725
-0.000110078
0.000299302
-0.000160438
0.000277608
-0.000204972
0.000244837
-0.000241941
0.000202429
-0.000269877
0.000152025
-0.000287631
9.55038e-05
-0.000294421
3.49758e-05
-0.000289865
-2.72767e-05
-0.000274026
-8.88392e-05
-0.000247418
-0.000147287
-0.000211001
-0.000200262
-0.000166157
-0.000245591
-0.000114638
-0.000281381
-5.84943e-05
-0.000306122
1.47152e-08
-0.000318759
5.85236e-05
-0.000318758
0.000114667
-0.000306118
0.000166185
-0.000281375
0.000211027
-0.000245582
0.000247443
-0.000200251
0.00027405
-0.000147273
0.000289887
-8.88242e-05
0.00029444
-2.726e-05
0.000287649
3.4994e-05
0.000269892
9.55232e-05
0.000241953
0.000152045
0.000204982
0.00020245
0.000160446
0.000244859
0.000110084
0.00027763
5.5875e-05
0.000299324
0.000308747
-6.7258e-05
0.000375983
-0.000132534
0.000364577
-0.000193228
0.000338301
-0.000246973
0.000298582
-0.000291677
0.000247133
-0.000325562
0.00018591
-0.000347219
0.000117161
-0.00035567
4.34266e-05
-0.000350416
-3.25302e-05
-0.000331493
-0.000107763
-0.000299489
-0.000179291
-0.000255543
-0.000244208
-0.00020132
-0.000299814
-0.000138943
-0.000343758
-7.09106e-05
-0.000374154
1.59932e-08
-0.000389686
7.09423e-05
-0.000389684
0.000138974
-0.000374149
0.00020135
-0.000343751
0.000255572
-0.000299804
0.000299516
-0.000244195
0.000331518
-0.000179276
0.00035044
-0.000107745
0.000355691
-3.25112e-05
0.000347238
4.34472e-05
0.000325578
0.000117183
0.00029169
0.000185933
0.000246983
0.000247157
0.000193236
0.000298607
0.000132539
0.000338326
6.72607e-05
0.000364602
0.000376008
-8.10443e-05
0.000457028
-0.000159735
0.000443268
-0.000232974
0.00041154
-0.000297933
0.000363541
-0.000352095
0.000301295
-0.000393299
0.000227114
-0.000419811
0.000143673
-0.000430398
5.40145e-05
-0.000424404
-3.85251e-05
-0.000401809
-0.000130357
-0.000363282
-0.000217817
-0.000310172
-0.000297317
-0.000244482
-0.000365505
-0.000168795
-0.000419445
-8.61663e-05
-0.000456783
1.74648e-08
-0.000475869
8.6201e-05
-0.000475868
0.000168829
-0.000456778
0.000244515
-0.000419437
0.000310204
-0.000365493
0.000363312
-0.000297303
0.000401837
-0.0002178
0.000424429
-0.000130338
0.000430421
-3.85035e-05
0.000419831
5.40378e-05
0.000393316
0.000143697
0.000352109
0.00022714
0.000297945
0.000301322
0.000232983
0.000363569
0.000159741
0.000411568
8.10472e-05
0.000443296
0.000457055
-9.76843e-05
0.000554712
-0.000192583
0.000538167
-0.000281013
0.000499971
-0.000359598
0.000442127
-0.000425311
0.000367008
-0.000475521
0.000277324
-0.000508083
0.000176234
-0.000521437
6.73684e-05
-0.000514702
-4.52602e-05
-0.000487771
-0.000157288
-0.000441387
-0.000264202
-0.00037714
-0.000361563
-0.000297446
-0.000445199
-0.000205453
-0.000511439
-0.000104908
-0.000557327
1.91559e-08
-0.000580796
0.000104946
-0.000580794
0.00020549
-0.000557322
0.000297482
-0.000511429
0.000377175
-0.000445186
0.000441419
-0.000361547
0.000487801
-0.000264182
0.000514729
-0.000157266
0.000521462
-4.52359e-05
0.000508105
6.73946e-05
0.00047554
0.000176262
0.000425326
0.000277353
0.00035961
0.000367038
0.000281022
0.000442158
0.000192589
0.000500001
9.76873e-05
0.000538197
0.000554743
-0.000117708
0.00067242
-0.000232133
0.000652592
-0.000338914
0.000606752
-0.000434031
0.000537244
-0.000513844
0.000446821
-0.000575147
0.000338627
-0.000615273
0.000216361
-0.000632233
8.43277e-05
-0.000624837
-5.26561e-05
-0.000592827
-0.000189297
-0.00053701
-0.000320019
-0.000459251
-0.000439322
-0.000362461
-0.000541988
-0.000250488
-0.000623412
-0.000127944
-0.000679872
2.1099e-08
-0.000708762
0.000127986
-0.000708759
0.00025053
-0.000679865
0.000362501
-0.000623401
0.000459289
-0.000541973
0.000537045
-0.000439303
0.00059286
-0.000319997
0.000624866
-0.000189272
0.000632259
-5.26286e-05
0.000615296
8.43573e-05
0.000575167
0.000216392
0.000513861
0.000338659
0.000434045
0.000446854
0.000338924
0.000537278
0.00023214
0.000606786
0.000117711
0.000652626
0.000672454
-0.000141725
0.000814145
-0.000279609
0.000790476
-0.000408508
0.000735651
-0.000523654
0.00065239
-0.000620677
0.000543844
-0.000695662
0.000413613
-0.000745283
0.000265982
-0.00076698
0.000106024
-0.000759134
-6.05013e-05
-0.000721242
-0.000227189
-0.000654139
-0.000387123
-0.000560003
-0.000533458
-0.000442343
-0.000659648
-0.000305874
-0.000759881
-0.00015629
-0.000829455
2.33348e-08
-0.000865075
0.000156337
-0.000865073
0.000305919
-0.000829448
0.000442387
-0.000759868
0.000560044
-0.00065963
0.000654177
-0.000533436
0.000721278
-0.000387098
0.000759167
-0.000227161
0.000767008
-6.04702e-05
0.000745308
0.000106058
0.000695683
0.000266017
0.000620694
0.000413649
0.000523668
0.000543881
0.000408518
0.000652428
0.000279616
0.000735688
0.000141729
0.000790513
0.000814182
-0.000170433
0.000984578
-0.000336408
0.000956451
-0.000491899
0.000891142
-0.000631277
0.000791769
-0.000749308
0.000661875
-0.000841209
0.000505513
-0.000902806
0.000327579
-0.000930779
0.000133998
-0.000922911
-6.837e-05
-0.000878296
-0.000271804
-0.000797746
-0.000467673
-0.000683778
-0.000647426
-0.000540628
-0.000802797
-0.00037409
-0.000926418
-0.000191224
-0.00101232
2.59149e-08
-0.00105633
0.000191275
-0.00105632
0.00037414
-0.00101231
0.000540676
-0.000926404
0.000683823
-0.000802777
0.000797788
-0.000647401
0.000878335
-0.000467644
0.000922945
-0.000271771
0.00093081
-6.83347e-05
0.000902832
0.000134035
0.000841231
0.000327618
0.000749327
0.000505553
0.000631292
0.000661916
0.00049191
0.00079181
0.000336415
0.000891183
0.000170437
0.000956492
0.000984619
-0.000204607
0.00118919
-0.000404097
0.00115594
-0.000591471
0.00107852
-0.000760127
0.000960424
-0.000903813
0.000805561
-0.00101668
0.000618379
-0.00109347
0.000404366
-0.00112983
0.000170363
-0.00112271
-7.54936e-05
-0.00107055
-0.000323958
-0.000974054
-0.000564172
-0.000836088
-0.000785392
-0.000661775
-0.00097711
-0.000458269
-0.00112992
-0.00023436
-0.00123623
2.89062e-08
-0.00129071
0.000234417
-0.00129071
0.000458325
-0.00123622
0.000661829
-0.00112991
0.000836138
-0.000977086
0.0009741
-0.000785363
0.00107059
-0.000564139
0.00112274
-0.000323921
0.00112986
-7.54535e-05
0.00109349
0.000170405
0.0010167
0.00040441
0.000903832
0.000618423
0.000760142
0.000805606
0.000591482
0.000960469
0.000404105
0.00107856
0.00020461
0.00115599
0.00118923
-0.000245088
0.00143427
-0.000484395
0.00139525
-0.000709871
0.00130399
-0.00091384
0.00116439
-0.00108887
0.000980593
-0.0012278
0.000757311
-0.00132398
0.000500541
-0.00137167
0.00021805
-0.0013666
-8.05634e-05
-0.0013062
-0.000384349
-0.00119089
-0.000679482
-0.0010239
-0.000952384
-0.000811437
-0.00118958
-0.00056238
-0.00137898
-0.000287742
-0.00151087
3.23926e-08
-0.00157849
0.000287807
-0.00157848
0.000562443
-0.00151086
0.000811496
-0.00137896
0.00102396
-0.00118955
0.00119095
-0.00095235
0.00130625
-0.000679443
0.00136664
-0.000384306
0.0013717
-8.05178e-05
0.00132401
0.000218097
0.00122783
0.00050059
0.00108889
0.00075736
0.000913855
0.000980642
0.000709882
0.00116444
0.000484402
0.00130404
0.000245092
0.0013953
0.00143432
-0.000292761
0.00172703
-0.000579118
0.00168161
-0.000849951
0.00157482
-0.00109643
0.00141087
-0.00130978
0.00119394
-0.00148123
0.000928768
-0.00160233
0.000621634
-0.00166543
0.000281151
-0.00166457
-8.1423e-05
-0.00159554
-0.000453378
-0.00145819
-0.000816829
-0.00125609
-0.00115448
-0.000996812
-0.00144886
-0.000691481
-0.00168431
-0.000353977
-0.00184837
3.64777e-08
-0.0019325
0.000354049
-0.0019325
0.000691551
-0.00184836
0.000996879
-0.00168429
0.00125616
-0.00144883
0.00145825
-0.00115444
0.00159559
-0.000816784
0.00166461
-0.000453329
0.00166546
-8.13708e-05
0.00160236
0.000281204
0.00148126
0.000621688
0.0013098
0.000928822
0.00109644
0.00119399
0.000849962
0.00141092
0.000579125
0.00157488
0.000292764
0.00168166
0.00172709
-0.000348494
0.00207553
-0.000690095
0.00202321
-0.00101466
0.00189938
-0.00131218
0.00170839
-0.00157238
0.00145414
-0.00178457
0.00114096
-0.00193793
0.000774993
-0.00202221
0.000365432
-0.00202904
-7.45891e-05
-0.00195155
-0.000530871
-0.0017886
-0.000979777
-0.00154403
-0.00139906
-0.00122716
-0.00176573
-0.000852089
-0.00205938
-0.000436426
-0.00226404
4.13005e-08
-0.00236897
0.000436508
-0.00236896
0.000852168
-0.00226402
0.00122723
-0.00205935
0.0015441
-0.00176569
0.00178866
-0.00139901
0.00195161
-0.000979725
0.00202909
-0.000530814
0.00202225
-7.4529e-05
0.00193796
0.000365493
0.0017846
0.000775053
0.0015724
0.00114102
0.00131219
0.0014542
0.00101467
0.00170845
0.000690102
0.00189944
0.000348497
0.00202326
0.00207558
-0.000413066
0.00248859
-0.00081901
0.00242915
-0.00120683
0.0022872
-0.00156543
0.00206699
-0.00188293
0.00177165
-0.00214635
0.00140438
-0.00234182
0.00097046
-0.00245544
0.000479054
-0.00247553
-5.44985e-05
-0.00239077
-0.000615629
-0.00219841
-0.00117214
-0.0019025
-0.00169497
-0.00151464
-0.00215359
-0.0010528
-0.00252122
-0.000539514
-0.00277732
4.70515e-08
-0.00290853
0.000539607
-0.00290852
0.00105289
-0.0027773
0.00151473
-0.00252119
0.00190258
-0.00215354
0.00219848
-0.00169491
0.00239083
-0.00117208
0.00247558
-0.000615563
0.00245548
-5.44286e-05
0.00234185
0.000479123
0.00214637
0.000970528
0.00188295
0.00140445
0.00156544
0.00177171
0.00120684
0.00206705
0.000819016
0.00228726
0.000413069
0.00242921
0.00248865
-0.000487037
0.00297563
-0.000967165
0.00290928
-0.00142887
0.00274891
-0.00186024
0.00249835
-0.00224777
0.00215918
-0.00257585
0.00173246
-0.00282671
0.00122132
-0.00298123
0.000633578
-0.00302342
-1.23168e-05
-0.00293437
-0.000704673
-0.00270902
-0.00139749
-0.00235126
-0.00205273
-0.00187512
-0.00262973
-0.00130427
-0.00309207
-0.00066849
-0.0034131
5.40299e-08
-0.00357708
0.000668597
-0.00357707
0.00130437
-0.00341307
0.00187521
-0.00309203
0.00235134
-0.00262967
0.00270909
-0.00205266
0.00293444
-0.00139742
0.00302347
-0.000704596
0.00298127
-1.22332e-05
0.00282674
0.000633655
0.00257587
0.0012214
0.00224779
0.00173253
0.00186025
0.00215925
0.00142888
0.00249842
0.000967169
0.00274897
0.000487039
0.00290934
0.00297569
-0.000570569
0.0035462
-0.00113513
0.00347384
-0.00168229
0.00329607
-0.00219978
0.00301585
-0.00267277
0.00263217
-0.00308271
0.0021424
-0.00340706
0.00154567
-0.00362
0.000846514
-0.00369543
6.31119e-05
-0.00360878
-0.000791317
-0.00334613
-0.00166015
-0.00290984
-0.00248902
-0.00231934
-0.00322023
-0.00161047
-0.00380094
-0.000824086
-0.00419948
6.22879e-08
-0.00440122
0.000824209
-0.00440121
0.00161059
-0.00419945
0.00231945
-0.00380089
0.00290993
-0.00322016
0.00334621
-0.00248894
0.00360885
-0.00166006
0.00369548
-0.000791223
0.00362004
6.32036e-05
0.00340709
0.000846605
0.00308273
0.00154576
0.00267278
0.00214248
0.00219979
0.00263225
0.00168229
0.00301592
0.00113513
0.00329613
0.00057057
0.0034739
0.00354626
-0.000663176
0.00420938
-0.00132225
0.00413291
-0.0019669
0.00394072
-0.00258546
0.00363441
-0.00316234
0.00320905
-0.00367597
0.00265603
-0.00409753
0.00196723
-0.00439122
0.0011402
-0.00451592
0.000187812
-0.00443259
-0.000874651
-0.00410741
-0.00198533
-0.00354636
-0.00305006
-0.00279494
-0.00397165
-0.00191787
-0.00467802
-0.00097267
-0.00514468
6.93278e-08
-0.00537396
0.000972808
-0.00537395
0.001918
-0.00514465
0.00279507
-0.00467796
0.00354648
-0.00397157
0.00410751
-0.00304997
0.00443267
-0.00198522
0.00451598
-0.000874537
0.00439126
0.000187921
0.00409756
0.00114031
0.00367598
0.00196733
0.00316235
0.00265612
0.00258546
0.00320913
0.0019669
0.00363448
0.00132225
0.00394079
0.000663175
0.00413297
0.00420944
-0.000763407
0.00497278
-0.00152597
0.00489548
-0.00227989
0.00469464
-0.00301551
0.00437003
-0.00371771
0.00391125
-0.00436165
0.00329997
-0.00490813
0.00251372
-0.00530082
0.00153289
-0.00546593
0.000352925
-0.00532059
-0.00102
-0.00480465
-0.00250127
-0.00400111
-0.0038536
-0.0030249
-0.00494786
-0.00200059
-0.00570232
-0.000989818
-0.00615545
6.59148e-08
-0.00636385
0.000989951
-0.00636384
0.00200073
-0.00615543
0.00302504
-0.00570227
0.00400125
-0.00494778
0.00480477
-0.00385349
0.00532068
-0.00250113
0.005466
-0.00101985
0.00530086
0.000353059
0.00490816
0.00153301
0.00436166
0.00251383
0.00371771
0.00330007
0.00301551
0.00391133
0.00227988
0.00437011
0.00152597
0.0046947
0.000763405
0.00489554
0.00497284
-0.000868466
0.00584125
-0.00174108
0.00576809
-0.00261447
0.00556803
-0.00348329
0.00523885
-0.00433445
0.00476241
-0.00513607
0.00410159
-0.00582113
0.00319878
-0.00627686
0.00198862
-0.00634915
0.00042521
-0.00588666
-0.00148249
-0.00490084
-0.00348709
-0.0037094
-0.00504504
-0.0025767
-0.00608056
-0.00160805
-0.00667098
-0.0007712
-0.0069923
4.54295e-08
-0.00713509
0.000771294
-0.00713509
0.00160815
-0.00699228
0.00257683
-0.00667094
0.00370954
-0.00608049
0.00490098
-0.00504493
0.00588678
-0.00348693
0.00634923
-0.0014823
0.00627691
0.000425382
0.00582115
0.00198877
0.00513607
0.00319891
0.00433444
0.0041017
0.00348328
0.00476249
0.00261446
0.00523892
0.00174107
0.00556809
0.000868461
0.00576815
0.0058413
-0.000973804
0.00681505
-0.00195877
0.00675306
-0.0029585
0.00656776
-0.00397506
0.00625541
-0.00499729
0.00578463
-0.0059683
0.00507261
-0.0067451
0.00397558
-0.00707291
0.00231643
-0.00663388
-1.38152e-05
-0.00538158
-0.00273479
-0.00397617
-0.0048925
-0.00283554
-0.00618567
-0.0019612
-0.0069549
-0.00124249
-0.00738969
-0.000604265
-0.00763052
3.14849e-08
-0.00773939
0.00060433
-0.00773938
0.00124256
-0.00763051
0.00196128
-0.00738967
0.00283564
-0.00695485
0.0039763
-0.00618559
0.00538172
-0.00489236
0.006634
-0.00273458
0.00707297
-1.35817e-05
0.00674511
0.00231662
0.00596829
0.00397573
0.00499726
0.00507273
0.00397503
0.00578472
0.00295848
0.00625548
0.00195876
0.00656781
0.000973796
0.00675311
0.0068151
-0.00107278
0.00788784
-0.00216591
0.00784619
-0.00329317
0.00769501
-0.004467
0.00742924
-0.0056676
0.00698523
-0.0067597
0.00616471
-0.00741834
0.00463421
-0.00711797
0.00201607
-0.00570012
-0.00143167
-0.00418336
-0.00425155
-0.00317774
-0.00589812
-0.00241563
-0.00694778
-0.00174377
-0.00762676
-0.00113761
-0.00799584
-0.000564255
-0.00820388
2.64872e-08
-0.00830367
0.000564309
-0.00830367
0.00113767
-0.00820387
0.00174383
-0.00799583
0.0024157
-0.00762672
0.00317782
-0.0069477
0.00418347
-0.00589801
0.00570026
-0.00425137
0.00711808
-0.0014314
0.00741836
0.00201634
0.00675968
0.00463441
0.00566756
0.00616485
0.00446696
0.00698532
0.00329313
0.00742931
0.00216589
0.00769506
0.00107277
0.00784623
0.00788787
-0.00115655
0.00904439
-0.00234471
0.00903434
-0.00359192
0.00894223
-0.00491765
0.00875497
-0.00624912
0.00831671
-0.00727624
0.00719183
-0.0073621
0.00472007
-0.0059891
0.000643064
-0.00438077
-0.00304001
-0.00353123
-0.00510109
-0.00305057
-0.00637878
-0.00250509
-0.00749325
-0.00186426
-0.00826759
-0.00123037
-0.00862974
-0.000613945
-0.0088203
2.57704e-08
-0.00891764
0.000613998
-0.00891764
0.00123042
-0.0088203
0.00186433
-0.00862973
0.00250516
-0.00826755
0.00305062
-0.00749317
0.00353128
-0.00637866
0.00438086
-0.00510095
0.00598924
-0.00303978
0.00736218
0.000643397
0.00727623
0.00472037
0.00624906
0.00719201
0.00491759
0.0083168
0.00359187
0.00875502
0.00234467
0.00894226
0.00115653
0.00903436
0.0090444
-0.00121418
0.0102586
-0.00247248
0.0102926
-0.00381641
0.0102862
-0.00524864
0.0101872
-0.00656
0.00962807
-0.00726007
0.0078919
-0.00629512
0.00375513
-0.00458477
-0.00106729
-0.00369623
-0.00392854
-0.00349682
-0.0053005
-0.00335818
-0.00651742
-0.00282198
-0.00802946
-0.00208537
-0.00900419
-0.00136068
-0.00935443
-0.000674436
-0.00950654
2.3555e-08
-0.0095921
0.000674486
-0.0095921
0.00136074
-0.00950655
0.00208544
-0.00935444
0.00282205
-0.00900416
0.00335822
-0.00802934
0.00349682
-0.00651726
0.00369625
-0.00530038
0.00458485
-0.00392838
0.00629523
-0.00106699
0.00726007
0.00375553
0.00655993
0.00789215
0.00524855
0.00962818
0.00381634
0.0101872
0.00247243
0.0102862
0.00121416
0.0102926
0.0102586
-0.00123401
0.0114926
-0.00252288
0.0115815
-0.00391179
0.0116751
-0.00533464
0.01161
-0.0064386
0.010732
-0.00646446
0.00791776
-0.00488466
0.00217532
-0.00371416
-0.00223779
-0.00340014
-0.00424256
-0.00361581
-0.00508483
-0.00361828
-0.00651494
-0.00306254
-0.0085852
-0.00223544
-0.00983128
-0.00143807
-0.0101518
-0.000703787
-0.0102408
1.79549e-08
-0.0102959
0.000703827
-0.0102959
0.00143812
-0.0102408
0.0022355
-0.0101518
0.0030626
-0.00983125
0.0036183
-0.00858505
0.00361576
-0.00651472
0.0034001
-0.00508472
0.00371419
-0.00424247
0.00488475
-0.00223755
0.00646451
0.00217577
0.00643852
0.00791814
0.00533454
0.0107322
0.00391171
0.0116101
0.00252283
0.0116751
0.00123398
0.0115815
0.0114925
-0.00120493
0.0126975
-0.00247276
0.0128493
-0.00383532
0.0130376
-0.00514728
0.012922
-0.00601725
0.011602
-0.0052636
0.00716411
-0.0038919
0.000803618
-0.00307068
-0.00305901
-0.00306165
-0.0042516
-0.00351099
-0.00463549
-0.00360785
-0.00641808
-0.00306829
-0.00912477
-0.00221989
-0.0106797
-0.00142144
-0.0109502
-0.000687017
-0.0109753
8.91037e-09
-0.0109829
0.000687039
-0.0109829
0.00142147
-0.0109753
0.00221993
-0.0109503
0.00306832
-0.0106796
0.00360784
-0.00912456
0.00351091
-0.0064178
0.00306157
-0.00463538
0.00307067
-0.00425157
0.00389196
-0.00305883
0.00526369
0.000804037
0.00601716
0.00716467
0.00514717
0.0116021
0.00383522
0.012922
0.00247269
0.0130376
0.00120489
0.0128493
0.0126974
-0.00111651
0.013814
-0.00229703
0.0140299
-0.00354656
0.0142872
-0.00468353
0.014059
-0.00528699
0.0122055
-0.0041973
0.00607442
-0.00319043
-0.000203242
-0.00257025
-0.0036792
-0.00261672
-0.00420512
-0.00317565
-0.00407656
-0.00330859
-0.00628514
-0.00273147
-0.00970188
-0.00197244
-0.0114387
-0.00127893
-0.0116438
-0.00061764
-0.0116365
-2.95356e-09
-0.0116006
0.000617636
-0.0116006
0.00127893
-0.0116366
0.00197243
-0.0116438
0.00273147
-0.0114387
0.00330852
-0.00970161
0.00317553
-0.0062848
0.00261663
-0.00407648
0.00257024
-0.00420518
0.00319048
-0.00367907
0.00419734
-0.000202828
0.00528694
0.00607507
0.00468341
0.0122057
0.00354646
0.014059
0.00229696
0.0142871
0.00111647
0.0140298
0.0138139
-0.000962736
0.0147767
-0.00198005
0.0150472
-0.00303829
0.0153454
-0.00398646
0.0150071
-0.00440558
0.0126246
-0.00359304
0.00526188
-0.00288509
-0.00091119
-0.00244986
-0.00411443
-0.0023272
-0.00432778
-0.00243722
-0.00396654
-0.00238621
-0.00633615
-0.00203561
-0.0100525
-0.00154274
-0.0119316
-0.00103265
-0.0121538
-0.000506034
-0.0121632
-1.58927e-08
-0.0121066
0.000506001
-0.0121066
0.00103262
-0.0121632
0.0015427
-0.0121539
0.00203555
-0.0119315
0.00238606
-0.0100521
0.00243711
-0.00633585
0.00232714
-0.0039665
0.00244987
-0.00432791
0.00288513
-0.00411434
0.003593
-0.000910699
0.00440552
0.00526255
0.00398632
0.0126249
0.00303818
0.0150071
0.00197996
0.0153453
0.000962696
0.015047
0.0147766
-0.00074017
0.0155169
-0.00151844
0.0158254
-0.00232517
0.0161521
-0.00307853
0.0157605
-0.00345039
0.0129964
-0.00315173
0.00496322
-0.00293636
-0.00112656
-0.0027786
-0.00427219
-0.00249265
-0.00461373
-0.00203744
-0.00442175
-0.00157244
-0.00680115
-0.00135667
-0.0102683
-0.00108906
-0.0121992
-0.000756942
-0.012486
-0.00037994
-0.0125402
-2.78283e-08
-0.0124865
0.000379883
-0.0124865
0.000756877
-0.0125402
0.00108898
-0.012486
0.00135659
-0.0121991
0.00157236
-0.0102679
0.00203743
-0.00680092
0.00249266
-0.00442174
0.00277865
-0.00461389
0.00293635
-0.00427204
0.0031517
-0.00112605
0.00345032
0.00496393
0.00307838
0.0129968
0.00232504
0.0157604
0.00151836
0.016152
0.000740129
0.0158253
0.0155167
-0.000455772
0.0159727
-0.000930879
0.0163006
-0.00143
0.0166513
-0.00194576
0.0162763
-0.00236587
0.0134165
-0.00276338
0.00536073
-0.00309716
-0.000792779
-0.00323636
-0.00413299
-0.00279951
-0.00505058
-0.0019611
-0.00526016
-0.00112032
-0.00764192
-0.000811084
-0.0105775
-0.000696379
-0.0123139
-0.000506889
-0.0126754
-0.000261147
-0.0127859
-3.7272e-08
-0.0127476
0.00026107
-0.0127476
0.000506806
-0.0127859
0.000696278
-0.0126754
0.000810975
-0.0123138
0.00112026
-0.0105772
0.00196112
-0.00764177
0.00279953
-0.00526015
0.00323634
-0.0050507
0.00309709
-0.00413278
0.00276325
-0.000792211
0.00236567
0.00536151
0.00194559
0.0134169
0.00142987
0.0162762
0.000930799
0.016651
0.000455733
0.0163003
0.0159725
-0.000121167
0.0160939
-0.00025883
0.0164382
-0.000393206
0.0167856
-0.000571593
0.0164547
-0.000985637
0.0138306
-0.00203631
0.00641141
-0.00285402
2.49254e-05
-0.00332255
-0.00366445
-0.00296093
-0.00541221
-0.00186136
-0.00635973
-0.000809406
-0.00869387
-0.000397075
-0.0109898
-0.000383925
-0.0123271
-0.000297363
-0.012762
-0.000158245
-0.012925
-4.33801e-08
-0.0129058
0.000158154
-0.0129058
0.000297269
-0.012925
0.000383817
-0.012762
0.000396976
-0.012327
0.000809377
-0.0109896
0.00186139
-0.00869379
0.00296097
-0.00635974
0.00332247
-0.00541221
0.00285387
-0.00366418
0.00203605
2.56132e-05
0.000985367
0.00641219
0.000571426
0.0138308
0.000393097
0.0164545
0.000258764
0.0167854
0.000121137
0.016438
0.0160936
0.000189237
0.0159046
0.00041548
0.016212
0.000696731
0.0165044
0.000987877
0.0161635
0.000909235
0.0139092
-0.000409973
0.00773062
-0.00171141
0.00132637
-0.00247196
-0.0029039
-0.00239628
-0.00548789
-0.00133858
-0.00741744
-0.000377623
-0.00965483
-4.89755e-05
-0.0113185
-0.000125576
-0.0122505
-0.000122227
-0.0127654
-7.26032e-05
-0.0129747
-4.75273e-08
-0.0129784
7.25048e-05
-0.0129784
0.000122128
-0.0129747
0.000125457
-0.0127653
4.88618e-05
-0.0122504
0.000377596
-0.0113183
0.00133856
-0.00965475
0.00239618
-0.00741736
0.00247169
-0.00548771
0.00171105
-0.00290355
0.000409678
0.00132699
-0.00090949
0.00773136
-0.000987996
0.0139093
-0.000696805
0.0161633
-0.000415524
0.0165041
-0.000189258
0.0162117
0.0159043
0.000482628
0.015422
0.00103203
0.0156626
0.00168431
0.0158521
0.00240463
0.0154432
0.00284376
0.0134701
0.00195572
0.00861866
0.000585227