/*--------------------------------*- C++ -*----------------------------------*\
  =========                 |
  \\      /  F ield         | OpenFOAM: The Open Source CFD Toolbox
   \\    /   O peration     | Website:  https://openfoam.org
    \\  /    A nd           | Version:  9
     \\/     M anipulation  |
\*---------------------------------------------------------------------------*/
FoamFile
{
    format      ascii;
    class       volVectorField;
    location    "0.85";
    object      U;
}
// * * * * * * * * * * * * * * * * * * * * * * * * * * * * * * * * * * * * * //

dimensions      [0 1 -1 0 0 0 0];

internalField   nonuniform List<vector> 
4096
(
(-0.00231365 0.00227849 0)
(-0.00689373 0.00220805 0)
(-0.011226 0.00204475 0)
(-0.0151438 0.00179863 0)
(-0.0184866 0.00148111 0)
(-0.0211224 0.00110532 0)
(-0.0229482 0.000686005 0)
(-0.0238909 0.000239103 0)
(-0.0239142 -0.000216446 0)
(-0.0230156 -0.000665263 0)
(-0.0212274 -0.00108914 0)
(-0.0186179 -0.00147136 0)
(-0.0152869 -0.00179695 0)
(-0.0113631 -0.00205312 0)
(-0.00699807 -0.00222974 0)
(-0.00236126 -0.00231983 0)
(0.0023674 -0.00231982 0)
(0.00700416 -0.0022297 0)
(0.011369 -0.00205305 0)
(0.0152927 -0.00179685 0)
(0.0186234 -0.00147124 0)
(0.0212327 -0.001089 0)
(0.0230205 -0.000665095 0)
(0.0239187 -0.000216258 0)
(0.0238951 0.000239309 0)
(0.0229518 0.000686227 0)
(0.0211256 0.00110556 0)
(0.0184891 0.00148136 0)
(0.0151457 0.00179889 0)
(0.0112272 0.00204502 0)
(0.00689447 0.0022084 0)
(0.00231398 0.0022787 0)
(-0.00241771 0.00695109 0)
(-0.00720335 0.00673644 0)
(-0.01173 0.00623813 0)
(-0.0158241 0.00548729 0)
(-0.0193178 0.00451876 0)
(-0.022073 0.0033725 0)
(-0.0239819 0.00209355 0)
(-0.0249689 0.000731233 0)
(-0.024994 -0.000660838 0)
(-0.0240556 -0.00202962 0)
(-0.0221876 -0.00332259 0)
(-0.0194608 -0.0044888 0)
(-0.0159796 -0.00548235 0)
(-0.0118783 -0.0062641 0)
(-0.00731558 -0.00680313 0)
(-0.00246849 -0.00707807 0)
(0.00247467 -0.00707803 0)
(0.0073217 -0.006803 0)
(0.0118843 -0.00626389 0)
(0.0159855 -0.00548206 0)
(0.0194664 -0.00448842 0)
(0.0221929 -0.00332214 0)
(0.0240606 -0.00202911 0)
(0.0249986 -0.000660264 0)
(0.024973 0.000731864 0)
(0.0239855 0.00209423 0)
(0.0220761 0.00337322 0)
(0.0193203 0.00451952 0)
(0.015826 0.0054881 0)
(0.0117313 0.00623896 0)
(0.00720406 0.00673732 0)
(0.00241793 0.00695185 0)
(-0.00260387 0.0119104 0)
(-0.00775795 0.011543 0)
(-0.0126333 0.0106894 0)
(-0.0170435 0.00940323 0)
(-0.0208077 0.00774419 0)
(-0.0237773 0.00578062 0)
(-0.0258358 0.00358958 0)
(-0.0269019 0.00125556 0)
(-0.0269318 -0.00113056 0)
(-0.0259229 -0.00347678 0)
(-0.023912 -0.00569285 0)
(-0.0209749 -0.00769198 0)
(-0.0172242 -0.00939543 0)
(-0.0128042 -0.0107359 0)
(-0.00788619 -0.0116602 0)
(-0.00266123 -0.0121317 0)
(0.00266747 -0.0121316 0)
(0.00789237 -0.01166 0)
(0.0128103 -0.0107355 0)
(0.01723 -0.00939493 0)
(0.0209806 -0.00769136 0)
(0.0239173 -0.0056921 0)
(0.0259279 -0.00347591 0)
(0.0269364 -0.00112959 0)
(0.026906 0.00125663 0)
(0.0258395 0.00359073 0)
(0.0237804 0.00578185 0)
(0.0208102 0.00774548 0)
(0.0170454 0.00940459 0)
(0.0126346 0.0106908 0)
(0.00775869 0.0115444 0)
(0.00260411 0.0119118 0)
(-0.00288358 0.0173302 0)
(-0.00859136 0.016796 0)
(-0.0139911 0.015555 0)
(-0.0188766 0.0136846 0)
(-0.023048 0.0112718 0)
(-0.0263405 0.00841573 0)
(-0.0286248 0.00522829 0)
(-0.0298102 0.00183231 0)
(-0.0298481 -0.00164068 0)
(-0.0287341 -0.00505635 0)
(-0.0265087 -0.00828281 0)
(-0.0232556 -0.0111939 0)
(-0.0190991 -0.0136749 0)
(-0.0141992 -0.0156275 0)
(-0.00874599 -0.016974 0)
(-0.00295165 -0.017661 0)
(0.00295801 -0.0176609 0)
(0.00875228 -0.0169737 0)
(0.0142054 -0.0156269 0)
(0.019105 -0.0136742 0)
(0.0232613 -0.011193 0)
(0.0265141 -0.00828174 0)
(0.0287392 -0.00505511 0)
(0.0298527 -0.00163929 0)
(0.0298144 0.00183383 0)
(0.0286285 0.00522994 0)
(0.0263436 0.00841749 0)
(0.0230505 0.0112736 0)
(0.0188785 0.0136865 0)
(0.0139924 0.0155569 0)
(0.00859213 0.016798 0)
(0.00288383 0.0173321 0)
(-0.00326935 0.0234063 0)
(-0.00974095 0.0226858 0)
(-0.0158642 0.0210112 0)
(-0.021406 0.0184873 0)
(-0.0261399 0.0152308 0)
(-0.0298789 0.0113754 0)
(-0.0324759 0.00707146 0)
(-0.0338273 0.00248478 0)
(-0.033877 -0.00220755 0)
(-0.0326191 -0.006824 0)
(-0.0300984 -0.0111857 0)
(-0.0264091 -0.0151219 0)
(-0.021692 -0.0184774 0)
(-0.0161288 -0.0211187 0)
(-0.00993537 -0.0229406 0)
(-0.00335341 -0.02387 0)
(0.00335996 -0.0238699 0)
(0.00994185 -0.0229401 0)
(0.0161351 -0.021118 0)
(0.0216981 -0.0184765 0)
(0.026415 -0.0151208 0)
(0.030104 -0.0111843 0)
(0.0326243 -0.00682237 0)
(0.0338818 -0.00220574 0)
(0.0338316 0.00248678 0)
(0.0324796 0.00707362 0)
(0.0298821 0.0113777 0)
(0.0261425 0.0152333 0)
(0.021408 0.0184898 0)
(0.0158656 0.0210138 0)
(0.00974178 0.0226883 0)
(0.00326962 0.0234088 0)
(-0.00377643 0.030364 0)
(-0.0112521 0.0294307 0)
(-0.0183269 0.0272613 0)
(-0.0247322 0.0239909 0)
(-0.0302067 0.0197705 0)
(-0.0345342 0.0147722 0)
(-0.0375443 0.00919081 0)
(-0.039116 0.00324052 0)
(-0.0391832 -0.00284939 0)
(-0.0377375 -0.00884335 0)
(-0.0348292 -0.0145085 0)
(-0.0305663 -0.0196228 0)
(-0.0251111 -0.0239836 0)
(-0.0186736 -0.0274172 0)
(-0.0115042 -0.029786 0)
(-0.00388338 -0.0309946 0)
(0.00389019 -0.0309945 0)
(0.0115109 -0.0297855 0)
(0.0186802 -0.0274164 0)
(0.0251175 -0.0239825 0)
(0.0305725 -0.0196213 0)
(0.034835 -0.0145068 0)
(0.0377428 -0.00884132 0)
(0.0391881 -0.00284712 0)
(0.0391204 0.00324301 0)
(0.0375482 0.0091935 0)
(0.0345376 0.0147751 0)
(0.0302094 0.0197735 0)
(0.0247342 0.023994 0)
(0.0183284 0.0272644 0)
(0.011253 0.0294338 0)
(0.00377672 0.0303671 0)
(-0.00442382 0.0384621 0)
(-0.0131816 0.0372822 0)
(-0.0214716 0.0345388 0)
(-0.0289804 0.0304025 0)
(-0.0354025 0.025063 0)
(-0.0404843 0.0187371 0)
(-0.0440249 0.0116701 0)
(-0.0458812 0.00413241 0)
(-0.0459737 -0.00358606 0)
(-0.0442905 -0.0111869 0)
(-0.0408885 -0.0183743 0)
(-0.0358929 -0.0248654 0)
(-0.0294932 -0.0304023 0)
(-0.021936 -0.0347633 0)
(-0.0135157 -0.0377725 0)
(-0.00456295 -0.0393082 0)
(0.00457011 -0.0393079 0)
(0.0135228 -0.0377719 0)
(0.0219429 -0.0347623 0)
(0.0294999 -0.0304009 0)
(0.0358993 -0.0248636 0)
(0.0408945 -0.0183722 0)
(0.0442961 -0.0111845 0)
(0.0459788 -0.00358331 0)
(0.0458858 0.00413542 0)
(0.0440289 0.0116733 0)
(0.0404877 0.0187405 0)
(0.0354053 0.0250666 0)
(0.0289827 0.0304062 0)
(0.0214732 0.0345426 0)
(0.0131825 0.0372859 0)
(0.00442413 0.0384658 0)
(-0.00523514 0.0480014 0)
(-0.0155997 0.0465324 0)
(-0.0254138 0.0431161 0)
(-0.0343076 0.0379635 0)
(-0.0419203 0.03131 0)
(-0.0479516 0.0234236 0)
(-0.0521622 0.0146083 0)
(-0.0543805 0.00520048 0)
(-0.0545095 -0.00443917 0)
(-0.0525322 -0.0139381 0)
(-0.0485131 -0.0229257 0)
(-0.0425986 -0.0310469 0)
(-0.0350121 -0.0379775 0)
(-0.0260459 -0.0434383 0)
(-0.0160503 -0.0472075 0)
(-0.00541932 -0.0491313 0)
(0.00542691 -0.049131 0)
(0.0160578 -0.0472068 0)
(0.0260532 -0.0434371 0)
(0.0350191 -0.0379759 0)
(0.0426054 -0.0310448 0)
(0.0485195 -0.0229232 0)
(0.0525382 -0.0139352 0)
(0.054515 -0.00443592 0)
(0.0543854 0.00520404 0)
(0.0521665 0.0146122 0)
(0.0479552 0.0234276 0)
(0.0419233 0.0313142 0)
(0.0343099 0.0379679 0)
(0.0254155 0.0431205 0)
(0.0156008 0.0465369 0)
(0.00523548 0.0480058 0)
(-0.00623961 0.059335 0)
(-0.0185939 0.0575248 0)
(-0.030296 0.053313 0)
(-0.0409075 0.0469589 0)
(-0.0499992 0.0387499 0)
(-0.0572127 0.0290143 0)
(-0.0622607 0.0181247 0)
(-0.0649354 0.0064943 0)
(-0.0651171 -0.00543192 0)
(-0.0627811 -0.0171934 0)
(-0.0580006 -0.0283298 0)
(-0.0509472 -0.0383995 0)
(-0.0418862 -0.0469978 0)
(-0.0311669 -0.0537758 0)
(-0.0192092 -0.0584557 0)
(-0.0064868 -0.0608448 0)
(0.0064949 -0.0608445 0)
(0.0192172 -0.0584548 0)
(0.0311747 -0.0537744 0)
(0.0418938 -0.0469959 0)
(0.0509544 -0.038397 0)
(0.0580074 -0.0283269 0)
(0.0627874 -0.01719 0)
(0.0651229 -0.00542813 0)
(0.0649406 0.00649845 0)
(0.0622653 0.0181291 0)
(0.0572166 0.029019 0)
(0.0500024 0.0387548 0)
(0.04091 0.0469639 0)
(0.0302978 0.0533181 0)
(0.0185949 0.0575299 0)
(0.00623997 0.0593401 0)
(-0.00747288 0.0728803 0)
(-0.0222704 0.0706652 0)
(-0.0362929 0.0655089 0)
(-0.0490178 0.0577268 0)
(-0.0599329 0.0476674 0)
(-0.068608 0.0357286 0)
(-0.0746963 0.0223635 0)
(-0.0779438 0.00807621 0)
(-0.0782015 -0.0065886 0)
(-0.0754334 -0.0210647 0)
(-0.0697218 -0.0347839 0)
(-0.0612684 -0.0471989 0)
(-0.0503894 -0.0578074 0)
(-0.0375042 -0.0661745 0)
(-0.0231196 -0.0719541 0)
(-0.00780845 -0.0749052 0)
(0.00781715 -0.0749049 0)
(0.0231282 -0.0719531 0)
(0.0375127 -0.0661728 0)
(0.0503975 -0.0578051 0)
(0.0612761 -0.0471961 0)
(0.069729 -0.0347805 0)
(0.0754402 -0.0210608 0)
(0.0782076 -0.00658422 0)
(0.0779493 0.00808099 0)
(0.0747012 0.0223686 0)
(0.0686122 0.035734 0)
(0.0599363 0.047673 0)
(0.0490205 0.0577326 0)
(0.0362948 0.0655148 0)
(0.0222716 0.0706711 0)
(0.00747326 0.0728862 0)
(-0.00897813 0.0891329 0)
(-0.0267584 0.0864364 0)
(-0.043616 0.0801556 0)
(-0.0589275 0.0706717 0)
(-0.0720792 0.0584041 0)
(-0.0825536 0.0438319 0)
(-0.0899296 0.0275017 0)
(-0.0938951 0.0100255 0)
(-0.0942624 -0.0079336 0)
(-0.0909796 -0.0256824 0)
(-0.0841372 -0.0425214 0)
(-0.0739723 -0.0577746 0)
(-0.0608628 -0.0708192 0)
(-0.0453141 -0.0811146 0)
(-0.0279403 -0.0882296 0)
(-0.00943809 -0.0918638 0)
(0.0094475 -0.0918634 0)
(0.0279496 -0.0882285 0)
(0.0453232 -0.0811127 0)
(0.0608715 -0.0708165 0)
(0.0739807 -0.0577713 0)
(0.084145 -0.0425174 0)
(0.0909869 -0.0256779 0)
(0.0942691 -0.0079286 0)
(0.093901 0.010031 0)
(0.0899348 0.0275075 0)
(0.0825581 0.043838 0)
(0.0720829 0.0584105 0)
(0.0589303 0.0706782 0)
(0.043618 0.0801622 0)
(0.0267597 0.0864431 0)
(0.00897854 0.0891395 0)
(-0.0108072 0.108683 0)
(-0.0322128 0.105413 0)
(-0.0525199 0.0977926 0)
(-0.0709845 0.0862786 0)
(-0.086871 0.0713725 0)
(-0.0995546 0.0536469 0)
(-0.108522 0.0337581 0)
(-0.113388 0.0124445 0)
(-0.113914 -0.00948951 0)
(-0.110025 -0.0311971 0)
(-0.101817 -0.0518192 0)
(-0.0895681 -0.0705212 0)
(-0.0737306 -0.0865312 0)
(-0.0549155 -0.0991773 0)
(-0.0338693 -0.107922 0)
(-0.0114429 -0.11239 0)
(0.0114531 -0.112389 0)
(0.0338794 -0.10792 0)
(0.0549253 -0.0991751 0)
(0.0737401 -0.0865282 0)
(0.0895771 -0.0705174 0)
(0.101825 -0.0518147 0)
(0.110032 -0.031192 0)
(0.113921 -0.00948381 0)
(0.113395 0.0124507 0)
(0.108528 0.0337647 0)
(0.0995593 0.0536538 0)
(0.0868749 0.0713798 0)
(0.0709876 0.086286 0)
(0.0525221 0.0978001 0)
(0.0322141 0.105421 0)
(0.0108076 0.10869 0)
(-0.0130217 0.132232 0)
(-0.0388179 0.128282 0)
(-0.0633086 0.119066 0)
(-0.0856059 0.105131 0)
(-0.104828 0.087072 0)
(-0.120221 0.065569 0)
(-0.131155 0.0414048 0)
(-0.137154 0.0154661 0)
(-0.13791 -0.0112737 0)
(-0.133313 -0.0377828 0)
(-0.123464 -0.063006 0)
(-0.108687 -0.0859131 0)
(-0.0895206 -0.105546 0)
(-0.0667058 -0.121069 0)
(-0.0411537 -0.131809 0)
(-0.0139067 -0.1373 0)
(0.0139178 -0.137299 0)
(0.0411647 -0.131808 0)
(0.0667166 -0.121066 0)
(0.0895309 -0.105543 0)
(0.108697 -0.0859088 0)
(0.123474 -0.0630009 0)
(0.133322 -0.0377769 0)
(0.137917 -0.0112673 0)
(0.13716 0.0154731 0)
(0.131161 0.0414123 0)
(0.120226 0.0655768 0)
(0.104832 0.0870801 0)
(0.0856092 0.105139 0)
(0.0633109 0.119074 0)
(0.0388193 0.12829 0)
(0.0130221 0.13224 0)
(-0.0156942 0.160617 0)
(-0.0467914 0.15586 0)
(-0.0763413 0.144747 0)
(-0.103287 0.12793 0)
(-0.126572 0.106109 0)
(-0.145284 0.0800836 0)
(-0.158653 0.0507825 0)
(-0.16608 0.0192654 0)
(-0.16717 -0.0132931 0)
(-0.161762 -0.0456374 0)
(-0.149951 -0.0764714 0)
(-0.132112 -0.104521 0)
(-0.108889 -0.128595 0)
(-0.0811807 -0.14765 0)
(-0.0501017 -0.160845 0)
(-0.0169341 -0.167593 0)
(0.0169464 -0.167592 0)
(0.0501138 -0.160844 0)
(0.0811924 -0.147647 0)
(0.1089 -0.128592 0)
(0.132122 -0.104516 0)
(0.149961 -0.0764655 0)
(0.161771 -0.0456307 0)
(0.167178 -0.0132858 0)
(0.166087 0.0192733 0)
(0.158659 0.0507909 0)
(0.145289 0.0800924 0)
(0.126577 0.106118 0)
(0.10329 0.12794 0)
(0.0763438 0.144757 0)
(0.0467929 0.155869 0)
(0.0156947 0.160627 0)
(-0.0189096 0.194832 0)
(-0.0563876 0.189121 0)
(-0.09204 0.175762 0)
(-0.124612 0.155524 0)
(-0.15284 0.129221 0)
(-0.175621 0.09779 0)
(-0.192007 0.0623212 0)
(-0.201245 0.0240752 0)
(-0.20282 -0.0155353 0)
(-0.196498 -0.0549834 0)
(-0.182353 -0.0926754 0)
(-0.160816 -0.127032 0)
(-0.132654 -0.156568 0)
(-0.0989591 -0.179975 0)
(-0.0610992 -0.196199 0)
(-0.0206564 -0.204499 0)
(0.0206699 -0.204498 0)
(0.0611125 -0.196197 0)
(0.098972 -0.179972 0)
(0.132666 -0.156563 0)
(0.160827 -0.127026 0)
(0.182364 -0.0926687 0)
(0.196508 -0.0549759 0)
(0.202829 -0.015527 0)
(0.201253 0.0240841 0)
(0.192014 0.0623306 0)
(0.175626 0.0977998 0)
(0.152845 0.129232 0)
(0.124615 0.155534 0)
(0.0920425 0.175773 0)
(0.0563892 0.189132 0)
(0.0189101 0.194842 0)
(-0.0227656 0.236052 0)
(-0.0679006 0.229221 0)
(-0.110894 0.213214 0)
(-0.150262 0.188929 0)
(-0.1845 0.157309 0)
(-0.212271 0.119431 0)
(-0.232407 0.0765671 0)
(-0.243955 0.0302073 0)
(-0.246238 -0.0179551 0)
(-0.23891 -0.0660653 0)
(-0.222007 -0.112159 0)
(-0.196011 -0.154273 0)
(-0.161839 -0.190547 0)
(-0.120817 -0.219336 0)
(-0.0746301 -0.239309 0)
(-0.0252381 -0.249533 0)
(0.025253 -0.249532 0)
(0.0746448 -0.239306 0)
(0.120831 -0.219332 0)
(0.161852 -0.190542 0)
(0.196024 -0.154267 0)
(0.222019 -0.112152 0)
(0.238921 -0.0660568 0)
(0.246248 -0.0179457 0)
(0.243963 0.0302173 0)
(0.232415 0.0765777 0)
(0.212277 0.119442 0)
(0.184505 0.15732 0)
(0.150266 0.18894 0)
(0.110897 0.213225 0)
(0.0679022 0.229232 0)
(0.0227661 0.236063 0)
(-0.0273733 0.285662 0)
(-0.0816649 0.277525 0)
(-0.133464 0.258414 0)
(-0.181027 0.229372 0)
(-0.222565 0.19147 0)
(-0.256464 0.14593 0)
(-0.281277 0.0942197 0)
(-0.29579 0.0380842 0)
(-0.299105 -0.0204536 0)
(-0.290713 -0.079143 0)
(-0.270572 -0.135556 0)
(-0.239215 -0.187241 0)
(-0.197727 -0.231857 0)
(-0.14773 -0.267322 0)
(-0.0913039 -0.291954 0)
(-0.0308866 -0.30457 0)
(0.0309032 -0.304569 0)
(0.0913202 -0.291951 0)
(0.147746 -0.267318 0)
(0.197742 -0.231851 0)
(0.239229 -0.187234 0)
(0.270585 -0.135548 0)
(0.290725 -0.0791333 0)
(0.299115 -0.020443 0)
(0.295799 0.0380955 0)
(0.281285 0.0942315 0)
(0.25647 0.145943 0)
(0.22257 0.191482 0)
(0.181031 0.229385 0)
(0.133467 0.258427 0)
(0.0816666 0.277537 0)
(0.0273739 0.285674 0)
(-0.0328564 0.345283 0)
(-0.0980547 0.335638 0)
(-0.160381 0.312922 0)
(-0.217804 0.278327 0)
(-0.268206 0.233047 0)
(-0.30964 0.178444 0)
(-0.340309 0.116181 0)
(-0.358657 0.0482833 0)
(-0.36348 -0.0228455 0)
(-0.354029 -0.0944778 0)
(-0.330123 -0.163601 0)
(-0.29233 -0.227135 0)
(-0.241938 -0.282116 0)
(-0.18093 -0.325898 0)
(-0.111891 -0.356338 0)
(-0.0378642 -0.371938 0)
(0.0378827 -0.371937 0)
(0.111909 -0.356335 0)
(0.180947 -0.325893 0)
(0.241954 -0.282109 0)
(0.292346 -0.227127 0)
(0.330137 -0.163591 0)
(0.354042 -0.0944668 0)
(0.363492 -0.0228335 0)
(0.358667 0.048296 0)
(0.340318 0.116194 0)
(0.309646 0.178458 0)
(0.268211 0.23306 0)
(0.217808 0.278341 0)
(0.160384 0.312935 0)
(0.0980564 0.335652 0)
(0.032857 0.345297 0)
(-0.0393488 0.416798 0)
(-0.117477 0.405435 0)
(-0.192341 0.378572 0)
(-0.261595 0.337557 0)
(-0.322753 0.283682 0)
(-0.373469 0.218424 0)
(-0.411507 0.143623 0)
(-0.434854 0.0616004 0)
(-0.441887 -0.0248099 0)
(-0.431493 -0.112309 0)
(-0.403258 -0.197136 0)
(-0.357761 -0.2754 0)
(-0.296521 -0.343314 0)
(-0.22198 -0.397493 0)
(-0.137367 -0.435203 0)
(-0.0465033 -0.454537 0)
(0.046524 -0.454535 0)
(0.137387 -0.435199 0)
(0.221999 -0.397488 0)
(0.296539 -0.343306 0)
(0.357778 -0.27539 0)
(0.403274 -0.197125 0)
(0.431507 -0.112296 0)
(0.441899 -0.0247962 0)
(0.434864 0.0616146 0)
(0.411515 0.143638 0)
(0.373476 0.218439 0)
(0.322759 0.283697 0)
(0.261599 0.337572 0)
(0.192344 0.378587 0)
(0.117478 0.405449 0)
(0.0393494 0.416812 0)
(-0.04699 0.502366 0)
(-0.140358 0.489078 0)
(-0.230084 0.457517 0)
(-0.313491 0.409171 0)
(-0.387691 0.345389 0)
(-0.449863 0.267702 0)
(-0.497219 0.178085 0)
(-0.527142 0.0791418 0)
(-0.537418 -0.0258139 0)
(-0.526394 -0.132809 0)
(-0.493262 -0.237118 0)
(-0.438563 -0.333775 0)
(-0.364088 -0.417902 0)
(-0.27287 -0.485136 0)
(-0.168976 -0.531971 0)
(-0.0572275 -0.555989 0)
(0.0572508 -0.555988 0)
(0.168999 -0.531967 0)
(0.272892 -0.485129 0)
(0.364109 -0.417893 0)
(0.438582 -0.333764 0)
(0.49328 -0.237105 0)
(0.526409 -0.132795 0)
(0.537431 -0.0257984 0)
(0.527153 0.079158 0)
(0.497228 0.178101 0)
(0.44987 0.267718 0)
(0.387696 0.345406 0)
(0.313496 0.409187 0)
(0.230087 0.457533 0)
(0.14036 0.489094 0)
(0.0469906 0.502382 0)
(-0.0559167 0.604433 0)
(-0.167122 0.589038 0)
(-0.274361 0.552252 0)
(-0.374636 0.495675 0)
(-0.464628 0.420631 0)
(-0.54097 0.3286 0)
(-0.600178 0.221597 0)
(-0.638828 0.102459 0)
(-0.653881 -0.0249962 0)
(-0.642862 -0.156015 0)
(-0.60431 -0.284601 0)
(-0.538649 -0.404354 0)
(-0.447995 -0.508918 0)
(-0.336165 -0.592613 0)
(-0.208324 -0.650935 0)
(-0.0705857 -0.680838 0)
(0.0706121 -0.680836 0)
(0.20835 -0.65093 0)
(0.33619 -0.592605 0)
(0.448018 -0.508907 0)
(0.53867 -0.40434 0)
(0.604329 -0.284586 0)
(0.642878 -0.155999 0)
(0.653894 -0.0249784 0)
(0.63884 0.102477 0)
(0.600187 0.221615 0)
(0.540977 0.328618 0)
(0.464633 0.420649 0)
(0.37464 0.495693 0)
(0.274363 0.55227 0)
(0.167124 0.589055 0)
(0.0559172 0.60445 0)
(-0.0662492 0.725713 0)
(-0.198149 0.708087 0)
(-0.325875 0.665641 0)
(-0.446153 0.60003 0)
(-0.555236 0.512422 0)
(-0.64914 0.404076 0)
(-0.723513 0.276868 0)
(-0.773851 0.133742 0)
(-0.795956 -0.02099 0)
(-0.786105 -0.181705 0)
(-0.741749 -0.340738 0)
(-0.66308 -0.489729 0)
(-0.552632 -0.620233 0)
(-0.41525 -0.724747 0)
(-0.257534 -0.797531 0)
(-0.0873017 -0.83482 0)
(0.0873318 -0.834818 0)
(0.257563 -0.797525 0)
(0.415278 -0.724737 0)
(0.552658 -0.62022 0)
(0.663103 -0.489713 0)
(0.74177 -0.34072 0)
(0.786122 -0.181686 0)
(0.79597 -0.0209695 0)
(0.773862 0.133763 0)
(0.723522 0.276889 0)
(0.649147 0.404096 0)
(0.555241 0.512441 0)
(0.446157 0.600049 0)
(0.325877 0.66566 0)
(0.19815 0.708105 0)
(0.0662496 0.725731 0)
(-0.0780708 0.86914 0)
(-0.233715 0.849265 0)
(-0.385187 0.800912 0)
(-0.529035 0.725699 0)
(-0.661133 0.624442 0)
(-0.776837 0.497909 0)
(-0.870732 0.34754 0)
(-0.936857 0.176084 0)
(-0.969397 -0.0118833 0)
(-0.962726 -0.209279 0)
(-0.91253 -0.40685 0)
(-0.818572 -0.593129 0)
(-0.683824 -0.756622 0)
(-0.514443 -0.887585 0)
(-0.319174 -0.97877 0)
(-0.10822 -1.02548 0)
(0.108254 -1.02548 0)
(0.319207 -0.978763 0)
(0.514475 -0.887574 0)
(0.683853 -0.756607 0)
(0.818598 -0.59311 0)
(0.912553 -0.406829 0)
(0.962745 -0.209257 0)
(0.969412 -0.0118606 0)
(0.936868 0.176107 0)
(0.87074 0.347563 0)
(0.776844 0.497932 0)
(0.661138 0.624463 0)
(0.529038 0.72572 0)
(0.385189 0.800931 0)
(0.233716 0.849285 0)
(0.0780711 0.869159 0)
(-0.0913984 1.03778 0)
(-0.273908 1.01581 0)
(-0.452579 0.961622 0)
(-0.623962 0.876679 0)
(-0.78369 0.761157 0)
(-0.926468 0.614933 0)
(-1.04566 0.438524 0)
(-1.13345 0.233982 0)
(-1.18123 0.00587935 0)
(-1.18081 -0.237198 0)
(-1.12527 -0.483533 0)
(-1.01267 -0.716984 0)
(-0.846487 -0.923008 0)
(-0.635886 -1.08854 0)
(-0.393719 -1.20361 0)
(-0.133314 -1.26237 0)
(0.133354 -1.26237 0)
(0.393758 -1.2036 0)
(0.635923 -1.08853 0)
(0.846521 -0.922989 0)
(1.0127 -0.716961 0)
(1.1253 -0.483507 0)
(1.18083 -0.237171 0)
(1.18125 0.00590645 0)
(1.13346 0.234009 0)
(1.04567 0.43855 0)
(0.926473 0.614958 0)
(0.783693 0.76118 0)
(0.623964 0.8767 0)
(0.45258 0.961643 0)
(0.273908 1.01583 0)
(0.0913986 1.03779 0)
(-0.106143 1.23464 0)
(-0.318503 1.21099 0)
(-0.527849 1.15156 0)
(-0.731032 1.05749 0)
(-0.923711 0.927942 0)
(-1.10007 0.761318 0)
(-1.25208 0.556451 0)
(-1.36924 0.313969 0)
(-1.43896 0.0379169 0)
(-1.44801 -0.262166 0)
(-1.38386 -0.571341 0)
(-1.2402 -0.868092 0)
(-1.02594 -1.13205 0)
(-0.760577 -1.33972 0)
(-0.465444 -1.47997 0)
(-0.156481 -1.54999 0)
(0.156525 -1.54999 0)
(0.465488 -1.47996 0)
(0.76062 -1.33971 0)
(1.02598 -1.13202 0)
(1.24024 -0.868064 0)
(1.38389 -0.57131 0)
(1.44803 -0.262133 0)
(1.43897 0.0379498 0)
(1.36925 0.314 0)
(1.25209 0.55648 0)
(1.10008 0.761345 0)
(0.923713 0.927967 0)
(0.731032 1.05751 0)
(0.527849 1.15159 0)
(0.318503 1.21101 0)
(0.106143 1.23466 0)
(-0.122057 1.46245 0)
(-0.366812 1.43791 0)
(-0.610045 1.37458 0)
(-0.849368 1.27309 0)
(-1.08095 1.13114 0)
(-1.29873 0.944801 0)
(-1.49278 0.710003 0)
(-1.64789 0.424417 0)
(-1.74285 0.0891018 0)
(-1.75174 -0.288817 0)
(-1.64643 -0.693261 0)
(-1.42492 -1.07715 0)
(-1.12946 -1.3978 0)
(-0.803095 -1.64257 0)
(-0.47604 -1.80255 0)
(-0.157142 -1.87951 0)
(0.157184 -1.87951 0)
(0.476083 -1.80254 0)
(0.803139 -1.64255 0)
(1.12951 -1.39778 0)
(1.42496 -1.07711 0)
(1.64646 -0.693222 0)
(1.75176 -0.288777 0)
(1.74287 0.0891406 0)
(1.6479 0.424453 0)
(1.49278 0.710036 0)
(1.29873 0.94483 0)
(1.08095 1.13117 0)
(0.849367 1.27311 0)
(0.610044 1.3746 0)
(0.366811 1.43793 0)
(0.122057 1.46247 0)
(-0.138678 1.72328 0)
(-0.417491 1.69911 0)
(-0.697129 1.63424 0)
(-0.976633 1.52863 0)
(-1.25348 1.37798 0)
(-1.52149 1.17457 0)
(-1.7662 0.908207 0)
(-1.95992 0.566702 0)
(-2.05842 0.141434 0)
(-2.0011 -0.357136 0)
(-1.75043 -0.893209 0)
(-1.38342 -1.39484 0)
(-0.990162 -1.78441 0)
(-0.65539 -2.01622 0)
(-0.373541 -2.14068 0)
(-0.120856 -2.19498 0)
(0.120885 -2.19497 0)
(0.373572 -2.14067 0)
(0.655426 -2.01621 0)
(0.990204 -1.78438 0)
(1.38347 -1.3948 0)
(1.75047 -0.893161 0)
(2.00113 -0.357085 0)
(2.05844 0.141482 0)
(1.95993 0.566745 0)
(1.7662 0.908244 0)
(1.52149 1.1746 0)
(1.25348 1.378 0)
(0.976629 1.52865 0)
(0.697126 1.63426 0)
(0.417488 1.69913 0)
(0.138677 1.7233 0)
(-0.155262 2.01802 0)
(-0.468345 1.9961 0)
(-0.78561 1.93335 0)
(-1.10846 1.82908 0)
(-1.43676 1.67621 0)
(-1.76293 1.45931 0)
(-2.0597 1.14967 0)
(-2.26292 0.710269 0)
(-2.26045 0.132756 0)
(-1.97142 -0.592367 0)
(-1.47045 -1.36137 0)
(-1.06221 -1.83978 0)
(-0.753463 -2.10883 0)
(-0.504631 -2.26053 0)
(-0.292057 -2.34492 0)
(-0.0952899 -2.38292 0)
(0.0953101 -2.38292 0)
(0.292078 -2.34492 0)
(0.504656 -2.26053 0)
(0.753492 -2.10881 0)
(1.06224 -1.83975 0)
(1.4705 -1.36131 0)
(1.97146 -0.592298 0)
(2.26048 0.132818 0)
(2.26293 0.710323 0)
(2.0597 1.14972 0)
(1.76293 1.45934 0)
(1.43675 1.67624 0)
(1.10846 1.8291 0)
(0.785604 1.93337 0)
(0.468341 1.99611 0)
(0.15526 2.01803 0)
(-0.170737 2.34581 0)
(-0.516161 2.32867 0)
(-0.870225 2.27329 0)
(-1.23784 2.17855 0)
(-1.62196 2.0324 0)
(-2.00906 1.79635 0)
(-2.33101 1.39551 0)
(-2.41816 0.767977 0)
(-2.10912 -0.139039 0)
(-1.5328 -1.17006 0)
(-1.14787 -1.77312 0)
(-0.883046 -2.1247 0)
(-0.660452 -2.34134 0)
(-0.45733 -2.46477 0)
(-0.271389 -2.53469 0)
(-0.0901523 -2.56716 0)
(0.0901693 -2.56716 0)
(0.271407 -2.53468 0)
(0.45735 -2.46476 0)
(0.660475 -2.34132 0)
(0.883071 -2.12468 0)
(1.1479 -1.77308 0)
(1.53284 -1.17 0)
(2.10917 -0.138944 0)
(2.41818 0.768046 0)
(2.33101 1.39556 0)
(2.00905 1.79639 0)
(1.62195 2.03242 0)
(1.23783 2.17857 0)
(0.870215 2.2733 0)
(0.516155 2.32869 0)
(0.170735 2.34582 0)
(-0.18369 2.70332 0)
(-0.556659 2.6942 0)
(-0.943738 2.65329 0)
(-1.3541 2.57914 0)
(-1.79418 2.44335 0)
(-2.22382 2.14923 0)
(-2.45045 1.55907 0)
(-2.21665 0.537747 0)
(-1.59991 -0.791961 0)
(-1.22459 -1.56427 0)
(-1.04302 -2.00554 0)
(-0.899547 -2.3189 0)
(-0.701677 -2.54004 0)
(-0.492903 -2.65535 0)
(-0.294089 -2.71953 0)
(-0.0993122 -2.75135 0)
(0.0993287 -2.75135 0)
(0.294107 -2.71953 0)
(0.492923 -2.65534 0)
(0.7017 -2.54003 0)
(0.899567 -2.31887 0)
(1.04304 -2.0055 0)
(1.22461 -1.56422 0)
(1.59994 -0.791881 0)
(2.21669 0.53786 0)
(2.45046 1.55915 0)
(2.22381 2.14928 0)
(1.79416 2.44338 0)
(1.35408 2.57915 0)
(0.943725 2.6533 0)
(0.556651 2.69421 0)
(0.183688 2.70333 0)
(-0.192404 3.08412 0)
(-0.584534 3.08683 0)
(-0.996491 3.06922 0)
(-1.44227 3.02512 0)
(-1.92622 2.87932 0)
(-2.3138 2.44991 0)
(-2.29017 1.48412 0)
(-1.69733 -0.138999 0)
(-1.27057 -1.18168 0)
(-1.11692 -1.71046 0)
(-1.12052 -2.07676 0)
(-1.01446 -2.47504 0)
(-0.788541 -2.75094 0)
(-0.548117 -2.86743 0)
(-0.321536 -2.92517 0)
(-0.110897 -2.95565 0)
(0.110912 -2.95565 0)
(0.321553 -2.92517 0)
(0.548137 -2.86742 0)
(0.788565 -2.75093 0)
(1.01448 -2.47501 0)
(1.12053 -2.07672 0)
(1.11692 -1.71042 0)
(1.27058 -1.18162 0)
(1.69737 -0.138895 0)
(2.29019 1.48422 0)
(2.31379 2.44997 0)
(1.92619 2.87935 0)
(1.44225 3.02513 0)
(0.996473 3.06922 0)
(0.584523 3.08683 0)
(0.1924 3.08412 0)
(-0.195088 3.47751 0)
(-0.593895 3.49618 0)
(-1.01678 3.50962 0)
(-1.48298 3.48935 0)
(-1.95561 3.26984 0)
(-2.2041 2.57269 0)
(-1.83635 0.909598 0)
(-1.33715 -0.568091 0)
(-1.06808 -1.35022 0)
(-1.11858 -1.67867 0)
(-1.198 -2.08517 0)
(-1.10108 -2.65343 0)
(-0.849281 -3.00643 0)
(-0.585603 -3.11672 0)
(-0.333007 -3.15669 0)
(-0.118717 -3.18176 0)
(0.118728 -3.18176 0)
(0.333021 -3.15669 0)
(0.58562 -3.11672 0)
(0.849301 -3.00642 0)
(1.10109 -2.65339 0)
(1.198 -2.08511 0)
(1.11856 -1.67863 0)
(1.06808 -1.35018 0)
(1.33717 -0.568002 0)
(1.83639 0.909751 0)
(2.20409 2.57278 0)
(1.95557 3.26987 0)
(1.48295 3.48935 0)
(1.01675 3.50962 0)
(0.593882 3.49618 0)
(0.195084 3.47751 0)
(-0.190034 3.87127 0)
(-0.579427 3.90865 0)
(-0.99618 3.95511 0)
(-1.46236 3.93291 0)
(-1.87726 3.59409 0)
(-1.91563 2.50262 0)
(-1.46122 0.424341 0)
(-1.05902 -0.874449 0)
(-0.918612 -1.37117 0)
(-1.05996 -1.58066 0)
(-1.19754 -2.0932 0)
(-1.0965 -2.8488 0)
(-0.839277 -3.29027 0)
(-0.589024 -3.38624 0)
(-0.320992 -3.40136 0)
(-0.119471 -3.41114 0)
(0.119476 -3.41114 0)
(0.321 -3.40137 0)
(0.589034 -3.38625 0)
(0.839289 -3.29026 0)
(1.09651 -2.84875 0)
(1.19753 -2.09313 0)
(1.05993 -1.58062 0)
(0.918592 -1.37115 0)
(1.05903 -0.87438 0)
(1.46124 0.424473 0)
(1.91564 2.50277 0)
(1.87722 3.59413 0)
(1.46233 3.93292 0)
(0.996155 3.9551 0)
(0.579412 3.90864 0)
(0.190029 3.87125 0)
(-0.175684 4.24704 0)
(-0.535817 4.30576 0)
(-0.924795 4.37958 0)
(-1.35811 4.32529 0)
(-1.7036 3.81806 0)
(-1.56852 2.09006 0)
(-1.19699 0.074321 0)
(-0.856833 -1.09244 0)
(-0.786425 -1.36664 0)
(-0.924362 -1.44007 0)
(-1.12755 -2.07987 0)
(-0.976339 -3.03441 0)
(-0.72251 -3.56494 0)
(-0.543882 -3.63204 0)
(-0.283249 -3.63056 0)
(-0.110349 -3.62394 0)
(0.110347 -3.62395 0)
(0.283249 -3.63056 0)
(0.543882 -3.63205 0)
(0.722502 -3.56493 0)
(0.97634 -3.03434 0)
(1.12752 -2.07977 0)
(0.92432 -1.44003 0)
(0.786408 -1.36664 0)
(0.856843 -1.0924 0)
(1.19701 0.0744532 0)
(1.56853 2.09027 0)
(1.70356 3.81812 0)
(1.35807 4.32529 0)
(0.924766 4.37956 0)
(0.5358 4.30573 0)
(0.175678 4.24702 0)
(-0.151186 4.58412 0)
(-0.460125 4.66257 0)
(-0.797226 4.75305 0)
(-1.16682 4.65923 0)
(-1.4415 3.97707 0)
(-1.30565 1.7739 0)
(-1.03647 -0.199332 0)
(-0.818786 -1.26359 0)
(-0.756282 -1.35005 0)
(-0.758149 -1.1974 0)
(-0.823945 -1.96321 0)
(-0.715871 -3.18462 0)
(-0.523909 -3.76201 0)
(-0.447932 -3.82435 0)
(-0.227141 -3.82202 0)
(-0.0923297 -3.80513 0)
(0.0923194 -3.80514 0)
(0.227131 -3.82202 0)
(0.447921 -3.82436 0)
(0.523883 -3.762 0)
(0.715853 -3.18452 0)
(0.823896 -1.9631 0)
(0.758116 -1.19738 0)
(0.756276 -1.35008 0)
(0.818792 -1.26356 0)
(1.03648 -0.199199 0)
(1.30563 1.77413 0)
(1.44146 3.97716 0)
(1.16677 4.65923 0)
(0.797193 4.75302 0)
(0.460106 4.66253 0)
(0.151179 4.58408 0)
(-0.115931 4.86274 0)
(-0.35137 4.95609 0)
(-0.612831 5.05578 0)
(-0.897883 4.93368 0)
(-1.10376 4.09354 0)
(-1.07894 1.57541 0)
(-0.961981 -0.371507 0)
(-0.911139 -1.35782 0)
(-0.863917 -1.3941 0)
(-0.735669 -1.28913 0)
(-0.58217 -2.04948 0)
(-0.476383 -3.23837 0)
(-0.335986 -3.87191 0)
(-0.332386 -3.9548 0)
(-0.167041 -3.96443 0)
(-0.0706829 -3.94579 0)
(0.0706652 -3.94579 0)
(0.167022 -3.96443 0)
(0.332364 -3.95481 0)
(0.335952 -3.87189 0)
(0.476364 -3.23824 0)
(0.582149 -2.0494 0)
(0.735667 -1.28912 0)
(0.863937 -1.39416 0)
(0.911137 -1.35778 0)
(0.961982 -0.371359 0)
(1.07892 1.57561 0)
(1.10372 4.09365 0)
(0.897831 4.93366 0)
(0.612797 5.05574 0)
(0.351351 4.95604 0)
(0.115925 4.86269 0)
(-0.0708228 5.05921 0)
(-0.213629 5.16192 0)
(-0.377133 5.26906 0)
(-0.55944 5.14006 0)
(-0.690106 4.20696 0)
(-0.862039 1.58942 0)
(-0.930137 -0.355626 0)
(-1.00977 -1.35877 0)
(-1.0218 -1.53659 0)
(-0.796975 -1.51516 0)
(-0.465772 -2.27516 0)
(-0.295834 -3.31625 0)
(-0.191974 -3.92992 0)
(-0.225113 -4.0352 0)
(-0.112122 -4.06159 0)
(-0.049772 -4.04677 0)
(0.0497485 -4.04678 0)
(0.112097 -4.06159 0)
(0.225085 -4.0352 0)
(0.191934 -3.9299 0)
(0.295808 -3.31615 0)
(0.465762 -2.27511 0)
(0.796992 -1.51516 0)
(1.02179 -1.53665 0)
(1.00975 -1.35872 0)
(0.930112 -0.355457 0)
(0.861988 1.58966 0)
(0.690042 4.20709 0)
(0.559386 5.14003 0)
(0.3771 5.269 0)
(0.21361 5.16185 0)
(0.0708165 5.05914 0)
(-0.0142621 5.15702 0)
(-0.057761 5.2627 0)
(-0.102586 5.37686 0)
(-0.166979 5.26082 0)
(-0.172227 4.35653 0)
(-0.5242 1.79727 0)
(-0.796756 -0.159972 0)
(-0.987338 -1.29664 0)
(-1.06226 -1.71184 0)
(-0.842037 -1.86859 0)
(-0.386999 -2.62305 0)
(-0.156114 -3.45611 0)
(-0.0877727 -3.95065 0)
(-0.134915 -4.07738 0)
(-0.0655708 -4.12133 0)
(-0.031383 -4.1123 0)
(0.0313556 -4.1123 0)
(0.0655408 -4.12133 0)
(0.134885 -4.07737 0)
(0.0877324 -3.95064 0)
(0.156099 -3.45601 0)
(0.386996 -2.62301 0)
(0.842063 -1.8686 0)
(1.06225 -1.71186 0)
(0.987298 -1.29656 0)
(0.796703 -0.159799 0)
(0.524102 1.79752 0)
(0.172154 4.35663 0)
(0.166935 5.26077 0)
(0.102558 5.37679 0)
(0.0577466 5.26262 0)
(0.0142573 5.15695 0)
(0.0275481 5.14276 0)
(0.0964289 5.25237 0)
(0.178939 5.35978 0)
(0.2488 5.25654 0)
(0.417946 4.47173 0)
(0.101171 2.24381 0)
(-0.396799 0.157551 0)
(-0.663963 -1.11352 0)
(-0.823785 -1.80483 0)
(-0.678981 -2.26317 0)
(-0.234903 -2.98122 0)
(-0.023414 -3.5978 0)
(-0.00812257 -3.94008 0)
(-0.0584929 -4.08947 0)
(-0.0271306 -4.14997 0)
(-0.0158553 -4.14688 0)
(0.0158252 -4.14688 0)
(0.0270996 -4.14997 0)
(0.0584593 -4.08946 0)
(0.00808205 -3.94006 0)
(0.0233994 -3.59774 0)
(0.234896 -2.98119 0)
(0.678981 -2.26316 0)
(0.823699 -1.8048 0)
(0.663871 -1.11342 0)
(0.396702 0.157723 0)
(-0.101289 2.24408 0)
(-0.417983 4.47179 0)
(-0.248833 5.25648 0)
(-0.178957 5.35969 0)
(-0.0964389 5.25228 0)
(-0.0275514 5.14268 0)
(0.0738792 5.03701 0)
(0.238479 5.12846 0)
(0.432048 5.21013 0)
(0.633698 5.0973 0)
(0.89849 4.43274 0)
(0.872372 2.71641 0)
(0.344512 0.749752 0)
(0.0257021 -0.73716 0)
(-0.222629 -1.71619 0)
(-0.221803 -2.50173 0)
(0.0149185 -3.21897 0)
(0.105382 -3.64976 0)
(0.0575654 -3.89817 0)
(0.00378143 -4.07783 0)
(0.00386597 -4.15325 0)
(-0.00291889 -4.15614 0)