/*--------------------------------*- C++ -*----------------------------------*\
  =========                 |
  \\      /  F ield         | OpenFOAM: The Open Source CFD Toolbox
   \\    /   O peration     | Website:  https://openfoam.org
    \\  /    A nd           | Version:  9
     \\/     M anipulation  |
\*---------------------------------------------------------------------------*/
FoamFile
{
    format      ascii;
    class       volScalarField;
    location    "0.75";
    object      p;
}
// * * * * * * * * * * * * * * * * * * * * * * * * * * * * * * * * * * * * * //

dimensions      [1 -1 -2 0 0 0 0];

internalField   nonuniform List<scalar> 
4096
(
-8.889e-05
0
0.000170185
0.000420925
0.000742065
0.00112103
0.00154313
0.00199205
0.00245044
0.0029006
0.0033251
0.00370751
0.00403299
0.00428889
0.00446524
0.00455518
0.00455519
0.00446529
0.00428897
0.0040331
0.00370765
0.00332526
0.00290078
0.00245063
0.00199221
0.00154321
0.0011209
0.000741487
0.000419494
0.000167291
-5.29396e-06
-9.30506e-05
-0.052107
-0.0520162
-0.0518384
-0.051578
-0.0512448
-0.0508518
-0.0504141
-0.0499486
-0.0494733
-0.0490065
-0.0485663
-0.0481697
-0.0478322
-0.0475668
-0.0473839
-0.0472906
-0.0472906
-0.0473839
-0.0475667
-0.0478321
-0.0481696
-0.0485661
-0.0490064
-0.0494732
-0.0499485
-0.0504141
-0.050852
-0.0512454
-0.0515793
-0.0518408
-0.0520197
-0.0521108
-0.104216
-0.104119
-0.103928
-0.103648
-0.10329
-0.102868
-0.102399
-0.101899
-0.101389
-0.100888
-0.100415
-0.0999893
-0.0996269
-0.099342
-0.0991456
-0.0990455
-0.0990455
-0.0991456
-0.0993419
-0.0996268
-0.0999892
-0.100415
-0.100887
-0.101389
-0.101899
-0.102399
-0.102869
-0.103291
-0.103649
-0.10393
-0.104122
-0.10422
-0.156424
-0.156316
-0.156104
-0.155795
-0.155399
-0.154932
-0.154412
-0.15386
-0.153295
-0.152741
-0.152218
-0.151747
-0.151346
-0.15103
-0.150813
-0.150702
-0.150702
-0.150813
-0.15103
-0.151346
-0.151747
-0.152218
-0.152741
-0.153295
-0.15386
-0.154413
-0.154933
-0.1554
-0.155796
-0.156106
-0.156319
-0.156427
-0.20874
-0.208618
-0.208378
-0.208026
-0.207577
-0.207048
-0.206459
-0.205832
-0.205192
-0.204563
-0.20397
-0.203435
-0.20298
-0.202623
-0.202376
-0.20225
-0.20225
-0.202376
-0.202623
-0.20298
-0.203435
-0.20397
-0.204563
-0.205192
-0.205832
-0.206459
-0.207049
-0.207578
-0.208028
-0.20838
-0.208621
-0.208743
-0.26118
-0.261039
-0.260761
-0.260355
-0.259836
-0.259224
-0.258542
-0.257818
-0.257078
-0.25635
-0.255664
-0.255046
-0.25452
-0.254106
-0.253821
-0.253675
-0.253675
-0.253821
-0.254106
-0.25452
-0.255046
-0.255665
-0.256351
-0.257078
-0.257818
-0.258543
-0.259225
-0.259837
-0.260356
-0.260763
-0.261041
-0.261182
-0.313762
-0.313597
-0.313271
-0.312794
-0.312186
-0.311468
-0.310669
-0.309819
-0.308951
-0.308098
-0.307293
-0.306568
-0.30595
-0.305464
-0.305129
-0.304958
-0.304958
-0.305129
-0.305464
-0.30595
-0.306568
-0.307293
-0.308098
-0.308952
-0.30982
-0.31067
-0.311469
-0.312187
-0.312796
-0.313273
-0.313599
-0.313765
-0.366512
-0.366316
-0.36593
-0.365365
-0.364644
-0.363794
-0.362847
-0.36184
-0.360811
-0.359799
-0.358844
-0.357984
-0.357251
-0.356675
-0.356277
-0.356075
-0.356075
-0.356277
-0.356675
-0.357251
-0.357984
-0.358845
-0.359799
-0.360811
-0.361841
-0.362848
-0.363795
-0.364646
-0.365367
-0.365931
-0.366318
-0.366514
-0.41946
-0.419226
-0.418765
-0.418092
-0.417232
-0.416217
-0.415087
-0.413884
-0.412654
-0.411446
-0.410305
-0.409276
-0.4084
-0.407711
-0.407236
-0.406993
-0.406993
-0.407236
-0.407711
-0.4084
-0.409277
-0.410305
-0.411446
-0.412655
-0.413885
-0.415088
-0.416218
-0.417233
-0.418094
-0.418767
-0.419228
-0.419462
-0.472646
-0.472365
-0.471812
-0.471005
-0.469973
-0.468756
-0.4674
-0.465956
-0.464479
-0.463028
-0.461657
-0.460421
-0.459368
-0.458539
-0.457968
-0.457676
-0.457676
-0.457968
-0.458539
-0.459368
-0.460422
-0.461658
-0.463028
-0.46448
-0.465957
-0.467401
-0.468757
-0.469975
-0.471007
-0.471814
-0.472367
-0.472648
-0.526116
-0.525778
-0.525114
-0.524142
-0.522901
-0.521435
-0.519802
-0.518063
-0.516284
-0.514534
-0.512881
-0.51139
-0.510119
-0.509118
-0.508429
-0.508077
-0.508077
-0.508429
-0.509119
-0.510119
-0.51139
-0.512882
-0.514535
-0.516285
-0.518064
-0.519803
-0.521437
-0.522902
-0.524144
-0.525116
-0.52578
-0.526118
-0.57993
-0.579523
-0.578722
-0.577551
-0.576053
-0.574286
-0.572314
-0.570214
-0.568065
-0.56595
-0.563951
-0.562147
-0.560609
-0.559398
-0.558563
-0.558137
-0.558137
-0.558563
-0.559398
-0.560609
-0.562147
-0.563952
-0.565951
-0.568066
-0.570215
-0.572316
-0.574287
-0.576055
-0.577553
-0.578724
-0.579525
-0.579932
-0.63416
-0.633669
-0.632702
-0.631288
-0.62948
-0.627344
-0.624961
-0.622421
-0.61982
-0.617259
-0.614837
-0.61265
-0.610785
-0.609316
-0.608303
-0.607786
-0.607786
-0.608303
-0.609317
-0.610786
-0.612651
-0.614838
-0.61726
-0.619821
-0.622422
-0.624963
-0.627346
-0.629482
-0.63129
-0.632704
-0.633671
-0.634162
-0.688894
-0.688301
-0.687133
-0.685425
-0.68324
-0.680657
-0.677774
-0.674698
-0.671547
-0.668442
-0.665504
-0.66285
-0.660584
-0.658799
-0.657567
-0.656939
-0.656939
-0.657568
-0.6588
-0.660585
-0.66285
-0.665505
-0.668443
-0.671549
-0.6747
-0.677776
-0.680659
-0.683242
-0.685427
-0.687136
-0.688303
-0.688896
-0.744239
-0.743522
-0.742113
-0.740049
-0.737407
-0.734283
-0.730793
-0.727067
-0.723247
-0.719478
-0.71591
-0.712684
-0.709929
-0.707757
-0.706257
-0.705492
-0.705492
-0.706258
-0.707757
-0.709929
-0.712685
-0.715911
-0.71948
-0.723248
-0.727069
-0.730795
-0.734285
-0.737409
-0.740051
-0.742115
-0.743525
-0.744241
-0.800326
-0.799461
-0.797759
-0.795267
-0.792073
-0.788295
-0.78407
-0.779554
-0.774919
-0.770343
-0.766006
-0.762081
-0.758726
-0.75608
-0.754253
-0.75332
-0.75332
-0.754253
-0.756081
-0.758727
-0.762082
-0.766007
-0.770345
-0.774921
-0.779556
-0.784072
-0.788297
-0.792076
-0.795269
-0.797762
-0.799464
-0.800328
-0.857315
-0.856272
-0.854219
-0.85121
-0.847352
-0.842784
-0.837669
-0.832196
-0.826571
-0.821011
-0.815735
-0.810956
-0.806867
-0.80364
-0.80141
-0.80027
-0.800271
-0.80141
-0.803641
-0.806868
-0.810957
-0.815737
-0.821013
-0.826573
-0.832198
-0.837671
-0.842786
-0.847355
-0.851213
-0.854222
-0.856275
-0.857317
-0.915401
-0.914146
-0.911671
-0.908042
-0.903386
-0.897864
-0.891674
-0.885041
-0.878214
-0.871456
-0.865034
-0.859209
-0.85422
-0.85028
-0.847554
-0.846162
-0.846162
-0.847555
-0.85028
-0.854221
-0.85921
-0.865036
-0.871458
-0.878216
-0.885044
-0.891677
-0.897867
-0.903388
-0.908045
-0.911674
-0.914149
-0.915404
-0.974824
-0.973313
-0.970335
-0.965964
-0.960349
-0.953682
-0.946195
-0.938159
-0.929872
-0.921653
-0.913831
-0.906725
-0.900632
-0.895814
-0.892479
-0.890775
-0.890775
-0.89248
-0.895815
-0.900633
-0.906726
-0.913833
-0.921656
-0.929874
-0.938161
-0.946198
-0.953685
-0.960352
-0.965967
-0.970338
-0.973317
-0.974827
-1.03587
-1.03406
-1.03048
-1.02523
-1.01846
-1.01042
-1.00137
-0.991641
-0.981582
-0.971585
-0.962051
-0.953374
-0.945923
-0.940023
-0.935937
-0.933848
-0.933848
-0.935938
-0.940024
-0.945924
-0.953375
-0.962053
-0.971587
-0.981584
-0.991643
-1.00138
-1.01043
-1.01847
-1.02523
-1.03049
-1.03406
-1.03588
-1.0989
-1.09673
-1.09244
-1.08614
-1.07801
-1.06832
-1.0574
-1.04562
-1.03341
-1.02125
-1.00962
-0.999009
-0.989885
-0.982651
-0.977635
-0.97507
-0.97507
-0.977636
-0.982652
-0.989887
-0.999011
-1.00962
-1.02125
-1.03341
-1.04562
-1.0574
-1.06833
-1.07801
-1.08614
-1.09245
-1.09674
-1.09891
-1.16435
-1.16176
-1.15663
-1.14909
-1.13934
-1.12769
-1.11452
-1.10027
-1.08546
-1.07065
-1.05645
-1.04347
-1.03228
-1.0234
-1.01723
-1.01407
-1.01407
-1.01723
-1.0234
-1.03229
-1.04348
-1.05646
-1.07065
-1.08546
-1.10028
-1.11453
-1.1277
-1.13934
-1.14909
-1.15664
-1.16176
-1.16435
-1.23274
-1.22966
-1.22355
-1.21455
-1.2029
-1.18893
-1.17308
-1.15586
-1.13789
-1.11986
-1.10252
-1.08661
-1.07286
-1.06193
-1.05433
-1.05043
-1.05043
-1.05433
-1.06193
-1.07286
-1.08661
-1.10252
-1.11987
-1.1379
-1.15586
-1.17308
-1.18894
-1.2029
-1.21456
-1.22356
-1.22966
-1.23274
-1.30471
-1.30107
-1.29384
-1.28314
-1.26926
-1.25256
-1.23352
-1.21274
-1.19096
-1.169
-1.14779
-1.12826
-1.11134
-1.09786
-1.08847
-1.08366
-1.08366
-1.08847
-1.09786
-1.11135
-1.12827
-1.14779
-1.16901
-1.19097
-1.21275
-1.23352
-1.25256
-1.26926
-1.28315
-1.29384
-1.30107
-1.30472
-1.38106
-1.37677
-1.36825
-1.35562
-1.33915
-1.31926
-1.29646
-1.27144
-1.24506
-1.21831
-1.19233
-1.16833
-1.14746
-1.13079
-1.11917
-1.11321
-1.11321
-1.11917
-1.13079
-1.14747
-1.16833
-1.19234
-1.21831
-1.24507
-1.27145
-1.29646
-1.31926
-1.33916
-1.35562
-1.36825
-1.37677
-1.38106
-1.46272
-1.45771
-1.44775
-1.43292
-1.41352
-1.38994
-1.36274
-1.3327
-1.30079
-1.26819
-1.23635
-1.20679
-1.18099
-1.16033
-1.14591
-1.13852
-1.13852
-1.14591
-1.16033
-1.18099
-1.20679
-1.23636
-1.26819
-1.3008
-1.3327
-1.36275
-1.38995
-1.41353
-1.43293
-1.44775
-1.45772
-1.46272
-1.55082
-1.54504
-1.5335
-1.51626
-1.49357
-1.4658
-1.43353
-1.39757
-1.35909
-1.31933
-1.28027
-1.24378
-1.21181
-1.18614
-1.16821
-1.15902
-1.15902
-1.16821
-1.18614
-1.21181
-1.24378
-1.28027
-1.31934
-1.35909
-1.39757
-1.43354
-1.46581
-1.49357
-1.51626
-1.5335
-1.54505
-1.55083
-1.64673
-1.64014
-1.62692
-1.6071
-1.58085
-1.54845
-1.51041
-1.46755
-1.42108
-1.37283
-1.32488
-1.27975
-1.24003
-1.20807
-1.18573
-1.17428
-1.17428
-1.18573
-1.20807
-1.24004
-1.27976
-1.32488
-1.37284
-1.42108
-1.46756
-1.51042
-1.54845
-1.58085
-1.60711
-1.62693
-1.64014
-1.64673
-1.75201
-1.74462
-1.72975
-1.70731
-1.67734
-1.63999
-1.59562
-1.54495
-1.48926
-1.4306
-1.37165
-1.31572
-1.26624
-1.22633
-1.19846
-1.1842
-1.1842
-1.19846
-1.22634
-1.26625
-1.31572
-1.37166
-1.43061
-1.48927
-1.54496
-1.59563
-1.64
-1.67735
-1.70731
-1.72975
-1.74463
-1.75202
-1.86847
-1.86037
-1.84399
-1.81911
-1.78556
-1.74324
-1.6922
-1.63294
-1.56664
-1.49557
-1.4231
-1.3536
-1.2917
-1.24175
-1.20704
-1.18942
-1.18943
-1.20705
-1.24175
-1.29171
-1.35361
-1.4231
-1.49558
-1.56665
-1.63295
-1.69221
-1.74325
-1.78557
-1.81912
-1.844
-1.86038
-1.86848
-1.9981
-1.9895
-1.972
-1.94519
-1.90865
-1.86184
-1.80437
-1.73619
-1.65812
-1.57251
-1.4834
-1.39649
-1.31849
-1.25604
-1.21314
-1.19153
-1.19153
-1.21314
-1.25605
-1.3185
-1.3965
-1.48341
-1.57252
-1.65813
-1.7362
-1.80438
-1.86185
-1.90865
-1.9452
-1.97201
-1.98951
-1.99811
-2.14297
-2.13424
-2.11633
-2.08864
-2.05038
-2.00052
-1.93789
-1.86151
-1.77126
-1.66912
-1.55963
-1.45076
-1.35246
-1.27414
-1.22009
-1.19274
-1.19274
-1.2201
-1.27415
-1.35247
-1.45077
-1.55964
-1.66913
-1.77127
-1.86152
-1.9379
-2.00052
-2.05039
-2.08865
-2.11634
-2.13424
-2.14298
-2.30505
-2.29676
-2.27961
-2.25281
-2.21518
-2.16511
-2.10049
-2.01872
-1.91785
-1.79842
-1.66527
-1.53353
-1.40618
-1.30482
-1.23686
-1.20299
-1.203
-1.23686
-1.30483
-1.40619
-1.53354
-1.66529
-1.79843
-1.91787
-2.01874
-2.1005
-2.16512
-2.21519
-2.25281
-2.27962
-2.29677
-2.30506
-2.48588
-2.47887
-2.4642
-2.44097
-2.40776
-2.36254
-2.30222
-2.22218
-2.11695
-1.98009
-1.81278
-1.66019
-1.52179
-1.39438
-1.30652
-1.2658
-1.2658
-1.30652
-1.39439
-1.5218
-1.66021
-1.8128
-1.98011
-2.11697
-2.22219
-2.30224
-2.36255
-2.40777
-2.44098
-2.46421
-2.47888
-2.48589
-2.68616
-2.68152
-2.67164
-2.65574
-2.6325
-2.60002
-2.55539
-2.49186
-2.38863
-2.22213
-2.04238
-1.85514
-1.72494
-1.61284
-1.52953
-1.48763
-1.48763
-1.52954
-1.61285
-1.72496
-1.85517
-2.0424
-2.22215
-2.38865
-2.49187
-2.5554
-2.60003
-2.6325
-2.65575
-2.67165
-2.68153
-2.68616
-2.90512
-2.90417
-2.90189
-2.89805
-2.89202
-2.88376
-2.87468
-2.84997
-2.74268
-2.56835
-2.37632
-2.21625
-2.07205
-1.96015
-1.88958
-1.85371
-1.85371
-1.88959
-1.96016
-2.07207
-2.21628
-2.37635
-2.56838
-2.74271
-2.84998
-2.87469
-2.88377
-2.89202
-2.89805
-2.90189
-2.90417
-2.90512
-3.13976
-3.14391
-3.15235
-3.16575
-3.18523
-3.21628
-3.26772
-3.29626
-3.18885
-3.09446
-2.94367
-2.7698
-2.59103
-2.45132
-2.3616
-2.31504
-2.31505
-2.36161
-2.45133
-2.59105
-2.76983
-2.9437
-3.09449
-3.18886
-3.29627
-3.26772
-3.21628
-3.18523
-3.16575
-3.15235
-3.14391
-3.13976
-3.38441
-3.39484
-3.41666
-3.45207
-3.50541
-3.59107
-3.71424
-3.78239
-3.80125
-3.76876
-3.64
-3.44264
-3.18842
-2.98697
-2.86563
-2.80234
-2.80235
-2.86564
-2.98699
-3.18846
-3.44268
-3.64003
-3.76879
-3.80126
-3.7824
-3.71424
-3.59107
-3.5054
-3.45207
-3.41665
-3.39483
-3.38441
-3.63114
-3.6483
-3.68474
-3.74474
-3.83805
-3.9886
-4.18872
-4.33161
-4.5526
-4.55859
-4.36446
-4.19467
-3.84669
-3.55811
-3.39688
-3.31339
-3.3134
-3.39689
-3.55814
-3.84674
-4.19471
-4.36449
-4.55862
-4.55262
-4.33162
-4.18871
-3.98858
-3.83804
-3.74473
-3.68473
-3.64829
-3.63114
-3.87031
-3.89364
-3.94359
-4.02649
-4.15796
-4.36538
-4.63538
-4.92409
-5.25985
-5.26534
-5.04238
-4.91399
-4.53066
-4.14674
-3.93487
-3.8262
-3.8262
-3.93488
-4.14677
-4.53071
-4.91401
-5.0424
-5.26536
-5.25985
-4.92407
-4.63535
-4.36536
-4.15795
-4.02648
-3.94357
-3.89363
-3.8703
-4.09187
-4.11971
-4.1796
-4.27918
-4.43603
-4.67503
-4.98373
-5.37193
-5.74276
-5.69618
-5.4619
-5.20699
-5.13167
-4.66374
-4.41718
-4.28931
-4.28932
-4.41719
-4.66377
-5.13169
-5.20697
-5.4619
-5.69619
-5.74272
-5.37188
-4.98369
-4.675
-4.43601
-4.27916
-4.17958
-4.11969
-4.09185
-4.28764
-4.31765
-4.38213
-4.4883
-4.64946
-4.88899
-5.19499
-5.56649
-5.8922
-5.79024
-5.60797
-5.43283
-5.52352
-5.02095
-4.78135
-4.6521
-4.65211
-4.78135
-5.02098
-5.52353
-5.4328
-5.60798
-5.79022
-5.89215
-5.56642
-5.19494
-4.88895
-4.64942
-4.48827
-4.3821
-4.31762
-4.28762
-4.45328
-4.48293
-4.54576
-4.64808
-4.79025
-5.00359
-5.27238
-5.55802
-5.79504
-5.76068
-5.60792
-5.52785
-5.61236
-5.17774
-5.00024
-4.88746
-4.88746
-5.00024
-5.17774
-5.61239
-5.52781
-5.60791
-5.76064
-5.79497
-5.55795
-5.27232
-5.00354
-4.79021
-4.64805
-4.54573
-4.4829
-4.45325
-4.58839
-4.61532
-4.66998
-4.75617
-4.8781
-5.04493
-5.25088
-5.45349
-5.60821
-5.64262
-5.54076
-5.50542
-5.52962
-5.24895
-5.10419
-5.0205
-5.0205
-5.10418
-5.24894
-5.5296
-5.50539
-5.54073
-5.64257
-5.60815
-5.45343
-5.25083
-5.04489
-4.87806
-4.75614
-4.66995
-4.61529
-4.58837
-4.69701
-4.71857
-4.76268
-4.83099
-4.92524
-5.04658
-5.1903
-5.32858
-5.42587
-5.45752
-5.43211
-5.41712
-5.43092
-5.25365
-5.14659
-5.09396
-5.09396
-5.14658
-5.25364
-5.43089
-5.41708
-5.43207
-5.45747
-5.42582
-5.32853
-5.19026
-5.04654
-4.9252
-4.83096
-4.76266
-4.71855
-4.69699
-4.78294
-4.79954
-4.83324
-4.88429
-4.95235
-5.0356
-5.12952
-5.21848
-5.2827
-5.31052
-5.31026
-5.30987
-5.30659
-5.21451
-5.1501
-5.12242
-5.12242
-5.1501
-5.2145
-5.30657
-5.30983
-5.31022
-5.31048
-5.28265
-5.21844
-5.12947
-5.03557
-4.95232
-4.88426
-4.83321
-4.79951
-4.78291
-4.85271
-4.86505
-4.88967
-4.92602
-4.97258
-5.0264
-5.08314
-5.13406
-5.1708
-5.18918
-5.19411
-5.16525
-5.18561
-5.16223
-5.13306
-5.12022
-5.12022
-5.13305
-5.16221
-5.18559
-5.16522
-5.19407
-5.18914
-5.17076
-5.13402
-5.08311
-5.02637
-4.97255
-4.92599
-4.88964
-4.86503
-4.85268
-4.91182
-4.92065
-4.93802
-4.96287
-4.99314
-5.02568
-5.05664
-5.08153
-5.09821
-5.10786
-5.11283
-5.07298
-5.1172
-5.12878
-5.11915
-5.1149
-5.11489
-5.11914
-5.12876
-5.11717
-5.07294
-5.11279
-5.10782
-5.09818
-5.0815
-5.05661
-5.02565
-4.99311
-4.96284
-4.938
-4.92063
-4.91179
-4.96416
-4.97036
-4.98235
-4.99886
-5.01786
-5.03651
-5.05182
-5.06149
-5.06645
-5.07141
-5.07703
-5.06993
-5.10072
-5.1196
-5.11758
-5.11638
-5.11638
-5.11757
-5.11958
-5.10069
-5.06989
-5.077
-5.07138
-5.06642
-5.06146
-5.05179
-5.03649
-5.01783
-4.99883
-4.98232
-4.97034
-4.96414
-5.01237
-5.01671
-5.02498
-5.03606
-5.0482
-5.05914
-5.0668
-5.07018
-5.07097
-5.0734
-5.07012
-5.10418
-5.11058
-5.12627
-5.12677
-5.1258
-5.12579
-5.12676
-5.12625
-5.11056
-5.10416
-5.07009
-5.07337
-5.07094
-5.07015
-5.06677
-5.05912
-5.04818
-5.03604
-5.02496
-5.01669
-5.01235
-5.05792
-5.06108
-5.06708
-5.0751
-5.08384
-5.09177
-5.09773
-5.10168
-5.10531
-5.11001
-5.09369
-5.14695
-5.13743
-5.14463
-5.14486
-5.14315
-5.14315
-5.14485
-5.14462
-5.13741
-5.14693
-5.09367
-5.10999
-5.10529
-5.10166
-5.09771
-5.09175
-5.08382
-5.07508
-5.06706
-5.06106
-5.0579
-5.10168
-5.10417
-5.10898
-5.1156
-5.12328
-5.13127
-5.13933
-5.14846
-5.16032
-5.1737
-5.14862
-5.17846
-5.1737
-5.17258
-5.16935
-5.16603
-5.16603
-5.16935
-5.17257
-5.17369
-5.17845
-5.1486
-5.17368
-5.16031
-5.14844
-5.13931
-5.13125
-5.12327
-5.11559
-5.10896
-5.10415
-5.10166
-5.14406
-5.1462
-5.15044
-5.15657
-5.16435
-5.17374
-5.18519
-5.2004
-5.22132
-5.24551
-5.25674
-5.23172
-5.22003
-5.20793
-5.1978
-5.19182
-5.19181
-5.19779
-5.20792
-5.22002
-5.23171
-5.25673
-5.24549
-5.2213
-5.20039
-5.18517
-5.17372
-5.16434
-5.15656
-5.15043
-5.14619
-5.14405
-5.18521
-5.18714
-5.19104
-5.19691
-5.20487
-5.21532
-5.22922
-5.248
-5.27358
-5.30377
-5.3546
-5.31979
-5.27717
-5.24745
-5.22796
-5.21864
-5.21864
-5.22796
-5.24744
-5.27717
-5.31978
-5.35459
-5.30376
-5.27357
-5.24799
-5.22921
-5.2153
-5.20486
-5.1969
-5.19102
-5.18712
-5.1852
-5.22517
-5.2269
-5.23045
-5.23592
-5.24351
-5.25379
-5.26776
-5.28656
-5.31063
-5.33809
-5.37613
-5.37529
-5.31949
-5.28258
-5.25609
-5.24368
-5.24368
-5.25609
-5.28257
-5.31948
-5.37528
-5.37613
-5.33808
-5.31062
-5.28655
-5.26775
-5.25378
-5.2435
-5.2359
-5.23044
-5.22688
-5.22515
-5.264
-5.26551
-5.26863
-5.27345
-5.28018
-5.28924
-5.30119
-5.31653
-5.33452
-5.35271
-5.37
-5.39013
-5.34245
-5.30789
-5.27905
-5.26471
-5.26471
-5.27904
-5.30788
-5.34244
-5.39013
-5.36999
-5.3527
-5.33451
-5.31652
-5.30118
-5.28923
-5.28017
-5.27344
-5.26862
-5.2655
-5.26399
-5.30186
-5.30312
-5.30573
-5.30974
-5.31528
-5.32251
-5.33158
-5.34245
-5.35391
-5.36325
-5.36793
-5.38802
-5.36666
-5.32694
-5.29687
-5.28158
-5.28158
-5.29687
-5.32694
-5.36666
-5.38801
-5.36793
-5.36324
-5.3539
-5.34244
-5.33158
-5.3225
-5.31527
-5.30973
-5.30572
-5.30311
-5.30185
-5.33895
-5.33996
-5.34203
-5.34519
-5.34944
-5.35479
-5.3612
-5.36846
-5.37575
-5.38138
-5.3835
-5.39541
-5.39039
-5.34346
-5.31098
-5.29499
-5.29499
-5.31098
-5.34346
-5.39038
-5.39541
-5.38349
-5.38138
-5.37574
-5.36845
-5.36119
-5.35478
-5.34943
-5.34518
-5.34203
-5.33995
-5.33894
-5.3755
-5.37628
-5.37786
-5.38023
-5.38332
-5.3871
-5.39146
-5.39625
-5.4011
-5.4054
-5.40872
-5.41408
-5.4074
-5.35811
-5.32296
-5.30595
-5.30595
-5.32296
-5.3581
-5.40739
-5.41407
-5.40871
-5.4054
-5.40109
-5.39624
-5.39146
-5.38709
-5.38332
-5.38022
-5.37785
-5.37627
-5.3755
-5.41174
-5.41232
-5.41349
-5.41522
-5.41743
-5.42003
-5.42292
-5.42594
-5.42882
-5.43121
-5.43298
-5.43333
-5.42296
-5.37103
-5.33353
-5.31542
-5.31542
-5.33353
-5.37102
-5.42295
-5.43332
-5.43298
-5.4312
-5.42882
-5.42594
-5.42292
-5.42003
-5.41742
-5.41521
-5.41349
-5.41232
-5.41174
-5.44786
-5.44828
-5.44914
-5.45039
-5.45196
-5.45377
-5.45568
-5.45745
-5.45873
-5.45903
-5.4583
-5.4536
-5.44372
-5.38415
-5.34336
-5.32406
-5.32406
-5.34336
-5.38415
-5.44372
-5.4536
-5.45829
-5.45903
-5.45872
-5.45745
-5.45567
-5.45377
-5.45196
-5.45038
-5.44913
-5.44827
-5.44785
-5.48399
-5.4843
-5.48494
-5.48587
-5.48703
-5.48834
-5.48963
-5.49063
-5.4908
-5.4895
-5.48637
-5.47546
-5.46792
-5.39841
-5.3532
-5.33244
-5.33244
-5.3532
-5.39841
-5.46791
-5.47545
-5.48637
-5.4895
-5.49079
-5.49062
-5.48963
-5.48833
-5.48702
-5.48586
-5.48494
-5.4843
-5.48398
-5.52028
-5.52052
-5.52101
-5.52173
-5.52264
-5.52366
-5.52461
-5.52513
-5.52459
-5.52224
-5.51749
-5.50116
-5.48897
-5.41244
-5.36336
-5.34102
-5.34102
-5.36336
-5.41243
-5.48896
-5.50116
-5.51749
-5.52223
-5.52459
-5.52512
-5.5246
-5.52365
-5.52264
-5.52173
-5.52101
-5.52051
-5.52027
-5.5568
-5.55699
-5.55739
-5.55798
-5.55874
-5.55959
-5.56032
-5.56051
-5.55944
-5.5563
-5.55055
-5.53099
-5.50769
-5.42588
-5.37395
-5.35014
-5.35014
-5.37395
-5.42588
-5.50768
-5.53098
-5.55055
-5.55629
-5.55943
-5.56051
-5.56032
-5.55958
-5.55874
-5.55798
-5.55739
-5.55699
-5.5568
-5.59361
-5.59378
-5.59412
-5.59463
-5.5953
-5.59604
-5.59661
-5.59653
-5.59506
-5.59143
-5.58487
-5.56344
-5.52871
-5.44027
-5.38555
-5.36025
-5.36025
-5.38555
-5.44027
-5.5287
-5.56343
-5.58487
-5.59142
-5.59505
-5.59652
-5.5966
-5.59603
-5.5953
-5.59463
-5.59411
-5.59377
-5.59361
-5.63077
-5.63092
-5.63124
-5.63172
-5.63235
-5.63302
-5.63348
-5.63324
-5.63165
-5.62813
-5.62167
-5.60043
-5.55047
-5.45535
-5.39839
-5.37179
-5.37179
-5.39839
-5.45535
-5.55046
-5.60043
-5.62167
-5.62812
-5.63164
-5.63324
-5.63347
-5.63301
-5.63234
-5.63172
-5.63124
-5.63092
-5.63077
-5.66834
-5.66849
-5.66882
-5.66931
-5.66994
-5.6706
-5.67103
-5.67076
-5.66924
-5.66645
-5.66163
-5.64471
-5.57167
-5.47125
-5.41283
-5.3853
-5.3853
-5.41283
-5.47124
-5.57166
-5.64471
-5.66163
-5.66645
-5.66924
-5.67075
-5.67103
-5.6706
-5.66994
-5.6693
-5.66881
-5.66849
-5.66833
-5.70637
-5.70654
-5.7069
-5.70744
-5.70813
-5.70884
-5.70929
-5.70897
-5.70741
-5.70503
-5.70139
-5.69597
-5.59342
-5.48864
-5.42965
-5.40171
-5.40171
-5.42965
-5.48864
-5.59342
-5.69597
-5.70138
-5.70503
-5.7074
-5.70897
-5.70928
-5.70884
-5.70813
-5.70744
-5.7069
-5.70654
-5.70636
-5.74491
-5.74512
-5.74554
-5.74617
-5.74696
-5.74776
-5.74823
-5.7478
-5.74573
-5.74122
-5.72929
-5.7418
-5.61382
-5.50787
-5.45011
-5.42272
-5.42271
-5.4501
-5.50787
-5.61381
-5.7418
-5.72929
-5.74121
-5.74573
-5.7478
-5.74823
-5.74775
-5.74695
-5.74616
-5.74553
-5.74511
-5.7449
-5.78401
-5.78426
-5.78477
-5.78552
-5.78645
-5.78739
-5.78797
-5.78759
-5.78535
-5.77893
-5.75341
-5.7641
-5.63107
-5.53097
-5.47683
-5.4511
-5.4511
-5.47683
-5.53097
-5.63107
-5.76409
-5.75341
-5.77892
-5.78535
-5.78758
-5.78796
-5.78738
-5.78644
-5.78551
-5.78476
-5.78425
-5.784
-5.82371
-5.82402
-5.82463
-5.82552
-5.8266
-5.82769
-5.82843
-5.82833
-5.82688
-5.82122
-5.79351
-5.77204
-5.64879
-5.56192
-5.51362
-5.49048
-5.49048
-5.51362
-5.56192
-5.64878
-5.77204
-5.79351
-5.82122
-5.82688
-5.82833
-5.82843
-5.82769
-5.8266
-5.82551
-5.82463
-5.82402
-5.82371
-5.8641
-5.86447
-5.86519
-5.86621
-5.86742
-5.86857
-5.86929
-5.86921
-5.86881
-5.86426
-5.86024
-5.78875
-5.67677
-5.60541
-5.56441
-5.54465
-5.54465
-5.56441
-5.60541
-5.67676
-5.78875
-5.86024
-5.86426
-5.86881
-5.86921
-5.86929
-5.86857
-5.86741
-5.86621
-5.86519
-5.86447
-5.86409
-5.90525
-5.90569
-5.90652
-5.90767
-5.90896
-5.91005
-5.91035
-5.90885
-5.90234
-5.88759
-5.91908
-5.81631
-5.72127
-5.66595
-5.63353
-5.61793
-5.61792
-5.63353
-5.66595
-5.72127
-5.8163
-5.91907
-5.88758
-5.90233
-5.90884
-5.91035
-5.91005
-5.90896
-5.90767
-5.90652
-5.90568
-5.90525
-5.94729
-5.9478
-5.94875
-5.95004
-5.95143
-5.95251
-5.9526
-5.95109
-5.94827
-5.93899
-5.94554
-5.85611
-5.78745
-5.74869
-5.72569
-5.71467
-5.71467
-5.72569
-5.74869
-5.78745
-5.8561
-5.94553
-5.93898
-5.94826
-5.95108
-5.95259
-5.95251
-5.95143
-5.95003
-5.94875
-5.9478
-5.94729
-5.9904
-5.99097
-5.99204
-5.99346
-5.99494
-5.99597
-5.99539
-5.99051
-5.97977
-6.01454
-5.98475
-5.92193
-5.88131
-5.85835
-5.84467
-5.83819
-5.83819
-5.84467
-5.85835
-5.88131
-5.92193
-5.98474
-6.01454
-5.97976
-5.99051
-5.99539
-5.99597
-5.99493
-5.99346
-5.99204
-5.99097
-5.99039
-6.03477
-6.0354
-6.03659
-6.03818
-6.03984
-6.04113
-6.04097
-6.03669
-6.0441
-6.08102
-6.0535
-6.02349
-6.0072
-5.99815
-5.99293
-5.99052
-5.99052
-5.99293
-5.99815
-6.00719
-6.02349
-6.0535
-6.08101
-6.0441
-6.03669
-6.04097
-6.04113
-6.03983
-6.03817
-6.03659
-6.0354
-6.03476
-6.08068
-6.08137
-6.08269
-6.08453
-6.08654
-6.08844
-6.09003
-6.10105
-6.15312
-6.17345
-6.16809
-6.16598
-6.16758
-6.16969
-6.17137
-6.17225
-6.17225
-6.17136
-6.16969
-6.16758
-6.16597
-6.16808
-6.17344
-6.15312
-6.10104
-6.09002
-6.08844
-6.08654
-6.08453
-6.08268
-6.08137
-6.08067
-6.1286
-6.12929
-6.13078
-6.13314
-6.13526
-6.13766
-6.16262
-6.22338
-6.28222
-6.31156
-6.33121
-6.34843
-6.36227
-6.37249
-6.37921
-6.38251
-6.38251
-6.3792
-6.37249
-6.36227
-6.34843
-6.33121
-6.31156
-6.28221
-6.22338
-6.16262
-6.13765
-6.13526
-6.13314
-6.13077
-6.12929
-6.12859
-6.17888
-6.17956
-6.18072
-6.18383
-6.2054
-6.25824
-6.32094
-6.39913
-6.46093
-6.50515
-6.54023
-6.56797
-6.58914
-6.60445
-6.6144
-6.61928
-6.61928
-6.6144
-6.60445
-6.58914
-6.56797
-6.54023
-6.50514
-6.46093
-6.39913
-6.32093
-6.25824
-6.20539
-6.18382
-6.18071
-6.17956
-6.17888
-6.27923
-6.28849
-6.3126
-6.35471
-6.40499
-6.47386
-6.55577
-6.63289
-6.69637
-6.74713
-6.78774
-6.81986
-6.84452
-6.86241
-6.87406
-6.87979
-6.87978
-6.87406
-6.86241
-6.84452
-6.81986
-6.78774
-6.74713
-6.69637
-6.63288
-6.55576
-6.47386
-6.40498
-6.35471
-6.3126
-6.28849
-6.27922
-6.54604
-6.5638
-6.59883
-6.64999
-6.71023
-6.77838
-6.85024
-6.9172
-6.97585
-7.02527
-7.06594
-7.09867
-7.12409
-7.1427
-7.15489
-7.1609
-7.1609
-7.15488
-7.1427
-7.12409
-7.09867
-7.06593
-7.02526
-6.97585
-6.91719
-6.85023
-6.77838
-6.71022
-6.64998
-6.59882
-6.56379
-6.54604
-6.93058
-6.94493
-6.97283
-7.01268
-7.0623
-7.11906
-7.17765
-7.2339
-7.28523
-7.33009
-7.36802
-7.39911
-7.42358
-7.44166
-7.45358
-7.45948
-7.45948
-7.45357
-7.44166
-7.42358
-7.39911
-7.36801
-7.33008
-7.28523
-7.23389
-7.17764
-7.11906
-7.06229
-7.01267
-6.97282
-6.94493
-6.93058
-7.32507
-7.33652
-7.35891
-7.39117
-7.43136
-7.4767
-7.5242
-7.57108
-7.61495
-7.65427
-7.68824
-7.71654
-7.73908
-7.7559
-7.76705
-7.7726
-7.7726
-7.76705
-7.7559
-7.73908
-7.71653
-7.68824
-7.65427
-7.61495
-7.57108
-7.5242
-7.4767
-7.43135
-7.39116
-7.35891
-7.33651
-7.32506
-7.72225
-7.73149
-7.74953
-7.77541
-7.80758
-7.84412
-7.88291
-7.92171
-7.95866
-7.99242
-8.02208
-8.04713
-8.0673
-8.08248
-8.0926
-8.09766
-8.09766
-8.0926
-8.08248
-8.0673
-8.04713
-8.02208
-7.99242
-7.95866
-7.92171
-7.8829
-7.84412
-7.80758
-7.7754
-7.74952
-7.73148
-7.72224
-8.11931
-8.12673
-8.1412
-8.16198
-8.18789
-8.21749
-8.24913
-8.28114
-8.312
-8.34061
-8.36608
-8.38783
-8.40552
-8.41893
-8.42791
-8.43241
-8.43241
-8.42791
-8.41893
-8.40552
-8.38783
-8.36607
-8.3406
-8.312
-8.28114
-8.24912
-8.21749
-8.18788
-8.16197
-8.1412
-8.12673
-8.11931
-8.51489
-8.52086
-8.5325
-8.54924
-8.57016
-8.59417
-8.61998
-8.64633
-8.67198
-8.69601
-8.71764
-8.73629
-8.75157
-8.76323
-8.77107
-8.77502
-8.77502
-8.77107
-8.76323
-8.75157
-8.73629
-8.71763
-8.69601
-8.67198
-8.64633
-8.61997
-8.59416
-8.57016
-8.54923
-8.5325
-8.52086
-8.51489
-8.90841
-8.91322
-8.92261
-8.93612
-8.95305
-8.97254
-8.99361
-9.01527
-9.03653
-9.05661
-9.07484
-9.09068
-9.10374
-9.11376
-9.12052
-9.12393
-9.12393
-9.12052
-9.11375
-9.10374
-9.09068
-9.07483
-9.05661
-9.03653
-9.01527
-8.99361
-8.97254
-8.95305
-8.93611
-8.9226
-8.91322
-8.90841
-9.29969
-9.30358
-9.31117
-9.3221
-9.33583
-9.35168
-9.36889
-9.38668
-9.40426
-9.42098
-9.43626
-9.44962
-9.4607
-9.46922
-9.47501
-9.47793
-9.47792
-9.47501
-9.46922
-9.4607
-9.44962
-9.43626
-9.42098
-9.40426
-9.38668
-9.36889
-9.35167
-9.33582
-9.32209
-9.31116
-9.30358
-9.29969
-9.68879
-9.69194
-9.69809
-9.70695
-9.7181
-9.73102
-9.74509
-9.7597
-9.77422
-9.7881
-9.80086
-9.81207
-9.8214
-9.82862
-9.83352
-9.836
-9.836
-9.83352
-9.82862
-9.8214
-9.81207
-9.80085
-9.7881
-9.77422
-9.7597
-9.74509
-9.73101
-9.7181
-9.70695
-9.69808
-9.69194
-9.68879
-10.0759
-10.0784
-10.0834
-10.0906
-10.0997
-10.1102
-10.1218
-10.1338
-10.1457
-10.1572
-10.1679
-10.1772
-10.1851
-10.1911
-10.1953
-10.1974
-10.1974
-10.1953
-10.1911
-10.1851
-10.1772
-10.1679
-10.1572
-10.1457
-10.1338
-10.1218
-10.1102
-10.0997
-10.0906
-10.0834
-10.0784
-10.0759
-10.4612
-10.4633
-10.4673
-10.4732
-10.4806
-10.4892
-10.4986
-10.5085
-10.5184
-10.5279
-10.5367
-10.5445
-10.5511
-10.5561
-10.5596
-10.5614
-10.5614
-10.5596
-10.5561
-10.5511
-10.5445
-10.5367
-10.5279
-10.5184
-10.5085
-10.4986
-10.4892
-10.4806
-10.4732
-10.4673
-10.4633
-10.4612
-10.8449
-10.8466
-10.8499
-10.8547
-10.8608
-10.8678
-10.8755
-10.8836
-10.8918
-10.8996
-10.9069
-10.9134
-10.9189
-10.9231
-10.926
-10.9275
-10.9275
-10.926
-10.9231
-10.9189
-10.9134
-10.9069
-10.8996
-10.8918
-10.8836
-10.8755
-10.8678
-10.8607
-10.8547
-10.8499
-10.8466
-10.8449
-11.2273
-11.2287
-11.2314
-11.2353
-11.2403
-11.246
-11.2524
-11.259
-11.2657
-11.2722
-11.2783
-11.2837
-11.2882
-11.2917
-11.2942
-11.2954
-11.2954
-11.2942
-11.2917
-11.2882
-11.2837
-11.2783
-11.2722
-11.2657
-11.259
-11.2523
-11.246
-11.2403
-11.2353
-11.2314
-11.2287
-11.2273
-11.6086
-11.6097
-11.6119
-11.6151
-11.6192
-11.6239
-11.6291
-11.6346
-11.6401
-11.6454
-11.6505
-11.6549
-11.6587
-11.6616
-11.6636
-11.6647
-11.6647
-11.6636
-11.6616
-11.6587
-11.6549
-11.6505
-11.6454
-11.6401
-11.6346
-11.6291
-11.6239
-11.6192
-11.6151
-11.6119
-11.6097
-11.6086
-11.9889
-11.9898
-11.9916
-11.9942
-11.9975
-12.0014
-12.0057
-12.0102
-12.0147
-12.0192
-12.0233
-12.027
-12.0301
-12.0326
-12.0342
-12.0351
-12.0351
-12.0342
-12.0326
-12.0301
-12.027
-12.0233
-12.0192
-12.0147
-12.0102
-12.0057
-12.0014
-11.9975
-11.9942
-11.9916
-11.9898
-11.9889
-12.3684
-12.3691
-12.3706
-12.3728
-12.3755
-12.3786
-12.3822
-12.3859
-12.3896
-12.3933
-12.3967
-12.3997
-12.4023
-12.4043
-12.4057
-12.4064
-12.4064
-12.4057
-12.4043
-12.4023
-12.3997
-12.3967
-12.3933
-12.3896
-12.3859
-12.3821
-12.3786
-12.3755
-12.3728
-12.3706
-12.3691
-12.3684
-12.7472
-12.7478
-12.749
-12.7508
-12.753
-12.7556
-12.7585
-12.7615
-12.7646
-12.7676
-12.7705
-12.773
-12.7751
-12.7768
-12.7779
-12.7785
-12.7785
-12.7779
-12.7768
-12.7751
-12.773
-12.7705
-12.7676
-12.7646
-12.7615
-12.7585
-12.7556
-12.753
-12.7508
-12.749
-12.7478
-12.7472
-13.1254
-13.126
-13.1269
-13.1284
-13.1302
-13.1324
-13.1347
-13.1372
-13.1398
-13.1423
-13.1446
-13.1467
-13.1484
-13.1498
-13.1508
-13.1513
-13.1513
-13.1508
-13.1498
-13.1484
-13.1467
-13.1446
-13.1423
-13.1398
-13.1372
-13.1347
-13.1324
-13.1302
-13.1284
-13.1269
-13.126
-13.1254
-13.5032
-13.5036
-13.5045
-13.5056
-13.5071
-13.5089
-13.5108
-13.5129
-13.515
-13.517
-13.519
-13.5207
-13.5221
-13.5233
-13.5241
-13.5245
-13.5245
-13.5241
-13.5233
-13.5221
-13.5207
-13.519
-13.517
-13.515
-13.5129
-13.5108
-13.5089
-13.5071
-13.5056
-13.5045
-13.5036
-13.5032
-13.8806
-13.881
-13.8816
-13.8826
-13.8838
-13.8853
-13.8869
-13.8886
-13.8903
-13.892
-13.8936
-13.895
-13.8962
-13.8971
-13.8978
-13.8981
-13.8981
-13.8978
-13.8971
-13.8962
-13.895
-13.8936
-13.892
-13.8903
-13.8886
-13.8869
-13.8853
-13.8838
-13.8826
-13.8816
-13.881
-13.8806
-14.2577
-14.258
-14.2585
-14.2593
-14.2603
-14.2615
-14.2628
-14.2642
-14.2656
-14.267
-14.2683
-14.2695
-14.2705
-14.2713
-14.2718
-14.2721
-14.2721
-14.2718
-14.2713
-14.2705