/*--------------------------------*- C++ -*----------------------------------*\
  =========                 |
  \\      /  F ield         | OpenFOAM: The Open Source CFD Toolbox
   \\    /   O peration     | Website:  https://openfoam.org
    \\  /    A nd           | Version:  9
     \\/     M anipulation  |
\*---------------------------------------------------------------------------*/
FoamFile
{
    format      ascii;
    class       volScalarField;
    location    "0.75";
    object      p_rgh;
}
// * * * * * * * * * * * * * * * * * * * * * * * * * * * * * * * * * * * * * //

dimensions      [1 -1 -2 0 0 0 0];

internalField   nonuniform List<scalar> 
4096
(
-3.29775
-3.29766
-3.29749
-3.29724
-3.29692
-3.29654
-3.29612
-3.29567
-3.29521
-3.29476
-3.29434
-3.29395
-3.29363
-3.29337
-3.2932
-3.29311
-3.29311
-3.2932
-3.29337
-3.29363
-3.29395
-3.29434
-3.29476
-3.29521
-3.29567
-3.29612
-3.29654
-3.29692
-3.29724
-3.29749
-3.29767
-3.29776
-3.29784
-3.29775
-3.29757
-3.29731
-3.29698
-3.29658
-3.29614
-3.29568
-3.2952
-3.29474
-3.2943
-3.2939
-3.29356
-3.2933
-3.29311
-3.29302
-3.29302
-3.29311
-3.2933
-3.29356
-3.2939
-3.2943
-3.29474
-3.2952
-3.29568
-3.29614
-3.29658
-3.29698
-3.29731
-3.29757
-3.29775
-3.29784
-3.29802
-3.29792
-3.29773
-3.29745
-3.29709
-3.29667
-3.2962
-3.2957
-3.29519
-3.29469
-3.29421
-3.29379
-3.29343
-3.29314
-3.29294
-3.29284
-3.29284
-3.29294
-3.29314
-3.29343
-3.29379
-3.29421
-3.29469
-3.29519
-3.2957
-3.2962
-3.29667
-3.29709
-3.29745
-3.29773
-3.29792
-3.29802
-3.29829
-3.29818
-3.29797
-3.29766
-3.29727
-3.2968
-3.29628
-3.29573
-3.29516
-3.29461
-3.29408
-3.29361
-3.29321
-3.2929
-3.29268
-3.29257
-3.29257
-3.29268
-3.2929
-3.29321
-3.29361
-3.29408
-3.29461
-3.29516
-3.29573
-3.29628
-3.2968
-3.29727
-3.29766
-3.29797
-3.29819
-3.29829
-3.29868
-3.29855
-3.29831
-3.29796
-3.29751
-3.29698
-3.29639
-3.29577
-3.29513
-3.2945
-3.29391
-3.29337
-3.29292
-3.29256
-3.29231
-3.29219
-3.29219
-3.29231
-3.29256
-3.29292
-3.29337
-3.29391
-3.2945
-3.29513
-3.29577
-3.29639
-3.29698
-3.29751
-3.29796
-3.29832
-3.29856
-3.29868
-3.29918
-3.29904
-3.29876
-3.29836
-3.29784
-3.29723
-3.29655
-3.29582
-3.29508
-3.29435
-3.29367
-3.29305
-3.29252
-3.29211
-3.29182
-3.29168
-3.29168
-3.29182
-3.29211
-3.29252
-3.29305
-3.29367
-3.29435
-3.29508
-3.29582
-3.29655
-3.29723
-3.29784
-3.29836
-3.29877
-3.29904
-3.29919
-3.29983
-3.29967
-3.29934
-3.29887
-3.29826
-3.29754
-3.29674
-3.29589
-3.29502
-3.29417
-3.29337
-3.29264
-3.29202
-3.29154
-3.2912
-3.29103
-3.29103
-3.2912
-3.29154
-3.29202
-3.29264
-3.29337
-3.29417
-3.29502
-3.29589
-3.29674
-3.29754
-3.29826
-3.29887
-3.29934
-3.29967
-3.29984
-3.30065
-3.30046
-3.30007
-3.29951
-3.29878
-3.29793
-3.29699
-3.29598
-3.29495
-3.29394
-3.29298
-3.29212
-3.29139
-3.29081
-3.29042
-3.29021
-3.29021
-3.29042
-3.29082
-3.29139
-3.29212
-3.29299
-3.29394
-3.29495
-3.29598
-3.29699
-3.29794
-3.29879
-3.29951
-3.30007
-3.30046
-3.30065
-3.30167
-3.30143
-3.30097
-3.3003
-3.29944
-3.29843
-3.2973
-3.29609
-3.29486
-3.29365
-3.29251
-3.29148
-3.29061
-3.28992
-3.28944
-3.2892
-3.2892
-3.28944
-3.28992
-3.29061
-3.29149
-3.29251
-3.29365
-3.29486
-3.29609
-3.2973
-3.29843
-3.29944
-3.3003
-3.30098
-3.30144
-3.30167
-3.30292
-3.30264
-3.30209
-3.30128
-3.30025
-3.29903
-3.29768
-3.29623
-3.29476
-3.2933
-3.29193
-3.2907
-3.28964
-3.28882
-3.28824
-3.28795
-3.28795
-3.28824
-3.28882
-3.28965
-3.2907
-3.29193
-3.29331
-3.29476
-3.29623
-3.29768
-3.29903
-3.30025
-3.30128
-3.30209
-3.30264
-3.30292
-3.30446
-3.30412
-3.30346
-3.30249
-3.30125
-3.29978
-3.29815
-3.29641
-3.29463
-3.29288
-3.29123
-3.28973
-3.28846
-3.28746
-3.28677
-3.28642
-3.28642
-3.28677
-3.28746
-3.28846
-3.28974
-3.29123
-3.29288
-3.29463
-3.29641
-3.29815
-3.29978
-3.30125
-3.30249
-3.30346
-3.30413
-3.30446
-3.30634
-3.30594
-3.30514
-3.30396
-3.30247
-3.3007
-3.29873
-3.29663
-3.29448
-3.29236
-3.29036
-3.28856
-3.28702
-3.28581
-3.28498
-3.28455
-3.28455
-3.28498
-3.28581
-3.28702
-3.28856
-3.29037
-3.29236
-3.29448
-3.29663
-3.29873
-3.3007
-3.30247
-3.30397
-3.30514
-3.30594
-3.30635
-3.30864
-3.30815
-3.30718
-3.30577
-3.30396
-3.30183
-3.29944
-3.2969
-3.2943
-3.29174
-3.28932
-3.28713
-3.28527
-3.2838
-3.28278
-3.28227
-3.28227
-3.28278
-3.2838
-3.28527
-3.28713
-3.28932
-3.29174
-3.2943
-3.2969
-3.29944
-3.30183
-3.30396
-3.30577
-3.30719
-3.30815
-3.30864
-3.31144
-3.31085
-3.30968
-3.30798
-3.30579
-3.30321
-3.30032
-3.29725
-3.2941
-3.29099
-3.28805
-3.2854
-3.28313
-3.28135
-3.28012
-3.27949
-3.27949
-3.28012
-3.28135
-3.28314
-3.2854
-3.28806
-3.29099
-3.2941
-3.29725
-3.30033
-3.30321
-3.30579
-3.30798
-3.30969
-3.31085
-3.31145
-3.31486
-3.31414
-3.31273
-3.31067
-3.30803
-3.3049
-3.30141
-3.29769
-3.29387
-3.2901
-3.28653
-3.2833
-3.28055
-3.27838
-3.27688
-3.27611
-3.27611
-3.27688
-3.27838
-3.28055
-3.2833
-3.28653
-3.2901
-3.29387
-3.29769
-3.30141
-3.3049
-3.30803
-3.31067
-3.31273
-3.31414
-3.31486
-3.31901
-3.31815
-3.31645
-3.31395
-3.31076
-3.30698
-3.30276
-3.29824
-3.29361
-3.28903
-3.28469
-3.28077
-3.27741
-3.27477
-3.27294
-3.27201
-3.27201
-3.27294
-3.27477
-3.27741
-3.28077
-3.28469
-3.28903
-3.29361
-3.29824
-3.30276
-3.30698
-3.31076
-3.31396
-3.31645
-3.31815
-3.31902
-3.32407
-3.32303
-3.32097
-3.31797
-3.31411
-3.30954
-3.30442
-3.29895
-3.29333
-3.28777
-3.28249
-3.27771
-3.27362
-3.2704
-3.26816
-3.26703
-3.26703
-3.26817
-3.2704
-3.27362
-3.27771
-3.28249
-3.28777
-3.29333
-3.29895
-3.30443
-3.30954
-3.31411
-3.31797
-3.32098
-3.32303
-3.32407
-3.33022
-3.32897
-3.32649
-3.32287
-3.31821
-3.31269
-3.3065
-3.29986
-3.29304
-3.28628
-3.27986
-3.27403
-3.26904
-3.2651
-3.26238
-3.26099
-3.26099
-3.26238
-3.2651
-3.26904
-3.27403
-3.27986
-3.28628
-3.29304
-3.29987
-3.3065
-3.31269
-3.31821
-3.32287
-3.3265
-3.32897
-3.33023
-3.33772
-3.33621
-3.33323
-3.32886
-3.32324
-3.31657
-3.30909
-3.30105
-3.29276
-3.28455
-3.27672
-3.26962
-3.26352
-3.25871
-3.25537
-3.25367
-3.25367
-3.25537
-3.25871
-3.26353
-3.26962
-3.27672
-3.28455
-3.29277
-3.30105
-3.30909
-3.31658
-3.32324
-3.32886
-3.33323
-3.33621
-3.33772
-3.34683
-3.34502
-3.34144
-3.33619
-3.32942
-3.32138
-3.31233
-3.3026
-3.29254
-3.28255
-3.27301
-3.26433
-3.25688
-3.25098
-3.2469
-3.24481
-3.24481
-3.2469
-3.25098
-3.25688
-3.26434
-3.27301
-3.28255
-3.29254
-3.3026
-3.31234
-3.32139
-3.32943
-3.33619
-3.34145
-3.34502
-3.34684
-3.35793
-3.35576
-3.35147
-3.34517
-3.33704
-3.32735
-3.31643
-3.30465
-3.29244
-3.28027
-3.26864
-3.25804
-3.24891
-3.24168
-3.23666
-3.2341
-3.2341
-3.23666
-3.24168
-3.24891
-3.25804
-3.26865
-3.28028
-3.29244
-3.30465
-3.31643
-3.32736
-3.33704
-3.34517
-3.35148
-3.35576
-3.35794
-3.37145
-3.36885
-3.36373
-3.35618
-3.34644
-3.33479
-3.32162
-3.30737
-3.29256
-3.27775
-3.26355
-3.25057
-3.23938
-3.23049
-3.22433
-3.22117
-3.22117
-3.22433
-3.2305
-3.23938
-3.25057
-3.26355
-3.27775
-3.29256
-3.30737
-3.32162
-3.33479
-3.34644
-3.35619
-3.36373
-3.36886
-3.37145
-3.3879
-3.38482
-3.37872
-3.36972
-3.35806
-3.3441
-3.32824
-3.31102
-3.29306
-3.27503
-3.25768
-3.24177
-3.22803
-3.21709
-3.20949
-3.2056
-3.2056
-3.20949
-3.21709
-3.22803
-3.24178
-3.25768
-3.27503
-3.29306
-3.31103
-3.32825
-3.3441
-3.35807
-3.36972
-3.37872
-3.38483
-3.38791
-3.40795
-3.4043
-3.39707
-3.38638
-3.37249
-3.35579
-3.33675
-3.31598
-3.2942
-3.27224
-3.25102
-3.2315
-3.21458
-3.20109
-3.1917
-3.18689
-3.18689
-3.1917
-3.20109
-3.21458
-3.2315
-3.25102
-3.27224
-3.2942
-3.31598
-3.33676
-3.3558
-3.3725
-3.38638
-3.39707
-3.40431
-3.40795
-3.43236
-3.42807
-3.41955
-3.40692
-3.39046
-3.37056
-3.34776
-3.32274
-3.29637
-3.26961
-3.24364
-3.21963
-3.19876
-3.18209
-3.17047
-3.16452
-3.16452
-3.17047
-3.18209
-3.19877
-3.21963
-3.24364
-3.26961
-3.29637
-3.32275
-3.34777
-3.37057
-3.39046
-3.40692
-3.41956
-3.42808
-3.43236
-3.46209
-3.45708
-3.44712
-3.43229
-3.41289
-3.38931
-3.36211
-3.33207
-3.30016
-3.26756
-3.23572
-3.20616
-3.18036
-3.1597
-3.14528
-3.13789
-3.13789
-3.14528
-3.1597
-3.18036
-3.20616
-3.23573
-3.26756
-3.30017
-3.33207
-3.36212
-3.38932
-3.4129
-3.4323
-3.44712
-3.45709
-3.46209
-3.49826
-3.49248
-3.48093
-3.46369
-3.44101
-3.41324
-3.38097
-3.34501
-3.30653
-3.26677
-3.2277
-3.19121
-3.15925
-3.13358
-3.11565
-3.10646
-3.10646
-3.11565
-3.13358
-3.15925
-3.19122
-3.22771
-3.26678
-3.30653
-3.34501
-3.38097
-3.41325
-3.44101
-3.4637
-3.48094
-3.49249
-3.49827
-3.54223
-3.53564
-3.52243
-3.50261
-3.47635
-3.44395
-3.40592
-3.36306
-3.31658
-3.26834
-3.22038
-3.17526
-3.13554
-3.10358
-3.08124
-3.06979
-3.06979
-3.08124
-3.10358
-3.13554
-3.17526
-3.22039
-3.26835
-3.31659
-3.36307
-3.40593
-3.44396
-3.47636
-3.50262
-3.52244
-3.53565
-3.54224
-3.59559
-3.5882
-3.57332
-3.55088
-3.52092
-3.48357
-3.4392
-3.38853
-3.33284
-3.27418
-3.21522
-3.15929
-3.10981
-3.06991
-3.04203
-3.02778
-3.02778
-3.04203
-3.06991
-3.10982
-3.1593
-3.21523
-3.27419
-3.33285
-3.38853
-3.4392
-3.48358
-3.52092
-3.55089
-3.57333
-3.5882
-3.59559
-3.66012
-3.65202
-3.63564
-3.61075
-3.57721
-3.53488
-3.48385
-3.42458
-3.35828
-3.28721
-3.21474
-3.14525
-3.08334
-3.03339
-2.99869
-2.98107
-2.98107
-2.99869
-3.03339
-3.08335
-3.14526
-3.21475
-3.28722
-3.35829
-3.42459
-3.48386
-3.53489
-3.57722
-3.61076
-3.63564
-3.65203
-3.66012
-3.73782
-3.72921
-3.71171
-3.6849
-3.64836
-3.60156
-3.54409
-3.4759
-3.39783
-3.31222
-3.22311
-3.1362
-3.0582
-2.99576
-2.95285
-2.93125
-2.93125
-2.95285
-2.99576
-3.05821
-3.13621
-3.22312
-3.31223
-3.39784
-3.47591
-3.5441
-3.60157
-3.64837
-3.68491
-3.71172
-3.72922
-3.73782
-3.83075
-3.82202
-3.80411
-3.77642
-3.73816
-3.6883
-3.62567
-3.54929
-3.45904
-3.3569
-3.24741
-3.13855
-3.04029
-2.96198
-2.90795
-2.88063
-2.88063
-2.90796
-2.96198
-3.04029
-3.13856
-3.24742
-3.35691
-3.45905
-3.5493
-3.62568
-3.6883
-3.73817
-3.77643
-3.80412
-3.82202
-3.83076
-3.9409
-3.93261
-3.91546
-3.88865
-3.85103
-3.80096
-3.73634
-3.65457
-3.5537
-3.43427
-3.30126
-3.17006
-3.04353
-2.94215
-2.87546
-2.84238
-2.84238
-2.87546
-2.94216
-3.04354
-3.17007
-3.30126
-3.43428
-3.55372
-3.65459
-3.73635
-3.80097
-3.85103
-3.88866
-3.91547
-3.93262
-3.94091
-4.0698
-4.06279
-4.04812
-4.02489
-3.99168
-3.94646
-3.88614
-3.80609
-3.70087
-3.56418
-3.40231
-3.26553
-3.46944
-4.15665
-4.79501
-5.10184
-5.10183
-4.79499
-4.15662
-3.46942
-3.26555
-3.4023
-3.56419
-3.70089
-3.80611
-3.88615
-3.94647
-3.99169
-4.0249
-4.04813
-4.0628
-4.06981
-4.21814
-4.21351
-4.20363
-4.18773
-4.16448
-4.13201
-4.08737
-4.02384
-3.92064
-3.75483
-3.91366
-6.5997
-9.67559
-11.1571
-11.7516
-11.9393
-11.9393
-11.7516
-11.1571
-9.67551
-6.59957
-3.91358
-3.75485
-3.92066
-4.02386
-4.08738
-4.13202
-4.16449
-4.18773
-4.20363
-4.21351
-4.21814
-4.38517
-4.38422
-4.38194
-4.3781
-4.37207
-4.36381
-4.35473
-4.33006
-4.22331
-4.48073
-9.59076
-12.7424
-12.7749
-12.663
-12.5924
-12.5566
-12.5566
-12.5925
-12.663
-12.7749
-12.7424
-9.59046
-4.48064
-4.22333
-4.33007
-4.35474
-4.36382
-4.37208
-4.37811
-4.38195
-4.38423
-4.38518
-4.56788
-4.57204
-4.58047
-4.59387
-4.61335
-4.6444
-4.69586
-4.72485
-4.78239
-9.69706
-13.2708
-13.0971
-12.9184
-12.7786
-12.6889
-12.6424
-12.6424
-12.6889
-12.7787
-12.9184
-13.0971
-13.2709
-9.69663
-4.78233
-4.72486
-4.69586
-4.64441
-4.61335
-4.59387
-4.58047
-4.57204
-4.56788
-4.7606
-4.77103
-4.79285
-4.82826
-4.8816
-4.96727
-5.09054
-5.1615
-7.71459
-13.5964
-13.5916
-13.3942
-13.1402
-12.9388
-12.8174
-12.7541
-12.7541
-12.8174
-12.9388
-13.1402
-13.3943
-13.5916
-13.5963
-7.7142
-5.16152
-5.09054
-4.96726
-4.88159
-4.82826
-4.79284
-4.77102
-4.7606
-4.9554
-4.97256
-5.009
-5.069
-5.16231
-5.31286
-5.5133
-5.93341
-11.4768
-14.1314
-13.9392
-13.765
-13.4229
-13.1344
-12.9731
-12.8896
-12.8896
-12.9731
-13.1344
-13.423
-13.7651
-13.9392
-14.1314
-11.4764
-5.93331
-5.51329
-5.31285
-5.1623
-5.06899
-5.00899
-4.97255
-4.95539
-5.14264
-5.16597
-5.21591
-5.29882
-5.43029
-5.63772
-5.90816
-7.0302
-13.2007
-14.4619
-13.8723
-11.9545
-13.4791
-13.3474
-13.1356
-13.0269
-13.0269
-13.1356
-13.3475
-13.479
-11.9542
-13.8723
-14.462
-13.2003
-7.02993
-5.90813
-5.63769
-5.43027
-5.2988
-5.2159
-5.16595
-5.14262
-5.31226
-5.34011
-5.39999
-5.49958
-5.65643
-5.89548
-6.20537
-7.59436
-13.3898
-14.5088
-10.643
-7.05726
-12.9053
-13.4889
-13.2423
-13.1145
-13.1145
-13.2424
-13.4889
-12.9048
-7.057
-10.6434
-14.5088
-13.3894
-7.59401
-6.20533
-5.89545
-5.6564
-5.49956
-5.39997
-5.34009
-5.31225
-5.4561
-5.48611
-5.55059
-5.65676
-5.81792
-6.05753
-6.3675
-7.32007
-12.0961
-13.9936
-7.72289
-6.65754
-12.2481
-13.4706
-13.231
-13.1017
-13.1017
-13.231
-13.4706
-12.2475
-6.65747
-7.72326
-13.9937
-12.0956
-7.31977
-6.36745
-6.05749
-5.81789
-5.65673
-5.55056
-5.48609
-5.45608
-5.56981
-5.59946
-5.66229
-5.76461
-5.90678
-6.12016
-6.389
-6.76747
-9.65811
-11.7569
-6.88078
-6.69121
-11.8118
-13.2518
-13.0743
-12.9616
-12.9616
-13.0743
-13.2518
-11.8114
-6.69113
-6.88085
-11.7567
-9.65765
-6.7673
-6.38895
-6.12012
-5.90675
-5.76458
-5.66226
-5.59943
-5.56978
-5.65299
-5.67992
-5.73458
-5.82077
-5.9427
-6.10953
-6.31596
-6.51825
-7.62308
-7.49506
-6.64422
-6.59303
-11.8197
-12.9475
-12.8027
-12.719
-12.719
-12.8027
-12.9475
-11.8196
-6.59294
-6.64419
-7.49499
-7.62283
-6.5182
-6.31592
-6.10949
-5.94266
-5.82074
-5.73455
-5.67989
-5.65297
-5.70968
-5.73124
-5.77535
-5.84366
-5.93791
-6.05925
-6.20322
-6.34135
-6.61528
-6.47028
-6.44485
-6.45232
-12.1915
-12.5767
-12.4696
-12.417
-12.417
-12.4696
-12.5767
-12.1914
-6.45221
-6.44481
-6.47023
-6.61514
-6.3413
-6.20319
-6.05921
-5.93787
-5.84363
-5.77532
-5.73122
-5.70966
-5.74367
-5.76028
-5.79398
-5.84502
-5.91309
-5.99634
-6.09025
-6.17931
-6.24353
-6.27144
-6.27107
-7.73878
-12.0788
-12.162
-12.0976
-12.0699
-12.0699
-12.0976
-12.162
-12.0786
-7.73814
-6.27103
-6.2714
-6.24349
-6.17927
-6.09021
-5.9963
-5.91305
-5.84499
-5.79395
-5.76025
-5.74365
-5.76151
-5.77386
-5.79847
-5.83482
-5.88138
-5.93521
-5.99195
-6.04302
-6.0798
-6.10007
-6.10298
-9.50816
-11.7473
-11.7342
-11.705
-11.6922
-11.6922
-11.705
-11.7341
-11.7473
-9.50789
-6.10294
-6.10003
-6.07977
-6.04298
-5.99191
-5.93517
-5.88135
-5.83479
-5.79845
-5.77383
-5.76149
-5.76869
-5.77752
-5.79489
-5.81974
-5.85001
-5.88255
-5.91352
-5.93858
-5.95526
-5.96497
-5.96974
-9.91853
-11.3136
-11.3252
-11.3155
-11.3113
-11.3113
-11.3155
-11.3252
-11.3135
-9.9185
-5.9697
-5.96493
-5.95523
-5.93855
-5.91348
-5.88252
-5.84998
-5.81971
-5.79487
-5.7775
-5.76867
-5.7691
-5.7753
-5.78729
-5.8038
-5.8228
-5.84145
-5.85676
-5.86658
-5.87143
-5.87635
-5.88197
-9.93121
-10.9216
-10.9405
-10.9384
-10.9372
-10.9372
-10.9384
-10.9404
-10.9215
-9.93116
-5.88194
-5.87632
-5.87141
-5.86655
-5.85673
-5.84143
-5.82277
-5.80377
-5.78726
-5.77528
-5.76908
-5.76538
-5.76972
-5.77799
-5.78907
-5.80121
-5.81215
-5.81981
-5.8232
-5.82398
-5.82641
-5.82313
-10.0719
-10.5559
-10.5716
-10.5721
-10.5711
-10.5711
-10.5721
-10.5716
-10.5559
-10.0718
-5.8231
-5.82638
-5.82395
-5.82317
-5.81978
-5.81213
-5.80119
-5.78905
-5.77797
-5.7697
-5.76536
-5.759
-5.76216
-5.76816
-5.77618
-5.78492
-5.79285
-5.7988
-5.80276
-5.80639
-5.81109
-6.55106
-10.0462
-10.2072
-10.2144
-10.2146
-10.2129
-10.2129
-10.2146
-10.2144
-10.2072
-10.0461
-6.55092
-5.81107
-5.80637
-5.80274
-5.79878
-5.79283
-5.7849
-5.77616
-5.76814
-5.76214
-5.75898
-5.75082
-5.75331
-5.75813
-5.76475
-5.77243
-5.78042
-5.78847
-5.7976
-5.80947
-5.82285
-7.61749
-9.80645
-9.86724
-9.8668
-9.86359
-9.86027
-9.86027
-9.86358
-9.86679
-9.86722
-9.80643
-7.61744
-5.82283
-5.80945
-5.79759
-5.78846
-5.7804
-5.77241
-5.76473
-5.75811
-5.7533
-5.75081
-5.74128
-5.74342
-5.74766
-5.75379
-5.76157
-5.77095
-5.7824
-5.79762
-5.81853
-5.84272
-7.58615
-9.46112
-9.53624
-9.52658
-9.5165
-9.51052
-9.51051
-9.51649
-9.52657
-9.53622
-9.46111
-7.58617
-5.84271
-5.81852
-5.7976
-5.78239
-5.77093
-5.76155
-5.75377
-5.74764
-5.7434
-5.74126
-5.73049
-5.73242
-5.73632
-5.7422
-5.75015
-5.7606
-5.77451
-5.79329
-5.81888
-5.84905
-6.61494
-8.95386
-9.21564
-9.19053
-9.17112
-9.1618
-9.1618
-9.17112
-9.19052
-9.21563
-8.95386
-6.61497
-5.84904
-5.81887
-5.79327
-5.77449
-5.76059
-5.75014
-5.74218
-5.73631
-5.73241
-5.73048
-5.71852
-5.72025
-5.7238
-5.72927
-5.73686
-5.74714
-5.76111
-5.77992
-5.80401
-5.83144
-6.13519
-8.32071
-8.87611
-8.85
-8.82371
-8.8113
-8.8113
-8.82371
-8.84999
-8.8761
-8.32074
-6.1352
-5.83144
-5.804
-5.77991
-5.7611
-5.74713
-5.73685
-5.72925
-5.72379
-5.72024
-5.7185
-5.70542
-5.70693
-5.71005
-5.71487
-5.7216
-5.73066
-5.74261
-5.75795
-5.77596
-5.79413
-5.92086
-7.32553
-8.48576
-8.49958
-8.47113
-8.45679
-8.45679
-8.47112
-8.49957
-8.48576
-7.32561
-5.92087
-5.79412
-5.77595
-5.75794
-5.7426
-5.73065
-5.72159
-5.71486
-5.71004
-5.70692
-5.70541
-5.69135
-5.69261
-5.69522
-5.69923
-5.70477
-5.712
-5.72107
-5.73193
-5.7434
-5.75274
-5.76929
-6.40036
-8.0349
-8.14305
-8.11342
-8.09813
-8.09813
-8.11341
-8.14304
-8.03492
-6.40042
-5.76929
-5.75273
-5.7434
-5.73193
-5.72106
-5.71199
-5.70476
-5.69922
-5.69521
-5.6926
-5.69134
-5.67651
-5.67752
-5.67959
-5.68274
-5.68699
-5.69234
-5.69876
-5.70602
-5.7133
-5.71894
-5.72105
-6.04196
-7.61592
-7.78416
-7.75199
-7.73599
-7.73599
-7.75198
-7.78415
-7.61593
-6.04198
-5.72105
-5.71893
-5.7133
-5.70601
-5.69875
-5.69234
-5.68698
-5.68273
-5.67958
-5.67751
-5.6765
-5.66113
-5.66191
-5.66349
-5.66585
-5.66895
-5.67273
-5.67709
-5.68188
-5.68673
-5.69103
-5.69434
-5.93437
-7.25296
-7.42343
-7.38842
-7.37142
-7.37142
-7.38842
-7.42342
-7.25297
-5.93438
-5.69434
-5.69102
-5.68672
-5.68187
-5.67708
-5.67272
-5.66894
-5.66584
-5.66348
-5.6619
-5.66112
-5.64544
-5.64602
-5.64719
-5.64891
-5.65112
-5.65372
-5.65662
-5.65963
-5.66252
-5.6649
-5.66667
-5.85211
-6.91981
-7.06091
-7.02346
-7.00534
-7.00534
-7.02345
-7.0609
-6.91982
-5.85212
-5.66667
-5.66489
-5.66251
-5.65963
-5.65661
-5.65372
-5.65111
-5.6489
-5.64718
-5.64601
-5.64543
-5.62962
-5.63004
-5.6309
-5.63215
-5.63373
-5.63553
-5.63744
-5.63921
-5.64049
-5.6408
-5.64006
-5.77371
-6.60463
-6.69854
-6.65775
-6.63844
-6.63844
-6.65774
-6.69853
-6.60463
-5.77372
-5.64005
-5.64079
-5.64048
-5.63921
-5.63743
-5.63553
-5.63372
-5.63214
-5.63089
-5.63003
-5.62961
-5.61382
-5.61413
-5.61477
-5.6157
-5.61686
-5.61817
-5.61946
-5.62046
-5.62063
-5.61933
-5.6162
-5.70435
-6.30478
-6.33726
-6.29205
-6.27129
-6.27129
-6.29205
-6.33726
-6.30478
-5.70435
-5.6162
-5.61933
-5.62062
-5.62045
-5.61946
-5.61816
-5.61685
-5.61569
-5.61477
-5.61413
-5.61381
-5.59818
-5.59842
-5.59891
-5.59963
-5.60054
-5.60155
-5.6025
-5.60303
-5.60249
-5.60013
-5.59539
-5.65837
-6.00767
-5.97574
-5.92667
-5.90433
-5.90433
-5.92667
-5.97574
-6.00767
-5.65837
-5.59538
-5.60013
-5.60248
-5.60302
-5.6025
-5.60155
-5.60053
-5.59962
-5.5989
-5.59841
-5.59817
-5.58277
-5.58296
-5.58336
-5.58395
-5.58471
-5.58555
-5.58629
-5.58648
-5.5854
-5.58226
-5.57652
-5.59281
-5.68537
-5.61365
-5.56172
-5.53791
-5.53791
-5.56172
-5.61365
-5.68537
-5.59281
-5.57651
-5.58226
-5.5854
-5.58648
-5.58628
-5.58555
-5.5847
-5.58394
-5.58335
-5.58295
-5.58276
-5.56765
-5.56781
-5.56815
-5.56867
-5.56933
-5.57007
-5.57064
-5.57056
-5.56909
-5.56546
-5.55891
-5.49273
-5.34747
-5.2525
-5.19778
-5.17248
-5.17248
-5.19778
-5.2525
-5.34746
-5.49273
-5.5589
-5.56546
-5.56909
-5.57056
-5.57064
-5.57006
-5.56933
-5.56866
-5.56815
-5.5678
-5.56764
-5.55287
-5.55302
-5.55334
-5.55383
-5.55445
-5.55512
-5.55558
-5.55535
-5.55375
-5.55023
-5.54378
-5.35047
-4.99703
-4.89205
-4.83508
-4.80848
-4.80848
-4.83508
-4.89204
-4.99703
-5.35046
-5.54377
-5.55023
-5.55374
-5.55534
-5.55557
-5.55512
-5.55445
-5.55382
-5.55334
-5.55302
-5.55287
-5.53851
-5.53866
-5.53899
-5.53948
-5.54011
-5.54078
-5.5412
-5.54093
-5.53942
-5.53662
-5.5318
-5.13544
-4.63754
-4.5324
-4.47398
-4.44645
-4.44645
-4.47398
-4.5324
-4.63754
-5.13542
-5.5318
-5.53662
-5.53941
-5.54092
-5.5412
-5.54077
-5.54011
-5.53947
-5.53898
-5.53866
-5.53851
-5.52461
-5.52478
-5.52514
-5.52568
-5.52637
-5.52708
-5.52753
-5.52721
-5.52565
-5.52327
-5.51962
-4.82652
-4.27907
-4.17425
-4.11527
-4.08732
-4.08732
-4.11527
-4.17425
-4.27906
-4.8265
-5.51962
-5.52327
-5.52564
-5.5272
-5.52752
-5.52708
-5.52636
-5.52568
-5.52514
-5.52478
-5.5246
-5.51122
-5.51142
-5.51185
-5.51247
-5.51326
-5.51406
-5.51454
-5.51411
-5.51204
-5.50752
-5.4956
-4.4091
-3.92392
-3.81795
-3.76018
-3.73279
-3.73279
-3.76018
-3.81794
-3.92392
-4.40908
-5.4956
-5.50752
-5.51204
-5.51411
-5.51453
-5.51406
-5.51326
-5.51247
-5.51184
-5.51142
-5.51121
-5.49838
-5.49863
-5.49914
-5.49989
-5.50082
-5.50176
-5.50234
-5.50196
-5.49973
-5.4933
-5.28445
-3.92922
-3.56563
-3.46551
-3.41137
-3.38564
-3.38564
-3.41136
-3.46551
-3.56563
-3.92921
-5.28442
-5.4933
-5.49973
-5.50196
-5.50234
-5.50176
-5.50082
-5.49989
-5.49914
-5.49863
-5.49838
-5.48616
-5.48647
-5.48708
-5.48796
-5.48905
-5.49014
-5.49087
-5.49078
-5.48933
-5.48367
-4.87492
-3.42357
-3.20779
-3.12092
-3.07262
-3.04948
-3.04948
-3.07262
-3.12092
-3.20779
-3.42356
-4.87489
-5.48366
-5.48933
-5.49078
-5.49087
-5.49013
-5.48904
-5.48796
-5.48707
-5.48646
-5.48615
-5.47461
-5.47498
-5.4757
-5.47672
-5.47793
-5.47909
-5.4798
-5.47972
-5.47932
-5.47477
-4.1927
-2.97958
-2.86023
-2.78887
-2.74787
-2.7281
-2.7281
-2.74787
-2.78887
-2.86022
-2.97957
-4.19267
-5.47477
-5.47932
-5.47972
-5.4798
-5.47908
-5.47793
-5.47672
-5.4757
-5.47498
-5.47461
-5.46383
-5.46427
-5.4651
-5.46625
-5.46754
-5.46863
-5.46891
-5.46742
-5.46092
-5.39024
-3.28381
-2.62431
-2.52919
-2.47387
-2.44145
-2.42584
-2.42584
-2.44145
-2.47387
-2.52919
-2.62431
-3.28378
-5.39021
-5.46091
-5.46742
-5.46891
-5.46863
-5.46754
-5.46625
-5.4651
-5.46426
-5.46383
-5.45394
-5.45445
-5.4554
-5.45669
-5.45808
-5.45914
-5.45922
-5.45773
-5.45492
-4.47708
-2.50436
-2.28851
-2.21983
-2.18107
-2.15807
-2.14705
-2.14705
-2.15807
-2.18107
-2.21983
-2.28851
-2.50434
-4.47704
-5.45491
-5.45773
-5.45922
-5.45913
-5.45807
-5.45668
-5.4554
-5.45445
-5.45394
-5.44511
-5.44569
-5.44676
-5.44818
-5.44964
-5.45066
-5.45009
-5.44523
-5.40483
-2.99304
-2.0417
-1.97878
-1.93815
-1.91519
-1.90151
-1.89503
-1.89503
-1.9015
-1.91518
-1.93815
-1.97877
-2.0417
-2.993
-5.40481
-5.44523
-5.45009
-5.45066
-5.44964
-5.44818
-5.44676
-5.44568
-5.44511
-5.43755
-5.43819
-5.43938
-5.44096
-5.44261
-5.4439
-5.44376
-5.43947
-3.98512
-1.83726
-1.73481
-1.70479
-1.6885
-1.67945
-1.67423
-1.67182
-1.67182
-1.67423
-1.67945
-1.68849
-1.70479
-1.73481
-1.83725
-3.98508
-5.43947
-5.44375
-5.4439
-5.44261
-5.44096
-5.43937
-5.43819
-5.43755
-5.43153
-5.43222
-5.43354
-5.43539
-5.4374
-5.43929
-5.44088
-4.54441
-1.78718
-1.47926
-1.47385
-1.47174
-1.47334
-1.47545
-1.47713
-1.47801
-1.47801
-1.47713
-1.47545
-1.47334
-1.47173
-1.47385
-1.47925
-1.78716
-4.54439
-5.44088
-5.43929
-5.43739
-5.43538
-5.43354
-5.43222
-5.43153
-5.42752
-5.42821
-5.4297
-5.43207
-5.43418
-5.43658
-4.39472
-1.51168
-1.21246
-1.24178
-1.26143
-1.27866
-1.29249
-1.30271
-1.30943
-1.31274
-1.31274
-1.30943
-1.30271
-1.29249
-1.27865
-1.26143
-1.24178
-1.21246
-1.51167
-4.39471
-5.43658
-5.43418
-5.43206
-5.42969
-5.42821
-5.42751
-5.42587
-5.42655
-5.42771
-5.43082
-4.94157
-3.14845
-1.07944
-0.953824
-1.01562
-1.05983
-1.09492
-1.12265
-1.14382
-1.15914
-1.16909
-1.17397
-1.17397
-1.16908
-1.15914
-1.14382
-1.12265
-1.09491
-1.05983
-1.01561
-0.95382
-1.07944
-3.14846
-4.94158
-5.43081
-5.4277
-5.42655
-5.42587
-4.09796
-3.92483
-3.41441
-2.38825
-1.27437
-0.692022
-0.734974
-0.812033
-0.875517
-0.926279
-0.966886
-0.999006
-1.02366
-1.04156
-1.0532
-1.05893
-1.05893
-1.0532
-1.04156
-1.02366
-0.999004
-0.966883
-0.926275
-0.875513
-0.812029
-0.734969
-0.692018
-1.27438
-2.38829
-3.41445
-3.92487
-4.09799
-0.595908
-0.547365
-0.464775
-0.455613
-0.514839
-0.582205
-0.653843
-0.720805
-0.779457
-0.828873
-0.869542
-0.902275
-0.9277
-0.946309
-0.958491
-0.964503
-0.964502
-0.95849
-0.946308
-0.927698
-0.902273
-0.869539
-0.82887
-0.779453
-0.7208
-0.653838
-0.582199
-0.514832
-0.455607
-0.464775
-0.547371
-0.595918
-0.35868
-0.37302
-0.400924
-0.440762
-0.490372
-0.547132
-0.605716
-0.661966
-0.713298
-0.758153
-0.796084
-0.827175
-0.851643
-0.869726
-0.881642
-0.887547
-0.887546
-0.881641
-0.869725
-0.851641
-0.827172
-0.796081
-0.75815
-0.713294
-0.661961
-0.605711
-0.547126
-0.490365
-0.440756
-0.400917
-0.373013
-0.358673
-0.377597
-0.389044
-0.41144
-0.443694
-0.483884
-0.52923
-0.576729
-0.623612
-0.667479
-0.706799
-0.740766
-0.769064
-0.79161
-0.808427
-0.81958
-0.825128
-0.825128
-0.819579
-0.808426
-0.791608
-0.769061
-0.740763
-0.706796
-0.667475
-0.623607
-0.576724
-0.529224
-0.483878
-0.443688
-0.411433
-0.389037
-0.37759
-0.399234
-0.408475
-0.426513
-0.452396
-0.48457
-0.521109
-0.559896
-0.598699
-0.635651
-0.669409
-0.699069
-0.724116
-0.744292
-0.759467
-0.76959
-0.774644
-0.774644
-0.769589
-0.759466
-0.74429
-0.724114
-0.699066
-0.669406
-0.635647
-0.598695
-0.559891
-0.521104
-0.484565
-0.45239
-0.426507
-0.408469
-0.399228
-0.420761
-0.428183
-0.442654
-0.463427
-0.489338
-0.518939
-0.550577
-0.582594
-0.613453
-0.642055
-0.667525
-0.689283
-0.706974
-0.720376
-0.729363
-0.733864
-0.733864
-0.729362
-0.720375
-0.706972
-0.689281
-0.667522
-0.642052
-0.613449
-0.58259
-0.550572
-0.518935
-0.489333
-0.463422
-0.442648
-0.428177
-0.420755
-0.440804
-0.446773
-0.458411
-0.475145
-0.496074
-0.520075
-0.545887
-0.572242
-0.597891
-0.62192
-0.643546
-0.662199
-0.677484
-0.689137
-0.696984
-0.700926
-0.700926
-0.696983
-0.689135
-0.677483
-0.662197
-0.643544
-0.621917
-0.597888
-0.572238
-0.545883
-0.520071
-0.49607
-0.47514
-0.458406
-0.446767
-0.440799
-0.458782
-0.463594
-0.472979
-0.48649
-0.503425
-0.522914
-0.543984
-0.565641
-0.586901
-0.606982
-0.625207
-0.641048
-0.654114
-0.664126
-0.670895
-0.674303
-0.674303
-0.670894
-0.664125
-0.654113
-0.641046
-0.625205
-0.60698
-0.586898
-0.565637
-0.543981
-0.52291
-0.503421
-0.486486
-0.472975
-0.463589
-0.458777
-0.474523
-0.478411
-0.485997
-0.496929
-0.510659
-0.52651
-0.543723
-0.561512
-0.579096
-0.595814
-0.61109
-0.62445
-0.63553
-0.644057
-0.649839
-0.652757
-0.652757
-0.649839
-0.644056
-0.635529
-0.624448
-0.611088
-0.595812
-0.579093
-0.561509
-0.54372
-0.526507
-0.510655
-0.496925
-0.485993
-0.478407
-0.474519
-0.488085
-0.491234
-0.497379
-0.506243
-0.517396
-0.530308
-0.544382
-0.558992
-0.573514
-0.587396
-0.600149
-0.611359
-0.620698
-0.62791
-0.632815
-0.635293
-0.635293
-0.632814
-0.627909
-0.620696
-0.611358
-0.600147
-0.587394
-0.573511
-0.558989
-0.544378
-0.530305
-0.517392
-0.506239
-0.497375
-0.49123
-0.488081
-0.499641
-0.502196
-0.507183
-0.514385
-0.523461
-0.533994
-0.54551
-0.557511
-0.569492
-0.580997
-0.591612
-0.600983
-0.608817
-0.614885
-0.619021
-0.621114
-0.621114
-0.619021
-0.614885
-0.608816
-0.600982
-0.591611
-0.580995
-0.56949
-0.557508
-0.545507
-0.533991
-0.523458
-0.514381
-0.50718
-0.502192
-0.499637
-0.509407
-0.511484
-0.51554
-0.521402
-0.5288
-0.537403
-0.546834
-0.556693
-0.566572
-0.576093
-0.58491
-0.592719
-0.599267
-0.604352
-0.607823
-0.609583
-0.609583
-0.607823
-0.604351
-0.599266
-0.592718
-0.584908
-0.576091
-0.56657
-0.556691
-0.546832
-0.5374
-0.528797
-0.521398
-0.515537
-0.511481
-0.509404
-0.517613
-0.519304
-0.522608
-0.527387
-0.533426
-0.540462
-0.548191
-0.556292
-0.564435
-0.572305
-0.579615
-0.586108
-0.591565
-0.595812
-0.598716
-0.600189
-0.600189
-0.598715
-0.595811
-0.591564
-0.586107
-0.579614
-0.572303
-0.564433
-0.55629
-0.548189
-0.540459
-0.533424
-0.527384
-0.522605
-0.519301
-0.51761
-0.524477
-0.525856
-0.528552
-0.532454
-0.53739
-0.543149
-0.549488
-0.556146
-0.562855
-0.569356
-0.575409
-0.580798
-0.585336
-0.588873
-0.591295
-0.592525
-0.592525
-0.591295
-0.588873
-0.585335
-0.580796
-0.575408
-0.569355
-0.562854
-0.556144
-0.549486
-0.543147
-0.537388
-0.532451
-0.528549
-0.525854
-0.524474
-0.530199
-0.531326
-0.533529
-0.536718
-0.540758
-0.545476
-0.550678
-0.556152
-0.561678
-0.567045
-0.572051
-0.576517
-0.580284
-0.583224
-0.58524
-0.586263
-0.586263
-0.585239
-0.583224
-0.580283
-0.576516
-0.57205
-0.567044
-0.561677
-0.55615
-0.550676
-0.545474
-0.540756
-0.536716
-0.533526
-0.531324
-0.530197
-0.534958
-0.53588
-0.537681
-0.540292
-0.5436
-0.547469
-0.55174
-0.556241
-0.560793
-0.565221
-0.569359
-0.573055
-0.576177
-0.578617
-0.580291
-0.581142
-0.581142
-0.580291
-0.578617
-0.576177
-0.573054
-0.569358
-0.56522
-0.560792
-0.556239
-0.551739
-0.547468
-0.543598
-0.54029
-0.537679
-0.535878
-0.534956
-0.538908
-0.539662
-0.541137
-0.543276
-0.545988
-0.549163
-0.552671
-0.556372
-0.560122
-0.563774
-0.567191
-0.570247
-0.572832
-0.574854
-0.576242
-0.576948
-0.576948
-0.576242
-0.574854
-0.572832
-0.570246
-0.56719
-0.563772
-0.56012
-0.556371
-0.552669
-0.549161
-0.545986
-0.543274
-0.541135
-0.53966
-0.538906
-0.54218
-0.542799
-0.544007
-0.54576
-0.547986
-0.550592
-0.553475
-0.55652
-0.559607
-0.562618
-0.565439
-0.567965
-0.570103
-0.571777
-0.572926
-0.573511
-0.573511
-0.572926
-0.571776
-0.570103
-0.567964
-0.565438
-0.562617
-0.559606
-0.556518
-0.553473
-0.55059
-0.547984
-0.545759
-0.544006
-0.542797
-0.542179
-0.544889
-0.545396
-0.546387
-0.547825
-0.549652
-0.551793
-0.554162
-0.556668
-0.55921
-0.561692
-0.56402
-0.566106
-0.567873
-0.569257
-0.570208
-0.570692
-0.570692
-0.570208
-0.569257
-0.567872
-0.566105
-0.564019
-0.561691
-0.559209
-0.556666
-0.554161
-0.551791
-0.54965
-0.547824
-0.546386
-0.545394
-0.544887
-0.547128
-0.547544
-0.548358
-0.549538
-0.551038
-0.552798
-0.554746
-0.556807
-0.558901
-0.560947
-0.562867
-0.564588
-0.566048
-0.567192
-0.567978
-0.568378
-0.568378
-0.567978
-0.567191
-0.566047
-0.564588
-0.562866
-0.560946
-0.5589
-0.556806
-0.554745
-0.552796
-0.551037
-0.549537
-0.548356
-0.547543
-0.547127
-0.548978
-0.54932
-0.549988
-0.550957
-0.55219
-0.553636
-0.555239
-0.556935
-0.558659
-0.560345
-0.561928
-0.563348
-0.564553
-0.565498
-0.566147
-0.566478
-0.566478
-0.566147
-0.565497
-0.564553
-0.563348
-0.561927
-0.560344
-0.558658
-0.556934
-0.555237
-0.553635
-0.552189
-0.550956
-0.549987
-0.549318
-0.548977
-0.550505
-0.550786
-0.551335
-0.552132
-0.553145
-0.554334
-0.555652
-0.557048
-0.558468
-0.559857
-0.561162
-0.562333
-0.563328
-0.564107
-0.564644
-0.564917
-0.564917
-0.564644
-0.564107
-0.563327