/*--------------------------------*- C++ -*----------------------------------*\
  =========                 |
  \\      /  F ield         | OpenFOAM: The Open Source CFD Toolbox
   \\    /   O peration     | Website:  https://openfoam.org
    \\  /    A nd           | Version:  9
     \\/     M anipulation  |
\*---------------------------------------------------------------------------*/
FoamFile
{
    format      ascii;
    class       surfaceScalarField;
    location    "0.75";
    object      phi;
}
// * * * * * * * * * * * * * * * * * * * * * * * * * * * * * * * * * * * * * //

dimensions      [0 3 -1 0 0 0 0];

internalField   nonuniform List<scalar> 
8032
(
-3.18431e-06
3.18452e-06
-6.27388e-06
3.0967e-06
-9.14332e-06
2.86961e-06
-1.16679e-05
2.52482e-06
-1.37465e-05
2.07874e-06
-1.5297e-05
1.55065e-06
-1.62586e-05
9.61707e-07
-1.65934e-05
3.34885e-07
-1.62879e-05
-3.05345e-07
-1.53534e-05
-9.34389e-07
-1.38255e-05
-1.52785e-06
-1.17628e-05
-2.06262e-06
-9.24485e-06
-2.51789e-06
-6.36888e-06
-2.87589e-06
-3.24618e-06
-3.12264e-06
2.35062e-09
-3.24846e-06
3.25087e-06
-3.24845e-06
6.37354e-06
-3.1226e-06
9.24944e-06
-2.87584e-06
1.17673e-05
-2.51782e-06
1.38299e-05
-2.06253e-06
1.53577e-05
-1.52774e-06
1.6292e-05
-9.34262e-07
1.65973e-05
-3.05207e-07
1.62623e-05
3.35028e-07
1.53005e-05
9.61847e-07
1.37498e-05
1.55077e-06
1.16711e-05
2.0788e-06
9.14645e-06
2.5247e-06
6.27739e-06
2.8691e-06
3.18323e-06
3.09423e-06
3.18326e-06
-3.33853e-06
6.52307e-06
-6.58354e-06
6.34179e-06
-9.59354e-06
5.87977e-06
-1.22421e-05
5.17354e-06
-1.44229e-05
4.25972e-06
-1.60499e-05
3.17777e-06
-1.70591e-05
1.97105e-06
-1.74108e-05
6.86668e-07
-1.70906e-05
-6.25417e-07
-1.61104e-05
-1.9145e-06
-1.45075e-05
-3.1307e-06
-1.23433e-05
-4.22672e-06
-9.70128e-06
-5.15983e-06
-6.6835e-06
-5.89361e-06
-3.40671e-06
-6.39935e-06
2.16483e-09
-6.65727e-06
3.41102e-06
-6.65724e-06
6.68777e-06
-6.39928e-06
9.70548e-06
-5.89349e-06
1.23474e-05
-5.15966e-06
1.45114e-05
-4.22651e-06
1.61142e-05
-3.13046e-06
1.70942e-05
-1.91422e-06
1.74142e-05
-6.25108e-07
1.70623e-05
6.86996e-07
1.60528e-05
1.97138e-06
1.44256e-05
3.17808e-06
1.22445e-05
4.25996e-06
9.5956e-06
5.17362e-06
6.58517e-06
5.8796e-06
3.33855e-06
6.34089e-06
6.52185e-06
-3.60017e-06
1.01232e-05
-7.10057e-06
9.84224e-06
-1.03467e-05
9.12598e-06
-1.32033e-05
8.03026e-06
-1.55557e-05
6.61229e-06
-1.73111e-05
4.93327e-06
-1.84004e-05
3.06046e-06
-1.87806e-05
1.06697e-06
-1.84361e-05
-9.698e-07
-1.73795e-05
-2.971e-06
-1.5651e-05
-4.85916e-06
-1.33168e-05
-6.56086e-06
-1.04668e-05
-8.00974e-06
-7.21112e-06
-9.14918e-06
-3.67585e-06
-9.93455e-06
2.03382e-09
-1.03351e-05
3.6799e-06
-1.0335e-05
7.21513e-06
-9.93444e-06
1.04707e-05
-9.14899e-06
1.33206e-05
-8.00948e-06
1.56547e-05
-6.56053e-06
1.7383e-05
-4.85876e-06
1.84394e-05
-2.97054e-06
1.87837e-05
-9.69292e-07
1.84032e-05
1.06752e-06
1.73136e-05
3.06102e-06
1.55579e-05
4.93384e-06
1.32052e-05
6.61281e-06
1.03482e-05
8.03067e-06
7.10159e-06
9.12623e-06
3.6005e-06
9.84205e-06
1.01224e-05
-3.98957e-06
1.41128e-05
-7.86888e-06
1.37216e-05
-1.14665e-05
1.27237e-05
-1.46328e-05
1.11967e-05
-1.72408e-05
9.2204e-06
-1.91875e-05
6.88006e-06
-2.03962e-05
4.26929e-06
-2.08191e-05
1.48998e-06
-2.04387e-05
-1.35009e-06
-1.92687e-05
-4.14093e-06
-1.73534e-05
-6.77439e-06
-1.47662e-05
-9.14805e-06
-1.16066e-05
-1.11693e-05
-7.99675e-06
-1.27589e-05
-4.07654e-06
-1.38547e-05
1.97389e-09
-1.44135e-05
4.08047e-06
-1.44135e-05
8.00063e-06
-1.38545e-05
1.16104e-05
-1.27587e-05
1.47698e-05
-1.11689e-05
1.73569e-05
-9.14758e-06
1.92721e-05
-6.77383e-06
2.04419e-05
-4.14028e-06
2.0822e-05
-1.34936e-06
2.03988e-05
1.49077e-06
1.91898e-05
4.27012e-06
1.72428e-05
6.88091e-06
1.46344e-05
9.22124e-06
1.14677e-05
1.11974e-05
7.86971e-06
1.27243e-05
3.98998e-06
1.37218e-05
1.41124e-05
-4.526e-06
1.86388e-05
-8.92717e-06
1.81228e-05
-1.30092e-05
1.68057e-05
-1.66024e-05
1.479e-05
-1.95628e-05
1.21809e-05
-2.17735e-05
9.09081e-06
-2.31472e-05
5.64312e-06
-2.36294e-05
1.97227e-06
-2.31999e-05
-1.7795e-06
-2.18739e-05
-5.46689e-06
-1.97013e-05
-8.94689e-06
-1.67653e-05
-1.2084e-05
-1.31788e-05
-1.47557e-05
-9.08048e-06
-1.68571e-05
-4.62927e-06
-1.83058e-05
1.96249e-09
-1.90447e-05
4.63317e-06
-1.90446e-05
9.08433e-06
-1.83056e-05
1.31825e-05
-1.68568e-05
1.67689e-05
-1.47552e-05
1.97048e-05
-1.20834e-05
2.18772e-05
-8.94614e-06
2.3203e-05
-5.46603e-06
2.36322e-05
-1.77854e-06
2.31497e-05
1.97331e-06
2.17757e-05
5.64423e-06
1.95647e-05
9.09196e-06
1.66039e-05
1.21821e-05
1.30103e-05
1.47911e-05
8.92796e-06
1.68067e-05
4.52644e-06
1.81234e-05
1.86389e-05
-5.2316e-06
2.38705e-05
-1.03192e-05
2.32105e-05
-1.50385e-05
2.15251e-05
-1.91937e-05
1.89452e-05
-2.26183e-05
1.56056e-05
-2.51768e-05
1.16494e-05
-2.67683e-05
7.23467e-06
-2.73291e-05
2.5332e-06
-2.68356e-05
-2.27297e-06
-2.53046e-05
-6.99774e-06
-2.27937e-05
-1.14577e-05
-1.93987e-05
-1.5479e-05
-1.52501e-05
-1.89042e-05
-1.05083e-05
-2.15988e-05
-5.35751e-06
-2.34566e-05
1.9877e-09
-2.44041e-05
5.36146e-06
-2.4404e-05
1.05122e-05
-2.34563e-05
1.52539e-05
-2.15984e-05
1.94023e-05
-1.89036e-05
2.27972e-05
-1.54782e-05
2.53079e-05
-1.14568e-05
2.68386e-05
-6.99666e-06
2.73319e-05
-2.27177e-06
2.67708e-05
2.53452e-06
2.5179e-05
7.23607e-06
2.26201e-05
1.16509e-05
1.91952e-05
1.56071e-05
1.50397e-05
1.89467e-05
1.03201e-05
2.15264e-05
5.23205e-06
2.32115e-05
2.38709e-05
-6.13361e-06
3.00041e-05
-1.20988e-05
2.91757e-05
-1.76331e-05
2.70594e-05
-2.25071e-05
2.38193e-05
-2.65257e-05
1.96242e-05
-2.95299e-05
1.46537e-05
-3.14009e-05
9.10567e-06
-3.20633e-05
3.19576e-06
-3.14888e-05
-2.84743e-06
-2.96965e-05
-8.78994e-06
-2.67533e-05
-1.44009e-05
-2.27711e-05
-1.94612e-05
-1.79029e-05
-2.37723e-05
-1.23372e-05
-2.71644e-05
-6.29036e-06
-2.95034e-05
2.04374e-09
-3.06964e-05
6.29443e-06
-3.06963e-05
1.23412e-05
-2.9503e-05
1.79068e-05
-2.71639e-05
2.27748e-05
-2.37716e-05
2.67569e-05
-1.94602e-05
2.96999e-05
-1.43997e-05
3.14919e-05
-8.78862e-06
3.20662e-05
-2.84597e-06
3.14034e-05
3.19736e-06
2.95322e-05
9.10738e-06
2.65276e-05
1.46555e-05
2.25087e-05
1.96261e-05
1.76343e-05
2.38211e-05
1.20997e-05
2.70611e-05
6.13407e-06
2.91771e-05
3.0005e-05
-7.26586e-06
3.727e-05
-1.43329e-05
3.62428e-05
-2.08906e-05
3.36172e-05
-2.66679e-05
2.95966e-05
-3.14334e-05
2.43898e-05
-3.49986e-05
1.8219e-05
-3.72221e-05
1.13292e-05
-3.80139e-05
3.9876e-06
-3.73391e-05
-3.52214e-06
-3.52196e-05
-1.09093e-05
-3.17339e-05
-1.78866e-05
-2.70139e-05
-2.4181e-05
-2.12411e-05
-2.95451e-05
-1.46389e-05
-3.37665e-05
-7.46444e-06
-3.66778e-05
2.12799e-09
-3.81629e-05
7.46867e-06
-3.81628e-05
1.46431e-05
-3.66774e-05
2.12451e-05
-3.37659e-05
2.70178e-05
-2.95442e-05
3.17376e-05
-2.41799e-05
3.52231e-05
-1.78852e-05
3.73423e-05
-1.09077e-05
3.80168e-05
-3.52039e-06
3.72247e-05
3.98951e-06
3.50009e-05
1.13312e-05
3.14354e-05
1.82212e-05
2.66695e-05
2.4392e-05
2.08919e-05
2.95988e-05
1.43338e-05
3.36193e-05
7.26633e-06
3.62446e-05
3.72714e-05
-8.67047e-06
4.59405e-05
-1.71045e-05
4.46769e-05
-2.49326e-05
4.14453e-05
-3.18315e-05
3.64956e-05
-3.75256e-05
3.00839e-05
-4.17892e-05
2.24827e-05
-4.44527e-05
1.39927e-05
-4.54074e-05
4.94245e-06
-4.46105e-05
-4.319e-06
-4.20866e-05
-1.34331e-05
-3.79281e-05
-2.2045e-05
-3.2292e-05
-2.9817e-05
-2.53946e-05
-3.64423e-05
-1.75033e-05
-4.16578e-05
-8.92565e-06
-4.52553e-05
2.23963e-09
-4.70908e-05
8.9301e-06
-4.70906e-05
1.75076e-05
-4.52548e-05
2.53989e-05
-4.16571e-05
3.22961e-05
-3.64413e-05
3.7932e-05
-2.98157e-05
4.20903e-05
-2.20434e-05
4.46139e-05
-1.34313e-05
4.54105e-05
-4.31696e-06
4.44554e-05
4.94467e-06
4.17916e-05
1.39951e-05
3.75276e-05
2.24852e-05
3.18332e-05
3.00865e-05
2.49339e-05
3.64982e-05
1.71054e-05
4.14478e-05
8.67096e-06
4.46791e-05
4.59424e-05
-1.03992e-05
5.63398e-05
-2.05161e-05
5.47939e-05
-2.99087e-05
5.0838e-05
-3.81901e-05
4.47772e-05
-4.50298e-05
3.69237e-05
-5.01567e-05
2.76097e-05
-5.33658e-05
1.72019e-05
-5.45252e-05
6.1019e-06
-5.35812e-05
-5.2629e-06
-5.05616e-05
-1.64526e-05
-4.55755e-05
-2.7031e-05
-3.88104e-05
-3.65821e-05
-3.05256e-05
-4.47271e-05
-2.10423e-05
-5.1141e-05
-1.07313e-05
-5.55662e-05
2.37887e-09
-5.78243e-05
1.0736e-05
-5.78241e-05
2.10469e-05
-5.55657e-05
3.05301e-05
-5.11402e-05
3.88148e-05
-4.47259e-05
4.55796e-05
-3.65805e-05
5.05655e-05
-2.70292e-05
5.35848e-05
-1.64505e-05
5.45284e-05
-5.26055e-06
5.33687e-05
6.10446e-06
5.01592e-05
1.72046e-05
4.5032e-05
2.76125e-05
3.81919e-05
3.69266e-05
2.991e-05
4.47801e-05
2.0517e-05
5.08409e-05
1.03997e-05
5.47965e-05
5.63421e-05
-1.25154e-05
6.88552e-05
-2.46928e-05
6.69714e-05
-3.60022e-05
6.21474e-05
-4.59789e-05
5.4754e-05
-5.42254e-05
4.51702e-05
-6.04144e-05
3.37988e-05
-6.42975e-05
2.1085e-05
-6.57133e-05
7.51777e-06
-6.45943e-05
-6.38183e-06
-6.09711e-05
-2.00758e-05
-5.49726e-05
-3.30294e-05
-4.68233e-05
-4.47314e-05
-3.68348e-05
-5.47155e-05
-2.5395e-05
-6.25807e-05
-1.29523e-05
-6.80088e-05
2.54668e-09
-7.07791e-05
1.29574e-05
-7.07789e-05
2.54e-05
-6.80082e-05
3.68396e-05
-6.25797e-05
4.68279e-05
-5.47141e-05
5.49771e-05
-4.47296e-05
6.09752e-05
-3.30273e-05
6.45981e-05
-2.00734e-05
6.57168e-05
-6.37914e-06
6.43006e-05
7.5207e-06
6.04171e-05
2.10882e-05
5.42277e-05
3.3802e-05
4.59808e-05
4.51736e-05
3.60036e-05
5.47574e-05
2.46938e-05
6.21507e-05
1.25159e-05
6.69745e-05
6.8858e-05
-1.5096e-05
8.39513e-05
-2.9787e-05
8.16624e-05
-4.3436e-05
7.57965e-05
-5.54844e-05
6.68026e-05
-6.54528e-05
5.51387e-05
-7.29453e-05
4.12912e-05
-7.76593e-05
2.57992e-05
-7.93967e-05
9.2552e-06
-7.80716e-05
-7.70681e-06
-7.3717e-05
-2.44304e-05
-6.6485e-05
-4.02612e-05
-5.66443e-05
-5.4572e-05
-4.45707e-05
-6.67891e-05
-3.07335e-05
-7.64179e-05
-1.56769e-05
-8.30654e-05
2.74457e-09
-8.64587e-05
1.56824e-05
-8.64585e-05
3.07389e-05
-8.30647e-05
4.45759e-05
-7.64167e-05
5.66493e-05
-6.67875e-05
6.64898e-05
-5.457e-05
7.37214e-05
-4.02588e-05
7.80757e-05
-2.44276e-05
7.94004e-05
-7.70374e-06
7.76627e-05
9.25853e-06
7.29482e-05
2.58027e-05
6.54553e-05
4.1295e-05
5.54865e-05
5.51425e-05
4.34375e-05
6.68064e-05
2.9788e-05
7.58003e-05
1.50965e-05
8.1666e-05
8.39546e-05
-1.8234e-05
0.000102185
-3.59826e-05
9.9411e-05
-5.248e-05
9.2294e-05
-6.70541e-05
8.13767e-05
-7.91258e-05
6.72105e-05
-8.82152e-05
5.03807e-05
-9.39531e-05
3.15372e-05
-9.60946e-05
1.13968e-05
-9.453e-05
-9.27138e-06
-8.92929e-05
-2.96674e-05
-8.05626e-05
-4.89915e-05
-6.86603e-05
-6.64741e-05
-5.40399e-05
-8.14095e-05
-3.72704e-05
-9.31873e-05
-1.90138e-05
-0.000101322
2.97481e-09
-0.000105475
1.90197e-05
-0.000105475
3.72762e-05
-0.000101321
5.40455e-05
-9.3186e-05
6.86657e-05
-8.14076e-05
8.05677e-05
-6.64718e-05
8.92977e-05
-4.89888e-05
9.45344e-05
-2.96643e-05
9.60986e-05
-9.2679e-06
9.39567e-05
1.14005e-05
8.82183e-05
3.15412e-05
7.91284e-05
5.03849e-05
6.70562e-05
6.72148e-05
5.24816e-05
8.1381e-05
3.59837e-05
9.22983e-05
1.82346e-05
9.94153e-05
0.000102189
-2.20412e-05
0.000124227
-4.35012e-05
0.000120871
-6.34596e-05
0.000112252
-8.11073e-05
9.90244e-05
-9.57449e-05
8.18482e-05
-0.00010679
6.14255e-05
-0.00011379
3.85372e-05
-0.000116441
1.40481e-05
-0.000114602
-1.11104e-05
-0.000108304
-3.59647e-05
-9.77582e-05
-5.95375e-05
-8.33477e-05
-8.08846e-05
-6.56205e-05
-9.91365e-05
-4.5268e-05
-0.00011354
-2.30973e-05
-0.000123493
3.2404e-09
-0.000128576
2.31038e-05
-0.000128576
4.52744e-05
-0.000123492
6.56267e-05
-0.000113538
8.33535e-05
-9.91344e-05
9.77637e-05
-8.08819e-05
0.000108309
-5.95344e-05
0.000114606
-3.59611e-05
0.000116445
-1.11065e-05
0.000113793
1.40523e-05
0.000106793
3.85418e-05
9.57477e-05
6.14302e-05
8.11095e-05
8.1853e-05
6.34613e-05
9.90293e-05
4.35024e-05
0.000112257
2.20418e-05
0.000120876
0.000124231
-2.66516e-05
0.000150878
-5.26084e-05
0.000146828
-7.67653e-05
0.000136409
-9.81487e-05
0.000120408
-0.000115914
9.96135e-05
-0.000129353
7.48641e-05
-0.00013791
4.70946e-05
-0.000141207
1.73452e-05
-0.000139059
-1.3258e-05
-0.000131493
-4.35306e-05
-0.000118752
-7.22789e-05
-0.000101293
-9.83428e-05
-7.97797e-05
-0.00012065
-5.50512e-05
-0.000138268
-2.80941e-05
-0.00015045
3.5454e-09
-0.000156673
2.81011e-05
-0.000156673
5.50581e-05
-0.000150449
7.97864e-05
-0.000138266
0.0001013
-0.000120648
0.000118758
-9.83398e-05
0.000131499
-7.22754e-05
0.000139064
-4.35266e-05
0.000141211
-1.32535e-05
0.000137914
1.735e-05
0.000129356
4.70996e-05
0.000115917
7.48693e-05
9.81511e-05
9.9619e-05
7.67671e-05
0.000120413
5.26096e-05
0.000136415
2.66523e-05
0.000146833
0.000150883
-3.22247e-05
0.000183103
-6.36208e-05
0.000178224
-9.28636e-05
0.000165652
-0.000118783
0.000146328
-0.000140359
0.00012119
-0.00015673
9.12346e-05
-0.000167212
5.75772e-05
-0.000171332
2.1465e-05
-0.000168847
-1.57431e-05
-0.00015977
-5.26075e-05
-0.00014438
-8.76689e-05
-0.000123222
-0.000119501
-9.70948e-05
-0.000146777
-6.7022e-05
-0.000168341
-3.42103e-05
-0.000183261
3.89504e-09
-0.000190888
3.4218e-05
-0.000190887
6.70295e-05
-0.00018326
9.71022e-05
-0.000168339
0.000123229
-0.000146775
0.000144386
-0.000119497
0.000159776
-8.76649e-05
0.000168852
-5.26029e-05
0.000171337
-1.57381e-05
0.000167217
2.14704e-05
0.000156734
5.75828e-05
0.000140363
9.12405e-05
0.000118786
0.000121196
9.28655e-05
0.000146334
6.36221e-05
0.000165658
3.22253e-05
0.00017823
0.000183109
-3.89494e-05
0.000222052
-7.69142e-05
0.000216189
-0.00011231
0.000201048
-0.000143732
0.00017775
-0.000169951
0.000147409
-0.000189915
0.000111199
-0.000202784
7.04457e-05
-0.000207958
2.66395e-05
-0.000205118
-1.85834e-05
-0.000194251
-6.34741e-05
-0.000175673
-0.000106247
-0.000150029
-0.000145145
-0.000118282
-0.000178524
-8.16796e-05
-0.000204943
-4.17025e-05
-0.000223238
4.2961e-09
-0.000232594
4.1711e-05
-0.000232594
8.16879e-05
-0.000223237
0.00011829
-0.000204941
0.000150036
-0.000178521
0.00017568
-0.000145141
0.000194258
-0.000106243
0.000205124
-6.3469e-05
0.000207964
-1.85778e-05
0.000202789
2.66456e-05
0.00018992
7.04521e-05
0.000169954
0.000111206
0.000143735
0.000147415
0.000112312
0.000177757
7.69155e-05
0.000201055
3.89501e-05
0.000216196
0.000222059
-4.70481e-05
0.000269101
-9.29315e-05
0.000262072
-0.00013576
0.000243876
-0.000173853
0.000215844
-0.000205728
0.000179283
-0.000230103
0.000135574
-0.000245937
8.62801e-05
-0.000252473
3.31754e-05
-0.000249282
-2.17746e-05
-0.000236309
-7.64466e-05
-0.000213903
-0.000128653
-0.000182823
-0.000176225
-0.00014423
-0.000217117
-9.9646e-05
-0.000249527
-5.08906e-05
-0.000271993
4.75724e-09
-0.00028349
5.09e-05
-0.000283489
9.96552e-05
-0.000271992
0.000144239
-0.000249524
0.000182831
-0.000217114
0.000213911
-0.00017622
0.000236316
-0.000128648
0.000249288
-7.64408e-05
0.000252479
-2.17682e-05
0.000245942
3.31822e-05
0.000230107
8.62872e-05
0.000205731
0.000135582
0.000173856
0.00017929
0.000135762
0.000215851
9.29329e-05
0.000243884
4.70488e-05
0.00026208
0.000269108
-5.67805e-05
0.000325881
-0.000112191
0.000317483
-0.000163985
0.000295671
-0.000210159
0.000262017
-0.000248924
0.000218048
-0.00027872
0.000165371
-0.000298255
0.000105814
-0.000306561
4.14819e-05
-0.000303062
-2.52732e-05
-0.000287633
-9.18762e-05
-0.000260644
-0.000155642
-0.000222984
-0.000213884
-0.00017605
-0.000264052
-0.000121699
-0.000303877
-6.21752e-05
-0.000331517
5.28953e-09
-0.00034567
6.21857e-05
-0.000345669
0.000121709
-0.000331515
0.000176059
-0.000303874
0.000222994
-0.000264048
0.000260653
-0.000213879
0.000287641
-0.000155636
0.000303069
-9.18695e-05
0.000306567
-2.5266e-05
0.00029826
4.14895e-05
0.000278725
0.000105822
0.000248928
0.000165379
0.000210162
0.000218057
0.000163988
0.000262025
0.000112193
0.000295679
5.67812e-05
0.000317491
0.000325889
-6.84465e-05
0.000394328
-0.000135294
0.000384331
-0.000197885
0.000358261
-0.000253835
0.000317968
-0.000300999
0.000265212
-0.000337471
0.000201843
-0.00036164
0.000129984
-0.000372268
5.21093e-05
-0.000368569
-2.89712e-05
-0.000350304
-0.000110141
-0.00031785
-0.000188096
-0.000272233
-0.000259501
-0.000215131
-0.000321154
-0.000148816
-0.000370192
-7.60607e-05
-0.000404272
5.90708e-09
-0.000421736
7.60724e-05
-0.000421736
0.000148827
-0.00040427
0.000215141
-0.000370189
0.000272243
-0.00032115
0.000317859
-0.000259495
0.000350313
-0.000188089
0.000368577
-0.000110134
0.000372274
-2.89631e-05
0.000361646
5.21179e-05
0.000337476
0.000129993
0.000301003
0.000201852
0.000253838
0.000265221
0.000197887
0.000317977
0.000135295
0.00035827
6.84473e-05
0.000384339
0.000394336
-8.23887e-05
0.000476717
-0.000162928
0.00046487
-0.000238493
0.000433826
-0.000306263
0.000385738
-0.000363666
0.000322615
-0.000408376
0.000246553
-0.000438378
0.000159986
-0.000452073
6.58044e-05
-0.000448389
-3.26556e-05
-0.000426899
-0.000131631
-0.000387954
-0.000227041
-0.000332727
-0.000314729
-0.000263223
-0.000390658
-0.00018223
-0.000451185
-9.31846e-05
-0.000493317
6.62818e-09
-0.000514928
9.31978e-05
-0.000514927
0.000182243
-0.000493315
0.000263235
-0.000451181
0.000332738
-0.000390652
0.000387965
-0.000314722
0.000426908
-0.000227033
0.000448397
-0.000131622
0.00045208
-3.26463e-05
0.000438384
6.58141e-05
0.000408381
0.000159996
0.00036367
0.000246563
0.000306266
0.000322625
0.000238495
0.000385748
0.00016293
0.000433836
8.23894e-05
0.00046488
0.000476726
-9.89908e-05
0.000575708
-0.00019587
0.000561749
-0.000286987
0.000524944
-0.000369028
0.000467779
-0.000438918
0.000392505
-0.000493819
0.000301453
-0.000531202
0.000197369
-0.000548985
8.3588e-05
-0.000545693
-3.59473e-05
-0.00052061
-0.000156714
-0.000474002
-0.000273649
-0.000407181
-0.00038155
-0.000322543
-0.000475295
-0.000223509
-0.000550219
-0.000114359
-0.000602467
7.4762e-09
-0.000629294
0.000114374
-0.000629293
0.000223523
-0.000602464
0.000322557
-0.000550215
0.000407193
-0.000475289
0.000474014
-0.000381542
0.000520621
-0.00027364
0.000545702
-0.000156704
0.000548993
-3.59367e-05
0.000531208
8.35989e-05
0.000493824
0.00019738
0.000438922
0.000301464
0.000369031
0.000392516
0.00028699
0.00046779
0.000195871
0.000524955
9.89915e-05
0.000561759
0.000575717
-0.000118674
0.000694381
-0.000234974
0.00067805
-0.000344681
0.000634652
-0.000443925
0.000567023
-0.000529051
0.000477631
-0.000596593
0.000368995
-0.000643366
0.000244143
-0.000666645
0.000106867
-0.000664384
-3.82076e-05
-0.000635414
-0.000185684
-0.000579823
-0.00032924
-0.000499038
-0.000462335
-0.000395912
-0.000578421
-0.000274656
-0.000671476
-0.000140622
-0.0007365
8.48077e-09
-0.000769925
0.000140639
-0.000769923
0.000274672
-0.000736497
0.000395927
-0.00067147
0.000499051
-0.000578413
0.000579835
-0.000462326
0.000635425
-0.00032923
0.000664394
-0.000185672
0.000666653
-3.81955e-05
0.000643373
0.000106879
0.000596598
0.000244156
0.000529055
0.000369007
0.000443928
0.000477643
0.000344684
0.000567035
0.000234976
0.000634663
0.000118674
0.000678061
0.000694392
-0.000141884
0.000836266
-0.00028116
0.000817325
-0.000413004
0.000766496
-0.000532947
0.000686966
-0.000636665
0.00058135
-0.000719935
0.000452265
-0.000778731
0.000302939
-0.000809455
0.000137591
-0.000809267
-3.83961e-05
-0.00077628
-0.000218671
-0.000710256
-0.000395264
-0.000612686
-0.000559906
-0.00048695
-0.000704157
-0.000338248
-0.000820178
-0.000173315
-0.000901432
9.68235e-09
-0.00094325
0.000173335
-0.000943248
0.000338266
-0.000901428
0.000486967
-0.000820171
0.000612701
-0.000704147
0.00071027
-0.000559895
0.000776292
-0.000395251
0.000809277
-0.000218657
0.000809463
-3.83821e-05
0.000778737
0.000137605
0.00071994
0.000302953
0.000636669
0.000452278
0.000532949
0.000581363
0.000413006
0.000686978
0.000281161
0.000766508
0.000141885
0.000817337
0.000836277
-0.000169073
0.00100534
-0.000335366
0.000983619
-0.000493454
0.000924584
-0.000638239
0.000831751
-0.000764652
0.000707763
-0.000867553
0.000555166
-0.000941838
0.000377224
-0.00098273
0.000178483
-0.000986274
-3.48524e-05
-0.000949451
-0.000255494
-0.000871467
-0.000473247
-0.000753763
-0.00067761
-0.00060033
-0.00085759
-0.000417625
-0.00100288
-0.000214177
-0.00110488
1.11316e-08
-0.00115744
0.000214199
-0.00115744
0.000417646
-0.00110488
0.000600349
-0.00100287
0.00075378
-0.000857578
0.000871482
-0.000677596
0.000949463
-0.000473232
0.000986284
-0.000255478
0.000982738
-3.48362e-05
0.000941844
0.000178499
0.000867558
0.00037724
0.000764655
0.000555181
0.000638241
0.000707777
0.000493455
0.000831764
0.000335367
0.000924597
0.000169073
0.00098363
0.00100535
-0.000200662
0.001206
-0.000398493
0.00118145
-0.000587516
0.00111361
-0.00076202
0.00100626
-0.000916127
0.00086187
-0.00104361
0.00068265
-0.00113799
0.000471599
-0.00119286
0.000233355
-0.00120276
-2.4954e-05
-0.00116282
-0.000295434
-0.00107136
-0.000564702
-0.000929571
-0.000819399
-0.00074214
-0.00104502
-0.000517146
-0.00122788
-0.000265477
-0.00135655
1.28934e-08
-0.00142293
0.000265502
-0.00142293
0.00051717
-0.00135654
0.000742163
-0.00122787
0.000929591
-0.00104501
0.00107138
-0.000819383
0.00116283
-0.000564684
0.00120277
-0.000295415
0.00119287
-2.4935e-05
0.00113799
0.000233374
0.00104361
0.000471616
0.000916129
0.000682666
0.000762021
0.000861885
0.000587516
0.00100627
0.000398493
0.00111362
0.000200662
0.00118146
0.00120601
-0.000236986
0.00144299
-0.000471294
0.00141576
-0.000696521
0.00133883
-0.000906428
0.00121616
-0.0010943
0.00104975
-0.00125267
0.000841013
-0.00137328
0.00059221
-0.00144747
0.000307553
-0.00146786
-4.57202e-06
-0.0014264
-0.000336888
-0.00132017
-0.000670939
-0.00114966
-0.00098991
-0.000920371
-0.0012743
-0.000642542
-0.00150571
-0.000330204
-0.00166889
1.50877e-08
-0.00175315
0.000330234
-0.00175314
0.00064257
-0.00166888
0.000920397
-0.00150569
0.00114968
-0.00127429
0.00132018
-0.00098989
0.00142642
-0.000670918
0.00146787
-0.000336866
0.00144748
-4.54909e-06
0.00137328
0.000307573
0.00125267
0.000592229
0.00109431
0.00084103
0.000906428
0.00104976
0.000696521
0.00121618
0.000471294
0.00133885
0.000236986
0.00141577
0.001443
-0.000278218
0.00172121
-0.000554225
0.00169176
-0.000821435
0.00160604
-0.00107327
0.001468
-0.00130226
0.00127873
-0.00149952
0.00103828
-0.00165469
0.000747372
-0.00175622
0.000409083
-0.00179246
3.16677e-05
-0.00175301
-0.000376335
-0.00163126
-0.000792689
-0.00142661
-0.00119456
-0.00114561
-0.00155531
-0.000801423
-0.00184989
-0.000412332
-0.00205798
1.78863e-08
-0.0021655
0.000412367
-0.00216549
0.000801456
-0.00205797
0.00114564
-0.00184988
0.00142664
-0.00155529
0.00163128
-0.00119453
0.00175302
-0.000792663
0.00179247
-0.000376308
0.00175622
3.16934e-05
0.00165469
0.000409107
0.00149952
0.000747394
0.00130226
0.0010383
0.00107327
0.00127875
0.000821434
0.00146801
0.000554223
0.00160606
0.000278218
0.00169178
0.00172122
-0.000324252
0.00204546
-0.000647217
0.00201473
-0.000962533
0.00192136
-0.00126364
0.0017691
-0.0015425
0.0015576
-0.00178882
0.0012846
-0.00198961
0.00094816
-0.00212941
0.000548884
-0.00219118
9.34377e-05
-0.00215943
-0.000408091
-0.00202236
-0.000929759
-0.00177725
-0.00143966
-0.00143207
-0.00190048
-0.00100404
-0.00227793
-0.000517208
-0.00254481
2.15054e-08
-0.00268273
0.00051725
-0.00268272
0.00100407
-0.00254479
0.00143211
-0.00227791
0.00177728
-0.00190046
0.00202238
-0.00143963
0.00215944
-0.000929726
0.00219119
-0.000408058
0.00212942
9.34682e-05
0.00198961
0.000548912
0.00178882
0.000948185
0.0015425
0.00128462
0.00126363
0.00155762
0.00096253
0.00176912
0.000647214
0.00192137
0.000324251
0.00201474
0.00204547
-0.000374553
0.00242001
-0.000749378
0.00238955
-0.00111895
0.00229093
-0.0014773
0.00212745
-0.00181633
0.00189662
-0.00212447
0.00159275
-0.0023858
0.00120948
-0.00257962
0.000742713
-0.00268162
0.000195431
-0.00266738
-0.000422327
-0.00251708
-0.00108006
-0.0022243
-0.00173245
-0.00179886
-0.00232592
-0.00126373
-0.00281307
-0.000651581
-0.00315695
2.62545e-08
-0.00333433
0.000651632
-0.00333433
0.00126377
-0.00315693
0.0017989
-0.00281304
0.00222433
-0.00232589
0.00251711
-0.00173241
0.0026674
-0.00108002
0.00268163
-0.000422287
0.00257963
0.000195468
0.00238579
0.000742745
0.00212447
0.00120951
0.00181632
0.00159277
0.0014773
0.00189664
0.00111894
0.00212747
0.000749375
0.00229094
0.000374551
0.00238956
0.00242002
-0.000427974
0.00284799
-0.000858607
0.00282019
-0.00128808
0.0027204
-0.00171193
0.00255131
-0.00212284
0.00230753
-0.00250866
0.00197857
-0.00285048
0.0015513
-0.003121
0.00101324
-0.00328506
0.000359491
-0.00330463
-0.000402762
-0.00314614
-0.00123854
-0.00279539
-0.0020832
-0.00226525
-0.00285607
-0.00159107
-0.00348724
-0.000819716
-0.0039283
3.24165e-08
-0.00415408
0.000819779
-0.00415407
0.00159113
-0.00392828
0.0022653
-0.00348721
0.00279543
-0.00285602
0.00314617
-0.00208315
0.00330464
-0.00123849
0.00328507
-0.000402712
0.003121
0.000359535
0.00285047
0.00101328
0.00250865
0.00155133
0.00212283
0.0019786
0.00171192
0.00230755
0.00128807
0.00255132
0.000858601
0.00272041
0.000427971
0.00282019
0.00284799
-0.000482535
0.00333052
-0.00097112
0.00330877
-0.00146479
0.00321408
-0.00196191
0.00304842
-0.0024574
0.00280303
-0.00294003
0.0024612
-0.00338859
0.00199985
-0.0037675
0.00139215
-0.00402486
0.000616844
-0.00409959
-0.000328032
-0.00393159
-0.00140653
-0.00348915
-0.00252564
-0.00280524
-0.00353997
-0.00195117
-0.00434132
-0.000997208
-0.00488226
3.90889e-08
-0.00515133
0.000997285
-0.00515132
0.00195124
-0.00488224
0.00280531
-0.00434127
0.00348921
-0.00353992
0.00393163
-0.00252558
0.00409961
-0.00140646
0.00402486
-0.000327967
0.0037675
0.000616898
0.00338858
0.0013922
0.00294002
0.00199989
0.00245739
0.00246123
0.00196189
0.00280304
0.00146478
0.00304843
0.000971112
0.00321408
0.00048253
0.00330877
0.00333052
-0.00053521
0.00386573
-0.00108096
0.00385453
-0.00164055
0.00377366
-0.00221689
0.00362477
-0.0028095
0.00339564
-0.00341076
0.00306246
-0.00399882
0.00258791
-0.00452558
0.00191892
-0.00490712
0.000998383
-0.00503224
-0.000202912
-0.00477328
-0.0016655
-0.00411395
-0.00318497
-0.00318355
-0.00447037
-0.00213262
-0.00539225
-0.00106147
-0.00595342
4.04051e-08
-0.00621284
0.00106155
-0.00621283
0.00213271
-0.0059534
0.00318364
-0.0053922
0.00411403
-0.00447031
0.00477334
-0.00318489
0.00503228
-0.0016654
0.00490713
-0.000202821
0.00452557
0.000998456
0.00399879
0.00191897
0.00341073
0.00258795
0.00280948
0.00306248
0.00221687
0.00339565
0.00164053
0.00362477
0.00108095
0.00377366
0.000535204
0.00385452
0.00386572
-0.000581774
0.0044475
-0.0011796
0.00445235
-0.00180252
0.00439657
-0.00246015
0.00428241
-0.00315978
0.00409527
-0.00390145
0.00380412
-0.00466242
0.00334888
-0.0053637
0.0026202
-0.00584268
0.00147736
-0.00586483
-0.000180762
-0.00522983
-0.0023005
-0.00410543
-0.00430937
-0.00289146
-0.00568434
-0.00180216
-0.00648155
-0.000860063
-0.00689552
2.95967e-08
-0.00707293
0.000860125
-0.00707293
0.00180223
-0.0068955
0.00289154
-0.00648152
0.00410552
-0.00568429
0.00522991
-0.00430927
0.00586488
-0.00230037
0.00584269
-0.000180629
0.00536368
0.00147746
0.00466239
0.00262027
0.00390141
0.00334892
0.00315975
0.00380414
0.00246013
0.00409527
0.00180249
0.0042824
0.00117959
0.00439656
0.000581767
0.00445234
0.00444749
-0.000616807
0.00506431
-0.00125579
0.00509134
-0.00193302
0.0050738
-0.00266707
0.00501646
-0.00347678
0.00490497
-0.00437306
0.00470041
-0.00532087
0.00429669
-0.00616016
0.0034595
-0.00655038
0.00186758
-0.00598683
-0.000744312
-0.00462425
-0.00366308
-0.00323501
-0.0056986
-0.00217569
-0.00674367
-0.00134987
-0.00730736
-0.000647584
-0.00759781
1.93442e-08
-0.00772053
0.000647625
-0.00772053
0.00134992
-0.0075978
0.00217575
-0.00730734
0.00323509
-0.00674363
0.00462434
-0.00569853
0.00598691
-0.00366294
0.0065504
-0.000744115
0.00616013
0.00186773
0.00532082
0.00345958
0.00437301
0.00429673
0.00347673
0.00470042
0.00266703
0.00490497
0.00193299
0.00501645
0.00125577
0.00507378
0.000616798
0.00509132
0.00506429
-0.000634005
0.00569832
-0.00129606
0.0057534
-0.00200982
0.00578755
-0.00280451
0.00581115
-0.00371329
0.00581376
-0.00475327
0.00574038
-0.00583733
0.00538075
-0.00664434
0.00426651
-0.00645694
0.00168018
-0.00505869
-0.00214256
-0.00356879
-0.00515299
-0.00256288
-0.00670451
-0.00179983
-0.00750671
-0.0011424
-0.0079648
-0.000555628
-0.00818458
1.36104e-08
-0.00827618
0.000555657
-0.00827617
0.00114243
-0.00818458
0.00179988
-0.00796478
0.00256293
-0.00750668
0.00356886
-0.00670446
0.00505879
-0.00515287
0.006457
-0.00214233
0.00664431
0.00168042
0.00583727
0.00426663
0.0047532
0.0053808
0.00371323
0.00574038
0.00280446
0.00581375
0.00200978
0.00581113
0.00129604
0.00578752
0.000633994
0.00575337
0.00569828
-0.000626723
0.00632504
-0.00128588
0.00641256
-0.00200787
0.00650953
-0.00283173
0.00663501
-0.00380263
0.00678466
-0.00491847
0.00685622
-0.00598009
0.00644237
-0.00649099
0.0047774
-0.00545028
0.000639475
-0.00397392
-0.00361892
-0.00297912
-0.00614779
-0.00234522
-0.00733841
-0.00174671
-0.00810522
-0.00113249
-0.00857902
-0.000555324
-0.00876175
1.03467e-08
-0.00883151
0.000555346
-0.00883151
0.00113252
-0.00876175
0.00174674
-0.00857901
0.00234525
-0.00810519
0.00297915
-0.00733836
0.00397398
-0.0061477
0.00545036
-0.0036187
0.00649099
0.000639789
0.00598001
0.0047776
0.00491838
0.00644243
0.00380256
0.00685621
0.00283167
0.00678463
0.00200783
0.00663497
0.00128586
0.00650949
0.00062671
0.00641251
0.00632499
-0.000589245
0.00691428
-0.00121195
0.00703527
-0.00190208
0.00719965
-0.00270339
0.00743633
-0.00365799
0.00773926
-0.00471041
0.00790864
-0.00559882
0.00733078
-0.00558672
0.0047653
-0.00432208
-0.000625165
-0.00336518
-0.00457582
-0.00279301
-0.00671997
-0.00238296
-0.00774846
-0.00181336
-0.00867482
-0.00117182
-0.00922056
-0.000570905
-0.00936266
6.43453e-09
-0.00940242
0.00057092
-0.00940242
0.00117184
-0.00936267
0.00181338
-0.00922055
0.00238297
-0.00867478
0.00279301
-0.00774841
0.00336521
-0.00671989
0.00432212
-0.00457561
0.00558674
-0.000624837
0.00559872
0.00476563
0.00471031
0.00733084
0.00365791
0.00790861
0.00270333
0.00773921
0.00190203
0.00743627
0.00121193
0.00719959
0.000589231
0.00703521
0.00691422
-0.000519171
0.00743345
-0.00106761
0.00758371
-0.00167686
0.0078089
-0.00238538
0.00814485
-0.00321318
0.00856706
-0.00405637
0.00875182
-0.00468328
0.00795769
-0.00428668
0.0043687
-0.00355638
-0.00135546
-0.00298037
-0.00515183
-0.00265622
-0.00704411
-0.00235791
-0.00804677
-0.00178911
-0.00924363
-0.00114336
-0.0098663
-0.000552078
-0.00995394