/*--------------------------------*- C++ -*----------------------------------*\
  =========                 |
  \\      /  F ield         | OpenFOAM: The Open Source CFD Toolbox
   \\    /   O peration     | Website:  https://openfoam.org
    \\  /    A nd           | Version:  9
     \\/     M anipulation  |
\*---------------------------------------------------------------------------*/
FoamFile
{
    format      ascii;
    class       volVectorField;
    location    "0.75";
    object      U;
}
// * * * * * * * * * * * * * * * * * * * * * * * * * * * * * * * * * * * * * //

dimensions      [0 1 -1 0 0 0 0];

internalField   nonuniform List<vector> 
4096
(
(-0.000511007 0.00050325 0)
(-0.00152552 0.000489701 0)
(-0.00248664 0.000453766 0)
(-0.00335757 0.000399247 0)
(-0.00410051 0.000328716 0)
(-0.00468618 0.000245207 0)
(-0.00509159 0.000152074 0)
(-0.00530078 5.2939e-05 0)
(-0.00530555 -4.82713e-05 0)
(-0.00510552 -0.000147745 0)
(-0.00470822 -0.000241589 0)
(-0.00412886 -0.00032615 0)
(-0.00338975 -0.000398137 0)
(-0.0025194 -0.000454743 0)
(-0.00155147 -0.000493757 0)
(-0.000523424 -0.000513653 0)
(0.000524929 -0.000513651 0)
(0.00155297 -0.000493752 0)
(0.00252088 -0.000454735 0)
(0.00339121 -0.000398126 0)
(0.00413029 -0.000326136 0)
(0.0047096 -0.000241573 0)
(0.00510687 -0.000147727 0)
(0.00530684 -4.82518e-05 0)
(0.00530201 5.29591e-05 0)
(0.00509276 0.000152093 0)
(0.00468729 0.000245224 0)
(0.00410157 0.000328724 0)
(0.00335854 0.000399236 0)
(0.00248772 0.000453701 0)
(0.00152588 0.000489305 0)
(0.00051075 0.000503046 0)
(-0.000535631 0.00153936 0)
(-0.00159995 0.00149742 0)
(-0.00260831 0.00138806 0)
(-0.00352139 0.00122134 0)
(-0.00430056 0.0010056 0)
(-0.00491483 0.000750157 0)
(-0.00534008 0.000465266 0)
(-0.00555962 0.000162046 0)
(-0.00556472 -0.000147693 0)
(-0.00535502 -0.000451993 0)
(-0.00493841 -0.000739089 0)
(-0.00433082 -0.000997803 0)
(-0.00355563 -0.00121806 0)
(-0.00264275 -0.00139126 0)
(-0.00162748 -0.00151063 0)
(-0.000549135 -0.0015715 0)
(0.00055052 -0.0015715 0)
(0.00162886 -0.00151061 0)
(0.00264411 -0.00139123 0)
(0.00355696 -0.00121802 0)
(0.00433212 -0.000997755 0)
(0.00493966 -0.000739031 0)
(0.00535622 -0.000451927 0)
(0.00556586 -0.000147619 0)
(0.00556069 0.000162125 0)
(0.00534107 0.000465348 0)
(0.00491574 0.00075024 0)
(0.00430138 0.00100567 0)
(0.00352208 0.00122138 0)
(0.00260885 0.00138804 0)
(0.00160021 0.00149696 0)
(0.000535648 0.00153903 0)
(-0.000577609 0.00264084 0)
(-0.00172552 0.00256849 0)
(-0.00281308 0.00238147 0)
(-0.00379785 0.00209548 0)
(-0.00463831 0.00172539 0)
(-0.00530099 0.0012872 0)
(-0.00575988 0.000798463 0)
(-0.00599694 0.000278258 0)
(-0.00600274 -0.000253205 0)
(-0.0057768 -0.000775358 0)
(-0.00532761 -0.001268 0)
(-0.00467233 -0.00171197 0)
(-0.00383616 -0.00208996 0)
(-0.00285136 -0.00238721 0)
(-0.00175602 -0.00259209 0)
(-0.000592575 -0.00269658 0)
(0.000593876 -0.00269657 0)
(0.00175731 -0.00259206 0)
(0.00285263 -0.00238716 0)
(0.0038374 -0.00208989 0)
(0.00467353 -0.00171188 0)
(0.00532876 -0.00126789 0)
(0.00577789 -0.000775238 0)
(0.00600376 -0.000253071 0)
(0.00599789 0.000278403 0)
(0.00576074 0.000798616 0)
(0.00530175 0.00128736 0)
(0.00463897 0.00172553 0)
(0.00379838 0.00209557 0)
(0.00281346 0.00238151 0)
(0.00172574 0.00256836 0)
(0.000577678 0.00264052 0)
(-0.000640093 0.00384584 0)
(-0.0019122 0.0037406 0)
(-0.00311748 0.00346843 0)
(-0.00420895 0.00305204 0)
(-0.00514063 0.00251321 0)
(-0.0058754 0.00187516 0)
(-0.00638442 0.00116343 0)
(-0.00664766 0.000405807 0)
(-0.00665457 -0.000368313 0)
(-0.00640456 -0.00112895 0)
(-0.00590696 -0.00184665 0)
(-0.00518075 -0.00249351 0)
(-0.00425383 -0.00304428 0)
(-0.00316196 -0.00347744 0)
(-0.00194739 -0.00377601 0)
(-0.000657224 -0.00392827 0)
(0.000658487 -0.00392826 0)
(0.00194865 -0.00377596 0)
(0.00316319 -0.00347737 0)
(0.00425503 -0.00304418 0)
(0.00518191 -0.00249338 0)
(0.00590806 -0.0018465 0)
(0.0064056 -0.00112877 0)
(0.00665554 -0.000368112 0)
(0.00664854 0.000406025 0)
(0.00638521 0.00116366 0)
(0.00587609 0.00187539 0)
(0.00514121 0.00251344 0)
(0.0042094 0.00305224 0)
(0.0031178 0.00346856 0)
(0.0019124 0.00374059 0)
(0.000640167 0.00384561 0)
(-0.000726159 0.00519745 0)
(-0.00216933 0.00505542 0)
(-0.0035368 0.00468784 0)
(-0.00477533 0.00412535 0)
(-0.00583276 0.00339739 0)
(-0.00666698 0.00253526 0)
(-0.00724522 0.00157346 0)
(-0.00754465 0.000549511 0)
(-0.00755323 -0.000496905 0)
(-0.00727015 -0.00152526 0)
(-0.00670591 -0.00249568 0)
(-0.00588196 -0.00337042 0)
(-0.00482993 -0.00411532 0)
(-0.0035904 -0.0047012 0)
(-0.00221138 -0.00510506 0)
(-0.00074639 -0.00531104 0)
(0.000747645 -0.00531102 0)
(0.00221262 -0.005105 0)
(0.00359162 -0.0047011 0)
(0.00483111 -0.00411518 0)
(0.0058831 -0.00337025 0)
(0.00670699 -0.00249547 0)
(0.00727117 -0.00152502 0)
(0.00755417 -0.000496633 0)
(0.00754551 0.000549808 0)
(0.00724598 0.00157378 0)
(0.00666764 0.00253559 0)
(0.00583331 0.00339771 0)
(0.00477575 0.00412566 0)
(0.00353711 0.00468809 0)
(0.00216953 0.00505555 0)
(0.000726236 0.00519737 0)
(-0.000839361 0.00674606 0)
(-0.00250755 0.00656196 0)
(-0.00408839 0.0060852 0)
(-0.00552043 0.00535554 0)
(-0.00674343 0.00441109 0)
(-0.00770865 0.00329242 0)
(-0.00837814 0.0020442 0)
(-0.00872542 0.000715083 0)
(-0.00873639 -0.000643463 0)
(-0.00840997 -0.00197883 0)
(-0.00775814 -0.00323919 0)
(-0.00680559 -0.00437547 0)
(-0.00558886 -0.00534322 0)
(-0.00415486 -0.00610448 0)
(-0.00255919 -0.00662929 0)
(-0.000863866 -0.00689697 0)
(0.000865137 -0.00689694 0)
(0.00256045 -0.00662922 0)
(0.0041561 -0.00610436 0)
(0.00559005 -0.00534305 0)
(0.00680674 -0.00437524 0)
(0.00775922 -0.00323892 0)
(0.00841099 -0.00197852 0)
(0.00873733 -0.000643116 0)
(0.00872627 0.000715463 0)
(0.0083789 0.00204461 0)
(0.0077093 0.00329284 0)
(0.00674397 0.00441152 0)
(0.00552086 0.00535596 0)
(0.00408871 0.00608557 0)
(0.00250776 0.00656221 0)
(0.000839437 0.00674613 0)
(-0.000984071 0.0085498 0)
(-0.00293991 0.0083168 0)
(-0.00479356 0.00771312 0)
(-0.0064731 0.00678904 0)
(-0.00790793 0.00559275 0)
(-0.0090409 0.00417552 0)
(-0.0098274 0.00259384 0)
(-0.0102362 0.000909248 0)
(-0.0102506 -0.000813063 0)
(-0.00986897 -0.00250641 0)
(-0.00910529 -0.00410502 0)
(-0.00798832 -0.00554655 0)
(-0.00656082 -0.00677452 0)
(-0.00487786 -0.00774062 0)
(-0.00300473 -0.00840673 0)
(-0.00101435 -0.0087465 0)
(0.00101566 -0.00874646 0)
(0.00300602 -0.00840664 0)
(0.00487913 -0.00774047 0)
(0.00656205 -0.0067743 0)
(0.0079895 -0.00554628 0)
(0.0091064 -0.00410469 0)
(0.00987001 -0.00250602 0)
(0.0102515 -0.000812634 0)
(0.0102371 0.000909716 0)
(0.00982817 0.00259434 0)
(0.00904156 0.00417604 0)
(0.00790848 0.00559328 0)
(0.00647354 0.00678956 0)
(0.00479389 0.0077136 0)
(0.00294012 0.00831718 0)
(0.000984148 0.00855001 0)
(-0.00116571 0.0106764 0)
(-0.00348265 0.0103859 0)
(-0.00567886 0.00963292 0)
(-0.00766927 0.00848005 0)
(-0.00937036 0.00698729 0)
(-0.0107144 0.00521842 0)
(-0.0116483 0.00324377 0)
(-0.0121348 0.00114004 0)
(-0.012154 -0.00101146 0)
(-0.0117035 -0.00312742 0)
(-0.0107996 -0.00512561 0)
(-0.00947621 -0.00692793 0)
(-0.0077838 -0.0084636 0)
(-0.00578771 -0.00967202 0)
(-0.00356546 -0.0105053 0)
(-0.00120375 -0.0109304 0)
(0.00120511 -0.0109304 0)
(0.00356681 -0.0105052 0)
(0.00578903 -0.00967183 0)
(0.00778508 -0.00846334 0)
(0.00947743 -0.0069276 0)
(0.0108008 -0.00512521 0)
(0.0117046 -0.00312696 0)
(0.012155 -0.00101094 0)
(0.0121357 0.0011406 0)
(0.0116491 0.00324437 0)
(0.010715 0.00521905 0)
(0.00937093 0.00698793 0)
(0.00766973 0.00848069 0)
(0.0056792 0.00963352 0)
(0.00348287 0.0103864 0)
(0.00116579 0.0106768 0)
(-0.00139104 0.0132057 0)
(-0.00415595 0.0128471 0)
(-0.00677724 0.0119169 0)
(-0.00915362 0.0104926 0)
(-0.0111855 0.00864782 0)
(-0.012792 0.00646124 0)
(-0.0139096 0.00401949 0)
(-0.0144936 0.00141719 0)
(-0.0145194 -0.0012452 0)
(-0.0139841 -0.00386461 0)
(-0.0129066 -0.00633911 0)
(-0.0113269 -0.00857181 0)
(-0.00930536 -0.0104747 0)
(-0.0069199 -0.0119725 0)
(-0.00426331 -0.0130055 0)
(-0.00143948 -0.0135326 0)
(0.00144091 -0.0135325 0)
(0.00426472 -0.0130054 0)
(0.00692129 -0.0119723 0)
(0.0093067 -0.0104744 0)
(0.0113282 -0.00857142 0)
(0.0129078 -0.00633864 0)
(0.0139853 -0.00386407 0)
(0.0145204 -0.00124459 0)
(0.0144945 0.00141784 0)
(0.0139104 0.00402019 0)
(0.0127927 0.00646198 0)
(0.0111861 0.00864857 0)
(0.0091541 0.0104933 0)
(0.00677759 0.0119177 0)
(0.00415618 0.0128477 0)
(0.00139112 0.0132062 0)
(-0.00166836 0.0162324 0)
(-0.00498464 0.0157925 0)
(-0.00812932 0.0146511 0)
(-0.0109812 0.0129027 0)
(-0.013421 0.0106376 0)
(-0.0153516 0.00795194 0)
(-0.0166966 0.00495162 0)
(-0.0174017 0.00175263 0)
(-0.017437 -0.00152173 0)
(-0.0167983 -0.00474473 0)
(-0.0155074 -0.00779078 0)
(-0.0136122 -0.0105403 0)
(-0.0111848 -0.0128846 0)
(-0.00831868 -0.0147302 0)
(-0.00512561 -0.0160035 0)
(-0.00173078 -0.0166531 0)
(0.0017323 -0.0166531 0)
(0.00512711 -0.0160033 0)
(0.00832015 -0.01473 0)
(0.0111862 -0.0128842 0)
(0.0136136 -0.0105398 0)
(0.0155087 -0.00779024 0)
(0.0167995 -0.0047441 0)
(0.0174381 -0.00152103 0)
(0.0174027 0.00175339 0)
(0.0166975 0.00495244 0)
(0.0153524 0.0079528 0)
(0.0134216 0.0106385 0)
(0.0109817 0.0129036 0)
(0.0081297 0.0146519 0)
(0.00498488 0.0157933 0)
(0.00166844 0.016233 0)
(-0.00200782 0.0198694 0)
(-0.00599912 0.0193324 0)
(-0.0097848 0.017938 0)
(-0.0132195 0.0158015 0)
(-0.0161598 0.0130327 0)
(-0.0184888 0.00974827 0)
(-0.020114 0.00607731 0)
(-0.0209694 0.00216116 0)
(-0.0210181 -0.00184947 0)
(-0.020254 -0.00579942 0)
(-0.0187026 -0.00953453 0)
(-0.016421 -0.0129077 0)
(-0.0134955 -0.0157849 0)
(-0.0100389 -0.018051 0)
(-0.00618629 -0.0196147 0)
(-0.00208914 -0.0204127 0)
(0.00209077 -0.0204126 0)
(0.0061879 -0.0196145 0)
(0.0100405 -0.0180507 0)
(0.013497 -0.0157845 0)
(0.0164225 -0.0129072 0)
(0.018704 -0.0095339 0)
(0.0202552 -0.0057987 0)
(0.0210193 -0.00184867 0)
(0.0209705 0.00216204 0)
(0.0201149 0.00607824 0)
(0.0184896 0.00974925 0)
(0.0161605 0.0130337 0)
(0.01322 0.0158025 0)
(0.00978519 0.017939 0)
(0.00599936 0.0193334 0)
(0.00200791 0.0198702 0)
(-0.00242176 0.0242521 0)
(-0.00723627 0.0235988 0)
(-0.0118041 0.0219009 0)
(-0.0159505 0.0192985 0)
(-0.0195029 0.0159245 0)
(-0.0223201 0.0119201 0)
(-0.0242898 0.0074418 0)
(-0.0253315 0.00266132 0)
(-0.0253991 -0.00223783 0)
(-0.0244842 -0.00706613 0)
(-0.0226162 -0.0116348 0)
(-0.0198629 -0.0157632 0)
(-0.0163283 -0.0192865 0)
(-0.0121486 -0.0220627 0)
(-0.00748735 -0.0239789 0)
(-0.00252876 -0.024957 0)
(0.00253052 -0.0249569 0)
(0.00748909 -0.0239787 0)
(0.0121503 -0.0220623 0)
(0.0163299 -0.019286 0)
(0.0198645 -0.0157626 0)
(0.0226177 -0.0116341 0)
(0.0244855 -0.0070653 0)
(0.0254004 -0.00223691 0)
(0.0253326 0.00266232 0)
(0.0242908 0.00744287 0)
(0.022321 0.0119212 0)
(0.0195037 0.0159256 0)
(0.0159511 0.0192997 0)
(0.0118045 0.0219021 0)
(0.00723653 0.0235999 0)
(0.00242185 0.0242531 0)
(-0.00292509 0.0295428 0)
(-0.00874071 0.02875 0)
(-0.0142603 0.0266878 0)
(-0.0192738 0.0235255 0)
(-0.0235731 0.0194236 0)
(-0.0269873 0.0145523 0)
(-0.0293802 0.00910062 0)
(-0.0306526 0.0032765 0)
(-0.0307473 -0.0026971 0)
(-0.0296519 -0.00858915 0)
(-0.0274003 -0.0141688 0)
(-0.0240731 -0.0192144 0)
(-0.0197951 -0.0235231 0)
(-0.0147314 -0.0269199 0)
(-0.0090807 -0.0292654 0)
(-0.00306723 -0.0304629 0)
(0.00306913 -0.0304628 0)
(0.00908258 -0.0292652 0)
(0.0147333 -0.0269195 0)
(0.0197969 -0.0235226 0)
(0.0240748 -0.0192137 0)
(0.0274019 -0.0141679 0)
(0.0296534 -0.0085882 0)
(0.0307487 -0.00269606 0)
(0.0306538 0.00327763 0)
(0.0293812 0.00910183 0)
(0.0269882 0.0145536 0)
(0.0235738 0.0194249 0)
(0.0192744 0.0235269 0)
(0.0142607 0.0266891 0)
(0.00874098 0.0287513 0)
(0.00292518 0.029544 0)
(-0.00353571 0.0359364 0)
(-0.0105661 0.0349765 0)
(-0.0172415 0.0324768 0)
(-0.0233092 0.0286418 0)
(-0.0285184 0.0236641 0)
(-0.0326623 0.0177484 0)
(-0.0355746 0.0111221 0)
(-0.0371335 0.00403647 0)
(-0.0372669 -0.00323823 0)
(-0.035957 -0.0104207 0)
(-0.0332421 -0.0172288 0)
(-0.0292177 -0.0233907 0)
(-0.0240341 -0.0286567 0)
(-0.017891 -0.0328107 0)
(-0.0110305 -0.0356804 0)
(-0.00372628 -0.037146 0)
(0.00372835 -0.0371459 0)
(0.0110325 -0.0356802 0)
(0.017893 -0.0328103 0)
(0.024036 -0.0286561 0)
(0.0292195 -0.0233899 0)
(0.0332438 -0.0172279 0)
(0.0359586 -0.0104196 0)
(0.0372684 -0.00323705 0)
(0.0371348 0.00403775 0)
(0.0355758 0.0111235 0)
(0.0326633 0.0177498 0)
(0.0285192 0.0236656 0)
(0.0233098 0.0286432 0)
(0.017242 0.0324783 0)
(0.0105664 0.0349779 0)
(0.0035358 0.0359377 0)
(-0.00427509 0.0436668 0)
(-0.0127768 0.0425069 0)
(-0.0208532 0.0394825 0)
(-0.0282008 0.0348394 0)
(-0.0345175 0.0288086 0)
(-0.0395525 0.0216348 0)
(-0.0431029 0.0135909 0)
(-0.0450181 0.00497946 0)
(-0.0452071 -0.00387226 0)
(-0.0436439 -0.0126222 0)
(-0.0403711 -0.0209256 0)
(-0.0355015 -0.0284487 0)
(-0.0292155 -0.0348839 0)
(-0.0217554 -0.039964 0)
(-0.0134161 -0.0434753 0)
(-0.00453281 -0.0452692 0)
(0.00453508 -0.045269 0)
(0.0134183 -0.043475 0)
(0.0217576 -0.0399634 0)
(0.0292176 -0.0348832 0)
(0.0355035 -0.0284478 0)
(0.040373 -0.0209245 0)
(0.0436456 -0.012621 0)
(0.0452087 -0.00387093 0)
(0.0450195 0.0049809 0)
(0.0431041 0.0135924 0)
(0.0395535 0.0216364 0)
(0.0345183 0.0288102 0)
(0.0282015 0.0348411 0)
(0.0208537 0.0394841 0)
(0.0127771 0.0425086 0)
(0.00427519 0.0436683 0)
(-0.00516876 0.0530147 0)
(-0.0154492 0.0516161 0)
(-0.0252214 0.0479631 0)
(-0.0341212 0.0423509 0)
(-0.0417846 0.0350549 0)
(-0.0479079 0.0263665 0)
(-0.0522429 0.016612 0)
(-0.0546028 0.00615498 0)
(-0.0548717 -0.00460939 0)
(-0.053012 -0.0152653 0)
(-0.0490695 -0.0253913 0)
(-0.0431767 -0.0345773 0)
(-0.0355498 -0.0424435 0)
(-0.0264828 -0.0486587 0)
(-0.0163359 -0.0529576 0)
(-0.00552021 -0.0551545 0)
(0.0055227 -0.0551544 0)
(0.0163384 -0.0529572 0)
(0.0264852 -0.0486581 0)
(0.0355521 -0.0424426 0)
(0.0431788 -0.0345762 0)
(0.0490716 -0.0253901 0)
(0.0530139 -0.015264 0)
(0.0548734 -0.00460788 0)
(0.0546043 0.0061566 0)
(0.0522443 0.0166138 0)
(0.0479091 0.0263683 0)
(0.0417855 0.0350567 0)
(0.0341219 0.0423528 0)
(0.025222 0.0479649 0)
(0.0154495 0.0516179 0)
(0.00516887 0.0530164 0)
(-0.00624698 0.0643163 0)
(-0.0186743 0.0626336 0)
(-0.0304959 0.0582294 0)
(-0.0412757 0.0514572 0)
(-0.050576 0.0426435 0)
(-0.0580289 0.032134 0)
(-0.0633301 0.020317 0)
(-0.066247 0.00762764 0)
(-0.0666311 -0.00545728 0)
(-0.0644278 -0.0184329 0)
(-0.0596843 -0.0307835 0)
(-0.0525545 -0.0420045 0)
(-0.0432975 -0.051626 0)
(-0.0322699 -0.0592361 0)
(-0.0199122 -0.0645038 0)
(-0.00672997 -0.0671972 0)
(0.00673272 -0.0671971 0)
(0.0199149 -0.0645034 0)
(0.0322725 -0.0592354 0)
(0.0433 -0.051625 0)
(0.0525569 -0.0420034 0)
(0.0596865 -0.0307821 0)
(0.0644299 -0.0184313 0)
(0.0666329 -0.00545558 0)
(0.0662487 0.00762946 0)
(0.0633315 0.0203189 0)
(0.0580301 0.032136 0)
(0.050577 0.0426455 0)
(0.0412765 0.0514592 0)
(0.0304964 0.0582315 0)
(0.0186746 0.0626356 0)
(0.0062471 0.0643183 0)
(-0.00754532 0.0779735 0)
(-0.0225588 0.0759537 0)
(-0.0368531 0.0706546 0)
(-0.0499077 0.0624974 0)
(-0.0611968 0.0518674 0)
(-0.0702748 0.039172 0)
(-0.0767681 0.0248705 0)
(-0.0803861 0.00948252 0)
(-0.0809366 -0.00641845 0)
(-0.0783407 -0.0222195 0)
(-0.0726427 -0.0372894 0)
(-0.0640202 -0.0510057 0)
(-0.0527822 -0.062785 0)
(-0.0393613 -0.0721137 0)
(-0.0242975 -0.078577 0)
(-0.00821393 -0.0818834 0)
(0.00821697 -0.0818832 0)
(0.0243005 -0.0785765 0)
(0.0393642 -0.0721129 0)
(0.0527849 -0.062784 0)
(0.0640228 -0.0510044 0)
(0.0726451 -0.0372878 0)
(0.0783429 -0.0222178 0)
(0.0809386 -0.00641653 0)
(0.0803878 0.00948457 0)
(0.0767696 0.0248727 0)
(0.070276 0.0391742 0)
(0.0611978 0.0518697 0)
(0.0499085 0.0624997 0)
(0.0368537 0.0706569 0)
(0.0225591 0.075956 0)
(0.00754543 0.0779757 0)
(-0.00910528 0.0944649 0)
(-0.0272276 0.0920475 0)
(-0.0445002 0.0856864 0)
(-0.0603036 0.0758813 0)
(-0.0740082 0.0630839 0)
(-0.085074 0.0477703 0)
(-0.093042 0.0304809 0)
(-0.0975468 0.0118326 0)
(-0.0983384 -0.00748594 0)
(-0.0953018 -0.0267316 0)
(-0.0884724 -0.0451302 0)
(-0.0780516 -0.0619125 0)
(-0.0644067 -0.0763516 0)
(-0.0480628 -0.0878038 0)
(-0.0296827 -0.0957468 0)
(-0.010037 -0.099813 0)
(0.0100404 -0.0998128 0)
(0.029686 -0.0957463 0)
(0.048066 -0.0878029 0)
(0.0644097 -0.0763504 0)
(0.0780545 -0.061911 0)
(0.088475 -0.0451285 0)
(0.0953042 -0.0267296 0)
(0.0983406 -0.00748378 0)
(0.0975486 0.0118349 0)
(0.0930436 0.0304833 0)
(0.0850753 0.0477727 0)
(0.0740092 0.0630864 0)
(0.0603045 0.0758839 0)
(0.0445008 0.0856889 0)
(0.0272279 0.09205 0)
(0.0091054 0.0944673 0)
(-0.0109748 0.114359 0)
(-0.032825 0.111475 0)
(-0.0536776 0.10386 0)
(-0.0727984 0.092103 0)
(-0.0894353 0.0767286 0)
(-0.102935 0.0582882 0)
(-0.112733 0.0374123 0)
(-0.118366 0.0148294 0)
(-0.119507 -0.00863671 0)
(-0.115989 -0.0320852 0)
(-0.107826 -0.0545659 0)
(-0.0952436 -0.0751244 0)
(-0.0786751 -0.0928514 0)
(-0.0587579 -0.106936 0)
(-0.0363078 -0.116717 0)
(-0.012281 -0.121728 0)
(0.0122848 -0.121728 0)
(0.0363115 -0.116717 0)
(0.0587615 -0.106935 0)
(0.0786785 -0.0928499 0)
(0.0952467 -0.0751226 0)
(0.107829 -0.0545638 0)
(0.115991 -0.0320829 0)
(0.119509 -0.00863426 0)
(0.118368 0.014832 0)
(0.112734 0.0374149 0)
(0.102937 0.0582909 0)
(0.0894364 0.0767313 0)
(0.0727992 0.0921058 0)
(0.0536782 0.103863 0)
(0.0328254 0.111478 0)
(0.0109749 0.114361 0)
(-0.0132084 0.138326 0)
(-0.0395161 0.134901 0)
(-0.0646613 0.125814 0)
(-0.0877791 0.111757 0)
(-0.107975 0.0933334 0)
(-0.124459 0.0711724 0)
(-0.136533 0.0460023 0)
(-0.143611 0.0186772 0)
(-0.145261 -0.00982135 0)
(-0.141236 -0.038403 0)
(-0.131515 -0.065899 0)
(-0.11634 -0.0911211 0)
(-0.0962208 -0.112926 0)
(-0.0719308 -0.130286 0)
(-0.0444767 -0.14236 0)
(-0.0150494 -0.148551 0)
(0.0150537 -0.148551 0)
(0.0444808 -0.14236 0)
(0.0719348 -0.130285 0)
(0.0962245 -0.112924 0)
(0.116343 -0.0911191 0)
(0.131518 -0.0658966 0)
(0.141238 -0.0384005 0)
(0.145263 -0.00981857 0)
(0.143613 0.0186801 0)
(0.136535 0.0460053 0)
(0.12446 0.0711754 0)
(0.107976 0.0933364 0)
(0.0877799 0.11176 0)
(0.0646618 0.125817 0)
(0.0395164 0.134904 0)
(0.0132085 0.138329 0)
(-0.0158673 0.167153 0)
(-0.0474858 0.163105 0)
(-0.0777634 0.152306 0)
(-0.105688 0.135559 0)
(-0.1302 0.113548 0)
(-0.150347 0.0869804 0)
(-0.165266 0.0566854 0)
(-0.174208 0.0236545 0)
(-0.176596 -0.0109485 0)
(-0.172072 -0.0458065 0)
(-0.160549 -0.0794782 0)
(-0.142275 -0.110478 0)
(-0.117844 -0.13736 0)
(-0.0881957 -0.158814 0)
(-0.0545755 -0.173761 0)
(-0.0184743 -0.181432 0)
(0.0184791 -0.181432 0)
(0.0545802 -0.17376 0)
(0.0882002 -0.158813 0)
(0.117848 -0.137358 0)
(0.142279 -0.110476 0)
(0.160552 -0.0794755 0)
(0.172075 -0.0458035 0)
(0.176599 -0.0109453 0)
(0.17421 0.0236578 0)
(0.165268 0.0566887 0)
(0.150349 0.0869837 0)
(0.130201 0.113551 0)
(0.105689 0.135563 0)
(0.0777639 0.152309 0)
(0.0474862 0.163109 0)
(0.0158674 0.167156 0)
(-0.0190183 0.201758 0)
(-0.0569377 0.197004 0)
(-0.0933299 0.184231 0)
(-0.127022 0.164366 0)
(-0.156766 0.138166 0)
(-0.181417 0.10641 0)
(-0.199904 0.0700236 0)
(-0.211268 0.0301433 0)
(-0.214732 -0.0118609 0)
(-0.209773 -0.0544026 0)
(-0.196193 -0.0956989 0)
(-0.174228 -0.133883 0)
(-0.144563 -0.167114 0)
(-0.108337 -0.193708 0)
(-0.0670989 -0.212272 0)
(-0.0227246 -0.22181 0)
(0.0227301 -0.221809 0)
(0.0671042 -0.212271 0)
(0.108342 -0.193707 0)
(0.144567 -0.167112 0)
(0.174232 -0.13388 0)
(0.196197 -0.0956958 0)
(0.209776 -0.0543991 0)
(0.214735 -0.0118572 0)
(0.21127 0.030147 0)
(0.199906 0.0700273 0)
(0.181419 0.106414 0)
(0.156767 0.13817 0)
(0.127022 0.16437 0)
(0.0933304 0.184235 0)
(0.056938 0.197008 0)
(0.0190184 0.201762 0)
(-0.0227321 0.243197 0)
(-0.0680878 0.237657 0)
(-0.111733 0.222641 0)
(-0.152325 0.199202 0)
(-0.188406 0.168158 0)
(-0.218603 0.130339 0)
(-0.241587 0.0867502 0)
(-0.256121 0.0386715 0)
(-0.261155 -0.0122995 0)
(-0.255921 -0.0642615 0)
(-0.240039 -0.115 0)
(-0.213699 -0.162156 0)
(-0.177679 -0.203366 0)
(-0.133362 -0.236449 0)
(-0.0826844 -0.259591 0)
(-0.0280188 -0.271496 0)
(0.028025 -0.271496 0)
(0.0826904 -0.25959 0)
(0.133368 -0.236447 0)
(0.177684 -0.203363 0)
(0.213704 -0.162152 0)
(0.240043 -0.114996 0)
(0.255924 -0.0642576 0)
(0.261158 -0.0122954 0)
(0.256123 0.0386757 0)
(0.241589 0.0867544 0)
(0.218605 0.130343 0)
(0.188407 0.168162 0)
(0.152325 0.199206 0)
(0.111734 0.222644 0)
(0.068088 0.237661 0)
(0.0227322 0.2432 0)
(-0.0270797 0.292671 0)
(-0.0811553 0.28628 0)
(-0.13336 0.268756 0)
(-0.182175 0.241283 0)
(-0.225921 0.204709 0)
(-0.262959 0.159874 0)
(-0.291638 0.107828 0)
(-0.310353 0.0499735 0)
(-0.317681 -0.0118491 0)
(-0.312488 -0.0753799 0)
(-0.294102 -0.137853 0)
(-0.262609 -0.196268 0)
(-0.218872 -0.247563 0)
(-0.164578 -0.288887 0)
(-0.102159 -0.317861 0)
(-0.0346405 -0.332784 0)
(0.0346477 -0.332783 0)
(0.102166 -0.317859 0)
(0.164584 -0.288884 0)
(0.218878 -0.247559 0)
(0.262615 -0.196264 0)
(0.294107 -0.137849 0)
(0.312492 -0.0753752 0)
(0.317684 -0.0118443 0)
(0.310355 0.0499783 0)
(0.291639 0.107832 0)
(0.26296 0.159879 0)
(0.225922 0.204714 0)
(0.182176 0.241287 0)
(0.13336 0.26876 0)
(0.0811555 0.286283 0)
(0.0270797 0.292675 0)
(-0.0321266 0.351526 0)
(-0.0963461 0.344243 0)
(-0.158581 0.323985 0)
(-0.217155 0.292048 0)
(-0.270156 0.249266 0)
(-0.315644 0.196418 0)
(-0.351569 0.134528 0)
(-0.375843 0.0650767 0)
(-0.386528 -0.0098585 0)
(-0.381946 -0.0876225 0)
(-0.360951 -0.164741 0)
(-0.323436 -0.237367 0)
(-0.270327 -0.301491 0)
(-0.203687 -0.353348 0)
(-0.126605 -0.389793 0)
(-0.0429607 -0.408588 0)
(0.0429689 -0.408587 0)
(0.126613 -0.389792 0)
(0.203695 -0.353345 0)
(0.270333 -0.301487 0)
(0.323442 -0.237363 0)
(0.360956 -0.164736 0)
(0.38195 -0.087617 0)
(0.386531 -0.00985292 0)
(0.375845 0.0650821 0)
(0.351571 0.134533 0)
(0.315645 0.196423 0)
(0.270156 0.24927 0)
(0.217155 0.292052 0)
(0.158581 0.323989 0)
(0.0963461 0.344247 0)
(0.0321266 0.351529 0)
(-0.0379242 0.421229 0)
(-0.113826 0.413067 0)
(-0.18772 0.389922 0)
(-0.257804 0.353182 0)
(-0.321949 0.303587 0)
(-0.377886 0.241749 0)
(-0.423081 0.168543 0)
(-0.454801 0.08541 0)
(-0.470406 -0.00541137 0)
(-0.467403 -0.10064 0)
(-0.443888 -0.196114 0)
(-0.399408 -0.2868 0)
(-0.334906 -0.367363 0)
(-0.252932 -0.432774 0)
(-0.157443 -0.478852 0)
(-0.0534679 -0.502638 0)
(0.0534776 -0.502637 0)
(0.157452 -0.478849 0)
(0.25294 -0.43277 0)
(0.334914 -0.367358 0)
(0.399414 -0.286794 0)
(0.443893 -0.196107 0)
(0.467407 -0.100634 0)
(0.470409 -0.00540509 0)
(0.454803 0.0854161 0)
(0.423082 0.168549 0)
(0.377887 0.241754 0)
(0.321949 0.303592 0)
(0.257804 0.353187 0)
(0.18772 0.389926 0)
(0.113826 0.41307 0)
(0.0379242 0.421232 0)
(-0.0444965 0.503336 0)
(-0.133683 0.494384 0)
(-0.220983 0.468339 0)
(-0.304541 0.426636 0)
(-0.382052 0.369806 0)
(-0.450918 0.298131 0)
(-0.508044 0.212143 0)
(-0.549884 0.113055 0)
(-0.572628 0.00316587 0)
(-0.572707 -0.113646 0)
(-0.547184 -0.232293 0)
(-0.494776 -0.346125 0)
(-0.416405 -0.44793 0)
(-0.315285 -0.530913 0)
(-0.196566 -0.58948 0)
(-0.0668141 -0.619733 0)
(0.0668255 -0.619732 0)
(0.196577 -0.589477 0)
(0.315295 -0.530908 0)
(0.416414 -0.447924 0)
(0.494783 -0.346118 0)
(0.547189 -0.232285 0)
(0.572711 -0.113639 0)
(0.572631 0.00317336 0)
(0.549886 0.113062 0)
(0.508045 0.21215 0)
(0.450918 0.298136 0)
(0.382052 0.369812 0)
(0.30454 0.42664 0)
(0.220983 0.468343 0)
(0.133683 0.494388 0)
(0.0444964 0.503339 0)
(-0.0518217 0.59942 0)
(-0.155873 0.589888 0)
(-0.258378 0.561149 0)
(-0.357545 0.514626 0)
(-0.450997 0.450486 0)
(-0.535839 0.36844 0)
(-0.608353 0.268385 0)
(-0.663918 0.150995 0)
(-0.697221 0.0184019 0)
(-0.702972 -0.125201 0)
(-0.67649 -0.273347 0)
(-0.615202 -0.417166 0)
(-0.519903 -0.546706 0)
(-0.394751 -0.652627 0)
(-0.246528 -0.727445 0)
(-0.0838789 -0.766093 0)
(0.0838927 -0.766091 0)
(0.246541 -0.727441 0)
(0.394762 -0.652621 0)
(0.519913 -0.546698 0)
(0.61521 -0.417157 0)
(0.676496 -0.273338 0)
(0.702976 -0.125192 0)
(0.697223 0.018411 0)
(0.663919 0.151003 0)
(0.608353 0.268392 0)
(0.535839 0.368447 0)
(0.450996 0.450491 0)
(0.357544 0.514631 0)
(0.258377 0.561153 0)
(0.155873 0.589891 0)
(0.0518215 0.599423 0)
(-0.0598086 0.710959 0)
(-0.180147 0.701226 0)
(-0.299586 0.670333 0)
(-0.416589 0.619611 0)
(-0.528884 0.54866 0)
(-0.633402 0.456303 0)
(-0.725786 0.34135 0)
(-0.800122 0.203397 0)
(-0.849047 0.0438612 0)
(-0.864601 -0.132924 0)
(-0.839262 -0.318971 0)
(-0.768305 -0.502197 0)
(-0.652266 -0.668261 0)
(-0.496647 -0.804262 0)
(-0.3106 -0.900381 0)
(-0.105762 -0.950056 0)
(0.105779 -0.950055 0)
(0.310616 -0.900376 0)
(0.496661 -0.804254 0)
(0.652278 -0.668252 0)
(0.768314 -0.502186 0)
(0.839268 -0.318959 0)
(0.864605 -0.132913 0)
(0.849049 0.0438718 0)
(0.800122 0.203406 0)
(0.725785 0.341358 0)
(0.6334 0.45631 0)
(0.528882 0.548666 0)
(0.416588 0.619615 0)
(0.299584 0.670336 0)
(0.180146 0.701229 0)
(0.0598083 0.710962 0)
(-0.0682667 0.839174 0)
(-0.205956 0.829846 0)
(-0.343806 0.797805 0)
(-0.480808 0.744203 0)
(-0.615091 0.667842 0)
(-0.743683 0.566249 0)
(-0.861731 0.436507 0)
(-0.961837 0.276241 0)
(-1.03383 0.0851933 0)
(-1.06567 -0.132791 0)
(-1.04521 -0.367975 0)
(-0.963782 -0.603137 0)
(-0.82126 -0.817394 0)
(-0.625691 -0.993597 0)
(-0.390962 -1.11823 0)
(-0.133032 -1.1826 0)
(0.133053 -1.18259 0)
(0.390982 -1.11823 0)
(0.625709 -0.993587 0)
(0.821274 -0.817381 0)
(0.963793 -0.603122 0)
(1.04521 -0.36796 0)
(1.06567 -0.132777 0)
(1.03383 0.085206 0)
(0.961836 0.276252 0)
(0.861728 0.436516 0)
(0.743679 0.566257 0)
(0.615087 0.667848 0)
(0.480805 0.744207 0)
(0.343803 0.797808 0)
(0.205955 0.829849 0)
(0.0682662 0.839175 0)
(-0.0768723 0.984792 0)
(-0.232351 0.97677 0)
(-0.389558 0.945201 0)
(-0.548387 0.891001 0)
(-0.707829 0.811953 0)
(-0.865518 0.703835 0)
(-1.01654 0.561136 0)
(-1.15198 0.378085 0)
(-1.25775 0.150991 0)
(-1.31512 -0.118166 0)
(-1.30344 -0.417346 0)
(-1.20607 -0.72223 0)
(-1.02199 -1.00321 0)
(-0.770436 -1.23281 0)
(-0.476333 -1.39122 0)
(-0.160965 -1.47132 0)
(0.16099 -1.47131 0)
(0.476357 -1.39121 0)
(0.770459 -1.23279 0)
(1.02201 -1.0032 0)
(1.20609 -0.722211 0)
(1.30345 -0.417326 0)
(1.31513 -0.118148 0)
(1.25775 0.151006 0)
(1.15198 0.378097 0)
(1.01654 0.561146 0)
(0.865513 0.703842 0)
(0.707824 0.811958 0)
(0.548383 0.891004 0)
(0.389555 0.945204 0)
(0.232349 0.976771 0)
(0.0768716 0.984793 0)
(-0.0851366 1.14776 0)
(-0.257872 1.14227 0)
(-0.43447 1.11355 0)
(-0.616201 1.06227 0)
(-0.803565 0.985084 0)
(-0.995678 0.875612 0)
(-1.1885 0.724669 0)
(-1.37159 0.520804 0)
(-1.52418 0.2533 0)
(-1.61369 -0.0821469 0)
(-1.59935 -0.472741 0)
(-1.44766 -0.885631 0)
(-1.17946 -1.2505 0)
(-0.852948 -1.53127 0)
(-0.509685 -1.72036 0)
(-0.168848 -1.81314 0)
(0.168874 -1.81313 0)
(0.509712 -1.72035 0)
(0.852975 -1.53126 0)
(1.17949 -1.25048 0)
(1.44768 -0.885606 0)
(1.59936 -0.472715 0)
(1.61369 -0.0821229 0)
(1.52418 0.25332 0)
(1.37159 0.520819 0)
(1.18849 0.72468 0)
(0.99567 0.87562 0)
(0.803558 0.985089 0)
(0.616195 1.06228 0)
(0.434466 1.11355 0)
(0.257869 1.14227 0)
(0.0851356 1.14776 0)
(-0.0923834 1.32685 0)
(-0.280464 1.3255 0)
(-0.475088 1.30282 0)
(-0.679419 1.25943 0)
(-0.896307 1.19096 0)
(-1.12765 1.08871 0)
(-1.3716 0.938377 0)
(-1.6147 0.71763 0)
(-1.82011 0.39731 0)
(-1.91885 -0.041888 0)
(-1.82116 -0.579339 0)
(-1.51223 -1.1442 0)
(-1.11347 -1.62215 0)
(-0.735154 -1.93328 0)
(-0.416052 -2.09749 0)
(-0.134159 -2.16752 0)
(0.134178 -2.16752 0)
(0.416073 -2.09748 0)
(0.735178 -1.93327 0)
(1.1135 -1.62213 0)
(1.51226 -1.14417 0)
(1.82118 -0.579302 0)
(1.91886 -0.0418541 0)
(1.82011 0.397337 0)
(1.61469 0.717649 0)
(1.37159 0.938388 0)
(1.12764 1.08872 0)
(0.896297 1.19096 0)
(0.679411 1.25943 0)
(0.475082 1.30282 0)
(0.280461 1.32549 0)
(0.0923822 1.32685 0)
(-0.0977554 1.51934 0)
(-0.297482 1.52397 0)
(-0.506796 1.51129 0)
(-0.731238 1.48222 0)
(-0.976915 1.43193 0)
(-1.25 1.34959 0)
(-1.55195 1.21226 0)
(-1.86037 0.970731 0)
(-2.09232 0.555063 0)
(-2.08721 -0.0664886 0)
(-1.72936 -0.90591 0)
(-1.22133 -1.6394 0)
(-0.842555 -2.02453 0)
(-0.552715 -2.22444 0)
(-0.31348 -2.32906 0)
(-0.101444 -2.37417 0)
(0.101456 -2.37417 0)
(0.313493 -2.32906 0)
(0.552731 -2.22443 0)
(0.842575 -2.02452 0)
(1.22136 -1.63937 0)
(1.7294 -0.90586 0)
(2.08723 -0.06644 0)
(2.09232 0.555101 0)
(1.86035 0.970755 0)
(1.55193 1.21227 0)
(1.24998 1.3496 0)
(0.976901 1.43193 0)
(0.731227 1.48222 0)
(0.506788 1.51128 0)
(0.297478 1.52396 0)
(0.097754 1.51933 0)
(-0.100269 1.72051 0)
(-0.305831 1.73311 0)
(-0.523983 1.73484 0)
(-0.762917 1.72763 0)
(-1.03255 1.70734 0)
(-1.34421 1.66063 0)
(-1.70317 1.54306 0)
(-2.05564 1.24687 0)
(-2.20389 0.636396 0)
(-1.89195 -0.410327 0)
(-1.3333 -1.45687 0)
(-0.9503 -2.01391 0)
(-0.686277 -2.29471 0)
(-0.46477 -2.44881 0)
(-0.267993 -2.52797 0)
(-0.0879391 -2.56157 0)
(0.0879478 -2.56157 0)
(0.268003 -2.52797 0)
(0.464782 -2.4488 0)
(0.686291 -2.2947 0)
(0.950319 -2.01389 0)
(1.33332 -1.45683 0)
(1.89199 -0.410247 0)
(2.20389 0.63645 0)
(2.05562 1.2469 0)
(1.70314 1.54308 0)
(1.34419 1.66063 0)
(1.03254 1.70733 0)
(0.762904 1.72762 0)
(0.523974 1.73483 0)
(0.305825 1.7331 0)
(0.100268 1.7205 0)
(-0.0989017 1.92374 0)
(-0.302248 1.94594 0)
(-0.520577 1.96609 0)
(-0.764335 1.9885 0)
(-1.04653 2.01086 0)
(-1.38391 2.01199 0)
(-1.77913 1.89806 0)
(-2.09511 1.4769 0)
(-2.00537 0.45979 0)
(-1.47073 -0.991801 0)
(-1.06841 -1.85057 0)
(-0.83692 -2.27283 0)
(-0.657924 -2.50456 0)
(-0.459113 -2.64791 0)
(-0.266859 -2.71142 0)
(-0.0884809 -2.73717 0)
(0.0884875 -2.73717 0)
(0.266867 -2.71142 0)
(0.459123 -2.6479 0)
(0.657934 -2.50455 0)
(0.836929 -2.27281 0)
(1.06843 -1.85054 0)
(1.47075 -0.991734 0)
(2.00539 0.459891 0)
(2.0951 1.47695 0)
(1.7791 1.89807 0)
(1.38389 2.01199 0)
(1.04651 2.01085 0)
(0.76432 1.98849 0)
(0.520566 1.96608 0)
(0.302242 1.94593 0)
(0.0988997 1.92372 0)
(-0.092796 2.12048 0)
(-0.283886 2.15341 0)
(-0.490851 2.19483 0)
(-0.72496 2.25194 0)
(-0.999806 2.32461 0)
(-1.33651 2.36753 0)
(-1.71024 2.21061 0)
(-1.90649 1.57108 0)
(-1.59374 -0.0643513 0)
(-1.1988 -1.35251 0)
(-0.948118 -2.08943 0)
(-0.835805 -2.4244 0)
(-0.680426 -2.6848 0)
(-0.477739 -2.84523 0)
(-0.274021 -2.89829 0)
(-0.0910203 -2.91701 0)
(0.0910244 -2.91701 0)
(0.274026 -2.8983 0)
(0.477747 -2.84523 0)
(0.680432 -2.68479 0)