/*--------------------------------*- C++ -*----------------------------------*\
  =========                 |
  \\      /  F ield         | OpenFOAM: The Open Source CFD Toolbox
   \\    /   O peration     | Website:  https://openfoam.org
    \\  /    A nd           | Version:  9
     \\/     M anipulation  |
\*---------------------------------------------------------------------------*/
FoamFile
{
    format      ascii;
    class       volScalarField;
    location    "47";
    object      p;
}
// * * * * * * * * * * * * * * * * * * * * * * * * * * * * * * * * * * * * * //

dimensions      [0 2 -2 0 0 0 0];

internalField   nonuniform List<scalar> 
918
(
0.56168497
1.7225495
0.011732672
0.55000288
-0.0093411801
1.6932249
-0.94451756
1.2085642
0.59305821
-0.23168563
-0.061381646
0.67941837
1.56459
1.3227967
-0.67214589
-0.031295236
1.0391718
-0.72402528
0.61118922
-0.080784822
1.2754876
0.53303782
0.55898917
0.53226827
0.79494883
1.2797035
1.4277975
0.0078626546
0.002755955
-0.011012014
-0.0064942054
-0.05616104
-0.039453089
1.5695011
1.6235225
1.6472051
0.53770071
0.59965096
-0.75728813
-0.84046845
-0.82356698
-0.99279318
1.195251
1.1869053
-0.47672624
1.2190053
1.2282848
0.54325435
0.5910249
0.60491779
0.52969964
0.56518531
0.57883631
0.46891664
-0.25379139
-0.30882405
-0.19576113
-0.16564112
0.044103224
-0.058662816
-0.065437395
-0.048655434
-0.046627172
0.49898855
0.66785311
0.65350933
0.68931917
0.70717946
1.6596452
1.6230924
1.6500685
1.5968841
1.5871909
1.544421
1.5075584
1.3621206
1.3697453
1.3196137
1.2820431
-1.1823459
-2.1897984
-0.11542521
0.17682044
-0.005200435
-0.017974528
-0.0047651394
1.0224869
1.0041859
1.066772
1.0921467
1.3053228
-0.69874997
-0.89490195
0.6144191
0.61207519
0.5914053
0.57362962
0.61989775
0.66559415
-0.058901538
-0.05568629
-0.093978897
-0.074115168
-0.07992386
1.2482206
1.2557528
0.54741037
0.55251728
0.7205252
0.75581883
0.74317353
0.28272402
0.7827252
0.79455152
1.1080455
1.2885254
1.2912275
1.2768365
1.4141803
1.369819
1.4743834
1.4999111
0.029746706
0.0019728138
-0.01627947
-0.032573706
-0.014852032
0.54411636
0.53660952
0.62088623
0.54147927
0.54953049
0.54703277
0.41123326
0.6879267
0.69853411
-0.63951736
-0.69811631
-0.81766103
-0.86020897
-0.98605542
0.972375
1.1708525
1.1556536
-0.52178855
-0.41292001
-0.57779332
-0.32632351
-0.37367812
0.54824504
0.55433546
0.54930551
0.54715305
0.54742881
0.54940054
0.58640541
0.58259555
0.59976722
0.54358711
0.68438367
0.41466572
0.35506373
-0.50429023
-0.34269569
-0.47539611
-0.14540304
-0.12191202
0.070954586
0.11822261
0.049839652
0.047063793
-0.10614955
-0.077128091
-0.087255809
-0.045876918
-0.045962529
0.48614379
0.47421078
0.50920635
0.51810227
0.64003533
0.63941032
0.65019387
0.64777387
1.4335395
1.4571971
1.5018693
1.464771
-3.5242002
-6.1248152
0.489388
0.66140822
-0.010223118
-0.0083548566
0.004389187
-0.0016180725
0.0011754693
-0.0093225046
0.0085039443
0.0013821706
-0.003725109
0.0034633889
0.97561028
0.96367846
1.2575858
1.2989749
1.1672289
1.1539235
0.62027758
0.61732933
0.62306701
0.61454982
-0.046782742
-0.050434013
-0.047190107
1.2355725
1.2477529
1.2435654
0.1931127
0.097582631
0.33133633
0.3796225
0.91335317
0.84682096
0.8934508
1.1804382
1.2126024
1.4892934
1.5013146
1.539258
1.5359966
1.5842706
1.5765721
1.5350555
0.52126528
0.53394942
0.53187203
0.61754449
0.62236615
0.62167054
0.63243903
0.63204093
0.6286591
0.25223865
-0.07369842
0.77712155
0.76449913
0.74164956
0.73731373
1.0448751
1.1335753
1.1064067
1.1397189
1.1253011
-0.22632134
-0.24902574
0.28621158
0.25670382
0.40903766
0.45373394
0.4369198
1.4075944
1.4076877
1.4542688
1.4164376
1.3577767
1.3806836
-0.099257505
-1.2308385
-0.63036348
1.0445857
0.83479559
0.93397778
0.0095109293
0.0083298552
-0.013549479
1.277273
1.341039
0.74673178
1.0024905
0.99992817
1.2563998
1.2782848
1.3512518
1.2787229
1.3039866
1.326504
1.309268
0.91684266
0.81831473
0.84701235
1.1726902
1.2192371
0.0095036418
-0.11336718
-0.11778578
0.13099738
0.18956444
0.15360301
1.3074204
1.2572985
1.3236274
0.55929704
0.55228454
-0.0010504881
0.00016477852
0.61237383
0.58968447
-0.026161173
-0.0081497883
0.91083918
-0.41536959
0.022375677
0.62602072
0.56809593
0.58478279
-0.21750529
0.43115626
-0.053631949
0.041815617
-0.015610131
0.66611077
0.52439933
0.46852484
-0.0086112229
-0.036605225
-0.053477804
-0.42865063
0.56750514
0.54532541
0.5713172
0.55024048
0.58621512
-0.024047109
-0.01839357
-0.0073063595
-0.056156467
-0.048746165
-0.063872997
0.55061659
0.63376469
-0.35597086
0.59299937
0.58576976
0.59920407
0.57349561
0.62781182
0.58423696
-0.0140803
-0.014439212
-0.0089186025
0.21110384
0.38912576
1.2092633
1.3353716
1.2417852
0.86727464
0.55059008
1.0768608
1.1666388
1.0425784
1.2022204
1.1801817
1.221731
0.13929641
-0.10865487
0.14873938
0.020743467
0.61833788
0.62334446
0.56259883
0.55467003
0.59415264
0.56865263
0.59766095
0.60731374
0.60604003
0.61970447
-0.14955467
-0.17643843
-0.20536318
-0.31946098
0.44841483
0.72453132
0.34042238
0.37689962
0.16984332
-0.053030039
-0.047857625
-0.058871628
-0.070320097
0.0024691933
-0.044076883
0.060649141
0.063207745
0.037689193
-0.009013469
-0.020543818
-0.045029591
-0.0095112082
0.61619724
0.6290361
0.66393187
0.68596313
0.52355673
0.52094162
0.48128963
0.52269739
0.49290637
0.39888885
0.47140194
0.42589546
-0.013043122
-0.012789208
-0.01448664
-0.023939428
-0.0084491169
-0.021299413
-0.026332236
-0.023489223
-0.026496013
-0.033038738
-0.052789783
-0.054589669
-0.36435509
-0.55007682
1.2161419
1.0560468
0.28087357
0.54166755
0.54339239
0.52773995
0.58001621
0.56693336
0.56586234
0.56506268
0.56177218
0.58787597
0.59717287
0.62867034
0.63627262
-0.24316982
-0.49594189
-0.23166297
-0.3547636
0.47289663
0.93892131
0.39825129
0.28652361
0.29311876
0.75435471
1.4656518
1.3072385
1.2683261
1.2398764
-0.075269295
0.36776957
0.10185131
0.75915303
1.00069
1.1848882
1.2375987
1.2404853
1.2112669
1.154473
0.06499095
1.0689685
-0.23437512
-0.16206787
0.25867935
-0.024824992
1.1978645
1.1435102
1.1317604
1.2093498
1.2364789
1.1756689
1.1527477
1.1577522
1.1910314
1.1875621
0.91247227
0.26686692
0.15449613
0.10800619
1.070066
0.9636145
1.0481077
0.82400662
0.60774921
0.6271337
0.61207966
0.5261212
0.55474379
0.52748082
0.58828068
0.62654866
0.61133552
0.5896541
0.60620069
0.57987391
-0.12934294
-0.13126661
-0.082260287
-0.28865929
-0.28103424
-0.40684242
-0.14652761
0.085744825
0.044813835
0.29819869
0.457203
0.035745612
-0.15397434
-0.099520399
-0.0032702257
0.21365979
0.25653923
0.099627705
0.1707166
0.1555583
0.12774236
0.27645587
0.28145713
-0.023345098
-0.018649355
-0.052196747
-0.041823184
0.030676341
0.13554668
0.13834332
0.00049534547
-0.017701214
-0.045108991
-0.044076156
-0.0062562757
-0.047946846
-0.019663034
-0.0094131202
-0.026340098
0.0048187276
8.3690511e-05
-0.0089075118
0.010257233
0.0017115387
0.64637998
0.63313725
0.63449517
0.71368082
0.69738629
0.72151165
0.71139552
0.54864264
0.53632688
0.54045704
0.53726113
0.52571219
0.5389611
0.56877721
0.63042193
0.64965889
0.61769653
0.59817136
0.61456104
0.5794925
0.5648501
0.5717447
0.55929898
0.49311022
0.49451711
-0.029259943
-0.0055497406
0.0098052396
-0.064880802
-0.001587399
-0.02174824
-0.0062035846
0.028849465
-0.016626185
0.0060236246
-0.0047173154
-0.022315694
-0.014971992
-0.15116717
0.016230044
-0.41141963
-0.44576268
-0.57321473
1.1132329
1.2744894
0.99701149
0.72987429
0.76960912
1.0486778
1.1838409
0.67950465
0.81809815
0.93039518
0.93503538
1.159507
0.5712349
0.56035414
0.57172586
0.54609237
0.58169909
-0.0065304105
0.2460875
0.1141846
0.33787741
0.59212179
0.6360064
0.46160696
0.4086424
0.55464323
0.44780335
0.95313329
0.98636184
0.83591658
0.89315382
0.85071791
0.56838446
0.8011127
0.93826935
0.81535632
0.84640536
0.88853561
0.8514157
0.90679992
0.79735074
0.68677743
0.72336149
0.50012765
0.58497348
0.53290634
0.47289919
0.64665082
0.60273907
0.65167794
0.61817935
0.67882283
0.75898198
0.74299653
0.73950828
0.77358486
0.65409556
0.5826077
0.60081636
0.67284557
0.55173882
0.57801222
0.61935508
0.4902585
0.49873942
0.3712952
0.28297298
0.33215655
0.18934762
0.15889642
0.21201743
0.51928451
-0.092711076
-0.095233892
-0.46053606
0.95673936
1.4718909
1.0765708
1.0470889
1.2351837
1.2097938
1.201476
1.2440303
1.2429245
1.0759117
1.1176635
1.1063374
1.0906761
1.1344825
1.1987715
1.1807355
1.0042957
0.66798123
0.6451025
0.56061027
0.2453642
0.35746591
0.76908315
0.60687973
0.43415041
0.40276643
0.71203964
0.44318705
0.58061436
0.73806531
0.54718993
0.43781902
0.90671502
1.0237158
1.0149769
0.96743553
0.81994662
0.88123553
0.96335001
1.028513
1.0611017
1.1331152
0.55604165
0.57992693
0.57050601
0.54761702
0.57658896
0.59701449
0.59946677
0.59172953
0.59598942
0.60556876
0.61662745
-0.073173709
-0.062886393
-0.10081241
-0.09477779
-0.053274703
-0.081553914
0.0073945932
-0.02594052
-0.040260713
-0.037088275
-0.068016589
-0.088892234
-0.07982519
-0.055644438
0.14144501
0.19076003
0.13332383
0.11098729
0.35141982
0.47255267
0.52938243
0.45494705
0.26730355
0.29323552
0.36087632
0.015758761
0.036083406
0.045474352
0.070983158
0.0696735
-0.04748182
-0.050140136
-0.042565981
-0.046995542
-0.02210767
-0.040277859
-0.046857948
-0.0358804
-0.034855887
-0.040538275
-0.04949796
0.5437728
0.54962243
0.59204013
0.5480269
0.54977924
0.6003339
0.58269453
0.60184737
0.61385517
0.63481146
0.60196892
0.62879628
0.6299736
-0.023841826
-0.027927347
-0.045037282
-0.036439923
-0.029231015
-0.025706548
-0.033972348
0.2992861
0.14898085
0.19355499
0.04119304
-0.22864256
-0.11660351
0.67502571
0.8130683
0.80710395
1.0284923
0.81101081
0.76881848
0.91974954
1.0422667
0.45717017
0.68794064
0.50751503
1.1419067
1.0577106
1.2243076
0.77709508
0.49496673
0.73964843
0.82192894
0.53400962
0.64049655
0.55938986
0.36312454
0.43047392
0.51031475
0.68763936
0.48996043
0.5519306
0.47620325
0.4933843
0.54619167
0.56694584
0.64850399
0.70441401
0.41311547
0.38638155
0.31557058
0.96875413
0.98994693
1.0152236
1.0243884
1.0339515
0.79745859
0.79339859
0.83296333
0.80741192
0.77841401
-0.2788332
-0.3616174
-0.73324188
-0.21730932
0.40793112
1.008522
0.89968083
1.3910025
1.1300816
1.2729318
1.2120938
1.1803596
1.1000744
1.1194261
1.1784954
0.56600236
0.76806005
0.75355852
0.68743939
0.47315639
0.37427676
1.0150662
0.98778179
1.0644498
1.0960422
1.0289322
1.1029958
0.57854787
0.59638221
0.57194777
0.58358625
0.55967817
0.57309302
0.05487871
-0.0072516025
0.12095479
0.10064426
0.010545568
-0.022692941
-0.01581656
-0.013901979
-0.034574602
-0.02775931
-0.011118618
-0.011609182
0.3485155
0.28409915
0.061967565
0.18442201
-0.02540237
-0.13568551
-0.20335824
0.019990183
0.19821094
0.19500592
0.58537887
0.86227469
0.71292946
0.81951641
0.64219886
0.75352225
0.75322169
0.70345251
0.74332492
0.63251666
0.64714406
0.71763823
-0.081814258
0.23753622
1.4298626
1.3953638
1.0121914
0.87976597
0.81298436
1.0730066
1.0196888
0.85335494
0.95815893
1.0680543
1.0475086
0.47224934
0.43706811
0.86022313
0.99780676
0.57568123
0.44497654
0.41606512
0.60044325
0.66015959
)
;

boundaryField
{
    wall-4
    {
        type            zeroGradient;
    }
    velocity-inlet-5
    {
        type            zeroGradient;
    }
    velocity-inlet-6
    {
        type            zeroGradient;
    }
    pressure-outlet-7
    {
        type            fixedValue;
        value           uniform 0;
    }
    wall-8
    {
        type            zeroGradient;
    }
    frontAndBackPlanes
    {
        type            empty;
    }
}


// ************************************************************************* //
