/*--------------------------------*- C++ -*----------------------------------*\
  =========                 |
  \\      /  F ield         | OpenFOAM: The Open Source CFD Toolbox
   \\    /   O peration     | Website:  https://openfoam.org
    \\  /    A nd           | Version:  9
     \\/     M anipulation  |
\*---------------------------------------------------------------------------*/
FoamFile
{
    format      ascii;
    class       surfaceScalarField;
    location    "47";
    object      phi;
}
// * * * * * * * * * * * * * * * * * * * * * * * * * * * * * * * * * * * * * //

dimensions      [0 3 -1 0 0 0 0];

internalField   nonuniform List<scalar> 
1300
(
1.7582594
5.6264299
-4.9966378
1.7582594
-8.4811161
5.6264299
-5.3619982
5.3619982
-0.5385526
0.5385526
3.7303181
3.6543712
-3.5645912
3.5645912
-3.4545844
3.4545844
-0.44820039
0.44820039
-5.2377242
5.2377242
-5.0578357
5.0578357
4.7107763
-4.7107763
-6.8702397
6.8702397
-0.31286714
0.31286714
-4.6249032
4.6249032
1.5049441
-1.5049441
-3.3824036
3.3824036
0.094669921
-0.09466992
-0.56762891
5.1391032
1.1906305
1.1906305
-0.18194547
0.18194547
-4.8662819
4.8662819
6.2140733
-6.2140733
7.7726215
-7.7726215
-2.7759838
-3.3917487
1.9762777
-12.526437
-6.5048385
-6.5048385
-8.4382638
8.4382638
-2.8118338
2.8145961
1.5153198
-1.5153198
-1.726381
1.726381
-5.3198732
-0.042125051
-5.3198732
5.3726192
-0.010621061
5.3726192
-0.55360657
0.015053964
-0.55360657
4.7630147
-4.7630147
0.487441
0.051111608
0.487441
1.2947633
-1.2947633
-3.7415677
7.4718858
3.6431216
-3.0562081
8.1953113
-3.3907429
7.0451141
-6.5706795
6.5706795
-3.7727431
0.20815188
-3.772743
3.4660373
0.098553893
3.4660373
-7.461929
7.461929
-3.4599962
0.0054117989
-3.4599962
3.4449609
0.0096234879
3.4449609
2.1050659
-2.1050659
-0.55066806
0.10246767
-0.55066806
0.33631446
0.11188592
0.33631446
0.35898159
5.2674484
-5.9854115
8.8000077
-5.2674483
0.029724008
5.2000949
0.037629387
5.2000949
-5.0938958
0.036060104
-5.0938957
5.0160711
0.041764598
5.0160711
4.7906103
-0.079834082
4.7906104
-4.8240449
0.11326855
-4.8240449
-4.0256529
-4.5313524
-7.0435889
0.17334917
-7.0435889
-0.2700172
-0.04284993
-0.27001721
0.43175849
-0.11889136
0.4317585
-4.1485677
4.1485677
-5.0424001
0.41749685
-5.0424001
1.371312
0.1336321
1.371312
2.0087128
2.5627615
3.7669721
-3.7669721
2.262028
-3.3751654
-0.0072381354
-3.3751654
-3.4519691
-4.3206525
3.4519691
-0.069565445
-0.2999872
0.39465713
-0.29998723
1.2533496
-0.062719137
1.2533496
0.24115973
0.095154737
-0.2411597
0.059214217
3.3752819
-3.3752819
-0.16755771
0.3495032
-0.16755772
-5.5692677
5.5692677
4.958749
0.057322118
-4.9587491
0.092467186
6.1532585
0.060814849
6.1532585
-6.1926355
-0.021437843
-6.1926355
3.4321625
-6.8239112
-3.517507
6.6889375
0.18130223
-6.6889375
0.18409898
1.6310035
-0.11568376
1.6310035
-1.0156339
1.0156339
-1.468376
-0.046943798
-1.468376
-2.0546755
0.32829451
-2.0546755
1.4648589
0.26152207
1.464859
-5.1561885
-0.16368471
-5.1561885
-5.279552
0.23715192
5.279552
0.093067182
1.4454767
-1.4454767
-0.53436222
-0.019244346
-0.5343622
-4.9410351
-0.21515345
4.9410351
-0.1780204
-4.6428167
-0.12019807
-4.6428167
-1.3724282
-0.095947787
1.3724282
-0.077664893
1.2899868
-0.036637203
-1.2899868
-0.0047764835
-3.0484945
5.6112561
-3.3984565
7.0415781
-6.1875573
-0.38312223
-6.1875573
6.9108138
-0.34013423
6.9108137
4.1978754
0.42702786
-4.1978754
0.42513233
3.440575
0.025462266
3.4405751
-7.435238
-0.026690983
-7.435238
7.4630673
-0.0011383709
7.4630674
3.4500655
-0.0094904116
-3.4500655
-0.0099306961
3.4207642
0.024196671
3.4207642
2.3035316
-0.1984657
2.3035316
-1.9231641
-0.18190185
-1.9231641
0.85287422
-0.85287422
0.74749618
0.10537803
-0.74749615
0.19682809
-11.148741
11.127304
-0.035752438
-11.112989
5.1643424
5.1643424
3.9934871
0.79712316
3.9934872
-5.0260914
0.20204649
-5.0260914
3.4937618
-7.0112688
3.8602901
-7.885943
5.0648348
-17.591272
4.7072617
-9.2386141
7.3023037
-7.3023037
7.1797079
0.12259583
-7.1797079
0.13611894
-0.1902718
-0.079745409
-0.1902718
-3.5355344
-0.61303334
-3.5355344
4.8077864
-0.65921869
4.8077864
-1.2616619
1.2616619
-1.2996694
0.03800747
1.2996694
0.071642659
3.3945736
0.026190679
-3.3945736
0.019408157
0.42225135
0.065189645
-0.42225133
0.1222641
3.8433594
-0.46807746
3.8433594
-2.8925433
-0.48273864
-2.8925433
-0.021232932
-0.16903887
0.021232945
-0.18879066
-5.8170269
0.2477592
-5.8170269
-11.21344
0.10045071
-11.17581
-6.0921848
-6.0921848
2.3460789
11.146086
-1.7764807
-0.14668337
1.7764807
-0.14547724
1.1926883
0.068973571
-1.1926883
0.17705435
-0.92044711
0.067572876
0.92044712
0.095186789
-2.4769714
0.42229593
-2.4769714
-1.216166
1.216166
-1.287799
0.071632967
1.287799
0.17705997
1.7625741
-0.3170974
1.7625741
0.49666336
-0.064904857
-0.4966634
-0.037698803
-4.4616839
-0.18113282
-4.4616839
7.1718312
-0.26101745
7.1718312
-2.5765643
-0.31597903
2.5765643
-0.27303265
-0.035147634
11.162451
-5.1291948
0.035299092
5.1291948
-11.223266
11.258565
-3.0513053
0.57433392
3.0513053
0.94218193
5.2970463
0.27222139
-5.2970463
0.27095492
7.3947102
0.068357165
-7.3947102
0.092406496
-3.0343008
-0.50123359
-3.0343008
-5.5500228
-0.6375346
5.5500228
-0.74223637
-11.475016
-0.1976059
11.672622
-11.433251
6.0146328
0.13862577
-6.0146328
11.397191
-1.2608361
-0.18464068
1.2608361
-0.044670099
2.112957
-0.35038287
2.112957
4.2305125
-0.38715312
-4.2305125
-0.23117142
-7.3284465
-0.10679146
7.3284465
-0.15661534
-2.5523727
-0.48192811
2.5523726
-0.43941562
-5.3440693
5.2813502
2.851242
-3.3082819
-3.5156292
-7.6289344
2.5333263
3.0779298
4.7953543
-11.038199
-6.5530727
-10.8541
7.2642876
-6.9933326
-9.4184022
9.3385679
10.977389
-11.097587
-7.2425804
7.3142231
8.7608141
-8.838479
3.8099964
3.6618894
10.669727
-10.461575
-16.793124
16.410002
10.050384
-10.044972
17.124908
-17.151599
-19.386807
19.455164
-7.0295377
7.1320053
-9.6333247
9.4514229
-10.09587
9.8228376
-3.6307068
-4.2552361
14.273092
-14.099743
11.705923
-11.713162
-11.574473
11.99197
4.0542935
1.2270567
4.0176563
-3.6047507
7.4147471
-3.4403634
6.2916054
3.618136
-7.2488429
3.3931328
-6.908762
6.0105217
5.6954017
-5.9409563
-1.6879781
-8.2901042
8.1744204
-7.2673317
7.3625185
12.43609
-12.478215
-3.6175278
7.2794172
-3.4240503
6.50198
-3.6641987
-3.5783817
3.5305666
1.2647877
8.7892289
5.4838628
-8.970531
-1.8835691
-11.608084
11.220931
-12.153302
11.670563
-0.43796797
5.7870272
-5.3490592
4.4283139
-1.4900384
7.2770655
5.7742492
5.9762957
5.8658786
-5.5936572
1.127454
-6.4765132
-6.384046
-2.4269422
2.4076979
2.3362208
-2.2851092
8.3550522
2.6223364
8.1770318
-7.963126
-3.1344605
-8.1442588
4.3412074
2.9730156
4.3792149
5.2855598
3.4752544
5.189612
5.8290099
-5.9798753
0.15086538
-5.4879279
11.316938
1.2995419
-9.0663097
-7.8015219
6.7503602
3.9193668
6.8489141
-7.3357494
-3.1258256
-6.9106171
-10.211591
-6.5815332
-10.849125
10.967462
5.4425401
10.627327
-12.932587
12.775972
6.5786164
3.4717673
6.5882399
-6.5846116
-3.4603603
-6.5945422
13.49951
-3.2067646
-10.292746
-11.203421
-8.183386
11.204559
5.920349
11.927937
7.5272264
12.020344
4.9262
8.5733101
-10.846549
2.663163
-4.3509111
-2.6786266
-4.154083
4.1652929
2.9667125
4.2771788
-5.6247938
-4.0085309
-5.7714772
-5.7392637
-4.3566065
5.9377294
3.5136934
-6.0430242
-6.1102775
6.3590032
3.4638344
4.4176442
-10.970717
4.82097
-9.0762061
-10.007345
-4.0923973
-9.8712263
4.5895817
3.0957178
-7.6852995
-2.6592612
11.256001
-5.5605996
9.5680232
-7.189507
-4.5236546
-7.1700988
-9.2034282
-2.3710448
-8.9662763
-9.4689496
8.967716
-9.8790073
9.2197887
13.895357
-6.8996381
-6.9957192
-4.8925434
-3.9459356
4.8973199
-0.87966357
-7.1914035
7.3422689
0.22334358
6.514949
7.7420057
6.8623421
-4.3986932
-2.8686385
-4.2216389
4.3303775
3.0321409
4.3979504
9.2563184
3.1797711
9.2456974
-8.8825859
-3.5956286
-9.0462707
9.4225051
-9.0942105
2.4782947
-2.6473336
7.6957496
3.9748134
-7.2276722
-4.3804121
9.5763983
-4.5186084
-5.0577899
-12.078159
10.574264
1.5038952
-4.8010931
-0.37277915
-0.46744907
-5.5489737
-3.8694284
5.435705
0.54059071
11.114854
7.2454258
-5.5151378
5.762897
6.1574841
6.2148062
-0.16923976
5.9902962
-5.4159623
6.8763017
-3.6299703
-3.2463314
7.3100599
-7.5252133
-1.7362108
-8.0148479
6.2786371
0.65181847
1.7723579
-1.3777007
-1.6646798
-0.76226237
-1.7023786
1.3791619
0.95705889
1.4443516
0.87196756
1.5357304
-3.4411608
0.73432483
2.706836
-2.5691933
-1.5507844
-5.1961389
-2.065377
7.2615159
8.1233128
3.0976184
-7.8921414
-0.25211744
2.3328914
-2.4517828
-0.69142542
-4.5047135
3.0059361
-3.6973616
-6.0621844
-2.492487
8.5546714
-3.6420595
-0.57957943
3.5730859
0.80612899
-4.8396409
-3.4504633
4.8865848
0.30302722
-5.4630084
11.053245
-5.5902362
-8.3316469
4.4503439
6.8665939
7.4233596
-9.1659436
4.834967
4.3309766
-2.2993497
5.7842598
1.0646543
5.8097221
-9.5374142
6.4115886
7.7457668
4.2462032
-8.1727946
1.2621775
-8.2752367
11.064979
-9.7481037
-1.3168751
5.4510914
5.6138874
7.5428625
6.3524948
-5.9525548
13.495417
-1.6360485
-8.1120552
9.9112853
-5.6650821
6.6710263
-12.336108
-13.023521
4.911466
-9.9423597
12.09342
-2.1510601
-3.8878034
-9.0447839
13.830163
-1.3215259
-12.508637
9.3058014
-5.6867432
-5.5504107
11.237154
-8.8935077
9.010771
-2.6962405
-6.3145305
-10.917039
-6.2345598
11.023831
1.7521415
-11.917013
14.580176
-3.3437029
5.697537
0.89070282
5.7217337
4.3351606
-7.0169047
2.6817441
4.5583471
-7.2545876
2.740285
-9.7571897
-7.2584009
13.350912
-6.0925107
-11.350798
-10.31215
-1.0386484
2.7871583
11.793018
-10.314385
8.0404364
2.2739483
3.5206729
0.87727752
-3.6260509
-0.52803213
0.40414743
6.8748973
-7.2790448
4.6813262
4.776481
5.0223855
1.8525118
5.2041117
2.9703088
-5.0586344
-0.71284278
-6.7240095
2.3674031
-3.2103161
-6.7243223
9.0917254
-7.3077384
0.5834161
-4.5282957
-6.1397025
10.667998
-7.2069223
5.1716229
5.8816217
8.2037638
-8.8507648
2.7110623
-4.3504687
-4.500296
4.5966762
-7.8069923
3.5341499
5.5575755
6.9979843
0.88770678
6.5912932
6.7596184
-9.6870109
0.61080487
12.243481
-10.359912
2.6911008
9.3292431
-10.731537
0.41938748
-9.4518389
1.2326261
-6.7932256
-6.4526734
7.2374644
-9.6085092
-5.098644
8.3306843
0.91501304
-8.4237516
-0.54252474
-6.4633818
-3.0055678
-6.9453099
-3.2860505
-6.5929568
-9.2386054
-1.761726
-7.4768794
7.2059901
-7.200664
-3.6484613
7.9429003
1.2768883
-7.9274609
7.7428202
-7.9806053
7.6302224
0.3039663
7.0383026
7.1663084
3.2203728
-4.7389529
7.9593257
-7.1650992
10.34487
-12.31737
5.1522704
6.1398635
-9.7354922
-6.1775061
5.3957928
4.0267123
5.6573149
9.2285418
-10.583315
1.3547728
-10.816719
12.421441
-1.6047223
-16.801848
5.9851287
-7.5733058
2.3134844
0.1648103
2.233739
0.75734068
2.8528512
-3.6101919
-1.8899929
-2.0787836
-3.838283
-5.7882348
9.6265178
1.8574474
-5.3776127
3.5201653
-4.7315012
6.5889486
0.05850998
-5.4361226
7.1400963
-4.2872451
7.3049066
-4.6729913
2.6319153
5.2891532
9.2744056
-3.9852524
7.041642
-3.0668286
3.127005
-7.1122574
-2.6612298
-4.8791103
7.8458227
-5.7888878
6.3723039
-0.56677797
6.9390819
-5.875677
1.3570686
-0.85329153
3.9231895
3.9824037
7.1424607
-5.289949
5.0275866
-8.0944152
-2.0846708
-7.2067084
-1.6491329
-0.3828437
-4.9852491
5.3680928
6.5789146
-6.9617583
-5.2874799
9.6171164
-4.3296365
7.9690985
-5.4796623
-2.4894362
-4.4851931
-4.6090175
4.0628973
1.9273989
9.8964973
0.26119333
-5.7408556
-5.154769
-4.2125871
4.1501143
2.7261873
-2.0138874
3.5177828
2.4813365
-0.70897863
0.50287273
0.94147883
2.0485267
-1.545654
0.31395782
1.7345689
-1.0637429
1.6954227
0.63746874
-1.6305178
-0.071860739
-1.4000863
4.4060225
1.3067497
-2.2638086
0.71815462
1.3790965
-5.0090668
7.4398673
-4.0437012
-3.3961661
8.8189638
1.5438569
-5.587558
6.4709912
-5.8191727
3.3780919
-5.4434689
-2.2094661
-8.0286387
-5.4063024
-4.3130465
7.8332118
-5.3134713
8.4110897
1.7710273
-8.1589723
9.9299996
-4.8382359
2.345749
-4.1217344
4.7592031
-1.7507127
-2.3710216
4.3704725
4.1841989
-4.3747467
-0.12996677
-0.0042742195
3.116137
-3.1204112
-0.58122454
-3.1504178
-7.6779007
7.9809279
-3.7566794
8.5916463
4.2026463
-3.6492388
12.240885
3.1394683
-6.7887071
-5.1921786
-5.7717581
-2.4577305
4.9656291
-0.92932803
-5.6652142
-7.2438585
5.6747046
0.13501751
-9.4174858
10.558489
-1.1410033
-5.498119
-0.91346951
6.3645609
-7.9823536
0.72776605
-5.2420686
5.3164205
6.3810749
6.5160924
-12.248659
-0.25997864
-6.8061186
1.3307835
-8.136902
6.9446709
-3.7403846
8.6518506
-11.031921
7.3834598
-9.7550328
7.3349755
-0.80192654
7.3028572
-4.6211131
2.9898884
-9.2244482
-7.4723067
7.171076
-3.6993087
8.0617789
-4.1941424
12.255921
-7.5378452
7.0133118
5.2426094
-1.3776655
-5.7924333
-6.9688029
5.5911374
0.044508896
5.7662426
8.0789222
-5.1086134
7.3660794
4.4494438
-8.7999126
-3.3575485
-11.954122
3.1542092
-6.0725001
-3.2832652
6.4374744
4.9204986
5.7977761
1.9371784
-5.269744
8.4718115
-9.5104599
-2.3793009
-4.0733726
6.9277932
-1.3366558
4.389087
-8.4624596
-2.4041386
5.7126056
-0.61901847
-5.0935871
1.1870324
-6.2856764
2.3783343
-8.6640108
7.2301748
-7.7726996
2.3387904
-9.9120961
-5.5886706
-5.6333407
-2.4107164
-5.5698888
-7.8409628
5.4302464
-1.8558341
5.8869862
-8.7385436
8.1195252
-3.6828976
9.113144
-5.8115781
-1.1337317
6.2509937
1.3792287
10.492373
0.52012296
-6.6976291
-2.8145939
5.2254759
-2.410882
1.3355203
-4.4651261
0.76034982
3.5632786
5.2556852
-9.8419158
0.10642364
-6.5912054
-4.1181728
8.1448852
5.4989436
12.077858
1.4945437
9.27107
-1.1261848
10.765614
4.5311302
4.7081901
-4.0488796
5.4036525
1.3192132
6.4714836
-0.80300439
3.4349197
1.4307346
1.3878847
1.0638981
2.5555078
1.4268959
3.9125764
0.3023845
-1.7763991
4.6597545
-8.8723416
-1.081101
-8.0752184
1.2633494
5.8198929
-4.5565435
3.8309791
-1.1047918
1.4200971
-0.26431146
-1.4954076
1.7597191
-3.5106427
-2.2043862
-0.46981733
-2.0506513
2.7688059
2.3553711
-2.2989886
-1.2116541
0.72157576
-6.1278781
4.7218931
-4.8518599
-0.66766096
9.2623387
-3.62894
0.50852883
-1.283191
-2.641889
-3.4041513
3.4760121
11.578255
0.6626304
5.9880185
8.6435583
5.193095
0.084481583
5.0041301
-7.1551903
-4.7530595
-7.415169
-0.4704981
5.8940628
2.2662881
9.5267295
7.5088975
6.1722417
-2.2902179
-11.800678
8.3062042
-2.9025517
6.701482
-1.6078949
-7.0561158
6.9473218
3.3975485
-7.8623348
0.089635269
-6.9664805
-9.8690322
-0.45857257
8.5780978
-10.0338
8.9000685
5.8945008
1.5823786
-4.7578224
-0.87551832
4.6861894
0.022000782
10.787614
-1.2081305
-6.8615923
8.0697229
-4.6117623
3.5306613
0.8889491
2.6288337
2.648668
1.5438761
-5.3177163
-9.8742597
-3.0864536
-1.9226132
-6.4826197
0.7788962
-3.1342673
6.1925353
-2.6618739
3.703099
5.4078489
6.827946
-1.9811265
-4.9806318
6.3107631
-2.607664
4.220282
)
;

boundaryField
{
    wall-4
    {
        type            calculated;
        value           uniform 0;
    }
    velocity-inlet-5
    {
        type            calculated;
        value           nonuniform List<scalar> 8(-1.7582594 -1.7582594 -7.3846893 -4.5714743 -7.3846893 -6.446951 -4.5714743 -6.446951);
    }
    velocity-inlet-6
    {
        type            calculated;
        value           uniform -5.6264299;
    }
    pressure-outlet-7
    {
        type            calculated;
        value           nonuniform List<scalar> 8(4.9966378 8.4811162 6.1677324 10.550159 8.5570054 6.9496696 7.3540519 9.7720965);
    }
    wall-8
    {
        type            calculated;
        value           uniform 0;
    }
    frontAndBackPlanes
    {
        type            empty;
        value           nonuniform List<scalar> 0();
    }
}


// ************************************************************************* //
