/*--------------------------------*- C++ -*----------------------------------*\
  =========                 |
  \\      /  F ield         | OpenFOAM: The Open Source CFD Toolbox
   \\    /   O peration     | Website:  https://openfoam.org
    \\  /    A nd           | Version:  9
     \\/     M anipulation  |
\*---------------------------------------------------------------------------*/
FoamFile
{
    format      ascii;
    class       surfaceScalarField;
    location    "25";
    object      phi;
}
// * * * * * * * * * * * * * * * * * * * * * * * * * * * * * * * * * * * * * //

dimensions      [0 3 -1 0 0 0 0];

internalField   nonuniform List<scalar> 
1300
(
1.7582594
5.6264299
-6.1668066
1.7582594
-6.8600066
5.6264299
-6.137046
6.137046
-1.481766
1.481766
3.7343756
3.6503137
-4.3562802
4.3562802
-3.7916097
3.7916097
-2.0210309
2.0210309
-5.2377122
5.2377122
-5.0569219
5.0569219
4.7550685
-4.7550685
-6.1802849
6.1802849
-2.0320719
2.0320719
-5.4455747
5.4455747
1.4830252
-1.4830252
-4.1500755
4.1500755
-0.36475019
0.36475019
-0.57520133
5.1466757
1.183058
1.183058
-2.2958846
2.2958846
-4.8500273
4.8500273
6.2142685
-6.2142685
9.0562983
-9.0562983
-2.8894917
-3.9048594
1.5597532
-11.214139
-5.3002536
-5.3002536
-8.4382669
8.4382669
-2.811837
2.8145929
1.5781494
-1.5781494
-1.7732486
1.7732486
-6.1158995
-0.021146478
-6.1158995
6.1470578
-0.010011765
6.1470577
-1.6493242
0.16755822
-1.6493242
5.3896863
-5.3896863
1.2781036
0.2036624
1.2781036
1.2533976
-1.2533976
-3.7369155
7.4712911
3.6477738
-3.0523833
8.199059
-3.3945676
7.0448813
-6.5692671
6.5692671
-4.614201
0.25792082
-4.614201
4.1756477
0.18063247
4.1756477
-7.4907804
7.4907804
-3.8256933
0.034083556
-3.8256932
3.8122703
-0.020660597
3.8122703
2.4488684
-2.4488684
-1.875313
-0.14571784
-1.875313
2.1521004
-0.13106955
2.1521004
0.3589831
5.2674468
-5.985413
8.800006
-5.2674468
0.029734625
5.2000706
0.037641574
5.2000706
-5.0935538
0.036631941
-5.0935538
5.0139127
0.043009143
5.0139127
4.8516404
-0.096571901
4.8516404
-4.8563399
0.10127134
-4.8563398
-3.5175569
-5.2791927
-6.6498025
0.46951756
-6.6498024
-2.0364512
0.0043792464
-2.0364512
1.9961379
0.035934021
1.9961379
-4.1367773
4.1367773
-5.8730386
0.42746384
-5.8730386
1.3564899
0.1265353
1.3564899
2.0099879
2.5614864
3.7682473
-3.7682473
2.285222
-4.0134512
-0.13662431
-4.0134512
-4.3504198
-4.7058786
4.3504199
-0.20034441
-0.76942465
0.40467445
-0.76942466
1.2322926
-0.049234533
1.2322926
2.2565318
-0.10443137
-2.2565318
-0.039352812
3.6831137
-3.6831137
1.7748498
0.52103482
1.7748498
-5.5759415
5.5759415
4.952583
0.061329755
-4.952583
0.10255565
6.1538196
0.060448936
6.1538195
-6.192708
-0.021560485
-6.192708
2.9799269
-6.8847864
-4.3465379
5.6861858
0.49409919
-5.6861858
0.38593223
1.7698905
-0.19174112
1.7698905
-1.2997284
1.2997284
-1.4674108
-0.11073855
-1.4674108
-2.105367
0.33211843
-2.105367
1.5045544
0.26869418
1.5045544
-5.9167623
-0.1991372
-5.9167623
-6.0770392
0.20400065
6.0770392
0.070018507
1.4191058
-1.4191058
-1.8012211
0.15189692
-1.8012211
-5.637199
-0.2795633
5.637199
-0.24751277
-5.1927249
-0.19696138
-5.1927249
-1.3414548
-0.12595598
1.3414548
-0.088057282
1.2571666
-0.024874035
-1.2571666
0.0037690779
-3.0525356
5.614022
-3.3944153
7.0421891
-6.1917022
-0.37756485
-6.1917022
6.9037127
-0.33444559
6.9037127
5.0478351
0.39773963
-5.0478351
0.43363407
4.033564
0.14208378
4.033564
-7.4402297
-0.050550711
-7.4402297
7.520038
-0.029257571
7.520038
3.91359
0.11997401
-3.91359
0.087896758
3.868299
-0.056028654
3.868299
2.6827351
-0.23386671
2.6827351
-2.2213889
-0.22747946
-2.2213889
1.5631282
-1.5631282
1.7209941
-0.15786592
-1.7209941
-0.1543189
-11.148725
11.127165
-0.035783949
-11.112941
5.1642867
5.1642867
4.0605715
0.79106895
4.0605715
-5.0463224
0.18998252
-5.0463224
3.0493319
-7.3958697
4.9242931
-8.44185
5.2374545
-16.451593
4.0186241
-9.2978168
7.3111926
-7.3111926
7.0438955
0.26729709
-7.0438955
0.39409308
-2.0031344
-0.033316784
-2.0031344
-3.5145082
-0.622269
-3.5145082
4.8034099
-0.66663267
4.8034099
-1.3198718
1.3198718
-1.3221575
0.0022856594
1.3221575
0.034332361
3.9399981
-0.071699191
-3.939998
-0.073453152
1.0393034
0.23880018
-1.0393034
0.26987878
4.1235612
-0.44044752
4.1235612
-3.2468825
-0.43623113
-3.2468825
-1.9079587
-0.095175688
1.9079587
-0.13310887
-5.8206301
0.24468861
-5.8206301
-11.213436
0.10049496
-11.175794
-6.0922131
-6.0922131
2.3460539
11.14606
-1.9900211
-0.23136777
1.9900211
-0.22013064
1.3193698
0.00050205823
-1.3193697
0.019641296
-1.413611
-0.14951715
1.413611
-0.11388259
-2.5321818
0.42681477
-2.5321818
-1.22843
1.22843
-1.3166922
0.08826215
1.3166922
0.18786227
1.7257479
-0.3066421
1.7257479
1.9173665
0.078771363
-1.9173665
0.1161454
-4.8779783
-0.31474661
-4.8779783
7.1624084
-0.25869568
7.1624084
-2.9542168
-0.29266575
2.9542168
-0.27148167
-0.035227632
11.162392
-5.129059
0.035505196
5.129059
-11.222841
11.258346
-3.1118865
0.57970473
3.1118865
0.94868492
5.3087414
0.26720008
-5.3087414
0.26241904
7.4545185
0.065519478
-7.4545184
0.14332584
-3.00257
-0.51193827
-3.00257
-5.5509247
-0.64077757
5.5509247
-0.74751473
-11.4757
-0.19547631
11.671177
-11.432691
6.0161064
0.13771317
-6.0161064
11.396059
-1.2516948
-0.16741099
1.2516948
-0.023264813
2.0738155
-0.34806761
2.0738155
4.5606328
-0.43707158
-4.5606328
-0.31734551
-7.3206958
-0.11953394
7.3206957
-0.15828738
-2.5158689
-0.48670109
2.5158689
-0.44205335
-5.3397886
5.2905541
2.8592704
-2.7082064
-4.1765799
-7.414085
2.5492953
3.0647268
4.8345173
-10.635598
-5.8159945
-10.249666
7.2755731
-7.0131541
-9.5033321
9.4067602
9.8961195
-10.093081
-7.3582452
7.3925775
8.6902947
-8.778352
3.7753693
3.6959219
10.853072
-10.595151
-16.835437
16.457873
10.305235
-10.271151
16.922262
-16.972812
-19.172474
19.237994
-7.3714233
7.2257055
-8.89985
8.6723706
-9.0355925
8.7641108
-2.7642965
-5.6775535
14.296002
-13.826484
10.74624
-10.882865
-11.519518
11.946981
4.0496433
1.2409108
4.0247693
-3.6190834
7.3944526
-3.4257979
6.2850683
4.5151869
-7.2794833
2.8806828
-7.0572627
5.6104221
5.1358182
-5.4100775
-2.0040076
-8.0620995
7.8703584
-7.6169994
7.5031168
12.074565
-12.095711
-3.6026438
7.2985657
-3.4395453
6.5042721
-3.7095766
-3.6486686
3.5830414
1.2514759
8.3776824
5.9183193
-8.8717816
-1.3778845
-10.170625
9.7335531
-10.695981
10.25975
-0.45632751
5.7901243
-5.3337968
4.3936998
-1.4730514
7.2631757
5.8025218
5.9925043
5.8684549
-5.6012548
1.1446992
-6.478496
-6.3759404
-3.4242673
3.5761642
3.3412776
-3.1376152
7.8815173
2.0146022
7.6340045
-7.0457102
-3.0473707
-7.3604568
4.4745865
2.917991
4.4768722
5.2695999
3.4206947
5.1436439
5.8705459
-5.9493213
0.078775355
-5.4563238
11.32687
1.3492444
-9.1049924
-7.8535165
6.9111404
3.9419312
7.0917729
-7.5131682
-3.0819826
-7.0795341
-10.258361
-6.577076
-10.899139
10.979984
5.4778888
10.645538
-12.886442
12.728155
6.6606942
3.6445407
6.6400336
-6.8722625
-3.3988888
-6.7843657
13.123886
-3.1090113
-10.014874
-11.073336
-8.0991391
11.102593
5.8196684
11.842918
7.3950758
11.986244
4.8123883
8.3114974
-10.632057
2.5329176
-4.4982096
-2.8732137
-4.6525285
4.5530077
2.6726978
4.4219381
-5.2531114
-3.6467386
-5.4844792
-5.1753542
-3.8602382
5.4092209
3.2631496
-5.3093666
-5.3866141
5.6020323
3.1620785
5.1264199
-10.942414
4.1713969
-9.8489505
-10.083651
-3.7428328
-9.6895583
5.4631186
2.4206301
-7.8837487
-1.8163648
10.877635
-5.741817
8.8736275
-6.6569656
-4.2258988
-6.7304188
-9.1647974
-2.3547202
-8.9607967
-9.5484321
9.0364939
-9.9409547
9.274322
13.870504
-6.752801
-7.1177029
-4.8835976
-3.8947543
4.8798286
-0.85505928
-7.2133772
7.2921525
0.18107547
6.4661438
7.7070546
6.8519954
-4.5352468
-3.0817526
-4.5156055
4.7139925
2.7891243
4.5644754
9.1506856
2.9238794
9.1406738
-8.577948
-3.5177634
-8.7770852
9.538897
-9.2067786
3.453218
-3.5483937
6.7425713
3.5171782
-6.3021238
-3.868501
9.0043664
-4.1049954
-4.899371
-12.082076
10.657219
1.424857
-4.8189005
-0.42520062
-0.060450434
-5.5781901
-3.925142
5.4769188
0.51558554
11.172805
7.2476628
-5.5175417
5.7622303
6.1536351
6.2149649
-0.16097547
6.0775114
-5.4978066
7.1159468
-3.0930959
-4.022851
6.9860764
-7.2656397
-1.7910089
-7.160467
5.3694581
0.36836485
2.277358
-1.8726835
-2.7045798
-0.71968747
-2.5884344
1.9685182
1.3727594
2.2073184
1.3139301
2.2622342
-3.9813178
0.70782278
3.273495
-2.6673877
-2.4297924
-4.9605965
-1.3901788
6.3507753
7.1978025
2.5357507
-6.880457
-0.47999982
3.518089
-3.482155
-1.0961422
-3.8644543
2.8541705
-3.9503127
-5.0955921
-2.4588524
7.5544445
-3.7746388
-0.74096672
3.7741368
0.70273542
-4.7344953
-3.3276043
4.8452338
0.29841011
-5.2728851
10.909955
-5.6370702
-8.3546377
4.5399997
6.78687
7.4579906
-9.1467518
4.7314755
4.4152763
-2.3598818
5.9352527
1.1565202
6.0773365
-9.115499
6.0335164
7.8666367
4.0803447
-8.2643763
1.1848422
-7.9306568
10.536528
-9.1950746
-1.3414533
5.2237302
5.3127977
7.5876814
6.2828225
-6.0391041
13.626786
-1.4743423
-7.7207323
9.4049991
-5.3246544
6.123917
-11.448571
-12.406739
4.6860072
-9.8747997
11.88175
-2.0069508
-3.8446537
-9.0417881
13.719453
-1.3450544
-12.374399
9.3004838
-5.5439142
-5.6507822
11.194696
-8.6529254
9.049671
-2.6195498
-6.4301212
-10.84055
-6.1322621
10.960084
1.7680705
-11.947777
14.480694
-3.6362794
5.6663236
0.97370998
5.6102949
4.1751289
-6.6724443
2.4973154
4.4777965
-7.0973462
2.6637676
-9.3362118
-7.7311701
13.8303
-6.0991299
-11.474003
-10.568354
-0.90564884
2.8533271
11.627367
-10.248403
8.0043712
2.2440317
3.9724315
0.59204388
-3.8145656
-0.83796292
0.69001122
6.6253066
-7.3153179
5.1119494
5.007518
5.124782
1.5005246
5.0429237
2.8274347
-4.8227931
-0.66168605
-6.1324303
2.2721921
-2.8692806
-6.0775315
8.3497236
-6.8710469
0.79351539
-4.1169286
-6.0975163
10.214445
-6.9901423
5.2986102
5.6113451
8.0877345
-8.5009123
2.403396
-4.3615796
-4.1393327
4.4676509
-7.3369315
3.1343039
5.2154198
6.2963824
0.90976831
7.3390443
6.4912556
-9.7596744
-0.089276045
12.409575
-11.03169
2.7745419
9.2117021
-10.778913
0.21055914
-9.4789992
0.95927865
-6.7010957
-6.9244701
6.7282433
-9.0829636
-4.7203281
8.3197265
0.82094733
-8.389745
-0.57105175
-6.5136989
-3.0347332
-7.0004
-3.3073162
-6.6336384
-9.3464204
-1.7805864
-7.565834
7.2559074
-7.234715
-3.664424
7.9822298
1.2920923
-7.9958645
7.8284535
-8.050562
7.7024944
0.26602116
7.0261314
7.1180165
3.2232622
-4.6662496
7.8895118
-6.7274579
9.6513373
-11.324317
4.5968594
5.3808196
-8.8985831
-5.9434977
5.4550521
4.0838449
5.7237463
9.3603073
-10.802807
1.4425
-11.012656
12.593813
-1.5811573
-17.062907
6.0502519
-7.7026001
3.3305946
0.12262341
3.2972778
0.98234339
2.8274841
-3.8098275
-2.5660503
-2.6991592
-3.3873712
-5.0618493
8.4492205
1.7528268
-4.8485878
3.095761
-4.6783187
6.4311455
0.22343533
-5.0720231
7.0509662
-4.2234821
7.1735896
-4.4548834
2.7187062
4.7808843
8.4593944
-3.6785101
6.1881641
-2.6709859
2.7421861
-6.4206962
-2.3196631
-4.8730128
7.5457106
-5.3414321
6.1349475
-0.23039279
6.3653403
-5.6644919
1.5594965
-0.53970991
4.4678081
4.4284553
6.6188959
-5.1183713
4.7011713
-7.3721571
-1.7195249
-6.4623888
-1.2469691
-0.50134436
-5.0382282
5.5395726
6.6946706
-7.1960149
-5.3593924
9.7461506
-4.3867582
8.0618448
-5.542549
-2.5192958
-4.5513427
-4.6554359
4.1245279
1.9529834
10.014828
0.27080835
-5.8133574
-5.2269983
-4.2783134
4.4092886
2.7066582
-2.3804942
3.8053512
2.4409446
-0.16358666
0.81137652
1.3959418
2.493104
-1.6817275
0.2068629
2.2862411
-1.6658206
2.6093861
0.90870299
-2.6881574
0.099722974
-1.9006557
4.7548262
1.3728393
-2.7455986
1.0638711
1.6120355
-4.7051314
6.4219978
-3.1616205
-3.2603773
8.0340333
1.5814626
-4.7430831
5.5790043
-5.2106395
3.1393323
-4.529511
-1.6037509
-6.8143904
-4.7997881
-3.7092109
6.8049719
-4.7400096
7.2757603
1.7093798
-6.7957605
8.5051403
-4.745481
2.2866286
-4.2238728
5.1325758
-1.6856645
-2.5382083
3.7841254
3.770319
-3.9656649
0.10121065
-0.1815395
3.1504313
-3.3319708
-0.79988135
-3.4672691
-7.478467
7.7768772
-3.8317395
8.563215
4.0577723
-3.4803979
12.043613
3.2646275
-6.7450254
-5.0900102
-5.8309769
-2.3297491
5.1282415
-0.82441661
-5.9599491
-7.2545377
5.839975
0.2373615
-9.187993
10.294235
-1.1062416
-5.2460617
-0.78745465
6.0111849
-7.7726812
0.67533503
-5.1089136
5.185321
6.3418412
6.5792027
-12.166672
-0.20772667
-6.6887834
1.3331482
-8.0219316
6.6459459
-3.7975513
8.4835584
-11.121327
7.4569025
-9.8292343
7.1421051
-0.87982654
7.0485587
-4.5512432
2.9663156
-9.0985777
-7.3305072
7.208398
-3.5638573
8.182108
-3.9945597
12.176668
-7.6308392
6.6772433
5.4994244
-1.2229311
-5.5074877
-6.7083512
5.4854201
-0.03110796
5.579187
7.6063574
-4.7789227
6.9446713
4.0389987
-8.4005783
-3.2979328
-11.688238
3.2876595
-6.0768928
-3.029521
6.3171806
5.0582135
5.6502574
2.1778478
-4.8122945
8.8531653
-9.7588142
-2.7540355
-4.1704346
6.5430427
-1.0576227
4.3839517
-8.5543863
-2.317144
5.7022747
-0.65708516
-5.0451896
1.0505262
-5.7708543
2.2679188
-8.0387731
6.8150448
-7.3860965
2.3455768
-10.048177
-5.6502877
-5.6735525
-2.4242651
-5.6262969
-7.9457663
5.5215012
-1.8955144
5.932939
-8.8759352
8.21885
-3.7178777
9.239379
-5.85877
-1.1416301
6.3008233
1.4016711
10.64105
0.32673993
-6.2702376
-2.6439593
5.4406628
-2.7967035
1.7653293
-4.7114883
0.72917451
3.3727274
4.6613059
-8.7421855
-0.15639762
-6.4266352
-4.1533663
8.2372112
5.5927843
12.287455
1.4846475
9.3890823
-1.1518711
10.87373
4.5718752
4.7597374
-4.0713267
5.5138267
1.4682459
6.0651053
-0.98944829
3.7081545
2.3078295
2.3122088
1.1699462
2.6551126
1.7733427
4.2146091
0.40478159
-2.2943776
4.7054579
-8.9837713
-1.1078994
-8.1927024
1.2140578
5.885935
-4.6718772
4.2559221
-1.5492639
1.4592186
0.10294198
-2.4067094
2.3037674
-3.919909
-2.5702961
-0.28405492
-2.1363203
3.2001914
2.6185059
-2.9161365
-1.0037725
0.36835843
-5.1681466
4.1611526
-4.059942
-0.28962294
8.2155173
-3.7174348
0.38546392
-1.4308062
-3.0818051
-3.8014926
3.7017696
11.455468
0.58814491
5.8183977
8.3650221
5.0374178
0.2584951
4.8423815
-6.8493323
-4.4938303
-7.0570589
-0.411113
5.6000719
1.9517872
9.67558
7.4512116
6.3935889
-2.1607975
-11.919612
8.1995319
-2.6857052
6.6183746
-1.573185
-6.4655881
6.5693612
3.0819761
-7.3903085
0.0042119925
-6.4613761
-9.1470814
-0.48076378
8.6996138
-10.160286
9.0186562
5.983923
1.5819109
-4.8092101
-0.86434235
4.720948
0.038789492
10.912519
-1.2059116
-7.1356402
8.3415518
-4.6800234
3.5721239
0.9852418
2.8201094
3.2890092
1.7397453
-5.395895
-10.067772
-2.5652565
-2.1398749
-5.8256338
0.52514145
-3.1436474
6.2917424
-2.7196184
3.7724466
5.6219334
7.081152
-2.0525945
-5.1434204
6.4393527
-2.6669061
4.4142459
)
;

boundaryField
{
    wall-4
    {
        type            calculated;
        value           uniform 0;
    }
    velocity-inlet-5
    {
        type            calculated;
        value           nonuniform List<scalar> 8(-1.7582594 -1.7582594 -7.3846893 -4.5714743 -7.3846893 -6.446951 -4.5714743 -6.446951);
    }
    velocity-inlet-6
    {
        type            calculated;
        value           uniform -5.6264299;
    }
    pressure-outlet-7
    {
        type            calculated;
        value           nonuniform List<scalar> 8(6.1668066 6.8600066 6.7943511 9.6543853 8.7967496 7.3264648 7.9736249 9.2560786);
    }
    wall-8
    {
        type            calculated;
        value           uniform 0;
    }
    frontAndBackPlanes
    {
        type            empty;
        value           nonuniform List<scalar> 0();
    }
}


// ************************************************************************* //
