/*--------------------------------*- C++ -*----------------------------------*\
  =========                 |
  \\      /  F ield         | OpenFOAM: The Open Source CFD Toolbox
   \\    /   O peration     | Website:  https://openfoam.org
    \\  /    A nd           | Version:  9
     \\/     M anipulation  |
\*---------------------------------------------------------------------------*/
FoamFile
{
    format      ascii;
    class       volVectorField;
    location    "25";
    object      U;
}
// * * * * * * * * * * * * * * * * * * * * * * * * * * * * * * * * * * * * * //

dimensions      [0 1 -1 0 0 0 0];

internalField   nonuniform List<vector> 
918
(
(0.40867181 -0.00013354322 0)
(0.0090456118 2.9576279 0)
(-0.038361254 1.6282686 0)
(0.28976787 -0.0086985272 0)
(-0.016163766 1.8160147 7.8719706e-20)
(-0.011744062 2.948578 -3.2283831e-18)
(1.0777938 1.6581327 8.9216428e-19)
(0.46033732 0.27075461 -2.616469e-20)
(1.9884176 0.0032963478 0)
(0.023005215 1.2488422 0)
(-0.0077506459 1.0633311 0)
(0.52253433 -0.022380768 0)
(0.012838468 2.9163482 0)
(0.013781359 2.7907522 0)
(0.10134041 3.1836786 4.3326768e-19)
(-0.053396076 1.9136323 4.1109817e-20)
(0.59663065 0.14559573 1.694591e-18)
(0.22453426 1.7064787 6.8870932e-19)
(0.36029355 0.0034266348 0)
(-0.018867385 1.2014765 0)
(0.087301723 0.26088919 -1.3125351e-18)
(1.0472889 -0.022280552 0)
(0.54310083 -0.029010048 0)
(0.24633959 -0.0072039236 0)
(0.64601635 -0.011545408 0)
(0.024347442 2.614973 0)
(-0.0099547591 2.9059202 1.1812871e-18)
(-0.06790298 1.5894981 0)
(-0.12378272 1.8029152 0)
(-0.053595548 1.5980792 0)
(-0.070983924 2.5861856 0)
(-0.0098121341 1.9130455 -6.1591599e-20)
(-0.011958888 1.6734805 0)
(-0.018161727 2.9813231 -1.1987514e-22)
(-0.018375106 3.0070231 2.506478e-18)
(0.00085993528 3.0015936 0)
(0.32628729 0.011943212 0)
(0.43306732 0.91210051 2.486261e-19)
(1.1764601 1.6356879 -1.0553543e-18)
(1.2461188 1.5156833 1.114384e-18)
(0.98742999 1.7720827 -2.020733e-19)
(0.87803733 1.7764684 1.1740149e-18)
(0.57605601 0.32200852 2.5445056e-20)
(0.49560903 0.24829024 0)
(1.5058298 0.86718452 0)
(0.51417671 0.33020883 1.1670477e-19)
(0.41537981 0.27775426 -1.2158807e-19)
(0.24107479 -0.010874733 0)
(1.9895125 3.0612183e-05 0)
(1.9886851 -0.0026171352 0)
(1.355969 0.00047647744 0)
(1.8674905 0.0048646121 0)
(1.7379989 0.0029076314 0)
(0.026173292 2.0331182 -6.7115282e-19)
(0.043842027 1.4615637 0)
(0.046924834 1.3386862 0)
(0.025346193 1.413604 0)
(0.018067878 1.1810108 0)
(0.0025987161 2.2422949 0)
(0.00055259626 1.2720923 0)
(0.00406937 1.0774485 0)
(-0.014356489 1.2735194 0)
(-0.014472814 1.0708212 0)
(0.65394323 0.031998544 0)
(0.70607154 -0.035178347 0)
(0.4658532 -0.020308939 0)
(0.73580187 -0.031046977 0)
(0.57613037 -0.019230583 0)
(0.016738932 3.0145157 1.2342766e-18)
(0.012391149 3.0113794 0)
(0.0077282209 3.0035771 0)
(0.013328223 3.0004885 1.3133855e-23)
(0.01055683 2.9476306 -1.7627674e-18)
(0.016842616 2.9848912 0)
(0.01343642 2.8938358 0)
(0.017699989 2.923871 2.8074666e-24)
(0.013863823 2.8181377 0)
(0.017733943 2.910204 0)
(0.011258271 2.7538909 0)
(0.25164044 3.6440505 0)
(0.17917331 3.5810672 0)
(0.13513438 3.3168817 -4.0530575e-19)
(0.050127869 3.0069438 0)
(-0.23771684 2.3482456 0)
(-0.072045868 2.1416379 -4.0325671e-20)
(-0.054182274 2.0337755 2.9159841e-20)
(0.73982065 0.16636956 -5.8298804e-19)
(0.61058983 0.10970237 -5.5791707e-19)
(0.72144097 0.20748191 -1.7626571e-18)
(0.57881734 0.1773981 -1.1706336e-18)
(0.17993694 1.1613254 0)
(0.34690707 1.8480122 -7.4331038e-19)
(0.43639574 1.8311373 1.2410775e-18)
(0.54864418 0.037669968 0)
(0.30022872 0.022793108 0)
(1.2187139 -0.0013742167 0)
(0.7386312 -0.035236977 0)
(0.65060841 0.017186531 -2.4707555e-18)
(0.64769135 -0.026311674 1.947064e-18)
(-0.024612309 1.3303929 0)
(-0.013655389 1.1582583 0)
(-0.082899014 1.5433344 0)
(-0.03291427 1.3835612 0)
(-0.020174303 1.2661759 0)
(0.17172822 0.30758857 4.0034257e-19)
(0.2561566 0.25720728 0)
(0.50317131 0.018331639 0)
(0.24234323 0.013274347 0)
(0.75818989 -0.025447838 0)
(0.7690872 -0.01924615 0)
(0.62292352 -0.016883262 0)
(1.0612675 0.055780919 0)
(0.75332058 0.0071120018 0)
(0.59390353 0.013802033 2.2796636e-18)
(0.0021470877 2.8617127 1.0064789e-18)
(0.021662383 2.8989833 0)
(0.036489511 2.8735634 0)
(0.015971958 2.7025605 0)
(-0.010401914 2.9857771 1.1388039e-18)
(-0.0090716467 2.8908443 0)
(-0.011750363 2.9907631 -3.5035041e-18)
(-0.0095900746 2.9158765 1.1995857e-18)
(-0.17338666 1.8561544 0)
(-0.1942782 1.95255 0)
(-0.065702653 2.0186263 2.1724083e-21)
(-0.038712895 1.9130686 0)
(-0.042284008 1.77639 0)
(0.67117593 0.043165885 0)
(0.39031362 0.025937764 0)
(0.2544333 0.0043006638 0)
(0.62668809 0.02342558 0)
(0.29295558 0.020333444 0)
(0.51974058 1.092084 -3.0700531e-19)
(0.55295314 1.1290392 0)
(0.41160069 0.8983642 4.1706323e-20)
(0.31846372 0.6839854 0)
(1.3093995 1.4566256 -3.1247876e-19)
(1.3578478 1.3024417 6.0784763e-19)
(0.56164053 1.8995611 0)
(0.78236115 1.8710257 0)
(0.6635348 1.8415359 0)
(0.15118691 0.258355 -3.7839311e-19)
(0.62473876 0.30113774 0)
(0.52869546 0.23041512 3.3219286e-19)
(1.4150645 1.2442309 0)
(1.4915422 1.021504 0)
(1.4427219 1.0818676 -4.6806175e-19)
(1.5470658 0.8084931 0)
(1.5418027 0.67115265 8.4955654e-20)
(0.59086234 0.034437296 0)
(0.54431646 0.020129606 0)
(0.25906336 0.018042958 0)
(0.52058378 0.0065871788 0)
(0.52945265 -0.012837285 0)
(0.24994234 0.0064387148 0)
(1.4988607 -0.0021718904 0)
(1.8698872 -0.0026117912 0)
(1.7318519 8.1800869e-05 0)
(0.040517847 2.2542971 3.6915797e-19)
(0.05060113 1.9579843 0)
(0.032681548 2.3428536 5.6854436e-19)
(0.020115955 2.0937032 -4.5465322e-19)
(0.16388808 1.6961455 -5.6704783e-19)
(0.075740928 1.5449271 0)
(0.098151692 1.5098162 0)
(0.02249495 1.3653105 0)
(0.017121852 1.14017 0)
(0.00073858753 2.418499 3.8707566e-23)
(0.0053594859 2.2347087 0)
(0.0059318408 2.4287482 1.1113109e-20)
(-0.0024201374 2.2509689 -3.3816058e-20)
(0.021451592 1.3232703 0)
(0.014570525 1.2889099 0)
(0.014312617 1.10428 0)
(-0.019926933 1.280482 0)
(-0.015778188 1.0964991 0)
(0.88595112 0.049774303 0)
(0.73171465 0.032126954 0)
(0.82588996 0.049878671 0)
(0.56699199 0.027065698 0)
(0.34561873 -0.020562284 0)
(0.63127841 -0.032223241 0)
(0.66845573 -0.031368942 0)
(0.41066935 -0.019515411 0)
(0.0037241001 3.0719773 -1.052722e-20)
(0.010796512 3.0616408 0)
(0.016170393 2.9688037 0)
(0.01325535 2.867717 0)
(0.73163989 4.2317103 0)
(1.2318089 3.2956324 9.12519e-19)
(0.072751189 3.1377556 0)
(0.030144372 2.9088877 0)
(-0.22592995 1.9656716 0)
(-0.25747708 2.2513304 0)
(-0.24939748 2.1233868 0)
(-0.12877635 2.5877738 -1.6729067e-20)
(-0.22307575 2.4692511 0)
(-0.16830412 2.4739146 0)
(-0.029723616 2.1875409 -2.8113506e-21)
(-0.044152345 2.3467886 -2.148036e-20)
(-0.061789287 2.2576089 -2.9899241e-20)
(-0.043940985 2.1331067 0)
(0.75241781 0.12010994 8.5380037e-19)
(0.62260823 0.073437875 -8.416151e-19)
(0.30607998 1.7036258 0)
(0.20776615 0.93885289 -3.4483744e-19)
(0.22658123 1.8457581 -1.0666553e-18)
(0.13821351 1.4036697 1.0699037e-18)
(0.27261472 -0.0059721072 0)
(0.54041841 -0.0046181371 0)
(0.53312687 0.010620652 0)
(0.27485103 0.0025190888 0)
(-0.018894171 1.2911873 0)
(-0.017305963 1.3036315 0)
(-0.01340029 1.1290248 0)
(0.44003316 0.33074078 1.0747433e-18)
(0.34482409 0.31784701 -1.2847284e-18)
(0.34706341 0.27412503 0)
(1.2881362 0.13129645 3.4298605e-20)
(1.2575879 0.12764565 0)
(1.1414632 0.087221487 0)
(0.9192204 0.040669295 0)
(0.74957377 0.0729465 0)
(0.73665531 0.031418828 -3.6663993e-18)
(0.61253377 0.039394558 1.3964262e-18)
(0.0032453586 2.9859349 1.0175732e-18)
(-0.003239967 2.8659089 4.6833811e-20)
(0.003846156 3.0539316 -2.2071713e-20)
(0.012753512 3.0472645 7.9461628e-19)
(-0.0093888502 2.9952598 3.9020318e-20)
(-0.0083893603 2.9361829 -1.5670599e-22)
(-0.013157076 3.0201633 -7.364598e-19)
(0.0012164645 3.02315 5.3082021e-19)
(0.0066765857 3.0398108 -7.9518815e-19)
(0.77561297 0.047086814 0)
(0.7282261 0.047864941 0)
(0.47234933 0.023692377 0)
(0.53950474 0.0011350965 0)
(0.54269869 0.010718611 0)
(0.27242501 -0.0044921063 0)
(0.60185767 -0.039503553 0)
(0.56149456 -0.029653342 0)
(0.2877258 -0.02116859 0)
(0.70635797 1.3783533 -2.1849412e-20)
(0.774159 1.4601084 0)
(0.16390891 0.3512375 8.7244748e-20)
(0.33518461 0.76757881 6.5609453e-19)
(0.35535353 0.79760113 -3.8611669e-19)
(0.22757455 0.48344374 7.4858194e-19)
(0.42050656 0.96774166 1.9447596e-18)
(0.16796621 0.34191784 4.4299403e-19)
(0.69738284 0.24337938 1.2436548e-18)
(0.66514341 0.27608623 3.1817864e-19)
(0.55603114 0.20382258 6.2244147e-19)
(1.5436259 0.60147444 1.5857103e-19)
(1.506359 0.45259452 1.2308167e-19)
(0.023152821 2.3978378 1.9814262e-19)
(0.011145045 2.1653384 0)
(1.0330229 0.060434251 0)
(0.9556792 0.055707517 0)
(0.82722109 0.035879044 0)
(0.010044686 3.0770229 0)
(0.016992234 2.9386955 1.5452406e-18)
(0.016547984 2.953693 0)
(0.013509845 2.8433536 -1.5425025e-18)
(0.0095669012 3.0917425 3.5292489e-19)
(0.003802284 3.0887547 0)
(0.86457955 1.7496457 -1.2143666e-19)
(1.1303651 2.3615884 1.3430025e-19)
(0.8439776 1.8664919 -8.9448933e-19)
(0.015149142 2.9998957 -9.2327714e-19)
(0.036586277 3.0410881 0)
(0.012897805 2.8752477 0)
(-0.012773583 2.4095727 -2.1824211e-20)
(-0.021314834 2.4033191 6.4107637e-20)
(-0.011635993 2.2349319 5.3263006e-21)
(0.34543682 1.5400204 1.0852972e-18)
(0.212351 0.75490906 -7.4584645e-19)
(0.088616225 2.1655704 7.2454285e-19)
(0.16732705 2.0263246 -9.0427606e-19)
(0.083017255 1.6930215 1.2269293e-19)
(0.014480514 3.1141008 -2.3280712e-18)
(0.017033311 3.1196222 2.6353952e-18)
(-0.0085316823 2.9803862 1.0845182e-18)
(-0.0050681227 2.9776484 -1.0597998e-18)
(-0.0075044688 2.8764624 -1.1047859e-18)
(0.004773687 3.1054834 -2.742738e-18)
(0.0096755089 3.1047317 2.7231324e-18)
(0.37945517 0.83740136 0)
(0.3338309 0.77671892 -1.4909889e-18)
(0.13561357 0.28194943 6.6414479e-19)
(0.41485279 1.088501 1.265986e-18)
(0.19198232 0.43463674 -1.9650568e-18)
(1.4435011 0.24320052 7.9419983e-20)
(1.5085851 0.39932605 0)
(1.4220492 0.26016856 -5.0934352e-21)
(0.010112081 2.4224505 -8.4214989e-22)
(0.0084259479 2.4101092 0)
(0.005508681 2.2037956 0)
(0.39378059 1.4034265 -3.9019973e-19)
(0.4238013 1.2583626 -8.7807878e-19)
(0.2015054 0.57452119 1.5749679e-18)
(1.194375 0.0050031667 0)
(1.3357988 0.0012927681 3.9514384e-19)
(-0.16908403 1.8126268 0)
(-0.13839273 1.744211 0)
(1.5134272 -0.0020773239 2.1617209e-21)
(1.1038501 0.015904237 8.7106177e-19)
(-0.1396956 2.6281342 2.1745005e-20)
(-0.11345993 2.6616752 0)
(0.064353304 3.1818448 7.2151543e-19)
(0.540469 3.5574249 0)
(1.45175 0.90719186 -7.9050536e-20)
(1.285983 0.0050992727 2.4451881e-20)
(1.3734836 0.026532238 0)
(1.998721 0.0062621271 7.1451548e-21)
(0.10503923 1.8688934 0)
(0.11990814 2.7576519 0)
(0.024933031 1.8012877 0)
(0.0039350273 2.8097603 -1.9849668e-20)
(-0.015296118 2.7570959 -3.0517012e-20)
(1.2699368 -0.035339286 1.6402899e-20)
(1.3726198 0.069438462 0)
(1.3945006 0.093845609 0)
(-0.25558561 2.2532528 0)
(-0.13319573 2.7819793 0)
(-0.054305017 1.6566548 0)
(0.34746702 1.9878869 -3.6212607e-19)
(1.2985231 0.0092751521 0)
(1.0982886 0.0081438372 0)
(1.9703356 0.0089266982 5.1632947e-19)
(1.6564036 0.015393391 -5.9113137e-19)
(1.9057733 0.0094395815 0)
(-0.23233817 2.0520314 0)
(-0.18260699 1.8428325 0)
(-0.22406766 1.9686253 0)
(-0.064405652 1.644506 0)
(-0.099894387 1.6773583 0)
(-0.072080146 1.6235801 0)
(1.3883016 0.0571899 0)
(1.3170251 -0.025903179 2.4581138e-20)
(1.0331122 1.7198459 5.2047721e-19)
(1.95655 -0.00035638786 -5.2569928e-19)
(1.7074754 -0.0060484005 6.2449614e-19)
(1.8972963 -0.0072771134 0)
(1.3138833 -0.0012066318 5.0972551e-19)
(1.187634 0.0010481682 -6.4854701e-19)
(0.93511683 0.020721998 0)
(-0.14262218 2.7925229 0)
(-0.14356123 2.7303908 -9.2864609e-20)
(-0.13109805 2.7419001 6.8604317e-20)
(1.5285373 0.38943598 7.9146644e-19)
(1.4821663 0.16628129 0)
(0.083210182 3.0550832 -1.3835501e-18)
(0.046463678 2.8430346 -9.8200816e-20)
(0.18474926 3.1831858 2.1033091e-18)
(0.16868073 3.2475856 -3.1428441e-19)
(0.16657741 3.2943439 0)
(0.032807237 3.1355189 3.8852808e-19)
(0.087335332 3.1746895 1.3594076e-18)
(0.083823039 3.2026088 -7.2480251e-19)
(0.052073218 3.1084268 0)
(0.87909828 0.44187629 0)
(0.75999619 0.5060059 0)
(1.4023493 0.96014782 1.6824196e-19)
(1.4075531 1.1403428 -1.2509938e-19)
(1.4710852 0.78036476 0)
(1.4978314 0.74829831 0)
(1.2824275 0.009863092 -1.0362608e-18)
(1.1102918 0.007067662 1.3319104e-18)
(1.3817112 0.026382774 0)
(1.2427909 0.031237127 0)
(2.0030298 0.0098054608 0)
(1.8770211 -0.0013451024 0)
(1.9371686 0.0056881146 0)
(1.7300883 -0.011549634 0)
(1.6680593 -0.0048563814 0)
(1.7990753 -0.0043482805 0)
(0.089563378 1.8578122 0)
(0.067960802 1.8490006 0)
(0.13631523 1.8978485 0)
(0.14597332 1.9295186 0)
(0.14096016 2.788259 0)
(0.18160327 2.8669257 -4.2606559e-19)
(0.096455595 2.8606809 0)
(0.078743933 2.8717437 1.5900564e-19)
(0.026330501 2.8829312 -9.5019121e-20)
(0.024595026 1.7977068 0)
(0.0071450454 1.7540429 0)
(0.030412091 1.8171277 0)
(0.031199742 1.7994498 0)
(-0.00091374806 2.2371219 5.0466042e-20)
(-0.013074256 2.8053777 -8.5911829e-20)
(-0.00061577634 2.8515682 -2.7110155e-20)
(-0.0033444051 2.8861331 0)
(-0.018661923 2.8171277 6.9477157e-20)
(-0.028427848 2.82062 8.7169321e-20)
(0.0042068494 2.2331495 -2.9649033e-20)
(-0.0076374612 2.5645059 1.1349549e-19)
(-0.017250787 2.6006251 3.4450524e-20)
(1.2943561 -0.032979999 1.4185902e-18)
(1.1372859 -0.048668477 -1.7350008e-18)
(1.2548224 -0.026650779 -1.520572e-18)
(1.1531638 -0.032183968 2.0171017e-18)
(1.4038132 0.060466552 0)
(1.2980464 0.072544718 0)
(1.4211576 0.082565532 0)
(1.4026329 0.069529876 0)
(1.2565266 0.072816505 0)
(1.4824365 0.14404481 0)
(1.428042 0.10223902 0)
(1.2999455 0.093988925 0)
(-0.1939709 2.6051425 1.142545e-20)
(-0.23736506 2.4207696 0)
(-0.22425813 2.495003 0)
(-0.11410973 2.8154125 -5.3053483e-20)
(-0.098918868 2.8179819 1.032784e-21)
(-0.16754535 2.1486482 -1.583713e-19)
(-0.20364133 2.047827 1.5991708e-19)
(-0.097664418 1.7888908 0)
(-0.14748389 1.8123071 0)
(-0.17456703 1.8412122 0)
(-0.014792243 1.6542571 0)
(-0.017479311 1.6188905 0)
(0.48916947 1.9966181 6.4659972e-19)
(0.50839739 2.0235323 2.9696952e-19)
(0.59391511 2.6421505 -2.4920193e-19)
(0.38270753 2.7743494 6.334454e-19)
(0.40613272 2.2475172 5.9268563e-20)
(1.4002332 0.023748153 0)
(1.3325477 0.022286583 0)
(1.1506116 0.014491679 0)
(1.9800154 0.013718385 0)
(1.9604368 0.0098157533 0)
(1.7232605 0.016452428 0)
(1.6279454 0.01550593 0)
(1.6443769 0.020925533 0)
(1.3504574 -0.021245232 1.0548741e-18)
(1.087836 -0.0036131692 -1.303894e-18)
(1.3054229 -0.023440916 -1.1626591e-18)
(1.1793531 -0.034367421 1.537544e-18)
(0.98960917 1.740379 0)
(0.88110194 1.887592 5.2920966e-19)
(1.1261156 1.6014673 2.2420357e-19)
(1.1806446 1.599495 -2.9865847e-19)
(1.2718148 2.709045 5.6333924e-19)
(0.97621368 0.097772366 8.9893863e-19)
(1.4870168 0.18832926 0)
(1.5265832 0.28479827 -6.1969064e-19)
(1.4589306 0.24168607 -2.4297452e-20)
(1.477837 0.12836384 0)
(0.23071503 2.9325675 8.7555334e-19)
(0.11510417 2.8208606 -2.00647e-18)
(0.046740685 2.3750905 1.2715688e-18)
(0.079316473 0.05211206 -6.4397797e-19)
(0.37262362 3.4711937 -4.9498298e-20)
(0.23964704 3.3756735 0)
(0.25220647 3.4394576 6.9775048e-20)
(0.2744145 3.0923142 -2.1981771e-18)
(0.40827246 3.1807636 0)
(0.014577195 3.1192762 7.1094385e-20)
(0.017699858 3.1324971 -7.643154e-19)
(0.032541628 3.1177028 1.1879431e-18)
(0.039750751 3.1487223 0)
(0.037859647 3.1575079 0)
(1.3547166 2.8058948 0)
(0.72794318 1.0973664 -7.6583736e-19)
(1.3352873 1.3652727 -4.085796e-20)
(1.2496651 1.4189474 0)
(1.0873122 1.2950743 -1.3456088e-19)
(1.3535285 1.1978509 4.58918e-20)
(0.45905669 0.53169794 -1.5132333e-18)
(0.94843691 0.43917372 -4.0136334e-20)
(0.8959135 0.37395887 6.7935653e-19)
(0.77933067 0.55631921 4.9682254e-20)
(0.66554717 0.50748734 -2.0496466e-18)
(0.90206421 0.48196827 0)
(0.94915236 0.58618455 1.1060007e-18)
(0.96944391 0.55261673 0)
(0.83792904 0.52039381 0)
(0.80109148 0.44814116 0)
(1.057517 0.83244703 6.2863967e-19)
(1.5224118 0.41230953 -6.7451757e-19)
(1.5162609 0.58667516 0)
(1.5241469 0.54145729 0)
(0.97895509 0.27939795 1.0122557e-18)
(1.0917156 0.73236087 -6.1929156e-19)
(1.014914 0.69875952 1.0968009e-18)
(1.2936943 0.53454875 -1.1449671e-18)
(1.2766266 -0.010759675 6.9204499e-19)
(1.2514622 7.9235793e-06 -7.1347235e-19)
(1.0414531 -0.0011918712 0)
(1.4123585 0.050948872 0)
(1.3725443 0.03909751 -6.6265501e-19)
(1.2011978 0.039898156 6.5503998e-19)
(1.8102125 -0.0034126276 0)
(1.6962786 -0.021657214 0)
(1.909295 -0.003745987 0)
(1.6765893 -0.0044651305 0)
(1.9488276 0.0086102759 0)
(1.9365637 0.0069779684 0)
(0.05953283 1.8425072 0)
(0.050531769 1.8243572 0)
(0.17019228 1.8135635 1.0970742e-19)
(0.32424591 1.9773718 1.9515713e-19)
(0.19591946 1.9640956 4.4106775e-19)
(0.22114958 1.9872048 -7.0640534e-19)
(0.21079816 1.8530428 0)
(0.172761 1.9677746 1.3869591e-20)
(0.15198084 1.9531702 0)
(0.37755432 2.2052551 -8.2136939e-20)
(0.36182354 2.5101491 5.5048231e-19)
(0.23184111 1.9021421 -1.2426321e-20)
(0.31585404 1.8535207 1.019254e-19)
(0.2602133 1.8366288 -8.3002271e-20)
(0.34543549 1.7750054 1.5944348e-20)
(0.26976434 1.9429158 0)
(0.31990459 1.9591616 2.7239613e-20)
(0.031265992 2.4747112 -1.8272425e-21)
(0.031334405 2.8767119 0)
(0.061904249 2.5826838 6.7635279e-20)
(0.052367607 2.586907 0)
(0.056473511 2.8931969 -1.7727614e-19)
(0.043199611 2.9309733 0)
(0.028885567 1.8636614 1.0710926e-19)
(0.022446882 1.8958691 0)
(0.029701599 1.8437399 0)
(0.031413935 1.8374249 -1.2145891e-19)
(0.0042430012 2.843218 -7.2671592e-21)
(0.013346376 2.8861131 1.0261059e-19)
(0.0089364421 2.9189213 6.9478868e-22)
(0.049146943 2.1531558 -5.9211736e-20)
(0.032753811 2.0428995 -2.7284313e-20)
(0.011373319 1.7527557 0)
(-0.0057083946 1.7048162 0)
(0.030028601 1.9575994 -9.6421519e-20)
(0.028533103 1.8688029 -1.2855006e-19)
(0.026638643 1.9208302 1.5241331e-19)
(0.039352244 1.976633 0)
(-0.14671991 2.5842796 2.9796394e-19)
(-0.1295142 2.7733098 -1.2283736e-19)
(-0.099277922 2.7027976 2.6892553e-20)
(0.045459643 2.1713208 7.0062383e-20)
(-0.032648869 2.6854192 3.4920787e-20)
(-0.011814463 2.6327635 -4.8991276e-20)
(1.2658034 -0.03817317 -8.3885379e-19)
(1.2753544 -0.043347975 9.0764731e-19)
(1.1037947 -0.049194229 0)
(1.4721937 0.039131479 1.4995432e-18)
(1.1987306 -0.02014131 -1.6820488e-18)
(1.1601446 -0.024508687 1.9059339e-18)
(1.4933269 0.069651694 -2.065058e-19)
(1.3887297 0.057294918 0)
(1.3901862 0.061757564 7.3378302e-19)
(1.2951404 0.065993734 -7.2676155e-19)
(1.5891721 0.079968901 -4.7652677e-20)
(1.5807485 0.068218998 4.0282154e-19)
(1.7046223 0.081323873 0)
(1.780859 0.075092591 -1.5785915e-19)
(1.6880328 0.0131324 0)
(1.5646685 -0.0041836059 0)
(1.8308241 -0.0050936711 0)
(1.6424383 -0.022953324 0)
(1.8086211 0.02762115 3.0628905e-19)
(1.8017348 0.010814512 -6.3370166e-19)
(1.7628677 0.06384477 -3.1410166e-19)
(1.7762015 0.060850176 -3.6083193e-19)
(1.7263467 0.10117449 7.4427972e-19)
(1.5788207 0.10913918 0)
(1.6137874 0.15181232 0)
(-0.16234937 2.5900556 1.7038132e-19)
(-0.22684709 2.435744 1.4359782e-20)
(-0.20955572 2.4438635 0)
(-0.17380085 2.6895184 -1.7570776e-19)
(-0.18922259 2.6270935 -2.4516062e-20)
(-0.17399936 2.68354 2.2522117e-20)
(-0.045252639 2.8394665 -6.6659884e-20)
(-0.06832115 2.7781858 5.128483e-21)
(-0.045528191 2.7468393 -3.0792873e-20)
(-0.069166397 2.8274973 2.9863066e-20)
(-0.062752473 2.8254903 -3.7742667e-20)
(-0.088196917 1.9298437 -3.4935014e-22)
(-0.11423206 2.1393907 -1.9596922e-19)
(0.49044156 1.8908167 -2.9651595e-19)
(0.44910837 1.8101404 -7.0409763e-20)
(0.84875926 1.9033055 -5.132156e-19)
(0.67642703 1.9892534 -2.8683665e-19)
(0.70311063 1.9927137 0)
(0.64432481 2.6036634 2.2236157e-19)
(0.69981215 2.6191857 3.6340473e-19)
(0.44938688 2.704404 1.124322e-19)
(0.45952266 2.7085891 -5.4691894e-19)
(0.5466508 2.6369954 5.7732544e-19)
(0.55541664 2.6592888 0)
(0.48631325 2.7183934 -5.7287092e-19)
(0.22788438 2.7896829 1.1018867e-18)
(0.33542949 2.7753292 -4.9195374e-20)
(0.27060137 2.8655465 -1.5303036e-18)
(1.0235473 2.5412332 8.7696536e-19)
(0.89352006 2.558086 0)
(1.9520178 0.019656264 2.0459562e-20)
(1.6546314 0.022658822 -1.7495218e-20)
(1.6731706 0.0236833 -3.1013956e-19)
(1.8721853 0.026583546 3.1091579e-19)
(1.9851981 0.023633109 0)
(0.88242992 1.6824422 0)
(0.84555797 1.5638544 0)
(1.009515 1.4729069 0)
(0.86708007 1.4878799 0)
(1.2783795 2.7422965 1.4112057e-21)
(1.1900973 2.569608 0)
(0.93427143 2.2707806 4.5183951e-21)
(0.88134268 2.5338386 0)
(0.99628128 2.6062389 -3.9963966e-19)
(1.0240073 2.5938505 2.7306883e-19)
(1.0305865 0.13463911 0)
(0.98182319 0.16894675 2.5226628e-19)
(1.1301806 0.086132882 1.3921451e-18)
(1.0241406 0.073555069 -5.2720421e-19)
(0.96317406 0.037700226 -1.6212809e-18)
(1.5643205 0.31049093 -1.2151559e-18)
(1.4281622 0.36860321 -2.434323e-20)
(1.2480691 0.30964208 1.3625286e-18)
(1.4580517 0.25403171 1.1067082e-18)
(1.2789614 0.12718324 -1.868697e-18)
(1.2379843 0.14598599 2.3793002e-19)
(1.3034355 0.22368244 -5.0855012e-19)
(1.2559891 0.20001292 0)
(1.4619884 0.16719735 9.1772694e-19)
(1.5598384 0.21687779 0)
(1.5411621 0.26306729 0)
(1.5704078 0.19393949 3.7163086e-19)
(1.6555559 0.23242052 -2.1838894e-20)
(1.5724427 0.32071641 -2.1035109e-19)
(1.5603787 0.28524486 0)
(1.5325754 0.0018405052 7.5772822e-19)
(1.7472898 0.050546368 9.3126168e-19)
(1.7123159 0.023975817 -7.2102964e-19)
(1.6999726 0.068550996 -6.3588772e-19)
(1.5209282 0.03557828 -1.0769466e-18)
(1.3738166 0.08755999 0)
(1.3984161 0.077770299 0)
(1.149367 -0.0015921676 -6.9189931e-19)
(1.0956859 0.0045175033 2.8212421e-19)
(1.6235612 0.095192729 9.4810884e-19)
(1.6848132 0.16937791 -1.0836588e-18)
(1.6658565 0.18330981 9.8815635e-19)
(1.6286891 0.1616222 0)
(1.6834787 0.13910038 0)
(1.7268293 0.11682864 -4.217172e-19)
(1.7096987 0.10097426 -7.7339689e-19)
(0.72734121 1.4780777 1.6777755e-19)
(0.81286698 1.8286031 -1.943127e-19)
(1.1789209 2.780909 -1.9888071e-19)
(1.2971183 3.1348949 3.1416378e-20)
(1.3414079 2.8236123 -4.0594586e-19)
(1.3961452 2.8931661 -5.2308334e-21)
(1.2676603 2.5663478 2.6667999e-20)
(1.3300645 3.05774 -1.1939596e-19)
(1.3380312 3.0744518 2.6415455e-19)
(1.3169606 3.3418596 -1.0439908e-19)
(1.4341466 3.108208 1.0776948e-19)
(1.4517245 3.0366417 0)
(0.73261526 1.1659872 -6.568452e-20)
(0.27078326 1.3671044 8.1650593e-19)
(0.64552588 0.73360013 1.0036304e-18)
(0.41985094 0.30951984 1.1544198e-18)
(0.68667432 0.5621658 1.1477952e-18)
(0.73368307 0.66128368 -1.8848308e-18)
(0.71471826 0.68141898 1.5261274e-18)
(0.62734617 0.58892638 -5.9286235e-19)
(0.54262767 0.4823746 1.3482625e-18)
(1.0144868 0.32558333 -5.6815599e-19)
(0.97007283 0.37854367 0)
(0.92559327 0.3321999 1.8193487e-20)
(0.95979665 0.70481108 5.9231742e-19)
(0.93256611 0.66452398 -2.1523519e-18)
(0.79079224 0.67490263 3.07286e-20)
(0.83078121 0.63472487 0)
(0.84613182 1.0357146 6.0699775e-19)
(1.0627515 1.0375462 5.2359321e-19)
(0.9829996 1.1667232 -6.0370483e-19)
(1.1147099 1.0626004 -2.2055819e-19)
(1.2208752 1.1363189 -4.7005323e-20)
(1.1870421 1.1340438 4.7417898e-20)
(1.1242985 0.85656329 -1.05258e-18)
(1.1659988 0.96153229 2.0691645e-19)
(1.2682723 0.96986966 0)
(1.2924151 0.92741845 -2.8822629e-19)
(1.4479826 0.41549751 3.2975991e-19)
(1.5314304 0.43351009 3.9985327e-19)
(1.5340067 0.37650842 5.1293825e-19)
(1.3955345 0.50379957 -6.7236799e-19)
(1.4157547 0.58023096 0)
(1.4556213 0.56352152 0)
(1.2223003 0.4617743 1.022543e-20)
(1.1388523 0.35888485 0)
(1.175049 0.31952263 6.6155083e-19)
(1.2322609 0.33226583 -3.0576173e-20)
(1.2681247 0.58414344 2.9939719e-18)
(1.177762 0.67605253 8.2130162e-19)
(1.1844437 0.6070187 -9.1489909e-19)
(1.1054171 0.58446973 9.876769e-19)
(1.0650319 0.59609968 5.9438601e-19)
(1.0223537 0.5607468 -5.8236133e-19)
(1.6464282 0.038749661 5.483129e-19)
(1.9381756 0.026044629 0)
(1.9021554 0.033637551 3.6839118e-19)
(1.6673212 0.036401562 -8.2829016e-19)
(1.9149664 0.012660956 4.0892742e-19)
(1.8663084 -0.0059474021 -8.6453542e-19)
(1.6859808 -0.015104332 0)
(1.5775721 -0.0085910217 -1.7489349e-19)
(1.8376726 -0.0030554532 4.3764995e-19)
(1.6702537 -0.0024796136 -2.24678e-19)
(1.6064157 -0.0020178978 1.6512683e-19)
(0.036573371 1.8222924 0)
(0.034297683 1.8242386 0)
(0.043490182 1.825822 0)
(0.038737787 1.8101839 0)
(0.076900495 1.8239184 -2.4397071e-19)
(0.096041638 1.8077255 8.3981395e-20)
(0.13382255 1.89376 3.0544247e-20)
(0.11712381 1.7893968 -5.9885219e-20)
(0.032487871 1.8731981 1.3094322e-19)
(0.035360064 1.8663492 -1.0096336e-19)
(0.068137005 1.8143924 -1.9533307e-20)
(0.059340604 1.8225287 1.7724306e-19)
(0.046707567 1.8107673 2.4562992e-20)
(0.036643173 1.8211079 1.7496037e-20)
(0.090350136 2.5257487 -7.2358491e-20)
(0.094276097 2.559471 0)
(0.16283616 2.2617009 6.2587996e-20)
(0.14822366 2.0452464 1.4273935e-20)
(0.26923949 2.2275614 -6.598289e-20)
(0.23481263 2.6097941 0)
(0.27839011 2.5960669 -5.1864877e-19)
(0.32865267 2.4939031 3.7301516e-19)
(0.23117582 2.1889154 -1.5391975e-19)
(0.17835467 2.3547955 1.2468414e-19)
(0.16829244 2.4954996 0)
(0.0049356872 2.1973543 6.1871532e-20)
(0.010438846 2.5776052 4.541459e-20)
(0.00078696721 2.3376712 0)
(0.0092172452 2.6437879 -1.5961018e-20)
(0.026606935 2.4745628 -1.3943459e-20)
(0.040176061 1.8514599 -2.122966e-20)
(0.037297508 1.8206028 3.4584462e-19)
(0.052491538 1.8303206 -1.1551717e-19)
(0.060972217 1.8408497 -1.0211216e-19)
(0.038600703 1.8699436 0)
(0.052066022 1.7904458 0)
(0.00046774733 1.6730288 -1.4698532e-19)
(0.041498126 1.7300997 4.8269358e-20)
(0.043291175 1.7552226 0)
(0.0033770821 1.7074818 -1.0296532e-19)
(-0.015170763 1.6542055 2.1022459e-19)
(1.5883807 0.041941064 0)
(1.5780779 0.042317138 -6.7997674e-20)
(1.8795631 0.032683239 -5.256271e-19)
(1.7395403 0.046811852 0)
(1.5724991 0.042052372 0)
(1.8585497 0.024023239 1.3936577e-20)
(1.8667178 0.0235892 7.5273048e-19)
(1.7439812 -0.0064650359 9.8756539e-19)
(1.6322896 -0.019917188 0)
(1.5540657 -0.019715998 0)
(1.7226562 0.0052714906 5.2670179e-19)
(1.5691866 -0.0077697132 0)
(1.547457 -0.024800665 0)
(-0.027888499 2.3675686 0)
(-0.050332759 2.1623773 -8.2669531e-22)
(-0.061657934 2.3055406 -7.5765798e-20)
(0.037744978 1.746703 0)
(-0.00079777616 1.9967171 -8.9375474e-20)
(-0.025558823 1.8598945 6.7467979e-20)
(0.00016678244 1.7215127 0)
(0.50145455 1.9019312 0)
(0.44984359 1.6983394 8.3251837e-20)
(0.41263885 1.7112478 0)
(0.54370359 1.7363513 -2.2429387e-19)
(0.63933183 1.9042066 0)
(0.57551028 1.8485233 1.4363116e-19)
(1.1124866 2.7967863 -1.7645422e-20)
(1.0443788 2.5600082 -1.009886e-18)
(1.0399779 2.4522322 1.1427872e-18)
(0.9213312 2.5443361 2.9728963e-19)
(0.91177193 2.600868 0)
(0.97627529 2.5810424 0)
(0.99866107 2.5460522 0)
(0.97830601 2.543992 -1.0755504e-18)
(0.7397785 2.5450967 -4.216117e-19)
(0.86214742 2.5715017 -1.020068e-19)
(0.86275906 2.5240041 8.1620853e-20)
(0.74969439 2.5804118 0)
(0.85017288 2.5706937 0)
(0.80536574 2.5913963 -3.9506536e-19)
(0.80747153 2.5952425 0)
(0.80908582 1.4454681 0)
(0.6910832 1.2635678 -6.238606e-19)
(0.76513074 1.2852913 -3.8480576e-20)
(0.73220035 1.3789366 0)
(0.72127368 1.3500711 9.528329e-19)
(1.0018242 1.2091195 -1.5769066e-19)
(1.0183526 1.3439796 0)
(1.0213497 1.2668727 2.3110316e-19)
(0.84069252 1.4044366 0)
(0.86204033 1.2848541 0)
(1.2483471 2.8197311 -2.7369125e-19)
(1.2078871 2.85919 -1.9390756e-19)
(0.99782646 2.3673425 3.2987531e-19)
(0.99838797 2.3971193 -1.1679442e-19)
(1.2184263 2.8074675 0)
(1.1761826 2.7617518 1.4853273e-19)
(1.2031206 2.6410781 -2.9422072e-19)
(1.1149057 2.484481 -2.930786e-20)
(0.6773833 1.6799017 0)
(0.68367829 1.4713298 -1.476894e-19)
(0.72933322 1.5362516 0)
(1.1361786 0.2311311 0)
(1.0176206 0.19684018 0)
(0.94003294 0.21531021 0)
(1.1316645 0.26552427 -1.0283507e-18)
(1.021047 0.25391266 5.9800577e-19)
(1.0917676 0.0043235152 -5.5768482e-19)
(1.1749819 0.055607321 0)
(1.1538909 0.076474246 2.5078042e-19)
(1.0255838 0.024852243 1.0190693e-18)
(0.9753552 0.0055954912 -6.4448442e-19)
(1.3265289 3.4669982 -3.4519544e-19)
(1.3080458 3.3988642 0)
(1.3474664 3.4214558 -7.7217764e-19)
(0.53506219 3.5228776 7.3687909e-19)
(0.78136104 3.0555628 -2.7543903e-19)
(0.63634326 1.1660105 8.2919385e-19)
(0.60751366 1.18098 0)
(0.54947676 0.74995996 -2.4768346e-19)
(0.64678838 1.0216393 1.2658641e-18)
(0.6710453 0.70883482 -3.4549798e-19)
(0.65747969 0.75116283 3.8494044e-19)
(0.8434111 0.7326022 8.0780409e-19)
(0.92066921 0.75785743 0)
(0.84275549 0.86397586 0)
(0.77880975 0.81492824 0)
(1.2844884 0.81406089 1.13008e-19)
(1.1944404 0.73442309 -7.8316908e-19)
(1.1969379 0.78230123 5.9691087e-19)
(1.2623114 0.69428337 -6.0645511e-19)
(1.3859977 0.69511797 0)
(1.3957235 0.76304744 -1.4344528e-19)
(1.1228653 0.52379046 -1.3468786e-18)
(1.1473182 0.50056594 -1.6154578e-18)
(1.0750432 0.51335125 1.05037e-18)
(1.0664836 0.48264557 -1.0817414e-18)
(1.1399033 0.40816947 -8.3775857e-19)
(1.0683144 0.41002312 1.0395616e-18)
(1.8959668 0.016488348 -4.5397552e-19)
(1.9197299 0.01879887 9.2064559e-19)
(1.6439863 0.038489914 5.7212379e-19)
(1.6559075 0.043681755 -6.8098647e-19)
(1.7420746 0.041876451 0)
(1.9065145 0.033098342 -1.2159942e-18)
(0.064184337 2.0217989 -2.9992298e-21)
(0.055864176 1.9620937 0)
(0.10301146 2.019053 5.853805e-20)
(0.11875952 2.0078678 -5.6190313e-20)
(0.098519285 1.9223121 -5.4135328e-20)
(0.084515872 1.912685 0)
(0.069073357 2.0918703 0)
(0.073628557 1.9076999 3.5982097e-20)
(0.064406423 1.8347274 -3.2554703e-20)
(0.030461415 1.979484 9.1909139e-22)
(0.01688426 2.2779876 7.4250826e-20)
(0.021707967 2.2801136 -2.8513234e-20)
(0.66203053 1.6850953 -2.8279073e-19)
(0.62520563 1.7218623 3.0017779e-19)
(0.58243038 1.708223 1.0319016e-19)
(0.58255185 1.6629733 7.4552765e-21)
(0.82329095 1.7169519 0)
(0.70547602 1.8207421 3.0218333e-19)
(0.77404298 1.8324531 -2.9332776e-19)
(0.61708042 1.7259843 -1.0239578e-19)
(0.6865732 1.6515746 0)
(0.73546251 1.6225037 0)
(0.71770364 2.5154419 6.1721181e-19)
(0.7169887 2.5863675 1.2511872e-18)
(0.76341912 2.5851294 -8.9925488e-19)
(0.6356286 2.5950281 -1.9463051e-19)
(0.6248614 2.6514564 3.034298e-19)
(0.57772245 2.6246983 -7.7007191e-19)
(1.0891807 2.5419313 -6.1791923e-19)