/*--------------------------------*- C++ -*----------------------------------*\
  =========                 |
  \\      /  F ield         | OpenFOAM: The Open Source CFD Toolbox
   \\    /   O peration     | Website:  https://openfoam.org
    \\  /    A nd           | Version:  9
     \\/     M anipulation  |
\*---------------------------------------------------------------------------*/
FoamFile
{
    format      ascii;
    class       volScalarField;
    location    "24";
    object      p;
}
// * * * * * * * * * * * * * * * * * * * * * * * * * * * * * * * * * * * * * //

dimensions      [0 2 -2 0 0 0 0];

internalField   nonuniform List<scalar> 
918
(
0.41866606
1.6373149
0.021573391
0.38050496
-0.016304817
1.6079735
-1.1062585
1.1888374
0.43962156
-0.30141018
-0.18781041
0.68554217
1.4793695
1.2390625
-0.86533393
-0.093189463
1.0940908
-0.90802131
0.43364604
-0.12748431
1.2843062
0.38875646
0.41598555
0.38994779
0.86354139
1.2182888
1.3422847
-0.031148314
0.016571806
-0.021382262
-0.026538162
-0.097657086
-0.10010702
1.48425
1.5382704
1.5619604
0.4474704
0.4031284
-0.85939535
-0.98618492
-0.92416932
-1.182016
1.1692361
1.1709974
-0.46220461
1.190554
1.208769
0.40611419
0.43434658
0.44441273
0.38438887
0.41440341
0.4306727
0.34073334
-0.32000396
-0.38136004
-0.25857347
-0.23528055
-0.052661049
-0.19221224
-0.19358296
-0.19291953
-0.17987469
0.51571221
0.64986566
0.63221684
0.70094717
0.73596695
1.5744111
1.5378526
1.5648323
1.5116567
1.5019618
1.4592183
1.4223705
1.2777585
1.2851109
1.2366005
1.200474
-1.3993319
-2.4469009
-0.28353049
0.025785668
-0.01486061
-0.077611073
-0.074814254
1.0702871
1.0660593
1.0970664
1.1166166
1.1568246
-0.84650932
-1.1175385
0.43621832
0.42939145
0.42281772
0.40464468
0.45075148
0.49599506
-0.14301198
-0.15257616
-0.08386501
-0.11158015
-0.096959253
1.2627608
1.2538303
0.40467025
0.40955371
0.75390572
0.81598839
0.79323845
0.36199661
0.88711776
0.92712391
1.012228
1.2088958
1.2205233
1.2014099
1.3284776
1.2838157
1.388964
1.4145544
0.0083801404
-0.00059863699
-0.10212149
-0.10087005
-0.10002627
0.46065744
0.47694645
0.46597763
0.43781231
0.43911585
0.34593304
0.20419159
0.49297384
0.51105794
-0.6910629
-0.78428873
-0.96753546
-0.98892482
-1.1992226
0.77065484
1.1513768
1.1526119
-0.51243618
-0.35732976
-0.60547704
-0.2648935
-0.3435521
0.42579948
0.4193247
0.4216735
0.40521856
0.40842245
0.40804073
0.41813056
0.41914489
0.43396376
0.41026418
0.55100914
0.2898183
0.2361752
-0.60659979
-0.41048904
-0.5867065
-0.21852165
-0.20972023
-0.030037778
0.017616189
-0.044968919
-0.03882915
-0.19958837
-0.19466134
-0.19818018
-0.19034097
-0.1760842
0.50423331
0.50599875
0.50366213
0.51137024
0.55189261
0.56154889
0.60457056
0.58830611
1.3483364
1.3720071
1.4166983
1.3796373
-3.8439998
-6.5337385
0.35648653
0.53953231
-0.028208288
-0.016660882
-0.0060014107
0.0055148928
-0.010921756
-0.021970425
-0.052109443
-0.047778571
-0.055346551
-0.064210723
1.0372252
1.026476
1.1029965
1.1407659
1.0206089
1.0113759
0.4433508
0.43938861
0.44497622
0.4378866
-0.1867143
-0.17176258
-0.16979383
1.2120222
1.2376397
1.2307996
0.27843423
0.17382501
0.40416543
0.44159595
0.9982093
0.95388803
0.98460519
1.087613
1.1221774
1.4040655
1.4160907
1.4539417
1.450717
1.4990134
1.4913392
1.4498074
0.49679666
0.48025752
0.50020427
0.44329157
0.45665409
0.45017392
0.51893095
0.48816844
0.50811809
0.037245454
-0.30167615
0.58954566
0.58172317
0.5578257
0.55318303
0.8454977
0.9355574
1.1170842
1.1336137
1.1363523
-0.12688081
-0.18699528
0.16836644
0.14458467
0.46225386
0.49025108
0.48936302
1.3224551
1.3228066
1.3691799
1.3314486
1.2727771
1.2955192
-0.32905922
-1.4982068
-0.88023433
0.94514565
0.72372501
0.82895666
-0.07114115
-0.049127495
-0.092699639
1.1121363
1.173987
0.60999617
0.86089655
0.86301609
1.170455
1.1932993
1.2647523
1.1902075
1.2167379
1.2413788
1.2244087
0.71825453
0.62523487
0.64870535
0.98147654
1.0339207
0.10444977
-0.0026374654
-0.020679782
0.023676992
0.076877098
0.047778206
1.1390837
1.0774963
1.1487896
0.41516505
0.40714742
-0.018997783
-0.033528941
0.44329783
0.41649677
-0.031844525
-0.070094279
0.80368664
-0.61434906
0.12522107
0.44400936
0.43262335
0.42857825
-0.29103521
0.29959874
-0.17626428
-0.045713785
-0.12292404
0.66738347
0.53180859
0.5162036
-0.044605834
-0.11965348
-0.15104554
-0.51063327
0.42246955
0.402097
0.41872813
0.40353489
0.43574032
-0.064513831
-0.053161762
-0.039067771
-0.15463252
-0.10814918
-0.11593137
0.47717978
0.50053027
-0.40359515
0.4324874
0.41869946
0.43567616
0.3935731
0.45238385
0.40496416
-0.10098583
-0.078155695
-0.12537492
0.32149096
0.45529554
1.1225637
1.2801755
1.1379879
0.75288978
0.42370672
0.97957877
1.0777999
0.94088294
1.1207213
1.1259618
1.1676471
0.19772161
-0.025938783
0.21916443
0.15815082
0.44198179
0.44511761
0.43388726
0.42928064
0.437048
0.41005266
0.43720316
0.43904349
0.43618157
0.45241706
-0.21742984
-0.2505921
-0.28773682
-0.37365895
0.31426435
0.59174916
0.21619721
0.25737622
0.063765567
-0.17505782
-0.17183247
-0.16633618
-0.18844793
-0.078757496
-0.14420363
-0.023525717
-0.039783763
-0.070020328
-0.10672653
-0.1217218
-0.12864292
-0.098725698
0.62655882
0.60640566
0.65830005
0.71090122
0.52392504
0.51142119
0.51736399
0.52523229
0.51597017
0.46664459
0.50931351
0.48148489
-0.066559413
-0.051920741
-0.039756589
-0.10526341
-0.098499563
-0.13798272
-0.11391518
-0.1347363
-0.10724485
-0.12062878
-0.17960015
-0.17111317
-0.46098571
-0.62330985
1.0555683
0.91435289
0.096581665
0.40307107
0.40042382
0.38847502
0.4273273
0.41512231
0.42035012
0.42115497
0.4182444
0.45251309
0.43485705
0.50241423
0.53042421
-0.31860963
-0.5555166
-0.28989761
-0.34401425
0.27057574
0.97456374
0.45375629
0.38076651
0.3863333
0.78325003
1.327089
1.1946603
1.2291022
1.271522
-0.2548403
0.23095059
-0.057866991
0.62062942
0.84269769
1.094546
1.1533123
1.1578948
1.1274471
1.062922
-0.16004846
0.83184901
-0.18543641
-0.16964409
0.1720764
-0.00707348
1.1793374
1.0991734
1.1053836
1.1496402
1.1858607
1.1116904
1.0532721
1.0694947
1.1410776
1.1424854
0.76635928
0.35019051
0.25308097
0.24386648
1.0633178
0.83339569
0.93119241
0.76779993
0.43743518
0.4525602
0.43658021
0.44304238
0.44180419
0.43134481
0.47296269
0.49143794
0.45457763
0.42597525
0.46070751
0.43465534
-0.20747627
-0.21352462
-0.17514539
-0.38258688
-0.36700345
-0.48199821
-0.25870052
-0.03088433
-0.065974112
0.14953312
0.27797842
-0.075068368
-0.27150073
-0.21390804
-0.15577517
0.066791203
0.12472814
0.00014524247
0.058096194
0.047559745
0.021435559
0.16311898
0.16836093
-0.14151299
-0.12841404
-0.15433338
-0.15496739
-0.068261669
0.035760432
0.044443511
-0.13251266
-0.12686497
-0.17238832
-0.17167632
-0.10919174
-0.13985928
-0.12174245
-0.097485489
-0.14191008
-0.10331795
-0.12492056
-0.16397542
-0.13973152
-0.11173639
0.554838
0.57819964
0.56384621
0.73012773
0.72564808
0.76599348
0.73501582
0.480535
0.49682919
0.48752968
0.54807108
0.51957349
0.55641516
0.57366811
0.60789678
0.62083154
0.51693096
0.49545285
0.58914999
0.5451521
0.54184446
0.5518318
0.57593444
0.51741037
0.53773806
-0.13327553
-0.092914724
-0.10699258
-0.13949701
-0.067334503
-0.080756992
-0.12590869
-0.1205197
-0.15950817
-0.086448467
-0.0891667
-0.1689855
-0.17549463
-0.2859264
-0.12270272
-0.51120389
-0.54711556
-0.64785226
0.94758688
1.10611
0.84821401
0.56654063
0.60017054
0.88662918
1.0298071
0.54238774
0.67358231
0.78922668
0.73487621
0.96881468
0.42398346
0.41693977
0.43044756
0.4101383
0.43769814
-0.13063047
0.062005574
-0.0033707328
0.17533272
0.38871448
0.43883625
0.25832212
0.19646146
0.35273279
0.24737301
0.97481692
1.0087427
0.88176582
0.93690711
0.93542307
0.59771304
0.78702207
0.91407444
0.80132187
0.8837032
0.91503451
0.84112993
0.8947152
0.81752964
0.70808732
0.7290512
0.54157393
0.60584957
0.56283149
0.53568611
0.64082279
0.60112621
0.63781909
0.62923755
0.68866248
0.78934206
0.77066097
0.77900794
0.83130331
0.68234723
0.60794263
0.63054804
0.69986169
0.58343768
0.60125749
0.63895844
0.25779968
0.27193754
0.14311462
0.041391961
0.12503569
-0.035685205
-0.057380844
-0.022810719
0.29135566
-0.34390319
-0.33100856
-0.70186158
0.70833513
1.3529242
1.1066307
1.0979199
1.1852185
1.144927
1.1336598
1.1990563
1.2069101
1.0519582
1.0916375
1.0918834
0.98193112
1.0275188
1.1207961
1.1026757
0.79606454
0.52989114
0.48468901
0.46169507
0.21336337
0.28900693
0.66623286
0.52580824
0.38940013
0.39276066
0.71097214
0.47447688
0.60083297
0.70566208
0.55356381
0.47452635
0.85195327
0.99076939
0.9846054
0.93292882
0.74799196
0.78454807
0.84973578
0.92004404
0.95944086
1.036366
0.44753077
0.45230464
0.44717095
0.43177495
0.46031038
0.46167095
0.46015636
0.44314728
0.44618527
0.44403808
0.45702501
-0.18053252
-0.16622353
-0.18757286
-0.19896685
-0.14902202
-0.1695301
-0.094127354
-0.11825709
-0.12981613
-0.12146026
-0.16794113
-0.18147129
-0.16259812
-0.14571514
0.022230917
0.051920654
-0.001115617
-0.0085642783
0.18890555
0.32716123
0.38195726
0.30007156
0.11870756
0.14265455
0.21122733
-0.079947164
-0.062952432
-0.040162422
-0.031539328
-0.024631583
-0.16621476
-0.17842052
-0.15499605
-0.15138144
-0.14592093
-0.16663274
-0.18715429
-0.20110619
-0.18466838
-0.18087104
-0.18004009
0.47930681
0.50173475
0.55549671
0.52126444
0.51721221
0.53833576
0.50672029
0.52445856
0.52718718
0.55792031
0.54686221
0.58479921
0.57297251
-0.19121816
-0.20252339
-0.2103868
-0.19711058
-0.17981675
-0.19224442
-0.17795824
0.10609373
-0.038074844
-0.0043800117
-0.1211667
-0.35572077
-0.24902395
0.47605611
0.61196226
0.60991082
0.83751798
0.62343966
0.57406569
0.72171626
0.84395352
0.27184028
0.50054489
0.31259811
0.96875818
0.87326258
1.046788
0.59092952
0.27344931
0.50263856
0.59273096
0.28326623
0.3941649
0.39383669
0.23066876
0.3049184
0.32493067
0.47569308
0.27619639
0.33005359
0.26141883
0.28528635
0.33957995
0.36052177
0.45618555
0.51823417
0.20869007
0.17473929
0.10727253
0.98767431
1.0092697
1.0415921
1.005486
1.0447341
0.84874772
0.84263635
0.88391416
0.89169594
0.86692707
-0.53335674
-0.63104018
-0.97403483
-0.43104378
0.181132
0.74608385
0.63292145
1.1900635
0.9381567
1.1626449
1.112471
1.0609781
0.97697267
0.95399936
1.0412703
0.52843465
0.69920443
0.67289972
0.65033413
0.47876152
0.38807904
0.93788638
0.92122795
0.99350363
1.0270129
0.96861057
1.0464592
0.47231549
0.49228156
0.46893852
0.4866458
0.47539844
0.48173447
-0.04999248
-0.099518055
0.0064682422
-0.011579865
-0.091629268
-0.11386022
-0.21344507
-0.16591496
-0.18821915
-0.18796792
-0.21069411
-0.22683917
0.13142228
0.0900487
-0.10462397
0.008590641
-0.15729835
-0.25570644
-0.31758681
-0.1364224
-0.0074332354
0.012371461
0.40123139
0.68478131
0.52922007
0.64148292
0.46718432
0.57973623
0.55784845
0.51426524
0.55478776
0.43164396
0.44777582
0.43261382
-0.35653666
-0.025209239
1.2379656
1.1731393
0.78770699
0.63824418
0.58139999
0.9134503
0.83663424
0.68668386
0.78428655
0.90593607
0.89403646
0.21627784
0.19951329
0.54862137
0.68442229
0.33669212
0.21414403
0.1812336
0.35026683
0.40205077
)
;

boundaryField
{
    wall-4
    {
        type            zeroGradient;
    }
    velocity-inlet-5
    {
        type            zeroGradient;
    }
    velocity-inlet-6
    {
        type            zeroGradient;
    }
    pressure-outlet-7
    {
        type            fixedValue;
        value           uniform 0;
    }
    wall-8
    {
        type            zeroGradient;
    }
    frontAndBackPlanes
    {
        type            empty;
    }
}


// ************************************************************************* //
