/*--------------------------------*- C++ -*----------------------------------*\
  =========                 |
  \\      /  F ield         | OpenFOAM: The Open Source CFD Toolbox
   \\    /   O peration     | Website:  https://openfoam.org
    \\  /    A nd           | Version:  9
     \\/     M anipulation  |
\*---------------------------------------------------------------------------*/
FoamFile
{
    format      ascii;
    class       surfaceScalarField;
    location    "24";
    object      phi;
}
// * * * * * * * * * * * * * * * * * * * * * * * * * * * * * * * * * * * * * //

dimensions      [0 3 -1 0 0 0 0];

internalField   nonuniform List<scalar> 
1300
(
1.7582594
5.6264299
-6.4361206
1.7582594
-6.8738355
5.6264299
-6.1343269
6.1343269
-1.5148431
1.5148431
3.7344608
3.6502285
-4.3822472
4.3822472
-3.8228439
3.8228439
-2.133084
2.133084
-5.2377117
5.2377117
-5.0568953
5.0568953
4.755662
-4.755662
-5.901953
5.901953
-2.0871857
2.0871857
-5.4590739
5.4590739
1.481329
-1.481329
-4.3318261
4.3318261
-0.37964955
0.37964955
-0.57556642
5.1470407
1.1826929
1.1826929
-2.4368372
2.4368372
-4.8494893
4.8494893
6.2142749
-6.2142749
9.5124297
-9.5124297
-3.0763091
-4.0120256
1.6327538
-10.943421
-5.2410817
-5.2410817
-8.4382672
8.4382672
-2.8118372
2.8145927
1.6131708
-1.6131708
-1.7781259
1.7781259
-6.1169602
-0.017366673
-6.1169602
6.1444105
-0.010083605
6.1444105
-1.6855262
0.17068309
-1.6855262
5.438517
-5.438517
1.3049956
0.20984751
1.3049956
1.2570483
-1.2570483
-3.7366953
7.4711561
3.647994
-3.0523876
8.1994284
-3.3945634
7.0447918
-6.5747276
6.5747276
-4.6362775
0.25403032
-4.6362775
4.1934195
0.18882777
4.1934195
-7.5202548
7.5202548
-3.8382237
0.015379767
-3.8382237
3.8645421
-0.041698222
3.8645421
2.5121226
-2.5121226
-1.977133
-0.155951
-1.977133
2.2744932
-0.14140924
2.2744932
0.35898309
5.2674468
-5.985413
8.8000057
-5.2674468
0.029735149
5.2000698
0.037641838
5.2000698
-5.0935439
0.03664861
-5.0935439
5.0138518
0.043043535
5.0138518
4.8524985
-0.096836543
4.8524985
-4.8568132
0.10115128
-4.8568132
-3.5225396
-5.0788137
-6.3565058
0.45455282
-6.3565058
-2.1050111
0.017825361
-2.1050111
2.0412426
0.045943104
2.0412426
-4.1426087
4.1426087
-5.881152
0.42207808
-5.881152
1.3558566
0.1254723
1.3558566
2.0100031
2.5614713
3.7682624
-3.7682624
2.2869334
-4.1369534
-0.19487276
-4.1369534
-4.590858
-4.9215717
4.590858
-0.25903188
-0.78593881
0.40628925
-0.78593882
1.2318054
-0.049112474
1.2318054
2.3913477
-0.11685452
-2.3913478
-0.04548941
3.7661514
-3.7661514
1.8968572
0.53998
1.8968572
-5.5761234
5.5761234
4.9523943
0.061457444
-4.9523943
0.10290505
6.1538378
0.060437088
6.1538378
-6.1927105
-0.021564475
-6.1927105
3.1630533
-7.1750789
-4.3975683
5.5037762
0.39817688
-5.5037762
0.26269448
1.8132157
-0.20004491
1.8132157
-1.3390138
1.3390138
-1.4894221
-0.12374864
-1.4894221
-2.1091923
0.33106642
-2.1091923
1.5100956
0.26803029
1.5100956
-5.9259793
-0.19098093
-5.9259793
-6.0785401
0.19738817
6.0785401
0.065870319
1.4211685
-1.4211685
-1.8377542
0.15222805
-1.8377542
-5.6615987
-0.26438055
5.6615987
-0.22308176
-5.2730251
-0.1654919
-5.273025
-1.3533085
-0.13611366
1.3533085
-0.096260161
1.2571297
-0.025324259
-1.2571297
8.1377099e-05
-3.0527035
5.6141747
-3.3942475
7.0422415
-6.1971627
-0.37756484
-6.1971627
6.9084435
-0.33371597
6.9084435
5.065803
0.39327087
-5.065803
0.42952549
4.0334593
0.15996019
4.0334593
-7.4657203
-0.054534536
-7.4657204
7.5275808
-0.0073259448
7.5275808
3.9063934
0.12706592
-3.9063935
0.068169781
3.9354898
-0.070947756
3.9354898
2.748979
-0.23685638
2.748979
-2.2802477
-0.23187494
-2.2802477
1.6369712
-1.6369712
1.8095885
-0.17261728
-1.8095885
-0.16754443
-11.148724
11.12716
-0.03578483
-11.112939
5.164285
5.164285
4.0620486
0.79044989
4.0620486
-5.0467293
0.18991609
-5.0467293
3.1615164
-7.5590847
4.8543257
-8.3768652
4.9833001
-15.926721
3.9583916
-9.0372053
7.179582
-7.179582
6.8148757
0.3647063
-6.8148756
0.45836987
-2.091864
-0.013147114
-2.091864
-3.5197844
-0.62282434
-3.5197844
4.8091957
-0.66658698
4.8091957
-1.3275436
1.3275436
-1.3249569
-0.0025867317
1.3249569
0.030899699
4.0266922
-0.091202417
-4.0266922
-0.11026116
1.0599005
0.24509501
-1.0599005
0.27396172
4.2266535
-0.4605021
4.2266535
-3.3229052
-0.44324613
-3.3229052
-2.0174939
-0.074370061
2.0174939
-0.12063676
-5.8207415
0.2446181
-5.8207415
-11.213436
0.10049625
-11.175794
-6.0922142
-6.0922142
2.3460529
11.146059
-2.0410599
-0.23918779
2.0410598
-0.22784414
1.3370495
-0.0095058443
-1.3370494
-0.001964388
-1.4729065
-0.16406471
1.4729065
-0.13389263
-2.5350161
0.4258238
-2.5350161
-1.2332315
1.2332315
-1.322325
0.089093504
1.322325
0.18777059
1.7274078
-0.30623929
1.7274078
1.9558727
0.085369935
-1.9558727
0.1181185
-4.9815371
-0.29148798
-4.9815371
7.1701538
-0.26171028
7.1701538
-3.0250246
-0.29788065
3.0250246
-0.27604554
-0.035229926
11.16239
-5.129055
0.035511098
5.129055
-11.222827
11.258338
-3.1139463
0.57893021
3.1139463
0.94810229
5.3090194
0.267104
-5.3090194
0.26229008
7.4120425
0.11553824
-7.4120424
0.23246039
-3.0069025
-0.5128819
-3.0069025
-5.5563852
-0.6407775
5.5563852
-0.74718952
-11.475714
-0.19541198
11.671126
-11.432671
6.0161534
0.1376844
-6.0161534
11.396022
-1.2548633
-0.16630516
1.2548633
-0.021631815
2.0758513
-0.34844349
2.0758513
4.6705142
-0.44386077
-4.6705142
-0.31102285
-7.3351439
-0.13057641
7.335144
-0.16499015
-2.5188459
-0.48805653
2.5188459
-0.44299467
-5.3410806
5.2919682
2.8583477
-2.8086306
-4.3664483
-7.7302024
2.5502506
3.0639241
4.8371839
-10.263905
-5.6628163
-10.001211
7.2759676
-7.0136775
-9.5041996
9.407363
9.9436316
-10.109123
-7.3657388
7.3966385
8.6806416
-8.7769017
3.7739376
3.6972185
10.850379
-10.596349
-16.831976
16.454411
10.19863
-10.18325
16.890867
-16.945402
-19.259443
19.374982
-7.3634717
7.2075207
-8.8420812
8.6102063
-8.9657655
8.6897199
-2.717153
-5.6597123
14.093203
-13.63865
10.859498
-11.054371
-11.516047
11.938125
4.0520998
1.2398684
4.0267755
-3.6193188
7.3932564
-3.425473
6.2838207
4.6175987
-7.3347516
2.9414861
-7.3079343
5.8078229
5.0516751
-5.5487907
-2.1814117
-8.0381371
7.8380922
-7.6244587
7.4905661
12.073511
-12.090877
-3.6019381
7.2991566
-3.4403033
6.5042274
-3.7122356
-3.6535033
3.5867633
1.2504206
8.221886
5.8713167
-8.6200628
-1.3811479
-10.137151
9.6932899
-10.616905
10.173658
-0.45709065
5.7906241
-5.3335335
4.3923987
-1.4731735
7.2637976
5.8027941
5.9927102
5.8685824
-5.6014784
1.1450951
-6.4786286
-6.3757235
-3.4306988
3.5829268
3.3495844
-3.1397369
7.8933494
2.0502822
7.6702676
-7.0931836
-3.0159399
-7.3846716
4.4863099
2.9103286
4.4837232
5.2705448
3.4100967
5.1344312
5.871251
-5.9473186
0.076067554
-5.4529828
11.324234
1.3518381
-9.1064861
-7.8560655
6.9159991
3.9343799
7.1048268
-7.5091756
-3.087173
-7.0796501
-10.259033
-6.5729433
-10.89981
10.975591
5.4788202
10.641875
-12.873015
12.708025
6.5433302
3.6552996
6.501632
-6.8428899
-3.3403602
-6.7747201
13.21203
-3.2320755
-9.9799542
-11.089957
-8.1694864
11.097283
5.7935838
11.867969
7.5070124
12.10043
4.895006
8.3170237
-10.68859
2.5191035
-4.4911282
-2.8723435
-4.6586726
4.5541853
2.6533354
4.4127761
-5.2213966
-3.6206846
-5.4605843
-5.1376244
-3.8281411
5.3744807
3.2357256
-5.2710782
-5.3458264
5.5689588
3.1207612
4.9819733
-10.64479
4.0552321
-9.7149443
-10.049187
-3.589463
-9.590817
5.6594842
2.1618268
-7.821311
-1.6752674
11.164613
-6.1129383
8.9832017
-6.5721299
-4.4822407
-6.6823911
-9.1528165
-2.3632307
-8.9554283
-9.5562466
9.0433647
-9.9451129
9.2785259
13.870956
-6.7400711
-7.130885
-4.883595
-3.8933067
4.8835136
-0.85673808
-7.2132226
7.2892901
0.18003381
6.4638545
7.7037229
6.8469848
-4.534004
-3.0904547
-4.5359684
4.7239163
2.7666498
4.5598516
9.1429347
2.9305759
9.1328511
-8.5884331
-3.5024441
-8.7794141
9.5436966
-9.2126302
3.5590049
-3.633375
6.7220706
3.4515878
-6.2615685
-3.8755822
8.9024745
-4.0371996
-4.8652749
-12.084193
10.658365
1.4258277
-4.820395
-0.42799636
-0.048346816
-5.5785347
-3.9256649
5.4773834
0.51532678
11.173692
7.2480269
-5.517608
5.7622261
6.1535183
6.2149758
-0.16074772
6.0794466
-5.5005164
7.1023071
-3.0818971
-4.02041
7.0078994
-7.2722799
-1.7715147
-7.1522431
5.3807284
0.39798775
2.2809296
-1.8746403
-2.7219644
-0.70873442
-2.6038459
1.9715537
1.3780307
2.2166488
1.3175115
2.2654153
-3.9694065
0.70363852
3.265768
-2.651895
-2.4360984
-4.9302114
-1.3851848
6.3153962
7.2075377
2.4857522
-6.8965149
-0.48815669
3.5732575
-3.5273144
-1.1077827
-3.8224287
2.8343348
-3.9421176
-4.9611088
-2.508128
7.4692368
-3.7814363
-0.75453212
3.7909421
0.69278104
-4.7186433
-3.3194937
4.842392
0.2920392
-5.2528251
10.884598
-5.6317724
-8.3432798
4.5444299
6.7798039
7.4547585
-9.1411081
4.7234612
4.4176469
-2.3613043
5.94037
1.1644568
6.1003302
-9.1049151
6.0177421
7.8674453
4.0706799
-8.2607162
1.1810661
-7.923849
10.52575
-9.1825783
-1.3431718
5.2301115
5.2956387
7.5840872
6.2868688
-6.0450407
13.629128
-1.4681097
-7.7144686
9.3919587
-5.3212788
6.1062713
-11.42755
-12.39314
4.6786715
-9.8581982
11.83174
-1.9735418
-3.839702
-9.0333127
13.6979
-1.3468518
-12.351048
9.295023
-5.4751339
-5.7087093
11.183843
-8.7072093
9.0490694
-2.5719272
-6.4771422
-10.817398
-6.1280036
10.947974
1.7600503
-12.165554
14.684658
-3.8485304
5.541353
0.96027897
5.4704052
4.1632687
-6.6794362
2.5161676
4.5439406
-7.1158678
2.6582476
-9.3376838
-7.8388452
13.707738
-5.8688931
-11.428308
-10.769502
-0.65880582
2.8387208
11.845937
-10.345733
7.8951836
2.4505496
3.9838004
0.57605123
-3.8111831
-0.84748942
0.7141245
6.5978905
-7.312015
5.1269006
5.0100461
5.1318183
1.4660722
5.0279776
2.8101145
-4.8001335
-0.66045082
-6.0832486
2.2551075
-2.847523
-6.036274
8.2913815
-6.8366807
0.80040672
-4.0904617
-6.085149
10.175611
-6.9628052
5.2956001
5.5889975
8.0622499
-8.4708267
2.3856777
-4.3551511
-4.1156756
4.451003
-7.2985259
3.113374
5.1780076
6.2341351
0.88830878
7.3970449
6.3106934
-9.5588716
-0.15607269
12.18201
-10.800862
2.9302122
9.1702174
-10.825396
0.055893372
-9.5349237
0.67700858
-6.789947
-7.1443024
6.7087619
-9.0719926
-4.7187882
8.3127547
0.82009634
-8.378625
-0.57680325
-6.5195388
-3.0367078
-7.0075953
-3.3077663
-6.6373466
-9.3528071
-1.7831937
-7.5696133
7.260171
-7.2366185
-3.6631916
7.983808
1.2947179
-8.0054008
7.8390957
-8.0608558
7.7124123
0.26578333
7.0235068
7.1127681
3.2194614
-4.6622025
7.8816639
-6.7094922
9.6400681
-11.31236
4.6028673
5.3867318
-8.8891758
-5.9256278
5.4599699
4.0837267
5.7280002
9.3720502
-10.803291
1.431241
-11.023788
12.609079
-1.5852907
-17.080473
6.0566852
-7.7084229
3.4056659
0.15333901
3.3925188
0.99662256
2.8451436
-3.8417662
-2.6367524
-2.7573892
-3.3416845
-4.9564173
8.2981018
1.6886815
-4.7763871
3.0877055
-4.6752526
6.3639341
0.18323394
-4.959621
7.0503525
-4.2052088
7.2036915
-4.4920187
2.7116728
4.6972657
8.3013055
-3.6040399
6.1061917
-2.6546038
2.7258078
-6.3298477
-2.2306095
-4.8655676
7.5189029
-5.3100432
6.1104499
-0.20688792
6.3173378
-5.6254124
1.5882128
-0.49359406
4.516452
4.4709626
6.5581429
-5.0920707
4.6369797
-7.2915835
-1.692868
-6.4032747
-1.2252671
-0.49152182
-5.0447706
5.5362924
6.7031357
-7.1946575
-5.3564462
9.7470201
-4.3905738
8.063806
-5.5417162
-2.5220898
-4.5536504
-4.6589798
4.1278266
1.95162
10.015426
0.27241689
-5.8141331
-5.2280995
-4.2799972
4.3983768
2.7039303
-2.3861727
3.8120004
2.4345195
-0.15358998
0.8177629
1.3988859
2.4897617
-1.6719988
0.20179275
2.287969
-1.6728476
2.6350896
0.93816784
-2.7204596
0.11661369
-1.9027547
4.7370896
1.3630133
-2.741044
1.0690451
1.6083076
-4.6902047
6.4125467
-3.1665474
-3.2459992
8.0208543
1.5644346
-4.730982
5.5878085
-5.1898208
3.1127299
-4.4979147
-1.6182521
-6.8080729
-4.7577907
-3.5859001
6.6736056
-4.7122017
7.1979539
1.7124968
-6.7097972
8.422294
-4.7517269
2.2435988
-4.2069099
5.1450777
-1.6122073
-2.5947026
3.7293897
3.7398471
-3.931933
0.10950428
-0.20254327
3.1333207
-3.3358639
-0.8087969
-3.4606919
-7.4619811
7.7540203
-3.8297795
8.5532408
4.0518844
-3.4673745
12.020615
3.2694159
-6.7367904
-5.0738639
-5.8283961
-2.3191435
5.135615
-0.80422422
-5.9704958
-7.2813663
5.8434298
0.25690039
-9.1868033
10.317629
-1.1308258
-5.2524234
-0.76531872
5.9954302
-7.7740346
0.65816679
-5.1157869
5.2018422
6.3662991
6.6231995
-12.162666
-0.18838243
-6.6838457
1.339365
-8.0232107
6.6350037
-3.8016077
8.4802792
-11.122238
7.4590466
-9.8275203
7.1371073
-0.88610335
7.0460757
-4.5299081
2.9338786
-9.0618823
-7.301832
7.1125687
-3.4572691
8.0728477
-3.8780435
11.950891
-7.726574
6.5571427
5.3937486
-1.2999336
-5.3824575
-6.5538879
5.2539543
0.0032547031
5.4736599
7.566659
-4.7565444
6.9062082
4.0130024
-8.3681535
-3.2855235
-11.655823
3.287669
-6.066825
-3.0102529
6.297922
5.0519969
5.6280482
2.1822464
-4.7805588
9.1618632
-9.8206691
-3.2929701
-3.8513323
6.5138924
-1.2599381
4.7582954
-8.6096278
-2.0316516
5.7060656
-0.66238061
-5.043685
1.0340055
-5.7527937
2.2728415
-8.0256352
6.7991511
-7.3759544
2.3471175
-10.05554
-5.6582833
-5.6799151
-2.4267177
-5.6341382
-7.9554034
5.5286857
-1.8987182
5.9403774
-8.8867459
8.2243653
-3.7223328
9.2510185
-5.865354
-1.1422413
6.3083487
1.4040636
10.655082
0.33796381
-6.2635916
-2.647192
5.4412601
-2.7940681
1.7511848
-4.7068068
0.73445325
3.3619341
4.6589202
-8.7426624
-0.14651339
-6.410105
-4.1574066
8.2411332
5.5896135
12.292749
1.489458
9.3924518
-1.1513186
10.88191
4.5766816
4.7644522
-4.0828475
5.5140885
1.4534449
6.0563123
-1.0345882
3.746261
2.3579306
2.375756
1.1515584
2.6692761
1.8016865
4.2574889
0.41572275
-2.3416665
4.7045937
-8.9845909
-1.1095395
-8.194141
1.2132221
5.8857526
-4.6725305
4.2546881
-1.5507578
1.46062
0.11050048
-2.4097964
2.2992959
-3.9099095
-2.5633864
-0.2754174
-2.1237677
3.1928128
2.6133219
-2.9173954
-0.99251415
0.37338794
-5.1311786
4.1245268
-4.0150225
-0.27517543
8.1471185
-3.7007466
0.36488262
-1.4571477
-3.0958093
-3.8045437
3.68793
11.434506
0.58610886
5.802734
8.3401292
5.0206355
0.26409105
4.8661769
-6.8397187
-4.4715069
-7.0281011
-0.39309745
5.6023327
2.0109101
9.8350269
7.4046586
6.1447205
-2.4649073
-12.285576
8.204067
-2.6899785
6.6187763
-1.5750914
-6.4505438
6.5561054
3.0839627
-7.3762017
0.00024737591
-6.4502964
-9.140275
-0.48379416
8.7081595
-10.171288
9.0290467
5.9923389
1.5772745
-4.8151836
-0.86473147
4.7260901
0.038362019
10.920272
-1.2052289
-7.1360348
8.3412637
-4.6805237
3.5709842
0.99071477
2.8212856
3.2900106
1.7392528
-5.396782
-10.069313
-2.5516475
-2.1385572
-5.7976468
0.51774943
-3.1310713
6.2921093
-2.7211251
3.7700195
5.6201386
7.0807586
-2.0487979
-5.1458596
6.4393717
-2.6693523
4.4114063
)
;

boundaryField
{
    wall-4
    {
        type            calculated;
        value           uniform 0;
    }
    velocity-inlet-5
    {
        type            calculated;
        value           nonuniform List<scalar> 8(-1.7582594 -1.7582594 -7.3846893 -4.5714743 -7.3846893 -6.446951 -4.5714743 -6.446951);
    }
    velocity-inlet-6
    {
        type            calculated;
        value           uniform -5.6264299;
    }
    pressure-outlet-7
    {
        type            calculated;
        value           nonuniform List<scalar> 8(6.4361206 6.8738355 7.0883347 9.3106677 8.6013533 7.5606215 8.0158421 8.9416918);
    }
    wall-8
    {
        type            calculated;
        value           uniform 0;
    }
    frontAndBackPlanes
    {
        type            empty;
        value           nonuniform List<scalar> 0();
    }
}


// ************************************************************************* //
