/*--------------------------------*- C++ -*----------------------------------*\
  =========                 |
  \\      /  F ield         | OpenFOAM: The Open Source CFD Toolbox
   \\    /   O peration     | Website:  https://openfoam.org
    \\  /    A nd           | Version:  9
     \\/     M anipulation  |
\*---------------------------------------------------------------------------*/
FoamFile
{
    format      ascii;
    class       volVectorField;
    location    "24";
    object      U;
}
// * * * * * * * * * * * * * * * * * * * * * * * * * * * * * * * * * * * * * //

dimensions      [0 1 -1 0 0 0 0];

internalField   nonuniform List<vector> 
918
(
(0.40855773 -0.00012546751 0)
(0.0090456088 2.9576279 0)
(-0.033242131 1.7016865 0)
(0.28973092 -0.0087184876 0)
(-0.008126754 1.8194349 7.7121128e-20)
(-0.011744067 2.9485779 -3.1497361e-18)
(1.0775003 1.6574671 9.237003e-19)
(0.47071967 0.2766524 -2.5311635e-20)
(1.9884286 0.0032732669 0)
(0.023739356 1.258655 0)
(-0.012684538 1.078779 0)
(0.56296856 -0.02375102 0)
(0.012838624 2.9163477 0)
(0.013784268 2.7907336 0)
(0.10141635 3.1840257 4.6519113e-19)
(-0.038881587 1.8212017 7.2968749e-20)
(0.6148508 0.15093144 1.6418251e-18)
(0.22464556 1.7111714 7.2383755e-19)
(0.35898058 0.0031396665 0)
(-0.019564834 1.2554769 0)
(0.092617508 0.26519233 -1.274738e-18)
(1.0472092 -0.022303507 0)
(0.54321998 -0.029086913 0)
(0.2460123 -0.0071134935 0)
(0.6917882 -0.010910061 0)
(0.024469382 2.6146303 0)
(-0.0099534397 2.9059252 1.148884e-18)
(-0.06165074 1.6746723 0)
(-0.10840977 1.8812407 0)
(-0.047528844 1.6774478 0)
(-0.042001214 2.4937248 0)
(0.0055116083 1.8955144 -6.0343815e-20)
(0.0040254387 1.6644877 0)
(-0.018161666 2.9813234 -1.1677741e-22)
(-0.018375016 3.0070231 2.4454174e-18)
(0.00086001827 3.0015937 0)
(0.3402104 0.013574701 0)
(0.43467957 0.91432212 2.2501733e-19)
(1.1766013 1.6349659 -1.1152975e-18)
(1.2468934 1.515703 1.1627532e-18)
(0.98675556 1.7710844 -2.0949583e-19)
(0.87752028 1.7760134 1.213088e-18)
(0.58861696 0.32830655 2.4614123e-20)
(0.50831426 0.25393621 0)
(1.5225225 0.87261323 0)
(0.52537816 0.33794621 1.1294149e-19)
(0.42372722 0.2834936 -1.1768365e-19)
(0.24102745 -0.0096202325 0)
(1.9894861 -1.7476502e-05 0)
(1.9886824 -0.0026709791 0)
(1.3562412 0.00040640272 0)
(1.8674571 0.0048436977 0)
(1.7379681 0.0028958512 0)
(0.026609732 2.0357896 -6.0586357e-19)
(0.043415912 1.467868 0)
(0.046514743 1.3464779 0)
(0.026895059 1.4189435 0)
(0.020302865 1.1881772 0)
(8.2433422e-05 2.2521802 0)
(-0.0066495224 1.2732824 0)
(-0.0016379292 1.0868084 0)
(-0.019533696 1.280597 0)
(-0.017024942 1.0934049 0)
(0.67874802 0.03288501 0)
(0.73342411 -0.037059992 0)
(0.50284038 -0.022513771 0)
(0.76592511 -0.03216229 0)
(0.6193245 -0.020156067 0)
(0.016738938 3.0145157 1.2033236e-18)
(0.012391188 3.0113788 0)
(0.0077282713 3.0035773 0)
(0.013328432 3.0004884 1.2796077e-23)
(0.010556834 2.9476307 -1.718561e-18)
(0.016842752 2.9848911 0)
(0.013436564 2.893835 0)
(0.017704369 2.9238636 2.7224655e-24)
(0.013864624 2.8181309 0)
(0.017745966 2.9101861 0)
(0.011266501 2.7538478 0)
(0.25179403 3.6446409 0)
(0.17927134 3.5816903 0)
(0.13523374 3.317282 -4.351729e-19)
(0.050192569 3.0072288 0)
(-0.20635249 2.296678 0)
(-0.064097148 2.0496581 -7.1591789e-20)
(-0.05267035 1.9373609 5.3842414e-20)
(0.75981224 0.17232683 -5.6498865e-19)
(0.63329818 0.11512032 -5.4182531e-19)
(0.73652736 0.21246815 -1.7063883e-18)
(0.59457014 0.18212392 -1.1322854e-18)
(0.18031999 1.1640034 0)
(0.34658359 1.8512815 -7.7337756e-19)
(0.43628709 1.8342475 1.2891523e-18)
(0.54934442 0.037312674 0)
(0.29852128 0.022249624 0)
(1.2186942 -0.0013675461 0)
(0.73875546 -0.035225273 0)
(0.65099011 0.017181354 -2.2937398e-18)
(0.64752626 -0.026343613 1.8115804e-18)
(-0.030671593 1.3784466 0)
(-0.016789327 1.1975622 0)
(-0.081963404 1.6272742 0)
(-0.038376253 1.449675 0)
(-0.022777054 1.3380515 0)
(0.17936813 0.31250252 3.8867772e-19)
(0.26229934 0.26203806 0)
(0.50340957 0.018329203 0)
(0.24170709 0.013272886 0)
(0.79284724 -0.02722428 0)
(0.8089429 -0.019412446 0)
(0.66837746 -0.018194203 0)
(1.0883812 0.057752062 0)
(0.79559789 0.0079479734 0)
(0.64307241 0.01654756 2.2205745e-18)
(0.0021749453 2.8618159 9.6725679e-19)
(0.021700619 2.8989346 0)
(0.03660521 2.8734228 0)
(0.016000895 2.7024309 0)
(-0.010398008 2.9857796 1.1061814e-18)
(-0.0090682131 2.8908569 0)
(-0.011748784 2.9907636 -3.4061539e-18)
(-0.0095895684 2.9158789 1.1668106e-18)
(-0.16466572 1.9362516 0)
(-0.1683029 2.0133307 0)
(-0.043142373 1.9417381 3.0809894e-21)
(-0.012436555 1.8664464 0)
(-0.022771874 1.7198966 0)
(0.6794959 0.045101414 0)
(0.40779899 0.027378749 0)
(0.26461627 0.00048175624 0)
(0.63398886 0.026200593 0)
(0.29982711 0.021223807 0)
(0.52145811 1.0942341 -2.786586e-19)
(0.55447315 1.130822 0)
(0.41328236 0.90106401 3.8478457e-20)
(0.31986882 0.68660135 0)
(1.3113727 1.4566927 -3.2761974e-19)
(1.3610643 1.3036476 6.4107294e-19)
(0.56094299 1.9008046 0)
(0.78150038 1.8706167 0)
(0.66321757 1.8425319 0)
(0.15144477 0.25897447 -3.6092217e-19)
(0.63644556 0.30560278 0)
(0.5421387 0.23531929 3.210448e-19)
(1.4206824 1.2453529 0)
(1.5033212 1.0237264 0)
(1.4509012 1.0848161 -5.0342125e-19)
(1.5675484 0.81124256 0)
(1.5695501 0.67829413 8.9267669e-20)
(0.596474 0.037053663 0)
(0.5479168 0.022713188 0)
(0.26198786 0.01974852 0)
(0.52105426 0.0066900336 0)
(0.53052649 -0.011846924 0)
(0.2492838 0.006331556 0)
(1.4988838 -0.0022036318 0)
(1.8698948 -0.0026927812 0)
(1.7318559 4.2860343e-05 0)
(0.04070049 2.2553495 3.3578259e-19)
(0.050792433 1.9604837 0)
(0.033004846 2.3436703 5.0426875e-19)
(0.020615138 2.0961723 -3.9338875e-19)
(0.16374109 1.7005294 -5.9656614e-19)
(0.075139783 1.5501946 0)
(0.098065103 1.5161594 0)
(0.025965621 1.3663248 0)
(0.01881299 1.1416185 0)
(0.00066673508 2.426116 4.3484705e-22)
(0.0056105777 2.2434084 0)
(-0.00021633176 2.4371179 3.2644824e-20)
(-0.011385406 2.2511158 -7.5326897e-20)
(0.021384564 1.3193416 0)
(0.0083927708 1.2850374 0)
(0.011864659 1.1046384 0)
(-0.021901023 1.2922395 0)
(-0.017667436 1.1233066 0)
(0.90027183 0.050220517 0)
(0.75763934 0.032981599 0)
(0.83978135 0.050933885 0)
(0.59025143 0.028952959 0)
(0.3729282 -0.022254614 0)
(0.65130778 -0.035048703 0)
(0.69217486 -0.034112498 0)
(0.44320206 -0.021366904 0)
(0.0037258458 3.0719745 -1.0233964e-20)
(0.010797262 3.0616425 0)
(0.01617067 2.9688034 0)
(0.013255525 2.8677157 0)
(0.73200931 4.2325431 0)
(1.2324689 3.2966366 9.2203669e-19)
(0.072802515 3.1380265 0)
(0.030158003 2.9091227 0)
(-0.2201651 2.0169063 0)
(-0.24562118 2.2333235 0)
(-0.22257943 2.1347063 0)
(-0.099011748 2.495626 -1.220264e-20)
(-0.20221666 2.3962882 0)
(-0.13803643 2.3913447 0)
(-0.042642067 2.1491292 -5.4193623e-22)
(-0.061634984 2.2897531 -3.8879085e-20)
(-0.070616029 2.1738911 -5.4905998e-20)
(-0.05402824 2.0596201 0)
(0.777959 0.12763115 8.3065189e-19)
(0.65339612 0.080091444 -8.175771e-19)
(0.30646414 1.7051297 0)
(0.20835755 0.94119445 -3.3400112e-19)
(0.2267287 1.8472459 -1.0291607e-18)
(0.1383409 1.4063077 1.0321863e-18)
(0.27364361 -0.0066007638 0)
(0.54334976 -0.0055844114 0)
(0.53534499 0.0098016089 0)
(0.27379525 0.0022210387 0)
(-0.020486663 1.3092353 0)
(-0.021162316 1.3329819 0)
(-0.016378496 1.1599969 0)
(0.44909207 0.33764094 1.039358e-18)
(0.35228261 0.32357786 -1.2437233e-18)
(0.35404526 0.27906104 0)
(1.3170664 0.13483943 3.2217156e-20)
(1.2904043 0.13093092 0)
(1.1617369 0.088155293 0)
(0.94799941 0.041495885 0)
(0.78260428 0.081493982 0)
(0.77649385 0.037327299 -3.5724177e-18)
(0.65282365 0.045811606 1.3610905e-18)
(0.0032746762 2.985998 9.8243454e-19)
(-0.0032203602 2.8659774 4.6877021e-20)
(0.0038465118 3.0539287 -2.1482638e-20)
(0.012753554 3.0472667 7.7336716e-19)
(-0.0093884067 2.9952597 3.7978897e-20)
(-0.0083893153 2.936184 -1.5256533e-22)
(-0.013156875 3.0201631 -7.1757214e-19)
(0.0012166 3.0231511 5.1720651e-19)
(0.0066767278 3.0398087 -7.7392375e-19)
(0.78727457 0.048877379 0)
(0.73819236 0.049272573 0)
(0.49300904 0.024801134 0)
(0.54459971 -0.0018784616 0)
(0.5524154 0.005290762 0)
(0.27660456 -0.0060698156 0)
(0.61858521 -0.041870035 0)
(0.57687934 -0.034339841 0)
(0.30827892 -0.02294219 0)
(0.70782314 1.3799675 9.4871079e-21)
(0.77537538 1.4614972 0)
(0.16472101 0.35352844 8.218927e-20)
(0.33594334 0.77006565 6.1626301e-19)
(0.3566533 0.80036826 -3.6308057e-19)
(0.22879631 0.48635834 7.0243257e-19)
(0.42093032 0.96879941 1.8596258e-18)
(0.16819171 0.34215006 4.2718263e-19)
(0.70995301 0.247847 1.2035883e-18)
(0.67642501 0.2798577 3.0688698e-19)
(0.56949484 0.20850174 6.0240245e-19)
(1.5718359 0.60523622 1.9175828e-19)
(1.5429213 0.45902769 1.5938533e-19)
(0.023992479 2.398714 1.6825244e-19)
(0.012334649 2.1685545 0)
(1.050175 0.060889721 0)
(0.97144439 0.056407976 0)
(0.85430292 0.036639962 0)
(0.010046815 3.0770236 0)
(0.016993685 2.9386925 1.5007286e-18)
(0.016548569 2.9536919 0)
(0.013510198 2.8433508 -1.4980694e-18)
(0.0095724657 3.0917412 3.4221921e-19)
(0.0038073633 3.0887519 0)
(0.86571219 1.7508653 -1.3003796e-19)
(1.1311765 2.3625117 1.6093348e-19)
(0.84493917 1.8675857 -9.2145058e-19)
(0.015181253 3.0000197 -8.8738054e-19)
(0.036614802 3.0412904 0)
(0.012920202 2.8753977 0)
(-0.026365735 2.4057976 -2.1241144e-20)
(-0.040724691 2.3730241 9.5718452e-20)
(-0.025610302 2.2241229 8.6360234e-21)
(0.34602668 1.5414008 1.0503345e-18)
(0.21294279 0.75681752 -7.2218424e-19)
(0.088690937 2.1667728 6.8961257e-19)
(0.1673145 2.0276623 -8.6680043e-19)
(0.08301667 1.6954973 1.2266512e-19)
(0.014512571 3.114083 -2.2530671e-18)
(0.017057196 3.1196218 2.5504942e-18)
(-0.00852196 2.980395 1.051121e-18)
(-0.0050479128 2.9776738 -1.0247883e-18)
(-0.0074959441 2.8764932 -1.0707636e-18)
(0.004786323 3.1054809 -2.6580308e-18)
(0.0096896093 3.1047238 2.6388449e-18)
(0.37967274 0.83873205 0)
(0.3339935 0.77877501 -1.4059132e-18)
(0.13594923 0.28340289 6.2678274e-19)
(0.41542566 1.0896094 1.2197596e-18)
(0.19225795 0.43495258 -1.8928409e-18)
(1.477277 0.24622054 6.935231e-20)
(1.5402688 0.40272309 0)
(1.4600962 0.26422401 8.784202e-21)
(0.012481104 2.4291141 -4.1188202e-22)
(0.010088816 2.413185 0)
(0.0072415644 2.2081692 0)
(0.39448907 1.4047416 -3.774145e-19)
(0.42451971 1.2596354 -8.5030501e-19)
(0.201913 0.57532875 1.5225044e-18)
(1.1950253 0.0049754818 0)
(1.3355888 0.0013092844 3.6393843e-19)
(-0.17535067 1.8833843 0)
(-0.14690539 1.8201944 0)
(1.513507 -0.0022709219 1.9467668e-21)
(1.1043096 0.015944454 8.0498903e-19)
(-0.11112193 2.5415154 1.5878718e-20)
(-0.075830709 2.5807736 0)
(0.064505679 3.1820544 6.8610444e-19)
(0.5407519 3.5577052 0)
(1.4615034 0.90314874 -6.5661583e-20)
(1.2872981 0.0040373109 2.4559739e-20)
(1.3736388 0.027647331 0)
(1.9986647 0.0060554484 6.9705259e-21)
(0.10295785 1.8687897 0)
(0.11913061 2.7570229 0)
(0.024784059 1.7821788 0)
(0.0076597472 2.8058839 -4.841759e-20)
(-0.024107703 2.772939 -6.6396879e-20)
(1.2676653 -0.03905609 1.5774004e-20)
(1.365281 0.070386706 0)
(1.3854251 0.095720354 0)
(-0.25677438 2.2350636 0)
(-0.14272015 2.745623 0)
(-0.096559537 1.6815361 0)
(0.34500835 1.9873085 -3.9217143e-19)
(1.298533 0.0094128335 0)
(1.0995345 0.0083082916 0)
(1.9701518 0.0086992651 4.7708409e-19)
(1.6560949 0.015485129 -5.4445832e-19)
(1.9057492 0.0093739615 0)
(-0.25059028 2.0782124 0)
(-0.20349765 1.906241 0)
(-0.22888018 2.0065966 0)
(-0.10069703 1.6737504 0)
(-0.12653545 1.7372187 0)
(-0.099106633 1.674898 0)
(1.3833114 0.059352628 0)
(1.3168627 -0.031119845 2.4745597e-20)
(1.034294 1.7185536 5.5003835e-19)
(1.9564891 -0.00057878674 -4.8619057e-19)
(1.7075236 -0.0062949482 5.7695751e-19)
(1.8973146 -0.0074525353 0)
(1.3147631 -0.0020333113 4.6909546e-19)
(1.1884612 0.00083957667 -5.9949529e-19)
(0.93626924 0.020538103 0)
(-0.14510677 2.7445717 0)
(-0.11880839 2.6594431 -1.0384768e-19)
(-0.1061832 2.678605 8.1221672e-20)
(1.5237847 0.39634372 7.4947473e-19)
(1.4708144 0.17123437 0)
(0.083689093 3.0551721 -1.3351028e-18)
(0.046658324 2.8427171 -9.5109423e-20)
(0.18482213 3.183648 2.0340527e-18)
(0.16868028 3.2477972 -2.9487071e-19)
(0.16657763 3.2945198 0)
(0.032881725 3.1355855 3.7305443e-19)
(0.087474758 3.1748007 1.3112836e-18)
(0.083972222 3.2027693 -6.9643405e-19)
(0.052270186 3.1084074 0)
(0.88106321 0.4435961 0)
(0.76069649 0.50909344 0)
(1.4104444 0.95525679 1.2583612e-19)
(1.416809 1.138533 -6.7843745e-20)
(1.4778143 0.77591484 0)
(1.5086739 0.74876463 0)
(1.2829445 0.0084376602 -9.5902358e-19)
(1.1142453 0.0054924269 1.2344229e-18)
(1.3795848 0.027839197 0)
(1.24307 0.033787335 0)
(2.0026653 0.0093473353 0)
(1.8766024 -0.0021788941 0)
(1.937126 0.0052034543 0)
(1.7302234 -0.012580658 0)
(1.6681643 -0.0054422002 0)
(1.7991476 -0.0048115551 0)
(0.086905503 1.8591373 0)
(0.070641697 1.8502154 0)
(0.13300909 1.896877 0)
(0.14458635 1.9295626 0)
(0.14006428 2.7880062 0)
(0.18138462 2.8669461 -3.9992212e-19)
(0.095206089 2.8600108 0)
(0.077798064 2.8706867 1.3555464e-19)
(0.028070937 2.8803562 -5.5820463e-20)
(0.025898241 1.7750449 0)
(0.0028417257 1.7189947 0)
(0.034770684 1.8064579 0)
(0.028644776 1.7941193 0)
(0.02015566 2.2338277 8.0344346e-20)
(-0.014549059 2.8158748 -1.1907004e-19)
(0.0021705569 2.8462766 -6.2826392e-20)
(-0.0064106991 2.8865788 0)
(-0.034647933 2.8341783 1.6119179e-19)
(-0.055360389 2.836949 1.3594495e-19)
(0.028168997 2.2464589 -4.7838251e-20)
(0.0020782189 2.5843172 1.5731244e-19)
(-0.0052309875 2.6100135 7.9763447e-20)
(1.2914389 -0.035954433 1.3637794e-18)
(1.138748 -0.052486625 -1.6656993e-18)
(1.2533191 -0.030751945 -1.462958e-18)
(1.1508157 -0.036701427 1.9413819e-18)
(1.3926227 0.061301292 0)
(1.2929501 0.074356134 0)
(1.4083317 0.083018404 0)
(1.3908865 0.070383709 0)
(1.250023 0.073776463 0)
(1.4690825 0.1469474 0)
(1.4135331 0.10437953 0)
(1.2955336 0.096416526 0)
(-0.19205554 2.5282746 1.0060259e-20)
(-0.24913886 2.376383 0)
(-0.21696218 2.4293607 0)
(-0.14393535 2.79145 -6.000069e-20)
(-0.12693515 2.795 1.6827295e-21)
(-0.2249024 2.1554913 -1.3816547e-19)
(-0.23899097 2.0738704 1.393497e-19)
(-0.1632914 1.8322197 0)
(-0.19463591 1.868541 0)
(-0.20966147 1.9001765 0)
(-0.065441057 1.6590101 0)
(-0.035170007 1.6050727 0)
(0.48640104 1.9952253 7.0896935e-19)
(0.50564859 2.0224234 3.1721595e-19)
(0.59430227 2.6441087 -2.4092722e-19)
(0.38257228 2.7753051 6.0411421e-19)
(0.40394129 2.2483081 4.5561612e-20)
(1.3990045 0.024476307 0)
(1.3324652 0.022552001 0)
(1.1523031 0.015002374 0)
(1.9796026 0.013325739 0)
(1.960236 0.0095402555 0)
(1.722908 0.016372564 0)
(1.6271332 0.015603203 0)
(1.6436715 0.021298633 0)
(1.3495231 -0.025610614 9.8966116e-19)
(1.0929613 -0.0083700332 -1.2145536e-18)
(1.3038997 -0.028599399 -1.1018322e-18)
(1.1819058 -0.039377683 1.4629129e-18)
(0.99040551 1.7387023 0)
(0.88051115 1.8861435 5.6924674e-19)
(1.1285117 1.5999752 2.5373611e-19)
(1.1838583 1.5989017 -3.3797916e-19)
(1.2734327 2.7100712 4.8466216e-19)
(1.0044073 0.10988051 8.7177157e-19)
(1.4747848 0.19304891 0)
(1.5149817 0.29170571 -5.8620084e-19)
(1.4560487 0.25069986 -2.2861599e-20)
(1.4647183 0.12097636 0)
(0.23124801 2.9333472 8.2943977e-19)
(0.11591534 2.821406 -1.9392886e-18)
(0.047890777 2.3743978 1.2314373e-18)
(0.07961674 0.061984291 -6.2313295e-19)
(0.37280246 3.4714125 -6.8737042e-20)
(0.23968845 3.3757601 0)
(0.25231771 3.4397746 9.6896185e-20)
(0.27478537 3.0924438 -2.1004765e-18)
(0.4085747 3.1807556 0)
(0.01461246 3.1192625 6.8608458e-20)
(0.017748823 3.1325014 -7.3916914e-19)
(0.032622401 3.1176825 1.1488576e-18)
(0.03985126 3.1487395 0)
(0.037974251 3.1575721 0)
(1.3561633 2.806784 0)
(0.72589171 1.0957572 -7.3331817e-19)
(1.3415233 1.3648212 -6.3461697e-20)
(1.2544405 1.4176439 0)
(1.089075 1.2912148 -1.164329e-19)
(1.3610127 1.195629 4.6139433e-20)
(0.46004295 0.53426149 -1.4634849e-18)
(0.9501969 0.44230625 -4.0635182e-20)
(0.90233238 0.37829472 6.5496315e-19)
(0.77911294 0.55929155 4.8012298e-20)
(0.66719728 0.51198097 -1.982515e-18)
(0.90241562 0.483094 0)
(0.94539893 0.58501799 1.0649167e-18)
(0.96628811 0.55365621 0)
(0.83760443 0.52173638 0)
(0.80327085 0.45087529 0)
(1.0510298 0.82730603 5.9596552e-19)
(1.5161138 0.41616924 -6.3507032e-19)
(1.518543 0.58791849 0)
(1.528894 0.5465618 0)
(0.99223465 0.28902978 9.7754115e-19)
(1.0814251 0.72941135 -5.9368384e-19)
(1.0100445 0.69868108 1.0484622e-18)
(1.2723663 0.53808452 -1.0885882e-18)
(1.2784632 -0.014209656 6.4267962e-19)
(1.253008 -0.0022333159 -6.6197537e-19)
(1.0470765 -0.0044427325 0)
(1.4073582 0.053039713 0)
(1.3699382 0.041159404 -6.2116591e-19)
(1.1995767 0.043485014 6.1406208e-19)
(1.8065165 -0.0058423004 0)
(1.6931967 -0.024765893 0)
(1.9086982 -0.004737605 0)
(1.6759043 -0.0066864163 0)
(1.9472574 0.0075928962 0)
(1.9353721 0.0060699827 0)
(0.06291102 1.845729 0)
(0.055806181 1.8277943 0)
(0.16930584 1.8109595 1.460252e-19)
(0.3220711 1.9767021 2.1301343e-19)
(0.19443895 1.9636427 4.8241891e-19)
(0.21915638 1.9872711 -7.720835e-19)
(0.21093965 1.8518414 0)
(0.17176912 1.9657507 5.133033e-20)
(0.14999535 1.9506466 0)
(0.37525895 2.2056443 -6.3141225e-20)
(0.36051115 2.5110502 5.0805324e-19)
(0.23068233 1.8997577 -4.5989053e-20)
(0.31437049 1.8514018 1.203217e-19)
(0.25908722 1.8338337 -9.798111e-20)
(0.34293265 1.7715336 6.2376878e-20)
(0.26801521 1.9410255 0)
(0.31742658 1.9573829 -6.678364e-21)
(0.028582866 2.4658146 1.1515583e-20)
(0.032372203 2.8734401 0)
(0.05885168 2.577578 3.4637673e-20)
(0.049918736 2.5810677 0)
(0.056320156 2.8917756 -1.5133638e-19)
(0.043873353 2.9289432 0)
(0.055797352 1.8632625 1.4130403e-19)
(0.046894262 1.9066826 0)
(0.041983644 1.8480967 0)
(0.047966291 1.8334444 -1.6021991e-19)
(0.008508963 2.837175 -7.1626053e-21)
(0.015913197 2.8808337 5.4580982e-20)
(0.012082311 2.9148438 3.3998514e-22)
(0.062545723 2.1789729 -1.0253395e-19)
(0.069110285 2.0480317 -4.3001752e-20)
(0.0081160935 1.7150844 0)
(-0.01071669 1.6641507 0)
(0.033626743 1.9608455 -1.3925334e-19)
(0.0414483 1.8731495 -1.7252973e-19)
(0.037315475 1.9247213 2.074505e-19)
(0.037939573 1.974945 0)
(-0.20449268 2.5669837 3.1323868e-19)
(-0.16826845 2.7580228 -1.2068044e-19)
(-0.1535757 2.7115131 3.0465762e-20)
(0.044803307 2.2050318 1.2129513e-19)
(-0.076355534 2.7176843 5.666069e-20)
(-0.030266191 2.6519103 -1.2176209e-19)
(1.2646698 -0.042696576 -7.9988073e-19)
(1.2741499 -0.046869289 8.7058813e-19)
(1.1070406 -0.053805363 0)
(1.4663754 0.03278383 1.4439555e-18)
(1.2008097 -0.024645208 -1.6205159e-18)
(1.1609179 -0.029467027 1.8395284e-18)
(1.4858795 0.063393145 -1.9905573e-19)
(1.382997 0.059264217 0)
(1.3829726 0.062935494 6.9747951e-19)
(1.291468 0.068415123 -6.9075096e-19)
(1.5755337 0.079404861 -4.5546698e-20)
(1.5689853 0.067479392 3.8470912e-19)
(1.6932962 0.080138801 0)
(1.7717058 0.072971718 -1.5119588e-19)
(1.6816857 0.010330092 0)
(1.5576583 -0.0063387006 0)
(1.8262378 -0.0075637914 0)
(1.638003 -0.026492397 0)
(1.8021114 0.024531673 2.926634e-19)
(1.7958569 0.0083720704 -6.0406103e-19)
(1.7533268 0.061775083 -2.998954e-19)
(1.7676047 0.059637486 -3.4481363e-19)
(1.7141813 0.10015806 7.1462853e-19)
(1.5646102 0.11059032 0)
(1.5961609 0.15452165 0)
(-0.21211724 2.563907 1.5897343e-19)
(-0.24990531 2.4014474 1.1912184e-20)
(-0.24564454 2.4172526 0)
(-0.19237175 2.6497075 -1.6413501e-19)
(-0.19132655 2.5573722 -2.0890513e-20)
(-0.1783231 2.6244564 2.1747443e-20)
(-0.073285361 2.8495516 -1.0671149e-19)
(-0.11487434 2.7821069 7.9836416e-21)
(-0.10089864 2.7654476 -4.5344738e-20)
(-0.10700489 2.8269503 5.3783576e-20)
(-0.095336761 2.823382 -6.6362123e-20)
(-0.17967012 1.9730794 -3.2706725e-21)
(-0.19479624 2.1622815 -2.0717933e-19)
(0.48736172 1.8889053 -3.2986163e-19)
(0.44596188 1.8072061 -1.1837133e-19)
(0.8477084 1.9014406 -5.5204239e-19)
(0.67415487 1.987544 -3.0637187e-19)
(0.70109637 1.9913509 0)
(0.64479803 2.6060366 2.1232179e-19)
(0.70066011 2.6215505 3.5147856e-19)
(0.44932518 2.7058846 1.1260005e-19)
(0.45912516 2.7103178 -4.9559508e-19)
(0.54627869 2.6390745 5.4216341e-19)
(0.55562752 2.6612005 0)
(0.48652663 2.7198241 -5.510915e-19)
(0.22747198 2.7902347 1.0399193e-18)
(0.33509178 2.7764848 -4.9096198e-20)
(0.27038796 2.8660501 -1.453518e-18)
(1.0241549 2.5447276 8.2862569e-19)
(0.8945039 2.5614797 0)
(1.9514225 0.019238222 1.8929828e-20)
(1.6534903 0.023062189 -1.6187469e-20)
(1.6717707 0.024258144 -2.8737819e-19)
(1.8706562 0.026611636 2.881068e-19)
(1.9841725 0.023011962 0)
(0.88339716 1.679408 0)
(0.84672148 1.5602454 0)
(1.0107946 1.4697277 0)
(0.86882548 1.4847536 0)
(1.2800245 2.7434936 1.3374796e-21)
(1.1917756 2.5715249 0)
(0.93664249 2.2709957 3.9547649e-21)
(0.88277507 2.5366533 0)
(0.99771351 2.6088965 -3.5291907e-19)
(1.0258163 2.5959103 2.4115922e-19)
(1.0555235 0.14790348 0)
(1.0085176 0.18425636 2.4466065e-19)
(1.1443962 0.085842457 1.3500155e-18)
(1.0479756 0.079951272 -5.1026334e-19)
(0.9883452 0.044488875 -1.5737523e-18)
(1.5335119 0.31368646 -1.1651767e-18)
(1.3959026 0.37285029 -2.6584355e-20)
(1.2401552 0.31978258 1.3086983e-18)
(1.430458 0.25561287 1.065824e-18)
(1.2781188 0.12464267 -1.806801e-18)
(1.238151 0.1497471 2.2961602e-19)
(1.2981086 0.23228871 -4.902866e-19)
(1.2575298 0.20931532 0)
(1.4429219 0.15875478 8.872134e-19)
(1.5326249 0.21468834 0)
(1.5093213 0.26117969 0)
(1.5516421 0.19791185 3.5708632e-19)
(1.6270628 0.23471882 -2.253197e-20)
(1.5436997 0.324479 -2.0149134e-19)
(1.5378983 0.29429799 0)
(1.5285799 -0.0014577516 7.2697552e-19)
(1.7391043 0.04784503 8.9319504e-19)
(1.7054582 0.020870738 -6.9183685e-19)
(1.6914086 0.065004591 -6.1021215e-19)
(1.5150095 0.030532675 -1.0371474e-18)
(1.3648429 0.076779331 0)
(1.3899193 0.067496378 0)
(1.1520459 -0.0075114821 -6.6848536e-19)
(1.1056171 0.0010329734 2.7316632e-19)
(1.6131494 0.090595552 9.1333636e-19)
(1.6641137 0.16932392 -1.0421807e-18)
(1.6446291 0.18189318 9.5017531e-19)
(1.6113525 0.15701855 0)
(1.6673672 0.13895501 0)
(1.7123968 0.11469931 -4.0465221e-19)
(1.6973874 0.097524078 -7.4445159e-19)
(0.73041223 1.4786789 1.4262114e-19)
(0.8149656 1.828292 -1.6999537e-19)
(1.1803369 2.7802178 -1.6745613e-19)
(1.2981818 3.1344225 2.3848321e-20)
(1.342971 2.8244171 -3.3622914e-19)
(1.3975316 2.8937364 -3.1282026e-20)
(1.2695195 2.5680006 2.6683239e-20)
(1.3313753 3.0574492 -8.8498201e-20)
(1.3393216 3.0742223 2.147695e-19)
(1.3179789 3.3418305 -1.1823612e-19)
(1.4352854 3.1085804 1.2204058e-19)
(1.4528966 3.0372504 0)
(0.73132765 1.1637501 -6.2070493e-20)
(0.27118762 1.3695859 7.9125058e-19)
(0.64390094 0.73525485 9.7144734e-19)
(0.41783605 0.3134648 1.1186308e-18)
(0.68665533 0.56542041 1.1097812e-18)
(0.73146738 0.66272129 -1.8208636e-18)
(0.71236896 0.68271792 1.4742446e-18)
(0.62664831 0.59119675 -5.7389949e-19)
(0.54483027 0.48642555 1.3058645e-18)
(1.0245723 0.33427288 -5.4895741e-19)
(0.97623156 0.38463511 0)
(0.93665027 0.33953224 1.8219203e-20)
(0.95497397 0.70419589 5.6962842e-19)
(0.92793359 0.6637239 -2.0710498e-18)
(0.78731714 0.6761901 3.0713488e-20)
(0.82769997 0.63585951 0)
(0.84345167 1.0343493 5.7908586e-19)
(1.0611479 1.0330488 4.8641888e-19)
(0.98292779 1.1636251 -5.6210786e-19)
(1.1137133 1.0567105 -2.0561545e-19)
(1.2230818 1.1301767 -4.1109902e-20)
(1.1882748 1.1287619 4.1478974e-20)
(1.117727 0.84981919 -9.9847327e-19)
(1.1632898 0.95402807 1.9289581e-19)
(1.2678454 0.96125084 0)
(1.2911568 0.91770818 -2.6890553e-19)
(1.4135988 0.4192889 3.1424593e-19)
(1.5106813 0.43575908 3.7738194e-19)
(1.5007558 0.37949539 4.9148587e-19)
(1.3632607 0.50336923 -6.4136926e-19)
(1.3974987 0.57478217 0)
(1.4406135 0.56170306 0)
(1.2130062 0.47144439 9.0172981e-21)
(1.1385124 0.36974502 0)
(1.1740593 0.33427312 6.3792418e-19)
(1.2234849 0.34381235 -3.0241312e-20)
(1.2491117 0.58358493 2.8474169e-18)
(1.1637694 0.67237744 7.8130232e-19)
(1.1690982 0.60693914 -8.7454959e-19)
(1.099064 0.58767615 9.4349228e-19)
(1.0597522 0.59780119 5.7079728e-19)
(1.0179934 0.56262617 -5.5922927e-19)
(1.6421309 0.039226561 5.1291334e-19)
(1.9357559 0.025493077 0)
(1.8997604 0.033365767 3.4397505e-19)
(1.6635073 0.036890445 -7.740426e-19)
(1.9120076 0.011178538 3.8324448e-19)
(1.8641883 -0.0082239024 -8.096078e-19)
(1.6835129 -0.018495888 0)
(1.575956 -0.012022036 -1.6295963e-19)
(1.8365195 -0.0049149777 4.0763584e-19)
(1.6693274 -0.0048164153 -2.0898878e-19)
(1.604996 -0.0048934849 1.5385909e-19)
(0.041368569 1.8225631 0)
(0.040395524 1.8285695 0)
(0.049898827 1.8308786 0)
(0.042604324 1.8125382 0)
(0.072687352 1.8257708 -3.178917e-19)
(0.092904823 1.8084214 1.0712522e-19)
(0.13018373 1.8926654 5.0283111e-20)
(0.11319482 1.7876894 -7.9207772e-20)
(0.038892179 1.8773577 1.7663766e-19)
(0.038133116 1.8694701 -1.3642789e-19)
(0.064891354 1.8179003 -1.7914798e-20)
(0.059320318 1.8279183 2.2157229e-19)
(0.04952239 1.8177607 3.1058923e-20)
(0.042160521 1.8311357 2.3502144e-20)
(0.087298873 2.524789 -3.6666856e-20)
(0.094133323 2.5580823 0)
(0.16061169 2.2613611 4.55724e-20)
(0.14498161 2.041414 -2.1799682e-21)
(0.26806075 2.2269944 -5.3045515e-20)
(0.23424702 2.6101894 0)
(0.27732882 2.5964958 -4.6811413e-19)
(0.32753369 2.4946017 3.3666763e-19)
(0.23041366 2.1880802 -1.1723015e-19)
(0.17765116 2.3542947 1.0554626e-19)
(0.16688715 2.4953733 0)
(0.0097548044 2.1916047 1.060829e-19)
(0.01464327 2.5668852 1.0227626e-19)
(0.007335096 2.3363108 0)
(0.0089330018 2.6350791 -1.5730168e-20)
(0.025031296 2.4637585 -3.3924282e-20)
(0.060933272 1.8355442 -2.9230307e-20)
(0.043141966 1.7866967 4.680552e-19)
(0.067187413 1.8010941 -1.5038031e-19)
(0.092945957 1.836032 -1.445676e-19)
(0.073287298 1.8665064 0)
(0.052180884 1.7506777 0)
(-0.021083319 1.6462204 -1.9478157e-19)
(0.010972135 1.6966145 6.3902595e-20)
(0.033012471 1.7155733 0)
(-0.0047588937 1.6669957 -1.3863056e-19)
(-0.023874311 1.6223857 2.8102353e-19)
(1.5806744 0.041410578 0)
(1.5694159 0.041472688 -6.4638432e-20)
(1.8730033 0.030601171 -5.0158125e-19)
(1.730874 0.045204294 0)
(1.5626683 0.040965295 0)
(1.8525437 0.022363011 1.4679793e-20)
(1.8614412 0.021812683 7.120406e-19)
(1.7384569 -0.0092722167 9.3950637e-19)
(1.627254 -0.023415244 0)
(1.5489442 -0.022798969 0)
(1.7165294 0.0026098303 5.0228196e-19)
(1.5638492 -0.0103147 0)
(1.5414508 -0.027481721 0)
(-0.097503099 2.4013808 0)
(-0.14427208 2.1868536 -1.1299737e-20)
(-0.14625216 2.3292301 -7.2993257e-20)
(-0.010902413 1.7295603 0)
(-0.10042861 2.0314844 -1.1318654e-19)
(-0.12377244 1.8931275 7.093341e-20)
(-0.074919241 1.722002 0)
(0.50073169 1.9036222 0)
(0.44661811 1.6947215 1.6584274e-19)
(0.40999436 1.7099754 0)
(0.54017287 1.7331126 -3.1790791e-19)
(0.63715594 1.9018249 0)
(0.57229415 1.8457564 1.8380691e-19)
(1.1134118 2.7992799 -1.6491524e-20)
(1.045085 2.5635389 -9.5446721e-19)
(1.0406576 2.4556583 1.0747827e-18)
(0.92216984 2.547754 2.8403702e-19)
(0.91279826 2.6040793 0)
(0.97727848 2.584027 0)
(0.99934987 2.5495995 0)
(0.97915402 2.5475863 -1.0276755e-18)
(0.74007374 2.5482821 -3.7822646e-19)
(0.86302558 2.5748147 -9.3014194e-20)
(0.86399011 2.5269547 7.4424707e-20)
(0.75045444 2.5832971 0)
(0.85107254 2.573982 0)
(0.80632334 2.594325 -3.811845e-19)
(0.80824567 2.5986347 0)
(0.81116312 1.4424384 0)
(0.69203838 1.2619813 -5.7281854e-19)
(0.76485182 1.281324 -3.5393305e-20)
(0.73455193 1.3779148 0)
(0.72308203 1.3494335 8.7594029e-19)
(1.0023744 1.2062322 -1.4274428e-19)
(1.0200983 1.3411461 0)
(1.0226423 1.2636543 2.0381372e-19)
(0.84207898 1.4016036 0)
(0.86277017 1.2816016 0)
(1.2498755 2.8199899 -2.4597045e-19)
(1.2093136 2.8587191 -1.7218991e-19)
(0.99975332 2.3668901 2.9013596e-19)
(1.0003124 2.3970627 -1.0438124e-19)
(1.2198269 2.8083737 0)
(1.177577 2.7629542 1.3288455e-19)
(1.2047011 2.6430525 -2.7350055e-19)
(1.1163255 2.4869483 -2.948726e-20)
(0.68065853 1.6809454 0)
(0.68646847 1.4711504 -1.2554444e-19)
(0.73100692 1.5341079 0)
(1.1456859 0.24441586 0)
(1.0405372 0.21119607 0)
(0.96538967 0.22716438 0)
(1.1391881 0.28108026 -9.9075878e-19)
(1.0364636 0.26618086 5.7820591e-19)
(1.1018326 0.0014716403 -5.3974968e-19)
(1.1818424 0.049983343 0)
(1.1616566 0.071403166 2.433532e-19)
(1.0449405 0.025472262 9.8947491e-19)
(0.99658746 0.0067234535 -6.2566667e-19)
(1.3273168 3.4670846 -3.6637894e-19)
(1.3089351 3.3987624 0)
(1.3482319 3.4216385 -8.1448823e-19)
(0.53529105 3.523104 7.7837428e-19)
(0.78169057 3.0556272 -2.4724549e-19)
(0.63607499 1.1655561 7.8882808e-19)
(0.60788104 1.180834 0)
(0.54815996 0.75092048 -2.392772e-19)
(0.64425835 1.0201383 1.2120316e-18)
(0.66788189 0.71042951 -3.3348809e-19)
(0.65483771 0.75179948 3.7178446e-19)
(0.83911876 0.73288488 7.7935272e-19)
(0.91584047 0.75699578 0)
(0.83847897 0.86383899 0)
(0.77490655 0.81501494 0)
(1.2756938 0.80398999 9.9341938e-20)
(1.1821683 0.72871705 -7.4497232e-19)
(1.1876733 0.77507996 5.6342858e-19)
(1.2464198 0.69040495 -5.756994e-19)
(1.3756949 0.68894912 0)
(1.3882131 0.75454299 -1.3381328e-19)
(1.1172578 0.52903023 -1.2932774e-18)
(1.1414354 0.50782894 -1.5476621e-18)
(1.0707271 0.5174277 1.0086364e-18)
(1.0628503 0.48756 -1.0424986e-18)
(1.1375855 0.41741783 -8.0567794e-19)
(1.0674995 0.41762693 9.9987401e-19)
(1.8923251 0.015138668 -4.2824068e-19)
(1.9157108 0.017400135 8.6871676e-19)
(1.6390778 0.038991635 5.3921408e-19)
(1.6504282 0.043748345 -6.4184574e-19)
(1.7359518 0.041060278 0)
(1.9015704 0.031895825 -1.1496624e-18)
(0.057476862 2.0181314 -1.1042722e-20)
(0.049134342 1.9578202 0)
(0.0963232 2.0147457 -1.0551486e-20)
(0.1139445 2.0040895 5.618036e-21)
(0.092427921 1.920188 -8.9130549e-20)
(0.07665691 1.9112037 0)
(0.059129591 2.1274349 0)
(0.05695257 1.8957376 5.3992613e-20)
(0.016587361 1.8295851 -4.8847376e-20)
(-0.04618071 2.0121437 -8.4937195e-21)
(-0.041346541 2.3234182 1.0294315e-19)
(-0.021183683 2.3352415 -4.615672e-20)
(0.66333766 1.6849538 -2.0789753e-19)
(0.62577775 1.7228249 2.2184116e-19)
(0.58021739 1.7055652 1.5360314e-19)
(0.58171435 1.6623345 3.8207904e-21)
(0.82339394 1.7136515 0)
(0.70371185 1.8172409 3.4753046e-19)
(0.77314282 1.8292932 -3.3734488e-19)
(0.6146627 1.722407 -1.5242417e-19)
(0.68642407 1.6493409 0)
(0.73617166 1.6198736 0)
(0.71758254 2.5185026 5.5369089e-19)
(0.71731467 2.5895231 1.1768951e-18)
(0.76380971 2.5884539 -8.4587109e-19)
(0.63572199 2.5978437 -1.8583802e-19)
(0.6244081 2.6545724 2.8277994e-19)
(0.57714671 2.6272562 -7.2059909e-19)
(1.0900831 2.5450033 -5.8005962e-19)
(1.1335489 2.568629 0)