/*--------------------------------*- C++ -*----------------------------------*\
  =========                 |
  \\      /  F ield         | OpenFOAM: The Open Source CFD Toolbox
   \\    /   O peration     | Website:  https://openfoam.org
    \\  /    A nd           | Version:  9
     \\/     M anipulation  |
\*---------------------------------------------------------------------------*/
FoamFile
{
    format      ascii;
    class       surfaceScalarField;
    location    "0.22";
    object      alphaPhi0.phase1;
}
// * * * * * * * * * * * * * * * * * * * * * * * * * * * * * * * * * * * * * //

dimensions      [0 3 -1 0 0 0 0];

internalField   nonuniform List<scalar> 
19800
(
7.9702353e-111
-3.1223656e-108
3.6376851e-108
-7.2628783e-108
1.4875313e-105
-2.194785e-105
4.3556457e-103
-6.3729911e-103
1.0170619e-100
-1.4687755e-100
2.0109104e-98
-2.8616454e-98
3.4912812e-96
-4.897328e-96
5.37509e-94
-7.4621847e-94
7.4248263e-92
-1.021825e-91
9.4878348e-90
-1.2897771e-89
1.0824159e-87
-1.4702669e-87
1.0806573e-85
-1.4764106e-85
6.247452e-84
-9.7119837e-84
1.1880808e-82
-2.9148006e-82
8.681037e-82
-3.754629e-81
3.0957282e-81
-2.1826152e-80
9.8678551e-81
-6.3602073e-80
3.3362121e-80
-1.8720794e-79
6.3647175e-80
-6.2760989e-79
1.4968461e-79
-2.5220656e-79
6.2184801e-78
-5.9546245e-79
6.3239088e-76
-5.5439097e-76
7.9959577e-74
-6.7554368e-74
8.8923012e-72
-6.7989164e-72
9.6085912e-70
-6.6575269e-70
1.2203136e-67
-8.198352e-68
1.8313521e-65
-1.2070344e-65
3.3385933e-63
-2.3141497e-63
3.5927323e-61
-1.6981336e-61
1.2345739e-59
-3.1639287e-61
1.6632821e-58
-3.5651586e-60
3.9977486e-58
-7.4164948e-60
8.6680502e-57
-8.4093545e-59
2.3112694e-56
-4.6672222e-59
6.6442625e-55
3.8714512e-57
2.068204e-53
2.7407239e-55
5.721629e-52
1.2310784e-53
1.4061025e-50
4.353324e-52
3.0338317e-49
1.2722325e-50
5.6449357e-48
3.0964041e-49
8.8324889e-47
6.2221095e-48
1.1403277e-45
1.0228775e-46
1.2126065e-44
1.3824688e-45
1.0516096e-43
1.5369486e-44
7.0420529e-43
1.3486456e-43
3.4609967e-42
8.9777352e-43
1.2573633e-41
4.6566667e-42
3.2498528e-41
1.9187187e-41
4.8569446e-41
5.9467581e-41
8.8565688e-42
1.3346527e-40
-3.7108789e-41
1.3331309e-40
-2.7918005e-41
5.945873e-41
-1.0896534e-41
1.8813265e-41
-2.808194e-42
4.394018e-42
-4.8512022e-43
7.7151719e-43
-4.8824914e-44
9.6280483e-44
-2.396709e-45
7.2414607e-45
-5.0816613e-47
2.73253e-46
-4.3058412e-49
4.544448e-48
-2.306911e-51
3.0462672e-50
-2.4487585e-54
1.2832229e-52
-1.8237513e-57
1.0529029e-55
-5.004997e-61
5.8879986e-59
-5.716924e-61
2.3016575e-62
-6.7481249e-61
1.6155718e-62
-1.4244171e-59
3.8148011e-62
-1.3006553e-58
4.8156511e-62
-1.5846182e-58
-2.2691618e-60
-5.7497755e-59
-3.3604983e-60
-4.0157689e-60
-1.0160488e-60
-7.012323e-62
-9.2957431e-62
-1.2517177e-63
-3.37973e-63
-1.7576544e-65
-7.6663252e-65
-1.7840363e-67
-7.1564276e-66
-1.2852696e-69
-1.1904056e-67
-8.6285701e-72
-9.8593369e-70
-7.2641084e-74
-6.660954e-72
-5.4650266e-76
-6.170888e-74
-4.1044425e-78
-4.9154791e-76
-1.3030231e-79
-4.8605084e-78
-9.3364142e-80
-1.5090577e-78
-4.841277e-80
-8.9372992e-79
-1.4501778e-80
-2.7004161e-79
-4.6727669e-81
-9.4845004e-80
-1.3270116e-81
-3.2718401e-80
-1.8831654e-82
-5.8020509e-81
-1.043098e-83
-4.6968897e-82
-1.9365983e-85
-1.6481337e-83
-2.0298386e-87
-2.6614288e-85
-1.7184819e-89
-2.7222309e-87
-1.2322091e-91
-2.2811967e-89
-7.8029007e-94
-1.6387741e-91
-4.3932918e-96
-1.0445267e-93
-2.2117076e-98
-5.9504658e-96
-9.7638694e-101
-3.0368532e-98
-3.6508761e-103
-1.3598295e-100
-1.0970963e-105
-5.1607345e-103
-2.381414e-108
-1.5686511e-105
-4.7571038e-111
-4.5589948e-108
-1.8466749e-108
1.6120895e-108
-8.2412282e-108
2.1349004e-105
-2.6961595e-105
8.7052453e-103
-1.0380082e-102
2.5400541e-100
-2.9242895e-100
5.9122026e-98
-6.6446033e-98
1.1644127e-95
-1.2860348e-95
2.0128382e-93
-2.1936381e-93
3.0841773e-91
-3.3254122e-91
4.2386536e-89
-4.5303519e-89
5.3882659e-87
-5.7181096e-87
6.1124847e-85
-6.4445316e-85
6.0657863e-83
-6.3580514e-83
3.4643648e-81
-3.5896355e-81
6.3008205e-80
-6.2831558e-80
4.0758003e-79
-3.6794819e-79
1.1874167e-78
-8.5862766e-79
3.7320307e-78
-2.7753049e-78
1.1371086e-77
-8.4497166e-78
1.436587e-77
-4.2633347e-78
3.6500081e-77
-7.5134117e-78
2.6254e-75
-2.4862676e-75
3.5449586e-73
-3.3875888e-73
4.5638111e-71
-4.3136011e-71
5.1748845e-69
-4.828625e-69
5.7658761e-67
-5.3042797e-67
7.6893662e-65
-6.991548e-65
1.2293594e-62
-1.1162122e-62
2.446101e-60
-2.2435229e-60
2.7228837e-58
-2.5356542e-58
1.4626907e-57
-1.062923e-57
3.2475991e-57
-1.4001728e-57
1.3431175e-55
-1.2414808e-55
1.822787e-54
-3.8414866e-56
7.6651033e-54
7.4447873e-57
2.2556336e-52
4.5149248e-54
6.8121726e-51
2.8163148e-52
1.8276815e-49
1.1969286e-50
4.3487394e-48
4.0467578e-49
9.0491926e-47
1.131847e-47
1.6191419e-45
2.6365355e-46
2.4384164e-44
5.0803779e-45
3.02799e-43
8.0101985e-44
3.0520662e-42
1.0257978e-42
2.4387706e-41
1.0538158e-41
1.4329932e-40
8.2211159e-41
5.3757237e-40
4.3547456e-40
1.1645055e-39
1.4347205e-39
1.6117369e-39
3.180749e-39
1.6110979e-39
6.3879782e-39
2.4433147e-40
1.0637981e-38
-1.2383653e-39
1.0663227e-38
-1.4179982e-39
6.4365709e-39
-1.0478577e-39
3.1992131e-39
-4.7329383e-40
1.407098e-39
-1.0899955e-40
4.0635828e-40
-1.1947832e-41
6.4444346e-41
-6.3782179e-43
5.2063749e-42
-1.5300387e-44
2.1377895e-43
-1.7002137e-46
4.0316323e-45
-7.813654e-49
3.5512785e-47
-9.7208096e-52
1.2871443e-49
-4.2241878e-55
1.2457794e-52
-1.4629375e-58
4.0928563e-56
-1.5215354e-58
2.0442722e-59
-1.1179372e-57
2.2812799e-59
-2.4656562e-56
3.0896386e-58
-7.8300361e-56
4.6850725e-58
-3.456144e-57
-2.1436913e-57
-9.6708354e-58
-2.1433241e-57
-3.8110763e-58
-4.3793424e-58
-4.3765881e-59
-3.029374e-58
-8.6986683e-61
-3.9351274e-59
-1.1682408e-62
-7.7092232e-61
-1.1367028e-64
-1.0392145e-62
-7.8423797e-67
-1.02389e-64
-5.0437406e-69
-7.1836427e-67
-4.1498618e-71
-4.6906635e-69
-3.0640077e-73
-3.9164749e-71
-2.2338981e-75
-2.9260532e-73
-2.5360258e-77
-2.1496785e-75
-1.9810873e-77
-7.8946049e-78
-1.6717003e-77
-6.2599253e-78
-5.3658489e-78
-1.2127302e-77
-1.761298e-78
-3.9350283e-78
-6.1099118e-79
-1.2680791e-78
-9.8256853e-80
-5.4793816e-79
-5.7035085e-81
-9.7672707e-80
-1.0727025e-82
-5.9002708e-81
-1.1318705e-84
-1.1233787e-82
-9.6392273e-87
-1.1931167e-84
-6.9488669e-89
-1.023035e-86
-4.4224889e-91
-7.4300884e-89
-2.5015927e-93
-4.7705754e-91
-1.2648279e-95
-2.727345e-93
-5.6055308e-98
-1.3973864e-95
-2.1028013e-100
-6.3022592e-98
-6.3378168e-103
-2.4214422e-100
-1.3800645e-105
-7.5583635e-103
-9.5185004e-109
-1.7425364e-105
-4.8699229e-108
6.1177734e-106
-2.8255674e-105
8.0916793e-103
-1.2202402e-102
3.2940753e-100
-4.2743637e-100
9.5939986e-98
-1.1845805e-97
2.2291974e-95
-2.6585446e-95
4.3805237e-93
-5.0938751e-93
7.5527616e-91
-8.6139644e-91
1.1540373e-88
-1.2958114e-88
1.581341e-86
-1.753115e-86
2.0042894e-84
-2.1989268e-84
2.2672704e-82
-2.4641515e-82
2.2441099e-80
-2.4188511e-80
1.2786092e-78
-1.358537e-78
2.3201071e-77
-2.3641371e-77
1.4969376e-76
-1.3737167e-76
4.3495384e-76
-3.1449809e-76
1.3700089e-75
-1.0190729e-75
4.1668838e-75
-3.1142364e-75
5.1688516e-75
-2.0055849e-75
9.8320106e-75
-2.9879418e-75
1.0006226e-72
-9.5059445e-73
1.3741585e-70
-1.2928158e-70
1.8121343e-68
-1.679048e-68
2.1206846e-66
-1.9320554e-66
2.46186e-64
-2.2008142e-64
3.4635178e-62
-3.0469125e-62
5.9364252e-60
-5.2178691e-60
1.2938106e-57
-1.154329e-57
1.6437679e-55
-1.50649e-55
1.0692206e-54
-8.0420536e-55
2.8348236e-54
-1.517792e-54
1.6702058e-52
-1.5494281e-52
1.4340989e-51
-5.4297843e-53
2.3268489e-51
6.4028321e-54
5.0439028e-50
1.3513904e-51
1.4954427e-48
8.0837714e-50
3.9248165e-47
3.3520079e-48
9.106699e-46
1.1041825e-46
1.8440418e-44
3.0030138e-45
3.2048837e-43
6.7914498e-44
4.6830847e-42
1.2695003e-42
5.641724e-41
1.9416374e-41
5.5196578e-40
2.4123916e-40
4.2915268e-39
2.4099372e-39
2.4773764e-38
1.8444074e-38
9.3087097e-38
9.7554938e-38
2.0548547e-37
3.2719521e-37
2.881772e-37
7.4045507e-37
2.8830494e-37
1.4866859e-36
4.4551798e-38
2.5727266e-36
-2.2209074e-37
2.5786045e-36
-2.5344805e-37
1.4968838e-36
-1.8490789e-37
7.4349949e-37
-8.2070722e-38
3.2072668e-37
-1.8990825e-38
9.1138218e-38
-2.1705998e-39
1.4576258e-38
-1.2613527e-40
1.2302931e-39
-3.4721827e-42
5.501851e-41
-4.6060949e-44
1.1903994e-42
-2.6001033e-46
1.2513781e-44
-4.8081364e-49
5.5736878e-47
-3.8614145e-52
8.0265637e-50
-2.6472603e-55
4.8893105e-53
-2.8196503e-55
4.8350688e-56
-2.5195369e-54
7.0375752e-56
-3.0158953e-53
6.4156849e-55
-7.2285465e-53
7.3196519e-55
-4.7876967e-54
-2.4707735e-54
-9.2587118e-55
-3.4826275e-54
-2.9220118e-55
-5.2994769e-55
-2.7337264e-56
-2.3778274e-55
-4.7307739e-58
-2.4189991e-56
-5.7510861e-60
-4.0699405e-58
-5.1904068e-62
-4.9383524e-60
-3.3794278e-64
-4.5107726e-62
-2.0777255e-66
-2.9999388e-64
-1.6508525e-68
-1.8843901e-66
-1.1868563e-70
-1.52654e-68
-8.4811295e-73
-1.1153227e-70
-9.3927866e-75
-8.0615719e-73
-7.1759555e-75
-3.3565521e-75
-5.9680571e-75
-2.8771399e-75
-1.9516269e-75
-4.4465593e-75
-6.3868271e-76
-1.4293823e-75
-2.2198645e-76
-4.5947779e-76
-3.5774643e-77
-2.0224694e-76
-2.0804059e-78
-3.6325799e-77
-3.9210385e-80
-2.2061753e-78
-4.1475114e-82
-4.2212462e-80
-3.5417166e-84
-4.5055594e-82
-2.5604222e-86
-3.8850816e-84
-1.6341957e-88
-2.8391844e-86
-9.2698056e-91
-1.8355655e-88
-4.6992813e-93
-1.0575272e-90
-2.0875757e-95
-5.465772e-93
-7.8458255e-98
-2.490501e-95
-2.3686464e-100
-9.6905267e-98
-5.1678454e-103
-3.0737197e-100
-3.5684215e-106
-7.7933696e-103
-1.6484705e-105
1.7091599e-103
-9.7331152e-103
2.2645832e-100
-4.2091742e-100
9.2036108e-98
-1.2705266e-97
2.6772729e-95
-3.5296819e-95
6.2118714e-93
-7.8394066e-93
1.2184289e-90
-1.4887766e-90
2.0964361e-88
-2.4986038e-88
3.1962426e-86
-3.7336764e-86
4.3699012e-84
-5.0214698e-84
5.5267294e-82
-6.2655254e-82
6.2395423e-80
-6.9886716e-80
6.1656285e-78
-6.8335051e-78
3.5084495e-76
-3.824588e-76
6.3589939e-75
-6.6411761e-75
4.0961123e-74
-3.8600885e-74
1.1888901e-73
-8.864091e-74
3.759482e-73
-2.8781245e-73
1.1451334e-72
-8.8546237e-73
1.4082045e-72
-6.74137e-73
2.6500177e-72
-1.2346291e-72
2.8621665e-70
-2.6950829e-70
4.0055098e-68
-3.7164e-68
5.4199253e-66
-4.9338901e-66
6.5522805e-64
-5.8424124e-64
7.9375618e-62
-6.9145383e-62
1.1796593e-59
-1.0073703e-59
2.1720569e-57
-1.8546333e-57
5.1993629e-55
-4.528172e-55
7.5511356e-53
-6.8250649e-53
5.9899482e-52
-4.6044406e-52
1.9968895e-51
-1.2085526e-51
1.6018427e-49
-1.4820887e-49
8.6628994e-49
-5.4587379e-50
7.04532e-49
5.4333352e-52
8.9331971e-48
2.8464835e-49
2.5870495e-46
1.6532263e-47
6.6258534e-45
6.7514613e-46
1.4955058e-43
2.1751232e-44
2.9395356e-42
5.7616702e-43
4.951706e-41
1.2658395e-41
7.00479e-40
2.2939605e-40
8.1600456e-39
3.3958721e-39
7.7205971e-38
4.0840679e-38
5.8218755e-37
3.9587332e-37
3.2885675e-36
2.9625669e-36
1.2276948e-35
1.5539818e-35
2.7249003e-35
5.237507e-35
3.8194407e-35
1.1888525e-34
3.7816685e-35
2.3548031e-34
5.8761763e-36
4.1434455e-34
-2.9206583e-35
4.1530946e-34
-3.3595024e-35
2.3698813e-34
-2.452365e-35
1.1923563e-34
-1.0835193e-35
5.1325301e-35
-2.5380646e-36
1.4532661e-35
-3.0342193e-37
2.3584521e-36
-1.921141e-38
2.0839292e-37
-6.0699692e-40
1.0149548e-38
-9.5493619e-42
2.5175137e-40
-6.2887478e-44
3.1330799e-42
-1.8760114e-46
1.6264044e-44
-2.8432954e-49
3.7731138e-47
-5.587949e-52
4.3305353e-50
-5.8929615e-52
1.2214102e-52
-4.9831545e-51
1.5003825e-52
-3.4309829e-50
1.0115166e-51
-4.6958664e-50
6.4784512e-52
-5.4418658e-51
-2.0007312e-51
-7.1841639e-52
-4.2905494e-51
-1.7262421e-52
-4.6323428e-52
-1.3042265e-53
-1.4209256e-52
-1.9587379e-55
-1.1368466e-53
-2.1508141e-57
-1.6397971e-55
-1.795573e-59
-1.7897293e-57
-1.1010825e-61
-1.5120191e-59
-6.4597329e-64
-9.5078282e-62
-4.9523877e-66
-5.7293316e-64
-3.4600248e-68
-4.498057e-66
-2.4194143e-70
-3.2060902e-68
-2.6194746e-72
-2.2770231e-70
-1.9690953e-72
-1.135853e-72
-1.632407e-72
-9.6408949e-73
-5.3106249e-73
-1.2593427e-72
-1.7291853e-73
-4.0055884e-73
-6.0111851e-74
-1.2833029e-73
-9.6943767e-75
-5.6247149e-74
-5.6434151e-76
-1.0088217e-74
-1.0647869e-77
-6.1386968e-76
-1.1279013e-79
-1.1783957e-77
-9.6490915e-82
-1.2623982e-79
-6.990101e-84
-1.0934434e-81
-4.4712411e-86
-8.0323089e-84
-2.5418379e-88
-5.2238293e-86
-1.291263e-90
-3.0298536e-88
-5.7469553e-93
-1.5779933e-90
-2.1630849e-95
-7.2560509e-93
-6.5373863e-98
-2.8513018e-95
-1.4289806e-100
-9.0242539e-98
-9.8487252e-104
-2.6558066e-100
-5.6087244e-103
3.7833288e-101
-2.5639018e-100
5.0228781e-98
-1.110506e-97
2.0404575e-95
-3.3496598e-95
5.9248347e-93
-8.2169216e-93
1.373188e-90
-1.8279839e-90
2.6891138e-88
-3.4447215e-88
4.6184561e-86
-5.7413791e-86
7.0279803e-84
-8.5279739e-84
9.5902489e-82
-1.1408503e-81
1.2106962e-79
-1.4168553e-79
1.3646682e-77
-1.5739348e-77
1.3468311e-75
-1.5338557e-75
7.6569842e-74
-8.5591801e-74
1.3868255e-72
-1.4838543e-72
8.9263414e-72
-8.6355004e-72
2.5897997e-71
-1.9906158e-71
8.2255557e-71
-6.4802376e-71
2.510464e-70
-2.0086652e-70
3.0803967e-70
-1.7505646e-70
5.9286205e-70
-2.9123436e-70
6.5307592e-68
-6.0989401e-68
9.3194296e-66
-8.5479119e-66
1.2934879e-63
-1.1602092e-63
1.6158002e-61
-1.4151601e-61
2.0415164e-59
-1.7402857e-59
3.2031862e-57
-2.6681188e-57
6.3309434e-55
-5.2771159e-55
1.6625855e-52
-1.4200219e-52
2.7510255e-50
-2.4606984e-50
2.63269e-49
-2.0610263e-49
1.0978419e-48
-7.2529996e-49
1.169122e-46
-1.0762929e-46
4.3961015e-46
-3.7603143e-47
3.4701142e-46
-2.5510026e-48
1.3829512e-45
5.2233168e-47
3.6702979e-44
2.5829246e-45
9.1604995e-43
1.0463471e-43
2.0060606e-41
3.3053516e-42
3.8183916e-40
8.5301393e-41
6.2191466e-39
1.8190764e-39
8.4961312e-38
3.1922943e-38
9.5474865e-37
4.5689904e-37
8.712357e-36
5.3079014e-36
6.3513315e-35
4.9789322e-35
3.4988201e-34
3.6342909e-34
1.2923575e-33
1.8842785e-33
2.8668711e-33
6.349086e-33
3.9943809e-33
1.4378619e-32
3.8997169e-33
2.8034263e-32
6.050406e-34
4.9760957e-32
-3.0208821e-33
4.9880036e-32
-3.5145348e-33
2.8202145e-32
-2.5801876e-33
1.4402864e-32
-1.1411392e-33
6.2171182e-33
-2.7145274e-34
1.7623025e-33
-3.3953487e-35
2.9087195e-34
-2.3462503e-36
2.690353e-35
-8.4774454e-38
1.4289221e-36
-1.5586957e-39
4.0449188e-38
-1.2887265e-41
5.86903e-40
-5.1951665e-44
3.8155049e-42
-1.6710832e-46
1.1924717e-44
-9.0919186e-49
2.8992922e-47
-9.3670389e-49
2.2362988e-49
-6.8060973e-48
2.0553754e-49
-3.0409652e-47
1.1240876e-48
-2.6991156e-47
3.4527238e-49
-4.6155714e-48
-1.1045102e-48
-4.3397757e-49
-3.8026659e-48
-8.012696e-50
-3.0414179e-49
-4.941251e-51
-6.6685749e-50
-6.4585204e-53
-4.2639939e-51
-6.4115889e-55
-5.2956126e-53
-4.954366e-57
-5.2033357e-55
-2.86209e-59
-4.0691107e-57
-1.6039194e-61
-2.4248615e-59
-1.1859247e-63
-1.3966713e-61
-8.053883e-66
-1.0612948e-63
-5.509198e-68
-7.3775938e-66
-5.8329693e-70
-5.1442064e-68
-4.3089633e-70
-2.9711452e-70
-3.5600804e-70
-2.4930762e-70
-1.1519862e-70
-2.8433687e-70
-3.7315207e-71
-8.9461095e-71
-1.2966772e-71
-2.8560745e-71
-2.0912117e-72
-1.2456652e-71
-1.2176612e-73
-2.2292608e-72
-2.298942e-75
-1.3579454e-73
-2.4377768e-77
-2.613762e-75
-2.0885607e-79
-2.8089197e-77
-1.5156626e-81
-2.4426304e-79
-9.7132732e-84
-1.8026687e-81
-5.5326413e-86
-1.1786501e-83
-2.8157005e-88
-6.8789342e-86
-1.2551841e-90
-3.6071189e-88
-4.7285127e-93
-1.668887e-90
-1.4322546e-95
-6.3197182e-93
-3.1320952e-98
-2.3509393e-95
-2.1542829e-101
-6.9238386e-98
-1.4598104e-100
6.9393846e-99
-5.4571826e-98
9.2308548e-96
-2.3674134e-95
3.7482748e-93
-7.1362709e-93
1.0874971e-90
-1.6475876e-90
2.5158274e-88
-3.4798166e-88
4.9201661e-86
-6.5933359e-86
8.4364434e-84
-1.0922256e-83
1.2815246e-81
-1.6130979e-81
1.7456845e-79
-2.1473901e-79
2.2000449e-77
-2.6553163e-77
2.4762684e-75
-2.9385897e-75
2.4412541e-73
-2.8550346e-73
1.3868457e-71
-1.588849e-71
2.5104619e-70
-2.7507353e-70
1.6148679e-69
-1.60313e-69
4.6832673e-69
-3.7092885e-69
1.4940805e-68
-1.2108912e-68
4.5659973e-68
-3.7794621e-68
5.5885551e-68
-3.6844246e-68
1.1010798e-67
-5.6367373e-68
1.2353178e-65
-1.1462961e-65
1.795836e-63
-1.6343017e-63
2.5543374e-61
-2.266018e-61
3.292939e-59
-2.8426337e-59
4.3318744e-57
-3.6284562e-57
7.1585696e-55
-5.8674933e-55
1.5144646e-52
-1.2480796e-52
4.3456356e-50
-3.7579193e-50
8.1529752e-48
-7.2377885e-48
9.2864941e-47
-7.3793251e-47
4.7919971e-46
-3.3715316e-46
6.4850346e-44
-5.9187994e-44
1.8652201e-43
-1.5486277e-44
2.2226668e-43
-5.4556751e-45
2.345001e-43
1.190515e-44
4.3742335e-42
3.2430594e-43
1.0684511e-40
1.3016402e-41
2.2635145e-39
4.0421518e-40
4.1592329e-38
1.0164171e-38
6.5326606e-37
2.1022908e-37
8.5946384e-36
3.5675806e-36
9.2883113e-35
4.9248094e-35
8.1454217e-34
5.5116451e-34
5.7208642e-33
4.9887607e-33
3.0629228e-32
3.5403596e-32
1.1153641e-31
1.8087249e-31
2.4635203e-31
6.0732939e-31
3.4015855e-31
1.3678887e-30
3.2679623e-31
2.6214971e-30
5.0241787e-32
4.6707251e-30
-2.5420866e-31
4.682212e-30
-2.9953e-31
2.6359908e-30
-2.217592e-31
1.3682677e-30
-9.8502104e-32
5.9412506e-31
-2.3844655e-32
1.6908388e-31
-3.1228538e-33
2.8430272e-32
-2.3585809e-34
2.7541548e-33
-9.7362665e-36
1.5972623e-34
-2.0653248e-37
5.150468e-36
-2.129548e-39
8.5917439e-38
-1.1164042e-41
6.9412337e-40
-5.3295281e-44
2.8082013e-42
-5.9876168e-46
1.0105419e-44
-6.5086446e-46
1.5793362e-46
-6.3477036e-45
2.1062836e-46
-1.9411366e-44
8.4700474e-46
-1.0830618e-44
-3.2307906e-48
-2.8501515e-45
-5.1755469e-46
-2.071086e-46
-2.3856492e-45
-2.9850316e-47
-1.5391958e-46
-1.522541e-48
-2.5093923e-47
-1.741969e-50
-1.3057027e-48
-1.5687609e-52
-1.4064041e-50
-1.1248592e-54
-1.2485642e-52
-6.1373477e-57
-9.1918085e-55
-3.2906364e-59
-5.2229792e-57
-2.349538e-61
-2.8277959e-59
-1.5525844e-63
-2.086107e-61
-1.0397975e-65
-1.414214e-63
-1.0783014e-67
-9.6584716e-66
-7.8133124e-68
-6.3026139e-68
-6.4392325e-68
-5.2219406e-68
-2.0743441e-68
-5.321474e-68
-6.684025e-69
-1.6579669e-68
-2.3217057e-69
-5.2735745e-69
-3.7442529e-70
-2.2889348e-69
-2.1804299e-71
-4.0871681e-70
-4.1185608e-73
-2.4917426e-71
-4.3712335e-75
-4.8075728e-73
-3.7500476e-77
-5.1813851e-75
-2.7258422e-79
-4.5222695e-77
-1.7499629e-81
-3.3520845e-79
-9.9855603e-84
-2.2030143e-81
-5.0895474e-86
-1.2926125e-83
-2.2715675e-88
-6.7303009e-86
-8.5798029e-91
-3.0260777e-88
-2.6003056e-93
-1.2997347e-90
-5.6882065e-96
-4.9501874e-93
-3.9044546e-99
-1.4588235e-95
-3.0707735e-98
1.0866196e-96
-9.737064e-96
1.4483961e-93
-4.2306017e-93
5.8797301e-91
-1.2744988e-90
1.7054321e-88
-2.9411786e-88
3.9381553e-86
-5.6437376e-86
7.6882738e-84
-1.0565539e-83
1.3164218e-81
-1.7718362e-81
1.9961538e-79
-2.6037781e-79
2.7142985e-77
-3.4491914e-77
3.4152536e-75
-4.2475059e-75
3.8384601e-73
-4.6835684e-73
3.7799611e-71
-4.5369452e-71
2.1455783e-69
-2.5181394e-69
3.8813395e-68
-4.3535012e-68
2.4946682e-67
-2.5403852e-67
7.2299446e-67
-5.897701e-67
2.3163265e-66
-1.9305587e-66
7.0756204e-66
-6.0532537e-66
8.6267396e-66
-6.4913223e-66
1.7431113e-65
-1.0080407e-65
1.9876156e-63
-1.8403092e-63
2.9400611e-61
-2.6843206e-61
4.2779296e-59
-3.7993781e-59
5.6798661e-57
-4.8674212e-57
7.7589051e-55
-6.450737e-55
1.3459113e-52
-1.1193934e-52
3.0332516e-50
-2.5897502e-50
9.4788559e-48
-8.4341602e-48
1.9997821e-45
-1.7657308e-45
2.6724241e-44
-2.1499241e-44
1.6821517e-43
-1.2388493e-43
2.9747803e-41
-2.7011994e-41
7.0354715e-41
-6.5735768e-42
1.2909917e-40
-6.2296589e-42
6.6289664e-41
2.7271926e-42
4.4936761e-40
3.5030624e-41
1.0719902e-38
1.3343317e-39
2.1913281e-37
4.0868891e-38
3.8740418e-36
1.0011909e-36
5.8474287e-35
2.0061649e-35
7.3849008e-34
3.2861806e-34
7.6511954e-33
4.3665959e-33
6.4229534e-32
4.6930063e-32
4.3277536e-31
4.0834194e-31
2.2431083e-30
2.8077453e-30
8.0276163e-30
1.4094446e-29
1.7607041e-29
4.7046421e-29
2.4042889e-29
1.0517586e-28
2.2692877e-29
1.9792482e-28
3.4404905e-30
3.5263562e-28
-1.7735103e-29
3.5354295e-28
-2.119189e-29
1.989314e-28
-1.5852962e-29
1.0504849e-28
-7.0863293e-30
4.5968055e-29
-1.7480939e-30
1.3156154e-29
-2.4005544e-31
2.2559951e-30
-1.9848692e-32
2.291697e-31
-9.3090336e-34
1.4526659e-32
-2.2431252e-35
5.3029017e-34
-2.7730355e-37
1.0003428e-35
-1.9270713e-39
9.6435326e-38
-1.2903546e-41
5.1416067e-40
-3.0862741e-43
2.5976531e-42
-3.990857e-43
8.3785029e-44
-4.6137149e-42
1.729745e-43
-9.9385167e-42
4.5002543e-43
-3.4444143e-42
-2.2324586e-43
-1.324853e-42
-2.4207882e-43
-7.9025424e-44
-1.1092206e-42
-9.060397e-45
-6.1264304e-44
-3.8808939e-46
-7.6858403e-45
-3.9157067e-48
-3.3177767e-46
-3.2155612e-50
-3.1270212e-48
-2.1483397e-52
-2.5269578e-50
-1.1107889e-54
-1.8164972e-52
-5.7111837e-57
-9.7708126e-55
-3.9466014e-59
-4.9102249e-57
-2.5418165e-61
-3.5352431e-59
-1.6688822e-63
-2.3372937e-61
-1.697384e-65
-1.5489706e-63
-1.205231e-65
-1.1190283e-65
-9.9213214e-66
-9.1516066e-66
-3.1871852e-66
-8.4768037e-66
-1.0218741e-66
-2.6207989e-66
-3.549013e-67
-8.3064196e-67
-5.7247672e-68
-3.5894387e-67
-3.3346198e-69
-6.3966881e-68
-6.3021636e-71
-3.90324e-69
-6.6952106e-73
-7.5487488e-71
-5.7516058e-75
-8.1585554e-73
-4.1875076e-77
-7.1465321e-75
-2.6930468e-79
-5.3195731e-77
-1.5389401e-81
-3.5095677e-79
-7.856488e-84
-2.0213229e-81
-3.5156569e-86
-1.0406372e-83
-1.3296866e-88
-5.037743e-86
-4.031496e-91
-2.2931044e-88
-8.8210463e-94
-8.7388053e-91
-6.0420233e-97
-2.5768799e-93
-5.4158905e-96
1.4847288e-94
-1.4950963e-93
1.9832071e-91
-6.5054013e-91
8.0492054e-89
-1.9587136e-88
2.3339619e-86
-4.517846e-86
5.3858214e-84
-8.6614775e-84
1.0485903e-81
-1.4433926e-81
1.7922669e-79
-2.4443629e-79
2.7138551e-77
-3.6640318e-77
3.6833831e-75
-4.8317982e-75
4.6264675e-73
-5.9252148e-73
5.1916214e-71
-6.5092745e-71
5.1061625e-69
-6.2867425e-69
2.8952909e-67
-3.479629e-67
5.2325277e-66
-6.0060227e-66
3.3590435e-65
-3.5075929e-65
9.7241965e-65
-8.1630961e-65
3.1269799e-64
-2.6792935e-64
9.5260033e-64
-8.3778471e-64
1.1544598e-63
-9.7987245e-64
2.3963355e-63
-1.5447337e-63
2.7725942e-61
-2.5762242e-61
4.1652053e-59
-3.8977338e-59
6.1868086e-57
-5.6402511e-57
8.4371121e-55
-7.3062756e-55
1.1927159e-52
-1.0073906e-52
2.1640459e-50
-1.8669529e-50
5.1805678e-48
-4.5459086e-48
1.7529485e-45
-1.5961615e-45
4.1066783e-43
-3.608057e-43
6.348495e-42
-5.1609003e-42
4.7940498e-41
-3.6514976e-41
1.1754404e-38
-1.0710166e-38
3.0772479e-38
-4.0344132e-39
5.7662684e-38
-4.5745995e-39
2.4803609e-38
4.8725292e-40
4.0027609e-38
3.9122163e-39
9.3518912e-37
1.1462925e-37
1.8456005e-35
3.4736621e-36
3.1282517e-34
8.30084e-35
4.5222782e-33
1.6098521e-33
5.463114e-32
2.5401697e-32
5.403033e-31
3.2395265e-31
4.3229033e-30
3.331895e-30
2.7809256e-29
2.7758233e-29
1.3890591e-28
1.8417692e-28
4.8707301e-28
9.0588349e-28
1.0585184e-27
3.0005171e-27
1.4265688e-27
6.6467422e-27
1.3202627e-27
1.2266564e-26
1.9639747e-28
2.177435e-26
-1.0372314e-27
2.1833712e-26
-1.2588192e-27
1.2322634e-26
-9.5300373e-28
6.62739e-27
-4.2932488e-28
2.9265962e-27
-1.0811868e-28
8.4316862e-28
-1.5606759e-29
1.4766834e-28
-1.4102355e-30
1.57633e-29
-7.4211791e-32
1.0893845e-30
-2.0103977e-33
4.4412211e-32
-2.968532e-35
9.369343e-34
-2.8249913e-37
1.0729396e-35
-2.693261e-39
7.7740744e-38
-1.7914073e-40
5.7322829e-40
-3.1716841e-40
4.8088861e-41
-2.870546e-39
1.2649897e-40
-3.7667959e-39
1.5771853e-40
-1.0231342e-39
-2.2430843e-40
-5.0360977e-40
-1.0373405e-40
-2.433693e-41
-4.2238189e-40
-2.2658816e-42
-1.9466153e-41
-8.2772708e-44
-1.938192e-42
-7.4322948e-46
-7.0711318e-44
-5.599976e-48
-5.8913932e-46
-3.5093897e-50
-4.4572672e-48
-1.7274015e-52
-3.0519036e-50
-8.5330297e-55
-1.5493986e-52
-5.7212985e-57
-7.5285313e-55
-3.599993e-59
-5.2525888e-57
-2.321451e-61
-3.3860722e-59
-2.3170385e-63
-2.1630265e-61
-1.6115623e-63
-1.7010842e-63
-1.3276722e-63
-1.3736007e-63
-4.2626143e-64
-1.1729347e-63
-1.3606094e-64
-3.604604e-64
-4.7271726e-65
-1.1385527e-64
-7.6302609e-66
-4.9030596e-65
-4.4471904e-67
-8.7245491e-66
-8.4116831e-69
-5.3299141e-67
-8.9463166e-71
-1.0333921e-68
-7.697105e-73
-1.1200653e-70
-5.6128096e-75
-9.8472159e-73
-3.6152705e-77
-7.3024889e-75
-2.0700824e-79
-4.7204799e-77
-1.0594824e-81
-2.7226786e-79
-4.7513826e-84
-1.4583654e-81
-1.7984108e-86
-7.641482e-84
-5.4549315e-89
-3.4815903e-86
-1.1937667e-91
-1.3276563e-88
-8.1596e-95
-3.9171523e-91
-8.2209169e-94
1.799914e-92
-2.0147163e-91
2.4091783e-89
-8.7780868e-89
9.7768119e-87
-2.6415961e-86
2.833796e-84
-6.0891697e-84
6.5342559e-82
-1.1662985e-81
1.2708541e-79
-1.9412144e-79
2.165067e-77
-2.9511837e-77
3.2715965e-75
-4.442261e-75
4.4334963e-73
-5.9868367e-73
5.5582209e-71
-7.3250329e-71
6.2261114e-69
-8.0178172e-69
6.1143886e-67
-7.7187775e-67
3.4623358e-65
-4.259544e-65
6.2486718e-64
-7.3376661e-64
4.0042725e-63
-4.2864434e-63
1.1572156e-62
-9.9705981e-63
3.73319e-62
-3.2864029e-62
1.1339724e-61
-1.1168389e-61
1.3586847e-61
-1.2895952e-61
2.9031366e-61
-2.0656707e-61
3.4017657e-59
-3.1935853e-59
5.182682e-57
-4.8955501e-57
7.8371347e-55
-7.2420593e-55
1.0937165e-52
-9.7698151e-53
1.5942931e-50
-1.3946012e-50
3.0171277e-48
-2.664287e-48
7.6320647e-46
-6.8512676e-46
2.7759464e-43
-2.5753571e-43
7.1256118e-41
-6.4309448e-41
1.2556977e-39
-1.0302891e-39
1.1174626e-38
-8.7291841e-39
3.6463882e-36
-3.413804e-36
1.2671117e-35
-8.3722579e-36
2.125647e-35
-2.6040255e-36
7.8043505e-36
-1.2579134e-37
5.6002707e-36
5.41647e-37
7.1612473e-35
8.4756096e-36
1.3661071e-33
2.5091883e-34
2.2122192e-32
5.8616807e-33
3.0513138e-31
1.0996214e-31
3.5136982e-30
1.6691513e-30
3.3039689e-29
2.0375711e-29
2.5059561e-28
1.9972716e-28
1.5292708e-27
1.5844711e-27
7.3181164e-27
1.0089487e-26
2.5032702e-26
4.8432342e-26
5.3722909e-26
1.5876691e-25
7.1162516e-26
3.4726825e-25
6.4330837e-26
6.2618734e-25
9.3467882e-27
1.1047636e-24
-5.0845369e-26
1.1080026e-24
-6.2872105e-26
6.2868272e-25
-4.8349116e-26
3.4554435e-25
-2.2009494e-26
1.5448137e-25
-5.6730458e-27
4.4889553e-26
-8.6459846e-28
8.0474499e-27
-8.5483372e-29
9.0628295e-28
-5.0117184e-30
6.8305578e-29
-1.5193109e-31
3.084596e-30
-2.7042649e-33
7.2369934e-32
-3.6355614e-35
9.926054e-34
-4.9786104e-37
1.0069613e-35
-9.5028127e-38
1.1622029e-37
-2.5657261e-37
2.4156803e-38
-1.3319794e-36
7.1716259e-38
-1.2148117e-36
2.7965063e-38
-2.8178935e-37
-1.91146e-37
-1.6365923e-37
-4.2302972e-38
-6.0952958e-39
-1.3890904e-37
-4.7072269e-40
-4.99346e-39
-1.490082e-41
-4.058134e-40
-1.2027181e-43
-1.274688e-41
-8.3763194e-46
-9.5429463e-44
-4.9689528e-48
-6.9876207e-46
-2.3387812e-50
-4.4217874e-48
-1.112335e-52
-2.1335192e-50
-7.2647189e-55
-1.0032776e-52
-4.4758486e-57
-6.7496178e-55
-2.838698e-59
-4.2484123e-57
-2.7825971e-61
-2.6687752e-59
-1.8952734e-61
-2.2523179e-61
-1.5692082e-61
-1.7968582e-61
-5.0388624e-62
-1.5036723e-61
-1.6021615e-62
-4.3799915e-62
-5.5721529e-63
-1.3800851e-62
-9.0056324e-64
-5.9252986e-63
-5.2544366e-65
-1.0534467e-63
-9.9501309e-67
-6.4458301e-65
-1.0597646e-68
-1.2532334e-66
-9.1317519e-71
-1.3628301e-68
-6.6705714e-73
-1.1910211e-70
-4.3061469e-75
-8.6961113e-73
-2.471858e-77
-5.6288856e-75
-1.268792e-79
-3.3022547e-77
-5.6966643e-82
-1.9384301e-79
-2.1580343e-84
-1.0170422e-81
-6.5488345e-87
-4.638632e-84
-1.4333317e-89
-1.7701766e-86
-9.7767434e-93
-5.2256527e-89
-1.0952676e-91
1.9612366e-90
-2.4191919e-89
2.6303697e-87
-1.0553182e-86
1.0673798e-84
-3.1741576e-84
3.0921119e-82
-7.3111864e-82
7.1242579e-80
-1.3989328e-79
1.3839058e-77
-2.3252398e-77
2.3538812e-75
-3.4582164e-75
3.544425e-73
-4.8224499e-73
4.7919252e-71
-6.4833217e-71
5.9962181e-69
-8.0306655e-69
6.7050083e-67
-8.8638998e-67
6.5725255e-65
-8.5040803e-65
3.7152368e-63
-4.6774214e-63
6.6925441e-62
-8.0381059e-62
4.2788016e-61
-4.69361e-61
1.23442e-60
-1.1316638e-60
3.9876034e-60
-3.5831046e-60
1.2040736e-59
-1.3192115e-59
1.4224115e-59
-1.4999978e-59
3.1360074e-59
-2.4421489e-59
3.7140399e-57
-3.5592841e-57
5.7318151e-55
-5.4609886e-55
8.8000448e-53
-8.2232665e-53
1.2517233e-50
-1.135917e-50
1.8740524e-48
-1.6718967e-48
3.6827542e-46
-3.3172821e-46
9.7804974e-44
-8.9482543e-44
3.7923857e-41
-3.5723115e-41
1.0554013e-38
-9.7426291e-39
2.0817611e-37
-1.7220186e-37
2.1438515e-36
-1.7076936e-36
8.9010124e-34
-8.5417377e-34
4.3185411e-33
-3.2294492e-33
7.2340888e-33
-1.1624718e-33
3.2934854e-33
-2.6218911e-34
1.2855452e-33
8.1543505e-35
4.8639308e-33
5.8588432e-34
8.952646e-32
1.5524626e-32
1.3821433e-30
3.5565369e-31
1.8120309e-29
6.4554231e-30
1.9798619e-28
9.4077034e-29
1.7615906e-27
1.0961501e-27
1.2590854e-26
1.0195869e-26
7.2279073e-26
7.6478432e-26
3.2829547e-25
4.6337744e-25
1.0887188e-24
2.1579596e-24
2.2980952e-24
6.9805359e-24
2.9760784e-24
1.5015554e-23
2.618615e-24
2.6339922e-23
3.7192354e-25
4.6388645e-23
-2.0838914e-24
4.6538986e-23
-2.6325164e-24
2.6425838e-23
-2.066192e-24
1.4901286e-23
-9.5347393e-25
6.7690287e-24
-2.5268405e-25
1.987967e-24
-4.1012343e-26
3.6636698e-25
-4.4554695e-27
4.388407e-26
-2.899094e-28
3.6174293e-27
-9.8408255e-30
1.8000523e-28
-2.1727245e-31
4.6951977e-30
-4.4865961e-33
7.9351896e-32
-8.0880995e-35
1.223234e-33
-4.3405364e-35
2.3114372e-35
-1.4613078e-34
9.9261315e-36
-5.0308202e-34
2.6006306e-35
-3.1291252e-34
-9.3020844e-36
-7.5524832e-35
-3.8224155e-35
-4.5382648e-35
-1.3710334e-35
-1.2493043e-36
-3.9300311e-35
-8.1784262e-38
-1.0431318e-36
-2.2798355e-39
-7.1049054e-38
-1.670163e-41
-1.9554045e-39
-1.0882918e-43
-1.3855452e-41
-6.1521686e-46
-9.3786898e-44
-2.7834774e-48
-5.5823659e-46
-1.2797738e-50
-2.5768538e-48
-8.1694511e-53
-1.1718692e-50
-4.941891e-55
-7.6728118e-53
-3.0862022e-57
-4.7300287e-55
-2.9742437e-59
-2.93987e-57
-1.9826033e-59
-2.6341753e-59
-1.6552275e-59
-2.0764365e-59
-5.3258928e-60
-1.7602129e-59
-1.6902148e-60
-4.7523419e-60
-5.8848097e-61
-1.5538484e-60
-9.5284234e-62
-6.4133084e-61
-5.5686186e-63
-1.1400589e-61
-1.0562414e-64
-6.9905034e-63
-1.1269724e-66
-1.3634404e-64
-9.7269336e-69
-1.4889489e-66
-7.1226344e-71
-1.2713425e-68
-4.6098004e-73
-9.2982842e-71
-2.6556066e-75
-6.0218256e-73
-1.3651932e-77
-3.9029472e-75
-6.1377072e-80
-2.2948473e-77
-2.3272514e-82
-1.2058405e-79
-7.0668359e-85
-5.5060909e-82
-1.5468679e-87
-2.1030763e-84
-1.0529585e-90
-6.2117861e-87
-1.3004078e-89
1.9411446e-88
-2.6200694e-87
2.6086004e-85
-1.1442508e-84
1.0584552e-82
-3.4397743e-82
3.0642414e-80
-7.9157302e-80
7.0531834e-78
-1.5128583e-77
1.3682747e-75
-2.5108688e-75
2.3235826e-73
-3.7278637e-73
3.4906626e-71
-4.9774652e-71
4.7020898e-69
-6.3743469e-69
5.8686935e-67
-7.8761744e-67
6.5479374e-65
-8.798746e-65
6.4065311e-63
-8.4951997e-63
3.6133515e-61
-4.6542839e-61
6.4928955e-60
-7.9747428e-60
4.1388021e-59
-4.6513159e-59
1.1915095e-58