/*--------------------------------*- C++ -*----------------------------------*\
  =========                 |
  \\      /  F ield         | OpenFOAM: The Open Source CFD Toolbox
   \\    /   O peration     | Website:  https://openfoam.org
    \\  /    A nd           | Version:  9
     \\/     M anipulation  |
\*---------------------------------------------------------------------------*/
FoamFile
{
    format      ascii;
    class       volScalarField;
    location    "0.22";
    object      p_rgh;
}
// * * * * * * * * * * * * * * * * * * * * * * * * * * * * * * * * * * * * * //

dimensions      [1 -1 -2 0 0 0 0];

internalField   nonuniform List<scalar> 
10000
(
0
-0.012678831
-0.0053029688
0.012400819
0.040804176
0.080193178
0.13071493
0.19248589
0.26575324
0.35082697
0.4480042
0.5576377
0.68009818
0.81572899
0.9648672
1.1278106
1.3047895
1.4959786
1.7014796
1.9213033
2.155362
2.4034603
2.6652683
2.9403131
3.2279667
3.5274424
3.8378187
4.1580285
4.4868793
4.8231932
5.1657238
5.5127281
5.8613211
6.2091724
6.5508531
6.8874154
7.2177715
7.5396901
7.8506337
8.148088
8.4295036
8.6922316
8.9336798
9.1513129
9.3426347
9.5053199
9.6372555
9.736647
9.8020994
9.8325959
9.8276344
9.7872028
9.7117274
9.6020089
9.4593343
9.2853853
9.0820883
8.8516739
8.5965159
8.3192575
8.0224284
7.7086993
7.3806198
7.0409334
6.6921987
6.336972
5.976949
5.611643
5.2448142
4.8797895
4.5198125
4.1671289
3.8232846
3.4895346
3.1670578
2.8569589
2.5601779
2.2775039
2.0094879
1.7565653
1.5189707
1.2967894
1.0900073
0.89843035
0.72184099
0.55990252
0.41228291
0.27852905
0.15819602
0.050806624
-0.044116785
-0.12700503
-0.19833399
-0.25853087
-0.30791872
-0.34682888
-0.37552999
-0.39470568
-0.40535987
-0.39912348
-0.0055017629
-0.013938548
-0.0051452008
0.012961209
0.04133244
0.080505257
0.13067909
0.19199375
0.26474306
0.34921193
0.44573537
0.55469049
0.67643827
0.81135043
0.95977798
1.1220144
1.2983225
1.4889064
1.6938769
1.913257
2.1469937
2.3948913
2.6566359
2.9317607
3.2196413
3.5194868
3.8303501
4.151161
4.4806979
4.8175293
5.1600554
5.5063168
5.8538184
6.1997309
6.5434672
6.8816233
7.2127334
7.534785
7.8454773
8.1423712
8.4229722
8.6847602
8.9252194
9.1418222
9.332114
9.4938653
9.6250498
9.7238902
9.7889983
9.8193569
9.814413
9.7740963
9.6989089
9.5897063
9.4477167
9.2746024
9.072245
8.8428491
8.5886622
8.3122294
8.0160314
7.7027234
7.3747788
7.0348696
6.685378
6.3286923
5.9670587
5.6019268
5.23612
4.8719466
4.5121765
4.1591148
3.8146364
3.4802306
3.1572183
2.8467504
2.5497778
2.2670921
1.9992416
1.7466572
1.5095401
1.2879555
1.0818522
0.89103459
0.71528124
0.5542306
0.40751013
0.27466447
0.15520629
0.048658217
-0.045501388
-0.12768171
-0.19835132
-0.25796185
-0.30684863
-0.34530013
-0.37366419
-0.39258943
-0.40308107
-0.39674264
-0.025546629
-0.032774126
-0.023245135
-0.0050246236
0.023084205
0.061744187
0.11120421
0.17168006
0.24345487
0.3268585
0.42226796
0.53006554
0.65065457
0.78443593
0.93177249
1.0930048
1.2684295
1.4582743
1.6627006
1.8817981
2.115538
2.3637684
2.6261873
2.9023549
3.191673
3.4933603
3.8064557
4.1298156
4.4621169
4.8018464
5.1472873
5.4964958
5.8472925
6.1975483
6.544972
6.8873347
7.2225568
7.5485048
7.8628388
8.1631018
8.4467965
8.7113741
8.9542696
9.1729805
9.3650397
9.5281765
9.6603892
9.7599222
9.8254032
9.8558926
9.8509859
9.8106017
9.7350917
9.6252651
9.4823103
9.3078757
9.1038227
8.8723438
8.615705
8.3364255
8.0370443
7.7202261
7.3885089
7.0444456
6.6905739
6.3292236
5.9628133
5.5934606
5.2238869
4.8564264
4.493574
4.1374623
3.7900349
3.4529667
3.1276693
2.8153471
2.5169849
2.2333805
1.9650233
1.7123133
1.4754244
1.2543821
1.0490821
0.8592948
0.68473685
0.52501867
0.37970087
0.24832367
0.13030321
0.025168259
-0.067619131
-0.14850627
-0.21797768
-0.27644554
-0.32437549
-0.36195187
-0.3895732
-0.40796549
-0.41805961
-0.41137363
-0.053456391
-0.060404382
-0.05070165
-0.032633452
-0.0049838225
0.032953686
0.081497439
0.14086249
0.21137798
0.29342886
0.38740705
0.49373532
0.61285727
0.74519809
0.891166
1.0511477
1.2254852
1.4144738
1.6183528
1.8372662
2.0712282
2.3201262
2.5837064
2.8615662
3.1531272
3.4576122
3.7740238
4.1011501
4.437593
4.7817777
5.13191
5.4860253
5.8420643
6.1979873
6.5504702
6.8983969
7.2392154
7.5705702
7.890077
8.1952625
8.4836021
8.7525088
8.9993763
9.2216849
9.4169578
9.5828736
9.7173845
9.8187137
9.8854638
9.9166475
9.9118409
9.8709754
9.794393
9.6829554
9.5378738
9.3608002
9.1536364
8.9185791
8.657974
8.3743326
8.0702338
7.7482731
7.4111231
7.0612377
6.701255
6.3337185
5.9611619
5.5858977
5.2104735
4.8375528
4.4695035
4.1085138
3.7566305
3.4155922
3.0868818
2.7717697
2.4712667
2.1861383
1.916854
1.6637713
1.4270045
1.2065231
1.0021744
0.81366717
0.64063658
0.48265289
0.33915468
0.20963976
0.093518675
-0.009755623
-0.10072312
-0.17988866
-0.24777259
-0.30476552
-0.35135636
-0.38783259
-0.41453333
-0.43215621
-0.44176487
-0.43474264
-0.091303126
-0.098408119
-0.088921998
-0.071332948
-0.044449901
-0.007512261
0.039779703
0.097677569
0.16656921
0.24686046
0.33898681
0.44342035
0.56063398
0.69109914
0.83528593
0.99364285
1.1665901
1.3545129
1.5577252
1.776435
2.010727
2.2605601
2.525751
2.8059471
3.1005942
3.4089058
3.7298557
4.0621819
4.4044049
4.7548575
5.1116662
5.4727528
5.8358745
6.1985188
6.5595071
6.9153239
7.2637317
7.6023457
7.9287912
8.240556
8.5350414
8.8096369
9.0616993
9.288657
9.488031
9.6574762
9.7948974
9.8984763
9.9668011
9.9988578
9.9941682
9.9527034
9.8748383
9.761443
9.6137419
9.4333663
9.2222784
8.9826964
8.7169979
8.4276423
8.1172967
7.7884926
7.4439828
7.0863371
6.7181666
6.3421629
5.961043
5.5772884
5.1936828
4.8128785
4.4373856
4.0695048
3.7113763
3.3648279
3.0314317
2.7124875
2.4090075
2.1217471
1.8511642
1.5975242
1.3608958
1.141167
0.93807753
0.75125295
0.5801889
0.42439428
0.28328389
0.15620403
0.042564605
-0.058287938
-0.14690423
-0.22382328
-0.28957979
-0.34467503
-0.38959185
-0.42462622
-0.45013827
-0.46678387
-0.47568186
-0.46818926
-0.13915655
-0.14662494
-0.1376444
-0.12084918
-0.095019561
-0.059421593
-0.013743773
0.042315143
0.10916506
0.18725364
0.27706891
0.3791183
0.49392283
0.62202175
0.76395688
0.92026384
1.0914642
1.2780352
1.4803747
1.6987841
1.9334545
2.1844476
2.4516655
2.7348149
3.0333698
3.3465465
3.6732991
4.0123273
4.3620684
4.7207283
5.0863228
5.4566723
5.8294412
6.2022174
6.5727627
6.9383275
7.2963222
7.6442056
7.9795216
8.2996907
8.6020379
8.8839045
9.1426094
9.3755243
9.58011
9.7539652
9.8949549
10.001217
10.071336
10.104355
10.099818
10.057705
9.9783688
9.8626477
9.7117877
9.5274072
9.3114801
9.0662214
8.7940879
8.4975025
8.1791437
7.8416263
7.4876973
7.1200499
6.741408
6.3546259
5.9626559
5.5676471
5.1732473
4.7820987
4.3968374
4.0199376
3.6536684
3.2999699
2.9605235
2.6366701
2.3294147
2.0394652
1.7672713
1.5130076
1.2766163
1.0578952
0.85642035
0.67170749
0.5031719
0.35015143
0.21200973
0.087987689
-0.022560917
-0.12035048
-0.2059887
-0.2801049
-0.34326576
-0.39599927
-0.43883162
-0.47210176
-0.49610224
-0.51157003
-0.51963395
-0.51154614
-0.19684996
-0.20483238
-0.19660238
-0.18085468
-0.1564011
-0.12249704
-0.078803029
-0.025003421
0.039349645
0.11475532
0.20173721
0.30085025
0.41268552
0.53785956
0.67700496
0.830764
0.9997631
1.1845826
1.3857373
1.6036582
1.8386715
2.0909649
2.3605452
2.6471931
2.9504316
3.2695027
3.60335
3.9506237
4.3096776
4.6785688
5.0551462
5.4370709
5.8218138
6.2067628
6.5893314
6.9668043
7.3364284
7.6955432
8.0415929
8.371934
8.6838354
8.9745613
9.241365
9.4815414
9.6924571
9.8716214
10.016866
10.126326
10.19857
10.232713
10.22836
10.185473
10.104385
9.9859166
9.83133
9.6422114
9.4205412
9.168511
8.8886083
8.5833438
8.2553431
7.9072537
7.5418607
7.1620287
6.770546
6.3703228
5.9642416
5.5561472
5.1484556
4.7443992
4.3469335
3.9587702
3.5823688
3.2198531
2.8729982
2.5431677
2.2313932
1.9383219
1.6643059
1.4094255
1.1734868
0.95611963
0.75674506
0.574709
0.40931525
0.25976511
0.12527573
0.0050386112
-0.10171201
-0.1957719
-0.27781295
-0.34854205
-0.40856336
-0.45849385
-0.49881236
-0.52990001
-0.55209361
-0.56613172
-0.57320441
-0.56445026
-0.26412644
-0.27275609
-0.26545859
-0.25103794
-0.22828459
-0.19642557
-0.15512722
-0.10404301
-0.04267791
0.029500271
0.113059
0.20861941
0.316849
0.43845471
0.57417805
0.72477328
0.8909821
1.0735173
1.2730474
1.4901682
1.7253655
1.9789738
2.2511301
2.5417269
2.8503756
3.1763716
3.5186574
3.8758144
4.246079
4.6273546
5.0172625
5.4131958
5.8123451
6.2118238
6.6087897
7.0003679
7.3836433
7.7558711
8.1144229
8.4565969
8.7795981
9.0806073
9.3567827
9.6052914
9.8234001
10.008541
10.158508
10.271488
10.346074
10.381434
10.377259
10.333532
10.25056
10.12913
9.9704961
9.7761756
9.5480849
9.2884458
8.9997207
8.6844857
8.3453523
7.9850286
7.6063085
7.2121324
6.8054771
6.3894225
5.9672546
5.5425494
5.1185769
4.6987676
4.2864189
3.8845623
3.4959157
3.1228193
2.7671624
2.4303528
2.1134046
1.816881
1.5409993
1.2856727
1.0505262
0.83499828
0.63833781
0.45971502
0.29822937
0.15297047
0.022976165
-0.092647499
-0.19480155
-0.28440803
-0.36217154
-0.42887967
-0.48516305
-0.53177539
-0.56915783
-0.597698
-0.61775142
-0.6300834
-0.63597354
-0.62651134
-0.34064788
-0.35001686
-0.34386369
-0.33103895
-0.31029785
-0.28086715
-0.24240153
-0.19451558
-0.13668572
-0.068341683
0.01114368
0.10245979
0.20635963
0.32365584
0.45520241
0.60187379
0.76455499
0.94412795
1.1414444
1.3572893
1.5923399
1.8471153
2.1219251
2.4168271
2.731564
3.0655025
3.4175943
3.7863578
4.1698852
4.5658669
4.9716146
5.3841467
5.8002902
6.2168282
6.630609
7.0384891
7.4374225
7.824606
8.1973618
8.5529331
8.888462
9.2010276
9.4876364
9.7452984
9.971195
10.162708
10.317573
10.434077
10.510965
10.547505
10.54349
10.498959
10.414198
10.289887
10.127171
9.9275022
9.6926777
9.4248907
9.1265516
8.8002931
8.4487483
8.0745903
7.6807509
7.2702206
6.8460304
6.4114365
5.9701236
5.5258905
5.0824953
4.6438425
4.2137298
3.7955902
3.3924616
3.0069325
2.6410478
2.2962898
1.9735985
1.6734217
1.3957861
1.1403748
0.90656452
0.69358694
0.50048838
0.32620703
0.16958631
0.029564008
-0.094969372
-0.20507394
-0.30176109
-0.38601675
-0.45873259
-0.52077662
-0.5727612
-0.61550229
-0.64943487
-0.67503279
-0.6926568
-0.70308236
-0.70755644
-0.69722674
-0.42597786
-0.43621188
-0.43139575
-0.42041845
-0.40202538
-0.37542088
-0.34024142
-0.2960822
-0.2423874
-0.1785364
-0.10384384
-0.017548037
0.081197925
0.19331731
0.31978338
0.46161394
0.6198682
0.79562412
0.98994081
1.2038227
1.4381801
1.6937756
1.9711598
2.2706049
2.5920208
2.9348792
3.298168
3.6803579
4.0793677
4.4925818
4.9169115
5.3488992
5.7848787
6.2211765
6.6542422
7.0806545
7.4972295
7.901087
8.2895505
8.6598773
9.0091471
9.3342775
9.6320764
9.8993972
10.133319
10.331186
10.490747
10.610448
10.689288
10.726761
10.722865
10.677722
10.591526
10.464754
10.298321
10.093543
9.8521035
9.5760919
9.2678186
8.9298189
8.5648436
8.1756427
7.7650809
7.3361561
6.8920056
6.4361129
5.9724623
5.5053119
5.0390091
4.5780748
4.1269549
3.6896486
3.269602
2.8697279
2.4922484
2.1386576
1.8097803
1.5058958
1.2268077
0.97190929
0.74028412
0.5308422
0.34237935
0.17356715
0.023004574
-0.11064656
-0.22860997
-0.33211396
-0.42238777
-0.50044739
-0.56731749
-0.62390726
-0.67093427
-0.70917738
-0.73919499
-0.76145081
-0.77626363
-0.78454663
-0.78751984
-0.77617484
-0.51964358
-0.53083811
-0.52753719
-0.51868094
-0.50297297
-0.4795967
-0.44819205
-0.40832899
-0.35941017
-0.30077144
-0.23166997
-0.1512635
-0.058612266
0.047317005
0.1676384
0.30354
0.45627415
0.62713284
0.81741434
1.0283907
1.2612649
1.5171083
1.7967768
2.1008124
2.4293523
2.7820408
3.1579482
3.555498
3.9723982
4.4056513
4.8516491
5.3063156
5.7653116
6.2243062
6.6792388
7.1263589
7.5623462
7.9843396
8.3897899
8.7759533
9.1397776
9.4780155
9.787301
10.064301
10.30594
10.509546
10.67301
10.795037
10.875018
10.912886
10.908996
10.863629
10.776761
10.648446
10.479296
10.270385
10.023198
9.739526
9.4215702
9.0718219
8.6928736
8.2876039
7.8589405
7.4098246
6.9433546
6.4632373
5.9738061
5.4799318
4.9867608
4.4996253
4.0237859
3.5640438
3.1244427
2.7082498
2.3178199
1.9546104
1.6193204
1.3119828
1.0320652
0.7785805
0.5502837
0.34567616
0.16319644
0.0011962085
-0.14194722
-0.26786682
-0.37799542
-0.47374204
-0.55647709
-0.62734706
-0.68748685
-0.7377936
-0.7791894
-0.81234222
-0.83790671
-0.85637412
-0.86805176
-0.87387883
-0.87513881
-0.86268538
-0.6210644
-0.63329297
-0.63170954
-0.62523874
-0.61255129
-0.59283015
-0.56571577
-0.5307461
-0.48729203
-0.43465134
-0.37202075
-0.29847966
-0.21299466
-0.11441492
-0.0014685555
0.12721736
0.27310048
0.43771195
0.6226359
0.82947293
1.0597841
1.3150112
1.5963804
1.9047876
2.2406916
2.6040076
2.9939554
3.4089218
3.8463791
4.3028757
4.774118
5.2551839
5.7408188
6.2257736
6.7052479
7.175146
7.6320545
8.0732927
8.4964679
8.8989426
9.2776071
9.6289821
9.9493839
10.235248
10.483411
10.691284
10.856971
10.979519
11.059041
11.096329
11.092265
11.047288
10.961137
10.833155
10.663345
10.452323
10.201259
9.9116193
9.5851687
9.2242442
8.8315135
8.4098122
7.9620753
7.4911648
7.0001193
6.4927384
5.973804
5.4489022
4.9242207
4.4062633
3.9014414
3.4155997
2.9535122
2.5188463
2.1141248
1.7407563
1.3991451
1.0889635
0.80923512
0.55848282
0.33500831
0.13688089
-0.037927285
-0.19142847
-0.32556589
-0.44219315
-0.54303215
-0.62968603
-0.70365184
-0.76625921
-0.81874748
-0.86196876
-0.89691742
-0.92433144
-0.94493102
-0.9591551
-0.96734548
-0.97043747
-0.96973254
-0.9561318
-0.72956545
-0.74291684
-0.74324124
-0.73940816
-0.73009545
-0.71447464
-0.69217985
-0.66273359
-0.62548401
-0.57968922
-0.52449338
-0.45890527
-0.38178848
-0.29186328
-0.1877052
-0.067753164
0.069679286
0.22640086
0.40433073
0.60545426
0.83175072
1.0851032
1.3671987
1.6794084
2.0226419
2.3971953
2.802541
3.2370935
3.6980924
4.1815513
4.682306
5.1942514
5.7107681
6.2253216
6.7321185
7.2266097
7.7055182
8.1664408
8.6072621
9.0257694
9.4188991
9.782664
10.11277
10.405437
10.657569
10.866736
11.031397
11.15129
11.227709
11.262701
11.258156
11.214697
11.131536
11.007054
10.840241
10.630894
10.379524
10.087053
9.7546832
9.3843145
8.9788047
8.5411648
8.0741169
7.5802244
7.0625464
6.5248924
5.9723265
5.4113256
4.8495681
4.2952878
3.7564738
3.2402545
2.7523975
2.2970666
1.8768683
1.4930506
1.1456131
0.83368949
0.55567167
0.30948986
0.092809739
-0.096824617
-0.26192631
-0.40487721
-0.52808025
-0.63364105
-0.72358724
-0.79968765
-0.86358347
-0.91672035
-0.96040465
-0.99564673
-1.0233888
-1.0443966
-1.059437
-1.0689857
-1.0733834
-1.0734713
-1.0705112
-1.0556668
-0.84440836
-0.85895323
-0.86137651
-0.86044628
-0.85486212
-0.84378859
-0.82686299
-0.80360296
-0.77333939
-0.73529849
-0.68858101
-0.63212815
-0.56470446
-0.48490198
-0.39114905
-0.28169329
-0.15459161
-0.0077162472
0.16122592
0.35464732
0.57500629
0.82471883
1.1060581
1.421026
1.7711542
2.1572696
2.5792391
3.0356454
3.5235573
4.0383819
4.5738225
5.1221322
5.6747133
6.2231069
6.7601019
7.280577
7.7816159
8.2615161
8.7189898
9.1524264
9.5586847
9.9328219
10.269462
10.564654
10.815938
11.021446
11.179955
11.291984
11.360605
11.390287
11.384746
11.344941
11.268909
11.153049
10.994769
10.792931
10.547434
10.258108
9.9246041
9.5481478
9.1319785
8.6798148
8.1943
7.6773434
7.1315636
6.5605639
5.9696363
5.3664877
4.7608638
4.1634054
3.5844544
3.0329035
2.5156817
2.0374652
1.6008776
1.2067876
0.8545694
0.54259567
0.26842811
0.029211587
-0.17812255
-0.35669288
-0.50957456
-0.63965644
-0.74970693
-0.84218712
-0.91940857
-0.98329837
-1.0356349
-1.0780051
-1.1117469
-1.138008
-1.1576994
-1.1716542
-1.1805617
-1.1849444
-1.185195
-1.1820464
-1.1766978
-1.1604937
-0.9647634
-0.98058196
-0.98528334
-0.98752924
-0.98601675
-0.97993783
-0.96894653
-0.9525569
-0.93009491
-0.90076997
-0.86364026
-0.81758729
-0.76130109
-0.6932622
-0.61174362
-0.51478966
-0.40018521
-0.26546199
-0.10792819
0.075293173
0.28721602
0.5309063
0.80937172
1.1254151
1.4814043
1.8789507
2.3185417
2.7991502
3.3178042
3.8692695
4.4458098
5.0373888
5.6325163
6.2197966
6.7899381
7.3371655
7.859195
8.3559552
8.827829
9.2738112
9.6903764
10.07103
10.408187
10.69768
10.938853
11.131469
11.275388
11.372078
11.426618
11.446955
11.439786
11.406568
11.343115
11.242985
11.10185
10.917757
10.68919
10.413551
10.08738
9.7106253
9.2877992
8.8239562
8.3220525
7.7832995
7.2088516
6.6014868
5.9667188
5.313879
4.6557182
4.0064625
3.3797715
2.7870084
2.2364439
1.7332185
1.2797913
0.87631189
0.52117919
0.21165269
-0.05574411
-0.2848419
-0.47958624
-0.64394731
-0.78161683
-0.89606375
-0.99042826
-1.0675331
-1.1299338
-1.1798046
-1.2190366
-1.2492875
-1.2719291
-1.288167
-1.2989363
-1.3051044
-1.3073066
-1.3060633
-1.3017575
-1.295066
-1.2872396
-1.2696551
-1.0897362
-1.1069055
-1.1140489
-1.1197187
-1.1226198
-1.121982
-1.1174891
-1.1086656
-1.094845
-1.0752315
-1.0488549
-1.0145567
-0.97097291
-0.91649509
-0.8492391
-0.76703621
-0.66740415
-0.54753903
-0.40433592
-0.23440496
-0.034090554
0.20045016
0.47312109
0.78773002
1.1477379
1.5558726
2.0136271
2.5207261
3.0744395
3.6689307
4.2947295
4.9386492
5.5847981
6.2171071
6.8231813
7.3968132
7.937326
8.4471791
8.929095
9.3832541
9.8052992
10.184934
10.510006
10.778281
10.99546
11.163916
11.282333
11.352167
11.381706
11.385131
11.375341
11.354401
11.313197
11.239998
11.127442
10.973701
10.778548
10.535493
10.232466
9.8652159
9.4420163
8.9715675
8.4574302
7.8994951
7.2968287
6.6505029
5.9656111
5.2534391
4.5313234
3.8190686
3.1351081
2.4941091
1.9059282
1.3759472
0.90596554
0.49492036
0.13978765
-0.16364608
-0.42024088
-0.63514439
-0.81336258
-0.95970136
-1.0786269
-1.174192
-1.2499715
-1.3091463
-1.3544776
-1.3883641
-1.4127907
-1.4294476
-1.4398228
-1.4450276
-1.4460208
-1.4436588
-1.4385748
-1.4312754
-1.422042
-1.4115458
-1.4010845
-1.3820662
-1.2183526
-1.2369126
-1.2466491
-1.2559649
-1.2636105
-1.2688509
-1.2714125
-1.2708501
-1.2665169
-1.2576277
-1.243216
-1.222112
-1.1929099
-1.1539225
-1.1031342
-1.038182
-0.95633832
-0.8544826
-0.72908436
-0.57618753
-0.3914202
-0.1700527
0.09288957
0.4024696
0.76356145
1.1804211
1.6560769
2.1915511
2.7849153
3.4300545
4.1155656
4.824141
5.533296
6.2190626
6.8637856
7.4613552
8.0151099
8.5320765
9.0178082
9.4731786
9.8937552
10.261004
10.550119
10.763735
10.926307
11.05188
11.135217
11.167189
11.155976
11.131576
11.117949
11.117919
11.113679
11.078913
11.005635
10.901954
10.772815
10.599567
10.347671
10.004365
9.5894498
9.1205574
8.6010784
8.0288325
7.4002511
6.71308
5.9704422
5.1858358
4.3839824
3.5936909
2.8404383
2.1430472
1.5129178
0.95518507
0.4701924
0.054913308
-0.29574011
-0.58801856
-0.828594
-1.0241401
-1.1808971
-1.3046587
-1.4007194
-1.4737445
-1.5277024
-1.5661134
-1.5919752
-1.6077709
-1.615612
-1.6172165
-1.6140458
-1.6071942
-1.5975887
-1.5860296
-1.573134
-1.5593672
-1.5448794
-1.5303709
-1.517108
-1.4966185
-1.349522
-1.3694897
-1.3819397
-1.395113
-1.4078057
-1.4193397
-1.4294962
-1.4378697
-1.4438575
-1.4467156
-1.445513
-1.4390912
-1.4260244
-1.4045687
-1.3726197
-1.3276716
-1.2667884
-1.1865521
-1.0830035
-0.95159678
-0.78718929
-0.5840706
-0.33602415
-0.036463816
0.32127646
0.74348764
1.2354327
1.8002849
2.4377839
3.142325
3.9006842
4.6903365
5.478944
6.2294105
6.9162236
7.5346217
8.0940541
8.6094545
9.0910296
9.5370932
9.9417437
10.271583
10.480863
10.585739
10.643781
10.694197
10.729882
10.716265
10.652171
10.586173
10.567209
10.599639
10.643614
10.655955
10.634499
10.611058
10.599654
10.559665
10.411122
10.11861
9.7268758
9.2720213
8.7568552
8.1778394
7.5266551
6.7960629
5.9857265
5.1108024
4.207383
3.3190884
2.4816236
1.7187772
1.0430221
0.45808509
-0.038359808
-0.45239407
-0.79211684
-1.0664044
-1.2841364
-1.453856
-1.5832243
-1.6790964
-1.747572
-1.7939324
-1.8225541
-1.8371418
-1.8409401
-1.8365594
-1.8260183
-1.8110573
-1.7930935
-1.7732123
-1.7522108
-1.7307937
-1.7095786
-1.6889785
-1.6690227
-1.6503378
-1.6341169
-1.6121378
-1.4820587
-1.5034238
-1.5186938
-1.5359054
-1.5539142
-1.572121
-1.5903709
-1.6083186
-1.6254349
-1.6410498
-1.6542935
-1.6640472
-1.6689009
-1.6671025
-1.6565149
-1.6345606
-1.5981439
-1.5435796
-1.4665055
-1.3618039
-1.2235449
-1.0449577
-0.81844187
-0.53565305
-0.1877316
0.2342601
0.73866991
1.3321122
2.0175605
2.7915228
3.6401523
4.5345934
5.4268551
6.2554275
6.9832629
7.6161337
8.1754634
8.6824328
9.1511688
9.5754476
9.9445981
10.180029
10.199328
10.068469
9.942381
9.9226714
9.9460706
9.8915671
9.7493541
9.6162161
9.5908489
9.6789365
9.7965673
9.8591434
9.8667239
9.9191037
10.101689
10.333865
10.400418
10.206232
9.8587475
9.4337526
8.9338983
8.3536151
7.681648
6.9066879
6.0195885
5.0302546
3.9936159
2.9796498
2.0390838
1.2011851
0.47774731
-0.13104771
-0.6322737
-1.0366686
-1.3563668
-1.6035692
-1.7899094
-1.9259535
-2.0209163
-2.082743
-2.1183602
-2.1335434
-2.1329762
-2.1205973
-2.0996872
-2.0728503
-2.0421865
-2.0092297
-1.9752601
-1.9413463
-1.9082345
-1.8764391
-1.8464598
-1.8186503
-1.7930365
-1.7700671
-1.7508392
-1.7273781
-1.6147044
-1.6374397
-1.6555962
-1.677
-1.7005516
-1.7257507
-1.7525298
-1.7806338
-1.8096344
-1.838958
-1.8678268
-1.8952069
-1.919758
-1.9397912
-1.9532032
-1.9574153
-1.9492436
-1.9248032
-1.8794033
-1.8074066
-1.7021179
-1.5556855
-1.3590489
-1.1019377
-0.77294847
-0.35987273
0.14969586
0.76738609
1.5017782
2.3546886
3.3148333
4.3478837
5.3870974
6.320413
7.0858421
7.7155657
8.2613982
8.7578626
9.2076771
9.5809018
9.8957087
9.9257581
9.5391272
8.8905178
8.3525975
8.287899
8.4614656
8.4486295
8.2105121
7.9938226
7.963549
8.1231459
8.3345424
8.3788918
8.2744341
8.3678407
8.9353384
9.7362866
10.260573
10.25375
9.9832868
9.6181096
9.143268
8.5693611
7.8849866
7.0702147
6.0954297
4.949782
3.7281354
2.5494258
1.4833482
0.56232073
-0.20672181
-0.83125319
-1.3259806
-1.7082085
-1.9954283
-2.2038745
-2.3482217
-2.4412212
-2.4936601
-2.514554
-2.5114164
-2.4905586
-2.4568298
-2.4141361
-2.3658841
-2.3144963
-2.2619356
-2.2096222
-2.1586476
-2.1098531
-2.0639188
-2.0212659
-1.9822226
-1.946977
-1.9155084
-1.8881258
-1.8658797
-1.840967
-1.7461569
-1.7701987
-1.7912863
-1.8169728
-1.8462331
-1.8786724
-1.914341
-1.9530987
-1.9946405
-2.0385185
-2.08409
-2.1304611
-2.1764311
-2.2204552
-2.2605491
-2.2942027
-2.3182496
-2.3287196
-2.3207047
-2.2881571
-2.2237065
-2.1184904
-1.9620037
-1.7419748
-1.4442474
-1.052876
-0.5504522
0.081161842
0.85901897
1.7946541
2.8843676
4.0950095
5.3462693
6.3977126
7.1709838
7.8026958
8.3459148
8.8618411
9.3167399
9.6067718
9.8289218
9.3973018
8.2642525
6.4584391
5.1557904
5.3502165
6.0681968
6.2178084
5.8005172
5.429453
5.3944151
5.695929
6.0834675
6.0220613
5.5086046
5.3950691
6.5612379
8.5250307
9.9572171
10.284492
10.122514
9.8684627
9.4255671
8.8453907
8.1305196
7.2533197
6.1954054
4.849799
3.369429
1.9790945
0.76839461
-0.23649221
-1.0405761
-1.6647548
-2.1350314
-2.4773499
-2.7155906
-2.8705665
-2.9601159
-2.9991719
-2.9999065
-2.9722395
-2.9241548
-2.8621148
-2.7911081
-2.7149768
-2.6367415
-2.5588013
-2.4827857
-2.4098852
-2.3409651
-2.2766486
-2.2173982
-2.1634998
-2.1151393
-2.0723388
-2.0348882
-2.003053
-1.9777871
-1.9515241
-1.8750842
-1.9003298
-1.9243333
-1.9543187
-1.9893689
-2.0292166
-2.0740383
-2.1238266
-2.1784282
-2.2375619
-2.3007704
-2.3673625
-2.436355
-2.5064259
-2.5758173
-2.6421888
-2.7025217
-2.752921
-2.7884041
-2.8026878
-2.7879226
-2.734419
-2.6303662
-2.4615611
-2.2110928
-1.8591114
-1.3827597
-0.756281
0.048739195
1.0582303
2.2903279
3.7292753
5.2878659
6.406972
7.0090247
7.6511967
8.3147241
9.0219886
9.5805461
9.7350995
9.3274713
7.3795261
4.1657232
-0.650005
-3.1680322
-0.90786799
1.9638568
2.9257412
2.4035289
1.8233444
1.7912671
2.3130351
2.8531394
2.1835808
-0.075597371
-1.9360088
-0.12164827
4.6578769
8.5200118
10.063618
10.427979
10.351471
9.852465
9.0953388
8.2347736
7.2497792
6.2449848
4.697259
2.8503884
1.1941571
-0.17118726
-1.2449772
-2.0591948
-2.6554591
-3.0747266
-3.3531629
-3.5214477
-3.605054
-3.6248471
-3.5975781
-3.5365735
-3.4522305
-3.3527559
-3.2445024
-3.1321841
-3.019487
-2.9089661
-2.8026436
-2.7017866
-2.6072886
-2.519722
-2.439419
-2.3665543
-2.3012168
-2.243424
-2.1930163
-2.1496153
-2.1133684
-2.0851197
-2.0576458
-2.0001032
-2.0263965
-2.0532253
-2.0874614
-2.1282891
-2.1756033
-2.2297136
-2.2907593
-2.3587737
-2.4336857
-2.5152748
-2.6031215
-2.6965409
-2.7945178
-2.8956278
-2.9978557
-3.0984837
-3.1938806
-3.2792128
-3.3482064
-3.3928116
-3.4028159
-3.3654124
-3.2647548
-3.0814694
-2.7921144
-2.3690565
-1.77956
-0.98559546
0.055091869
1.3832324
3.0125327
4.9892672
6.4667541
6.8078223
7.4291264
8.3000784
9.194142
9.9558986
10.016267
7.7236898
2.5366081
-1.6457847
-13.05497
-18.267881
-13.113077
-5.5290034
-2.0294399
-2.0993772
-2.8304493
-2.8391292
-2.1137744
-1.8986523
-4.7989361
-11.43338
-15.676123
-13.297367
-2.8144296
3.9998582
7.8976628
10.546149
11.085232
10.345018
9.4333095
8.370526
7.2691424
6.3167785
4.3278162
1.9602311
0.044117311
-1.4351795
-2.527956
-3.3021204
-3.8269522
-4.1581399
-4.3416992
-4.414441
-4.4058062
-4.3389764
-4.2319642
-4.0985784
-3.9493092
-3.7921048
-3.6327143
-3.4754982
-3.3234504
-3.1786235
-3.0424549
-2.9157552
-2.798915
-2.6922263
-2.5956807
-2.5091274
-2.4323677
-2.3651846
-2.3072488
-2.2580776
-2.217562
-2.1864627
-2.1579445
-2.1197646
-2.1469006
-2.1764045
-2.214754
-2.2612499
-2.3159595
-2.3793396
-2.4516968
-2.5332801
-2.6242724
-2.7247448
-2.8346098
-2.9535587
-3.0809873
-3.2159168
-3.3568321
-3.5014994
-3.6467686
-3.788271
-3.9200923
-4.0343593
-4.1207419
-4.1658919
-4.1528057
-4.0602711
-3.862134
-3.5277122
-3.0213784
-2.3062172
-1.3349728
-0.15336372
1.3719449
3.7571787
5.9800523
8.2495112
8.1736275
9.2102542
10.713307
11.269391
10.720833
6.1233072
0.44202426
13.97957
-4.1719809
-37.421847
-28.771291
-14.901809
-7.4783408
-7.2701183
-8.7440674
-8.721274
-7.1660636
-7.2129756
-14.010747
-27.011583
-34.828456
-15.953808
4.0084736
-1.8345188
4.6035951
9.4087165
12.515883
12.111119
10.964953
9.5866799
7.9092739
5.972201
3.1635019
0.15738161
-1.7895703
-3.162757
-4.1579315
-4.8063572
-5.197403
-5.3926997
-5.4438405
-5.391422
-5.2673153
-5.0957692
-4.8950391
-4.6786408
-4.4564525
-4.2355572
-4.0207033
-3.8153797
-3.621766
-3.4411807
-3.2742206
-3.1211111
-2.9816652
-2.8557381
-2.7429297
-2.6428113
-2.554856
-2.478479
-2.4132486
-2.3585308
-2.3140017
-2.2802938
-2.2509901
-2.2326153
-2.2603199
-2.2922965
-2.3345257
-2.3864571
-2.4483507
-2.520813
-2.6043378
-2.6994177
-2.8065262
-2.9260761
-3.0583658
-3.2035347
-3.3615073
-3.5318857
-3.713812
-3.9057595
-4.1053227
-4.3089524
-4.5115566
-4.7059651
-4.8822901
-5.0271961
-5.1231235
-5.147712
-5.0730522
-4.8673037
-4.4962996
-3.9341346
-3.1552705
-2.4433862
-1.1415217
1.7727962
5.2231517
9.876577
13.125779
10.90592
11.739458
12.307905
12.065645
4.9659091
-13.41265
5.0662421
-48.846447
-57.703808
-44.53635
-23.27553
-11.289209
-12.214058
-16.514519
-16.487067
-11.913793
-10.949793
-22.302889
-41.995673
-54.110066
-48.270443
-9.3986652
-5.0855399
3.7841215
12.955001
16.455112
14.612513
14.004975
16.562679
9.2860896
4.9570964
1.1540034
-2.6375503
-4.5446578
-5.4454322
-6.169276
-6.5879268
-6.7713438
-6.7758778
-6.6529169
-6.4432987
-6.1792325
-5.8845144
-5.5763102
-5.2668536
-4.9645826
-4.6748514
-4.4011116
-4.1454402
-3.9088262
-3.6916239
-3.4935182
-3.3139443
-3.1521151
-3.0072823
-2.8785986
-2.7652975
-2.6665326
-2.5813972
-2.5092826
-2.4493535
-2.4011384
-2.3651244
-2.3353796
-2.3372438
-2.3651696
-2.3993375
-2.4451191
-2.5021206
-2.5708275
-2.6519979
-2.7463235
-2.8545623
-2.977505
-3.1159428
-3.2706149
-3.4421873
-3.6312127
-3.8380118
-4.0625409
-4.3042203
-4.561717
-4.8326921
-5.1133976
-5.3980389
-5.677905
-5.9405536
-6.1686866
-6.3392547
-6.4226199
-6.3862608
-6.1995365
-5.8566562
-5.3944418
-5.0803759
-3.0837118
0.48677241
5.1288126
8.0178885
14.095771
15.233804
13.693776
13.405304
18.130836
11.03264
-15.825677
-43.965369
-63.743158
-68.201666
-56.753715
-26.312296
-5.5597388
-13.653754
-29.382701
-29.086951
-13.129431
-5.2156938
-26.177562
-56.535328
-69.390943
-65.160383
-46.42738
5.6254504
8.9461669
20.866723
20.902817
19.38429
21.578171
18.113832
8.0653226
4.9666474
-0.62660688
-4.8643975
-7.9555102
-8.2861485
-8.5480269
-8.634889
-8.5362887
-8.2939539
-7.9538569
-7.5539627
-7.1254121
-6.689706
-6.2614735
-5.8504231
-5.4623582
-5.1002383
-4.7654979
-4.4583683
-4.178379
-3.9246002
-3.6957025
-3.4902164
-3.3066991
-3.1437248
-2.9999604
-2.8742176
-2.7652773
-2.672041
-2.5936217
-2.5289903
-2.4775042
-2.4395243
-2.4097117
-2.4322839
-2.460024
-2.4960083
-2.544912
-2.6064969
-2.6814737
-2.770767
-2.8752763
-2.996032
-3.1341612
-3.2908553
-3.4673509
-3.664913
-3.8847978
-4.1281505
-4.3959055
-4.6886719
-5.0065424
-5.3488255
-5.7136832
-6.0975061
-6.4937702
-6.8922221
-7.2773547
-7.6265991
-7.907868
-8.0842309
-8.1236138
-8.0022179
-7.7643728
-7.1549309
-4.2392531
1.9334798
5.5702607
9.8903685
12.572569
16.625374
22.409245
22.129184
24.238959
31.047666
16.591527
-40.474284
-45.379807
-64.660611
-86.601399
-28.203309
45.827519
65.976481
197.83119
202.59101
72.629905
44.855494
-29.942584
-89.773242
-68.753594
-48.687963
-38.887869
27.689188
32.568891
28.369338
19.726993
22.355397
24.809425
16.030081
11.477026
5.4283337
-2.568693
-6.6404043
-11.330757
-11.518901
-11.246178
-10.926381
-10.47177
-9.9257919
-9.3233776
-8.6995085
-8.0829334
-7.4906004
-6.9323395
-6.4135938
-5.9363744
-5.5003673
-5.1042731
-4.7461309
-4.4236796
-4.1344469
-3.8759964
-3.6458786
-3.4418733
-3.2619699
-3.1043063
-2.9671884
-2.8490612
-2.7485744
-2.6645931
-2.5959082
-2.541708
-2.5021719
-2.4726818
-2.5164339
-2.5435241
-2.5808585
-2.632347
-2.6979011
-2.7784334
-2.8750398
-2.9888404
-3.1211408
-3.2734126
-3.4472635
-3.6444615
-3.8669095
-4.1166278
-4.3956755
-4.7061004
-5.0499082
-5.4289249
-5.8445667
-6.2975306
-6.7872329
-7.3108306
-7.8619052
-8.4290114
-8.9936875
-9.5241128
-9.980539
-10.332582
-10.480745
-10.613604
-9.8754869
-7.4972284
3.7511984
11.732376
11.588018
16.04417
23.504942
31.835968
24.67826
34.116996
68.293443
49.20071
2.0686637
72.220666
-100.90214
725.8727
1270.4021
1688.5714
3449.739
5396.6893
5412.6206
3520.8422
1825.173
1420.6686
807.28728
-95.331722
72.979143
-8.1349652
52.968825
78.830492
42.498846
26.749608
31.367831
27.142801
16.140275
9.5439998
1.7154684
-5.7301614
-12.679375
-15.313251
-15.153781
-14.243699
-13.467465
-12.561291
-11.640052
-10.725768