/*--------------------------------*- C++ -*----------------------------------*\
  =========                 |
  \\      /  F ield         | OpenFOAM: The Open Source CFD Toolbox
   \\    /   O peration     | Website:  https://openfoam.org
    \\  /    A nd           | Version:  9
     \\/     M anipulation  |
\*---------------------------------------------------------------------------*/
FoamFile
{
    format      ascii;
    class       surfaceScalarField;
    location    "0.22";
    object      phi;
}
// * * * * * * * * * * * * * * * * * * * * * * * * * * * * * * * * * * * * * //

dimensions      [0 3 -1 0 0 0 0];

internalField   nonuniform List<scalar> 
19800
(
0.00014134804
-0.00013518716
0.00021511163
-0.00013596612
0.000289147
-0.00013650713
0.00036334544
-0.00013706923
0.00043763751
-0.00013754856
0.00051202464
-0.00013810602
0.00058649072
-0.00013872077
0.00066102043
-0.00013937665
0.00073559254
-0.00014007
0.00081017428
-0.00014079201
0.00088473216
-0.00014152823
0.00095921263
-0.00014226534
0.0010335385
-0.00014298764
0.0011076243
-0.00014366883
0.00118137
-0.0001442832
0.0012546147
-0.00014478376
0.0013271832
-0.00014511182
0.0013989149
-0.00014519474
0.0014696361
-0.00014497548
0.0015390859
-0.00014434833
0.001606958
-0.00014320748
0.0016729086
-0.00014143637
0.0017365382
-0.00013891024
0.0017974095
-0.00013542577
0.0018549709
-0.00013082491
0.0019086056
-0.00012493558
0.0019575981
-0.00011761274
0.0020012275
-0.00010846618
0.0020386345
-9.7379134e-05
0.0020687063
-8.423458e-05
0.0020900941
-6.8712997e-05
0.0021013958
-5.0236042e-05
0.0021017637
-2.7759231e-05
0.0020940191
-4.0507752e-06
0.0020760664
2.3566877e-05
0.0020434902
5.2850913e-05
0.0019961344
8.3559226e-05
0.0019333095
0.00011601179
0.0018544243
0.00014998275
0.0017590847
0.00018485221
0.001647088
0.00022027239
0.0015186589
0.00025571188
0.0013743226
0.00029020315
0.0012148585
0.00032286732
0.0010414758
0.00035288548
0.00085573649
0.00037943473
0.00065949148
0.00040172646
0.00045486207
0.00041911046
0.00024417591
0.00043112309
2.9877271e-05
0.00043755991
-0.00018476873
0.0004381798
-0.00039640201
0.00043296031
-0.00060247684
0.00042212566
-0.00080064469
0.00040587878
-0.00098876016
0.00038464583
-0.0011649379
0.00035902
-0.0013276057
0.00032976327
-0.00147549
0.00029772662
-0.001607692
0.00026385664
-0.001723634
0.00022893754
-0.0018230871
0.00019357806
-0.0019061348
0.00015856377
-0.0019731422
0.00012448815
-0.0020246226
9.1834052e-05
-0.0020612678
6.0924834e-05
-0.0020833895
3.1532928e-05
-0.0020925326
2.6897116e-06
-0.0020955402
-2.098297e-05
-0.0020875764
-4.4440036e-05
-0.0020693743
-6.4041721e-05
-0.0020422249
-8.0429284e-05
-0.0020073774
-9.427518e-05
-0.0019658765
-0.00010595049
-0.0019186144
-0.0001156742
-0.0018664302
-0.00012351216
-0.0018100432
-0.00012979818
-0.0017500874
-0.00013487554
-0.0016871033
-0.00013877343
-0.0016215656
-0.00014168521
-0.0015538964
-0.00014376781
-0.0014844672
-0.00014517633
-0.0014135792
-0.00014605403
-0.0013415487
-0.00014648491
-0.0012685875
-0.00014656154
-0.0011948421
-0.00014637645
-0.0011204908
-0.00014598192
-0.001045701
-0.00014544636
-0.00097061697
-0.00014480934
-0.00089532996
-0.00014411583
-0.00081991791
-0.00014340168
-0.00074445062
-0.00014268424
-0.00066897085
-0.0001419778
-0.00059352268
-0.0001412972
-0.00051812807
-0.00014064497
-0.00044279354
-0.00014003233
-0.00036753475
-0.00013947892
-0.00029232719
-0.00013900649
-0.00021718192
-0.00013856892
-0.00014212584
-0.00013816408
-0.0001379758
0.00014033828
-0.00020953612
0.00021439471
-0.00021002965
0.00028848007
-0.00021059529
0.00036262209
-0.0002112146
0.00043684804
-0.00021177573
0.00051116042
-0.00021242051
0.00058555419
-0.00021311584
0.00066002034
-0.00021384289
0.00073454257
-0.00021459028
0.00080908992
-0.00021533465
0.00088361682
-0.00021604986
0.00095807152
-0.00021671636
0.0010323936
-0.00021730855
0.0011064984
-0.00021777493
0.0011802771
-0.0002180641
0.0012536495
-0.0002181569
0.0013264707
-0.00021793159
0.0013985465
-0.00021726828
0.0014696646
-0.00021609231
0.0015396463
-0.00021433133
0.0016081639
-0.00021172964
0.0016749523
-0.00020823175
0.0017395784
-0.00020354374
0.0018016441
-0.00019749738
0.0018606495
-0.00018983426
0.0019159681
-0.00018025681
0.0019668763
-0.00016852331
0.0020127403
-0.0001543333
0.0020525454
-0.00013718881
0.0020852172
-0.00011691184
0.0021097254
-9.3226368e-05
0.0021252651
-6.5779129e-05
0.0021318359
-3.4331103e-05
0.0021267012
1.0848373e-06
0.0021097627
4.0507309e-05
0.0020793772
8.3238423e-05
0.0020340429
0.00012889535
0.0019728967
0.00017715932
0.0018951665
0.00022771439
0.0018002337
0.00027978736
0.0016878661
0.00033264223
0.0015582516
0.00038532625
0.0014117221
0.00043673177
0.0012490302
0.00048555877
0.0010714136
0.00053049906
0.00088052652
0.00057031977
0.00067841045
0.0006038461
0.00046746702
0.00063005544
0.00025044633
0.00064814103
3.0505709e-05
0.00065750186
-0.00018970917
0.00065839636
-0.00040760166
0.00065084625
-0.00062002662
0.00063454709
-0.00082417962
0.00061003178
-0.0010176119
0.00057807268
-0.0011982324
0.00053963904
-0.0013643563
0.00049588216
-0.001514681
0.00044805884
-0.0016483201
0.00039749366
-0.0017647181
0.00034534452
-0.0018638274
0.00029268597
-0.0019458629
0.00024061105
-0.0020112723
0.00018988989
-0.0020607894
0.00014135792
-0.0020951579
9.5288735e-05
-0.0021155702
5.1937621e-05
-0.0021244769
1.1603654e-05
-0.0021209671
-2.4489592e-05
-0.0021084341
-5.6978159e-05
-0.002086893
-8.5583811e-05
-0.0020569481
-0.00011037269
-0.0020196002
-0.00013162363
-0.0019758553
-0.00014969098
-0.0019266421
-0.00016488189
-0.0018727486
-0.00017740158
-0.00181484
-0.00018770046
-0.0017536062
-0.00019610681
-0.0016895362
-0.00020284147
-0.0016231136
-0.0002081062
-0.0015547513
-0.00021212247
-0.0014847275
-0.00021519175
-0.001413423
-0.00021735382
-0.0013410415
-0.00021886136
-0.0012677694
-0.00021983413
-0.0011938224
-0.00022032001
-0.0011193969
-0.0002204125
-0.0010445943
-0.00022025249
-0.00096950085
-0.00021990441
-0.0008942224
-0.00021939521
-0.00081883615
-0.00021878153
-0.00074341588
-0.00021810668
-0.00066799155
-0.00021739973
-0.00059259832
-0.00021668275
-0.00051727121
-0.00021597719
-0.00044201229
-0.00021529233
-0.00036682791
-0.00021466236
-0.00029171322
-0.00021412733
-0.00021666285
-0.00021362526
-0.00014168866
-0.000213137
-0.00021288109
0.00013993348
-0.00028362226
0.00021393594
-0.00028403442
0.00028799323
-0.00028465536
0.00036207926
-0.00028530127
0.00043625547
-0.00028595353
0.00051053214
-0.0002866987
0.00058490381
-0.00028748901
0.00065936022
-0.00028830021
0.00073388575
-0.00028911474
0.00080845736
-0.00028990417
0.00088304524
-0.00029063601
0.00095760296
-0.00029127338
0.0010320612
-0.0002917676
0.0011063639
-0.00029207916
0.0011805137
-0.00029221478
0.0012542838
-0.00029192646
0.0013275176
-0.00029116403
0.0014000574
-0.00028980701
0.0014718712
-0.00028790649
0.0015427195
-0.00028518194
0.0016122584
-0.00028127242
0.0016803059
-0.00027628371
0.0017463746
-0.00026961666
0.001810228
-0.00026135459
0.0018712242
-0.00025083414
0.0019288426
-0.00023787911
0.0019823418
-0.00022202634
0.0020309334
-0.00020292855
0.0020738463
-0.00018010468
0.0021100807
-0.00015314836
0.0021385252
-0.00012167205
0.0021581413
-8.5396163e-05
0.0021680197
-4.4210631e-05
0.0021663844
2.7182602e-06
0.0021527623
5.4127194e-05
0.002125344
0.0001106551
0.0020827843
0.00017145493
0.0020239461
0.00023599901
0.001947918
0.00030374431
0.0018539603
0.00037374676
0.0017415486
0.00044505531
0.0016105899
0.00051628386
0.0014615792
0.00058574016
0.0012952283
0.00065191085
0.0011126572
0.00071307187
0.00091557246
0.00076740355
0.00070615859
0.00081326076
0.00048702169
0.00084919318
0.00026110005
0.00087405731
3.1527595e-05
0.00088706892
-0.00019838361
0.00088830914
-0.00042530737
0.00087776845
-0.00064608766
0.00085532301
-0.00085768535
0.00082162948
-0.0010574835
0.0007778663
-0.0012432748
0.0007254317
-0.0014133242
0.00066592908
-0.0015663419
0.00060108155
-0.0017014219
0.00053257583
-0.0018181871
0.00046211492
-0.0019165964
0.00039108808
-0.0019970294
0.00032104866
-0.0020603422
0.00025320324
-0.002107151
0.00018816345
-0.0021386585
0.00012680704
-0.0021561929
6.9466497e-05
-0.0021613983
1.6800908e-05
-0.0021548998
-3.0985143e-05
-0.0021383796
-7.3497304e-05
-0.0021128386
-0.00011112622
-0.00207927
-0.00014393936
-0.0020386736
-0.00017221617
-0.0019919919
-0.00019636631
-0.0019402436
-0.00021662638
-0.0018840387
-0.00023360862
-0.0018241081
-0.00024763339
-0.0017610226
-0.00025919397
-0.001695511
-0.00026835108
-0.0016277772
-0.00027583558
-0.0015582493
-0.00028164402
-0.0014874105
-0.00028602716
-0.001415277
-0.00028948687
-0.0013423182
-0.00029181722
-0.0012686625
-0.00029349015
-0.0011943282
-0.00029465298
-0.0011195177
-0.00029522554
-0.0010443866
-0.00029538808
-0.0009691105
-0.00029517683
-0.0008937217
-0.00029478635
-0.00081825913
-0.00029423957
-0.00074278123
-0.00029357991
-0.00066734043
-0.00029284407
-0.00059196499
-0.00029206214
-0.00051666927
-0.00029127195
-0.00044146947
-0.00029050376
-0.00036635622
-0.00028977909
-0.00029132901
-0.00028914856
-0.00021637695
-0.00028859027
-0.00014151164
-0.00028800995
-0.00028770329
0.00013954781
-0.00035750743
0.00021344646
-0.00035793538
0.00028743393
-0.00035864295
0.00036144459
-0.00035931286
0.00043556025
-0.00036007028
0.0005097899
-0.00036093009
0.00058413481
-0.00036183629
0.00065858833
-0.00036275534
0.00073314281
-0.00036367022
0.00080778489
-0.00036454721
0.00088248437
-0.00036533643
0.0009572053
-0.00036599551
0.0010319064
-0.00036647011
0.0011065243
-0.00036669778
0.0011809177
-0.00036660789
0.0012550373
-0.00036604544
0.0013288202
-0.00036494679
0.0014021809
-0.00036316845
0.0014748711
-0.00036059823
0.0015466656
-0.00035697845
0.0016175003
-0.00035210925
0.0016869548
-0.00034574039
0.0017548527
-0.00033751735
0.0018206535
-0.00032715956
0.0018840279
-0.00031421369
0.0019443831
-0.00029823954
0.0020010705
-0.00027871773
0.0020533443
-0.00025520418
0.0021003579
-0.00022711812
0.0021410705
-0.00019385998
0.0021743734
-0.00015497481
0.002199031
-0.00011005591
0.0022135081
-5.8692067e-05
0.0022174727
-1.2518311e-06
0.0022086027
6.2992775e-05
0.0021853879
0.00013386763
0.0021466447
0.00021019843
0.0020909386
0.00029170692
0.0020170468
0.00037763717
0.0019240398
0.00046675311
0.0018113688
0.00055772599
0.0016788109
0.00064884247
0.0015264571
0.00073809421
0.0013550297
0.00082334067
0.0011658538
0.00090225119
0.00096060684
0.00097264854
0.00074162572
0.0010322363
0.00051179719
0.0010790184
0.00027434946
0.0011115023
3.2776163e-05
0.0011286377
-0.00020915743
0.0011302428
-0.00044767182
0.0011162839
-0.00067923223
0.0010868788
-0.00090059695
0.0010429934
-0.0011088614
0.0009861284
-0.0013015942
0.00091816694
-0.0014769141
0.00084125424
-0.0016334689
0.00075763834
-0.0017705113
0.00066961683
-0.0018877778
0.00057938223
-0.0019855086
0.00048882025
-0.0020641916
0.00039972397
-0.002124551
0.0003135726
-0.0021678543
0.000231463
-0.002195273
0.00015422373
-0.0022081002
8.229502e-05
-0.0022080433
1.6745173e-05
-0.0021969985
-4.2032024e-05
-0.0021755751
-9.4925068e-05
-0.0021452118
-0.00014148819
-0.0021071015
-0.0001820436
-0.002062377
-0.00021694114
-0.0020120839
-0.00024666114
-0.0019570162
-0.00027169277
-0.0018979392
-0.0002926867
-0.0018354761
-0.00031009745
-0.0017704112
-0.00032425459
-0.0017029628
-0.00033579126
-0.0016337257
-0.0003450694
-0.0015629604
-0.00035240529
-0.0014908986
-0.00035808458
-0.0014179446
-0.00036243791
-0.001344123
-0.00036563532
-0.0012697026
-0.00036790999
-0.0011949172
-0.00036944142
-0.0011197972
-0.00037034097
-0.0010444407
-0.00037074478
-0.00096889398
-0.00037072238
-0.0008932833
-0.00037039652
-0.00081767336
-0.00036985335
-0.00074210843
-0.00036914676
-0.00066661651
-0.00036833219
-0.00059122858
-0.00036746208
-0.00051595137
-0.00036655468
-0.00044079022
-0.00036567007
-0.00036574047
-0.00036482932
-0.00029080137
-0.00036408768
-0.00021594905
-0.00036344143
-0.00014119107
-0.00036277182
-0.00036239117
0.00013910468
-0.00043119879
0.00021286884
-0.00043169937
0.00028672789
-0.00043250265
0.00036065893
-0.00043324446
0.00043471633
-0.00043412894
0.00050889777
-0.00043511395
0.0005832073
-0.00043614845
0.00065766316
-0.00043721407
0.00073225531
-0.00043826561
0.00080698036
-0.00043927525
0.00088181066
-0.00044016921
0.00095671946
-0.00044090617
0.001031668
-0.00044141946
0.0011066014
-0.00044163095
0.0011814442
-0.00044145049
0.0012561599
-0.00044076164
0.001330656
-0.00043944419
0.0014048383
-0.00043735233
0.0014785325
-0.00043429376
0.0015516305
-0.00043007706
0.0016239455
-0.00042442452
0.0016953057
-0.00041710171
0.0017653697
-0.00040758447
0.001833814
-0.00039560892
0.0019002421
-0.00038064753
0.001964177
-0.00036217882
0.0020249826
-0.00033952522
0.0020818812
-0.00031210201
0.0021339751
-0.00027920998
0.0021803415
-0.00024022545
0.0022197127
-0.00019434782
0.0022507613
-0.00014110947
0.002272198
-8.0135521e-05
0.002282169
-1.1228824e-05
0.0022792998
6.5858581e-05
0.0022618713
0.00015129523
0.0022281941
0.00024387557
0.0021766871
0.00034321387
0.0021059269
0.00044839673
0.0020147011
0.00055797755
0.0019020956
0.00067033207
0.0017675227
0.00078341925
0.0016111027
0.00089451744
0.0014333379
0.0010011058
0.0012354395
0.0011001481
0.0010194303
0.0011886538
0.00078790689
0.0012637537
0.0005439894
0.0013229323
0.00029144932
0.0013640436
3.4392145e-05
0.0013856954
-0.00022304823
0.0013876805
-0.00047674431
0.0013699777
-0.00072258574
0.0013327162
-0.00095679208
0.0012772
-0.0011760955
0.0012054376
-0.0013777861
0.0011198614
-0.0015598232
0.0010232972
-0.0017208887
0.00091870492
-0.001860302
0.00080903074
-0.0019780498
0.00069711564
-0.0020743784
0.00058515698
-0.0021502053
0.00047554902
-0.002206642
0.00037001196
-0.002245069
0.00026989708
-0.0022670491
0.00017620023
-0.0022741885
8.9424044e-05
-0.0022682139
1.0767082e-05
-0.0022503511
-5.9889903e-05
-0.0022225586
-0.00012271297
-0.002186152
-0.00017789801
-0.0021424354
-0.00022576308
-0.0020925345
-0.00026684369
-0.0020375397
-0.00030165689
-0.001978263
-0.00033096946
-0.001915509
-0.00035544074
-0.0018500117
-0.00037559438
-0.0017821386
-0.00039212737
-0.0017123928
-0.00040553398
-0.0016411563
-0.00041630695
-0.0015687228
-0.00042484241
-0.0014953253
-0.00043148374
-0.0014211935
-0.00043656798
-0.0013464685
-0.00044035705
-0.0012713002
-0.00044307079
-0.0011958406
-0.00044490579
-0.0011201787
-0.0004460091
-0.0010443991
-0.00044652276
-0.00096856468
-0.00044655983
-0.0008927283
-0.00044623035
-0.00081695294
-0.00044562728
-0.00074128198
-0.00044482763
-0.00066573483
-0.00044388395
-0.0005903328
-0.00044286631
-0.00051506774
-0.00044181648
-0.00043994958
-0.00044079126
-0.00036497693
-0.0004398036
-0.00029013011
-0.00043894101
-0.00021540446
-0.00043817009
-0.00014077224
-0.00043739306
-0.0004369108
0.00013863494
-0.0005046958
0.00021223404
-0.00050529943
0.00028593167
-0.00050620087
0.00035975117
-0.00050706482
0.00043370905
-0.00050808858
0.00050782955
-0.00050923662
0.00058212643
-0.00051044828
0.00065660189
-0.00051169349
0.00073126514
-0.00051293305
0.00080608461
-0.00051409846
0.00088107662
-0.00051516408
0.00095621796
-0.00051604899
0.0010314781
-0.00051667974
0.0011068183
-0.00051697103
0.0011821918
-0.00051682451
0.0012575574
-0.00051612873
0.0013328373
-0.00051472589
0.001408011
-0.00051252727
0.0014829178
-0.0005092008
0.0015574849
-0.00050464348
0.0016315916
-0.00049853096
0.0017050117
-0.00049052323
0.0017776104
-0.00048018667
0.0018490823
-0.00046708551
0.0019190793
-0.0004506486
0.0019871117
-0.0004302133
0.00205271
-0.00040512334
0.0021150471
-0.00037443786
0.0021733057
-0.00033746791
0.0022264197
-0.00029334104
0.0022731297
-0.00024106204
0.0023119928
-0.00017997841
0.0023413734
-0.00010952153
0.0023594321
-2.9291088e-05
0.0023645412
6.0748122e-05
0.0023546396
0.00016119607
0.0023277285
0.00027078506
0.0022819319
0.00038900843
0.0022154493
0.00051487863
0.0021268014
0.00064662674
0.0020146679
0.00078246809
0.0018782913
0.0009197991
0.0017172099
0.0010556003
0.001531852
0.001186461
0.0013234875
0.0013085075
0.0010941282
0.00141801
0.00084673489
0.0015111471
0.00058504031
0.0015846269
0.00031332023
0.0016357625
3.6365629e-05
0.0016626493
-0.0002410163
0.0016650603
-0.00051400926
0.0016429681
-0.00077781334
0.001596522
-0.0010280894
0.0015274789
-0.0012610371
0.0014383929
-0.0014736445
0.0013324713
-0.0016637296
0.0012133842
-0.001830092
0.0010850586
-0.0019719734
0.00095092133
-0.002089604
0.00081474164
-0.0021838531
0.00067940553
-0.0022558113
0.00054750771
-0.0023069321
0.00042112618
-0.0023389157
0.0003018868
-0.0023536582
0.00019094322
-0.0023530341
8.8797991e-05
-0.002339
-3.2653466e-06
-0.0023134295
-8.5461721e-05
-0.0022779633
-0.0001581837
-0.002234233
-0.00022163294
-0.0021836801
-0.00027631718
-0.002127682
-0.00032284216
-0.0020671591
-0.00036218018
-0.0020030381
-0.0003950909
-0.0019361032
-0.00042237666
-0.0018668706
-0.00044482799
-0.0017958267
-0.00046317135
-0.0017234196
-0.00047794214
-0.0016499356
-0.0004897913
-0.0015755648
-0.00049921138
-0.001500596
-0.00050645061
-0.0014251244
-0.00051203424
-0.0013492857
-0.00051619571
-0.0012732219
-0.00051913172
-0.0011970101
-0.00052111084
-0.0011207397
-0.00052228166
-0.0010444669
-0.00052279302
-0.00096825185
-0.00052277881
-0.00089213116
-0.00052235064
-0.00081615179
-0.00052160536
-0.00074033972
-0.00052063814
-0.00066470436
-0.00051952074
-0.00058926218
-0.00051831045
-0.00051400905
-0.00051707005
-0.00043894891
-0.00051585118
-0.00036405965
-0.00051469343
-0.00028933408
-0.00051367033
-0.00021475172
-0.00051276305
-0.00014028219
-0.0005118641
-0.00051124887
0.00013807693
-0.00057799072
0.00021149931
-0.00057872318
0.00028502579
-0.00057972857
0.00035871228
-0.00058075273
0.00043256772
-0.00058194527
0.00050661588
-0.00058328661
0.00058087738
-0.00058471288
0.00065535625
-0.00058617626
0.00073007051
-0.00058765135
0.00080502724
-0.00058905884
0.00088020955
-0.00059034892
0.00095560954
-0.00059145007
0.0010312213
-0.00059229185
0.0011070167
-0.00059276698
0.0011829681
-0.00059277696
0.0012590437
-0.0005922056
0.0013352282
-0.00059091142
0.0014114227
-0.00058872197
0.0014876514
-0.00058542893
0.0015638226
-0.00058081412
0.0016398662
-0.00057457471
0.001715651
-0.00056630956
0.0017910559
-0.00055559404
0.0018658745
-0.00054190663
0.0019398944
-0.00052467025
0.0020126644
-0.00050298395
0.0020836797
-0.00047613876
0.0021524397
-0.00044319825
0.0022179205
-0.00040295052
0.0022790146
-0.0003544385
0.0023344964
-0.00029654811
0.0023827473
-0.00022823302
0.0024219323
-0.00014870879
0.0024499959
-5.7355746e-05
0.0024648691
4.5874109e-05
0.0024643471
0.00016171651
0.0024459891
0.00028914091
0.0024075661
0.00042742982
0.0023470096
0.00057543574
0.0022621468
0.00073149207
0.002151254
0.000893363
0.0020131354
0.0010579171
0.001846977
0.0012217562
0.0016529517
0.0013804846
0.0014320805
0.0015293774
0.0011865932
0.0016634957
0.00091983326
0.0017779082
0.00063613147
0.0018683308
0.00034056661
0.0019313244
3.8789616e-05
0.0019644221
-0.00026345326
0.0019673056
-0.00056043994
0.0019399565
-0.00084650456
0.0018825902
-0.0011164807
0.0017974561
-0.0013660055
0.0016879206
-0.0015917081
0.0015581699
-0.0017911736
0.0014128524
-0.0019631078
0.0012569875
-0.0021073744
0.0010951886
-0.0022244139
0.00093178457
-0.0023154008
0.00077039473
-0.0023820476
0.0006141577
-0.0024261672
0.00046523453
-0.0024499596
0.00032567894
-0.0024556427
0.00019663381
-0.00244549
7.8649447e-05
-0.0024217653
-2.699058e-05
-0.0023864665
-0.0001207611
-0.0023416992
-0.00020295247
-0.0022892663
-0.00027406898
-0.0022307607
-0.00033482433
-0.0021674727
-0.00038612638
-0.0021005062
-0.0004291402
-0.0020307678
-0.0004648261
-0.0019589498
-0.00049419338
-0.0018855162
-0.00051826336
-0.0018110027
-0.00053768155
-0.001735561
-0.00055338059
-0.0016595652
-0.00056578749
-0.0015831476
-0.0005756271
-0.0015063713
-0.00058322615
-0.0014294192
-0.00058898068
-0.0013523817
-0.0005932262
-0.0012753007
-0.00059621191
-0.0011982593
-0.00059814879
-0.0011213096
-0.00059923016
-0.0010444903
-0.00059960809
-0.00096784528
-0.00059942559
-0.0008914025
-0.00059879255
-0.00081518597
-0.00059782541
-0.00073920588
-0.00059661448
-0.00066348352
-0.00059524454
-0.00058800895
-0.00059378293
-0.00051277882
-0.00059230113
-0.00043778379
-0.00059084844
-0.00036299779
-0.00058947684
-0.00028840658
-0.00058826005
-0.00021398395
-0.00058718391
-0.0001396892
-0.00058617393
-0.00058540575
0.00013742494
-0.00065106566
0.00021064435
-0.00065194504
0.00028397824
-0.00065306438
0.0003575095
-0.0006542849
0.00043123514
-0.0006556717
0.00050519091
-0.00065724401
0.00057940276
-0.00065892724
0.00065389393
-0.00066067062
0.00072866791
-0.00066242895
0.00080374285
-0.00066413708
0.00087912366
-0.00066573204
0.00095481487
-0.0006671427
0.0010307917
-0.00066826964
0.0011070632
-0.00066903924
0.001183622
-0.0006693362
0.0012604548
-0.00066903867
0.0013375424
-0.000667999
0.0014148863
-0.00066606559
0.0014924885
-0.00066303088
0.0015703318
-0.00065865715
0.0016484472
-0.00065269023
0.0017267064
-0.00064456901
0.0018051355
-0.00063402371
0.0018836271
-0.00062039898
0.0019619949
-0.00060303899
0.0020400299
-0.00058102021
0.0021173085
-0.00055341879
0.0021931915
-0.00051908304
0.0022669358
-0.00047669715
0.0023374042
-0.0004249096
0.0024032397
-0.00036238609
0.0024626572
-0.00028765175
0.002513624
-0.00019967576
0.0025538084
-9.7540145e-05
0.0025807115
1.8970264e-05
0.0025919457
0.00015048093
0.0025843707
0.00029671468
0.0025555337
0.00045626638
0.0025027075
0.00062826195
0.0024233152
0.00081088395
0.0023150486
0.0010016294
0.0021758055
0.0011971596
0.0020043794
0.0013931799
0.0018004053
0.0015844589
0.0015647666
0.0017650186
0.001299917
0.0019283434
0.0010095918
0.0020682284
0.00069891093
0.0021790122
0.00037402832
0.0022562105
4.1704524e-05
0.002296744
-0.00029113702
0.0023001489
-0.0006176138
0.0022664343
-0.00093093918
0.0021959151
-0.0012249567
0.0020914668
-0.0014944556
0.0019574197
-0.001735541
0.0017992572
-0.0019457033
0.0016230154
-0.0021237593
0.0014350429
-0.0022698881
0.0012413149
-0.0023851434
0.0010470391
-0.0024713659
0.00085661591
-0.0025307304
0.00067352369
-0.0025658339
0.00050034532
-0.0025792439
0.00033909387
-0.0025735228
0.00019091384
-0.0025515764
5.6703529e-05
-0.0025159489
-6.2618332e-05
-0.0024690399
-0.00016766986
-0.0024132031
-0.00025878875
-0.0023505102
-0.00033675881
-0.0022826319
-0.00040270107
-0.0022109929
-0.00045776734
-0.0021367096
-0.00050342569
-0.0020606603
-0.00054087927
-0.0019834214
-0.00057143065
-0.0019054391
-0.00059624203
-0.0018270348
-0.00061608289
-0.0017484391
-0.0006319754
-0.0016697125
-0.00064451599
-0.0015910166
-0.00065432067
-0.001512345
-0.00066189335
-0.0014338482
-0.00066747284
-0.001355506
-0.00067156525
-0.0012773561
-0.00067436069
-0.0011994255
-0.00067607876
-0.0011217472
-0.00067690539
-0.0010443456
-0.00067700717
-0.00096724213
-0.00067652584
-0.00089044121
-0.00067558989
-0.00081397355
-0.00067430269
-0.00073782989
-0.00067276388
-0.00066201623
-0.00067106221
-0.00058651059
-0.00066928118
-0.00051131685
-0.00066749384
-0.00043640579
-0.00066575994
-0.00036174639
-0.00066413406
-0.00028731629
-0.00066269326
-0.00021308447
-0.00066140647
-0.00013899138
-0.00066026565
-0.00065934046
0.00013667292
-0.00072389866
0.00020965426
-0.00072492958
0.00028276532
-0.00072617685
0.00035611227
-0.00072763249
0.00042967607
-0.00072923623
0.00050352242
-0.00073109148
0.00057766602
-0.0007330727
0.00065213993
-0.00073514735
0.000726965
-0.0007372574
0.00080215894
-0.00073933427
0.00087773254
-0.00074130836
0.00095370423
-0.00074311638
0.0010300721
-0.0007446385
0.0011068333
-0.00074580042
0.001184021
-0.0007465232
0.0012616044
-0.00074662142
0.0013396323
-0.00074602674
0.0014181224
-0.00074455588
0.0014971149
-0.0007420232
0.0015767026
-0.00073824408
0.0016568196
-0.00073280598
0.0017376535
-0.00072540174
0.0018192116
-0.00071558151
0.001901534
-0.00070272238
0.0019845902
-0.00068609695
0.0020682698
-0.00066470149
0.0021523104
-0.00063746053
0.0022362678
-0.00060304139
0.0023193947
-0.00055982536
0.0024006543
-0.00050617077
0.0024784874
-0.00044022038
0.0025511014
-0.00036026578
0.0026161718
-0.00026474545
0.0026709738
-0.00015234155
0.0027124626
-2.2518628e-05
0.0027382064
0.00012473614
0.0027442237
0.00029069566
0.0027276293
0.00047285932
0.0026850892
0.00067080073
0.0026134239
0.00088254668
0.0025094531
0.001105599
0.0023703798
0.0013362358
0.0021939254
0.0015696352
0.0019789963
0.0017993856
0.0017262693
0.0020177455
0.0014382242
0.0022163882
0.0011193186
0.0023871288
0.0007757306
0.002522597
0.00041492213
0.0026170244
4.5145583e-05
0.0026665223
-0.00032521376
0.0026705073
-0.000687791
0.0026290066
-0.0010343404
0.0025424636
-0.0013574193
0.0024145422
-0.0016507601
0.0022507527
-0.0019098465
0.0020583428
-0.0021319002
0.0018450724
-0.0023160504
0.0016191955
-0.0024630943
0.0013883547
-0.0025749151
0.0011588547
-0.0026541661
0.00093587681
-0.0027039239
0.00072328339
-0.0027272888
0.0005237075
-0.0027275969
0.0003394003
-0.0027076579
0.00017097844
-0.0026713743
2.0422474e-05
-0.0026213938
-0.00011259842
-0.0025605963
-0.00022846549
-0.0024916833
-0.00032770144
-0.0024169428
-0.0004114987
-0.0023383581
-0.00048128372
-0.0022573029
-0.00053882439
-0.0021748945
-0.00058583658
-0.0020918582
-0.00062391478
-0.002008723
-0.00065456362
-0.0019258822
-0.00067908015
-0.001843391
-0.00069857369
-0.0017613807
-0.00071398616
-0.0016798614
-0.00072603347
-0.0015988185
-0.0007353575
-0.0015182785
-0.00074243288
-0.0014381479
-0.00074760259
-0.0013584568
-0.00075125339
-0.001279189
-0.00075362354
-0.0012003462
-0.00075492422
-0.0011219124
-0.00075533927
-0.0010439053
-0.00075501765
-0.00096632008
-0.00075411536
-0.00088916451
-0.00075274643
-0.0008124326
-0.00075102618
-0.00073612186
-0.0007490674
-0.000660228
-0.00074696259
-0.0005847171
-0.00074479028
-0.00050958146
-0.00074263833
-0.00043477407
-0.0007405681
-0.00036027539
-0.00073863225
-0.0002860299
-0.00073694024
-0.00021203345
-0.00073539768
-0.0001381863
-0.00073409574
-0.00073300825
0.00013581312
-0.0007964538
0.00020850067
-0.00079761979
0.00028135505
-0.00079903258
0.00035446833
-0.00080074661
0.00042785152
-0.00080262
0.00050153865
-0.00080477954
0.00057558949
-0.00080712544
0.00065003223
-0.00080959299
0.00072489427
-0.00081212296
0.00080020366
-0.00081464732
0.00087598413
-0.00081709199
0.00095221714
-0.00081935122
0.0010289596
-0.00082138107
0.00110622
-0.00082305978
0.0011839886
-0.00082429082
0.0012623296
-0.00082496235
0.0013412697
-0.00082496724
0.0014208703
-0.00082415657
0.0015012144
-0.00082236611
0.001582424
-0.00081945124
0.0016645978
-0.00081497736
0.0017479404
-0.00080874325
0.0018326141
-0.00080025624
0.0019188054
-0.00078891562
0.0020066749
-0.000773968
0.0020963036
-0.00075433023
0.0021876339
-0.00072879022
0.0022803699
-0.00069577734
0.0023739711
-0.00065342754
0.0024673751
-0.00059957608
0.0025591694
-0.00053201517
0.0026472647
-0.00044836038
0.0027290233
-0.00034650284
0.0028013561
-0.00022467397
0.0028608676
-8.2031012e-05
0.0029037805
8.1821335e-05
0.0029266853
0.00026778766
0.0029254046
0.0004741368
0.0028964386
0.00069976618
0.002835787
0.00094319819
0.0027389922
0.0012023925
0.0026019885
0.0014732418
0.0024212867
0.0017503396
0.0021947232
0.0020259452
0.0019223401
0.0022901241
0.001606757
0.002531972
0.0012532651
0.0027406204
0.00086954255
0.0029063151
0.00046479061
0.0030217762
4.9169778e-05
0.0030821416
-0.00036708801
0.003086766
-0.00077378742
0.0030357032
-0.0011608004
0.0029294698
-0.0015190101
0.0027727499
-0.0018407021
0.0025724439
-0.0021204576
0.0023380935
-0.0023553876
0.0020799956
-0.002545082
0.0018088868
-0.0026912702
0.0015345479
-0.0027970512
0.0012646324
-0.0028664364
0.001005258
-0.0029034132
0.00076026428
-0.0029119399
0.00053223756
-0.0028958129
0.00032327158
-0.002858865
0.00013403161
-0.0028050543
-3.3384282e-05
-0.002737752
-0.00017989728
-0.0026604299
-0.00030578172
-0.002576193
-0.00041193459
-0.0024876644
-0.00050002947
-0.0023968215
-0.00057212548
-0.0023051883
-0.00063045424
-0.0022138235
-0.00067720291
-0.0021233188
-0.00071442158
-0.0020340248
-0.00074385871
-0.0019460323
-0.00076707287
-0.001859361
-0.00078524327
-0.0017739159
-0.0007994315
-0.0016895769
-0.00081037813
-0.0016062147
-0.00081871727
-0.0015237277
-0.00082491584
-0.0014420098
-0.00082932356
-0.0013609916
-0.00083227651
-0.0012806147
-0.00083399748
-0.0012008444
-0.00083469021
-0.0011216633
-0.00083452167
-0.0010430407
-0.00083363847
-0.00096497275
-0.00083217462
-0.00088745347
-0.00083026993
-0.00081047832
-0.00082800301
-0.00073400816
-0.00082553255
-0.00065804375
-0.00082293184
-0.00058254632
-0.00082028671
-0.00050749139
-0.00081769411
-0.00043283636
-0.00081521644
-0.00035853166
-0.00081293258
-0.00028452025
-0.00081094675
-0.0002107948
-0.00080912859
-0.00013726402
-0.00080762865
-0.00080638529
0.00013483919
-0.00086867596
0.0002071772
-0.0008699605
0.00027972992
-0.00087158695
0.00035256717
-0.00087358482
0.00042570346
-0.00087575714
0.00049920458
-0.00087828213
0.00057312602
-0.00088104924
0.00064750317
-0.0008839734
0.00072237589
-0.00088699961
0.0007977732
-0.00089004852
0.00087371004
-0.00089303153
0.00095022359
-0.00089586553
0.0010273372
-0.000898494
0.0011050582
-0.00090078001
0.001183419
-0.00090265176
0.0012624668
-0.00090401111
0.0013422619
-0.00090476277
0.0014228963
-0.00090478959
0.0015044881
-0.00090395474
0.00158721
-0.00090216974
0.0016712692
-0.00089903471
0.0017569483
-0.00089442313
0.0018445744
-0.00088788436
0.0019345062
-0.00087884875
0.0020271283
-0.00086658945
0.0021227779
-0.0008499781
0.0022216673
-0.00082767856
0.0023238091
-0.0007979198
0.0024288422
-0.00075846218
0.0025360646
-0.00070679919
0.0026437984
-0.0006397484
0.0027498322
-0.00055439324
0.0028512348
-0.00044790546
0.0029445169
-0.00031795814
0.0030253902
-0.00016290757
0.0030896503
1.7558685e-05
0.0031331694
0.00022426667
0.0031515197
0.00045578386
0.0031404335
0.00071085228
0.0030946986
0.00098893569
0.0030088824
0.0012882076
0.0028771612
0.0016049615
0.0026939338
0.00193357
0.0024553847
0.0022644941
0.0021605305
0.0025849722
0.0018121612
0.0028803374
0.0014168087
0.0031359719