/*--------------------------------*- C++ -*----------------------------------*\
  =========                 |
  \\      /  F ield         | OpenFOAM: The Open Source CFD Toolbox
   \\    /   O peration     | Website:  https://openfoam.org
    \\  /    A nd           | Version:  9
     \\/     M anipulation  |
\*---------------------------------------------------------------------------*/
FoamFile
{
    format      ascii;
    class       surfaceScalarField;
    location    "0.42";
    object      alphaPhi0.phase1;
}
// * * * * * * * * * * * * * * * * * * * * * * * * * * * * * * * * * * * * * //

dimensions      [0 3 -1 0 0 0 0];

internalField   nonuniform List<scalar> 
19800
(
-2.7602268e-102
3.7545223e-102
-4.6691454e-102
3.8230875e-102
-1.4153544e-101
5.5553635e-102
-1.5251336e-99
3.4970413e-100
-2.1207764e-97
4.2259293e-98
-2.6824011e-95
4.9016126e-96
-3.6636579e-93
6.0167917e-94
-6.3928042e-91
9.1116327e-92
-1.421389e-88
1.782454e-89
-4.2850335e-86
4.0809327e-87
-2.397613e-83
1.0502212e-84
-6.025831e-81
2.2267482e-82
-2.2870173e-79
1.2798211e-80
-2.1079202e-78
1.7047832e-79
-9.7854637e-78
8.9965019e-79
-3.5846431e-77
3.1026751e-78
-7.9766383e-77
8.6588018e-78
-1.449284e-76
1.7750638e-77
-7.4301376e-76
5.2039863e-77
-5.5669616e-74
2.9174168e-75
-5.0500395e-72
2.3955504e-73
-4.3678477e-70
1.8581379e-71
-3.6097026e-68
1.3552222e-69
-2.865887e-66
9.2670217e-68
-2.1993851e-64
5.9327733e-66
-1.6396683e-62
3.5119007e-64
-1.1955413e-60
1.8631337e-62
-9.0100679e-59
8.0826273e-61
-7.3072941e-57
1.7196261e-59
-5.6889912e-55
-5.1130095e-57
-4.1833241e-53
-9.1444355e-55
-3.3049568e-51
-8.3677238e-53
-1.2016132e-49
-4.8838229e-51
-1.1860429e-48
-9.4800566e-50
-1.0993398e-47
-4.5343872e-49
-9.4286533e-48
-1.0920971e-48
-1.4622794e-48
-7.4037332e-49
-1.3816245e-48
-7.0325954e-49
-1.3752959e-48
-6.3141023e-49
-1.9124251e-48
-3.4458301e-49
-2.0849211e-47
-4.1421651e-48
-2.6352116e-46
-5.9371531e-47
-2.7653086e-45
-7.1067105e-46
-2.2881842e-44
-7.022072e-45
-1.3823719e-43
-5.3618915e-44
-5.9614272e-43
-3.0030435e-43
-1.7409554e-42
-1.2824451e-42
-2.0395942e-42
-4.5538436e-42
7.9911894e-42
-1.3602906e-41
3.7119375e-41
-3.188566e-41
6.0772927e-41
-3.2711622e-41
2.7997803e-41
-1.8075311e-41
7.7594483e-42
-6.0479628e-42
1.7543723e-42
-1.6092567e-42
3.0828851e-43
-3.5813559e-43
3.6631558e-44
-5.7505935e-44
2.5203943e-45
-5.6108521e-45
9.3004888e-47
-3.0532003e-46
2.560049e-48
-9.7198116e-48
1.4869714e-48
-2.7655723e-49
8.9518058e-49
-6.7120896e-49
9.5358877e-49
-1.3193129e-48
4.7092516e-47
-3.119401e-48
5.1642291e-48
-1.4167265e-48
2.7106468e-49
-2.2522612e-49
2.6608448e-51
-5.538447e-51
1.8988375e-53
-3.8241197e-53
1.8837075e-55
-1.3792945e-55
3.7505906e-57
7.4543722e-58
2.1288513e-58
5.0162642e-59
2.2658367e-60
1.8337558e-60
3.2533094e-62
4.1671582e-62
5.2029244e-64
8.536377e-64
7.9759948e-66
1.6131053e-65
1.1712444e-67
2.8498982e-67
1.6442561e-69
4.7317222e-69
2.1983057e-71
7.388344e-71
2.8071556e-73
1.0847774e-72
4.4271541e-75
1.5156003e-74
7.9994825e-76
3.1778605e-76
5.5440882e-76
9.7244261e-77
4.0369619e-76
7.1200221e-77
1.9542279e-76
4.3245392e-77
5.6869111e-77
1.6793388e-77
1.826844e-77
5.9756306e-78
5.3979829e-78
2.0466367e-78
1.125162e-78
5.5342275e-79
1.4070446e-79
1.1086491e-79
3.9796899e-81
8.8641301e-81
1.4602803e-83
1.5173987e-82
2.347279e-86
6.8465877e-85
6.0522733e-89
2.3529851e-87
1.5420973e-91
7.5195643e-90
3.3027298e-94
2.0576322e-92
7.137177e-97
5.1109449e-95
2.0198009e-99
1.4129428e-97
1.4893946e-101
5.1116886e-100
6.1038852e-102
6.7459217e-102
3.2109942e-102
5.0784841e-102
4.8874486e-102
-1.6407439e-101
7.0522765e-102
-2.5293928e-100
3.0363679e-100
-9.2521884e-100
1.5895095e-99
-6.4518999e-99
4.990329e-99
-3.9841957e-97
2.1721011e-97
-3.6143361e-95
1.4092645e-95
-4.9815982e-93
1.58233e-93
-1.0331932e-90
2.8592998e-91
-2.7966831e-88
6.6345088e-89
-7.9894341e-86
1.5796369e-86
-2.8424925e-83
2.9574034e-84
-5.8384726e-81
3.5719876e-82
-2.251281e-79
1.8249355e-80
-2.1931323e-78
2.4773548e-79
-8.5256323e-78
1.3298243e-78
-2.1454238e-77
4.2573571e-78
-1.1166592e-76
1.9167507e-77
-6.3466158e-75
1.1270735e-75
-6.4475453e-73
1.0511519e-73
-6.3301963e-71
9.4342713e-72
-5.8750051e-69
7.931493e-70
-5.174274e-67
6.2478484e-68
-4.3475965e-65
4.615588e-66
-3.5047534e-63
3.1920669e-64
-2.7276035e-61
2.0606538e-62
-2.0587185e-59
1.2267756e-60
-1.5166208e-57
6.5225864e-59
-1.1535866e-55
2.8228618e-57
-9.3448815e-54
5.6095354e-56
-7.0616622e-52
-9.3350843e-54
-4.9736638e-50
-1.5570157e-51
-4.6757189e-48
-1.4101316e-49
-2.7886963e-46
-8.2751731e-48
-1.9989124e-45
-1.4976471e-46
-1.6294814e-45
-5.1034256e-46
-3.2556375e-47
-3.6399218e-46
-4.3286512e-48
-5.1947732e-48
-4.204399e-48
-1.6848655e-48
-2.0209985e-47
-3.7499507e-48
-3.5107802e-46
-9.5746012e-47
-4.6374918e-45
-1.5573215e-45
-5.2486381e-44
-2.0772735e-44
-5.1059877e-43
-2.365114e-43
-3.9759005e-42
-2.2300819e-42
-2.1072487e-41
-1.6039598e-41
-6.4267779e-41
-7.9503882e-41
-1.0322035e-40
-2.6166833e-40
-6.7437821e-41
-6.1807527e-40
1.7972114e-40
-1.2562572e-39
6.7916411e-40
-2.2614855e-39
1.1127367e-39
-2.3032927e-39
7.9459109e-40
-1.5608709e-39
4.173635e-40
-7.6626968e-40
1.8254213e-40
-3.170784e-40
5.1007996e-41
-9.7544702e-41
7.3778017e-42
-1.8566417e-41
5.2761206e-43
-1.9591491e-42
2.0976271e-44
-1.142584e-43
5.6964225e-46
-4.1055991e-45
1.1154042e-47
-1.0516135e-46
4.5970988e-48
-1.9077836e-48
5.0052744e-47
-9.3452246e-48
5.4283074e-46
-6.8978936e-47
7.7701628e-45
-1.6268164e-45
8.4313827e-46
-4.129935e-46
5.0362269e-48
-1.2110358e-47
2.7862262e-50
-8.56985e-50
3.5755305e-52
-4.2222868e-52
5.0525354e-54
1.4025889e-54
1.1035464e-54
1.6620968e-55
1.1878489e-56
1.4758013e-56
5.933646e-59
2.496972e-58
8.4451659e-61
4.3221223e-60
1.2625337e-62
7.6228138e-62
1.7789751e-64
1.2820867e-63
2.4144665e-66
2.0494139e-65
3.1384664e-68
3.1059099e-67
3.8802021e-70
4.4473745e-69
4.5383757e-72
5.9933626e-71
5.4434543e-74
7.5804572e-73
4.8035779e-75
1.0493544e-74
2.0052943e-75
1.6708684e-75
7.1846137e-76
6.3968374e-76
7.831039e-77
8.4495716e-77
2.3013722e-77
1.8287403e-77
6.2423675e-78
4.9286329e-78
1.136139e-78
1.0403111e-78
1.3272247e-79
1.7403955e-79
3.9563724e-81
1.3316851e-80
2.0668904e-83
3.039725e-82
5.7256557e-86
2.6239782e-84
1.6452148e-88
1.344995e-86
3.3947323e-91
4.223138e-89
7.2038481e-94
1.0142723e-91
2.9508283e-96
3.2296736e-94
2.8475917e-98
2.0346097e-96
2.1858983e-99
2.6621029e-98
3.2782994e-100
3.7970048e-99
1.3811179e-101
4.5878479e-100
8.483616e-102
-3.5508975e-99
1.1117596e-98
-1.2857163e-96
5.1876634e-97
-3.2661e-95
2.9075731e-95
-1.2879147e-94
2.1616979e-94
-5.1088487e-94
7.3381261e-94
-1.2294093e-92
1.0499068e-92
-2.7134514e-90
1.6853371e-90
-9.9798414e-88
4.8713824e-88
-6.6390115e-85
1.6020741e-85
-3.9449776e-82
5.2466362e-83
-2.8561908e-80
5.9426591e-81
-2.530973e-79
1.1920907e-79
-1.436265e-78
7.4456481e-79
-3.3784064e-77
6.0057419e-78
-4.0157278e-76
1.4120013e-76
-2.4599234e-75
1.2190566e-75
-5.0938393e-74
1.3845349e-74
-5.2332104e-72
1.210945e-72
-5.4970167e-70
1.1687916e-70
-5.4357805e-68
1.0559902e-68
-5.0693248e-66
8.9062996e-67
-4.4791868e-64
7.0304772e-65
-3.7696623e-62
5.1945313e-63
-3.03879e-60
3.5892397e-61
-2.3604526e-58
2.3084895e-59
-1.7743305e-56
1.365955e-57
-1.298985e-54
7.2022279e-56
-9.8079154e-53
3.0834817e-54
-7.8631881e-51
5.6393988e-53
-5.870882e-49
-1.006053e-50
-4.1304972e-47
-1.6181849e-48
-3.827373e-45
-1.4362672e-46
-2.0428145e-43
-7.9609055e-45
-1.2774147e-42
-1.3112231e-43
-1.0618921e-42
-4.1695974e-43
-1.6384602e-44
-3.0761467e-43
-2.1964881e-45
-4.33207e-45
-2.0634024e-45
-1.1922429e-45
-4.6884895e-45
-1.3227906e-45
-6.9980984e-44
-2.520686e-44
-8.6257834e-43
-3.883311e-43
-9.2358136e-42
-4.9763974e-42
-8.5338093e-41
-5.4573424e-41
-6.3792812e-40
-4.9921463e-40
-3.328288e-39
-3.5351152e-39
-1.0252332e-38
-1.7564655e-38
-1.6664893e-38
-5.8635112e-38
-1.0627174e-38
-1.3959757e-37
2.8946767e-38
-2.8169589e-37
1.1096629e-37
-5.1835888e-37
1.8163317e-37
-5.2846044e-37
1.27718e-37
-3.5447323e-37
6.7407006e-38
-1.7376264e-37
2.9338456e-38
-7.1597814e-38
8.1480104e-39
-2.1855387e-38
1.1999529e-39
-4.1726919e-39
9.1254227e-41
-4.5226626e-40
4.0509011e-42
-2.8177281e-41
1.2378952e-43
-1.1162442e-42
3.208513e-45
-3.024986e-44
1.7741215e-45
-7.9182334e-46
2.8968594e-44
-5.8819057e-45
4.3189493e-43
-7.855785e-44
5.1099145e-42
-1.4140767e-42
6.6121888e-43
-3.9349586e-43
4.8561618e-45
-1.3666129e-44
2.6017875e-47
-1.0484354e-46
3.5341395e-49
-5.8134143e-49
3.7188291e-51
5.2273637e-52
3.8293375e-52
1.2836687e-52
5.6783526e-54
9.2978676e-54
5.4321751e-56
2.3593085e-55
7.4134702e-58
4.5209478e-57
1.1249862e-59
8.3976402e-59
1.6299541e-61
1.4741793e-60
2.2409475e-63
2.4244997e-62
2.930928e-65
3.7397737e-64
3.6300255e-67
5.4084541e-66
4.2360915e-69
7.3284546e-68
4.8185166e-71
9.2729591e-70
2.6397179e-72
1.182297e-71
1.0467753e-72
1.2403002e-72
4.1341455e-73
5.2463091e-73
2.6334893e-74
6.5165422e-74
5.2341767e-75
1.0798344e-74
1.0431822e-75
2.3723736e-75
1.0555327e-76
3.5236718e-76
7.9000754e-78
3.7224445e-77
4.6268301e-79
3.0055075e-78
1.6315208e-80
1.8486281e-79
1.3490494e-82
4.3963701e-81
3.6805262e-85
3.3579855e-83
1.0151087e-87
1.5100769e-85
2.9618605e-90
5.7046554e-88
1.423703e-92
2.0179791e-90
4.3895393e-94
1.6376836e-92
3.1560519e-95
7.5269037e-94
1.0990626e-96
5.1728814e-95
3.3246899e-99
6.9950595e-97
1.521497e-98
-8.8882474e-97
4.5167604e-96
-1.3386528e-94
2.290501e-94
-5.7776737e-92
2.6598513e-92
-4.5577525e-90
2.0379014e-90
-1.4539208e-89
2.7101363e-89
-4.6646761e-89
7.2971225e-89
-2.0230782e-87
1.6269217e-87
-6.9689498e-85
4.3096543e-85
-4.4261745e-82
1.368984e-82
-2.3683252e-79
4.3010888e-80
-1.5281714e-77
4.7940179e-78
-1.45616e-76
1.0498141e-76
-2.7144868e-75
9.5963526e-76
-1.5177737e-73
2.469875e-74
-7.7088119e-73
4.1118383e-73
-2.409664e-72
1.5698639e-72
-3.1619435e-71
1.0396484e-71
-3.3873125e-69
9.7066333e-70
-3.5969307e-67
9.4667839e-68
-3.5823396e-65
8.6039549e-66
-3.3569979e-63
7.2895818e-64
-2.973634e-61
5.7641668e-62
-2.5029061e-59
4.2559532e-60
-2.0135706e-57
2.9343304e-58
-1.5576002e-55
1.8784225e-56
-1.1635739e-53
1.1051164e-54
-8.4494924e-52
5.7810156e-53
-6.3096698e-50
2.4543688e-51
-5.0015851e-48
4.6409135e-50
-3.7015465e-46
-7.4985307e-48
-2.6086964e-44
-1.2113295e-45
-2.3894405e-42
-1.0530415e-43
-1.1317861e-40
-5.505597e-42
-5.9963801e-40
-8.1397389e-41
-5.0386442e-40
-2.3721589e-40
-1.0200891e-41
-1.7867318e-40
-1.1270808e-42
-3.1441077e-42
-6.3454523e-43
-6.0988973e-43
-1.0203203e-42
-4.580959e-43
-1.1159556e-41
-5.0396165e-42
-1.235648e-40
-6.825508e-41
-1.2481651e-39
-8.3135337e-40
-1.0984895e-38
-8.750864e-39
-7.9088381e-38
-7.7269142e-38
-4.0611698e-37
-5.3600836e-37
-1.2595432e-36
-2.6532046e-36
-2.0908362e-36
-8.910782e-36
-1.3978047e-36
-2.1309984e-35
3.2263428e-36
-4.2568007e-35
1.3105424e-35
-7.9313489e-35
2.1684473e-35
-8.0953119e-35
1.5184432e-35
-5.4007074e-35
8.0926136e-36
-2.6535624e-35
3.532473e-36
-1.0943107e-35
9.8385157e-37
-3.3349423e-36
1.4809716e-37
-6.4074647e-37
1.1943634e-38
-7.1471895e-38
5.8556757e-40
-4.7403215e-39
1.9718606e-41
-2.0616962e-40
5.9830742e-43
-5.7731377e-42
3.759694e-43
-2.4255072e-43
1.1117964e-41
-2.7595129e-42
2.8181746e-40
-6.3394181e-41
2.4248933e-39
-8.2987975e-40
3.8010684e-40
-2.5512426e-40
3.5042958e-42
-1.0612259e-41
1.8308173e-44
-8.9661546e-44
2.4366731e-46
-5.2354695e-46
2.4076283e-48
1.2841227e-49
1.5928255e-49
9.1109353e-50
3.2973356e-51
6.3610226e-51
3.7652897e-53
1.8356692e-52
5.1897471e-55
3.729102e-54
7.9510231e-57
7.142575e-56
1.161229e-58
1.2781057e-57
1.6030681e-60
2.1281606e-59
2.0977012e-62
3.3038351e-61
2.5905277e-64
4.7922926e-63
3.005773e-66
6.484966e-65
3.3056191e-68
8.1751956e-67
1.1883761e-69
9.8415171e-69
4.4054624e-70
6.6307573e-70
1.8628651e-70
2.8717135e-70
1.3598135e-71
3.9345762e-71
2.896235e-72
7.0363814e-72
6.3818191e-73
1.6858486e-72
7.8646887e-74
2.8459474e-73
7.742679e-75
3.9155017e-74
4.1244899e-76
3.4392894e-75
1.1317886e-77
1.8386819e-76
9.6950904e-80
4.0836194e-78
3.8484665e-82
3.6474238e-80
1.7369274e-84
2.2495958e-82
9.8695268e-87
1.3953966e-84
7.4529139e-89
9.4168815e-87
1.5777862e-90
9.676969e-89
4.4021872e-92
3.1922172e-90
2.1640728e-94
4.8162214e-92
8.9277286e-97
3.7994072e-94
6.1325155e-96
-2.3298899e-94
1.3763335e-93
-3.2874689e-92
8.2552312e-92
-5.9375942e-90
9.1295873e-90
-1.5679126e-87
9.0618872e-88
-1.0726333e-85
6.1692076e-86
-5.1384986e-85
1.0085413e-84
-3.2372946e-84
4.6631242e-84
-3.9418703e-82
3.170684e-82
-2.0684679e-79
8.3866002e-80
-1.0420631e-76
2.4275221e-77
-7.2596697e-75
2.7713109e-75
-8.0988475e-74
6.6650495e-74
-1.6113322e-72
6.7967958e-73
-7.6560469e-71
1.5831309e-71
-3.3916277e-70
2.3257585e-70
-1.0678136e-69
8.2805415e-70
-1.6664442e-68
6.4407842e-69
-1.8434564e-66
6.3202468e-67
-1.977239e-64
6.2206891e-65
-1.9829037e-62
5.6917284e-63
-1.8650522e-60
4.8362849e-61
-1.6536562e-58
3.8265197e-59
-1.3896012e-56
2.8212849e-57
-1.1128576e-54
1.9361967e-55
-8.5465812e-53
1.2321822e-53
-6.3205397e-51
7.1813344e-52
-4.5320616e-49
3.7204441e-50
-3.3251726e-47
1.5673842e-48
-2.5863964e-45
3.0861155e-47
-1.8904234e-43
-4.316275e-45
-1.334522e-41
-7.0538279e-43
-1.2116964e-39
-6.0214928e-41
-5.0806815e-38
-2.9661944e-39
-2.2172675e-37
-3.913637e-38
-1.8720089e-37
-1.0263521e-37
-4.9055426e-39
-7.8175383e-38
-3.9076769e-40
-1.7040233e-39
-1.6329254e-40
-2.2772569e-40
-2.1939389e-40
-1.4172174e-40
-1.5214508e-39
-8.6866344e-40
-1.4090148e-38
-9.2756086e-39
-1.3189334e-37
-1.0410949e-37
-1.1021986e-36
-1.047194e-36
-7.6225545e-36
-8.8780071e-36
-3.8447054e-35
-6.0052222e-35
-1.198268e-34
-2.9491519e-34
-2.0323214e-34
-9.9325043e-34
-1.4565995e-34
-2.3849177e-33
2.6549739e-34
-4.7294738e-33
1.1718004e-33
-8.8746089e-33
1.9728014e-33
-9.068821e-33
1.3874393e-33
-6.0337485e-33
7.4784238e-34
-2.9722875e-33
3.2816374e-34
-1.2282455e-33
9.1875613e-35
-3.7426051e-34
1.4136889e-35
-7.2456109e-35
1.2073606e-36
-8.3367801e-36
6.5198147e-38
-5.8891497e-37
2.415824e-39
-2.8114884e-38
9.2288528e-41
-8.4087435e-40
6.6977036e-41
-3.6358702e-41
3.9637908e-39
-1.1712287e-39
1.3826557e-37
-3.6759836e-38
8.9704354e-37
-3.6484207e-37
1.7248371e-37
-1.2485845e-37
2.0184387e-39
-6.1886865e-39
1.0419217e-41
-5.8096e-41
1.300001e-43
-3.5043402e-43
1.3254138e-45
-2.6505111e-47
6.5571493e-47
5.6558608e-47
1.792356e-48
3.9263592e-48
2.1852979e-50
1.2111643e-49
3.0228092e-52
2.5313501e-51
4.6706031e-54
4.9369203e-53
6.8633378e-56
8.9475082e-55
9.5026033e-58
1.5003857e-56
1.2426596e-59
2.3404009e-58
1.5287594e-61
3.3967834e-60
1.7607884e-63
4.5864656e-62
1.8976234e-65
5.7474542e-64
4.5244707e-67
6.7224889e-66
1.4051331e-67
2.7991518e-67
5.7730778e-68
1.1256106e-67
5.0121704e-69
1.6125983e-68
1.2351521e-69
3.3074009e-69
2.9766767e-70
8.8410219e-70
4.0026284e-71
1.6168191e-70
4.5297377e-72
2.5527355e-71
2.3206874e-73
2.3458555e-72
5.778704e-75
1.2001195e-73
5.0374848e-77
2.6013571e-75
2.4624484e-79
2.5329534e-77
1.3900273e-81
1.9155628e-79
8.1832901e-84
1.3295182e-81
7.3915868e-86
9.4987573e-84
1.20383e-87
1.3235889e-85
1.2899574e-89
2.1928647e-87
5.0369224e-92
2.0879011e-89
1.9129387e-94
1.3767845e-91
1.8360698e-93
-4.6594013e-92
3.3166508e-91
-7.8784943e-90
2.2438968e-89
-1.2314587e-87
2.6702276e-87
-1.8944447e-85
2.5312488e-85
-2.9381548e-83
2.1902331e-83
-1.1872442e-81
1.1485455e-81
-9.9890257e-81
2.0318817e-80
-2.0779066e-79
2.2957312e-79
-7.8822144e-77
4.1245624e-77
-3.7745592e-74
1.0782006e-74
-2.6866652e-72
1.2524842e-72
-3.4399612e-71
3.2043173e-71
-8.4456612e-70
3.66605e-70
-3.0737288e-68
8.4538543e-69
-1.1167857e-67
9.8690545e-68
-3.5817689e-67
3.1822897e-67
-7.6095726e-66
3.3895887e-66
-8.6767327e-64
3.4725989e-64
-9.4103279e-62
3.4557071e-62
-9.499173e-60
3.1805372e-60
-8.9625636e-58
2.7107112e-58
-7.9433729e-56
2.143569e-56
-6.6488245e-54
1.574653e-54
-5.2865768e-52
1.073932e-52
-4.0173661e-50
6.7698819e-51
-2.9313863e-48
3.9049627e-49
-2.0675094e-46
1.9988621e-47
-1.482851e-44
8.3544555e-46
-1.1252729e-42
1.729484e-44
-8.0962345e-41
-2.0069143e-42
-5.7226828e-39
-3.3414681e-40
-5.1554952e-37
-2.8126173e-38
-1.9164745e-35
-1.3023106e-36
-6.7482649e-35
-1.5262986e-35
-5.6967955e-35
-3.5684979e-35
-1.9310166e-36
-2.7162011e-35
-9.8403756e-38
-7.4631479e-37
-3.6807818e-38
-6.2953427e-38
-4.4535474e-38
-3.6748957e-38
-1.9351616e-37
-1.4197916e-37
-1.3504458e-36
-1.0612382e-36
-1.1326602e-35
-1.0200767e-35
-8.9285867e-35
-9.8170319e-35
-5.9034837e-34
-7.9424565e-34
-2.9152658e-33
-5.21703e-33
-9.1020701e-33
-2.53517e-32
-1.5742578e-32
-8.5295153e-32
-1.2021425e-32
-2.0485965e-31
1.6655508e-32
-4.0263795e-31
8.1861082e-32
-7.5589453e-31
1.4033476e-31
-7.72638e-31
9.9894771e-32
-5.1521043e-31
5.4796286e-32
-2.5579804e-31
2.4250965e-32
-1.0622705e-31
6.8371214e-33
-3.2441865e-32
1.0789574e-33
-6.3534861e-33
9.7760733e-35
-7.5471807e-34
5.8175761e-36
-5.6790583e-35
2.3916731e-37
-2.9770257e-36
1.0594543e-38
-9.4900456e-38
8.1215463e-39
-6.4644162e-39
1.3178242e-36
-4.5876541e-37
5.3221772e-35
-1.6393706e-35
2.7144515e-34
-1.2751692e-34
6.4563811e-35
-4.8784314e-35
9.5066138e-37
-2.8930823e-36
4.9145212e-39
-3.0046907e-38
5.6122712e-41
-1.8441094e-40
6.5325653e-43
-6.3378747e-45
3.1431214e-44
3.2856381e-44
8.2211466e-46
2.2000234e-45
1.0426261e-47
6.7122932e-47
1.5008184e-49
1.4391217e-48
2.3426824e-51
2.8535554e-50
3.4636066e-53
5.227638e-52
4.8109019e-55
8.8352469e-54
6.2880147e-57
1.3832417e-55
7.7007192e-59
2.0087874e-57
8.7954561e-61
2.7028135e-59
9.344133e-63
3.363449e-61
1.6591023e-64
3.8765611e-63
3.8906807e-65
1.1007346e-64
1.4178852e-65
3.6821811e-65
1.4806374e-66
5.2140739e-66
4.261566e-67
1.240642e-66
1.0829472e-67
3.6144774e-67
1.5190056e-68
6.9051037e-68
1.9342041e-69
1.2067471e-68
9.9336049e-71
1.1776611e-69
2.2082423e-72
5.7604166e-71
1.9232561e-74
1.2030011e-72
1.0856996e-76
1.2655471e-74
5.9043148e-79
1.0192847e-76
3.1340622e-81
6.1748855e-79
3.6883833e-83
5.0562272e-81
5.1673927e-85
8.2090404e-83
2.575024e-87
8.2129974e-85
9.5790338e-90
6.1994975e-87
3.1063124e-92
3.6958942e-89
4.3360113e-91
-7.6451949e-90
6.580197e-89
-1.4243906e-87
4.843446e-87
-2.3751871e-85
6.1128343e-85
-3.0280487e-83
6.1058878e-83
-5.8712378e-81
5.5483642e-81
-6.486021e-79
4.7045566e-79
-6.5885004e-78
1.5129266e-77
-9.9987635e-77
1.5768985e-76
-2.373329e-74
1.5192403e-74
-9.9493075e-72
3.6356413e-72
-7.0214148e-70
4.1269954e-70
-1.1723284e-68
1.158044e-68
-3.8242251e-67
1.6538786e-67
-1.0167085e-65
3.7298095e-66
-3.1024928e-65
3.3949738e-65
-1.0078892e-64
9.939928e-65
-3.0564164e-63
1.5486449e-63
-3.5851239e-61
1.6467137e-61
-3.9372765e-59
1.6587023e-59
-4.0039745e-57
1.5373648e-57
-3.788359e-55
1.3134733e-55
-3.3529953e-53
1.0374239e-53
-2.7916468e-51
7.584843e-52
-2.1990168e-49
5.1293522e-50
-1.6494557e-47
3.1992782e-48
-1.1836527e-45
1.8202269e-46
-8.1834454e-44
9.1989262e-45
-5.7082213e-42
3.8093729e-43
-4.2030914e-40
8.3457329e-42
-2.9702727e-38
-7.6449341e-40
-2.1034012e-36
-1.3209637e-37
-1.8798473e-34
-1.1016673e-35
-6.1795496e-33
-4.8049793e-34
-1.7423327e-32
-4.9888338e-33
-1.4630009e-32
-1.0294633e-32
-6.6124555e-34
-7.7967623e-33
-1.8652786e-35
-2.8010252e-34
-7.1520687e-36
-1.400999e-35
-8.2362902e-36
-8.0371093e-36
-2.433905e-35
-2.2463727e-35
-1.147048e-34
-1.1112067e-34
-8.0810657e-34
-8.0470015e-34
-5.9645836e-33
-7.3907294e-33
-3.7548368e-32
-5.6896634e-32
-1.8107795e-31
-3.6067132e-31
-5.659311e-31
-1.7228912e-30
-9.9203377e-31
-5.7212354e-30
-8.0837407e-31
-1.3428261e-29
7.7519677e-31
-2.564447e-29
4.4782043e-30
-4.7977399e-29
7.893662e-30
-4.9241364e-29
5.73807e-30
-3.2978531e-29
3.2313022e-30
-1.6757098e-29
1.452753e-30
-7.1429444e-30
4.1469502e-31
-2.2238716e-30
6.7282131e-32
-4.4369416e-31
6.4744166e-33
-5.4441695e-32
4.2496182e-34
-4.3666069e-33
1.9301549e-35
-2.5199538e-34
1.4650528e-36
-8.3109059e-36
1.3442013e-36
-1.2518949e-36
4.0053513e-34
-1.5853027e-34
1.6956492e-32
-6.0616478e-33
6.929056e-32
-3.6838269e-32
2.0399566e-32
-1.5755916e-32
3.8076178e-34
-1.119315e-33
1.9749697e-36
-1.262838e-35
2.0056312e-38
-7.9212346e-38
2.8782712e-40
1.935372e-41
1.4782051e-41
1.7451685e-41
3.3037821e-43
1.1059957e-42
4.324726e-45
3.2421829e-44
6.5159079e-47
7.0799602e-46
1.0281731e-48
1.4229632e-47
1.5292613e-50
2.6321002e-49
2.1305545e-52
4.4782045e-51
2.7811767e-54
7.0341944e-53
3.3865162e-56
1.0207237e-54
3.8268188e-58
1.3669316e-56
3.9978412e-60
1.6848152e-58
5.6354957e-62
1.9103083e-60
9.2925482e-63
3.9175157e-62
2.8957785e-63
1.016171e-62
3.6955676e-64
1.4155163e-63
1.1992952e-64
3.8092269e-64
3.1774254e-65
1.1840078e-64
4.732636e-66
2.388191e-65
6.5988336e-67
4.5536139e-66
3.3510951e-68
4.6541308e-67
6.4697209e-70
2.1256748e-68
5.7773422e-72
4.2992073e-70
3.4555663e-74
4.8731554e-72
1.6159221e-76
3.4608203e-74
1.3035741e-78
2.2935046e-76
1.6030822e-80
2.9419233e-78
9.1695414e-83
2.7907446e-80
4.202601e-85
2.0983511e-82
1.4862453e-87
1.415106e-84
3.629725e-90
7.8713523e-87
8.3979967e-89
-1.0490659e-87
1.1054632e-86
-2.109543e-85
8.6771865e-85
-3.9158655e-83
1.1443105e-82
-5.2016583e-81
1.2132132e-80
-6.0380975e-79
1.081141e-78
-7.5792479e-77
8.6740946e-77
-4.6574603e-75
5.6125547e-75
-7.8165925e-74
1.8267079e-73
-5.1628636e-72
4.3082875e-72
-2.0145929e-69
9.1418956e-70
-1.662296e-67
1.1054447e-67
-3.6127194e-66
3.6362368e-66
-1.2110575e-64
5.9874502e-65
-2.4251904e-63
1.1676763e-63
-7.0104298e-63
9.0411359e-63
-2.5030714e-62
2.6580891e-62
-1.089937e-60
6.2215646e-61
-1.3151022e-58
6.8439721e-59
-1.4661394e-56
6.9951228e-57
-1.5042168e-54
6.5370303e-55
-1.4283351e-52
5.6051379e-53
-1.2624022e-50
4.4216746e-51
-1.0443336e-48
3.2134838e-49
-8.1371691e-47
2.1534163e-47
-6.0091637e-45
1.325302e-45
-4.2280454e-43
7.4244217e-44
-2.8541895e-41
3.6906223e-42
-1.9262775e-39
1.5118583e-40
-1.3682849e-37
3.4939777e-39
-9.4620988e-36
-2.4321134e-37
-6.7012298e-34
-4.4492926e-35
-5.9267016e-32
-3.6779447e-33
-1.7213123e-30
-1.5102267e-31
-3.8975653e-30
-1.3906399e-30
-3.2355178e-30
-2.5502205e-30
-2.0246255e-31
-1.891296e-30
-2.7737786e-33
-1.0049955e-31
-1.2026988e-33
-2.2889179e-33
-1.3507072e-33
-1.4863919e-33
-3.0388026e-33
-3.3460865e-33
-9.1962899e-33
-1.1294413e-32
-4.8788104e-32
-5.338683e-32
-3.3157282e-31
-4.4957254e-31
-1.9791799e-30
-3.3115511e-30
-9.2678755e-30
-1.9962145e-29
-2.8876896e-29
-9.2303364e-29
-5.109267e-29
-2.980812e-28
-4.3778334e-29
-6.699417e-28
2.4443667e-29
-1.2068837e-27
1.9144194e-28
-2.2675536e-27
3.5087877e-28
-2.3497269e-27
2.6294082e-28
-1.5829284e-27
1.5381764e-28
-8.3243527e-28
7.0917357e-29
-3.7058516e-28
2.0644199e-29
-1.1959493e-28
3.4505872e-30
-2.4555533e-29
3.5405543e-31
-3.1516132e-30
2.5748327e-32
-2.7278656e-31
1.290595e-33
-1.7410503e-32
1.8649324e-34
-5.8788204e-34
1.9031097e-34
-2.0772772e-34
1.0931518e-31
-4.7406112e-32
4.6476871e-30
-1.9226604e-30
1.5248174e-29
-9.0096291e-30
5.5175586e-30
-4.3220233e-30
1.297959e-31
-3.6306462e-31
6.9175512e-34
-4.6128892e-33
7.0935469e-36
-2.9154959e-35
1.1252143e-37
2.2144342e-38
6.3110705e-39
8.2644868e-39
1.2298675e-40
5.0580235e-40
1.5384219e-42
1.3546577e-41
2.5006926e-44
3.0296497e-43
4.0049076e-46
6.2054959e-45
5.9846223e-48
1.1596468e-46
8.3633974e-50
1.9866984e-48
1.0898328e-51
3.1303154e-50
1.3172944e-53
4.5361571e-52
1.4685146e-55
6.0357718e-54
1.502541e-57
7.3473807e-56
1.7805364e-59
8.1658049e-58
1.9479745e-60
1.2908932e-59
5.0489243e-61
2.4173736e-60
7.9741324e-62
3.2949213e-61
2.8705798e-62
9.9215737e-62
7.8562554e-63
3.2651227e-62
1.2202683e-63
6.8531383e-63
1.8394378e-64
1.4098665e-63
9.1039481e-66
1.4759219e-64
1.6460328e-67
6.5373686e-66
1.4709366e-69
1.3166584e-67
8.2659622e-72
1.4552446e-69
4.5175864e-74
9.6122108e-72
4.6151877e-76
9.6945024e-74
3.1103725e-78
9.4333481e-76
1.3471615e-80
6.5333096e-78
5.7921431e-83
4.2292933e-80
1.8168533e-85
2.6323096e-82
2.1521336e-88
1.3885904e-84
1.3696542e-86
-1.2070923e-85
1.6061599e-84
-2.6417578e-83
1.3277403e-82
-5.1590403e-81
1.8066689e-80
-7.3075287e-79
2.0044495e-78
-8.4978942e-77
1.8916149e-76
-1.1344573e-74
1.6050988e-74
-1.0340303e-72
1.2301283e-72
-2.0186025e-71
5.2344146e-71
-9.1012323e-70
1.1992766e-69
-2.994518e-67
1.6899322e-67
-3.403642e-65
2.3543918e-65
-1.0004587e-63
9.9479269e-64
-3.202443e-62
1.8512145e-62
-4.734535e-61
3.0366367e-61
-1.3609279e-60
2.019755e-60
-5.6663848e-60
6.3182263e-60
-3.4329416e-58
2.1909397e-58
-4.2772707e-56
2.4973152e-56
-4.8615602e-54
2.6008628e-54
-5.0456643e-52
2.4574912e-52
-4.8142356e-50
2.1169757e-50
-4.2500464e-48
1.6685459e-48
-3.4927312e-46
1.2059278e-46
-2.6885646e-44
7.996023e-45
-1.9517286e-42
4.8532352e-43
-1.3433606e-40
2.6713272e-41
-8.8288626e-39
1.3039347e-39
-5.7397499e-37
5.273683e-38
-3.9118995e-35
1.2803702e-36
-2.6400196e-33
-6.4556983e-35
-1.8681687e-31
-1.2887056e-32
-1.6180103e-29
-1.0596128e-30
-4.1183032e-28
-4.087352e-29
-7.7192834e-28
-3.3447121e-28
-6.2573378e-28
-5.5347511e-28
-5.7994178e-29
-3.8902072e-28
-2.9133657e-31
-3.2082115e-29
-1.747841e-31
-2.9752772e-31
-1.9247821e-31
-2.3315025e-31
-3.6456507e-31
-4.508534e-31
-7.3690109e-31
-1.129334e-30
-2.5679619e-30
-3.2433842e-30
-1.5378206e-29
-2.1775906e-29
-8.636735e-29
-1.5648471e-28
-3.8828579e-28
-8.9215242e-28
-1.2064432e-27
-3.98163e-27
-2.1962614e-27
-1.288899e-26
-2.008677e-27
-2.9379965e-26
4.3742676e-28
-5.1250262e-26
6.7620506e-27
-9.5471075e-26
1.3063131e-26
-9.9138779e-26
1.0204394e-26
-6.8830191e-26
6.1083824e-27
-3.6580725e-26
2.8373875e-27
-1.6087276e-26
8.3501084e-28
-5.150851e-27
1.4489556e-28
-1.0814916e-27
1.6099404e-29
-1.4784276e-28
1.3070252e-30
-1.3983582e-29
7.2915522e-32
-9.8524626e-31
2.0562426e-32
-3.4274223e-32
2.1932549e-32
-2.5937586e-32
2.6583603e-29
-1.9068368e-29
1.096542e-27
-5.0407616e-28
2.9400983e-27
-1.9236059e-27
1.2858985e-27
-1.0137142e-27
3.7723255e-29
-9.9422356e-29
2.2225841e-31
-1.4947657e-30
2.2313753e-33
-9.2498519e-33
4.0135608e-35
1.5045673e-35
2.6130946e-36
3.6008771e-36
4.6170412e-38
2.2225513e-37
5.2998438e-40
5.4745118e-39
8.8532111e-42
1.2130122e-40
1.4314675e-43
2.4906344e-42
2.1434191e-45
4.6644405e-44
2.9920573e-47
7.9991815e-46
3.8755079e-49
1.2581503e-47
4.6278772e-51
1.812365e-49
5.0616622e-53
2.3836546e-51
5.0360304e-55
2.8499609e-53
5.2243387e-57
3.0829082e-55
3.6336319e-58
3.9798331e-57
7.6826279e-59
5.0291639e-58
1.51869e-59
6.6820829e-59
6.0135957e-60
2.2572731e-59
1.6751009e-60
7.7744368e-60
2.7462611e-61
1.6990103e-60
4.5288161e-62
3.8224889e-61
2.1046819e-63
4.0276786e-62
3.5668809e-65
1.7176293e-63
3.0804166e-67
3.4628413e-65
1.5461961e-69
3.2472305e-67
1.2341779e-71
2.7291228e-69
1.0801253e-73
3.0420934e-71
4.2718318e-76
2.1292145e-73
1.6622635e-78
1.2061543e-75
6.5769401e-81
7.0768879e-78
1.6786379e-83
4.134863e-80
-1.2343957e-86
2.0860193e-82
1.9321422e-84
-1.1452536e-83
2.0534912e-82
-2.8163204e-81
1.7703791e-80
-5.8041265e-79
2.4714179e-78
-8.7847535e-77
2.8389665e-76
-1.0707038e-74
2.8090671e-74
-1.1930669e-72
2.4543789e-72
-1.2338476e-70
1.9424747e-70
-6.6303071e-69
1.2370664e-68
-2.1706826e-67
5.1385279e-67
-3.3038387e-65
2.4782484e-65
-5.6711927e-63
4.0175476e-63
-2.764851e-61
2.4262611e-61
-8.5460635e-60
5.6147926e-60
-8.184506e-59
7.4471851e-59
-2.3259202e-58
3.9203993e-58
-1.1770401e-57
1.357364e-57
-9.4629001e-56
6.7073284e-56
-1.2275884e-53
7.9780237e-54
-1.4317314e-51
8.5218158e-52
-1.510172e-49
8.180522e-50
-1.4522188e-47
7.1012922e-48
-1.2825002e-45
5.6010926e-46
-1.0472981e-43
4.0270182e-44
-7.9608514e-42
2.6419651e-42
-5.6726775e-40
1.5791506e-40
-3.8125999e-38
8.5340383e-39
-2.4328156e-36
4.0830161e-37
-1.5180052e-34
1.6274234e-35
-9.8632374e-33
4.1221565e-34
-6.4713101e-31
-1.4052166e-32
-4.5641514e-29
-3.2257697e-30
-3.8244774e-27
-2.6426045e-28
-8.4912444e-26
-9.5848437e-27
-1.365459e-25
-7.021445e-26
-1.0676919e-25
-1.055961e-25
-1.4019206e-26
-6.8689639e-26
-2.4606483e-29
-8.1704676e-27
-2.0153583e-29
-2.7857116e-29
-2.3681609e-29
-3.0542734e-29
-4.0435049e-29
-5.3464884e-29
-5.989984e-29
-1.0878778e-28
-1.2585174e-28
-2.0008519e-28
-5.916901e-28
-8.4416557e-28
-3.1025134e-27
-5.874134e-27
-1.3384959e-26
-3.3009751e-26
-4.2145365e-26
-1.4925079e-25
-8.3856508e-26
-5.1947017e-25
-9.0294114e-26
-1.3468834e-24
-8.9855964e-27
-2.6469665e-24
2.2537505e-25
-4.6684473e-24
4.6763121e-25
-4.7418739e-24
3.8811355e-25
-3.4872435e-24
2.2441392e-25
-1.7833585e-24
9.731408e-26
-6.9592264e-25
2.7835422e-26
-2.013916e-25
5.0171889e-27
-4.108032e-26
6.0870782e-28
-5.790853e-27
5.532449e-29
-5.8498903e-28
3.5234133e-30
-4.4871823e-29
1.4646544e-30
-1.7107959e-30
2.1385239e-30
-2.1986562e-30
5.7372047e-27
-5.2342266e-27
2.1925851e-25
-1.1432305e-25
5.0526024e-25
-3.5991233e-25
2.5471859e-25
-2.0603031e-25
9.3539434e-27
-2.3349807e-26
6.4182771e-29
-4.1114506e-28
6.1806432e-31
-2.4329582e-30
1.2200349e-32
7.4840089e-33
8.382394e-34
1.3116627e-33
1.5076051e-35
8.189296e-35
1.6593034e-37
1.9464658e-36
2.8117632e-39
4.3035938e-38
4.5933882e-41
8.8858157e-40
6.9006431e-43
1.6715989e-41
9.6152148e-45
2.8717697e-43
1.2352415e-46
4.5057805e-45
1.4516698e-48
6.437925e-47
1.547824e-50
8.3380062e-49
1.4835253e-52
9.7277721e-51
1.3808058e-54
1.0146116e-52
6.1298489e-56
1.120915e-54
1.0611356e-56
9.3180643e-56
2.6125981e-57
1.1990163e-56
1.1461763e-57
4.6212334e-57
3.223166e-58
1.6734783e-57
5.3485598e-59
3.7226186e-58
9.3834017e-60
8.8904202e-59
4.1701018e-61
9.4346926e-60
6.5558226e-63
3.8811535e-61
5.4788166e-65
7.5661346e-63
3.2562406e-67
7.0785348e-65
3.0301766e-69
8.2017394e-67
1.4122238e-71
6.6467003e-69
4.7777949e-74
3.6751667e-71
1.7308914e-76
1.8678888e-73
5.8511366e-79
1.0152603e-75
9.4696156e-82
5.6032815e-78
-5.1035009e-84
2.717906e-80
2.4069551e-82
-8.5196393e-82
2.3343059e-80
-2.5357971e-79
2.0878463e-78
-5.6123679e-77
2.9803915e-76
-8.9668771e-75
3.522075e-74
-1.1379888e-72
3.6140346e-72
-1.2704653e-70
3.3036925e-70
-1.5446104e-68
2.8240983e-68
-1.3467811e-66
2.2178639e-66
-3.8716354e-65
1.1325965e-64
-3.9426905e-63
4.0700203e-63
-1.0234777e-60
6.8235094e-61
-6.5502363e-59
5.5399823e-59
-1.6762827e-57
1.3392809e-57
-1.232457e-56
1.443949e-56
-3.5063162e-56
6.6634848e-56
-2.1864003e-55
2.6059773e-55
-2.2316174e-53
1.7443523e-53
-3.0615896e-51
2.1995395e-51
-3.7027063e-49
2.4365253e-49
-3.9956257e-47
2.3926135e-47
-3.8891821e-45
2.1023241e-45
-3.4449403e-43
1.6639371e-43
-2.7993899e-41
1.1919432e-41
-2.1021204e-39
7.7414944e-40
-1.4696808e-37
4.5568753e-38
-9.6320111e-36
2.4156574e-36
-5.9539011e-34