/*--------------------------------*- C++ -*----------------------------------*\
  =========                 |
  \\      /  F ield         | OpenFOAM: The Open Source CFD Toolbox
   \\    /   O peration     | Website:  https://openfoam.org
    \\  /    A nd           | Version:  9
     \\/     M anipulation  |
\*---------------------------------------------------------------------------*/
FoamFile
{
    format      ascii;
    class       volScalarField;
    location    "0.42";
    object      alpha.phase1;
}
// * * * * * * * * * * * * * * * * * * * * * * * * * * * * * * * * * * * * * //

dimensions      [0 0 0 0 0 0 0];

internalField   nonuniform List<scalar> 
10000
(
5.8993554e-98
5.8997277e-98
8.1491973e-98
4.7322124e-96
5.4783198e-94
5.9173519e-92
6.316251e-90
7.4465762e-88
1.0761719e-85
2.0818561e-83
7.5768508e-81
2.4324375e-78
1.5081622e-76
2.0182638e-75
1.0635068e-74
3.6817385e-74
1.0390628e-73
2.1591941e-73
4.8598401e-73
2.2798674e-71
1.9873781e-69
1.6706528e-67
1.346836e-65
1.046333e-63
7.8735055e-62
5.7685884e-60
4.131797e-58
2.9444961e-56
2.2365004e-54
1.6763586e-52
1.0874008e-50
6.3655151e-49
2.6290403e-47
3.9152127e-46
3.0561233e-45
1.3586266e-44
1.0017138e-44
2.0881524e-45
2.0881524e-45
2.1138848e-45
1.6890295e-44
2.5303972e-43
3.1019964e-42
3.181872e-41
2.6013082e-40
1.6677446e-39
8.5931669e-39
3.5877448e-38
1.1676708e-37
2.858707e-37
2.9348862e-37
1.5744226e-37
4.8673617e-38
1.1076717e-38
1.9945609e-39
2.7001752e-40
2.4388851e-41
1.2911792e-42
3.7897607e-44
1.0190619e-45
1.0151533e-45
1.0151533e-45
4.8666043e-44
1.1617886e-44
1.0249089e-45
2.5225175e-47
1.1127651e-49
8.0071606e-52
1.2796745e-53
1.7950766e-54
4.1137687e-56
5.9411355e-58
9.4920087e-60
1.5093268e-61
2.3326113e-63
3.483823e-65
5.0034222e-67
6.8837166e-69
9.2501333e-71
2.4141629e-72
9.7795358e-73
7.1840044e-73
4.3742055e-73
1.7141119e-73
6.1970076e-74
2.1738952e-74
6.0519753e-75
1.2538575e-75
1.0311937e-76
1.7010411e-78
5.5662553e-81
1.443147e-83
4.4772119e-86
1.23661e-88
3.5061136e-91
1.3819752e-93
6.8794753e-96
1.1746627e-97
9.4990277e-98
9.4988925e-98
6.6356951e-98
1.5998351e-96
8.1392955e-96
2.6551276e-95
1.2741625e-93
8.7580653e-92
8.3819704e-90
1.0997755e-87
2.0829971e-85
5.3345767e-83
1.3440862e-80
2.5732577e-78
1.4745392e-76
2.01685e-75
1.0735235e-74
3.4692427e-74
1.1222382e-73
2.8922536e-72
2.6388481e-70
2.4892049e-68
2.2352884e-66
1.9126265e-64
1.5669638e-62
1.2356033e-60
9.4254422e-59
6.9905716e-57
5.059947e-55
3.6419924e-53
2.7912576e-51
2.068879e-49
1.3121635e-47
7.9469507e-46
4.1294353e-44
6.0190603e-43
1.6083596e-42
8.4746358e-43
1.3457646e-44
3.4750333e-45
1.0027501e-44
2.4464747e-43
3.7352606e-42
4.8096493e-41
5.3475175e-40
4.9516488e-39
3.4943804e-38
1.6921891e-37
5.4322393e-37
1.258184e-36
2.532927e-36
4.4840315e-36
4.5501095e-36
3.1028458e-36
1.5340455e-36
6.4508666e-37
2.0308693e-37
3.9602819e-38
4.2345687e-39
2.4484201e-40
8.4291479e-42
2.0149054e-43
1.8200129e-45
1.6867163e-44
9.6795993e-44
4.8523265e-42
1.6436796e-42
5.5468909e-44
1.1961675e-46
2.9357487e-49
1.6554241e-51
2.3700378e-51
1.6234864e-52
1.1791705e-54
1.3955747e-56
2.1930075e-58
3.3443772e-60
4.9079906e-62
6.927855e-64
9.3610017e-66
1.2051267e-67
1.4731424e-69
2.2851204e-71
5.9916866e-72
2.4219107e-72
3.7627798e-73
9.494676e-74
2.8523277e-74
6.8471872e-75
1.2850824e-75
1.0317218e-76
2.0138053e-78
1.1957354e-80
4.8774472e-83
1.2292208e-85
2.4517687e-88
1.1053947e-90
9.8633318e-93
1.452671e-94
2.2124416e-95
2.7982972e-96
9.9966949e-98
4.3796739e-95
1.9947701e-93
1.1168433e-91
8.1371786e-91
2.6723208e-90
2.8981407e-89
2.7559136e-87
5.7411305e-85
2.3806114e-82
1.4145727e-79
1.8605868e-77
3.7585848e-76
2.3709184e-75
1.8783662e-74
4.3591174e-73
3.6681354e-72
2.7531767e-71
2.1938235e-69
2.1966728e-67
2.0873268e-65
1.8822844e-63
1.6145282e-61
1.3240064e-59
1.0432951e-57
7.9398853e-56
5.8641664e-54
4.2184798e-52
3.0138233e-50
2.2931754e-48
1.6779142e-46
1.0530624e-44
6.306823e-43
3.0678488e-41
4.0522284e-40
1.0180033e-39
5.6467082e-40
3.221845e-42
1.646166e-42
2.2989703e-42
4.7676957e-41
6.9122453e-40
8.4441573e-39
8.9731492e-38
7.9965155e-37
5.5216864e-36
2.6720458e-35
8.6771472e-35
2.0220225e-34
4.023743e-34
7.2750934e-34
7.3829146e-34
4.980053e-34
2.4612349e-34
1.0313365e-34
3.2211236e-35
6.2972449e-36
6.9449937e-37
4.3224097e-38
1.6729892e-39
4.3752326e-41
1.1441568e-42
9.2385556e-42
5.4482559e-41
3.1268148e-39
1.1520672e-39
4.6874851e-41
1.1838091e-43
3.2235039e-46
1.4579466e-48
1.2031213e-48
7.4517426e-50
1.0574795e-51
1.3146306e-53
1.9998028e-55
3.074391e-57
4.5376067e-59
6.419503e-61
8.6760681e-63
1.1148899e-64
1.3562059e-66
1.7914531e-68
3.106969e-69
1.3648502e-69
1.692576e-70
2.8392578e-71
6.391448e-72
9.7218294e-73
1.0549429e-73
8.7724828e-75
5.5544756e-76
1.3233934e-77
9.1836554e-80
3.6651286e-82
1.3633226e-84
5.2298328e-87
5.7902517e-89
3.0866571e-90
2.2204372e-91
3.0548011e-93
6.987079e-95
1.4333014e-92
6.9298805e-91
7.9712328e-89
6.1626191e-87
8.0372853e-86
2.0524188e-85
2.4315741e-84
4.591563e-82
1.7417287e-79
9.3555986e-77
1.2003501e-74
2.6325011e-73
2.2881544e-72
5.9925829e-71
1.0178577e-69
3.8380776e-69
1.5742348e-68
1.381091e-66
1.3983655e-64
1.3379917e-62
1.211116e-60
1.0405027e-58
8.5280814e-57
6.7016017e-55
5.0766153e-53
3.7244052e-51
2.6561092e-49
1.8782372e-47
1.4118337e-45
1.0225382e-43
6.3553688e-42
3.7689315e-40
1.7080022e-38
2.0168021e-37
4.6833449e-37
2.6809459e-37
1.8567873e-39
7.0392919e-40
5.2885531e-40
7.5302477e-39
9.7982915e-38
1.1266442e-36
1.1436648e-35
9.8013242e-35
6.6030545e-34
3.1712904e-33
1.0335571e-32
2.4119802e-32
4.7441012e-32
8.6949429e-32
8.8239349e-32
5.9086882e-32
2.9241716e-32
1.2258548e-32
3.8250181e-33
7.5421152e-34
8.5928151e-35
5.7310055e-36
2.464158e-37
6.7389795e-39
2.5286379e-40
2.3906424e-39
3.7531397e-38
1.4412153e-36
5.8337593e-37
2.9040408e-38
9.8071065e-41
2.6860648e-43
1.1105885e-45
6.0467912e-46
3.9462544e-47
6.8639524e-49
9.0543733e-51
1.3901878e-52
2.1472187e-54
3.1793868e-56
4.5036261e-58
6.0803459e-60
7.7879813e-62
9.4188329e-64
1.1277381e-65
1.2856327e-66
5.9663295e-67
8.1667132e-68
1.4776675e-68
3.6255966e-69
6.2573553e-70
8.8452029e-71
7.989264e-72
4.3879963e-73
9.7717581e-75
8.2469736e-77
4.945567e-79
3.2955811e-81
2.4574452e-83
2.8494559e-85
1.0396442e-86
1.6178735e-88
1.306855e-90
2.2477626e-92
3.6674105e-90
2.1043678e-88
2.2670639e-86
2.2223507e-84
1.5240898e-82
2.4409582e-81
9.8434574e-81
3.7519141e-79
9.8102899e-77
4.3886461e-74
5.763023e-72
1.3892121e-70
1.3569003e-69
3.2079549e-68
4.7832581e-67
1.6705215e-66
7.7186154e-66
7.2905165e-64
7.4464118e-62
7.1680674e-60
6.505184e-58
5.5879599e-56
4.5669645e-54
3.5694455e-52
2.6818661e-50
1.9464619e-48
1.3697406e-46
9.5315467e-45
7.0230679e-43
5.0108173e-41
3.0803296e-39
1.8091035e-37
7.630512e-36
7.9715802e-35
1.6811932e-34
9.8118064e-35
7.5563615e-37
2.3119086e-37
1.3076139e-37
1.0289211e-36
1.1151575e-35
1.1772133e-34
1.1374413e-33
9.3463823e-33
6.1275334e-32
2.9139574e-31
9.5031081e-31
2.2169143e-30
4.3071393e-30
7.9463232e-30
8.0652663e-30
5.3846811e-30
2.6765629e-30
1.1254577e-30
3.5163898e-31
6.9985398e-32
8.2307991e-33
5.8688431e-34
2.7920103e-35
7.9484492e-37
4.8497788e-38
5.1858737e-37
1.9261161e-35
5.1397639e-34
2.306189e-34
1.4148618e-35
6.7156384e-38
1.7839067e-40
7.1957992e-43
2.713935e-43
1.9424023e-44
3.7600682e-46
5.0815948e-48
7.877934e-50
1.2261102e-51
1.8251861e-53
2.5916904e-55
3.49819e-57
4.4659262e-59
5.3668953e-61
6.1369495e-63
4.2461673e-64
1.9311963e-64
2.7717574e-65
5.7634303e-66
1.5770527e-66
2.9519904e-67
4.7966194e-68
4.5342103e-69
2.3796997e-70
5.1765327e-72
4.8609414e-74
3.7178852e-76
2.7258204e-78
2.1095483e-80
3.3334932e-82
5.881191e-84
5.7852593e-86
3.9471042e-88
5.6324153e-90
7.6522682e-88
4.9479598e-86
5.7536241e-84
5.293681e-82
4.5430639e-80
2.3739575e-78
4.0803229e-77
3.1349016e-76
4.5733182e-74
1.6674112e-71
2.2226901e-69
5.6917028e-68
6.2544955e-67
1.4672006e-65
1.7265456e-64
5.3798512e-64
3.2886491e-63
3.3073014e-61
3.4173319e-59
3.3083913e-57
3.0077585e-55
2.5793993e-53
2.0975035e-51
1.625746e-49
1.2076104e-47
8.6386298e-46
5.9744202e-44
4.0718713e-42
2.9227062e-40
2.0457026e-38
1.2426174e-36
7.2274807e-35
2.8374871e-33
2.6095948e-32
4.916422e-32
2.9027409e-32
2.1175215e-34
5.8381047e-35
2.8738693e-35
1.3217892e-34
1.0826047e-33
9.9695601e-33
9.1167137e-32
7.1477717e-31
4.5415397e-30
2.1317187e-29
6.9381532e-29
1.6155499e-28
3.1015159e-28
5.7319725e-28
5.8186029e-28
3.8842612e-28
1.9441659e-28
8.2145682e-29
2.5733581e-29
5.1789352e-30
6.2994358e-31
4.8058106e-32
2.5278864e-33
7.7659999e-35
4.7155143e-36
9.2697027e-35
7.1591433e-33
1.4859044e-31
7.4572216e-32
5.5776266e-33
3.4980967e-35
9.5245763e-38
3.9117428e-40
1.3421075e-40
8.8491801e-42
1.6896575e-43
2.3821843e-45
3.764869e-47
5.9193179e-49
8.8754968e-51
1.2652231e-52
1.7080667e-54
2.1730711e-56
2.592016e-58
2.9113037e-60
1.3139979e-61
5.337644e-62
7.5920201e-63
1.8387665e-63
5.4865091e-64
1.0741565e-64
1.9358511e-65
1.9460068e-66
9.7608463e-68
2.0472248e-69
2.1164889e-71
1.736258e-73
1.07309e-75
9.8863625e-78
1.8013463e-79
1.8688269e-81
1.4722997e-83
9.1634358e-86
1.1513189e-87
1.3460895e-85
9.4564258e-84
1.1645096e-81
1.1249246e-79
9.9036893e-78
8.4752525e-76
2.6796037e-74
2.3114078e-73
1.5972089e-71
4.9503349e-69
6.3561918e-67
1.7808554e-65
2.456962e-64
5.6406224e-63
5.138919e-62
1.418411e-61
1.235631e-60
1.3105829e-58
1.3719686e-56
1.3368326e-54
1.2174144e-52
1.0413367e-50
8.411747e-49
6.4523093e-47
4.725059e-45
3.3206845e-43
2.2484773e-41
1.494212e-39
1.0381301e-37
7.108534e-36
4.2659078e-34
2.4605516e-32
8.9768073e-31
7.239627e-30
1.2083101e-29
7.138005e-30
4.4154291e-32
1.1352712e-32
5.4549514e-33
1.6835929e-32
9.5415746e-32
7.0088766e-31
6.0035181e-30
4.4723144e-29
2.7414773e-28
1.265563e-27
4.089866e-27
9.4337916e-27
1.7786661e-26
3.2745765e-26
3.3273881e-26
2.2295878e-26
1.1314037e-26
4.8361997e-27
1.5275743e-27
3.1198496e-28
3.9303984e-29
3.2104411e-30
1.8674761e-31
6.0489896e-33
8.2513303e-34
1.374601e-32
2.1270411e-30
3.5873306e-29
2.0250665e-29
1.8578829e-30
1.4793842e-32
4.1659088e-35
1.9909683e-37
6.5196051e-38
3.6448965e-39
6.551504e-41
9.6289682e-43
1.5561377e-44
2.4769738e-46
3.7457163e-48
5.3634264e-50
7.2409888e-52
9.1686254e-54
1.0830294e-55
1.1931396e-57
3.653933e-59
1.2634767e-59
1.7761134e-60
4.8867275e-61
1.5576151e-61
3.2259275e-62
6.3548868e-63
6.7065006e-64
3.1383388e-65
6.3953997e-67
7.2493978e-69
5.1179819e-71
3.5937837e-73
5.312381e-75
5.28551e-77
4.1654455e-79
2.97015e-81
1.7341286e-83
1.9817051e-85
2.0437239e-83
1.5287401e-81
1.9618761e-79
2.0161489e-77
1.7359913e-75
1.3575842e-73
8.7093192e-72
2.7314347e-70
4.3443902e-69
1.092292e-66
1.4943349e-64
4.91667e-63
7.8899295e-62
1.5549081e-60
1.1988901e-59
3.1941571e-59
4.1201654e-58
4.581336e-56
4.871967e-54
4.7880071e-52
4.3716641e-50
3.7293128e-48
2.9900515e-46
2.2654281e-44
1.6315235e-42
1.1227492e-40
7.4146441e-39
4.7816531e-37
3.1955241e-35
2.1329903e-33
1.2624731e-31
7.22434e-30
2.4481327e-28
1.7306727e-27
2.5427699e-27
1.4936761e-27
8.1274171e-30
1.806333e-30
8.9906653e-31
2.1110704e-30
8.0967647e-30
4.210475e-29
3.2736636e-28
2.3122646e-27
1.3569301e-26
6.1152017e-26
1.9442884e-25
4.3768474e-25
7.976871e-25
1.4612241e-24
1.4901389e-24
1.0047865e-24
5.223498e-25
2.290786e-25
7.3783732e-26
1.5377048e-26
2.0136916e-27
1.7687716e-28
1.1403039e-29
3.8185223e-31
1.2299423e-31
1.4325254e-30
5.7027749e-28
7.3858208e-27
4.7025537e-27
5.2602011e-28
5.1857297e-30
1.5454709e-32
9.7104741e-35
2.7873007e-35
1.3791712e-36
2.1347556e-38
3.3703986e-40
5.6589083e-42
9.1258899e-44
1.3924573e-45
2.0029236e-47
2.7018239e-49
3.3972405e-51
3.9590882e-53
4.2598284e-55
9.3195086e-57
2.6030897e-57
3.6091756e-58
1.1163375e-58
3.7738444e-59
8.1509492e-60
1.7368052e-60
1.8819046e-61
8.5560366e-63
1.7445233e-64
1.935933e-66
1.2671764e-68
1.4482766e-70
1.513101e-72
1.0934443e-74
7.532084e-77
4.9935232e-79
2.7726942e-81
2.9393037e-83
2.7259714e-81
2.1438865e-79
2.8309703e-77
3.0341817e-75
2.7585475e-73
2.257746e-71
1.7135741e-69
7.106654e-68
1.2711673e-66
1.7549252e-64
2.8055416e-62
1.1965813e-60
2.1854702e-59
3.5938092e-58
2.367895e-57
6.3272984e-57
1.2055087e-55
1.4064804e-53
1.5285331e-51
1.5209789e-49
1.3950505e-47
1.1878493e-45
9.4493757e-44
7.0648443e-42
4.9944567e-40
3.3576381e-38
2.1562213e-36
1.3439077e-34
8.5895522e-33
5.5718767e-31
3.2510598e-29
1.8421647e-27
5.7664148e-26
3.5850816e-25
4.694722e-25
2.6785277e-25
4.5100775e-27
2.0936974e-28
1.2728074e-28
2.5091651e-28
6.8331181e-28
2.2775564e-27
1.4779251e-26
9.8955437e-26
5.5010234e-25
2.4002223e-24
7.5269541e-24
1.668511e-23
2.9368192e-23
5.3629444e-23
5.4914601e-23
3.7443962e-23
1.9879436e-23
8.8632455e-24
2.8905636e-24
6.1567313e-25
8.4770141e-26
8.1013083e-27
5.8060227e-28
2.0513187e-29
1.4896504e-29
9.7482898e-29
1.3591911e-25
1.3149225e-24
9.4607202e-25
1.2686847e-25
1.699048e-27
5.169736e-30
3.8469651e-32
1.0920112e-32
5.1117035e-34
6.7223736e-36
1.0719807e-37
1.8483472e-39
3.0246995e-41
4.6557372e-43
6.7166055e-45
9.0261254e-47
1.1221468e-48
1.2814082e-50
1.3347163e-52
2.2030342e-54
4.7074466e-55
6.4527067e-56
2.2504285e-56
7.9786236e-57
1.7991195e-57
4.2049616e-58
4.5981417e-59
2.0174543e-60
4.1441398e-62
3.8558869e-64
3.4127285e-66
4.2088221e-68
3.0559255e-70
1.8271101e-72
1.1559169e-74
7.2164326e-77
3.8401419e-79
3.8229318e-81
3.2382793e-79
2.6546486e-77
3.5870249e-75
3.9678205e-73
3.7744903e-71
3.165861e-69
2.4257861e-67
1.5066397e-65
5.858206e-64
2.2303543e-62
4.1943573e-60
2.6096632e-58
5.9917141e-57
7.9022704e-56
4.0933512e-55
1.1126459e-54
3.0318773e-53
3.7537169e-51
4.2141248e-49
4.2743969e-47
3.9558372e-45
3.3696271e-43
2.6616398e-41
1.9629734e-39
1.3605582e-37
8.9176487e-36
5.554448e-34
3.3335425e-32
2.0280845e-30
1.2720402e-28
7.3057935e-27
4.0884782e-25
1.1772238e-23
6.4748055e-23
7.6799827e-23
4.1246191e-23
1.696008e-24
1.9652083e-26
1.544347e-26
2.707739e-26
5.7015345e-26
1.2016051e-25
5.5463484e-25
3.4776259e-24
1.8397306e-23
7.8586606e-23
2.5267852e-22
5.9341282e-22
1.0822605e-21
1.9351849e-21
1.9674003e-21
1.3822442e-21
7.2450433e-22
3.0604792e-22
9.5588143e-23
2.0396838e-23
2.9579113e-24
3.0855191e-25
2.4558711e-26
9.6359372e-28
1.2709175e-27
7.0181637e-27
2.5107949e-23
2.0767462e-22
1.6435895e-22
2.6050411e-23
4.8374546e-25
1.520912e-27
1.2465679e-29
3.3245628e-30
1.5688797e-31
1.9073728e-33
3.0527284e-35
5.3898468e-37
8.9567384e-39
1.3900519e-40
2.0072149e-42
2.6768202e-44
3.2689115e-46
3.6192435e-48
3.5899206e-50
4.7111579e-52
7.5698533e-53
1.0287152e-53
4.1154064e-54
1.5376125e-54
3.5399358e-55
8.812831e-56
9.7395268e-57
4.1352857e-58
8.2567933e-60
7.7446507e-62
9.8091844e-64
8.34506e-66
4.8106763e-68
2.6272038e-70
1.5480181e-72
9.1522763e-75
4.6913476e-77
4.4190696e-79
3.4631066e-77
2.9425229e-75
4.0535407e-73
4.5968613e-71
4.5187928e-69
3.9418839e-67
3.2214552e-65
2.4721628e-63
1.21127e-61
3.3179913e-60
6.2753448e-58
5.4044025e-56
1.2986821e-54
1.3819245e-53
6.2328176e-53
1.7064894e-52
6.249767e-51
8.4845757e-49
1.0037088e-46
1.049821e-44
9.8715917e-43
8.4471091e-41
6.6395154e-39
4.8343111e-37
3.284124e-35
2.095886e-33
1.2634963e-31
7.2774743e-30
4.1947905e-28
2.5338537e-26
1.4326118e-24
7.8654087e-23
2.0730255e-21
1.0245426e-20
1.1408224e-20
5.9695443e-21
4.3505913e-22
1.3391614e-24
1.6222573e-24
2.5812489e-24
4.5707e-24
6.6391226e-24
1.8167717e-23
9.9656482e-23
5.1170279e-22
2.2097525e-21
7.5003982e-21
1.9726326e-20
4.3014791e-20
7.4548035e-20
7.459324e-20
5.3160099e-20
2.6562321e-20
1.0078249e-20
2.8702624e-21
5.8887495e-22
8.6747894e-23
9.7112887e-24
8.5963232e-25
4.2255932e-26
7.4708763e-26
6.3262528e-25
4.3664144e-21
2.9352756e-20
2.4984563e-20
4.5974776e-21
1.1230564e-22
3.8494656e-25
3.2984358e-27
7.6610303e-28
3.4528854e-29
4.5453846e-31
7.6229762e-33
1.3772276e-34
2.3256047e-36
3.637849e-38
5.2448146e-40
6.9041609e-42
8.200058e-44
8.6514513e-46
7.9163063e-48
8.3771859e-50
1.0705093e-50
1.4733113e-51
7.193255e-52
2.9619459e-52
6.6680807e-53
1.6516303e-53
1.7918158e-54
7.4992131e-56
1.3380029e-57
1.6994083e-59
1.8822925e-61
1.2686641e-63
6.5683385e-66
3.3436094e-68
1.8432875e-70
1.0360471e-72
5.1240674e-75
4.5900772e-77
3.3629946e-75
2.9504304e-73
4.133655e-71
4.7879827e-69
4.8405265e-67
4.3768941e-65
3.6537039e-63
2.8979127e-61
2.07456e-59
1.1317967e-57
9.4573926e-56
1.0459075e-53
2.3988547e-52
2.0516488e-51
8.5169291e-51
2.1035873e-50
9.4914031e-49
1.5495782e-46
2.0123261e-44
2.2167466e-42
2.1428005e-40
1.8545687e-38
1.456472e-36
1.049081e-34
6.9907767e-33
4.3428545e-31
2.5308998e-29
1.3959331e-27
7.598844e-26
4.387987e-24
2.4421237e-22
1.2988055e-20
3.0909603e-19
1.4389732e-18
1.799086e-18
1.2639479e-18
2.1734172e-19
7.6411751e-23
1.8331019e-22
2.136066e-22
3.3912757e-22
3.8505417e-22
5.921277e-22
2.3917891e-21
1.1465045e-20
4.8856431e-20
1.6397419e-19
4.4438781e-19
1.1650099e-18
2.1187158e-18
2.1543003e-18
1.4194555e-18
6.8625815e-19
2.5497056e-19
7.0980451e-20
1.4116579e-20
2.0805233e-21
2.5393267e-22
2.5822126e-23
2.2379846e-24
3.4312292e-24
5.3240554e-23
7.7201087e-19
4.1609637e-18
3.3676413e-18
6.8951252e-19
2.2557662e-20
1.1903391e-22
1.1424587e-24
1.5524187e-25
5.7212801e-27
9.3509178e-29
1.6912206e-30
3.1234387e-32
5.3508792e-34
8.4109087e-36
1.2036876e-37
1.5480264e-39
1.7550298e-41
1.7026255e-43
1.3264648e-45
1.0039611e-47
1.3173059e-48
1.9308793e-49
1.1357634e-49
4.9144348e-50
1.1624656e-50
2.7372194e-51
2.9261718e-52
1.2337102e-53
2.1536313e-55
3.1654324e-57
2.799857e-59
1.6401498e-61
7.9928024e-64
3.8245725e-66
1.9792792e-68
1.0594234e-70
5.053193e-73
4.3240654e-75
2.9883427e-73
2.6984874e-71
3.8394537e-69
4.5314876e-67
4.6906338e-65
4.368862e-63
3.7720048e-61
3.1298252e-59
2.6935715e-57
2.177065e-55
1.919959e-53
1.8432012e-51
3.7353034e-50
2.6700102e-49
1.0092927e-48
1.5090778e-48
1.1411988e-46
2.025304e-44
3.2166888e-42
3.8936045e-40
3.9520369e-38
3.4992579e-36
2.7641456e-34
1.9769981e-32
1.2948749e-30
7.8362908e-29
4.4134386e-27
2.3276556e-25
1.1932902e-23
6.5388501e-22
3.5891456e-20
1.8863286e-18
4.1626545e-17
1.6847388e-16
1.6955503e-16
1.0161129e-16
3.1604011e-17
9.1380685e-21
2.5739665e-20
1.5789889e-20
2.2973707e-20
2.2562387e-20
2.2889217e-20
5.345684e-20
2.0614185e-19
7.7458006e-19
2.4231257e-18
6.2268823e-18
1.6010169e-17
3.0906068e-17
3.2458935e-17
2.004886e-17
9.8519654e-18
3.8891782e-18
1.1539703e-18
2.4201083e-19
3.9447485e-20
5.7526469e-21
7.4270628e-22
2.528103e-22
2.7503061e-22
4.234149e-21
7.7788168e-17
3.6421224e-16
3.7175332e-16
9.1179179e-17
3.9074458e-18
2.7569761e-20
3.2049047e-22
2.7885319e-23
8.9702714e-25
1.70074e-26
3.2976727e-28
6.2171518e-30
1.0761723e-31
1.6900789e-33
2.3773217e-35
2.9338001e-37
3.0634579e-39
2.4979354e-41
1.6203499e-43
1.1359391e-45
1.3155195e-46
2.3031869e-47
1.5352743e-47
6.6954189e-48
1.6440484e-48
3.8210609e-49
4.290362e-50
1.851619e-51
3.7330553e-53
4.5430374e-55
3.4305092e-57
1.8933485e-59
8.7983429e-62
3.9793845e-64
1.9395684e-66
9.8670057e-69
4.5459777e-71
3.7233607e-73
2.4450849e-71
2.2679651e-69
3.273643e-67
3.9309319e-65
4.1545261e-63
3.9729687e-61
3.54479e-59
3.0301432e-57
2.7779378e-55
3.5021658e-53
4.8898959e-51
2.8854401e-49
4.7577096e-48
2.9653472e-47
1.0593646e-46
2.181755e-46
2.3635776e-44
2.4198241e-42
3.6660038e-40
5.4568859e-38
6.0589887e-36
5.5984255e-34
4.4949096e-32
3.2114625e-30
2.07425e-28
1.2248117e-26
6.6686675e-25
3.3678332e-23
1.6263519e-21
8.2468812e-20
4.5168319e-18
2.4108703e-16
4.4437233e-15
1.3533686e-14
1.9706435e-15
7.1554388e-16
2.782781e-16
7.353667e-19
1.4186119e-18
1.1327307e-18
1.6005295e-18
1.486683e-18
1.1752816e-18
1.4425956e-18
3.7942292e-18
1.129483e-17
3.7142136e-17
9.1928683e-17
1.4895435e-16
2.4771269e-16
2.6628892e-16
1.887457e-16
1.019837e-16
4.2961915e-17
1.3560624e-17
3.2219861e-18
6.6988455e-19
1.230618e-19
2.5656709e-20
1.6018354e-20
1.2773086e-20
3.0402887e-19
1.467892e-15
4.9755261e-15
2.5732938e-14
8.9452951e-15
5.5389799e-16
6.8248689e-18
1.0136349e-19
4.519406e-21
1.2566013e-22
2.740528e-24
5.6540766e-26
1.0831543e-27
1.8832715e-29
2.9275719e-31
3.981453e-33
4.5585859e-35
4.0174753e-37
2.7206137e-39
2.2155426e-41
2.3187446e-43
8.0570989e-45
2.5183022e-45
1.819517e-45
7.7656663e-46
1.9276279e-46
4.4940203e-47
5.6138696e-48
2.5415483e-49
5.0643636e-51
5.3503858e-53
3.7386636e-55
1.981721e-57
8.8535676e-60
3.8053116e-62
1.7453167e-64
8.4455031e-67
3.7631749e-69
2.9500729e-71
1.8521763e-69
1.762072e-67
2.5753514e-65
3.1444207e-63
3.3871722e-61
3.3179788e-59
3.0559943e-57
2.7230092e-55
2.6439244e-53
4.1889782e-51
7.8571231e-49
4.0502682e-47
5.2355693e-46
2.9276762e-45
9.5984702e-45
3.8913566e-44
4.3812944e-42
4.3906445e-40
4.0579236e-38
5.2900756e-36
7.0843287e-34
7.0840725e-32
5.8828497e-30
4.2389553e-28
2.715027e-26
1.5695141e-24
8.2760208e-23
4.0045464e-21
1.8200318e-19
8.5899575e-18
4.7926092e-16
2.1293187e-14
3.1335413e-13
9.3813057e-13
7.98901e-14
3.0559377e-14
2.7180311e-17
1.0693789e-17
2.4663012e-17
7.3488429e-17
1.2485145e-16
1.1904057e-16
8.3140943e-17
6.7139146e-17
1.2827927e-16
3.0136398e-16
1.0875596e-15
2.331459e-15
1.6349956e-15
1.5834591e-15
1.9241172e-15
2.1693003e-15
1.3343022e-15
6.2481546e-16
2.0082258e-16
5.2061402e-17
1.3682414e-17
2.7747036e-18
1.1081356e-18
1.8609865e-19
6.8376456e-20
2.0259708e-17
9.8092644e-14
2.5641572e-13
1.90366e-12
6.5656726e-13
5.1389087e-14
1.243203e-15
2.354702e-17
6.5010994e-19
1.6961391e-20
3.952253e-22
8.4249369e-24
1.6321932e-25
2.8285088e-27
4.2895127e-29
5.478996e-31
5.3910021e-33
3.9348593e-35
3.5817401e-37
4.2409596e-39
4.5815344e-41
4.8812977e-43
2.4463478e-43
1.9099587e-43
7.8512009e-44
1.9547458e-44
4.5851595e-45
6.2546577e-46
3.0578968e-47
5.6548934e-49
5.5048149e-51
3.6953589e-53
1.9015493e-55
8.1998275e-58
3.3551413e-60
1.4552501e-62
6.704666e-65
2.8853954e-67
2.1633663e-69
1.3060095e-67
1.271217e-65
1.8806602e-63
2.3303758e-61
2.5572426e-59
2.5616056e-57
2.4337076e-55
2.2714187e-53
2.3429311e-51
4.1105194e-49
8.9967835e-47
4.4759354e-45
5.0687457e-44
2.637613e-43
7.7435255e-43
5.3068252e-42
6.2831009e-40
6.6559328e-38
6.0164252e-36
5.0107689e-34
5.6475912e-32
6.5874901e-30
5.8280014e-28
4.2971396e-26
2.7512288e-24
1.5648188e-22
8.0180365e-21
3.7304519e-19
1.5975798e-17
6.7057208e-16
3.1912377e-14
1.5649051e-12
2.4094172e-11
7.6506693e-11
5.9520229e-12
1.8940985e-12
1.1307396e-15
1.9436692e-17
3.1379388e-16
2.8709888e-15
5.3516344e-15
4.9000592e-15
3.3004315e-15
2.9497343e-15
4.6448641e-15
8.0746366e-15
1.8407493e-14
3.1305149e-14
1.7491111e-14
1.2526066e-14
2.1222475e-14
3.10178e-14
2.0510244e-14
1.0638757e-14
4.733247e-15
1.3314328e-15
3.4152163e-16
6.6410126e-17
3.0615544e-17
1.0294491e-18
1.2390995e-18
1.1081202e-15
8.0471707e-12
1.610742e-11
1.3953465e-10
4.9760496e-11
3.9621232e-12
1.1129451e-13
2.568791e-15
6.9328668e-17
1.8464415e-18
4.4659092e-20
9.7377832e-22
1.899041e-23
3.2483956e-25
4.7057263e-27
5.3322276e-29
4.5102734e-31
4.6558211e-33
6.147212e-35
7.3934689e-37
7.8099161e-39
7.5730328e-41
2.1740717e-41
1.7815853e-41
7.0015779e-42
1.7549465e-42
4.141477e-43
6.0010018e-44
3.061727e-45
5.4655715e-47
5.1162236e-49
3.3467091e-51
1.676178e-53
7.0140853e-56
2.7593221e-58
1.1352946e-60
4.9725115e-63
2.0620617e-65
1.4763264e-67
8.6131104e-66
8.5712044e-64
1.2794033e-61
1.6068132e-59
1.7927067e-57
1.8352485e-55
1.7979703e-53
1.7612161e-51
1.9432078e-49
3.5034413e-47
8.3237768e-45
4.202352e-43
4.3771955e-42
2.1707427e-41
6.079802e-41
3.5630901e-40
4.3625831e-38
5.4736132e-36
5.911884e-34
5.465871e-32
4.2667633e-30
3.851839e-28
3.7284658e-26
2.8711059e-24
1.8553404e-22
1.0416488e-20
5.1919096e-19
2.4888273e-17
1.2715993e-15
2.5782918e-14
1.0164453e-13
5.8940024e-11
1.7426867e-09
5.1768814e-09
5.1140874e-10
1.4919739e-10
6.2388803e-14
4.7149243e-16
4.8442925e-15
5.404012e-14
6.0689684e-14
5.1138525e-14
2.9261595e-14
4.4118411e-14
5.4454901e-14
6.7257691e-14
9.7923691e-14
1.4515915e-13
1.0693029e-13
1.1391192e-13
2.6536564e-13
2.3181493e-13
1.7086886e-13
8.3373847e-14
8.5245273e-14
3.3127535e-14
7.2253874e-15
1.3921144e-15
4.453224e-16
2.9533424e-18
5.4798344e-18
7.7184665e-14
6.4899851e-10
1.1235127e-09
8.5873651e-09
3.289723e-09
2.1069383e-10
2.3886475e-13
7.4216225e-14
5.8425818e-15
1.4591737e-16
3.2069561e-18
7.0562767e-20
1.3826233e-21
2.3063133e-23
3.0798763e-25
3.3611032e-27
4.211345e-29
6.1561659e-31
8.029446e-33
8.0539889e-35
6.6441762e-37
6.7644255e-39
1.9903784e-39
1.4791146e-39
5.5492234e-40
1.415319e-40
3.3556839e-41
5.107997e-42
2.6815395e-43
4.7335651e-45
4.3542419e-47
2.7867097e-49
1.3714215e-51
5.615063e-54
2.1333411e-56
8.3426297e-59
3.4679566e-61
1.3823112e-63
9.4214343e-66
5.3353967e-64
5.4307401e-62
8.1640099e-60
1.0349477e-57
1.1707452e-55
1.2217577e-53
1.231372e-51
1.2673201e-49
1.5067794e-47
2.7029411e-45
6.562904e-43
3.4704633e-41
3.4095207e-40
1.6379996e-39
4.8210107e-39
1.605514e-38
1.8000306e-36
2.397888e-34
2.6991699e-32
2.5976188e-30
2.1587484e-28
1.6657339e-26
1.5124114e-24
1.1886613e-22
7.8287792e-21
4.3887716e-19
2.3389646e-17
1.214522e-15
2.5428785e-14
1.2555432e-13
2.9313371e-12
1.3096419e-10
6.1775135e-08
3.3489369e-07
1.8025334e-06
2.3769866e-07
2.5931107e-14
2.4543101e-14
5.704504e-14
6.9942464e-13
3.1639444e-13
2.0697822e-13
6.5193923e-14
1.8920196e-13
1.8878506e-13
1.8785814e-13
2.5561339e-13
3.2954565e-13
4.1581275e-13
2.2655468e-12
8.7398487e-12
6.2636838e-12
2.5498595e-12
1.9617385e-12
1.5262134e-12
5.1978715e-13
1.1385572e-13
2.2621833e-14
4.9227784e-15
5.4798344e-18
5.0920137e-17
1.7716621e-12
2.1631036e-06
4.9662053e-06
2.0603797e-06
1.6408203e-07
1.3075143e-09
8.6829194e-12
2.9618108e-13
6.3406737e-14
5.7035139e-15
1.7089533e-16
3.3669959e-18
6.3129803e-20
1.0073127e-21
1.4104679e-23
1.9460207e-25
2.8059459e-27
3.6441822e-29
4.0727152e-31
3.8042189e-33
2.9264696e-35
3.9554169e-37
1.9431726e-37
1.1011482e-37
3.9923353e-38
1.0360019e-38
2.4651842e-39
3.9178589e-40
2.1260488e-41
3.7840593e-43
3.42393e-45
2.1614933e-47
1.0509027e-49
4.231621e-52
1.559953e-54
5.8137101e-57
2.2894605e-59
8.7428138e-62
5.6488739e-64
3.1168547e-62
3.2448395e-60
4.9069343e-58
6.2695702e-56
7.1650685e-54
7.5829483e-52
7.8297304e-50
8.4260433e-48
1.0779508e-45
1.9394897e-43
4.5464457e-41
2.5731931e-39
2.4180461e-38
1.1371035e-37
3.5585698e-37
5.8408931e-37
4.0287909e-35
5.7979205e-33
6.9223779e-31
6.9279143e-29
5.8854924e-27
4.3848208e-25
3.4760053e-23
2.8088974e-21
1.9347729e-19
1.1617829e-17
6.3585865e-16
1.6312978e-14
1.2129679e-13
2.7628522e-12
8.1417875e-11
4.9406075e-09
1.0890931e-06
2.8810425e-05
5.9491308e-05
4.0838272e-05
5.0811598e-06
2.6428343e-14
7.5665781e-13
1.289265e-11
1.2545115e-11
7.6799592e-12
1.5297828e-12
2.7656745e-13
2.3482908e-13
3.0890407e-13
2.4888181e-12
2.4866081e-12
7.8354355e-12
1.3349567e-10
3.0486428e-10
1.9636658e-10
7.1879898e-11
6.3322127e-11
5.6099949e-11
1.7072972e-11
2.7684384e-12
3.3629697e-13
5.3071682e-14
4.8422868e-17
9.0723551e-16
6.8621814e-06
2.0336326e-05
2.1620563e-05
2.032389e-05
6.3829043e-06
1.1294701e-08
2.8744686e-10
8.9931533e-12
3.8314772e-13
4.406376e-14
3.8214489e-15
1.1543702e-16
1.9476363e-18
3.1617429e-20
4.8071439e-22
6.608514e-24
9.4170331e-26
1.2112112e-27
1.2996811e-29
1.1323575e-31
8.007418e-34
2.2364266e-35
1.6131042e-35
7.5123515e-36
2.654919e-36
6.9138098e-37
1.6546751e-37
2.7442835e-38
1.5526518e-39
2.7960329e-41
2.5082238e-43
1.5718236e-45
7.5903776e-48
3.0202458e-50
1.0850782e-52
3.8658271e-55
1.4400514e-57
5.2504587e-60
3.1968563e-62
1.7239752e-60
1.8362961e-58
2.7897985e-56
3.5867956e-54
4.1335939e-52
4.425736e-50
4.650263e-48
5.1852725e-46
7.0920436e-44
1.316273e-41
2.9092614e-39
1.7362685e-37
1.570555e-36
7.1856194e-36
2.2503337e-35
2.6281628e-35
6.2044468e-34
9.6475678e-32
1.2404879e-29
1.3009368e-27
1.1417919e-25
9.42826e-24
8.5356658e-22
6.6589792e-20
4.6727802e-18
2.8830491e-16
8.6012931e-15
8.2725728e-14
1.7690274e-12
4.8972215e-11
1.3511203e-09
4.2442682e-08
2.2376022e-05
7.5905295e-05
7.5904388e-05
7.590511e-05
4.8007437e-05
1.4887986e-13
2.5757206e-11
3.3820294e-10
4.688315e-10
3.2349876e-10
1.0875056e-10
1.7382163e-11
1.277096e-11
1.0450788e-11
1.4837228e-10
1.0581716e-10
4.8749171e-10
6.672095e-09
9.1661213e-09
5.261144e-09
1.6443544e-09
1.7421597e-09
1.7986335e-09
7.1930739e-10
1.2914733e-10
1.2172321e-11
8.0519978e-13
9.0729377e-16
6.7298643e-08
2.1807375e-05
2.1784219e-05
2.176295e-05
2.1639874e-05
2.1513928e-05
7.1822509e-06
7.9978272e-09
2.9921614e-10
1.0068382e-11
4.5943389e-13
2.7228563e-14
1.8050556e-15
4.612497e-17
7.1939776e-19
1.0598138e-20
1.5234163e-22
2.218102e-24
2.7748122e-26
2.809617e-28
2.2296407e-30
1.6965425e-32
3.679182e-33
1.1511687e-33
4.6124872e-34
1.6181396e-34
4.2296024e-35
1.0213185e-35
1.7680924e-36
1.044995e-37
1.924453e-39
1.7248083e-41
1.0789982e-43
5.1973686e-46
2.0515642e-48
7.220333e-51
2.467749e-53
8.6913089e-56
3.0124442e-58
1.7159918e-60
9.0613006e-59
9.8838566e-57
1.5064759e-54
1.9462695e-52
2.2570604e-50
2.4405512e-48
2.6062564e-46
2.999931e-44
4.3210657e-42
8.4098574e-40
1.7847494e-37
1.0796088e-35
9.3652576e-35
4.1150314e-34
1.320432e-33
2.9741544e-33
4.5177971e-33
5.2231565e-31
8.8073976e-29
1.2234005e-26
1.4024191e-24
1.2810147e-22
9.6487841e-21
6.2705332e-19
4.0597995e-17
2.3268664e-15
4.2791921e-14
1.9765251e-13
4.5395529e-12
1.2146412e-10
3.0397171e-09
5.7145348e-08
3.2055813e-05
7.5900955e-05
7.590634e-05
7.5900955e-05
6.2665195e-05
9.2073178e-12
1.2887367e-09
9.4885595e-09
1.3619785e-08
1.0766835e-08
1.0737219e-08
4.5621678e-09
2.3159102e-08
1.1585252e-08
7.7090239e-09
4.9014069e-09
1.8968605e-08
1.9157104e-07
2.3303328e-07
1.2347188e-07
4.0906162e-08
4.9735713e-08
4.7968728e-08
2.516695e-08
6.2667087e-09
1.0341452e-09
4.0184978e-11
3.98446e-14
8.0794427e-06
2.1773741e-05
2.176295e-05
1.4711968e-05
1.6891082e-05
2.1515435e-05
1.6870617e-05
1.0743252e-06
1.6554742e-09
6.6297575e-11
2.8174638e-12
1.2079982e-13
1.9632429e-14
8.1831767e-16
1.3905025e-17
2.1186271e-19
2.740312e-21
2.6492758e-23
1.9410674e-25
1.6380405e-27
1.1815456e-29
3.5595572e-31
2.856763e-31
7.1811672e-32
2.5958323e-32
9.0486683e-33
2.3848345e-33
5.8364421e-34
1.0545947e-34
6.5395536e-36
1.2444131e-37
1.1211372e-39
7.0305265e-42
3.3920601e-44
1.3335688e-46
4.6194294e-49
1.520677e-51
5.0639703e-54
1.6618576e-56
8.7841425e-59
4.5420496e-57
5.0808176e-55
7.7579985e-53
1.005304e-50
1.1711002e-48
1.2761027e-46
1.3844374e-44
1.6454534e-42
2.4924371e-40
5.0493304e-38
1.072254e-35
6.2386876e-34