/*--------------------------------*- C++ -*----------------------------------*\
  =========                 |
  \\      /  F ield         | OpenFOAM: The Open Source CFD Toolbox
   \\    /   O peration     | Website:  https://openfoam.org
    \\  /    A nd           | Version:  9
     \\/     M anipulation  |
\*---------------------------------------------------------------------------*/
FoamFile
{
    format      ascii;
    class       volScalarField;
    location    "0.42";
    object      p_rgh;
}
// * * * * * * * * * * * * * * * * * * * * * * * * * * * * * * * * * * * * * //

dimensions      [1 -1 -2 0 0 0 0];

internalField   nonuniform List<scalar> 
10000
(
0
-0.012932951
-0.044291888
-0.087813069
-0.14546907
-0.21735309
-0.30338084
-0.40370889
-0.51817049
-0.6469358
-0.78990823
-0.94701066
-1.1182643
-1.3034485
-1.5024072
-1.7149325
-1.9406305
-2.1791014
-2.4298426
-2.692199
-2.9654828
-3.2488691
-3.5413227
-3.8417092
-4.1487957
-4.4611428
-4.7769769
-5.0945308
-5.4121904
-5.7274029
-6.0388352
-6.344963
-6.6436215
-6.9328512
-7.2108747
-7.4760557
-7.7269698
-7.9624273
-8.1814598
-8.3833822
-8.5678274
-8.7347484
-8.8843915
-9.0172585
-9.1340122
-9.2354609
-9.3225518
-9.39626
-9.4575688
-9.5074025
-9.5465043
-9.5756048
-9.5953364
-9.6062817
-9.6088313
-9.6033469
-9.5901695
-9.569636
-9.5420781
-9.5079304
-9.4676969
-9.4218818
-9.3710856
-9.3160003
-9.2572047
-9.1953529
-9.1311822
-9.0655214
-8.9977873
-8.9288339
-8.8588592
-8.7884788
-8.718119
-8.6485376
-8.5800778
-8.5130964
-8.4479007
-8.3847249
-8.3238007
-8.2653202
-8.2094313
-8.1562964
-8.1060186
-8.0586976
-8.0143899
-7.9731104
-7.9348634
-7.899666
-7.8675053
-7.8383691
-7.8121632
-7.7888639
-7.7683941
-7.7507672
-7.7359412
-7.7238801
-7.7144562
-7.7075738
-7.7008397
-7.702234
0.01051091
-0.0025421232
-0.034050577
-0.077561175
-0.13527837
-0.2071244
-0.29327901
-0.3935244
-0.50806715
-0.63686675
-0.77984786
-0.93708713
-1.1083961
-1.2936655
-1.4927963
-1.7054823
-1.931412
-2.1701984
-2.4212858
-2.6840907
-2.9579415
-3.2419668
-3.5351662
-3.8364298
-4.1444653
-4.4578119
-4.7748752
-5.0939663
-5.4132636
-5.7306942
-6.0444175
-6.3526674
-6.6533973
-6.9446458
-7.2245922
-7.4915179
-7.7438926
-7.9804729
-8.2003176
-8.4026842
-8.5871369
-8.7536896
-8.9026446
-9.0345332
-9.1500808
-9.2501813
-9.3359059
-9.4083087
-9.468387
-9.5171314
-9.5553652
-9.5838191
-9.6030604
-9.6136245
-9.615881
-9.6101337
-9.5966644
-9.5757918
-9.5478117
-9.5131438
-9.4723251
-9.4258998
-9.3744603
-9.318705
-9.2592984
-9.196835
-9.1320117
-9.0654201
-8.997211
-8.9279693
-8.8581176
-8.7879603
-8.7180368
-8.6488493
-8.5807795
-8.5141594
-8.4492943
-8.3864318
-8.3257965
-8.2675763
-8.2119198
-8.1589918
-8.1088942
-8.0617049
-8.0174719
-7.9762074
-7.937967
-7.902758
-7.8705725
-7.8413571
-7.8150484
-7.791638
-7.7710566
-7.7533286
-7.7384517
-7.7263297
-7.7168916
-7.7100239
-7.7033184
-7.7049129
0.040413497
0.027172563
-0.004400674
-0.047945325
-0.10556756
-0.17749979
-0.26354133
-0.36386052
-0.47844915
-0.6072563
-0.75042135
-0.90783767
-1.0794191
-1.2651262
-1.4647503
-1.6780683
-1.9048201
-2.1445753
-2.3968536
-2.6611142
-2.9366539
-3.222618
-3.5180629
-3.8218637
-4.132731
-4.4492538
-4.7698672
-5.0928318
-5.4163143
-5.7382556
-6.0566466
-6.369489
-6.674711
-6.9702963
-7.2542918
-7.5248838
-7.7804596
-8.0196545
-8.2414229
-8.4450187
-8.6300623
-8.7965798
-8.9448876
-9.0755864
-9.1895435
-9.2877907
-9.3715373
-9.441956
-9.5001445
-9.547188
-9.5839423
-9.6111705
-9.629363
-9.6389337
-9.6402331
-9.6335364
-9.6190083
-9.5968957
-9.5674921
-9.5312964
-9.4888076
-9.4406227
-9.3873486
-9.3296713
-9.268396
-9.204123
-9.1375398
-9.069142
-8.9992398
-8.9284158
-8.8572804
-8.7862019
-8.7155491
-8.6457462
-8.577165
-8.5101179
-8.4448951
-8.3817511
-8.3208831
-8.2624671
-8.2066613
-8.1536426
-8.1034623
-8.0561776
-8.0118799
-7.9705724
-7.9323172
-7.8970595
-7.8648466
-7.8356125
-7.809262
-7.7858173
-7.7652677
-7.7475623
-7.7327616
-7.7207314
-7.7114031
-7.7047412
-7.6982515
-7.7004117
0.082156447
0.068954142
0.037250804
-0.0062334431
-0.063945
-0.13574511
-0.221798
-0.32214545
-0.43672181
-0.56568192
-0.7089996
-0.86663982
-1.0386311
-1.2248704
-1.4252027
-1.6394621
-1.8673475
-2.1084982
-2.3625128
-2.6288377
-2.9067802
-3.1955694
-3.4942676
-3.8017485
-4.1167591
-4.4379003
-4.7635677
-5.091982
-5.4212226
-5.7492893
-6.0740531
-6.393307
-6.7048669
-7.0065555
-7.2962433
-7.5719515
-7.8319181
-8.0746273
-8.298898
-8.5039547
-8.6894273
-8.8553818
-9.0022174
-9.1306716
-9.2418332
-9.3369674
-9.4174518
-9.4846541
-9.5398792
-9.5843211
-9.618858
-9.6442374
-9.660938
-9.6693092
-9.6695296
-9.6617234
-9.6459842
-9.6224617
-9.591411
-9.5533463
-9.5087821
-9.4583425
-9.4027067
-9.3426736
-9.279068
-9.2125841
-9.1438481
-9.0734961
-9.0020218
-8.9298062
-8.8573838
-8.7851689
-8.7135688
-8.6429615
-8.573714
-8.5061314
-8.440456
-8.3769222
-8.3157198
-8.2570396
-8.2010226
-8.1478331
-8.0975277
-8.0501356
-8.0057427
-7.9643688
-7.9260546
-7.8907789
-7.8585065
-7.8292237
-7.8028632
-7.7794351
-7.7589075
-7.7412834
-7.7265086
-7.7145551
-7.705408
-7.6989634
-7.6928306
-7.6960446
0.13745037
0.12436437
0.092727302
0.049169512
-0.0084011387
-0.080175831
-0.16620257
-0.26645996
-0.38111291
-0.51017448
-0.65364906
-0.81163097
-0.98410003
-1.1709837
-1.3722196
-1.5876347
-1.8169795
-2.0599793
-2.3162366
-2.5852263
-2.8663411
-3.1588401
-3.4617997
-3.7741531
-4.0946823
-4.4219648
-4.754372
-5.0901223
-5.4272557
-5.7636274
-6.0969626
-6.4249113
-6.7450667
-7.0550434
-7.3525002
-7.6352049
-7.9011655
-8.1486581
-8.3763417
-8.5833872
-8.7694093
-8.9344961
-9.0791996
-9.2044795
-9.3117047
-9.4024414
-9.4783538
-9.5411071
-9.5922859
-9.633246
-9.664907
-9.6879851
-9.7028828
-9.7098125
-9.7087641
-9.6996395
-9.6823356
-9.6569692
-9.6237218
-9.5830993
-9.5356369
-9.4820587
-9.4231328
-9.3598458
-9.2930702
-9.2235564
-9.1519652
-9.0790138
-9.0051946
-8.9310859
-8.8570046
-8.783356
-8.7105331
-8.6388951
-8.5687904
-8.500497
-8.4342057
-8.37015
-8.3085211
-8.2494991
-8.193206
-8.1397734
-8.0892525
-8.041714
-7.9972169
-7.9557801
-7.9174024
-7.8820653
-7.8497344
-7.8204384
-7.7940721
-7.770671
-7.7501674
-7.7325756
-7.7178559
-7.7059936
-7.6970176
-7.6907646
-7.6847413
-7.6880217
0.20664783
0.19382428
0.16214311
0.11878934
0.061290974
-0.010415632
-0.096290885
-0.19651281
-0.31115229
-0.44024758
-0.58393495
-0.74226918
-0.91525722
-1.1029195
-1.3052004
-1.5219729
-1.7530977
-1.9983323
-2.2573077
-2.5295891
-2.8146325
-3.1117271
-3.4200149
-3.7384968
-4.0659697
-4.4010015
-4.741971
-5.0870622
-5.4342122
-5.7811396
-6.1254278
-6.46452
-6.7957301
-7.1164105
-7.4239266
-7.7156798
-7.9893559
-8.2429789
-8.4750113
-8.6845056
-8.8710423
-9.0347616
-9.1764173
-9.2972706
-9.3990572
-9.483773
-9.5535098
-9.6103489
-9.6562093
-9.6926779
-9.7207776
-9.7411655
-9.7541191
-9.7596032
-9.7572959
-9.7468041
-9.7277917
-9.7002786
-9.6643815
-9.6205261
-9.5693606
-9.5117433
-9.4486588
-9.3811394
-9.3102787
-9.2369295
-9.1618641
-9.0857897
-9.0092577
-8.9325745
-8.8563379
-8.7808864
-8.7065392
-8.6335842
-8.5623231
-8.4930352
-8.4259316
-8.3611938
-8.2989902
-8.2394858
-8.1828171
-8.1290592
-8.0782858
-8.0305608
-7.9859427
-7.9443888
-7.905909
-7.8705168
-7.8381535
-7.8088272
-7.7824741
-7.7590522
-7.7386072
-7.7210782
-7.7064194
-7.6946772
-7.6858546
-7.6798011
-7.673911
-7.6775967
0.28977986
0.2770628
0.24557222
0.20234553
0.14499469
0.073517865
-0.012233008
-0.11233434
-0.2268613
-0.35599576
-0.49985206
-0.65850582
-0.8320615
-1.0205598
-1.2239808
-1.4423092
-1.6754612
-1.9232409
-2.1853817
-2.4615326
-2.7511937
-3.0537299
-3.3683855
-3.6942116
-4.030023
-4.3744235
-4.7257849
-5.082233
-5.4416219
-5.8015449
-6.1593754
-6.5122861
-6.8573037
-7.1914139
-7.511557
-7.8147012
-8.098094
-8.3594179
-8.5968765
-8.8093208
-8.9962639
-9.1579297
-9.295338
-9.410152
-9.5045901
-9.5812253
-9.6427616
-9.6918828
-9.7309593
-9.7618997
-9.7858186
-9.8033037
-9.8143978
-9.8186698
-9.8153675
-9.8037199
-9.7830696
-9.7531803
-9.7141147
-9.6662399
-9.6104323
-9.5477039
-9.4792881
-9.4064894
-9.3305695
-9.2525499
-9.1732536
-9.0933809
-9.013444
-8.9340277
-8.8553555
-8.7777901
-8.701616
-8.6270732
-8.5544269
-8.4839468
-8.4158059
-8.3501895
-8.2872596
-8.2271519
-8.1699973
-8.1158635
-8.0648029
-8.0168463
-7.9720297
-7.930341
-7.8917714
-7.8563045
-7.8239031
-7.79453
-7.7681912
-7.7448049
-7.7243747
-7.7068588
-7.6922897
-7.6806457
-7.6719546
-7.6661365
-7.6603929
-7.6645518
0.38673998
0.37423564
0.34278767
0.29976063
0.2427308
0.17149191
0.08598899
-0.013855953
-0.12823901
-0.25733012
-0.40126394
-0.56021352
-0.73430918
-0.92362585
-1.1282545
-1.3482521
-1.5835888
-1.8341809
-2.0998704
-2.3803654
-2.6752536
-2.9840281
-3.3060228
-3.6403446
-3.9858726
-4.3412579
-4.704878
-5.0748078
-5.44883
-5.824399
-6.1986247
-6.5683654
-6.930309
-7.2809557
-7.6166906
-7.9339605
-8.2294605
-8.5003736
-8.7445021
-8.9604081
-9.1475239
-9.3061977
-9.4377722
-9.544429
-9.6290288
-9.6949419
-9.7457335
-9.7848885
-9.8154348
-9.8396555
-9.8588578
-9.8734889
-9.883168
-9.8868701
-9.8832715
-9.8710362
-9.8490066
-9.8165825
-9.7737848
-9.7210317
-9.6593811
-9.5902928
-9.5152434
-9.4359084
-9.3538195
-9.2701766
-9.1858665
-9.1016079
-9.0179581
-8.9352993
-8.8538599
-8.7738704
-8.6955897
-8.6192566
-8.545045
-8.4731721
-8.403816
-8.3371687
-8.273357
-8.2125365
-8.1548011
-8.1002192
-8.0488052
-8.0005635
-7.9555399
-7.9136934
-7.8750177
-7.8394808
-7.8070283
-7.7776546
-7.7513016
-7.7279227
-7.7074912
-7.6899968
-7.6754643
-7.6638778
-7.6553071
-7.649723
-7.6441252
-7.6486851
0.49753905
0.48503042
0.45375752
0.41110199
0.35440346
0.28355022
0.19847005
0.098958111
-0.015157944
-0.14405759
-0.28798172
-0.44712883
-0.62165517
-0.81174378
-1.0175678
-1.2392474
-1.4768715
-1.7304796
-1.9999955
-2.2852218
-2.585888
-2.901619
-3.2318408
-3.5757594
-3.9323587
-4.3003541
-4.6781453
-5.0637951
-5.455018
-5.8491121
-6.2429031
-6.6328843
-7.0152988
-7.3860677
-7.7409291
-8.0756276
-8.3861143
-8.6688661
-8.921116
-9.1410505
-9.3279987
-9.4824489
-9.6060996
-9.7017796
-9.7732659
-9.8250242
-9.8617705
-9.8880809
-9.9079146
-9.9241007
-9.9381849
-9.9503579
-9.9596507
-9.9641467
-9.9615459
-9.9496697
-9.9267555
-9.8917751
-9.8446168
-9.7859319
-9.7170446
-9.6399169
-9.5566458
-9.4692643
-9.3796751
-9.2893653
-9.1993077
-9.1101491
-9.0223246
-8.9361108
-8.8516166
-8.7689904
-8.6884021
-8.6100143
-8.5340125
-8.4605618
-8.3898362
-8.3220102
-8.2572121
-8.1955785
-8.1371922
-8.0820702
-8.0302631
-7.981707
-7.9364425
-7.8944335
-7.8556477
-7.8200583
-7.7875777
-7.7581563
-7.7317598
-7.7083685
-7.6879032
-7.6703995
-7.6558658
-7.6442787
-7.6357681
-7.6302768
-7.6247443
-7.6301098
0.62107075
0.60927625
0.57845502
0.53622194
0.4800295
0.40974763
0.32518616
0.22616976
0.11251142
-0.01605921
-0.15980894
-0.31896551
-0.49378085
-0.68452014
-0.89142409
-1.114737
-1.3546878
-1.6114003
-1.8848989
-2.1751526
-2.4820494
-2.8053333
-3.1445676
-3.4991126
-3.8680821
-4.2502871
-4.6442
-5.0479187
-5.4591001
-5.8748574
-6.2917301
-6.7058127
-7.1127953
-7.507939
-7.886188
-8.2423357
-8.5713146
-8.8686415
-9.1307933
-9.3554689
-9.5418099
-9.6904175
-9.8033948
-9.8844095
-9.9384575
-9.9714685
-9.9897513
-9.9994301
-10.005785
-10.012459
-10.02132
-10.032107
-10.04289
-10.050406
-10.050932
-10.041035
-10.0181
-9.9806276
-9.9283892
-9.8623318
-9.7843631
-9.6970956
-9.6034645
-9.5061935
-9.4076578
-9.3095934
-9.2130558
-9.1185577
-9.026283
-8.9362646
-8.8485231
-8.7630646
-8.6799798
-8.5993758
-8.5213721
-8.4461108
-8.3738255
-8.3046866
-8.2388025
-8.1762619
-8.1171237
-8.0614052
-8.0091067
-7.9602341
-7.9147349
-7.8725764
-7.8337024
-7.7980384
-7.7655172
-7.7360336
-7.7096009
-7.6861476
-7.6656454
-7.6480961
-7.6334907
-7.6218389
-7.6133099
-7.6077427
-7.6025306
-7.6080955
0.75814873
0.74721816
0.71670692
0.67511902
0.61963317
0.5500203
0.46615477
0.36784832
0.25482573
0.126794
-0.01652997
-0.17547248
-0.35036372
-0.5415275
-0.7493314
-0.97416262
-1.2163461
-1.4761137
-1.753653
-2.0491117
-2.3625311
-2.6938127
-3.0427183
-3.4088049
-3.7913501
-4.1893197
-4.60133
-5.0255598
-5.4596312
-5.9005022
-6.3444231
-6.787003
-7.2232994
-7.6478451
-8.0546147
-8.4371697
-8.7890465
-9.1044132
-9.3787405
-9.6090917
-9.7942718
-9.934934
-10.033672
-10.095181
-10.126003
-10.134057
-10.127915
-10.115908
-10.105188
-10.10073
-10.104686
-10.116158
-10.13163
-10.145751
-10.152699
-10.147289
-10.125703
-10.085854
-10.027497
-9.9521021
-9.8624576
-9.7622816
-9.6556057
-9.5461892
-9.4370734
-9.3301925
-9.2265209
-9.1263122
-9.0294397
-8.9355871
-8.8445435
-8.7561648
-8.6704079
-8.587342
-8.5070799
-8.4298323
-8.3558121
-8.2852001
-8.2180741
-8.1545188
-8.094514
-8.0381528
-7.9853735
-7.9361783
-7.8904766
-7.8481764
-7.8091853
-7.7734266
-7.7408421
-7.7113011
-7.6848256
-7.6613202
-7.6407331
-7.6230849
-7.6083555
-7.5965738
-7.5879025
-7.5820015
-7.5774202
-7.5824396
0.90902812
0.89862842
0.86855336
0.82779294
0.77311039
0.70434683
0.62139429
0.52398877
0.41184406
0.28464496
0.14202415
-0.016413573
-0.19105912
-0.38235356
-0.59080753
-0.81691019
-1.0610852
-1.3237363
-1.6052423
-1.9059117
-2.2259639
-2.565527
-2.924604
-3.302984
-3.7001762
-4.1153858
-4.5474496
-4.9946872
-5.4547581
-5.9245398
-6.399946
-6.8760491
-7.3472043
-7.8071154
-8.248672
-8.6638507
-9.0442019
-9.3820313
-9.6714886
-9.9087951
-10.092227
-10.222354
-10.30225
-10.337799
-10.337598
-10.312299
-10.273617
-10.233044
-10.200551
-10.183042
-10.1831
-10.198793
-10.22419
-10.250667
-10.269135
-10.27185
-10.253464
-10.211239
-10.14522
-10.057747
-9.9528533
-9.8358781
-9.7126257
-9.588368
-9.4668466
-9.3501037
-9.2388807
-9.1329644
-9.0316238
-8.9340968
-8.8398269
-8.748445
-8.6598188
-8.5740469
-8.4912864
-8.411785
-8.3358082
-8.2635278
-8.1950005
-8.1302726
-8.0693901
-8.0123316
-7.9590839
-7.9095529
-7.8636351
-7.8211941
-7.7821053
-7.7462619
-7.7136014
-7.684045
-7.6575061
-7.6339063
-7.6131926
-7.5953852
-7.5804613
-7.5684644
-7.5596346
-7.5529892
-7.5494147
-7.5531821
1.0737309
1.0632671
1.0340019
0.99413408
0.94042719
0.87270199
0.79083748
0.69458113
0.58362883
0.45757752
0.31600118
0.15846051
-0.015549982
-0.2066137
-0.4153366
-0.64230504
-0.88810682
-1.1533398
-1.4385518
-1.7442311
-2.0708419
-2.418785
-2.7883277
-3.1795449
-3.5922729
-4.0260572
-4.4800415
-4.9527797
-5.4420934
-5.9449104
-6.4568066
-6.9722503
-7.4847144
-7.987069
-8.4711348
-8.9268382
-9.3428087
-9.7087496
-10.017136
-10.263214
-10.444472
-10.561025
-10.616221
-10.617289
-10.575564
-10.505446
-10.423028
-10.344343
-10.283519
-10.250543
-10.248901
-10.27488
-10.318683
-10.366437
-10.403991
-10.419902
-10.407016
-10.362196
-10.286067
-10.182374
-10.057163
-9.918034
-9.7734881
-9.6311641
-9.4954706
-9.3680767
-9.2493025
-9.1382389
-9.0330634
-8.9322368
-8.8348052
-8.740259
-8.6484879
-8.5596575
-8.4740641
-8.3920334
-8.3138241
-8.2396188
-8.1695341
-8.1035438
-8.0417062
-7.9839498
-7.930223
-7.8803692
-7.834258
-7.7916764
-7.7524996
-7.7166119
-7.6839153
-7.6542997
-7.6276704
-7.6039385
-7.5830739
-7.5650698
-7.5499002
-7.5375716
-7.5284673
-7.5214672
-7.5180024
-7.520631
1.2511501
1.2417179
1.2131162
1.1741376
1.1215282
1.0549655
0.97441501
0.87961006
0.77017274
0.64563909
0.50554855
0.34936157
0.17643389
-0.013908706
-0.22236281
-0.44966693
-0.69659818
-0.96392464
-1.2523756
-1.5626773
-1.8955736
-2.2517577
-2.6317991
-3.0361341
-3.465025
-3.9184611
-4.3960172
-4.8966659
-5.418574
-5.958836
-6.5129664
-7.0746131
-7.6359198
-8.1889227
-8.7249104
-9.2313204
-9.6923183
-10.093578
-10.42576
-10.683285
-10.862379
-10.962008
-10.985252
-10.940684
-10.843245
-10.712545
-10.570762
-10.440379
-10.341798
-10.290012
-10.290527
-10.337061
-10.413173
-10.495991
-10.56347
-10.599356
-10.594621
-10.546261
-10.456102
-10.33003
-10.177128
-10.008232
-9.8360621
-9.6720761
-9.5208205
-9.3826555
-9.2571385
-9.1421949
-9.0343111
-8.9308079
-8.830329
-8.7323658
-8.6369757
-8.54459
-8.4556617
-8.370646
-8.2898687
-8.213514
-8.1416321
-8.0742871
-8.0114282
-7.9529677
-7.8987898
-7.848642
-7.802346
-7.7596745
-7.7204619
-7.6845452
-7.651835
-7.6221573
-7.5954118
-7.5715159
-7.5504517
-7.5321706
-7.5166971
-7.5040771
-7.4944645
-7.4870213
-7.4834648
-7.4849318
1.442052
1.4327182
1.4061602
1.3676372
1.3162353
1.2509982
1.1720299
1.0789755
0.9714202
0.84886879
0.71075575
0.55642941
0.38515563
0.19617094
-0.011357036
-0.23834401
-0.48573303
-0.75446212
-1.0454913
-1.3598279
-1.6984957
-2.0624903
-2.4527515
-2.8701574
-3.3154684
-3.789232
-4.2916609
-4.8224102
-5.38027
-5.9628621
-6.5658754
-7.1820703
-7.8011992
-8.4141141
-9.0130119
-9.583312
-10.101913
-10.547642
-10.909875
-11.182857
-11.360771
-11.44027
-11.422864
-11.317953
-11.145473
-10.93242
-10.709342
-10.507628
-10.357115
-10.281464
-10.290518
-10.374661
-10.505847
-10.645181
-10.758079
-10.822312
-10.828109
-10.773888
-10.66343
-10.505753
-10.314552
-10.105134
-9.8967388
-9.7081934
-9.5408218
-9.3924012
-9.2622912
-9.1460627
-9.0371714
-8.9316363
-8.8279393
-8.7258924
-8.62611
-8.5293448
-8.4363655
-8.3477618
-8.2639506
-8.1851172
-8.111274
-8.0424522
-7.9785704
-7.9194371
-7.8648091
-7.8144144
-7.7680103
-7.7253337
-7.6861291
-7.6502316
-7.617503
-7.587753
-7.5608537
-7.536741
-7.5153722
-7.4967612
-7.4809164
-7.4678823
-7.4577258
-7.4497637
-7.4459227
-7.4461703
1.6464169
1.6370754
1.6119411
1.5740151
1.5244223
1.4605925
1.3834568
1.2925101
1.1872875
1.0672215
0.93162017
0.77976008
0.610852
0.42397856
0.21814377
-0.0077122501
-0.2546924
-0.52395448
-0.81671698
-1.1342579
-1.477884
-1.8489304
-2.2487637
-2.6787623
-3.1402522
-3.6344847
-4.1625684
-4.7251861
-5.3221437
-5.9520813
-6.611818
-7.2935814
-7.982385
-8.6641353
-9.338157
-9.9907462
-10.583172
-11.084358
-11.484
-11.778634
-11.958655
-12.016367
-11.948612
-11.763616
-11.489428
-11.164094
-10.829192
-10.527283
-10.302212
-10.193619
-10.22172
-10.372344
-10.59671
-10.826072
-11.005578
-11.107056
-11.124185
-11.059528
-10.919063
-10.715631
-10.470443
-10.204614
-9.9475686
-9.7357528
-9.5546299
-9.3971801
-9.2658893
-9.1532244
-9.0455413
-8.9378716
-8.8298961
-8.722427
-8.6168319
-8.5144367
-8.4163701
-8.3233957
-8.2359925
-8.1543286
-8.0783599
-8.0080295
-7.9431016
-7.8833318
-7.828357
-7.7778079
-7.7313852
-7.6887661
-7.6496457
-7.6138184
-7.5810758
-7.5512472
-7.5241773
-7.4997321
-7.4780079
-7.4589449
-7.4425756
-7.429001
-7.4182105
-7.4096726
-7.4053952
-7.4044078
1.8638912
1.8544136
1.8304277
1.7936625
1.7450214
1.683276
1.6083868
1.5199944
1.4175861
1.3005251
1.1680653
1.0194117
0.85366276
0.66975772
0.46653519
0.24280199
-0.0027295353
-0.27146737
-0.56489539
-0.88453796
-1.2320018
-1.6089989
-2.0173304
-2.4588981
-2.9357055
-3.4498926
-4.0037238
-4.5993382
-5.2381604
-5.9204979
-6.6459095
-7.4092521
-8.1849632
-8.9420915
-9.7105568
-10.46681
-11.154357
-11.720222
-12.162842
-12.489327
-12.679581
-12.718508
-12.591299
-12.299
-11.885711
-11.407641
-10.919597
-10.474673
-10.136842
-9.9769393
-10.04039
-10.307844
-10.69175
-11.063762
-11.336471
-11.48033
-11.505286
-11.423286
-11.238742
-10.967411
-10.645624
-10.297452
-9.9763178
-9.7448556
-9.5594329
-9.3986576
-9.2737926
-9.1709533
-9.0662073
-8.9546641
-8.8396627
-8.7240271
-8.6101729
-8.5002014
-8.3956608
-8.2974173
-8.2058245
-8.1210236
-8.0427893
-7.9708949
-7.9049981
-7.8446763
-7.7894607
-7.7389186
-7.6926558
-7.6502196
-7.6112894
-7.5755801
-7.5428371
-7.5128598
-7.485549
-7.4607528
-7.4385265
-7.4188577
-7.4018159
-7.3875061
-7.3759136
-7.3667149
-7.361801
-7.3596765
2.0938875
2.0840804
2.0611866
2.0255778
1.9784296
1.9188261
1.8465181
1.7610872
1.6619867
1.5485304
1.4199398
1.2753165
1.1136194
0.9336536
0.73412917
0.51367401
0.27079248
0.0038433318
-0.28892189
-0.60928353
-0.95916917
-1.3406531
-1.7559455
-2.2074765
-2.698019
-3.2307364
-3.8092013
-4.4374596
-5.119745
-5.8594292
-6.6612387
-7.5305912
-8.4299646
-9.2740978
-10.150541
-11.02364
-11.849714
-12.474022
-12.963124
-13.337108
-13.553689
-13.586532
-13.393965
-12.955658
-12.348908
-11.664338
-10.970982
-10.320434
-9.8012459
-9.5476825
-9.6688995
-10.142365
-10.807859
-11.408229
-11.802466
-11.978276
-11.99836
-11.893413
-11.64675
-11.270961
-10.842146
-10.369838
-9.9562775
-9.6980225
-9.5466451
-9.4019834
-9.3030791
-9.2198565
-9.1120185
-8.9888137
-8.8610486
-8.7325005
-8.606722
-8.4866188
-8.3739406
-8.2694158
-8.1731341
-8.0849298
-8.004407
-7.9310521
-7.8643074
-7.8036154
-7.7483826
-7.6980522
-7.6520778
-7.6099932
-7.5713732
-7.5358357
-7.5030784
-7.4729349
-7.4452452
-7.4199568
-7.3970965
-7.376667
-7.3587531
-7.3434968
-7.3308964
-7.3208377
-7.3150243
-7.3118618
2.3357856
2.3256172
2.3037472
2.2694132
2.2240303
2.1668157
2.0973908
2.0153378
1.9200888
1.8109012
1.6869682
1.5472571
1.3906108
1.2157163
1.0211243
0.80524961
0.56640075
0.30271314
0.012178656
-0.30727088
-0.65785989
-1.0419717
-1.4622186
-1.9215506
-2.4234705
-2.9721965
-3.5727821
-4.2315893
-4.9567849
-5.7572852
-6.6453167
-7.6445233
-8.738211
-8.9207734
-8.5453907
-10.497077
-12.595922
-13.355041
-13.919258
-14.348477
-14.617406
-14.682064
-14.427981
-13.781058
-12.896323
-11.935863
-10.985259
-10.043026
-9.2112083
-8.7549782
-8.9580386
-9.8195776
-11.000685
-11.967687
-12.493836
-12.63988
-12.626066
-12.513851
-12.191287
-11.645995
-11.072596
-10.304864
-9.4261685
-9.0353899
-9.0540822
-9.3538751
-9.3858496
-9.3299199
-9.2017071
-9.0503426
-8.8984223
-8.7491744
-8.6062436
-8.4728514
-8.3502673
-8.2385659
-8.1372558
-8.0456699
-7.962992
-7.8884142
-7.8211339
-7.7603877
-7.7054174
-7.655555
-7.6101279
-7.5685691
-7.5303254
-7.4949938
-7.4622218
-7.4318333
-7.4036692
-7.3777244
-7.353981
-7.3325322
-7.3135166
-7.2970572
-7.2832074
-7.2720059
-7.2650385
-7.2606255
2.5889779
2.5785167
2.5575487
2.5246392
2.4812221
2.4266366
2.3604349
2.2821945
2.1913591
2.0871702
1.9687206
1.8348642
1.6843961
1.5158302
1.32754
1.1177289
0.88448817
0.6257379
0.33920717
0.022522342
-0.3267796
-0.71132054
-1.1340687
-1.5984312
-2.1084566
-2.6692623
-3.2872546
-3.9706942
-4.7330105
-5.5954008
-6.5758564
-7.6749188
-8.3476828
-6.5092816
-7.9259215
-9.4493225
-11.946189
-14.359866
-15.04582
-15.50722
-15.877804
-16.098882
-15.846562
-14.860471
-13.540889
-12.211265
-11.00146
-9.6750399
-8.2700186
-7.3399838
-7.6652039
-9.3242723
-11.467014
-12.994444
-13.569724
-13.471357
-13.372368
-13.366937
-12.98908
-12.145719
-11.379854
-10.071653
-9.3426301
-9.0331712
-8.9819056
-8.9110692
-9.5596298
-9.5805738
-9.3616396
-9.1456464
-8.9512208
-8.7715684
-8.6059112
-8.4563319
-8.3226945
-8.2035226
-8.0973418
-8.0027515
-7.9184035
-7.8430762
-7.7757266
-7.7153632
-7.6610572
-7.6119787
-7.5673925
-7.5265423
-7.4888048
-7.4536848
-7.4208395
-7.3900943
-7.3612952
-7.3344408
-7.3095586
-7.2867804
-7.2662958
-7.2483042
-7.2328822
-7.2202059
-7.211726
-7.2055575
2.8528539
2.8422018
2.8220125
2.7906081
2.7492848
2.697531
2.6349083
2.5609876
2.475167
2.3766686
2.2645573
2.1376462
1.9945674
1.8336686
1.6531874
1.4511066
1.225263
0.97332522
0.69275997
0.38091651
0.035131492
-0.34742128
-0.7699101
-1.2359628
-1.7499261
-2.3176367
-2.9466799
-3.6469094
-4.4389195
-5.3583796
-6.410959
-7.5630701
-8.0302836
-7.0725847
-8.6400177
-10.132674
-12.592414
-15.679855
-16.327853
-16.728046
-17.289829
-17.976344
-18.011192
-16.363769
-14.252611
-12.382676
-11.139129
-9.4414826
-6.9162679
-4.7554785
-5.259724
-8.5968612
-12.594738
-14.989255
-15.298626
-14.316971
-14.082868
-14.659209
-14.353427
-12.89508
-11.525076
-9.9034203
-9.2413713
-9.5528932
-9.6197755
-8.8570659
-9.2876303
-9.9428661
-9.6044548
-9.2756684
-9.0129804
-8.7924899
-8.5996142
-8.4324453
-8.2880265
-8.1623442
-8.0523925
-7.9558226
-7.8706541
-7.7952991
-7.7285265
-7.6691387
-7.6159911
-7.5681328
-7.5246784
-7.4847092
-7.4475749
-7.4126926
-7.3797098
-7.3483959
-7.318705
-7.2906195
-7.2642478
-7.2397545
-7.2173963
-7.1974687
-7.1800611
-7.1655333
-7.1550827
-7.1462408
3.1270975
3.115964
3.0964294
3.0665015
3.0273582
2.9786522
2.9199412
2.8507765
2.7705815
2.6785672
2.5737249
2.454833
2.3204103
2.1686656
1.9976558
1.8051359
1.5886693
1.3456121
1.0731818
0.76847685
0.42861117
0.050614602
-0.36864354
-0.83266098
-1.3457011
-1.9138971
-2.5452794
-3.250814
-4.0620186
-5.0171345
-6.0733261
-7.2970479
-8.9908397
-9.8768676
-9.8353901
-11.582234
-16.283343
-17.051568
-17.975598
-18.152261
-18.80252
-20.408428
-21.148243
-18.976106
-14.853486
-11.941594
-11.668348
-10.042346
-5.2845562
0.48255536
0.13670185
-7.2352327
-15.235919
-19.028321
-18.160886
-14.391624
-14.166339
-17.030782
-17.08394
-13.815296
-10.683298
-8.3501287
-8.9038346
-8.850285
-9.6000022
-10.414805
-9.99878
-10.266162
-9.8458709
-9.4059055
-9.0619465
-8.7951233
-8.5759439
-8.3941004
-8.2420701
-8.1127864
-8.0014292
-7.9046649
-7.8200213
-7.7457059
-7.6803403
-7.6225796
-7.571171
-7.5250743
-7.4831092
-7.4442627
-7.4077907
-7.3730866
-7.3397818
-7.3076563
-7.2766716
-7.246914
-7.21857
-7.191851
-7.167142
-7.144807
-7.1249739
-7.1081881
-7.0954297
-7.0833495
3.4114493
3.3990538
3.3798833
3.3513642
3.3144686
3.2689845
3.2144437
3.1504466
3.0764602
2.9916843
2.8950762
2.7853492
2.6609382
2.5199681
2.3602612
2.1793165
1.9743736
1.742502
1.4805905
1.1854572
0.85398317
0.48318744
0.070217539
-0.38792663
-0.89484557
-1.455963
-2.0786648
-2.7740677
-3.5792651
-4.5338684
-5.5982182
-6.9159146
-8.7774643
-11.023434
-13.097645
-15.520655
-18.278016
-20.488971
-21.123105
-19.323774
-19.599734
-22.906753
-26.382282
-23.183472
-14.49663
-9.1213744
-13.223636
-13.0626
-3.8013583
9.98919
10.991452
-5.3056319
-21.887182
-27.508813
-23.270919
-10.531077
-11.476827
-22.309142
-23.521553
-14.239768
-7.3661764
-5.3676058
-7.8911948
-8.9669151
-10.281659
-11.296709
-11.385371
-10.697673
-10.038826
-9.4667631
-9.0573069
-8.7553487
-8.5200665
-8.3328511
-8.1805348
-8.0530458
-7.9441064
-7.8497497
-7.7674556
-7.695483
-7.6324769
-7.5771114
-7.528167
-7.4843118
-7.4441995
-7.4067032
-7.3709251
-7.336265
-7.3023133
-7.2689486
-7.2361559
-7.2041475
-7.1731924
-7.1436213
-7.1159672
-7.0906347
-7.0678589
-7.0483641
-7.0329489
-7.0171865
3.7044992
3.6902312
3.6712659
3.6441102
3.6094551
3.5672718
3.5171267
3.4586706
3.3914036
3.314558
3.2271112
3.1277409
3.0148158
2.8863336
2.7399156
2.5727609
2.3817503
2.1636258
1.9148335
1.6317985
1.3112058
0.95016816
0.54629621
0.09751201
-0.39829919
-0.94448313
-1.5462118
-2.212504
-2.9803509
-3.9031363
-4.9642473
-6.2567147
-8.0387836
-10.438169
-13.414755
-17.123334
-21.058571
-23.882463
-23.352675
-18.559895
-17.995314
-22.560947
-35.590749
-33.524062
-18.906127
-6.3897302
-14.248755
-18.569268
-4.7810969
26.105095
27.045447
-5.2416621
-38.812794
-42.047676
-21.328927
2.5181787
-13.418656
-37.676641
-39.684981
-10.850056
3.0181644
-2.2659903
-6.7831429
-8.7583184
-10.658844
-11.823003
-11.913156
-11.082426
-10.151888
-9.4325778
-8.966277
-8.6502371
-8.4186552
-8.2419594
-8.100952
-7.9831627
-7.8817426
-7.7929822
-7.7150082
-7.646654
-7.5869318
-7.5348161
-7.4891348
-7.4480355
-7.4100902
-7.3740595
-7.3389088
-7.3039659
-7.2688944
-7.2336196
-7.1983282
-7.1632907
-7.128911
-7.0957027
-7.0643225
-7.0352754
-7.0089401
-6.9862256
-6.9677314
-6.947812
4.0044031
3.988102
3.9693132
3.9434079
3.9109435
3.8720882
3.826494
3.773848
3.7137147
3.6454119
3.5679728
3.4801317
3.3802046
3.2660344
3.1350263
2.984101
2.8097025
2.6081536
2.375413
2.1071926
1.7999903
1.4509634
1.0582993
0.62132895
0.14040535
-0.3840958
-0.95260515
-1.5681295
-2.2588561
-3.0876179
-4.0735789
-5.2661976
-6.9093442
-9.2936766
-12.762635
-17.737548
-23.818297
-31.296629
-34.095787
-26.735966
-8.0986605
15.538055
-49.259817
-73.741215
-48.205506
11.485595
23.140202
29.776373
59.688309
134.34337
163.27285
106.18961
2.4301303
-33.901972
-0.22249218
-0.041884096
-50.52183
-78.818271
-50.061005
16.415295
26.058068
4.6758233
-7.2872352
-8.6811916
-11.431113
-12.446859
-12.062858
-10.990849
-9.9293897
-9.1814096
-8.7328846
-8.4529609
-8.2607446
-8.1189069
-8.0050612
-7.9066777
-7.8183516
-7.7382677
-7.6662346
-7.6024467
-7.5468576
-7.4988291
-7.4569097
-7.419103
-7.3836702
-7.3490981
-7.3142785
-7.278501
-7.2415571
-7.2035008
-7.1646732
-7.1255373
-7.086682
-7.0488353
-7.0127472
-6.9790645
-6.9484036
-6.9218791
-6.8999131
-6.8754728
4.3098629
4.2913262
4.2725893
4.2478181
4.217431
4.1818417
4.1407863
4.0940393
4.0412993
3.9820152
3.9153526
3.8401263
3.7546313
3.6566652
3.5433872
3.411351
3.256542
3.074656
2.8615042
2.6110337
2.3197311
1.9845504
1.6041922
1.179676
0.71464671
0.21496686
-0.31158937
-0.85591402
-1.4251827
-2.0681996
-2.8262942
-3.7318653
-4.9952046
-7.1689786
-11.280423
-18.785561
-29.083846
-39.378314
-36.542363
-57.095079
94.458499
134.82437
-43.587455
-95.367446
-125.26446
-654.27025
1559.1439
4996.8885
4051.3211
2208.5428
2017.3338
3896.7066
6124.3992
4141.6549
24.195716
-434.02735
-165.38178
-180.84764
-43.809334
136.25437
68.325184
-1.5203589
-12.307943
-12.750208
-14.709708
-13.931448
-12.171429
-10.495828
-9.3510352
-8.6754534
-8.3338682
-8.1564208
-8.049641
-7.9720972
-7.9027648
-7.8331471
-7.7623647
-7.6925666
-7.6268479
-7.5677997
-7.5167629
-7.4732711
-7.4356331
-7.4015567
-7.368823
-7.3355537
-7.3004708
-7.2629716
-7.2229919
-7.1808358
-7.1370465
-7.0923468
-7.0476232
-7.0037997
-6.9617914
-6.9222844
-6.8866963
-6.8555702
-6.8295148
-6.7998167
4.6196021
4.5985012
4.5796459
4.5558113
4.5272953
4.4947233
4.4579689
4.4169748
4.3716491
4.3216414
4.2663139
4.2045833
4.1348651
4.0549696
3.96186
3.8516906
3.7198501
3.5607412
3.372194
3.1423547
2.8694769
2.5495697
2.1814516
1.7675427
1.3148956
0.835974
0.34971648
-0.11611633
-0.53429488
-0.9066786
-1.249938
-1.5501539
-1.8591089
-2.7302252
-5.8956607
-16.090942
-39.126598
-55.750622
-39.582254
-78.05782
110.51214
-47.22422
619.57253
3896.278
5422.4753
4075.2972
4840.2808
5919.3549
5042.5772
3967.3561
3917.3948
5088.1912
6656.101
6397.829
3801.4192
1776.4035
2810.3601
2156.739
196.76584
416.42416
64.778649
-34.603653
-23.045254
-24.508754
-21.422715
-15.818369
-12.079793
-9.6465186
-8.4564519
-7.9416949
-7.7983912
-7.7925129
-7.8161041
-7.8288142
-7.8168167
-7.7806303
-7.7276129
-7.6665329
-7.605243
-7.5496998
-7.5027286
-7.4638809
-7.4309885
-7.4010441
-7.370955
-7.338412
-7.3020034
-7.2613006
-7.2165431
-7.1683687
-7.1176334
-7.0654381
-7.0129808
-6.9614843
-6.912222
-6.8663494
-6.8239498
-6.7873545
-6.7566874
-6.7211338
4.9321099
4.9080988
4.8890472