/*--------------------------------*- C++ -*----------------------------------*\
  =========                 |
  \\      /  F ield         | OpenFOAM: The Open Source CFD Toolbox
   \\    /   O peration     | Website:  https://openfoam.org
    \\  /    A nd           | Version:  9
     \\/     M anipulation  |
\*---------------------------------------------------------------------------*/
FoamFile
{
    format      ascii;
    class       volVectorField;
    location    "0.42";
    object      U;
}
// * * * * * * * * * * * * * * * * * * * * * * * * * * * * * * * * * * * * * //

dimensions      [0 1 -1 0 0 0 0];

internalField   nonuniform List<vector> 
10000
(
(-0.0015139393 0.0032355243 0)
(-0.0068991539 0.0033086069 0)
(-0.0090942958 0.0033780774 0)
(-0.012233559 0.0034786294 0)
(-0.015483062 0.0035771827 0)
(-0.018761221 0.0037042295 0)
(-0.022102949 0.0038389004 0)
(-0.025488888 0.0039808859 0)
(-0.028927339 0.0041260678 0)
(-0.032427626 0.0042671221 0)
(-0.035979646 0.0044035437 0)
(-0.039571507 0.0045292239 0)
(-0.043190568 0.0046391916 0)
(-0.046819234 0.0047253072 0)
(-0.050439144 0.0047811647 0)
(-0.054029769 0.0048004001 0)
(-0.057565597 0.0047790964 0)
(-0.06101674 0.0047112054 0)
(-0.064353174 0.0045899424 0)
(-0.067542481 0.0044114373 0)
(-0.070557275 0.0041722082 0)
(-0.073363096 0.0038743944 0)
(-0.075898306 0.0035211404 0)
(-0.078141556 0.0031027335 0)
(-0.080060754 0.0026355973 0)
(-0.081595906 0.0021149091 0)
(-0.082730603 0.0015446509 0)
(-0.08345172 0.00093194044 0)
(-0.083767857 0.00028121516 0)
(-0.083680741 -0.0003730091 0)
(-0.083139638 -0.00098717444 0)
(-0.082092542 -0.0015697947 0)
(-0.080524136 -0.0021258136 0)
(-0.078477615 -0.0026360109 0)
(-0.075970086 -0.0030971578 0)
(-0.072985244 -0.0035032465 0)
(-0.069587125 -0.00383777 0)
(-0.065800908 -0.0040585696 0)
(-0.061544359 -0.004161352 0)
(-0.056872806 -0.0042203338 0)
(-0.051849447 -0.0041883849 0)
(-0.046439569 -0.0040409116 0)
(-0.040664725 -0.0038212546 0)
(-0.034498231 -0.0035287396 0)
(-0.027942489 -0.003212254 0)
(-0.021035667 -0.0028965374 0)
(-0.013832129 -0.0026271197 0)
(-0.0064037988 -0.0023997403 0)
(0.0012025163 -0.0022320684 0)
(0.0089818852 -0.0021299049 0)
(0.016845779 -0.002110164 0)
(0.024699899 -0.00214795 0)
(0.032494845 -0.0022539079 0)
(0.040178001 -0.0024139044 0)
(0.047649434 -0.0026165177 0)
(0.054869838 -0.0028103856 0)
(0.061785717 -0.0030108944 0)
(0.068317582 -0.0031746757 0)
(0.074438207 -0.0032618094 0)
(0.08010342 -0.003291784 0)
(0.085295846 -0.0031832644 0)
(0.089961758 -0.0030062714 0)
(0.094094631 -0.0027155559 0)
(0.097645158 -0.0023448245 0)
(0.10058406 -0.0018593716 0)
(0.10290431 -0.0013090859 0)
(0.10455265 -0.00067733837 0)
(0.10556416 2.8983588e-05 0)
(0.10602818 0.00082796176 0)
(0.10606575 0.0016196248 0)
(0.1056025 0.0023098337 0)
(0.10454026 0.0029061142 0)
(0.10289878 0.0034468459 0)
(0.10071134 0.0039343049 0)
(0.098051038 0.0043749109 0)
(0.094993657 0.0047637856 0)
(0.091594204 0.0050922069 0)
(0.087906626 0.0053558312 0)
(0.08398019 0.0055488539 0)
(0.079855684 0.0056738559 0)
(0.075582534 0.0057355126 0)
(0.071205543 0.0057309888 0)
(0.066756772 0.0056664841 0)
(0.062271079 0.0055568022 0)
(0.05779048 0.0054081147 0)
(0.053342453 0.0052217474 0)
(0.048949024 0.0050103251 0)
(0.044634307 0.0047704743 0)
(0.040413381 0.0045211432 0)
(0.036295597 0.0042659846 0)
(0.032302624 0.0040140103 0)
(0.028440223 0.0037628271 0)
(0.024712408 0.0035255186 0)
(0.021113819 0.0032976157 0)
(0.017616315 0.0030866724 0)
(0.014262374 0.0028954129 0)
(0.010931858 0.0027342116 0)
(0.0079082891 0.0025778397 0)
(0.0055766607 0.0024765558 0)
(0.0004805209 0.002361338 0)
(-0.0014498909 0.0083660397 0)
(-0.0067699008 0.0085162831 0)
(-0.0089344797 0.0086449402 0)
(-0.012045773 0.008844906 0)
(-0.015269308 0.0090293187 0)
(-0.018512894 0.0092554547 0)
(-0.021841432 0.0094938108 0)
(-0.025218667 0.0097391757 0)
(-0.028659247 0.0099841593 0)
(-0.03216887 0.010221107 0)
(-0.035736259 0.01043956 0)
(-0.039353438 0.010623454 0)
(-0.043009704 0.010774596 0)
(-0.046688677 0.010868141 0)
(-0.050369911 0.010903776 0)
(-0.054029899 0.010866121 0)
(-0.057644217 0.010743081 0)
(-0.061187191 0.010524728 0)
(-0.064626219 0.01020409 0)
(-0.06792469 0.009772998 0)
(-0.071050347 0.0092213974 0)
(-0.073962974 0.0085564538 0)
(-0.076614639 0.0077756459 0)
(-0.078971034 0.0068643144 0)
(-0.080995643 0.0058377455 0)
(-0.082640303 0.0046933435 0)
(-0.083878448 0.0034346309 0)
(-0.084697113 0.0020747729 0)
(-0.085074666 0.00062936697 0)
(-0.084965506 -0.0008333453 0)
(-0.084358014 -0.0022748224 0)
(-0.083251609 -0.0036872113 0)
(-0.081606808 -0.0050652483 0)
(-0.079462138 -0.0063860952 0)
(-0.07685384 -0.0076296908 0)
(-0.073761246 -0.008800051 0)
(-0.07021835 -0.0098941598 0)
(-0.066261231 -0.010866222 0)
(-0.061909469 -0.011719676 0)
(-0.057180368 -0.012512512 0)
(-0.052042872 -0.013218845 0)
(-0.046531564 -0.013856631 0)
(-0.040683839 -0.014398249 0)
(-0.034469011 -0.014844765 0)
(-0.027906818 -0.015240427 0)
(-0.021022376 -0.015571158 0)
(-0.013846897 -0.015851416 0)
(-0.0064229538 -0.016101025 0)
(0.0011880854 -0.016272466 0)
(0.0089615525 -0.016382678 0)
(0.016831508 -0.016428653 0)
(0.024703618 -0.016403265 0)
(0.032521987 -0.016300805 0)
(0.0402317 -0.016088361 0)
(0.047758411 -0.015804726 0)
(0.055030268 -0.015404075 0)
(0.061991298 -0.014909499 0)
(0.068607965 -0.014264453 0)
(0.074808401 -0.01350564 0)
(0.080601521 -0.012635612 0)
(0.085922281 -0.011602668 0)
(0.090697564 -0.010463592 0)
(0.094951585 -0.0091678054 0)
(0.098637218 -0.0077779646 0)
(0.10171171 -0.006259276 0)
(0.10415518 -0.004661693 0)
(0.10595052 -0.0029699479 0)
(0.10712495 -0.0012004556 0)
(0.10766491 0.00063548437 0)
(0.10757515 0.0024531906 0)
(0.10689685 0.0041274326 0)
(0.10566565 0.0056408318 0)
(0.10389815 0.0069990009 0)
(0.10159737 0.0082161894 0)
(0.098831292 0.0093037801 0)
(0.095659833 0.010257445 0)
(0.092136822 0.011068291 0)
(0.08831865 0.011732475 0)
(0.084261103 0.012251875 0)
(0.080015035 0.012628129 0)
(0.075623705 0.012869606 0)
(0.071130972 0.012984893 0)
(0.066584244 0.012987796 0)
(0.062019571 0.012884312 0)
(0.057467666 0.012696333 0)
(0.052962336 0.012429656 0)
(0.048519662 0.012095833 0)
(0.044168841 0.011714594 0)
(0.039933688 0.011296344 0)
(0.035813031 0.010849693 0)
(0.031823147 0.010397426 0)
(0.027972799 0.009939126 0)
(0.024264805 0.0094901832 0)
(0.020688219 0.0090537585 0)
(0.01722344 0.0086441675 0)
(0.013916492 0.0082633495 0)
(0.010618791 0.0079188617 0)
(0.0076482865 0.0076038425 0)
(0.0053568232 0.0073831865 0)
(0.000362305 0.0071169212 0)
(-0.0013626569 0.010944505 0)
(-0.0066364033 0.011123346 0)
(-0.0087629704 0.011285267 0)
(-0.011842045 0.011519133 0)
(-0.015056649 0.011765551 0)
(-0.018274091 0.012041542 0)
(-0.021592912 0.012330428 0)
(-0.024968866 0.012630197 0)
(-0.028412571 0.012929854 0)
(-0.031936266 0.013210166 0)
(-0.035539501 0.013464264 0)
(-0.039197018 0.013679718 0)
(-0.042906173 0.013848554 0)
(-0.04665019 0.013946508 0)
(-0.050402434 0.013960265 0)
(-0.054154348 0.013878866 0)
(-0.057874868 0.013692829 0)
(-0.061528307 0.01338647 0)
(-0.065082268 0.012945646 0)
(-0.068508103 0.012361244 0)
(-0.071762538 0.011628606 0)
(-0.074802656 0.010741262 0)
(-0.077589537 0.0096963977 0)
(-0.080081985 0.0084927629 0)
(-0.08223581 0.0071454619 0)
(-0.084002162 0.0056615231 0)
(-0.085346976 0.0040488111 0)
(-0.086243278 0.0023366013 0)
(-0.086643228 0.00056234699 0)
(-0.086526572 -0.0012504222 0)
(-0.085907084 -0.0030808682 0)
(-0.084765739 -0.0048816915 0)
(-0.083068997 -0.0066311316 0)
(-0.080843406 -0.0083108634 0)
(-0.078129732 -0.0098942161 0)
(-0.074927603 -0.011364509 0)
(-0.071253487 -0.012711599 0)
(-0.067142523 -0.013921491 0)
(-0.062622079 -0.015002156 0)
(-0.057726604 -0.015943686 0)
(-0.052477264 -0.016750118 0)
(-0.046852852 -0.017489784 0)
(-0.040865738 -0.018144521 0)
(-0.034557683 -0.01870681 0)
(-0.027926689 -0.019182296 0)
(-0.020982084 -0.019598007 0)
(-0.013802333 -0.019966143 0)
(-0.0063988977 -0.020276846 0)
(0.0011974797 -0.02052 0)
(0.0089420812 -0.02069084 0)
(0.016786515 -0.020769144 0)
(0.024634875 -0.020756021 0)
(0.032466302 -0.020657828 0)
(0.040189195 -0.020432294 0)
(0.047731719 -0.020103982 0)
(0.055065287 -0.019655125 0)
(0.062163167 -0.019082266 0)
(0.068927537 -0.018334852 0)
(0.07527792 -0.017456979 0)
(0.081249696 -0.016410775 0)
(0.086764747 -0.015193227 0)
(0.091766804 -0.013791376 0)
(0.096230512 -0.012194031 0)
(0.10009089 -0.010428212 0)
(0.10331885 -0.0085032784 0)
(0.10588595 -0.0064444258 0)
(0.10777191 -0.0042831837 0)
(0.10898405 -0.0020626723 0)
(0.10954458 0.00016032341 0)
(0.10945543 0.0023404 0)
(0.10871487 0.0044617262 0)
(0.10735577 0.0064822804 0)
(0.10543198 0.0083410202 0)
(0.102981 0.010032025 0)
(0.10005806 0.011543497 0)
(0.096720887 0.012866277 0)
(0.093026844 0.013991814 0)
(0.089041674 0.014924562 0)
(0.08482103 0.01566101 0)
(0.080413203 0.016218757 0)
(0.075874628 0.016594681 0)
(0.071255194 0.016803109 0)
(0.066585657 0.016857236 0)
(0.061907616 0.016780675 0)
(0.057263259 0.016581428 0)
(0.05266971 0.016276064 0)
(0.048163939 0.015889876 0)
(0.043769079 0.015436653 0)
(0.039488038 0.014924643 0)
(0.035341897 0.014375143 0)
(0.031343081 0.013805067 0)
(0.027488691 0.013229909 0)
(0.023787373 0.012664975 0)
(0.020231662 0.012116079 0)
(0.01679363 0.011594543 0)
(0.013510849 0.011112338 0)
(0.010252047 0.010668093 0)
(0.0073519767 0.010279715 0)
(0.0050848256 0.0099819623 0)
(0.00019676814 0.0096403038 0)
(-0.0012605807 0.013363899 0)
(-0.0064544183 0.013600444 0)
(-0.0085457155 0.013812278 0)
(-0.011578346 0.014104203 0)
(-0.01475814 0.014436116 0)
(-0.01795737 0.014795133 0)
(-0.021262474 0.015175293 0)
(-0.024629065 0.015571658 0)
(-0.028088319 0.015960437 0)
(-0.031642516 0.016330659 0)
(-0.035274216 0.016670656 0)
(-0.038974729 0.016967313 0)
(-0.042745868 0.017190591 0)
(-0.046576218 0.01733871 0)
(-0.050432357 0.017383227 0)
(-0.054287564 0.01730815 0)
(-0.058121878 0.0170989 0)
(-0.061913932 0.016739654 0)
(-0.065624474 0.016216307 0)
(-0.069208186 0.015511685 0)
(-0.072629862 0.014617551 0)
(-0.075847463 0.013526805 0)
(-0.078809035 0.012236239 0)
(-0.081462517 0.010746207 0)
(-0.083763647 0.0090677904 0)
(-0.085671869 0.0072084441 0)
(-0.087139308 0.0051894744 0)
(-0.088124692 0.0030391113 0)
(-0.088612677 0.00079153384 0)
(-0.088570739 -0.0015400811 0)
(-0.087960844 -0.003908894 0)
(-0.086781365 -0.0062621068 0)
(-0.08502324 -0.0085640348 0)
(-0.082719916 -0.010772556 0)
(-0.079908845 -0.012876609 0)
(-0.076590033 -0.014854276 0)
(-0.072801769 -0.016685399 0)
(-0.068592114 -0.01837628 0)
(-0.063978753 -0.019927457 0)
(-0.058975088 -0.021353245 0)
(-0.053622581 -0.022652132 0)
(-0.047935881 -0.02382438 0)
(-0.04188 -0.024900104 0)
(-0.035454874 -0.025883654 0)
(-0.028715691 -0.026763749 0)
(-0.021698676 -0.027557827 0)
(-0.014409322 -0.028281806 0)
(-0.0068716951 -0.028862152 0)
(0.00084683524 -0.029346057 0)
(0.0087362615 -0.029685272 0)
(0.01673401 -0.02983622 0)
(0.024739956 -0.029800889 0)
(0.032738009 -0.029584325 0)
(0.04065218 -0.029198995 0)
(0.048399768 -0.028621161 0)
(0.055927287 -0.027826408 0)
(0.06321241 -0.026840499 0)
(0.070163354 -0.025651747 0)
(0.076695652 -0.024252635 0)
(0.082854259 -0.02264627 0)
(0.088552982 -0.020807919 0)
(0.093721149 -0.018752374 0)
(0.098339756 -0.016496 0)
(0.10234575 -0.014028832 0)
(0.1057031 -0.011382557 0)
(0.10837451 -0.0085915357 0)
(0.11032398 -0.0056988591 0)
(0.11154823 -0.0027614626 0)
(0.11203382 0.00016605712 0)
(0.11182528 0.0030142956 0)
(0.11097475 0.005734036 0)
(0.1094733 0.00829844 0)
(0.10737106 0.010662786 0)
(0.10472206 0.012807349 0)
(0.10158939 0.014711742 0)
(0.098036342 0.016373151 0)
(0.094129304 0.017781055 0)
(0.089929737 0.018935313 0)
(0.085504652 0.019842509 0)
(0.08090596 0.020514255 0)
(0.076173092 0.020961093 0)
(0.071366933 0.021199005 0)
(0.066541487 0.021243255 0)
(0.061728737 0.02111842 0)
(0.056953201 0.020840449 0)
(0.052265279 0.020436245 0)
(0.047679122 0.019926151 0)
(0.043206569 0.019325127 0)
(0.038877801 0.018659083 0)
(0.034701126 0.017953493 0)
(0.030686742 0.017223578 0)
(0.026841872 0.016485305 0)
(0.023159593 0.015747595 0)
(0.019624874 0.01504182 0)
(0.016225316 0.014375447 0)
(0.012996525 0.013756634 0)
(0.0097927096 0.013187004 0)
(0.0069596577 0.012677418 0)
(0.0047326098 0.012291119 0)
(2.0716633e-06 0.011828467 0)
(-0.0011099479 0.01658613 0)
(-0.0062111081 0.016881831 0)
(-0.0082628412 0.01714571 0)
(-0.011230738 0.01751493 0)
(-0.014376918 0.017919838 0)
(-0.017544638 0.018365618 0)
(-0.020826783 0.018840644 0)
(-0.024194508 0.019331641 0)
(-0.027664178 0.019813846 0)
(-0.031236733 0.020281888 0)
(-0.034911744 0.020711985 0)
(-0.038684081 0.021082909 0)
(-0.042539094 0.021368765 0)
(-0.046459552 0.021557144 0)
(-0.050431633 0.021631738 0)
(-0.05443285 0.021557473 0)
(-0.058432888 0.02131784 0)
(-0.062396134 0.020886811 0)
(-0.066290966 0.020256245 0)
(-0.07008225 0.019406285 0)
(-0.073718263 0.018322678 0)
(-0.077151278 0.016994596 0)
(-0.08033502 0.015417206 0)
(-0.08321386 0.013587702 0)
(-0.085737324 0.011508508 0)
(-0.087846338 0.0091949248 0)
(-0.089485987 0.006667737 0)
(-0.090614985 0.0039580793 0)
(-0.091198027 0.0011012489 0)
(-0.091199251 -0.0018355151 0)
(-0.090594589 -0.0048024102 0)
(-0.089377462 -0.0077669776 0)
(-0.087525603 -0.010665722 0)
(-0.085089474 -0.013432392 0)
(-0.082130961 -0.016064793 0)
(-0.07864625 -0.018528931 0)
(-0.074686924 -0.020793743 0)
(-0.07031189 -0.022887882 0)
(-0.065548485 -0.024804244 0)
(-0.060425009 -0.026568648 0)
(-0.054947718 -0.028202959 0)
(-0.049126179 -0.029704821 0)
(-0.042974982 -0.031080784 0)
(-0.036490492 -0.032356911 0)
(-0.029683405 -0.033540891 0)
(-0.022584718 -0.034622117 0)
(-0.015188046 -0.035594664 0)
(-0.0075258141 -0.036414527 0)
(0.00032646017 -0.037078564 0)
(0.0084162364 -0.037540142 0)
(0.016648998 -0.037757643 0)
(0.024894311 -0.037741319 0)
(0.033103848 -0.037471269 0)
(0.041212166 -0.036968266 0)
(0.049182623 -0.036203642 0)
(0.056928713 -0.035175917 0)
(0.064415539 -0.033908366 0)
(0.071579673 -0.032408745 0)
(0.078328061 -0.03064296 0)
(0.084713909 -0.028628831 0)
(0.090651382 -0.026345286 0)
(0.096045245 -0.02378709 0)
(0.10089621 -0.020975118 0)
(0.10512922 -0.017882668 0)
(0.10867639 -0.01456046 0)
(0.1114955 -0.011047336 0)
(0.11354155 -0.00740943 0)
(0.1148037 -0.003705382 0)
(0.11528728 -9.4536812e-06 0)
(0.11499155 0.0036212212 0)
(0.1139615 0.0070863206 0)
(0.1122433 0.010334338 0)
(0.10989656 0.013320674 0)
(0.10698297 0.016019345 0)
(0.10357469 0.018407138 0)
(0.099741004 0.020474887 0)
(0.095541546 0.022222357 0)
(0.091058806 0.023650321 0)
(0.08635998 0.024772851 0)
(0.081497756 0.02559159 0)
(0.076531018 0.02613396 0)
(0.071514104 0.026423533 0)
(0.066487433 0.026480431 0)
(0.061493465 0.026320663 0)
(0.056573384 0.025981162 0)
(0.05175198 0.025488954 0)
(0.047053826 0.024857619 0)
(0.042505931 0.024124789 0)
(0.038122923 0.023312556 0)
(0.033914309 0.022448832 0)
(0.029883376 0.021556964 0)
(0.026022409 0.020655626 0)
(0.022353972 0.019755457 0)
(0.018868404 0.018888666 0)
(0.015515637 0.018072604 0)
(0.012331602 0.017309281 0)
(0.0091827255 0.016611937 0)
(0.0064544063 0.015974725 0)
(0.004255494 0.015493659 0)
(-0.00028474494 0.014906645 0)
(-0.0009367673 0.019354687 0)
(-0.0059115614 0.019704995 0)
(-0.0079034256 0.020042034 0)
(-0.01080553 0.020493438 0)
(-0.013906373 0.020991509 0)
(-0.017032798 0.021542344 0)
(-0.020292777 0.022127211 0)
(-0.023651963 0.022730044 0)
(-0.027132419 0.02333571 0)
(-0.030737912 0.023917233 0)
(-0.034465916 0.024452997 0)
(-0.038309158 0.024923209 0)
(-0.042260939 0.025301448 0)
(-0.046299824 0.025562756 0)
(-0.050416097 0.025679536 0)
(-0.054582763 0.025626628 0)
(-0.058771447 0.025380557 0)
(-0.062951133 0.024912715 0)
(-0.067077303 0.024199078 0)
(-0.071111594 0.023220591 0)
(-0.075008619 0.021960109 0)
(-0.078716595 0.020402404 0)
(-0.082177112 0.018538659 0)
(-0.085331098 0.016363501 0)
(-0.088115679 0.013885027 0)
(-0.090470915 0.011121202 0)
(-0.092333036 0.0080849933 0)
(-0.093646096 0.0048283744 0)
(-0.094357125 0.0013864744 0)
(-0.094417104 -0.0021721266 0)
(-0.093825215 -0.005786985 0)
(-0.092565692 -0.0093836396 0)
(-0.090598443 -0.012882655 0)
(-0.08801531 -0.016246019 0)
(-0.084878494 -0.019412433 0)
(-0.081168736 -0.022346458 0)
(-0.076993572 -0.025055019 0)
(-0.072427876 -0.027544722 0)
(-0.067485207 -0.02983467 0)
(-0.06220375 -0.031950169 0)
(-0.056593381 -0.033915111 0)
(-0.050655018 -0.035754352 0)
(-0.044388924 -0.037478606 0)
(-0.037795118 -0.039090027 0)
(-0.030886943 -0.040591487 0)
(-0.023680827 -0.041981334 0)
(-0.016151219 -0.043216907 0)
(-0.0083242397 -0.044306842 0)
(-0.00027060165 -0.045161133 0)
(0.0080382256 -0.045773649 0)
(0.016494289 -0.04608197 0)
(0.024988216 -0.046093533 0)
(0.033467029 -0.045788288 0)
(0.041865545 -0.045166127 0)
(0.050123741 -0.04420221 0)
(0.058135713 -0.042930507 0)
(0.065867886 -0.041350691 0)
(0.073296174 -0.039516543 0)
(0.080325096 -0.037361853 0)
(0.086984695 -0.034901583 0)
(0.09321828 -0.0321655 0)
(0.098909697 -0.02907887 0)
(0.1040607 -0.025665554 0)
(0.10858319 -0.021904098 0)
(0.11237974 -0.017851489 0)
(0.11539009 -0.013558502 0)
(0.11755421 -0.0091056082 0)
(0.11885438 -0.004568734 0)
(0.11928031 -5.7986367e-05 0)
(0.11884699 0.0043277741 0)
(0.11761582 0.0085202895 0)
(0.11563759 0.012446188 0)
(0.11298741 0.016049247 0)
(0.10974129 0.019293219 0)
(0.10597929 0.022156702 0)
(0.10178849 0.024618546 0)
(0.097243048 0.026689627 0)
(0.092420386 0.028375307 0)
(0.087389538 0.029684804 0)
(0.08221382 0.030635717 0)
(0.076956352 0.031255361 0)
(0.071669419 0.031566238 0)
(0.06639898 0.031593282 0)
(0.061193947 0.031374011 0)
(0.056090333 0.030935162 0)
(0.051114372 0.030307615 0)
(0.046291486 0.029526149 0)
(0.041642199 0.028620224 0)
(0.037185235 0.027622642 0)
(0.032931175 0.026557139 0)
(0.028881097 0.025460595 0)
(0.025029648 0.024356018 0)
(0.021383675 0.023273313 0)
(0.017934275 0.022218721 0)
(0.014638977 0.021222096 0)
(0.011532348 0.020299016 0)
(0.0084573179 0.019466366 0)
(0.0058292703 0.018700543 0)
(0.003679038 0.018103138 0)
(-0.00061394204 0.017416587 0)
(-0.00072887538 0.022023941 0)
(-0.0055446673 0.022451827 0)
(-0.0074657566 0.022864363 0)
(-0.010285411 0.023408593 0)
(-0.013329834 0.024017882 0)
(-0.016408457 0.02468422 0)
(-0.019639377 0.025393793 0)
(-0.02298566 0.026128199 0)
(-0.026475484 0.026866553 0)
(-0.030117196 0.027588297 0)
(-0.033901821 0.028254643 0)
(-0.037828623 0.02884842 0)
(-0.041889063 0.029339186 0)
(-0.046067844 0.029697061 0)
(-0.050350409 0.029887191 0)
(-0.054709498 0.029886245 0)
(-0.05911894 0.029655086 0)
(-0.063544856 0.029170564 0)
(-0.067945281 0.028399972 0)
(-0.072277874 0.027318113 0)
(-0.07648746 0.025901805 0)
(-0.080518349 0.02412963 0)
(-0.084314742 0.021990828 0)
(-0.087804175 0.019481576 0)
(-0.090912532 0.016600204 0)
(-0.093577245 0.013364451 0)
(-0.095709037 0.0097981317 0)
(-0.097245029 0.0059428825 0)
(-0.098130841 0.0018566971 0)
(-0.098303702 -0.0023921939 0)
(-0.097732069 -0.0067253818 0)
(-0.096390508 -0.011024972 0)
(-0.09429646 -0.015201961 0)
(-0.091519094 -0.019216682 0)
(-0.088112337 -0.022951268 0)
(-0.084144987 -0.026360063 0)
(-0.079725321 -0.029506537 0)
(-0.074922458 -0.03238011 0)
(-0.069782009 -0.035022967 0)
(-0.064332034 -0.037471524 0)
(-0.058576096 -0.03976203 0)
(-0.052511503 -0.041918244 0)
(-0.046134562 -0.043956259 0)
(-0.039436169 -0.045884962 0)
(-0.032417719 -0.047725281 0)
(-0.025069126 -0.04945045 0)
(-0.01738501 -0.050998354 0)
(-0.0093679457 -0.052371782 0)
(-0.0010827226 -0.053472911 0)
(0.0074906137 -0.054317844 0)
(0.016266029 -0.054750045 0)
(0.025093765 -0.054790793 0)
(0.033916637 -0.054431097 0)
(0.042664784 -0.053661282 0)
(0.05126152 -0.052495238 0)
(0.059609728 -0.050989234 0)
(0.067643383 -0.04909961 0)
(0.075375108 -0.046908346 0)
(0.082744143 -0.044382528 0)
(0.089707938 -0.041498304 0)
(0.096274831 -0.038302043 0)
(0.10235039 -0.034697615 0)
(0.10787971 -0.030653154 0)
(0.11276447 -0.026214615 0)
(0.11686564 -0.021380663 0)
(0.12010887 -0.016231076 0)
(0.12241938 -0.010865987 0)
(0.12375171 -0.0054063128 0)
(0.12409236 9.5780148e-06 0)
(0.12347904 0.0052690887 0)
(0.12198709 0.010272762 0)
(0.11967915 0.014931427 0)
(0.1166509 0.019182813 0)
(0.11299911 0.022985518 0)
(0.10881117 0.026324002 0)
(0.10418856 0.029181233 0)
(0.099218001 0.03156315 0)
(0.093978587 0.033483503 0)
(0.08855135 0.034959216 0)
(0.083006304 0.036010274 0)
(0.077406372 0.036670286 0)
(0.071803053 0.036969096 0)
(0.066252538 0.036943048 0)
(0.060799946 0.036627651 0)
(0.055477176 0.036057893 0)
(0.050319505 0.035270009 0)
(0.045349053 0.034304838 0)
(0.040588976 0.033199789 0)
(0.036050074 0.03199313 0)
(0.031745207 0.030714108 0)
(0.027677786 0.029400797 0)
(0.023832915 0.028080672 0)
(0.020216719 0.026787407 0)
(0.016817213 0.025538529 0)
(0.013596512 0.024359437 0)
(0.010580076 0.023265476 0)
(0.007590854 0.022277853 0)
(0.0050832265 0.021377418 0)
(0.002993863 0.020664659 0)
(-0.0010001488 0.019853006 0)
(-0.00047392989 0.024591292 0)
(-0.0050926348 0.025123669 0)
(-0.0069358444 0.02562413 0)
(-0.0096543377 0.026277536 0)
(-0.01263084 0.02701372 0)
(-0.015654023 0.027813512 0)
(-0.018846145 0.02866721 0)
(-0.022176808 0.029558181 0)
(-0.025668324 0.030453682 0)
(-0.029344256 0.031332877 0)
(-0.033197731 0.032162489 0)
(-0.037213789 0.032907006 0)
(-0.041397587 0.033539913 0)
(-0.045732975 0.034023228 0)
(-0.050203089 0.03432158 0)
(-0.054786326 0.034399798 0)
(-0.059452935 0.034216119 0)
(-0.064166019 0.033742003 0)
(-0.068883287 0.032936922 0)
(-0.073557503 0.031766458 0)
(-0.07813845 0.030208156 0)
(-0.082562679 0.028233007 0)
(-0.086755699 0.025823964 0)
(-0.090648388 0.022971876 0)
(-0.094156191 0.019671959 0)
(-0.097194323 0.015932275 0)
(-0.099674033 0.011788554 0)
(-0.10150709 0.0072695044 0)
(-0.10260983 0.0024571939 0)
(-0.10291143 -0.0025651907 0)
(-0.10236112 -0.0077001797 0)
(-0.10093616 -0.012815941 0)
(-0.098674204 -0.017767889 0)
(-0.095634171 -0.022456282 0)
(-0.091870002 -0.026771217 0)
(-0.087549641 -0.03068826 0)
(-0.08282101 -0.034232262 0)
(-0.077743886 -0.037450383 0)
(-0.07237899 -0.040398484 0)
(-0.066751222 -0.043130406 0)
(-0.060854414 -0.04570301 0)
(-0.054669038 -0.048161545 0)
(-0.04818343 -0.050523181 0)
(-0.041400207 -0.05278144 0)
(-0.034295944 -0.054965992 0)
(-0.0268093 -0.057051688 0)
(-0.01893829 -0.05896896 0)
(-0.010691221 -0.060678982 0)
(-0.0021532858 -0.062106169 0)
(0.0067500812 -0.063178115 0)
(0.015937978 -0.063759369 0)
(0.025191923 -0.06385257 0)
(0.034462815 -0.063449294 0)
(0.043648657 -0.062539149 0)
(0.052625301 -0.061152488 0)
(0.061352471 -0.059359478 0)
(0.069757272 -0.057152889 0)
(0.077814594 -0.054582843 0)
(0.085530485 -0.051704359 0)
(0.092855198 -0.04844535 0)
(0.099801575 -0.044782272 0)
(0.10633563 -0.040695874 0)
(0.1123186 -0.036061488 0)
(0.11764298 -0.030901454 0)
(0.12217053 -0.025226603 0)
(0.12573911 -0.019138043 0)
(0.12823575 -0.012741135 0)
(0.12960286 -0.0062323536 0)
(0.12984248 0.00021080314 0)
(0.12900017 0.006448382 0)
(0.12716713 0.012349631 0)
(0.12443663 0.017808989 0)
(0.12093123 0.022758539 0)
(0.11677445 0.027153713 0)
(0.11207074 0.030978315 0)
(0.10692781 0.034229508 0)
(0.10145091 0.036912438 0)
(0.095727608 0.03905203 0)
(0.089834535 0.040670874 0)
(0.083850522 0.041799085 0)
(0.077849167 0.042473602 0)
(0.071884082 0.042731868 0)
(0.066007501 0.042617036 0)
(0.060266803 0.042165503 0)
(0.054697769 0.041425372 0)
(0.049332727 0.040440219 0)
(0.044198086 0.039255587 0)
(0.039312218 0.037917763 0)
(0.034685675 0.036463101 0)
(0.030328552 0.034938899 0)
(0.026240266 0.033374709 0)
(0.022410912 0.03181032 0)
(0.018838345 0.030282394 0)
(0.015503805 0.028812826 0)
(0.012364224 0.027431415 0)
(0.0094529288 0.026154899 0)
(0.0065742448 0.02500463 0)
(0.0042055216 0.0239614 0)
(0.0021775836 0.023152961 0)
(-0.001458622 0.022137109 0)
(-0.0001574196 0.027010451 0)
(-0.004534221 0.027670605 0)
(-0.0062998215 0.028272744 0)
(-0.0088972586 0.029055221 0)
(-0.011792719 0.029927921 0)
(-0.014750434 0.030883989 0)
(-0.017889895 0.031905562 0)
(-0.021194323 0.032972988 0)
(-0.024694116 0.034060694 0)
(-0.028399008 0.035119216 0)
(-0.032316136 0.036145797 0)
(-0.036436145 0.037075017 0)
(-0.040753967 0.037882422 0)
(-0.045262468 0.038529253 0)
(-0.04994454 0.038970576 0)
(-0.054780271 0.039164016 0)
(-0.059735813 0.039063792 0)
(-0.064776203 0.038631186 0)
(-0.069865473 0.037822949 0)
(-0.074943272 0.036601383 0)
(-0.07995036 0.034922955 0)
(-0.08482581 0.032764731 0)
(-0.089493061 0.030096796 0)
(-0.093867773 0.02689653 0)
(-0.097859409 0.023162238 0)
(-0.10136322 0.018894699 0)
(-0.10427189 0.01412126 0)
(-0.10647468 0.0088855412 0)
(-0.10786022 0.0032622817 0)
(-0.10834864 -0.0026484186 0)
(-0.10785745 -0.0087064957 0)
(-0.10632304 -0.014747808 0)
(-0.10379318 -0.020591863 0)
(-0.10036236 -0.026043592 0)
(-0.096162596 -0.030988252 0)
(-0.091400558 -0.035409128 0)
(-0.086254194 -0.039312552 0)
(-0.080837644 -0.042793393 0)
(-0.075209722 -0.045976404 0)
(-0.069391679 -0.048943036 0)
(-0.063371617 -0.051752643 0)
(-0.057105452 -0.054475895 0)
(-0.050542693 -0.057154165 0)
(-0.04368175 -0.059760414 0)
(-0.036505126 -0.062309596 0)
(-0.028906382 -0.064791802 0)
(-0.020863751 -0.067123742 0)
(-0.012382575 -0.069253457 0)
(-0.0035135001 -0.07106322 0)
(0.0058169024 -0.072424172 0)
(0.015489903 -0.073196638 0)
(0.025268063 -0.07337382 0)
(0.035075877 -0.072924657 0)
(0.04478552 -0.071869937 0)
(0.054246927 -0.070241897 0)
(0.063399707 -0.068093953 0)
(0.07219542 -0.06554772 0)
(0.08058596 -0.062618324 0)
(0.088632135 -0.059364595 0)
(0.096368056 -0.055776223 0)
(0.10375186 -0.051738376 0)
(0.11079033 -0.047183964 0)
(0.11739194 -0.042010522 0)
(0.12333403 -0.036094961 0)
(0.12839607 -0.029484075 0)
(0.13239155 -0.02230171 0)
(0.13514621 -0.014733427 0)
(0.13654457 -0.0070161309 0)
(0.13662982 0.00061872615 0)
(0.13547858 0.0079596789 0)
(0.13320867 0.014851045 0)
(0.12995086 0.021175054 0)
(0.12586085 0.026861519 0)
(0.12108732 0.031872663 0)
(0.11576059 0.03619076 0)
(0.11000253 0.039826254 0)
(0.10392744 0.042796536 0)
(0.097632312 0.045129584 0)
(0.091202279 0.046859061 0)
(0.084721312 0.048030577 0)
(0.078261029 0.048683101 0)
(0.071878052 0.048859989 0)
(0.065627266 0.048610622 0)
(0.059558256 0.047983084 0)
(0.053710325 0.047029754 0)
(0.048115139 0.045804929 0)
(0.042797883 0.044359056 0)
(0.037773164 0.04274198 0)
(0.033052651 0.041002246 0)
(0.028642934 0.039188723 0)
(0.024538575 0.037339545 0)
(0.020733326 0.035495164 0)
(0.017214938 0.033705791 0)
(0.013963078 0.031986974 0)
(0.010936301 0.030382738 0)
(0.008155023 0.02891246 0)
(0.0054027843 0.027586565 0)
(0.0032199588 0.026408852 0)
(0.001193419 0.025509279 0)
(-0.002051841 0.024238826 0)
(0.00022927295 0.029280799 0)
(-0.003854423 0.030081953 0)
(-0.0055387287 0.030797424 0)
(-0.008000602 0.031725949 0)
(-0.010800306 0.03275367 0)
(-0.013670879 0.033887683 0)
(-0.016751561 0.035102918 0)
(-0.020014843 0.036373411 0)
(-0.023514399 0.037675985 0)
(-0.02724764 0.038960674 0)
(-0.031227559 0.040206359 0)
(-0.035458895 0.041361999 0)
(-0.0399204 0.042386439 0)
(-0.044616702 0.043235742 0)
(-0.049533832 0.043864582 0)
(-0.054651847 0.044213175 0)
(-0.059936864 0.044240701 0)
(-0.065349731 0.043892076 0)
(-0.070847431 0.043119061 0)
(-0.076383201 0.04188145 0)
(-0.081891345 0.040122412 0)
(-0.087296683 0.037806187 0)
(-0.09252377 0.034894451 0)
(-0.097474569 0.031355775 0)
(-0.10204305 0.027176746 0)
(-0.10611469 0.022354959 0)
(-0.10955877 0.016904954 0)
(-0.11223798 0.010874178 0)
(-0.1140103 0.0043319013 0)
(-0.11473629 -0.0025983231 0)
(-0.11430019 -0.0097377441 0)
(-0.1126482 -0.016886909 0)
(-0.10978435 -0.02378579 0)
(-0.10582681 -0.030133429 0)
(-0.10101621 -0.035769811 0)
(-0.095628163 -0.0406218 0)
(-0.089924754 -0.044782276 0)
(-0.084096795 -0.048430727 0)
(-0.07820415 -0.051759783 0)
(-0.072209608 -0.054901198 0)
(-0.066083621 -0.057920869 0)
(-0.059778412 -0.060880497 0)
(-0.053194184 -0.06383408 0)
(-0.046302756 -0.066785131 0)
(-0.039091316 -0.069728023 0)
(-0.031413389 -0.072659653 0)
(-0.023216227 -0.075484565 0)
(-0.01448237 -0.078125932 0)
(-0.0052377651 -0.080390116 0)
(0.004593149 -0.082162439 0)
(0.014863596 -0.083220264 0)
(0.025296495 -0.08350043 0)
(0.035771705 -0.082999107 0)
(0.046111537 -0.081741802 0)
(0.056159234 -0.079796738 0)
(0.065782598 -0.07726167 0)
(0.07495312 -0.07429756 0)
(0.083696239 -0.071000463 0)
(0.092055059 -0.067401797 0)
(0.10015073 -0.063501912 0)
(0.10804834 -0.059208361 0)
(0.11570776 -0.054307547 0)
(0.12305864 -0.048616257 0)
(0.12984529 -0.041966727 0)
(0.13567922 -0.034327947 0)
(0.14023951 -0.02587148 0)
(0.14330063 -0.016903969 0)
(0.14475608 -0.0077497383 0)
(0.14463649 0.0012824348 0)
(0.14305709 0.0099018709 0)
(0.14020885 0.017911164 0)
(0.13627715 0.025180237 0)
(0.13146365 0.031642116 0)
(0.12594401 0.037276847 0)
(0.11987202 0.04208217 0)
(0.11338986 0.046081297 0)
(0.10661956 0.049308615 0)
(0.099665707 0.051802156 0)
(0.092621876 0.053608643 0)
(0.085571983 0.054778578 0)
(0.078587898 0.055358906 0)
(0.071732575 0.055404363 0)
(0.065062638 0.054972032 0)
(0.058628199 0.054119773 0)
(0.052471214 0.052904264 0)
(0.04662197 0.051389817 0)
(0.041102125 0.049630395 0)
(0.035928607 0.047684449 0)
(0.031111423 0.045612713 0)
(0.026649769 0.043467011 0)
(0.022534618 0.041295329 0)
(0.018768865 0.039136554 0)
(0.015325618 0.037053514 0)
(0.012177446 0.035058984 0)
(0.0092877984 0.033210694 0)
(0.0066591618 0.031521236 0)
(0.0040777187 0.03000906 0)
(0.0021166603 0.028689559 0)
(3.2480901e-05 0.027684362 0)
(-0.0027668966 0.026236132 0)
(0.00068966205 0.031364397 0)
(-0.0030437977 0.032340055 0)
(-0.0046434987 0.033183799 0)
(-0.0069431276 0.034272988 0)
(-0.0096292739 0.035480352 0)
(-0.012394789 0.036808961 0)
(-0.015397861 0.038245688 0)
(-0.018613368 0.039749768 0)
(-0.022096685 0.041300753 0)
(-0.025855117 0.042849014 0)
(-0.02989718 0.04435227 0)
(-0.034234279 0.045778736 0)
(-0.038853439 0.047066635 0)
(-0.043751094 0.048166462 0)
(-0.048926991 0.049028146 0)