/*--------------------------------*- C++ -*----------------------------------*\
  =========                 |
  \\      /  F ield         | OpenFOAM: The Open Source CFD Toolbox
   \\    /   O peration     | Website:  https://openfoam.org
    \\  /    A nd           | Version:  9
     \\/     M anipulation  |
\*---------------------------------------------------------------------------*/
FoamFile
{
    format      ascii;
    class       volScalarField;
    location    "0.006";
    object      mag(U);
}
// * * * * * * * * * * * * * * * * * * * * * * * * * * * * * * * * * * * * * //

dimensions      [0 1 -1 0 0 0 0];

internalField   nonuniform List<scalar> 
10000
(
1.09405e-12
1.00652e-12
1.1524e-12
9.48175e-13
1.23992e-12
1.21075e-12
1.32744e-12
1.61919e-12
1.66295e-12
1.42956e-12
1.98387e-12
1.57543e-12
1.99846e-12
1.92552e-12
1.80883e-12
1.51708e-12
1.94011e-12
1.23992e-12
1.6046e-12
8.75238e-13
1.40038e-12
1.06487e-12
1.2691e-12
9.77349e-13
1.2691e-12
7.87714e-13
1.29827e-12
9.91936e-13
1.22533e-12
8.89825e-13
1.07946e-12
5.68905e-13
7.5854e-13
8.75238e-13
8.46063e-13
9.04413e-13
1.13781e-12
7.87714e-13
9.33587e-13
1.10863e-12
1.00652e-12
6.27254e-13
6.71016e-13
3.06333e-13
2.62571e-13
2.47984e-13
3.20921e-13
2.62571e-13
5.68905e-13
5.10556e-13
1.0357e-12
6.12667e-13
9.48175e-13
8.60651e-13
1.07946e-12
9.19e-13
1.34203e-12
9.33587e-13
1.42956e-12
1.10863e-12
1.41497e-12
9.91936e-13
1.34203e-12
1.07946e-12
1.28368e-12
1.09405e-12
1.38579e-12
1.06487e-12
1.2691e-12
1.09405e-12
1.34203e-12
1.10863e-12
1.16698e-12
1.07946e-12
9.04413e-13
9.62762e-13
6.12667e-13
7.87714e-13
8.31476e-13
8.75238e-13
6.85603e-13
8.02302e-13
7.0019e-13
8.89825e-13
8.31476e-13
1.05029e-12
8.02302e-13
9.62762e-13
9.77349e-13
1.37121e-12
1.22533e-12
1.53167e-12
1.63378e-12
2.01305e-12
1.85259e-12
2.24644e-12
2.4069e-12
2.5236e-12
2.50902e-12
2.78617e-12
2.62571e-12
2.96122e-12
2.61113e-12
3.3259e-12
2.9904e-12
3.26756e-12
3.3259e-12
3.82187e-12
3.96775e-12
4.44913e-12
3.92398e-12
4.75546e-12
4.28867e-12
4.595e-12
4.50748e-12
4.40536e-12
4.46371e-12
4.7117e-12
4.01151e-12
4.17197e-12
3.77811e-12
3.85105e-12
3.69059e-12
3.73435e-12
3.06333e-12
3.16544e-12
2.85911e-12
2.72783e-12
2.80076e-12
2.71324e-12
2.37773e-12
2.37773e-12
2.36314e-12
2.11516e-12
1.96929e-12
1.51708e-12
1.76506e-12
1.37121e-12
8.89825e-13
1.29827e-12
1.07946e-12
7.14778e-13
7.0019e-13
4.95968e-13
4.37619e-13
1.02111e-13
8.75238e-14
1.45873e-13
1.31286e-13
5.54317e-13
2.77159e-13
9.04413e-13
4.37619e-13
6.71016e-13
1.16698e-13
7.14778e-13
8.75238e-14
2.77159e-13
1.89635e-13
1.75048e-13
4.37619e-13
1.89635e-13
7.0019e-13
5.10556e-13
5.98079e-13
6.71016e-13
1.09405e-12
9.04413e-13
1.47332e-12
1.86717e-12
2.27562e-12
2.61113e-12
3.09251e-12
3.28214e-12
3.54471e-12
3.74894e-12
3.41343e-12
3.85105e-12
4.39078e-12
4.44913e-12
4.87216e-12
4.98886e-12
5.07638e-12
5.09097e-12
5.55776e-12
5.22225e-12
5.71822e-12
5.47024e-12
5.30978e-12
5.47024e-12
5.89327e-12
5.13473e-12
5.83492e-12
5.82033e-12
6.00997e-12
5.79116e-12
6.57887e-12
5.67446e-12
6.09749e-12
5.64529e-12
5.57235e-12
5.47024e-12
5.64529e-12
4.56582e-12
5.09097e-12
4.63876e-12
4.18656e-12
4.14279e-12
3.77811e-12
3.57389e-12
3.69059e-12
3.00498e-12
3.29673e-12
2.88829e-12
2.50902e-12
2.59654e-12
2.12975e-12
2.11516e-12
1.79424e-12
1.77965e-12
1.59002e-12
1.61919e-12
1.35662e-12
1.32744e-12
1.16698e-12
1.23992e-12
1.07946e-12
1.10863e-12
1.00652e-12
1.00652e-12
1.0357e-12
1.10863e-12
1.2691e-12
9.91936e-13
1.10863e-12
1.1524e-12
9.77349e-13
8.16889e-13
1.0357e-12
8.46063e-13
1.19616e-12
1.28368e-12
1.05029e-12
1.70671e-12
1.29827e-12
1.7213e-12
1.57543e-12
1.88176e-12
1.7213e-12
2.10057e-12
1.98387e-12
2.21727e-12
1.75048e-12
2.26103e-12
1.96929e-12
2.23186e-12
1.94011e-12
2.33397e-12
2.14433e-12
2.1881e-12
2.08598e-12
2.26103e-12
1.94011e-12
2.23186e-12
2.0714e-12
2.1881e-12
1.9547e-12
1.9547e-12
2.02763e-12
1.92552e-12
2.02763e-12
1.64836e-12
2.12975e-12
1.85259e-12
2.02763e-12
2.0714e-12
1.9547e-12
2.23186e-12
1.89635e-12
1.76506e-12
1.50249e-12
1.82341e-12
1.64836e-12
1.66295e-12
1.838e-12
1.63378e-12
1.73589e-12
1.7213e-12
1.69213e-12
1.2691e-12
1.69213e-12
1.53167e-12
1.44414e-12
1.16698e-12
1.70671e-12
9.19e-13
1.77965e-12
1.4879e-12
2.04222e-12
1.94011e-12
2.46525e-12
2.14433e-12
2.91746e-12
2.31938e-12
2.90287e-12
2.65489e-12
3.19462e-12
2.85911e-12
3.15086e-12
2.82994e-12
2.97581e-12
2.56736e-12
2.59654e-12
2.62571e-12
2.93205e-12
2.85911e-12
2.97581e-12
3.22379e-12
3.41343e-12
3.31132e-12
3.35508e-12
3.23838e-12
2.8737e-12
3.29673e-12
3.09251e-12
3.23838e-12
2.94663e-12
3.35508e-12
3.00498e-12
3.31132e-12
2.88829e-12
2.97581e-12
3.19462e-12
3.04875e-12
2.78617e-12
3.39884e-12
2.62571e-12
3.42802e-12
2.84452e-12
3.13627e-12
2.85911e-12
3.15086e-12
2.43608e-12
2.68406e-12
2.33397e-12
2.68406e-12
2.5236e-12
3.18003e-12
2.8737e-12
2.82994e-12
3.38425e-12
2.9904e-12
3.16544e-12
3.28214e-12
3.29673e-12
2.80076e-12
3.58848e-12
3.18003e-12
3.92398e-12
3.58848e-12
3.5593e-12
3.74894e-12
3.98233e-12
3.48636e-12
3.73435e-12
3.39884e-12
3.42802e-12
3.34049e-12
2.81535e-12
2.90287e-12
2.4069e-12
2.47984e-12
2.12975e-12
2.0714e-12
1.50249e-12
1.53167e-12
1.12322e-12
9.62762e-13
7.0019e-13
1.1524e-12
3.93857e-13
7.14778e-13
8.75238e-14
1.6046e-13
6.12667e-13
4.95968e-13
1.16698e-12
7.5854e-13
2.11516e-12
1.07946e-12
2.30479e-12
1.66295e-12
2.04222e-12
1.57543e-12
1.98387e-12
1.4879e-12
2.1881e-12
1.28368e-12
2.02763e-12
1.34203e-12
1.35662e-12
9.04413e-13
1.41497e-12
6.56429e-13
1.10863e-12
6.12667e-13
8.31476e-13
5.10556e-13
5.25143e-13
2.62571e-13
4.37619e-14
8.75238e-14
3.35508e-13
2.62571e-13
9.04413e-13
7.5854e-13
8.02302e-13
1.00652e-12
1.19616e-12
1.29827e-12
1.34203e-12
1.70671e-12
1.41497e-12
1.9547e-12
1.63378e-12
2.43608e-12
1.86717e-12
2.65489e-12
2.11516e-12
2.58195e-12
2.29021e-12
2.8737e-12
2.55278e-12
2.94663e-12
2.66948e-12
2.65489e-12
2.5236e-12
2.59654e-12
2.39232e-12
2.49443e-12
2.59654e-12
2.17351e-12
2.4069e-12
2.27562e-12
2.47984e-12
2.27562e-12
2.757e-12
2.36314e-12
2.71324e-12
2.33397e-12
2.55278e-12
2.24644e-12
2.6403e-12
1.94011e-12
2.46525e-12
2.37773e-12
2.17351e-12
2.42149e-12
2.12975e-12
2.36314e-12
2.46525e-12
2.12975e-12
2.757e-12
2.15892e-12
2.43608e-12
1.77965e-12
2.34856e-12
1.42956e-12
1.89635e-12
6.85603e-13
1.4879e-12
4.37619e-13
1.12322e-12
8.75238e-14
5.54317e-13
2.91746e-14
4.66794e-13
3.7927e-13
1.02111e-13
8.60651e-13
7.87714e-13
1.09405e-12
9.19e-13
1.50249e-12
1.32744e-12
1.45873e-12
1.50249e-12
1.73589e-12
1.41497e-12
2.27562e-12
1.44414e-12
1.99846e-12
1.80883e-12
1.91094e-12
1.75048e-12
1.76506e-12
1.80883e-12
1.6046e-12
1.59002e-12
1.40038e-12
1.35662e-12
1.47332e-12
1.21075e-12
1.4879e-12
1.35662e-12
1.37121e-12
1.47332e-12
1.56084e-12
1.75048e-12
1.40038e-12
1.98387e-12
1.57543e-12
2.01305e-12
2.29021e-12
2.23186e-12
2.5236e-12
2.68406e-12
2.80076e-12
2.78617e-12
2.74241e-12
2.6403e-12
2.72783e-12
2.33397e-12
2.24644e-12
2.02763e-12
2.17351e-12
1.98387e-12
2.15892e-12
2.05681e-12
2.31938e-12
2.42149e-12
2.42149e-12
2.82994e-12
2.77159e-12
2.82994e-12
3.00498e-12
3.23838e-12
3.01957e-12
3.3259e-12
2.97581e-12
3.03416e-12
2.71324e-12
3.26756e-12
2.61113e-12
3.07792e-12
2.42149e-12
3.06333e-12
2.71324e-12
3.13627e-12
2.59654e-12
3.35508e-12
2.56736e-12
3.41343e-12
2.66948e-12
3.38425e-12
2.84452e-12
3.4426e-12
2.91746e-12
3.70517e-12
3.3259e-12
4.02609e-12
3.74894e-12
4.50748e-12
4.05527e-12
5.04721e-12
4.50748e-12
5.09097e-12
4.75546e-12
5.42648e-12
4.75546e-12
5.3973e-12
5.35354e-12
5.35354e-12
5.2806e-12
5.60152e-12
5.54317e-12
5.71822e-12
5.93703e-12
5.36813e-12
5.77657e-12
5.76198e-12
5.49941e-12
5.61611e-12
5.1639e-12
5.2806e-12
4.97427e-12
4.88675e-12
5.00344e-12
4.68252e-12
4.43454e-12
4.44913e-12
4.27408e-12
4.05527e-12
3.51554e-12
3.53013e-12
2.757e-12
2.88829e-12
2.15892e-12
2.23186e-12
1.41497e-12
1.38579e-12
7.73127e-13
1.06487e-12
3.35508e-13
6.12667e-13
8.46063e-13
6.85603e-13
9.33587e-13
9.77349e-13
1.07946e-12
1.64836e-12
1.51708e-12
1.69213e-12
1.76506e-12
1.79424e-12
2.17351e-12
1.94011e-12
2.04222e-12
2.02763e-12
2.0714e-12
2.14433e-12
2.0714e-12
1.96929e-12
2.21727e-12
1.85259e-12
2.58195e-12
2.08598e-12
2.757e-12
2.11516e-12
2.78617e-12
2.53819e-12
2.91746e-12
3.15086e-12
3.07792e-12
3.07792e-12
3.51554e-12
2.85911e-12
3.16544e-12
3.03416e-12
2.6403e-12
2.90287e-12
3.20921e-12
2.66948e-12
3.10709e-12
2.69865e-12
2.88829e-12
3.15086e-12
3.01957e-12
3.66141e-12
3.7927e-12
3.63224e-12
4.02609e-12
4.17197e-12
3.82187e-12
3.71976e-12
4.11362e-12
3.25297e-12
3.80729e-12
3.28214e-12
3.51554e-12
2.90287e-12
3.39884e-12
2.74241e-12
3.29673e-12
3.20921e-12
3.58848e-12
2.50902e-12
3.69059e-12
2.4069e-12
3.01957e-12
2.5236e-12
2.78617e-12
1.99846e-12
2.66948e-12
2.15892e-12
2.37773e-12
2.05681e-12
2.62571e-12
2.08598e-12
2.66948e-12
1.92552e-12
2.69865e-12
2.02763e-12
2.5236e-12
2.20268e-12
2.61113e-12
2.36314e-12
2.46525e-12
2.55278e-12
2.30479e-12
2.37773e-12
2.23186e-12
2.31938e-12
1.92552e-12
2.6403e-12
2.26103e-12
2.47984e-12
2.69865e-12
2.757e-12
2.68406e-12
2.6403e-12
2.81535e-12
2.72783e-12
2.97581e-12
2.50902e-12
2.55278e-12
2.62571e-12
2.39232e-12
2.61113e-12
2.42149e-12
2.36314e-12
2.30479e-12
2.21727e-12
2.45067e-12
2.84452e-12
2.34856e-12
2.66948e-12
2.50902e-12
2.90287e-12
2.26103e-12
3.12168e-12
2.5236e-12
2.61113e-12
3.00498e-12
3.13627e-12
3.06333e-12
3.26756e-12
3.53013e-12
3.31132e-12
3.88022e-12
3.85105e-12
4.21573e-12
3.88022e-12
3.93857e-12
3.85105e-12
4.06986e-12
4.31784e-12
4.3616e-12
4.39078e-12
4.79922e-12
4.58041e-12
4.66794e-12
4.94509e-12
4.95968e-12
4.97427e-12
4.85757e-12
5.09097e-12
4.85757e-12
5.17849e-12
4.94509e-12
5.29519e-12
4.7117e-12
5.26602e-12
4.66794e-12
5.20767e-12
4.93051e-12
5.2806e-12
5.00344e-12
5.29519e-12
5.00344e-12
5.49941e-12
5.09097e-12
5.67446e-12
5.98079e-12
5.80575e-12
6.17043e-12
6.84144e-12
6.37465e-12
7.52705e-12
6.33089e-12
7.30824e-12
6.78309e-12
7.04567e-12
6.75392e-12
7.2353e-12
6.3163e-12
6.89979e-12
6.82686e-12
6.57887e-12
6.63722e-12
6.84144e-12
6.27254e-12
5.87868e-12
6.12667e-12
5.17849e-12
5.73281e-12
5.14932e-12
5.514e-12
4.91592e-12
5.42648e-12
4.85757e-12
5.14932e-12
4.50748e-12
5.07638e-12
5.00344e-12
4.98886e-12
5.03262e-12
4.91592e-12
5.25143e-12
4.95968e-12
5.44106e-12
5.06179e-12
5.48482e-12
5.14932e-12
5.20767e-12
5.06179e-12
5.2806e-12
4.90133e-12
5.38271e-12
4.85757e-12
5.71822e-12
4.95968e-12
5.77657e-12
5.19308e-12
5.70363e-12
5.09097e-12
6.33089e-12
5.3973e-12
6.60805e-12
5.57235e-12
6.62263e-12
6.3163e-12
7.1186e-12
6.47676e-12
7.68751e-12
6.78309e-12
7.57081e-12
7.36659e-12
7.30824e-12
7.49787e-12
7.70209e-12
6.95814e-12
8.05219e-12
7.17695e-12
7.55622e-12
7.5854e-12
7.42494e-12
7.84797e-12
7.61457e-12
7.55622e-12
7.57081e-12
7.83338e-12
7.2353e-12
7.64375e-12
7.30824e-12
7.71668e-12
7.14778e-12
7.87714e-12
7.38117e-12
7.4687e-12
8.02302e-12
7.68751e-12
7.27906e-12
7.86255e-12
7.14778e-12
6.94355e-12
7.48329e-12
6.59346e-12
6.68098e-12
6.60805e-12
5.79116e-12
6.41841e-12
6.00997e-12
5.92244e-12
6.0829e-12
5.6307e-12
5.52859e-12
5.80575e-12
5.90786e-12
5.82033e-12
5.92244e-12
5.33895e-12
5.71822e-12
5.30978e-12
5.7474e-12
5.41189e-12
5.73281e-12
5.60152e-12
5.73281e-12
6.03914e-12
5.58694e-12
6.05373e-12
5.54317e-12
6.3163e-12
5.29519e-12
6.56429e-12
5.55776e-12
6.14125e-12
6.03914e-12
5.82033e-12
6.34548e-12
6.36006e-12
6.17043e-12
6.37465e-12
6.03914e-12
6.1996e-12
5.99538e-12
5.77657e-12
6.05373e-12
6.22878e-12
5.55776e-12
6.33089e-12
6.38924e-12
6.57887e-12
6.0829e-12
6.91438e-12
6.0829e-12
6.68098e-12
6.3163e-12
6.68098e-12
6.03914e-12
6.89979e-12
5.65987e-12
6.18502e-12
5.84951e-12
5.7474e-12
5.00344e-12
5.3973e-12
4.7117e-12
5.04721e-12
4.77005e-12
4.7117e-12
4.46371e-12
4.91592e-12
4.34702e-12
4.97427e-12
4.30325e-12
4.74087e-12
4.12821e-12
4.43454e-12
3.93857e-12
4.12821e-12
3.60306e-12
3.60306e-12
3.13627e-12
3.10709e-12
2.78617e-12
2.56736e-12
2.85911e-12
2.24644e-12
2.14433e-12
1.82341e-12
1.56084e-12
8.89825e-13
1.06487e-12
7.73127e-13
4.08444e-13
3.7927e-13
1.31286e-13
2.1881e-13
2.5987e-23
3.35508e-13
2.47984e-13
8.60651e-13
4.37619e-14
8.31476e-13
7.43952e-13
1.25451e-12
9.91936e-13
1.6046e-12
1.18157e-12
1.66295e-12
1.02111e-12
1.79424e-12
1.70671e-12
1.59002e-12
1.70671e-12
1.92552e-12
2.26103e-12
2.82994e-12
2.82994e-12
3.29673e-12
2.97581e-12
3.7927e-12
3.70517e-12
4.28867e-12
3.89481e-12
4.66794e-12
4.43454e-12
4.93051e-12
4.84298e-12
5.03262e-12
5.06179e-12
5.22225e-12
5.1639e-12
5.07638e-12
5.36813e-12
5.26602e-12
5.48482e-12
5.49941e-12
5.26602e-12
5.41189e-12
5.68905e-12
5.52859e-12
5.57235e-12
5.58694e-12
5.47024e-12
5.98079e-12
6.02455e-12
5.68905e-12
6.05373e-12
5.45565e-12
5.82033e-12
5.67446e-12
5.41189e-12
5.01803e-12
5.45565e-12
4.94509e-12
4.72629e-12
4.56582e-12
4.34702e-12
4.11362e-12
3.85105e-12
3.53013e-12
3.54471e-12
3.28214e-12
2.74241e-12
2.56736e-12
2.02763e-12
1.98387e-12
1.92552e-12
2.11516e-12
1.23992e-12
2.37773e-12
1.44414e-12
2.23186e-12
1.92552e-12
2.26103e-12
2.08598e-12
2.15892e-12
2.30479e-12
2.46525e-12
2.4069e-12
2.15892e-12
2.66948e-12
2.14433e-12
2.27562e-12
2.6403e-12
2.5236e-12
2.85911e-12
2.72783e-12
3.47178e-12
2.94663e-12
3.64683e-12
3.61765e-12
3.76352e-12
3.93857e-12
4.25949e-12
4.33243e-12
4.34702e-12
5.03262e-12
4.90133e-12
5.30978e-12
5.3973e-12
5.68905e-12
5.48482e-12
6.21419e-12
6.06832e-12
6.52052e-12
6.22878e-12
6.62263e-12
6.24336e-12
6.60805e-12
6.11208e-12
6.50594e-12
6.14125e-12
6.57887e-12
6.00997e-12
6.28713e-12
5.6307e-12
6.3163e-12
5.79116e-12
6.05373e-12
5.68905e-12
5.90786e-12
5.38271e-12
5.73281e-12
5.25143e-12
5.98079e-12
5.42648e-12
5.48482e-12
5.41189e-12
5.17849e-12
5.7474e-12
5.25143e-12
5.6307e-12
4.56582e-12
4.87216e-12
4.27408e-12
4.68252e-12
4.12821e-12
3.9094e-12
3.93857e-12
4.17197e-12
3.88022e-12
3.86563e-12
3.88022e-12
4.04068e-12
3.83646e-12
3.88022e-12
4.02609e-12
3.95316e-12
3.7927e-12
3.88022e-12
4.04068e-12
4.14279e-12
3.93857e-12
4.12821e-12
4.37619e-12
4.04068e-12
4.09903e-12
4.18656e-12
3.9094e-12
4.25949e-12
3.98233e-12
4.18656e-12
4.39078e-12
4.34702e-12
4.37619e-12
4.49289e-12
4.50748e-12
4.41995e-12
4.37619e-12
4.37619e-12
4.595e-12
4.58041e-12
4.46371e-12
5.01803e-12
4.53665e-12
5.04721e-12
4.65335e-12
5.13473e-12
4.69711e-12
5.68905e-12
4.97427e-12
5.73281e-12
5.1639e-12
6.28713e-12
5.20767e-12
6.15584e-12
5.33895e-12
6.12667e-12
5.68905e-12
5.95162e-12
5.54317e-12
5.67446e-12
5.80575e-12
5.58694e-12
6.06832e-12
5.57235e-12
5.84951e-12
5.80575e-12
5.77657e-12
5.82033e-12
6.17043e-12
6.24336e-12
6.49135e-12
6.56429e-12
6.98732e-12
6.85603e-12
7.32282e-12
7.19154e-12
7.73127e-12
7.67292e-12
8.16889e-12
8.43146e-12
8.54816e-12
8.89825e-12
8.82532e-12
9.3067e-12
9.36505e-12
9.39422e-12
9.04413e-12
9.23376e-12
9.04413e-12
9.37963e-12
9.08789e-12
9.36505e-12
8.85449e-12
9.20459e-12
8.57733e-12
8.91284e-12
8.06678e-12
8.57733e-12
7.96467e-12
8.05219e-12
7.49787e-12
7.49787e-12
7.06025e-12
7.10402e-12
6.59346e-12
7.13319e-12
6.12667e-12
6.433e-12
6.30171e-12
6.05373e-12
5.95162e-12
6.52052e-12
6.22878e-12
5.98079e-12
6.06832e-12
6.53511e-12
5.99538e-12
6.59346e-12
6.49135e-12
6.75392e-12
6.69557e-12
7.16236e-12
6.76851e-12
7.55622e-12
7.20613e-12
7.64375e-12
7.71668e-12
8.02302e-12
7.65833e-12
8.0376e-12
7.77503e-12
8.02302e-12
8.05219e-12
8.35852e-12
8.00843e-12
8.81073e-12
8.34394e-12
9.14624e-12
8.69403e-12
9.67138e-12
9.00036e-12
1.0284e-11
9.11706e-12
9.8756e-12
9.35046e-12
1.06633e-11
9.55468e-12
1.03862e-11
1.02695e-11
1.07363e-11
1.04007e-11
1.11301e-11
9.93395e-12
1.11593e-11
1.03424e-11
1.06341e-11
9.89019e-12
1.07363e-11
9.81725e-12
1.04883e-11
9.78808e-12
1.04299e-11
1.00944e-11
9.89019e-12
1.00215e-11
9.94854e-12
1.02695e-11
9.77349e-12
9.72973e-12
9.33587e-12
9.94854e-12
9.40881e-12
9.27752e-12
8.70862e-12
9.3067e-12
8.53357e-12
8.78155e-12
8.00843e-12
8.41687e-12
7.89173e-12
8.48981e-12
7.39576e-12
8.25641e-12
7.36659e-12
7.71668e-12
7.16236e-12
7.26448e-12
7.10402e-12
6.92897e-12
6.60805e-12
6.82686e-12
6.03914e-12
6.69557e-12
5.93703e-12
6.433e-12
6.02455e-12
5.514e-12
5.95162e-12
5.44106e-12
5.67446e-12
5.44106e-12
5.47024e-12
5.514e-12
5.32436e-12
5.60152e-12
5.36813e-12
5.60152e-12
5.76198e-12
5.99538e-12
5.49941e-12
6.17043e-12
5.64529e-12
6.433e-12
6.03914e-12
6.50594e-12
5.95162e-12
6.95814e-12
6.27254e-12
6.68098e-12
6.41841e-12
6.85603e-12
6.5497e-12
6.95814e-12
6.46217e-12
7.19154e-12
6.57887e-12
7.42494e-12
7.4687e-12
7.2353e-12
7.64375e-12
7.80421e-12
7.78962e-12
8.0376e-12
8.73779e-12
7.99384e-12
8.62109e-12
8.57733e-12
8.8399e-12
8.57733e-12
9.24835e-12
9.3067e-12
9.65679e-12
9.56927e-12
1.00652e-11
1.02549e-11
1.05029e-11
1.05029e-11
1.10718e-11
1.11301e-11
1.20053e-11
1.18595e-11
1.20345e-11
1.26326e-11
1.22679e-11
1.24576e-11
1.2866e-11
1.28076e-11
1.29098e-11
1.35224e-11
1.3362e-11
1.35224e-11
1.36245e-11
1.42956e-11
1.42518e-11
1.43977e-11
1.43247e-11
1.55209e-11
1.41497e-11
1.51124e-11
1.42372e-11
1.56376e-11
1.45435e-11
1.4456e-11
1.47478e-11
1.42956e-11
1.44706e-11
1.44852e-11
1.36537e-11
1.46748e-11
1.37412e-11
1.38288e-11
1.33036e-11
1.39017e-11
1.27055e-11
1.3362e-11
1.26034e-11
1.28368e-11
1.32599e-11
1.23554e-11
1.29098e-11
1.21658e-11
1.22242e-11
1.13635e-11
1.19178e-11
1.08384e-11
1.15386e-11
1.04007e-11
1.08384e-11
9.97771e-12
1.08821e-11
9.7589e-12
1.04445e-11
9.33587e-12
9.46716e-12
8.59192e-12
8.9566e-12
8.06678e-12
8.31476e-12
7.5854e-12
8.24182e-12
7.352e-12
7.90632e-12
7.39576e-12
7.62916e-12
7.29365e-12
8.02302e-12
7.64375e-12
7.99384e-12
8.21265e-12
8.3877e-12
8.34394e-12
8.53357e-12
8.91284e-12
8.89825e-12
9.35046e-12
9.23376e-12
9.48175e-12
9.72973e-12
9.80267e-12
9.90478e-12
1.04883e-11
1.0109e-11
1.08384e-11
1.08092e-11
1.07654e-11
1.10863e-11
1.07946e-11
1.14219e-11
1.11447e-11
1.15386e-11
1.11301e-11
1.13489e-11
1.11301e-11
1.16407e-11
1.07654e-11
1.13343e-11
1.05612e-11
1.11155e-11
1.05612e-11
1.12176e-11
1.08092e-11
1.10863e-11
1.04007e-11
1.09259e-11
1.03424e-11
1.0605e-11
1.02403e-11
1.00652e-11
9.80267e-12
9.97771e-12
9.40881e-12
9.40881e-12
8.94202e-12
9.16082e-12
8.57733e-12
9.04413e-12
8.30017e-12
8.65027e-12
8.11054e-12
8.05219e-12
7.95008e-12
7.86255e-12
7.2353e-12
8.00843e-12
6.73933e-12
7.32282e-12
6.76851e-12
6.82686e-12
6.05373e-12
6.21419e-12
5.514e-12
5.93703e-12
5.60152e-12
5.96621e-12
5.87868e-12
6.03914e-12
6.22878e-12
5.80575e-12
6.05373e-12
6.5497e-12
6.11208e-12
5.99538e-12
5.87868e-12
6.38924e-12
6.06832e-12
5.38271e-12
5.60152e-12
5.76198e-12
5.01803e-12
5.61611e-12
4.94509e-12
5.80575e-12
5.514e-12
5.35354e-12
5.07638e-12
5.95162e-12
5.36813e-12
5.2806e-12
5.38271e-12
5.32436e-12
5.33895e-12
5.10556e-12
5.07638e-12
5.10556e-12
5.67446e-12
4.91592e-12
5.96621e-12
4.88675e-12
6.1996e-12
5.1639e-12
5.89327e-12
4.98886e-12
6.28713e-12
5.45565e-12
5.86409e-12
5.60152e-12
6.34548e-12
5.54317e-12
6.24336e-12
5.54317e-12
6.46217e-12
6.14125e-12
6.89979e-12
6.27254e-12
7.30824e-12
6.92897e-12
7.87714e-12
7.19154e-12
8.21265e-12
7.52705e-12
8.35852e-12
7.99384e-12
8.51898e-12
8.72321e-12
8.94202e-12
9.39422e-12
9.68597e-12
1.01965e-11
1.03424e-11
1.03424e-11
1.13052e-11
1.02111e-11
1.16698e-11
1.08092e-11
1.13489e-11
1.1028e-11
1.14948e-11
1.11739e-11
1.15677e-11
1.1524e-11
1.09842e-11
1.17574e-11
1.15531e-11
1.12468e-11
1.1699e-11
1.1451e-11
1.16698e-11
1.14802e-11
1.18886e-11
1.12906e-11
1.18595e-11
1.10572e-11
1.16698e-11
1.11009e-11
1.12614e-11
1.07071e-11
1.11009e-11
1.04007e-11
1.10863e-11
1.02111e-11
1.04737e-11
9.86101e-12
1.03132e-11
9.29211e-12
1.02403e-11
9.10248e-12
1.02257e-11
9.40881e-12
1.06633e-11
9.56927e-12
1.09259e-11
9.81725e-12
1.07946e-11
1.03132e-11
1.13489e-11
1.02986e-11
1.20491e-11
1.02403e-11
1.21366e-11
1.05758e-11
1.25888e-11
1.06487e-11
1.3362e-11
1.13635e-11
1.34057e-11
1.2122e-11
1.35078e-11
1.24576e-11
1.34349e-11
1.24721e-11
1.34787e-11
1.2691e-11
1.38725e-11
1.30265e-11
1.37996e-11
1.32453e-11
1.48207e-11
1.35224e-11
1.50833e-11
1.36391e-11
1.53896e-11
1.42956e-11
1.51708e-11
1.53458e-11
1.50249e-11
1.49666e-11
1.55792e-11
1.4208e-11
1.63524e-11
1.46019e-11
1.57689e-11
1.43393e-11
1.67754e-11
1.40476e-11
1.60898e-11
1.41205e-11
1.57835e-11
1.46602e-11
1.49228e-11
1.48645e-11
1.48936e-11
1.46019e-11
1.43831e-11
1.47623e-11
1.35078e-11
1.47332e-11
1.3289e-11
1.37412e-11
1.29973e-11
1.40913e-11
1.29389e-11
1.29681e-11
1.29681e-11
1.29098e-11
1.25013e-11
1.29389e-11
1.20929e-11
1.24721e-11
1.17574e-11
1.20199e-11
1.12468e-11
1.1451e-11
1.04737e-11
1.0853e-11
1.02111e-11
1.06925e-11
9.83184e-12
1.01819e-11
9.55468e-12
1.01236e-11
9.45257e-12
9.68597e-12
9.40881e-12
9.86101e-12
9.20459e-12
9.83184e-12
9.00036e-12
9.65679e-12
9.02954e-12
9.4234e-12
9.16082e-12
9.62762e-12
9.39422e-12
9.62762e-12
9.70055e-12
9.81725e-12
9.89019e-12
1.01236e-11
9.74432e-12
1.02549e-11
1.00798e-11
1.05174e-11
1.02403e-11
1.08675e-11
9.96313e-12
1.13781e-11
1.01965e-11
1.13635e-11
1.07654e-11
1.11739e-11
1.12614e-11
1.1203e-11
1.09113e-11
1.1699e-11
1.12176e-11
1.1203e-11
1.11447e-11
1.17574e-11
1.04883e-11
1.20053e-11
1.04445e-11
1.14219e-11
1.04007e-11
1.18595e-11
1.01819e-11
1.1276e-11
1.09551e-11
1.10572e-11
1.06779e-11
1.16698e-11
9.68597e-12
1.18157e-11
1.00944e-11
1.12614e-11
1.00215e-11
1.07508e-11
8.98578e-12
1.02111e-11
8.8399e-12
9.11706e-12
8.41687e-12
8.62109e-12
8.1543e-12
7.95008e-12
7.62916e-12
7.42494e-12
7.03108e-12
6.72475e-12
6.75392e-12
5.90786e-12
6.25795e-12
5.58694e-12
5.70363e-12
5.20767e-12
4.90133e-12
4.95968e-12
4.53665e-12
4.65335e-12
4.41995e-12
4.62417e-12
4.595e-12
4.8284e-12
5.06179e-12
5.04721e-12
5.41189e-12
5.84951e-12
5.64529e-12
5.6307e-12
6.14125e-12
6.21419e-12
6.33089e-12
6.71016e-12
6.84144e-12
6.84144e-12
7.61457e-12
7.36659e-12
8.18348e-12
7.80421e-12
8.72321e-12
7.95008e-12
9.37963e-12
8.3877e-12
9.23376e-12
8.41687e-12
9.78808e-12
8.5044e-12
9.58386e-12
9.26294e-12
9.68597e-12
8.9566e-12
9.90478e-12
8.63568e-12
1.00652e-11
8.69403e-12
9.4234e-12
8.54816e-12
9.46716e-12
8.13971e-12
9.32128e-12
7.83338e-12
9.04413e-12
8.62109e-12
9.19e-12
8.48981e-12
8.9566e-12
8.18348e-12
9.43798e-12
8.32935e-12
9.08789e-12
8.28559e-12
9.93395e-12
7.57081e-12
9.83184e-12
8.0376e-12
8.75238e-12
7.86255e-12
8.89825e-12
7.74586e-12
8.32935e-12
8.05219e-12
7.24989e-12
7.64375e-12
7.43952e-12
6.84144e-12
7.14778e-12
7.06025e-12
6.49135e-12
6.81227e-12
6.91438e-12
6.14125e-12
6.0829e-12
5.77657e-12
5.77657e-12
5.57235e-12
5.48482e-12
5.19308e-12
4.84298e-12
4.52206e-12
4.53665e-12
4.09903e-12
4.37619e-12
3.96775e-12
3.88022e-12
3.96775e-12
3.58848e-12
3.63224e-12
3.26756e-12
3.29673e-12
2.49443e-12
2.69865e-12
2.24644e-12
2.04222e-12
2.21727e-12
2.01305e-12
1.4879e-12
2.17351e-12
1.18157e-12
1.54625e-12
1.61919e-12
1.73589e-12
1.4879e-12
1.98387e-12
1.16698e-12
2.17351e-12
1.34203e-12
1.77965e-12
1.42956e-12
2.05681e-12
1.88176e-12
2.1881e-12
2.14433e-12
2.36314e-12
2.08598e-12
2.1881e-12
2.93205e-12
2.34856e-12
2.6403e-12
2.71324e-12
3.41343e-12
2.90287e-12
3.36967e-12
3.18003e-12
3.76352e-12
3.38425e-12
3.95316e-12
3.20921e-12
4.08444e-12
4.14279e-12
4.33243e-12
4.11362e-12
4.93051e-12
4.7117e-12
4.79922e-12
4.65335e-12
4.84298e-12
5.06179e-12
5.13473e-12
5.32436e-12
5.14932e-12
5.52859e-12
5.6307e-12
5.52859e-12
5.76198e-12
5.58694e-12
5.99538e-12
5.95162e-12
6.41841e-12
6.36006e-12
6.98732e-12
6.87062e-12
6.98732e-12
6.97273e-12
7.06025e-12
7.20613e-12
6.76851e-12
7.16236e-12
6.49135e-12
6.85603e-12
6.6664e-12
6.38924e-12
6.34548e-12
6.44759e-12
5.73281e-12
6.24336e-12
5.7474e-12
5.49941e-12
5.52859e-12
5.13473e-12
5.38271e-12
4.74087e-12
4.84298e-12
4.49289e-12
4.53665e-12
4.18656e-12
4.08444e-12
3.70517e-12
3.74894e-12
3.42802e-12
3.57389e-12
3.54471e-12
3.38425e-12
2.91746e-12
3.3259e-12
2.77159e-12
3.00498e-12
3.13627e-12
3.20921e-12
3.19462e-12
2.90287e-12
3.19462e-12
3.28214e-12
3.41343e-12
3.09251e-12
3.61765e-12
3.25297e-12
4.30325e-12
3.28214e-12
4.50748e-12
3.64683e-12
4.55124e-12
3.69059e-12
4.68252e-12
3.80729e-12
4.93051e-12
4.53665e-12
4.93051e-12
5.04721e-12
4.98886e-12
4.60959e-12
5.33895e-12
4.95968e-12
4.97427e-12
4.90133e-12
5.22225e-12
4.63876e-12
4.31784e-12
4.56582e-12
4.06986e-12
4.58041e-12
3.83646e-12
4.08444e-12
3.80729e-12
4.11362e-12
3.35508e-12
3.71976e-12
3.38425e-12
3.25297e-12
2.81535e-12
2.90287e-12
2.61113e-12
3.16544e-12
2.42149e-12
3.00498e-12
2.10057e-12
2.80076e-12
2.50902e-12
2.50902e-12
2.27562e-12
2.10057e-12
2.02763e-12
1.75048e-12
1.89635e-12
1.80883e-12
1.61919e-12
1.50249e-12
1.42956e-12
1.13781e-12
1.0357e-12
1.0357e-12
9.77349e-13
8.75238e-13
9.77349e-13
5.54317e-13
7.73127e-13
3.35508e-13
3.06333e-13
1.45873e-13
1.75048e-13
1.6046e-13
8.75238e-14
4.95968e-13
3.06333e-13
8.75238e-13
7.0019e-13
1.54625e-12
8.16889e-13
1.80883e-12
9.77349e-13
2.26103e-12
1.10863e-12
2.59654e-12
1.44414e-12
2.84452e-12
1.32744e-12
3.01957e-12
1.40038e-12
3.18003e-12
1.80883e-12
2.88829e-12
1.79424e-12
3.09251e-12
1.50249e-12
2.97581e-12
1.77965e-12
2.71324e-12
1.89635e-12
3.09251e-12
1.94011e-12
2.97581e-12
2.0714e-12
2.757e-12
2.36314e-12
2.68406e-12
2.21727e-12
2.69865e-12
2.08598e-12
2.94663e-12
2.10057e-12
2.72783e-12
2.12975e-12
3.00498e-12
1.63378e-12
2.78617e-12
1.82341e-12
2.1881e-12
1.63378e-12
2.17351e-12
1.35662e-12
1.59002e-12
1.12322e-12
1.07946e-12
7.73127e-13
6.27254e-13
8.75238e-13
5.54317e-13
1.09405e-12
2.47984e-13
7.29365e-13
1.02111e-13
4.23032e-13
7.29365e-14
1.89635e-13
5.83492e-13
4.66794e-13
1.23992e-12
7.14778e-13
1.40038e-12
1.23992e-12
1.44414e-12
1.37121e-12
2.01305e-12
1.61919e-12
2.36314e-12
2.21727e-12
2.85911e-12
2.8737e-12
3.63224e-12
3.36967e-12
4.01151e-12
4.31784e-12
4.50748e-12
4.95968e-12
4.69711e-12
5.48482e-12
5.36813e-12
5.48482e-12
5.7474e-12
5.92244e-12
5.64529e-12
6.03914e-12
6.38924e-12
5.93703e-12
6.98732e-12
6.433e-12
6.89979e-12
6.89979e-12
6.97273e-12
7.70209e-12
6.98732e-12
7.93549e-12
7.59998e-12
8.13971e-12
8.11054e-12
8.51898e-12
8.51898e-12
8.48981e-12
8.75238e-12
8.85449e-12
8.54816e-12
8.57733e-12
8.82532e-12
8.37311e-12
7.95008e-12
8.44605e-12
7.57081e-12
8.0376e-12
7.89173e-12
7.45411e-12
7.41035e-12
6.84144e-12
6.71016e-12
6.433e-12
6.33089e-12
5.70363e-12
6.18502e-12
5.47024e-12
5.514e-12
4.97427e-12
4.77005e-12
4.66794e-12
4.7117e-12
4.79922e-12
4.62417e-12
4.58041e-12
4.18656e-12
3.88022e-12
3.89481e-12
3.54471e-12
3.53013e-12
3.45719e-12
3.22379e-12
2.97581e-12
3.07792e-12
2.6403e-12
2.94663e-12
2.72783e-12
2.39232e-12
2.56736e-12
2.56736e-12
2.59654e-12
2.62571e-12
2.6403e-12
2.27562e-12
2.62571e-12
2.55278e-12
2.37773e-12
2.26103e-12
2.33397e-12
2.14433e-12
2.10057e-12
1.64836e-12
1.85259e-12
1.59002e-12
1.70671e-12
1.61919e-12
1.92552e-12
1.41497e-12
1.94011e-12
1.61919e-12
1.25451e-12
1.35662e-12
1.32744e-12
9.77349e-13
1.05029e-12
8.02302e-13
8.60651e-13
4.95968e-13
5.68905e-13
4.37619e-14
2.77159e-13
1.75048e-13
5.83492e-14
3.7927e-13
3.7927e-13
5.98079e-13
8.75238e-13
1.34203e-12
1.06487e-12
1.92552e-12
1.42956e-12
2.43608e-12
1.88176e-12
2.80076e-12
2.14433e-12
2.88829e-12
2.26103e-12
3.01957e-12
2.31938e-12
2.6403e-12
2.46525e-12
2.56736e-12
2.11516e-12
2.1881e-12
1.7213e-12
1.99846e-12
1.47332e-12
1.79424e-12
1.00652e-12
1.51708e-12
6.71016e-13
9.19e-13
7.29365e-13
1.06487e-12
7.5854e-13
8.89825e-13
1.02111e-12
9.62762e-13
1.10863e-12
6.12667e-13
1.0357e-12
5.83492e-13
9.91936e-13
3.7927e-13
6.56429e-13
7.29365e-14
1.6046e-13
5.3973e-13
1.45873e-14
8.75238e-13
2.47984e-13
1.40038e-12
5.98079e-13
1.61919e-12
1.13781e-12
2.01305e-12
1.64836e-12
2.27562e-12
1.92552e-12
2.47984e-12
1.9547e-12
2.53819e-12
2.27562e-12
2.58195e-12
2.6403e-12
2.66948e-12
2.46525e-12
2.82994e-12
2.90287e-12
2.58195e-12
2.82994e-12
2.84452e-12
2.81535e-12
2.74241e-12
2.6403e-12
2.55278e-12
2.5236e-12
2.04222e-12
2.04222e-12
2.0714e-12
1.7213e-12
1.59002e-12
1.41497e-12
1.02111e-12
1.09405e-12
9.19e-13
7.43952e-13
4.52206e-13
2.04222e-13
7.29365e-14
3.64683e-13
2.1881e-13
1.6046e-13
2.91746e-14
3.20921e-13
1.31286e-13
4.81381e-13
2.47984e-13
3.93857e-13
1.75048e-13
5.68905e-13
1.75048e-13
5.25143e-13
2.91746e-14
2.77159e-13
8.75238e-14
1.31286e-13
3.06333e-13
1.16698e-13
4.37619e-13
4.95968e-13
5.68905e-13
5.83492e-13
4.81381e-13
4.52206e-13
9.77349e-13
1.02111e-12
1.38579e-12
1.1524e-12
1.85259e-12
1.53167e-12
2.1881e-12
1.838e-12
2.82994e-12
2.05681e-12
3.19462e-12
2.53819e-12
2.82994e-12
2.78617e-12
3.20921e-12
2.5236e-12
3.12168e-12
2.46525e-12
2.90287e-12
2.72783e-12
2.88829e-12
2.80076e-12
2.65489e-12
2.29021e-12
2.34856e-12
1.98387e-12
2.01305e-12
1.66295e-12
1.88176e-12
1.64836e-12
1.838e-12
1.69213e-12
2.17351e-12
1.75048e-12
2.27562e-12
1.96929e-12
2.50902e-12
2.15892e-12
2.43608e-12
2.30479e-12
2.65489e-12
2.4069e-12
3.04875e-12
2.90287e-12
3.42802e-12
3.34049e-12
3.80729e-12
3.60306e-12
4.14279e-12
3.85105e-12
4.44913e-12
4.52206e-12
4.72629e-12
5.00344e-12
4.95968e-12
5.09097e-12
5.64529e-12
4.77005e-12
5.44106e-12
5.42648e-12
4.84298e-12
5.22225e-12
5.93703e-12
5.03262e-12
5.29519e-12
4.97427e-12
5.68905e-12
4.79922e-12
4.55124e-12
4.68252e-12
4.56582e-12
3.98233e-12
4.74087e-12
3.36967e-12
4.55124e-12
3.53013e-12
3.93857e-12
3.4426e-12
3.98233e-12
2.94663e-12
3.36967e-12
2.77159e-12
3.01957e-12
2.72783e-12
2.29021e-12
2.37773e-12
1.85259e-12
2.0714e-12
1.77965e-12
1.50249e-12
1.1524e-12
1.18157e-12
6.56429e-13
6.12667e-13
4.81381e-13
6.85603e-13
2.1881e-13
3.35508e-13
3.50095e-13
2.91746e-14
2.62571e-13
2.62571e-13
2.77159e-13
4.66794e-13
3.64683e-13
3.7927e-13
1.31286e-13
4.37619e-13
1.89635e-13
3.35508e-13
4.37619e-13
3.35508e-13
4.37619e-14
1.02111e-13
4.37619e-14
1.6046e-13
2.77159e-13
4.52206e-13
5.54317e-13
8.75238e-13
5.83492e-13
1.16698e-12
1.06487e-12
1.19616e-12
1.38579e-12
2.0714e-12
1.9547e-12
2.33397e-12
2.5236e-12
2.77159e-12
3.03416e-12
3.35508e-12
3.42802e-12
3.73435e-12
3.63224e-12
3.96775e-12
3.95316e-12
3.74894e-12
3.85105e-12
4.05527e-12
3.69059e-12
3.96775e-12
3.86563e-12
3.85105e-12
3.83646e-12
3.88022e-12
3.74894e-12
3.69059e-12
3.10709e-12
3.54471e-12
2.66948e-12
2.88829e-12
2.49443e-12
2.23186e-12
1.98387e-12
2.23186e-12
1.61919e-12
1.86717e-12
1.07946e-12
1.38579e-12
9.48175e-13
9.62762e-13
7.14778e-13
7.0019e-13
5.98079e-13
9.48175e-13
1.1524e-12
1.1524e-12
1.34203e-12
1.29827e-12
1.66295e-12
1.69213e-12
1.70671e-12
2.17351e-12
2.01305e-12
2.0714e-12
2.20268e-12
1.85259e-12