/*--------------------------------*- C++ -*----------------------------------*\
  =========                 |
  \\      /  F ield         | OpenFOAM: The Open Source CFD Toolbox
   \\    /   O peration     | Website:  https://openfoam.org
    \\  /    A nd           | Version:  9
     \\/     M anipulation  |
\*---------------------------------------------------------------------------*/
FoamFile
{
    format      ascii;
    class       volScalarField;
    location    "6";
    object      p;
}
// * * * * * * * * * * * * * * * * * * * * * * * * * * * * * * * * * * * * * //

dimensions      [0 2 -2 0 0 0 0];

internalField   nonuniform List<scalar> 
1000
(
1.6759736
1.5548957
1.4589152
1.3952591
1.3467496
1.3042775
1.2667423
1.2345705
1.2071702
1.1833326
1.1619383
1.1421744
1.1234973
1.1055577
1.0881424
1.0711282
1.0544474
1.0380632
1.021955
1.0061091
0.99051408
0.97515898
0.96003228
0.94512205
0.93041605
0.91590207
0.90156812
0.88740265
0.87339463
0.85953368
0.84581005
0.83221462
0.8187389
0.80537499
0.79211555
0.77895376
0.76588329
0.75289827
0.73999327
0.72716325
0.71440354
0.70170984
0.68907817
0.67650487
0.66398653
0.65152002
0.63910243
0.62673102
0.61440325
0.6021167
0.58986905
0.57765809
0.56548165
0.55333761
0.54122389
0.52913841
0.51707915
0.50504406
0.49303115
0.48103846
0.46906407
0.45710612
0.44516283
0.43323251
0.42131355
0.40940446
0.39750388
0.38561057
0.37372339
0.36184135
0.34996356
0.33808928
0.32621784
0.31434868
0.30248135
0.29061546
0.27875069
0.26688679
0.25502355
0.24316082
0.23129847
0.2194364
0.20757453
0.1957128
0.18385118
0.17198964
0.16012817
0.14826675
0.13640536
0.12454399
0.11268263
0.10082127
0.0889599
0.077098532
0.065237172
0.053375829
0.0415145
0.029653188
0.017791874
0.0059305909
1.5587539
1.5038248
1.4428723
1.3913046
1.3480346
1.3090662
1.27348
1.2417074
1.2137464
1.1889686
1.1665667
1.1458654
1.1263837
1.1077957
1.0898821
1.0724973
1.0555455
1.0389641
1.0227114
1.0067579
0.9910809
0.97566136
0.96048251
0.94552885
0.93078581
0.9162396
0.9018772
0.88768636
0.87365555
0.85977401
0.84603171
0.8324193
0.81892809
0.80555001
0.79227758
0.77910385
0.76602238
0.75302719
0.74011276
0.72727396
0.71450606
0.70180468
0.68916579
0.67658567
0.66406088
0.65158824
0.63916482
0.62678787
0.61445482
0.60216325
0.58991085
0.5776954
0.56551473
0.55336674
0.54124934
0.52916048
0.51709811
0.50506022
0.49304479
0.48104986
0.4690735
0.45711384
0.44516908
0.4332375
0.42131749
0.40940754
0.39750625
0.38561236
0.37372472
0.36184233
0.34996427
0.33808978
0.32621818
0.31434891
0.3024815
0.29061554
0.27875074
0.26688681
0.25502356
0.24316082
0.23129847
0.21943639
0.20757452
0.1957128
0.18385118
0.17198964
0.16012817
0.14826674
0.13640536
0.12454399
0.11268263
0.10082127
0.088959902
0.077098533
0.065237169
0.053375821
0.041514486
0.029653166
0.017791833
0.0059305568
1.4979326
1.4717575
1.4333607
1.3922278
1.3531425
1.3165517
1.282254
1.2505365
1.2216804
1.1955793
1.1718253
1.1499353
1.1294855
1.1101446
1.0916644
1.0738634
1.0566116
1.039816
1.0234099
1.0073448
0.9915844
0.97610071
0.96087084
0.94587535
0.93109708
0.9165206
0.90213179
0.88791764
0.87386613
0.85996611
0.84620725
0.83257996
0.81907536
0.8056852
0.79240185
0.77921823
0.76612778
0.75312441
0.74020251
0.72735687
0.71458268
0.70187551
0.68923126
0.67664616
0.66411673
0.65163975
0.63921224
0.62683144
0.61449475
0.60219972
0.58994404
0.57772548
0.56554186
0.55339108
0.54127106
0.52917974
0.51711507
0.50507505
0.49305766
0.48106094
0.46908296
0.45712185
0.44517579
0.43324308
0.42132208
0.40941128
0.39750927
0.38561477
0.37372663
0.36184381
0.34996542
0.33809066
0.32621884
0.31434941
0.30248186
0.29061581
0.27875093
0.26688695
0.25502366
0.24316089
0.23129851
0.21943642
0.20757454
0.19571281
0.18385119
0.17198965
0.16012817
0.14826674
0.13640535
0.12454399
0.11268263
0.10082127
0.088959902
0.077098531
0.065237159
0.053375801
0.04151445
0.029653114
0.017791765
0.0059305064
1.4685241
1.453026
1.4261561
1.3922322
1.3564312
1.3214799
1.2881779
1.2568249
1.2276942
1.2009027
1.1763152
1.153623
1.1324712
1.1125424
1.0935842
1.0754045
1.0578588
1.0408377
1.0242591
1.0080611
0.99219714
0.9766314
0.96133543
0.94628575
0.93146232
0.9168476
0.90242598
0.88818337
0.87410695
0.86018499
0.84640669
0.83276209
0.81924203
0.80583801
0.79254219
0.77934733
0.76624673
0.75323418
0.74030396
0.72745076
0.7146697
0.70195627
0.6893063
0.67671597
0.66418174
0.65170033
0.63926872
0.6268841
0.61454383
0.60224544
0.58998657
0.57776496
0.56557843
0.55342484
0.54130212
0.52920818
0.51714101
0.50509856
0.49307885
0.48107992
0.46909985
0.45713677
0.44518888
0.43325446
0.4213319
0.40941968
0.3975164
0.38562077
0.37373163
0.36184794
0.3499688
0.3380934
0.32622105
0.31435116
0.30248325
0.29061689
0.27875176
0.26688759
0.25502414
0.24316125
0.23129878
0.21943662
0.20757469
0.19571292
0.18385127
0.1719897
0.1601282
0.14826676
0.13640536
0.124544
0.11268264
0.10082128
0.088959904
0.077098528
0.065237146
0.053375777
0.041514411
0.029653061
0.017791702
0.0059304632
1.4557926
1.4438392
1.4216048
1.3913173
1.3574561
1.3234605
1.2907629
1.2597574
1.23066
1.2036481
1.1787211
1.1556715
1.13419
1.1139723
1.0947687
1.0763865
1.0586776
1.0415271
1.0248463
1.0085672
0.99263818
0.97701962
0.9616801
0.94659394
0.93173949
0.91709801
0.90265305
0.88838989
0.87429524
0.860357
0.84656411
0.8329064
0.81937451
0.80595981
0.79265432
0.7794507
0.76634215
0.75332238
0.74038559
0.72752643
0.71473995
0.70202158
0.68936712
0.67677269
0.66423471
0.65174986
0.63931509
0.62692755
0.61458455
0.6022836
0.59002231
0.5777984
0.56560965
0.55345393
0.54132912
0.52923316
0.51716401
0.50511963
0.49309805
0.48109731
0.46911548
0.45715072
0.44520124
0.43326534
0.42134138
0.40942788
0.39752342
0.38562673
0.37373665
0.36185213
0.34997226
0.33809623
0.32622334
0.314353
0.30248471
0.29061805
0.27875266
0.26688828
0.25502467
0.24316166
0.23129909
0.21943685
0.20757486
0.19571304
0.18385135
0.17198976
0.16012825
0.14826679
0.13640538
0.12454401
0.11268264
0.10082128
0.088959905
0.077098525
0.065237136
0.053375762
0.041514387
0.029653028
0.017791667
0.0059304398
1.4557926
1.4438392
1.4216048
1.3913173
1.3574561
1.3234605
1.2907629
1.2597574
1.23066
1.2036481
1.1787211
1.1556715
1.13419
1.1139723
1.0947687
1.0763865
1.0586776
1.0415271
1.0248463
1.0085672
0.99263818
0.97701962
0.9616801
0.94659394
0.93173948
0.91709801
0.90265305
0.88838989
0.87429523
0.860357
0.84656411
0.8329064
0.81937451
0.80595981
0.79265432
0.7794507
0.76634215
0.75332238
0.74038559
0.72752643
0.71473995
0.70202159
0.68936713
0.6767727
0.66423472
0.65174987
0.6393151
0.62692756
0.61458456
0.60228361
0.59002232
0.5777984
0.56560966
0.55345393
0.54132912
0.52923316
0.51716401
0.50511963
0.49309805
0.4810973
0.46911548
0.45715072
0.44520124
0.43326533
0.42134138
0.40942787
0.39752342
0.38562673
0.37373664
0.36185213
0.34997225
0.33809622
0.32622334
0.314353
0.30248471
0.29061804
0.27875266
0.26688828
0.25502467
0.24316165
0.23129909
0.21943685
0.20757486
0.19571304
0.18385135
0.17198976
0.16012825
0.14826679
0.13640538
0.12454401
0.11268264
0.10082128
0.088959903
0.077098522
0.065237134
0.053375759
0.041514385
0.029653028
0.017791667
0.0059304398
1.4685241
1.453026
1.4261561
1.3922322
1.3564312
1.3214799
1.2881779
1.2568249
1.2276942
1.2009027
1.1763152
1.153623
1.1324712
1.1125424
1.0935842
1.0754045
1.0578588
1.0408377
1.0242591
1.0080611
0.99219714
0.97663139
0.96133543
0.94628575
0.93146232
0.9168476
0.90242597
0.88818337
0.87410695
0.86018499
0.84640669
0.8327621
0.81924203
0.80583801
0.79254219
0.77934734
0.76624673
0.75323418
0.74030396
0.72745076
0.7146697
0.70195628
0.68930632
0.67671599
0.66418176
0.65170035
0.63926874
0.62688412
0.61454386
0.60224546
0.58998659
0.57776497
0.56557844
0.55342485
0.54130212
0.52920818
0.517141
0.50509855
0.49307885
0.48107992
0.46909984
0.45713676
0.44518887
0.43325445
0.42133189
0.40941967
0.39751639
0.38562075
0.37373161
0.36184793
0.34996879
0.33809338
0.32622103
0.31435115
0.30248323
0.29061688
0.27875175
0.26688758
0.25502414
0.24316125
0.23129878
0.21943662
0.20757469
0.19571292
0.18385126
0.1719897
0.1601282
0.14826676
0.13640537
0.124544
0.11268264
0.10082127
0.0889599
0.07709852
0.065237139
0.053375771
0.041514409
0.029653059
0.017791701
0.0059304633
1.4979326
1.4717575
1.4333607
1.3922278
1.3531425
1.3165517
1.282254
1.2505365
1.2216804
1.1955793
1.1718253
1.1499353
1.1294855
1.1101446
1.0916644
1.0738634
1.0566116
1.039816
1.0234099
1.0073448
0.9915844
0.97610071
0.96087084
0.94587534
0.93109708
0.9165206
0.90213179
0.88791764
0.87386613
0.85996611
0.84620725
0.83257997
0.81907536
0.80568521
0.79240186
0.77921823
0.76612778
0.75312441
0.74020251
0.72735687
0.71458269
0.70187552
0.68923128
0.67664619
0.66411676
0.65163978
0.63921227
0.62683147
0.61449478
0.60219975
0.58994407
0.57772549
0.56554187
0.55339109
0.54127106
0.52917973
0.51711507
0.50507504
0.49305765
0.48106093
0.46908295
0.45712183
0.44517578
0.43324307
0.42132207
0.40941126
0.39750925
0.38561475
0.37372661
0.36184379
0.3499654
0.33809064
0.32621882
0.31434939
0.30248184
0.2906158
0.27875091
0.26688694
0.25502365
0.24316088
0.23129851
0.21943642
0.20757454
0.19571281
0.18385118
0.17198964
0.16012816
0.14826674
0.13640535
0.12454399
0.11268263
0.10082127
0.088959896
0.077098522
0.065237148
0.053375793
0.041514446
0.029653112
0.017791763
0.0059305061
1.5587539
1.5038248
1.4428723
1.3913046
1.3480346
1.3090662
1.27348
1.2417074
1.2137464
1.1889686
1.1665667
1.1458653
1.1263837
1.1077957
1.0898821
1.0724973
1.0555455
1.0389641
1.0227114
1.0067579
0.99108089
0.97566135
0.9604825
0.94552884
0.9307858
0.91623959
0.9018772
0.88768636
0.87365555
0.85977402
0.84603172
0.83241931
0.81892809
0.80555002
0.79227758
0.77910385
0.76602238
0.7530272
0.74011277
0.72727397
0.71450607
0.7018047
0.68916581
0.6765857
0.66406091
0.65158828
0.63916486
0.62678791
0.61445486
0.60216328
0.58991088
0.57769541
0.56551474
0.55336674
0.54124934
0.52916047
0.51709811
0.50506021
0.49304478
0.48104985
0.46907349
0.45711383
0.44516906
0.43323749
0.42131747
0.40940752
0.39750623
0.38561234
0.3737247
0.3618423
0.34996424
0.33808975
0.32621815
0.31434889
0.30248147
0.29061552
0.27875072
0.2668868
0.25502355
0.24316082
0.23129847
0.21943639
0.20757452
0.19571279
0.18385117
0.17198963
0.16012816
0.14826674
0.13640536
0.124544
0.11268263
0.10082127
0.088959894
0.077098523
0.065237157
0.053375813
0.041514483
0.029653165
0.017791831
0.0059305551
1.6759736
1.5548957
1.4589152
1.3952591
1.3467496
1.3042775
1.2667423
1.2345705
1.2071702
1.1833326
1.1619383
1.1421744
1.1234973
1.1055577
1.0881424
1.0711282
1.0544474
1.0380632
1.021955
1.0061091
0.99051408
0.97515897
0.96003227
0.94512204
0.93041604
0.91590207
0.90156812
0.88740265
0.87339463
0.85953369
0.84581006
0.83221463
0.81873891
0.805375
0.79211555
0.77895376
0.76588329
0.75289828
0.73999328
0.72716325
0.71440355
0.70170985
0.68907819
0.67650489
0.66398656
0.65152005
0.63910246
0.62673105
0.61440328
0.60211672
0.58986907
0.5776581
0.56548165
0.55333761
0.54122388
0.5291384
0.51707913
0.50504404
0.49303113
0.48103844
0.46906405
0.45710611
0.44516282
0.43323249
0.42131353
0.40940444
0.39750386
0.38561055
0.37372337
0.36184132
0.34996354
0.33808926
0.32621781
0.31434866
0.30248133
0.29061544
0.27875067
0.26688677
0.25502355
0.24316082
0.23129847
0.2194364
0.20757452
0.19571279
0.18385117
0.17198964
0.16012817
0.14826675
0.13640537
0.124544
0.11268263
0.10082126
0.088959892
0.077098523
0.065237165
0.053375825
0.0415145
0.029653185
0.017791868
0.0059305878
)
;

boundaryField
{
    top
    {
        type            zeroGradient;
    }
    inlet
    {
        type            zeroGradient;
    }
    outlet
    {
        type            fixedValue;
        value           uniform 0;
    }
    bottom
    {
        type            zeroGradient;
    }
    back
    {
        type            empty;
    }
    front
    {
        type            empty;
    }
}


// ************************************************************************* //
