/*--------------------------------*- C++ -*----------------------------------*\
  =========                 |
  \\      /  F ield         | OpenFOAM: The Open Source CFD Toolbox
   \\    /   O peration     | Website:  https://openfoam.org
    \\  /    A nd           | Version:  9
     \\/     M anipulation  |
\*---------------------------------------------------------------------------*/
FoamFile
{
    format      ascii;
    class       volScalarField;
    location    "0.69";
    object      p;
}
// * * * * * * * * * * * * * * * * * * * * * * * * * * * * * * * * * * * * * //

dimensions      [1 -1 -2 0 0 0 0];

internalField   nonuniform List<scalar> 
10000
(
0
0.0035502577
-0.0009017519
-0.0084232649
-0.020145674
-0.035961666
-0.055894006
-0.079785869
-0.10763218
-0.13937421
-0.174928
-0.21421672
-0.25703993
-0.30326623
-0.35279002
-0.40544347
-0.46105883
-0.51942236
-0.58027689
-0.64340337
-0.70859345
-0.77559612
-0.84412971
-0.91387241
-0.9844438
-1.0554761
-1.1266217
-1.1974393
-1.2673733
-1.3358177
-1.402129
-1.4655719
-1.5253374
-1.580713
-1.6311081
-1.6752747
-1.7119597
-1.7402287
-1.7594158
-1.7689544
-1.7684762
-1.7580121
-1.7381714
-1.7102317
-1.6763091
-1.6399658
-1.6066876
-1.5838606
-1.5475877
-1.5651079
-1.6177208
-1.7194712
-1.8825655
-2.1164261
-2.424358
-2.7991402
-3.2219803
-3.6654253
-4.1001003
-4.5017775
-4.8546877
-5.1527773
-5.3977879
-5.5981522
-5.7613437
-5.893636
-6.0013563
-6.0901165
-6.164221
-6.2266845
-6.2797616
-6.3249029
-6.3632217
-6.3954493
-6.4220451
-6.4432658
-6.4593515
-6.4704992
-6.476887
-6.4787718
-6.4763861
-6.4700136
-6.4600496
-6.4469087
-6.4310264
-6.412913
-6.3930807
-6.3720279
-6.3502354
-6.3282163
-6.3065115
-6.2856189
-6.2660001
-6.2480347
-6.2320905
-6.2184629
-6.2073595
-6.1989983
-6.1923587
-6.1917056
-0.014452099
-0.010864059
-0.015359436
-0.022997011
-0.034798322
-0.050789338
-0.070814063
-0.094853815
-0.12285725
-0.15474468
-0.19048613
-0.22989359
-0.27282485
-0.3191823
-0.36880401
-0.42153747
-0.47719366
-0.53551962
-0.59629797
-0.6593278
-0.72436348
-0.79114881
-0.85940274
-0.92876548
-0.99886692
-1.0693791
-1.139939
-1.2100622
-1.27921
-1.3468417
-1.4123511
-1.4750474
-1.534247
-1.5892763
-1.6392541
-1.683027
-1.71957
-1.7479163
-1.7672586
-1.7769228
-1.7764331
-1.7657096
-1.7452348
-1.7161165
-1.6802493
-1.6408007
-1.6022894
-1.5695335
-1.5437227
-1.547203
-1.5885047
-1.6810233
-1.8374862
-2.0702344
-2.3856196
-2.7770139
-3.2240723
-3.6946844
-4.1538823
-4.5750442
-4.9435992
-5.2537677
-5.5079254
-5.7137008
-5.8782064
-6.0089681
-6.1133677
-6.1975687
-6.2662421
-6.3228213
-6.369829
-6.40897
-6.4413775
-6.4678912
-6.4889968
-6.5049991
-6.5161251
-6.5225363
-6.5244377
-6.5220662
-6.5156411
-6.5054774
-6.4919404
-6.4754398
-6.456435
-6.4354217
-6.4128963
-6.3893542
-6.365285
-6.3412054
-6.3176226
-6.2950269
-6.2738711
-6.2545444
-6.2374201
-6.2228102
-6.2109317
-6.2020278
-6.1949989
-6.1942917
-0.020072615
-0.016316176
-0.020861603
-0.028504432
-0.040447356
-0.056507988
-0.076688217
-0.10092247
-0.12912691
-0.16128734
-0.19726226
-0.23691329
-0.28014345
-0.32679294
-0.37671579
-0.4297529
-0.48566627
-0.54424294
-0.60529167
-0.66855952
-0.73380202
-0.80079041
-0.86921662
-0.93871611
-1.0089615
-1.0796328
-1.1503308
-1.2205956
-1.2899509
-1.3578878
-1.423824
-1.4871232
-1.5471198
-1.603086
-1.6541401
-1.6992742
-1.7374403
-1.7677096
-1.7891641
-1.8009896
-1.8025527
-1.7935554
-1.7741975
-1.7453548
-1.7086914
-1.6669261
-1.6239987
-1.584972
-1.5562289
-1.5484688
-1.5782065
-1.6623694
-1.8134454
-2.0479187
-2.3783051
-2.796624
-3.2795992
-3.7871886
-4.2759985
-4.7155044
-5.0930125
-5.4060868
-5.6589257
-5.8584831
-6.0138154
-6.1344322
-6.2286992
-6.3033291
-6.3631709
-6.4117856
-6.4515985
-6.4842626
-6.5107702
-6.5318906
-6.5480268
-6.5593744
-6.5661037
-6.5683344
-6.5662496
-6.5600605
-6.5499673
-6.5362718
-6.519344
-6.4996042
-6.4775253
-6.4535856
-6.4282725
-6.4020995
-6.3755566
-6.349175
-6.323473
-6.2989618
-6.2760891
-6.2552561
-6.2368345
-6.2211599
-6.2084814
-6.1990462
-6.1916659
-6.191112
-0.023170813
-0.019379592
-0.023955267
-0.03173558
-0.043785053
-0.060037612
-0.080465462
-0.10495998
-0.13350863
-0.16600726
-0.20233621
-0.2424145
-0.28608906
-0.33320122
-0.38360323
-0.43709613
-0.49348232
-0.55256631
-0.61409664
-0.677823
-0.74353842
-0.81099658
-0.87987287
-0.9498313
-1.020562
-1.0917123
-1.1628905
-1.2336906
-1.3036651
-1.3723086
-1.4390794
-1.5034103
-1.5646505
-1.6220586
-1.6748257
-1.7220377
-1.762735
-1.7959093
-1.8205101
-1.8355736
-1.8403198
-1.8341589
-1.8169473
-1.7892326
-1.7523956
-1.7087639
-1.6618209
-1.6166395
-1.5808875
-1.5563589
-1.5708993
-1.644522
-1.784604
-2.020396
-2.3774978
-2.8398738
-3.3828253
-3.9466747
-4.4731469
-4.9337821
-5.3214248
-5.6358296
-5.8813516
-6.0668975
-6.2050928
-6.3079189
-6.3851241
-6.443992
-6.4898066
-6.5261622
-6.5554038
-6.5789264
-6.5975375
-6.611687
-6.6215471
-6.6271584
-6.628517
-6.6256841
-6.6187591
-6.6078564
-6.5931836
-6.5750574
-6.5538504
-6.5299703
-6.5038897
-6.4761111
-6.4471367
-6.4174959
-6.3877106
-6.3583077
-6.3298352
-6.3027882
-6.2776345
-6.2548082
-6.2346754
-6.2175805
-6.2038013
-6.1936069
-6.1857837
-6.1855529
-0.023282148
-0.019432764
-0.024173597
-0.032030938
-0.044265482
-0.060771913
-0.0814827
-0.10635304
-0.13529054
-0.16820777
-0.2050415
-0.24565538
-0.28989375
-0.3376085
-0.38861433
-0.44273499
-0.49979848
-0.55955477
-0.62173049
-0.68612387
-0.75253379
-0.82068019
-0.89024385
-0.96091844
-1.0323902
-1.1043087
-1.176322
-1.2480562
-1.3190659
-1.3888858
-1.4570532
-1.5230661
-1.5863127
-1.6460846
-1.7016488
-1.7522143
-1.7968359
-1.8344418
-1.8639133
-1.8841348
-1.8940128
-1.892555
-1.8791675
-1.8539807
-1.8180361
-1.7732798
-1.7226575
-1.670369
-1.6225531
-1.5882578
-1.5781414
-1.6377655
-1.7623796
-2.0094523
-2.4174868
-2.9328845
-3.5641611
-4.2299976
-4.8062271
-5.2766937
-5.6644275
-5.9694243
-6.1940753
-6.3519028
-6.4605121
-6.5348812
-6.5863198
-6.6225286
-6.6488768
-6.6687578
-6.6841035
-6.6958464
-6.7043343
-6.7096073
-6.711541
-6.7099169
-6.7045468
-6.695371
-6.6823708
-6.6655873
-6.6452117
-6.6215669
-6.5950096
-6.5659427
-6.5348596
-6.5022835
-6.4687477
-6.4347816
-6.4009329
-6.3677539
-6.3358178
-6.3056086
-6.2776137
-6.252283
-6.2299946
-6.2111109
-6.1959322
-6.1847412
-6.1763017
-6.1760236
-0.020021215
-0.016203147
-0.021058553
-0.029065968
-0.041539356
-0.058320349
-0.079411064
-0.10470086
-0.13409936
-0.16757592
-0.20502566
-0.24629554
-0.29124052
-0.33968698
-0.39146697
-0.44642868
-0.50434743
-0.56494029
-0.62798042
-0.69328675
-0.76062166
-0.82969665
-0.90021711
-0.9718831
-1.0443924
-1.1174335
-1.1906738
-1.2637413
-1.3362165
-1.4077061
-1.4778249
-1.5461071
-1.6120253
-1.6749746
-1.7343243
-1.7893792
-1.8392394
-1.8828628
-1.9191158
-1.9466611
-1.963983
-1.9695475
-1.9621286
-1.9412854
-1.9076914
-1.8630496
-1.8097527
-1.7512667
-1.6939028
-1.6424674
-1.5982216
-1.6360801
-1.7798213
-2.0584041
-2.5795868
-3.153214
-3.8800702
-4.6615269
-5.3222525
-5.7927132
-6.1525819
-6.4347158
-6.619871
-6.7270425
-6.7861416
-6.8169277
-6.8309755
-6.8357224
-6.8361191
-6.8348506
-6.8328614
-6.830266
-6.8266984
-6.8215887
-6.8143722
-6.8044507
-6.7913641
-6.7748797
-6.7548629
-6.7313
-6.704343
-6.6742812
-6.6414734
-6.6063425
-6.5694021
-6.5312032
-6.492283
-6.4532158
-6.4145714
-6.3769371
-6.3408712
-6.306887
-6.2755002
-6.2471614
-6.2222769
-6.2012244
-6.184342
-6.1719217
-6.1626453
-6.1620271
-0.013423232
-0.0095449018
-0.014605649
-0.02281523
-0.035551157
-0.052705347
-0.074218456
-0.099988963
-0.12998446
-0.16413383
-0.20231074
-0.24437837
-0.29016575
-0.33951045
-0.39227678
-0.44826286
-0.50719591
-0.56883614
-0.63298938
-0.69943661
-0.76791554
-0.83816048
-0.90989941
-0.98284246
-1.0567053
-1.1311994
-1.2060068
-1.2807786
-1.3551408
-1.4287577
-1.5013107
-1.5723989
-1.6416172
-1.7085253
-1.7725898
-1.833231
-1.8897806
-1.941345
-1.9866968
-2.0242783
-2.052135
-2.067901
-2.0692859
-2.0550045
-2.0254511
-1.9823571
-1.9278324
-1.8653631
-1.7999603
-1.7255805
-1.6160718
-1.619311
-1.8522789
-2.2323511
-3.08579
-2.8980221
-3.6336882
-5.2081111
-6.0956396
-6.6167423
-6.9017041
-7.0953992
-7.1864406
-7.2089164
-7.193384
-7.1603155
-7.1216569
-7.0840624
-7.0510659
-7.023464
-7.0006187
-6.9812719
-6.9639201
-6.9471506
-6.9297174
-6.9105414
-6.8888705
-6.864259
-6.8363892
-6.8051601
-6.7707201
-6.7333422
-6.6933756
-6.6512733
-6.6075651
-6.5628486
-6.5176962
-6.4727049
-6.4284736
-6.3856155
-6.3447078
-6.3063151
-6.2709582
-6.2390934
-6.2111437
-6.1875161
-6.1685521
-6.1545553
-6.1443153
-6.1432066
-0.0033514306
0.00054095261
-0.0047747536
-0.013201055
-0.026282444
-0.043842448
-0.065830449
-0.092207489
-0.12290339
-0.15782791
-0.19687027
-0.23986864
-0.28665681
-0.33710335
-0.39103571
-0.44819971
-0.50834945
-0.57128509
-0.63677718
-0.70456454
-0.77440504
-0.84606269
-0.9192705
-0.99375731
-1.0692662
-1.145517
-1.2222113
-1.2990453
-1.3756889
-1.4518384
-1.5272401
-1.6016293
-1.6747241
-1.7462523
-1.8158915
-1.883293
-1.9480747
-2.0096082
-2.0667663
-2.11786
-2.1603432
-2.1906049
-2.2045692
-2.1994124
-2.1752238
-2.134735
-2.0812716
-2.0171459
-1.9532367
-1.8990569
-1.7078279
-1.7092379
-2.0661901
-1.5514672
-1.8142003
-3.2633663
-3.8337274
-4.8899845
-5.7086147
-8.0388385
-7.9675565
-7.9951472
-7.9242239
-7.8148193
-7.6912624
-7.5687761
-7.458346
-7.366009
-7.2919348
-7.2331513
-7.1863807
-7.1482617
-7.1157208
-7.0862105
-7.0576395
-7.0284051
-6.9973809
-6.963804
-6.9271884
-6.8873889
-6.8445234
-6.7988495
-6.7507408
-6.7006831
-6.6492543
-6.5970712
-6.5447595
-6.4929419
-6.442276
-6.3934047
-6.3469442
-6.3034794
-6.2635355
-6.2276015
-6.1961289
-6.1695131
-6.1480867
-6.1320702
-6.121054
-6.1187887
0.010212706
0.014129019
0.0085419383
-0.00017315681
-0.01360686
-0.03160659
-0.054179548
-0.081255646
-0.1127467
-0.14857455
-0.18861011
-0.23269252
-0.28068553
-0.33242188
-0.38767032
-0.44620332
-0.50781961
-0.57228315
-0.63931275
-0.70865377
-0.78009326
-0.85339549
-0.92830252
-1.0045766
-1.081987
-1.1602723
-1.2391654
-1.3184031
-1.3976849
-1.4767268
-1.5553675
-1.633496
-1.7109514
-1.7876587
-1.8636202
-1.9388677
-2.013451
-2.0871944
-2.1593478
-2.2283078
-2.2910135
-2.3419908
-2.373763
-2.3800504
-2.360847
-2.3226828
-2.2688902
-2.1978975
-2.1510719
-2.1710938
-2.18659
-1.9611399
-1.7403003
-2.8846008
-5.4601798
-8.0168471
-9.9690205
-10.636284
-9.4987223
-9.5188104
-10.059694
-9.5556587
-8.956584
-8.572913
-8.284198
-8.0391546
-7.8362025
-7.6768481
-7.5543667
-7.4603
-7.3874003
-7.3292094
-7.2806405
-7.2377703
-7.1975413
-7.1576989
-7.116655
-7.0733434
-7.0271567
-6.9778941
-6.9256593
-6.8707092
-6.8134417
-6.7543937
-6.694209
-6.6335547
-6.5731021
-6.5135387
-6.4555722
-6.3998807
-6.3471067
-6.2978652
-6.2527086
-6.2121405
-6.1766452
-6.1466211
-6.1224044
-6.1041046
-6.0920906
-6.0883368
0.027329574
0.03130725
0.025380931
0.016396449
0.0025932327
-0.015934353
-0.039162382
-0.067014252
-0.099420483
-0.136276
-0.17745106
-0.22281615
-0.27220268
-0.32538513
-0.38214653
-0.44230224
-0.50562485
-0.57181598
-0.64058838
-0.71171394
-0.78497944
-0.86014016
-0.93695826
-1.0152359
-1.0947694
-1.1753341
-1.2567073
-1.3386642
-1.4209186
-1.503206
-1.585433
-1.667607
-1.7497645
-1.832071
-1.9148794
-1.9988239
-2.0847281
-2.1730869
-2.2637185
-2.3560804
-2.4471034
-2.5281872
-2.5849875
-2.6041732
-2.5881623
-2.5489993
-2.4804515
-2.3822197
-2.3387896
-2.2954734
-2.8689734
-2.3429405
-4.3250802
-7.6179477
-9.8194783
-12.851939
-15.446018
-16.75377
-17.247504
-14.932145
-12.439891
-11.439806
-10.354632
-9.5078671
-8.9735605
-8.5582843
-8.2411412
-8.0063386
-7.8308014
-7.6992715
-7.5995931
-7.5212599
-7.4567973
-7.4006825
-7.3487328
-7.2979852
-7.2464324
-7.1927468
-7.1362374
-7.0766592
-7.014093
-6.9488206
-6.8812984
-6.8121728
-6.7421545
-6.6719742
-6.6023712
-6.5341104
-6.4679295
-6.4045501
-6.3446666
-6.2889333
-6.2379197
-6.1921527
-6.1521256
-6.1182596
-6.0909071
-6.0701531
-6.0566617
-6.0513994
0.048084009
0.052121275
0.045892904
0.036645206
0.022404098
0.0033018394
-0.020641069
-0.049371735
-0.08280156
-0.1208259
-0.16333843
-0.21017786
-0.26111497
-0.31593891
-0.3744783
-0.43651638
-0.50175499
-0.56988099
-0.64062728
-0.71375917
-0.7890399
-0.86624387
-0.94516542
-1.0256244
-1.1074661
-1.190528
-1.2746291
-1.3596055
-1.4451944
-1.5310698
-1.6171221
-1.7035094
-1.7905492
-1.8787209
-1.9687266
-2.0618627
-2.1600988
-2.2650581
-2.3784725
-2.5014762
-2.631523
-2.7561864
-2.8498473
-2.8876574
-2.8722741
-2.8186954
-2.7071741
-2.5388843
-2.4524284
-2.7172132
-1.2778002
-4.4782081
-6.5735485
-10.273881
-14.438526
-18.781311
-22.303708
-24.037762
-23.703571
-21.254817
-17.442107
-13.524593
-12.150383
-10.674776
-9.7340659
-9.0881288
-8.6499209
-8.3398417
-8.1109926
-7.9431439
-7.8183682
-7.7214687
-7.6423487
-7.5737854
-7.5105268
-7.4489489
-7.3866418
-7.3221079
-7.2545835
-7.1837846
-7.1098432
-7.033137
-6.9542332
-6.8738782
-6.7928865
-6.7120563
-6.6322218
-6.554214
-6.4788335
-6.4068725
-6.3390693
-6.2760986
-6.2185436
-6.1669897
-6.1219178
-6.0837739
-6.0528932
-6.0294492
-6.0141999
-6.0074094
0.072528433
0.076752609
0.070231708
0.060681492
0.045989894
0.026269687
0.0015219557
-0.02818349
-0.062764311
-0.10214714
-0.1461883
-0.19466341
-0.24735332
-0.30409164
-0.36468108
-0.42882969
-0.49620572
-0.5665082
-0.63946163
-0.71479756
-0.79226482
-0.87166124
-0.95282441
-1.0356048
-1.1199004
-1.2056301
-1.2926768
-1.3809507
-1.4702586
-1.5601117
-1.6502058
-1.740866
-1.83277
-1.9267931
-2.0240306
-2.1264511
-2.2380846
-2.3631054
-2.5037932
-2.6625324
-2.8440183
-3.0371208
-3.2000569
-3.267437
-3.2296442
-3.1434594
-3.0034191
-2.7541074
-2.2812007
0.18731854
-3.0310315
-5.5783411
-8.7504481
-13.472542
-19.01831
-24.80639
-29.340106
-31.391824
-30.564152
-27.192483
-22.842716
-16.198892
-12.393338
-11.969741
-10.547756
-9.6164524
-9.0454008
-8.6621457
-8.3840793
-8.1847507
-8.0390661
-7.92686
-7.8355046
-7.7561736
-7.6825989
-7.6106146
-7.5375105
-7.461707
-7.3824223
-7.2994487
-7.2130428
-7.1237104
-7.0321872
-6.9393585
-6.8461547
-6.7534799
-6.6622578
-6.5734076
-6.4877936
-6.4063084
-6.3296993
-6.2587095
-6.1939227
-6.1359472
-6.0852875
-6.0423993
-6.0076109
-5.9811884
-5.963945
-5.9556269
0.10080536
0.10535127
0.098515963
0.088691861
0.07353528
0.053128603
0.027499913
-0.0032965577
-0.039211245
-0.080137341
-0.125865
-0.17617697
-0.23090056
-0.28984648
-0.35273861
-0.41923982
-0.48901853
-0.56175751
-0.63713676
-0.71485713
-0.79466896
-0.8763788
-0.95985142
-1.0450048
-1.1318316
-1.2203521
-1.3105149
-1.4023155
-1.4957287
-1.5900461
-1.6844087
-1.7791295
-1.8754595
-1.9750572
-2.0794137
-2.1905602
-2.3150905
-2.4616584
-2.6314939
-2.8325252
-3.0878474
-3.4123017
-3.6949031
-3.7480909
-3.6492622
-3.5588293
-3.4731621
-3.3033426
-1.4359294
0.55335329
-4.9302188
-7.0859954
-10.708319
-15.857081
-22.873572
-29.791829
-35.248579
-37.379188
-36.123679
-31.739592
-25.152453
-18.855976
-13.363624
-13.551031
-11.394871
-10.111893
-9.4076537
-8.9552533
-8.6374312
-8.4161891
-8.2567115
-8.1345786
-8.0348756
-7.9473446
-7.8649795
-7.7832893
-7.6994502
-7.6119474
-7.5201113
-7.4239518
-7.3238863
-7.2206184
-7.1151223
-7.0084563
-6.9016809
-6.7958494
-6.6919887
-6.5911557
-6.4941901
-6.4022393
-6.3159546
-6.2361081
-6.1633452
-6.0982828
-6.0414483
-5.9932974
-5.9541959
-5.924473
-5.9049917
-5.8951374
0.13296509
0.13802454
0.13094943
0.12088001
0.10522484
0.084084448
0.057476969
0.02542083
-0.011999849
-0.054620098
-0.10223623
-0.15467005
-0.21173336
-0.27316409
-0.33863555
-0.40779504
-0.48028283
-0.55572487
-0.63375014
-0.71403301
-0.79631541
-0.88039754
-0.9661656
-1.0536337
-1.1429459
-1.2342688
-1.327646
-1.4232189
-1.5212228
-1.6207381
-1.7200385
-1.8190069
-1.9192477
-2.0236933
-2.1345891
-2.2538665
-2.3901125
-2.5621102
-2.7708332
-3.012759
-3.3548091
-3.879877
-4.3190454
-4.3174262
-4.1780281
-4.0671423
-3.9457818
-3.8091065
1.1897729
-0.55996161
-5.3433595
-8.2297333
-11.670736
-17.438545
-24.93166
-32.601072
-38.548403
-40.627141
-39.082962
-34.033662
-26.699776
-19.693074
-14.372088
-13.46441
-11.846563
-10.432226
-9.6762901
-9.1875398
-8.8552312
-8.6288768
-8.466807
-8.3426295
-8.2398744
-8.1475025
-8.0583027
-7.9677568
-7.8732695
-7.7735607
-7.6682669
-7.5577447
-7.4426635
-7.3239523
-7.202983
-7.0809684
-6.9591626
-6.8387618
-6.7209289
-6.6068579
-6.497546
-6.3940182
-6.2970726
-6.2075106
-6.1259947
-6.0531558
-5.9895304
-5.9355897
-5.8917267
-5.8583484
-5.8363014
-5.8248315
0.16900691
0.17494241
0.16774498
0.15746411
0.14131434
0.11936792
0.091628198
0.058152504
0.019085106
-0.025418461
-0.07520329
-0.1300756
-0.18978089
-0.25400922
-0.32241092
-0.3945951
-0.47012865
-0.54856424
-0.62948622
-0.71251898
-0.79734744
-0.88375993
-0.97169781
-1.0612965
-1.1528658
-1.2467707
-1.3432841
-1.4428573
-1.5460696
-1.6517265
-1.7566952
-1.8595275
-1.9618585
-2.0702497
-2.1885697
-2.3180553
-2.4653558
-2.6706749
-2.9439786
-3.2321684
-3.3677174
-2.8519044
-0.94483865
-4.9063879
-4.9232472
-4.6242885
-4.4075045
-4.0160289
-1.6486638
-4.3992416
-6.4781431
-8.9238609
-12.092312
-17.598265
-24.776357
-32.410807
-38.314866
-40.438746
-38.715625
-33.473966
-26.014881
-18.751429
-14.246407
-13.675779
-11.811141
-10.51852
-9.8006926
-9.3333983
-9.0252051
-8.8168485
-8.6670896
-8.5506872
-8.451209
-8.3578585
-8.2639465
-8.1654066
-8.0602045
-7.9476066
-7.8277665
-7.7014834
-7.5698259
-7.4338387
-7.295727
-7.1566765
-7.0182327
-6.8817646
-6.7486019
-6.6200004
-6.4970702
-6.3808639
-6.2722639
-6.1720819
-6.0809899
-5.9996435
-5.9285939
-5.8683199
-5.8192007
-5.7817759
-5.7568147
-5.7434711
0.20890486
0.2162433
0.20915815
0.19878109
0.18210161
0.15921347
0.13019318
0.095163368
0.054259412
0.0076011034
-0.044656237
-0.10227541
-0.16496017
-0.23238
-0.30414209
-0.37977384
-0.45875313
-0.54055139
-0.62466645
-0.71062487
-0.79802382
-0.88664153
-0.97648661
-1.0678131
-1.1611358
-1.2571281
-1.3564628
-1.4602127
-1.5696492
-1.6832726
-1.7966633
-1.9061855
-2.0070064
-2.109734
-2.230689
-2.3723598
-2.5270079
-2.7579341
-3.1058873
-3.3045148
-1.5746715
-1.0695943
-1.9223525
-5.9834357
-5.9349867
-5.4391508
-5.1684956
-5.2725489
-5.0134813
-5.661861
-7.0727704
-9.1233176
-11.998469
-16.361658
-22.436685
-29.219305
-34.616221
-36.636681
-34.989484
-30.136873
-23.288137
-16.29758
-13.501506
-12.858016
-11.306773
-10.330617
-9.7662522
-9.3887921
-9.1461307
-8.9804407
-8.8592785
-8.7611885
-8.6715661
-8.581103
-8.4843983
-8.3784611
-8.2621429
-8.13561
-7.9997279
-7.8559377
-7.7060918
-7.5501648
-7.3932523
-7.235414
-7.0785676
-6.9243903
-6.7743485
-6.6298061
-6.4919842
-6.3619498
-6.2406492
-6.1288977
-6.0273962
-5.9367949
-5.857663
-5.7904648
-5.7355712
-5.693668
-5.6654069
-5.6498188
0.25122656
0.26208267
0.25572009
0.24526021
0.22791448
0.20392924
0.17348204
0.13670854
0.09370837
0.044600067
-0.010432882
-0.07113861
-0.13721473
-0.20829415
-0.2839125
-0.36350521
-0.44644735
-0.53208787
-0.61976488
-0.70884624
-0.7988201
-0.88943292
-0.98072912
-1.0730639
-1.1672488
-1.2644333
-1.3657634
-1.4733212
-1.5901674
-1.7144304
-1.8385126
-1.9561496
-2.0554259
-2.1488075
-2.2858868
-2.4733069
-2.6859893
-3.0039561
-3.6856996
-3.66306
-1.7874419
-2.3001148
-7.4358157
-8.1667582
-7.6776798
-6.7875743
-5.9453807
-6.1306583
-5.8083528
-6.3014167
-7.3692315
-8.8281402
-11.064149
-13.965649
-18.621446
-23.772459
-28.133591
-29.880853
-28.44705
-24.711989
-18.831341
-13.45856
-13.147452
-11.816559
-10.620489
-9.990002
-9.6121866
-9.3775885
-9.2315508
-9.1284888
-9.0503386
-8.9801271
-8.9060994
-8.8216947
-8.723468
-8.6100197
-8.4815793
-8.339462
-8.1854485
-8.0217337
-7.8507122
-7.674389
-7.4958227
-7.3169434
-7.1397077
-6.9659905
-6.7974181
-6.6354486
-6.4813874
-6.3363287
-6.2012477
-6.0769744
-5.9642199
-5.8636061
-5.7757195
-5.7009815
-5.6397909
-5.5929406
-5.5609251
-5.5426469
0.30222664
0.31472467
0.30838951
0.29746099
0.279179
0.25388575
0.22178298
0.1829983
0.13762836
0.085792514
0.02765738
-0.036537712
-0.1064827
-0.18176098
-0.26182818
-0.34602914
-0.43360255
-0.5236977
-0.61542117
-0.7079299
-0.80054115
-0.8928706
-0.98491345
-1.0771193
-1.1707169
-1.2675206
-1.3691895
-1.4795405
-1.6054584
-1.7440304
-1.8824382
-2.0159402
-2.1134601
-2.1588876
-2.3468921
-2.6246983
-2.9810369
-3.4019099
-4.3788602
-4.8144742
-2.6682329
-2.9406425
-8.593142
-9.9803369
-9.8360415
-8.6864286
-7.1235923
-6.904287
-6.2302077
-6.6330592
-7.0347052
-8.3607415
-9.6749211
-11.177012
-14.379323
-17.596134
-20.578947
-21.880427
-20.867163
-18.514199
-15.754316
-13.397529
-11.858995
-10.584097
-9.8933475
-9.5789126
-9.4167332
-9.3379746
-9.3003464
-9.2768109
-9.2527069
-9.2171287
-9.1627569
-9.0861097
-8.9862602
-8.8640279
-8.721524
-8.5613574
-8.3865363
-8.200201
-8.005515
-7.8054157
-7.6029686
-7.40074
-7.2009951
-7.0057919
-6.8169368
-6.6359737
-6.4642673
-6.302961
-6.1530274
-6.0152913
-5.8904303
-5.7790503
-5.6817303
-5.5988352
-5.530794
-5.4784946
-5.4421993
-5.4207381
0.36043184
0.37544142
0.36787026
0.35592132
0.33632063
0.30938911
0.27532495
0.23425584
0.18625275
0.13139611
0.069803051
0.0016819881
-0.072656242
-0.15276194
-0.23801858
-0.32765172
-0.42070825
-0.51606839
-0.61253917
-0.7089874
-0.80443363
-0.89819615
-0.99010301
-1.0806222
-1.1714034
-1.2651625
-1.3642632
-1.4748982
-1.6113117
-1.773683
-1.9413504
-2.0971361
-2.195844
-2.1945046
-2.4351998
-2.7580808
-3.2409488
-3.6769476
-4.5768237
-5.9116625
-2.0611705
-2.5474197
-9.4360331
-11.391669
-11.55821
-10.253434
-8.4729685
-6.2075803
-3.2391014
-6.1123195
-5.1565311
-7.2371935
-7.6734107
-9.0388146
-10.378833
-12.376476
-13.966531
-14.656883
-14.14008
-12.932515
-11.569843
-10.457519
-9.7289751
-9.2707453
-9.1295291
-9.1459142
-9.2135814
-9.2996234
-9.3821942
-9.4460857
-9.4820548
-9.4845535
-9.4510424
-9.3817147
-9.2786765
-9.1452449
-8.9855202
-8.8038394
-8.6046608
-8.3922525
-8.1706261
-7.9435001
-7.7143349
-7.4861467
-7.2615499
-7.04279
-6.8318187
-6.630251
-6.4395042
-6.2607376
-6.0948955
-5.9427593
-5.8049549
-5.682084
-5.5746718
-5.483007
-5.4075397
-5.3492414
-5.3080817
-5.2828889
0.4298439
0.44261017
0.43462151
0.42101186
0.39961447
0.37065629
0.33431873
0.2907063
0.23980775
0.18162737
0.1162254
0.04373778
-0.035569726
-0.12124039
-0.21258931
-0.30868594
-0.40833104
-0.51008929
-0.6123808
-0.71362104
-0.81236751
-0.90745497
-0.99826491
-1.0851014
-1.1699887
-1.2564682
-1.3476587
-1.4531546
-1.598785
-1.7917605
-2.0149392
-2.242183
-2.3333087
-2.3746575
-2.5776565
-2.8804345
-3.4162946
-3.7477174
-4.4255877
-5.6355544
-4.6958167
-5.1491632
-9.9480731
-12.114506
-12.048827
-10.462811
-8.5933287
-6.8927783
4.6522824
-0.15851746
-4.6733614
-5.3129484
-5.9836436
-7.4161583
-7.602468
-8.5381374
-9.7254226
-9.7074361
-9.2557534
-8.497878
-8.0787171
-7.9181273
-7.982982
-8.1646246
-8.4535463
-8.760231
-9.0454056
-9.2969649
-9.5038896
-9.6582082
-9.7562302
-9.7971026
-9.7830605
-9.7181782
-9.608069
-9.4589508
-9.2773046
-9.0694569
-8.8414106
-8.5986572
-8.3461458
-8.0883672
-7.8292674
-7.5722768
-7.3203028
-7.0757851
-6.8407889
-6.6169959
-6.4058324
-6.2084193
-6.0256468
-5.8582077
-5.7066893
-5.5716419
-5.4534981
-5.3524491
-5.2690067
-5.2041656
-5.1575368
-5.1279905
0.50888397
0.51719514
0.50876977
0.49285788
0.46919221
0.43784658
0.39893749
0.35251381
0.29848652
0.23673694
0.16721003
0.089914856
0.0050171265
-0.087059199
-0.18556487
-0.28939899
-0.39709188
-0.50684464
-0.61658062
-0.72405247
-0.82710434
-0.92384331
-1.0128334
-1.0938126
-1.1688663
-1.2417523
-1.3157564
-1.4037957
-1.546832
-1.7822945
-2.1027442
-2.4900629
-2.5885547
-3.032505
-2.7418657
-3.136686
-3.111469
-2.965592
-4.0393181
-4.7877753
-5.7810101
-7.1891436
-9.4480882
-11.353717
-11.220946
-9.450498
-7.3458744
-5.447116
3.7093568
5.3081897
-4.1387011
-3.8134531
-4.5920373
-5.9839016
-6.702001
-6.7241266
-6.8704405
-6.9472211
-6.7951177
-6.2079306
-6.0002246
-6.2687873
-6.7804506
-7.3460721
-7.9250798
-8.4681113
-8.9516031
-9.3631872
-9.6934756
-9.9373148
-10.095571
-10.171507
-10.172014
-10.105625
-9.9819979
-9.8106041
-9.6006525
-9.3605994
-9.0980794
-8.8198567
-8.531892
-8.2393896
-7.9467914
-7.6579005
-7.3758838
-7.1033365
-6.8423883
-6.5947653
-6.3618315
-6.144636
-5.9439852
-5.760455
-5.5945441
-5.4466919
-5.3172037
-5.2061715
-5.1142243
-5.042338
-4.9896904
-4.9550116
0.59631803
0.5999751
0.59014621
0.57151261
0.545126
0.51100786
0.4692222
0.41976709
0.36246026
0.29699794
0.22310229
0.14058893
0.049467247
-0.049925542
-0.15682104
-0.26997243
-0.38764377
-0.50759457
-0.62711508
-0.74312882
-0.85247849
-0.95215415
-1.0394701
-1.1131435
-1.1748726
-1.2274604
-1.2729114
-1.3282179
-1.4497326
-1.7135475
-2.1285909
-2.566665
-2.8472162
-3.2136131
-2.8804239
-2.3687527
-0.49151334
-0.25578829
-1.0908257
-4.8074716
-4.0662937
-5.6381931
-7.6441227
-9.2649329
-9.3955865
-8.0160168
-6.0953493
-4.4454704
-1.9971967
3.6337256
-2.1593278
-3.1990627
-4.1417206
-5.2076355
-5.7665486
-5.9553306
-5.7170271
-5.1868624
-4.7503393
-4.5583052
-4.636534
-5.3511701
-6.0300621
-6.7721811
-7.5409328
-8.2830707
-8.9533457
-9.5234521
-9.9768101
-10.30865
-10.522331
-10.626076
-10.632273
-10.554941
-10.408362
-10.205665
-9.9590561
-9.679218
-9.3754692
-9.0558307
-8.7272025
-8.395453
-8.0654922
-7.741417
-7.4265827
-7.1236903
-6.8348985
-6.5618987
-6.3059439
-6.0679585
-5.8485951
-5.6482899
-5.4673974
-5.3062159
-5.1648551
-5.0433198
-4.9423664
-4.8629512
-4.8036717
-4.7632033
0.6919862
0.6911391
0.67892424
0.65707276
0.62734083
0.58999295
0.54504095
0.49244561
0.43184223
0.36265426
0.28429374
0.19628248
0.098364198
-0.0092940554
-0.12598529
-0.25038259
-0.38050747
-0.51362289
-0.64624301
-0.77431516
-0.89343762
-0.99902704
-1.086607
-1.1535312
-1.200937
-1.2299241
-1.2363233
-1.2285984
-1.2708316
-1.5832655
-2.2310514
-2.840247
-3.2837268
-3.4942983
-3.5836527
0.073811452
0.22595468
0.56759108
0.6830046
0.43607459
-3.1191972
-3.744991
-4.9190648
-6.7838033
-7.5781991
-7.2438447
-5.156631
-2.728509
-0.78591844
-1.3854102
5.4253667
-5.6042486
-5.1722687
-5.2673728
-5.2406337
-5.1847616
-5.2242783
-5.084131
-4.5265805
-3.8097623
-3.7374721
-4.0052113
-5.2685729
-6.3451692
-7.2646523
-8.2005166
-9.0654759
-9.8032508
-10.384031
-10.800784
-11.061428
-11.18098
-11.179317
-11.077404
-10.89488
-10.649072
-10.355322
-10.026537
-9.673649
-9.3058258
-8.930751
-8.5548384
-8.1833881
-7.8207125
-7.4702656
-7.1347761
-6.8163445
-6.5165429
-6.2364795
-5.9768582
-5.7381161
-5.5204918
-5.3241505
-5.1492193
-4.9955693
-4.8631278
-4.7527352
-4.6653264
-4.5988286
-4.5519337
0.79625368
0.79108465
0.7754029
0.74951598
0.71555098
0.67440627
0.62605304
0.57033092
0.50660114
0.43392069
0.35127377
0.25771892
0.1525953
0.035755599
-0.09227186
-0.23018136
-0.37580659
-0.52594373
-0.67625511
-0.82152008
-0.95589497
-1.0728809
-1.1656366
-1.2302614
-1.2685687
-1.2799706
-1.2547063
-1.1963064
-1.2083861
-1.7183683
-2.6280626
-3.3807222
-4.1385634
-4.2939935
-4.2090641
-3.3074603
0.24430249
-0.12482352
-2.1454169
-1.5827796
-2.1433186
-0.43552708
-0.88783157
-4.5316312
-8.4519987
-8.2828491
-4.9618129
-0.67001369
1.4906716
-1.2061432
7.681727
-7.4058065
-6.081748
-5.3448308
-4.9183219
-4.7285798
-4.972
-4.8830436
-4.4921015
-4.1144338
-3.5606861
-4.075491
-4.9115065
-5.8525561
-7.0011817
-8.1948135
-9.303809
-10.237128
-10.953476
-11.449689
-11.742628
-11.85895
-11.82945
-11.683935
-11.448326
-11.144573
-10.791033
-10.402619
-9.9916241
-9.5681016
-9.1403261
-8.7150773
-8.29788
-7.8931469
-7.5043434
-7.1341273
-6.7844356
-6.4566088
-6.1515383
-5.8696457
-5.611095
-5.3758504
-5.1638297
-4.9748967
-4.8086377
-4.6648806
-4.5447451
-4.4489098
-4.3745515
-4.3205188
0.91030875
0.90048704
0.87977198
0.84847562
0.80914105
0.76349031
0.71151936
0.65287975
0.5865156
0.51099146
0.42465861
0.32588414
0.21342981
0.086654381
-0.054280202
-0.20824998
-0.37300017
-0.54494361
-0.71893667
-0.88844534
-1.0460389
-1.1831123
-1.2898022
-1.361132
-1.4061764
-1.4358488
-1.4155485
-1.346944
-1.5718299
-2.8424358
-4.6543232
-6.0537528
-6.7725109
-6.4064736
-5.5643095
-4.4842139
-3.0215858
-1.8963894
-1.8110414
-2.1533821
-0.25692987
2.9264542
2.5067885
-4.5601472
-12.369844
-12.664989
-5.8739597
3.0216248
6.8957717
2.1238963
-4.3549968
-9.6653802
-5.3958839
-3.5782272
-3.4694062
-4.0809509
-5.1829233
-5.2994772
-4.4793744
-3.540369
-3.1225683
-3.2526046
-3.9325459
-5.1352853
-6.6687711
-8.2626752
-9.7091364
-10.88271
-11.742656
-12.302668
-12.601765
-12.684892
-12.598666
-12.383824
-12.07337
-11.693734
-11.265758
-10.805805
-10.326974
-9.8397596
-9.3527245
-8.8728178
-8.4056022
-7.9554399
-7.5256927
-7.1188141
-6.7364936
-6.3797454
-6.0490715
-5.7445661
-5.4660607
-5.2131859
-4.985544
-4.7826496
-4.6035683
-4.4483631
-4.3180827
-4.2133509
-4.1303544
-4.0682006
1.0363273
1.0201094
0.9920198
0.953222
0.90689761
0.85577132
0.80005582
0.73902548
0.67108046
0.59398916
0.50515861
0.40206264
0.28264247
0.14551637
-0.0097658771
-0.18248765
-0.37048969
-0.5699264
-0.77496217
-0.97773557
-1.1692134
-1.3384726
-1.4705603
-1.5616635
-1.6437751
-1.714378
-1.6439398
-1.5342153
-2.3644904
-4.8906507
-8.0300514
-9.9877758
-10.782406
-9.8525871
-8.2558903
-6.1093634
-2.8757898
0.45893376
-0.50047857
-4.0515556
-0.16866103
8.9768642
12.727953
-4.8867065
-22.944629
-23.362214
-8.7640777
10.279949
16.632626
4.2070714
-6.2516723
-12.712251
-8.1352156
-0.74648293
0.79699679
-2.7981885
-6.3370467
-7.0119307
-4.8354105
-2.7558895
-2.2084998
-2.1357031
-2.7325934
-4.2962852
-6.3331071
-8.4928986
-10.384956
-11.838655
-12.831703
-13.418315
-13.678818
-13.683369
-13.499905
-13.182481
-12.770904
-12.294873
-11.776445
-11.232316
-10.675543
-10.116487
-9.5635856
-9.0237097
-8.5023049
-8.0035585
-7.5305667
-7.0854526
-6.669521
-6.2833424
-5.9269083
-5.5998704
-5.3016383
-5.0314583
-4.7885737
-4.5722008
-4.3801894
-4.2133998
-4.0727453
-3.9586223
-3.8660083
-3.7943424
1.1775048
1.1512453
1.1118379
1.0622227
1.0065289
0.94872608
0.88930788
0.82699683
0.75931303
0.68283704
0.5935983
0.48791593
0.3626228
0.21530651
0.044626287
-0.14939731
-0.36501644
-0.59838216
-0.843136
-1.0901679
-1.3287756
-1.5450393
-1.7175981
-1.84921
-1.9931168
-2.0812728
-1.8803995
-1.5539272
-2.48543
-5.4995437
-8.9473878
-11.492661
-13.733602
-13.744217
-10.022836
-9.6711126
-3.9807461
6.1779463
4.4349134
-13.921115
-3.8301649
19.297269
37.854594