/*--------------------------------*- C++ -*----------------------------------*\
  =========                 |
  \\      /  F ield         | OpenFOAM: The Open Source CFD Toolbox
   \\    /   O peration     | Website:  https://openfoam.org
    \\  /    A nd           | Version:  9
     \\/     M anipulation  |
\*---------------------------------------------------------------------------*/
FoamFile
{
    format      ascii;
    class       surfaceScalarField;
    location    "0.69";
    object      phi;
}
// * * * * * * * * * * * * * * * * * * * * * * * * * * * * * * * * * * * * * //

dimensions      [0 3 -1 0 0 0 0];

internalField   nonuniform List<scalar> 
19800
(
-0.00010529316
0.00014966432
-0.00017854706
0.0001499142
-0.00025187544
0.00015049716
-0.00032525367
0.00015125118
-0.00039872855
0.00015203535
-0.0004722445
0.0001528472
-0.00054579999
0.00015363601
-0.00061933935
0.0001543869
-0.00069280516
0.0001550283
-0.00076612227
0.00015554304
-0.00083924258
0.00015590674
-0.00091204379
0.00015603257
-0.00098443559
0.00015596815
-0.001056295
0.00015559201
-0.0011275258
0.00015492446
-0.0011979825
0.00015391183
-0.0012675492
0.00015257307
-0.0013361237
0.00015088096
-0.0014035721
0.00014882116
-0.0014697468
0.00014638523
-0.0015345108
0.00014350964
-0.0015977067
0.00014016717
-0.0016591492
0.00013643818
-0.0017186125
0.00013220483
-0.0017758449
0.00012745701
-0.0018305296
0.00012202994
-0.0018822604
0.00011583995
-0.0019305461
0.00010867915
-0.0019747725
0.00010030366
-0.0020142398
9.0425643e-05
-0.0020481396
7.866434e-05
-0.002075563
6.4666915e-05
-0.0020954778
4.8055006e-05
-0.0021067489
2.8502092e-05
-0.0021087652
7.040183e-06
-0.002097241
-1.721528e-05
-0.0020691213
-4.4274132e-05
-0.0020222668
-7.4650006e-05
-0.0019543432
-0.00010870872
-0.0018629497
-0.00014673802
-0.0017456336
-0.00018886995
-0.0016000012
-0.00023514447
-0.001423736
-0.0002856198
-0.0012145601
-0.00034040453
-0.00096990294
-0.00039979585
-0.00068687894
-0.00046404536
-0.00036260734
-0.00053369203
4.5979928e-06
-0.00060680459
0.00041589448
-0.00068527386
0.00087389581
-0.00076770184
0.001377248
-0.00084846944
0.0019207441
-0.00092072447
0.0024945856
-0.00097610677
0.0030808369
-0.0010011769
0.0036524032
-0.00098119875
0.0041771564
-0.00090761967
0.0046244947
-0.00078218999
0.0049715272
-0.00061678913
0.005206036
-0.00042879392
0.0053253644
-0.0002348608
0.0053402381
-5.3547659e-05
0.0052672828
0.00011357045
0.0051305376
0.00026190153
0.0049459414
0.00038669647
0.0047279127
0.00048665659
0.0044888628
0.00056286983
0.0042387721
0.00061773474
0.0039851635
0.00065375534
0.0037332449
0.00067326177
0.0034864084
0.00067853876
0.00324673
0.00067189001
0.0030154872
0.00065565397
0.0027934432
0.0006321355
0.0025810854
0.00060351265
0.0023787435
0.00057167804
0.0021866312
0.00053812503
0.0020048206
0.00050394484
0.0018332793
0.00046997579
0.0016718697
0.0004367017
0.0015203619
0.00040477773
0.0013785562
0.00037412719
0.001246122
0.00034506059
0.0011227034
0.00031759747
0.0010079362
0.00029173186
0.0009014431
0.00026746053
0.00080279784
0.00024482556
0.00071162521
0.00022372993
0.00062749395
0.00020408245
0.00054994539
0.00018580904
0.00047849886
0.00016890247
0.000412733
0.00015341481
0.00035227814
0.00013930585
0.00029668783
0.00012640178
0.00024559639
0.00011480816
0.00019855606
0.00010449891
0.00015506251
9.5376898e-05
0.00011463486
8.7504499e-05
7.6846265e-05
8.0901797e-05
4.1034168e-05
7.5996163e-05
7.1495212e-05
-0.00010446678
0.00022256285
-0.00017751538
0.00022295833
-0.00025065896
0.00022364768
-0.0003239425
0.00022453284
-0.00039737262
0.00022547816
-0.00047089002
0.00022635528
-0.00054447531
0.00022722453
-0.00061809756
0.00022801101
-0.00069169447
0.00022862813
-0.00076520302
0.00022905996
-0.0008385447
0.00022924734
-0.00091161216
0.00022910033
-0.00098428147
0.00022864299
-0.001056464
0.00022777893
-0.0011280227
0.0002264887
-0.0011988555
0.00022474807
-0.0012688465
0.00022256274
-0.0013378205
0.00021985535
-0.0014056824
0.00021668664
-0.0014722895
0.0002129951
-0.001537496
0.00020871704
-0.0016012124
0.00020388283
-0.0016632612
0.00019848422
-0.0017234409
0.00019238297
-0.0017815015
0.00018551953
-0.0018371862
0.00017771685
-0.001890139
0.00016879123
-0.0019399421
0.00015847916
-0.0019860492
0.00014641033
-0.0020278114
0.00013218953
-0.0020644513
0.00011530606
-0.0020950269
9.5244831e-05
-0.0021184112
7.144044e-05
-0.002133312
4.340057e-05
-0.0021371723
1.0900765e-05
-0.0021279429
-2.643818e-05
-0.0021032226
-6.8991237e-05
-0.0020603854
-0.00011748845
-0.0019967395
-0.00017235165
-0.0019097765
-0.00023369846
-0.0017969782
-0.00030166963
-0.0016558655
-0.00037625811
-0.0014840899
-0.00045739649
-0.001279487
-0.00054500779
-0.0010398135
-0.0006394699
-0.00076232344
-0.00074153967
-0.00044463272
-0.00085138517
-8.3780307e-05
-0.00096765494
0.00032491223
-0.0010939637
0.00078488085
-0.0012276689
0.0012980288
-0.0013616203
0.0018616169
-0.0014843141
0.0024702125
-0.001584702
0.0031051107
-0.0016360762
0.003732868
-0.00160896
0.0043119667
-0.0014867225
0.0048021787
-0.0012724059
0.0051748701
-0.00098948643
0.0054185171
-0.0006724418
0.0055368502
-0.00035319347
0.0055376827
-5.4376031e-05
0.0054470827
0.00020416921
0.0052858933
0.00042309168
0.0050735222
0.000599066
0.0048271273
0.00073305172
0.004560874
0.0008291291
0.0042859557
0.00089265313
0.0040106376
0.00092907009
0.0037405046
0.00094338962
0.0034789779
0.00094006657
0.0032279103
0.00092295821
0.0029881709
0.00089538505
0.002760098
0.00086020763
0.0025437427
0.00081987062
0.002339039
0.00077638416
0.0021458568
0.00073130748
0.001963962
0.00068583441
0.0017931047
0.00064083003
0.0016328859
0.00059691924
0.0014829818
0.00055468083
0.0013429575
0.00051415143
0.0012124284
0.00047559042
0.0010909823
0.00043904335
0.0009781676
0.00040454835
0.00087356057
0.00037206951
0.00077673554
0.00034165106
0.00068730874
0.00031315521
0.00060481627
0.00028657169
0.00052883594
0.00026178514
0.00045902312
0.00023871145
0.00039493512
0.00021750018
0.00033620077
0.00019803835
0.00028226555
0.00018033555
0.0002327518
0.00016432081
0.0001873029
0.0001499456
0.00014542833
0.00013724781
0.00010662161
0.00012631014
7.0557485e-05
0.00011696559
3.6629786e-05
0.00010992022
0.00010318095
-0.00010397096
0.00029527422
-0.00017697224
0.00029596528
-0.0002500898
0.00029675803
-0.00032332953
0.00029778336
-0.00039659177
0.00029873025
-0.00047008644
0.00029984989
-0.00054375789
0.00030089489
-0.00061754689
0.00030179913
-0.00069130771
0.00030239526
-0.00076505518
0.00030280683
-0.00083868336
0.00030287508
-0.00091205361
0.00030247491
-0.00098510276
0.00030169516
-0.0010576924
0.00030037242
-0.0011296793
0.00029847912
-0.001201011
0.00029607955
-0.0012714344
0.00029298678
-0.0013409246
0.00028934874
-0.0014093178
0.00028508188
-0.0014764709
0.00028014901
-0.0015422754
0.00027452235
-0.0016065875
0.00026819479
-0.0016693128
0.00026120899
-0.0017302331
0.00025330433
-0.001789224
0.00024451199
-0.0018460109
0.00023450412
-0.0019003321
0.00022311151
-0.0019518042
0.00020994949
-0.0019999544
0.00019455964
-0.0020441949
0.00017643074
-0.0020837537
0.00015486549
-0.0021176085
0.00012910039
-0.0021445931
9.8427018e-05
-0.0021632331
6.2039729e-05
-0.002171594
1.9258958e-05
-0.0021674726
-3.0556451e-05
-0.002148217
-8.8242336e-05
-0.0021111545
-0.00015455214
-0.0020536771
-0.00022982947
-0.0019729287
-0.00031444515
-0.0018665136
-0.00040808465
-0.0017319673
-0.00051080327
-0.0015671596
-0.00062220467
-0.0013699668
-0.00074220459
-0.0011380776
-0.00087136257
-0.00086894868
-0.0010106712
-0.00055934787
-0.001160985
-0.00020491348
-0.0013220847
0.0001987355
-0.0014976098
0.00066000772
-0.0016889395
0.0011882163
-0.0018898309
0.0017804261
-0.0020765261
0.0024376299
-0.0022419072
0.0031424712
-0.0023409186
0.0038534602
-0.0023199507
0.0045144193
-0.0021476841
0.0050680919
-0.0018260803
0.0054748562
-0.001396255
0.0057217343
-0.00091932039
0.0058179012
-0.00044935996
0.0057834976
-1.9969511e-05
0.0056541674
0.0003335005
0.0054527143
0.00062454447
0.00520268
0.00084909955
0.0049227871
0.001012944
0.0046274761
0.0011244319
0.0043275233
0.0011926093
0.004030675
0.001225915
0.003742236
0.0012318341
0.0034655305
0.0012167665
0.0032024034
0.001186085
0.0029535999
0.0011441831
0.0027191976
0.0010946122
0.0024988645
0.0010402052
0.002292079
0.00098316569
0.0020982677
0.00092511832
0.0019167798
0.00086731926
0.0017470712
0.00081053478
0.0015884843
0.00075550629
0.0014405923
0.00070257474
0.0013027075
0.00065203578
0.0011744311
0.00060386669
0.0010552505
0.00055822351
0.00094469825
0.00051510148
0.00084228707
0.00047447974
0.0007476407
0.0004362954
0.00066028378
0.00040050982
0.00057989193
0.0003669587
0.00050606013
0.00033561452
0.00043819583
0.00030657429
0.00037592657
0.00027976992
0.00031881879
0.00025514478
0.00026656536
0.00023258609
0.00021872743
0.00021215697
0.00017489597
0.00019377606
0.00013459586
0.00017754637
9.758036e-05
0.00016332359
6.3303438e-05
0.00015124023
3.141384e-05
0.00014180718
0.00013217882
-0.00010341999
0.00036779328
-0.0001761646
0.00036870575
-0.00024903871
0.00036964228
-0.00032219841
0.00037093444
-0.00039563993
0.00037217143
-0.0004692598
0.00037346846
-0.00054304224
0.00037467495
-0.00061693284
0.00037569457
-0.00069101353
0.00037647582
-0.00076508015
0.00037687259
-0.00083905521
0.00037685365
-0.00091289081
0.00037631255
-0.00098642627
0.00037523244
-0.0010595275
0.00037347611
-0.0011320936
0.00037104586
-0.0012039427
0.0003679302
-0.0012750023
0.0003640502
-0.0013450758
0.00035942407
-0.0014140104
0.00035401634
-0.0014817671
0.00034790652
-0.0015482448
0.00034100149
-0.0016133577
0.00033330835
-0.001676839
0.00032469068
-0.0017387605
0.00031522611
-0.0017988755
0.00030462702
-0.0018571153
0.00029274426
-0.0019132455
0.00027924166
-0.0019670553
0.00026375657
-0.0020180845
0.00024558538
-0.0020657988
0.00022414622
-0.0021095224
0.00019859289
-0.0021483905
0.00016796914
-0.0021812268
0.00013126256
-0.0022064785
8.7290911e-05
-0.0022222583
3.503669e-05
-0.0022262008
-2.661233e-05
-0.0022155474
-9.889068e-05
-0.0021874187
-0.00018268162
-0.0021389091
-0.00027834179
-0.0020672151
-0.00038613763
-0.0019694699
-0.0005058288
-0.0018435067
-0.00063676697
-0.0016872271
-0.00077848751
-0.0014987752
-0.00093066154
-0.001276625
-0.0010935134
-0.0010186988
-0.0012685957
-0.00072187257
-0.0014578098
-0.00038003744
-0.0016639176
1.3402479e-05
-0.0018910481
0.00047043503
-0.0021459692
0.0010139061
-0.0024333034
0.0016158072
-0.0026784303
0.0023086451
-0.0029347458
0.0031050651
-0.0031373363
0.0039518967
-0.0031667808
0.0047572127
-0.0029530044
0.0054213133
-0.0024901848
0.0058918957
-0.0018668396
0.0061564963
-0.0011839184
0.0062267712
-0.00051963285
0.0061443347
6.2465579e-05
0.0059481935
0.00052963785
0.0056801376
0.00089259861
0.0053689236
0.0011603125
0.0050361883
0.0013456786
0.0046971981
0.0014634217
0.0043623215
0.0015274848
0.0040383236
0.0015499131
0.0037292347
0.0015409187
0.0034371554
0.0015088443
0.0031628642
0.0014603729
0.0029062797
0.0014007655
0.0026668076
0.0013340833
0.0024435659
0.0012634457
0.002235564
0.0011911696
0.002041785
0.0011188981
0.0018612862
0.0010478173
0.0016931868
0.00097863472
0.00153662
0.00091207161
0.0013908691
0.0008483252
0.0012554514
0.00078745555
0.0011296559
0.0007296641
0.0010129392
0.00067493909
0.00090486994
0.00062316972
0.00080485583
0.00057449392
0.00071254733
0.00052860351
0.00062753539
0.00048552166
0.0005493167
0.00044517609
0.00047744279
0.00040748858
0.00041155936
0.00037245831
0.00035131167
0.00034001592
0.00029631788
0.00031013796
0.00024613697
0.00028276682
0.00020036256
0.00025793053
0.00015861144
0.00023552677
0.00012041067
0.00021574701
8.5535176e-05
0.00019820028
5.3554642e-05
0.00018322275
2.4025355e-05
0.00017133691
0.00015838681
-0.00010263731
0.00044006108
-0.00017519982
0.00044127913
-0.00024802452
0.00044245661
-0.00032106794
0.00044397781
-0.00039440269
0.00044550495
-0.0004680763
0.00044713906
-0.00054199167
0.00044859425
-0.00061621323
0.00044991627
-0.00069059626
0.0004508582
-0.00076509391
0.00045137433
-0.00083958357
0.00045134618
-0.00091398608
0.00045071632
-0.00098811567
0.00044936346
-0.0010618618
0.00044722259
-0.0011350982
0.0004442843
-0.0012076346
0.00044047119
-0.001279364
0.00043578194
-0.001350168
0.00043022662
-0.0014198744
0.00042372173
-0.0014883887
0.00041642217
-0.0015556316
0.00040824585
-0.0016214798
0.00039915646
-0.0016859972
0.00038920673
-0.0017489878
0.0003782158
-0.001810513
0.00036615247
-0.0018704988
0.0003527305
-0.0019287964
0.00033753757
-0.0019851632
0.00032011948
-0.0020394478
0.00029986764
-0.0020912344
0.0002759368
-0.0021400278
0.00024739233
-0.0021848798
0.00021282043
-0.0022247592
0.00017113815
-0.0022581015
0.00012063501
-0.0022829603
5.9898277e-05
-0.0022971004
-1.2472519e-05
-0.0022975355
-9.8454738e-05
-0.002281114
-0.00019910327
-0.0022444452
-0.00031501127
-0.0021843638
-0.00044621704
-0.0020979152
-0.00059227863
-0.0019827228
-0.00075196361
-0.0018370848
-0.00092412841
-0.0016598679
-0.0011078808
-0.0014500226
-0.0013033591
-0.0012067028
-0.001511915
-0.00092726584
-0.0017372454
-0.00060605091
-0.0019851282
-0.00023341535
-0.0022636822
0.00020443745
-0.002583821
0.00072003638
-0.0029489034
0.0012471198
-0.0032055137
0.0019889952
-0.0036766198
0.0029905622
-0.0041389043
0.004116269
-0.0042924879
0.0051746196
-0.0040113558
0.0059803824
-0.0032959478
0.006479315
-0.0023657739
0.0067297408
-0.0014343454
0.0067583788
-0.00054827195
0.006601399
0.0002194482
0.0063136546
0.00081738274
0.0059530118
0.0012532339
0.0055599816
0.0015533442
0.0051594792
0.0017461735
0.0047661153
0.0018567884
0.0043887675
0.0019048266
0.004032576
0.0019061072
0.00369983
0.0018736656
0.0033909595
0.0018177132
0.0031052507
0.0017460807
0.002841358
0.0016646567
0.0025976562
0.0015777832
0.0023724631
0.0014886388
0.0021641647
0.0013994647
0.00197126
0.0013118008
0.0017925119
0.001226567
0.0016266437
0.0011445024
0.0014727362
0.0010659769
0.0013299731
0.00099108821
0.001197531
0.00091989831
0.0010747667
0.00085242758
0.00096110711
0.00078859662
0.00085591013
0.00072836426
0.0007588329
0.00067156746
0.00066932472
0.00061810935
0.00058703655
0.00056780761
0.00051148999
0.00052072012
0.00044228249
0.00047669436
0.00037905814
0.00043568411
0.00032139365
0.00039767978
0.0002689407
0.00036259136
0.00022129312
0.00033041542
0.00017802623
0.00030119516
0.00013875044
0.0002747996
0.0001031433
0.00025135242
7.0609244e-05
0.00023073538
4.105794e-05
0.0002127765
1.381919e-05
0.00019857725
0.0001823618
-0.00010163181
0.00051199889
-0.00017392792
0.00051356516
-0.00024646109
0.00051499004
-0.00031940258
0.00051691878
-0.00039283684
0.00051893676
-0.00046659568
0.00052090158
-0.00054077849
0.00052277681
-0.00061526253
0.00052439878
-0.00069006046
0.00052565974
-0.00076506135
0.00052637872
-0.0008401579
0.00052644432
-0.0009152183
0.00052577774
-0.00099009897
0.00052424389
-0.001064657
0.0005217822
-0.0011387211
0.00051835346
-0.0012121076
0.0005138609
-0.0012847133
0.00050838591
-0.001356339
0.00050184953
-0.0014269183
0.00049430082
-0.0014962435
0.00048574864
-0.00156434
0.00047634254
-0.0016311321
0.00046594674
-0.0016966132
0.00045468532
-0.0017608536
0.00044245583
-0.0018237822
0.00042908213
-0.0018854141
0.00041436117
-0.0019458682
0.00039798828
-0.002005204
0.00037945397
-0.0020632862
0.00035795228
-0.0021198416
0.00033249605
-0.0021744843
0.00030203811
-0.0022266371
0.00026497251
-0.0022751486
0.00021964783
-0.002318752
0.00016424255
-0.0023553509
9.6502096e-05
-0.0023824627
1.4637642e-05
-0.0023969049
-8.4013622e-05
-0.0023952164
-0.00020079016
-0.0023732882
-0.00033694048
-0.0023273785
-0.00049212881
-0.0022542874
-0.00066537263
-0.0021517265
-0.00085452641
-0.0020182181
-0.0010576362
-0.0018533209
-0.0012727804
-0.0016575854
-0.0014990987
-0.001431657
-0.001737845
-0.0011750166
-0.0019938848
-0.000884178
-0.0022759624
-0.000557565
-0.0025902944
-0.00019485925
-0.0029465244
0.00023385441
-0.0033776139
0.00081399648
-0.0037856544
0.0019655329
-0.004828155
0.003539946
-0.0057133183
0.0051594784
-0.0059120198
0.0065193457
-0.0053712239
0.0073759993
-0.0041526036
0.0076909938
-0.002680772
0.0076682114
-0.0014115613
0.0074808154
-0.00036087863
0.0071645259
0.00053573322
0.0067392076
0.0012426997
0.006257986
0.0017344564
0.0057628909
0.0020484402
0.0052799962
0.0022290671
0.0048224824
0.0023143034
0.0043969407
0.0023303694
0.0040056451
0.0022973973
0.0036481703
0.0022311416
0.0033226356
0.0021432409
0.0030263601
0.0020423549
0.0027563959
0.0019346237
0.0025098758
0.0018243014
0.0022841782
0.0017143385
0.0020769824
0.0016066612
0.0018862814
0.0015024996
0.0017103847
0.0014024629
0.0015478425
0.0013070455
0.0013975126
0.0012163071
0.0012584053
0.0011301943
0.0011296765
0.0010486255
0.0010105478
0.00097155805
0.00090043065
0.00089871558
0.00079877363
0.00083002414
0.00070507576
0.00076526714
0.00061888098
0.00070430305
0.00053972876
0.00064695977
0.00046729061
0.00059315935
0.00040121267
0.00054277439
0.000340999
0.00049589801
0.00028630428
0.00045237406
0.00023675867
0.00041213749
0.00019202791
0.0003751452
0.00015169302
0.00034152934
0.00011530523
0.0003111867
8.2512127e-05
0.00028414724
5.2884736e-05
0.00026036079
2.6045662e-05
0.00023961381
6.1973859e-07
0.00022400198
0.00020265016
-0.00010040677
0.00058353072
-0.00017237716
0.00058553793
-0.00024477422
0.00058738599
-0.00031757846
0.0005897214
-0.00039090189
0.00059226469
-0.00046476699
0.00059476618
-0.00053917438
0.00059718144
-0.00061404762
0.00059927395
-0.00068935923
0.00060097395
-0.00076497506
0.0006019959
-0.00084079311
0.00060226314
-0.00091666314
0.00060164681
-0.00099244406
0.00060002509
-0.0010679334
0.00059727606
-0.001142959
0.00059338314
-0.0012173237
0.00058822473
-0.0012909096
0.00058196853
-0.001363488
0.00057442658
-0.0014349702
0.00056578366
-0.0015052666
0.00055604546
-0.0015742201
0.00054529509
-0.001641889
0.00053361371
-0.0017083162
0.0005211114
-0.001773588
0.00050772812
-0.0018378498
0.00049334406
-0.0019013356
0.00047784453
-0.0019641918
0.00046084255
-0.0020265877
0.00044185246
-0.0020885726
0.00041994086
-0.0021502852
0.00039420844
-0.0022114273
0.00036318021
-0.0022717527
0.00032530144
-0.0023304239
0.0002783216
-0.0023861145
0.00021993471
-0.0024369814
0.00014737164
-0.0024801224
5.7779458e-05
-0.0025124408
-5.169369e-05
-0.0025292619
-0.00018396742
-0.0025256394
-0.00034056692
-0.0024970496
-0.00052072323
-0.002439714
-0.00072270949
-0.002351044
-0.00094319806
-0.0022302279
-0.0011784549
-0.0020776826
-0.0014253299
-0.0018956777
-0.0016811046
-0.0016875126
-0.0019460078
-0.0014568229
-0.002224575
-0.0012170977
-0.0025156861
-0.0010093829
-0.002798008
-0.00079940515
-0.0031564999
-0.00014963776
-0.0040273784
0.0013242796
-0.0052595707
0.0035103082
-0.0070141795
0.0058929045
-0.0080959124
0.0078420764
-0.0078611937
0.009437033
-0.0069661833
0.01029167
-0.0050072387
0.010152264
-0.0025413669
0.0095722519
-0.00083154964
0.0087428735
0.00046849382
0.0079431309
0.0013354769
0.0072235404
0.0019622782
0.0065706312
0.0023873672
0.005957018
0.0026620545
0.0053804592
0.0028056282
0.0048504572
0.0028443101
0.0043730102
0.0028078161
0.0039463446
0.0027240626
0.0035656834
0.0026118014
0.0032258539
0.0024830667
0.0029216616
0.0023465481
0.0026482743
0.002208009
0.0024014295
0.0020711445
0.0021774715
0.0019382978
0.0019733299
0.0018108003
0.0017865128
0.0016893145
0.0016149277
0.0015740486
0.0014569143
0.0014650593
0.0013112151
0.001362006
0.0011766835
0.001264726
0.0010523874
0.0011729207
0.00093757523
0.0010863694
0.00083154732
0.0010047434
0.00073382419
0.00092774636
0.00064393547
0.00085515686
0.00056145133
0.00078678701
0.00048589623
0.00072251651
0.00041696068
0.00066209603
0.00035429512
0.00060544042
0.00029742288
0.00055276973
0.00024606095
0.00050373538
0.00019984418
0.00045835317
0.00015837221
0.00041661506
0.00012134523
0.00037855358
8.8303251e-05
0.00034422955
5.885369e-05
0.00031359829
3.2428538e-05
0.00028678484
8.881885e-06
0.00026315951
-1.2736752e-05
0.00024561974
0.00022171229
-9.8868388e-05
0.00065454898
-0.00017043215
0.00065710106
-0.00024240316
0.00065935515
-0.00031511811
0.00066244128
-0.00038841758
0.00066556367
-0.00046241406
0.000668759
-0.00053707666
0.00067184385
-0.00061239973
0.00067459732
-0.00068830941
0.00067688349
-0.00076466077
0.00067834741
-0.00084135148
0.00067895241
-0.00091819637
0.00067849074
-0.00099500136
0.00067683318
-0.0010716216
0.00067390035
-0.0011477839
0.00066954564
-0.0012233426
0.00066378111
-0.0012980412
0.00065666597
-0.0013717241
0.00064810994
-0.0014442298
0.00063828998
-0.0015154355
0.00062725112
-0.0015852996
0.00061515885
-0.0016538255
0.00060213959
-0.0017211334
0.00058841952
-0.0017873505
0.00057394466
-0.001852808
0.00055880043
-0.0019178208
0.00054285719
-0.001982788
0.00052581069
-0.0020480161
0.00050708197
-0.0021140285
0.00048595311
-0.0021809754
0.00046115346
-0.0022491761
0.00043138229
-0.0023186307
0.00039476306
-0.0023887695
0.00034846426
-0.0024585957
0.00028975965
-0.0025264381
0.00021521581
-0.0025893264
0.0001206708
-0.002643439
2.4186397e-06
-0.0026830995
-0.00014430825
-0.0027021305
-0.00032153786
-0.0026942604
-0.0005285939
-0.002654714
-0.00076225655
-0.0025810146
-0.0010169035
-0.0024724893
-0.0012869872
-0.0023301659
-0.0015676576
-0.0021569919
-0.0018542791
-0.0019594034
-0.0021435922
-0.0017558553
-0.0024281211
-0.0016027709
-0.0026687671
-0.0015497356
-0.0028510412
-0.001246244
-0.0034599908
0.00053402986
-0.0058076479
0.0035468789
-0.0082724167
0.0066629289
-0.01013023
0.0093682595
-0.010801244
0.011630559
-0.010123491
0.013034041
-0.0083696664
0.013890478
-0.0058636758
0.013994846
-0.0026457389
0.013045819
0.00011748007
0.011350902
0.0021634081
0.0094195659
0.0032668168
0.0079039176
0.0034779208
0.0068630204
0.0034282589
0.0060911416
0.0034339346
0.005427894
0.0034688759
0.0048308018
0.0034414081
0.0043029779
0.0033356337
0.0038431607
0.0031838807
0.0034432946
0.0030116675
0.0030938761
0.0028324849
0.0027863515
0.0026540749
0.0025136791
0.002480684
0.0022700808
0.0023147435
0.0020508624
0.0021575133
0.0018522808
0.0020093785
0.001671359
0.0018702339
0.0015057386
0.0017396667
0.0013536928
0.0016171044
0.0012137558
0.0015019447
0.0010847054
0.0013937783
0.00096555805
0.0012920691
0.00085563726
0.0011962915
0.00075432026
0.0011060613
0.00066107763
0.0010209888
0.00057544954
0.00094078465
0.00049701183
0.00086522463
0.00042544005
0.00079408821
0.00036038996
0.00072714689
0.00030139304
0.00066443668
0.00024827916
0.00060588326
0.00020065824
0.00055135571
0.00015818557
0.00050082396
0.00012042658
0.00045437246
8.7060375e-05
0.00041191911
5.7693299e-05
0.00037359563
3.1896549e-05
0.00033939255
9.2798651e-06
0.00030940053
-1.1075743e-05
0.00028351403
-2.8592405e-05
0.00026313753
0.00023822041
-9.6940192e-05
0.00072490084
-0.00016795742
0.00072811724
-0.00023957386
0.00073097649
-0.00031201475
0.00073488123
-0.00038523519
0.00073878081
-0.00045935747
0.00074288019
-0.00053435974
0.00074684423
-0.00061020026
0.00075043555
-0.00068679
0.00075347216
-0.00076403175
0.00075558736
-0.00084172727
0.0007566465
-0.00091972692
0.00075649249
-0.00099779375
0.00075490334
-0.0010756983
0.00075180539
-0.0011532245
0.00074707064
-0.0012301253
0.00074068179
-0.0013061442
0.00073268573
-0.0013810676
0.00072303394
-0.0014546781
0.00071190073
-0.0015268478
0.00069942158
-0.0015975909
0.00068590312
-0.0016669034
0.00067145289
-0.001734836
0.00065635131
-0.0018017798
0.00064088629
-0.001868068
0.00062508844
-0.0019342281
0.00060902029
-0.0020008589
0.00059244264
-0.0020687303
0.00057495035
-0.0021384187
0.00055563921
-0.0022105941
0.00053333041
-0.0022859929
0.00050678441
-0.0023648334
0.00047360746
-0.0024475455
0.00043117877
-0.0025334019
0.00037561661
-0.0026209663
0.00030278308
-0.0027077234
0.00020743001
-0.0027885692
8.3260739e-05
-0.0028571043
-7.5776425e-05
-0.0029044346
-0.00027420805
-0.0029212236
-0.00051180581
-0.0029014923
-0.00078198965
-0.0028427456
-0.0010756539
-0.0027448744
-0.0013848616
-0.0026080426
-0.0017044925
-0.0024339977
-0.002028328
-0.002237927
-0.0023396603
-0.0020676442
-0.0025984006
-0.0019896204
-0.0027467892
-0.0018046169
-0.0030360417
-0.00052713749
-0.0047374666
0.0025192129
-0.0088539934
0.0060649558
-0.011818158
0.0093111939
-0.013376466
0.012137695
-0.013627745
0.014214534
-0.01220033
0.015709203
-0.0098643348
0.016262237
-0.0064167146
0.01608686
-0.0024703599
0.015549134
0.00065520315
0.0137452
0.0039673428
0.011323861
0.0056881516
0.0089927064
0.0058090771
0.0072762491
0.0051447171
0.0061608382
0.0045493417
0.0053723226
0.0042573931
0.0047267693
0.0040869616
0.0041654546
0.003896948
0.0036822591
0.003667075
0.0032714596
0.0034224651
0.0029202369
0.0031837087
0.0026161721
0.0029581395
0.0023498689
0.0027469873
0.0021141186
0.0025504943
0.0019033629
0.0023682696
0.0017132707
0.0021994708
0.0015406318
0.0020428695
0.001382924
0.0018973715
0.0012382756
0.0017617525
0.001105227
0.0016349936
0.00098255891
0.001516448
0.00086940289
0.0014052256
0.00076506781
0.001300628
0.00066895844
0.0012021709
0.00058061383
0.0011093338
0.00049964329
0.0010217544
0.00042569263
0.00093917408
0.00035844771
0.0008613331
0.00029759168
0.00078800234
0.00024275059
0.00071927759
0.00019369604
0.00065493712
0.00015011714
0.0005949329
0.00011166188
0.00053927898
7.8000406e-05
0.00048803342
4.8734504e-05
0.00044118601
2.3511264e-05
0.00039881864
1.8860103e-06
0.00036101567
-1.6516807e-05
0.00032780062
-3.2755051e-05
0.00029975187
-4.6191449e-05
0.00027657464
0.00025090113
-9.4541339e-05
0.00079439836
-0.00016484593
0.0007984268
-0.0002359235
0.00080205248
-0.00030795873
0.00080691399
-0.00038114091
0.00081196299
-0.00045542513
0.00081716224
-0.00053081843
0.00082223411
-0.00060726825
0.00082688316
-0.00068468013
0.00083088179
-0.00076292632
0.00083383222
-0.00084182832
0.00083555056
-0.00092115011
0.00083581725
-0.0010006836
0.00083443696
-0.0010801505
0.0008312712
-0.0011592549
0.00082617567
-0.0012377221
0.00081915074
-0.0013152541
0.0008102182
-0.0013915579
0.00079933703
-0.0014664307
0.00078677366
-0.0015396994
0.00077269181
-0.0016112273
0.00075743228
-0.0016811296
0.00074135432
-0.0017495591
0.00072477844
-0.001816722
0.00070804811
-0.0018832426
0.00069161088
-0.0019499582
0.00067573833
-0.0020176281
0.00066011165
-0.00208733
0.00064464877
-0.0021601287
0.00062843842
-0.0022369348
0.00061014145
-0.002318732
0.00058858379
-0.0024072239
0.00056209837
-0.0025031516
0.00052710663
-0.0026065277
0.00047899324
-0.0027169309
0.00041318711
-0.0028320931
0.00032259465
-0.0029468541
0.00019802229
-0.0030523379
2.9705434e-05
-0.0031350431
-0.00019150684
-0.0031811401
-0.00046571419
-0.003182646
-0.00078048566
-0.0031388136
-0.0011194879
-0.0030510312
-0.0014726466
-0.0029164586
-0.0018390645
-0.0027389297
-0.0022058557
-0.0025552917
-0.0025232965
-0.0024278471
-0.0027258444
-0.0022692075
-0.0029054284
-0.0014041802
-0.0039010655
0.0014307031
-0.0075723483
0.0046838959
-0.012107185
0.007381464
-0.014515726
0.0097170095
-0.015712009
0.011627383
-0.015538117
0.013591226
-0.014164178
0.015242545
-0.011515651
0.016406779
-0.0075809517
0.01683075
-0.0028943275
0.015965616
0.001520332
0.014632626
0.0053003365
0.012534607
0.0077861674
0.010105927
0.0082377569
0.007910985
0.0073396601
0.0062987883
0.0061615384
0.0052604666
0.0052957166
0.0045296294
0.0048177989
0.0039417052
0.00448487
0.0034504101
0.0041583658
0.0030417857
0.0038310924
0.0026995109
0.0035259832
0.002407857
0.003249789
0.0021551112
0.0029997329
0.0019328295
0.0027727757
0.001734791
0.0025663057
0.0015565217
0.002377739
0.0013946847
0.002204705
0.0012468047
0.0020452492
0.0011111573
0.0018973989
0.00098608144
0.001760069
0.00087078266
0.0016317469
0.00076436366
0.0015116433
0.00066616496
0.001398825
0.00057576991
0.0012925672
0.00049276074
0.0011923433
0.00041680327
0.001097711
0.00034768646
0.0010082901
0.00028506984
0.00092395002
0.00022870636
0.00084436369
0.00017834187
0.00076963845
0.00013367769
0.00069959791
9.446414e-05
0.00063414521
6.0400924e-05
0.00057334119
3.1172415e-05
0.00051726037
6.4405539e-06
0.0004659183
-1.4255052e-05
0.0004195152
-3.1313663e-05
0.0003780754
-4.5191511e-05
0.00034167734
-5.643132e-05
0.00031099276
-6.5174046e-05
0.00028531762
0.00025888408
-9.1540244e-05
0.00086278806
-0.00016093445
0.00086781837
-0.00023134421
0.00087246115
-0.00030298998
0.00087856121
-0.00037600678
0.00088497891
-0.00045040346
0.00089155635
-0.00052620813
0.00089803651
-0.00060336415
0.00090403648
-0.00068171067
0.000909227
-0.00076116208
0.00091328616
-0.00084145578
0.00091584754
-0.00092237221
0.00091673358
-0.0010036404
0.00091570336
-0.0010849171
0.00091254825
-0.001165908
0.00090716867
-0.0012462157
0.00089945917
-0.0013254766
0.0008894775
-0.0014034114
0.00087727005
-0.00147967
0.0008630323
-0.0015540549
0.00084707787
-0.0016263707
0.00082974743
-0.0016966217
0.00081160249
-0.0017650186
0.00079317388
-0.0018319951
0.00077502645
-0.0018982586
0.00075787677
-0.0019644855
0.0007419653
-0.0020321524
0.0007277774
-0.0021025865
0.00071508275
-0.0021773898
0.00070324388
-0.0022577547
0.00069050978
-0.002345139
0.00067596947
-0.0024422508
0.00065920874
-0.0025510965
0.00063595064
-0.00267304
0.00060093425
-0.0028092052
0.00054935015
-0.0029587381
0.00047212961
-0.0031164074
0.00035569427
-0.0032696684
0.00018296565
-0.0033980877
-6.3088981e-05
-0.0034820837
-0.00038172002
-0.0035102006
-0.00075237182
-0.0034839139
-0.0011457798
-0.0034049869
-0.0015515787
-0.0032766736
-0.0019673758
-0.0031171436
-0.002365382
-0.0029789258
-0.002661514
-0.0028711936
-0.0028335748
-0.0023593888
-0.0034172316
-0.00034414356
-0.0059163105
0.0034287918
-0.011345284
0.0053372915
-0.014015681
0.0067937432
-0.015972175
0.0082171625
-0.017135432
0.010081599
-0.017402552
0.012077114
-0.016159691
0.013733245
-0.013171781
0.014853003
-0.0087007135
0.015402165
-0.003443493
0.015170646
0.0017518526
0.014259847
0.0062111394
0.012545842
0.0095001693
0.010470146
0.010313452
0.0083594128
0.0094503894
0.0064735487
0.0080474079
0.0051064975
0.006662766
0.0042194197
0.0057048797
0.0036068874
0.0050974018
0.003131986
0.0046332656
0.0027462523
0.0042168285
0.002427948
0.0038442893
0.0021599919
0.0035177486
0.0019292579