/*--------------------------------*- C++ -*----------------------------------*\
  =========                 |
  \\      /  F ield         | OpenFOAM: The Open Source CFD Toolbox
   \\    /   O peration     | Website:  https://openfoam.org
    \\  /    A nd           | Version:  9
     \\/     M anipulation  |
\*---------------------------------------------------------------------------*/
FoamFile
{
    format      ascii;
    class       volScalarField;
    location    "22";
    object      p;
}
// * * * * * * * * * * * * * * * * * * * * * * * * * * * * * * * * * * * * * //

dimensions      [0 2 -2 0 0 0 0];

internalField   nonuniform List<scalar> 
918
(
0.38369976
1.5989671
0.018493828
0.34403066
-0.0089628339
1.5696228
-1.1448585
1.1476548
0.40440192
-0.33590234
-0.22491448
0.66979202
1.4410212
1.2008077
-0.9088734
-0.089984359
1.0570388
-0.94857369
0.39617926
-0.065774473
1.2502595
0.35367068
0.38099856
0.35489624
0.84799318
1.1816452
1.3039088
-0.0023177328
0.013168734
-0.013361908
-0.0079720244
-0.062587089
-0.05802356
1.4458996
1.4999196
1.5236111
0.42883986
0.36293932
-0.89905324
-1.0260069
-0.96314557
-1.2205141
1.1276503
1.1287993
-0.5114195
1.1484848
1.167677
0.37405056
0.39905428
0.4087167
0.34940115
0.379279
0.39554231
0.30251598
-0.35362353
-0.41521259
-0.29524613
-0.27627853
-0.090667613
-0.23983301
-0.23383951
-0.22521684
-0.20203944
0.50491896
0.63201327
0.61644686
0.68409559
0.71881163
1.5360634
1.4995037
1.5264846
1.4733085
1.4636142
1.4208733
1.3840255
1.2394664
1.2467992
1.1983979
1.162342
-1.4443012
-2.4945091
-0.32583548
-0.015683393
-0.0081207474
-0.1096351
-0.10465646
1.0330947
1.0335833
1.0558403
1.0754921
1.1199592
-0.88610586
-1.159515
0.39862677
0.3916485
0.38639136
0.36821296
0.41420232
0.45932963
-0.07331756
-0.099858695
-0.051676701
-0.041113065
-0.051122802
1.2265795
1.2161246
0.36992457
0.37504604
0.7386135
0.8013499
0.77646148
0.34953911
0.87519101
0.91437597
0.97313137
1.1709151
1.1832623
1.1637429
1.2900813
1.2453957
1.3505946
1.3761912
0.016692555
0.0052036286
-0.098967199
-0.070731968
-0.067866999
0.44227614
0.4619205
0.43988785
0.41527253
0.41528886
0.30527657
0.16253493
0.45339273
0.4714705
-0.731299
-0.82596771
-1.0074964
-1.0277996
-1.2398923
0.72660604
1.108317
1.110204
-0.55371012
-0.39931511
-0.65020858
-0.30803357
-0.39576523
0.39774173
0.38786006
0.39352831
0.37101674
0.37498658
0.37411211
0.38168954
0.38318403
0.39778671
0.37071529
0.5129109
0.24869795
0.19907621
-0.64449099
-0.44391346
-0.62448169
-0.26245194
-0.25674417
-0.059538008
-0.015684946
-0.06074414
-0.078917136
-0.2502809
-0.24412349
-0.24426666
-0.20338743
-0.18134884
0.4927695
0.49602585
0.4896117
0.49872308
0.53736743
0.5458619
0.58847797
0.57392686
1.3099913
1.3336627
1.3783534
1.3412942
-3.8966607
-6.5949612
0.31576935
0.49920531
-0.0093385256
-0.00042371832
0.0020845188
0.014582526
-0.0032881885
-0.012800489
-0.088093854
-0.096605184
-0.1062734
-0.10049026
1.0052051
1.000361
1.0654361
1.1040594
0.98313534
0.97423611
0.40856985
0.40353212
0.4078231
0.4016327
-0.17412438
-0.12833977
-0.14437096
1.1699574
1.1975499
1.1906849
0.26786588
0.15128657
0.39848689
0.43527844
0.97492513
0.93870268
0.96636793
1.0486401
1.0833927
1.3657185
1.3777443
1.4155824
1.4123635
1.4606617
1.4529904
1.4114534
0.48268563
0.46447167
0.48668975
0.40973791
0.42727665
0.41915103
0.50152272
0.46230272
0.49144712
-0.0053208211
-0.34612484
0.54687743
0.5404519
0.51798136
0.51271496
0.80189702
0.89309718
1.0732688
1.0895278
1.0942902
-0.16751349
-0.24417153
0.12828296
0.10510636
0.45471496
0.48106104
0.48178823
1.2841144
1.2844801
1.3308397
1.2931146
1.234449
1.2571782
-0.3736514
-1.5464066
-0.92725635
0.90582055
0.68387895
0.78941387
-0.09294073
-0.087843411
-0.10877107
1.0746841
1.1362071
0.57178909
0.82342338
0.82517402
1.1320531
1.1549784
1.2262834
1.1515651
1.1782119
1.203043
1.1860872
0.67373856
0.58157389
0.6043303
0.93952505
0.99290213
0.076202463
-0.035719805
-0.064291601
-0.012862705
0.036369241
0.0058016072
1.0993397
1.0369939
1.1095389
0.38006926
0.37205192
0.013772038
0.0024995004
0.40675607
0.37941602
-0.0061345102
-0.014693237
0.76372203
-0.65744174
0.088836377
0.40662603
0.40191622
0.39352018
-0.32701146
0.26822916
-0.20502654
-0.12001577
-0.17827005
0.64998036
0.51874496
0.50598261
-0.0024671024
-0.078725011
-0.10481885
-0.54757131
0.38767497
0.36760025
0.38404289
0.36893226
0.40081225
-0.017822056
-0.0012150205
-0.005972426
-0.086067468
-0.053986325
-0.040370621
0.46081843
0.48016782
-0.44191798
0.39702562
0.38252236
0.3997452
0.35620926
0.41511959
0.36739073
-0.067822972
-0.031558206
-0.076422648
0.30608088
0.44808392
1.0829255
1.2440172
1.0960169
0.71232317
0.38378694
0.94021114
1.0387251
0.90109618
1.0824004
1.0810691
1.1224312
0.16562907
-0.064749025
0.18500509
0.12579797
0.40486616
0.40922722
0.40599129
0.40262121
0.40288981
0.376888
0.40210686
0.4036398
0.400109
0.41645625
-0.25176075
-0.29187038
-0.32173521
-0.40406413
0.28049089
0.55735469
0.18836181
0.2195267
0.024149137
-0.22259817
-0.20713668
-0.19883947
-0.22164615
-0.17757717
-0.19546572
-0.10395008
-0.087042489
-0.14404595
-0.15202393
-0.21335076
-0.22063684
-0.1842973
0.61096586
0.59281682
0.63961311
0.69133626
0.51075478
0.50058896
0.50478522
0.51103203
0.50501589
0.45966108
0.49448331
0.47336811
-0.028534436
-0.00016996074
-0.01446403
-0.0769743
-0.11371846
-0.049299357
-0.033448682
-0.04169859
-0.048549678
-0.052217843
-0.1356257
-0.13881316
-0.49888174
-0.65998936
1.0182131
0.87546567
0.05559176
0.37189595
0.36636017
0.35585699
0.39341128
0.38078536
0.38648244
0.38778263
0.38534872
0.43257973
0.41096346
0.48091862
0.51486085
-0.35741442
-0.59332398
-0.32870715
-0.38297748
0.2293237
0.94613175
0.4381517
0.37058913
0.38191379
0.76187134
1.2800231
1.149747
1.1937566
1.2390612
-0.29715165
0.19103454
-0.099583489
0.5807854
0.80220834
1.0557464
1.1150196
1.1196377
1.0891005
1.0239973
-0.20381008
0.78874673
-0.22487178
-0.20762395
0.13219203
-0.044198019
1.1404296
1.0537314
1.0607535
1.1055039
1.1419947
1.0662824
1.0085716
1.0235742
1.096612
1.0985688
0.72467804
0.33200294
0.22679521
0.22190384
1.0216766
0.78973854
0.88750445
0.72222902
0.40912952
0.41922075
0.40452324
0.42544823
0.41839549
0.41206339
0.44903525
0.46581748
0.42241529
0.39268207
0.43052845
0.40421731
-0.24848912
-0.25836915
-0.21237323
-0.42036416
-0.40111619
-0.51619167
-0.29632592
-0.06739987
-0.09978325
0.11093218
0.23848443
-0.11093054
-0.3102274
-0.2524785
-0.19467107
0.027853744
0.08703202
-0.018864216
0.01931902
0.025591694
0.0043777346
0.1288324
0.13297942
-0.19698758
-0.18392925
-0.18976792
-0.20387546
-0.13091386
-0.012049194
-0.013957579
-0.22292404
-0.24323005
-0.20658481
-0.18893863
-0.14063539
-0.18108276
-0.16787655
-0.12612777
-0.083322533
-0.065954288
-0.1103115
-0.23629383
-0.15376142
-0.19258364
0.53874435
0.56278326
0.54911733
0.70987874
0.70589857
0.75037708
0.71325223
0.46207088
0.48204139
0.47224976
0.53295844
0.50474378
0.54341357
0.55782239
0.59050975
0.60356206
0.49509261
0.47387468
0.57010589
0.52672861
0.52718104
0.53522545
0.56356619
0.50481246
0.52364976
-0.061828113
-0.039063948
-0.038694899
-0.10263282
-0.019233061
-0.033230388
-0.14562195
-0.11826688
-0.14810571
-0.11127212
-0.14358914
-0.075494616
-0.086031856
-0.32559855
-0.16186765
-0.54989488
-0.58499659
-0.68518551
0.90902406
1.0670786
0.809971
0.52827181
0.56108881
0.84832586
0.99171994
0.50673139
0.63456213
0.75192204
0.69015445
0.92722007
0.39092498
0.38424234
0.3982301
0.37959006
0.40621726
-0.17135773
0.020420598
-0.043819585
0.13482058
0.34721841
0.39826359
0.21097903
0.14816239
0.30632661
0.20144549
0.94478427
0.97397187
0.85687411
0.91188769
0.9122264
0.57737378
0.74262158
0.86349293
0.76988469
0.85062396
0.8729856
0.80524153
0.85053259
0.78722654
0.68670614
0.70367782
0.52546568
0.58979002
0.54544254
0.5174748
0.62282553
0.58387467
0.61890205
0.6122687
0.66945864
0.76852245
0.75101431
0.76224507
0.8151262
0.66807197
0.59635458
0.6164285
0.68237609
0.57289282
0.58611929
0.62207446
0.21315454
0.22706287
0.098897369
-0.0017035753
0.083358543
-0.078993734
-0.099831938
-0.066241136
0.24751445
-0.38760763
-0.37547681
-0.74678368
0.66615857
1.3078447
1.0692402
1.0603265
1.1425352
1.1019692
1.0914475
1.1584629
1.1653421
1.0075397
1.0458697
1.0466973
0.93810631
0.98314051
1.0774908
1.0597979
0.75267261
0.49111345
0.44433348
0.42396311
0.17539759
0.25078493
0.62670026
0.48852775
0.35271539
0.35737644
0.67386723
0.45324835
0.5754152
0.66508778
0.5229162
0.44866057
0.80932495
0.94480782
0.93852901
0.88541506
0.70398004
0.74256163
0.80405006
0.87548128
0.91433805
0.99013826
0.42289514
0.42550307
0.41991854
0.40569519
0.43687737
0.43512777
0.43379862
0.41515807
0.41597849
0.41253766
0.42704063
-0.21618239
-0.20508839
-0.23075723
-0.24026126
-0.18607201
-0.20521144
-0.12567776
-0.15241363
-0.16461217
-0.15129129
-0.20632998
-0.21749634
-0.20770883
-0.1858462
-0.00045458943
0.02490804
-0.03808079
-0.046155926
0.14757412
0.28846049
0.34284754
0.26082372
0.077178103
0.10315676
0.17305964
-0.11468387
-0.11258478
-0.10240574
-0.076383839
-0.055996413
-0.23172412
-0.22329276
-0.20573287
-0.25188366
-0.21314287
-0.1888332
-0.16568556
-0.17532235
-0.19057557
-0.1875967
-0.17561256
0.46087536
0.48456217
0.53938981
0.50593439
0.50085919
0.52082087
0.48768808
0.50516129
0.50814203
0.5401874
0.52829537
0.56703074
0.55477025
-0.16883681
-0.12647443
-0.15733899
-0.16308809
-0.1211948
-0.098676525
-0.11385556
0.061750574
-0.080226207
-0.047091384
-0.16299114
-0.3953358
-0.28923871
0.4312576
0.56746131
0.56551096
0.79508722
0.58028511
0.52993181
0.67758781
0.80045135
0.22785748
0.45757132
0.26799931
0.92845741
0.8319259
1.0064268
0.548938
0.2314236
0.46007159
0.55191544
0.23900872
0.35004439
0.35383885
0.19029168
0.26471608
0.28362787
0.43550451
0.23278632
0.28482305
0.21597492
0.23879302
0.29637374
0.31636057
0.41539457
0.47759828
0.16301235
0.13068686
0.064156971
0.94514333
0.97165182
1.0025865
0.96135902
1.0033873
0.82982271
0.82196337
0.85923887
0.87221858
0.85107926
-0.57860557
-0.67584501
-1.0187344
-0.47398744
0.13919971
0.70478059
0.59188637
1.1449594
0.89683837
1.1196141
1.0693699
1.0182383
0.93393388
0.91161165
0.99836378
0.49249573
0.65968306
0.63419151
0.61357052
0.44323033
0.35209844
0.89332575
0.87602288
0.94897979
0.98180571
0.92367229
0.9992051
0.45073874
0.47041303
0.4460476
0.46485272
0.45497609
0.46079277
-0.072074493
-0.12173826
-0.026418263
-0.048851723
-0.12097037
-0.14175015
-0.25377685
-0.19140671
-0.18712798
-0.18307244
-0.19531623
-0.24341793
0.08611215
0.045504441
-0.14757722
-0.03506196
-0.19816878
-0.29591968
-0.35723275
-0.17783212
-0.05165323
-0.030016864
0.3595189
0.64407081
0.48770345
0.60128246
0.427479
0.53942609
0.51408277
0.47250667
0.51261945
0.38781895
0.40322116
0.39038369
-0.40025461
-0.067963242
1.1943636
1.1284823
0.74689567
0.59758392
0.53987087
0.87246793
0.79350033
0.64534282
0.74202375
0.86307119
0.85154885
0.17392473
0.15646292
0.50628056
0.64203072
0.29264093
0.17086013
0.137655
0.30684701
0.35860469
)
;

boundaryField
{
    wall-4
    {
        type            zeroGradient;
    }
    velocity-inlet-5
    {
        type            zeroGradient;
    }
    velocity-inlet-6
    {
        type            zeroGradient;
    }
    pressure-outlet-7
    {
        type            fixedValue;
        value           uniform 0;
    }
    wall-8
    {
        type            zeroGradient;
    }
    frontAndBackPlanes
    {
        type            empty;
    }
}


// ************************************************************************* //
