/*--------------------------------*- C++ -*----------------------------------*\
  =========                 |
  \\      /  F ield         | OpenFOAM: The Open Source CFD Toolbox
   \\    /   O peration     | Website:  https://openfoam.org
    \\  /    A nd           | Version:  9
     \\/     M anipulation  |
\*---------------------------------------------------------------------------*/
FoamFile
{
    format      ascii;
    class       surfaceScalarField;
    location    "22";
    object      phi;
}
// * * * * * * * * * * * * * * * * * * * * * * * * * * * * * * * * * * * * * //

dimensions      [0 3 -1 0 0 0 0];

internalField   nonuniform List<scalar> 
1300
(
1.7582594
5.6264299
-6.8036428
1.7582594
-6.9692517
5.6264299
-6.1322791
6.1322791
-1.576526
1.576526
3.7345763
3.650113
-4.4169323
4.4169323
-3.9425288
3.9425288
-2.381516
2.381516
-5.2377099
5.2377099
-5.0568057
5.0568057
4.7587782
-4.7587782
-5.6586357
5.6586357
-2.1777106
2.1777106
-5.4939255
5.4939255
1.478051
-1.478051
-4.8135147
4.8135147
-0.41234393
0.41234393
-0.57608574
5.1475601
1.1821736
1.1821736
-2.7337544
2.7337544
-4.8477452
4.8477452
6.214298
-6.214298
10.206034
-10.206034
-3.4023917
-4.091407
1.6259126
-10.372429
-5.343339
-5.343339
-8.438268
8.438268
-2.811838
2.8145919
1.6993793
-1.6993793
-1.7887787
1.7887787
-6.1142912
-0.017987954
-6.1142912
6.1491347
-0.016855595
6.1491347
-1.7588029
0.18227694
-1.7588029
5.4873086
-5.4873086
1.3536374
0.22288862
1.3536373
1.2689217
-1.2689217
-3.7362278
7.4708041
3.6484615
-3.0525247
8.2000848
-3.3944262
7.0445392
-6.5906834
6.5906834
-4.6854146
0.26848234
-4.6854146
4.1857717
0.23116052
4.1857718
-7.5001777
7.5001777
-3.9062535
-0.036275377
-3.9062536
4.0343854
-0.091856609
4.0343853
2.6635095
-2.6635095
-2.2009152
-0.18060084
-2.2009152
2.5465471
-0.16503107
2.5465471
0.35898308
5.2674469
-5.9854131
8.800005
-5.2674469
0.029736964
5.2000674
0.037642599
5.2000674
-5.0935108
0.036705105
-5.0935108
5.0136522
0.043153549
5.0136522
4.8571444
-0.098366232
4.8571444
-4.8590716
0.10029338
-4.8590716
-3.7030494
-4.6157238
-5.9009497
0.24231409
-5.9009497
-2.2131901
0.035479475
-2.2131901
2.1191665
0.058544149
2.1191665
-4.1579261
4.1579261
-5.9103492
0.41642373
-5.9103492
1.3557381
0.12231289
1.3557381
2.0100278
2.5614465
3.7682871
-3.7682871
2.2902361
-4.5755011
-0.2380136
-4.5755011
-5.0705368
-5.1354975
5.0705367
-0.25702193
-0.82143272
0.40908879
-0.82143273
1.2313614
-0.049187785
1.2313614
2.6886302
-0.14208309
-2.6886302
-0.045124227
3.9853325
-3.9853325
2.1244409
0.60931355
2.1244409
-5.5767796
5.5767796
4.9517505
0.061901718
-4.9517505
0.10400524
6.153904
0.060394038
6.153904
-6.1927193
-0.021578741
-6.1927193
3.6196488
-7.7110558
-4.3169695
5.4794478
0.17918798
-5.4794478
0.13610875
1.918082
-0.21870271
1.918082
-1.433299
1.433299
-1.5482034
-0.15117596
-1.5482034
-2.1192185
0.3304398
-2.1192185
1.5201483
0.2686304
1.5201483
-5.9294597
-0.18483145
-5.9294598
-6.096079
0.1857298
6.096079
0.053055717
1.4242733
-1.4242733
-1.9129844
0.15418145
-1.9129844
-5.6809622
-0.24849755
5.6809622
-0.1936536
-5.3698862
-0.11742247
-5.3698862
-1.3878547
-0.16034868
1.3878547
-0.11893309
1.2591929
-0.027831564
-1.2591929
-0.0097287719
-3.0531169
5.6145635
-3.393834
7.0422955
-6.2098173
-0.3808661
-6.2098173
6.9322617
-0.34157825
6.9322617
5.1101397
0.38378577
-5.1101397
0.42472512
4.0057092
0.1800626
4.0057092
-7.5151081
0.014930275
-7.5151081
7.3590601
0.14111767
7.35906
3.9121198
0.093589333
-3.9121198
0.0058662584
4.1650671
-0.13068181
4.165067
2.9089693
-0.24545977
2.9089693
-2.4202166
-0.24329286
-2.4202166
1.8043975
-1.8043975
2.0070716
-0.20267408
-2.0070716
-0.19384357
-11.148721
11.127142
-0.035787702
-11.112933
5.1642797
5.1642797
4.0687923
0.78835212
4.0687923
-5.0483691
0.18929756
-5.0483691
3.5466549
-7.8636244
4.5288051
-8.2318545
4.5551224
-14.927551
3.929284
-8.5450078
6.6798726
-6.6798726
6.2482892
0.43158347
-6.2482892
0.34733947
-2.2286862
0.015496072
-2.2286862
-3.534464
-0.6234621
-3.534464
4.8233654
-0.66543933
4.8233654
-1.3494792
1.3494792
-1.3329891
-0.016490181
1.3329891
0.022748995
4.3636715
-0.19860445
-4.3636713
-0.21182977
1.1003658
0.25327152
-1.1003658
0.2789331
4.4654185
-0.48008596
4.4654185
-3.5197827
-0.46554977
-3.5197827
-2.1969836
-0.031702612
2.1969836
-0.072542648
-5.8211448
0.24436523
-5.8211448
-11.213434
0.1005007
-11.175791
-6.0922186
-6.0922186
2.3460495
11.146054
-2.1631118
-0.25710481
2.1631118
-0.24502978
1.3872107
-0.037731486
-1.3872107
-0.046088282
-1.6094286
-0.19496892
1.6094286
-0.17612964
-2.543898
0.42467946
-2.5438979
-1.2387504
1.2387504
-1.3306026
0.091852206
1.3306026
0.18954574
1.7318861
-0.30761279
1.7318861
2.0289326
0.090233901
-2.0289326
0.11594816
-5.1402469
-0.22963927
-5.1402469
7.2146191
-0.28235735
7.2146191
-3.2013139
-0.31846881
3.2013139
-0.29234463
-0.035237646
11.16238
-5.129042
0.035531219
5.129042
-11.222774
11.258305
-3.1217102
0.57781225
3.1217102
0.94708211
5.3100505
0.2667291
-5.3100505
0.26168135
7.0749125
0.28414754
-7.0749125
0.39503996
-3.0198292
-0.5146348
-3.0198292
-5.5692271
-0.64059019
5.569227
-0.7458616
-11.475744
-0.19517965
11.670923
-11.43259
6.0163245
0.13757954
-6.0163245
11.395885
-1.2581035
-0.16616987
1.2581035
-0.019353118
2.0824479
-0.35056179
2.0824479
4.8843988
-0.41898031
-4.8843988
-0.25584811
-7.4000895
-0.11501859
7.4000896
-0.1854705
-2.528539
-0.49129024
2.528539
-0.44609111
-5.3446632
5.2954754
2.8554215
-3.3034772
-4.4075786
-8.4389748
2.5525462
3.0620173
4.8427822
-9.4932136
-5.4343377
-9.3571048
7.2770967
-7.0154154
-9.5090958
9.4107296
10.013859
-10.131281
-7.38178
7.404529
8.6540334
-8.7729665
3.7708994
3.6999047
10.900274
-10.631792
-16.792324
16.411458
9.7439536
-9.780229
17.062247
-17.047317
-19.409185
19.693332
-7.3420253
7.1614245
-8.7145476
8.4712548
-8.8370029
8.5446583
-3.0489773
-5.1828773
13.162077
-12.919763
11.738396
-11.976409
-11.515986
11.932409
4.0591229
1.2363525
4.0312913
-3.6195102
7.3904095
-3.425029
6.2804505
4.5267171
-7.5756944
3.3369074
-7.7444859
6.4124339
5.3259614
-6.155412
-2.2835628
-7.9818308
7.7631281
-7.6320366
7.4559069
12.046248
-12.064236
-3.6003253
7.30023
-3.4419702
6.5039874
-3.7175621
-3.6642179
3.5952493
1.2475329
7.7496222
5.4124552
-7.9288103
-1.4282945
-10.127109
9.7081283
-10.498543
10.032993
-0.45936521
5.7918743
-5.3325091
4.38838
-1.4728264
7.2647007
5.8042703
5.9935679
5.8689067
-5.6021776
1.1465087
-6.4790178
-6.3750125
-3.433281
3.5874624
3.3667104
-3.1438218
7.903712
2.1101465
7.7100584
-7.1929033
-2.9383777
-7.4225425
4.5134734
2.8910555
4.4969832
5.2691711
3.3848622
5.1088225
5.8722077
-5.9426699
0.070462225
-5.4448625
11.31707
1.35756
-9.1090804
-7.8615475
6.9325867
3.9676876
7.1637472
-7.5133491
-3.1184428
-7.088624
-10.250823
-6.5415009
-10.891413
10.948522
5.4629353
10.606944
-12.828353
12.642883
6.2801699
3.4637837
6.1883133
-6.6341226
-3.1461066
-6.6282563
13.626557
-3.6036432
-10.022914
-11.254674
-8.154511
11.113556
5.9486912
11.706195
7.9871367
12.101235
5.0738323
8.5527247
-11.022524
2.8680126
-4.4691518
-2.8728735
-4.6629954
4.5690757
2.5923488
4.4040447
-5.1491276
-3.5654201
-5.4062324
-5.0578973
-3.7791056
5.3033571
3.1678977
-5.2135289
-5.2850142
5.5319977
3.0126605
4.4719215
-9.9062592
4.0730863
-9.2559635
-9.572152
-3.3476111
-9.2248124
5.7036084
2.078815
-7.7824234
-1.8720858
11.900134
-6.574173
9.6165717
-6.8389537
-5.1374554
-7.0507834
-9.1383112
-2.3776745
-8.9525814
-9.5626071
9.0479723
-9.9467449
9.2813056
13.86055
-6.7120715
-7.1484787
-4.8831527
-3.8898137
4.8928816
-0.86159024
-7.2122472
7.2827094
0.17816234
6.4586128
7.6949653
6.8333751
-4.5271711
-3.1048655
-4.5732594
4.7386078
2.7172991
4.5436389
9.1240458
2.9222025
9.1071902
-8.586079
-3.4781573
-8.7709104
9.5621981
-9.2317583
3.7593942
-3.7910968
6.7358643
3.297129
-6.2557784
-3.8713303
8.6485024
-3.926238
-4.7222645
-12.087686
10.66222
1.425466
-4.8229855
-0.43460549
-0.022261573
-5.5801882
-3.9289076
5.4798948
0.51367307
11.175893
7.2469855
-5.5178036
5.7621689
6.1531196
6.2150213
-0.15999125
6.0888952
-5.5110829
7.0879201
-3.0854336
-4.0024865
7.0251914
-7.273689
-1.745719
-7.1399366
5.3942176
0.43636942
2.2880576
-1.8789688
-2.7351158
-0.69816518
-2.6191676
1.975878
1.3908324
2.2291495
1.3186455
2.2688169
-3.9462049
0.69272797
3.253477
-2.6275595
-2.4510939
-4.8875043
-1.3869909
6.2744953
7.2451124
2.4630159
-6.9892642
-0.4332783
3.6386058
-3.5800617
-1.1174894
-3.7700149
2.8004767
-3.9179661
-4.7809469
-2.5587835
7.3397305
-3.7909432
-0.7823162
3.8286747
0.66830857
-4.6809054
-3.3009254
4.8320814
0.27674107
-5.2083677
10.825826
-5.6174578
-8.3132332
4.5536764
6.7633937
7.444732
-9.1270086
4.7057572
4.4212514
-2.3636149
5.9353803
1.2283669
6.1154429
-9.0975866
5.9791438
7.8692439
4.0631655
-8.2530297
1.1644058
-7.9331808
10.507512
-9.137979
-1.3695327
5.2745294
5.2329823
7.5775498
6.2830003
-6.0481613
13.625711
-1.436728
-7.701251
9.3699089
-5.3067434
6.0820055
-11.388749
-12.365006
4.6637548
-9.7478229
11.762887
-2.0150637
-3.8419232
-8.9864302
13.589746
-1.3381565
-12.251589
9.2687876
-5.2611531
-5.6918492
10.953002
-8.8647963
8.8379559
-2.3355871
-6.5023688
-10.832979
-6.2143375
10.947998
1.6948851
-12.2257
15.093712
-3.6729749
5.3881128
0.8002005
5.257431
4.0478704
-6.8273501
2.7794798
4.8169259
-7.1525131
2.4691184
-9.2964685
-7.6299808
13.099247
-5.469266
-10.977592
-10.743971
-0.2336206
2.433761
12.659952
-10.420898
7.4359652
2.9849325
3.9998944
0.54374451
-3.7972203
-0.86577509
0.77033078
6.5226705
-7.2930013
5.1743755
5.0322924
5.1502432
1.3724273
4.99309
2.7700381
-4.7480602
-0.6581722
-5.9766875
2.197582
-2.8087898
-5.9485739
8.1461559
-6.7525899
0.80401594
-4.0281765
-6.0554857
10.083662
-6.9010499
5.2849622
5.5408633
8.0022613
-8.405959
2.3504734
-4.340666
-4.065293
4.4021165
-7.2109063
3.0811702
5.0649858
6.0938307
0.80881653
7.1441758
5.955071
-9.2229908
-0.03297266
11.367526
-9.9392318
3.1699183
8.9313168
-10.605883
-0.13808807
-9.3629005
0.46444247
-7.0386154
-7.3179809
6.6818172
-9.0594917
-4.7069316
8.3036711
0.80351912
-8.3567268
-0.5958546
-6.5241827
-3.0384244
-7.015473
-3.3071018
-6.6396431
-9.3552631
-1.7848671
-7.570396
7.2631052
-7.236464
-3.6549489
7.9823256
1.29898
-8.0245822
7.8584123
-8.0760533
7.7254915
0.26590656
7.0168028
7.0992816
3.2094679
-4.6531878
7.8626557
-6.68023
9.6024324
-11.272127
4.5918974
5.3826956
-8.8608529
-5.8894318
5.4725324
4.0896657
5.7411628
9.3972645
-10.827362
1.430097
-11.057404
12.632132
-1.5747274
-17.127026
6.0696211
-7.729761
3.5197297
0.23966452
3.5352258
0.98356258
2.9568476
-3.9404102
-2.8075342
-2.8800768
-3.2460805
-4.7343898
7.9804703
1.566106
-4.6486085
3.0825025
-4.6736731
6.2397791
0.044028396
-4.6926369
7.0690326
-4.112185
7.3086971
-4.6296447
2.6790523
4.5363175
7.9387173
-3.4023998
5.9362181
-2.6390891
2.6695019
-6.0719017
-2.0648879
-4.8447521
7.4371008
-5.2389101
6.0429261
-0.14409957
6.1870256
-5.5394548
1.6132168
-0.38921164
4.6430807
4.5979565
6.3711627
-4.9987354
4.4230035
-7.0620926
-1.6488982
-6.253276
-1.1882903
-0.47597795
-5.0620258
5.5380037
6.7282187
-7.2041967
-5.3568556
9.7606127
-4.4037571
8.0750392
-5.5435566
-2.5314826
-4.5627646
-4.6689936
4.1380851
1.9508101
10.025849
0.27669095
-5.8202475
-5.2343919
-4.2873098
4.3757036
2.7122165
-2.4028876
3.8283537
2.4251492
-0.13709162
0.82463161
1.4045179
2.481802
-1.6571704
0.19551785
2.2862842
-1.683451
2.6641654
0.97444041
-2.7543993
0.13523169
-1.9102719
4.7107486
1.343205
-2.7340375
1.076867
1.590292
-4.6757256
6.4080214
-3.1793622
-3.2286592
7.9983133
1.541548
-4.7209102
5.5983886
-5.1620192
3.0764834
-4.4634743
-1.6444268
-6.806446
-4.6962995
-3.3747056
6.4572081
-4.6057646
7.0687806
1.6762611
-6.6355023
8.3117634
-4.7452035
2.1864199
-4.1642715
5.1387119
-1.4945757
-2.6696959
3.659505
3.6802255
-3.8761777
0.10616277
-0.21667269
3.1067666
-3.3234393
-0.81119952
-3.438759
-7.4248423
7.7015833
-3.8226756
8.5284328
4.0399801
-3.4387425
11.967175
3.2777032
-6.7164457
-5.03553
-5.8178462
-2.2951943
5.1495377
-0.73860389
-5.8896525
-7.2409727
5.7960632
0.31937972
-9.2526194
10.376621
-1.1240012
-5.2849318
-0.69421203
5.9687415
-7.6709093
0.51839617
-5.2017909
5.1748298
6.4031968
6.7225765
-12.099719
-0.15187076
-6.6367833
1.3856802
-8.0224635
6.6186626
-3.8066794
8.4704343
-11.118012
7.4630629
-9.8190317
7.1009015
-0.92156193
7.2087513
-4.4292715
2.8141626
-9.0285001
-7.3336151
6.8129019
-3.3491183
7.6131023
-3.9309091
11.544011
-7.6038839
6.8160202
4.7279912
-1.6922826
-5.3585008
-6.516346
4.8240633
0.29967408
5.5571051
7.4773557
-4.7073176
6.8191835
3.9571429
-8.2978089
-3.2537634
-11.583921
3.2861122
-6.0430577
-2.9696244
6.2557366
5.0326369
5.5763814
2.1904436
-4.7106064
9.3834321
-9.6170527
-3.9141659
-3.403815
6.8324176
-2.0083543
5.3436534
-8.7474685
-1.6949621
5.7036316
-0.68312722
-5.0205044
1.0084399
-5.7153715
2.2879755
-8.0033471
6.7715162
-7.3673708
2.3507168
-10.080478
-5.6738654
-5.6932185
-2.4305515
-5.6455017
-7.9749188
5.5443673
-1.9052978
5.9531145
-8.9078758
8.2247486
-3.7242559
9.2686232
-5.8721088
-1.1433641
6.3182
1.4072915
10.675915
0.35602612
-6.2454579
-2.6619237
5.4567587
-2.7948351
1.7137799
-4.7059996
0.75075911
3.3400665
4.6582468
-8.7342841
-0.12656884
-6.3720267
-4.1672624
8.2569281
5.5933504
12.321569
1.4942076
9.4107053
-1.1537772
10.904913
4.5873855
4.7769313
-4.0937439
5.523841
1.4442598
6.0361571
-1.108628
3.7876803
2.4265978
2.4620772
1.1179844
2.7334739
1.8644826
4.3466907
0.4062806
-2.4737962
4.7046675
-8.9919773
-1.11558
-8.2036252
1.2071044
5.886201
-4.6790966
4.2692941
-1.5570775
1.474459
0.11119609
-2.4156281
2.304432
-3.8912904
-2.5527197
-0.26643557
-2.1026131
3.1794802
2.6081354
-2.9130446
-0.97824585
0.39445112
-5.0907506
4.0690232
-3.9628605
-0.28263502
8.0291284
-3.6682004
0.34476111
-1.4817805
-3.0939979
-3.7921631
3.6569314
11.38519
0.58198472
5.7677326
8.2835681
4.9826427
0.27532508
4.8123303
-6.827394
-4.4841381
-6.9792647
-0.36060214
5.6081393
2.7982893
9.8616624
7.5262804
5.5179262
-3.2295422
-12.846595
8.1856972
-2.6618562
6.6109698
-1.5904654
-6.4128816
6.5409496
3.0614828
-7.3444687
-0.022902122
-6.4357838
-9.09764
-0.49228254
8.7170312
-10.183632
9.040268
6.0018436
1.5685524
-4.8287432
-0.86447535
4.736891
0.040040321
10.944953
-1.2015488
-7.1435971
8.3451458
-4.6846523
3.5690723
1.0003146
2.8280391
3.3047466
1.7476691
-5.395928
-10.075025
-2.5396358
-2.1360898
-5.768295
0.5062002
-3.1143356
6.2979941
-2.7289218
3.7665115
5.616224
7.090683
-2.0438125
-5.1603842
6.4475695
-2.681058
4.4096251
)
;

boundaryField
{
    wall-4
    {
        type            calculated;
        value           uniform 0;
    }
    velocity-inlet-5
    {
        type            calculated;
        value           nonuniform List<scalar> 8(-1.7582594 -1.7582594 -7.3846893 -4.5714743 -7.3846893 -6.446951 -4.5714743 -6.446951);
    }
    velocity-inlet-6
    {
        type            calculated;
        value           uniform -5.6264299;
    }
    pressure-outlet-7
    {
        type            calculated;
        value           nonuniform List<scalar> 8(6.8036428 6.9692517 7.4937987 8.7465163 8.3187731 7.9366183 8.0754601 8.4844065);
    }
    wall-8
    {
        type            calculated;
        value           uniform 0;
    }
    frontAndBackPlanes
    {
        type            empty;
        value           nonuniform List<scalar> 0();
    }
}


// ************************************************************************* //
