/*--------------------------------*- C++ -*----------------------------------*\
  =========                 |
  \\      /  F ield         | OpenFOAM: The Open Source CFD Toolbox
   \\    /   O peration     | Website:  https://openfoam.org
    \\  /    A nd           | Version:  9
     \\/     M anipulation  |
\*---------------------------------------------------------------------------*/
FoamFile
{
    format      ascii;
    class       volVectorField;
    location    "22";
    object      U;
}
// * * * * * * * * * * * * * * * * * * * * * * * * * * * * * * * * * * * * * //

dimensions      [0 1 -1 0 0 0 0];

internalField   nonuniform List<vector> 
918
(
(0.40828004 -9.7493726e-05 0)
(0.0090456002 2.957628 0)
(-0.022098599 1.8026734 0)
(0.28966941 -0.0087479912 0)
(-0.0066184455 1.849631 4.8104653e-20)
(-0.011744088 2.9485778 -3.0731302e-18)
(1.0770203 1.6578145 9.5595644e-19)
(0.49058528 0.28817037 -2.4386234e-20)
(1.9884571 0.0032380389 0)
(0.028018203 1.2722134 0)
(-0.019974232 1.130597 0)
(0.65237696 -0.026218108 0)
(0.012839156 2.9163461 0)
(0.013791987 2.790663 0)
(0.10183391 3.1858801 4.9913616e-19)
(-0.00072421502 1.7387145 8.54707e-20)
(0.64604994 0.15948443 1.5813264e-18)
(0.22578028 1.7233352 7.600994e-19)
(0.35627484 0.0024730982 0)
(-0.016289555 1.3966009 0)
(0.10456484 0.27480287 -1.2389351e-18)
(1.0470038 -0.022301824 0)
(0.54352644 -0.029220846 0)
(0.2453924 -0.0068852957 0)
(0.78968237 -0.0065578789 0)
(0.024816364 2.6133202 0)
(-0.0099486254 2.9059432 1.1173155e-18)
(-0.041090687 1.8047683 0)
(-0.068235222 1.9936623 0)
(-0.032070611 1.7973917 0)
(-0.019904442 2.3384145 0)
(0.005403129 1.9008764 -3.7650253e-20)
(0.0076042842 1.7201915 0)
(-0.018161504 2.9813244 -1.1376008e-22)
(-0.018374719 3.0070233 2.3859415e-18)
(0.00086029425 3.0015938 0)
(0.37474995 0.017648705 0)
(0.43774751 0.91947404 1.9979242e-19)
(1.1754368 1.6337947 -1.1770055e-18)
(1.2467927 1.5153778 1.2122128e-18)
(0.98528614 1.771169 -2.1715501e-19)
(0.87763648 1.7786053 1.2534019e-18)
(0.61111041 0.34136666 2.3708512e-20)
(0.53453169 0.2671368 0)
(1.5398423 0.87688133 0)
(0.54598697 0.35178909 1.0884674e-19)
(0.43877243 0.29242919 -1.1345061e-19)
(0.24180727 -0.0059906777 0)
(1.9894175 -0.00010417679 0)
(1.9886774 -0.0027854445 0)
(1.3569278 0.00032209666 0)
(1.8673638 0.0048353027 0)
(1.737887 0.0028857227 0)
(0.029035959 2.0443025 -5.368931e-19)
(0.046353599 1.4798506 0)
(0.047149339 1.3635916 0)
(0.034757276 1.4199663 0)
(0.0244051 1.1881678 0)
(-0.024346823 2.2488764 0)
(-0.01826839 1.2891002 0)
(-0.010853733 1.1166621 0)
(-0.026287195 1.3123159 0)
(-0.019791567 1.1578883 0)
(0.73702194 0.035121842 0)
(0.79403594 -0.041138762 0)
(0.58418467 -0.027106672 0)
(0.83272011 -0.03409431 0)
(0.7160074 -0.02135915 0)
(0.016738931 3.0145157 1.1731757e-18)
(0.012391363 3.011377 0)
(0.0077284693 3.003578 0)
(0.013329216 3.0004881 1.2467067e-23)
(0.010556903 2.9476309 -1.6755044e-18)
(0.016843155 2.9848912 0)
(0.013437014 2.8938322 0)
(0.017717682 2.9238428 2.6397377e-24)
(0.013866715 2.8181064 0)
(0.017780542 2.9101409 0)
(0.011286113 2.7536807 0)
(0.25263561 3.6477891 0)
(0.17983482 3.5850215 0)
(0.1357856 3.3192683 -4.6695502e-19)
(0.050510756 3.0085836 0)
(-0.11839393 2.2206508 0)
(-0.013908389 1.9424854 -8.4125595e-20)
(-0.017739635 1.7854681 8.7761097e-20)
(0.79099297 0.18106413 -5.4450288e-19)
(0.67030588 0.12320755 -5.2428866e-19)
(0.76110888 0.21987521 -1.6411528e-18)
(0.62298616 0.18983861 -1.0876512e-18)
(0.18120967 1.1717463 0)
(0.34724336 1.8608934 -8.0504258e-19)
(0.43747006 1.8448455 1.3401209e-18)
(0.55110751 0.036352871 0)
(0.29528445 0.021089752 0)
(1.2186524 -0.0013584294 0)
(0.7389647 -0.035204559 0)
(0.6518322 0.017095159 -2.1111583e-18)
(0.64722277 -0.026411081 1.6719486e-18)
(-0.032111824 1.5254244 0)
(-0.019836639 1.3313409 0)
(-0.056960387 1.7863146 0)
(-0.035924049 1.6082258 0)
(-0.020915355 1.4722566 0)
(0.19582026 0.32324342 3.7738467e-19)
(0.27566571 0.27216881 0)
(0.50412181 0.018432093 0)
(0.2402813 0.013345585 0)
(0.86886256 -0.02949973 0)
(0.89325575 -0.017156653 0)
(0.77005312 -0.018155316 0)
(1.1614996 0.061097412 0)
(0.88095028 0.015462877 0)
(0.7326762 0.025369687 2.1767154e-18)
(0.0022845288 2.8621941 9.2844176e-19)
(0.021823334 2.8988183 0)
(0.036956826 2.8730711 0)
(0.016089533 2.7019156 0)
(-0.010383943 2.9857883 1.0743824e-18)
(-0.0090555202 2.8909034 0)
(-0.011743142 2.9907653 -3.3112898e-18)
(-0.0095877799 2.9158875 1.1348755e-18)
(-0.1009548 2.0795798 0)
(-0.093058783 2.1144423 0)
(0.00064032059 1.8994928 2.3901736e-21)
(0.008665844 1.869219 0)
(0.00060105392 1.7199685 0)
(0.70018466 0.049515699 0)
(0.44984952 0.030718362 0)
(0.29383338 -0.0079596425 0)
(0.64993824 0.031573125 0)
(0.32158027 0.022712555 0)
(0.52498205 1.0997212 -2.4835637e-19)
(0.55796201 1.1357945 0)
(0.41612333 0.90679093 3.502835e-20)
(0.32200995 0.69134737 0)
(1.3117136 1.4555393 -3.431749e-19)
(1.3630274 1.3038203 6.7510968e-19)
(0.56103947 1.9072652 0)
(0.78069776 1.8733224 0)
(0.66428237 1.8494331 0)
(0.15185974 0.2590217 -3.4130417e-19)
(0.65923223 0.31552685 0)
(0.57036429 0.24613973 3.0842837e-19)
(1.4248184 1.2452382 0)
(1.5146343 1.0246971 0)
(1.4578871 1.0867807 -5.4046201e-19)
(1.5913718 0.81264384 0)
(1.603246 0.68426302 9.3902355e-20)
(0.61003671 0.042446927 0)
(0.55734773 0.02972243 0)
(0.27134093 0.023598942 0)
(0.5228392 0.0073041988 0)
(0.53394686 -0.0079749667 0)
(0.24811772 0.0062038109 0)
(1.4989516 -0.0022840217 0)
(1.8699007 -0.0028754313 0)
(1.7318601 -5.1204891e-05 0)
(0.042542075 2.257145 3.0096052e-19)
(0.051862572 1.9672233 0)
(0.035984954 2.3466004 4.3539834e-19)
(0.02306837 2.1081 -3.2763186e-19)
(0.16336345 1.7107121 -6.2700115e-19)
(0.074107628 1.5623197 0)
(0.098187342 1.5328599 0)
(0.028328668 1.3572138 0)
(0.015023887 1.1345437 0)
(-0.020822933 2.4336142 9.8739661e-22)
(-0.0062834309 2.2561667 0)
(-0.033977071 2.4061257 5.4420371e-20)
(-0.032767347 2.1943515 -1.2138218e-19)
(0.011141506 1.3121588 0)
(-0.0087973497 1.2911747 0)
(0.0013801456 1.1099535 0)
(-0.028826704 1.3420032 0)
(-0.023955699 1.2016199 0)
(0.93612746 0.05161924 0)
(0.81883329 0.034829424 0)
(0.87365084 0.053436885 0)
(0.64487007 0.032948 0)
(0.43525775 -0.026432977 0)
(0.69599037 -0.04078441 0)
(0.74434015 -0.039395899 0)
(0.51611568 -0.025162146 0)
(0.0037320365 3.0719643 -9.9482573e-21)
(0.010799841 3.0616488 0)
(0.016171525 2.9688024 0)
(0.013256077 2.8677116 0)
(0.73364905 4.2371049 0)
(1.2351478 3.3014485 9.3404068e-19)
(0.073126801 3.1392381 0)
(0.030289294 2.910068 0)
(-0.13700958 2.0997633 0)
(-0.15398024 2.1933622 0)
(-0.12778578 2.1509914 0)
(-0.056901269 2.3341604 2.0598969e-21)
(-0.12486931 2.2700087 0)
(-0.083740287 2.2669988 0)
(-0.044710859 1.9940958 3.4972633e-21)
(-0.061243099 2.1197851 -7.2518236e-20)
(-0.039857408 2.0128944 -8.9310496e-20)
(-0.03802429 1.8743817 0)
(0.81731734 0.13767615 8.0651455e-19)
(0.70118906 0.089579172 -7.9174653e-19)
(0.30706344 1.7086102 0)
(0.20986766 0.94837842 -3.2315276e-19)
(0.22666186 1.850407 -9.912576e-19)
(0.1383166 1.4135529 9.9402557e-19)
(0.27808556 -0.0085605798 0)
(0.55018658 -0.0085683841 0)
(0.54028655 0.0079574885 0)
(0.27270768 0.0014581675 0)
(-0.035644749 1.3918587 0)
(-0.033927865 1.453857 0)
(-0.024846761 1.2650791 0)
(0.46750417 0.34985953 1.0006235e-18)
(0.36831916 0.33497628 -1.2003457e-18)
(0.36778463 0.28756301 0)
(1.3870291 0.13763074 3.1312276e-20)
(1.3689372 0.13363482 0)
(1.2153553 0.090757232 0)
(1.0205456 0.043158822 0)
(0.8348701 0.095450893 0)
(0.8469978 0.052641808 -3.5023431e-18)
(0.71796083 0.057909126 1.3325373e-18)
(0.003384663 2.9862198 9.4786568e-19)
(-0.0031463661 2.8662305 4.7024007e-20)
(0.0038476712 3.0539182 -2.0908793e-20)
(0.012753595 3.0472749 7.5266947e-19)
(-0.0093868349 2.9952592 3.6964392e-20)
(-0.0083891093 2.9361878 -1.4853185e-22)
(-0.013156151 3.0201625 -6.9917464e-19)
(0.0012170498 3.0231551 5.0394613e-19)
(0.0066770992 3.0398015 -7.5321118e-19)
(0.81565666 0.052945787 0)
(0.76241569 0.052438495 0)
(0.54206171 0.027547073 0)
(0.55717329 -0.009305765 0)
(0.57387615 -0.0082163724 0)
(0.29104627 -0.0098510348 0)
(0.65609981 -0.047300332 0)
(0.61046364 -0.043971061 0)
(0.35666941 -0.026918237 0)
(0.7115033 1.3849675 4.356353e-20)
(0.77875406 1.4661456 0)
(0.16539431 0.35597618 7.6331065e-20)
(0.33655717 0.77372899 5.7067448e-19)
(0.35837853 0.80540457 -3.376143e-19)
(0.2301837 0.49047604 6.5145986e-19)
(0.42247609 0.97116225 1.7649647e-18)
(0.16882364 0.34293566 4.1046255e-19)
(0.73210092 0.25394329 1.1573747e-18)
(0.6985707 0.28630812 2.9369793e-19)
(0.59645418 0.21680226 5.7995541e-19)
(1.6128305 0.60693431 2.2890748e-19)
(1.6007423 0.46681001 2.0761997e-19)
(0.028565138 2.4042461 1.3610701e-19)
(0.015291001 2.1883595 0)
(1.0961727 0.062948192 0)
(1.0118129 0.058476978 0)
(0.91946823 0.03827098 0)
(0.010054317 3.0770262 0)
(0.016998156 2.9386835 1.4573852e-18)
(0.016550384 2.9536885 0)
(0.013511285 2.8433414 -1.4548028e-18)
(0.0095924361 3.0917362 3.3179464e-19)
(0.003825788 3.0887422 0)
(0.86910799 1.755442 -1.3973469e-19)
(1.1341987 2.3667517 1.9066523e-19)
(0.84805988 1.87191 -9.5277308e-19)
(0.015321309 3.0004645 -8.5186607e-19)
(0.03680122 3.0420634 0)
(0.013029318 2.8759588 0)
(-0.056035882 2.3360216 -1.2020802e-20)
(-0.061361617 2.240501 1.4748061e-19)
(-0.041274709 2.113694 2.0220024e-21)
(0.34722232 1.5446752 1.0149277e-18)
(0.21462571 0.76343604 -6.9821149e-19)
(0.0892525 2.1685468 6.5393446e-19)
(0.16705652 2.0299345 -8.2873778e-19)
(0.083021879 1.7023088 1.2285071e-19)
(0.014625595 3.114012 -2.1800026e-18)
(0.017139641 3.1196166 2.4677817e-18)
(-0.0084869998 2.9804253 1.0184988e-18)
(-0.004975074 2.9777611 -9.904521e-19)
(-0.0074642076 2.8766079 -1.0375283e-18)
(0.004832339 3.1054713 -2.5755551e-18)
(0.0097406868 3.1046952 2.5567769e-18)
(0.38087886 0.84106193 0)
(0.33448273 0.781391 -1.3069988e-18)
(0.13632548 0.28387087 5.8338673e-19)
(0.41709425 1.0923011 1.1703295e-18)
(0.19335014 0.43682567 -1.8155134e-18)
(1.5483032 0.24501271 5.9546763e-20)
(1.5962365 0.39957554 0)
(1.5360104 0.26735958 2.7220574e-20)
(0.0073652007 2.4504082 1.6570341e-22)
(0.013885616 2.4257002 0)
(0.0085456718 2.2320835 0)
(0.39607716 1.4081842 -3.6405599e-19)
(0.42651256 1.2630766 -8.214903e-19)
(0.20324403 0.57876533 1.4675187e-18)
(1.1966997 0.005030963 0)
(1.3350519 0.0014708776 3.3266388e-19)
(-0.12218377 2.026302 0)
(-0.10908258 2.0044302 0)
(1.5136899 -0.0027125933 1.4315706e-21)
(1.1053538 0.015955993 7.3651634e-19)
(-0.060806366 2.3674728 -2.6860167e-21)
(-0.026153785 2.3993402 0)
(0.065062288 3.1827428 6.5048589e-19)
(0.54245492 3.5593193 0)
(1.476799 0.89484779 -5.1777093e-20)
(1.290134 0.0014775531 2.468127e-20)
(1.3729286 0.030835829 0)
(1.9985111 0.0056209263 6.5771459e-21)
(0.10744912 1.8749163 0)
(0.11573409 2.7514878 0)
(0.011487412 1.7062609 0)
(-0.0011302028 2.8237994 -1.0397711e-19)
(-0.097398782 2.8145708 -1.1279584e-19)
(1.2623106 -0.048991017 1.4238937e-20)
(1.3493771 0.073422232 0)
(1.3696868 0.10415507 0)
(-0.1818491 2.1962869 0)
(-0.093246843 2.5814397 0)
(-0.1374201 1.8136345 0)
(0.34198744 1.9874362 -4.2241865e-19)
(1.2985986 0.0099373825 0)
(1.1027696 0.0091423853 0)
(1.9696599 0.0082583382 4.377988e-19)
(1.6552814 0.015864923 -4.9769418e-19)
(1.9056822 0.0092961827 0)
(-0.19595466 2.1237689 0)
(-0.15777836 2.0283157 0)
(-0.157048 2.0889649 0)
(-0.13775119 1.8325422 0)
(-0.11250366 1.9085302 0)
(-0.10068218 1.8541489 0)
(1.3716833 0.063980785 0)
(1.3151154 -0.042334999 2.3969485e-20)
(1.0323206 1.7149558 5.8056624e-19)
(1.9562972 -0.0010468769 -4.4636209e-19)
(1.7075907 -0.0068630427 5.282234e-19)
(1.8973309 -0.0078495676 0)
(1.3165803 -0.0039509462 4.2687259e-19)
(1.1902392 0.0002067829 -5.4856473e-19)
(0.93879981 0.019898649 0)
(-0.092193656 2.5668896 0)
(-0.059122823 2.4649945 -5.2374104e-20)
(-0.041105144 2.494599 4.3272505e-20)
(1.5270881 0.40004282 7.2238696e-19)
(1.4533437 0.18637439 0)
(0.085123175 3.0553346 -1.2869052e-18)
(0.047267682 2.8419 -9.2129459e-20)
(0.18541724 3.184867 1.9616747e-18)
(0.16897755 3.2484479 -2.756039e-19)
(0.16692347 3.2953494 0)
(0.033136055 3.1357673 3.576475e-19)
(0.088028074 3.1751243 1.2635993e-18)
(0.084518443 3.2032664 -6.6821873e-19)
(0.052895694 3.108322 0)
(0.88223826 0.44456299 0)
(0.76204633 0.51697758 0)
(1.4222624 0.94720775 8.179223e-20)
(1.4276544 1.1353262 -8.1206357e-21)
(1.4926698 0.76386224 0)
(1.5323479 0.74063341 0)
(1.2837026 0.0049511391 -8.7927052e-19)
(1.1236706 0.0014876017 1.1358511e-18)
(1.3743719 0.031588232 0)
(1.2425172 0.040247695 0)
(2.001708 0.0083857506 0)
(1.8754539 -0.0040586095 0)
(1.9369821 0.0041317099 0)
(1.730381 -0.014944478 0)
(1.6682712 -0.0067931063 0)
(1.7992732 -0.0058459814 0)
(0.094955596 1.8677282 0)
(0.084164463 1.858075 0)
(0.12478751 1.8995324 0)
(0.14337916 1.9325247 0)
(0.13552831 2.7825799 0)
(0.18002844 2.8641394 -3.7511326e-19)
(0.093490528 2.8500756 0)
(0.078590708 2.8645789 1.1202014e-19)
(0.035688529 2.8708989 -6.9639803e-21)
(0.011733849 1.6979096 0)
(-0.016536226 1.6394504 0)
(0.038414087 1.740968 0)
(0.014597667 1.7465214 0)
(0.072215551 2.2728094 1.5240607e-19)
(-0.070278617 2.8454986 -1.8385706e-19)
(-0.019914099 2.8763232 -1.4310994e-19)
(-0.050080728 2.9020269 0)
(-0.11037435 2.8459041 2.8353946e-19)
(-0.13039936 2.8195351 1.7263193e-19)
(0.065079603 2.3202112 -9.6621251e-20)
(-0.044883511 2.6784268 2.4231966e-19)
(-0.016227929 2.6707399 1.812986e-19)
(1.2835453 -0.043550361 1.3306342e-18)
(1.1400535 -0.060269813 -1.6255862e-18)
(1.2490564 -0.042333926 -1.4232025e-18)
(1.150586 -0.048068952 1.8873747e-18)
(1.3679421 0.063628649 0)
(1.2807159 0.078625465 0)
(1.3815169 0.089540292 0)
(1.3644997 0.073715284 0)
(1.2378966 0.076396726 0)
(1.4455747 0.1611924 0)
(1.3853236 0.11408114 0)
(1.2965691 0.10551946 0)
(-0.13323954 2.3538022 3.6409381e-21)
(-0.1887441 2.2734789 0)
(-0.14288379 2.2915989 0)
(-0.13266574 2.6539557 -4.1346157e-20)
(-0.10852694 2.6731854 2.452636e-21)
(-0.24259824 2.1638144 -4.5394239e-20)
(-0.22006457 2.1126149 4.5656009e-20)
(-0.21399931 1.9485671 0)
(-0.19894077 1.9920258 0)
(-0.19704529 2.0248074 0)
(-0.14968654 1.7697051 0)
(-0.083634264 1.6905852 0)
(0.48215794 1.9941349 7.7226878e-19)
(0.50076201 2.0218468 3.3743747e-19)
(0.594776 2.6453847 -2.3261635e-19)
(0.38219882 2.7751605 5.7365484e-19)
(0.40108333 2.247501 3.1457251e-20)
(1.3963156 0.026621943 0)
(1.3322343 0.023334062 0)
(1.1562174 0.017402814 0)
(1.9785504 0.012535827 0)
(1.9596877 0.0089834623 0)
(1.7220277 0.016314033 0)
(1.6249701 0.016070115 0)
(1.6418109 0.022449911 0)
(1.3460467 -0.035149396 9.4397868e-19)
(1.1020993 -0.020627468 -1.1472544e-18)
(1.2986311 -0.039072374 -1.0598594e-18)
(1.1868336 -0.049431096 1.4157409e-18)
(0.98762036 1.7343432 0)
(0.87585735 1.8835067 6.1014337e-19)
(1.1288376 1.5957458 2.845596e-19)
(1.1850195 1.5966395 -3.7899525e-19)
(1.2768671 2.7147096 3.9890794e-19)
(1.0560474 0.13818287 8.4530704e-19)
(1.4572539 0.20774348 0)
(1.5038421 0.29896761 -5.6521431e-19)
(1.4666752 0.26443171 -2.2292286e-20)
(1.4253168 0.11321773 0)
(0.23318202 2.9348187 7.8215168e-19)
(0.11810038 2.8224154 -1.8706005e-18)
(0.05067029 2.371638 1.1919575e-18)
(0.080545626 0.083449181 -6.0349274e-19)
(0.37403087 3.4726064 -8.8831046e-20)
(0.24028053 3.3763497 0)
(0.25306594 3.4413145 1.2523343e-19)
(0.27652793 3.0926373 -1.998953e-18)
(0.41031824 3.1805813 0)
(0.014727071 3.1191956 6.6163857e-20)
(0.01792397 3.1325165 -7.1470169e-19)
(0.032908203 3.1176137 1.1108217e-18)
(0.040201977 3.1488087 0)
(0.03834799 3.1577658 0)
(1.3604266 2.8109678 0)
(0.72595412 1.0907039 -6.990989e-19)
(1.3471723 1.3630982 -8.7111392e-20)
(1.2584644 1.4143748 0)
(1.0906012 1.2853438 -9.6927074e-20)
(1.3692736 1.191876 4.6330684e-20)
(0.46237434 0.53883464 -1.4145361e-18)
(0.95061669 0.44329063 -4.0973961e-20)
(0.90915864 0.38155571 6.2725373e-19)
(0.77776932 0.56532855 4.618772e-20)
(0.67018777 0.51903688 -1.9101096e-18)
(0.9018824 0.48477028 0)
(0.93864305 0.58280502 1.019767e-18)
(0.96040458 0.55229587 0)
(0.83641208 0.52658135 0)
(0.80657833 0.45782603 0)
(1.0434957 0.82082802 5.6164817e-19)
(1.5182939 0.41424342 -6.04001e-19)
(1.5334214 0.57885377 0)
(1.5481511 0.54463905 0)
(1.0078811 0.30158902 9.3721573e-19)
(1.0680299 0.72400174 -5.6619074e-19)
(1.0013137 0.69686065 9.9682276e-19)
(1.2434727 0.53757507 -1.025215e-18)
(1.2807402 -0.021963974 6.0381505e-19)
(1.2551903 -0.0077907542 -6.108941e-19)
(1.0596714 -0.012924459 0)
(1.3960901 0.057313865 0)
(1.3631518 0.046406734 -5.9074361e-19)
(1.1945388 0.051120493 5.8425877e-19)
(1.7977528 -0.010532382 0)
(1.6852922 -0.030706892 0)
(1.9071437 -0.0069206075 0)
(1.6738061 -0.011863712 0)
(1.9434422 0.0055498289 0)
(1.932404 0.0041770925 0)
(0.077697754 1.8557797 0)
(0.063918843 1.828555 0)
(0.15764258 1.8071599 1.8171863e-19)
(0.31983855 1.9762367 2.3048515e-19)
(0.19067509 1.9635643 5.211116e-19)
(0.21535262 1.9878548 -8.3449622e-19)
(0.20611774 1.8517918 0)
(0.15983366 1.9596239 8.7426141e-20)
(0.1374343 1.9458434 0)
(0.3729344 2.2042045 -4.3595943e-20)
(0.35996226 2.5105927 4.6499694e-19)
(0.22483393 1.8954218 -7.8344993e-20)
(0.31443096 1.8476799 1.3926502e-19)
(0.25425294 1.8290518 -1.1340307e-19)
(0.34054203 1.7646481 1.0916057e-19)
(0.26482185 1.9363442 0)
(0.31535106 1.9533826 -4.0791875e-20)
(0.041901691 2.4388775 2.0214499e-20)
(0.040142235 2.8603634 0)
(0.053754079 2.5573665 1.2329571e-20)
(0.049868915 2.5625263 0)
(0.059750292 2.8818031 -1.2526494e-19)
(0.04985853 2.9179704 0)
(0.10441682 1.8266335 1.9112762e-19)
(0.11711117 1.923913 0)
(0.085320323 1.8232061 0)
(0.081936903 1.7750674 -2.1673508e-19)
(0.012517128 2.8510694 5.6362675e-21)
(0.025551011 2.8674865 -6.2834538e-21)
(0.011886864 2.9165237 -1.3686987e-22)
(-0.037850227 2.2838612 -1.5729333e-19)
(0.049556999 2.0939256 -7.8033273e-20)
(-0.016070263 1.6515989 0)
(-0.034845015 1.6063594 0)
(0.082973685 1.987149 -1.8644011e-19)
(0.096461921 1.87289 -2.2886334e-19)
(0.096802687 1.9380682 2.7601754e-19)
(0.074552903 1.9916687 0)
(-0.24270785 2.4675838 2.0525171e-19)
(-0.19966545 2.630095 -7.4679049e-20)
(-0.20809592 2.6378262 2.3333729e-20)
(-0.097995839 2.2682817 1.8598973e-19)
(-0.18924113 2.7186346 6.1424044e-20)
(-0.15254036 2.6968629 -2.2194533e-19)
(1.2591493 -0.051797896 -7.7672296e-19)
(1.2692689 -0.054215523 8.4916254e-19)
(1.1119533 -0.06324864 0)
(1.4507765 0.018410841 1.4040261e-18)
(1.2092731 -0.036195551 -1.5785494e-18)
(1.1610694 -0.041874846 1.7977768e-18)
(1.4633531 0.046789246 -1.9405343e-19)
(1.3696296 0.063624918 0)
(1.3667602 0.065691542 6.7646748e-19)
(1.2829661 0.073800365 -6.6991836e-19)
(1.5458439 0.083472122 -4.4328192e-20)
(1.5431576 0.068248913 3.7445753e-19)
(1.6662029 0.081894472 0)
(1.7485799 0.070183991 -1.4704624e-19)
(1.6668506 0.0033187912 0)
(1.5420676 -0.01186953 0)
(1.8158797 -0.012387105 0)
(1.6274007 -0.033464878 0)
(1.7874392 0.017890956 2.8371631e-19)
(1.7833286 0.0032207109 -5.8397646e-19)
(1.7319257 0.059186186 -2.9181017e-19)
(1.7469732 0.059537924 -3.3437992e-19)
(1.6808347 0.10244066 6.9925258e-19)
(1.5334793 0.11958413 0)
(1.5549583 0.16793997 0)
(-0.2381173 2.4415252 9.6670731e-20)
(-0.21155216 2.3089498 4.3694717e-21)
(-0.23950566 2.3233035 0)
(-0.1676106 2.4932347 -1.0005344e-19)
(-0.14887863 2.3848226 -7.6360028e-21)
(-0.13860329 2.4400526 8.9266597e-21)
(-0.14022591 2.8135839 -1.4671335e-19)
(-0.18129089 2.7170847 8.9476198e-21)
(-0.19082465 2.7158583 -4.6916116e-20)
(-0.14141223 2.7503985 8.157242e-20)
(-0.13246552 2.7604862 -9.7036528e-20)
(-0.26103315 2.0427413 -2.4728767e-21)
(-0.24811219 2.1713785 -1.0911108e-19)
(0.48289542 1.8869206 -3.6394995e-19)
(0.44284645 1.801498 -1.675298e-19)
(0.84286884 1.8982925 -5.9173816e-19)
(0.66893934 1.9857576 -3.2586516e-19)
(0.69531121 1.9899313 0)
(0.64548124 2.6080296 2.0196313e-19)
(0.70211587 2.6236011 3.3908682e-19)
(0.44922411 2.7068617 1.1264406e-19)
(0.45824866 2.7109156 -4.4353389e-19)
(0.54567613 2.6401928 5.059172e-19)
(0.55591969 2.6624493 0)
(0.48672506 2.7207316 -5.2881748e-19)
(0.22552004 2.7898362 9.8006759e-19)
(0.33408847 2.7775816 -4.8315059e-20)
(0.26983109 2.8651235 -1.376638e-18)
(1.0259899 2.5511826 7.7289018e-19)
(0.89643914 2.566106 0)
(1.949926 0.018373471 1.7451478e-20)
(1.6506054 0.024315502 -1.492426e-20)
(1.6679318 0.02571171 -2.6596488e-19)
(1.8669474 0.026817186 2.6665749e-19)
(1.9816569 0.021785222 0)
(0.88051366 1.6733122 0)
(0.84472628 1.5528433 0)
(1.0106491 1.4626461 0)
(0.86902927 1.477682 0)
(1.2835572 2.7488925 5.4860886e-22)
(1.1946853 2.5772779 0)
(0.94029137 2.2773816 3.2776617e-21)
(0.88324675 2.5434467 0)
(0.99943156 2.6162805 -3.0042946e-19)
(1.028162 2.602795 2.053225e-19)
(1.097523 0.1753861 0)
(1.0490585 0.20727547 2.3617132e-19)
(1.18397 0.10567068 1.3068551e-18)
(1.098465 0.10660987 -4.9258043e-19)
(1.0433151 0.069318405 -1.5297721e-18)
(1.4665349 0.31828369 -1.1283159e-18)
(1.3379446 0.38448534 -2.899835e-20)
(1.2262551 0.34046539 1.2404898e-18)
(1.3717003 0.27032612 1.0217057e-18)
(1.2774988 0.1393909 -1.7409441e-18)
(1.240853 0.17413679 2.1989047e-19)
(1.2844661 0.25963419 -4.7024403e-19)
(1.2574833 0.2391581 0)
(1.3967969 0.15560224 8.5619351e-19)
(1.4648425 0.21762261 0)
(1.4382184 0.26599744 0)
(1.5083477 0.2139276 3.4907996e-19)
(1.5486963 0.24050528 -2.3662836e-20)
(1.4813123 0.32775273 -1.971171e-19)
(1.4971695 0.30697883 0)
(1.5151156 -0.01225285 7.0659554e-19)
(1.718903 0.043713111 8.6885778e-19)
(1.6890716 0.014151393 -6.7247789e-19)
(1.6668495 0.055309527 -5.938946e-19)
(1.4985491 0.017341288 -1.0088682e-18)
(1.3486929 0.065257455 0)
(1.3662327 0.038279957 0)
(1.1729423 -0.017308279 -6.5442257e-19)
(1.1338862 -0.0019645062 2.6692584e-19)
(1.5795156 0.080272441 8.9337825e-19)
(1.6035589 0.17565888 -1.0219242e-18)
(1.5801258 0.1852885 9.3148044e-19)
(1.5551583 0.14767516 0)
(1.6230035 0.14313543 0)
(1.6728148 0.11259275 -3.96211e-19)
(1.6623196 0.09120999 -7.2752562e-19)
(0.73611164 1.4822583 1.1373508e-19)
(0.82045093 1.8310796 -1.4113128e-19)
(1.1841911 2.7822853 -1.3150911e-19)
(1.3021086 3.1357555 1.5384836e-20)
(1.346771 2.8288651 -2.6037693e-19)
(1.4016144 2.897676 -5.9826426e-20)
(1.274125 2.5738098 2.6941422e-20)
(1.335127 3.0596002 -5.3641697e-20)
(1.3426513 3.076813 1.58695e-19)
(1.3215532 3.3441014 -1.3364542e-19)
(1.439217 3.1117355 1.3791242e-19)
(1.4569775 3.0406545 0)
(0.73294271 1.1586452 -5.8149471e-20)
(0.27275664 1.3754347 7.6392093e-19)
(0.64154855 0.73885569 9.3950935e-19)
(0.41386923 0.32487822 1.0850311e-18)
(0.68608468 0.56901637 1.0688727e-18)
(0.72791169 0.66327 -1.7526078e-18)
(0.70851773 0.68302559 1.4192608e-18)
(0.625577 0.59391332 -5.5461685e-19)
(0.54960926 0.49252184 1.2616801e-18)
(1.0353341 0.34517817 -5.2646677e-19)
(0.98171245 0.38993644 0)
(0.94990812 0.34791653 1.8371832e-20)
(0.9469017 0.70352742 5.4488708e-19)
(0.91973942 0.66358473 -1.9819307e-18)
(0.78173533 0.67828516 3.0646948e-20)
(0.82164987 0.63929824 0)
(0.84316655 1.0298142 5.4868112e-19)
(1.0606787 1.0278063 4.4735252e-19)
(0.98510834 1.1581558 -5.1839138e-19)
(1.1141076 1.049808 -1.8998606e-19)
(1.2255498 1.121566 -3.4884683e-20)
(1.1901372 1.1216896 3.520727e-20)
(1.1110297 0.84004964 -9.4165525e-19)
(1.161371 0.94423311 1.7823167e-19)
(1.2686483 0.9492459 0)
(1.2917045 0.90321006 -2.4874161e-19)
(1.3553125 0.42169216 2.9761046e-19)
(1.4780551 0.42702557 3.5976104e-19)
(1.4376488 0.3802452 4.7452671e-19)
(1.315388 0.49754326 -6.073085e-19)
(1.3751845 0.55646564 0)
(1.4215374 0.54633415 0)
(1.1964583 0.48193274 9.6330617e-21)
(1.1330639 0.38251441 0)
(1.1673752 0.35415632 6.0951885e-19)
(1.2075479 0.3623002 -2.606809e-20)
(1.2242957 0.57704108 2.6848366e-18)
(1.146469 0.66344516 7.3918794e-19)
(1.1489977 0.60172344 -8.3085004e-19)
(1.0892757 0.58746253 8.956881e-19)
(1.0509586 0.59605524 5.4493779e-19)
(1.0091627 0.56108039 -5.3386579e-19)
(1.6323954 0.040170436 4.8388954e-19)
(1.9299976 0.024611497 0)
(1.8939998 0.033057068 3.2315275e-19)
(1.6550156 0.038075596 -7.2855111e-19)
(1.9049928 0.0082594383 3.6229372e-19)
(1.8588779 -0.013062659 -7.6411184e-19)
(1.6771955 -0.025479299 0)
(1.5710613 -0.019165905 -1.5249206e-19)
(1.8334235 -0.0088926977 3.8051784e-19)
(1.6666194 -0.010104516 -1.9456403e-19)
(1.6006219 -0.011496398 1.4397497e-19)
(0.043127849 1.7908221 0)
(0.066424013 1.8033887 0)
(0.061487984 1.8273599 0)
(0.038003442 1.7937028 0)
(0.080360799 1.8393879 -3.9141684e-19)
(0.092809242 1.8185059 1.3007695e-19)
(0.11553477 1.8929122 6.666859e-20)
(0.10454111 1.7945361 -9.8980428e-20)
(0.086037207 1.8851724 2.2284738e-19)
(0.077263265 1.8777041 -1.7191324e-19)
(0.077900055 1.8314962 -1.715682e-20)
(0.077344304 1.8440478 2.6740157e-19)
(0.071368814 1.8227162 3.8340174e-20)
(0.074817564 1.8327412 2.9908465e-20)
(0.076496756 2.5074081 -1.2387218e-20)
(0.090059251 2.5446423 0)
(0.1451375 2.2553781 2.8644825e-20)
(0.12748984 2.0305221 -1.8975487e-20)
(0.26562019 2.2245192 -3.8859891e-20)
(0.23183441 2.6095849 0)
(0.27539495 2.5958929 -4.1546345e-19)
(0.32599485 2.4944195 2.9879363e-19)
(0.22443739 2.1869157 -7.7911301e-20)
(0.17063184 2.3507883 8.3575687e-20)
(0.15971361 2.4914949 0)
(0.06021281 2.2032818 1.5339331e-19)
(0.040772573 2.5768496 1.9182368e-19)
(0.053518955 2.3711297 0)
(0.027906783 2.6230144 -1.6086259e-20)
(0.042909616 2.4578158 -5.5576135e-20)
(0.044965493 1.7623314 -3.8772197e-20)
(0.0014807981 1.7193641 6.0266552e-19)
(0.0070040008 1.7503615 -1.6458012e-19)
(0.062815183 1.8091669 -2.1778944e-19)
(0.099588908 1.8290539 0)
(-0.051226153 1.7006823 0)
(-0.097016272 1.6841255 -1.7704329e-19)
(-0.11287721 1.7149826 5.6154783e-20)
(-0.077587055 1.7022508 0)
(-0.056930343 1.64167 -1.3931587e-19)
(-0.06793147 1.6391439 2.7185709e-19)
(1.563193 0.040598721 0)
(1.5499496 0.039899402 -6.2635331e-20)
(1.8587205 0.026222245 -4.8648047e-19)
(1.7113124 0.042098103 0)
(1.5405983 0.039134629 0)
(1.8394733 0.018802747 1.6229838e-20)
(1.8496312 0.01826581 6.8332246e-19)
(1.7262685 -0.014858622 9.0688866e-19)
(1.6153838 -0.03023255 0)
(1.5366567 -0.028552783 0)
(1.7033511 -0.0027631886 4.8574952e-19)
(1.5519557 -0.01575724 0)
(1.5270784 -0.032694679 0)
(-0.23678479 2.3791318 0)
(-0.25470089 2.2015298 -2.2132891e-20)
(-0.25626862 2.3070768 -4.917073e-20)
(-0.15343313 1.7864198 0)
(-0.25337131 2.0969829 -9.2329584e-20)
(-0.2506198 1.9857093 3.4108045e-20)
(-0.20006153 1.8190697 0)
(0.49552932 1.9027798 0)
(0.44175449 1.6868914 2.5228636e-19)
(0.40483738 1.7043257 0)
(0.53162596 1.7270121 -4.1726007e-19)
(0.63158725 1.8999429 0)
(0.56586454 1.8423158 2.2648456e-19)
(1.1153011 2.8061975 -1.5172566e-20)
(1.0467822 2.57039 -8.9052504e-19)
(1.0421976 2.4625466 9.9544376e-19)
(0.92363051 2.552747 2.6941311e-19)
(0.91421874 2.6104951 0)
(0.97870795 2.5909045 0)
(1.0010112 2.5557625 0)
(0.98125307 2.5529004 -9.7447436e-19)
(0.73870241 2.5535763 -3.3211602e-19)
(0.8632499 2.5811169 -8.3226162e-20)
(0.86383475 2.533286 6.6592016e-20)
(0.7517651 2.5863417 0)
(0.85273179 2.5781159 0)
(0.8081197 2.5975226 -3.6657381e-19)
(0.80857999 2.6037483 0)
(0.81348583 1.4358773 0)
(0.69672546 1.261781 -5.1500557e-19)
(0.76607951 1.2731549 -3.1962147e-20)
(0.73934428 1.3779026 0)
(0.72845762 1.3509655 7.8871588e-19)
(1.0049979 1.1999924 -1.2693436e-19)
(1.021524 1.3343568 0)
(1.0244296 1.2578943 1.7462585e-19)
(0.84478543 1.3946993 0)
(0.8655147 1.2743793 0)
(1.2531131 2.8242643 -2.1500101e-19)
(1.2126856 2.8617926 -1.465557e-19)
(1.0040671 2.3705666 2.4303699e-19)
(1.0040183 2.4014093 -8.9852126e-20)
(1.2225151 2.8136934 0)
(1.1798654 2.768877 1.1460807e-19)
(1.2075751 2.6493675 -2.5053404e-19)
(1.1184555 2.4931726 -2.9741319e-20)
(0.68302159 1.6847307 0)
(0.68867856 1.4709432 -1.0011732e-19)
(0.72948653 1.5292423 0)
(1.156534 0.2700357 0)
(1.0737281 0.23198283 0)
(1.0002562 0.24378193 0)
(1.1441031 0.30407344 -9.4549637e-19)
(1.0550661 0.28293828 5.5486405e-19)
(1.1335182 0.00063867582 -5.2664298e-19)
(1.2049018 0.050216032 0)
(1.1842983 0.073153092 2.3698987e-19)
(1.093464 0.041081333 9.6576592e-19)
(1.0500993 0.017553837 -6.1098475e-19)
(1.3307528 3.4692996 -3.9011055e-19)
(1.3124493 3.4006465 0)
(1.3516957 3.4238454 -8.6030662e-19)
(0.5369055 3.5246076 8.2380989e-19)
(0.78424831 3.0560935 -2.1758011e-19)
(0.63913423 1.1681008 7.4657937e-19)
(0.61266753 1.1848668 0)
(0.5485016 0.75356276 -2.3031545e-19)
(0.64221012 1.0156894 1.1556131e-18)
(0.66308873 0.7127901 -3.2074118e-19)
(0.65116465 0.7512117 3.5777719e-19)
(0.83206591 0.73314193 7.4887202e-19)
(0.90803501 0.75635967 0)
(0.832446 0.86152822 0)
(0.76921049 0.81348445 0)
(1.2674178 0.78663478 8.4796497e-20)
(1.1678766 0.71706893 -7.047352e-19)
(1.177502 0.76262575 5.2877735e-19)
(1.2272161 0.68006208 -5.4286407e-19)
(1.3664638 0.67279626 0)
(1.3825138 0.7365174 -1.238115e-19)
(1.1069987 0.53146088 -1.2338413e-18)
(1.1303937 0.51329328 -1.4717966e-18)
(1.0623879 0.51833365 9.6248697e-19)
(1.0545769 0.49004037 -9.9834765e-19)
(1.1297298 0.4272767 -7.6894853e-19)
(1.0624769 0.42517471 9.544101e-19)
(1.8837478 0.012539594 -4.0917185e-19)
(1.9065403 0.014582581 8.3038612e-19)
(1.6278953 0.040088849 5.1440034e-19)
(1.6379988 0.043977936 -6.1237628e-19)
(1.7222941 0.039367023 0)
(1.8904799 0.029382379 -1.1022575e-18)
(0.064503271 2.0166181 -1.4557519e-20)
(0.060781068 1.9570151 0)
(0.087769785 2.0097172 -7.625637e-20)
(0.099718897 2.0016687 6.6876989e-20)
(0.084288927 1.9183575 -1.1819758e-19)
(0.077866413 1.9132232 0)
(-0.1224872 2.2254979 0)
(-0.13234347 1.9286745 5.7863165e-20)
(-0.17118906 1.9069403 -5.2356199e-20)
(-0.23447367 2.0916502 -2.1253578e-20)
(-0.2105261 2.3633562 9.7235425e-20)
(-0.19107857 2.3717198 -4.9821401e-20)
(0.6599542 1.6857645 -1.229421e-19)
(0.62150339 1.7232044 1.329075e-19)
(0.57210082 1.7005769 2.075297e-19)
(0.57529105 1.6589154 -1.9526066e-22)
(0.8181813 1.7079767 0)
(0.69617424 1.8130718 3.9606676e-19)
(0.76796398 1.8251215 -3.8455352e-19)
(0.60505478 1.7165492 -2.0591747e-19)
(0.67972714 1.6448817 0)
(0.73063228 1.6147832 0)
(0.71580478 2.5229889 4.8622868e-19)
(0.71732889 2.5932254 1.0989791e-18)
(0.76346821 2.593002 -7.8983439e-19)
(0.63541869 2.6006818 -1.7676011e-19)
(0.62256351 2.6583355 2.6134672e-19)
(0.5760413 2.6293657 -6.6941862e-19)
(1.0916928 2.552055 -5.359016e-19)
(1.1356979 2.575526 0)