/*--------------------------------*- C++ -*----------------------------------*\
  =========                 |
  \\      /  F ield         | OpenFOAM: The Open Source CFD Toolbox
   \\    /   O peration     | Website:  https://openfoam.org
    \\  /    A nd           | Version:  9
     \\/     M anipulation  |
\*---------------------------------------------------------------------------*/
FoamFile
{
    format      ascii;
    class       volScalarField;
    location    "0.004";
    object      mag(U);
}
// * * * * * * * * * * * * * * * * * * * * * * * * * * * * * * * * * * * * * //

dimensions      [0 1 -1 0 0 0 0];

internalField   nonuniform List<scalar> 
100
(
1.63524e-12
9.72973e-13
8.12513e-13
6.27254e-14
2.91746e-14
1.37412e-12
8.75238e-15
1.70671e-12
1.16698e-14
1.86717e-13
2.36606e-12
1.03905e-11
5.67373e-11
2.97664e-10
1.52363e-09
7.55083e-09
3.62399e-08
1.684e-07
7.55702e-07
3.27391e-06
1.36567e-05
5.48106e-05
0.000211043
0.000778575
0.00274308
0.00921044
0.0293578
0.088537
0.251313
0.667665
1.64697
3.73927
7.67994
14.0052
22.885
34.2335
47.6617
62.6021
78.5256
94.9956
111.798
128.61
145.516
162.088
178.392
194.329
209.663
224.291
237.966
250.515
261.832
271.798
279.767
285.91
290.531
293.178
294.493
295.417
296.225
296.681
296.014
294.028
291.787
289.852
288.576
288.155
288.359
288.466
287.56
284.506
276.938
257.655
195.84
77.6801
14.4936
2.33678
0.352894
0.0522857
0.0076444
0.00110263
0.000156886
2.20182e-05
3.04884e-06
4.16634e-07
5.6207e-08
7.48838e-09
9.8528e-10
1.28157e-10
1.64924e-11
1.89343e-12
1.41497e-13
2.37609e-30
0
0
0
0
5.1561e-32
0
0
0
)
;

boundaryField
{
    sides
    {
        type            calculated;
        value           nonuniform List<scalar> 2(0 1.63524e-12);
    }
    empty
    {
        type            empty;
    }
}


// ************************************************************************* //
