/*--------------------------------*- C++ -*----------------------------------*\
  =========                 |
  \\      /  F ield         | OpenFOAM: The Open Source CFD Toolbox
   \\    /   O peration     | Website:  https://openfoam.org
    \\  /    A nd           | Version:  9
     \\/     M anipulation  |
\*---------------------------------------------------------------------------*/
FoamFile
{
    format      ascii;
    class       volScalarField;
    location    "0.004";
    object      p;
}
// * * * * * * * * * * * * * * * * * * * * * * * * * * * * * * * * * * * * * //

dimensions      [1 -1 -2 0 0 0 0];

internalField   nonuniform List<scalar> 
100
(
100000
100000
100000
100000
100000
100000
100000
100000
100000
100000
100000
100000
100000
100000
100000
100000
100000
100000
100000
100000
100000
100000
99999.9
99999.7
99999
99996.7
99989.5
99968.2
99909.4
99758.1
99399.9
98631.1
97157.7
94803.7
91611.2
87676
83225.2
78518.7
73773.7
69126.7
64673.2
60432.7
56480.7
52744.9
49331.5
46191.3
43314.8
40730.6
38426.2
36442.7
34712.6
33306.1
32072.9
31287.8
30679.1
30338.5
30210
30214.9
30237.2
30304.4
30263.6
30265.3
30327.4
30341.1
30318.9
30266.8
30193.3
30096
29839.6
29465.9
28795.8
27193.1
22269.1
12871.5
10564.8
10088.9
10013.4
10002
10000.3
10000
10000
10000
10000
10000
10000
10000
10000
10000
10000
10000
10000
10000
10000
10000
10000
10000
10000
10000
10000
10000
)
;

boundaryField
{
    sides
    {
        type            zeroGradient;
    }
    empty
    {
        type            empty;
    }
}


// ************************************************************************* //
