/*--------------------------------*- C++ -*----------------------------------*\
  =========                 |
  \\      /  F ield         | OpenFOAM: The Open Source CFD Toolbox
   \\    /   O peration     | Website:  https://openfoam.org
    \\  /    A nd           | Version:  9
     \\/     M anipulation  |
\*---------------------------------------------------------------------------*/
FoamFile
{
    format      ascii;
    class       volVectorField;
    location    "0.004";
    object      U;
}
// * * * * * * * * * * * * * * * * * * * * * * * * * * * * * * * * * * * * * //

dimensions      [0 1 -1 0 0 0 0];

internalField   nonuniform List<vector> 
100
(
(1.63524e-12 0 0)
(9.72973e-13 0 0)
(-8.12513e-13 0 0)
(-6.27254e-14 0 0)
(2.91746e-14 0 0)
(1.37412e-12 0 0)
(8.75238e-15 0 0)
(-1.70671e-12 0 0)
(1.16698e-14 0 0)
(1.86717e-13 0 0)
(2.36606e-12 0 0)
(1.03905e-11 0 0)
(5.67373e-11 0 0)
(2.97664e-10 0 0)
(1.52363e-09 0 0)
(7.55083e-09 0 0)
(3.62399e-08 0 0)
(1.684e-07 0 0)
(7.55702e-07 0 0)
(3.27391e-06 0 0)
(1.36567e-05 0 0)
(5.48106e-05 0 0)
(0.000211043 0 0)
(0.000778575 0 0)
(0.00274308 0 0)
(0.00921044 0 0)
(0.0293578 0 0)
(0.088537 0 0)
(0.251313 0 0)
(0.667665 0 0)
(1.64697 0 0)
(3.73927 0 0)
(7.67994 0 0)
(14.0052 0 0)
(22.885 0 0)
(34.2335 0 0)
(47.6617 0 0)
(62.6021 0 0)
(78.5256 0 0)
(94.9956 0 0)
(111.798 0 0)
(128.61 0 0)
(145.516 0 0)
(162.088 0 0)
(178.392 0 0)
(194.329 0 0)
(209.663 0 0)
(224.291 0 0)
(237.966 0 0)
(250.515 0 0)
(261.832 0 0)
(271.798 0 0)
(279.767 0 0)
(285.91 0 0)
(290.531 0 0)
(293.178 0 0)
(294.493 0 0)
(295.417 0 0)
(296.225 0 0)
(296.681 0 0)
(296.014 0 0)
(294.028 0 0)
(291.787 0 0)
(289.852 0 0)
(288.576 0 0)
(288.155 0 0)
(288.359 0 0)
(288.466 0 0)
(287.56 0 0)
(284.506 0 0)
(276.938 0 0)
(257.655 0 0)
(195.84 0 0)
(77.6801 0 0)
(14.4936 0 0)
(2.33678 0 0)
(0.352894 0 0)
(0.0522857 0 0)
(0.0076444 0 0)
(0.00110263 0 0)
(0.000156886 0 0)
(2.20182e-05 0 0)
(3.04884e-06 0 0)
(4.16634e-07 0 0)
(5.6207e-08 0 0)
(7.48838e-09 0 0)
(9.8528e-10 0 0)
(1.28157e-10 0 0)
(1.64924e-11 0 0)
(1.89343e-12 0 0)
(1.41497e-13 0 0)
(2.37609e-30 0 0)
(0 0 0)
(0 0 0)
(0 0 0)
(0 0 0)
(5.1561e-32 0 0)
(0 0 0)
(0 0 0)
(0 0 0)
)
;

boundaryField
{
    sides
    {
        type            zeroGradient;
    }
    empty
    {
        type            empty;
    }
}


// ************************************************************************* //
