/*--------------------------------*- C++ -*----------------------------------*\
  =========                 |
  \\      /  F ield         | OpenFOAM: The Open Source CFD Toolbox
   \\    /   O peration     | Website:  https://openfoam.org
    \\  /    A nd           | Version:  9
     \\/     M anipulation  |
\*---------------------------------------------------------------------------*/
FoamFile
{
    format      ascii;
    class       volScalarField;
    location    "0.55";
    object      p;
}
// * * * * * * * * * * * * * * * * * * * * * * * * * * * * * * * * * * * * * //

dimensions      [1 -1 -2 0 0 0 0];

internalField   nonuniform List<scalar> 
4096
(
-3.40269e-06
0
6.95983e-06
1.70649e-05
2.98582e-05
4.48358e-05
6.14528e-05
7.90852e-05
9.70642e-05
0.000114703
0.000131325
0.000146292
0.000159028
0.000169044
0.000175953
0.000179492
0.000179524
0.00017605
0.000169206
0.000159258
0.000146592
0.000131699
0.000115157
9.76054e-05
7.97242e-05
6.22052e-05
4.57258e-05
3.09231e-05
1.83685e-05
8.55047e-06
1.85897e-06
-1.52823e-06
-0.0519382
-0.0519347
-0.0519275
-0.0519171
-0.0519039
-0.0518884
-0.0518712
-0.0518529
-0.0518343
-0.051816
-0.0517988
-0.0517833
-0.0517701
-0.0517597
-0.0517525
-0.0517489
-0.0517488
-0.0517525
-0.0517595
-0.0517699
-0.051783
-0.0517984
-0.0518156
-0.0518338
-0.0518523
-0.0518705
-0.0518875
-0.0519029
-0.0519159
-0.0519261
-0.051933
-0.0519365
-0.103877
-0.103873
-0.103865
-0.103854
-0.10384
-0.103823
-0.103805
-0.103785
-0.103765
-0.103746
-0.103727
-0.103711
-0.103696
-0.103685
-0.103678
-0.103674
-0.103674
-0.103678
-0.103685
-0.103696
-0.10371
-0.103727
-0.103745
-0.103765
-0.103785
-0.103804
-0.103822
-0.103839
-0.103853
-0.103864
-0.103871
-0.103875
-0.155819
-0.155814
-0.155806
-0.155794
-0.155778
-0.15576
-0.15574
-0.155718
-0.155696
-0.155674
-0.155654
-0.155635
-0.15562
-0.155608
-0.155599
-0.155595
-0.155595
-0.155599
-0.155607
-0.15562
-0.155635
-0.155654
-0.155674
-0.155695
-0.155717
-0.155739
-0.155759
-0.155777
-0.155793
-0.155805
-0.155813
-0.155817
-0.207765
-0.20776
-0.207751
-0.207737
-0.20772
-0.207699
-0.207676
-0.207651
-0.207626
-0.207602
-0.207578
-0.207558
-0.20754
-0.207526
-0.207516
-0.207511
-0.207511
-0.207516
-0.207526
-0.20754
-0.207557
-0.207578
-0.207601
-0.207626
-0.207651
-0.207675
-0.207698
-0.207719
-0.207736
-0.20775
-0.207759
-0.207764
-0.259716
-0.259711
-0.2597
-0.259684
-0.259664
-0.25964
-0.259613
-0.259585
-0.259556
-0.259528
-0.259501
-0.259477
-0.259456
-0.25944
-0.259429
-0.259423
-0.259423
-0.259429
-0.25944
-0.259456
-0.259476
-0.259501
-0.259527
-0.259556
-0.259584
-0.259613
-0.259639
-0.259663
-0.259683
-0.259699
-0.25971
-0.259715
-0.311673
-0.311667
-0.311654
-0.311636
-0.311612
-0.311584
-0.311552
-0.311519
-0.311485
-0.311452
-0.311421
-0.311392
-0.311368
-0.311349
-0.311336
-0.31133
-0.31133
-0.311336
-0.311349
-0.311368
-0.311392
-0.31142
-0.311452
-0.311485
-0.311519
-0.311552
-0.311583
-0.311611
-0.311635
-0.311653
-0.311666
-0.311672
-0.363637
-0.363629
-0.363614
-0.363592
-0.363564
-0.36353
-0.363493
-0.363454
-0.363414
-0.363374
-0.363337
-0.363304
-0.363275
-0.363253
-0.363237
-0.363229
-0.363229
-0.363237
-0.363253
-0.363275
-0.363304
-0.363337
-0.363374
-0.363414
-0.363454
-0.363493
-0.36353
-0.363563
-0.363591
-0.363613
-0.363628
-0.363636
-0.415608
-0.415599
-0.415581
-0.415554
-0.415521
-0.415481
-0.415437
-0.41539
-0.415342
-0.415295
-0.41525
-0.41521
-0.415176
-0.415149
-0.415131
-0.415122
-0.415122
-0.415131
-0.415149
-0.415176
-0.41521
-0.41525
-0.415294
-0.415341
-0.415389
-0.415436
-0.415481
-0.41552
-0.415554
-0.41558
-0.415598
-0.415607
-0.467588
-0.467577
-0.467556
-0.467524
-0.467484
-0.467436
-0.467383
-0.467327
-0.467269
-0.467212
-0.467159
-0.467111
-0.46707
-0.467038
-0.467016
-0.467004
-0.467004
-0.467016
-0.467038
-0.46707
-0.467111
-0.467159
-0.467212
-0.467269
-0.467326
-0.467383
-0.467436
-0.467483
-0.467524
-0.467555
-0.467577
-0.467588
-0.51958
-0.519566
-0.519541
-0.519502
-0.519454
-0.519396
-0.519332
-0.519264
-0.519195
-0.519127
-0.519062
-0.519005
-0.518955
-0.518916
-0.51889
-0.518876
-0.518876
-0.51889
-0.518916
-0.518955
-0.519004
-0.519062
-0.519126
-0.519195
-0.519264
-0.519332
-0.519396
-0.519453
-0.519502
-0.51954
-0.519566
-0.519579
-0.571584
-0.571569
-0.571537
-0.571491
-0.571432
-0.571363
-0.571286
-0.571204
-0.57112
-0.571037
-0.57096
-0.57089
-0.57083
-0.570783
-0.570751
-0.570734
-0.570734
-0.570751
-0.570783
-0.57083
-0.570889
-0.570959
-0.571037
-0.57112
-0.571203
-0.571286
-0.571363
-0.571432
-0.571491
-0.571537
-0.571568
-0.571584
-0.623605
-0.623586
-0.623548
-0.623493
-0.623422
-0.623338
-0.623244
-0.623145
-0.623043
-0.622943
-0.622849
-0.622764
-0.622692
-0.622636
-0.622596
-0.622576
-0.622576
-0.622596
-0.622635
-0.622692
-0.622764
-0.622849
-0.622943
-0.623043
-0.623144
-0.623244
-0.623337
-0.623421
-0.623492
-0.623548
-0.623586
-0.623605
-0.675646
-0.675623
-0.675577
-0.675509
-0.675423
-0.675322
-0.675208
-0.675088
-0.674965
-0.674844
-0.67473
-0.674627
-0.674539
-0.674471
-0.674423
-0.674399
-0.674399
-0.674423
-0.674471
-0.674539
-0.674627
-0.67473
-0.674844
-0.674965
-0.675088
-0.675208
-0.675321
-0.675423
-0.675509
-0.675576
-0.675622
-0.675646
-0.72771
-0.727682
-0.727626
-0.727545
-0.72744
-0.727317
-0.72718
-0.727034
-0.726884
-0.726738
-0.726599
-0.726474
-0.726368
-0.726285
-0.726227
-0.726198
-0.726198
-0.726227
-0.726285
-0.726368
-0.726474
-0.726599
-0.726737
-0.726884
-0.727033
-0.727179
-0.727317
-0.72744
-0.727544
-0.727626
-0.727682
-0.72771
-0.779803
-0.779769
-0.779701
-0.779602
-0.779476
-0.779326
-0.77916
-0.778982
-0.778801
-0.778623
-0.778455
-0.778304
-0.778175
-0.778073
-0.778003
-0.777968
-0.777968
-0.778003
-0.778073
-0.778175
-0.778304
-0.778455
-0.778623
-0.778801
-0.778982
-0.77916
-0.779326
-0.779475
-0.779602
-0.779701
-0.779768
-0.779803
-0.831931
-0.831889
-0.831807
-0.831687
-0.831534
-0.831353
-0.83115
-0.830935
-0.830715
-0.830499
-0.830295
-0.830111
-0.829954
-0.829831
-0.829746
-0.829702
-0.829702
-0.829746
-0.829831
-0.829954
-0.830111
-0.830295
-0.830499
-0.830715
-0.830935
-0.83115
-0.831352
-0.831534
-0.831687
-0.831807
-0.831889
-0.83193
-0.8841
-0.88405
-0.883951
-0.883806
-0.883619
-0.883399
-0.883154
-0.882893
-0.882626
-0.882363
-0.882115
-0.881891
-0.881701
-0.881551
-0.881447
-0.881395
-0.881395
-0.881447
-0.881551
-0.881701
-0.881891
-0.882115
-0.882363
-0.882626
-0.882893
-0.883154
-0.883399
-0.883619
-0.883805
-0.883951
-0.88405
-0.8841
-0.936321
-0.936261
-0.93614
-0.935964
-0.935738
-0.935471
-0.935173
-0.934856
-0.934532
-0.934213
-0.933911
-0.933639
-0.933408
-0.933225
-0.933099
-0.933035
-0.933035
-0.933099
-0.933225
-0.933408
-0.933639
-0.933911
-0.934213
-0.934532
-0.934856
-0.935173
-0.935471
-0.935738
-0.935964
-0.93614
-0.93626
-0.936321
-0.988605
-0.988531
-0.988385
-0.988171
-0.987897
-0.987573
-0.987212
-0.986827
-0.986433
-0.986045
-0.985679
-0.985348
-0.985066
-0.984844
-0.984691
-0.984613
-0.984613
-0.984691
-0.984844
-0.985066
-0.985348
-0.985679
-0.986045
-0.986433
-0.986827
-0.987212
-0.987573
-0.987897
-0.988171
-0.988385
-0.988531
-0.988604
-1.04096
-1.04087
-1.0407
-1.04044
-1.04011
-1.03971
-1.03927
-1.03881
-1.03833
-1.03786
-1.03741
-1.03701
-1.03667
-1.0364
-1.03621
-1.03611
-1.03611
-1.03621
-1.0364
-1.03667
-1.03701
-1.03741
-1.03786
-1.03833
-1.03881
-1.03927
-1.03971
-1.04011
-1.04044
-1.0407
-1.04087
-1.04096
-1.09341
-1.0933
-1.09309
-1.09278
-1.09237
-1.0919
-1.09137
-1.0908
-1.09022
-1.08964
-1.0891
-1.08861
-1.08819
-1.08787
-1.08764
-1.08752
-1.08752
-1.08764
-1.08787
-1.08819
-1.08861
-1.0891
-1.08964
-1.09022
-1.0908
-1.09137
-1.0919
-1.09237
-1.09278
-1.09309
-1.0933
-1.09341
-1.14597
-1.14584
-1.14558
-1.1452
-1.14472
-1.14414
-1.14349
-1.1428
-1.1421
-1.1414
-1.14074
-1.14015
-1.13964
-1.13924
-1.13896
-1.13882
-1.13882
-1.13896
-1.13924
-1.13964
-1.14015
-1.14074
-1.1414
-1.1421
-1.1428
-1.14349
-1.14414
-1.14472
-1.1452
-1.14558
-1.14584
-1.14597
-1.19867
-1.19851
-1.1982
-1.19774
-1.19715
-1.19645
-1.19566
-1.19483
-1.19397
-1.19312
-1.19232
-1.19159
-1.19097
-1.19048
-1.19015
-1.18997
-1.18997
-1.19015
-1.19048
-1.19097
-1.19159
-1.19232
-1.19312
-1.19397
-1.19483
-1.19566
-1.19645
-1.19715
-1.19774
-1.1982
-1.19851
-1.19867
-1.25153
-1.25133
-1.25096
-1.2504
-1.24968
-1.24884
-1.24789
-1.24688
-1.24583
-1.2448
-1.24383
-1.24294
-1.24218
-1.24159
-1.24117
-1.24096
-1.24096
-1.24117
-1.24159
-1.24218
-1.24294
-1.24383
-1.2448
-1.24583
-1.24688
-1.24789
-1.24884
-1.24968
-1.2504
-1.25096
-1.25133
-1.25153
-1.30458
-1.30435
-1.30389
-1.30322
-1.30236
-1.30133
-1.30018
-1.29895
-1.29769
-1.29643
-1.29524
-1.29416
-1.29324
-1.29251
-1.292
-1.29174
-1.29174
-1.292
-1.29251
-1.29324
-1.29416
-1.29524
-1.29643
-1.29769
-1.29895
-1.30018
-1.30133
-1.30236
-1.30322
-1.30389
-1.30435
-1.30458
-1.35787
-1.35759
-1.35704
-1.35623
-1.35519
-1.35395
-1.35256
-1.35107
-1.34953
-1.348
-1.34655
-1.34524
-1.34411
-1.34321
-1.34259
-1.34228
-1.34228
-1.34259
-1.34321
-1.34411
-1.34524
-1.34655
-1.348
-1.34953
-1.35107
-1.35256
-1.35395
-1.35519
-1.35623
-1.35704
-1.35759
-1.35787
-1.41145
-1.41112
-1.41046
-1.40948
-1.40822
-1.40672
-1.40504
-1.40323
-1.40136
-1.39951
-1.39774
-1.39613
-1.39475
-1.39365
-1.39289
-1.39251
-1.39251
-1.39289
-1.39365
-1.39475
-1.39613
-1.39774
-1.39951
-1.40136
-1.40323
-1.40504
-1.40672
-1.40822
-1.40948
-1.41046
-1.41112
-1.41145
-1.46538
-1.46498
-1.46418
-1.46301
-1.46149
-1.45969
-1.45765
-1.45546
-1.45319
-1.45093
-1.44878
-1.44681
-1.44512
-1.44377
-1.44284
-1.44236
-1.44236
-1.44284
-1.44377
-1.44511
-1.44681
-1.44878
-1.45093
-1.45319
-1.45546
-1.45765
-1.45969
-1.46149
-1.46301
-1.46418
-1.46498
-1.46538
-1.51973
-1.51925
-1.51829
-1.51688
-1.51506
-1.51289
-1.51043
-1.50778
-1.50502
-1.50227
-1.49964
-1.49723
-1.49515
-1.4935
-1.49235
-1.49176
-1.49176
-1.49235
-1.4935
-1.49515
-1.49723
-1.49964
-1.50227
-1.50502
-1.50778
-1.51043
-1.51289
-1.51506
-1.51688
-1.51829
-1.51925
-1.51973
-1.57458
-1.57401
-1.57287
-1.57118
-1.56899
-1.56638
-1.56341
-1.5602
-1.55686
-1.55351
-1.55029
-1.54734
-1.54478
-1.54275
-1.54133
-1.5406
-1.5406
-1.54133
-1.54275
-1.54478
-1.54734
-1.55029
-1.55351
-1.55686
-1.5602
-1.56341
-1.56638
-1.56899
-1.57118
-1.57287
-1.57401
-1.57458
-1.63005
-1.62936
-1.628
-1.62598
-1.62337
-1.62023
-1.61666
-1.61279
-1.60873
-1.60465
-1.60071
-1.59708
-1.59393
-1.59142
-1.58966
-1.58876
-1.58876
-1.58966
-1.59142
-1.59393
-1.59708
-1.60071
-1.60465
-1.60873
-1.61279
-1.61666
-1.62023
-1.62337
-1.62598
-1.628
-1.62936
-1.63005
-1.68624
-1.68543
-1.68381
-1.68141
-1.67829
-1.67454
-1.67025
-1.66557
-1.66066
-1.65569
-1.65086
-1.6464
-1.6425
-1.63938
-1.6372
-1.63607
-1.63607
-1.6372
-1.63938
-1.6425
-1.6464
-1.65086
-1.65569
-1.66066
-1.66557
-1.67025
-1.67454
-1.67829
-1.68141
-1.68381
-1.68543
-1.68624
-1.74331
-1.74235
-1.74044
-1.7376
-1.73389
-1.72941
-1.72428
-1.71864
-1.71269
-1.70663
-1.70071
-1.69521
-1.69038
-1.68649
-1.68376
-1.68235
-1.68235
-1.68376
-1.68649
-1.69038
-1.69521
-1.70071
-1.70663
-1.71269
-1.71864
-1.72428
-1.72941
-1.73389
-1.7376
-1.74044
-1.74235
-1.74331
-1.80141
-1.80029
-1.79805
-1.7947
-1.79032
-1.785
-1.77887
-1.7721
-1.76489
-1.75751
-1.75024
-1.74343
-1.73743
-1.73256
-1.72913
-1.72736
-1.72736
-1.72913
-1.73256
-1.73743
-1.74343
-1.75024
-1.75751
-1.76489
-1.7721
-1.77887
-1.785
-1.79032
-1.7947
-1.79805
-1.80029
-1.80141
-1.86077
-1.85946
-1.85684
-1.85292
-1.84777
-1.84149
-1.8342
-1.82608
-1.81738
-1.80838
-1.79945
-1.79101
-1.7835
-1.77737
-1.77304
-1.77079
-1.77079
-1.77304
-1.77737
-1.7835
-1.79101
-1.79945
-1.80838
-1.81738
-1.82608
-1.8342
-1.84149
-1.84777
-1.85292
-1.85684
-1.85946
-1.86077
-1.92158
-1.92008
-1.91705
-1.9125
-1.90649
-1.89911
-1.89048
-1.8808
-1.8703
-1.85935
-1.84836
-1.83786
-1.82843
-1.82067
-1.81514
-1.81227
-1.81227
-1.81514
-1.82067
-1.82843
-1.83786
-1.84836
-1.85935
-1.8703
-1.8808
-1.89048
-1.89911
-1.90649
-1.9125
-1.91705
-1.92008
-1.92158
-1.98413
-1.98241
-1.97894
-1.97371
-1.96676
-1.95817
-1.94803
-1.93653
-1.92393
-1.9106
-1.89707
-1.88396
-1.87205
-1.86215
-1.85505
-1.85133
-1.85133
-1.85505
-1.86215
-1.87205
-1.88396
-1.89707
-1.9106
-1.92393
-1.93653
-1.94803
-1.95817
-1.96676
-1.97371
-1.97894
-1.98241
-1.98413
-2.0487
-2.04676
-2.04284
-2.03689
-2.02895
-2.01904
-2.00723
-1.99367
-1.97861
-1.96245
-1.94576
-1.92936
-1.91422
-1.90148
-1.89225
-1.8874
-1.8874
-1.89225
-1.90148
-1.91422
-1.92936
-1.94577
-1.96245
-1.97861
-1.99367
-2.00723
-2.01904
-2.02895
-2.03689
-2.04284
-2.04676
-2.0487
-2.11562
-2.11346
-2.10909
-2.10244
-2.09349
-2.0822
-2.06861
-2.05277
-2.0349
-2.01538
-1.99483
-1.97422
-1.95485
-1.9383
-1.92618
-1.91977
-1.91978
-1.92618
-1.9383
-1.95486
-1.97422
-1.99483
-2.01538
-2.0349
-2.05277
-2.06861
-2.0822
-2.09349
-2.10244
-2.10909
-2.11346
-2.11562
-2.18522
-2.18287
-2.1781
-2.1708
-2.16088
-2.14825
-2.13283
-2.11458
-2.09358
-2.07016
-2.04491
-2.01898
-1.99404
-1.9723
-1.95617
-1.94761
-1.94761
-1.95617
-1.9723
-1.99404
-2.01898
-2.04492
-2.07016
-2.09358
-2.11458
-2.13283
-2.14825
-2.16088
-2.1708
-2.1781
-2.18287
-2.18522
-2.25786
-2.25537
-2.25029
-2.24245
-2.23172
-2.2179
-2.20076
-2.18009
-2.1558
-2.12801
-2.09718
-2.06454
-2.03221
-2.00333
-1.98158
-1.97001
-1.97001
-1.98158
-2.00333
-2.03221
-2.06454
-2.09718
-2.12801
-2.1558
-2.18009
-2.20076
-2.2179
-2.23172
-2.24245
-2.25028
-2.25537
-2.25786
-2.33388
-2.33133
-2.32607
-2.31793
-2.30667
-2.29197
-2.27345
-2.25065
-2.22316
-2.19076
-2.15358
-2.11264
-2.0705
-2.03166
-2.00195
-1.98617
-1.98617
-2.00195
-2.03166
-2.07051
-2.11264
-2.15358
-2.19076
-2.22316
-2.25065
-2.27345
-2.29197
-2.30667
-2.31793
-2.32607
-2.33132
-2.33388
-2.41358
-2.41107
-2.40586
-2.39774
-2.3864
-2.3714
-2.35215
-2.32792
-2.29788
-2.26119
-2.21733
-2.16649
-2.1113
-2.05811
-2.01711
-1.99563
-1.99564
-2.01711
-2.05811
-2.11131
-2.16649
-2.21733
-2.26119
-2.29788
-2.32792
-2.35215
-2.3714
-2.3864
-2.39774
-2.40586
-2.41107
-2.41358
-2.49719
-2.49485
-2.48998
-2.48234
-2.47156
-2.45711
-2.43823
-2.41391
-2.38282
-2.34335
-2.2937
-2.23197
-2.15964
-2.08541
-2.02831
-1.99862
-1.99862
-2.02831
-2.08542
-2.15964
-2.23198
-2.2937
-2.34335
-2.38282
-2.41391
-2.43823
-2.45711
-2.47156
-2.48234
-2.48998
-2.49485
-2.49719
-2.58479
-2.58279
-2.57861
-2.57201
-2.56263
-2.54991
-2.53301
-2.51074
-2.48142
-2.44264
-2.39067
-2.32061
-2.2284
-2.12542
-2.04426
-2.0029
-2.0029
-2.04426
-2.12543
-2.22841
-2.32061
-2.39067
-2.44264
-2.48142
-2.51074
-2.53301
-2.54991
-2.56263
-2.57201
-2.57861
-2.58279
-2.58478
-2.67629
-2.67481
-2.67169
-2.66678
-2.65977
-2.65022
-2.63741
-2.62026
-2.59723
-2.56614
-2.52165
-2.44971
-2.33779
-2.21521
-2.10738
-2.04631
-2.04631
-2.10739
-2.21521
-2.33779
-2.44972
-2.52165
-2.56614
-2.59723
-2.62025
-2.63741
-2.65022
-2.65977
-2.66677
-2.67169
-2.6748
-2.67628
-2.77138
-2.77059
-2.76891
-2.76629
-2.76263
-2.75777
-2.75138
-2.74296
-2.73217
-2.71902
-2.69423
-2.6235
-2.50938
-2.3618
-2.25614
-2.20157
-2.20157
-2.25614
-2.3618
-2.50938
-2.62351
-2.69423
-2.71902
-2.73216
-2.74296
-2.75138
-2.75776
-2.76263
-2.76628
-2.7689
-2.77058
-2.77138
-2.86952
-2.86953
-2.86956
-2.86972
-2.87018
-2.87122
-2.87321
-2.87677
-2.88427
-2.89936
-2.90631
-2.84772
-2.75927
-2.60564
-2.48878
-2.44405
-2.44405
-2.48879
-2.60564
-2.75928
-2.84772
-2.90631
-2.89935
-2.88427
-2.87677
-2.8732
-2.87122
-2.87018
-2.86971
-2.86956
-2.86953
-2.86951
-2.96992
-2.97079
-2.97262
-2.97572
-2.98058
-2.98796
-2.99903
-3.01619
-3.04463
-3.08747
-3.12858
-3.13719
-3.0499
-2.90778
-2.78715
-2.73762
-2.73762
-2.78716
-2.90778
-3.04991
-3.13718
-3.12857
-3.08746
-3.04462
-3.01618
-2.99902
-2.98796
-2.98058
-2.97572
-2.97262
-2.97078
-2.96991
-3.07164
-3.07332
-3.07684
-3.08267
-3.09151
-3.10451
-3.12354
-3.15261
-3.19662
-3.2556
-3.32282
-3.38887
-3.32736
-3.16728
-3.05072
-2.99821
-2.99821
-3.05072
-3.16729
-3.32736
-3.38887
-3.32281
-3.25559
-3.19661
-3.1526
-3.12354
-3.10451
-3.09151
-3.08266
-3.07684
-3.07331
-3.07164
-3.17376
-3.1761
-3.181
-3.18895
-3.20076
-3.21763
-3.24175
-3.27662
-3.32448
-3.38407
-3.4536
-3.53061
-3.50499
-3.35708
-3.25489
-3.20041
-3.20041
-3.25489
-3.35708
-3.50499
-3.5306
-3.45359
-3.38406
-3.32447
-3.27661
-3.24174
-3.21763
-3.20075
-3.18895
-3.18099
-3.1761
-3.17376
-3.27544
-3.27825
-3.28409
-3.29339
-3.30682
-3.32538
-3.35074
-3.38433
-3.42639
-3.4746
-3.52594
-3.59415
-3.60522
-3.48539
-3.39857
-3.34796
-3.34796
-3.39856
-3.48539
-3.60521
-3.59414
-3.52593
-3.47459
-3.42638
-3.38432
-3.35074
-3.32538
-3.30682
-3.29339
-3.28408
-3.27825
-3.27544
-3.37602
-3.37912
-3.38547
-3.39538
-3.40923
-3.42765
-3.45116
-3.47915
-3.51096
-3.54408
-3.57521
-3.60761
-3.68427
-3.57122
-3.49729
-3.45991
-3.45991
-3.49729
-3.57122
-3.68426
-3.60759
-3.5752
-3.54407
-3.51095
-3.47914
-3.45115
-3.42765
-3.40922
-3.39537
-3.38546
-3.37911
-3.37602
-3.47505
-3.47829
-3.48486
-3.49489
-3.50846
-3.52567
-3.54581
-3.56737
-3.58903
-3.60981
-3.62796
-3.62279
-3.71745
-3.6265
-3.56789
-3.54375
-3.54374
-3.56789
-3.62649
-3.71744
-3.62278
-3.62795
-3.6098
-3.58902
-3.56736
-3.5458
-3.52566
-3.50845
-3.49488
-3.48486
-3.47829
-3.47504
-3.57225
-3.57558
-3.58225
-3.59224
-3.60539
-3.6212
-3.63813
-3.65422
-3.66748
-3.6764
-3.68023
-3.69575
-3.73368
-3.66869
-3.62346
-3.60437
-3.60437
-3.62345
-3.66869
-3.73367
-3.69573
-3.68022
-3.67639
-3.66747
-3.65421
-3.63812
-3.6212
-3.60538
-3.59223
-3.58225
-3.57558
-3.57225
-3.66743
-3.67087
-3.6777
-3.68782
-3.70089
-3.71591
-3.73083
-3.74327
-3.75076
-3.74843
-3.71982
-3.7582
-3.7504
-3.70897
-3.67463
-3.65803
-3.65803
-3.67462
-3.70896
-3.75039
-3.75819
-3.71981
-3.74842
-3.75076
-3.74326
-3.73082
-3.71591
-3.70089
-3.68781
-3.67769
-3.67086
-3.66742
-3.76037
-3.76399
-3.77119
-3.78184
-3.79552
-3.81096
-3.82596
-3.83801
-3.84429
-3.83823
-3.80504
-3.842
-3.79919
-3.75662
-3.72597
-3.71112
-3.71112
-3.72597
-3.75662
-3.79919
-3.84199
-3.80504
-3.83822
-3.84428
-3.83801
-3.82595
-3.81095
-3.79551
-3.78183
-3.77118
-3.76399
-3.76037
-3.85077
-3.85469
-3.8625
-3.87417
-3.88928
-3.90655
-3.92397
-3.93919
-3.94587
-3.92139
-3.91434
-3.89947
-3.85559
-3.81021
-3.77922
-3.76439
-3.76438
-3.77922
-3.81021
-3.85559
-3.89946
-3.91433
-3.92138
-3.94587
-3.93918
-3.92396
-3.90654
-3.88927
-3.87417
-3.8625
-3.85468
-3.85077
-3.93818
-3.94248
-3.95114
-3.96426
-3.98156
-4.00193
-4.02362
-4.04496
-4.05998
-4.00782
-4.04076
-3.97121
-3.91581
-3.867
-3.8342
-3.81817
-3.81817
-3.8342
-3.86699
-3.9158
-3.9712
-4.04076
-4.00782
-4.05997
-4.04496
-4.02361
-4.00192
-3.98156
-3.96426
-3.95114
-3.94247
-3.93818
-4.02201
-4.02673
-4.03635
-4.05114
-4.07099
-4.09513
-4.1222
-4.1503
-4.1756
-4.12373
-4.12112
-4.04562
-3.97611
-3.92275
-3.88821
-3.87107
-3.87107
-3.88821
-3.92275
-3.9761
-4.04561
-4.12112
-4.12373
-4.1756
-4.1503
-4.12219
-4.09512
-4.07098
-4.05114
-4.03635
-4.02672
-4.02201
-4.10158
-4.10667
-4.11721
-4.13353
-4.15555
-4.18281
-4.21396
-4.2464
-4.27556
-4.27088
-4.19318
-4.10979
-4.0337
-3.97654
-3.9403
-3.92243
-3.92243
-3.94029
-3.97653
-4.03369
-4.10978
-4.19317
-4.27087
-4.27555
-4.24639
-4.21396
-4.1828
-4.15554
-4.13352
-4.1172
-4.10667
-4.10157
-4.17624
-4.18162
-4.19285
-4.21015
-4.23342
-4.26225
-4.2946
-4.32545
-4.35029
-4.38569
-4.26962
-4.16758
-4.08618
-4.02743
-3.99037
-3.97223
-3.97223
-3.99037
-4.02743
-4.08617
-4.16758
-4.26961
-4.38568
-4.35028
-4.32544
-4.29459
-4.26224
-4.23341
-4.21015
-4.19285
-4.18161
-4.17623
-4.24545
-4.25109
-4.26264
-4.28018
-4.30373
-4.33296
-4.36534
-4.39457
-4.40516
-4.43533
-4.32274
-4.21338
-4.13192
-4.07514
-4.03904
-4.02136
-4.02136
-4.03904
-4.07513
-4.13191
-4.21338
-4.32273
-4.43532
-4.40516
-4.39456
-4.36533
-4.33296
-4.30373
-4.28018
-4.26263
-4.25109
-4.24545
-4.30921
-4.31489
-4.32615
-4.34326
-4.36624
-4.3945
-4.42555
-4.45317
-4.46023
-4.46494
-4.35949
-4.25253
-4.17489
-4.12218
-4.08845
-4.07194
-4.07194
-4.08845
-4.12217
-4.17489
-4.25252
-4.35948
-4.46493
-4.46022
-4.45316
-4.42554
-4.39449
-4.36624
-4.34325
-4.32615
-4.31489
-4.3092
-4.36751
-4.37273
-4.38334
-4.39943
-4.42081
-4.44645
-4.47363
-4.49701
-4.50384
-4.49389
-4.39066
-4.28953
-4.2189
-4.17179
-4.14168
-4.12697
-4.12697
-4.14168
-4.17179
-4.21889
-4.28952
-4.39065
-4.49389
-4.50384
-4.49701
-4.47363
-4.44644
-4.42081
-4.39943
-4.38333
-4.37273
-4.36751
-4.42018
-4.42501
-4.4348
-4.44951
-4.46863
-4.49074
-4.5129
-4.53013
-4.53405
-4.52636
-4.42238
-4.32966
-4.26856
-4.22813
-4.20249
-4.1901
-4.1901
-4.20249
-4.22813
-4.26856
-4.32965
-4.42237
-4.52635
-4.53405
-4.53013
-4.5129
-4.49074
-4.46863
-4.44951
-4.4348
-4.42501
-4.42018
-4.46814
-4.47259
-4.48154
-4.49484
-4.51181
-4.53082
-4.54897
-4.56067
-4.56328
-4.5606
-4.4576
-4.37696
-4.32752
-4.29507
-4.27482
-4.26516
-4.26516
-4.27482
-4.29507
-4.32751
-4.37696
-4.45759
-4.5606
-4.56328
-4.56066
-4.54897
-4.53081
-4.5118
-4.49484
-4.48154
-4.47259
-4.46813
-4.51232
-4.51643
-4.52463
-4.53671
-4.55193
-4.56872
-4.58478
-4.59791
-4.61224
-4.59045
-4.4969
-4.43518
-4.39954
-4.37644
-4.36245
-4.35589
-4.35589
-4.36245
-4.37644
-4.39954
-4.43518
-4.4969
-4.59045
-4.61225
-4.59791
-4.58478
-4.56872
-4.55193
-4.53671
-4.52463
-4.51642
-4.51232
-4.5537
-4.55752
-4.5651
-4.57609
-4.58967
-4.60402
-4.61604
-4.62179
-4.66945
-4.6225
-4.54933
-4.51029
-4.48957
-4.47674
-4.46942
-4.46612
-4.46612
-4.46942
-4.47674
-4.48957
-4.51029
-4.54933
-4.6225
-4.66946
-4.62179
-4.61604
-4.60402
-4.58966
-4.57609
-4.5651
-4.55752
-4.55369
-4.59335
-4.59698
-4.60407
-4.61417
-4.62633
-4.63842
-4.64663
-4.65396
-4.71301
-4.66832
-4.6254
-4.6089
-4.60274
-4.60019
-4.59941
-4.59926
-4.59926
-4.59941
-4.60019
-4.60273
-4.6089
-4.6254
-4.66832
-4.71301
-4.65396
-4.64663
-4.63842
-4.62633
-4.61417
-4.60407
-4.59698
-4.59335
-4.63253
-4.63607
-4.64284
-4.65229
-4.66356
-4.67406
-4.67872
-4.71708
-4.75539
-4.73929
-4.73146
-4.73595
-4.74319
-4.74989
-4.75489
-4.75751
-4.75751
-4.75489
-4.74989
-4.74319
-4.73595
-4.73146
-4.73929
-4.75539
-4.71709
-4.67871
-4.67406
-4.66356
-4.65229
-4.64284
-4.63606
-4.63253
-4.67256
-4.67615
-4.68294
-4.69194
-4.703
-4.71504
-4.74087
-4.81257
-4.84028
-4.85478
-4.87436
-4.89518
-4.91328
-4.92738
-4.93698
-4.9418
-4.9418
-4.93698
-4.92738
-4.91328
-4.89518
-4.87436
-4.85478
-4.84028
-4.81257
-4.74087
-4.71504
-4.703
-4.69194
-4.68294
-4.67615
-4.67255
-4.7153
-4.71898
-4.7267
-4.73472
-4.74473
-4.77532
-4.85337
-4.93125
-4.97794
-5.01823
-5.05555
-5.08757
-5.11332
-5.13262
-5.14545
-5.15183
-5.15183
-5.14545
-5.13262
-5.11332
-5.08757
-5.05556
-5.01823
-4.97794
-4.93125
-4.85337
-4.77532
-4.74473
-4.73472
-4.7267
-4.71898
-4.7153
-4.76083
-4.76392
-4.77134
-4.79604
-4.85304
-4.92804
-5.02288
-5.10651
-5.17165
-5.22684
-5.2735
-5.31177
-5.34192
-5.36423
-5.37896
-5.38627
-5.38627
-5.37896
-5.36423
-5.34192
-5.31177
-5.2735
-5.22684
-5.17166
-5.10652
-5.02288
-4.92804
-4.85304
-4.79604
-4.77134
-4.76392
-4.76083
-4.90168
-4.91747
-4.94892
-5.00164
-5.07649
-5.17158
-5.2635
-5.34557
-5.41574
-5.47493
-5.52434
-5.56469
-5.59641
-5.61987
-5.63534
-5.64301
-5.64301
-5.63534
-5.61987
-5.59641
-5.56469
-5.52434
-5.47493
-5.41574
-5.34557
-5.26351
-5.17158
-5.07649
-5.00164
-4.94892
-4.91747
-4.90168
-5.213
-5.23195
-5.26823
-5.3245
-5.39537
-5.47691
-5.55742
-5.63168
-5.69771
-5.75467
-5.80274
-5.84226
-5.87348
-5.89665
-5.91196
-5.91957
-5.91957
-5.91196
-5.89665
-5.87348
-5.84226
-5.80274
-5.75467
-5.69771
-5.63168
-5.55742
-5.47691
-5.39537
-5.3245
-5.26823
-5.23195
-5.21299
-5.60292
-5.61807
-5.64821
-5.6936
-5.75195
-5.81776
-5.88463
-5.94863
-6.00725
-6.05901
-6.10339
-6.14025
-6.16961
-6.19151
-6.20605
-6.21329
-6.21329
-6.20605
-6.19151
-6.16961
-6.14026
-6.10339
-6.05901
-6.00725
-5.94863
-5.88463
-5.81776
-5.75195
-5.6936
-5.64821
-5.61806
-5.60292
-6.00223
-6.01492
-6.04013
-6.07721
-6.12395
-6.17675
-6.23185
-6.28583
-6.33637
-6.38187
-6.42147
-6.45475
-6.48147
-6.50154
-6.51491
-6.52159
-6.52159
-6.51491
-6.50154
-6.48147
-6.45475
-6.42147
-6.38187
-6.33637
-6.28584
-6.23185
-6.17675
-6.12395
-6.07721
-6.04012
-6.01492
-6.00223
-6.40509
-6.41554
-6.43613
-6.46604
-6.50356
-6.5463
-6.59146
-6.63645
-6.67926
-6.71844
-6.753
-6.78234
-6.80611
-6.82406
-6.83608
-6.84209
-6.84209
-6.83608
-6.82406
-6.80611
-6.78234
-6.753
-6.71844
-6.67926
-6.63645
-6.59146
-6.5463
-6.50356
-6.46604
-6.43613
-6.41554
-6.40509
-6.80752
-6.81602
-6.83271
-6.85685
-6.88713
-6.92176
-6.95867
-6.99588
-7.0318
-7.06508
-7.09478
-7.12023
-7.141
-7.15678
-7.16738
-7.1727
-7.1727
-7.16738
-7.15678
-7.141
-7.12023
-7.09478
-7.06508
-7.0318
-6.99588
-6.95867
-6.92176
-6.88713
-6.85685
-6.83271
-6.81602
-6.80752
-7.20785
-7.21475
-7.22826
-7.24777
-7.27224
-7.30033
-7.33049
-7.36124
-7.3911
-7.41911
-7.44434
-7.46615
-7.48406
-7.49774
-7.50697
-7.51161
-7.51161
-7.50697
-7.49774
-7.48406
-7.46615
-7.44434
-7.41911
-7.3911
-7.36124
-7.33049
-7.30033
-7.27224
-7.24777
-7.22825
-7.21475
-7.20785
-7.60544
-7.61103
-7.62195
-7.63773
-7.65755
-7.68036
-7.705
-7.73029
-7.75509
-7.77852
-7.79981
-7.81833
-7.83362
-7.84536
-7.8533
-7.8573
-7.8573
-7.8533
-7.84536
-7.83362
-7.81833
-7.79981
-7.77852
-7.75509
-7.73029
-7.705
-7.68036
-7.65755
-7.63773
-7.62195
-7.61103
-7.60544
-8.00013
-8.00466
-8.01351
-8.02629
-8.04236
-8.06091
-8.08105
-8.10184
-8.12237
-8.1419
-8.15975
-8.17537
-8.18834
-8.19832
-8.2051
-8.20852
-8.20852
-8.2051
-8.19832
-8.18834
-8.17537
-8.15975
-8.1419
-8.12237
-8.10184
-8.08105
-8.06091
-8.04236
-8.02629
-8.01351
-8.00466
-8.00013
-8.39206
-8.39573
-8.40291
-8.41328
-8.42633
-8.44145
-8.45791
-8.475
-8.49197
-8.50819
-8.5231
-8.53621
-8.54714
-8.55558
-8.56132
-8.56423
-8.56423
-8.56132
-8.55558
-8.54714
-8.53621
-8.5231
-8.50819
-8.49197
-8.475
-8.45791
-8.44145
-8.42633
-8.41328
-8.40291
-8.39573
-8.39206
-8.78149
-8.78447
-8.7903
-8.79873
-8.80935
-8.82168
-8.83516
-8.84919
-8.8632
-8.87665
-8.88907
-8.90002
-8.90919
-8.91629
-8.92113
-8.92359
-8.92359
-8.92113
-8.91629
-8.90919
-8.90002
-8.88907
-8.87665
-8.8632
-8.84919
-8.83516
-8.82168
-8.80935
-8.79873
-8.7903
-8.78447
-8.78149
-9.16871
-9.17114
-9.17588
-9.18274
-9.1914
-9.20147
-9.21251
-9.22404
-9.23559
-9.24673
-9.25704
-9.26617
-9.27383
-9.27978
-9.28385
-9.28591
-9.28591
-9.28385
-9.27978
-9.27383
-9.26617
-9.25704
-9.24673
-9.23559
-9.22404
-9.21251
-9.20147
-9.1914
-9.18274
-9.17588
-9.17114
-9.16871
-9.55403
-9.556
-9.55987
-9.56546
-9.57253
-9.58076
-9.58981
-9.59929
-9.60881
-9.61802
-9.62657
-9.63417
-9.64055
-9.64552
-9.64892
-9.65064
-9.65064
-9.64892
-9.64552
-9.64055
-9.63417
-9.62657
-9.61802
-9.60881
-9.59929
-9.58981
-9.58076
-9.57253
-9.56546
-9.55987
-9.556
-9.55403
-9.93772
-9.93933
-9.94249
-9.94705
-9.95283
-9.95957
-9.96699
-9.97478
-9.98263
-9.99023
-9.99731
-10.0036
-10.0089
-10.0131
-10.0159
-10.0173
-10.0173
-10.0159
-10.0131
-10.0089
-10.0036
-9.99731
-9.99023
-9.98263
-9.97478
-9.96699
-9.95957
-9.95283
-9.94705
-9.94249
-9.93933
-9.93772
-10.32
-10.3214
-10.3239
-10.3277
-10.3324
-10.3379
-10.344
-10.3504
-10.3569
-10.3632
-10.369
-10.3742
-10.3786
-10.3821
-10.3844
-10.3856
-10.3856
-10.3844
-10.3821
-10.3786
-10.3742
-10.369
-10.3632
-10.3569
-10.3504
-10.344
-10.3379
-10.3324
-10.3277
-10.3239
-10.3214
-10.32
-10.7012
-10.7023
-10.7044
-10.7074
-10.7113
-10.7158
-10.7208
-10.7261
-10.7314
-10.7366
-10.7415
-10.7458
-10.7494
-10.7523
-10.7542
-10.7552
-10.7552
-10.7542
-10.7523
-10.7494
-10.7458
-10.7415
-10.7366
-10.7314
-10.7261
-10.7208
-10.7158
-10.7113
-10.7074
-10.7044
-10.7023
-10.7012
-11.0814
-11.0823
-11.084
-11.0865
-11.0897
-11.0934
-11.0975
-11.1018
-11.1062
-11.1105
-11.1145
-11.1181
-11.1211
-11.1235
-11.1251
-11.1259
-11.1259
-11.1251
-11.1235
-11.1211
-11.1181
-11.1145
-11.1105
-11.1062
-11.1018
-11.0975
-11.0934
-11.0897
-11.0865
-11.084
-11.0823
-11.0814
-11.4608
-11.4615
-11.4629
-11.465
-11.4676
-11.4706
-11.474
-11.4776
-11.4812
-11.4847
-11.488
-11.491
-11.4935
-11.4954
-11.4968
-11.4975
-11.4975
-11.4968
-11.4954
-11.4935
-11.491
-11.488
-11.4847
-11.4812
-11.4776
-11.474
-11.4706
-11.4676
-11.465
-11.4629
-11.4615
-11.4608
-11.8395
-11.8401
-11.8413
-11.843
-11.8451
-11.8476
-11.8504
-11.8533
-11.8563
-11.8592
-11.8619
-11.8644
-11.8664
-11.868
-11.8692
-11.8697
-11.8697
-11.8692
-11.868
-11.8664
-11.8644
-11.8619
-11.8592
-11.8563
-11.8533
-11.8504
-11.8476
-11.8451
-11.843
-11.8413
-11.8401
-11.8395
-12.2177
-12.2182
-12.2191
-12.2205
-12.2223
-12.2243
-12.2266
-12.229
-12.2315
-12.2339
-12.2361
-12.2381
-12.2398
-12.2412
-12.2421
-12.2426
-12.2426
-12.2421
-12.2412
-12.2398
-12.2381
-12.2361
-12.2339
-12.2315
-12.229
-12.2266
-12.2243
-12.2223
-12.2205
-12.2191
-12.2182
-12.2177
-12.5954
-12.5958
-12.5966
-12.5977
-12.5992
-12.6009
-12.6027
-12.6047
-12.6067
-12.6087
-12.6106
-12.6122
-12.6136
-12.6147
-12.6155
-12.6159
-12.6159
-12.6155
-12.6147
-12.6136
-12.6122
-12.6106
-12.6087
-12.6067
-12.6047
-12.6027
-12.6009
-12.5992
-12.5977
-12.5966
-12.5958
-12.5954
-12.9727
-12.9731
-12.9737
-12.9746
-12.9758
-12.9772
-12.9788
-12.9804
-12.9821
-12.9837
-12.9852
-12.9866
-12.9877
-12.9887
-12.9893
-12.9896
-12.9896
-12.9893
-12.9887
-12.9877
-12.9866
-12.9852
-12.9837
-12.9821
-12.9804
-12.9788
-12.9772
-12.9758
-12.9746
-12.9737
-12.9731
-12.9727
-13.3498
-13.35
-13.3506
-13.3513
-13.3523
-13.3534
-13.3547
-13.3561
-13.3574
-13.3588
-13.36
-13.3612
-13.3621
-13.3629
-13.3634
-13.3636
-13.3636
-13.3634
-13.3629
-13.3621
-13.3612
-13.36
-13.3588
-13.3574
-13.3561
-13.3547
-13.3534
-13.3523
-13.3513
-13.3506
-13.35
-13.3498
-13.7265
-13.7267
-13.7272
-13.7278
-13.7286
-13.7295
-13.7306
-13.7317
-13.7328
-13.7339
-13.735
-13.7359
-13.7367
-13.7373
-13.7377
-13.738
-13.738
-13.7377
-13.7373
-13.7367
-13.7359
-13.735
-13.7339
-13.7328
-13.7317
-13.7306
-13.7295
-13.7286
-13.7278
-13.7272
-13.7267
-13.7265
-14.1031
-14.1032
-14.1036
-14.1041
-14.1048
-14.1056
-14.1064
-14.1073
-14.1083
-14.1092
-14.11
-14.1108
-14.1114
-14.1119
-14.1123
-14.1125
-14.1125
-14.1123
-14.1119
-14.1114
-14.1108
-14.11
-14.1092
-14.1083
-14.1073
-14.1064
-14.1056
-14.1048
-14.1041
-14.1036
-14.1032
-14.1031
-14.4794
-14.4796
-14.4799
-14.4803
-14.4808
-14.4815
-14.4822
-14.4829
-14.4837
-14.4844
-14.4852
-14.4858
-14.4863
-14.4867
-14.487
-14.4872