/*--------------------------------*- C++ -*----------------------------------*\
  =========                 |
  \\      /  F ield         | OpenFOAM: The Open Source CFD Toolbox
   \\    /   O peration     | Website:  https://openfoam.org
    \\  /    A nd           | Version:  9
     \\/     M anipulation  |
\*---------------------------------------------------------------------------*/
FoamFile
{
    format      ascii;
    class       volScalarField;
    location    "0.55";
    object      p_rgh;
}
// * * * * * * * * * * * * * * * * * * * * * * * * * * * * * * * * * * * * * //

dimensions      [1 -1 -2 0 0 0 0];

internalField   nonuniform List<scalar> 
4096
(
-3.29767
-3.29766
-3.29766
-3.29765
-3.29763
-3.29762
-3.2976
-3.29758
-3.29757
-3.29755
-3.29753
-3.29752
-3.2975
-3.29749
-3.29749
-3.29748
-3.29748
-3.29749
-3.29749
-3.2975
-3.29752
-3.29753
-3.29755
-3.29756
-3.29758
-3.2976
-3.29762
-3.29763
-3.29764
-3.29765
-3.29766
-3.29766
-3.29767
-3.29767
-3.29766
-3.29765
-3.29763
-3.29762
-3.2976
-3.29758
-3.29756
-3.29755
-3.29753
-3.29751
-3.2975
-3.29749
-3.29748
-3.29748
-3.29748
-3.29748
-3.29749
-3.2975
-3.29751
-3.29753
-3.29755
-3.29756
-3.29758
-3.2976
-3.29762
-3.29763
-3.29765
-3.29766
-3.29766
-3.29767
-3.29768
-3.29767
-3.29766
-3.29765
-3.29764
-3.29762
-3.2976
-3.29758
-3.29756
-3.29754
-3.29753
-3.29751
-3.2975
-3.29748
-3.29748
-3.29747
-3.29747
-3.29748
-3.29748
-3.2975
-3.29751
-3.29753
-3.29754
-3.29756
-3.29758
-3.2976
-3.29762
-3.29764
-3.29765
-3.29766
-3.29767
-3.29767
-3.29769
-3.29768
-3.29767
-3.29766
-3.29765
-3.29763
-3.29761
-3.29759
-3.29756
-3.29754
-3.29752
-3.2975
-3.29749
-3.29747
-3.29747
-3.29746
-3.29746
-3.29747
-3.29747
-3.29749
-3.2975
-3.29752
-3.29754
-3.29756
-3.29758
-3.29761
-3.29763
-3.29764
-3.29766
-3.29767
-3.29768
-3.29768
-3.2977
-3.2977
-3.29769
-3.29767
-3.29765
-3.29763
-3.29761
-3.29759
-3.29756
-3.29754
-3.29751
-3.29749
-3.29748
-3.29746
-3.29745
-3.29745
-3.29745
-3.29745
-3.29746
-3.29748
-3.29749
-3.29751
-3.29754
-3.29756
-3.29759
-3.29761
-3.29763
-3.29765
-3.29767
-3.29769
-3.29769
-3.2977
-3.29772
-3.29771
-3.2977
-3.29769
-3.29767
-3.29764
-3.29762
-3.29759
-3.29756
-3.29753
-3.2975
-3.29748
-3.29746
-3.29744
-3.29743
-3.29743
-3.29743
-3.29743
-3.29744
-3.29746
-3.29748
-3.2975
-3.29753
-3.29756
-3.29759
-3.29762
-3.29764
-3.29767
-3.29769
-3.2977
-3.29771
-3.29772
-3.29775
-3.29774
-3.29773
-3.29771
-3.29768
-3.29766
-3.29762
-3.29759
-3.29756
-3.29752
-3.29749
-3.29746
-3.29744
-3.29742
-3.29741
-3.2974
-3.2974
-3.29741
-3.29742
-3.29744
-3.29746
-3.29749
-3.29752
-3.29756
-3.29759
-3.29762
-3.29766
-3.29768
-3.29771
-3.29773
-3.29774
-3.29774
-3.29778
-3.29777
-3.29775
-3.29773
-3.2977
-3.29767
-3.29763
-3.29759
-3.29755
-3.29751
-3.29748
-3.29744
-3.29742
-3.29739
-3.29738
-3.29737
-3.29737
-3.29738
-3.29739
-3.29742
-3.29744
-3.29748
-3.29751
-3.29755
-3.29759
-3.29763
-3.29767
-3.2977
-3.29773
-3.29775
-3.29777
-3.29778
-3.29782
-3.29781
-3.29779
-3.29776
-3.29773
-3.29769
-3.29765
-3.2976
-3.29755
-3.2975
-3.29746
-3.29742
-3.29738
-3.29736
-3.29734
-3.29733
-3.29733
-3.29734
-3.29736
-3.29738
-3.29742
-3.29746
-3.2975
-3.29755
-3.2976
-3.29765
-3.29769
-3.29773
-3.29776
-3.29779
-3.29781
-3.29782
-3.29787
-3.29785
-3.29783
-3.2978
-3.29776
-3.29771
-3.29766
-3.2976
-3.29755
-3.29749
-3.29744
-3.29739
-3.29735
-3.29731
-3.29729
-3.29728
-3.29728
-3.29729
-3.29731
-3.29735
-3.29739
-3.29744
-3.29749
-3.29755
-3.2976
-3.29766
-3.29771
-3.29776
-3.2978
-3.29783
-3.29785
-3.29786
-3.29792
-3.29791
-3.29789
-3.29785
-3.2978
-3.29774
-3.29768
-3.29761
-3.29754
-3.29747
-3.29741
-3.29735
-3.2973
-3.29726
-3.29723
-3.29722
-3.29722
-3.29723
-3.29726
-3.2973
-3.29735
-3.29741
-3.29747
-3.29754
-3.29761
-3.29768
-3.29774
-3.2978
-3.29785
-3.29789
-3.29791
-3.29792
-3.298
-3.29798
-3.29795
-3.2979
-3.29785
-3.29778
-3.2977
-3.29762
-3.29753
-3.29745
-3.29737
-3.2973
-3.29724
-3.2972
-3.29716
-3.29715
-3.29715
-3.29716
-3.2972
-3.29724
-3.2973
-3.29737
-3.29745
-3.29753
-3.29762
-3.2977
-3.29778
-3.29785
-3.2979
-3.29795
-3.29798
-3.298
-3.29809
-3.29807
-3.29803
-3.29797
-3.2979
-3.29782
-3.29773
-3.29763
-3.29753
-3.29743
-3.29733
-3.29725
-3.29717
-3.29712
-3.29708
-3.29706
-3.29706
-3.29708
-3.29712
-3.29717
-3.29725
-3.29733
-3.29743
-3.29752
-3.29763
-3.29773
-3.29782
-3.2979
-3.29797
-3.29803
-3.29807
-3.29809
-3.2982
-3.29817
-3.29813
-3.29806
-3.29797
-3.29787
-3.29776
-3.29764
-3.29752
-3.29739
-3.29728
-3.29718
-3.29709
-3.29702
-3.29697
-3.29695
-3.29695
-3.29697
-3.29702
-3.29709
-3.29718
-3.29728
-3.29739
-3.29751
-3.29764
-3.29776
-3.29787
-3.29797
-3.29806
-3.29813
-3.29817
-3.2982
-3.29833
-3.2983
-3.29824
-3.29816
-3.29806
-3.29794
-3.2978
-3.29765
-3.2975
-3.29736
-3.29722
-3.29709
-3.29699
-3.2969
-3.29685
-3.29682
-3.29682
-3.29685
-3.2969
-3.29699
-3.29709
-3.29722
-3.29736
-3.2975
-3.29765
-3.2978
-3.29794
-3.29806
-3.29816
-3.29824
-3.2983
-3.29833
-3.29849
-3.29846
-3.29839
-3.29829
-3.29816
-3.29801
-3.29785
-3.29767
-3.29749
-3.29731
-3.29714
-3.29699
-3.29686
-3.29676
-3.29669
-3.29665
-3.29665
-3.29669
-3.29676
-3.29686
-3.29699
-3.29714
-3.29731
-3.29749
-3.29767
-3.29785
-3.29801
-3.29816
-3.29829
-3.29839
-3.29846
-3.29849
-3.29869
-3.29864
-3.29856
-3.29844
-3.29829
-3.29811
-3.29791
-3.29769
-3.29747
-3.29725
-3.29705
-3.29687
-3.29671
-3.29659
-3.2965
-3.29646
-3.29646
-3.2965
-3.29659
-3.29671
-3.29687
-3.29705
-3.29725
-3.29747
-3.29769
-3.29791
-3.29811
-3.29829
-3.29844
-3.29856
-3.29864
-3.29869
-3.29892
-3.29887
-3.29877
-3.29863
-3.29844
-3.29822
-3.29798
-3.29772
-3.29745
-3.29719
-3.29694
-3.29671
-3.29652
-3.29637
-3.29627
-3.29622
-3.29622
-3.29627
-3.29637
-3.29652
-3.29671
-3.29694
-3.29719
-3.29745
-3.29772
-3.29798
-3.29822
-3.29844
-3.29863
-3.29877
-3.29887
-3.29892
-3.29921
-3.29915
-3.29903
-3.29886
-3.29863
-3.29836
-3.29807
-3.29775
-3.29742
-3.2971
-3.2968
-3.29653
-3.2963
-3.29612
-3.29599
-3.29593
-3.29593
-3.29599
-3.29612
-3.2963
-3.29653
-3.2968
-3.2971
-3.29742
-3.29775
-3.29806
-3.29836
-3.29863
-3.29886
-3.29903
-3.29915
-3.29921
-3.29956
-3.29949
-3.29935
-3.29913
-3.29886
-3.29853
-3.29817
-3.29779
-3.29739
-3.29701
-3.29664
-3.29631
-3.29603
-3.2958
-3.29565
-3.29557
-3.29557
-3.29565
-3.2958
-3.29603
-3.29631
-3.29664
-3.29701
-3.29739
-3.29779
-3.29817
-3.29853
-3.29886
-3.29913
-3.29934
-3.29949
-3.29956
-3.29999
-3.2999
-3.29973
-3.29947
-3.29913
-3.29874
-3.2983
-3.29784
-3.29736
-3.29689
-3.29644
-3.29604
-3.29569
-3.29542
-3.29524
-3.29514
-3.29514
-3.29524
-3.29542
-3.29569
-3.29604
-3.29644
-3.29689
-3.29736
-3.29784
-3.2983
-3.29874
-3.29913
-3.29947
-3.29973
-3.2999
-3.29999
-3.30051
-3.3004
-3.30019
-3.29987
-3.29947
-3.29899
-3.29846
-3.2979
-3.29731
-3.29674
-3.2962
-3.29571
-3.29529
-3.29496
-3.29473
-3.29462
-3.29462
-3.29473
-3.29496
-3.29529
-3.29571
-3.2962
-3.29674
-3.29731
-3.2979
-3.29846
-3.29899
-3.29947
-3.29987
-3.30019
-3.3004
-3.30051
-3.30114
-3.30101
-3.30075
-3.30037
-3.29988
-3.2993
-3.29866
-3.29797
-3.29726
-3.29657
-3.29591
-3.29531
-3.2948
-3.2944
-3.29412
-3.29398
-3.29398
-3.29412
-3.2944
-3.2948
-3.29531
-3.29591
-3.29657
-3.29726
-3.29797
-3.29866
-3.2993
-3.29988
-3.30037
-3.30075
-3.30101
-3.30114
-3.3019
-3.30174
-3.30143
-3.30097
-3.30038
-3.29968
-3.2989
-3.29806
-3.2972
-3.29636
-3.29555
-3.29483
-3.29421
-3.29372
-3.29338
-3.29321
-3.29321
-3.29338
-3.29372
-3.29421
-3.29483
-3.29555
-3.29636
-3.2972
-3.29806
-3.2989
-3.29968
-3.30038
-3.30097
-3.30143
-3.30174
-3.3019
-3.30283
-3.30264
-3.30226
-3.3017
-3.30099
-3.30014
-3.29919
-3.29818
-3.29713
-3.2961
-3.29513
-3.29424
-3.29349
-3.29289
-3.29247
-3.29226
-3.29226
-3.29247
-3.29289
-3.29348
-3.29424
-3.29513
-3.2961
-3.29713
-3.29818
-3.29919
-3.30014
-3.30099
-3.3017
-3.30226
-3.30264
-3.30283
-3.30395
-3.30372
-3.30326
-3.30259
-3.30173
-3.3007
-3.29955
-3.29832
-3.29706
-3.2958
-3.29461
-3.29353
-3.29261
-3.29188
-3.29137
-3.29111
-3.29111
-3.29137
-3.29188
-3.29261
-3.29353
-3.29461
-3.2958
-3.29706
-3.29832
-3.29955
-3.3007
-3.30173
-3.30259
-3.30326
-3.30372
-3.30395
-3.30531
-3.30503
-3.30448
-3.30367
-3.30263
-3.30139
-3.3
-3.29851
-3.29697
-3.29544
-3.29399
-3.29268
-3.29155
-3.29065
-3.29003
-3.28972
-3.28972
-3.29003
-3.29065
-3.29155
-3.29267
-3.29399
-3.29544
-3.29697
-3.29851
-3.3
-3.30139
-3.30263
-3.30367
-3.30448
-3.30503
-3.30531
-3.30696
-3.30663
-3.30596
-3.30499
-3.30373
-3.30223
-3.30055
-3.29874
-3.29687
-3.29502
-3.29325
-3.29164
-3.29025
-3.28916
-3.2884
-3.28801
-3.28801
-3.2884
-3.28916
-3.29025
-3.29164
-3.29325
-3.29502
-3.29687
-3.29874
-3.30055
-3.30223
-3.30373
-3.30498
-3.30596
-3.30663
-3.30696
-3.30896
-3.30855
-3.30776
-3.30658
-3.30507
-3.30326
-3.30123
-3.29904
-3.29677
-3.29451
-3.29235
-3.29038
-3.28869
-3.28735
-3.28641
-3.28594
-3.28594
-3.28641
-3.28735
-3.28869
-3.29038
-3.29235
-3.29451
-3.29677
-3.29904
-3.30123
-3.30326
-3.30507
-3.30658
-3.30776
-3.30855
-3.30896
-3.31137
-3.31089
-3.30994
-3.30853
-3.3067
-3.30453
-3.30207
-3.29942
-3.29667
-3.29392
-3.29128
-3.28887
-3.28679
-3.28514
-3.28399
-3.2834
-3.2834
-3.28399
-3.28514
-3.28679
-3.28887
-3.29128
-3.29392
-3.29667
-3.29942
-3.30207
-3.30453
-3.3067
-3.30853
-3.30994
-3.31089
-3.31137
-3.3143
-3.31372
-3.31258
-3.31089
-3.3087
-3.30609
-3.30313
-3.29992
-3.29657
-3.29323
-3.29001
-3.28705
-3.2845
-3.28246
-3.28104
-3.28031
-3.28031
-3.28104
-3.28246
-3.2845
-3.28705
-3.29001
-3.29323
-3.29657
-3.29992
-3.30313
-3.30609
-3.3087
-3.31089
-3.31258
-3.31372
-3.3143
-3.31783
-3.31714
-3.31578
-3.31376
-3.31115
-3.30801
-3.30444
-3.30057
-3.29651
-3.29243
-3.28849
-3.28486
-3.28171
-3.2792
-3.27744
-3.27654
-3.27654
-3.27744
-3.2792
-3.28171
-3.28486
-3.28849
-3.29243
-3.29651
-3.30057
-3.30444
-3.30801
-3.31115
-3.31376
-3.31578
-3.31714
-3.31783
-3.32209
-3.32128
-3.31966
-3.31726
-3.31414
-3.31039
-3.3061
-3.30142
-3.29651
-3.29153
-3.28671
-3.28225
-3.27835
-3.27523
-3.27305
-3.27192
-3.27192
-3.27305
-3.27523
-3.27835
-3.28225
-3.28671
-3.29153
-3.29651
-3.30142
-3.3061
-3.31039
-3.31414
-3.31726
-3.31966
-3.32128
-3.32209
-3.32722
-3.32626
-3.32435
-3.32151
-3.31781
-3.31333
-3.3082
-3.30256
-3.2966
-3.29054
-3.28463
-3.27912
-3.2743
-3.27041
-3.26768
-3.26627
-3.26627
-3.26768
-3.27041
-3.2743
-3.27912
-3.28463
-3.29054
-3.2966
-3.30256
-3.3082
-3.31333
-3.31781
-3.32151
-3.32435
-3.32626
-3.32722
-3.3334
-3.33228
-3.33003
-3.32669
-3.3223
-3.31698
-3.31085
-3.30408
-3.29688
-3.28949
-3.28223
-3.27542
-3.26941
-3.26455
-3.26112
-3.25934
-3.25934
-3.26112
-3.26455
-3.26941
-3.27542
-3.28223
-3.28949
-3.29688
-3.30408
-3.31085
-3.31698
-3.3223
-3.32669
-3.33003
-3.33228
-3.3334
-3.34082
-3.33951
-3.33689
-3.33298
-3.32783
-3.32154
-3.31425
-3.30613
-3.29743
-3.28843
-3.2795
-3.27106
-3.26355
-3.25743
-3.25309
-3.25084
-3.25084
-3.25309
-3.25743
-3.26355
-3.27106
-3.2795
-3.28843
-3.29743
-3.30613
-3.31425
-3.32154
-3.32783
-3.33298
-3.33689
-3.33951
-3.34082
-3.34971
-3.3482
-3.34517
-3.34062
-3.33461
-3.32723
-3.3186
-3.30892
-3.29843
-3.28747
-3.27648
-3.26598
-3.25655
-3.24879
-3.24327
-3.24039
-3.24039
-3.24327
-3.24879
-3.25655
-3.26598
-3.27648
-3.28747
-3.29843
-3.30892
-3.3186
-3.32723
-3.33461
-3.34062
-3.34517
-3.3482
-3.34971
-3.36032
-3.3586
-3.35513
-3.3499
-3.34295
-3.33436
-3.32422
-3.31272
-3.30012
-3.28679
-3.27326
-3.26015
-3.24824
-3.23834
-3.23124
-3.22752
-3.22752
-3.23124
-3.23834
-3.24824
-3.26015
-3.27326
-3.28679
-3.30012
-3.31272
-3.32422
-3.33436
-3.34295
-3.3499
-3.35513
-3.3586
-3.36032
-3.37296
-3.37102
-3.36709
-3.36115
-3.35321
-3.3433
-3.33149
-3.31793
-3.30287
-3.28671
-3.27002
-3.25361
-3.23848
-3.22574
-3.21651
-3.21166
-3.21166
-3.21651
-3.22574
-3.23848
-3.25361
-3.27002
-3.28671
-3.30287
-3.31793
-3.33149
-3.3433
-3.35321
-3.36115
-3.36709
-3.37102
-3.37296
-3.38794
-3.38579
-3.38142
-3.37477
-3.36581
-3.35453
-3.34093
-3.3251
-3.30723
-3.2877
-3.26715
-3.24655
-3.22718
-3.21063
-3.1985
-3.1921
-3.1921
-3.1985
-3.21063
-3.22718
-3.24655
-3.26715
-3.2877
-3.30723
-3.3251
-3.34093
-3.35453
-3.36581
-3.37477
-3.38142
-3.38579
-3.38794
-3.40561
-3.40327
-3.3985
-3.39119
-3.38127
-3.36865
-3.35322
-3.33497
-3.31398
-3.29055
-3.26531
-3.23938
-3.21444
-3.1927
-3.17656
-3.16801
-3.16801
-3.17656
-3.1927
-3.21444
-3.23938
-3.26531
-3.29055
-3.31398
-3.33497
-3.35322
-3.36865
-3.38127
-3.39119
-3.3985
-3.40327
-3.40561
-3.42632
-3.42383
-3.41875
-3.41092
-3.40019
-3.38636
-3.36922
-3.34855
-3.32426
-3.29647
-3.26565
-3.23301
-3.20067
-3.17179
-3.15005
-3.13847
-3.13847
-3.15005
-3.17179
-3.20067
-3.23301
-3.26565
-3.29647
-3.32426
-3.34855
-3.36922
-3.38636
-3.40019
-3.41091
-3.41875
-3.42383
-3.42632
-3.45041
-3.44786
-3.4426
-3.43446
-3.4232
-3.40851
-3.38998
-3.36718
-3.3397
-3.30729
-3.27011
-3.22917
-3.18704
-3.14819
-3.11848
-3.10271
-3.10271
-3.11848
-3.14819
-3.18704
-3.22917
-3.27011
-3.30729
-3.3397
-3.36718
-3.38998
-3.40851
-3.4232
-3.43446
-3.4426
-3.44786
-3.45041
-3.47818
-3.47567
-3.47046
-3.46234
-3.451
-3.436
-3.41675
-3.39252
-3.36248
-3.32579
-3.28193
-3.23109
-3.1759
-3.12271
-3.08171
-3.06024
-3.06024
-3.08171
-3.12271
-3.17591
-3.23109
-3.28193
-3.32579
-3.36248
-3.39252
-3.41675
-3.436
-3.451
-3.46234
-3.47046
-3.47567
-3.47818
-3.50986
-3.50752
-3.50265
-3.49501
-3.48423
-3.46978
-3.4509
-3.42657
-3.39549
-3.35602
-3.30637
-3.24464
-3.17232
-3.09814
-3.04104
-3.0114
-3.0114
-3.04104
-3.09814
-3.17231
-3.24464
-3.30637
-3.35602
-3.39549
-3.42657
-3.4509
-3.46978
-3.48423
-3.49501
-3.50265
-3.50752
-3.50986
-3.54552
-3.54352
-3.53934
-3.53274
-3.52337
-3.51065
-3.49375
-3.47148
-3.44216
-3.40338
-3.35141
-3.28135
-3.18957
-3.08779
-3.00681
-2.9665
-2.96651
-3.00681
-3.08779
-3.18956
-3.28135
-3.35141
-3.40338
-3.44216
-3.47148
-3.49375
-3.51065
-3.52337
-3.53274
-3.53934
-3.54352
-3.54552
-3.58509
-3.58361
-3.5805
-3.57558
-3.56857
-3.55902
-3.54621
-3.52906
-3.50604
-3.47494
-3.43045
-3.35863
-3.25644
-3.31469
-3.81812
-4.04042
-4.04042
-3.8181
-3.31468
-3.25642
-3.35863
-3.43045
-3.47494
-3.50604
-3.52906
-3.54621
-3.55902
-3.56857
-3.57558
-3.5805
-3.58361
-3.58509
-3.62825
-3.62746
-3.62578
-3.62316
-3.6195
-3.61464
-3.60826
-3.59984
-3.58904
-3.5759
-3.55115
-3.4815
-3.8154
-6.58928
-7.72635
-7.91774
-7.91773
-7.72633
-6.5892
-3.81531
-3.4815
-3.55115
-3.5759
-3.58904
-3.59983
-3.60825
-3.61464
-3.6195
-3.62316
-3.62578
-3.62746
-3.62825
-3.67446
-3.67447
-3.6745
-3.67466
-3.67512
-3.67616
-3.67815
-3.68171
-3.68921
-3.70431
-3.71164
-3.81183
-6.75997
-8.42649
-8.30964
-8.26491
-8.26491
-8.30964
-8.4265
-6.75975
-3.81178
-3.71164
-3.70431
-3.68921
-3.68171
-3.67814
-3.67616
-3.67512
-3.67465
-3.6745
-3.67447
-3.67445
-3.72293
-3.7238
-3.72563
-3.72873
-3.73359
-3.74097
-3.75204
-3.7692
-3.79764
-3.84053
-3.8832
-5.19923
-8.46371
-8.35309
-8.23247
-8.18294
-8.18294
-8.23247
-8.3531
-8.46365
-5.19904
-3.88319
-3.84053
-3.79763
-3.76919
-3.75203
-3.74097
-3.73359
-3.72873
-3.72563
-3.72379
-3.72292
-3.77272
-3.7744
-3.77792
-3.78374
-3.79259
-3.80559
-3.82462
-3.85369
-3.8977
-3.95673
-4.04203
-6.25694
-8.39714
-8.23706
-8.12049
-8.06799
-8.06799
-8.12049
-8.23706
-8.39714
-6.25669
-4.042
-3.95672
-3.89769
-3.85368
-3.82461
-3.80558
-3.79259
-3.78374
-3.77792
-3.77439
-3.77272
-3.82291
-3.82525
-3.83015
-3.8381
-3.8499
-3.86678
-3.8909
-3.92577
-3.97363
-4.03338
-4.11897
-6.11333
-8.19088
-8.05127
-7.94912
-7.89465
-7.89465
-7.94912
-8.05128
-8.19087
-6.11308
-4.11893
-4.03337
-3.97362
-3.92576
-3.89089
-3.86677
-3.8499
-3.83809
-3.83014
-3.82524
-3.8229
-3.87266
-3.87547
-3.8813
-3.89061
-3.90404
-3.9226
-3.94796
-3.98154
-4.02361
-4.07197
-4.1254
-5.13659
-7.67401
-7.80353
-7.71726
-7.66666
-7.66666
-7.71725
-7.80353
-7.67395
-5.13648
-4.12538
-4.07196
-4.0236
-3.98154
-3.94795
-3.92259
-3.90403
-3.8906
-3.8813
-3.87546
-3.87265
-3.9213
-3.9244
-3.93075
-3.94066
-3.95451
-3.97293
-3.99644
-4.02443
-4.05624
-4.08947
-4.12171
-4.50161
-7.26778
-7.51388
-7.44045
-7.40308
-7.40307
-7.44045
-7.51388
-7.26773
-4.50155
-4.1217
-4.08946
-4.05623
-4.02442
-3.99643
-3.97293
-3.95451
-3.94066
-3.93075
-3.92439
-3.9213
-3.9684
-3.97164
-3.97821
-3.98824
-4.00181
-4.01902
-4.03916
-4.06072
-4.08238
-4.10322
-4.12186
-4.49039
-7.00777
-7.19411
-7.13551
-7.11137
-7.11137
-7.13551
-7.19411
-7.00773
-4.4903
-4.12185
-4.10321
-4.08237
-4.06071
-4.03915
-4.01901
-4.0018
-3.98823
-3.97821
-3.97164
-3.9684
-4.01367
-4.017
-4.02367
-4.03365
-4.04681
-4.06262
-4.07955
-4.09564
-4.1089
-4.11785
-4.12168
-5.86144
-6.89334
-6.86077
-6.81554
-6.79645
-6.79645
-6.81554
-6.86077
-6.89333
-5.86134
-4.12167
-4.11784
-4.10889
-4.09563
-4.07954
-4.06262
-4.0468
-4.03365
-4.02367
-4.017
-4.01367
-4.05692
-4.06035
-4.06719
-4.07731
-4.09038
-4.1054
-4.12032
-4.13276
-4.14025
-4.13793
-4.11153
-6.4373
-6.56693
-6.52551
-6.49117
-6.47457
-6.47457
-6.49117
-6.5255
-6.56693
-6.43728
-4.11152
-4.13792
-4.14024
-4.13275
-4.12031
-4.1054
-4.09037
-4.0773
-4.06718
-4.06035
-4.05691
-4.09793
-4.10155
-4.10875
-4.1194
-4.13308
-4.14851
-4.16352
-4.17557
-4.18184
-4.17587
-4.89225
-6.24505
-6.2402
-6.19763
-6.16697
-6.15212
-6.15212
-6.16697
-6.19762
-6.24019
-6.24504
-4.89221
-4.17586
-4.18184
-4.17556
-4.16351
-4.1485
-4.13307
-4.11939
-4.10874
-4.10154
-4.09792
-4.1364
-4.14031
-4.14813
-4.1598
-4.1749
-4.19217
-4.20959
-4.22481
-4.2315
-4.20704
-5.81505
-5.96492
-5.92106
-5.87568
-5.84469
-5.82985
-5.82985
-5.84469
-5.87567
-5.92105
-5.96492
-5.81503
-4.20703
-4.23149
-4.22481
-4.20959
-4.19217
-4.1749
-4.15979
-4.14812
-4.14031
-4.13639
-4.17188
-4.17617
-4.18484
-4.19796
-4.21525
-4.23562
-4.25731
-4.27866
-4.29368
-4.53281
-5.70238
-5.66113
-5.60573
-5.55692
-5.52413
-5.5081
-5.5081
-5.52413
-5.55692
-5.60573
-5.66112
-5.70237
-4.53279
-4.29367
-4.27865
-4.2573
-4.23562
-4.21525
-4.19795
-4.18483
-4.17617
-4.17187
-4.20377
-4.20849
-4.21811
-4.2329
-4.25275
-4.27689
-4.30396
-4.33207
-4.35737
-5.07975
-5.43548
-5.36001
-5.29049
-5.23714
-5.20259
-5.18545
-5.18545
-5.20259
-5.23713
-5.29049
-5.36
-5.43547
-5.07974
-4.35736
-4.33206
-4.30395
-4.27688
-4.25274
-4.2329
-4.21811
-4.20848
-4.20377
-4.23141
-4.2365
-4.24703
-4.26336
-4.28538
-4.31264
-4.34379
-4.37622
-4.40538
-5.04075
-5.132
-5.04863
-4.97255
-4.91538
-4.87914
-4.86128
-4.86128
-4.87914
-4.91538
-4.97254
-5.04863
-5.132
-5.04074
-4.40538
-4.37622
-4.34379
-4.31263
-4.28537
-4.26335
-4.24703
-4.2365
-4.2314
-4.25414
-4.25951
-4.27075
-4.28805
-4.31131
-4.34014
-4.3725
-4.40335
-4.46611
-4.87428
-4.83291
-4.73089
-4.64949
-4.59074
-4.55368
-4.53553
-4.53553
-4.55368
-4.59074
-4.64948
-4.73088
-4.8329
-4.87428
-4.4661
-4.40334
-4.37249
-4.34014
-4.31131
-4.28804
-4.27074
-4.25951
-4.25413
-4.27142
-4.27706
-4.2886
-4.30615
-4.3297
-4.35893
-4.3913
-4.42053
-4.46083
-4.60642
-4.5105
-4.40115
-4.31969
-4.2629
-4.22681
-4.20913
-4.20913
-4.22681
-4.2629
-4.31968
-4.40115
-4.5105
-4.60642
-4.46083
-4.42053
-4.3913
-4.35892
-4.3297
-4.30614
-4.2886
-4.27705
-4.27141
-4.28324
-4.28892
-4.30019
-4.31729
-4.34028
-4.36853
-4.39958
-4.4272
-4.40003
-4.29128
-4.17172
-4.06476
-3.98712
-3.93441
-3.90068
-3.88417
-3.88417
-3.90068
-3.9344
-3.98712
-4.06475
-4.17172
-4.29127
-4.40002
-4.4272
-4.39958
-4.36853
-4.34027
-4.31729
-4.30018
-4.28892
-4.28324
-4.28962
-4.29483
-4.30544
-4.32154
-4.34291
-4.36855
-4.39573
-4.41912
-4.31983
-3.97007
-3.82737
-3.72622
-3.65559
-3.60848
-3.57837
-3.56367
-3.56367
-3.57837
-3.60848
-3.65559
-3.72621
-3.82736
-3.97006
-4.31982
-4.41911
-4.39573
-4.36855
-4.34291
-4.32153
-4.30544
-4.29483
-4.28961
-4.29035
-4.29518
-4.30497
-4.31968
-4.3388
-4.36091
-4.38307
-4.4003
-4.23274
-3.6524
-3.48356
-3.39081
-3.32971
-3.28928
-3.26364
-3.25125
-3.25125
-3.26364
-3.28928
-3.32971
-3.3908
-3.48356
-3.65238
-4.23273
-4.4003
-4.38307
-4.36091
-4.3388
-4.31968
-4.30497
-4.29518
-4.29035
-4.28637
-4.29083
-4.29978
-4.31308
-4.33004
-4.34905
-4.36721
-4.3789
-4.106
-3.31234
-3.14325
-3.06258
-3.01313
-2.98068
-2.96043
-2.95077
-2.95077
-2.96043
-2.98068
-3.01313
-3.06258
-3.14324
-3.31233
-4.10597
-4.3789
-4.36721
-4.34905
-4.33004
-4.31308
-4.29978
-4.29082
-4.28637
-4.27863
-4.28273
-4.29094
-4.30302
-4.31819
-4.33499
-4.35109
-4.36422
-3.79786
-2.92529
-2.807
-2.74525
-2.70962
-2.68651
-2.67252
-2.66596
-2.66596
-2.67252
-2.68651
-2.70961
-2.74525
-2.807
-2.92528
-3.79783
-4.36422
-4.35108
-4.33499
-4.31819
-4.30302
-4.29094
-4.28273
-4.27863
-4.26807
-4.2719
-4.27947
-4.29043
-4.30398
-4.31836
-4.33042
-4.33617
-3.21859
-2.55745
-2.48387
-2.44483
-2.4241
-2.41128
-2.40396
-2.40065
-2.40065
-2.40396
-2.41128
-2.4241
-2.44483
-2.48387
-2.55745
-3.21854
-4.33616
-4.33041
-4.31836
-4.30398
-4.29043
-4.27947
-4.27189
-4.26807
-4.2558
-4.25943
-4.26652
-4.27659
-4.28872
-4.30085
-4.30908
-3.99209
-2.51829
-2.22752
-2.1844
-2.16789
-2.16173
-2.15918
-2.15841
-2.15826
-2.15826
-2.15841
-2.15918
-2.16173
-2.16789
-2.1844
-2.22752
-2.51826
-3.99205
-4.30908
-4.30085
-4.28872
-4.27659
-4.26651
-4.25943
-4.2558
-4.24305
-4.24658
-4.25335
-4.26281
-4.27407
-4.28457
-4.28923
-2.99885
-1.94409
-1.92277
-1.91492
-1.91941
-1.92665
-1.93335
-1.93835
-1.94097
-1.94097
-1.93835
-1.93335
-1.92665
-1.91941
-1.91492
-1.92277
-1.94409
-2.9988
-4.28923
-4.28457
-4.27407
-4.2628
-4.25335
-4.24658
-4.24304
-4.23114
-4.23473
-4.24152
-4.25052
-4.26158
-4.27362
-3.54403
-1.77914
-1.64834
-1.6627
-1.68228
-1.7031
-1.7212
-1.7353
-1.74489
-1.74972
-1.74972
-1.74489
-1.7353
-1.7212
-1.7031
-1.68228
-1.6627
-1.64834
-1.77912
-3.54398
-4.27362
-4.26158
-4.25052
-4.24152
-4.23473
-4.23113
-4.22195
-4.22563
-4.23335
-4.24137
-4.25138
-3.58778
-1.57238
-1.36373
-1.41033
-1.45061
-1.48793
-1.51995
-1.5457
-1.565
-1.57783
-1.58421
-1.58421
-1.57783
-1.565
-1.5457
-1.51995
-1.48793
-1.45061
-1.41033
-1.36373
-1.57236
-3.58774
-4.25138
-4.24137
-4.23335
-4.22563
-4.22195
-4.21555
-4.21864
-4.19893
-3.92144
-2.84183
-1.22128
-1.07978
-1.16335
-1.22849
-1.28368
-1.33034
-1.36861
-1.39876
-1.42107
-1.4358
-1.44311
-1.44311
-1.4358
-1.42107
-1.39876
-1.36861
-1.33034
-1.28368
-1.22849
-1.16336
-1.07978
-1.22126
-2.8418
-3.92144
-4.19893
-4.21864
-4.21555
-2.47378
-2.3002
-1.84982
-1.27425
-0.82308
-0.853525
-0.944806
-1.02687
-1.09704
-1.15623
-1.20564
-1.24599
-1.27771
-1.30117
-1.31664
-1.32432
-1.32432
-1.31664
-1.30117
-1.27772
-1.24599
-1.20564
-1.15623
-1.09704
-1.02688
-0.944808
-0.853526
-0.823077
-1.27425
-1.84982
-2.30021
-2.47379
-0.534295
-0.542932
-0.574739
-0.631337
-0.701571
-0.782697
-0.863184
-0.937441
-1.00347
-1.06043
-1.1085
-1.14802
-1.17924
-1.20241
-1.21773
-1.22533
-1.22533
-1.21773
-1.20241
-1.17924
-1.14802
-1.1085
-1.06043
-1.00347
-0.937442
-0.863185
-0.782698
-0.701571
-0.631336
-0.574738
-0.542931
-0.534294
-0.53316
-0.548302
-0.578449
-0.623838
-0.682175
-0.747984
-0.814857
-0.878853
-0.937471
-0.989233
-1.03361
-1.07048
-1.09983
-1.12174
-1.13628
-1.14351
-1.14351
-1.13628
-1.12174
-1.09983
-1.07048
-1.03361
-0.989234
-0.937472
-0.878854
-0.814857
-0.747984
-0.682175
-0.623838
-0.578448
-0.548301
-0.533158
-0.556911
-0.569605
-0.594809
-0.63189
-0.678638
-0.731436
-0.786534
-0.840519
-0.89105
-0.936549
-0.976156
-1.00943
-1.03615
-1.05622
-1.0696
-1.07627
-1.07627
-1.0696
-1.05622
-1.03616
-1.00943
-0.976156
-0.93655
-0.89105
-0.840519
-0.786534
-0.731436
-0.678638
-0.63189
-0.594808
-0.569604
-0.556909
-0.584235
-0.594687
-0.615274
-0.645189
-0.682705
-0.725441
-0.770608
-0.81559
-0.858408
-0.897581
-0.932142
-0.961488
-0.98525
-1.0032
-1.01522
-1.02124
-1.02124
-1.01522
-1.0032
-0.985251
-0.961489
-0.932142
-0.897582
-0.858408
-0.81559
-0.770608
-0.725441
-0.682705
-0.645188
-0.615274
-0.594686
-0.584234
-0.611123
-0.619629
-0.636314
-0.660456
-0.690737
-0.725362
-0.762275
-0.799485
-0.835407
-0.868687
-0.898383
-0.923836
-0.944601
-0.960381
-0.970987
-0.976308
-0.976308
-0.970987
-0.960381
-0.944601
-0.923837
-0.898383
-0.868687
-0.835407
-0.799485
-0.762275
-0.725361
-0.690737
-0.660456
-0.636313
-0.619628
-0.611122
-0.635921
-0.642818
-0.656322
-0.675832
-0.700309
-0.728392
-0.758555
-0.789309
-0.81917
-0.847173
-0.872409
-0.894218
-0.912128
-0.925809
-0.935038
-0.939679
-0.939679
-0.935038
-0.925809
-0.912128
-0.894218
-0.87241
-0.847173
-0.81917
-0.789309
-0.758555
-0.728392
-0.700309
-0.675832
-0.656321
-0.642818
-0.63592
-0.657965
-0.663553
-0.674481
-0.690262
-0.710077
-0.732886
-0.757523
-0.782813
-0.807618
-0.831051
-0.852334
-0.870853
-0.88615
-0.897887
-0.90583
-0.909832
-0.909832
-0.90583
-0.897887
-0.88615
-0.870854
-0.852334
-0.831052
-0.807618
-0.782813
-0.757523
-0.732886
-0.710076
-0.690261
-0.674481
-0.663553
-0.657965
-0.677117
-0.681645
-0.690496
-0.703277
-0.719347
-0.737901
-0.758035
-0.778825
-0.799361
-0.818888
-0.836737
-0.852358
-0.865323
-0.87531
-0.882088
-0.885509
-0.885509
-0.882088
-0.87531
-0.865324
-0.852358
-0.836737
-0.818888
-0.799361
-0.778825
-0.758035
-0.7379
-0.719346
-0.703277
-0.690495
-0.681645
-0.677116
-0.693509
-0.697181
-0.704359
-0.714728
-0.727784
-0.742898
-0.759364
-0.776447
-0.793419
-0.809643
-0.82455
-0.83766
-0.848586
-0.85703
-0.862773
-0.865678
-0.865678
-0.862774
-0.85703
-0.848586
-0.83766
-0.824551
-0.809643
-0.793419
-0.776447
-0.759364
-0.742898
-0.727784
-0.714728
-0.704359
-0.697181
-0.693508
-0.707397
-0.71038
-0.71621
-0.724636
-0.735262
-0.747591
-0.761066
-0.775102
-0.789111
-0.802563
-0.814975
-0.825935
-0.8351
-0.842202
-0.847044
-0.849495
-0.849495
-0.847044
-0.842203
-0.8351
-0.825935
-0.814976
-0.802563
-0.789111
-0.775102
-0.761066
-0.747591
-0.735261
-0.724636
-0.716209
-0.71038
-0.707397
-0.719082
-0.721508
-0.72625
-0.733109
-0.74177
-0.75184
-0.762876
-0.774409
-0.785964
-0.797099
-0.80741
-0.816545
-0.824206
-0.830156
-0.834219
-0.836278
-0.836278
-0.834219
-0.830156
-0.824206
-0.816545
-0.80741
-0.797099
-0.785964
-0.774409
-0.762876
-0.75184
-0.74177
-0.733109
-0.726249
-0.721507
-0.719081
-0.728861
-0.730837
-0.7347
-0.740293
-0.747362
-0.755597
-0.764642
-0.77412
-0.783645
-0.792851
-0.801402
-0.808998
-0.815383
-0.820352
-0.82375
-0.825474
-0.825474
-0.82375
-0.820352
-0.815383
-0.808998
-0.801402
-0.792851
-0.783645
-0.77412
-0.764642
-0.755597
-0.747362
-0.740293
-0.7347
-0.730837
-0.728861
-0.737015
-0.738627
-0.741779
-0.746345
-0.752123
-0.758864
-0.766282
-0.774072
-0.781921
-0.789526
-0.796607
-0.802911
-0.808221
-0.81236
-0.815194
-0.816633
-0.816633
-0.815194
-0.81236
-0.808221
-0.802911
-0.796607
-0.789526
-0.781921
-0.774072
-0.766282
-0.758864
-0.752123
-0.746345
-0.741779
-0.738627
-0.737015
-0.743796
-0.745112
-0.747688
-0.75142
-0.756147
-0.76167
-0.767757
-0.774161
-0.780628
-0.786906
-0.792764
-0.797988
-0.802396
-0.805836
-0.808194
-0.809392
-0.809392
-0.808194
-0.805836
-0.802396
-0.797988
-0.792764
-0.786906
-0.780628
-0.774161
-0.767757
-0.76167
-0.756147
-0.75142
-0.747688
-0.745112
-0.743796
-0.749422
-0.750499
-0.752605
-0.755659
-0.759531
-0.764059
-0.769057
-0.774323
-0.779649
-0.78483
-0.789671
-0.793995
-0.797649
-0.800504
-0.802462
-0.803458
-0.803458
-0.802462
-0.800504
-0.797649
-0.793995
-0.789671
-0.78483
-0.779649
-0.774323
-0.769057
-0.764059
-0.759531
-0.755659
-0.752605
-0.750499
-0.749422
-0.754083
-0.754964
-0.756689
-0.75919
-0.762364
-0.766079
-0.770184
-0.774515
-0.778902
-0.783175
-0.787173
-0.790749
-0.793774
-0.79614
-0.797764
-0.79859
-0.79859
-0.797764
-0.79614
-0.793774
-0.79075
-0.787173
-0.783175
-0.778902
-0.774515
-0.770184
-0.766079
-0.762364
-0.75919
-0.756689
-0.754964
-0.754083
-0.757939
-0.758661
-0.760074
-0.762125
-0.764728
-0.767778
-0.771152
-0.774714
-0.778327
-0.78185
-0.78515
-0.788106
-0.790607
-0.792566
-0.793911
-0.794595
-0.794595
-0.793911
-0.792566
-0.790607
-0.788106
-0.78515
-0.78185
-0.778327
-0.774714
-0.771152
-0.767778
-0.764728
-0.762125
-0.760074
-0.758661
-0.757939
-0.761127
-0.761719
-0.762878
-0.76456
-0.766697
-0.769202
-0.771974
-0.774905
-0.77788
-0.780785
-0.783508
-0.785948
-0.788016
-0.789635
-0.790748
-0.791315
-0.791315
-0.790748
-0.789635
-0.788016
-0.785948
-0.783508
-0.780785
-0.77788
-0.774905
-0.771974
-0.769202
-0.766697
-0.76456
-0.762878
-0.761718
-0.761127
-0.763759
-0.764245
-0.765196
-0.766577
-0.768332
-0.77039
-0.77267
-0.775081
-0.777531
-0.779925
-0.782171
-0.784185
-0.785893
-0.787231
-0.788151
-0.78862
-0.78862
-0.788151
-0.787231
-0.785893
-0.784185
-0.782171
-0.779925
-0.777531
-0.775081
-0.77267
-0.77039
-0.768332
-0.766577
-0.765196
-0.764245
-0.763759
-0.765932
-0.766331
-0.767112
-0.768246
-0.769688
-0.771379
-0.773254
-0.775239
-0.777256
-0.779229
-0.781081
-0.782743
-0.784152
-0.785258
-0.786018
-0.786405
-0.786405
-0.786018
-0.785258
-0.784152
-0.782743
-0.781081
-0.779229
-0.777256
-0.775239
-0.773254
-0.771379
-0.769688
-0.768246
-0.767112
-0.766331
-0.765932
-0.767725
-0.768053
-0.768694
-0.769626
-0.770811
-0.772202
-0.773744
-0.775377
-0.777039
-0.778663
-0.78019
-0.781561
-0.782724
-0.783636
-0.784264
-0.784584
-0.784584
-0.784264
-0.783636
-0.782724
-0.781561
-0.78019
-0.778664
-0.777039
-0.775377
-0.773744
-0.772202
-0.770811
-0.769626
-0.768694
-0.768053
-0.767725
-0.769204
-0.769473
-0.77
-0.770766
-0.77174
-0.772884
-0.774153
-0.775497
-0.776865
-0.778204
-0.779462
-0.780592
-0.781552
-0.782304
-0.782822
-0.783086
-0.783086
-0.782822
-0.782304
-0.781552
-0.780592
-0.779462
-0.778204
-0.776865
-0.775497
-0.774153
-0.772884
-0.77174
-0.770766
-0.77
-0.769473
-0.769204
-0.770423
-0.770644
-0.771077
-0.771707
-0.772508
-0.773449
-0.774493
-0.7756
-0.776726
-0.777829
-0.778866
-0.779797
-0.780589
-0.781209
-0.781637
-0.781854
-0.781854
-0.781637
-0.781209
-0.780589
-0.779797
-0.778866
-0.777829
-0.776726
-0.7756
-0.774493
-0.773449
-0.772508
-0.771707
-0.771077
-0.770644
-0.770423
-0.771428
-0.77161
-0.771966
-0.772484
-0.773143
-0.773917
-0.774776
-0.775687
-0.776614
-0.777523
-0.778377
-0.779145
-0.779797
-0.780309
-0.780661
-0.780841
-0.780841
-0.780661
-0.780309
-0.779797
-0.779145
-0.778377
-0.777523
-0.776614
-0.775687
-0.774776
-0.773917
-0.773143
-0.772484
-0.771966
-0.771609
-0.771428
-0.772256
-0.772405
-0.772698
-0.773124
-0.773666
-0.774303
-0.77501
-0.77576
-0.776524
-0.777272
-0.777976
-0.778609
-0.779147
-0.779569
-0.779859
-0.780007
-0.780007
-0.779859
-0.779569
-0.779147
-0.778609