/*--------------------------------*- C++ -*----------------------------------*\
  =========                 |
  \\      /  F ield         | OpenFOAM: The Open Source CFD Toolbox
   \\    /   O peration     | Website:  https://openfoam.org
    \\  /    A nd           | Version:  9
     \\/     M anipulation  |
\*---------------------------------------------------------------------------*/
FoamFile
{
    format      ascii;
    class       surfaceScalarField;
    location    "0.55";
    object      phi;
}
// * * * * * * * * * * * * * * * * * * * * * * * * * * * * * * * * * * * * * //

dimensions      [0 3 -1 0 0 0 0];

internalField   nonuniform List<scalar> 
8032
(
-1.348e-07
1.34981e-07
-2.68384e-07
1.31383e-07
-3.90993e-07
1.22716e-07
-4.99069e-07
1.08215e-07
-5.8824e-07
8.92881e-08
-6.54856e-07
6.66993e-08
-6.9626e-07
4.14589e-08
-7.10793e-07
1.45679e-08
-6.97852e-07
-1.29171e-08
-6.57912e-07
-3.99224e-08
-5.92503e-07
-6.53958e-08
-5.04147e-07
-8.83452e-08
-3.9626e-07
-1.07878e-07
-2.73018e-07
-1.23234e-07
-1.39196e-07
-1.33816e-07
2.34706e-11
-1.39213e-07
1.39244e-07
-1.39215e-07
2.7307e-07
-1.33822e-07
3.96317e-07
-1.23243e-07
5.04209e-07
-1.07889e-07
5.92568e-07
-8.83563e-08
6.57975e-07
-6.54046e-08
6.97903e-07
-3.99256e-08
7.10816e-07
-1.29105e-08
6.9623e-07
1.45884e-08
6.54735e-07
4.14972e-08
5.8798e-07
6.67573e-08
4.98622e-07
8.93602e-08
3.90257e-07
1.08366e-07
2.67355e-07
1.22904e-07
1.35213e-07
1.32145e-07
1.35214e-07
-1.42532e-07
2.77426e-07
-2.82383e-07
2.7123e-07
-4.11944e-07
2.52353e-07
-5.26101e-07
2.22476e-07
-6.20189e-07
1.8347e-07
-6.90487e-07
1.37068e-07
-7.34182e-07
8.52037e-08
-7.49529e-07
2.99476e-08
-7.35895e-07
-2.65274e-08
-6.93785e-07
-8.20152e-08
-6.24813e-07
-1.34354e-07
-5.31641e-07
-1.81506e-07
-4.17872e-07
-2.21638e-07
-2.8791e-07
-2.53188e-07
-1.46789e-07
-2.7493e-07
2.1901e-11
-2.86019e-07
1.46834e-07
-2.86023e-07
2.87958e-07
-2.74942e-07
4.17925e-07
-2.53206e-07
5.317e-07
-2.2166e-07
6.24876e-07
-1.81529e-07
6.93849e-07
-1.34374e-07
7.35954e-07
-8.20275e-08
7.49571e-07
-2.65249e-08
7.3419e-07
2.99717e-08
6.90434e-07
8.52554e-08
6.20042e-07
1.37152e-07
5.25815e-07
1.83589e-07
4.1154e-07
2.22643e-07
2.81913e-07
2.52534e-07
1.4253e-07
2.7153e-07
2.77747e-07
-1.542e-07
4.31548e-07
-3.05091e-07
4.22083e-07
-4.4523e-07
3.92514e-07
-5.6872e-07
3.46023e-07
-6.70512e-07
2.85324e-07
-7.4655e-07
2.13158e-07
-7.93811e-07
1.32504e-07
-8.10413e-07
4.65786e-08
-7.95678e-07
-4.12412e-08
-7.50153e-07
-1.27525e-07
-6.75584e-07
-2.0891e-07
-5.74849e-07
-2.8223e-07
-4.51844e-07
-3.44633e-07
-3.11331e-07
-3.93693e-07
-1.58754e-07
-4.27501e-07
-2.35242e-11
-4.44743e-07
1.58707e-07
-4.44748e-07
3.11286e-07
-4.27516e-07
4.51802e-07
-3.93717e-07
5.74808e-07
-3.44663e-07
6.75544e-07
-2.82262e-07
7.5011e-07
-2.08938e-07
7.95627e-07
-1.27542e-07
8.10346e-07
-4.1241e-08
7.93715e-07
4.66048e-08
7.4641e-07
1.32563e-07
6.7031e-07
2.13254e-07
5.68444e-07
2.85458e-07
4.44905e-07
3.46183e-07
3.04777e-07
3.92665e-07
1.54102e-07
4.22209e-07
4.31849e-07
-1.71175e-07
6.02666e-07
-3.38474e-07
5.89342e-07
-4.94027e-07
5.4807e-07
-6.31123e-07
4.83149e-07
-7.44142e-07
3.98383e-07
-8.28564e-07
2.97616e-07
-8.81037e-07
1.85007e-07
-8.99476e-07
6.5041e-08
-8.83132e-07
-5.75675e-08
-8.32611e-07
-1.7803e-07
-7.49855e-07
-2.91655e-07
-6.38056e-07
-3.94019e-07
-5.01538e-07
-4.81143e-07
-3.45587e-07
-5.49637e-07
-1.76245e-07
-5.96837e-07
-7.37456e-11
-6.20909e-07
1.76097e-07
-6.20914e-07
3.45439e-07
-5.96854e-07
5.01389e-07
-5.49663e-07
6.37904e-07
-4.81175e-07
7.49698e-07
-3.94053e-07
8.32447e-07
-2.91684e-07
8.82954e-07
-1.78047e-07
8.99281e-07
-5.7565e-08
8.80817e-07
6.50709e-08
8.28313e-07
1.8507e-07
7.43857e-07
2.97713e-07
6.3081e-07
3.98506e-07
4.93718e-07
4.83277e-07
3.38219e-07
5.48166e-07
1.7102e-07
5.89409e-07
6.02872e-07
-1.94364e-07
7.96968e-07
-3.84325e-07
7.79267e-07
-5.60967e-07
7.24705e-07
-7.16679e-07
6.38874e-07
-8.45063e-07
5.2679e-07
-9.4097e-07
3.93547e-07
-1.00059e-06
2.44647e-07
-1.02155e-06
8.60225e-08
-1.00301e-06
-7.60966e-08
-9.45646e-07
-2.35379e-07
-8.51669e-07
-3.85621e-07
-7.24703e-07
-5.20976e-07
-5.69659e-07
-6.3618e-07
-3.92539e-07
-7.2675e-07
-2.00207e-07
-7.89163e-07
-1.17489e-10
-8.20992e-07
1.99971e-07
-8.20998e-07
3.92301e-07
-7.8918e-07
5.69417e-07
-7.26775e-07
7.24456e-07
-6.3621e-07
8.51413e-07
-5.21007e-07
9.45379e-07
-3.85647e-07
1.00273e-06
-2.35392e-07
1.02125e-06
-7.60894e-08
1.00027e-06
8.60556e-08
9.40633e-07
2.44709e-07
8.44714e-07
3.93634e-07
7.16332e-07
5.2689e-07
5.6065e-07
6.38961e-07
3.8407e-07
7.24748e-07
1.94207e-07
7.79276e-07
7.9708e-07
-2.24812e-07
1.02176e-06
-4.4456e-07
9.98992e-07
-6.48916e-07
9.29052e-07
-8.29076e-07
8.1904e-07
-9.77635e-07
6.75363e-07
-1.08863e-06
5.04555e-07
-1.15764e-06
3.13675e-07
-1.18193e-06
1.10324e-07
-1.1605e-06
-9.751e-08
-1.09416e-06
-3.01712e-07
-9.85443e-07
-4.94327e-07
-8.3855e-07
-6.67861e-07
-6.59161e-07
-8.15562e-07
-4.54222e-07
-9.31682e-07
-2.31677e-07
-1.0117e-06
-1.52564e-10
-1.05251e-06
2.3137e-07
-1.05252e-06
4.53913e-07
-1.01172e-06
6.58847e-07
-9.31705e-07
8.38229e-07
-8.15589e-07
9.85112e-07
-6.67888e-07
1.09382e-06
-4.94348e-07
1.16014e-06
-3.01719e-07
1.18156e-06
-9.74995e-08
1.15726e-06
1.10356e-07
1.08824e-06
3.13729e-07
9.77253e-07
5.04624e-07
8.28716e-07
6.75428e-07
6.48603e-07
8.19077e-07
4.4432e-07
9.29033e-07
2.24671e-07
9.98925e-07
1.02175e-06
-2.63757e-07
1.28548e-06
-5.21588e-07
1.2568e-06
-7.61377e-07
1.16883e-06
-9.72793e-07
1.03046e-06
-1.14715e-06
8.49724e-07
-1.27743e-06
6.3485e-07
-1.35846e-06
3.94714e-07
-1.387e-06
1.38881e-07
-1.3619e-06
-1.22601e-07
-1.28408e-06
-3.79523e-07
-1.15653e-06
-6.21876e-07
-9.84153e-07
-8.40228e-07
-7.73629e-07
-1.02608e-06
-5.33108e-07
-1.1722e-06
-2.71915e-07
-1.27289e-06
-1.79858e-10
-1.32424e-06
2.71554e-07
-1.32425e-06
5.32745e-07
-1.27291e-06
7.73261e-07
-1.17222e-06
9.83778e-07
-1.0261e-06
1.15614e-06
-8.40251e-07
1.28369e-06
-6.21893e-07
1.3615e-06
-3.79529e-07
1.3866e-06
-1.22592e-07
1.35805e-06
1.38907e-07
1.27703e-06
3.94752e-07
1.14676e-06
6.34891e-07
9.72442e-07
8.49749e-07
7.6108e-07
1.03044e-06
5.21366e-07
1.16875e-06
2.63631e-07
1.25667e-06
1.28538e-06
-3.12695e-07
1.59817e-06
-6.18386e-07
1.56248e-06
-9.02701e-07
1.45314e-06
-1.1534e-06
1.28115e-06
-1.36017e-06
1.0565e-06
-1.5147e-06
7.8939e-07
-1.61084e-06
4.9086e-07
-1.64475e-06
1.72799e-07
-1.61504e-06
-1.52303e-07
-1.5228e-06
-4.71751e-07
-1.37157e-06
-7.73101e-07
-1.16718e-06
-1.04462e-06
-9.17517e-07
-1.27573e-06
-6.32268e-07
-1.45744e-06
-3.22489e-07
-1.58267e-06
-2.00731e-10
-1.64653e-06
3.22086e-07
-1.64653e-06
6.31863e-07
-1.58268e-06
9.17109e-07
-1.45746e-06
1.16676e-06
-1.27575e-06
1.37115e-06
-1.04464e-06
1.52238e-06
-7.73117e-07
1.61461e-06
-4.71759e-07
1.64432e-06
-1.523e-07
1.61042e-06
1.72811e-07
1.5143e-06
4.90875e-07
1.35979e-06
7.89397e-07
1.15307e-06
1.05648e-06
9.02432e-07
1.28108e-06
6.18191e-07
1.45299e-06
3.12588e-07
1.56227e-06
1.59798e-06
-3.73509e-07
1.97165e-06
-7.38661e-07
1.92762e-06
-1.0783e-06
1.79277e-06
-1.3778e-06
1.58065e-06
-1.62486e-06
1.30355e-06
-1.80953e-06
9.74067e-07
-1.92446e-06
6.05792e-07
-1.96505e-06
2.13396e-07
-1.92963e-06
-1.87716e-07
-1.8195e-06
-5.8188e-07
-1.63885e-06
-9.53737e-07
-1.39466e-06
-1.2888e-06
-1.09637e-06
-1.57402e-06
-7.55522e-07
-1.79828e-06
-3.85348e-07
-1.95284e-06
-2.16515e-10
-2.03165e-06
3.84914e-07
-2.03166e-06
7.55088e-07
-1.95285e-06
1.09593e-06
-1.7983e-06
1.39423e-06
-1.57405e-06
1.63842e-06
-1.28883e-06
1.81906e-06
-9.53758e-07
1.9292e-06
-5.81896e-07
1.96462e-06
-1.87727e-07
1.92405e-06
2.13388e-07
1.80915e-06
6.05779e-07
1.62451e-06
9.74035e-07
1.3775e-06
1.30349e-06
1.07806e-06
1.58052e-06
7.38489e-07
1.79256e-06
3.73416e-07
1.92735e-06
1.97139e-06
-4.48502e-07
2.42015e-06
-8.86987e-07
2.3661e-06
-1.29486e-06
2.20064e-06
-1.65456e-06
1.94035e-06
-1.95131e-06
1.60031e-06
-2.17317e-06
1.19593e-06
-2.3113e-06
7.43921e-07
-2.36016e-06
2.62257e-07
-2.31772e-06
-2.30148e-07
-2.18553e-06
-7.14068e-07
-1.96862e-06
-1.17064e-06
-1.67535e-06
-1.58207e-06
-1.31705e-06
-1.93232e-06
-9.07607e-07
-2.20772e-06
-4.62908e-07
-2.39753e-06
-2.28567e-10
-2.49433e-06
4.62451e-07
-2.49434e-06
9.0715e-07
-2.39755e-06
1.3166e-06
-2.20775e-06
1.6749e-06
-1.93235e-06
1.96817e-06
-1.5821e-06
2.18508e-06
-1.17067e-06
2.31729e-06
-7.14098e-07
2.35974e-06
-2.30178e-07
2.3109e-06
2.62223e-07
2.17281e-06
7.43874e-07
1.95099e-06
1.19586e-06
1.65429e-06
1.60019e-06
1.29464e-06
1.94016e-06
8.8684e-07
2.20037e-06
4.48423e-07
2.36576e-06
2.41982e-06
-5.40527e-07
2.96067e-06
-1.06899e-06
2.89456e-06
-1.56059e-06
2.69223e-06
-1.99418e-06
2.37393e-06
-2.35194e-06
1.95806e-06
-2.61947e-06
1.46347e-06
-2.7861e-06
9.10554e-07
-2.84515e-06
3.21302e-07
-2.79413e-06
-2.81157e-07
-2.6349e-06
-8.73299e-07
-2.3735e-06
-1.43203e-06
-2.01999e-06
-1.93558e-06
-1.58803e-06
-2.36428e-06
-1.09436e-06
-2.70139e-06
-5.58149e-07
-2.93374e-06
-2.38243e-10
-3.05224e-06
5.57673e-07
-3.05225e-06
1.09389e-06
-2.93376e-06
1.58756e-06
-2.70142e-06
2.01953e-06
-2.36431e-06
2.37305e-06
-1.93562e-06
2.63446e-06
-1.43208e-06
2.79371e-06
-8.73348e-07
2.84474e-06
-2.81212e-07
2.78573e-06
3.21237e-07
2.61913e-06
9.10469e-07
2.35164e-06
1.46335e-06
1.99393e-06
1.95789e-06
1.5604e-06
2.37369e-06
1.06886e-06
2.69191e-06
5.40458e-07
2.89417e-06
2.96027e-06
-6.53058e-07
3.61372e-06
-1.29157e-06
3.53307e-06
-1.88558e-06
3.28623e-06
-2.40954e-06
2.89789e-06
-2.84195e-06
2.39047e-06
-3.1654e-06
1.78692e-06
-3.36695e-06
1.11211e-06
-3.43851e-06
3.92865e-07
-3.37707e-06
-3.426e-07
-3.1848e-06
-1.06557e-06
-2.869e-06
-1.74783e-06
-2.4418e-06
-2.36277e-06
-1.91971e-06
-2.88637e-06
-1.32296e-06
-3.29814e-06
-6.7473e-07
-3.58197e-06
-2.46815e-10
-3.72672e-06
6.74237e-07
-3.72673e-06
1.32247e-06
-3.58199e-06
1.91922e-06
-3.29818e-06
2.44133e-06
-2.88641e-06
2.86854e-06
-2.36283e-06
3.18435e-06
-1.74789e-06
3.37664e-06
-1.06564e-06
3.43812e-06
-3.42684e-07
3.36659e-06
3.92764e-07
3.16508e-06
1.11198e-06
2.84167e-06
1.78676e-06
2.40932e-06
2.39025e-06
1.88541e-06
2.8976e-06
1.29146e-06
3.28586e-06
6.52998e-07
3.53262e-06
3.61327e-06
-7.90354e-07
4.40406e-06
-1.56313e-06
4.30583e-06
-2.2821e-06
4.0052e-06
-2.91638e-06
3.53217e-06
-3.43993e-06
2.91402e-06
-3.83168e-06
2.17867e-06
-4.07594e-06
1.35637e-06
-4.16287e-06
4.79796e-07
-4.08878e-06
-4.16691e-07
-3.85626e-06
-1.29808e-06
-3.4741e-06
-2.12999e-06
-2.95696e-06
-2.87991e-06
-2.32482e-06
-3.51851e-06
-1.60218e-06
-4.02078e-06
-8.17135e-07
-4.36701e-06
-2.55384e-10
-4.5436e-06
8.16626e-07
-4.54361e-06
1.60167e-06
-4.36704e-06
2.32432e-06
-4.02082e-06
2.95648e-06
-3.51857e-06
3.47363e-06
-2.87998e-06
3.85581e-06
-2.13007e-06
4.08835e-06
-1.29818e-06
4.16248e-06
-4.16808e-07
4.07559e-06
4.79657e-07
3.83137e-06
1.3562e-06
3.43967e-06
2.17845e-06
2.91617e-06
2.91375e-06
2.28194e-06
3.53183e-06
1.56302e-06
4.00478e-06
7.90299e-07
4.30535e-06
4.40357e-06
-9.57582e-07
5.36165e-06
-1.89391e-06
5.24216e-06
-2.76513e-06
4.87641e-06
-3.53385e-06
4.30089e-06
-4.16852e-06
3.54869e-06
-4.64359e-06
2.65374e-06
-4.94002e-06
1.6528e-06
-5.04581e-06
5.85592e-07
-4.95644e-06
-5.06069e-07
-4.67496e-06
-1.57956e-06
-4.212e-06
-2.59295e-06
-3.58526e-06
-3.50664e-06
-2.81895e-06
-4.28482e-06
-1.94278e-06
-4.89695e-06
-9.9085e-07
-5.31894e-06
-2.64846e-10
-5.53418e-06
9.90323e-07
-5.5342e-06
1.94226e-06
-5.31897e-06
2.81844e-06
-4.897e-06
3.58476e-06
-4.2849e-06
4.21152e-06
-3.50673e-06
4.67451e-06
-2.59307e-06
4.95601e-06
-1.57969e-06
5.04542e-06
-5.06222e-07
4.93967e-06
5.85412e-07
4.64329e-06
1.65259e-06
4.16826e-06
2.65348e-06
3.53365e-06
3.54837e-06
2.76498e-06
4.3005e-06
1.89381e-06
4.87595e-06
9.5753e-07
5.24163e-06
5.3611e-06
-1.16104e-06
6.52267e-06
-2.29636e-06
6.37748e-06
-3.35287e-06
5.93292e-06
-4.28526e-06
5.23327e-06
-5.05527e-06
4.3187e-06
-5.63191e-06
3.23038e-06
-5.99203e-06
2.01291e-06
-6.12099e-06
7.14551e-07
-6.01319e-06
-6.13866e-07
-5.67227e-06
-1.92047e-06
-5.11101e-06
-3.15422e-06
-4.35085e-06
-4.2668e-06
-3.42113e-06
-5.21455e-06
-2.3579e-06
-5.96017e-06
-1.20258e-06
-6.47426e-06
-2.75892e-10
-6.73649e-06
1.20203e-06
-6.7365e-06
2.35736e-06
-6.4743e-06
3.42059e-06
-5.96024e-06
4.35034e-06
-5.21464e-06
5.11052e-06
-4.26691e-06
5.67181e-06
-3.15435e-06
6.01275e-06
-1.92063e-06
6.12059e-06
-6.14057e-07
5.99167e-06
7.14327e-07
5.63161e-06
2.01265e-06
5.05502e-06
3.23006e-06
4.28505e-06
4.31833e-06
3.35272e-06
5.23283e-06
2.29626e-06
5.93241e-06
1.16099e-06
6.37691e-06
6.52209e-06
-1.40835e-06
7.93103e-06
-2.7856e-06
7.75472e-06
-4.06742e-06
7.21473e-06
-5.1989e-06
6.36475e-06
-6.13367e-06
5.25347e-06
-6.83407e-06
3.93077e-06
-7.27191e-06
2.45076e-06
-7.42934e-06
8.71979e-07
-7.29941e-06
-7.43792e-07
-6.88641e-06
-2.33348e-06
-6.2057e-06
-3.83492e-06
-5.28325e-06
-5.18926e-06
-4.1546e-06
-6.3432e-06
-2.86358e-06
-7.25119e-06
-1.46052e-06
-7.87732e-06
-2.89049e-10
-8.19673e-06
1.45995e-06
-8.19674e-06
2.86301e-06
-7.87736e-06
4.15405e-06
-7.25127e-06
5.28271e-06
-6.3433e-06
6.20519e-06
-5.18939e-06
6.88592e-06
-3.83509e-06
7.29896e-06
-2.33368e-06
7.42893e-06
-7.44024e-07
7.27155e-06
8.7171e-07
6.83375e-06
2.45044e-06
6.13341e-06
3.9304e-06
5.1987e-06
5.25304e-06
4.06727e-06
6.36426e-06
2.7855e-06
7.21417e-06
1.4083e-06
7.7541e-06
7.93039e-06
-1.70877e-06
9.63979e-06
-3.37994e-06
9.42588e-06
-4.93557e-06
8.77036e-06
-6.30913e-06
7.73831e-06
-7.44436e-06
6.3887e-06
-8.2955e-06
4.7819e-06
-8.82824e-06
2.98349e-06
-9.02071e-06
1.06445e-06
-8.86429e-06
-9.00215e-07
-8.36396e-06
-2.83381e-06
-7.53821e-06
-4.66067e-06
-6.41843e-06
-6.30903e-06
-5.04777e-06
-7.71386e-06
-3.47944e-06
-8.81952e-06
-1.77469e-06
-9.58207e-06
-3.04704e-10
-9.97111e-06
1.77408e-06
-9.97113e-06
3.47884e-06
-9.58212e-06
5.04718e-06
-8.81962e-06
6.41787e-06
-7.71399e-06
7.53767e-06
-6.3092e-06
8.36345e-06
-4.66087e-06
8.86382e-06
-2.83405e-06
9.02028e-06
-9.00491e-07
8.82786e-06
1.06413e-06
8.29517e-06
2.98313e-06
7.44409e-06
4.78149e-06
6.30891e-06
6.38822e-06
4.9354e-06
7.73777e-06
3.37983e-06
8.76974e-06
1.70872e-06
9.42522e-06
9.63911e-06
-2.07349e-06
1.17133e-05
-4.10153e-06
1.14539e-05
-5.98976e-06
1.06586e-05
-7.65754e-06
9.40609e-06
-9.03663e-06
7.76778e-06
-1.00714e-05
5.81667e-06
-1.072e-05
3.63211e-06
-1.09557e-05
1.30013e-06
-1.07677e-05
-1.08824e-06
-1.01617e-05
-3.4398e-06
-9.15994e-06
-5.66242e-06
-7.80037e-06
-7.6686e-06
-6.1353e-06
-9.37893e-06
-4.22944e-06
-1.07254e-05
-2.15732e-06
-1.16542e-05
-3.23166e-10
-1.21281e-05
2.15667e-06
-1.21281e-05
4.2288e-06
-1.16543e-05
6.13468e-06
-1.07255e-05
7.79977e-06
-9.37908e-06
9.15937e-06
-7.66879e-06
1.01612e-05
-5.66266e-06
1.07672e-05
-3.44008e-06
1.09553e-05
-1.08857e-06
1.07196e-05
1.29977e-06
1.00711e-05
3.63169e-06
9.03634e-06
5.8162e-06
7.65731e-06
7.76724e-06
5.98959e-06
9.40549e-06
4.10142e-06
1.06579e-05
2.07343e-06
1.14532e-05
1.17125e-05
-2.51604e-06
1.42293e-05
-4.9772e-06
1.39151e-05
-7.26924e-06
1.29506e-05
-9.29451e-06
1.14314e-05
-1.09702e-05
9.44346e-06
-1.22287e-05
7.07515e-06
-1.30189e-05
4.42235e-06
-1.3308e-05
1.58923e-06
-1.30825e-05
-1.3138e-06
-1.23488e-05
-4.17347e-06
-1.11336e-05
-6.87761e-06
-9.48273e-06
-9.31949e-06
-7.45959e-06
-1.14021e-05
-5.14288e-06
-1.30421e-05
-2.62339e-06
-1.41737e-05
-3.44673e-10
-1.47512e-05
2.6227e-06
-1.47512e-05
5.1422e-06
-1.41738e-05
7.45893e-06
-1.30422e-05
9.48209e-06
-1.14022e-05
1.1133e-05
-9.31971e-06
1.23482e-05
-6.87788e-06
1.30819e-05
-4.17379e-06
1.33075e-05
-1.31417e-06
1.30185e-05
1.58881e-06
1.22283e-05
4.42187e-06
1.09699e-05
7.07462e-06
9.29426e-06
9.44286e-06
7.26906e-06
1.14307e-05
4.97707e-06
1.29499e-05
2.51597e-06
1.39143e-05
1.42285e-05
-3.05273e-06
1.7282e-05
-6.03928e-06
1.69016e-05
-8.82143e-06
1.57328e-05
-1.12809e-05
1.38909e-05
-1.33174e-05
1.14799e-05
-1.48484e-05
8.60624e-06
-1.58119e-05
5.3858e-06
-1.61672e-05
1.94455e-06
-1.58974e-05
-1.58366e-06
-1.50096e-05
-5.06119e-06
-1.35358e-05
-8.35147e-06
-1.15311e-05
-1.13242e-05
-9.07248e-06
-1.38607e-05
-6.25563e-06
-1.5859e-05
-3.19123e-06
-1.72381e-05
-3.69436e-10
-1.7942e-05
3.1905e-06
-1.7942e-05
6.25491e-06
-1.72382e-05
9.07177e-06
-1.58591e-05
1.15304e-05
-1.38609e-05
1.35351e-05
-1.13244e-05
1.5009e-05
-8.35177e-06
1.58968e-05
-5.06156e-06
1.61667e-05
-1.58408e-06
1.58114e-05
1.94408e-06
1.4848e-05
5.38526e-06
1.3317e-05
8.60565e-06
1.12807e-05
1.14792e-05
8.82123e-06
1.38901e-05
6.03914e-06
1.5732e-05
3.05266e-06
1.69008e-05
1.72812e-05
-3.70324e-06
2.09853e-05
-7.32677e-06
2.05252e-05
-1.07035e-05
1.91095e-05
-1.36904e-05
1.68777e-05
-1.61655e-05
1.3955e-05
-1.80289e-05
1.04697e-05
-1.92045e-05
6.56132e-06
-1.96422e-05
2.38224e-06
-1.93204e-05
-1.90543e-06
-1.82471e-05
-6.13449e-06
-1.646e-05
-1.01386e-05
-1.40257e-05
-1.37585e-05
-1.10375e-05
-1.68489e-05
-7.61168e-06
-1.92847e-05
-3.88334e-06
-2.09664e-05
-3.97631e-10
-2.1825e-05
3.88255e-06
-2.1825e-05
7.6109e-06
-2.09665e-05
1.10367e-05
-1.92849e-05
1.4025e-05
-1.68492e-05
1.64593e-05
-1.37588e-05
1.82464e-05
-1.01389e-05
1.93198e-05
-6.1349e-06
1.96416e-05
-1.90591e-06
1.9204e-05
2.3817e-06
1.80285e-05
6.56072e-06
1.61651e-05
1.0469e-05
1.36901e-05
1.39543e-05
1.07033e-05
1.68769e-05
7.32662e-06
1.91086e-05
3.70316e-06
2.05242e-05
2.09843e-05
-4.4912e-06
2.54765e-05
-8.8866e-06
2.49205e-05
-1.29844e-05
2.32073e-05
-1.66114e-05
2.05048e-05
-1.96202e-05
1.69638e-05
-2.1889e-05
1.27385e-05
-2.33246e-05
7.99685e-06
-2.38651e-05
2.92278e-06
-2.3483e-05
-2.2875e-06
-2.21866e-05
-7.4309e-06
-2.00205e-05
-1.23047e-05
-1.70648e-05
-1.67142e-05
-1.34324e-05
-2.04814e-05
-9.26499e-06
-2.34522e-05
-4.72735e-06
-2.55041e-05
-4.2942e-10
-2.65519e-05
4.72649e-06
-2.65519e-05
9.26414e-06
-2.55042e-05
1.34316e-05
-2.34523e-05
1.7064e-05
-2.04816e-05
2.00198e-05
-1.67145e-05
2.21859e-05
-1.2305e-05
2.34824e-05
-7.43136e-06
2.38645e-05
-2.28804e-06
2.3324e-05
2.92218e-06
2.18886e-05
7.99618e-06
1.96198e-05
1.27377e-05
1.66111e-05
1.6963e-05
1.29841e-05
2.05039e-05
8.88643e-06
2.32063e-05
4.49112e-06
2.49195e-05
2.54755e-05
-5.445e-06
3.09215e-05
-1.07751e-05
3.02506e-05
-1.57467e-05
2.81789e-05
-2.0151e-05
2.4909e-05
-2.38089e-05
2.06217e-05
-2.65724e-05
1.5502e-05
-2.83272e-05
9.75166e-06
-2.89967e-05
3.59231e-06
-2.85455e-05
-2.73874e-06
-2.69816e-05
-8.99484e-06
-2.43574e-05
-1.49289e-05
-2.07689e-05
-2.03027e-05
-1.63529e-05
-2.48973e-05
-1.12819e-05
-2.85232e-05
-5.75724e-06
-3.10288e-05
-4.64936e-10
-3.23087e-05
5.75631e-06
-3.23087e-05
1.1281e-05
-3.10289e-05
1.6352e-05
-2.85234e-05
2.0768e-05
-2.48976e-05
2.43565e-05
-2.0303e-05
2.69808e-05
-1.49293e-05
2.85448e-05
-8.99536e-06
2.89961e-05
-2.73933e-06
2.83266e-05
3.59164e-06
2.65719e-05
9.75091e-06
2.38084e-05
1.55011e-05
2.01506e-05
2.06208e-05
1.57465e-05
2.4908e-05
1.07749e-05
2.81779e-05
5.44491e-06
3.02495e-05
3.09204e-05
-6.59858e-06
3.752e-05
-1.30597e-05
3.67117e-05
-1.90899e-05
3.42092e-05
-2.44372e-05
3.02562e-05
-2.88848e-05
2.50694e-05
-3.22525e-05
1.88697e-05
-3.44001e-05
1.18992e-05
-3.52322e-05
4.42443e-06
-3.47029e-05
-3.268e-06
-3.28191e-05
-1.08787e-05
-2.96419e-05
-1.81061e-05
-2.5286e-05
-2.46586e-05
-1.99168e-05
-3.02665e-05
-1.37444e-05
-3.46956e-05
-7.01497e-06
-3.77582e-05
-5.0428e-10
-3.93231e-05
7.01397e-06
-3.93232e-05
1.37434e-05
-3.77583e-05
1.99158e-05
-3.46958e-05
2.5285e-05
-3.02668e-05
2.9641e-05
-2.4659e-05
3.28183e-05
-1.81066e-05
3.47021e-05
-1.08792e-05
3.52315e-05
-3.26866e-06
3.43994e-05
4.42369e-06
3.22519e-05
1.18984e-05
2.88843e-05
1.88688e-05
2.44368e-05
2.50684e-05
1.90896e-05
3.02551e-05
1.30595e-05
3.4208e-05
6.59848e-06
3.67105e-05
3.75188e-05
-7.99242e-06
4.55125e-05
-1.58209e-05
4.45402e-05
-2.31326e-05
4.15209e-05
-2.96237e-05
3.67473e-05
-3.50322e-05
3.04778e-05
-3.91385e-05
2.2976e-05
-4.17703e-05
1.4531e-05
-4.28085e-05
5.46265e-06
-4.21932e-05
-3.8833e-06
-3.99284e-05
-1.31435e-05
-3.60845e-05
-2.19501e-05
-3.07982e-05
-2.99449e-05
-2.42692e-05
-3.67955e-05
-1.67534e-05
-4.22114e-05
-8.55246e-06
-4.59591e-05
-5.47498e-10
-4.7875e-05
8.55136e-06
-4.78751e-05
1.67523e-05
-4.59592e-05
2.42681e-05
-4.22117e-05
3.07972e-05
-3.67958e-05
3.60835e-05
-2.99453e-05
3.99275e-05
-2.19506e-05
4.21924e-05
-1.31441e-05
4.28077e-05
-3.88402e-06
4.17696e-05
5.46183e-06
3.91379e-05
1.45301e-05
3.50316e-05
2.2975e-05
2.96233e-05
3.04767e-05
2.31323e-05
3.67461e-05
1.58207e-05
4.15197e-05
7.9923e-06
4.45389e-05
4.55111e-05
-9.6746e-06
5.5187e-05
-1.91545e-05
5.402e-05
-2.80162e-05
5.03826e-05
-3.58942e-05
4.46253e-05
-4.2472e-05
3.70556e-05
-4.74822e-05
2.79861e-05
-5.07124e-05
1.77613e-05
-5.20135e-05
6.76369e-06
-5.13065e-05
-4.59026e-06
-4.85901e-05
-1.58599e-05
-4.39441e-05
-2.65961e-05
-3.75304e-05
-3.63586e-05
-2.959e-05
-4.4736e-05
-2.04345e-05
-5.13669e-05
-1.04342e-05
-5.59595e-05
-5.94561e-10
-5.83086e-05
1.0433e-05
-5.83087e-05
2.04333e-05
-5.59596e-05
2.95888e-05
-5.13671e-05
3.75293e-05
-4.47363e-05
4.3943e-05
-3.6359e-05
4.85891e-05
-2.65967e-05
5.13056e-05
-1.58606e-05
5.20126e-05
-4.59106e-06
5.07116e-05
6.76279e-06
4.74814e-05
1.77603e-05
4.24714e-05
2.7985e-05
3.58937e-05
3.70544e-05
2.80158e-05
4.4624e-05
1.91542e-05
5.03813e-05
9.67447e-06
5.40186e-05
5.51856e-05
-1.1702e-05
6.6889e-05
-2.31737e-05
6.54918e-05
-3.39085e-05
6.11173e-05
-4.34674e-05
5.41843e-05
-5.14683e-05
4.50565e-05
-5.75857e-05
3.41035e-05
-6.15578e-05
2.17334e-05
-6.31962e-05
8.40213e-06
-6.23967e-05
-5.38977e-06
-5.91483e-05
-1.91083e-05
-5.35394e-05
-3.2205e-05
-4.57608e-05
-4.41372e-05
-3.61023e-05
-5.43945e-05
-2.49439e-05
-6.25253e-05
-1.27405e-05
-6.81628e-05
-6.45316e-10
-7.10485e-05
1.27392e-05
-7.10485e-05
2.49426e-05
-6.8163e-05
3.6101e-05
-6.25255e-05
4.57596e-05
-5.43949e-05
5.35382e-05
-4.41377e-05
5.91471e-05
-3.22056e-05
6.23957e-05
-1.91091e-05
6.31952e-05
-5.39065e-06
6.15569e-05
8.40114e-06
5.75849e-05
2.17322e-05
5.14676e-05
3.41023e-05
4.34668e-05
4.50552e-05
3.3908e-05
5.41828e-05
2.31734e-05
6.11158e-05
1.17018e-05
6.54902e-05
6.68874e-05
-1.41413e-05
8.10303e-05
-2.80121e-05
7.93626e-05
-4.10075e-05
7.41127e-05
-5.26022e-05
6.5779e-05
-6.23357e-05
5.479e-05
-6.98114e-05
4.15793e-05
-7.47058e-05
2.66277e-05
-7.67804e-05
1.04768e-05
-7.5896e-05
-6.27415e-06
-7.20257e-05
-2.29787e-05
-6.52646e-05
-3.89661e-05
-5.58349e-05
-5.35668e-05
-4.40846e-05
-6.61448e-05
-3.04769e-05
-7.61329e-05
-1.55722e-05
-8.30676e-05
-6.99444e-10
-8.662e-05
1.55708e-05
-8.66201e-05
3.04755e-05
-8.30677e-05
4.40832e-05
-7.61332e-05
5.58336e-05
-6.61453e-05
6.52633e-05
-5.35674e-05
7.20245e-05
-3.89668e-05
7.58948e-05
-2.29795e-05
7.67793e-05
-6.27511e-06
7.47047e-05
1.04757e-05
6.98105e-05
2.66265e-05
6.23349e-05
4.15779e-05
5.26016e-05
5.47885e-05
4.1007e-05
6.57774e-05
2.80118e-05
7.41111e-05
1.41411e-05
7.93609e-05
8.10285e-05
-1.70705e-05
9.81007e-05
-3.38255e-05
9.61176e-05
-4.95456e-05
8.98329e-05
-6.36041e-05
7.98375e-05
-7.5447e-05
6.66328e-05
-8.45915e-05
5.07238e-05
-9.06367e-05
3.26729e-05
-9.32794e-05
1.31194e-05
-9.23323e-05
-7.22126e-06
-8.77428e-05
-2.75682e-05
-7.96078e-05
-4.7101e-05
-6.81836e-05
-6.49911e-05
-5.38857e-05
-8.04427e-05
-3.72794e-05
-9.27393e-05
-1.90564e-05
-0.000101291
-7.56342e-10
-0.000105676
1.90549e-05
-0.000105676
3.72779e-05
-0.000101291
5.38843e-05
-9.27396e-05
6.81821e-05
-8.04431e-05
7.96064e-05
-6.49917e-05
8.77414e-05
-4.71018e-05
9.2331e-05
-2.75691e-05
9.32781e-05
-7.22229e-06
9.06355e-05
1.31183e-05
8.45905e-05
3.26716e-05
7.54461e-05
5.07223e-05
6.36034e-05
6.66312e-05
4.95451e-05
7.98357e-05
3.38251e-05
8.9831e-05
1.70703e-05
9.61157e-05
9.80988e-05
-2.05796e-05
0.00011868
-4.07945e-05
0.000116333
-5.97933e-05
0.000108832
-7.68306e-05
9.68748e-05
-9.1242e-05
8.10441e-05
-0.00010244
6.19218e-05
-0.000109927
4.01598e-05
-0.000113315
1.65075e-05
-0.000112351
-8.1854e-06
-0.000106941
-3.29778e-05
-9.71765e-05
-5.68657e-05
-8.33464e-05
-7.88211e-05
-6.59454e-05
-9.78438e-05
-4.56624e-05
-0.000113022
-2.33542e-05
-0.000123599
-8.1503e-10
-0.000129029
2.33526e-05
-0.000129029
4.56608e-05
-0.000123599
6.59438e-05
-0.000113023
8.33448e-05
-9.78442e-05
9.71749e-05
-7.88217e-05
0.00010694
-5.68665e-05
0.000112349
-3.29787e-05
0.000113314
-8.18652e-06
0.000109926
1.65062e-05
0.000102439
4.01583e-05
9.1241e-05
6.19201e-05
7.68298e-05
8.10423e-05
5.97926e-05
9.68729e-05
4.07941e-05
0.00010883
2.05794e-05
0.00011633
0.000118678
-2.47715e-05
0.000143452
-4.91264e-05
0.000140687
-7.20619e-05
0.000131767
-9.26967e-05
0.00011751
-0.000110236
9.8583e-05
-0.000123965
7.56509e-05
-0.000133265
4.94602e-05
-0.000137639
2.08812e-05
-0.000136741
-9.08358e-06
-0.000130414
-3.93042e-05
-0.000118729
-6.85514e-05
-0.000102003
-9.55466e-05
-8.08213e-05
-0.000119026
-5.60227e-05
-0.000137821
-2.8672e-05
-0.000150949
-8.73851e-10
-0.0001577
2.86703e-05
-0.0001577
5.6021e-05
-0.00015095
8.08195e-05
-0.000137821
0.000102002
-0.000119026
0.000118727
-9.55473e-05
0.000130413
-6.85522e-05
0.000136739
-3.93052e-05
0.000137637
-9.08479e-06
0.000133264
2.08798e-05
0.000123964
4.94586e-05
0.000110235
7.56491e-05
9.26958e-05
9.8581e-05
7.20612e-05
0.000117507
4.91259e-05
0.000131765
2.47712e-05
0.000140685
0.000143449
-2.9762e-05
0.000173214
-5.9055e-05
0.00016998
-8.67061e-05
0.000159418
-0.000111679
0.000142482
-0.000133026
0.00011993
-0.00014988
9.25058e-05
-0.000161472
6.10522e-05
-0.000167159
2.65676e-05
-0.000166468
-9.77462e-06
-0.000159146
-4.66262e-05
-0.000145216
-8.24815e-05
-0.000125016
-0.000115747
-9.92264e-05
-0.000144815
-6.88708e-05
-0.000168176
-3.52763e-05
-0.000184544
-9.30327e-10
-0.000192976
3.52745e-05
-0.000192976
6.88689e-05
-0.000184544
9.92245e-05
-0.000168177
0.000125014
-0.000144815
0.000145214
-0.000115747
0.000159144
-8.24823e-05
0.000166466
-4.66272e-05
0.000167157
-9.7759e-06
0.000161471
2.65661e-05
0.000149879
6.10504e-05
0.000133024
9.25037e-05
0.000111678
0.000119928
8.67053e-05
0.00014248
5.90544e-05
0.000159416
2.97617e-05
0.000169978
0.000173211
-3.56791e-05
0.000208893
-7.08402e-05
0.000205141
-0.000104123
0.000192701
-0.000134316
0.000172675
-0.000160298
0.000145912
-0.000181019
0.000113227
-0.00019552
7.55527e-05
-0.000202967
3.40149e-05
-0.000202714
-1.00279e-05
-0.000194358
-5.4982e-05
-0.000177837
-9.90027e-05
-0.000153483
-0.0001401
-0.00012208
-0.000176218
-8.48698e-05
-0.000205387
-4.3515e-05
-0.000225899
-9.80622e-10
-0.00023649
4.3513e-05
-0.00023649
8.48678e-05
-0.000225899
0.000122078
-0.000205387
0.000153481
-0.000176218
0.000177834
-0.000140101
0.000194356
-9.90035e-05
0.000202712
-5.49831e-05
0.000202965
-1.00293e-05
0.000195518
3.40133e-05
0.000181017
7.55507e-05
0.000160296
0.000113225
0.000134314
0.000145909
0.000104122
0.000172672
7.08396e-05
0.000192698
3.56788e-05
0.000205138
0.00020889
-4.26606e-05
0.000251554
-8.47635e-05
0.000247244
-0.000124746
0.000232683
-0.000161207
0.000209136
-0.000192827
0.000177532
-0.000218339
0.00013874
-0.000236548
9.37613e-05
-0.000246372
4.38394e-05
-0.000246924
-9.47683e-06
-0.000237574
-6.43319e-05
-0.000218111
-0.000118465
-0.000188822
-0.000169389
-0.000150581
-0.000214459
-0.000104892
-0.000251076
-5.38475e-05
-0.000276943
-1.01911e-09
-0.000290336
5.38455e-05
-0.000290336
0.000104889
-0.000276943
0.000150578
-0.000251076
0.000188819
-0.00021446
0.000218109
-0.00016939
0.000237571
-0.000118466
0.000246921
-6.4333e-05
0.00024637
-9.47826e-06
0.000236546
4.38377e-05
0.000218337
9.37592e-05
0.000192825
0.000138737
0.000161206
0.000177529
0.000124745
0.000209133
8.47628e-05
0.00023268
4.26602e-05
0.000247241
0.00025155
-5.08496e-05
0.000302403
-0.00010112
0.000297515
-0.000149038
0.000280601
-0.000193002
0.0002531
-0.000231472
0.000216002
-0.000262929
0.000170197
-0.000285885
0.000116717
-0.000298936
5.68907e-05
-0.000300864
-7.54911e-06
-0.000290697
-7.44986e-05
-0.000267979
-0.000141183
-0.000232869
-0.0002045
-0.000186305
-0.000261023
-0.000130096
-0.000307284
-6.68898e-05
-0.000340149
-1.03844e-09
-0.000357225
6.68877e-05
-0.000357225
0.000130094
-0.000340149
0.000186303
-0.000307285
0.000232866
-0.000261023
0.000267977
-0.000204501
0.000290695
-0.000141184
0.000300861
-7.44997e-05
0.000298934
-7.55061e-06
0.000285883
5.68888e-05
0.000262927
0.000116715
0.00023147
0.000170194
0.000193
0.000215999
0.000149037
0.000253097
0.000101119
0.000280597
5.08491e-05
0.000297511
0.000302399
-6.03874e-05
0.00036279
-0.000120205
0.000357332
-0.00017747
0.000337867
-0.00023038
0.000306009
-0.000277158
0.00026278
-0.000315997
0.000209036
-0.000345054
0.000145774
-0.000362502
7.43387e-05
-0.000366691
-3.36015e-06
-0.000356113
-8.50758e-05
-0.000329929
-0.000167367
-0.000288034
-0.000246396
-0.000231359
-0.000317698
-0.000162052
-0.000376591
-8.34796e-05
-0.000418721
-1.02714e-09
-0.000440703
8.34775e-05
-0.000440703
0.000162049
-0.000418721
0.000231356
-0.000376591
0.000288031
-0.000317698
0.000329927
-0.000246396
0.00035611
-0.000167368
0.000366688
-8.50768e-05
0.000362499
-3.36169e-06
0.000345051
7.43367e-05
0.000315995
0.000145771
0.000277156
0.000209033
0.000230378
0.000262777
0.000177469
0.000306006
0.000120204
0.000337862
6.03869e-05
0.000357328
0.000362786
-7.14023e-05
0.000434193
-0.00014229
0.000428219
-0.000210492
0.000406069
-0.000274014
0.000369531
-0.000330843
0.000319609
-0.000378851
0.000257044
-0.000415771
0.000182694
-0.000439226
9.77934e-05
-0.000447016
4.43021e-06
-0.000436807
-9.52845e-05
-0.000407178
-0.000196996
-0.000357512
-0.000296061
-0.000288589
-0.000386621
-0.000202909
-0.000462272
-0.000104776
-0.000516854
-9.68848e-10
-0.000545479
0.000104774
-0.000545479
0.000202906
-0.000516853
0.000288586
-0.000462271
0.000357509
-0.000386621
0.000407175
-0.000296061
0.000436804
-0.000196997
0.000447012
-9.52855e-05
0.000439222
4.42879e-06
0.000415768
9.77911e-05
0.000378848
0.000182691
0.00033084
0.000257041
0.000274012
0.000319605
0.00021049
0.000369527
0.000142288
0.000406064
7.14017e-05
0.000428214
0.000434188
-8.39933e-05
0.000518186
-0.000167594
0.00051182
-0.000248485
0.00048696
-0.000324517
0.000445563
-0.000393456
0.000388548
-0.000452842
0.00031643
-0.000499924
0.000229775
-0.000531689
0.000129559
-0.000544883
1.76243e-05
-0.000536515
-0.000103653
-0.000503905
-0.000229606
-0.000445588
-0.000354379
-0.000361908
-0.000470302
-0.000255671
-0.000568508
-0.000132414
-0.000640111
-8.34196e-10
-0.000677892
0.000132412
-0.000677892
0.000255669
-0.00064011
0.000361905
-0.000568507