/*--------------------------------*- C++ -*----------------------------------*\
  =========                 |
  \\      /  F ield         | OpenFOAM: The Open Source CFD Toolbox
   \\    /   O peration     | Website:  https://openfoam.org
    \\  /    A nd           | Version:  9
     \\/     M anipulation  |
\*---------------------------------------------------------------------------*/
FoamFile
{
    format      ascii;
    class       volVectorField;
    location    "0.55";
    object      U;
}
// * * * * * * * * * * * * * * * * * * * * * * * * * * * * * * * * * * * * * //

dimensions      [0 1 -1 0 0 0 0];

internalField   nonuniform List<vector> 
4096
(
(-2.15303e-05 2.12926e-05 0)
(-6.50169e-05 2.07057e-05 0)
(-0.000106342 1.93834e-05 0)
(-0.000143571 1.70743e-05 0)
(-0.000175462 1.40864e-05 0)
(-0.000200599 1.05215e-05 0)
(-0.000218035 6.53938e-06 0)
(-0.000227064 2.29703e-06 0)
(-0.000227322 -2.03891e-06 0)
(-0.00021879 -6.29933e-06 0)
(-0.000201789 -1.03181e-05 0)
(-0.000176976 -1.39387e-05 0)
(-0.000145307 -1.70203e-05 0)
(-0.000108008 -1.9443e-05 0)
(-6.65229e-05 -2.11125e-05 0)
(-2.24597e-05 -2.1964e-05 0)
(2.24745e-05 -2.19643e-05 0)
(6.65384e-05 -2.11134e-05 0)
(0.000108024 -1.94443e-05 0)
(0.000145325 -1.7022e-05 0)
(0.000176996 -1.39403e-05 0)
(0.00020181 -1.03193e-05 0)
(0.000218808 -6.29945e-06 0)
(0.000227334 -2.03727e-06 0)
(0.000227063 2.3012e-06 0)
(0.00021801 6.54663e-06 0)
(0.000200537 1.05319e-05 0)
(0.000175336 1.40979e-05 0)
(0.000143411 1.70964e-05 0)
(0.000106057 1.93901e-05 0)
(6.49155e-05 2.08479e-05 0)
(2.16452e-05 2.13155e-05 0)
(-2.28565e-05 6.54014e-05 0)
(-6.85049e-05 6.38969e-05 0)
(-0.000111892 5.95229e-05 0)
(-0.000151279 5.24588e-05 0)
(-0.000184902 4.32625e-05 0)
(-0.00021143 3.2317e-05 0)
(-0.000229822 2.00877e-05 0)
(-0.000239349 7.05974e-06 0)
(-0.000239626 -6.25538e-06 0)
(-0.000230634 -1.93378e-05 0)
(-0.000212715 -3.16779e-05 0)
(-0.000186559 -4.27953e-05 0)
(-0.000153176 -5.22574e-05 0)
(-0.000113857 -5.96962e-05 0)
(-7.01261e-05 -6.48226e-05 0)
(-2.36768e-05 -6.74371e-05 0)
(2.36906e-05 -6.74381e-05 0)
(7.01405e-05 -6.48255e-05 0)
(0.000113873 -5.97007e-05 0)
(0.000153193 -5.22629e-05 0)
(0.000186578 -4.28011e-05 0)
(0.000212736 -3.1683e-05 0)
(0.000230654 -1.93406e-05 0)
(0.000239642 -6.25413e-06 0)
(0.000239355 7.06681e-06 0)
(0.000229813 2.01019e-05 0)
(0.000211395 3.23383e-05 0)
(0.00018483 4.32876e-05 0)
(0.000151176 5.24956e-05 0)
(0.000111802 5.95416e-05 0)
(6.84356e-05 6.40203e-05 0)
(2.28198e-05 6.54577e-05 0)
(-2.4697e-05 0.000112429 0)
(-7.40492e-05 0.000110019 0)
(-0.000120952 0.000102307 0)
(-0.000163521 9.01953e-05 0)
(-0.000199893 7.43741e-05 0)
(-0.000228591 5.55623e-05 0)
(-0.000248487 3.45385e-05 0)
(-0.000258792 1.21408e-05 0)
(-0.000259095 -1.07505e-05 0)
(-0.000249375 -3.32414e-05 0)
(-0.000230002 -5.44556e-05 0)
(-0.000201722 -7.35676e-05 0)
(-0.000165628 -8.98339e-05 0)
(-0.000123117 -0.000102622 0)
(-7.58352e-05 -0.000111435 0)
(-2.56144e-05 -0.000115929 0)
(2.5599e-05 -0.000115931 0)
(7.58201e-05 -0.000111439 0)
(0.000123103 -0.000102629 0)
(0.000165614 -8.98426e-05 0)
(0.000201708 -7.3577e-05 0)
(0.000229988 -5.44641e-05 0)
(0.000249359 -3.3247e-05 0)
(0.000259075 -1.07509e-05 0)
(0.000258765 1.2148e-05 0)
(0.000248448 3.45552e-05 0)
(0.000228535 5.55895e-05 0)
(0.000199817 7.44114e-05 0)
(0.000163434 9.02412e-05 0)
(0.000120869 0.000102358 0)
(7.39889e-05 0.00011006 0)
(2.46727e-05 0.000112533 0)
(-2.74117e-05 0.000164067 0)
(-8.21713e-05 0.000160498 0)
(-0.000134212 0.000149265 0)
(-0.00018146 0.000131586 0)
(-0.000221835 0.000108502 0)
(-0.000253699 8.10579e-05 0)
(-0.000275788 5.03877e-05 0)
(-0.000287231 1.77137e-05 0)
(-0.000287571 -1.56801e-05 0)
(-0.000276786 -4.84894e-05 0)
(-0.000255286 -7.94361e-05 0)
(-0.000223901 -0.000107316 0)
(-0.000183842 -0.000131045 0)
(-0.000136661 -0.000149699 0)
(-8.41834e-05 -0.000162555 0)
(-2.84442e-05 -0.000169111 0)
(2.83967e-05 -0.000169113 0)
(8.41358e-05 -0.00016256 0)
(0.000136613 -0.000149708 0)
(0.000183794 -0.000131055 0)
(0.000223851 -0.000107327 0)
(0.000255235 -7.94459e-05 0)
(0.000276731 -4.84959e-05 0)
(0.000287511 -1.56806e-05 0)
(0.000287164 1.77216e-05 0)
(0.000275713 5.04059e-05 0)
(0.000253613 8.10874e-05 0)
(0.000221741 0.000108542 0)
(0.000181366 0.000131632 0)
(0.000134131 0.000149307 0)
(8.21095e-05 0.000160542 0)
(2.73818e-05 0.000164151 0)
(-3.11225e-05 0.000222062 0)
(-9.33048e-05 0.000217215 0)
(-0.000152401 0.000202004 0)
(-0.000206057 0.000178079 0)
(-0.000251916 0.000146836 0)
(-0.000288111 0.000109696 0)
(-0.000313207 6.81907e-05 0)
(-0.000326211 2.3975e-05 0)
(-0.000326604 -2.12146e-05 0)
(-0.00031436 -6.56133e-05 0)
(-0.000289947 -0.000107492 0)
(-0.000254305 -0.00014522 0)
(-0.00020881 -0.000177331 0)
(-0.000155225 -0.000202576 0)
(-9.56235e-05 -0.000219973 0)
(-3.23168e-05 -0.000228845 0)
(3.22413e-05 -0.000228846 0)
(9.55476e-05 -0.000219978 0)
(0.000155148 -0.000202584 0)
(0.000208732 -0.000177341 0)
(0.000254224 -0.000145231 0)
(0.000289863 -0.000107501 0)
(0.000314272 -6.56187e-05 0)
(0.00032651 -2.12138e-05 0)
(0.000326112 2.39843e-05 0)
(0.000313102 6.82099e-05 0)
(0.000288001 0.000109724 0)
(0.000251806 0.000146872 0)
(0.000205954 0.000178114 0)
(0.000152315 0.00020203 0)
(9.32414e-05 0.000217232 0)
(3.10942e-05 0.000222116 0)
(-3.59967e-05 0.000288566 0)
(-0.000107927 0.000282244 0)
(-0.000176295 0.000262481 0)
(-0.00023837 0.000231397 0)
(-0.000291431 0.000190802 0)
(-0.000333316 0.000142543 0)
(-0.000362362 8.86137e-05 0)
(-0.000377418 3.11617e-05 0)
(-0.000377883 -2.7556e-05 0)
(-0.000363726 -8.52467e-05 0)
(-0.000335486 -0.000139663 0)
(-0.000294252 -0.000188688 0)
(-0.000241616 -0.000230415 0)
(-0.000179615 -0.000263219 0)
(-0.000110652 -0.000285826 0)
(-3.73993e-05 -0.000297354 0)
(3.73014e-05 -0.000297356 0)
(0.000110553 -0.000285831 0)
(0.000179515 -0.000263227 0)
(0.000241514 -0.000230424 0)
(0.000294148 -0.000188698 0)
(0.000335378 -0.000139671 0)
(0.000363614 -8.52503e-05 0)
(0.000377766 -2.75535e-05 0)
(0.000377297 3.11719e-05 0)
(0.000362239 8.86319e-05 0)
(0.000333193 0.000142568 0)
(0.000291313 0.000190829 0)
(0.000238265 0.000231417 0)
(0.000176209 0.000262487 0)
(0.000107868 0.000282238 0)
(3.59721e-05 0.000288585 0)
(-4.22316e-05 0.000366082 0)
(-0.000126627 0.000358046 0)
(-0.000206846 0.000332978 0)
(-0.000279687 0.000293552 0)
(-0.000341956 0.00024206 0)
(-0.000391117 0.000180844 0)
(-0.000425215 0.000112432 0)
(-0.000442897 3.95504e-05 0)
(-0.000443457 -3.49388e-05 0)
(-0.000426856 -0.000108127 0)
(-0.000393726 -0.000177164 0)
(-0.000345342 -0.000239362 0)
(-0.000283572 -0.000292302 0)
(-0.000210808 -0.000333923 0)
(-0.00012987 -0.000362605 0)
(-4.38951e-05 -0.000377232 0)
(4.37799e-05 -0.000377234 0)
(0.000129754 -0.00036261 0)
(0.000210691 -0.00033393 0)
(0.000283453 -0.00029231 0)
(0.00034522 -0.00023937 0)
(0.000393602 -0.00017717 0)
(0.000426729 -0.000108129 0)
(0.000443327 -3.49356e-05 0)
(0.000442766 3.95598e-05 0)
(0.000425084 0.000112447 0)
(0.00039099 0.000180861 0)
(0.000341839 0.000242075 0)
(0.000279585 0.000293555 0)
(0.000206765 0.000332963 0)
(0.000126572 0.000358015 0)
(4.22096e-05 0.000366067 0)
(-5.00666e-05 0.000457543 0)
(-0.000150125 0.000447488 0)
(-0.000245238 0.000416165 0)
(-0.000331608 0.0003669 0)
(-0.000405449 0.000302555 0)
(-0.000463754 0.000226052 0)
(-0.000504203 0.000140554 0)
(-0.00052519 4.94651e-05 0)
(-0.000525872 -4.36372e-05 0)
(-0.000506204 -0.000135118 0)
(-0.00046693 -0.000221412 0)
(-0.00040956 -0.000299162 0)
(-0.000336311 -0.000365341 0)
(-0.000250018 -0.000417372 0)
(-0.000154026 -0.000453229 0)
(-5.20574e-05 -0.000471514 0)
(5.19288e-05 -0.000471516 0)
(0.000153897 -0.000453233 0)
(0.000249888 -0.000417379 0)
(0.00033618 -0.000365349 0)
(0.000409427 -0.00029917 0)
(0.000466795 -0.000221418 0)
(0.000506068 -0.00013512 0)
(0.000525736 -4.36351e-05 0)
(0.000525055 4.94714e-05 0)
(0.000504072 0.000140563 0)
(0.000463631 0.00022606 0)
(0.000405337 0.000302556 0)
(0.000331513 0.000366886 0)
(0.000245165 0.000416129 0)
(0.000150078 0.000447433 0)
(5.00484e-05 0.000457497 0)
(-5.98032e-05 0.00056642 0)
(-0.000179323 0.000553966 0)
(-0.00029294 0.0005152 0)
(-0.00039612 0.000454229 0)
(-0.000484342 0.000374587 0)
(-0.000554012 0.000279893 0)
(-0.000602357 0.000174055 0)
(-0.000627454 6.12903e-05 0)
(-0.000628295 -5.39742e-05 0)
(-0.000604819 -0.000167238 0)
(-0.000557913 -0.000274087 0)
(-0.00048938 -0.000370361 0)
(-0.000401865 -0.000452311 0)
(-0.000298757 -0.000516744 0)
(-0.000184051 -0.000561149 0)
(-6.2201e-05 -0.000583793 0)
(6.20623e-05 -0.000583795 0)
(0.000183912 -0.000561153 0)
(0.000298617 -0.00051675 0)
(0.000401726 -0.000452318 0)
(0.00048924 -0.000370368 0)
(0.000557773 -0.000274093 0)
(0.000604679 -0.000167241 0)
(0.000628157 -5.39752e-05 0)
(0.00062732 6.12912e-05 0)
(0.000602229 0.000174056 0)
(0.000553895 0.000279889 0)
(0.000484239 0.000374573 0)
(0.000396034 0.000454196 0)
(0.000292875 0.000515144 0)
(0.000179282 0.000553888 0)
(5.97871e-05 0.000566347 0)
(-7.18099e-05 0.000696846 0)
(-0.00021533 0.000681523 0)
(-0.000351767 0.000633847 0)
(-0.00047568 0.000558859 0)
(-0.000581641 0.000460901 0)
(-0.000665332 0.000344419 0)
(-0.000723422 0.000214219 0)
(-0.000753598 7.54865e-05 0)
(-0.000754642 -6.63326e-05 0)
(-0.000726477 -0.000205701 0)
(-0.000670164 -0.000337186 0)
(-0.000587863 -0.000455666 0)
(-0.000482751 -0.000556524 0)
(-0.000358895 -0.000635828 0)
(-0.0002211 -0.000690482 0)
(-7.47158e-05 -0.000718354 0)
(7.45695e-05 -0.000718356 0)
(0.000220954 -0.000690486 0)
(0.000358749 -0.000635834 0)
(0.000482605 -0.000556532 0)
(0.000587718 -0.000455675 0)
(0.000670021 -0.000337194 0)
(0.000726336 -0.000205708 0)
(0.000754506 -6.63388e-05 0)
(0.000753468 7.548e-05 0)
(0.000723301 0.00021421 0)
(0.000665223 0.000344402 0)
(0.000581546 0.000460871 0)
(0.000475604 0.000558808 0)
(0.000351711 0.000633771 0)
(0.000215294 0.000681425 0)
(7.17969e-05 0.000696749 0)
(-8.65435e-05 0.000853774 0)
(-0.000259513 0.000835003 0)
(-0.000423953 0.000776613 0)
(-0.00057331 0.000684771 0)
(-0.000701044 0.000564785 0)
(-0.000801951 0.000422095 0)
(-0.000872011 0.000262588 0)
(-0.000908432 9.26097e-05 0)
(-0.000909738 -8.11674e-05 0)
(-0.000875829 -0.000251958 0)
(-0.000807978 -0.000413103 0)
(-0.000708782 -0.000558323 0)
(-0.000582069 -0.000681952 0)
(-0.000432742 -0.000779166 0)
(-0.000266595 -0.000846168 0)
(-9.00828e-05 -0.000880337 0)
(8.99303e-05 -0.000880339 0)
(0.000266443 -0.000846172 0)
(0.000432591 -0.000779174 0)
(0.000581919 -0.000681962 0)
(0.000708635 -0.000558334 0)
(0.000807833 -0.000413115 0)
(0.000875689 -0.00025197 0)
(0.000909604 -8.11807e-05 0)
(0.000908306 9.25939e-05 0)
(0.000871896 0.000262567 0)
(0.000801849 0.000422065 0)
(0.000700958 0.000564739 0)
(0.000573242 0.000684703 0)
(0.000423903 0.00077652 0)
(0.000259482 0.000834886 0)
(8.65318e-05 0.000853657 0)
(-0.00010456 0.00104316 0)
(-0.000313542 0.00102023 0)
(-0.000512231 0.000948925 0)
(-0.00069271 0.000836755 0)
(-0.000847081 0.0006902 0)
(-0.000969058 0.000515894 0)
(-0.00105378 0.000321023 0)
(-0.00109786 0.000113334 0)
(-0.0010995 -9.90213e-05 0)
(-0.00105858 -0.000307752 0)
(-0.00097663 -0.000504718 0)
(-0.000856772 -0.000682236 0)
(-0.00070363 -0.000833377 0)
(-0.000523132 -0.000952233 0)
(-0.000322283 -0.00103415 0)
(-0.000108893 -0.00107593 0)
(0.000108735 -0.00107594 0)
(0.000322126 -0.00103416 0)
(0.000522976 -0.000952242 0)
(0.000703477 -0.00083339 0)
(0.000856622 -0.000682251 0)
(0.000976484 -0.000504735 0)
(0.00105844 -0.000307771 0)
(0.00109937 -9.90433e-05 0)
(0.00109773 0.000113308 0)
(0.00105367 0.000320989 0)
(0.000968962 0.000515849 0)
(0.000847002 0.000690137 0)
(0.000692648 0.000836671 0)
(0.000512186 0.000948815 0)
(0.000313515 0.0010201 0)
(0.000104551 0.00104303 0)
(-0.000126542 0.00127219 0)
(-0.000379461 0.00124424 0)
(-0.000619937 0.00115733 0)
(-0.000838398 0.0010206 0)
(-0.00102529 0.000841928 0)
(-0.00117299 0.000629406 0)
(-0.00127563 0.000391777 0)
(-0.00132908 0.000138483 0)
(-0.00133117 -0.000120541 0)
(-0.00128172 -0.000375181 0)
(-0.00118257 -0.000615501 0)
(-0.0010375 -0.000832121 0)
(-0.000852101 -0.00101657 0)
(-0.000633539 -0.00116164 0)
(-0.000390307 -0.00126163 0)
(-0.000131869 -0.00131263 0)
(0.000131706 -0.00131264 0)
(0.000390145 -0.00126164 0)
(0.000633379 -0.00116165 0)
(0.000851944 -0.00101659 0)
(0.00103735 -0.000832141 0)
(0.00118243 -0.000615525 0)
(0.00128159 -0.000375208 0)
(0.00133104 -0.000120573 0)
(0.00132896 0.000138444 0)
(0.00127552 0.000391729 0)
(0.0011729 0.000629346 0)
(0.00102521 0.00084185 0)
(0.000838339 0.00102049 0)
(0.000619896 0.0011572 0)
(0.000379436 0.0012441 0)
(0.000126532 0.00127204 0)
(-0.000153316 0.00154954 0)
(-0.000459753 0.00151553 0)
(-0.000751136 0.00140973 0)
(-0.00101588 0.00124328 0)
(-0.0012424 0.00102576 0)
(-0.00142149 0.000766981 0)
(-0.00154599 0.000477586 0)
(-0.00161091 0.000169061 0)
(-0.00161358 -0.000146499 0)
(-0.00155378 -0.000456771 0)
(-0.0014337 -0.000749645 0)
(-0.00125792 -0.00101368 0)
(-0.00103319 -0.00123853 0)
(-0.000768213 -0.00141539 0)
(-0.000473286 -0.00153731 0)
(-0.000159898 -0.0015995 0)
(0.000159729 -0.0015995 0)
(0.000473118 -0.00153732 0)
(0.000768047 -0.00141541 0)
(0.00103303 -0.00123855 0)
(0.00125776 -0.0010137 0)
(0.00143355 -0.000749676 0)
(0.00155364 -0.000456807 0)
(0.00161345 -0.000146542 0)
(0.00161079 0.00016901 0)
(0.00154588 0.000477524 0)
(0.0014214 0.000766906 0)
(0.00124233 0.00102567 0)
(0.00101582 0.00124317 0)
(0.000751097 0.00140959 0)
(0.00045973 0.00151537 0)
(0.000153307 0.00154938 0)
(-0.000185889 0.00188572 0)
(-0.00055744 0.00184436 0)
(-0.000910769 0.00171572 0)
(-0.00123184 0.00151329 0)
(-0.00150663 0.00124871 0)
(-0.00172395 0.0009339 0)
(-0.00187512 0.000581778 0)
(-0.00195406 0.000206304 0)
(-0.00195751 -0.000177811 0)
(-0.00188516 -0.00055557 0)
(-0.00173964 -0.000912219 0)
(-0.00152648 -0.00123381 0)
(-0.00125386 -0.00150772 0)
(-0.000932344 -0.0017232 0)
(-0.000574424 -0.00187176 0)
(-0.000194061 -0.00194753 0)
(0.000193885 -0.00194753 0)
(0.000574249 -0.00187177 0)
(0.000932172 -0.00172322 0)
(0.00125369 -0.00150775 0)
(0.00152632 -0.00123384 0)
(0.00173949 -0.000912258 0)
(0.00188501 -0.000555616 0)
(0.00195738 -0.000177866 0)
(0.00195394 0.00020624 0)
(0.00187502 0.000581701 0)
(0.00172386 0.000933809 0)
(0.00150656 0.0012486 0)
(0.00123178 0.00151316 0)
(0.000910729 0.00171556 0)
(0.000557417 0.00184419 0)
(0.00018588 0.00188554 0)
(-0.000225483 0.00229342 0)
(-0.000676186 0.00224319 0)
(-0.00110483 0.00208688 0)
(-0.00149441 0.00184088 0)
(-0.00182793 0.00151929 0)
(-0.00209181 0.00113658 0)
(-0.0022755 0.000708409 0)
(-0.00237159 0.000251735 0)
(-0.00237608 -0.000215567 0)
(-0.00228854 -0.000675252 0)
(-0.00211213 -0.00110936 0)
(-0.00185352 -0.00150087 0)
(-0.00152264 -0.00183442 0)
(-0.00113227 -0.00209684 0)
(-0.000697631 -0.00227779 0)
(-0.000235682 -0.0023701 0)
(0.000235497 -0.0023701 0)
(0.000697448 -0.00227781 0)
(0.00113209 -0.00209687 0)
(0.00152246 -0.00183445 0)
(0.00185335 -0.00150091 0)
(0.00211197 -0.0011094 0)
(0.00228839 -0.00067531 0)
(0.00237594 -0.000215634 0)
(0.00237147 0.000251657 0)
(0.00227539 0.000708317 0)
(0.00209172 0.00113647 0)
(0.00182786 0.00151917 0)
(0.00149436 0.00184073 0)
(0.00110479 0.00208671 0)
(0.000676163 0.002243 0)
(0.000225475 0.00229323 0)
(-0.000273579 0.00278805 0)
(-0.000820434 0.00272708 0)
(-0.00134059 0.00253727 0)
(-0.00181345 0.00223849 0)
(-0.0022184 0.00184784 0)
(-0.00253896 0.00138282 0)
(-0.0027623 0.00086243 0)
(-0.00287937 0.000307236 0)
(-0.00288526 -0.000261051 0)
(-0.00277937 -0.000820246 0)
(-0.00256549 -0.00134848 0)
(-0.00225166 -0.00182502 0)
(-0.0018499 -0.00223109 0)
(-0.00137575 -0.00255065 0)
(-0.000847691 -0.00277102 0)
(-0.000286375 -0.00288345 0)
(0.000286181 -0.00288345 0)
(0.000847498 -0.00277104 0)
(0.00137556 -0.00255068 0)
(0.00184972 -0.00223113 0)
(0.00225149 -0.00182506 0)
(0.00256533 -0.00134854 0)
(0.00277922 -0.000820316 0)
(0.00288512 -0.000261132 0)
(0.00287924 0.000307142 0)
(0.00276219 0.000862322 0)
(0.00253887 0.0013827 0)
(0.00221832 0.0018477 0)
(0.00181339 0.00223833 0)
(0.00134055 0.00253708 0)
(0.00082041 0.00272688 0)
(0.00027357 0.00278784 0)
(-0.000331967 0.00338824 0)
(-0.000995559 0.00331429 0)
(-0.00162685 0.00308392 0)
(-0.00220089 0.00272124 0)
(-0.00269269 0.00224691 0)
(-0.00308225 0.00168213 0)
(-0.00335393 0.00104989 0)
(-0.0034967 0.000375141 0)
(-0.00350449 -0.000315774 0)
(-0.00337648 -0.000995885 0)
(-0.00311719 -0.00163856 0)
(-0.00273629 -0.00221854 0)
(-0.00224835 -0.0027129 0)
(-0.00167225 -0.00310203 0)
(-0.00103045 -0.00337042 0)
(-0.000348119 -0.00350736 0)
(0.000347912 -0.00350737 0)
(0.00103024 -0.00337044 0)
(0.00167204 -0.00310206 0)
(0.00224815 -0.00271295 0)
(0.0027361 -0.0022186 0)
(0.00311701 -0.00163863 0)
(0.00337632 -0.000995967 0)
(0.00350434 -0.00031587 0)
(0.00349656 0.000375032 0)
(0.00335381 0.00104977 0)
(0.00308215 0.00168198 0)
(0.00269261 0.00224675 0)
(0.00220083 0.00272105 0)
(0.0016268 0.00308372 0)
(0.000995532 0.00331406 0)
(0.000331958 0.00338801 0)
(-0.000402812 0.00411654 0)
(-0.00120806 0.00402691 0)
(-0.00197425 0.00374748 0)
(-0.00267118 0.00330743 0)
(-0.00326856 0.00273176 0)
(-0.00374209 0.00204607 0)
(-0.00407274 0.00127821 0)
(-0.00424701 0.00045836 0)
(-0.00425741 -0.000381494 0)
(-0.0041028 -0.00120858 0)
(-0.0037885 -0.00199047 0)
(-0.00332619 -0.00269636 0)
(-0.00273349 -0.00329826 0)
(-0.00203333 -0.00377217 0)
(-0.00125305 -0.00409911 0)
(-0.00042333 -0.00426595 0)
(0.000423109 -0.00426595 0)
(0.00125283 -0.00409913 0)
(0.00203311 -0.00377221 0)
(0.00273328 -0.00329831 0)
(0.00332599 -0.00269643 0)
(0.00378831 -0.00199055 0)
(0.00410262 -0.00120867 0)
(0.00425725 -0.000381604 0)
(0.00424687 0.000458235 0)
(0.00407262 0.00127807 0)
(0.00374198 0.00204591 0)
(0.00326847 0.00273158 0)
(0.00267111 0.00330723 0)
(0.0019742 0.00374725 0)
(0.00120803 0.00402667 0)
(0.000402802 0.00411629 0)
(-0.000488727 0.00500025 0)
(-0.00146577 0.0048917 0)
(-0.00239564 0.00455294 0)
(-0.00324177 0.00401929 0)
(-0.00396746 0.00332094 0)
(-0.00454322 0.00248878 0)
(-0.00494585 0.00155647 0)
(-0.0051588 0.000560535 0)
(-0.00517279 -0.000460234 0)
(-0.00498623 -0.00146601 0)
(-0.0046054 -0.00241733 0)
(-0.00404431 -0.00327658 0)
(-0.00332428 -0.00400956 0)
(-0.00247316 -0.00458687 0)
(-0.00152425 -0.00498525 0)
(-0.000514969 -0.00518857 0)
(0.000514733 -0.00518858 0)
(0.00152402 -0.00498528 0)
(0.00247293 -0.00458692 0)
(0.00332405 -0.00400962 0)
(0.00404409 -0.00327666 0)
(0.00460519 -0.00241742 0)
(0.00498604 -0.00146612 0)
(0.00517262 -0.00046036 0)
(0.00515864 0.000560391 0)
(0.00494571 0.0015563 0)
(0.0045431 0.0024886 0)
(0.00396737 0.00332073 0)
(0.00324169 0.00401907 0)
(0.00239558 0.0045527 0)
(0.00146574 0.00489144 0)
(0.000488716 0.00499999 0)
(-0.000592856 0.0060724 0)
(-0.00177815 0.00594104 0)
(-0.00290651 0.00553062 0)
(-0.00393373 0.0048838 0)
(-0.00481536 0.004037 0)
(-0.00551557 0.00302749 0)
(-0.00600609 0.00189584 0)
(-0.00626663 0.000686243 0)
(-0.00628562 -0.000554297 0)
(-0.00606083 -0.0017774 0)
(-0.00559958 -0.00293499 0)
(-0.00491869 -0.00398115 0)
(-0.00404392 -0.00487402 0)
(-0.00300909 -0.00557756 0)
(-0.00185478 -0.0060632 0)
(-0.000626671 -0.0063111 0)
(0.000626416 -0.00631111 0)
(0.00185453 -0.00606323 0)
(0.00300885 -0.00557761 0)
(0.00404368 -0.00487408 0)
(0.00491846 -0.00398124 0)
(0.00559937 -0.00293509 0)
(0.00606062 -0.00177752 0)
(0.00628543 -0.00055444 0)
(0.00626646 0.000686082 0)
(0.00600594 0.00189565 0)
(0.00551544 0.00302729 0)
(0.00481525 0.00403678 0)
(0.00393365 0.00488356 0)
(0.00290645 0.00553035 0)
(0.00177812 0.00594076 0)
(0.000592843 0.00607212 0)
(-0.000718983 0.00737288 0)
(-0.00215656 0.00721408 0)
(-0.00352551 0.00671716 0)
(-0.00477244 0.00593366 0)
(-0.00584355 0.00490741 0)
(-0.00669532 0.00368325 0)
(-0.00729328 0.00231008 0)
(-0.00761247 0.000841278 0)
(-0.00763845 -0.000666243 0)
(-0.00736806 -0.00215371 0)
(-0.00680978 -0.00356255 0)
(-0.00598367 -0.00483667 0)
(-0.00492087 -0.00592475 0)
(-0.00366243 -0.00678255 0)
(-0.00225783 -0.00737489 0)
(-0.000762896 -0.00767733 0)
(0.000762621 -0.00767734 0)
(0.00225756 -0.00737492 0)
(0.00366216 -0.0067826 0)
(0.00492061 -0.00592482 0)
(0.00598342 -0.00483676 0)
(0.00680954 -0.00356267 0)
(0.00736784 -0.00215385 0)
(0.00763825 -0.000666403 0)
(0.00761229 0.000841096 0)
(0.00729312 0.00230987 0)
(0.00669518 0.00368302 0)
(0.00584343 0.00490716 0)
(0.00477235 0.00593339 0)
(0.00352545 0.00671687 0)
(0.00215652 0.00721378 0)
(0.00071897 0.00737257 0)
(-0.000871645 0.00894986 0)
(-0.00261462 0.0087581 0)
(-0.00427504 0.00815694 0)
(-0.00578844 0.00720853 0)
(-0.00708975 0.00596553 0)
(-0.00812616 0.00448181 0)
(-0.00885557 0.00281618 0)
(-0.00924724 0.00103301 0)
(-0.00928306 -0.000798841 0)
(-0.00895852 -0.00260799 0)
(-0.0082833 -0.00432304 0)
(-0.0072813 -0.00587537 0)
(-0.00599002 -0.00720204 0)
(-0.00445935 -0.00824856 0)
(-0.00274962 -0.00897156 0)
(-0.000929141 -0.00934081 0)
(0.000928843 -0.00934082 0)
(0.00274932 -0.0089716 0)
(0.00445906 -0.00824862 0)
(0.00598974 -0.00720212 0)
(0.00728103 -0.00587548 0)
(0.00828304 -0.00432317 0)
(0.00895827 -0.00260814 0)
(0.00928283 -0.00079902 0)
(0.00924704 0.0010328 0)
(0.00885539 0.00281595 0)
(0.008126 0.00448156 0)
(0.00708962 0.00596526 0)
(0.00578834 0.00720823 0)
(0.00427497 0.00815662 0)
(0.00261458 0.00875777 0)
(0.000871629 0.00894952 0)
(-0.00105627 0.0108614 0)
(-0.00316867 0.0106302 0)
(-0.00518193 0.00990357 0)
(-0.00701836 0.00875647 0)
(-0.00859933 0.00725203 0)
(-0.00986076 0.00545473 0)
(-0.0107512 0.00343518 0)
(-0.0112327 0.00127086 0)
(-0.0112824 -0.000954956 0)
(-0.0108939 -0.00315563 0)
(-0.0100781 -0.0052441 0)
(-0.00886317 -0.00713633 0)
(-0.00729432 -0.00875492 0)
(-0.00543209 -0.0100327 0)
(-0.00335015 -0.0109159 0)
(-0.00113219 -0.0113671 0)
(0.00113186 -0.0113672 0)
(0.00334983 -0.0109159 0)
(0.00543178 -0.0100327 0)
(0.00729402 -0.00875501 0)
(0.00886288 -0.00713645 0)
(0.0100778 -0.00524424 0)
(0.0108937 -0.0031558 0)
(0.0112822 -0.000955155 0)
(0.0112325 0.00127064 0)
(0.010751 0.00343492 0)
(0.00986058 0.00545446 0)
(0.00859919 0.00725173 0)
(0.00701825 0.00875615 0)
(0.00518185 0.00990322 0)
(0.00316862 0.0106298 0)
(0.00105625 0.010861 0)
(-0.00127933 0.0131774 0)
(-0.00383816 0.012899 0)
(-0.00627822 0.0120218 0)
(-0.00850605 0.0106357 0)
(-0.0104267 0.00881636 0)
(-0.0119625 0.00664069 0)
(-0.0130505 0.0041932 0)
(-0.0136437 0.00156702 0)
(-0.0137131 -0.00113734 0)
(-0.0132497 -0.0038147 0)
(-0.0122651 -0.00635887 0)
(-0.0107927 -0.00866678 0)
(-0.0088867 -0.0106431 0)
(-0.0066205 -0.0122046 0)
(-0.00408417 -0.0132847 0)
(-0.00138043 -0.0138368 0)
(0.00138008 -0.0138368 0)
(0.00408382 -0.0132848 0)
(0.00662016 -0.0122047 0)
(0.00888636 -0.0106432 0)
(0.0107924 -0.00866692 0)
(0.0122648 -0.00635903 0)
(0.0132494 -0.00381489 0)
(0.0137129 -0.00113756 0)
(0.0136434 0.00156677 0)
(0.0130503 0.00419292 0)
(0.0119623 0.00664038 0)
(0.0104266 0.00881603 0)
(0.00850592 0.0106354 0)
(0.00627813 0.0120214 0)
(0.0038381 0.0128986 0)
(0.00127931 0.013177 0)
(-0.0015485 0.0159819 0)
(-0.00464621 0.0156473 0)
(-0.00760206 0.0145897 0)
(-0.0103038 0.0129168 0)
(-0.0126371 0.0107188 0)
(-0.0145075 0.00808719 0)
(-0.0158382 0.00512281 0)
(-0.0165709 0.00193728 0)
(-0.0166685 -0.00134825 0)
(-0.0161179 -0.00460621 0)
(-0.0149315 -0.00770694 0)
(-0.0131481 -0.0105239 0)
(-0.0108326 -0.0129392 0)
(-0.00807395 -0.0148497 0)
(-0.00498241 -0.0161723 0)
(-0.0016843 -0.0168486 0)
(0.00168392 -0.0168486 0)
(0.00498203 -0.0161723 0)
(0.00807357 -0.0148498 0)
(0.0108322 -0.0129393 0)
(0.0131478 -0.010524 0)
(0.0149312 -0.00770712 0)
(0.0161176 -0.00460642 0)
(0.0166682 -0.00134849 0)
(0.0165706 0.001937 0)
(0.015838 0.00512251 0)
(0.0145073 0.00808686 0)
(0.0126369 0.0107184 0)
(0.0103037 0.0129165 0)
(0.00760196 0.0145893 0)
(0.00464615 0.0156469 0)
(0.00154848 0.0159814 0)
(-0.00187287 0.0193755 0)
(-0.00562018 0.0189745 0)
(-0.00919864 0.0177013 0)
(-0.0124738 0.0156851 0)
(-0.015308 0.0130327 0)
(-0.017587 0.0098527 0)
(-0.0192166 0.00626479 0)
(-0.020124 0.00240234 0)
(-0.0202619 -0.00158888 0)
(-0.0196114 -0.00555425 0)
(-0.0181845 -0.0093354 0)
(-0.0160259 -0.0127766 0)
(-0.013213 -0.0157318 0)
(-0.00985383 -0.0180725 0)
(-0.00608318 -0.0196944 0)
(-0.00205682 -0.0205244 0)
(0.00205641 -0.0205244 0)
(0.00608277 -0.0196945 0)
(0.00985343 -0.0180726 0)
(0.0132126 -0.015732 0)
(0.0160255 -0.0127767 0)
(0.0181841 -0.0093356 0)
(0.019611 -0.00555448 0)
(0.0202616 -0.00158915 0)
(0.0201237 0.00240204 0)
(0.0192163 0.00626445 0)
(0.0175868 0.00985233 0)
(0.0153078 0.0130323 0)
(0.0124736 0.0156846 0)
(0.00919853 0.0177008 0)
(0.00562011 0.018974 0)
(0.00187284 0.0193751 0)
(-0.00226309 0.0234787 0)
(-0.00679221 0.0229993 0)
(-0.0111212 0.0214695 0)
(-0.0150895 0.0190435 0)
(-0.0185319 0.0158475 0)
(-0.02131 0.0120093 0)
(-0.0233081 0.00767038 0)
(-0.0244357 0.00298951 0)
(-0.0246314 -0.00185838 0)
(-0.0238681 -0.00668605 0)
(-0.0221559 -0.0113 0)
(-0.0195457 -0.0155081 0)
(-0.0161291 -0.0191289 0)
(-0.0120369 -0.0220013 0)
(-0.00743444 -0.0239941 0)
(-0.00251432 -0.0250145 0)
(0.00251387 -0.0250145 0)
(0.007434 -0.0239941 0)
(0.0120364 -0.0220014 0)
(0.0161286 -0.019129 0)
(0.0195453 -0.0155082 0)
(0.0221555 -0.0113002 0)
(0.0238677 -0.0066863 0)
(0.0246311 -0.00185867 0)
(0.0244354 0.00298918 0)
(0.0233078 0.00767 0)
(0.0213097 0.0120089 0)
(0.0185316 0.015847 0)
(0.0150893 0.019043 0)
(0.0111211 0.021469 0)
(0.00679213 0.0229987 0)
(0.00226307 0.0234782 0)
(-0.0027316 0.028435 0)
(-0.00819981 0.0278637 0)
(-0.0134321 0.0260298 0)
(-0.0182373 0.0231166 0)
(-0.0224177 0.0192721 0)
(-0.0258058 0.0146459 0)
(-0.0282599 0.00940427 0)
(-0.0296662 0.00373509 0)
(-0.0299452 -0.00215234 0)
(-0.0290573 -0.00803162 0)
(-0.0270089 -0.013666 0)
(-0.0238562 -0.0188183 0)
(-0.019707 -0.0232618 0)
(-0.0147195 -0.0267937 0)
(-0.00909664 -0.0292477 0)
(-0.0030774 -0.0305054 0)
(0.00307691 -0.0305055 0)
(0.00909616 -0.0292478 0)
(0.014719 -0.0267938 0)
(0.0197065 -0.0232619 0)
(0.0238557 -0.0188185 0)
(0.0270085 -0.0136663 0)
(0.0290569 -0.00803189 0)
(0.0299447 -0.00215265 0)
(0.0296659 0.00373473 0)
(0.0282596 0.00940386 0)
(0.0258055 0.0146455 0)
(0.0224174 0.0192716 0)
(0.0182371 0.023116 0)
(0.0134319 0.0260292 0)
(0.00819972 0.0278631 0)
(0.00273157 0.0284344 0)
(-0.00329275 0.0344145 0)
(-0.00988636 0.0337365 0)
(-0.0162036 0.0315441 0)
(-0.022018 0.0280541 0)
(-0.0270935 0.0234392 0)
(-0.0312281 0.0178728 0)
(-0.0342475 0.0115486 0)
(-0.0360086 0.00468773 0)
(-0.0364074 -0.00246049 0)
(-0.0353871 -0.00962284 0)
(-0.0329455 -0.0165097 0)
(-0.0291431 -0.0228271 0)
(-0.0241055 -0.028291 0)
(-0.0180233 -0.0326443 0)
(-0.0111464 -0.0356743 0)
(-0.00377223 -0.037229 0)
(0.00377171 -0.037229 0)
(0.0111459 -0.0356744 0)
(0.0180228 -0.0326444 0)
(0.024105 -0.0282911 0)
(0.0291426 -0.0228273 0)
(0.032945 -0.01651 0)
(0.0353866 -0.00962313 0)
(0.036407 -0.00246084 0)
(0.0360082 0.00468733 0)
(0.0342471 0.0115481 0)
(0.0312277 0.0178723 0)
(0.0270932 0.0234387 0)
(0.0220178 0.0280535 0)
(0.0162034 0.0315435 0)
(0.00988626 0.0337359 0)
(0.00329271 0.0344139 0)
(-0.00396291 0.0416184 0)
(-0.0119015 0.0408178 0)
(-0.0195188 0.0382053 0)
(-0.0265481 0.0340364 0)
(-0.0327086 0.0285105 0)
(-0.037757 0.0218266 0)
(-0.0414793 0.0142081 0)
(-0.043695 0.00591304 0)
(-0.0442669 -0.00276315 0)
(-0.043113 -0.0114917 0)
(-0.0402168 -0.0199184 0)
(-0.0356395 -0.0276777 0)
(-0.0295253 -0.0344119 0)
(-0.0221035 -0.0397928 0)
(-0.0136818 -0.0435465 0)
(-0.00463238 -0.045475 0)
(0.00463182 -0.045475 0)
(0.0136813 -0.0435465 0)
(0.022103 -0.0397929 0)
(0.0295248 -0.034412 0)
(0.0356389 -0.0276779 0)
(0.0402163 -0.0199186 0)
(0.0431124 -0.011492 0)
(0.0442664 -0.00276353 0)
(0.0436945 0.00591261 0)
(0.0414789 0.0142076 0)
(0.0377566 0.0218261 0)
(0.0327083 0.0285099 0)
(0.0265478 0.0340358 0)
(0.0195186 0.0382046 0)
(0.0119014 0.0408171 0)
(0.00396287 0.0416177 0)
(-0.00476053 0.0502828 0)
(-0.0143011 0.049343 0)
(-0.0234719 0.0462422 0)
(-0.0319605 0.0412796 0)
(-0.0394351 0.0346829 0)
(-0.0456034 0.0266773 0)
(-0.0502023 0.017517 0)
(-0.0530035 0.00750018 0)
(-0.0538257 -0.00302585 0)
(-0.05255 -0.0136671 0)
(-0.049136 -0.0239902 0)
(-0.0436392 -0.0335399 0)
(-0.0362222 -0.0418628 0)
(-0.0271589 -0.0485369 0)
(-0.0168292 -0.0532051 0)
(-0.00570121 -0.0556076 0)
(0.00570062 -0.0556076 0)
(0.0168286 -0.0532052 0)
(0.0271583 -0.048537 0)
(0.0362216 -0.0418629 0)
(0.0436386 -0.0335401 0)
(0.0491353 -0.0239904 0)
(0.0525494 -0.0136675 0)
(0.0538251 -0.00302625 0)
(0.0530029 0.00749971 0)
(0.0502018 0.0175164 0)
(0.0456029 0.0266767 0)
(0.0394347 0.0346822 0)
(0.0319602 0.0412788 0)
(0.0234717 0.0462415 0)
(0.0143009 0.0493422 0)
(0.00476048 0.050282 0)
(-0.00570591 0.0606828 0)
(-0.017147 0.0595877 0)
(-0.0281675 0.0559248 0)
(-0.0384049 0.0500418 0)
(-0.0474691 0.0421957 0)
(-0.0550104 0.0326364 0)
(-0.060706 0.0216483 0)
(-0.0642662 0.0095709 0)
(-0.0654504 -0.00319128 0)
(-0.0640867 -0.0161691 0)
(-0.0600951 -0.0288327 0)
(-0.0535154 -0.0406137 0)
(-0.0445244 -0.0509341 0)
(-0.0334472 -0.0592462 0)
(-0.0207534 -0.0650793 0)
(-0.00703548 -0.0680874 0)
(0.00703485 -0.0680874 0)
(0.0207527 -0.0650793 0)
(0.0334465 -0.0592462 0)
(0.0445237 -0.0509343 0)
(0.0535147 -0.0406139 0)
(0.0600944 -0.028833 0)
(0.064086 -0.0161694 0)
(0.0654497 -0.0031917 0)
(0.0642656 0.00957039 0)
(0.0607055 0.0216477 0)
(0.0550098 0.0326358 0)
(0.0474686 0.042195 0)
(0.0384046 0.050041 0)
(0.0281673 0.0559239 0)
(0.0171468 0.0595868 0)
(0.00570585 0.0606819 0)
(-0.00682089 0.0731364 0)
(-0.0205058 0.0718718 0)
(-0.0337198 0.0675694 0)
(-0.0460461 0.0606306 0)
(-0.05703 0.0513398 0)
(-0.0662555 0.0399679 0)
(-0.0733273 0.0268256 0)
(-0.0778772 0.0122923 0)
(-0.0795851 -0.00316721 0)
(-0.0782028 -0.0189996 0)
(-0.0735874 -0.0345582 0)
(-0.0657449 -0.0491319 0)
(-0.0548574 -0.0619792 0)
(-0.0413059 -0.0723818 0)
(-0.0256717 -0.0797119 0)
(-0.00871032 -0.0835015 0)
(0.00870967 -0.0835015 0)
(0.025671 -0.0797119 0)
(0.0413052 -0.0723819 0)
(0.0548567 -0.0619793 0)
(0.0657441 -0.0491321 0)
(0.0735866 -0.0345585 0)
(0.0782021 -0.019 0)