/*--------------------------------*- C++ -*----------------------------------*\
  =========                 |
  \\      /  F ield         | OpenFOAM: The Open Source CFD Toolbox
   \\    /   O peration     | Website:  https://openfoam.org
    \\  /    A nd           | Version:  9
     \\/     M anipulation  |
\*---------------------------------------------------------------------------*/
FoamFile
{
    format      ascii;
    class       volScalarField;
    location    "0.36";
    object      alpha.phase1;
}
// * * * * * * * * * * * * * * * * * * * * * * * * * * * * * * * * * * * * * //

dimensions      [0 0 0 0 0 0 0];

internalField   nonuniform List<scalar> 
10000
(
5.8991214e-98
5.8992301e-98
7.7792302e-98
3.9714382e-96
4.3441091e-94
4.3443848e-92
3.9649353e-90
3.3087405e-88
2.412903e-86
2.0052343e-84
3.9324191e-82
2.8644903e-79
5.1346626e-77
1.0533519e-75
6.7362085e-75
2.3960568e-74
6.3367926e-74
1.8881871e-73
2.3004229e-73
2.4341442e-73
2.5510429e-73
2.7513216e-73
1.4998243e-72
1.3689215e-70
1.3640164e-68
1.2960602e-66
1.2043317e-64
1.3481817e-62
3.4724474e-60
3.6448476e-58
5.7500106e-57
2.9525224e-56
3.1263735e-55
4.6570031e-54
2.046605e-52
7.7246193e-51
1.2441091e-49
1.8532251e-48
1.390128e-47
3.1507426e-46
6.1016028e-45
1.0057872e-43
1.41209e-42
1.6727939e-41
1.5999289e-40
1.1892384e-39
6.9552499e-39
3.2326712e-38
1.1390679e-37
2.863337e-37
2.9180857e-37
1.2703573e-37
3.5068239e-38
7.1805127e-39
1.100751e-39
1.1949093e-40
8.0503586e-42
2.8961651e-43
5.0225613e-45
4.2746419e-47
2.8011759e-49
2.0351341e-51
2.1478655e-53
2.5688437e-55
4.0398521e-56
4.0408139e-56
5.1222391e-56
4.707022e-56
1.9016217e-56
2.0110532e-57
6.6531539e-59
5.0003906e-61
2.6496707e-63
2.528086e-65
2.2891418e-67
1.9314762e-69
1.988102e-71
3.7354738e-72
1.9189485e-72
1.14885e-72
8.7844891e-73
6.2376351e-73
3.2677814e-73
1.0863491e-73
4.6666451e-74
1.571872e-74
4.1528122e-75
8.334811e-76
4.5736944e-77
4.1042927e-79
1.5565436e-81
5.8204982e-84
1.7543675e-86
4.6707758e-89
1.667757e-91
9.7361883e-94
5.903044e-96
1.1527095e-97
9.4986429e-98
9.4986429e-98
6.0679465e-98
1.6385973e-96
8.667789e-96
2.5980003e-95
1.136656e-93
6.9393397e-92
5.4390113e-90
4.9713285e-88
6.0447214e-86
1.7495134e-83
4.4699372e-81
4.6329326e-79
5.1869251e-77
1.0444199e-75
6.7480998e-75
2.6892243e-74
6.7138235e-74
1.9801753e-73
8.6404743e-73
2.7089201e-72
3.1337352e-72
1.8258929e-72
6.4024389e-72
4.9617452e-70
4.7902478e-68
4.3474575e-66
3.88531e-64
3.4922912e-62
3.9693945e-60
4.0604102e-58
2.0611893e-56
1.6374461e-54
1.2433713e-52
7.0626148e-51
3.7828258e-49
1.6878863e-47
1.8829934e-46
6.8560216e-47
2.5798978e-45
5.452788e-44
9.630503e-43
1.4482226e-41
1.8387852e-40
1.9439781e-39
1.6164455e-38
9.466091e-38
3.5619441e-37
8.9596583e-37
1.9157096e-36
3.4525633e-36
3.4907846e-36
2.0429367e-36
9.3544262e-37
3.6010955e-37
9.0173612e-38
1.2609771e-38
9.3395932e-40
3.6725945e-41
7.3996529e-43
8.0004038e-45
5.5711005e-47
6.4338965e-49
4.2955829e-50
1.6497207e-51
6.323545e-56
1.3381137e-53
1.3115649e-53
5.1291901e-54
2.7826993e-55
2.5424053e-57
6.3453517e-59
8.2711912e-61
3.3299796e-63
2.1273259e-65
1.8966463e-67
2.3573661e-69
1.2153466e-70
3.6769016e-71
6.0389135e-72
2.9239923e-72
7.794992e-72
5.6913779e-72
1.1837763e-72
1.5702554e-73
8.0247111e-74
1.9558549e-74
4.738321e-75
8.6072532e-76
4.9179285e-77
7.094753e-79
5.9464076e-81
2.8641654e-83
5.885921e-86
1.0673185e-88
8.2270834e-91
9.1684814e-93
1.4503207e-94
2.3100596e-95
2.9077252e-96
9.7820091e-98
4.9141952e-95
1.6239769e-93
1.1031658e-91
8.8834185e-91
2.883198e-90
2.6740986e-89
1.7465865e-87
2.2231282e-85
6.0776118e-83
2.3439489e-80
6.2547499e-78
2.7787549e-76
2.1669207e-75
8.8128863e-75
9.7868324e-74
3.1801155e-72
7.1915304e-72
1.3393209e-71
4.3383596e-70
1.3226736e-69
1.4165949e-69
5.5968464e-70
5.7704794e-69
5.8626779e-67
5.7116069e-65
5.3225067e-63
4.9976612e-61
5.6332514e-59
5.3484345e-57
3.1909899e-55
2.1357524e-53
2.3569305e-51
1.4904779e-49
7.9620549e-48
4.1948713e-46
1.763794e-44
1.6602282e-43
1.3306767e-44
4.360287e-43
8.9919444e-42
1.5195856e-40
2.1878403e-39
2.6649854e-38
2.713311e-37
2.196587e-36
1.2773147e-35
4.8550833e-35
1.2304228e-34
2.590012e-34
4.75016e-34
4.8012854e-34
2.7641255e-34
1.2776708e-34
4.8851106e-35
1.2108752e-35
1.7087168e-36
1.3218543e-37
5.6694002e-39
1.3119189e-40
1.6912243e-42
1.3468094e-44
4.9337175e-46
2.0847862e-46
7.491229e-48
3.3299062e-52
6.7266017e-51
1.1577819e-50
4.1727177e-51
2.0479887e-52
1.0276904e-54
1.6563877e-56
6.1503197e-58
7.036679e-60
2.2757587e-62
1.3263061e-64
1.1490012e-66
1.1269458e-67
2.699614e-68
3.1626131e-69
8.3933078e-70
3.6456454e-69
3.411609e-69
6.9524328e-70
3.8210489e-71
2.707274e-71
4.325178e-72
7.0099647e-73
7.844997e-74
6.6551534e-75
4.3117381e-76
7.6314672e-78
5.3506769e-80
2.7608431e-82
1.1327496e-84
4.7439295e-87
5.9472544e-89
3.2817155e-90
2.3582396e-91
3.0580401e-93
7.5871716e-95
1.6822584e-92
7.6889061e-91
6.9423076e-89
4.5037996e-87
9.1493507e-86
2.3152263e-85
1.9893446e-84
2.6386326e-82
6.345332e-80
2.0236159e-77
4.8444811e-75
2.2609825e-73
1.9359807e-72
9.4343747e-72
2.911372e-70
4.2491402e-69
4.0712731e-69
6.855376e-69
1.8445788e-67
4.7673053e-67
4.7944146e-67
1.7854556e-67
5.2632076e-66
5.3769565e-64
5.2446831e-62
4.9216105e-60
4.9144054e-58
5.6994766e-56
4.3809096e-54
2.5882918e-52
2.1171499e-50
2.4565792e-48
1.2691952e-46
6.2314126e-45
3.2356892e-43
1.2424967e-41
9.9874098e-41
9.2344005e-42
5.7721736e-41
1.1386002e-39
1.8438814e-38
2.5378571e-37
2.9585988e-36
2.8944018e-35
2.27441e-34
1.3049133e-33
4.9703381e-33
1.2636843e-32
2.6258055e-32
4.8826196e-32
4.9342433e-32
2.8056131e-32
1.3052923e-32
4.9746476e-33
1.2299216e-33
1.7624142e-34
1.4285629e-35
6.6863911e-37
1.7705436e-38
2.6909509e-40
2.3052333e-42
8.0665175e-44
4.7473163e-43
1.7406119e-44
1.3348446e-48
2.364307e-50
7.3560923e-48
2.2037686e-48
8.8781688e-50
4.4333695e-52
9.0768355e-54
3.8590067e-55
5.488087e-57
3.2590637e-59
1.1575899e-61
8.1392423e-64
6.7653105e-65
1.5800112e-65
1.9021065e-66
2.2183588e-67
1.042849e-66
1.5616429e-66
3.5817156e-67
2.1131893e-68
1.5019705e-68
2.7648576e-69
4.9561001e-70
7.4530927e-71
6.0044483e-72
3.4443548e-73
6.4135656e-75
5.8488178e-77
4.2764442e-79
3.1430918e-81
2.4630353e-83
3.0130444e-85
1.140256e-86
1.6962786e-88
1.4438002e-90
2.5220346e-92
4.4773737e-90
2.4665452e-88
2.5300248e-86
2.0012679e-84
1.2170412e-82
2.8485731e-81
1.1080251e-80
3.1371265e-79
5.2459044e-77
1.2306016e-74
2.6126976e-72
1.235152e-70
1.1940724e-69
6.8588615e-69
1.6715231e-67
1.995095e-66
1.6323683e-66
4.0974067e-66
6.1380288e-65
1.4108883e-64
1.3341654e-64
6.24801e-65
3.4377843e-63
3.5139619e-61
3.4161068e-59
3.2216198e-57
3.3730467e-55
3.7280676e-53
2.5198059e-51
1.4840528e-49
1.1905837e-47
1.2936048e-45
7.3416957e-44
3.7320922e-42
1.9111382e-40
6.6629898e-39
4.5620807e-38
5.1095797e-39
6.6631216e-39
1.1373105e-37
1.7725236e-36
2.3244658e-35
2.5855515e-34
2.4229585e-33
1.8430431e-32
1.0408032e-31
3.9583535e-31
1.0057585e-30
2.0581031e-30
3.8503758e-30
3.8910318e-30
2.2015215e-30
1.0333912e-30
3.9410461e-31
9.7517806e-32
1.420389e-32
1.2058319e-33
6.1570184e-35
1.8584069e-36
3.2882478e-38
3.405616e-40
3.1207602e-41
3.6039916e-40
1.6489991e-41
2.0328922e-45
2.4467888e-47
3.4147836e-45
7.1607047e-46
1.9362588e-47
1.1501871e-49
3.4671493e-51
1.5777989e-52
2.385504e-54
1.6055834e-56
8.5313592e-59
4.8642772e-61
2.8505879e-62
7.5235519e-63
9.9513961e-64
7.2515143e-65
2.0482161e-64
5.5964884e-64
1.2825942e-64
8.8385382e-66
6.3376762e-66
1.3305491e-66
2.5026328e-67
4.4289576e-68
3.4755282e-69
1.9554333e-70
3.701966e-72
3.8923342e-74
3.5335491e-76
2.7322053e-78
2.2244159e-80
3.7148142e-82
6.5505962e-84
6.4299668e-86
4.5655412e-88
6.5208413e-90
9.7176554e-88
6.0605609e-86
6.8260274e-84
5.8932317e-82
4.2527144e-80
2.3336077e-78
4.8918685e-77
3.3127189e-76
3.2849695e-74
5.6283962e-72
1.1038441e-69
5.4499279e-68
5.38419e-67
3.9025977e-66
9.2135389e-65
6.7521884e-64
5.2617818e-64
1.289165e-63
1.6772277e-62
3.5969551e-62
3.1118997e-62
2.1897872e-62
1.7108097e-60
1.7379142e-58
1.6767172e-56
1.5835087e-54
1.5772625e-52
1.4025158e-50
9.6383335e-49
6.872119e-47
4.8246812e-45
4.3641379e-43
3.1756277e-41
1.8091313e-39
9.1501105e-38
2.8823843e-36
1.6759363e-35
2.1120618e-36
6.0536768e-37
9.1439831e-36
1.3933093e-34
1.732785e-33
1.8298585e-32
1.6350267e-31
1.1987305e-30
6.6392755e-30
2.5143821e-29
6.3730979e-29
1.283174e-28
2.4055806e-28
2.4311993e-28
1.3742169e-28
6.5159283e-29
2.4915109e-29
6.1797836e-30
9.1616318e-31
8.1594599e-32
4.5533385e-33
1.5653141e-34
3.1750191e-36
5.2669416e-38
1.9524439e-38
1.9384245e-37
1.0991762e-38
1.9237702e-42
2.1748662e-44
1.3122009e-42
1.9658932e-43
3.6160642e-45
3.0789761e-47
9.3523494e-49
4.5003987e-50
7.2210801e-52
4.9653769e-54
5.0905276e-56
3.0895948e-58
1.2172283e-59
3.1029035e-60
4.2281981e-61
3.2650479e-62
5.8020812e-62
1.6831329e-61
3.7596872e-62
3.0330833e-63
2.1971322e-63
5.0314744e-64
9.7142825e-65
1.9514187e-65
1.5616693e-66
8.3144036e-68
1.6028161e-69
1.8918309e-71
1.7507108e-73
1.1133845e-75
1.1214692e-77
2.0931987e-79
2.1031134e-81
1.7277707e-83
1.103343e-85
1.3736372e-87
1.7761184e-85
1.2133957e-83
1.4497714e-81
1.3613228e-79
1.0496337e-77
7.1208722e-76
3.3444002e-74
2.7761965e-73
1.3513826e-71
2.1337175e-69
3.7607287e-67
1.8006868e-65
1.9845577e-64
1.8725787e-63
3.8540882e-62
1.8500575e-61
1.4183443e-61
3.3175416e-61
3.9887983e-60
8.0933082e-60
5.9387719e-60
8.1965589e-60
7.8066312e-58
7.9089894e-56
7.5561002e-54
6.8755897e-52
5.9557982e-50
4.8116587e-48
3.6791434e-46
2.7817945e-44
2.0078194e-42
1.6431163e-40
1.2355163e-38
7.355653e-37
3.6861682e-35
1.0415259e-33
5.1149282e-33
7.0263972e-34
2.5673155e-35
6.1701668e-34
9.1401641e-33
1.0728786e-31
1.0703249e-30
9.0704723e-30
6.3770584e-29
3.4509785e-28
1.297967e-27
3.2768986e-27
6.4885146e-27
1.2138551e-26
1.2269631e-26
6.9572305e-27
3.3348524e-27
1.2793576e-27
3.1845459e-28
4.8156817e-29
4.5103101e-30
2.755e-31
1.0742801e-32
2.3952753e-34
8.8300513e-36
9.5061973e-36
8.2848594e-35
5.8608211e-36
1.3336191e-39
1.5749814e-41
4.2439824e-40
5.083914e-41
7.3206579e-43
8.1429605e-45
1.3504172e-46
1.3164168e-47
2.8673093e-49
1.7820835e-51
1.8240653e-53
8.0474925e-56
5.1354453e-57
1.1034261e-57
1.5310595e-58
1.0881598e-59
1.4533963e-59
4.32291e-59
9.4684702e-60
8.7980795e-61
6.3190249e-61
1.5581078e-61
3.1568044e-62
6.9338595e-63
5.6965939e-64
2.7558319e-65
5.5828984e-67
7.1233565e-69
5.2935683e-71
4.1035721e-73
6.3882795e-75
6.1333035e-77
4.9925564e-79
3.6444861e-81
2.1676932e-83
2.4327597e-85
2.7977627e-83
2.0533932e-81
2.5593122e-79
2.5571216e-77
2.1221448e-75
1.4976233e-73
9.1246218e-72
3.5572755e-70
4.4270464e-69
5.950401e-67
9.6459936e-65
5.1055911e-63
6.4812038e-62
6.8121713e-61
1.0897102e-59
4.2635012e-59
3.292495e-59
7.5313477e-59
8.5383734e-58
1.6287462e-57
8.4319616e-58
3.1968463e-57
3.3719877e-55
3.4306826e-53
3.2615484e-51
2.9050774e-49
2.4358816e-47
1.9395977e-45
1.4754516e-43
1.0741879e-41
7.6857175e-40
5.9994603e-38
4.3576679e-36
2.5681476e-34
1.2744538e-32
3.2097449e-31
1.325981e-30
1.9345142e-31
5.4051618e-33
3.5602757e-32
5.0660801e-31
5.5841037e-30
5.2333699e-29
4.1815972e-28
2.8043274e-27
1.4765141e-26
5.5016078e-26
1.3800444e-25
2.6800167e-25
4.9793134e-25
5.0353666e-25
2.8769149e-25
1.3975279e-25
5.3881185e-26
1.3484981e-26
2.0839429e-27
2.0570174e-28
1.3739836e-29
6.0280236e-31
1.4635876e-32
6.0308536e-34
3.6420085e-33
2.938416e-32
2.6315936e-33
1.9785165e-36
9.2581926e-39
1.0042266e-37
1.0193004e-38
1.341094e-40
1.9678353e-42
2.8236398e-44
9.7737619e-45
5.6721886e-46
3.0344077e-48
5.5343682e-51
3.3721168e-53
2.1241892e-54
3.6195199e-55
4.7694551e-56
2.8538462e-57
3.2547497e-57
9.6286574e-57
2.0815777e-57
2.2017978e-58
1.5620064e-58
4.128055e-59
8.6138452e-60
2.0539494e-60
1.6886314e-61
8.0010599e-63
1.6707527e-64
2.0277288e-66
1.399942e-68
1.802048e-70
1.8413684e-72
1.3375623e-74
9.4889735e-77
6.3781939e-79
3.5919734e-81
3.705748e-83
3.8647325e-81
3.0100653e-79
3.8772816e-77
4.0526545e-75
3.5931017e-73
2.7192915e-71
1.8304688e-69
9.6536233e-68
1.5860381e-66
1.2379792e-64
1.8094516e-62
1.2611925e-60
1.8551424e-59
2.1351196e-58
2.4929922e-57
8.5488871e-57
6.7151336e-57
1.5641128e-56
1.6718415e-55
3.0091792e-55
1.1242095e-55
1.1843835e-54
1.299291e-52
1.3339193e-50
1.267066e-48
1.1187087e-46
9.2391374e-45
7.1942028e-43
5.3164901e-41
3.7596141e-39
2.5932495e-37
1.9111316e-35
1.3411371e-33
7.824072e-32
3.8480043e-30
8.5676632e-29
2.9644435e-28
4.4870181e-29
1.0923378e-30
1.7646091e-30
2.3956761e-29
2.4673797e-28
2.1587965e-27
1.6138524e-26
1.0242583e-25
5.2147422e-25
1.9150645e-24
4.7362238e-24
8.9301879e-24
1.6435591e-23
1.6640133e-23
9.5984747e-24
4.7636206e-24
1.8610284e-24
4.7047412e-25
7.4475218e-26
7.7857954e-27
5.7034016e-28
2.8036349e-29
7.4595429e-31
1.5415671e-31
1.1654041e-30
8.7991143e-30
1.0148853e-30
2.9504831e-33
4.5038273e-36
1.1881738e-35
1.0392172e-36
1.6400516e-38
3.9404435e-40
3.9674421e-42
4.2323854e-43
1.8346559e-44
1.1833553e-46
2.2306744e-49
2.5638794e-51
5.6481276e-52
1.0458975e-52
1.2815437e-53
7.3044542e-55
6.5779663e-55
1.8849451e-54
4.0400956e-55
4.8334768e-56
3.4143782e-56
9.5078958e-57
2.073336e-57
5.4044678e-58
4.3185831e-59
2.0360229e-60
4.3582633e-62
4.1669917e-64
4.2916913e-66
5.4391814e-68
3.8140498e-70
2.3699078e-72
1.5210111e-74
9.5673746e-77
5.1455126e-79
4.9393051e-81
4.7448901e-79
3.8902255e-77
5.1493651e-75
5.5776156e-73
5.1923633e-71
4.217621e-69
3.0327113e-67
1.9088348e-65
8.3556266e-64
2.0760265e-62
2.7859665e-60
2.6649962e-58
4.9547119e-57
6.7810355e-56
4.9096009e-55
1.5182024e-54
1.21892e-54
2.9700321e-54
2.9678594e-53
5.2190078e-53
2.0321589e-53
3.892368e-52
4.4340765e-50
4.6271309e-48
4.4111466e-46
3.8696555e-44
3.1484418e-42
2.395997e-40
1.7179467e-38
1.1702871e-36
7.6835894e-35
5.3379993e-33
3.6497658e-31
2.1024814e-29
1.022235e-27
1.995794e-26
5.7885685e-26
8.90688e-27
1.8603603e-28
7.7154334e-29
9.7664133e-28
9.3214397e-27
7.5559617e-26
5.239753e-25
3.1064243e-24
1.5125594e-23
5.4512656e-23
1.3272469e-22
2.4218746e-22
4.444472e-22
4.5071645e-22
2.6076532e-22
1.3227089e-22
5.2495215e-23
1.3425941e-23
2.1920013e-24
2.4541296e-25
1.9833227e-26
1.0912936e-27
3.1353461e-29
3.3859577e-29
3.1325438e-28
2.2738362e-27
3.3981916e-28
1.8373886e-30
1.865182e-33
7.7759575e-34
6.1348918e-35
3.049399e-36
1.1235519e-37
8.5805358e-40
6.0901425e-42
3.6759299e-43
4.102661e-45
9.4874982e-48
5.0861484e-49
1.5153746e-49
2.6959205e-50
2.7350949e-51
1.6005462e-52
1.1992061e-52
3.3104704e-52
7.0110496e-53
9.4445296e-54
6.8053687e-54
1.9945256e-54
4.4139833e-55
1.2292311e-55
9.8087691e-57
4.5057259e-58
9.4621455e-60
9.1857545e-62
1.3331686e-63
1.0905266e-65
6.4356106e-68
3.5838228e-70
2.1186818e-72
1.2571468e-74
6.4869634e-77
5.8380745e-79
5.2330196e-77
4.49217e-75
6.0876896e-73
6.7943614e-71
6.5779923e-69
5.6375265e-67
4.3675841e-65
3.0732962e-63
1.8388979e-61
4.0857434e-60
3.9573148e-58
5.2902833e-56
1.2059557e-54
1.4584778e-53
8.3197161e-53
2.4149538e-52
1.986864e-52
5.111118e-52
4.6593445e-51
8.2914209e-51
3.4652687e-51
1.100265e-49
1.3261487e-47
1.4254659e-45
1.374572e-43
1.2030053e-41
9.6588876e-40
7.1834367e-38
4.9933246e-36
3.2695635e-34
2.0416368e-32
1.3269012e-30
8.8135071e-29
5.0110598e-27
2.4039652e-25
4.0966185e-24
9.9418009e-24
1.5285027e-24
1.9264611e-26
3.4092062e-27
3.5012213e-26
3.0229125e-25
2.2482099e-24
1.4339799e-23
7.8476506e-23
3.6162735e-22
1.2939286e-21
3.2518686e-21
6.0735434e-21
1.1166761e-20
1.1313351e-20
6.554906e-21
3.2276992e-21
1.2352131e-21
3.1258469e-22
5.2988777e-23
6.4487843e-24
5.7878481e-25
3.5641492e-26
1.1211341e-27
2.5274072e-27
7.1898788e-26
5.089454e-25
1.0032084e-25
9.1132585e-28
6.7340757e-31
2.6658985e-31
1.4537479e-32
9.2930788e-34
4.4853741e-35
3.5127447e-37
1.4475146e-39
1.2352182e-41
1.1426053e-43
1.0140708e-45
1.5303791e-46
3.8104597e-47
6.0577214e-48
5.3862668e-49
3.146116e-50
1.9973496e-50
5.2489883e-50
1.1020509e-50
1.672477e-51
1.3111146e-51
4.205525e-52
8.7309924e-53
2.4912365e-53
1.9815646e-54
8.9739891e-56
1.6356204e-57
2.3264227e-59
2.6346595e-61
1.7594297e-63
9.3148174e-66
4.7609941e-68
2.6164907e-70
1.4702677e-72
7.2958592e-75
6.18463e-77
5.2293343e-75
4.6831777e-73
6.4812627e-71
7.42529e-69
7.4332205e-67
6.654505e-65
5.4789507e-63
4.1851006e-61
3.0445592e-59
1.7723636e-57
5.6751347e-56
9.6465474e-54
2.6829549e-52
2.5174574e-51
1.2392164e-50
3.4680411e-50
2.9281015e-50
8.1481208e-50
6.6720371e-49
1.2050146e-48
5.3218302e-49
2.5467276e-47
3.4055029e-45
3.8613338e-43
3.818552e-41
3.3596768e-39
2.6726531e-37
1.9460329e-35
1.3109799e-33
8.245345e-32
4.8973755e-30
2.9565096e-28
1.8902134e-26
1.0659892e-24
5.015733e-23
7.4099438e-22
1.510533e-21
2.284111e-22
1.6134518e-24
1.8902761e-25
1.1800207e-24
8.4887166e-24
5.7271379e-23
3.3304676e-22
1.6968814e-21
7.4613875e-21
2.7150157e-20
7.5745854e-20
1.5925104e-19
2.8140542e-19
2.8235614e-19
1.7123461e-19
7.655073e-20
2.5874142e-20
6.2351996e-21
1.0900301e-21
1.4307538e-22
1.4161538e-23
9.7901158e-25
3.7065742e-26
1.00597e-25
1.4215935e-23
9.912949e-23
2.5931568e-23
4.1743247e-25
2.1320098e-28
8.8221559e-29
3.3698523e-30
1.8083186e-31
1.1810209e-32
1.2478467e-34
4.2344934e-37
3.3798288e-39
2.8340874e-41
2.4282762e-43
3.5851241e-44
8.0458797e-45
1.2088246e-45
9.2928825e-47
5.8809402e-48
3.1387552e-48
7.5389083e-48
1.5932713e-48
2.6667696e-49
2.2780289e-49
7.5233554e-50
1.6885108e-50
4.3833204e-51
3.7154029e-52
1.624567e-53
2.8911325e-55
4.7112027e-57
4.0802764e-59
2.4323269e-61
1.1908455e-63
5.6620748e-66
2.9071448e-68
1.549329e-70
7.3997289e-73
5.9233983e-75
4.7688003e-73
4.4451383e-71
6.2710052e-69
7.3558836e-67
7.5845825e-65
7.0497088e-63
6.1026067e-61
5.023498e-59
4.1646496e-57
3.588374e-55
1.579587e-53
1.7459948e-51
4.9571289e-50
3.700047e-49
1.6459953e-48
4.5206854e-48
4.0031072e-48
1.2083107e-47
8.8417114e-47
1.6003412e-46
6.1030504e-47
4.3639258e-45
7.0915026e-43
8.9257494e-41
9.2788209e-39
8.3142515e-37
6.6004418e-35
4.7218794e-33
3.0864911e-31
1.8636245e-29
1.0501457e-27
5.8605058e-26
3.5877161e-24
2.0141619e-22
9.2262837e-21
1.1803666e-19
2.0536314e-19
3.0127092e-20
1.3123499e-22
1.4608786e-23
4.3001628e-23
2.1281436e-22
1.3045921e-21
6.7445494e-21
3.2223204e-20
1.3613939e-19
4.9237175e-19
1.4269216e-18
3.2602638e-18
5.3559728e-18
5.2870505e-18
3.4410509e-18
1.5061804e-18
4.7611408e-19
1.123613e-19
2.0001455e-20
2.7565902e-21
2.9934152e-22
2.3443533e-23
1.3945111e-24
5.1584845e-24
2.4320192e-21
1.6835427e-20
5.8867238e-21
1.4963788e-22
5.9615614e-26
2.6265251e-26
8.2770323e-28
2.3361307e-29
1.0397186e-30
1.0375549e-32
5.2040543e-35
4.5928951e-37
4.0050473e-39
3.978781e-41
6.7220775e-42
1.431642e-42
1.9266324e-43
1.408521e-44
1.0140338e-45
4.3891049e-46
9.8404188e-46
2.1551834e-46
3.7932255e-47
3.3637583e-47
1.11285e-47
2.6718046e-48
6.5809238e-49
6.2799563e-50
2.678469e-51
5.6561907e-53
7.0956859e-55
5.3827528e-57
2.9745451e-59
1.3697838e-61
6.11056e-64
2.9397139e-66
1.4856319e-68
6.8281673e-71
5.1663452e-73
3.9926172e-71
3.8682636e-69
5.5553314e-67
6.660817e-65
7.0533239e-63
6.7789244e-61
6.1296782e-59
5.3739894e-57
4.9398134e-55
5.3178896e-53
5.7205786e-51
3.3126034e-49
7.2707265e-48
4.7346401e-47
1.9669842e-46
5.3589362e-46
5.3447922e-46
1.6655436e-45
1.0833117e-44
1.942089e-44
1.1692654e-44
1.0929172e-42
1.0999871e-40
1.6678365e-38
1.9158424e-36
1.7901081e-34
1.4357123e-32
1.0158461e-30
6.4637764e-29
3.7508111e-27
2.0034969e-25
1.0302637e-23
5.9903067e-22
3.3618513e-20
1.4824165e-18
1.649584e-17
2.5473336e-17
3.8809549e-18
9.932631e-21
2.1876313e-21
1.969953e-21
5.3328389e-21
2.9887341e-20
1.269221e-19
5.1940016e-19
1.9501099e-18
6.388291e-18
1.6617271e-17
3.7956614e-17
6.1543301e-17
6.0811147e-17
3.9968864e-17
1.8630398e-17
6.294683e-18
1.5777033e-18
2.9917519e-19
4.6285463e-20
5.8843222e-21
5.3335651e-22
7.7832384e-23
3.3150328e-22
3.6024428e-19
2.540295e-18
1.1580491e-18
4.3205441e-20
1.4864331e-23
6.6539591e-24
2.1492625e-25
3.4351708e-27
7.1748579e-29
8.0845579e-31
8.4234635e-33
8.5221907e-35
6.6847746e-37
5.8213954e-39
1.252847e-39
2.3911064e-40
2.7539525e-41
1.8880477e-42
1.4626516e-43
5.7783708e-44
1.1809508e-43
2.7354429e-44
4.8660071e-45
4.3390651e-45
1.4159567e-45
3.4995358e-46
8.4175084e-47
9.4509479e-48
4.0643921e-49
8.4056212e-51
8.9832353e-53
6.2746865e-55
3.2797067e-57
1.4359915e-59
6.0475605e-62
2.7310344e-64
1.3072301e-66
5.7760366e-69
4.1288134e-71
3.0848767e-69
3.1046838e-67
4.5338129e-65
5.5491227e-63
6.0232755e-61
5.9674651e-59
5.6113787e-57
5.2027608e-55
5.2311805e-53
6.5384244e-51
9.4013181e-49
5.830467e-47
9.0820208e-46
5.3856851e-45
2.114731e-44
5.6540319e-44
6.5688976e-44
2.1137603e-43
1.2255945e-42
2.1354301e-42
2.7302111e-42
2.7375992e-40
2.4530314e-38
2.3209905e-36
3.2073558e-34
3.2733099e-32
2.7095037e-30
1.9177143e-28
1.1953997e-26
6.6872887e-25
3.3909922e-23
1.6095429e-21
8.7320489e-20
4.9468517e-18
2.1366961e-16
1.8702144e-15
2.1025208e-15
2.994983e-16
6.3375252e-19
6.1347656e-19
1.8574486e-19
1.6967912e-19
8.0244893e-19
2.4373875e-18
7.0851816e-18
2.0789711e-17
5.6026365e-17
1.2774668e-16
2.5388828e-16
4.2072097e-16
4.3381267e-16
2.8022106e-16
1.3597897e-16
5.1041135e-17
1.4300739e-17
3.229893e-18
6.4663225e-19
1.0541033e-19
1.300411e-20
5.2316076e-21
2.1611023e-20
4.5967688e-17
2.9835717e-16
1.9192301e-16
1.041464e-17
2.7797571e-20
1.5980731e-21
3.7318692e-23
7.2307621e-25
1.2960887e-26
1.7874868e-28
2.0871745e-30
1.8850355e-32
1.0438738e-34
1.2315849e-36
1.9570777e-37
3.5898138e-38
3.7813462e-39
2.4056008e-40
1.9927606e-41
6.8134517e-42
1.3102311e-41
3.257398e-42
5.6777289e-43
4.9564796e-43
1.591887e-43
3.9740386e-44
9.396906e-45
1.1911953e-45
5.5169769e-47
1.0261208e-48
1.0007184e-50
6.5987607e-53
3.302918e-55
1.3855017e-57
5.5359669e-60
2.3495749e-62
1.0632382e-64
4.5079302e-67
3.0396027e-69
2.2095599e-67
2.3096652e-65
3.4273341e-63
4.2771392e-61
4.7518923e-59
4.8427328e-57
4.7208813e-55
4.6065483e-53
5.0190786e-51
7.0475016e-49
1.1808583e-46
7.5975117e-45
9.9167511e-44
5.5176174e-43
2.0869718e-42
5.4759602e-42
7.2882564e-42
2.44489e-41
1.2849109e-40
2.0948547e-40
5.7892717e-40
5.9626224e-38
5.3616829e-36
4.267047e-34
4.0314453e-32
4.8652112e-30
4.3201907e-28
3.1161187e-26
1.9215852e-24
1.0419369e-22
5.0366675e-21
2.2317129e-19
1.0986211e-17
6.4193199e-16
2.2882788e-14
1.3933286e-13
6.0430695e-14
2.1367497e-14
1.2519155e-17
1.175184e-17
3.1254604e-17
7.1861823e-18
2.8337256e-17
5.8633137e-17
1.0945358e-16
2.2618517e-16
4.6811201e-16
1.3042742e-15
1.3906836e-15
1.936137e-15
1.9905378e-15
1.6674501e-15
7.8385479e-16
2.9709527e-16
1.0051539e-16
3.2564377e-17
8.6121982e-18
1.598162e-18
5.8749012e-19
1.9205727e-19
1.2938644e-18
5.0380023e-15
1.1552305e-14
2.2656652e-14
2.1354592e-15
1.4789996e-17
3.4768027e-19
8.1243917e-21
1.6367512e-22
2.8474743e-24
4.1127115e-26
4.572016e-28
3.102783e-30
2.9277188e-32
3.7922685e-34
1.9457777e-35
4.7818888e-36
4.7097835e-37
2.9034732e-38
2.2324334e-39
7.3061133e-40
1.3482953e-39
3.6181369e-40
6.1601136e-41
5.0431485e-41
1.6061879e-41
4.0056509e-42
9.3306721e-43
1.2808766e-43
6.2151083e-45
1.0939937e-46
1.0046539e-48
6.3463398e-51
3.0675829e-53
1.2400789e-55
4.7211571e-58
1.8851145e-60
8.0465862e-63
3.2649606e-65
2.0712289e-67
1.4729271e-65
1.5996883e-63
2.4106697e-61
3.0649327e-59
3.480932e-57
3.6432652e-55
3.6741884e-53
3.7630877e-51
4.4162515e-49
6.8412462e-47
1.2662519e-44
8.2874198e-43
9.6796173e-42
5.1357134e-41
1.8930003e-40
4.9117283e-40
7.369468e-40
2.5749368e-39
1.2505267e-38
1.8310593e-38
1.0626385e-37
1.1245754e-35
1.0253224e-33
8.1020024e-32
5.6757942e-30
5.1550076e-28
5.2431024e-26
3.9847356e-24
2.4728884e-22
1.3133204e-20
6.0936083e-19
2.5248128e-17
1.0990173e-15
6.0846495e-14
1.9987375e-12
1.1411991e-11
3.885535e-12
1.2952026e-12
6.5309254e-17
3.179396e-17
9.8989452e-16
3.5542928e-16
1.2662124e-15
2.0905872e-15
3.2140754e-15
4.7186073e-15
7.6638824e-15
2.5873177e-14
1.5638841e-14
1.0679021e-14
8.2965365e-15
1.7434729e-14
9.2588823e-15
2.6785415e-15
1.1664658e-15
6.3934859e-16
1.950065e-16
3.0692448e-17
5.3441379e-17
2.2822079e-18
7.46962e-17
4.4944907e-13
6.395472e-13
2.3293021e-12
2.8456995e-13
3.8906523e-15
6.3856504e-17
1.5149149e-18
3.2087121e-20
5.6359491e-22
7.778223e-24
7.1078666e-26
5.6980595e-28
8.4339111e-30
1.0983749e-31
2.0493537e-33
5.3424839e-34
5.4029633e-35
3.1664226e-36
2.1942898e-37
7.3222259e-38
1.2912741e-37
3.7630429e-38
6.5601921e-39
4.567481e-39
1.4666181e-39
3.6338336e-40
8.3581368e-41
1.2170051e-41
6.127726e-43
1.0480459e-44
9.2259536e-47
5.6371183e-49
2.6476947e-51
1.0363849e-53
3.7740098e-56
1.4194626e-58
5.7008874e-61
2.2064737e-63
1.3119669e-65
9.170435e-64
1.0358355e-61
1.5842412e-59
2.0504324e-57
2.3780956e-55
2.552937e-53
2.6596411e-51
2.8548484e-49
3.5973721e-47
6.0733626e-45
1.2090555e-42
7.9493572e-41
8.5633283e-40
4.3713265e-39
1.5811357e-38
4.075432e-38
6.8187282e-38
2.472336e-37
1.1323435e-36
1.4765143e-36
1.1590519e-35
1.4625658e-33
1.5463621e-31
1.234334e-29
8.5010926e-28
5.1893197e-26
4.1684486e-24
3.5137538e-22
2.2608321e-20
1.2001549e-18
5.4856063e-17
2.0130556e-15
5.1831175e-14
2.5999309e-12
1.449119e-10
7.6402522e-10
2.320112e-10
7.2638015e-11
6.2762692e-16
1.3456081e-16
6.7884468e-15
1.588129e-14
3.9605801e-14
4.2563007e-14
5.6367903e-14
7.0252212e-14
8.4386238e-14
1.6371716e-13
1.2653699e-13
6.8908357e-14
4.2965232e-14
9.5074811e-14
7.2617999e-14
3.2654033e-14
1.7720924e-14
1.0589326e-14
3.5261109e-15
9.0195428e-16
7.1025138e-16
9.0115861e-17
1.900686e-15
3.3536732e-11
4.2815384e-11
1.9083464e-10
2.9213546e-11
1.7993673e-13
5.114222e-15
2.0434394e-16
4.5861581e-18
7.7990132e-20
9.4630412e-22
7.5713463e-24
1.3084434e-25
2.015061e-27
2.5904135e-29
3.4364733e-31
5.3108538e-32
5.6228766e-33
2.9134855e-34
1.9359726e-35
6.7683652e-36
1.1514934e-35
3.6633588e-36
7.0417916e-37
3.7315217e-37
1.2197968e-37
2.9948314e-38
6.8194735e-39
1.042479e-39
5.432812e-41
9.1754855e-43
7.8323521e-45
4.6607809e-47
2.1371346e-49
8.132849e-52
2.84329e-54
1.0090244e-56
3.8034582e-59
1.3986417e-61
7.7561311e-64
5.3497578e-62
6.291908e-60
9.7622014e-58
1.2854562e-55
1.5212152e-53
1.6731083e-51
1.7989304e-49
2.0228559e-47
2.7316963e-45
4.9823564e-43
1.0471604e-40
6.8593841e-39
6.9280945e-38
3.4196795e-37
1.218581e-36
3.1288809e-36
5.785535e-36
2.1633506e-35
9.5142409e-35
1.166076e-34
6.2900898e-34
8.3386777e-32
1.058248e-29
1.078491e-27
8.970987e-26
5.4354424e-24
2.8610563e-22
1.8983188e-20
1.3209166e-18
7.8645634e-17
3.0832055e-15
3.8689621e-14
5.0631002e-13
1.3366975e-11
7.8209126e-09
3.8961298e-08
1.382291e-08
3.76839e-09
1.9069841e-14
1.1705731e-15
5.816853e-14
3.8539493e-13
4.8841559e-13
2.4790733e-13
2.4534387e-13
3.0341461e-13
2.3036673e-13
3.4220453e-13
3.3032142e-13
2.0078406e-13
1.4689037e-13
1.7287869e-13
1.5512363e-13
1.2944197e-13
9.701958e-14
7.0012652e-14
2.4429252e-14
1.2890354e-14
1.2371684e-15
2.0520232e-15
1.7818202e-13
1.9757711e-09
2.5632683e-09
1.1934685e-08
2.3454738e-09
5.8611902e-12
7.1018669e-14
2.7259276e-15
3.3393484e-16
8.3078678e-18
7.3064394e-20
1.1812106e-21
2.1608611e-23
3.3266611e-25
4.2103769e-27
4.2068149e-29
5.2108575e-30
4.7715816e-31
2.3546942e-32
1.5727024e-33
5.7511225e-34
9.5414448e-34
3.2068224e-34
6.5282187e-35
2.8405248e-35
9.2747502e-36
2.2574962e-36
5.1037342e-37
8.1524643e-38
4.4013677e-39
7.4266592e-41
6.1966376e-43
3.6096177e-45
1.6221394e-47
6.0229548e-50
2.0288797e-52
6.8081057e-55
2.4032576e-57
8.3591937e-60
4.2964089e-62
2.933179e-60
3.5974158e-58
5.6598434e-56
7.5775088e-54
9.14244e-52
1.0294419e-49
1.1415085e-47
1.3450848e-45
1.9456801e-43
3.8080334e-41
8.3377793e-39
5.401286e-37
5.159039e-36
2.468241e-35
8.6825583e-35
2.2243253e-34
4.509041e-34
1.7292978e-33
7.3984451e-33
8.8398156e-33
2.0966527e-32
2.3891616e-30
3.4105122e-28
3.7478048e-26
3.2779199e-24
2.3445437e-22
1.3916324e-20
7.145056e-19
4.5173502e-17
2.1061131e-15
3.6835644e-14
9.472341e-13
2.160506e-11
5.3569513e-10
3.1363888e-08
2.4411619e-06
1.4001993e-05
1.1304301e-05
5.2124284e-13
1.9314714e-14
5.9811123e-13
1.2861114e-11
9.0868798e-11
8.6081433e-12
7.5564713e-12
8.9794201e-12
1.461524e-12
4.188244e-13
4.3275619e-13
2.8953447e-13
3.2423264e-13
2.386876e-13
1.6833145e-13
1.878434e-13
2.3171958e-13
3.5315233e-13
1.813831e-13
5.7448803e-13
1.8233797e-15
2.1132532e-14
5.3986631e-12
2.5424088e-06
5.3733463e-06
1.7503093e-06
7.8336756e-08
1.3554318e-10
4.7186216e-12
2.2925526e-13
9.3551366e-15
1.3844474e-15
1.83584e-17
1.2966637e-19
2.379091e-21
3.6535048e-23
3.174208e-25
2.9066319e-27
4.7545352e-28
3.5572262e-29
1.6541353e-30
1.1643629e-31
4.5290738e-32
7.3423918e-32
2.5310119e-32
5.3445275e-33
1.9992904e-33
6.4781197e-34
1.5645632e-34
3.5222741e-35
5.8723858e-36
3.2939706e-37
5.6064772e-39
4.6001085e-41
2.633371e-43
1.1634912e-45
4.2280984e-48
1.3773834e-50
4.3822673e-53
1.4465415e-55
4.7357498e-58
2.2389388e-60
1.515782e-58
1.9420674e-56
3.0969018e-54
4.2135069e-52
5.1789416e-50
5.9665405e-48
6.8230387e-46
8.4318737e-44
1.3062058e-41
2.7281424e-39
6.1616029e-37
3.9194158e-35
3.5538699e-34
1.6487484e-33
5.7304354e-33
1.4660042e-32
3.2291881e-32
1.2640489e-31
5.2940942e-31
5.9991611e-31
6.9231734e-31
3.2911683e-29
5.5254117e-27
6.7745965e-25
6.3389123e-23
4.7133535e-21
2.8639989e-19
1.4646308e-17
6.6461215e-16
2.363556e-14
7.3659889e-13
1.9209311e-11
4.5866857e-10
9.6566166e-09
1.8420718e-06
4.3530236e-05
7.8379598e-05
7.227901e-05
5.5118424e-06
7.2950314e-13
2.1143473e-11
9.7598311e-11
2.0497771e-09
7.4794914e-09
2.8257148e-10
3.1262745e-10
3.2136379e-11
1.5742914e-12
2.2545186e-12
2.0145721e-12
2.0822948e-12
8.7599233e-13
3.295955e-13
4.298776e-13
5.1959299e-12
1.0659653e-11
6.870198e-12
4.0840128e-11
2.0120645e-14
5.0428452e-13
4.059894e-06
2.2619986e-05
2.3957099e-05
2.1022385e-05
4.3021327e-06
6.8070047e-09
3.3524556e-10
1.4004232e-11
5.5012695e-13
1.8631962e-14
5.0181067e-16
9.8656075e-18
1.4241041e-19
1.5093012e-21
1.1228174e-23
1.7646791e-25
3.9485696e-26
1.9505837e-27
1.0981629e-28
7.3623563e-30
3.2499161e-30
5.2258163e-30
1.8064917e-30
3.9178578e-31
1.2999292e-31
4.1725839e-32
1.0011783e-32
2.2517593e-33
3.921815e-34
2.2961413e-35
3.9770037e-37
3.2231421e-39
1.8185334e-41
7.9211847e-44
2.8253539e-46
8.9325201e-49
2.7036054e-51
8.3408771e-54
2.5577059e-56
1.1023535e-58
7.4034712e-57
9.9286372e-55
1.604047e-52
2.2164588e-50
2.7734851e-48
3.2672636e-46
3.855254e-44
5.0061683e-42
8.308237e-40
1.8424322e-37
4.256504e-35