/*--------------------------------*- C++ -*----------------------------------*\
  =========                 |
  \\      /  F ield         | OpenFOAM: The Open Source CFD Toolbox
   \\    /   O peration     | Website:  https://openfoam.org
    \\  /    A nd           | Version:  9
     \\/     M anipulation  |
\*---------------------------------------------------------------------------*/
FoamFile
{
    format      ascii;
    class       volScalarField;
    location    "0.36";
    object      p;
}
// * * * * * * * * * * * * * * * * * * * * * * * * * * * * * * * * * * * * * //

dimensions      [1 -1 -2 0 0 0 0];

internalField   nonuniform List<scalar> 
10000
(
0
0.038992643
0.063354834
0.086965543
0.11549458
0.15102545
0.19352798
0.25037389
0.31555792
0.38945457
0.47134417
0.56070603
0.65700464
0.75969814
0.8682261
0.98198442
1.1003242
1.2225477
1.3479374
1.4757618
1.6052148
1.7354558
1.8656542
1.9949412
2.1224259
2.2472132
2.368408
2.4850793
2.5960199
2.6997587
2.7966629
2.8866688
2.9721628
3.0563393
3.1341824
3.2034711
3.2641767
3.3168091
3.3617624
3.3993157
3.4296514
3.4526238
3.4689438
3.473005
3.4776089
3.4877772
3.4985581
3.5088316
3.5182109
3.5265592
3.5337535
3.5397163
3.5440496
3.5464333
3.546474
3.543631
3.5373463
3.5271146
3.5124358
3.4925374
3.4672964
3.4360673
3.3979115
3.3590281
3.3156813
3.2625567
3.1988747
3.1251634
3.0426281
2.9518747
2.8527516
2.7464373
2.6341201
2.5167662
2.3953654
2.2708851
2.1443197
2.0166271
1.8887903
1.7617599
1.636483
1.5138513
1.3947013
1.2799008
1.1702932
1.0667432
0.97018968
0.88187202
0.80472225
0.73443088
0.66233157
0.59411735
0.5317947
0.46983506
0.40624027
0.3483481
0.29999705
0.26580782
0.23138339
0.20519038
-0.055733102
-0.019082959
0.0070034161
0.035481118
0.069420642
0.11015175
0.15873994
0.21718958
0.28423764
0.35960521
0.44281853
0.53341036
0.63091405
0.73483327
0.84464074
0.95976096
1.0795658
1.2033986
1.3305579
1.460266
1.5917678
1.7241968
1.8567047
1.9884124
2.1184079
2.2457799
2.3696022
2.4889473
2.6028993
2.7107056
2.8122379
2.9079069
2.997277
3.0818624
3.1596154
3.2295445
3.2914651
3.3455402
3.3920283
3.4312314
3.4635063
3.4891424
3.5084866
3.5212414
3.5316314
3.5425317
3.5535274
3.564072
3.5737904
3.5825559
3.5901427
3.5963699
3.6008447
3.6031702
3.602854
3.599434
3.592317
3.5809377
3.5648147
3.5435563
3.5167706
3.4846569
3.44879
3.4041747
3.3485941
3.2883
3.2190915
3.1412848
3.0549493
2.9604808
2.8582848
2.7492108
2.6341695
2.5141762
2.3901825
2.2631897
2.1342249
2.0042677
1.8742921
1.7452675
1.6181198
1.4937309
1.3728952
1.25646
1.1451376
1.0397234
0.94093708
0.84948283
0.76590168
0.68850867
0.61408634
0.54278755
0.47212371
0.40604778
0.34887931
0.2980468
0.25281451
0.22575595
0.19291417
0.16795598
-0.1043755
-0.069265906
-0.041374044
-0.0096308268
0.028305323
0.072860763
0.12500511
0.18551001
0.25432952
0.33119919
0.41577813
0.50772413
0.60662188
0.71203762
0.8234734
0.94036522
1.0620876
1.1879942
1.3173891
1.4495457
1.5836006
1.7187474
1.8540902
1.9887137
2.121678
2.2520449
2.3788957
2.5013324
2.6185212
2.7298188
2.8350282
2.9348235
3.0243655
3.1089252
3.186566
3.2564196
3.3182713
3.3722469
3.4186061
3.457682
3.4899533
3.5160066
3.5365396
3.552432
3.5656826
3.5778864
3.5894342
3.6003269
3.6105611
3.6199693
3.628309
3.6352271
3.6405038
3.6436951
3.6442598
3.6415637
3.6350905
3.6242695
3.6085132
3.5873188
3.560349
3.5273788
3.4884239
3.4418976
3.3877419
3.3227124
3.2491331
3.1673409
3.0772631
2.9791807
2.8736099
2.7612782
2.6430309
2.5198245
2.3926803
2.2626035
2.1306173
1.9977419
1.8650162
1.7333706
1.6037426
1.4770147
1.3540208
1.2354846
1.1221915
1.0147041
0.91357975
0.81923726
0.73162795
0.64994882
0.57289074
0.50000161
0.43080304
0.36661272
0.30926654
0.25853605
0.21409877
0.18420038
0.14819287
0.12138862
-0.15830519
-0.12467718
-0.095324004
-0.0614123
-0.020729758
0.026677137
0.081479956
0.14417911
0.21489837
0.29349328
0.37977711
0.47346035
0.57421151
0.68160561
0.79517391
0.91438448
1.0386607
1.1673547
1.2997581
1.4351092
1.5725923
1.7113385
1.8504328
1.9889324
2.1258642
2.260244
2.3911003
2.5174904
2.6385168
2.7533656
2.861235
2.9608849
3.056229
3.1429704
3.2214666
3.2916078
3.3534423
3.4071312
3.4530186
3.4916135
3.5235405
3.5495464
3.5705512
3.5876388
3.6021335
3.6151238
3.6272087
3.6386587
3.6495679
3.6598608
3.6692553
3.6774512
3.6840732
3.6886211
3.690503
3.6890987
3.683757
3.6739099
3.6588314
3.6379663
3.6108493
3.5769785
3.5358638
3.4866341
3.4286398
3.3608064
3.2848294
3.1997638
3.1059592
3.0039063
2.8942189
2.7777098
2.655254
2.5278065
2.396428
2.2621768
2.1261322
1.9893488
1.8528723
1.7176948
1.5847435
1.4548819
1.3289357
1.2076884
1.0917368
0.98163949
0.87785995
0.78061204
0.68984677
0.60516417
0.5259934
0.45201415
0.38319999
0.32009265
0.26339396
0.21338082
0.17027909
0.13853965
0.1054394
0.080156602
-0.21831825
-0.18614986
-0.1553319
-0.11993185
-0.077263631
-0.027690047
0.029317737
0.094109796
0.16679019
0.2473372
0.33560785
0.43137639
0.53435451
0.6441845
0.76042083
0.8825535
1.0100209
1.1421906
1.2783649
1.4177703
1.559572
1.70288
1.8467408
1.9901614
2.1321144
2.2715563
2.4074534
2.5387784
2.6645461
2.7838439
2.8958134
2.9997152
3.0969755
3.1854108
3.2648073
3.3351647
3.3966483
3.4495262
3.4942729
3.5315541
3.5621976
3.5871518
3.6074677
3.6242745
3.6386956
3.651678
3.6639032
3.6757667
3.6873942
3.6987674
3.7095963
3.7195282
3.728087
3.7347014
3.7386939
3.73938
3.7360259
3.7279667
3.7144006
3.6946022
3.6680091
3.6339288
3.5916909
3.5406104
3.4801477
3.4097396
3.3302169
3.2411485
3.1429418
3.0361493
2.9214798
2.7997877
2.6720142
2.5391952
2.4024411
2.2628798
2.1216611
1.9798946
1.8386613
1.6989763
1.5618043
1.4280324
1.2984487
1.1737998
1.054668
0.94157141
0.83486485
0.73475226
0.64122868
0.5540936
0.47309958
0.39805924
0.32897056
0.26610249
0.2097585
0.16016021
0.11785319
0.085234143
0.053489226
0.029348364
-0.28485219
-0.25401107
-0.22102907
-0.1847787
-0.1408035
-0.089572631
-0.030708055
0.036011266
0.11067761
0.19328209
0.2837311
0.38186106
0.48742729
0.60010687
0.71948839
0.84509802
0.97638252
1.1127238
1.2534325
1.3977309
1.5447646
1.6935997
1.8432372
1.9926258
2.1406752
2.2862619
2.4282504
2.5655125
2.6969486
2.8215424
2.9383191
3.0462758
3.1462563
3.2364564
3.3167007
3.3870699
3.4477871
3.4992195
3.5420188
3.5770531
3.6053611
3.6280957
3.6464673
3.6617006
3.6749361
3.6871291
3.6990332
3.7111161
3.7235295
3.7362618
3.7489275
3.7611286
3.7722594
3.7816425
3.7885496
3.792214
3.7917333
3.7863203
3.7751094
3.7572153
3.7318827
3.6983196
3.6557149
3.6034531
3.5410984
3.4684975
3.3850097
3.2915213
3.1883852
3.0761407
2.9555875
2.8277052
2.693529
2.5542075
2.4109258
2.2649084
2.1173772
1.96954
1.822528
1.6773932
1.5351259
1.3966443
1.2627315
1.1341061
1.0113502
0.8949254
0.78514931
0.68221245
0.58614822
0.49687218
0.41424925
0.33817283
0.26862722
0.20570325
0.14949027
0.099900907
0.058976664
0.025791063
-0.0052163802
-0.028466784
-0.35875869
-0.33018871
-0.29160659
-0.25637516
-0.21176965
-0.15924268
-0.098763544
-0.030245452
0.046373966
0.13109707
0.22387897
0.32460053
0.4330528
0.54894589
0.67191571
0.80151505
0.93722084
1.0784252
1.2244407
1.37448
1.5276578
1.6830066
1.8394727
1.9959354
2.1512333
2.3041211
2.453351
2.5976572
2.7357955
2.8666125
2.9891233
3.1027754
3.2048937
3.2968455
3.3779104
3.4480175
3.5073951
3.5565825
3.5964405
3.62807
3.6527596
3.6719105
3.6869581
3.6993119
3.7102414
3.7208226
3.7318907
3.7439629
3.7572038
3.7716179
3.7865646
3.8016384
3.8161121
3.8291487
3.8398808
3.8474438
3.8508366
3.8490768
3.8412141
3.8262394
3.8030743
3.7708676
3.7286886
3.675833
3.6117961
3.5362849
3.4492804
3.3511519
3.2424841
3.1239834
2.996597
2.8614377
2.7196872
2.5726301
2.4215785
2.2678782
2.112856
1.9578073
1.8039545
1.6523957
1.5041765
1.3602057
1.2213061
1.0881554
0.96134118
0.84129523
0.72829352
0.62251508
0.52401126
0.4327551
0.34866857
0.2716268
0.20155961
0.13849455
0.082456911
0.033423848
-0.0078990348
-0.04086108
-0.071139105
-0.093564395
-0.43840441
-0.40969378
-0.37291593
-0.33644729
-0.29084174
-0.23705503
-0.17508518
-0.10487716
-0.026354174
0.060524208
0.15574495
0.25922694
0.37080417
0.49023473
0.61719606
0.75128058
0.89199376
1.0387448
1.1908408
1.347481
1.5077604
1.6706609
1.8350832
1.9998352
2.1636251
2.325103
2.4828528
2.6354401
2.7814416
2.91947
3.0482412
3.1666481
3.2730766
3.3674142
3.4493534
3.5188444
3.5761777
3.6221254
3.6578202
3.6846385
3.7041712
3.7181488
3.7283246
3.7363658
3.7437701
3.7518203
3.7614837
3.7733176
3.7874445
3.8038901
3.8217344
3.8404424
3.8591232
3.8767973
3.8924174
3.9049324
3.9133069
3.9163885
3.9130051
3.9020815
3.882236
3.8523728
3.8114668
3.7586093
3.6932123
3.6149917
3.5240304
3.4207611
3.3058393
3.1801369
3.0448203
2.901162
2.7505243
2.5943622
2.4341692
2.2714617
2.1076925
1.9442291
1.7824088
1.6234089
1.4683301
1.3180949
1.173555
1.0353863
0.90413028
0.78019512
0.66384624
0.55523084
0.45437969
0.36125568
0.27578632
0.19784879
0.12731771
0.064147065
0.0082958697
-0.04043999
-0.0816852
-0.11456705
-0.14420971
-0.16584467
-0.52491082
-0.49677012
-0.46089328
-0.42490442
-0.37826318
-0.32323167
-0.25987618
-0.18808532
-0.107725
-0.018700904
0.079005685
0.18535828
0.30025126
0.42349597
0.5548197
0.69385663
0.840143
0.99310946
1.1520574
1.3161702
1.4845325
1.6560892
1.829671
2.0039932
2.1776446
2.3491174
2.5168288
2.6791231
2.8343509
2.9808359
3.1169592
3.2413256
3.3523662
3.449493
3.5322561
3.6006073
3.6550089
3.6964922
3.7265284
3.7468533
3.759419
3.7663419
3.7697953
3.7718636
3.7743532
3.7788225
3.786439
3.7978066
3.8129782
3.8319424
3.8534618
3.8767606
3.9007002
3.9240953
3.9457734
3.9644922
3.979079
3.9883305
3.9908046
3.9851936
3.970001
3.9436861
3.9049608
3.8527938
3.7864072
3.7055227
3.6102252
3.5011685
3.3790801
3.2450998
3.1005923
2.9470408
2.7860568
2.6193146
2.4485084
2.2753224
2.101403
1.9282552
1.7572876
1.5897838
1.4269234
1.2696749
1.118885
0.97520437
0.83914974
0.71107843
0.59124895
0.47979043
0.3766853
0.2818635
0.19520444
0.11648455
0.045550272
-0.017674613
-0.073131166
-0.12165562
-0.16262513
-0.19533131
-0.22440577
-0.24522324
-0.61897868
-0.5913846
-0.55468794
-0.52332335
-0.47428455
-0.41792866
-0.35333641
-0.28011499
-0.19802923
-0.10693862
-0.0067625993
0.10251627
0.22086015
0.34814773
0.4841602
0.62857876
0.7809674
0.94078492
1.1073516
1.2798471
1.4573223
1.6386919
1.8227055
2.0079683
2.1929565
2.3759977
2.5553
2.7289635
2.8950261
3.0514955
3.1963948
3.3278815
3.4443061
3.5446178
3.6280976
3.6946814
3.7450581
3.7805654
3.8030742
3.8148245
3.8182345
3.8158585
3.8103932
3.8044951
3.800418
3.8000815
3.8049156
3.8156223
3.8322092
3.8543066
3.8805063
3.9095898
3.9400867
3.9704973
3.9995158
4.0258208
4.0480233
4.0648181
4.0747414
4.0760682
4.0670216
4.0457311
4.0103659
3.9596306
3.8926359
3.8089996
3.7090351
3.5933552
3.4630258
3.3194739
3.1643033
2.999269
2.8262719
2.6472783
2.4642253
2.2789894
2.0933877
1.9091386
1.7278012
1.5507348
1.3791649
1.2140999
1.0564137
0.90674827
0.76560125
0.63327117
0.50992462
0.39563464
0.29037713
0.19403697
0.10649219
0.027166252
-0.044085427
-0.10675151
-0.16230964
-0.21034178
-0.25081866
-0.28318005
-0.31159274
-0.33162084
-0.72141918
-0.69520222
-0.66061587
-0.62586813
-0.57778676
-0.52106028
-0.45563313
-0.38123426
-0.29762509
-0.20461192
-0.10205049
0.010149825
0.13202046
0.26351746
0.4044835
0.55464993
0.71363256
0.8809205
1.0558619
1.2376488
1.4253018
1.6176897
1.8134876
2.0111861
2.2091327
2.4054843
2.5982214
2.7851586
2.9639695
3.1322984
3.2877059
3.4278055
3.5506505
3.6546629
3.7388045
3.8029347
3.8478895
3.8754484
3.8881051
3.8887158
3.880274
3.8659026
3.848901
3.8325712
3.8198731
3.8132574
3.8144844
3.8243876
3.8429244
3.8692646
3.9014398
3.9377885
3.9764004
4.0154081
4.0532125
4.0884442
4.1198066
4.145781
4.164867
4.1750953
4.1741402
4.159575
4.1290738
4.0807522
4.0135047
3.9268907
3.821706
3.6984643
3.5586053
3.403915
3.2363507
3.0580091
2.8711046
2.6779604
2.4807959
2.2817675
2.0828865
1.8860501
1.6930012
1.5052167
1.3239754
1.1503498
0.98520063
0.82914743
0.68262356
0.5459048
0.41909009
0.30210695
0.19482124
0.097107765
0.0093328235
-0.07035454
-0.14142487
-0.20417736
-0.259159
-0.3065152
-0.34629472
-0.37809718
-0.40575863
-0.42494323
-0.83230628
-0.80751245
-0.77404031
-0.73749199
-0.69004134
-0.63306536
-0.56709155
-0.49180778
-0.40692834
-0.31220326
-0.20740921
-0.092367249
0.033032966
0.16882538
0.31493054
0.47114448
0.63715601
0.81250489
0.99656544
1.1885429
1.3874443
1.5920917
1.8011006
2.0128598
2.2255505
2.4371527
2.6454009
2.8478024
3.0416412
3.2240618
3.3921043
3.5427943
3.6734416
3.781978
3.8668386
3.9275973
3.9653283
3.9825068
3.9824528
3.9688069
3.9452787
3.915613
3.8837815
3.8539383
3.8300388
3.8153075
3.8119882
3.8210494
3.8422836
3.8745356
3.9145962
3.9601994
4.0087811
4.0580721
4.1062886
4.151941
4.1939786
4.2309726
4.261237
4.2825636
4.2921272
4.2866046
4.2627759
4.2180742
4.1509998
4.0609735
3.9498806
3.8178551
3.6668542
3.4991278
3.3171025
3.1233199
2.9203877
2.7109822
2.4976523
2.2828707
2.0689222
1.8579205
1.6517535
1.4520411
1.2601341
1.077173
0.90399411
0.74122035
0.58920338
0.4481121
0.31790644
0.19841686
0.089321879
-0.010075507
-0.096193097
-0.17649844
-0.24739451
-0.30961569
-0.36374548
-0.41014768
-0.44900346
-0.48002959
-0.50677509
-0.52509497
-0.95165545
-0.92818572
-0.89554818
-0.8584956
-0.81105864
-0.75421427
-0.68806801
-0.61223365
-0.52641111
-0.43025251
-0.32345605
-0.20574265
-0.076909348
0.063169094
0.21450443
0.37699204
0.55040526
0.73434368
0.92822767
1.1312879
1.3425212
1.5607131
1.7844257
2.0119553
2.241322
2.4703131
2.6964053
2.916785
3.1283251
3.3275934
3.5109219
3.6745755
3.8149883
3.9294441
4.0151821
4.0713885
4.0996305
4.1033632
4.0870855
4.0555369
4.0130928
3.9640541
3.9132225
3.8659497
3.8275111
3.8023059
3.7933361
3.8017325
3.8268989
3.8675357
3.9179845
3.9754716
4.0364355
4.097936
4.1581118
4.2157386
4.2699791
4.3198102
4.3635748
4.3987566
4.4217982
4.4283445
4.4136746
4.3739784
4.3075013
4.2140141
4.0955646
3.952963
3.7887922
3.6057938
3.4069144
3.1952446
2.9738589
2.7457875
2.5139981
2.281313
2.0503033
1.8233438
1.6025295
1.3896569
1.1861505
0.99315326
0.81145518
0.64164174
0.48402151
0.33873947
0.20544687
0.083887469
-0.026105503
-0.12523883
-0.21334679
-0.29239394
-0.36223288
-0.42332361
-0.4761911
-0.52129002
-0.5588832
-0.58889758
-0.61448751
-0.63188575
-1.0794657
-1.0572247
-1.0254698
-0.98844888
-0.94138745
-0.88480601
-0.81892579
-0.74289872
-0.65658491
-0.55934712
-0.45088458
-0.33077423
-0.19872314
-0.054493507
0.10205913
0.27095216
0.45205525
0.645046
0.84940568
1.0644005
1.2890552
1.5221134
1.7620781
2.0071614
2.2552565
2.5039558
2.7504846
2.9916974
3.224025
3.4434468
3.6454821
3.8252231
3.9777679
4.1004973
4.1875922
4.2378311
4.2536256
4.2398799
4.2031097
4.149508
4.0837123
4.0103538
3.9352126
3.865303
3.8078329
3.769036
3.7530775
3.761327
3.7924696
3.845234
3.9095329
3.9823213
4.0586012
4.1346017
4.2082968
4.2791043
4.3468805
4.4112844
4.4710493
4.5234999
4.5640968
4.5866968
4.5841909
4.5510988
4.4856001
4.3884418
4.2604666
4.1050994
3.9253052
3.7244105
3.5059595
3.2736227
3.0309934
2.7815242
2.5286758
2.2756702
2.0254515
1.7806887
1.5436624
1.316312
1.100197
0.89646999
0.70588597
0.52888859
0.36568846
0.21665586
0.080566831
-0.042211304
-0.15302322
-0.25205488
-0.33995352
-0.41776565
-0.48604652
-0.54543029
-0.59654663
-0.63991202
-0.67586458
-0.70449811
-0.7287336
-0.74508047
-1.2156672
-1.1946487
-1.1639024
-1.1274368
-1.0811496
-1.0253349
-0.95979935
-0.88400676
-0.79807302
-0.70009589
-0.59044142
-0.46837614
-0.33344481
-0.18533896
-0.023715183
0.15159183
0.34056364
0.54297754
0.75840398
0.9861498
1.2252689
1.47451
1.7323191
1.9968141
2.26579
2.5366717
2.8064596
3.0716868
3.3283746
3.5718939
3.7968445
3.9968667
4.1636784
4.2993688
4.3889144
4.4315176
4.4305598
4.3938451
4.3315846
4.2514889
4.1573917
4.0537704
3.947473
3.8478336
3.7651463
3.7085721
3.6840187
3.6930519
3.7327375
3.8040896
3.8870156
3.9799337
4.0751855
4.168024
4.2565082
4.3411201
4.4232146
4.5037894
4.5823065
4.6560934
4.7195476
4.7638909
4.7776786
4.7526872
4.6875323
4.5841158
4.4455316
4.275186
4.077024
3.8552408
3.6141341
3.3579691
3.0909176
2.8170357
2.5402814
2.2643441
1.9925742
1.7279525
1.4729774
1.2298046
1.0001186
0.78508318
0.58533399
0.40111587
0.23219363
0.080978556
-0.057567161
-0.1816677
-0.29236416
-0.39051287
-0.47703294
-0.55292226
-0.61899078
-0.67601431
-0.7247886
-0.76590297
-0.79978397
-0.82666187
-0.8492621
-0.86432554
-1.3601262
-1.3403892
-1.310906
-1.2754571
-1.2304139
-1.1758395
-1.1114124
-1.0365534
-0.95068093
-0.85302626
-0.74294504
-0.61950051
-0.48223035
-0.33068318
-0.16429567
0.017266751
0.21414508
0.42624693
0.65323112
0.89447708
1.1490726
1.4157763
1.6930135
1.9788255
2.2709054
2.5665482
2.8625724
3.1552348
3.4402369
3.712424
3.9656122
4.1929611
4.3880013
4.5328814
4.6251527
4.6568942
4.6331042
4.5668237
4.4731741
4.3626454
4.2352882
4.0943893
3.9478731
3.8085486
3.6918154
3.611612
3.5765735
3.5887436
3.6440398
3.7360764
3.8475371
3.9680464
4.0871247
4.1990873
4.302815
4.4008316
4.4970622
4.5947204
4.6948288
4.7950476
4.8884807
4.9625814
4.9978822
4.9820668
4.9158818
4.8043461
4.6521811
4.4637794
4.2441047
3.9981201
3.7308891
3.4473596
3.1524143
2.850793
2.5469934
2.2452238
1.9492907
1.6625421
1.3878214
1.1274499
0.88326025
0.65659985
0.44768115
0.25658871
0.083727029
-0.071811759
-0.21128655
-0.33530414
-0.4448811
-0.54112801
-0.62520442
-0.69823469
-0.76122779
-0.81512594
-0.86084448
-0.89907917
-0.93038995
-0.95508045
-0.97575645
-0.98925137
-1.5126413
-1.4942977
-1.4664365
-1.4324744
-1.389193
-1.3364456
-1.273796
-1.2005364
-1.1158793
-1.0189539
-0.90893357
-0.785176
-0.64616373
-0.49205102
-0.32136799
-0.13389252
0.070756175
0.29267405
0.5315799
0.78696638
1.0579894
1.343406
1.6416149
1.9506377
2.268046
2.5910382
2.9163179
3.2399412
3.5573003
3.8628861
4.1496925
4.4089409
4.6306469
4.8002009
4.9009649
4.9201452
4.8670518
4.7624125
4.629098
4.4861849
4.3208739
4.1340468
3.9346773
3.7412351
3.5774352
3.4649001
3.4167249
3.4352221
3.5137137
3.6391976
3.7903998
3.948078
4.0969955
4.2300844
4.3480153
4.4570788
4.5655697
4.6802661
4.8046452
4.9374056
5.0706336
5.1871642
5.2490473
5.2406895
5.1704828
5.0472586
4.8790814
4.6700117
4.425787
4.1521679
3.8551047
3.5404589
3.2138494
2.8807761
2.5464366
2.2156318
1.8926925
1.5814132
1.2850044
1.0059882
0.74634195
0.5082617
0.2905646
0.09295331
-0.084252415
-0.24199094
-0.38156875
-0.50427399
-0.61145735
-0.70452503
-0.78490872
-0.85393295
-0.91281271
-0.96268473
-1.0045493
-1.039221
-1.0673673
-1.0894519
-1.1078066
-1.119507
-1.6728824
-1.6561996
-1.6303248
-1.5983736
-1.5574474
-1.5072154
-1.4471213
-1.3763294
-1.2938793
-1.1987524
-1.0898922
-0.96616971
-0.8263402
-0.67131611
-0.49676117
-0.30399425
-0.091923551
0.13972435
0.3907512
0.66079541
0.9490907
1.2544196
1.5751142
1.9091404
2.2540329
2.6068848
2.9643327
3.3223483
3.6761191
4.0201312
4.3470736
4.6457302
4.9035917
5.10458
5.2274979
5.2353017
5.1302387
4.9711756
4.7996665
4.6265522
4.4204367
4.1765652
3.906858
3.6384228
3.4076968
3.2494148
3.1847825
3.2149135
3.3293019
3.5066631
3.7161675
3.9243468
4.1101615
4.2651951
4.3936319
4.5083268
4.6244519
4.7542652
4.9049416
5.0771935
5.26435
5.4476788
5.5412636
5.5302872
5.4467691
5.3100076
5.1244151
4.8924611
4.6206931
4.3158099
3.9851053
3.6354048
3.273025
2.9044124
2.5356417
2.1722417
1.8192015
1.480854
1.1607558
0.86156087
0.58479306
0.33828017
0.11012249
-0.093347773
-0.27349786
-0.43182558
-0.56999819
-0.68977751
-0.79295757
-0.88130694
-0.95652158
-1.020184
-1.0737289
-1.1184949
-1.1555922
-1.1859491
-1.2102985
-1.2292338
-1.2449001
-1.2544894
-1.8404259
-1.8257934
-1.8023126
-1.7729429
-1.735053
-1.6881321
-1.6315154
-1.5642233
-1.4851416
-1.3930438
-1.2866617
-1.1646311
-1.0256552
-0.86869119
-0.69200325
-0.49536317
-0.27661347
-0.035564995
0.2276199
0.5126948
0.81896614
1.145276
1.4898958
1.8506568
2.2250616
2.6101182
3.0023737
3.3978056
3.7914584
4.1779299
4.5500491
4.8942119
5.1955707
5.4329759
5.5941318
5.5753643
5.3882152
5.1676774
4.9731445
4.7858905
4.5474044
4.231505
3.8664081
3.4930966
3.1640247
2.9394119
2.854987
2.9051063
3.0743971
3.330499
3.6278498
3.905114
4.1357052
4.3109568
4.4414511
4.5510554
4.6662098
4.8068555
4.9852516
5.2022913
5.462346
5.7276501
5.8564998
5.834575
5.7278941
5.5747132
5.3756105
5.1235598
4.824664
4.4862743
4.1184749
3.7295689
3.3270289
2.9184921
2.5109793
2.1110202
1.7244462
1.3562402
1.0104838
0.69038761
0.39916573
0.13691406
-0.098023492
-0.30543586
-0.4866491
-0.64354744
-0.77828059
-0.89311034
-0.99029063
-1.0720239
-1.1403043
-1.197035
-1.2438649
-1.2823023
-1.313591
-1.3387778
-1.3586433
-1.373863
-1.3864221
-1.393614
-2.0148483
-2.0026619
-1.9820325
-1.9558683
-1.9217784
-1.8790855
-1.8270075
-1.7644388
-1.6900676
-1.6024808
-1.5001332
-1.3813856
-1.2446061
-1.0881445
-0.91028375
-0.70962011
-0.48648368
-0.23653128
0.038599949
0.33888012
0.66368934
1.0118919
1.3817672
1.7709576
2.1768014
2.596141
3.0254247
3.4607357
3.8970578
4.3295127
4.7544432
5.1545434
5.49477
5.7692658
5.9498796
5.9648091
5.8373417
5.577777
5.129978
5.004036
4.7398428
4.320963
3.815449
3.2920981
2.8183088
2.496314
2.3898035
2.4706593
2.7258915
3.1016913
3.532511
3.9025876
4.1853435
4.3750611
4.4936356
4.5796495
4.677902
4.8212925
5.0271149
5.2866893
5.6529329
6.011694
6.1680515
6.0471196
5.9056175
5.8065332
5.6278154
5.3641564
5.036874
4.6611503
4.2524004
3.8198722
3.3723499
2.9189493
2.4678525
2.0268478
1.6027969
1.2016401
0.82823876
0.48668866
0.17833834
-0.095951494
-0.33719397
-0.54672073
-0.72663758
-0.87952429
-1.0081933
-1.1155009
-1.2042545
-1.2770999
-1.3363974
-1.3843813
-1.4229008
-1.4536542
-1.4779758
-1.4970686
-1.5117151
-1.5226616
-1.5316456
-1.5361141
-2.1956409
-2.1862728
-2.1689881
-2.146706
-2.1172583
-2.0798311
-2.0335164
-1.9770675
-1.9090078
-1.8276788
-1.7312279
-1.6177234
-1.4851069
-1.3313015
-1.1542509
-0.95212885
-0.72348218
-0.46676177
-0.18057891
0.1348362
0.47865708
0.84969402
1.2460811
1.6652852
2.1043499
2.5598316
3.0279563
3.5045819
3.9843019
4.4626601
4.9353837
5.3702279
5.7357162
6.0575959
6.4616441
7.705253
9.799467
8.9877181
5.6012687
5.3741272
5.0529963
4.4661129
3.7403433
3.014999
2.3302021
1.8475392
1.7093698
1.8433013
2.2451508
2.8159999
3.4449552
3.9444541
4.2843733
4.4722792
4.5511242
4.5830424
4.6389988
4.7696455
4.9897537
5.2649829
5.8527592
6.8779372
7.3605535
7.253174
6.1182451
5.9341393
5.8136435
5.5896547
5.2512774
4.8370185
4.3837435
3.9028906
3.4049297
2.9009665
2.4007218
1.9134684
1.4474457
1.0098869
0.60700819
0.24216021
-0.082542857
-0.36691017
-0.61235087
-0.8212552
-0.9967252
-1.142288
-1.2615666
-1.3581546
-1.4355309
-1.4967819
-1.5447249
-1.5818972
-1.6103278
-1.6318963
-1.648022
-1.6599677
-1.6687018
-1.6748331
-1.6797053
-1.6813241
-2.382215
-2.375964
-2.3625144
-2.3448393
-2.3209646
-2.2899435
-2.2507873
-2.202106
-2.1422017
-2.0691691
-1.9808801
-1.8750008
-1.7490388
-1.6004326
-1.4266129
-1.2251426
-0.99378847
-0.73072826
-0.43465444
-0.10459283
0.25846168
0.65323951
1.0775645
1.528509
2.00255
2.4958986
3.0044428
3.5235518
4.0468018
4.569498
5.0854729
5.5497525
5.9493505
6.3653978
7.5465407
10.169155
10.00893
9.6254701
7.4316721
5.912924
5.539597
4.6834086
3.6446196
2.7110325
1.6727146
0.87399524
0.71029113
0.94540792
1.5736855
2.4619061
3.3768651
4.0759365
4.4691213
4.6240885
4.6122535
4.5289983
4.5017484
4.5989168
4.8075966
5.0406434
6.0643978
6.8988661
7.3781148
7.7308203
7.0315611
6.0071061
5.9553227
5.8145579
5.4701668
5.0128693
4.5105677
3.9753263
3.4201926
2.8589073
2.3029184
1.7632264
1.2499769
0.77233373
0.33709768
-0.051329848
-0.39124004
-0.68314406
-0.92941561
-1.1337481
-1.3005191
-1.4344135
-1.5401282
-1.6221437
-1.6845823
-1.7310922
-1.7649351
-1.7889996
-1.8054217
-1.8161484
-1.8228415
-1.8262423
-1.8289515
-1.8304859
-1.8324947
-1.8319788
-2.5739537
-2.5708892
-2.5617489
-2.5494349
-2.5321351
-2.5088028
-2.4783723
-2.439307
-2.3897063
-2.3274025
-2.2499375
-2.1545854
-2.0383685
-1.89814
-1.7306618
-1.5327644
-1.3014874
-1.0343501
-0.72939959
-0.38570494
-0.0033246521
0.41617407
0.87004365
1.3547856
1.866076
2.3993721
2.9501197
3.5135676
4.0823573
4.6502244
5.2108616
5.7059987
6.0829961
6.4369981
8.2869888
10.891857
10.163314
9.2321514
6.8224076
6.8157082
6.2782353
4.9755738
3.4479031
2.2666878
0.68991419
-0.49187884
-0.58814517
-0.24045174
0.65926847
2.0209558
3.4003348
4.2704765
4.6364717
4.7184619
4.5972442
4.3429388
4.167501
4.2170376
4.3691811
4.6495239
5.8800161
6.5856758
6.2322361
6.0189023
5.8294679
5.8687237
6.0458064
6.027675
5.6863327
5.1886711
4.6323552
4.0343788
3.4133774
2.7863685
2.1662635
1.5664137
0.99948052
0.47713561
0.0074693255
-0.40447905
-0.75741057
-1.0530058
-1.2952062
-1.4894559
-1.6418407
-1.7585275
-1.8454966
-1.9082449
-1.9515483
-1.9796222
-1.9962255
-2.004782
-2.0071503
-2.0052146
-2.0018552
-1.9975721
-1.9917651
-1.9866194
-1.9835027
-1.9800668
-2.769922
-2.7699245
-2.7655968
-2.7594007
-2.749769
-2.7355371
-2.7155323
-2.6881441
-2.6512902
-2.6025367
-2.5390927
-2.4577963
-2.3551063
-2.2272166
-2.0700829
-1.8796641
-1.6520954
-1.3839174
-1.0724345
-0.71597453
-0.31439542
0.13089013
0.61647678
1.1377283
1.6892393
2.2653631
2.8610306
3.4720208
4.0917415
4.7125443
5.3291506
5.8820715
6.2820486
6.6091019
7.0690966
9.0210524
9.4951307
7.1430698
7.1683373
7.5816205
6.6836631
6.0148831
4.1569098
0.9045626
-1.3453525
-2.5160538
-2.3441774
-2.0722246
-0.67115515
1.7435179
3.5836713
4.3759992
4.6024039
4.6220816
4.3827818
3.9046258
3.5093677
3.5656057
3.8274968
4.4484359
6.3691376
6.2687934
6.4775121
5.8979312
5.6384576
5.8441775
6.2425486
6.3057009
5.9389933
5.3836359
4.7552818
4.0792662
3.3799074
2.6757058
1.9805537
1.3103279
0.68209196
0.10952782
-0.39669646
-0.83106632
-1.1931205
-1.4864965
-1.7175629
-1.894177
-2.0246453
-2.1170689
-2.1789271
-2.2167606
-2.2361531
-2.2416053
-2.2370508
-2.227982
-2.2145481
-2.1997997
-2.1833216
-2.1676237
-2.1532859
-2.1413836
-2.133023
-2.1261913
-2.9680297
-2.9716177
-2.9725911
-2.973413
-2.9726534
-2.9689583
-2.9611768
-2.9477417
-2.9263876
-2.8944527
-2.8487932
-2.7857564
-2.7012177
-2.5906281
-2.4489858
-2.2711959
-2.0521862
-1.7872555
-1.4724659
-1.1051784
-0.68450846
-0.21203372
0.30826952
0.87003666
1.4658885
2.0886806
2.7329881
3.3959345
4.074581
4.7640434
5.4644493
6.1358469
6.6898321
7.2475926
7.9079267
8.4032144
8.3498018
8.356487
8.2559107
7.4361742
8.093953
7.8881175
4.4750048
-2.0460449
-4.757263
-5.2359252
-5.7127973
-6.3643571
-2.8671725
1.8873759
3.5712212
4.4112081
4.5116009
4.6668795
4.505278
3.1877311
2.7016448
2.5455839
3.2046812
4.3370715
6.9328718
6.9380496
7.3265917
6.9099047
6.7146715
6.8021112
7.0082646
6.8573388
6.3235705
5.6376048
4.8918645
4.1101181
3.3141338
2.5176293
1.7321832
0.97876708
0.27831592
-0.35082077
-0.89509354
-1.348818
-1.7133925
-1.9955707
-2.2053304
-2.3539729
-2.4527571
-2.5120809
-2.5410571
-2.5473717
-2.5375612
-2.5160085
-2.4845636
-2.457514
-2.4264139
-2.3943614
-2.363957
-2.336554
-2.3127914
-2.2935019
-2.2795572
-2.268902
-3.166544
-3.1742761
-3.1810886
-3.1898158
-3.1992604
-3.207556
-3.2138082
-3.2169151
-3.2141654
-3.2027
-3.1790527
-3.1392201
-3.07851
-2.9914241
-2.8718897
-2.7134971
-2.5097054
-2.253983
-1.9407034
-1.5655125
-1.1264286
-0.62476294
-0.065704465
0.54289105
1.1891497
1.8632899
2.5598954
3.2788151
4.0237216
4.7981719
5.6113293
6.449488
7.2371469
8.0273807
8.9037383
9.5684204
9.8438108
9.5108708
8.0030643
8.277735
7.2002857
5.0474379
-0.39356586
-6.9344574
-9.1785859
-7.5234836
-5.5581627
0.41437824
6.7630682
0.062722571
3.1980636
4.9385767
4.5727216
4.5371638
4.8860706
2.6143847
0.53417358
0.36963495
2.3609519
4.1621141
7.2927103
8.7149029
9.0331648
9.111876
8.9708835
8.7221739
8.3697431
7.7264025
6.8704689
5.959599
5.039507
4.1191197
3.2049528
2.2984078
1.400886
0.54796508
-0.23856948
-0.93182957
-1.5143066
-1.9809917
-2.3370109
-2.5942965
-2.768275
-2.8750014
-2.9294485
-2.9447288
-2.9315842
-2.8987042
-2.8543815
-2.8035423
-2.7528536
-2.693395
-2.6386935
-2.5880732
-2.5423631
-2.5023567
-2.4684925
-2.441289
-2.4214057
-2.4065812
-3.3638436
-3.3762907
-3.3892033
-3.4067197
-3.4278599
-3.44949
-3.4712342
-3.4940199
-3.5132178
-3.5261777
-3.5294088
-3.5186331
-3.4884919
-3.4325842
-3.3437011
-3.2138029
-3.0342725
-2.796341
-2.4917357
-2.11339
-1.6571301
-1.1237724
-0.52055633
0.14548375
0.85168943
1.5827525
2.3337231
3.1085917
3.9209813
4.7888601
5.7337022
6.7620048
7.8074125
8.81761
9.7904355
10.651452
11.174073
10.646123
8.7223904
9.43277
7.1846393
3.5564148
-2.4963111
-11.910438
-16.081238
-7.8688006
6.202194
17.584565
1.2607101
1.6411609
5.8250582
6.0466383
4.7398443
4.0456003
3.0017147
0.15621099
7.1024978
-1.5407197
1.3658212
4.2641771
6.7893054
10.736611
11.672163
12.24536
11.945047
11.118984
10.018062
8.7624574
7.4974059
6.296923
5.1625428
4.0802604
3.0298953
1.9910177
0.96137957
-0.016264859
-0.90814607
-1.6739116
-2.2911167
-2.758279
-3.0875933
-3.2993649
-3.4170752
-3.4630438
-3.456878
-3.414729
-3.3488604
-3.2673579
-3.1836145
-3.0964289
-3.0101271
-2.926027
-2.848243
-2.7780431
-2.7160711
-2.6627459
-2.6182491
-2.5828013
-2.5567317
-2.5374856
-3.5595391
-3.5775864
-3.5994135
-3.6262174
-3.6572748
-3.6930202
-3.7297619
-3.7771024
-3.8214854
-3.8631922
-3.8986855
-3.9235901
-3.932066
-3.9169385
-3.8696463
-3.7802619
-3.6376648
-3.4299906
-3.1450713
-2.7713903
-2.3005259
-1.7312931
-1.072812
-0.34228764
0.4459491
1.2409549
2.0459736
2.8692551
3.7375437
4.6918142
5.7779129
7.0289974
8.3954722
9.7499776
11.017223
12.198249
13.144978
13.121748
11.300818
11.022578
7.3308979
3.9522017
-4.6036343
-13.567612
-16.335506
-10.161825
13.655761
10.104845
8.317577
8.129757
6.0858968
4.7386609
3.5974846
2.2541878
2.8466453
-3.1613522
9.0634843
-1.6679751
-3.1111004
2.9449929
8.7731462
12.67232
15.314298
15.90079
15.115326
13.506123
11.60312
9.7325696
8.0422295
6.5381029
5.1849001
3.940426
2.7495287
1.5601774
0.36275999
-0.77728105
-1.7967173
-2.6392056
-3.2789065
-3.7219233
-3.994021
-4.1289234
-4.1615834
-4.1221208
-4.0350474
-3.9198688
-3.7908904
-3.6582889
-3.5212081
-3.390424
-3.2677181
-3.1543721
-3.0519527
-2.9611816
-2.8822693
-2.8152013
-2.7597824
-2.7159302
-2.6835923
-2.6597715
-3.7482808
-3.7718367
-3.8006887
-3.83807
-3.883886
-3.9386573
-4.0036936
-4.0663935