/*--------------------------------*- C++ -*----------------------------------*\
  =========                 |
  \\      /  F ield         | OpenFOAM: The Open Source CFD Toolbox
   \\    /   O peration     | Website:  https://openfoam.org
    \\  /    A nd           | Version:  9
     \\/     M anipulation  |
\*---------------------------------------------------------------------------*/
FoamFile
{
    format      ascii;
    class       volVectorField;
    location    "0.36";
    object      U;
}
// * * * * * * * * * * * * * * * * * * * * * * * * * * * * * * * * * * * * * //

dimensions      [0 1 -1 0 0 0 0];

internalField   nonuniform List<vector> 
10000
(
(0.0027552013 0.0001417111 0)
(-0.00054908518 0.00030195344 0)
(-0.0044267861 0.00042320262 0)
(-0.0070991884 0.000576821 0)
(-0.010356969 0.00072525978 0)
(-0.013695608 0.00090380704 0)
(-0.017153181 0.0010781985 0)
(-0.020728365 0.0012680298 0)
(-0.024414139 0.0014628965 0)
(-0.028236408 0.0016643266 0)
(-0.032189393 0.0018745369 0)
(-0.036267007 0.0020873821 0)
(-0.040463768 0.0023007591 0)
(-0.044768498 0.0025063539 0)
(-0.049167229 0.0026999059 0)
(-0.053642662 0.0028759022 0)
(-0.058173195 0.0030318757 0)
(-0.062728022 0.0031641941 0)
(-0.067272039 0.0032650365 0)
(-0.071770766 0.0033230593 0)
(-0.076182562 0.0033416015 0)
(-0.080478655 0.0033098884 0)
(-0.08456808 0.0032429004 0)
(-0.08840686 0.0031060277 0)
(-0.091978648 0.0029247675 0)
(-0.095200837 0.0026909482 0)
(-0.098027184 0.0024244275 0)
(-0.10036125 0.0021359232 0)
(-0.10212008 0.0018165585 0)
(-0.10323046 0.0014714415 0)
(-0.10364722 0.0010730061 0)
(-0.10339226 0.00060820835 0)
(-0.10257401 1.7918748e-05 0)
(-0.10126069 -0.00050494343 0)
(-0.099294675 -0.0009487305 0)
(-0.096547544 -0.0013459012 0)
(-0.09309461 -0.0016803368 0)
(-0.089054625 -0.0019082526 0)
(-0.084287035 -0.0019635249 0)
(-0.078832992 -0.0019692437 0)
(-0.072864116 -0.0018770766 0)
(-0.066353323 -0.0016021093 0)
(-0.059363031 -0.0011995105 0)
(-0.051913105 -0.00064823568 0)
(-0.043897999 3.2075052e-05 0)
(-0.035260609 0.00074252989 0)
(-0.026160718 0.0013851207 0)
(-0.016775539 0.0019535513 0)
(-0.0071890288 0.0024153333 0)
(0.0025067565 0.0027452577 0)
(0.012185144 0.0029426514 0)
(0.021756097 0.0030257054 0)
(0.031108281 0.0029694575 0)
(0.040151978 0.0027942654 0)
(0.048743636 0.0025224828 0)
(0.056845539 0.0022302472 0)
(0.06437221 0.0018890229 0)
(0.071220574 0.0015854948 0)
(0.077394561 0.0013647852 0)
(0.082847497 0.0012067463 0)
(0.087616465 0.0012455978 0)
(0.091640357 0.0013158409 0)
(0.094977599 0.001577188 0)
(0.097682066 0.0019391384 0)
(0.099804171 0.0023486219 0)
(0.10122237 0.002613673 0)
(0.10183033 0.0028782484 0)
(0.10172819 0.0030798625 0)
(0.10089731 0.0032715315 0)
(0.099401391 0.0033980121 0)
(0.097194249 0.0035341954 0)
(0.094378028 0.0036352608 0)
(0.091097516 0.003761189 0)
(0.087434948 0.0038395429 0)
(0.083461614 0.0038864488 0)
(0.079239025 0.0038895855 0)
(0.074831454 0.0038465567 0)
(0.070302039 0.0037575329 0)
(0.065701869 0.0036189662 0)
(0.061076854 0.0034421366 0)
(0.056480979 0.0032280726 0)
(0.051952458 0.0029734117 0)
(0.047520849 0.0026882865 0)
(0.043220236 0.0023897353 0)
(0.03908492 0.0020709405 0)
(0.035131328 0.0017376127 0)
(0.031378708 0.0013966973 0)
(0.027847598 0.001030409 0)
(0.024566375 0.00065309063 0)
(0.021484966 0.00022615819 0)
(0.018485077 -0.00022925978 0)
(0.015551541 -0.00067279969 0)
(0.012745249 -0.0011035097 0)
(0.010017971 -0.0015654458 0)
(0.0072842552 -0.0020130807 0)
(0.0046244497 -0.0023698714 0)
(0.0020670915 -0.0026206191 0)
(-5.3725661e-05 -0.0028033598 0)
(-0.0034889757 -0.0029340438 0)
(-0.0048453334 -0.0030345085 0)
(0.0029080807 0.0041189043 0)
(-0.00026917379 0.0044653232 0)
(-0.0041528011 0.0047082853 0)
(-0.0067998134 0.0050342028 0)
(-0.010034069 0.0053412362 0)
(-0.01334766 0.0056880516 0)
(-0.016795726 0.0060378681 0)
(-0.020352445 0.0064093199 0)
(-0.024028168 0.0067996375 0)
(-0.027836253 0.0072037322 0)
(-0.031778662 0.0076145583 0)
(-0.03585333 0.0080134508 0)
(-0.040056837 0.0084129551 0)
(-0.044380131 0.0087813013 0)
(-0.048806454 0.0091238769 0)
(-0.053315788 0.0094250699 0)
(-0.057885155 0.0096689308 0)
(-0.062490768 0.0098434828 0)
(-0.067105852 0.0099365803 0)
(-0.071682745 0.0099431902 0)
(-0.076179547 0.0098381401 0)
(-0.080556369 0.0096232699 0)
(-0.084747837 0.0093030983 0)
(-0.088699792 0.0088335385 0)
(-0.092369853 0.0082326757 0)
(-0.095679775 0.0074973792 0)
(-0.098565274 0.0066408012 0)
(-0.10096078 0.0056828476 0)
(-0.10278831 0.0046068144 0)
(-0.1039913 0.0034102614 0)
(-0.10453985 0.0020552424 0)
(-0.10448571 0.00053592856 0)
(-0.10373092 -0.0011251001 0)
(-0.10227396 -0.0027576608 0)
(-0.1001875 -0.004288625 0)
(-0.09734825 -0.005753313 0)
(-0.093763178 -0.0071645706 0)
(-0.089505239 -0.0084517619 0)
(-0.084593585 -0.0095530255 0)
(-0.079081463 -0.010578732 0)
(-0.072933799 -0.011464159 0)
(-0.066216096 -0.012205058 0)
(-0.059040411 -0.012739179 0)
(-0.051374805 -0.013021855 0)
(-0.043223122 -0.013071185 0)
(-0.034597835 -0.012954551 0)
(-0.02556454 -0.012753972 0)
(-0.016235176 -0.012528834 0)
(-0.0067210207 -0.012231525 0)
(0.0028915297 -0.011913447 0)
(0.012507015 -0.011565015 0)
(0.022006592 -0.011200123 0)
(0.03127784 -0.010803706 0)
(0.04025224 -0.010337813 0)
(0.048829632 -0.0098557912 0)
(0.056912731 -0.0092822833 0)
(0.06442687 -0.0086487958 0)
(0.0713482 -0.0078450233 0)
(0.077594639 -0.006953486 0)
(0.083219776 -0.0059351688 0)
(0.088121968 -0.0047204632 0)
(0.092276571 -0.0034420859 0)
(0.095821975 -0.0019510223 0)
(0.098609731 -0.00043293802 0)
(0.10059115 0.0011321132 0)
(0.10184052 0.0025587498 0)
(0.10237294 0.0039032988 0)
(0.10218839 0.0050918525 0)
(0.10127098 0.0061847508 0)
(0.099705759 0.0071233299 0)
(0.097459934 0.0079602148 0)
(0.094618738 0.0086887518 0)
(0.091303563 0.0093277997 0)
(0.087553234 0.0098461608 0)
(0.083500559 0.0102391 0)
(0.079185913 0.01050325 0)
(0.074685496 0.010632279 0)
(0.070061788 0.010631231 0)
(0.065377114 0.010511832 0)
(0.060681613 0.010278322 0)
(0.056013346 0.0099480974 0)
(0.051417633 0.0095334059 0)
(0.04694378 0.0090524418 0)
(0.042611068 0.0085044172 0)
(0.038443806 0.007922316 0)
(0.034471208 0.0072949789 0)
(0.030687473 0.0066320323 0)
(0.027120665 0.005945938 0)
(0.0237793 0.0052195691 0)
(0.02061965 0.0044179403 0)
(0.017602229 0.0035730016 0)
(0.014691323 0.0027382658 0)
(0.011863637 0.001932105 0)
(0.0091158967 0.0011323291 0)
(0.006484241 0.00039271897 0)
(0.0040195156 -0.0002302449 0)
(0.0016341938 -0.00073566318 0)
(-0.00037310913 -0.0010612981 0)
(-0.0037257332 -0.0013534116 0)
(-0.0049482171 -0.0016103978 0)
(0.0030941261 0.0079253939 0)
(2.2621589e-05 0.0083021154 0)
(-0.0038593911 0.0085786426 0)
(-0.0064669881 0.0089370297 0)
(-0.0096990889 0.0093191892 0)
(-0.012991197 0.0097315363 0)
(-0.016422738 0.010163551 0)
(-0.019956202 0.010625061 0)
(-0.023607949 0.011119784 0)
(-0.027408067 0.011618229 0)
(-0.031365013 0.012119853 0)
(-0.035452892 0.012614605 0)
(-0.039679501 0.01309979 0)
(-0.044040209 0.013548488 0)
(-0.048505642 0.013944214 0)
(-0.053080206 0.014273054 0)
(-0.057738667 0.014525625 0)
(-0.062445916 0.014681171 0)
(-0.067158956 0.014716558 0)
(-0.071856835 0.01461703 0)
(-0.076491907 0.014369058 0)
(-0.081005008 0.013955177 0)
(-0.085351278 0.013364478 0)
(-0.089472164 0.012578001 0)
(-0.09331054 0.011601746 0)
(-0.096788969 0.010441229 0)
(-0.099836327 0.0090813784 0)
(-0.10238469 0.0075389308 0)
(-0.10437166 0.005811766 0)
(-0.10574584 0.0039137933 0)
(-0.10646622 0.0018505098 0)
(-0.10649319 -0.00032739156 0)
(-0.10575651 -0.0025735277 0)
(-0.10427202 -0.0048615614 0)
(-0.10208484 -0.0071050814 0)
(-0.099150689 -0.0092643481 0)
(-0.095438531 -0.011316982 0)
(-0.090994119 -0.013211056 0)
(-0.085862776 -0.014925849 0)
(-0.080094434 -0.016439776 0)
(-0.073750287 -0.017694125 0)
(-0.066816194 -0.018787139 0)
(-0.059329315 -0.019664049 0)
(-0.051392564 -0.020284766 0)
(-0.043015638 -0.020639131 0)
(-0.034207563 -0.020791897 0)
(-0.02511646 -0.020802407 0)
(-0.015784162 -0.020701978 0)
(-0.0062711743 -0.020484453 0)
(0.0032999874 -0.020168857 0)
(0.012854251 -0.019763695 0)
(0.02229868 -0.019282175 0)
(0.031581403 -0.018725694 0)
(0.040553776 -0.018038628 0)
(0.049122232 -0.017267202 0)
(0.057276403 -0.016385536 0)
(0.064977277 -0.015377621 0)
(0.072068849 -0.014151889 0)
(0.078483321 -0.012823581 0)
(0.084315402 -0.011292239 0)
(0.089424208 -0.0096027466 0)
(0.093820452 -0.0077325879 0)
(0.097497319 -0.0057028271 0)
(0.10037279 -0.0036340582 0)
(0.1024873 -0.0014937065 0)
(0.10375455 0.00065661661 0)
(0.10418106 0.0027687747 0)
(0.10387004 0.0047845601 0)
(0.10282164 0.0066749495 0)
(0.10109494 0.0084039453 0)
(0.098698989 0.0099228038 0)
(0.095700831 0.011292204 0)
(0.092221893 0.012440615 0)
(0.088318806 0.013412911 0)
(0.08409357 0.014173958 0)
(0.07960725 0.014735766 0)
(0.074934125 0.015091345 0)
(0.070155508 0.015260124 0)
(0.065322117 0.015241726 0)
(0.06048602 0.015078113 0)
(0.055708732 0.014755448 0)
(0.051029665 0.014310394 0)
(0.046465741 0.013754778 0)
(0.042064008 0.013122061 0)
(0.037849413 0.012413236 0)
(0.033815744 0.011646195 0)
(0.030006521 0.01084618 0)
(0.026414815 0.010012976 0)
(0.023020769 0.009142543 0)
(0.019823551 0.0082426454 0)
(0.016793051 0.0073259452 0)
(0.013900018 0.0064281683 0)
(0.011129698 0.0055823476 0)
(0.0084690334 0.0048164781 0)
(0.0059123696 0.0041423484 0)
(0.0034891301 0.0035490758 0)
(0.0012317749 0.0030171278 0)
(-0.00068100668 0.0026857894 0)
(-0.0040296135 0.0023396835 0)
(-0.0051090262 0.0020384172 0)
(0.0032909901 0.0097995865 0)
(0.00036132431 0.01023575 0)
(-0.0035210115 0.010566401 0)
(-0.0060698246 0.010984014 0)
(-0.0092494809 0.011468604 0)
(-0.012511916 0.011994556 0)
(-0.015911579 0.012561246 0)
(-0.019406695 0.013177477 0)
(-0.023046037 0.013812214 0)
(-0.026847398 0.014467189 0)
(-0.030793718 0.015133904 0)
(-0.034884424 0.015805119 0)
(-0.03913301 0.01643913 0)
(-0.043544466 0.017043107 0)
(-0.048088855 0.017583789 0)
(-0.052739052 0.018038977 0)
(-0.057479063 0.018392536 0)
(-0.062299141 0.018619756 0)
(-0.067165984 0.018704058 0)
(-0.072022839 0.018611249 0)
(-0.076830159 0.018325609 0)
(-0.081545346 0.017822677 0)
(-0.086105049 0.017090872 0)
(-0.090438815 0.016108055 0)
(-0.094479482 0.014877511 0)
(-0.098170106 0.013384225 0)
(-0.10143597 0.011633882 0)
(-0.10419942 0.0096344107 0)
(-0.10638529 0.0073925469 0)
(-0.10792952 0.0049345072 0)
(-0.10876544 0.0022876052 0)
(-0.10890308 -0.00049184919 0)
(-0.10826846 -0.0034040897 0)
(-0.10681973 -0.0063601726 0)
(-0.10461451 -0.0093146393 0)
(-0.10159588 -0.012212107 0)
(-0.097762031 -0.014977044 0)
(-0.093184792 -0.017587935 0)
(-0.087905431 -0.020000278 0)
(-0.081935099 -0.022192109 0)
(-0.075352142 -0.024131658 0)
(-0.068227673 -0.025781195 0)
(-0.060539582 -0.02716752 0)
(-0.052307237 -0.028285673 0)
(-0.043645414 -0.029107339 0)
(-0.0346422 -0.029680158 0)
(-0.025339329 -0.030063029 0)
(-0.015789822 -0.030183923 0)
(-0.0060913551 -0.03013881 0)
(0.0036567347 -0.029890438 0)
(0.013371146 -0.029430938 0)
(0.022966589 -0.028752852 0)
(0.032402898 -0.027895034 0)
(0.041569645 -0.026884037 0)
(0.050345488 -0.025674253 0)
(0.058687442 -0.024229813 0)
(0.066582224 -0.022605353 0)
(0.07386538 -0.02075433 0)
(0.080458638 -0.018693489 0)
(0.086476359 -0.016420687 0)
(0.091738873 -0.013914621 0)
(0.096238934 -0.011245128 0)
(0.099975343 -0.0084606924 0)
(0.10285978 -0.0055735166 0)
(0.10490933 -0.0026731127 0)
(0.1061216 0.00018417265 0)
(0.10651249 0.0029915653 0)
(0.10609722 0.0056944866 0)
(0.10488453 0.0082336981 0)
(0.10293991 0.010559375 0)
(0.10032712 0.012621626 0)
(0.097110534 0.014443875 0)
(0.093394565 0.01597932 0)
(0.089256756 0.017246362 0)
(0.084794669 0.018222078 0)
(0.080077652 0.018931799 0)
(0.075187489 0.019364775 0)
(0.070193988 0.019544445 0)
(0.065180872 0.0194901 0)
(0.060185136 0.019227669 0)
(0.055239202 0.01877789 0)
(0.050414141 0.018167055 0)
(0.04575511 0.017416667 0)
(0.041271583 0.016561625 0)
(0.036972615 0.015613776 0)
(0.032911391 0.014610045 0)
(0.029063651 0.013560028 0)
(0.025428206 0.012471183 0)
(0.022021241 0.011369255 0)
(0.018815786 0.010268132 0)
(0.015800411 0.0091823092 0)
(0.012959953 0.008130462 0)
(0.010263014 0.0071266864 0)
(0.0076848837 0.00622351 0)
(0.0052240306 0.0054235821 0)
(0.0029022342 0.0047211312 0)
(0.00077860974 0.0041068758 0)
(-0.0010548503 0.0036677234 0)
(-0.0043546567 0.0032715858 0)
(-0.0052622727 0.0029122519 0)
(0.003538741 0.013078145 0)
(0.00076504742 0.013565533 0)
(-0.0031116959 0.013966004 0)
(-0.0055759197 0.01447351 0)
(-0.0086990482 0.015046895 0)
(-0.011907846 0.015685734 0)
(-0.01525031 0.01638677 0)
(-0.018717042 0.017142774 0)
(-0.022330825 0.017928534 0)
(-0.026099842 0.018751701 0)
(-0.030040631 0.019588086 0)
(-0.034160904 0.020417429 0)
(-0.038454285 0.021212253 0)
(-0.042907791 0.021956706 0)
(-0.047520791 0.022643334 0)
(-0.052281014 0.023221493 0)
(-0.057166081 0.023672448 0)
(-0.062141007 0.023953303 0)
(-0.067172077 0.024053394 0)
(-0.072237109 0.02394045 0)
(-0.077279571 0.023584663 0)
(-0.08223647 0.022958719 0)
(-0.087060747 0.022039374 0)
(-0.091678829 0.020807941 0)
(-0.096026681 0.01923811 0)
(-0.10002472 0.017331023 0)
(-0.10357878 0.015080024 0)
(-0.10661916 0.012503835 0)
(-0.10906432 0.0096122677 0)
(-0.11084208 0.0064347763 0)
(-0.11188262 0.003011249 0)
(-0.1121738 -0.00061963591 0)
(-0.11161105 -0.004396845 0)
(-0.11016304 -0.0081946795 0)
(-0.10790811 -0.011993922 0)
(-0.1047768 -0.015738469 0)
(-0.10077911 -0.019290557 0)
(-0.09599748 -0.022661239 0)
(-0.090472504 -0.025777695 0)
(-0.084261513 -0.028610845 0)
(-0.077406331 -0.031156127 0)
(-0.069949182 -0.033366949 0)
(-0.061957159 -0.035220229 0)
(-0.053474362 -0.036747006 0)
(-0.044560778 -0.037970025 0)
(-0.035309062 -0.038883042 0)
(-0.025749729 -0.039519585 0)
(-0.015957623 -0.039833806 0)
(-0.0060378391 -0.039880422 0)
(0.0039851101 -0.039649305 0)
(0.014000413 -0.039116223 0)
(0.023884467 -0.038304012 0)
(0.03354021 -0.037206049 0)
(0.042897447 -0.035873965 0)
(0.051923558 -0.034261762 0)
(0.060502234 -0.032357084 0)
(0.068607223 -0.030204327 0)
(0.076120445 -0.027794839 0)
(0.082933288 -0.02508846 0)
(0.089180424 -0.022140804 0)
(0.094653457 -0.018912285 0)
(0.099295948 -0.015474377 0)
(0.10316226 -0.011886217 0)
(0.10613581 -0.0081327809 0)
(0.10821606 -0.0043404673 0)
(0.10939427 -0.00052471476 0)
(0.10967186 0.0031853107 0)
(0.10909536 0.0067434395 0)
(0.10767078 0.01007569 0)
(0.10546777 0.013140629 0)
(0.10257029 0.015885369 0)
(0.099048878 0.018292805 0)
(0.095016047 0.020332234 0)
(0.090553674 0.022005044 0)
(0.085771165 0.023295493 0)
(0.080743068 0.024222481 0)
(0.075540931 0.024802296 0)
(0.070276352 0.025056413 0)
(0.065002904 0.025017458 0)
(0.059774036 0.024692017 0)
(0.054650658 0.024141647 0)
(0.049673065 0.023394816 0)
(0.044867438 0.022481988 0)
(0.04027064 0.02142187 0)
(0.035908131 0.020269248 0)
(0.031773637 0.019044358 0)
(0.027880624 0.017755407 0)
(0.024237828 0.016447642 0)
(0.020831912 0.01513008 0)
(0.01765038 0.013828774 0)
(0.014668269 0.012563832 0)
(0.011856541 0.011350031 0)
(0.0092339121 0.01019817 0)
(0.0067753694 0.0091483653 0)
(0.0044177698 0.0082143544 0)
(0.0021813463 0.0073859759 0)
(0.00018726744 0.0066746125 0)
(-0.0015212213 0.0061246006 0)
(-0.0047634241 0.0056614209 0)
(-0.0054809737 0.0052306961 0)
(0.0037937913 0.015815236 0)
(0.0012239151 0.016330439 0)
(-0.0026071518 0.016828798 0)
(-0.0049964833 0.017417828 0)
(-0.0080431064 0.018092215 0)
(-0.011175834 0.01885408 0)
(-0.014458949 0.01969228 0)
(-0.017869688 0.020594748 0)
(-0.021441473 0.021560403 0)
(-0.025191966 0.022559085 0)
(-0.029131734 0.023571475 0)
(-0.03326295 0.024583154 0)
(-0.037595285 0.025567938 0)
(-0.042113213 0.026499618 0)
(-0.046822218 0.027343036 0)
(-0.0517062 0.028069547 0)
(-0.056741604 0.028646747 0)
(-0.061910141 0.02903809 0)
(-0.06716828 0.029201424 0)
(-0.072479038 0.029103695 0)
(-0.07779716 0.028712293 0)
(-0.083073064 0.027990895 0)
(-0.0882358 0.026908168 0)
(-0.093218243 0.025436349 0)
(-0.097933292 0.023545176 0)
(-0.10230391 0.02125484 0)
(-0.10623755 0.01851571 0)
(-0.10964017 0.015378979 0)
(-0.11242609 0.011837202 0)
(-0.11450103 0.0079298123 0)
(-0.11578898 0.0037070927 0)
(-0.11627696 -0.00077334956 0)
(-0.11580268 -0.0053897318 0)
(-0.1143686 -0.010107017 0)
(-0.11209523 -0.014818481 0)
(-0.10880772 -0.019411589 0)
(-0.10457975 -0.023816529 0)
(-0.099555276 -0.027980517 0)
(-0.093736665 -0.031840647 0)
(-0.087200148 -0.035362605 0)
(-0.080003086 -0.038515786 0)
(-0.072197432 -0.041291698 0)
(-0.063842416 -0.043680061 0)
(-0.055002363 -0.045679146 0)
(-0.045751663 -0.047288172 0)
(-0.036183024 -0.048532373 0)
(-0.026298446 -0.049387465 0)
(-0.016166069 -0.049899614 0)
(-0.0059182016 -0.050020852 0)
(0.0044167575 -0.049765604 0)
(0.014718022 -0.049157399 0)
(0.024892585 -0.048202358 0)
(0.034855172 -0.046893417 0)
(0.044533629 -0.045243364 0)
(0.05387103 -0.043212408 0)
(0.062733554 -0.040844251 0)
(0.071108235 -0.038140316 0)
(0.078922129 -0.035162786 0)
(0.086032181 -0.031780974 0)
(0.09255362 -0.028099898 0)
(0.098295531 -0.024158128 0)
(0.10314791 -0.019888817 0)
(0.10719934 -0.015427986 0)
(0.11029816 -0.010738526 0)
(0.1124293 -0.0060160973 0)
(0.11357879 -0.0012677606 0)
(0.11372611 0.0033648537 0)
(0.11294015 0.0078268025 0)
(0.11123847 0.011992689 0)
(0.10870915 0.015820299 0)
(0.10544107 0.019244673 0)
(0.10152125 0.0222292 0)
(0.09707175 0.024748022 0)
(0.092186489 0.026796331 0)
(0.086980157 0.028376798 0)
(0.081554206 0.029486881 0)
(0.075992257 0.03017788 0)
(0.070382169 0.030464513 0)
(0.06479227 0.030382599 0)
(0.059287574 0.029973248 0)
(0.05392347 0.029283682 0)
(0.048739086 0.028350026 0)
(0.04376976 0.027214076 0)
(0.039049526 0.025931502 0)
(0.034588929 0.024522838 0)
(0.030394107 0.023028479 0)
(0.026466145 0.021487242 0)
(0.022804324 0.019920601 0)
(0.019405303 0.018360155 0)
(0.016253517 0.016819609 0)
(0.013326247 0.015335275 0)
(0.010599393 0.013924812 0)
(0.0080669573 0.012617391 0)
(0.0057064085 0.011407803 0)
(0.0034668381 0.010321431 0)
(0.0013702571 0.0093681508 0)
(-0.00047433059 0.0085744018 0)
(-0.002075407 0.0079313386 0)
(-0.0052227419 0.0073928611 0)
(-0.0057095035 0.0069264852 0)
(0.0040726167 0.018493201 0)
(0.0017501671 0.019048993 0)
(-0.0020168406 0.019662148 0)
(-0.0043209059 0.02032655 0)
(-0.0072697977 0.021112995 0)
(-0.010312732 0.021999964 0)
(-0.013515474 0.022984558 0)
(-0.016855409 0.024055987 0)
(-0.020372944 0.025196699 0)
(-0.024095023 0.026396813 0)
(-0.028022364 0.027613039 0)
(-0.032169171 0.028833474 0)
(-0.036540749 0.030028211 0)
(-0.041133953 0.031167446 0)
(-0.045950249 0.032205555 0)
(-0.050974339 0.033120387 0)
(-0.056191383 0.033854537 0)
(-0.061577271 0.034377336 0)
(-0.067094562 0.034638407 0)
(-0.072711037 0.034594012 0)
(-0.078373646 0.03420233 0)
(-0.084018601 0.033416371 0)
(-0.089590344 0.032194238 0)
(-0.095014633 0.030514332 0)
(-0.10017819 0.028335706 0)
(-0.10502268 0.025644264 0)
(-0.10942184 0.022433497 0)
(-0.11326444 0.018705554 0)
(-0.1164799 0.014480747 0)
(-0.11893848 0.0098032325 0)
(-0.12055294 0.0047276544 0)
(-0.12123751 -0.00067482849 0)
(-0.12090795 -0.0062300598 0)
(-0.11955293 -0.011956336 0)
(-0.11716692 -0.017693756 0)
(-0.11371028 -0.023198279 0)
(-0.10926469 -0.028537016 0)
(-0.1039244 -0.033562788 0)
(-0.0977511 -0.038216503 0)
(-0.090829747 -0.042457221 0)
(-0.083224321 -0.046264912 0)
(-0.074997578 -0.049618507 0)
(-0.066226407 -0.052513111 0)
(-0.056968232 -0.054949854 0)
(-0.047307265 -0.056959937 0)
(-0.037313709 -0.058541808 0)
(-0.027035618 -0.059634917 0)
(-0.016525685 -0.060315074 0)
(-0.0058578585 -0.060529219 0)
(0.0048670892 -0.060336141 0)
(0.015546252 -0.05966476 0)
(0.026108414 -0.058539974 0)
(0.036443571 -0.056971791 0)
(0.04650649 -0.05496226 0)
(0.056232246 -0.052530742 0)
(0.065471472 -0.04972534 0)
(0.074173703 -0.046460119 0)
(0.082359847 -0.042875187 0)
(0.089872987 -0.038824202 0)
(0.096680064 -0.03438685 0)
(0.10274644 -0.029664363 0)
(0.10791122 -0.024501579 0)
(0.11220373 -0.019060419 0)
(0.11545529 -0.01342502 0)
(0.11761346 -0.0076400532 0)
(0.11871755 -0.0018742865 0)
(0.1187172 0.0037905003 0)
(0.11767708 0.0092283835 0)
(0.11561986 0.014302366 0)
(0.11267685 0.018949787 0)
(0.108938 0.02309257 0)
(0.10451296 0.026679429 0)
(0.09954502 0.029686018 0)
(0.094145545 0.032104421 0)
(0.088426231 0.033953834 0)
(0.082510263 0.03523703 0)
(0.076487391 0.036000613 0)
(0.070452606 0.036281064 0)
(0.064486951 0.036126611 0)
(0.058654148 0.035576972 0)
(0.053009832 0.034700739 0)
(0.047589383 0.033542067 0)
(0.042438474 0.032160854 0)
(0.037572946 0.030599956 0)
(0.033001647 0.028907906 0)
(0.028737942 0.027123473 0)
(0.024775432 0.025291219 0)
(0.021115165 0.023447342 0)
(0.017736814 0.021622681 0)
(0.014632222 0.019839644 0)
(0.011780766 0.018129017 0)
(0.0091462898 0.016510952 0)
(0.0067248154 0.015012347 0)
(0.0044866807 0.01364025 0)
(0.0023851086 0.012409109 0)
(0.00044396283 0.01132499 0)
(-0.0012393512 0.010412598 0)
(-0.0027101705 0.0096770624 0)
(-0.0057387198 0.0090714849 0)
(-0.0059657062 0.0085560866 0)
(0.0043707301 0.021058042 0)
(0.002362375 0.021664757 0)
(-0.0013198308 0.022369953 0)
(-0.0035532949 0.023121498 0)
(-0.0063758662 0.024027313 0)
(-0.0093077828 0.025052093 0)
(-0.01240707 0.026197001 0)
(-0.015662552 0.027454443 0)
(-0.019105077 0.028796182 0)
(-0.022779333 0.030205361 0)
(-0.026697892 0.031658364 0)
(-0.030849434 0.033113939 0)
(-0.035261034 0.034552486 0)
(-0.039933284 0.035931962 0)
(-0.044863866 0.037211157 0)
(-0.050049097 0.038348924 0)
(-0.055473476 0.039287409 0)
(-0.061111745 0.039987442 0)
(-0.066933268 0.040392346 0)
(-0.072893212 0.040436041 0)
(-0.078948978 0.040080643 0)
(-0.085051454 0.039267853 0)
(-0.091104964 0.037950099 0)
(-0.097041191 0.036081614 0)
(-0.10276523 0.033636465 0)
(-0.10816634 0.030553262 0)
(-0.1131345 0.026863205 0)
(-0.11754966 0.022519589 0)
(-0.12128392 0.01757002 0)
(-0.12420903 0.012060151 0)
(-0.12622307 0.0060569165 0)
(-0.12718971 -0.00036660627 0)
(-0.12703652 -0.0070330671 0)
(-0.1257806 -0.013858793 0)
(-0.12327451 -0.020652063 0)
(-0.11956977 -0.027255543 0)
(-0.1148415 -0.033579422 0)
(-0.10911881 -0.039522144 0)
(-0.10251458 -0.044999861 0)
(-0.095137082 -0.049959585 0)
(-0.087058152 -0.054404067 0)
(-0.078342847 -0.058342743 0)
(-0.069074246 -0.061769159 0)
(-0.059353149 -0.06465143 0)
(-0.049250015 -0.067048874 0)
(-0.038770028 -0.068957895 0)
(-0.027990501 -0.070329251 0)
(-0.016991702 -0.071182496 0)
(-0.0058868374 -0.071519127 0)
(0.0053002896 -0.071352135 0)
(0.016486131 -0.070601912 0)
(0.027531239 -0.069295345 0)
(0.038363872 -0.067468767 0)
(0.048892538 -0.065104907 0)
(0.059014752 -0.062248112 0)
(0.06870655 -0.058968072 0)
(0.077853855 -0.055142331 0)
(0.086450539 -0.050895768 0)
(0.094410328 -0.046230861 0)
(0.10159846 -0.041028404 0)
(0.10805848 -0.035420884 0)
(0.11362587 -0.029402624 0)
(0.11814996 -0.022907276 0)
(0.12160953 -0.016217116 0)
(0.12388987 -0.0092844663 0)
(0.12493691 -0.0023848364 0)
(0.12476419 0.0044568204 0)
(0.12339209 0.010954265 0)
(0.12090224 0.017028357 0)
(0.11744327 0.022567898 0)
(0.11311619 0.027478059 0)
(0.10806173 0.031700739 0)
(0.10244558 0.035210668 0)
(0.096405335 0.038000949 0)
(0.090066211 0.040093098 0)
(0.08355701 0.041514846 0)
(0.076995323 0.04230996 0)
(0.070470358 0.042541922 0)
(0.064054532 0.042257774 0)
(0.057831872 0.041526611 0)
(0.051863458 0.040412597 0)
(0.046178643 0.038980772 0)
(0.040811996 0.037295733 0)
(0.035785388 0.035408519 0)
(0.031105126 0.0333847 0)
(0.026773305 0.031271062 0)
(0.022788662 0.029116683 0)
(0.019136906 0.026964324 0)
(0.015800591 0.024841457 0)
(0.012764153 0.02279113 0)
(0.010002829 0.020826576 0)
(0.0074888592 0.018980742 0)
(0.0052031012 0.017277407 0)
(0.0031097157 0.015723779 0)
(0.0011579079 0.014337105 0)
(-0.00061680694 0.013121486 0)
(-0.0021120004 0.012087866 0)
(-0.0034248759 0.011262118 0)
(-0.0063116257 0.010596215 0)
(-0.0062452881 0.010029954 0)
(0.0047033682 0.0234958 0)
(0.0030295227 0.024159276 0)
(-0.00054921977 0.024921298 0)
(-0.0026712958 0.025769681 0)
(-0.0053452447 0.026797002 0)
(-0.0081462022 0.027979384 0)
(-0.011116624 0.029304144 0)
(-0.0142602 0.030758072 0)
(-0.017625469 0.032333411 0)
(-0.021235081 0.033969438 0)
(-0.025114972 0.035688448 0)
(-0.029274567 0.037416291 0)
(-0.033720399 0.039130448 0)
(-0.038470246 0.040795457 0)
(-0.043524819 0.042358196 0)
(-0.048886286 0.043767774 0)
(-0.054537597 0.044961824 0)
(-0.060452846 0.045889647 0)
(-0.06662207 0.046482135 0)
(-0.072993785 0.046689733 0)
(-0.079508251 0.046422181 0)
(-0.086111612 0.045633416 0)
(-0.092735191 0.044265921 0)
(-0.099282926 0.042242201 0)
(-0.10565877 0.039533677 0)
(-0.11174435 0.036091753 0)
(-0.11740188 0.031894807 0)
(-0.12250215 0.026930023 0)
(-0.12688173 0.021219119 0)
(-0.13039308 0.014797287 0)
(-0.13292167 0.0077583992 0)
(-0.13426837 0.00021318606 0)
(-0.13434047 -0.0076964528 0)
(-0.13310778 -0.015776851 0)
(-0.13048776 -0.023781394 0)
(-0.12654486 -0.031623063 0)
(-0.12141179 -0.039070951 0)
(-0.11520204 -0.04596843 0)
(-0.10803827 -0.052276504 0)
(-0.10008715 -0.057967331 0)
(-0.091468334 -0.063034673 0)
(-0.082232014 -0.067526909 0)
(-0.072415099 -0.071487754 0)
(-0.062137832 -0.074849541 0)
(-0.051513279 -0.077631223 0)
(-0.040503587 -0.079865518 0)
(-0.029180014 -0.081502721 0)
(-0.017647392 -0.082560659 0)
(-0.0059765516 -0.083033679 0)
(0.0057992809 -0.082843305 0)
(0.017568911 -0.082003004 0)
(0.029182929 -0.080533367 0)
(0.04056464 -0.078433996 0)
(0.051642921 -0.075736265 0)
(0.062273438 -0.072452836 0)
(0.072471648 -0.068614013 0)
(0.082129519 -0.064277052 0)
(0.091145494 -0.059376996 0)
(0.099604367 -0.054030004 0)
(0.10734423 -0.048137572 0)
(0.1142154 -0.041623419 0)
(0.12026218 -0.034637296 0)
(0.12523382 -0.02713025 0)
(0.12894471 -0.019142425 0)
(0.13133974 -0.010961259 0)
(0.13236913 -0.0027098436 0)
(0.13197528 0.0053786461 0)
(0.13017296 0.013089931 0)
(0.12716122 0.020287249 0)
(0.12305617 0.026802642 0)
(0.11800213 0.032537319 0)
(0.11217868 0.037419604 0)
(0.10578041 0.041433712 0)
(0.098965341 0.044583799 0)
(0.091880769 0.046892039 0)
(0.084671235 0.048410625 0)
(0.077462707 0.049193778 0)
(0.070353813 0.049308711 0)
(0.063430144 0.048831321 0)
(0.056772175 0.047851753 0)
(0.050432662 0.046436238 0)
(0.044446824 0.044665457 0)
(0.038846072 0.04261491 0)
(0.033646824 0.040354055 0)
(0.028853719 0.037948109 0)
(0.024463179 0.035461261 0)
(0.020465049 0.032943572 0)
(0.01683898 0.030441187 0)
(0.013564795 0.027996399 0)
(0.010620203 0.025643285 0)
(0.0079745466 0.023405012 0)
(0.0056028481 0.021304848 0)
(0.0034747756 0.019382198 0)
(0.0015532294 0.017633071 0)
(-0.00021049896 0.016082586 0)
(-0.0017953654 0.01473212 0)
(-0.0030877799 0.013581452 0)
(-0.0042100898 0.012660815 0)
(-0.0069367409 0.011928319 0)
(-0.006554224 0.011324071 0)
(0.0050610654 0.025772054 0)
(0.0037527883 0.026486253 0)
(0.00030197643 0.027332606 0)
(-0.001685842 0.028227608 0)
(-0.0041725273 0.02940708 0)
(-0.0068036346 0.030762969 0)
(-0.0096314909 0.032285919 0)
(-0.012636481 0.033959644 0)
(-0.015896496 0.035774515 0)
(-0.019425555 0.037689536 0)
(-0.023250711 0.039686661 0)
(-0.027405238 0.041726553 0)
(-0.031877167 0.043765601 0)
(-0.036697909 0.045757027 0)
(-0.041880198 0.047660414 0)
(-0.047430025 0.049391963 0)
(-0.053331435 0.050905317 0)
(-0.059566343 0.0521264 0)
(-0.066102796 0.052976616 0)
(-0.07291723 0.053398586 0)
(-0.079963285 0.053297403 0)
(-0.087160128 0.052598838 0)
(-0.094444042 0.051227236 0)
(-0.10171619 0.049105995 0)
(-0.1088541 0.046171195 0)
(-0.11573942 0.042383653 0)
(-0.12222745 0.037688981 0)
(-0.12815338 0.032079507 0)
(-0.13334188 0.025555235 0)
(-0.13759406 0.018140245 0)
(-0.14073152 0.0099592027 0)
(-0.14256691 0.0011427964 0)
(-0.14294989 -0.0082029337 0)
(-0.14178166 -0.017715837 0)
(-0.13903131 -0.027215518 0)
(-0.13475405 -0.036403658 0)
(-0.12904939 -0.045048456 0)
(-0.12215112 -0.052974523 0)
(-0.11431891 -0.060141387 0)
(-0.10570012 -0.066574144 0)
(-0.096433631 -0.072281995 0)
(-0.086621466 -0.077321102 0)
(-0.07623352 -0.081777121 0)
(-0.065345687 -0.085594055 0)
(-0.054128213 -0.088766694 0)
(-0.042521267 -0.091333316 0)
(-0.030584541 -0.09324692 0)
(-0.018440271 -0.09452767 0)
(-0.006110398 -0.09510747 0)
(0.0063467764 -0.094971061 0)
(0.018756481 -0.094054606 0)
(0.031030565 -0.09238986 0)
(0.043072397 -0.089992636 0)
(0.054767198 -0.086929247 0)
(0.06601574 -0.083191115 0)
(0.076743992 -0.078788455 0)
(0.08693908 -0.073899618 0)
(0.096529606 -0.068419481 0)
(0.10546997 -0.062349237 0)
(0.1138131 -0.055726106 0)
(0.12135453 -0.048418923 0)
(0.12791219 -0.040362567 0)
(0.13345653 -0.031688306 0)
(0.13762247 -0.022392793 0)
(0.14019977 -0.012701308 0)
(0.14116957 -0.0029317502 0)
(0.1404664 0.0066236095 0)
(0.13820599 0.01574829 0)
(0.13452296 0.024221233 0)
(0.12960299 0.031817643 0)
(0.12364494 0.038441618 0)
(0.1168728 0.044009584 0)
(0.10952765 0.048524808 0)
(0.10178509 0.052003424 0)
(0.093818666 0.054484132 0)
(0.085789095 0.056037376 0)
(0.077829028 0.056736623 0)
(0.070049881 0.056667548 0)
(0.062545911 0.055928565 0)
(0.055391522 0.054613185 0)
(0.048638856 0.052814448 0)
(0.042325798 0.050629401 0)
(0.036475592 0.048144861 0)
(0.031099495 0.045442423 0)
(0.026198443 0.042596967 0)
(0.021759287 0.039684154 0)
(0.017762763 0.03675373 0)
(0.014187042 0.033861162 0)
(0.01100268 0.031056335 0)
(0.0081747377 0.028374213 0)
(0.0056680027 0.025839564 0)
(0.0034716338 0.023469118 0)
(0.0015386662 0.021311139 0)
(-0.00018240805 0.019363099 0)
(-0.0017356004 0.017637161 0)
(-0.0031070631 0.016138125 0)
(-0.0041713056 0.014866966 0)
(-0.0050852621 0.013851228 0)
(-0.0076123507 0.013052622 0)
(-0.0068728109 0.012414042 0)
(0.0054467249 0.027844576 0)
(0.0045520979 0.02860819 0)
(0.0012032332 0.029529018 0)
(-0.00060636602 0.03051092 0)
(-0.0028170039 0.031846143 0)
(-0.0052701458 0.033376887 0)
(-0.0079229219 0.0351145 0)
(-0.010774737 0.037026607 0)
(-0.013897474 0.039111636 0)
(-0.017323357 0.041330076 0)
(-0.021076311 0.043642403 0)
(-0.025191715 0.046035519 0)
(-0.029683101 0.048446176 0)