/*--------------------------------*- C++ -*----------------------------------*\
  =========                 |
  \\      /  F ield         | OpenFOAM: The Open Source CFD Toolbox
   \\    /   O peration     | Website:  https://openfoam.org
    \\  /    A nd           | Version:  9
     \\/     M anipulation  |
\*---------------------------------------------------------------------------*/
FoamFile
{
    format      ascii;
    class       volScalarField;
    location    "31";
    object      p;
}
// * * * * * * * * * * * * * * * * * * * * * * * * * * * * * * * * * * * * * //

dimensions      [0 2 -2 0 0 0 0];

internalField   nonuniform List<scalar> 
400
(
8.1481629e-08
-0.00067278435
-0.0013852611
-0.0019426189
-0.0022199119
-0.0021564084
-0.0017277034
-0.00092611273
0.00023550716
0.0017074911
0.0033873716
0.0051122822
0.0066735647
0.0078491894
0.0084584765
0.0084237706
0.0078134828
0.0068446031
0.0058613847
0.0052990292
0.00065793011
-4.0436067e-05
-0.00056956967
-0.00094053516
-0.0011107729
-0.0010398308
-0.00070569985
-9.5454217e-05
0.00078918903
0.0019162736
0.0032096707
0.0045547893
0.0057820494
0.0067163454
0.0072145136
0.0072146178
0.0067700435
0.0060528572
0.0053106139
0.0047385719
0.0014237881
0.00044073885
-0.00011651087
-0.00045315361
-0.00061471849
-0.00058472124
-0.00034649061
0.00011983219
0.00082854732
0.0017699917
0.0028943735
0.0040982452
0.0052283232
0.0061110619
0.0065939609
0.0065977569
0.0061558291
0.0054215994
0.0045938306
0.0037483157
0.002014283
0.00068177333
1.6857119e-05
-0.00035876509
-0.00057146071
-0.00062647098
-0.00050999452
-0.00019054352
0.00036858836
0.001184471
0.0022299954
0.0034175065
0.0045914467
0.0055570265
0.0061236443
0.0061666535
0.0056837126
0.0048171386
0.0037473752
0.0024736789
0.0021673535
0.0004962029
-0.00029617342
-0.00074861931
-0.0010581668
-0.0012451837
-0.0012926619
-0.0011512157
-0.00075496448
-5.3015372e-05
0.00095710714
0.0022103619
0.0035447862
0.0047327412
0.0055219251
0.0057099697
0.0052293741
0.0042016899
0.0028062654
0.0009840412
0.0016540442
-0.00031439573
-0.0012387033
-0.0017992163
-0.0022525776
-0.002627825
-0.0028985361
-0.0029909967
-0.0028024513
-0.0022375929
-0.0012510137
0.00013097089
0.0017447209
0.0033271826
0.0045417182
0.0050658582
0.004717579
0.003566282
0.0017896736
-0.00072584255
0.00028710677
-0.001919488
-0.0029729151
-0.0036712979
-0.0043202121
-0.004953117
-0.0055300373
-0.0059478693
-0.0060589176
-0.0057072956
-0.0047756313
-0.0032586142
-0.001266432
0.00090725139
0.0028232007
0.0039869146
0.0040251767
0.0028877903
0.00071545863
-0.0026804216
-0.0020763472
-0.0044511096
-0.0056267212
-0.0064922385
-0.0073928349
-0.0083656782
-0.009356839
-0.0102317
-0.010790885
-0.010804754
-0.010063273
-0.0084616749
-0.0060406842
-0.0030831394
-0.00012623158
0.0021127
0.0029639065
0.0021356611
-0.00036595577
-0.0048725323
-0.0055240847
-0.007992031
-0.009277838
-0.010333706
-0.011537913
-0.01293533
-0.014462626
-0.015956242
-0.017162385
-0.017765949
-0.017437995
-0.015919388
-0.013122876
-0.0092516811
-0.0048989323
-0.0010299396
0.0012694874
0.0012778414
-0.0013338806
-0.0072015996
-0.010076831
-0.012565012
-0.013936581
-0.015183922
-0.016718297
-0.018602539
-0.020774118
-0.023048691
-0.025121616
-0.026586278
-0.026969272
-0.025812863
-0.0228456
-0.018074374
-0.012051017
-0.0059518774
-0.0013706621
0.00030067123
-0.0019471257
-0.0093821471
-0.015684906
-0.018132332
-0.019537474
-0.020926726
-0.022757658
-0.025129796
-0.027996928
-0.031166332
-0.034291405
-0.036876785
-0.038294105
-0.037844206
-0.035065782
-0.029601396
-0.021822424
-0.012985502
-0.0051848989
-0.00071567345
-0.001764122
-0.010792177
-0.02224352
-0.024612959
-0.025945514
-0.027334875
-0.029324078
-0.032079149
-0.035588866
-0.039664578
-0.043927206
-0.047801239
-0.050530122
-0.051236411
-0.048956806
-0.043143475
-0.033768943
-0.021926269
-0.010036807
-0.0014153673
-9.7896176e-06
-0.010225542
-0.029641138
-0.03192382
-0.032978675
-0.034079791
-0.035939424
-0.038831435
-0.042795539
-0.047651512
-0.052990464
-0.058163521
-0.062284181
-0.064265463
-0.062875088
-0.057112115
-0.04647667
-0.031649014
-0.015037786
-0.0008643129
0.0046468412
-0.0055214592
-0.037865929
-0.040048438
-0.040440072
-0.04075245
-0.042014966
-0.044652983
-0.048758118
-0.054143988
-0.060355963
-0.066665279
-0.07206062
-0.075268213
-0.074811292
-0.069269196
-0.057628235
-0.039961435
-0.018247896
0.0027891158
0.014445236
0.0069076267
-0.047230515
-0.04913428
-0.04814051
-0.04688224
-0.046905433
-0.048798616
-0.052668217
-0.058275945
-0.065076035
-0.07223193
-0.078595701
-0.082712252
-0.08288014
-0.077309321
-0.064523868
-0.043934882
-0.016747912
0.012503026
0.032938864
0.032409033
-0.058896725
-0.059639808
-0.055883825
-0.05194099
-0.049972262
-0.050629812
-0.053928577
-0.059495271
-0.066611792
-0.074285231
-0.081191102
-0.085679337
-0.085831729
-0.079522126
-0.06487603
-0.040689195
-0.0072408451
0.03213945
0.064981531
0.077749262
-0.076226453
-0.072613684
-0.06351608
-0.055435289
-0.050724956
-0.049781539
-0.052312277
-0.057664297
-0.064891752
-0.072774905
-0.079779301
-0.084036682
-0.083391589
-0.075348896
-0.057602606
-0.02837507
0.012933403
0.065396555
0.11555159
0.15150631
-0.10809216
-0.089556333
-0.071233768
-0.05723291
-0.049072048
-0.046330146
-0.048077199
-0.05320254
-0.060434556
-0.068295799
-0.075027329
-0.07852685
-0.076388943
-0.065809611
-0.043865414
-0.0078183786
0.044393743
0.11299823
0.1883805
0.27186085
-0.17684543
-0.10828968
-0.076202468
-0.054651189
-0.042992314
-0.038997962
-0.040570445
-0.045927979
-0.053441473
-0.061438294
-0.068027521
-0.070962495
-0.06755107
-0.054739771
-0.029148749
0.01356367
0.07814703
0.17006443
0.28949554
0.4742183
-0.37208343
-0.12470842
-0.054973016
-0.03196246
-0.022063495
-0.020300457
-0.024359392
-0.031957936
-0.041261496
-0.050640822
-0.058316837
-0.062187401
-0.059782491
-0.048056747
-0.022658463
0.021474276
0.092818794
0.21015284
0.4028885
0.77640936
)
;

boundaryField
{
    movingWall
    {
        type            zeroGradient;
    }
    fixedWalls
    {
        type            zeroGradient;
    }
    frontAndBack
    {
        type            empty;
    }
}


// ************************************************************************* //
