/*--------------------------------*- C++ -*----------------------------------*\
  =========                 |
  \\      /  F ield         | OpenFOAM: The Open Source CFD Toolbox
   \\    /   O peration     | Website:  https://openfoam.org
    \\  /    A nd           | Version:  9
     \\/     M anipulation  |
\*---------------------------------------------------------------------------*/
FoamFile
{
    format      ascii;
    class       volScalarField;
    location    "0.7";
    object      alpha.phase1;
}
// * * * * * * * * * * * * * * * * * * * * * * * * * * * * * * * * * * * * * //

dimensions      [0 0 0 0 0 0 0];

internalField   nonuniform List<scalar> 
10000
(
4.7164428e-84
6.1863269e-84
4.0429905e-82
3.9531339e-81
5.354413e-81
2.3887143e-81
6.4160226e-82
2.5284802e-82
2.529931e-82
1.6761678e-81
2.1364868e-79
1.93152e-77
1.1745059e-75
8.373765e-74
6.5427859e-72
4.8685878e-70
3.3947056e-68
2.2245259e-66
1.3751604e-64
8.047078e-63
4.4711836e-61
2.3653348e-59
1.1943386e-57
5.7695755e-56
2.6688733e-54
1.1766829e-52
4.9705508e-51
2.2365548e-49
1.284554e-47
5.5884361e-46
9.1100123e-45
6.5684604e-44
4.7473226e-43
1.0965085e-41
3.9598794e-40
1.4485192e-38
4.8816509e-37
1.475134e-35
3.8245012e-34
7.2506837e-33
8.7442201e-32
8.0723684e-31
8.6779722e-30
1.2486674e-28
2.3256147e-27
4.5642401e-26
8.2283328e-25
1.4124273e-23
2.5030591e-22
4.7083236e-21
1.3802195e-19
4.9455918e-18
1.3578809e-16
1.6309305e-15
1.0706961e-14
3.0443723e-14
2.7895393e-14
1.1336505e-14
3.0427063e-15
4.6162097e-16
3.4965279e-17
2.0989342e-18
1.4585643e-19
1.0342033e-20
6.8011296e-22
4.1342918e-23
2.3443242e-24
1.2377719e-25
6.0595248e-27
2.7435993e-28
1.1470269e-29
4.4208375e-31
1.5681104e-32
5.1099292e-34
1.5269076e-35
4.1758453e-37
1.0432103e-38
2.3759721e-40
4.9234888e-42
9.2629067e-44
1.5787105e-45
2.4317829e-47
3.3770332e-49
4.2165355e-51
4.7195044e-53
4.7198144e-55
4.201732e-57
3.31555e-59
2.3074843e-61
1.407774e-63
7.4722833e-66
3.4182022e-68
1.3315735e-70
4.3488192e-73
1.1657008e-75
2.4937823e-78
1.0560179e-80
6.6715018e-81
6.6712513e-81
6.7142957e-81
5.2017267e-84
9.9982135e-83
5.1355515e-81
4.0040753e-80
6.042057e-80
5.0652441e-80
3.287984e-80
1.2947145e-80
3.0473744e-81
5.1387074e-80
5.990196e-78
6.3636602e-76
6.1269249e-74
5.429234e-72
4.4529862e-70
3.3956552e-68
2.4194611e-66
1.6182516e-64
1.0201276e-62
6.0830841e-61
3.4423904e-59
1.8538941e-57
9.5266523e-56
4.6806135e-54
2.193589e-52
9.7756175e-51
4.3847753e-49
2.3665427e-47
1.2541172e-45
3.1478377e-44
3.5541361e-43
3.7618207e-42
9.5226837e-41
3.4082845e-39
1.2726823e-37
4.6795879e-36
1.5864001e-34
4.8497062e-33
1.2946859e-31
2.5469387e-30
2.9636225e-29
2.2321354e-28
1.7182899e-27
2.222023e-26
4.3451081e-25
9.0744321e-24
1.7795676e-22
3.2590939e-21
5.9444108e-20
1.3409716e-18
3.8955619e-17
2.1639109e-16
1.7001186e-15
1.1013582e-14
3.012047e-14
7.3665393e-14
1.7980871e-13
5.971533e-13
3.2530065e-13
6.7453905e-14
5.9179872e-15
3.3244513e-16
2.0286165e-17
1.3216884e-18
8.1278622e-20
4.6064391e-21
2.4224491e-22
1.1835264e-23
5.3619138e-25
2.2501474e-26
8.741621e-28
3.1412817e-29
1.042828e-30
3.1928758e-32
8.9980964e-34
2.3290862e-35
5.5249416e-37
1.1983886e-38
2.3713654e-40
4.2698501e-42
6.9792582e-44
1.0327931e-45
1.3796932e-47
1.6587455e-49
1.7886461e-51
1.7229694e-53
1.47627e-55
1.119364e-57
7.4659892e-60
4.3481715e-62
2.1898294e-64
9.4248343e-67
3.4113343e-69
1.0147345e-71
2.3959399e-74
4.2469759e-77
1.2961222e-79
4.173086e-80
7.3179213e-81
7.1789138e-81
4.9852005e-81
1.5934723e-79
6.2375832e-78
3.3757988e-77
4.380511e-77
3.4715876e-77
2.1316296e-77
8.2428308e-78
1.8999379e-78
3.0134052e-77
3.6518193e-75
3.9602607e-73
3.8948857e-71
3.5065668e-69
2.9119156e-67
2.2446037e-65
1.615155e-63
1.0900697e-61
6.9294947e-60
4.1647333e-58
2.3743778e-56
1.2878211e-54
6.6634478e-53
3.2962044e-51
1.5548262e-49
6.9677813e-48
3.1524315e-46
1.7734756e-44
1.0092427e-42
2.5053756e-41
2.4266715e-40
1.604544e-39
2.260651e-38
7.0349958e-37
2.5447498e-35
9.3420011e-34
3.1867073e-32
9.8358001e-31
2.6807091e-29
5.3697606e-28
6.0345647e-27
3.9885702e-26
2.4196565e-25
2.4764232e-24
4.5670372e-23
9.7185759e-22
1.9808735e-20
3.7467602e-19
7.2202829e-18
2.036598e-16
3.3255244e-15
1.3893747e-14
1.4748625e-13
8.6506476e-13
1.9000443e-12
4.7670855e-12
6.2990827e-12
3.8716315e-11
2.2174398e-11
4.6323546e-12
4.6068261e-13
2.8418122e-14
1.7225615e-15
1.0983209e-16
6.6785029e-18
3.7456854e-19
1.9393286e-20
9.2892388e-22
4.1135519e-23
1.6825638e-24
6.3531363e-26
2.2131016e-27
7.1063323e-29
2.1009353e-30
5.710234e-32
1.4243572e-33
3.254311e-35
6.7964386e-37
1.2944308e-38
2.2427708e-40
3.5260158e-42
5.0166842e-44
6.4392139e-46
7.4318798e-48
7.6840718e-50
7.0868504e-52
5.8017682e-54
4.1928351e-56
2.656821e-58
1.4632168e-60
6.921802e-63
2.7677584e-65
9.1534135e-68
2.4353928e-70
5.0221452e-73
9.2318885e-76
1.0008321e-76
5.4759542e-77
1.4221333e-77
1.0360857e-77
2.5746455e-78
1.4114107e-76
4.401656e-75
1.7797663e-74
2.1171283e-74
1.6514711e-74
9.8878835e-75
3.7791146e-75
8.7139187e-76
1.3555071e-74
1.6820667e-72
1.863162e-70
1.8643554e-68
1.7029268e-66
1.4315874e-64
1.1153057e-62
8.1003704e-61
5.5119108e-59
3.5297165e-57
2.1355752e-55
1.2249864e-53
6.681529e-52
3.4753819e-50
1.7274928e-48
8.1854232e-47
3.684111e-45
1.6734113e-43
9.4480377e-42
5.4996671e-40
1.4146706e-38
1.3693654e-37
7.9803073e-37
6.3582137e-36
1.2343104e-34
3.8195144e-33
1.3753233e-31
4.7149902e-30
1.4694587e-28
4.0884574e-27
8.3196873e-26
9.0360897e-25
5.3044503e-24
2.5618477e-23
1.9701084e-22
3.2904985e-21
7.0715993e-20
1.47588e-18
2.9157618e-17
6.127249e-16
1.0207025e-14
3.6011285e-14
8.1432237e-13
8.391478e-12
4.8770554e-11
1.0705757e-10
2.9025322e-10
3.245606e-10
1.8398113e-09
1.1387145e-09
2.3426189e-10
1.991149e-11
1.2780981e-12
9.5625759e-14
6.5927328e-15
4.0151938e-16
2.2229637e-17
1.1304221e-18
5.2919446e-20
2.2807863e-21
9.0503703e-23
3.3066043e-24
1.1121106e-25
3.4414194e-27
9.7896807e-29
2.5568801e-30
6.1222391e-32
1.3414875e-33
2.6846945e-35
4.8953932e-37
8.1127665e-39
1.2186631e-40
1.6544121e-42
2.0231554e-44
2.220519e-46
2.1775449e-48
1.8992438e-50
1.4645717e-52
9.9381415e-55
5.8800761e-57
2.9959786e-59
1.3006191e-61
4.7744073e-64
1.4994283e-66
3.9032091e-69
8.1087374e-72
9.2857679e-74
8.0824237e-74
4.4837477e-74
1.304926e-74
7.4605179e-75
1.0047144e-75
7.0591547e-74
1.9970822e-72
6.9840225e-72
7.8645528e-72
6.0908168e-72
3.5872589e-72
1.3656848e-72
3.1473019e-73
4.9802871e-72
6.3860539e-70
7.2642416e-68
7.4216698e-66
6.8930417e-64
5.8744356e-62
4.6291677e-60
3.3946344e-58
2.329056e-56
1.5021418e-54
9.1436159e-53
5.2723207e-51
2.889084e-49
1.5089098e-47
7.5270994e-46
3.5768284e-44
1.6144958e-42
7.3684058e-41
4.1490946e-39
2.3711557e-37
6.1929976e-36
6.3904938e-35
4.0418545e-34
2.7597059e-33
2.68202e-32
4.8853266e-31
1.6006131e-29
5.4857717e-28
1.7309835e-26
4.9306394e-25
1.0151494e-23
1.0603634e-22
5.575934e-22
2.1759392e-21
1.2082107e-20
1.7114198e-19
3.7188053e-18
8.2520099e-17
1.8686185e-15
2.8865609e-14
8.7144049e-14
1.5683581e-12
3.6476635e-11
3.4986385e-10
1.9380177e-09
4.2147485e-09
1.2269874e-08
1.4996565e-08
6.7889113e-08
4.6943938e-08
1.0105308e-08
3.2307147e-10
8.3266622e-13
5.5635352e-13
1.8066199e-13
1.741969e-14
7.6940556e-16
3.5552374e-17
1.6327753e-18
6.913514e-20
2.670928e-21
9.4571143e-23
3.0739094e-24
9.1718793e-26
2.5108559e-27
6.3001889e-29
1.4469455e-30
3.0366254e-32
5.8113939e-34
1.0117401e-35
1.5982067e-37
2.2866417e-39
2.9536926e-41
3.4302797e-43
3.5663832e-45
3.3034095e-47
2.7114995e-49
1.9749539e-51
1.2626882e-53
7.0599466e-56
3.475258e-58
1.4735584e-60
5.2982127e-63
1.5880109e-65
3.8775916e-68
1.163869e-70
5.1200878e-71
4.9130989e-71
2.6875984e-71
8.1285844e-72
4.0574154e-72
3.1523227e-73
2.4990419e-71
6.7461057e-70
2.1806378e-69
2.3706569e-69
1.8300752e-69
1.0670465e-69
4.0590625e-70
9.34573e-71
1.5077901e-69
2.0271314e-67
2.389948e-65
2.5075813e-63
2.3770889e-61
2.0588137e-59
1.6436752e-57
1.218115e-55
8.4304931e-54
5.4763562e-52
3.3534615e-50
1.9431953e-48
1.0692144e-46
5.6034075e-45
2.8029091e-43
1.3343625e-41
6.0344415e-40
2.7720493e-38
1.5665838e-36
8.6687081e-35
2.2245144e-33
2.454934e-32
1.8627018e-31
1.3847642e-30
8.6876127e-30
6.6086018e-29
1.565073e-27
5.2716181e-26
1.6910219e-24
4.9564101e-23
1.0232008e-21
1.0118443e-20
4.8002029e-20
1.579511e-19
6.4718774e-19
6.5769244e-18
1.427458e-16
3.7584612e-15
7.2221628e-14
4.0184431e-13
2.0623584e-12
6.0315266e-11
1.2880912e-09
1.1162553e-08
5.8832435e-08
1.2399661e-06
9.2516049e-06
1.8043676e-05
1.273007e-05
2.6145894e-06
1.8939445e-07
6.4445511e-10
4.8400109e-11
-3.7308435e-14
4.9437767e-13
1.5209192e-13
2.1690005e-14
1.0238919e-15
3.5427363e-17
1.3740735e-18
5.1629077e-20
1.7607052e-21
5.472136e-23
1.5578131e-24
4.0624082e-26
9.6948835e-28
2.1157801e-29
4.2194901e-31
7.6691575e-33
1.2664248e-34
1.8949085e-36
2.5658086e-38
3.138046e-40
3.4503781e-42
3.3941817e-44
2.995255e-46
2.3614101e-48
1.6494365e-50
1.0137773e-52
5.4449963e-55
2.5329027e-57
1.0089658e-59
3.3917097e-62
9.4475139e-65
2.1506058e-67
2.2411344e-68
2.4674474e-68
2.3784141e-68
1.2557848e-68
3.8416127e-69
1.7602995e-69
8.313451e-71
6.9403672e-69
1.8311835e-67
5.6550313e-67
6.0102304e-67
4.6344812e-67
2.6874585e-67
1.0245246e-67
2.3666485e-68
3.6620438e-67
5.30334e-65
6.5830277e-63
7.159274e-61
6.9668828e-59
6.1550545e-57
4.9904973e-55
3.7435544e-53
2.6161969e-51
1.712695e-49
1.0553365e-47
6.1458386e-46
3.3950515e-44
1.7848915e-42
8.9508491e-41
4.268444e-39
1.933675e-37
8.9503464e-36
5.1118024e-34
2.755056e-32
6.8436461e-31
7.857027e-30
7.1883331e-29
6.0916448e-28
3.0793812e-27
1.1835972e-26
1.3686739e-25
4.3090795e-24
1.4157899e-22
4.3156704e-21
8.7980823e-20
8.0121083e-19
3.4835083e-18
1.0703311e-17
3.5725947e-17
1.9486224e-16
3.8826537e-15
9.1013521e-14
8.7569044e-13
3.0265296e-12
7.1550329e-11
1.8862206e-09
2.2585124e-08
4.634833e-06
2.2647432e-05
3.5486762e-05
5.4809229e-05
5.4971342e-05
5.4990718e-05
4.1508133e-05
3.6794314e-06
1.6358239e-08
8.9555521e-10
8.0466828e-11
6.1744013e-12
6.2204945e-13
7.8918248e-14
9.8313217e-15
5.1407818e-16
1.7462767e-17
5.8667891e-19
1.8956252e-20
5.6157228e-22
1.5195903e-23
3.7704883e-25
8.5691218e-27
1.7839941e-28
3.3950371e-30
5.8903294e-32
9.3242383e-34
1.3414837e-35
1.7469644e-37
2.0530181e-39
2.1700445e-41
2.0550777e-43
1.7366779e-45
1.3031858e-47
8.6283138e-50
5.0041259e-52
2.5198927e-54
1.089352e-56
3.9792289e-59
1.2188543e-61
2.9856856e-64
6.5228665e-66
6.4785482e-66
9.8530955e-66
9.465785e-66
4.7705483e-66
1.4581487e-66
6.3106233e-67
1.9062495e-68
1.5920342e-66
4.16502e-65
1.2542884e-64
1.3138737e-64
1.0141658e-64
5.8693453e-65
2.2502107e-65
5.1971181e-66
6.5365773e-65
1.0951799e-62
1.4779904e-60
1.6938259e-58
1.7079973e-56
1.548243e-54
1.2794276e-52
9.7371607e-51
6.8805476e-49
4.5426827e-47
2.8174917e-45
1.6490724e-43
9.1445338e-42
4.8214313e-40
2.4229736e-38
1.1567422e-36
5.2461169e-35
2.4454982e-33
1.4132263e-31
7.4746847e-30
1.8064301e-28
2.1338696e-27
2.3017322e-26
2.1857509e-25
9.717688e-25
2.567464e-24
1.2187149e-23
3.0901643e-22
1.0408836e-20
3.3829495e-19
6.831158e-18
5.6135634e-17
2.1354784e-16
5.5085163e-16
1.2920752e-15
4.8217093e-15
6.7627642e-14
6.2440791e-13
3.0325028e-12
6.0585213e-11
1.8143809e-09
2.6213808e-08
1.4822629e-05
4.1258562e-05
5.0032276e-05
5.1769596e-05
5.3790772e-05
5.420425e-05
5.5060872e-05
5.5060872e-05
5.5060872e-05
1.9479165e-05
2.3725712e-08
1.7354942e-09
1.1531733e-10
8.7051197e-12
6.5887642e-13
4.528325e-14
5.6872566e-15
2.6712796e-16
7.3653517e-18
2.0217542e-19
5.3613973e-21
1.3175285e-22
2.9786863e-24
6.1990742e-26
1.1865166e-27
2.0851575e-29
3.3505578e-31
4.9201135e-33
6.5829138e-35
7.9987048e-37
8.797958e-39
8.7277032e-41
7.77548e-43
6.1864866e-45
4.3656301e-47
2.709952e-49
1.4651354e-51
6.812206e-54
2.6854251e-56
8.822716e-59
2.3836453e-61
1.4090209e-63
1.0570813e-63
2.3519558e-63
3.3631945e-63
3.1668459e-63
1.5136609e-63
4.6097301e-64
1.9133388e-64
3.9108495e-66
3.1195803e-64
8.1699552e-63
2.4313294e-62
2.5239062e-62
1.9539407e-62
1.1324444e-62
4.3685433e-63
9.1123195e-64
8.0816413e-63
1.6310834e-60
2.5660592e-58
3.1900772e-56
3.3804302e-54
3.1676606e-52
2.6794191e-50
2.0738511e-48
1.4835398e-46
9.882796e-45
6.169338e-43
3.6272798e-41
2.0176441e-39
1.0659652e-37
5.3629396e-36
2.5610091e-34
1.1619051e-32
5.4384409e-31
3.1523097e-29
1.6419484e-27
3.9495157e-26
4.9127355e-25
6.149755e-24
6.1913319e-23
2.4958757e-22
5.272116e-22
1.2488706e-21
1.9867922e-20
6.8604597e-19
2.5543148e-17
5.2873049e-16
3.5038079e-15
8.513556e-15
1.211619e-14
1.6597957e-14
8.2435797e-14
5.4309344e-13
1.9875794e-12
3.6779063e-11
1.5545546e-09
1.5190715e-08
1.4912875e-05
4.199638e-05
4.2004463e-05
3.86169e-05
2.9371948e-05
1.6419139e-05
5.0437949e-06
7.3386658e-06
4.9802474e-05
5.4896404e-05
5.4289383e-05
1.8606159e-05
7.059344e-08
6.5137341e-09
3.4889605e-10
1.700943e-11
7.8415977e-13
3.2890919e-14
2.2378814e-15
7.8212287e-17
2.0676544e-18
5.3877975e-20
1.3011408e-21
2.8559094e-23
5.7489792e-25
1.0704499e-26
1.846827e-28
2.9255773e-30
4.2329668e-32
5.5686829e-34
6.6138792e-36
7.054117e-38
6.6968333e-40
5.6199091e-42
4.1740075e-44
2.7158908e-46
1.529579e-48
7.3693785e-51
3.0069921e-53
9.9985002e-56
2.7053449e-58
6.4421092e-61
1.9448095e-61
3.6242532e-61
7.4528497e-61
9.8339778e-61
9.0501677e-61
4.1037086e-61
1.2414542e-61
4.9961546e-62
7.3690119e-64
5.3446368e-62
1.4094661e-60
4.1873871e-60
4.3246709e-60
3.3627404e-60
1.9572991e-60
7.4973524e-61
1.6176453e-61
1.0342556e-60
1.4505595e-58
1.9310095e-56
2.1718699e-54
2.2701144e-52
2.188406e-50
1.9026617e-48
1.5023826e-46
1.0895209e-44
7.3249384e-43
4.5994464e-41
2.7134433e-39
1.5116368e-37
7.9866986e-36
4.0159707e-34
1.9229866e-32
8.76557e-31
3.8993205e-29
1.8132631e-27
8.5447817e-26
3.2989435e-24
1.0496991e-22
2.3890112e-21
2.0359703e-20
6.0407914e-20
9.6280345e-20
1.4193143e-19
1.1977153e-18
4.2501906e-17
1.9163981e-15
3.4416983e-14
1.3602071e-13
1.6972464e-13
1.046274e-13
9.82009e-14
5.1811506e-13
2.0948386e-12
2.9249003e-11
5.766488e-10
1.1678731e-08
1.3660715e-05
4.3958316e-05
4.3141284e-05
2.3299136e-05
8.4381106e-07
6.7870124e-07
6.0243106e-07
6.2642871e-07
6.6939693e-07
7.1245665e-07
2.0211478e-05
5.3505272e-05
5.1348588e-05
1.0472206e-05
4.3369894e-08
2.8846154e-09
1.3004241e-10
5.1710865e-12
2.021015e-13
1.6431483e-14
8.6447968e-16
2.4411384e-17
5.6366009e-19
1.2698003e-20
2.6840886e-22
5.2293723e-24
9.3817587e-26
1.5419469e-27
2.3077959e-29
3.1267965e-31
3.8279908e-33
4.402247e-35
4.626869e-37
4.5941652e-39
4.1587807e-41
2.7993817e-43
1.560012e-45
7.5232527e-48
3.1017451e-50
1.0645113e-52
2.9956964e-55
7.5353737e-58
5.2883709e-59
5.6099769e-59
1.0861405e-58
2.0421214e-58
2.4972693e-58
2.2358127e-58
9.6562004e-59
2.8922532e-59
1.1394526e-59
1.3068669e-61
8.1508308e-60
2.1713926e-58
6.4907377e-58
6.6887261e-58
5.2285755e-58
3.0544484e-58
1.1835659e-58
2.3043326e-59
5.457007e-59
8.3405609e-57
1.5684705e-54
3.3278154e-52
4.6164202e-50
4.9872871e-48
4.6033469e-46
3.7740047e-44
2.8078635e-42
1.9218157e-40
1.2219266e-38
7.2717123e-37
4.0750031e-35
2.1619865e-33
1.0901074e-31
5.2170937e-30
2.3709708e-28
1.0821703e-26
5.6776384e-25
2.924435e-23
9.1229259e-22
1.8349619e-20
3.17754e-19
2.6385515e-18
7.7273364e-18
1.1502275e-17
1.4029083e-17
6.3125423e-17
2.0738714e-15
9.1272058e-14
1.4613069e-12
5.1717818e-12
5.7135142e-12
1.7059061e-12
1.2892872e-12
2.4404299e-12
8.3701328e-11
2.1485703e-09
9.1779871e-09
2.1528899e-06
5.2203011e-05
5.2632439e-05
1.3873538e-05
1.7160892e-06
1.5910428e-06
1.1958142e-06
5.2664598e-07
5.7752275e-07
6.4775812e-07
6.911684e-07
7.447121e-07
3.5425254e-05
4.9480431e-05
3.7595781e-05
1.4368044e-06
9.0298252e-09
3.7937195e-10
1.3755984e-11
4.8800447e-13
4.9066604e-14
4.4084442e-15
1.6522984e-16
3.8898944e-18
8.997135e-20
2.0008752e-21
3.9444853e-23
6.84632e-25
1.0717109e-26
1.5210459e-28
1.950647e-30
2.1842533e-32
2.1304665e-34
1.820409e-36
1.3488798e-38
8.7694796e-41
5.8590581e-43
3.3554735e-45
1.6003417e-47
6.337149e-50
2.0598718e-52
5.0322375e-55
9.1864451e-57
9.7769147e-57
1.5711136e-56
2.8194265e-56
4.8588161e-56
5.6296385e-56
4.7829892e-56
1.9917699e-56
5.9026442e-57
2.2959826e-57
2.2281127e-59
1.1230088e-57
3.0220759e-56
9.1500019e-56
9.431208e-56
7.4161106e-56
4.3444355e-56
1.7225826e-56
7.3838173e-59
6.6846087e-57
8.27423e-55
1.0614584e-52
1.1762143e-49
3.1851874e-47
4.1732793e-45
4.2359599e-43
3.6757619e-41
2.8392596e-39
1.9952394e-37
1.2935103e-35
7.8130108e-34
4.431357e-32
2.3751822e-30
1.2060441e-28
5.7666915e-27
2.6627375e-25
1.4637625e-23
1.1939498e-21
5.6359255e-20
7.5255204e-19
3.6611975e-18
1.7136264e-17
1.4782842e-16
6.0022673e-16
9.6152318e-16
1.00146e-15
3.137601e-15
8.7288893e-14
4.1046742e-12
7.9966044e-11
2.7689991e-10
2.7997687e-10
4.0197511e-11
1.4532455e-10
1.6056409e-09
1.1861847e-09
5.0727504e-08
2.0198189e-06
3.5172036e-05
5.2632439e-05
1.2712299e-05
1.2776194e-06
1.9981787e-06
3.4126345e-06
2.3900309e-06
4.027489e-07
4.9001238e-07
1.9416366e-06
9.6235295e-07
8.8792319e-07
1.360468e-06
4.5833357e-05
5.4800354e-05
1.4745429e-05
3.5000515e-08
1.289303e-09
3.9018263e-11
1.0652169e-12
4.0806048e-14
1.4157023e-14
9.5551707e-16
1.6322458e-17
2.7988421e-19
5.3660855e-21
9.6520048e-23
1.5681096e-24
2.2717285e-26
2.920616e-28
3.3334649e-30
3.4620372e-32
3.2301046e-34
2.6503001e-36
1.9063881e-38
1.1748675e-40
5.9254074e-43
2.5960948e-45
9.4342775e-48
2.6013504e-50
7.520351e-53
1.6020773e-54
1.1049257e-54
2.6296906e-54
3.849773e-54
6.355116e-54
1.0093742e-53
1.1398083e-53
8.9121332e-54
3.6357053e-54
1.0660047e-54
4.1269726e-55
3.7096901e-57
1.4140761e-55
3.8358258e-54
1.1834679e-53
1.2223816e-53
9.6468746e-54
5.783267e-54
1.7621831e-54
4.9398909e-56
6.9985013e-54
8.8311866e-52
9.9727884e-50
1.3297705e-47
7.1977941e-44
1.8409648e-41
2.2751648e-39
2.1874571e-37
1.8052409e-35
1.331655e-33
8.9753553e-32
5.6068925e-30
3.2674576e-28
1.7578363e-26
9.2765827e-25
8.4190315e-23
1.375539e-20
4.2878334e-19
1.8018213e-18
1.8244796e-18
7.797982e-19
8.9852016e-19
3.7103998e-16
7.9771817e-16
7.5895127e-16
8.6391112e-16
9.6323419e-15
7.9084037e-14
2.6260962e-13
7.7745279e-11
4.3198785e-09
1.4564234e-08
1.4551288e-08
7.9296619e-09
6.0707196e-08
1.8373963e-08
6.0600866e-09
9.5716885e-08
1.5526244e-05
5.1257514e-05
4.8806888e-05
1.2138801e-06
1.2490592e-06
4.0708414e-06
3.0988212e-06
1.7177129e-07
1.7447818e-07
1.0868355e-06
2.6239834e-06
1.9701213e-06
1.001685e-06
1.035178e-06
3.5216483e-05
5.5338036e-05
2.4078017e-05
3.3210675e-08
1.1419951e-09
6.7805817e-11
3.9473233e-12
1.874119e-13
2.3215462e-14
1.022837e-15
2.0598577e-17
3.8021232e-19
6.9607071e-21
1.1564806e-22
1.7264477e-24
2.317272e-26
2.7891273e-28
2.9739758e-30
2.7677387e-32
2.2457647e-34
1.5828482e-36
9.5369005e-39
4.8355097e-41
1.9100602e-43
5.5390825e-46
1.1311499e-48
1.9743098e-50
1.7569833e-51
1.9929688e-52
3.0939428e-52
6.0517028e-52
8.2815154e-52
1.2560305e-51
1.8555242e-51
2.049637e-51
1.4749158e-51
5.9169611e-52
1.7175485e-52
6.6691231e-53
6.0814617e-55
1.6504046e-53
4.477794e-52
1.4149766e-51
1.4670734e-51
1.1650251e-51
6.943553e-52
1.5897336e-52
5.7198039e-52
7.7959363e-50
9.6223139e-48
1.110058e-45
1.2248996e-43
1.4635964e-41
2.3487517e-39
3.8273904e-37
4.0175305e-35
3.4318064e-33
2.5607628e-31
1.7232872e-29
1.0656226e-27
6.1342885e-26
3.3166998e-24
1.6837297e-22
7.9826366e-21
4.0286502e-19
3.7938891e-17
3.6588944e-15
7.280087e-14
2.9216168e-13
4.1463988e-13
3.2833657e-13
1.9564475e-13
4.7609492e-13
9.9299624e-13
1.0004282e-12
3.5791485e-13
7.5885287e-12
1.8937791e-10
1.080526e-07
1.00125e-06
2.7420686e-06
3.0858717e-06
3.0548761e-07
1.9259946e-08
2.005713e-08
7.8905129e-08
2.1676829e-05
4.2526824e-05
3.6444113e-06
1.2138326e-06
1.5311265e-06
4.0825327e-06
1.7694817e-07
1.7177129e-07
1.7177129e-07
1.1816049e-06
2.6239834e-06
1.6491513e-06
1.1118399e-06
1.1436824e-06
4.9918273e-05
5.5422805e-05
5.0017391e-05
2.0975297e-06
1.5418525e-09
2.1074355e-10
8.8294792e-12
3.2950965e-13
2.0166565e-14
7.0261632e-16
1.5149962e-17
2.4754409e-19
4.3335304e-21
6.9461287e-23
9.5902184e-25
1.1430422e-26
1.179371e-28
1.0554671e-30
7.99617e-33
5.0809055e-35
2.6944896e-37
1.1747235e-39
4.1456145e-42
1.0344063e-44
5.0959407e-47
5.2662665e-48
1.1753717e-48
1.6881371e-49
3.1159216e-50
7.2991987e-50
1.203829e-49
1.5659636e-49
2.1960008e-49
3.0405828e-49
3.2737549e-49
2.1895854e-49
8.6348266e-50
2.4850525e-50
9.7490554e-51
9.82327e-53
1.8094407e-51
4.8428461e-50
1.5735044e-49
1.6400911e-49
1.3129687e-49
7.8561911e-50
2.8743668e-50
6.9365765e-50
7.3636155e-48
1.1058754e-45
1.4492618e-43
1.6883229e-41
1.8882893e-39
2.1507552e-37
2.0997735e-35
1.8261521e-33
1.4408087e-31
1.0262045e-29
6.6604292e-28
3.98569e-26
2.2239466e-24
1.1672512e-22
5.7725256e-21
2.6682001e-19
1.2529429e-17
9.6218429e-16
1.0038314e-13
2.5979538e-12
1.2951697e-11
2.0395433e-11
1.5362873e-11
7.9809125e-12
2.6469786e-11
3.8451509e-11
2.6030108e-11
8.6501824e-12
1.5389726e-10
3.6361441e-09
3.2136076e-07
3.1784858e-05
6.9253406e-05
2.4063812e-05
2.8269737e-08
2.2874799e-08
6.2910445e-08
1.101185e-06
6.2869217e-06
1.2168151e-06
1.2134196e-06
1.1606483e-06
1.6401601e-06
4.0620714e-06
1.9806313e-07
1.7176996e-07
1.7488816e-07
1.2654763e-06
2.6239834e-06
2.4866426e-06
1.1553119e-06
7.4868502e-06
5.5607673e-05
5.5515239e-05
4.8266114e-05
1.2470834e-06
1.792045e-08
4.5330435e-10
1.0971023e-11
3.5388418e-13
1.874884e-14
1.2687983e-15
4.4341406e-17
2.0453812e-19
8.0246103e-22
1.3043244e-23
1.9340841e-25
2.0885989e-27
1.8151014e-29
1.2930195e-31
7.4036247e-34
3.3921873e-36
1.2577357e-38
3.6816538e-41
6.7287428e-44
3.1351831e-45
1.6430264e-45
3.4361088e-46
9.238036e-47
1.6400116e-47
6.1222617e-48
1.439477e-47
2.0884733e-47
2.6068121e-47
3.4080969e-47
4.4515901e-47
4.6808037e-47
2.9270141e-47
1.1349071e-47
3.2462803e-48
1.2957974e-48
1.5567105e-50
1.886981e-49
4.8890978e-48
1.6360164e-47
1.7180768e-47
1.3885775e-47
8.2198416e-48
3.6668547e-48
3.8447143e-48
1.109084e-46
2.0741686e-44
3.075761e-42
3.767761e-40
3.95791e-38
3.6592652e-36
3.022579e-34
2.2588812e-32
1.5418862e-30
9.6854123e-29
5.6394271e-27
3.0647105e-25
1.5639057e-23
7.5278311e-22
3.4187808e-20
1.4570453e-18
6.218108e-17
3.8762177e-15
3.3892239e-13
8.4468669e-12
4.144882e-11
6.464864e-11
5.2944324e-11
2.0157048e-11
2.0622384e-11
4.0795186e-11
3.1954185e-11
1.5455949e-10
3.8448671e-09
5.1558661e-07
4.6547153e-05
8.5077067e-05
8.4634506e-05
2.6393262e-05
3.1805173e-08
3.0797351e-07
2.4135205e-06
2.8661757e-06
1.529952e-06
1.2512963e-06
1.0407642e-06
8.3931091e-07
7.6390482e-07
2.8025269e-06
4.4095339e-06
1.8143462e-07
2.0236674e-07
2.7077113e-07
9.9944872e-07
1.4328849e-06
1.0957371e-05
5.5812476e-05
5.5713762e-05
5.5607673e-05
2.0977677e-05
4.3038828e-09
1.069305e-08
2.6027457e-10
7.1834018e-12
2.8059186e-13
4.1048321e-14
4.8750138e-15
1.0732927e-16
4.715468e-19
2.8036249e-21
7.0641207e-24
5.4153402e-26
4.3106033e-28
2.3543957e-30
9.1775598e-33
5.5039041e-35
3.7437167e-37
1.6582624e-39
6.158731e-42
1.7108006e-43
1.4679333e-43
1.071851e-43
2.3171755e-44
7.5051396e-45
1.782644e-45
1.1203959e-45
2.4509805e-45
3.1907352e-45
3.8088096e-45
4.7244945e-45
5.8518476e-45
6.0167549e-45
3.5370676e-45
1.349767e-45
3.8501047e-46
1.5731638e-46
2.4032496e-48
1.897819e-47
4.6272976e-46
1.5960745e-45
1.6968807e-45
1.3794173e-45
8.284894e-46
3.3329157e-46
1.0029408e-46
7.2232084e-46
1.0084942e-43
1.197348e-41
1.2405302e-39
1.1443854e-37
9.4752982e-36
7.0968349e-34
4.8419406e-32
3.0297015e-30
1.7507544e-28
9.3989808e-27
4.7144104e-25
2.2220498e-23
9.9040237e-22
4.1928683e-20
1.6848858e-18
6.7526067e-17
3.6402363e-15
2.8044338e-13
7.4459468e-12
4.0539114e-11
6.6850037e-11
6.177255e-11
2.0667386e-11
1.1734968e-11
9.4908673e-11
3.2932739e-10
7.4277228e-10
1.4879022e-08
7.9878184e-06
8.2444231e-05
8.5307435e-05
8.064403e-05
2.3229217e-06
4.0424039e-08
5.1001571e-07
4.137513e-06
6.0049606e-06
6.5377934e-06
1.5294796e-06
1.2625708e-06
1.4808315e-06
6.6756793e-07
3.881566e-06
7.456112e-06
3.6183145e-07
2.2534812e-07
2.5385694e-07
2.8836549e-07
6.3194254e-07
3.2200167e-05
5.5429207e-05
5.5607673e-05
4.5570223e-05
4.5945198e-09
3.1989307e-10
7.0276367e-10
6.7137964e-11
1.7826419e-12
8.0564355e-15
5.0368888e-15
5.0378234e-15
2.0217776e-16
2.5709147e-18
1.7124644e-20
1.2869035e-23
5.0011183e-26
4.1690859e-28
2.7496393e-30
3.3374108e-32
3.3964996e-34
2.7101497e-36
1.2561493e-38
7.080399e-41
1.2937591e-41
1.0531494e-41
4.3958877e-42
1.7592118e-42
7.5927756e-43
2.4848684e-43
1.731031e-43
3.6651501e-43
4.3681995e-43
4.8585512e-43
5.8933976e-43
6.973423e-43
6.9489922e-43
3.8778184e-43
1.458312e-43
4.1652857e-44
1.7520241e-44
3.5894006e-46
1.8684829e-45
4.1278095e-44
1.4665095e-43
1.587937e-43
1.2935852e-43
7.782974e-44
3.1232041e-44
8.810672e-45
9.3667291e-45
1.4614651e-43
1.4282393e-41
1.5014958e-39
1.4504911e-37
1.2535478e-35
9.7760397e-34
7.0040406e-32
4.6739663e-30
2.8917805e-28
1.6578466e-26
8.8195266e-25
4.3908912e-23
2.0583758e-21
9.0646386e-20
3.8615091e-18
2.0271895e-16
1.7694695e-14
8.6718842e-13
1.0436598e-11
3.4789474e-11
4.8352112e-11
4.4912253e-11
1.8202728e-11
1.1734968e-11
4.0763758e-11
3.8434978e-10
2.0919139e-09
4.2277285e-08
5.4284392e-06
7.573373e-05
8.5307435e-05
8.5307435e-05
2.8029137e-05
4.8470173e-08
4.8693491e-08
1.8327865e-07
1.9126234e-06
1.9217598e-05
5.4875043e-05
1.7129697e-05
2.7186321e-05
6.3071237e-07
2.1980273e-06
7.6995647e-06
5.9923663e-06
2.5380018e-07
2.8851414e-07
3.1251435e-07
3.236508e-07
1.7836617e-05
3.7135628e-05
3.0954858e-05
2.5754225e-06
3.1831113e-10
2.1228404e-11
5.3276184e-12
1.2613468e-11
2.9681339e-12
2.0935678e-11
3.2211281e-12
8.1018429e-16
9.9159327e-17
-5.0021661e-18
5.6222551e-20
3.3966777e-23
2.2266107e-25
2.4764257e-27
3.5200087e-29
5.9166945e-31
4.8308718e-33
3.3156553e-35
1.9716005e-37
1.7537828e-39
8.5018127e-40
6.0353162e-40
2.6695804e-40
1.69103e-40
9.8121813e-41
3.5821228e-41
2.3249754e-41
4.7680471e-41
5.3652111e-41
5.5807867e-41
6.599418e-41
7.5726165e-41
7.2235027e-41
3.870188e-41
1.4364174e-41
4.1293119e-42
1.7971542e-42
5.1613353e-44
1.8302709e-43
3.4861628e-42
1.2732605e-41
1.4129468e-41
1.150123e-41
6.912632e-42
2.8215921e-42
7.0803758e-43
1.6495441e-43
6.6723373e-42
1.4589938e-40
2.5070146e-39
2.6664217e-37
2.9075516e-35
3.0462236e-33
2.6861153e-31
2.1308278e-29
1.5337886e-27
9.8304082e-26
5.6570471e-24
2.9936064e-22
1.4907758e-20
7.0235132e-19
3.2134551e-17
1.7741348e-15
1.4707148e-13
4.952049e-12
3.4169141e-11
6.5580687e-11
6.421553e-11
4.4914524e-11
7.6572571e-11
3.9839568e-10
3.8849062e-11
1.1182028e-10
6.8938351e-10
1.4869436e-08
1.005276e-06
3.3464073e-05
8.5307435e-05
8.512806e-05
1.8828875e-05
4.8470173e-08
4.8448317e-08
4.8690986e-08
4.9802318e-08
5.7480769e-06
0.00013952122
0.00011978421
3.9404527e-05
5.3985834e-07
4.8444653e-07
7.7615114e-06
9.4738778e-06
4.6201427e-06
3.1222796e-07
3.2005287e-07
3.1699711e-07
5.8987872e-07
3.6674304e-07
1.8713368e-07
6.4959823e-09
1.9739461e-11
4.2104191e-12
3.2100228e-12
3.2665865e-12
3.009182e-12
1.2291129e-10
6.8375418e-10
3.2869204e-33
5.3788125e-18
-3.2084442e-17
8.8940407e-20
3.0847056e-22
2.3721127e-24
3.6003163e-26
4.461851e-28
5.9413874e-30
7.7822985e-32
5.3648395e-34
2.8092698e-36
6.6074905e-38
4.7650722e-38
3.3420387e-38
2.274446e-38
2.1005162e-38
1.5046542e-38
4.8408318e-39
2.9144098e-39
5.427534e-39
5.8936672e-39
5.8284117e-39
6.6723309e-39
7.4687936e-39
6.8144905e-39
3.5266455e-39
1.2944608e-39
3.802436e-40
1.7337867e-40
7.1196372e-42
1.804264e-41
2.8033294e-40
1.0477375e-39
1.1974771e-39
9.7302216e-40
5.8284061e-40
2.3942299e-40
5.9849797e-41
1.360578e-41
5.0812403e-40
1.3038311e-38
8.6745964e-38
1.4065361e-36
1.7246972e-34
1.7767431e-32
1.578843e-30
1.2721133e-28
9.1237989e-27
5.7029757e-25
3.3100361e-23
2.0036932e-21
1.1694407e-19
4.4832847e-18
1.0166452e-16
1.9546723e-15
5.7910283e-14
2.1592698e-12
4.0987581e-11
2.6761073e-10
6.4220107e-10
8.2428749e-10
1.2858863e-09
1.9461187e-08
3.9143411e-11
3.8848705e-11
4.1468792e-11
9.5085352e-11
1.9969225e-08
3.7484485e-06
4.8889132e-05
6.2674082e-05
3.4103572e-07
4.8469303e-08
4.8693491e-08
4.9802411e-08
5.0603282e-08
5.4630232e-08
0.00014133892
0.00014365376
4.8947312e-05
4.0498956e-07
3.8148265e-07
1.0058405e-06
9.6638843e-06
1.0067363e-05
5.9523808e-06
4.9527485e-07
9.2096987e-08
5.6905099e-08
4.2717467e-08
6.5339418e-10
1.6474242e-10
-4.312454e-14
3.1911432e-12
3.128755e-12
3.128755e-12
3.072783e-12
1.8072499e-11
1.0938965e-09
-2.145561e-17
-5.9247531e-17
-5.7409878e-17
1.0227477e-18
1.8329622e-20
7.7999376e-22
1.0202981e-23
1.1717942e-25
1.0144231e-27
6.1018384e-30
2.5588102e-32
1.2523849e-34
3.1619838e-36
2.4348684e-36
2.316536e-36
2.6324377e-36
3.0111163e-36
1.9314329e-36
5.6834085e-37
3.2243549e-37
5.4709453e-37
5.7660656e-37
5.486181e-37
6.1268435e-37
6.71235e-37
5.8487863e-37
2.9415579e-37
1.0784347e-37
3.5013862e-38
1.8728216e-38
9.4000076e-40
1.7989706e-39
2.1605432e-38
8.1840587e-38
9.6798476e-38
7.8533246e-38
4.6819899e-38
1.9290509e-38
4.8781083e-39
9.8206049e-40
2.5217678e-38
7.1666365e-37
4.8318125e-36
9.3391817e-36
4.8324396e-34
5.004588e-32
5.2202339e-30
5.4000929e-28
4.7686059e-26
3.4370963e-24
2.1803962e-22
1.4792207e-20
1.0278746e-18
4.2140397e-17
7.2801697e-16
6.0909218e-15
3.5001876e-14
2.0775613e-13
4.6307088e-12
5.9550206e-10
4.7066082e-09
7.1545554e-09
2.9572248e-09
3.5560819e-09
9.1604025e-07
4.1468792e-11
6.5590375e-07
1.7459943e-05
3.9290898e-08
5.6931574e-08
1.1257431e-06
4.1312734e-06
6.832238e-07
5.0609316e-08
5.2931534e-08
6.0115837e-08
7.3943909e-08
6.0302939e-08
3.4765036e-05
0.00014365376
7.6994111e-05
7.4912012e-06
3.8119086e-07
3.7580962e-07
1.7561236e-06
1.0166691e-05
1.263215e-05
1.2858533e-05
4.9223406e-06
2.8913366e-06
2.8126372e-07
1.7170665e-10
1.0715333e-11
4.4516344e-12
4.3941071e-12
3.2101865e-12
8.8654979e-11
2.938084e-09
5.372381e-10
5.9582277e-10
-3.8349222e-17
-5.7892876e-17
-3.0317966e-17
1.213035e-17
2.9000528e-19
1.2188964e-20
1.3228319e-22
1.5793848e-24
1.4685948e-26
9.8362761e-29
5.0626986e-31
9.9192766e-34
1.6587546e-34
1.7364577e-34
2.4804417e-34
3.5272199e-34
3.8453393e-34
2.0983872e-34
5.5844284e-35
3.1827737e-35
4.9419339e-35
4.9887278e-35
4.6658325e-35
5.1291438e-35
5.5267577e-35
4.564257e-35
2.2557861e-35
8.4566794e-36
4.4156055e-36
3.6010258e-36
1.1879723e-37
1.8101102e-37
1.6045754e-36
6.0776565e-36
7.4700617e-36
6.0572814e-36
3.5942379e-36
1.4816818e-36
3.800976e-37
6.8904959e-38
1.0559011e-36