/*--------------------------------*- C++ -*----------------------------------*\
  =========                 |
  \\      /  F ield         | OpenFOAM: The Open Source CFD Toolbox
   \\    /   O peration     | Website:  https://openfoam.org
    \\  /    A nd           | Version:  9
     \\/     M anipulation  |
\*---------------------------------------------------------------------------*/
FoamFile
{
    format      ascii;
    class       surfaceScalarField;
    location    "0.7";
    object      alphaPhi0.phase1;
}
// * * * * * * * * * * * * * * * * * * * * * * * * * * * * * * * * * * * * * //

dimensions      [0 3 -1 0 0 0 0];

internalField   nonuniform List<scalar> 
19800
(
-7.5684851e-88
7.5318417e-88
-8.6893524e-87
1.0453132e-87
-7.6977233e-85
6.5120222e-86
-1.8028908e-84
6.3829761e-85
-1.4402705e-84
8.6945742e-85
-4.6969178e-85
3.9064129e-85
-1.4283964e-85
1.0562609e-85
-2.0664105e-85
4.1819335e-86
-2.7426217e-85
4.7842511e-86
-9.8009157e-84
9.5193194e-85
-1.1201426e-81
1.0113009e-82
-9.9363209e-80
9.0257209e-81
-8.535793e-78
7.0125965e-79
-7.3948992e-76
5.5545636e-77
-6.0791699e-74
4.2652325e-75
-4.6515961e-72
3.0630444e-73
-3.3195378e-70
2.0554643e-71
-2.2185036e-68
1.2932023e-69
-1.3937243e-66
7.6531238e-68
-8.2577017e-65
4.2722631e-66
-4.6276504e-63
2.2545051e-64
-2.4590345e-61
1.1269326e-62
-1.2417804e-59
5.3469642e-61
-5.9711931e-58
2.409732e-59
-2.7321644e-56
1.0320133e-57
-1.181046e-54
4.1929582e-56
-4.9133609e-53
1.61783e-54
-2.2798556e-51
6.0481421e-53
-1.2672997e-49
2.2655854e-51
-3.6978933e-48
6.646832e-50
-3.4167858e-47
8.884922e-49
-2.4275225e-46
6.0826151e-48
-3.9789101e-45
5.7781294e-47
-1.292972e-43
1.1186444e-45
-4.6720056e-42
1.6411428e-44
-1.6792056e-40
-8.398362e-43
-5.5701655e-39
-1.126499e-40
-1.6600856e-37
-6.0405485e-39
-4.1082601e-36
-2.2498224e-37
-6.7560333e-35
-5.8614059e-36
-6.9018018e-34
-1.0044644e-34
-6.3137313e-33
-1.298259e-33
-7.6420195e-32
-1.9541976e-32
-1.3078265e-30
-4.4049792e-31
-2.5066803e-29
-1.1936896e-29
-4.3880752e-28
-3.2485901e-28
-5.8963225e-27
-8.4196595e-27
-3.6068283e-26
-2.0693181e-25
1.3296603e-24
-5.1871038e-24
1.1617175e-22
-1.9461255e-22
7.0726051e-21
-1.0170026e-20
2.8472053e-19
-3.6853262e-19
4.5593323e-18
-6.5130039e-18
3.3630717e-17
-5.5960099e-17
1.2025172e-16
-1.8025465e-16
2.4723721e-16
-3.7931662e-16
2.2187911e-16
-4.0909701e-16
5.8395104e-17
-2.0061497e-17
1.0012733e-17
-5.8496666e-18
8.8646008e-19
-5.7571957e-19
4.9697486e-20
-1.2055953e-20
3.0953538e-21
5.1714782e-22
2.1329656e-22
8.6161104e-23
1.3926746e-23
8.9085576e-24
8.3849357e-25
7.4545306e-25
4.6817294e-26
5.3882898e-26
2.4263926e-27
3.4626047e-27
1.163185e-28
2.0022997e-28
5.1439042e-30
1.0471849e-29
2.0948188e-31
4.966034e-31
7.843369e-33
2.1386079e-32
2.6951258e-34
8.3704313e-34
8.4824919e-36
2.9788654e-35
2.4402075e-37
9.640767e-37
6.4023332e-39
2.8370284e-38
1.5285521e-40
7.5869486e-40
3.313193e-42
1.8419465e-41
6.5041344e-44
4.0543818e-43
1.1534661e-45
8.076437e-45
1.8429845e-47
1.4538971e-46
2.6455831e-49
2.3586718e-48
3.4017286e-51
3.4408162e-50
3.9051671e-53
4.5012371e-52
3.9884693e-55
5.2643772e-54
3.6101868e-57
5.486467e-56
2.8836319e-59
5.0784347e-58
2.0228544e-61
4.1580223e-60
1.2394702e-63
2.9977167e-62
6.5910562e-66
1.8933493e-64
3.0177534e-68
1.0417823e-66
1.1781098e-70
4.9626652e-69
3.8745478e-73
2.0301932e-71
1.0565965e-75
7.0545431e-74
2.3389887e-78
2.0573754e-76
4.0793739e-81
4.9514419e-79
6.249611e-84
9.5993776e-82
6.8161987e-85
2.0012842e-84
4.5391688e-85
5.2439903e-85
2.4023029e-85
4.8866012e-85
4.6144083e-85
-7.8122564e-88
1.3628309e-87
-1.368285e-85
4.7519906e-86
-7.0612365e-84
2.337397e-84
-2.0279219e-83
1.8057003e-83
-2.3439781e-83
2.7528565e-83
-2.0617011e-83
2.3690587e-83
-1.0542243e-83
1.5676555e-83
-3.1083302e-84
6.2161883e-84
-5.1811783e-84
2.2874545e-84
-4.5102935e-82
1.316887e-82
-5.4746211e-80
1.4679725e-80
-5.9822154e-78
1.4858664e-78
-5.9410554e-76
1.3728167e-76
-5.4065196e-74
1.1656241e-74
-4.5362498e-72
9.1508986e-73
-3.5286067e-70
6.6758026e-71
-2.5573336e-68
4.5459367e-69
-1.7343154e-66
2.9000128e-67
-1.104806e-64
1.7393802e-65
-6.6328742e-63
9.8350536e-64
-3.7637444e-61
5.2543999e-62
-2.0235913e-59
2.6581233e-60
-1.033213e-57
1.2752494e-58
-5.0140849e-56
5.8050151e-57
-2.3014987e-54
2.5061662e-55
-1.0013638e-52
1.0251573e-53
-4.4914874e-51
4.015691e-52
-2.3606735e-49
1.556798e-50
-9.0440261e-48
5.4352372e-49
-1.3812496e-46
1.1090121e-47
-1.624361e-45
1.2924908e-46
-3.5043601e-44
1.903998e-45
-1.1833761e-42
4.6687694e-44
-4.2688895e-41
1.1126181e-42
-1.5450836e-39
1.718666e-41
-5.5352468e-38
-3.4072235e-40
-1.8356928e-36
-5.0065041e-38
-5.5231279e-35
-2.7431569e-36
-1.4186838e-33
-1.0352044e-34
-2.3929418e-32
-2.6919874e-33
-2.1771898e-31
-4.329841e-32
-1.4942144e-30
-4.6568361e-31
-1.3850949e-29
-5.2863709e-30
-2.1476799e-28
-1.0085002e-28
-4.0745367e-27
-2.624009e-27
-7.2643683e-26
-7.0291177e-26
-1.0407046e-24
-1.7944028e-24
-8.1836053e-24
-4.3016109e-23
1.0651306e-22
-1.0070023e-21
1.2188875e-20
-3.2502743e-20
7.2106545e-19
-1.3015913e-18
2.6167664e-17
-2.7242638e-17
3.6984659e-16
-3.7620332e-16
2.2717193e-15
-2.0564581e-15
5.8685217e-15
-4.0481823e-15
1.2483488e-14
-7.6434904e-15
1.3413631e-14
-9.4030882e-17
6.6323784e-15
0
1.3858242e-15
0
1.351932e-16
-3.4601396e-17
7.9090156e-18
-1.4309609e-18
4.7347626e-19
2.782695e-19
3.0992872e-20
3.9982941e-20
1.9375558e-21
3.8352071e-21
1.1111057e-22
3.0019537e-22
5.8589958e-24
2.0259323e-23
2.8498488e-25
1.2106093e-24
1.2775008e-26
6.4899349e-26
5.2725455e-28
3.142868e-27
2.0025283e-29
1.3807225e-28
6.9942969e-31
5.5179174e-30
2.2441377e-32
2.0093183e-31
6.6046929e-34
6.6724128e-33
1.7797697e-35
2.0209912e-34
4.3821597e-37
5.5814583e-36
9.836996e-39
1.4043423e-37
2.0084607e-40
3.2152013e-39
3.7205913e-42
6.6876105e-41
6.2364296e-44
1.2613986e-42
9.4317139e-46
2.1532767e-44
1.2831236e-47
3.3177043e-46
1.5651038e-49
4.6019343e-48
1.7056569e-51
5.729399e-50
1.6543867e-53
6.3817568e-52
1.4220949e-55
6.3366459e-54
1.0782029e-57
5.5875615e-56
7.1726152e-60
4.3555796e-58
4.1609538e-62
2.9871304e-60
2.0898054e-64
1.7920584e-62
9.0091664e-67
9.3423388e-65
3.2979644e-69
4.2023325e-67
1.011424e-71
1.6154953e-69
2.5503418e-74
5.2469944e-72
5.1518934e-77
1.416519e-74
8.0348387e-80
3.1090631e-77
1.0142505e-82
5.3813464e-80
3.96294e-84
8.9496612e-83
8.0296543e-85
8.5333575e-84
2.2600624e-85
8.2148717e-85
7.3554655e-85
-9.9153593e-85
3.1444553e-84
-2.3253055e-82
1.019152e-82
-6.8451004e-81
3.8903511e-81
-1.4672247e-80
2.110513e-80
-1.6481331e-80
2.7490858e-80
-1.3597987e-80
2.1889666e-80
-6.7187672e-81
1.3506282e-80
-1.9760711e-81
5.257114e-81
-3.3062431e-81
1.9720885e-81
-2.9454087e-79
1.1400567e-79
-3.6243684e-77
1.2888161e-77
-4.0087343e-75
1.3170706e-75
-4.0244285e-73
1.2277994e-73
-3.6964735e-71
1.051158e-71
-3.1275549e-69
8.3148261e-70
-2.4519403e-67
6.1101322e-68
-1.7901055e-65
4.1880789e-66
-1.222531e-63
2.689399e-64
-7.8400911e-62
1.6231941e-62
-4.7373146e-60
9.2344032e-61
-2.7049911e-58
4.9641746e-59
-1.4632852e-56
2.526932e-57
-7.5172708e-55
1.2202003e-55
-3.6708134e-53
5.5914893e-54
-1.6953135e-51
2.4315029e-52
-7.4124723e-50
1.0022143e-50
-3.3578455e-48
3.9605721e-49
-1.8840765e-46
1.5613186e-47
-8.070315e-45
5.6243394e-46
-1.1593637e-43
1.10304e-44
-8.3643627e-43
9.8428586e-44
-9.5488282e-42
7.9356259e-43
-2.5572182e-40
1.4008217e-41
-8.8685799e-39
3.23876e-40
-3.1629132e-37
5.3853583e-39
-1.131472e-35
-5.6034714e-38
-3.7621961e-34
-1.1997125e-35
-1.1422122e-32
-6.8596661e-34
-3.0145078e-31
-2.6351736e-32
-5.1676967e-30
-6.8672671e-31
-4.3670058e-29
-1.0503981e-29
-2.4112009e-28
-9.712361e-29
-1.6658858e-27
-8.3892377e-28
-2.1684944e-26
-1.2672161e-26
-3.994479e-25
-3.1055598e-25
-7.276143e-24
-8.1819423e-24
-1.1092412e-22
-2.0564343e-22
-1.0713485e-21
-4.8408265e-21
5.9031545e-22
-1.1387692e-19
7.1876769e-19
-4.0575243e-18
4.2720588e-17
-8.0588046e-17
1.529475e-15
-1.7123637e-15
2.1404011e-14
-2.2536322e-14
1.3159543e-13
-1.1989456e-13
3.5069263e-13
-2.4497118e-13
8.3658799e-13
-5.5700505e-13
9.4404248e-13
-1.609625e-14
4.8115193e-13
0
9.9388886e-14
0
9.77659e-15
0
6.5586105e-16
-1.7088782e-17
4.144278e-17
4.0108594e-17
2.706656e-18
4.9123648e-18
1.6849425e-19
4.550854e-19
9.6217572e-21
3.4938902e-20
5.0254912e-22
2.3160284e-21
2.4078103e-23
1.356264e-22
1.0585102e-24
7.1056835e-24
4.2675288e-26
3.3543142e-25
1.5773213e-27
1.4329852e-26
5.3427246e-29
5.556136e-28
1.6574259e-30
1.9589077e-29
4.7045989e-32
6.287058e-31
1.2202932e-33
1.8377253e-32
2.8877187e-35
4.8918558e-34
6.2226421e-37
1.1850964e-35
1.2183884e-38
2.6102246e-37
2.1625257e-40
5.2188631e-39
3.4700804e-42
9.4558996e-41
5.0199486e-44
1.5491759e-42
6.5263911e-46
2.289444e-44
7.599811e-48
3.042938e-46
7.8974806e-50
3.6266059e-48
7.2940931e-52
3.8624621e-50
5.9604427e-54
3.662239e-52
4.2879017e-56
3.0782486e-54
2.7001929e-58
2.2831137e-56
1.4789947e-60
1.4860423e-58
6.9935856e-63
8.4383812e-61
2.8269854e-65
4.152972e-63
9.6474512e-68
1.7559217e-65
2.7344903e-70
6.3081712e-68
6.3035738e-73
1.8980025e-70
1.1493308e-75
4.699209e-73
1.6202892e-78
9.3497616e-76
1.3184415e-80
1.5273804e-78
4.6946611e-81
3.2103112e-80
1.737977e-81
1.5356708e-80
2.8054638e-82
3.7094843e-81
2.5055861e-81
-7.7822523e-82
2.0390398e-81
-2.1440327e-79
1.1112173e-79
-3.8993156e-78
3.4033511e-78
-7.0638144e-78
1.3806218e-77
-7.8832607e-78
1.6487013e-77
-6.3469178e-78
1.291959e-77
-3.0646781e-78
7.7719041e-78
-9.3458548e-79
2.9894992e-78
-1.5817116e-78
1.1586369e-78
-1.4549161e-76
6.9833685e-77
-1.8109575e-74
7.9796152e-75
-2.0240351e-72
8.2369145e-73
-2.0508909e-70
7.7460969e-71
-1.8994504e-68
6.683513e-69
-1.6191292e-66
5.3241139e-67
-1.2778901e-64
3.9366848e-65
-9.3865738e-63
2.7140251e-63
-6.4455652e-61
1.7517064e-61
-4.1541931e-59
1.0621616e-59
-2.5218092e-57
6.0702913e-58
-1.4461739e-55
3.2776037e-56
-7.8546572e-54
1.675574e-54
-4.049973e-52
8.1215634e-53
-1.9845194e-50
3.7374844e-51
-9.1963283e-49
1.6317601e-49
-4.034147e-47
6.7554542e-48
-1.825639e-45
2.6809468e-46
-1.0251138e-43
1.0609761e-44
-4.6658927e-42
3.8737658e-43
-7.333529e-41
7.7824768e-42
-4.7113591e-40
6.6512218e-41
-3.1563711e-39
3.842576e-40
-4.9034908e-38
3.8162865e-39
-1.4203962e-36
7.163637e-38
-4.8239233e-35
1.2487333e-36
-1.7134062e-33
-7.5877056e-37
-5.7105817e-32
-1.8375625e-33
-1.7503008e-30
-1.1407124e-31
-4.7411156e-29
-4.5201127e-30
-8.2405039e-28
-1.1880462e-28
-6.5616804e-27
-1.7442007e-27
-3.0031426e-26
-1.4135976e-26
-1.5334387e-25
-9.4003784e-26
-1.5740395e-24
-1.0510333e-24
-2.7645084e-23
-2.3806954e-23
-5.1517808e-22
-6.2059078e-22
-8.3423062e-21
-1.5429286e-20
-1.0249265e-19
-3.737423e-19
-8.4534677e-19
-9.5411656e-18
2.0211445e-17
-1.4523953e-16
1.8560994e-15
-2.3118828e-15
7.518914e-14
-8.6473417e-14
8.8844271e-13
-9.660937e-13
5.2966408e-12
-4.9362476e-12
1.4620626e-11
-1.0761417e-11
4.09965e-11
-3.0492614e-11
4.8578115e-11
-1.0621717e-11
2.5720556e-11
0
5.116823e-12
0
3.8701866e-13
0
2.781567e-14
1.9479624e-14
2.2474586e-15
5.5805683e-15
1.6514049e-16
3.956523e-16
1.0436275e-17
3.565476e-17
5.939831e-19
2.7264981e-18
3.0742926e-20
1.7886853e-19
1.4505153e-21
1.0308719e-20
6.2435201e-23
5.2885541e-22
2.4530557e-24
2.4337914e-23
8.8014609e-26
1.0099154e-24
2.8843184e-27
3.7920096e-26
8.6315364e-29
1.2913828e-27
2.3574452e-30
3.9946183e-29
5.8706672e-32
1.1232088e-30
1.3312156e-33
2.871252e-32
2.7440595e-35
6.6698677e-34
5.1315568e-37
1.4066722e-35
8.6857256e-39
2.6894507e-37
1.3270237e-40
4.6536213e-39
1.8245833e-42
7.2704717e-41
2.2505985e-44
1.0227873e-42
2.4815525e-46
1.291962e-44
2.4361462e-48
1.4605223e-46
2.120113e-50
1.4719825e-48
1.6274337e-52
1.3174952e-50
1.0958858e-54
1.0420427e-52
6.4342894e-57
7.2462255e-55
3.2707955e-59
4.4059644e-57
1.4260565e-61
2.3263825e-59
5.2740187e-64
1.0579037e-61
1.6348979e-66
4.1040729e-64
4.1986728e-69
1.3447692e-66
8.8108621e-72
3.693829e-69
1.4665325e-74
8.3701453e-72
2.9386847e-77
1.5395999e-74
8.2120302e-78
5.5657011e-77
4.4668228e-78
2.9622037e-77
1.2206246e-78
1.5015432e-77
1.5644489e-79
4.0489391e-78
2.1222415e-78
-3.8124539e-79
9.5664324e-79
-1.1062086e-76
6.6099333e-77
-1.602568e-75
1.8421194e-75
-2.6131596e-75
6.465964e-75
-2.9086101e-75
7.3100856e-75
-2.3069266e-75
5.6885975e-75
-1.0943723e-75
3.3664599e-75
-3.5735671e-76
1.2903927e-75
-6.1848541e-76
5.3013576e-76
-5.9958419e-74
3.4370779e-74
-7.5590095e-72
3.9757766e-72
-8.5429405e-70
4.1485903e-70
-8.7398607e-68
3.9373028e-68
-8.1621655e-66
3.4242466e-66
-7.0079432e-64
2.7464965e-64
-5.5654721e-62
2.0425714e-62
-4.1100428e-60
1.4152875e-60
-2.8354596e-58
9.1746374e-59
-1.834685e-56
5.583506e-57
-1.117383e-54
3.2009096e-55
-6.4250029e-53
1.7329492e-53
-3.4972727e-51
8.8791614e-52
-1.806429e-49
4.3135764e-50
-8.8615464e-48
1.9884019e-48
-4.1089952e-46
8.6958576e-47
-1.8045434e-44
3.6054966e-45
-8.1629624e-43
1.4328125e-43
-4.489289e-41
5.6634164e-42
-2.0054946e-39
2.0550229e-40
-3.3871999e-38
4.2081705e-39
-2.4777667e-37
3.8100319e-38
-1.5119938e-36
2.18946e-37
-1.2702215e-35
1.4537097e-36
-2.0988095e-34
1.542734e-35
-6.0207454e-33
2.3108946e-34
-2.0613422e-31
1.5230828e-33
-6.849315e-30
-1.9134323e-31
-2.1273914e-28
-1.3810346e-29
-5.9224654e-27
-5.7441188e-28
-1.0348047e-25
-1.5316637e-26
-7.7790987e-25
-2.1640243e-25
-3.0433541e-24
-1.5604722e-24
-1.1628892e-23
-8.2064091e-24
-8.7437857e-23
-6.4653256e-23
-1.4044942e-21
-1.2645569e-21
-2.6890043e-20
-3.3131312e-20
-4.8741584e-19
-8.7962918e-19
-1.0084919e-17
-2.3032675e-17
-5.1258085e-17
-3.4271389e-16
-7.0588429e-18
-1.815491e-16
7.8939616e-14
-9.7928168e-14
2.1619103e-12
-2.6714957e-12
2.5466001e-11
-2.959118e-11
1.619087e-10
-1.5673967e-10
4.7812607e-10
-3.7219397e-10
1.5598257e-09
-1.2548967e-09
1.9806819e-09
-6.1815222e-10
1.1269748e-09
0
2.2710602e-10
0
6.6083213e-12
0
5.587263e-13
2.4467364e-12
1.945586e-14
5.3786442e-13
3.4165159e-15
2.4573046e-14
4.78023e-16
1.2589825e-15
2.0990095e-17
1.0775162e-16
9.7790587e-19
6.9835349e-18
4.5258767e-20
3.9393254e-19
1.9243683e-21
1.9875454e-20
7.3948985e-23
8.9599456e-22
2.5787778e-24
3.6225453e-23
8.1803734e-26
1.319444e-24
2.3615736e-27
4.3433396e-26
6.2033454e-29
1.29477e-27
1.481728e-30
3.4994465e-29
3.2147421e-32
8.5786048e-31
6.3252787e-34
1.9069011e-32
1.126503e-35
3.8400804e-34
1.8115897e-37
6.9963515e-36
2.623421e-39
1.1510288e-37
3.4109882e-41
1.7058206e-39
3.9690869e-43
2.2714332e-41
4.1172874e-45
2.7092658e-43
3.7910809e-47
2.8840903e-45
3.0832449e-49
2.7291581e-47
2.2030852e-51
2.2850848e-49
1.3754959e-53
1.6844602e-51
7.463667e-56
1.088294e-53
3.4908243e-58
6.1244139e-56
1.3985714e-60
2.9832347e-58
4.7662279e-63
1.2523338e-60
1.3608928e-65
4.4882076e-63
3.2045574e-68
1.357858e-65
6.0906617e-71
3.4192179e-68
9.6776925e-74
7.036599e-71
5.9270697e-75
1.5010891e-73
4.0861861e-75
2.3932912e-74
2.6042258e-75
2.0708338e-74
5.1436198e-76
1.0316159e-74
4.1341646e-77
2.8805423e-75
1.3026511e-75
-1.338436e-76
3.4984436e-76
-3.9867774e-74
2.7122513e-74
-5.135057e-73
7.2238966e-73
-7.8302241e-73
2.3450577e-72
-8.7156082e-73
2.5606685e-72
-6.8542032e-73
1.986572e-72
-3.1914629e-73
1.1642994e-72
-1.1495637e-73
4.4612636e-73
-2.0469601e-73
1.9889482e-73
-2.1112354e-71
1.4079659e-71
-2.7009489e-69
1.6520727e-69
-3.0910047e-67
1.7451063e-67
-3.1960559e-65
1.6733454e-65
-3.0117081e-63
1.4678913e-63
-2.6053865e-61
1.1857897e-61
-2.0821528e-59
8.8705449e-60
-1.54564e-57
6.1762313e-58
-1.0708023e-55
4.0191381e-56
-6.9520787e-54
2.4537409e-54
-4.2450065e-52
1.4099489e-52
-2.4456469e-50
7.6482039e-51
-1.3329948e-48
3.9245102e-49
-6.890385e-47
1.9086926e-47
-3.3804181e-45
8.8069133e-46
-1.5662613e-43
3.8533525e-44
-6.879295e-42
1.5982433e-42
-3.1206761e-40
6.3585395e-41
-1.6871025e-38
2.5136673e-39
-7.0910328e-37
9.0000926e-38
-1.2022785e-35
1.8398806e-36
-1.0766629e-34
1.7989118e-35
-8.5016966e-34
1.2161661e-34
-5.4344766e-33
7.8012988e-34
-3.8775805e-32
4.5217988e-33
-6.6606056e-31
3.8490541e-32
-2.0682938e-29
4.0924946e-31
-6.8315641e-28
-1.2524028e-29
-2.1636951e-26
-1.270854e-27
-6.2095775e-25
-5.7124877e-26
-1.0701531e-23
-1.5466109e-24
-7.4686855e-23
-2.0859429e-23
-2.5763434e-22
-1.3795572e-22
-7.7284259e-22
-6.3972427e-22
-3.9710459e-21
-3.7601363e-21
-5.2774919e-20
-4.7676926e-20
-1.0845153e-18
-1.2299718e-18
-2.5895242e-17
-3.9300439e-17
-2.388928e-16
-7.7872637e-16
-1.8932882e-16
-6.7419652e-16
-4.5418781e-15
-2.783906e-14
-4.4177916e-15
-7.2583154e-13
5.7593322e-11
-7.7629193e-11
8.4789875e-10
-9.8500054e-10
5.6041712e-09
-5.8099634e-09
2.8579434e-08
-5.2504534e-08
1.1875691e-07
-2.1785121e-07
1.308245e-07
-2.3231882e-07
5.9882285e-08
-1.591784e-07
2.9125195e-09
-1.5276599e-08
2.1469863e-10
0
2.5536505e-11
1.7916233e-10
1.8420622e-12
2.3315284e-11
8.9377918e-14
1.7955468e-12
4.0336401e-15
7.9036849e-14
4.2483603e-16
2.5278863e-15
2.6898621e-17
1.7735699e-16
1.0220778e-18
1.0525714e-17
3.946652e-20
4.9963225e-19
1.471966e-21
2.1616069e-20
4.9628504e-23
8.4275394e-22
1.5084541e-24
2.9468854e-23
4.1559551e-26
9.2741397e-25
1.0388032e-27
2.6346567e-26
2.3544762e-29
6.7671381e-28
4.834503e-31
1.5724847e-29
8.9815258e-33
3.3056699e-31
1.5069544e-34
6.2824461e-33
2.2775582e-36
1.0779081e-34
3.0916048e-38
1.6661433e-36
3.7575334e-40
2.3142737e-38
4.0759966e-42
2.8808536e-40
3.9307821e-44
3.2043628e-42
3.3542321e-46
3.1723422e-44
2.521441e-48
2.78357e-46
1.6635914e-50
2.1573408e-48
9.5780218e-53
1.4704947e-50
4.7788234e-55
8.7667478e-53
2.0515319e-57
4.5444879e-55
7.5160273e-60
2.0348719e-57
2.324777e-62
7.810959e-60
5.9881407e-65
2.5447544e-62
1.2612934e-67
6.9510763e-65
2.1229795e-70
1.5629804e-67
2.9247092e-72
3.333716e-70
2.0507582e-72
1.3239234e-71
1.510425e-72
1.2847097e-71
8.4473002e-73
1.1179952e-71
1.1757831e-73
5.3554363e-72
-7.452793e-75
1.5109467e-72
6.1704098e-73
-3.6852588e-74
1.0510436e-73
-1.1176414e-71
8.5618996e-72
-1.3498339e-70
2.2315734e-70
-1.9717851e-70
6.9238495e-70
-2.1959266e-70
7.3942368e-70
-1.719901e-70
5.7326208e-70
-7.841317e-71
3.3431131e-70
-3.1828718e-71
1.284688e-70
-5.8178739e-71
6.3037831e-71
-6.3558531e-69
4.8363099e-69
-8.2716135e-67
5.771091e-67
-9.6037082e-65
6.1831695e-65
-1.0049864e-62
5.9987424e-63
-9.5644457e-61
5.3126757e-61
-8.3419593e-59
4.3251848e-59
-6.7112974e-57
3.2558684e-57
-5.0089185e-55
2.278385e-55
-3.4849351e-53
1.4883925e-53
-2.2700462e-51
9.1143147e-52
-1.3895578e-49
5.2493043e-50
-8.0191014e-48
2.8518635e-48
-4.3755636e-46
1.4652052e-46
-2.26307e-44
7.1331771e-45
-1.1102885e-42
3.2942233e-43
-5.141291e-41
1.4426605e-41
-2.2591253e-39
5.9910928e-40
-1.0299029e-37
2.3888798e-38
-5.5236119e-36
9.4687081e-37
-2.184789e-34
3.3533047e-35
-3.5781778e-33
6.7757503e-34
-3.7871267e-32
7.0217534e-33
-4.1678147e-31
5.7156375e-32
-2.660056e-30
4.083461e-31
-1.0275251e-29
1.7479096e-30
-7.5467081e-29
7.0381989e-30
-1.7926915e-27
6.8099737e-29
-5.8453331e-26
-2.173125e-28
-1.911199e-24
-8.9169791e-26
-5.7018972e-23
-4.6002066e-24
-9.3946813e-22
-1.2772302e-22
-5.8547399e-21
-1.6616448e-21
-1.837147e-20
-1.0661176e-20
-4.7266762e-20
-4.9089937e-20
-1.6103217e-19
-2.1516723e-19
-1.5275155e-18
-1.3775601e-18
-3.3178149e-17
-3.1689471e-17
-5.5326784e-16
-6.6599707e-16
-7.4323198e-16
-5.9440789e-15
-1.4192966e-14
-2.2304405e-14
-3.5817093e-13
-9.1883504e-13
3.4222598e-12
-2.5802104e-11
4.8315682e-09
-5.2407787e-09
8.0104685e-08
-1.6856069e-07
3.310052e-07
-3.639584e-07
4.6116407e-07
-3.5233077e-07
5.777623e-07
-3.2495026e-07
6.4447207e-07
-2.9675122e-07
6.5876898e-07
-1.6730221e-07
1.6996422e-07
-1.7223361e-08
1.3497609e-08
1.0768066e-08
1.1193941e-09
1.2237562e-08
7.7132137e-11
1.0476742e-09
4.1319841e-12
7.3201166e-11
1.92608e-13
3.9045174e-12
4.0067891e-15
1.8084964e-13
2.5448388e-16
3.8352302e-15
1.468797e-17
1.6120859e-16
5.2928529e-19
8.0070709e-18
1.7981238e-20
3.2994178e-19
5.708383e-22
1.2123231e-20
1.6454679e-23
4.0092764e-22
4.2808345e-25
1.1916819e-23
1.0076067e-26
3.1900703e-25
2.1470394e-28
7.7078427e-27
4.1377373e-30
1.6822391e-28
7.2037949e-32
3.3169012e-30
1.1306188e-33
5.9033702e-32
1.5959772e-35
9.4694182e-34
2.0216846e-37
1.366734e-35
2.28998e-39
1.7704981e-37
2.3106216e-41
2.0521002e-39
2.0685694e-43
2.1208421e-41
1.6356547e-45
1.9469169e-43
1.1368082e-47
1.5806986e-45
6.9087102e-50
1.1298062e-47
3.6496544e-52
7.0735468e-50
1.6640884e-54
3.8577858e-52
6.4960916e-57
1.8207307e-54
2.1495351e-59
7.379576e-57
5.9456047e-62
2.5444781e-59
1.3515561e-64
7.3555115e-62
2.4653122e-67
1.7554688e-64
1.0577668e-69
3.9180542e-67
5.7120631e-70
4.8886117e-69
3.8952309e-70
4.1080709e-69
3.5488255e-70
5.601936e-69
1.3928956e-70
4.8390058e-69
-3.9976975e-72
2.1970822e-69
-1.1438958e-71
6.204286e-70
2.3742229e-70
-8.364934e-72
2.696616e-71
-2.5693209e-69
2.1985708e-69
-3.0031677e-68
5.6864609e-68
-4.2719709e-68
1.7218433e-67
-4.7676732e-68
1.8131045e-67
-3.7323792e-68
1.4079402e-67
-1.6702361e-68
8.1991729e-68
-7.5785776e-69
3.1714909e-68
-1.409597e-68
1.6941786e-68
-1.6120313e-66
1.3784465e-66
-2.1420291e-64
1.6794115e-64
-2.5297229e-62
1.8300059e-62
-2.6841305e-60
1.7996792e-60
-2.5834119e-58
1.6113631e-58
-2.2736942e-56
1.3231763e-56
-1.8424581e-54
1.0028344e-54
-1.382795e-52
7.0534987e-53
-9.6615626e-51
4.625501e-51
-6.3127367e-49
2.8401522e-49
-3.8723774e-47
1.6387653e-47
-2.2377657e-45
8.9141136e-46
-1.2218669e-43
4.583368e-44
-6.320791e-42
2.2326698e-42
-3.1000569e-40
1.0316287e-40
-1.4342998e-38
4.521538e-39
-6.3036719e-37
1.8801736e-37
-2.8864762e-35
7.5181125e-36
-1.5395225e-33
2.9913999e-34
-5.8016604e-32
1.0527373e-32
-9.2153333e-31
2.1115523e-31
-1.1155499e-29
2.3031108e-30
-1.615702e-28
2.2133272e-29
-1.1073384e-27
1.7790785e-28
-3.0949592e-27
6.7216952e-28
-1.0576495e-26
1.6183319e-27
-1.4596804e-25
9.3443179e-27
-4.447194e-24
7.2578102e-26
-1.509918e-22
-4.3872222e-24
-4.8123221e-21
-3.1578156e-22
-7.533438e-20
-9.8520448e-21
-3.9971901e-19
-1.2465808e-19
-1.0466915e-18
-6.3882604e-19
-2.081089e-18
-2.0625733e-18
-5.0671747e-18
-5.1646994e-18
-3.8345849e-17
-3.521598e-17
-5.240015e-16
-5.089599e-16
-7.5443913e-16
-5.3115538e-15
-4.2504283e-15
-8.2708256e-15
-3.6837521e-13
-3.2176909e-13
-6.1038805e-13
-1.9363844e-12
9.2772702e-09
-9.7790505e-09
2.0890482e-07
-4.0168111e-07
3.67201e-07
-4.3049268e-07
6.1730623e-07
-5.5753238e-07
7.139646e-07
-4.4757232e-07
8.1349917e-07
-4.3389793e-07
8.3607308e-07
-2.5548566e-07
8.1636346e-07
-1.2571589e-07
7.947248e-07
2.6292011e-08
6.5475835e-07
1.7261124e-07
3.5010444e-08
1.4151795e-07
2.085517e-09
3.338066e-08
1.0191535e-10
2.0131398e-09
5.4109933e-12
9.7513834e-11
2.0863526e-13
5.1875279e-12
6.2277348e-15
1.9286651e-13
3.1899122e-16
5.8576152e-15
1.3452908e-17
2.4807418e-16
4.0276693e-19
9.5070597e-18
1.1250428e-20
3.1281931e-19
2.8950403e-22
9.2273592e-21
6.751106e-24
2.4528232e-22
1.4231183e-25
5.8775466e-24
2.7115008e-27
1.2707486e-25
4.6655224e-29
2.4801483e-27
7.2369518e-31
4.3681725e-29
1.0095721e-32
6.9350382e-31
1.2630001e-34
9.9051469e-33
1.412862e-36
1.2698934e-34
1.4081535e-38
1.4575208e-36
1.2454617e-40
1.4928901e-38
9.7359557e-43
1.3597878e-40
6.6983358e-45
1.0973319e-42
4.0380527e-47
7.8151432e-45
2.1227136e-49
4.8927768e-47
9.6764729e-52
2.6811251e-49
3.8000173e-54
1.2794863e-51
1.2742321e-56
5.2845545e-54
3.6000169e-59
1.8735499e-56
8.4187844e-62
5.6270943e-59
1.5909034e-64
1.4080722e-61
3.3543368e-67
2.8965389e-64
8.4189655e-68
1.2648112e-66
5.4132042e-68
8.0718199e-67
7.9464004e-68
1.6041123e-66
2.4136485e-68
2.0457523e-66
-2.0293826e-68
1.7229565e-66
-1.6061832e-68
7.4013296e-67
-6.6350852e-69
2.0608008e-67
7.569558e-68
-1.6203673e-69
6.1007188e-69
-5.0143305e-67
4.7634747e-67
-5.7962575e-66
1.2343222e-65
-8.1140551e-66
3.696079e-65
-9.0852734e-66
3.8592564e-65
-7.1357271e-66
3.0079555e-65
-3.2054324e-66
1.7554876e-65
-1.4682686e-66
6.8384642e-66
-2.7896719e-66
3.6600574e-66
-3.3365536e-64
3.1682641e-64
-4.5284957e-62
3.9283574e-62
-5.4552739e-60
4.3657602e-60
-5.8799716e-58
4.360196e-58
-5.7297334e-56
3.9509718e-56
-5.0917607e-54
3.2744825e-54
-4.1565493e-52
2.4989095e-52
-3.1365599e-50
1.7662977e-50
-2.1998058e-48
1.1621128e-48
-1.4407612e-46
7.1493128e-47
-8.8490764e-45
4.1287871e-45
-5.1155851e-43
2.2463202e-43
-2.7922418e-41
1.1546118e-41
-1.4431282e-39
5.6207445e-40
-7.0686515e-38
2.5961085e-38
-3.2652879e-36
1.1377482e-36
-1.4341851e-34
4.7342857e-35
-6.5686011e-33
1.8967109e-33
-3.4559543e-31
7.5606911e-32
-1.2583241e-29
2.6531409e-30
-2.0179823e-28
5.3993931e-29
-2.8151455e-27
6.34002e-28
-4.913897e-26
7.0587661e-27
-3.4892429e-25
6.1079646e-26
-8.2732296e-25
2.153842e-25
-1.7528822e-24
3.9841398e-25
-1.1642247e-23
1.2139658e-24
-3.0482808e-22
1.3366676e-23
-1.1000911e-20
-8.7331515e-23
-4.1016385e-19
-2.0705331e-20
-6.2050349e-18
-6.982639e-19
-2.3419032e-17
-5.6824211e-18
-3.4292336e-17
-1.5136303e-17
-4.3693348e-17
-2.4659667e-17
-9.3867555e-17
-5.1572705e-17
-6.5060239e-16
-4.3204363e-16
-2.6123204e-15
-4.0712876e-15
-2.791478e-14
-1.7981697e-14
-5.672726e-13
-3.1158011e-13
0
-1.4816165e-11
3.9217327e-09
-4.2537455e-09
7.0518403e-08
-1.63225e-07
3.0575414e-07
-5.1273033e-07
3.816274e-07
-3.6426706e-07
2.9983635e-07
-1.6236006e-07
2.1526471e-07
-5.1541205e-08
1.3589812e-07
-2.3004638e-08
1.4905591e-07
-1.3493326e-08
4.923517e-07
-7.7056963e-09
7.685635e-07
4.001141e-08
7.3347926e-07
2.1425126e-07
5.0263618e-07
3.8750783e-07
3.1098532e-08
2.7715075e-07
1.0993982e-09
3.0698887e-08
5.6110509e-11
1.0434367e-09
2.5255217e-12
5.3831383e-11
9.3052317e-14
2.4024078e-12
3.2081186e-15
8.6664563e-14
1.2903123e-16
3.1727173e-15
4.197367e-18
1.1517533e-16
1.0928119e-19
3.6093699e-18
2.6119181e-21
9.9601549e-20
5.6944504e-23
2.4746617e-21
1.1199793e-24
5.5391054e-23
1.9862063e-26
1.1172854e-24
3.1775849e-28
2.0331002e-26
4.5838084e-30
3.33983e-28
5.952132e-32
4.9527545e-30
6.9361454e-34
6.6193592e-32
7.234194e-36
7.9575185e-34
6.7298022e-38
8.5862452e-36
5.5603673e-40
8.2989401e-38
4.0609728e-42
7.1644158e-40
2.6047712e-44
5.5103959e-42
1.458677e-46
3.7576042e-44
7.094618e-49
2.2450639e-46
2.964877e-51
1.1671727e-48
1.0504588e-53
5.2377249e-51
3.1045603e-56
2.0057958e-53
7.4551392e-59
6.4635452e-56
1.3943868e-61
1.6984853e-58
2.0281695e-64
3.6225803e-61
1.2204322e-65
7.473037e-64
6.5437939e-66
1.7742544e-64
4.6916221e-66
2.9432293e-64
-9.3871113e-66
5.3683908e-64
-2.430959e-65
6.2820992e-64
-2.1864028e-65
5.1372547e-64
-8.523289e-66
2.0842265e-64
-2.6424043e-66
5.704241e-65
2.0307917e-65
-2.7516769e-67
1.2523134e-66
-8.4905907e-65
8.9315825e-65
-9.865158e-64
2.3323716e-63
-1.3700939e-63
6.9775932e-63
-1.5411274e-63
7.2552157e-63
-1.219959e-63
5.6844269e-63
-5.955944e-64
3.3347228e-63
-1.6872314e-64
1.2894244e-63
-2.784991e-64
4.6643375e-64
-2.5731062e-62
2.7189531e-62
-3.4446068e-60
3.3144814e-60
-4.1123942e-58
3.6514817e-58
-4.4306984e-56
3.6330353e-56
-4.3504891e-54
3.3060163e-54
-3.9021509e-52
2.7618869e-52
-3.2097821e-50
2.1223347e-50
-2.4352807e-48
1.5073705e-48
-1.7139323e-46
9.9460611e-47
-1.1246966e-44
6.1271683e-45
-6.9121846e-43
3.5391014e-43
-3.994426e-41
1.9241363e-41
-2.1780969e-39
9.8803162e-40
-1.1240465e-37
4.8051731e-38
-5.5010495e-36
2.2182009e-36
-2.5516473e-34
9.7323341e-35
-1.1234589e-32
4.0601005e-33
-4.8041339e-31
1.6158333e-31
-2.0456825e-29
6.1878344e-30
-7.9450869e-28
2.2292405e-28
-2.7630996e-26
6.8495695e-27
-1.0220784e-24
1.727681e-25
-2.0648003e-23
3.1511599e-24
-1.0886495e-22
2.3965812e-23
-1.9836767e-22
6.4693434e-23
-2.9701027e-22
9.1973485e-23
-9.6243139e-22
1.6092606e-22
-2.0003758e-20
1.5868858e-21
-7.8953674e-19
1.3896347e-20
-3.519688e-17
-6.8312936e-19
-4.0371233e-16
-2.4460291e-17
-7.9173407e-16
-1.0104424e-16
-6.4425841e-16
-1.0222803e-16
-6.961454e-16
-1.1171222e-16
-1.4749886e-15
-9.196676e-17
-5.3632916e-15
-2.8879657e-16
-3.0584219e-14
-2.0526147e-14
-4.1464083e-13
-2.7113664e-13
-8.2454255e-12
-5.5415176e-12
-1.1849951e-10
-1.6643659e-10
1.0533901e-07
-4.8385857e-07
2.903637e-07
-5.1013421e-07
2.1929045e-07
-4.0869302e-07
1.321025e-07
-9.9829409e-08
2.413633e-08
-4.8251827e-08
1.2080884e-08
-3.3299685e-08
9.9787365e-09
-1.4663014e-08
1.0760103e-08
-7.4853285e-09
1.3945327e-08
-4.2647029e-09
5.9547978e-08
5.4687136e-10
4.5622093e-07
7.3870182e-08
5.3091077e-07
3.3654466e-07
3.4690763e-07
4.7663854e-07
8.4529746e-09
3.0477168e-07
3.6845623e-10
9.2230831e-09
1.5168932e-11
3.9306872e-10
5.521413e-13
1.6497226e-11
1.7882614e-14
6.0389306e-13
6.5645697e-16
1.9884372e-14
2.3793018e-17
6.8612793e-16
6.4355453e-19
2.2275645e-17
1.4332779e-20
6.1027122e-19
2.934289e-22
1.4536556e-20
5.4962913e-24
3.1245399e-22
9.298259e-26
6.0725167e-24
1.419011e-27
1.065401e-25
1.9524079e-29
1.6869647e-27
2.4150473e-31
2.4092597e-29
2.67622e-33
3.097998e-31
2.6456865e-35
3.5773774e-33
2.3393397e-37
3.6946441e-35
1.8695771e-39
3.4438984e-37
1.3483815e-41
2.886354e-39
8.9288959e-44
2.1994523e-41
5.1015023e-46
1.5030389e-43
2.2475928e-48
8.6124501e-46
8.1824487e-51
4.1476424e-48
2.4498281e-53
1.6845098e-50
5.8466081e-56
5.7066301e-53
1.0658337e-58
1.5806766e-55
1.4520113e-61
3.4007924e-58
1.9582627e-63
8.6782228e-61
3.4784386e-64
5.6997015e-62
-1.2820568e-63
5.3895183e-62
-6.2328442e-63
9.2241562e-62
-1.2555862e-62
1.5286369e-61
-1.4862286e-62
1.6458824e-61
-9.485308e-63
1.2988355e-61
-3.0585605e-63
4.9782583e-62
-8.2657837e-64
1.3350423e-62
4.6362763e-63
-4.1919457e-65
2.3949441e-64
-1.267813e-62
1.4777158e-62
-1.500323e-61
3.901852e-61
-2.0810568e-61
1.1755803e-60
-2.3536771e-61
1.2209112e-60
-1.8750011e-61
9.6262672e-61
-9.074417e-62
5.6736431e-61
-3.0167376e-62
2.2229541e-61
-5.4043773e-62
8.9109878e-62
-5.9413341e-60
6.9489275e-60
-8.1797451e-58
8.7180621e-58
-1.0217112e-55
9.9146096e-56
-1.1503177e-53
1.0318655e-53
-1.1614107e-51
9.6842311e-52
-1.060113e-49
8.2364058e-50
-8.8266883e-48
6.4034236e-48
-6.7547363e-46
4.5839781e-46
-4.7817091e-44
3.0401594e-44
-3.1487005e-42
1.8780094e-42
-1.9381323e-40
1.08575e-40
-1.1199513e-38
5.8996268e-39
-6.0991766e-37
3.0246524e-37
-3.1413592e-35
1.4680288e-35
-1.532975e-33
6.7629962e-34
-7.0703973e-32
2.9614665e-32
-3.0965696e-30
1.2337595e-30
-1.3612328e-28
4.9385603e-29
-6.3734744e-27
1.9400538e-27
-2.4218282e-25
7.0240114e-26
-5.9662331e-24
1.816605e-24
-1.482225e-22
3.2734111e-23
-2.7502519e-21
4.8416821e-22
-1.4950844e-20
3.6800136e-21
-2.6713379e-20
1.0167575e-20
-3.535541e-20
1.4031911e-20
-7.2145931e-20
1.8587208e-20
-1.0676373e-18
1.317364e-19
-4.0318327e-17
1.9322233e-18
-1.6945932e-15
-5.5709818e-18