/*--------------------------------*- C++ -*----------------------------------*\
  =========                 |
  \\      /  F ield         | OpenFOAM: The Open Source CFD Toolbox
   \\    /   O peration     | Website:  https://openfoam.org
    \\  /    A nd           | Version:  9
     \\/     M anipulation  |
\*---------------------------------------------------------------------------*/
FoamFile
{
    format      ascii;
    class       volScalarField;
    location    "0.7";
    object      p;
}
// * * * * * * * * * * * * * * * * * * * * * * * * * * * * * * * * * * * * * //

dimensions      [1 -1 -2 0 0 0 0];

internalField   nonuniform List<scalar> 
10000
(
0
0.017476581
0.041589189
0.077066118
0.12284141
0.17907896
0.24599118
0.32389685
0.41316307
0.51415072
0.62727097
0.75294436
0.8916762
1.043997
1.2104097
1.3914414
1.5876097
1.7993955
2.0272681
2.2716424
2.5328297
2.8110456
3.1063891
3.4188202
3.7481955
4.0942392
4.456481
4.8342829
5.22688
5.6333653
6.0526747
6.4836487
6.9250567
7.3755314
7.8337457
8.2985814
8.7691688
9.2438686
9.7212586
10.199824
10.677904
11.153495
11.62403
12.086318
12.536335
12.968652
13.37613
13.750547
14.083187
14.363771
14.574784
14.704831
14.745094
14.69082
14.544646
14.320782
14.047359
13.761351
13.496043
13.272983
13.103187
12.986273
12.9164
12.881218
12.87221
12.883612
12.910067
12.946768
12.990303
13.03823
13.088776
13.140685
13.192998
13.245159
13.296817
13.347655
13.3975
13.446347
13.494157
13.540886
13.586528
13.631092
13.67455
13.716818
13.757818
13.79747
13.835604
13.872084
13.906747
13.939444
13.970001
13.998244
14.024016
14.047182
14.067584
14.085089
14.099645
14.111146
14.120901
14.124966
-0.02771619
-0.0097375535
0.014305779
0.049612817
0.095079116
0.15095056
0.21743669
0.29486553
0.38358332
0.48399532
0.59648896
0.72153226
0.85964667
1.01134
1.1771563
1.3576487
1.5533386
1.7647454
1.9923606
2.236605
2.4978293
2.7762759
3.0720445
3.3851357
3.7154452
4.0626868
4.4263759
4.8058952
5.2004762
5.6091562
6.0308226
6.4642655
6.9081603
7.3610973
7.8217056
8.2890841
8.7616975
9.2383262
9.717632
10.198193
10.67848
11.156651
11.630295
12.096393
12.551072
12.98898
13.402998
13.784565
14.124405
14.416374
14.634838
14.768619
14.807753
14.745608
14.582168
14.330313
14.022868
13.70757
13.422435
13.186402
13.005795
12.880367
12.802108
12.760748
12.749373
12.761572
12.791159
12.832793
12.882467
12.937271
12.995025
13.054167
13.113577
13.172535
13.230594
13.287497
13.343061
13.397232
13.449996
13.501333
13.55128
13.59983
13.646953
13.692623
13.736749
13.779244
13.819978
13.858832
13.895632
13.930222
13.962501
13.992298
14.019431
14.04378
14.065197
14.08353
14.098723
14.110688
14.120815
14.124946
-0.059689291
-0.041572667
-0.017580554
0.01747537
0.062500406
0.11780151
0.18362833
0.26028438
0.34813857
0.44756256
0.55899441
0.6829417
0.81991068
0.9704491
1.1351311
1.3145197
1.5091939
1.7197113
1.9465789
2.1902793
2.4512066
2.7296121
3.025647
3.3393768
3.6707033
4.0193228
4.3847745
4.7664435
5.1635058
5.5749315
5.9995613
6.4361315
6.8832551
7.3394639
7.8033154
8.2734341
8.7487272
9.2276951
9.7090873
10.191639
10.674004
11.15461
11.631393
12.101598
12.561575
13.00629
13.428872
13.820032
14.166754
14.479103
14.701256
14.832789
14.862528
14.781469
14.584677
14.280797
13.913369
13.561339
13.264556
13.027743
12.853171
12.734081
12.659593
12.623584
12.619743
12.640523
12.679034
12.729784
12.788454
12.851818
12.917621
12.984248
13.050587
13.115951
13.17991
13.242217
13.302761
13.361513
13.418489
13.473712
13.527237
13.579093
13.62927
13.677755
13.724484
13.769379
13.812341
13.853223
13.891903
13.92823
13.962094
13.993318
14.021691
14.04708
14.06938
14.088447
14.104178
14.116469
14.12684
14.130811
-0.10336874
-0.085277948
-0.061561582
-0.026933504
0.017438141
0.071905137
0.13672046
0.21223047
0.29876927
0.39673599
0.50661829
0.62891444
0.76417126
0.91298313
1.0759471
1.2536778
1.4467953
1.6558982
1.8815748
2.1243691
2.3847115
2.6629205
2.9592347
3.273767
3.6064308
3.9569659
4.324942
4.7097153
5.110405
5.5259376
5.9550947
6.3965018
6.8486415
7.3099023
7.7786759
8.2534694
8.7327797
9.2153156
9.6998899
10.185395
10.670672
11.154495
11.635252
12.110648
12.577471
13.031213
13.465541
13.871565
14.237651
14.551628
14.79059
14.922475
14.94183
14.829061
14.580658
14.192511
13.708301
13.29995
13.010219
12.788825
12.629145
12.521035
12.456061
12.431343
12.441009
12.476617
12.530427
12.596246
12.669177
12.745655
12.823218
12.900234
12.975784
13.049303
13.120511
13.189329
13.255757
13.319868
13.38174
13.441475
13.499176
13.554907
13.608689
13.660533
13.71039
13.758174
13.803836
13.847222
13.888227
13.926717
13.962503
13.99543
14.025337
14.052064
14.075494
14.095486
14.1119
14.124604
14.135305
14.139236
-0.15786211
-0.13995346
-0.11670553
-0.082703666
-0.039186639
0.014184928
0.077690469
0.1516585
0.23645279
0.33251497
0.44032861
0.56043188
0.69341876
0.8399123
1.0005689
1.1760592
1.3670463
1.5742131
1.798241
2.0397284
2.299181
2.577038
2.873631
3.189112
3.523449
3.8764471
4.2476861
4.6364816
5.0419213
5.4628785
5.8980181
6.3457827
6.804447
7.2722061
7.7472259
8.2277354
8.712117
9.198978
9.687149
10.17569
10.663804
11.150741
11.635509
12.116477
12.591108
13.055651
13.504523
13.92905
14.315296
14.644086
14.903329
15.042541
15.032491
14.8551
14.52886
14.016638
13.336478
12.85485
12.602415
12.423595
12.307776
12.221119
12.173359
12.16967
12.202686
12.261974
12.339075
12.426991
12.520039
12.614396
12.707645
12.798356
12.885831
12.969765
13.050137
13.127102
13.200827
13.271495
13.339298
13.404502
13.467286
13.527702
13.585795
13.641642
13.695249
13.746525
13.795422
13.841815
13.885586
13.926603
13.964682
13.999676
14.031436
14.059802
14.084623
14.105727
14.122962
14.136147
14.147074
14.150512
-0.22269194
-0.20501699
-0.18239761
-0.14920837
-0.10678901
-0.054772748
0.0070799519
0.079112083
0.16173701
0.25539539
0.36059718
0.47793235
0.6080291
0.75156436
0.90925616
1.0818274
1.2700284
1.4746487
1.6964466
1.9361081
2.1942775
2.4715241
2.7682658
3.084739
3.421005
3.7769276
4.1520989
4.5458272
4.9571839
5.3849591
5.8276404
6.2834505
6.7503929
7.2263794
7.7092653
8.1969478
8.687558
9.1795204
9.6715889
10.162995
10.653408
11.142763
11.630916
12.117114
12.599706
13.076117
13.542292
13.989888
14.403203
14.763873
15.0535
15.22062
15.125006
14.848135
14.426079
13.69072
12.694252
12.176811
12.063613
11.891346
11.857736
11.816235
11.794335
11.823013
11.894646
11.991763
12.104123
12.223895
12.344737
12.462831
12.57614
12.683808
12.7857
12.881986
12.973017
13.059283
13.14124
13.219296
13.293806
13.36514
13.433541
13.499142
13.562049
13.622365
13.680142
13.73533
13.787868
13.83764
13.884534
13.928414
13.969127
14.006517
14.040437
14.070714
14.097159
14.119589
14.137846
14.151632
14.162606
14.166415
-0.29763287
-0.28025759
-0.25838126
-0.22619848
-0.18511269
-0.13477134
-0.074932861
-0.0052242404
0.074759467
0.16548182
0.26750032
0.38143294
0.50796256
0.64783002
0.80180264
0.97069174
1.1553664
1.3567069
1.5755696
1.8127958
2.0691927
2.3454517
2.6421047
2.9595264
3.2979039
3.6571696
4.0369498
4.4365792
4.8551129
5.2912207
5.7431691
6.2089229
6.6861555
7.1723682
7.6650061
8.1615135
8.6595269
9.1571465
9.6530317
10.146518
10.637807
11.127879
11.617814
12.107892
12.597508
13.085835
13.571268
14.047951
14.497922
14.888242
15.225712
15.396501
15.155362
14.525762
14.284683
15.231614
14.94639
14.040501
11.832854
11.391928
11.25944
11.245901
11.273953
11.363047
11.497586
11.653721
11.819213
11.984329
12.142634
12.291331
12.429594
12.557683
12.676439
12.786849
12.889887
12.986528
13.077596
13.16374
13.245554
13.323542
13.398053
13.469318
13.537522
13.602789
13.66519
13.724694
13.781227
13.834755
13.885156
13.932282
13.976
14.016135
14.052522
14.084991
14.113329
14.137336
14.156899
14.171808
14.182581
14.186553
-0.38236481
-0.36534695
-0.34435668
-0.31334818
-0.27385603
-0.22550838
-0.16803394
-0.10108067
-0.024233029
0.063006305
0.16121621
0.2710622
0.39328997
0.52868994
0.67810609
0.84246837
1.0227527
1.2199419
1.435056
1.6691288
1.9231195
2.1978634
2.4940743
2.8123048
3.152876
3.5158309
3.9008908
4.3074375
4.7344869
5.1805768
5.6437464
6.1216369
6.6115231
7.1103617
7.6149782
8.1221854
8.6289647
9.1328196
9.6320626
10.126072
10.615773
11.103639
11.592492
12.083957
12.578553
13.077073
13.58327
14.100222
14.59521
14.999366
15.260789
15.325537
15.401621
15.261775
14.338935
12.725105
10.937455
10.33197
10.083885
10.273302
9.9727926
10.319802
10.551051
10.762699
10.993224
11.236891
11.479732
11.707442
11.914508
12.10124
12.269331
12.421064
12.55891
12.685028
12.801258
12.909198
13.010102
13.104943
13.194612
13.279787
13.360931
13.438348
13.512294
13.582937
13.650376
13.714628
13.775627
13.833345
13.887656
13.938434
13.985525
14.028747
14.06793
14.102888
14.133387
14.159223
14.180258
14.196298
14.207623
14.211976
-0.4764525
-0.4598696
-0.43989488
-0.41025996
-0.37261089
-0.32654807
-0.27182173
-0.20807785
-0.13487734
-0.051712949
0.042022269
0.14704704
0.26415006
0.39419318
0.53813528
0.69700759
0.8718869
1.0639216
1.274338
1.504354
1.7551025
2.0276357
2.3228972
2.6416382
2.9843565
3.3512721
3.7422533
4.1567405
4.5937149
5.0516113
5.5282305
6.0208197
6.526152
7.0405075
7.5598736
8.0801392
8.5972996
9.1079446
9.6097316
10.101864
10.585961
11.066782
11.550391
12.04033
12.536258
13.04009
13.570619
14.148695
14.739613
15.27354
15.086585
15.208444
14.124659
11.448486
8.7967796
6.6595693
5.7788677
4.5222387
4.3620925
6.3490843
7.1703396
8.7139555
9.4309296
9.9529188
10.35399
10.735061
11.087498
11.397278
11.66517
11.897127
12.099173
12.277041
12.435549
12.578415
12.708582
12.828377
12.939583
13.043626
13.141627
13.2344
13.322549
13.406522
13.486636
13.563092
13.636021
13.705437
13.771324
13.833645
13.892274
13.947095
13.997958
14.044644
14.08697
14.124712
14.157668
14.185614
14.208386
14.225855
14.237815
14.242884
-0.57946043
-0.56334826
-0.54454959
-0.51647307
-0.48089316
-0.43743455
-0.38584862
-0.32576933
-0.25676428
-0.17830637
-0.089752673
0.0096419082
0.12072149
0.24444816
0.38188011
0.53414153
0.70245883
0.88819123
1.0927661
1.3175952
1.5640526
1.8334699
2.1270542
2.4458011
2.79047
3.1615231
3.5590005
3.9824268
4.4308081
4.9025213
5.3951404
5.9054673
6.4296224
6.9630778
7.5007613
8.037148
8.5667171
9.084902
9.5883758
10.074977
10.546801
11.013286
11.487424
11.972349
12.461075
12.960838
13.515018
14.176967
14.952854
15.595879
15.230166
14.025711
10.224959
8.5038121
5.1184452
1.7019146
-0.83408537
-2.3897633
-2.634969
-2.237052
4.1592125
6.3260277
7.6322878
8.7759623
9.5494336
10.157691
10.656715
11.066244
11.40467
11.686874
11.925078
12.130056
12.309664
12.469453
12.613642
12.745424
12.867144
12.980623
13.087175
13.187825
13.283319
13.374204
13.460848
13.543494
13.622295
13.6973
13.76851
13.835845
13.899215
13.958499
14.013561
14.064067
14.109916
14.150799
14.18652
14.216873
14.241647
14.260742
14.273712
14.279705
-0.69088199
-0.67529195
-0.65779389
-0.63142861
-0.59817484
-0.55764233
-0.50958172
-0.45364766
-0.38940782
-0.31631614
-0.23371604
-0.1408275
-0.036726147
0.079626765
0.20936257
0.35374241
0.51419278
0.69227446
0.88961793
1.1078909
1.3487762
1.6139086
1.9048092
2.2228228
2.5690448
2.9442294
3.3486457
3.7819567
4.243268
4.7310002
5.242555
5.77423
6.321335
6.878324
7.4388619
7.9956189
8.5407989
9.0679075
9.5716821
10.047098
10.497316
10.93985
11.397644
11.869616
12.340537
12.821155
13.339003
13.981557
15.120138
15.81861
16.151873
9.862909
8.1692014
5.0784014
0.71941859
-4.0150609
-7.7911313
-9.6639297
-9.3470761
-6.9905458
-2.9302075
2.855437
5.3048227
7.1721155
8.572761
9.5358826
10.221423
10.738476
11.149368
11.481356
11.754289
11.985012
12.184601
12.3605
12.518194
12.661643
12.793712
12.916559
13.031746
13.140459
13.243549
13.341636
13.435135
13.524345
13.609402
13.690397
13.767343
13.84015
13.908712
13.972828
14.03262
14.0873
14.137001
14.18141
14.220278
14.253369
14.280458
14.301423
14.31569
14.322878
-0.81018147
-0.79511423
-0.77900869
-0.75453305
-0.72384379
-0.68654378
-0.64241255
-0.59111891
-0.53222909
-0.46520838
-0.38938251
-0.3039162
-0.2078336
-0.10004949
0.020671276
0.15576499
0.30685076
0.47568464
0.66414765
0.87422683
1.1079523
1.3673116
1.6542145
1.970448
2.3175283
2.696571
3.1081713
3.5522277
4.0279879
4.5340569
5.0678347
5.6251132
6.2002396
6.7863625
7.375624
7.9584578
8.5231344
9.0597817
9.562392
10.023308
10.440664
10.837007
11.259386
11.728957
12.188299
12.621782
12.98574
13.329435
14.873788
16.145015
10.622618
9.0218613
6.425254
2.3473622
-3.4488646
-9.6350813
-14.434748
-16.590964
-15.718153
-12.075485
-6.3497612
-1.2007836
5.3229658
5.4264842
7.6649814
8.9827019
9.8385534
10.447625
10.919363
11.292609
11.594492
11.84703
12.063882
12.254077
12.424039
12.578297
12.720219
12.852172
12.975887
13.092674
13.203479
13.308978
13.409633
13.50574
13.597448
13.684874
13.768021
13.846766
13.920992
13.99049
14.055126
14.114542
14.168549
14.216888
14.259277
14.295459
14.325216
14.348365
14.364228
14.372855
-0.93673999
-0.92215394
-0.90755842
-0.88511292
-0.85719719
-0.82344273
-0.78364423
-0.73748791
-0.68456657
-0.62435098
-0.55613587
-0.47906643
-0.39215693
-0.29425476
-0.18398504
-0.059750226
0.080238749
0.23796795
0.41562669
0.61555146
0.84015005
1.0918524
1.3730674
1.6860932
2.0329415
2.4152109
2.8339763
3.2894896
3.7811732
4.3079894
4.8676928
5.455719
6.0651965
6.6874394
7.3128705
7.9298307
8.5207832
9.0696089
9.5741509
10.015393
10.366239
10.664442
11.072068
11.604739
12.042566
12.425045
12.725549
13.054164
17.258629
14.882671
10.991171
8.4566995
5.1698497
0.20836772
-6.5663633
-13.754418
-19.317224
-21.401297
-20.160531
-15.727251
-9.1740383
-3.3748029
3.964294
4.8024094
7.080427
8.6023208
9.5557905
10.220831
10.731354
11.130979
11.452564
11.720872
11.950799
12.152397
12.332713
12.496567
12.647467
12.78795
12.919904
13.044674
13.16326
13.276367
13.38444
13.487769
13.586546
13.680837
13.770625
13.855763
13.936097
14.011424
14.081514
14.146088
14.20486
14.257565
14.303886
14.343551
14.376346
14.401998
14.41978
14.430057
-1.0699059
-1.0557427
-1.0427157
-1.0223989
-0.9974655
-0.96755526
-0.93248077
-0.89197146
-0.84563998
-0.79295491
-0.73322339
-0.6656134
-0.58911772
-0.50249293
-0.40424938
-0.29266044
-0.16574732
-0.02124791
0.14335855
0.3307781
0.54385542
0.78556003
1.0589069
1.3667987
1.7118474
2.0962786
2.5218065
2.989163
3.4980337
4.0478649
4.637084
5.2612909
5.9127226
6.5801464
7.2514563
7.9131797
8.5408461
9.1032971
9.6069936
10.016471
10.226906
10.399343
10.94116
11.454402
11.851721
12.255505
12.527854
13.753754
15.289281
12.184075
10.360083
7.7921761
4.7610877
-0.55892395
-7.6312691
-15.191044
-21.021974
-23.053277
-21.548073
-16.591196
-9.5514086
-3.5919434
2.7596989
5.7439264
6.8153578
8.4225886
9.389358
10.073388
10.596054
11.003684
11.333506
11.609889
11.84771
12.057179
12.245343
12.4171
12.575893
12.724235
12.864041
12.996643
13.122991
13.243851
13.35958
13.470484
13.576717
13.67832
13.775208
13.867222
13.954166
14.03582
14.111902
14.182142
14.246188
14.303739
14.354462
14.39806
14.434293
14.462769
14.482829
14.494954
-1.2090623
-1.195121
-1.1836463
-1.165556
-1.1437857
-1.1179972
-1.0880385
-1.053669
-1.0145141
-0.9700874
-0.91976437
-0.86272982
-0.79793656
-0.72408516
-0.63961627
-0.54267312
-0.43105338
-0.30220918
-0.15329389
0.018814205
0.21749308
0.44633396
0.7090372
1.0092388
1.3503275
1.7353372
2.1667612
2.6459125
3.1728863
3.7479022
4.3706209
5.0375417
5.7403044
6.4633752
7.1908049
7.9072038
8.5824957
9.1601574
9.6650934
10.246361
11.075379
14.414828
11.33379
10.934644
11.530881
12.056178
12.242656
12.089035
12.1415
11.314181
9.7972599
7.6100892
4.8295098
0.094248924
-6.4484364
-13.648671
-19.14576
-21.002528
-19.280554
-14.296201
-7.4737474
-1.9362516
3.0870426
5.9402858
6.9854107
8.450833
9.3603776
10.018369
10.519705
10.914869
11.240015
11.515795
11.755786
11.969259
12.162576
12.340331
12.505755
12.661169
12.808341
12.948526
13.082594
13.211422
13.335015
13.453794
13.56788
13.67726
13.78177
13.881198
13.975318
14.063855
14.146496
14.222935
14.292798
14.355718
14.411328
14.459323
14.499432
14.531116
14.553835
14.568177
-1.3536433
-1.3394206
-1.3294404
-1.3136305
-1.2951972
-1.2738059
-1.2493218
-1.2215284
-1.1901202
-1.1547024
-1.1147175
-1.0693699
-1.017616
-0.95815795
-0.88937903
-0.80927398
-0.71542643
-0.60502319
-0.47486901
-0.32136683
-0.14053074
0.071929511
0.32051006
0.6097427
0.94397438
1.3272544
1.7630423
2.2532354
2.7983392
3.3996488
4.0580291
4.7725801
5.5407118
6.3407775
7.1431929
7.9290129
8.6730661
9.2857731
9.6676766
11.163665
13.858093
14.143794
10.155526
10.232378
10.891126
11.633041
11.906577
11.609067
11.467677
10.744679
9.6100792
7.9569605
5.4941562
1.9452084
-3.3515046
-9.3234688
-13.973432
-15.53007
-13.827431
-9.5205664
-2.8510801
1.1755213
4.3557815
6.0475958
7.5812711
8.7206636
9.4861746
10.054886
10.501928
10.86349
11.171558
11.43846
11.674949
11.888557
12.084384
12.266267
12.437033
12.598646
12.752635
12.900199
13.041996
13.178664
13.310442
13.437511
13.559919
13.677568
13.790225
13.897644
13.999559
14.095615
14.185449
14.268687
14.344945
14.413807
14.474842
14.527736
14.572183
14.607498
14.633288
14.650285
-1.5033205
-1.4875305
-1.4789676
-1.4655786
-1.4506772
-1.4339271
-1.4152114
-1.3943905
-1.3712822
-1.3455894
-1.3168237
-1.2842654
-1.2469473
-1.203597
-1.152545
-1.0916661
-1.0183697
-0.92958494
-0.82172634
-0.69067207
-0.53178347
-0.33998522
-0.1098377
0.16428351
0.4878654
0.86620426
1.3040968
1.8039838
2.3661672
2.9938226
3.6909799
4.459072
5.301848
6.1958571
7.0814368
7.9252096
8.7007022
9.2412925
9.348002
12.352616
13.29473
11.937077
9.7747716
9.1862344
9.638505
10.869969
11.817778
11.369371
11.359643
10.793078
9.7337667
8.694556
6.8563302
4.7183067
0.77279424
-3.5325689
-7.0055636
-8.1029617
-6.6231763
-2.8964562
2.3861166
4.5686357
6.0775952
7.1694112
8.3599858
9.1350896
9.7066281
10.157786
10.534388
10.839493
11.12374
11.375425
11.603824
11.814157
12.010048
12.194356
12.369219
12.536216
12.696543
12.851159
13.000618
13.145369
13.285601
13.421355
13.552569
13.679044
13.80048
13.916545
14.026905
14.131153
14.228861
14.319562
14.402828
14.478225
14.545282
14.603658
14.652962
14.692374
14.721686
14.741817
-1.6511854
-1.6373349
-1.6308869
-1.6202724
-1.6091298
-1.5972157
-1.5845193
-1.5710305
-1.5566929
-1.5413302
-1.5245977
-1.5059247
-1.4844594
-1.4589731
-1.4277859
-1.3887251
-1.3390648
-1.2754664
-1.1939378
-1.0898145
-0.95775296
-0.79177736
-0.58533812
-0.3315098
-0.02345989
0.34563984
0.78244395
1.2897857
1.8666708
2.519685
3.2573805
4.0807696
5.0140787
6.0433676
7.0001334
7.882775
8.6699653
9.2512233
9.2104791
11.09758
13.333587
12.974777
9.3686925
8.1084211
8.3598518
9.6575094
10.840073
11.908262
13.256085
11.310741
11.358385
9.5992476
8.6136873
7.1998972
4.7566941
2.0077713
-0.2746354
-1.0958459
-0.34090724
1.7732926
4.6304662
5.996252
6.9861449
8.2697465
9.0687951
9.5661007
9.955655
10.284951
10.579238
10.844273
11.091879
11.322714
11.539533
11.744115
11.938216
12.123563
12.301487
12.473122
12.639333
12.800818
12.957957
13.111002
13.260008
13.404918
13.54551
13.681453
13.812366
13.937811
14.057351
14.17051
14.276783
14.375659
14.46664
14.549229
14.622931
14.687389
14.742115
14.786142
14.819456
14.84319
-1.8006501
-1.7887666
-1.7843398
-1.7766805
-1.76945
-1.7625243
-1.7560366
-1.7501172
-1.7448728
-1.7403235
-1.7363526
-1.7325917
-1.7283385
-1.7224741
-1.7133925
-1.6989339
-1.6762707
-1.6418212
-1.5912124
-1.519233
-1.4197678
-1.285813
-1.1095431
-0.88248038
-0.59615898
-0.24191477
0.18945336
0.70133697
1.2883609
1.9588603
2.7325482
3.6153384
4.6401766
5.8357777
6.8809537
7.8702551
8.7369741
9.5667384
9.8657813
10.154564
14.673327
15.185489
9.308119
7.9460488
8.1106646
9.5232349
10.897405
11.376495
22.471005
18.179081
12.09135
11.292028
10.859765
9.2588899
8.2388749
6.1181624
5.0623757
4.7020547
5.0481746
5.7727948
6.8433919
7.9048262
8.7715516
9.3801729
9.7270468
9.9684149
10.191597
10.410999
10.630862
10.848783
11.063882
11.274035
11.47825
11.675897
11.867102
12.052466
12.23263
12.408319
12.580071
12.748296
12.913213
13.074848
13.23309
13.387713
13.538326
13.684455
13.825616
13.961248
14.090784
14.213641
14.329244
14.437056
14.536522
14.627038
14.708071
14.779254
14.839994
14.889176
14.927095
14.955212
-1.9519302
-1.940233
-1.9382608
-1.9338097
-1.9306036
-1.9287397
-1.9285052
-1.9302029
-1.9342002
-1.9408038
-1.9501663
-1.9621802
-1.9763813
-1.9918642
-2.0071869
-2.0202575
-2.0282054
-2.0272864
-2.0127935
-1.9789642
-1.9188878
-1.8244265
-1.6862299
-1.4940119
-1.2373437
-0.90503959
-0.48443902
0.028571063
0.62132795
1.3012024
2.0935096
3.0181416
4.156581
5.4853355
6.7103979
7.9061011
8.9552911
10.113529
10.926957
11.144643
13.219616
14.933313
10.338175
9.1855937
9.4508573
10.855195
12.134949
12.657007
21.525678
22.386138
12.311186
13.501969
12.665385
11.028128
9.973117
9.1548206
8.1946133
8.4515326
8.8737496
9.4240943
9.804558
10.04704
10.203977
10.274132
10.272046
10.30154
10.385064
10.511521
10.668451
10.8447
11.031826
11.223635
11.416047
11.606758
11.794615
11.979406
12.16128
12.340589
12.51761
12.69254
12.86541
13.036022
13.204077
13.369104
13.53051
13.687671
13.839933
13.986613
14.127018
14.260453
14.386265
14.503845
14.612573
14.711772
14.80089
14.879536
14.946932
15.001874
15.044996
15.078109
-2.1017208
-2.0920977
-2.092141
-2.0908583
-2.091665
-2.0947619
-2.1006193
-2.1097905
-2.1229662
-2.1408157
-2.1638273
-2.1922481
-2.2259751
-2.2644276
-2.3064136
-2.350007
-2.3924119
-2.4298287
-2.4572883
-2.4685025
-2.455778
-2.4098031
-2.3194735
-2.1723458
-1.9554646
-1.6538083
-1.2494407
-0.73658046
-0.14090338
0.52836053
1.3154716
2.2456776
3.4801687
4.771387
6.5203702
7.8394009
9.2208152
10.850221
12.120781
13.092666
13.835124
13.991435
13.005581
11.910377
12.258527
13.427064
14.084898
13.802689
14.460597
20.791012
14.412101
14.973368
13.831202
12.161136
10.912277
10.291752
10.469191
10.580068
10.704062
11.108268
11.398921
11.323487
11.075149
10.825298
10.620247
10.513457
10.501856
10.56322
10.676199
10.822904
10.989469
11.167098
11.349836
11.534365
11.718828
11.90266
12.085775
12.268342
12.450498
12.632243
12.813369
12.993468
13.171988
13.348227
13.52136
13.690545
13.854915
14.013625
14.165863
14.31083
14.447789
14.576035
14.694861
14.803542
14.901531
14.988414
15.063176
15.1245
15.173504
15.212332
-2.2500144
-2.2438656
-2.2446015
-2.2469782
-2.2517589
-2.2595538
-2.2711353
-2.2873883
-2.3093752
-2.3382031
-2.3748335
-2.4199946
-2.4740572
-2.5368739
-2.607633
-2.6847319
-2.7656108
-2.8465376
-2.9224048
-2.9865362
-3.0305328
-3.0439272
-3.013801
-2.9253594
-2.7625011
-2.5045636
-2.1265003
-1.6204972
-1.0242778
-0.38754692
0.3171586
1.2504147
2.6960931
4.0679054
6.6708197
7.6169064
11.5664
14.588412
15.758766
14.39572
17.259192
17.344208
16.828847
16.156376
16.282929
16.794809
16.472188
15.440829
14.802743
14.913535
20.704949
14.099809
13.713611
12.535525
11.408957
10.792931
10.742619
11.765518
12.317826
12.618903
12.443073
11.865902
11.45669
11.053862
10.753175
10.579464
10.522014
10.553028
10.645357
10.777422
10.932809
11.101689
11.277559
11.456904
11.637942
11.820385
12.004249
12.189758
12.376974
12.565707
12.755553
12.945851
13.135714
13.324154
13.510091
13.692417
13.870037
14.041915
14.207076
14.364599
14.513669
14.653521
14.783358
14.90239
15.010098
15.106027
15.18889
15.25729
15.312946
15.358247
-2.3963351
-2.3935974
-2.3961706
-2.4018321
-2.4102588
-2.4222893
-2.4389699
-2.4615452
-2.4915506
-2.5306533
-2.5804318
-2.6422282
-2.717019
-2.805232
-2.9066169
-3.0200785
-3.143476
-3.273337
-3.4046275
-3.5305575
-3.6422726
-3.7282844
-3.7739884
-3.7626032
-3.6751819
-3.4834295
-3.1448896
-2.630804
-1.9858997
-1.4436645
-0.85866161
0.08234578
1.548486
3.4392172
5.475507
10.903788
13.531905
15.702746
18.18363
20.662453
20.309046
21.022318
20.900521
20.265728
20.624284
20.469127
19.080275
16.003309
13.536639
13.656158
26.191307
14.900407
14.279199
12.831239
11.319011
10.653881
10.793677
11.462616
12.18992
13.025213
13.239067
12.888957
11.558459
10.985472
10.664099
10.489781
10.439163
10.477052
10.574039
10.707551
10.861515
11.026929
11.198276
11.372943
11.550211
11.730597
11.914566
12.102635
12.294863
12.490915
12.690146
12.89156
13.093893
13.2958
13.495859
13.692635
13.884785
14.071064
14.250323
14.421518
14.583745
14.736175
14.877948
15.008242
15.126581
15.232407
15.324186
15.400448
15.463605
15.516221
-2.5403535
-2.5410543
-2.5460555
-2.5548986
-2.5668121
-2.5824345
-2.6032333
-2.6309094
-2.6676132
-2.7157284
-2.7775909
-2.8553131
-2.9506343
-3.0647614
-3.1982036
-3.3505683
-3.5203562
-3.7046572
-3.8988342
-4.0963562
-4.2884229
-4.4629787
-4.604253
-4.6951286
-4.7166065
-4.6357805
-4.3966468
-3.9624753
-3.436701
-3.1690488
-2.839287
-1.7128074
-0.21026108
2.198329
4.7536195
8.9034746
13.937731
14.973329
15.249704
19.911522
23.202145
25.075982
24.094112
23.202717
24.086531
25.436371
22.516443
15.859932
10.577044
7.8923986
15.353296
16.549769
18.196349
13.650427
10.422711
9.5494784
10.210847
11.449568
12.366519
12.859991
13.086181
12.168117
11.261234
10.68066
10.367657
10.252882
10.259983
10.341598
10.46766
10.617434
10.778277
10.944121
11.112007
11.281479
11.453889
11.631
11.814158
12.004295
12.201539
12.405446
12.614994
12.828722
13.044959
13.261881
13.477641
13.690431
13.898594
14.100644
14.295267
14.481313
14.657794
14.823806
14.978436
15.120929
15.250797
15.367452
15.469044
15.55403
15.625708
15.686661
-2.6813554
-2.6856958
-2.6940607
-2.7063182
-2.721488
-2.739869
-2.7633602
-2.7943421
-2.8357565
-2.8908699
-2.9629649
-3.0551278
-3.1700432
-3.3098952
-3.4761585
-3.6693847
-3.889008
-4.1330571
-4.3977259
-4.6772137
-4.9635366
-5.244969
-5.5052441
-5.7308345
-5.9176991
-6.0322166
-5.9443144
-5.6875527
-5.788852
-6.550635
-7.0452246
-6.1128533
-3.9104924
-0.26570969
3.8254358
7.7554187
12.425352
12.748686
14.918988
21.949805
30.045085
32.448971
26.969624
24.592694
27.944086
33.372772
28.675082
14.982238
2.823137
-2.0736087
13.077157
24.665788
21.941296
11.926072
7.0445319
7.0494601
9.8769917
11.549052
12.583914
13.599655
13.791996
12.174939
10.785614
10.096865
9.87205
9.8927538
10.006688
10.163075
10.337622
10.515243
10.688315
10.85614
11.019582
11.181804
11.347008
11.518816
11.699814
11.891423
12.093833
12.306352
12.527489
12.755196
12.987208
13.221072
13.454408
13.685005
13.910856
14.130201
14.341558
14.54368
14.735515
14.916114
15.084503
15.240129
15.382458
15.510891
15.623238
15.717924
15.799372
15.870022
-2.8176142
-2.8273857
-2.840673
-2.8569607
-2.8751399
-2.8951319
-2.9193478
-2.9510964
-2.9943126
-3.0534148
-3.1329327
-3.2370913
-3.3697211
-3.5341661
-3.7330773
-3.9682369
-4.240363
-4.548826
-4.891155
-5.2628776
-5.6577723
-6.0651146
-6.4690784
-6.8712856
-7.2897057
-7.6415652
-7.7300666
-7.6967048
-8.6836284
-10.709361
-12.482071
-12.200884
-9.2394773
-3.699172
2.6226935
8.5069021
12.747429
13.529296
11.967189
20.722389
41.897057
48.779699
28.851659
22.466085
27.997739
45.730842
42.304282
15.866929
-9.8998147
-19.209308
10.137536
33.659659
33.213669
16.045935
2.2608274
0.14243098
9.3206424
11.120319
11.054389
14.24674
15.769943
11.709014
9.1842682
8.7736246
9.0794497
9.4195965
9.7047711
9.963933
10.201627
10.414024
10.599645
10.76736
10.922573
11.073186
11.227126
11.390552
11.567439
11.759769
11.967721
12.190077
12.424625
12.668554
12.918745
13.171951
13.42515
13.675633
13.92102
14.159289
14.388813
14.608259
14.816536
15.012733
15.195987
15.365422
15.521068
15.662229
15.786315
15.891815
15.984534
16.066694
-2.9470079
-2.9664058
-2.9873512
-3.0088936
-3.0298549
-3.0498501
-3.0719925
-3.1009107
-3.1418799
-3.2006712
-3.2836316
-3.3961798
-3.5434589
-3.730146
-3.9602926
-4.2372101
-4.5632678
-4.9395972
-5.3655897
-5.8387629
-6.3554464
-6.9065804
-7.4799477
-8.1011554
-8.7955105
-9.3876878
-9.5289209
-9.503901
-10.978328
-13.484798
-15.547512
-16.201353
-14.099083
-7.5664395
0.76118452
9.4847249
17.648428
16.132966
-5.7781625
7.5840269
57.059467
93.180699
55.14652
-4.3406824
5.738299
75.820026
89.575651
73.955662
172.79992
305.36726
222.94796
104.94468
72.508555
51.708936
30.001426
18.641761
4.7178824
5.9238934
9.0779693
18.098979
21.659833
8.6138585
4.9612815
6.3070211
7.9708316
8.8853971
9.3893379
9.7738842
10.074986
10.323979
10.521412
10.683258
10.823164
10.954512
11.090958
11.241474
11.411674
11.603964
11.818209
12.052307
12.302936
12.566109
12.837558
13.113079
13.388865
13.661626
13.928578
14.187494
14.436632
14.674618
14.900393
15.113057
15.311837
15.496017
15.665838
15.820654
15.957512
16.075055
16.180833
16.276851
-3.069875
-3.1046417
-3.1373799
-3.1661664
-3.1896475
-3.2072511
-3.223197
-3.2440801
-3.2774386
-3.3299687
-3.4110034
-3.5269318
-3.684367
-3.889449
-4.1478386
-4.4646479
-4.8442574
-5.2900411
-5.8037924
-6.3855511
-7.0347737
-7.7453808
-8.509701
-9.3683526
-10.342705
-11.196559
-11.711627
-9.7429184
-13.311043
-16.800768
-18.56042
-18.996946
-16.783033
-10.464148
-1.1177699
10.056353
28.887498
38.948754
18.07421
-22.327153
54.243288
205.3757
170.42385
224.81039
515.77439
-11.51197
169.60277
2594.5942
5541.8887
6194.5014
4045.9201
1643.7908
1200.5902
1523.1488
807.453
44.8657
-32.597173
-8.6829617
11.616802
51.42244
45.105373
-4.318385
-8.1079258
2.8959111
7.3147582
8.602567
9.1642252
9.6202915
9.9806671
10.264377
10.463992
10.610049
10.723639
10.823876
10.933591
11.064813
11.225191
11.416949
11.639009
11.887825
12.158372
12.444921
12.741671
13.04319
13.34476
13.642449
13.933126
14.214442
14.484614
14.7423
14.986566
15.216653
15.431488
15.630996
15.815664
15.98495
16.135625
16.266508
16.387406
16.500242
-3.1873072
-3.2458082
-3.2969595
-3.3360256
-3.3613845
-3.3727656
-3.3763659
-3.3817958
-3.3994728
-3.4393362
-3.510855
-3.6234681
-3.7849077
-4.0028011
-4.2845258
-4.6372008
-5.0675621
-5.5817806
-6.1847016
-6.8793281
-7.6686431
-8.5515299
-9.5238268
-10.622768
-11.883903
-13.165995
-13.973126
-14.043672
-15.012656
-23.807137
-24.574878
-20.445148
-17.649205
-13.270333
-5.7833462
3.2021501
43.105487
122.18813
118.30072
-110.00951
47.390727
-1431.0601
-342.61079
4858.3059
6192.8568
4226.4631
3253.2494
4330.2731
5685.9928
5865.9127
4726.1705
3559.5572
3793.173
5106.7807
5531.542
3635.9329
994.18848
-92.899104
38.657646
142.10906
102.64683
-61.259903
-14.578992
6.6379464
8.3052493
8.6188002
8.8685202
9.4025462
9.8731215
10.223273