/*--------------------------------*- C++ -*----------------------------------*\
  =========                 |
  \\      /  F ield         | OpenFOAM: The Open Source CFD Toolbox
   \\    /   O peration     | Website:  https://openfoam.org
    \\  /    A nd           | Version:  9
     \\/     M anipulation  |
\*---------------------------------------------------------------------------*/
FoamFile
{
    format      ascii;
    class       volVectorField;
    location    "0.7";
    object      U;
}
// * * * * * * * * * * * * * * * * * * * * * * * * * * * * * * * * * * * * * //

dimensions      [0 1 -1 0 0 0 0];

internalField   nonuniform List<vector> 
10000
(
(-0.005160649 0.0094842043 0)
(-0.016083777 0.0095169725 0)
(-0.022475293 0.0095778022 0)
(-0.030389885 0.0096579634 0)
(-0.038005968 0.0097416918 0)
(-0.045734362 0.0098343908 0)
(-0.053474223 0.0099291213 0)
(-0.06121581 0.010024671 0)
(-0.068969444 0.010116954 0)
(-0.076731954 0.010203713 0)
(-0.084498411 0.010279637 0)
(-0.092264619 0.010344184 0)
(-0.10001455 0.010395764 0)
(-0.10773706 0.010425572 0)
(-0.11542744 0.01043292 0)
(-0.12307547 0.010415841 0)
(-0.13066388 0.010372839 0)
(-0.13818307 0.010299548 0)
(-0.14562028 0.010196502 0)
(-0.15294924 0.010063287 0)
(-0.16016013 0.0098922616 0)
(-0.16725002 0.0096834027 0)
(-0.17418689 0.0094447839 0)
(-0.1809451 0.0091687157 0)
(-0.18750086 0.0088545673 0)
(-0.1938207 0.0084933443 0)
(-0.19986785 0.0080842361 0)
(-0.20559089 0.0076139485 0)
(-0.21093528 0.0070686061 0)
(-0.21583614 0.0064273279 0)
(-0.22021634 0.0056654636 0)
(-0.22398606 0.0047635215 0)
(-0.22703895 0.0037021453 0)
(-0.2292882 0.0024630717 0)
(-0.23063226 0.0010782048 0)
(-0.23081942 -0.00039626956 0)
(-0.22947946 -0.0019791255 0)
(-0.22633193 -0.0037434712 0)
(-0.22116619 -0.0057222407 0)
(-0.21373285 -0.0079525423 0)
(-0.20377449 -0.010455962 0)
(-0.19102763 -0.013256338 0)
(-0.1752364 -0.016382926 0)
(-0.15613202 -0.019864573 0)
(-0.13337588 -0.023710482 0)
(-0.10670388 -0.027934439 0)
(-0.076043842 -0.032611357 0)
(-0.040822562 -0.0376511 0)
(-0.00010037031 -0.043183204 0)
(0.04585373 -0.049177605 0)
(0.096608323 -0.055102387 0)
(0.15214012 -0.060467503 0)
(0.21175182 -0.064727516 0)
(0.27411162 -0.067076384 0)
(0.33694221 -0.066545804 0)
(0.39700642 -0.062452265 0)
(0.45066094 -0.054776166 0)
(0.49470474 -0.044209398 0)
(0.52701543 -0.031881567 0)
(0.54669427 -0.019028713 0)
(0.5540994 -0.0064704146 0)
(0.55069869 0.0051217866 0)
(0.53875906 0.015561047 0)
(0.52075884 0.024751205 0)
(0.49856989 0.032553678 0)
(0.47357901 0.038921243 0)
(0.44698798 0.043905119 0)
(0.41979912 0.047561261 0)
(0.39272279 0.049924777 0)
(0.36620049 0.051052378 0)
(0.34049131 0.051055183 0)
(0.31574292 0.050097459 0)
(0.29202733 0.048380693 0)
(0.26937891 0.046120692 0)
(0.24781936 0.043518577 0)
(0.2273647 0.040737201 0)
(0.20801823 0.037892536 0)
(0.18977142 0.03507004 0)
(0.17259677 0.03231659 0)
(0.15650504 0.029690171 0)
(0.14148489 0.027194222 0)
(0.12746993 0.024844226 0)
(0.11444443 0.022642676 0)
(0.10236248 0.020587167 0)
(0.091182028 0.01867612 0)
(0.080869578 0.016908538 0)
(0.071384473 0.015279398 0)
(0.062686871 0.013773847 0)
(0.05472703 0.012381044 0)
(0.047441346 0.01109681 0)
(0.040785777 0.0099297971 0)
(0.034733532 0.0088809495 0)
(0.029239223 0.0079251538 0)
(0.024248888 0.0070800899 0)
(0.019697365 0.006337616 0)
(0.015553659 0.0056820412 0)
(0.011847168 0.0051219486 0)
(0.0081205988 0.0046663902 0)
(0.005840734 0.0043300329 0)
(0.00082196031 0.0040386548 0)
(-0.0051014627 0.021044331 0)
(-0.015968139 0.021074278 0)
(-0.022334799 0.021153704 0)
(-0.030237577 0.021250532 0)
(-0.037847125 0.021360559 0)
(-0.045569404 0.021471557 0)
(-0.053308965 0.021585278 0)
(-0.061055544 0.021695162 0)
(-0.068818711 0.021792935 0)
(-0.076597229 0.021877142 0)
(-0.08438408 0.021944856 0)
(-0.092170878 0.021982297 0)
(-0.099949413 0.021995735 0)
(-0.10770736 0.02197146 0)
(-0.11543407 0.021911299 0)
(-0.12311956 0.02180711 0)
(-0.13075024 0.021661325 0)
(-0.13831522 0.021471019 0)
(-0.14579713 0.021232668 0)
(-0.15317793 0.020941452 0)
(-0.16045022 0.020590827 0)
(-0.16759756 0.020178994 0)
(-0.17459602 0.019707641 0)
(-0.1814278 0.0191631 0)
(-0.18807235 0.018538849 0)
(-0.19449677 0.017815752 0)
(-0.20066871 0.016976886 0)
(-0.20654539 0.015995431 0)
(-0.21207343 0.014838843 0)
(-0.21719422 0.013471225 0)
(-0.22183138 0.011848591 0)
(-0.22589693 0.0099300684 0)
(-0.22929138 0.0076706384 0)
(-0.23188114 0.0050257012 0)
(-0.23348268 0.0019924605 0)
(-0.23387882 -0.0014063525 0)
(-0.2328296 -0.0052098699 0)
(-0.23006814 -0.0094958124 0)
(-0.22534034 -0.014312889 0)
(-0.21838346 -0.019694702 0)
(-0.20892351 -0.025664772 0)
(-0.19669746 -0.032236202 0)
(-0.18145284 -0.039425132 0)
(-0.16291633 -0.04725265 0)
(-0.14075907 -0.055785122 0)
(-0.11474469 -0.065095443 0)
(-0.084734117 -0.075197172 0)
(-0.050161039 -0.08592369 0)
(-0.010197804 -0.097474369 0)
(0.03539842 -0.10985374 0)
(0.086745496 -0.12197211 0)
(0.1439114 -0.13281706 0)
(0.20653121 -0.14152576 0)
(0.27338956 -0.14615941 0)
(0.34204555 -0.14418618 0)
(0.40850587 -0.13393273 0)
(0.46796837 -0.11558285 0)
(0.5162029 -0.091190852 0)
(0.55056596 -0.063404465 0)
(0.57048155 -0.034991227 0)
(0.57694069 -0.0080673788 0)
(0.57168069 0.016090601 0)
(0.5572728 0.036921 0)
(0.53633449 0.054016806 0)
(0.51093389 0.067228141 0)
(0.48276876 0.076798595 0)
(0.45326327 0.083212707 0)
(0.42351215 0.087002969 0)
(0.39426417 0.08866088 0)
(0.36597626 0.088611535 0)
(0.3388892 0.087214203 0)
(0.31310331 0.08477562 0)
(0.28863841 0.081562627 0)
(0.26547955 0.07781063 0)
(0.24360111 0.073720419 0)
(0.22297474 0.069451651 0)
(0.20357392 0.065122515 0)
(0.18536128 0.060822868 0)
(0.16829502 0.056609641 0)
(0.15236314 0.052548555 0)
(0.13752081 0.04864041 0)
(0.12370834 0.044914443 0)
(0.1108889 0.041379681 0)
(0.09901191 0.038035272 0)
(0.088038114 0.034880212 0)
(0.077933429 0.031922254 0)
(0.068644595 0.029149055 0)
(0.060124789 0.026556052 0)
(0.052332347 0.024137024 0)
(0.045221564 0.021892887 0)
(0.038761175 0.019829383 0)
(0.032889688 0.017940867 0)
(0.027572702 0.016218211 0)
(0.022772286 0.014663383 0)
(0.018390614 0.013278683 0)
(0.014413623 0.012061142 0)
(0.010888381 0.011015687 0)
(0.0073663028 0.010136662 0)
(0.0052582543 0.0094793415 0)
(0.00052035249 0.0089003927 0)
(-0.0050558474 0.027659126 0)
(-0.015909986 0.027698493 0)
(-0.022252011 0.027788675 0)
(-0.030137991 0.027904091 0)
(-0.037736012 0.028024812 0)
(-0.045454088 0.02815528 0)
(-0.053190436 0.02828332 0)
(-0.060944648 0.028409683 0)
(-0.068720261 0.028527298 0)
(-0.07650973 0.028621908 0)
(-0.084321692 0.028692721 0)
(-0.092139765 0.028732856 0)
(-0.099951453 0.028734477 0)
(-0.10774823 0.028689665 0)
(-0.11552044 0.028595114 0)
(-0.1232567 0.028445338 0)
(-0.13093545 0.028239876 0)
(-0.13855167 0.027969625 0)
(-0.14609406 0.027637407 0)
(-0.15354025 0.027236669 0)
(-0.16087712 0.026761858 0)
(-0.16809197 0.026214782 0)
(-0.17516677 0.025587402 0)
(-0.18208287 0.024865394 0)
(-0.18882155 0.024041436 0)
(-0.19535809 0.023095998 0)
(-0.20166267 0.022008967 0)
(-0.20769832 0.020751228 0)
(-0.21341843 0.019282964 0)
(-0.21877061 0.017560684 0)
(-0.22368148 0.015530167 0)
(-0.228057 0.013136214 0)
(-0.23178701 0.010325072 0)
(-0.23473947 0.0070508875 0)
(-0.23675287 0.0032607562 0)
(-0.23762649 -0.0011127229 0)
(-0.23710371 -0.0061349576 0)
(-0.23492004 -0.011871364 0)
(-0.23082545 -0.01838355 0)
(-0.22454548 -0.025698094 0)
(-0.21580382 -0.033854404 0)
(-0.20433191 -0.04288999 0)
(-0.18987989 -0.052821965 0)
(-0.17221243 -0.063691 0)
(-0.15103839 -0.075587145 0)
(-0.12605836 -0.088642257 0)
(-0.096993606 -0.10289793 0)
(-0.063324135 -0.11828681 0)
(-0.024373799 -0.13506065 0)
(0.020785237 -0.1530922 0)
(0.073190894 -0.17180572 0)
(0.13282418 -0.18883764 0)
(0.19856848 -0.2034812 0)
(0.27036955 -0.21200976 0)
(0.34692992 -0.21026151 0)
(0.42320481 -0.19515527 0)
(0.49182523 -0.16645291 0)
(0.54662767 -0.12826069 0)
(0.58406522 -0.08572633 0)
(0.60328304 -0.043420923 0)
(0.60625181 -0.0047819018 0)
(0.59660414 0.028600565 0)
(0.57776196 0.056220759 0)
(0.5524553 0.077906347 0)
(0.52301345 0.093962101 0)
(0.49133801 0.10508716 0)
(0.45885855 0.11209264 0)
(0.42658792 0.11574097 0)
(0.39520295 0.11671645 0)
(0.36512269 0.11561617 0)
(0.33658058 0.11294458 0)
(0.30967034 0.1091193 0)
(0.28438986 0.10448142 0)
(0.26068967 0.099308109 0)
(0.23850121 0.093820318 0)
(0.2177464 0.088189148 0)
(0.19835068 0.082546439 0)
(0.18023337 0.076983634 0)
(0.16333532 0.071570625 0)
(0.1476144 0.066360049 0)
(0.13299773 0.061368384 0)
(0.11942983 0.056615104 0)
(0.10685766 0.052105325 0)
(0.095225126 0.047845739 0)
(0.084496474 0.043833266 0)
(0.07462816 0.04006894 0)
(0.065566021 0.036543294 0)
(0.057279373 0.033256055 0)
(0.049721063 0.030201738 0)
(0.042840022 0.027375027 0)
(0.036586618 0.024768929 0)
(0.030912703 0.022370193 0)
(0.025784326 0.020196262 0)
(0.021159697 0.018220704 0)
(0.016969107 0.016455236 0)
(0.013190422 0.014907669 0)
(0.0098374877 0.013576337 0)
(0.0065151352 0.012447571 0)
(0.0045927204 0.011591423 0)
(0.00015477696 0.010794726 0)
(-0.0050022898 0.035114225 0)
(-0.015837611 0.035190055 0)
(-0.022128913 0.035301126 0)
(-0.03000731 0.035453739 0)
(-0.037602544 0.0356024 0)
(-0.045314754 0.035769846 0)
(-0.05305643 0.035933948 0)
(-0.060811948 0.036095556 0)
(-0.068603954 0.036243911 0)
(-0.076425175 0.036364768 0)
(-0.084263639 0.036448485 0)
(-0.092115206 0.036500261 0)
(-0.099972971 0.036502302 0)
(-0.10782089 0.036447272 0)
(-0.11564661 0.036330191 0)
(-0.12343693 0.036150573 0)
(-0.13118142 0.035900695 0)
(-0.13886512 0.035572047 0)
(-0.14646985 0.035168358 0)
(-0.15398551 0.034685556 0)
(-0.16139602 0.034116853 0)
(-0.16868855 0.033460508 0)
(-0.17585584 0.032707068 0)
(-0.18287838 0.031846493 0)
(-0.189742 0.030863432 0)
(-0.19642715 0.029736427 0)
(-0.20291131 0.028438895 0)
(-0.20917025 0.026928338 0)
(-0.21516261 0.025152233 0)
(-0.2208428 0.023055526 0)
(-0.22614664 0.020565024 0)
(-0.23098878 0.017601321 0)
(-0.23526527 0.014077601 0)
(-0.23884589 0.0099002367 0)
(-0.2415641 0.004982886 0)
(-0.2431992 -0.00075658992 0)
(-0.24350283 -0.0073990053 0)
(-0.24221335 -0.015033115 0)
(-0.23903738 -0.023707157 0)
(-0.2336925 -0.033452187 0)
(-0.22591548 -0.04429155 0)
(-0.21543098 -0.056243433 0)
(-0.20199876 -0.069329053 0)
(-0.18541349 -0.083583443 0)
(-0.16543663 -0.099109368 0)
(-0.14180174 -0.11609182 0)
(-0.114193 -0.13472045 0)
(-0.082124591 -0.15517557 0)
(-0.044741676 -0.17769662 0)
(-0.00081065653 -0.20246275 0)
(0.052470399 -0.23071466 0)
(0.1117139 -0.25449171 0)
(0.17470854 -0.27546759 0)
(0.25131285 -0.29130493 0)
(0.34216639 -0.29407121 0)
(0.43747057 -0.27587111 0)
(0.5225972 -0.23527811 0)
(0.587548 -0.17958175 0)
(0.62980576 -0.11597675 0)
(0.64929492 -0.054314912 0)
(0.64853902 -0.00058199094 0)
(0.63261025 0.044500803 0)
(0.60634644 0.080470173 0)
(0.57368335 0.10744668 0)
(0.53771771 0.12637006 0)
(0.50064119 0.13855786 0)
(0.46386893 0.14535989 0)
(0.42828087 0.14799048 0)
(0.39439231 0.14747639 0)
(0.36246042 0.14465062 0)
(0.33257519 0.14017323 0)
(0.30471962 0.13455844 0)
(0.27880956 0.12820383 0)
(0.2547311 0.121416 0)
(0.23236001 0.11442508 0)
(0.21157254 0.1073974 0)
(0.19225312 0.1004581 0)
(0.17428755 0.093683654 0)
(0.15759734 0.087142256 0)
(0.14211467 0.080864995 0)
(0.12775184 0.074870296 0)
(0.1144408 0.069165489 0)
(0.10213202 0.063756051 0)
(0.090766155 0.058639935 0)
(0.080298521 0.053820825 0)
(0.070688399 0.04928506 0)
(0.061880814 0.045030687 0)
(0.053835676 0.041048103 0)
(0.046502425 0.037328739 0)
(0.039836455 0.03386061 0)
(0.03380032 0.030641574 0)
(0.028357553 0.027676552 0)
(0.023461631 0.024967101 0)
(0.019064397 0.022512327 0)
(0.015107312 0.020317037 0)
(0.011566383 0.018376513 0)
(0.0084473986 0.016682839 0)
(0.0053917464 0.01526267 0)
(0.0036749798 0.014152188 0)
(-0.00035809844 0.01304323 0)
(-0.0049206125 0.042770253 0)
(-0.015741847 0.042880737 0)
(-0.021986962 0.04301705 0)
(-0.029843474 0.043192418 0)
(-0.037428855 0.043379242 0)
(-0.045129784 0.043581404 0)
(-0.052871749 0.043787578 0)
(-0.060641135 0.043984998 0)
(-0.068454875 0.044161529 0)
(-0.076307266 0.044310109 0)
(-0.08418559 0.044417519 0)
(-0.092082107 0.044475318 0)
(-0.099995643 0.044473948 0)
(-0.10790653 0.044406711 0)
(-0.11579732 0.04426587 0)
(-0.12365957 0.044045862 0)
(-0.13148039 0.043740187 0)
(-0.13924232 0.04334783 0)
(-0.14693012 0.042863788 0)
(-0.15453291 0.042285992 0)
(-0.16203547 0.041610047 0)
(-0.16942857 0.040830116 0)
(-0.17670321 0.039939582 0)
(-0.18384679 0.038933711 0)
(-0.19085273 0.037792944 0)
(-0.19770733 0.036489372 0)
(-0.20440059 0.034987562 0)
(-0.21091896 0.033245689 0)
(-0.21722525 0.031201754 0)
(-0.22328734 0.028787734 0)
(-0.22905686 0.025912846 0)
(-0.23445443 0.02247324 0)
(-0.23938377 0.018361551 0)
(-0.24371263 0.013446546 0)
(-0.24727248 0.0076142613 0)
(-0.24986247 0.00074364529 0)
(-0.2512291 -0.0072911005 0)
(-0.25107629 -0.016585212 0)
(-0.24908936 -0.027209055 0)
(-0.24496797 -0.03920897 0)
(-0.23842154 -0.052573236 0)
(-0.2291844 -0.067281888 0)
(-0.21703672 -0.083349272 0)
(-0.20180991 -0.10080466 0)
(-0.18335409 -0.11975823 0)
(-0.16149273 -0.14044055 0)
(-0.13596192 -0.16323937 0)
(-0.10615694 -0.18865661 0)
(-0.071098457 -0.21732974 0)
(-0.030653058 -0.25023145 0)
(0.019068066 -0.28724729 0)
(0.06939079 -0.31149921 0)
(0.13400911 -0.34308607 0)
(0.23648969 -0.38097195 0)
(0.36470271 -0.39852613 0)
(0.49466108 -0.37496919 0)
(0.59980268 -0.30970644 0)
(0.66768929 -0.23349562 0)
(0.70201969 -0.1474753 0)
(0.71095328 -0.060975909 0)
(0.7017163 0.012141139 0)
(0.67735355 0.070752742 0)
(0.64121123 0.11528176 0)
(0.59862163 0.14650641 0)
(0.55406297 0.16671636 0)
(0.51010086 0.17851133 0)
(0.46802042 0.18393698 0)
(0.42846182 0.18460311 0)
(0.3916932 0.18183557 0)
(0.35773995 0.17667387 0)
(0.32649053 0.16990297 0)
(0.29776115 0.16210761 0)
(0.2713389 0.15371899 0)
(0.24701251 0.14505419 0)
(0.22458152 0.13634036 0)
(0.20386918 0.12773357 0)
(0.18471642 0.11933849 0)
(0.16698209 0.11121661 0)
(0.15057488 0.10342196 0)
(0.13539606 0.095969664 0)
(0.12134406 0.088864007 0)
(0.10835157 0.082111341 0)
(0.096360831 0.075713829 0)
(0.085311446 0.069657454 0)
(0.075157175 0.063945834 0)
(0.06584668 0.058559979 0)
(0.057333466 0.053491583 0)
(0.049578183 0.048738949 0)
(0.04253172 0.044294195 0)
(0.036151838 0.040155419 0)
(0.03040415 0.036324625 0)
(0.02524254 0.032798059 0)
(0.020625808 0.029567279 0)
(0.016513922 0.026641172 0)
(0.012836297 0.024017637 0)
(0.0095662251 0.021695129 0)
(0.0067235191 0.019664516 0)
(0.0039778071 0.017935992 0)
(0.0024512489 0.016576862 0)
(-0.0010674878 0.0151052 0)
(-0.0048193744 0.050255095 0)
(-0.01561587 0.050401419 0)
(-0.021807815 0.050571342 0)
(-0.029642284 0.050786778 0)
(-0.037212086 0.051022511 0)
(-0.044901116 0.051272388 0)
(-0.052646604 0.051527786 0)
(-0.060430934 0.051771998 0)
(-0.068268323 0.051994837 0)
(-0.076155189 0.052181972 0)
(-0.084081853 0.052321082 0)
(-0.092039164 0.05239911 0)
(-0.10001757 0.052404912 0)
(-0.10800014 0.052334469 0)
(-0.11597357 0.052173896 0)
(-0.12392391 0.051917361 0)
(-0.13183492 0.051563271 0)
(-0.13969063 0.05110686 0)
(-0.14747403 0.050543638 0)
(-0.15517482 0.049873143 0)
(-0.16278099 0.049092747 0)
(-0.1702828 0.048199577 0)
(-0.17767195 0.047191018 0)
(-0.18494242 0.046057535 0)
(-0.19210207 0.044780681 0)
(-0.19914673 0.043335025 0)
(-0.20606719 0.041684117 0)
(-0.21286438 0.039780005 0)
(-0.21952005 0.037549211 0)
(-0.22601752 0.034908823 0)
(-0.23233 0.031753521 0)
(-0.23838927 0.027949447 0)
(-0.24411809 0.023363846 0)
(-0.24939148 0.017826048 0)
(-0.25403765 0.011166856 0)
(-0.25784663 0.0032311174 0)
(-0.26053479 -0.0061317855 0)
(-0.26179844 -0.017078098 0)
(-0.26129439 -0.029683163 0)
(-0.25865817 -0.043949562 0)
(-0.25356889 -0.059844011 0)
(-0.24578112 -0.077322488 0)
(-0.2351045 -0.096335358 0)
(-0.22141905 -0.11687022 0)
(-0.20469509 -0.13900397 0)
(-0.18495334 -0.16301164 0)
(-0.16201198 -0.18954331 0)
(-0.1353831 -0.21959145 0)
(-0.10574745 -0.25374998 0)
(-0.075916433 -0.29127873 0)
(-0.037876482 -0.33226984 0)
(0.028232171 -0.36567469 0)
(0.16141089 -0.44172752 0)
(0.34197524 -0.51667049 0)
(0.52906425 -0.54662448 0)
(0.69790329 -0.50851757 0)
(0.8133591 -0.38233157 0)
(0.86474875 -0.26257501 0)
(0.86124482 -0.15160426 0)
(0.82148311 -0.055190594 0)
(0.77485868 0.033609747 0)
(0.73040969 0.10684562 0)
(0.68072084 0.16025113 0)
(0.62565502 0.19497491 0)
(0.57034836 0.2150937 0)
(0.51814425 0.22478543 0)
(0.47002507 0.22718637 0)
(0.42614773 0.22453222 0)
(0.38639106 0.21846021 0)
(0.3504526 0.2101639 0)
(0.3179593 0.20050434 0)
(0.28852015 0.19009212 0)
(0.261763 0.1793531 0)
(0.23736265 0.16858372 0)
(0.21503713 0.15798234 0)
(0.19454973 0.14767771 0)
(0.17569375 0.13774008 0)
(0.15830961 0.12821587 0)
(0.14228633 0.11913043 0)
(0.12749327 0.11047915 0)
(0.1138275 0.10225623 0)
(0.10122499 0.094462455 0)
(0.089614995 0.087082029 0)
(0.078938933 0.080103906 0)
(0.069147397 0.073516213 0)
(0.060184316 0.067303382 0)
(0.052014868 0.061451525 0)
(0.044600477 0.055961987 0)
(0.037888002 0.05082534 0)
(0.031844372 0.046040737 0)
(0.02642606 0.041599535 0)
(0.021586494 0.037502768 0)
(0.017293338 0.033748908 0)
(0.013504331 0.030335913 0)
(0.010153182 0.027269695 0)
(0.0072132346 0.024553038 0)
(0.0046787623 0.02218314 0)
(0.0022866389 0.020141498 0)
(0.00093493072 0.018572869 0)
(-0.001977159 0.016672518 0)
(-0.0046932441 0.057711091 0)
(-0.015463304 0.057897688 0)
(-0.021591577 0.058103098 0)
(-0.029390675 0.058366722 0)
(-0.036943648 0.058661895 0)
(-0.044621231 0.058969815 0)
(-0.052368232 0.059284325 0)
(-0.060168138 0.059589657 0)
(-0.068035307 0.059869599 0)
(-0.07596727 0.060107888 0)
(-0.083950136 0.060286297 0)
(-0.091975264 0.060393836 0)
(-0.1000315 0.060418449 0)
(-0.1081026 0.060350766 0)
(-0.11617291 0.060177647 0)
(-0.12422149 0.059893146 0)
(-0.13223498 0.059492568 0)
(-0.14019831 0.058974866 0)
(-0.148091 0.05833572 0)
(-0.15590191 0.05757799 0)
(-0.16361882 0.056702505 0)
(-0.17123203 0.0557076 0)
(-0.17873979 0.054592179 0)
(-0.18614574 0.053350998 0)
(-0.19345961 0.051966903 0)
(-0.20068606 0.050422154 0)
(-0.20783597 0.048680932 0)
(-0.21493115 0.046683855 0)
(-0.22196608 0.044350034 0)
(-0.22893913 0.041583431 0)
(-0.23585514 0.038265897 0)
(-0.24266251 0.034245177 0)
(-0.24930126 0.029342386 0)
(-0.25567322 0.023359968 0)
(-0.26160619 0.016064203 0)
(-0.26688705 0.007235028 0)
(-0.271243 -0.0033374044 0)
(-0.27429671 -0.01585266 0)
(-0.27559406 -0.030409339 0)
(-0.27472474 -0.046971719 0)
(-0.2713573 -0.065435006 0)
(-0.26522162 -0.085686572 0)
(-0.25613464 -0.10761593 0)
(-0.24404326 -0.13112155 0)
(-0.22905985 -0.15614829 0)
(-0.21138147 -0.1829642 0)
(-0.19108809 -0.21248013 0)
(-0.16927701 -0.24506225 0)
(-0.15192944 -0.27751384 0)
(-0.14214748 -0.31345363 0)
(-0.084620031 -0.38728545 0)
(0.098376454 -0.50471479 0)
(0.36846518 -0.64528735 0)
(0.63320828 -0.72822683 0)
(0.85336977 -0.73458816 0)
(1.0299554 -0.66297456 0)
(1.16131 -0.48317181 0)
(1.2338456 -0.28923969 0)
(1.1989448 -0.073829454 0)
(1.0669129 0.042383121 0)
(0.91892106 0.10503523 0)
(0.80582303 0.16631385 0)
(0.72249941 0.2214082 0)
(0.65064989 0.25666769 0)
(0.58397089 0.27359793 0)
(0.52279657 0.27844471 0)
(0.4681003 0.27561414 0)
(0.41986713 0.26794089 0)
(0.37738205 0.25731606 0)
(0.3398108 0.24497692 0)
(0.3064357 0.23177677 0)
(0.27662827 0.21829106 0)
(0.24984602 0.20489003 0)
(0.22564374 0.19181067 0)
(0.20365726 0.17919278 0)
(0.18359118 0.16711288 0)
(0.16519868 0.1555943 0)
(0.14830767 0.14465591 0)
(0.13277903 0.13428024 0)
(0.11846521 0.12444392 0)
(0.10526971 0.11512843 0)
(0.09312314 0.1063183 0)
(0.081952264 0.097982927 0)
(0.071702544 0.090106632 0)
(0.062318436 0.082666899 0)
(0.053749845 0.07564982 0)
(0.045968266 0.069041878 0)
(0.038934375 0.062832832 0)
(0.032594579 0.057018775 0)
(0.026915532 0.051590384 0)
(0.021860624 0.046543414 0)
(0.017390219 0.041881099 0)
(0.013461032 0.037602654 0)
(0.010037068 0.033711004 0)
(0.0070590077 0.030212195 0)
(0.0044935895 0.027101867 0)
(0.0023139324 0.02438871 0)
(0.00035679112 0.022025475 0)
(-0.00089681934 0.020318131 0)
(-0.0031363337 0.018011945 0)
(-0.0045399217 0.06511533 0)
(-0.015271871 0.065350717 0)
(-0.021328198 0.06560289 0)
(-0.029081155 0.065928665 0)
(-0.036609337 0.066290937 0)
(-0.044275006 0.066672712 0)
(-0.052021768 0.067062772 0)
(-0.059839507 0.067444242 0)
(-0.067740482 0.067793815 0)
(-0.075724347 0.068096097 0)
(-0.083775529 0.068330557 0)
(-0.091880501 0.068480339 0)
(-0.10002786 0.068532522 0)
(-0.10820106 0.068474294 0)
(-0.11638264 0.06829536 0)
(-0.12455125 0.067987674 0)
(-0.13268635 0.067543413 0)
(-0.14077131 0.066964284 0)
(-0.14878444 0.066248946 0)
(-0.15671117 0.065402851 0)
(-0.1645441 0.064429844 0)
(-0.17227567 0.063333563 0)
(-0.17990221 0.062120109 0)
(-0.18743459 0.060788304 0)
(-0.19489235 0.059328682 0)
(-0.20229052 0.057723973 0)
(-0.20966061 0.055939295 0)
(-0.2170457 0.053918093 0)
(-0.22446059 0.051575995 0)
(-0.23192592 0.048803407 0)
(-0.23947349 0.045474473 0)
(-0.2470953 0.041411453 0)
(-0.25475659 0.036384746 0)
(-0.2623881 0.030160291 0)
(-0.26984935 0.022434223 0)
(-0.27691635 0.012889174 0)
(-0.28327234 0.0012404654 0)
(-0.28847243 -0.012754546 0)
(-0.29196587 -0.029260495 0)
(-0.29319821 -0.048192871 0)
(-0.29177705 -0.06930151 0)
(-0.28744134 -0.092373831 0)
(-0.28001175 -0.11728251 0)
(-0.26939535 -0.14380057 0)
(-0.25566106 -0.17158812 0)
(-0.23929161 -0.20073053 0)
(-0.22172839 -0.23132362 0)
(-0.20743839 -0.25947905 0)
(-0.20535531 -0.28428458 0)
(-0.18456787 -0.35607327 0)
(0.0069560594 -0.57155765 0)
(0.32332555 -0.82174454 0)
(0.64650624 -0.96789313 0)
(0.94380269 -1.0195782 0)
(1.2016556 -0.97811097 0)
(1.4042254 -0.83468702 0)
(1.518834 -0.57571647 0)
(1.5461963 -0.3169202 0)
(1.5142519 -0.000214528 0)
(1.3898367 0.22352975 0)
(1.1764161 0.29311801 0)
(0.9558977 0.31143731 0)
(0.78527872 0.32176885 0)
(0.67073278 0.33445342 0)
(0.58891042 0.34235834 0)
(0.5205098 0.34008897 0)
(0.46027912 0.3296201 0)
(0.40821313 0.31483509 0)
(0.36358046 0.29818883 0)
(0.32501385 0.28084976 0)
(0.29136075 0.26349153 0)
(0.26170958 0.24653344 0)
(0.235341 0.23021714 0)
(0.21169811 0.21467326 0)
(0.19034424 0.19995182 0)
(0.17093391 0.18605306 0)
(0.15319909 0.17294445 0)
(0.13695746 0.16059321 0)
(0.122042 0.14893752 0)
(0.10830761 0.13793699 0)
(0.095665966 0.12755059 0)
(0.08404481 0.11774151 0)
(0.073371869 0.10847243 0)
(0.063596592 0.099711649 0)
(0.054666191 0.091433452 0)
(0.046538397 0.08362106 0)
(0.039184985 0.076261888 0)
(0.03256634 0.069335031 0)
(0.026634226 0.062840769 0)
(0.021360629 0.056768184 0)
(0.016712031 0.051121475 0)
(0.012644198 0.045895007 0)
(0.0091247943 0.041093536 0)
(0.0061139744 0.036721867 0)
(0.0035466737 0.032784244 0)
(0.0014009754 0.029281047 0)
(-0.00039869489 0.02622812 0)
(-0.0017998432 0.023572738 0)
(-0.0029384205 0.021642326 0)
(-0.0044954047 0.019108311 0)
(-0.0043505352 0.072435996 0)
(-0.015033386 0.072730307 0)
(-0.021001432 0.073038812 0)
(-0.028699161 0.073449043 0)
(-0.036198277 0.073886436 0)
(-0.043843504 0.074362454 0)
(-0.051589351 0.0748479 0)
(-0.059428987 0.075322313 0)
(-0.067371607 0.075760548 0)
(-0.075413256 0.076141607 0)
(-0.083541986 0.076447948 0)
(-0.091742203 0.07665447 0)
(-0.099999115 0.076746826 0)
(-0.10829322 0.076709152 0)
(-0.1166035 0.076530051 0)
(-0.12490735 0.076203214 0)
(-0.13318188 0.075720223 0)
(-0.14140567 0.075080052 0)
(-0.14955371 0.074288 0)
(-0.15761003 0.073347926 0)
(-0.16556531 0.072270437 0)
(-0.17340812 0.071069174 0)
(-0.18114139 0.069760336 0)
(-0.18878417 0.068347234 0)
(-0.19636288 0.066831011 0)
(-0.20390837 0.065206783 0)
(-0.21146954 0.063439747 0)
(-0.21911368 0.061478513 0)
(-0.22688542 0.059238427 0)
(-0.23482503 0.05660234 0)
(-0.24300732 0.053432677 0)
(-0.25148544 0.049533279 0)
(-0.26024973 0.044641969 0)
(-0.26927647 0.038451656 0)
(-0.27848537 0.030602972 0)
(-0.28766537 0.020661834 0)
(-0.29646076 0.0081765966 0)
(-0.30432398 -0.0072453089 0)
(-0.3104947 -0.025797762 0)
(-0.31418102 -0.047266241 0)
(-0.31489065 -0.071201935 0)
(-0.31245867 -0.097287438 0)
(-0.30673727 -0.12542923 0)
(-0.29726686 -0.15530167 0)
(-0.2839016 -0.18611575 0)
(-0.26866611 -0.21668446 0)
(-0.25608696 -0.24320208 0)
(-0.25180072 -0.2610726 0)
(-0.24318832 -0.3074368 0)
(-0.11038646 -0.51346941 0)
(0.2538107 -0.91373459 0)
(0.55347338 -1.177633 0)
(0.82021203 -1.2941241 0)
(1.0678266 -1.2917654 0)
(1.2858065 -1.2056234 0)
(1.4700059 -0.99874782 0)
(1.6124942 -0.66339207 0)
(1.6721968 -0.30396399 0)
(1.6247533 0.07977692 0)
(1.5388505 0.36497553 0)
(1.3922067 0.49993155 0)
(1.1405609 0.55195104 0)
(0.87394578 0.51208777 0)
(0.68980824 0.4542502 0)
(0.58013664 0.42324381 0)
(0.50487052 0.40615556 0)
(0.44284831 0.38692806 0)
(0.38935166 0.36404619 0)
(0.34386445 0.34021448 0)
(0.3053146 0.31700683 0)
(0.27226438 0.29497912 0)
(0.24347769 0.27426279 0)
(0.21807764 0.25487808 0)
(0.1954307 0.23680165 0)
(0.17505065 0.21996177 0)
(0.15656382 0.20425879 0)
(0.13970081 0.18959236 0)
(0.12426767 0.17585901 0)
(0.11008972 0.16295973 0)
(0.097038409 0.1508351 0)
(0.085033057 0.13941541 0)
(0.074005491 0.12863829 0)
(0.063886445 0.11846027 0)
(0.054631009 0.10883717 0)
(0.046198239 0.099739336 0)
(0.038553361 0.091146049 0)
(0.031664066 0.083039254 0)
(0.0254961 0.075400597 0)
(0.020012954 0.068227258 0)
(0.015184092 0.06151763 0)
(0.010978643 0.055266284 0)
(0.0073567086 0.049472091 0)
(0.0042871041 0.044146711 0)
(0.0017273107 0.039287508 0)
(-0.00037952559 0.034908186 0)
(-0.0020531923 0.03101368 0)
(-0.0033936272 0.027614133 0)
(-0.0042491654 0.02472344 0)
(-0.0051878756 0.022458175 0)
(-0.0059426737 0.019831409 0)
(-0.0041207206 0.079661048 0)
(-0.014738691 0.080024823 0)
(-0.020595989 0.080405777 0)
(-0.028230568 0.080913102 0)
(-0.035693434 0.081452926 0)
(-0.043306419 0.08204123 0)
(-0.051053232 0.082643133 0)
(-0.058916846 0.083231741 0)
(-0.066907773 0.083783 0)
(-0.075017383 0.084264569 0)
(-0.083236127 0.084658162 0)
(-0.09154683 0.084938065 0)
(-0.099929678 0.085085642 0)
(-0.10836533 0.085081891 0)
(-0.11682605 0.084912319 0)
(-0.12528662 0.084568322 0)
(-0.13372245 0.084045271 0)
(-0.1421038 0.083342585 0)
(-0.1504039 0.082464537 0)
(-0.15860246 0.081421242 0)
(-0.16668299 0.080232337 0)
(-0.17463245 0.078920527 0)
(-0.18245821 0.077503322 0)
(-0.19018596 0.076006479 0)
(-0.19784377 0.074451302 0)
(-0.20548414 0.072838105 0)
(-0.21318334 0.071143784 0)
(-0.22102994 0.069330305 0)
(-0.22910039 0.067307922 0)
(-0.23746742 0.064954733 0)
(-0.24624756 0.062129369 0)
(-0.25555898 0.058641672 0)
(-0.26547191 0.054194948 0)
(-0.27600991 0.048407792 0)
(-0.28716381 0.040849149 0)
(-0.29882198 0.030911818 0)
(-0.31063968 0.017890744 0)
(-0.32188046 0.0011653439 0)
(-0.3313478 -0.019542539 0)
(-0.33783023 -0.043954103 0)
(-0.34080854 -0.071177724 0)
(-0.34052576 -0.10045222 0)
(-0.33675354 -0.13197093 0)
(-0.3281289 -0.16589955 0)
(-0.31534265 -0.200157 0)
(-0.30394976 -0.22867974 0)
(-0.30062371 -0.24416759 0)
(-0.30075994 -0.26793198 0)
(-0.23624808 -0.41759813 0)
(0.077912583 -0.85201962 0)
(0.42861426 -1.2150962 0)
(0.63672281 -1.4106005 0)
(0.79216273 -1.4975949 0)
(0.9720173 -1.4877836 0)
(1.1761459 -1.3908792 0)
(1.3658962 -1.1508163 0)
(1.5145311 -0.77456859 0)
(1.6092101 -0.32960886 0)
(1.6401285 0.11982963 0)
(1.5827618 0.46777582 0)
(1.4303168 0.6996623 0)
(1.1995299 0.80313184 0)
(0.94082417 0.75381871 0)
(0.7140704 0.62883168 0)
(0.56541734 0.52908741 0)
(0.47672203 0.47646722 0)
(0.41382002 0.4440069 0)
(0.36165726 0.41333576 0)
(0.3173447 0.38201817 0)
(0.28020295 0.35235079 0)
(0.2488536 0.32533088 0)
(0.22178584 0.30075117 0)
(0.19800649 0.27830088 0)
(0.17685081 0.2577471 0)
(0.15781846 0.23886862 0)
(0.14053965 0.2214494 0)
(0.12476341 0.20530972 0)
(0.11029359 0.1902713 0)
(0.096980173 0.17620761 0)
(0.084714418 0.16302324 0)
(0.073419661 0.1506243 0)
(0.063043689 0.13892715 0)
(0.053529056 0.12787659 0)
(0.044837961 0.1174232 0)
(0.036942265 0.10753203 0)
(0.029813416 0.098175852 0)
(0.02341932 0.089334999 0)
(0.017734937 0.08099703 0)
(0.012735736 0.073155856 0)
(0.0083873327 0.065807057 0)
(0.0046579183 0.058948591 0)
(0.0015214204 0.052579382 0)
(-0.0010576531 0.046723094 0)
(-0.003122528 0.041374843 0)
(-0.0047208625 0.036550034 0)
(-0.0058813223 0.032257614 0)
(-0.0066781623 0.028503857 0)
(-0.006980392 0.025353007 0)
(-0.0076123896 0.022790394 0)
(-0.0074695461 0.020070715 0)
(-0.0038421462 0.086766357 0)
(-0.014372228 0.087216492 0)
(-0.020099135 0.087690058 0)
(-0.027650478 0.088310217 0)
(-0.035067576 0.088985541 0)
(-0.042645572 0.089708443 0)
(-0.050389969 0.090452229 0)
(-0.058277767 0.091181288 0)
(-0.066323393 0.09186807 0)
(-0.074516382 0.092474726 0)
(-0.08283935 0.092978186 0)
(-0.091276661 0.093351317 0)
(-0.099807131 0.093568544 0)
(-0.10840776 0.093610235 0)
(-0.11704684 0.093459335 0)
(-0.12569124 0.093104517 0)
(-0.13431039 0.092541005 0)
(-0.1428738 0.091768079 0)
(-0.1513465 0.090791902 0)
(-0.15969758 0.089632042 0)
(-0.16790508 0.088312406 0)
(-0.1759603 0.086865935 0)
(-0.1838631 0.085324821 0)
(-0.1916294 0.083733344 0)
(-0.19931064 0.082136803 0)
(-0.20698305 0.080551094 0)
(-0.21473251 0.078978239 0)
(-0.22268815 0.077395592 0)
(-0.23097225 0.075711856 0)
(-0.23967802 0.073787264 0)
(-0.24895526 0.071516353 0)
(-0.25901593 0.068744691 0)
(-0.27004018 0.065115984 0)
(-0.28212392 0.06018505 0)
(-0.29541586 0.053444274 0)
(-0.31000438 0.044133711 0)
(-0.32558065 0.031283648 0)
(-0.34111993 0.013664512 0)
(-0.35479442 -0.009780745 0)
(-0.3647446 -0.038351497 0)
(-0.37050968 -0.069168222 0)
(-0.37283363 -0.10085517 0)
(-0.37086347 -0.13588629 0)
(-0.36346878 -0.17574556 0)
(-0.35408618 -0.21214146 0)
(-0.34930138 -0.23210066 0)
(-0.35211908 -0.23997087 0)
(-0.33286362 -0.31909154 0)
(-0.16550984 -0.65396097 0)
(0.18391432 -1.2396012 0)
(0.3873515 -1.4191521 0)
(0.5219894 -1.5430342 0)
(0.637548 -1.6403817 0)
(0.80547304 -1.6792661 0)
(1.0068053 -1.5987544 0)
(1.1971895 -1.330778 0)
(1.3400625 -0.9030077 0)
(1.418395 -0.39671153 0)
(1.4437163 0.11646822 0)