/*--------------------------------*- C++ -*----------------------------------*\
  =========                 |
  \\      /  F ield         | OpenFOAM: The Open Source CFD Toolbox
   \\    /   O peration     | Website:  https://openfoam.org
    \\  /    A nd           | Version:  9
     \\/     M anipulation  |
\*---------------------------------------------------------------------------*/
FoamFile
{
    format      ascii;
    class       volScalarField;
    location    "49";
    object      p;
}
// * * * * * * * * * * * * * * * * * * * * * * * * * * * * * * * * * * * * * //

dimensions      [0 2 -2 0 0 0 0];

internalField   nonuniform List<scalar> 
918
(
0.56804532
1.7215362
0.011433768
0.55899407
-0.0096079428
1.6922105
-0.94722024
1.2006003
0.60054602
-0.23739462
-0.065989635
0.68010063
1.5635762
1.3217563
-0.66797139
-0.032499309
1.0260044
-0.71817052
0.62105261
-0.079612641
1.2724404
0.53951329
0.56532753
0.53857029
0.78466907
1.2783655
1.4267851
0.0077227774
0.002879797
-0.010869286
-0.0068877449
-0.056769123
-0.040484916
1.5684882
1.6225081
1.6461913
0.54332839
0.60445374
-0.76084368
-0.84508621
-0.82573897
-0.9927357
1.1873557
1.1787639
-0.48977268
1.2114259
1.2209092
0.54960177
0.59885346
0.61309835
0.53631746
0.57240011
0.58574539
0.4703367
-0.25707029
-0.30977495
-0.20574072
-0.17865148
0.042415352
-0.067718307
-0.074538536
-0.053040078
-0.047502377
0.50000381
0.67069676
0.65803564
0.68765296
0.70234333
1.6586315
1.6220788
1.6490546
1.5958715
1.586179
1.5434065
1.5065427
1.3610907
1.3687191
1.3185644
1.280966
-1.1766843
-2.1814903
-0.11292002
0.17838641
-0.0057069679
-0.018796981
-0.006166969
1.0108277
0.99331054
1.0553919
1.0827693
1.3083208
-0.69224811
-0.88980707
0.62414288
0.62187033
0.60032296
0.58260305
0.6287434
0.67459649
-0.056140334
-0.053077618
-0.094774316
-0.073103457
-0.080711592
1.2415549
1.2492727
0.55384284
0.55905877
0.71323257
0.74255341
0.73343391
0.27422398
0.76364718
0.77816066
1.1072357
1.2874262
1.2900177
1.2756685
1.4131701
1.3688133
1.4733698
1.4988971
0.029556184
0.0017880117
-0.017011009
-0.033178451
-0.016018553
0.5494891
0.54166554
0.63087091
0.54725171
0.55550034
0.55243566
0.41731557
0.69203221
0.70200302
-0.64546552
-0.70562628
-0.81486604
-0.85992253
-0.98202413
0.97462015
1.1629242
1.1464363
-0.53059306
-0.42410674
-0.5883008
-0.33912291
-0.3880044
0.55441795
0.56067621
0.55561911
0.55354949
0.55378672
0.5557708
0.59530754
0.59105806
0.60844903
0.54498603
0.68568285
0.41534371
0.35568813
-0.50006835
-0.34038338
-0.47051209
-0.15991239
-0.13625052
0.070517189
0.11821831
0.049316957
0.046417061
-0.12114686
-0.089751354
-0.10052032
-0.046034091
-0.04405146
0.48644237
0.47309513
0.51142005
0.52110624
0.64904598
0.64778846
0.65706741
0.65530895
1.4325231
1.4561813
1.5008527
1.4637533
-3.5113726
-6.1055471
0.48998992
0.6614818
-0.01085153
-0.0089380164
0.0041977651
-0.0022458303
0.0010931803
-0.0093381158
0.0068081342
0.0004772449
-0.0047144511
0.0017789364
0.96276612
0.95281203
1.261117
1.303551
1.1698282
1.1564349
0.62993417
0.62710519
0.63283548
0.62429859
-0.044448362
-0.047154942
-0.044248363
1.2282072
1.2409028
1.2368187
0.18334926
0.086101621
0.32455185
0.37390276
0.90354413
0.83278905
0.87157399
1.1795471
1.2116688
1.4882789
1.5003009
1.5382443
1.5349838
1.5832586
1.57556
1.5340416
0.52517494
0.53840998
0.53622184
0.62725697
0.63210401
0.63134854
0.64174708
0.64173812
0.638288
0.25903924
-0.065818084
0.77802705
0.7658298
0.74446455
0.73938805
1.0475059
1.1372091
1.0966695
1.1307029
1.1156056
-0.24017228
-0.26396261
0.28657682
0.2564598
0.40471533
0.45172275
0.43342657
1.4065767
1.4066656
1.45325
1.415417
1.3567569
1.3796659
-0.091265075
-1.2204776
-0.62095686
1.0438616
0.83444271
0.9334325
0.008952751
0.007788528
-0.015213465
1.2819418
1.3455777
0.74830264
1.0047025
1.0011833
1.2553956
1.2772664
1.3502536
1.2777562
1.3030004
1.3254859
1.3082448
0.91805872
0.81930117
0.84786455
1.1761694
1.2230457
-0.0031975251
-0.12729748
-0.13233068
0.1304788
0.18931706
0.15280433
1.3107018
1.2610257
1.3277922
0.56575582
0.55884519
-0.0014561371
-0.00092369408
0.62135607
0.59904958
-0.02659072
-0.0096104903
0.91010106
-0.41150105
0.012736792
0.63579657
0.57452532
0.59260093
-0.22654631
0.43449056
-0.059035426
0.040670624
-0.018789001
0.66775811
0.52601029
0.46569858
-0.0096129007
-0.038647881
-0.052950393
-0.42697504
0.57416398
0.55186881
0.57881539
0.55712732
0.59344844
-0.025050679
-0.019207613
-0.0080050837
-0.057000776
-0.049493501
-0.06414248
0.55607821
0.64343305
-0.35703959
0.60122914
0.59457499
0.60768298
0.58308895
0.63745478
0.59415033
-0.016156932
-0.015705064
-0.010706163
0.20044314
0.38214581
1.2077144
1.3340408
1.2396536
0.86661408
0.55092512
1.0759914
1.1655237
1.0417319
1.2010952
1.1724872
1.2155209
0.13323055
-0.11758969
0.13994493
0.0092009221
0.62781311
0.63308252
0.56909478
0.56096603
0.60237087
0.57734526
0.60597555
0.61632311
0.61507727
0.62853613
-0.15624158
-0.18699284
-0.21102984
-0.32304041
0.45156854
0.7270605
0.34447027
0.37779592
0.1694174
-0.058612359
-0.049166878
-0.065332177
-0.078920256
-0.0012263762
-0.046140094
0.057566872
0.05938914
0.032189448
-0.011540676
-0.021893661
-0.046514871
-0.0092602312
0.61799413
0.63505302
0.66641324
0.68393256
0.52575804
0.52452577
0.47970178
0.52372669
0.49314262
0.39247076
0.46806708
0.4213807
-0.013993328
-0.013760561
-0.015671585
-0.026127277
-0.010599878
-0.023074717
-0.027650546
-0.023172607
-0.026752514
-0.034533827
-0.052945555
-0.052067568
-0.36144883
-0.5497475
1.220753
1.0571989
0.28715625
0.54814979
0.54998449
0.53421938
0.58776562
0.57445589
0.57277878
0.57191233
0.56870923
0.59760728
0.60704669
0.63811285
0.64585113
-0.24059815
-0.49705148
-0.23178486
-0.35909237
0.47796389
0.92551579
0.39062687
0.27679267
0.28425669
0.74461901
1.462961
1.3041059
1.2666287
1.2325931
-0.072513507
0.3685683
0.10370403
0.75960875
1.0019221
1.1839355
1.2365687
1.2394264
1.2102171
1.1535178
0.072501282
1.0738323
-0.24142743
-0.16545786
0.26069426
-0.030197238
1.1931635
1.134634
1.1226409
1.2037775
1.2305394
1.1700568
1.1486783
1.1529611
1.183911
1.1806134
0.91233889
0.25725367
0.14425219
0.096114411
1.0588582
0.96181147
1.0451225
0.81945937
0.61758909
0.63672519
0.62179205
0.53192021
0.56092745
0.5333525
0.596113
0.63520919
0.62004417
0.59866267
0.6143009
0.58789051
-0.13872561
-0.14575078
-0.082506553
-0.2841142
-0.27816516
-0.40710272
-0.14428362
0.090059695
0.047910952
0.30360707
0.46524738
0.040475028
-0.14828422
-0.094918854
0.004042408
0.22030825
0.26321922
0.10082096
0.17063499
0.15713141
0.12779107
0.27743848
0.28201257
-0.027146874
-0.020818699
-0.057228468
-0.045866581
0.02958614
0.13508647
0.13641148
-0.0022004595
-0.022481387
-0.047013215
-0.041881485
-0.0056182321
-0.051282974
-0.021443413
-0.012069825
-0.028885317
0.0019444366
-0.0023497666
-0.01075055
0.0059273231
-0.0024538341
0.65562893
0.64095282
0.64315385
0.70705395
0.69098946
0.71330614
0.70331835
0.553875
0.54078815
0.54542466
0.5366048
0.52655428
0.53680316
0.56771207
0.63160172
0.65300386
0.62507726
0.60594095
0.61631838
0.58249588
0.56658926
0.57267195
0.55634333
0.49010897
0.48945215
-0.030593995
-0.0070736282
0.0077040507
-0.066139612
-0.0034701121
-0.023214036
-0.0095908475
0.026472009
-0.019345452
0.0036849909
-0.0068864195
-0.022404776
-0.016461693
-0.14453588
0.022888328
-0.40919199
-0.44376139
-0.57354585
1.1178406
1.2784222
1.000012
0.73559643
0.77485378
1.0528503
1.1872425
0.68132757
0.81928415
0.93243394
0.93642751
1.1633259
0.57863238
0.56737081
0.57866899
0.55315358
0.58920008
-4.6077802e-06
0.25334325
0.11736471
0.34377059
0.59711618
0.64064415
0.46687194
0.41279787
0.55925647
0.45242247
0.94306948
0.97602727
0.82287341
0.87860929
0.83682385
0.56091821
0.79331417
0.92992545
0.80804381
0.83464619
0.87775447
0.84265531
0.89778911
0.78838837
0.678916
0.71626848
0.4936295
0.57780902
0.52549826
0.46436463
0.64453336
0.60151857
0.65081846
0.61525127
0.67410173
0.74939535
0.7337326
0.72821525
0.75886421
0.64684054
0.57666754
0.59356719
0.66476447
0.54645163
0.57351753
0.61412183
0.49795079
0.50550892
0.37838639
0.29090397
0.33785131
0.19673879
0.16551129
0.21961929
0.52671348
-0.084131325
-0.087065252
-0.45212184
0.96411456
1.467163
1.0688384
1.0388557
1.2301922
1.2050365
1.1972431
1.2392417
1.2374704
1.0679344
1.1090538
1.0973548
1.0880089
1.1312787
1.1943448
1.1761346
1.0075575
0.67010809
0.64882378
0.56118867
0.24377701
0.35782397
0.76799346
0.6061324
0.43271119
0.40002078
0.70455018
0.4362382
0.573213
0.73257428
0.54056026
0.43120642
0.90060963
1.0160404
1.007128
0.96014851
0.81543582
0.87816886
0.9597592
1.0253405
1.0570533
1.1284897
0.56243832
0.58732996
0.57735309
0.55416312
0.58382754
0.60527204
0.60828859
0.60065322
0.60454214
0.61468268
0.62582431
-0.082651756
-0.069243497
-0.11277007
-0.10775508
-0.055105332
-0.083787469
0.0086958161
-0.024594655
-0.04575522
-0.0410356
-0.071590855
-0.094511106
-0.088989196
-0.062943623
0.14584941
0.1979119
0.13959864
0.11538843
0.35948669
0.47656983
0.53287676
0.46185681
0.27489143
0.30016564
0.36656865
0.016827764
0.035044682
0.042767865
0.071440885
0.069650473
-0.054257141
-0.056980755
-0.044864763
-0.050478191
-0.024945054
-0.039406189
-0.04545109
-0.036385564
-0.034757462
-0.039258196
-0.046594414
0.54866244
0.55370431
0.59595585
0.55103276
0.55318032
0.60587282
0.58850287
0.60850865
0.62132649
0.64193259
0.60739333
0.63348478
0.63555197
-0.025213817
-0.029985433
-0.046922185
-0.037835238
-0.030572227
-0.025870286
-0.033752504
0.30488328
0.1571595
0.20013485
0.048214591
-0.22285586
-0.11024259
0.67921591
0.8147962
0.8081267
1.032266
0.815206
0.77239625
0.92229809
1.0451939
0.46170371
0.69252103
0.51205484
1.1459312
1.0617679
1.228195
0.78179776
0.50349912
0.74762297
0.8293886
0.5429395
0.6497289
0.56390138
0.36671291
0.43400378
0.51744195
0.69487583
0.49520641
0.55868286
0.48162073
0.49848819
0.55068036
0.57164215
0.65258768
0.70748183
0.41935319
0.39324846
0.3223262
0.95777589
0.97934816
1.0031997
1.0158416
1.021489
0.78014046
0.77985155
0.81929866
0.79282412
0.75866547
-0.26962631
-0.35175727
-0.72577537
-0.21304878
0.41323337
1.0166299
0.90937692
1.3918813
1.1335652
1.2703578
1.2100643
1.1782407
1.0986624
1.120837
1.1782231
0.56330423
0.76479399
0.75165136
0.6825066
0.46699394
0.36870494
1.0101891
0.98204354
1.0589922
1.089875
1.0222801
1.0957744
0.58552876
0.60354897
0.57824143
0.5896792
0.56541754
0.57917068
0.05643116
-0.0082448294
0.12352159
0.10299421
0.011211949
-0.023053342
-0.019339067
-0.017111288
-0.03746458
-0.030942308
-0.014009134
-0.016461754
0.35580266
0.2895672
0.068128867
0.18994768
-0.018765515
-0.13060517
-0.19814798
0.026105317
0.20606385
0.20279258
0.5908637
0.86718345
0.71805497
0.82480852
0.64860584
0.7590419
0.75490216
0.70614529
0.74490744
0.63665542
0.6513221
0.72837848
-0.071943277
0.24622707
1.4286669
1.3972112
1.017107
0.88665418
0.81893224
1.0730571
1.021533
0.85538639
0.95968079
1.068996
1.0477041
0.48073262
0.44467678
0.87323927
1.011032
0.58373577
0.45206022
0.42385919
0.60926403
0.66963416
)
;

boundaryField
{
    wall-4
    {
        type            zeroGradient;
    }
    velocity-inlet-5
    {
        type            zeroGradient;
    }
    velocity-inlet-6
    {
        type            zeroGradient;
    }
    pressure-outlet-7
    {
        type            fixedValue;
        value           uniform 0;
    }
    wall-8
    {
        type            zeroGradient;
    }
    frontAndBackPlanes
    {
        type            empty;
    }
}


// ************************************************************************* //
