/*--------------------------------*- C++ -*----------------------------------*\
  =========                 |
  \\      /  F ield         | OpenFOAM: The Open Source CFD Toolbox
   \\    /   O peration     | Website:  https://openfoam.org
    \\  /    A nd           | Version:  9
     \\/     M anipulation  |
\*---------------------------------------------------------------------------*/
FoamFile
{
    format      ascii;
    class       surfaceScalarField;
    location    "49";
    object      phi;
}
// * * * * * * * * * * * * * * * * * * * * * * * * * * * * * * * * * * * * * //

dimensions      [0 3 -1 0 0 0 0];

internalField   nonuniform List<scalar> 
1300
(
1.7582594
5.62643
-4.9711828
1.7582594
-8.4693033
5.6264299
-5.3611232
5.3611231
-0.45824302
0.45824302
3.7298798
3.6548095
-3.4324027
3.4324027
-3.3620599
3.3620599
-0.37367553
0.37367553
-5.2377244
5.2377244
-5.05785
5.05785
4.7086107
-4.7086107
-6.873595
6.873595
-0.19561178
0.19561178
-4.5883456
4.5883456
1.5073951
-1.5073951
-3.3654944
3.3654944
0.11387404
-0.11387404
-0.56696263
5.138437
1.1912967
1.1912967
-0.043911909
0.043911909
-4.8664532
4.8664532
6.2140702
-6.2140702
7.7365752
-7.7365752
-2.7653925
-3.3874248
1.9710633
-12.536488
-6.4982401
-6.4982401
-8.4382638
8.4382638
-2.8118339
2.814596
1.5317645
-1.5317645
-1.7190436
1.7190436
-5.3215342
-0.039588972
-5.3215342
5.3692384
-0.0081152965
5.3692384
-0.46352582
0.0052827788
-0.46352585
4.7797348
-4.7797348
0.42168541
0.036557584
0.4216854
1.3011678
-1.3011678
-3.7420302
7.47191
3.6426591
-3.0566958
8.1951327
-3.3902552
7.0450647
-6.5701713
6.5701713
-3.6734986
0.24109593
-3.6734986
3.3086756
0.12372703
3.3086756
-7.4753834
7.4753834
-3.3345122
-0.027547667
-3.3345122
3.3870268
-0.024966977
3.3870269
2.1301709
-2.1301709
-0.49597146
0.12229594
-0.49597146
0.23822014
0.13545539
0.23822015
0.35898151
5.2674484
-5.9854114
8.8000075
-5.2674485
0.029724061
5.2000953
0.037629092
5.2000953
-5.0939013
0.036051321
-5.0939014
5.0161051
0.041744859
5.0161051
4.7870782
-0.07846752
4.7870782
-4.8227659
0.11415515
-4.822766
-4.0258712
-4.5522788
-7.0511703
0.17757537
-7.0511703
-0.16534592
-0.03026589
-0.16534594
0.3241135
-0.12850175
0.32411348
-4.153588
4.153588
-5.0229824
0.43463687
-5.0229824
1.3724666
0.13492847
1.3724666
2.0086362
2.5628381
3.7668955
-3.7668954
2.2595003
-3.3620895
-0.0034048385
-3.3620895
-3.4291041
-4.3074711
3.4291041
-0.063609787
-0.27057204
0.38444611
-0.27057206
1.2556346
-0.064337882
1.2556346
0.12018316
0.11803699
-0.12018311
0.076271182
3.4008487
-3.4008487
-0.27730829
0.32122022
-0.2773083
-5.5691403
5.5691403
4.958833
0.05727214
-4.9588329
0.092379769
6.1532499
0.060820309
6.1532499
-6.1926344
-0.021435873
-6.1926344
3.4231229
-6.8105477
-3.5184528
6.6870745
0.18652053
-6.6870745
0.18883442
1.6514169
-0.11965237
1.6514169
-1.0051171
1.0051171
-1.4811374
-0.050627061
-1.4811374
-2.0484214
0.32937789
-2.0484215
1.456768
0.26227561
1.456768
-5.1625696
-0.15896457
-5.1625697
-5.2703932
0.2474108
5.2703933
0.098845149
1.4395739
-1.4395739
-0.42861991
-0.034905943
-0.42861993
-4.9527707
-0.20979895
4.9527708
-0.17303599
-4.6643098
-0.115425
-4.6643098
-1.3820188
-0.099118622
1.3820188
-0.080851024
1.2941873
-0.038552708
-1.2941873
-0.0069805209
-3.0480899
5.610928
-3.3988611
7.0415202
-6.1865786
-0.3835927
-6.1865786
6.9119901
-0.34181874
6.91199
4.1340783
0.45426728
-4.1340783
0.46057968
3.2747935
0.033882172
3.2747935
-7.44633
-0.029053361
-7.44633
7.4784003
-0.0030169729
7.4784003
3.2953711
-0.020577683
-3.2953711
-0.039141116
3.3893138
-0.0022869579
3.3893138
2.32787
-0.19769912
2.32787
-1.9481033
-0.18206759
-1.9481033
0.83064452
-0.83064452
0.71512402
0.1155205
-0.71512401
0.21915255
-11.148742
11.127306
-0.03575187
-11.11299
5.1643434
5.1643434
3.988601
0.79847712
3.9886011
-5.0255154
0.20274941
-5.0255154
3.4859272
-7.00438
3.8721568
-7.898028
5.0803405
-17.616829
4.7115897
-9.2638686
7.3162071
-7.3162071
7.1911091
0.12509808
-7.1911092
0.13993887
-0.088203803
-0.077142134
-0.08820381
-3.5411553
-0.61243267
-3.5411553
4.8111746
-0.65758655
4.8111746
-1.2575762
1.2575762
-1.2982394
0.040663172
1.2982394
0.074227235
3.3788571
0.01045671
-3.3788571
0.016767616
0.37445839
0.047227009
-0.3744584
0.10388634
3.8708035
-0.46995484
3.8708035
-2.916515
-0.48433368
-2.916515
0.090521597
-0.17872541
-0.090521574
-0.18678672
-5.8169715
0.24783117
-5.8169715
-11.21344
0.10044974
-11.175811
-6.0921846
-6.0921846
2.3460792
11.146087
-1.8003439
-0.1477594
1.8003439
-0.148927
1.1860162
0.071560004
-1.1860162
0.18089918
-0.9042293
0.073584777
0.9042293
0.10088776
-2.471365
0.42294356
-2.4713651
-1.2069899
1.2069899
-1.2789826
0.071992764
1.2789826
0.1777854
1.7598111
-0.32023724
1.7598111
0.39099184
-0.066878361
-0.39099178
-0.037628153
-4.4870509
-0.17725895
-4.4870509
7.1758118
-0.26382178
7.1758118
-2.6004961
-0.31601893
2.6004961
-0.27262616
-0.035146286
11.162452
-5.1291971
0.035295752
5.1291971
-11.223273
11.258568
-3.0461008
0.5747357
3.0461007
0.94250041
5.2967797
0.27236064
-5.2967797
0.27126438
7.4096854
0.068714876
-7.4096855
0.093478322
-3.0392888
-0.50186654
-3.0392888
-5.5514023
-0.63517635
5.5514023
-0.74022773
-11.475004
-0.19763888
11.672643
-11.433259
6.0146104
0.13863945
-6.0146104
11.397208
-1.2523458
-0.187228
1.2523458
-0.04535582
2.1128693
-0.35305816
2.1128693
4.2581024
-0.38729886
-4.2581023
-0.22894857
-7.335902
-0.11042797
7.3359021
-0.16009028
-2.5549996
-0.48428918
2.5549996
-0.44213031
-5.3454708
5.281133
2.8496619
-3.299242
-3.5113057
-7.6067131
2.531706
3.079222
4.7912065
-11.056364
-6.560465
-10.867529
7.2642507
-6.9929863
-9.4146754
9.3362077
11.061243
-11.176668
-7.2329145
7.3071417
8.7659311
-8.8467821
3.8134377
3.6584723
10.743956
-10.50286
-16.731943
16.348351
9.9883588
-10.015906
17.097634
-17.126688
-19.391742
19.460457
-6.9611579
7.0834539
-9.6744576
9.49239
-10.159193
9.8865665
-3.6236262
-4.2744017
14.295116
-14.117541
11.658814
-11.662219
-11.633916
12.068553
4.0564009
1.224732
4.0178482
-3.6031226
7.4165603
-3.4419421
6.2916039
3.6206469
-7.2442731
3.3837331
-6.8950389
5.9866084
5.6722055
-5.9229986
-1.6837145
-8.30843
8.1887776
-7.2361949
7.3370827
12.494107
-12.533696
-3.6189921
7.2774644
-3.422528
6.50175
-3.6601552
-3.5727593
3.5252267
1.2659797
8.798559
5.4965574
-8.9850796
-1.8824498
-11.704729
11.317431
-12.247152
11.762819
-0.43812544
5.7876259
-5.3495004
4.4283278
-1.4910573
7.2786832
5.7731935
5.9759429
5.8659162
-5.5935555
1.1270702
-6.4765705
-6.3841907
-2.3838394
2.3489334
2.2801698
-2.2436122
8.4097651
2.6514779
8.2367292
-8.0327142
-3.1439538
-8.2099732
4.3315944
2.9755473
4.3722576
5.2930369
3.4728942
5.1939182
5.8242025
-5.9824759
0.1582734
-5.4899589
11.314161
1.2949885
-9.0627182
-7.7967385
6.7484473
3.995509
6.8721743
-7.3844167
-3.1184436
-6.923837
-10.178942
-6.5530015
-10.814118
10.931326
5.4170249
10.589507
-12.897295
12.737205
6.5488308
3.439528
6.5238638
-6.5331199
-3.4827865
-6.572261
13.569559
-3.2625038
-10.307055
-11.190486
-8.2012565
11.193503
5.9041316
11.932948
7.5275094
12.026426
4.9541459
8.6154132
-10.858277
2.657021
-4.3137797
-2.6473783
-4.0946271
4.0904228
2.9930311
4.2258782
-5.6432719
-4.0311857
-5.7910313
-5.7721494
-4.3870432
5.9698485
3.5225415
-6.0905839
-6.1565686
6.4066028
3.4799636
4.4363673
-10.996832
4.8275012
-9.101903
-10.020355
-4.0971861
-9.880416
4.59506
3.0962555
-7.6913155
-2.6492131
11.227967
-5.5557611
9.544252
-7.1447197
-4.5174991
-7.1279521
-9.2579898
-2.3759259
-9.010579
-9.447272
8.9454055
-9.8557271
9.1981405
13.843183
-6.8593748
-6.9838081
-4.8946076
-3.9521745
4.9015881
-0.8837399
-7.1885334
7.3468068
0.2280269
6.5196308
7.7443629
6.860623
-4.3838928
-2.8523021
-4.2029936
4.2970673
3.0400153
4.3706521
9.2979692
3.1961379
9.2898539
-8.9318877
-3.6018083
-9.0908523
9.4125965
-9.0832186
2.3846798
-2.5634053
7.7607659
4.002053
-7.290811
-4.4139185
9.6090176
-4.5395997
-5.0694179
-12.080703
10.572082
1.5086213
-4.8020201
-0.37369233
-0.48756639
-5.5479875
-3.8666878
5.4338322
0.54211065
11.114193
7.247505
-5.515101
5.7629322
6.1575418
6.214814
-0.16937671
5.9836153
-5.4088796
6.8457968
-3.6474168
-3.19838
7.3584482
-7.5682471
-1.7324041
-8.050361
6.3179569
0.66848202
1.7308254
-1.3463793
-1.6143349
-0.76950454
-1.6519631
1.3495033
0.9306665
1.3967303
0.85106528
1.4978681
-3.4199797
0.74046137
2.6795183
-2.5689145
-1.5031508
-5.1918497
-2.0902031
7.2820528
8.1925803
3.1248504
-7.9636317
-0.24634149
2.2606391
-2.3891409
-0.66836908
-4.5234806
3.0123831
-3.6807522
-6.1001155
-2.4808333
8.5809488
-3.6323896
-0.57060407
3.5608296
0.81142801
-4.8463005
-3.4621295
4.8969275
0.29699073
-5.4688988
11.048604
-5.5797049
-8.3212009
4.4423709
6.8717905
7.4179182
-9.1645122
4.8423797
4.3221325
-2.2927216
5.7716629
1.1005114
5.8055451
-9.6273923
6.5089487
7.778322
4.2902306
-8.2325893
1.3087523
-8.31864
11.108348
-9.7933875
-1.3149604
5.4706293
5.6377186
7.5013223
6.3418606
-5.9349753
13.436298
-1.6617977
-8.1315898
9.9804376
-5.690207
6.6938892
-12.384096
-13.03575
4.90416
-9.9053251
12.08071
-2.1753846
-3.8831056
-9.0141898
13.788431
-1.3114953
-12.476935
9.2780116
-5.7417235
-5.5937496
11.335473
-9.0042273
9.0765361
-2.7082027
-6.3683334
-10.890982
-6.2357053
11.00141
1.7357947
-11.996475
14.653496
-3.3810619
5.6643123
0.8595515
5.6620253
4.366734
-7.0929901
2.7262561
4.6374932
-7.3456959
2.7310627
-9.8240528
-7.2740133
13.388372
-6.114359
-11.371199
-10.326193
-1.0450063
2.8024451
11.851051
-10.329954
8.0550851
2.2748694
3.4771575
0.89349461
-3.592678
-0.50194912
0.37152706
6.8917391
-7.2632661
4.5974052
4.7154422
5.0126263
1.8791128
5.2179675
2.9708101
-5.0690406
-0.72199077
-6.7557654
2.3687221
-3.2332239
-6.7666727
9.1353948
-7.3287103
0.56203765
-4.5539547
-6.1271685
10.681123
-7.201333
5.1542325
5.8943713
8.1942478
-8.8606015
2.7334329
-4.339208
-4.5213934
4.5952774
-7.8285013
3.5610324
5.5743624
7.040996
0.88442736
6.612883
6.7754892
-9.7091384
0.60723546
12.272047
-10.389597
2.6908734
9.3355525
-10.745959
0.4197655
-9.4606506
1.2282891
-6.7840502
-6.4630264
7.2733482
-9.6492741
-5.110748
8.3704302
0.9194237
-8.4692753
-0.54130367
-6.4474067
-2.9998652
-6.9316959
-3.2796306
-6.5760965
-9.2146059
-1.7568764
-7.4577296
7.1885291
-7.1824309
-3.6316872
7.9226586
1.275482
-7.9181992
7.7309712
-7.9682141
7.6151559
0.30868849
7.0381183
7.1693115
3.2171369
-4.7453966
7.9625336
-7.1781846
10.374323
-12.331403
5.1532185
6.1612175
-9.7630258
-6.1701856
5.3878278
4.0247688
5.6501035
9.2172081
-10.568502
1.3512937
-10.804618
12.40271
-1.5980926
-16.784444
5.9798259
-7.5672355
2.2223928
0.16228706
2.1452506
0.7408859
2.8357682
-3.5766541
-1.8225194
-2.0093061
-3.8590148
-5.8251982
9.684213
1.8699583
-5.3972849
3.5273266
-4.7248639
6.5948222
0.06190235
-5.4591873
7.1309302
-4.295162
7.2932173
-4.6629616
2.6302557
5.3138555
9.3182021
-4.0043465
7.0920442
-3.0899912
3.1470725
-7.151419
-2.6781257
-4.8666285
7.8596596
-5.8144946
6.3765323
-0.59639352
6.9729258
-5.88584
1.3462404
-0.87321377
3.8422285
3.9184997
7.1742969
-5.2951842
5.0465401
-8.1365313
-2.104879
-7.252104
-1.6777416
-0.37696737
-4.9585837
5.3355511
6.5649611
-6.9419284
-5.2856656
9.6096802
-4.3240146
7.9623254
-5.4770401
-2.4852852
-4.4794824
-4.6037363
4.0565388
1.9270765
9.8894019
0.25908664
-5.7361268
-5.149793
-4.2072926
4.1259591
2.7198376
-1.9901404
3.4987617
2.4777067
-0.74688133
0.47943254
0.91729775
2.0219637
-1.5425312
0.32519518
1.6967685
-1.0211841
1.6382349
0.62240427
-1.5713564
-0.08060664
-1.3712506
4.3836337
1.3082677
-2.2389342
0.69640308
1.3622445
-5.0096613
7.4637082
-4.0755576
-3.3881506
8.8259527
1.5374111
-5.6129686
6.5129499
-5.8444679
3.3781722
-5.4683753
-2.2347964
-8.0792643
-5.4277863
-4.3434459
7.8707726
-5.340767
8.4656174
1.7706571
-8.2192759
9.9899329
-4.8319473
2.351114
-4.1189742
4.7413784
-1.7628748
-2.3560994
4.3895178
4.191431
-4.3822322
-0.14124842
0.0072856134
3.1129263
-3.1056407
-0.56782591
-3.1367404
-7.6899523
7.986943
-3.7454756
8.5878553
4.2170581
-3.6596737
12.247529
3.1283751
-6.7880488
-5.1928258
-5.7634299
-2.4659163
4.9520019
-0.9368653
-5.6353957
-7.3051986
5.6559733
0.14957178
-9.5438032
10.669748
-1.1259452
-5.5482942
-0.96065449
6.4312838
-8.0613145
0.71561865
-5.3302517
5.3394968
6.4400082
6.5895799
-12.206352
-0.27058362
-6.7893269
1.3269637
-8.1162906
6.9646823
-3.7291093
8.6332694
-10.98267
7.3509831
-9.7071883
7.318309
-0.79798158
7.3361588
-4.6099027
2.9708964
-9.2066018
-7.4708071
7.1681776
-3.7286495
8.0277291
-4.2257617
12.253491
-7.6068236
7.0209454
5.2325454
-1.3877394
-5.7402127
-6.9532147
5.5654752
0.067730701
5.729756
8.1031307
-5.1323207
7.38114
4.4785471
-8.8177551
-3.3499543
-11.954688
3.1369331
-6.060317
-3.295205
6.4321381
4.8990429
5.7925375
1.9107446
-5.2905883
8.5045931
-9.5495994
-2.3902341
-4.0727922
6.9098469
-1.3443716
4.3917024
-8.4644947
-2.3923478
5.6855361
-0.62498332
-5.0605528
1.1738386
-6.2845866
2.3859209
-8.6705075
7.2633532
-7.8046569
2.3379792
-9.9052147
-5.58022
-5.6255757
-2.4090668
-5.5591473
-7.8314127
5.4223459
-1.8515867
5.8793845
-8.7251682
8.1001849
-3.6775423
9.0998882
-5.7983241
-1.1333718
6.2404545
1.3747015
10.47459
0.52153852
-6.6917241
-2.8151188
5.1948938
-2.379775
1.3108401
-4.4370451
0.75784868
3.5618876
5.264065
-9.8798446
0.11681881
-6.5749052
-4.1139132
8.138682
5.4957671
12.060728
1.4922265
9.2649959
-1.126314
10.757222
4.5237896
4.701575
-4.0249685
5.3762622
1.3105827
6.4638012
-0.78664344
3.4168992
1.3586071
1.3283412
1.0607997
2.527651
1.3908487
3.8738914
0.29723724
-1.7120689
4.6583953
-8.8656879
-1.0777313
-8.0672107
1.2689968
5.8169241
-4.5479272
3.7916443
-1.0718067
1.4118694
-0.28427477
-1.4315101
1.7157849
-3.4826546
-2.1783915
-0.48162293
-2.046162
2.7425651
2.3374716
-2.2609421
-1.2217124
0.73514856
-6.1629349
4.7332267
-4.8744752
-0.6830442
9.3068887
-3.6224244
0.51678364
-1.2713104
-2.6199567
-3.3894613
3.470068
11.576015
0.67151398
5.9963101
8.658457
5.1963275
0.064006835
5.0086399
-7.1840245
-4.8154128
-7.4546081
-0.48992578
5.941358
2.2770642
9.5739868
7.5096096
6.1652379
-2.2992568
-11.848856
8.2669128
-2.8906506
6.6688203
-1.6082674
-7.0622401
6.9734137
3.4009089
-7.8928374
0.088180538
-6.9740595
-9.8647101
-0.45912092
8.5593059
-10.015469
8.882097
5.8822318
1.5754978
-4.7508277
-0.87474801
4.6788348
0.022740252
10.779963
-1.2097522
-6.8423175
8.0520699
-4.6071718
3.5294405
0.88291626
2.6158455
2.598701
1.5268942
-5.3154235
-9.8633507
-3.1025739
-1.9070875
-6.4907245
0.79132834
-3.1288
6.1859786
-2.6565381
3.7006933
5.3955318
6.8074011
-1.9781116
-4.9638168
6.3021263
-2.601433
4.2059681
)
;

boundaryField
{
    wall-4
    {
        type            calculated;
        value           uniform 0;
    }
    velocity-inlet-5
    {
        type            calculated;
        value           nonuniform List<scalar> 8(-1.7582594 -1.7582594 -7.3846893 -4.5714743 -7.3846893 -6.446951 -4.5714743 -6.446951);
    }
    velocity-inlet-6
    {
        type            calculated;
        value           uniform -5.6264299;
    }
    pressure-outlet-7
    {
        type            calculated;
        value           nonuniform List<scalar> 8(4.9711828 8.4693033 6.1528173 10.565425 8.57815 6.9415757 7.358084 9.7919302);
    }
    wall-8
    {
        type            calculated;
        value           uniform 0;
    }
    frontAndBackPlanes
    {
        type            empty;
        value           nonuniform List<scalar> 0();
    }
}


// ************************************************************************* //
