/*--------------------------------*- C++ -*----------------------------------*\
  =========                 |
  \\      /  F ield         | OpenFOAM: The Open Source CFD Toolbox
   \\    /   O peration     | Website:  https://openfoam.org
    \\  /    A nd           | Version:  9
     \\/     M anipulation  |
\*---------------------------------------------------------------------------*/
FoamFile
{
    format      ascii;
    class       volVectorField;
    location    "49";
    object      U;
}
// * * * * * * * * * * * * * * * * * * * * * * * * * * * * * * * * * * * * * //

dimensions      [0 1 -1 0 0 0 0];

internalField   nonuniform List<vector> 
918
(
(0.40805961 -0.00025423642 0)
(0.0090457205 2.9576277 0)
(-0.0059008092 1.3151992 0)
(0.29044151 -0.0083966996 0)
(-0.011882456 2.2512117 4.3996909e-20)
(-0.01174396 2.9485786 -3.3180008e-18)
(0.90984423 1.4206146 8.002115e-19)
(0.11730158 0.073058421 -2.6319487e-20)
(1.988305 0.0044269882 0)
(0.012164017 0.92628803 0)
(-0.0037478331 0.90623538 0)
(0.069448627 0.0078643447 0)
(0.012835758 2.9163565 0)
(0.013651572 2.7913135 0)
(0.096192155 3.1546407 3.1978548e-19)
(-0.010726128 2.113395 2.1614817e-20)
(-0.0074510006 -0.012148216 1.6101211e-18)
(0.19567061 1.4261712 5.8826843e-19)
(0.38210493 0.0091009016 0)
(-0.0065176825 0.89011624 0)
(-0.027473298 0.040958838 -1.2695221e-18)
(1.0481595 -0.021281575 0)
(0.54554959 -0.026912875 0)
(0.2470773 -0.0057125929 0)
(0.039045737 0.074424016 0)
(0.020683642 2.6244832 0)
(-0.0099924804 2.9057933 1.2182741e-18)
(-0.019132779 1.3729517 0)
(-0.037846717 1.6418838 0)
(-0.01491368 1.3450813 0)
(-0.009649955 2.8200819 0)
(-0.0029526364 2.3085168 -3.4583697e-20)
(-0.0053866807 2.0868394 0)
(-0.018162037 2.9813197 -1.2340509e-22)
(-0.018376308 3.007022 2.5760564e-18)
(0.00085869526 3.0015933 0)
(0.30895502 -0.0018372031 0)
(0.41732314 0.88386631 3.5291222e-19)
(1.0369123 1.4693748 -9.9818903e-19)
(1.0545589 1.2856624 1.0190766e-18)
(0.8693018 1.5975542 -1.8272743e-19)
(0.74047366 1.5192427 1.0359965e-18)
(0.20279558 0.1101357 2.5680155e-20)
(0.10877015 0.037089372 0)
(1.2893306 0.74810941 0)
(0.18576595 0.10793462 1.1786513e-19)
(0.12260797 0.077362275 -1.2234858e-19)
(0.25688099 -0.012510062 0)
(1.9896728 0.0016352533 0)
(1.9887572 -0.0013594053 0)
(1.3550634 0.0031109644 0)
(1.8675827 0.0066334977 0)
(1.7380879 0.0037490271 0)
(0.026330872 2.0341786 -8.3357367e-19)
(0.034547922 1.2078381 0)
(0.039815853 1.0192324 0)
(0.008699555 1.1750042 0)
(0.00083443684 0.87387921 0)
(-0.0032044029 2.2330463 0)
(-0.0042650416 1.1547477 0)
(-0.0019104538 0.90032955 0)
(-0.0062289221 1.1750992 0)
(-0.0021383545 0.90431971 0)
(0.50158919 0.021252357 0)
(0.17616702 0.02215393 0)
(0.10728162 0.029434798 0)
(0.13893349 0.022433681 0)
(0.032874741 0.013704005 0)
(0.016738362 3.0145163 1.269534e-18)
(0.01239006 3.0113841 0)
(0.0077272075 3.0035755 0)
(0.013324521 3.000492 1.351862e-23)
(0.010556028 2.9476309 -1.8131212e-18)
(0.016837525 2.9848983 0)
(0.013431422 2.8938526 0)
(0.017529296 2.9241914 2.9027748e-24)
(0.013819073 2.8183341 0)
(0.017258164 2.9109659 0)
(0.010868228 2.7552231 0)
(0.24236916 3.5999447 0)
(0.17264704 3.5342711 0)
(0.12805892 3.2881636 -2.9889013e-19)
(0.046360771 2.9866353 0)
(-0.026120365 2.2885147 0)
(-0.016109876 2.3384001 -2.1299721e-20)
(-0.010895893 2.137307 4.4537717e-21)
(0.12551071 0.038085189 -5.5155012e-19)
(-0.026104737 -0.0074284296 -5.234488e-19)
(0.17103791 0.011012557 -1.6929248e-18)
(0.031604713 -0.0029820969 -1.1407212e-18)
(0.18015948 1.1739765 0)
(0.30144953 1.5859707 -6.3032045e-19)
(0.37703326 1.5409807 1.0473029e-18)
(0.53330532 0.042033933 0)
(0.33699957 0.032691658 0)
(1.2190058 -0.0012598875 0)
(0.73671579 -0.035104407 0)
(0.64446567 0.017761565 -3.1847404e-18)
(0.64938652 -0.025375371 2.4916942e-18)
(0.0015339794 1.1660712 0)
(0.0062667426 0.90521405 0)
(-0.044374559 1.406568 0)
(-0.018574164 1.2059983 0)
(-0.014167123 0.88589793 0)
(-0.10333556 0.16122182 3.9058881e-19)
(0.099391622 0.091455853 0)
(0.51061602 0.022232704 0)
(0.24718248 0.014967759 0)
(0.089267557 0.01900364 0)
(0.037084435 -0.002514252 0)
(0.015284547 0.024879262 0)
(0.92302327 0.053933779 0)
(-0.072061077 0.041526421 0)
(-0.17210684 -0.10326525 1.9732726e-18)
(0.0011006645 2.8578665 1.0633939e-18)
(0.020346118 2.9009936 0)
(0.032985536 2.8787884 0)
(0.014910331 2.7063533 0)
(-0.01052588 2.9856639 1.1762667e-18)
(-0.0091743455 2.890493 0)
(-0.011797763 2.9907263 -3.6149016e-18)
(-0.009603986 2.9158239 1.2370435e-18)
(-0.024734017 1.8375696 0)
(-0.01161885 1.8521548 0)
(-0.0091673498 2.3199045 3.7107398e-22)
(-0.0075183179 2.2869441 0)
(-0.0090540192 2.0899467 0)
(0.65446276 0.021392995 0)
(0.33603859 0.012141711 0)
(0.23910492 0.03241314 0)
(0.62309629 0.0052750155 0)
(0.30104851 0.016515721 0)
(0.50215877 1.0629371 -4.3229552e-19)
(0.53515474 1.0996261 0)
(0.40082806 0.87427258 5.586603e-20)
(0.30595314 0.65083706 0)
(1.1681298 1.3157256 -2.9401105e-19)
(1.1441491 1.1056776 5.8333579e-19)
(0.49454217 1.6705392 0)
(0.68911527 1.6726171 0)
(0.56217582 1.5645852 0)
(0.15554343 0.26286285 -4.5136098e-19)
(0.20876178 0.069839335 0)
(0.082069651 0.036284781 3.2915021e-19)
(1.2737602 1.1369813 0)
(1.3577299 0.94385968 0)
(1.220913 0.92522314 -4.943978e-19)
(1.4247822 0.74795064 0)
(1.3397411 0.57660369 6.1482994e-20)
(0.59562343 0.024761057 0)
(0.55618218 0.015199893 0)
(0.27346446 0.011261948 0)
(0.53187998 0.010150259 0)
(0.54324923 -0.011241303 0)
(0.26011825 0.0082733575 0)
(1.4982261 -0.00098839641 0)
(1.869831 -0.00066159279 0)
(1.7318281 0.0010022933 0)
(0.041177828 2.2525773 4.5391181e-19)
(0.049879688 1.9573518 0)
(0.032964322 2.3435359 7.2229052e-19)
(0.019686914 2.0971003 -5.9726285e-19)
(0.14392913 1.4266039 -4.8550842e-19)
(0.070358779 1.2823899 0)
(0.084911451 1.2112167 0)
(-0.0026908798 1.156299 0)
(-0.0031782956 0.86435146 0)
(-0.0062388612 2.4219415 -7.3714646e-22)
(0.00046388374 2.2310125 0)
(-0.00037241627 2.424856 -3.7318748e-20)
(-0.0033855586 2.2301119 5.8764075e-20)
(-0.0086593362 1.1512477 0)
(-0.0085444157 1.1521493 0)
(-0.0043294511 0.87794561 0)
(-0.0017856996 1.1813463 0)
(0.0002830587 0.90609883 0)
(0.84283724 0.042533593 0)
(0.55835623 0.02333597 0)
(0.78221158 0.035190838 0)
(0.43752142 0.010861683 0)
(0.18286026 0.0037577792 0)
(0.30434538 0.025619828 0)
(0.23941065 0.061766482 0)
(0.16487638 0.013985894 0)
(0.003665266 3.0720093 -1.0862014e-20)
(0.010772208 3.061633 0)
(0.016159503 2.9688245 0)
(0.013246697 2.8677491 0)
(0.71629633 4.1712318 0)
(1.2069955 3.2408535 8.4578061e-19)
(0.067586631 3.1205401 0)
(0.027784999 2.8971248 0)
(-0.019166991 1.8514938 0)
(-0.026822603 2.0966413 0)
(-0.023938287 1.9571361 0)
(-0.023648105 2.7624656 -1.2272074e-20)
(-0.021462971 2.4739265 0)
(-0.022407407 2.6137266 0)
(-0.0047744295 2.1682559 2.889476e-21)
(-0.0094996326 2.3958987 2.9210311e-21)
(-0.010806214 2.3702215 -4.5932165e-21)
(-0.0080570238 2.1477901 0)
(0.13527727 0.0077697172 7.9574567e-19)
(-0.092114582 0.008102159 -7.8894679e-19)
(0.30365306 1.7047499 0)
(0.20885051 0.95670212 -3.8149364e-19)
(0.22401662 1.8453361 -1.1778498e-18)
(0.13661004 1.4108896 1.1816819e-18)
(0.30534943 0.0016630939 0)
(0.47864472 0.0041848766 0)
(0.4894452 0.022431599 0)
(0.3160169 0.010036365 0)
(0.0027983232 1.1789809 0)
(0.0064076206 1.1692908 0)
(0.0045102587 0.9058596 0)
(0.17026987 0.11269351 1.095651e-18)
(0.12007386 0.12114981 -1.2939886e-18)
(0.11817437 0.091712251 0)
(1.2565547 0.14323262 2.2572479e-20)
(1.1340637 0.1179094 0)
(1.1043329 0.095801654 0)
(0.75125634 0.034632274 0)
(0.13668811 -0.042869525 0)
(0.076715351 -0.061760018 -3.2112752e-18)
(-0.18212924 -0.0018528048 1.2467923e-18)
(0.0020440641 2.9836997 1.0632244e-18)
(-0.0038358363 2.8637114 4.4877467e-20)
(0.0038280742 3.0539617 -2.2743443e-20)
(0.012747268 3.0472436 8.188221e-19)
(-0.0094043021 2.9952496 4.0207955e-20)
(-0.0083930702 2.936163 -1.6142743e-22)
(-0.013162455 3.0201633 -7.5798141e-19)
(0.0012117852 3.0231404 5.4633219e-19)
(0.006671229 3.039833 -8.1941118e-19)
(0.74502717 0.028338146 0)
(0.70507399 0.032125806 0)
(0.3824384 0.016799505 0)
(0.45401315 0.016574735 0)
(0.4117778 0.048649803 0)
(0.29495626 0.010349607 0)
(0.34289076 0.006496491 0)
(0.35993783 0.022241037 0)
(0.2047577 0.0086918362 0)
(0.68605434 1.345336 -1.6951814e-19)
(0.75364866 1.4263674 0)
(0.15920018 0.33412188 1.0818738e-19)
(0.33698102 0.75952275 8.2127415e-19)
(0.3529307 0.7849117 -4.8114517e-19)
(0.21610758 0.45392352 9.3949866e-19)
(0.42823909 0.97914627 2.2966002e-18)
(0.17349387 0.35687428 5.0706e-19)
(0.18854965 0.046509324 1.2056239e-18)
(0.19609027 0.075702273 3.2239e-19)
(0.064729748 0.011411726 6.0946278e-19)
(1.4625663 0.56558434 2.5660102e-19)
(1.3301617 0.40136667 2.267292e-19)
(0.022871214 2.4011948 2.6698635e-19)
(0.010494531 2.1689395 0)
(0.99703508 0.065024878 0)
(0.9109957 0.052951968 0)
(0.6507366 0.029886495 0)
(0.0099783801 3.0770391 0)
(0.016931531 2.9388269 1.5956098e-18)
(0.016523321 2.9537457 0)
(0.013490392 2.8434299 -1.5927825e-18)
(0.009391729 3.09182 3.6507291e-19)
(0.0036401107 3.088783 0)
(0.84275442 1.7120103 -7.736401e-20)
(1.1055415 2.3170041 2.5533173e-21)
(0.82252093 1.8280136 -7.4299082e-19)
(0.013235132 2.995017 -9.7531163e-19)
(0.033341163 3.0315356 0)
(0.011384457 2.8687829 0)
(-0.011951546 2.4046738 -2.4011845e-20)
(-0.0066765787 2.4084283 -2.8280103e-21)
(-0.0035700405 2.2089455 -4.2757348e-22)
(0.34327332 1.5429996 1.2082915e-18)
(0.21589693 0.77979648 -8.2942093e-19)
(0.087471069 2.1626079 8.189633e-19)
(0.16517722 2.0235708 -1.0087626e-18)
(0.082269748 1.6965599 1.2590565e-19)
(0.013392611 3.1145924 -2.4138192e-18)
(0.01622811 3.1195828 2.732556e-18)
(-0.0088509464 2.9800537 1.1239143e-18)
(-0.0057545965 2.9767528 -1.1033527e-18)
(-0.0077641099 2.8755418 -1.1449517e-18)
(0.00436156 3.1054934 -2.8386741e-18)
(0.009223223 3.105005 2.8186003e-18)
(0.38984892 0.84555397 0)
(0.34247502 0.77500372 -1.8463963e-18)
(0.13707503 0.27321351 8.2036106e-19)
(0.41901011 1.0998167 1.4447139e-18)
(0.19822296 0.45445759 -2.2460172e-18)
(1.3951922 0.23107017 2.4872187e-20)
(1.4581107 0.38955461 0)
(1.2825531 0.24141373 5.6572993e-20)
(0.0064904455 2.4317909 -1.6531087e-21)
(0.0075797943 2.416783 0)
(0.0042842849 2.2049708 0)
(0.39387803 1.4112586 -4.3490321e-19)
(0.42670474 1.2701177 -9.7947714e-19)
(0.20581075 0.5943483 1.7692343e-18)
(1.1926644 0.0089743847 0)
(1.3376445 0.004470172 5.013075e-19)
(-0.029875107 1.8042602 0)
(-0.043072801 1.8289893 0)
(1.5119815 0.0015481342 5.6894804e-21)
(1.0965491 0.015675887 1.1425446e-18)
(-0.021167088 2.7679718 1.5913043e-20)
(-0.019903065 2.8100293 0)
(0.057691584 3.1740205 7.8387058e-19)
(0.51653578 3.5270946 0)
(1.6307979 0.92601263 -2.9656098e-20)
(1.2638039 0.016851587 2.2768862e-20)
(1.3785353 0.031358209 0)
(1.9988303 0.012400091 1.1354863e-20)
(0.11050843 1.8463912 0)
(0.12469403 2.7453355 0)
(-0.011660189 1.7520953 0)
(0.0035018203 2.836955 2.8416094e-20)
(-0.020179915 2.7912415 6.7018276e-21)
(1.2165502 0.054927921 2.4117164e-20)
(1.4965383 0.069701285 0)
(1.5730546 0.10628475 0)
(-0.027773256 2.1147664 0)
(-0.016912774 2.8073783 0)
(-0.0068956954 1.7817056 0)
(0.38352747 1.9976897 -3.1779651e-19)
(1.3003691 0.013697321 0)
(1.0954613 0.012034544 0)
(1.9714876 0.015825054 6.5941028e-19)
(1.6590874 0.01924129 -7.498674e-19)
(1.9059176 0.013221567 0)
(-0.02245865 1.9288088 0)
(-0.023069405 1.821488 0)
(-0.021267698 1.8760578 0)
(-0.010712806 1.7736553 0)
(-0.014197977 1.7619112 0)
(-0.017061138 1.7684873 0)
(1.4308187 0.049230906 0)
(1.2602811 0.037084138 2.013367e-20)
(1.0916193 1.7452253 4.8539386e-19)
(1.9563559 0.006148023 -6.7443868e-19)
(1.7060306 -0.0013350902 8.1417066e-19)
(1.8968287 -0.0032473203 0)
(1.2979864 0.0085530696 6.8491324e-19)
(1.1738803 0.0037388319 -8.5185879e-19)
(0.91687755 0.02099929 0)
(-0.020955839 2.8432974 0)
(-0.022924575 2.8162269 -1.620511e-20)
(-0.020210107 2.8349332 1.0255207e-20)
(1.7652823 0.39488638 5.1721679e-19)
(1.6956536 0.18683629 0)
(0.070379604 3.056378 -1.4423188e-18)
(0.042060113 2.8541625 -1.0047297e-19)
(0.1727325 3.1793599 2.2038945e-18)
(0.15938401 3.2405174 -3.5047552e-19)
(0.1559394 3.2795126 0)
(0.029645651 3.1337987 4.1151921e-19)
(0.079768788 3.1731254 1.4177662e-18)
(0.07631813 3.1971911 -7.6622241e-19)
(0.046410829 3.1100323 0)
(0.59549432 0.24625099 0)
(0.54955755 0.30696021 0)
(1.6013634 1.0026499 2.2710657e-20)
(1.5345197 1.1423834 5.0263769e-20)
(1.7061165 0.81480148 0)
(1.7029098 0.74267953 0)
(1.2652712 0.025439822 -1.3664323e-18)
(1.070016 0.020264233 1.7527369e-18)
(1.403247 0.028621335 0)
(1.2393557 0.026522143 0)
(2.003402 0.0232406 0)
(1.874829 0.014377697 0)
(1.935801 0.015656697 0)
(1.7234362 0.0038557888 0)
(1.6632278 0.0054073658 0)
(1.7961063 0.0046019794 0)
(0.094142789 1.834202 0)
(0.057635918 1.7916275 0)
(0.15072135 1.8909225 0)
(0.16501573 1.8717923 0)
(0.14603046 2.7671076 0)
(0.18051387 2.8467723 -4.9771058e-19)
(0.10374251 2.8381639 0)
(0.08432098 2.8608082 2.1256632e-19)
(0.030280309 2.8864354 -1.7046695e-19)
(-0.010321304 1.7547053 0)
(-0.0068944098 1.7135793 0)
(-0.01157227 1.7586171 0)
(-0.010831637 1.716082 0)
(0.0084922544 2.3144572 1.0491009e-20)
(-0.018030723 2.8367626 -4.0680225e-20)
(-0.0025314364 2.8799026 2.0013105e-20)
(-0.0085895959 2.9118168 0)
(-0.019616796 2.8437034 -1.8060201e-20)
(-0.019718893 2.8389847 1.2240173e-20)
(0.0091413344 2.3118413 -2.9439109e-21)
(-0.011441695 2.6185136 5.3707169e-20)
(-0.016453657 2.6518933 -2.5408152e-20)
(1.2745038 0.051200452 1.377426e-18)
(0.97884427 0.048180819 -1.753838e-18)
(1.2102442 0.059751731 -1.4572995e-18)
(1.0309317 0.054274611 1.8913244e-18)
(1.5273967 0.066154514 0)
(1.3724513 0.054297444 0)
(1.5910674 0.099512127 0)
(1.5439807 0.075238676 0)
(1.3918513 0.064762877 0)
(1.697727 0.1727857 0)
(1.6175957 0.11930497 0)
(1.494736 0.10467088 0)
(-0.022608197 2.6419767 1.3320989e-21)
(-0.024758772 2.3051051 0)
(-0.022677347 2.4707646 0)
(-0.016647557 2.834449 -6.6872478e-21)
(-0.016407001 2.8455491 1.6664703e-22)
(-0.014717287 2.014371 -2.7868211e-20)
(-0.021713091 1.951694 2.8098011e-20)
(-0.022889855 1.8387259 0)
(-0.026202062 1.8488137 0)
(-0.025930087 1.8478051 0)
(-0.0069144978 1.7796774 0)
(0.00067766252 1.7304417 0)
(0.52247073 2.0287031 5.3142792e-19)
(0.54936808 2.0135386 2.6921703e-19)
(0.58710434 2.616214 -2.7858504e-19)
(0.3803373 2.7531181 7.1762929e-19)
(0.42015551 2.2377702 1.0582305e-19)
(1.4130347 0.030018074 0)
(1.337793 0.028128811 0)
(1.1491671 0.019393816 0)
(1.9819693 0.025896272 0)
(1.9618098 0.019023296 0)
(1.726286 0.024160841 0)
(1.6362345 0.023158538 0)
(1.6499428 0.02843618 0)
(1.3137396 0.031736859 1.3230513e-18)
(0.99695319 0.040419475 -1.6827619e-18)
(1.2684083 0.045780097 -1.3885154e-18)
(1.0659875 0.03671963 1.7910025e-18)
(1.0485121 1.7890075 0)
(0.92498426 1.8843791 4.8334296e-19)
(1.2111498 1.664453 2.4003963e-19)
(1.2519615 1.6107433 -3.1980006e-19)
(1.257102 2.6739136 9.2043983e-19)
(0.69282083 0.051233031 8.3712666e-19)
(1.7124569 0.21063911 0)
(1.7686463 0.31002997 -3.9537568e-19)
(1.6797464 0.25340171 -1.57677e-20)
(1.5653142 0.18774526 0)
(0.2000695 2.930312 9.925218e-19)
(0.090030992 2.8165624 -2.0892435e-18)
(0.015731726 2.3941363 1.2972411e-18)
(0.094908763 -0.2102067 -5.8389963e-19)
(0.35351984 3.4480472 1.3030885e-20)
(0.22716944 3.3611134 0)
(0.240343 3.4149846 -1.8339689e-20)
(0.24797181 3.0819832 -2.432571e-18)
(0.37846143 3.1714113 0)
(0.012955003 3.1197763 7.4303954e-20)
(0.01606703 3.1323578 -7.9172064e-19)
(0.030084232 3.1185346 1.2305862e-18)
(0.036034917 3.148342 0)
(0.033417938 3.1553911 0)
(1.3293954 2.7624915 0)
(0.77304254 0.97672573 -9.0896179e-19)
(1.4200635 1.3637374 -8.8317723e-20)
(1.3493589 1.4723109 0)
(1.2527116 1.405238 -1.68218e-19)
(1.4927803 1.2409479 3.6873708e-20)
(0.28192233 0.36553329 -1.4658983e-18)
(0.68392343 0.26500356 -1.6535858e-20)
(0.50686749 0.1565316 6.9781371e-19)
(0.56428736 0.34627236 5.1320183e-20)
(0.44438631 0.28052899 -2.0953106e-18)
(0.63732176 0.28225143 0)
(0.85583883 0.44597237 1.1786819e-18)
(0.85160871 0.41687139 0)
(0.62184319 0.32035983 0)
(0.48536297 0.21516918 0)
(1.2545757 0.85409828 7.0568737e-19)
(1.7750842 0.43112577 -4.8454155e-19)
(1.7626136 0.61157772 0)
(1.7480243 0.53915709 0)
(0.64875812 0.13594732 9.987029e-19)
(1.2570041 0.71702006 -6.5838888e-19)
(1.0079132 0.61547175 1.1957895e-18)
(1.4861832 0.56493389 -1.1704646e-18)
(1.2348509 0.023752132 9.0646071e-19)
(1.2195431 0.023465074 -9.3761252e-19)
(0.96993221 0.019472318 0)
(1.4601225 0.04890775 0)
(1.3975826 0.037431225 -7.7817676e-19)
(1.2099207 0.026562605 7.6847935e-19)
(1.8283616 0.044468876 0)
(1.6945672 0.031675758 0)
(1.9085586 0.015540144 0)
(1.6683478 0.022378131 0)
(1.9571122 0.032298228 0)
(1.941054 0.027600658 0)
(0.043896443 1.7936659 0)
(0.020338037 1.7493592 0)
(0.18426718 1.9183167 5.2520691e-20)
(0.36031884 1.9873462 1.7110081e-19)
(0.2260572 1.9520888 3.9013147e-19)
(0.26028498 1.9531064 -6.2326639e-19)
(0.23467995 1.9461714 0)
(0.20772603 2.0781409 -6.6324346e-20)
(0.18282096 2.0665719 0)
(0.38471064 2.1940909 -1.4666374e-19)
(0.35553005 2.4734186 7.0509579e-19)
(0.27098655 2.0201039 5.9441501e-20)
(0.33974433 1.9590588 6.0633418e-20)
(0.28396527 1.9560866 -4.9422667e-20)
(0.40066467 1.9433689 -1.1876982e-19)
(0.31230926 2.0479007 0)
(0.36746576 2.0494766 1.2507908e-19)
(0.048935598 2.5118539 -3.1008001e-20)
(0.037731883 2.8733822 0)
(0.075958909 2.6000113 1.5116821e-19)
(0.065806172 2.6056928 0)
(0.062659496 2.8803523 -2.3660076e-19)
(0.047012243 2.9237809 0)
(0.0065830368 1.8886087 3.5180702e-20)
(0.021012632 1.971309 0)
(0.011517525 1.8559653 0)
(0.00085023558 1.8343751 -3.9931426e-20)
(0.0075205607 2.8650203 -1.8725746e-21)
(0.018158216 2.8905636 1.9544615e-19)
(0.0095709652 2.9300961 1.3632536e-21)
(-0.0033978145 2.1951425 -4.7086489e-21)
(-0.0027493548 2.1082073 -7.6999922e-21)
(-0.0032564388 1.7457751 0)
(0.00088844241 1.7030437 0)
(0.050276733 2.0776951 -4.4503793e-21)
(0.026569938 1.9258846 -4.9768631e-20)
(0.031652615 2.0021731 4.7316161e-20)
(0.060069271 2.091669 0)
(-0.037749714 2.506638 5.2885912e-20)
(-0.03233033 2.745676 -8.0058395e-21)
(-0.03176337 2.667092 8.097136e-24)
(-0.0054346325 2.1974993 5.5704953e-21)
(-0.026322193 2.6966776 1.2998355e-21)
(-0.025317087 2.6690852 1.5014766e-20)
(1.2086352 0.041660412 -9.6115309e-19)
(1.2135747 0.036818082 9.4572138e-19)
(0.94795683 0.033963961 0)
(1.5303716 0.10480035 1.4046364e-18)
(1.1528054 0.058556592 -1.5462252e-18)
(1.0560668 0.051306621 1.7309532e-18)
(1.5577999 0.13475838 -1.8951744e-19)
(1.4537602 0.048973443 0)
(1.4713216 0.05622087 7.6665813e-19)
(1.3364006 0.046017726 -7.6097504e-19)
(1.7615919 0.12167331 -4.4959144e-20)
(1.7240169 0.099727517 3.913061e-19)
(1.8544779 0.13043011 0)
(1.9040141 0.12864229 -1.4985094e-19)
(1.7592713 0.081399913 0)
(1.6242984 0.068762853 0)
(1.8583211 0.046064888 0)
(1.6564266 0.048193284 0)
(1.89013 0.089048964 3.0377923e-19)
(1.8662942 0.07163326 -6.5615304e-19)
(1.8918516 0.11070354 -3.0689135e-19)
(1.8906501 0.10603923 -3.572829e-19)
(1.8817474 0.15319625 6.8023203e-19)
(1.7563952 0.14408326 0)
(1.8076324 0.19518315 0)
(-0.031765622 2.5034876 5.673719e-20)
(-0.025807381 2.3155633 7.8636615e-22)
(-0.026430104 2.312623 0)
(-0.030349766 2.6833286 -5.832261e-20)
(-0.023884949 2.6428651 -2.0100932e-21)
(-0.027406484 2.6761749 5.1828753e-21)
(-0.021471722 2.8540242 -9.0706204e-21)
(-0.020433607 2.7714988 -1.1156492e-21)
(-0.023327482 2.7390957 -4.5762569e-21)
(-0.015481058 2.8460066 2.5039674e-21)
(-0.022022683 2.8470174 -1.3235713e-21)
(-0.017978937 1.9194434 -1.8164328e-21)
(-0.0065841107 2.0364442 -2.4309311e-20)
(0.53660315 2.0111155 -2.2299835e-19)
(0.48950041 1.9514636 8.4066748e-20)
(0.8851336 1.9337829 -4.6874726e-19)
(0.70346607 2.0138475 -2.6014566e-19)
(0.74415343 1.9751074 0)
(0.63808409 2.5749962 2.5918826e-19)
(0.69418518 2.5941874 4.0602695e-19)
(0.44708166 2.6784357 1.1028808e-19)
(0.45902908 2.6688652 -7.3990052e-19)
(0.54047925 2.5994073 7.0538354e-19)
(0.54961385 2.6320972 0)
(0.48066188 2.6962092 -6.4229586e-19)
(0.22620537 2.766901 1.2747863e-18)
(0.33369016 2.7530368 -4.9128083e-20)
(0.26836611 2.8457014 -1.7497305e-18)
(1.021805 2.510409 1.0820058e-18)
(0.88796177 2.5290509 0)
(1.9574698 0.033748028 2.5781409e-20)
(1.665077 0.031122981 -2.2049042e-20)
(1.686196 0.031274213 -3.8667951e-19)
(1.8862705 0.039959457 3.8754222e-19)
(1.9920368 0.041514168 0)
(0.96437396 1.7910174 0)
(0.96469107 1.6921092 0)
(1.160211 1.6028168 0)
(0.99310894 1.5874721 0)
(1.2638151 2.7047574 5.6073959e-21)
(1.1773024 2.5362558 0)
(0.92356859 2.2165917 7.018297e-21)
(0.87206196 2.4882015 0)
(0.98811846 2.5617529 -5.8795088e-19)
(1.0147834 2.5503634 4.0137695e-19)
(0.69267604 0.092277244 0)
(0.64986993 0.090066202 2.3644151e-19)
(1.0391033 0.11570573 1.2708569e-18)
(0.74365943 0.06134351 -5.1708953e-19)
(0.68982127 0.0068229843 -1.4554655e-18)
(1.7815643 0.36058465 -1.0766739e-18)
(1.6087018 0.42482778 -3.0113878e-20)
(1.2823392 0.32837423 1.3334437e-18)
(1.5687585 0.30448512 1.0665215e-18)
(1.3009129 0.17441854 -1.7122101e-18)
(1.2349612 0.18691529 2.1828167e-19)
(1.2650399 0.25712262 -4.9257157e-19)
(1.2760408 0.22619581 0)
(1.5636423 0.22613328 8.4027776e-19)
(1.7053532 0.27018925 0)
(1.6994764 0.32016671 0)
(1.7845566 0.23230058 3.2859973e-19)
(1.8444754 0.2865219 -2.2878906e-20)
(1.821804 0.35823586 -1.8993647e-19)
(1.7974737 0.33280742 0)
(1.5802887 0.077411337 7.3383932e-19)
(1.8527242 0.11548605 8.8270543e-19)
(1.7958378 0.090670849 -6.9736705e-19)
(1.7973928 0.13261146 -6.0054593e-19)
(1.5727648 0.10610724 -1.0065354e-18)
(1.4250079 0.14510138 0)
(1.4464032 0.1377984 0)
(1.0967052 0.063130126 -6.2493286e-19)
(0.96036966 0.054394172 2.5229975e-19)
(1.7240851 0.15970443 8.6549897e-19)
(1.863615 0.22652654 -9.7159464e-19)
(1.8299037 0.23721553 8.9234177e-19)
(1.7535038 0.22149976 0)
(1.8560152 0.19210603 0)
(1.8792676 0.17314754 -3.8643318e-19)
(1.8328048 0.16443186 -7.0671938e-19)
(0.72811669 1.4148131 2.930762e-19)
(0.79774788 1.7547859 -3.1542633e-19)
(1.1663031 2.7367175 -3.6180359e-19)
(1.2808444 3.0970727 7.2623072e-20)
(1.3246892 2.7855311 -7.2336604e-19)
(1.3735801 2.8504406 1.2090902e-19)
(1.2438193 2.5214817 2.288401e-20)
(1.3134606 3.0181629 -2.8081239e-19)
(1.3247348 3.0385196 5.1990717e-19)
(1.2952872 3.3006334 -3.0122701e-20)
(1.4081784 3.0653268 3.1118205e-20)
(1.4209095 2.9923776 0)
(0.77347945 1.0556782 -8.5750197e-20)
(0.19561372 1.2844474 8.6968414e-19)
(0.65820569 0.51162478 9.7740902e-19)
(0.44700166 0.097734624 1.0722986e-18)
(0.48680745 0.33940391 1.1844824e-18)
(0.63056807 0.48224092 -1.9500147e-18)
(0.6153031 0.4758469 1.5847769e-18)
(0.50568725 0.36193086 -5.9825704e-19)
(0.32512223 0.25386486 1.3585524e-18)
(0.68674548 0.18470943 -5.6443147e-19)
(0.66125107 0.20688081 0)
(0.51647453 0.14091653 8.2624823e-21)
(0.93396393 0.59647513 6.3078841e-19)
(0.86738063 0.51443587 -2.301548e-18)
(0.69420761 0.49032549 9.9891114e-21)
(0.70450433 0.47510429 0)
(0.96267324 1.0110337 7.1396153e-19)
(1.2781998 1.1188839 6.2970304e-19)
(1.1722789 1.23666 -7.2484335e-19)
(1.3489023 1.1586835 -2.4009444e-19)
(1.4104231 1.2391687 -4.8728912e-20)
(1.3889694 1.2312574 4.9176718e-20)
(1.3673044 0.92886547 -1.1521174e-18)
(1.4111421 1.0419974 2.2542438e-19)
(1.5094136 1.055987 0)
(1.5381302 1.0066307 -2.790029e-19)
(1.668619 0.45998552 3.1969368e-19)
(1.785754 0.46221109 3.1506404e-19)
(1.778984 0.42809749 4.5904264e-19)
(1.6556981 0.55305486 -6.4392625e-19)
(1.6822243 0.6247456 0)
(1.7159707 0.60238105 0)
(1.2560645 0.45570182 2.8662957e-20)
(1.0756569 0.3032289 0)
(1.1515737 0.28325342 6.4820686e-19)
(1.263515 0.33836565 -1.2969498e-20)
(1.4835908 0.61190706 3.0306789e-18)
(1.3896606 0.71077778 8.5725069e-19)
(1.3532598 0.61038135 -9.7278977e-19)
(1.0908073 0.52525287 1.0625769e-18)
(1.0408048 0.51701234 6.2849618e-19)
(0.96810191 0.45013022 -6.16477e-19)
(1.6898024 0.048488987 6.490346e-19)
(1.9539043 0.047152409 0)
(1.9224813 0.05273783 4.4248548e-19)
(1.7084166 0.048433504 -9.8735984e-19)
(1.9384268 0.048306089 4.9552475e-19)
(1.8720268 0.032264322 -1.0536013e-18)
(1.6836489 0.033519588 0)
(1.5672935 0.035298195 -2.2218329e-19)
(1.8375757 0.027325061 5.5211071e-19)
(1.6621738 0.027893459 -2.8590585e-19)
(1.5973038 0.034590411 2.0976551e-19)
(-0.0036649066 1.7555036 0)
(0.0073565005 1.8240769 0)
(0.014842676 1.767799 0)
(-0.0011815347 1.7204675 0)
(0.079224802 1.8935296 -1.3367845e-19)
(0.09601874 1.8778785 5.2118586e-20)
(0.16126009 2.020953 -5.5931358e-21)
(0.14695335 1.9434192 -2.6384787e-20)
(0.03806687 1.9440265 6.0130712e-20)
(0.046637559 1.9484641 -4.7132047e-20)
(0.069063747 1.8796038 -2.229307e-20)
(0.049785278 1.8553466 1.0509901e-19)
(0.029042008 1.8274688 1.6574678e-20)
(0.019416571 1.848677 9.2522207e-21)
(0.1048543 2.5387532 -1.6244663e-19)
(0.10874619 2.5673608 0)
(0.18048747 2.3026455 1.1626851e-19)
(0.17149654 2.1412974 5.7118787e-20)
(0.29462164 2.2528345 -1.0887783e-19)
(0.23397595 2.5755888 0)
(0.27743443 2.5647727 -6.7826656e-19)
(0.33082982 2.4509164 4.8780493e-19)
(0.2543452 2.2316414 -2.6714034e-19)
(0.19781175 2.370927 1.8977644e-19)
(0.17826024 2.4696062 0)
(0.029246028 2.277908 -3.4373646e-20)
(0.023110758 2.6189697 -6.0799487e-20)
(0.021277888 2.4129627 0)
(0.02321817 2.671903 -1.5977292e-20)
(0.043838364 2.5172214 2.9092451e-20)
(-0.010156499 1.8410243 -9.4294009e-21)
(-0.0083411645 1.825669 1.4504171e-19)
(-0.0037801634 1.8451206 -4.5888523e-20)
(0.0034777653 1.8689787 -4.5246327e-20)
(0.0066863907 1.8955718 0)
(-0.0072143639 1.815075 0)
(-0.0024334292 1.7582372 -4.5994207e-20)
(-0.0070254733 1.8140318 1.346276e-20)
(-0.006131057 1.8121473 0)
(-0.0010751454 1.7444363 -3.2866809e-20)
(0.0019144967 1.7090833 6.8466445e-20)
(1.6844039 0.067135385 0)
(1.6760828 0.068459452 -7.0449267e-20)
(1.9563656 0.080238203 -5.4856594e-19)
(1.8498247 0.086594823 0)
(1.7068651 0.074916933 0)
(1.9182638 0.067910175 -5.6537787e-21)
(1.9196196 0.066764559 8.4117968e-19)
(1.7830489 0.055265277 1.0739312e-18)
(1.6517662 0.051776167 0)
(1.5718124 0.061793342 0)
(1.7733715 0.069580132 5.39349e-19)
(1.6114612 0.073987763 0)
(1.5684287 0.061776487 0)
(-0.022310467 2.3149223 0)
(-0.009830976 2.0671148 -9.3065451e-21)
(-0.018240311 2.2007598 -1.9074408e-20)
(-0.0061347738 1.8267717 0)
(-0.017782509 1.9713677 -1.898362e-20)
(-0.016927238 1.8983642 9.4819371e-21)
(-0.011424771 1.8318027 0)
(0.49318034 1.8695614 0)
(0.49855572 1.8449671 -2.0267741e-19)
(0.42849827 1.7455533 0)
(0.60455383 1.8751288 8.301018e-20)
(0.67946975 2.0046816 0)
(0.62588355 1.9700442 2.2273719e-20)
(1.1065871 2.7592017 -2.2519908e-20)
(1.0410813 2.5271986 -1.2452572e-18)
(1.0395748 2.4249712 1.4300027e-18)
(0.91817673 2.5139926 3.517892e-19)
(0.90416494 2.5610821 0)
(0.96982804 2.5411879 0)
(0.99605222 2.5142196 0)
(0.97579205 2.5160676 -1.2742357e-18)
(0.73282153 2.5019166 -5.8415195e-19)
(0.85354398 2.5288285 -1.36993e-19)
(0.85476242 2.4805872 1.0963883e-19)
(0.74365086 2.5531761 0)
(0.8445037 2.5417519 0)
(0.79969859 2.5663147 -4.4748354e-19)
(0.7990435 2.5556796 0)
(0.92206613 1.5063893 0)
(0.70293488 1.1659069 -9.0907955e-19)
(0.8179708 1.2323944 -5.4846664e-20)
(0.74594547 1.334304 0)
(0.72252467 1.2629607 1.3876367e-18)
(1.1874533 1.2833728 -2.0168953e-19)
(1.1688958 1.4407758 0)
(1.1897528 1.3906026 2.9151621e-19)
(0.98820807 1.4559416 0)
(0.99993875 1.3222396 0)
(1.2368818 2.7818867 -4.0246607e-19)
(1.1977155 2.8206661 -3.0042085e-19)
(0.98809005 2.3152824 5.2666177e-19)
(0.98972829 2.3487729 -1.7274932e-19)
(1.2105597 2.769979 0)
(1.1689645 2.7237552 2.1893299e-19)
(1.1914333 2.6061918 -3.8281676e-19)
(1.1076951 2.4565723 -2.6714458e-20)
(0.66817524 1.6240238 0)
(0.69301736 1.4450723 -2.5791221e-19)
(0.81603148 1.6185804 0)
(1.0653006 0.22353511 0)
(0.66674571 0.11110003 0)
(0.46915096 0.080140292 0)
(1.0478409 0.22468644 -1.0117051e-18)
(0.72134728 0.14603217 5.8322808e-19)
(0.98633504 0.048925304 -5.0143289e-19)
(1.1118177 0.1049302 0)
(1.0948822 0.10970103 2.2199121e-19)
(0.78887186 0.025942235 8.8947899e-19)
(0.69069579 0.018403553 -5.6114388e-19)
(1.2981159 3.4240985 -2.3078584e-19)
(1.2849793 3.3572163 0)
(1.3161497 3.3810287 -5.7536904e-19)
(0.51611054 3.4897039 5.3508908e-19)
(0.74936938 3.0240323 -4.1443098e-19)
(0.64700124 0.98252423 1.0510567e-18)
(0.59810074 1.0199488 0)
(0.43501928 0.4150955 -2.7161906e-19)
(0.61229183 0.82799194 1.5093666e-18)
(0.65653526 0.39568617 -3.5462618e-19)
(0.58207724 0.57013767 4.1661961e-19)
(0.7853255 0.58107268 8.5747589e-19)
(0.88475907 0.63760355 0)
(0.83350577 0.70674396 0)
(0.72558687 0.62320714 0)
(1.5641819 0.88055343 7.4840676e-20)
(1.4361115 0.78823682 -8.1373699e-19)
(1.4481622 0.84012964 6.0706199e-19)
(1.5141051 0.74112405 -6.0878682e-19)
(1.6590266 0.74550479 0)
(1.6658897 0.81684874 -1.3611539e-19)
(1.087449 0.46929147 -1.3878753e-18)
(1.1247449 0.46469068 -1.6453718e-18)
(1.0033416 0.40995923 1.0873231e-18)
(1.0005608 0.37445372 -1.097979e-18)
(1.0735356 0.33680994 -8.5143505e-19)
(0.96690018 0.31506863 1.0568368e-18)
(1.9209476 0.049683235 -5.264674e-19)
(1.9513943 0.052874417 1.0637914e-18)
(1.6963633 0.049606195 6.5635371e-19)
(1.7139 0.056162599 -7.8080132e-19)
(1.8096954 0.068113088 0)
(1.955731 0.067687429 -1.3683038e-18)
(0.085811618 2.1277057 1.4506281e-20)
(0.079904187 2.0781087 0)
(0.12346484 2.1191095 2.122757e-19)
(0.14062759 2.1094199 -1.940613e-19)
(0.12265407 2.0433817 9.8818286e-21)
(0.10664844 2.0370284 0)
(-0.0031390409 2.104354 0)
(-0.0099373716 1.9151137 8.1711514e-21)
(-0.0091982728 1.8795232 -7.3933005e-21)
(-0.018076603 1.9739133 4.4625724e-21)
(-0.013628047 2.2396808 1.1701975e-20)
(-0.012778295 2.2622652 -1.0631366e-21)
(0.6813501 1.6844521 -6.0761788e-19)
(0.6356579 1.7033939 6.4143791e-19)
(0.63794238 1.8415622 -6.0094803e-20)
(0.60423705 1.6955359 2.1030562e-20)
(0.8971216 1.8376335 0)
(0.76578782 1.9446885 1.9785684e-19)
(0.82344428 1.9371024 -1.9208935e-19)
(0.70202018 1.8849938 5.9659263e-20)
(0.75226281 1.7573663 0)
(0.81987485 1.733037 0)
(0.71073239 2.474538 8.5561525e-19)
(0.70864111 2.5482687 1.531227e-18)
(0.75466984 2.5446447 -1.1000518e-18)
(0.62721349 2.5554183 -2.269443e-19)