/*--------------------------------*- C++ -*----------------------------------*\
  =========                 |
  \\      /  F ield         | OpenFOAM: The Open Source CFD Toolbox
   \\    /   O peration     | Website:  https://openfoam.org
    \\  /    A nd           | Version:  9
     \\/     M anipulation  |
\*---------------------------------------------------------------------------*/
FoamFile
{
    format      ascii;
    class       volVectorField;
    location    "6";
    object      gradT;
}
// * * * * * * * * * * * * * * * * * * * * * * * * * * * * * * * * * * * * * //

dimensions      [0 -1 0 1 0 0 0];

internalField   nonuniform List<vector> 10((6.2618373e-06 0 0) (3.5863696e-05 0 0) (0.00015193374 0 0) (0.00064310466 0 0) (0.0026499711 0 0) (0.0086734181 0 0) (0.04056818 0 0) (0.19693248 0 0) (1.1711826 0 0) (-0 0 0));

boundaryField
{
    inlet
    {
        type            extrapolatedCalculated;
        value           uniform (6.2618373e-06 0 0);
    }
    outlet
    {
        type            extrapolatedCalculated;
        value           uniform (-24.991269 0 0);
    }
    bottom
    {
        type            extrapolatedCalculated;
        value           nonuniform List<vector> 10((6.2618373e-06 0 0) (3.5863696e-05 0 0) (0.00015193374 0 0) (0.00064310466 0 0) (0.0026499711 0 0) (0.0086734181 0 0) (0.04056818 0 0) (0.19693248 0 0) (1.1711826 0 0) (0 0 0));
    }
    top
    {
        type            extrapolatedCalculated;
        value           nonuniform List<vector> 10((6.2618373e-06 0 0) (3.5863696e-05 0 0) (0.00015193374 0 0) (0.00064310466 0 0) (0.0026499711 0 0) (0.0086734181 0 0) (0.04056818 0 0) (0.19693248 0 0) (1.1711826 0 0) (0 0 0));
    }
    frontAndBack
    {
        type            empty;
    }
}


// ************************************************************************* //
