/*--------------------------------*- C++ -*----------------------------------*\
  =========                 |
  \\      /  F ield         | OpenFOAM: The Open Source CFD Toolbox
   \\    /   O peration     | Website:  https://openfoam.org
    \\  /    A nd           | Version:  9
     \\/     M anipulation  |
\*---------------------------------------------------------------------------*/
FoamFile
{
    format      ascii;
    class       volScalarField;
    location    "38";
    object      p;
}
// * * * * * * * * * * * * * * * * * * * * * * * * * * * * * * * * * * * * * //

dimensions      [0 2 -2 0 0 0 0];

internalField   nonuniform List<scalar> 
400
(
9.7144751e-09
-0.00067286505
-0.0013853427
-0.001942701
-0.0022199944
-0.0021564908
-0.0017277856
-0.00092619504
0.00023542408
0.0017074069
0.0033872861
0.0051121936
0.0066734716
0.0078490929
0.0084583821
0.0084236856
0.0078134086
0.0068445348
0.0058613183
0.0052989644
0.00065784963
-4.0517606e-05
-0.00056965118
-0.00094061678
-0.0011108548
-0.0010399131
-0.00070578225
-9.5536468e-05
0.00078910675
0.001916191
0.0032095875
0.0045547051
0.0057819639
0.0067162576
0.0072144256
0.0072145329
0.0067699616
0.0060527774
0.0053105391
0.0047385011
0.0014237073
0.00044065746
-0.00011659251
-0.00045323531
-0.00061480036
-0.00058480362
-0.00034657348
0.0001197498
0.0008284671
0.0017699147
0.0028942994
0.0040981738
0.0052282508
0.0061109831
0.0065938732
0.0065976607
0.006155728
0.0054215024
0.0045937464
0.0037482402
0.0020142021
0.00068169212
1.6775477e-05
-0.00035884699
-0.00057154271
-0.0006265533
-0.00051007762
-0.00019062702
0.00036850617
0.0011843922
0.0022299218
0.0034174372
0.0045913761
0.00555695
0.0061235587
0.0061665567
0.005683609
0.0048170403
0.0037472906
0.0024736009
0.0021672725
0.00049612185
-0.00029625466
-0.00074870103
-0.0010582489
-0.001245266
-0.0012927453
-0.0011513021
-0.00075505468
-5.3106446e-05
0.00095702105
0.0022102823
0.0035447115
0.0047326699
0.0055218517
0.0057098872
0.0052292826
0.0042015993
0.0028061822
0.00098396103
0.0016539629
-0.00031447701
-0.0012387842
-0.0017992975
-0.0022526594
-0.0026279072
-0.0028986191
-0.0029910836
-0.0028025465
-0.0022376945
-0.0012511131
0.00013088023
0.0017446431
0.0033271155
0.0045416532
0.005065785
0.0047174956
0.0035661957
0.0017895902
-0.0007259249
0.00028702505
-0.0019195701
-0.0029729967
-0.0036713791
-0.0043202934
-0.0049531982
-0.0055301171
-0.0059479497
-0.0060590054
-0.0057073943
-0.0047757355
-0.0032587131
-0.0012665186
0.00090717626
0.0028231293
0.0039868374
0.0040250921
0.0028877038
0.00071537437
-0.002680505
-0.0020764292
-0.0044511924
-0.0056268046
-0.0064923214
-0.0073929171
-0.0083657589
-0.0093569151
-0.010231772
-0.010790959
-0.01080484
-0.010063374
-0.0084617808
-0.0060407846
-0.0030832285
-0.00012631408
0.002112616
0.002963819
0.0021355739
-0.00036604053
-0.0048726163
-0.0055241669
-0.0079921139
-0.0092779228
-0.010333792
-0.011538
-0.012935415
-0.014462703
-0.015956312
-0.017162452
-0.017766024
-0.017438086
-0.015919493
-0.013122981
-0.0092517764
-0.0048990195
-0.0010300258
0.0012693995
0.001277754
-0.0013339661
-0.0072016847
-0.010076913
-0.012565095
-0.013936665
-0.01518401
-0.016718393
-0.018602634
-0.020774204
-0.02304877
-0.025121689
-0.02658635
-0.026969352
-0.025812956
-0.022845698
-0.018074467
-0.012051105
-0.005951964
-0.0013707496
0.0003005839
-0.0019472119
-0.0093822334
-0.015684991
-0.018132415
-0.019537553
-0.020926811
-0.022757758
-0.025129903
-0.027997027
-0.031166422
-0.034291488
-0.036876861
-0.038294182
-0.037844291
-0.035065872
-0.029601486
-0.021822512
-0.012985589
-0.0051849866
-0.00071576067
-0.0017642086
-0.010792264
-0.022243607
-0.024613045
-0.025945588
-0.027334949
-0.029324171
-0.03207926
-0.035588974
-0.039664678
-0.043927298
-0.047801324
-0.050530206
-0.051236498
-0.048956895
-0.043143564
-0.033769031
-0.021926357
-0.010036895
-0.0014154543
-9.8760063e-06
-0.010225628
-0.029641228
-0.031923908
-0.03297875
-0.034079859
-0.035939499
-0.038831532
-0.042795648
-0.047651619
-0.052990562
-0.058163612
-0.062284271
-0.064265556
-0.06287518
-0.057112205
-0.046476758
-0.031649101
-0.015037874
-0.00086439948
0.0046467552
-0.0055215449
-0.037866023
-0.040048525
-0.040440153
-0.040752525
-0.042015029
-0.044653055
-0.048758213
-0.054144094
-0.060356064
-0.066665371
-0.072060711
-0.075268306
-0.074811385
-0.069269286
-0.057628323
-0.039961521
-0.018247982
0.00278903
0.014445151
0.0069075419
-0.047230616
-0.049134364
-0.048140592
-0.046882333
-0.046905503
-0.048798673
-0.05266829
-0.058276038
-0.065076132
-0.072232022
-0.07859579
-0.082712342
-0.082880229
-0.077309409
-0.064523954
-0.043934967
-0.016747997
0.012502941
0.03293878
0.03240895
-0.058896831
-0.059639894
-0.0558839
-0.051941092
-0.049972355
-0.050629883
-0.053928646
-0.059495352
-0.06661188
-0.074285319
-0.08119119
-0.085679425
-0.085831816
-0.079522212
-0.064876115
-0.040689278
-0.0072409279
0.032139367
0.064981448
0.07774918
-0.076226552
-0.072613786
-0.063516156
-0.055435378
-0.050725056
-0.049781633
-0.052312364
-0.057664382
-0.064891838
-0.072774991
-0.079779388
-0.084036768
-0.083391674
-0.075348979
-0.057602688
-0.028375151
0.012933322
0.065396474
0.11555151
0.15150623
-0.10809223
-0.089556459
-0.071233869
-0.057232986
-0.049072126
-0.046330232
-0.048077289
-0.05320263
-0.060434643
-0.068295885
-0.075027415
-0.078526936
-0.076389028
-0.065809694
-0.043865495
-0.0078184588
0.044393664
0.11299815
0.18838042
0.27186077
-0.17684545
-0.10828979
-0.076202589
-0.054651284
-0.042992393
-0.038998041
-0.040570529
-0.045928066
-0.05344156
-0.061438381
-0.068027608
-0.070962581
-0.067551155
-0.054739854
-0.02914883
0.01356359
0.078146951
0.17006436
0.28949546
0.47421822
-0.37208342
-0.12470845
-0.054973086
-0.031962543
-0.022063576
-0.020300538
-0.024359475
-0.031958021
-0.041261583
-0.05064091
-0.058316925
-0.062187487
-0.059782576
-0.048056831
-0.022658545
0.021474195
0.092818714
0.21015277
0.40288842
0.77640929
)
;

boundaryField
{
    movingWall
    {
        type            zeroGradient;
    }
    fixedWalls
    {
        type            zeroGradient;
    }
    frontAndBack
    {
        type            empty;
    }
}


// ************************************************************************* //
