/*--------------------------------*- C++ -*----------------------------------*\
  =========                 |
  \\      /  F ield         | OpenFOAM: The Open Source CFD Toolbox
   \\    /   O peration     | Website:  https://openfoam.org
    \\  /    A nd           | Version:  9
     \\/     M anipulation  |
\*---------------------------------------------------------------------------*/
FoamFile
{
    format      ascii;
    class       volScalarField;
    location    "50";
    object      p;
}
// * * * * * * * * * * * * * * * * * * * * * * * * * * * * * * * * * * * * * //

dimensions      [0 2 -2 0 0 0 0];

internalField   nonuniform List<scalar> 
918
(
0.5716726
1.7216773
0.011361994
0.56389486
-0.0096942692
1.6923522
-0.94809197
1.1968008
0.60472477
-0.23811064
-0.069057531
0.681401
1.5637163
1.3218835
-0.66560143
-0.032745064
1.0190888
-0.71497736
0.62641463
-0.07809812
1.2711416
0.54319772
0.56894252
0.54216566
0.76839196
1.2783455
1.4269264
0.0078504395
0.0029493667
-0.010628133
-0.0069946172
-0.056743502
-0.040668
1.5686287
1.6226497
1.6463326
0.54662728
0.60725044
-0.76221345
-0.84699359
-0.8263775
-0.99225053
1.1839962
1.1753713
-0.49599968
1.2078808
1.2175749
0.55323888
0.60319867
0.61761651
0.54006982
0.57644473
0.58963979
0.47133601
-0.25676373
-0.3086822
-0.20828696
-0.18337843
0.04233871
-0.072859025
-0.079580383
-0.056115711
-0.048871527
0.50123215
0.67321778
0.66136161
0.68780789
0.70103227
1.6587727
1.6222199
1.6491962
1.5960115
1.586319
1.5435469
1.5066829
1.3612233
1.3688538
1.3186866
1.2810751
-1.1736389
-2.1772374
-0.1112784
0.17960685
-0.0059178435
-0.01867095
-0.0064006108
1.0046871
0.98783852
1.049479
1.0781095
1.3100421
-0.68910168
-0.88745275
0.62946311
0.6271872
0.60519252
0.58749407
0.63356283
0.6795033
-0.054409552
-0.05145623
-0.094189049
-0.071581327
-0.080056417
1.2383252
1.2464126
0.55750122
0.56276582
0.71052479
0.73866348
0.72986925
0.27048453
0.75559759
0.77197714
1.1074584
1.2875223
1.2900561
1.2757318
1.4133125
1.3689574
1.4735107
1.4990375
0.029453063
0.0017431711
-0.016871658
-0.033070388
-0.016059961
0.55266834
0.54471367
0.63625736
0.55061567
0.55895676
0.55546998
0.4206371
0.69451142
0.70432197
-0.6480406
-0.7090122
-0.81302811
-0.85938236
-0.97983289
0.97606289
1.1589854
1.14175
-0.53460388
-0.42933393
-0.59321264
-0.34521813
-0.39496956
0.55797138
0.56430717
0.55923813
0.5571894
0.55741107
0.55939233
0.60017489
0.59571514
0.61320844
0.54587773
0.68661323
0.4160122
0.35644103
-0.49796968
-0.33795903
-0.46766455
-0.16517704
-0.14241648
0.070920865
0.11887736
0.049558281
0.046719878
-0.12782584
-0.096201494
-0.10715483
-0.047213721
-0.043879345
0.48730261
0.47324866
0.51318822
0.5232663
0.65401798
0.65254815
0.66116946
0.6596586
1.4326628
1.4563211
1.5009925
1.4638926
-3.505065
-6.0963414
0.49078728
0.66206248
-0.011053058
-0.0091375635
0.0041165395
-0.0025795358
0.001207902
-0.0092550654
0.0065802179
0.00065647376
-0.0046170235
0.0014821604
0.95578446
0.94661059
1.2629682
1.3058218
1.1713331
1.1579551
0.63517616
0.63240758
0.63815761
0.6295997
-0.044223432
-0.045616161
-0.043112794
1.2248744
1.2378028
1.2338584
0.17891099
0.0806661
0.32174395
0.37165563
0.89852545
0.8260854
0.86361121
1.1797384
1.2118426
1.4884189
1.500441
1.5383846
1.5351239
1.5833984
1.5756997
1.5341813
0.52772967
0.54116613
0.53897338
0.63251912
0.63736816
0.63658707
0.64685134
0.64698923
0.64353176
0.26266487
-0.061721153
0.77943933
0.76746408
0.74660638
0.74125047
1.0490334
1.1390356
1.0917206
1.1262642
1.1107888
-0.24682357
-0.27127544
0.28717521
0.25689428
0.40320565
0.45136855
0.43235707
1.4067159
1.4068025
1.4533889
1.4155549
1.3568947
1.3798048
-0.087124335
-1.2152782
-0.61618827
1.0441184
0.8348487
0.93376085
0.0092932804
0.0081727434
-0.015324605
1.2841509
1.3477857
0.74936025
1.0060517
1.0021533
1.255539
1.2774036
1.3504007
1.2779164
1.3031523
1.3256241
1.3083802
0.91926442
0.82064016
0.84900386
1.177947
1.2249577
-0.0092418684
-0.13401324
-0.13938782
0.13077423
0.18970353
0.15308732
1.312447
1.2629094
1.3298491
0.56943041
0.56257008
-0.0013313821
-0.00071501351
0.62626724
0.6041682
-0.026656898
-0.010108869
0.91034652
-0.40925064
0.0082275979
0.64108672
0.57820529
0.59694058
-0.22907295
0.43630306
-0.062007403
0.041293662
-0.019322045
0.66971843
0.52753217
0.46505546
-0.010001242
-0.039289239
-0.051503555
-0.42556441
0.57793055
0.555578
0.58299879
0.56101082
0.59750191
-0.025312393
-0.019243613
-0.0081215677
-0.056758535
-0.049008035
-0.063128382
0.55930799
0.64869465
-0.35728181
0.60577206
0.59939914
0.61235057
0.58829036
0.64272151
0.59955325
-0.016956251
-0.016061256
-0.011251147
0.19557891
0.37925339
1.2076876
1.3340363
1.2393823
0.86687274
0.55153088
1.0761934
1.1656473
1.0419436
1.2011961
1.1686602
1.2125732
0.13043707
-0.12172878
0.13582403
0.0036939476
0.63297166
0.63835835
0.57280409
0.56457426
0.60692028
0.5821407
0.61056275
0.62125849
0.62000812
0.63337029
-0.15742151
-0.1906075
-0.21225861
-0.32310568
0.45335965
0.72869845
0.34670453
0.37870765
0.17006666
-0.062036712
-0.050576516
-0.068814925
-0.084192823
-0.0012662408
-0.046156994
0.057355692
0.058247682
0.030430597
-0.01200136
-0.021672891
-0.046156653
-0.0078970913
0.61997289
0.63883928
0.66862407
0.68397799
0.52755465
0.52695574
0.47965851
0.52494367
0.49407159
0.38989606
0.46714631
0.41980811
-0.014227461
-0.014073676
-0.016112859
-0.026847903
-0.011146241
-0.02359469
-0.028043882
-0.022821502
-0.026512638
-0.034976907
-0.052028636
-0.050114994
-0.35947755
-0.54883498
1.2230366
1.0582343
0.28975837
0.5518474
0.55371595
0.53789759
0.59207792
0.57865428
0.57667765
0.5757773
0.57262171
0.60287721
0.61237454
0.64328111
0.65108964
-0.23916795
-0.49720674
-0.23159864
-0.3609065
0.48089811
0.91876557
0.38728286
0.27239405
0.28032925
0.74026255
1.4625796
1.3035422
1.2664785
1.2292977
-0.070780922
0.36933328
0.10504313
0.76018542
1.0028518
1.1841026
1.2366998
1.2395443
1.210344
1.1536866
0.076437739
1.0764227
-0.24460973
-0.16686741
0.26183072
-0.03261577
1.1912026
1.1301299
1.1181277
1.2012485
1.2278079
1.1673249
1.1467168
1.1506457
1.1805061
1.1773057
0.91248411
0.25268423
0.1391833
0.090384061
1.0530038
0.96124703
1.0437783
0.81730715
0.62290383
0.64193568
0.62705012
0.53530415
0.56448443
0.53676521
0.60052127
0.63998516
0.62484696
0.60360897
0.61879695
0.59234327
-0.1423462
-0.15151333
-0.081350896
-0.2813417
-0.27666624
-0.40662538
-0.14282829
0.092406661
0.049863886
0.3060546
0.46850738
0.04309508
-0.1455231
-0.09261529
0.0073952709
0.22347282
0.26663965
0.10208545
0.17128683
0.15857688
0.12840835
0.27848443
0.28284992
-0.028097533
-0.020907035
-0.059189332
-0.047610478
0.03011388
0.1358462
0.13643655
-0.0028602811
-0.023642511
-0.047737478
-0.041372853
-0.0044913176
-0.051848422
-0.021414892
-0.012279556
-0.029675343
0.00087703987
-0.002869912
-0.011424157
0.0045140498
-0.0034553586
0.66075105
0.64552066
0.64803453
0.70449937
0.68886024
0.71029837
0.69985243
0.5570114
0.5435948
0.54843796
0.53685809
0.52760131
0.53650579
0.56792692
0.63288892
0.65545925
0.62929956
0.61035143
0.61790863
0.58468082
0.56810003
0.57382378
0.55565672
0.48930731
0.4875577
-0.030814908
-0.0075822272
0.0068643658
-0.066248969
-0.0042330687
-0.023622237
-0.010679138
0.025944563
-0.020035935
0.003070928
-0.0073029207
-0.022090486
-0.016817663
-0.14143554
0.025736508
-0.40783199
-0.44231215
-0.573177
1.1201478
1.2804262
1.0017734
0.73824051
0.77725952
1.0549632
1.1890783
0.6826618
0.8202844
0.93376564
0.93766602
1.1651957
0.5827739
0.57132724
0.58259289
0.5571422
0.5933988
0.0032470659
0.2570701
0.11913161
0.34690576
0.60005334
0.64343726
0.47003749
0.41507892
0.56167005
0.45492432
0.93775029
0.97015055
0.81642292
0.87147942
0.83084311
0.55728257
0.78977568
0.9258957
0.80455593
0.82911771
0.87267444
0.83775319
0.89279992
0.78433481
0.67520736
0.71283718
0.49075657
0.57452518
0.52205403
0.46047279
0.6442082
0.60159109
0.65111843
0.61438006
0.67247057
0.74484707
0.72953879
0.72333765
0.75217408
0.64381941
0.57419719
0.59046186
0.66135144
0.54448421
0.57188635
0.61192804
0.50199893
0.50932487
0.38225727
0.2950988
0.34103881
0.20063873
0.16907266
0.22366638
0.53069138
-0.079672579
-0.082834044
-0.44778669
0.96793783
1.4656772
1.0654479
1.0354837
1.2279742
1.2029581
1.1954216
1.2372241
1.2350939
1.0638499
1.1047941
1.0928508
1.0868031
1.1297585
1.192393
1.1740915
1.009351
0.6713223
0.65082404
0.56164937
0.24317214
0.3581736
0.76764351
0.60593314
0.43217495
0.39885007
0.70089584
0.43277475
0.56955065
0.73001845
0.53758501
0.42809113
0.89762312
1.0121712
1.0031995
0.95662202
0.81340978
0.87709784
0.95811532
1.0237046
1.0549852
1.1261669
0.5661247
0.59149847
0.58124757
0.55791506
0.58792183
0.6098506
0.61314293
0.60554922
0.60925863
0.61966862
0.63085105
-0.0874557
-0.071761993
-0.1179037
-0.11425729
-0.055541676
-0.0838649
0.010030953
-0.022908272
-0.047627669
-0.042041133
-0.072677255
-0.096623008
-0.092462628
-0.065513578
0.14826818
0.20112226
0.14246911
0.11777087
0.36291915
0.47847308
0.53460778
0.46473702
0.27828279
0.30317238
0.36900204
0.018332998
0.035501238
0.042675151
0.072555618
0.070684525
-0.056774359
-0.059753336
-0.046198173
-0.051086509
-0.025335504
-0.038813704
-0.044413516
-0.036177141
-0.03451904
-0.038713065
-0.045083044
0.55166882
0.55634005
0.59855555
0.5531723
0.55550586
0.60923069
0.59196516
0.61241135
0.62561454
0.6460705
0.61075101
0.6365524
0.63899926
-0.025352404
-0.03061505
-0.047409477
-0.037923172
-0.030802892
-0.025658726
-0.033084313
0.30746944
0.16052812
0.20277888
0.051533687
-0.21994311
-0.10715507
0.68165336
0.81617737
0.80943422
1.0342359
0.81746251
0.77452822
0.92397653
1.0468198
0.46385869
0.69481354
0.51428997
1.1479772
1.0637967
1.2301408
0.78407011
0.50780733
0.75176131
0.83326329
0.54753916
0.65452463
0.56628533
0.36867181
0.43588047
0.52102012
0.69857015
0.4982768
0.56243227
0.48490865
0.50166207
0.55340474
0.57442975
0.65523197
0.70978006
0.4228042
0.39692039
0.3259687
0.95192168
0.97375734
0.99678062
1.011352
1.0148741
0.77108113
0.77327021
0.81284037
0.78631536
0.74857313
-0.26492211
-0.34672971
-0.72187162
-0.21061725
0.41616935
1.0208615
0.91436673
1.392586
1.1355112
1.2693395
1.2092637
1.1774137
1.0981373
1.1217425
1.17828
0.56214892
0.76356049
0.75087863
0.68035493
0.46410844
0.36616409
1.007686
0.97918015
1.0562889
1.0868177
1.0189187
1.0921862
0.58950796
0.60763218
0.58188153
0.59322211
0.56882377
0.58272842
0.057825501
-0.0077497227
0.1252953
0.10475096
0.012310813
-0.022312323
-0.021172301
-0.018637501
-0.038488457
-0.032159004
-0.015244137
-0.018312095
0.35941134
0.29239659
0.071162852
0.19263933
-0.015453156
-0.12805426
-0.19554308
0.029155018
0.20989724
0.20672161
0.59335358
0.8694734
0.72042601
0.82717524
0.65145109
0.76154326
0.75654251
0.70829878
0.74661567
0.63919269
0.6538064
0.73385643
-0.066892567
0.25072623
1.4284408
1.3983604
1.0198714
0.8903498
0.82219874
1.07352
1.0226041
0.85657136
0.96059657
1.0696457
1.0479703
0.48518026
0.4487177
0.87980233
1.017725
0.58804227
0.45587941
0.42801261
0.61390433
0.67462242
)
;

boundaryField
{
    wall-4
    {
        type            zeroGradient;
    }
    velocity-inlet-5
    {
        type            zeroGradient;
    }
    velocity-inlet-6
    {
        type            zeroGradient;
    }
    pressure-outlet-7
    {
        type            fixedValue;
        value           uniform 0;
    }
    wall-8
    {
        type            zeroGradient;
    }
    frontAndBackPlanes
    {
        type            empty;
    }
}


// ************************************************************************* //
