/*--------------------------------*- C++ -*----------------------------------*\
  =========                 |
  \\      /  F ield         | OpenFOAM: The Open Source CFD Toolbox
   \\    /   O peration     | Website:  https://openfoam.org
    \\  /    A nd           | Version:  9
     \\/     M anipulation  |
\*---------------------------------------------------------------------------*/
FoamFile
{
    format      ascii;
    class       surfaceScalarField;
    location    "50";
    object      phi;
}
// * * * * * * * * * * * * * * * * * * * * * * * * * * * * * * * * * * * * * //

dimensions      [0 3 -1 0 0 0 0];

internalField   nonuniform List<scalar> 
1300
(
1.7582594
5.6264299
-4.958816
1.7582594
-8.4672952
5.62643
-5.3601032
5.3601032
-0.41893189
0.41893189
3.7296645
3.6550248
-3.3797741
3.3797741
-3.3047894
3.3047894
-0.34024321
0.34024321
-5.2377244
5.2377244
-5.0578565
5.0578565
4.7076607
-4.7076607
-6.8783992
6.8783991
-0.13880859
0.13880859
-4.5749034
4.5749034
1.5088761
-1.5088761
-3.3596772
3.3596772
0.1238586
-0.1238586
-0.56663191
5.1381062
1.1916275
1.1916275
0.023711941
-0.023711941
-4.8665525
4.8665525
6.2140688
-6.2140688
7.7197528
-7.7197528
-2.7609368
-3.3829973
1.9687322
-12.54198
-6.498563
-6.498563
-8.438264
8.438264
-2.8118339
2.814596
1.54011
-1.54011
-1.7159268
1.7159268
-5.3219749
-0.038128361
-5.3219749
5.3670472
-0.0069439591
5.3670471
-0.42010515
0.0011732385
-0.42010518
4.7883791
-4.7883791
0.38933537
0.029596494
0.38933536
1.3043896
-1.3043896
-3.7422591
7.4719236
3.6424302
-3.0569357
8.195042
-3.3900152
7.04504
-6.5691067
6.5691067
-3.6362629
0.2564888
-3.6362629
3.2403178
0.13945625
3.2403178
-7.4799228
7.4799228
-3.2632922
-0.041497199
-3.2632922
3.3464143
-0.041624897
3.3464143
2.1442288
-2.1442288
-0.47180878
0.13156559
-0.47180878
0.19353722
0.146706
0.19353723
0.35898148
5.2674485
-5.9854116
8.8000076
-5.2674484
0.029724056
5.2000954
0.037629017
5.2000954
-5.0939038
0.03604724
-5.0939038
5.0161212
0.041735346
5.0161211
4.7854933
-0.077832613
4.7854934
-4.822217
0.11455618
-4.822217
-4.0275748
-4.5615205
-7.0575481
0.17914898
-7.0575481
-0.11595432
-0.0228543
-0.11595433
0.27279432
-0.13398574
0.2727943
-4.1552971
4.1552971
-5.0153611
0.44045773
-5.0153611
1.373231
0.13564511
1.373231
2.0086131
2.5628612
3.7668725
-3.7668725
2.2579964
-3.355829
-0.0038482433
-3.355829
-3.4214366
-4.2983163
3.4214366
-0.061759376
-0.25512938
0.37898801
-0.25512939
1.2567484
-0.065120927
1.2567484
0.063811532
0.1297257
-0.063811523
0.087523457
3.4156205
-3.4156205
-0.32812592
0.304414
-0.32812593
-5.5690843
5.5690843
4.9588761
0.057245035
-4.9588761
0.092323644
6.1532459
0.060822847
6.1532459
-6.1926338
-0.021434996
-6.1926338
3.4185836
-6.8015809
-3.5165799
6.6896721
0.18872707
-6.6896721
0.19110916
1.6619437
-0.12183375
1.6619437
-1.0001339
1.0001339
-1.4875635
-0.052546396
-1.4875635
-2.0456945
0.32976769
-2.0456945
1.453458
0.26246886
1.453458
-5.16555
-0.15642483
-5.1655501
-5.2661546
0.25079351
5.2661546
0.10089248
1.4366429
-1.4366429
-0.37744815
-0.042657029
-0.37744817
-4.9586314
-0.20691864
4.9586315
-0.17025235
-4.6757181
-0.11266109
-4.6757181
-1.3868485
-0.10071504
1.3868485
-0.082458881
1.2962393
-0.039490942
-1.2962393
-0.0081502616
-3.0478957
5.6107569
-3.3990553
7.0414855
-6.185844
-0.38326271
-6.185844
6.910942
-0.34183537
6.910942
4.1109459
0.46395755
-4.1109459
0.47468297
3.1966365
0.043681278
3.1966366
-7.4491841
-0.030738741
-7.4491841
7.4849867
-0.0050639422
7.4849867
3.2157132
-0.019076618
-3.2157131
-0.047579095
3.3643457
-0.017931429
3.3643457
2.3419931
-0.19776433
2.3419931
-1.961645
-0.18258383
-1.961645
0.82047081
-0.82047081
0.70068243
0.11978838
-0.70068241
0.22887363
-11.148742
11.127307
-0.035751668
-11.112991
5.1643438
5.1643438
3.9863989
0.79909432
3.9863991
-5.0252698
0.20305282
-5.0252698
3.4824286
-6.9990085
3.8758688
-7.9034436
5.0870872
-17.629067
4.7155325
-9.277053
7.3240389
-7.3240389
7.1986331
0.12540588
-7.1986331
0.14108503
-0.039580515
-0.076373818
-0.03958052
-3.5428967
-0.61240036
-3.5428967
4.8123783
-0.65708122
4.8123783
-1.2557263
1.2557263
-1.2977092
0.041982969
1.2977092
0.075521751
3.3663206
-0.0019748937
-3.3663206
0.01049159
0.35033999
0.038995369
-0.35034002
0.09521063
3.886217
-0.4705965
3.886217
-2.9305967
-0.48502381
-2.9305967
0.14265231
-0.18223283
-0.14265228
-0.18547365
-5.8169457
0.24786142
-5.8169457
-11.21344
0.10044934
-11.175811
-6.0921845
-6.0921845
2.3460794
11.146087
-1.8128757
-0.14876936
1.8128756
-0.15093194
1.1828661
0.072860135
-1.1828662
0.18273222
-0.89666866
0.076197852
0.89666865
0.1034653
-2.46888
0.42318553
-2.4688801
-1.2033449
1.2033449
-1.2754927
0.072147876
1.2754926
0.17796536
1.7578882
-0.32124521
1.7578882
0.34043638
-0.067642082
-0.34043632
-0.037011852
-4.5007959
-0.17492212
-4.500796
7.1754614
-0.26451944
7.1754614
-2.6145487
-0.316048
2.6145487
-0.2725556
-0.035145716
11.162453
-5.129198
0.035294246
5.1291981
-11.223276
11.25857
-3.0437698
0.5748897
3.0437697
0.94262939
5.2966646
0.27241978
-5.2966646
0.27139479
7.4170316
0.067955057
-7.4170316
0.092992713
-3.0405285
-0.5023682
-3.0405285
-5.5518014
-0.63404257
5.5518014
-0.73942311
-11.474998
-0.19765425
11.672653
-11.433263
6.0146001
0.13864587
-6.0146
11.397216
-1.2486995
-0.18794338
1.2486995
-0.045354521
2.1119628
-0.35407459
2.1119628
4.273345
-0.38712803
-4.273345
-0.227451
-7.336869
-0.11231515
7.336869
-0.16140759
-2.5551899
-0.48533861
2.5551898
-0.44322704
-5.3461626
5.2810417
2.8488794
-3.2945968
-3.5069841
-7.5929131
2.5308939
3.0798631
4.7888903
-11.063814
-6.565253
-10.872705
7.2642325
-6.9928377
-9.4130198
9.335187
11.101667
-11.214328
-7.2279975
7.3035193
8.7684466
-8.8509055
3.8151302
3.6567935
10.782374
-10.525885
-16.705136
16.321873
9.9721258
-10.013623
17.074765
-17.105504
-19.383067
19.451022
-6.925837
7.0574026
-9.6944556
9.5118718
-10.189781
9.9172257
-3.6224021
-4.2810415
14.301219
-14.12207
11.631519
-11.635368
-11.659374
12.099831
4.0574689
1.2235728
4.017978
-3.6023198
7.41745
-3.4427202
6.2915995
3.6200804
-7.2424825
3.3789282
-6.8859123
5.9732268
5.6582926
-5.9114674
-1.6814457
-8.3176033
8.1957696
-7.2209063
7.3243716
12.520041
-12.558169
-3.6197113
7.2765048
-3.4217741
6.5016372
-3.6580324
-3.5699652
3.5223872
1.2665031
8.8011853
5.5000337
-8.9899124
-1.8827924
-11.751817
11.364689
-12.292827
11.807803
-0.4381864
5.7878514
-5.349665
4.4283661
-1.4914338
7.2792852
5.7727987
5.9758516
5.8659264
-5.5935066
1.1269113
-6.4765762
-6.3842525
-2.3628556
2.3201986
2.2540366
-2.2244401
8.4355489
2.6661184
8.2652966
-8.0664491
-3.1478792
-8.2413713
4.3267594
2.9767599
4.3687424
5.2968329
3.4716138
5.1961179
5.8218002
-5.9837416
0.16194145
-5.4909382
11.312738
1.2927632
-9.0609034
-7.7944003
6.7519767
4.0303975
6.891433
-7.4075469
-3.1183385
-6.9328639
-10.16571
-6.5394254
-10.799753
10.913941
5.4079323
10.572105
-12.876508
12.7151
6.5390056
3.4331202
6.4973807
-6.5203194
-3.4933036
-6.5678984
13.59833
-3.2895916
-10.308738
-11.177321
-8.2057467
11.182385
5.8923805
11.92912
7.521902
12.022113
4.9647729
8.6335568
-10.857153
2.6514066
-4.2944189
-2.6314181
-4.0655452
4.0516244
3.0057782
4.1983304
-5.6521385
-4.0423171
-5.8009079
-5.7877489
-4.4020325
5.9855132
3.5263586
-6.1136284
-6.1791983
6.4296764
3.4875493
4.4439526
-11.009206
4.8331004
-9.1141419
-10.022247
-4.0998231
-9.8811619
4.5971493
3.1000583
-7.6972076
-2.6453332
11.212691
-5.5543987
9.5312455
-7.1187867
-4.5165811
-7.1082951
-9.2797362
-2.3796375
-9.0289427
-9.439622
8.9372538
-9.8469042
9.189823
13.822788
-6.842976
-6.9798118
-4.8956238
-3.9552816
4.9037741
-0.8857961
-7.1871024
7.3490439
0.2303476
6.5219471
7.7455199
6.8597238
-4.3765739
-2.8443324
-4.1938417
4.2809365
3.0434351
4.3571344
9.3156279
3.204413
9.308684
-8.9547153
-3.603454
-9.1111401
9.4081017
-9.0783341
2.3377479
-2.5199807
7.7924275
4.0153754
-7.3218309
-4.4299858
9.6244082
-4.5498818
-5.0745264
-12.08165
10.571202
1.5104485
-4.8023646
-0.37399845
-0.49785704
-5.547585
-3.8654346
5.4330287
0.54282285
11.114024
7.2485897
-5.5150834
5.7629448
6.1575692
6.2148143
-0.16943825
5.9805938
-5.4057041
6.8311393
-3.6565645
-3.1745748
7.3813329
-7.5882515
-1.7298072
-8.0669447
6.3371375
0.67704505
1.7118683
-1.3328803
-1.5891228
-0.77373284
-1.6261347
1.3361267
0.9179099
1.3751221
0.84062014
1.4795784
-3.4093362
0.74368857
2.6656477
-2.5687162
-1.4807516
-5.1892394
-2.1030471
7.2922866
8.2258315
3.1388572
-7.9983805
-0.24299074
2.2226024
-2.3565881
-0.65617068
-4.5330688
3.016087
-3.6722577
-6.1193818
-2.474457
8.5938388
-3.6275941
-0.56624763
3.5547339
0.81400851
-4.8496595
-3.4679438
4.9022058
0.29391203
-5.4715796
11.046004
-5.5744247
-8.3159121
4.4383944
6.874344
7.4151543
-9.1637699
4.8460298
4.3177401
-2.2894259
5.7695374
1.1218955
5.8132187
-9.6626397
6.5443011
7.7931163
4.306715
-8.2570739
1.3242099
-8.3384297
11.123521
-9.806711
-1.3168099
5.4810131
5.6425077
7.4855454
6.3372424
-5.9291495
13.414695
-1.668566
-8.138145
10.006996
-5.7002806
6.6993156
-12.399596
-13.036558
4.8984131
-9.8896345
12.069971
-2.1803366
-3.8777693
-8.9987385
13.767404
-1.3088473
-12.458556
9.263258
-5.7707042
-5.6278325
11.398537
-9.0602958
9.1211361
-2.713243
-6.4078931
-10.87357
-6.2319337
10.985885
1.7292148
-12.043057
14.694463
-3.4094997
5.6516183
0.84576237
5.6336869
4.3812641
-7.12275
2.741486
4.6790317
-7.3922747
2.7294918
-9.8522418
-7.2780875
13.406048
-6.1279604
-11.377911
-10.327096
-1.0508147
2.8113924
11.883071
-10.333294
8.0607387
2.2725556
3.4561638
0.9009706
-3.5759521
-0.48959308
0.3544391
6.8992115
-7.2536506
4.5527694
4.6824952
5.0066308
1.8925807
5.2250373
2.9707323
-5.0741054
-0.72680251
-6.7708941
2.3688616
-3.2445355
-6.7870016
9.1558632
-7.3383292
0.55132753
-4.5658932
-6.1202442
10.686137
-7.1973114
5.1455724
5.900432
8.1890075
-8.8646526
2.7444083
-4.3332507
-4.5314018
4.5939209
-7.8384564
3.5742646
5.5815986
7.0618139
0.8826156
6.6217582
6.7842897
-9.7218164
0.60767458
12.284323
-10.401531
2.6877929
9.3343203
-10.748532
0.4214358
-9.4597261
1.2277917
-6.7821904
-6.469416
7.2854683
-9.6651057
-5.114128
8.3867674
0.92191657
-8.4876599
-0.54128277
-6.4416327
-2.9979893
-6.9269713
-3.2772234
-6.5696808
-9.2063729
-1.7551727
-7.4512002
7.1820812
-7.1751706
-3.6245823
7.9145937
1.2752292
-7.9143036
7.7263602
-7.963803
7.6097284
0.31104488
7.037999
7.1707687
3.2154871
-4.7485731
7.9640602
-7.1821437
10.386557
-12.337283
5.1551398
6.171733
-9.775187
-6.1655504
5.384379
4.0237228
5.646848
9.2126729
-10.561241
1.3485681
-10.799329
12.396409
-1.5970799
-16.777177
5.977848
-7.5645038
2.1746194
0.16312848
2.0982456
0.73209693
2.8257272
-3.5578241
-1.7878838
-1.9733575
-3.8693624
-5.8435108
9.7128732
1.8770751
-5.4074893
3.5304142
-4.7212136
6.5982887
0.063180979
-5.4706703
7.1238423
-4.2981151
7.2869707
-4.6580326
2.6289381
5.326293
9.3400327
-4.0137397
7.1164912
-3.1011158
3.1570054
-7.1707451
-2.6865054
-4.859544
7.8653223
-5.8265933
6.3779209
-0.6116717
6.9895925
-5.8906853
1.3408035
-0.88405454
3.7984406
3.8859641
7.1893937
-5.2968131
5.0558778
-8.1569936
-2.1148673
-7.274378
-1.6927794
-0.37434349
-4.9479492
5.3222927
6.558665
-6.9330084
-5.2846707
9.6060534
-4.3213827
7.9592253
-5.4757903
-2.4834351
-4.4769154
-4.6014188
4.0537298
1.9268641
9.8860894
0.25817174
-5.733962
-5.1475325
-4.2049031
4.1140171
2.7171221
-1.9793404
3.489789
2.4771975
-0.76532918
0.46833725
0.90678488
2.0098422
-1.5415049
0.3308847
1.6789575
-1.0019956
1.6083842
0.61421816
-1.540742
-0.085392678
-1.356443
4.37253
1.3092046
-2.2271145
0.68560961
1.3536289
-5.0101934
7.4755458
-4.091526
-3.3840198
8.8291747
1.5337847
-5.6253107
6.53316
-5.8561149
3.3776909
-5.480738
-2.2476198
-8.1037347
-5.4376163
-4.3587358
7.88915
-5.3541374
8.4929946
1.7697681
-8.2500039
10.019772
-4.8283543
2.3538973
-4.1176755
4.7318936
-1.7699343
-2.3477412
4.3998175
4.1940213
-4.3855089
-0.14755989
0.014308592
3.1114124
-3.0971038
-0.56084529
-3.1295614
-7.6957882
7.9897003
-3.7398858
8.5859156
4.2241744
-3.6647433
12.250659
3.1229048
-6.7876481
-5.1930072
-5.7592548
-2.469908
4.9452463
-0.93534945
-5.632549
-7.3432425
5.6516256
0.16159312
-9.6005805
10.722537
-1.1219562
-5.570183
-0.97411811
6.4551312
-8.1004199
0.70814529
-5.3709281
5.3516086
6.4735041
6.6350972
-12.187269
-0.27128792
-6.7793363
1.3281834
-8.1075197
6.9706911
-3.7259902
8.6244033
-10.963934
7.3393517
-9.6887047
7.3075934
-0.79992629
7.3464335
-4.6049475
2.9623046
-9.1942383
-7.4650235
7.1761152
-3.742995
8.0218776
-4.246042
12.26792
-7.6555418
7.0321881
5.2357315
-1.3960034
-5.7122917
-6.9516083
5.5556049
0.080579731
5.7142666
8.1147406
-5.1440083
7.3879381
4.4928354
-8.8260862
-3.345621
-11.954414
3.1283282
-6.0539824
-3.3007227
6.4290509
4.8882848
5.7892554
1.8976491
-5.2996623
8.5211068
-9.5719215
-2.3931464
-4.0762696
6.9045269
-1.3489221
4.3942445
-8.4705141
-2.3879459
5.6745483
-0.62609805
-5.0484502
1.1684277
-6.2825556
2.3892084
-8.6717641
7.2758973
-7.8171801
2.3375472
-9.9020511
-5.5767562
-5.6221107
-2.4086127
-5.5551903
-7.8277729
5.4191602
-1.8499248
5.8764354
-8.7201389
8.0940409
-3.67627
9.0954302
-5.7935807
-1.1333906
6.2368078
1.3729207
10.468351
0.52361656
-6.689167
-2.8159753
5.1810449
-2.3650695
1.2980416
-4.4243326
0.75671227
3.560628
5.2685466
-9.8977656
0.12257866
-6.5665883
-4.1120222
8.135745
5.4940312
12.052696
1.4914553
9.2619863
-1.1262414
10.753442
4.5206066
4.6985721
-4.0162801
5.3648483
1.3060127
6.4611526
-0.77819491
3.407133
1.3200506
1.2971963
1.0593918
2.511448
1.3745161
3.8522514
0.29442732
-1.6789302
4.6577432
-8.8626463
-1.0762186
-8.0635519
1.271635
5.8156197
-4.5439847
3.7732453
-1.0561232
1.4081758
-0.29406659
-1.4011999
1.6952666
-3.4686412
-2.1665291
-0.48757164
-2.043977
2.7295866
2.3285529
-2.242015
-1.2266263
0.74243226
-6.1800486
4.7383057
-4.8858656
-0.69184425
9.3279278
-3.6188561
0.52175221
-1.2649587
-2.6078092
-3.3815421
3.4669348
11.574724
0.67593506
6.0002992
8.6656353
5.1976915
0.053683208
5.0137727
-7.1941093
-4.838469
-7.4653972
-0.49470609
5.9604252
2.2815661
9.6015046
7.5172976
6.1683755
-2.3021386
-11.87406
8.2528804
-2.888032
6.6558004
-1.6073502
-7.0644138
6.9832009
3.4033558
-7.9051175
0.087937414
-6.9764764
-9.8645084
-0.45882894
8.5528698
-10.009522
8.8761314
5.8781421
1.573058
-4.7477476
-0.8743631
4.6755996
0.022972526
10.776414
-1.2105218
-6.8335372
8.044059
-4.6050978
3.5288792
0.87991503
2.609874
2.5751814
1.5190582
-5.3144792
-9.8584638
-3.1107226
-1.8994708
-6.4947424
0.79754414
-3.1260971
6.1829906
-2.6541113
3.6995554
5.3899477
6.7981236
-1.9767097
-4.9562987
6.2980926
-2.5985371
4.1995864
)
;

boundaryField
{
    wall-4
    {
        type            calculated;
        value           uniform 0;
    }
    velocity-inlet-5
    {
        type            calculated;
        value           nonuniform List<scalar> 8(-1.7582594 -1.7582594 -7.3846893 -4.5714743 -7.3846893 -6.446951 -4.5714743 -6.446951);
    }
    velocity-inlet-6
    {
        type            calculated;
        value           uniform -5.6264299;
    }
    pressure-outlet-7
    {
        type            calculated;
        value           nonuniform List<scalar> 8(4.958816 8.4672952 6.1439342 10.573248 8.5890953 6.9351635 7.3582974 9.8026197);
    }
    wall-8
    {
        type            calculated;
        value           uniform 0;
    }
    frontAndBackPlanes
    {
        type            empty;
        value           nonuniform List<scalar> 0();
    }
}


// ************************************************************************* //
