/*--------------------------------*- C++ -*----------------------------------*\
  =========                 |
  \\      /  F ield         | OpenFOAM: The Open Source CFD Toolbox
   \\    /   O peration     | Website:  https://openfoam.org
    \\  /    A nd           | Version:  9
     \\/     M anipulation  |
\*---------------------------------------------------------------------------*/
FoamFile
{
    format      ascii;
    class       volVectorField;
    location    "50";
    object      U;
}
// * * * * * * * * * * * * * * * * * * * * * * * * * * * * * * * * * * * * * //

dimensions      [0 1 -1 0 0 0 0];

internalField   nonuniform List<vector> 
918
(
(0.40796455 -0.00026259637 0)
(0.0090457156 2.9576277 0)
(-0.0056922135 1.3119873 0)
(0.29045151 -0.0083920385 0)
(-0.012298526 2.250702 4.4053481e-20)
(-0.011743961 2.9485786 -3.3182838e-18)
(0.9093579 1.4198623 8.0096016e-19)
(0.1035278 0.065199087 -2.6266783e-20)
(1.9883022 0.0044799725 0)
(0.014307158 0.9083879 0)
(-0.0060175731 0.88625894 0)
(0.064530002 0.0091414385 0)
(0.012835756 2.9163565 0)
(0.013650397 2.7913163 0)
(0.096040033 3.1540894 3.1819653e-19)
(-0.011044292 2.1148301 2.1664728e-20)
(-0.024576555 -0.01884908 1.6017869e-18)
(0.19622413 1.4217305 5.8582348e-19)
(0.3835434 0.0095509523 0)
(-0.0060163661 0.88845076 0)
(-0.024148717 0.030135293 -1.2666737e-18)
(1.0481833 -0.021231173 0)
(0.54571547 -0.026835879 0)
(0.24704225 -0.0056176932 0)
(0.028279352 0.089721157 0)
(0.020646719 2.6245067 0)
(-0.0099927375 2.9057925 1.2183896e-18)
(-0.018763846 1.3701424 0)
(-0.037815417 1.6394867 0)
(-0.014576645 1.3420692 0)
(-0.010394513 2.8221524 0)
(-0.0034180658 2.3087368 -3.4627956e-20)
(-0.0057857 2.0865682 0)
(-0.018162058 2.9813198 -1.2341614e-22)
(-0.018376322 3.007022 2.5762761e-18)
(0.0008586822 3.0015933 0)
(0.31101862 -0.0015922068 0)
(0.41627286 0.88250668 3.5480985e-19)
(1.0372212 1.4697249 -9.9979052e-19)
(1.0544664 1.2851673 1.0215955e-18)
(0.86932145 1.5976753 -1.82745e-19)
(0.74002301 1.5181773 1.0356317e-18)
(0.18917507 0.10287395 2.5630745e-20)
(0.094121542 0.028810693 0)
(1.2914472 0.74899504 0)
(0.1743647 0.098949695 1.1766127e-19)
(0.11114736 0.068986256 -1.2211737e-19)
(0.25754683 -0.012332804 0)
(1.9896767 0.0017112757 0)
(1.9887601 -0.0013035006 0)
(1.3550972 0.0032369587 0)
(1.8675767 0.0067234662 0)
(1.7380829 0.0037916375 0)
(0.026434102 2.0345956 -8.3514784e-19)
(0.037359826 1.1957702 0)
(0.041417882 1.0066198 0)
(0.011451777 1.1575112 0)
(0.001893859 0.85113975 0)
(-0.0030097886 2.2347377 0)
(-0.0076921023 1.1377524 0)
(-0.0041120485 0.875107 0)
(-0.0096974835 1.1617467 0)
(-0.0042605015 0.89077956 0)
(0.5058815 0.021109842 0)
(0.16169731 0.023980674 0)
(0.10545523 0.03031612 0)
(0.12138623 0.024949012 0)
(0.024492084 0.014821043 0)
(0.016738314 3.0145164 1.2696445e-18)
(0.012390086 3.0113841 0)
(0.0077272191 3.0035755 0)
(0.013324534 3.000492 1.3519821e-23)
(0.010556001 2.9476309 -1.8132789e-18)
(0.016837495 2.9848984 0)
(0.013431392 2.8938526 0)
(0.017528021 2.9241944 2.9030629e-24)
(0.013818631 2.8183351 0)
(0.017254354 2.9109732 0)
(0.010864263 2.7552295 0)
(0.24204598 3.5989104 0)
(0.17242599 3.5331369 0)
(0.1278517 3.2876006 -2.9739754e-19)
(0.046265851 2.9863285 0)
(-0.027089455 2.2915101 0)
(-0.016514223 2.3402232 -2.1348418e-20)
(-0.011203571 2.1394114 4.5098063e-21)
(0.10635671 0.037296416 -5.4862728e-19)
(-0.045332589 -0.0075977056 -5.2105484e-19)
(0.15447314 0.0039995642 -1.6845252e-18)
(0.014651723 -0.0064881446 -1.1367905e-18)
(0.18037749 1.1755727 0)
(0.3014417 1.5822511 -6.2821779e-19)
(0.37750104 1.5391609 1.0441171e-18)
(0.53217165 0.042366455 0)
(0.3390333 0.033024011 0)
(1.219013 -0.0012566359 0)
(0.73668985 -0.035104308 0)
(0.64415777 0.017828263 -3.2091462e-18)
(0.64941279 -0.025310266 2.5102542e-18)
(0.0017775356 1.1641781 0)
(0.0061323877 0.90357928 0)
(-0.04393129 1.4038954 0)
(-0.017800838 1.2038691 0)
(-0.013594787 0.88339122 0)
(-0.11264438 0.15374875 3.8999136e-19)
(0.094833759 0.088769583 0)
(0.5110534 0.022446755 0)
(0.2473168 0.015045657 0)
(0.068443452 0.02168747 0)
(0.013478468 0.0013521365 0)
(0.0032221789 0.027336359 0)
(0.92701934 0.053926738 0)
(-0.10269626 0.037773213 0)
(-0.18631269 -0.11035296 1.9552177e-18)
(0.0010905844 2.8578364 1.0636337e-18)
(0.020336102 2.9010134 0)
(0.032964146 2.8788378 0)
(0.01489944 2.7063694 0)
(-0.010526716 2.9856629 1.1763842e-18)
(-0.009175055 2.8904907 0)
(-0.011798076 2.9907259 -3.6152502e-18)
(-0.0096040841 2.9158237 1.2371606e-18)
(-0.024819016 1.8352594 0)
(-0.011951598 1.8504328 0)
(-0.0096479358 2.3213789 3.763597e-22)
(-0.0080529574 2.2877825 0)
(-0.0094534762 2.0904694 0)
(0.65788573 0.021821851 0)
(0.33885881 0.012262464 0)
(0.24055707 0.032867445 0)
(0.6258114 0.0057611481 0)
(0.30263546 0.01670246 0)
(0.50105856 1.0614823 -4.3454556e-19)
(0.5341714 1.0983098 0)
(0.39968473 0.87247513 5.6102604e-20)
(0.30516824 0.64969976 0)
(1.1691724 1.3164662 -2.9488488e-19)
(1.1445622 1.1056695 5.8610884e-19)
(0.49417538 1.6678517 0)
(0.6890611 1.6718177 0)
(0.56238407 1.5634793 0)
(0.15519548 0.26130344 -4.5206678e-19)
(0.19368676 0.060122797 0)
(0.066504904 0.029758171 3.2818145e-19)
(1.2756462 1.138166 0)
(1.3604758 0.94527856 0)
(1.2220671 0.92573635 -4.9848141e-19)
(1.428371 0.7492981 0)
(1.3428758 0.57754534 6.1602694e-20)
(0.59768807 0.025095331 0)
(0.55777945 0.015534727 0)
(0.27460904 0.011401293 0)
(0.53252259 0.010385176 0)
(0.54428901 -0.0109011 0)
(0.26058166 0.0083980033 0)
(1.4981833 -0.00094252498 0)
(1.8698276 -0.00057570284 0)
(1.7318298 0.0010410149 0)
(0.04124028 2.2515539 4.5476379e-19)
(0.049883061 1.9578138 0)
(0.033077314 2.3423808 7.2364973e-19)
(0.019801373 2.0975787 -5.9844312e-19)
(0.1450756 1.4209809 -4.8349138e-19)
(0.072627985 1.2734301 0)
(0.086342879 1.2042505 0)
(-0.001668156 1.1359337 0)
(-0.0031773758 0.83734979 0)
(-0.0060177042 2.4226785 -7.4298268e-22)
(0.00058505642 2.2322141 0)
(-0.00032350012 2.4265072 -3.7527328e-20)
(-0.0035792842 2.2323781 5.9220422e-20)
(-0.0092041832 1.1298667 0)
(-0.011032145 1.1321944 0)
(-0.0054459223 0.8499502 0)
(-0.0048251149 1.1718582 0)
(-0.0015059675 0.89831182 0)
(0.84727048 0.042371516 0)
(0.56252146 0.023255272 0)
(0.7864621 0.035070903 0)
(0.44176151 0.010920809 0)
(0.18380544 0.0045408781 0)
(0.29613439 0.026475007 0)
(0.22821635 0.064094406 0)
(0.16544182 0.015367081 0)
(0.0036648118 3.0720088 -1.086306e-20)
(0.010772059 3.0616335 0)
(0.016159433 2.9688247 0)
(0.013246621 2.8677492 0)
(0.71576781 4.1696605 0)
(1.2061359 3.2392719 8.442539e-19)
(0.067459178 3.1202759 0)
(0.027733721 2.8970002 0)
(-0.019625401 1.8499775 0)
(-0.027476843 2.098108 0)
(-0.024711554 1.9571786 0)
(-0.024253114 2.7644455 -1.2407028e-20)
(-0.02214281 2.4776244 0)
(-0.023100706 2.6165384 0)
(-0.0050453975 2.1711044 2.9687323e-21)
(-0.0097849183 2.3979884 2.9034177e-21)
(-0.011153121 2.3722802 -4.6537799e-21)
(-0.0083283556 2.1504283 0)
(0.12165702 0.0059555351 7.9099109e-19)
(-0.11564819 0.013874766 -7.8417079e-19)
(0.30367713 1.7044151 0)
(0.20921128 0.95827627 -3.8214394e-19)
(0.22390802 1.8450093 -1.179364e-18)
(0.13653672 1.4122292 1.1831917e-18)
(0.30701927 0.0019825061 0)
(0.47611534 0.0044799265 0)
(0.48751077 0.022736075 0)
(0.31795174 0.0103157 0)
(0.00064521886 1.1731862 0)
(0.005454018 1.1662281 0)
(0.0035255206 0.90237949 0)
(0.1613383 0.10388364 1.0940794e-18)
(0.11257848 0.11347201 -1.292316e-18)
(0.10982026 0.084285344 0)
(1.2618656 0.14347244 2.2144484e-20)
(1.1384906 0.11815264 0)
(1.1092565 0.095777681 0)
(0.75510815 0.034526084 0)
(0.12480605 -0.048406877 0)
(0.057503057 -0.062096391 -3.1813641e-18)
(-0.20331379 -0.0069469545 1.2345936e-18)
(0.0020331961 2.9836819 1.063388e-18)
(-0.0038400477 2.8636965 4.4863252e-20)
(0.0038278716 3.0539613 -2.2745541e-20)
(0.012747196 3.047244 8.188976e-19)
(-0.009404427 2.9952494 4.0211664e-20)
(-0.008393122 2.9361629 -1.6144217e-22)
(-0.013162504 3.0201633 -7.5804842e-19)
(0.0012117658 3.0231406 5.4638049e-19)
(0.0066711764 3.0398328 -8.1948674e-19)
(0.74883814 0.028446998 0)
(0.70864093 0.032405884 0)
(0.38658185 0.016934375 0)
(0.4509342 0.016832624 0)
(0.40783851 0.048997394 0)
(0.29645886 0.010804298 0)
(0.33644365 0.0068932461 0)
(0.35479072 0.022668991 0)
(0.20587101 0.0091883163 0)
(0.68503871 1.3439686 -1.724355e-19)
(0.75271642 1.42506 0)
(0.15860043 0.33277844 1.083894e-19)
(0.33599421 0.75750513 8.2320989e-19)
(0.35183604 0.78286414 -4.8235356e-19)
(0.21547189 0.45268441 9.4216094e-19)
(0.42835107 0.97810968 2.300208e-18)
(0.17339833 0.35596753 5.0794556e-19)
(0.17047652 0.041019057 1.2014401e-18)
(0.17734609 0.069813162 3.2146243e-19)
(0.050089784 0.006398501 6.0748996e-19)
(1.4671268 0.56679995 2.620838e-19)
(1.3340354 0.40218893 2.3296111e-19)
(0.023072597 2.4001557 2.6754925e-19)
(0.010723301 2.1695194 0)
(1.0018178 0.064872062 0)
(0.91563644 0.052747652 0)
(0.65466217 0.029735823 0)
(0.0099779594 3.0770399 0)
(0.016931049 2.9388281 1.5957651e-18)
(0.016523129 2.9537462 0)
(0.013490208 2.8434302 -1.5929375e-18)
(0.0093905665 3.0918213 3.6511043e-19)
(0.0036389733 3.0887824 0)
(0.84181172 1.7106617 -7.6420627e-20)
(1.1046285 2.315627 -2.5538658e-22)
(0.82163283 1.8267031 -7.3967848e-19)
(0.013210789 2.9949712 -9.7553269e-19)
(0.033281481 3.0314244 0)
(0.011361431 2.868726 0)
(-0.012127663 2.4064614 -2.4170833e-20)
(-0.0069170672 2.4103616 -2.9960536e-21)
(-0.0038328154 2.211686 -4.0992221e-22)
(0.34344569 1.5426213 1.2103155e-18)
(0.21630147 0.78115882 -8.3079113e-19)
(0.087361874 2.1617535 8.1992081e-19)
(0.16496232 2.0229303 -1.0099264e-18)
(0.082174013 1.697585 1.2605339e-19)
(0.013384656 3.1145954 -2.4140856e-18)
(0.016222297 3.1195825 2.7328582e-18)
(-0.0088531523 2.9800511 1.1240412e-18)
(-0.0057595087 2.9767461 -1.1035012e-18)
(-0.0077659353 2.8755356 -1.1450811e-18)
(0.0043585893 3.1054925 -2.8389682e-18)
(0.0092200673 3.1050072 2.8188928e-18)
(0.3897233 0.84423303 0)
(0.34174642 0.77318051 -1.8495494e-18)
(0.13652325 0.27144116 8.2169192e-19)
(0.41917112 1.0990667 1.4469613e-18)
(0.19835295 0.45418192 -2.2495187e-18)
(1.4006502 0.23160205 2.259433e-20)
(1.4633915 0.39049319 0)
(1.2869936 0.24202749 5.9576066e-20)
(0.006860623 2.4321627 -1.6551671e-21)
(0.0079128828 2.4163164 0)
(0.004612672 2.2056489 0)
(0.39413479 1.4108944 -4.3552018e-19)
(0.42701379 1.2696845 -9.8094964e-19)
(0.20607552 0.59467529 1.7719162e-18)
(1.192759 0.0091818146 0)
(1.3376857 0.0046510845 5.0474125e-19)
(-0.029817811 1.8016854 0)
(-0.042791162 1.8261044 0)
(1.5119147 0.0017073285 5.8533848e-21)
(1.0961302 0.015630935 1.1519605e-18)
(-0.021744141 2.7699613 1.6087636e-20)
(-0.02053896 2.8115753 0)
(0.05762594 3.1739596 7.8409424e-19)
(0.51584246 3.5265629 0)
(1.6371722 0.92816836 -2.8182961e-20)
(1.2629521 0.017287175 2.2749128e-20)
(1.3791194 0.031946961 0)
(1.998829 0.012666825 1.1536991e-20)
(0.11598099 1.8514655 0)
(0.1242186 2.7411749 0)
(-0.014992647 1.7515459 0)
(0.0044142881 2.8336121 2.8888415e-20)
(-0.018995847 2.7900028 5.8416047e-21)
(1.2107809 0.058401526 2.4237931e-20)
(1.4996554 0.070449045 0)
(1.5779393 0.10683679 0)
(-0.028232361 2.1162102 0)
(-0.017171505 2.808451 0)
(-0.0077932197 1.7776164 0)
(0.3864847 2.0020236 -3.1635639e-19)
(1.3004817 0.013971995 0)
(1.0956601 0.012306843 0)
(1.9714991 0.016146152 6.6419842e-19)
(1.6591484 0.019473492 -7.5500317e-19)
(1.9059166 0.013405721 0)
(-0.022856296 1.9284013 0)
(-0.023350142 1.8189422 0)
(-0.021651511 1.8746394 0)
(-0.011266667 1.7693591 0)
(-0.0140243 1.7586276 0)
(-0.016928708 1.7647249 0)
(1.432253 0.050074819 0)
(1.257517 0.03829203 2.0085223e-20)
(1.0947084 1.7481049 4.8608249e-19)
(1.9563334 0.0064481693 -6.7947241e-19)
(1.7059643 -0.001122064 8.2069511e-19)
(1.8968061 -0.0030737739 0)
(1.2973687 0.0089012562 6.9086684e-19)
(1.173228 0.0038058225 -8.5901363e-19)
(0.91595678 0.021049883 0)
(-0.021291331 2.8443291 0)
(-0.023443442 2.817731 -1.6668001e-20)
(-0.020748355 2.8360587 1.061933e-20)
(1.772724 0.39602485 5.0775394e-19)
(1.702094 0.18759178 0)
(0.070346304 3.056437 -1.4423332e-18)
(0.042132783 2.85425 -1.0047131e-19)
(0.17258398 3.1795294 2.2030734e-18)
(0.15921822 3.2405102 -3.5073061e-19)
(0.15570883 3.27931 0)
(0.029616737 3.1337937 4.1159644e-19)
(0.079681267 3.1731371 1.4178467e-18)
(0.076245909 3.1971653 -7.6636451e-19)
(0.046381817 3.1100511 0)
(0.58946806 0.24217402 0)
(0.54579444 0.30204899 0)
(1.6075374 1.0046112 1.8277959e-20)
(1.5403437 1.1450595 5.588046e-20)
(1.7128947 0.81643929 0)
(1.7103339 0.7447717 0)
(1.2645093 0.025945416 -1.3777855e-18)
(1.0687977 0.020705428 1.7673073e-18)
(1.4038333 0.029232264 0)
(1.2401101 0.027046132 0)
(2.0033104 0.023863189 0)
(1.8745958 0.015018331 0)
(1.935725 0.016065104 0)
(1.7231417 0.0044186219 0)
(1.6630084 0.0058457639 0)
(1.7959843 0.0049609227 0)
(0.099495627 1.8397995 0)
(0.063044246 1.7928783 0)
(0.1549163 1.8966775 0)
(0.1698911 1.8744757 0)
(0.14539491 2.7627946 0)
(0.17992767 2.8430938 -4.9884605e-19)
(0.10353622 2.8332423 0)
(0.084287387 2.8563989 2.1326112e-19)
(0.030714945 2.8818717 -1.7129011e-19)
(-0.013858492 1.7513819 0)
(-0.011684097 1.7086113 0)
(-0.013739844 1.7571885 0)
(-0.01248708 1.7127329 0)
(0.011167193 2.3182823 1.0398985e-20)
(-0.016582985 2.8348104 -4.0514133e-20)
(-0.0014525068 2.8759599 2.0650852e-20)
(-0.0077357142 2.9086988 0)
(-0.018547405 2.8424786 -1.5904045e-20)
(-0.019023332 2.8378362 1.3168852e-20)
(0.011753084 2.3158857 -2.6516665e-21)
(-0.0093017358 2.6185986 5.3484878e-20)
(-0.014370706 2.6511244 -2.6212923e-20)
(1.270326 0.054340008 1.3832867e-18)
(0.96990696 0.050884135 -1.7642077e-18)
(1.2057599 0.06355461 -1.4610364e-18)
(1.0185046 0.057796689 1.8920944e-18)
(1.5302649 0.067110372 0)
(1.3746666 0.05483681 0)
(1.5954642 0.10048532 0)
(1.5475269 0.076053932 0)
(1.3956849 0.065008706 0)
(1.7039407 0.17366957 0)
(1.6228683 0.12003266 0)
(1.5004771 0.10492667 0)
(-0.022931331 2.6450896 1.4052898e-21)
(-0.025031822 2.3082862 0)
(-0.023223108 2.4742417 0)
(-0.016693562 2.8352462 -7.2016928e-21)
(-0.016473331 2.8458926 1.7125822e-22)
(-0.014810104 2.0159005 -2.8368129e-20)
(-0.021984002 1.9514801 2.8604207e-20)
(-0.02350448 1.8361715 0)
(-0.026668835 1.8465028 0)
(-0.026283131 1.8455153 0)
(-0.0083931832 1.7753099 0)
(-0.0016260142 1.7237216 0)
(0.52446772 2.0332627 5.2779244e-19)
(0.55187403 2.0175478 2.6852399e-19)
(0.58684503 2.6138435 -2.7911712e-19)
(0.38009273 2.7505681 7.1850566e-19)
(0.41912824 2.2349782 1.0673218e-19)
(1.413492 0.030577568 0)
(1.3380367 0.028543841 0)
(1.1495855 0.019814402 0)
(1.9819529 0.026467267 0)
(1.9618321 0.019459878 0)
(1.726341 0.024562289 0)
(1.6364689 0.023611274 0)
(1.6500612 0.02895005 0)
(1.3117895 0.032868877 1.3346998e-18)
(0.99426238 0.04106469 -1.6976256e-18)
(1.2660058 0.047232539 -1.3999641e-18)
(1.0614118 0.037845031 1.8056893e-18)
(1.0513219 1.7919973 0)
(0.927608 1.8877381 4.8263292e-19)
(1.2147627 1.667278 2.4075062e-19)
(1.2560945 1.6137511 -3.2074151e-19)
(1.2561885 2.6726846 9.2682686e-19)
(0.68030826 0.051228862 8.3125988e-19)
(1.7190566 0.21141058 0)
(1.7756558 0.31095183 -3.8765427e-19)
(1.6870709 0.25420825 -1.5467218e-20)
(1.5675828 0.18884238 0)
(0.19946447 2.9308305 9.9324222e-19)
(0.089712649 2.8166385 -2.0886307e-18)
(0.015209006 2.3941396 1.2969175e-18)
(0.09673339 -0.21264295 -5.8122469e-19)
(0.35300706 3.4476973 1.375739e-20)
(0.22686473 3.3609492 0)
(0.24000903 3.4145442 -1.9361441e-20)
(0.24731381 3.0820328 -2.4331173e-18)
(0.37769406 3.1715533 0)
(0.012939302 3.1197804 7.4315159e-20)
(0.016056261 3.1323573 -7.9179928e-19)
(0.030069114 3.1185423 1.2307087e-18)
(0.036007118 3.1483405 0)
(0.033383803 3.1553801 0)
(1.3282566 2.7610871 0)
(0.77343825 0.97290672 -9.1085154e-19)
(1.4250766 1.366656 -9.0036005e-20)
(1.3539945 1.4750798 0)
(1.2563301 1.4070161 -1.6892315e-19)
(1.4983332 1.243462 3.6619732e-20)
(0.27754442 0.35939248 -1.4632553e-18)
(0.67916551 0.26132557 -1.577771e-20)
(0.49556751 0.15177531 6.9540965e-19)
(0.55894743 0.34012876 5.1241575e-20)
(0.44017411 0.27415742 -2.0919848e-18)
(0.63097932 0.27750758 0)
(0.85449138 0.44235621 1.177112e-18)
(0.84967519 0.41376102 0)
(0.61710622 0.3152547 0)
(0.47738744 0.20937587 0)
(1.2570748 0.8530403 7.0588722e-19)
(1.7822473 0.43212276 -4.7709704e-19)
(1.7699026 0.61300452 0)
(1.7557621 0.54078152 0)
(0.63949464 0.13250067 9.9486334e-19)
(1.2594273 0.71561598 -6.5741057e-19)
(1.0073146 0.61286437 1.194761e-18)
(1.4892821 0.56459367 -1.1674081e-18)
(1.2332785 0.024564398 9.1444721e-19)
(1.2183531 0.024103087 -9.4539729e-19)
(0.9680194 0.019887783 0)
(1.4613653 0.04975148 0)
(1.3984798 0.038104587 -7.8312076e-19)
(1.2111236 0.027159532 7.733235e-19)
(1.8279153 0.046025233 0)
(1.6934783 0.033174606 0)
(1.9083305 0.016305689 0)
(1.6677504 0.023201777 0)
(1.9570236 0.033286791 0)
(1.9409867 0.028444923 0)
(0.049067569 1.797797 0)
(0.024123174 1.7484581 0)
(0.18712566 1.9256905 5.1080986e-20)
(0.36304267 1.9923231 1.7031492e-19)
(0.22946044 1.9577406 3.8893291e-19)
(0.26396223 1.9566548 -6.2102762e-19)
(0.23744693 1.952658 0)
(0.20814214 2.080703 -6.8767758e-20)
(0.18344413 2.0698692 0)
(0.38295246 2.1904821 -1.4793127e-19)
(0.35403219 2.469767 7.0845777e-19)
(0.27153781 2.0228677 6.1633113e-20)
(0.34142163 1.9636883 5.937438e-20)
(0.28596046 1.9617064 -4.8398519e-20)
(0.40153426 1.9466001 -1.2272435e-19)
(0.31187488 2.0482298 0)
(0.36734777 2.0494751 1.2808302e-19)
(0.049741997 2.5102467 -3.155476e-20)
(0.038058737 2.8683993 0)
(0.075975791 2.5963486 1.5313574e-19)
(0.066046045 2.6014494 0)
(0.062761867 2.8755847 -2.3736785e-19)
(0.047237073 2.9190853 0)
(0.0080269808 1.8990548 3.6462288e-20)
(0.023729493 1.9843297 0)
(0.013318062 1.8652115 0)
(0.0017388556 1.8437795 -4.1390517e-20)
(0.0084712681 2.8609249 -1.9571698e-21)
(0.01883814 2.8856328 1.9652838e-19)
(0.01030012 2.925736 1.3652573e-21)
(-0.001558746 2.2007861 -5.1645413e-21)
(-0.00049334182 2.1158217 -7.7985217e-21)
(-0.0074332846 1.7408379 0)
(-0.003604902 1.6958138 0)
(0.052005053 2.0862302 -3.1534059e-21)
(0.030232072 1.9381645 -5.025207e-20)
(0.034297858 2.0125753 4.724717e-20)
(0.061834861 2.0992868 0)
(-0.037086011 2.509934 5.456014e-20)
(-0.031690428 2.7471197 -8.8660533e-21)
(-0.030921748 2.6685445 2.2764208e-22)
(-0.0037659602 2.2036372 6.1095497e-21)
(-0.025104524 2.6975192 1.8099391e-21)
(-0.023805423 2.6697908 1.3329248e-20)
(1.2048563 0.043424496 -9.6897391e-19)
(1.2090613 0.038939502 9.5230183e-19)
(0.94069407 0.035379016 0)
(1.5316252 0.10797278 1.400319e-18)
(1.1475673 0.06255953 -1.543011e-18)
(1.0459395 0.055202536 1.7238225e-18)
(1.5600738 0.13751878 -1.8861993e-19)
(1.4553463 0.049801381 0)
(1.473328 0.057112383 7.7065501e-19)
(1.3380426 0.046710837 -7.6499126e-19)
(1.7657323 0.12319838 -4.5004792e-20)
(1.7274592 0.10117818 3.9209736e-19)
(1.858114 0.13236068 0)
(1.9067298 0.13085142 -1.4987315e-19)
(1.7597609 0.084460168 0)
(1.6236728 0.072107261 0)
(1.8579211 0.047775395 0)
(1.6552566 0.050266588 0)
(1.891203 0.091397833 3.0446144e-19)
(1.8667675 0.074093625 -6.5920601e-19)
(1.8945863 0.11258791 -3.0757174e-19)
(1.893081 0.10805697 -3.5806125e-19)
(1.8857882 0.15517386 6.7876742e-19)
(1.7613619 0.14542481 0)
(1.8130137 0.19671963 0)
(-0.031232669 2.5069405 5.6919041e-20)
(-0.025949349 2.3184825 8.8014492e-22)
(-0.026421629 2.316021 0)
(-0.030200419 2.6858451 -5.851263e-20)
(-0.024075879 2.6457975 -2.1688357e-21)
(-0.027441427 2.6789725 5.2859378e-21)
(-0.020923154 2.8533488 -9.8220564e-21)
(-0.019727254 2.7720685 -1.0707939e-21)
(-0.022434904 2.7397051 -4.8613613e-21)
(-0.015313701 2.8460246 2.8189657e-21)
(-0.021766784 2.8466443 -1.7082414e-21)
(-0.018538995 1.9191093 -1.7075955e-21)
(-0.0066610896 2.0380928 -2.4675215e-20)
(0.53780128 2.0152894 -2.2075504e-19)
(0.48976169 1.953429 8.7844659e-20)
(0.88735104 1.937459 -4.6805598e-19)
(0.70545835 2.0180656 -2.594862e-19)
(0.74654058 1.9787364 0)
(0.63787748 2.5728452 2.5984148e-19)
(0.694117 2.5919949 4.0665947e-19)
(0.44689462 2.6759391 1.1012176e-19)
(0.45876544 2.6665048 -7.4417502e-19)
(0.53987524 2.5971134 7.0772358e-19)
(0.54931349 2.629725 0)
(0.48034843 2.6936329 -6.4343571e-19)
(0.22545721 2.763683 1.2774165e-18)
(0.33327739 2.7505494 -4.8988456e-20)
(0.26807166 2.8427516 -1.75258e-18)
(1.0215182 2.5089882 1.0837404e-18)
(0.88788182 2.5273479 0)
(1.9575966 0.034432278 2.596304e-20)
(1.6653496 0.031713274 -2.2204663e-20)
(1.6865642 0.031922369 -3.8937633e-19)
(1.8865472 0.040763214 3.9024469e-19)
(1.9921028 0.04232658 0)
(0.96595917 1.7927648 0)
(0.96564328 1.692777 0)
(1.1627473 1.6048231 0)
(0.99424356 1.5878874 0)
(1.2629405 2.7036006 5.6581645e-21)
(1.1762924 2.5346491 0)
(0.92305262 2.2148853 7.0645876e-21)
(0.87181646 2.4868113 0)
(0.9879732 2.560663 -5.9077592e-19)
(1.0145639 2.549193 4.0329598e-19)
(0.67778421 0.091371423 0)
(0.63603993 0.087598175 2.3506383e-19)
(1.032659 0.11538882 1.2616463e-18)
(0.73178313 0.060650911 -5.1330303e-19)
(0.67490649 0.004922905 -1.4455065e-18)
(1.786767 0.36168285 -1.0692916e-18)
(1.6125724 0.42461025 -3.0159932e-20)
(1.2827746 0.32721348 1.3279534e-18)
(1.5718093 0.30498406 1.0613422e-18)
(1.3000948 0.17424299 -1.7013745e-18)
(1.2335998 0.18642864 2.1693443e-19)
(1.2629831 0.25638141 -4.9010729e-19)
(1.2759571 0.22560241 0)
(1.5665152 0.22682303 8.3515802e-19)
(1.7093245 0.27109919 0)
(1.703455 0.3209204 0)
(1.7905397 0.23332866 3.2686166e-19)
(1.8494951 0.28792066 -2.2981623e-20)
(1.8278191 0.35900813 -1.888218e-19)
(1.8035685 0.33437472 0)
(1.5807029 0.081444305 7.3377787e-19)
(1.8545602 0.11804892 8.8231375e-19)
(1.7969612 0.093568649 -6.9731501e-19)
(1.7992029 0.13510895 -6.0010298e-19)
(1.5738667 0.10952959 -1.0033539e-18)
(1.4264045 0.14596802 0)
(1.4473157 0.13944009 0)
(1.0900332 0.06605101 -6.2180996e-19)
(0.95135954 0.05636782 2.4968961e-19)
(1.726597 0.16190475 8.6163764e-19)
(1.8684085 0.22801279 -9.6670541e-19)
(1.8342524 0.23849998 8.877331e-19)
(1.7567692 0.22322089 0)
(1.8605944 0.19373008 0)
(1.8830214 0.17543883 -3.8579246e-19)
(1.8354214 0.16665357 -7.0379471e-19)
(0.72706295 1.4113558 2.9564958e-19)
(0.79663281 1.7518888 -3.1771986e-19)
(1.1656118 2.7357119 -3.6507682e-19)
(1.2800644 3.0963144 7.344035e-20)
(1.3238066 2.7843778 -7.2913245e-19)
(1.3725613 2.8491785 1.2342117e-19)
(1.2425945 2.5197717 2.278637e-20)
(1.3126293 3.0172591 -2.8406139e-19)
(1.3240106 3.037733 5.2504533e-19)
(1.2943502 3.2996681 -2.8597584e-20)
(1.407118 3.0641563 2.9544363e-20)
(1.4197054 2.9910953 0)
(0.7735432 1.0516444 -8.6132681e-20)
(0.19415418 1.2821807 8.6924187e-19)
(0.658327 0.50343225 9.7556943e-19)
(0.44792556 0.090231453 1.0691229e-18)
(0.48243906 0.33262291 1.1830089e-18)
(0.6285438 0.47671932 -1.9474886e-18)
(0.61306459 0.4697678 1.5830656e-18)
(0.50332964 0.35451444 -5.9756575e-19)
(0.32022953 0.24603508 1.3565969e-18)
(0.6765881 0.18082794 -5.6187516e-19)
(0.65340244 0.20269029 0)
(0.503753 0.13613065 8.0204827e-21)
(0.9333521 0.5934211 6.3006344e-19)
(0.86682241 0.51063471 -2.2989173e-18)
(0.69234848 0.48510563 9.5326724e-21)
(0.7022009 0.47076643 0)
(0.96424543 1.0089735 7.1490765e-19)
(1.2810667 1.1185484 6.3125876e-19)
(1.1749265 1.2362155 -7.2658542e-19)
(1.3525461 1.1589756 -2.4010895e-19)
(1.4147342 1.241075 -4.8697971e-20)
(1.3929901 1.2326067 4.9147472e-20)
(1.370378 0.92870336 -1.1517083e-18)
(1.4148686 1.0422356 2.2544053e-19)
(1.5140419 1.057096 0)
(1.5428759 1.0080163 -2.7828731e-19)
(1.6731441 0.46008257 3.1839283e-19)
(1.7917926 0.46299797 3.1138737e-19)
(1.7844 0.42900922 4.5598586e-19)
(1.660333 0.55312813 -6.4103384e-19)
(1.6877187 0.62568423 0)
(1.7217494 0.60365104 0)
(1.2558956 0.45434977 2.9026704e-20)
(1.0743683 0.30118838 0)
(1.1509115 0.28121286 6.4548122e-19)
(1.2637063 0.33718505 -1.2413279e-20)
(1.4868491 0.61122206 3.0223363e-18)
(1.3925621 0.71014184 8.5592628e-19)
(1.3561338 0.60974173 -9.7100819e-19)
(1.0899004 0.52320316 1.0608542e-18)
(1.0401027 0.51466892 6.2734416e-19)
(0.96718846 0.44706189 -6.1532857e-19)
(1.6906095 0.049484056 6.5331976e-19)
(1.9540727 0.04820573 0)
(1.922834 0.053729972 4.4547118e-19)
(1.7092135 0.049408926 -9.9393471e-19)
(1.938568 0.049620867 4.9916199e-19)
(1.8716169 0.033565893 -1.061431e-18)
(1.682735 0.034834007 0)
(1.5663204 0.036386076 -2.2399347e-19)
(1.837209 0.028356828 5.5644705e-19)
(1.6615685 0.028812351 -2.881819e-19)
(1.5964225 0.035589869 2.1147388e-19)
(-0.0029539494 1.7560171 0)
(0.0091032796 1.8332167 0)
(0.018032014 1.7700526 0)
(6.3339422e-05 1.7176169 0)
(0.083279377 1.9034667 -1.3461823e-19)
(0.10102255 1.8874022 5.2821843e-20)
(0.1629969 2.0273778 -6.2311344e-21)
(0.14937317 1.9531213 -2.5225939e-20)
(0.041859029 1.9560333 6.2037169e-20)
(0.05055308 1.960156 -4.87309e-20)
(0.073486254 1.8909686 -2.3234001e-20)
(0.054330886 1.8649205 1.0695031e-19)
(0.032001749 1.8371903 1.7069736e-20)
(0.022475955 1.8588758 9.6258718e-21)
(0.10466356 2.5347072 -1.645692e-19)
(0.1084305 2.5631602 0)
(0.17965519 2.300201 1.1769699e-19)
(0.17121808 2.1425124 5.8289708e-20)
(0.29365167 2.2502966 -1.1005662e-19)
(0.23265523 2.5712668 0)
(0.27610884 2.5608516 -6.8139566e-19)
(0.32949589 2.4467563 4.9003615e-19)
(0.25333627 2.2298596 -2.7024261e-19)
(0.19697544 2.3675072 1.9157671e-19)
(0.17722552 2.4646039 0)
(0.031249983 2.2807598 -3.6234457e-20)
(0.024465615 2.6160142 -6.1719471e-20)
(0.023354481 2.4135624 0)
(0.0243425 2.6683671 -1.6035944e-20)
(0.045034538 2.5144971 2.9932689e-20)
(-0.011149939 1.8446977 -9.8766936e-21)
(-0.011335617 1.8262385 1.5125708e-19)
(-0.0056145122 1.8488699 -4.8707863e-20)
(0.0043247623 1.8806564 -4.6122711e-20)
(0.0078794657 1.9065652 0)
(-0.0095387875 1.8164431 0)
(-0.0057094052 1.7530274 -4.4897372e-20)
(-0.0092663904 1.8139052 1.3254729e-20)
(-0.0086216778 1.8120594 0)
(-0.005289612 1.7387649 -3.2085555e-20)
(-0.0019470349 1.701176 6.6709361e-20)
(1.6863947 0.068564872 0)
(1.6780346 0.069788225 -7.0793333e-20)
(1.9573969 0.082263199 -5.5123521e-19)
(1.8520086 0.088374402 0)
(1.7095852 0.076354765 0)
(1.9188197 0.069819116 -6.2652447e-21)
(1.9201479 0.068525667 8.4625086e-19)
(1.782666 0.057362632 1.080496e-18)
(1.6506395 0.053886602 0)
(1.57028 0.064443094 0)
(1.7731109 0.071969286 5.4165581e-19)
(1.6105263 0.07718901 0)
(1.5666979 0.06495987 0)
(-0.0212384 2.3195353 0)
(-0.0098780657 2.0696881 -9.3595282e-21)
(-0.017543538 2.2059412 -1.9444784e-20)
(-0.0075227431 1.8254838 0)
(-0.01822719 1.9724573 -1.9408284e-20)
(-0.017675974 1.897931 9.3792315e-21)
(-0.012655246 1.8303805 0)
(0.49123438 1.8654297 0)
(0.49785375 1.8441569 -2.0940468e-19)
(0.42658234 1.7415776 0)
(0.604222 1.8755337 9.0784418e-20)
(0.68106897 2.0085922 0)
(0.62643957 1.9726832 1.8955093e-20)
(1.1064584 2.7583483 -2.2573641e-20)
(1.0407208 2.5258515 -1.2472448e-18)
(1.0389183 2.4233113 1.4326838e-18)
(0.91793677 2.5123192 3.5243153e-19)
(0.90408429 2.5597942 0)
(0.96967818 2.5399291 0)
(0.99579449 2.5127088 0)
(0.97561905 2.5143972 -1.2763571e-18)
(0.73231584 2.500344 -5.8673217e-19)
(0.85331856 2.527547 -1.3751073e-19)
(0.85447668 2.4791951 1.1005423e-19)
(0.74350492 2.5512469 0)
(0.84439757 2.5399816 0)
(0.79962813 2.5643632 -4.4821578e-19)
(0.79885491 2.5542143 0)
(0.92263664 1.5047874 0)
(0.70232395 1.1620029 -9.1528629e-19)
(0.81821807 1.2295609 -5.5198877e-20)
(0.74439341 1.3311381 0)
(0.72143559 1.2589262 1.3970959e-18)
(1.1897848 1.2826152 -2.0253906e-19)
(1.1714241 1.4417467 0)
(1.1925541 1.3922241 2.9272517e-19)
(0.9898177 1.4547725 0)
(1.0013654 1.3205687 0)
(1.2361551 2.7810886 -4.0468826e-19)
(1.1971626 2.8199401 -3.0247105e-19)
(0.98746041 2.3137679 5.3041297e-19)
(0.98914359 2.3472765 -1.7371659e-19)
(1.2100063 2.7691309 0)
(1.1684885 2.7228631 2.2013915e-19)
(1.1905467 2.6048338 -3.8425647e-19)
(1.1066767 2.4548133 -2.6571323e-20)
(0.66671217 1.6202058 0)
(0.69177907 1.4417666 -2.6017194e-19)
(0.81589822 1.6170982 0)
(1.0628515 0.22219191 0)
(0.65223794 0.10828064 0)
(0.45114368 0.077548394 0)
(1.0457179 0.22238167 -1.0076121e-18)
(0.71235505 0.14317093 5.8008667e-19)
(0.97823968 0.050247291 -4.9643295e-19)
(1.1060887 0.10529377 0)
(1.0896008 0.10991994 2.2029509e-19)
(0.77552492 0.023949591 8.8187666e-19)
(0.67935409 0.017202582 -5.5565163e-19)
(1.2970422 3.4230786 -2.2846472e-19)
(1.28403 3.3562806 0)
(1.3150049 3.3800762 -5.72313e-19)
(0.51549012 3.489122 5.3167826e-19)
(0.74815211 3.0235104 -4.1663201e-19)
(0.64674594 0.97624519 1.0549298e-18)
(0.59682478 1.0136299 0)
(0.43057158 0.40501023 -2.7163303e-19)
(0.61132962 0.82204165 1.5126005e-18)
(0.65578487 0.38591379 -3.5426747e-19)
(0.57976319 0.56456903 4.1659861e-19)
(0.78390357 0.57673998 8.5676237e-19)
(0.88357773 0.63412318 0)
(0.8327947 0.70215477 0)
(0.72427645 0.61765609 0)
(1.5687389 0.88119535 7.3901105e-20)
(1.4392838 0.787913 -8.1242861e-19)
(1.451612 0.84008597 6.0605367e-19)
(1.5179425 0.74094187 -6.0698514e-19)
(1.6644195 0.74642287 0)
(1.6711925 0.81795615 -1.3561463e-19)
(1.0862678 0.46711183 -1.3844351e-18)
(1.1239214 0.46284488 -1.6403653e-18)
(1.0020337 0.40697115 1.0847352e-18)
(1.0000028 0.37145364 -1.0943683e-18)
(1.072139 0.33461024 -8.4875791e-19)
(0.9652465 0.3126562 1.053429e-18)
(1.921135 0.051048893 -5.3002251e-19)
(1.9515573 0.05431486 1.0709218e-18)
(1.6973816 0.05069657 6.6033345e-19)
(1.7149823 0.057273928 -7.8552481e-19)
(1.810919 0.069542051 0)
(1.9564849 0.069318479 -1.3767579e-18)
(0.08649163 2.1309208 1.4788578e-20)
(0.082125981 2.0848214 0)
(0.12395161 2.1221486 2.1561277e-19)
(0.14130152 2.1118477 -1.9707176e-19)
(0.12479576 2.0500456 1.1007045e-20)
(0.10918431 2.0452005 0)
(-0.0018663966 2.1106408 0)
(-0.010561435 1.9181738 8.5642823e-21)
(-0.0099199008 1.8806054 -7.7490676e-21)
(-0.018443312 1.9761033 4.1704222e-21)
(-0.012490491 2.2451035 1.233514e-20)
(-0.011425835 2.2675912 -1.4800617e-21)
(0.68031384 1.6816895 -6.1374889e-19)
(0.63450656 1.6999283 6.4788778e-19)
(0.63757266 1.8416397 -6.3949086e-20)
(0.60304592 1.6922942 2.1284781e-20)
(0.89819373 1.8397055 0)
(0.76669062 1.94752 1.9471789e-19)
(0.82469342 1.9403442 -1.8904264e-19)
(0.70256755 1.8862822 6.3484992e-20)
(0.7520593 1.7568263 0)
(0.82010818 1.7330499 0)
(0.71010263 2.4728389 8.5943208e-19)
(0.7083481 2.5465989 1.5357946e-18)
(0.75432047 2.5431042 -1.1033048e-18)
(0.62677418 2.5536322 -2.2750563e-19)
(0.61458384 2.6004415 3.8117822e-19)