/*--------------------------------*- C++ -*----------------------------------*\
  =========                 |
  \\      /  F ield         | OpenFOAM: The Open Source CFD Toolbox
   \\    /   O peration     | Website:  https://openfoam.org
    \\  /    A nd           | Version:  9
     \\/     M anipulation  |
\*---------------------------------------------------------------------------*/
FoamFile
{
    format      ascii;
    class       volScalarField;
    location    "46";
    object      p;
}
// * * * * * * * * * * * * * * * * * * * * * * * * * * * * * * * * * * * * * //

dimensions      [0 2 -2 0 0 0 0];

internalField   nonuniform List<scalar> 
400
(
8.641575e-10
-0.00067287512
-0.0013853531
-0.0019427111
-0.002220004
-0.0021565009
-0.001727797
-0.00092620638
0.00023541519
0.0017074011
0.0033872817
0.005112192
0.0066734756
0.0078491022
0.0084583873
0.0084236756
0.007813384
0.0068445058
0.0058612912
0.0052989378
0.0006578396
-4.0527572e-05
-0.00056966166
-0.00094062777
-0.0011108652
-0.0010399225
-0.00070579203
-9.5548088e-05
0.0007890946
0.0019161811
0.0032095801
0.004554698
0.0057819561
0.0067162533
0.0072144239
0.0072145269
0.0067699486
0.0060527605
0.0053105188
0.0047384778
0.0014236968
0.00044064767
-0.00011660208
-0.00045324581
-0.00061481149
-0.00058481372
-0.00034658224
0.00011973928
0.000828451
0.0017698936
0.0028942777
0.0040981509
0.0052282279
0.0061109662
0.006593868
0.0065976671
0.006155739
0.0054215068
0.0045937361
0.0037482213
0.0020141911
0.00068168145
1.6765982e-05
-0.00035885634
-0.00057155331
-0.00062656452
-0.00051008705
-0.00019063492
0.00036849484
0.0011843732
0.0022298962
0.0034174102
0.0045913531
0.0055569323
0.0061235498
0.0061665611
0.0056836221
0.0048170474
0.0037472818
0.0024735848
0.0021672619
0.0004961103
-0.00029626567
-0.00074871045
-0.0010582581
-0.0012452768
-0.0012927559
-0.001151307
-0.00075505301
-5.3106367e-05
0.00095701045
0.0022102649
0.0035446934
0.0047326494
0.0055218304
0.0057098733
0.0052292791
0.0042015967
0.0028061725
0.00098394745
0.0016539533
-0.00031448786
-0.0012387967
-0.0017993091
-0.0022526685
-0.0026279163
-0.0028986304
-0.0029910911
-0.0028025402
-0.0022376784
-0.001251105
0.0001308738
0.0017446246
0.0033270897
0.0045416246
0.0050657612
0.0047174811
0.003566186
0.0017895797
-0.00072593658
0.00028701579
-0.0019195788
-0.002973008
-0.0036713929
-0.004320306
-0.0049532085
-0.0055301307
-0.0059479678
-0.006059015
-0.0057073851
-0.0047757194
-0.0032587096
-0.0012665315
0.00090715497
0.0028231074
0.0039868204
0.0040250803
0.0028876936
0.00071536305
-0.0026805169
-0.0020764398
-0.0044512004
-0.0056268117
-0.0064923328
-0.0073929328
-0.0083657742
-0.0093569322
-0.010231798
-0.010790991
-0.010804856
-0.010063366
-0.0084617668
-0.0060407809
-0.0030832378
-0.00012632756
0.0021126061
0.0029638122
0.0021355657
-0.00036605192
-0.004872629
-0.0055241792
-0.007992125
-0.0092779277
-0.010333796
-0.01153801
-0.012935432
-0.014462723
-0.015956334
-0.017162487
-0.017766059
-0.017438098
-0.015919482
-0.013122969
-0.009251778
-0.0048990311
-0.0010300369
0.0012693921
0.0012777467
-0.0013339762
-0.0072016965
-0.010076925
-0.012565111
-0.013936676
-0.015184008
-0.016718384
-0.018602639
-0.020774224
-0.023048784
-0.025121706
-0.026586382
-0.026969383
-0.025812967
-0.022845696
-0.01807447
-0.012051115
-0.0059519766
-0.0013707597
0.00030057528
-0.0019472213
-0.0093822435
-0.015684998
-0.018132429
-0.019537577
-0.020926822
-0.022757738
-0.025129882
-0.027997038
-0.031166437
-0.034291494
-0.036876877
-0.038294211
-0.037844317
-0.035065888
-0.029601496
-0.021822522
-0.0129856
-0.005184997
-0.00071577047
-0.0017642183
-0.010792274
-0.022243612
-0.024613049
-0.025945619
-0.027334988
-0.029324171
-0.032079221
-0.035588961
-0.039664694
-0.043927312
-0.047801332
-0.050530217
-0.051236514
-0.048956913
-0.043143579
-0.033769044
-0.021926367
-0.010036905
-0.0014154643
-9.8861739e-06
-0.010225638
-0.029641237
-0.031923905
-0.032978763
-0.034079907
-0.03593955
-0.038831518
-0.042795612
-0.047651613
-0.05299058
-0.058163629
-0.062284278
-0.064265559
-0.062875187
-0.057112217
-0.046476771
-0.031649113
-0.015037884
-0.00086440958
0.004646745
-0.0055215552
-0.037866034
-0.040048538
-0.040440144
-0.040752531
-0.042015107
-0.044653108
-0.048758198
-0.054144064
-0.060356062
-0.066665391
-0.072060728
-0.075268313
-0.074811389
-0.069269294
-0.057628334
-0.039961533
-0.018247993
0.0027890199
0.014445141
0.0069075317
-0.047230612
-0.049134409
-0.048140604
-0.046882275
-0.046905532
-0.048798764
-0.052668338
-0.058276031
-0.065076118
-0.072232026
-0.078595805
-0.082712355
-0.082880239
-0.077309417
-0.064523964
-0.043934977
-0.016748007
0.012502931
0.03293877
0.03240894
-0.058896793
-0.059639929
-0.055883986
-0.051941039
-0.049972298
-0.050629913
-0.053928709
-0.05949539
-0.066611893
-0.074285326
-0.0811912
-0.085679437
-0.085831828
-0.079522222
-0.064876124
-0.040689288
-0.0072409377
0.032139358
0.064981438
0.07774917
-0.076226511
-0.072613719
-0.063516271
-0.05543543
-0.050725007
-0.049781585
-0.052312358
-0.057664401
-0.064891858
-0.072775006
-0.079779399
-0.084036779
-0.083391686
-0.075348991
-0.057602699
-0.028375161
0.012933312
0.065396464
0.1155515
0.15150622
-0.10809229
-0.089556264
-0.071233856
-0.057233092
-0.04907219
-0.046330239
-0.048077279
-0.053202629
-0.060434654
-0.068295899
-0.075027428
-0.078526947
-0.076389039
-0.065809705
-0.043865506
-0.0078184693
0.044393654
0.11299814
0.18838042
0.27186076
-0.17684569
-0.10828965
-0.076202411
-0.05465124
-0.042992418
-0.038998069
-0.040570541
-0.045928071
-0.053441567
-0.061438391
-0.068027619
-0.070962592
-0.067551165
-0.054739865
-0.029148841
0.01356358
0.078146941
0.17006435
0.28949545
0.47421821
-0.3720838
-0.12470866
-0.054973122
-0.031962533
-0.022063578
-0.020300552
-0.02435949
-0.031958032
-0.041261591
-0.050640918
-0.058316934
-0.062187497
-0.059782586
-0.048056841
-0.022658556
0.021474185
0.092818704
0.21015276
0.40288841
0.77640928
)
;

boundaryField
{
    movingWall
    {
        type            zeroGradient;
    }
    fixedWalls
    {
        type            zeroGradient;
    }
    frontAndBack
    {
        type            empty;
    }
}


// ************************************************************************* //
