/*--------------------------------*- C++ -*----------------------------------*\
  =========                 |
  \\      /  F ield         | OpenFOAM: The Open Source CFD Toolbox
   \\    /   O peration     | Website:  https://openfoam.org
    \\  /    A nd           | Version:  9
     \\/     M anipulation  |
\*---------------------------------------------------------------------------*/
FoamFile
{
    format      ascii;
    class       surfaceScalarField;
    location    "0.76";
    object      alphaPhi0.phase1;
}
// * * * * * * * * * * * * * * * * * * * * * * * * * * * * * * * * * * * * * //

dimensions      [0 3 -1 0 0 0 0];

internalField   nonuniform List<scalar> 
19800
(
-1.4249528e-87
7.7532349e-88
-2.4101117e-86
2.447645e-87
-6.9982267e-85
1.2773336e-85
-1.1853738e-84
6.5067942e-85
-7.9070485e-85
7.5534776e-85
-1.9702131e-85
2.8004769e-85
-2.3508677e-85
8.8703285e-86
-2.7339236e-85
9.0672238e-86
-3.1496219e-84
4.7811479e-85
-4.2099182e-82
5.7643374e-83
-5.0204306e-80
6.3568085e-81
-5.3457086e-78
6.2845682e-79
-5.1493314e-76
5.6373429e-77
-4.5158408e-74
4.6222497e-75
-3.6226803e-72
3.4767114e-73
-2.6721548e-70
2.408269e-71
-1.8212304e-68
1.5427573e-69
-1.1519416e-66
9.1733633e-68
-6.7876381e-65
5.0797591e-66
-3.7387426e-63
2.6274139e-64
-1.9313298e-61
1.2728112e-62
-9.3806555e-60
5.7916154e-61
-4.2853044e-58
2.4814119e-59
-1.8418084e-56
1.0031144e-57
-7.56734e-55
3.8483883e-56
-3.0724587e-53
1.4191537e-54
-1.1992869e-51
5.0268614e-53
-3.904867e-50
1.613267e-51
-1.0201706e-48
4.385133e-50
-2.6794567e-47
1.1000411e-48
-8.5076083e-46
3.1270185e-47
-3.0781107e-44
1.042488e-45
-1.1478672e-42
3.6540227e-44
-4.28038e-41
1.2794917e-42
-1.5936103e-39
4.4585435e-41
-5.9384352e-38
1.5465573e-39
-2.2251842e-36
5.2929647e-38
-8.4349166e-35
1.7553581e-36
-3.2465962e-33
5.4059986e-35
-1.2700292e-31
1.3534329e-33
-5.1372623e-30
6.6216486e-33
-2.1198453e-28
-4.5780316e-30
-8.688705e-27
-5.2268649e-28
-3.4596136e-25
-3.9953723e-26
-1.3041377e-23
-2.579541e-24
-4.5235186e-22
-1.480736e-22
-1.3851879e-20
-7.8852617e-21
-3.0947531e-19
-3.6606835e-19
-3.7486228e-18
-8.5781004e-18
3.6396095e-17
-1.8814807e-16
1.1787276e-15
-3.5673342e-15
8.6650477e-15
-2.7890023e-14
3.7957271e-14
-1.1101149e-13
1.4386289e-13
-2.7518745e-13
2.342551e-13
-5.8644507e-13
1.2107318e-13
-5.149757e-14
8.4388539e-14
-1.1110737e-14
5.8033633e-14
-4.5947132e-15
3.1818829e-14
0
1.1491721e-14
0
2.0615246e-15
5.8580831e-16
2.2381956e-16
1.3687748e-16
1.9962766e-17
1.0890099e-17
1.556193e-18
1.2537064e-18
1.0832142e-19
1.2504597e-19
6.7502222e-21
1.0511669e-20
3.740805e-22
7.5753618e-22
1.8369873e-23
4.7172223e-23
8.0146265e-25
2.5547484e-24
3.1189878e-26
1.2109376e-25
1.0855369e-27
5.0487515e-27
3.3832737e-29
1.8581662e-28
9.4440901e-31
6.0526161e-30
2.3589794e-32
1.7482687e-31
5.2630876e-34
4.4840439e-33
1.0461651e-35
1.0218825e-34
1.8468814e-37
2.0685853e-36
2.8851632e-39
3.7146656e-38
3.971806e-41
5.9036014e-40
4.7956653e-43
8.2788261e-42
5.052161e-45
1.0203614e-43
4.6168915e-47
1.1001502e-45
3.6361308e-49
1.032304e-47
2.4499949e-51
8.3790978e-50
1.4007425e-53
5.8433572e-52
6.7325969e-56
3.4751454e-54
2.6922815e-58
1.7474942e-56
8.8524936e-61
7.3581338e-59
2.3614508e-63
2.5665106e-61
5.03125e-66
7.3280144e-64
8.4112599e-69
1.6909162e-66
1.0829394e-71
3.1083059e-69
1.0550342e-74
4.4800379e-72
7.6697558e-78
5.000036e-75
4.114872e-81
4.2924047e-78
1.7985887e-84
2.8529243e-81
9.9604568e-86
1.8861124e-84
3.4395956e-86
3.2677751e-85
-1.4534462e-86
2.8007339e-85
2.4314721e-85
-8.2591863e-88
1.1533009e-87
-2.1765603e-85
7.1672069e-86
-5.2681261e-84
2.820192e-84
-1.1554487e-83
1.3999382e-83
-1.2726301e-83
1.8712343e-83
-9.2695468e-84
1.4824844e-83
-4.0233618e-84
8.3627518e-84
-4.8398052e-84
4.0702361e-84
-1.1357018e-82
4.3941523e-83
-1.626339e-80
5.7553004e-81
-2.0485894e-78
6.6612503e-79
-2.2995752e-76
6.9054039e-77
-2.3226155e-74
6.4661234e-75
-2.1279028e-72
5.5071707e-73
-1.7805258e-70
4.2919267e-71
-1.3687988e-68
3.0763708e-69
-9.7182233e-67
2.0372946e-67
-6.401432e-65
1.2514283e-65
-3.928251e-63
7.1569646e-64
-2.2541816e-61
3.8231764e-62
-1.213735e-59
1.9137e-60
-6.147212e-58
9.0053212e-59
-2.9326631e-56
3.9953499e-57
-1.3245123e-54
1.6774452e-55
-5.743714e-53
6.7127124e-54
-2.4016762e-51
2.5780226e-52
-9.3069163e-50
9.4095109e-51
-3.2213333e-48
3.1821187e-49
-1.0595304e-46
1.0121075e-47
-3.6445996e-45
3.272232e-46
-1.3209971e-43
1.1254879e-44
-4.8408936e-42
3.9964534e-43
-1.7581185e-40
1.4203246e-41
-6.3308611e-39
5.0189426e-40
-2.2693336e-37
1.7650001e-38
-8.1152644e-36
6.1577115e-37
-2.911888e-34
2.1191783e-35
-1.0636198e-32
7.1434159e-34
-4.0083958e-31
2.3220543e-32
-1.5568996e-29
6.8528769e-31
-6.1803113e-28
1.4850853e-29
-2.5287018e-26
-8.1837987e-29
-1.0365163e-24
-4.9444472e-26
-4.1243694e-23
-4.6079938e-24
-1.5522542e-21
-3.1928983e-22
-5.5952528e-20
-1.9885011e-20
-2.0623081e-18
-1.298416e-18
-4.562479e-17
-4.0604301e-17
-6.1359658e-16
-2.1894323e-17
7.5618759e-18
-2.7459195e-15
4.9866967e-14
-7.1440433e-14
3.1842375e-13
-3.697827e-13
1.2413077e-12
-1.1745179e-12
3.874628e-12
-3.5946734e-12
4.2500546e-12
-1.8842834e-12
2.1579452e-12
0
1.4111419e-12
0
1.8223327e-12
-4.5650514e-13
2.0627636e-12
0
1.1936517e-12
0
2.1162842e-13
4.1717359e-13
2.2354695e-14
4.6545771e-14
2.0631781e-15
3.7452943e-15
1.5731757e-16
3.5018586e-16
9.8092446e-18
3.4060811e-17
5.3925298e-19
2.5591906e-18
2.6477284e-20
1.6161607e-19
1.1507594e-21
8.7717733e-21
4.4337033e-23
4.1351272e-22
1.5237154e-24
1.7076724e-23
4.6920065e-26
6.2211565e-25
1.2977867e-27
2.0100744e-26
3.2268644e-29
5.7816753e-28
7.2067769e-31
1.4838307e-29
1.4426111e-32
3.4010533e-31
2.580164e-34
6.9601014e-33
4.1076149e-36
1.2699505e-34
5.7957477e-38
2.0611234e-36
7.2129423e-40
2.9659254e-38
7.8749552e-42
3.7693085e-40
7.497402e-44
4.2103734e-42
6.1827047e-46
4.1109289e-44
4.3829108e-48
3.4867178e-46
2.6481563e-50
2.5506603e-48
1.350519e-52
1.5962598e-50
5.7495129e-55
8.4683522e-53
2.017999e-57
3.7683914e-55
5.7562627e-60
1.3900256e-57
1.3123824e-62
4.1928475e-60
2.3463179e-65
1.0183679e-62
3.2207404e-68
1.9583614e-65
3.3266583e-71
2.9297517e-68
2.5462937e-74
3.3670175e-71
1.4549207e-77
2.9807514e-74
6.4928314e-81
2.1265818e-77
3.1820931e-84
1.3456362e-80
1.6996053e-85
1.6360204e-83
-2.1357505e-86
4.0261204e-84
-5.8640226e-86
3.7915469e-85
2.9738063e-85
-1.1053145e-84
2.0903361e-84
-2.7957638e-82
1.3112981e-82
-4.2482944e-81
3.6385928e-81
-7.5411319e-81
1.3553976e-80
-8.0682152e-81
1.6072372e-80
-5.5736499e-81
1.1743068e-80
-2.3051315e-81
6.2604459e-81
-2.7340724e-81
2.9816616e-81
-5.3358196e-80
2.5863413e-80
-7.8108769e-78
3.4512055e-78
-1.0024501e-75
4.0549097e-76
-1.1435676e-73
4.2545808e-74
-1.1711945e-71
4.0221384e-72
-1.0857365e-69
3.4499054e-70
-9.1737818e-68
2.7010627e-68
-7.1072567e-66
1.9405622e-66
-5.0743665e-64
1.284646e-64
-3.3537171e-62
7.8683016e-63
-2.0598244e-60
4.4737923e-61
-1.1798922e-58
2.3685201e-59
-6.3234363e-57
1.1710888e-57
-3.1744725e-55
5.4225681e-56
-1.4896751e-53
2.356575e-54
-6.587025e-52
9.6514937e-53
-2.8674293e-50
3.7797471e-51
-1.2667221e-48
1.4389565e-49
-4.9175863e-47
5.1044869e-48
-1.3360239e-45
1.4716663e-46
-2.7887107e-44
3.2966217e-45
-6.4833993e-43
7.1630344e-44
-1.9579381e-41
1.968293e-42
-6.6677332e-40
6.5066944e-41
-2.2905539e-38
2.2409646e-39
-7.7718431e-37
7.6865529e-38
-2.6056115e-35
2.6058934e-36
-8.5739232e-34
8.6796883e-35
-2.7622779e-32
2.8078313e-33
-9.0275141e-31
8.8783665e-32
-3.1548937e-29
2.7992833e-30
-1.1884786e-27
8.747992e-29
-4.6759182e-26
2.4402917e-27
-1.8852608e-24
4.2524066e-26
-7.6986807e-23
-1.7438213e-24
-3.0837204e-21
-2.7881667e-22
-1.2173678e-19
-2.3651136e-20
-4.4934917e-18
-1.8475477e-18
-1.1366356e-16
-5.475151e-17
-2.4734358e-15
-1.1737167e-16
-5.1475801e-14
0
-3.3803924e-13
0
9.7702487e-13
-2.4886194e-12
1.1483683e-11
-1.4514245e-11
4.9187787e-11
-4.429511e-11
1.6101015e-10
-1.4728974e-10
1.6390733e-10
-3.7960884e-11
8.5810884e-11
0
6.0870315e-11
-1.8652046e-10
1.241807e-10
-6.3926414e-11
1.5554028e-10
0
8.364403e-11
0
5.9200368e-12
2.5004039e-11
3.164816e-13
3.784598e-12
1.022773e-14
3.0050884e-13
1.5153501e-15
1.3493807e-14
3.3679192e-16
5.7622133e-16
2.2607252e-17
6.9034245e-17
9.0447978e-19
6.3794284e-18
3.4659376e-20
3.407324e-19
1.307814e-21
1.5567511e-20
4.4430771e-23
6.2921137e-22
1.3315372e-24
2.2346584e-23
3.5492578e-26
6.9920522e-25
8.4510301e-28
1.9367179e-26
1.7977379e-29
4.7644376e-28
3.4119846e-31
1.0425886e-29
5.7640593e-33
2.0297269e-31
8.63921e-35
3.5118339e-33
1.1441734e-36
5.3886585e-35
1.3325701e-38
7.3103937e-37
1.3571911e-40
8.7333055e-39
1.2010076e-42
9.1422732e-41
9.1666143e-45
8.3364004e-43
5.9835889e-47
6.5765423e-45
3.3083901e-49
4.4531256e-47
1.5323033e-51
2.5645091e-49
5.8699321e-54
1.2429603e-51
1.8328457e-56
5.0097531e-54
4.5883345e-59
1.6561837e-56
9.0391593e-62
4.4239007e-59
1.3724185e-64
9.4000349e-62
1.5747125e-67
1.5666524e-64
1.3541777e-70
2.0411862e-67
8.9738915e-74
2.1351858e-70
4.9001405e-77
1.921396e-73
2.1419067e-80
1.6244939e-76
1.0601242e-82
1.4422978e-79
-4.7933386e-82
1.3305444e-80
-1.9272625e-82
6.0130652e-81
-1.409346e-82
1.3180074e-81
7.5316018e-82
-9.9276623e-82
1.3346203e-81
-2.0587329e-79
1.2500941e-79
-2.1478033e-78
2.6013311e-78
-3.3687292e-78
7.7578524e-78
-3.5703529e-78
8.6207949e-78
-2.4072076e-78
6.173423e-78
-9.7218942e-79
3.2125107e-78
-1.1484473e-78
1.502064e-78
-2.1195021e-77
1.2221786e-77
-3.1843336e-75
1.6707106e-75
-4.1821336e-73
2.0048557e-73
-4.8703917e-71
2.1426765e-71
-5.0816762e-69
2.0582011e-69
-4.7910038e-67
1.7901689e-67
-4.1108724e-65
1.4187558e-65
-3.2298533e-63
1.0299588e-63
-2.3358471e-61
6.8796639e-62
-1.5620477e-59
4.2450536e-60
-9.6982982e-58
2.428331e-58
-5.61172e-56
1.2921425e-56
-3.0369507e-54
6.4161245e-55
-1.5390434e-52
2.9823334e-53
-7.2735073e-51
1.3009478e-51
-3.2299192e-49
5.3579751e-50
-1.4434254e-47
2.1286504e-48
-7.1151576e-46
8.4488447e-47
-3.2121829e-44
3.200858e-45
-8.3491656e-43
9.0306313e-44
-1.175126e-41
1.5720373e-42
-1.5021459e-40
2.0976616e-41
-2.9888576e-39
3.6113882e-40
-8.8372816e-38
9.971029e-39
-2.880904e-36
3.2939337e-37
-9.3928091e-35
1.1072647e-35
-3.0314793e-33
3.6662395e-34
-9.3957758e-32
1.1716701e-32
-2.6403386e-30
3.4839969e-31
-6.9417377e-29
9.5068176e-30
-1.9969552e-27
2.5687497e-28
-6.8407292e-26
7.5615901e-27
-2.617068e-24
2.3014811e-25
-1.0340543e-22
6.0645783e-24
-4.1514292e-21
7.3056319e-23
-1.7617788e-19
-8.2193529e-21
-8.5618669e-18
-1.2156921e-18
-1.7513016e-16
-4.8968055e-17
-1.4147793e-16
-9.9239466e-17
-4.1741416e-14
-1.0234045e-14
-4.3233508e-12
0
-2.5598307e-11
0
3.1636629e-11
-1.0678231e-10
5.1504175e-10
-6.3166917e-10
2.5182953e-09
-4.3500449e-09
1.2000922e-08
-5.9153134e-08
8.7265821e-09
-4.48938e-08
4.6172009e-09
-1.3481122e-08
5.3358094e-09
-4.3239833e-09
1.8292195e-08
-1.6039746e-08
2.3299201e-08
-1.0447522e-08
5.1565133e-09
2.728285e-09
3.8561578e-10
4.7733044e-09
3.0042669e-11
3.5698e-10
1.5886516e-12
2.8669525e-11
6.2821899e-14
1.5335751e-12
2.0081347e-15
6.1344517e-14
8.6199255e-17
2.0581743e-15
2.9984477e-17
6.6511812e-17
1.6425515e-18
9.7169177e-18
3.2690639e-20
4.8215522e-19
8.7500508e-22
1.6372235e-20
2.5122289e-23
5.3695936e-22
6.4212973e-25
1.5902105e-23
1.4430009e-26
4.1586791e-25
2.883036e-28
9.6207412e-27
5.1264147e-30
1.9744696e-28
8.0932315e-32
3.5967469e-30
1.1307863e-33
5.8099647e-32
1.3924706e-35
8.3041755e-34
1.5033619e-37
1.0467485e-35
1.414125e-39
1.158395e-37
1.150626e-41
1.1190831e-39
8.0306822e-44
9.3745772e-42
4.7610707e-46
6.7557823e-44
2.3711925e-48
4.1493489e-46
9.7933517e-51
2.1491627e-48
3.3058255e-53
9.2736513e-51
8.9733738e-56
3.2907053e-53
1.9244206e-58
9.4823858e-56
3.2053864e-61
2.1997197e-58
4.1067772e-64
4.122708e-61
4.1044334e-67
6.3857328e-64
3.3919377e-70
8.4758598e-67
2.4345207e-73
1.0475487e-69
1.0168794e-76
1.344854e-72
-5.0879738e-79
1.7393856e-75
-1.1301577e-78
1.5306538e-77
-1.1248062e-78
1.1298456e-77
-3.6386184e-79
5.0088465e-78
-1.5685169e-79
1.1904631e-78
4.9910633e-79
-4.9758584e-79
6.0635729e-79
-9.2918449e-77
6.7307502e-77
-7.9906259e-76
1.2261344e-75
-1.1593831e-75
3.2446614e-75
-1.2234259e-75
3.4606888e-75
-8.1359051e-76
2.4543689e-75
-3.2365365e-76
1.2583937e-75
-3.820004e-76
5.8142888e-76
-6.9707174e-75
4.6504543e-75
-1.0795921e-72
6.5457551e-73
-1.4558695e-70
8.0551371e-71
-1.7352548e-68
8.7967946e-69
-1.8482088e-66
8.6091906e-67
-1.7749709e-64
7.6109774e-65
-1.5485898e-62
6.1180092e-63
-1.2351995e-60
4.4961773e-61
-9.0566161e-59
3.0352187e-59
-6.1329869e-57
1.8897926e-57
-3.8516426e-55
1.0890811e-55
-2.2522172e-53
5.8303616e-54
-1.2309863e-51
2.9093577e-52
-6.3000115e-50
1.3579116e-50
-3.0071667e-48
5.948318e-49
-1.3456056e-46
2.4609585e-47
-6.0524612e-45
9.8474456e-46
-3.1088097e-43
3.9822476e-44
-1.5919374e-41
1.5874764e-42
-4.634116e-40
4.743723e-41
-6.0236804e-39
7.883184e-40
-5.1067753e-38
8.1057781e-39
-5.5861666e-37
8.3915373e-38
-1.144209e-35
1.5157881e-36
-3.3136475e-34
4.368803e-35
-1.0411067e-32
1.4339031e-33
-3.3822162e-31
4.7878137e-32
-1.0837368e-29
1.5554508e-30
-2.8851485e-28
4.5110696e-29
-5.8028617e-27
1.0543384e-27
-1.1374587e-25
2.123656e-26
-3.0316786e-24
4.8806321e-25
-1.0677582e-22
1.4293667e-23
-4.1341674e-21
4.3655213e-22
-1.7445046e-19
1.1256387e-20
-8.5687897e-18
1.3119746e-19
-1.8705323e-16
-1.0840094e-17
-2.2224547e-16
-5.1180378e-16
-2.4634101e-14
-5.1595e-15
0
0
-2.0975112e-10
0
-5.0378135e-10
-9.5525919e-09
6.3276455e-09
-4.1589615e-08
4.4729007e-08
-1.5812867e-07
1.2280629e-07
-1.3761643e-07
1.4460673e-07
-1.1791783e-07
8.4776866e-08
-1.3564861e-07
7.2790745e-09
-5.447375e-08
1.2428857e-07
-7.2963076e-09
4.6082389e-07
-5.6256716e-08
4.3875258e-07
-8.4884096e-09
3.9594413e-07
7.9613471e-08
4.6355487e-08
5.2466539e-08
5.2246426e-09
3.9272814e-08
2.7296576e-10
4.9786165e-09
1.0452402e-11
2.6394181e-10
5.0985308e-13
9.9981452e-12
1.2366577e-14
5.002065e-13
1.9790605e-16
1.2225019e-14
1.3099189e-17
1.673307e-16
4.7281789e-19
7.6298258e-18
1.1644466e-20
2.7905716e-19
2.8598574e-22
8.2562412e-21
6.6356648e-24
2.2088945e-22
1.3733613e-25
5.2815607e-24
2.5162234e-27
1.1191017e-25
4.0947939e-29
2.1025782e-27
5.9112199e-31
3.5049815e-29
7.5412903e-33
5.1772129e-31
8.4609506e-35
6.7568317e-33
8.2983255e-37
7.7585701e-35
7.0643281e-39
7.7937542e-37
5.1767943e-41
6.8010222e-39
3.2342786e-43
5.1125711e-41
1.7036823e-45
3.2807819e-43
7.4699148e-48
1.7814169e-45
2.6890712e-50
8.1137679e-48
7.8445646e-53
3.0605014e-50
1.8370689e-55
9.444709e-53
3.4499603e-58
2.4040897e-55
5.2970462e-61
5.2908514e-58
6.9499833e-64
1.0575855e-60
7.8636657e-67
2.0067467e-63
5.9493004e-70
3.7855729e-66
-4.1212909e-73
6.9461805e-69
-2.8498712e-75
1.171644e-71
-1.2516669e-75
2.4397132e-74
-1.4739434e-75
9.0131693e-75
-1.1967325e-75
6.9431394e-75
-3.669677e-76
2.9061342e-75
-1.2347794e-76
6.8688017e-76
2.2387461e-76
-1.7071344e-76
2.1007961e-76
-3.0308192e-74
2.5246815e-74
-2.3473581e-73
4.3010176e-73
-3.2396444e-73
1.0640495e-72
-3.4153522e-73
1.1058029e-72
-2.2575697e-73
7.8067565e-73
-8.8341198e-74
3.9698992e-73
-1.0428151e-73
1.8083926e-73
-1.9127557e-72
1.4457986e-72
-3.0688813e-70
2.1067528e-70
-4.264749e-68
2.6697916e-68
-5.2153337e-66
2.9880556e-66
-5.6799183e-64
2.9858776e-64
-5.5620679e-62
2.6868668e-62
-4.9360951e-60
2.1924127e-60
-3.9962458e-58
1.6314876e-58
-2.9683368e-56
1.1126858e-56
-2.0327038e-54
6.9832124e-55
-1.2888105e-52
4.0480219e-53
-7.5961591e-51
2.1747385e-51
-4.1783173e-49
1.0866068e-49
-2.1488529e-47
5.0659255e-48
-1.0299728e-45
2.2112882e-46
-4.6244447e-44
9.0947951e-45
-2.0660361e-42
3.603613e-43
-1.0300159e-40
1.4335874e-41
-5.2720089e-39
5.6495376e-40
-1.7162558e-37
1.7538552e-38
-2.6210206e-36
3.170871e-37
-2.243393e-35
3.3582009e-36
-1.6906234e-34
2.8487442e-35
-1.8568708e-33
3.0510675e-34
-3.6819398e-32
5.7365142e-33
-1.036655e-30
1.6595194e-31
-3.4030687e-29
5.6058008e-30
-1.2137556e-27
1.9398724e-28
-3.5507213e-26
6.0020699e-27
-6.0971527e-25
1.3147586e-25
-7.2901106e-24
1.9296463e-24
-1.1254541e-22
2.7126872e-23
-3.0769712e-21
5.9621688e-22
-1.1879572e-19
1.8191158e-20
-5.7099607e-18
5.6315212e-19
-1.2988405e-16
1.348474e-17
-2.1761954e-16
2.4142195e-16
-2.742333e-14
7.7256477e-15
-7.3456235e-13
-6.1865113e-14
-2.1401856e-11
-4.6853694e-12
-7.1595928e-09
-1.5144672e-08
2.6430186e-08
-1.561739e-07
6.2258429e-08
-1.5737345e-07
1.1496263e-07
-2.1914831e-07
1.3489242e-07
-1.9959605e-07
1.7535715e-07
-1.712919e-07
1.7773595e-07
-1.1737559e-07
2.4889133e-08
-2.2986982e-08
1.6739383e-07
-2.8027798e-09
5.3233631e-07
-1.9663686e-09
5.5841499e-07
-1.4680772e-10
5.672229e-07
1.049581e-07
4.6278049e-07
1.9098927e-07
2.4023713e-07
2.3878816e-07
1.1075544e-08
1.1100062e-07
2.6895967e-10
1.1026263e-08
1.2842628e-11
2.6222344e-10
5.164397e-13
1.2645837e-11
1.5622274e-14
5.0269167e-13
5.489928e-16
1.4760245e-14
2.0802422e-17
5.1419553e-16
5.7147698e-19
1.7381588e-17
1.1609681e-20
4.6071173e-19
2.2565781e-22
1.050506e-20
3.9743368e-24
2.1417154e-22
6.196687e-26
3.8689893e-24
8.5406455e-28
6.182383e-26
1.0384596e-29
8.7343206e-28
1.1086328e-31
1.0885949e-29
1.0325311e-33
1.1921932e-31
8.3233693e-36
1.1408219e-33
5.7527104e-38
9.4687501e-36
3.3711516e-40
6.7554659e-38
1.6534209e-42
4.0986887e-40
6.6920065e-45
2.0888997e-42
2.2050485e-47
8.8343179e-45
5.8678405e-50
3.0745614e-47
1.2721792e-52
8.8584193e-50
2.3652993e-55
2.1785304e-52
4.1465673e-58
4.9457798e-55
6.7715779e-61
1.1783103e-57
7.987609e-64
2.9517594e-60
-1.2001366e-67
7.1622588e-63
-4.5979277e-69
1.6211073e-65
-1.459832e-71
3.3900755e-68
-8.6942172e-73
6.1519809e-71
-1.1193171e-72
4.9271193e-72
-1.1718579e-72
4.3651327e-72
-8.4743872e-73
3.2622962e-72
-2.5077383e-73
1.238962e-72
-7.3508527e-74
2.761019e-73
6.5446769e-74
-4.4929927e-74
5.8795647e-74
-7.8075904e-72
7.3177645e-72
-5.701349e-71
1.204689e-70
-7.6216007e-71
2.8645189e-70
-8.0369815e-71
2.9277647e-70
-5.3241174e-71
2.0644715e-70
-2.0169246e-71
1.0473347e-70
-2.3839639e-71
4.6342595e-71
-4.4460995e-70
3.7457561e-70
-7.4362278e-68
5.6862009e-68
-1.070154e-65
7.4621576e-66
-1.3473216e-63
8.5927941e-64
-1.5039399e-61
8.7913471e-62
-1.5040634e-59
8.0678893e-60
-1.3591452e-57
6.6917798e-58
-1.1175253e-55
5.0468655e-56
-8.4104818e-54
3.4788959e-54
-5.8226931e-52
2.2007746e-52
-3.7245428e-50
1.2824744e-50
-2.2101935e-48
6.9067372e-49
-1.2213645e-46
3.448431e-47
-6.2954023e-45
1.6011566e-45
-3.0188926e-43
6.9334185e-44
-1.356814e-41
2.8170236e-42
-6.029253e-40
1.096215e-40
-2.8635613e-38
4.224638e-39
-1.3352392e-36
1.5807824e-37
-4.4468648e-35
4.8248162e-36
-8.6958861e-34
9.74243e-35
-1.0162131e-32
1.2697515e-33
-7.7167656e-32
1.1885964e-32
-4.9498836e-31
9.5125228e-32
-4.7056267e-30
9.2730711e-31
-9.4329429e-29
1.7685133e-29
-3.0001848e-27
5.7308994e-28
-1.1948408e-25
2.1366262e-26
-4.1046408e-24
7.3584698e-25
-7.044634e-23
1.6495628e-23
-5.9199584e-22
1.9849806e-22
-4.5597345e-21
1.6768225e-21
-7.2578913e-20
1.9900908e-20
-2.7663721e-18
4.8716711e-19
-7.177831e-17
1.3890724e-17
-2.289395e-16
3.1108103e-16
-2.0087691e-14
1.3664977e-14
-9.9959934e-13
6.9974976e-13
-1.4595319e-11
3.1141707e-12
-7.7619695e-09
-1.267432e-09
1.3035001e-09
-1.5558848e-07
5.8723125e-08
-1.9751296e-07
8.2079638e-08
-1.6325765e-07
8.1751548e-08
-1.5659922e-07
6.0874532e-08
-5.5616199e-08
4.9267339e-08
-4.1047477e-08
2.4599395e-08
-1.2249537e-08
5.7621375e-09
-4.2670888e-09
4.9983953e-09
-2.1086457e-09
4.0627275e-09
-1.0054752e-09
3.9790827e-09
-2.8012034e-11
1.0804977e-07
4.3476326e-09
4.3246238e-07
1.1705655e-07
3.8366031e-07
2.8220894e-07
2.2331529e-07
2.7161901e-07
3.2158325e-09
1.3355899e-07
1.4451819e-10
3.0224799e-09
5.7901596e-12
1.3559384e-10
2.0058355e-13
5.4908295e-12
6.0120408e-15
1.9000842e-13
1.8562001e-16
5.7438695e-15
5.0037442e-18
1.6970203e-16
1.0322228e-19
4.3520351e-18
1.8296794e-21
9.2676762e-20
2.9205462e-23
1.7217033e-21
4.1487108e-25
2.8341326e-23
5.2062986e-27
4.1318587e-25
5.7514671e-29
5.3283612e-27
5.5639069e-31
6.0657935e-29
4.6783695e-33
6.0729022e-31
3.3885311e-35
5.3185474e-33
2.0916401e-37
4.0476197e-35
1.0861797e-39
2.655842e-37
4.6750552e-42
1.489432e-39
1.6469472e-44
7.0624116e-42
4.742671e-47
2.7947408e-44
1.1401256e-49
9.2717685e-47
2.4283186e-52
2.7161409e-49
4.3249966e-55
7.3429506e-52
5.3834179e-58
1.7697009e-54
1.8832363e-61
4.1223957e-57
-2.4163962e-63
9.9094785e-60
-1.2383049e-65
2.3622624e-62
-3.6540987e-68
5.0385792e-65
-3.767975e-70
9.9116988e-68
-4.1421483e-70
1.75719e-69
-6.8332172e-70
1.4396906e-69
-6.7367718e-70
1.6980972e-69
-4.4888896e-70
1.2027428e-69
-1.2898428e-70
3.9772363e-70
-3.4837128e-71
7.682335e-71
7.8405256e-72
-9.6078465e-72
1.385222e-71
-1.6641973e-69
1.7291734e-69
-1.1792742e-68
2.8070304e-68
-1.5458204e-68
6.5326922e-68
-1.6332512e-68
6.6079671e-68
-1.0989572e-68
4.6683027e-68
-4.4776782e-69
2.3808408e-68
-3.5847337e-69
9.7657522e-69
-8.6834919e-68
8.0472149e-68
-1.5249056e-65
1.2809134e-65
-2.2871875e-63
1.7538254e-63
-2.9777899e-61
2.0882576e-61
-3.4177071e-59
2.1952327e-59
-3.4990075e-57
2.0600436e-57
-3.2250889e-55
1.7402095e-55
-2.6964296e-53
1.3320926e-53
-2.0577976e-51
9.2897657e-52
-1.4410212e-49
5.9277743e-50
-9.3017661e-48
3.4737088e-48
-5.5577227e-46
1.8753356e-46
-3.0852865e-44
9.3545021e-45
-1.593509e-42
4.3225728e-43
-7.6423604e-41
1.8545924e-41
-3.4378612e-39
7.4297434e-40
-1.5230475e-37
2.832677e-38
-6.9275283e-36
1.0539759e-36
-2.905174e-34
3.7146439e-35
-9.4573716e-33
1.0901815e-33
-2.3855893e-31
2.4308697e-32
-4.1577744e-30
4.102718e-31
-3.7062439e-29
4.6991215e-30
-1.7749725e-28
3.3886593e-29
-8.2575658e-28
2.0067073e-28
-8.65703e-27
1.9608353e-27
-2.4489285e-25
5.3644109e-26
-1.1004049e-23
2.1769465e-24
-4.4853472e-22
8.532314e-23
-7.9442213e-21
2.004433e-21
-5.3334497e-20
2.0907555e-20
-2.3055067e-19
1.1768743e-19
-1.8004927e-18
6.5782158e-19
-4.35816e-17
8.453517e-18
-3.5045385e-16
1.3669048e-16
-3.3818165e-15
3.5249479e-15
-2.2684418e-13
2.0439508e-13
-8.9146389e-12
7.7863723e-12
-2.9246655e-11
-3.9433051e-11
-2.2353958e-08
-5.2505812e-08
3.1183937e-08
-1.9798095e-07
2.6882438e-08
-1.8070936e-07
7.3845116e-09
-1.4341714e-08
8.1363213e-09
-2.0424399e-08
4.7482836e-09
-5.3184732e-08
5.0765068e-09
-4.1638181e-08
3.3329605e-09
-1.0630335e-08
3.3862672e-09
-4.3711577e-09
3.6543903e-09
-2.4208341e-09
3.8064761e-09
-1.1652353e-09
3.8022976e-09
1.1143593e-12
6.8469771e-09
1.2568452e-09
1.7016291e-07
1.8077363e-08
3.6604767e-07
1.7750948e-07
3.1685122e-07
3.5578202e-07
1.7414585e-08
3.4453036e-07
2.8175825e-10
1.1900004e-08
9.1535751e-12
3.880017e-10
2.5645675e-13
1.3719046e-11
6.2757697e-15
4.2240074e-13
3.1892032e-16
1.122169e-14
1.3378728e-17
3.5881918e-16
2.49643e-19
1.0999343e-17
3.9577658e-21
2.2893894e-19
6.0559996e-23
4.0621733e-21
8.3978736e-25
6.5125012e-23
1.0263685e-26
9.3444139e-25
1.1024626e-28
1.1900497e-26
1.0398385e-30
1.3384879e-28
8.5683785e-33
1.3266394e-30
6.1283032e-35
1.1551072e-32
3.7802127e-37
8.7983938e-35
2.002776e-39
5.8335899e-37
9.0879641e-42
3.3494699e-39
3.3842695e-44
1.6377568e-41
9.4511813e-47
6.6470668e-44
1.9798709e-49
2.2755312e-46
2.8229125e-52
6.6437908e-49
1.8191969e-55
1.6931708e-51
-6.470295e-58
4.0756847e-54
-4.2521023e-60
9.7185838e-57
-1.6536604e-62
2.247656e-59
-4.8522125e-65
4.9313115e-62
-1.6237547e-67
9.4784186e-65
-9.3662304e-68
4.5718261e-67
-1.673318e-67
2.9002403e-67
-3.2502619e-67
5.1741121e-67
-3.0971876e-67
5.4616851e-67
-1.354939e-67
3.4904466e-67
-1.7868033e-66
9.6260082e-68
-1.3937304e-63
1.1053685e-66
-9.0653358e-64
-1.7326863e-69
2.8425877e-69
-3.0300382e-67
3.4518241e-67
-2.1249448e-66
5.6035977e-66
-2.7536925e-66
1.2916422e-65
-2.920191e-66
1.2985941e-65
-1.9863504e-66
9.2123029e-66
-8.4297424e-67
4.7177578e-66
-4.6278265e-67
1.8516274e-66
-1.44433e-65
1.4871681e-65
-2.5926271e-63
2.3672025e-63
-4.059589e-61
3.3763387e-61
-5.4852726e-59
4.1752454e-59
-6.4880132e-57
4.5221748e-57
-6.809562e-55
4.3470437e-55
-6.4078736e-53
3.7444304e-53
-5.450569e-51
2.9113318e-51
-4.2189833e-49
2.0549621e-49
-2.9883093e-47
1.322774e-47
-1.9460766e-45
7.793708e-46
-1.1702687e-43
4.2161619e-44
-6.5231938e-42
2.0998555e-42
-3.3750634e-40
9.6482233e-41
-1.6190724e-38
4.0966557e-39
-7.2845755e-37
1.6156495e-37
-3.2046833e-35
6.0158817e-36
-1.3988577e-33
2.1533602e-34
-5.4386093e-32
7.1806964e-33
-1.7945945e-30
2.054445e-31
-5.8112886e-29
5.046609e-30
-1.3944923e-27
1.0611959e-28
-1.3758796e-26
1.4073635e-27
-5.5789471e-26
9.6154165e-27
-1.6505147e-25
4.3297261e-26
-9.1073165e-25
2.4828284e-25
-2.2643604e-23
5.3992633e-24
-1.3353077e-21
2.5903935e-22
-6.0366382e-20
1.1811306e-20
-8.4199462e-19
2.4964898e-19
-3.7349678e-18
1.8534088e-18
-9.6560245e-18
6.3826217e-18
-3.366259e-17
1.7672907e-17
-2.1106127e-16
8.2435685e-17
-4.2105539e-16
5.9482244e-16
-1.6736523e-14
1.8541222e-14
-8.8287387e-13
9.5572259e-13
-2.2362838e-11
2.3606093e-11
-8.9623995e-09
-2.6485484e-09
2.0976181e-08
-1.2155331e-07
1.164371e-08
-1.7538128e-07
5.3177944e-09
-4.5886431e-09
5.288635e-10
-8.5181189e-09
6.2242957e-09
-2.7017041e-08
1.5076501e-08
-7.5109184e-08
7.0335866e-09
-4.3338741e-08
2.7842754e-09
-6.8796557e-09
2.8924025e-09
-4.4492573e-09
3.0841955e-09
-2.654099e-09
3.3162154e-09
-1.3723736e-09
3.3718522e-09
-2.2338146e-11
3.3530803e-09
1.3100359e-09
1.778495e-08
3.6697212e-09
2.3998979e-07
1.2101702e-07
2.357564e-07
4.0736446e-07
8.6618436e-08
3.3216923e-07
5.3644462e-10
4.9454394e-08
1.1554126e-11
8.5409304e-10
1.9180454e-13
2.3425322e-11
3.7535087e-15
5.7355413e-13
3.1613114e-16
1.3832719e-14
2.6164913e-17
4.851737e-16
5.4596617e-19
1.9742353e-17
6.675283e-21
4.4032523e-19
9.4129647e-23
7.2121725e-21
1.3359753e-24
1.1074399e-22
1.7009412e-26
1.5565668e-24
1.8673305e-28
1.9823599e-26
1.7345569e-30
2.2663105e-28
1.372825e-32
2.2470865e-30
9.1879729e-35
1.9228169e-32
5.1257721e-37
1.4122929e-34
2.3374057e-39
8.8353203e-37
8.5176309e-42
4.659792e-39
2.4800113e-44
2.0670049e-41
5.6327426e-47
8.2082218e-44
6.8696771e-50
2.8515423e-46
-1.0927811e-52
9.1234601e-49
-1.1873062e-54
2.7424806e-51
-5.7631655e-57
8.0903941e-54
-2.086215e-59
2.2132118e-56
-6.1365766e-62
5.3166624e-59
-1.3564956e-64
1.0973747e-61
-2.172574e-65
2.2661409e-64
-2.9654145e-65
6.3051686e-65
-7.65128e-65
1.0065117e-64
-1.2528246e-64
1.5735376e-64
-1.1372678e-64
1.433509e-64
-8.2914865e-65
7.8671663e-65
-2.4001309e-62
1.0271132e-64
-1.2595442e-59
-5.8462407e-62
-1.2390624e-59
-2.7030698e-67
5.2371022e-67
-4.8083946e-65
5.9610671e-65
-3.3900414e-64
9.7804707e-64
-4.3694118e-64
2.2539191e-63
-4.6595082e-64
2.2595682e-63
-3.1828627e-64
1.6122259e-63
-1.3367666e-64
8.2543239e-64
-6.9393442e-65
3.1974797e-64
-1.2312342e-63
1.3464352e-63
-2.0470419e-61
2.0603662e-61
-3.2351634e-59
2.926268e-59
-4.4851362e-57
3.7047088e-57
-5.464007e-55
4.1212948e-55
-5.8990558e-53
4.0709584e-53
-5.6917483e-51
3.5913153e-51
-4.9505669e-49
2.8508742e-49
-3.9099525e-47
2.0491927e-47
-2.8211714e-45
1.3402989e-45
-1.8694153e-43
8.0093006e-44
-1.1429364e-41
4.3872637e-42
-6.4752526e-40
2.2094267e-40
-3.413522e-38
1.0257744e-38
-1.6816478e-36
4.4034496e-37
-7.7766273e-35
1.754964e-35
-3.3770209e-33
6.5341906e-34
-1.3791044e-31
2.299268e-32
-5.7191436e-30
7.9012394e-31
-3.0930435e-28
2.8677387e-29
-2.1559439e-26
1.1591562e-27
-7.064847e-25
3.606985e-26
-6.0161071e-24
4.7801544e-25
-1.7701811e-23
2.6357803e-24
-3.4365851e-23
8.7563583e-24
-1.0617089e-22
3.2072227e-23
-2.5829479e-21
5.7115155e-22
-2.0425362e-19
3.4820105e-20
-6.8146578e-18
1.5331014e-18
-5.1460433e-17
2.1335422e-17
-1.3148209e-16
9.3440728e-17
-2.4287254e-16
1.9752632e-16
-4.187576e-16
1.7444014e-16
-6.3150187e-16
4.806389e-16
-4.0145147e-16
1.513869e-15
-4.4306775e-14
7.3486076e-14
-1.0453713e-12
2.3882536e-12
0
5.3498628e-12
2.4705585e-09
-2.463006e-08
1.6205954e-08
-8.887202e-08
1.2725815e-09
-9.8862778e-09
3.5046867e-12
-2.7974981e-09
2.5482123e-09
-1.0043659e-08
9.3348142e-09
-6.201678e-08
1.8629877e-08
-8.1804145e-08
6.5489016e-09
-3.0027292e-08
1.2275449e-09
-1.6958475e-10
2.0737093e-09
-5.5655219e-09
1.8479538e-09
-2.3991546e-09
2.3322715e-09
-1.8565559e-09
2.4204348e-09
-7.6074503e-11
2.355671e-09
1.4087891e-09
3.3797258e-09
2.6691852e-09
9.9746048e-08
2.5077205e-08
1.8689378e-07
4.7562525e-07
1.4002379e-07
4.0700069e-07
3.3197373e-10
7.4623397e-08
4.112055e-12
1.1097507e-09
0
2.6027676e-11
6.0766257e-16
5.0848305e-13
2.3338422e-16
1.0362781e-14
1.7878751e-17
4.2336058e-16
5.7019337e-19
2.1775557e-17
7.5027246e-21
5.2378265e-19
8.9450793e-23
8.4054275e-21
1.1708005e-24
1.2528747e-22
1.3999751e-26
1.7177789e-24
1.4845318e-28
2.0869211e-26
1.385259e-30
2.3031634e-28
1.0833595e-32
2.2807992e-30
6.996065e-35
1.9555202e-32
3.6668662e-37
1.4320242e-34
1.515441e-39
8.9105024e-37
4.657809e-42
4.7100105e-39
8.7971585e-45
2.1446657e-41
-6.2717311e-48
9.2550808e-44
-1.7661118e-49
3.5441879e-46
-1.2315065e-51
1.5002195e-48
-6.1047331e-54
5.7028662e-51
-2.4539651e-56
1.8794298e-53
-8.0588892e-59
5.3865808e-56
-2.0226757e-61
1.249587e-58
-7.0700809e-63
2.9106993e-61
-7.4058603e-63
1.9614642e-62
-1.2170042e-62
1.8359489e-62
-2.8609454e-62
2.9712214e-62
-3.7289101e-62
3.9746492e-62
-3.5961144e-62
3.0465642e-62
-7.0770897e-62
1.8908909e-62
-2.0809859e-58
-7.9631451e-61
-3.6369114e-56
-1.5802742e-57
-4.8715476e-56
-3.7220523e-65
8.9206499e-65
-6.7542645e-63
9.0693204e-63
-4.8450211e-62
1.5164055e-61
-6.253404e-62
3.5202219e-61
-6.7001965e-62
3.5263981e-61
-4.6192754e-62
2.5330611e-61
-1.9492368e-62
1.3051766e-61
-9.8988249e-63
5.0383571e-62
-2.6871205e-61
2.7601669e-61
-4.0518204e-59
4.2424665e-59
-5.8700504e-57
5.8560832e-57
-8.3286174e-55
7.4305757e-55
-1.0573278e-52
8.5982877e-53
-1.1813126e-50
8.7922828e-51
-1.1707616e-48
7.9600047e-49
-1.0398933e-46
6.4430339e-47
-8.3453655e-45
4.6960026e-45
-6.0909414e-43
3.0984052e-43
-4.0652133e-41
1.8580958e-41
-2.4930781e-39
1.0159064e-39
-1.4109783e-37
5.0757157e-38
-7.3950601e-36
2.3213585e-36
-3.5992209e-34
9.728885e-35
-1.6363489e-32
3.743555e-33
-7.0120613e-31
1.3296323e-31
-2.8338966e-29
4.3927156e-30
-1.1218483e-27
1.3663194e-28
-5.3648043e-26
4.1743111e-27
-3.250687e-24
1.3168026e-25
-1.0159286e-22
3.2603424e-24
-8.5062185e-22
3.8727761e-23
-2.347676e-21
2.1798274e-22
-3.833931e-21
7.5260185e-22
-7.9541351e-21
2.4009777e-21
-1.3875011e-19
2.7691868e-20
-1.0311527e-17
1.8036739e-18
-2.1138484e-16
6.6436435e-17
-1.0764865e-15
6.6684486e-16
-3.5728452e-15
2.8135529e-15
-5.2677432e-15
3.7914312e-15
-2.6848419e-15