/*--------------------------------*- C++ -*----------------------------------*\
  =========                 |
  \\      /  F ield         | OpenFOAM: The Open Source CFD Toolbox
   \\    /   O peration     | Website:  https://openfoam.org
    \\  /    A nd           | Version:  9
     \\/     M anipulation  |
\*---------------------------------------------------------------------------*/
FoamFile
{
    format      ascii;
    class       volScalarField;
    location    "0.76";
    object      alpha.phase1;
}
// * * * * * * * * * * * * * * * * * * * * * * * * * * * * * * * * * * * * * //

dimensions      [0 0 0 0 0 0 0];

internalField   nonuniform List<scalar> 
10000
(
5.0926766e-84
1.5503014e-83
8.3534201e-82
4.2437352e-81
4.9097019e-81
1.812533e-81
5.7313383e-82
5.7317257e-82
1.3187545e-81
1.6149548e-79
1.8733233e-77
1.9360012e-75
1.81503e-73
1.5605083e-71
1.233225e-69
8.9916553e-68
6.0759182e-66
3.8206524e-64
2.2437663e-62
1.2345525e-60
6.3822796e-59
3.1079187e-57
1.4274963e-55
6.1821717e-54
2.5366016e-52
1.0088697e-50
3.9455699e-49
1.4026432e-47
4.0321654e-46
9.9907406e-45
2.7439474e-43
9.2001711e-42
3.3178406e-40
1.1980351e-38
4.2885827e-37
1.5248937e-35
5.4041312e-34
1.9197777e-32
6.8829761e-31
2.4977768e-29
9.1395599e-28
3.3407209e-26
1.2088739e-24
4.3007665e-23
1.4875703e-21
4.9266891e-20
1.54607e-18
4.343775e-17
7.7146654e-16
7.7228751e-15
1.4207743e-13
1.2507842e-12
4.8913743e-12
1.4828103e-11
4.2399174e-11
2.6030768e-11
1.8194622e-11
1.0723043e-11
6.1406091e-12
3.1946261e-12
9.7936865e-13
1.5215104e-13
1.6154417e-14
1.4153423e-15
1.0927084e-16
7.6446812e-18
4.8247137e-19
2.7161905e-20
1.3602939e-21
6.0793643e-23
2.4327727e-24
8.7351159e-26
2.817122e-27
8.161138e-29
2.1220438e-30
4.9446699e-32
1.0302939e-33
1.9146264e-35
3.1636638e-37
4.6323067e-39
5.9876748e-41
6.8040059e-43
6.7661798e-45
5.8591214e-47
4.3939764e-49
2.836757e-51
1.5663873e-53
7.3455013e-56
2.9031356e-58
9.5898446e-61
2.623791e-63
5.8913663e-66
1.0768263e-68
1.5949421e-71
1.9181778e-74
1.8952068e-77
2.212362e-80
6.6747214e-81
6.6746154e-81
6.7139171e-81
5.2747593e-84
1.7853635e-82
7.2955328e-81
3.6257082e-80
4.8025946e-80
3.6990738e-80
2.063627e-80
9.7574021e-81
3.9005788e-80
5.5376698e-78
6.8611133e-76
7.5830738e-74
7.5537183e-72
6.840038e-70
5.6697717e-68
4.3278948e-66
3.0579381e-64
2.0090081e-62
1.2321238e-60
7.0794756e-59
3.8230801e-57
1.945481e-55
9.3434384e-54
4.2431999e-52
1.8376828e-50
7.6896242e-49
3.0686106e-47
1.1105838e-45
3.6249174e-44
1.1719496e-42
4.0502634e-41
1.4500902e-39
5.1556479e-38
1.8043587e-36
6.2360391e-35
2.1333795e-33
7.2301499e-32
2.4457636e-30
8.4099535e-29
2.9801635e-27
1.0816435e-25
3.9633114e-24
1.4487709e-22
5.2312906e-21
1.8438958e-19
6.4174799e-18
2.4301225e-16
6.9796966e-15
5.4815159e-14
1.4308135e-13
1.2595251e-12
4.9014062e-12
1.4882761e-11
4.947738e-11
6.6492045e-11
9.1921325e-11
4.5923953e-11
1.8090935e-11
1.4084949e-10
2.2028062e-10
8.8637555e-11
1.4250571e-11
1.5554045e-12
1.384957e-13
9.6293059e-15
5.7322281e-16
3.0887091e-17
1.496013e-18
6.4504394e-20
2.4860537e-21
8.6215638e-23
2.7023731e-24
7.6743584e-26
1.9755638e-27
4.6034082e-29
9.6819718e-31
1.8312117e-32
3.1019972e-34
4.6865471e-36
6.2864962e-38
7.4523222e-40
7.7688873e-42
7.083669e-44
5.6164251e-46
3.8479174e-48
2.2619524e-50
1.1324106e-52
4.7900879e-55
1.6978275e-57
4.9995712e-60
1.2130396e-62
2.4152404e-65
3.963879e-68
5.4754395e-71
6.5886572e-74
6.9644108e-77
1.2656041e-79
3.922033e-80
7.3410523e-81
7.147189e-81
3.9491621e-81
2.5152652e-79
7.0877855e-78
2.6409286e-77
3.1332497e-77
2.2906542e-77
1.2226997e-77
5.6307143e-78
1.701283e-77
2.5106513e-75
3.201671e-73
3.6232461e-71
3.681072e-69
3.3885838e-67
2.8474821e-65
2.1978766e-63
1.5665877e-61
1.0357302e-59
6.3762924e-58
3.6677001e-56
1.9770855e-54
1.0008064e-52
4.7544616e-51
2.1205064e-49
9.0676431e-48
3.8847417e-46
1.5987124e-44
5.1683881e-43
1.1984063e-41
2.4835433e-40
6.4388796e-39
2.0800167e-37
7.0123911e-36
2.3283114e-34
7.5906639e-33
2.4252692e-31
7.5072062e-30
2.2555238e-28
6.8888398e-27
2.2611248e-25
7.9537087e-24
2.8890447e-22
1.0553038e-20
3.8161684e-19
1.384231e-17
5.2740879e-16
1.5102316e-14
2.2736775e-13
3.5499463e-12
1.6441791e-11
7.8249918e-11
2.4764365e-10
6.7287505e-10
2.2106563e-09
2.0442807e-09
2.9448474e-09
3.4914676e-09
6.4197985e-10
5.83051e-09
1.5480332e-08
6.4258067e-09
7.3400114e-11
1.3835237e-12
3.3320632e-13
1.6822538e-13
2.528566e-14
1.365452e-15
5.1016548e-17
1.971916e-18
7.5150101e-20
2.5716939e-21
7.8349907e-23
2.1459599e-24
5.3002319e-26
1.1798074e-27
2.362311e-29
4.2424393e-31
6.8092373e-33
9.7280923e-35
1.2314829e-36
1.3745738e-38
1.3457942e-40
1.148918e-42
8.498255e-45
5.4088751e-47
2.9399683e-49
1.3539431e-51
5.2428834e-54
1.6953585e-56
4.5552939e-59
1.0178251e-61
1.9158442e-64
3.1372627e-67
4.6462993e-70
6.218512e-73
7.6177358e-76
8.9076513e-77
4.9420499e-77
1.3087997e-77
9.5127595e-78
2.0643979e-78
2.0052426e-76
4.2172486e-75
1.2580121e-74
1.3993506e-74
1.0033985e-74
5.2326471e-75
2.3721516e-75
6.0781745e-75
9.4006454e-73
1.2439096e-70
1.4511292e-68
1.5128341e-66
1.424206e-64
1.2206968e-62
9.5902274e-61
6.9453985e-59
4.6586615e-57
2.906101e-55
1.6920133e-53
9.2247721e-52
4.7198469e-50
2.2630694e-48
1.0154213e-46
4.3921808e-45
1.9958872e-43
9.2582755e-42
3.0623016e-40
5.7000748e-39
7.4046349e-38
1.1365834e-36
2.8866974e-35
9.0805222e-34
2.8965385e-32
9.0932391e-31
2.7808871e-29
7.9234742e-28
2.0152739e-26
4.8834103e-25
1.328999e-23
4.2989606e-22
1.5144166e-20
5.4528751e-19
2.0206237e-17
8.4108815e-16
2.4319958e-14
1.9909425e-13
3.3207886e-12
2.7828892e-10
1.4233118e-09
3.4307609e-09
9.6405185e-09
7.1779192e-08
2.1650778e-06
1.6643408e-06
8.9560158e-07
4.3483164e-07
1.3278599e-06
2.9712206e-06
1.2116199e-06
3.1924454e-09
2.6976054e-10
8.2950997e-12
1.1464167e-12
1.2459853e-13
2.1963037e-14
1.4744715e-14
2.4905098e-15
8.2720068e-17
1.6734784e-18
4.8142932e-20
1.4340168e-21
3.7831048e-23
8.8783753e-25
1.8730363e-26
3.5493168e-28
6.0229031e-30
9.120146e-32
1.2271259e-33
1.4600081e-35
1.5280619e-37
1.3989189e-39
1.1133863e-41
7.6546074e-44
4.5148829e-46
2.2705373e-48
9.6817e-51
3.4900108e-53
1.0653367e-55
2.7781594e-58
6.3162537e-61
1.2910631e-63
2.4685541e-66
4.4919071e-69
7.4926029e-72
7.6688194e-74
7.0275216e-74
3.9798084e-74
1.174152e-74
6.7728332e-75
7.95981e-76
9.260971e-74
1.7015441e-72
4.5035677e-72
4.8092488e-72
3.4158905e-72
1.7557509e-72
7.8646729e-73
1.7179613e-72
2.8363429e-70
3.9386982e-68
4.7715409e-66
5.1308486e-64
4.9583213e-62
4.3470814e-60
3.4839423e-58
2.5682999e-56
1.7504889e-54
1.1079184e-52
6.5363529e-51
3.607443e-49
1.8673445e-47
9.0542159e-46
4.1022722e-44
1.7880214e-42
8.3103542e-41
4.1816334e-39
1.5159639e-37
2.7550772e-36
2.8587008e-35
2.7122128e-34
4.2226049e-33
1.095056e-31
3.2949861e-30
1.0183495e-28
3.1522866e-27
8.9086426e-26
1.9813122e-24
3.5251805e-23
6.6503112e-22
1.7514851e-20
5.7535991e-19
2.0719436e-17
8.7227428e-16
2.6117708e-14
2.2988531e-13
2.3976008e-12
2.4535824e-10
1.4632363e-08
2.3965764e-07
1.877099e-06
5.8450055e-06
1.2813086e-05
2.3792329e-05
2.2496349e-05
7.0567037e-06
6.9949962e-07
1.8019895e-05
4.073544e-05
4.0898391e-05
1.5749588e-05
3.0796224e-08
2.8364905e-10
1.8508536e-11
1.1464167e-12
8.9313039e-14
2.0777772e-14
7.2809787e-15
7.9264885e-16
2.4306805e-17
5.3634973e-19
1.3546819e-20
3.3494177e-22
7.411529e-24
1.4666606e-25
2.6080579e-27
4.1564239e-29
5.910756e-31
7.465165e-33
8.3320413e-35
8.1769437e-37
7.019034e-39
5.2400965e-41
3.3815363e-43
1.8763258e-45
8.9538136e-48
3.7043127e-50
1.3430657e-52
4.3365763e-55
1.2737913e-57
3.4555653e-60
8.666103e-63
1.998091e-65
4.1977167e-68
9.5805799e-71
4.2526877e-71
4.181211e-71
2.3411837e-71
7.1642432e-72
3.6561338e-72
2.400116e-73
3.0387992e-71
5.2159102e-70
1.2902574e-69
1.3421628e-69
9.4898761e-70
4.8372114e-70
2.1336551e-70
3.758118e-70
6.8553261e-68
1.0179953e-65
1.2947577e-63
1.4458569e-61
1.4406374e-59
1.2956571e-57
1.0611149e-55
7.968753e-54
5.5191233e-52
3.5420229e-50
2.1149838e-48
1.179418e-46
6.159152e-45
3.008905e-43
1.3725174e-41
6.004013e-40
2.7638805e-38
1.3783809e-36
5.2835996e-35
1.0649752e-33
1.1612037e-32
9.450855e-32
8.8939278e-31
1.3899653e-29
3.4347145e-28
1.02803e-26
3.3287964e-25
1.013887e-23
2.1540398e-22
2.908436e-21
3.3369267e-20
5.6267993e-19
1.6020346e-17
6.1017112e-16
1.8325544e-14
1.7356153e-13
1.6220696e-12
5.6031998e-11
1.827169e-09
9.3653285e-07
1.6537542e-05
2.2921009e-05
2.5590259e-05
2.5244521e-05
2.4736113e-05
2.3892672e-05
9.6840744e-06
3.0498383e-07
2.3398314e-05
4.0887306e-05
4.0897443e-05
4.0898346e-05
4.0605022e-05
7.8807739e-06
3.5799691e-09
3.1928563e-10
1.4416604e-11
9.3233978e-13
4.7766805e-14
9.2137103e-15
7.3031279e-16
1.5074005e-17
2.3316833e-19
4.3393435e-21
7.7104861e-23
1.2262415e-24
1.7517577e-26
2.2421095e-28
2.5509521e-30
2.5583716e-32
2.2480921e-34
1.7272897e-36
1.1666542e-38
7.0947566e-41
4.0632386e-43
2.3014809e-45
1.2845912e-47
6.7680264e-50
3.2740342e-52
1.3741005e-54
4.8050903e-57
1.4644322e-59
4.0854883e-62
1.0292898e-64
2.0029065e-67
1.7722036e-68
2.0107225e-68
1.9916447e-68
1.0720586e-68
3.3265082e-69
1.581506e-69
5.9549273e-71
7.8244397e-69
1.2966756e-67
3.081841e-67
3.1518908e-67
2.2251045e-67
1.1310512e-67
4.8347839e-68
5.962299e-68
1.3015624e-65
2.1474543e-63
2.9235319e-61
3.4284341e-59
3.5469827e-57
3.2876134e-55
2.7600488e-53
2.1160038e-51
1.4912337e-49
9.7110446e-48
5.8697538e-46
3.306209e-44
1.7401601e-42
8.5505482e-41
3.9208421e-39
1.7237298e-37
7.832808e-36
3.6922847e-34
1.3910261e-32
3.1873435e-31
4.3642769e-30
4.0135525e-29
2.9385076e-28
2.3645866e-27
3.4668991e-26
9.2612412e-25
3.1273203e-23
1.0591475e-21
2.2972375e-20
2.5779621e-19
1.922089e-18
1.7257327e-17
3.72171e-16
1.1312373e-14
1.3070462e-13
7.4388744e-13
2.4526329e-11
8.4772035e-10
2.5785184e-07
1.7250441e-05
2.7152781e-05
2.7178966e-05
2.5719052e-05
1.9596957e-05
1.3423997e-05
5.645412e-06
2.6462678e-07
2.6088014e-07
2.6062362e-07
2.6075814e-07
4.740887e-07
3.2355537e-05
3.9781744e-05
3.8829733e-05
7.7395742e-06
2.8817417e-08
1.4043191e-09
5.7268957e-11
2.0157022e-12
6.8287922e-14
4.3716097e-15
1.5306684e-16
3.0507792e-18
5.4516913e-20
9.40481e-22
1.4868291e-23
2.120426e-25
2.7161758e-27
3.1031705e-29
3.142384e-31
2.8084706e-33
2.2046752e-35
1.5125832e-37
9.071642e-40
4.9427559e-42
2.4774531e-44
1.2164457e-46
5.3553191e-49
1.847388e-51
5.815036e-54
1.812296e-56
5.1681072e-59
1.3391178e-61
2.8923549e-64
4.954313e-66
5.0677537e-66
7.9125968e-66
7.8223033e-66
3.9995053e-66
1.2452451e-66
5.6774385e-67
1.2621057e-68
1.6626015e-66
2.7152629e-65
6.3119398e-65
6.385814e-65
4.5140844e-65
2.3060929e-65
9.0810645e-66
4.8623743e-66
1.7485212e-63
3.541505e-61
5.3659142e-59
6.7394303e-57
7.3229336e-55
7.046392e-53
6.0936615e-51
4.7855406e-49
3.4398878e-47
2.2769036e-45
1.3948576e-43
7.9429206e-42
4.2162279e-40
2.0846513e-38
9.6132506e-37
4.2529377e-35
1.9150782e-33
8.5343428e-32
3.0830872e-30
7.9450934e-29
1.4562714e-27
1.6680446e-26
1.1036733e-25
5.4987611e-25
3.899995e-24
7.8498752e-23
2.7635657e-21
1.0623602e-19
2.3818293e-18
2.2837219e-17
1.1761086e-16
5.7336665e-16
6.9472926e-15
8.1335232e-14
2.3643282e-13
6.2574453e-12
2.3382995e-10
7.7710313e-09
7.2798494e-06
2.7232485e-05
2.7217482e-05
1.2627107e-05
1.4028985e-06
5.0562183e-07
3.1130658e-07
2.6963825e-07
2.608498e-07
2.5972145e-07
2.6014874e-07
2.6062711e-07
2.6072166e-07
2.61328e-07
3.7693334e-05
3.8392819e-05
2.2147058e-05
2.8890181e-07
3.9301785e-09
1.4867936e-10
4.7847275e-12
1.5516105e-13
2.3912279e-14
1.1006181e-15
2.0638349e-17
3.5526127e-19
6.1477428e-21
9.7337437e-23
1.3745399e-24
1.7424211e-26
1.9862868e-28
2.0311747e-30
1.8586796e-32
1.5211379e-34
1.1210675e-36
7.3489671e-39
3.7893717e-41
1.6327598e-43
5.848609e-46
1.8131407e-48
5.4585518e-51
1.5195511e-53
4.0714973e-56
1.0709073e-58
2.5172607e-61
1.1287672e-63
7.870922e-64
1.8358313e-63
2.6816547e-63
2.5874797e-63
1.2746933e-63
1.915004e-62
7.9945172e-63
2.3585471e-66
3.0145596e-64
4.9201202e-63
1.1319338e-62
1.1375078e-62
8.0678075e-63
4.1360643e-63
1.553185e-63
1.7130552e-64
1.2394028e-61
4.106703e-59
7.583976e-57
1.055572e-54
1.224644e-52
1.2345814e-50
1.1059023e-48
8.9278226e-47
6.5601435e-45
4.4198276e-43
2.7464834e-41
1.5817846e-39
8.4702738e-38
4.2160113e-36
1.9557974e-34
8.6913008e-33
3.8682226e-31
1.6512956e-29
5.8711056e-28
1.7252812e-26
4.1612585e-25
5.6194683e-24
3.4633884e-23
1.2839091e-22
5.2182544e-22
7.2016226e-21
2.9471322e-19
1.337021e-17
2.5934199e-16
1.7155602e-15
5.3958681e-15
1.4146099e-14
6.6581516e-14
3.2776089e-13
8.9109261e-13
2.479831e-11
9.1605242e-10
8.8127806e-07
2.1679573e-05
2.7217482e-05
5.5374935e-06
3.3089729e-07
4.3903348e-07
3.2794851e-06
2.4602521e-06
3.2190588e-07
2.6328027e-07
2.6126963e-07
2.6062695e-07
2.6075895e-07
2.6121713e-07
2.6210671e-07
1.9637143e-05
3.8234789e-05
3.7033311e-05
3.0012481e-06
7.2143458e-09
2.3418045e-10
6.4074034e-12
2.0205573e-13
5.7930022e-14
4.0434625e-15
7.3560807e-17
1.1064781e-18
1.9451125e-20
3.306809e-22
4.9384935e-24
6.2177645e-26
6.7564325e-28
6.4124929e-30
5.311663e-32
3.8167891e-34
2.3593965e-36
1.2617822e-38
6.3023967e-41
2.7251488e-43
1.029226e-45
3.4273253e-48
1.0752197e-50
3.2611552e-53
9.0269387e-56
2.242349e-58
5.1117555e-61
1.3352233e-61
2.740532e-61
5.8194554e-61
7.8149017e-61
7.3375668e-61
7.2530373e-61
2.1228538e-58
1.4791783e-58
3.9998459e-64
4.768322e-62
7.8602412e-61
1.8064311e-60
1.8083688e-60
1.2887171e-60
6.5984622e-61
2.4981892e-61
2.8100507e-62
3.4520397e-60
1.7209629e-57
4.1848921e-55
6.6622435e-53
8.501992e-51
9.1481827e-49
8.5989326e-47
7.2114116e-45
5.4696343e-43
3.7877593e-41
2.4124364e-39
1.4214373e-37
7.7868673e-36
3.9830618e-34
1.9097012e-32
8.6007915e-31
3.6360589e-29
1.4839681e-27
6.8490709e-26
4.2183175e-24
1.7728347e-22
2.44888e-21
1.1769084e-20
3.0321609e-20
7.4925246e-20
7.3073746e-19
4.0009826e-17
1.656114e-15
1.9629039e-14
7.3914102e-14
1.407274e-13
2.266721e-13
3.4355426e-13
4.0928797e-13
1.9426382e-12
7.4181862e-11
5.2621505e-09
5.5137791e-06
2.1509968e-05
1.1125632e-05
2.4441326e-07
2.8491168e-07
4.2872056e-06
5.4555148e-06
5.0046265e-06
8.0903607e-07
2.7711716e-07
2.6384075e-07
2.622834e-07
2.6121415e-07
2.6222537e-07
2.6271468e-07
2.7066018e-07
3.3821859e-05
3.6892873e-05
9.0492462e-06
8.401683e-09
2.147327e-10
7.217229e-12
5.4976112e-13
8.3862818e-14
5.689787e-15
1.3553232e-16
1.9578296e-18
3.065889e-20
4.7107061e-22
6.6001142e-24
8.4564454e-26
9.4337933e-28
9.0754889e-30
7.5320746e-32
5.3993906e-34
3.3420389e-36
1.8035343e-38
8.7822946e-41
3.8065602e-43
1.6039628e-45
6.3922901e-48
2.3184735e-50
7.6100664e-53
2.1801219e-55
5.1524239e-58
3.2957515e-59
3.8780604e-59
8.3423468e-59
1.5947324e-58
1.9888325e-58
1.8132129e-58
3.5803358e-57
7.1565691e-55
7.1460994e-55
6.3319281e-62
6.6928278e-60
1.123432e-58
2.598136e-58
2.5959964e-58
1.8602886e-58
9.5719323e-59
3.5772837e-59
2.3298111e-60
3.5501658e-58
6.1814604e-56
2.7931274e-53
7.7479823e-51
1.2440213e-48
1.5012165e-46
1.5149187e-44
1.3334611e-42
1.0468466e-40
7.431265e-39
4.8158622e-37
2.8699542e-35
1.5814713e-33
8.086617e-32
3.8510299e-30
1.7235274e-28
7.3294399e-27
3.0007379e-25
1.2936352e-23
6.7281752e-22
2.5503107e-20
3.4082323e-19
1.5670423e-18
3.6166577e-18
7.0282066e-18
4.0622702e-17
2.2224489e-15
6.8336184e-14
5.5038241e-13
1.6959508e-12
3.4330085e-12
3.9640381e-12
1.7459279e-12
1.5305398e-12
3.4843248e-12
1.401023e-10
2.268225e-07
1.1001638e-05
1.2082164e-05
1.3726127e-07
2.1751303e-07
9.1701307e-07
5.4555148e-06
5.4555148e-06
2.0318703e-06
1.1494977e-06
4.3028101e-07
2.9086284e-07
4.9099789e-07
4.8070148e-07
2.6204265e-07
2.6627697e-07
2.680614e-07
3.5744667e-05
3.3666377e-05
5.4410163e-06
4.2139801e-08
1.4764904e-09
3.8682083e-11
1.0324474e-12
8.4723988e-14
5.0160095e-15
1.2629799e-16
2.0178266e-18
3.2824305e-20
5.0858572e-22
6.8205649e-24
8.0550464e-26
8.5052522e-28
7.9302299e-30
6.4865748e-32
4.6904876e-34
3.0504843e-36
1.8008681e-38
9.9521931e-41
5.7184232e-43
2.9079362e-45
1.2906319e-47
4.9554911e-50
1.5857772e-52
3.5524406e-55
5.4918503e-57
6.1692998e-57
1.1148852e-56
2.1973651e-56
3.8093766e-56
4.5221481e-56
7.9634104e-56
1.6846051e-53
1.2845871e-51
1.5701999e-51
9.6090705e-60
8.4455475e-58
1.4526686e-56
3.4026896e-56
3.3978751e-56
2.4440489e-56
1.3091981e-56
4.3832972e-57
4.4224662e-58
6.7422211e-56
9.2024556e-54
2.4179365e-51
3.3736873e-48
9.4504235e-46
1.4131025e-43
1.5951699e-41
1.5110158e-39
1.2524053e-37
9.2870639e-36
6.2498433e-34
3.85741e-32
2.196401e-30
1.1511528e-28
5.6118342e-27
2.8234959e-25
1.7978206e-23
1.0935991e-21
3.018944e-20
3.3764505e-19
2.4040409e-18
2.0465812e-17
1.227305e-16
3.3729522e-16
5.9096406e-16
1.3490616e-15
5.6752755e-14
1.9771403e-12
1.04536e-11
9.8342058e-12
2.2392746e-12
2.2126544e-12
1.7981503e-12
2.524162e-12
1.538949e-09
5.7570799e-09
1.7659805e-06
6.9992217e-06
6.1394104e-08
1.143659e-07
1.5508128e-07
7.1883306e-07
2.8292005e-06
5.3734789e-06
6.5174048e-06
8.7210473e-06
1.2980024e-05
4.5205272e-07
1.4738588e-06
1.6590292e-06
7.5164687e-07
2.694855e-07
2.7040085e-07
4.4795049e-05
3.6540224e-05
3.5537886e-06
3.7103817e-08
1.2607804e-09
3.2888707e-11
8.7448399e-13
6.6381873e-14
4.0144397e-15
1.1665744e-16
1.7397502e-18
2.506972e-20
3.8888946e-22
5.4240096e-24
6.492731e-26
6.9240408e-28
6.6827907e-30
5.8708967e-32
4.6306583e-34
3.2777657e-36
2.0983409e-38
1.1887367e-40
6.0609078e-43
2.8027739e-45
1.1220424e-47
3.4978416e-50
9.2103247e-53
9.6677135e-55
6.8361774e-55
1.7045127e-54
2.7616163e-54
5.0179676e-54
8.0214288e-54
9.8762147e-54
2.8934309e-52
3.8820592e-50
1.4603526e-48
2.0150655e-48
1.4290328e-57
9.6792637e-56
1.7153833e-54
4.0928306e-54
4.0762378e-54
2.9985079e-54
1.3959416e-54
8.0513634e-57
6.0293094e-55
9.1634827e-53
1.2394598e-50
2.150611e-48
3.8535712e-44
2.1320151e-41
4.0231607e-39
5.1519731e-37
5.3449621e-35
4.8029937e-33
3.8581816e-31
2.8038307e-29
1.8418255e-27
1.2166865e-25
1.4012327e-23
1.9581166e-21
5.4725071e-20
2.625915e-19
3.7547716e-19
1.5307565e-19
1.3184076e-18
1.2195584e-17
1.480281e-16
4.0277035e-16
6.4619929e-16
2.4984367e-15
2.0984221e-14
5.1010291e-14
5.2050479e-14
1.2948413e-12
1.0057344e-09
3.5364029e-09
2.2392746e-12
3.9725453e-08
1.1472852e-08
1.9903186e-09
7.5797353e-07
2.5962577e-06
2.0589026e-07
5.7109993e-08
7.1318464e-08
7.0164266e-07
1.2660234e-06
1.1924477e-06
1.8826149e-06
1.4421699e-05
4.8466288e-05
4.9606116e-05
6.0392107e-06
4.195837e-07
4.1766016e-07
4.0102539e-07
2.6846944e-07
3.7520269e-06
4.4839383e-05
4.4839383e-05
2.8559031e-07
5.6310962e-10
5.5766097e-10
1.5785599e-11
5.2519231e-13
5.0678416e-14
3.6351329e-15
1.1332208e-16
1.6765334e-18
2.3066866e-20
3.5038611e-22
4.9403922e-24
6.0959101e-26
6.6447645e-28
6.4414834e-30
5.5714625e-32
4.3456371e-34
2.9679008e-36
1.7843222e-38
9.4004441e-41
4.1664108e-43
1.5118001e-45
3.6173679e-48
1.6753826e-50
6.0744371e-52
1.0253769e-52
1.9806267e-52
3.9444455e-52
6.0163959e-52
1.0062054e-51
1.5094459e-51
5.807432e-51
7.1988853e-49
5.0211251e-47
1.1453592e-45
1.7012535e-45
2.1128044e-55
1.0183234e-53
1.8637365e-52
4.5578548e-52
4.5498957e-52
3.3218241e-52
1.7063297e-52
2.4960816e-52
2.330704e-50
3.9523268e-48
5.930087e-46
7.9210511e-44
1.0710967e-41
1.7338101e-39
2.8781787e-37
3.9915423e-35
4.3688345e-33
3.9882814e-31
3.1844852e-29
2.2810137e-27
1.4889578e-25
8.9021421e-24
4.8804331e-22
2.675003e-20
2.0993332e-18
2.1092487e-16
6.8694485e-15
5.069052e-14
1.2073462e-13
1.5004038e-13
1.4390649e-13
1.385617e-13
2.2526657e-13
3.6680802e-13
2.4176209e-12
6.7140489e-11
2.4483797e-10
2.5201559e-10
2.5141919e-10
8.5563499e-08
4.9210436e-07
4.186633e-07
1.3666132e-07
9.909925e-07
2.4863761e-06
2.3016868e-06
5.3538938e-08
5.3538938e-08
5.0339508e-06
3.8565595e-05
8.8329862e-06
1.1328067e-06
1.2501074e-06
1.592291e-05
4.9602796e-05
5.0070132e-05
3.8099734e-05
4.317433e-07
4.1842769e-07
4.1502806e-07
3.4159049e-07
1.0778291e-05
4.4839383e-05
3.7405299e-05
3.2830201e-10
9.1409367e-11
2.3514588e-10
9.7865558e-12
4.4113367e-13
4.3596776e-14
3.1463095e-15
9.6088869e-17
1.5041672e-18
2.1785883e-20
3.2574561e-22
4.4530191e-24
5.3425304e-26
5.6104949e-28
5.1230724e-30
4.0449182e-32
2.7662262e-34
1.6490926e-36
8.3399537e-39
3.5161657e-41
1.1168494e-43
2.228563e-46
2.6952809e-48
3.2488978e-49
5.2151889e-50
1.8016963e-50
4.6884669e-50
7.9331077e-50
1.1545138e-49
1.7899708e-49
2.9691489e-49
1.0519186e-47
9.3264958e-46
4.1552565e-44
6.5262094e-43
1.011663e-42
3.1171006e-53
9.9381277e-52
1.8753232e-50
4.7280259e-50
4.740835e-50
3.4493275e-50
1.9504329e-50
2.2887926e-50
1.2830523e-48
2.1715322e-46
3.266622e-44
4.3460815e-42
5.1903425e-40
7.5483649e-38
1.2649603e-35
1.8042999e-33
1.9600777e-31
1.7774895e-29
1.4023622e-27
9.8787463e-26
6.315423e-24
3.6883883e-22
1.9654684e-20
1.014586e-18
6.8806467e-17
6.7346307e-15
2.6402211e-13
2.3552663e-12
6.2837658e-12
8.1066372e-12
7.9599045e-12
7.8265568e-12
1.3160702e-11
1.5025463e-11
9.5901729e-12
1.40617e-11
2.6848328e-11
2.6293889e-11
7.7407049e-11
4.1934251e-07
9.3738262e-07
2.240383e-07
2.1204829e-07
2.1124157e-06
2.3870946e-06
2.9176397e-07
5.3460684e-08
5.3670241e-08
6.6586387e-05
0.0001152679
4.459708e-05
1.100343e-06
1.1368999e-06
6.0598992e-06
4.8363703e-05
5.0367576e-05
5.0665021e-05
1.5449921e-05
4.3342327e-07
4.4510028e-07
5.962583e-07
3.093353e-05
4.472879e-05
1.1552103e-05
4.9398984e-11
7.33215e-11
2.1412897e-10
8.2925754e-12
3.8424187e-13
3.5340065e-14
2.1380459e-15
6.064023e-17
1.0520982e-18
1.5995322e-20
2.3407486e-22
2.9666167e-24
3.2157482e-26
2.9689505e-28
2.3354039e-30
1.5374574e-32
8.2093327e-35
3.6492479e-37
1.3170592e-39
3.6474921e-42
7.6024544e-45
4.1002147e-46
8.1592219e-47
2.3360756e-47
5.3375115e-48
3.7461723e-48
9.2008784e-48
1.3991153e-47
1.9553121e-47
2.8631849e-47
1.3660545e-46
1.2787145e-44
7.4804821e-43
2.3813933e-41
2.7970488e-40
4.4344721e-40
4.5691284e-51
9.0971195e-50
1.758832e-48
4.5932958e-48
4.6325023e-48
3.3862668e-48
1.9152577e-48
1.2651857e-48
1.979976e-47
3.2123709e-45
4.8389594e-43
6.4651743e-41
1.2371182e-38
2.6266383e-36
3.5639692e-34
3.8466865e-32
3.5148138e-30
2.8045773e-28
1.990016e-26
1.2717089e-24
7.3881116e-23
3.9143236e-21
1.8869476e-19
8.7219887e-18
5.0147704e-16
3.9157139e-14
1.3619744e-12
1.1758923e-11
3.1551436e-11
4.0967909e-11
3.6104464e-11
2.0967461e-11
1.8352617e-11
1.7064441e-11
9.6003797e-12
1.6350836e-10
2.6009249e-08
6.4484789e-11
1.009119e-10
4.6243488e-10
8.9391019e-09
6.401335e-07
1.2257993e-07
1.8176377e-07
6.1605619e-08
5.3843549e-08
5.3661532e-08
4.9738826e-07
8.1996464e-05
0.0001152679
6.9482788e-05
1.0827754e-06
1.0831424e-06
1.5195341e-06
1.2918688e-05
5.0665021e-05
5.1057726e-05
5.1449337e-05
2.1800134e-05
1.0964616e-05
4.1161657e-05
4.7925802e-05
3.8323041e-05
5.8691515e-11
2.3906806e-11
7.1063553e-11
2.1966406e-10
7.8741795e-12
2.9359573e-13
2.54942e-14
1.4232843e-15
4.2023903e-17
4.9807328e-19
6.3578494e-21
9.4396009e-23
1.0814385e-24
9.7952497e-27
7.1878103e-29
4.2166356e-31
1.9972998e-33
7.2675542e-36
2.0787761e-38
4.4628449e-41
1.7086645e-43
3.3902067e-44
2.1684998e-44
5.1157817e-45
1.7883096e-45
6.7396699e-46
7.0986586e-46
1.558803e-45
2.1749149e-45
2.925461e-45
4.8068788e-45
1.2551666e-43
9.6102271e-42
4.0871891e-40
9.9628893e-39
9.2678157e-38
1.4812364e-37
6.5988287e-49
7.8969354e-48
1.5414771e-46
4.1957782e-46
4.2689767e-46
3.1679219e-46
1.6810674e-46
7.2724582e-47
1.5087319e-46
3.4290129e-44
8.184444e-42
1.3988832e-39
1.9406852e-37
2.2775779e-35
2.2932697e-33
2.0181135e-31
1.5712651e-29
1.0923425e-27
6.8286442e-26
3.8620886e-24
1.9869639e-22
9.3145938e-21
3.9686159e-19
1.6022262e-17
7.6585971e-16
5.0524933e-14
1.7272285e-12
1.5330237e-11
4.1469879e-11
5.3133671e-11
5.1038782e-11
3.1328005e-11
1.869574e-11
1.8387286e-11
2.1279381e-11
6.3060224e-11
6.3510916e-11
2.1552142e-05
4.5912374e-05
5.1394705e-05
6.433419e-05
6.1549016e-05
1.6833859e-05
5.4215008e-07
1.6452445e-07
6.0268645e-08
5.3840883e-08
1.6123107e-07
6.7177711e-08
0.00011392006
6.9277847e-05
1.0698706e-06
1.0523409e-06
1.000262e-06
1.2701494e-06
3.3393633e-05
5.1449337e-05
5.1449337e-05
5.145043e-05
5.1441243e-05
5.1090705e-05
4.9157873e-05
9.1633144e-06
2.3690967e-11
7.5846438e-12
7.0717557e-11
1.932142e-10
3.6125212e-12
1.6968813e-13
1.6166261e-14
1.6409074e-15
5.3995839e-17
5.8627718e-19
3.4783756e-21
1.8736025e-23
1.6334544e-25
1.151544e-27
6.0265388e-30
3.1019839e-32
1.6713451e-34
8.8999366e-37
3.4511275e-39
1.6601439e-41
2.3719083e-42
1.9327602e-42
8.5996667e-43
3.9256329e-43
1.8049136e-43
9.724812e-44
1.1709275e-43
2.326788e-43
3.0076941e-43
3.9012118e-43
1.3634105e-42
8.8010699e-41
4.8818967e-39
1.6146076e-37
3.1566445e-36
2.4235773e-35
3.8683449e-35
9.3046177e-47
6.6050104e-46
1.2671536e-44
3.6168598e-44
3.7262822e-44
2.7842795e-44
1.4590588e-44
5.7371791e-45
6.0308014e-45
1.0985028e-43
2.3182906e-41
3.6440131e-39
4.7558466e-37
5.2755347e-35
5.0431936e-33
4.2661847e-31
3.2215272e-29
2.1804617e-27
1.3294067e-25
7.3379276e-24
3.6814894e-22
1.6771872e-20
6.9419875e-19
2.8005778e-17
1.4204987e-15
8.5892601e-14
2.2250906e-12
1.550558e-11
3.7860997e-11
4.8423712e-11
4.6900119e-11
2.9819398e-11
2.1268526e-11
1.8446377e-11
8.9372805e-11
3.6299496e-09
1.1509452e-10
2.8660025e-05
8.3391637e-05
8.4086279e-05
8.4122952e-05
8.412953e-05
8.4122952e-05
3.8517915e-05
2.3251744e-07
6.8479148e-08
5.5262332e-08
6.1048618e-08
6.5378226e-08
0.00010403623
5.3749301e-05
1.0523391e-06
1.0139743e-06
9.5636601e-07
3.4896957e-07
3.0906913e-07
3.0332312e-05
5.1451602e-05
5.1434518e-05
5.1088789e-05
4.6013034e-05
6.0934739e-06
1.6580759e-09
-2.5657685e-11
5.3659213e-12
5.932982e-11
9.9428048e-11
1.2810056e-12
3.6591194e-14
2.1415183e-15
2.1409342e-15
7.5340955e-17
1.6952392e-19
6.9547605e-21
9.6688743e-24
5.3672125e-26
4.7222009e-28
4.1458258e-30
4.5948492e-32
3.5726949e-34
2.5309527e-36
1.4950542e-38
2.1469778e-40
1.3738068e-40
1.0080221e-40
5.6675335e-41
4.0299431e-41
2.2932376e-41
1.3683044e-41
1.6605795e-41
3.056813e-41
3.7542873e-41
5.0914126e-41
6.5240684e-40
4.229042e-38
1.7846121e-36
4.7975699e-35
7.776875e-34
5.090602e-33
8.0584952e-33
1.2713128e-44
5.4461515e-44
9.7951033e-43
2.9509777e-42
3.0950793e-42
2.3113276e-42
1.2266776e-42
4.3080785e-43
1.1202764e-43
3.6398919e-43
3.9860936e-41
5.4836922e-39
6.6086265e-37
8.6413529e-35
1.3709577e-32
1.6306774e-30
1.5608023e-28
1.2683347e-26
8.9750168e-25
5.6127281e-23
3.1255812e-21
1.5479648e-19
6.9421149e-18
3.3015882e-16
2.0491526e-14
7.5762941e-13
8.0755552e-12
2.7992771e-11
4.5273528e-11
4.6479246e-11
4.6722134e-11
6.2409783e-11
7.473235e-10
2.5839615e-11
8.8430764e-11
9.428971e-10
1.4571012e-10
1.6946962e-10
6.4580436e-05
8.4055379e-05
8.4092857e-05
8.4130676e-05
6.6777538e-05
1.5550717e-05
3.6843626e-07
1.0236178e-07
7.654455e-08
9.7403591e-08
6.7177711e-08
2.6887911e-05
3.6077984e-05
1.0698522e-06
1.5289755e-06
1.8172598e-06
3.2046726e-07
1.2643581e-07
5.4477747e-08
2.2996762e-06
1.2723395e-05
1.3385533e-05
3.2085539e-06
5.638944e-10
4.1675845e-11
5.0143197e-12
4.9803602e-12
2.431861e-11
2.7260655e-11
8.6431005e-12
1.4879581e-11
1.2052595e-11
7.9165169e-19
7.6933957e-17
-4.0851682e-18
1.7856039e-20
1.5934936e-23
1.0802925e-25
1.4359847e-27
1.8553857e-29
2.8209814e-31
3.546127e-33
2.6986286e-35
1.6392125e-37
8.7030836e-39
7.390271e-39
6.081629e-39
5.6104546e-39
5.538364e-39
3.2346143e-39
1.782962e-39
2.0984322e-39
3.5587878e-39
4.2667751e-39
8.1564542e-39
2.8154275e-37
1.4536066e-35
4.8923387e-34
1.1034379e-32
1.5198477e-31
8.7009215e-31
1.3608019e-30
1.674706e-42
4.5549099e-42
7.1500747e-41
2.2838089e-40
2.4514876e-40
1.8260238e-40
9.7037203e-41
3.3707993e-41
8.6886997e-42
9.4521032e-42
2.9254484e-40
4.5639018e-38
6.9157006e-36
8.5597646e-34
9.0404906e-32
8.2368344e-30
6.5268117e-28
4.5362441e-26
2.7834704e-24
1.5132031e-22
7.2736007e-21
3.0490172e-19
1.1058863e-17
3.7055758e-16
1.2858623e-14
3.8189266e-13
6.031149e-12
4.0129426e-11
1.2775992e-10
2.5350505e-10
2.9888878e-10
7.0925826e-10
3.1928588e-09
9.2004434e-09
1.1337557e-09
1.04913e-09
1.6947914e-10
1.8091331e-09
1.2981186e-06
3.1628194e-05
5.0086439e-05
1.964956e-05
4.4457826e-06
4.0960375e-06
1.8481624e-06
9.0683777e-07
5.2335387e-07
7.092111e-07
7.0747813e-07
3.4275214e-06
3.4857997e-05
1.1030704e-06
3.2791472e-06
6.3167903e-06
1.2677928e-06
5.4540358e-08
1.5523758e-08
3.5074077e-09
4.9418121e-10
4.2990771e-10
2.6808159e-10
5.5488296e-11
5.0143197e-12
4.7508387e-12
4.7676897e-12
5.5164049e-12
1.4724782e-11
7.5057693e-11
1.8680359e-10
2.0270971e-10
0
2.8312904e-17
-1.3317044e-17
5.9006666e-20
3.963574e-22
1.6795893e-23
2.4216926e-25
3.0232665e-27
2.86462e-29
1.9242056e-31
9.0794063e-34
5.5417796e-36
4.1569786e-37
4.3052379e-37
5.55155e-37
7.1552997e-37
7.4328458e-37
3.6664644e-37
2.0276134e-37
2.325675e-37
3.6954353e-37
4.4840187e-37
1.9039119e-36
9.1297906e-35
3.7249235e-33
1.0357428e-31
2.0053307e-30
2.3947484e-29
1.2238978e-28
1.8872727e-28
2.1194001e-40
3.9689028e-40
4.9574053e-39
1.6779121e-38
1.8544964e-38
1.3781128e-38
7.3004193e-39
2.5651055e-39
5.8320644e-40
2.1009669e-40
1.0770105e-38
2.1901716e-37
9.9130088e-36
1.2833685e-33
1.4407688e-31
1.3761835e-29
1.136757e-27
8.1918285e-26
5.1734287e-24
2.9453849e-22
1.5925467e-20
7.6768675e-19
2.6108003e-17
5.5305426e-16
8.4428934e-15
1.2765854e-13
1.3617702e-12
7.0114683e-12
9.9778833e-11
1.2429515e-09
5.9260189e-09
4.7433921e-09
3.1951911e-09
1.6379531e-07
5.502883e-07
8.6730418e-08
1.7871959e-09
9.5022138e-09
8.1747446e-06
7.7629854e-06
7.1559575e-06
6.8988975e-06
5.716776e-06
4.4017327e-06
3.3908631e-06
7.4350127e-06
1.7224668e-06
7.4030068e-07
6.3617239e-06
3.9133487e-05
3.0595228e-05
1.5082371e-06
8.3276501e-06
1.5008001e-05
5.6449222e-06
1.1134154e-07
5.4497064e-08
1.0270937e-08
-1.33183e-09
4.2766183e-10
4.1592355e-10
3.0525883e-10
1.2705765e-11
6.0681232e-12
7.4313101e-12
5.9241939e-12
1.2792551e-11
2.6744892e-11
2.3997125e-10
3.431268e-10
-7.0206364e-18
-8.0211093e-18
-1.9755582e-17
5.6391693e-19
7.3372077e-21
3.222851e-22
3.8681447e-24
4.8570228e-26
4.7277176e-28
3.3284342e-30
1.9226682e-32
5.835505e-35
2.430033e-35
4.1046401e-35
7.0510947e-35
8.8222292e-35
8.4523269e-35
3.4768017e-35
1.9982209e-35
2.2928786e-35
3.4369118e-35
4.5966429e-35
4.9320039e-34
2.2190829e-32
7.3406794e-31
1.7296915e-29
2.9257651e-28
3.0803411e-27
1.430397e-26
2.1730518e-26
2.5753754e-38
3.6860757e-38
3.2778408e-37
1.1707382e-36
1.3412665e-36
9.9565973e-37
5.2537522e-37
1.8540089e-37
4.0994081e-38
1.3911344e-38
4.99237e-37