/*--------------------------------*- C++ -*----------------------------------*\
  =========                 |
  \\      /  F ield         | OpenFOAM: The Open Source CFD Toolbox
   \\    /   O peration     | Website:  https://openfoam.org
    \\  /    A nd           | Version:  9
     \\/     M anipulation  |
\*---------------------------------------------------------------------------*/
FoamFile
{
    format      ascii;
    class       volScalarField;
    location    "0.76";
    object      p;
}
// * * * * * * * * * * * * * * * * * * * * * * * * * * * * * * * * * * * * * //

dimensions      [1 -1 -2 0 0 0 0];

internalField   nonuniform List<scalar> 
10000
(
0
-0.0079649737
-0.021406453
-0.03816924
-0.059426282
-0.084881321
-0.11461407
-0.14847218
-0.1865117
-0.228582
-0.2746757
-0.32474221
-0.37870185
-0.43655196
-0.49819609
-0.56354948
-0.63256325
-0.70515618
-0.78128783
-0.8609608
-0.94418276
-1.0310155
-1.1215916
-1.2160932
-1.3147771
-1.4179844
-1.5261029
-1.6395604
-1.7588245
-1.8843484
-2.0165131
-2.1556239
-2.3019076
-2.4553759
-2.615222
-2.7795367
-2.9467204
-3.1147037
-3.2805893
-3.4401781
-3.5865702
-3.7184527
-3.8339077
-3.9241222
-3.9827911
-4.005855
-3.9928606
-3.9494787
-3.8891837
-3.833553
-3.8079168
-3.8646159
-4.0114663
-4.2476259
-4.5478071
-4.8810058
-5.2261338
-5.5500822
-5.7909066
-5.9072784
-5.8878345
-5.7507602
-5.5453961
-5.2979511
-5.0244321
-4.738708
-4.4511493
-4.1679026
-3.8925615
-3.6271028
-3.3723624
-3.1285148
-2.89541
-2.6727504
-2.4601782
-2.2573143
-2.063792
-1.8792369
-1.7033269
-1.535769
-1.3763161
-1.2247791
-1.0809725
-0.94477308
-0.81609591
-0.6948905
-0.58118184
-0.47494077
-0.37620646
-0.28504133
-0.20160429
-0.12608266
-0.05863564
0.00073165166
0.05221845
0.095940592
0.13214129
0.15916724
0.18036588
0.19350056
0.00058454425
-0.0071527089
-0.020474819
-0.037223054
-0.058407356
-0.083917638
-0.11359572
-0.1475063
-0.18549428
-0.22754776
-0.27360795
-0.32356231
-0.37740415
-0.43503218
-0.49634295
-0.56128345
-0.62975439
-0.70168906
-0.77707398
-0.85588897
-0.93815825
-1.0239844
-1.1135168
-1.2069757
-1.3046846
-1.4070375
-1.5144824
-1.6275398
-1.7467746
-1.8727262
-2.0058741
-2.1466191
-2.2951853
-2.451439
-2.6146966
-2.7836588
-2.9565935
-3.1311437
-3.3041968
-3.4718594
-3.6295584
-3.7740272
-3.894859
-3.9883016
-4.0490242
-4.0722237
-4.0555568
-4.0022621
-3.9260414
-3.8541215
-3.7923458
-3.8439951
-4.0057039
-4.2780727
-4.6177948
-4.9719119
-5.3500963
-5.7347211
-6.0205929
-6.1569478
-6.1242144
-5.9565173
-5.7280719
-5.4658576
-5.1770323
-4.8750643
-4.5713685
-4.2726895
-3.9830013
-3.70449
-3.4381339
-3.1841223
-2.9422251
-2.7120059
-2.4929706
-2.284581
-2.0862965
-1.8975984
-1.7180736
-1.5473548
-1.3851239
-1.2311205
-1.0851288
-0.94700027
-0.81663376
-0.6939542
-0.57893877
-0.47158607
-0.37189612
-0.27993594
-0.19580365
-0.1196058
-0.051415958
0.008762566
0.060997921
0.10540355
0.14285059
0.16989975
0.19125868
0.20466866
0.0086933772
0.0011667726
-0.012152686
-0.028809325
-0.050056064
-0.07550971
-0.10526949
-0.13918103
-0.17720479
-0.21928773
-0.26531122
-0.31525109
-0.36901033
-0.42646881
-0.48755678
-0.55216012
-0.62017478
-0.69155509
-0.76625447
-0.84424901
-0.92559088
-1.0103817
-1.0987809
-1.1910539
-1.2875612
-1.3887436
-1.4951369
-1.6073631
-1.7260874
-1.8519866
-1.9857088
-2.1278001
-2.2786062
-2.4381344
-2.6058963
-2.780825
-2.9612685
-3.1448498
-3.3284104
-3.5080337
-3.6791316
-3.8366232
-3.9729988
-4.0803583
-4.1531051
-4.1842555
-4.1682285
-4.1052248
-4.0080885
-3.9013572
-3.8122475
-3.8433049
-4.0326684
-4.3707798
-4.8038368
-5.1901795
-5.5826282
-6.0745348
-6.417509
-6.556668
-6.4445457
-6.2009254
-5.9368447
-5.6490792
-5.3297371
-5.000577
-4.6742596
-4.3563852
-4.0505832
-3.7587038
-3.4812686
-3.2180424
-2.9684701
-2.7318332
-2.5073896
-2.2944054
-2.0922015
-1.9001521
-1.7177518
-1.544538
-1.3801387
-1.2242405
-1.0765903
-0.93703155
-0.8054134
-0.68166313
-0.56570079
-0.45753834
-0.35712729
-0.26453263
-0.17981115
-0.10303192
-0.034263394
0.026475929
0.07914545
0.12346566
0.16247592
0.19024465
0.21121335
0.22471609
0.019497973
0.011988311
-0.0012472817
-0.01797366
-0.039208205
-0.064778308
-0.094594785
-0.12860247
-0.16674864
-0.20890432
-0.25502724
-0.30503005
-0.35878447
-0.41620092
-0.47715244
-0.54149904
-0.60914728
-0.68001052
-0.75401601
-0.83115491
-0.91146468
-0.9950304
-1.0820344
-1.1727628
-1.2675981
-1.3670413
-1.4717269
-1.5823822
-1.699809
-1.8248848
-1.9584994
-2.1014419
-2.2543205
-2.4174519
-2.5906622
-2.7731498
-2.9634315
-3.1592244
-3.3573339
-3.5536405
-3.7430511
-3.9194145
-4.0754082
-4.2050367
-4.2986067
-4.3465496
-4.3379805
-4.2673966
-4.1491855
-4.0108439
-3.8786186
-3.8760864
-4.0951461
-4.5267392
-5.1533929
-5.6424358
-5.9990299
-6.7298731
-7.0206047
-7.1998001
-6.9894023
-6.5769584
-6.2254582
-5.8893613
-5.5261123
-5.1589096
-4.7992141
-4.452999
-4.1240686
-3.813768
-3.5218808
-3.2473937
-2.9890538
-2.7455397
-2.5156204
-2.2981945
-2.0923058
-1.8971456
-1.7120619
-1.5364983
-1.3700016
-1.2122179
-1.0628629
-0.92175932
-0.78877912
-0.66378197
-0.54670211
-0.4375124
-0.3361696
-0.24272212
-0.15721535
-0.079723317
-0.010251582
0.051172501
0.104549
0.14984625
0.18778634
0.21676098
0.23789418
0.25158983
0.033925014
0.026493607
0.013188389
-0.0034921601
-0.024851528
-0.050497232
-0.080429272
-0.11459616
-0.15287251
-0.195203
-0.24149488
-0.29161328
-0.34546065
-0.40290132
-0.46376585
-0.5279176
-0.5952235
-0.66555345
-0.73883197
-0.81502747
-0.89413729
-0.97623578
-1.0615058
-1.1502358
-1.2428411
-1.3398936
-1.442116
-1.5503633
-1.6656316
-1.7890568
-1.9218424
-2.0651466
-2.2199776
-2.3870739
-2.5666898
-2.7583962
-2.9609855
-3.1723426
-3.3892825
-3.6075154
-3.8216979
-4.0254617
-4.2114546
-4.3719571
-4.4976669
-4.5770105
-4.592834
-4.5287338
-4.3921926
-4.241043
-4.0594088
-4.2129209
-4.3361931
-4.0058399
-4.5024701
-6.5296459
-6.8084852
-7.6625573
-5.1337897
-5.4059924
-7.5695497
-6.8833238
-6.5686979
-6.2058893
-5.7869143
-5.3658651
-4.9584261
-4.5725959
-4.2127496
-3.8787465
-3.5687039
-3.2803114
-3.0112772
-2.7594729
-2.5230241
-2.3003288
-2.0900829
-1.8912436
-1.7029726
-1.5245814
-1.3555324
-1.1954272
-1.0440005
-0.90100704
-0.76631719
-0.63974428
-0.52122364
-0.41070517
-0.30816028
-0.21363511
-0.12715875
-0.048743264
0.021576739
0.083806279
0.13791861
0.18388962
0.22186301
0.25140187
0.27281854
0.28671981
0.052392173
0.044917479
0.031645479
0.01487876
-0.0065578545
-0.032337642
-0.062465752
-0.096815865
-0.13533345
-0.17793165
-0.22446799
-0.27483108
-0.32888463
-0.38644551
-0.44734178
-0.51139877
-0.57843217
-0.64829582
-0.72088156
-0.7960975
-0.87390141
-0.95434173
-1.0375691
-1.1238669
-1.2136844
-1.3076383
-1.4065227
-1.5113449
-1.6233419
-1.7439536
-1.8747731
-2.0174574
-2.1735748
-2.344431
-2.5308698
-2.7330237
-2.950117
-3.1802811
-3.4203821
-3.6660096
-3.9116253
-4.1506687
-4.3755548
-4.5779754
-4.7504405
-4.8863102
-4.9643751
-4.9264786
-4.7380381
-4.4134132
-4.106599
-3.7081154
-3.9883282
-4.8040355
-5.8380271
-8.3341142
-9.0100955
-10.039287
-8.3778735
-8.3875717
-7.9375859
-7.4529968
-7.1514462
-6.6098905
-6.0936363
-5.606988
-5.1412214
-4.706279
-4.3082628
-3.9458153
-3.6147306
-3.3106815
-3.0298898
-2.7691197
-2.5256916
-2.2974101
-2.0825712
-1.8798299
-1.6881569
-1.5067303
-1.3349459
-1.1723686
-1.018687
-0.87365489
-0.73705434
-0.60874555
-0.48862667
-0.37662952
-0.2727645
-0.17701706
-0.089422779
-0.0099711811
0.061295885
0.12438655
0.17924989
0.22588711
0.26426558
0.29421788
0.31592126
0.32991947
0.074772267
0.067371477
0.053975974
0.037171227
0.015598686
-0.010394773
-0.040745746
-0.075395347
-0.11426352
-0.15721451
-0.20413179
-0.25487519
-0.30925686
-0.36708787
-0.42816324
-0.49225166
-0.55914366
-0.62865715
-0.70060984
-0.7748433
-0.85126454
-0.92986328
-1.0107415
-1.0941625
-1.1805687
-1.2705886
-1.3650893
-1.465242
-1.5725399
-1.6887788
-1.8160394
-1.956606
-2.1127766
-2.286641
-2.4798692
-2.6934004
-2.9270694
-3.1793445
-3.4471812
-3.726055
-4.0101683
-4.292748
-4.5660815
-4.8219349
-5.0583311
-5.2876468
-5.4826716
-5.5010056
-5.1273846
-4.2413856
-4.069645
-4.9976712
-6.1116825
-7.4422131
-9.236127
-11.399627
-13.177809
-14.830819
-14.880791
-13.909
-12.573098
-9.6921785
-7.8979189
-7.3431977
-6.5234716
-5.8940414
-5.3480094
-4.8511421
-4.4060853
-4.0099662
-3.6552281
-3.3344142
-3.0415015
-2.7717453
-2.5214659
-2.2877776
-2.068491
-1.8619461
-1.6669116
-1.4824704
-1.3079292
-1.1428406
-0.98681146
-0.83961238
-0.70098126
-0.57078372
-0.4489328
-0.33534039
-0.22999106
-0.13290501
-0.044053571
0.036554072
0.10885596
0.17288646
0.22860237
0.27594844
0.31488609
0.34529421
0.36728815
0.38127933
0.10115862
0.093724437
0.080268908
0.063358145
0.041579674
0.015358065
-0.015320199
-0.050372754
-0.089672806
-0.13311284
-0.18055561
-0.23181325
-0.28669138
-0.3449734
-0.40639951
-0.47070736
-0.53764967
-0.60696616
-0.6783917
-0.75169652
-0.82670399
-0.90331679
-0.98156964
-1.0616633
-1.1439791
-1.2291312
-1.3180506
-1.4120482
-1.5128596
-1.6226828
-1.7441809
-1.8804147
-2.0346176
-2.2099533
-2.4092344
-2.6344801
-2.8864012
-3.1640174
-3.4644049
-3.7827252
-4.1126802
-4.4470595
-4.7776053
-5.0963248
-5.4129845
-5.7736515
-6.1330135
-6.2153211
-4.8115633
-5.1181243
-6.4255881
-6.7104161
-7.8794061
-9.5958518
-12.146367
-15.185039
-17.983934
-19.966142
-20.230909
-18.884022
-16.250303
-12.92431
-9.368516
-8.5694558
-7.1789879
-6.2821136
-5.5826576
-5.0022393
-4.5016077
-4.0671215
-3.687025
-3.3492733
-3.0446429
-2.7665003
-2.5099317
-2.271281
-2.0478677
-1.8377469
-1.6394662
-1.4520169
-1.2746834
-1.1069721
-0.94852526
-0.79900799
-0.65820827
-0.52597124
-0.40219223
-0.28683956
-0.17985058
-0.081255754
0.0089657716
0.090832758
0.16431342
0.22939675
0.28606789
0.33421889
0.37380671
0.40474907
0.42708713
0.44104877
0.1315091
0.12413385
0.11055488
0.093483746
0.071493038
0.044947733
0.013852417
-0.021672802
-0.061532261
-0.10560475
-0.15371371
-0.20566867
-0.2612536
-0.32019866
-0.38221279
-0.44700026
-0.51423674
-0.5835725
-0.65466068
-0.72717157
-0.80081154
-0.87537403
-0.95078562
-1.0271248
-1.1046655
-1.1839726
-1.2659901
-1.3521055
-1.4442561
-1.5450485
-1.6578234
-1.7866123
-1.9358099
-2.1099881
-2.3135211
-2.5499629
-2.8213478
-3.1275324
-3.4656553
-3.8301498
-4.2136655
-4.6078925
-5.0031761
-5.3914486
-5.7917536
-6.2632572
-6.6914342
-6.0591924
-5.4674713
-6.8513055
-7.201647
-8.0118935
-9.9931461
-12.184851
-15.511439
-19.626183
-23.497547
-26.129754
-26.556935
-24.596782
-20.833986
-16.607654
-11.707302
-8.7669406
-7.9153245
-6.6925966
-5.8244343
-5.1470924
-4.5835639
-4.1091187
-3.7044875
-3.3514558
-3.0368263
-2.7517599
-2.4900518
-2.2472755
-2.0203049
-1.8069397
-1.6056082
-1.4152154
-1.2350984
-1.0646917
-0.90375642
-0.75178952
-0.60866975
-0.47421703
-0.34837328
-0.23107881
-0.12232415
-0.022095886
0.069658949
0.15292704
0.22772423
0.29399563
0.35170317
0.40077497
0.44113572
0.47271144
0.49545328
0.5095856
0.16597256
0.1586137
0.14488596
0.12767161
0.10538069
0.078438347
0.046872166
0.010760564
-0.029793619
-0.074635678
-0.12359598
-0.1764721
-0.2330015
-0.292885
-0.35580139
-0.42138586
-0.48922814
-0.55889481
-0.62993497
-0.7018877
-0.77432192
-0.84688498
-0.91933464
-0.99157262
-1.0637188
-1.1362147
-1.2099187
-1.286204
-1.3671268
-1.4556368
-1.5557862
-1.6728877
-1.8126996
-1.9815844
-2.1861316
-2.4321561
-2.7235825
-3.0614235
-3.4429737
-3.8614082
-4.3071005
-4.7695909
-5.2362029
-5.6958787
-6.172065
-6.6978765
-7.1800935
-5.8781285
-7.4657478
-7.7749411
-8.2941422
-9.7346621
-11.578934
-14.554564
-18.712141
-23.56352
-28.318112
-31.699974
-32.34919
-29.978974
-25.197825
-19.27113
-14.019555
-9.2649854
-8.9406193
-7.1756746
-6.056911
-5.2569845
-4.6316842
-4.1232396
-3.6997467
-3.3360449
-3.014927
-2.7255146
-2.4605181
-2.2148965
-1.9852236
-1.7691447
-1.5650511
-1.3718758
-1.1890089
-1.0158291
-0.85252838
-0.69787037
-0.55233407
-0.41544748
-0.28738117
-0.16803978
-0.057380173
0.044630923
0.13805455
0.22286725
0.29908373
0.36667568
0.4255566
0.47566597
0.51693668
0.5492911
0.57254336
0.58710257
0.20459459
0.19724519
0.18339763
0.16597362
0.14333236
0.11595608
0.083820316
0.04700482
0.0056324881
-0.040157426
-0.090191976
-0.14423288
-0.20199632
-0.26316291
-0.32735133
-0.39411791
-0.46297727
-0.53339782
-0.60479524
-0.67656109
-0.74810282
-0.81886991
-0.88839281
-0.95634784
-1.0226269
-1.0874291
-1.1513954
-1.215763
-1.2825534
-1.3548372
-1.4371875
-1.5370661
-1.661426
-1.8188008
-2.0189583
-2.2709201
-2.58151
-2.9541862
-3.3871085
-3.8702672
-4.3886626
-4.9295099
-5.4750163
-5.9999343
-6.5100868
-7.0325605
-6.6927848
-7.3196437
-8.1082512
-8.5066176
-9.3009548
-10.49323
-12.714832
-16.137703
-20.660311
-25.817067
-31.087798
-35.073761
-36.0517
-33.633449
-28.463707
-22.027479
-15.209325
-10.688184
-9.2350203
-7.3218614
-6.105334
-5.2659224
-4.6165554
-4.0947134
-3.6649066
-3.2985937
-2.9763836
-2.6862966
-2.4204735
-2.1736486
-1.9423375
-1.7242689
-1.5177553
-1.3219179
-1.1364365
-0.95994457
-0.79523416
-0.63736248
-0.48896248
-0.34961591
-0.21923019
-0.097722795
0.01497271
0.11891924
0.21413881
0.30063798
0.37842739
0.44745715
0.50766271
0.55895575
0.60126759
0.63440104
0.65848378
0.67373949
0.24748522
0.24018959
0.22615202
0.20850396
0.18549815
0.15760572
0.12480262
0.087179082
0.04482945
-0.0021156635
-0.053457635
-0.1089486
-0.16829613
-0.23113597
-0.29702336
-0.36545214
-0.43585224
-0.50757027
-0.57987878
-0.6520059
-0.72315588
-0.79253569
-0.85940751
-0.92315305
-0.98332429
-1.0397405
-1.0926822
-1.14309
-1.1927451
-1.2444412
-1.3019256
-1.3781092
-1.4788757
-1.6154361
-1.8027825
-2.0547213
-2.3826162
-2.7936089
-3.2859493
-3.8467488
-4.4536279
-5.091437
-5.735083
-6.3293737
-6.8339978
-7.155764
-7.3147663
-7.8569813
-8.3855383
-8.7097788
-9.5759198
-11.058036
-13.362527
-16.935369
-21.292549
-25.946742
-31.510676
-35.734202
-36.836193
-34.852216
-29.841701
-23.449817
-14.526841
-10.734563
-8.9556486
-7.1005541
-5.9653187
-5.1603065
-4.5268138
-4.0165959
-3.59561
-3.2368594
-2.9200899
-2.6335797
-2.36973
-2.1235549
-1.891744
-1.6724929
-1.4638451
-1.2652411
-1.078111
-0.89889997
-0.729854
-0.56966057
-0.41864025
-0.27675467
-0.14394653
-0.020130683
0.094738614
0.20072264
0.29788606
0.38620679
0.46570708
0.53633384
0.59803189
0.65068186
0.69422794
0.72849091
0.753432
0.76969298
0.29478511
0.28750819
0.27328546
0.25542101
0.23198957
0.20351106
0.16996149
0.13139377
0.087886128
0.039580056
-0.013329759
-0.07060197
-0.13191679
-0.19686551
-0.26496141
-0.33563441
-0.40821205
-0.4819156
-0.55587043
-0.62911307
-0.70060803
-0.76928921
-0.83410342
-0.89404808
-0.94821653
-0.99590996
-1.0368639
-1.0714863
-1.1011696
-1.12923
-1.1618389
-1.2015942
-1.2640882
-1.365296
-1.5268198
-1.7680708
-2.1065958
-2.5574049
-3.1215848
-3.7914786
-4.511957
-5.2632483
-6.041722
-6.7385582
-7.222006
-7.4338092
-7.8163927
-8.0456176
-8.7054291
-8.5540449
-9.4858191
-10.767237
-13.024742
-16.353203
-17.846006
-22.599799
-29.832765
-33.984794
-35.381023
-33.577148
-29.067988
-23.120794
-14.008094
-9.9129086
-8.4660916
-6.7836242
-5.7204527
-4.9645276
-4.3719594
-3.8915016
-3.4913488
-3.1516883
-2.8466972
-2.5679515
-2.3088658
-2.0650409
-1.8336453
-1.6145101
-1.4037505
-1.2030522
-1.012234
-0.83052243
-0.65827167
-0.49523164
-0.34144526
-0.19688249
-0.061539306
0.06467267
0.18184183
0.29000535
0.38923181
0.47951767
0.56087212
0.63326902
0.69662099
0.7508355
0.79584116
0.83136964
0.85738415
0.8750245
0.34656406
0.33934939
0.32495623
0.30683841
0.28294435
0.25383359
0.21943422
0.17977891
0.13494623
0.085057324
0.030286571
-0.02911543
-0.092808749
-0.16036794
-0.23126866
-0.30486575
-0.3803887
-0.45693863
-0.53347674
-0.60882539
-0.68169469
-0.75071261
-0.81444603
-0.87143144
-0.92021551
-0.95943967
-0.98803813
-1.005454
-1.0119435
-1.009135
-1.0016167
-0.99693593
-1.0105013
-1.0634645
-1.1756053
-1.3907617
-1.7302026
-2.2300736
-2.8803397
-3.7005168
-4.5542097
-5.4385737
-6.4144463
-7.3454835
-7.7785877
-8.3437591
-8.2127744
-8.7356507
-9.417621
-7.1553378
-9.1913207
-9.9832779
-12.057179
-15.216914
-17.145166
-21.280993
-27.089892
-30.675088
-31.908456
-30.317521
-26.289912
-21.08996
-12.770719
-9.5749635
-8.049222
-6.4048359
-5.4016936
-4.7028559
-4.16347
-3.7273531
-3.3618848
-3.0444215
-2.7571616
-2.4906507
-2.2391071
-1.9992701
-1.7695358
-1.5491006
-1.3371788
-1.1342344
-0.94036132
-0.75564203
-0.58023531
-0.4141326
-0.2574176
-0.11007656
0.027922247
0.15665926
0.27619443
0.38663852
0.48804122
0.58043027
0.66379568
0.73814545
0.80333949
0.85934909
0.90605166
0.94301763
0.970359
0.98972297
0.40295971
0.39585446
0.38127491
0.36291068
0.33854545
0.30873922
0.27339434
0.23253433
0.18620598
0.13449569
0.077569052
0.015675524
-0.05085585
-0.12159255
-0.19596893
-0.27327769
-0.35266568
-0.43310927
-0.51339339
-0.59212147
-0.66773459
-0.73851299
-0.80259427
-0.85801728
-0.90271933
-0.93453806
-0.9513948
-0.9512897
-0.93255757
-0.89445364
-0.8395344
-0.77597455
-0.72082315
-0.7023808
-0.76028975
-0.90746921
-1.2123873
-1.761866
-2.4624106
-3.5528487
-4.6128767
-5.5651546
-6.764453
-8.0382896
-8.9659541
-9.4862308
-8.9655331
-9.2215675
-5.5120533
0.11665942
-6.6105486
-8.7453406
-10.519665
-13.683606
-16.089425
-19.822828
-24.115944
-27.126278
-27.666448
-25.956847
-22.357399
-17.93471
-11.415851
-9.3692708
-7.178308
-5.8154348
-4.9676522
-4.3654201
-3.9034656
-3.5278754
-3.2077375
-2.9219908
-2.6570433
-2.4053909
-2.1629433
-1.9278431
-1.6997393
-1.4786337
-1.2649716
-1.0594033
-0.86239046
-0.67436906
-0.49564677
-0.32634947
-0.16658546
-0.016370683
0.12434039
0.25566245
0.37765394
0.49046426
0.59414634
0.68875358
0.77429272
0.85077241
0.91805298
0.97609703
1.0247405
1.0633787
1.0923163
1.1137398
0.46408038
0.45711844
0.44240799
0.42384078
0.39898431
0.36844297
0.33209362
0.28991665
0.24191776
0.18816278
0.12879156
0.064017219
-0.0058534116
-0.080382887
-0.15898539
-0.24091766
-0.32524986
-0.41083227
-0.49628327
-0.57998823
-0.66009153
-0.73448973
-0.80087611
-0.85679415
-0.89954775
-0.92607945
-0.93310114
-0.91726951
-0.87382332
-0.79789291
-0.68777543
-0.55002338
-0.40303745
-0.27812735
-0.24215466
-0.34519991
-0.54065851
-1.1530716
-1.8435702
-3.4876197
-5.0505541
-5.8244717
-7.0000666
-8.9655522
-10.274138
-10.522629
-9.5968838
-9.0755318
-4.4758369
1.4631777
-5.07082
-7.172212
-8.9916332
-11.808881
-14.803978
-17.982128
-21.239304
-23.68188
-23.95215
-21.537733
-18.643807
-12.787217
-9.8945415
-7.4332158
-6.0225877
-5.0469275
-4.424544
-3.9626267
-3.603846
-3.3039002
-3.0383841
-2.7907772
-2.5515467
-2.3162315
-2.083282
-1.8527899
-1.6258274
-1.4036675
-1.1876209
-0.97886334
-0.77832843
-0.58672065
-0.40449117
-0.23187013
-0.068986319
0.084152159
0.22762279
0.36153323
0.48602843
0.60125674
0.70730088
0.80422894
0.89211174
0.97091449
1.0405268
1.1008675
1.1517138
1.1923162
1.2231589
1.2470251
0.52999308
0.5233134
0.50857154
0.48982854
0.46450325
0.43323034
0.39582745
0.35223187
0.30241901
0.24641619
0.18430444
0.11624648
0.042520116
-0.036461334
-0.1201282
-0.20771786
-0.29823443
-0.39042439
-0.4827556
-0.5733841
-0.66013457
-0.74050775
-0.81174833
-0.87091579
-0.91472307
-0.93929627
-0.94032317
-0.91313767
-0.84926716
-0.73648393
-0.56449843
-0.33510532
-0.068060699
0.20412993
0.38835492
0.40408136
0.10995309
0.51727937
0.30544868
-2.4848089
-3.8876543
-4.8512631
-6.8374592
-8.8844235
-10.477954
-10.840228
-9.7148289
-8.3877059
-6.9603768
1.7780346
-3.594243
-5.9328678
-8.0293285
-10.765825
-13.72793
-16.390911
-18.414968
-19.310967
-18.123021
-16.082316
-12.922196
-9.6409222
-7.6955325
-5.9429178
-4.8845324
-4.2455452
-3.8395067
-3.5343917
-3.2902607
-3.0739917
-2.8678368
-2.660807
-2.4479279
-2.2284344
-2.0038018
-1.7765031
-1.549324
-1.3249004
-1.1054502
-0.892763
-0.68817362
-0.49264171
-0.30670742
-0.13067267
0.035338497
0.19136726
0.33756833
0.47405682
0.60104765
0.71869423
0.82714718
0.92648412
1.0168215
1.0982043
1.1703943
1.2333375
1.2866886
1.3295572
1.3626909
1.3894295
0.60075779
0.59464396
0.57998133
0.56114166
0.53540542
0.50340978
0.46492085
0.41984793
0.36811461
0.30967477
0.24453922
0.17281209
0.09470706
0.010571767
-0.079066603
-0.17345107
-0.27155924
-0.37207118
-0.47331362
-0.57320291
-0.66923445
-0.75849813
-0.83775574
-0.90360276
-0.95236319
-0.97962516
-0.98008073
-0.94962706
-0.87647601
-0.73663469
-0.50150021
-0.16118661
0.2585747
0.73270164
1.1310425
1.4470586
1.5636306
1.9777744
5.0484377
2.5391494
-0.023701341
-1.6637165
-2.1036281
-7.4664597
-10.303045
-10.706954
-9.3720599
-7.4033459
-6.4516248
0.73342916
-3.6266629
-5.994279
-8.1504356
-11.069252
-14.060946
-16.533176
-17.529989
-16.811091
-15.024335
-11.970686
-9.7562772
-7.7800856
-5.9294906
-4.65197
-3.8922621
-3.5023514
-3.2773658
-3.1231636
-2.9931822
-2.8609903
-2.7133028
-2.5445846
-2.3549844
-2.1479957
-1.928431
-1.7014034
-1.4715941
-1.2429738
-1.0187018
-0.80108731
-0.59181036
-0.39197989
-0.20219139
-0.022728597
0.1463502
0.3051757
0.45395813
0.59290837
0.72230223
0.84233979
0.95321655
1.055025
1.1478203
1.2321346
1.3072209
1.3731037
1.4293126
1.4747603
1.5106288
1.5407613
0.67650627
0.67138891
0.65695409
0.6380947
0.61199475
0.57929917
0.53973965
0.49317299
0.43944064
0.37841422
0.31002254
0.23427412
0.1512728
0.061269487
-0.035282689
-0.13768852
-0.24496243
-0.35575935
-0.46828835
-0.58024449
-0.68878946
-0.79053507
-0.88159974
-0.95801327
-1.0156416
-1.0490933
-1.0566756
-1.0355083
-0.97602443
-0.83939245
-0.55505762
-0.091325322
0.52412988
1.2331336
1.8938358
2.5672649
3.0787939
3.2706223
4.7134416
3.9451913
0.61394711
-2.2898712
-4.6868218
-9.2340158
-10.730859
-11.038355
-9.3761536
-6.8037138
-5.5934136
-5.1291105
-4.2975172
-6.9793425
-9.3256554
-12.697075
-16.045749
-18.130462
-18.49047
-17.177596
-14.795672
-12.059099
-8.7799781
-6.1627179
-4.4716265
-3.480016
-2.9850521
-2.8155877
-2.7701748
-2.762227
-2.7428095
-2.6894286
-2.5935718
-2.4558688
-2.282314
-2.0812056
-1.8610295
-1.6296465
-1.393623
-1.1581868
-0.92726527
-0.70355902
-0.48893612
-0.28449367
-0.090794868
0.091998502
0.26395679
0.42534962
0.57646608
0.71767309
0.84929833
0.97165202
1.0849491
1.1892773
1.2841337
1.3721214
1.4504302
1.5196046
1.5790439
1.6274434
1.6665548
1.7007053
0.75865866
0.7540874
0.73985868
0.72098756
0.69456793
0.66123568
0.62066131
0.57262387
0.51687148
0.45318346
0.38137219
0.30130388
0.21293947
0.11639492
0.011984445
-0.099738126
-0.21789721
-0.34118746
-0.46777279
-0.59519364
-0.72027713
-0.83907433
-0.94689644
-1.0388085
-1.1100775
-1.1539695
-1.1718722
-1.1700416
-1.1564348
-1.0825744
-0.78082773
-0.19080774
0.67631709
1.6511477
2.651143
3.7934549
4.8818078
5.7998327
7.0094017
4.4238915
1.4072537
-3.1623074
-7.2575
-10.754331
-12.852958
-13.056847
-10.737496
-7.2915303
-5.2061133
-4.7403598
-4.9515961
-8.7688784
-11.559788
-15.606406
-19.783295
-21.419752
-20.557065
-17.920006
-14.44293
-10.459624
-6.8611691
-4.4136675
-2.9945675
-2.3260097
-2.1310447
-2.1986624
-2.3472774
-2.4865382
-2.571556
-2.5858881
-2.5288415
-2.4090536
-2.2394954
-2.0338804
-1.8047293
-1.5625819
-1.3156954
-1.0702324
-0.83055669
-0.59954217
-0.37897591
-0.16977794
0.027717191
0.21355236
0.38801138
0.55155486
0.70463059
0.84776359
0.98137084
1.1058933
1.2216429
1.3290233
1.4288071
1.5180047
1.5992989
1.6720599
1.735125
1.7869293
1.8299145
1.8688037
0.84697767
0.84291659
0.82892333
0.81006855
0.78341229
0.74954356
0.70805088
0.65863397
0.60093525
0.53460325
0.45929889
0.37471617
0.28063465
0.1769679
0.063802216
-0.058542468
-0.18940299
-0.32764203
-0.47152477
-0.61855771
-0.76524572
-0.90701151
-1.0381718
-1.1518272
-1.2408057
-1.2974287
-1.3230848
-1.3512892
-1.4332998
-1.5160608
-1.2436016
-0.51270003
0.64430546
1.9100593
3.4043135
5.0033505
6.6022164
8.0860637
9.0730667
8.3582304
5.2235022
-1.0219079
-7.5490728
-14.012994
-18.526738
-20.157178
-16.4315
-9.633398
-7.0640855
-4.0353825
-7.9234868
-10.133115
-12.946615
-19.109042
-26.08667
-28.046622
-25.231043
-20.161026
-14.514602
-8.9542778
-4.8772088
-2.464762
-1.3492
-1.1154609
-1.3198867
-1.6866594
-2.0544395
-2.3422047
-2.5182669
-2.580562
-2.5407811
-2.4184243
-2.2350361
-2.0104723
-1.7613024
-1.500333
-1.2370196
-0.9779218
-0.72737054
-0.4879747
-0.26109038
-0.047260114
0.15360354
0.34189657
0.51823315
0.68331019
0.8378039
0.98238211
1.1176109
1.2440009
1.3619102
1.4716245
1.5738559
1.6672338
1.7524369
1.8293791
1.8965878
1.9523208
1.9999626
2.0444527
0.94156222
0.93790455
0.92447231
0.90557515
0.87876526
0.84450632
0.80227218
0.75166554
0.69220042
0.62336153
0.54463236
0.4555048
0.35551876
0.24430196
0.12161675
-0.012567672
-0.157961
-0.31380897
-0.47873959
-0.65048663
-0.82539146
-0.99857175
-1.1641528
-1.3122903
-1.4287246
-1.5033266
-1.5505476
-1.6541807
-1.9344955
-2.3076988
-2.1047738
-1.1817951
0.38966286
2.016025
4.1649186
6.1488063
8.3223666
10.535669
13.519916
11.880499
7.4180716
-1.1577432
-12.559202
-25.449112
-30.793292
-32.693882
-24.590847
-16.235116
-10.491105
-11.876143
-12.225
-13.722645
-15.654832
-26.393446
-38.001359
-43.983919
-35.827481
-24.105969
-14.502475
-6.9606046
-2.3774477
-0.064825447
0.56645694
0.11947134
-0.63342257
-1.3636786
-1.9618792
-2.3929056
-2.630416
-2.7077273
-2.6519162
-2.4970516
-2.2752587
-2.012982
-1.7301855
-1.4410812
-1.1553232
-0.87902763
-0.6157767
-0.36734215
-0.13428079
0.083621563
0.28703241
0.47686694
0.65415909
0.81991541
0.97507453
1.1204699
1.2568549
1.3847832
1.5046122
1.6160787
1.7218901
1.8191642
1.9086436
1.9902929
2.0622113
2.1224807
2.1757234
2.2268217
1.0428062
1.0393132
1.0263464
1.0075229
0.98077542
0.94637103
0.90367656
0.85218269
0.79125984
0.72021712
0.63833069
0.54484473
0.43899574
0.32004615
0.18732651
0.040302624
-0.12132596
-0.29748538
-0.48759062
-0.69016692
-0.90185308
-1.1181798
-1.335803
-1.5435378
-1.7173271
-1.8436747
-1.9092512
-2.0392284
-2.7900937
-4.0899435
-3.7837942
-2.4189908
-0.19260938
1.8872973
4.3685437
7.432085
11.133445
17.179626
18.224509
17.181716
13.032792
0.68872275
-15.020603
-38.627377
-56.1737
-59.939952
-38.568697
-12.829235
-10.506311
-14.555003
-15.615814
-17.79825
-16.288043
-30.825261
-57.637427
-58.898132
-46.87764
-23.882813
-10.360017
-3.893307
0.85954746
2.9283514
2.7314399
1.1564003
-0.29340996
-1.3876428
-2.1854423
-2.700544
-2.9628893
-3.0045484
-2.8836821
-2.6544499
-2.3622752
-2.0394848
-1.707607
-1.3805234
-1.0665683
-0.77015946
-0.49316053
-0.23580671
0.0026090212
0.22339216
0.42800922
0.61804619
0.7950318
0.96034161
1.1152039
1.260649
1.3975971
1.5267467
1.6487978
1.7646717
1.8715596
1.9722326
2.0662606
2.1531437
2.2303856
2.2959395
2.3559134
2.414814
1.1506056
1.1469927
1.134766
1.1158723
1.0895603
1.0553354
1.012563
0.96061727
0.89871771
0.82598232
0.74144698
0.64406566
0.53271657
0.40621615
0.26334343
0.1028851
-0.076303374
-0.2751909
-0.49459225
-0.73482425
-0.99353466
-1.2686384
-1.5719793
-1.9013138
-2.1883301
-2.4174088
-2.5650335
-2.7442817
-4.2805625
-6.693752
-6.9172643
-4.3096819
-1.4870188
1.1412637
4.24993
8.2134245
12.587138
17.736878
21.933379
28.460079
29.343207
10.20579
9.462888
9.0932918
-58.096261
-98.409894
-62.119929
422.37672
1296.0304
2044.3168
1967.7816
1256.7696
381.98532
-80.768468
-69.926744
-65.264574
-31.80275
-10.891222
2.6551287
3.2734747
5.876671
6.1747548
4.8255344
1.4219867
-0.65225477
-1.9399309
-2.8471634
-3.3919712
-3.587444
-3.5099071
-3.2520809
-2.8935266
-2.4917916
-2.0823791
-1.6854126
-1.3113377
-0.96482109
-0.64682882
-0.35635072
-0.091365605
0.15063999
0.37232201
0.57619641
0.76460426
0.93965757
1.1031189
1.2565213
1.4011
1.5378533
1.6675738
1.7909227
1.9083501
2.0191394
2.1239769
2.2230979
2.3158541
2.3991104
2.4707951
2.5388674
2.6070104
1.2647894
1.2608349
1.2492884
1.2308593
1.205088
1.171511
1.129146
1.0773472
1.0151496
0.94146894
0.85508168
0.754618
0.63855009
0.50517346
0.35261005
0.17880067
-0.018501122
-0.24170596
-0.49373405
-0.77779232
-1.0941792
-1.4499777
-1.8859335
-2.4044403
-2.8710272
-3.4050081
-4.022084
-4.2911417
-5.5058016
-8.7156663
-9.258539
-6.7767985
-3.8262419
-1.056341
2.5155441
6.6198186
8.924925
16.055364
26.079756
52.058529
104.93199
45.055299
83.329591
304.01911
793.63022
3165.964
4577.6459
5342.7106
6136.6537
6611.4526
6615.7964
6194.9023
5285.3366
4134.5841
2383.9632
564.53064
305.78655
-20.769397
17.669981
15.24329
12.384547
9.8311921
8.1995329
0.28326024
-2.0853233
-3.0972696
-4.0189615
-4.5483759
-4.5754035
-4.2582465
-3.7626054
-3.2040335
-2.6481415
-2.1263149
-1.6502028
-1.2230141
-0.84236571
-0.50369565
-0.20196673
0.067851297
0.31049474
0.53020079
0.73070149
0.91515572
1.0862813
1.2462513
1.3968641
1.5395351
1.6753142
1.8049828
1.9291488
2.0485199
2.1626829
2.2718785
2.3765506
2.4758526
2.5659009
2.6446555
2.7224422
2.8015417
1.3848908
1.3805521
1.3697613
1.3521508
1.3273594
1.2947737
1.2535312
1.2026315
1.1410332
1.0674303
0.98033405
0.87802235
0.75851995
0.61955824
0.45854373
0.27245819
0.057755425
-0.18974709
-0.47553009
-0.80648252
-1.1883694
-1.6409211
-2.2324786
-2.9820384
-3.7208092
-4.4910122
-4.9547833
6.7402628
1.4390909
-8.9487038
-10.67891
-9.4615796
-7.6766312
-5.5660253
-1.2809222
3.9481738
-1.1803248
3.2439212
12.344559
30.17263
210.33521
387.76838
1534.2615
3138.8098
5642.9838
6312.8561
5936.6307
5868.2294
6021.2921
6177.8627
6199.8213
6073.2808
5919.4101
6111.7193
6667.4722
5799.864
2471.2929
501.41833
84.207057
24.760908
17.973856
17.546623
8.8535397
-3.4434742
-5.2600685
-4.6237266
-5.7982707
-6.3494987
-6.0242068
-5.2707966
-4.3971329
-3.5553614
-2.8009863
-2.1457404
-1.5831608
-1.1024167
-0.69042424
-0.33526807
-0.026960236
0.24309597
0.48211452
0.69605779
0.88987311
1.0675745
1.2324392
1.3870652
1.53344
1.6730724
1.8070702
1.9361354
2.0605695
2.181992
2.2992323
2.4128681
2.523494
2.6300112
2.727642
2.8144978
2.9038295
2.9958773
1.5103462
1.5056076
1.4956458
1.4792453
1.4558835
1.425021
1.3856025
1.3365443
1.2766843
1.2045144
1.1182429
1.0157899
0.89471856
0.75219699
0.58490854
0.38885921
0.15915969
-0.11024178
-0.42732468
-0.80234964
-1.2473604
-1.7930043
-2.5122456
-3.391636
-4.2089151
-4.995101
-4.7774875
5.6701474
4.4996136
-8.9511589
-11.735463
-12.515372
-12.952331
-12.516898
-7.7099552
2.2720582
-1.5264425
1.9530224
-10.485543
-86.101721
-4.0978476
1516.9115
4442.3734
5887.4681
5904.7412
5920.6042
5801.5648
5760.979
5835.0879
5904.4561
5925.4417
5896.6385
5882.5122
5994.1513