/*--------------------------------*- C++ -*----------------------------------*\
  =========                 |
  \\      /  F ield         | OpenFOAM: The Open Source CFD Toolbox
   \\    /   O peration     | Website:  https://openfoam.org
    \\  /    A nd           | Version:  9
     \\/     M anipulation  |
\*---------------------------------------------------------------------------*/
FoamFile
{
    format      ascii;
    class       surfaceScalarField;
    location    "0.76";
    object      phi;
}
// * * * * * * * * * * * * * * * * * * * * * * * * * * * * * * * * * * * * * //

dimensions      [0 3 -1 0 0 0 0];

internalField   nonuniform List<scalar> 
19800
(
-8.4657093e-05
0.00015175004
-0.00013632766
0.00015178335
-0.00018785975
0.00015237404
-0.00023903704
0.00015283235
-0.00028989447
0.00015337234
-0.0003402856
0.00015385195
-0.00039013942
0.00015424688
-0.00043932415
0.00015451652
-0.00048770325
0.00015459313
-0.00053513334
0.00015444736
-0.00058144598
0.0001540295
-0.00062644862
0.00015328371
-0.00066995786
0.00015218389
-0.00071177718
0.00015064532
-0.00075172908
0.00014863673
-0.00078963389
0.00014611467
-0.00082536097
0.00014306983
-0.00085880439
0.00013949057
-0.0008898731
0.00013539754
-0.00091851736
0.00013081643
-0.00094473897
0.00012579607
-0.00096857782
0.00012045539
-0.00099012789
0.00011492324
-0.0010095578
0.00010931067
-0.0010271066
0.00010375973
-0.0010430749
9.8402449e-05
-0.0010578359
9.337166e-05
-0.0010718522
8.8738882e-05
-0.0010856758
8.4542188e-05
-0.0010999374
8.0778469e-05
-0.0011153178
7.7430394e-05
-0.0011325169
7.442522e-05
-0.0011522042
7.1570727e-05
-0.0011751859
6.8716409e-05
-0.0012015771
6.5963104e-05
-0.0012302805
6.3182096e-05
-0.001260314
5.9579536e-05
-0.001290429
5.4046976e-05
-0.0013188099
4.5125313e-05
-0.0013426136
3.090423e-05
-0.0013604973
7.6806623e-06
-0.0013689175
-1.8745681e-05
-0.0013612469
-5.8053544e-05
-0.0013285669
-0.00011353877
-0.0012592707
-0.00018937428
-0.0011384932
-0.00029114539
-0.00094846166
-0.00042392078
-0.00066942174
-0.00059062899
-0.00028255712
-0.00078903379
0.00022010016
-0.0010021142
0.00084257816
-0.0012296788
0.0015264446
-0.001371819
0.0022375024
-0.0014546241
0.0029439916
-0.0014769553
0.0036406431
-0.0014729953
0.0043030421
-0.001411598
0.0048665559
-0.0012307913
0.0052757915
-0.00094831791
0.0054975803
-0.00060482752
0.0055267187
-0.00025065516
0.0054088934
3.5011422e-05
0.0051946831
0.00028451276
0.0049160531
0.00047289067
0.0045988006
0.00062239646
0.0042639325
0.00073816586
0.0039271446
0.00082374153
0.0035993045
0.00088195044
0.0032875487
0.00091599219
0.0029959639
0.00092928267
0.0027261616
0.00092496517
0.0024778898
0.00090579755
0.0022497061
0.00087426848
0.0020396323
0.00083292153
0.0018456599
0.00078454161
0.0016660351
0.0007319749
0.0014993667
0.00067778056
0.0013445991
0.00062393706
0.0012009336
0.00057177068
0.0010677364
0.00052201707
0.00094447594
0.0004751472
0.00083072808
0.0004312789
0.00072610898
0.0003903914
0.00063024188
0.00035243829
0.00054276199
0.00031727775
0.00046332775
0.00028475684
0.00039158966
0.00025477307
0.00032722652
0.00022716982
0.00026990458
0.00020176787
0.00021926995
0.00017842085
0.00017494636
0.00015704438
0.00013660105
0.00013762774
0.00010396272
0.00012009434
7.6748114e-05
0.00010420166
5.4530725e-05
8.988184e-05
3.6609298e-05
7.7014765e-05
2.2350791e-05
6.5513818e-05
1.1387643e-05
5.5292331e-05
2.6482725e-06
4.7536649e-05
-3.7542316e-06
4.0569858e-05
3.4798318e-05
-8.4052611e-05
0.00020319481
-0.00013548942
0.00020320485
-0.00018679213
0.00020368883
-0.00023792212
0.00020395637
-0.00028876776
0.00020422873
-0.00033923254
0.00020431291
-0.00038919528
0.00020421593
-0.00043855352
0.00020387862
-0.00048717489
0.00020321516
-0.00053488717
0.00020216759
-0.00058154169
0.00020068441
-0.00062694709
0.00019868996
-0.00067090135
0.00019614266
-0.00071322141
0.00019296432
-0.00075371696
0.00018913215
-0.00079221062
0.00018461182
-0.00082854551
0.0001794048
-0.00086257615
0.00017352058
-0.00089420008
0.00016702404
-0.00092334664
0.00015996397
-0.00095000216
0.00015244962
-0.0009742063
0.00014465832
-0.00099604333
0.00013675875
-0.001015672
0.0001289351
-0.001033325
0.0001214092
-0.0010493195
0.00011439731
-0.0010640553
0.00010810964
-0.0010780238
0.00010270858
-0.0010918058
9.8325219e-05
-0.0011060698
9.504431e-05
-0.0011215215
9.2883699e-05
-0.0011388588
9.1763497e-05
-0.001158772
9.1485212e-05
-0.0011818735
9.1818922e-05
-0.001208384
9.2473607e-05
-0.0012379661
9.2763667e-05
-0.0012700699
9.1683217e-05
-0.0013038319
8.7811219e-05
-0.0013380859
7.9384126e-05
-0.0013711576
6.3979112e-05
-0.0014025774
3.9102529e-05
-0.0014244184
3.1001073e-06
-0.0014326735
-4.9793738e-05
-0.0014206288
-0.00012557852
-0.001377942
-0.00023205541
-0.0012895791
-0.00037950482
-0.0011338215
-0.00057967401
-0.00088317191
-0.00084127536
-0.00051395488
-0.0011582502
-9.1622375e-06
-0.0015069059
0.00061854263
-0.0018573831
0.0013276251
-0.0020808988
0.0020748658
-0.0022018621
0.0028169915
-0.0022190805
0.0036052805
-0.0022612858
0.0044029995
-0.0022093167
0.0050746479
-0.001902438
0.0055531032
-0.001426771
0.0058110947
-0.00086282033
0.0058491526
-0.00028871471
0.0056964314
0.00018773194
0.0054445289
0.00053641765
0.0051195618
0.00079785862
0.0047568705
0.00098508936
0.0043796836
0.0011153509
0.0040030957
0.001200328
0.0036395097
0.0012455376
0.0032977338
0.0012577676
0.0029825496
0.001244467
0.0026953823
0.0012121346
0.0024351926
0.0011659896
0.002199437
0.0011100264
0.0019849798
0.0010473798
0.0017888234
0.00098070103
0.0016084925
0.00091231089
0.0014421367
0.00084413973
0.0012884308
0.00077764413
0.0011464052
0.00071379714
0.0010152837
0.00065313782
0.00089442819
0.00059600218
0.00078329413
0.00054241369
0.00068138729
0.00049229739
0.00058826504
0.00044556046
0.00050350016
0.0004020434
0.0004267071
0.0003615512
0.00035753076
0.00032395283
0.00029565137
0.00028905317
0.00024071326
0.00025670564
0.00019236896
0.00022676566
0.00015029481
0.00019912024
0.00011418109
0.00017374205
8.3755315e-05
0.00015051939
5.8537067e-05
0.00012942086
3.8129207e-05
0.00011028822
2.2030514e-05
9.3114675e-05
9.560322e-06
7.7983143e-05
6.285281e-07
6.4221341e-05
-5.4743923e-06
5.3642488e-05
-9.8419604e-06
4.4937836e-05
3.6810013e-05
-8.3839786e-05
0.00025461239
-0.00013532481
0.00025470069
-0.00018670311
0.00025505965
-0.00023790224
0.00025516443
-0.00028877793
0.00025509879
-0.00033937056
0.00025490811
-0.0003895649
0.00025441142
-0.0004392326
0.00025354341
-0.00048819094
0.00025217781
-0.00053632967
0.0002503045
-0.00058346637
0.00024781882
-0.00062939722
0.00024462346
-0.0006739491
0.00024069339
-0.0007169116
0.00023592587
-0.00075806665
0.00023029023
-0.00079725183
0.00022379746
-0.00083424461
0.00021639612
-0.00086889938
0.00020817665
-0.00090106694
0.0001991926
-0.00093064074
0.00018953626
-0.00095756877
0.00017937704
-0.00098184123
0.0001689311
-0.0010035348
0.00015845039
-0.0010227789
0.00014817647
-0.0010398107
0.00013844102
-0.0010549454
0.00012953413
-0.0010686104
0.00012177611
-0.0010813254
0.00011542442
-0.0010937149
0.00011071625
-0.0011064918
0.00010782259
-0.0011204247
0.00010681669
-0.0011363279
0.00010766713
-0.0011550575
0.0001102166
-0.0011773643
0.00011412672
-0.0012036704
0.0001187788
-0.0012342643
0.00012335693
-0.0012688716
0.00012629072
-0.0013071799
0.00012611941
-0.0013482472
0.00012045192
-0.0013912366
0.00010696868
-0.001434265
8.2130382e-05
-0.0014741872
4.3024418e-05
-0.0015065932
-1.7385689e-05
-0.0015263743
-0.00010579613
-0.0015251209
-0.00023330453
-0.001487237
-0.00041738445
-0.0013869835
-0.00067992296
-0.0011981008
-0.0010301546
-0.00090622933
-0.0014501208
-0.00046131596
-0.0019518172
0.00026601563
-0.0025847129
0.0011983586
-0.0030132403
0.0022047147
-0.0032082179
0.0031848011
-0.0031991674
0.0042121656
-0.003288651
0.0052384544
-0.0032356056
0.0059879266
-0.0026519098
0.0063754864
-0.0018143291
0.0064050921
-0.00089242552
0.0062106779
-9.4300493e-05
0.0059720268
0.00042638368
0.0056796857
0.0008287603
0.0053083997
0.0011691477
0.0048963436
0.0013971463
0.0044769669
0.0015347267
0.0040641814
0.0016131134
0.0036687334
0.0016409862
0.0032993611
0.0016271449
0.0029611028
0.0015827271
0.0026553473
0.0015178897
0.0023808539
0.0014404817
0.0021348135
0.0013560674
0.0019137251
0.00126847
0.0017141013
0.001180326
0.0015328961
0.0010935181
0.0013676595
0.0010093777
0.0012164928
0.00092881121
0.001077941
0.00085235088
0.00095082551
0.00078025287
0.00083423682
0.00071259172
0.00072738868
0.00064926402
0.00062966186
0.0005900259
0.00054052674
0.00053469874
0.00045952457
0.000483047
0.00038624474
0.00043482991
0.0003203582
0.00038984132
0.00026152671
0.00034788803
0.00020947624
0.00030875852
0.0001639109
0.00027233027
0.00012445486
0.00023857517
9.0789901e-05
0.00020740712
6.2572666e-05
0.00017873739
3.9492051e-05
0.00015250207
2.1126394e-05
0.00012865337
7.0577046e-06
0.00010718346
-3.1716008e-06
8.8216564e-05
-1.0504026e-05
7.1554358e-05
-1.4388825e-05
5.7525292e-05
-1.6444362e-05
4.7000587e-05
3.6215186e-05
-8.3665197e-05
0.00030604327
-0.00013514704
0.00030617391
-0.00018655607
0.0003064764
-0.00023788291
0.00030648512
-0.00028907164
0.00030628827
-0.00033998394
0.00030582021
-0.00039052837
0.00030495081
-0.00044058126
0.0003035981
-0.00049007369
0.00030166755
-0.00053879189
0.00029901846
-0.00058656664
0.0002955946
-0.0006332298
0.00029128536
-0.00067855518
0.00028601689
-0.00072232089
0.00027969389
-0.00076431877
0.00027228909
-0.00080430981
0.00026378678
-0.00084208892
0.00025417556
-0.00087743278
0.00024352152
-0.00091016013
0.00023191883
-0.00094015572
0.00021953138
-0.00096732489
0.00020654766
-0.00099163079
0.0001932371
-0.0010130719
0.0001798898
-0.0010318122
0.00016691645
-0.0010480402
0.00015467088
-0.0010621028
0.00014359839
-0.0010744408
0.0001341149
-0.0010856306
0.00012661541
-0.0010963456
0.00012143235
-0.0011074012
0.00011887817
-0.0011197213
0.00011913639
-0.0011343157
0.00012226226
-0.001152173
0.00012807596
-0.0011741934
0.00013614795
-0.0012011764
0.00014576
-0.0012335769
0.00015575561
-0.0012717588
0.00016447196
-0.0013155456
0.00016990411
-0.0013647122
0.00016961607
-0.001418509
0.00016076436
-0.0014760893
0.0001397091
-0.0015361259
0.00010306086
-0.0015976881
4.4177777e-05
-0.0016583492
-4.5134102e-05
-0.0017123668
-0.00017928238
-0.0017485031
-0.00038124324
-0.0017532685
-0.00067515409
-0.0017095934
-0.0010738269
-0.00152345
-0.0016362626
-0.00092382473
-0.0025514389
0.00031389979
-0.0038224347
0.0019187205
-0.004618061
0.0034847289
-0.0047742288
0.0049549318
-0.0046693721
0.0062906721
-0.0046243903
0.0075788483
-0.0045237803
0.0084501295
-0.0035231907
0.0086440571
-0.0020082558
0.0081615293
-0.00040989488
0.0072719272
0.00079530387
0.0064942793
0.0012040343
0.0059361257
0.0013869138
0.0054719192
0.0016333571
0.0050278652
0.0018412017
0.0045659212
0.0019966712
0.0041006041
0.002078433
0.0036615605
0.0020800299
0.0032622662
0.0020264416
0.002904247
0.0019407492
0.0025853783
0.0018367583
0.0023023853
0.0017234735
0.0020513152
0.0016071387
0.0018279911
0.0014917958
0.00162843
0.0013798887
0.0014491142
0.0012728368
0.0012870944
0.0011713997
0.0011399885
0.0010759183
0.0010059246
0.00098641817
0.00088341088
0.00090277107
0.00077130542
0.00082469912
0.00066878156
0.00075178995
0.00057511257
0.00068369409
0.00048974029
0.00062007053
0.0004122494
0.00056054171
0.00034221583
0.00050486593
0.00027935791
0.00045270265
0.00022340108
0.00040384574
0.00017402371
0.00035813387
0.00013092593
0.0003154265
9.3853648e-05
0.00027564601
6.2548497e-05
0.00023871317
3.6699064e-05
0.00020458709
1.5957141e-05
0.00017324319
-6.4489375e-08
0.00014467737
-1.175817e-05
0.00011887779
-1.964906e-05
9.6103862e-05
-2.4281962e-05
7.6193617e-05
-2.5411158e-05
5.8656691e-05
-2.4783245e-05
4.6372547e-05
3.2505059e-05
-8.3431377e-05
0.00035751032
-0.00013499401
0.00035774375
-0.00018658876
0.00035806373
-0.00023812692
0.00035802362
-0.0002895553
0.00035771621
-0.00034083854
0.00035709798
-0.00039184511
0.00035595813
-0.00044251262
0.00035426259
-0.0004926626
0.00035181229
-0.00054215506
0.000348511
-0.00059079646
0.00034423501
-0.00063839786
0.00033888464
-0.00068471425
0.00033233526
-0.00072952068
0.00032450204
-0.0007725732
0.0003153403
-0.00081359845
0.00030481203
-0.00085235632
0.00029293473
-0.00088860474
0.00027976943
-0.00092209808
0.00026541177
-0.00095265268
0.00025008791
-0.00098012411
0.00023402053
-0.0010044125
0.00021752453
-0.0010255428
0.00020101919
-0.0010435566
0.00018493122
-0.0010586858
0.00016980134
-0.0010712466
0.00015615972
-0.0010816735
0.00014454266
-0.0010905392
0.000135482
-0.0010986163
0.00012950904
-0.001106813
0.00012707386
-0.0011161925
0.00012851632
-0.0011279192
0.00013399056
-0.0011432848
0.00014344279
-0.0011635703
0.00015643314
-0.0011899924
0.0001721798
-0.0012235474
0.00018930824
-0.0012648883
0.00020581213
-0.0013144178
0.00021943215
-0.0013722975
0.00022749335
-0.0014384641
0.00022693008
-0.0015132384
0.00021448174
-0.0015966893
0.00018651049
-0.0016907631
0.00013825328
-0.0017969185
6.1023557e-05
-0.0019182122
-5.7984797e-05
-0.0020724021
-0.0002270498
-0.0022679267
-0.00047962741
-0.0023482293
-0.00099352147
-0.0018512837
-0.0021332062
-0.00052854458
-0.0038741758
0.0013880828
-0.0057390609
0.0034754102
-0.0067053883
0.0053004642
-0.0065992828
0.0071708813
-0.0065397899
0.0090270861
-0.0064805941
0.010494504
-0.0059911967
0.011381171
-0.0044098554
0.011855581
-0.0024826657
0.011648541
-0.0002028514
0.010449733
0.0019941152
0.0085312208
0.00312255
0.006870609
0.0030475261
0.0057119337
0.0027920355
0.0050687037
0.0024844317
0.0045868229
0.0024785533
0.0040992359
0.0025660201
0.0036180778
0.0025611899
0.0031832027
0.002461321
0.0028042839
0.0023196709
0.0024754176
0.0021656253
0.0021890431
0.0020098464
0.0019385794
0.0018576007
0.0017182918
0.0017120853
0.0015232293
0.0015749551
0.0013492404
0.0014468275
0.0011929337
0.0013277084
0.0010516187
0.0012172376
0.0009231861
0.0011148517
0.00080603781
0.0010199207
0.00069899274
0.00093174571
0.00060114572
0.00084963976
0.0005118101
0.00077303131
0.00043045949
0.0007014227
0.0003566558
0.00063434833
0.00029011306
0.00057140931
0.00023051687
0.00051229697
0.00017764952
0.00045671484
0.00013123454
0.00040454801
9.1034779e-05
0.00035562567
5.6831647e-05
0.0003098508
2.8346542e-05
0.00026719772
5.3027836e-06
0.00022763183
-1.2623396e-05
0.00019117111
-2.5823354e-05
0.00015787389
-3.4641275e-05
0.00012770009
-3.938001e-05
0.00010084018
-4.1018441e-05
7.7831124e-05
-3.9161572e-05
5.6800132e-05
-3.5403225e-05
4.2614198e-05
2.5275008e-05
-8.3134485e-05
0.00040904006
-0.00013481879
0.00040942067
-0.00018656018
0.00040980621
-0.00023834022
0.00040980388
-0.00029019532
0.00040956694
-0.00034194169
0.00040884647
-0.00039356646
0.00040758157
-0.00044491511
0.00040560681
-0.00049589028
0.0004027877
-0.00054632463
0.00039894486
-0.0005960263
0.00039393451
-0.00064476945
0.00038762933
-0.00069232345
0.00037989138
-0.00073843522
0.00037061295
-0.00078281056
0.00035971555
-0.00082514064
0.00034714383
-0.000865143
0.00033293742
-0.00090250076
0.00031712705
-0.00093694467
0.00029985775
-0.00096818923
0.00028133467
-0.0009960455
0.00026187629
-0.0010203501
0.00024182745
-0.0010410381
0.00022170683
-0.0010581582
0.00020205165
-0.0010718346
0.00018347765
-0.0010823541
0.00016667941
-0.0010901941
0.00015238337
-0.0010959989
0.00014128655
-0.0011005638
0.00013407246
-0.0011049009
0.00013141045
-0.0011102557
0.00013387282
-0.0011180718
0.0001418084
-0.0011299362
0.00015530681
-0.001147553
0.00017404886
-0.0011725587
0.00019718484
-0.0012064956
0.00022324471
-0.0012505584
0.00024987573
-0.0013055635
0.00027443776
-0.0013720172
0.00029394578
-0.0014503526
0.00030526544
-0.0015413537
0.00030548302
-0.0016468791
0.00029203537
-0.0017696777
0.00026105345
-0.0019176719
0.00020901907
-0.0021270742
0.00015141845
-0.0024679576
0.00011383511
-0.0028345578
-0.00011302556
-0.0026163348
-0.001211741
-0.0010983338
-0.0036512046
0.00091963301
-0.0058921414
0.0027282983
-0.0075477256
0.0045528176
-0.0085299073
0.0065492346
-0.0085956982
0.0086677225
-0.0086582775
0.010829519
-0.0086423883
0.012367129
-0.0075288047
0.013534875
-0.0055775988
0.014441889
-0.003389678
0.014488557
-0.00024951971
0.013896722
0.0025859524
0.012057589
0.0049616859
0.0093969076
0.0057082071
0.0070790634
0.0051098817
0.0055245789
0.0040389153
0.0046468725
0.0033562657
0.0040455869
0.003167312
0.0035217085
0.00308507
0.0030554836
0.0029275477
0.0026577094
0.0027174463
0.0023229448
0.0025003888
0.0020386746
0.0022941158
0.0017943446
0.0021019314
0.0015820856
0.0019243461
0.0013957607
0.0017612841
0.0012305235
0.0016120665
0.0010826068
0.0014756265
0.00094913096
0.0013507149
0.00082792358
0.0012360599
0.00071738271
0.0011304606
0.00061635362
0.0010327723
0.00052398446
0.00094200977
0.00043961484
0.00085740428
0.00036279546
0.0007782457
0.00029318401
0.00070395886
0.00023051418
0.00063408152
0.0001745611
0.00056824925
0.00012510618
0.00050616655
8.2003125e-05
0.00044765267
4.5081682e-05
0.00039254687
1.4063526e-05
0.00034087075
-1.1259887e-05
0.00029252448
-3.1170663e-05
0.00024754446
-4.5934866e-05
0.0002059397
-5.5816811e-05
0.00016776142
-6.1417684e-05
0.00013330502
-6.3017659e-05
0.00010244179
-6.0887989e-05
7.5704686e-05
-5.5593253e-05
5.1502318e-05
-4.81185e-05
3.514551e-05
1.4313883e-05
-8.2759515e-05
0.00046063381
-0.00013456768
0.00046123213
-0.00018656289
0.00046180224
-0.00023867946
0.00046191767
-0.00029090956
0.0004618012
-0.00034321004
0.00046114798
-0.00039551822
0.0004598877
-0.00044770988
0.00045780034
-0.00049967261
0.00045475112
-0.00055123025
0.00045050053
-0.00060218987
0.00044489501
-0.00065232126
0.00043776241
-0.00070137087
0.00042893976
-0.00074903589
0.00041827713
-0.00079500151
0.00040568259
-0.00083891976
0.00039106272
-0.0008804474
0.00037446497
-0.00091919662
0.00035587821
-0.0009548169
0.00033548066
-0.00098697031
0.00031348802
-0.0010153313
0.0002902351
-0.0010396878
0.00026618241
-0.0010598901
0.00024190843
-0.0010758977
0.00021805841
-0.0010878152
0.00019539476
-0.0010959175
0.00017478212
-0.0011006309
0.00015709669
-0.0011025853
0.0001432399
-0.0011026156
0.0001341019
-0.0011018651
0.00013066085
-0.001101738
0.00013374791
-0.0011039763
0.00014404785
-0.0011106006
0.00016193049
-0.0011238511
0.00018729981
-0.0011460368
0.00021937325
-0.0011792352
0.00025644564
-0.0012251776
0.0002958199
-0.0012850117
0.00033427344
-0.0013595518
0.00036848578
-0.0014492377
0.00039495168
-0.0015541598
0.00041040654
-0.0016746017
0.0004124773
-0.0018142938
0.00040074585
-0.0020035823
0.00039830782
-0.0023351752
0.0004830111
-0.0028397244
0.00061838455
-0.0030601356
0.0001073853
-0.0020391753
-0.0022326999
0.00014215587
-0.0058325322
0.0017752379
-0.0075252188
0.0034130761
-0.0091855606
0.0049982899
-0.010115122
0.0067595814
-0.010356988
0.0088060365
-0.010704732
0.010886244
-0.010722593
0.012881564
-0.0095241232
0.014382704
-0.0070787398
0.014824202
-0.0038311743
0.014699305
-0.00012462342
0.013887581
0.0033976827
0.012709176
0.0061400932
0.01068234
0.0077350458
0.0084522361
0.0073399857
0.0062837817
0.0062073698
0.0048042198
0.0048358295
0.0039237559
0.00404778
0.0033346641
0.0036741651
0.0028542576
0.003407955
0.0024522286
0.003119474
0.0021220983
0.0028305179
0.0018487423
0.0025674706
0.0016179385
0.0023327347
0.0014196811
0.0021226026
0.0012468335
0.0019341349
0.0010940685
0.0017648324
0.0009574277
0.0016122683
0.00083401274
0.0014741297
0.00072171841
0.0013483554
0.0006190759
0.0012331065
0.00052503855
0.0011268105
0.00043885091
0.0010281963
0.00035999013
0.00093626556
0.00028809767
0.00085014217
0.00022294777
0.00076911061
0.00016438026
0.00069264967
0.00011227408
0.00062035962
6.6463926e-05
0.00055197575
2.6865792e-05
0.00048724982
-6.6545991e-06
0.00042606699
-3.4319081e-05
0.00036853534
-5.622891e-05
0.00031443567
-7.2640336e-05
0.00026396111
-8.388469e-05
0.00021718046
-9.0340894e-05
0.0001742148
-9.2167771e-05
0.0001351319
-8.9935484e-05
0.00010020481
-8.3894234e-05
6.966706e-05
-7.4787989e-05
4.2394285e-05
-6.3009514e-05
2.3372963e-05
-5.7722081e-07
-8.2237868e-05
0.00051227753
-0.00013417581
0.00051317159
-0.0001863479
0.00051397243
-0.0002388364
0.00051441221
-0.00029154548
0.00051451283
-0.00034448228
0.00051408473
-0.00039756826
0.00051297744
-0.0004507339
0.00051096797
-0.00050384344
0.00050785907
-0.00055671684
0.00050337419
-0.00060916183
0.00049734075
-0.00066093257
0.00048953074
-0.00071174308
0.00047974777
-0.00076128557
0.00046781954
-0.00080917989
0.00045357662
-0.00085504877
0.0004369306
-0.00089844388
0.00041786119
-0.00093893358
0.00039637046
-0.00097606229
0.00037260975
-0.0010093848
0.00034680835
-0.0010384962
0.00031934449
-0.0010630501
0.00029073509
-0.0010827986
0.00026165585
-0.0010976033
0.00023286223
-0.0011075102
0.00020530196
-0.0011127183
0.00017999054
-0.0011136332
0.00015801078
-0.0011108523
0.00014045831
-0.0011052558
0.00012850644
-0.001098001
0.00012340829
-0.0010907149
0.00012646385
-0.0010854503
0.00013878476
-0.0010846848
0.00016116666
-0.0010913456
0.00019396344
-0.0011085626
0.00023659436
-0.0011392134
0.00028709934
-0.001185624
0.00034223176
-0.0012494422
0.00039809359
-0.0013315583
0.00045060289
-0.0014312225
0.00049461555
-0.0015454059
0.00052458973
-0.0016702595
0.00053732988
-0.0018184333
0.00054891927
-0.0020590647
0.00063894062
-0.0024795078
0.00090345526
-0.0028750125
0.0010138893
-0.0024742704
-0.00029335741
-0.00066490023
-0.0040420692
0.00091751613
-0.0074149455
0.0018344764
-0.0084421762
0.0028745897
-0.010225671
0.0041511852
-0.011391718
0.0059911536
-0.012196954
0.0082177321
-0.012931308
0.010400536
-0.012905397
0.012365564
-0.011489152
0.013847659
-0.0085608383
0.014507595
-0.0044911085
0.014412752
-2.9779527e-05
0.013553691
0.0042567484
0.012226525
0.0074672611
0.010465777
0.0094957982
0.008261381
0.0095443828
0.0064534285
0.0080153221
0.0047733896
0.0065158701
0.0036879129
0.00513326
0.0030268805
0.004335199
0.0025534155
0.0038814189
0.0021734657
0.0034994228
0.0018661021
0.0031378801
0.0016163854
0.0028171855
0.0014087019
0.0025404192
0.0012316561
0.0022996499
0.0010776438
0.0020881483
0.00094132829
0.0019011466
0.00081890688
0.0017346887
0.00070771297
0.0015853236
0.00060590913
0.0014501581
0.00051228587
0.0013267319
0.00042600978
0.0012130895
0.00034651073
0.0011076973
0.00027349055
0.0010092902
0.00020676664
0.0009168658
0.00014625983
0.00082961947
9.1914645e-05
0.00074699746
4.3731128e-05
0.00066854237
1.6713163e-06
0.00059403496
-3.4321208e-05
0.00052324297
-6.4336304e-05
0.00045608548
-8.8377645e-05
0.00039258228
-0.00010667595
0.00033273041
-0.00011941053
0.00027669729
-0.00012683345
0.00022460462
-0.00012925004
0.0001766285
-0.00012708425
0.00013296785
-0.00012059938
9.3723219e-05
-0.00011010822
5.9178521e-05
-9.7023874e-05
2.9311391e-05
-8.017329e-05
6.5284948e-06
-1.9626596e-05
-8.1496302e-05
0.00056391475
-0.00013352442
0.00056519842
-0.0001859123
0.0005663666
-0.00023874392
0.00056724644
-0.00029195126
0.00056772115
-0.00034558108
0.00056771935
-0.00039956425
0.00056696325
-0.00045382544
0.00056522781
-0.00050823126
0.00056226476
-0.00056262694
0.0005577698
-0.00061679222
0.00055150245
-0.00067048051
0.00054321478
-0.00072337899
0.00053264415
-0.00077513364
0.00051957202
-0.00082534897
0.00050378899
-0.00087356809
0.00048514895
-0.00091927996
0.00046357462
-0.00096194932
0.00043904026
-0.0010010056
0.00041166418
-0.0010358838
0.00038168463
-0.0010660662
0.00034952588
-0.0010910573
0.00031572526
-0.0011104504
0.00028104817
-0.0011240348
0.00024644668
-0.001131719
0.00021298695
-0.0011336248
0.00018189638
-0.0011301012
0.00015448673
-0.0011217309
0.00013208874
-0.0011093035
0.00011608165
-0.0010939963
0.00010810418
-0.0010775231
0.00010999319
-0.0010622306
0.00012349549
-0.0010512532
0.00015019292
-0.001048339
0.00019105207
-0.0010576808
0.00024593806
-0.0010833211
0.00031274028
-0.0011283843
0.00038729473
-0.0011952986
0.00046500896
-0.0012849168
0.00054022244
-0.0013938498
0.00060354767
-0.0015134897
0.0006442285
-0.0016411656
0.00066500605
-0.0018112767
0.00071903137
-0.002097125
0.0009247899
-0.002423619
0.0012299492
-0.0022888178
0.00087908821
-0.0012112631
-0.0013709087
0.00058367649
-0.0058370043
0.00054822834
-0.0073794957
0.0008833146
-0.0087772656
0.0018056325
-0.01114799
0.0033050647
-0.012891149
0.0049559969
-0.013847886
0.0068704862
-0.014845795
0.008696809
-0.014731722
0.010352261
-0.013144604
0.011716028
-0.0099246048
0.012494714
-0.0052697954
0.012585252
-0.00012031314
0.011883626
0.0049583753
0.010710159
0.0086407293
0.0091802974
0.011025662
0.0073984256
0.011326257
0.0057296472
0.0096841015
0.004189251
0.0080562661
0.0031663724
0.0061561399
0.0025464165
0.0049551573
0.0021329137
0.0042949226
0.0018111774
0.003821159
0.0015515513
0.0033975058
0.001341668
0.0030270724
0.0011680559
0.0027140342
0.0010199554
0.0024477506
0.0008902801
0.0022178242
0.00077431192
0.0020171153
0.0006688616
0.0018401383
0.00057180537
0.0016823821
0.00048179652
0.0015401677
0.00039804719
0.001410482
0.00032006092
0.0012910773
0.00024759352
0.0011801663
0.00018062906
0.0010762625
0.00011915012
0.00097835052
6.3327994e-05
0.00088544215
1.3181883e-05
0.00079714245
-3.1073283e-05
0.00071279462
-6.9466631e-05
0.0006324307
-0.00010168679
0.00055546636
-0.00012789579
0.00048229611
-0.00014817858
0.00041286723
-0.00016273337
0.00034728767
-0.00017153466
0.00028549793
-0.00017486229
0.0002279331
-0.00017300561
0.00017477387
-0.00016628197
0.00012624547
-0.00015511975
8.2565992e-05
-0.00013991616
4.3977621e-05
-0.0001217874
1.1186715e-05
-9.9525699e-05
-1.5731668e-05
-4.3562965e-05
-8.0466157e-05
0.00061546073
-0.00013250497
0.00061724323
-0.00018505495
0.00061891685
-0.00023817479
0.00062036676
-0.00029193768
0.00062148886
-0.00034632474
0.00062210859
-0.00040129675
0.00062193368
-0.00045677663
0.0006207074
-0.00051265156
0.00061813939
-0.00056876116
0.00061387558
-0.00062489972
0.00060763621
-0.00068078846
0.00059910043
-0.0007361155
0.00058796763
-0.00079049274
0.00057394435
-0.00084346494
0.00055675809
-0.00089451841
0.00053620224
-0.00094306556
0.00051212157
-0.00098845269
0.00048442565
-0.0010299945
0.00045320436
-0.0010669701
0.00041865979
-0.0010986651
0.00038122053
-0.0011244443
0.00034150379
-0.0011437419
0.00030034579
-0.0011561332
0.00025883892
-0.0011614373
0.00021829156
-0.0011596962
0.00018015534
-0.0011511508
0.00014594195
-0.0011363007
0.00011724093
-0.0011158336
9.561793e-05
-0.0010907774
8.3051545e-05
-0.0010627736
8.1992412e-05
-0.0010344814
9.5206256e-05
-0.0010095501
0.00012526385
-0.00099287916
0.00017438148
-0.00099042476
0.00024348292
-0.0010080071
0.00033032189
-0.001049712
0.00042899843
-0.0011185535
0.00053384936
-0.0012165704
0.00063823893
-0.0013369632
0.00072394052
-0.0014683203
0.0007755872
-0.001622816
0.00081950611
-0.0018490801
0.00094529862
-0.002116682
0.0011923918
-0.0020939545
0.0012072205
-0.0012721451
5.7278292e-05
0.00044354957
-0.0030866013
0.00079424143
-0.0061876934
0.0001443416
-0.006729594
0.00032015978
-0.0089530862
0.0010994636
-0.011927298
0.0022873028
-0.01407899
0.0034131103
-0.014973694
0.0045946564
-0.016027342
0.0056807766
-0.015817841
0.0067375266
-0.014201359
0.0078522145
-0.011039288
0.0087082896
-0.0061258714
0.0089697645
-0.00038178433
0.0086775136
0.0052506278
0.0078065147
0.0095117281
0.006393104
0.012439073
0.0052291795
0.012490183
0.0037540563
0.011159225
0.0030175683
0.008792754
0.0023526596
0.00682105
0.0019044063
0.0054034114
0.0016024422
0.0045968873
0.00137188
0.0040517237
0.0011840141
0.0035853737
0.0010299157
0.003181173
0.00090094979
0.0028430029
0.00078901646
0.002559685
0.00068860685
0.0023182334
0.00059630797
0.0021094139
0.00051002848
0.0019264175
0.00042853903
0.0017638726
0.00035124054
0.0016174692
0.0002778406
0.0014838853
0.00020840737
0.0013605122
0.00014304802
0.0012455255
8.2153841e-05
0.0011371584
2.5763885e-05
0.0010347431
-2.550714e-05
0.00093671569
-7.1497758e-05
0.00084313538
-0.00011188967
0.00075318765
-0.00014624881
0.00066678916
-0.00017482047
0.00058403499
-0.00019739621
0.00050487582
-0.00021394341
0.00042941293
-0.00022443909
0.00035778286
-0.00022907955
0.00029013613
-0.00022803848
0.00022688881
-0.00022153222
0.00016826987
-0.00020992803
0.00011464292
-0.00019361119
6.6250626e-05
-0.00017305881
2.3427603e-05
-0.00014900001
-1.286734e-05
-0.00012110628
-4.3621325e-05
-7.3317489e-05
-7.9048965e-05
0.00066678981
-0.00013099868
0.00066919122
-0.00018364272
0.00067155993
-0.00023706378
0.00067379157
-0.00029134779
0.00067577372
-0.0003464969
0.00067725539
-0.00040251338
0.00067794973
-0.00045933019
0.00067752413
-0.0005168279
0.00067563406
-0.00057487059
0.00067191464
-0.00063323008
0.00066599365
-0.00069164704
0.00065751433
-0.0007497848
0.00064610009
-0.00080721844
0.00063137361
-0.00086346144
0.00061299942
-0.00091791847
0.00059065817
-0.00096991304
0.00056411412
-0.0010186913
0.0005332024
-0.001063396
0.00049790902
-0.0011031384
0.00045840226
-0.0011369856
0.00041506719
-0.0011640614
0.00036857934
-0.001183602
0.00031988707
-0.0011950213
0.000270259
-0.001197961
0.00022123126
-0.0011922743
0.00017446889
-0.0011781949
0.00013186412
-0.0011561107
9.5159622e-05
-0.0011265149
6.6025405e-05
-0.0010900649
4.6604248e-05
-0.0010479223
3.9851126e-05
-0.0010029568
5.0240764e-05
-0.00095969777
8.2003639e-05
-0.00092470099
0.00013938272
-0.00090559236
0.00022437266
-0.00090970105
0.00033443032
-0.0009428428
0.00046214028
-0.001011853
0.00060285862
-0.0011235356
0.00074992104
-0.0012660508
0.00086645755
-0.0014294935
0.00093903326
-0.0016545485
0.0010445656
-0.0019476994
0.001238453
-0.0020735759
0.0013182692
-0.0015870035
0.00072064945
-0.00036189964
-0.0011678259
0.00091273357
-0.0043612363
0.00081368615
-0.0060886479
0.00039842753
-0.0063143376
0.00022940666
-0.0087840676
0.00047668017
-0.012174574
0.00097126036
-0.014573575
0.0014056092
-0.015408042
0.0018501323
-0.016471869
0.0019844449
-0.015952152
0.0023320377
-0.014548954
0.0030984429
-0.011805694
0.0039165418
-0.0069439673
0.0043011481
-0.00076638786
0.0044845113
0.0050672632
0.0042572183
0.0097390174
0.0037973426
0.012898949
0.0030264291
0.013261099
0.0025964273
0.011589229
0.0019160604
0.0094731215