/*--------------------------------*- C++ -*----------------------------------*\
  =========                 |
  \\      /  F ield         | OpenFOAM: The Open Source CFD Toolbox
   \\    /   O peration     | Website:  https://openfoam.org
    \\  /    A nd           | Version:  9
     \\/     M anipulation  |
\*---------------------------------------------------------------------------*/
FoamFile
{
    format      ascii;
    class       volVectorField;
    location    "0.76";
    object      U;
}
// * * * * * * * * * * * * * * * * * * * * * * * * * * * * * * * * * * * * * //

dimensions      [0 1 -1 0 0 0 0];

internalField   nonuniform List<vector> 
10000
(
(-0.0043620658 0.0101378 0)
(-0.012165016 0.010160146 0)
(-0.015801111 0.010228886 0)
(-0.021411993 0.010296029 0)
(-0.026412768 0.010370039 0)
(-0.031496783 0.010447201 0)
(-0.036516936 0.01052121 0)
(-0.041468283 0.010590422 0)
(-0.046346374 0.010649844 0)
(-0.051137895 0.010695657 0)
(-0.055828058 0.010724092 0)
(-0.060399335 0.010733187 0)
(-0.064827763 0.010717955 0)
(-0.069095021 0.010671577 0)
(-0.073186194 0.010591835 0)
(-0.077082373 0.010475475 0)
(-0.08076708 0.010319922 0)
(-0.084230742 0.010123878 0)
(-0.087459371 0.0098888769 0)
(-0.090442296 0.0096149129 0)
(-0.093185141 0.0093033072 0)
(-0.095692177 0.0089626612 0)
(-0.097964239 0.0086012372 0)
(-0.10001572 0.0082241323 0)
(-0.10186795 0.0078395109 0)
(-0.10354797 0.0074550173 0)
(-0.10508918 0.0070778522 0)
(-0.10653236 0.0067083017 0)
(-0.10793018 0.0063436568 0)
(-0.10934369 0.0059787213 0)
(-0.11083686 0.0056117792 0)
(-0.11247346 0.0052424443 0)
(-0.11433158 0.0048684781 0)
(-0.11650478 0.0044971899 0)
(-0.11902993 0.0041461484 0)
(-0.12183856 0.0038014823 0)
(-0.12482515 0.0034071711 0)
(-0.12788186 0.0028879823 0)
(-0.13086137 0.0021429436 0)
(-0.133532 0.0010439352 0)
(-0.13568107 -0.00059539072 0)
(-0.13706916 -0.0030030874 0)
(-0.13719187 -0.0061892438 0)
(-0.13524655 -0.010287524 0)
(-0.13019348 -0.015547382 0)
(-0.12076912 -0.022299346 0)
(-0.10535245 -0.030854434 0)
(-0.082028791 -0.041363376 0)
(-0.049095101 -0.053660539 0)
(-0.0049582401 -0.06684448 0)
(0.052028908 -0.081443064 0)
(0.11798304 -0.092092227 0)
(0.18768385 -0.099189861 0)
(0.25851777 -0.10228717 0)
(0.32868392 -0.10257282 0)
(0.39718188 -0.098596385 0)
(0.45970982 -0.087267844 0)
(0.50977791 -0.069698923 0)
(0.54265312 -0.04859925 0)
(0.55594649 -0.026889419 0)
(0.55092962 -0.0068828819 0)
(0.53314343 0.0097575368 0)
(0.50760528 0.023476788 0)
(0.47717682 0.035241863 0)
(0.4440008 0.045392609 0)
(0.40994516 0.053849918 0)
(0.37636387 0.060491319 0)
(0.34412818 0.065319902 0)
(0.31379447 0.068407628 0)
(0.28564362 0.069847423 0)
(0.25971925 0.069749145 0)
(0.23591013 0.068258773 0)
(0.21402584 0.065589607 0)
(0.19385301 0.062026914 0)
(0.17519778 0.057887753 0)
(0.15790275 0.053468006 0)
(0.14184602 0.049000613 0)
(0.12693877 0.044643357 0)
(0.11310276 0.040485073 0)
(0.10028467 0.036581546 0)
(0.088455421 0.032953145 0)
(0.077558188 0.029600713 0)
(0.067552454 0.026518506 0)
(0.058405963 0.023692408 0)
(0.05007753 0.021107998 0)
(0.04253533 0.018753157 0)
(0.035748845 0.016614077 0)
(0.029686486 0.014669765 0)
(0.024312163 0.012901738 0)
(0.01957791 0.011298527 0)
(0.015448686 0.0098585723 0)
(0.011909156 0.0085774639 0)
(0.0089324071 0.0074259024 0)
(0.0064768989 0.0064053531 0)
(0.0044702783 0.0055015063 0)
(0.0028505717 0.0046968093 0)
(0.0017500363 0.0039914826 0)
(0.00026844473 0.0034527092 0)
(0.00042032686 0.0029892642 0)
(-0.0010827374 0.0026059959 0)
(-0.0043282133 0.018967694 0)
(-0.012087458 0.018964925 0)
(-0.015693469 0.019020091 0)
(-0.021306076 0.019054107 0)
(-0.026300635 0.019096315 0)
(-0.031387726 0.019123184 0)
(-0.036416784 0.01913791 0)
(-0.041382804 0.019132712 0)
(-0.046282364 0.019100111 0)
(-0.051101102 0.019037911 0)
(-0.055822139 0.018939848 0)
(-0.060428465 0.018797961 0)
(-0.064900096 0.018611496 0)
(-0.06921669 0.018371312 0)
(-0.073360333 0.018074997 0)
(-0.077312689 0.017717784 0)
(-0.081056924 0.017300786 0)
(-0.084579017 0.016823757 0)
(-0.08786343 0.016289419 0)
(-0.090901975 0.015701471 0)
(-0.093694712 0.015067288 0)
(-0.096239981 0.014401156 0)
(-0.098541948 0.013718174 0)
(-0.10061576 0.013032422 0)
(-0.10248148 0.012360861 0)
(-0.104166 0.011718949 0)
(-0.10570586 0.011121954 0)
(-0.10714478 0.010580373 0)
(-0.10853733 0.010101991 0)
(-0.10994684 0.009690441 0)
(-0.11144164 0.0093443989 0)
(-0.11309543 0.009052363 0)
(-0.1149812 0.0087887624 0)
(-0.11716321 0.0085323156 0)
(-0.11968313 0.0082780323 0)
(-0.12253461 0.0079941516 0)
(-0.12566794 0.0075949686 0)
(-0.12901411 0.0069587152 0)
(-0.13247496 0.0059235421 0)
(-0.13590375 0.004284233 0)
(-0.13918614 0.0017403536 0)
(-0.14191095 -0.0019790053 0)
(-0.14349377 -0.0071689212 0)
(-0.14337813 -0.014246856 0)
(-0.14071372 -0.023830604 0)
(-0.13429589 -0.03668732 0)
(-0.12230361 -0.053602406 0)
(-0.10218288 -0.075156506 0)
(-0.071318619 -0.10112542 0)
(-0.029084838 -0.1296964 0)
(0.027883058 -0.15904244 0)
(0.096517963 -0.17718207 0)
(0.1691989 -0.18652975 0)
(0.24328367 -0.1879438 0)
(0.31964303 -0.18717596 0)
(0.40026063 -0.18087257 0)
(0.47579521 -0.15807543 0)
(0.53486557 -0.12073762 0)
(0.57280443 -0.074714061 0)
(0.58858417 -0.027201776 0)
(0.58267747 0.01181555 0)
(0.56043766 0.041596101 0)
(0.52992819 0.064749333 0)
(0.49506069 0.082108569 0)
(0.45765123 0.094463278 0)
(0.41943079 0.10281011 0)
(0.3819901 0.10775929 0)
(0.34644921 0.1098578 0)
(0.31344897 0.10967668 0)
(0.28327123 0.10771912 0)
(0.25591123 0.10439078 0)
(0.23115997 0.10001305 0)
(0.20870757 0.094859306 0)
(0.18822965 0.089186694 0)
(0.16944598 0.083238515 0)
(0.15214121 0.077226366 0)
(0.13615924 0.071311786 0)
(0.12139058 0.065602385 0)
(0.10774498 0.060157118 0)
(0.095158113 0.055014802 0)
(0.083580674 0.050180377 0)
(0.072949669 0.045649213 0)
(0.063216961 0.041417504 0)
(0.054339981 0.037471314 0)
(0.046277308 0.033794163 0)
(0.038998606 0.030377572 0)
(0.032465775 0.027204687 0)
(0.026640698 0.024260502 0)
(0.021491797 0.021532919 0)
(0.016982256 0.019015278 0)
(0.013089009 0.016708358 0)
(0.0097709591 0.014604552 0)
(0.0069992402 0.012688951 0)
(0.0047442961 0.010952485 0)
(0.0029147089 0.0093879615 0)
(0.0014631894 0.0079957795 0)
(0.00059774531 0.0067414961 0)
(-0.0006725654 0.0057768843 0)
(-0.00036114287 0.0049471562 0)
(-0.001472686 0.0042174785 0)
(-0.004301232 0.02281712 0)
(-0.012069817 0.022811005 0)
(-0.015674577 0.02284641 0)
(-0.021293593 0.022859102 0)
(-0.026292781 0.022863326 0)
(-0.031394995 0.022847989 0)
(-0.03644082 0.022807209 0)
(-0.041434918 0.022737995 0)
(-0.046365836 0.022630787 0)
(-0.05122 0.02247568 0)
(-0.055988436 0.022268854 0)
(-0.06064643 0.022002259 0)
(-0.065174054 0.021669214 0)
(-0.069552871 0.021262726 0)
(-0.073763644 0.020779665 0)
(-0.077784294 0.020217763 0)
(-0.081594068 0.019577033 0)
(-0.08517994 0.018859211 0)
(-0.088524377 0.018072771 0)
(-0.091612868 0.017224516 0)
(-0.09443945 0.016329213 0)
(-0.097000911 0.015407243 0)
(-0.099299487 0.014477617 0)
(-0.10134639 0.013563292 0)
(-0.10316058 0.012691934 0)
(-0.1047696 0.011890631 0)
(-0.10621082 0.011186901 0)
(-0.10753127 0.010603076 0)
(-0.1087901 0.010157626 0)
(-0.1100555 0.0098637696 0)
(-0.11140032 0.0097271814 0)
(-0.11290523 0.0097463847 0)
(-0.11465538 0.0099098865 0)
(-0.11673112 0.010189969 0)
(-0.11919775 0.01053553 0)
(-0.12208582 0.010865687 0)
(-0.1253911 0.011052428 0)
(-0.12908728 0.010925392 0)
(-0.133112 0.010284884 0)
(-0.13737395 0.0088871732 0)
(-0.14172734 0.0064424492 0)
(-0.14592287 0.0026864053 0)
(-0.14959237 -0.0029552925 0)
(-0.15226399 -0.011207169 0)
(-0.15329111 -0.023023871 0)
(-0.15155092 -0.039679727 0)
(-0.14491251 -0.062829955 0)
(-0.13032305 -0.093772393 0)
(-0.10609266 -0.13140549 0)
(-0.07176715 -0.17258676 0)
(-0.015296757 -0.21510945 0)
(0.070033394 -0.24183926 0)
(0.1687904 -0.25513809 0)
(0.26701938 -0.25629902 0)
(0.36940657 -0.26247374 0)
(0.47554069 -0.2576076 0)
(0.56681196 -0.21901446 0)
(0.62509006 -0.16088843 0)
(0.64511996 -0.094406539 0)
(0.63592663 -0.026584648 0)
(0.61253356 0.029788508 0)
(0.58468623 0.069677209 0)
(0.55126649 0.097748023 0)
(0.51164905 0.11770423 0)
(0.46936096 0.13169096 0)
(0.42717247 0.14045926 0)
(0.38634993 0.14448866 0)
(0.34784188 0.14469603 0)
(0.31231157 0.14204437 0)
(0.28005741 0.13735505 0)
(0.25106353 0.13128731 0)
(0.22509616 0.12433396 0)
(0.2018128 0.11685463 0)
(0.18084622 0.10911907 0)
(0.16186247 0.1013394 0)
(0.14458601 0.093679769 0)
(0.1288021 0.086260762 0)
(0.11434534 0.079162528 0)
(0.10108304 0.072429377 0)
(0.088919701 0.06608798 0)
(0.077773012 0.060136978 0)
(0.067567076 0.054566579 0)
(0.058244661 0.04936405 0)
(0.049753881 0.044513112 0)
(0.042055176 0.039993327 0)
(0.035116244 0.035789249 0)
(0.028896575 0.031880504 0)
(0.023370226 0.028253735 0)
(0.01850748 0.024896091 0)
(0.01427294 0.021796287 0)
(0.01063332 0.018945895 0)
(0.0075502133 0.01632891 0)
(0.0049969828 0.013952693 0)
(0.0029413158 0.011792363 0)
(0.0013193526 0.0098521319 0)
(5.0143985e-05 0.0081454513 0)
(-0.00059430269 0.0066287872 0)
(-0.00162642 0.0054064452 0)
(-0.0011688574 0.0044423023 0)
(-0.0019179865 0.0035094437 0)
(-0.0042774749 0.027888599 0)
(-0.012057719 0.027893378 0)
(-0.015647281 0.027927767 0)
(-0.021293747 0.027939604 0)
(-0.026313312 0.027926747 0)
(-0.031440154 0.027893512 0)
(-0.03651895 0.027822615 0)
(-0.041547554 0.027712584 0)
(-0.046527335 0.027551451 0)
(-0.051439683 0.027325548 0)
(-0.056266917 0.027029142 0)
(-0.060992333 0.026659086 0)
(-0.065596236 0.026201237 0)
(-0.070054997 0.025649662 0)
(-0.074346669 0.025001617 0)
(-0.078449286 0.024256611 0)
(-0.082341166 0.023412506 0)
(-0.08600017 0.02247346 0)
(-0.089406806 0.021451113 0)
(-0.092545603 0.020356657 0)
(-0.095403513 0.01920834 0)
(-0.097975627 0.01803028 0)
(-0.10026303 0.016848661 0)
(-0.10227213 0.015695109 0)
(-0.1040201 0.014604849 0)
(-0.1055339 0.013614601 0)
(-0.10685338 0.01275928 0)
(-0.10802933 0.012069176 0)
(-0.10912466 0.011573221 0)
(-0.11021666 0.011294305 0)
(-0.11139198 0.011243657 0)
(-0.11274726 0.011419454 0)
(-0.11438521 0.01180157 0)
(-0.11640448 0.01234964 0)
(-0.11888696 0.012996522 0)
(-0.12189528 0.013639599 0)
(-0.1254708 0.014131859 0)
(-0.12961774 0.014287509 0)
(-0.13431291 0.013882058 0)
(-0.1395061 0.0126401 0)
(-0.14511369 0.010247051 0)
(-0.15101868 0.0062936075 0)
(-0.15710861 0.00023013651 0)
(-0.16324112 -0.0087995678 0)
(-0.16908648 -0.022086557 0)
(-0.17376531 -0.041730842 0)
(-0.17548905 -0.070474662 0)
(-0.17307666 -0.10894502 0)
(-0.16564971 -0.15483564 0)
(-0.13558896 -0.21293839 0)
(-0.040932805 -0.29671346 0)
(0.10823127 -0.35543474 0)
(0.27117526 -0.37453958 0)
(0.41975489 -0.37063618 0)
(0.56524705 -0.37897639 0)
(0.70189757 -0.37384013 0)
(0.81102345 -0.29318317 0)
(0.86874102 -0.17920154 0)
(0.85398045 -0.060544127 0)
(0.77927954 0.014802158 0)
(0.68641589 0.050032761 0)
(0.61622732 0.094070666 0)
(0.56892087 0.13815893 0)
(0.52651509 0.16351065 0)
(0.48094185 0.17640626 0)
(0.43333182 0.18297249 0)
(0.38739552 0.1843715 0)
(0.34528123 0.18137427 0)
(0.3073721 0.17519604 0)
(0.27353807 0.16698162 0)
(0.24350429 0.15760631 0)
(0.21688621 0.1476814 0)
(0.19325715 0.137613 0)
(0.17219825 0.12766432 0)
(0.15332908 0.1180071 0)
(0.13632411 0.10875001 0)
(0.12091928 0.099959004 0)
(0.1069009 0.091666212 0)
(0.094101403 0.083881096 0)
(0.082401302 0.076596247 0)
(0.071699091 0.069788089 0)
(0.061910709 0.063429047 0)
(0.052978955 0.057491736 0)
(0.044852857 0.051947666 0)
(0.037492386 0.046772346 0)
(0.030868608 0.0419389 0)
(0.024944732 0.037426873 0)
(0.019694737 0.033217887 0)
(0.015087872 0.029295414 0)
(0.01109375 0.025643629 0)
(0.0076869624 0.022253362 0)
(0.0048423859 0.019123125 0)
(0.0025262228 0.01625388 0)
(0.00070099007 0.013639994 0)
(-0.00068094486 0.011288316 0)
(-0.0017088063 0.0092048482 0)
(-0.0021056957 0.0073785793 0)
(-0.002836331 0.0058167856 0)
(-0.0021757757 0.0046766197 0)
(-0.0024906638 0.0034620504 0)
(-0.0042393621 0.033205992 0)
(-0.012045033 0.033222296 0)
(-0.015628357 0.033252769 0)
(-0.021302905 0.033250698 0)
(-0.026346968 0.033224609 0)
(-0.031504997 0.033167495 0)
(-0.036626373 0.033067149 0)
(-0.041708141 0.03291237 0)
(-0.046751344 0.032691093 0)
(-0.051737341 0.032393162 0)
(-0.05664523 0.032006397 0)
(-0.061459218 0.031522187 0)
(-0.066161288 0.030929821 0)
(-0.070722766 0.030222599 0)
(-0.075118702 0.029394844 0)
(-0.079326618 0.028444186 0)
(-0.083320924 0.027371406 0)
(-0.087074649 0.026182679 0)
(-0.090564178 0.024888431 0)
(-0.093768795 0.023505128 0)
(-0.096670489 0.02205459 0)
(-0.099258942 0.020565282 0)
(-0.10152916 0.019073665 0)
(-0.10348409 0.017622064 0)
(-0.10513802 0.016253207 0)
(-0.10651719 0.01501379 0)
(-0.10766268 0.013952225 0)
(-0.10862502 0.013115109 0)
(-0.10946998 0.012545786 0)
(-0.11028412 0.012282141 0)
(-0.11116568 0.012349561 0)
(-0.11222712 0.012759381 0)
(-0.11359279 0.013499236 0)
(-0.11539239 0.014528726 0)
(-0.11775558 0.01577228 0)
(-0.12079292 0.017101542 0)
(-0.12458191 0.018342438 0)
(-0.1291708 0.019276731 0)
(-0.13458419 0.019639013 0)
(-0.14082475 0.019130971 0)
(-0.14789179 0.017409499 0)
(-0.15578765 0.014065685 0)
(-0.16462004 0.0085467529 0)
(-0.1745871 2.3239391e-06 0)
(-0.18583913 -0.013125549 0)
(-0.1989282 -0.033166846 0)
(-0.21592123 -0.062063688 0)
(-0.23576668 -0.1027168 0)
(-0.22996476 -0.17002076 0)
(-0.13900128 -0.29106409 0)
(0.043125376 -0.45824849 0)
(0.242975 -0.55431431 0)
(0.43779902 -0.56020463 0)
(0.6227783 -0.55091518 0)
(0.8154244 -0.54539018 0)
(0.98567626 -0.518232 0)
(1.1038211 -0.39043455 0)
(1.1786602 -0.21211686 0)
(1.1946636 -0.010537465 0)
(1.1254231 0.16259208 0)
(0.95987307 0.22437945 0)
(0.7589417 0.19644072 0)
(0.61394536 0.19089202 0)
(0.53292728 0.20272032 0)
(0.48308409 0.22136636 0)
(0.43515223 0.23177877 0)
(0.38517251 0.23091545 0)
(0.33867934 0.22320257 0)
(0.29800284 0.21219557 0)
(0.26277144 0.19958437 0)
(0.232163 0.18630651 0)
(0.20546155 0.17298689 0)
(0.18205013 0.16001714 0)
(0.16139252 0.14761703 0)
(0.14303318 0.13589668 0)
(0.12659474 0.12489951 0)
(0.11177596 0.114628 0)
(0.098336046 0.10505554 0)
(0.086093706 0.096145773 0)
(0.074919373 0.087850684 0)
(0.064704269 0.080115736 0)
(0.055366072 0.072893245 0)
(0.0468511 0.06614361 0)
(0.039111689 0.059822568 0)
(0.03211212 0.053900168 0)
(0.02582317 0.048343274 0)
(0.020215328 0.043126779 0)
(0.015267424 0.038234867 0)
(0.010951958 0.033653193 0)
(0.007243303 0.029372607 0)
(0.0041224707 0.025391833 0)
(0.0015595057 0.021709132 0)
(-0.00047812431 0.018317934 0)
(-0.0020190808 0.015225131 0)
(-0.0031136319 0.012433407 0)
(-0.0038499729 0.0099506549 0)
(-0.0039852322 0.0078034394 0)
(-0.00433335 0.0058767233 0)
(-0.0034478171 0.0045518561 0)
(-0.0032580992 0.002993505 0)
(-0.0041915346 0.038350746 0)
(-0.012028099 0.038379927 0)
(-0.015608519 0.038415698 0)
(-0.021318611 0.038411146 0)
(-0.026392777 0.038381989 0)
(-0.031590295 0.038311389 0)
(-0.036765217 0.03819013 0)
(-0.041912599 0.038002306 0)
(-0.047030992 0.037735692 0)
(-0.052104635 0.037376436 0)
(-0.057114348 0.036910606 0)
(-0.062040356 0.036324258 0)
(-0.066860848 0.035607016 0)
(-0.071548507 0.034750959 0)
(-0.076076734 0.033746222 0)
(-0.080417 0.032590675 0)
(-0.084538702 0.031286284 0)
(-0.088410657 0.029838326 0)
(-0.092003146 0.028258577 0)
(-0.095289919 0.026567121 0)
(-0.098246821 0.024790651 0)
(-0.10085466 0.022964586 0)
(-0.10310085 0.021132934 0)
(-0.10498553 0.019346048 0)
(-0.10652036 0.017659338 0)
(-0.10772545 0.016133783 0)
(-0.10863896 0.014833034 0)
(-0.10931469 0.013818857 0)
(-0.10982365 0.013150296 0)
(-0.11026206 0.012882846 0)
(-0.11074343 0.013058661 0)
(-0.11140209 0.013703761 0)
(-0.11239355 0.01481693 0)
(-0.11388168 0.016358767 0)
(-0.11603658 0.018251845 0)
(-0.11901836 0.020356562 0)
(-0.12296039 0.022464388 0)
(-0.1279614 0.024324763 0)
(-0.13408002 0.025658133 0)
(-0.14135055 0.026148165 0)
(-0.14981982 0.025476677 0)
(-0.15961178 0.023352304 0)
(-0.17095815 0.019325892 0)
(-0.18416355 0.012553931 0)
(-0.20061513 0.0022891289 0)
(-0.22662799 -0.010618851 0)
(-0.26938107 -0.030821242 0)
(-0.29700628 -0.093006743 0)
(-0.21342438 -0.2530905 0)
(-0.0081753603 -0.47953305 0)
(0.18704675 -0.67144081 0)
(0.36698028 -0.77564533 0)
(0.55358019 -0.76933133 0)
(0.75670433 -0.76332756 0)
(0.97424317 -0.75559149 0)
(1.1693725 -0.67007966 0)
(1.3059713 -0.49457094 0)
(1.4064777 -0.2968449 0)
(1.4668697 -0.035559844 0)
(1.4447703 0.21689544 0)
(1.3273418 0.40676352 0)
(1.0892692 0.44178211 0)
(0.80676591 0.38314872 0)
(0.60499584 0.30546264 0)
(0.49714874 0.27733473 0)
(0.43226048 0.28204615 0)
(0.37739357 0.28136954 0)
(0.32717106 0.26886326 0)
(0.28380411 0.2514002 0)
(0.24746319 0.23313152 0)
(0.21681208 0.21523701 0)
(0.19060495 0.19812413 0)
(0.16794918 0.1820248 0)
(0.1481608 0.16704251 0)
(0.1306956 0.15318552 0)
(0.11512712 0.14040809 0)
(0.10112758 0.12863453 0)
(0.088444632 0.11777333 0)
(0.076899219 0.10773615 0)
(0.066359295 0.098432005 0)
(0.056716913 0.089775825 0)
(0.047901471 0.081701246 0)
(0.039862783 0.074150298 0)
(0.032558618 0.067068468 0)
(0.025961609 0.060415792 0)
(0.020043699 0.054155912 0)
(0.014786661 0.048259866 0)
(0.01017726 0.042714183 0)
(0.0061890006 0.037504599 0)
(0.0028051333 0.032625375 0)
(3.6809217e-06 0.028069033 0)
(-0.0022469215 0.023838731 0)
(-0.0039703087 0.019934859 0)
(-0.0051945577 0.016354297 0)
(-0.0059651042 0.013120608 0)
(-0.0063377718 0.010231818 0)
(-0.0061938379 0.0077438933 0)
(-0.0060975248 0.0054765864 0)
(-0.004970457 0.0039515825 0)
(-0.0042149066 0.002039076 0)
(-0.004131098 0.043490365 0)
(-0.012005418 0.043537572 0)
(-0.015582122 0.043583936 0)
(-0.021330035 0.043588256 0)
(-0.026440422 0.043568002 0)
(-0.031686614 0.04349667 0)
(-0.036923775 0.043366895 0)
(-0.042147297 0.043161814 0)
(-0.047356681 0.042864988 0)
(-0.052536519 0.042458536 0)
(-0.057665872 0.041925039 0)
(-0.062724789 0.041250157 0)
(-0.067689122 0.040420102 0)
(-0.072530392 0.039422996 0)
(-0.077217578 0.038247336 0)
(-0.081716621 0.036889032 0)
(-0.085994325 0.035348382 0)
(-0.090013357 0.033631241 0)
(-0.093735791 0.031750233 0)
(-0.097127346 0.029728497 0)
(-0.10015457 0.027596536 0)
(-0.10278993 0.025395523 0)
(-0.10501438 0.023177768 0)
(-0.10681985 0.021003792 0)
(-0.10820954 0.018943097 0)
(-0.10920022 0.017073754 0)
(-0.10983 0.015474366 0)
(-0.11015169 0.014222446 0)
(-0.11023612 0.01339714 0)
(-0.11018774 0.013078653 0)
(-0.11013481 0.013336701 0)
(-0.11023296 0.014221839 0)
(-0.11067524 0.015756419 0)
(-0.11167413 0.017918559 0)
(-0.11346003 0.020627703 0)
(-0.11626477 0.023725282 0)
(-0.12027313 0.026968301 0)
(-0.1256122 0.030068826 0)
(-0.1323796 0.032713737 0)
(-0.14063365 0.034572317 0)
(-0.15038795 0.035369591 0)
(-0.16167592 0.034888089 0)
(-0.1745221 0.032768187 0)
(-0.18945936 0.029167212 0)
(-0.21193779 0.02821678 0)
(-0.25741471 0.033968564 0)
(-0.31841451 0.0099310855 0)
(-0.29629938 -0.14869331 0)
(-0.089352945 -0.47655108 0)
(0.11401316 -0.69820094 0)
(0.26313976 -0.8598413 0)
(0.41634083 -0.94460294 0)
(0.58069982 -0.95180549 0)
(0.77319571 -0.96371266 0)
(0.98244585 -0.96231789 0)
(1.1900966 -0.84796444 0)
(1.3730635 -0.62709908 0)
(1.4827506 -0.35967781 0)
(1.4956278 -0.019010063 0)
(1.4443506 0.29654137 0)
(1.3531143 0.55544446 0)
(1.1927839 0.68017557 0)
(0.96167018 0.62728287 0)
(0.71989292 0.50627798 0)
(0.53101116 0.39859912 0)
(0.42431733 0.35297795 0)
(0.3595811 0.33551974 0)
(0.30740542 0.3163178 0)
(0.26310396 0.29173464 0)
(0.22680154 0.26658942 0)
(0.1970634 0.24326995 0)
(0.17217715 0.22200138 0)
(0.15094903 0.20263875 0)
(0.13256392 0.18505994 0)
(0.11641387 0.16911952 0)
(0.10204351 0.15464875 0)
(0.089115631 0.1414727 0)
(0.077384108 0.12942752 0)
(0.066683438 0.11836427 0)
(0.056887356 0.10814576 0)
(0.047900619 0.098658813 0)
(0.039669168 0.089816199 0)
(0.032151262 0.081538054 0)
(0.025317368 0.07376081 0)
(0.019148305 0.066434363 0)
(0.013624348 0.059520525 0)
(0.0087405702 0.052990615 0)
(0.0044889295 0.046826153 0)
(0.00084493531 0.041015731 0)
(-0.0022026269 0.035549625 0)
(-0.0046680339 0.03042129 0)
(-0.0065740731 0.025645248 0)
(-0.0079579073 0.021225747 0)
(-0.0088280804 0.017165283 0)
(-0.0092287349 0.01348775 0)
(-0.0092075516 0.010196479 0)
(-0.0087424304 0.0073320005 0)
(-0.0081221763 0.0047571993 0)
(-0.0067628387 0.0029986432 0)
(-0.0053689884 0.00074704671 0)
(-0.0040544509 0.048660017 0)
(-0.011969106 0.048732372 0)
(-0.015541063 0.048798445 0)
(-0.021326604 0.048823003 0)
(-0.026477398 0.048820882 0)
(-0.031780221 0.048763217 0)
(-0.037087044 0.048640418 0)
(-0.042398159 0.048433366 0)
(-0.047712905 0.048120028 0)
(-0.053016914 0.047681834 0)
(-0.05828724 0.047096729 0)
(-0.063502197 0.046346392 0)
(-0.068636734 0.045413659 0)
(-0.073660489 0.044282746 0)
(-0.078539245 0.042940737 0)
(-0.08323367 0.041378941 0)
(-0.087703206 0.039594618 0)
(-0.091903899 0.037593746 0)
(-0.095788936 0.035388874 0)
(-0.099314837 0.033004589 0)
(-0.10243935 0.030474906 0)
(-0.10512253 0.027847655 0)
(-0.1073336 0.025184429 0)
(-0.10905539 0.022557132 0)
(-0.11028152 0.020048908 0)
(-0.11102238 0.017753756 0)
(-0.11131375 0.015769883 0)
(-0.11120574 0.014195903 0)
(-0.11076613 0.013134197 0)
(-0.11010196 0.012695019 0)
(-0.10935587 0.01298383 0)
(-0.10870851 0.014085119 0)
(-0.1083919 0.016056307 0)
(-0.10868127 0.018906076 0)
(-0.10988484 0.022563581 0)
(-0.11231348 0.026860974 0)
(-0.11622233 0.031520302 0)
(-0.12179483 0.036190352 0)
(-0.12915833 0.040484577 0)
(-0.13833317 0.044008093 0)
(-0.14915509 0.04641049 0)
(-0.16121712 0.047349822 0)
(-0.17413902 0.047049667 0)
(-0.19008767 0.049966753 0)
(-0.22055608 0.067508716 0)
(-0.27879588 0.087698931 0)
(-0.313416 0.0082567126 0)
(-0.17922889 -0.31003272 0)
(0.057744868 -0.71047208 0)
(0.13646988 -0.82021702 0)
(0.22831858 -0.97505606 0)
(0.34128311 -1.0718216 0)
(0.50113765 -1.1284774 0)
(0.70281736 -1.1855952 0)
(0.92783636 -1.1863621 0)
(1.1400808 -1.0596253 0)
(1.317229 -0.79219664 0)
(1.4335646 -0.42224546 0)
(1.4714104 -0.0046306129 0)
(1.4194301 0.37883323 0)
(1.3044538 0.67837579 0)
(1.1560411 0.86305901 0)
(0.95199543 0.84819377 0)
(0.72506119 0.71456672 0)
(0.53786554 0.56676151 0)
(0.40574374 0.45569123 0)
(0.32783154 0.3987348 0)
(0.27591259 0.36443815 0)
(0.23398651 0.33134947 0)
(0.19983755 0.29883016 0)
(0.17247883 0.26965511 0)
(0.150029 0.24407949 0)
(0.13106474 0.22150526 0)
(0.11470246 0.20146604 0)
(0.10032722 0.18360892 0)
(0.087495606 0.16761851 0)
(0.075891063 0.15320733 0)
(0.065296809 0.1401305 0)
(0.055571805 0.12817297 0)
(0.046610043 0.11715515 0)
(0.038343511 0.10693674 0)
(0.030738982 0.097406015 0)
(0.02376954 0.088467393 0)
(0.017423831 0.080045385 0)
(0.011694978 0.072084518 0)
(0.0065780753 0.064542441 0)
(0.0020791332 0.057396021 0)
(-0.0018063586 0.050621203 0)
(-0.0050959816 0.044208065 0)
(-0.0077937427 0.038149339 0)
(-0.0099012051 0.032449733 0)
(-0.011440128 0.027123136 0)
(-0.012445026 0.022177469 0)
(-0.012928762 0.017631721 0)
(-0.012928823 0.0134935 0)
(-0.01247816 0.0097844054 0)
(-0.011637976 0.0065304051 0)
(-0.01043085 0.0036716126 0)
(-0.0088348692 0.0015912203 0)
(-0.0067280247 -0.00092830588 0)
(-0.0039552389 0.053828638 0)
(-0.011909962 0.053934629 0)
(-0.015472301 0.054030978 0)
(-0.021297257 0.054092677 0)
(-0.026490767 0.054118282 0)
(-0.031852901 0.054093639 0)
(-0.037237399 0.053996407 0)
(-0.042648874 0.053805289 0)
(-0.048083827 0.05349449 0)
(-0.053528157 0.053042412 0)
(-0.058961078 0.052424766 0)
(-0.064358947 0.05161599 0)
(-0.069694471 0.050595518 0)
(-0.074934252 0.049342548 0)
(-0.080040487 0.047840832 0)
(-0.084969584 0.046077767 0)
(-0.089673767 0.044045832 0)
(-0.094100302 0.041748115 0)
(-0.098192263 0.039196161 0)
(-0.10189485 0.0364131 0)
(-0.10515225 0.033437784 0)
(-0.10790976 0.030325694 0)
(-0.1101243 0.02714661 0)
(-0.11176656 0.023983916 0)
(-0.11281799 0.020938748 0)
(-0.11327909 0.018123169 0)
(-0.11317967 0.015654901 0)
(-0.1125656 0.013656395 0)
(-0.11149657 0.012255769 0)
(-0.11007495 0.011596601 0)
(-0.10845319 0.011829199 0)
(-0.10683241 0.013091629 0)
(-0.10548537 0.015497771 0)
(-0.10476577 0.019114495 0)
(-0.10508679 0.023911851 0)
(-0.10687398 0.029693665 0)
(-0.11048107 0.036088717 0)
(-0.1161594 0.042675278 0)
(-0.12407869 0.049005767 0)
(-0.13418503 0.054425126 0)
(-0.14590837 0.058123287 0)
(-0.15821762 0.059771858 0)
(-0.17131256 0.062256045 0)
(-0.19039692 0.076743994 0)
(-0.22556565 0.11061045 0)
(-0.26541722 0.10876508 0)
(-0.22219135 -0.071991446 0)
(0.017597015 -0.5181786 0)
(0.081847475 -0.75903247 0)
(0.048277905 -0.86005059 0)
(0.12248453 -1.0664727 0)
(0.24806513 -1.2195396 0)
(0.41520173 -1.3162416 0)
(0.58658727 -1.4095608 0)
(0.77242701 -1.4095154 0)
(0.94743426 -1.2599963 0)
(1.1007245 -0.94972172 0)
(1.2195344 -0.50898534 0)
(1.278286 -0.0093631677 0)
(1.2531347 0.44988934 0)
(1.1502096 0.79856939 0)
(1.0154975 1.0216199 0)
(0.84037261 1.0466869 0)
(0.6470719 0.89297207 0)
(0.47776284 0.73356118 0)
(0.34965352 0.56725099 0)
(0.27530204 0.46533898 0)
(0.23004724 0.40977606 0)
(0.19487213 0.36710711 0)
(0.16598195 0.32771192 0)
(0.14297 0.29299862 0)
(0.12426485 0.26339165 0)
(0.10847989 0.23794027 0)
(0.094787404 0.2157808 0)
(0.08264707 0.19631948 0)
(0.071679899 0.17908506 0)
(0.061626413 0.1636779 0)
(0.052326428 0.14976898 0)
(0.043680721 0.137081 0)
(0.035621274 0.12540111 0)
(0.028117706 0.11456395 0)
(0.021165294 0.10443154 0)
(0.014757777 0.094901857 0)
(0.0089055619 0.085883978 0)
(0.0036190262 0.077329418 0)
(-0.0010873098 0.069182993 0)
(-0.0051958185 0.06143641 0)
(-0.0087120127 0.054048555 0)
(-0.011638276 0.047028637 0)
(-0.013970045 0.040378956 0)
(-0.015699849 0.034106182 0)
(-0.016849829 0.028214259 0)
(-0.017448704 0.022729762 0)
(-0.017511255 0.017672725 0)
(-0.017072399 0.013062282 0)
(-0.016160228 0.0089156792 0)
(-0.014857295 0.0052606471 0)
(-0.013066327 0.0021274297 0)
(-0.011177426 -0.00035336375 0)
(-0.0082358369 -0.003055355 0)
(-0.0038283611 0.058989961 0)
(-0.011820064 0.059138979 0)
(-0.01536126 0.05927821 0)
(-0.02122795 0.059392214 0)
(-0.026464223 0.059465846 0)
(-0.031885047 0.059493172 0)
(-0.037356337 0.059442374 0)
(-0.042878303 0.059289512 0)
(-0.048448152 0.059006496 0)
(-0.054050988 0.058563443 0)
(-0.059668907 0.057934437 0)
(-0.065276575 0.057089068 0)
(-0.070844794 0.05600119 0)
(-0.076338294 0.054643617 0)
(-0.081713921 0.052993717 0)
(-0.086924095 0.051033854 0)
(-0.091913808 0.048752109 0)
(-0.096619802 0.0461454 0)
(-0.10097467 0.043221333 0)
(-0.10490841 0.040002827 0)
(-0.10834728 0.036531684 0)
(-0.1112205 0.032866768 0)
(-0.11346948 0.029086531 0)
(-0.11504623 0.025292371 0)
(-0.11591662 0.021603161 0)
(-0.11607282 0.018149698 0)
(-0.11553573 0.015073754 0)
(-0.11434197 0.012521033 0)
(-0.11253877 0.01064135 0)
(-0.11021331 0.0096125362 0)
(-0.10751321 0.009642569 0)
(-0.10465107 0.010957321 0)
(-0.101931 0.013754651 0)
(-0.09978411 0.018176287 0)
(-0.098795651 0.024238958 0)
(-0.099616038 0.031725765 0)
(-0.10270123 0.040213109 0)
(-0.10829621 0.049297152 0)
(-0.11673889 0.058361688 0)
(-0.12802102 0.065914026 0)
(-0.14090389 0.070459955 0)
(-0.15445151 0.073125815 0)
(-0.17163933 0.081565024 0)
(-0.19688908 0.10765116 0)
(-0.22256997 0.13272064 0)
(-0.20276028 0.06201749 0)
(-0.049608637 -0.22145275 0)
(0.12665253 -0.62468205 0)
(0.031655792 -0.70561243 0)
(0.0027047376 -0.89590077 0)
(0.065801179 -1.1710828 0)
(0.16472352 -1.3677573 0)
(0.29456106 -1.4617526 0)
(0.39794121 -1.5710337 0)
(0.50659242 -1.5622474 0)
(0.60690656 -1.3986284 0)
(0.71101415 -1.0729892 0)
(0.82567916 -0.59146459 0)
(0.90428858 -0.027190848 0)
(0.91901775 0.50173528 0)
(0.85195543 0.90458118 0)
(0.73256824 1.1746149 0)
(0.58803237 1.2005241 0)
(0.4418838 1.0498538 0)
(0.32270928 0.85232004 0)
(0.25343885 0.65419908 0)
(0.20307366 0.52085272 0)
(0.17107251 0.44663601 0)
(0.14659415 0.39545167 0)
(0.12585751 0.35062441 0)
(0.10912082 0.31156746 0)
(0.095422021 0.27877166 0)
(0.08367452 0.25111688 0)
(0.073241453 0.2274094 0)
(0.063736191 0.206823 0)
(0.054899584 0.18873808 0)
(0.046573469 0.17265579 0)
(0.038679415 0.15817311 0)
(0.031177936 0.14496576 0)
(0.024057861 0.13279315 0)
(0.017332229 0.12147323 0)
(0.011034552 0.11083985 0)
(0.005182245 0.10080748 0)
(-0.000185005 0.091248817 0)
(-0.0050381926 0.08214554 0)
(-0.0093405047 0.073425527 0)
(-0.013074151 0.065083664 0)
(-0.016231798 0.057098448 0)
(-0.018779677 0.04947794 0)
(-0.020727246 0.042230889 0)
(-0.022073127 0.035369073 0)
(-0.022819552 0.028895429 0)
(-0.022984132 0.022854766 0)
(-0.022593656 0.017266383 0)
(-0.021678297 0.012159078 0)
(-0.020267984 0.0075552205 0)
(-0.018415782 0.0034849182 0)
(-0.016055883 3.5937407e-05 0)
(-0.013778194 -0.002840886 0)
(-0.009882946 -0.0057166713 0)
(-0.0036671404 0.064136962 0)
(-0.011687388 0.064341641 0)
(-0.015195756 0.064540479 0)
(-0.021098463 0.064720952 0)
(-0.02637585 0.064870159 0)
(-0.031857717 0.064970065 0)
(-0.037420432 0.06499092 0)
(-0.043060164 0.06490259 0)
(-0.048779249 0.064673906 0)
(-0.054561128 0.064268018 0)
(-0.060386575 0.063655157 0)
(-0.066231937 0.06279987 0)
(-0.072067637 0.061668246 0)
(-0.077856501 0.060227405 0)
(-0.083550414 0.058446961 0)
(-0.089095303 0.056301363 0)
(-0.094429493 0.053771245 0)
(-0.099480633 0.050845313 0)
(-0.10416643 0.047525901 0)
(-0.10839841 0.043833573 0)
(-0.11208501 0.03980854 0)
(-0.11513502 0.035513159 0)
(-0.11746335 0.031036121 0)
(-0.11900087 0.026497038 0)
(-0.11969978 0.022034498 0)
(-0.11953609 0.017802278 0)
(-0.11851966 0.013970465 0)
(-0.11668438 0.01070708 0)
(-0.11405967 0.0081802483 0)
(-0.11069537 0.0066020656 0)
(-0.10669652 0.0062346638 0)
(-0.1022665 0.007412106 0)
(-0.097757251 0.0104418 0)
(-0.093719935 0.015648606 0)
(-0.09095376 0.023238616 0)
(-0.090312677 0.033046927 0)
(-0.092290672 0.044441088 0)
(-0.097374809 0.056684717 0)
(-0.10669207 0.068664255 0)
(-0.11995951 0.078097653 0)
(-0.13481045 0.083982362 0)
(-0.15311487 0.091091049 0)
(-0.18050613 0.10888622 0)
(-0.20848022 0.1327436 0)
(-0.20378478 0.10973287 0)
(-0.11623212 -0.051516968 0)
(0.053320489 -0.38254188 0)
(0.11331093 -0.60541449 0)
(0.060025393 -0.65734751 0)
(0.024763343 -0.91529747 0)