/*--------------------------------*- C++ -*----------------------------------*\
  =========                 |
  \\      /  F ield         | OpenFOAM: The Open Source CFD Toolbox
   \\    /   O peration     | Website:  https://openfoam.org
    \\  /    A nd           | Version:  9
     \\/     M anipulation  |
\*---------------------------------------------------------------------------*/
FoamFile
{
    format      ascii;
    class       volScalarField;
    location    "0.94";
    object      alpha.phase1;
}
// * * * * * * * * * * * * * * * * * * * * * * * * * * * * * * * * * * * * * //

dimensions      [0 0 0 0 0 0 0];

internalField   nonuniform List<scalar> 
10000
(
5.4482702e-84
2.2114471e-83
9.6942932e-82
4.2148303e-81
4.7139978e-81
1.7736743e-81
5.8781265e-82
5.8784046e-82
1.9206635e-81
2.5264361e-79
3.0256304e-77
3.2392099e-75
3.1517825e-73
2.8114534e-71
2.3073654e-69
1.7493461e-67
1.2265938e-65
7.9996962e-64
5.046014e-62
4.1707469e-60
1.0665217e-57
5.6120752e-55
3.0504124e-52
1.5155997e-49
6.746796e-47
2.6587882e-44
9.1654966e-42
2.7325116e-39
6.9749747e-37
1.5118521e-34
2.764831e-32
4.2465196e-30
5.4626991e-28
5.8790804e-26
5.2945519e-24
3.9940976e-22
2.5257946e-20
1.3409707e-18
6.1767911e-17
2.7873079e-15
6.1940686e-14
3.3993596e-13
5.2574846e-12
1.0583831e-10
1.5880325e-09
1.7012117e-07
4.0742751e-06
8.839658e-06
8.6908027e-06
8.3471751e-06
8.2985604e-06
8.244072e-06
6.682587e-06
3.6584711e-06
3.0533419e-06
3.2165134e-06
3.816626e-06
3.2499734e-06
1.1297975e-06
8.9243414e-07
9.0143621e-07
2.0023005e-06
1.9758766e-06
7.2581957e-07
7.9144966e-09
1.2006887e-10
9.6537628e-12
7.8251476e-13
2.9352604e-13
4.2583784e-14
2.2187597e-15
7.6868925e-17
2.4829166e-18
7.5381704e-20
2.0389914e-21
4.8266613e-23
9.9856607e-25
1.7997259e-26
2.8073955e-28
3.7576524e-30
4.2698811e-32
4.0658553e-34
3.1930441e-36
2.0273871e-38
1.0145613e-40
3.8678738e-43
1.0709347e-45
2.0033006e-48
2.2391652e-51
1.1555454e-54
1.1582115e-58
4.3432092e-65
5.2671417e-65
1.3065848e-62
1.2123721e-60
6.9328377e-59
2.5789865e-57
6.4907069e-56
1.048666e-54
5.0039868e-54
5.4485403e-84
1.8328015e-82
6.4651235e-81
2.8597052e-80
3.6915436e-80
2.7472741e-80
1.4677788e-80
7.467318e-81
4.0405688e-80
5.9081633e-78
7.5280993e-76
8.5607481e-74
8.7839469e-72
8.2076356e-70
7.032976e-68
5.5635011e-66
4.0794303e-64
2.7736716e-62
1.760193e-60
1.0702606e-58
7.690384e-57
1.4771092e-54
7.1202518e-52
3.5341105e-49
1.5553723e-46
6.1071459e-44
2.1312403e-41
6.5239313e-39
1.7313478e-36
3.9420095e-34
7.6344019e-32
1.2494724e-29
1.7205031e-27
1.9884699e-25
1.9276897e-23
1.5675601e-21
1.0699834e-19
6.3187757e-18
3.5117829e-16
1.0535267e-14
9.4203654e-14
2.4840407e-12
6.4990981e-11
1.4633171e-09
1.7017162e-07
7.064447e-06
1.1103261e-05
1.0840887e-05
5.6320585e-06
3.9755357e-06
4.2843833e-06
6.7704618e-06
6.4015443e-06
2.2667262e-06
2.4606927e-06
9.6162159e-06
3.2622825e-05
2.3083953e-05
3.0516477e-06
9.0255129e-07
8.9238571e-07
1.7159193e-06
5.5054072e-06
5.5038723e-06
2.3312745e-06
1.8092399e-09
1.684919e-10
9.5411135e-12
7.6242779e-13
7.9775859e-14
5.8768015e-15
2.0994795e-16
5.9877856e-18
1.6482588e-19
4.1446539e-21
9.2844089e-23
1.8341726e-24
3.1626672e-26
4.7067515e-28
5.9763409e-30
6.3952412e-32
5.684847e-34
4.127481e-36
2.3983404e-38
1.0882791e-40
3.7439047e-43
9.4630261e-46
1.6642635e-48
1.8413771e-51
1.2399666e-54
2.3554219e-58
7.1188175e-64
2.1404584e-61
2.7298408e-59
2.1208243e-57
1.0777581e-55
3.8002218e-54
7.0886292e-53
3.772807e-52
4.3655637e-52
3.1644018e-81
2.364017e-79
5.7214708e-78
1.9493003e-77
2.2786004e-77
1.6380919e-77
8.4129676e-78
4.1090451e-78
1.6525871e-77
2.5101523e-75
3.2907427e-73
3.8299454e-71
4.0043992e-69
3.7988271e-67
3.2942286e-65
2.6289938e-63
1.941786e-61
1.3339318e-59
8.5480443e-58
5.1084445e-56
2.848915e-54
1.5136096e-52
8.9681418e-51
1.1729963e-48
4.0411306e-46
1.7127859e-43
5.8833157e-41
1.7855435e-38
4.7680064e-36
1.1145689e-33
2.2490487e-31
3.8733328e-29
5.6456377e-27
6.9256812e-25
7.1255439e-23
6.1293356e-21
4.4320465e-19
2.8726361e-17
1.6268259e-15
3.8415073e-14
3.0874168e-13
9.2452194e-12
2.6661026e-10
6.5091939e-09
2.8089049e-06
1.1024715e-05
1.1094225e-05
2.2540692e-06
5.0576057e-08
5.0576059e-08
5.0576059e-08
5.057609e-08
1.0819821e-07
4.5822665e-07
8.9096618e-06
4.5776884e-05
5.4724205e-05
5.544861e-05
2.1142323e-05
1.0903852e-06
9.0929369e-07
9.5947659e-07
2.6233398e-06
5.4974776e-06
4.6881231e-06
8.2684579e-07
3.3492755e-09
1.7154374e-10
7.7324224e-12
3.6075406e-13
3.9329996e-14
2.4155455e-15
6.613304e-17
1.2626797e-18
2.5521411e-20
5.0817273e-22
9.0404627e-24
1.402213e-25
1.8773795e-27
2.1466071e-29
2.0734844e-31
1.6729324e-33
1.1163117e-35
6.142218e-38
2.3817402e-40
6.1785813e-43
1.0842903e-45
1.4340568e-48
1.2968296e-51
2.078125e-55
1.1441769e-60
1.8901283e-60
3.1583361e-58
3.3046304e-56
2.2281156e-54
1.0286575e-52
3.2724691e-51
5.4032692e-50
2.8436055e-49
3.783229e-49
1.7216572e-78
1.7918102e-76
3.2488674e-75
9.0630245e-75
9.9588297e-75
7.030683e-75
3.5263332e-75
1.687343e-75
5.6318904e-75
8.9392158e-73
1.2147465e-70
1.455509e-68
1.5596642e-66
1.5098845e-64
1.3327193e-62
1.0794653e-60
8.0714358e-59
5.6006971e-57
3.6206949e-55
2.1909872e-53
1.2455289e-51
6.5911648e-50
3.1895584e-48
1.4776455e-46
7.9888761e-45
6.1103962e-43
7.4064522e-41
1.6430977e-38
4.6475543e-36
1.0873064e-33
2.1772567e-31
3.7487891e-29
5.4970772e-27
6.8090378e-25
7.0864354e-23
6.1718091e-21
4.504712e-19
2.8868208e-17
1.6837341e-15
4.8534773e-14
4.2293383e-13
8.762516e-12
2.3115253e-10
5.24193e-09
2.5594189e-06
1.0946168e-05
3.6410823e-06
5.1569505e-08
5.0576059e-08
5.0576056e-08
5.0576059e-08
9.2714486e-08
1.0624971e-07
2.0607589e-07
4.4429671e-05
5.4685067e-05
5.5390315e-05
5.5491706e-05
5.5424105e-05
4.2596508e-05
4.4984476e-06
9.9273849e-07
1.1261254e-06
1.2570266e-06
6.3377374e-06
3.732854e-06
7.2715675e-08
7.9300959e-10
3.5370188e-11
1.4538627e-12
5.9205655e-14
7.8334343e-15
3.0554259e-16
5.8336157e-18
1.1418641e-19
2.1375198e-21
3.5613653e-23
5.1977532e-25
6.5855499e-27
6.9704262e-29
5.8705405e-31
3.8986535e-33
2.0466896e-35
8.0760274e-38
2.8617328e-40
8.1228309e-43
1.5284283e-45
1.4258099e-48
2.9612772e-52
1.89747e-58
7.150941e-60
2.4198412e-57
3.2324513e-55
2.8507344e-53
1.705425e-51
7.2568922e-50
2.1086273e-48
3.1142665e-47
1.5670469e-46
2.2314307e-46
6.7796647e-76
8.0074687e-74
1.267399e-72
3.1743614e-72
3.3532428e-72
2.3494157e-72
1.1615146e-72
5.4610326e-73
1.5212008e-72
2.5644462e-70
3.6532413e-68
4.5397558e-66
5.0099964e-64
4.9709341e-62
4.4773028e-60
3.6893158e-58
2.7978061e-56
1.963871e-54
1.2814797e-52
7.8053828e-51
4.4574776e-49
2.37079e-47
1.150922e-45
5.2422703e-44
2.7253017e-42
1.9338138e-40
1.0063337e-38
2.4661844e-37
4.9787723e-36
4.3071144e-34
9.0946264e-32
1.7098055e-29
2.6080558e-27
3.3789699e-25
3.6912878e-23
3.3681384e-21
2.5620827e-19
1.6849931e-17
9.7668567e-16
3.1547175e-14
3.7126085e-13
8.3920357e-12
2.7050423e-10
2.1505628e-08
1.9413207e-06
3.0534897e-06
6.0104516e-08
5.4954748e-08
7.0900818e-08
5.0576059e-08
5.0576217e-08
4.3633578e-07
1.9741038e-06
4.2179016e-06
1.0896259e-05
2.0698867e-05
3.7551779e-05
4.3957288e-05
1.94803e-05
6.0928459e-05
6.3304453e-05
5.674025e-05
6.3803839e-06
1.2646285e-06
6.7175619e-06
5.655136e-06
4.6128771e-07
1.9788013e-09
8.7143129e-11
3.291164e-12
1.2941574e-13
2.3244587e-14
1.028001e-15
1.7787282e-17
3.0981828e-19
5.0951839e-21
7.2699403e-23
8.8535707e-25
9.0792819e-27
7.9872344e-29
6.3035333e-31
4.2358726e-33
2.2404941e-35
9.0714959e-38
2.3790193e-40
3.7832079e-43
3.0615241e-46
7.5829238e-50
4.3704962e-55
5.5089873e-58
1.409566e-56
2.261027e-54
2.4962345e-52
1.9000929e-50
1.0269006e-48
4.0601251e-47
1.0798565e-45
1.4333994e-44
6.7871519e-44
9.9756862e-44
2.0586815e-73
2.5586347e-71
3.7806021e-70
8.9232054e-70
9.1818517e-70
6.4220155e-70
3.1468362e-70
1.4489681e-70
3.1928984e-70
5.8961731e-68
8.9647635e-66
1.1679844e-63
1.336256e-61
1.3646941e-59
1.2582705e-57
1.0567789e-55
8.1391303e-54
5.7792835e-52
3.8036689e-50
2.3299202e-48
1.3328099e-46
7.0901343e-45
3.4530374e-43
1.5635258e-41
7.5970461e-40
4.9230407e-38
2.9821507e-36
8.7537309e-35
1.1278201e-33
9.0643122e-33
1.0443266e-31
4.832638e-30
6.2697281e-28
9.4618995e-26
1.1803153e-23
1.2236561e-21
1.021709e-19
6.9861005e-18
4.0056994e-16
1.5229765e-14
2.6368141e-13
5.460538e-12
2.1589934e-10
4.4095536e-08
8.7602549e-07
1.0828953e-06
3.7195208e-07
2.1048744e-07
1.3245714e-07
5.0580736e-08
5.0577556e-08
5.0642413e-08
7.0786761e-06
1.8078713e-05
7.64e-06
2.2719397e-06
8.9431574e-07
7.3198146e-07
4.9602444e-07
4.4277337e-05
6.4343986e-05
6.4549244e-05
6.5095069e-05
1.978632e-05
7.2336187e-06
4.3113796e-06
1.3097796e-07
2.2832084e-09
1.0138164e-10
4.331362e-12
3.5531294e-13
3.3502407e-14
1.0344618e-15
1.9487817e-17
3.4912465e-19
5.615366e-21
7.8064328e-23
9.284744e-25
9.3336847e-27
7.714457e-29
4.9606132e-31
2.4318897e-33
8.9730494e-36
2.3266184e-38
3.652041e-41
2.6864793e-44
5.4359572e-48
8.8933739e-53
2.4182307e-55
3.900089e-56
1.2649596e-53
1.6367935e-51
1.5274671e-49
1.0249363e-47
5.0817944e-46
1.8749023e-44
4.5506797e-43
5.4343983e-42
2.3999204e-41
3.5622739e-41
5.6253577e-71
6.4254641e-69
9.1761897e-68
2.0950687e-67
2.1205689e-67
1.4853979e-67
7.2498625e-68
3.2205992e-68
4.9228669e-68
1.0683201e-65
1.798708e-63
2.5022794e-61
3.0006043e-59
3.1754192e-57
3.0109489e-55
2.5848518e-53
2.0256633e-51
1.4581777e-49
9.6862883e-48
5.9688842e-46
3.4206784e-44
1.8173105e-42
8.8638335e-41
4.0349118e-39
1.8834712e-37
1.0186286e-35
5.4387532e-34
1.900713e-32
3.5287969e-31
3.5642027e-30
2.3406857e-29
1.4390352e-28
1.7510221e-27
8.2963102e-26
6.739707e-24
4.2061688e-22
2.4491723e-20
1.706594e-18
1.206344e-16
5.7279916e-15
1.6121143e-13
3.1417554e-12
1.4358784e-10
1.0238831e-08
1.1707643e-07
3.9287333e-07
4.5131301e-07
1.5591932e-07
5.0490611e-08
5.056193e-08
5.0526623e-08
5.1072742e-08
2.5025771e-06
2.1192854e-05
2.1044323e-05
2.1111422e-05
9.2491562e-06
4.9598554e-07
3.9219838e-07
3.1458521e-07
4.832861e-05
6.495689e-05
6.5098922e-05
6.5401909e-05
1.9630666e-05
2.5827482e-06
1.7718163e-08
1.5348554e-09
1.0188266e-10
5.4493957e-12
4.7906755e-13
2.7151172e-14
7.0431571e-16
1.301715e-17
2.1420935e-19
3.0449526e-21
3.6468803e-23
3.6365565e-25
2.971247e-27
1.9116793e-29
9.273076e-32
3.2877124e-34
7.9305473e-37
1.1292256e-39
7.336657e-43
1.276696e-46
4.6119884e-50
1.6658294e-52
1.6165619e-54
6.191679e-53
8.8231006e-51
9.5214894e-49
7.6694493e-47
4.6209171e-45
2.1231281e-43
7.2952348e-42
1.6085599e-40
1.728065e-39
7.0836123e-39
1.0476137e-38
2.8077599e-68
1.3410879e-66
1.8801649e-65
4.2252543e-65
4.2350234e-65
2.980951e-65
1.4645359e-65
5.8930449e-66
4.0710476e-66
1.3885245e-63
2.8365417e-61
4.3715926e-59
5.5984762e-57
6.2077048e-55
6.0966826e-53
5.3796401e-51
4.3060181e-49
3.1493941e-47
2.1173516e-45
1.3148407e-43
7.5609707e-42
4.0151515e-40
1.9593592e-38
8.9685946e-37
4.1019926e-35
1.9404612e-33
8.6099534e-32
3.2287279e-30
8.8743519e-29
1.2904976e-27
8.847209e-27
3.7118562e-26
1.6025324e-25
1.952868e-24
2.204924e-22
1.1972764e-20
1.8360138e-19
2.0703404e-18
3.5533144e-17
1.2183646e-15
5.2272668e-14
1.5620918e-12
2.3943842e-11
3.7337821e-11
4.0623789e-10
1.4561952e-07
3.8637035e-07
5.0618514e-08
5.0377199e-08
5.0162138e-08
5.1176024e-08
5.1175716e-08
5.455434e-08
1.0681951e-05
2.1147041e-05
2.0987268e-05
1.58212e-05
7.3815647e-07
3.1134046e-07
3.0262838e-07
9.3925469e-06
6.5321327e-05
6.5374682e-05
6.5610289e-05
4.7331311e-05
3.9046559e-06
1.4310619e-08
8.674935e-10
8.4848999e-11
4.6425839e-12
3.309027e-13
1.4031453e-14
3.1594852e-16
5.3061052e-18
7.5110094e-20
8.8596204e-22
8.5768513e-24
6.7120476e-26
4.1536067e-28
1.9589448e-30
6.7012771e-33
1.5236755e-35
1.9966122e-38
1.3543057e-41
9.6752923e-45
3.4189099e-47
1.2771691e-49
6.1035817e-52
1.3602587e-52
4.2767328e-50
4.9916679e-48
4.5711702e-46
3.239502e-44
1.7773183e-42
7.5948082e-41
2.4162151e-39
4.8168349e-38
4.6546518e-37
1.7675196e-36
2.5832909e-36
3.5701857e-65
2.5177364e-64
3.3388058e-63
7.4761832e-63
7.4537772e-63
5.2784081e-63
2.6160635e-63
9.7868058e-64
8.2638611e-65
1.0033026e-61
3.2128081e-59
5.9425854e-57
8.3845426e-55
9.8931013e-53
1.0152735e-50
9.2564518e-49
7.5996644e-47
5.6658764e-45
3.8612947e-43
2.4203293e-41
1.3987847e-39
7.4405255e-38
3.6342544e-36
1.6639645e-34
7.4426955e-33
3.227464e-31
1.2685381e-29
4.9474564e-28
1.8843681e-26
3.6182782e-25
2.5713737e-24
8.7601955e-24
2.3848979e-23
1.2448346e-22
2.0683234e-20
1.347201e-18
1.6758154e-17
7.0491782e-17
2.2169654e-16
2.0170623e-15
2.1175412e-14
7.3300228e-14
8.2940859e-13
1.6784018e-11
3.8554451e-08
7.3169394e-07
3.6828076e-07
5.0529342e-08
4.9604433e-08
4.9121104e-08
4.6150112e-08
5.3391905e-08
5.6320709e-08
6.2393006e-08
1.80568e-05
1.8622575e-05
1.7645079e-06
3.108503e-07
3.0285713e-07
3.0197656e-07
3.0187908e-07
4.774529e-05
6.5562343e-05
6.5602865e-05
5.106074e-05
4.8895251e-06
1.1995844e-07
1.5982573e-09
8.5857102e-11
3.0333459e-12
1.9402617e-13
5.4533952e-15
9.2218993e-17
1.3070077e-18
1.5088427e-20
1.403061e-22
1.0479106e-24
6.173049e-27
2.7739338e-29
9.0626927e-32
2.0327284e-34
3.4824645e-37
8.5954686e-40
3.9464073e-42
1.7737843e-44
6.6878253e-47
2.1797273e-49
2.5875353e-51
2.0242291e-49
2.3669713e-47
2.3183295e-45
1.8409374e-43
1.1682161e-41
5.8943068e-40
2.3375957e-38
6.8310815e-37
1.2268192e-35
1.0671864e-34
3.753775e-34
5.395957e-34
4.7136066e-62
5.6775489e-62
5.2589247e-61
1.1785732e-60
1.1732487e-60
8.3693434e-61
4.1595258e-61
1.5596919e-61
1.0785296e-62
2.1982987e-60
1.3258553e-57
3.1870311e-55
5.1328977e-53
6.6289701e-51
7.2384108e-49
6.9109432e-47
5.8824493e-45
4.5221388e-43
3.1616293e-41
2.0231574e-39
1.1913233e-37
6.4753379e-36
3.2575476e-34
1.5112646e-32
6.3946821e-31
2.5007827e-29
1.0688725e-27
8.078069e-26
6.2417471e-24
1.389642e-22
8.473059e-22
2.1532585e-21
3.8865025e-21
1.3314247e-20
2.1214257e-18
8.6742729e-17
7.7817056e-16
2.8085626e-15
6.4343676e-15
1.0046472e-14
1.2289885e-14
2.6958564e-13
2.9362022e-11
7.0184149e-08
1.0658347e-06
1.0638567e-06
3.1233684e-07
5.0332894e-08
4.911406e-08
4.5548671e-08
4.5340762e-08
6.9078277e-08
6.2392902e-08
7.8606709e-08
2.1241251e-05
8.7723551e-06
4.3842073e-07
3.0441485e-07
3.0289342e-07
3.0267045e-07
3.019898e-07
5.2279194e-06
6.5587402e-05
6.5587402e-05
3.1293517e-05
4.0162169e-06
2.5598043e-07
3.6535272e-09
1.0081983e-10
4.7739385e-12
1.459531e-13
1.8576093e-15
1.9897082e-17
2.0115688e-19
1.7077915e-21
1.1919342e-23
6.8024606e-26
3.2090378e-28
1.3627561e-30
6.471641e-33
3.6951684e-35
2.173147e-37
1.153248e-39
5.4368619e-42
2.1429934e-44
8.1889072e-47
6.0148485e-49
6.7271927e-49
1.0827505e-46
1.067567e-44
8.9403636e-43
6.3032811e-41
3.6296781e-39
1.6880376e-37
6.1826048e-36
1.6473821e-34
2.6597694e-33
2.0868022e-32
6.8089797e-32
9.5999515e-32
4.981353e-59
2.6552782e-59
7.6075571e-59
1.6728334e-58
1.6709395e-58
1.202794e-58
6.0424872e-59
2.5319898e-59
1.1304801e-60
4.3419871e-59
3.7900558e-56
2.2748156e-53
5.8848491e-51
9.2968284e-49
1.1280556e-46
1.1511665e-44
1.0254734e-42
8.1350461e-41
5.8205267e-39
3.778869e-37
2.2402996e-35
1.2165148e-33
6.0596805e-32
2.7688016e-30
1.1570404e-28
4.4702495e-27
1.8151661e-25
1.0832082e-23
6.8254706e-22
1.608691e-20
1.0817969e-19
2.7295071e-19
4.0451513e-19
8.0410072e-19
6.270701e-17
1.9519788e-15
1.5011021e-14
5.5550647e-14
1.3180925e-13
2.8503127e-13
2.860657e-13
6.1018179e-13
1.1650074e-10
4.622106e-07
1.1315085e-06
7.8027876e-07
9.1390264e-08
5.5781296e-08
5.0632484e-08
5.1240658e-08
4.8714442e-08
2.1806529e-07
9.851511e-08
2.8255108e-07
2.4048493e-05
2.4188946e-05
2.4152079e-06
3.304689e-07
3.0339735e-07
3.0289342e-07
3.0338035e-07
3.0552609e-07
2.6498203e-05
4.3624314e-05
5.459845e-06
1.5206058e-06
2.1483992e-07
3.0563623e-09
1.4470894e-10
5.6009173e-12
9.4808012e-14
6.2210913e-16
3.5680885e-18
2.1992224e-20
1.5284832e-22
1.1929134e-24
1.007627e-26
8.7220482e-29
7.2090254e-31
5.3840702e-33
3.5640341e-35
2.0925991e-37
1.0786687e-39
5.0042808e-42
2.2707376e-44
1.023943e-46
2.554243e-48
5.0796481e-46
4.7803391e-44
4.0253108e-42
2.944197e-40
1.8569844e-38
9.7394034e-37
4.1631889e-35
1.3988774e-33
3.3805623e-32
4.9059759e-31
3.4824957e-30
1.0567462e-29
1.4589536e-29
4.2195817e-56
1.9123407e-56
1.090741e-56
2.166661e-56
2.1747629e-56
1.5815431e-56
8.1498006e-57
2.9426691e-57
1.2561068e-58
1.0093626e-58
8.153319e-57
2.2542757e-51
2.9573476e-48
7.2181374e-46
1.0533345e-43
1.192566e-41
1.1413149e-39
9.5644479e-38
7.1638572e-36
4.8557827e-34
2.9915662e-32
1.6690201e-30
8.4252295e-29
4.1367549e-27
2.4525454e-25
1.7503529e-23
7.388805e-22
1.2095707e-20
1.0053157e-19
8.218059e-19
5.7234775e-18
1.8026534e-17
2.8681056e-17
4.0593694e-17
1.4783812e-15
6.6400113e-14
4.8073205e-13
7.6042312e-13
1.0047721e-12
7.0397649e-13
6.3400809e-13
1.3073023e-12
6.350188e-09
7.2738582e-07
1.0209497e-06
1.8414816e-07
3.6768557e-07
2.803738e-07
9.0024611e-08
6.781976e-08
1.4130578e-06
2.2437145e-06
4.8558093e-07
6.5290174e-06
2.4229582e-05
2.4160394e-05
2.4862782e-06
4.3802799e-07
1.2707089e-06
3.0339727e-07
3.0348364e-07
3.0478071e-07
4.1829309e-06
3.0211588e-06
8.9612491e-08
2.2387784e-08
4.5759078e-08
2.5181458e-09
2.4303651e-11
3.7016724e-12
3.3388476e-14
1.4003723e-16
5.961473e-19
4.6822196e-21
5.6682516e-23
6.9832024e-25
7.6709345e-27
7.3952569e-29
6.2480608e-31
4.6134417e-33
2.9726984e-35
1.6660958e-37
8.3952151e-40
4.0375034e-42
1.9681485e-44
2.5904126e-46
2.2268413e-45
2.1594471e-43
1.7464836e-41
1.2723601e-39
8.2613206e-38
4.6947865e-36
2.2496736e-34
8.794285e-33
2.6933763e-31
5.8857932e-30
7.6894024e-29
4.9591585e-28
1.4046862e-27
1.8974499e-27
2.931266e-53
1.2930806e-53
2.018663e-54
2.6318732e-54
2.6056689e-54
1.9278528e-54
8.8447521e-55
6.1561464e-56
6.0013028e-56
1.2737842e-53
5.5474094e-51
9.6886999e-49
4.5808224e-44
2.1267622e-41
3.8502743e-39
5.007761e-37
5.3980524e-35
5.0996419e-33
4.3020204e-31
3.2342661e-29
2.3972139e-27
3.261545e-25
6.6084911e-23
2.7586464e-21
2.2772343e-20
8.7547187e-20
5.9033632e-19
4.5463451e-18
1.5639836e-17
3.7847731e-17
1.0104835e-16
3.2912728e-16
9.4067443e-16
7.5672421e-15
5.2068823e-14
4.8737461e-13
6.2140678e-12
4.5202081e-12
1.987356e-12
6.9832639e-13
6.4162084e-13
4.4364521e-10
3.4548263e-08
4.6414128e-07
4.2922677e-07
9.7064447e-07
4.5411297e-06
3.7899046e-06
3.4503008e-07
6.8077908e-08
5.0720221e-05
5.6887423e-05
1.2212698e-05
9.0850669e-06
2.4225998e-05
2.4198274e-05
2.5008619e-06
1.3764948e-05
3.8381208e-05
4.2833924e-05
2.7807087e-05
3.2639426e-05
3.4361962e-05
9.3595325e-07
1.2049495e-08
3.7364688e-09
5.1230043e-09
2.0075987e-09
8.1306618e-14
9.4196008e-13
5.2478702e-15
3.5917206e-17
2.7410743e-19
3.2057917e-21
4.3920437e-23
5.4522852e-25
5.8831207e-27
5.4991983e-29
4.4525998e-31
3.1372837e-33
1.9402528e-35
1.0818797e-37
5.7192369e-40
2.9349599e-42
2.1800853e-44
3.243327e-45
9.8538964e-43
7.5288739e-41
5.2852308e-39
3.38091e-37
1.9726083e-35
1.0134904e-33
4.4320378e-32
1.5789982e-30
4.3912497e-29
8.6702124e-28
1.0225845e-26
6.0235387e-26
1.6005823e-25
2.1151208e-25
1.7025289e-50
7.4697942e-51
6.9132254e-52
2.9925511e-52
2.909692e-52
2.1389203e-52
1.1043851e-52
3.9576041e-53
1.6080369e-52
3.9761791e-50
2.672683e-47
1.1683327e-44
4.1817613e-42
1.3478309e-39
2.5327976e-37
3.51345e-35
3.8774779e-33
3.6257335e-31
2.9847061e-29
2.2085051e-27
1.482286e-25
9.1684817e-24
5.8597845e-22
4.2269865e-20
4.8185918e-18
2.7635316e-16
3.9708245e-15
1.7869862e-14
3.5167549e-14
4.024685e-14
4.3752729e-14
6.6057214e-14
1.0533612e-13
1.973653e-13
1.4803639e-12
4.6224714e-12
1.0223084e-11
8.3812693e-12
1.6863145e-12
6.9552102e-13
6.844773e-13
6.9552101e-13
1.3484212e-07
1.4385758e-07
4.1427677e-07
4.663957e-06
4.9182479e-06
4.9223569e-06
7.6724164e-07
8.9807465e-08
8.368835e-05
8.4268525e-05
2.6820135e-05
3.6357666e-06
2.4222414e-05
2.1939472e-05
2.5386672e-06
3.9129014e-05
4.9707853e-05
4.9706108e-05
4.9595788e-05
4.9196578e-05
4.7089674e-05
1.2149794e-08
2.5565466e-09
4.3909243e-10
2.8436882e-11
7.6141897e-10
1.5120213e-14
7.6426157e-14
9.6506707e-16
1.7228999e-17
1.7799971e-19
2.2520867e-21
3.0090273e-23
3.500063e-25
3.5384717e-27
3.118923e-29
2.4122733e-31
1.6692878e-33
1.0573219e-35
6.2437734e-38
3.4425799e-40
1.5336883e-42
2.746763e-44
4.4026794e-42
3.2328761e-40
2.1591261e-38
1.3277381e-36
7.562804e-35
3.9938604e-33
1.8601108e-31
7.3951395e-30
2.3939153e-28
6.0375226e-27
1.0778013e-25
1.1518544e-24
6.2365458e-24
1.564009e-23
2.0220075e-23
8.3911749e-48
3.6947108e-48
3.1465127e-49
3.3660754e-50
3.0478105e-50
2.2263016e-50
1.2566443e-50
4.9860446e-51
1.0765041e-50
1.6145253e-48
6.7507019e-46
3.7786856e-43
1.422636e-40
5.0516441e-38
1.087867e-35
1.5864052e-33
1.7779787e-31
1.6734613e-29
1.3774004e-27
1.0137892e-25
6.7326188e-24
4.0150954e-22
2.2516265e-20
1.5710136e-18
1.8935141e-16
1.2356716e-14
1.9449143e-13
9.1265258e-13
1.831096e-12
1.8324541e-12
1.5646355e-12
1.4851385e-12
1.5779979e-12
1.7802003e-12
4.2733719e-12
7.9759245e-12
1.0223084e-11
7.5789645e-12
1.7243065e-12
2.9667944e-09
6.9552095e-13
2.1860038e-11
7.8867154e-08
4.2767607e-09
2.5953528e-06
4.9169312e-06
4.9223569e-06
4.9263187e-06
7.942056e-07
1.3113837e-07
6.6616514e-05
8.4268525e-05
3.2050044e-05
2.0352528e-06
2.4199272e-05
2.2463824e-05
1.2205743e-05
4.7849303e-05
4.9706108e-05
4.9710637e-05
4.9697067e-05
4.95674e-05
2.5019862e-05
1.8360898e-08
1.8609419e-08
5.4929802e-08
2.2687276e-12
3.6813827e-11
1.1001486e-14
1.3311808e-14
3.6234734e-16
8.5769233e-18
9.8782272e-20
1.2252632e-21
1.5151144e-23
1.6439148e-25
1.5884911e-27
1.380933e-29
1.0889475e-31
7.8577624e-34
5.1785364e-36
3.0428194e-38
1.2931493e-40
2.3980982e-42
1.6041967e-41
1.3826085e-39
8.7610066e-38
5.1462276e-36
2.8086918e-34
1.4364978e-32
6.8323122e-31
2.8828707e-29
1.0387544e-27
3.0496638e-26
6.9759654e-25
1.1274403e-23
1.0965398e-22
5.4987501e-22
1.3098005e-21
1.6529104e-21
3.5504088e-45
1.5785664e-45
1.3817596e-46
4.6661247e-48
2.9836094e-48
2.1785207e-48
1.2434206e-48
5.5059605e-49
5.4835273e-49
1.0085358e-46
3.2235357e-44
1.3476809e-41
7.2191289e-39
1.8591491e-36
2.8237144e-34
3.3271336e-32
3.2860744e-30
2.8244673e-28
2.157528e-26
1.4822349e-24
9.1855389e-23
5.0984096e-21
2.6445159e-19
1.6789228e-17
1.7015235e-15
9.518393e-14
1.3837172e-12
6.2394098e-12
1.1410744e-11
1.3155058e-11
1.2508975e-11
9.1201393e-12
7.8172121e-12
7.0962392e-12
7.7980503e-12
8.4643889e-12
6.5773471e-12
6.5633583e-12
7.3225614e-09
2.6702583e-08
1.0494675e-08
5.286936e-10
1.0672556e-09
2.5675485e-09
3.2011701e-06
4.8932064e-06
4.9169228e-06
3.808237e-06
4.5221546e-07
2.0867496e-07
2.1915788e-05
8.430437e-05
3.0327486e-05
1.471415e-06
1.6722718e-05
2.5418222e-05
2.6540883e-05
3.6325648e-05
4.9707871e-05
4.9697875e-05
4.9553095e-05
2.0544392e-05
2.0563e-08
1.8106197e-08
6.1869471e-08
6.171755e-08
2.6997337e-13
1.2748314e-13
1.0735548e-14
6.4396395e-15
1.4269712e-16
3.2157918e-18
3.8194484e-20
4.5333334e-22
5.4180155e-24
5.9937578e-26
6.0413732e-28
5.5547011e-30
4.5720762e-32
3.2784386e-34
1.9866726e-36
8.6700729e-39
1.2009886e-40
5.5206903e-42
5.7023697e-39
3.4598435e-37
1.9386277e-35
1.0111658e-33
4.9426765e-32
2.2797404e-30
9.7731101e-29
3.7447385e-27
1.2217249e-25
3.2522835e-24
6.7501153e-23
9.8820778e-22
8.7872575e-21
4.1278025e-20
9.4683202e-20
1.171152e-19
1.3016279e-42
5.8729836e-43
5.4132596e-44
1.0293706e-45
2.7901491e-46
2.0378599e-46
1.1164358e-46
4.4513709e-47
4.2420784e-47
1.4708665e-44
4.8191582e-42
9.5326971e-40
1.4990524e-37
1.980511e-35
2.2290373e-33
2.1695078e-31
1.8590854e-29
1.4201036e-27
9.7615236e-26
6.0730962e-24
3.4062564e-22
1.7039266e-20
7.9067998e-19
4.3651749e-17
3.781777e-15
1.9501133e-13
2.7791384e-12
1.0982863e-11
2.2861552e-11
5.0671112e-11
1.0551069e-10
1.0893185e-10
2.5367906e-11
1.2988447e-11
1.0188539e-11
7.4287559e-12
6.5633583e-12
6.5633583e-12
5.0789649e-09
2.7262615e-08
2.6953274e-08
9.4600853e-09
2.6783765e-09
3.7643996e-09
1.8168e-06
4.8034346e-06
4.8932064e-06
2.8295462e-06
6.143273e-07
3.3574599e-07
1.8596255e-05
9.0305833e-05
2.6784446e-05
9.7616918e-07
5.6039729e-06
2.4511156e-05
2.0866477e-05
7.4632777e-06
1.6184899e-05
2.8268665e-05
1.1449344e-05
8.1601695e-08
8.7284769e-09
1.3488757e-08
6.2604185e-08
4.1768028e-08
1.5399729e-14
1.6338742e-14
8.5373364e-15
2.440789e-15
3.9374096e-17
7.7875593e-19
1.0186149e-20
1.2631924e-22
1.61188e-24
2.0058242e-26
2.1870226e-28
2.0469136e-30
1.5802839e-32
9.574309e-35
4.2973021e-37
2.4400042e-39
1.3089133e-40
2.2162315e-38
1.3070592e-36
7.0116576e-35
3.5014837e-33
1.6357921e-31
7.2065062e-30
3.0039076e-28
1.161597e-26
4.0424623e-25
1.1970893e-23
2.8941036e-22
5.4449345e-21
7.2164319e-20
5.9067335e-19
2.6561487e-18
6.1528728e-18
8.0377132e-18
4.1648893e-40
1.9154336e-40
1.8716733e-41
3.1581149e-43
2.5017974e-44
1.7872392e-44
9.8322658e-45
3.7894524e-45
3.0230551e-45
7.965682e-44
2.0029084e-41
3.6470547e-39
5.3027983e-37
6.0056934e-35
6.0220253e-33
5.4936487e-31
4.4951985e-29
3.3071744e-27
2.1980087e-25
1.3252589e-23
7.211812e-22
3.5154793e-20
1.6715277e-18
1.0840404e-16
8.9184436e-15
3.2633675e-13
3.3077568e-12
1.3851476e-10
1.2003259e-09
3.6421288e-09
4.8691737e-09
7.5913305e-09
7.946751e-10
1.0397087e-11
7.5521194e-12
7.4559415e-12
8.7573119e-08
1.0585454e-07
2.2695266e-08
2.6678171e-08
2.5080348e-08
6.5316833e-09
3.7643996e-09
3.821218e-09
1.55379e-08
1.2908616e-06
3.1533724e-06
2.0761241e-06
1.0557643e-06
6.1225369e-07
5.0087615e-05
9.4143849e-05
2.5297623e-05
3.6758771e-07
4.0346044e-06
2.2565975e-05
6.3938232e-06
1.2024452e-07
1.040993e-07
1.0344755e-07
3.9501927e-08
7.8060907e-09
1.9027902e-09
3.4756004e-09
1.7692466e-08
1.2173427e-09
7.3452918e-15
1.0286357e-14
5.7783133e-15
4.3341688e-16
6.3112351e-18
1.3319087e-19
1.400698e-21
2.1138401e-23
4.742848e-25
6.2812343e-27
6.6212465e-29
5.3697792e-31
3.1762437e-33
1.2855316e-35
3.1619773e-38
2.5445434e-39
7.9503193e-38
4.6519174e-36
2.3929484e-34
1.1482426e-32
5.1562576e-31
2.1736007e-29
8.6657415e-28
3.2671314e-26
1.1412879e-24
3.6108783e-23
9.7411718e-22
2.1423324e-20
3.6506168e-19
4.401242e-18
3.3643938e-17
1.4778588e-16
3.5979463e-16
5.621307e-16
1.1698876e-37
5.5113883e-38
5.7412378e-39
1.0212427e-40
1.038207e-42
1.4084564e-42
8.6495629e-43
3.1522464e-43
6.9755479e-44
1.0391655e-43
1.0115816e-41
2.3537985e-39
4.7553728e-37
9.3312518e-35
1.5072038e-32
1.8751679e-30
1.9269578e-28
1.7024132e-26
1.3247504e-24
9.1768469e-23
5.6280153e-21
3.1598421e-19
2.0477405e-17
1.8184386e-15
8.6835103e-14
1.3795375e-12
3.0176788e-11
4.1682268e-08
2.3870795e-06
7.60846e-06
5.1760775e-06
5.340727e-07
2.0146852e-08
1.0449965e-10
9.6856067e-12
7.5521194e-12
2.43768e-07
3.7233635e-07
3.777199e-07
1.271541e-07
5.6402482e-09
4.308033e-09
3.9945324e-09
3.8097409e-09
9.0533091e-09
4.4941535e-08
2.9339359e-07
1.1375159e-06
1.9556769e-06
1.4997861e-06
9.0954252e-05
9.5913945e-05
1.6383604e-05
1.068024e-07
5.4101615e-07
3.2224712e-07
1.4299525e-06
1.0948298e-07
8.0342187e-10
1.4406149e-09
1.1305363e-09
1.192994e-10
1.6036988e-10
3.3102308e-11
3.9992063e-11
7.3452918e-15
6.9906195e-15
8.0845923e-15
2.1093148e-15
2.2846585e-17
7.625684e-19
1.4430272e-20
1.2925522e-23
1.6321216e-23
1.0841172e-25
1.1993839e-27
9.6775297e-30
5.3406629e-32
2.3273779e-34
1.0249639e-36
3.9009992e-38
2.483094e-37
1.5499847e-35
7.6185262e-34
3.5145519e-32
1.5229925e-30
6.1960309e-29
2.3701717e-27
8.5690818e-26
2.9180071e-24
9.1934137e-23
2.6419836e-21
6.5326554e-20
1.3200256e-18
2.0573318e-17
2.2674707e-16
1.6022003e-15
6.4355683e-15
1.2987729e-14
1.5026834e-14
2.899044e-35
1.4064279e-35
1.5701017e-36
3.0006805e-38
9.9351813e-41
1.7366819e-40
7.3720055e-41
2.4984337e-41
6.1354633e-42
3.94781e-42
1.1012246e-40
3.3411267e-38
6.049201e-36
8.4606271e-34
1.0110116e-31
1.0285953e-29
9.1064319e-28
7.1190271e-26
4.977506e-24
3.0705244e-22
1.6602238e-20
8.0205996e-19
3.9487078e-17
2.3015327e-15
7.4821929e-14
2.9147949e-12
6.2796488e-10
8.6234258e-06
7.3231782e-05
9.7606859e-05
8.8244095e-05
2.5794403e-05
6.7351542e-07
1.0745461e-08
8.9188485e-11
1.1582057e-11
6.1894884e-08
3.7096347e-07
3.777199e-07
3.777199e-07
2.3849279e-07
7.3743336e-09
4.0532063e-09
-3.438187e-09
3.5699064e-08
3.4096909e-07
1.2636934e-06
4.2303938e-05
8.7740809e-05
8.0908202e-05
0.00011032064
9.680038e-05
6.279394e-06
7.8683416e-08
6.2124114e-08
6.9528716e-08
1.1706495e-08
1.5326792e-08
4.3199946e-10
4.1495818e-10
8.8669765e-11
2.9651181e-11
3.7854748e-11
5.068498e-12
2.3479354e-12
6.7746857e-15
5.8394224e-15
3.5161745e-15
3.9259655e-16
1.051274e-17
1.8420778e-19
6.0185311e-38
-5.9886711e-21
2.335973e-23
1.4745363e-26
2.3661121e-28
2.9690056e-30
3.3725282e-32
3.2026549e-34
3.9935304e-36
1.1610433e-37
4.7578184e-35
2.2480683e-33
9.9469055e-32
4.1660744e-30
1.6454136e-28
6.1059005e-27
2.1275075e-25
6.9697689e-24
2.1295711e-22
5.9834715e-21
1.5446873e-19
3.52338e-18
6.7354412e-17
9.6989463e-16
9.143514e-15
5.2197135e-14
1.6074275e-13
1.9740934e-13
7.8269504e-14
6.3658788e-33
3.1980455e-33
3.8493157e-34
7.9054264e-36
3.1509043e-38
7.5668892e-39
4.9425273e-39
2.0360455e-39
4.7357329e-40
1.4762401e-40
3.214189e-39
1.228303e-37
1.3225606e-35
1.8532003e-33
2.2176933e-31
2.2695705e-29
2.0114925e-27
1.5408797e-25
9.5536181e-24
5.7643904e-22
3.1882525e-20
1.9052179e-18
8.1980796e-17
1.9588585e-15
9.7136987e-14
1.552636e-11
9.1937441e-07
6.053343e-05
0.00010451991
0.00010451991
0.00010451991
9.1626719e-05
8.9264364e-06
3.7861143e-08
1.0374138e-09
1.0559007e-10
2.1727418e-10
4.0698876e-09
1.6325171e-07
3.4901267e-07
1.36321e-07
1.8788384e-08
2.284357e-08
1.7201933e-07
5.2482828e-07
2.9716402e-05
9.5091619e-05
0.00031756052
0.00031681023
0.00025866903
0.00010152628
5.5179321e-05
7.9554162e-07
2.9051077e-08
1.1594172e-10
7.7373484e-11
1.8982698e-10
3.9783694e-11
8.4615472e-11
4.998625e-11
1.7012587e-11
8.6223653e-12
3.6302e-12
2.6343349e-12
5.5763795e-13
5.6536381e-14
1.6695849e-14
5.5428042e-15
8.0025533e-16
5.5592758e-17
1.3935848e-20
-1.8044227e-20
-2.2792489e-20
7.3506828e-23
2.0277305e-26
8.3602203e-28
1.5042342e-29
2.7892812e-31
3.9290268e-33
9.1874253e-35
7.2848595e-35
6.2256795e-33
2.6224193e-31
1.0616601e-29
4.0870256e-28
1.4851295e-26
5.065036e-25
1.6168656e-23
4.8068216e-22
1.3072257e-20
3.2046054e-19
7.232667e-18
1.4956673e-16
2.6345707e-15
3.2146089e-14
2.2695065e-13
9.1731903e-13
2.8586018e-12
4.6656652e-12
1.5040781e-12
1.2437541e-30
6.5086606e-31
8.4921307e-32
1.8769172e-33
8.3806171e-36
1.4064445e-38
2.9708007e-37
1.6053535e-37
3.6459917e-38
1.3937323e-38
1.2439155e-37