/*--------------------------------*- C++ -*----------------------------------*\
  =========                 |
  \\      /  F ield         | OpenFOAM: The Open Source CFD Toolbox
   \\    /   O peration     | Website:  https://openfoam.org
    \\  /    A nd           | Version:  9
     \\/     M anipulation  |
\*---------------------------------------------------------------------------*/
FoamFile
{
    format      ascii;
    class       surfaceScalarField;
    location    "0.94";
    object      phi;
}
// * * * * * * * * * * * * * * * * * * * * * * * * * * * * * * * * * * * * * //

dimensions      [0 3 -1 0 0 0 0];

internalField   nonuniform List<scalar> 
19800
(
2.3688792e-06
5.9434167e-05
-6.4730784e-06
6.050235e-05
-1.5249722e-05
6.1601747e-05
-2.3896172e-05
6.2782366e-05
-3.2463533e-05
6.4231362e-05
-4.0745426e-05
6.5628344e-05
-4.874838e-05
6.7212504e-05
-5.6402599e-05
6.8894306e-05
-6.3643412e-05
7.0660897e-05
-7.0434789e-05
7.2509386e-05
-7.6695579e-05
7.4391256e-05
-8.2444096e-05
7.6331591e-05
-8.7796313e-05
7.8200813e-05
-9.2877557e-05
7.9936735e-05
-9.7918379e-05
8.1678558e-05
-0.00010314824
8.3434092e-05
-0.00010897655
8.5336828e-05
-0.00011565479
8.7304479e-05
-0.00012353819
8.9859466e-05
-0.00013303618
9.3049594e-05
-0.00014461188
9.6940133e-05
-0.00015881802
0.00010221089
-0.00017633241
0.00010886502
-0.00019810059
0.00011747253
-0.00022529359
0.00012825538
-0.00025935865
0.00014162144
-0.00030203753
0.00015807878
-0.00035505512
0.00017825209
-0.00042038921
0.00020273521
-0.00050032572
0.00023212299
-0.0005974152
0.00026704908
-0.00071443357
0.00030816376
-0.0008543923
0.00035616186
-0.0010206353
0.00041177733
-0.0012169681
0.00047573666
-0.0014477712
0.00054889826
-0.0017181375
0.00063245828
-0.0020340326
0.00072802828
-0.0024025496
0.00083789993
-0.0028323908
0.00096508169
-0.0033336661
0.0011125092
-0.0039236864
0.0012968467
-0.0046469234
0.001558939
-0.0055338907
0.0018082736
-0.0064216036
0.0015786846
-0.0067321741
0.00025853516
-0.006143799
-0.0016581188
-0.0049841586
-0.0029820683
-0.0034501199
-0.0038692992
-0.0017751988
-0.0042000427
-7.7416724e-05
-0.0041644213
0.001494394
-0.003896615
0.0029440249
-0.0035486606
0.0043497407
-0.0034116215
0.0057134879
-0.0031972788
0.00685766
-0.0027213523
0.0075072774
-0.0018368526
0.0073453155
-0.00041696873
0.0068375225
0.00024573438
0.0063876045
6.0992518e-05
0.0061433798
-0.00035278816
0.0061211662
-0.00050867466
0.0061101872
-0.0003340839
0.0058801024
9.1204035e-06
0.0054408219
0.00050802336
0.0050014365
0.00099582384
0.0046194145
0.0013484297
0.0042695148
0.0015467434
0.0039259742
0.0016522796
0.0035921009
0.0016926595
0.0032745752
0.0016772596
0.0029744701
0.001619942
0.002691485
0.0015329105
0.0024253344
0.0014243486
0.0021754063
0.0013019995
0.0019408253
0.0011741799
0.0017207315
0.0010485511
0.0015144708
0.00093064655
0.0013216308
0.00082314432
0.0011420157
0.0007264916
0.00097559966
0.00063973676
0.00082232964
0.00056200779
0.00068212228
0.00049226212
0.00055480776
0.00042945598
0.000440126
0.00037272518
0.00033774045
0.00032138617
0.00024725893
0.00027489834
0.00016834581
0.00023252219
0.00010053772
0.00019397518
4.2944527e-05
0.00015889216
-5.3735658e-06
0.0001271615
-4.4964707e-05
9.8328154e-05
-7.6017949e-05
7.2545616e-05
-9.8720199e-05
4.9721851e-05
-0.000113261
2.9598667e-05
-0.00011973181
1.1727696e-05
-0.00012179874
-2.9541475e-06
-0.00011784826
-1.4515981e-05
-0.00010876022
-2.4291151e-05
-3.3217441e-05
3.4333006e-06
6.7806899e-05
-5.0650462e-06
6.8998694e-05
-1.3541942e-05
7.0078853e-05
-2.1942204e-05
7.1181244e-05
-3.0254211e-05
7.2542725e-05
-3.8344886e-05
7.371875e-05
-4.6197571e-05
7.5060662e-05
-5.3730553e-05
7.6428503e-05
-6.0899232e-05
7.7825302e-05
-6.76477e-05
7.9258815e-05
-7.3963595e-05
8.0707139e-05
-7.9822246e-05
8.2186208e-05
-8.5366993e-05
8.3746538e-05
-9.0663949e-05
8.5233157e-05
-9.5917869e-05
8.6930612e-05
-0.0001011832
8.8700901e-05
-0.00010670261
9.0855506e-05
-0.00011286002
9.3459819e-05
-0.0001198775
9.6877712e-05
-0.00012819981
0.00010137115
-0.00013836734
0.00010710495
-0.00015073735
0.00011458147
-0.00016610997
0.00012424019
-0.00018537182
0.00013673578
-0.00020968709
0.00015257295
-0.00024033756
0.00017227548
-0.00027888896
0.00019663266
-0.00032708621
0.00022645234
-0.00038693145
0.00026258558
-0.00046070561
0.00030590014
-0.00055093655
0.00035727806
-0.00066037979
0.00041760392
-0.00079201286
0.00048779383
-0.00094905461
0.00056881846
-0.001135036
0.00066171697
-0.0013538819
0.00076774345
-0.0016100597
0.00088863571
-0.0019088652
0.0010268334
-0.0022564451
0.0011854785
-0.0026598439
0.0013684772
-0.0031320064
0.0015846716
-0.0037108401
0.0018756855
-0.0044692801
0.0023173818
-0.0053949909
0.0027339822
-0.0061250641
0.0023087554
-0.0061422393
0.00027571134
-0.0053605056
-0.0024398515
-0.0040954053
-0.0042471712
-0.0025321538
-0.0054325526
-0.0010308772
-0.0057013206
0.00048457817
-0.0056798772
0.0020920111
-0.0055040493
0.0039257969
-0.0053824469
0.0056465178
-0.0051323439
0.0077912238
-0.0053419851
0.0095308185
-0.0044609453
0.0099974112
-0.0023034432
0.010077097
-0.0004966562
0.0098000108
0.00052282026
0.0092632333
0.00059776965
0.0086435534
0.00026689201
0.0081269959
7.8837438e-06
0.0076529156
0.00013999587
0.006920291
0.00074174708
0.006038542
0.0013897747
0.0051973028
0.0018370619
0.0046108322
0.001934902
0.0042113009
0.0019462776
0.0038631737
0.0020004066
0.0035237178
0.0020321166
0.0031990554
0.0020019247
0.0028957344
0.0019232628
0.0026133055
0.0018153396
0.0023495662
0.0016880885
0.0021025883
0.00154898
0.0018707325
0.0014060402
0.0016527773
0.0012665062
0.0014480976
0.0011353241
0.0012565583
0.0010146839
0.0010782981
0.00090475368
0.00091344573
0.00080459143
0.00076205634
0.00071340001
0.00062409613
0.0006302229
0.00049928428
0.00055426607
0.00038726982
0.00048473925
0.00028765123
0.00042100353
0.00020004003
0.00036250763
0.00012363227
0.00030892898
5.806156e-05
0.00025954662
2.8006145e-06
0.0002141543
-4.2719556e-05
0.00017268068
-7.8375542e-05
0.00013398419
-0.00010501819
9.9188395e-05
-0.00012343245
6.8134481e-05
-0.00013443408
4.0600087e-05
-0.00013888976
1.6187904e-05
-0.00013708672
-4.7473054e-06
-0.0001295958
-2.198837e-05
-0.00011739317
-3.6471044e-05
-4.9780296e-05
4.5741596e-06
7.6080958e-05
-3.8391184e-06
7.7411553e-05
-1.2289797e-05
7.8527453e-05
-2.0699511e-05
7.9589806e-05
-2.8851971e-05
8.0695666e-05
-3.6909287e-05
8.1772339e-05
-4.4688445e-05
8.2841082e-05
-5.2173654e-05
8.3909374e-05
-5.928717e-05
8.4938697e-05
-6.5979074e-05
8.5950863e-05
-7.2269636e-05
8.6993568e-05
-7.8130447e-05
8.8047113e-05
-8.3539095e-05
8.9154654e-05
-8.8711423e-05
9.0403094e-05
-9.3646808e-05
9.1866699e-05
-9.8578744e-05
9.363218e-05
-0.00010368948
9.596378e-05
-0.00010907462
9.8845329e-05
-0.00011510052
0.00010290365
-0.00012206424
0.00010833262
-0.00013035606
0.0001153968
-0.00014051017
0.00012473788
-0.00015323936
0.00013697049
-0.00016923352
0.00015273124
-0.00018959877
0.00017294098
-0.00021550682
0.0001981853
-0.00024845275
0.00022958001
-0.00029013922
0.00026814325
-0.00034252898
0.00031498028
-0.00040784767
0.00037121876
-0.0004885778
0.00043800514
-0.00058746489
0.00051649093
-0.00070750151
0.00060783181
-0.0008518747
0.00071318956
-0.0010239362
0.0008337759
-0.0012271985
0.00097100746
-0.0014653805
0.0011268195
-0.0017426619
0.0013041126
-0.0020632385
0.0015060529
-0.0024309412
0.0017361804
-0.002862502
0.0020162341
-0.0034206142
0.0024338
-0.0041787358
0.0030755035
-0.0050091055
0.0035643501
-0.0054762234
0.0027758724
-0.0052062853
5.7743288e-06
-0.0046761229
-0.0029700131
-0.0037040567
-0.00521924
-0.0023785848
-0.0067580257
-0.00093685545
-0.0071430492
0.00039315467
-0.0070098861
0.0018306123
-0.0069415082
0.0036778512
-0.0072296861
0.0058999974
-0.0073544894
0.008230387
-0.0076723734
0.010572424
-0.0068029828
0.012833392
-0.0045644116
0.014077482
-0.0017407466
0.013999808
0.00060049201
0.013430173
0.0011674073
0.012235558
0.0014615092
0.010615481
0.0016279597
0.0090606202
0.0016948549
0.0079332267
0.0018691409
0.0068663098
0.0024566941
0.0056996757
0.0030037012
0.0047896685
0.0028449067
0.0042085721
0.0025273742
0.0037976722
0.0024113059
0.0034261354
0.0024036538
0.0030755507
0.0023525095
0.0027570396
0.0022417718
0.0024695369
0.0021028435
0.0022067384
0.0019508897
0.0019636935
0.0017920251
0.0017370464
0.0016326875
0.001524789
0.0014787642
0.0013261212
0.0013339916
0.0011410293
0.0011997746
0.00096975742
0.0010760249
0.00081234308
0.00096200505
0.00066867507
0.00085706764
0.000538364
0.00076053533
0.00042096388
0.00067166586
0.00031600372
0.00058969746
0.00022298792
0.00051401798
0.00014142885
0.00044406679
7.0965709e-05
0.00037939279
1.1014144e-05
0.00031949724
-3.8912866e-05
0.00026408045
-7.9067209e-05
0.00021283307
-0.00011073783
0.00016565272
-0.00013437073
0.00012282563
-0.00015012364
8.3890567e-05
-0.00015807483
4.8552007e-05
-0.0001595858
1.7690783e-05
-0.00015443036
-9.9136103e-06
-0.00014376663
-3.2655409e-05
-0.00012829731
-5.1938394e-05
-6.9695387e-05
5.519166e-06
8.4354484e-05
-2.9175811e-06
8.5845828e-05
-1.1327978e-05
8.6936393e-05
-1.9695266e-05
8.7956894e-05
-2.7951619e-05
8.8948071e-05
-3.6027356e-05
8.9849399e-05
-4.3812584e-05
9.0622577e-05
-5.1277194e-05
9.1373519e-05
-5.8365548e-05
9.2027754e-05
-6.5048844e-05
9.2630623e-05
-7.1223642e-05
9.3168441e-05
-7.7009614e-05
9.3833689e-05
-8.226446e-05
9.4407879e-05
-8.7183823e-05
9.5323108e-05
-9.1699081e-05
9.6381563e-05
-9.6042627e-05
9.7972661e-05
-0.00010026015
0.00010018049
-0.0001046436
0.00010322891
-0.00010922073
0.00010747894
-0.00011433074
0.00011344227
-0.00012039099
0.00012145933
-0.00012772932
0.00013207776
-0.00013696114
0.00014620328
-0.0001486713
0.00016444352
-0.00016393864
0.00018820995
-0.00018381229
0.00021805967
-0.00020969224
0.00025546271
-0.00024323617
0.00030169174
-0.00028638526
0.00035813144
-0.00034135843
0.00042619049
-0.0004106316
0.00050727726
-0.00049691604
0.00060277691
-0.00060311736
0.00071403405
-0.0007322916
0.00084236145
-0.00088756963
0.00098905219
-0.0010720192
0.0011554599
-0.0012885211
0.0013433239
-0.0015396206
0.001555209
-0.0018264364
0.001792866
-0.0021474579
0.0020572041
-0.0025118255
0.002380604
-0.0029612997
0.0028832743
-0.0035060625
0.0036202655
-0.0039793403
0.0040376281
-0.004092764
0.0028892967
-0.0040416916
-4.5298676e-05
-0.0038860175
-0.0031256874
-0.0031563208
-0.0059489375
-0.0020174465
-0.0078968994
-0.00072434431
-0.0084361503
0.00075038654
-0.0084846163
0.0025126553
-0.0087037778
0.004270845
-0.0089878751
0.0063025812
-0.0093862248
0.0087244646
-0.010094257
0.011150262
-0.0092287822
0.013353007
-0.00676716
0.015102588
-0.003490325
0.01627944
-0.00057635826
0.016045132
0.0014017145
0.014820127
0.0026865144
0.01278222
0.0036658651
0.010606067
0.0038710081
0.0087886135
0.003686598
0.0073118572
0.0039334521
0.0061264732
0.0041890876
0.0050922291
0.0038791477
0.0043200867
0.0032995138
0.003772426
0.002958965
0.0033272851
0.0028487955
0.0029357146
0.0027440855
0.0025947241
0.0025827628
0.0022976481
0.0023999176
0.0020336148
0.0022149244
0.0017943028
0.0020313389
0.0015743401
0.0018526545
0.001370649
0.0016824576
0.0011818396
0.001522798
0.0010075304
0.001374081
0.00084721522
0.0012363411
0.00070060327
0.001108618
0.00056711958
0.00099054986
0.0004461601
0.00088149461
0.0003372751
0.00078054932
0.00023990494
0.00068706538
0.00015356821
0.00060035601
7.789491e-05
0.00051974215
1.2511367e-05
0.00044477494
-4.2984969e-05
0.00037498937
-8.8934814e-05
0.00031002901
-0.00012592474
0.0002498253
-0.00015413442
0.00019386003
-0.0001737053
0.00014239841
-0.00018516225
9.5351738e-05
-0.00018928427
5.2678729e-05
-0.00018618569
1.4599155e-05
-0.00017715319
-1.8948534e-05
-0.00016242326
-4.7390937e-05
-0.00014267832
-7.1677466e-05
-9.3921846e-05
6.8415902e-06
9.2633673e-05
-1.6645721e-06
9.4350688e-05
-1.0252852e-05
9.5525326e-05
-1.8683437e-05
9.6383987e-05
-2.7030932e-05
9.7297069e-05
-3.5198542e-05
9.8013808e-05
-4.309113e-05
9.8514489e-05
-5.0598367e-05
9.8881485e-05
-5.771536e-05
9.9140962e-05
-6.4382088e-05
9.9296349e-05
-7.0595042e-05
9.9381907e-05
-7.616184e-05
9.9399262e-05
-8.1329549e-05
9.9576563e-05
-8.5874628e-05
9.9868773e-05
-8.997406e-05
0.00010047837
-9.3544213e-05
0.0001015415
-9.6822239e-05
0.0001034588
-9.990486e-05
0.00010631017
-0.00010281711
0.00011039054
-0.00010578926
0.00011641643
-0.00010907982
0.00012475161
-0.00011307907
0.00013607789
-0.00011804482
0.00015117096
-0.0001246234
0.0001710236
-0.00013358875
0.00019717515
-0.0001460012
0.00023047348
-0.00016309178
0.00027255703
-0.00018645897
0.00032506076
-0.00021801844
0.00038968973
-0.00025999431
0.0004681664
-0.00031490017
0.0005621854
-0.00038549403
0.00067337177
-0.00047470897
0.00080324796
-0.00058555741
0.00095320912
-0.00072099373
0.0011244891
-0.00088367315
0.0013181409
-0.001075596
0.0015352473
-0.0012974394
0.00177705
-0.0015468707
0.0020422957
-0.0018163339
0.0023266698
-0.0020977647
0.0026620366
-0.0023869458
0.0031724549
-0.0026489403
0.0038822598
-0.0028035209
0.0041922106
-0.0028727927
0.0029585707
-0.0030280831
0.00010999095
-0.0027901472
-0.0033636246
-0.0021465734
-0.0065925118
-0.0012263817
-0.0088170907
0.00010531379
-0.0097678453
0.0018829168
-0.010262219
0.0038010933
-0.010621955
0.0053895907
-0.010576372
0.0070020176
-0.010998652
0.008662055
-0.011754295
0.010425652
-0.01099238
0.012743251
-0.0090847607
0.014688571
-0.0054356457
0.0156981
-0.0015858841
0.015920004
0.001179808
0.014853193
0.0037533243
0.012909245
0.0056098117
0.01097633
0.0058039249
0.0093233373
0.0053395901
0.0077692699
0.0054875198
0.0064580859
0.0055002693
0.0053370565
0.0050001731
0.0044218825
0.0042146867
0.0037309202
0.0036499311
0.0031995753
0.0033801429
0.0027679562
0.0031757062
0.0024089622
0.0029417558
0.0021054371
0.0027034428
0.0018423926
0.002477973
0.0016088381
0.0022648958
0.0013977227
0.0020637703
0.0012049517
0.0018752268
0.0010282698
0.0016994781
0.00086616815
0.0015361815
0.00071779717
0.0013847113
0.00058210499
0.001244309
0.00045832126
0.001114331
0.00034602951
0.00099378593
0.00024470597
0.00088187328
0.00015392628
0.00077784562
7.352021e-05
0.00068076096
3.2039433e-06
0.00059005472
-5.7254557e-05
0.00050523158
-0.00010811047
0.00042584639
-0.00014960056
0.00035152254
-0.00018191739
0.00028214706
-0.0002055143
0.00021745814
-0.00022067937
0.00015756414
-0.00022778575
0.00010245576
-0.00022728434
5.2171133e-05
-0.00021965668
6.9720104e-06
-0.00020572061
-3.288028e-05
-0.00018601142
-6.709877e-05
-0.00016093617
-9.6755529e-05
-0.00012351052
8.0773588e-06
0.00010099183
-4.3514378e-07
0.0001028635
-9.2129947e-06
0.00010430063
-1.7839796e-05
0.00010501349
-2.6393088e-05
0.00010584807
-3.4650225e-05
0.00010627103
-4.2653826e-05
0.00010651932
-5.030477e-05
0.00010652875
-5.7513123e-05
0.00010634752
-6.4203924e-05
0.00010598715
-7.0336378e-05
0.00010551302
-7.5911316e-05
0.00010497524
-8.0799828e-05
0.00010446654
-8.502483e-05
0.00010409194
-8.8582909e-05
0.00010403512
-9.1550113e-05
0.00010450929
-9.375647e-05
0.00010566441
-9.5331561e-05
0.00010788448
-9.6491501e-05
0.00011155212
-9.7064945e-05
0.0001169916
-9.7242342e-05
0.00012492961
-9.7280014e-05
0.00013611714
-9.7511637e-05
0.00015140442
-9.8286412e-05
0.00017179807
-9.9897468e-05
0.00019878573
-0.00010348795
0.00023406617
-0.000110134
0.00027920526
-0.00012136799
0.0003362934
-0.00013907301
0.00040739311
-0.00016549501
0.00049459111
-0.00020321553
0.00059990965
-0.0002550967
0.00072525217
-0.00032419127
0.00087234021
-0.00041363527
0.0010426545
-0.00052648802
0.0012373439
-0.00066537714
0.0014570288
-0.00083202342
0.0017018915
-0.0010261494
0.0019711752
-0.001243443
0.0022595898
-0.0014726908
0.0025559196
-0.0016924126
0.0028817595
-0.0018622534
0.0033422959
-0.0019177237
0.0039377316
-0.0018396722
0.004114161
-0.0017816232
0.0029005228
-0.0018032704
0.00013163704
-0.0014865998
-0.0036802965
-0.00088957515
-0.0071895363
3.6429077e-05
-0.0097430944
0.0013909139
-0.01112233
0.0030883327
-0.011959638
0.0048558817
-0.012389505
0.0064127073
-0.012133197
0.0072786843
-0.011864628
0.0084429423
-0.012918554
0.010340661
-0.012890101
0.011827816
-0.010571915
0.01307178
-0.0066796121
0.014077427
-0.0025915298
0.014595062
0.00066217254
0.013939045
0.0044093402
0.012570244
0.0069786095
0.010833095
0.0075410762
0.0091142359
0.0070584466
0.0076078595
0.0069938939
0.0063400593
0.0067680692
0.0052505662
0.0060896667
0.0043054973
0.0051597558
0.0035503652
0.0044050616
0.0029809782
0.0039495286
0.0025381519
0.0036185333
0.0021794618
0.0033004447
0.0018816062
0.0030012983
0.0016276267
0.0027319542
0.0014052071
0.0024873163
0.0012067117
0.0022622676
0.0010273031
0.0020546383
0.0008639518
0.0018628325
0.00071456615
0.0016855678
0.00057785658
0.0015214183
0.00045256058
0.0013696023
0.00033811814
0.0012287717
0.00023419131
0.001097714
0.00014020252
0.00097586235
5.6382494e-05
0.00086166538
-1.7648085e-05
0.00075479182
-8.2079556e-05
0.00065448687
-0.0001370253
0.00056017907
-0.00018260251
0.00047142183
-0.00021904878
0.00038796608
-0.00024652807
0.00030962505
-0.00026532851
0.00023626041
-0.00027568481
0.0001679241
-0.00027786063
0.00010463372
-0.00027231852
4.6635773e-05
-0.00025949569
-5.849303e-06
-0.00023997346
-5.2404276e-05
-0.00021451338
-9.2557912e-05
-0.00018312088
-0.00012814327
-0.00015945487
9.4433712e-06
0.00010953982
6.1327152e-07
0.00011169082
-8.2595975e-06
0.00011317678
-1.7146723e-05
0.00011389905
-2.5874959e-05
0.00011457732
-3.440812e-05
0.00011480619
-4.2608479e-05
0.0001147162
-5.0450072e-05
0.00011436789
-5.7793171e-05
0.00011368986
-6.4595996e-05
0.00011278816
-7.0755261e-05
0.00011167318
-7.6195789e-05
0.00011041799
-8.0896452e-05
0.00010916639
-8.4795909e-05
0.00010799046
-8.7818519e-05
0.00010705873
-8.988676e-05
0.00010657746
-9.1049071e-05
0.00010682599
-9.1189981e-05
0.00010802656
-9.0320444e-05
0.00011068402
-8.8358466e-05
0.0001150299
-8.5367383e-05
0.00012193965
-8.1244587e-05
0.00013199614
-7.612949e-05
0.00014628919
-7.0280137e-05
0.00016594761
-6.3978662e-05
0.00019248501
-5.7656962e-05
0.0002277458
-5.2398867e-05
0.0002739462
-4.9671785e-05
0.0003335645
-5.1337882e-05
0.00040906015
-5.9701828e-05
0.00050295864
-7.7463774e-05
0.00061767365
-0.00010769215
0.00075547884
-0.00015369098
0.00091833742
-0.00021885468
0.0011078204
-0.0003067043
0.0013251952
-0.00042039351
0.0015707152
-0.00056253889
0.0018440342
-0.00073379706
0.0021424343
-0.00093069779
0.0024564917
-0.0011430824
0.002768304
-0.0013493903
0.0030880676
-0.0015049304
0.0034978377
-0.0015427055
0.0039755101
-0.0014434376
0.0040148947
-0.0012942972
0.0027513806
-0.0010826352
-8.0027314e-05
-0.00059682544
-0.0041661071
0.00014073472
-0.0079270952
0.00122852
-0.010830879
0.0026802485
-0.012574058
0.0040614554
-0.013340844
0.0052138877
-0.013541936
0.0063358846
-0.013255194
0.0074147026
-0.012943448
0.0084444123
-0.013948266
0.0095949188
-0.014040611
0.010847529
-0.011824526
0.011972775
-0.0078048571
0.012683934
-0.0033026902
0.012461148
0.00088495685
0.011861409
0.0050090785
0.010785493
0.0080545256
0.0094882792
0.0088382868
0.0081688165
0.0083779077
0.0068338633
0.0083288445
0.0056867832
0.0079151494
0.0046918513
0.0070845977
0.0038273041
0.0060243007
0.0031430323
0.0050893309
0.002625867
0.0044666936
0.002219684
0.0040247182
0.0018896267
0.0036305041
0.0016158145
0.0032751098
0.001382699
0.0029650678
0.001179163
0.0026908525
0.00099813058
0.0024433009
0.00083486028
0.0022179095
0.00068646018
0.0020112349
0.00055051196
0.0018215164
0.00042577552
0.001646154
0.00031127679
0.0014841015
0.00020675261
0.0013332939
0.00011135611
0.0011931068
2.5727471e-05
0.0010614893
-5.0816773e-05
0.00093821149
-0.00011822594
0.00082220228
-0.00017652306
0.00071278303
-0.00022574685
0.00060940402
-0.00026597249
0.00051164897
-0.00029729591
0.0004192899
-0.00031975435
0.00033208258
-0.00033352843
0.00025003594
-0.00033873734
0.00017313299
-0.00033566405
0.00010155701
-0.00032460568
3.5570198e-05
-0.00030591018
-2.4546295e-05
-0.00028022183
-7.8089747e-05
-0.00024821761
-0.00012456261
-0.00020959568
-0.00016676229
-0.00020272611
1.0947111e-05
0.00011834929
1.8454383e-06
0.00012079578
-7.3269665e-06
0.00012234705
-1.6499224e-05
0.0001230732
-2.5552157e-05
0.00012363284
-3.442887e-05
0.00012368015
-4.2999658e-05
0.00012328471
-5.1100074e-05
0.00012246699
-5.8638108e-05
0.00012122532
-6.5600518e-05
0.00011975089
-7.1837137e-05
0.00011791226
-7.7279593e-05
0.00011586041
-8.1787865e-05
0.00011367422
-8.5342646e-05
0.0001115467
-8.7839934e-05
0.00010955658
-8.9212003e-05
0.00010794894
-8.9241548e-05
0.00010685635
-8.7989852e-05
0.00010677592
-8.5135678e-05
0.0001078295
-8.0682475e-05
0.00011057708
-7.4337553e-05
0.00011559639
-6.5944805e-05
0.00012360334
-5.5374072e-05
0.00013571676
-4.2225223e-05
0.00015279902
-2.6721623e-05
0.00017698313
-9.3664271e-06
0.0002103897
8.6765592e-06
0.00025590059
2.6914253e-05
0.0003153274
4.3377755e-05
0.00039260016
5.5627872e-05
0.00049071032
6.0723233e-05
0.00061257769
5.5276318e-05
0.00076092532
3.5623284e-05
0.000937991
-2.013404e-06
0.001145458
-6.2100602e-05
0.001385282
-0.00014876032
0.0016573723
-0.00026680265
0.0019620752
-0.00041973341
0.0022953667
-0.00060763183
0.0026443906
-0.00082672048
0.0029873909
-0.0010711845
0.003332531
-0.0013267046
0.0037533588
-0.0015470844
0.0041958923
-0.0016559402
0.0041237521
-0.0015683288
0.0026637677
-0.0010906584
-0.00055769864
-0.00055672876
-0.0047000362
0.00027561071
-0.0087594329
0.0017046782
-0.012259947
0.0034214855
-0.014290866
0.0047290784
-0.014648437
0.0053630706
-0.014175929
0.0058721595
-0.013764284
0.0066845337
-0.013755826
0.0074983864
-0.014762121
0.0080868695
-0.014629094
0.0088713695
-0.012609029
0.0096739349
-0.0086074231
0.010221928
-0.0038506862
0.010093498
0.001013391
0.0093999932
0.0057025804
0.0082735251
0.0091809939
0.0072744486
0.0098373599
0.0062997324
0.0093526222
0.0053767713
0.0092518037
0.0044590259
0.0088328948
0.0036480015
0.0078956243
0.0030034832
0.0066688172
0.0025224378
0.0055703743
0.0021359397
0.0048531924
0.0018109217
0.0043497349
0.0015382961
0.0039031278
0.0013073464
0.0035060581
0.0011071568
0.0031652576
0.00093030312
0.0028677069
0.00077167521
0.002601928
0.0006277829
0.002361801
0.0004958966
0.0021431228
0.00037479395
0.0019426201
0.00026307009
0.0017578778
0.00015999949
0.0015871718
6.5435083e-05
0.0014278592
-2.0212334e-05
0.0012787573
-9.7770226e-05
0.0011390494
-0.00016695801
0.0010073982
-0.00022768962
0.00088293042
-0.00027987178
0.00076496249
-0.0003234272
0.0006529571
-0.00035829871
0.00054651974
-0.00038438567
0.0004453798
-0.000401689
0.00034938651
-0.00041029576
0.00025864311
-0.00041011992
0.00017295392
-0.00040142586
9.2870344e-05
-0.00038441519
1.8563857e-05
-0.00035934306
-4.9617281e-05
-0.00032690374
-0.0001105304
-0.00028754876
-0.00016391443
-0.00024087763
-0.00021343145
-0.00025414042
1.2641296e-05
0.00012747953
3.1855549e-06
0.00013024878
-6.3957204e-06
0.00013193003
-1.5996117e-05
0.00013267629
-2.5477089e-05
0.00013311146
-3.4761504e-05
0.00013296327
-4.3682141e-05
0.00013220442
-5.2162211e-05
0.00013094423
-6.0117268e-05
0.00012918021
-6.7313616e-05
0.00012694956
-7.373709e-05
0.00012433602
-7.9202698e-05
0.00012132585
-8.3672527e-05
0.00011814576
-8.6973136e-05
0.00011484826
-8.9034718e-05
0.00011161767
-8.9689949e-05
0.0001086047
-8.8881481e-05
0.00010604864
-8.6174516e-05
0.00010406811
-8.1585194e-05
0.00010323961
-7.4703584e-05
0.00010369648
-6.5201249e-05
0.00010609405
-5.2601832e-05
0.00011100205
-3.6183447e-05
0.00011929792
-1.6125764e-05
0.00013274337
7.9736504e-06
0.00015288455
3.6436299e-05
0.00018192498
6.9120551e-05
0.0002232154
0.00010498077
0.0002794704
0.00014219556
0.00035538879
0.00017803269
0.00045487241
0.00020912272
0.00058148606
0.00023188542
0.00073816446
0.00024229984
0.00092757878
0.00023552208
0.0011522347
0.00020711636
0.0014136855
0.00014993003
0.0017145574
5.9017055e-05
0.0020529881
-7.4733469e-05
0.0024291178
-0.0002576611
0.002827318
-0.00049591615
0.0032256447
-0.00081286926
0.0036494847
-0.0012429612
0.0041834511
-0.0017301928
0.0046831225
-0.0020570464
0.004450606
-0.0020228413
0.0026295632
-0.0018225957
-0.00075794253
-0.0014891781
-0.0050334523
-0.00055300485
-0.0096956047
0.0011903873
-0.014003339
0.0033049736
-0.016405454
0.0048739967
-0.016217462
0.0054099981
-0.014711933
0.0054990342
-0.013853322
0.0059604038
-0.014217196
0.006557437
-0.015359158
0.0068636966
-0.014935354
0.0071558223
-0.012901156
0.0072656178
-0.0087172157
0.0074073316
-0.0039924
0.0073950532
0.0010256696
0.0070607912
0.0060368416
0.0062930583
0.0099487239
0.0053308644
0.010799551
0.0045934249
0.010090062
0.003694676
0.010150554
0.0029201749
0.0096073957
0.0023395895
0.00847621
0.0020152016
0.0069932031
0.0017880041
0.0057975699
0.0015573749
0.005083818
0.0013367168
0.0045703893
0.001140539
0.0040993042
0.00096546003
0.0036811361
0.00080684348
0.0033238734
0.00066257143
0.003011979
0.00053048672
0.0027340147
0.00040850834
0.002483783
0.00029518242
0.0022564517
0.00018946623
0.002048336
9.1011277e-05
0.0018563317
3.5949572e-07
0.0016778224
-8.339623e-05
0.0015116157
-0.00016019545
0.0013555576
-0.00022965126
0.0012085052
-0.00029157341
0.0010693205
-0.00034573932
0.00093709709
-0.00039193357
0.0008111598
-0.00042988306
0.00069090882
-0.00045941254
0.00057605419
-0.00048031009
0.00046628459
-0.00049245018
0.00036152915
-0.00049564479
0.00026184015
-0.00048997372
0.00016728069
-0.00047543766
7.8330542e-05
-0.00045206999
-4.8062955e-06
-0.00042022374
-8.1463191e-05
-0.00038048347
-0.00015027175
-0.00033298966
-0.00021140667
-0.00027741216
-0.00026901097
-0.00031456119
1.4545921e-05
0.00013701558
4.6430515e-06
0.00014015353
-5.4623952e-06
0.00014203702
-1.5609104e-05
0.00014282093
-2.5586615e-05
0.00014308878
-3.54319e-05
0.00014280851
-4.4951246e-05
0.00014172142
-5.3931613e-05
0.00013992445
-6.2263869e-05
0.00013751462
-6.9830132e-05
0.00013451619
-7.6479379e-05
0.00013098528
-8.2157124e-05
0.00012700544
-8.6653366e-05
0.00012264308
-8.9811512e-05
0.00011800585
-9.1568146e-05
0.00011337456
-9.169694e-05
0.00010873405
-9.0029378e-05
0.00010437991
-8.6374616e-05
0.00010041206
-8.0145527e-05
9.7010772e-05
-7.1146841e-05
9.4697325e-05
-5.8745961e-05
9.3690954e-05
-4.2378383e-05
9.4633798e-05
-2.1541386e-05
9.8463172e-05
5.2807947e-06
0.00010592276
3.8564062e-05
0.00011960023
7.9063633e-05
0.00014142493
0.00012737214
0.00017490959
0.0001824527
0.00022439358
0.00024273067
0.00029511203
0.00030536042
0.00039224099
0.00036641045
0.00052043524
0.0004215396
0.00068303758
0.00046629185
0.00088282801
0.00049598089
0.0011225438
0.00050376544
0.0014058993
0.0004839834
0.0017343402
0.00042385394
0.002113118
0.00031469421
0.002538276
0.00014328068
0.0029987298
-0.00011016471
0.0034790893
-0.00051513583
0.0040544575
-0.0011337551
0.0048020726
-0.0018410052
0.0053903706
-0.0023689685
0.0049785686
-0.0026991062
0.0029597021
-0.0029643821
-0.0004926645
-0.0026593217
-0.0053385127
-0.0015443246
-0.010810603
0.00034278871
-0.015890453
0.0026534583
-0.018716126
0.0044704455
-0.01803445
0.0050784893
-0.015319977
0.0050296063
-0.013804443
0.0053221563
-0.014509747
0.0052154101
-0.015252414
0.0052622194
-0.014982163
0.0049913851
-0.012630321
0.0044772523
-0.0082030851
0.0042384564
-0.003753602
0.0043466718
0.00091745015
0.0045195414
0.0058639721
0.0044693585
0.0099989089
0.0034196057
0.011849304
0.0026379888
0.010871675
0.0019075173
0.010881019
0.0012884008
0.010226511
0.0010492349
0.0087153778
0.0010628013
0.0069796351
0.0010473959
0.0058129701
0.00095146927
0.0051797392
0.00083552762
0.0046863297
0.0007203041
0.0042145269
0.00060437453
0.0037970634
0.00049122798
0.0034370182
0.00038290137
0.0031203061
0.0002791667
0.0028377528
0.00018019256
0.0025827617
8.6044008e-05
0.0023506028
-3.0290431e-06
0.0021374113
-8.715205e-05
0.0019404581
-0.00016631128
0.0017569824
-0.00023988063
0.0015851863
-0.00030762423
0.001423302
-0.00036911883
0.0012699991
-0.00042397799
0.0011241803
-0.00047180225
0.0009849215
-0.00051216535
0.00085152343
-0.00054470808
0.00072344778
-0.00056911443
0.00060045874
-0.00058495621
0.00048212624
-0.00059195344
0.00036852386
-0.0005899919
0.00025987725
-0.00057864139
0.00015593175
-0.00055811205
5.7805118e-05
-0.0005281231
-3.4790973e-05
-0.00048908539
-0.00012050158
-0.00044145882
-0.00019789633
-0.00038506192
-0.00026780344
-0.00031976227
-0.00033430951
-0.00038475272
1.6702051e-05
0.00014704434
6.2529593e-06
0.00015060355
-4.4523896e-06
0.0001527396
-1.5204704e-05
0.00015357452
-2.592721e-05
0.00015381226
-3.6430236e-05
0.00015330992
-4.6610768e-05
0.00015190228
-5.6225147e-05
0.00014954093
-6.5185374e-05
0.00014647515
-7.3275219e-05
0.00014260624
-8.0257796e-05
0.00013796993
-8.615789e-05
0.00013290677
-9.0854672e-05
0.00012733924
-9.4072362e-05
0.00012122358
-9.5672564e-05
0.00011497529
-9.5486985e-05
0.00010854731
-9.3194974e-05
0.00010208622
-8.8538681e-05
9.5755435e-05
-8.1336094e-05
8.9807347e-05
-7.0888545e-05
8.4247029e-05
-5.6552188e-05
7.9353153e-05
-3.7426835e-05
7.5510767e-05
-1.2097795e-05
7.31368e-05
2.040275e-05
7.342156e-05
6.2025808e-05
7.7976045e-05
0.00011429241
8.9161231e-05
0.000178324
0.00011088282
0.0002544732
0.00014824614
0.00034106616
0.00020851813
0.000434302
0.00029900476
0.00052938047
0.0004253574
0.00062120735
0.0005912111
0.00070473274
0.00079930168
0.00077513317
0.0010521417
0.00082779533
0.0013532375
0.00085365457
0.0017084833
0.0008409316
0.0021258422
0.00077118127
0.0026080248
0.00062672048
0.0031431892
0.0003617724
0.0037440363
-0.00011313644
0.0045293662
-0.00083267361
0.0055216123
-0.0016372155
0.0061949122
-0.0024121228
0.0057534757
-0.0032289127
0.0037764936
-0.0035053587
-0.00021621613
-0.0029015544
-0.0059423171
-0.001650751
-0.012061409
9.1933569e-05
-0.017633139
0.0021757787
-0.020799971
0.0038715074
-0.019730179
0.0044227857
-0.015871254
0.0042585091
-0.013640168
0.0041855922
-0.014436835
0.0039081593
-0.014974983
0.003152943
-0.014226946
0.0026273792
-0.012104753
0.0016050017
-0.0071807121
0.00090453013
-0.0030531325
0.0010076617
0.00081432109
0.001484728
0.0053869061
0.001850928
0.0096327057
0.0018323333
0.011867896
0.00075925522
0.011944752
7.8565258e-05
0.011561708
-0.00021326188
0.010518338
-4.8985494e-05
0.0085511008