/*--------------------------------*- C++ -*----------------------------------*\
  =========                 |
  \\      /  F ield         | OpenFOAM: The Open Source CFD Toolbox
   \\    /   O peration     | Website:  https://openfoam.org
    \\  /    A nd           | Version:  9
     \\/     M anipulation  |
\*---------------------------------------------------------------------------*/
FoamFile
{
    format      ascii;
    class       volVectorField;
    location    "0.94";
    object      U;
}
// * * * * * * * * * * * * * * * * * * * * * * * * * * * * * * * * * * * * * //

dimensions      [0 1 -1 0 0 0 0];

internalField   nonuniform List<vector> 
10000
(
(0.00091807004 0.005362807 0)
(-0.00032828293 0.0054494025 0)
(-0.00096111246 0.0055565625 0)
(-0.0021022832 0.0056790729 0)
(-0.0027129393 0.0058207256 0)
(-0.0036987135 0.0059706177 0)
(-0.004466728 0.0061344548 0)
(-0.0052490884 0.0063085561 0)
(-0.0059929355 0.0064890872 0)
(-0.0066907062 0.0066725118 0)
(-0.0073429058 0.0068545782 0)
(-0.0079463929 0.0070355838 0)
(-0.0084972902 0.0072030771 0)
(-0.0090163248 0.0073498693 0)
(-0.0095205299 0.0074785041 0)
(-0.010029498 0.0075903663 0)
(-0.010552288 0.0076804723 0)
(-0.011174651 0.0077591022 0)
(-0.011923333 0.007871194 0)
(-0.012757028 0.0080138979 0)
(-0.013785456 0.0081869004 0)
(-0.015064928 0.008451913 0)
(-0.016637976 0.0087989684 0)
(-0.018631796 0.0092683928 0)
(-0.021094765 0.0098728011 0)
(-0.024141654 0.010639473 0)
(-0.027964274 0.011597746 0)
(-0.032727627 0.01278151 0)
(-0.0386204 0.014223368 0)
(-0.045856409 0.015960423 0)
(-0.054673908 0.018038989 0)
(-0.065340086 0.02051135 0)
(-0.078152398 0.023433586 0)
(-0.093424817 0.02685719 0)
(-0.11150034 0.030820775 0)
(-0.13278207 0.035364941 0)
(-0.15774628 0.040551441 0)
(-0.1869196 0.046469654 0)
(-0.22089607 0.05325485 0)
(-0.26062643 0.061075971 0)
(-0.3071881 0.070106825 0)
(-0.36043759 0.081358674 0)
(-0.42244011 0.096507461 0)
(-0.50576152 0.10769622 0)
(-0.61197755 0.085316132 0)
(-0.68342707 -0.0017284312 0)
(-0.66090554 -0.12425299 0)
(-0.5608392 -0.21782031 0)
(-0.42037381 -0.28383282 0)
(-0.25803056 -0.30830306 0)
(-0.091800325 -0.30308514 0)
(0.075111995 -0.28660312 0)
(0.22411519 -0.25786399 0)
(0.36469615 -0.24669894 0)
(0.50509127 -0.22289704 0)
(0.63673448 -0.1915511 0)
(0.72767423 -0.14921584 0)
(0.75147293 -0.063493371 0)
(0.71298899 -0.017691711 0)
(0.65916357 -0.035572622 0)
(0.62369268 -0.066378974 0)
(0.61317453 -0.058978689 0)
(0.61728467 -0.039987898 0)
(0.60666076 -0.02763966 0)
(0.56797601 0.0080291494 0)
(0.51958859 0.060159858 0)
(0.47929623 0.10329247 0)
(0.44422783 0.12722888 0)
(0.40945322 0.13882594 0)
(0.37524706 0.14391657 0)
(0.34258831 0.14383975 0)
(0.31170933 0.13954456 0)
(0.28258217 0.13216426 0)
(0.25516531 0.12253814 0)
(0.22941206 0.1114323 0)
(0.20524029 0.099678169 0)
(0.1825525 0.088064511 0)
(0.16127077 0.077179655 0)
(0.14134115 0.067324027 0)
(0.12274888 0.058565621 0)
(0.10547468 0.050824632 0)
(0.08949841 0.044011114 0)
(0.07484252 0.0380163 0)
(0.061495139 0.032725011 0)
(0.049428933 0.028040571 0)
(0.038600721 0.023885703 0)
(0.028977316 0.020199241 0)
(0.02052911 0.016908829 0)
(0.013221709 0.013975427 0)
(0.0069811854 0.011316299 0)
(0.0017185562 0.00891321 0)
(-0.0026588858 0.006746385 0)
(-0.006192584 0.0048680247 0)
(-0.0088706476 0.0032686055 0)
(-0.010744685 0.0019186202 0)
(-0.011778231 0.00076289918 0)
(-0.012010996 -0.00027369774 0)
(-0.012096015 -0.0010909841 0)
(-0.012193366 -0.0017291583 0)
(-0.0088593277 -0.0022918559 0)
(0.00099864736 0.006591037 0)
(-0.00019145573 0.0067150088 0)
(-0.00080133714 0.0068421076 0)
(-0.0019118222 0.0069702879 0)
(-0.0025031056 0.0071330499 0)
(-0.003470602 0.0072834702 0)
(-0.0042183053 0.0074534578 0)
(-0.0049864155 0.0076307916 0)
(-0.0057210351 0.0078147513 0)
(-0.0064148503 0.0080061486 0)
(-0.007064434 0.0081979436 0)
(-0.0076736589 0.0083962953 0)
(-0.008244656 0.0085917539 0)
(-0.0087848122 0.0087734101 0)
(-0.0093034213 0.008966895 0)
(-0.009827213 0.0091531472 0)
(-0.010358405 0.0093567564 0)
(-0.010934673 0.0095924618 0)
(-0.011596044 0.0099051278 0)
(-0.012347783 0.010314488 0)
(-0.013240433 0.010832301 0)
(-0.014343541 0.011518146 0)
(-0.015718587 0.012393045 0)
(-0.017473447 0.013522971 0)
(-0.019668472 0.014937393 0)
(-0.022398469 0.016685115 0)
(-0.025842092 0.018829514 0)
(-0.030156132 0.021443461 0)
(-0.035530577 0.024599706 0)
(-0.042179852 0.028370276 0)
(-0.050344141 0.032826731 0)
(-0.060288683 0.038038405 0)
(-0.072301474 0.044079457 0)
(-0.08668986 0.051034958 0)
(-0.10378463 0.058999485 0)
(-0.12395216 0.06808929 0)
(-0.14761537 0.078462415 0)
(-0.1752311 0.090328916 0)
(-0.20728855 0.10397748 0)
(-0.24468467 0.11977576 0)
(-0.2883143 0.13810398 0)
(-0.33817817 0.16117793 0)
(-0.40085718 0.19496307 0)
(-0.49218713 0.22992954 0)
(-0.59688246 0.20488594 0)
(-0.6440252 0.038724653 0)
(-0.58658291 -0.21316729 0)
(-0.47110422 -0.38003315 0)
(-0.33214384 -0.48359153 0)
(-0.17397933 -0.51396467 0)
(-0.027966747 -0.51630837 0)
(0.12453684 -0.48218359 0)
(0.29767245 -0.44540772 0)
(0.47628537 -0.41156406 0)
(0.67117887 -0.4087839 0)
(0.87661689 -0.33144109 0)
(1.0008693 -0.17047735 0)
(1.0113303 -0.015019774 0)
(0.99236957 0.055598094 0)
(0.96158923 0.039176438 0)
(0.90334017 -0.0258442 0)
(0.83659995 -0.0624713 0)
(0.79159294 -0.032993627 0)
(0.73952087 0.03260229 0)
(0.64854275 0.094139621 0)
(0.5530036 0.13493039 0)
(0.48394785 0.15741131 0)
(0.43881487 0.17174966 0)
(0.40339907 0.18097967 0)
(0.3690818 0.18403896 0)
(0.33547479 0.18141293 0)
(0.30398587 0.17474674 0)
(0.27477418 0.16527822 0)
(0.24753046 0.15378122 0)
(0.22204636 0.14101493 0)
(0.19815316 0.12779517 0)
(0.17569862 0.11485585 0)
(0.15458834 0.1027116 0)
(0.13478902 0.091597509 0)
(0.1163121 0.081537653 0)
(0.099168919 0.072425191 0)
(0.083369607 0.06417315 0)
(0.068922861 0.056679989 0)
(0.055807678 0.04985102 0)
(0.043995547 0.043605479 0)
(0.033443244 0.037879669 0)
(0.024096485 0.032622821 0)
(0.015923647 0.02778015 0)
(0.0088606334 0.023308746 0)
(0.0028375166 0.019158004 0)
(-0.0021826225 0.015329266 0)
(-0.00622495 0.01184104 0)
(-0.0093149242 0.0087133088 0)
(-0.011543687 0.0059321169 0)
(-0.013030137 0.0034687977 0)
(-0.013786648 0.0013077897 0)
(-0.013731751 -0.000614413 0)
(-0.013449076 -0.0021821158 0)
(-0.013234301 -0.0034564599 0)
(-0.0094877448 -0.0046182431 0)
(0.0010958487 0.0070049276 0)
(-6.2957895e-05 0.0071260256 0)
(-0.00069220559 0.0072314288 0)
(-0.0017852418 0.0073333493 0)
(-0.0023676727 0.0074532326 0)
(-0.0033338747 0.0075584221 0)
(-0.0040696674 0.0076736059 0)
(-0.0048340697 0.0077887906 0)
(-0.00556107 0.0079041289 0)
(-0.0062498936 0.0080208587 0)
(-0.0068948808 0.0081422633 0)
(-0.0074942623 0.0082626275 0)
(-0.0080637375 0.0083969614 0)
(-0.0085868408 0.0085318138 0)
(-0.0090888172 0.0086945312 0)
(-0.009590833 0.0088740856 0)
(-0.010068738 0.0091076466 0)
(-0.010584418 0.0093935212 0)
(-0.011160491 0.0097785779 0)
(-0.011791265 0.010286686 0)
(-0.012541488 0.010940348 0)
(-0.01345982 0.011791371 0)
(-0.014580556 0.012897842 0)
(-0.016024091 0.014325598 0)
(-0.0178558 0.016144599 0)
(-0.020151318 0.018413557 0)
(-0.02307638 0.021228572 0)
(-0.026783668 0.024682532 0)
(-0.031459247 0.028874175 0)
(-0.037312233 0.03390444 0)
(-0.044577564 0.03987684 0)
(-0.05351759 0.046896192 0)
(-0.064419918 0.055067745 0)
(-0.077594063 0.064498205 0)
(-0.093364561 0.075301641 0)
(-0.11206668 0.087615947 0)
(-0.1340699 0.10163392 0)
(-0.15975587 0.11763702 0)
(-0.18941898 0.13598065 0)
(-0.22368462 0.15707925 0)
(-0.26340305 0.18228758 0)
(-0.30880664 0.2179794 0)
(-0.36955191 0.27355349 0)
(-0.46377165 0.32113934 0)
(-0.55459045 0.25646463 0)
(-0.5576173 0.0070297701 0)
(-0.49080327 -0.28326057 0)
(-0.42186548 -0.48129723 0)
(-0.30495011 -0.61540147 0)
(-0.16175367 -0.64854182 0)
(-0.030278646 -0.63387166 0)
(0.10507541 -0.61619011 0)
(0.26912251 -0.62543437 0)
(0.47298685 -0.61387072 0)
(0.70519952 -0.64208157 0)
(0.94209745 -0.55516393 0)
(1.1760392 -0.31976681 0)
(1.362733 -0.080724459 0)
(1.4274326 0.077445311 0)
(1.391264 0.099865857 0)
(1.3043529 0.091028539 0)
(1.1548661 0.073443793 0)
(0.97281972 0.068696271 0)
(0.83914376 0.11312549 0)
(0.74235651 0.18860085 0)
(0.62704612 0.24006896 0)
(0.51450166 0.23497305 0)
(0.44235389 0.22046368 0)
(0.39860244 0.22024533 0)
(0.36095702 0.22276268 0)
(0.32422748 0.21894182 0)
(0.29058229 0.20963004 0)
(0.26048171 0.19742552 0)
(0.23313023 0.18351756 0)
(0.20793517 0.16861245 0)
(0.18451843 0.15346567 0)
(0.16261053 0.13874797 0)
(0.14207784 0.12489677 0)
(0.12289764 0.11208801 0)
(0.10508895 0.10031414 0)
(0.08866778 0.089484189 0)
(0.073635992 0.079531409 0)
(0.059964794 0.070376231 0)
(0.04760744 0.061953867 0)
(0.03651742 0.054201517 0)
(0.026648047 0.047068337 0)
(0.017947844 0.040505321 0)
(0.010373295 0.034477837 0)
(0.0038727961 0.028933238 0)
(-0.0015960241 0.023865887 0)
(-0.0060713434 0.019252876 0)
(-0.0096449749 0.015066386 0)
(-0.012393729 0.011251136 0)
(-0.014348168 0.0077860329 0)
(-0.01555123 0.0046695829 0)
(-0.015996498 0.0018976761 0)
(-0.015633352 -0.00048130908 0)
(-0.015034053 -0.002476911 0)
(-0.014521597 -0.0041628365 0)
(-0.010301644 -0.0057155601 0)
(0.001182695 0.0081017195 0)
(3.6033385e-05 0.0082456952 0)
(-0.00059929381 0.0083512673 0)
(-0.0016926415 0.0084531349 0)
(-0.0022824627 0.0085502648 0)
(-0.0032458456 0.0086435009 0)
(-0.0039806902 0.0087289534 0)
(-0.0047449065 0.0088143686 0)
(-0.0054729675 0.0088917042 0)
(-0.0061560183 0.0089643009 0)
(-0.0067981664 0.0090374583 0)
(-0.0073891295 0.0091152804 0)
(-0.0079402257 0.0091945602 0)
(-0.0084468096 0.0092976734 0)
(-0.0089162959 0.0094151935 0)
(-0.0093653418 0.0095801345 0)
(-0.0097864897 0.0098047617 0)
(-0.010207955 0.010094447 0)
(-0.010644919 0.010511746 0)
(-0.011125998 0.011082681 0)
(-0.011674685 0.011832683 0)
(-0.012326415 0.01283411 0)
(-0.013127138 0.014155095 0)
(-0.014173755 0.015855264 0)
(-0.015537748 0.018052811 0)
(-0.01728144 0.020804361 0)
(-0.019549814 0.024238108 0)
(-0.022495348 0.028467638 0)
(-0.02629935 0.033617458 0)
(-0.031170771 0.039813876 0)
(-0.037344587 0.047184411 0)
(-0.045081333 0.055856809 0)
(-0.054662985 0.065958384 0)
(-0.066388774 0.077616171 0)
(-0.080568427 0.090960534 0)
(-0.097506302 0.10613608 0)
(-0.11751053 0.12333585 0)
(-0.14087554 0.14284787 0)
(-0.16765085 0.1649439 0)
(-0.19791194 0.18989185 0)
(-0.23209276 0.22053559 0)
(-0.26943972 0.26775227 0)
(-0.31534368 0.33895022 0)
(-0.38162459 0.38497687 0)
(-0.43100561 0.28269302 0)
(-0.41582321 -0.008145417 0)
(-0.3984359 -0.3139815 0)
(-0.35859525 -0.57000323 0)
(-0.25441976 -0.74454267 0)
(-0.14291548 -0.78342538 0)
(-0.0055555253 -0.76669877 0)
(0.16138045 -0.77743464 0)
(0.33817016 -0.81836772 0)
(0.52562551 -0.85992787 0)
(0.74698121 -0.90795769 0)
(0.98810923 -0.81622453 0)
(1.2247454 -0.58063215 0)
(1.4343209 -0.26661313 0)
(1.5899618 0.014097793 0)
(1.6442573 0.13915902 0)
(1.5769434 0.20505033 0)
(1.4064869 0.25827026 0)
(1.1648024 0.27471198 0)
(0.94804919 0.27294602 0)
(0.79919797 0.31456364 0)
(0.67168345 0.35645501 0)
(0.55257799 0.33354518 0)
(0.46156883 0.28692068 0)
(0.40041305 0.26499105 0)
(0.35350995 0.26108126 0)
(0.311738 0.25447804 0)
(0.27506544 0.24139341 0)
(0.24351194 0.22555736 0)
(0.21573804 0.20883183 0)
(0.19072839 0.19174331 0)
(0.16786435 0.17482236 0)
(0.14673371 0.15856869 0)
(0.12713349 0.14328444 0)
(0.10899442 0.12906426 0)
(0.092283249 0.11590042 0)
(0.076964535 0.10372346 0)
(0.062991329 0.092486441 0)
(0.05030177 0.082129278 0)
(0.038836147 0.072577842 0)
(0.028546805 0.063769952 0)
(0.019388638 0.055645817 0)
(0.011313426 0.048140181 0)
(0.0042843671 0.041202066 0)
(-0.0017353501 0.034776909 0)
(-0.0067864025 0.028820228 0)
(-0.010918526 0.02328139 0)
(-0.014164933 0.018127822 0)
(-0.016536513 0.013376894 0)
(-0.01807533 0.0090527937 0)
(-0.018869845 0.0051625557 0)
(-0.018884438 0.0016914501 0)
(-0.018098218 -0.0013193421 0)
(-0.017114071 -0.0038637606 0)
(-0.016215185 -0.0060343655 0)
(-0.011387325 -0.0080266927 0)
(0.0013040932 0.0088599948 0)
(0.00017614745 0.0090263255 0)
(-0.00048590736 0.009144197 0)
(-0.0015897427 0.0092455309 0)
(-0.0021863781 0.0093405855 0)
(-0.0031579796 0.0094262185 0)
(-0.0039011773 0.0094919342 0)
(-0.0046706081 0.009548988 0)
(-0.0054064432 0.0095950276 0)
(-0.0060955708 0.00963404 0)
(-0.006730554 0.0096644372 0)
(-0.0073183128 0.0097007834 0)
(-0.0078551452 0.0097363847 0)
(-0.0083325937 0.0097994682 0)
(-0.008764089 0.0098836397 0)
(-0.0091501605 0.010018746 0)
(-0.0094943192 0.010227556 0)
(-0.0098076062 0.010526154 0)
(-0.010092532 0.010947526 0)
(-0.010381783 0.011552872 0)
(-0.010694143 0.01237725 0)
(-0.0110356 0.01348134 0)
(-0.011454318 0.014950793 0)
(-0.012017951 0.016865015 0)
(-0.012804639 0.01937178 0)
(-0.013870777 0.022536601 0)
(-0.015324588 0.026518834 0)
(-0.017320887 0.031462278 0)
(-0.020033864 0.037521422 0)
(-0.023672815 0.04485255 0)
(-0.02847544 0.053610462 0)
(-0.034707044 0.063945297 0)
(-0.042654139 0.076000612 0)
(-0.052617614 0.089913347 0)
(-0.064900532 0.10581345 0)
(-0.079780953 0.12382855 0)
(-0.09750246 0.14411231 0)
(-0.11826119 0.16687621 0)
(-0.14188801 0.19216799 0)
(-0.16781741 0.21987845 0)
(-0.19570551 0.25356041 0)
(-0.22313506 0.30609234 0)
(-0.24802967 0.38116183 0)
(-0.2772345 0.41829518 0)
(-0.30015267 0.29553057 0)
(-0.30415192 -0.001083276 0)
(-0.2954309 -0.32913762 0)
(-0.24781927 -0.63420954 0)
(-0.16630757 -0.84320307 0)
(-0.070138437 -0.91061184 0)
(0.091515719 -0.9360187 0)
(0.28737867 -0.96712321 0)
(0.47036733 -0.98513394 0)
(0.6227277 -1.0392706 0)
(0.77110582 -1.1138097 0)
(0.94518324 -1.0231773 0)
(1.1543676 -0.80162207 0)
(1.3718215 -0.46034096 0)
(1.5393432 -0.12365277 0)
(1.6167413 0.12386035 0)
(1.5735788 0.32505112 0)
(1.4089188 0.46831795 0)
(1.1899036 0.49089643 0)
(1.0018559 0.45270134 0)
(0.85074852 0.46644791 0)
(0.70951292 0.4825925 0)
(0.58267123 0.44337989 0)
(0.4796083 0.37359758 0)
(0.40160776 0.32745907 0)
(0.34333951 0.30944613 0)
(0.29619183 0.29502704 0)
(0.25697899 0.27572476 0)
(0.22436098 0.25487156 0)
(0.19641322 0.23447232 0)
(0.17179299 0.21471342 0)
(0.1496931 0.19576471 0)
(0.12957826 0.17785334 0)
(0.11115239 0.16109666 0)
(0.094262635 0.14549887 0)
(0.07878177 0.13104275 0)
(0.064602065 0.11764638 0)
(0.05166932 0.10526034 0)
(0.039893517 0.093807751 0)
(0.029224367 0.083194758 0)
(0.019640208 0.073348895 0)
(0.011102801 0.064184741 0)
(0.0035841328 0.055636065 0)
(-0.0029337658 0.047655711 0)
(-0.008481544 0.040195766 0)
(-0.013082695 0.033218565 0)
(-0.016757165 0.026712095 0)
(-0.019537275 0.020680026 0)
(-0.021455823 0.01511605 0)
(-0.022554602 0.010013473 0)
(-0.022900764 0.0053697664 0)
(-0.022458677 0.001210152 0)
(-0.021213314 -0.0024598433 0)
(-0.019747425 -0.0055935328 0)
(-0.018350683 -0.0082843346 0)
(-0.012788502 -0.010738121 0)
(0.0014233791 0.0097038497 0)
(0.00030197685 0.0098765777 0)
(-0.00037539806 0.010005956 0)
(-0.0014920899 0.01008772 0)
(-0.0021057998 0.010177045 0)
(-0.0030910701 0.010232911 0)
(-0.0038553007 0.010267742 0)
(-0.0046374517 0.010283385 0)
(-0.0053799482 0.010285593 0)
(-0.0060753906 0.010273987 0)
(-0.0067169342 0.010253661 0)
(-0.007298474 0.010225877 0)
(-0.0078175077 0.010207213 0)
(-0.0082695197 0.010203643 0)
(-0.0086606189 0.0102307 0)
(-0.0089777115 0.010309697 0)
(-0.009227032 0.010463757 0)
(-0.0094282883 0.010721169 0)
(-0.0095507925 0.011112085 0)
(-0.0096210064 0.011690188 0)
(-0.0096658849 0.01251033 0)
(-0.0096696257 0.013643772 0)
(-0.0096590695 0.015170752 0)
(-0.0096649279 0.01719215 0)
(-0.0097811298 0.01986326 0)
(-0.010053678 0.023304156 0)
(-0.010544964 0.027677653 0)
(-0.011411225 0.033170855 0)
(-0.012821574 0.039970757 0)
(-0.014986144 0.048267283 0)
(-0.018147631 0.058245552 0)
(-0.022580599 0.070081837 0)
(-0.028583432 0.08393802 0)
(-0.036470725 0.099958947 0)
(-0.046561408 0.11826715 0)
(-0.059144352 0.138952 0)
(-0.074447889 0.16208715 0)
(-0.092628905 0.18771533 0)
(-0.11345931 0.21553233 0)
(-0.13597181 0.24480012 0)
(-0.15914113 0.27841249 0)
(-0.17971956 0.32831011 0)
(-0.18983383 0.39578489 0)
(-0.18983493 0.42259414 0)
(-0.18929154 0.30296353 0)
(-0.18916522 0.021033903 0)
(-0.16819004 -0.34195349 0)
(-0.11997162 -0.68580553 0)
(-0.04824966 -0.92843711 0)
(0.058728332 -1.0473256 0)
(0.22144887 -1.1227985 0)
(0.40037984 -1.1665907 0)
(0.57067471 -1.1441872 0)
(0.69026865 -1.1452693 0)
(0.78093944 -1.2418675 0)
(0.9260143 -1.2104724 0)
(1.1023222 -0.99546171 0)
(1.2545536 -0.61206997 0)
(1.3656117 -0.20757919 0)
(1.4477494 0.093771453 0)
(1.4623508 0.4083901 0)
(1.35202 0.63774183 0)
(1.1730435 0.67454377 0)
(0.99247737 0.62163982 0)
(0.82980439 0.62266242 0)
(0.6913452 0.61451092 0)
(0.57508792 0.55618741 0)
(0.4709063 0.46951341 0)
(0.38542384 0.40279169 0)
(0.32240246 0.36648421 0)
(0.27338406 0.33982095 0)
(0.23375033 0.31225005 0)
(0.20153773 0.28538282 0)
(0.17439137 0.2606511 0)
(0.15080919 0.23777493 0)
(0.1299221 0.21648676 0)
(0.11112942 0.19669803 0)
(0.094065823 0.17833388 0)
(0.078503368 0.16131211 0)
(0.064240327 0.14554062 0)
(0.051157912 0.13093188 0)
(0.039214686 0.11739309 0)
(0.0283142 0.10481141 0)
(0.018437652 0.093116569 0)
(0.0095684731 0.082193366 0)
(0.0016756257 0.071978793 0)
(-0.0052357961 0.062408011 0)
(-0.011183225 0.053431871 0)
(-0.016195057 0.0450099 0)
(-0.020282509 0.037112717 0)
(-0.023461595 0.02972122 0)
(-0.025761114 0.022820881 0)
(-0.027202106 0.01640665 0)
(-0.02781978 0.010485266 0)
(-0.027661393 0.0050724526 0)
(-0.026696192 0.00019070247 0)
(-0.024928437 -0.0041295334 0)
(-0.02292307 -0.0078457869 0)
(-0.020926953 -0.011096562 0)
(-0.014515815 -0.014010723 0)
(0.0015612717 0.010538607 0)
(0.000450866 0.010738212 0)
(-0.00026585738 0.010883547 0)
(-0.001409229 0.010956132 0)
(-0.0020420811 0.011032181 0)
(-0.0030587579 0.011067781 0)
(-0.0038435755 0.011074627 0)
(-0.0046428227 0.011050482 0)
(-0.0054015929 0.011001267 0)
(-0.0061090506 0.010935646 0)
(-0.0067561096 0.010854196 0)
(-0.0073368097 0.010762756 0)
(-0.0078436682 0.01067417 0)
(-0.0082694847 0.010596583 0)
(-0.0086121903 0.010547271 0)
(-0.0088645738 0.010549262 0)
(-0.0090217778 0.01062194 0)
(-0.009089732 0.010795647 0)
(-0.0090464638 0.011118702 0)
(-0.008898227 0.011613963 0)
(-0.0086495611 0.012364513 0)
(-0.0082807649 0.013437895 0)
(-0.007810538 0.014927994 0)
(-0.0072279548 0.016943828 0)
(-0.0065920762 0.019632864 0)
(-0.0059604077 0.023179369 0)
(-0.0053641668 0.027761184 0)
(-0.0049324888 0.033612736 0)
(-0.004837263 0.04095702 0)
(-0.0052906407 0.05002318 0)
(-0.0065445809 0.061032491 0)
(-0.0088902508 0.074192368 0)
(-0.012649499 0.089687207 0)
(-0.018162634 0.10767147 0)
(-0.025787453 0.12826541 0)
(-0.035868121 0.15151409 0)
(-0.048704759 0.17740783 0)
(-0.064551983 0.20578453 0)
(-0.08335587 0.23592845 0)
(-0.10417085 0.26639381 0)
(-0.12586516 0.29874063 0)
(-0.14629225 0.34229213 0)
(-0.15663422 0.39621631 0)
(-0.15025458 0.40913336 0)
(-0.14009913 0.29221633 0)
(-0.1316462 0.014722618 0)
(-0.088859757 -0.37854144 0)
(-0.026640528 -0.74835895 0)
(0.061249928 -1.0196263 0)
(0.19468752 -1.1821379 0)
(0.345218 -1.2739729 0)
(0.46811969 -1.3162182 0)
(0.57472238 -1.2865216 0)
(0.69029184 -1.2454682 0)
(0.79523058 -1.3462575 0)
(0.89254405 -1.362436 0)
(1.0090625 -1.1429756 0)
(1.13976 -0.74250709 0)
(1.2471124 -0.30904128 0)
(1.2772321 0.058550346 0)
(1.242315 0.45974859 0)
(1.1540841 0.74979727 0)
(1.0200884 0.81993946 0)
(0.87892276 0.77518086 0)
(0.74421187 0.77174537 0)
(0.62149316 0.73861911 0)
(0.51573466 0.6613466 0)
(0.41808137 0.56237529 0)
(0.3407036 0.4780269 0)
(0.28483811 0.42303105 0)
(0.23995074 0.38349512 0)
(0.20332884 0.3474968 0)
(0.1737746 0.31456308 0)
(0.14887256 0.2854603 0)
(0.12726899 0.25943964 0)
(0.10819728 0.23576648 0)
(0.091100765 0.21407726 0)
(0.075607776 0.19411892 0)
(0.061455344 0.17573531 0)
(0.048452776 0.15872214 0)
(0.036519876 0.14299165 0)
(0.02559459 0.12837609 0)
(0.015628611 0.11477868 0)
(0.006593871 0.10207638 0)
(-0.0015200594 0.090177082 0)
(-0.0087077396 0.079013076 0)
(-0.014978037 0.068513421 0)
(-0.020338001 0.058620799 0)
(-0.024800147 0.049293578 0)
(-0.028364519 0.040500621 0)
(-0.031038363 0.032223154 0)
(-0.032839069 0.024453422 0)
(-0.03377595 0.017190849 0)
(-0.033872472 0.010452352 0)
(-0.033169764 0.0042577772 0)
(-0.031634798 -0.0013658305 0)
(-0.029272295 -0.0063699491 0)
(-0.026669435 -0.010689858 0)
(-0.023974904 -0.014562979 0)
(-0.016604887 -0.017943056 0)
(0.0017186879 0.011413321 0)
(0.00060750494 0.011640297 0)
(-0.00014899733 0.011790723 0)
(-0.0013330487 0.011866301 0)
(-0.001996219 0.011923647 0)
(-0.0030397277 0.011942794 0)
(-0.0038643337 0.01192038 0)
(-0.0046995722 0.011864647 0)
(-0.0054793169 0.011759855 0)
(-0.0062016911 0.011631318 0)
(-0.0068626509 0.011480217 0)
(-0.0074451022 0.011313035 0)
(-0.0079431489 0.011140023 0)
(-0.0083481564 0.010974713 0)
(-0.008651159 0.010829431 0)
(-0.0088378708 0.010726087 0)
(-0.0089062396 0.010686347 0)
(-0.0088463984 0.010748054 0)
(-0.0086376434 0.010938852 0)
(-0.0082701246 0.011300912 0)
(-0.007728351 0.01190797 0)
(-0.0069861428 0.0128235 0)
(-0.0060302508 0.014158838 0)
(-0.0048354426 0.01601284 0)
(-0.0034159275 0.018563607 0)
(-0.0017957806 0.022018918 0)
(1.4270171e-05 0.026626596 0)
(0.001910945 0.032600274 0)
(0.0037177661 0.040256717 0)
(0.0052222156 0.049872245 0)
(0.0061591076 0.061709751 0)
(0.0062125226 0.076019746 0)
(0.0050253057 0.093009239 0)
(0.002222034 0.11283459 0)
(-0.0026212829 0.13565662 0)
(-0.0099457671 0.16147978 0)
(-0.020212028 0.19031148 0)
(-0.033924043 0.22181297 0)
(-0.051406113 0.25487846 0)
(-0.072112239 0.28746855 0)
(-0.095576464 0.3202531 0)
(-0.1228272 0.36058575 0)
(-0.14886138 0.40511572 0)
(-0.1624849 0.40480776 0)
(-0.16441268 0.27604612 0)
(-0.14238863 -0.025085975 0)
(-0.083427334 -0.43563603 0)
(-0.024169631 -0.8212705 0)
(0.088206916 -1.1361728 0)
(0.25944866 -1.3279718 0)
(0.42558796 -1.3937215 0)
(0.51886056 -1.3926336 0)
(0.55620577 -1.3661548 0)
(0.62347649 -1.3458435 0)
(0.71140417 -1.4462888 0)
(0.77629131 -1.4417766 0)
(0.83693517 -1.2371613 0)
(0.91759077 -0.84176031 0)
(0.99856141 -0.37524218 0)
(1.0365801 0.088828879 0)
(1.0022437 0.53727739 0)
(0.90568814 0.86369175 0)
(0.77953684 0.93914224 0)
(0.67265499 0.89267887 0)
(0.58096742 0.88535198 0)
(0.49076545 0.83997808 0)
(0.40036403 0.75204327 0)
(0.322189 0.6404798 0)
(0.26990241 0.53831474 0)
(0.23108432 0.46918402 0)
(0.19563845 0.42068765 0)
(0.16559299 0.37809549 0)
(0.1410062 0.34011294 0)
(0.1198002 0.30732751 0)
(0.10113359 0.27859749 0)
(0.08449732 0.25282527 0)
(0.069487294 0.22946819 0)
(0.055792602 0.20813006 0)
(0.043193643 0.18856309 0)
(0.031559526 0.17050535 0)
(0.020852112 0.15382888 0)
(0.011019111 0.13828872 0)
(0.002018055 0.12379784 0)
(-0.0061624168 0.11021068 0)
(-0.01348834 0.097449908 0)
(-0.019975058 0.085415293 0)
(-0.025608627 0.074041062 0)
(-0.030385492 0.063270239 0)
(-0.034299808 0.053060213 0)
(-0.037337939 0.043381543 0)
(-0.039495301 0.034221727 0)
(-0.040780294 0.025577562 0)
(-0.041190559 0.017460191 0)
(-0.040740093 0.0098851651 0)
(-0.039459653 0.002877146 0)
(-0.037305569 -0.0035272287 0)
(-0.034280377 -0.0092465957 0)
(-0.031033656 -0.014220246 0)
(-0.027537584 -0.018799357 0)
(-0.01910455 -0.022648835 0)
(0.0018986593 0.012312755 0)
(0.00077780651 0.012571255 0)
(-3.1163504e-05 0.012731476 0)
(-0.0012640769 0.01280438 0)
(-0.0019679287 0.012851572 0)
(-0.0030521685 0.012846288 0)
(-0.0039123534 0.012792058 0)
(-0.0047908732 0.012691989 0)
(-0.0056174431 0.01254531 0)
(-0.0063654662 0.012346199 0)
(-0.0070437413 0.012117443 0)
(-0.0076390624 0.01186098 0)
(-0.0081360811 0.011590001 0)
(-0.0085249204 0.011318083 0)
(-0.0087958833 0.011057418 0)
(-0.0089329018 0.010828441 0)
(-0.0089148253 0.010647004 0)
(-0.0087413457 0.010549742 0)
(-0.0083859886 0.010568315 0)
(-0.0078100231 0.010736164 0)
(-0.0069977649 0.011117641 0)
(-0.0058925217 0.011776363 0)
(-0.0044794316 0.012816134 0)
(-0.0026784529 0.014360264 0)
(-0.00043937737 0.016601041 0)
(0.0022562067 0.01974558 0)
(0.0053711138 0.024119345 0)
(0.0088530667 0.029934114 0)
(0.012589352 0.037621336 0)
(0.016318654 0.047525062 0)
(0.01976041 0.059967261 0)
(0.022563651 0.075222676 0)
(0.024301092 0.093535739 0)
(0.024584374 0.11512058 0)
(0.022913104 0.1401495 0)
(0.018760873 0.16874144 0)
(0.011457055 0.20079421 0)
(5.8329421e-05 0.23609625 0)
(-0.016234929 0.2732348 0)
(-0.037450738 0.30997892 0)
(-0.064510727 0.34753879 0)
(-0.10346655 0.39344587 0)
(-0.15429748 0.43977157 0)
(-0.19682391 0.42797038 0)
(-0.20909811 0.26747858 0)
(-0.18686497 -0.070070667 0)
(-0.17271768 -0.47664504 0)
(-0.12112822 -0.90273134 0)
(0.016996406 -1.2954014 0)
(0.22492641 -1.5194524 0)
(0.43258626 -1.5320363 0)
(0.5408585 -1.4421471 0)
(0.54323892 -1.3875933 0)
(0.56756553 -1.4082739 0)
(0.62722701 -1.5199575 0)
(0.66721041 -1.4945889 0)
(0.69485569 -1.2909768 0)
(0.71135036 -0.89142177 0)
(0.72559641 -0.41306594 0)
(0.75080414 0.094357153 0)
(0.75058303 0.59002663 0)
(0.69309829 0.96360685 0)
(0.58619426 1.0366632 0)
(0.49082385 0.97539855 0)
(0.41544407 0.96992243 0)
(0.32943802 0.92255993 0)
(0.25148291 0.8241332 0)
(0.20669633 0.69056363 0)
(0.1869719 0.57341307 0)
(0.16722735 0.49974256 0)
(0.14357791 0.44806746 0)
(0.12247905 0.40168663 0)
(0.10439675 0.36050906 0)
(0.087895149 0.32532311 0)
(0.072890687 0.29467592 0)
(0.059175056 0.26735922 0)
(0.046553042 0.24274598 0)
(0.034836826 0.22037043 0)
(0.023926837 0.19988307 0)
(0.013780253 0.18100319 0)
(0.0043416047 0.16351022 0)
(-0.0044088064 0.14720674 0)
(-0.012427136 0.13192808 0)
(-0.019732282 0.11757161 0)
(-0.02629405 0.10401633 0)
(-0.032093124 0.091172014 0)
(-0.037101742 0.078969492 0)
(-0.041304071 0.067353604 0)
(-0.044677146 0.056285917 0)
(-0.047193518 0.045738589 0)
(-0.048835185 0.035701804 0)
(-0.049591627 0.026175658 0)
(-0.049457105 0.017176436 0)
(-0.04844206 0.0087350853 0)
(-0.046559394 0.00087443679 0)
(-0.043737397 -0.0063550737 0)
(-0.039992225 -0.012829716 0)
(-0.03607405 -0.018533159 0)
(-0.031656223 -0.023886566 0)
(-0.022056632 -0.028210863 0)
(0.0021061747 0.013246073 0)
(0.00096336263 0.01354058 0)
(9.3405957e-05 0.013715397 0)
(-0.0011989598 0.013792467 0)
(-0.00195621 0.013823269 0)
(-0.0030881398 0.013802824 0)
(-0.0040083953 0.013712702 0)
(-0.0049331851 0.013561503 0)
(-0.0058061196 0.013358962 0)
(-0.0066037344 0.013092532 0)
(-0.0073145265 0.012773563 0)
(-0.0079307163 0.012418057 0)
(-0.0084352557 0.012038765 0)
(-0.0088200282 0.011639957 0)
(-0.0090690686 0.011246669 0)
(-0.0091651722 0.010865138 0)
(-0.0090906203 0.010523585 0)
(-0.0088184456 0.010227751 0)
(-0.0083323582 0.010024832 0)
(-0.0075904933 0.0099423345 0)
(-0.0065477136 0.0100223 0)
(-0.0051386805 0.010330159 0)
(-0.003287496 0.010955314 0)
(-0.00088714382 0.012024783 0)
(0.0021344285 0.013745652 0)
(0.0058923747 0.016322009 0)
(0.010379811 0.020099036 0)
(0.015596545 0.025426225 0)
(0.021489516 0.032803104 0)
(0.027747223 0.04266857 0)
(0.034033604 0.05543292 0)
(0.03994886 0.071415782 0)
(0.045061312 0.090883994 0)
(0.048916728 0.11407796 0)
(0.051001098 0.14124578 0)
(0.050568489 0.17259455 0)
(0.046800787 0.20827771 0)
(0.038491049 0.24816004 0)
(0.024272791 0.2908634 0)
(0.0034924701 0.33426614 0)
(-0.027619909 0.38277375 0)
(-0.081306013 0.4455215 0)
(-0.15677858 0.50165548 0)
(-0.22053943 0.47083045 0)
(-0.25007904 0.27271825 0)
(-0.2806961 -0.065275961 0)
(-0.30038864 -0.50384342 0)
(-0.22736084 -1.0160307 0)
(-0.070435952 -1.4941739 0)
(0.14625757 -1.7571379 0)
(0.37836194 -1.7109873 0)
(0.51223205 -1.5019109 0)
(0.50973905 -1.3862002 0)
(0.51360959 -1.4426242 0)
(0.53383561 -1.5391326 0)
(0.51741987 -1.5118783 0)
(0.50139786 -1.2874104 0)
(0.4712077 -0.86280363 0)
(0.41582071 -0.40168395 0)
(0.42655831 0.090955987 0)
(0.46124881 0.59468031 0)
(0.48138157 1.0049321 0)
(0.41399156 1.1326598 0)
(0.29935679 1.0482733 0)
(0.22784771 1.0493492 0)
(0.15154005 0.99553671 0)
(0.10082035 0.86872502 0)
(0.098308979 0.70554165 0)
(0.10568128 0.58379644 0)
(0.10084452 0.51526307 0)
(0.088536153 0.46474848 0)
(0.077076323 0.41722296 0)
(0.065776486 0.37504391 0)
(0.054369826 0.33894116 0)
(0.043334467 0.3073338 0)
(0.032757561 0.27917597 0)
(0.022675785 0.25381589 0)
(0.013056175 0.23077114 0)
(0.0039097348 0.20964725 0)
(-0.0047555443 0.19015544 0)
(-0.012907156 0.1720166 0)
(-0.02053404 0.15508556 0)
(-0.027593664 0.13916133 0)
(-0.034051602 0.1241231 0)
(-0.039867431 0.10985579 0)
(-0.044999605 0.096270147 0)
(-0.049407781 0.083294973 0)
(-0.053055567 0.070873683 0)
(-0.055903062 0.058973502 0)
(-0.057910905 0.047573309 0)
(-0.059048322 0.03665752 0)
(-0.059293102 0.026233058 0)
(-0.058616357 0.016332226 0)
(-0.057023926 0.0069859022 0)
(-0.054517979 -0.0017766671 0)
(-0.050982208 -0.0098806747 0)
(-0.046480395 -0.017174117 0)
(-0.041846891 -0.023701604 0)
(-0.036373389 -0.029896313 0)
(-0.02553169 -0.034703632 0)
(0.0023440544 0.014226881 0)
(0.0011693733 0.014559701 0)
(0.00022944453 0.014757886 0)
(-0.0011408899 0.014837854 0)
(-0.001959298 0.014859494 0)
(-0.0031509671 0.014819383 0)
(-0.004143497 0.014692447 0)
(-0.0051309442 0.014490438 0)
(-0.0060665154 0.014218721 0)
(-0.0069230321 0.013880878 0)
(-0.0076824082 0.013468105 0)
(-0.0083286191 0.013001587 0)
(-0.0088588011 0.012499789 0)
(-0.0092505376 0.011959467 0)
(-0.0094920982 0.011413801 0)
(-0.0095641964 0.010860096 0)
(-0.0094477506 0.010322289 0)
(-0.009122099 0.0098118854 0)
(-0.0085385195 0.0093468888 0)
(-0.007667337 0.0089661522 0)
(-0.0064536538 0.0086854766 0)
(-0.0047943608 0.0085573702 0)
(-0.0026067351 0.00865011 0)
(0.00029404218 0.0090677771 0)
(0.0040412166 0.010013196 0)
(0.0087923768 0.011711818 0)
(0.014670612 0.014526061 0)
(0.02175922 0.018937379 0)
(0.03004104 0.025556746 0)
(0.039152079 0.034997972 0)
(0.048692545 0.047767776 0)
(0.058179511 0.064210782 0)
(0.067093481 0.084597639 0)
(0.075003346 0.10920616 0)
(0.081337614 0.13841193 0)
(0.085470882 0.17257762 0)
(0.086454863 0.21228887 0)
(0.082725757 0.25735534 0)
(0.072206816 0.30666083 0)
(0.053438579 0.35988367 0)
(0.019019077 0.4270792 0)
(-0.046362077 0.51473703 0)