/*--------------------------------*- C++ -*----------------------------------*\
  =========                 |
  \\      /  F ield         | OpenFOAM: The Open Source CFD Toolbox
   \\    /   O peration     | Website:  https://openfoam.org
    \\  /    A nd           | Version:  9
     \\/     M anipulation  |
\*---------------------------------------------------------------------------*/
FoamFile
{
    format      ascii;
    class       volScalarField;
    location    "43";
    object      p;
}
// * * * * * * * * * * * * * * * * * * * * * * * * * * * * * * * * * * * * * //

dimensions      [0 2 -2 0 0 0 0];

internalField   nonuniform List<scalar> 
918
(
0.55089976
1.7322243
0.012219734
0.53380221
-0.0086153587
1.7029
-0.93414089
1.2289515
0.58002085
-0.20252308
-0.05656411
0.68385305
1.5742679
1.332566
-0.67544321
-0.026238498
1.0663086
-0.73233374
0.59352631
-0.074277947
1.2905742
0.52205649
0.54822957
0.52175861
0.82240882
1.290374
1.437461
0.0083116428
0.0024454202
-0.010465821
-0.0051412172
-0.052912365
-0.035510429
1.5791767
1.6331976
1.6568798
0.52894878
0.5964208
-0.74608601
-0.82679374
-0.81474619
-0.98824335
1.2151279
1.2068389
-0.44719893
1.239009
1.2485431
0.53278162
0.57728698
0.59046703
0.51844495
0.55270307
0.56696539
0.47122765
-0.22705366
-0.28735769
-0.15962608
-0.13160815
0.054266397
-0.047557706
-0.052728329
-0.045352987
-0.045287388
0.50204786
0.66826436
0.65094984
0.69817917
0.72251994
1.6693199
1.6327677
1.6597427
1.6065609
1.5968667
1.5540972
1.5172366
1.3718584
1.3794628
1.3294271
1.2919265
-1.1894955
-2.2037704
-0.11462983
0.18003079
-0.0041793624
-0.012067608
0.0016262834
1.0474428
1.0288285
1.0910519
1.1141982
1.301973
-0.70464822
-0.90928746
0.59714419
0.59425474
0.57539274
0.55745798
0.60391325
0.64937546
-0.05549747
-0.05203884
-0.087397768
-0.067585369
-0.072261257
1.2698384
1.276678
0.53663997
0.54143642
0.73911018
0.78229827
0.76682946
0.30315472
0.82445808
0.83039214
1.1171273
1.2985179
1.3016252
1.2870136
1.4238343
1.3794593
1.4840511
1.5095834
0.029948141
0.0025852967
-0.010756019
-0.02832113
-0.0091099287
0.53598371
0.52945282
0.60258279
0.5323067
0.5398693
0.54194447
0.40400898
0.68611727
0.69966599
-0.62315342
-0.6787138
-0.82075694
-0.85662654
-0.99000589
0.96522139
1.1912891
1.1784313
-0.49969542
-0.38643601
-0.55272285
-0.29745981
-0.34255829
0.53810584
0.54378834
0.53885405
0.53621091
0.53690676
0.53854413
0.5704624
0.56757951
0.58427475
0.54463705
0.68589851
0.41828187
0.36020685
-0.50068187
-0.32664035
-0.47170587
-0.10916821
-0.092275872
0.078977637
0.12623394
0.05770329
0.055398197
-0.076912004
-0.057028141
-0.065641435
-0.046188844
-0.04597468
0.49058821
0.48171019
0.50927672
0.5165986
0.62498123
0.62640976
0.64150389
0.63644574
1.4432179
1.466875
1.5115502
1.474455
-3.5501189
-6.1683242
0.49502136
0.66828349
-0.0087195733
-0.0072576548
0.0047212246
-0.00051782745
0.0022139314
-0.0087869993
0.01681697
0.0087286178
0.003044011
0.010981091
1.00082
0.98478058
1.2521648
1.2911991
1.1646931
1.1522701
0.60271515
0.59958333
0.60552134
0.59697607
-0.047355639
-0.049220236
-0.045802279
1.2560056
1.2690584
1.263839
0.21564002
0.12261606
0.34899894
0.39534689
0.94620706
0.88113157
0.92446441
1.1897174
1.2220125
1.4989697
1.5109891
1.548932
1.5456705
1.5939466
1.586249
1.5447371
0.5173209
0.52807306
0.52679031
0.5998149
0.60448448
0.60395982
0.61604574
0.61437997
0.61145562
0.24278654
-0.086460364
0.7815694
0.77043405
0.74515575
0.74174123
1.0363064
1.1222541
1.1277455
1.1608571
1.1474775
-0.19580784
-0.21723395
0.29151352
0.26402457
0.42240216
0.46283061
0.44893217
1.4172771
1.4173914
1.4639569
1.4261319
1.3674687
1.390365
-0.11239945
-1.2504544
-0.64756636
1.0534358
0.84272338
0.94238748
0.0173273
0.015937907
-0.0042490072
1.2677099
1.3319971
0.74749259
1.0013431
1.0009121
1.2660413
1.2879749
1.3608668
1.2882351
1.3135656
1.3361888
1.3189748
0.9139351
0.81983688
0.84611776
1.1625804
1.2093691
0.037245682
-0.083139655
-0.086961756
0.13869373
0.19653893
0.16230251
1.3009319
1.2482144
1.3143741
0.54837931
0.54115417
0.0012776006
0.0051468283
0.59630152
0.57296991
-0.024454292
-0.0041214388
0.91966173
-0.41789023
0.044908321
0.60808266
0.55729271
0.57106029
-0.19039233
0.43127997
-0.04819457
0.053545693
-0.0034921914
0.66900878
0.52611753
0.47944514
-0.0063134512
-0.030611053
-0.045616789
-0.42077599
0.55611918
0.53415425
0.55825424
0.53844085
0.57370038
-0.021001268
-0.015001933
-0.0049348938
-0.049054582
-0.042367909
-0.055980145
0.54238934
0.61654584
-0.3496772
0.57844991
0.57004399
0.5841694
0.55591711
0.61063916
0.5665158
-0.0087891141
-0.010245965
-0.0031606665
0.2358076
0.40728174
1.219631
1.3461049
1.2532328
0.87590026
0.55724565
1.0860178
1.1762727
1.051629
1.212075
1.197871
1.2378531
0.15394644
-0.087113311
0.16920635
0.047032505
0.60125966
0.60560916
0.55173012
0.54419568
0.5797166
0.55336188
0.58295391
0.59117672
0.58974983
0.60388674
-0.12478113
-0.14532809
-0.18531515
-0.29304653
0.44813416
0.72599905
0.34096748
0.38237025
0.17952343
-0.042166244
-0.047046664
-0.04757645
-0.056928706
0.020022817
-0.033917053
0.075267889
0.075158623
0.052250472
0.001267513
-0.010844132
-0.034509371
0.00096667576
0.6200386
0.62234554
0.66472652
0.69654181
0.52394303
0.51799415
0.48981866
0.52531675
0.4977166
0.41604606
0.48272689
0.43971224
-0.0099225722
-0.010053474
-0.01175137
-0.017424854
-0.00068818279
-0.015491842
-0.021977963
-0.020317669
-0.022652494
-0.028371748
-0.044757852
-0.049398001
-0.36294813
-0.54268215
1.2085129
1.0575616
0.26262558
0.53065776
0.53218734
0.51676477
0.56650313
0.55385082
0.55400009
0.55333697
0.54988158
0.57028962
0.57906238
0.61210564
0.61959968
-0.24607194
-0.48853082
-0.22771584
-0.34152148
0.4682493
0.96569366
0.41695664
0.3096219
0.31429682
0.77655414
1.477291
1.3198232
1.2795744
1.265122
-0.07493842
0.37337311
0.10432496
0.76583025
1.0053194
1.1943272
1.2473227
1.2502849
1.2209868
1.1638741
0.053382883
1.0625099
-0.21631703
-0.15182066
0.25617877
-0.0111525
1.2147709
1.1628142
1.1525325
1.2244465
1.2521762
1.1907274
1.1637809
1.1710071
1.208548
1.2053461
0.91475094
0.2888595
0.17767494
0.13464426
1.0933307
0.96942919
1.0567973
0.83479755
0.5897088
0.60969952
0.59429341
0.5170491
0.54459582
0.51812028
0.57519859
0.61135015
0.59600448
0.5736582
0.59205901
0.56597958
-0.10259446
-0.099289931
-0.06412588
-0.29084167
-0.27329136
-0.39032256
-0.14222272
0.085459368
0.048316906
0.28657396
0.43774482
0.035415769
-0.15961196
-0.10014331
-0.013240571
0.20276028
0.24685922
0.10850202
0.17861582
0.16380696
0.1373546
0.28328675
0.28806013
-0.015502186
-0.010055972
-0.037973188
-0.032429011
0.041272228
0.14618031
0.15029211
0.011471635
-0.0011082482
-0.041357743
-0.045180206
0.0023039593
-0.031308612
-0.0079100944
0.0081111084
-0.018668616
0.012634074
0.0087044611
-0.0014368778
0.022341981
0.015631116
0.6308352
0.6217347
0.62078317
0.73057156
0.71588674
0.74320404
0.73012301
0.54110761
0.53096708
0.53361556
0.54323228
0.52835604
0.54771784
0.57534054
0.63198908
0.64839366
0.60590242
0.5855194
0.61533015
0.57769945
0.56530816
0.57398588
0.5694042
0.50324533
0.50855085
-0.02365437
-0.00099432086
0.015461482
-0.059471854
0.0027781032
-0.017228961
0.0036980615
0.037975502
-0.0071585504
0.014410984
0.0042091877
-0.018065765
-0.0090159652
-0.15956904
0.0085012507
-0.41239588
-0.44615365
-0.56693527
1.1054315
1.2672084
0.99456051
0.71834064
0.75747836
1.0408915
1.1792711
0.68069684
0.81780082
0.92967754
0.9312851
1.1487403
0.55846647
0.54833774
0.5598859
0.53409986
0.56877282
-0.01933625
0.23189713
0.10984331
0.32755836
0.58742158
0.63362071
0.45008637
0.39600832
0.54141037
0.43569179
0.97485312
1.0072753
0.86255737
0.92104865
0.88559752
0.5852348
0.81837446
0.95598597
0.83163771
0.87203424
0.91232309
0.87004077
0.92597248
0.81802553
0.70429255
0.73909921
0.51606089
0.60170727
0.55011332
0.49285142
0.65447443
0.60942017
0.65716634
0.62799208
0.69203345
0.77990665
0.76336164
0.76489474
0.80504345
0.67183632
0.59763254
0.6183024
0.69209331
0.56601741
0.59081655
0.63305552
0.47499067
0.48613925
0.36060668
0.27129764
0.32599033
0.1783415
0.15007959
0.20082706
0.50805562
-0.10596168
-0.10852559
-0.47450994
0.94529347
1.4876061
1.1005573
1.0724826
1.2505545
1.2243509
1.2149445
1.2597779
1.2602101
1.0938604
1.1376045
1.1271162
1.0992622
1.1437933
1.2118578
1.1944193
1.0000135
0.66509868
0.63965907
0.56064784
0.25038645
0.35842409
0.77289484
0.60976052
0.4386502
0.40979226
0.72843118
0.45895649
0.59700261
0.75051374
0.56183237
0.45278076
0.92076759
1.0409077
1.032219
0.98343888
0.83021947
0.88923872
0.97084665
1.0392833
1.0725886
1.1457026
0.54573173
0.56729181
0.55903403
0.53688299
0.56451244
0.58262671
0.58393611
0.5759023
0.58090271
0.58927155
0.6001608
-0.056854891
-0.04797584
-0.073927744
-0.073301713
-0.038614693
-0.066937276
0.013191338
-0.013285
-0.021234798
-0.018821154
-0.053711114
-0.071404713
-0.053972078
-0.033705164
0.1433122
0.18369888
0.12769399
0.11119347
0.33451399
0.46727169
0.52463428
0.44210494
0.25538817
0.28199084
0.35125467
0.025006525
0.046911621
0.059504366
0.079901094
0.081281774
-0.032219702
-0.037664218
-0.033076932
-0.03023301
-0.012905603
-0.036450523
-0.042693627
-0.030323863
-0.031584236
-0.038698153
-0.048049173
0.53730123
0.54512656
0.5882045
0.54599599
0.54695267
0.5927876
0.57431695
0.59194323
0.60211851
0.6239514
0.59517918
0.62410045
0.62288741
-0.016753842
-0.020702281
-0.037910215
-0.028766005
-0.022428844
-0.021092186
-0.029080929
0.2848467
0.12794529
0.17250589
0.027550503
-0.23738777
-0.12631171
0.66586074
0.80906632
0.8070326
1.0190944
0.80187963
0.76152885
0.91410073
1.0332768
0.44713394
0.67680882
0.49557612
1.1342175
1.0480076
1.2157508
0.76518337
0.47856847
0.7274886
0.81001635
0.51769939
0.62614282
0.55213108
0.35764201
0.42448364
0.49675276
0.67470505
0.48272724
0.54097559
0.46850964
0.4853834
0.54037273
0.55956582
0.64812148
0.70725245
0.39977424
0.37312818
0.30292713
0.99133991
1.0117788
1.0400484
1.0430394
1.0594094
0.82924914
0.8213498
0.86191559
0.84312297
0.81708987
-0.29435263
-0.37813552
-0.74438511
-0.22070244
0.40259258
0.99660467
0.88352912
1.3945476
1.1282014
1.2823022
1.2203299
1.1880132
1.1062963
1.1207089
1.1827963
0.57300108
0.77670195
0.75901303
0.6990173
0.48716268
0.38743667
1.0275706
1.0014588
1.0784952
1.1110969
1.0443351
1.119951
0.56720535
0.58476892
0.561933
0.57400583
0.551183
0.56382169
0.064907772
0.0085496469
0.12692989
0.1066881
0.020379021
-0.0074225705
-0.0088638097
-0.0069017816
-0.0255665
-0.018714105
-0.0030150274
0.0012825437
0.32974134
0.27153627
0.049490108
0.17113819
-0.037735007
-0.14293378
-0.20977465
0.0081648027
0.17860397
0.17847569
0.57243822
0.8506617
0.70029705
0.80592363
0.62768144
0.74078723
0.75353078
0.70556972
0.74711094
0.62658182
0.63921911
0.70031306
-0.097845308
0.22422588
1.4382702
1.3970839
1.0090095
0.87240364
0.80690454
1.0804681
1.0180356
0.8513029
0.95722206
1.0692718
1.0502161
0.45983752
0.42589104
0.83755194
0.9749412
0.56196622
0.43487164
0.40368271
0.58751363
0.64570656
)
;

boundaryField
{
    wall-4
    {
        type            zeroGradient;
    }
    velocity-inlet-5
    {
        type            zeroGradient;
    }
    velocity-inlet-6
    {
        type            zeroGradient;
    }
    pressure-outlet-7
    {
        type            fixedValue;
        value           uniform 0;
    }
    wall-8
    {
        type            zeroGradient;
    }
    frontAndBackPlanes
    {
        type            empty;
    }
}


// ************************************************************************* //
