/*--------------------------------*- C++ -*----------------------------------*\
  =========                 |
  \\      /  F ield         | OpenFOAM: The Open Source CFD Toolbox
   \\    /   O peration     | Website:  https://openfoam.org
    \\  /    A nd           | Version:  9
     \\/     M anipulation  |
\*---------------------------------------------------------------------------*/
FoamFile
{
    format      ascii;
    class       surfaceScalarField;
    location    "43";
    object      phi;
}
// * * * * * * * * * * * * * * * * * * * * * * * * * * * * * * * * * * * * * //

dimensions      [0 3 -1 0 0 0 0];

internalField   nonuniform List<scalar> 
1300
(
1.7582594
5.6264299
-5.0358348
1.7582594
-8.5176247
5.6264299
-5.3637432
5.3637432
-0.70710497
0.70710497
3.7312095
3.6534798
-3.9071382
3.9071382
-3.5373694
3.5373694
-0.62897291
0.62897291
-5.2377241
5.2377241
-5.0577686
5.0577686
4.7163833
-4.7163833
-6.8890592
6.8890592
-0.56633707
0.56633707
-4.7847504
4.7847504
1.5018258
-1.5018258
-3.4443055
3.4443055
0.054000268
-0.054000267
-0.56890522
5.1403796
1.1893542
1.1893542
-0.47687322
0.47687322
-4.8653252
4.8653252
6.2140881
-6.2140881
7.8318522
-7.8318522
-2.7960174
-3.3829635
1.9808623
-12.520732
-6.5367624
-6.5367624
-8.4382634
8.4382634
-2.8118335
2.8145965
1.4846663
-1.4846663
-1.7492391
1.7492391
-5.3138596
-0.049883636
-5.3138597
5.388952
-0.025208759
5.3889519
-0.74724184
0.040136861
-0.74724184
4.7310005
-4.7310005
0.62249284
0.084612129
0.62249283
1.2822673
-1.2822673
-3.7406425
7.471852
3.6440468
-3.0552354
8.195615
-3.3917156
7.0451954
-6.5575786
6.5575786
-4.0854247
0.17828649
-4.0854247
3.8014362
0.10570194
3.8014362
-7.4350339
7.4350339
-3.6019692
0.064599838
-3.6019693
3.4883998
0.048969643
3.4883998
2.0713935
-2.0713935
-0.68871292
0.059740008
-0.68871292
0.56786576
0.06110714
0.56786576
0.35898191
5.2674481
-5.9854118
8.8000083
-5.2674479
0.029723782
5.2000931
0.037630942
5.2000931
-5.0938685
0.036099875
-5.0938685
5.0159186
0.041850103
5.0159186
4.799818
-0.083434719
4.799818
-4.8274411
0.1110577
-4.8274411
-4.0302565
-4.4972693
-7.0539706
0.1649114
-7.0539707
-0.50616882
-0.06016825
-0.50616883
0.67123784
-0.10490079
0.67123784
-4.1321811
4.1321811
-5.1440405
0.35929009
-5.1440405
1.3698107
0.13201519
1.3698107
2.0089643
2.56251
3.7672236
-3.7672236
2.2653978
-3.4267683
-0.017537219
-3.4267683
-3.5175345
-4.3143177
3.5175346
-0.073229081
-0.35594795
0.40994824
-0.35594801
1.2486307
-0.059276486
1.2486307
0.5155312
0.052334564
-0.51553118
0.038657948
3.3405355
-3.3405355
0.09501033
0.38186292
0.095010324
-5.5697251
5.5697251
4.9583386
0.057580035
-4.9583385
0.093013356
6.153297
0.060791065
6.153297
-6.1926411
-0.021446973
-6.1926411
3.4448908
-6.8278543
-3.4970485
6.7159874
0.17307179
-6.7159874
0.17922502
1.5948925
-0.11022623
1.5948925
-1.0391295
1.0391295
-1.4437995
-0.040866805
-1.4437995
-2.0741373
0.32489822
-2.0741374
1.489981
0.25925817
1.4899809
-5.1406378
-0.17322193
-5.1406378
-5.3273031
0.18326266
5.3273032
0.061648756
1.4480244
-1.4480244
-0.75786036
0.010618517
-0.75786035
-4.9165575
-0.22408031
4.9165576
-0.18555714
-4.6040792
-0.12692123
-4.6040792
-1.353768
-0.090031498
1.353768
-0.071500662
1.2816646
-0.03303398
-1.2816647
-0.00060265152
-3.0493408
5.6118509
-3.3976102
7.041657
-6.1792748
-0.37830378
-6.1792748
6.8916819
-0.33410328
6.8916819
4.4394898
0.34526064
-4.4394898
0.35406512
3.7299315
0.071504709
3.7299315
-7.4065299
-0.028504054
-7.4065299
7.4410346
-0.0060006632
7.4410346
3.6690043
0.060927226
-3.6690044
0.067035129
3.4508396
0.037560209
3.4508396
2.2743017
-0.20290824
2.2743017
-1.8861505
-0.18524298
-1.8861505
0.90728533
-0.90728533
0.82948193
0.07780339
-0.82948189
0.14076896
-11.14874
11.127293
-0.035755308
-11.112985
5.1643378
5.1643378
4.0067836
0.79303418
4.0067838
-5.0277864
0.20034524
-5.0277864
3.5046346
-7.001683
3.8261435
-7.8564
5.0453924
-17.566124
4.7105217
-9.207791
7.2939845
-7.2939845
7.1804291
0.11355531
-7.1804291
0.12645847
-0.42293732
-0.083231509
-0.42293733
-3.5159331
-0.61624793
-3.5159331
4.7951814
-0.66300031
4.7951814
-1.2708452
1.2708452
-1.3035789
0.032733773
1.3035789
0.066231732
3.4304082
0.02043138
-3.4304082
0.0036399107
0.5154123
0.10708053
-0.51541225
0.15946424
3.8018846
-0.46134906
3.8018846
-2.8630726
-0.47746298
-2.8630726
-0.27356804
-0.14936929
0.27356807
-0.17855774
-5.8172581
0.24753299
-5.8172581
-11.21344
0.10045546
-11.175809
-6.0921857
-6.0921857
2.3460775
11.146086
-1.7366662
-0.14948438
1.7366662
-0.14177373
1.2071179
0.063727223
-1.2071179
0.16798845
-0.95839424
0.051108888
0.95839425
0.080735202
-2.4937657
0.4196283
-2.4937657
-1.2383047
1.2383047
-1.313354
0.07504918
1.313354
0.17662693
1.7548702
-0.30684588
1.7548702
0.72880109
-0.057563244
-0.72880111
-0.029059236
-4.4180403
-0.18603891
-4.4180404
7.1478204
-0.25613853
7.1478204
-2.5484327
-0.31463984
2.5484327
-0.27413099
-0.035154235
11.162447
-5.1291836
0.035315063
5.1291835
-11.223238
11.258553
-3.0661611
0.57239542
3.066161
0.94062284
5.2979166
0.27180851
-5.2979166
0.27013028
7.3787153
0.062319299
-7.3787153
0.084730807
-3.0126136
-0.50331954
-3.0126136
-5.5400491
-0.63922568
5.5400492
-0.74486777
-11.475072
-0.19747067
11.672542
-11.433222
6.0147288
0.13856827
-6.0147288
11.397122
-1.27444
-0.1735844
1.2744401
-0.036135322
2.0989196
-0.34404934
2.0989196
4.1858131
-0.38392856
-4.1858131
-0.23222727
-7.3008754
-0.10565447
7.3008753
-0.15305494
-2.5336408
-0.47897281
2.5336407
-0.43472117
-5.3412985
5.282022
2.8543166
-3.3270743
-3.50078
-7.641392
2.5364599
3.075391
4.8018577
-11.014333
-6.5517908
-10.835108
7.2646168
-6.9944865
-9.4277166
9.3442816
10.793241
-10.920162
-7.2616316
7.3278634
8.7504172
-8.8219179
3.8029977
3.6688543
10.632154
-10.453867
-16.878671
16.500367
10.217069
-10.152469
17.092942
-17.121446
-19.314229
19.376548
-7.1513142
7.2110541
-9.5452884
9.3600454
-9.9578348
9.6837038
-3.6534381
-4.2029619
14.22387
-14.058958
11.752023
-11.769561
-11.455278
11.814568
4.0503053
1.2317168
4.0172713
-3.608034
7.4110317
-3.4371614
6.291478
3.5942873
-7.2477254
3.4073958
-6.9081758
6.0317509
5.7202724
-5.9585218
-1.6828703
-8.2543829
8.1441566
-7.3316285
7.4123637
12.270661
-12.320545
-3.6145572
7.2834115
-3.4270998
6.5024908
-3.6717588
-3.5898728
3.5397436
1.2621141
8.7713276
5.4525421
-8.9443994
-1.8907087
-11.402061
11.018132
-11.952775
11.475312
-0.438153
5.7861439
-5.3479909
4.4271722
-1.4878694
7.2740132
5.7767475
5.9770927
5.8658886
-5.5940801
1.1285979
-6.4765888
-6.3835754
-2.5265697
2.5371883
2.4703106
-2.3856985
8.2285295
2.5647116
8.0429723
-7.8140185
-3.1061437
-8.0000574
4.3603304
2.967533
4.3930641
5.2716321
3.4787851
5.1816006
5.8385497
-5.9744724
0.13592277
-5.4836712
11.322221
1.3089391
-9.073544
-7.8114299
6.7977242
3.8344297
6.9034261
-7.2859923
-3.167875
-6.9319272
-10.268906
-6.6097651
-10.908131
11.006715
5.4936518
10.672612
-12.946477
12.793422
6.6596556
3.5574136
6.7086252
-6.7349126
-3.4175567
-6.6678774
13.361551
-3.1482064
-10.213344
-11.177549
-8.1366798
11.18355
5.9093919
11.886355
7.4901935
11.971085
4.8743461
8.4872045
-10.783738
2.6470583
-4.4159528
-2.7353614
-4.2751839
4.300104
2.9109502
4.3612112
-5.5841281
-3.9611603
-5.7336125
-5.6669101
-4.2909247
5.8698183
3.4902271
-5.9413388
-6.0114358
6.2559787
3.4277251
4.3837536
-10.935544
4.8240374
-9.0269994
-9.9681981
-4.0907603
-9.8417396
4.5624393
3.1151156
-7.6775549
-2.6852861
11.276332
-5.5560598
9.5934619
-7.2367
-4.5328605
-7.2330601
-9.0504265
-2.4048517
-8.8671638
-9.5273274
9.0240079
-9.9315275
9.2685272
14.019431
-6.9645651
-7.0548657
-4.8883403
-3.9335776
4.8889429
-0.87167161
-7.1970586
7.3329814
0.21397309
6.5054511
7.7371678
6.8654962
-4.4286928
-2.9029357
-4.2607044
4.4007764
3.0115873
4.4518853
9.1374419
3.133219
9.1122331
-8.7561647
-3.5643798
-8.9293867
9.4523835
-9.1274853
2.6491565
-2.7985258
7.5570943
3.9182174
-7.0957452
-4.3063155
9.5082961
-4.4767754
-5.0315208
-12.072687
10.579847
1.4928396
-4.7986731
-0.37150089
-0.42550118
-5.551376
-3.8763405
5.4403182
0.53677454
11.116621
7.2402809
-5.5152926
5.7628256
6.1572498
6.2148299
-0.16874552
6.0085488
-5.4361534
6.9521156
-3.6088038
-3.3433118
7.1966986
-7.420779
-1.7326881
-7.927293
6.194605
0.62219336
1.8700631
-1.4601149
-1.7740602
-0.75250952
-1.8031194
1.458859
1.0114517
1.5659395
0.91685904
1.6203293
-3.4880688
0.72523235
2.7628364
-2.5712097
-1.6604661
-5.2032333
-2.0208076
7.2240409
7.9739914
3.0441407
-7.7417641
-0.25829331
2.4667341
-2.5716349
-0.73541938
-4.4678139
2.9936137
-3.7290331
-5.9906228
-2.50745
8.4980728
-3.6619424
-0.59876203
3.5982152
0.79484898
-4.826764
-3.4276189
4.8676308
0.31396977
-5.4486153
11.059162
-5.6105465
-8.351551
4.4663734
6.8558475
7.4339064
-9.1683376
4.819623
4.3487145
-2.3124901
5.8364301
1.066996
5.9079349
-9.3198497
6.1519747
7.7135037
4.1010646
-8.0587642
1.1268371
-8.1930126
10.919381
-9.5642458
-1.3551348
5.4216492
5.4977315
7.6300691
6.3893618
-6.0123685
13.642438
-1.5186642
-8.0455816
9.7116768
-5.6106122
6.5230274
-12.13364
-12.912389
4.8668077
-9.9757382
12.050834
-2.0750959
-3.8747053
-9.0717721
13.850443
-1.3447015
-12.505742
9.3279106
-5.611467
-5.5730357
11.184503
-8.7596735
8.9905925
-2.6522547
-6.3383378
-10.915084
-6.2063618
11.020738
1.772684
-11.841799
14.488857
-3.3545943
5.7698716
0.93875364
5.8074318
4.2633904
-6.8595781
2.5961878
4.4962831
-7.1485378
2.7301264
-9.5897046
-7.2131153
13.285595
-6.0724796
-11.303876
-10.257247
-1.0466291
2.7762728
11.712584
-10.266466
8.0143455
2.2521208
3.6124599
0.83942537
-3.6902632
-0.58492064
0.46353859
6.8369413
-7.3004798
4.8247497
4.8770843
5.0361466
1.8007946
5.1782976
2.965859
-5.0365239
-0.69708865
-6.6525503
2.3616256
-3.1623232
-6.6340779
8.9957035
-7.2586342
0.6245563
-4.4715773
-6.1587469
10.630324
-7.2069387
5.2061642
5.8529975
8.2177515
-8.8230177
2.6642708
-4.3694296
-4.4535881
4.5943634
-7.7566866
3.4777599
5.5179435
6.9054851
0.89404926
6.5419286
6.7436663
-9.6570441
0.63004477
12.196208
-10.3055
2.672312
9.2987734
-10.686657
0.42941093
-9.4123287
1.24925
-6.8053098
-6.4283049
7.0804335
-9.4852852
-5.0532061
8.2300701
0.88216308
-8.2917189
-0.57544494
-6.5049481
-3.0223792
-6.9839209
-3.3010108
-6.6305167
-9.3133792
-1.7772433
-7.5361359
7.2467646
-7.2363494
-3.6717821
7.9812171
1.2873101
-7.9595189
7.7859345
-8.0219605
7.6779112
0.29457775
7.0384036
7.160074
3.2264964
-4.7259136
7.95241
-7.112921
10.24614
-12.262941
5.15002
6.0876385
-9.6520184
-6.1753024
5.4194389
4.0329447
5.6786971
9.2761024
-10.62653
1.3504278
-10.873201
12.498946
-1.625745
-16.881084
6.0078824
-7.6049814
2.4750486
0.17410787
2.3918171
0.78260749
2.8798928
-3.6625003
-2.0159183
-2.1944761
-3.7948917
-5.7120906
9.5069824
1.8376749
-5.3363167
3.4986418
-4.7417348
6.5794098
0.05475281
-5.3910696
7.1486561
-4.2687633
7.322764
-4.686982
2.635782
5.2395327
9.1859613
-3.9464286
6.9353728
-3.0171554
3.0830333
-7.0294619
-2.6290573
-4.8981174
7.8090676
-5.7322067
6.356763
-0.50858777
6.8653507
-5.8532601
1.3764848
-0.81711352
4.0599708
4.0986288
7.0746139
-5.2738193
4.9863688
-8.0035242
-2.0430931
-7.109475
-1.5915314
-0.3861809
-5.079469
5.4656499
6.6283975
-7.0145783
-5.288124
9.6354504
-4.3473264
7.9874323
-5.4846591
-2.5027732
-4.501709
-4.6257763
4.0820808
1.926468
9.9139002
0.26830646
-5.7529656
-5.167847
-4.2272242
4.202691
2.7494245
-2.0728198
3.5656594
2.4983209
-0.6282578
0.55652023
1.0094193
2.1138663
-1.5573461
0.29123141
1.8226349
-1.1688835
1.8034474
0.66328664
-1.7458842
-0.057235181
-1.4556243
4.4492381
1.3072121
-2.3186638
0.76131767
1.4035061
-5.0123099
7.3912424
-3.9848229
-3.4064195
8.7947484
1.5485157
-5.5333385
6.3787775
-5.7565841
3.3713289
-5.3921365
-2.1620096
-7.9185937
-5.3538821
-4.2555483
7.7541901
-5.251434
8.2955747
1.7635673
-8.0372814
9.8008487
-4.8471438
2.3396938
-4.1280618
4.7913485
-1.7322659
-2.3957959
4.3352677
4.1628051
-4.3563225
-0.11149148
-0.021054801
3.1246177
-3.1456725
-0.60441539
-3.1756251
-7.652306
7.9662758
-3.7788891
8.5985121
4.1735209
-3.6271568
12.225669
3.1621375
-6.7892944
-5.1894135
-5.7881755
-2.4405798
4.9933265
-0.86938159
-5.7984958
-7.2077192
5.7375686
0.17036632
-9.2226711
10.388768
-1.166097
-5.3882412
-0.76373343
6.1853826
-7.8575699
0.70903205
-5.1274434
5.2613248
6.3283208
6.4986871
-12.291055
-0.21468662
-6.7974036
1.3624699
-8.1598735
6.8602013
-3.7947885
8.6615962
-11.134959
7.4631772
-9.8476492
7.3064614
-0.85341212
7.2128042
-4.6166164
3.00054
-9.2069018
-7.4342178
7.2163134
-3.6588998
8.155067
-4.1710088
12.326076
-7.5256031
7.0378417
5.2882341
-1.3794017
-5.8536584
-7.0120465
5.6326448
0.025795225
5.833227
8.025922
-5.060063
7.3288333
4.3890136
-8.7584432
-3.367673
-11.946714
3.1882707
-6.0937164
-3.2553179
6.4435886
4.9624336
5.801859
1.9900004
-5.2169383
8.4113722
-9.4580013
-2.3388926
-4.0894122
6.9582954
-1.3256506
4.379875
-8.4692872
-2.4254349
5.7904775
-0.60984533
-5.1806322
1.1740875
-6.2272936
2.3795614
-8.606855
7.1057238
-7.6811687
2.3403292
-9.9453106
-5.6191897
-5.655325
-2.4162456
-5.6057149
-7.8812562
5.4650105
-1.8733737
5.9125608
-8.7948545
8.1850091
-3.7040918
9.1691023
-5.8485301
-1.1353908
6.2832513
1.39466
10.563762
0.53318943
-6.7084918
-2.8315341
5.3241308
-2.4925967
1.3711568
-4.5462795
0.7778513
3.5533837
5.2413647
-9.7479888
0.095970385
-6.6125215
-4.1320668
8.1650114
5.5033835
12.131781
1.5052508
9.2920412
-1.1270298
10.797292
4.5516674
4.7282944
-4.135003
5.4854308
1.330647
6.480667
-0.83115677
3.4669388
1.5606603
1.500492
1.0711428
2.5969593
1.5016695
3.973444
0.31094369
-1.8835324
4.6616375
-8.8888618
-1.091328
-8.0958275
1.248454
5.8258043
-4.5773503
3.9370078
-1.1875833
1.444411
-0.22254855
-1.6443839
1.8669326
-3.5658601
-2.2726418
-0.45000692
-2.0605977
2.8219154
2.3886403
-2.3719084
-1.1939517
0.69792524
-6.0518074
4.6942112
-4.8057027
-0.64289764
9.1579511
-3.6426072
0.49693463
-1.3029133
-2.6786905
-3.4312
3.4884352
11.580422
0.64524647
5.969876
8.6115222
5.1839034
0.1238404
4.9781788
-7.0532747
-4.6115257
-7.2679613
-0.4077599
5.7776227
2.2435928
9.4689914
7.5318269
6.2061763
-2.2631109
-11.721112
8.4135315
-2.9281006
6.7877865
-1.6071543
-6.9997007
6.8704668
3.3756731
-7.7526298
0.071461116
-6.9282395
-9.8563402
-0.46142103
8.6464302
-10.102341
8.9669506
5.9445714
1.5915644
-4.7810593
-0.8742657
4.7060101
0.022284265
10.819576
-1.2030809
-6.9079392
8.1110202
-4.6227234
3.5313954
0.90632213
2.6593373
2.7732545
1.5856712
-5.3222682
-9.8996184
-3.0604297
-1.9518802
-6.4668492
0.7571916
-3.1458319
6.2076681
-2.6762726
3.7048948
5.4347476
6.8791586
-1.9834439
-5.0311344
6.3307703
-2.6258756
4.253283
)
;

boundaryField
{
    wall-4
    {
        type            calculated;
        value           uniform 0;
    }
    velocity-inlet-5
    {
        type            calculated;
        value           nonuniform List<scalar> 8(-1.7582594 -1.7582594 -7.3846893 -4.5714743 -7.3846893 -6.446951 -4.5714743 -6.446951);
    }
    velocity-inlet-6
    {
        type            calculated;
        value           uniform -5.6264299;
    }
    pressure-outlet-7
    {
        type            calculated;
        value           nonuniform List<scalar> 8(5.0358348 8.5176247 6.1789809 10.539869 8.5275258 6.9419393 7.3307781 9.755914);
    }
    wall-8
    {
        type            calculated;
        value           uniform 0;
    }
    frontAndBackPlanes
    {
        type            empty;
        value           nonuniform List<scalar> 0();
    }
}


// ************************************************************************* //
