/*--------------------------------*- C++ -*----------------------------------*\
  =========                 |
  \\      /  F ield         | OpenFOAM: The Open Source CFD Toolbox
   \\    /   O peration     | Website:  https://openfoam.org
    \\  /    A nd           | Version:  9
     \\/     M anipulation  |
\*---------------------------------------------------------------------------*/
FoamFile
{
    format      ascii;
    class       volVectorField;
    location    "43";
    object      U;
}
// * * * * * * * * * * * * * * * * * * * * * * * * * * * * * * * * * * * * * //

dimensions      [0 1 -1 0 0 0 0];

internalField   nonuniform List<vector> 
918
(
(0.40865452 -0.0002190992 0)
(0.0090456995 2.9576278 0)
(-0.0054738156 1.332262 0)
(0.29038632 -0.008410149 0)
(-0.011285406 2.2644835 4.0700027e-20)
(-0.011743951 2.9485787 -3.3393533e-18)
(0.91281674 1.4261921 7.8912928e-19)
(0.20372136 0.12466631 -2.6768684e-20)
(1.9883243 0.0040986182 0)
(0.011699423 1.0922103 0)
(0.0057884926 0.96320951 0)
(0.11435437 -0.00020809255 0)
(0.012835538 2.9163571 0)
(0.013661709 2.7912584 0)
(0.097395225 3.1591804 3.2338772e-19)
(-0.0087836012 2.1193297 1.6148888e-20)
(0.10127466 0.018700624 1.6579634e-18)
(0.1906171 1.4862189 5.9432852e-19)
(0.37590608 0.0069651604 0)
(-0.0092628176 0.91810672 0)
(-0.046596344 0.10982688 -1.297672e-18)
(1.0479728 -0.021566824 0)
(0.54433325 -0.027438312 0)
(0.24758813 -0.0063798025 0)
(0.13074253 0.023117887 0)
(0.020985625 2.6238467 0)
(-0.0099896198 2.9058033 1.2270686e-18)
(-0.01906799 1.3900016 0)
(-0.034067719 1.649214 0)
(-0.014694613 1.3634606 0)
(-0.0065280651 2.812915 0)
(-0.0023701685 2.3186616 -3.1996562e-20)
(-0.0048404112 2.1022209 0)
(-0.018162184 2.9813193 -1.2424604e-22)
(-0.018376438 3.0070219 2.5926342e-18)
(0.00085858368 3.0015931 0)
(0.29696402 -0.0029099888 0)
(0.42748948 0.89810191 3.4637876e-19)
(1.0329592 1.4646301 -9.7856036e-19)
(1.0549231 1.2887857 9.9544996e-19)
(0.86672381 1.5948858 -1.8114363e-19)
(0.74427486 1.531251 1.0302455e-18)
(0.2883256 0.15936017 2.6099913e-20)
(0.20602263 0.092400356 0)
(1.2789756 0.74331345 0)
(0.258183 0.1653505 1.1970793e-19)
(0.19172474 0.130427 -1.244013e-19)
(0.25279984 -0.013434765 0)
(1.9896523 0.0011734025 0)
(1.9887389 -0.0016990893 0)
(1.3548876 0.0023631502 0)
(1.8676152 0.0060797502 0)
(1.7381097 0.0034832967 0)
(0.025614621 2.0263107 -8.3564582e-19)
(0.027238055 1.3281786 0)
(0.033596496 1.1599294 0)
(0.010997271 1.3065961 0)
(0.0074949426 1.0442825 0)
(-0.0022682667 2.2205577 0)
(0.01445127 1.2169238 0)
(0.012442906 0.98960764 0)
(0.0065593354 1.2163974 0)
(0.0031865179 0.93405328 0)
(0.48596148 0.022986234 0)
(0.27994246 0.0086807785 0)
(0.13130465 0.020850708 0)
(0.26323518 0.0052562788 0)
(0.10190118 0.0064287147 0)
(0.016738472 3.0145162 1.2779366e-18)
(0.012390074 3.0113859 0)
(0.007727139 3.0035749 0)
(0.013324113 3.0004916 1.3610343e-23)
(0.010556103 2.9476306 -1.8251216e-18)
(0.016838045 2.9848965 0)
(0.013431918 2.8938529 0)
(0.017543266 2.9241664 2.9260102e-24)
(0.013823159 2.8183134 0)
(0.017296069 2.9109098 0)
(0.010900267 2.7550975 0)
(0.24494734 3.6083001 0)
(0.17439448 3.5434106 0)
(0.12967897 3.2928154 -3.0231615e-19)
(0.047106069 2.9892774 0)
(-0.017452417 2.2746866 0)
(-0.013578894 2.3398116 -1.5916533e-20)
(-0.0088875373 2.1400982 -1.9068834e-21)
(0.2574956 0.054183152 -5.6824479e-19)
(0.083228062 0.0038324596 -5.3867335e-19)
(0.2911669 0.054265669 -1.7410101e-18)
(0.13881051 0.027170659 -1.1657827e-18)
(0.17888004 1.1587165 0)
(0.30020267 1.6412995 -6.419375e-19)
(0.37411682 1.5804146 1.0671118e-18)
(0.53925991 0.040530487 0)
(0.3265043 0.030468846 0)
(1.2189851 -0.0013115797 0)
(0.73687579 -0.035168375 0)
(0.64602192 0.017317121 -3.0593571e-18)
(0.64934419 -0.025738796 2.3961883e-18)
(-0.0034630815 1.1857422 0)
(0.0025812637 0.92672633 0)
(-0.042762324 1.4216147 0)
(-0.021085656 1.2271785 0)
(-0.014899332 0.91927301 0)
(-0.048368457 0.20253134 3.972906e-19)
(0.12083726 0.10846428 0)
(0.50761134 0.020839193 0)
(0.24657987 0.014424899 0)
(0.23050618 0.0052327499 0)
(0.18909787 -0.010985971 0)
(0.10964171 0.014915629 0)
(0.91020587 0.05386959 0)
(0.11806643 0.036636475 0)
(-0.043861367 -0.0353947 2.104661e-18)
(0.0011992489 2.8581909 1.0729977e-18)
(0.020447093 2.9008491 0)
(0.033203056 2.8784301 0)
(0.015001798 2.7060356 0)
(-0.010516695 2.9856747 1.1851049e-18)
(-0.0091665388 2.8905213 0)
(-0.011794165 2.9907314 -3.6413042e-18)
(-0.0096028391 2.9158265 1.2459361e-18)
(-0.019185069 1.8415674 0)
(-0.0056755887 1.8521397 0)
(-0.006596734 2.3265395 1.869392e-22)
(-0.0059580549 2.2965087 0)
(-0.0076290869 2.1004928 0)
(0.63592515 0.019797427 0)
(0.32071237 0.012070687 0)
(0.23085523 0.029755283 0)
(0.60779568 0.002841952 0)
(0.2915702 0.015480466 0)
(0.51268255 1.076664 -4.2473438e-19)
(0.54469328 1.112031 0)
(0.41033923 0.88949411 5.5179364e-20)
(0.3152909 0.66890516 0)
(1.1599519 1.3085263 -2.8609602e-19)
(1.1421105 1.1055708 5.6127129e-19)
(0.4925584 1.6966084 0)
(0.68684443 1.6790736 0)
(0.56446654 1.587564 0)
(0.15595278 0.27086898 -4.4664781e-19)
(0.30395322 0.12831268 0)
(0.18946743 0.081506884 3.3582835e-19)
(1.2612049 1.1275802 0)
(1.3409558 0.93375282 0)
(1.2152205 0.92226139 -4.6475368e-19)
(1.404295 0.73907139 0)
(1.3249002 0.57192876 6.1089897e-20)
(0.58376746 0.02289714 0)
(0.54694568 0.013271147 0)
(0.26666737 0.010537303 0)
(0.52748251 0.008756082 0)
(0.53711343 -0.013089764 0)
(0.25760582 0.0077267083 0)
(1.4984387 -0.0013338869 0)
(1.8698385 -0.0011964761 0)
(1.7318217 0.00075491976 0)
(0.040139959 2.2530616 4.5424256e-19)
(0.049950944 1.9511229 0)
(0.031882999 2.3419956 7.2745242e-19)
(0.0192071 2.0867459 -6.0458771e-19)
(0.1354487 1.5066669 -4.9013528e-19)
(0.056902753 1.3864324 0)
(0.077007242 1.3079068 0)
(0.009065541 1.2850277 0)
(0.0072496449 1.0213353 0)
(-0.0050557703 2.4098514 -8.6019333e-22)
(0.0014684908 2.2186104 0)
(0.0013868035 2.4114537 -4.4111467e-20)
(-0.0013362661 2.2197034 7.2307139e-20)
(0.010264255 1.2658014 0)
(0.01402226 1.2415137 0)
(0.010135299 1.0044957 0)
(0.0047653259 1.2076533 0)
(0.0021187818 0.9225743 0)
(0.82229431 0.044517137 0)
(0.54599551 0.024468626 0)
(0.76183026 0.037432245 0)
(0.41946678 0.01160472 0)
(0.1834058 -0.00098977899 0)
(0.35965479 0.016963817 0)
(0.31932539 0.041457434 0)
(0.16906334 0.0056905423 0)
(0.0036716768 3.0720198 -1.0941606e-20)
(0.01077451 3.0616221 0)
(0.016160645 2.968821 0)
(0.013247686 2.867747 0)
(0.72067889 4.183825 0)
(1.2142585 3.2538005 8.5539009e-19)
(0.06858426 3.1228398 0)
(0.028210039 2.8983144 0)
(-0.012200311 1.8507812 0)
(-0.017677317 2.0850149 0)
(-0.015362665 1.95005 0)
(-0.019238276 2.7539312 -1.0792393e-20)
(-0.013607693 2.4587427 0)
(-0.016428125 2.6041453 0)
(-0.0028065211 2.1627919 2.8545497e-21)
(-0.0068952497 2.3889652 1.0050026e-20)
(-0.0081085416 2.3669777 1.917945e-21)
(-0.006090878 2.1463102 0)
(0.25029126 0.020807651 8.1942236e-19)
(0.04739513 -0.0093167633 -8.1320681e-19)
(0.30445075 1.7038059 0)
(0.20646207 0.93944844 -3.7808138e-19)
(0.22537753 1.8447856 -1.1733701e-18)
(0.13735191 1.399193 1.1772905e-18)
(0.29509012 -0.00027621363 0)
(0.49527752 0.0022934152 0)
(0.5015284 0.020191128 0)
(0.30453051 0.0080124625 0)
(0.0030135791 1.1974608 0)
(0.0021062957 1.1864983 0)
(0.0029448259 0.92061949 0)
(0.22390979 0.16893869 1.110581e-18)
(0.16256601 0.16765457 -1.3134924e-18)
(0.16366086 0.13500132 0)
(1.2305078 0.14077631 2.5737343e-20)
(1.1170003 0.11656042 0)
(1.0812327 0.095199473 0)
(0.74076798 0.035332647 0)
(0.22823125 -0.017326508 0)
(0.17551543 -0.044987692 -3.4077951e-18)
(-0.014973886 -0.013227825 1.3159001e-18)
(0.0021516105 2.9838856 1.0723274e-18)
(-0.0037893516 2.8638825 4.5020019e-20)
(0.0038314445 3.0539722 -2.2903363e-20)
(0.012748884 3.0472346 8.2459248e-19)
(-0.0094026225 2.9952523 4.0490668e-20)
(-0.008392406 2.9361628 -1.6255131e-22)
(-0.013162232 3.0201637 -7.6310885e-19)
(0.0012123536 3.0231361 5.5002791e-19)
(0.0066722069 3.0398391 -8.2518575e-19)
(0.72586029 0.029350248 0)
(0.68631395 0.031582109 0)
(0.36164288 0.016537773 0)
(0.47418482 0.01497459 0)
(0.43732254 0.046120156 0)
(0.28552995 0.0076478717 0)
(0.38435182 0.0025249803 0)
(0.39319383 0.018560219 0)
(0.20066104 0.0053421926 0)
(0.6956757 1.3577225 -1.5656988e-19)
(0.76230944 1.4379943 0)
(0.16547097 0.34997457 1.0833366e-19)
(0.34238041 0.77351421 8.2370563e-19)
(0.36001982 0.79886089 -4.8216889e-19)
(0.2252451 0.47334316 9.4013988e-19)
(0.42356876 0.97941861 2.2711405e-18)
(0.17166963 0.35562245 4.9976492e-19)
(0.30656203 0.086656626 1.2323758e-18)
(0.30954445 0.11772383 3.2851107e-19)
(0.16839332 0.050050037 6.22832e-19)
(1.4374743 0.5576634 2.2035626e-19)
(1.3129204 0.39726486 1.8679082e-19)
(0.021945532 2.3968774 2.7102742e-19)
(0.0098236396 2.1572495 0)
(0.97486585 0.065455564 0)
(0.88988315 0.054391349 0)
(0.64031183 0.030997789 0)
(0.0099841843 3.0770265 0)
(0.016937266 2.9388152 1.6077332e-18)
(0.016525861 2.9537397 0)
(0.013492334 2.8434226 -1.6048844e-18)
(0.0094067344 3.0918041 3.6798511e-19)
(0.0036542317 3.0887934 0)
(0.85134314 1.7236565 -8.2380657e-20)
(1.1134189 2.3283687 1.7256595e-20)
(0.83046858 1.8391781 -7.6176429e-19)
(0.013456956 2.9954662 -9.8409236e-19)
(0.03384406 3.0325615 0)
(0.011585502 2.8693692 0)
(-0.0094221648 2.3932895 -2.3218061e-20)
(-0.0041234184 2.3989201 -1.7510429e-20)
(-0.0015081706 2.2000938 -5.1885893e-22)
(0.3431789 1.5418077 1.1961603e-18)
(0.21210874 0.76029596 -8.2114551e-19)
(0.087957358 2.1640054 8.1856466e-19)
(0.16658236 2.0248324 -1.0071085e-18)
(0.082586509 1.6871914 1.2466568e-19)
(0.013483439 3.1145582 -2.4341672e-18)
(0.016296221 3.1195863 2.7555808e-18)
(-0.0088273715 2.9800807 1.1328852e-18)
(-0.0057027531 2.9768237 -1.1125803e-18)
(-0.0077442093 2.8756147 -1.1540878e-18)
(0.0043961701 3.105504 -2.8617394e-18)
(0.0092613407 3.1049825 2.8415515e-18)
(0.38553413 0.84943745 0)
(0.34278472 0.78652272 -1.8442396e-18)
(0.13977164 0.28862399 8.191676e-19)
(0.41580217 1.0982004 1.4293181e-18)
(0.19464427 0.44695565 -2.2216556e-18)
(1.3676002 0.22739032 4.0484326e-20)
(1.4302727 0.38324052 0)
(1.2638062 0.2384795 3.721851e-20)
(0.0064444923 2.4196577 -1.7883202e-21)
(0.0067146822 2.4085307 0)
(0.0037416061 2.1932065 0)
(0.39226514 1.4081073 -4.3165645e-19)
(0.42322751 1.2659805 -9.7035177e-19)
(0.20230077 0.58299577 1.7522431e-18)
(1.1921121 0.0076871273 0)
(1.3373627 0.0034042234 4.8486813e-19)
(-0.025279555 1.8094694 0)
(-0.039888391 1.8351898 0)
(1.5123618 0.00060827212 4.8192175e-21)
(1.0985321 0.015650198 1.094375e-18)
(-0.016511999 2.758891 1.3995774e-20)
(-0.015819066 2.8008039 0)
(0.05830306 3.1746297 7.9218186e-19)
(0.52189866 3.5312864 0)
(1.5889391 0.9098813 -4.0346494e-20)
(1.2689617 0.014421184 2.3066912e-20)
(1.3751693 0.027873885 0)
(1.9988497 0.010730693 1.0231181e-20)
(0.078806842 1.8353273 0)
(0.12183044 2.7672064 0)
(0.018810642 1.7819269 0)
(0.00024987386 2.8351085 3.8457274e-20)
(-0.021639928 2.7794863 1.9433034e-20)
(1.2468686 0.032417023 2.2235476e-20)
(1.475877 0.066728984 0)
(1.5404622 0.10315908 0)
(-0.0190883 2.1044215 0)
(-0.012197531 2.7941288 0)
(-0.0081318128 1.7962846 0)
(0.34495873 1.9679944 -3.165259e-19)
(1.2997506 0.011994667 0)
(1.0944348 0.010424642 0)
(1.9713962 0.013861953 6.3577751e-19)
(1.6587033 0.017831279 -7.2528098e-19)
(1.9059169 0.012084277 0)
(-0.014943947 1.9258794 0)
(-0.018099846 1.8255854 0)
(-0.014542967 1.875699 0)
(-0.011697245 1.7889331 0)
(-0.014244391 1.7720195 0)
(-0.018805433 1.7799074 0)
(1.4225283 0.044958659 0)
(1.2778338 0.028621787 2.0772225e-20)
(1.0666588 1.7193914 4.7657907e-19)
(1.9564892 0.004311521 -6.4930192e-19)
(1.7064161 -0.0025889383 7.8094092e-19)
(1.8969469 -0.0043320194 0)
(1.3015415 0.0064687576 6.5376221e-19)
(1.1771183 0.0030518481 -8.1543772e-19)
(0.92154411 0.02087309 0)
(-0.016349549 2.8313995 0)
(-0.018488078 2.8054659 -9.4451302e-21)
(-0.015660255 2.8242438 5.1088208e-21)
(1.7184766 0.386777 5.8650987e-19)
(1.6543849 0.18175398 0)
(0.070890756 3.0559314 -1.456382e-18)
(0.041701079 2.8535073 -1.014246e-19)
(0.17414766 3.178315 2.2293814e-18)
(0.16079793 3.240713 -3.5406408e-19)
(0.15782755 3.2813621 0)
(0.029930211 3.1338744 4.154118e-19)
(0.080573913 3.1730882 1.4312866e-18)
(0.076994358 3.1974895 -7.7337525e-19)
(0.046756263 3.1098684 0)
(0.63615932 0.27479962 0)
(0.57996319 0.34333009 0)
(1.5604578 0.98724353 5.5292132e-20)
(1.4954765 1.1226269 8.4189925e-21)
(1.6618226 0.80195194 0)
(1.6545889 0.72759357 0)
(1.2695926 0.022465573 -1.3075505e-18)
(1.077309 0.017721732 1.6770974e-18)
(1.3994597 0.025081578 0)
(1.2354718 0.023538286 0)
(2.00386 0.019440492 0)
(1.8761423 0.010425879 0)
(1.9362684 0.013094664 0)
(1.7252495 0.00036778259 0)
(1.6645394 0.0027857722 0)
(1.7969126 0.0023501946 0)
(0.066654507 1.8242875 0)
(0.04391893 1.8062368 0)
(0.11326514 1.8670592 0)
(0.12376342 1.87196 0)
(0.14351379 2.7933024 0)
(0.18198442 2.8697929 -4.9653205e-19)
(0.098653084 2.8655367 0)
(0.079830619 2.8796317 2.1584338e-19)
(0.026005929 2.8968123 -1.8222928e-19)
(0.017363561 1.7902592 0)
(0.018247037 1.7560276 0)
(0.017358296 1.7913387 0)
(0.020669624 1.7620449 0)
(-0.0025846219 2.28176 -1.0638827e-21)
(-0.021180305 2.8277958 -3.0077377e-20)
(-0.0057202139 2.8797021 3.3124119e-20)
(-0.0096707738 2.9092785 0)
(-0.020048938 2.831691 -4.9589966e-20)
(-0.018317647 2.8273814 -2.9496774e-21)
(-0.0004286495 2.2768435 5.5833355e-21)
(-0.017902407 2.5981862 3.9715477e-20)
(-0.023760753 2.6361621 -4.2086158e-20)
(1.2935852 0.030404604 1.370009e-18)
(1.0343695 0.028284882 -1.7208232e-18)
(1.2333203 0.036384864 -1.4619062e-18)
(1.097136 0.031629886 1.921841e-18)
(1.5082183 0.061654102 0)
(1.3594468 0.053018487 0)
(1.5616234 0.09523748 0)
(1.5203663 0.071641556 0)
(1.3672181 0.064871094 0)
(1.6576857 0.1672152 0)
(1.5832264 0.11520962 0)
(1.4571863 0.10293014 0)
(-0.016145436 2.6277474 5.6524905e-22)
(-0.016379005 2.2882981 0)
(-0.01499752 2.4556001 0)
(-0.012194698 2.8213592 -1.1196036e-21)
(-0.012315384 2.8327549 -2.8306614e-23)
(-0.0079391809 2.0075521 -2.0591936e-20)
(-0.015249401 1.9497697 2.0758265e-20)
(-0.018751806 1.8478061 0)
(-0.021174989 1.8549785 0)
(-0.020807278 1.8531623 0)
(-0.0058762719 1.7963742 0)
(-0.00086842378 1.7579889 0)
(0.49196992 1.9910061 5.3740342e-19)
(0.51589171 1.9839234 2.6844699e-19)
(0.59074557 2.638697 -2.7526579e-19)
(0.38198836 2.7733925 7.1643743e-19)
(0.42513526 2.2644745 9.8544599e-20)
(1.4101807 0.026734283 0)
(1.3363618 0.025745192 0)
(1.1467345 0.01692078 0)
(1.9819998 0.022439903 0)
(1.9616422 0.016370924 0)
(1.7258777 0.02173069 0)
(1.6347729 0.020449532 0)
(1.6491641 0.025381578 0)
(1.3254009 0.024161422 1.2624954e-18)
(1.0141359 0.036006087 -1.6048556e-18)
(1.2821831 0.035562932 -1.3306656e-18)
(1.0957436 0.027938875 1.71775e-18)
(1.0250743 1.7607553 0)
(0.89993721 1.8547694 4.8115123e-19)
(1.1842942 1.6386101 2.3110922e-19)
(1.2215521 1.5859573 -3.079061e-19)
(1.2661357 2.6841714 8.9768494e-19)
(0.76203678 0.06415956 8.7221232e-19)
(1.6700771 0.20535456 0)
(1.7237959 0.30281055 -4.5228021e-19)
(1.6334354 0.24739072 -1.7997672e-20)
(1.5495965 0.18102701 0)
(0.20457711 2.9266534 9.9982757e-19)
(0.092449256 2.8156952 -2.1129667e-18)
(0.019217275 2.3930336 1.3115551e-18)
(0.083491327 -0.19805377 -6.080091e-19)
(0.35740442 3.4508694 1.2687354e-20)
(0.22953624 3.3625988 0)
(0.24292971 3.4185677 -1.7861342e-20)
(0.25283018 3.0820023 -2.4544268e-18)
(0.38428334 3.1705714 0)
(0.013109858 3.1197372 7.4950886e-20)
(0.016186031 3.1323684 -7.9863806e-19)
(0.030264644 3.1184626 1.2413345e-18)
(0.03632438 3.1483721 0)
(0.033757659 3.1555161 0)
(1.3399445 2.7740808 0)
(0.77330699 1.0018012 -9.0202193e-19)
(1.3852082 1.3414695 -7.4735213e-20)
(1.3172726 1.4489937 0)
(1.2283058 1.3879161 -1.6499472e-19)
(1.4552474 1.2209887 3.8282555e-20)
(0.31912304 0.40716182 -1.4946781e-18)
(0.71724746 0.28817311 -2.1121204e-20)
(0.57330113 0.18711805 7.1279109e-19)
(0.60322109 0.38845098 5.1972365e-20)
(0.48157358 0.32977421 -2.1234596e-18)
(0.67813282 0.31370103 0)
(0.86579317 0.46701833 1.1914636e-18)
(0.8641367 0.4340492 0)
(0.65552971 0.35542048 0)
(0.53907493 0.25692346 0)
(1.2402755 0.85925962 7.067196e-19)
(1.7287768 0.42357694 -5.3620928e-19)
(1.7156791 0.60077001 0)
(1.6979963 0.52748468 0)
(0.70155218 0.1546148 1.0227864e-18)
(1.2428195 0.72443602 -6.6680328e-19)
(1.0121148 0.63040147 1.2066598e-18)
(1.4681081 0.56522059 -1.1925356e-18)
(1.2444245 0.018531296 8.6445959e-19)
(1.2266027 0.019540051 -8.9713793e-19)
(0.98185615 0.016991283 0)
(1.4523987 0.044366531 0)
(1.392161 0.033697981 -7.557994e-19)
(1.2036266 0.023455424 7.4660159e-19)
(1.8303636 0.034487606 0)
(1.7007263 0.021774383 0)
(1.9097862 0.010820464 0)
(1.6717264 0.017208679 0)
(1.9573516 0.026226896 0)
(1.9414397 0.022486034 0)
(0.036409082 1.804674 0)
(0.027893945 1.7796608 0)
(0.15476679 1.8576643 3.7936835e-20)
(0.3221435 1.9543111 1.6849203e-19)
(0.18346695 1.923369 3.7833501e-19)
(0.21582398 1.9354781 -6.0754171e-19)
(0.20095707 1.8909145 0)
(0.18452333 2.0409313 -6.165664e-20)
(0.15904582 2.0251086 0)
(0.39262321 2.2254883 -1.365167e-19)
(0.36528403 2.510003 6.8012246e-19)
(0.2469543 1.9816687 5.5266521e-20)
(0.3153246 1.9142574 6.4980478e-20)
(0.25379544 1.9008671 -5.2942744e-20)
(0.37339224 1.8948796 -9.9094374e-20)
(0.29595746 2.0275205 0)
(0.35100545 2.0361743 1.1029643e-19)
(0.036465283 2.5055906 -3.440534e-20)
(0.032250985 2.8890794 0)
(0.065684889 2.6078014 1.5306514e-19)
(0.05528326 2.6140321 0)
(0.057751489 2.900752 -2.4014421e-19)
(0.043397524 2.9396337 0)
(0.013841949 1.8620077 2.3253025e-20)
(0.016497829 1.9168035 0)
(0.020119147 1.8329112 0)
(0.015585401 1.8225503 -2.6381076e-20)
(0.0028686664 2.8672654 -2.3068981e-21)
(0.013094732 2.9013717 2.0966109e-19)
(0.0062309265 2.935833 1.4735985e-21)
(-0.0017732371 2.1699905 3.0291696e-21)
(-0.0052878804 2.0761728 -2.5270213e-21)
(0.016657668 1.7822091 0)
(0.014524178 1.746774 0)
(0.036529727 2.0119561 7.8640487e-21)
(0.020836369 1.8784207 -2.6953252e-20)
(0.025276244 1.9500602 2.3155088e-20)
(0.043990871 2.0306744 0)
(-0.033033252 2.4870687 3.1551778e-20)
(-0.02871908 2.7297334 2.32386e-21)
(-0.028914687 2.6503319 -2.9160052e-21)
(-0.0036445556 2.1720032 -3.584275e-21)
(-0.026003605 2.6802952 -4.0966255e-21)
(-0.02663907 2.6525856 3.9334067e-20)
(1.2311205 0.028748167 -9.2250569e-19)
(1.239091 0.021871142 9.1968175e-19)
(0.99434294 0.022472175 0)
(1.519068 0.087857533 1.4472641e-18)
(1.1766317 0.035120065 -1.5933099e-18)
(1.107432 0.028483068 1.801061e-18)
(1.5436145 0.11977796 -1.9676879e-19)
(1.4435554 0.044931673 0)
(1.4586398 0.052177888 7.5206772e-19)
(1.3275579 0.043289713 -7.4612042e-19)
(1.7330371 0.11258284 -4.5378885e-20)
(1.7006151 0.091626745 3.9234521e-19)
(1.8291189 0.11893387 0)
(1.8844579 0.11544178 -1.5193819e-19)
(1.7528454 0.063167541 0)
(1.6234351 0.048400168 0)
(1.8597876 0.035142077 0)
(1.6619813 0.034286833 0)
(1.8807365 0.074730711 3.0401582e-19)
(1.8608681 0.056647844 -6.4686012e-19)
(1.8722475 0.099571732 -3.0731696e-19)
(1.8730762 0.094133303 -3.577093e-19)
(1.8541147 0.14144276 6.9923224e-19)
(1.7239176 0.13624466 0)
(1.7726974 0.18588936 0)
(-0.026470074 2.48379 4.8836599e-20)
(-0.017700168 2.2998213 -1.2714816e-22)
(-0.018964975 2.2940651 0)
(-0.025176159 2.6676929 -5.0188102e-20)
(-0.017844575 2.6283602 -4.1294855e-22)
(-0.021874578 2.6602547 3.6278325e-21)
(-0.019595937 2.8415218 3.8926133e-21)
(-0.017655327 2.7568085 -1.983105e-21)
(-0.021242128 2.7240956 -5.092875e-22)
(-0.011996504 2.8328493 -4.3009137e-21)
(-0.019074706 2.8344185 6.9495286e-21)
(-0.011701756 1.9233562 -2.3276529e-21)
(-9.1994342e-05 2.0298124 -1.5818245e-20)
(0.50966118 1.9710295 -2.3046679e-19)
(0.47412938 1.9195692 5.951136e-20)
(0.86192542 1.8997542 -4.666756e-19)
(0.67831697 1.9774196 -2.5922503e-19)
(0.71619846 1.945843 0)
(0.64108935 2.597873 2.547506e-19)
(0.69618545 2.6159278 4.0225615e-19)
(0.44840555 2.7010817 1.1219251e-19)
(0.45987865 2.6981475 -7.0585918e-19)
(0.54570517 2.6272659 6.8799079e-19)
(0.55294834 2.6553167 0)
(0.48406187 2.7173622 -6.3754434e-19)
(0.22871831 2.7906694 1.2707947e-18)
(0.33554373 2.7737819 -5.0500522e-20)
(0.26988819 2.8659943 -1.7437745e-18)
(1.022317 2.5275559 1.074199e-18)
(0.88972983 2.5493573 0)
(1.9565976 0.029630052 2.4902565e-20)
(1.6633203 0.027617935 -2.1295792e-20)
(1.6838864 0.027471332 -3.7379282e-19)
(1.884391 0.035192196 3.7463101e-19)
(1.9914993 0.036607871 0)
(0.95174325 1.7704003 0)
(0.9583353 1.6801286 0)
(1.1417017 1.5811943 0)
(0.98756352 1.5791539 0)
(1.2725448 2.7151811 4.5859519e-21)
(1.1871397 2.5499779 0)
(0.93214628 2.2295852 6.8029586e-21)
(0.8785792 2.5070278 0)
(0.99251802 2.5763636 -5.6760385e-19)
(1.0201336 2.5641749 3.8760962e-19)
(0.77077031 0.10481695 0)
(0.72571018 0.10646666 2.4385373e-19)
(1.0678797 0.118831 1.3290064e-18)
(0.81200357 0.068011899 -5.3240679e-19)
(0.76186516 0.014443766 -1.5301577e-18)
(1.7497216 0.35344417 -1.1258909e-18)
(1.5853853 0.42326618 -2.9971841e-20)
(1.2800237 0.33271317 1.3691061e-18)
(1.5527036 0.302776 1.10006e-18)
(1.3014242 0.17531793 -1.7858154e-18)
(1.2397619 0.18920954 2.2744009e-19)
(1.2760928 0.26043307 -5.0764808e-19)
(1.2753047 0.22961658 0)
(1.5458967 0.22203064 8.7598967e-19)
(1.6812811 0.26478315 0)
(1.6755313 0.31542897 0)
(1.7461284 0.22549422 3.425716e-19)
(1.8130352 0.27782421 -2.2913806e-20)
(1.7840182 0.3524902 -1.9833812e-19)
(1.758585 0.32196249 0)
(1.5740184 0.05400677 7.4347889e-19)
(1.838309 0.099943127 8.9700102e-19)
(1.7859258 0.073607921 -7.0651131e-19)
(1.7838863 0.11817921 -6.1112147e-19)
(1.5644106 0.086768404 -1.0376096e-18)
(1.4159393 0.14097191 0)
(1.4393311 0.13004815 0)
(1.1272687 0.047180475 -6.5251095e-19)
(1.0084046 0.041184571 2.674483e-19)
(1.7064334 0.14676894 8.9742452e-19)
(1.8326861 0.2163576 -1.0113069e-18)
(1.8018007 0.2291841 9.2884732e-19)
(1.7315898 0.21123659 0)
(1.8257511 0.18150801 0)
(1.8534874 0.1616009 -3.9652659e-19)
(1.8138162 0.1512725 -7.3161338e-19)
(0.7442104 1.4510536 2.7852956e-19)
(0.81068107 1.7799693 -3.0493254e-19)
(1.1729993 2.7426978 -3.464241e-19)
(1.288078 3.1016508 6.8794186e-20)
(1.3334935 2.7951442 -7.0221349e-19)
(1.3831303 2.8604781 1.0948587e-19)
(1.2556282 2.5364872 2.3643586e-20)
(1.3214377 3.0241339 -2.6559958e-19)
(1.3318513 3.0437173 4.9589169e-19)
(1.3037079 3.3075511 -3.7705219e-20)
(1.4176536 3.0743586 3.8928779e-20)
(1.4314591 3.0026007 0)
(0.77621965 1.0814324 -8.3817124e-20)
(0.2079693 1.3006959 8.7904654e-19)
(0.6623457 0.56782837 9.9621249e-19)
(0.44420966 0.14976718 1.1031353e-18)
(0.52562627 0.39071008 1.1975936e-18)
(0.64797864 0.51993961 -1.9746844e-18)
(0.63406584 0.51896914 1.6027382e-18)
(0.52963594 0.41755529 -6.061445e-19)
(0.36704302 0.30996792 1.3782723e-18)
(0.74143209 0.20501375 -5.7929644e-19)
(0.70686693 0.22953746 0)
(0.58861581 0.16804771 9.7041667e-21)
(0.93829039 0.61432095 6.3718372e-19)
(0.8716363 0.53701682 -2.3244048e-18)
(0.70781824 0.52251749 1.3479958e-20)
(0.72214072 0.50137422 0)
(0.95675175 1.0228164 7.1036832e-19)
(1.2612688 1.1179972 6.2285437e-19)
(1.1578257 1.2366193 -7.1728456e-19)
(1.3263143 1.153442 -2.4098587e-19)
(1.381499 1.2223989 -4.9381303e-20)
(1.3625068 1.2182712 4.9829459e-20)
(1.3487941 0.92745631 -1.1587883e-18)
(1.3879635 1.0376572 2.2624497e-19)
(1.4793027 1.045453 0)
(1.5072431 0.99431945 -2.8488327e-19)
(1.6413644 0.45777603 3.2821321e-19)
(1.7496465 0.45533745 3.3991155e-19)
(1.7457839 0.42141109 4.7928048e-19)
(1.6275786 0.55013309 -6.6337084e-19)
(1.648327 0.61644803 0)
(1.6804733 0.59212867 0)
(1.2574791 0.46172181 2.65343e-20)
(1.0829846 0.31290655 0)
(1.1549141 0.29253741 6.6502779e-19)
(1.262413 0.34297286 -1.6111971e-20)
(1.4649125 0.61290779 3.09114e-18)
(1.3720322 0.71211732 8.6992695e-19)
(1.3376436 0.61374085 -9.856627e-19)
(1.0962309 0.53679948 1.0753297e-18)
(1.0450737 0.53012433 6.3727335e-19)
(0.97194791 0.46536125 -6.2521778e-19)
(1.6842541 0.042807135 6.2951454e-19)
(1.9527887 0.040821861 0)
(1.9200918 0.046760893 4.2860214e-19)
(1.7029347 0.042698613 -9.5712391e-19)
(1.9371618 0.040228478 4.7784423e-19)
(1.8741246 0.024073914 -1.0153258e-18)
(1.6887909 0.024980353 0)
(1.5729626 0.028182045 -2.1298092e-19)
(1.8396623 0.020892652 5.3032065e-19)
(1.6656679 0.022107953 -2.74409e-19)
(1.6023825 0.028203202 2.0108109e-19)
(0.019038174 1.7857945 0)
(0.02100668 1.8075975 0)
(0.023877781 1.7886452 0)
(0.02057169 1.7658071 0)
(0.059403215 1.8391849 -1.0027443e-19)
(0.072415949 1.8215179 4.0616826e-20)
(0.13310873 1.9585147 -9.695233e-21)
(0.10962528 1.8503057 -1.8239594e-20)
(0.027610311 1.8894744 2.8046124e-20)
(0.029610844 1.8862495 -2.1813531e-20)
(0.051736593 1.8225051 -1.8470117e-20)
(0.041333484 1.8196153 8.0481603e-20)
(0.031410069 1.8025672 1.1331876e-20)
(0.02324855 1.8143022 4.675928e-21)
(0.094081099 2.5529917 -1.6450665e-19)
(0.099649766 2.5841097 0)
(0.16922054 2.3070577 1.0732891e-19)
(0.1536686 2.1112872 5.3603686e-20)
(0.28700143 2.2674869 -1.0121251e-19)
(0.23788611 2.6119778 0)
(0.28254813 2.5983268 -6.5952963e-19)
(0.33504568 2.4922492 4.7435044e-19)
(0.24490439 2.2363217 -2.4976079e-19)
(0.18848164 2.387883 1.7770457e-19)
(0.17387278 2.5051681 0)
(0.013385354 2.2444564 -4.7247232e-20)
(0.013633072 2.6137899 -7.9745466e-20)
(0.0077448708 2.3871433 0)
(0.013097205 2.6722413 -1.5809686e-20)
(0.031179705 2.5122982 3.557705e-20)
(0.0087388518 1.8465342 -5.9146163e-21)
(0.0088489161 1.8405136 9.8817738e-20)
(0.009786272 1.8492556 -3.2481669e-20)
(0.0099080021 1.8452233 -2.9860108e-20)
(0.01425626 1.8697866 0)
(0.0051154968 1.8292988 0)
(0.0023108079 1.7840257 -4.4051698e-20)
(0.0011783776 1.8275225 1.2024296e-20)
(0.0043063917 1.827517 0)
(0.01040565 1.777999 -3.3164254e-20)
(0.0069106136 1.7463848 6.8284493e-20)
(1.6705227 0.059071084 0)
(1.662633 0.061169168 -6.9306074e-20)
(1.9478756 0.068091815 -5.3940763e-19)
(1.8341746 0.076206201 0)
(1.6874481 0.066666846 0)
(1.9132334 0.056354424 -1.5363112e-21)
(1.9149138 0.056101275 8.1982996e-19)
(1.7835955 0.041720336 1.0470397e-18)
(1.6569427 0.037652655 0)
(1.5787724 0.043867707 0)
(1.7725452 0.054644009 5.3318735e-19)
(1.6131642 0.053097225 0)
(1.5763762 0.040373971 0)
(-0.019298809 2.2931767 0)
(-0.0032279432 2.0581937 -8.7597108e-21)
(-0.013601906 2.1782077 -1.3888549e-20)
(-0.00097371848 1.8391796 0)
(-0.010737217 1.9718894 -1.2780257e-20)
(-0.010282971 1.9046018 7.6893959e-21)
(-0.0053796205 1.8434689 0)
(0.51451805 1.9135399 0)
(0.49219221 1.8297118 -1.5380444e-19)
(0.43860791 1.7726587 0)
(0.59531394 1.8601963 3.1952335e-20)
(0.6571764 1.9678031 0)
(0.6083963 1.939596 4.1565005e-20)
(1.1085037 2.7712285 -2.2250485e-20)
(1.0428931 2.5440236 -1.2362364e-18)
(1.0420694 2.4413675 1.4272634e-18)
(0.92030746 2.5340616 3.4710159e-19)
(0.90719657 2.5787244 0)
(0.97276986 2.5573379 0)
(0.99697291 2.5325399 0)
(0.97647295 2.5357727 -1.258505e-18)
(0.74026123 2.523847 -5.6547387e-19)
(0.85900252 2.5478854 -1.3324635e-19)
(0.86150043 2.4998011 1.0662672e-19)
(0.74615508 2.5745385 0)
(0.84657903 2.5626212 0)
(0.80163851 2.5870674 -4.4245032e-19)
(0.80359345 2.5766911 0)
(0.92365455 1.5144854 0)
(0.71238565 1.198218 -8.7800992e-19)
(0.82174419 1.2505093 -5.3112657e-20)
(0.76774721 1.3620577 0)
(0.73690836 1.2988359 1.340282e-18)
(1.1750477 1.2843389 -1.9750063e-19)
(1.1531189 1.4286358 0)
(1.1712091 1.374141 2.8582828e-19)
(0.98225223 1.4604958 0)
(0.99483881 1.3313041 0)
(1.2437653 2.7880977 -3.9417879e-19)
(1.2033663 2.8245796 -2.9119289e-19)
(0.99553493 2.3263767 5.0952732e-19)
(0.99733153 2.3607205 -1.6855792e-19)
(1.2159726 2.7777405 0)
(1.1742105 2.7325023 2.1374397e-19)
(1.2000074 2.6187334 -3.8106923e-19)
(1.1159728 2.471044 -2.8193734e-20)
(0.68886493 1.6620256 0)
(0.71222125 1.4803954 -2.4515611e-19)
(0.82099105 1.6314008 0)
(1.0778653 0.23028334 0)
(0.74018714 0.12628617 0)
(0.56645207 0.096901876 0)
(1.0590021 0.23561429 -1.0371352e-18)
(0.77092394 0.16147597 6.0143481e-19)
(1.0269503 0.03844807 -5.3043494e-19)
(1.138614 0.10000319 0)
(1.1177291 0.11087624 2.34501e-19)
(0.85732532 0.031418927 9.4500735e-19)
(0.76826624 0.017246605 -5.9771704e-19)
(1.3071243 3.4315711 -2.4254417e-19)
(1.293267 3.3637483 0)
(1.3256272 3.3881611 -5.8701984e-19)
(0.52092324 3.4941425 5.4965152e-19)
(0.75879242 3.0277505 -4.0635614e-19)
(0.6514212 1.028525 1.0345564e-18)
(0.61057904 1.0702416 0)
(0.46778223 0.48802269 -2.7270692e-19)
(0.61860267 0.86336532 1.4974966e-18)
(0.66518466 0.46402461 -3.5812591e-19)
(0.60194222 0.60819784 4.1816777e-19)
(0.79431706 0.60710411 8.6553969e-19)
(0.89186402 0.65777069 0)
(0.8380426 0.73348081 0)
(0.73450263 0.65665363 0)
(1.5352036 0.87343215 8.185084e-20)
(1.4169471 0.78669041 -8.2614639e-19)
(1.4272055 0.83746886 6.1567205e-19)
(1.4914729 0.7379626 -6.2215559e-19)
(1.6255165 0.73728932 0)
(1.6320208 0.80686557 -1.4000721e-19)
(1.0938638 0.47831797 -1.4122039e-18)
(1.1295406 0.47414168 -1.6793027e-18)
(1.012801 0.42432414 1.1058787e-18)
(1.0033954 0.38895501 -1.12168e-18)
(1.0810511 0.34748633 -8.6941571e-19)
(0.97621935 0.32761595 1.0795761e-18)
(1.9192972 0.041335062 -5.101363e-19)
(1.9498085 0.044148783 1.0312592e-18)
(1.6893869 0.043418928 6.3873502e-19)
(1.7064225 0.049976807 -7.5991056e-19)
(1.8010905 0.059832046 0)
(1.9501027 0.057944214 -1.332079e-18)
(0.068878065 2.0830671 1.7423879e-20)
(0.058578669 2.0170099 0)
(0.10464766 2.0784618 2.2032073e-19)
(0.11888907 2.0729818 -2.0079295e-19)
(0.09493532 1.980454 1.7161043e-20)
(0.080135441 1.9686471 0)
(0.00013563477 2.0820577 0)
(-0.0022147585 1.9177964 4.8057218e-21)
(-0.0025805716 1.8868758 -4.3483457e-21)
(-0.010969524 1.9717293 5.3180621e-21)
(-0.010674659 2.2154718 5.6806893e-21)
(-0.010678765 2.2372553 3.3521799e-21)
(0.6947878 1.7100503 -5.6553384e-19)
(0.64971121 1.7386379 5.9712929e-19)
(0.63508557 1.8291394 -3.6934778e-20)
(0.61670721 1.7213696 1.931428e-20)
(0.88603905 1.8149107 0)
(0.75011111 1.9137907 2.1265633e-19)
(0.80790774 1.9043925 -2.0644816e-19)
(0.69087552 1.866098 3.6666516e-20)
(0.7537384 1.757646 0)
(0.81789679 1.7300654 0)
(0.71925617 2.4974138 8.2778805e-19)
(0.71374627 2.5714498 1.496672e-18)
(0.76076933 2.5670274 -1.0756479e-18)
(0.63302076 2.580764 -2.2308156e-19)
(0.62463606 2.6296251 3.6899408e-19)
(0.577907 2.6088315 -9.2641033e-19)