/*--------------------------------*- C++ -*----------------------------------*\
  =========                 |
  \\      /  F ield         | OpenFOAM: The Open Source CFD Toolbox
   \\    /   O peration     | Website:  https://openfoam.org
    \\  /    A nd           | Version:  9
     \\/     M anipulation  |
\*---------------------------------------------------------------------------*/
FoamFile
{
    format      ascii;
    class       volScalarField;
    location    "20";
    object      p;
}
// * * * * * * * * * * * * * * * * * * * * * * * * * * * * * * * * * * * * * //

dimensions      [0 2 -2 0 0 0 0];

internalField   nonuniform List<scalar> 
400
(
1.2427209e-06
-0.00067144835
-0.0013838685
-0.0019411752
-0.0022184225
-0.0021548809
-0.0017261478
-0.00092454091
0.00023708209
0.0017090566
0.0033889178
0.0051138058
0.0066750719
0.0078506967
0.0084600067
0.0084253452
0.0078151139
0.006846291
0.0058631086
0.005300766
0.00065921029
-3.9109621e-05
-0.00056821029
-0.00093913716
-0.0011093346
-0.0010383531
-0.00070418679
-9.3913573e-05
0.00079074723
0.0019178395
0.003211236
0.0045563493
0.0057836052
0.0067179064
0.0072160953
0.0072162353
0.0067717046
0.0060545603
0.0053123472
0.0047403206
0.0014250345
0.00044203494
-0.00011517945
-0.00045178479
-0.00061330878
-0.00058326756
-0.00034499249
0.00012137014
0.00083011575
0.0017715792
0.0028959699
0.0040998437
0.005229921
0.0061126631
0.0065955772
0.0065994024
0.0061575136
0.0054233261
0.0045955932
0.0037500997
0.0020154911
0.00068304481
1.8169038e-05
-0.00035741239
-0.00057006092
-0.00062501771
-0.00050848412
-0.00018897817
0.00037019923
0.0011861127
0.0022316525
0.0034191677
0.004593105
0.0055586833
0.0061253093
0.0061683405
0.0056854349
0.0048189048
0.0037491841
0.0024755211
0.0021685399
0.00049746683
-0.00029486365
-0.00074726223
-0.0010567509
-0.0012436985
-0.0012911017
-0.0011495821
-0.00075326792
-5.1274366e-05
0.00095887049
0.0022121296
0.0035465459
0.0047344903
0.0055236699
0.005711723
0.0052311529
0.0042035095
0.0028081322
0.00098595476
0.0016552411
-0.00031311083
-0.0012373669
-0.0017978235
-0.0022511096
-0.0026262655
-0.0028968771
-0.0029892408
-0.0028006122
-0.0022356939
-0.0012490855
0.00013290521
0.0017466379
0.0033290714
0.0045435795
0.0050677041
0.0047194323
0.0035681676
0.0017916086
-0.00072384616
0.00028835867
-0.0019181448
-0.0029715146
-0.0036698297
-0.0043186495
-0.004951436
-0.0055282253
-0.0059459299
-0.00605687
-0.0057051687
-0.0047734586
-0.0032564428
-0.001264293
0.00090933644
0.0028252244
0.0039888878
0.0040271285
0.0028897573
0.00071747196
-0.0026783332
-0.0020749907
-0.0044496676
-0.0056252168
-0.0064906528
-0.0073911337
-0.0083638302
-0.0093548248
-0.010229522
-0.010788567
-0.010802336
-0.010060803
-0.0084592023
-0.006038257
-0.0030807942
-0.00012398842
0.002114846
0.0029659878
0.0021377267
-0.0003638565
-0.0048703482
-0.0055225764
-0.0079904533
-0.0092761955
-0.010331968
-0.011536037
-0.01293328
-0.014460376
-0.01595379
-0.017159758
-0.017763197
-0.017435178
-0.015916568
-0.013120112
-0.0092490244
-0.0048964193
-0.0010275771
0.0012717292
0.0012800206
-0.0013316937
-0.0071993261
-0.010075135
-0.012563271
-0.013934778
-0.015182012
-0.01671623
-0.018600272
-0.020771624
-0.023045966
-0.025118685
-0.026583196
-0.026966111
-0.025809693
-0.022842497
-0.018071401
-0.012048222
-0.0059492804
-0.0013682437
0.00030297015
-0.0019448588
-0.0093798047
-0.015683007
-0.018130415
-0.019535503
-0.020924648
-0.022755412
-0.025127333
-0.027994218
-0.031163373
-0.034288223
-0.036873437
-0.038290668
-0.037840747
-0.035062415
-0.029598176
-0.021819401
-0.012982705
-0.005182323
-0.00071326953
-0.0017617983
-0.010789807
-0.022241425
-0.024610879
-0.025943392
-0.027332654
-0.029321695
-0.032076545
-0.035586006
-0.039661464
-0.04392387
-0.047797742
-0.050526552
-0.051232874
-0.048953339
-0.043140159
-0.033765826
-0.021923379
-0.010034149
-0.0014129098
-7.4545552e-06
-0.010223206
-0.029638878
-0.031921612
-0.032976441
-0.034077476
-0.035936966
-0.03882877
-0.042792626
-0.047648349
-0.052987091
-0.058160007
-0.062280618
-0.064261947
-0.062871694
-0.057108897
-0.046473652
-0.031646206
-0.015035186
-0.00086190095
0.0046491137
-0.0055192431
-0.037863554
-0.040046153
-0.040437793
-0.040750116
-0.042012514
-0.044650347
-0.048755252
-0.054140886
-0.060352667
-0.066661869
-0.072057201
-0.075264887
-0.074808137
-0.069266254
-0.05762551
-0.039958904
-0.018245529
0.0027913427
0.014447344
0.0069096315
-0.047228094
-0.049131981
-0.048138264
-0.046879984
-0.046903086
-0.048796102
-0.052665486
-0.058272992
-0.065072901
-0.072228705
-0.0785925
-0.08270919
-0.082877304
-0.077306752
-0.064521554
-0.04393277
-0.016745935
0.012504923
0.032940695
0.032410751
-0.05889435
-0.059637567
-0.055881692
-0.051938909
-0.049970125
-0.050627513
-0.053926052
-0.059492522
-0.06660886
-0.074282216
-0.081188134
-0.085676544
-0.085829207
-0.079519925
-0.064874136
-0.040687534
-0.0072393264
0.032140935
0.064983005
0.077750656
-0.076224235
-0.072611599
-0.063514146
-0.055433457
-0.050723099
-0.049779514
-0.052310009
-0.057661775
-0.06488903
-0.072772093
-0.079776539
-0.084034109
-0.083389312
-0.075346977
-0.057601037
-0.028373783
0.012934507
0.065397673
0.11555271
0.15150739
-0.10809018
-0.089554492
-0.071232103
-0.057231357
-0.049070467
-0.046328389
-0.048075175
-0.053200234
-0.060432026
-0.068293162
-0.07502473
-0.078524433
-0.07638682
-0.065807852
-0.043864024
-0.0078172968
0.04439463
0.11299907
0.18838137
0.27186168
-0.17684365
-0.10828802
-0.076201039
-0.054649866
-0.042990948
-0.038996405
-0.040568605
-0.045925841
-0.053439096
-0.06143579
-0.068025034
-0.070960171
-0.06754904
-0.05473806
-0.029147387
0.013564722
0.078147873
0.17006518
0.28949628
0.47421905
-0.37208163
-0.12470678
-0.05497162
-0.031961217
-0.022062238
-0.020299027
-0.024357688
-0.031955931
-0.041259236
-0.050638407
-0.058314396
-0.062185066
-0.059780378
-0.048054973
-0.022657032
0.021475408
0.092819705
0.21015364
0.40288927
0.77641015
)
;

boundaryField
{
    movingWall
    {
        type            zeroGradient;
    }
    fixedWalls
    {
        type            zeroGradient;
    }
    frontAndBack
    {
        type            empty;
    }
}


// ************************************************************************* //
