/*--------------------------------*- C++ -*----------------------------------*\
  =========                 |
  \\      /  F ield         | OpenFOAM: The Open Source CFD Toolbox
   \\    /   O peration     | Website:  https://openfoam.org
    \\  /    A nd           | Version:  9
     \\/     M anipulation  |
\*---------------------------------------------------------------------------*/
FoamFile
{
    format      ascii;
    class       surfaceScalarField;
    location    "20";
    object      phi;
}
// * * * * * * * * * * * * * * * * * * * * * * * * * * * * * * * * * * * * * //

dimensions      [0 3 -1 0 0 0 0];

internalField   nonuniform List<scalar> 
760
(
1.2694745e-05
-1.2709169e-05
-2.8727163e-05
4.1421914e-05
-0.00012229124
9.3564085e-05
-0.00025039063
0.00012809941
-0.00039606442
0.00014567381
-0.00054537563
0.00014931123
-0.00068625161
0.000140876
-0.00080686848
0.00012061689
-0.0008949264
8.8057928e-05
-0.00093836377
4.3437392e-05
-0.00092724891
-1.1114839e-05
-0.00085683951
-7.0409391e-05
-0.00073041169
-0.00012642782
-0.00056133008
-0.00016908161
-0.00037275474
-0.00018857533
-0.00019447345
-0.00017828127
-5.6524367e-05
-0.00013794906
1.9611386e-05
-7.6135743e-05
3.040962e-05
-1.0798226e-05
3.0409635e-05
-4.3185015e-05
3.0475853e-05
-0.00020456289
0.00020279981
-0.00046831106
0.00035731227
-0.00080068125
0.00046046961
-0.0011673098
0.00051230238
-0.0015363949
0.00051839629
-0.0018781606
0.00048264178
-0.0021636055
0.00040606182
-0.002364462
0.00028891439
-0.0024552681
0.00013424357
-0.0024180657
-4.8317259e-05
-0.0022452907
-0.00024318434
-0.0019475019
-0.00042421653
-0.0015544296
-0.00056215385
-0.0011142968
-0.00062870815
-0.00068746316
-0.0006051149
-0.00033452298
-0.0004908892
-0.00010089824
-0.00030976044
-1.5533869e-06
-0.00011014304
2.8856261e-05
-0.0001100247
0.00014050055
-0.00040301865
0.00049579379
-0.00083135915
0.00078565279
-0.0013455689
0.00097467942
-0.0018985298
0.0010652633
-0.0024464924
0.0010663588
-0.002947927
0.00098407641
-0.0033625005
0.00082063543
-0.0036517655
0.00057817937
-0.0037821921
0.00026467024
-0.0037297045
-0.00010080486
-0.0034857056
-0.00048718322
-0.0030631851
-0.00084673703
-0.0024999249
-0.001125414
-0.0018581876
-0.0012704455
-0.0012181171
-0.0012451854
-0.00066372475
-0.0010452815
-0.0002630868
-0.00071039835
-4.7956761e-05
-0.00032527305
-1.9100486e-05
-0.00017343329
0.00031393384
-0.00059327001
0.00091563052
-0.0011776508
0.0013700336
-0.0018583006
0.0016553292
-0.0025768138
0.0017837765
-0.0032811891
0.0017707341
-0.0039226542
0.0016255415
-0.0044539817
0.0013519629
-0.0048300967
0.0009542945
-0.0050110701
0.00044564367
-0.0049670965
-0.00014477847
-0.0046842891
-0.00076999065
-0.0041722262
-0.0013587998
-0.0034690292
-0.001828611
-0.0026439392
-0.0020955354
-0.0017931566
-0.002095968
-0.0010258277
-0.0018126105
-0.00044020659
-0.0012960194
-9.6722664e-05
-0.00066875694
-0.00011582313
-0.00022978619
0.00054372003
-0.00076504434
0.0014508887
-0.0014914277
0.0020964169
-0.0023224599
0.0024863614
-0.0031900234
0.00265134
-0.0040366785
0.0026173893
-0.0048098708
0.0023987338
-0.0054587831
0.0020008753
-0.0059339919
0.0014295033
-0.0061896232
0.00070127495
-0.0061882128
-0.00014618879
-0.0059054003
-0.0010528031
-0.005340261
-0.0019239392
-0.0045229896
-0.0026458823
-0.0035228823
-0.0030956427
-0.0024497423
-0.0031691079
-0.0014425045
-0.0028198482
-0.00064121677
-0.0020973071
-0.00014883392
-0.0011611398
-0.00026465703
-0.00027728653
0.00082100656
-0.00091151145
0.0020851137
-0.0017606639
0.0029455695
-0.0027227095
0.0034484069
-0.0037220803
0.0036507109
-0.0046985356
0.0035938446
-0.0055987095
0.0032989077
-0.0063709936
0.0027731594
-0.0069635229
0.0020220326
-0.0073246305
0.0010623826
-0.0074072612
-6.3558043e-05
-0.0071715083
-0.0012885559
-0.0065987204
-0.002496727
-0.0057015374
-0.0035430654
-0.0045399076
-0.0042572724
-0.0032317643
-0.0044772512
-0.0019489745
-0.004102638
-0.00088726701
-0.0031590146
-0.00021158939
-0.0018368174
-0.0004762464
-0.00031410342
0.00113511
-0.0010262999
0.0027973102
-0.0019734355
0.0038927051
-0.003041647
0.0045166184
-0.0041505765
0.0047596405
-0.0052397751
0.0046830433
-0.0062578822
0.0043170148
-0.0071553192
0.0036705964
-0.007880153
0.0027468664
-0.0083766273
0.001558857
-0.00858518
0.0001449947
-0.0084511229
-0.001422613
-0.007929321
-0.0030185289
-0.0070048096
-0.0044675767
-0.0057149194
-0.0055471627
-0.0041734905
-0.00601868
-0.0025817881
-0.0056943403
-0.001204078
-0.0045367246
-0.0002944973
-0.002746398
-0.00077074368
-0.00033823641
0.0014733464
-0.0011031314
0.0035622052
-0.0021175643
0.004907138
-0.0032597865
0.0056588406
-0.0044472727
0.0059471267
-0.005621801
0.0058575716
-0.0067367674
0.0054319813
-0.0077477716
0.0046816007
-0.0086061719
0.0036052668
-0.009255047
0.0022077322
-0.009626815
0.00051676272
-0.0096490157
-0.0014004124
-0.0092488047
-0.0034187397
-0.0083737872
-0.0053425941
-0.0070219422
-0.0068990076
-0.0052817146
-0.0077589076
-0.0033676022
-0.0076084527
-0.0016173312
-0.0062869956
-0.00040826022
-0.003955469
-0.0011790039
-0.00034814653
0.0018214929
-0.0011371845
0.0043512432
-0.0021827318
0.0059526853
-0.003358536
0.0068346448
-0.0045821337
0.0071707245
-0.0057996929
0.0070751308
-0.0069720506
0.0066043389
-0.0080635147
0.0057730648
-0.0090332843
0.0045750365
-0.0098288363
0.0030032843
-0.01038112
0.0010690465
-0.010604376
-0.001177156
-0.010400636
-0.0036224805
-0.0096747638
-0.0060684658
-0.0083685585
-0.0082052128
-0.0065155909
-0.0096118752
-0.0043098184
-0.0098142252
-0.0021482879
-0.0084485261
-0.0005649149
-0.0055388419
-0.0017439187
-0.00034392921
0.0021654221
-0.0011278411
0.0051351552
-0.0021646744
0.0069895186
-0.0033258491
0.0079958195
-0.0045307339
0.0083756094
-0.0057318638
0.0082762609
-0.0069001336
0.0077726087
-0.0080122906
0.0068852218
-0.0090407356
0.0056034815
-0.0099448786
0.0039074274
-0.010663309
0.0017874769
-0.011106661
-0.00073380421
-0.011163335
-0.0035658058
-0.010697043
-0.0065347584
-0.009582516
-0.0093197395
-0.0077667015
-0.01142769
-0.0053714419
-0.012209485
-0.0028071433
-0.011012825
-0.00077835736
-0.0075676278
-0.0025222761
-0.00032890742
0.0024943296
-0.0010824179
0.0058886657
-0.0020707683
0.0079778691
-0.0031635982
0.0090886493
-0.0042838826
0.0094958938
-0.0053928321
0.0093852105
-0.0064741203
0.0088538971
-0.007520532
0.0079316336
-0.0085229075
0.006605857
-0.0094603395
0.0048448595
-0.010291331
0.0026184682
-0.010933222
-9.1912419e-05
-0.011283202
-0.0032158256
-0.011173614
-0.0066443471
-0.010415682
-0.010077671
-0.0088466957
-0.012996676
-0.0064557129
-0.014600468
-0.003581497
-0.01388704
-0.0010642112
-0.010084914
-0.0035864873
-0.00031178923
0.0028061188
-0.0010206921
0.0065975687
-0.0019261209
0.008883298
-0.0028949769
0.010057505
-0.0038569179
0.010457835
-0.0047856069
0.010313899
-0.0056808193
0.0097491097
-0.0065545187
0.0088053331
-0.007419962
0.0074713003
-0.008281905
0.0057068025
-0.0091252379
0.0034618012
-0.0099087223
0.00069157207
-0.010527328
-0.0025972194
-0.010827068
-0.0063446071
-0.01057366
-0.010331079
-0.0094932157
-0.01407712
-0.0073911272
-0.016702556
-0.0044188969
-0.016859271
-0.0014372019
-0.013066609
-0.0050236891
-0.00031005328
0.0031161721
-0.00098039423
0.0072679096
-0.001779099
0.0096820028
-0.0025694361
0.010847843
-0.0032946845
0.011183083
-0.0039480029
0.010967218
-0.0045500925
0.010351199
-0.0051349218
0.0093901627
-0.0057400677
0.0080764463
-0.0063986794
0.0063654143
-0.0071302844
0.0041934062
-0.0079304127
0.0014917003
-0.0087389476
-0.0017886845
-0.0094304803
-0.0056530743
-0.0097686739
-0.0099928856
-0.0094004021
-0.014445392
-0.0079306042
-0.018172354
-0.0052061622
-0.019583713
-0.0019026067
-0.016370164
-0.0069262958
-0.00035605536
0.0034722276
-0.0010240409
0.0079358951
-0.0017043065
0.010362268
-0.0022609063
0.011404443
-0.0026658579
0.011588035
-0.0029441703
0.01124553
-0.0031444296
0.010551458
-0.0033250624
0.0095707955
-0.0035473976
0.0082987816
-0.0038712549
0.0066892717
-0.0043493789
0.0046715304
-0.0050185815
0.002160903
-0.005876801
-0.0009304649
-0.0068580028
-0.0046718724
-0.0077764268
-0.0090744615
-0.0082659367
-0.013955882
-0.0077688
-0.01866949
-0.0057511222
-0.02160139
-0.0024366727
-0.019684614
-0.0093629685
-0.00050827957
0.0039805072
-0.0012456855
0.0086733012
-0.0017959793
0.010912562
-0.0020481355
0.011656599
-0.0020326785
0.011572578
-0.0018256278
0.01103848
-0.0015124158
0.010238246
-0.0011780972
0.0092364768
-0.00090495639
0.0080256408
-0.0007739625
0.0065582779
-0.00086372588
0.0047612938
-0.0012475821
0.0025447593
-0.0019830405
-0.00019500644
-0.003082056
-0.0035728569
-0.0044601926
-0.007696325
-0.0058276134
-0.012588461
-0.0065662488
-0.017930855
-0.0057684891
-0.02239915
-0.0029512346
-0.022501868
-0.012314203
-0.00086857251
0.0048490797
-0.0017630403
0.0095677693
-0.0021214571
0.011270979
-0.0019369918
0.011472133
-0.0013511077
0.010986694
-0.00051640895
0.010203781
0.00043680353
0.0092850342
0.0013993651
0.0082739153
0.0022721269
0.0071528791
0.0029606717
0.0058697331
0.0033689191
0.0043530465
0.0033965842
0.0025170944
0.0029383492
0.00026322859
0.001909435
-0.0025439426
0.00026953206
-0.006056422
-0.001854289
-0.01046464
-0.0039516882
-0.015833456
-0.0048608864
-0.021489952
-0.0032547195
-0.024108035
-0.015568923
-0.0015910987
0.0064401783
-0.0026109011
0.010587572
-0.0025132259
0.011173305
-0.0015900389
0.010548946
-0.00017234197
0.0095689965
0.0014925977
0.0085388415
0.0032326729
0.0075449589
0.0049230014
0.0065835869
0.0064627597
0.005613121
0.0077572723
0.0045752205
0.0087072931
0.0034030257
0.009201301
0.0020230866
0.0091031682
0.00036136136
0.0082749396
-0.001715714
0.0065653318
-0.0043468142
0.0039041299
-0.0078034378
0.00055887686
-0.012488203
-0.0024681041
-0.018462971
-0.0030273354
-0.023548804
-0.018596258
-0.0027183648
0.0091585432
-0.0031498907
0.011019096
-0.0018030541
0.0098264687
0.00046661039
0.0082792823
0.0030892968
0.0069463104
0.0057736534
0.0058544849
0.0083627171
0.0049558951
0.010760201
0.0041861031
0.012893293
0.0034800293
0.014690467
0.0027780464
0.016068166
0.002025327
0.016923124
0.0011681284
0.017119575
0.00016491004
0.016490715
-0.0010868536
0.014816747
-0.0026728467
0.011846584
-0.0048332742
0.0074354358
-0.0080770547
0.0022628922
-0.013290427
-0.0012724835
-0.020013428
-0.019868741
-0.0024132737
0.011571818
2.8058426e-05
0.008577763
0.0042551251
0.005599401
0.0084160853
0.0041183219
0.012231419
0.0031309768
0.01565617
0.0024297341
0.01868643
0.0019256352
0.021329058
0.0015434756
0.023583351
0.0012257358
0.025429089
0.00093230908
0.026820043
0.00063437284
0.027677072
0.00031109931
0.027900114
-5.8131635e-05
0.027347156
-0.00053389635
0.025771583
-0.0010972732
0.022843013
-0.001904704
0.018054746
-0.003288788
0.011113571
-0.006349252
0.0033886687
-0.012288526
-0.016480073
0.011571818
0.020149582
0.025748983
0.029867305
0.032998282
0.035428016
0.037353651
0.038897127
0.040122862
0.041055171
0.041689544
0.042000644
0.041942512
0.041408616
0.040311343
0.038406639
0.03511785
0.028768598
0.016480073
)
;

boundaryField
{
    movingWall
    {
        type            calculated;
        value           uniform 0;
    }
    fixedWalls
    {
        type            calculated;
        value           uniform 0;
    }
    frontAndBack
    {
        type            empty;
        value           nonuniform List<scalar> 0();
    }
}


// ************************************************************************* //
