/*--------------------------------*- C++ -*----------------------------------*\
  =========                 |
  \\      /  F ield         | OpenFOAM: The Open Source CFD Toolbox
   \\    /   O peration     | Website:  https://openfoam.org
    \\  /    A nd           | Version:  9
     \\/     M anipulation  |
\*---------------------------------------------------------------------------*/
FoamFile
{
    format      ascii;
    class       surfaceScalarField;
    location    "20";
    object      phi_0;
}
// * * * * * * * * * * * * * * * * * * * * * * * * * * * * * * * * * * * * * //

dimensions      [0 3 -1 0 0 0 0];

internalField   nonuniform List<scalar> 
760
(
1.2694725e-05
-1.2709175e-05
-2.8727173e-05
4.1421904e-05
-0.00012229123
9.3564063e-05
-0.00025039059
0.00012809938
-0.00039606435
0.00014567377
-0.00054537553
0.00014931119
-0.00068625148
0.00014087597
-0.00080686833
0.00012061686
-0.00089492623
8.8057911e-05
-0.0009383636
4.3437382e-05
-0.00092724875
-1.1114833e-05
-0.00085683937
-7.0409364e-05
-0.00073041158
-0.00012642778
-0.00056133001
-0.00016908156
-0.0003727547
-0.00018857529
-0.00019447344
-0.00017828124
-5.6524384e-05
-0.00013794904
1.9611366e-05
-7.6135734e-05
3.040961e-05
-1.0798229e-05
3.0409628e-05
-4.3185013e-05
3.0475845e-05
-0.00020456286
0.00020279977
-0.00046831097
0.00035731219
-0.00080068109
0.00046046952
-0.0011673096
0.00051230227
-0.0015363945
0.00051839617
-0.0018781602
0.00048264167
-0.0021636051
0.00040606175
-0.0023644615
0.00028891434
-0.0024552676
0.00013424356
-0.0024180652
-4.8317229e-05
-0.0022452903
-0.00024318427
-0.0019475016
-0.00042421642
-0.0015544294
-0.00056215372
-0.0011142967
-0.00062870801
-0.00068746309
-0.00060511479
-0.00033452296
-0.00049088914
-0.00010089825
-0.00030976041
-1.5533959e-06
-0.00011014305
2.8856245e-05
-0.00011002467
0.00014050052
-0.00040301856
0.00049579368
-0.00083135896
0.00078565261
-0.0013455686
0.0009746792
-0.0018985294
0.0010652631
-0.0024464918
0.0010663586
-0.0029479263
0.0009840762
-0.0033624998
0.00082063527
-0.0036517647
0.00057817929
-0.0037821914
0.00026467024
-0.0037297038
-0.00010080478
-0.003485705
-0.00048718306
-0.0030631846
-0.00084673681
-0.0024999245
-0.0011254137
-0.0018581873
-0.0012704452
-0.0012181169
-0.0012451852
-0.00066372468
-0.0010452814
-0.00026308679
-0.00071039827
-4.7956765e-05
-0.00032527304
-1.9100504e-05
-0.00017343325
0.00031393377
-0.00059326986
0.00091563031
-0.0011776505
0.0013700333
-0.0018583001
0.0016553288
-0.0025768132
0.0017837761
-0.0032811883
0.0017707338
-0.0039226533
0.0016255412
-0.0044539807
0.0013519627
-0.0048300957
0.00095429436
-0.0050110691
0.00044564367
-0.0049670956
-0.00014477832
-0.0046842882
-0.00076999039
-0.0041722255
-0.0013587995
-0.0034690286
-0.0018286106
-0.0026439388
-0.002095535
-0.0017931564
-0.0020959676
-0.0010258275
-0.0018126102
-0.00044020654
-0.0012960192
-9.6722656e-05
-0.00066875689
-0.00011582314
-0.00022978612
0.0005437199
-0.00076504415
0.0014508884
-0.0014914273
0.0020964165
-0.0023224593
0.0024863608
-0.0031900226
0.0026513395
-0.0040366776
0.0026173888
-0.0048098697
0.0023987333
-0.005458782
0.0020008749
-0.0059339907
0.0014295031
-0.006189622
0.00070127495
-0.0061882117
-0.00014618859
-0.0059053993
-0.0010528027
-0.0053402601
-0.0019239387
-0.0045229889
-0.0026458817
-0.0035228818
-0.0030956421
-0.002449742
-0.0031691074
-0.0014425043
-0.0028198478
-0.00064121669
-0.0020973068
-0.0001488339
-0.0011611396
-0.00026465703
-0.00027728645
0.00082100636
-0.00091151123
0.0020851132
-0.0017606635
0.0029455688
-0.0027227088
0.0034484062
-0.0037220795
0.0036507102
-0.0046985346
0.0035938439
-0.0055987084
0.0032989071
-0.0063709924
0.002773159
-0.0069635216
0.0020220324
-0.0073246292
0.0010623826
-0.00740726
-6.3557806e-05
-0.0071715072
-0.0012885555
-0.0065987195
-0.0024967264
-0.0057015365
-0.0035430646
-0.004539907
-0.0042572716
-0.0032317639
-0.0044772504
-0.0019489743
-0.0041026374
-0.0008872669
-0.0031590142
-0.00021158936
-0.0018368171
-0.00047624637
-0.00031410333
0.0011351097
-0.0010262997
0.0027973095
-0.0019734351
0.0038927042
-0.0030416463
0.0045166174
-0.0041505757
0.0047596395
-0.0052397741
0.0046830424
-0.006257881
0.0043170141
-0.007155318
0.0036705959
-0.0078801517
0.0027468662
-0.0083766261
0.001558857
-0.0085851788
0.00014499497
-0.0084511218
-0.0014226125
-0.00792932
-0.0030185281
-0.0070048087
-0.0044675758
-0.0057149186
-0.0055471617
-0.0041734899
-0.0060186791
-0.0025817878
-0.0056943395
-0.0012040779
-0.004536724
-0.00029449726
-0.0027463977
-0.00077074361
-0.00033823633
0.001473346
-0.0011031312
0.0035622044
-0.0021175639
0.0049071369
-0.0032597859
0.0056588394
-0.0044472719
0.0059471256
-0.0056218001
0.0058575706
-0.0067367664
0.0054319804
-0.0077477705
0.0046816001
-0.0086061708
0.0036052665
-0.0092550459
0.0022077322
-0.0096268139
0.00051676304
-0.0096490146
-0.0014004118
-0.0092488038
-0.0034187389
-0.0083737864
-0.0053425931
-0.0070219415
-0.0068990065
-0.0052817141
-0.0077589065
-0.0033676018
-0.0076084517
-0.001617331
-0.0062869948
-0.00040826017
-0.0039554685
-0.0011790038
-0.00034814647
0.0018214925
-0.0011371844
0.0043512423
-0.0021827315
0.0059526841
-0.0033585356
0.0068346435
-0.0045821331
0.0071707232
-0.0057996922
0.0070751297
-0.0069720498
0.006604338
-0.0080635139
0.0057730642
-0.0090332834
0.0045750361
-0.0098288354
0.0030032843
-0.010381119
0.0010690468
-0.010604376
-0.0011771553
-0.010400635
-0.0036224796
-0.009674763
-0.0060684648
-0.0083685579
-0.0082052116
-0.0065155904
-0.0096118739
-0.004309818
-0.009814224
-0.0021482877
-0.0084485251
-0.00056491483
-0.0055388413
-0.0017439186
-0.00034392918
0.0021654217
-0.001127841
0.0051351542
-0.0021646742
0.0069895173
-0.0033258488
0.0079958181
-0.0045307335
0.008375608
-0.0057318634
0.0082762597
-0.0069001331
0.0077726078
-0.0080122901
0.0068852212
-0.0090407351
0.0056034812
-0.0099448781
0.0039074274
-0.010663309
0.0017874773
-0.01110666
-0.00073380358
-0.011163335
-0.0035658049
-0.010697042
-0.0065347573
-0.0095825155
-0.0093197383
-0.0077667011
-0.011427688
-0.0053714415
-0.012209484
-0.0028071431
-0.011012823
-0.00077835729
-0.0075676271
-0.0025222758
-0.00032890741
0.0024943291
-0.0010824179
0.0058886647
-0.0020707683
0.0079778678
-0.0031635981
0.0090886479
-0.0042838825
0.0094958924
-0.005392832
0.0093852092
-0.0064741202
0.0088538962
-0.0075205319
0.007931633
-0.0085229074
0.0066058567
-0.0094603395
0.0048448595
-0.010291331
0.0026184685
-0.010933222
-9.1911828e-05
-0.011283202
-0.0032158248
-0.011173614
-0.0066443461
-0.010415682
-0.01007767
-0.0088466955
-0.012996675
-0.0064557127
-0.014600466
-0.0035814969
-0.013887039
-0.0010642112
-0.010084913
-0.003586487
-0.00031178925
0.0028061184
-0.0010206922
0.0065975677
-0.001926121
0.0088832967
-0.0028949771
0.010057504
-0.0038569181
0.010457833
-0.0047856071
0.010313898
-0.0056808196
0.0097491087
-0.0065545191
0.0088053325
-0.0074199624
0.0074713001
-0.0082819054
0.0057068026
-0.0091252383
0.0034618015
-0.0099087227
0.00069157265
-0.010527329
-0.0025972187
-0.010827069
-0.0063446062
-0.01057366
-0.010331078
-0.0094932158
-0.014077119
-0.0073911272
-0.016702555
-0.0044188968
-0.01685927
-0.0014372018
-0.013066608
-0.0050236888
-0.00031005336
0.0031161718
-0.00098039437
0.0072679087
-0.0017790993
0.0096820016
-0.0025694365
0.010847841
-0.003294685
0.011183082
-0.0039480035
0.010967217
-0.0045500931
0.010351198
-0.0051349226
0.0093901621
-0.0057400685
0.0080764461
-0.0063986803
0.0063654145
-0.0071302853
0.0041934066
-0.0079304135
0.0014917009
-0.0087389483
-0.0017886838
-0.009430481
-0.0056530735
-0.0097686744
-0.0099928848
-0.0094004024
-0.014445391
-0.0079306043
-0.018172353
-0.0052061622
-0.019583712
-0.0019026067
-0.016370163
-0.0069262954
-0.00035605548
0.0034722273
-0.0010240412
0.0079358945
-0.0017043069
0.010362267
-0.0022609069
0.011404441
-0.0026658587
0.011588034
-0.0029441713
0.011245529
-0.0031444305
0.010551458
-0.0033250635
0.0095707951
-0.0035473987
0.0082987815
-0.003871256
0.0066892719
-0.0043493801
0.0046715307
-0.0050185826
0.0021609035
-0.005876802
-0.00093046426
-0.0068580037
-0.0046718717
-0.0077764275
-0.0090744609
-0.0082659372
-0.013955881
-0.0077688003
-0.01866949
-0.0057511223
-0.02160139
-0.0024366727
-0.019684613
-0.0093629681
-0.00050827968
0.003980507
-0.0012456859
0.0086733007
-0.0017959799
0.010912561
-0.0020481362
0.011656598
-0.0020326794
0.011572577
-0.001825629
0.011038479
-0.0015124171
0.010238246
-0.0011780985
0.0092364765
-0.00090495771
0.0080256407
-0.00077396383
0.0065582781
-0.00086372718
0.0047612942
-0.0012475834
0.0025447598
-0.0019830417
-0.0001950059
-0.003082057
-0.0035728563
-0.0044601934
-0.0076963244
-0.0058276141
-0.01258846
-0.0065662493
-0.017930854
-0.0057684893
-0.02239915
-0.0029512347
-0.022501867
-0.012314203
-0.00086857255
0.0048490796
-0.0017630406
0.0095677689
-0.0021214579
0.011270979
-0.0019369927
0.011472132
-0.0013511086
0.010986693
-0.00051641014
0.010203781
0.00043680215
0.0092850336
0.0013993637
0.008273915
0.0022721254
0.007152879
0.0029606703
0.0058697332
0.0033689178
0.0043530467
0.0033965829
0.0025170947
0.0029383481
0.00026322903
0.001909434
-0.0025439422
0.00026953121
-0.0060564216
-0.0018542897
-0.010464639
-0.0039516888
-0.015833455
-0.0048608867
-0.021489952
-0.0032547196
-0.024108035
-0.015568922
-0.0015910988
0.0064401784
-0.0026109011
0.010587571
-0.0025132265
0.011173304
-0.0015900398
0.010548946
-0.00017234294
0.0095689963
0.0014925966
0.0085388411
0.0032326717
0.0075449586
0.0049230001
0.0065835867
0.0064627583
0.0056131209
0.007757271
0.0045752206
0.0087072919
0.0034030259
0.0092012999
0.0020230868
0.0091031673
0.00036136167
0.0082749388
-0.0017157137
0.0065653311
-0.0043468139
0.0039041293
-0.0078034376
0.00055887644
-0.012488203
-0.0024681044
-0.018462971
-0.0030273355
-0.023548803
-0.018596258
-0.0027183651
0.0091585436
-0.0031498905
0.011019096
-0.0018030543
0.0098264683
0.00046660978
0.0082792818
0.003089296
0.0069463101
0.0057736525
0.0058544847
0.0083627161
0.004955895
0.0107602
0.0041861029
0.012893292
0.0034800293
0.014690466
0.0027780464
0.016068165
0.0020253271
0.016923123
0.0011681285
0.017119574
0.00016491022
0.016490714
-0.0010868534
0.014816747
-0.0026728465
0.011846583
-0.004833274
0.0074354355
-0.0080770547
0.002262892
-0.013290427
-0.0012724836
-0.020013428
-0.019868741
-0.0024132742
0.011571818
2.8058344e-05
0.0085777636
0.0042551253
0.0055994012
0.0084160852
0.0041183219
0.012231419
0.0031309766
0.01565617
0.0024297339
0.018686429
0.0019256351
0.021329057
0.0015434756
0.02358335
0.0012257358
0.025429088
0.00093230909
0.026820042
0.00063437287
0.027677071
0.00031109936
0.027900113
-5.8131552e-05
0.027347156
-0.00053389629
0.025771583
-0.0010972732
0.022843013
-0.001904704
0.018054746
-0.003288788
0.011113571
-0.006349252
0.0033886687
-0.012288526
-0.016480073
0.011571818
0.020149582
0.025748983
0.029867305
0.032998282
0.035428016
0.037353651
0.038897126
0.040122862
0.041055171
0.041689544
0.042000643
0.041942512
0.041408616
0.040311342
0.038406639
0.03511785
0.028768598
0.016480073
)
;

boundaryField
{
    movingWall
    {
        type            calculated;
        value           uniform 0;
    }
    fixedWalls
    {
        type            calculated;
        value           uniform 0;
    }
    frontAndBack
    {
        type            empty;
        value           nonuniform List<scalar> 0();
    }
}


// ************************************************************************* //
