/*--------------------------------*- C++ -*----------------------------------*\
  =========                 |
  \\      /  F ield         | OpenFOAM: The Open Source CFD Toolbox
   \\    /   O peration     | Website:  https://openfoam.org
    \\  /    A nd           | Version:  9
     \\/     M anipulation  |
\*---------------------------------------------------------------------------*/
FoamFile
{
    format      ascii;
    class       volVectorField;
    location    "20";
    object      U_0;
}
// * * * * * * * * * * * * * * * * * * * * * * * * * * * * * * * * * * * * * //

dimensions      [0 1 -1 0 0 0 0];

internalField   nonuniform List<vector> 
400
(
(0.00028433863 -0.00028146746 0)
(0.00011054672 7.9926468e-05 0)
(-0.0013272308 0.00047800212 0)
(-0.003621837 0.00073590197 0)
(-0.0064234904 0.00086749232 0)
(-0.0094312156 0.00090724071 0)
(-0.012387641 0.00087483902 0)
(-0.015056 0.00077150627 0)
(-0.017194043 0.00058847128 0)
(-0.018552313 0.00032007591 0)
(-0.018902085 -2.4807187e-05 0)
(-0.018085654 -0.00041824756 0)
(-0.016079484 -0.00079968975 0)
(-0.013048645 -0.0010930426 0)
(-0.0093662183 -0.001221172 0)
(-0.0055776021 -0.0011294498 0)
(-0.0023003688 -0.00081285685 0)
(-8.3016972e-05 -0.00033798689 0)
(0.00076009856 0.00015227505 0)
(0.00040942297 0.00038932057 0)
(-8.6110313e-05 -0.00012368046 0)
(-0.0018692863 0.0017871388 0)
(-0.0063063777 0.0036259082 0)
(-0.012452314 0.0048623205 0)
(-0.019600026 0.0054983398 0)
(-0.027106073 0.0056204814 0)
(-0.034357775 0.0052858549 0)
(-0.040767559 0.0045042342 0)
(-0.045756714 0.0032661236 0)
(-0.048774388 0.001589624 0)
(-0.049365184 -0.00043541791 0)
(-0.047252509 -0.0026180595 0)
(-0.042450889 -0.0046643489 0)
(-0.035360644 -0.0062186937 0)
(-0.026778045 -0.0069373683 0)
(-0.017826953 -0.006592091 0)
(-0.0097754298 -0.0051796729 0)
(-0.0037463102 -0.0029994102 0)
(-0.00038880278 -0.00066557811 0)
(0.00028987043 0.00078349645 0)
(-0.00058808015 0.0014335555 0)
(-0.0042426901 0.0063772641 0)
(-0.011758174 0.010640194 0)
(-0.021467955 0.01348313 0)
(-0.032365073 0.014897786 0)
(-0.043586507 0.015016872 0)
(-0.054285559 0.013935697 0)
(-0.063640422 0.011683871 0)
(-0.070853532 0.0082811375 0)
(-0.075185999 0.0038286142 0)
(-0.07603726 -0.0014057416 0)
(-0.073055663 -0.0069352944 0)
(-0.066264856 -0.012071246 0)
(-0.056167904 -0.015999675 0)
(-0.043779766 -0.01794217 0)
(-0.030568531 -0.017379468 0)
(-0.018250325 -0.014289646 0)
(-0.0084178661 -0.0093121574 0)
(-0.0021511249 -0.0037618519 0)
(-1.985707e-06 0.0003168935 0)
(-0.0010530289 0.0043002176 0)
(-0.0065146146 0.01356522 0)
(-0.01699848 0.02086331 0)
(-0.030029771 0.025560303 0)
(-0.044298959 0.02776046 0)
(-0.058782185 0.027686991 0)
(-0.072484997 0.025486785 0)
(-0.084444042 0.02121777 0)
(-0.093725845 0.014944749 0)
(-0.099461054 0.0068783548 0)
(-0.10092707 -0.0025009418 0)
(-0.097659975 -0.012377767 0)
(-0.089590548 -0.021604484 0)
(-0.077180139 -0.028823722 0)
(-0.061503511 -0.032704997 0)
(-0.044252577 -0.03229899 0)
(-0.027561611 -0.02744522 0)
(-0.013581496 -0.019080338 0)
(-0.004026296 -0.0092706175 0)
(-0.0002677255 -0.0011082584 0)
(-0.0014558007 0.008364693 0)
(-0.0085487001 0.023180295 0)
(-0.021745322 0.034050297 0)
(-0.037790927 0.040761483 0)
(-0.055094732 0.043700091 0)
(-0.072516792 0.043257452 0)
(-0.08898112 0.039660122 0)
(-0.10345476 0.033000357 0)
(-0.11492828 0.023383701 0)
(-0.12243289 0.011116752 0)
(-0.1251114 -0.0031283834 0)
(-0.12231623 -0.018218318 0)
(-0.11375827 -0.032540157 0)
(-0.099695526 -0.044130933 0)
(-0.081098374 -0.050964557 0)
(-0.059774831 -0.051439679 0)
(-0.038290271 -0.045012449 0)
(-0.019520018 -0.032754829 0)
(-0.0060922186 -0.01749159 0)
(-0.00051101682 -0.0035220548 0)
(-0.001788852 0.013474879 0)
(-0.010269275 0.034959397 0)
(-0.025804443 0.049906597 0)
(-0.044464991 0.058792475 0)
(-0.064425241 0.062456004 0)
(-0.084474432 0.061548702 0)
(-0.10351291 0.056414194 0)
(-0.12049947 0.04718087 0)
(-0.13439966 0.033969653 0)
(-0.14416955 0.01713239 0)
(-0.14879918 -0.0025351623 0)
(-0.14738927 -0.023634992 0)
(-0.13930749 -0.044140673 0)
(-0.12443244 -0.06143985 0)
(-0.10342912 -0.072639946 0)
(-0.078054058 -0.075171722 0)
(-0.051259739 -0.067704985 0)
(-0.026808847 -0.051123017 0)
(-0.0086121117 -0.028965133 0)
(-0.00078705669 -0.0070521045 0)
(-0.0020419465 0.019435688 0)
(-0.011605186 0.048526898 0)
(-0.028994683 0.067995595 0)
(-0.049755892 0.079222952 0)
(-0.071889081 0.083654324 0)
(-0.094158889 0.082294916 0)
(-0.11549632 0.075647352 0)
(-0.1349109 0.063875235 0)
(-0.15139893 0.047075124 0)
(-0.16388033 0.025567804 0)
(-0.17118802 0.0001639682 0)
(-0.17215041 -0.027608865 0)
(-0.16571186 -0.055393881 0)
(-0.15118862 -0.079942828 0)
(-0.12869781 -0.097348096 0)
(-0.099667879 -0.10369562 0)
(-0.067240406 -0.096283633 0)
(-0.036118352 -0.075218482 0)
(-0.011929472 -0.044538941 0)
(-0.0011707888 -0.012001324 0)
(-0.0022012059 0.026012272 0)
(-0.012484288 0.063416994 0)
(-0.031138884 0.087761007 0)
(-0.053352867 0.10148644 0)
(-0.077015375 0.10677334 0)
(-0.10090914 0.10507033 0)
(-0.12404669 0.097085376 0)
(-0.14554803 0.08301939 0)
(-0.16450569 0.062901174 0)
(-0.17987194 0.036930844 0)
(-0.19039527 0.0057965939 0)
(-0.19465186 -0.029031391 0)
(-0.19113271 -0.065015266 0)
(-0.17848651 -0.098387669 0)
(-0.15602211 -0.12417376 0)
(-0.12444267 -0.13675915 0)
(-0.08664503 -0.13132588 0)
(-0.048062841 -0.10623047 0)
(-0.016429033 -0.065391916 0)
(-0.001753749 -0.018878102 0)
(-0.0022556455 0.032931924 0)
(-0.012853371 0.0790854 0)
(-0.032098093 0.10853092 0)
(-0.054980466 0.12485979 0)
(-0.079332965 0.13108849 0)
(-0.10399185 0.12919535 0)
(-0.12809762 0.12014815 0)
(-0.15094213 0.10419924 0)
(-0.17179423 0.081277206 0)
(-0.1897416 0.051375597 0)
(-0.20357315 0.014916558 0)
(-0.21172608 -0.026873925 0)
(-0.21232229 -0.07152927 0)
(-0.20333545 -0.11502231 0)
(-0.18306034 -0.15144291 0)
(-0.1510158 -0.17328082 0)
(-0.10916398 -0.17281798 0)
(-0.063025372 -0.14524078 0)
(-0.022524573 -0.09297624 0)
(-0.0026589007 -0.028421678 0)
(-0.0022085999 0.03990301 0)
(-0.012716878 0.094940756 0)
(-0.031840778 0.1295356 0)
(-0.054495935 0.14845354 0)
(-0.07849885 0.15563064 0)
(-0.10276948 0.15366214 0)
(-0.12661971 0.14384259 0)
(-0.14957478 0.12651099 0)
(-0.17116908 0.10149132 0)
(-0.19075395 0.068517159 0)
(-0.20732535 0.027628762 0)
(-0.21937601 -0.020392004 0)
(-0.2248861 -0.073458776 0)
(-0.22130488 -0.12768491 0)
(-0.20585309 -0.17661619 0)
(-0.17647464 -0.2109874 0)
(-0.13334517 -0.21960872 0)
(-0.080898194 -0.19275025 0)
(-0.030641458 -0.12885023 0)
(-0.0040699918 -0.041636297 0)
(-0.0020933537 0.04666171 0)
(-0.012189705 0.1104149 0)
(-0.030536101 0.14996097 0)
(-0.052017353 0.17123775 0)
(-0.074464644 0.17918744 0)
(-0.096919479 0.17711664 0)
(-0.11891361 0.16672627 0)
(-0.14026613 0.1485004 0)
(-0.1608618 0.12219134 0)
(-0.18044306 0.087272757 0)
(-0.19840287 0.043353869 0)
(-0.21353678 -0.0093873733 0)
(-0.22401449 -0.069673556 0)
(-0.22708261 -0.13412967 0)
(-0.21908908 -0.19644901 0)
(-0.19626575 -0.24624759 0)
(-0.15621841 -0.26885571 0)
(-0.10070548 -0.24798402 0)
(-0.041145592 -0.1743322 0)
(-0.0062705232 -0.059832946 0)
(-0.0019963745 0.053055933 0)
(-0.011565684 0.12507989 0)
(-0.028661305 0.16904036 0)
(-0.048057108 0.19210389 0)
(-0.067639061 0.20035161 0)
(-0.086644658 0.19790844 0)
(-0.10489684 0.18696384 0)
(-0.12257058 0.16821638 0)
(-0.13996535 0.14140814 0)
(-0.15729912 0.1057993 0)
(-0.17451723 0.060573139 0)
(-0.19108537 0.0052279913 0)
(-0.20560317 -0.059919495 0)
(-0.21550716 -0.13260442 0)
(-0.21690225 -0.20752397 0)
(-0.20457843 -0.2743139 0)
(-0.17317481 -0.31571341 0)
(-0.12017061 -0.30807569 0)
(-0.054147158 -0.22988066 0)
(-0.0096748016 -0.084651943 0)
(-0.0020996865 0.0591829 0)
(-0.011415241 0.13881254 0)
(-0.027116181 0.18616886 0)
(-0.043626067 0.20994214 0)
(-0.058982825 0.21759676 0)
(-0.072779773 0.21419364 0)
(-0.08525224 0.2024705 0)
(-0.097003743 0.18339219 0)
(-0.10879145 0.15675546 0)
(-0.12135334 0.1216867 0)
(-0.13525712 0.077016812 0)
(-0.15070592 0.021620357 0)
(-0.16712507 -0.045108058 0)
(-0.18274273 -0.122513 0)
(-0.19405576 -0.20712282 0)
(-0.19523659 -0.29011113 0)
(-0.17829508 -0.35358126 0)
(-0.13540565 -0.36743429 0)
(-0.069088882 -0.29414982 0)
(-0.014794939 -0.1179831 0)
(-0.0027678131 0.065618849 0)
(-0.012741542 0.15199572 0)
(-0.027331179 0.2009933 0)
(-0.040246371 0.22367924 0)
(-0.049931013 0.22932658 0)
(-0.056646338 0.22403384 0)
(-0.061235909 0.21107784 0)
(-0.064819656 0.19168012 0)
(-0.068624586 0.16571992 0)
(-0.073879024 0.13227407 0)
(-0.081732259 0.089961668 0)
(-0.093124098 0.037202181 0)
(-0.10847309 -0.027476642 0)
(-0.12721732 -0.10497375 0)
(-0.14705727 -0.19421801 0)
(-0.16280586 -0.28948359 0)
(-0.16509234 -0.37509635 0)
(-0.14090225 -0.4177238 0)
(-0.084061694 -0.36281116 0)
(-0.022011588 -0.16157266 0)
(-0.0047197209 0.073834004 0)
(-0.017223085 0.16572422 0)
(-0.031285803 0.21337514 0)
(-0.03968547 0.23217053 0)
(-0.041886465 0.23379885 0)
(-0.039354684 0.22539152 0)
(-0.033816627 0.2106102 0)
(-0.027004784 0.19080946 0)
(-0.020596622 0.16589765 0)
(-0.016220087 0.13493984 0)
(-0.015480958 0.096472235 0)
(-0.019929989 0.048691882 0)
(-0.0309228 -0.010410561 0)
(-0.049238111 -0.082918263 0)
(-0.074402496 -0.17014098 0)
(-0.10327946 -0.27050046 0)
(-0.12725665 -0.37369319 0)
(-0.12973619 -0.44868549 0)
(-0.094915219 -0.42750469 0)
(-0.030930689 -0.21612674 0)
(-0.0093001348 0.08695179 0)
(-0.027432778 0.18185201 0)
(-0.040983172 0.2230313 0)
(-0.042681857 0.23378688 0)
(-0.034408581 0.22879955 0)
(-0.019626432 0.21592058 0)
(-0.0012426976 0.19877824 0)
(0.018340978 0.17856371 0)
(0.037066837 0.15508333 0)
(0.053051093 0.12735988 0)
(0.064417162 0.093937392 0)
(0.069226795 0.05301611 0)
(0.065411243 0.0024643511 0)
(0.051043905 -0.060337584 0)
(0.024639818 -0.138375 0)
(-0.013704663 -0.23416998 0)
(-0.058755963 -0.34516898 0)
(-0.09351235 -0.44953858 0)
(-0.094470518 -0.47558674 0)
(-0.039216218 -0.28048181 0)
(-0.018580407 0.11087147 0)
(-0.046040199 0.2017759 0)
(-0.055231348 0.22793031 0)
(-0.043986934 0.22501587 0)
(-0.019375309 0.21061103 0)
(0.012329931 0.19227829 0)
(0.046989168 0.1727836 0)
(0.081749957 0.15265315 0)
(0.11443357 0.13135259 0)
(0.14314896 0.10779585 0)
(0.16601274 0.080592401 0)
(0.18097736 0.048113284 0)
(0.18557262 0.0084505661 0)
(0.17716263 -0.040816234 0)
(0.15275678 -0.10317509 0)
(0.10948652 -0.18390532 0)
(0.047238668 -0.28855396 0)
(-0.021440591 -0.41050973 0)
(-0.072253566 -0.49101625 0)
(-0.041147624 -0.35054233 0)
(-0.033352247 0.15561564 0)
(-0.068601879 0.22040432 0)
(-0.05518808 0.21729165 0)
(-0.016080031 0.19532342 0)
(0.034509104 0.17092232 0)
(0.088505117 0.14849352 0)
(0.14176539 0.12861169 0)
(0.19196549 0.11057699 0)
(0.23753699 0.093297372 0)
(0.27711648 0.075575227 0)
(0.30921466 0.056181944 0)
(0.33204012 0.03382402 0)
(0.34317287 0.0070281049 0)
(0.33982647 -0.025909648 0)
(0.31813053 -0.067741053 0)
(0.27327566 -0.12410744 0)
(0.200446 -0.2058468 0)
(0.10213888 -0.32506888 0)
(-0.012387749 -0.45457142 0)
(-0.023756778 -0.40864046 0)
(-0.03308105 0.23907337 0)
(-0.042647041 0.21792025 0)
(0.042207155 0.16426617 0)
(0.12760414 0.12783543 0)
(0.20769702 0.101435 0)
(0.28028009 0.081657639 0)
(0.34487109 0.066647683 0)
(0.40158063 0.054702741 0)
(0.45054802 0.044399355 0)
(0.49161775 0.034639998 0)
(0.52415932 0.024550825 0)
(0.5469838 0.013382054 0)
(0.55822045 0.00040013947 0)
(0.55570789 -0.015136934 0)
(0.53552509 -0.034968843 0)
(0.49244579 -0.06248796 0)
(0.41797217 -0.10694751 0)
(0.30410556 -0.1931754 0)
(0.1231376 -0.33691903 0)
(0.052374133 -0.39437911 0)
(0.24299934 0.15257487 0)
(0.30529638 0.11854297 0)
(0.45481238 0.076108181 0)
(0.56000896 0.050840165 0)
(0.63223309 0.035126005 0)
(0.68654873 0.024812204 0)
(0.72943756 0.017960003 0)
(0.76379539 0.013255861 0)
(0.79127823 0.0097621815 0)
(0.81275039 0.0068543883 0)
(0.82841038 0.0041185859 0)
(0.83794314 0.001276948 0)
(0.84057013 -0.0018441207 0)
(0.8349752 -0.0053261769 0)
(0.81886681 -0.0098288916 0)
(0.78942864 -0.016232704 0)
(0.73784292 -0.026935693 0)
(0.65316768 -0.051286559 0)
(0.45609769 -0.11374605 0)
(0.31788988 -0.17206004 0)
)
;

boundaryField
{
    movingWall
    {
        type            fixedValue;
        value           uniform (1 0 0);
    }
    fixedWalls
    {
        type            fixedValue;
        value           uniform (0 0 0);
    }
    frontAndBack
    {
        type            empty;
    }
}


// ************************************************************************* //
