/*--------------------------------*- C++ -*----------------------------------*\
  =========                 |
  \\      /  F ield         | OpenFOAM: The Open Source CFD Toolbox
   \\    /   O peration     | Website:  https://openfoam.org
    \\  /    A nd           | Version:  9
     \\/     M anipulation  |
\*---------------------------------------------------------------------------*/
FoamFile
{
    format      ascii;
    class       surfaceScalarField;
    location    "0.66";
    object      alphaPhi0.phase1;
}
// * * * * * * * * * * * * * * * * * * * * * * * * * * * * * * * * * * * * * //

dimensions      [0 3 -1 0 0 0 0];

internalField   nonuniform List<scalar> 
19800
(
-3.6251185e-88
4.835728e-88
-1.6599515e-87
5.1158567e-88
-4.4052786e-85
1.8607279e-86
-1.3275153e-84
3.8701251e-85
-1.1601829e-84
5.9651756e-85
-4.2579308e-85
3.0095009e-85
-9.9814448e-86
8.6102319e-86
-1.1163014e-85
2.6854248e-86
-3.1763933e-85
2.6832729e-86
-5.4544213e-85
4.8006008e-86
-1.1641562e-82
4.7518678e-84
-1.2749145e-80
5.2820995e-82
-2.5333562e-79
1.7150834e-80
-1.5746571e-78
1.7574003e-79
-1.2638464e-77
1.2490227e-78
-6.413878e-76
4.0697486e-77
-6.296761e-74
3.6156151e-75
-6.0309638e-72
3.2570816e-73
-5.4397176e-70
2.768453e-71
-4.6307203e-68
2.2220953e-69
-3.731903e-66
1.6883816e-67
-2.8551e-64
1.2163493e-65
-2.0787238e-62
8.3445122e-64
-1.4436322e-60
5.453218e-62
-9.5855256e-59
3.4041516e-60
-6.0884369e-57
2.02872e-58
-3.6712839e-55
1.1544932e-56
-2.12364e-53
6.2726497e-55
-1.4229377e-51
3.319084e-53
-1.4944049e-49
1.8503261e-51
-8.0315934e-48
8.2301057e-50
-8.6758065e-47
1.1671286e-48
-2.5830945e-46
4.3352462e-48
-4.0044072e-46
5.629363e-48
-7.1560715e-46
1.993216e-48
-9.1064283e-45
-1.1315589e-46
-4.3742968e-43
-1.4895998e-44
-1.9965544e-41
-1.1492666e-42
-8.087777e-40
-6.8483887e-41
-2.8743225e-38
-3.2809687e-39
-8.320192e-37
-1.2280915e-37
-1.485375e-35
-3.2155456e-36
-1.2660321e-34
-4.9658429e-35
-6.1719362e-34
-4.4991593e-34
-2.8785089e-33
-4.0216628e-33
-1.7707757e-32
-4.5623354e-32
9.5877396e-32
-1.1383069e-30
1.8346838e-29
-4.4707381e-29
9.8668921e-28
-1.714247e-27
4.9234839e-26
-6.9868239e-26
2.8562291e-24
-3.6020621e-24
2.3932668e-22
-2.7825704e-22
6.6256563e-21
-8.5222387e-21
3.4959434e-20
-7.6576403e-20
7.2900017e-20
-2.3650902e-19
3.7020877e-20
-1.0116385e-19
9.0116963e-21
-6.6536373e-21
1.7097504e-21
-1.3376359e-21
2.146244e-22
-1.5730085e-22
1.6731035e-23
-9.1235459e-24
8.7368816e-25
-7.0108364e-26
4.8579296e-26
1.0490973e-26
2.8833384e-27
1.2966475e-27
1.644469e-28
1.1246436e-28
8.6632963e-30
8.1021118e-30
4.2204179e-31
5.0771857e-31
1.9049381e-32
2.8311071e-32
7.9408834e-34
1.419046e-33
3.0471685e-35
6.420842e-35
1.0740588e-36
2.6285061e-36
3.4715889e-38
9.749711e-38
1.0273325e-39
3.2802066e-39
2.7792466e-41
1.001801e-40
6.8637213e-43
2.7788585e-42
1.5452875e-44
7.0029254e-44
3.1672103e-46
1.603128e-45
5.9011461e-48
3.3323883e-47
9.9798089e-50
6.2865126e-49
1.529312e-51
1.0750028e-50
2.1194208e-53
1.6667521e-52
2.6508692e-55
2.3351343e-54
2.9850656e-57
2.9562432e-56
3.0179254e-59
3.3715907e-58
2.7307708e-61
3.4567496e-60
2.2035436e-63
3.1767507e-62
1.578958e-65
2.6098738e-64
9.9977969e-68
1.9087702e-66
5.5610017e-70
1.2372342e-68
2.6972887e-72
7.0694468e-71
1.1303944e-74
3.5394265e-73
4.0474383e-77
1.5421873e-75
1.2210946e-79
5.7942123e-78
3.0481303e-82
1.8534696e-80
1.3202405e-84
4.9803721e-83
7.2106898e-85
2.4976946e-85
2.191665e-85
1.297472e-85
6.1530741e-85
4.2232238e-85
3.9933073e-85
4.3762957e-85
1.7800946e-85
4.1535779e-85
3.8192067e-85
-4.9244805e-88
9.1814145e-88
-4.7221263e-86
2.5282878e-86
-4.518605e-84
1.1012369e-84
-1.6198355e-83
1.255901e-83
-1.9138279e-83
2.1328805e-83
-1.8098521e-83
1.9042006e-83
-1.1252068e-83
1.3703844e-83
-2.7823084e-84
6.1636261e-84
-3.700937e-85
1.1659659e-84
-2.2412362e-84
1.6567621e-85
-6.3078106e-83
4.7013158e-84
-5.2517717e-81
5.0650299e-82
-1.3273854e-79
2.0671976e-80
-5.8879817e-78
1.1398804e-78
-5.884889e-76
1.1223606e-76
-6.455822e-74
1.1532833e-74
-6.6770791e-72
1.1182367e-72
-6.4747502e-70
1.0172279e-70
-5.9080398e-68
8.7176455e-69
-5.0904436e-66
7.0576464e-67
-4.1546983e-64
5.4108897e-65
-3.2213536e-62
3.9399168e-63
-2.3786688e-60
2.731999e-61
-1.6767692e-58
1.8056948e-59
-1.1308229e-56
1.1395836e-57
-7.2754763e-55
6.8682787e-56
-4.4240934e-53
3.9481876e-54
-2.7656958e-51
2.1796411e-52
-2.7207603e-49
1.2267289e-50
-2.5836864e-47
7.1748818e-49
-4.4756688e-46
1.7809336e-47
-1.612154e-45
1.0460317e-46
-4.5012232e-45
2.3447477e-46
-2.1781214e-44
5.1855838e-46
-1.551775e-43
4.5195111e-46
-3.5681534e-42
-6.6514234e-44
-1.6577585e-40
-7.9226394e-42
-7.4822703e-39
-6.0855879e-40
-3.0016583e-37
-3.5863563e-38
-1.0616733e-35
-1.6961114e-36
-3.1055178e-34
-6.2314508e-35
-5.4869463e-33
-1.5753568e-33
-4.1635105e-32
-2.2507041e-32
-1.6165611e-31
-1.7818496e-31
-6.4836641e-31
-1.1638114e-30
-4.6385919e-30
-1.3819888e-29
-3.3063065e-30
-3.3804805e-28
2.7109811e-27
-9.1385982e-27
1.4234507e-25
-2.4990763e-25
6.6400687e-24
-8.0481448e-24
3.6638836e-22
-3.8832322e-22
2.990866e-20
-3.1544085e-20
7.6878399e-19
-7.9515315e-19
2.9930347e-18
-2.4925249e-18
5.2295247e-18
-4.1876289e-18
3.8441055e-18
-3.3905634e-18
1.3871712e-18
-1.3294839e-18
2.886363e-19
-2.924551e-19
4.1611831e-20
-3.7077033e-20
3.6864827e-21
-2.3151278e-21
1.996636e-22
-7.6871474e-24
1.0841919e-23
7.4234737e-24
6.2146204e-25
8.6255355e-25
3.4150181e-26
7.127216e-26
1.723307e-27
4.8777216e-27
7.9848393e-29
2.8885014e-28
3.4097788e-30
1.5149698e-29
1.3409801e-31
7.1233779e-31
4.8492313e-33
3.0215098e-32
1.6107385e-34
1.1604202e-33
4.9100665e-36
4.0450225e-35
1.3721869e-37
1.2818865e-36
3.5115404e-39
3.6970044e-38
8.2185098e-41
9.7087746e-40
1.7568199e-42
2.3219798e-41
3.4253093e-44
5.0563738e-43
6.0820382e-46
1.0021356e-44
9.8192605e-48
1.8060944e-46
1.4386001e-49
2.9575746e-48
1.9087201e-51
4.3964239e-50
2.288028e-53
5.9186869e-52
2.4714016e-55
7.206082e-54
2.3984197e-57
7.9141618e-56
2.0840467e-59
7.8221836e-58
1.6149895e-61
6.9354774e-60
1.1109756e-63
5.4993177e-62
6.748762e-66
3.8818334e-64
3.5970329e-68
2.4287386e-66
1.6692798e-70
1.3388776e-68
6.68601e-73
6.456401e-71
2.2855061e-75
2.7079832e-73
6.5734071e-78
9.7794335e-76
1.5615272e-80
3.0055171e-78
4.1873537e-83
7.7537446e-81
1.5154835e-83
3.1281171e-83
1.4122176e-83
2.9264479e-83
5.7847725e-84
1.805498e-83
1.3014923e-84
8.1573307e-84
1.5248638e-85
7.0970008e-85
6.7139876e-85
-6.2761005e-85
2.5032676e-84
-9.8673594e-83
5.5403227e-83
-5.0168192e-81
2.200504e-81
-1.2506812e-80
1.6461674e-80
-1.4389206e-80
2.3064185e-80
-1.2732587e-80
1.9138924e-80
-7.5475255e-81
1.2752706e-80
-2.0067613e-81
5.5505193e-81
-1.6800657e-82
1.1215887e-81
-9.5637809e-83
1.1024061e-82
-1.3597828e-81
4.6169311e-82
-2.0883734e-79
6.5625454e-80
-2.9340636e-77
8.5876921e-78
-3.8002009e-75
1.0344768e-75
-4.5504318e-73
1.1542553e-73
-5.0583274e-71
1.1986e-71
-5.2452717e-69
1.1621691e-69
-5.0972175e-67
1.0576659e-67
-4.6597611e-65
9.0622315e-66
-4.0215751e-63
7.3331516e-64
-3.2870687e-61
5.6194947e-62
-2.5516498e-59
4.0887127e-60
-1.8860842e-57
2.8334233e-58
-1.3306058e-55
1.8701849e-56
-8.9790341e-54
1.179073e-54
-5.7776993e-52
7.0921084e-53
-3.5138137e-50
4.0674112e-51
-2.1995593e-48
2.2381298e-49
-2.144484e-46
1.2547224e-47
-1.945892e-44
7.2498501e-46
-3.2756913e-43
1.7951519e-44
-1.2967466e-42
1.1137644e-43
-5.3206279e-42
2.9483259e-43
-3.3233384e-41
8.8174025e-43
-1.2229659e-40
6.9551328e-43
-1.0409231e-39
-2.8319249e-41
-3.8396028e-38
-2.1417742e-39
-1.7088325e-36
-1.715129e-37
-6.8076326e-35
-1.006472e-35
-2.3995278e-33
-4.7207998e-34
-6.9903509e-32
-1.7045822e-32
-1.1910773e-30
-4.1492365e-31
-8.3300095e-30
-5.4815469e-30
-2.8603678e-29
-3.8495305e-29
-1.0165569e-28
-2.151326e-28
-7.6067704e-28
-2.2624381e-27
-4.197512e-27
-5.3384847e-26
2.0838423e-25
-1.3105628e-24
1.2319548e-23
-3.2966072e-23
5.7179269e-22
-9.9453047e-22
3.0025431e-20
-4.1181914e-20
2.3160272e-18
-2.5416468e-18
5.8610458e-17
-6.2781532e-17
2.3066721e-16
-1.9183513e-16
3.9864151e-16
-1.6773076e-16
3.0371036e-16
-1.6350661e-16
1.2054604e-16
-9.6539515e-17
2.6762381e-17
-2.6708417e-17
4.3863566e-18
-4.2302266e-18
4.4987637e-19
-3.116704e-19
2.6474726e-20
1.3507545e-21
1.4479204e-21
1.4136936e-21
8.25995e-23
1.5770213e-22
4.5282668e-24
1.2812221e-23
2.2734904e-25
8.6522669e-25
1.0422094e-26
5.0474741e-26
4.3802727e-28
2.5992906e-27
1.6883704e-29
1.1961738e-28
5.9630805e-31
4.951778e-30
1.9287356e-32
1.8516018e-31
5.7108793e-34
6.2718139e-33
1.5471929e-35
1.9283087e-34
3.832777e-37
5.3889434e-36
8.6746222e-39
1.3701504e-37
1.7919097e-40
3.1708233e-39
3.3744048e-42
6.6788711e-41
5.7846743e-44
1.2801853e-42
9.0136496e-46
2.2308048e-44
1.2741204e-47
3.5326296e-46
1.6307384e-49
5.0749553e-48
1.8850437e-51
6.6068883e-50
1.9627976e-53
7.7740173e-52
1.8353698e-55
8.2516657e-54
1.5357929e-57
7.8797392e-56
1.1452281e-59
6.7489629e-58
7.575306e-62
5.1649843e-60
4.4202295e-64
3.5179375e-62
2.2611092e-66
2.1210971e-64
1.006561e-68
1.1260153e-66
3.8603802e-71
5.232574e-69
1.2600111e-73
2.1106041e-71
3.4467865e-76
7.3152123e-74
1.5752421e-78
2.1497612e-76
1.3398422e-80
5.3928246e-79
1.1511373e-80
2.3620475e-80
1.5400228e-80
4.1368808e-80
7.702067e-81
3.2053968e-80
1.690844e-81
1.6068216e-80
1.8014279e-82
3.8424512e-81
2.6337402e-81
-4.2496357e-82
1.678794e-81
-1.0939448e-79
6.0920008e-80
-3.1216608e-78
2.2452697e-78
-6.3282552e-78
1.1693279e-77
-7.2537193e-78
1.4732097e-77
-6.2823369e-78
1.2059467e-77
-3.6352789e-78
7.8371208e-78
-9.5886572e-79
3.344999e-78
-1.1870448e-79
6.8411818e-79
-5.9987196e-80
9.5226731e-80
-7.7694776e-79
3.3459824e-79
-1.2087636e-76
4.7764253e-77
-1.7162822e-74
6.2700519e-75
-2.2328319e-72
7.570092e-73
-2.6752543e-70
8.4493129e-71
-2.9764258e-68
8.7623051e-69
-3.0905668e-66
8.4971513e-67
-3.0060734e-64
7.728643e-65
-2.7498867e-62
6.6153797e-63
-2.374665e-60
5.3498521e-61
-1.9418897e-58
4.097144e-59
-1.5078521e-56
2.9795482e-57
-1.1144796e-54
2.0606571e-55
-7.8616093e-53
1.359508e-53
-5.302783e-51
8.5575561e-52
-3.4098361e-49
5.1436046e-50
-2.0724959e-47
2.946591e-48
-1.2977321e-45
1.6206843e-46
-1.2515664e-43
9.0778839e-45
-1.0868476e-41
5.2031964e-43
-1.7807007e-40
1.2907738e-41
-7.7837084e-40
8.4729842e-41
-4.6245013e-39
2.669359e-40
-3.6080829e-38
1.1022892e-39
-9.5414498e-38
1.4772883e-39
-3.2584039e-37
-1.1760673e-38
-6.6135572e-36
-3.7331786e-37
-2.8495854e-34
-3.1447648e-35
-1.1285482e-32
-1.8652975e-33
-3.9813684e-31
-8.723624e-32
-1.1602469e-29
-3.1174979e-30
-1.9061039e-28
-7.3234434e-29
-1.2255522e-27
-8.9291756e-28
-3.7056324e-27
-5.5357183e-27
-1.1555635e-26
-2.6157156e-26
-8.7666845e-26
-2.3930268e-25
-8.1164725e-25
-5.4436386e-24
6.1527881e-24
-1.2543823e-22
6.5644753e-22
-2.8542579e-21
3.2327993e-20
-8.3666841e-20
1.7418419e-18
-3.799957e-18
1.2640172e-16
-1.500604e-16
3.0720189e-15
-3.4292751e-15
1.2387672e-14
-1.0925758e-14
2.1655391e-14
-1.2980808e-14
1.612666e-14
-7.3233214e-16
6.5482026e-15
-1.4439624e-16
1.6058529e-15
-1.5574878e-16
3.2073957e-16
-1.4510132e-16
4.0725871e-17
-1.8363933e-17
2.7683714e-18
5.1460151e-19
1.5344398e-19
2.0137036e-19
8.6706257e-21
2.1593607e-20
4.7365855e-22
1.7291103e-21
2.3636101e-23
1.1540916e-22
1.0688e-24
6.6313769e-24
4.400837e-26
3.3465582e-25
1.6536055e-27
1.5022313e-26
5.6718768e-29
6.0433893e-28
1.7762217e-30
2.1894886e-29
5.0794583e-32
7.1682969e-31
1.3264307e-33
2.1261397e-32
3.1622396e-35
5.7233998e-34
6.8792443e-37
1.4000602e-35
1.3646485e-38
3.1144843e-37
2.4661359e-40
6.3022291e-39
4.0552736e-42
1.1598911e-40
6.058813e-44
1.9403806e-42
8.2086953e-46
2.949388e-44
1.0062681e-47
4.0665864e-46
1.1136556e-49
5.0764465e-48
1.1096134e-51
5.7283557e-50
9.9203584e-54
5.8284603e-52
7.9297811e-56
5.33103e-54
5.6418778e-58
4.3717947e-56
3.55532e-60
3.1993362e-58
1.9732329e-62
2.0809668e-60
9.5781134e-65
1.196909e-62
4.0310979e-67
6.0499825e-65
1.4559222e-69
2.6682629e-67
4.4574999e-72
1.0177619e-69
1.1393122e-74
3.3235377e-72
2.7524119e-77
9.1762108e-75
6.615028e-78
2.8982397e-77
9.4024954e-78
2.3276302e-77
1.0720013e-77
3.954267e-77
5.9601877e-78
3.3187852e-77
1.1625487e-78
1.6669584e-77
6.6764806e-80
4.5201207e-78
2.3934966e-78
-1.9420638e-79
8.1871045e-79
-6.209741e-77
3.7159664e-77
-1.3782771e-75
1.333206e-75
-2.4591571e-75
5.8765806e-75
-2.8158484e-75
6.9274878e-75
-2.4093994e-75
5.6416617e-75
-1.3734265e-75
3.6095946e-75
-3.6111685e-76
1.5227076e-75
-5.8428953e-77
3.1580734e-76
-2.8190004e-77
5.6233058e-77
-3.7266664e-76
1.9222314e-76
-5.8348008e-74
2.7677797e-74
-8.3106514e-72
3.6388122e-72
-1.0831542e-69
4.3985196e-70
-1.2985883e-67
4.9088285e-68
-1.445813e-65
5.086482e-66
-1.5021825e-63
4.9301946e-64
-1.4617125e-61
4.4812928e-62
-1.3373004e-59
3.8316215e-60
-1.1545717e-57
3.0944475e-58
-9.4374243e-56
2.366669e-56
-7.3247454e-54
1.7184188e-54
-5.4122756e-52
1.1878744e-52
-3.8159757e-50
7.826838e-51
-2.5726557e-48
4.9256467e-49
-1.6529e-46
2.9603505e-47
-1.0037444e-44
1.6958082e-45
-6.2877228e-43
9.3263185e-44
-6.0447547e-41
5.2384012e-42
-5.0772014e-39
2.9983385e-40
-8.0416147e-38
7.4401732e-39
-3.7155447e-37
5.0636289e-38
-2.8577437e-36
1.8230325e-37
-2.7142959e-35
9.8482784e-37
-6.3708422e-35
1.9895981e-36
-1.2408038e-34
-3.7007336e-36
-9.5890776e-34
-5.592029e-35
-3.7075678e-32
-4.1092048e-33
-1.4632968e-30
-2.5186899e-31
-5.186599e-29
-1.1857266e-29
-1.5194038e-27
-4.2199903e-28
-2.4044464e-26
-9.6077146e-27
-1.4181199e-25
-1.0795923e-25
-3.7540076e-25
-5.8754175e-25
-1.0036009e-24
-2.3098864e-24
-7.2758722e-24
-1.7839818e-23
-8.6950114e-23
-3.9278192e-22
-3.3625101e-22
-8.6942035e-21
2.015232e-20
-1.8259015e-19
1.2587932e-18
-5.8092039e-18
6.9491805e-17
-1.3076806e-16
5.3854582e-15
-6.0609164e-15
1.2598592e-13
-1.4454461e-13
5.0792806e-13
-4.6181716e-13
9.1820731e-13
-6.101693e-13
7.2450811e-13
0
3.1211136e-13
0
7.7282437e-14
0
1.5427939e-14
0
2.40726e-15
0
2.1699317e-16
1.1148271e-16
1.3182093e-17
2.2062708e-17
7.3356502e-19
2.2890107e-18
3.9559565e-20
1.8060556e-19
1.9604831e-21
1.19194e-20
8.7438777e-23
6.7526591e-22
3.5201139e-24
3.3391227e-23
1.2847546e-25
1.4596567e-24
4.2595349e-27
5.6890917e-26
1.2843997e-28
1.9886102e-27
3.5256783e-30
6.2605718e-29
8.8157268e-32
1.7808171e-30
2.008438e-33
4.5876522e-32
4.1688121e-35
1.0721483e-33
7.8804671e-37
2.2755333e-35
1.3556543e-38
4.3887846e-37
2.1203195e-40
7.6910229e-39
3.0102895e-42
1.2246856e-40
3.8725675e-44
1.7701774e-42
4.5051856e-46
2.3194694e-44
4.7274936e-48
2.7507855e-46
4.4612491e-50
2.9465679e-48
3.7734787e-52
2.8433985e-50
2.8486646e-54
2.4650171e-52
1.9108204e-56
1.9122936e-54
1.1328348e-58
1.3222737e-56
5.9012275e-61
8.1090536e-59
2.6814153e-63
4.3897644e-61
1.0526143e-65
2.0827565e-63
3.5307355e-68
8.5925788e-66
1.0401918e-70
3.0535297e-68
2.8778995e-73
9.2360889e-71
2.9869335e-75
2.429236e-73
2.1961003e-75
7.1331162e-75
6.1169845e-75
1.7915749e-74
5.6607237e-75
2.8422446e-74
3.1539186e-75
2.4613519e-74
5.054163e-76
1.2118975e-74
-1.0572405e-77
3.4460435e-75
1.573123e-75
-6.6795722e-77
3.131482e-76
-2.3913566e-74
1.5829675e-74
-4.6915286e-73
5.6197042e-73
-7.7274321e-73
2.2718171e-72
-8.8653098e-73
2.568346e-72
-7.5416957e-73
2.0875074e-72
-4.2634569e-73
1.3240847e-72
-1.1101526e-73
5.5454314e-73
-2.1041461e-74
1.1655648e-73
-1.559021e-74
2.6984483e-74
-1.625504e-73
1.0417929e-73
-2.41455e-71
1.3360643e-71
-3.4584539e-69
1.7616596e-69
-4.4842029e-67
2.129875e-67
-5.3626645e-65
2.360575e-65
-5.9721109e-63
2.4434838e-63
-6.2035845e-61
2.3656519e-61
-6.0321559e-59
2.1461782e-59
-5.5132034e-57
1.8316343e-57
-4.753547e-55
1.475355e-55
-3.8801553e-53
1.1259153e-53
-3.0071575e-51
8.157494e-52
-2.2186896e-49
5.6278229e-50
-1.5621184e-47
3.7037201e-48
-1.0514567e-45
2.3276542e-46
-6.7444352e-44
1.3977903e-44
-4.0917359e-42
8.0147556e-43
-2.5671161e-40
4.4208255e-41
-2.4772395e-38
2.4970227e-39
-2.0282015e-36
1.4337661e-37
-3.0906986e-35
3.5420908e-36
-1.4547499e-34
2.4596611e-35
-1.317511e-33
9.6994422e-35
-1.463045e-32
6.4976563e-34
-3.3831053e-32
1.7627886e-33
-4.8676479e-32
-2.0941244e-34
-1.4358866e-31
-9.2988581e-33
-3.9556493e-30
-3.9534677e-31
-1.5561639e-28
-2.6090114e-29
-5.5665628e-27
-1.2529793e-27
-1.6448501e-25
-4.4853672e-26
-2.5030861e-24
-9.9499398e-25
-1.3534336e-23
-1.0309712e-23
-3.1126052e-23
-4.9127939e-23
-6.9347558e-23
-1.5759021e-22
-4.4958707e-22
-9.8554429e-22
-6.2784126e-21
-2.1610772e-20
-5.3371628e-20
-4.7042442e-19
6.2650667e-20
-9.1359568e-18
2.9629761e-17
-2.0681672e-16
4.7446608e-15
-5.2998878e-15
2.3084184e-13
-2.5032802e-13
3.8593563e-12
-4.5700805e-12
1.5500777e-11
-1.4663353e-11
2.9549665e-11
-2.1961577e-11
2.5684006e-11
-1.0597875e-12
1.2166019e-11
0
3.2636938e-12
0
7.1200617e-13
0
1.2409655e-13
0
1.0955642e-14
3.1303899e-14
7.8587096e-16
2.1016395e-15
4.7144209e-17
1.7618136e-16
2.5506263e-18
1.402799e-17
1.2476337e-19
9.2056463e-19
5.457391e-21
5.1333781e-20
2.138208e-22
2.4799156e-21
7.5406966e-24
1.0515711e-22
2.4020336e-25
3.9512173e-24
6.9277545e-27
1.3247783e-25
1.8123923e-28
3.9841498e-27
4.3067545e-30
1.0790115e-28
9.3039781e-32
2.6395477e-30
1.8280428e-33
5.845566e-32
3.2665169e-35
1.1737755e-33
5.3059261e-37
2.1390392e-35
7.8272458e-39
3.5386081e-37
1.0470906e-40
5.3143046e-39
1.2680805e-42
7.2379506e-41
1.3872215e-44
8.9294253e-43
1.3675775e-46
9.9607613e-45
1.2116965e-48
1.0031868e-46
9.6095052e-51
9.0941571e-49
6.7902905e-53
7.3961791e-51
4.2535624e-55
5.3741627e-53
2.3479924e-57
3.4726647e-55
1.1339667e-59
1.984526e-57
4.7520237e-62
9.9654673e-60
1.8247473e-64
4.3642284e-62
5.9491578e-67
1.6536395e-64
1.6189901e-69
5.3621579e-67
3.4136193e-72
1.4747543e-69
9.0944249e-73
5.402816e-72
1.2729463e-72
4.4132648e-72
2.7172838e-72
1.092214e-71
2.2888755e-72
1.6054958e-71
1.1865256e-72
1.4001655e-71
1.2973548e-73
6.6672141e-72
-2.4858927e-74
1.9190745e-72
8.0163246e-73
-1.8495571e-74
9.8868059e-74
-7.0764528e-72
5.2240222e-72
-1.3019004e-70
1.850041e-70
-2.0392419e-70
7.119319e-70
-2.3441859e-70
7.8378018e-70
-1.9910118e-70
6.3719549e-70
-1.1219852e-70
4.0254738e-70
-2.8415599e-71
1.6818434e-70
-6.8315122e-72
3.5965351e-71
-8.9209624e-72
1.2047601e-71
-7.805016e-71
7.2003567e-71
-8.653807e-69
5.4545573e-69
-1.2427074e-66
7.228292e-67
-1.5936653e-64
8.6876213e-65
-1.8983532e-62
9.5358775e-63
-2.1129864e-60
9.8549597e-61
-2.1921888e-58
9.5204094e-59
-2.1277689e-56
8.611527e-57
-1.9405486e-54
7.3262535e-55
-1.6692115e-52
5.8820482e-53
-1.35884e-50
4.4716653e-51
-1.0502646e-48
3.2289649e-49
-7.7286501e-47
2.2211048e-47
-5.4287824e-45
1.4584201e-45
-3.6472146e-43
9.1545101e-44
-2.3357e-41
5.4985146e-42
-1.4152622e-39
3.1566655e-40
-8.8919012e-38
1.746359e-38
-8.6502511e-36
9.9300045e-37
-6.93891e-34
5.7422173e-35
-1.015561e-32
1.4091312e-33
-4.7602096e-32
9.8689075e-33
-4.7260206e-31
4.145059e-32
-5.8866272e-30
3.2770424e-31
-1.4367142e-29
1.1089452e-30
-1.7568829e-29
6.3967382e-31
-2.6777704e-29
-1.3384625e-30
-3.5808738e-28
-2.8709486e-29
-1.3941379e-26
-2.1156623e-27
-5.0637301e-25
-1.0589261e-25
-1.5124421e-23
-3.862469e-24
-2.205884e-22
-8.4258389e-23
-1.0966255e-21
-8.1385236e-22
-2.1880071e-21
-3.4591586e-21
-3.9610953e-21
-9.3309405e-21
-2.1122717e-20
-4.4495884e-20
-3.3472967e-19
-1.0253682e-18
-4.0855761e-18
-2.1890932e-17
-2.4688248e-17
-2.9097946e-16
2.9363858e-16
-2.0075735e-15
1.7669138e-13
-1.9792346e-13
4.6629769e-12
-5.3238563e-12
8.4969011e-11
-1.0903481e-10
3.7706787e-10
-3.7929992e-10
7.8278538e-10
-6.4225468e-10
7.8018218e-10
-1.9497059e-10
4.156674e-10
0
1.3362756e-10
0
3.1953848e-11
0
4.9704385e-12
0
2.8544424e-13
2.1288442e-12
9.3069801e-15
2.8023971e-13
1.1353083e-15
8.1684848e-15
1.0399345e-16
4.7163977e-16
4.2664884e-18
3.4824676e-17
1.7195348e-19
1.9216401e-18
6.5765638e-21
9.1023897e-20
2.2528717e-22
3.7639014e-21
6.9023269e-24
1.3674226e-22
1.9019592e-25
4.3993484e-24
4.7308373e-27
1.2617789e-25
1.0647504e-28
3.2432079e-27
2.171997e-30
7.5014732e-29
4.0205268e-32
1.5661781e-30
6.7573003e-34
2.9581649e-32
1.0316533e-35
5.0626136e-34
1.4302723e-37
7.8623247e-36
1.7965752e-39
1.1076358e-37
2.0406769e-41
1.4136591e-39
2.0911598e-43
1.6326694e-41
1.9274468e-45
1.7027249e-43
1.5922327e-47
1.5996106e-45
1.1736457e-49
1.3492314e-47
7.6814051e-52
1.0176094e-49
4.4388804e-54
6.8314952e-52
2.2499064e-56
4.0602695e-54
9.9217496e-59
2.1232945e-56
3.7711528e-61
9.6929205e-59
1.3059444e-63
3.8285123e-61
3.7325964e-66
1.2958073e-63
1.25872e-68
3.7116057e-66
3.0685232e-70
1.1373214e-68
2.3877767e-70
1.1269966e-69
5.9869513e-70
2.4194918e-69
9.3605979e-70
5.396696e-69
7.0419022e-70
7.3549142e-69
3.0041099e-70
6.3711343e-69
2.1730901e-72
2.9114746e-69
-1.7967649e-71
8.3564988e-70
3.2766672e-70
-4.2903393e-72
2.675797e-71
-1.7037625e-69
1.4100737e-69
-3.0379658e-68
5.0002185e-68
-4.6206413e-68
1.8742773e-67
-5.3336214e-68
2.0291804e-67
-4.5397438e-68
1.6535833e-67
-2.5603236e-68
1.0440814e-67
-6.3549359e-69
4.3695577e-68
-2.1517377e-69
9.6417243e-69
-4.0976398e-69
4.2909624e-69
-2.9082568e-68
3.3423817e-68
-2.668018e-66
1.8828663e-66
-3.8036187e-64
2.5050207e-64
-4.8456181e-62
2.9748527e-62
-5.7675131e-60
3.2550353e-60
-6.4117358e-58
3.3569231e-58
-6.6363339e-56
3.2313263e-56
-6.4216585e-54
2.9106109e-54
-5.8350729e-52
2.4643269e-52
-4.9989346e-50
1.9683376e-50
-4.0526628e-48
1.4887206e-48
-3.1192911e-46
1.0696361e-46
-2.2861814e-44
7.3252254e-45
-1.5998133e-42
4.7914418e-43
-1.0711885e-40
3.0004532e-41
-6.8399258e-39
1.8004445e-39
-4.1363967e-37
1.0347617e-37
-2.6010179e-35
5.7419332e-36
-2.5517144e-33
3.2933981e-34
-2.0154288e-31
1.9216961e-32
-2.8519264e-30
4.7109705e-31
-1.3304326e-29
3.3294742e-30
-1.4033656e-28
1.4731052e-29
-1.9005596e-27
1.3196574e-28
-4.9289605e-27
5.2046841e-28
-5.2451763e-27
4.882058e-28
-5.7881199e-27
1.0804648e-30
-2.8936647e-26
-1.6348868e-27
-1.0716446e-24
-1.3327986e-25
-3.9817787e-23
-7.2496206e-24
-1.1982926e-21
-2.7511366e-22
-1.6637941e-20
-6.0057165e-21
-7.6563135e-20
-5.5356636e-20
-1.3544673e-19
-2.2023512e-19
-1.9742417e-19
-5.5737636e-19
-7.5500686e-19
-1.7235712e-18
-1.3166967e-17
-3.6924011e-17
-2.3165719e-16
-6.323985e-16
-2.110327e-16
-7.0090671e-15
-4.9815438e-15
-1.4475146e-14
0
-1.566447e-11
5.4737652e-11
-7.6664714e-11
1.9459627e-09
-2.5758161e-09
9.9107904e-09
-2.1468896e-08
2.8248123e-08
-1.2871869e-07
3.1291974e-08
-1.1629393e-07
1.6701659e-08
-5.6625639e-08
5.0471187e-09
-8.6468205e-09
1.4298223e-09
0
1.6386051e-10
7.2533123e-10
1.6016144e-11
2.1202154e-10
8.8605122e-13
1.5257904e-11
4.0986783e-14
8.6681507e-13
1.0574235e-15
3.8726e-14
7.3519956e-17
8.53322e-16
3.6584355e-18
4.2036969e-17
1.2042593e-19
2.0230233e-18
3.7408816e-21
7.8091091e-20
1.0760905e-22
2.6583705e-21
2.7811616e-24
8.023276e-23
6.4572741e-26
2.1511524e-24
1.3558684e-27
5.155843e-26
2.5843027e-29
1.1122108e-27
4.4680372e-31
2.165535e-29
7.0058277e-33
3.8117581e-31
9.962709e-35
6.07402e-33
1.2837061e-36
8.7681383e-35
1.4966742e-38
1.1461889e-36
1.5756494e-40
1.3557989e-38
1.493548e-42
1.4490437e-40
1.2700927e-44
1.3959284e-42
9.6499366e-47
1.2083298e-44
6.5193366e-49
9.3627326e-47
3.8941447e-51
6.4638784e-49
2.0428971e-53
3.9546412e-51
9.338272e-56
2.1303991e-53
3.6855646e-58
1.002755e-55
1.2422978e-60
4.0863733e-58
3.5256458e-63
1.4265939e-60
8.7851818e-66
4.220452e-63
7.5955945e-68
1.1374151e-65
5.4060415e-68
2.8300611e-67
1.1511735e-67
5.4049497e-67
1.8978927e-67
1.10346e-66
2.4550164e-67
2.212099e-66
1.5205527e-67
2.7987113e-66
3.3746807e-68
2.3810893e-66
-1.2620429e-68
1.0412712e-66
-8.589089e-69
2.960516e-67
1.1049102e-67
-8.5775261e-70
6.4037852e-69
-3.4558276e-67
3.225622e-67
-6.1201886e-66
1.148025e-65
-9.1589257e-66
4.2509604e-65
-1.0633723e-65
4.5575284e-65
-9.0976517e-66
3.7300213e-65
-5.1745399e-66
2.3603517e-65
-1.3808425e-66
9.9423395e-66
-2.824577e-67
2.185607e-66
-4.0768256e-67
6.3100649e-67
-7.8455908e-66
9.1433719e-66
-7.9533761e-64
6.2868875e-64
-1.0016259e-61
7.5578989e-62
-1.2377203e-59
8.4274071e-60
-1.4713895e-57
9.1898941e-58
-1.6319933e-55
9.4455302e-56
-1.6830956e-53
9.047407e-54
-1.6211989e-51
8.1016834e-52
-1.4652456e-49
6.8132869e-50
-1.2480093e-47
5.403171e-48
-1.0056971e-45
4.0577184e-46
-7.6933899e-44
2.8948512e-44
-5.6045393e-42
1.9687304e-42
-3.9000546e-40
1.2806865e-40
-2.5980567e-38
7.9846565e-39
-1.6517947e-36
4.7799718e-37
-9.9590744e-35
2.7470084e-35
-6.2568872e-33
1.5294218e-33
-6.146496e-31
8.8339689e-32
-4.7773668e-29
5.2046115e-30
-6.6323465e-28
1.2907451e-28
-3.203579e-27
9.3996663e-28
-3.6888382e-26
4.5187701e-27
-4.9133177e-25
4.425404e-26
-1.2443096e-24
1.8577103e-25
-1.2525424e-24
2.1471179e-25
-1.0253758e-24
9.4562006e-26
-2.2930859e-24
-5.7130448e-26
-7.1701061e-23
-6.1051947e-24
-2.7643536e-21
-4.0338564e-22
-8.3672212e-20
-1.6738856e-20
-1.0932334e-18
-3.7267471e-19
-4.6682569e-18
-3.1251905e-18
-7.1953473e-18
-1.0713325e-17
-8.0092425e-18
-1.864426e-17
-1.6846542e-17
-3.4360163e-17
-2.115075e-16
-5.4104128e-16
-1.8603316e-15
-9.7274966e-15
0
-2.3873109e-13
0
-2.0142435e-12
-2.5603937e-13
-5.1970873e-11
4.9088819e-09
-5.1857423e-09
1.3078326e-07
-4.0870522e-07
4.5418654e-07
-6.6736903e-07
5.8710492e-07
-5.972983e-07
5.1921673e-07
-4.3275567e-07
3.7610315e-07
-2.4322652e-07
2.2249607e-07
-1.1465511e-07
6.790713e-08
1.1506812e-08
1.1214737e-08
4.2477815e-08
9.0939418e-10
1.0482902e-08
5.0437691e-11
8.739017e-10
2.8147943e-12
4.831064e-11
1.1136312e-13
2.7319588e-12
1.5604945e-15
1.0902597e-13
6.7140011e-17
1.6976152e-15
3.0387226e-18
5.6367834e-17
7.8974489e-20
2.1110445e-18
1.9994962e-21
6.5130046e-20
4.72546e-23
1.7926077e-21
1.0102665e-24
4.414375e-23
1.9462202e-26
9.7174802e-25
3.3908412e-28
1.9198369e-26
5.354453e-30
3.4177231e-28
7.6662818e-32
5.4979136e-30
9.9491093e-34
8.0031863e-32
1.1690528e-35
1.0550163e-33
1.2415186e-37
1.2588791e-35
1.1885939e-39
1.3581783e-37
1.022315e-41
1.3224793e-39
8.0044474e-44
1.1586753e-41
5.6171697e-46
9.1019162e-44
3.4988901e-48
6.3808563e-46
1.9201243e-50
3.9693535e-48
9.0925014e-53
2.1765099e-50
3.6956639e-55
1.0440374e-52
1.2710346e-57
4.3401619e-55
3.689104e-60
1.5454755e-57
7.819554e-63
4.6667755e-60
2.628099e-65
1.2622205e-62
1.3840814e-65
7.7929534e-65
2.08403e-65
1.2409921e-64
3.2692899e-65
2.2594706e-64
4.4659397e-65
4.2072011e-64
4.3997008e-65
7.6509543e-64
1.4516264e-65
8.9858073e-64
-9.0737198e-66
7.4786501e-64
-7.6470558e-66
3.1147678e-64
-3.1639305e-66
8.7424501e-65
3.1373917e-65
-1.5099909e-67
1.3926375e-66
-6.0359651e-65
6.4182765e-65
-1.0802441e-63
2.2907461e-63
-1.6088514e-63
8.466636e-63
-1.8833754e-63
9.0382641e-63
-1.6243464e-63
7.4393272e-63
-9.3266447e-64
4.7267276e-63
-2.5578042e-64
2.0060234e-63
-4.8213624e-65
4.4757799e-64
-6.2455073e-65
1.1999166e-64
-1.8835648e-63
1.7271146e-63
-1.57397e-61
1.386807e-61
-1.104574e-59
1.0088565e-59
-1.1749655e-57
8.940061e-58
-1.3740794e-55
9.4511589e-56
-1.5173075e-53
9.6525513e-54
-1.5562372e-51
9.1809391e-52
-1.488717e-49
8.1519912e-50
-1.3346672e-47
6.7897721e-48
-1.1263026e-45
5.326847e-46
-8.982987e-44
3.9531071e-44
-6.7968548e-42
2.7860585e-42
-4.8942988e-40
1.871236e-40
-3.364056e-38
1.2015079e-38
-2.2132126e-36
7.4013039e-37
-1.3916259e-34
4.3845711e-35
-8.3064448e-33
2.4955963e-33
-4.9662417e-31
1.3734459e-31
-3.8210918e-29
7.619181e-30
-2.8645002e-27
4.3737703e-28
-6.7538968e-26
1.5007643e-26
-8.9521295e-25
2.0997454e-25
-1.7693263e-23
2.1878508e-24
-1.3872575e-22
2.0050613e-23
-2.581347e-22
6.1436162e-23
-2.4907552e-22
6.9383279e-23
-1.4481929e-22
3.8979664e-23
-1.9953886e-22
8.9673624e-24
-4.2378719e-21
-1.5840704e-22
-1.7559255e-19
-1.80944e-20
-5.3243839e-18
-8.6813575e-19
-6.4722741e-17
-1.5945607e-17
-2.3748369e-16
-9.7165314e-17
-2.3824267e-16
-2.1091967e-16
-1.2228684e-16
-2.8109188e-16
-1.6008253e-16
-1.9365247e-16
-1.1018973e-15
-2.1758901e-15
0
-5.4975935e-14
-1.9369171e-12
-2.0973694e-12
0
-1.014456e-10
2.1449361e-09
-4.5569126e-10
1.5763055e-07
-5.6527719e-07
4.3260915e-07
-7.9277144e-07
6.5199041e-07
-8.1021567e-07
8.2554078e-07
-6.9642755e-07
9.3959426e-07
-4.9603507e-07
1.0067708e-06
-2.6764897e-07
1.022653e-06
-9.0071567e-08
9.7732443e-07
9.4372657e-08
5.5680753e-07
2.4365271e-07
3.0959208e-08
1.332528e-07
1.4665335e-09
3.0265643e-08
7.6793034e-11
1.4303264e-09
3.4305321e-12
7.5575627e-11
1.1029561e-13
3.3859828e-12
3.4060138e-15
1.0575847e-13
1.1234019e-16
3.215685e-15
3.3037971e-18
1.0532291e-16
8.7454464e-20
3.0214123e-18
1.9330935e-21
7.5957619e-20
3.7906593e-23
1.6846064e-21
6.669463e-25
3.3263709e-23
1.0550674e-26
5.8796631e-25
1.5047785e-28
9.3433977e-27
1.9387115e-30
1.3386346e-28
2.2573403e-32
1.7332532e-30
2.3733469e-34
2.0302521e-32
2.2503815e-36
2.148647e-34
1.9171796e-38
2.0523645e-36
1.4619438e-40
1.7631693e-38
9.9154602e-43
1.357664e-40
5.9300472e-45
9.3166895e-43
3.0959345e-47
5.6550275e-45
1.37984e-49
3.0085039e-47
4.779758e-52
1.3859236e-49
1.6012381e-54
5.4361547e-52
4.6094534e-57
1.7700667e-54
1.1258036e-59
5.2412377e-57
4.4658568e-62
2.3474465e-59
3.259536e-63
1.5970835e-61
2.2243532e-63
1.9643071e-62
6.0031701e-63
5.0256154e-62
6.5159682e-63
7.9399849e-62
6.5876832e-63
1.3597979e-61
2.3826517e-63
2.25952e-61
-4.8706284e-63
2.4661019e-61
-6.3825895e-63
1.9988798e-61
-2.9139606e-63
7.9310078e-62
-9.525774e-64
2.1915104e-62
7.6212398e-63
-2.3721858e-65
2.8206428e-64
-9.1937834e-63
1.1336091e-62
-1.6911756e-61
4.043869e-61
-2.5341454e-61
1.5036486e-60
-2.9962494e-61
1.604174e-60
-2.6113822e-61
1.3294881e-60
-1.5167601e-61
8.4947537e-61
-4.1904984e-62
3.6370175e-61
-9.0402615e-63
8.2568733e-62
-1.2048808e-62
2.4912429e-62
-6.0261322e-61
4.9631804e-61
-4.7786762e-59
4.8230999e-59
-3.3799193e-57
3.3357165e-57
-3.8188637e-55
3.1609066e-55
-4.5097899e-53
3.401786e-53
-4.966173e-51
3.4612197e-51
-5.0682442e-49
3.270426e-49
-4.8182084e-47
2.8813206e-47
-4.2885323e-45
2.3785032e-45
-3.5909228e-43
1.8485242e-43
-2.841015e-41
1.3585103e-41
-2.132745e-39
9.4851874e-40
-1.5251073e-37
6.3190937e-38
-1.0425129e-35
4.032837e-36
-6.8317612e-34
2.4761901e-34
-4.2844145e-32
1.4659429e-32
-2.5572751e-30
8.392197e-31
-1.5643585e-28
4.6808758e-29
-1.3833988e-26
2.6976788e-27
-1.0922305e-24
1.6314173e-25
-1.9114475e-23
4.8522785e-24
-1.4697598e-22
4.8610231e-23
-2.2182612e-21
3.4841429e-22
-1.8994437e-20
3.212807e-21
-3.6177385e-20
1.1131044e-20
-3.4872012e-20
1.3991792e-20
-1.4645138e-20
8.8921814e-21
-1.7819251e-20
2.8523937e-21
-2.279035e-19
4.34229e-21
-1.0477439e-17
-5.1859068e-19
-2.8348905e-16
-3.0034836e-17
-2.7293925e-15
-7.1067068e-17