/*--------------------------------*- C++ -*----------------------------------*\
  =========                 |
  \\      /  F ield         | OpenFOAM: The Open Source CFD Toolbox
   \\    /   O peration     | Website:  https://openfoam.org
    \\  /    A nd           | Version:  9
     \\/     M anipulation  |
\*---------------------------------------------------------------------------*/
FoamFile
{
    format      ascii;
    class       volScalarField;
    location    "0.66";
    object      p_rgh;
}
// * * * * * * * * * * * * * * * * * * * * * * * * * * * * * * * * * * * * * //

dimensions      [1 -1 -2 0 0 0 0];

internalField   nonuniform List<scalar> 
10000
(
0
0.0039469647
-0.00057283695
-0.0073655185
-0.0176884
-0.031611008
-0.04915843
-0.070381634
-0.095205141
-0.12367572
-0.15560756
-0.19091629
-0.22938652
-0.27076094
-0.31482049
-0.36119912
-0.40947223
-0.45916726
-0.50969249
-0.56043444
-0.61078564
-0.66006485
-0.70752777
-0.75241747
-0.7939499
-0.83135995
-0.86393746
-0.8909535
-0.91166508
-0.92554611
-0.93240663
-0.93196118
-0.92389505
-0.90812739
-0.88482762
-0.85336092
-0.81671362
-0.77513721
-0.72932646
-0.68020471
-0.62895222
-0.57702991
-0.52621314
-0.47863713
-0.43675056
-0.40354593
-0.38289397
-0.37845359
-0.39624898
-0.44157465
-0.52170507
-0.64427475
-0.81634416
-1.0430236
-1.3250374
-1.6567761
-2.0258852
-2.4148679
-2.8042944
-3.1767545
-3.5194568
-3.8262203
-4.099866
-4.3446563
-4.5646541
-4.7638261
-4.9464701
-5.1161605
-5.2757175
-5.4271904
-5.5719916
-5.7109365
-5.8445674
-5.9731444
-6.0967286
-6.2152878
-6.3286987
-6.4368093
-6.5395331
-6.6367985
-6.7285161
-6.8146687
-6.895304
-6.9705011
-7.0403975
-7.1051638
-7.1649764
-7.2200465
-7.2706118
-7.3169138
-7.3592608
-7.3978667
-7.4329979
-7.4648382
-7.4936006
-7.5194815
-7.5426283
-7.563185
-7.5803293
-7.6008402
-0.012941936
-0.008601939
-0.012919928
-0.019554605
-0.029724297
-0.043487645
-0.060923634
-0.081958454
-0.10670514
-0.1350026
-0.16683472
-0.20203732
-0.24036842
-0.28167095
-0.32565353
-0.37194618
-0.42016185
-0.4697722
-0.52019678
-0.57087644
-0.62116526
-0.67034446
-0.71768196
-0.76239402
-0.80369994
-0.84086194
-0.8731608
-0.89983979
-0.9201961
-0.93369183
-0.9399564
-0.93869289
-0.92971746
-0.91293554
-0.88836433
-0.85711545
-0.81972873
-0.77696554
-0.72967915
-0.67888216
-0.62581141
-0.57199302
-0.51923953
-0.46966994
-0.42566189
-0.39008886
-0.36675117
-0.35842383
-0.37143831
-0.41080371
-0.48418889
-0.600128
-0.7672336
-0.9929547
-1.2800854
-1.6238196
-2.0110178
-2.4216684
-2.8326477
-3.2235391
-3.5816574
-3.8995743
-4.180915
-4.4297904
-4.6508802
-4.8492178
-5.0296338
-5.1961874
-5.3519679
-5.4993009
-5.6397764
-5.7744042
-5.9038185
-6.0283182
-6.148046
-6.2629789
-6.3730035
-6.4779864
-6.5778208
-6.672428
-6.7616876
-6.8455794
-6.9241204
-6.9974092
-7.0655594
-7.1287198
-7.1870719
-7.2408283
-7.2902147
-7.3354576
-7.3767773
-7.4143821
-7.4485355
-7.4794507
-7.5073417
-7.5324041
-7.5547644
-7.5745805
-7.5910352
-7.6107425
-0.017482654
-0.01286755
-0.016990532
-0.023408074
-0.033354259
-0.046952293
-0.064186372
-0.085171455
-0.10980942
-0.1381135
-0.16999625
-0.20527087
-0.24382089
-0.28541323
-0.32973907
-0.37649045
-0.42520564
-0.47535748
-0.52643953
-0.57783756
-0.62886281
-0.6788133
-0.72692819
-0.77239746
-0.81443723
-0.85228849
-0.8851593
-0.91228607
-0.93300545
-0.94677821
-0.95317099
-0.95188169
-0.94275756
-0.92579536
-0.90117931
-0.86941285
-0.83112318
-0.78713794
-0.73842471
-0.686114
-0.63151179
-0.57618339
-0.52188938
-0.47073432
-0.42507813
-0.38755065
-0.36140337
-0.35013254
-0.35855289
-0.39204775
-0.45806077
-0.56612965
-0.72684258
-0.95158803
-1.2461698
-1.6068033
-2.0194381
-2.4603109
-2.8997531
-3.3116752
-3.6810795
-4.0044077
-4.2857951
-4.5309662
-4.7460994
-4.9376864
-5.1112484
-5.2712286
-5.4209038
-5.5627566
-5.6983327
-5.8286007
-5.9541778
-6.0752859
-6.1919849
-6.3042022
-6.4117618
-6.5145009
-6.6122944
-6.704992
-6.7924531
-6.8746583
-6.9515995
-7.0233575
-7.0900451
-7.1518267
-7.2088591
-7.26136
-7.3095013
-7.3535341
-7.3936863
-7.4302161
-7.4633404
-7.4932962
-7.5202839
-7.5445326
-7.5662076
-7.5853896
-7.6012468
-7.6205303
-0.019555317
-0.014612101
-0.018586245
-0.024748284
-0.034501062
-0.047855189
-0.064996069
-0.085872006
-0.11052151
-0.13893324
-0.17097887
-0.20659224
-0.24561138
-0.28778496
-0.33285836
-0.38046985
-0.43016664
-0.48147545
-0.53384072
-0.58661429
-0.63911569
-0.69061583
-0.74031775
-0.7873928
-0.8310159
-0.87032935
-0.9044894
-0.93273156
-0.9543662
-0.9687897
-0.97551012
-0.97419927
-0.96469371
-0.94698741
-0.9213013
-0.88801864
-0.84790551
-0.8017947
-0.7507285
-0.69594824
-0.63893258
-0.58133067
-0.52497774
-0.4719741
-0.42460975
-0.38525212
-0.35659572
-0.3417641
-0.34467161
-0.37056258
-0.42622031
-0.52251575
-0.67212191
-0.89415714
-1.1989239
-1.5836743
-2.0340526
-2.5218589
-3.0052551
-3.4469814
-3.8311662
-4.159671
-4.4376704
-4.6745654
-4.8792593
-5.0595994
-5.2221399
-5.3717955
-5.512165
-5.6458526
-5.7743844
-5.8986358
-6.0190453
-6.1357283
-6.2486088
-6.357448
-6.4619903
-6.5619988
-6.657251
-6.7475489
-6.8327404
-6.9127492
-6.9875763
-7.0573049
-7.1220317
-7.1819222
-7.2371453
-7.2878977
-7.3343558
-7.3767859
-7.4154422
-7.4505512
-7.4823352
-7.511044
-7.5368751
-7.5600558
-7.5807661
-7.5991264
-7.6143762
-7.6338251
-0.01900391
-0.013585941
-0.017278255
-0.023175828
-0.032602028
-0.045771637
-0.062722415
-0.083527159
-0.10823224
-0.13678558
-0.16917147
-0.20529443
-0.24497338
-0.28802082
-0.33415675
-0.38301025
-0.43418237
-0.48718094
-0.54140072
-0.59620274
-0.6508991
-0.70471068
-0.75679715
-0.80628364
-0.85225717
-0.893781
-0.92997215
-0.96001836
-0.98312529
-0.99860531
-1.0059332
-1.0047426
-0.99483545
-0.97620279
-0.94905036
-0.91386712
-0.87137426
-0.82252209
-0.76848125
-0.7106805
-0.65074951
-0.59050882
-0.53194629
-0.47717274
-0.42839196
-0.38770928
-0.35730861
-0.33974289
-0.33812472
-0.35619471
-0.40094181
-0.48430117
-0.61803194
-0.83635249
-1.1572018
-1.5772373
-2.0828602
-2.6400711
-3.1874204
-3.6664934
-4.0615274
-4.3848605
-4.6497153
-4.8694695
-5.0557802
-5.2181885
-5.3642509
-5.4992025
-5.6267552
-5.7494239
-5.8686267
-5.9850224
-6.098825
-6.2099219
-6.3179943
-6.422636
-6.5234419
-6.6200624
-6.7121838
-6.7995143
-6.8818562
-6.9591382
-7.0313572
-7.0985613
-7.1608607
-7.2183985
-7.2713582
-7.3199017
-7.3642891
-7.4047393
-7.4415292
-7.4748901
-7.5050546
-7.5322536
-7.5566594
-7.5784952
-7.5979407
-7.6149854
-7.628566
-7.6508102
-0.015761512
-0.0096678809
-0.013027027
-0.0184524
-0.027550112
-0.040390456
-0.05712966
-0.077863276
-0.10259838
-0.13139249
-0.16422788
-0.20098548
-0.24154703
-0.28572572
-0.33323608
-0.38375742
-0.43688738
-0.4920949
-0.54878599
-0.60632759
-0.663984
-0.72092435
-0.77625447
-0.82900881
-0.87818992
-0.92281014
-0.96189677
-0.99450571
-1.0197222
-1.0367753
-1.045105
-1.0442541
-1.0339749
-1.0142478
-0.98530144
-0.94771111
-0.90212819
-0.84974611
-0.79193882
-0.73037455
-0.66690929
-0.6036341
-0.54275997
-0.48647595
-0.43694392
-0.39605376
-0.36555823
-0.34731959
-0.34347358
-0.35525462
-0.39046384
-0.46186867
-0.56678442
-0.78416172
-1.1291709
-1.5942341
-2.1798582
-2.8472696
-3.4879885
-4.0052272
-4.3961338
-4.6981654
-4.934297
-5.123521
-5.279984
-5.4151813
-5.5373132
-5.6516324
-5.7618289
-5.8701315
-5.9775779
-6.0843644
-6.1902747
-6.2948505
-6.3974302
-6.4973266
-6.5939512
-6.686824
-6.7754488
-6.8594373
-6.9385979
-7.0128274
-7.0820887
-7.1464141
-7.2059167
-7.2607288
-7.3110469
-7.3570352
-7.3989748
-7.4371026
-7.471681
-7.5029633
-7.5312008
-7.5566112
-7.5793733
-7.5996816
-7.6177177
-7.6334645
-7.6467989
-7.6660523
-0.0099229985
-0.0029744606
-0.0057573031
-0.010659535
-0.019222018
-0.031652547
-0.048131629
-0.068717235
-0.093523281
-0.12261515
-0.15595283
-0.19349016
-0.23512655
-0.28067272
-0.32990201
-0.3825056
-0.43804786
-0.4960201
-0.55585303
-0.61687354
-0.67829147
-0.73922602
-0.79870455
-0.85567613
-0.90906563
-0.95777701
-1.0006837
-1.0366951
-1.0647845
-1.084066
-1.0938773
-1.0936578
-1.0830742
-1.0621155
-1.0310164
-0.99030268
-0.94096398
-0.8842481
-0.82182932
-0.75566065
-0.68804972
-0.62146293
-0.55832478
-0.50101304
-0.45172521
-0.41216252
-0.38361846
-0.36732497
-0.36503808
-0.37904114
-0.40570259
-0.47961057
-0.53770355
-0.77655945
-1.1593238
-1.6746339
-2.3469685
-3.1926933
-3.9924259
-4.5295596
-4.8782997
-5.129445
-5.311926
-5.450477
-5.5605993
-5.6558427
-5.7443112
-5.8305981
-5.9179189
-6.0079472
-6.1009195
-6.1962375
-6.2930253
-6.3902133
-6.4866673
-6.5813852
-6.6735053
-6.7623016
-6.8471092
-6.9274787
-7.0031633
-7.0740044
-7.139944
-7.2010152
-7.2573062
-7.3089961
-7.356255
-7.3993047
-7.4384062
-7.4738322
-7.5058568
-7.5347379
-7.5607045
-7.5840065
-7.6048648
-7.6234654
-7.639935
-7.6542372
-7.6670415
-7.6827031
-0.001688305
0.0065247883
0.0044206836
0.00032490932
-0.0075528004
-0.019457204
-0.035536797
-0.055954868
-0.080829
-0.11020477
-0.14411818
-0.18255382
-0.22541603
-0.27257643
-0.32384313
-0.37889462
-0.4373199
-0.49865571
-0.56231516
-0.62757048
-0.69359261
-0.75944515
-0.82406866
-0.88632832
-0.9450443
-0.9989459
-1.0467205
-1.0871315
-1.1190145
-1.141307
-1.1531551
-1.1539289
-1.1432046
-1.1209085
-1.0872969
-1.0429594
-0.98905911
-0.92691328
-0.85883178
-0.7871636
-0.71474772
-0.64455444
-0.57933561
-0.52166561
-0.47376395
-0.43713336
-0.41264686
-0.40172253
-0.40729146
-0.42628234
-0.45949399
-0.5695273
-0.63446146
-0.93749431
-1.403285
-2.0171227
-2.7945316
-3.8415607
-4.8878355
-5.345635
-5.5739974
-5.7094497
-5.8007375
-5.8639764
-5.9062821
-5.9451138
-5.9875887
-6.0366768
-6.0947664
-6.1622853
-6.2380051
-6.3200909
-6.4066279
-6.4957115
-6.5855935
-6.6747971
-6.7621177
-6.8465555
-6.9272743
-7.0037359
-7.0756111
-7.142711
-7.2049414
-7.2623437
-7.3150022
-7.363131
-7.4068978
-7.4465656
-7.4824361
-7.5147824
-7.543874
-7.5699904
-7.5933885
-7.6143199
-7.6330095
-7.6496732
-7.6644062
-7.6770823
-7.6890336
-7.7017468
0.0087769837
0.018661945
0.017630626
0.014575475
0.0075811279
-0.0035890764
-0.019186701
-0.039373527
-0.06423996
-0.093897802
-0.12842633
-0.16782326
-0.21206022
-0.26105702
-0.31462081
-0.37247485
-0.43428008
-0.49957715
-0.56774597
-0.63803466
-0.70957785
-0.78136175
-0.85224684
-0.92100086
-0.9862756
-1.0466036
-1.1004895
-1.1465044
-1.183267
-1.2094654
-1.2240542
-1.2263324
-1.2157471
-1.1920843
-1.1555989
-1.106956
-1.0473624
-0.97896858
-0.9040683
-0.82585286
-0.74787668
-0.67386207
-0.60684265
-0.54934817
-0.50374584
-0.47134745
-0.45261715
-0.44963815
-0.46544514
-0.4962694
-0.55982901
-0.76716203
-0.93091965
-1.4426122
-1.2699167
-2.251568
-3.5502658
-5.0649144
-6.5050089
-6.5382275
-6.6011688
-6.5068648
-6.4418118
-6.3872865
-6.3291851
-6.2883413
-6.2681579
-6.2686155
-6.2902209
-6.330868
-6.3867626
-6.4541728
-6.5297172
-6.6103388
-6.6934705
-6.7770538
-6.8594573
-6.9393559
-7.0157715
-7.0880803
-7.1558537
-7.2188461
-7.2769731
-7.330289
-7.3789215
-7.4230509
-7.4629
-7.4987564
-7.5309463
-7.5597644
-7.5855266
-7.6085205
-7.6290101
-7.6472703
-7.663554
-7.6780779
-7.6909915
-7.7018176
-7.7125891
-7.7230292
0.021133885
0.033462088
0.033910353
0.032228399
0.026405222
0.016106792
0.0011122969
-0.018705363
-0.043497614
-0.0734064
-0.1085251
-0.14892785
-0.19464838
-0.24562617
-0.30172423
-0.36275363
-0.42841597
-0.49824411
-0.57162063
-0.64778954
-0.72583727
-0.80467986
-0.88308084
-0.95966416
-1.0328838
-1.1010778
-1.162542
-1.2155788
-1.2584912
-1.2896931
-1.3079506
-1.3123861
-1.3023113
-1.2773608
-1.2377012
-1.1841096
-1.1181176
-1.0420878
-0.95904348
-0.87299787
-0.7887052
-0.71085632
-0.64224667
-0.58540155
-0.54310186
-0.51583928
-0.50318202
-0.50491005
-0.52803059
-0.59611936
-0.59757505
-0.99675656
-0.71704564
-1.1693005
-2.7606153
-3.9940011
-5.0512184
-6.2500757
-7.1150747
-7.573178
-8.052962
-7.5041142
-7.2438567
-7.0285968
-6.8318131
-6.6859991
-6.5838433
-6.5223552
-6.4999406
-6.5098546
-6.5441159
-6.5961681
-6.660574
-6.7328416
-6.8094369
-6.8875788
-6.9651277
-7.0404687
-7.1124973
-7.1804454
-7.2438357
-7.302384
-7.3560429
-7.4048579
-7.4489966
-7.4886568
-7.5240996
-7.5556673
-7.5837195
-7.6085832
-7.6305935
-7.6500873
-7.6673424
-7.6826233
-7.6962276
-7.708367
-7.7191333
-7.7283871
-7.7377295
-7.7462683
0.034858743
0.050850406
0.053445805
0.053577147
0.049119103
0.039852095
0.02563508
0.0063017531
-0.018317688
-0.048376176
-0.084037629
-0.12544751
-0.17267347
-0.22573042
-0.28459507
-0.34914008
-0.4190847
-0.49400189
-0.57331007
-0.65624537
-0.74184443
-0.82896583
-0.91626435
-1.0021678
-1.0849338
-1.1626987
-1.2334549
-1.2951681
-1.3458123
-1.3834428
-1.4064759
-1.4138373
-1.4047659
-1.3787941
-1.3359259
-1.2768503
-1.2033536
-1.1183363
-1.0258866
-0.93106173
-0.8395451
-0.75775444
-0.68881228
-0.63419496
-0.59638212
-0.57291385
-0.56001712
-0.55281267
-0.58842767
-0.78193168
-0.58755563
-0.89134744
-2.433662
-4.8590175
-8.2339924
-12.017604
-13.888561
-15.129868
-13.431502
-12.324463
-10.608007
-9.3207079
-8.5852403
-7.9364021
-7.4634542
-7.1458488
-6.9297147
-6.7903791
-6.7169216
-6.6937081
-6.7059648
-6.7431193
-6.7971748
-6.8619179
-6.932636
-7.0057901
-7.0787729
-7.1497258
-7.2173727
-7.2808196
-7.3395851
-7.3933898
-7.4421717
-7.4860291
-7.5251614
-7.5598478
-7.5903963
-7.6171795
-7.6406005
-7.6610602
-7.6789047
-7.6944651
-7.7080865
-7.7200749
-7.7307262
-7.7402327
-7.7487298
-7.7562427
-7.7641304
-7.7710497
0.04866728
0.071133729
0.07679841
0.078962176
0.076025923
0.067952196
0.054631288
0.035912233
0.011626317
-0.018453477
-0.054559982
-0.096881868
-0.14557763
-0.20079403
-0.2625968
-0.33090836
-0.40551596
-0.48607295
-0.57204051
-0.66265479
-0.75692462
-0.85363142
-0.95131672
-1.0482425
-1.1424388
-1.2317489
-1.3138098
-1.3861941
-1.4465457
-1.4924157
-1.5215508
-1.53272
-1.5253209
-1.4988548
-1.4529956
-1.388143
-1.3062693
-1.2115166
-1.1092041
-1.0053193
-0.90273111
-0.81887488
-0.75462651
-0.70294374
-0.66944754
-0.64572897
-0.60931552
-0.55969362
-0.54529276
-0.68869976
-0.99405697
-1.2100825
-4.7925551
-9.0102027
-13.139392
-17.823364
-21.100359
-22.182418
-20.925108
-18.498899
-13.855574
-11.042071
-10.595464
-9.1688739
-8.2000414
-7.6358807
-7.281309
-7.0554549
-6.9296189
-6.8747467
-6.8672357
-6.8917817
-6.9375077
-6.9963214
-7.0623262
-7.131317
-7.2002691
-7.2671359
-7.3304748
-7.3893664
-7.443265
-7.4919338
-7.5353906
-7.5738001
-7.6074205
-7.6365904
-7.6616841
-7.6831363
-7.7014125
-7.7169506
-7.7301496
-7.7413697
-7.7509909
-7.7593342
-7.7667074
-7.7733389
-7.7793847
-7.7849823
-7.7913652
-7.7968528
0.072198968
0.097049326
0.10488664
0.10889744
0.10749237
0.10065503
0.088341846
0.070415548
0.046638508
0.016714212
-0.019634794
-0.062697588
-0.11278508
-0.17015856
-0.23495925
-0.30720672
-0.38681129
-0.47352189
-0.5668558
-0.66607666
-0.77018552
-0.87789463
-0.98762732
-1.0974885
-1.2052539
-1.3084158
-1.4042069
-1.4897134
-1.5621652
-1.6185008
-1.6554037
-1.6713517
-1.6662641
-1.6400181
-1.5920081
-1.5220059
-1.4313453
-1.3256741
-1.2112413
-1.0895681
-0.98178766
-0.90995486
-0.85810565
-0.80745397
-0.78304471
-0.76078746
-0.66252787
-0.5581372
-0.50671954
-0.22411599
0.82117945
-2.6321049
-7.5617795
-12.30486
-18.264837
-24.256118
-28.606898
-30.144931
-28.507448
-24.318629
-17.390569
-11.890347
-12.823675
-10.451391
-8.9285591
-8.0880067
-7.594148
-7.2915823
-7.1230626
-7.0439961
-7.0225016
-7.0388878
-7.0795908
-7.1348904
-7.1979223
-7.2639168
-7.329606
-7.3928114
-7.4519717
-7.5062052
-7.5549814
-7.598136
-7.6358088
-7.6682258
-7.6957548
-7.7188201
-7.7378696
-7.7534136
-7.7659808
-7.7760528
-7.7840874
-7.7905051
-7.7956994
-7.8000202
-7.8037943
-7.80728
-7.8106593
-7.8141384
-7.818922
-7.8230917
0.10170885
0.1285861
0.13816331
0.14376249
0.14374339
0.1381581
0.12699331
0.1100417
0.087000059
0.057519657
0.021213217
-0.022364584
-0.07366137
-0.13304364
-0.20078267
-0.27705555
-0.36191549
-0.45522419
-0.55659213
-0.6653425
-0.78049803
-0.90073813
-1.0243689
-1.149301
-1.2730427
-1.3927463
-1.5051875
-1.6068444
-1.6943547
-1.763978
-1.8108812
-1.8328993
-1.8309147
-1.8061314
-1.7576309
-1.6840366
-1.585645
-1.4702536
-1.3522635
-1.2346233
-1.1245627
-1.0650298
-1.0413682
-0.98412825
-0.99466876
-0.96821359
-0.7633985
-0.60988442
-0.5867649
0.10711528
2.0696533
-5.1810061
-9.2028645
-15.023292
-22.28859
-29.327102
-35.142103
-37.23632
-35.648869
-30.689583
-23.594771
-14.401723
-13.80527
-11.277933
-9.3998134
-8.3967966
-7.8189813
-7.4733963
-7.2835685
-7.1936912
-7.1673475
-7.181985
-7.2221029
-7.2770228
-7.3392673
-7.4037456
-7.467115
-7.5270696
-7.582175
-7.6316429
-7.6749987
-7.7122344
-7.7435825
-7.7694084
-7.7902133
-7.8065175
-7.8188555
-7.8278364
-7.834064
-7.8381026
-7.8404373
-7.8415356
-7.8418371
-7.8417172
-7.841548
-7.8415956
-7.8420569
-7.8432157
-7.8462618
-7.849128
0.13702062
0.16578202
0.17695162
0.18369983
0.18488782
0.18058623
0.17070228
0.1549544
0.13298478
0.10432992
0.068425794
0.024679697
-0.027478973
-0.088576442
-0.1590749
-0.23934012
-0.32959094
-0.42983779
-0.53983857
-0.6590286
-0.78647813
-0.92085886
-1.0603798
-1.2027651
-1.3452506
-1.4846136
-1.6171218
-1.7385944
-1.844918
-1.9315272
-1.9914504
-2.0204583
-2.0199341
-1.9959129
-1.9508592
-1.8798162
-1.7784041
-1.653129
-1.5367305
-1.4316229
-1.2956342
-1.2719452
-1.2449557
-1.0938634
-1.3272115
-1.3798657
-0.89341728
-0.66060207
-0.51412537
3.6970947
1.2745194
-5.37562
-9.8201046
-16.474073
-24.168134
-32.711467
-38.790097
-41.427406
-40.196921
-35.089363
-27.373078
-20.087469
-14.718632
-11.588348
-9.5574679
-8.5244991
-7.9316997
-7.5886066
-7.4041333
-7.3199185
-7.2998305
-7.3202023
-7.3648568
-7.4230125
-7.4868275
-7.5513215
-7.6132526
-7.6704535
-7.7216179
-7.7661127
-7.8036909
-7.8344992
-7.8589034
-7.8774555
-7.8908079
-7.8995929
-7.9044868
-7.9062404
-7.905487
-7.9028493
-7.8988711
-7.8940899
-7.8889969
-7.8839951
-7.879487
-7.8757634
-7.87302
-7.8716629
-7.8728314
-7.8742444
0.17675238
0.21151093
0.22175008
0.22869416
0.23086671
0.22787746
0.21946855
0.20527423
0.18480376
0.15742532
0.12241758
0.079038328
0.026540903
-0.035821359
-0.1087396
-0.19279124
-0.288406
-0.39580626
-0.51494197
-0.64541721
-0.78640131
-0.93658953
-1.0941348
-1.2566049
-1.4209725
-1.5836122
-1.7402393
-1.8860045
-2.0160815
-2.1247988
-2.2023473
-2.2420151
-2.2432288
-2.2140633
-2.1734442
-2.1114354
-2.0175391
-1.8904233
-1.8133469
-1.8114463
-1.6170135
-1.1845077
0.60084275
2.0293218
1.0966728
-1.7268238
-0.78749245
-0.65503793
-0.75858119
4.2228487
-0.84453239
-5.5905011
-10.092934
-15.977362
-24.308496
-32.158058
-38.533469
-41.548351
-40.613617
-35.838009
-28.002274
-20.469913
-14.930457
-11.30397
-9.4266889
-8.4752181
-7.9348704
-7.6427096
-7.4858436
-7.4238849
-7.4212263
-7.454724
-7.5089087
-7.574307
-7.6418156
-7.7076388
-7.7689123
-7.8237615
-7.8710347
-7.9102596
-7.9415645
-7.965295
-7.9820452
-7.9925382
-7.997588
-7.998049
-7.9947226
-7.9884303
-7.9799364
-7.9699293
-7.959005
-7.9477644
-7.9367407
-7.9263796
-7.9170996
-7.9092313
-7.9029727
-7.8988784
-7.8979973
-7.8977445
0.22842946
0.25867551
0.27051685
0.27799335
0.28127528
0.27979096
0.27320107
0.26100932
0.24255074
0.21703723
0.18360042
0.14130926
0.089176796
0.026202718
-0.048565693
-0.13597602
-0.23672666
-0.35131466
-0.47994682
-0.62244508
-0.7781413
-0.94582003
-1.1236536
-1.3090827
-1.4988167
-1.6888821
-1.8744335
-2.0498479
-2.2098716
-2.3474213
-2.4483094
-2.5011461
-2.4994851
-2.4467777
-2.4426201
-2.4194822
-2.3720847
-2.2597099
-2.2524203
-2.397924
-2.2653105
-0.73910702
0.32207595
0.84060891
2.3337791
-0.72895107
-0.72508903
-0.2009191
-0.87565028
3.7549754
-1.3326341
-4.5225582
-8.7129529
-13.764755
-21.124547
-28.404716
-34.417574
-37.547941
-37.019086
-32.571558
-25.641116
-18.841678
-13.75298
-10.613905
-9.0574696
-8.2810349
-7.8576138
-7.6371478
-7.5364726
-7.5123882
-7.5364653
-7.5888599
-7.6561348
-7.7339914
-7.806006
-7.8741509
-7.9354811
-7.988164
-8.0313753
-8.0649337
-8.0893089
-8.1050759
-8.1133219
-8.1148068
-8.1106226
-8.1018075
-8.0893679
-8.0741847
-8.0571308
-8.0389825
-8.0204243
-8.0020988
-7.9845773
-7.9683345
-7.9538307
-7.9414119
-7.9313101
-7.9242175
-7.9210678
-7.91894
0.28510165
0.3094502
0.3233826
0.33115548
0.33566564
0.33601184
0.33168032
0.32201679
0.30621652
0.28334776
0.25234738
0.21205283
0.16120899
0.098525174
0.022746539
-0.067314135
-0.17270674
-0.29426968
-0.43253616
-0.58762412
-0.7591164
-0.94597288
-1.1464479
-1.3578869
-1.5767663
-1.798935
-2.0190036
-2.2304856
-2.4289995
-2.6062223
-2.7404513
-2.8156996
-2.8262163
-2.6644143
-2.7256694
-2.7689954
-2.8078198
-2.6847156
-2.8013483
-3.2348579
-1.7104328
0.37066623
-0.35884069
-1.2925623
-2.8822751
-2.7811963
-1.1326477
-0.20696844
-0.95596425
3.1494756
-0.83735949
-3.391281
-6.9091555
-10.681272
-16.449127
-22.065105
-26.947325
-29.660515
-29.287839
-25.861008
-20.574992
-15.425306
-11.689083
-9.5441037
-8.5169637
-8.0026647
-7.7329134
-7.6081203
-7.5735516
-7.5953815
-7.6521531
-7.7283475
-7.8132686
-7.899769
-7.9803681
-8.0526103
-8.1145621
-8.1650864
-8.2038222
-8.2310903
-8.2476223
-8.2545238
-8.2530309
-8.2444128
-8.2299211
-8.2107909
-8.1882173
-8.1632039
-8.1367215
-8.1096304
-8.0827162
-8.0566361
-8.0319925
-8.0093084
-7.9890962
-7.9716848
-7.9573635
-7.9469841
-7.9413029
-7.9371293
0.34427616
0.36463401
0.37863057
0.38737214
0.39347772
0.39607906
0.39451988
0.38804206
0.37571115
0.35643365
0.32893197
0.29177637
0.24341226
0.18221968
0.10658056
0.014902221
-0.094302637
-0.2223019
-0.37004056
-0.53804547
-0.72628297
-0.93395469
-1.1594566
-1.4001352
-1.6522593
-1.9116209
-2.1724123
-2.4274026
-2.6743956
-2.9068663
-3.1036526
-3.2427179
-3.2577914
-3.0895898
-3.154468
-3.2408564
-3.3541579
-3.0121332
-3.1120567
-3.7869065
-1.2531922
0.30007535
-3.6320452
-4.3383519
-4.5874902
-3.4707337
-0.24234092
0.30168605
1.0185204
1.4822511
2.0402771
-2.7585423
-4.930341
-7.6173608
-11.290248
-15.027822
-18.380248
-20.322286
-20.200932
-18.010222
-14.690847
-11.581638
-9.491175
-8.414071
-7.9381794
-7.7090452
-7.6035268
-7.5808704
-7.6145572
-7.6839617
-7.7755804
-7.8775296
-7.9812154
-8.0800464
-8.1691436
-8.2457239
-8.3082629
-8.3561678
-8.3897043
-8.4096739
-8.4172679
-8.4140309
-8.4015768
-8.381546
-8.3554777
-8.3248554
-8.2910259
-8.2551633
-8.2183238
-8.181457
-8.1454044
-8.1108551
-8.078434
-8.0487249
-8.0222641
-7.9993724
-7.9804142
-7.9664217
-7.9579275
-7.9515602
0.40481878
0.42223864
0.43662235
0.44597048
0.4540408
0.45938369
0.46120392
0.45869768
0.45079826
0.43623101
0.41350881
0.38090474
0.33652005
0.27836371
0.20438667
0.11250902
0.00072767118
-0.13276071
-0.28944932
-0.47039425
-0.67608433
-0.90612653
-1.1590446
-1.4322523
-1.7220293
-2.0240492
-2.3317789
-2.6373348
-2.9432001
-3.247364
-3.5256556
-3.8249535
-3.9586597
-4.1664089
-4.3324186
-3.628071
-3.3891112
-3.2617916
-2.9820478
-3.7460984
-4.8719653
-5.2797175
-6.511865
-6.9431041
-6.4395398
-4.7390761
-1.5505065
0.97303084
2.6355675
2.2295339
4.9854291
-1.370313
-2.7013904
-4.8728541
-6.6263972
-9.2096121
-11.130619
-12.426892
-12.507006
-11.576811
-9.966792
-8.5633935
-7.7920153
-7.5219304
-7.466249
-7.4731267
-7.5115089
-7.5807314
-7.6757481
-7.7892954
-7.9144784
-8.0422681
-8.1652987
-8.2776468
-8.3754837
-8.4563139
-8.5190298
-8.5635916
-8.5908117
-8.6020944
-8.5992129
-8.5842418
-8.5592628
-8.5262988
-8.4872358
-8.4437992
-8.3975052
-8.349688
-8.3014949
-8.2539671
-8.2079648
-8.1641998
-8.1233202
-8.0859695
-8.0526702
-8.0237601
-7.9997237
-7.9817408
-7.9701084
-7.9614291
0.46591321
0.48121405
0.4957511
0.507051
0.5165632
0.52518821
0.53105735
0.5333831
0.53101958
0.52249312
0.50606775
0.47971232
0.44116089
0.38798294
0.31762398
0.22743861
0.1148112
-0.022726561
-0.18739127
-0.38092851
-0.60446225
-0.85820326
-1.141007
-1.4503417
-1.7825241
-2.1329117
-2.4937498
-2.8550234
-3.2201381
-3.6044082
-3.9936493
-4.4256274
-4.701936
-5.191577
-3.6702564
-0.42949583
-0.94836873
-1.2508472
-2.880422
-3.5633384
-4.4224872
-5.906408
-7.5633733
-7.8161278
-6.6412325
-4.7487625
-1.8495629
1.9104497
3.8805259
4.3333899
5.6524067
0.82595951
-0.46940036
-2.2412131
-3.5734718
-4.8731671
-6.3265014
-7.2456212
-7.773689
-7.5907435
-7.0317625
-6.6708986
-6.7280674
-6.9688955
-7.1705529
-7.3365443
-7.4802315
-7.6197464
-7.76533
-7.9182321
-8.0747773
-8.2277451
-8.3701569
-8.4964306
-8.6030478
-8.6877181
-8.749789
-8.7897381
-8.809037
-8.8097848
-8.7944781
-8.7658035
-8.7263883
-8.678709
-8.6250384
-8.5673202
-8.5072582
-8.4463218
-8.3857575
-8.3266412
-8.2698589
-8.2161188
-8.1660803
-8.1204235
-8.0796723
-8.0441654
-8.0145596
-7.9921426
-7.9769216
-7.9657768
0.52703337
0.54082465
0.55552873
0.56828538
0.58062244
0.59258223
0.60311446
0.61121873
0.61563703
0.61468688
0.60634223
0.58826081
0.55778076
0.5119751
0.44769785
0.36166405
0.25050769
0.11094297
-0.060109838
-0.26532643
-0.50671179
-0.7853091
-1.1006585
-1.4504197
-1.8308866
-2.2371699
-2.6587271
-3.0823082
-3.509913
-3.9785386
-4.4941119
-5.0347068
-5.4251772
-5.649893
-5.3773819
-1.4876508
-1.1320745
-0.594527
-0.061656522
-3.6522781
-3.9458087
-5.0404456
-6.1499748
-6.0422327
-4.5576756
-2.5248595
-0.48810077
7.2900817
13.295492
5.5336906
5.7566027
3.3898065
1.7366085
-0.21008819
-1.5259549
-2.4471873
-2.4665676
-3.3591507
-4.0207559
-4.7235692
-5.1064537
-5.334513
-5.8376531
-6.7319814
-7.0736579
-7.3072198
-7.5104945
-7.6997706
-7.8865053
-8.074421
-8.2606914
-8.4383296
-8.6002079
-8.7407024
-8.8559867
-8.9438079
-9.0039277
-9.0374131
-9.0465529
-9.0343179
-9.0040712
-8.9592599
-8.903153
-8.8387284
-8.7686086
-8.6949911
-8.6197821
-8.5445347
-8.4705723
-8.3989502
-8.3305441
-8.2660537
-8.2061512
-8.1515073
-8.1026492
-8.0599189
-8.0241554
-7.9967519
-7.9772974
-7.9632987
0.58778511
0.60011288
0.61488803
0.62914252
0.64418216
0.66022336
0.6760145
0.69094946
0.70354029
0.71188658
0.71370567
0.70631594
0.68659084
0.65105343
0.59591602
0.51715283
0.41050646
0.27168315
0.096585314
-0.11866028
-0.37737453
-0.68183105
-1.032649
-1.4282294
-1.8655366
-2.3392694
-2.8350135
-3.3328835
-3.8366841
-4.3950261
-5.0521747
-5.8231381
-6.4680468
-6.7022385
-6.3322059
-4.3870297
-2.3887315
-4.1546497
-2.1150396
0.2143897
-1.7861509
-2.5672186
-2.3522686
-1.8841025
-0.6059246
1.1029035
2.668705
9.9759561
14.928678
7.9764411
7.2308344
4.8868023
3.2680263
1.1464604
-0.16496314
-1.0247255
-1.7662153
-2.4050224
-3.1968256
-3.5694439
-4.1400576
-4.7623501
-5.1589339
-5.938013
-7.0930573
-7.3792122
-7.6115822
-7.8300111
-8.0462896
-8.2634787
-8.4770013
-8.6786489
-8.8603027
-9.0154677
-9.1392664
-9.229265
-9.2855288
-9.309938
-9.3058434
-9.2773765
-9.2289869
-9.1650379
-9.0895606
-9.0060581
-8.9174704
-8.8262708
-8.7344889
-8.6437422
-8.5553572
-8.4703285
-8.3894762
-8.3134842
-8.2430099
-8.1787043
-8.1210461
-8.0703972
-8.0277955
-7.9946891
-7.9702067
-7.9525022
0.64764778
0.65790103
0.67249678
0.68808594
0.70577621
0.72611884
0.74822171
0.77088565
0.79313831
0.81272744
0.82713136
0.83324639
0.82745909
0.80568616
0.76343831
0.69583016
0.59759974
0.46325066
0.2873813
0.06463756
-0.21008191
-0.54090721
-0.9302718
-1.3785586
-1.8853118
-2.4469277
-3.0456994
-3.6501515
-4.2655138
-4.9837225
-5.9253068
-7.0126585
-8.1419663
-8.6062642
-7.9980468
-6.9377644
-5.9305694
-4.9074833
-3.345767
-2.0726696
-0.14900358
1.7860124
2.5351072
1.9996116
3.0433309
4.3334414
5.4682139
7.3349772
13.63785
11.486345
8.1643953
5.3259348
3.264641
1.2265569
0.36172654
0.017644307
-0.45860801
-1.1033327
-2.0021071
-3.0152109
-3.9920858
-4.6164783
-5.972102
-6.7140648
-7.224566
-7.5604717
-7.8044994
-8.0303078
-8.2587988
-8.4936211
-8.728796
-8.9534929
-9.1559449
-9.3267974
-9.4591013
-9.5498747
-9.599546
-9.6111817
-9.5896641
-9.5406936
-9.4701102
-9.3833915
-9.2853905
-9.1801586
-9.070954
-8.9604356
-8.8506672
-8.743264
-8.6394691
-8.5401915
-8.4461499
-8.3579689
-8.2762379
-8.2015848
-8.1344114
-8.0750843
-8.0248788
-7.9852386
-7.9548322
-7.932421
0.70557719
0.7129488
0.72679086
0.74331296
0.76347068
0.78828675
0.81712121
0.84896019
0.8823168
0.91530982
0.94504933
0.96791238
0.9797826
0.97594975
0.95111999
0.89943315
0.81453973
0.68962388
0.5175707
0.29113818
0.0029962455
-0.35372265
-0.7843835
-1.2927324
-1.8852817
-2.5669216
-3.3170447
-4.1184433
-5.0040395
-6.1728404
-7.6718083
-9.5437187
-10.323508
-11.059421
-10.581768
-8.8478513
-7.022228
-5.5635684
-3.7424536
-1.8603647
-0.074971221
1.5920058
3.91177
5.1828553
5.986992
7.1292426
8.2569228
10.455117
11.274902
13.782909
7.7989802
5.2357222
3.1162794
-0.24614319
0.040810032
1.0207233
0.97808246
0.29682251
-0.81465622
-2.153461
-3.5472197
-4.8595868
-6.012396
-6.9342271
-7.5746806
-7.9335853
-8.1451658
-8.3300418
-8.5362506
-8.7672484
-9.0170679
-9.2665089
-9.4931095
-9.6822178
-9.8234576
-9.9130271
-9.9521158
-9.9457279
-9.90106
-9.8259646
-9.7280626
-9.6141699
-9.490015
-9.3601535
-9.2281092
-9.0965407
-8.9674535
-8.8423535
-8.7222923
-8.608034
-8.5001689
-8.399185
-8.3055642
-8.2198713
-8.1424317
-8.073608
-8.0149548
-7.9678364
-7.9305079
-7.9022204
0.7600232
0.76374711
0.77595209
0.79273149
0.8148819
0.84402871
0.87996712
0.92185906
0.96837427
1.0169834
1.065144
1.1084753
1.1423475
1.1613443
1.1592947
1.1293235
1.0639184
0.95483632
0.79297074
0.56869594
0.27186618
-0.10826041
-0.58156859
-1.1561893
-1.8484989
-2.6919108
-3.7028606
-4.8310458
-6.0919311
-8.1514145
-10.944788
-14.228062
-16.034416
-14.474615
-13.400018
-11.565231
-8.6669602
-6.3633189
-3.9853479
-1.5252776
0.97712653
3.4301881
5.7863374
7.6851271
9.2194272
10.050992
10.743904
12.061686
10.357591
15.541425
14.683011
5.0741962
1.2712848
-1.3890997
0.19615769
2.6981571
3.075146
2.1148048
0.50627905
-1.2796024
-2.9512551
-4.6235331
-6.1756997
-7.4233494
-8.2766377
-8.6260363
-8.6767437
-8.7249121
-8.8664454
-9.0712962
-9.3344865
-9.6201659
-9.8789489
-10.09182
-10.24311
-10.328528
-10.351036
-10.319011
-10.243225
-10.134582
-10.002942
-9.8566398
-9.7022665
-9.544741
-9.3876289
-9.2334264
-9.0838971
-8.9402586
-8.8032916
-8.6735073
-8.5513057
-8.4369943
-8.3309332
-8.2335498
-8.1450716
-8.0658549
-7.9976554
-7.9421044
-7.896609
-7.8609894
0.80919898
0.80865783
0.81796551
0.83385033
0.85700794
0.88987901
0.93299016
0.98581476
1.0470891
1.1143696
1.1842541
1.2522614
1.3130945
1.3605516
1.3875955
1.3863641
1.3480835
1.2629466
1.1198505
0.90641702
0.6089948
0.21193588
-0.30072
-0.94114008
-1.7388222
-2.7890686