/*--------------------------------*- C++ -*----------------------------------*\
  =========                 |
  \\      /  F ield         | OpenFOAM: The Open Source CFD Toolbox
   \\    /   O peration     | Website:  https://openfoam.org
    \\  /    A nd           | Version:  9
     \\/     M anipulation  |
\*---------------------------------------------------------------------------*/
FoamFile
{
    format      ascii;
    class       surfaceScalarField;
    location    "0.66";
    object      phi;
}
// * * * * * * * * * * * * * * * * * * * * * * * * * * * * * * * * * * * * * //

dimensions      [0 3 -1 0 0 0 0];

internalField   nonuniform List<scalar> 
19800
(
-7.1988201e-05
0.00010435019
-0.0001265641
0.0001048303
-0.0001812667
0.00010548321
-0.00023611711
0.00010638787
-0.00029112965
0.00010733273
-0.00034627156
0.00010831834
-0.00040149978
0.0001093046
-0.00045677865
0.00011025274
-0.0005120286
0.00011111377
-0.00056715709
0.00011184768
-0.00062211487
0.00011246481
-0.00067676019
0.00011284657
-0.00073100451
0.00011308214
-0.00078469079
0.00011302575
-0.00083773742
0.00011272583
-0.00088998485
0.00011211594
-0.00094130739
0.00011124914
-0.00099163236
0.00011010744
-0.0010408501
0.00010867676
-0.0010888319
0.0001069778
-0.0011354833
0.00010498185
-0.0011806993
0.00010260963
-0.0012243682
0.00010008216
-0.0012663378
9.7242495e-05
-0.0013064515
9.418833e-05
-0.0013444978
9.0744584e-05
-0.0013801501
8.6905494e-05
-0.001412959
8.2511771e-05
-0.0014422905
7.7295333e-05
-0.0014676403
7.0877565e-05
-0.0014884677
6.2740085e-05
-0.0015040961
5.2401467e-05
-0.0015137395
3.9352955e-05
-0.001516457
2.3155653e-05
-0.0015131751
5.0390466e-06
-0.0015007967
-1.6137146e-05
-0.001473993
-3.9392411e-05
-0.0014308965
-6.5343803e-05
-0.0013692544
-9.4537313e-05
-0.0012867345
-0.00012732203
-0.0011809522
-0.00016380674
-0.0010496987
-0.00020385612
-0.00089094983
-0.00024733346
-0.00070304846
-0.00029400586
-0.00048429057
-0.00034389894
-0.00023296783
-0.00039655247
5.1960876e-05
-0.00045189261
0.00037120818
-0.00050971675
0.0007248897
-0.00056927025
0.0011117738
-0.0006276055
0.0015288973
-0.00068144771
0.0019701995
-0.00072539955
0.0024252564
-0.00075205911
0.0028786287
-0.00075310703
0.0033106945
-0.00072159692
0.0037001007
-0.00065452931
0.0040272429
-0.00055447009
0.004277688
-0.000429543
0.0044440603
-0.00029105548
0.0045248562
-0.00014916702
0.0045256358
-1.6354016e-05
0.004463337
0.00011107133
0.0043503809
0.00022477125
0.0041983053
0.00032161968
0.0040181367
0.00040013387
0.0038196739
0.00046052504
0.0036108658
0.00050395032
0.0033977974
0.0005319635
0.0031849409
0.00054635651
0.0029754506
0.00054909067
0.00277151
0.00054223302
0.0025745978
0.00052786592
0.0023857122
0.00050797112
0.0022054995
0.00048430538
0.0020343424
0.00045834167
0.0018724056
0.00043117916
0.0017196607
0.00040363707
0.0015759734
0.00037636673
0.0014410691
0.00034968052
0.001314596
0.00032433921
0.0011962866
0.00029987461
0.0010856717
0.0002768982
0.00098237567
0.00025516702
0.00088601094
0.00023475833
0.00079620188
0.00021562603
0.0007125303
0.00019784102
0.0006346709
0.00018126297
0.00056221096
0.0001658229
0.00049473712
0.00015144865
0.00043184974
0.00013814247
0.00037327389
0.00012597767
0.00031878546
0.00011490749
0.00026807165
0.00010474843
0.00022092781
9.5613269e-05
0.00017704682
8.7428691e-05
0.00013609988
8.0061587e-05
9.7833961e-05
7.3519497e-05
6.2066389e-05
6.7728892e-05
2.8333238e-05
6.3145366e-05
5.7675451e-05
-7.1210194e-05
0.00015842092
-0.00012555947
0.00015917036
-0.00018004056
0.00015996128
-0.00023472694
0.00016107182
-0.00028969447
0.00016229305
-0.00034476792
0.00016339363
-0.00040001201
0.00016453434
-0.00045534183
0.00016558841
-0.00051066858
0.000166432
-0.00056596687
0.00016714615
-0.000621109
0.00016760525
-0.00067597241
0.00016770083
-0.00073041395
0.00016752674
-0.00078436974
0.00016698317
-0.00083765318
0.00016600811
-0.00089018011
0.00016464619
-0.00094185899
0.00016292561
-0.00099247243
0.00016071636
-0.0010419695
0.00015817685
-0.0010902335
0.00015524536
-0.0011371252
0.00015187343
-0.0011826464
0.00014813133
-0.0012266652
0.0001441007
-0.0012690611
0.00013963659
-0.001309634
0.00013476385
-0.0013482445
0.0001293607
-0.0013846109
0.00012327254
-0.0014184252
0.00011632123
-0.0014492382
0.00010810381
-0.0014765825
9.8219261e-05
-0.0014999274
8.6083311e-05
-0.0015186319
7.1104928e-05
-0.0015319744
5.2694649e-05
-0.0015391812
3.0360763e-05
-0.0015380406
3.8965418e-06
-0.0015267147
-2.7463602e-05
-0.0015025996
-6.3504971e-05
-0.0014630302
-0.00010491053
-0.001405242
-0.0001523283
-0.0013267128
-0.00020585552
-0.0012249331
-0.00026558763
-0.0010975071
-0.00033128412
-0.00094225329
-0.00040258948
-0.00075745506
-0.00047880457
-0.00054167459
-0.00055967934
-0.00029303006
-0.00064519657
-1.0314509e-05
-0.000734612
0.00030622038
-0.00082625586
0.00066047961
-0.00092353239
0.0010524051
-0.0010195324
0.0014806824
-0.0011097257
0.0019409052
-0.0011856277
0.0024234988
-0.001234656
0.0029115103
-0.0012411217
0.0033812595
-0.0011913448
0.0038058923
-0.0010791654
0.0041604052
-0.00090898575
0.0044271428
-0.00069628323
0.0045991867
-0.00046309923
0.0046799918
-0.00022997217
0.0046734281
-9.7891289e-06
0.0045992322
0.00018527293
0.0044694092
0.00035459273
0.0042974476
0.00049358647
0.0040961672
0.00060141348
0.0038768181
0.00067987297
0.0036485087
0.00073226325
0.0034181216
0.00076234833
0.0031905633
0.00077391399
0.0029691164
0.00077053987
0.0027558519
0.00075549927
0.0025519969
0.00073172296
0.0023582084
0.00070175939
0.0021747845
0.00066773224
0.0020017912
0.00063133831
0.0018391061
0.00059386488
0.0016864263
0.00055631846
0.0015434514
0.0005193409
0.0014096058
0.00048352391
0.0012845653
0.00044938025
0.0011677154
0.00041672608
0.0010587019
0.00038591141
0.00095705004
0.00035681895
0.000862285
0.00032952439
0.00077398705
0.00030392505
0.00069174091
0.00028008787
0.00061521234
0.00025779227
0.00054397277
0.00023706205
0.00047768834
0.00021773211
0.00041618771
0.00019964442
0.00035905279
0.00018311427
0.00030601612
0.00016794624
0.00025667096
0.00015409586
0.00021071743
0.00014156655
0.00016800768
0.00013013724
0.00012823711
0.00011983475
9.098044e-05
0.00011078921
5.6126085e-05
0.00010260961
2.3261454e-05
9.6043528e-05
8.8229741e-05
-7.0501579e-05
0.00021225416
-0.00012481037
0.00021347606
-0.0001792514
0.00021440571
-0.00023393345
0.00021574893
-0.00028865068
0.0002170195
-0.00034373398
0.00021847001
-0.00039905059
0.00021986038
-0.00045455456
0.00022108712
-0.00051007425
0.00022195264
-0.00056559315
0.00022266669
-0.00062100753
0.00022301245
-0.00067615969
0.00022285423
-0.00073098209
0.00022234863
-0.00078530067
0.00022129688
-0.00083897771
0.00021968537
-0.00089197397
0.00021764014
-0.0009439671
0.00021491392
-0.00099500323
0.00021175393
-0.0010449015
0.00020807766
-0.0010935448
0.00020388727
-0.0011408517
0.0001991798
-0.0011867161
0.00019399602
-0.0012311345
0.00018851783
-0.0012739049
0.00018240801
-0.0013150358
0.0001758991
-0.0013543088
0.00016863501
-0.0013915953
0.00016055617
-0.0014266229
0.00015134731
-0.0014590828
0.00014056486
-0.0014886126
0.00012774948
-0.0015147253
0.00011219571
-0.0015366732
9.3053419e-05
-0.0015536665
6.9687305e-05
-0.0015644531
4.1145095e-05
-0.0015672827
6.7252317e-06
-0.0015605065
-3.4239936e-05
-0.0015414224
-8.2590356e-05
-0.0015071364
-0.00013919766
-0.0014550735
-0.00020439323
-0.0013820701
-0.00027886175
-0.0012857963
-0.00036186191
-0.0011636204
-0.00045346048
-0.001013595
-0.00055261456
-0.00083388714
-0.00065851005
-0.00062274537
-0.00077082162
-0.00037855893
-0.00088938611
-9.9315192e-05
-0.0010138621
0.00021604946
-0.0011416242
0.00057132446
-0.0012788076
0.0009695569
-0.0014177654
0.0014127988
-0.0015529678
0.0019001915
-0.0016730236
0.0024247446
-0.0017592082
0.0029666306
-0.0017830079
0.0034947102
-0.0017194226
0.0039725693
-0.0015570272
0.0043654942
-0.0013019139
0.0046502725
-0.00098106525
0.004821479
-0.00063430341
0.0048867743
-0.00029526654
0.0048579861
1.8998126e-05
0.0047575306
0.00028572459
0.0045994015
0.00051272627
0.0043998165
0.00069317117
0.0041728553
0.00082837618
0.0039302379
0.00092249036
0.0036812532
0.00098123894
0.0034328978
0.0010107025
0.0031901838
0.0010166269
0.0029564344
0.0010042892
0.0027336379
0.00097829395
0.0025228223
0.00094254306
0.002324344
0.00090023883
0.0021381199
0.00085395528
0.0019637867
0.00080567559
0.0018008504
0.00075680183
0.0016486832
0.00070848455
0.0015067776
0.00066124813
0.0013743466
0.00061595576
0.0012510571
0.00057266898
0.0011360033
0.00053178141
0.0010288824
0.00049303443
0.00092910113
0.0004566005
0.00083620138
0.00042242342
0.00074967603
0.00039045072
0.00066922157
0.00036054442
0.00059435573
0.00033266024
0.00052486382
0.00030655449
0.0004604057
0.00028219118
0.00040037167
0.00025967868
0.00034455979
0.00023892681
0.00029265391
0.00021985351
0.0002444669
0.00020228367
0.00019973161
0.00018630358
0.0001581214
0.0001717491
0.00011924867
0.00015870308
8.3062682e-05
0.00014696089
4.9082584e-05
0.00013658107
1.7150882e-05
0.00012798977
0.00011776686
-6.9731438e-05
0.00026584685
-0.00012368845
0.00026743051
-0.00017787519
0.00026858747
-0.00023243963
0.0002703165
-0.000287401
0.00027197076
-0.00034261668
0.00027369282
-0.00039806653
0.00027530563
-0.00045367161
0.00027669177
-0.00050953454
0.00027781747
-0.00056539723
0.00027852314
-0.00062116649
0.00027878286
-0.00067679802
0.00027848695
-0.00073210398
0.00027765017
-0.00078692484
0.00027611718
-0.00084116156
0.00027392078
-0.00089459972
0.00027107375
-0.00094718879
0.00026750296
-0.00099870886
0.00026327554
-0.0010489912
0.00025835749
-0.0010980497
0.00025294391
-0.0011458063
0.00024693742
-0.0011922343
0.00024042453
-0.001236997
0.00023328166
-0.0012803544
0.00022576855
-0.0013220509
0.00021759693
-0.001362187
0.00020876931
-0.0014006144
0.00019898338
-0.0014373184
0.00018805454
-0.0014719913
0.00017524058
-0.0015043048
0.0001600628
-0.0015338818
0.00014177195
-0.0015601549
0.00011932717
-0.0015822576
9.178947e-05
-0.0015989934
5.7878164e-05
-0.0016087945
1.6524435e-05
-0.0016097127
-3.3322765e-05
-0.0015989221
-9.3383503e-05
-0.0015734179
-0.00016470294
-0.0015301479
-0.00024766265
-0.0014661757
-0.0003428356
-0.0013780023
-0.00045003667
-0.0012633833
-0.00056807916
-0.0011200464
-0.00069594917
-0.00094618725
-0.00083236664
-0.00074094469
-0.00097606782
-0.00050287652
-0.0011274605
-0.00023013362
-0.00128661
8.1834187e-05
-0.0014535924
0.00043545882
-0.0016324298
0.00083868329
-0.0018209907
0.0012998192
-0.0020141035
0.0018250897
-0.002198294
0.0024139221
-0.002348036
0.0030399843
-0.0024090692
0.0036600843
-0.0023395249
0.0042230207
-0.0021199684
0.0046770258
-0.0017559183
0.0049874557
-0.0012914967
0.0051520897
-0.00079893788
0.0051905074
-0.00033368879
0.0051287671
8.0742784e-05
0.0049848225
0.00042966524
0.0047808969
0.00071665609
0.0045362279
0.00093784184
0.0042681174
0.0010964782
0.0039901061
0.0012005038
0.0037119343
0.0012594059
0.0034403346
0.0012822971
0.0031796603
0.0012773089
0.0029324376
0.0012515116
0.0026999145
0.0012108155
0.0024824349
0.0011600224
0.0022797477
0.0011029243
0.0020912477
0.0010424571
0.0019161502
0.00098077274
0.0017535449
0.00091940493
0.0016025915
0.00085943808
0.0014623791
0.00080146021
0.0013320042
0.00074633021
0.0012106792
0.00069399365
0.0010980145
0.00064444432
0.00099317317
0.00059787279
0.00089560788
0.00055416351
0.00080491236
0.00051311789
0.00072044606
0.00047491822
0.00064193928
0.00043905419
0.00056902089
0.00040558071
0.00050122597
0.00037434902
0.00043818099
0.00034523717
0.00037963238
0.00031822944
0.00032534101
0.00029321779
0.00027504036
0.00027015452
0.0002283913
0.00024893594
0.00018511911
0.00022958132
0.00014494958
0.00021192671
0.00010749657
0.00019616417
7.2644814e-05
0.00018181382
3.9989096e-05
0.00016922641
9.0137525e-06
0.00015896849
0.00014558497
-6.8616436e-05
0.00031911934
-0.00012239128
0.00032119781
-0.00017649348
0.00032269861
-0.00023093547
0.0003247481
-0.00028577189
0.00032681269
-0.0003410631
0.00032897875
-0.00039666645
0.00033090747
-0.00045265509
0.00033268277
-0.00050884826
0.00033400482
-0.00056517999
0.00033485454
-0.000621502
0.00033510554
-0.00067773335
0.00033471299
-0.00073363765
0.00033355235
-0.00078909513
0.00033157397
-0.00084397855
0.00032880101
-0.00089805806
0.00032515367
-0.00095122097
0.00032066813
-0.001003353
0.00031540545
-0.0010542658
0.00030926777
-0.0011038675
0.00030254708
-0.0011521016
0.00029517396
-0.0011988402
0.00028716515
-0.0012442595
0.00027870374
-0.0012881407
0.00026965085
-0.0013306918
0.00026014636
-0.0013719158
0.00024999337
-0.0014117576
0.00023882875
-0.0014500823
0.00022638184
-0.0014870566
0.00021221395
-0.0015224711
0.00019547548
-0.0015562064
0.00017550666
-0.0015875295
0.0001506505
-0.0016158429
0.00012010208
-0.0016399199
8.1952604e-05
-0.0016581673
3.4769853e-05
-0.0016686709
-2.2818973e-05
-0.0016686173
-9.3437496e-05
-0.0016548277
-0.00017849283
-0.0016235559
-0.00027893396
-0.0015712122
-0.00039518103
-0.0014941141
-0.00052713629
-0.0013892198
-0.00067297257
-0.0012543833
-0.00083078459
-0.0010885103
-0.00099823961
-0.00089061432
-0.0011739681
-0.00066048348
-0.0013575951
-0.00039600314
-0.001551091
-9.2773266e-05
-0.0017568208
0.00025208902
-0.0019772895
0.00065416017
-0.0022230624
0.0011317657
-0.0024917083
0.0016974261
-0.0027639552
0.0023642752
-0.0030148844
0.0031029845
-0.0031477785
0.0038569799
-0.0030935195
0.004551718
-0.0028147095
0.0051004197
-0.0023046193
0.005447837
-0.0016389154
0.0055996954
-0.00095079324
0.005595698
-0.0003296938
0.0054756737
0.00020076791
0.0052688913
0.00063644808
0.0050011871
0.00098435704
0.0046965147
0.0012425171
0.0043753468
0.0014176463
0.0040526241
0.0015232279
0.0037382426
0.0015737923
0.0034384093
0.0015821272
0.0031565719
0.0015591456
0.0028941426
0.0015139398
0.0026512224
0.0014537365
0.0024271099
0.0013841371
0.0022206609
0.0013093734
0.0020305594
0.0012325583
0.0018554466
0.0011558869
0.0016939311
0.0010809224
0.0015449339
0.0010084352
0.0014070007
0.0009393924
0.0012793318
0.00087399945
0.0011610433
0.00081228033
0.0010512334
0.00075425092
0.0009492564
0.00069984795
0.0008545398
0.00064887974
0.0007663558
0.00060130317
0.00068447883
0.00055679782
0.00060832711
0.00051520733
0.00053765164
0.00047625569
0.00047201205
0.00043998891
0.00041108595
0.00040616209
0.00035461611
0.00037469782
0.00030228092
0.00034555276
0.00025385943
0.00031857642
0.00020905703
0.0002937372
0.00016756965
0.00027106458
0.00012911922
0.00025037727
9.3484897e-05
0.00023180243
6.0096136e-05
0.00021520767
2.8827399e-05
0.00020049089
-1.0558842e-06
0.00018885379
0.0001718859
-6.7183147e-05
0.00037194627
-0.0001206073
0.00037462301
-0.00017438343
0.00037646698
-0.00022872328
0.00037909421
-0.00028371224
0.00038179579
-0.00033912799
0.00038439134
-0.00039506547
0.00038684609
-0.00045136233
0.0003889741
-0.00050802893
0.00039067135
-0.00056491649
0.00039174381
-0.00062189763
0.00039208183
-0.00067882001
0.00039163218
-0.00073551032
0.00039024151
-0.00079180504
0.00038786561
-0.00084750532
0.00038450161
-0.00090239382
0.00038004531
-0.00095637785
0.00037465122
-0.0010092106
0.00036823579
-0.0010608523
0.0003609111
-0.0011110196
0.00035271793
-0.0011598042
0.00034396108
-0.0012071281
0.00033449152
-0.0012530133
0.00032459014
-0.0012976089
0.00031424491
-0.0013408335
0.00030337006
-0.0013827703
0.00029193281
-0.0014237463
0.00027980678
-0.0014640377
0.00026667069
-0.0015036975
0.00025186968
-0.0015427073
0.00023448418
-0.0015809465
0.00021374624
-0.0016183306
0.00018803362
-0.0016539497
0.00015572002
-0.001687125
0.00011512752
-0.0017162202
6.386535e-05
-0.0017389568
-8.0727874e-08
-0.0017526875
-7.9705861e-05
-0.0017538218
-0.00017735966
-0.0017378501
-0.00029490733
-0.0017003311
-0.00043270272
-0.0016368807
-0.00059058814
-0.0015440148
-0.00076583681
-0.0014193024
-0.00095549593
-0.0012620111
-0.0011555305
-0.0010727173
-0.001363264
-0.00085201241
-0.0015783019
-0.00060052415
-0.0018025793
-0.00031515587
-0.0020421887
1.398174e-05
-0.0023064259
0.0004002684
-0.0026093503
0.00087222166
-0.002963662
0.0014324478
-0.0033241817
0.0021710233
-0.0037534583
0.003073331
-0.0040500863
0.0040468761
-0.0040670635
0.0049689278
-0.0037367639
0.0056651515
-0.0030008419
0.0060448665
-0.0020186301
0.00616104
-0.0010669645
0.0060978975
-0.00026654768
0.0059063542
0.0003923095
0.0056159243
0.00092687979
0.0052614892
0.0013387952
0.0048764653
0.0016275388
0.0044870783
0.0018070342
0.0041092893
0.0019010158
0.0037520765
0.0019309944
0.0034202175
0.0019139918
0.003115394
0.0018639735
0.0028372329
0.0017921002
0.0025842144
0.001706755
0.0023542977
0.0016140531
0.002145259
0.0015184162
0.0019548768
0.0014229452
0.0017810796
0.0013296848
0.0016220083
0.0012399955
0.0014759768
0.0011544698
0.001341501
0.0010738681
0.0012174611
0.0009980378
0.0011027803
0.00092695964
0.00099659675
0.00086043323
0.00089806309
0.00079838189
0.00080659377
0.00074035018
0.00072163739
0.00068626146
0.00064270869
0.00063572859
0.00056938784
0.00058853022
0.00050125539
0.0005443892
0.00043808749
0.00050315835
0.00037962395
0.00046462848
0.00032544309
0.00042888139
0.00027532562
0.00039567314
0.00022902469
0.00036487965
0.00018633784
0.00033642437
0.00014696101
0.00031043979
0.00011055346
0.00028678019
7.6874839e-05
0.00026548118
4.5592204e-05
0.00024649237
1.6342218e-05
0.00022973826
-1.0792985e-05
0.00021598806
0.00019804154
-6.5389808e-05
0.00042424004
-0.00011843951
0.00042765689
-0.00017206522
0.0004301006
-0.00022627414
0.00043329704
-0.00028117336
0.00043669226
-0.00033675102
0.00043996942
-0.00039298586
0.00044307381
-0.00044975778
0.00044574459
-0.00050702773
0.00044794323
-0.00056461565
0.00044932788
-0.00062239793
0.0004498612
-0.00068018907
0.0004494224
-0.00073783892
0.00044788817
-0.00079510627
0.00044513227
-0.00085178297
0.00044118103
-0.00090763057
0.00043589247
-0.00096254133
0.00042955948
-0.0010162161
0.00042191174
-0.0010685782
0.00041327646
-0.0011195327
0.00040367438
-0.0011688498
0.00039327939
-0.0012166186
0.00038226078
-0.0012628972
0.00037086744
-0.0013078066
0.00035915329
-0.0013515409
0.00034710573
-0.001394444
0.00033483684
-0.0014367621
0.00032212181
-0.0014788386
0.00030874229
-0.0015208902
0.00029391881
-0.0015634983
0.00027709272
-0.0016065222
0.00025677001
-0.0016503384
0.00023184813
-0.0016945393
0.00019992076
-0.0017382526
0.00015884264
-0.0017802207
0.00010583441
-0.0018181
3.7799016e-05
-0.0018494558
-4.8349739e-05
-0.0018697186
-0.00015709806
-0.0018734279
-0.00029120035
-0.0018550871
-0.00045104678
-0.0018089486
-0.0006367279
-0.0017300239
-0.00084475853
-0.0016163221
-0.0010691951
-0.0014674929
-0.0013043591
-0.0012860814
-0.0015446776
-0.0010761608
-0.0017882245
-0.0008407739
-0.002037966
-0.00057972577
-0.0023032383
-0.00028650829
-0.0025996467
5.1099374e-05
-0.0029469616
0.00043333512
-0.0033458966
0.00090739609
-0.0037982391
0.0018671362
-0.0047131931
0.0031782548
-0.0053612053
0.0045681004
-0.0054569094
0.005835113
-0.0050037764
0.0067063005
-0.0038720264
0.0070075083
-0.0023198384
0.0069357521
-0.0009952116
0.0067182944
-4.9090586e-05
0.0064146342
0.00069597409
0.0060192536
0.0013222661
0.0055549537
0.0018030968
0.0050665683
0.0021159156
0.0045917231
0.0022818731
0.0041482159
0.0023445284
0.0037425999
0.0023366125
0.0033765008
0.0022800902
0.0030486005
0.0021918723
0.0027558615
0.0020848382
0.0024945667
0.001968047
0.0022609323
0.0018476881
0.0020513807
0.0017279705
0.0018626798
0.0016116448
0.0016919874
0.0015003759
0.0015369575
0.0013950253
0.0013953794
0.0012960462
0.0012655987
0.001203646
0.0011463094
0.0011173247
0.0010362434
0.0010370237
0.00093443154
0.00096224223
0.00084007783
0.0008927337
0.00075240145
0.00082802614
0.0006709936
0.00076766955
0.00059539447
0.0007113277
0.00052522846
0.00065869455
0.00046005456
0.00060956132
0.00039967911
0.000563533
0.0003438571
0.00052045126
0.00029219122
0.00048054831
0.00024454391
0.00044331975
0.00020067522
0.00040874617
0.00016031117
0.00037678764
0.00012330185
0.00034745125
8.92988e-05
0.00032078386
5.8038251e-05
0.00029674046
2.9046748e-05
0.00027548595
2.0907822e-06
0.00025669557
-2.2809243e-05
0.00024088609
0.00022212968
-6.3114753e-05
0.00047579847
-0.00011566831
0.00048021431
-0.00016881387
0.00048323902
-0.00022299102
0.00048747196
-0.0002779349
0.00049163687
-0.00033374018
0.00049576792
-0.00039032978
0.0004996614
-0.00044766384
0.00050307995
-0.00050564799
0.00050592374
-0.00056408159
0.000507759
-0.00062284708
0.00050862635
-0.00068172141
0.00050829368
-0.00074046952
0.00050663451
-0.0007989412
0.00050360541
-0.00085678983
0.00049902856
-0.00091386666
0.00049296604
-0.00096985776
0.00048555075
-0.0010245794
0.00047663581
-0.0010778328
0.00046653029
-0.0011294482
0.00045528892
-0.0011793639
0.00044319419
-0.0012275584
0.00043045365
-0.0012741683
0.00041747601
-0.0013192915
0.00040427739
-0.0013633291
0.00039114417
-0.0014066459
0.0003781509
-0.0014497653
0.00036523671
-0.0014930603
0.00035203515
-0.0015374308
0.00033828906
-0.0015832473
0.00032290839
-0.0016313435
0.00030486473
-0.0016821432
0.00028264749
-0.0017355952
0.00025337384
-0.0017913259
0.00021457386
-0.0018484306
0.00016293798
-0.0019048091
9.4176933e-05
-0.0019576604
4.5017085e-06
-0.0020016959
-0.00011306385
-0.0020306638
-0.00026223437
-0.0020367573
-0.00044495374
-0.0020117753
-0.00066170796
-0.0019496032
-0.00090692752
-0.0018470774
-0.0011717217
-0.0017049864
-0.0014464537
-0.0015287167
-0.0017209501
-0.0013269736
-0.0019899684
-0.0011081703
-0.0022567696
-0.00087957105
-0.0025318399
-0.00065370923
-0.0028255109
-0.00045081904
-0.0031498511
-0.00021158112
-0.0035851294
0.00046505676
-0.004474877
0.0022029806
-0.0064511173
0.0043726375
-0.0075308617
0.0063506626
-0.0074349312
0.0079221285
-0.006575242
0.0088534616
-0.0048033612
0.0088683796
-0.0023347622
0.0083025138
-0.00042934346
0.0076772565
0.00057617302
0.0070731825
0.0013000466
0.0064813084
0.0019141384
0.0058646335
0.0024197698
0.0052486382
0.0027319078
0.0046721637
0.002858356
0.0041536222
0.0028630675
0.0036961929
0.0027940439
0.0032963
0.0026799841
0.0029477663
0.002540405
0.0026437123
0.0023888928
0.0023776198
0.002234136
0.0021436338
0.0020816702
0.0019366582
0.0019349449
0.0017523913
0.0017959116
0.0015872518
0.0016655168
0.0014382105
0.0015440687
0.0013027704
0.0014314887
0.0011792355
0.0013271829
0.0010658904
0.0012306694
0.00096141699
0.0011414955
0.00086471517
0.0010589428
0.00077508735
0.00098236074
0.00069187794
0.00091123676
0.00061456454
0.00084498499
0.0005427109
0.00078318349
0.00047594083
0.00072546662
0.00041403772
0.00067146652
0.00035675189
0.00062082275
0.00030368918
0.00057351534
0.00025485149
0.00052938496
0.00020996639
0.00048820269
0.00016882395
0.00044988499
0.00013111911
0.00041449184
9.6685304e-05
0.00038188533
6.5279488e-05
0.00035219129
3.6634512e-05
0.00032538409
1.0620956e-05
0.00030149921
-1.3766741e-05
0.00028108352
-3.6250484e-05
0.00026336857
0.00024342727
-6.0203666e-05
0.00052641715
-0.00011208468
0.00053208507
-0.00016490068
0.00053605449
-0.00021885423
0.00054142596
-0.00027383393
0.00054660932
-0.00032989648
0.0005518293
-0.00038697339
0.00055673981
-0.0004449777
0.00056108072
-0.00050377945
0.00056472348
-0.00056325834
0.00056723843
-0.00062315999
0.00056852562
-0.00068332558
0.00056845706
-0.00074346479
0.00056677406
-0.00080330916
0.00056344773
-0.00086261688
0.00055833201
-0.00092109123
0.00055143948
-0.00097842151
0.00054288273
-0.0010343541
0.0005325679
-0.0010885919
0.00052076554
-0.001140967
0.00050766185
-0.0011914844
0.00049370968
-0.0012400748
0.00047904236
-0.0012866995
0.00046410092
-0.001331812
0.00044939074
-0.0013756906
0.00043502148
-0.001418937
0.00042139426
-0.0014621881
0.00040848605
-0.0015064193
0.00039626624
-0.0015523917
0.00038426023
-0.0016011487
0.00037166274
-0.0016539811
0.00035769578
-0.0017112357
0.00033990228
-0.0017744712
0.00031660857
-0.0018434764
0.00028357703
-0.0019175676
0.00023702852
-0.0019958289
0.00017243987
-0.0020744101
8.3083111e-05
-0.0021485872
-3.8890219e-05
-0.0022103436
-0.0002004798
-0.0022477748
-0.00040751939
-0.00224995
-0.00065952881
-0.0022074534
-0.00094942394
-0.0021154036
-0.0012637755
-0.0019752851
-0.0015865756
-0.0017962576
-0.0018999786
-0.0015936968
-0.0021925311
-0.0013847695
-0.0024657008
-0.0011968621
-0.0027197478
-0.0010922939
-0.0029300749
-0.0010598754
-0.0031822664
-0.00055746419
-0.0040875371
0.0012393618
-0.0062717036
0.0041794911
-0.0093912478
0.007071675
-0.010423046
0.0095351176
-0.0098983756
0.011237665
-0.0082777908
0.012049252
-0.0056149477
0.011733839
-0.0020193487
0.01055967
0.00074482348
0.009344417
0.0017914259
0.0081461954
0.0024982714
0.0071119902
0.0029483519
0.0061894253
0.0033423367
0.0053908566
0.0035304764
0.004700242
0.0035489737
0.0041039525
0.0034593598
0.0035959682
0.0033020294
0.0031667569
0.0031091928
0.0028034783
0.002903685
0.0024941124
0.0026982602
0.0022287629
0.0024994858
0.0019993266
0.0023111085
0.001799135
0.0021351372
0.001622893
0.0019721531
0.0014661517
0.0018222595
0.0013255981
0.0016846254
0.0011984606
0.0015586292
0.0010826352
0.0014430092
0.00097645589
0.0013368485
0.00087852968
0.0012394206
0.00078787222
0.0011495996
0.0007037167
0.0010665165
0.00062543444
0.0009895201
0.00055257154
0.00091784916
0.00048479133
0.00085096347
0.0004218093
0.00078844733
0.00036340757
0.00072986602
0.00030939248
0.00067483664
0.00025948768
0.00062341923
0.00021363178
0.00057523989
0.00017165877
0.00053017349
0.00013335442
0.00048818682
9.8548891e-05
0.00044929474
6.6991394e-05
0.00041344418
3.8491476e-05
0.00038069364
1.2727158e-05
0.00035114852
-1.0649203e-05
0.00032487481
-3.1707681e-05
0.00030213953
-5.1042245e-05
0.00028270292
0.00026148908
-5.6460267e-05
0.00057572774
-0.00010751697
0.00058314134
-0.00015982088
0.00058835956
-0.00021348225
0.00059508059
-0.00026861621
0.00060174253
-0.00032504113
0.00060825598
-0.00038270695
0.00061440242
-0.00044151343
0.00061988569
-0.00050131906
0.00062453038
-0.00056197714
0.00062789516
-0.00062326795
0.00062981484
-0.0006849079
0.00063009732
-0.000746673
0.00062853679
-0.00080823849
0.00062500839
-0.00086925135
0.00061934336
-0.00092939712
0.00061158679
-0.00098830986
0.00060179503
-0.0010456225
0.00058987787
-0.0011010815
0.00057622247
-0.0011544532
0.00056103192
-0.0012054957
0.00054475056
-0.0012542961
0.00052784223
-0.0013009372
0.00051074276
-0.0013454539
0.00049390723
-0.0013885092
0.0004780753
-0.0014310189
0.00046390293
-0.0014736756
0.00045114187
-0.0015176905
0.00044027905
-0.001564399
0.00043096619
-0.0016150923
0.00042235486
-0.0016709267
0.00041352942
-0.0017344944
0.00040346742
-0.00180737
0.00038948093
-0.0018900533
0.00036625975
-0.0019831356
0.00033011291
-0.0020863437
0.0002756501
-0.002197005
0.00019374397
-0.0023090876
7.318969e-05
-0.0024125749
-9.6993188e-05
-0.0024921675
-0.00032792516
-0.0025294217
-0.00062227438
-0.002510355
-0.00096849255
-0.0024266206
-0.0013475111
-0.0022794409
-0.0017337546
-0.0020831002
-0.0020963184
-0.0018620144
-0.0024136173
-0.0016492957
-0.0026784214
-0.0015105568
-0.0028584873
-0.0015288914
-0.002911738
-0.0014042747
-0.0033068821
0.00041734133
-0.0059091526
0.0038435792
-0.0096979408
0.0072310223
-0.012778693
0.010370564
-0.013562586
0.012683102
-0.012210915
0.014223229
-0.0098179143
0.015131702
-0.0065234233
0.015249548
-0.0021372003
0.014463253
0.0015311258
0.012433862
0.0038208208
0.010343639
0.0045884963
0.0083180708
0.0049739287
0.0066621168
0.0049982833
0.005478891
0.0047137025
0.0046328281
0.004395035
0.0039680318
0.0041241577
0.0034215469
0.0038485167
0.0029737341
0.0035570064
0.0026060342
0.0032713848
0.0023006405
0.0030036536
0.0020439387
0.0027561897
0.0018255942
0.0025294526
0.0016375884
0.0023231398
0.0014735001
0.0021362399
0.0013287018
0.0019670573
0.0011993362
0.0018139903
0.0010825575
0.001675407
0.00097633943
0.0015492248
0.0008784889
0.0014346959
0.00078826868
0.0013296386
0.00070448131
0.0012333864
0.00062636382
0.0011446367
0.00055351636
0.001062371
0.00048550788
0.0009858583
0.00042207592
0.00091439406
0.00036312941
0.00084739032
0.00030841181
0.00078458138
0.00025782677
0.00072541982
0.0002112637
0.00066998093
0.00016857681
0.00061792624
0.00012968195
0.00056906794
9.4445974e-05
0.00052342185
6.2717612e-05
0.00048101931
3.4319618e-05
0.00044184287
8.9478913e-06
0.00040606716
-1.3613971e-05
0.00037371119
-3.3611201e-05
0.00034487252
-5.1379125e-05
0.00031990755
-6.7141742e-05
0.00029846633
0.00027599755
-5.1525912e-05
0.00062319371
-0.00010156906
0.00063318339
-0.00015339979
0.00064018356
-0.000206945
0.00064862757
-0.00026217117
0.00065697053
-0.0003189672
0.0006650489
-0.00037728438
0.00067271876
-0.00043702862
0.00067963156
-0.00049797861
0.00068547955
-0.00056006116
0.00068997696
-0.00062294839
0.00069270316
-0.00068639491
0.00069354204
-0.00075010175
0.00069223899
-0.000813663
0.00068856805
-0.00087676419
0.00068244624
-0.00093891555
0.00067373822
-0.00099967079
0.00066254831
-0.0010587123
0.0006489185
-0.0011155812
0.00063309149
-0.0011700113
0.00061546134
-0.001221675
0.00059641312
-0.0012704791
0.0005766464
-0.0013165521
0.00055681645
-0.0013602246
0.00053758004
-0.0014021565
0.00052000711
-0.001442689
0.00050443422
-0.001483574
0.00049202358
-0.0015260415
0.000482743
-0.0015720217
0.00047694509
-0.0016230827
0.00047341617
-0.0016807057
0.00047115065
-0.0017485657
0.00047132322
-0.0018299919
0.00047090604
-0.0019264728
0.00046274402
-0.0020393249
0.00044296645
-0.0021708322
0.00040715498
-0.0023198768
0.00034278703
-0.0024804043
0.0002337185
-0.0026386727
6.1277045e-05
-0.0027754233
-0.00019117543
-0.002859777
-0.00053792223
-0.0028687613
-0.00095950846
-0.0027912009
-0.0014250706
-0.0026265264
-0.0018984278
-0.0023920827
-0.002330761
-0.0021288165
-0.002676881
-0.0018949319
-0.0029123056
-0.0017701515
-0.0029832691
-0.0016584632
-0.0030234275
-0.00079739124
-0.0041679522
0.0026135897
-0.0093201351
0.0067585461
-0.013842897
0.00981585
-0.015835999
0.012333679
-0.016080406
0.014407832
-0.014285068
0.015920993
-0.011331076
0.01627692
-0.0068793476
0.016018395
-0.0018786791
0.015245936
0.0023035902
0.013471304
0.0055954483
0.011323792
0.0067360092
0.0089671268
0.0073305953
0.0068794435
0.0070859675
0.0053730257