/*--------------------------------*- C++ -*----------------------------------*\
  =========                 |
  \\      /  F ield         | OpenFOAM: The Open Source CFD Toolbox
   \\    /   O peration     | Website:  https://openfoam.org
    \\  /    A nd           | Version:  9
     \\/     M anipulation  |
\*---------------------------------------------------------------------------*/
FoamFile
{
    format      ascii;
    class       volVectorField;
    location    "0.66";
    object      U;
}
// * * * * * * * * * * * * * * * * * * * * * * * * * * * * * * * * * * * * * //

dimensions      [0 1 -1 0 0 0 0];

internalField   nonuniform List<vector> 
10000
(
(-0.0025633089 0.0056931356 0)
(-0.010720777 0.005734562 0)
(-0.015402652 0.0057868678 0)
(-0.020911367 0.0058644905 0)
(-0.026321963 0.0059436586 0)
(-0.031843358 0.0060310245 0)
(-0.037377233 0.0061211814 0)
(-0.042900129 0.0062121298 0)
(-0.048422658 0.0062998113 0)
(-0.053940487 0.0063849988 0)
(-0.059444024 0.0064607541 0)
(-0.064928973 0.0065262169 0)
(-0.070376213 0.0065847692 0)
(-0.075769522 0.0066265959 0)
(-0.081103283 0.0066509262 0)
(-0.08637074 0.0066576772 0)
(-0.091552247 0.0066483657 0)
(-0.096636233 0.0066166368 0)
(-0.10161862 0.0065635572 0)
(-0.10647541 0.0064930179 0)
(-0.11119217 0.0063995025 0)
(-0.11578902 0.0062746266 0)
(-0.12024236 0.0061411186 0)
(-0.12452874 0.0059862299 0)
(-0.1286411 0.0058196405 0)
(-0.13255395 0.005626262 0)
(-0.1362486 0.0054142992 0)
(-0.13968052 0.0051724675 0)
(-0.14279693 0.0048886658 0)
(-0.14554616 0.0045409336 0)
(-0.14787001 0.0040971368 0)
(-0.14970527 0.0035260629 0)
(-0.15098575 0.0027958289 0)
(-0.15161608 0.0018817867 0)
(-0.15159349 0.00073450484 0)
(-0.15085424 -0.00051894641 0)
(-0.1489591 -0.0017999488 0)
(-0.1455046 -0.00320284 0)
(-0.14030483 -0.0047496706 0)
(-0.13312624 -0.0064798582 0)
(-0.12372779 -0.0084015835 0)
(-0.11188115 -0.010520678 0)
(-0.09737436 -0.012844654 0)
(-0.080045545 -0.01539306 0)
(-0.059702157 -0.018164043 0)
(-0.036200369 -0.021091704 0)
(-0.0096620642 -0.024260421 0)
(0.020609509 -0.027677357 0)
(0.054557935 -0.031313889 0)
(0.091604376 -0.03495011 0)
(0.13176966 -0.038360113 0)
(0.17467112 -0.041207611 0)
(0.21951475 -0.043049322 0)
(0.2650546 -0.043401051 0)
(0.30955985 -0.041861591 0)
(0.35096402 -0.038250508 0)
(0.38717085 -0.032695951 0)
(0.41641361 -0.025635667 0)
(0.43754137 -0.017697182 0)
(0.45010477 -0.0095005108 0)
(0.45428038 -0.0014203012 0)
(0.45106711 0.0061544877 0)
(0.44198988 0.013113034 0)
(0.4284637 0.019322383 0)
(0.41162586 0.024662715 0)
(0.39247386 0.029066601 0)
(0.37190355 0.032489293 0)
(0.35064043 0.034912892 0)
(0.3292142 0.036366134 0)
(0.30799996 0.036926772 0)
(0.28726011 0.036713457 0)
(0.26717045 0.035873309 0)
(0.24784632 0.034563788 0)
(0.22936511 0.032932634 0)
(0.21178019 0.03110498 0)
(0.19512124 0.029173012 0)
(0.17938567 0.027202648 0)
(0.16455293 0.025249878 0)
(0.15058773 0.023332859 0)
(0.13753205 0.021522138 0)
(0.12532837 0.019776222 0)
(0.11389274 0.018139913 0)
(0.10322987 0.01659609 0)
(0.093261651 0.015151482 0)
(0.083963882 0.013802843 0)
(0.075301979 0.012553005 0)
(0.067239822 0.011396676 0)
(0.059743655 0.010317988 0)
(0.052765287 0.0093091996 0)
(0.046248442 0.0083710038 0)
(0.040169353 0.0075230695 0)
(0.034520679 0.0067654889 0)
(0.029273349 0.0060705262 0)
(0.024392116 0.0054620619 0)
(0.019829598 0.0049220549 0)
(0.015583848 0.0044343283 0)
(0.0117043 0.0040079577 0)
(0.0079735506 0.0036439222 0)
(0.0049665053 0.0033608717 0)
(-6.9926908e-05 0.0030297002 0)
(-0.0025037555 0.013733292 0)
(-0.010628086 0.013793812 0)
(-0.015287044 0.013872889 0)
(-0.020775005 0.013977184 0)
(-0.026179279 0.014089384 0)
(-0.031693043 0.014200683 0)
(-0.037225041 0.014311047 0)
(-0.042753031 0.014415681 0)
(-0.048282581 0.014506032 0)
(-0.053812862 0.014578864 0)
(-0.059335877 0.014639017 0)
(-0.064836213 0.014665331 0)
(-0.07030359 0.014673486 0)
(-0.075725255 0.014644589 0)
(-0.081086818 0.014587524 0)
(-0.086378381 0.014492272 0)
(-0.091587406 0.014365818 0)
(-0.096703866 0.014209197 0)
(-0.10171355 0.014021226 0)
(-0.10659788 0.013799926 0)
(-0.11135647 0.013543611 0)
(-0.11598334 0.013247491 0)
(-0.12046121 0.012930802 0)
(-0.12477794 0.012575729 0)
(-0.12893076 0.012189186 0)
(-0.1328957 0.011752742 0)
(-0.13665203 0.011255716 0)
(-0.14017393 0.010678591 0)
(-0.14341459 0.0099840264 0)
(-0.14633535 0.0091304617 0)
(-0.14888377 0.0080584091 0)
(-0.15099978 0.0067113535 0)
(-0.15261637 0.0050321415 0)
(-0.15366201 0.0029702679 0)
(-0.15398875 0.00046719423 0)
(-0.15340621 -0.0023918319 0)
(-0.15169333 -0.005562166 0)
(-0.14854328 -0.0091547026 0)
(-0.14370588 -0.013231573 0)
(-0.13692836 -0.017818799 0)
(-0.12793343 -0.022926281 0)
(-0.11647979 -0.028518455 0)
(-0.10235653 -0.034565346 0)
(-0.0853851 -0.0409986 0)
(-0.065329426 -0.047814183 0)
(-0.042091827 -0.054984813 0)
(-0.015890748 -0.062449564 0)
(0.014069807 -0.070106947 0)
(0.047965528 -0.078088112 0)
(0.085301893 -0.085843321 0)
(0.12627645 -0.093000168 0)
(0.17068257 -0.098858683 0)
(0.21786385 -0.10242489 0)
(0.26655151 -0.1025376 0)
(0.3147428 -0.098224538 0)
(0.35988214 -0.089061774 0)
(0.39930098 -0.075396603 0)
(0.43077543 -0.058372657 0)
(0.45299894 -0.039606078 0)
(0.46578242 -0.020616966 0)
(0.46955491 -0.0024254585 0)
(0.4653618 0.014328074 0)
(0.45485528 0.029107677 0)
(0.43946696 0.041489236 0)
(0.42051402 0.051262142 0)
(0.39921117 0.05849974 0)
(0.37659364 0.063458408 0)
(0.35347485 0.066452522 0)
(0.3304424 0.067798452 0)
(0.30789629 0.067795678 0)
(0.28609543 0.066721403 0)
(0.26519678 0.06482831 0)
(0.2452881 0.062340802 0)
(0.2264121 0.059450612 0)
(0.20858305 0.056315946 0)
(0.19179647 0.05305518 0)
(0.17603227 0.049758733 0)
(0.16123399 0.046495481 0)
(0.14737528 0.043306388 0)
(0.13445696 0.040268293 0)
(0.12239091 0.037333625 0)
(0.11112415 0.034570157 0)
(0.10061454 0.031952594 0)
(0.090801952 0.029487761 0)
(0.081659845 0.027169035 0)
(0.07315405 0.025007798 0)
(0.065229302 0.022982156 0)
(0.057848472 0.021091533 0)
(0.050978862 0.019327735 0)
(0.04459265 0.017696844 0)
(0.038673712 0.016203885 0)
(0.033162681 0.014839394 0)
(0.028050538 0.013592542 0)
(0.023311286 0.012460716 0)
(0.018858677 0.011443362 0)
(0.014717677 0.010531077 0)
(0.01094856 0.0097193471 0)
(0.007348152 0.0089887516 0)
(0.0043846201 0.0084085801 0)
(-0.0004128532 0.0077107588 0)
(-0.0024366745 0.018633981 0)
(-0.010551084 0.018720998 0)
(-0.015201172 0.01881195 0)
(-0.020675923 0.018939659 0)
(-0.026073814 0.019060309 0)
(-0.031589069 0.019187365 0)
(-0.037124042 0.019302786 0)
(-0.04266286 0.01940954 0)
(-0.048212686 0.019503797 0)
(-0.053756597 0.019566993 0)
(-0.059304773 0.019601579 0)
(-0.064838656 0.019604374 0)
(-0.070340286 0.019567317 0)
(-0.075798439 0.019482374 0)
(-0.081199692 0.019351835 0)
(-0.086538378 0.019168797 0)
(-0.091784836 0.018941816 0)
(-0.096934419 0.018661067 0)
(-0.10198574 0.018335343 0)
(-0.10691553 0.01796521 0)
(-0.11171259 0.017546159 0)
(-0.11637353 0.017087067 0)
(-0.12089037 0.016592103 0)
(-0.12525047 0.016044644 0)
(-0.12944732 0.0154499 0)
(-0.13347162 0.014793447 0)
(-0.13730477 0.014059362 0)
(-0.14092858 0.013228073 0)
(-0.14431007 0.012255802 0)
(-0.14742078 0.011097965 0)
(-0.15021849 0.0096913454 0)
(-0.15263703 0.0079692026 0)
(-0.15459971 0.0058665045 0)
(-0.15600586 0.0033250832 0)
(-0.15671339 0.00030583614 0)
(-0.15655776 -0.0032605669 0)
(-0.15530663 -0.007427438 0)
(-0.15267591 -0.012246338 0)
(-0.14840421 -0.017803763 0)
(-0.14220974 -0.0240992 0)
(-0.133793 -0.031129342 0)
(-0.12288975 -0.038893938 0)
(-0.10926345 -0.047316864 0)
(-0.092767579 -0.056325469 0)
(-0.073236875 -0.065894597 0)
(-0.050482565 -0.076044523 0)
(-0.024563122 -0.086677409 0)
(0.0050631919 -0.097531057 0)
(0.038833549 -0.10910443 0)
(0.076554463 -0.12061322 0)
(0.11856594 -0.13156172 0)
(0.16504308 -0.14094903 0)
(0.21568242 -0.14722338 0)
(0.26922908 -0.14828772 0)
(0.32316397 -0.14235658 0)
(0.37405598 -0.12864506 0)
(0.41821741 -0.10770771 0)
(0.45259484 -0.081568917 0)
(0.4756564 -0.053159662 0)
(0.4875583 -0.025115556 0)
(0.48933787 0.00079642082 0)
(0.48262997 0.023807371 0)
(0.46932953 0.04330191 0)
(0.45111082 0.059024349 0)
(0.42945247 0.071065595 0)
(0.40567128 0.079715667 0)
(0.38084262 0.085376744 0)
(0.35578367 0.088490316 0)
(0.33108816 0.089499705 0)
(0.30716638 0.088829433 0)
(0.28427727 0.086866112 0)
(0.26256087 0.083950649 0)
(0.24207678 0.080372876 0)
(0.22283629 0.076368447 0)
(0.20481264 0.072124789 0)
(0.18795604 0.067785031 0)
(0.17220894 0.063461806 0)
(0.15748999 0.059215559 0)
(0.14377652 0.055121964 0)
(0.13101846 0.051213158 0)
(0.11912237 0.047497039 0)
(0.10804651 0.043986769 0)
(0.09772059 0.04067637 0)
(0.088091366 0.037575396 0)
(0.07913369 0.034672569 0)
(0.070800642 0.031967846 0)
(0.063043616 0.029447403 0)
(0.055845686 0.027111582 0)
(0.049161169 0.024951559 0)
(0.042947251 0.022959989 0)
(0.037163779 0.02112043 0)
(0.031782974 0.019417173 0)
(0.026787188 0.017871102 0)
(0.022150771 0.016443628 0)
(0.017821812 0.015151873 0)
(0.013798976 0.013996655 0)
(0.010107168 0.01296504 0)
(0.0066174878 0.012033255 0)
(0.0036944078 0.011282164 0)
(-0.00083774187 0.010381578 0)
(-0.0023603026 0.023867326 0)
(-0.010463719 0.023995402 0)
(-0.015078806 0.024098412 0)
(-0.020543199 0.02426231 0)
(-0.025950686 0.024407925 0)
(-0.031467744 0.024563864 0)
(-0.037018824 0.024705763 0)
(-0.042567377 0.02483431 0)
(-0.048138826 0.024939011 0)
(-0.053725938 0.025009183 0)
(-0.059307651 0.02502893 0)
(-0.064876855 0.025012858 0)
(-0.070427584 0.024942944 0)
(-0.07593752 0.024814026 0)
(-0.081392012 0.024622076 0)
(-0.08677461 0.024373478 0)
(-0.092075683 0.024065981 0)
(-0.09728378 0.023690579 0)
(-0.10237564 0.023258803 0)
(-0.10734617 0.022776844 0)
(-0.11218618 0.02223993 0)
(-0.11688164 0.021656749 0)
(-0.12144219 0.021024738 0)
(-0.12585338 0.020343543 0)
(-0.13011124 0.019606444 0)
(-0.13421358 0.01879871 0)
(-0.13814526 0.017903994 0)
(-0.14190874 0.016892162 0)
(-0.14548016 0.015706012 0)
(-0.14883772 0.014297305 0)
(-0.15194931 0.012592177 0)
(-0.15475735 0.010502186 0)
(-0.15718872 0.0079398536 0)
(-0.15914869 0.0048037911 0)
(-0.16050454 0.00099375922 0)
(-0.1610795 -0.003590239 0)
(-0.1606268 -0.0090394013 0)
(-0.15886879 -0.015452356 0)
(-0.15549849 -0.022893178 0)
(-0.15017605 -0.031368812 0)
(-0.14262061 -0.04086362 0)
(-0.13252243 -0.051326466 0)
(-0.11961232 -0.062673303 0)
(-0.10376205 -0.074785735 0)
(-0.084823828 -0.08757337 0)
(-0.062654068 -0.10105545 0)
(-0.037184902 -0.11521384 0)
(-0.0081586758 -0.12991634 0)
(0.025107366 -0.14560805 0)
(0.063005604 -0.16186452 0)
(0.10609347 -0.1779342 0)
(0.1552487 -0.19256962 0)
(0.21101883 -0.20364848 0)
(0.27208344 -0.20730775 0)
(0.33504112 -0.20024721 0)
(0.39508918 -0.18108135 0)
(0.44685313 -0.15055779 0)
(0.48572102 -0.11224372 0)
(0.50969778 -0.071309755 0)
(0.51975869 -0.031931508 0)
(0.51834328 0.0036381115 0)
(0.50773991 0.034586673 0)
(0.48991917 0.060244402 0)
(0.46701615 0.080336447 0)
(0.44095248 0.095092631 0)
(0.41329576 0.10508987 0)
(0.38522434 0.1110709 0)
(0.35755049 0.1137903 0)
(0.33080877 0.11393943 0)
(0.30533088 0.11213026 0)
(0.28129619 0.10888481 0)
(0.25877536 0.1046348 0)
(0.23776353 0.099731128 0)
(0.21821139 0.094447033 0)
(0.20004355 0.088987081 0)
(0.18317682 0.083504214 0)
(0.16750803 0.078117389 0)
(0.15293573 0.072879612 0)
(0.13942168 0.06788 0)
(0.12688216 0.063119611 0)
(0.11521389 0.058623285 0)
(0.10435398 0.054379911 0)
(0.094254707 0.05039532 0)
(0.084849753 0.046657995 0)
(0.076104268 0.043174583 0)
(0.06798011 0.039915169 0)
(0.060422479 0.036880114 0)
(0.053400031 0.034048907 0)
(0.046868016 0.031409208 0)
(0.040795657 0.028942296 0)
(0.035160265 0.026648107 0)
(0.029940228 0.024530496 0)
(0.025102214 0.022583925 0)
(0.020613517 0.02080797 0)
(0.016431399 0.019198532 0)
(0.012553493 0.017744775 0)
(0.0089955273 0.016432268 0)
(0.0056695582 0.015283416 0)
(0.0027963698 0.014340861 0)
(-0.00138597 0.013159063 0)
(-0.002246983 0.029293473 0)
(-0.010342667 0.029472234 0)
(-0.014937808 0.02960476 0)
(-0.02037834 0.029790687 0)
(-0.025788597 0.029976267 0)
(-0.031306319 0.030163271 0)
(-0.036868727 0.03034099 0)
(-0.042445275 0.030494869 0)
(-0.048051473 0.030612042 0)
(-0.053679257 0.030688482 0)
(-0.059311984 0.030712227 0)
(-0.064933731 0.030674553 0)
(-0.070544332 0.030569434 0)
(-0.076120795 0.030394422 0)
(-0.081637401 0.030144617 0)
(-0.087086168 0.029819978 0)
(-0.092453874 0.029416134 0)
(-0.097721598 0.028942064 0)
(-0.10287225 0.028397252 0)
(-0.10790001 0.027787971 0)
(-0.11279157 0.027117868 0)
(-0.11754153 0.026391653 0)
(-0.12215173 0.025608498 0)
(-0.1266141 0.024779953 0)
(-0.13093692 0.023897128 0)
(-0.13512077 0.022945562 0)
(-0.13916171 0.021891739 0)
(-0.14308182 0.020713393 0)
(-0.14686216 0.019352174 0)
(-0.15048901 0.017746284 0)
(-0.15396066 0.015815877 0)
(-0.15722598 0.013432686 0)
(-0.16022259 0.010503675 0)
(-0.1628624 0.0068691293 0)
(-0.16500235 0.002401097 0)
(-0.16647289 -0.0030418878 0)
(-0.16704817 -0.0095981574 0)
(-0.1664205 -0.017412227 0)
(-0.16422658 -0.026552689 0)
(-0.16010224 -0.037093957 0)
(-0.15368883 -0.049009842 0)
(-0.14463932 -0.062142891 0)
(-0.13266929 -0.076375159 0)
(-0.11762496 -0.091532952 0)
(-0.099449922 -0.10749549 0)
(-0.078053659 -0.12425021 0)
(-0.05336401 -0.14187002 0)
(-0.025252271 -0.16048823 0)
(0.0069760576 -0.18035131 0)
(0.044300154 -0.20184903 0)
(0.088013222 -0.22444631 0)
(0.14005096 -0.24672413 0)
(0.20164976 -0.26603524 0)
(0.27206836 -0.27457897 0)
(0.34763156 -0.26740595 0)
(0.42163764 -0.24218388 0)
(0.48535138 -0.19897702 0)
(0.53103705 -0.14361373 0)
(0.55611707 -0.086042641 0)
(0.56315686 -0.032998547 0)
(0.55643077 0.013375514 0)
(0.53953407 0.052497241 0)
(0.51519642 0.08400997 0)
(0.48598392 0.10784813 0)
(0.45417562 0.12455331 0)
(0.42158027 0.13515376 0)
(0.3894554 0.14078926 0)
(0.35857337 0.14251891 0)
(0.32938261 0.14127807 0)
(0.30211259 0.13786506 0)
(0.27682561 0.13293525 0)
(0.25347744 0.12700772 0)
(0.23196645 0.12048703 0)
(0.21216284 0.1136795 0)
(0.19392595 0.10680487 0)
(0.17712675 0.10001931 0)
(0.16161036 0.093421578 0)
(0.14726576 0.087081202 0)
(0.13403379 0.081066585 0)
(0.12177522 0.075372352 0)
(0.1103911 0.06999979 0)
(0.099821693 0.064953738 0)
(0.089999744 0.060226123 0)
(0.080868963 0.05579485 0)
(0.072387047 0.051662885 0)
(0.064499294 0.047793081 0)
(0.057170365 0.044173175 0)
(0.05036725 0.040797385 0)
(0.044047896 0.037649416 0)
(0.038183611 0.034724907 0)
(0.032753414 0.032020363 0)
(0.027723485 0.029524448 0)
(0.023070756 0.027223816 0)
(0.018769801 0.025124994 0)
(0.014762336 0.023219019 0)
(0.011043325 0.021500715 0)
(0.007645141 0.019954786 0)
(0.0045191152 0.018590178 0)
(0.0016486498 0.017495034 0)
(-0.0021181833 0.015975292 0)
(-0.0021056817 0.034560218 0)
(-0.010179483 0.034796125 0)
(-0.014753022 0.034966415 0)
(-0.020172641 0.035200307 0)
(-0.025583229 0.035438348 0)
(-0.031104975 0.035672374 0)
(-0.03668892 0.035893588 0)
(-0.042298113 0.036083135 0)
(-0.047944461 0.036233017 0)
(-0.053622163 0.036328595 0)
(-0.059316038 0.036358339 0)
(-0.065012094 0.036313194 0)
(-0.070697 0.036181563 0)
(-0.076347746 0.035967543 0)
(-0.081947654 0.035659181 0)
(-0.087480614 0.035253589 0)
(-0.092926977 0.034758816 0)
(-0.098271366 0.034176886 0)
(-0.10349281 0.033509293 0)
(-0.10858324 0.032765327 0)
(-0.11353468 0.031952874 0)
(-0.11833817 0.031077832 0)
(-0.12299669 0.030152104 0)
(-0.12750508 0.029181042 0)
(-0.13188433 0.028157454 0)
(-0.13615654 0.027073391 0)
(-0.14031338 0.025902131 0)
(-0.14438291 0.024616274 0)
(-0.14837777 0.023155262 0)
(-0.15229464 0.021435954 0)
(-0.15617056 0.019378582 0)
(-0.15996057 0.016822901 0)
(-0.16362659 0.013647548 0)
(-0.16710315 0.0096675979 0)
(-0.17024004 0.0046907745 0)
(-0.17287392 -0.0014877485 0)
(-0.1747626 -0.0090413698 0)
(-0.17556178 -0.018189487 0)
(-0.17489744 -0.029083887 0)
(-0.17232869 -0.041765499 0)
(-0.16735002 -0.056170505 0)
(-0.15956239 -0.072147451 0)
(-0.14868646 -0.089439668 0)
(-0.13458126 -0.10776305 0)
(-0.11724854 -0.12693372 0)
(-0.096741525 -0.14689404 0)
(-0.073152 -0.1678323 0)
(-0.046407071 -0.19015883 0)
(-0.016017814 -0.21439495 0)
(0.019313487 -0.24159498 0)
(0.062232548 -0.27283403 0)
(0.11388743 -0.30491619 0)
(0.17676303 -0.33666298 0)
(0.2589313 -0.35401765 0)
(0.35463987 -0.34972616 0)
(0.45267981 -0.31910354 0)
(0.53645162 -0.25997333 0)
(0.59111983 -0.18071585 0)
(0.6152645 -0.10021765 0)
(0.61720072 -0.030130624 0)
(0.60375843 0.028555421 0)
(0.57880579 0.076654024 0)
(0.54564481 0.11431423 0)
(0.50782667 0.14166227 0)
(0.46845798 0.15962715 0)
(0.42967314 0.16990069 0)
(0.39267695 0.17421154 0)
(0.35808835 0.17403598 0)
(0.32618697 0.17060978 0)
(0.29702178 0.16493841 0)
(0.27048103 0.15780287 0)
(0.24637011 0.14979403 0)
(0.22446637 0.14135123 0)
(0.20454122 0.13279213 0)
(0.18637454 0.12433364 0)
(0.16976681 0.11612636 0)
(0.15452092 0.1082392 0)
(0.14052507 0.10075812 0)
(0.12766267 0.093700191 0)
(0.11576191 0.087058938 0)
(0.10473874 0.080826103 0)
(0.094526476 0.074998864 0)
(0.085043679 0.06954486 0)
(0.076239036 0.064456178 0)
(0.06805918 0.059701437 0)
(0.060450105 0.055257115 0)
(0.053390902 0.051098033 0)
(0.046846229 0.047220998 0)
(0.040770484 0.043605076 0)
(0.035148181 0.040243896 0)
(0.029945167 0.037119802 0)
(0.025131733 0.034230679 0)
(0.020693047 0.03156916 0)
(0.016599768 0.029127692 0)
(0.012801211 0.026909675 0)
(0.0092909076 0.024914178 0)
(0.006075876 0.023135022 0)
(0.0031929196 0.021557316 0)
(0.0002758772 0.020288542 0)
(-0.0030382028 0.018543183 0)
(-0.0019274055 0.039825805 0)
(-0.0099772314 0.040128404 0)
(-0.014526139 0.040341444 0)
(-0.019909129 0.040631397 0)
(-0.025324187 0.040934569 0)
(-0.030856377 0.041226166 0)
(-0.036463573 0.041499676 0)
(-0.042110927 0.041739782 0)
(-0.04780876 0.04192942 0)
(-0.053553756 0.042054444 0)
(-0.059323522 0.04209551 0)
(-0.065102896 0.042045629 0)
(-0.070877714 0.041896123 0)
(-0.076625681 0.041642583 0)
(-0.082328361 0.041274854 0)
(-0.087957192 0.040793899 0)
(-0.093494852 0.040199531 0)
(-0.098929076 0.039502298 0)
(-0.10423403 0.038704296 0)
(-0.10939838 0.037819224 0)
(-0.11441334 0.036861103 0)
(-0.11926889 0.035840694 0)
(-0.12396828 0.034767101 0)
(-0.12852264 0.033658065 0)
(-0.13295354 0.032506759 0)
(-0.13728276 0.03131609 0)
(-0.14152472 0.030073921 0)
(-0.14573457 0.028740418 0)
(-0.14994731 0.027249296 0)
(-0.1541626 0.025518919 0)
(-0.15845898 0.023440078 0)
(-0.16282612 0.020874624 0)
(-0.1672314 0.017621739 0)
(-0.17165095 0.013494171 0)
(-0.17596075 0.0082237497 0)
(-0.1799809 0.0015342685 0)
(-0.1835044 -0.0068415266 0)
(-0.18619633 -0.017184469 0)
(-0.1875176 -0.029748329 0)
(-0.18688423 -0.044614769 0)
(-0.18374282 -0.061681487 0)
(-0.17755641 -0.080730265 0)
(-0.16792359 -0.10133685 0)
(-0.15476247 -0.12302152 0)
(-0.13821322 -0.14542808 0)
(-0.11857787 -0.16843795 0)
(-0.09627353 -0.19230783 0)
(-0.071502618 -0.21773275 0)
(-0.043978239 -0.2459873 0)
(-0.012899744 -0.27920392 0)
(0.024513947 -0.318436 0)
(0.062282703 -0.35781112 0)
(0.1276116 -0.41136515 0)
(0.24656204 -0.45253791 0)
(0.38718791 -0.45783821 0)
(0.52552218 -0.42050121 0)
(0.63641924 -0.33275467 0)
(0.69503484 -0.21646744 0)
(0.70351974 -0.10722322 0)
(0.68656281 -0.019630237 0)
(0.6599721 0.052502519 0)
(0.6246942 0.11081911 0)
(0.58068241 0.15498902 0)
(0.53175229 0.1848614 0)
(0.48267384 0.20238268 0)
(0.43633692 0.21063898 0)
(0.39372539 0.21214935 0)
(0.35507791 0.20881587 0)
(0.32037363 0.2021811 0)
(0.28938688 0.19345068 0)
(0.26175727 0.18350327 0)
(0.23709035 0.17296503 0)
(0.21500846 0.16227761 0)
(0.19516551 0.15174139 0)
(0.1772601 0.14154749 0)
(0.16101767 0.13181549 0)
(0.14620795 0.12259299 0)
(0.13269938 0.11394768 0)
(0.12030981 0.10584121 0)
(0.1088697 0.098267932 0)
(0.098296243 0.0911995 0)
(0.088506674 0.084617237 0)
(0.079424772 0.078475323 0)
(0.070997561 0.072751652 0)
(0.063161084 0.067405844 0)
(0.055874028 0.062413927 0)
(0.049119373 0.057750499 0)
(0.042862376 0.053392249 0)
(0.037058867 0.049327776 0)
(0.031690813 0.045535621 0)
(0.026736979 0.042006701 0)
(0.022173145 0.038736549 0)
(0.017971392 0.035717669 0)
(0.014113521 0.032949802 0)
(0.010555464 0.03043444 0)
(0.0072830658 0.028164993 0)
(0.0042890565 0.02615092 0)
(0.0016596174 0.024376797 0)
(-0.0012362554 0.022898725 0)
(-0.0040232592 0.021062053 0)
(-0.0017075387 0.045026157 0)
(-0.0097146978 0.045415588 0)
(-0.01424111 0.045687698 0)
(-0.019580152 0.046055864 0)
(-0.024994342 0.046433696 0)
(-0.030543162 0.04680187 0)
(-0.036178062 0.047146484 0)
(-0.041871863 0.047451968 0)
(-0.047631286 0.047693428 0)
(-0.053454298 0.047857286 0)
(-0.059318202 0.047926104 0)
(-0.065199841 0.047883303 0)
(-0.071083229 0.047720187 0)
(-0.076946618 0.047428287 0)
(-0.082766781 0.04700263 0)
(-0.088518626 0.046443447 0)
(-0.094173364 0.045746351 0)
(-0.099713536 0.044923988 0)
(-0.10511414 0.043984765 0)
(-0.11035542 0.04294592 0)
(-0.11543256 0.041825937 0)
(-0.12034222 0.040640285 0)
(-0.12508083 0.039414557 0)
(-0.12966036 0.038165785 0)
(-0.13411575 0.036903195 0)
(-0.13847529 0.035634039 0)
(-0.14277311 0.034346277 0)
(-0.14709047 0.033008136 0)
(-0.15147816 0.03156848 0)
(-0.15597284 0.02993367 0)
(-0.16066898 0.027987228 0)
(-0.165618 0.025593697 0)
(-0.17082705 0.022481834 0)
(-0.17629662 0.018434202 0)
(-0.181965 0.013126876 0)
(-0.18767444 0.0061860308 0)
(-0.19319236 -0.0027976859 0)
(-0.19815628 -0.014155647 0)
(-0.20198372 -0.028269345 0)
(-0.20388633 -0.045364029 0)
(-0.20307304 -0.065346969 0)
(-0.19880995 -0.087807836 0)
(-0.19056441 -0.1121 0)
(-0.17826427 -0.13748862 0)
(-0.16222496 -0.16323016 0)
(-0.14316088 -0.18898667 0)
(-0.12197973 -0.21506614 0)
(-0.099438284 -0.24251935 0)
(-0.076449273 -0.27327122 0)
(-0.054276135 -0.30906721 0)
(-0.03327608 -0.34830332 0)
(-0.011821042 -0.39937371 0)
(0.11486988 -0.5243455 0)
(0.32633981 -0.60998588 0)
(0.54290389 -0.61795492 0)
(0.72662233 -0.56187916 0)
(0.85535241 -0.4177195 0)
(0.90095015 -0.22626017 0)
(0.86746022 -0.081336025 0)
(0.80176064 0.012899346 0)
(0.73807384 0.091246012 0)
(0.67887279 0.15707634 0)
(0.61872318 0.20780846 0)
(0.55591458 0.23952345 0)
(0.4950344 0.25460184 0)
(0.43988804 0.25850467 0)
(0.39110397 0.25518373 0)
(0.34829893 0.24709198 0)
(0.31097172 0.23603196 0)
(0.2784781 0.22334447 0)
(0.25011384 0.20993744 0)
(0.22524107 0.19641152 0)
(0.203309 0.18316319 0)
(0.18384406 0.1704416 0)
(0.16645444 0.15838414 0)
(0.15079673 0.14705362 0)
(0.13662794 0.13647301 0)
(0.12375947 0.12664106 0)
(0.11196465 0.11749639 0)
(0.10109524 0.10901613 0)
(0.091061721 0.10114129 0)
(0.081775548 0.093831799 0)
(0.073154594 0.087036399 0)
(0.065148737 0.08070302 0)
(0.057701124 0.074792882 0)
(0.050777777 0.069274254 0)
(0.044359068 0.064120901 0)
(0.038412795 0.05929413 0)
(0.03290311 0.054785844 0)
(0.027818993 0.050572634 0)
(0.02314123 0.046651743 0)
(0.018840661 0.043006606 0)
(0.014906972 0.039637469 0)
(0.011315614 0.03654338 0)
(0.0080187873 0.033724002 0)
(0.0050183575 0.031180729 0)
(0.0022853976 0.028924787 0)
(-8.2492994e-05 0.026963932 0)
(-0.0028803348 0.025287408 0)
(-0.0050785642 0.023344019 0)
(-0.0014285885 0.050138867 0)
(-0.0093776318 0.050639764 0)
(-0.0138757 0.050987641 0)
(-0.019162915 0.051465665 0)
(-0.024582512 0.051928735 0)
(-0.030144473 0.052395885 0)
(-0.035813876 0.05283341 0)
(-0.041565283 0.053219625 0)
(-0.047402731 0.05353181 0)
(-0.053316198 0.053747278 0)
(-0.059287702 0.053855614 0)
(-0.065293015 0.053830765 0)
(-0.071310655 0.053662448 0)
(-0.077314795 0.053339897 0)
(-0.083277089 0.052855325 0)
(-0.089168787 0.052211912 0)
(-0.094960571 0.051409936 0)
(-0.1006277 0.050452736 0)
(-0.10613924 0.049361931 0)
(-0.11147321 0.048150529 0)
(-0.11662392 0.046845467 0)
(-0.12157506 0.045474151 0)
(-0.12632846 0.044076879 0)
(-0.13091077 0.042680285 0)
(-0.13535405 0.041298307 0)
(-0.13970234 0.039964492 0)
(-0.14400961 0.038668374 0)
(-0.14836778 0.037388352 0)
(-0.15286969 0.036087605 0)
(-0.15757906 0.034673843 0)
(-0.16261429 0.033036363 0)
(-0.1681291 0.030995777 0)
(-0.17416638 0.028311533 0)
(-0.18075486 0.024645535 0)
(-0.18792157 0.019648924 0)
(-0.19557938 0.012865927 0)
(-0.20349329 0.0037192243 0)
(-0.21128776 -0.0083835259 0)
(-0.21830338 -0.023943327 0)
(-0.22349849 -0.043342448 0)
(-0.22570064 -0.06660114 0)
(-0.22381002 -0.093068581 0)
(-0.21709742 -0.1217455 0)
(-0.20536431 -0.15140212 0)
(-0.189145 -0.18070667 0)
(-0.16975391 -0.20889367 0)
(-0.14876386 -0.23627751 0)
(-0.12807907 -0.2639744 0)
(-0.11183825 -0.29197093 0)
(-0.10652401 -0.31949434 0)
(-0.10253878 -0.36728213 0)
(-0.011021073 -0.48443642 0)
(0.26834447 -0.75636548 0)
(0.57026577 -0.86904836 0)
(0.84330701 -0.8453021 0)
(1.0560356 -0.7294967 0)
(1.1847007 -0.51513788 0)
(1.2137335 -0.20379036 0)
(1.1308923 0.025893562 0)
(0.99738389 0.11373501 0)
(0.87261194 0.17422226 0)
(0.76022212 0.22877122 0)
(0.6627184 0.27807739 0)
(0.57703828 0.30764167 0)
(0.50227173 0.31732411 0)
(0.43790096 0.3141102 0)
(0.3828921 0.30343727 0)
(0.3362543 0.2886226 0)
(0.29687232 0.27175541 0)
(0.26350115 0.25415985 0)
(0.23499663 0.23664299 0)
(0.21044728 0.21969974 0)
(0.18912418 0.20362243 0)
(0.17042615 0.18855386 0)
(0.15387558 0.17454907 0)
(0.13908216 0.16159232 0)
(0.12577593 0.14965922 0)
(0.11370728 0.13865469 0)
(0.10265589 0.12850779 0)
(0.09247755 0.11916667 0)
(0.083076742 0.11053755 0)
(0.07436714 0.1025456 0)
(0.066264541 0.095133422 0)
(0.058724246 0.088231167 0)
(0.051705553 0.081792383 0)
(0.045180195 0.075777929 0)
(0.039122018 0.070149624 0)
(0.033510022 0.06487363 0)
(0.028322805 0.059933391 0)
(0.02354456 0.055316382 0)
(0.019162024 0.051003385 0)
(0.015153438 0.046987944 0)
(0.011507239 0.043272755 0)
(0.0081994131 0.039850188 0)
(0.0051956806 0.036727732 0)
(0.0024934808 0.033909724 0)
(7.3397426e-05 0.031404851 0)
(-0.0020080058 0.029241228 0)
(-0.0046604472 0.027389541 0)
(-0.0062226246 0.025323148 0)
(-0.0010805208 0.055140897 0)
(-0.0089411642 0.055788827 0)
(-0.013404593 0.056246221 0)
(-0.018639883 0.05684998 0)
(-0.024067721 0.057436322 0)
(-0.029638501 0.058020824 0)
(-0.035353743 0.058571865 0)
(-0.041172822 0.059059349 0)
(-0.047101521 0.059465571 0)
(-0.053123787 0.059754975 0)
(-0.059222691 0.059913851 0)
(-0.06537428 0.059919663 0)
(-0.071547995 0.059756947 0)
(-0.077719873 0.059411331 0)
(-0.083852882 0.058873062 0)
(-0.089912378 0.058139971 0)
(-0.095869732 0.057217189 0)
(-0.10168684 0.056114803 0)
(-0.10732997 0.054847197 0)
(-0.11277318 0.053439007 0)
(-0.1179979 0.051923858 0)
(-0.12298707 0.050350366 0)
(-0.12773868 0.048747711 0)
(-0.1322918 0.047164973 0)
(-0.13667376 0.045656677 0)
(-0.14093873 0.04426054 0)
(-0.14517645 0.042973535 0)
(-0.14949223 0.041810121 0)
(-0.15400456 0.040731045 0)
(-0.15881664 0.039662451 0)
(-0.16411461 0.038487976 0)
(-0.17008541 0.0370447 0)
(-0.17689724 0.035110132 0)
(-0.18465176 0.032210254 0)
(-0.19340049 0.02797171 0)
(-0.20321182 0.021878017 0)
(-0.21400733 0.013132644 0)
(-0.22534765 0.00078388031 0)
(-0.23642254 -0.015959895 0)
(-0.24597803 -0.037737357 0)
(-0.25219109 -0.064768824 0)
(-0.25332022 -0.096155806 0)
(-0.24819252 -0.13027486 0)
(-0.23641437 -0.16523166 0)
(-0.21882674 -0.19882655 0)
(-0.19741869 -0.22950504 0)
(-0.17478801 -0.25724214 0)
(-0.1548392 -0.28113039 0)
(-0.14698655 -0.29530705 0)
(-0.1608599 -0.31535581 0)
(-0.11123674 -0.45482196 0)
(0.19367369 -0.75972513 0)
(0.5702105 -1.099536 0)
(0.8950034 -1.2094527 0)
(1.1647793 -1.1143694 0)
(1.3660208 -0.90593279 0)
(1.4861745 -0.60717887 0)
(1.5263408 -0.21614255 0)
(1.5105996 0.10576717 0)
(1.3743893 0.27615173 0)
(1.1457899 0.34683406 0)
(0.92358447 0.38236624 0)
(0.73767679 0.40162204 0)
(0.59691659 0.40281318 0)
(0.49939336 0.39351729 0)
(0.42656956 0.37762865 0)
(0.36669521 0.35653268 0)
(0.31724773 0.33272636 0)
(0.27689331 0.30853496 0)
(0.2436704 0.28511103 0)
(0.21589836 0.26292925 0)
(0.19240008 0.24224099 0)
(0.17227664 0.22315821 0)
(0.15482214 0.20566614 0)
(0.13950257 0.18970207 0)
(0.12589174 0.17514912 0)
(0.11368364 0.16190759 0)
(0.10259281 0.14979744 0)
(0.092446154 0.13873677 0)
(0.083083395 0.12859896 0)
(0.074401301 0.11928226 0)
(0.066333695 0.11067665 0)
(0.058805119 0.10270292 0)
(0.051775924 0.095285056 0)
(0.045220609 0.088363578 0)
(0.039115337 0.08188685 0)
(0.033436732 0.07581597 0)
(0.028177901 0.070117484 0)
(0.023330577 0.064771077 0)
(0.018876544 0.059754108 0)
(0.014804421 0.055056009 0)
(0.011107111 0.050672512 0)
(0.0077709021 0.046607945 0)
(0.0047720784 0.042858042 0)
(0.0020847264 0.039432292 0)
(-0.00029293337 0.036336261 0)
(-0.0023735335 0.033579918 0)
(-0.004130167 0.031189371 0)
(-0.006560855 0.029162583 0)
(-0.0074642485 0.026958504 0)
(-0.00063566075 0.05998356 0)
(-0.0083632603 0.060848582 0)
(-0.012803932 0.06145799 0)
(-0.017975563 0.062213134 0)
(-0.023415737 0.062960207 0)
(-0.029008419 0.06368536 0)
(-0.034774614 0.064373547 0)
(-0.040670038 0.064988385 0)
(-0.046703023 0.065507296 0)
(-0.052859211 0.065892312 0)
(-0.059108425 0.066122857 0)
(-0.065428407 0.066176609 0)
(-0.071789123 0.066028679 0)
(-0.078159506 0.065664922 0)
(-0.084499456 0.065073404 0)
(-0.090764889 0.064249639 0)
(-0.09691385 0.063197827 0)
(-0.10291186 0.061928792 0)
(-0.10871415 0.060457459 0)
(-0.11428072 0.058823321 0)
(-0.11958108 0.057065251 0)
(-0.12460482 0.055236578 0)
(-0.12935257 0.053391203 0)
(-0.13382675 0.051588254 0)
(-0.1380702 0.049917667 0)
(-0.1421853 0.048429168 0)
(-0.14624939 0.047163657 0)
(-0.1503903 0.046150374 0)
(-0.15478247 0.045381646 0)
(-0.15955973 0.044760989 0)
(-0.16493797 0.044191045 0)
(-0.17117549 0.043637826 0)
(-0.17864256 0.042836705 0)
(-0.18750776 0.041184741 0)
(-0.19783724 0.038251983 0)
(-0.20996165 0.03350831 0)
(-0.22408151 0.025925653 0)
(-0.23983698 0.014204962 0)
(-0.25624122 -0.0031101128 0)
(-0.27164889 -0.027301024 0)
(-0.28335033 -0.058982385 0)
(-0.28835204 -0.096610408 0)
(-0.28493057 -0.13793915 0)
(-0.27257981 -0.18036403 0)
(-0.25193917 -0.21990103 0)
(-0.2260759 -0.25337171 0)
(-0.19967904 -0.2795661 0)
(-0.17784381 -0.29304905 0)
(-0.17160829 -0.29153052 0)
(-0.17627518 -0.35353012 0)
(0.038077762 -0.72367585 0)