/*--------------------------------*- C++ -*----------------------------------*\
  =========                 |
  \\      /  F ield         | OpenFOAM: The Open Source CFD Toolbox
   \\    /   O peration     | Website:  https://openfoam.org
    \\  /    A nd           | Version:  9
     \\/     M anipulation  |
\*---------------------------------------------------------------------------*/
FoamFile
{
    format      ascii;
    class       volScalarField;
    location    "2";
    object      gradTx;
}
// * * * * * * * * * * * * * * * * * * * * * * * * * * * * * * * * * * * * * //

dimensions      [0 -1 0 1 0 0 0];

internalField   nonuniform List<scalar> 10(5.3369703e-06 2.4592977e-05 8.9362982e-05 0.00031890696 0.0022925979 0.0066575636 0.044949885 0.17802873 1.1914377 -0);

boundaryField
{
    inlet
    {
        type            calculated;
        value           uniform 5.3369703e-06;
    }
    outlet
    {
        type            calculated;
        value           uniform -24.998338;
    }
    bottom
    {
        type            calculated;
        value           nonuniform List<scalar> 10(5.3369703e-06 2.4592977e-05 8.9362982e-05 0.00031890696 0.0022925979 0.0066575636 0.044949885 0.17802873 1.1914377 0);
    }
    top
    {
        type            calculated;
        value           nonuniform List<scalar> 10(5.3369703e-06 2.4592977e-05 8.9362982e-05 0.00031890696 0.0022925979 0.0066575636 0.044949885 0.17802873 1.1914377 0);
    }
    frontAndBack
    {
        type            empty;
    }
}


// ************************************************************************* //
