/*--------------------------------*- C++ -*----------------------------------*\
  =========                 |
  \\      /  F ield         | OpenFOAM: The Open Source CFD Toolbox
   \\    /   O peration     | Website:  https://openfoam.org
    \\  /    A nd           | Version:  9
     \\/     M anipulation  |
\*---------------------------------------------------------------------------*/
FoamFile
{
    format      ascii;
    class       volVectorField;
    location    "2";
    object      gradT;
}
// * * * * * * * * * * * * * * * * * * * * * * * * * * * * * * * * * * * * * //

dimensions      [0 -1 0 1 0 0 0];

internalField   nonuniform List<vector> 10((5.3369703e-06 0 0) (2.4592977e-05 0 0) (8.9362982e-05 0 0) (0.00031890696 0 0) (0.0022925979 0 0) (0.0066575636 0 0) (0.044949885 0 0) (0.17802873 0 0) (1.1914377 0 0) (-0 0 0));

boundaryField
{
    inlet
    {
        type            extrapolatedCalculated;
        value           uniform (5.3369703e-06 0 0);
    }
    outlet
    {
        type            extrapolatedCalculated;
        value           uniform (-24.998338 0 0);
    }
    bottom
    {
        type            extrapolatedCalculated;
        value           nonuniform List<vector> 10((5.3369703e-06 0 0) (2.4592977e-05 0 0) (8.9362982e-05 0 0) (0.00031890696 0 0) (0.0022925979 0 0) (0.0066575636 0 0) (0.044949885 0 0) (0.17802873 0 0) (1.1914377 0 0) (0 0 0));
    }
    top
    {
        type            extrapolatedCalculated;
        value           nonuniform List<vector> 10((5.3369703e-06 0 0) (2.4592977e-05 0 0) (8.9362982e-05 0 0) (0.00031890696 0 0) (0.0022925979 0 0) (0.0066575636 0 0) (0.044949885 0 0) (0.17802873 0 0) (1.1914377 0 0) (0 0 0));
    }
    frontAndBack
    {
        type            empty;
    }
}


// ************************************************************************* //
