/*--------------------------------*- C++ -*----------------------------------*\
  =========                 |
  \\      /  F ield         | OpenFOAM: The Open Source CFD Toolbox
   \\    /   O peration     | Website:  https://openfoam.org
    \\  /    A nd           | Version:  9
     \\/     M anipulation  |
\*---------------------------------------------------------------------------*/
FoamFile
{
    format      ascii;
    class       volScalarField;
    location    "30";
    object      p;
}
// * * * * * * * * * * * * * * * * * * * * * * * * * * * * * * * * * * * * * //

dimensions      [0 2 -2 0 0 0 0];

internalField   nonuniform List<scalar> 
400
(
1.0920884e-07
-0.00067275316
-0.0013852296
-0.0019425871
-0.0022198797
-0.0021563761
-0.0017276714
-0.00092608069
0.00023553954
0.0017075236
0.0033874032
0.0051123127
0.0066735958
0.0078492229
0.0084585126
0.0084238081
0.0078135202
0.0068446392
0.0058614189
0.0052990616
0.00065796121
-4.0404499e-05
-0.00056953821
-0.0009405037
-0.001110741
-0.0010397984
-0.00070566745
-9.542226e-05
0.0007892209
0.0019163062
0.0032097037
0.0045548215
0.0057820805
0.0067163772
0.0072145477
0.0072146533
0.0067700783
0.0060528905
0.0053106466
0.0047386044
0.0014238194
0.00044077045
-0.00011647916
-0.00045312205
-0.00061468696
-0.00058468924
-0.00034645788
0.00011986517
0.0008285801
0.0017700247
0.0028944072
0.0040982783
0.0052283533
0.0061110891
0.0065939887
0.0065977878
0.0061558623
0.005421633
0.0045938639
0.0037483498
0.0020143143
0.0006818048
1.6888998e-05
-0.00035873307
-0.00057142899
-0.00062643937
-0.0005099622
-0.00019051011
0.00036862211
0.0011845044
0.0022300289
0.00341754
0.0045914781
0.0055570545
0.0061236716
0.0061666835
0.0056837457
0.0048171729
0.0037474096
0.0024737138
0.002167385
0.00049623433
-0.00029614166
-0.00074858699
-0.0010581344
-0.001245152
-0.0012926307
-0.0011511837
-0.00075493097
-5.2981116e-05
0.00095714156
0.0022103971
0.0035448218
0.004732775
0.0055219567
0.0057100009
0.0052294064
0.0042017234
0.0028062999
0.00098407619
0.0016540762
-0.00031436384
-0.0012386716
-0.0017991841
-0.0022525445
-0.002627792
-0.0028985049
-0.0029909666
-0.0028024196
-0.0022375582
-0.0012509777
0.00013100775
0.0017447584
0.0033272195
0.0045417528
0.0050658903
0.0047176101
0.0035663141
0.0017897076
-0.00072580775
0.00028713897
-0.0019194553
-0.0029728828
-0.0036712659
-0.0043201789
-0.0049530823
-0.0055300037
-0.005947839
-0.0060588884
-0.0057072633
-0.0047755959
-0.0032585783
-0.0012663967
0.0009072866
0.0028232355
0.0039869477
0.0040252083
0.0028878222
0.00071549217
-0.0026803871
-0.0020763152
-0.0044510765
-0.0056266878
-0.0064922058
-0.0073928018
-0.0083656428
-0.0093568021
-0.010231666
-0.010790856
-0.010804726
-0.010063241
-0.0084616406
-0.00604065
-0.0030831055
-0.00012619722
0.0021127342
0.0029639398
0.0021356942
-0.00036592205
-0.0048724981
-0.0055240526
-0.0079919986
-0.0092778044
-0.010333672
-0.011537879
-0.012935296
-0.014462588
-0.015956202
-0.01716235
-0.017765921
-0.017437965
-0.015919354
-0.01312284
-0.0092516453
-0.0048988973
-0.001029905
0.0012695216
0.0012778756
-0.0013338463
-0.0072015652
-0.010076797
-0.012564981
-0.01393655
-0.015183887
-0.016718261
-0.018602504
-0.020774082
-0.023048648
-0.025121573
-0.026586242
-0.02696924
-0.025812829
-0.022845562
-0.018074336
-0.01205098
-0.0059518422
-0.0013706275
0.00030070581
-0.001947091
-0.0093821123
-0.015684871
-0.018132299
-0.019537444
-0.020926695
-0.022757621
-0.025129759
-0.027996895
-0.031166293
-0.034291359
-0.036876741
-0.038294068
-0.037844172
-0.035065746
-0.029601359
-0.021822386
-0.012985465
-0.0051848635
-0.00071563847
-0.0017640872
-0.010792142
-0.022243484
-0.024612922
-0.025945482
-0.027334848
-0.029324046
-0.03207911
-0.035588829
-0.039664545
-0.043927168
-0.047801196
-0.050530081
-0.051236373
-0.04895677
-0.043143439
-0.033768906
-0.021926232
-0.010036771
-0.0014153318
-9.7546526e-06
-0.010225507
-0.029641105
-0.031923781
-0.032978634
-0.034079761
-0.035939402
-0.0388314
-0.042795497
-0.047651476
-0.052990432
-0.058163485
-0.06228414
-0.064265422
-0.062875049
-0.057112078
-0.046476633
-0.031648977
-0.01503775
-0.00086427751
0.004646876
-0.0055214246
-0.037865898
-0.040048406
-0.040440025
-0.040752404
-0.042014946
-0.044652961
-0.048758078
-0.054143944
-0.060355926
-0.066665245
-0.072060584
-0.075268175
-0.074811254
-0.069269159
-0.057628199
-0.039961399
-0.018247861
0.0027891505
0.01444527
0.0069076606
-0.047230483
-0.04913426
-0.048140472
-0.046882179
-0.046905396
-0.048798598
-0.052668189
-0.058275904
-0.065075992
-0.07223189
-0.078595664
-0.082712216
-0.082880103
-0.077309285
-0.064523833
-0.043934848
-0.016747879
0.012503059
0.032938897
0.032409066
-0.058896686
-0.059639785
-0.055883814
-0.051940939
-0.049972205
-0.050629776
-0.053928551
-0.059495242
-0.066611756
-0.074285192
-0.081191064
-0.085679301
-0.085831694
-0.079522092
-0.064875997
-0.040689162
-0.0072408127
0.032139482
0.064981563
0.077749294
-0.076226413
-0.072613627
-0.063516082
-0.055435275
-0.050724909
-0.049781487
-0.052312236
-0.057664264
-0.064891719
-0.072774869
-0.079779265
-0.084036646
-0.083391555
-0.075348862
-0.057602573
-0.028375038
0.012933434
0.065396586
0.11555162
0.15150634
-0.10809215
-0.089556237
-0.071233734
-0.057232913
-0.049072036
-0.046330114
-0.04807716
-0.053202503
-0.060434521
-0.068295764
-0.075027294
-0.078526815
-0.076388909
-0.065809578
-0.043865382
-0.0078183477
0.044393774
0.11299826
0.18838053
0.27186088
-0.17684547
-0.1082896
-0.076202379
-0.054651142
-0.042992287
-0.038997935
-0.040570413
-0.045927943
-0.053441437
-0.061438258
-0.068027486
-0.07096246
-0.067551036
-0.054739739
-0.029148717
0.013563701
0.07814706
0.17006446
0.28949557
0.47421833
-0.3720835
-0.12470844
-0.054972989
-0.031962424
-0.022063461
-0.020300426
-0.024359361
-0.031957902
-0.041261461
-0.050640787
-0.058316802
-0.062187366
-0.059782457
-0.048056714
-0.022658432
0.021474307
0.092818824
0.21015287
0.40288853
0.77640939
)
;

boundaryField
{
    movingWall
    {
        type            zeroGradient;
    }
    fixedWalls
    {
        type            zeroGradient;
    }
    frontAndBack
    {
        type            empty;
    }
}


// ************************************************************************* //
