/*--------------------------------*- C++ -*----------------------------------*\
  =========                 |
  \\      /  F ield         | OpenFOAM: The Open Source CFD Toolbox
   \\    /   O peration     | Website:  https://openfoam.org
    \\  /    A nd           | Version:  9
     \\/     M anipulation  |
\*---------------------------------------------------------------------------*/
FoamFile
{
    format      ascii;
    class       volScalarField;
    location    "0.65";
    object      alpha.phase1;
}
// * * * * * * * * * * * * * * * * * * * * * * * * * * * * * * * * * * * * * //

dimensions      [0 0 0 0 0 0 0];

internalField   nonuniform List<scalar> 
10000
(
4.6718602e-84
4.7250072e-84
1.3765892e-82
3.6012502e-81
5.6433712e-81
2.8799933e-81
8.2742596e-82
2.4591988e-82
2.2875166e-82
2.2958377e-82
1.6154054e-80
3.1456966e-78
1.2584637e-76
1.396399e-75
7.4535115e-75
3.7258415e-74
1.2158441e-72
1.1968915e-70
1.1771919e-68
1.0906345e-66
9.536293e-65
7.8929424e-63
6.2005633e-61
4.6349973e-59
3.3051158e-57
2.2535663e-55
1.4662782e-53
9.035984e-52
5.7351042e-50
5.7089596e-48
5.9584687e-46
1.5419554e-44
9.4458709e-44
2.3119214e-43
3.6187237e-43
4.842697e-43
8.0473011e-42
3.8185192e-40
1.6544843e-38
6.2488138e-37
1.9934776e-35
4.6873473e-34
6.6493912e-33
7.0491726e-32
6.8149765e-31
4.7083102e-30
3.9312707e-29
7.1820904e-28
1.7924262e-26
4.5736638e-25
1.2227753e-23
3.7622925e-22
2.4257386e-20
5.67151e-19
2.5961983e-18
1.5475514e-18
4.7449033e-19
1.1565373e-19
2.2468137e-20
2.2800333e-21
1.1609424e-22
6.9724852e-24
4.9379119e-25
3.1345034e-26
1.7661456e-27
9.2335856e-29
4.5212805e-30
2.0598295e-31
8.6826047e-33
3.3757622e-34
1.2077391e-35
3.9673315e-37
1.1941292e-38
3.286932e-40
8.2587913e-42
1.8908172e-43
3.9373916e-45
7.443679e-47
1.2750507e-48
1.9746509e-50
2.7583467e-52
3.4661801e-54
3.9066965e-56
3.9357339e-58
3.5304456e-60
2.8072864e-62
1.9686088e-64
1.2099824e-66
6.4696613e-69
2.9805705e-71
1.1690181e-73
3.846001e-76
1.0405264e-78
2.3144144e-81
1.6272314e-81
1.627203e-81
5.8780011e-81
6.5523899e-81
6.6692696e-81
6.7147495e-81
5.2160247e-84
7.8122648e-83
3.2124622e-81
4.0942016e-80
7.0315564e-80
6.1645254e-80
4.4047096e-80
2.0151305e-80
3.9806033e-81
4.2348741e-82
1.1096362e-80
2.0054319e-78
8.6185967e-77
1.1166737e-75
1.3686259e-74
8.849589e-73
9.8878719e-71
1.0595423e-68
1.0639024e-66
1.0043892e-64
8.9474146e-63
7.5451946e-61
6.0393085e-59
4.6013984e-57
3.3463912e-55
2.3269726e-53
1.5355694e-51
9.7318987e-50
7.8071973e-48
1.2004911e-45
6.6985705e-44
6.5466576e-43
2.0528682e-42
6.7167345e-42
5.0439648e-41
1.8405098e-40
2.9546346e-39
1.3949599e-37
6.0418909e-36
2.2849206e-34
7.381362e-33
1.797012e-31
2.4004483e-30
1.5702127e-29
7.7523788e-29
5.6511029e-28
9.3515565e-27
1.8209187e-25
3.1752234e-24
3.2497345e-23
6.1796525e-22
1.6782447e-20
2.9614004e-19
3.2405791e-18
3.4774609e-17
5.1618161e-17
4.0872179e-17
1.881171e-17
4.7854404e-18
5.6476571e-19
3.0750122e-20
1.5946123e-21
1.0029959e-22
6.0086003e-24
3.2299802e-25
1.6004791e-26
7.3987644e-28
3.1801497e-29
1.2653962e-30
4.6500866e-32
1.5753116e-33
4.9104353e-35
1.4055792e-36
3.6870597e-38
8.8449308e-40
1.936509e-41
3.8614667e-43
6.9982751e-45
1.1500352e-46
1.7086615e-48
2.2901983e-50
2.7595095e-52
2.9796959e-54
2.8720654e-56
2.4603704e-58
1.8628191e-60
1.2393428e-62
7.1906635e-65
3.6063966e-67
1.5472031e-69
5.591865e-72
1.6722975e-74
4.0302846e-77
1.1185936e-79
5.986231e-80
1.2720208e-79
8.6134509e-80
4.3822305e-80
6.9976444e-81
7.2174751e-81
6.0391739e-81
1.2331454e-79
4.8695133e-78
3.9005137e-77
5.5169792e-77
4.5789872e-77
3.0716679e-77
1.3617079e-77
2.8131963e-78
2.6092276e-79
3.0197425e-80
2.8119718e-78
3.0178105e-76
3.6555528e-74
4.9288791e-72
6.1866464e-70
7.1948225e-68
7.7977177e-66
7.9066611e-64
7.5317141e-62
6.7652898e-60
5.7486702e-58
4.6338514e-56
3.5547112e-54
2.6017845e-52
1.820146e-50
1.2074443e-48
7.6969064e-47
6.2491449e-45
9.5798698e-43
5.2815091e-41
5.2692193e-40
1.8106596e-39
8.1707441e-39
5.5864996e-38
1.4570888e-37
7.4082137e-37
3.0504114e-35
1.3183215e-33
4.9743033e-32
1.603021e-30
3.8474168e-29
4.9176935e-28
2.9969455e-27
1.3420587e-26
8.8989428e-26
1.5072462e-24
3.0012788e-23
6.0695662e-22
1.1988246e-20
2.0618827e-19
5.3673521e-18
7.1634132e-17
6.4212741e-16
2.7330331e-15
4.3778804e-15
3.5089246e-15
1.7738487e-15
5.1042603e-16
6.9670661e-17
4.3017594e-18
2.1657463e-19
1.2897377e-20
7.5930509e-22
4.0595945e-23
1.9912756e-24
9.0613918e-26
3.8199265e-27
1.4864592e-28
5.3278705e-30
1.7562807e-31
5.3162514e-33
1.4753049e-34
3.7469279e-36
8.693429e-38
1.8391217e-39
3.5400071e-41
6.1876469e-43
9.7933343e-45
1.4001208e-46
1.8025387e-48
2.0836558e-50
2.1540398e-52
1.9832635e-54
1.6181802e-56
1.1632334e-58
7.3161581e-61
3.9945525e-63
1.8743657e-65
7.4584412e-68
2.4672078e-70
6.5964589e-73
1.3806056e-75
2.2646069e-77
6.8806665e-77
1.3600693e-76
1.1260306e-76
6.0477716e-77
1.541242e-77
1.1541528e-77
3.2385304e-78
1.0746754e-76
4.1002045e-75
2.2416729e-74
2.8382003e-74
2.3258522e-74
1.5225419e-74
6.6195514e-75
1.3780563e-75
1.8345837e-76
1.2045505e-77
7.2965033e-76
1.2415325e-73
1.9883226e-71
2.7815745e-69
3.2927995e-67
3.8599621e-65
4.2307229e-63
4.3335112e-61
4.165868e-59
3.7736952e-57
3.2310567e-55
2.6232228e-53
2.0251979e-51
1.4914046e-49
1.0491764e-47
6.9942403e-46
4.4824619e-44
3.6806734e-42
5.6218927e-40
3.0658736e-38
3.1214594e-37
1.1667116e-36
6.8867907e-36
4.5441376e-35
1.0050291e-34
1.9205459e-34
4.8318486e-33
2.0812903e-31
7.8392953e-30
2.5234792e-28
5.9679071e-27
7.2220665e-26
3.9983131e-25
1.5703941e-24
9.1948174e-24
1.5543906e-22
3.0596209e-21
6.1450527e-20
1.3311486e-18
3.5588628e-17
6.7113524e-16
4.70004e-15
1.1631193e-14
2.003971e-14
9.6332454e-14
1.195547e-13
9.1075956e-14
3.5588152e-14
6.0422238e-15
4.4480625e-16
2.2718965e-17
1.2884474e-18
7.4527823e-20
3.9644906e-21
1.9220562e-22
8.5716305e-24
3.5213573e-25
1.3301327e-26
4.6133926e-28
1.4677654e-29
4.2788609e-31
1.1415097e-32
2.7826852e-34
6.1882572e-36
1.2532141e-37
2.3065946e-39
3.8507571e-41
5.8120213e-43
7.9097887e-45
9.6745854e-47
1.0596283e-48
1.0351029e-50
8.9737895e-53
6.8583321e-55
4.5929743e-57
2.669868e-59
1.3329777e-61
5.6314004e-64
1.9682202e-66
5.5533759e-69
1.4720701e-71
4.9433665e-74
1.7671932e-74
5.8075494e-74
1.0573394e-73
9.4982736e-74
5.095103e-74
1.4699591e-74
8.5375634e-75
1.3221164e-75
5.4600479e-74
2.0633095e-72
9.4922319e-72
1.1214093e-71
9.1427018e-72
5.8931443e-72
2.5307227e-72
5.3228195e-73
9.1188963e-74
3.5167801e-75
2.8237319e-73
5.0295795e-71
8.7580272e-69
1.2167046e-66
1.3938066e-64
1.6565836e-62
1.8394593e-60
1.9059263e-58
1.8504163e-56
1.69081e-54
1.459545e-52
1.1939425e-50
9.2834948e-49
6.8814366e-47
4.8691204e-45
3.26102e-43
2.1007023e-41
1.7506219e-39
2.6936107e-37
1.4493942e-35
1.4785934e-34
5.7668214e-34
4.0607374e-33
2.7599415e-32
5.629924e-32
6.8456608e-32
5.9974818e-31
2.5493051e-29
9.5960431e-28
3.0952424e-26
7.2206866e-25
8.2137169e-24
4.0665204e-23
1.3673033e-22
6.7980216e-22
1.1347585e-20
2.2300863e-19
4.2495138e-18
9.8113932e-17
2.7599497e-15
1.8431078e-14
1.5324237e-13
5.5503042e-13
9.7529162e-13
2.2522851e-12
3.017501e-12
2.6859962e-12
1.3846079e-12
3.3868826e-13
3.527625e-14
1.9972999e-15
1.067308e-16
5.9770521e-18
3.1509971e-19
1.5056796e-20
6.5466561e-22
2.6017667e-23
9.4547539e-25
3.1410325e-26
9.5386092e-28
2.6467693e-29
6.7055209e-31
1.5493472e-32
3.2601845e-34
6.2360484e-36
1.0825024e-37
1.7001917e-39
2.4087072e-41
3.0680922e-43
3.5014732e-45
3.5630897e-47
3.2158574e-49
2.5565774e-51
1.7760909e-53
1.067036e-55
5.6192216e-58
2.7519229e-60
1.1680629e-62
4.1923719e-65
1.2522014e-67
3.1021855e-70
1.0567804e-71
1.2965239e-71
3.8243445e-71
6.4655244e-71
5.992943e-71
3.1483722e-71
9.5152864e-72
4.7644409e-72
4.3711313e-73
2.0052921e-71
7.5594812e-70
3.1796097e-69
3.5938758e-69
2.9244007e-69
1.8679407e-69
7.961807e-70
1.6916628e-70
3.6896981e-71
1.680922e-71
9.3353064e-71
2.348784e-68
4.9033225e-66
4.3115012e-64
4.8467135e-62
5.8625599e-60
6.6072106e-58
6.9317246e-56
6.8038197e-54
6.2756063e-52
5.4630526e-50
4.5026444e-48
3.5248011e-46
2.6286042e-44
1.8701872e-42
1.2586232e-40
8.1572603e-39
6.9333209e-37
1.0843365e-34
5.7371865e-33
5.7761937e-32
2.2745214e-31
1.7849931e-30
1.2849624e-29
2.5494703e-29
2.7619381e-29
6.5527839e-29
2.5397168e-27
9.583333e-26
3.109424e-24
7.1703756e-23
7.6313546e-22
3.3350296e-21
9.3596417e-21
3.7583176e-20
6.1706169e-19
1.2020888e-17
2.2878069e-16
5.6204214e-15
5.604249e-14
2.9341605e-13
6.3201777e-12
2.3767264e-11
4.3422537e-11
5.9003269e-11
8.2909439e-11
1.0069476e-10
6.1675703e-11
1.6605689e-11
1.8575189e-12
1.2038033e-13
6.8600598e-15
3.8260916e-16
1.9851643e-17
9.2755164e-19
3.9008926e-20
1.4845755e-21
5.1267199e-23
1.6088121e-24
4.5927858e-26
1.1935155e-27
2.8234061e-29
6.0764733e-31
1.1883866e-32
2.1082479e-34
3.386812e-36
4.9060707e-38
6.3903537e-40
7.4514612e-42
7.7321707e-44
7.5002728e-46
6.6377774e-48
5.2148551e-50
3.610217e-52
2.1881989e-54
1.1516821e-56
5.2136079e-59
2.0064173e-61
6.4655163e-64
1.7140723e-66
6.5141943e-69
2.9206853e-69
7.6543814e-69
2.0423055e-68
3.2071876e-68
2.9955191e-68
1.5222232e-68
4.6667715e-69
2.1173763e-69
1.2211847e-70
5.8471825e-69
2.205523e-67
8.8130262e-67
9.6842164e-67
7.8775882e-67
5.0084931e-67
2.1289834e-67
4.5758107e-68
1.3722328e-68
4.0455035e-68
2.8643503e-68
1.4331192e-65
2.402257e-63
1.2463242e-61
1.3919389e-59
1.7205176e-57
1.9734759e-55
2.1005265e-53
2.0870002e-51
1.9449818e-49
1.7080899e-47
1.4187385e-45
1.1186074e-43
8.4014475e-42
6.016852e-40
4.0705965e-38
2.6543566e-36
2.3101901e-34
3.7011967e-32
1.922583e-30
1.8921515e-29
7.377623e-29
6.1943443e-28
4.7236835e-27
9.3649274e-27
9.7216913e-27
8.2121169e-27
2.1081562e-25
8.0359108e-24
2.6395342e-22
6.0335891e-21
6.0069976e-20
2.3079286e-19
5.2649041e-19
1.5988994e-18
2.613393e-17
5.1830806e-16
9.3244241e-15
1.2022206e-13
2.7867252e-13
7.7293932e-12
2.1788147e-10
7.9836822e-10
1.4947853e-09
1.3795311e-09
1.6672199e-09
3.2478204e-09
2.3563381e-09
7.0521181e-10
5.2725654e-11
1.7026588e-12
1.9577362e-13
1.6463593e-14
8.9215843e-16
3.9576368e-17
1.5845092e-18
5.7253706e-20
1.85676e-21
5.4181306e-23
1.4273583e-24
3.4016198e-26
7.3403925e-28
1.4399524e-29
2.5736679e-31
4.2345596e-33
6.654054e-35
9.5234115e-37
1.2259189e-38
1.4172117e-40
1.4665869e-42
1.3532778e-44
1.1078543e-46
8.0007285e-49
5.0640054e-51
2.7877975e-53
1.3222174e-55
5.3429162e-58
1.8145649e-60
5.0868778e-63
1.1991483e-65
1.2598999e-66
1.5876394e-66
3.7854962e-66
9.0543562e-66
1.3217363e-65
1.2268281e-65
5.9923307e-66
1.8343947e-66
7.7562088e-67
2.978355e-68
1.4214479e-66
5.3688026e-65
2.0842391e-64
2.2492893e-64
1.832503e-64
1.1635899e-64
4.9510929e-65
1.0891972e-65
4.127046e-66
2.163457e-65
9.9233842e-66
7.0370378e-63
7.1588094e-61
2.8976113e-59
3.299291e-57
4.1946062e-55
4.9155862e-53
5.3204861e-51
5.3585994e-49
5.0508389e-47
4.4781261e-45
3.7498516e-43
2.9783538e-41
2.2516613e-39
1.6223302e-37
1.10326e-35
7.2451459e-34
6.471316e-32
1.068428e-29
5.4755694e-28
5.2765168e-27
2.03241e-26
1.7799061e-25
1.4004568e-24
2.7853799e-24
2.8062319e-24
1.4949436e-24
1.4777808e-23
5.7640583e-22
1.9287825e-20
4.3830357e-19
4.1335855e-18
1.4263902e-17
2.657527e-17
5.7373867e-17
9.0410357e-16
1.8178851e-14
2.3012296e-13
6.272767e-13
6.5727461e-12
2.208985e-10
6.0391317e-09
2.0970773e-08
3.9843105e-08
3.3887912e-08
2.5382033e-08
9.7710169e-08
8.61364e-08
2.8844689e-08
2.0756555e-10
4.8870885e-12
5.4862035e-13
8.6716457e-14
1.484177e-14
1.0585769e-15
3.5856766e-17
1.0533754e-18
3.0542658e-20
7.9892306e-22
1.8671931e-23
4.0827567e-25
8.9121551e-27
1.791946e-28
3.2441189e-30
5.3015583e-32
7.8153124e-34
1.0365427e-35
1.2335154e-37
1.3129646e-39
1.2451497e-41
1.0473769e-43
7.7729474e-46
5.0575013e-48
2.8631493e-50
1.397281e-52
5.8142893e-55
2.0354374e-57
5.8883096e-60
1.3772114e-62
3.3940898e-64
3.1516393e-64
7.1762739e-64
1.57399e-63
3.3939044e-63
4.6107528e-63
4.2131544e-63
1.9716316e-63
5.9804939e-64
2.3978792e-64
6.5185458e-66
2.9752209e-64
1.124184e-62
4.3003522e-62
4.5893199e-62
3.7510934e-62
2.3845433e-62
1.0193972e-62
2.2586814e-63
5.6967035e-64
4.7215686e-63
6.7495153e-62
5.8869385e-60
1.7709194e-58
5.3974388e-57
6.3293306e-55
8.351921e-53
1.0051144e-50
1.110041e-48
1.1355887e-46
1.0834907e-44
9.7014095e-43
8.1916613e-41
6.5518247e-39
4.9852131e-37
3.6131253e-35
2.4707904e-33
1.6342196e-31
1.4961493e-29
2.5430058e-27
1.2975999e-25
1.2443628e-24
4.8642346e-24
4.51472e-23
3.4582086e-22
6.7045215e-22
6.5253469e-22
3.0511565e-22
8.9203094e-22
3.5850862e-20
1.2375445e-18
2.8043841e-17
2.509983e-16
7.6640146e-16
1.2428185e-15
1.8675506e-15
2.0531668e-14
3.4833262e-13
3.7233473e-12
3.2321822e-11
2.7232836e-09
5.8409414e-09
2.6537451e-07
5.1760378e-06
1.4522703e-05
1.255675e-05
1.9097497e-05
1.629458e-05
5.8696662e-06
4.8344552e-07
1.3576247e-09
9.1012296e-11
6.0993452e-12
6.1657781e-13
4.5438879e-14
1.1774844e-14
9.7375461e-16
2.3096956e-17
4.4692201e-19
1.1859709e-20
3.0863661e-22
7.1060877e-24
1.4698196e-25
2.7389039e-27
4.5889401e-29
6.9046129e-31
9.3146441e-33
1.1246626e-34
1.2123717e-36
1.1629425e-38
9.8860064e-41
7.4099853e-43
4.8663847e-45
2.7787092e-47
1.3631815e-49
5.672859e-52
1.9829078e-54
5.7174199e-57
1.3520228e-59
5.2670679e-61
5.4449515e-62
1.4164095e-61
2.7713566e-61
5.5629401e-61
1.0901106e-60
1.3784551e-60
1.2349803e-60
5.5231227e-61
1.6550965e-61
6.3647746e-62
1.312642e-63
5.4904824e-62
2.0677451e-60
7.8721377e-60
8.3504007e-60
6.8557105e-60
4.3705611e-60
1.8799452e-60
4.2309662e-61
9.9989349e-62
8.0992919e-61
5.6655636e-59
2.3466928e-57
3.6905852e-56
5.1499425e-55
5.0912195e-53
6.9271411e-51
8.6198825e-49
9.7634562e-47
1.0175567e-44
9.8483626e-43
8.9159857e-41
7.5938669e-39
6.116024e-37
4.6795752e-35
3.4090124e-33
2.3486798e-31
1.5458894e-29
1.2373253e-27
1.7566285e-25
1.1986979e-23
1.9963987e-22
1.6738746e-21
1.9010921e-20
8.9412368e-20
1.3782364e-19
1.2193265e-19
4.9106724e-20
5.0186275e-20
1.9594607e-18
7.2837395e-17
1.6072551e-15
1.1817771e-14
2.5229059e-14
2.197179e-14
2.7467832e-14
1.951989e-13
3.2480051e-12
5.3562433e-11
1.0885734e-09
3.6530004e-08
1.823984e-06
3.4065156e-05
6.1787956e-05
6.7560014e-05
6.9884801e-05
7.0436459e-05
7.0436459e-05
6.7641587e-05
1.5450795e-05
3.9803155e-08
2.9705196e-09
2.0203272e-10
1.2944507e-11
1.0584789e-12
6.5043272e-14
6.3768748e-15
2.7658068e-16
7.6524113e-18
1.9778764e-19
4.6734968e-21
9.895234e-23
1.8735723e-24
3.1711862e-26
4.7973036e-28
6.4798598e-30
7.765566e-32
8.3068656e-34
7.8935107e-36
6.6396325e-38
4.918977e-40
3.1895203e-42
1.7961747e-44
8.7703175e-47
4.7038584e-49
2.7793243e-51
1.0287492e-53
2.8749254e-56
1.8795204e-57
1.0050437e-58
1.9137407e-59
5.3801475e-59
9.1233408e-59
1.6881138e-58
3.0291378e-58
3.5708725e-58
3.1265787e-58
1.3361672e-58
3.9517079e-59
1.4699455e-59
2.4889705e-61
9.1022597e-60
3.3946025e-58
1.2955231e-57
1.3711353e-57
1.1318485e-57
7.2460347e-58
3.1402486e-58
7.1697343e-59
1.8547156e-59
1.734827e-58
1.8569536e-56
5.6739325e-55
6.5495551e-54
7.8403793e-53
9.1655134e-51
1.3985387e-48
1.8512613e-46
2.1844478e-44
2.3416715e-42
2.3116563e-40
2.1222023e-38
1.8271189e-36
1.4852132e-34
1.145054e-32
8.4054523e-31
5.8226804e-29
3.889629e-27
3.483782e-25
6.0368343e-23
3.6414735e-21
4.4344965e-20
2.4075614e-19
2.3706793e-18
1.2230142e-17
1.9251951e-17
1.6558827e-17
5.8049819e-18
3.081047e-18
9.7549856e-17
3.9838812e-15
7.2016523e-14
3.2870215e-13
4.3845963e-13
7.4355932e-14
1.1196854e-13
7.3792613e-13
1.7051017e-11
4.3040625e-10
1.374057e-08
1.8988228e-08
4.773696e-05
7.0767843e-05
7.0370125e-05
6.9487741e-05
6.5598901e-05
5.7036077e-05
6.946031e-05
7.0352594e-05
7.0352594e-05
4.5300478e-05
7.9616998e-07
9.2276688e-09
5.6090441e-10
3.0891028e-11
1.5709417e-12
6.0170421e-14
3.2062283e-15
9.7850464e-17
2.2949534e-18
5.0015673e-20
9.5450889e-22
1.605702e-23
2.394159e-25
3.167459e-27
3.8048947e-29
6.5053232e-31
7.038477e-33
6.2215485e-35
4.8976248e-37
3.3783506e-39
2.0217857e-41
1.0489825e-43
4.6797449e-46
1.8149642e-48
6.0795367e-51
2.5896988e-53
2.2466513e-54
2.6580888e-55
1.6602276e-56
6.4708404e-57
1.7242502e-56
2.5973654e-56
4.4148578e-56
7.3051891e-56
8.1915883e-56
6.838934e-56
2.8256039e-56
8.2384452e-57
2.9863906e-57
4.5320578e-59
1.3777311e-57
5.0358552e-56
1.9371639e-55
2.0520401e-55
1.7045333e-55
1.0966853e-55
4.792593e-56
1.1102529e-56
3.4193667e-57
4.1333144e-56
4.3351144e-54
1.0838151e-52
8.3075885e-52
1.9134609e-50
5.8313181e-48
1.1037198e-45
1.6310346e-43
2.0542698e-41
2.2987444e-39
2.3377987e-37
2.194737e-35
1.9229779e-33
1.5867153e-31
1.2381901e-29
9.0911474e-28
6.5335749e-26
6.2894343e-24
1.0361334e-21
8.2024167e-20
1.652985e-18
8.9781423e-18
2.0785443e-17
7.3585761e-17
7.1280154e-16
1.5741939e-15
1.4287463e-15
4.4563149e-16
2.0445272e-16
4.3006845e-15
1.6811105e-13
2.6180921e-12
1.1736817e-11
1.5086402e-11
2.1008083e-12
9.2555288e-13
1.8595295e-12
5.5168939e-11
1.0226451e-09
3.7103933e-08
4.183734e-06
7.2335612e-05
7.2318026e-05
6.1039852e-05
3.6054243e-05
9.9921554e-06
1.6530405e-06
1.6413329e-06
6.2024928e-05
6.9991349e-05
6.9254432e-05
2.9132775e-05
1.2420844e-07
6.5940141e-09
2.741857e-10
9.2639776e-12
3.1884257e-13
5.7890769e-14
2.3658612e-15
1.5525423e-17
1.7655656e-19
4.6441883e-21
1.0298591e-22
1.6322046e-24
2.1049482e-26
2.2364767e-28
2.0865453e-30
2.0925691e-32
1.8180389e-34
1.3577157e-36
8.8103839e-39
4.9502398e-41
2.379137e-43
9.682499e-46
3.2431957e-48
1.3988718e-50
1.290027e-51
2.8452175e-52
3.3547462e-53
2.6741223e-54
2.0741795e-54
4.6894583e-54
6.4425403e-54
1.0001596e-53
1.5361384e-53
1.6826872e-53
1.3004305e-53
5.27107e-54
1.5141085e-54
5.3858409e-55
8.0388625e-57
1.9282658e-55
6.8196878e-54
2.6555047e-53
2.8227848e-53
2.3606071e-53
1.5270773e-53
6.734599e-54
1.593023e-54
5.3867619e-55
1.1952598e-53
7.6782395e-52
6.8327863e-51
2.7584423e-50
1.1203081e-47
4.7922854e-45
1.4443669e-42
2.5032492e-40
3.405388e-38
3.9735612e-36
4.139833e-34
3.9483625e-32
3.498596e-30
2.9135422e-28
2.268279e-26
1.7187324e-24
2.5907607e-22
1.0567859e-19
4.4057581e-18
1.6558454e-17
1.6802696e-18
3.1540393e-18
1.8772512e-15
1.3657406e-15
1.2645668e-15
1.3108531e-15
1.4852577e-14
3.0261431e-14
1.3091041e-14
1.3242764e-13
6.0643848e-12
1.2279485e-10
4.8621244e-10
5.3805262e-10
8.0985591e-11
2.6090402e-11
5.7790724e-12
2.3148817e-10
2.4886491e-09
5.3436188e-09
5.8329609e-05
7.2335612e-05
4.7368834e-05
2.1134549e-06
1.7450428e-06
1.6615874e-06
1.6568421e-06
1.6311693e-06
1.9952556e-06
1.7841278e-05
6.4094443e-05
2.8782287e-05
1.2822104e-07
6.9968298e-09
2.6942822e-10
1.1359473e-11
1.4148306e-12
2.5111257e-13
9.9869813e-15
1.9336942e-16
2.7503562e-18
9.7603724e-21
1.1591367e-22
1.8374944e-24
2.3437005e-26
2.554509e-28
2.4411817e-30
1.7483652e-32
1.1611594e-34
7.1192089e-37
3.8483189e-39
1.7542657e-41
6.6916746e-44
2.0676063e-46
1.2365567e-48
6.5999538e-49
1.4064667e-49
3.1430009e-50
3.7851161e-51
4.0878187e-52
5.8878806e-52
1.0917622e-51
1.4007707e-51
1.9857681e-51
2.8485609e-51
3.0601108e-51
2.1909096e-51
8.7360712e-52
2.471956e-52
8.6842207e-53
1.3989885e-54
2.5310783e-53
8.50859e-52
3.3624824e-51
3.5942461e-51
3.0276876e-51
1.9690264e-51
8.7678423e-52
2.1299249e-52
7.3543056e-53
2.5570054e-51
9.6571551e-50
7.9620519e-49
1.1155102e-46
1.6005641e-44
2.1449617e-42
3.1113534e-40
5.0713042e-38
7.3689007e-36
8.9491601e-34
9.5046092e-32
9.1180501e-30
8.0470688e-28
6.6416578e-26
5.1757341e-24
3.803038e-22
2.6719737e-20
2.5821895e-18
8.3017841e-16
7.5182584e-14
7.2532644e-13
1.3530449e-12
5.9091686e-13
1.5700027e-13
7.03972e-13
2.8878261e-12
3.1812856e-12
5.0074332e-13
3.0740675e-14
4.1788893e-13
1.1790174e-10
6.1789438e-09
1.873916e-08
1.5386334e-08
2.9646706e-09
4.5834956e-10
3.3874159e-11
1.4489647e-09
4.3185676e-08
6.2761495e-07
7.7708222e-05
6.9764799e-05
3.0657069e-06
3.1578267e-06
4.0121278e-06
1.8230992e-06
1.640625e-06
1.6191376e-06
1.4890191e-06
1.3381544e-06
5.4997585e-06
1.2497609e-05
2.4603015e-06
1.1408989e-08
8.664139e-10
3.4924361e-11
6.9178756e-12
1.0793278e-12
4.8929412e-14
7.6352503e-15
6.0884299e-16
3.5811335e-18
4.2953289e-22
1.6622919e-24
8.1534274e-27
3.7550374e-29
1.8754122e-31
1.6290973e-33
1.1882904e-35
9.5954156e-38
5.6358136e-40
3.1126171e-42
1.3597667e-44
1.2657895e-46
6.6492517e-47
6.3202102e-47
1.2625952e-47
2.9697027e-48
4.051492e-49
6.432213e-50
1.3957954e-49
2.1982978e-49
2.6736816e-49
3.4821385e-49
4.694778e-49
4.924816e-49
3.3009773e-49
1.2932592e-49
3.6068584e-50
1.2589716e-50
2.3895238e-52
3.1542121e-51
9.8672453e-50
3.9575476e-49
4.2619278e-49
3.6185058e-49
2.3642301e-49
1.0632586e-49
2.6572438e-50
8.6160776e-51
3.8635856e-49
1.4596676e-47
1.2074373e-46
6.9070797e-45
1.1248094e-42
1.7414906e-40
2.4604899e-38
3.1815403e-36
3.7782053e-34
4.0728619e-32
3.9687276e-30
3.5567975e-28
2.9691888e-26
2.3367167e-24
1.7496865e-22
1.2472839e-20
8.4553966e-19
6.8463972e-17
1.7503139e-14
2.0609945e-12
2.5612756e-11
5.5335898e-11
1.3312953e-11
3.5825044e-12
3.6943518e-11
9.3700932e-11
7.8969291e-11
5.1401787e-13
3.2023182e-13
1.1808732e-11
1.2105573e-09
2.0489953e-07
7.907593e-07
2.0511952e-06
1.2204375e-06
6.9419978e-09
4.7584647e-10
6.6772301e-09
3.8761564e-07
1.9080348e-05
7.7708222e-05
3.130647e-06
2.6892468e-06
7.2657388e-06
9.006012e-06
6.4962565e-06
2.2828273e-06
3.1513229e-06
3.3526808e-06
1.0667387e-06
1.408967e-07
2.4735286e-07
1.3129843e-06
7.0690725e-08
9.8859424e-10
1.0659623e-10
1.7047607e-11
1.0633578e-12
1.7184149e-13
6.663336e-14
4.7525817e-15
1.7302767e-17
1.7530004e-19
2.2178842e-22
2.6031687e-25
1.7036899e-27
7.4844611e-30
3.6681483e-32
1.6937572e-34
1.2351916e-36
1.344885e-38
9.654085e-41
4.8187274e-43
7.5904695e-45
6.270353e-45
5.0996127e-45
9.9316274e-46
2.5411229e-46
4.2153595e-47
1.2518849e-47
2.7826936e-47
3.8504401e-47
4.484484e-47
5.4088967e-47
6.8890002e-47
7.0672173e-47
4.4633341e-47
1.7170702e-47
4.7266005e-48
1.6487527e-48
3.988394e-50
3.7635942e-49
1.0724431e-47
4.3516156e-47
4.7339187e-47
4.0514953e-47
2.656691e-47
1.2057782e-47
3.1109261e-48
8.8027875e-49
4.0652667e-47
1.5902116e-45
1.8582925e-44
1.4307449e-43
8.9894429e-42
1.3073075e-39
1.679613e-37
1.9282345e-35
2.0028978e-33
1.9021777e-31
1.6683821e-29
1.3649161e-27
1.0518506e-25
7.7094849e-24
5.4202858e-22
3.6820243e-20
2.4431788e-18
1.8583518e-16
3.6952681e-14
4.3940637e-12
5.4740923e-11
1.121912e-10
5.2593417e-11
3.5915655e-12
1.4814088e-11
6.141905e-11
6.8507504e-11
5.8598108e-11
1.5430625e-11
3.2567212e-10
7.9314779e-09
3.1222399e-06
4.1954516e-05
7.0134251e-05
5.5545313e-05
1.0731634e-05
3.1098322e-09
2.181802e-08
3.5765966e-06
6.4393191e-05
7.7649825e-05
1.4621489e-06
3.0751261e-06
9.1181943e-06
9.1428535e-06
4.7383263e-06
2.4849987e-06
4.1824399e-06
4.1824399e-06
8.1647767e-07
2.1946594e-08
3.1171141e-08
1.7982968e-08
2.0306892e-08
6.4934174e-10
1.193248e-10
1.4434889e-11
5.6769856e-13
2.552444e-13
1.0047063e-13
4.3977444e-15
4.9391717e-17
2.2079868e-18
1.8479791e-20
1.7478914e-24
2.8895828e-27
2.9486811e-29
3.0234661e-31
2.2432251e-33
5.0701467e-35
5.9919739e-37
3.0869181e-39
1.2533366e-41
5.1516822e-43
5.1197586e-43
3.5676745e-43
7.2512312e-44
2.2352652e-44
4.7314595e-45
2.2580997e-45
4.8098563e-45
5.9351064e-45
6.5810912e-45
7.4812968e-45
9.0453803e-45
9.0784573e-45
5.4347146e-45
2.0535526e-45
5.5903253e-46
1.9587203e-46
6.4639656e-48
4.3335526e-47
1.1001824e-45
4.4851009e-45
4.9573289e-45
4.2682696e-45
2.8048361e-45
1.2834453e-45
3.4198779e-46
8.1581778e-47
3.3323591e-45
1.3632516e-43
1.490554e-42
8.1805592e-42
4.2296395e-41
2.5633274e-39
3.2757029e-37
3.7545976e-35
3.8639933e-33
3.6158203e-31
3.1330454e-29
2.5569941e-27
1.954742e-25
1.3957211e-23
1.0141262e-21
8.705539e-20
7.0464773e-18
4.1798634e-16
4.2835116e-14
3.3994381e-12
3.9576133e-11
8.8091295e-11
4.3999114e-11
3.6407232e-12
4.1456356e-12
3.27515e-10
2.1620104e-09
2.1833046e-09
3.209691e-10
2.0354268e-09
9.2887973e-08
5.1596699e-05
8.800064e-05
8.8013946e-05
8.7970801e-05
7.2173391e-05
3.4435002e-07
1.1303723e-07
1.0997024e-05
7.2609948e-05
6.6943745e-05
1.2973916e-06
4.0345037e-06
9.1428535e-06
7.7546078e-06
1.232595e-07
7.9078933e-08
3.1114314e-06
1.0218173e-06
1.1418689e-08
2.9941821e-09
5.3197388e-09
3.1502806e-09
1.4804094e-09
6.8138931e-10
4.2465332e-11
4.377747e-12
4.5128328e-14
4.4120839e-15
2.5034367e-15
2.4942085e-15
6.7896151e-17
5.9593318e-18
7.2122927e-20
4.7174763e-24
3.8287714e-26
8.2836099e-28
7.9502094e-30
1.7745811e-31
1.8424513e-33
1.3607081e-35
5.891573e-38
3.196123e-40
5.2715852e-41
4.0078492e-41
1.5513549e-41
5.7719192e-42
2.392232e-42
6.9096815e-43
3.3673404e-43
7.2870758e-43
8.2393472e-43
8.3995909e-43
9.2683325e-43
1.0712345e-42
1.0450844e-42
5.9780358e-43
2.2200299e-43
5.9915314e-44
2.1190777e-44
1.010767e-45
4.850381e-45
1.0695765e-43
4.3502896e-43
4.9172616e-43
4.2481856e-43
2.7925806e-43
1.2866058e-43
3.536432e-44
7.2031073e-45
2.2087063e-43
9.6714483e-42
1.0351329e-40
5.5292836e-40
1.6350126e-39
1.3959433e-38
1.6509585e-36
1.9488561e-34
2.1871024e-32
2.3238073e-30
2.3114876e-28
2.2583859e-26
2.1077322e-24
2.0082351e-22
2.6868523e-20
2.8361571e-18
1.3197207e-16
8.9118944e-15
1.027296e-12
1.5835215e-11
4.2440314e-11
4.3966968e-11
2.8380729e-11
3.679151e-12
3.6789397e-12
1.1894352e-11
3.7690932e-10
3.8496223e-10
7.5602392e-10
2.9201483e-07
5.0765626e-05
8.7999794e-05
8.8013946e-05
8.7999794e-05
8.71726e-05
6.412489e-05
1.333953e-05
3.1042617e-07
9.4084574e-06
7.2609948e-05
4.2819808e-05
1.2325215e-06
2.1375332e-06
9.0844821e-06
5.5875433e-06
1.6638878e-08
1.2006331e-08
6.1584205e-09
9.5782625e-08
3.5405138e-10
3.5180154e-10
1.7797052e-09
2.5152676e-09
2.1348514e-09
3.3294362e-10
2.5417505e-12
2.4627531e-12
5.2823122e-14
1.4004948e-10
1.2959585e-09
0
9.8786036e-18
-3.9629838e-17
1.4665342e-19
7.4576261e-23
1.6612717e-24
2.0407781e-26
2.8213537e-28
4.1006743e-30
3.0248018e-32
1.8679335e-34
1.0708451e-36
8.4335032e-39
3.6497351e-39
2.467703e-39
9.7247417e-40
5.610411e-40
3.2208247e-40
1.0720324e-40
4.3325244e-41
9.5501547e-41
1.0246051e-40
9.6533295e-41
1.0287898e-40
1.1448609e-40
1.0821974e-40
5.9580953e-41
2.1765341e-41
5.8368269e-42
2.0953673e-42
1.5169249e-43
5.3119043e-43
9.8837375e-42
3.9861895e-41
4.6346706e-41
4.0078341e-41
2.6308096e-41
1.2185403e-41
3.448569e-42
6.1820017e-43
1.2766385e-41
5.9903844e-40
6.3029558e-39
3.4538517e-38
1.2100828e-37
3.5636861e-37
3.3318819e-35
4.1301629e-33
4.58906e-31
5.0078215e-29
5.0576717e-27
5.0713534e-25
6.3304703e-23
1.0664365e-20
1.1906355e-18
5.1120881e-17
1.0846968e-15
4.2643731e-14
4.4150916e-12
6.2197884e-11
1.4207106e-10
1.0500149e-10
2.83789e-11
3.6789988e-12
3.7496032e-12
5.3522736e-12
7.5022106e-12
8.9273505e-11
5.5828927e-10
7.6788448e-07
3.620943e-05
6.605497e-05
5.2860043e-05
1.7688246e-05
1.2753699e-06
3.154304e-06
2.1495314e-05
8.4120156e-07
3.9580932e-06
3.8645585e-05
4.9922544e-05
1.0148172e-06
8.192336e-07
8.4123991e-06
8.393821e-06
1.0308367e-06
6.1584205e-09
4.3808317e-09
3.4256378e-09
2.0820974e-10
1.9914441e-10
5.4161233e-10
1.4552985e-09
1.1772303e-09
1.1221217e-11
4.8974599e-12
2.8830718e-11
1.6765216e-10
1.0869011e-09
3.4670434e-09
-2.1328534e-17
-1.2938386e-16
-1.2222452e-16
1.8319294e-19
4.7023377e-21
2.7766899e-23
3.7654624e-25
3.9448343e-27
4.4708489e-29
5.9604517e-31
3.780637e-33
1.7830858e-35
3.2851712e-37
2.1379266e-37
1.4066982e-37
8.0666262e-38
6.8372049e-38
5.1729836e-38
1.5726711e-38
5.389759e-39
1.0957497e-38
1.1360586e-38
1.0011027e-38
1.02702e-38
1.1057298e-38
1.0128827e-38
5.3954124e-39
1.9411738e-39
5.1869041e-40
1.90049e-40
2.1761914e-41
5.7202386e-41
8.7086483e-40
3.4639228e-39
4.1562265e-39
3.5951127e-39
2.3528423e-39
1.0934636e-39
3.1792925e-40
5.170593e-41
6.7817916e-40
3.3144349e-38
3.4586857e-37
1.8616337e-36
6.455179e-36
1.1760085e-35
6.9432218e-34
9.0123756e-32
1.0176521e-29
1.1230536e-27
1.1633373e-25
1.3561119e-23
2.2694864e-21
3.8214793e-19
2.1025272e-17
3.671343e-16
3.4011416e-15
3.2429231e-14
2.1074631e-12
1.0063182e-10
5.471418e-10
6.7960202e-10
2.8684299e-11
4.260548e-11
7.6842116e-06
6.0840133e-05
5.0133428e-05
5.6074405e-10
9.0979377e-09
2.6766153e-07
1.9969688e-06
1.9778022e-06
3.4890234e-07
4.1819359e-08
4.0266972e-08
2.8122005e-07
1.2211685e-05
9.8296948e-07
3.4484766e-06
2.5078629e-05
5.9196262e-05
6.0839517e-07
4.3635315e-07
2.8453556e-06
8.5445653e-06
7.3700792e-06
1.6771681e-08
2.3217274e-10
2.0785499e-10
1.9913906e-10
1.8141032e-10
1.3011883e-10
6.6765869e-11
4.1422804e-11
1.0915279e-11
5.4504252e-12
8.0867234e-11
5.1919966e-09
1.032403e-08
2.5832372e-09
-1.2800955e-16
-1.884765e-16
-1.0758475e-16
1.4861482e-17
3.0843909e-19
1.1723953e-20
1.3135823e-22
1.3443998e-24
1.0525238e-26
5.7291796e-29
2.1921817e-31
9.1859536e-34
1.6997705e-35
1.1014375e-35
9.0196629e-36
8.922901e-36
1.0000937e-35
7.1908731e-36
2.009366e-36
5.9240236e-37
1.115955e-36
1.1186126e-36
9.2868023e-37
9.267971e-37
9.6826494e-37
8.5880929e-37
4.4519608e-37
1.5797826e-37
4.2190328e-38
1.5869722e-38
2.9753936e-39
6.0698851e-39
7.3349022e-38
2.8625969e-37
3.550174e-37
3.0726896e-37
2.0032809e-37
9.3216244e-38
2.7788487e-38
4.2121202e-39
3.3937418e-38
1.6454689e-36
1.7014825e-35
8.7924671e-35
3.0568858e-34
6.6153087e-34
7.4882117e-33
8.9400065e-31
1.0968398e-28
1.3360496e-26
1.4596374e-24
1.450695e-22
1.8262686e-20
2.207879e-18
1.0332402e-16
1.7422412e-15
1.3926654e-14
5.2947143e-14
1.0023404e-13
1.6339696e-10
4.9408095e-09
8.1204266e-09
2.8908078e-09
1.1720968e-06
5.4615817e-05
7.7722725e-05
7.7678541e-05
7.5397223e-05
3.3738713e-06
3.1133179e-07
3.8417333e-07
2.9435913e-07
2.8853272e-07
4.3926518e-08
4.0072189e-08
3.9729887e-08
3.9680923e-08
2.2277607e-05
5.6785897e-06
2.3214179e-05
6.0068872e-05
1.0784424e-05
3.3370278e-07
1.0005573e-06
8.646994e-06
9.1484306e-06
6.2420725e-06
1.2195594e-06
2.1458005e-06
5.454339e-06
7.437075e-06
6.3693311e-06
1.4976544e-06
1.5555306e-11
1.2157514e-11
9.2529655e-12
6.5243022e-09
1.6709832e-08
1.6440044e-08
8.6416967e-10
-3.2432422e-18
1.3086312e-16
2.3528412e-16
1.0904026e-16
3.8442708e-18
1.3652515e-19
1.2575075e-21
1.3457428e-23
1.1430235e-25
7.0746972e-28
3.182223e-30
6.1810112e-33
8.3036978e-34
7.558895e-34
8.7448615e-34
1.2195872e-33
1.3430645e-33
8.6550302e-34
2.1310673e-34
5.8023576e-35
1.0197078e-34
9.7346441e-35
7.7453996e-35
7.5715098e-35
7.7362091e-35
6.5921855e-35
3.3581659e-35
1.1767469e-35
3.1522483e-36
1.2252375e-36
3.8695575e-37
6.3408031e-37
5.918902e-36
2.2541716e-35
2.8906607e-35
2.505227e-35
1.6277268e-35
7.5721887e-36
2.3080696e-36
3.3414153e-37