/*--------------------------------*- C++ -*----------------------------------*\
  =========                 |
  \\      /  F ield         | OpenFOAM: The Open Source CFD Toolbox
   \\    /   O peration     | Website:  https://openfoam.org
    \\  /    A nd           | Version:  9
     \\/     M anipulation  |
\*---------------------------------------------------------------------------*/
FoamFile
{
    format      ascii;
    class       volScalarField;
    location    "0.65";
    object      p;
}
// * * * * * * * * * * * * * * * * * * * * * * * * * * * * * * * * * * * * * //

dimensions      [1 -1 -2 0 0 0 0];

internalField   nonuniform List<scalar> 
10000
(
0
0.018510953
0.03199586
0.047993078
0.065160354
0.082985372
0.10116764
0.11917428
0.13665656
0.1531326
0.16811709
0.18121221
0.1919113
0.19977943
0.20440055
0.20529569
0.20207432
0.1943697
0.18179069
0.16403437
0.14083122
0.11189369
0.077028167
0.036131103
-0.010861893
-0.063954757
-0.12307887
-0.18813666
-0.25905443
-0.33579105
-0.41808198
-0.50541078
-0.59693782
-0.69161533
-0.78870208
-0.88693651
-0.98169227
-1.0789127
-1.177156
-1.276055
-1.3756471
-1.4762575
-1.5786558
-1.6841482
-1.7945098
-1.9121716
-2.0405142
-2.1838411
-2.3465061
-2.533811
-2.7520098
-3.0070669
-3.303483
-3.642993
-4.0225929
-4.433591
-4.8620815
-5.2912576
-5.7048215
-6.0900131
-6.4384676
-6.749841
-7.0283504
-7.2804556
-7.5111294
-7.7248784
-7.9260666
-8.1183549
-8.3045297
-8.4863591
-8.6649917
-8.8409734
-9.0144813
-9.1852583
-9.3529543
-9.5171105
-9.6771082
-9.8324076
-9.9825305
-10.127057
-10.26556
-10.397682
-10.523219
-10.641988
-10.753903
-10.858939
-10.957083
-11.048356
-11.132854
-11.210746
-11.282226
-11.347472
-11.406653
-11.459887
-11.507327
-11.54915
-11.585603
-11.616941
-11.642733
-11.669424
-0.019492419
-0.00073505558
0.013112303
0.029732843
0.047475181
0.066042671
0.084885047
0.1036666
0.12194038
0.13922047
0.15511874
0.16912885
0.18080665
0.18974731
0.19543692
0.19746288
0.19543326
0.18890345
0.17751688
0.16095239
0.13886608
0.11098196
0.077113852
0.037124146
-0.00908809
-0.061513578
-0.12010059
-0.18475255
-0.25530281
-0.33150064
-0.41296225
-0.49913091
-0.58924271
-0.68243588
-0.77775029
-0.874239
-0.97041871
-1.0674563
-1.1650498
-1.2629938
-1.3613396
-1.4604192
-1.5610182
-1.6644232
-1.7723141
-1.8870116
-2.0118221
-2.1503797
-2.3076026
-2.488922
-2.7012545
-2.9518309
-3.2469152
-3.5902114
-3.9800225
-4.4074348
-4.856464
-5.3068961
-5.739288
-6.1396933
-6.5017081
-6.8221389
-7.1070805
-7.3621816
-7.5931482
-7.8055058
-8.0042335
-8.1933221
-8.3758296
-8.5537932
-8.7284629
-8.9005149
-9.0701833
-9.2373154
-9.4015534
-9.5624383
-9.7194199
-9.8719594
-10.01957
-10.161788
-10.29815
-10.428348
-10.552125
-10.669299
-10.77978
-10.883515
-10.980484
-11.070736
-11.154368
-11.231492
-11.302203
-11.366661
-11.42504
-11.477448
-11.524064
-11.565066
-11.600595
-11.630776
-11.654899
-11.683894
-0.037236067
-0.018050998
-0.0033345394
0.014204006
0.033106679
0.052777303
0.072822267
0.09283901
0.11233194
0.13092748
0.14816043
0.16356868
0.17673491
0.18714837
0.19435143
0.19792401
0.19742535
0.19244152
0.18257502
0.16743678
0.14666902
0.1200022
0.087220794
0.048142877
0.0026687827
-0.04923223
-0.10751932
-0.17206349
-0.242621
-0.31887969
-0.40043096
-0.48671327
-0.57698852
-0.67044022
-0.76623285
-0.86351203
-0.96109141
-1.0590724
-1.1573104
-1.25562
-1.3540247
-1.4528739
-1.5528416
-1.6551324
-1.76137
-1.8737149
-1.9952347
-2.1291969
-2.2811819
-2.4563056
-2.662135
-2.9077106
-3.2020114
-3.5519756
-3.9578854
-4.410153
-4.8888972
-5.3676809
-5.821693
-6.2354006
-6.6023756
-6.9240274
-7.2064625
-7.4562626
-7.6802758
-7.8852005
-8.0767532
-8.2593308
-8.4360397
-8.6090257
-8.7794618
-8.9479867
-9.1146909
-9.2792781
-9.441331
-9.6003384
-9.7556906
-9.906785
-10.053096
-10.194098
-10.329315
-10.458432
-10.581191
-10.697397
-10.806941
-10.909768
-11.005859
-11.095262
-11.178037
-11.254281
-11.324141
-11.387772
-11.445335
-11.496966
-11.542752
-11.582891
-11.61747
-11.646414
-11.669084
-11.698666
-0.059142052
-0.038554466
-0.022579541
-0.003446578
0.016965612
0.038219455
0.059881103
0.08147193
0.10263829
0.12293394
0.14192015
0.15919179
0.17423716
0.18655595
0.19571648
0.20125252
0.20270307
0.1996407
0.19160965
0.17816717
0.15896692
0.13372022
0.10215044
0.06404672
0.019277648
-0.032205809
-0.09034944
-0.15498535
-0.22584867
-0.30260741
-0.38480278
-0.4718235
-0.5629174
-0.6572645
-0.75404592
-0.85239692
-0.95118661
-1.0503302
-1.14949
-1.2483873
-1.3470778
-1.4458951
-1.5454571
-1.6468617
-1.7516374
-1.8617141
-1.9796538
-2.1085143
-2.2532011
-2.4195041
-2.6152618
-2.8519138
-3.1428498
-3.5014867
-3.9313512
-4.4221345
-4.9474626
-5.4692594
-5.9525337
-6.380789
-6.7519373
-7.0721286
-7.3474274
-7.5867679
-7.7989993
-7.9920889
-8.1725272
-8.3451801
-8.5133865
-8.6792594
-8.8439304
-9.0077917
-9.1707311
-9.332309
-9.491885
-9.6488161
-9.8023951
-9.951937
-10.096825
-10.236457
-10.370366
-10.498208
-10.619718
-10.734685
-10.84301
-10.944627
-11.039519
-11.127733
-11.209352
-11.284478
-11.353249
-11.415819
-11.472353
-11.522968
-11.567776
-11.606954
-11.640546
-11.668428
-11.690844
-11.716052
-0.085723985
-0.06242067
-0.044159877
-0.022966284
-0.00050163334
0.022778057
0.046386236
0.06999939
0.093220066
0.11562913
0.13685624
0.15642248
0.17380373
0.18853309
0.20013272
0.20811205
0.21200149
0.21130117
0.20549796
0.19414689
0.17687414
0.15332495
0.1231806
0.086195222
0.042193102
-0.008887924
-0.06697485
-0.13190348
-0.20340702
-0.28111671
-0.36451267
-0.45293089
-0.54560816
-0.64171057
-0.74040214
-0.84113383
-0.9415169
-1.0425105
-1.1433211
-1.2436063
-1.3433496
-1.4428429
-1.5426753
-1.6438439
-1.7477583
-1.8560658
-1.9708164
-2.0947907
-2.231088
-2.38684
-2.5695139
-2.7933487
-3.0774226
-3.4482159
-3.9146045
-4.4656532
-5.0637809
-5.6487102
-6.1670852
-6.6065309
-6.9742549
-7.2822006
-7.540932
-7.7612021
-7.9538732
-8.1286133
-8.2928558
-8.4516231
-8.6083108
-8.7648377
-8.9220734
-9.0800971
-9.2384544
-9.3964201
-9.5531167
-9.7076889
-9.8592569
-10.007037
-10.150294
-10.288345
-10.420716
-10.547055
-10.667087
-10.780584
-10.887437
-10.987571
-11.081005
-11.167785
-11.247999
-11.321733
-11.389165
-11.450445
-11.505738
-11.555134
-11.598775
-11.636812
-11.669302
-11.696071
-11.717911
-11.739202
-0.11627622
-0.089162546
-0.067994989
-0.044100549
-0.019125227
0.0064864569
0.032451436
0.058439108
0.084093335
0.10908826
0.13299271
0.15530592
0.17554396
0.19319815
0.20775021
0.21870576
0.22553294
0.22765869
0.22455326
0.21574058
0.2007692
0.1792195
0.15073235
0.11501861
0.071860596
0.021168176
-0.036997256
-0.10248558
-0.17501779
-0.25416405
-0.33938063
-0.42995036
-0.52508036
-0.62382749
-0.7251013
-0.82764361
-0.93204091
-1.0360341
-1.1394064
-1.2419343
-1.3435453
-1.4445255
-1.5454953
-1.647379
-1.7514474
-1.8590507
-1.971728
-2.091385
-2.2204376
-2.3638918
-2.530154
-2.7358633
-3.0042805
-3.3893202
-3.9082613
-4.5529773
-5.2718562
-5.9518184
-6.5020733
-6.935947
-7.2839226
-7.5666302
-7.7966486
-7.9857051
-8.1480679
-8.2956755
-8.4367415
-8.5764278
-8.7178288
-8.8624578
-9.0106172
-9.1617579
-9.3149267
-9.4689687
-9.6226489
-9.7748113
-9.9243843
-10.070451
-10.212099
-10.348576
-10.479417
-10.604225
-10.722694
-10.834593
-10.939797
-11.038273
-11.130069
-11.215208
-11.293788
-11.36593
-11.431817
-11.49159
-11.545411
-11.593395
-11.635695
-11.672428
-11.703643
-11.729063
-11.750566
-11.768832
-0.15134317
-0.11875507
-0.093688907
-0.066620316
-0.038901364
-0.010632273
0.017969025
0.046646848
0.075160248
0.10314825
0.13016274
0.15574048
0.17936326
0.20047611
0.21854729
0.23302937
0.24331856
0.24880931
0.24893455
0.24313359
0.23087016
0.21167142
0.18512429
0.15087216
0.10865048
0.05833538
-5.2742919e-05
-0.06638241
-0.14034713
-0.22147531
-0.30922748
-0.4028507
-0.50142967
-0.6039343
-0.70920621
-0.81613735
-0.92411792
-1.0318905
-1.1388413
-1.2445767
-1.3490891
-1.4527103
-1.5560059
-1.6598769
-1.7655232
-1.8741005
-1.9866386
-2.1041745
-2.2280499
-2.3611721
-2.5081174
-2.6887301
-2.9166499
-3.3332378
-3.9267447
-4.7071007
-5.6182884
-6.4532182
-7.0155728
-7.4082074
-7.7103962
-7.9494033
-8.1331312
-8.2725174
-8.3888203
-8.4972947
-8.6062026
-8.7202745
-8.8419694
-8.9718475
-9.1091332
-9.2523642
-9.3998191
-9.5497362
-9.7003965
-9.8502511
-9.9979712
-10.1424
-10.282468
-10.417407
-10.546716
-10.669927
-10.786703
-10.896851
-11.000248
-11.09687
-11.186774
-11.270018
-11.346714
-11.417028
-11.481114
-11.539139
-11.59125
-11.637633
-11.678439
-11.713767
-11.743701
-11.76787
-11.788438
-11.804589
-0.19052369
-0.14992168
-0.12048077
-0.090261421
-0.059672544
-0.028621347
0.0028164377
0.034526324
0.06625404
0.097627835
0.12824152
0.1576057
0.1851519
0.21031068
0.23249772
0.25108616
0.26543872
0.27490942
0.27883673
0.2765661
0.26749371
0.25107569
0.22681695
0.19428189
0.15313257
0.10319156
0.044442316
-0.02299728
-0.098824891
-0.18257822
-0.27367523
-0.37132586
-0.47445631
-0.5819005
-0.69245039
-0.80487089
-0.91807712
-1.0309034
-1.1426129
-1.2528476
-1.3616197
-1.4692939
-1.5764175
-1.6838921
-1.7928828
-1.9044716
-2.0193503
-2.1380252
-2.2614804
-2.3892975
-2.5181384
-2.6788623
-2.8243169
-3.3092533
-4.0415667
-5.0994631
-6.2515229
-7.297501
-7.7830486
-8.0704584
-8.2899428
-8.4626957
-8.5751535
-8.6363451
-8.6839409
-8.7370264
-8.8023189
-8.8829715
-8.9799835
-9.0921656
-9.2169513
-9.3514659
-9.4928907
-9.6386443
-9.786388
-9.9341143
-10.080164
-10.223082
-10.361675
-10.495124
-10.622846
-10.744357
-10.859322
-10.967539
-11.0689
-11.163419
-11.251178
-11.332271
-11.406826
-11.475017
-11.537005
-11.593027
-11.643222
-11.687801
-11.726937
-11.76073
-11.789299
-11.812173
-11.831674
-11.84619
-0.21920253
-0.1787651
-0.14731143
-0.11460155
-0.081392169
-0.047569772
-0.013093404
0.021904678
0.057164519
0.092364864
0.12707312
0.16074742
0.19280148
0.22261847
0.24954057
0.27289709
0.29200286
0.30611831
0.31447317
0.31633633
0.31102702
0.29790683
0.27637049
0.24587203
0.20598816
0.15647227
0.097257865
0.028425639
-0.049770522
-0.13685887
-0.23218774
-0.3349249
-0.44387523
-0.55771023
-0.67506703
-0.79446887
-0.91454137
-1.0343026
-1.152219
-1.2685883
-1.3833145
-1.4968483
-1.6097614
-1.7226207
-1.8365604
-1.9530112
-2.0727311
-2.196844
-2.3272468
-2.4581469
-2.5907718
-2.7376726
-2.8578765
-3.3599763
-4.2619255
-6.2147333
-7.7108668
-8.9670627
-8.9054604
-9.0402265
-9.097189
-9.1678643
-9.1592706
-9.0956949
-9.04162
-9.0168188
-9.0238146
-9.0620014
-9.1292666
-9.2211426
-9.3322596
-9.4577265
-9.5932441
-9.7351315
-9.8803006
-10.026235
-10.170874
-10.312464
-10.449727
-10.581759
-10.707898
-10.827633
-10.940634
-11.046706
-11.145805
-11.237964
-11.323289
-11.401896
-11.473995
-11.539773
-11.599408
-11.653131
-11.701169
-11.743718
-11.781003
-11.813107
-11.840104
-11.861875
-11.880246
-11.89338
-0.24720056
-0.20728017
-0.1744688
-0.13981617
-0.10425111
-0.067643853
-0.030011117
0.0084941426
0.047649981
0.087114406
0.12640478
0.16495624
0.20213598
0.2372509
0.26960072
0.29847397
0.3230832
0.34257157
0.35608375
0.36280657
0.36194845
0.35273553
0.33443662
0.30638313
0.26805058
0.2190949
0.15934826
0.088803628
0.0076932552
-0.08346938
-0.18399573
-0.29300905
-0.40927742
-0.53125881
-0.6572466
-0.78547069
-0.91435637
-1.0424862
-1.1695016
-1.2941289
-1.4170135
-1.5388752
-1.6599839
-1.7799711
-1.9000255
-2.0224813
-2.1483034
-2.2792038
-2.4198742
-2.5794413
-2.7767144
-2.9679445
-2.8973112
-3.1209528
-4.0281611
-4.4926989
-5.6248984
-7.1817579
-9.1851076
-10.488661
-10.240674
-10.19136
-9.9419735
-9.6686076
-9.4656968
-9.3352237
-9.2665862
-9.2526813
-9.2857655
-9.355642
-9.4527446
-9.5694778
-9.6996972
-9.838422
-9.9817015
-10.126405
-10.270019
-10.410579
-10.546741
-10.677471
-10.802031
-10.919893
-11.030754
-11.134468
-11.231048
-11.32055
-11.403123
-11.478934
-11.548239
-11.611257
-11.668228
-11.719379
-11.764975
-11.805219
-11.840473
-11.870657
-11.896021
-11.916581
-11.933853
-11.945821
-0.27752552
-0.23645634
-0.20254969
-0.16633213
-0.12858093
-0.089233953
-0.04834718
-0.0060625696
0.03735909
0.081520903
0.12592213
0.16995042
0.21289803
0.2540272
0.29259495
0.32779547
0.35872357
0.38442496
0.40395966
0.41639587
0.42079944
0.4162326
0.40180447
0.37673256
0.34035778
0.29216055
0.23183986
0.15929072
0.074713211
-0.021327094
-0.12808193
-0.2447238
-0.37003862
-0.50226168
-0.63925645
-0.77882168
-0.91915342
-1.058869
-1.1970287
-1.3330858
-1.4670251
-1.6001528
-1.7333002
-1.8636716
-1.9903579
-2.1173703
-2.2456015
-2.3724994
-2.5147413
-2.7298493
-2.8847176
-3.0888728
-3.3809288
-4.6638097
-6.8869261
-10.119357
-12.527238
-13.240724
-12.919621
-11.821695
-12.090966
-12.134228
-11.14383
-10.424764
-9.9620714
-9.6840731
-9.5217247
-9.4473782
-9.4437014
-9.4915656
-9.5755837
-9.6848491
-9.8110959
-9.9478893
-10.090283
-10.23452
-10.377688
-10.517696
-10.653033
-10.782556
-10.905512
-11.021405
-11.12995
-11.231065
-11.324805
-11.411309
-11.49078
-11.563443
-11.629564
-11.689455
-11.743384
-11.791641
-11.834494
-11.872212
-11.905059
-11.933182
-11.956769
-11.975963
-11.992111
-12.003083
-0.31127985
-0.26609982
-0.23189967
-0.19466812
-0.15497829
-0.11292427
-0.068611672
-0.02226228
0.025797669
0.075142356
0.12522298
0.17535216
0.22477916
0.2727315
0.31837775
0.36079028
0.39896674
0.43186502
0.4584233
0.47755516
0.48815866
0.48913543
0.47941136
0.45801675
0.42410516
0.37696148
0.31610989
0.2413543
0.15277222
0.050929306
-0.063190984
-0.18886771
-0.32513928
-0.47015999
-0.62122988
-0.77542364
-0.93048758
-1.0854335
-1.239666
-1.3920616
-1.5391039
-1.6871469
-1.8421545
-1.9875215
-2.1156544
-2.2400865
-2.3595982
-2.4590812
-2.596899
-2.9558712
-2.8770018
-3.8458665
-5.2451518
-10.057028
-14.25525
-17.219303
-19.007286
-19.943955
-19.731689
-15.793183
-13.090767
-14.166766
-12.704629
-11.288262
-10.474193
-10.029813
-9.7690537
-9.6338618
-9.5954785
-9.624051
-9.6976773
-9.8019692
-9.9264023
-10.062987
-10.205815
-10.350603
-10.494102
-10.634088
-10.768864
-10.89729
-11.018618
-11.132383
-11.238384
-11.336633
-11.427221
-11.510364
-11.586309
-11.655411
-11.717944
-11.774302
-11.824789
-11.869777
-11.909501
-11.944336
-11.974576
-12.000427
-12.022065
-12.039701
-12.054648
-12.06469
-0.34760082
-0.29560661
-0.26337414
-0.22579113
-0.18428831
-0.13942085
-0.091466469
-0.040741637
0.012389791
0.067443309
0.12379436
0.18071654
0.237429
0.29308071
0.3467273
0.39734681
0.44384689
0.48506388
0.5197795
0.54674002
0.56466626
0.57227424
0.56828233
0.55146335
0.52070779
0.47507318
0.41388313
0.33680286
0.24368555
0.13501476
0.012310599
-0.1237205
-0.27287382
-0.43372869
-0.60301961
-0.77658951
-0.95098885
-1.1256943
-1.3010823
-1.4725633
-1.6391724
-1.814376
-2.0063951
-2.1701353
-2.2866016
-2.400816
-2.4921143
-2.5195284
-2.5701028
-2.8923048
-2.6475147
-4.0237495
-10.539328
-13.713678
-19.165278
-24.425325
-28.164443
-29.745351
-28.977202
-26.158452
-18.137779
-16.721055
-14.539882
-12.218513
-10.973861
-10.343601
-9.9875289
-9.7992113
-9.7333559
-9.7483695
-9.8162343
-9.919313
-10.044901
-10.183497
-10.328434
-10.474967
-10.619692
-10.760211
-10.894731
-11.022179
-11.141832
-11.253312
-11.356511
-11.451519
-11.538547
-11.617882
-11.689833
-11.754862
-11.81332
-11.865742
-11.912356
-11.953608
-11.989836
-12.021436
-12.048754
-12.072057
-12.091518
-12.107405
-12.121062
-12.13013
-0.37891998
-0.33437101
-0.30006736
-0.261144
-0.21748577
-0.16956934
-0.11769511
-0.062204798
-0.0035225936
0.057785366
0.12105503
0.18554435
0.250406
0.3146884
0.3773591
0.43731258
0.49333926
0.54412452
0.58828706
0.6244079
0.65100976
0.66657105
0.66955611
0.65845287
0.63183909
0.58844815
0.52730034
0.44781036
0.34959861
0.23298848
0.10037294
-0.04732528
-0.2113713
-0.39195096
-0.58525655
-0.7843215
-0.98426853
-1.1858655
-1.3953081
-1.6128626
-1.8212371
-2.0117819
-2.261472
-2.4755723
-2.5677194
-2.6592136
-2.686204
-2.5975816
-2.5044683
-2.3348075
-0.30767984
-5.0938759
-11.926992
-17.207052
-24.086823
-30.750919
-36.033289
-38.43268
-37.476588
-33.420706
-27.169515
-20.647821
-16.198957
-13.031829
-11.388588
-10.595974
-10.158935
-9.9325368
-9.8510182
-9.8607026
-9.9290719
-10.03581
-10.166372
-10.309625
-10.458559
-10.608186
-10.755074
-10.896649
-11.031177
-11.157708
-11.275579
-11.384606
-11.484687
-11.576044
-11.659042
-11.734025
-11.801399
-11.861907
-11.9158
-11.963608
-12.005837
-12.042914
-12.075243
-12.103246
-12.127309
-12.147738
-12.164734
-12.178684
-12.190918
-12.19883
-0.41590291
-0.37748899
-0.34181453
-0.30148234
-0.25547488
-0.20426046
-0.14811629
-0.087436429
-0.022718001
0.045442133
0.11635726
0.18923276
0.2631448
0.33706994
0.40990597
0.48043733
0.54731144
0.60907016
0.66417077
0.71100387
0.74787552
0.77299153
0.78451271
0.78059794
0.75945375
0.71937746
0.6589241
0.57709021
0.47323006
0.34741371
0.20316047
0.042900367
-0.13559342
-0.33727113
-0.56322411
-0.79923069
-1.0359608
-1.2721502
-1.5283851
-1.8120089
-2.0611408
-2.245822
-2.6955022
-3.0612847
-3.0673851
-3.0834396
-2.9706081
-2.7570478
-2.5739925
-1.9490445
0.80406936
-7.9751331
-12.816835
-19.250836
-26.772168
-34.855026
-41.266056
-44.262707
-43.415734
-38.841459
-31.271675
-23.580511
-17.365688
-13.541608
-11.647352
-10.751121
-10.264716
-10.025279
-9.9439142
-9.9586327
-10.035056
-10.150987
-10.291563
-10.442044
-10.596903
-10.751125
-10.901064
-11.044295
-11.179128
-11.30468
-11.420567
-11.526899
-11.623376
-11.710483
-11.788863
-11.858968
-11.921247
-11.976463
-12.025157
-12.067866
-12.105153
-12.137524
-12.165463
-12.189429
-12.209854
-12.227077
-12.24132
-12.253098
-12.263714
-12.270246
-0.46067466
-0.42665916
-0.38904796
-0.34763151
-0.29921313
-0.24441554
-0.18363746
-0.11734733
-0.046069444
0.029594393
0.10891411
0.19102619
0.27496139
0.35964621
0.44388362
0.52633327
0.60551067
0.67982059
0.74756309
0.80691129
0.85592052
0.89251128
0.91451194
0.91969707
0.90578766
0.87049434
0.8117449
0.72792603
0.61778639
0.4809589
0.32251678
0.146953
-0.048010644
-0.26803088
-0.53511638
-0.82005093
-1.1095718
-1.391696
-1.7334955
-2.1933826
-2.6691323
-3.0114283
-2.5739305
-1.7172584
-2.3908091
-3.4979951
-3.3279451
-2.9526793
-2.9395906
0.30686399
-0.0056948238
-7.9581817
-12.843031
-19.239988
-27.06698
-35.720552
-42.320893
-45.486912
-44.857057
-40.381098
-32.529497
-24.253369
-17.635941
-13.579307
-11.682384
-10.769291
-10.291383
-10.071988
-10.009354
-10.04163
-10.134514
-10.264438
-10.423283
-10.582158
-10.744707
-10.904889
-11.058869
-11.204256
-11.339545
-11.463916
-11.577279
-11.680972
-11.773174
-11.855394
-11.928381
-11.992788
-12.049282
-12.098593
-12.141412
-12.178378
-12.210109
-12.237202
-12.260211
-12.27965
-12.295988
-12.309615
-12.320802
-12.330164
-12.338925
-12.343824
-0.51354384
-0.4819615
-0.44400826
-0.40108356
-0.34982524
-0.29108629
-0.22531041
-0.15295941
-0.074550143
0.0092859157
0.097775041
0.19002753
0.28504356
0.38168522
0.47864722
0.57446743
0.66755184
0.75617548
0.83846751
0.91238126
0.97570893
1.026082
1.0609557
1.0776471
1.0733024
1.0448776
0.98943807
0.90450984
0.78749698
0.63734874
0.46164905
0.26959037
0.061733922
-0.14595955
-0.50497631
-0.87790628
-1.2629618
-1.6009743
-2.0761909
-2.6906256
-3.3296685
-2.6347495
-0.88082769
-0.40714826
0.45045934
-1.0060478
-3.7424141
-3.185582
-3.9536975
1.6841155
-1.6045579
-7.375986
-12.080145
-17.603316
-25.119493
-32.669035
-38.967391
-42.382868
-42.032574
-37.643959
-30.372982
-22.666524
-16.63588
-13.100063
-11.441362
-10.636675
-10.237602
-10.07182
-10.048356
-10.112355
-10.231464
-10.383599
-10.554434
-10.729398
-10.903205
-11.071204
-11.230117
-11.377978
-11.513693
-11.636857
-11.747643
-11.846682
-11.934116
-12.010845
-12.077768
-12.13574
-12.185626
-12.228256
-12.264453
-12.294967
-12.320488
-12.341678
-12.359179
-12.373548
-12.385308
-12.394896
-12.402638
-12.409292
-12.415939
-12.41897
-0.57547533
-0.54563578
-0.50692915
-0.46252796
-0.40842387
-0.34542153
-0.27427179
-0.1953957
-0.10929393
-0.016614599
0.081849714
0.18520471
0.29241294
0.40225875
0.5133526
0.62412716
0.73287479
0.83774556
0.93670154
1.027485
1.1076388
1.1745038
1.2251325
1.2563409
1.2646867
1.2461514
1.1965595
1.1121964
0.98730742
0.81866623
0.61783366
0.3996739
0.15820725
0.079897958
-0.39771775
-0.9344033
-1.4474902
-1.7832091
-2.4136131
-3.3165436
-2.4032954
0.056167884
-0.81771753
-1.7460285
-1.8801561
-2.6214063
-4.2845465
-2.9370926
-3.8289024
1.8831021
-2.7014882
-6.3790907
-10.203655
-14.664586
-20.83565
-26.918366
-32.190061
-35.099031
-34.694717
-31.046765
-25.182185
-19.133331
-14.636294
-12.132659
-10.96043
-10.389315
-10.121469
-10.036743
-10.069398
-10.175605
-10.32798
-10.506605
-10.697339
-10.889181
-11.075642
-11.252386
-11.416687
-11.567029
-11.702837
-11.824162
-11.931463
-12.02554
-12.107181
-12.177443
-12.237374
-12.288019
-12.330398
-12.365488
-12.394223
-12.417469
-12.436032
-12.450632
-12.461965
-12.470675
-12.47734
-12.482419
-12.486297
-12.489904
-12.49413
-12.495072
-0.64746682
-0.61890204
-0.57949988
-0.53204384
-0.47646437
-0.40860921
-0.33173196
-0.24591252
-0.15159116
-0.049395919
0.059887366
0.17534024
0.29588108
0.42023656
0.54694709
0.67436139
0.80066336
0.92387413
1.0418046
1.1520125
1.2517959
1.3382394
1.4080318
1.4574835
1.4825925
1.4782382
1.4385713
1.3580019
1.2256823
1.0317113
0.78323687
0.48884644
0.22511399
-0.012620242
-0.53131566
-1.101903
-1.7643641
-1.8260187
-2.5602195
-3.948491
-3.6806573
-3.1439154
-5.815714
-6.6885539
-6.5875634
-6.3639292
-2.733034
-2.1620313
-2.6315662
-1.7349269
-1.5836209
-5.4205534
-8.0853964
-11.532587
-15.544531
-19.966169
-23.681126
-25.732817
-25.414786
-22.906569
-18.982196
-15.10394
-12.397909
-10.992887
-10.369318
-10.082505
-9.9734694
-9.9861674
-10.084527
-10.23929
-10.430299
-10.63969
-10.85451
-11.065056
-11.265261
-11.451265
-11.620945
-11.773392
-11.908608
-12.027173
-12.129973
-12.218155
-12.292936
-12.355602
-12.407453
-12.449728
-12.483596
-12.51021
-12.530603
-12.545739
-12.556519
-12.56376
-12.568193
-12.570573
-12.571556
-12.571594
-12.571157
-12.571348
-12.572832
-12.5715
-0.73029875
-0.7026496
-0.66265879
-0.61345796
-0.55337291
-0.48157131
-0.39898598
-0.30592543
-0.20287899
-0.090498966
0.030438541
0.15899157
0.29403737
0.43425939
0.5781383
0.72395301
0.86980094
1.0135814
1.1529605
1.2853549
1.4078409
1.5172272
1.6100691
1.6823516
1.7293773
1.7449473
1.7217808
1.6522863
1.5177391
1.2953517
0.99167467
0.54831131
0.1659981
-0.64589695
-1.2945323
1.0944598
-0.62269759
-1.5668169
-2.3565986
-4.268132
-6.3719775
-8.1904834
-9.7511055
-10.022843
-9.4107313
-7.935368
-4.3888305
-1.4674181
-0.89889675
-1.0598268
1.7493345
-4.206505
-6.101988
-8.6582309
-10.774199
-13.598893
-15.879672
-17.20543
-17.140471
-15.86821
-13.811804
-11.803761
-10.520772
-9.9814911
-9.8194411
-9.7868314
-9.8288369
-9.9389448
-10.104922
-10.312088
-10.545351
-10.788954
-11.030593
-11.26133
-11.4759
-11.671092
-11.845589
-11.999264
-12.132795
-12.247332
-12.344317
-12.425306
-12.491913
-12.545715
-12.588277
-12.621015
-12.645277
-12.662357
-12.673419
-12.679521
-12.68165
-12.680686
-12.677446
-12.672786
-12.667417
-12.661803
-12.656543
-12.652904
-12.651296
-12.647525
-0.82460235
-0.79780919
-0.75728332
-0.70609637
-0.64249825
-0.56604369
-0.47765004
-0.37704648
-0.26478844
-0.1415704
-0.0081705706
0.13447565
0.28521934
0.44269611
0.60534451
0.77138772
0.93884175
1.105508
1.2689235
1.4263736
1.5747896
1.71078
1.8308457
1.9309737
2.0060193
2.0490447
2.0522035
2.007229
1.8910207
1.6596368
1.2925355
0.75173648
0.25951497
-0.78576048
0.70815361
2.2390239
1.3478628
0.6675789
-2.8265757
-4.6727926
-6.9741649
-9.4919644
-11.477828
-11.650881
-10.506535
-9.0866985
-5.603768
-2.3293536
0.55244031
0.81567875
3.4426564
-2.5371401
-4.0873069
-5.8724471
-7.4980885
-8.7981327
-10.29393
-11.157714
-11.416059
-11.069959
-10.29258
-9.4904327
-9.142447
-9.2178627
-9.4016813
-9.5437608
-9.7040724
-9.8999381
-10.134325
-10.398686
-10.679237
-10.96078
-11.231464
-11.483365
-11.712197
-11.915762
-12.093803
-12.247126
-12.37725
-12.48606
-12.575527
-12.647738
-12.704654
-12.748163
-12.780069
-12.80198
-12.815427
-12.821851
-12.82252
-12.818575
-12.811102
-12.801045
-12.789305
-12.776821
-12.764352
-12.752407
-12.74176
-12.733824
-12.72873
-12.722386
-0.93104335
-0.9055473
-0.864675
-0.81168184
-0.74496437
-0.6639651
-0.56905503
-0.46107891
-0.33917823
-0.20451047
-0.057859796
0.099853945
0.2674687
0.44360487
0.62665687
0.81480024
1.0059595
1.1978587
1.3879614
1.5733913
1.750968
1.9172416
2.0686453
2.201402
2.3106542
2.3895523
2.431403
2.4326447
2.3604587
2.1472835
1.7447289
1.1390848
0.47094698
-0.26310726
-0.55483968
1.7618665
1.4535449
0.55951488
-0.052981509
-5.2562964
-6.8628194
-9.1222254
-10.810048
-10.909094
-9.6617588
-8.1304058
-5.6187517
1.4776477
0.92681734
3.1989955
3.3816349
-0.66883999
-2.4148791
-4.0297841
-5.1652139
-5.902648
-5.753159
-6.2251979
-6.8557246
-7.3071718
-7.5615283
-7.7330441
-7.8674701
-8.2846077
-9.1404416
-9.3729776
-9.5986764
-9.8695984
-10.176159
-10.505553
-10.839914
-11.163294
-11.464677
-11.737798
-11.979727
-12.189786
-12.369104
-12.519654
-12.643978
-12.744764
-12.824623
-12.886102
-12.931578
-12.963194
-12.982948
-12.99266
-12.99403
-12.988603
-12.977735
-12.962673
-12.944575
-12.924471
-12.903339
-12.882165
-12.861757
-12.842714
-12.826033
-12.813278
-12.804232
-12.795101
-1.0505862
-1.0270729
-0.98625397
-0.93180173
-0.86229229
-0.77691371
-0.67590987
-0.55948221
-0.42812818
-0.28148349
-0.12084878
0.052882071
0.23853975
0.4347355
0.63982428
0.85193581
1.068936
1.2884444
1.5078568
1.7241486
1.9339722
2.1338168
2.3200748
2.4892582
2.6373029
2.7582252
2.8488132
2.9083969
2.9031632
2.7449408
2.3465356
1.5792825
0.61352404
-0.32899768
-1.0704894
-0.8212326
-1.5731204
-4.1580596
-2.9498736
-2.1460233
-5.1309607
-7.2115495
-7.9876378
-7.9417142
-6.8226039
-5.4028243
-3.8030263
6.8329077
12.886748
3.0674687
2.8006456
0.35489813
-1.4105217
-2.9893073
-3.7485775
-4.2359814
-4.7400866
-5.2795238
-5.8967426
-6.3716135
-6.4980028
-6.8753226
-7.2327258
-7.4941689
-8.7473066
-9.2274355
-9.5200631
-9.8636283
-10.247201
-10.647926
-11.040909
-11.408262
-11.740302
-12.03297
-12.285185
-12.498306
-12.675263
-12.819528
-12.934845
-13.024736
-13.09247
-13.140993
-13.173033
-13.190963
-13.196953
-13.193021
-13.180974
-13.162438
-13.138873
-13.1116
-13.081813
-13.050636
-13.019123
-12.988316
-12.959058
-12.932056
-12.90856
-12.890228
-12.876242
-12.864254
-1.1845546
-1.1637609
-1.123562
-1.0681065
-0.99623537
-0.90681049
-0.79987908
-0.67547523
-0.53371493
-0.37492645
-0.19965825
-0.0090121778
0.1958567
0.41350573
0.64224943
0.88018929
1.1251657
1.3746538
1.6259004
1.8757751
2.1206846
2.356858
2.5805069
2.7880306
2.9752103
3.136259
3.2681206
3.3951131
3.4762652
3.4211806
3.0330668
2.003422
0.52994628
-0.89625419
-1.8647674
-2.5400915
-3.4734337
-4.2915259
-4.2421263
-4.5566556
-3.9095146
-3.4675947
-5.1510414
-5.0036784
-4.0799901
-2.8370298
-1.2164363
5.98957
11.628404
2.3860635
2.2108407
-0.75845927
-2.4173866
-3.0450063
-2.998318
-2.905645
-3.1646428
-3.635823
-4.3647472
-5.2163337
-6.0461967
-6.6179867
-7.5042843
-8.2412013
-8.7463458
-9.1118221
-9.4781932
-9.9052349
-10.372931
-10.848226
-11.300413
-11.710767
-12.070869
-12.378914
-12.636252
-12.846949
-13.016183
-13.149364
-13.251507
-13.327015
-13.379665
-13.412778
-13.429244
-13.431598
-13.422168
-13.403066
-13.37618
-13.343209
-13.305719
-13.265094
-13.222548
-13.179236
-13.136288
-13.094831
-13.055753
-13.019818
-12.988575
-12.963673
-12.944411
-12.928404
-1.3346818
-1.3171466
-1.2782198
-1.2223768
-1.1487828
-1.0558768
-0.94338142
-0.81116261
-0.65916288
-0.48765338
-0.29720496
-0.088760796
0.13643722
0.3769056
0.63092446
0.89655742
1.1715935
1.453415
1.7390111
2.0250526
2.3076191
2.5823132
2.8446258
3.0900707
3.3123912
3.5049964
3.6793908
3.8280966
3.9464056
3.8906124
3.4422873
2.2785646
0.10750524
-2.2540957
-3.4626245
-3.997377
-4.4253557
-4.9821848
-5.1682058
-5.1773888
-5.1773111
-4.8560881
-3.9293138
-3.4409011
-2.4460724
-1.3869451
-0.037578851
3.2796781
9.6555898
3.3520159
1.0805994
-1.5195897
-2.17496
-4.0702849
-2.5757625
-1.4202475
-1.4015522
-1.9656456
-2.904388
-4.044252
-5.2270459
-6.3809707
-7.3112375
-8.0837722
-8.659645
-9.0741147
-9.5113869
-10.025297
-10.579326
-11.128024
-11.637588
-12.088299
-12.471029
-12.787152
-13.041416
-13.241499
-13.395615
-13.511394
-13.595234
-13.65226
-13.686553
-13.701574
-13.700242
-13.685087
-13.658523
-13.622702
-13.579547
-13.530837
-13.478188
-13.423019
-13.36659
-13.310055
-13.254587
-13.201387
-13.151388
-13.10541
-13.065268
-13.032997
-13.007188
-12.986091
-1.5028191
-1.4887631
-1.4519031
-1.3965569
-1.3221694
-1.2266326
-1.1092125
-0.9695774
-0.80749086
-0.62305366
-0.41684147
-0.18977776
0.056839666
0.32145889
0.60234373
0.89751335
1.2046808
1.5211943
1.843803
2.1687444
2.4915814
2.8068098
3.1082076
3.3891468
3.6379224
3.8321275
3.9642703
4.0380084
3.938606
3.579792
2.983299
1.1210874
0.16051128
-2.717892
-5.2573015
-5.764722
-5.7367573
-5.9609063
-6.167099
-6.095716
-5.6206464
-4.7099547
-3.5757664
-2.2033899
-0.99759275
0.10191478
1.4518525
3.5496756
7.9882022
9.4790538
0.15400069
-1.4103102
-2.8504738
-4.364664
-1.454209
1.053303
1.141543
0.10676946
-1.3307613
-2.8958217
-4.3550414
-5.7318792
-6.9918611
-8.0695433
-8.8078927
-9.204364
-9.6377943
-10.224992
-10.878443
-11.507022
-12.072829
-12.561716
-12.957915
-13.27078
-13.509764
-13.687638
-13.816655
-13.907073
-13.966572
-14.000626
-14.01317
-14.00738
-13.985984
-13.951415
-13.906
-13.851896
-13.791069
-13.72533
-13.656311
-13.585423
-13.513959
-13.443076
-13.37396
-13.307844
-13.245679
-13.188357
-13.138091
-13.097123
-13.063428
-13.035813
-1.6898152
-1.6798713
-1.6463143
-1.5927691
-1.5189067
-1.4219826
-1.3006515
-1.1542901
-0.98240686
-0.78495331
-0.5624796
-0.3160199
-0.046920435
0.24317881
0.55250396
0.87904525
1.2204685
1.5740995
1.936619
2.3037282
2.6701508
3.0288969
3.3711777
3.6872974
3.9591771
4.1296994
4.1068815
3.9628446
3.7716141
2.935674
1.5985428
-1.3498354
-5.864037
-7.6438703
-7.8133237
-8.0254312
-7.0613788
-6.985536
-7.4615511
-7.443933
-6.5302178
-4.8606619
-2.9433249
-1.0679474
0.58165514
1.8574088
3.1027136
2.6861231
7.0219494
8.3518797
4.6459587
0.35910303
-2.0948292
-2.370007
1.2427011
4.6156165
4.5978875
2.6303381
0.60663691
-1.7079399
-3.620219
-5.3802633
-6.8538531