/*--------------------------------*- C++ -*----------------------------------*\
  =========                 |
  \\      /  F ield         | OpenFOAM: The Open Source CFD Toolbox
   \\    /   O peration     | Website:  https://openfoam.org
    \\  /    A nd           | Version:  9
     \\/     M anipulation  |
\*---------------------------------------------------------------------------*/
FoamFile
{
    format      ascii;
    class       volVectorField;
    location    "0.65";
    object      U;
}
// * * * * * * * * * * * * * * * * * * * * * * * * * * * * * * * * * * * * * //

dimensions      [0 1 -1 0 0 0 0];

internalField   nonuniform List<vector> 
10000
(
(-0.0014784066 0.0043735727 0)
(-0.0084136919 0.0044303955 0)
(-0.012424176 0.0044954893 0)
(-0.016994166 0.0045893742 0)
(-0.021538409 0.0046872613 0)
(-0.026214608 0.004794791 0)
(-0.030925666 0.0049070492 0)
(-0.035646623 0.0050224826 0)
(-0.040389759 0.0051356712 0)
(-0.045151749 0.0052500767 0)
(-0.049922681 0.0053571508 0)
(-0.054699996 0.0054561511 0)
(-0.059464801 0.0055521981 0)
(-0.064201215 0.0056348356 0)
(-0.068904252 0.0057030901 0)
(-0.073568417 0.0057574269 0)
(-0.078174465 0.005799579 0)
(-0.082710246 0.0058223184 0)
(-0.087173398 0.0058265283 0)
(-0.091541702 0.0058156 0)
(-0.09579808 0.0057851042 0)
(-0.099966852 0.0057227914 0)
(-0.10402642 0.0056545904 0)
(-0.10795214 0.0055645745 0)
(-0.11174093 0.0054644112 0)
(-0.11536887 0.0053356331 0)
(-0.11882342 0.0051874386 0)
(-0.12206854 0.0050091428 0)
(-0.12506259 0.0047922289 0)
(-0.12775681 0.004523938 0)
(-0.13008018 0.0041771384 0)
(-0.13194965 0.0037208193 0)
(-0.13329427 0.00311406 0)
(-0.13403409 0.0023338208 0)
(-0.13404788 0.0013453963 0)
(-0.13345168 9.8499513e-05 0)
(-0.13200801 -0.0011527881 0)
(-0.12912838 -0.0024796345 0)
(-0.12456371 -0.0039211455 0)
(-0.11809483 -0.0055265891 0)
(-0.10948366 -0.0073059924 0)
(-0.098504491 -0.0092652279 0)
(-0.084942519 -0.01141022 0)
(-0.068641497 -0.013760649 0)
(-0.049418015 -0.016316385 0)
(-0.027136208 -0.018996316 0)
(-0.0019663139 -0.021892794 0)
(0.026759856 -0.024942378 0)
(0.058953421 -0.028192011 0)
(0.093937627 -0.03137751 0)
(0.13166854 -0.034295639 0)
(0.171694 -0.036647326 0)
(0.21319803 -0.038057642 0)
(0.25499699 -0.038145014 0)
(0.29553798 -0.036612027 0)
(0.33303943 -0.033341757 0)
(0.36574265 -0.028461412 0)
(0.39218929 -0.022323532 0)
(0.41140757 -0.015404761 0)
(0.42296328 -0.0081789193 0)
(0.42688008 -0.0009905853 0)
(0.42393555 0.0058336733 0)
(0.41547089 0.012179981 0)
(0.40274918 0.017889865 0)
(0.3868218 0.022830639 0)
(0.36862127 0.026908118 0)
(0.34898821 0.030062544 0)
(0.32861255 0.032277039 0)
(0.3080093 0.033585698 0)
(0.28755869 0.034068611 0)
(0.26753529 0.033842232 0)
(0.24813067 0.03304672 0)
(0.22947564 0.031826873 0)
(0.21165998 0.030316392 0)
(0.19474644 0.02862693 0)
(0.17876892 0.026839139 0)
(0.16372431 0.02501245 0)
(0.14959003 0.023198792 0)
(0.1363306 0.021411903 0)
(0.12399748 0.019728872 0)
(0.11251556 0.018093773 0)
(0.10179942 0.016564621 0)
(0.091855546 0.015115515 0)
(0.082593471 0.013758661 0)
(0.073993353 0.012489067 0)
(0.066015303 0.011311348 0)
(0.058621968 0.010219536 0)
(0.051776638 0.0091973235 0)
(0.045426242 0.0082378863 0)
(0.039511939 0.007344526 0)
(0.034012722 0.0065414661 0)
(0.02892352 0.0058282119 0)
(0.024215817 0.0051762282 0)
(0.019854741 0.0046109576 0)
(0.015792502 0.0041116748 0)
(0.012028993 0.003662944 0)
(0.0086165299 0.0032752993 0)
(0.005382671 0.0029471073 0)
(0.0026107596 0.0026926368 0)
(-0.0012672578 0.0023691582 0)
(-0.0014035852 0.010917835 0)
(-0.0082929253 0.011017551 0)
(-0.012279343 0.011132944 0)
(-0.016822354 0.011280888 0)
(-0.021356262 0.011442114 0)
(-0.026021377 0.01160716 0)
(-0.030726214 0.011774869 0)
(-0.035448918 0.011940756 0)
(-0.040194491 0.012096672 0)
(-0.044963278 0.012238932 0)
(-0.049749616 0.012374452 0)
(-0.05453643 0.012480678 0)
(-0.059314504 0.012575346 0)
(-0.064073287 0.012637675 0)
(-0.068797857 0.012678887 0)
(-0.073479144 0.012687394 0)
(-0.078106275 0.012670617 0)
(-0.082669088 0.012630227 0)
(-0.087154959 0.012563972 0)
(-0.091545599 0.012468827 0)
(-0.095841133 0.012344098 0)
(-0.10003758 0.012181093 0)
(-0.10411926 0.012002428 0)
(-0.10807393 0.011786217 0)
(-0.11190307 0.011540735 0)
(-0.11558518 0.01124548 0)
(-0.11910177 0.010889366 0)
(-0.12243343 0.010455561 0)
(-0.12553654 0.00991055 0)
(-0.12837389 0.0092244622 0)
(-0.1308881 0.008343497 0)
(-0.13301252 0.0072094877 0)
(-0.13467356 0.0057539659 0)
(-0.13579073 0.0039205881 0)
(-0.13627766 0.0016493952 0)
(-0.13596824 -0.0011227809 0)
(-0.13464213 -0.0041836218 0)
(-0.13199949 -0.0076056176 0)
(-0.12776062 -0.011480755 0)
(-0.12167122 -0.015847403 0)
(-0.11344784 -0.02072598 0)
(-0.10284752 -0.026078757 0)
(-0.089655075 -0.031877221 0)
(-0.073695183 -0.038040267 0)
(-0.054724041 -0.044553876 0)
(-0.032657122 -0.051371763 0)
(-0.0077123541 -0.058412194 0)
(0.020814394 -0.065507652 0)
(0.053040852 -0.072811976 0)
(0.088433579 -0.079721392 0)
(0.12704178 -0.085879902 0)
(0.16854331 -0.090649841 0)
(0.21220066 -0.093185466 0)
(0.25676778 -0.092589521 0)
(0.30045238 -0.088149265 0)
(0.3410791 -0.079608342 0)
(0.37645618 -0.067349187 0)
(0.40481073 -0.052325393 0)
(0.42507549 -0.035743541 0)
(0.43696226 -0.018738471 0)
(0.44066262 -0.0021740128 0)
(0.43700208 0.013258327 0)
(0.42734707 0.027034274 0)
(0.41297385 0.038673526 0)
(0.39513092 0.047926374 0)
(0.37495241 0.054831563 0)
(0.35341584 0.059601377 0)
(0.33130342 0.06250709 0)
(0.30919031 0.06383305 0)
(0.28748216 0.063858398 0)
(0.26645355 0.06284679 0)
(0.24628023 0.061042071 0)
(0.22706799 0.05866016 0)
(0.20887431 0.055886405 0)
(0.19172429 0.052873632 0)
(0.17562084 0.049734647 0)
(0.16054608 0.046558149 0)
(0.14643939 0.043410213 0)
(0.13328379 0.040331924 0)
(0.12107942 0.037406048 0)
(0.10972464 0.034571163 0)
(0.099170644 0.031911516 0)
(0.089368393 0.029388389 0)
(0.080253712 0.027015851 0)
(0.071800495 0.024784664 0)
(0.063970219 0.022708568 0)
(0.056703799 0.020762879 0)
(0.049962836 0.018948626 0)
(0.043713162 0.017257647 0)
(0.037928615 0.015699412 0)
(0.032592531 0.014279669 0)
(0.027641602 0.01298845 0)
(0.023070084 0.011815222 0)
(0.018850459 0.010755931 0)
(0.014895423 0.0098111416 0)
(0.011235757 0.0089711015 0)
(0.007931422 0.0082307049 0)
(0.0048188274 0.0075706011 0)
(0.0020628462 0.0070577202 0)
(-0.0016027316 0.0063107694 0)
(-0.0013134663 0.015050503 0)
(-0.0081706464 0.015193645 0)
(-0.012145113 0.01533401 0)
(-0.016668757 0.015523967 0)
(-0.021190388 0.015712385 0)
(-0.025852245 0.01591376 0)
(-0.030556985 0.016106876 0)
(-0.03528566 0.016295148 0)
(-0.040047916 0.016476536 0)
(-0.044826117 0.016630395 0)
(-0.049631032 0.016761118 0)
(-0.054446044 0.016866368 0)
(-0.059253742 0.016937389 0)
(-0.064042964 0.016966152 0)
(-0.068800726 0.016956354 0)
(-0.073524508 0.01689925 0)
(-0.078182794 0.016805452 0)
(-0.082771908 0.016663939 0)
(-0.087293957 0.016482825 0)
(-0.091725202 0.016263754 0)
(-0.096054814 0.016000936 0)
(-0.10028115 0.015701977 0)
(-0.10439832 0.015373099 0)
(-0.10839455 0.014994183 0)
(-0.11226533 0.014571534 0)
(-0.11600479 0.014090968 0)
(-0.11959552 0.013536244 0)
(-0.12302386 0.012890919 0)
(-0.12625876 0.012112764 0)
(-0.12927266 0.011162214 0)
(-0.13202399 0.0099785575 0)
(-0.13444456 0.0084925524 0)
(-0.13645828 0.0066333052 0)
(-0.13797043 0.0043314398 0)
(-0.13886144 0.0015233113 0)
(-0.13897343 -0.0018156629 0)
(-0.13808725 -0.0057551669 0)
(-0.13593303 -0.010317358 0)
(-0.13223742 -0.015599934 0)
(-0.12671491 -0.021607032 0)
(-0.11905496 -0.028336552 0)
(-0.10898728 -0.035796604 0)
(-0.096263349 -0.043905204 0)
(-0.080733533 -0.05257616 0)
(-0.06223642 -0.061768719 0)
(-0.040572882 -0.071483341 0)
(-0.015807773 -0.081565917 0)
(0.012523484 -0.091748203 0)
(0.04481917 -0.10239306 0)
(0.080801065 -0.11270085 0)
(0.12061528 -0.12215102 0)
(0.16423652 -0.12981044 0)
(0.21111444 -0.13430544 0)
(0.25994405 -0.13404762 0)
(0.30851763 -0.1277326 0)
(0.35393217 -0.11484678 0)
(0.39319097 -0.096062775 0)
(0.42399036 -0.073128502 0)
(0.44516956 -0.048164637 0)
(0.45663865 -0.023070501 0)
(0.45883523 0.00062534661 0)
(0.45302215 0.022004455 0)
(0.44092236 0.040290839 0)
(0.42400176 0.05518608 0)
(0.40365683 0.066702486 0)
(0.38114522 0.075051486 0)
(0.35750131 0.080571807 0)
(0.33352617 0.083653899 0)
(0.30981461 0.084703428 0)
(0.28678534 0.084117736 0)
(0.26471219 0.082264878 0)
(0.24375399 0.079474095 0)
(0.22398948 0.076027153 0)
(0.20544665 0.072153919 0)
(0.18810886 0.06803912 0)
(0.17193484 0.063825052 0)
(0.15687136 0.059624606 0)
(0.1428376 0.055493616 0)
(0.12982289 0.05151694 0)
(0.11776923 0.047720398 0)
(0.10657861 0.044115753 0)
(0.096210447 0.040714638 0)
(0.086585269 0.03751102 0)
(0.077649509 0.034516556 0)
(0.069376626 0.031718535 0)
(0.061714841 0.029117773 0)
(0.05461373 0.026699862 0)
(0.048055926 0.024466023 0)
(0.041992454 0.022407326 0)
(0.036378329 0.02051604 0)
(0.031171935 0.018773145 0)
(0.026348046 0.017163285 0)
(0.021888595 0.015709046 0)
(0.01776893 0.014369319 0)
(0.013938325 0.013164637 0)
(0.010395018 0.012095861 0)
(0.0071668882 0.01114976 0)
(0.0041689703 0.010309184 0)
(0.0013613323 0.0096508811 0)
(-0.0020799744 0.0086557647 0)
(-0.0012046451 0.019327165 0)
(-0.0080241031 0.01953147 0)
(-0.011960164 0.019699024 0)
(-0.016461277 0.019944629 0)
(-0.020986825 0.020179342 0)
(-0.025645526 0.020429547 0)
(-0.030362409 0.02067013 0)
(-0.035096466 0.020901865 0)
(-0.039875037 0.021113642 0)
(-0.044691911 0.021297239 0)
(-0.049525355 0.021434786 0)
(-0.054369377 0.021542879 0)
(-0.05921975 0.021604115 0)
(-0.064054315 0.021613586 0)
(-0.068859691 0.021566279 0)
(-0.073619584 0.021470086 0)
(-0.078325535 0.021322944 0)
(-0.082968697 0.021113907 0)
(-0.087524871 0.020855159 0)
(-0.091990032 0.020554001 0)
(-0.096357951 0.020203565 0)
(-0.100613 0.019813138 0)
(-0.1047688 0.019379308 0)
(-0.10881192 0.018901887 0)
(-0.11273876 0.018374271 0)
(-0.116551 0.017782074 0)
(-0.12023277 0.017109284 0)
(-0.12379152 0.01632974 0)
(-0.12720482 0.015386065 0)
(-0.13045126 0.014234108 0)
(-0.13350096 0.012803132 0)
(-0.13629769 0.011002859 0)
(-0.13877019 0.0087449255 0)
(-0.14083247 0.005924575 0)
(-0.14235718 0.0024368413 0)
(-0.14318753 -0.0018082096 0)
(-0.14309397 -0.0069031631 0)
(-0.14179864 -0.012946579 0)
(-0.13899766 -0.020007183 0)
(-0.13433914 -0.028094002 0)
(-0.12753966 -0.037197427 0)
(-0.11827964 -0.04727384 0)
(-0.10626399 -0.058241404 0)
(-0.091359379 -0.069972816 0)
(-0.07340325 -0.082348327 0)
(-0.052228345 -0.095354597 0)
(-0.027771258 -0.10891147 0)
(0.00019204352 -0.12282965 0)
(0.032312365 -0.1373908 0)
(0.068846979 -0.15210127 0)
(0.11010397 -0.16609292 0)
(0.15656843 -0.17812539 0)
(0.20821495 -0.18616971 0)
(0.26371551 -0.1874371 0)
(0.32011147 -0.17953769 0)
(0.37322479 -0.1614197 0)
(0.41860214 -0.13418528 0)
(0.45301761 -0.10100036 0)
(0.47526953 -0.065404403 0)
(0.48571208 -0.030192147 0)
(0.48561201 0.0025063419 0)
(0.47657632 0.031539344 0)
(0.4604201 0.055867339 0)
(0.43921078 0.075095886 0)
(0.41477072 0.089364766 0)
(0.38860786 0.099150756 0)
(0.36187193 0.1051112 0)
(0.33537212 0.10792587 0)
(0.30966049 0.10823146 0)
(0.28509396 0.10660383 0)
(0.26187911 0.10354316 0)
(0.24011282 0.099469367 0)
(0.21981204 0.094729011 0)
(0.20094574 0.089592921 0)
(0.1834535 0.084265912 0)
(0.16726338 0.078905004 0)
(0.15227195 0.073632012 0)
(0.13838335 0.068498789 0)
(0.12556881 0.063608251 0)
(0.1137343 0.058953011 0)
(0.10277283 0.054565701 0)
(0.092619642 0.050430595 0)
(0.083223826 0.046557373 0)
(0.074513677 0.042932676 0)
(0.066453835 0.039565783 0)
(0.059002299 0.036422559 0)
(0.052100669 0.033505565 0)
(0.045716267 0.030791744 0)
(0.039801751 0.028268226 0)
(0.034326043 0.025914579 0)
(0.029266695 0.023732305 0)
(0.024602287 0.021725264 0)
(0.020299343 0.019886225 0)
(0.016325883 0.01821651 0)
(0.012640279 0.016710365 0)
(0.0092422529 0.015358019 0)
(0.0061537475 0.014147772 0)
(0.0033232104 0.013110464 0)
(0.00047271866 0.012258717 0)
(-0.0026688803 0.011093678 0)
(-0.0010479789 0.023778804 0)
(-0.0078219992 0.024063802 0)
(-0.011736036 0.024285547 0)
(-0.016200818 0.024576891 0)
(-0.020722649 0.024875118 0)
(-0.025377446 0.025178569 0)
(-0.030100742 0.025477004 0)
(-0.034858942 0.025755245 0)
(-0.039667476 0.026001276 0)
(-0.044518889 0.026212304 0)
(-0.049397737 0.026376932 0)
(-0.054287472 0.026486901 0)
(-0.059190086 0.026536963 0)
(-0.064084286 0.026525153 0)
(-0.068943627 0.026446769 0)
(-0.073762003 0.02630232 0)
(-0.078527734 0.026086075 0)
(-0.083222554 0.025808383 0)
(-0.08782968 0.025468043 0)
(-0.092345592 0.025071019 0)
(-0.096757877 0.024620312 0)
(-0.10106148 0.024121227 0)
(-0.10526084 0.02357112 0)
(-0.10934788 0.022983378 0)
(-0.11333253 0.022348836 0)
(-0.1172187 0.021655249 0)
(-0.12100001 0.020866455 0)
(-0.12470405 0.019964705 0)
(-0.12831367 0.018893922 0)
(-0.1318123 0.017593109 0)
(-0.13520488 0.015990427 0)
(-0.13844207 0.013950026 0)
(-0.14146389 0.011387381 0)
(-0.14419227 0.0081373947 0)
(-0.14649312 0.0040753586 0)
(-0.14819962 -0.00094953079 0)
(-0.14910878 -0.0070563038 0)
(-0.14893233 -0.014403392 0)
(-0.14729788 -0.023057719 0)
(-0.14383777 -0.033106032 0)
(-0.13818952 -0.044548301 0)
(-0.12999263 -0.057223267 0)
(-0.11893208 -0.071024735 0)
(-0.10482316 -0.085773052 0)
(-0.087587173 -0.10131975 0)
(-0.067093603 -0.11761235 0)
(-0.043240529 -0.13465034 0)
(-0.015890377 -0.1524571 0)
(0.015629544 -0.17112018 0)
(0.052185159 -0.19080561 0)
(0.094662681 -0.21059771 0)
(0.1444304 -0.22899761 0)
(0.20249525 -0.24313747 0)
(0.26731208 -0.24795899 0)
(0.33502452 -0.23916972 0)
(0.39954877 -0.21463058 0)
(0.45386681 -0.1759219 0)
(0.49323437 -0.12907727 0)
(0.51663116 -0.080105932 0)
(0.5251952 -0.032803039 0)
(0.52100494 0.010285267 0)
(0.50660106 0.047465829 0)
(0.48456711 0.077704888 0)
(0.45752174 0.10074104 0)
(0.42769677 0.11709962 0)
(0.39685023 0.12768411 0)
(0.36622169 0.1334984 0)
(0.33659972 0.13550466 0)
(0.30847364 0.13457221 0)
(0.28211637 0.13145859 0)
(0.25763047 0.12679791 0)
(0.23500975 0.1211022 0)
(0.21418315 0.11477736 0)
(0.19504268 0.10813378 0)
(0.17746376 0.1013969 0)
(0.16132802 0.094730546 0)
(0.14647824 0.088235775 0)
(0.13281661 0.081993733 0)
(0.12028669 0.076080056 0)
(0.1087325 0.07048719 0)
(0.098058261 0.065219576 0)
(0.088200286 0.060284749 0)
(0.079084561 0.055673466 0)
(0.070653404 0.051364306 0)
(0.062860479 0.047360933 0)
(0.055646334 0.043622597 0)
(0.0489752 0.040137233 0)
(0.042810897 0.03689859 0)
(0.037109126 0.033887948 0)
(0.031840864 0.031100998 0)
(0.026984978 0.028532741 0)
(0.022507431 0.026170148 0)
(0.018386495 0.023999163 0)
(0.014597835 0.022026177 0)
(0.011083992 0.020241698 0)
(0.0078433583 0.018641563 0)
(0.00491858 0.017212711 0)
(0.0022725855 0.015971244 0)
(-0.00057500173 0.01492582 0)
(-0.0033422393 0.013645366 0)
(-0.00084444553 0.028026057 0)
(-0.0075453244 0.028418238 0)
(-0.011440292 0.028712011 0)
(-0.015873325 0.029082105 0)
(-0.020391376 0.029458967 0)
(-0.025046782 0.029833089 0)
(-0.029788704 0.030196277 0)
(-0.034575369 0.030530966 0)
(-0.039418738 0.030830986 0)
(-0.044314278 0.031082417 0)
(-0.04924685 0.031274839 0)
(-0.054203527 0.031400813 0)
(-0.05917271 0.031448113 0)
(-0.064131912 0.031422724 0)
(-0.069065792 0.031312545 0)
(-0.073959925 0.031113773 0)
(-0.078795144 0.030835724 0)
(-0.083557925 0.030480371 0)
(-0.088227853 0.03004819 0)
(-0.0927981 0.029548213 0)
(-0.097262615 0.02898857 0)
(-0.10161195 0.028374064 0)
(-0.1058519 0.02771698 0)
(-0.10997681 0.027023722 0)
(-0.11400768 0.026286076 0)
(-0.11797305 0.025497887 0)
(-0.12186131 0.024632394 0)
(-0.12570078 0.023665069 0)
(-0.12950985 0.022540117 0)
(-0.13327889 0.021171199 0)
(-0.1370561 0.019490127 0)
(-0.1407964 0.01733072 0)
(-0.14446269 0.014578907 0)
(-0.1480033 0.011051496 0)
(-0.15127659 0.0065612543 0)
(-0.15412251 0.00090188649 0)
(-0.15632323 -0.0061112716 0)
(-0.15754944 -0.014675879 0)
(-0.1574301 -0.024970587 0)
(-0.15553986 -0.037054586 0)
(-0.15135357 -0.050883159 0)
(-0.1444479 -0.066327828 0)
(-0.13451608 -0.083147591 0)
(-0.1213733 -0.1010569 0)
(-0.10497193 -0.11985849 0)
(-0.085293625 -0.13944397 0)
(-0.062360969 -0.15991906 0)
(-0.036041823 -0.18156709 0)
(-0.0058138944 -0.20470479 0)
(0.029599986 -0.22994544 0)
(0.072340217 -0.25744994 0)
(0.12499534 -0.28549284 0)
(0.18890517 -0.30990747 0)
(0.26437219 -0.32093093 0)
(0.34816532 -0.31291793 0)
(0.43060463 -0.28107868 0)
(0.49855225 -0.22680708 0)
(0.54446418 -0.16145159 0)
(0.56920896 -0.095138403 0)
(0.57562601 -0.032661981 0)
(0.56614822 0.022551425 0)
(0.5443237 0.068950025 0)
(0.51395966 0.10556142 0)
(0.47882587 0.13228541 0)
(0.44188991 0.15015101 0)
(0.40513201 0.16070535 0)
(0.36977409 0.16548579 0)
(0.33650005 0.16583708 0)
(0.30565877 0.16291598 0)
(0.27736749 0.15768579 0)
(0.25157579 0.15091281 0)
(0.22814082 0.14319196 0)
(0.20687654 0.1349728 0)
(0.18757835 0.12658537 0)
(0.17004332 0.11825989 0)
(0.15407828 0.11016062 0)
(0.13948888 0.1023614 0)
(0.12617852 0.094970389 0)
(0.11401824 0.088001729 0)
(0.10282485 0.081455743 0)
(0.092518536 0.075325796 0)
(0.083024444 0.069611794 0)
(0.07425544 0.064279624 0)
(0.066157867 0.059325147 0)
(0.058672301 0.054711947 0)
(0.051741576 0.050416718 0)
(0.04534377 0.046411747 0)
(0.039439454 0.042693102 0)
(0.033981017 0.039237023 0)
(0.028953749 0.036035686 0)
(0.024322078 0.033069194 0)
(0.020057556 0.0303346 0)
(0.016146417 0.02782311 0)
(0.012560156 0.025525791 0)
(0.0092505772 0.023445505 0)
(0.0062155761 0.021581424 0)
(0.0034745668 0.019929383 0)
(0.0010190622 0.018484766 0)
(-0.001755116 0.017255912 0)
(-0.0040806415 0.015847423 0)
(-0.00057319665 0.032231595 0)
(-0.0071781018 0.032766164 0)
(-0.011065633 0.03315065 0)
(-0.015457634 0.03361158 0)
(-0.019980787 0.034081308 0)
(-0.024647095 0.03453531 0)
(-0.029410182 0.034970797 0)
(-0.034231265 0.035375604 0)
(-0.039120912 0.03573433 0)
(-0.044077146 0.036035449 0)
(-0.049077894 0.036260375 0)
(-0.054109108 0.036403182 0)
(-0.059158546 0.036456283 0)
(-0.064205088 0.036416126 0)
(-0.069232446 0.0362721 0)
(-0.074212406 0.036025983 0)
(-0.079128285 0.03567676 0)
(-0.083970975 0.03523564 0)
(-0.088715168 0.034703673 0)
(-0.09335022 0.034094465 0)
(-0.09786928 0.033422029 0)
(-0.10226259 0.032697307 0)
(-0.10653384 0.031927206 0)
(-0.11069547 0.03113198 0)
(-0.11476981 0.030302967 0)
(-0.11878129 0.029444128 0)
(-0.1227409 0.028546401 0)
(-0.12670438 0.027572421 0)
(-0.1307156 0.026456819 0)
(-0.13476342 0.025122374 0)
(-0.13893594 0.023461096 0)
(-0.14322822 0.02134465 0)
(-0.14760334 0.018568758 0)
(-0.15205061 0.014959142 0)
(-0.15645594 0.010250867 0)
(-0.16065583 0.0041737663 0)
(-0.16444838 -0.0035630885 0)
(-0.16753369 -0.013186282 0)
(-0.16940273 -0.025011681 0)
(-0.16946023 -0.039148529 0)
(-0.16715285 -0.055516626 0)
(-0.16192503 -0.073948818 0)
(-0.1533191 -0.094052406 0)
(-0.14119715 -0.11534711 0)
(-0.12562847 -0.13747788 0)
(-0.10679876 -0.16029025 0)
(-0.085011439 -0.18395927 0)
(-0.060361379 -0.20905011 0)
(-0.032413821 -0.2365423 0)
(0.00011662525 -0.26792354 0)
(0.040292957 -0.30492275 0)
(0.089826421 -0.34427038 0)
(0.15437978 -0.38394397 0)
(0.2482084 -0.40775712 0)
(0.36262581 -0.40562192 0)
(0.47842774 -0.36453316 0)
(0.56805186 -0.28570767 0)
(0.61871532 -0.19547343 0)
(0.63881089 -0.10909289 0)
(0.6383697 -0.028155343 0)
(0.62123152 0.042562945 0)
(0.58987143 0.10031434 0)
(0.54839373 0.14341769 0)
(0.5024206 0.17262553 0)
(0.45631387 0.19045332 0)
(0.41233738 0.19949895 0)
(0.37147577 0.20191109 0)
(0.33413087 0.19944263 0)
(0.30041318 0.19356043 0)
(0.27020001 0.18543542 0)
(0.2432178 0.17594763 0)
(0.21913729 0.16574514 0)
(0.19762175 0.15529561 0)
(0.17835149 0.14492446 0)
(0.16104171 0.13484569 0)
(0.14541827 0.12519697 0)
(0.13125868 0.11604168 0)
(0.11843825 0.10746832 0)
(0.10675306 0.099433967 0)
(0.096030025 0.091946124 0)
(0.086184824 0.084974954 0)
(0.077125065 0.078506583 0)
(0.0687702 0.072493552 0)
(0.061061742 0.066914059 0)
(0.053928574 0.06172461 0)
(0.047327629 0.056899691 0)
(0.041239717 0.052411865 0)
(0.035626477 0.048234208 0)
(0.030441692 0.044353684 0)
(0.025667139 0.040745312 0)
(0.021282118 0.037398459 0)
(0.01726292 0.034306154 0)
(0.013582367 0.031458875 0)
(0.010224249 0.028855158 0)
(0.0071470497 0.026494361 0)
(0.0043421906 0.024367759 0)
(0.0018227039 0.022481641 0)
(-0.00041493093 0.02086227 0)
(-0.0030787515 0.019462174 0)
(-0.0049090127 0.017894475 0)
(-0.00021576969 0.036330803 0)
(-0.0066785152 0.037061828 0)
(-0.010586874 0.037563072 0)
(-0.014944331 0.038138838 0)
(-0.019474881 0.038707596 0)
(-0.024162113 0.039258028 0)
(-0.02895271 0.039782169 0)
(-0.033817135 0.04026911 0)
(-0.038762362 0.040697304 0)
(-0.043788555 0.041055612 0)
(-0.048874766 0.04132848 0)
(-0.053998426 0.041500016 0)
(-0.059145485 0.041562596 0)
(-0.064296438 0.04150819 0)
(-0.069429299 0.041332135 0)
(-0.074521022 0.041035561 0)
(-0.079543443 0.040612653 0)
(-0.084481204 0.040075988 0)
(-0.089310671 0.039433917 0)
(-0.094012134 0.038703183 0)
(-0.098582523 0.037902461 0)
(-0.10302026 0.037045658 0)
(-0.10732211 0.036158994 0)
(-0.11149921 0.035259008 0)
(-0.11558799 0.034354384 0)
(-0.11961839 0.033454101 0)
(-0.1236197 0.03254748 0)
(-0.12767603 0.031603656 0)
(-0.13184236 0.030576727 0)
(-0.13614841 0.029378162 0)
(-0.14069299 0.027888745 0)
(-0.14553383 0.02599177 0)
(-0.15067548 0.023408744 0)
(-0.15612595 0.019938601 0)
(-0.16183785 0.015267518 0)
(-0.16768169 0.0090348473 0)
(-0.17340342 0.00083946562 0)
(-0.17869852 -0.009695826 0)
(-0.18306497 -0.022907626 0)
(-0.1856882 -0.039095399 0)
(-0.18578382 -0.058226504 0)
(-0.18260082 -0.079965923 0)
(-0.1755245 -0.103703 0)
(-0.16441913 -0.12873738 0)
(-0.14950596 -0.15435067 0)
(-0.13133758 -0.18019024 0)
(-0.11069799 -0.20648029 0)
(-0.088202271 -0.23413411 0)
(-0.064012609 -0.26499068 0)
(-0.037729736 -0.30180821 0)
(-0.0077391908 -0.34556497 0)
(0.024172301 -0.39526264 0)
(0.1063808 -0.46870804 0)
(0.2600865 -0.5277651 0)
(0.43744015 -0.54234496 0)
(0.60684308 -0.48645232 0)
(0.72234679 -0.34925289 0)
(0.76654223 -0.21573351 0)
(0.76304196 -0.10888433 0)
(0.7343514 -0.012929047 0)
(0.69283489 0.072148994 0)
(0.64354681 0.14296923 0)
(0.58666512 0.19324502 0)
(0.52680182 0.22388798 0)
(0.46938787 0.23969552 0)
(0.41693425 0.24515975 0)
(0.36994317 0.24340657 0)
(0.32832395 0.23663662 0)
(0.29180251 0.22661837 0)
(0.25989126 0.21470171 0)
(0.23200516 0.20183317 0)
(0.20758447 0.18866604 0)
(0.18611929 0.1756454 0)
(0.16715842 0.16306098 0)
(0.15031995 0.15108213 0)
(0.13525785 0.13979641 0)
(0.12173895 0.129253 0)
(0.10956136 0.11946183 0)
(0.098479135 0.11036891 0)
(0.088342817 0.10196056 0)
(0.079055426 0.094176967 0)
(0.070518823 0.08698226 0)
(0.062642361 0.08032379 0)
(0.055370479 0.074146111 0)
(0.04863995 0.06840927 0)
(0.042414173 0.063078523 0)
(0.036670052 0.058124393 0)
(0.031371963 0.053503463 0)
(0.02648281 0.049205161 0)
(0.021991619 0.045202488 0)
(0.017879065 0.041489924 0)
(0.014116769 0.038047337 0)
(0.010696748 0.034873249 0)
(0.0075952516 0.031964232 0)
(0.0047662207 0.029317683 0)
(0.0022144025 0.026932609 0)
(-3.3002335e-05 0.024822325 0)
(-0.0020246524 0.022996935 0)
(-0.0045597619 0.021434946 0)
(-0.0058493702 0.019693989 0)
(0.00026505604 0.040430412 0)
(-0.0060096861 0.041338712 0)
(-0.0099796658 0.041958594 0)
(-0.014314211 0.042669348 0)
(-0.018867576 0.04333929 0)
(-0.023575146 0.044002014 0)
(-0.028401305 0.044631937 0)
(-0.033319404 0.045213148 0)
(-0.03833591 0.045727566 0)
(-0.043443426 0.046153917 0)
(-0.048626269 0.046485027 0)
(-0.053861917 0.046695324 0)
(-0.059131114 0.046775161 0)
(-0.064410123 0.046714656 0)
(-0.069672197 0.046505747 0)
(-0.074890581 0.046151841 0)
(-0.08003761 0.045653608 0)
(-0.085090237 0.045012248 0)
(-0.090018729 0.044250764 0)
(-0.094801377 0.043380325 0)
(-0.099435475 0.042427904 0)
(-0.10390448 0.041419393 0)
(-0.10820974 0.040394985 0)
(-0.11238029 0.039382993 0)
(-0.1164468 0.038393051 0)
(-0.12045385 0.037462557 0)
(-0.12445306 0.036581649 0)
(-0.12853362 0.035728494 0)
(-0.13279298 0.034874626 0)
(-0.13729206 0.033930312 0)
(-0.1421433 0.032791902 0)
(-0.14751223 0.031279384 0)
(-0.15343993 0.02917133 0)
(-0.15995139 0.026132516 0)
(-0.1670863 0.021833514 0)
(-0.17477127 0.015846371 0)
(-0.18283584 0.0076264223 0)
(-0.1909139 -0.0034871978 0)
(-0.19839962 -0.017960268 0)
(-0.20433903 -0.036208217 0)
(-0.20756438 -0.058397286 0)
(-0.20693102 -0.083993037 0)
(-0.20161656 -0.11204167 0)
(-0.1913631 -0.14138902 0)
(-0.17656553 -0.17076658 0)
(-0.1583681 -0.19938007 0)
(-0.1382917 -0.22739784 0)
(-0.11785497 -0.25606658 0)
(-0.099148777 -0.28736306 0)
(-0.085557705 -0.32255432 0)
(-0.078393341 -0.36552472 0)
(-0.046594886 -0.4473587 0)
(0.14163258 -0.62550417 0)
(0.40192157 -0.72138745 0)
(0.65532161 -0.74586511 0)
(0.87007374 -0.65998143 0)
(0.99891425 -0.42295883 0)
(1.0251945 -0.2075793 0)
(0.98111236 -0.070776171 0)
(0.90634931 0.044268614 0)
(0.81298396 0.13538778 0)
(0.71677115 0.21026155 0)
(0.62798959 0.26064458 0)
(0.54907597 0.28862278 0)
(0.47872021 0.29944519 0)
(0.41686609 0.29856703 0)
(0.36340755 0.29025332 0)
(0.3176462 0.27732724 0)
(0.27872382 0.26180853 0)
(0.24562276 0.24511245 0)
(0.21735215 0.22816403 0)
(0.19307694 0.21155674 0)
(0.17209762 0.19565739 0)
(0.15382383 0.18066256 0)
(0.13777898 0.16667367 0)
(0.12356634 0.15370584 0)
(0.110912 0.14176551 0)
(0.099541952 0.13076105 0)
(0.089224231 0.12063991 0)
(0.079803514 0.1113547 0)
(0.071174644 0.10281108 0)
(0.063240128 0.094935049 0)
(0.055905473 0.087668591 0)
(0.04911993 0.080937353 0)
(0.042836822 0.074692303 0)
(0.037023496 0.068890309 0)
(0.031649391 0.063487584 0)
(0.026691642 0.058446175 0)
(0.022127734 0.053745329 0)
(0.017941118 0.049368699 0)
(0.014119288 0.045292325 0)
(0.010642044 0.041507259 0)
(0.0074993656 0.038013115 0)
(0.0046689507 0.034798847 0)
(0.0021192981 0.031870092 0)
(-0.00014270154 0.029230281 0)
(-0.0021113229 0.026891793 0)
(-0.0038328386 0.024836688 0)
(-0.00618162 0.023116898 0)
(-0.0069012281 0.021210698 0)
(0.00081552217 0.044570244 0)
(-0.0052279835 0.045623217 0)
(-0.0092470784 0.046360254 0)
(-0.013566016 0.047199389 0)
(-0.018147711 0.047996275 0)
(-0.022871475 0.048780117 0)
(-0.027743021 0.04953066 0)
(-0.032723013 0.050222836 0)
(-0.037821885 0.050843842 0)
(-0.043026982 0.051359639 0)
(-0.048324129 0.051758609 0)
(-0.053692593 0.052019423 0)
(-0.059103272 0.05212717 0)
(-0.064535236 0.052067971 0)
(-0.069953647 0.051831769 0)
(-0.075325302 0.0514158 0)
(-0.080624143 0.050825214 0)
(-0.085813158 0.050070271 0)
(-0.090860046 0.049163678 0)
(-0.095740229 0.048130027 0)
(-0.10043639 0.04700071 0)
(-0.10493334 0.045826276 0)
(-0.10922619 0.044632171 0)
(-0.11335761 0.043466032 0)
(-0.11735414 0.042383239 0)
(-0.1212664 0.041424524 0)
(-0.12518379 0.04058231 0)
(-0.12920694 0.039876597 0)
(-0.13345683 0.039272609 0)
(-0.13802943 0.03870346 0)
(-0.14311803 0.038059258 0)
(-0.14890333 0.037167607 0)
(-0.1555502 0.035846743 0)
(-0.16316685 0.033609821 0)
(-0.17179493 0.030102688 0)
(-0.18151441 0.024870913 0)
(-0.1923164 0.017159471 0)
(-0.20382837 0.0060358127 0)
(-0.21528709 -0.0093728946 0)
(-0.22558613 -0.029684284 0)
(-0.23299068 -0.055292276 0)
(-0.23565928 -0.085562456 0)
(-0.23232992 -0.11897501 0)
(-0.22249141 -0.15360694 0)
(-0.20679192 -0.187422 0)
(-0.18710274 -0.2187998 0)
(-0.16592201 -0.24760133 0)
(-0.14636852 -0.27466917 0)
(-0.13452964 -0.29869953 0)
(-0.14023587 -0.32159029 0)
(-0.14369073 -0.38948814 0)
(0.0032325898 -0.58925441 0)
(0.35419061 -0.9309131 0)
(0.68757555 -1.0135105 0)
(0.96883625 -0.99839015 0)
(1.1728891 -0.83226876 0)
(1.3005399 -0.51789526 0)
(1.372072 -0.22417642 0)
(1.3385595 0.0022426294 0)
(1.1976106 0.16693637 0)
(1.0176516 0.27331507 0)
(0.83552867 0.3392769 0)
(0.67843071 0.36330583 0)
(0.56430185 0.37171732 0)
(0.47923532 0.37067389 0)
(0.40899676 0.36009505 0)
(0.34963184 0.34239857 0)
(0.30039528 0.32104115 0)
(0.25995582 0.29847013 0)
(0.22654868 0.27599069 0)
(0.19868837 0.25431617 0)
(0.17525099 0.23386394 0)
(0.15533214 0.21484801 0)
(0.13822214 0.19732222 0)
(0.12337399 0.18127918 0)
(0.11034101 0.16663769 0)
(0.098795271 0.15332611 0)
(0.088423678 0.14116777 0)
(0.079045776 0.13010372 0)
(0.070476421 0.11999986 0)
(0.062601122 0.11076258 0)
(0.055342677 0.1022769 0)
(0.04861341 0.094460653 0)
(0.042366054 0.087233404 0)
(0.036569107 0.080530516 0)
(0.031193058 0.074294263 0)
(0.026210337 0.068480731 0)
(0.021613069 0.063049981 0)
(0.017391772 0.057976898 0)
(0.013527674 0.053232914 0)
(0.010010762 0.04880364 0)
(0.0068360345 0.044681166 0)
(0.0039911317 0.04086584 0)
(0.0014546994 0.037349457 0)
(-0.00079487793 0.034139684 0)
(-0.0027515209 0.031240467 0)
(-0.0044169081 0.028655901 0)
(-0.0058315354 0.026391569 0)
(-0.0079442626 0.02449339 0)
(-0.0080676816 0.022416294 0)
(0.0014589802 0.048663645 0)
(-0.0043137391 0.049904448 0)
(-0.0083944157 0.050766643 0)
(-0.012682706 0.051734544 0)
(-0.017293028 0.052679728 0)
(-0.022042389 0.053598866 0)
(-0.026960003 0.054487267 0)
(-0.032007123 0.0553126 0)
(-0.037197622 0.056055954 0)
(-0.042522764 0.056681024 0)
(-0.047954902 0.057168204 0)
(-0.053475141 0.057496647 0)
(-0.059056233 0.057641177 0)
(-0.064669997 0.057587843 0)
(-0.070279143 0.057324266 0)
(-0.075841374 0.056845847 0)
(-0.081315432 0.056156363 0)
(-0.086670277 0.055266331 0)
(-0.091862458 0.054188431 0)
(-0.096852917 0.052962689 0)
(-0.10161194 0.051626697 0)
(-0.10613075 0.050231722 0)
(-0.11041276 0.048831601 0)
(-0.11445801 0.047479283 0)
(-0.11830358 0.046267851 0)
(-0.12205784 0.045245455 0)
(-0.12579325 0.044454099 0)
(-0.12962644 0.043922955 0)
(-0.13373623 0.043654322 0)
(-0.13824904 0.043559502 0)
(-0.14339258 0.043534034 0)
(-0.1494002 0.043548626 0)
(-0.15664599 0.043386244 0)
(-0.16531758 0.042417279 0)
(-0.17542048 0.040215002 0)
(-0.18727719 0.036370133 0)
(-0.20118489 0.029931751 0)
(-0.21691349 0.01963348 0)
(-0.23355097 0.0039878829 0)
(-0.24963835 -0.018278511 0)
(-0.26274655 -0.047844332 0)
(-0.26983907 -0.084043062 0)
(-0.26870281 -0.12447058 0)
(-0.25868706 -0.16641464 0)
(-0.24056674 -0.20632997 0)
(-0.2169288 -0.24092055 0)
(-0.1919127 -0.26917201 0)