/*--------------------------------*- C++ -*----------------------------------*\
  =========                 |
  \\      /  F ield         | OpenFOAM: The Open Source CFD Toolbox
   \\    /   O peration     | Website:  https://openfoam.org
    \\  /    A nd           | Version:  9
     \\/     M anipulation  |
\*---------------------------------------------------------------------------*/
FoamFile
{
    format      ascii;
    class       volScalarField;
    location    "0.007";
    object      mag(U);
}
// * * * * * * * * * * * * * * * * * * * * * * * * * * * * * * * * * * * * * //

dimensions      [0 1 -1 0 0 0 0];

internalField   nonuniform List<scalar> 
100
(
5.75314e-09
2.64911e-08
9.70604e-08
3.49244e-07
1.22324e-06
4.16922e-06
1.3814e-05
4.44475e-05
0.00013872
0.000419413
0.00122672
0.00346556
0.00943977
0.0247427
0.0622642
0.150033
0.345119
0.755257
1.56654
3.06352
5.58694
9.35141
14.3731
20.5884
27.8699
36.0216
44.8362
54.1328
63.7717
73.6511
83.6981
93.8601
104.098
114.379
124.684
134.97
145.262
155.449
165.636
175.678
185.59
195.431
205.023
214.406
223.588
232.437
240.912
249.009
256.62
263.63
270.032
275.729
280.723
284.735
287.786
290.21
291.839
292.871
293.392
293.5
293.54
293.561
293.597
293.664
293.736
293.815
293.971
294.263
294.322
293.962
293.527
293.233
293.146
293.152
293.13
293.048
292.879
292.579
292.179
291.788
291.371
290.807
290.207
289.66
288.667
286.435
281.669
271.385
243.195
159.005
45.0505
7.4427
1.1346
0.167174
0.0245214
0.00359579
0.000527529
7.73913e-05
1.13745e-05
1.47655e-06
)
;

boundaryField
{
    sides
    {
        type            calculated;
        value           nonuniform List<scalar> 2(1.47655e-06 5.75314e-09);
    }
    empty
    {
        type            empty;
    }
}


// ************************************************************************* //
