/*--------------------------------*- C++ -*----------------------------------*\
  =========                 |
  \\      /  F ield         | OpenFOAM: The Open Source CFD Toolbox
   \\    /   O peration     | Website:  https://openfoam.org
    \\  /    A nd           | Version:  9
     \\/     M anipulation  |
\*---------------------------------------------------------------------------*/
FoamFile
{
    format      ascii;
    class       volScalarField;
    location    "0.007";
    object      p;
}
// * * * * * * * * * * * * * * * * * * * * * * * * * * * * * * * * * * * * * //

dimensions      [1 -1 -2 0 0 0 0];

internalField   nonuniform List<scalar> 
100
(
100000
100000
100000
100000
100000
100000
100000
100000
100000
99999.8
99999.6
99998.8
99996.6
99991.1
99977.4
99945.5
99874.2
99723.8
99425.6
98873.2
97932.2
96523.5
94686.7
92460.6
89915.4
87143.9
84235.7
81264.1
78282.4
75327.3
72423.2
69586
66826.3
64150.5
61564.6
59067.9
56671.9
54357.7
52162
50039.4
48031.9
46119.6
44298.3
42583.3
40972.5
39465
38063.9
36768.6
35583.2
34523.1
33586.8
32758.5
32075.8
31486.7
31052.5
30754.4
30511.4
30399.3
30309.3
30275.1
30272.8
30265.5
30263.4
30264
30266
30271
30279.2
30275.3
30259.8
30264.6
30259.9
30253.8
30268.2
30269.2
30253.2
30250
30258
30245.8
30217.2
30214.3
30208.3
30135.2
30105.6
30090.6
30042.5
29781.6
29350.9
28598.1
26593.6
18491
11673.5
10286.8
10043
10006.3
10000.9
10000.1
10000
10000
10000
10000
)
;

boundaryField
{
    sides
    {
        type            zeroGradient;
    }
    empty
    {
        type            empty;
    }
}


// ************************************************************************* //
