/*--------------------------------*- C++ -*----------------------------------*\
  =========                 |
  \\      /  F ield         | OpenFOAM: The Open Source CFD Toolbox
   \\    /   O peration     | Website:  https://openfoam.org
    \\  /    A nd           | Version:  9
     \\/     M anipulation  |
\*---------------------------------------------------------------------------*/
FoamFile
{
    format      ascii;
    class       surfaceScalarField;
    location    "0.007";
    object      phi;
}
// * * * * * * * * * * * * * * * * * * * * * * * * * * * * * * * * * * * * * //

dimensions      [1 0 -1 0 0 0 0];

internalField   nonuniform List<scalar> 
99
(
5.78314e-08
2.19627e-07
7.9676e-07
2.81767e-06
9.69962e-06
3.24745e-05
0.000105636
0.000333495
0.00102057
0.00302343
0.00865799
0.0239266
0.0636924
0.162974
0.399869
0.938121
2.09755
4.45302
8.94295
16.8883
29.6551
47.1413
68.6766
93.5974
120.835
149.281
177.991
206.265
233.631
259.792
284.568
307.861
329.623
349.832
368.53
385.614
401.475
415.393
428.483
440.197
449.527
459.287
467.612
472.982
478.456
484.791
488.914
490.112
491.329
494.301
497.145
497.228
495.887
493.757
494.564
495.511
495.422
495.032
493.451
492.316
491.837
491.616
491.612
491.585
491.367
490.228
485.969
470.347
424.508
381.959
351.227
332.148
320.827
313.892
310.087
308.633
308.356
307.643
308.57
310.581
310.395
309.721
310.326
311.357
307.395
301.138
293.833
278.868
241.075
58.1948
11.7443
1.8042
0.266213
0.0390294
0.00572122
0.000839026
0.000123096
1.80623e-05
2.62292e-06
)
;

boundaryField
{
    sides
    {
        type            calculated;
        value           nonuniform List<scalar> 2(5.5161e-07 -1.82582e-08);
    }
    empty
    {
        type            empty;
        value           nonuniform List<scalar> 0();
    }
}


// ************************************************************************* //
