/*--------------------------------*- C++ -*----------------------------------*\
  =========                 |
  \\      /  F ield         | OpenFOAM: The Open Source CFD Toolbox
   \\    /   O peration     | Website:  https://openfoam.org
    \\  /    A nd           | Version:  9
     \\/     M anipulation  |
\*---------------------------------------------------------------------------*/
FoamFile
{
    format      ascii;
    class       volScalarField;
    location    "0.007";
    object      T;
}
// * * * * * * * * * * * * * * * * * * * * * * * * * * * * * * * * * * * * * //

dimensions      [0 0 0 1 0 0 0];

internalField   nonuniform List<scalar> 
100
(
348.432
348.432
348.432
348.432
348.432
348.432
348.432
348.432
348.432
348.432
348.432
348.431
348.429
348.423
348.409
348.378
348.306
348.156
347.858
347.305
346.357
344.926
343.039
340.718
338.015
335.009
331.782
328.401
324.919
321.375
317.795
314.198
310.599
307.004
303.444
299.839
296.507
292.558
290.065
285.415
283.058
280.046
275.692
273.189
271.265
267.659
263.959
262.1
260.963
258.669
255.477
253.271
252.693
252.553
252.008
250.612
249.819
249.806
250.04
250.706
251.139
251.223
251.218
251.222
251.277
251.597
252.959
257.943
274.568
308.401
339.365
363.512
380.242
390.696
396.733
399.843
400.971
401.025
400.477
398.712
397.163
396.162
395.886
395.957
396.146
395.449
393.731
390.007
380.934
343.053
292.603
281.061
279.089
278.796
278.753
278.747
278.746
278.746
278.746
278.746
)
;

boundaryField
{
    sides
    {
        type            zeroGradient;
    }
    empty
    {
        type            empty;
    }
}


// ************************************************************************* //
