/*--------------------------------*- C++ -*----------------------------------*\
  =========                 |
  \\      /  F ield         | OpenFOAM: The Open Source CFD Toolbox
   \\    /   O peration     | Website:  https://openfoam.org
    \\  /    A nd           | Version:  9
     \\/     M anipulation  |
\*---------------------------------------------------------------------------*/
FoamFile
{
    format      ascii;
    class       volVectorField;
    location    "0.007";
    object      U;
}
// * * * * * * * * * * * * * * * * * * * * * * * * * * * * * * * * * * * * * //

dimensions      [0 1 -1 0 0 0 0];

internalField   nonuniform List<vector> 
100
(
(5.75314e-09 0 0)
(2.64911e-08 0 0)
(9.70604e-08 0 0)
(3.49244e-07 0 0)
(1.22324e-06 0 0)
(4.16922e-06 0 0)
(1.3814e-05 0 0)
(4.44475e-05 0 0)
(0.00013872 0 0)
(0.000419413 0 0)
(0.00122672 0 0)
(0.00346556 0 0)
(0.00943977 0 0)
(0.0247427 0 0)
(0.0622642 0 0)
(0.150033 0 0)
(0.345119 0 0)
(0.755257 0 0)
(1.56654 0 0)
(3.06352 0 0)
(5.58694 0 0)
(9.35141 0 0)
(14.3731 0 0)
(20.5884 0 0)
(27.8699 0 0)
(36.0216 0 0)
(44.8362 0 0)
(54.1328 0 0)
(63.7717 0 0)
(73.6511 0 0)
(83.6981 0 0)
(93.8601 0 0)
(104.098 0 0)
(114.379 0 0)
(124.684 0 0)
(134.97 0 0)
(145.262 0 0)
(155.449 0 0)
(165.636 0 0)
(175.678 0 0)
(185.59 0 0)
(195.431 0 0)
(205.023 0 0)
(214.406 0 0)
(223.588 0 0)
(232.437 0 0)
(240.912 0 0)
(249.009 0 0)
(256.62 0 0)
(263.63 0 0)
(270.032 0 0)
(275.729 0 0)
(280.723 0 0)
(284.735 0 0)
(287.786 0 0)
(290.21 0 0)
(291.839 0 0)
(292.871 0 0)
(293.392 0 0)
(293.5 0 0)
(293.54 0 0)
(293.561 0 0)
(293.597 0 0)
(293.664 0 0)
(293.736 0 0)
(293.815 0 0)
(293.971 0 0)
(294.263 0 0)
(294.322 0 0)
(293.962 0 0)
(293.527 0 0)
(293.233 0 0)
(293.146 0 0)
(293.152 0 0)
(293.13 0 0)
(293.048 0 0)
(292.879 0 0)
(292.579 0 0)
(292.179 0 0)
(291.788 0 0)
(291.371 0 0)
(290.807 0 0)
(290.207 0 0)
(289.66 0 0)
(288.667 0 0)
(286.435 0 0)
(281.669 0 0)
(271.385 0 0)
(243.195 0 0)
(159.005 0 0)
(45.0505 0 0)
(7.4427 0 0)
(1.1346 0 0)
(0.167174 0 0)
(0.0245214 0 0)
(0.00359579 0 0)
(0.000527529 0 0)
(7.73913e-05 0 0)
(1.13745e-05 0 0)
(1.47655e-06 0 0)
)
;

boundaryField
{
    sides
    {
        type            zeroGradient;
    }
    empty
    {
        type            empty;
    }
}


// ************************************************************************* //
