/*--------------------------------*- C++ -*----------------------------------*\
  =========                 |
  \\      /  F ield         | OpenFOAM: The Open Source CFD Toolbox
   \\    /   O peration     | Website:  https://openfoam.org
    \\  /    A nd           | Version:  9
     \\/     M anipulation  |
\*---------------------------------------------------------------------------*/
FoamFile
{
    format      ascii;
    class       surfaceScalarField;
    location    "35";
    object      phi;
}
// * * * * * * * * * * * * * * * * * * * * * * * * * * * * * * * * * * * * * //

dimensions      [0 3 -1 0 0 0 0];

internalField   nonuniform List<scalar> 
1300
(
1.7582594
5.6264299
-5.1364288
1.7582594
-8.5169951
5.6264299
-5.6678726
5.6678726
-1.0703138
1.0703138
3.7329128
3.6517765
-4.2504418
4.2504418
-3.6264417
3.6264417
-1.1334765
1.1334765
-5.2377188
5.2377188
-5.0573639
5.0573639
4.7430715
-4.7430715
-6.9024626
6.9024626
-1.1712556
1.1712556
-5.3800607
5.3800607
1.4962517
-1.4962517
-3.5806252
3.5806252
-0.14674613
0.14674613
-0.57153841
5.1430127
1.186721
1.186721
-1.1682476
1.1682476
-4.858289
4.858289
6.2141811
-6.2141811
7.9473539
-7.9473539
-2.8109251
-3.3570991
1.9807864
-12.508883
-6.5362088
-6.5362088
-8.4382651
8.4382651
-2.8118351
2.8145948
1.4491968
-1.4491968
-1.7843757
1.7843757
-5.5112911
-0.15658152
-5.5112911
5.8095086
-0.14163595
5.8095085
-1.1850405
0.11472669
-1.1850405
4.7063921
-4.7063921
0.91569338
0.15462044
0.91569339
1.2591662
-1.2591662
-3.7389164
7.4718291
3.645773
-3.0534777
8.1964904
-3.3934733
7.0452499
-6.5270551
6.5270551
-4.5426696
0.29222778
-4.5426696
4.0281759
0.222266
4.0281759
-7.4524082
7.4524082
-3.6757139
0.04927221
-3.6757139
3.600901
0.025540632
3.600901
2.1067313
-2.1067313
-1.0911677
-0.042308852
-1.0911677
1.1693239
-0.03584739
1.1693239
0.35898241
5.2674475
-5.9854124
8.8000072
-5.2674475
0.029728664
5.2000828
0.037636007
5.2000828
-5.0937174
0.03635349
-5.0937174
5.0149651
0.042398798
5.0149651
4.8388778
-0.095806363
4.8388777
-4.845682
0.10261044
-4.845682
-3.9974842
-4.4895911
-7.077104
0.17464143
-7.077104
-1.0999169
-0.071338659
-1.0999169
1.251081
-0.07982539
1.251081
-4.1046912
4.1046912
-5.7514428
0.37138211
-5.7514428
1.3664405
0.12981127
1.3664405
2.0096029
2.5618714
3.7678623
-3.7678623
2.2716106
-3.5662595
-0.014365786
-3.5662595
-3.6553847
-4.2919692
3.6553847
-0.07475953
-0.52451734
0.37777124
-0.52451735
1.2400026
-0.053281658
1.2400026
1.1872816
-0.017957761
-1.1872817
0.019034027
3.3502121
-3.3502121
0.73095214
0.43729551
0.73095215
-5.5729985
5.5729985
4.9555918
0.059373358
-4.9555918
0.097302829
6.1535653
0.060615779
6.1535653
-6.1926754
-0.021505705
-6.1926754
3.4396951
-6.7967942
-3.4829346
6.7207798
0.18168274
-6.7207798
0.18457104
1.5686201
-0.11942321
1.5686201
-1.1029224
1.1029224
-1.4079199
-0.041276896
-1.4079199
-2.1146083
0.33023257
-2.1146083
1.5156104
0.26876527
1.5156104
-5.2253411
-0.28595005
-5.2253411
-5.8602581
0.10881538
5.8602582
-0.050749613
1.4014757
-1.4014757
-1.2588579
0.073817375
-1.2588578
-4.9279527
-0.29738841
4.9279527
-0.22156058
-4.5648049
-0.14158717
-4.5648049
-1.3233373
-0.08458268
1.3233373
-0.064171051
1.2676233
-0.027620703
-1.2676234
0.0084571716
-3.05097
5.6128414
-3.395981
7.0417539
-6.1491897
-0.37786537
-6.1491897
6.8651618
-0.33810664
6.8651618
4.9933537
0.38670705
-4.9933537
0.45068407
3.8642766
0.16389923
3.8642766
-7.4127232
-0.03968503
-7.4127232
7.4699103
-0.017502089
7.4699103
3.7526868
0.11158988
-3.7526868
0.076972873
3.5852606
0.015640472
3.5852606
2.3211729
-0.21444159
2.3211729
-1.9056672
-0.20106415
-1.9056672
1.0815511
-1.0815511
1.0927211
-0.01116996
-1.0927211
0.0015534573
-11.14873
11.127225
-0.035769034
-11.112961
5.1643138
5.1643138
4.0540019
0.7848758
4.0540019
-5.0384752
0.19279318
-5.0384751
3.5078525
-6.9907871
3.8332802
-7.8307644
5.0468184
-17.555701
4.6812698
-9.1708609
7.3285441
-7.3285441
7.2117606
0.11678352
-7.2117606
0.13465659
-1.0156084
-0.08430844
-1.0156084
-3.4852415
-0.61944961
-3.4852415
4.7679714
-0.66328021
4.7679714
-1.2893507
1.2893507
-1.3112661
0.021915336
1.311266
0.055174442
3.5731904
0.012070171
-3.5731904
0.0069308978
0.73532742
0.18036597
-0.73532742
0.21081006
3.7847904
-0.43457832
3.7847904
-2.8948435
-0.45536863
-2.8948435
-0.88450018
-0.13110822
0.88450015
-0.153548
-5.8189829
0.24598447
-5.8189829
-11.213438
0.10047645
-11.175802
-6.092199
-6.092199
2.346066
11.146073
-1.7275014
-0.17816579
1.7275014
-0.15888131
1.2399923
0.049358509
-1.2399923
0.13706984
-1.0714855
-0.010065628
1.0714855
0.031436951
-2.5371401
0.42253188
-2.5371402
-1.2278718
1.2278718
-1.3240961
0.09622422
1.3240961
0.19151434
1.7036122
-0.30213646
1.7036122
1.2749815
-0.023900531
-1.2749815
0.016123695
-4.3713234
-0.19348147
-4.3713234
7.1300607
-0.26489894
7.1300608
-2.5919696
-0.30287395
2.5919696
-0.27079664
-0.035189571
11.162414
-5.1291242
0.035406743
5.1291242
-11.22303
11.258437
-3.1116238
0.57448361
3.1116238
0.94237812
5.3038029
0.26919555
-5.3038029
0.2653278
7.4114456
0.058464736
-7.4114456
0.082901475
-2.9751034
-0.51013806
-2.9751034
-5.51153
-0.63765978
5.5115299
-0.74355848
-11.475317
-0.19645398
11.671771
-11.432918
6.0154369
0.13812831
-6.0154369
11.396565
-1.2407529
-0.16072288
1.2407529
-0.012881047
2.0494524
-0.34584022
2.0494524
4.1478354
-0.36304497
-4.1478354
-0.223488
-7.2941099
-0.11861335
7.2941098
-0.16404908
-2.4903281
-0.48477524
2.4903281
-0.44087576
-5.337065
5.2837833
2.8594255
-3.3120961
-3.4846981
-7.6040653
2.5423543
3.0704871
4.8139649
-11.021142
-6.5345592
-10.836571
7.2692439
-7.0039161
-9.477257
9.3814506
10.271054
-10.412641
-7.2999628
7.3551373
8.730243
-8.794414
3.7894815
3.6823477
10.899163
-10.606935
-16.780032
16.402167
10.294568
-10.245296
16.991574
-17.031259
-19.260794
19.319259
-7.3196334
7.2773245
-9.3255015
9.1244373
-9.6217241
9.3509274
-3.6030641
-4.2277002
14.240451
-14.06581
11.711161
-11.725527
-11.498961
11.870343
4.0441355
1.2396479
4.0165148
-3.6141588
7.4036403
-3.4310911
6.2905165
3.5950224
-7.1980865
3.3957647
-6.8804628
6.0059682
5.7051931
-5.9312086
-1.6728566
-8.1910338
8.0716106
-7.4653937
7.4968306
11.833309
-11.989891
-3.6088127
7.2911604
-3.4329413
6.5034284
-3.6864708
-3.613492
3.5566595
1.2573054
8.7747473
5.4657042
-8.9564301
-1.8801409
-10.909442
10.546397
-11.481915
11.026546
-0.44537465
5.785086
-5.3397114
4.4129143
-1.4764644
7.2615504
5.7927796
5.9855728
5.8666772
-5.5974816
1.1372388
-6.4769501
-6.3796473
-2.870615
2.9444323
2.9279074
-2.7732869
7.8553326
2.415721
7.633772
-7.4348537
-2.977787
-7.6283351
4.4009834
2.9541539
4.4228988
5.2552439
3.474999
5.1706613
5.8563866
-5.9637278
0.10734116
-5.4746745
11.331061
1.3274326
-9.0881665
-7.8308611
6.9053539
3.9938092
7.1276199
-7.5107049
-3.0962304
-7.0600208
-10.221546
-6.5584864
-10.859205
10.946084
5.4560832
10.607977
-12.865854
12.701805
6.7144586
3.5801094
6.7399992
-6.8348263
-3.4104695
-6.7578534
13.271584
-3.1995659
-10.072018
-11.131134
-8.1296605
11.148636
5.8429386
11.87056
7.448699
11.953461
4.8734475
8.3981365
-10.716386
2.5867255
-4.4940397
-2.8255936
-4.4924863
4.4750086
2.8023159
4.4391612
-5.4758322
-3.8496692
-5.653998
-5.4897724
-4.1319517
5.704214
3.4202233
-5.7060565
-5.7758586
6.0089305
3.3419969
4.3893456
-10.923905
4.7815152
-9.0092155
-9.9766563
-4.0891537
-9.8419997
4.5414981
3.0784755
-7.6199736
-2.6565884
11.209908
-5.5047147
9.5370512
-7.2346565
-4.4908707
-7.2277256
-9.0219489
-2.4770123
-8.9131335
-9.5306481
9.02051
-9.909221
9.2459408
13.94338
-6.7766122
-7.166768
-4.8822377
-3.9121763
4.8737805
-0.85726572
-7.2071865
7.3145276
0.19645387
6.4869704
7.7266183
6.8693526
-4.4868064
-2.9785872
-4.3497366
4.5514926
2.945338
4.541427
9.0395349
2.7937745
8.897899
-8.3615899
-3.6283011
-8.64754
9.547415
-9.2171824
2.9267518
-3.05786
7.2280113
3.7985352
-6.7934329
-4.1160095
9.368148
-4.3859423
-4.9822057
-12.063566
10.618912
1.4446537
-4.8020154
-0.38910106
-0.24235495
-5.567202
-3.9100551
5.4645916
0.52098119
11.139894
7.2298384
-5.5163363
5.7623207
6.1554349
6.2148082
-0.16483911
6.0732069
-5.4987233
7.2800485
-3.5634033
-3.7166451
6.8365907
-7.1339792
-1.8109493
-7.5516263
5.740677
0.49979282
2.1022544
-1.7244832
-2.0935784
-0.77703653
-2.0774547
1.7523524
1.175555
1.9327183
1.0357257
1.9087067
-3.6646217
0.74985348
2.9147682
-2.6288959
-2.0234334
-5.1238448
-1.9834862
7.107331
7.6111731
2.9352244
-7.3876851
-0.24065005
2.7571009
-2.8369263
-0.70609588
-4.4177489
3.0683095
-3.7744053
-5.8731806
-2.4675378
8.3407184
-3.7049698
-0.6447668
3.6556112
0.76728757
-4.8042054
-3.3868284
4.8454823
0.325179
-5.4023674
11.043931
-5.6415632
-8.3809547
4.498398
6.8326632
7.4525519
-9.1694459
4.7869571
4.3824888
-2.3367827
5.924197
1.203423
6.0880962
-9.180519
6.0842887
7.8424416
4.0279017
-8.2291488
1.1691279
-8.0113911
10.624023
-9.2546923
-1.3693305
5.2810756
5.3429473
7.5900089
6.3533713
-6.0445096
13.634518
-1.4413844
-7.8133079
9.4527755
-5.4248739
6.1513893
-11.576263
-12.504761
4.6914528
-9.8353426
11.902574
-2.0672314
-3.8536616
-9.0121925
13.689004
-1.3308855
-12.358119
9.2770914
-5.5560244
-5.6358703
11.191895
-8.7555903
9.0463397
-2.5861248
-6.460215
-10.847083
-6.184176
10.965697
1.7361085
-11.814908
14.401633
-3.4167711
5.8036859
0.93631331
5.8193264
4.1774987
-6.7950102
2.6175115
4.5780915
-7.1642163
2.6071549
-9.4021651
-7.2133971
13.269082
-6.0556845
-11.302551
-10.246203
-1.0563482
2.7908743
11.610759
-10.239573
8.0179575
2.2216158
3.7972156
0.74421141
-3.7860456
-0.70644069
0.56582268
6.7573704
-7.3231931
5.0049838
4.9870261
5.0609277
1.6964427
5.1355311
2.9360795
-4.9766498
-0.67734818
-6.4714326
2.3394809
-3.0512093
-6.4228635
8.7623444
-7.1265754
0.70371196
-4.3359771
-6.1670178
10.502995
-7.1615708
5.2678005
5.7761302
8.2131386
-8.7265427
2.5595249
-4.388759
-4.3377837
4.5670506
-7.6182599
3.3456131
5.4167313
6.68761
0.91175145
6.5386908
6.7303907
-9.6171663
0.60795084
12.196095
-10.315954
2.6602814
9.29318
-10.678239
0.43203622
-9.4099635
1.2369204
-6.7416351
-6.3830532
6.7237281
-9.2007404
-4.8525351
8.2436718
0.65422723
-8.1929222
-0.72021127
-6.5038937
-3.0267544
-6.9886689
-3.2934929
-6.6157281
-9.3380024
-1.7853324
-7.55267
7.2351777
-7.2088583
-3.6503471
7.9524167
1.2935241
-8.0044715
7.8437486
-8.0502646
7.7044244
0.27762453
7.0369031
7.1469771
3.2348008
-4.7001204
7.9349212
-7.0306454
9.8244199
-11.840583
4.809938
5.6590991
-9.2874003
-6.1814842
5.4634767
4.0839383
5.732242
9.3826265
-10.830628
1.4480014
-11.065617
12.630785
-1.5651683
-17.121203
6.0555858
-7.7385765
2.751436
0.17531587
2.6671275
0.82787936
2.9069331
-3.7348124
-2.2299806
-2.3835286
-3.680673
-5.539939
9.2206121
1.829204
-5.2363878
3.4071838
-4.7452315
6.5744356
0.075348081
-5.3117359
7.1538084
-4.2468753
7.3291243
-4.6698834
2.6592409
5.1212727
8.9924089
-3.8711362
6.6911032
-2.892568
2.9648453
-6.8359815
-2.5750937
-4.9124648
7.7147807
-5.5905302
6.2942421
-0.39158768
6.6858298
-5.7987358
1.4127935
-0.73780815
4.2492179
4.2682519
6.9209164
-5.2244737
4.8972708
-7.7898388
-1.9387107
-6.8780873
-1.4613561
-0.45818993
-5.2140852
5.6722751
6.7391156
-7.1973055
-5.3407621
9.7435227
-4.4027606
8.0622056
-5.5250526
-2.537153
-4.5529778
-4.6642046
4.1304459
1.942761
10.004967
0.28032236
-5.8053749
-5.2184009
-4.2760228
4.4231136
2.856935
-2.2353176
3.6799713
2.4776726
-0.37541828
0.6873599
1.2453584
2.3604422
-1.6730823
0.26831472
2.0921275
-1.4561684
2.0565529
0.700548
-2.0326524
-0.044802339
-1.540979
4.6092884
1.3737892
-2.5493442
0.8762619
1.4459243
-5.0093277
7.1132852
-3.775183
-3.3381022
8.5592096
1.5378981
-5.3130811
6.0137281
-5.5139353
3.2643672
-5.2478534
-2.0487139
-7.5626492
-5.1469282
-4.1574108
7.5645947
-5.0632012
7.9984256
1.691414
-7.7577756
9.4491896
-4.8422438
2.374706
-4.1502953
4.8508433
-1.7321918
-2.4181036
4.284607
4.0561114
-4.2850164
-0.13273257
-0.00040930821
3.1769635
-3.1773729
-0.59744177
-3.2263377
-7.5937384
7.9189174
-3.8161818
8.6031389
4.1187394
-3.5766069
12.179746
3.2082255
-6.7848324
-5.1727292
-5.8174959
-2.4023435
5.0502084
-0.82214944
-5.935704
-7.2823644
5.8241141
0.26398217
-9.2844414
10.372021
-1.0875792
-5.2906322
-0.79365649
6.0747321
-7.7983996
0.63418332
-5.1912447
5.1807759
6.3841989
6.648181
-12.144114
-0.2140049
-6.6880306
1.353301
-8.0413316
6.6962483
-3.8245511
8.5160039
-11.103492
7.4531445
-9.8099674
7.1466734
-0.89465819
7.1460719
-4.5285604
2.9259461
-9.1101221
-7.3740136
7.2196242
-3.6395148
8.1559375
-4.1356088
12.291546
-7.5523799
7.0001922
5.2913541
-1.3676667
-5.8600589
-6.9715297
5.6038631
0.028662409
5.8479888
7.891687
-4.9556075
7.2143388
4.2535902
-8.6423492
-3.3646696
-11.890794
3.2484451
-6.1146642
-3.1790157
6.4274608
5.0341229
5.7783343
2.0896771
-5.0718936
8.3601486
-9.4164969
-2.3044641
-4.078589
6.902195
-1.2983319
4.3303109
-8.4088999
-2.4113243
5.7935849
-0.70640574
-5.0871792
0.98302735
-5.8355624
2.399833
-8.2353955
6.8009074
-7.5211186
2.3408806
-10.079457
-5.663591
-5.676472
-2.4177947
-5.6324699
-7.964728
5.5469333
-1.9091422
5.9346064
-8.9187442
8.2123384
-3.712041
9.2589743
-5.8532061
-1.1354629
6.2940818
1.4103425
10.669317
0.409673
-6.5911572
-2.8444426
5.6041134
-2.7596708
1.5786709
-4.8044122
0.79970114
3.4927505
5.0664591
-9.2334275
-0.053972789
-6.64513
-4.1623442
8.2462825
5.5811785
12.320294
1.4896662
9.4011886
-1.1549062
10.890855
4.5773358
4.7688501
-4.1698556
5.617857
1.5024196
6.3123576
-0.86895209
3.528193
1.7981755
1.7268368
1.1100894
2.6475511
1.6207008
4.0603447
0.32553226
-2.0579963
4.6868645
-8.9628873
-1.1185105
-8.1780114
1.2034391
5.8585403
-4.6551011
4.2874043
-1.4304694
1.5277335
-0.10643347
-2.1390819
2.2455153
-3.8230789
-2.5145001
-0.42237262
-2.1614944
3.0377564
2.447794
-2.6153837
-1.2076952
0.68111735
-5.8280455
4.566736
-4.6994686
-0.64335714
8.8058325
-3.6889088
0.51153596
-1.3142028
-2.7148018
-3.4918383
3.5366406
11.564685
0.61506094
5.9231217
8.5339784
5.14715
0.19154249
4.8345945
-6.9018259
-4.5675706
-7.1158307
-0.41958243
5.6551497
2.1945207
9.416238
7.4858748
6.1875429
-2.221357
-11.637854
8.310171
-2.692314
6.7450027
-1.6578235
-6.577572
6.753123
3.0712969
-7.4073503
-0.11376836
-6.6913404
-9.3836544
-0.5048856
8.717224
-10.164431
9.0289684
6.002214
1.550456
-4.8201409
-0.85633112
4.7239167
0.04493339
10.935788
-1.1899335
-7.0697547
8.2596882
-4.6686068
3.5500963
0.91533406
2.7646373
3.1608496
1.7303802
-5.3393745
-9.9944757
-3.0071428
-2.0021849
-6.345245
0.76208611
-3.2098801
6.2771503
-2.727054
3.7399973
5.5326342
7.0603676
-2.0238383
-5.1734672
6.4265988
-2.6866015
4.3737661
)
;

boundaryField
{
    wall-4
    {
        type            calculated;
        value           uniform 0;
    }
    velocity-inlet-5
    {
        type            calculated;
        value           nonuniform List<scalar> 8(-1.7582594 -1.7582594 -7.3846893 -4.5714743 -7.3846893 -6.446951 -4.5714743 -6.446951);
    }
    velocity-inlet-6
    {
        type            calculated;
        value           uniform -5.6264299;
    }
    pressure-outlet-7
    {
        type            calculated;
        value           nonuniform List<scalar> 8(5.1364288 8.5169951 6.1680242 10.528096 8.4870753 6.9226297 7.3411326 9.7280882);
    }
    wall-8
    {
        type            calculated;
        value           uniform 0;
    }
    frontAndBackPlanes
    {
        type            empty;
        value           nonuniform List<scalar> 0();
    }
}


// ************************************************************************* //
