/*--------------------------------*- C++ -*----------------------------------*\
  =========                 |
  \\      /  F ield         | OpenFOAM: The Open Source CFD Toolbox
   \\    /   O peration     | Website:  https://openfoam.org
    \\  /    A nd           | Version:  9
     \\/     M anipulation  |
\*---------------------------------------------------------------------------*/
FoamFile
{
    format      ascii;
    class       volVectorField;
    location    "35";
    object      U;
}
// * * * * * * * * * * * * * * * * * * * * * * * * * * * * * * * * * * * * * //

dimensions      [0 1 -1 0 0 0 0];

internalField   nonuniform List<vector> 
918
(
(0.40911697 -0.00018701938 0)
(0.0090456621 2.9576278 0)
(-0.0087618094 1.3578652 0)
(0.2902442 -0.0084469865 0)
(-0.010491673 2.2641697 4.1951299e-20)
(-0.011744006 2.9485783 -3.4556751e-18)
(0.96983082 1.5295917 7.7105247e-19)
(0.32617642 0.19893274 -2.7741597e-20)
(1.9883576 0.0036696265 0)
(0.027522431 1.2070509 0)
(0.0015197028 0.99424223 0)
(0.22521843 -0.0095943205 0)
(0.012836859 2.9163534 0)
(0.013717738 2.7910264 0)
(0.10059888 3.1755665 3.1919365e-19)
(-0.0098576163 2.1222638 1.5364269e-20)
(0.3087849 0.066787599 1.7193378e-18)
(0.21870664 1.6848841 5.8723408e-19)
(0.37039683 0.0054043736 0)
(-0.010384404 0.97272757 0)
(0.0060231705 0.19672022 -1.3899188e-18)
(1.0477284 -0.021915841 0)
(0.54305286 -0.028168545 0)
(0.24796528 -0.0071509315 0)
(0.30632727 -0.0028310316 0)
(0.022577351 2.620001 0)
(-0.009971279 2.9058638 1.2749586e-18)
(-0.022301383 1.4089205 0)
(-0.03039224 1.6462936 0)
(-0.018517321 1.3863915 0)
(-0.0069571868 2.8100922 0)
(-0.0017979533 2.317813 -3.2980226e-20)
(-0.0048961919 2.1023193 0)
(-0.018161951 2.9813212 -1.2882765e-22)
(-0.018375804 3.0070224 2.682945e-18)
(0.00085922889 3.0015934 0)
(0.28613545 -0.0014244112 0)
(0.43624853 0.91853418 3.33518e-19)
(1.0585916 1.5229056 -9.1390944e-19)
(1.0967563 1.3595837 9.4553413e-19)
(0.90281751 1.6825871 -1.781013e-19)
(0.80819722 1.6765875 1.029325e-18)
(0.41807355 0.24093263 2.7005469e-20)
(0.3481192 0.17592594 0)
(1.2821831 0.74766359 0)
(0.3695677 0.24556261 1.2429721e-19)
(0.29200749 0.20063198 -1.2937797e-19)
(0.24726857 -0.013822219 0)
(1.9896294 0.00060423724 0)
(1.9887119 -0.0021253902 0)
(1.3548421 0.0014280423 0)
(1.8676266 0.0053896923 0)
(1.7381165 0.0031547547 0)
(0.026552769 2.0176596 -8.4943443e-19)
(0.050999133 1.4415406 0)
(0.050577687 1.3107001 0)
(0.033194964 1.3868485 0)
(0.020350786 1.1185779 0)
(-0.0012460633 2.227479 0)
(0.009235252 1.2387181 0)
(0.0098448448 1.0148042 0)
(0.00057219424 1.2427221 0)
(-0.00022511622 0.9748303 0)
(0.51010994 0.026187619 0)
(0.46831404 -0.015183634 0)
(0.20584364 0.001550379 0)
(0.47145812 -0.014044363 0)
(0.25615805 -0.002563007 0)
(0.016738676 3.014516 1.3237251e-18)
(0.012390575 3.0113829 0)
(0.0077276196 3.003576 0)
(0.013325851 3.0004901 1.4109984e-23)
(0.010556449 2.9476306 -1.8905158e-18)
(0.016840185 2.9848936 0)
(0.013434231 2.8938459 0)
(0.017614835 2.9240182 3.0524681e-24)
(0.013842854 2.8182337 0)
(0.017499759 2.9105577 0)
(0.011076887 2.7545535 0)
(0.25124968 3.6346388 0)
(0.17875959 3.571581 0)
(0.13407033 3.3090824 -2.9856004e-19)
(0.049240614 3.0001044 0)
(-0.020802494 2.2638504 0)
(-0.015637916 2.3464174 -1.5141038e-20)
(-0.010280662 2.1472539 -4.0208956e-21)
(0.45193989 0.091770398 -5.8935438e-19)
(0.28454689 0.040659735 -5.6076534e-19)
(0.4729625 0.11431908 -1.8015016e-18)
(0.33618855 0.09176418 -1.2053805e-18)
(0.17833136 1.1490611 0)
(0.33378303 1.8220158 -6.5655637e-19)
(0.41849452 1.7915226 1.0997711e-18)
(0.54371716 0.039365055 0)
(0.31608517 0.027102664 0)
(1.2189461 -0.0014060714 0)
(0.73723151 -0.035301785 0)
(0.64761884 0.017009366 -2.904825e-18)
(0.6492672 -0.02612577 2.2784084e-18)
(-0.0026804519 1.2170763 0)
(0.0031152996 0.97876964 0)
(-0.042164402 1.4349591 0)
(-0.02182463 1.2550162 0)
(-0.016987587 0.97777934 0)
(0.064091463 0.24077956 4.237045e-19)
(0.16685966 0.17239801 0)
(0.5041482 0.01923763 0)
(0.24559343 0.013757368 0)
(0.45236204 -0.0084544987 0)
(0.42564754 -0.012623591 0)
(0.2919669 0.00115031 0)
(0.92920939 0.053172555 0)
(0.38880737 0.018524739 0)
(0.17154691 0.00051089049 2.2516891e-18)
(0.0017366955 2.8600492 1.1248557e-18)
(0.021028608 2.8999145 0)
(0.034700992 2.8759934 0)
(0.015503088 2.7044644 0)
(-0.010458221 2.9857261 1.2332035e-18)
(-0.0091172089 2.8906897 0)
(-0.011771615 2.9907479 -3.7850402e-18)
(-0.0095959597 2.9158516 1.2943513e-18)
(-0.015959488 1.8311799 0)
(-0.00081848934 1.8463515 0)
(-0.0080844456 2.3310537 2.0522252e-22)
(-0.0069528265 2.2970936 0)
(-0.0085710846 2.1010767 0)
(0.6261915 0.023613835 0)
(0.31343844 0.015550085 0)
(0.22543772 0.025431259 0)
(0.59583727 0.0035195088 0)
(0.28090236 0.015003031 0)
(0.52331065 1.0973833 -4.0899708e-19)
(0.55686277 1.133437 0)
(0.41274094 0.90219681 5.3309789e-20)
(0.32220362 0.69552946 0)
(1.1656097 1.3358224 -2.6800127e-19)
(1.1687721 1.1415631 5.119522e-19)
(0.53175369 1.8553285 0)
(0.72840243 1.8034188 0)
(0.62476127 1.7737709 0)
(0.14903265 0.25290871 -4.2520788e-19)
(0.45424833 0.21650073 0)
(0.35418412 0.15527019 3.470658e-19)
(1.2528987 1.130925 0)
(1.3235025 0.92566879 0)
(1.2280541 0.9367064 -4.0317768e-19)
(1.3827604 0.72943588 0)
(1.3234283 0.57345261 6.1230122e-20)
(0.57309481 0.022115534 0)
(0.53734286 0.012147767 0)
(0.25817162 0.010701215 0)
(0.52236117 0.0073833344 0)
(0.52960048 -0.014486969 0)
(0.25510843 0.0069383091 0)
(1.4986389 -0.0018233534 0)
(1.8698359 -0.0018776773 0)
(1.7318248 0.00042770614 0)
(0.040900676 2.241516 4.606643e-19)
(0.05037452 1.9422981 0)
(0.03347714 2.331152 7.4354439e-19)
(0.020505741 2.0797199 -6.2215788e-19)
(0.1610866 1.6804056 -4.8174436e-19)
(0.079032408 1.5317504 0)
(0.097384514 1.4890599 0)
(0.025684704 1.3360586 0)
(0.015493647 1.0655177 0)
(-0.0034657542 2.4116738 -9.9536294e-22)
(0.0025697037 2.2220585 0)
(0.0022325557 2.4177289 -5.1563913e-20)
(-0.0015746805 2.2301301 8.6511874e-20)
(0.019055946 1.2946263 0)
(0.014145107 1.2620433 0)
(0.012556287 1.0332456 0)
(0.00019286095 1.2387446 0)
(0.00038588461 0.97209681 0)
(0.81966029 0.0469293 0)
(0.57722743 0.026698546 0)
(0.75930779 0.042606155 0)
(0.43516166 0.016239444 0)
(0.20450158 -0.010382272 0)
(0.46316055 -0.0042145801 0)
(0.466126 0.0047244747 0)
(0.20803575 -0.0062687402 0)
(0.0036986968 3.0720086 -1.1374998e-20)
(0.010784756 3.0616239 0)
(0.016165402 2.9688117 0)
(0.013251705 2.8677347 0)
(0.731277 4.2212104 0)
(1.2313017 3.2889695 8.7656233e-19)
(0.071628578 3.1321838 0)
(0.029662423 2.9042412 0)
(-0.012595217 1.8505829 0)
(-0.024706931 2.0788952 0)
(-0.014514379 1.9528663 0)
(-0.021285637 2.75362 -1.1332777e-20)
(-0.018485206 2.4475435 0)
(-0.019430412 2.5971844 0)
(-0.0039536362 2.175298 3.7603338e-21)
(-0.0082772138 2.3980452 1.4140302e-20)
(-0.010000195 2.3753632 4.0608161e-21)
(-0.0073042937 2.1571502 0)
(0.44990292 0.054197197 8.5112721e-19)
(0.25635315 0.012819564 -8.4352098e-19)
(0.30447694 1.6932104 0)
(0.20581104 0.92743248 -3.7474132e-19)
(0.225411 1.8345537 -1.169338e-18)
(0.13732257 1.3906688 1.1732516e-18)
(0.28107656 -0.0031394004 0)
(0.51734397 -0.00040888209 0)
(0.51596345 0.016292931 0)
(0.29009858 0.0051903781 0)
(0.0017349095 1.2322823 0)
(0.0031044348 1.2217906 0)
(0.0032775024 0.97261042 0)
(0.31379638 0.24336114 1.1523454e-18)
(0.23930635 0.23335867 -1.3760156e-18)
(0.23908639 0.1944057 0)
(1.2133458 0.13407961 3.0926693e-20)
(1.1251374 0.11538966 0)
(1.071083 0.091323875 0)
(0.76881456 0.036291803 0)
(0.43245861 0.017219839 0)
(0.40127254 -0.0061878234 -3.6291941e-18)
(0.20806648 -0.00023588888 1.3862714e-18)
(0.0027451921 2.9849343 1.1214717e-18)
(-0.0035010282 2.8649316 4.5909305e-20)
(0.0038393018 3.0539578 -2.3774369e-20)
(0.012751215 3.0472457 8.5602349e-19)
(-0.0093954263 2.9952563 4.2030467e-20)
(-0.0083908292 2.9361725 -1.686738e-22)
(-0.013159773 3.0201634 -7.9104459e-19)
(0.001214494 3.023142 5.7016334e-19)
(0.0066746008 3.0398273 -8.5663945e-19)
(0.7199842 0.036145755 0)
(0.67837477 0.036622278 0)
(0.36311091 0.018489089 0)
(0.50372621 0.011728628 0)
(0.47599178 0.039647955 0)
(0.27178667 0.0039590088 0)
(0.4577065 -0.011692204 0)
(0.44586458 0.0075088737 0)
(0.20799268 -0.0034185355 0)
(0.70996024 1.381494 -1.3412509e-19)
(0.77702602 1.461956 0)
(0.16476839 0.35569731 1.0327806e-19)
(0.3314193 0.7650654 7.9144593e-19)
(0.35325851 0.79691488 -4.6827183e-19)
(0.23131866 0.49375102 9.1388577e-19)
(0.41655993 0.95802985 2.1711578e-18)
(0.16526017 0.33386164 4.8455006e-19)
(0.47762782 0.15197814 1.2766612e-18)
(0.47448076 0.1903306 3.3607348e-19)
(0.35282851 0.12042388 6.4432035e-19)
(1.4109915 0.54690529 1.5966668e-19)
(1.3108565 0.39539131 1.2488658e-19)
(0.024089416 2.3878764 2.8004707e-19)
(0.011526694 2.153427 0)
(0.96764519 0.063313291 0)
(0.88662527 0.054729675 0)
(0.67199573 0.032258748 0)
(0.010013275 3.0770121 0)
(0.016963278 2.938754 1.6737249e-18)
(0.016536545 2.9537152 0)
(0.013501159 2.8433927 -1.6707591e-18)
(0.0094856502 3.0917551 3.8384603e-19)
(0.003729764 3.0887878 0)
(0.86714967 1.7499062 -9.0913949e-20)
(1.1308696 2.3577838 4.0469136e-20)
(0.84609018 1.8654517 -7.9688669e-19)
(0.014466234 2.9978392 -1.0315712e-18)
(0.035709735 3.0374294 0)
(0.012436547 2.8725183 0)
(-0.0098756761 2.4010657 -2.4297276e-20)
(-0.0051000649 2.4075091 -2.8177202e-20)
(-0.0024552531 2.2123945 -6.0386705e-22)
(0.34376775 1.5305329 1.181425e-18)
(0.20994834 0.74325955 -8.1062299e-19)
(0.088260069 2.1526912 8.2036202e-19)
(0.16647376 2.0141613 -1.006829e-18)
(0.082462844 1.6786403 1.2254081e-19)
(0.013984454 3.1143014 -2.5450088e-18)
(0.016658354 3.1195897 2.8809983e-18)
(-0.008676582 2.9802324 1.1815989e-18)
(-0.0053783597 2.9772353 -1.1625163e-18)
(-0.0076191048 2.8760583 -1.2036965e-18)
(0.0045913941 3.1055078 -2.9873535e-18)
(0.0094702836 3.1048452 2.9665436e-18)
(0.37474482 0.82900693 0)
(0.32795402 0.7715541 -1.7479134e-18)
(0.13410371 0.28100918 7.759011e-19)
(0.41194611 1.078607 1.3902619e-18)
(0.18914738 0.42534664 -2.1587461e-18)
(1.346429 0.22011904 6.4756459e-20)
(1.404027 0.37291462 0)
(1.2637543 0.23621283 8.6972709e-21)
(0.0087839207 2.4184798 -1.9289906e-21)
(0.009069204 2.4029124 0)
(0.0055489297 2.1924274 0)
(0.39166756 1.393483 -4.2541254e-19)
(0.42119041 1.2477051 -9.5364389e-19)
(0.19939416 0.56529996 1.7174925e-18)
(1.1918201 0.006144494 0)
(1.3369021 0.0021383144 4.6515264e-19)
(-0.023866291 1.8020337 0)
(-0.03774114 1.8216566 0)
(1.5128361 -0.00062575832 3.7339619e-21)
(1.100532 0.015524744 1.0351653e-18)
(-0.01892698 2.7581425 1.4696885e-20)
(-0.018253028 2.8022476 0)
(0.061613699 3.1783123 8.3391091e-19)
(0.53729423 3.5480899 0)
(1.5099907 0.87661007 -6.3701311e-20)
(1.2757757 0.011205933 2.3588839e-20)
(1.3723158 0.02437506 0)
(1.9988993 0.0084784343 8.7944808e-21)
(0.11500671 1.8729712 0)
(0.11952287 2.7500251 0)
(0.018413239 1.7982021 0)
(0.0060356981 2.8198144 4.7070322e-20)
(-0.016579411 2.7706671 2.1521181e-20)
(1.2700711 -1.5607863e-07 2.0712971e-20)
(1.4393131 0.066639973 0)
(1.4859214 0.098017814 0)
(-0.026765849 2.0964094 0)
(-0.014958597 2.7960718 0)
(-0.006631867 1.7892813 0)
(0.3271017 1.9813663 -2.86091e-19)
(1.2989796 0.010004804 0)
(1.0937247 0.0088214435 0)
(1.9711748 0.011408713 6.071367e-19)
(1.658069 0.016155798 -6.9580304e-19)
(1.9058914 0.010629572 0)
(-0.020267625 1.916318 0)
(-0.017053065 1.8207159 0)
(-0.017402107 1.870356 0)
(-0.0096539034 1.7837251 0)
(-0.014812314 1.7647833 0)
(-0.018043639 1.7716848 0)
(1.4126702 0.043832277 0)
(1.3003856 0.011845218 2.2508718e-20)
(0.99174563 1.7035587 4.4808468e-19)
(1.956639 0.0019554044 -6.1874541e-19)
(1.7069041 -0.0041762459 7.4025988e-19)
(1.8970716 -0.0057276024 0)
(1.3064314 0.0035652063 6.1443275e-19)
(1.1811603 0.0021420567 -7.7093783e-19)
(0.9267983 0.020799546 0)
(-0.019273978 2.834281 0)
(-0.021374211 2.8074233 -1.0809667e-20)
(-0.018749167 2.8268316 6.1502599e-21)
(1.6443375 0.3713121 7.0148938e-19)
(1.5889051 0.17133792 0)
(0.076210176 3.0546135 -1.5275104e-18)
(0.043548374 2.8482815 -1.0663941e-19)
(0.18100709 3.1782693 2.3275166e-18)
(0.16629978 3.2437081 -3.7538632e-19)
(0.16421622 3.2893981 0)
(0.031430174 3.1345098 4.3569936e-19)
(0.084413507 3.173443 1.501567e-18)
(0.080764965 3.1998655 -8.1092691e-19)
(0.049143556 3.1089186 0)
(0.73020098 0.33472504 0)
(0.67284323 0.42473651 0)
(1.4775362 0.94969738 1.2911537e-19)
(1.4157575 1.0876598 -9.0063006e-20)
(1.5805306 0.77002994 0)
(1.5721948 0.70187288 0)
(1.2752994 0.018251691 -1.2336042e-18)
(1.0880249 0.014292608 1.5820994e-18)
(1.3936512 0.022013141 0)
(1.234438 0.021558045 0)
(2.0042288 0.014596011 0)
(1.877601 0.0052245788 0)
(1.9368603 0.0097046704 0)
(1.727675 -0.0043671611 0)
(1.6663135 -0.00055910852 0)
(1.7979781 -0.00065568981 0)
(0.10185591 1.8626742 0)
(0.080658221 1.8516786 0)
(0.1388988 1.9005142 0)
(0.15091371 1.9245728 0)
(0.14001839 2.7786583 0)
(0.18066284 2.8559669 -5.0012606e-19)
(0.09761247 2.8488473 0)
(0.080435483 2.8638301 2.2476535e-19)
(0.029883979 2.8790357 -1.9745802e-19)
(0.016589531 1.8022556 0)
(0.012987257 1.7705701 0)
(0.023843147 1.8097408 0)
(0.026304431 1.790292 0)
(0.010492947 2.2610756 -9.2750838e-21)
(-0.014679945 2.8187003 -2.5459943e-20)
(0.00038903404 2.8642476 4.4330668e-20)
(-0.0048474084 2.900012 0)
(-0.015409615 2.8258568 -5.5559441e-20)
(-0.015440458 2.8222823 -5.3220891e-21)
(0.012626586 2.2560048 1.2499378e-20)
(-0.0078202803 2.5820028 3.3627901e-20)
(-0.014493708 2.6191479 -5.6316977e-20)
(1.3029728 0.00030134708 1.4115646e-18)
(1.0970651 -0.0049502702 -1.7412536e-18)
(1.2513623 0.0056202452 -1.5208658e-18)
(1.1445126 -0.00057024115 2.019857e-18)
(1.4739612 0.059685179 0)
(1.3395936 0.058653801 0)
(1.512017 0.089448811 0)
(1.4802763 0.069650631 0)
(1.3262202 0.067197078 0)
(1.594157 0.15647253 0)
(1.5278437 0.10832888 0)
(1.3961934 0.097935803 0)
(-0.020036533 2.6239139 7.5803638e-22)
(-0.024071586 2.2796092 0)
(-0.020265379 2.4468828 0)
(-0.014125466 2.8234868 -1.7223491e-21)
(-0.013944818 2.8341227 -7.4712559e-23)
(-0.011047428 1.9930107 -1.9610625e-20)
(-0.01866256 1.9366929 1.9767417e-20)
(-0.017357946 1.8371539 0)
(-0.020358355 1.8442061 0)
(-0.020877327 1.8423912 0)
(-0.0029608192 1.7904014 0)
(2.5915711e-05 1.7597824 0)
(0.46134844 1.9886637 4.8977783e-19)
(0.47506192 2.0060035 2.4817575e-19)
(0.59167479 2.636843 -2.7205858e-19)
(0.38046787 2.765487 7.1544535e-19)
(0.40262228 2.2594499 9.6659286e-20)
(1.4065691 0.023297557 0)
(1.334315 0.02301429 0)
(1.144277 0.014419431 0)
(1.9817777 0.018051427 0)
(1.9612995 0.013045002 0)
(1.7250953 0.018717275 0)
(1.6326087 0.017226493 0)
(1.647808 0.02171916 0)
(1.3407572 0.010402786 1.1931442e-18)
(1.0402748 0.026367528 -1.5108564e-18)
(1.2984871 0.016091852 -1.2714029e-18)
(1.1374304 0.0084940295 1.6500057e-18)
(0.94966739 1.7345513 0)
(0.83398621 1.8593934 4.4438567e-19)
(1.1014587 1.6030331 1.9360879e-19)
(1.1411102 1.5651898 -2.5802781e-19)
(1.2751373 2.7098192 8.4368774e-19)
(0.83766121 0.077129213 9.1312162e-19)
(1.6036042 0.19406615 0)
(1.6521421 0.28699972 -5.4672242e-19)
(1.5603156 0.23549744 -2.1693592e-20)
(1.526803 0.16887796 0)
(0.21933006 2.9241394 1.0396678e-18)
(0.10315341 2.8155115 -2.2138405e-18)
(0.031195485 2.3854059 1.3824078e-18)
(0.074743061 -0.085932441 -6.8617962e-19)
(0.3692774 3.463443 1.9460334e-20)
(0.23744447 3.3705186 0)
(0.25055682 3.432025 -2.7422303e-20)
(0.266595 3.0858097 -2.5464165e-18)
(0.40106358 3.1738324 0)
(0.013887842 3.1194407 7.8440916e-20)
(0.016941904 3.1324201 -8.3641832e-19)
(0.031348956 3.1180259 1.3000346e-18)
(0.038066308 3.1485174 0)
(0.03584263 3.1564153 0)
(1.3585827 2.8032549 0)
(0.78897006 1.0647547 -8.9601884e-19)
(1.3076542 1.3123538 -3.7630663e-20)
(1.2332966 1.4083912 0)
(1.1446439 1.344476 -1.684466e-19)
(1.3697353 1.1795597 3.8483439e-20)
(0.41261532 0.46647211 -1.6221908e-18)
(0.80355952 0.33175167 -2.8425419e-20)
(0.69072978 0.24869367 7.2714792e-19)
(0.70433083 0.47568856 5.3500552e-20)
(0.58701619 0.42710014 -2.1966857e-18)
(0.77312602 0.37792561 0)
(0.90387476 0.4934749 1.2112373e-18)
(0.90549868 0.45760407 0)
(0.74691304 0.42955971 0)
(0.66171466 0.34923325 0)
(1.2199638 0.84323211 7.0891728e-19)
(1.6537544 0.40587407 -6.192445e-19)
(1.6368314 0.57544732 0)
(1.6185558 0.50754673 0)
(0.78020022 0.18029409 1.0543873e-18)
(1.2350209 0.71460646 -6.8009402e-19)
(1.030168 0.63349637 1.2231482e-18)
(1.4450466 0.551013 -1.2224069e-18)
(1.2579699 0.0097545639 8.1248881e-19)
(1.2364004 0.013439922 -8.4628718e-19)
(1.0006516 0.01262882 0)
(1.4414381 0.041689106 0)
(1.3855183 0.031265591 -7.3372464e-19)
(1.2004782 0.0229127 7.2498613e-19)
(1.828869 0.019333646 0)
(1.7059809 0.0057493516 0)
(1.9109229 0.0045109643 0)
(1.6756043 0.0095963599 0)
(1.9563837 0.018216137 0)
(1.9413937 0.015853384 0)
(0.071048293 1.8470056 0)
(0.057934539 1.8240468 0)
(0.16862964 1.8285211 9.0613009e-21)
(0.30845059 1.9707186 1.4812739e-19)
(0.19282759 1.959021 3.2825502e-19)
(0.21671375 1.9777738 -5.2922535e-19)
(0.20756321 1.8634518 0)
(0.16869457 1.9824737 -8.6762073e-20)
(0.15044821 1.969981 0)
(0.37229424 2.2179512 -1.3393095e-19)
(0.35784909 2.5120819 6.6820302e-19)
(0.22688026 1.9199808 7.775704e-20)
(0.30522777 1.8652102 5.4876668e-20)
(0.24975133 1.8486722 -4.4691997e-20)
(0.3354072 1.7977658 -1.0603715e-19)
(0.26504078 1.9616345 0)
(0.31408028 1.9779115 1.164076e-19)
(0.041544291 2.4749643 -4.3802452e-20)
(0.035606153 2.8692162 0)
(0.064647524 2.5785258 1.7262793e-19)
(0.056811584 2.5834441 0)
(0.059237345 2.883193 -2.4995796e-19)
(0.045927887 2.9232313 0)
(0.026619135 1.863592 1.4046849e-20)
(0.032943167 1.9114282 0)
(0.036999777 1.8464406 0)
(0.028170348 1.8343517 -1.5928845e-20)
(0.0090501827 2.8503085 -1.1655686e-21)
(0.0177919 2.881512 2.2874469e-19)
(0.010991565 2.9203873 1.5906898e-21)
(0.010011211 2.1539995 6.551388e-21)
(0.0075714716 2.0607411 6.1320063e-22)
(0.012342021 1.7885438 0)
(0.0088205682 1.7565957 0)
(0.049481278 1.9861616 3.2062186e-20)
(0.041266568 1.8823824 -4.953207e-21)
(0.042219118 1.9418337 -4.3606508e-21)
(0.056532547 2.003817 0)
(-0.034261144 2.4839149 3.5738413e-20)
(-0.029075394 2.7308256 4.8817065e-22)
(-0.027608209 2.6483912 -2.710621e-21)
(0.0068375161 2.157362 -7.7527149e-21)
(-0.02105293 2.6743776 -4.8391989e-21)
(-0.020708677 2.6442501 4.4501754e-20)
(1.2574075 0.0045979063 -8.8941789e-19)
(1.2653821 -0.0046855677 9.1780886e-19)
(1.0528919 -0.0027966334 0)
(1.5012907 0.068976484 1.5172591e-18)
(1.1919098 0.007481925 -1.6879615e-18)
(1.1461138 0.002909474 1.9163636e-18)
(1.5253717 0.10209106 -2.0787288e-19)
(1.427409 0.044368906 0)
(1.4379014 0.052688603 7.5231032e-19)
(1.3183941 0.047055032 -7.4558069e-19)
(1.682984 0.098742919 -4.72707e-20)
(1.6595134 0.081127676 4.0420968e-19)
(1.7851863 0.1028678 0)
(1.8483961 0.097695159 -1.5834066e-19)
(1.7340754 0.039824227 0)
(1.6097329 0.022298536 0)
(1.8561225 0.018766831 0)
(1.663006 0.011394745 0)
(1.8582997 0.054739466 3.116233e-19)
(1.844319 0.03615465 -6.5191473e-19)
(1.8349981 0.084178849 -3.1596582e-19)
(1.8402497 0.078219908 -3.6686009e-19)
(1.8080375 0.124479 7.381685e-19)
(1.6713534 0.12405724 0)
(1.7166238 0.17010286 0)
(-0.028593545 2.4805715 5.1514674e-20)
(-0.024353722 2.2942157 7.2051119e-23)
(-0.023841956 2.2877759 0)
(-0.028451365 2.6671879 -5.2931414e-20)
(-0.02198186 2.6258743 -7.8536552e-22)
(-0.025523051 2.6596061 3.9520498e-21)
(-0.017922648 2.8392001 6.4169621e-21)
(-0.015546424 2.7556192 -2.1274571e-21)
(-0.017830835 2.7215288 -3.3625819e-22)
(-0.012526316 2.832433 -6.0283864e-21)
(-0.018942504 2.8330681 8.9840268e-21)
(-0.011168437 1.9030954 -2.0223046e-21)
(-0.0010037375 2.0157003 -1.6929386e-20)
(0.47100009 1.9133241 -2.130422e-19)
(0.43631053 1.834068 5.258081e-20)
(0.80280432 1.8870279 -4.3147166e-19)
(0.6369189 1.9745577 -2.3948447e-19)
(0.66068927 1.9672191 0)
(0.641817 2.6006684 2.500608e-19)
(0.69791137 2.6138634 3.9604523e-19)
(0.44657835 2.6971195 1.1198074e-19)
(0.45571879 2.7048193 -6.8920273e-19)
(0.5424518 2.6363607 6.7289727e-19)
(0.5528418 2.6540194 0)
(0.48430023 2.7099457 -6.3367728e-19)
(0.22643524 2.7800959 1.2765994e-18)
(0.33340552 2.7660181 -5.0145157e-20)
(0.26916054 2.8545182 -1.7445634e-18)
(1.0209431 2.5464681 1.0114061e-18)
(0.89188427 2.5588111 0)
(1.9551127 0.024527731 2.3865494e-20)
(1.6607578 0.023534996 -2.0407012e-20)
(1.68065 0.023419843 -3.5895376e-19)
(1.8810071 0.029736891 3.5977843e-19)
(1.9901572 0.030396481 0)
(0.87639662 1.7325149 0)
(0.88374041 1.6403817 0)
(1.0562741 1.536154 0)
(0.91565535 1.554262 0)
(1.2819323 2.7455231 -1.7598028e-21)
(1.1921752 2.5726294 0)
(0.93884978 2.2785359 6.0767176e-21)
(0.87948718 2.5464944 0)
(0.99542499 2.6156306 -5.1949916e-19)
(1.0241241 2.6033745 3.5503374e-19)
(0.85273534 0.11607026 0)
(0.81099362 0.12288326 2.5366857e-19)
(1.092985 0.11983539 1.3974909e-18)
(0.88939619 0.077047661 -5.4407777e-19)
(0.83446671 0.022408927 -1.6285369e-18)
(1.7012365 0.33689764 -1.1971777e-18)
(1.5579741 0.41159155 -2.9406585e-20)
(1.2786395 0.32998413 1.4110858e-18)
(1.5298554 0.29291392 1.1419994e-18)
(1.2995117 0.17142993 -1.8747111e-18)
(1.2443641 0.18620233 2.383921e-19)
(1.2826957 0.25878638 -5.2649634e-19)
(1.273577 0.22740639 0)
(1.5240437 0.21193019 9.2003608e-19)
(1.6466573 0.251473 0)
(1.6422386 0.30186627 0)
(1.6860306 0.21169905 3.6575925e-19)
(1.7649193 0.26026904 -2.3188515e-20)
(1.7244923 0.33814552 -2.1074779e-19)
(1.6973144 0.3003393 0)
(1.5596153 0.027264284 7.6951544e-19)
(1.8084054 0.078624835 9.353456e-19)
(1.7629018 0.051363396 -7.3145476e-19)
(1.7563226 0.097620543 -6.3802033e-19)
(1.5509637 0.064122928 -1.0885589e-18)
(1.4036235 0.13241749 0)
(1.4269083 0.11822026 0)
(1.1440645 0.028314434 -6.9528483e-19)
(1.0548044 0.03016787 2.844831e-19)
(1.6776568 0.12880955 9.4922487e-19)
(1.7836565 0.19867458 -1.0752337e-18)
(1.7578511 0.21445955 9.8543238e-19)
(1.6981477 0.1949485 0)
(1.7765288 0.16434306 0)
(1.8100088 0.14456095 -4.182419e-19)
(1.7790754 0.13179374 -7.7340833e-19)
(0.75485379 1.5137937 2.4243009e-19)
(0.82769388 1.8344607 -2.7025449e-19)
(1.1845249 2.7749016 -3.0697198e-19)
(1.3035367 3.1263763 5.9684347e-20)
(1.3455918 2.823669 -6.5510048e-19)
(1.4001618 2.8904427 8.8513101e-20)
(1.2722099 2.5675372 2.6199547e-20)
(1.3352043 3.0514236 -2.3003244e-19)
(1.3423161 3.070791 4.3758099e-19)
(1.3208795 3.334181 -5.2489651e-20)
(1.4371611 3.1025734 5.4160206e-20)
(1.4535044 3.0309656 0)
(0.79304828 1.1520945 -7.9649659e-20)
(0.24519191 1.3292125 9.075728e-19)
(0.65741546 0.66237008 1.0702183e-18)
(0.4320781 0.23512502 1.221199e-18)
(0.62771874 0.48662315 1.2351976e-18)
(0.70964977 0.59722847 -2.0463548e-18)
(0.6978422 0.61165647 1.6629402e-18)
(0.59663307 0.51558674 -6.3638813e-19)
(0.4713643 0.40217046 1.4395305e-18)
(0.82305883 0.23082267 -5.9574951e-19)
(0.79107478 0.26590396 0)
(0.69815391 0.2140597 1.3916942e-20)
(0.96668779 0.63108576 6.4858812e-19)
(0.90772253 0.57513309 -2.3637141e-18)
(0.7657237 0.59721474 2.2543626e-20)
(0.78551 0.55778474 0)
(0.94619337 1.0309778 7.0487708e-19)
(1.210974 1.0880809 6.1897629e-19)
(1.1057342 1.2149727 -7.1277761e-19)
(1.2643939 1.1187203 -2.4518995e-19)
(1.3038257 1.1773937 -5.2887286e-20)
(1.2873088 1.1766833 5.3375494e-20)
(1.3117277 0.89838861 -1.1692282e-18)
(1.3359992 1.0050922 2.3014523e-19)
(1.4107929 1.007424 0)
(1.4419325 0.95541966 -2.9615707e-19)
(1.6041885 0.44349641 3.3966164e-19)
(1.6905274 0.4373023 3.7906405e-19)
(1.6934757 0.40240961 5.0822638e-19)
(1.5869947 0.53247129 -6.8892184e-19)
(1.5917839 0.59223704 0)
(1.619612 0.56550618 0)
(1.2624073 0.45857026 2.417934e-20)
(1.0941584 0.31595538 0)
(1.1584139 0.29584298 6.8653855e-19)
(1.2607105 0.34085782 -1.8761246e-20)
(1.4401726 0.5971031 3.1742808e-18)
(1.3524132 0.69404863 8.8672316e-19)
(1.3257938 0.60213575 -1.0037607e-18)
(1.1166919 0.53673972 1.0930216e-18)
(1.0625568 0.53000075 6.5068212e-19)
(0.98070869 0.47009555 -6.383085e-19)
(1.673826 0.03776277 6.1064114e-19)
(1.9500126 0.033099839 0)
(1.9155589 0.039650387 4.1428043e-19)
(1.6926184 0.036892018 -9.2692947e-19)
(1.9326471 0.029346318 4.5913174e-19)
(1.8750238 0.012193131 -9.7419487e-19)
(1.6932793 0.011239022 0)
(1.5790195 0.016396449 -2.021737e-19)
(1.8414836 0.011693237 5.0500762e-19)
(1.6696678 0.013477853 -2.6085256e-19)
(1.6077699 0.018179139 1.9088178e-19)
(0.03361287 1.8152634 0)
(0.038960498 1.8270699 0)
(0.049177912 1.8252886 0)
(0.037227801 1.8042184 0)
(0.086543472 1.841107 -4.6683655e-20)
(0.10210463 1.8228903 2.3630002e-20)
(0.13482452 1.9135345 -2.4972117e-20)
(0.11792924 1.8092231 -5.0392289e-21)
(0.049015481 1.89087 -2.598053e-21)
(0.051863923 1.885279 2.0741469e-21)
(0.080266143 1.8317481 -2.0372444e-20)
(0.071647199 1.8374681 5.3774292e-20)
(0.056352707 1.8217606 7.0814103e-21)
(0.045932884 1.8309035 1.1144391e-21)
(0.090810742 2.5206288 -1.8559762e-19)
(0.094372162 2.5544328 0)
(0.15914579 2.2673971 1.106564e-19)
(0.14540199 2.0575807 6.172423e-20)
(0.2647924 2.2368877 -1.0168916e-19)
(0.23208551 2.60594 0)
(0.27529631 2.5927615 -6.6196694e-19)
(0.32427226 2.4955368 4.7595606e-19)
(0.22678482 2.1988668 -2.5656687e-19)
(0.1756279 2.3579047 1.7681032e-19)
(0.16580321 2.4932479 0)
(0.024048597 2.21524 -7.5361302e-20)
(0.022328625 2.5881907 -9.9649151e-20)
(0.018888591 2.358923 0)
(0.019483736 2.6467779 -1.6060082e-20)
(0.037798202 2.4810884 4.8687828e-20)
(0.012916843 1.848286 -5.1233578e-21)
(0.010907266 1.8404783 8.0449855e-20)
(0.014481701 1.8446443 -2.8841695e-20)
(0.020493835 1.8407049 -2.1286829e-20)
(0.025795438 1.8704639 0)
(0.0083946401 1.8229101 0)
(0.0024084938 1.7811566 -3.6393743e-20)
(0.0040671453 1.8151735 1.0336649e-20)
(0.0068426682 1.8181467 0)
(0.0067182793 1.7788316 -2.6465543e-20)
(0.0042799155 1.752526 5.5007434e-20)
(1.6441927 0.050350485 0)
(1.6374123 0.053022599 -6.9728605e-20)
(1.9274481 0.052246609 -5.4105238e-19)
(1.8034882 0.062695072 0)
(1.6492893 0.055853798 0)
(1.8989134 0.041484734 5.3415843e-21)
(1.901873 0.04233724 8.061205e-19)
(1.7764933 0.02143956 1.0355048e-18)
(1.6565733 0.014554169 0)
(1.5793203 0.01585088 0)
(1.7618282 0.033268046 5.3972124e-19)
(1.6039723 0.023863788 0)
(1.5771531 0.0090932489 0)
(-0.014658146 2.2827241 0)
(0.0008454775 2.0449498 -8.9949611e-21)
(-0.010380612 2.1662315 -1.5381358e-20)
(0.0016279349 1.8271748 0)
(-0.0054724516 1.9564276 -1.1600711e-20)
(-0.006794875 1.8879323 7.7640634e-21)
(-0.0036107526 1.8255548 0)
(0.49864854 1.9256255 0)
(0.44354321 1.7297008 -1.2510761e-19)
(0.40722094 1.736452 0)
(0.53489497 1.7732229 7.3266888e-21)
(0.6126644 1.9271054 0)
(0.55502367 1.8758127 4.5645528e-20)
(1.111813 2.8055769 -2.087111e-20)
(1.0421466 2.5666952 -1.1638414e-18)
(1.0362045 2.4565476 1.3485267e-18)
(0.91835337 2.5466315 3.326407e-19)
(0.90981417 2.6080909 0)
(0.97451628 2.5887136 0)
(0.99567116 2.5508223 0)
(0.97636665 2.5463579 -1.2021163e-18)
(0.73509032 2.5570024 -5.3405319e-19)
(0.85961849 2.5809351 -1.2563157e-19)
(0.86047584 2.5362017 1.0050813e-19)
(0.74770752 2.5779713 0)
(0.84824573 2.5709881 0)
(0.80349849 2.5879669 -4.326322e-19)
(0.80497994 2.6014823 0)
(0.87170128 1.5077109 0)
(0.73250303 1.2811892 -8.0470244e-19)
(0.82292967 1.3044528 -4.9169465e-20)
(0.76876224 1.4174325 0)
(0.75677878 1.377515 1.2264301e-18)
(1.1178211 1.2621345 -1.9428581e-19)
(1.0774293 1.3938934 0)
(1.0959468 1.3294935 2.8762474e-19)
(0.92344274 1.4575253 0)
(0.95351767 1.3348959 0)
(1.2516525 2.8199175 -3.6863536e-19)
(1.21203 2.8562888 -2.6241365e-19)
(1.0046835 2.3681969 4.541461e-19)
(1.0042909 2.401458 -1.5384466e-19)
(1.2200363 2.810913 0)
(1.1769215 2.7672151 1.9545626e-19)
(1.2050428 2.6460927 -3.6828742e-19)
(1.1143076 2.4875569 -2.9325371e-20)
(0.68946971 1.7072122 0)
(0.70755554 1.5139131 -2.1344349e-19)
(0.76274573 1.6025606 0)
(1.0948262 0.23153802 0)
(0.82225109 0.1411081 0)
(0.6860259 0.12394773 0)
(1.0753699 0.23993912 -1.0697811e-18)
(0.84075559 0.17909645 6.2250109e-19)
(1.0618692 0.029119775 -5.6312408e-19)
(1.1588042 0.092082044 0)
(1.1361808 0.11045805 2.5055303e-19)
(0.92630553 0.034187164 1.015361e-18)
(0.85791075 0.012221924 -6.4120409e-19)
(1.3280829 3.4579343 -2.6423203e-19)
(1.3116164 3.3894981 0)
(1.3480608 3.4126813 -6.0572494e-19)
(0.53422432 3.5120973 5.7477139e-19)
(0.78166572 3.0423418 -3.9441948e-19)
(0.67253426 1.1431568 1.0054735e-18)
(0.64253117 1.1820128 0)
(0.54632716 0.66793191 -2.775749e-19)
(0.66607247 0.96403916 1.4864212e-18)
(0.68474096 0.61508358 -3.7631845e-19)
(0.66033449 0.68614237 4.295806e-19)
(0.83856344 0.65410486 8.8796991e-19)
(0.92745513 0.68186402 0)
(0.86958393 0.79192202 0)
(0.78015018 0.73592503 0)
(1.4789674 0.84120327 9.6530377e-20)
(1.3871384 0.7624994 -8.4319194e-19)
(1.3904455 0.81100478 6.2958908e-19)
(1.4567442 0.71365218 -6.4036913e-19)
(1.5663889 0.70797138 0)
(1.5690234 0.77372937 -1.4693241e-19)
(1.1108941 0.47972427 -1.4438327e-18)
(1.142773 0.47581038 -1.7209054e-18)
(1.0333264 0.43308153 1.1306626e-18)
(1.0145896 0.39641635 -1.1513062e-18)
(1.0934214 0.35305189 -8.9385937e-19)
(0.9943191 0.33532635 1.109912e-18)
(1.9144827 0.030284902 -4.9589487e-19)
(1.9435589 0.032694349 1.0034864e-18)
(1.6762959 0.037984123 6.2358747e-19)
(1.6920512 0.044813211 -7.4200011e-19)
(1.7839192 0.050830646 0)
(1.9382133 0.045987268 -1.3070344e-18)
(0.073049211 2.0401983 2.4389188e-20)
(0.069828611 1.9836739 0)
(0.10602031 2.0346229 2.5654786e-19)
(0.11834443 2.0261024 -2.3247364e-19)
(0.10283692 1.9415703 4.4238004e-20)
(0.093691319 1.9350194 0)
(0.010432391 2.0667344 0)
(0.0055156883 1.9072415 3.7003984e-21)
(0.0036618241 1.8729342 -3.3480553e-21)
(-0.0047885883 1.9560297 5.0845158e-21)
(-0.003993452 2.2021233 4.9110335e-21)
(-0.0034311758 2.2236652 3.9616799e-21)
(0.66877604 1.7200021 -4.744619e-19)
(0.62747421 1.7536479 5.0079597e-19)
(0.57538632 1.7495355 -1.6730545e-20)
(0.58160779 1.6943733 1.6498225e-20)
(0.81266647 1.7679075 0)
(0.68236889 1.8570988 2.0367621e-19)
(0.74770117 1.8632413 -1.9795448e-19)
(0.61093503 1.7767477 1.6596477e-20)
(0.69015373 1.706182 0)
(0.74447317 1.6841689 0)
(0.71234739 2.526213 7.8195274e-19)
(0.71380389 2.589816 1.4525332e-18)
(0.75998939 2.5917467 -1.043674e-18)
(0.63252599 2.5975217 -2.1876357e-19)
(0.61954145 2.6579219 3.5917402e-19)
(0.57247114 2.6272206 -9.0432117e-19)