/*--------------------------------*- C++ -*----------------------------------*\
  =========                 |
  \\      /  F ield         | OpenFOAM: The Open Source CFD Toolbox
   \\    /   O peration     | Website:  https://openfoam.org
    \\  /    A nd           | Version:  9
     \\/     M anipulation  |
\*---------------------------------------------------------------------------*/
FoamFile
{
    format      ascii;
    class       volScalarField;
    location    "0.98";
    object      alpha.phase1;
}
// * * * * * * * * * * * * * * * * * * * * * * * * * * * * * * * * * * * * * //

dimensions      [0 0 0 0 0 0 0];

internalField   nonuniform List<scalar> 
10000
(
5.5216815e-84
2.4175642e-83
1.0170221e-81
4.2297745e-81
4.6614447e-81
1.7185483e-81
6.0611455e-82
6.0613734e-82
1.5214004e-80
7.5263474e-78
3.614964e-75
1.6110599e-72
6.6259708e-70
2.5270571e-67
8.9945732e-65
3.005821e-62
9.4728212e-60
2.8242483e-57
7.9832247e-55
2.1428562e-52
5.4666276e-50
1.3256548e-47
3.0542962e-45
6.6766368e-43
1.3812097e-40
2.6928531e-38
4.910823e-36
8.290206e-34
1.2798935e-31
1.7840535e-29
2.2155295e-27
2.4184881e-25
2.2907915e-23
1.8595794e-21
1.2769945e-19
7.4267692e-18
3.9554727e-16
1.6990962e-14
2.461048e-13
1.2452061e-12
2.7253072e-11
6.0397963e-10
1.0228053e-08
2.9256477e-06
8.0355329e-06
8.0676081e-06
6.829364e-06
9.9950793e-07
4.5293553e-07
2.2869701e-06
3.2231751e-06
3.2623597e-06
3.2623597e-06
3.2623597e-06
3.0966239e-06
4.75247e-07
2.1641457e-07
6.5990086e-07
1.2048391e-05
1.7862476e-05
8.4646077e-06
1.5586565e-06
1.5611836e-06
1.8396228e-06
1.8415001e-06
5.4362893e-07
1.1030467e-09
1.0098024e-10
6.9878425e-12
1.564697e-12
4.6455334e-13
5.7932426e-14
3.4134203e-15
1.5465173e-16
6.7264926e-18
2.7116911e-19
9.7317642e-21
3.0908976e-22
8.6807834e-24
2.1479829e-25
4.6584211e-27
8.8011604e-29
1.4384846e-30
2.0177075e-32
2.4064974e-34
2.4143379e-36
2.0115903e-38
1.3706245e-40
7.4942034e-43
3.2102667e-45
1.043631e-47
2.4619779e-50
3.9415226e-53
3.8322225e-56
8.8640209e-59
8.4459903e-59
2.7378887e-57
7.4068456e-56
1.2074827e-54
5.0067278e-54
5.5216815e-84
1.8632252e-82
6.396008e-81
2.7372837e-80
3.4877101e-80
2.5543285e-80
1.3462408e-80
7.0495064e-81
5.1263547e-80
1.1715892e-77
3.5661178e-75
1.349619e-72
5.4928243e-70
2.0799993e-67
7.3777629e-65
2.4539234e-62
7.6889142e-60
2.277797e-57
6.4019067e-55
1.7109126e-52
4.3538423e-50
1.0561699e-47
2.4421246e-45
5.3785127e-43
1.125344e-40
2.2272327e-38
4.1420279e-36
7.1694878e-34
1.1415241e-31
1.6510375e-29
2.1421476e-27
2.4599219e-25
2.4651766e-23
2.1242824e-21
1.5569152e-19
1.0128649e-17
6.4912445e-16
1.6283576e-14
7.8272718e-14
1.870077e-12
5.4814842e-11
1.3803378e-09
3.4976698e-07
6.3097841e-06
8.0690042e-06
5.1192652e-06
5.2011691e-08
5.2064674e-08
5.2068804e-08
5.2091951e-08
5.2439977e-08
5.426187e-07
8.2351846e-07
1.4954049e-07
1.1918127e-07
1.5272199e-07
1.7625218e-07
2.5625454e-07
4.1711829e-05
4.4729624e-05
4.4612477e-05
1.7878955e-05
1.5611836e-06
1.6848289e-06
3.3358377e-06
4.0811322e-06
2.6513781e-06
4.6852242e-08
1.0096533e-10
6.4203084e-12
7.2155887e-13
2.2078269e-13
2.6924587e-14
1.1776255e-15
3.9297013e-17
1.3772481e-18
4.607886e-20
1.3865021e-21
3.7079645e-23
8.7582098e-25
1.8135235e-26
3.267309e-28
5.0822487e-30
6.7685426e-32
7.6468805e-34
7.2521939e-36
5.7063806e-38
3.6727037e-40
1.8039647e-42
6.7303586e-45
1.8250406e-47
3.4410695e-50
4.1731895e-53
2.920171e-56
4.0976434e-57
1.1085467e-55
4.2469722e-54
8.0995325e-53
3.8408933e-52
4.4241095e-52
2.9853669e-81
2.3334174e-79
5.4999925e-78
1.8239623e-77
2.1135068e-77
1.500955e-77
7.6097047e-78
3.814049e-78
1.6610927e-77
2.5667678e-75
3.4004931e-73
4.0333505e-71
4.390762e-69
4.7733923e-67
6.2200143e-65
1.1796386e-62
3.017125e-60
8.9729105e-58
2.5524595e-55
6.8608678e-53
1.7538825e-50
4.2913003e-48
1.0079226e-45
2.2745962e-43
4.9246727e-41
1.0185867e-38
1.9988775e-36
3.6871745e-34
6.3176594e-32
9.9017978e-30
1.3943556e-27
1.7344173e-25
1.8772217e-23
1.7424851e-21
1.369767e-19
9.7485041e-18
7.3217081e-16
1.8720599e-14
7.9194653e-14
2.5839469e-12
9.2984359e-11
2.8620082e-09
2.0882543e-06
7.8656164e-06
7.8603558e-06
8.5228416e-07
5.1940238e-08
5.2011683e-08
5.2112547e-08
5.244705e-08
5.5432438e-08
6.5780537e-08
6.8496224e-08
6.8496224e-08
1.0867955e-07
6.801899e-07
3.625323e-07
1.1171679e-06
2.6595288e-05
4.4574791e-05
4.4729624e-05
4.4574791e-05
3.590678e-05
3.1220745e-06
3.7148896e-06
4.0581402e-06
2.1336304e-06
1.4489765e-08
4.7869518e-10
2.6124366e-11
1.8865145e-12
6.7003106e-13
8.3525008e-14
3.9550962e-15
1.3831378e-16
4.7408219e-18
1.536748e-19
4.4802049e-21
1.1492971e-22
2.5666489e-24
4.941596e-26
8.2127198e-28
1.1702898e-29
1.416493e-31
1.4399456e-33
1.2120822e-35
8.2950846e-38
4.5111856e-40
2.0572198e-42
7.2986154e-45
1.9636194e-47
3.73041e-50
4.2748411e-53
1.9915056e-54
2.1882694e-54
1.0710006e-52
3.6855063e-51
6.1902356e-50
2.9404241e-49
3.8542165e-49
1.6197064e-78
1.736234e-76
3.0716762e-75
8.3783433e-75
9.1439211e-75
6.376065e-75
3.1574691e-75
1.5507933e-75
5.5875394e-75
9.0420547e-73
1.2400907e-70
1.4991579e-68
1.6202269e-66
1.5813386e-64
1.4066317e-62
1.1484712e-60
8.6968588e-59
6.1646875e-57
4.2479713e-55
3.2184903e-53
3.4686261e-51
5.925047e-49
1.3262361e-46
3.2065337e-44
7.3541349e-42
1.6170968e-39
3.4215079e-37
6.9226448e-35
1.3248549e-32
2.362397e-30
3.8515784e-28
5.6265475e-26
7.2190256e-24
7.9782282e-22
7.4776037e-20
5.980094e-18
4.0732128e-16
1.7274877e-14
3.3703735e-13
8.4883629e-12
2.6473617e-10
6.2392343e-09
1.9230375e-06
7.8485166e-06
7.1676157e-06
5.1932525e-08
5.1922598e-08
5.194023e-08
5.2408236e-08
5.5073133e-08
6.5249567e-08
8.9411754e-08
7.4839365e-08
6.8496224e-08
7.3602639e-08
1.7789962e-06
1.2945959e-05
1.6005467e-05
9.6600515e-06
8.0693246e-06
3.985027e-05
4.4236636e-05
4.3958491e-05
3.8437736e-05
5.7780221e-06
2.1966463e-06
8.9431593e-07
5.2039764e-09
4.4694674e-10
2.9372925e-11
2.3351968e-12
8.8999649e-13
1.2315424e-13
5.9039925e-15
1.9183705e-16
6.1970371e-18
1.8999471e-19
5.1841268e-21
1.2393009e-22
2.5887348e-24
4.7583193e-26
7.6238734e-28
1.0523158e-29
1.2375643e-31
1.2242958e-33
1.0053876e-35
6.747937e-38
3.6262398e-40
1.4526254e-42
4.310386e-45
8.8592001e-48
1.1694299e-50
3.2443015e-53
2.6938974e-53
1.7020672e-51
7.7421281e-50
2.4276907e-48
3.619185e-47
1.6519441e-46
2.2984659e-46
6.3288045e-76
7.6405593e-74
1.1821276e-72
2.9016039e-72
3.0480252e-72
2.1094113e-72
1.0296557e-72
4.9699734e-73
1.4895444e-72
2.5663789e-70
3.6908853e-68
4.629156e-66
5.1543417e-64
5.1574806e-62
4.6824003e-60
3.8862538e-58
2.9661583e-56
2.0935494e-54
1.3721978e-52
8.3919427e-51
4.8062353e-49
2.547704e-47
1.2319765e-45
5.7530125e-44
3.3611083e-42
2.7797461e-40
2.4389134e-38
3.3384475e-36
7.7408596e-34
1.7095955e-31
3.3630894e-29
5.9936885e-27
9.4608609e-25
1.2871817e-22
1.4732181e-20
1.3910383e-18
1.0672801e-16
6.4469493e-15
2.165154e-13
5.6838632e-12
2.1778662e-10
7.2222503e-09
8.2759578e-07
5.7547238e-06
4.3264857e-06
5.1930248e-08
5.1940217e-08
5.2230046e-08
9.8069625e-08
9.3279808e-08
2.0056791e-07
5.960418e-07
1.801242e-07
8.0518616e-08
7.622284e-08
1.2717518e-06
1.9235574e-05
1.9230774e-05
1.7587748e-05
2.5552211e-06
1.081752e-06
1.7683388e-06
4.0884097e-05
4.1479605e-05
1.8139829e-05
1.3863072e-06
1.1466382e-06
1.9632833e-07
1.0398318e-09
5.0482531e-11
2.4813554e-12
3.7237947e-13
1.0639062e-13
1.0364839e-14
3.5410688e-16
8.9450385e-18
2.3921577e-19
5.9858381e-21
1.3034053e-22
2.4514018e-24
4.0432632e-26
5.7818346e-28
7.0874409e-30
7.3559537e-32
6.353882e-34
4.4773814e-36
2.5176442e-38
1.096977e-40
3.4892308e-43
7.689615e-46
1.0613336e-48
8.2437449e-52
2.3389965e-52
1.8313342e-50
1.0537889e-48
4.4938939e-47
1.2871273e-45
1.7090696e-44
7.3516589e-44
1.0472659e-43
1.9015471e-73
2.4072005e-71
3.4834372e-70
8.068173e-70
8.2625044e-70
5.7090367e-70
2.7614576e-70
1.305739e-70
3.0839559e-70
5.8411781e-68
8.9676234e-66
1.1796107e-63
1.3621404e-61
1.4034622e-59
1.3047844e-57
1.1041742e-55
8.5599216e-54
6.1110325e-52
4.0386524e-50
2.481438e-48
1.4211361e-46
7.5101263e-45
3.5816548e-43
1.587873e-41
7.8906429e-40
5.4370987e-38
3.163171e-36
8.2480097e-35
1.0243437e-33
9.1493414e-33
3.2041856e-31
1.0438526e-28
2.7428206e-26
5.4098114e-24
8.5757019e-22
1.0890188e-19
1.0967402e-17
8.8584658e-16
4.9388125e-14
1.5685953e-12
6.9024176e-11
3.0712413e-09
1.8402313e-07
1.1422737e-06
1.4381564e-06
5.5426994e-07
5.2208814e-08
5.4273826e-08
1.3550067e-07
3.5889693e-06
1.0555103e-05
3.3251358e-05
8.951503e-06
1.9970978e-07
9.6719489e-08
2.5996088e-07
1.7733487e-05
1.9238636e-05
1.9202228e-05
1.5831435e-05
9.5390049e-07
3.4058818e-07
6.4130243e-06
4.1440517e-05
3.3567956e-05
4.7706164e-06
1.5366371e-06
3.4280212e-07
1.6036333e-09
7.7517682e-11
3.6647491e-12
2.9772509e-13
1.6005868e-13
1.9170198e-14
5.4551961e-16
1.1982265e-17
2.9180604e-19
6.5772472e-21
1.3178608e-22
2.3628228e-24
3.6207091e-26
4.6877972e-28
5.0825297e-30
4.5461124e-32
3.3046319e-34
1.9091308e-36
8.4651678e-39
2.7413353e-41
6.0274464e-44
7.9471879e-47
3.2371863e-50
2.3201324e-51
1.4113009e-49
1.0217406e-47
5.4338897e-46
2.1817541e-44
5.6872675e-43
6.7289157e-42
2.7037141e-41
3.8560913e-41
5.1220161e-71
5.9629124e-69
8.3568994e-68
1.8741943e-67
1.8890301e-67
1.3074927e-67
6.29529e-68
2.8736435e-68
4.6804411e-68
1.0488998e-65
1.78281e-63
2.5045567e-61
3.03243e-59
3.2391014e-57
3.0981727e-55
2.6809189e-53
2.1156407e-51
1.5315117e-49
1.0216005e-47
6.3123016e-46
3.6178473e-44
1.9093377e-42
9.1554768e-41
4.085245e-39
1.8982528e-37
1.0349648e-35
5.4008601e-34
1.7676316e-32
2.988487e-31
2.7035757e-30
1.6137128e-29
1.0746414e-28
1.3542039e-27
6.7881663e-26
1.1251415e-23
2.0180307e-21
3.9234943e-19
5.3111268e-17
4.6044742e-15
2.3268599e-13
9.7582738e-12
4.4418029e-10
2.0607288e-08
8.7138686e-08
2.866637e-07
5.7349656e-07
1.7940336e-07
6.302717e-08
8.1204861e-08
9.2835262e-06
5.4587542e-05
5.810533e-05
5.4162384e-05
3.9190952e-06
2.5921376e-07
4.3699293e-06
1.9915069e-05
1.9202228e-05
1.7848626e-05
3.4167732e-06
3.1773362e-07
3.1196885e-07
3.2485701e-07
2.4843674e-05
6.4941438e-05
2.2355604e-05
8.4495653e-07
2.356972e-07
5.5666243e-09
2.5671674e-10
1.0725891e-11
1.3526301e-12
2.1308728e-13
1.3868607e-14
4.373212e-16
1.1234138e-17
2.7299949e-19
5.9031029e-21
1.1025258e-22
1.7507347e-24
2.3742756e-26
2.7095405e-28
2.5553208e-30
1.9465627e-32
1.1677618e-34
5.3294736e-37
1.7530569e-39
3.8229462e-42
4.7940003e-45
1.9623079e-48
3.866094e-50
8.3046133e-49
7.4283527e-47
4.8290685e-45
2.401309e-43
9.0572083e-42
2.1387239e-40
2.2575553e-39
8.4419086e-39
1.1887605e-38
2.5048535e-68
1.2273253e-66
1.6928157e-65
3.7399692e-65
3.7342494e-65
2.5985512e-65
1.2586549e-65
5.1577779e-66
3.8028748e-66
1.355476e-63
2.7894668e-61
4.3403119e-59
5.6137057e-57
6.2853675e-55
6.2305656e-53
5.5449435e-51
4.471932e-49
3.29119e-47
2.2232086e-45
1.3847162e-43
7.9615903e-42
4.2005454e-40
2.0216141e-38
9.1071056e-37
4.1009527e-35
1.8891965e-33
8.0763941e-32
2.8939336e-30
7.3133534e-29
9.5005105e-28
5.8067282e-27
2.1546445e-26
8.0736171e-26
8.8679007e-25
8.5257936e-23
4.6422828e-21
1.1823855e-19
2.8843353e-18
2.3837029e-16
2.2276587e-14
7.8951056e-13
3.5820825e-11
1.0291046e-09
8.0738513e-10
3.4818261e-09
7.1855837e-08
1.2817316e-07
8.1204861e-08
1.2860199e-07
9.9529393e-06
5.6194889e-05
5.8612291e-05
5.8595319e-05
3.4543363e-05
1.1096262e-05
2.0690709e-05
2.0251588e-05
1.3995838e-05
3.7585529e-07
3.1376261e-07
3.1191878e-07
3.1084052e-07
3.1163944e-07
2.4699906e-05
6.6851539e-05
3.2133924e-05
2.0751588e-07
4.690072e-08
5.0348191e-09
3.3185552e-10
1.7025642e-11
2.041326e-12
1.8595988e-13
8.5782149e-15
2.6168976e-16
6.8707096e-18
1.5755706e-19
3.099039e-21
5.1645146e-23
7.255966e-25
8.5565937e-27
8.3315834e-29
6.5529166e-31
4.0396509e-33
1.8749298e-35
6.1760012e-38
1.3138269e-40
1.5344762e-43
5.7844747e-47
9.3515695e-49
3.990896e-48
4.2670447e-46
3.3223936e-44
1.9767916e-42
9.2397483e-41
3.254414e-39
6.927308e-38
6.5657694e-37
2.2781792e-36
3.1430059e-36
3.1384284e-65
2.2678005e-64
2.9716473e-63
6.5482415e-63
6.5039242e-63
4.5558246e-63
2.2320976e-63
8.1894816e-64
7.5592509e-65
9.8644807e-62
3.1479947e-59
5.8650544e-57
8.3552588e-55
9.9580187e-53
1.0320127e-50
9.4971715e-49
7.8632321e-47
5.904405e-45
4.0471776e-43
2.5469618e-41
1.4730897e-39
7.795545e-38
3.7662679e-36
1.7017377e-34
7.463812e-33
3.1120715e-31
1.1678394e-29
4.3496238e-28
1.5085708e-26
2.5860229e-25
1.6482797e-24
4.999321e-24
1.1652103e-23
4.7844092e-23
5.8522906e-21
2.97602e-19
2.9859539e-18
1.1647986e-17
9.5095159e-17
2.1631289e-15
1.3311607e-13
7.9138468e-12
7.5177577e-12
2.8677246e-11
3.9655747e-10
2.2257497e-07
1.2829997e-07
3.3898669e-07
1.8755465e-06
1.7547069e-06
7.4122039e-06
4.9996512e-05
5.8598895e-05
5.7680505e-05
5.1255267e-05
3.0825964e-05
1.0814109e-05
5.7620431e-07
3.2761192e-07
3.1225703e-07
3.1084052e-07
3.1078068e-07
3.1083971e-07
3.6834467e-05
6.7259628e-05
6.5284258e-05
5.498345e-06
1.2208871e-08
1.1353925e-09
1.4631848e-10
1.2573215e-11
1.3849862e-12
9.4760101e-14
3.5019924e-15
9.8281626e-17
2.3885001e-18
4.9374089e-20
8.6061974e-22
1.259442e-23
1.5346345e-25
1.5334249e-27
1.2303666e-29
7.6940604e-32
3.5936959e-34
1.1733569e-36
2.4029458e-39
2.6608545e-42
1.0738102e-45
2.0892153e-47
1.6773264e-47
2.0482057e-45
1.8441773e-43
1.2900236e-41
7.0928641e-40
3.116828e-38
1.018733e-36
1.951851e-35
1.6717427e-34
5.3835971e-34
7.2484145e-34
4.0991631e-62
5.0031034e-62
4.6255687e-61
1.0212528e-60
1.0129087e-60
7.148157e-61
3.514716e-61
1.2808826e-61
9.1281637e-63
2.2007081e-60
1.3006012e-57
3.1318778e-55
5.0920038e-53
6.6426572e-51
7.3283466e-49
7.067433e-47
6.0734554e-45
4.7090368e-43
3.3158669e-41
2.13317e-39
1.2595956e-37
6.8448233e-36
3.4268009e-34
1.5670784e-32
6.4271075e-31
2.4078921e-29
9.9894519e-28
7.2294654e-26
4.9629839e-24
9.9280124e-23
5.5067347e-22
1.286997e-21
2.0186405e-21
5.0094596e-21
5.1993207e-19
1.6688697e-17
1.2504535e-16
3.8211306e-16
7.1560525e-16
2.3340303e-15
1.5457124e-14
4.0274498e-13
4.5193834e-13
2.130713e-12
9.8682606e-09
6.2878961e-07
3.4812814e-07
3.5459839e-06
4.7045888e-06
1.4885165e-06
1.466062e-06
1.5213369e-06
5.1069464e-05
4.3920306e-05
1.3946789e-05
1.0155406e-05
1.1673244e-05
1.9852819e-05
2.2890662e-06
3.1209262e-07
3.1078165e-07
3.1078617e-07
4.6843526e-06
6.7259628e-05
6.7405632e-05
6.7479062e-05
1.3230617e-05
3.5631972e-08
2.6574742e-09
1.233255e-10
6.2704015e-12
5.52416e-13
2.7712369e-14
8.6699306e-16
2.182501e-17
4.6899365e-19
8.507241e-21
1.293715e-22
1.6364155e-24
1.6947191e-26
1.4045168e-28
9.025364e-31
4.2951133e-33
1.40585e-35
2.8404079e-38
3.1941069e-41
1.7067291e-44
1.3467905e-46
6.6317108e-47
8.6497022e-45
8.6164476e-43
6.9121041e-41
4.394158e-39
2.2415449e-37
9.2371209e-36
2.783905e-34
4.8401817e-33
3.7522735e-32
1.1236446e-31
1.4744492e-31
4.2865174e-59
2.2891578e-59
6.6054666e-59
1.4336317e-58
1.4269633e-58
1.0161459e-58
5.0623724e-59
2.0535887e-59
9.5106929e-61
3.8206856e-59
3.8644423e-56
2.2544299e-53
5.8187477e-51
9.2608253e-49
1.1354134e-46
1.1714414e-44
1.0548167e-42
8.4551736e-41
6.1063406e-39
3.997096e-37
2.384671e-35
1.2993882e-33
6.4673066e-32
2.9295146e-30
1.1955835e-28
4.4563657e-27
1.7523809e-25
9.8908842e-24
5.6078506e-22
1.181533e-20
7.27026e-20
1.7547577e-19
2.3589923e-19
3.4969975e-19
1.4234961e-17
3.4447679e-16
2.2452671e-15
7.24848e-15
1.4011026e-14
2.7584048e-14
3.0548431e-14
3.2579926e-14
5.3420762e-14
2.1140166e-13
3.5360895e-07
6.2300736e-07
3.703401e-07
4.691066e-06
4.7083125e-06
3.0114483e-06
1.4003175e-06
1.4100786e-06
2.4844874e-06
1.6289857e-06
1.9555693e-06
1.008362e-05
4.2248025e-05
5.1287708e-05
1.8621522e-05
3.4311786e-07
3.1276424e-07
2.9680391e-06
6.3338374e-05
6.7405632e-05
6.7544926e-05
6.768419e-05
8.1311604e-06
1.2015509e-07
3.5319493e-09
1.034689e-10
3.2340958e-12
1.6489187e-13
5.5991286e-15
1.4343595e-16
3.1140706e-18
5.7716939e-20
9.0513466e-22
1.1875772e-23
1.2818554e-25
1.1106067e-27
7.4607029e-30
3.6890578e-32
1.2453807e-34
2.7172799e-37
3.3324108e-40
3.1510558e-43
8.3296354e-46
3.0103056e-46
3.3939648e-44
3.6160666e-42
3.1694947e-40
2.2755265e-38
1.3178694e-36
6.2427059e-35
2.4060341e-33
6.6752831e-32
1.0588238e-30
7.4555247e-30
2.0791122e-29
2.6592401e-29
3.5920957e-56
1.6272064e-56
9.3259491e-57
1.8358925e-56
1.8362868e-56
1.3219866e-56
6.7331723e-57
2.3645004e-57
1.0170274e-58
1.3640256e-58
3.1249594e-56
2.5691097e-51
2.9573511e-48
7.1797593e-46
1.0562882e-43
1.2095122e-41
1.1714589e-39
9.937227e-38
7.5366953e-36
5.1727723e-34
3.217575e-32
1.7940421e-30
8.9620488e-29
4.4033416e-27
2.7945823e-25
2.8394751e-23
1.2725392e-21
1.735011e-20
1.1423698e-19
7.1868512e-19
4.2172067e-18
1.2523838e-17
1.8657885e-17
2.1996923e-17
3.1560121e-16
1.0588047e-14
7.5153387e-14
1.4624937e-13
2.0192925e-13
2.1155878e-13
1.7526682e-13
7.6724325e-14
7.6543646e-14
9.8362732e-14
4.4718313e-07
4.7436462e-07
1.2093504e-06
4.7031674e-06
4.7118781e-06
4.7209333e-06
2.0344084e-06
1.4057406e-06
1.4364992e-06
1.5016118e-06
1.6945621e-06
4.6354037e-05
5.1287915e-05
5.1287984e-05
4.7780608e-05
4.1700285e-07
3.3373949e-07
2.5166795e-05
6.7272972e-05
6.7317656e-05
6.7407232e-05
3.6507453e-05
8.0952925e-07
1.84732e-08
1.4405149e-09
4.6187099e-11
1.1740304e-12
3.4008565e-14
7.9171708e-16
1.6442017e-17
3.0319169e-19
4.836981e-21
6.5580679e-23
7.3948068e-25
6.7344309e-27
4.7727369e-29
2.4995636e-31
9.340653e-34
2.2373571e-36
4.1305006e-39
5.3129482e-42
6.101825e-45
3.5160453e-45
1.2183686e-43
1.4029706e-41
1.3075792e-39
1.0194997e-37
6.5759098e-36
3.4762206e-34
1.5293985e-32
5.5024337e-31
1.4176901e-29
2.0437227e-28
1.3097248e-27
3.4051218e-27
4.2487535e-27
2.4675486e-53
1.088989e-53
1.6970286e-54
2.2036499e-54
2.1744608e-54
1.5915145e-54
7.0824319e-55
5.0609164e-56
1.3334756e-58
2.389965e-56
1.8505077e-53
2.0289626e-48
4.7605073e-44
2.1176806e-41
3.8525339e-39
5.067693e-37
5.5379888e-35
5.2941277e-33
4.4617958e-31
3.3272117e-29
2.7214298e-27
5.5633836e-25
9.5781371e-23
2.9647177e-21
2.5045821e-20
2.9784712e-19
7.4376118e-18
5.9802809e-17
1.508709e-16
1.7835655e-16
1.1597642e-16
5.7424645e-16
6.6742774e-16
2.6705466e-15
1.3498862e-14
8.9625688e-14
1.4519612e-12
1.9344308e-12
1.6301481e-12
1.0336785e-12
6.2482165e-13
1.8325702e-13
8.8425028e-14
3.5649594e-08
4.5963539e-07
6.5917995e-08
1.0955042e-06
4.6192961e-06
4.7045254e-06
4.7111602e-06
3.1349327e-06
1.4367833e-06
1.500223e-06
1.6935613e-06
2.9816838e-06
4.7738173e-05
5.1288401e-05
5.1293075e-05
5.1311864e-05
1.714432e-05
1.1138169e-06
4.1095175e-05
6.7209305e-05
6.7234443e-05
5.5369283e-05
6.3126606e-08
1.1772581e-09
7.7730437e-11
8.1578755e-11
1.0438262e-11
2.391282e-13
4.0290673e-15
7.0032777e-17
1.2337864e-18
1.9950707e-20
2.8126533e-22
3.3455162e-24
3.2483391e-26
2.5014876e-28
1.458613e-30
6.0767866e-33
2.0202109e-35
4.8106006e-38
9.116417e-41
7.4830453e-44
4.9575581e-44
3.4439895e-43
5.0233415e-41
4.9864743e-39
4.1130121e-37
2.8654384e-35
1.6624789e-33
8.0425255e-32
3.2940678e-30
1.1056807e-28
2.6459246e-27
3.4589188e-26
2.0196941e-25
4.9046616e-25
5.9746291e-25
1.4166111e-50
6.2320281e-51
5.7125453e-52
2.4740318e-52
2.3970416e-52
1.744921e-52
8.838742e-53
3.2600827e-53
1.2134578e-52
3.0201229e-50
2.2999386e-47
1.0688434e-44
4.1350884e-42
1.3393369e-39
2.5467774e-37
3.5730006e-35
3.9965186e-33
3.7955841e-31
3.178879e-29
2.3899248e-27
1.6226466e-25
1.0267174e-23
6.8293555e-22
5.9428218e-20
7.9606557e-18
4.7476566e-16
7.5010579e-15
3.4476811e-14
6.1033033e-14
2.5111153e-14
1.0984772e-14
1.1854722e-13
9.7967331e-14
1.3296046e-13
4.6239745e-13
1.3988376e-12
5.1393171e-12
6.842182e-12
5.8465946e-12
3.0664488e-12
1.0836511e-12
1.9785799e-13
9.4902745e-14
1.119934e-07
3.8490591e-07
4.5197762e-08
7.2302703e-08
1.6649821e-06
4.3896531e-06
4.373917e-06
2.3375717e-06
1.5547978e-06
1.751637e-06
1.3049083e-05
8.8217299e-06
8.6581505e-06
5.1309117e-05
5.1287984e-05
5.1278351e-05
2.6822259e-05
2.1706614e-07
2.7395597e-05
6.7545524e-05
4.2931022e-05
2.7352827e-06
4.8236338e-09
8.367821e-11
5.7514531e-12
4.4615206e-13
2.6820869e-12
3.101316e-14
2.9690107e-16
4.1350058e-18
6.6164874e-20
9.8532396e-22
1.26735e-23
1.3526397e-25
1.15647e-27
8.0156727e-30
4.3577276e-32
1.7910219e-34
6.022738e-37
1.5274274e-39
1.6409193e-42
5.0620174e-43
2.4177471e-43
1.535283e-40
1.7517501e-38
1.5356185e-36
1.1277467e-34
7.0243958e-33
3.6702421e-31
1.6277403e-29
6.2212945e-28
1.961313e-26
4.2943328e-25
5.0655965e-24
2.7017795e-23
6.1487529e-23
7.2957491e-23
6.8981755e-48
3.0526661e-48
2.5713644e-49
2.7438511e-50
2.475959e-50
1.7947209e-50
9.9471101e-51
4.0656478e-51
8.4233266e-51
1.1783107e-48
5.5679835e-46
3.3959092e-43
1.3948149e-40
5.0554669e-38
1.0978076e-35
1.6175038e-33
1.8395122e-31
1.7611865e-29
1.4787964e-27
1.1120928e-25
7.4996925e-24
4.5217691e-22
2.724503e-20
2.5446855e-18
3.8662911e-16
2.2433945e-14
2.9415176e-13
1.1324803e-12
1.8663942e-12
9.8143493e-13
1.961321e-12
1.0074614e-11
2.3124407e-12
1.8955084e-12
2.5672942e-12
4.8408771e-12
7.9639868e-12
8.5041985e-12
3.5625182e-12
1.2826469e-13
1.0290003e-13
9.8585195e-14
9.6752603e-14
4.3646095e-08
3.045985e-08
1.1193561e-08
7.2135669e-09
8.2636114e-09
1.1494681e-08
1.2903711e-07
5.1933079e-07
1.6303485e-06
1.0102329e-05
6.0903082e-05
9.5140648e-06
2.4671134e-06
5.2021058e-05
5.1309117e-05
5.1742319e-05
3.78895e-05
2.0892347e-08
2.4077594e-06
7.6602916e-06
1.3936917e-06
1.2274185e-08
3.6145693e-10
3.4627736e-11
1.055642e-10
5.9980759e-14
6.7553744e-13
3.3282173e-15
2.8171756e-17
3.3046163e-19
4.6920494e-21
6.4032634e-23
7.5045457e-25
7.3827236e-27
5.9853789e-29
4.0610958e-31
2.2671068e-33
1.0496362e-35
4.5118114e-38
1.0249324e-40
5.5548445e-42
5.4306015e-43
2.6627273e-40
5.3461241e-38
5.3622214e-36
4.151121e-34
2.700545e-32
1.4954637e-30
7.0498888e-29
2.87676e-27
1.0249881e-25
3.01687e-24
5.9430761e-23
6.3044016e-22
3.0971555e-21
6.6736448e-21
7.7014775e-21
2.8822381e-45
1.2910907e-45
1.119372e-46
3.7340725e-48
2.3870958e-48
1.7317036e-48
9.7270263e-49
4.4271986e-49
4.1757719e-49
7.6367404e-47
2.5663348e-44
1.2795399e-41
7.1224817e-39
1.8454473e-36
2.8562378e-34
3.4307911e-32
3.4545666e-30
3.0309884e-28
2.3694377e-26
1.6691438e-24
1.0549656e-22
5.9593211e-21
3.3854059e-19
2.992124e-17
3.5928023e-15
1.5433653e-13
1.8554791e-12
1.2787712e-11
8.7123379e-11
1.2814669e-10
2.4796798e-10
8.1515279e-10
8.322345e-11
7.677288e-12
7.6768931e-12
7.8317212e-12
9.3433488e-11
1.1826962e-11
7.7509284e-11
3.0544819e-09
3.3821879e-09
5.4715946e-10
2.3359156e-09
6.9194974e-09
6.8808673e-09
6.9403076e-09
7.0493816e-09
7.0657888e-09
1.5974528e-08
2.2036784e-07
1.9609748e-06
1.9496591e-05
0.00010082304
6.1150585e-05
2.6455665e-06
4.4923876e-07
2.6627318e-05
5.1378079e-05
5.1150592e-05
2.9040194e-05
1.5201516e-09
2.068777e-08
2.7281989e-08
2.9436857e-08
8.1607551e-10
2.5764047e-11
5.8384219e-12
1.5505696e-10
4.144396e-14
1.0414277e-13
4.1110701e-16
6.292011e-18
7.3118144e-20
9.3754146e-22
1.1680088e-23
1.2388444e-25
1.1368477e-27
9.1232625e-30
6.4933635e-32
4.1145635e-34
2.3184067e-36
9.6285662e-39
1.3138552e-40
5.9443585e-42
3.7902295e-41
1.0106372e-37
1.6288751e-35
1.418254e-33
9.6656939e-32
5.5609546e-30
2.7437581e-28
1.1720426e-26
4.411693e-25
1.4570627e-23
3.9166802e-22
6.8319613e-21
6.526982e-20
3.0216244e-19
6.4845479e-19
7.770193e-19
1.0428503e-42
4.7519696e-43
4.3539114e-44
8.0752968e-46
2.1979746e-46
1.5948572e-46
8.5823678e-47
3.5268348e-47
3.2821643e-47
1.3229364e-44
4.4593953e-42
9.0998759e-40
1.4846668e-37
2.0324028e-35
2.3498244e-33
2.3391058e-31
2.0463937e-29
1.5964758e-27
1.1234943e-25
7.1607617e-24
4.0841263e-22
2.0781253e-20
1.0709703e-18
8.2630816e-17
7.0956163e-15
2.0836773e-13
5.1328448e-12
1.450999e-09
1.2612351e-08
1.1019593e-08
1.9421245e-08
5.010932e-08
4.9012785e-09
1.342968e-11
7.8819122e-12
7.8435418e-12
1.1262899e-09
3.0123136e-09
1.855708e-09
3.0639057e-09
7.222121e-09
1.7147196e-08
1.6193794e-08
6.8808698e-09
6.8808702e-09
6.8808702e-09
6.8582688e-09
1.2552112e-08
1.6827632e-07
2.2266606e-06
0.00011315341
0.00026831769
0.00014834969
1.8256767e-05
1.7795471e-06
1.0227036e-07
5.6571216e-06
4.3515726e-05
3.5530684e-05
1.5201483e-09
1.5476803e-10
1.7728057e-09
1.1204023e-08
2.4495722e-08
1.5168318e-08
3.3710006e-09
2.2307463e-13
7.9762014e-11
3.50864e-15
1.0971512e-14
8.5897558e-17
2.1071347e-18
2.5809862e-20
3.1398058e-22
3.5994759e-24
3.6992996e-26
3.4076534e-28
2.8346854e-30
2.0921374e-32
1.3274234e-34
7.046963e-37
3.3072401e-39
1.3745971e-40
1.5200226e-40
1.7981673e-38
3.4112878e-35
4.2672469e-33
3.202998e-31
1.917207e-29
9.75752e-28
4.305001e-26
1.6709443e-24
5.8013522e-23
1.7666348e-21
4.1980366e-20
6.4135817e-19
5.5750667e-18
2.5003214e-17
5.738713e-17
8.3297999e-17
3.2908256e-40
1.5319986e-40
1.4947595e-41
2.4402128e-43
1.941675e-44
1.376324e-44
7.4369031e-45
2.9290517e-45
2.3835907e-45
8.4679763e-44
2.2195922e-41
4.110047e-39
5.9072769e-37
6.6157664e-35
6.6954069e-33
6.1805943e-31
5.1188683e-29
3.8119541e-27
2.5653887e-25
1.5682329e-23
8.7090549e-22
4.753939e-20
4.1693216e-18
3.3196476e-16
3.87777e-15
4.0069471e-13
4.9134819e-11
7.1641821e-08
4.7833608e-06
2.7620164e-05
3.5499583e-05
2.9922443e-06
8.8985932e-08
6.9217242e-09
2.1561937e-10
8.1671296e-12
9.0945195e-12
8.646224e-08
2.0493486e-07
1.8627998e-07
1.1395592e-07
5.4389461e-08
1.2812721e-08
6.9652503e-09
6.8808702e-09
6.8979201e-09
1.1171024e-08
1.4601528e-07
8.5377227e-06
0.00018197429
0.00030265746
0.00029607868
8.6848199e-05
3.1070955e-09
6.5654791e-07
9.9926303e-08
2.4681878e-08
1.9343653e-09
2.1532708e-06
2.0726193e-07
5.0612424e-11
1.5476803e-10
1.0419181e-08
2.9929098e-08
2.9276211e-08
6.9343116e-09
1.7681897e-14
8.6182554e-12
3.3713567e-15
1.4927834e-15
2.2940119e-17
6.1960098e-19
8.00764e-21
8.9743543e-23
1.0730494e-24
1.1637895e-26
1.1243591e-28
9.4297013e-31
6.5230673e-33
3.5212604e-35
1.0130015e-37
3.5423031e-39
9.3094077e-40
6.4646161e-38
7.0975625e-36
9.6528915e-33
9.4031831e-31
6.0783032e-29
3.1959967e-27
1.4428336e-25
5.7154348e-24
2.0168997e-22
6.4010785e-21
1.7666224e-19
3.6656793e-18
4.9504993e-17
3.9627026e-16
1.6303528e-15
3.1757716e-15
3.6700102e-15
9.1074598e-38
4.3536899e-38
4.5515209e-39
7.7939149e-41
8.0408398e-43
1.0715422e-42
6.455468e-43
2.2902416e-43
5.4541342e-44
1.113341e-43
1.4082948e-41
3.1099352e-39
6.0105526e-37
1.0956841e-34
1.6827812e-32
2.0563644e-30
2.0982335e-28
1.8483638e-26
1.4377283e-24
9.9942772e-23
6.4969806e-21
5.8490365e-19
5.3016338e-17
6.8513589e-16
8.6753448e-14
5.5403228e-12
9.068622e-10
4.3729505e-06
7.5245516e-05
0.0001020679
0.00010206811
5.406872e-05
5.1264669e-06
7.4479169e-08
1.189624e-09
1.0948717e-11
9.6353143e-12
1.1983034e-07
3.4088785e-07
3.4199104e-07
3.4187563e-07
2.7458063e-07
2.3829849e-08
7.2207294e-09
6.9555882e-09
1.1440128e-08
1.4726004e-07
2.1781452e-05
0.00025230795
0.00030912778
0.00030551939
0.00015477491
6.3436427e-06
3.1071006e-09
1.5181868e-08
1.0699425e-07
7.3081017e-08
1.4246263e-09
1.2258329e-08
3.0763809e-09
2.8580297e-11
1.5279475e-10
8.0005086e-09
2.1780967e-08
2.0253158e-08
1.3211697e-09
4.4809079e-15
1.8031108e-13
2.4263895e-15
2.5355851e-16
4.8756239e-18
1.2016279e-19
9.0618972e-22
1.5491954e-23
2.7143062e-25
3.1692293e-27
3.0278711e-29
2.2488275e-31
1.219592e-33
3.580929e-36
1.1222151e-37
7.8229181e-39
3.156265e-37
2.1979437e-35
4.5356291e-33
2.1923226e-30
1.7037873e-28
9.5169003e-27
4.4026185e-25
1.7659246e-23
6.2904412e-22
2.0200954e-20
5.8409424e-19
1.441623e-17
2.5685503e-16
2.9356661e-15
2.0045396e-14
6.3372613e-14
7.322831e-14
3.0463127e-14
2.2208925e-35
1.0961055e-35
1.2348551e-36
2.264938e-38
7.566365e-41
1.2883683e-40
5.3675507e-41
1.783518e-41
4.5250176e-42
3.0071763e-42
1.0062005e-40
3.2473526e-38
6.132393e-36
8.8734107e-34
1.0862659e-31
1.1227724e-29
1.0033976e-27
7.9086004e-26
5.5878921e-24
3.5568168e-22
2.3301338e-20
2.2330236e-18
1.5686584e-16
2.9581979e-15
3.8802694e-13
2.2530619e-11
3.3653291e-09
2.3039482e-05
0.00010205508
0.00010208073
0.00010205508
0.00010197101
1.4733411e-05
9.2033623e-08
8.9801533e-10
5.5152219e-11
2.7172979e-11
3.3223024e-11
4.5674856e-08
2.6275954e-07
3.418874e-07
3.051888e-07
4.583628e-08
8.2321751e-09
1.019367e-08
1.5854863e-07
3.567277e-05
0.00030784779
0.00030924499
0.0003091315
0.00030506133
4.1594358e-05
3.8542461e-11
3.3637502e-09
2.8101277e-08
1.0746837e-08
1.0620764e-10
1.412529e-09
1.2460913e-10
1.1029497e-11
2.1197168e-11
2.8612835e-10
1.4364594e-09
1.9648886e-09
1.9529985e-09
4.4809079e-15
3.8295131e-15
9.8210647e-15
1.0255799e-15
2.7668664e-17
7.0069092e-19
6.0128653e-21
-3.9557234e-22
9.8340317e-24
4.9492843e-26
5.1823161e-28
4.3074754e-30
2.6544928e-32
1.4725212e-34
3.3823537e-36
1.2834508e-37
1.4965269e-36
9.4510399e-35
6.1031753e-33
2.5942516e-30
3.8844912e-28
2.4761075e-26
1.1993534e-24
4.8770697e-23
1.7333847e-21
5.556115e-20
1.6372778e-18
4.3066065e-17
9.0680628e-16
1.2775121e-14
1.0787067e-13
5.5780718e-13
1.8624891e-12
2.5643355e-12
4.5779742e-13
4.7916517e-33
2.455396e-33
3.0009815e-34
5.9086672e-36
2.2702256e-38
5.8574517e-39
3.5541523e-39
1.4251754e-39
3.2871136e-40
1.1425338e-40
2.7182898e-39
1.3126523e-37
1.6361943e-35
2.3009555e-33
2.7481314e-31
2.7995261e-29
2.4435123e-27
1.8038794e-25
1.0998197e-23
6.7777151e-22
4.5706046e-20
3.3352587e-18
1.169382e-16
2.3066898e-14
3.6254553e-12
2.2220816e-10
2.0531377e-06
9.5297282e-06
6.3671524e-05
0.00010205508
9.991912e-05
2.9610868e-05
1.0150149e-05
7.6276065e-09
1.6652995e-09
4.8557111e-10
3.2236904e-10
1.8224438e-10
3.4757108e-10
1.5865295e-09
4.0626347e-08
6.1164353e-08
4.8360858e-08
1.1106532e-08
1.1722285e-07
9.5411898e-05
0.00030846039
0.00030924499
0.00030924499
0.00030878876
8.5290896e-05
3.8542481e-11
1.9320305e-11
7.5463119e-10
4.6504501e-09
4.2292033e-10
1.0350558e-10
1.373517e-10
2.3489627e-11
1.0836369e-11
1.3401359e-11
3.1048336e-11
1.3911919e-11
4.4519463e-12
1.4058046e-12
3.8632684e-15
3.7307825e-15
1.9588476e-15
2.6932044e-16
7.2009139e-18
3.160374e-20
-1.0052478e-21
-4.0695421e-21
1.2362852e-23
8.329102e-27
1.7143179e-28
2.1643823e-30
2.4790342e-32
2.4288624e-34
3.495898e-36
6.392727e-36
3.8474263e-34
2.1603218e-32
1.3363686e-30
5.8705441e-28
5.3158833e-26
2.8343641e-24
1.192182e-22
4.2396926e-21
1.3286398e-19
3.829488e-18
1.0131366e-16
2.1947924e-15
3.3633821e-14
3.5527737e-13
2.9929756e-12
2.4981594e-11
1.2179913e-10
1.9102902e-10
2.5280241e-11
9.180988e-31
4.914994e-31
6.5575911e-32
1.3930788e-33
5.8679299e-36
1.8639147e-38
2.1175286e-37
1.097683e-37
2.4933056e-38
1.2738797e-38
9.8241909e-38