/*--------------------------------*- C++ -*----------------------------------*\
  =========                 |
  \\      /  F ield         | OpenFOAM: The Open Source CFD Toolbox
   \\    /   O peration     | Website:  https://openfoam.org
    \\  /    A nd           | Version:  9
     \\/     M anipulation  |
\*---------------------------------------------------------------------------*/
FoamFile
{
    format      ascii;
    class       surfaceScalarField;
    location    "0.98";
    object      alphaPhi0.phase1;
}
// * * * * * * * * * * * * * * * * * * * * * * * * * * * * * * * * * * * * * //

dimensions      [0 3 -1 0 0 0 0];

internalField   nonuniform List<scalar> 
19800
(
-4.036016e-88
3.9436029e-88
-7.9878187e-87
1.757452e-87
-1.7443604e-85
7.4632835e-86
-2.7866026e-85
3.1549637e-85
-1.8792184e-85
3.5459488e-85
-5.3955456e-86
1.3324257e-85
-7.6757817e-86
4.7965794e-86
-1.0080635e-85
5.4398289e-86
-1.5928473e-83
4.7489403e-84
-9.7687707e-81
2.6676565e-81
-5.4581113e-78
1.3859135e-78
-2.7790107e-75
6.6207996e-76
-1.2991089e-72
2.9190021e-73
-5.6200693e-70
1.1946464e-70
-2.2659027e-67
4.5703259e-68
-8.5619494e-65
1.6412689e-65
-3.0445655e-62
5.5580142e-63
-1.0209185e-59
1.7762387e-60
-3.2337637e-57
5.3887882e-58
-9.6872857e-55
1.5533073e-55
-2.7460696e-52
4.2572418e-53
-7.3659397e-50
1.114462e-50
-1.8687553e-47
2.7817377e-48
-4.4787333e-45
6.6274523e-46
-1.0115449e-42
1.5010636e-43
-2.143946e-40
3.2145179e-41
-4.232888e-38
6.4584779e-39
-7.7014912e-36
1.2047691e-36
-1.2764115e-33
2.0584634e-34
-1.9032762e-31
3.1734533e-32
-2.5198499e-29
4.3468254e-30
-2.9225034e-27
5.2104953e-28
-2.9306049e-25
5.3890637e-26
-2.507813e-23
4.7480038e-24
-1.8062801e-21
3.5226517e-22
-1.1089556e-19
2.1826329e-20
-6.4085994e-18
1.131619e-18
-2.378276e-16
4.7429837e-17
-2.7946195e-15
1.3177116e-15
-3.7397978e-14
3.4621369e-14
-1.0084565e-12
1.067523e-12
-2.5114916e-11
2.5774222e-11
-5.488286e-10
4.9692505e-10
-6.2417493e-08
6.6550052e-09
-6.1998484e-08
-3.6960148e-09
-6.174118e-08
-1.0631645e-08
-4.0434453e-08
-1.6640032e-10
-9.0894011e-09
-2.2012607e-10
-2.8859467e-09
-2.8048538e-10
-9.2460212e-09
-4.3977132e-10
-7.1516305e-09
-1.1797611e-09
-1.5681838e-09
-4.1924701e-09
4.1923194e-09
-3.926009e-09
8.8323777e-09
-2.0752459e-09
5.7671326e-09
-4.4704664e-09
2.043378e-09
-7.2859277e-10
2.8907845e-09
-8.1755903e-10
5.308292e-08
-3.7329967e-09
1.8562633e-07
-6.9401211e-08
1.3882064e-07
-7.3219809e-08
3.6157666e-08
-2.0014371e-08
1.9809642e-08
1.1067567e-08
1.1928978e-08
3.175568e-09
1.2711859e-08
6.6518389e-09
7.2293527e-09
4.8341013e-09
5.6612592e-10
7.2732267e-10
6.5984495e-12
5.5199354e-10
4.0031841e-13
6.0245453e-12
1.6916394e-14
3.8299071e-13
3.6845318e-15
1.7359381e-14
6.4527777e-16
1.1559459e-15
4.4119207e-17
1.2719668e-16
1.9827241e-18
8.6303976e-18
8.3778671e-20
4.4663573e-19
3.3690631e-21
2.0235637e-20
1.2104123e-22
8.0779753e-22
3.8307505e-24
2.8272283e-23
1.068496e-25
8.7006767e-25
2.6198243e-27
2.3616525e-26
5.6193317e-29
5.6545759e-28
1.0484155e-30
1.190686e-29
1.6904685e-32
2.1939835e-31
2.3383531e-34
3.5155054e-33
2.7517418e-36
4.8620913e-35
2.7284453e-38
5.7551094e-37
2.2540356e-40
5.7747429e-39
1.531073e-42
4.8591415e-41
8.416426e-45
3.384212e-43
3.6721421e-47
1.9221754e-45
1.2404345e-49
8.737928e-48
3.137597e-52
3.1075929e-50
5.6648473e-55
8.386402e-53
6.7892701e-58
1.6501321e-55
4.9584237e-61
2.2289801e-58
1.9301548e-61
1.931048e-61
9.1713369e-64
6.1301415e-63
-1.3157505e-61
1.525799e-61
-1.416999e-59
3.066791e-60
-3.0218956e-58
3.5127528e-59
9.0838805e-59
-4.0119351e-88
4.7357455e-88
-4.7545732e-86
3.0203301e-86
-9.5511153e-85
1.0302558e-84
-2.0201623e-84
4.4844382e-84
-2.2270062e-84
5.8844722e-84
-1.5286998e-84
4.5390373e-84
-7.2190808e-85
2.4659212e-84
-8.5218312e-85
1.2959292e-84
-2.0353022e-83
1.1058395e-83
-8.2234561e-81
3.077289e-81
-3.9799282e-78
1.2304228e-78
-1.9614974e-75
5.5420297e-76
-9.0586514e-73
2.4040997e-73
-3.8707221e-70
7.997567e-71
-1.5384301e-67
2.7449658e-68
-5.7131511e-65
9.3565594e-66
-1.9920326e-62
3.0593507e-63
-6.5474831e-60
9.4978377e-61
-2.0340225e-57
2.8061895e-58
-5.9867159e-55
7.919511e-56
-1.6718895e-52
2.1405851e-53
-4.4325532e-50
5.5646772e-51
-1.116322e-47
1.3944642e-48
-2.6689008e-45
3.3743732e-46
-6.0452153e-43
7.8687509e-44
-1.2921088e-40
1.7593818e-41
-2.5899412e-38
3.7462942e-39
-4.8260646e-36
7.5202051e-37
-8.2717792e-34
1.4037565e-34
-1.2883211e-31
2.3978334e-32
-1.7987235e-29
3.6851346e-30
-2.2186351e-27
5.0111527e-28
-2.3814677e-25
5.8936614e-26
-2.1877038e-23
5.9435225e-24
-1.7061953e-21
4.9588263e-22
-1.2470497e-19
3.3567391e-20
-9.242045e-18
1.979932e-18
-1.8475726e-16
8.0283734e-17
-1.681544e-15
2.6680896e-15
-9.8428552e-14
1.0854485e-13
-3.5693401e-12
3.8182608e-12
-1.0218854e-10
1.0615987e-10
-1.1502292e-08
3.9832529e-09
-4.8142518e-08
1.3180756e-08
-4.8168736e-08
2.7157244e-10
-4.0076183e-10
-6.3301858e-09
-3.8055615e-10
-1.8212024e-10
-3.3534619e-10
-2.6555906e-10
-2.6400245e-10
-3.521947e-10
-1.9250178e-10
-5.1238501e-10
-6.6967933e-10
-7.09314e-10
5.1657187e-10
-1.8010613e-09
1.8807512e-09
-1.2072451e-09
6.0435005e-10
-4.2597807e-10
8.6285543e-10
-1.5273241e-09
2.2059751e-09
-5.7185573e-10
4.5215882e-09
-2.22886e-09
2.3243802e-07
-6.0350645e-09
5.3241904e-07
-1.7522553e-07
5.6207016e-07
-1.165312e-07
5.581881e-07
6.4097219e-09
7.8657192e-08
5.7397853e-08
2.5784095e-08
5.0067526e-08
1.8134385e-08
7.2701639e-09
2.6203903e-08
1.555938e-08
1.9782103e-08
8.9014395e-09
2.2130723e-09
3.2363196e-09
9.6368346e-12
1.5425515e-10
5.7253844e-13
8.4035734e-12
3.3872746e-14
5.0375655e-13
3.383691e-15
2.6376439e-14
3.7290769e-16
1.9231992e-15
1.9119071e-17
1.466711e-16
6.4340068e-19
7.1500015e-18
2.1697355e-20
2.791051e-19
7.0377187e-22
9.8788736e-21
2.056871e-23
3.1535914e-22
5.334498e-25
8.9918702e-24
1.2220912e-26
2.2815176e-25
2.4556034e-28
5.1275906e-27
4.2938387e-30
1.0138236e-28
6.4813925e-32
1.7503775e-30
8.3733652e-34
2.6168054e-32
9.170863e-36
3.3564009e-34
8.4231061e-38
3.6551562e-36
6.4058466e-40
3.3387808e-38
3.9736031e-42
2.5204315e-40
1.9679263e-44
1.5423918e-42
7.5631086e-47
7.4646164e-45
2.1963151e-49
2.7448145e-47
4.6171454e-52
8.5805163e-50
6.621196e-55
1.986973e-52
5.8663358e-58
3.2314957e-55
5.2336102e-61
3.4105862e-58
1.2792423e-61
1.2120868e-60
-3.2879864e-60
2.3456915e-59
-7.1453688e-58
6.9451845e-58
-1.8823435e-56
9.9193977e-57
-3.1344394e-56
3.3550359e-56
2.4609984e-56
-1.8471207e-85
5.9338766e-85
-5.02741e-83
4.6803807e-83
-6.7136452e-82
1.1146266e-81
-1.191725e-81
3.7485122e-81
-1.2951502e-81
4.4139978e-81
-8.5898804e-82
3.1876834e-81
-3.8033228e-82
1.6446116e-81
-4.4536103e-82
8.4133529e-82
-5.2372561e-81
4.2394909e-81
-8.7279858e-79
6.6099851e-79
-1.2361328e-76
8.8290433e-77
-1.5120774e-74
1.0379417e-74
-1.7978175e-72
1.04559e-72
-2.7576232e-70
1.0991404e-70
-6.6559765e-68
1.9563944e-68
-2.1064301e-65
5.5860564e-66
-7.1292969e-63
1.7568758e-63
-2.3323831e-60
5.4883006e-61
-7.2019776e-58
9.2449014e-59
-2.1041195e-55
2.0708665e-56
-5.8386527e-53
5.2680031e-54
-1.5428148e-50
1.3645499e-51
-3.8874285e-48
3.4715708e-49
-9.3410229e-46
8.617405e-47
-2.1386155e-43
2.0837072e-44
-4.6521998e-41
4.8905768e-42
-9.5710126e-39
1.1085736e-39
-1.8491236e-36
2.4028787e-37
-3.3228431e-34
4.9126293e-35
-5.4859056e-32
9.3111039e-33
-8.2042172e-30
1.6044116e-30
-1.0949937e-27
2.4652209e-28
-1.2845572e-25
3.3188017e-26
-1.2986714e-23
3.8554955e-24
-1.1233943e-21
3.820634e-22
-9.7641891e-20
3.2629891e-20
-8.1306604e-18
2.3973951e-18
-1.6529694e-16
1.0371031e-16
-1.9918863e-15
3.7738637e-15
-9.8687333e-14
1.7102273e-13
-4.4327181e-12
6.8276674e-12
-1.6240031e-10
2.2224977e-10
-4.0182699e-08
9.6426318e-09
-4.6405389e-08
2.3816339e-08
-3.8804222e-08
4.0393712e-09
-3.7785835e-10
-7.9078422e-11
-3.5137574e-10
-1.9790387e-10
-3.0351619e-10
-3.0884848e-10
-2.3621535e-10
-4.2061129e-10
-1.3613754e-10
-6.1902906e-10
-6.5544883e-13
-9.2808196e-10
2.151551e-10
-2.3647939e-09
3.1729732e-10
-1.5506828e-09
3.868164e-10
-7.3647613e-10
2.6974883e-09
-5.5590868e-10
7.8187209e-09
-1.1821871e-08
1.8298964e-08
-1.9116344e-08
1.7737742e-07
-3.7725521e-08
5.6503441e-07
-1.1030965e-07
5.6996012e-07
-9.5617338e-08
5.9796571e-07
-9.3042214e-09
5.6136653e-07
1.1983655e-07
1.7610393e-07
1.6789064e-07
8.5035711e-09
1.1208166e-07
7.4610232e-09
2.7761043e-08
1.0697391e-08
7.9155712e-09
4.9165718e-10
2.7642739e-09
4.0133462e-12
1.6399845e-10
0
1.1812305e-11
4.4998711e-15
6.4929944e-13
5.3842581e-15
3.3044177e-14
9.6889255e-16
3.0451084e-15
5.0915535e-17
3.0902482e-16
1.7774185e-18
1.6880228e-17
5.9270461e-20
6.780296e-19
1.8920774e-21
2.3943416e-20
5.4177851e-23
7.4963042e-22
1.3629606e-24
2.0584875e-23
2.9878267e-26
4.9226695e-25
5.6676297e-28
1.0291674e-26
9.2463882e-30
1.9687289e-28
1.2917315e-31
3.2685268e-30
1.5316897e-33
4.6690245e-32
1.5263719e-35
5.6925353e-34
1.2631646e-37
5.8676792e-36
8.5550605e-40
5.0560771e-38
4.657422e-42
3.5926485e-40
2.0007872e-44
2.0707659e-42
6.6369172e-47
9.5658414e-45
1.6243945e-49
3.4404223e-47
2.7789134e-52
8.130521e-50
3.0221414e-55
1.3494134e-52
1.7827887e-56
1.4166263e-55
7.2042347e-59
7.9592463e-58
-2.2345192e-59
7.4628455e-58
-1.07177e-56
2.9115983e-56
-8.6774293e-55
7.7013642e-55
-1.6682154e-53
9.6328435e-54
-3.2435843e-53
3.2239592e-53
2.64022e-53
-1.5389087e-82
3.6547988e-82
-3.253758e-80
3.9477905e-80
-3.1534687e-79
7.0621608e-79
-5.0129545e-79
1.9535477e-78
-5.4205355e-79
2.1657017e-78
-3.5188679e-79
1.5351301e-78
-1.5179425e-79
7.7292475e-79
-1.7706638e-79
3.8691752e-79
-1.7590008e-78
1.6215521e-78
-3.0906241e-76
2.6452797e-76
-4.6282088e-74
3.6687086e-74
-6.0754324e-72
4.4879518e-72
-7.0813703e-70
4.8999186e-70
-7.415282e-68
4.8315974e-68
-7.0142835e-66
4.3280411e-66
-6.0182363e-64
3.5328663e-64
-4.629867e-62
2.5813372e-62
-3.3188076e-60
1.4683558e-60
-2.7468358e-58
9.7991093e-59
-3.6870431e-56
1.0356387e-56
-7.823032e-54
1.9870252e-54
-1.9582356e-51
4.7865997e-52
-4.9843008e-49
1.2141502e-49
-1.2218531e-46
1.2661324e-47
-2.8620886e-44
1.8501488e-45
-6.4204971e-42
3.6664012e-43
-1.3775814e-39
8.2737992e-41
-2.8141357e-37
1.9500154e-38
-5.4316196e-35
4.5384739e-36
-9.7948773e-33
1.0015142e-33
-1.6263593e-30
2.0482431e-31
-2.4440499e-28
3.7953655e-29
-3.2608812e-26
6.2130912e-27
-3.7827013e-24
8.7627745e-25
-3.7677244e-22
1.0413083e-22
-3.3113505e-20
1.0164661e-20
-2.3684718e-18
7.7509025e-19
-8.7245152e-17
4.9791996e-17
-4.3567845e-16
1.9096121e-15
0
8.3981756e-14
0
3.8757288e-12
0
1.5912501e-10
-2.9809617e-08
7.7750345e-09
-3.3578401e-08
2.9829328e-08
-2.7755448e-10
4.8270198e-09
-2.9770449e-10
-6.3895859e-11
-2.9647062e-10
-2.0323087e-10
-2.5158964e-10
-3.4080855e-10
-2.0874241e-10
-4.6693913e-10
-1.7052582e-10
-7.2339115e-10
1.7931565e-10
-1.6031837e-09
1.1515716e-09
-4.2589919e-09
6.5999932e-10
-1.4854088e-09
8.0618439e-10
-1.12396e-09
1.0183394e-09
-1.0365485e-09
9.4441582e-08
-1.6836267e-08
1.9847595e-07
-7.5916928e-08
1.0294568e-07
-1.4253699e-07
1.5582253e-07
-1.1028772e-07
3.130022e-07
-3.6110593e-08
5.6534595e-07
-7.5377948e-09
6.2789423e-07
8.9647155e-08
6.2353193e-07
2.2330236e-07
1.7831669e-07
2.22758e-07
0
9.1140177e-08
0
1.254907e-08
1.1630813e-10
3.8156244e-09
0
2.7583185e-10
0
1.2929762e-11
6.8075196e-15
6.6764837e-13
5.7959462e-15
3.1651009e-14
1.2028373e-15
3.5357611e-15
7.3355204e-17
4.0072406e-16
2.315413e-18
2.4954057e-17
7.0798602e-20
9.7119063e-19
2.1337038e-21
3.2658475e-20
5.7388432e-23
9.7495649e-22
1.3443396e-24
2.5523689e-23
2.7349902e-26
5.8244334e-25
4.821962e-28
1.1600019e-26
7.3453027e-30
2.0082871e-28
9.5710884e-32
3.0058065e-30
1.0558223e-33
3.8579676e-32
9.7422811e-36
4.2023187e-34
7.4090147e-38
3.8356591e-36
4.562054e-40
2.8897251e-38
2.2237123e-42
1.7639633e-40
8.3046755e-45
8.5189387e-43
2.2687466e-47
3.0808654e-45
4.3027016e-50
8.0639483e-48
5.1407786e-53
1.4195886e-50
3.4398965e-56
1.5047955e-53
9.2943166e-58
5.0486071e-56
-4.4708059e-58
1.2901323e-56
-1.640808e-55
6.9850594e-55
-1.5091448e-53
2.5049033e-53
-7.8471376e-52
5.9638241e-52
-1.1624043e-50
6.5079189e-51
-2.33895e-50
2.0273861e-50
1.6485689e-50
-6.6898867e-80
1.594311e-79
-1.300886e-77
1.9396654e-77
-1.0844031e-76
3.0376608e-76
-1.6139965e-76
7.5572242e-76
-1.7486411e-76
8.0656005e-76
-1.1252052e-76
5.6736087e-76
-4.759416e-77
2.814866e-76
-5.5408591e-77
1.3831955e-76
-4.6830831e-76
4.8566029e-76
-8.7362673e-74
8.4113258e-74
-1.3702497e-71
1.2212548e-71
-1.8646681e-69
1.546358e-69
-2.2416389e-67
1.7384685e-67
-2.4081982e-65
1.7545302e-65
-2.336193e-63
1.6052451e-63
-2.0605599e-61
1.3413094e-61
-1.6644298e-59
1.0310919e-59
-1.2371902e-57
7.3298344e-58
-8.5049906e-56
4.8427068e-56
-5.4593543e-54
2.9935245e-54
-3.2424146e-52
1.7298267e-52
-1.6894058e-50
9.0455798e-51
-7.5530616e-49
3.6307003e-49
-3.8894941e-47
1.5709727e-47
-3.2473146e-45
1.0786499e-45
-3.8270768e-43
1.3933063e-43
-6.2615052e-41
2.3790012e-41
-1.2892133e-38
5.1947624e-39
-2.7253378e-36
4.1018065e-37
-5.4439797e-34
2.7267367e-35
-1.019037e-31
5.9617194e-33
-1.764845e-29
1.3820705e-30
-2.7652279e-27
2.8975086e-28
-3.819444e-25
5.2824327e-26
-4.5324739e-23
8.1232694e-24
-4.5271917e-21
1.0201027e-21
-3.9184347e-19
1.0216092e-19
-2.1093552e-17
8.4744561e-18
-2.7732794e-16
4.8956826e-16
0
1.9853499e-14
0
1.046966e-12
0
5.3335719e-11
-7.7259288e-09
1.5452159e-09
-1.9457025e-08
4.3430607e-09
-5.3699279e-10
1.0531613e-09
-2.6322786e-10
-3.2664114e-10
-2.6124659e-10
-1.9247211e-10
-2.2466241e-10
-3.7420886e-10
-2.9921761e-10
-1.6116736e-09
-6.8682925e-10
-1.7810356e-09
2.3695145e-10
-6.3756947e-09
4.6622399e-09
-3.5307992e-08
1.4906409e-09
-1.7259826e-09
1.3958548e-09
-1.5640287e-09
3.2168598e-09
-3.1505826e-09
1.1360104e-07
-5.97904e-09
1.8938622e-07
-1.3495182e-07
2.2968469e-07
-1.6589989e-07
7.8292517e-08
-1.4625323e-07
3.5910341e-08
-6.6818029e-08
2.4257689e-08
-4.6863937e-09
2.7722006e-07
5.6292434e-09
5.4973236e-07
1.0108713e-07
5.7015496e-07
3.0344028e-07
1.1254195e-08
3.3741821e-07
0
3.1600554e-08
1.1794652e-09
1.0106056e-08
4.8529104e-11
1.8809946e-09
2.1559276e-12
6.0888218e-11
8.4353994e-14
2.8287983e-12
3.6650388e-15
1.1570702e-13
6.790823e-16
4.9559751e-15
9.6869662e-17
4.6341527e-16
4.186358e-18
4.3874607e-17
1.0105552e-19
1.765346e-18
2.5211811e-21
5.2053305e-20
6.160884e-23
1.3971099e-21
1.3158204e-24
3.3146368e-23
2.4143615e-26
6.7851227e-25
3.8150143e-28
1.2392906e-26
5.1876753e-30
1.9085334e-28
5.9940588e-32
2.52564e-30
5.8150563e-34
2.8348796e-32
4.6642751e-36
2.663049e-34
3.0321636e-38
2.0585338e-36
1.5588967e-40
1.2811578e-38
6.1404895e-43
6.2431603e-41
1.7713004e-45
2.294014e-43
3.4967363e-48
6.0270822e-46
4.2488925e-51
1.0421602e-48
2.568764e-54
1.0224904e-51
2.9163982e-55
4.7885349e-54
-1.8527631e-55
1.1966084e-55
-2.3734918e-54
1.0710843e-53
-2.1599373e-52
4.9593189e-52
-1.4097112e-50
1.6419618e-50
-5.5043674e-49
3.500155e-49
-6.5435218e-48
3.3022642e-48
-1.2916755e-47
9.142578e-48
6.7173184e-48
-1.9578047e-77
5.2752487e-77
-3.7709155e-75
6.7351441e-75
-2.9369237e-74
9.8787318e-74
-4.2057139e-74
2.3193189e-73
-4.5882114e-74
2.4143969e-73
-2.9487488e-74
1.6949344e-73
-1.2196587e-74
8.3345468e-74
-1.4187683e-74
4.0093672e-74
-9.7900894e-74
1.1232468e-73
-1.9899834e-71
2.1276151e-71
-3.3185733e-69
3.288258e-69
-4.7310766e-67
4.3599083e-67
-5.8960519e-65
5.0743662e-65
-6.5236217e-63
5.2649073e-63
-6.4822933e-61
4.9234499e-61
-5.8333464e-59
4.1860264e-59
-4.7794976e-57
3.2553789e-57
-3.5876601e-55
2.3300035e-55
-2.4818385e-53
1.5442469e-53
-1.5937957e-51
9.5231253e-52
-9.4854156e-50
5.4891159e-50
-5.0129119e-48
2.9388269e-48
-2.2389818e-46
1.4453313e-46
-9.7037282e-45
6.8495916e-45
-6.2845746e-43
3.7693757e-43
-5.8860479e-41
2.7635573e-41
-2.9649586e-39
1.7055781e-39
-4.739554e-38
4.6549319e-38
-3.9190116e-37
4.3394129e-37
-9.2595232e-36
8.5344006e-36
-1.4430835e-33
1.2440289e-33
-3.0161979e-31
8.3183777e-32
-5.7805324e-29
4.1820071e-30
-9.8731641e-27
8.1734755e-28
-1.4703337e-24
1.7054581e-25
-1.8496785e-22
3.0266202e-23
-1.990335e-20
4.4964704e-21
-1.6773819e-18
5.3203741e-19
-6.4931217e-17
4.6782533e-17
0
2.3055309e-15
0
1.2074699e-13
0
6.8026062e-12
-7.5063363e-10
4.5525144e-12
-2.2903985e-09
0
-3.6825363e-09
0
-6.9082029e-10
2.8547465e-10
-4.5284171e-10
-4.2940389e-10
-4.5886582e-10
-4.0375882e-10
0
-3.0093192e-09
-4.6957288e-09
-1.0050449e-07
-2.6868513e-08
-3.7565829e-07
2.2819294e-08
-8.3340583e-07
2.5323997e-09
-3.2243861e-07
1.6756762e-09
-4.3248957e-09
5.0272818e-09
-7.1770111e-09
4.2372537e-08
-4.724041e-08
1.728652e-07
-1.9305149e-07
2.1315724e-07
-1.8956892e-07
2.2663525e-07
-1.4171743e-07
4.7783639e-08
-5.7741109e-08
2.085964e-08
-1.5963588e-09
2.5382267e-08
9.1400604e-10
3.3376789e-07
3.9532156e-08
4.0587543e-07
2.5896702e-07
1.5724043e-07
5.7782029e-07
0
1.4200778e-07
0
1.5169118e-08
2.7134729e-11
2.477803e-09
9.1316305e-13
8.837528e-11
9.332293e-15
3.992154e-12
7.4399606e-16
1.6572865e-13
8.2972097e-16
7.2628434e-15
2.0295638e-16
8.2529111e-16
6.9334931e-18
6.6542907e-17
1.258039e-19
2.4097433e-18
2.8127031e-21
6.6637796e-20
6.2005035e-23
1.6927218e-21
1.1870283e-24
3.7949327e-23
1.977775e-26
7.4568121e-25
2.8515464e-28
1.1981027e-26
3.4689646e-30
1.6595559e-28
3.526959e-32
1.9515924e-30
2.9501791e-34
1.9156283e-32
1.9889084e-36
1.5392498e-34
1.0541377e-38
9.8958929e-37
4.2408476e-41
4.9420404e-39
1.2306466e-43
1.8368234e-41
2.3832758e-46
4.7718307e-44
2.6900158e-49
7.8551664e-47
1.2965799e-52
6.7907281e-50
5.1038831e-54
6.8420735e-52
-3.181631e-54
1.4981889e-54
-2.7434241e-53
1.1346646e-52
-2.6856942e-51
6.7158503e-51
-1.8439224e-49
2.829722e-49
-9.953519e-48
8.6344996e-48
-3.1033888e-46
1.6269144e-46
-3.0528156e-45
1.3061896e-45
-5.7530415e-45
3.0427883e-45
1.6860535e-45
-4.1902339e-75
1.5493987e-74
-8.5482159e-73
1.8204422e-72
-6.5256373e-72
2.5889014e-71
-9.1865535e-72
5.8897622e-71
-1.0115713e-71
6.0350614e-71
-6.5546549e-72
4.2456102e-71
-2.610832e-72
2.0781343e-71
-3.0368657e-72
9.6457558e-72
-1.5472356e-71
1.9117719e-71
-3.6260645e-69
4.2337994e-69
-6.6141581e-67
7.2039612e-67
-1.0027041e-64
1.0172361e-64
-1.3086231e-62
1.2392613e-62
-1.5013827e-60
1.3309558e-60
-1.5348393e-58
1.2780915e-58
-1.4121973e-56
1.1082009e-56
-1.1784426e-54
8.7447521e-55
-8.9587866e-53
6.3145587e-53
-6.2438636e-51
4.1956672e-51
-4.0120613e-49
2.5772344e-49
-2.3697149e-47
1.4690347e-47
-1.2489902e-45
7.7337349e-46
-5.7147172e-44
3.744764e-44
-2.4589871e-42
1.7280977e-42
-1.2568656e-40
8.5309402e-41
-8.0855231e-39
4.9569902e-39
-4.2727902e-37
2.7856335e-37
-1.1968846e-35
1.0311367e-35
-1.510291e-34
2.0691081e-34
-8.735273e-34
2.2885784e-33
-3.5728503e-33
1.5994333e-32
-1.9190805e-32
7.4591056e-32
-4.1273815e-31
1.8594218e-30
-4.0362142e-29
2.2495332e-28
-4.785242e-27
4.2887657e-26
-5.9337512e-25
5.6131595e-24
-6.9823476e-23
2.8691619e-22
-6.3714692e-21
1.92537e-20
-2.8505016e-19
2.2930552e-18
3.6682866e-18
1.9621468e-16
2.5222995e-14
9.6987599e-15
2.2821618e-12
3.952477e-13
1.2781671e-11
0
-5.2622035e-11
0
-7.8897655e-10
0
-1.0378871e-09
8.1656555e-10
-6.2585736e-10
-1.2347259e-10
-9.2617206e-10
-3.3727783e-10
-7.1547841e-10
-3.7890318e-09
-7.1218051e-08
-1.5771872e-07
-1.1542611e-07
-8.8868483e-07
-2.2691062e-09
-8.9718659e-07
5.9333389e-08
-9.647309e-07
4.0538788e-09
-1.2260111e-07
1.7016288e-08
-2.4010902e-08
1.0078919e-07
-4.869115e-08
1.8749251e-07
-3.1016062e-07
1.8743323e-07
-1.7149589e-07
9.1401934e-08
-6.9656634e-08
6.4982648e-09
-7.9418745e-09
5.8188864e-09
-8.9717248e-10
6.0721041e-09
6.5329975e-10
4.1806545e-08
4.2688629e-09
5.8714603e-07
2.3862872e-07
3.9383637e-07
8.2611992e-07
0
4.3890913e-07
0
1.4927359e-08
0
1.5808461e-09
0
9.815299e-11
0
5.0394536e-12
3.532941e-15
2.115528e-13
1.1773591e-15
1.2130618e-14
1.0961101e-16
1.0089752e-15
3.8417799e-18
5.2343582e-17
9.0762036e-20
1.8212011e-18
2.063239e-21
5.229372e-20
4.2697993e-23
1.2596935e-21
7.5962042e-25
2.5876424e-23
1.1475359e-26
4.5067285e-25
1.4599334e-28
6.5599345e-27
1.5543648e-30
8.0581852e-29
1.3568747e-32
8.2290465e-31
9.4887295e-35
6.8506109e-33
5.1620158e-37
4.5283036e-35
2.0993163e-39
2.298542e-37
6.0144034e-42
8.5414644e-40
1.1014846e-44
2.1614601e-42
1.0697768e-47
3.3012546e-45
3.2223074e-51
2.3841444e-48
-7.9311997e-55
2.9702268e-50
-6.9392712e-53
2.3171558e-53
-2.4359211e-52
8.9932459e-52
-2.7032662e-50
6.6498064e-50
-2.0317221e-48
3.4774631e-48
-1.2056902e-46
1.3428349e-46
-5.6294337e-45
3.7403157e-45
-1.445872e-43
6.1273953e-44
-1.2030212e-42
4.0767549e-43
-2.132854e-42
7.1854277e-43
9.8785103e-44
-7.6051173e-73
8.1809608e-72
-1.5741545e-70
4.0547122e-70
-1.2207789e-69
5.6808723e-69
-1.721761e-69
1.2741961e-68
-1.919038e-69
1.2940085e-68
-1.280753e-69
9.1577289e-69
-5.0498436e-70
4.5111408e-69
-4.6002009e-70
1.8787708e-69
-1.5528248e-69
1.8478626e-69
-4.955251e-67
6.1143169e-67
-1.0514839e-64
1.2405008e-64
-1.745111e-62
1.9298246e-62
-2.4228345e-60
2.5043436e-60
-2.9106625e-58
2.8147504e-58
-3.0855695e-56
2.7966818e-56
-2.9223935e-54
2.4888104e-54
-2.4927345e-52
1.9999686e-52
-1.9283119e-50
1.4619886e-50
-1.3599663e-48
9.7646539e-49
-8.7850659e-47
5.9874718e-47
-5.1687942e-45
3.3758891e-45
-2.7103495e-43
1.7441458e-43
-1.2594752e-41
8.2672863e-42
-5.5225757e-40
3.7120496e-40
-2.4907039e-38
1.6945963e-38
-1.1053374e-36
8.0570984e-37
-4.508636e-35
3.6834786e-35
-1.575975e-33
1.4719063e-33
-3.0174e-32
4.3772764e-32
-1.9004908e-31
6.9992964e-31
-2.6919996e-31
5.4230588e-30
1.160707e-30
2.5836841e-29
1.3743801e-29
1.22753e-28
2.8890377e-28
1.5323474e-27
4.1164984e-26
1.7216776e-25
2.9185561e-24
9.2585445e-24
9.7752026e-23
2.438414e-22
3.8388681e-21
9.5422914e-21
3.8361097e-19
3.1793163e-19
3.9447276e-17
1.6853876e-17
6.8661366e-15
9.5559775e-16
3.9260853e-13
5.7321842e-14
4.1767395e-12
5.6929247e-13
6.0411101e-12
6.0038956e-12
-1.5776978e-11
4.3327045e-11
-1.8646612e-10
6.0776075e-10
-1.6043409e-10
1.2757683e-10
-6.9611338e-10
-3.7061751e-10
-1.3808947e-09
-5.0043759e-09
-1.1882452e-07
-6.1106472e-08
-1.5756196e-07
-6.4971116e-07
-4.1387673e-08
-9.6804097e-07
1.2529811e-07
-1.0940182e-06
3.9269125e-08
-8.7773851e-07
5.7669688e-08
-3.6857197e-07
1.5842737e-07
-2.6654433e-07
6.4417275e-08
-2.5360846e-07
6.1917077e-08
-5.5440631e-08
8.0398706e-09
-1.1291606e-08
3.1660249e-09
-3.0429062e-09
2.8326557e-09
-5.7525067e-10
2.7103977e-09
7.6560928e-10
5.0030692e-09
1.9973017e-09
3.2209176e-07
3.5980967e-07
3.3927118e-07
8.2170295e-07
7.1851016e-09
6.7995682e-07
0
1.825116e-08
0
8.5856878e-10
0
6.0320529e-11
0
3.0211858e-12
7.9508771e-15
1.4523941e-13
1.0652847e-15
1.1738153e-14
6.1777673e-17
8.0124508e-16
1.832951e-18
3.0634393e-17
4.4134342e-20
9.3030986e-19
9.6149185e-22
2.3999525e-20
1.8024527e-23
5.1742471e-22
2.8560905e-25
9.3634669e-24
3.7882792e-27
1.4195529e-25
4.1669923e-29
1.7971943e-27
3.7416845e-31
1.8757473e-29
2.6758205e-33
1.5854385e-31
1.4754124e-35
1.0577994e-33
5.9796526e-38
5.3752316e-36
1.6568702e-40
1.9709256e-38
2.7643585e-43
4.7955512e-41
2.0828704e-46
6.6950978e-44
1.0781397e-50
4.4119057e-47
-5.628161e-53
2.7968216e-49
-5.8316967e-52
7.0439185e-52
-1.731723e-51
5.7633135e-51
-2.1711799e-49
5.1353547e-49
-1.8607174e-47
3.248178e-47
-1.2009773e-45
1.5259594e-45
-6.4210734e-44
5.3989644e-44
-2.6231937e-42
1.3523928e-42
-5.6962026e-41
1.8822604e-41
-3.9617804e-40
9.8850623e-41
-6.9720617e-40
9.0820519e-41
-1.5444893e-40
-1.9990964e-70
1.0994388e-68
-2.4088944e-68
8.0564603e-68
-1.9569816e-67
1.0728002e-66
-2.8255274e-67
2.4023737e-66
-3.1868942e-67
2.4281835e-66
-2.1995832e-67
1.730926e-66
-1.0670684e-67
8.6276277e-67
-1.8113626e-68
3.2198215e-67
-7.2968227e-68
7.1562973e-68
-4.4011496e-65
5.2239587e-65
-1.2504901e-62
1.5456446e-62
-2.3952439e-60
2.8399488e-60
-3.6256763e-58
4.0423357e-58
-4.6225413e-56
4.8265628e-56
-5.1223923e-54
5.0076194e-54
-5.0245189e-52
4.601038e-52
-4.4095189e-50
3.7881659e-50
-3.4838827e-48
2.8124595e-48
-2.4973859e-46
1.894966e-46
-1.6293083e-44
1.1625872e-44
-9.6197133e-43
6.4994686e-43
-5.0517349e-41
3.2978138e-41
-2.3680122e-39
1.520558e-39
-1.0421385e-37
6.564172e-38
-4.3411287e-36
2.7582403e-36
-1.5183459e-34
1.1197146e-34
-4.8072755e-33
4.2966817e-33
-1.8077961e-31
1.7266929e-31
-3.6535757e-30
6.90174e-30
5.0763395e-30
1.4787871e-28
2.6951131e-28
1.2381498e-27
1.4714483e-27
4.9916593e-27
5.4008903e-27
1.5380536e-26
3.6026801e-26
8.2085763e-26
6.4240557e-24
1.2980635e-23
3.8877156e-22
8.3654359e-22
4.2434953e-21
1.0367684e-20
1.9634896e-20
4.2683884e-20
2.1690252e-19
2.7125655e-19
7.2345034e-18
7.4986637e-18
6.0831463e-16
1.4847069e-16
3.6661993e-14
1.0506254e-14
5.1843536e-13
1.3001244e-13
2.3546258e-12
4.2126398e-12
2.7942754e-11
1.8076466e-11
-3.7867874e-11
2.9699178e-09
-7.2003573e-10
2.6303515e-10
-3.6732828e-09
-4.0809826e-09
-3.1676033e-10
-4.3447359e-08
-2.937823e-09
-3.4891361e-08
-6.6930085e-08
-3.4700492e-08
-6.1082173e-08
-4.3284233e-07
5.0754216e-08
-1.1593626e-06
1.4125353e-07
-8.9989745e-07
1.6191456e-08
-7.4366014e-07
4.3695812e-09
-2.0072855e-07
2.1286068e-08
-5.3561492e-08
6.6977157e-09
-4.5854039e-08
2.9456361e-09
-7.9182479e-09
2.0258944e-09
-2.1607807e-09
1.7420935e-09
-3.0139445e-10
1.4285969e-09
1.0692341e-09
1.3734137e-09
2.0425394e-09
2.0934487e-07
6.63979e-07
2.3384841e-07
7.9244264e-07
1.139247e-07
6.9393455e-07
6.5407825e-10
1.0080957e-07
0
1.433403e-09
0
4.5797228e-11
2.9215181e-14
1.7152573e-12
5.2840794e-15
8.0360067e-14
5.0621142e-16
5.7695236e-15
2.1542358e-17
2.9428886e-16
5.5287827e-19
9.6813338e-18
1.2473118e-20
2.5702215e-19
2.4612681e-22
5.7550152e-21
4.0821523e-24
1.0794744e-22
5.6420257e-26
1.6933909e-24
6.4279105e-28
2.2128574e-26
5.930709e-30
2.3792658e-28
4.3213516e-32
2.0631769e-30
2.399379e-34
1.4049634e-32
9.6005184e-37
7.2334277e-35
2.5310678e-39
2.6544746e-37
3.663236e-42
6.3283046e-40
1.5947159e-45
8.5322188e-43
-8.1012722e-49
5.6720569e-46
-3.114231e-51
3.6905169e-49
-3.493941e-51
2.2604784e-50
-1.0573755e-50
3.1875039e-50
-1.4411018e-48
3.3025928e-48
-1.4005198e-46
2.4295731e-46
-1.0151364e-44
1.3551516e-44
-5.8618042e-43
5.7542905e-43
-2.8610284e-41
1.8530329e-41
-1.0274435e-39
4.09839e-40
-1.8992354e-38
4.6908503e-39
-1.151871e-37
1.7056589e-38
-2.0139029e-37
-1.4945645e-38
-9.9820214e-38
-6.5624068e-68
1.5293527e-65
-3.1520822e-66
1.9035172e-65
-2.7344459e-65
1.7864741e-64
-4.0780523e-65
4.0113808e-64
-4.6935233e-65
4.0505301e-64
-3.2982075e-65
2.9118755e-64
-1.668447e-65
1.4575882e-64
-1.1864251e-66
5.4081431e-65
-2.2860813e-66
5.2551809e-66
-1.3785359e-63
1.5381821e-63
-5.6582371e-61
7.1765066e-61
-1.3125587e-58
1.6637216e-58
-2.2407681e-56
2.6863001e-56
-3.1061829e-54
3.4986428e-54
-3.660177e-52
3.8590574e-52
-3.7663803e-50
3.7119659e-50
-3.443482e-48
3.1681669e-48
-2.8212324e-46
2.4230401e-46
-2.0812815e-44
1.6678506e-44
-1.3892319e-42
1.0378412e-42
-8.4012832e-41
5.8458213e-41
-4.6134689e-39
2.9810453e-39
-2.2862468e-37
1.3742626e-37
-9.795212e-36
5.6613961e-36
-3.3313024e-34
2.0644093e-34
-9.2231886e-33
6.9209204e-33
-3.8238147e-31
2.6540109e-31
-3.2532067e-29
1.8168282e-29
-2.002256e-28
1.3307535e-27
1.7884366e-26
3.4862479e-26
1.8875438e-25
2.7422245e-25
6.0598627e-25
9.2637221e-25
1.3476765e-24
2.0577918e-24
5.4349037e-24
7.0011236e-24
8.7582779e-22
9.6197546e-22
3.2433025e-20
3.9907062e-20
2.5497677e-19
3.799585e-19
7.9091556e-19
1.4600216e-18
1.7422649e-18
3.2305765e-18
7.720315e-18
7.3160011e-18
8.034353e-17
6.8391861e-17
3.8093432e-15
4.1026717e-16
1.1713946e-13
1.439783e-14
3.9738138e-12
3.6145032e-13
4.9560534e-10
8.9745765e-10
1.4156499e-09
3.9423543e-09
8.7972153e-10
1.2752076e-09
-1.5071843e-09
-6.6348294e-09
-2.2964579e-09
-4.2601828e-08
-2.5892206e-09
-3.3929285e-08
-6.1330713e-09
-3.6113067e-08
3.6488665e-09
-3.2590447e-08
8.6408044e-08
-6.9400706e-07
6.5497198e-08
-2.9034279e-07
6.9954283e-08
-4.6124606e-08
5.2491716e-08
-2.300832e-07
6.7446513e-08
-1.7253878e-07
6.4435726e-08
-5.6215486e-07
1.2782135e-09
-1.0074668e-08
1.0210522e-09
-1.9392379e-09
7.8351838e-10
-7.3783381e-11
3.7511199e-10
1.468223e-09
1.9403834e-08
2.4003462e-07
4.8773308e-08
6.2985275e-07
8.0108203e-08
7.5418743e-07
9.9752886e-08
6.648443e-07
0
1.1756046e-07
0
1.6098625e-09
0
4.2647689e-11
0
1.1383653e-12
1.5596137e-15
3.5568881e-14
1.2251634e-16
1.7701031e-15
4.0920093e-18
6.4951358e-17
9.622537e-20
1.7872297e-18
1.96837e-21
4.0848993e-20
3.4278139e-23
7.8726262e-22
4.9599398e-25
1.2774337e-23
5.8912051e-27
1.7334929e-25
5.6382937e-29
1.9426147e-27
4.225409e-31
1.7606831e-29
2.3767184e-33
1.2536029e-31
9.378192e-36
6.7203839e-34
2.2912568e-38
2.5462274e-36
2.4790057e-41
6.1625075e-39
-6.1977178e-45
9.2664592e-42
-3.6255916e-47
7.7433433e-45
-6.8950554e-50
7.0674282e-48
-2.1092088e-50
2.7247882e-49
-5.9422157e-50
1.5005489e-49
-8.3440875e-48
1.8779947e-47
-8.8721856e-46
1.5328824e-45
-7.2463494e-44
9.8424444e-44
-4.6062479e-42
4.8867158e-42
-2.4213754e-40
1.875318e-40
-1.0763497e-38
5.4368044e-39
-3.4496544e-37
1.0364663e-37
-5.354315e-36
9.2392264e-37
-3.0941203e-35
1.2410942e-36
-5.1841798e-35
-1.4652786e-35
-3.9745424e-35
6.5782817e-65
1.6938861e-62
-4.0925692e-64
9.2790094e-63
-3.3366484e-63
2.7158686e-62
-5.2013319e-63
5.9978229e-62
-6.185237e-63
6.0840451e-62
-4.4217972e-63
4.4162904e-62
-2.5201824e-63
2.2418555e-62
-9.7745344e-65
9.2582739e-63
-1.3210835e-64
4.8338292e-64
-3.2598648e-62
4.7550858e-62
-2.6898572e-59
2.74118e-59
-1.1613953e-56
1.4294166e-56
-2.7302581e-54
3.4332997e-54
-4.4384576e-52
5.3639992e-52
-5.7567258e-50
6.5415771e-50
-6.3312528e-48
6.7187312e-48
-6.0752611e-46
6.0002179e-46
-5.1730813e-44
4.7370566e-44
-3.9397426e-42
3.3358363e-42
-2.695796e-40
2.0990513e-40
-1.6600025e-38
1.1811283e-38
-9.1821479e-37
5.9191006e-37
-4.5319853e-35
2.6178952e-35
-1.9406708e-33
1.0069164e-33
-6.7230556e-32
3.2838678e-32
-1.8897904e-30
8.9927175e-31
-6.3330565e-29
2.249469e-29
-3.0601102e-27
6.5571188e-28
3.5118291e-26
1.8806068e-26
3.7498801e-24
7.7145187e-25
3.7653595e-23
1.2497165e-23
1.1049794e-22
6.3755971e-23
1.9514178e-22
1.5034871e-22
4.2358826e-22
3.4495902e-22
3.1558979e-20
1.9752586e-20
8.7325995e-19
6.5317094e-19
6.055126e-18
5.6192629e-18
2.0007965e-17
2.3240007e-17
4.2869624e-17
5.6482875e-17
8.0501364e-17
1.3218198e-16
1.0008878e-16
1.3723971e-16
3.547003e-16
2.2178396e-16
1.284935e-14
1.8047598e-15
3.4909391e-13
2.5516558e-14
1.89561e-09
4.1774264e-09
4.2925171e-09
3.430999e-09
9.8580478e-09
1.9533591e-09
1.3782916e-08
-9.3147429e-09
1.1652564e-08
-4.0204638e-08
5.1640503e-09