/*--------------------------------*- C++ -*----------------------------------*\
  =========                 |
  \\      /  F ield         | OpenFOAM: The Open Source CFD Toolbox
   \\    /   O peration     | Website:  https://openfoam.org
    \\  /    A nd           | Version:  9
     \\/     M anipulation  |
\*---------------------------------------------------------------------------*/
FoamFile
{
    format      ascii;
    class       volScalarField;
    location    "0.98";
    object      p;
}
// * * * * * * * * * * * * * * * * * * * * * * * * * * * * * * * * * * * * * //

dimensions      [1 -1 -2 0 0 0 0];

internalField   nonuniform List<scalar> 
10000
(
0
0.0033116393
0.0061921395
0.010267333
0.015335394
0.021605603
0.029284256
0.038637788
0.04997259
0.063600614
0.079892957
0.099236636
0.12204822
0.14874458
0.17973344
0.2153778
0.25603506
0.30203071
0.35362017
0.41104356
0.47447533
0.54398156
0.61958634
0.70128922
0.78905017
0.88282539
0.98255143
1.087891
1.1985022
1.3142138
1.4349816
1.5607928
1.6916468
1.8275481
1.9682945
2.1131137
2.2604936
2.406357
2.5410987
2.6587639
2.7465149
2.7083897
2.4488786
2.0577156
1.8989262
2.3582262
3.207426
4.2678054
5.927368
7.548718
9.0350634
10.061105
10.690939
10.939462
10.819288
10.311375
9.9936159
9.6315665
9.3326344
8.7548493
9.5184029
9.5862563
9.1924591
8.897719
8.6223375
8.6454297
8.7196845
8.7795882
8.859707
8.9207992
8.9620754
8.9828727
8.980836
8.9572282
8.9147646
8.8561829
8.7841969
8.7014024
8.6102247
8.5129144
8.4115159
8.3078838
8.203612
8.1001324
7.998727
7.9004982
7.8063795
7.717078
7.6332218
7.5552857
7.4836127
7.4183802
7.3596503
7.3075141
7.2620034
7.223233
7.1914717
7.1665343
7.1461746
7.1325374
-0.0020563171
0.0013039875
0.0041112485
0.0080426562
0.012881441
0.018907962
0.026280947
0.035300793
0.046248494
0.059495996
0.07542096
0.094420328
0.11690507
0.14330253
0.17399337
0.20935875
0.24977703
0.29555289
0.34696926
0.40427628
0.46759835
0.53699023
0.61246754
0.69392357
0.78119052
0.87408101
0.97226235
1.0751795
1.1822335
1.292846
1.4063501
1.5219189
1.6385435
1.7548823
1.8689352
1.9776278
2.0763854
2.1576002
2.2083736
2.2127237
2.1335246
1.8623085
1.3454476
0.92848009
0.93590437
1.1285035
2.1122416
3.5117756
5.2454542
6.9444974
8.397152
9.4754343
10.125437
10.357509
10.247973
9.8724856
9.4188959
8.9393561
9.8874611
9.8230674
9.0449355
8.0213852
8.259068
8.008013
7.893767
8.2423668
8.450633
8.5822602
8.7165972
8.7965063
8.8482614
8.8741464
8.8768409
8.8587067
8.8219894
8.7692013
8.7028893
8.6255583
8.539593
8.4472579
8.3506137
8.2515173
8.1515612
8.0521859
7.9546385
7.8599812
7.769132
7.6827999
7.6015566
7.5258495
7.4560508
7.3924087
7.3351109
7.2842927
7.2399922
7.2021841
7.1713765
7.146817
7.126933
7.1136531
-0.0041975673
-0.0010202356
0.0014420179
0.0050021264
0.0094022498
0.014883032
0.021667526
0.030029438
0.040283026
0.052795977
0.067967424
0.08621135
0.10796923
0.13365725
0.16368063
0.19845239
0.23833687
0.28367797
0.33479747
0.39190703
0.4551346
0.52456366
0.60015114
0.6817111
0.7690072
0.86170233
0.9592368
1.0608805
1.1658042
1.2730081
1.3812367
1.4889472
1.5941863
1.6943144
1.7856477
1.8629633
1.9187773
1.941875
1.915787
1.8192733
1.605732
1.1658554
0.47154698
0.39249245
0.037107704
0.13256212
0.92093048
2.3031517
4.1083063
5.9488141
7.4485144
8.5707117
9.174404
9.4147232
9.2893402
8.8444445
8.2689138
7.6927535
7.0846407
7.9774028
7.3171564
7.8144819
7.0060902
6.8398363
7.1549544
7.7903211
8.1965403
8.486082
8.6412737
8.718028
8.7622468
8.7843492
8.7876883
8.7725944
8.740079
8.6921101
8.6307954
8.5583638
8.4770512
8.3890448
8.2963689
8.2008907
8.1042359
8.0078948
7.9131295
7.8210138
7.7324317
7.6481303
7.5687169
7.4946509
7.4263457
7.3641049
7.308088
7.2582998
7.2149283
7.1779156
7.1474969
7.1232935
7.1039319
7.0911922
-0.0067054461
-0.0037547445
-0.0018305013
0.0011629189
0.0048628938
0.0095388038
0.015398536
0.022762367
0.031944899
0.04332239
0.057305643
0.074352372
0.094907532
0.11941712
0.14834445
0.18210603
0.22110448
0.26573831
0.31630893
0.37302959
0.43607293
0.50550314
0.58122841
0.66304766
0.75064195
0.84349037
0.94084723
1.0417974
1.1452049
1.249616
1.3532345
1.4538535
1.5486236
1.6337472
1.7041404
1.752881
1.7703318
1.7429538
1.6524401
1.4763098
1.1682743
0.60935088
-0.24110394
-0.48145014
-1.0617859
-1.1460517
-0.4413935
0.88856734
2.7044434
4.5587131
6.0504439
7.2050929
7.8439514
8.1555537
8.0311677
7.468014
6.966773
6.1560792
5.9336868
5.2469662
4.8625033
5.3659833
5.8403689
5.8649717
6.1218055
7.2464756
8.0157666
8.4239977
8.5890133
8.6607147
8.6984454
8.7175764
8.7205739
8.7062366
8.6748296
8.6281828
8.5683591
8.4975302
8.4178896
8.3316141
8.2407213
8.1470643
8.0522866
7.9578697
7.8650638
7.7749302
7.688288
7.605853
7.5282168
7.455869
7.389155
7.3283586
7.2736756
7.2250969
7.1828498
7.1467979
7.1171184
7.0935171
7.0748454
7.0629815
-0.0096023533
-0.006896994
-0.0055709154
-0.0033417221
-0.00054293493
0.003064319
0.0077101614
0.013729451
0.021456393
0.03128097
0.04365896
0.059056744
0.077952271
0.10085272
0.12823948
0.16057542
0.19833651
0.24193243
0.29168521
0.34787299
0.41068399
0.48015443
0.55620374
0.63861836
0.72695297
0.82051916
0.91842277
1.0195101
1.1222685
1.2247869
1.3247252
1.419161
1.5043173
1.5752606
1.6255349
1.6465575
1.626681
1.5501365
1.3967477
1.1422055
0.74296573
0.086349734
-0.88367267
-1.5651047
-2.2700813
-2.4403046
-1.8863392
-0.72485687
0.96190847
2.694489
4.2338663
5.5340607
6.319662
6.7681979
6.6904858
6.0792467
5.5044324
4.3087562
2.7885918
3.001306
2.5742378
2.5563732
2.9596785
4.6852918
4.4696164
6.6036466
7.6850149
8.2176875
8.4403464
8.5487955
8.6057496
8.6349033
8.6436556
8.6325673
8.6028474
8.5571794
8.4981355
8.4281504
8.3495567
8.2645784
8.1752618
8.0833993
7.9906138
7.8983295
7.8077244
7.7198096
7.6353676
7.555083
7.4794947
7.4091014
7.3442014
7.2851197
7.2319244
7.1848298
7.1438107
7.1089314
7.0802765
7.0575501
7.0398019
7.0290991
-0.012265833
-0.010177772
-0.0096685805
-0.0083710228
-0.0067097253
-0.0044273006
-0.001306852
0.0030058826
0.0088632458
0.016703053
0.026999914
0.040254337
0.057011612
0.077808645
0.10317096
0.13365385
0.16977029
0.21195478
0.26062134
0.31611466
0.37862344
0.44821744
0.52485713
0.60828966
0.69797002
0.79310012
0.89263718
0.99514825
1.0987556
1.2011385
1.2994035
1.389901
1.4680036
1.527745
1.5613654
1.5586534
1.5060602
1.3854491
1.1738251
0.84518892
0.36348628
-0.37747192
-1.4325436
-2.5773294
-3.3739088
-3.6760008
-3.5073008
-2.7187179
-1.3229763
0.36959994
2.21558
4.6325164
5.013449
5.4342554
5.3405792
4.6327564
3.3046341
2.0854484
0.53385511
-0.76246045
-1.3030776
-1.1664202
-0.7433221
1.5717194
3.5243071
5.4567106
7.003901
7.7490683
8.1465417
8.363667
8.4727076
8.5279405
8.550624
8.5466056
8.5204089
8.4766301
8.4187806
8.3498439
8.2724498
8.188911
8.1012908
8.0113566
7.9206981
7.8306536
7.7423679
7.6567508
7.5745748
7.4964847
7.423037
7.3547082
7.2917322
7.234504
7.1830484
7.1375135
7.0979562
7.0644351
7.0370513
7.0154355
6.9988317
6.9895857
-0.015226324
-0.013625758
-0.013958298
-0.013754354
-0.01344548
-0.012774488
-0.011516958
-0.0093063345
-0.005741185
-0.00036049046
0.0073418376
0.01793824
0.032010423
0.050142948
0.07296191
0.10108273
0.13506001
0.17543275
0.22271132
0.27728295
0.33940235
0.40922875
0.4867416
0.57165471
0.66340405
0.76112451
0.86358381
0.96909112
1.0754498
1.1799753
1.2792248
1.3687806
1.4434773
1.4964598
1.5188761
1.4991064
1.421985
1.2674681
1.0080329
0.6122456
0.078966557
-0.74586751
-1.8666955
-3.1595474
-4.2839106
-5.0342729
-5.5537508
-5.3945238
-4.3089403
-2.4642433
2.5188852
4.1332486
5.1011313
4.3302709
4.0391354
2.6818827
1.2629652
-0.44515192
-2.2803754
-4.1128175
-4.7993271
-4.6397118
-3.3925937
-1.5170582
4.7447245
4.22094
6.1160518
7.1621353
7.7965597
8.1458686
8.3188407
8.4082209
8.4490296
8.4538738
8.4320113
8.3903983
8.3337217
8.2656612
8.1892026
8.1068212
8.020593
7.9322735
7.8434675
7.7554227
7.6692569
7.5858044
7.5058252
7.4299478
7.3587344
7.2925368
7.2317335
7.1764636
7.1268999
7.0831702
7.0452978
7.0133466
6.9874175
6.9671288
6.9518815
6.9443441
-0.018054162
-0.016930955
-0.018194085
-0.01921316
-0.020483903
-0.02172293
-0.022697452
-0.022997891
-0.022195936
-0.019795693
-0.015221492
-0.0078633581
0.0029070184
0.017777092
0.03745062
0.062595621
0.093883138
0.13198135
0.17747276
0.23083171
0.29245163
0.362583
0.44123492
0.52816307
0.62283502
0.72431898
0.83119613
0.94158003
1.0529614
1.1622826
1.2658188
1.3578204
1.4335839
1.48519
1.5031757
1.475007
1.3841882
1.2091199
0.92157535
0.48871931
-0.12613352
-1.0050632
-2.2016107
-3.6696742
-5.1867185
-6.6582837
-8.1332946
-8.8747831
-8.1977953
-6.1530347
-0.82636912
1.6894398
2.9733208
2.0545584
1.6497824
0.37950749
-1.1175356
-3.3466473
-5.0740657
-6.788851
-7.5876032
-7.2117726
-5.6754221
-3.8065799
3.7636479
3.3079775
5.3393006
6.6392924
7.4889112
7.9397848
8.1660629
8.2868856
8.3444621
8.3575454
8.3396555
8.2997791
8.2437668
8.1760409
8.0999753
8.0181952
7.9328474
7.8457308
7.7584099
7.672111
7.587856
7.5065187
7.4287875
7.3552133
7.2863549
7.2224879
7.1639602
7.1109196
7.063471
7.021744
6.98579
6.9556604
6.9313826
6.9125732
6.8988469
6.8931001
-0.020242796
-0.019706787
-0.022021069
-0.024417589
-0.027505723
-0.0309784
-0.034557922
-0.037815966
-0.040292767
-0.041416947
-0.040575227
-0.037116633
-0.030310048
-0.019383772
-0.0035756297
0.017903964
0.045877368
0.081114253
0.1243052
0.17609171
0.23701736
0.30742929
0.38744733
0.47694731
0.57545778
0.68200525
0.79504959
0.91246842
1.0314272
1.1482924
1.2603721
1.3588582
1.4398278
1.4956637
1.5165006
1.4892362
1.3966015
1.2156914
0.91652045
0.46186502
-0.19355115
-1.1210514
-2.4084803
-4.0967975
-6.0858561
-8.3076477
-10.919362
-12.696478
-12.688992
-10.678327
-6.9539767
-2.7786695
1.2265093
3.3213656
2.4323496
-1.1110491
-2.9462554
-4.416612
-7.1187999
-8.6954684
-9.3420709
-8.6211454
-6.5548719
-4.4602185
1.5646415
4.3207106
4.7936511
6.3098853
7.2613008
7.762099
8.0256559
8.1697344
8.2398056
8.2590155
8.2437715
8.2046622
8.1485382
8.0804059
8.0040205
7.9222465
7.8372862
7.7510112
7.664889
7.5801626
7.4977937
7.4185823
7.3431385
7.2720544
7.2056592
7.1443178
7.0882649
7.0376471
6.9925754
6.9531407
6.919337
6.8912574
6.8688594
6.8516717
6.8396119
6.8356602
-0.021296672
-0.02149949
-0.024995314
-0.028947417
-0.034124492
-0.040162592
-0.046762707
-0.053465156
-0.059747744
-0.065005051
-0.068582231
-0.069731665
-0.067636909
-0.061465735
-0.050335641
-0.033297478
-0.0094087212
0.022229413
0.062495673
0.1122234
0.17210351
0.24264971
0.32419297
0.41677756
0.52002068
0.63301444
0.75421155
0.88114413
1.0105027
1.1400333
1.2619228
1.3711755
1.4623817
1.528514
1.5600569
1.5440157
1.4627588
1.2927898
1.0028841
0.55287611
-0.10747971
-1.0529079
-2.4026321
-4.2868053
-6.7097025
-9.6356857
-13.018978
-15.630743
-16.199145
-14.410949
-10.575663
-5.8452109
-0.56549589
0.76099335
-0.91111995
-1.3664764
-3.8766821
-6.0967531
-8.1309887
-9.1691633
-9.6114655
-8.5695132
-5.9868475
-3.5192481
0.91770897
4.3271734
4.7002423
6.1486709
7.103426
7.6221753
7.9053445
8.0624624
8.1391598
8.1609516
8.1459474
8.1058061
8.0482279
7.9786693
7.9011078
7.8186433
7.7335739
7.647728
7.5626013
7.4792305
7.3987069
7.3216295
7.2485588
7.1800172
7.1163123
7.0576926
7.0043895
6.9565052
6.9140725
6.8771933
6.8458367
6.8200716
6.7997695
6.7843657
6.7740889
6.7718173
-0.020834392
-0.021722872
-0.026529102
-0.032295144
-0.039856985
-0.048830402
-0.058902539
-0.069550453
-0.080228326
-0.090303075
-0.099028049
-0.10557382
-0.10907025
-0.10856904
-0.10302643
-0.091363045
-0.072504854
-0.045349802
-0.0087895358
0.03819144
0.096490127
0.16688472
0.2499622
0.34599148
0.45479296
0.57565243
0.70704081
0.84636065
0.98957601
1.1350571
1.2709927
1.394207
1.4998738
1.5820411
1.6321923
1.6378774
1.581815
1.4407351
1.1836415
0.76996623
0.147651
-0.75989672
-2.0883292
-4.0339079
-6.6783629
-10.015261
-13.867903
-16.957085
-18.08693
-16.735925
-12.771272
-7.5426395
-2.9243979
-0.36624926
0.11816425
-1.1000358
-2.1102304
-3.2355728
-6.45106
-7.7472724
-8.3492976
-7.3682431
-4.1963747
-1.6896301
1.6122914
4.4366725
4.7999682
6.1482517
7.0422847
7.5371173
7.8182847
7.9744522
8.048694
8.0674551
8.0489064
8.0049576
7.9438331
7.871277
7.7913896
7.707279
7.6214299
7.5355536
7.4512053
7.3687453
7.2900317
7.2151025
7.1445468
7.0787244
7.0179257
6.9622932
6.9119892
6.8671144
6.8276615
6.7936541
6.7650544
6.7419258
6.7239765
6.7105902
6.7023052
6.7019655
-0.01828016
-0.019857361
-0.026084337
-0.033889883
-0.044156223
-0.056459925
-0.070457363
-0.085608681
-0.10134378
-0.11695414
-0.13162813
-0.14448692
-0.15455677
-0.16073752
-0.1618538
-0.15669408
-0.14397544
-0.12236033
-0.090527599
-0.047225312
0.0087418453
0.078468268
0.16284703
0.26244553
0.37743581
0.50743804
0.65108155
0.80636785
0.96750237
1.1319539
1.2858414
1.4256895
1.5489625
1.6521119
1.7282163
1.765622
1.7479815
1.653203
1.4520856
1.1070338
0.56975432
-0.23092759
-1.4298958
-3.2471486
-5.8048076
-9.1707511
-13.10673
-16.366513
-17.828065
-16.633486
-12.92256
-7.3893267
-1.9754941
0.86639664
1.1916062
1.2880206
-0.52763342
-2.3185371
-4.0832694
-5.1511574
-4.9887858
-5.3021075
-1.84538
0.19182809
2.5229206
4.1531297
5.2231102
6.3717861
7.1045471
7.5286409
7.7804436
7.9141304
7.9746221
7.9828674
7.9554241
7.9038172
7.8362783
7.7585867
7.6748372
7.5879042
7.5004144
7.4136561
7.3295103
7.2483523
7.1711414
7.0983664
7.0303997
6.9675466
6.9099219
6.8576208
6.8106878
6.7691702
6.7330476
6.7022447
6.6767423
6.6565824
6.6412604
6.6301753
6.62422
6.6261978
-0.013002324
-0.015247782
-0.023002431
-0.033097536
-0.046393826
-0.06241879
-0.080844435
-0.10111123
-0.12258708
-0.14451408
-0.16605506
-0.18624188
-0.20395857
-0.21799031
-0.22703333
-0.22967858
-0.22439924
-0.2096303
-0.183819
-0.14539284
-0.092800918
-0.024602939
0.060456137
0.16339111
0.2847937
0.42481686
0.58439551
0.75863157
0.94192547
1.1307691
1.3049628
1.462057
1.604295
1.7320035
1.8406025
1.9186305
1.9509384
1.9172846
1.7915321
1.5421377
1.1306272
0.50001848
-0.46718258
-1.969745
-4.1335678
-7.1124102
-10.671491
-13.722812
-15.248015
-14.286782
-10.864483
-5.3482639
0.32041368
3.3467183
3.5819814
3.2031148
0.65974425
-1.4150143
-3.1246701
-4.0603463
-2.2694719
-2.6476099
0.90082941
2.3017652
3.4768091
4.7553046
5.8860592
6.7416931
7.2675751
7.5970423
7.7971119
7.882028
7.9207868
7.9101745
7.8672711
7.8032078
7.7258589
7.6405594
7.551072
7.4595491
7.3694926
7.2815453
7.1970499
7.1167686
7.0412106
6.9707261
6.905576
6.8459499
6.7917946
6.7431221
6.6999237
6.6621535
6.6297428
6.6025185
6.580504
6.5636954
6.5514004
6.542837
6.5396386
6.5443579
-0.0041956461
-0.0073407474
-0.016459683
-0.029187131
-0.04584209
-0.066011564
-0.089400159
-0.11539988
-0.14334754
-0.17247636
-0.20188044
-0.23048393
-0.25707146
-0.28031106
-0.29871919
-0.31065597
-0.31437292
-0.30805799
-0.2898454
-0.25781222
-0.21004333
-0.14471058
-0.060091093
0.045395852
0.17283535
0.3215449
0.49967832
0.69829819
0.91161926
1.1269823
1.3259944
1.4972692
1.6579367
1.8141894
1.9603973
2.0860654
2.1771832
2.2152376
2.1770781
2.0390233
1.7778282
1.35927
0.70035687
-0.34157717
-1.8899416
-4.0838942
-6.8345505
-9.3496973
-10.593145
-9.8999715
-7.0123872
-1.9436399
3.2466361
6.3108874
6.9082638
5.1896449
2.2700531
0.14635766
-1.8936495
-3.4512976
-0.87500901
-0.96236468
3.6209117
2.9424176
4.0528264
5.5569231
6.4930908
7.1244125
7.4897652
7.7195881
7.846349
7.8929548
7.8903151
7.8502443
7.7846917
7.7029147
7.6120382
7.5162194
7.4186776
7.3218505
7.2279063
7.1379531
7.0528348
6.9731165
6.8992473
6.8312284
6.7691625
6.7130615
6.6627929
6.6181702
6.579108
6.5454856
6.5171702
6.493929
6.4758095
6.4627322
6.4538165
6.4481693
6.4482315
6.456134
0.0090371045
0.0048625836
-0.0058670826
-0.021386823
-0.041724684
-0.066465894
-0.095331563
-0.12770622
-0.1629342
-0.20020331
-0.23852471
-0.27676019
-0.31360888
-0.34757174
-0.3769567
-0.39992504
-0.41449489
-0.41854244
-0.4098396
-0.38611612
-0.34510314
-0.28451019
-0.20205275
-0.09534788
0.038292603
0.20249357
0.39157996
0.61705496
0.87059576
1.121481
1.3515823
1.5221798
1.6974681
1.8854582
2.0766269
2.2581855
2.4142478
2.5260064
2.5747861
2.5467998
2.4395993
2.2471613
1.9352058
1.4290371
0.63954088
-0.53189655
-2.1198354
-3.7853396
-4.7528885
-4.3011657
-2.2161035
1.3844941
5.5495713
13.596166
9.505179
8.8973386
4.4505022
3.1239249
1.4823264
0.12905537
0.63065093
1.4921938
2.4256453
3.8070839
5.397544
6.4810561
7.1377617
7.5373558
7.7630702
7.8897396
7.9373648
7.9265428
7.8768336
7.8001884
7.7062592
7.6023261
7.4938555
7.3844986
7.2768644
7.1729038
7.0741217
6.9815217
6.8955018
6.8163418
6.7441814
6.6788787
6.6202582
6.5681025
6.5221485
6.4820341
6.4475664
6.418521
6.3946592
6.3757734
6.3619582
6.3530223
6.3478173
6.3455615
6.3495565
6.3611123
0.027513164
0.022262028
0.0097069613
-0.0088011066
-0.033145987
-0.062858092
-0.097730744
-0.13717521
-0.18051371
-0.22688506
-0.27527819
-0.32450223
-0.37312864
-0.41948033
-0.46169412
-0.49772051
-0.52529133
-0.54193615
-0.54505682
-0.53202785
-0.50019612
-0.44680259
-0.36907693
-0.2641896
-0.12888991
0.039898003
0.24389256
0.49825911
0.8130078
1.114114
1.3893263
1.5242254
1.7106616
1.9374887
2.178848
2.4185484
2.6400285
2.8206424
2.9438671
3.0107918
3.040373
3.0634406
3.0953608
3.1329412
3.1409772
2.9969223
2.6197605
1.9104712
1.3494351
1.17837
1.1801203
2.4950216
10.773927
11.868457
10.365967
10.023638
6.6840316
7.0441457
5.9255203
3.9232274
3.7556893
4.3298981
4.9900699
5.9160901
6.8589066
7.4652922
7.8195511
8.0035894
8.0866452
8.1012284
8.0605015
7.9811096
7.8768139
7.756965
7.6289408
7.4981653
7.3686311
7.2430803
7.1234412
7.0110156
6.9065904
6.810785
6.7236108
6.6450235
6.5747648
6.5124898
6.4577327
6.4100327
6.3689199
6.3338674
6.3045004
6.2804742
6.2614537
6.2472648
6.2381069
6.2337313
6.2324592
6.2341625
6.2430208
6.2588591
0.052201041
0.045844002
0.031257695
0.0095691604
-0.019084547
-0.05415183
-0.095588342
-0.14278784
-0.19506265
-0.25156833
-0.31128112
-0.37292762
-0.43496167
-0.49558038
-0.55274593
-0.60414103
-0.64717124
-0.67903191
-0.69676257
-0.69726975
-0.67747406
-0.63426231
-0.56458754
-0.4655451
-0.33358072
-0.16596239
0.036707591
0.30420371
0.70256946
1.0768349
1.3695814
1.4427726
1.6699454
1.9617433
2.2610491
2.5606444
2.8453356
3.082485
3.2566165
3.3858573
3.5220971
3.7310026
4.0565937
4.5799939
5.3143752
6.134026
6.7290711
6.9151151
6.8824405
6.1064051
4.4003968
18.030768
11.534007
9.0087482
10.183186
10.180747
8.5043489
9.5287749
8.1252258
6.5592481
6.8080806
7.0680008
7.3748939
7.7880571
8.1787229
8.4087016
8.5038278
8.5031787
8.4435854
8.3404565
8.2047746
8.0493394
7.8838563
7.7150638
7.5481622
7.386655
7.2331238
7.0892161
6.9559399
6.8337912
6.7230875
6.6236983
6.5353179
6.4574461
6.3894852
6.3307217
6.2804206
6.237818
6.2021571
6.1727423
6.1490101
6.1304521
6.1166358
6.1074017
6.1030733
6.1032603
6.1062661
6.1127502
6.1278591
6.1490335
0.084147112
0.076648611
0.059862685
0.034834422
0.0015585136
-0.039200846
-0.087719978
-0.14332801
-0.20539317
-0.27311002
-0.34542479
-0.42100319
-0.49823857
-0.57523307
-0.64971331
-0.71907846
-0.78042755
-0.83057369
-0.86613011
-0.88348621
-0.879057
-0.84942209
-0.79139509
-0.70242955
-0.57971456
-0.42327683
-0.25830685
-0.10145333
0.45322119
1.4394582
2.0951014
1.2868347
1.5605338
1.9604247
2.32679
2.6900645
3.0369093
3.3212488
3.526258
3.6706073
3.8615656
4.2042639
4.7867982
5.6396095
6.8305128
8.2558577
9.6908725
10.677337
11.355793
11.02247
18.755356
19.282051
6.9614062
9.3364387
10.56591
10.585632
9.9097014
9.3474707
9.0873761
9.0148598
9.147942
9.286013
9.3280681
9.3580652
9.363565
9.3070754
9.1876276
9.0178904
8.8158765
8.5920839
8.3572177
8.120707
7.8892374
7.6672807
7.4579046
7.2628312
7.0831185
6.91918
6.7710715
6.638458
6.520944
6.4179011
6.3284795
6.2517339
6.1866214
6.1320505
6.0869505
6.0502212
6.0207876
5.9977036
5.980175
5.9675029
5.959171
5.95508
5.9555075
5.9600132
5.9671322
5.9794903
6.0031852
6.0314344
0.12443444
0.11580244
0.096698148
0.06808587
0.030009549
-0.016650564
-0.072761575
-0.13743453
-0.2101421
-0.29011357
-0.37632163
-0.46745208
-0.56186412
-0.65750951
-0.75191601
-0.84221524
-0.92516903
-0.99717152
-1.0542631
-1.0922505
-1.1070193
-1.0947633
-1.0521487
-0.97713087
-0.87025802
-0.73459268
-0.60345718
-0.50112918
2.8602524
5.2260608
5.5460834
3.1967859
1.6671904
1.9857221
2.3949351
2.8345065
3.2477624
3.5611062
3.7671405
3.8863364
4.0641732
4.4292905
5.0598769
6.0391868
7.5393727
9.3478628
11.337886
12.850908
14.497964
19.255902
20.089273
10.076287
9.8196515
10.562289
11.22191
11.301545
11.128952
11.018329
11.002435
11.005854
11.023156
11.01111
10.888779
10.691863
10.454181
10.179282
9.8702781
9.5353601
9.1887971
8.8416428
8.5040718
8.1830002
7.8825721
7.6049146
7.3509613
7.1206584
6.9134654
6.7285974
6.5649795
6.4215973
6.2972676
6.1907688
6.1007033
6.0257218
5.9642666
5.9148173
5.8758719
5.8459737
5.823687
5.807758
5.797088
5.7907039
5.7880404
5.789213
5.7942893
5.8018256
5.8120241
5.8313404
5.8672604
5.9052543
0.17422475
0.16451611
0.14301772
0.11068905
0.067424702
0.014996709
-0.049265838
-0.12359424
-0.20768431
-0.30089545
-0.40231437
-0.51069252
-0.62434392
-0.7411156
-0.85835632
-0.9729412
-1.0812667
-1.1792465
-1.2622255
-1.3252151
-1.3633891
-1.3723882
-1.348144
-1.2865055
-1.1879125
-1.0519013
-0.84324173
-0.25131966
4.6497057
5.1529257
5.4085339
6.498136
1.883037
1.9527071
2.4418089
3.0242765
3.532494
3.8447695
3.9804322
4.0059651
4.0856058
4.3823694
4.9120688
5.7770495
7.5120245
10.015631
12.58558
15.088025
16.577539
17.834482
18.529964
13.161734
12.634398
12.557332
12.258147
12.201667
12.228268
12.35676
12.51523
12.628808
12.624679
12.512926
12.270892
11.920208
11.500548
11.036061
10.543706
10.041043
9.5462512
9.0728797
8.6301514
8.2227211
7.8521393
7.5180964
7.2191145
6.9532625
6.7183888
6.5124258
6.3334028
6.1793682
6.0486152
5.9392465
5.8493503
5.7770207
5.7202643
5.6770711
5.6454917
5.6236597
5.6096825
5.6019219
5.598889
5.59922
5.6022871
5.608544
5.6176134
5.6267587
5.6368336
5.6627782
5.7178809
5.7724095
0.23471545
0.22399055
0.20010528
0.16415549
0.11611105
0.056379801
-0.01577381
-0.10005916
-0.19612047
-0.30349418
-0.42141552
-0.54872354
-0.68375718
-0.82432645
-0.96764619
-1.1102867
-1.2482267
-1.3769291
-1.4910922
-1.5843136
-1.6508175
-1.6858673
-1.6841402
-1.6389353
-1.5529174
-1.4302909
-1.1856354
-1.0258057
1.5070839
4.7386695
4.6002798
1.8230263
1.6504994
1.6858885
2.4123989
3.2746297
3.9540113
4.2579352
4.297165
4.0791299
3.8516505
3.9280229
4.2296009
5.0072352
7.0143402
9.8570239
14.309004
16.222525
16.588382
16.797236
15.175111
13.507797
13.189378
13.138166
13.025964
13.02008
13.195539
13.513492
13.836989
14.031231
14.096545
13.959827
13.632496
13.145697
12.548231
11.886566
11.199293
10.518603
9.8693468
9.2667099
8.7178962
8.2246264
7.7851346
7.3960556
7.0533565
6.7531233
6.4915616
6.2653456
6.0715863
5.9076704
5.7712606
5.6599295
5.5712514
5.5027852
5.4520999
5.416652
5.3939926
5.3817498
5.3775612
5.3793084
5.3849336
5.3924211
5.4010609
5.4121853
5.4253186
5.4335493
5.4336288
5.4616374
5.5526607
5.6395114
0.30706277
0.29541751
0.26922086
0.22966986
0.17659102
0.10998953
0.029792864
-0.06475471
-0.17329213
-0.29562189
-0.43119854
-0.57904823
-0.7376714
-0.90492449
-1.0778764
-1.2527649
-1.4250932
-1.5899347
-1.7420355
-1.8717978
-1.9721672
-2.039395
-2.0670418
-2.0515498
-2.0001017
-1.9123521
-1.1509747
-1.4700479
-1.0324212
-0.10483173
0.4870713
0.87366093
1.0075229
1.4831422
2.4307587
3.6754308
4.5686122
4.8638375
4.5468296
3.7327145
2.8487053
2.4158763
2.125416
2.7542291
7.585009
19.413339
18.357211
17.517011
17.437327
14.773604
14.367856
14.373147
14.201194
13.938086
13.696125
13.685045
14.015007
14.583472
15.155803
15.534707
15.653728
15.503007
15.083947
14.434839
13.624542
12.731298
11.822236
10.946417
10.134481
9.4004316
8.7473142
8.1717665
7.6675315
7.2274213
6.8444466
6.5125358
6.2263834
5.9816043
5.774502
5.6019283
5.4610449
5.349013
5.2629002
5.1998663
5.1569509
5.1310958
5.1193175
5.1186218
5.1260952
5.13907
5.1548059
5.1702649
5.1841328
5.1988268
5.2151325
5.2203411
5.1854678
5.1882257
5.3295916
5.4784754
0.39242434
0.38000913
0.35162437
0.30859579
0.25059686
0.17730547
0.089501912
-0.015476719
-0.13677342
-0.27456964
-0.42872733
-0.59860993
-0.78301955
-0.9799688
-1.1864536
-1.3983375
-1.6102854
-1.8170054
-2.0170259
-2.1903382
-2.3304782
-2.4367783
-2.5016215
-2.5280586
-2.5105596
-2.4938723
-2.2674812
-1.9469049
-1.4733755
-0.92149788
-0.16745224
0.46162441
0.76798011
1.4503456
2.6946014
4.2113876
5.3064281
5.549226
4.412281
2.4938549
1.2280875
-1.1166451
-1.4950257
2.3542448
19.511637
20.326217
19.19321
14.366857
14.8745
15.228251
15.319094
15.326945
15.16137
14.653885
14.119391
14.023237
14.590463
15.607469
16.596739
17.230436
17.429639
17.254976
16.71196
15.838882
14.743092
13.55681
12.384834
11.292096
10.310246
9.4466047
8.6955547
8.0458462
7.4848794
7.0007131
6.5831516
6.2238992
5.9163874
5.6554031
5.4368662
5.2572252
5.1134133
5.0022797
4.9204704
4.8647439
4.8316592
4.8176355
4.8190699
4.8323283
4.8538517
4.8803526
4.90833
4.9333935
4.9524592
4.9684211
4.9860882
5.0026268
4.883014
4.7313709
4.9248955
5.2553803
0.49189763
0.47888275
0.44852363
0.40234925
0.33993381
0.26078202
0.16473485
0.049973983
-0.083825136
-0.23720272
-0.41050697
-0.60367095
-0.81592891
-1.0456299
-1.2899304
-1.5448581
-1.8050906
-2.0637824
-2.3125935
-2.5382737
-2.7292459
-2.8814777
-2.985583
-3.0548341
-3.0644408
-3.0484137
-2.9067274
-2.5544943
-2.0551317
-1.6267305
-1.1688995
-0.36100376
0.49547105
1.597536
3.1025559
4.8520054
6.1150839
6.1670123
4.1182044
1.7660016
1.6713015
-2.7527051
-1.054791
4.3871528
5.6203258
3.7246713
10.134973
12.301307
13.815092
14.736326
15.687747
16.342756
16.244016
15.27051
14.060356
13.696014
14.706231
16.616141
18.32296
19.28864
19.515538
19.308195
18.604844
17.405742
15.900229
14.326553
12.837778
11.506359
10.354527
9.3720236
8.5375118
7.8281084
7.2230864
6.7052117
6.2609298
5.8801461
5.5553517
5.2810973
5.0532951
4.8684739
4.7234816
4.6150505
4.5396094
4.4934369
4.4726217
4.4730468
4.490461
4.5205836
4.5591707
4.6023299
4.6458
4.6834125
4.7092031
4.723821
4.7231771
4.6493275
4.4620497
4.1677029
5.879623
8.5241148
0.6063939
0.59304072
0.56108371
0.51225077
0.44598924
0.36155504
0.25826509
0.1343222
-0.011340213
-0.17991301
-0.37245657
-0.58965209
-0.83149243
-1.0968648
-1.3832044
-1.6869921
-2.0028628
-2.3225442
-2.6346387
-2.9238315
-3.1752263
-3.3793039
-3.5291621
-3.633715
-3.6777083
-3.6643973
-3.5670424
-3.2670384
-2.7362723
-2.5635495
-2.6742972
-1.4093294
0.25476027
1.627498
3.3811905
5.4193599
6.9530635
6.9968604
5.597849
2.4736295
-0.13597225
-1.7038989
-2.3261444
-2.4295046
2.6262657
7.4279507
10.097437
11.592105
12.728639
14.194705
16.33033
17.895633
17.891567
15.916364
13.100299
12.020509
13.933563
17.749083
20.678898
21.97042
21.9725
21.779589
20.920125
19.201317
17.059252
14.960441
13.097533
11.516819
10.21335
9.1388226
8.2469949
7.5006124
6.8697973
6.3319824
5.8708809
5.4753171
5.1377848
4.8533284
4.6184382
4.4302499
4.2858701
4.1820982
4.1152534
4.081216
4.0755173
4.0934255
4.1300726
4.1805403
4.2399527
4.3038644
4.367433
4.4236218
4.4680964
4.5109696
4.5634106
4.5817292
4.5191836
4.9273488
12.145667
12.287606
0.7367211
0.72343387
0.69035572
0.63945864
0.57010661
0.48131875
0.37223159
0.24030781
0.083989245
-0.098700969
-0.30977231
-0.5509965
-0.82352907
-1.1272648
-1.4598748
-1.8183753
-2.1988222
-2.592076
-2.983813
-3.3529444
-3.6790396
-3.9451158
-4.1444259
-4.2806285
-4.3535819
-4.3395648
-4.2708436
-4.0540522
-3.6222325
-3.6539088
-4.0527961
-2.0507707
4.2046693
0.92858595
3.244062
5.7656151
7.8326811
8.6012344
6.4096007
2.9115171
-0.66878357
-1.2282729
1.3904295
5.0512698
8.1456434
7.5724861
8.5296795
9.4625144
10.411716
12.607463
17.16753
20.509454
20.932382
17.017219
10.470666
7.5176513
11.271643
19.555361
24.484312
25.704092
24.628215
24.832269
23.933099
21.280545
18.106857
15.290006
13.021625
11.233141
9.8229878
8.7090656
7.8006854
7.0493239
6.4165664
5.8755914
5.4087722
5.0053612
4.6592109
4.3670094
4.12675
3.9366387
3.7945321
3.6974671
3.6416485
3.6225725
3.6351345
3.6739351
3.7335009
3.8082494
3.89263
3.9817751
4.0709468
4.1530007
4.2251586
4.3032596
4.3967555
4.4685162
4.460909
6.1450074
12.080485
12.114923
0.88362622
0.87086269
0.83714316
0.78491343
0.71349989
0.62168208
0.50859698
0.37050623
0.20554689
0.010817378
-0.21693147
-0.48100602
-0.78437714
-1.1287923
-1.5128259
-1.929775
-2.3849467
-2.8675439
-3.3624185
-3.8354812
-4.258035
-4.6023471
-4.8519498
-5.0089179
-5.0753898
-5.0518043
-4.9847144
-4.8587511
-4.6190996
-4.6883524
-4.7121402
3.5517218
5.1669586
-0.80407142
2.2507406
5.524605
8.558682
10.689167
9.9687248
4.4682491
-2.0870208
-3.0620705
3.0943622
10.711416
11.101554
7.4505002
3.9544009
4.7737338
4.525224
8.6450202
19.486716
26.643624
27.947908
18.634814
4.5089947
-3.2699842
3.3911757
24.0081
31.814744
29.667488
27.30035
29.082472
28.687177
23.708353
18.665634
14.986017
12.408216
10.53415
9.1270122
8.042327
7.1830576
6.4677746
5.8614516
5.3356464
4.873977
4.4685158
4.1163665
3.8174249
3.5723256
3.3810527
3.2425418
3.154193
3.1120541
3.1110506
3.1453194
3.2086895
3.2949336
3.3978198
3.5118447
3.6334719
3.7585323
3.8755788
3.9749344
4.0653997
4.1627771
4.2690679
4.2813267
5.3496638
11.511777
11.83585
1.0477776
1.0358785
1.0019946
0.94928284
0.87703173
0.78378793
0.66900732
0.52728353
0.35669305
0.15324627
-0.087851352
-0.37191482
-0.70443029
-1.090604
-1.5350804
-2.0069443
-2.5484839
-3.1377608
-3.7733817
-4.3849305
-4.9380554
-5.3853882
-5.6875169
-5.838453
-5.8492913
-5.7577327
-5.6471501
-5.6199726
-5.6941043
-5.9229856
-5.7244734
1.9190842
2.8886581
-4.5935866
-0.89787038
3.7091153
9.0145396
14.768526
18.458332
8.1403423
-6.6166624
-11.178683
-1.7057589
19.218271
34.025446
25.332095
5.4921603
-7.4982208
-11.269352
-2.7963641
25.249037
54.452492
49.51705
20.455037
-9.3934944
-27.202481
-15.636258
38.711866
45.004398
33.030372
26.320518
36.89619
36.705202
25.364472
17.620359
13.46797
11.004859
9.3166425
8.0789104
7.1383322
6.3898653
5.7616488
5.2124285
4.7186967
4.2703743
3.8655497
3.5070782
3.1998816
2.9485459
2.7557372
2.6217073
2.5441776
2.5187362
2.5393258
2.5989904
2.6904165
2.8062153
2.9399073
3.0883277
3.2516621
3.424559
3.5867621