/*--------------------------------*- C++ -*----------------------------------*\
  =========                 |
  \\      /  F ield         | OpenFOAM: The Open Source CFD Toolbox
   \\    /   O peration     | Website:  https://openfoam.org
    \\  /    A nd           | Version:  9
     \\/     M anipulation  |
\*---------------------------------------------------------------------------*/
FoamFile
{
    format      ascii;
    class       volScalarField;
    location    "17";
    object      p;
}
// * * * * * * * * * * * * * * * * * * * * * * * * * * * * * * * * * * * * * //

dimensions      [0 2 -2 0 0 0 0];

internalField   nonuniform List<scalar> 
918
(
0.37908944
1.6216646
0.01732328
0.33698347
-0.0012329706
1.5923073
-1.1555775
1.1327003
0.40096353
-0.36256845
-0.067938302
0.72315386
1.4637256
1.2243763
-0.93181693
0.000717729
1.0417733
-0.96928244
0.38640447
-0.012624711
1.2796134
0.34872903
0.3765116
0.35045905
0.86217386
1.2174421
1.3264252
0.0052824442
0.0030049668
-0.011180261
0.005488349
-0.014984758
-0.0037321957
1.4685839
1.5226036
1.5463013
0.48234602
0.33830739
-0.90449259
-1.0330688
-0.96994379
-1.2362508
1.1095398
1.1126261
-0.52299335
1.1341968
1.1582188
0.38663515
0.39582834
0.40417751
0.34533404
0.37587473
0.39154821
0.31417065
-0.38713708
-0.44741808
-0.32529165
-0.29318376
0.001742113
-0.083124244
-0.11275539
-0.036778791
-0.032378052
0.57069807
0.69079811
0.67677098
0.7375222
0.75906734
1.5587613
1.5221968
1.5491818
1.4960092
1.4863146
1.4435953
1.4067549
1.2626947
1.2698558
1.2224303
1.1870733
-1.4756133
-2.5393796
-0.34003607
-0.023582711
-0.00010266996
0.0065440243
0.015636974
1.0139963
1.0211026
1.0351793
1.0596622
1.1282255
-0.89715827
-1.1809091
0.38884324
0.38103585
0.37949536
0.36129769
0.40682548
0.4516191
-0.0014365628
0.00094481465
-0.037460884
-0.0059297694
-0.0095856253
1.2471644
1.2299835
0.36656708
0.37254414
0.78037114
0.82578769
0.80119275
0.35282764
0.88709046
0.926333
0.98960429
1.1969013
1.2146479
1.1919517
1.312474
1.2675969
1.3731696
1.3988044
0.026269184
0.0064398568
0.0013989383
-0.0029800601
0.0087865242
0.49287934
0.52342416
0.48686434
0.46116571
0.45918339
0.28062048
0.13698151
0.43015779
0.44541915
-0.73522697
-0.83112506
-1.0187425
-1.0376888
-1.2598908
0.71665616
1.0901859
1.0949865
-0.557585
-0.40547985
-0.65699803
-0.31862337
-0.41675803
0.42615284
0.40127584
0.42319165
0.3698479
0.37852369
0.37456733
0.37468365
0.37789948
0.39162005
0.38230655
0.51520329
0.27512933
0.21461155
-0.6624361
-0.46728107
-0.63630621
-0.27406043
-0.23440097
-0.019736401
0.012249883
-0.029798362
0.0087036821
-0.21339726
-0.14781111
-0.17468032
-0.016107098
-0.010752819
0.55891717
0.56416059
0.55356124
0.56236814
0.60118824
0.60499479
0.64923031
0.63777916
1.3327087
1.3563934
1.4010928
1.3640553
-3.9624193
-6.6925392
0.31463274
0.50279651
0.0023315273
0.0020698569
0.001075261
0.0030548637
0.002519762
-0.0005562863
0.021234195
0.010817655
0.012009757
0.021094486
0.99109707
0.99395489
1.0689006
1.1125916
0.98695572
0.98390063
0.41927504
0.4025635
0.39871124
0.39843942
-0.0011861402
0.0015361622
0.00045528966
1.1632692
1.2021746
1.1922801
0.26643862
0.12375538
0.42982999
0.47578621
0.96922322
0.94320755
0.96891425
1.0666198
1.1028302
1.3884175
1.4004525
1.4382204
1.4350299
1.483341
1.4756874
1.4341298
0.54338638
0.52165876
0.55063897
0.42278597
0.46038779
0.44751125
0.55823224
0.5077335
0.55185537
-0.03229313
-0.37651669
0.51990691
0.51119052
0.49007482
0.48488432
0.7942433
0.89005803
1.0548009
1.0731202
1.0795712
-0.18252884
-0.27681872
0.15920559
0.11558566
0.51628327
0.55214634
0.54172338
1.3068755
1.307397
1.3536295
1.3159634
1.2572967
1.2799211
-0.40382278
-1.5896904
-0.96407614
0.92028072
0.69253014
0.80114541
-0.0080117078
-0.0091452799
-0.00060612474
1.0805498
1.140383
0.57111804
0.82407445
0.83297296
1.1543234
1.1778401
1.2481638
1.172171
1.1996236
1.2258069
1.2089837
0.65730518
0.55837356
0.58491746
0.93557996
0.98948255
0.052464584
-0.054866265
-0.11676913
0.010167977
0.066328044
0.052341533
1.0935056
1.033064
1.1082136
0.37507062
0.36751779
0.012624372
0.023391317
0.39944688
0.37114034
0.0053524679
0.0045215321
0.77292834
-0.68241229
0.084730412
0.39863532
0.42406826
0.39134723
-0.34693769
0.22947418
-0.097912539
0.057308473
0.10042395
0.69868393
0.58174568
0.56408062
0.0073482965
0.021816033
-0.0054458484
-0.55238596
0.38427233
0.36524204
0.38321897
0.36754052
0.39840171
0.005086741
0.005059996
0.0058684293
-0.0056707945
-0.0049233718
0.0035345267
0.52081715
0.5372347
-0.44423483
0.39360497
0.37671182
0.39473969
0.34782099
0.40699727
0.35848532
0.01644563
0.0081972333
0.0045507421
0.30262625
0.48415133
1.1013483
1.284954
1.0991513
0.7164448
0.38450351
0.95533725
1.0580862
0.91327356
1.1067231
1.0559672
1.1027466
0.162269
-0.068385662
0.18154342
0.11957753
0.39806319
0.40890545
0.43103545
0.43736687
0.40550972
0.38489772
0.40046673
0.40149251
0.39470049
0.41135678
-0.29572732
-0.29977782
-0.34870639
-0.43482986
0.2531568
0.52819824
0.13894835
0.19973775
0.041073722
-0.062520847
-0.042105503
-0.12836914
-0.14980756
-0.067064099
0.062256851
0.053474494
0.0081180537
0.079737592
0.010457324
-0.080776064
-0.015268904
-0.058792678
0.6636196
0.65765815
0.68567425
0.73598263
0.56399206
0.5613707
0.56597886
0.56332371
0.56776066
0.50538752
0.54421482
0.54004233
0.0056371263
0.010066079
0.0049039007
0.019401667
0.022355732
0.0018325554
0.0075737787
0.0077275632
-0.0014948565
0.0025263356
-0.0045892922
-0.00089527726
-0.50584877
-0.66522291
1.0234353
0.88069342
0.076045292
0.39509795
0.36769353
0.36490873
0.39632414
0.38164389
0.38879595
0.39220521
0.39278031
0.48786761
0.45815807
0.52474139
0.58023745
-0.36145277
-0.59472067
-0.33472046
-0.38387355
0.20379555
0.93655755
0.47480275
0.36940395
0.38268908
0.75438618
1.2555469
1.1406614
1.238333
1.2718149
-0.31632149
0.18785939
-0.11105381
0.57414982
0.79007879
1.075202
1.1382666
1.1437061
1.1123903
1.0426632
-0.23242603
0.76358667
-0.22543254
-0.21026323
0.12598278
-0.048064872
1.1517515
1.0309746
1.0395442
1.0881268
1.1293637
1.0433237
0.98946025
1.00293
1.0750165
1.0758297
0.70875262
0.34534668
0.22544691
0.21682797
1.0005689
0.77193251
0.86771819
0.7058852
0.44138426
0.43241142
0.42403736
0.4817823
0.45758711
0.4643369
0.48305657
0.499069
0.43422673
0.40096038
0.44753755
0.42013344
-0.26686634
-0.2540742
-0.24816029
-0.42012229
-0.42858102
-0.53872316
-0.31362265
-0.086141794
-0.14668692
0.13484119
0.25775339
-0.13212498
-0.32130766
-0.27003838
-0.20196406
0.030324073
0.09569405
-0.10796201
0.064565762
-0.1081522
-0.091947607
0.10800684
0.15211052
-0.090948478
-0.11363129
-0.18542061
-0.1268089
0.023810299
0.010449609
0.033596481
-0.0019716172
-0.03507671
-0.036482503
-0.022010403
-0.20686271
-0.2079297
-0.17372744
-0.24349213
0.015611761
0.014737395
0.026305555
0.018377265
0.0080975399
0.0062103113
0.59630339
0.61983894
0.60711126
0.74490073
0.74450983
0.77998145
0.72826516
0.51222784
0.53956412
0.53304578
0.59200178
0.56979899
0.616268
0.61014005
0.65678143
0.65923554
0.53302614
0.5114395
0.62683249
0.58687562
0.59062094
0.59600908
0.63279632
0.57146876
0.56259814
0.012001829
0.0059003776
0.0063020628
0.0049637218
0.01168535
0.013738035
0.036379436
0.03464341
0.018135524
0.028767501
0.026573428
0.014549794
0.010160598
-0.33224188
-0.17526913
-0.55708153
-0.59247524
-0.6885646
0.91041531
1.0648626
0.81424845
0.53474834
0.56800253
0.85395916
0.9954543
0.49053342
0.63842444
0.74992784
0.67449762
0.92467744
0.39689361
0.3931238
0.40988218
0.39360993
0.41835872
-0.17992344
0.004422204
-0.053430501
0.11932537
0.32148895
0.37189206
0.19162558
0.13109794
0.29172408
0.18434061
0.92829411
0.95529863
0.85145199
0.90408728
0.90654921
0.58086499
0.72690742
0.83104867
0.74265988
0.83216952
0.85229549
0.78774123
0.83133204
0.7639741
0.67963525
0.68168237
0.56990449
0.5999547
0.56638817
0.52800431
0.6787519
0.6295679
0.67805033
0.6578359
0.71381829
0.77653173
0.7650859
0.7855607
0.82578935
0.68875991
0.63790157
0.6384943
0.69328259
0.61681787
0.62404888
0.65229577
0.19241449
0.20124727
0.070758825
-0.035102892
0.05658954
-0.10827997
-0.12788554
-0.098153065
0.21853226
-0.42455751
-0.40696653
-0.78040405
0.63996029
1.2919154
1.0886966
1.080696
1.1332007
1.0918642
1.0831514
1.1614021
1.1640438
0.98507095
1.0231789
1.0245796
0.91954524
0.96467602
1.0630188
1.0424614
0.73218609
0.47941184
0.43106785
0.41371871
0.16742657
0.24279389
0.61285246
0.47834418
0.34353665
0.34845782
0.66625493
0.46092613
0.56762073
0.65377689
0.5256622
0.45211183
0.79391571
0.92078741
0.90973579
0.85583352
0.68635878
0.72586532
0.78536894
0.85770921
0.89504921
0.96838226
0.45702296
0.45280507
0.44394275
0.43243102
0.47459549
0.46508645
0.46472208
0.44058984
0.43342107
0.427503
0.44756827
-0.17657398
-0.18508658
-0.23172434
-0.20585158
-0.23666056
-0.26733307
-0.18138519
-0.21026618
-0.22336305
-0.23012856
-0.25635454
-0.26577765
-0.20848359
-0.17954868
-0.13194917
-0.057207002
-0.080385492
-0.093777681
0.17862037
0.29417356
0.3462167
0.28438992
0.09595338
0.10745508
0.18779113
-0.17609648
-0.077074882
-0.067711087
-0.10378442
-0.16607082
-0.033260908
-0.038669212
-0.045533488
-0.056636705
-0.06461612
-0.029227337
-0.0029290751
-0.0064907935
0.0046156282
-0.0086394817
-0.0061912222
0.50834961
0.53834281
0.59002018
0.56294279
0.55327299
0.57300641
0.53608482
0.55209628
0.55258067
0.59335345
0.57942974
0.61964375
0.60623026
0.01955507
0.016551118
0.023198797
0.0014384139
0.0089195705
0.017899724
0.012248615
0.044897231
-0.079136505
-0.046094459
-0.16790541
-0.40035784
-0.29514076
0.41335523
0.55052967
0.54357682
0.78908656
0.56638198
0.51413501
0.66425313
0.79343001
0.21782802
0.44586172
0.25860379
0.92321498
0.82703186
1.0017507
0.54273835
0.20735645
0.43501182
0.53315386
0.21338474
0.3192976
0.34187108
0.18160086
0.25625127
0.2640391
0.42009251
0.2076376
0.26059429
0.19020212
0.21555759
0.27284844
0.2941386
0.38740975
0.44843236
0.14410562
0.11120763
0.045640121
0.91685158
0.94982719
0.98097484
0.93271647
0.98058801
0.83719679
0.82660992
0.85424742
0.87365238
0.85232562
-0.61611568
-0.71833351
-1.0550152
-0.50348129
0.10826075
0.67756996
0.55953219
1.1168692
0.87961491
1.1098611
1.0573668
1.0031297
0.91792636
0.89607575
0.98622643
0.48331714
0.64701297
0.62194058
0.60525091
0.43723594
0.34174291
0.8746592
0.85742382
0.92815868
0.96104187
0.90365603
0.97758796
0.49376554
0.51191208
0.48626484
0.50726134
0.49669493
0.50360013
-0.15309908
-0.25075612
-0.13180591
-0.13280778
-0.20499697
-0.22776029
0.045584834
0.014444853
-0.0015963803
-0.0019535285
0.035379401
0.017379223
0.071303719
0.028776622
-0.15580649
-0.0501744
-0.20847245
-0.30460141
-0.36574105
-0.18728437
-0.064224583
-0.043125855
0.35876278
0.64501184
0.48465562
0.60814848
0.43493146
0.54633583
0.48982242
0.44431312
0.4848819
0.36567594
0.38368358
0.34720484
-0.4432143
-0.1065334
1.1670948
1.0954674
0.72248625
0.5636281
0.50778451
0.85592294
0.77476981
0.62967764
0.72537097
0.84658935
0.83595799
0.1374182
0.12436221
0.45836205
0.59447367
0.26272313
0.14080056
0.10774996
0.27203278
0.32174355
)
;

boundaryField
{
    wall-4
    {
        type            zeroGradient;
    }
    velocity-inlet-5
    {
        type            zeroGradient;
    }
    velocity-inlet-6
    {
        type            zeroGradient;
    }
    pressure-outlet-7
    {
        type            fixedValue;
        value           uniform 0;
    }
    wall-8
    {
        type            zeroGradient;
    }
    frontAndBackPlanes
    {
        type            empty;
    }
}


// ************************************************************************* //
