/*--------------------------------*- C++ -*----------------------------------*\
  =========                 |
  \\      /  F ield         | OpenFOAM: The Open Source CFD Toolbox
   \\    /   O peration     | Website:  https://openfoam.org
    \\  /    A nd           | Version:  9
     \\/     M anipulation  |
\*---------------------------------------------------------------------------*/
FoamFile
{
    format      ascii;
    class       surfaceScalarField;
    location    "17";
    object      phi;
}
// * * * * * * * * * * * * * * * * * * * * * * * * * * * * * * * * * * * * * //

dimensions      [0 3 -1 0 0 0 0];

internalField   nonuniform List<scalar> 
1300
(
1.7582594
5.6264299
-7.2282928
1.7582594
-7.1419483
5.6264299
-6.1927227
6.1927227
-1.7142715
1.7142715
3.7343882
3.6503011
-4.3517401
4.3517401
-4.9455115
4.9455115
-3.1992783
3.1992783
-5.2377001
5.2377001
-5.0561917
5.0561917
4.7789749
-4.7789749
-5.8207667
5.8207667
-2.3658887
2.3658887
-5.5581766
5.5581766
1.4745533
-1.4745533
-5.5476807
5.5476807
-0.542715
0.542715
-0.57698814
5.1484625
1.1812712
1.1812712
-3.249899
3.249899
-4.8367265
4.8367265
6.2144276
-6.2144276
10.920564
-10.920564
-3.6922716
-4.116602
1.5889272
-9.8028756
-5.5530211
-5.5530211
-8.438271
8.438271
-2.8118411
2.8145889
2.0448326
-2.0448326
-1.7989783
1.7989783
-6.1542281
-0.038494574
-6.1542281
6.2280804
-0.035357656
6.2280804
-1.9115695
0.19729803
-1.9115695
5.5121757
-5.5121757
1.4950266
0.21924487
1.4950266
1.3609239
-1.3609239
-3.7348389
7.4692271
3.6498504
-3.0541019
8.2025643
-3.3928491
7.0431502
-6.7132244
6.7132244
-4.6025844
0.25084426
-4.6025843
4.2920378
0.059702362
4.2920378
-6.5507422
6.5507422
-4.7377442
-0.20776727
-4.7377442
5.1335627
-0.18805116
5.1335627
3.2610607
-3.2610607
-2.9631304
-0.23614795
-2.9631304
3.3623369
-0.16305855
3.3623369
0.3589838
5.2674461
-5.9854137
8.8000026
-5.2674462
0.029746056
5.20005
0.037650065
5.20005
-5.0932804
0.037088688
-5.0932804
5.0122374
0.043954343
5.0122374
4.882002
-0.10302705
4.882002
-4.8752554
0.096280439
-4.8752553
-3.9725089
-4.1262792
-5.9500059
0.12923913
-5.9500059
-2.3983406
0.032451901
-2.3983407
2.3250528
0.040835933
2.3250527
-4.2567291
4.2567291
-6.0090912
0.45091459
-6.0090912
1.3635533
0.11099999
1.3635533
2.0100065
2.5614678
3.7682659
-3.7682659
2.2937126
-5.4677878
-0.079892876
-5.4677878
-5.6629609
-5.2576035
5.6629609
-0.11528027
-0.95898315
0.41626814
-0.95898316
1.2329864
-0.051715164
1.2329864
3.3912439
-0.028907096
-3.3912439
0.14134491
4.5231197
-4.5231197
2.423687
0.82621201
2.423687
-5.5809592
5.5809592
4.9475835
0.064653937
-4.9475834
0.11085696
6.1542812
0.060146382
6.1542812
-6.1927676
-0.021660002
-6.1927676
4.0091521
-8.1257541
-4.138509
5.6893917
0.13137492
-5.6893917
0.13637063
2.3305875
-0.2857549
2.3305875
-1.8256113
1.8256113
-1.8042521
-0.24058057
-1.8042521
-2.1324848
0.33350654
-2.1324848
1.5266007
0.27237759
1.5266007
-5.9522244
-0.2020037
-5.9522244
-6.1912761
0.18218496
6.1912762
0.036804214
1.4536787
-1.4536787
-2.0950179
0.18344839
-2.0950179
-5.6969127
-0.25531171
5.6969127
-0.18473709
-5.4272797
-0.084896
-5.4272797
-1.5681807
-0.23607138
1.5681807
-0.20725681
1.2810404
-0.048053964
-1.2810404
-0.079883479
-3.0546831
5.6161509
-3.3922679
7.0421183
-6.3627689
-0.35045549
-6.362769
6.8955864
-0.18236201
6.8955863
5.0854351
0.47274152
-5.0854351
0.48285079
4.3637462
-0.071708443
4.3637462
-6.673547
0.12280477
-6.673547
6.4475192
0.10322293
6.4475192
4.5276043
-0.16385813
-4.5276044
-0.21013984
5.2703233
-0.13676057
5.2703233
3.5547952
-0.29373452
3.5547952
-2.9584907
-0.30257003
-2.9584907
2.3997851
-2.3997851
2.6871639
-0.28737875
-2.6871639
-0.2759665
-11.148711
11.127051
-0.035808735
-11.112902
5.1642413
5.1642413
4.093179
0.78882298
4.093179
-5.059832
0.18457662
-5.059832
3.9419919
-8.0805009
4.1262574
-8.0987663
4.1072095
-13.910085
4.0134942
-8.1397735
6.2137719
-6.2137719
6.0789135
0.13485843
-6.0789134
0.12890752
-2.4301838
0.031843143
-2.4301838
-3.6176094
-0.63911977
-3.6176094
4.9473712
-0.6906421
4.9473712
-1.4703643
1.4703643
-1.3798149
-0.09054943
1.3798149
-0.016261582
5.3780157
-0.10769239
-5.3780157
-0.08977205
1.2455307
0.24949588
-1.2455307
0.28654753
4.8569007
-0.333781
4.8569007
-4.1732034
-0.34991634
-4.1732034
-2.4322407
0.0020568732
2.4322407
-0.0085536924
-5.8235569
0.24259773
-5.8235569
-11.21343
0.10052767
-11.17578
-6.0922399
-6.0922399
2.3460311
11.146034
-2.6390686
-0.31942212
2.6390685
-0.308481
1.630019
-0.15965464
-1.630019
-0.1955923
-2.1082287
-0.29155638
2.1082287
-0.28261746
-2.5605191
0.42803434
-2.5605191
-1.2458229
1.2458229
-1.3352339
0.08941101
1.3352338
0.19136683
1.7736029
-0.31992418
1.7736029
2.2360873
0.088965445
-2.2360873
0.14106934
-5.2632349
-0.16404474
-5.2632349
6.9112717
-0.015685349
6.9112717
-3.8626441
-0.31055924
3.8626441
-0.30784888
-0.035291613
11.162342
-5.1289497
0.035669263
5.1289497
-11.222489
11.258158
-3.1419022
0.58138308
3.1419022
0.95127676
5.3170251
0.2639341
-5.3170251
0.25719307
6.3441986
0.10332063
-6.3441986
0.13042666
-3.0935206
-0.52408881
-3.0935206
-5.7147754
-0.6479936
5.7147754
-0.7674042
-11.476167
-0.19375856
11.669926
-11.432213
6.0173155
0.13696575
-6.0173155
11.395124
-1.2743777
-0.17930101
1.2743777
-0.028554809
2.1327554
-0.35915247
2.1327554
5.1219326
-0.26503188
-5.1219326
-0.14130235
-6.8139543
0.1404073
6.8139542
0.097317528
-2.588295
-0.5052256
2.5882949
-0.45553956
-5.3637687
5.3120536
2.8387956
-3.9294016
-4.1963525
-9.1870051
2.560536
3.0556149
4.8542486
-8.6134536
-5.2966316
-8.4770831
7.2850952
-7.0279022
-9.5461859
9.4431589
10.017357
-10.102253
-7.4328953
7.4166337
8.5212161
-8.7284729
3.7615174
3.7077097
10.476152
-10.225307
-16.98826
16.637805
10.450158
-10.657925
15.902959
-15.780154
-16.601064
16.704385
-7.4033005
7.1671525
-8.4363647
8.1337947
-8.8190415
8.5111926
-3.8730173
-4.2257489
11.246561
-11.117321
13.900259
-13.980152
-11.558821
12.009736
4.097354
1.2146996
4.0493
-3.617588
7.3791054
-3.4255622
6.2643578
4.1581623
-8.0311796
3.9223386
-8.1186911
7.2556876
6.6445716
-7.1404074
-2.0465977
-7.7646998
7.4789449
-7.5600311
7.2774136
11.98184
-12.020334
-3.5951266
7.3028363
-3.4469917
6.5026066
-3.7293468
-3.7035484
3.6183468
1.2359018
6.8396119
4.4069486
-6.9709867
-1.5060963
-10.18421
9.9191781
-10.536283
10.186367
-0.47437736
5.7984434
-5.324066
4.3623491
-1.465845
7.2642883
5.8192502
6.0038269
5.8710157
-5.6070816
1.1568865
-6.4809525
-6.3700955
-3.4351549
3.6186033
3.384266
-3.1650212
7.8687876
2.1485698
7.6840505
-7.264825
-2.8374285
-7.4288697
4.6042436
2.8123901
4.5136942
5.2327984
3.2884177
4.996727
5.8689715
-5.9251427
0.05617127
-5.4126535
11.281625
1.3776936
-9.116202
-7.8803001
6.545688
3.9304637
6.6053903
-7.4347877
-2.7905195
-6.9519368
-10.248332
-6.7399286
-10.896326
11.076712
5.5610935
10.89435
-12.731354
12.828672
7.3412738
3.1088839
7.1532225
-6.5418616
-4.1160634
-6.7520016
13.146229
-1.951677
-11.194552
-9.9021466
-6.6989178
9.7989238
6.1040347
9.8572472
6.8471378
9.9876739
3.9838252
9.1624035
-10.08786
3.3889422
-4.4468756
-2.9564249
-4.7228421
4.794113
2.3730395
4.6310545
-4.9388084
-3.4975563
-5.2582306
-5.0080308
-3.8110107
5.3017653
2.8320294
-5.4192044
-5.117079
5.7297636
2.781429
3.7902216
-9.0868532
4.3495519
-8.5753008
-7.9618014
-3.1555201
-7.8328938
5.107595
3.002344
-8.1099389
-2.9235847
13.088874
-6.444302
11.042276
-8.4900052
-5.4901469
-8.5797773
-9.1727155
-2.3861055
-8.9905305
-9.5297352
9.0056464
-9.893413
9.2027709
13.67097
-6.5340164
-7.136954
-4.8623515
-3.8661214
4.9422349
-0.89293493
-7.2026095
7.2587808
0.17649591
6.4408537
7.6555533
6.7626184
-4.4362763
-3.1237548
-4.6318685
4.7255448
2.5518688
4.4339884
9.1238985
2.8579414
9.0885408
-8.5259407
-3.4943937
-8.7279444
9.603517
-9.2700105
3.9579535
-3.9558967
6.8760793
3.3102877
-6.5422983
-3.6419117
8.1626058
-4.0476855
-4.1149202
-12.097416
10.69879
1.3986261
-4.8331275
-0.47077847
0.071936515
-5.5956055
-3.9505805
5.4993251
0.50450179
11.203291
7.252711
-5.519272
5.7618697
6.1506535
6.2153074
-0.1547881
6.1200046
-5.5386216
7.0655816
-3.0793453
-3.9862363
6.9817906
-7.2371023
-1.7461539
-7.0636349
5.3174811
0.44694827
2.3622929
-1.9460247
-2.7663361
-0.66881883
-2.6252668
2.0151734
1.3690926
2.2646693
1.3389794
2.2796239
-3.9150204
0.68809932
3.2269211
-2.5760411
-2.4769219
-4.8152021
-1.4238368
6.239039
7.2874145
2.6317636
-7.1461121
-0.28275761
3.6532118
-3.6123758
-1.0825397
-3.7326625
2.795252
-3.8777917
-4.6634536
-2.5543149
7.2177686
-3.7678184
-0.86405012
3.927473
0.58622111
-4.5342485
-3.2304512
4.7748291
0.22189796
-5.0645588
10.625481
-5.5609227
-8.1883136
4.574245
6.7073801
7.3866351
-9.0722674
4.6485801
4.4236874
-2.3648874
5.622196
0.98319429
5.5504876
-9.0795662
6.2890467
7.8552877
4.1544479
-8.3280293
1.3760925
-7.7034737
10.427478
-9.3870497
-1.0404284
4.7212318
5.7062463
7.4457691
6.2252013
-5.9787291
13.424498
-1.7875796
-7.5994701
9.4910533
-5.3366054
6.1241065
-11.460712
-12.349308
4.7498378
-10.944671
12.47197
-1.5272988
-3.4961282
-9.2352259
14.4408
-1.6434388
-12.797361
9.2509111
-6.837849
-4.9950184
11.832867
-8.7895262
9.1110817
-3.4645236
-5.6465581
-10.529683
-5.2504718
10.389275
2.4393964
-11.144535
14.533477
-1.9821313
6.6068392
0.5463833
6.4700787
5.2242232
-6.7578805
1.5336572
3.5653031
-7.0298267
3.3663543
-10.124235
-6.2198372
11.758958
-5.5391208
-9.3753573
-8.7427385
-0.63261875
2.0534454
12.480031
-8.9005833
6.4530999
2.4474833
4.0319071
0.40208124
-3.7445284
-0.97831369
0.8321382
6.1647266
-6.9968648
5.4631927
5.4342856
4.8176775
1.347049
4.869464
2.6094809
-4.560983
-0.69724759
-5.6440825
1.8330718
-2.8120531
-5.5639399
7.3970117
-6.2923534
0.72841357
-3.6650955
-5.79196
9.4570556
-6.6215205
5.2448709
5.3806106
7.7967397
-8.059181
2.2672209
-4.2077319
-3.851449
4.0251326
-6.8371857
2.957599
4.4394127
5.7390279
0.62194896
6.0763739
5.6825841
-9.0787178
0.50341694
10.089533
-8.5834363
2.4488517
7.5388222
-8.9019516
0.15921308
-7.6736807
1.1685338
-7.6128358
-6.9414051
6.6606696
-9.0467751
-4.8000422
8.3237538
0.76478703
-8.3605581
-0.62997243
-6.5048492
-3.024886
-7.0100748
-3.2971335
-6.5962795
-9.2758626
-1.7702472
-7.5056154
7.2353993
-7.1873537
-3.708972
7.954758
1.2480129
-8.0506664
7.8713654
-8.0856249
7.7264725
0.27155556
6.9872253
7.0341739
3.1680525
-4.6223379
7.7903904
-6.6947429
9.5526843
-11.190244
4.4955009
5.2833944
-8.7777881
-5.9068494
5.4931638
4.1103531
5.7655414
9.4167941
-10.870277
1.4534829
-11.076469
12.615704
-1.5392349
-17.161377
6.0849077
-7.7445829
3.6174183
0.34053526
3.6492614
0.91728762
3.2073841
-4.1246717
-3.0386091
-3.0471628
-3.0593453
-4.4854162
7.5447615
1.4688923
-4.4397634
2.970871
-4.6273001
6.0961924
-0.10530967
-4.3344537
7.0142847
-3.8069007
7.35482
-4.7326098
2.6222102
4.3557051
7.393799
-3.0380939
5.7067845
-2.3964968
2.4205434
-5.4586374
-2.0648728
-4.661335
7.0343745
-4.7957206
5.5241341
-0.037509703
5.5616438
-5.433696
1.3860105
-0.61601848
4.8182671
4.9596121
5.7262933
-4.3792442
3.8472644
-6.2437612
-1.611373
-5.6218123
-1.1823996
-0.52013978
-5.0036151
5.5237549
6.7323266
-7.2524664
-5.3876341
9.8050821
-4.417448
8.1096057
-5.5701439
-2.5394618
-4.5853198
-4.6846907
4.1572855
1.9627191
10.072325
0.27760508
-5.847749
-5.2610165
-4.3097397
4.3640834
2.7014982
-2.5067882
3.9054143
2.4348517
-0.072558807
0.80975119
1.4549181
2.502786
-1.6930348
0.20455912
2.2982268
-1.7414656
2.6816403
0.9715714
-2.7706057
0.14533894
-1.8665266
4.6617786
1.3603945
-2.7294871
1.0364523
1.543429
-4.6227744
6.3379193
-3.1845919
-3.1533274
7.8813483
1.5055128
-4.6901047
5.5581222
-5.1111739
3.0214355
-4.4452723
-1.6686693
-6.7798432
-4.6312734
-3.2366994
6.2075703
-4.3080621
6.9398256
1.5441167
-6.657068
8.2011847
-4.6891318
2.1348168
-4.0986081
5.0701795
-1.4070606
-2.6915476
3.600779
3.6169895
-3.8284625
0.09580005
-0.22768356
3.0618104
-3.289494
-0.81598132
-3.3920224
-7.2912373
7.5131352
-3.7875709
8.436151
4.0028195
-3.3441799
11.780331
3.2913667
-6.6355466
-4.8969468
-5.7609969
-2.2118592
5.1747758
-1.3056038
-5.4463978
-6.9521619
5.610256
-0.059768442
-8.7942214
9.6922085
-0.89798708
-4.8637576
-1.4252893
6.1465211
-8.1606981
1.1308714
-4.7943439
4.8978646
5.8810589
5.8212904
-12.468464
-0.32889618
-6.9073708
1.0256488
-7.9330196
6.7318952
-3.6578707
8.4077085
-11.01464
7.3056682
-9.7666274
7.3672801
-0.56573952
7.0723296
-5.5386725
4.1222223
-9.3726941
-6.9332976
7.6938809
-4.584997
8.2402642
-5.2657392
13.506003
-7.2478704
8.2825038
5.2234996
-1.8410929
-6.7386845
-7.9062055
6.0651127
0.37629827
6.8463769
7.1755425
-4.5660617
6.478295
3.856447
-8.0641789
-2.9807387
-11.316641
3.2524622
-5.9360305
-2.8350523
6.0875145
4.9616874
5.3637687
2.2360655
-4.385455
8.4197479
-9.0523666
-2.8806272
-4.0607779
8.016225
-1.9511123
5.0867576
-9.1475355
-2.5260782
5.7060385
-0.75983101
-4.9462075
0.82797793
-5.6280202
2.3192074
-7.9472276
6.7275677
-7.3575401
2.3619821
-10.106565
-5.6886843
-5.7172391
-2.4381302
-5.6474947
-7.9888543
5.5507241
-1.9039466
5.9674189
-8.9052173
8.1453863
-3.710487
9.2612111
-5.8670043
-1.1430705
6.3225439
1.4039285
10.66514
0.28518193
-6.1920313
-2.5930933
5.4441181
-2.8510249
1.7709901
-4.7184332
0.72568494
3.2918473
4.589501
-8.6093283
-0.16845981
-6.3604911
-4.1774857
8.2878388
5.6275964
12.359923
1.489646
9.4481749
-1.1603361
10.937821
4.6052054
4.7965722
-4.0312361
5.484719
1.4925188
5.9880197
-1.1622627
3.7844729
2.4869986
2.5194505
1.0929253
3.0331963
1.9264158
4.4192067
0.294535
-2.7526278
4.7254815
-9.0352212
-1.1222675
-8.2463982
1.1967607
5.9107282
-4.7139674
4.3314179
-1.6299197
1.480393
0.11746548
-2.5180651
2.4005996
-3.8687708
-2.5906239
-0.29239706
-2.1124833
3.1489356
2.5492952
-2.8565386
-1.0122323
0.42338299
-5.0546564
4.0218893
-3.9260893
-0.30909977
7.8920849
-3.6107332
0.32123918
-1.4759164
-3.0707832
-3.7396021
3.5942631
11.21235
0.56798115
5.6514271
8.0811164
4.8506651
0.28460348
5.5891317
-7.1164303
-4.5351028
-7.4453263
-0.71343114
5.4330899
3.0790596
9.4009719
8.3025592
6.3514468
-2.7960887
-11.848455
8.0951342
-2.6104152
6.5558993
-1.6096918
-6.3375358
6.5425442
3.0101401
-7.3073312
-0.050208929
-6.3877446
-8.9981598
-0.52096699
8.6663533
-10.144173
9.0011023
5.9762162
1.5293992
-4.8460163
-0.87122277
4.7566053
0.039966811
10.977788
-1.2028204
-7.2148376
8.4176581
-4.7079077
3.5856402
1.0232668
2.8821474
3.4238664
1.7939466
-5.420891
-10.134858
-2.5434502
-2.0793241
-5.6967777
0.54226121
-3.0915564
6.3316897
-2.7460495
3.7922279
5.6716086
7.1520016
-2.0700138
-5.1824526
6.4874618
-2.695234
4.4567676
)
;

boundaryField
{
    wall-4
    {
        type            calculated;
        value           uniform 0;
    }
    velocity-inlet-5
    {
        type            calculated;
        value           nonuniform List<scalar> 8(-1.7582594 -1.7582594 -7.3846893 -4.5714743 -7.3846893 -6.446951 -4.5714743 -6.446951);
    }
    velocity-inlet-6
    {
        type            calculated;
        value           uniform -5.6264299;
    }
    pressure-outlet-7
    {
        type            calculated;
        value           nonuniform List<scalar> 8(7.2282928 7.1419483 7.8088736 8.2139484 8.0987881 8.1476611 8.0682493 8.1207037);
    }
    wall-8
    {
        type            calculated;
        value           uniform 0;
    }
    frontAndBackPlanes
    {
        type            empty;
        value           nonuniform List<scalar> 0();
    }
}


// ************************************************************************* //
