/*--------------------------------*- C++ -*----------------------------------*\
  =========                 |
  \\      /  F ield         | OpenFOAM: The Open Source CFD Toolbox
   \\    /   O peration     | Website:  https://openfoam.org
    \\  /    A nd           | Version:  9
     \\/     M anipulation  |
\*---------------------------------------------------------------------------*/
FoamFile
{
    format      ascii;
    class       volVectorField;
    location    "17";
    object      U;
}
// * * * * * * * * * * * * * * * * * * * * * * * * * * * * * * * * * * * * * //

dimensions      [0 1 -1 0 0 0 0];

internalField   nonuniform List<vector> 
918
(
(0.40760395 0.0002937331 0)
(0.0090455314 2.9576281 0)
(-0.012599846 1.917216 0)
(0.28950321 -0.0087972366 0)
(-0.006560801 1.9014697 1.0720233e-20)
(-0.011744173 2.9485771 -3.1184422e-18)
(1.0887106 1.6774943 9.6401825e-19)
(0.54216473 0.31223489 -2.3950671e-20)
(1.9885622 0.0032220844 0)
(0.012936812 1.2626448 0)
(-0.014890921 1.4405914 0)
(0.93544811 -0.022712598 0)
(0.012841679 2.916338 0)
(0.013865191 2.7902294 0)
(0.10355351 3.1990176 5.1340756e-19)
(-0.00073958061 1.8160522 -3.0860032e-21)
(0.7183338 0.17254575 1.5493905e-18)
(0.23499307 1.7419595 7.7753331e-19)
(0.35049367 0.00054722255 0)
(-0.012138213 1.6241289 0)
(0.15542949 0.31778563 -1.2599063e-18)
(1.0459543 -0.022209022 0)
(0.5453165 -0.029360191 0)
(0.24279349 -0.005597124 0)
(0.95839481 0.016290864 0)
(0.026580461 2.6048034 0)
(-0.0099233092 2.9060307 1.1359405e-18)
(-0.026167756 1.9347705 0)
(-0.035209035 2.0826392 0)
(-0.021313203 1.9280206 0)
(-0.0027731621 2.1889607 0)
(-0.0032058561 1.9299447 -8.3946542e-21)
(-0.0052711903 1.8116955 0)
(-0.018161068 2.9813276 -1.1554483e-22)
(-0.018373577 3.0070244 2.4211209e-18)
(0.00086142973 3.0015943 0)
(0.51258848 0.033095258 0)
(0.44010582 0.92369939 1.8436451e-19)
(1.1811971 1.6455823 -1.1829147e-18)
(1.2554902 1.5287863 1.2195946e-18)
(0.99307084 1.7884162 -2.1916624e-19)
(0.88968369 1.8050026 1.2674664e-18)
(0.65630204 0.36464802 2.3279219e-20)
(0.5904898 0.29507262 0)
(1.5503555 0.87974563 0)
(0.59768193 0.37669087 1.0733419e-19)
(0.48977083 0.31687254 -1.1184346e-19)
(0.26421183 0.010675968 0)
(1.9891096 -0.00024355039 0)
(1.9886734 -0.0031292641 0)
(1.360258 0.00021375672 0)
(1.8669299 0.0051488503 0)
(1.7375132 0.0030491602 0)
(0.0044714823 2.1061245 -5.6264694e-19)
(0.039395549 1.4427053 0)
(0.048413097 1.3490592 0)
(0.0013425838 1.407054 0)
(-0.010622709 1.2372501 0)
(0.0062877218 1.9665308 0)
(-0.029120765 1.5694173 0)
(-0.019201961 1.3808149 0)
(-0.026103636 1.6377758 0)
(-0.013765728 1.4916241 0)
(0.95207273 0.039468054 0)
(1.0047158 -0.044043471 0)
(0.85573697 -0.033755772 0)
(1.058004 -0.024749325 0)
(0.99269437 -0.0077885107 0)
(0.016739207 3.0145153 1.1910214e-18)
(0.012392171 3.0113707 0)
(0.0077293526 3.0035801 0)
(0.013332889 3.0004858 1.2661752e-23)
(0.010557383 2.9476311 -1.7009913e-18)
(0.016846464 2.9848885 0)
(0.013440084 2.8938165 0)
(0.017825743 2.9236675 2.6897031e-24)
(0.013891319 2.8179547 0)
(0.018065168 2.9097512 0)
(0.011478147 2.7526215 0)
(0.25536721 3.6653624 0)
(0.18177653 3.6031927 0)
(0.13815114 3.3319909 -4.8044462e-19)
(0.051902413 3.0186612 0)
(-0.020429336 2.1596653 0)
(-0.0053469199 1.9498813 3.042559e-21)
(-0.0052129909 1.8300025 -1.1502191e-20)
(0.84482992 0.18833423 -5.3367828e-19)
(0.74038598 0.13457973 -5.1621649e-19)
(0.81777647 0.22766577 -1.6058556e-18)
(0.70157825 0.2096313 -1.0662406e-18)
(0.19033396 1.22126 0)
(0.35710496 1.8889067 -8.1676121e-19)
(0.44716837 1.8758858 1.360709e-18)
(0.55859377 0.032436405 0)
(0.28805918 0.018328883 0)
(1.2185387 -0.001332488 0)
(0.73949341 -0.035113449 0)
(0.6551065 0.015818466 -2.07306e-18)
(0.64641538 -0.027005596 1.6431324e-18)
(-0.011918277 1.7735996 0)
(-0.0072367056 1.6041863 0)
(-0.034583381 1.9388685 0)
(-0.022028803 1.8137406 0)
(-0.015089305 1.6548121 0)
(0.25866467 0.36473169 3.8271515e-19)
(0.32759173 0.31176532 0)
(0.50840038 0.019708041 0)
(0.23535968 0.01394488 0)
(1.0845641 -0.0026819781 0)
(1.0684882 0.018535278 0)
(1.0033406 0.0053456509 0)
(1.3447531 0.0474922 0)
(1.0091774 0.041365493 0)
(0.8498839 0.040085719 2.181705e-18)
(0.0029298886 2.8645721 9.435731e-19)
(0.022645354 2.8978598 0)
(0.039188803 2.8706885 0)
(0.016621993 2.6987376 0)
(-0.010301375 2.9858577 1.0929788e-18)
(-0.0089863582 2.8911416 0)
(-0.011711606 2.9907849 -3.3670546e-18)
(-0.0095786948 2.9159266 1.1536804e-18)
(-0.03007478 2.1803956 0)
(-0.022111557 2.1725273 0)
(-0.0014089376 1.9425666 -8.0270956e-23)
(-0.0035699591 1.9233867 0)
(-0.0036090862 1.8056285 0)
(0.78461236 0.064906365 0)
(0.61213387 0.042027787 0)
(0.44147708 -0.030531839 0)
(0.71249924 0.049817753 0)
(0.42464751 0.029692838 0)
(0.52812323 1.1065355 -2.2981664e-19)
(0.56134812 1.142908 0)
(0.41982355 0.91434052 3.2953144e-20)
(0.32142521 0.68693341 0)
(1.3143455 1.4618565 -3.4513226e-19)
(1.3696897 1.3119534 6.7908975e-19)
(0.56970715 1.9372403 0)
(0.78919065 1.897023 0)
(0.67478931 1.8811416 0)
(0.15630686 0.26480252 -3.3704231e-19)
(0.70738673 0.34160395 0)
(0.63614503 0.27668692 3.0288364e-19)
(1.4262932 1.2472101 0)
(1.5185709 1.0246153 0)
(1.4646441 1.0910989 -5.4597255e-19)
(1.6033224 0.81163938 0)
(1.6255721 0.68683976 9.6278784e-20)
(0.6611049 0.056340378 0)
(0.59928958 0.054086207 0)
(0.33468304 0.034059601 0)
(0.53217526 0.012800838 0)
(0.55652474 0.015714088 0)
(0.24714376 0.0095978174 0)
(1.4993804 -0.0026035309 0)
(1.8698499 -0.0034763725 0)
(1.7318301 -0.00037802482 0)
(0.025239556 2.2926686 3.10747e-19)
(0.042740113 2.0272012 0)
(-0.0061592464 2.3341935 4.7022265e-19)
(-0.011322195 2.132061 -3.6520963e-19)
(0.17865947 1.718966 -6.4160295e-19)
(0.085830392 1.5338801 0)
(0.1104006 1.5284526 0)
(-0.021014059 1.4135403 0)
(-0.019485942 1.2606477 0)
(-0.0051914744 2.1361787 -8.7790619e-23)
(-0.0054447918 2.012685 0)
(0.00076071775 2.0938986 8.3460467e-21)
(-0.00017018765 1.936625 -8.0709902e-21)
(-0.03139222 1.448159 0)
(-0.034248941 1.5054485 0)
(-0.022493611 1.3137339 0)
(-0.019302959 1.6928812 0)
(-0.0093713542 1.5322436 0)
(1.0978127 0.055170231 0)
(1.0481182 0.034985498 0)
(1.0155622 0.061049684 0)
(0.84612398 0.040644876 0)
(0.65543491 -0.040480765 0)
(0.85700511 -0.055203304 0)
(0.92951802 -0.051451782 0)
(0.76141044 -0.034087883 0)
(0.0037693634 3.0719148 -1.0116786e-20)
(0.010816937 3.0616767 0)
(0.016178307 2.9687925 0)
(0.013260905 2.8676847 0)
(0.73841378 4.2596248 0)
(1.2427938 3.3207279 9.4861525e-19)
(0.075054863 3.1478717 0)
(0.031271453 2.9167017 0)
(-0.030014603 2.1509561 0)
(-0.026865894 2.1575841 0)
(-0.026057219 2.1510286 0)
(-0.011016211 2.1718796 3.3924105e-21)
(-0.019726628 2.1691219 0)
(-0.013108885 2.165611 0)
(-0.0027977603 1.8657254 -7.9463045e-21)
(-0.0076636202 2.0022525 1.2676326e-20)
(-0.0072497111 1.9732783 1.1806834e-20)
(-0.005057749 1.8436704 0)
(0.87516847 0.14781371 7.9680652e-19)
(0.77704087 0.10065095 -7.7965222e-19)
(0.31508603 1.7273426 0)
(0.21919406 0.991359 -3.2507218e-19)
(0.23672581 1.8756014 -9.9567531e-19)
(0.14862732 1.4689596 9.9846763e-19)
(0.31488716 -0.019215305 0)
(0.57960359 -0.02789702 0)
(0.5583142 -0.0016605176 0)
(0.27933025 -0.0063146108 0)
(-0.014501651 1.7283445 0)
(-0.01208191 1.7520867 0)
(-0.0071411408 1.5693812 0)
(0.52863421 0.38380285 9.879478e-19)
(0.4285211 0.37655039 -1.1955295e-18)
(0.41870321 0.31843146 0)
(1.5216274 0.11318279 3.1089601e-20)
(1.5079482 0.11854098 0)
(1.3786339 0.062936176 0)
(1.2448675 0.03392057 0)
(0.90395818 0.10791286 0)
(0.93640791 0.070810303 -3.5086126e-18)
(0.80684464 0.070436527 1.3309793e-18)
(0.0041093431 2.9876307 9.6439574e-19)
(-0.0027435032 2.8676896 4.8228965e-20)
(0.0038571366 3.0538745 -2.1247824e-20)
(0.01275638 3.0473066 7.6491664e-19)
(-0.0093772707 2.9952628 3.7563701e-20)
(-0.0083870369 2.9362044 -1.5091547e-22)
(-0.01315221 3.0201617 -7.1005785e-19)
(0.0012198328 3.023169 5.1179061e-19)
(0.0066798601 3.0397735 -7.6546727e-19)
(0.9347257 0.062745749 0)
(0.86142396 0.064037559 0)
(0.72698399 0.038661972 0)
(0.60547352 -0.036298387 0)
(0.65038741 -0.042614612 0)
(0.37950323 -0.024423433 0)
(0.78859317 -0.064977456 0)
(0.7197003 -0.06631553 0)
(0.5428386 -0.040770664 0)
(0.71598073 1.3939172 6.557702e-20)
(0.78378217 1.4758021 0)
(0.16427427 0.35254112 7.2912449e-20)
(0.34177074 0.78360776 5.3968711e-19)
(0.36375866 0.81639032 -3.2034766e-19)
(0.22715851 0.48336476 6.161099e-19)
(0.43275011 0.98884724 1.7477186e-18)
(0.17462006 0.35732834 4.1047848e-19)
(0.79167968 0.27122689 1.1365946e-18)
(0.75371334 0.31144054 2.8633429e-19)
(0.67253557 0.24577783 5.7098461e-19)
(1.6410107 0.60356668 2.4323759e-19)
(1.6460272 0.46839137 2.3494601e-19)
(-0.017464235 2.314802 1.5608344e-19)
(-0.010800151 2.1189772 0)
(1.2758748 0.053592521 0)
(1.1869057 0.054037842 0)
(1.1469024 0.029908378 0)
(0.010100559 3.0770421 0)
(0.01703578 2.93861 1.4832669e-18)
(0.016565644 2.9536601 0)
(0.013522288 2.8432809 -1.4806386e-18)
(0.0097122107 3.0917147 3.3799887e-19)
(0.0039334007 3.0886918 0)
(0.87473115 1.7668789 -1.4670152e-19)
(1.1415868 2.3817487 2.1003795e-19)
(0.85377767 1.8840866 -9.7945323e-19)
(0.016345216 3.0033781 -8.6579377e-19)
(0.038266569 3.0473916 0)
(0.013800721 2.8797642 0)
(0.001044279 2.050185 -3.5929633e-21)
(-0.0022432598 2.0351012 -9.4624333e-22)
(0.0073130611 1.9076315 -4.5882164e-22)
(0.35367039 1.5605275 1.0178659e-18)
(0.2236854 0.80396095 -7.0019362e-19)
(0.08637502 2.213613 6.5561308e-19)
(0.17485839 2.0670797 -8.3067536e-19)
(0.08786676 1.7603763 1.2307865e-19)
(0.015328761 3.1136797 -2.2230704e-18)
(0.017664792 3.1196379 2.5164689e-18)
(-0.0082761267 2.9806388 1.0368261e-18)
(-0.0045249178 2.9783392 -1.0081662e-18)
(-0.007290349 2.8772252 -1.0561775e-18)
(0.0051024743 3.1054309 -2.6247241e-18)
(0.010042689 3.1045283 2.6056926e-18)
(0.3926465 0.85645739 0)
(0.34337747 0.79131526 -1.2564406e-18)
(0.13947618 0.28175081 5.6201037e-19)
(0.42520284 1.1108513 1.1641523e-18)
(0.20049334 0.45644549 -1.8061824e-18)
(1.6388013 0.22431794 5.2517079e-20)
(1.6521294 0.38915472 0)
(1.6251316 0.2625961 4.9263519e-20)
(-0.018719687 2.1952047 -2.619062e-22)
(-0.025683984 2.265094 0)
(-0.015139959 2.0688301 0)
(0.40330606 1.4265524 -3.6205684e-19)
(0.43512507 1.2840878 -8.1920796e-19)
(0.21024223 0.60311049 1.4616844e-18)
(1.2047392 0.0061473584 0)
(1.332599 0.0028059266 3.3028225e-19)
(-0.035544721 2.1583565 0)
(-0.043738361 2.1793894 0)
(1.5140871 -0.0040321639 -3.715393e-23)
(1.1084954 0.015017456 7.2151026e-19)
(-0.010271497 2.1816077 -4.4329654e-21)
(-0.005870059 2.1820107 0)
(0.0689205 3.1876415 6.560508e-19)
(0.54938829 3.5723375 0)
(1.4807783 0.88533972 -5.0276083e-20)
(1.298538 -0.0087031604 2.5466828e-20)
(1.3588926 0.046703292 0)
(1.9977918 0.0042879478 5.2616881e-21)
(0.11440547 1.8018726 0)
(0.13337678 2.7850501 0)
(-0.10844072 1.8457714 0)
(-0.12962248 2.623958 3.1350096e-20)
(-0.09695126 2.3950234 6.4287349e-20)
(1.2694079 -0.086828546 1.0956326e-20)
(1.3089867 0.10385418 0)
(1.3676553 0.13237579 0)
(-0.031070637 2.1610367 0)
(-0.023210776 2.218083 0)
(-0.041930583 2.1290999 0)
(0.35327343 1.9954266 -4.2694487e-19)
(1.2996634 0.013447817 0)
(1.1183025 0.015162551 0)
(1.9673027 0.0072197223 4.3624686e-19)
(1.6518185 0.018480698 -4.942383e-19)
(1.9052602 0.0095542376 0)
(-0.035013753 2.1574927 0)
(-0.035351967 2.1533268 0)
(-0.03371426 2.1564186 0)
(-0.040224179 2.1321795 0)
(-0.03298692 2.1332834 0)
(-0.037239841 2.1387747 0)
(1.3281865 0.080973635 0)
(1.2943824 -0.074796826 1.8295322e-20)
(1.0186931 1.7152536 5.8416193e-19)
(1.9554699 -0.0023419255 -4.4311281e-19)
(1.7076559 -0.0085936075 5.194922e-19)
(1.8972656 -0.009173779 0)
(1.321362 -0.013811979 4.173937e-19)
(1.194328 -0.0026873222 -5.3729172e-19)
(0.94582254 0.018171294 0)
(-0.022147555 2.2153746 0)
(-0.012295826 2.1954029 8.5797094e-21)
(-0.010926293 2.1987594 -5.1700863e-21)
(1.5584063 0.35807162 7.2605971e-19)
(1.4682927 0.15427097 0)
(0.0941241 3.055781 -1.3075153e-18)
(0.051852711 2.8371614 -9.4555363e-20)
(0.19206047 3.1912477 1.9591953e-18)
(0.17284453 3.2532959 -2.8011491e-19)
(0.17104536 3.3031152 0)
(0.034954631 3.1369995 3.627968e-19)
(0.092250101 3.176616 1.2855752e-18)
(0.088782625 3.2068186 -6.7818187e-19)
(0.056753467 3.1076643 0)
(0.8858941 0.45969983 0)
(0.77213242 0.5188681 0)
(1.4227718 0.93654585 7.7327058e-20)
(1.4244039 1.13085 -2.2555601e-21)
(1.5010741 0.74744135 0)
(1.5506029 0.72734019 0)
(1.2824529 -0.0083176642 -8.6777543e-19)
(1.1555148 -0.016989616 1.1393572e-18)
(1.3541048 0.048216249 0)
(1.2296852 0.063554875 0)
(1.9972943 0.0056612127 0)
(1.8696377 -0.010124173 0)
(1.9361583 0.00031688484 0)
(1.7301064 -0.022777724 0)
(1.668588 -0.011266244 0)
(1.7994431 -0.009554231 0)
(0.10179714 1.7810504 0)
(0.034665662 1.7410112 0)
(0.17804389 1.8592302 0)
(0.16197069 1.8973785 0)
(0.16833379 2.8025841 0)
(0.1911671 2.8699141 -3.5945159e-19)
(0.08320556 2.9014118 0)
(0.03744902 2.9053147 9.795665e-20)
(-0.090612678 2.8682646 -2.9001047e-20)
(-0.11551786 1.8874989 0)
(-0.08179029 1.9039179 0)
(-0.12776497 1.8161334 0)
(-0.080774204 1.7558964 0)
(-0.27907716 2.3491701 5.7852416e-20)
(-0.13500532 2.4663004 1.7081429e-20)
(-0.13718919 2.6106525 -8.19875e-21)
(-0.076565398 2.5515725 0)
(-0.09887587 2.3923386 -1.0941287e-19)
(-0.060417508 2.3605443 -2.8965827e-20)
(-0.27407709 2.3418769 -4.844354e-20)
(-0.21703697 2.4039571 -2.2231618e-20)
(-0.21270857 2.4874788 1.0387697e-20)
(1.2723644 -0.088519919 1.4490945e-18)
(1.1664084 -0.090838383 -1.7901343e-18)
(1.2667256 -0.078599 -1.5233719e-18)
(1.2205491 -0.060934878 2.0022238e-18)
(1.3119259 0.090991294 0)
(1.24825 0.10200353 0)
(1.3555014 0.13536629 0)
(1.3071701 0.10827087 0)
(1.2631398 0.1004715 0)
(1.4500629 0.15502635 0)
(1.3875565 0.14037587 0)
(1.377551 0.11236288 0)
(-0.022262853 2.1820246 -1.3092677e-21)
(-0.031193476 2.1693619 0)
(-0.022795225 2.1719159 0)
(-0.037386394 2.2406695 1.0045883e-20)
(-0.02703535 2.2528217 -3.858012e-22)
(-0.050230896 2.1651895 5.151721e-21)
(-0.042193949 2.1607533 -5.1751947e-21)
(-0.04959885 2.147367 0)
(-0.04354834 2.15532 0)
(-0.042447658 2.1563174 0)
(-0.050028648 2.1157512 0)
(-0.038471535 2.0862184 0)
(0.48447461 2.0024793 7.8256591e-19)
(0.49761548 2.0316084 3.4074711e-19)
(0.5952026 2.6351429 -2.3397986e-19)
(0.38711255 2.7593865 5.7763325e-19)
(0.37735379 2.2234843 3.9523513e-20)
(1.3821921 0.037173261 0)
(1.3321697 0.029288419 0)
(1.1711261 0.032794903 0)
(1.9738412 0.010906253 0)
(1.9568839 0.007685294 0)
(1.7175845 0.017359994 0)
(1.6149799 0.020072508 0)
(1.6331646 0.029903838 0)
(1.3205245 -0.064053697 1.0600737e-18)
(1.1076538 -0.061013921 -1.2710051e-18)
(1.2693777 -0.068152181 -1.1761408e-18)
(1.1888459 -0.079356779 1.5775084e-18)
(0.97541476 1.732838 0)
(0.86541923 1.8880301 6.1466626e-19)
(1.1153273 1.5905389 2.8709498e-19)
(1.1729768 1.593739 -3.8241086e-19)
(1.2806034 2.7272407 3.4481463e-19)
(1.1087718 0.16648542 8.3520943e-19)
(1.4729917 0.17107996 0)
(1.5314068 0.25658707 -5.6122362e-19)
(1.5346346 0.22751016 -2.2224648e-20)
(1.3316548 0.16196668 0)
(0.24460422 2.9417723 7.6938062e-19)
(0.12941457 2.8255559 -1.8827064e-18)
(0.061780383 2.3518053 1.2165308e-18)
(0.10269542 0.14706006 -6.1473364e-19)
(0.38049304 3.4834995 -9.5805102e-20)
(0.2447547 3.3840197 0)
(0.25716577 3.4527406 1.3513705e-19)
(0.28628717 3.0978263 -1.9663092e-18)
(0.41952694 3.1855044 0)
(0.015588845 3.1188644 6.7343109e-20)
(0.019029298 3.1326227 -7.2989462e-19)
(0.034621545 3.1172083 1.1343975e-18)
(0.042563933 3.1491362 0)
(0.041024594 3.1591559 0)
(1.3669162 2.8253123 0)
(0.72239674 1.0892981 -6.8270017e-19)
(1.3391363 1.3594925 -8.8435644e-20)
(1.2465226 1.4077104 0)
(1.0766429 1.2722814 -9.3410666e-20)
(1.3630487 1.1844991 4.5455364e-20)
(0.48778654 0.56237575 -1.4330489e-18)
(0.94699712 0.45305292 -4.0827301e-20)
(0.91696318 0.39562001 6.117814e-19)
(0.78494439 0.56197935 4.5562079e-20)
(0.68970685 0.52511994 -1.8908939e-18)
(0.90015056 0.49480535 0)
(0.9309792 0.58025287 1.0010943e-18)
(0.94918361 0.55454499 0)
(0.83808679 0.52920202 0)
(0.81545446 0.47025909 0)
(1.0395794 0.80469578 5.4943015e-19)
(1.543108 0.3771554 -6.1645811e-19)
(1.5551464 0.55560819 0)
(1.5806451 0.52118296 0)
(1.0163935 0.30224305 9.1763541e-19)
(1.0607165 0.71229652 -5.5388429e-19)
(0.99208863 0.68747374 9.748998e-19)
(1.2183511 0.52847478 -1.001103e-18)
(1.2763575 -0.050892161 6.6143443e-19)
(1.2557158 -0.030058031 -6.2058587e-19)
(1.0855187 -0.047626705 0)
(1.3539775 0.070689378 0)
(1.3353556 0.064342088 -6.5564798e-19)
(1.1712147 0.076220782 6.4962434e-19)
(1.7673819 -0.023170051 0)
(1.6545721 -0.046281087 0)
(1.8996953 -0.013305644 0)
(1.6617675 -0.029712082 0)
(1.929433 0.0003019212 0)
(1.9209306 -0.00081829488 0)
(0.024677537 1.721791 0)
(-0.013525827 1.6986221 0)
(0.25727073 1.7891036 2.2897177e-19)
(0.33959521 1.9852443 2.3627632e-19)
(0.22877168 1.9585457 5.4891386e-19)
(0.24629368 1.9852508 -8.7097719e-19)
(0.27667817 1.8599653 0)
(0.2735538 1.967506 1.0732393e-19)
(0.26928574 1.9557118 0)
(0.35576863 2.1738243 -5.480107e-20)
(0.34696697 2.4778607 4.7856868e-19)
(0.29458932 1.8956498 -9.5905494e-20)
(0.32638742 1.8663388 1.4594093e-19)
(0.31805725 1.8505803 -1.1886302e-19)
(0.35539545 1.7872561 1.1236508e-19)
(0.30152423 1.9361007 0)
(0.31872132 1.9376638 -3.9778151e-20)
(-0.13691296 2.5820522 5.5110392e-20)
(-0.078722259 2.889816 0)
(0.011101977 2.7024117 -1.1939036e-19)
(-0.045064215 2.6937963 0)
(-0.019659301 2.9442319 -1.1008096e-19)
(-0.043479405 2.937388 0)
(-0.24526238 1.9596056 1.0390896e-19)
(-0.26643011 2.0440836 0)
(-0.16465972 1.8284458 0)
(-0.18516322 1.8459483 -1.1839924e-19)
(-0.16533137 2.7031891 -7.4335107e-20)
(-0.11886429 2.8474206 1.3988706e-20)
(-0.10840452 2.7932808 2.1526096e-22)
(-0.23276918 2.2460744 6.2727344e-21)
(-0.2633763 2.2057867 -2.2372329e-20)
(-0.081797369 1.9620603 0)
(-0.056263415 1.9811574 0)
(-0.20062711 2.129193 -2.5493306e-19)
(-0.17539982 1.885993 -2.5501384e-19)
(-0.22426184 2.0195729 3.1580809e-19)
(-0.11319365 2.0580151 0)
(-0.064929009 2.2030455 -3.7097581e-20)
(-0.065026666 2.2314132 1.4792896e-20)
(-0.082657363 2.2389169 -5.5050313e-21)
(-0.1967207 2.2025763 -7.4219156e-21)
(-0.1163019 2.2961972 -3.9505953e-21)
(-0.13587747 2.3237351 4.7339949e-20)
(1.2211298 -0.084338767 -8.6835818e-19)
(1.2483836 -0.089274065 9.3784914e-19)
(1.1347067 -0.092916262 0)
(1.3709594 -0.0079711106 1.4860543e-18)
(1.2703102 -0.040389557 -1.6576938e-18)
(1.2416537 -0.013236561 1.8656469e-18)
(1.3798979 0.054436203 -2.0012709e-19)
(1.318655 0.080478548 0)
(1.3069679 0.086384753 7.6112581e-19)
(1.2566336 0.093269876 -7.5433915e-19)
(1.4468658 0.14247242 -4.9821452e-20)
(1.4597635 0.11259618 4.2259398e-19)
(1.5238501 0.11338237 0)
(1.6097384 0.08300592 -1.6028582e-19)
(1.5777155 -0.025877385 0)
(1.465116 -0.059454008 0)
(1.7808047 -0.027548256 0)
(1.5902883 -0.056399886 0)
(1.6989326 0.011702762 3.1506647e-19)
(1.7199358 -0.0097540615 -6.4764325e-19)
(1.6354059 0.088782766 -3.2949435e-19)
(1.6426269 0.082594165 -3.7201116e-19)
(1.5033298 0.12801082 7.7390408e-19)
(1.4466307 0.14746441 0)
(1.4507473 0.18369289 0)
(-0.053541501 2.1983946 -1.0053601e-20)
(-0.037386464 2.1771296 -1.3043054e-21)
(-0.047190016 2.1813534 0)
(-0.036116269 2.2031347 1.0403002e-20)
(-0.026300253 2.1857557 2.4977981e-21)
(-0.026226679 2.1939143 -2.9587737e-21)
(-0.062035919 2.3395144 2.3442512e-20)
(-0.080724284 2.2656243 -2.5131421e-21)
(-0.09682209 2.2919856 8.9572508e-21)
(-0.044424817 2.284689 -1.7384273e-20)
(-0.040555748 2.2998147 2.1391344e-20)
(-0.062921563 2.1551511 1.4781889e-21)
(-0.06538921 2.1648195 1.4417666e-20)
(0.48182359 1.8876181 -3.69988e-19)
(0.42616249 1.8062917 -1.7602316e-19)
(0.83429883 1.9011371 -5.9622686e-19)
(0.66226789 1.9916941 -3.290578e-19)
(0.68865955 1.9970004 0)
(0.64533423 2.5988847 2.0311706e-19)
(0.70595781 2.6186748 3.3787811e-19)
(0.45174772 2.6887708 1.1210117e-19)
(0.4601624 2.6855317 -4.6199437e-19)
(0.54112117 2.6187706 5.1292834e-19)
(0.55582071 2.6493519 0)
(0.48929341 2.7081252 -5.314526e-19)
(0.24496163 2.7732179 9.5440172e-19)
(0.34341857 2.7554913 -5.1840805e-20)
(0.27456283 2.8568134 -1.3694454e-18)
(1.0327461 2.5561101 7.5214006e-19)
(0.8999822 2.5667918 0)
(1.9433196 0.016134474 1.7785424e-20)
(1.6366443 0.031569012 -1.5216182e-20)
(1.6486469 0.031124034 -2.7497223e-19)
(1.8529011 0.027475635 2.757127e-19)
(1.9715453 0.01898153 0)
(0.86640325 1.6715688 0)
(0.82541163 1.5516518 0)
(0.99395766 1.4552428 0)
(0.84786998 1.4742637 0)
(1.2871599 2.7606882 6.8785647e-22)
(1.1978687 2.5887324 0)
(0.94028312 2.287443 2.9648523e-21)
(0.88014905 2.5446414 0)
(1.0018513 2.6214966 -2.8269673e-19)
(1.0296618 2.6087515 1.9322427e-19)
(1.1342139 0.19945136 0)
(1.0840986 0.22481979 2.3184332e-19)
(1.2386 0.16424224 1.28891e-18)
(1.158077 0.14527992 -4.8539809e-19)
(1.117512 0.10841138 -1.5150089e-18)
(1.3843996 0.2913597 -1.1393585e-18)
(1.2684307 0.37678224 -2.2791484e-20)
(1.2059371 0.35217597 1.1980734e-18)
(1.2938791 0.28581975 9.9559341e-19)
(1.2626217 0.19718515 -1.7054393e-18)
(1.2264089 0.21601133 2.1482962e-19)
(1.255311 0.29106775 -4.5642893e-19)
(1.2358733 0.27107833 0)
(1.3143281 0.20589454 8.3839952e-19)
(1.3493698 0.23333565 0)
(1.3374161 0.27391767 0)
(1.4327116 0.18231316 3.7688543e-19)
(1.3915711 0.22648637 -2.361558e-20)
(1.3968311 0.28767162 -2.0429608e-19)
(1.4426017 0.26302896 0)
(1.4405169 -0.057611484 7.7526633e-19)
(1.5767619 0.028284342 9.4201742e-19)
(1.5726548 -0.014405625 -7.3935449e-19)
(1.5138785 0.0403893 -6.4292516e-19)
(1.4165657 -0.0080045472 -1.0684329e-18)
(1.3213291 0.13446291 0)
(1.3334114 0.071619485 0)
(1.2688723 0.028857154 -6.7568489e-19)
(1.2285624 0.062226754 2.686704e-19)
(1.413378 0.098870958 9.3146246e-19)
(1.413322 0.17043275 -1.0934976e-18)
(1.3999016 0.18515423 9.7803879e-19)
(1.3728501 0.16738046 0)
(1.442024 0.15219423 0)
(1.4737889 0.12282241 -4.4305804e-19)
(1.4662782 0.09496266 -7.6201824e-19)
(0.71884265 1.4756039 1.0063506e-19)
(0.81623727 1.8398751 -1.2459718e-19)
(1.1865362 2.797625 -1.0790649e-19)
(1.3066271 3.1508741 8.9484772e-21)
(1.3509755 2.8419902 -2.1224965e-19)
(1.4075788 2.912462 -7.8796147e-20)
(1.2794909 2.5871236 2.7754064e-20)
(1.3391152 3.0749133 -2.9108569e-20)
(1.3461391 3.0911107 1.2066814e-19)
(1.3274809 3.3599186 -1.4542165e-19)
(1.4464957 3.127118 1.5005877e-19)
(1.4655853 3.0559198 0)
(0.72495334 1.1599271 -5.6006146e-20)
(0.29209649 1.397684 7.5119929e-19)
(0.64206909 0.7685486 9.4983904e-19)
(0.41220121 0.37556074 1.1071578e-18)
(0.70022592 0.57228344 1.0574283e-18)
(0.73996672 0.65629481 -1.7344171e-18)
(0.71977862 0.68161102 1.4060852e-18)
(0.63863383 0.60970667 -5.5662571e-19)
(0.57933524 0.51295033 1.2604828e-18)
(1.0373606 0.34383181 -5.1507029e-19)
(0.98128642 0.39338217 0)
(0.95905483 0.35136357 1.9477722e-20)
(0.94273645 0.69036702 5.3473051e-19)
(0.91565184 0.65414325 -1.9452445e-18)
(0.78823923 0.66647114 3.2536086e-20)
(0.82771241 0.62858793 0)
(0.83873045 1.010399 5.3534577e-19)
(1.0538712 1.0078522 4.3552296e-19)
(0.97470802 1.1382465 -5.0514873e-19)
(1.1077761 1.0327115 -1.8581061e-19)
(1.2177155 1.1089439 -3.3597853e-20)
(1.1807008 1.1075769 3.3923075e-20)
(1.1084425 0.82639951 -9.211057e-19)
(1.1583086 0.92917999 1.7430941e-19)
(1.2635917 0.93492052 0)
(1.28847 0.88749857 -2.4368427e-19)
(1.2958177 0.40020571 2.952131e-19)
(1.4579368 0.38259938 3.6965979e-19)
(1.3730857 0.34892159 4.7585075e-19)
(1.2744713 0.47329093 -5.9997905e-19)
(1.3586209 0.521213 0)
(1.4101308 0.50854904 0)
(1.1762522 0.48186937 1.4524871e-20)
(1.1182754 0.38206782 0)
(1.1521515 0.36337116 5.9159871e-19)
(1.1863799 0.3694949 -1.7305652e-20)
(1.2043224 0.56691668 2.6263564e-18)
(1.1334014 0.65591098 7.2425238e-19)
(1.1312833 0.59523873 -8.1353913e-19)
(1.0728125 0.58446802 8.7686071e-19)
(1.0366006 0.59286634 5.3363923e-19)
(0.99216676 0.55936236 -5.2285322e-19)
(1.5973292 0.043162033 5.2140937e-19)
(1.9096433 0.023040456 0)
(1.8725267 0.032590536 3.4328104e-19)
(1.6269596 0.041966429 -7.7888011e-19)
(1.8793276 0.00019537934 3.9015021e-19)
(1.8377041 -0.02824871 -8.1976207e-19)
(1.6510593 -0.045349735 0)
(1.5491004 -0.038806198 -1.6096524e-19)
(1.8195402 -0.021402904 3.9813391e-19)
(1.6512705 -0.027820917 -2.0234792e-19)
(1.5803101 -0.031517881 1.5196854e-19)
(-0.086046762 1.7361503 0)
(-0.12095233 1.7575912 0)
(-0.037921127 1.7058986 0)
(-0.052718244 1.6995007 0)
(0.11445971 1.7395024 -5.0123675e-19)
(0.15919259 1.7129248 1.6388942e-19)
(0.24505962 1.8553457 1.067968e-19)
(0.22008463 1.7324719 -1.171822e-19)
(-0.1234973 1.8609674 3.1854475e-19)
(-0.070968293 1.8514704 -2.4355579e-19)
(0.064803214 1.6911623 -1.5913506e-20)
(0.030580722 1.6941425 3.3569965e-19)
(-0.023666267 1.6706394 4.3213768e-20)
(-0.090022284 1.7320276 3.4607562e-20)
(0.096975941 2.6032241 1.2953595e-19)
(0.12674816 2.6217334 0)
(0.2524013 2.2737024 2.5612075e-20)
(0.26270964 2.0929169 -3.9159867e-20)
(0.2976765 2.1984417 -4.7492403e-20)
(0.26063624 2.5799512 0)
(0.29026392 2.5678292 -4.3174264e-19)
(0.33312894 2.4534543 3.1068016e-19)
(0.29487822 2.1582452 -8.6104028e-20)
(0.24364266 2.3395649 1.0945984e-19)
(0.22018311 2.4912307 0)
(-0.24730179 2.4013781 2.6021557e-19)
(-0.23464703 2.5777714 6.9817996e-20)
(-0.26488712 2.4529136 0)
(-0.18467656 2.6758571 -1.3123169e-20)
(-0.17097804 2.5887811 -1.1119747e-19)
(-0.18393394 1.9548352 -6.0517127e-21)
(-0.14559687 2.0007061 1.1279354e-19)
(-0.16145519 2.0302855 -2.4896379e-20)
(-0.23658381 2.0270047 -4.878601e-20)
(-0.23875808 1.9777438 0)
(-0.13921302 2.046733 0)
(-0.048466843 2.0777671 -4.728373e-21)
(-0.087288271 2.0843556 1.510137e-21)
(-0.1031409 2.050218 0)
(-0.061982552 2.0261366 -5.5869408e-21)
(-0.044906144 2.0416813 9.1316313e-21)
(1.5035039 0.047106196 0)
(1.4812194 0.045151699 -7.0070091e-20)
(1.799381 0.025883868 -5.3463823e-19)
(1.639724 0.060097066 0)
(1.4619902 0.055239754 0)
(1.7927766 0.014089058 1.8342818e-20)
(1.8089392 0.0087182988 7.5009615e-19)
(1.6837949 -0.028674705 9.9564694e-19)
(1.5739976 -0.053963297 0)
(1.4874175 -0.057528093 0)
(1.6452796 -0.022005027 5.3945772e-19)
(1.505435 -0.049043604 0)
(1.4708536 -0.067210955 0)
(-0.10710484 2.2007921 0)
(-0.083495346 2.1647738 4.0007546e-21)
(-0.087567976 2.1836192 9.6775281e-21)
(-0.085862021 2.1078065 0)
(-0.09737915 2.1519038 2.3633362e-21)
(-0.076796936 2.1437289 -6.3017394e-21)
(-0.073260923 2.1261595 0)
(0.47548358 1.8964535 0)
(0.41331199 1.6860373 2.6036947e-19)
(0.37417866 1.692711 0)
(0.51406707 1.7136589 -4.2654586e-19)
(0.62525626 1.8983139 0)
(0.55157846 1.8362061 2.3204216e-19)
(1.1188219 2.8121901 -1.4657561e-20)
(1.0525879 2.5757996 -8.6669666e-19)
(1.0497854 2.4713878 9.5374366e-19)
(0.9271791 2.5538345 2.6714254e-19)
(0.91761068 2.6135793 0)
(0.98147821 2.5957905 0)
(1.0066557 2.5596096 0)
(0.98701153 2.5551115 -9.6546945e-19)
(0.72727216 2.5500679 -3.2734627e-19)
(0.8580144 2.5831441 -8.0853567e-20)
(0.86013582 2.5334993 6.46998e-20)
(0.75331309 2.5835818 0)
(0.85537627 2.5779704 0)
(0.81134346 2.5968169 -3.6498524e-19)
(0.80698617 2.6020242 0)
(0.78926416 1.4341581 0)
(0.68596444 1.2697959 -4.7695602e-19)
(0.74410504 1.2675078 -3.0202657e-20)
(0.72141183 1.3769483 0)
(0.71609654 1.3536169 7.3022081e-19)
(0.99235599 1.182024 -1.2291743e-19)
(1.0036657 1.323127 0)
(1.0094642 1.2423317 1.6864842e-19)
(0.8218179 1.3913888 0)
(0.84626364 1.2634211 0)
(1.2556677 2.8375397 -1.9629167e-19)
(1.2146329 2.8763109 -1.3243537e-19)
(1.0038539 2.3824845 2.1647996e-19)
(1.0032636 2.4105217 -8.2581701e-20)
(1.2255296 2.8249669 0)
(1.1825028 2.7788724 1.0541114e-19)
(1.2109518 2.6599304 -2.342837e-19)
(1.1228465 2.5046105 -2.9725935e-20)
(0.67249405 1.6734081 0)
(0.67011529 1.4567741 -8.8583839e-20)
(0.71181585 1.5181225 0)
(1.1551997 0.28685429 0)
(1.099964 0.24779304 0)
(1.030264 0.25355768 0)
(1.1378037 0.31602247 -9.1707104e-19)
(1.0653414 0.29084406 5.4244025e-19)
(1.2351459 0.069179927 -5.2766854e-19)
(1.2612923 0.11701845 0)
(1.2369371 0.13055238 2.3629803e-19)
(1.1752 0.092776708 9.6173838e-19)
(1.1571228 0.073304209 -6.0765327e-19)
(1.3389564 3.4855633 -4.0904964e-19)
(1.3189928 3.416727 0)
(1.3608847 3.4393489 -8.9339701e-19)
(0.54251417 3.5384339 8.5794676e-19)
(0.79225667 3.0678769 -1.9514279e-19)
(0.63713025 1.1937675 7.1951978e-19)
(0.61089132 1.2058015 0)
(0.5631004 0.79078576 -2.2649822e-19)
(0.64742131 1.0090797 1.1285149e-18)
(0.66396879 0.74176889 -3.1901444e-19)
(0.66343144 0.75938212 3.5358283e-19)
(0.83457516 0.71549275 7.3887582e-19)
(0.90597748 0.73831119 0)
(0.8347956 0.84633655 0)
(0.7723462 0.79878979 0)
(1.2615717 0.76820746 8.2028972e-20)
(1.1586129 0.70512682 -6.9057231e-19)
(1.1717554 0.75057036 5.1887335e-19)
(1.2119337 0.66887355 -5.3249949e-19)
(1.3601803 0.64870873 0)
(1.3783385 0.71472484 -1.2125564e-19)
(1.0895967 0.52900809 -1.2088436e-18)
(1.1119382 0.51115164 -1.4432442e-18)
(1.0443622 0.51773852 9.426894e-19)
(1.0353159 0.48741439 -9.7789547e-19)
(1.1109976 0.42477398 -7.5304644e-19)
(1.0470383 0.42423168 9.3461983e-19)
(1.8544699 0.004822513 -4.4714654e-19)
(1.8748566 0.0063880905 9.0750846e-19)
(1.5875209 0.043484175 5.6224907e-19)
(1.5943793 0.044006367 -6.6960279e-19)
(1.6739735 0.03471756 0)
(1.8511531 0.027174354 -1.2077196e-18)
(-0.010091684 2.1273485 -3.4183437e-20)
(-0.027647843 2.0343982 0)
(0.15714827 2.0969594 -2.5895238e-19)
(0.21835192 2.0248978 2.2839469e-19)
(0.18947433 1.9057181 -1.8909407e-19)
(0.14001603 1.883684 0)
(-0.18341393 2.1795978 0)
(-0.15975629 2.1136198 -2.0778196e-21)
(-0.12447571 2.1228878 1.8815841e-21)
(-0.11862187 2.1538686 6.8654326e-21)
(-0.12887657 2.1937074 -8.5874589e-21)
(-0.14112342 2.2102734 3.1782566e-21)
(0.65127934 1.6725049 -9.309992e-20)
(0.60735839 1.7086811 1.016941e-19)
(0.55962168 1.6860284 2.1894541e-19)
(0.5592433 1.6466906 -1.6356516e-21)
(0.80653514 1.7047444 0)
(0.68561723 1.8085241 4.0655184e-19)
(0.75988657 1.8245736 -3.9484684e-19)
(0.59364495 1.7012335 -2.1722842e-19)
(0.66768115 1.6293685 0)
(0.71819357 1.6033075 0)
(0.70084274 2.517233 4.7958675e-19)
(0.71197952 2.5852378 1.0984679e-18)
(0.75651265 2.5877439 -7.8903041e-19)
(0.62774572 2.5868545 -1.777769e-19)
(0.61087498 2.6424035 2.65307e-19)
(0.56898115 2.6080233 -6.7897387e-19)