/*--------------------------------*- C++ -*----------------------------------*\
  =========                 |
  \\      /  F ield         | OpenFOAM: The Open Source CFD Toolbox
   \\    /   O peration     | Website:  https://openfoam.org
    \\  /    A nd           | Version:  9
     \\/     M anipulation  |
\*---------------------------------------------------------------------------*/
FoamFile
{
    format      ascii;
    class       volScalarField;
    location    "49";
    object      p;
}
// * * * * * * * * * * * * * * * * * * * * * * * * * * * * * * * * * * * * * //

dimensions      [0 2 -2 0 0 0 0];

internalField   nonuniform List<scalar> 
400
(
3.6374196e-10
-0.00067287568
-0.0013853535
-0.0019427118
-0.0022200052
-0.0021565019
-0.001727797
-0.00092620632
0.00023541362
0.0017073977
0.0033872783
0.0051121892
0.0066734725
0.0078490988
0.0084583886
0.0084236855
0.0078133982
0.0068445155
0.0058612921
0.0052989331
0.000657839
-4.0528353e-05
-0.00056966205
-0.00094062781
-0.0011108658
-0.0010399239
-0.0007057931
-9.5547522e-05
0.00078909564
0.0019161801
0.0032095772
0.0045546959
0.0057819558
0.0067162521
0.0072144215
0.0072145272
0.0067699528
0.0060527643
0.0053105193
0.0047384769
0.0014236964
0.00044064672
-0.00011660317
-0.00045324613
-0.00061481122
-0.00058481413
-0.00034658364
0.00011973895
0.00082845379
0.0017698978
0.0028942791
0.004098149
0.0052282242
0.0061109606
0.0065938597
0.006597658
0.0061557327
0.0054215046
0.004593737
0.0037482244
0.0020141911
0.00068168117
1.6764788e-05
-0.00035885761
-0.00057155337
-0.00062656378
-0.00051008759
-0.00019063695
0.00036849473
0.0011843775
0.0022299014
0.0034174106
0.0045913477
0.0055569252
0.0061235433
0.0061665546
0.0056836159
0.004817044
0.0037472832
0.0024735889
0.0021672615
0.00049611068
-0.00029626586
-0.00074871198
-0.0010582597
-0.0012452767
-0.0012927553
-0.0011513093
-0.00075505769
-5.3107262e-05
0.00095701658
0.0022102715
0.0035446947
0.0047326479
0.0055218306
0.005709874
0.0052292774
0.0042015941
0.0028061725
0.00098394965
0.0016539522
-0.00031448803
-0.0012387959
-0.0017993092
-0.0022526707
-0.0026279185
-0.0028986301
-0.0029910911
-0.0028025451
-0.0022376848
-0.001251103
0.00013088372
0.0017446337
0.0033270939
0.0045416267
0.0050657628
0.0047174806
0.0035661842
0.0017895789
-0.00072593635
0.00028701466
-0.0019195805
-0.002973008
-0.0036713912
-0.0043203057
-0.0049532112
-0.0055301326
-0.0059479659
-0.0060590151
-0.0057073928
-0.0047757267
-0.0032587077
-0.001266524
0.00090716004
0.0028231079
0.0039868183
0.0040250778
0.0028876922
0.0007153629
-0.0026805168
-0.0020764396
-0.0044512023
-0.0056268143
-0.006492332
-0.007392929
-0.0083657732
-0.0093569358
-0.0102318
-0.010790987
-0.010804858
-0.010063378
-0.0084617779
-0.0060407833
-0.0030832347
-0.00012632574
0.0021126041
0.0029638089
0.0021355639
-0.00036605175
-0.0048726283
-0.0055241776
-0.0079921243
-0.0092779315
-0.0103338
-0.011538008
-0.012935426
-0.014462723
-0.015956341
-0.017162487
-0.017766055
-0.017438103
-0.015919495
-0.013122978
-0.0092517786
-0.0048990276
-0.0010300354
0.0012693906
0.0012777448
-0.0013339768
-0.0072016961
-0.010076925
-0.012565107
-0.013936676
-0.015184016
-0.016718392
-0.018602634
-0.020774213
-0.023048787
-0.025121713
-0.026586378
-0.026969376
-0.025812968
-0.022845703
-0.018074474
-0.012051115
-0.0059519747
-0.0013707594
0.00030057429
-0.0019472222
-0.009382244
-0.015685002
-0.018132427
-0.019537569
-0.020926822
-0.022757754
-0.025129892
-0.027997023
-0.031166425
-0.034291498
-0.036876881
-0.038294206
-0.037844311
-0.035065886
-0.029601498
-0.021822524
-0.012985601
-0.0051849973
-0.0007157709
-0.0017642189
-0.010792275
-0.022243617
-0.024613056
-0.02594561
-0.027334972
-0.029324176
-0.032079249
-0.035588965
-0.039664675
-0.043927302
-0.047801337
-0.050530224
-0.051236515
-0.04895691
-0.043143578
-0.033769045
-0.021926369
-0.010036906
-0.001415465
-9.8866384e-06
-0.010225639
-0.029641236
-0.031923917
-0.032978772
-0.034079889
-0.035939525
-0.038831539
-0.042795644
-0.047651615
-0.052990566
-0.058163622
-0.062284283
-0.064265566
-0.062875191
-0.057112217
-0.04647677
-0.031649113
-0.015037885
-0.00086441036
0.0046467444
-0.0055215558
-0.037866027
-0.040048535
-0.040440168
-0.040752546
-0.042015066
-0.044653087
-0.048758223
-0.054144093
-0.060356066
-0.066665381
-0.072060721
-0.075268315
-0.074811393
-0.069269296
-0.057628334
-0.039961533
-0.018247993
0.0027890192
0.01444514
0.0069075311
-0.047230614
-0.049134378
-0.048140604
-0.046882334
-0.046905528
-0.048798715
-0.052668317
-0.058276047
-0.065076136
-0.072232031
-0.078595801
-0.082712352
-0.082880239
-0.077309419
-0.064523965
-0.043934978
-0.016748008
0.012502931
0.032938769
0.032408939
-0.058896825
-0.059639907
-0.055883918
-0.051941082
-0.049972355
-0.050629906
-0.053928673
-0.05949537
-0.066611892
-0.074285331
-0.081191202
-0.085679437
-0.085831828
-0.079522223
-0.064876125
-0.040689289
-0.0072409385
0.032139357
0.064981437
0.077749169
-0.076226555
-0.072613782
-0.063516173
-0.055435382
-0.050725049
-0.049781632
-0.052312371
-0.057664394
-0.064891851
-0.072775004
-0.079779401
-0.084036781
-0.083391686
-0.075348991
-0.0576027
-0.028375162
0.012933311
0.065396463
0.1155515
0.15150621
-0.10809227
-0.08955643
-0.071233863
-0.057233003
-0.049072141
-0.046330239
-0.048077293
-0.053202636
-0.060434653
-0.068295897
-0.075027427
-0.078526948
-0.07638904
-0.065809706
-0.043865507
-0.00781847
0.044393653
0.11299814
0.18838041
0.27186076
-0.17684553
-0.10828977
-0.076202561
-0.054651281
-0.042992407
-0.038998056
-0.040570539
-0.045928074
-0.053441569
-0.061438391
-0.068027618
-0.070962592
-0.067551166
-0.054739866
-0.029148841
0.013563579
0.07814694
0.17006434
0.28949545
0.47421821
-0.37208353
-0.12470851
-0.054973108
-0.031962554
-0.022063589
-0.020300551
-0.024359486
-0.03195803
-0.041261592
-0.050640919
-0.058316934
-0.062187497
-0.059782587
-0.048056841
-0.022658556
0.021474184
0.092818703
0.21015275
0.40288841
0.77640927
)
;

boundaryField
{
    movingWall
    {
        type            zeroGradient;
    }
    fixedWalls
    {
        type            zeroGradient;
    }
    frontAndBack
    {
        type            empty;
    }
}


// ************************************************************************* //
