/*--------------------------------*- C++ -*----------------------------------*\
  =========                 |
  \\      /  F ield         | OpenFOAM: The Open Source CFD Toolbox
   \\    /   O peration     | Website:  https://openfoam.org
    \\  /    A nd           | Version:  9
     \\/     M anipulation  |
\*---------------------------------------------------------------------------*/
FoamFile
{
    format      ascii;
    class       surfaceScalarField;
    location    "0.28";
    object      alphaPhi0.phase1;
}
// * * * * * * * * * * * * * * * * * * * * * * * * * * * * * * * * * * * * * //

dimensions      [0 3 -1 0 0 0 0];

internalField   nonuniform List<scalar> 
19800
(
2.8936708e-102
-2.2218615e-101
8.3118261e-102
-2.7167017e-101
7.4878909e-100
-4.5670796e-100
1.0021253e-97
-4.6041116e-98
1.2132073e-95
-4.3728419e-96
1.3991492e-93
-3.9257954e-94
1.5515258e-91
-3.407931e-92
1.7384713e-89
-2.9918556e-90
1.8759704e-87
-2.5840732e-88
1.742811e-85
-2.0337392e-86
1.3707616e-83
-1.4610193e-84
2.1255373e-81
-1.8534368e-82
2.2412083e-79
-1.7186325e-80
3.6268329e-78
-2.6367403e-79
1.9533407e-77
-1.5305348e-78
5.9551597e-77
-4.8103022e-78
1.3605582e-76
-1.0157932e-77
3.1997566e-76
-3.1690286e-77
2.8302093e-76
-2.8328445e-77
2.1090995e-76
-1.121587e-76
2.1435501e-76
-2.0585912e-76
2.1418181e-76
-2.0174788e-76
4.1918441e-76
-2.0415137e-77
5.7849572e-74
-1.5530339e-75
5.9264319e-72
-1.5046709e-73
5.2505171e-70
-3.3727306e-72
5.727589e-68
-5.0753334e-70
7.6578582e-66
-5.1075429e-68
1.5253364e-63
-6.3666498e-66
8.7031941e-61
-2.340625e-63
2.600569e-59
9.6017878e-62
7.8707995e-59
9.0037822e-61
1.1545278e-57
2.122724e-59
4.8296979e-57
1.2787152e-58
6.8472585e-56
2.2050961e-57
2.0839748e-54
8.4635977e-56
6.034491e-53
3.0828119e-54
1.5739957e-51
9.974999e-53
3.655879e-50
2.8511658e-51
7.4344935e-49
7.109432e-50
1.2915029e-47
1.5152094e-48
1.8768761e-46
2.7138427e-47
2.2699633e-45
4.0785545e-46
2.2644277e-44
5.1333861e-45
1.7703863e-43
5.2009729e-44
1.021895e-42
4.0451964e-43
4.3088577e-42
2.441319e-42
1.2682144e-41
1.161852e-41
2.0487015e-41
4.1227843e-41
-1.7917627e-43
1.0350345e-40
-2.138635e-41
1.0507195e-40
-1.304669e-41
4.286879e-41
-4.2508783e-42
1.1905929e-41
-9.0955095e-43
2.3976117e-42
-1.2812242e-43
3.5724721e-43
-1.046241e-44
3.7126818e-44
-4.255011e-46
2.3196486e-45
-7.7146716e-48
7.4374065e-47
-5.7753807e-50
1.0875048e-48
-2.7744481e-52
6.6616569e-51
-2.69497e-55
2.6323794e-53
-1.8641427e-58
2.1039487e-56
-1.3376174e-60
1.2025577e-59
-5.3146185e-60
1.3963693e-61
-2.1421841e-59
4.3694973e-61
-7.3871017e-59
2.5828527e-60
-8.7089784e-59
3.9639581e-60
-6.1402204e-59
3.1466558e-60
-6.9613546e-60
9.3952202e-61
-3.1396635e-61
3.9870043e-62
-6.2777443e-64
-2.4602779e-64
-7.8040042e-66
-3.8630405e-66
-8.6012635e-68
-4.5160257e-68
-6.6545389e-70
-7.0100936e-70
-5.0570051e-72
-6.8410063e-72
-5.3527201e-74
-5.8449179e-74
-5.4022453e-76
-1.4576491e-75
-5.37602e-76
-2.535353e-76
-5.3341926e-76
-2.5636093e-76
-5.2996171e-76
-2.6625389e-76
-6.8047767e-76
-4.9368706e-77
-6.5558227e-76
-6.3002253e-77
-2.8968763e-76
-6.4175828e-77
-1.2705239e-76
-2.168875e-77
-4.101285e-77
-1.0247325e-77
-7.9056292e-78
-3.2188558e-78
-5.6695048e-79
-6.0850682e-79
-6.6927544e-81
-4.3957717e-80
-3.6899773e-83
-6.0122203e-82
-5.1659784e-85
-4.6735531e-84
-5.243183e-87
-6.7362117e-86
-4.8154829e-89
-8.2875629e-88
-4.118122e-91
-9.6263782e-90
-3.4227535e-93
-1.0622321e-91
-2.7365443e-95
-1.1258972e-93
-2.0214012e-97
-1.1110126e-95
-1.274813e-99
-9.9933457e-98
-1.0007867e-101
-8.0944359e-100
-2.9035364e-102
-2.9649244e-101
-2.272764e-101
1.3334529e-101
-4.6309571e-101
3.211994e-99
-3.730421e-99
4.915873e-97
-4.4877685e-97
5.8920083e-95
-4.3887288e-95
6.2792209e-93
-5.2108773e-93
5.9001154e-91
-5.1604227e-91
5.0393748e-89
-4.4075177e-89
3.9796164e-87
-3.4225095e-87
2.8203941e-85
-2.2527341e-85
1.8866131e-83
-1.1078026e-83
1.5225205e-81
-4.4568267e-82
9.5609984e-80
-2.6098313e-80
1.5564945e-78
-3.7700571e-79
1.5786216e-77
-3.5369851e-78
8.0359661e-77
-4.8597282e-77
2.0795264e-76
-8.8547058e-77
4.0137105e-76
-9.6104208e-77
1.1727975e-75
-6.195063e-76
5.4626518e-75
-1.1936358e-75
6.8849747e-75
-1.8532218e-75
5.1147066e-75
-1.4559725e-75
1.1931103e-75
-4.6712315e-76
9.1534848e-76
-1.5743258e-76
5.870633e-74
-2.8058848e-75
5.6111745e-72
-2.5331808e-73
1.5343156e-70
-1.41437e-70
6.7143953e-68
-6.5251662e-68
3.1022278e-65
-3.003118e-65
1.6704569e-63
-1.2971466e-63
1.2960772e-60
-5.4715304e-64
2.7766479e-59
2.4143526e-61
1.1930787e-58
2.7435752e-60
1.4206066e-55
7.4746253e-57
1.0551062e-54
7.8922999e-56
2.031812e-53
1.9008281e-54
5.9170276e-52
6.946051e-53
1.60171e-50
2.334713e-51
3.8944184e-49
6.9589793e-50
8.3953742e-48
1.8255702e-48
1.5797579e-46
4.1677827e-47
2.5424031e-45
8.1466354e-46
3.4274402e-44
1.340718e-44
3.8074133e-43
1.8359094e-43
3.4129365e-42
2.0651408e-42
2.3154588e-41
1.8195105e-41
1.0415849e-40
1.1309857e-40
2.7137542e-40
4.4495287e-40
4.1886349e-40
1.1251215e-39
4.2213117e-40
2.4119861e-39
1.1300835e-42
4.2989428e-39
-4.3047836e-40
4.3498045e-39
-4.2813275e-40
2.4860139e-39
-2.7152909e-40
1.1549838e-39
-9.8430259e-41
4.4564442e-40
-1.7940238e-41
1.0623753e-40
-1.6129323e-42
1.3834381e-41
-7.3370281e-44
9.4805512e-43
-1.5565235e-45
3.4231466e-44
-1.5748642e-47
5.906748e-46
-6.7439725e-50
4.9330428e-48
-7.9835131e-53
1.7533561e-50
-3.3397414e-56
1.7277463e-53
-6.7054085e-58
6.1084436e-57
-3.2849548e-57
1.9884983e-58
-1.9848944e-56
1.9828364e-57
-2.8840448e-56
4.5087543e-57
-1.9709183e-56
4.3197234e-57
-4.8944828e-59
1.3831359e-57
-8.147603e-60
1.0052556e-60
-4.2133658e-61
1.1004922e-61
-3.9625685e-63
1.2934104e-63
-8.1957638e-66
-5.8300149e-65
-4.9683831e-68
-7.4098452e-66
-4.2876344e-70
-4.2544291e-68
-2.3895303e-72
-4.0203663e-70
-4.7459949e-74
-2.2703515e-72
-2.9910644e-75
-2.6474387e-75
-5.7378299e-75
-5.4510768e-76
-1.7340945e-74
-2.0721348e-75
-1.7689609e-74
-4.3291266e-75
-1.1411174e-74
-4.6385022e-75
-2.232826e-75
-2.2739394e-75
-9.1851823e-76
-1.0012545e-75
-4.9122758e-76
-2.2362337e-76
-1.7910128e-76
-2.1931061e-76
-3.7943731e-77
-1.0507284e-76
-4.9583612e-78
-2.2650747e-77
-3.8878635e-79
-2.0463926e-78
-8.0773743e-81
-1.0780203e-79
-8.9637229e-83
-2.379926e-81
-1.2455511e-84
-4.922529e-83
-1.608991e-86
-9.7019252e-85
-1.8611568e-88
-1.3775576e-86
-1.9186573e-90
-1.6403733e-88
-1.7107869e-92
-1.7140965e-90
-1.3136583e-94
-1.469562e-92
-8.6997884e-97
-9.783278e-95
-4.3418732e-99
-7.9173544e-97
-1.3579068e-101
-5.0250706e-99
-4.7348687e-101
6.0837995e-99
-2.459435e-98
1.500421e-96
-2.1901585e-96
2.4421534e-94
-2.7311429e-94
3.0682118e-92
-2.8320729e-92
3.1544432e-90
-2.5034181e-90
2.9069039e-88
-1.9676994e-88
2.4955171e-86
-1.6863551e-86
1.9846895e-84
-1.3774656e-84
1.4175089e-82
-8.0224218e-83
9.5708347e-81
-3.8873649e-81
7.7799128e-79
-2.8807525e-79
4.8864535e-77
-1.7031624e-77
7.168691e-76
-2.3845752e-76
6.8339804e-75
-5.3563057e-75
3.7204394e-74
-1.3020289e-74
1.014708e-73
-3.6635358e-74
1.8486326e-73
-6.5194044e-74
4.7886638e-73
-1.4055852e-73
2.4762312e-72
-6.9351348e-73
2.9633361e-72
-9.8027777e-73
2.1585557e-72
-7.5899016e-73
5.3187674e-73
-2.3624982e-73
4.4029126e-73
-1.1175424e-73
1.0311812e-71
-1.3699192e-72
5.2535493e-70
-5.6574752e-71
2.0740329e-67
-2.0474596e-67
1.1925481e-64
-1.1795275e-64
1.1777623e-61
-5.634004e-63
1.4206467e-59
-2.8117891e-61
5.7191495e-58
2.4823647e-60
3.5191584e-57
9.0299098e-59
5.123643e-56
2.3176141e-57
1.6424168e-52
1.2376287e-53
6.1219014e-52
6.6125449e-53
4.7455318e-51
6.045305e-52
1.1961496e-49
1.8193881e-50
3.1157666e-48
5.8318551e-49
7.2869026e-47
1.662242e-47
1.5083167e-45
4.1636689e-46
2.72195e-44
9.066867e-45
4.2007561e-43
1.6905679e-43
5.4375906e-42
2.6576619e-42
5.8114911e-41
3.4833662e-41
5.0295272e-40
3.7636476e-40
3.3274025e-39
3.2157006e-39
1.4880932e-38
1.9745179e-38
3.930636e-38
7.8427056e-38
6.1334045e-38
2.015853e-37
6.1740889e-38
4.3046384e-37
9.8318446e-40
7.9231997e-37
-6.1758213e-38
8.0213419e-37
-6.1981736e-38
4.4303466e-37
-3.9026443e-38
2.0629421e-37
-1.3985975e-38
7.832886e-38
-2.5795101e-39
1.8498062e-38
-2.4331833e-40
2.450519e-39
-1.2116511e-41
1.7704429e-40
-2.9682291e-43
7.0275415e-42
-3.6139656e-45
1.4058406e-43
-1.9206224e-47
1.4185497e-45
-3.4219581e-50
6.2906259e-48
-2.6713986e-53
9.3841943e-51
-1.0189545e-54
6.3428458e-54
-4.4992679e-54
3.8742093e-55
-2.1146417e-53
3.0259483e-54
-2.7611949e-53
5.9409533e-54
-1.7664736e-53
5.4270409e-54
-4.0491178e-57
1.6142777e-54
-1.1434171e-57
2.4006928e-58
-1.1162018e-58
4.1041968e-59
-5.0244099e-60
1.2450413e-60
-4.006657e-62
-5.5831156e-62
-9.2769126e-65
-1.5222291e-63
-6.0926797e-67
-9.083552e-65
-2.7516857e-69
-5.9948588e-67
-7.8737552e-72
-2.7145774e-69
-1.3632572e-72
-1.2087466e-72
-2.4614016e-72
-3.1904393e-73
-7.428268e-72
-1.057944e-72
-7.7852564e-72
-2.2744004e-72
-5.3453715e-72
-2.50897e-72
-7.8803203e-73
-1.3534737e-72
-3.9919509e-73
-2.4728029e-73
-2.3007028e-73
-1.4514485e-73
-7.5998879e-74
-8.2748789e-74
-1.597331e-74
-2.6800025e-74
-2.2726404e-75
-1.0079404e-74
-1.9322464e-76
-7.7774093e-76
-4.0057935e-78
-6.8238019e-77
-4.3973197e-80
-1.4904082e-78
-6.0512895e-82
-1.7896607e-80
-7.7543604e-84
-3.1032212e-82
-8.9070153e-86
-5.1819857e-84
-9.1369516e-88
-6.2290085e-86
-8.3099214e-90
-6.1580669e-88
-6.6190269e-92
-6.5916451e-90
-4.1635469e-94
-6.0998819e-92
-1.961887e-96
-4.6103087e-94
-6.0192976e-99
-2.8701989e-96
-2.445288e-98
1.7909771e-96
-8.714473e-96
5.0035565e-94
-8.7124213e-94
8.3639469e-92
-1.115106e-91
1.1057154e-89
-1.2063258e-89
1.2240371e-87
-1.1363516e-87
1.1582273e-85
-9.3917667e-86
9.5900776e-84
-6.971655e-84
7.585458e-82
-4.7650801e-82
5.4625555e-80
-2.9610629e-80
3.7197499e-78
-1.8188352e-78
3.0298206e-76
-1.3514489e-76
1.9356631e-74
-8.1141863e-75
2.9361313e-73
-1.1714131e-73
2.9148426e-72
-1.2076945e-72
1.5873204e-71
-6.5325155e-72
3.9851553e-71
-1.6814756e-71
7.9189818e-71
-3.1187397e-71
2.1895527e-70
-7.2467547e-71
8.4245303e-70
-2.9289528e-70
9.7242569e-70
-3.8338175e-70
7.013756e-70
-2.9487921e-70
2.1547012e-70
-9.1153662e-71
2.0843088e-70
-6.0878259e-71
7.897945e-69
-1.0800623e-69
3.9251805e-67
-4.1671327e-68
2.3855085e-64
-2.3588521e-64
2.4262816e-61
-1.9443863e-62
1.585905e-58
-9.7876865e-60
1.2516818e-56
-4.987751e-58
3.3620477e-55
2.4192648e-57
2.3830046e-54
7.7184611e-56
5.4068955e-53
3.0045556e-54
1.608496e-49
1.6005564e-50
3.748577e-49
5.6615119e-50
1.0621406e-48
1.8816926e-49
1.8972576e-47
3.5241137e-48
4.7165692e-46
1.0626286e-46
1.0574087e-44
2.8949747e-45
2.0944159e-43
6.9224014e-44
3.6142927e-42
1.4381151e-42
5.3335005e-41
2.5578579e-41
6.6023714e-40
3.8360524e-40
6.7580903e-39
4.8036694e-39
5.6245434e-38
4.9778733e-38
3.6136554e-37
4.1163248e-37
1.5960688e-36
2.4850207e-36
4.2325017e-36
9.8694945e-36
6.6221713e-36
2.543723e-35
6.6279967e-36
5.3544956e-35
1.8894481e-37
9.9921021e-35
-6.5096164e-36
1.0120292e-34
-6.618304e-36
5.5031627e-35
-4.1685062e-36
2.5956146e-35
-1.4901854e-36
9.8294881e-36
-2.7974655e-37
2.3208793e-36
-2.7774967e-38
3.1403414e-37
-1.5165983e-39
2.3942732e-38
-4.292615e-41
1.0440794e-39
-6.2451132e-43
2.4169708e-41
-3.9210871e-45
2.9181322e-43
-1.1421349e-47
1.5324295e-45
-1.6998842e-50
3.7474121e-48
-1.5119123e-51
5.0672268e-51
-5.7042451e-51
6.9159832e-52
-1.8595255e-50
3.7138473e-51
-1.9819049e-50
5.7498633e-51
-1.0352728e-50
4.7419776e-51
-3.9561933e-54
1.0993241e-51
-8.320671e-55
2.8046621e-55
-6.896448e-56
3.6540117e-56
-3.4319162e-57
1.0637811e-57
-3.4975401e-59
-3.315281e-59
-2.4271119e-61
-1.2489868e-60
-7.2559847e-64
-1.5532819e-62
-2.6216685e-66
-7.0048527e-64
-5.7546769e-69
-2.5868799e-66
-5.2036559e-70
-8.1680417e-70
-8.1003164e-70
-1.4558169e-70
-2.4016926e-69
-4.0353197e-70
-2.5877034e-69
-8.863372e-70
-1.8803104e-69
-1.0005005e-69
-3.8392434e-70
-5.857476e-70
-1.7057631e-70
-1.3261536e-70
-9.2011186e-71
-6.9582069e-71
-3.3775245e-71
-3.9055229e-71
-6.4989319e-72
-1.3886255e-71
-8.9462968e-73
-2.7192959e-72
-7.4043822e-74
-3.6856884e-73
-1.5071887e-75
-3.1473268e-74
-1.6445825e-77
-6.7600508e-76
-2.2462587e-79
-8.0741002e-78
-2.854934e-81
-1.2174481e-79
-3.277533e-83
-1.75506e-81
-3.5003214e-85
-2.378266e-83
-3.1130177e-87
-2.8459375e-85
-2.2991932e-89
-2.8894895e-87
-1.3765085e-91
-2.4790876e-89
-6.3669004e-94
-1.8513837e-91
-1.7205444e-96
-1.1104862e-93
-8.4179942e-96
4.1496146e-94
-2.3569149e-93
1.2679731e-91
-2.5640797e-91
2.19223e-89
-3.4346514e-89
2.97493e-87
-3.7398042e-87
3.43953e-85
-3.6781291e-85
3.4468919e-83
-3.204785e-83
3.0889726e-81
-2.5430089e-81
2.4436307e-79
-1.8137783e-79
1.7041275e-77
-1.1367138e-77
1.1624419e-75
-6.6481999e-76
9.461907e-74
-4.9325767e-74
6.1472455e-72
-3.007357e-72
9.6675216e-71
-4.4954327e-71
1.0459609e-69
-4.9102842e-70
4.8785589e-69
-2.3516797e-69
1.1769465e-68
-5.7592359e-69
2.4002008e-68
-1.0804702e-68
6.9687435e-68
-2.6154187e-68
2.3170798e-67
-9.6234839e-68
2.6096367e-67
-1.1953814e-67
1.8767122e-67
-9.1594961e-68
7.0302393e-68
-2.8878971e-68
7.1458729e-68
-2.3799625e-68
3.4921818e-66
-5.2625611e-67
2.0576296e-64
-2.6338119e-65
2.8531894e-61
-5.2496365e-62
2.3843021e-58
-4.6612812e-59
1.0825106e-55
-1.4766312e-56
6.6934318e-54
-3.9959023e-55
1.4356634e-52
1.3000094e-54
1.2387944e-51
4.632837e-53
4.4182399e-50
2.82989e-51
7.9892265e-47
9.0283655e-48
1.807335e-46
3.4611207e-47
2.9825529e-46
7.1356683e-47
2.5329253e-45
5.6736664e-46
5.7842812e-44
1.5026801e-44
1.2382432e-42
3.8983421e-43
2.3389061e-41
8.8798061e-42
3.8462527e-40
1.7559942e-40
5.4092244e-39
2.9731772e-39
6.3851878e-38
4.2473171e-38
6.2409274e-37
5.0725863e-37
4.9777885e-36
5.0300775e-36
3.095644e-35
4.0176047e-35
1.3457576e-34
2.3798112e-34
3.5652473e-34
9.4192587e-34
5.5626355e-34
2.4237614e-33
5.511779e-34
5.0179118e-33
2.302028e-35
9.4199182e-33
-5.3055188e-34
9.5445844e-33
-5.4907621e-34
5.1502392e-33
-3.4780364e-34
2.4656454e-33
-1.2458618e-34
9.3491483e-34
-2.3854947e-35
2.2129821e-34
-2.4937839e-36
3.0602153e-35
-1.4953957e-37
2.4602554e-36
-4.8697534e-39
1.1791605e-37
-8.354508e-41
3.1410944e-39
-6.6620331e-43
4.4731482e-41
-2.6684297e-45
2.9864855e-43
-8.5598615e-48
1.0058196e-45
-1.8199209e-48
3.2524717e-48
-5.8100538e-48
9.5869564e-49
-1.2709514e-47
3.5893954e-48
-1.2621156e-47
4.4655149e-48
-3.5513985e-48
3.0034122e-48
-3.155606e-51
4.08018e-49
-4.737118e-52
2.5259799e-52
-3.0436174e-53
2.3637883e-53
-1.5472811e-54
5.6953636e-55
-1.6402163e-56
-1.285569e-56
-1.3560491e-58
-6.2368716e-58
-1.0168861e-60
-7.8987733e-60
-2.7260406e-63
-1.2056798e-61
-2.5109477e-66
-7.9105063e-64
-1.5922728e-67
-3.878959e-67
-2.2251444e-67
-5.0917159e-68
-6.4349158e-67
-1.2399984e-67
-7.0564704e-67
-2.786395e-67
-5.3241637e-67
-3.1813664e-67
-1.2922234e-67
-1.9721871e-67
-5.3047118e-68
-5.0350401e-68
-2.7756369e-68
-2.4619818e-68
-1.0786683e-68
-1.3662578e-68
-2.159259e-69
-5.1501097e-69
-2.8453936e-70
-1.0405754e-69
-2.2750008e-71
-1.3617897e-70
-4.5464479e-73
-1.1294161e-71
-4.9405085e-75
-2.3849392e-73
-6.7159672e-77
-2.8336253e-75
-8.6691298e-79
-4.3472714e-77
-1.0234258e-80
-6.4840143e-79
-1.0104321e-82
-8.4516798e-81
-8.4327207e-85
-9.3652226e-83
-5.9631782e-87
-8.888518e-85
-3.5535313e-89
-7.5287706e-87
-1.5656169e-91
-5.5774987e-89
-3.8662205e-94
-3.1739987e-91
-2.2093318e-93
7.9050175e-92
-5.1253226e-91
2.5843112e-89
-5.9505766e-89
4.6683666e-87
-8.3079806e-87
6.4131715e-85
-9.2854271e-85
7.599353e-83
-9.1406881e-83
7.9125554e-81
-8.2972748e-81
7.4367314e-79
-6.8937145e-79
6.2883078e-77
-5.2271716e-77
4.6507838e-75
-3.5124442e-75
3.0480894e-73
-2.0629889e-73
2.462461e-71
-1.4675642e-71
1.6265469e-69
-9.0846695e-70
2.6511348e-68
-1.4130347e-68
2.8070344e-67
-1.493419e-67
1.1980835e-66
-6.6166579e-67
2.828986e-66
-1.578139e-66
5.8508883e-66
-2.9730675e-66
1.7529868e-65
-7.4761239e-66
5.3590999e-65
-2.5730821e-65
5.9516809e-65
-3.1100671e-65
4.2752366e-65
-2.3794211e-65
1.8241171e-65
-7.741474e-66
1.9582319e-65
-7.2676576e-66
1.1130919e-63
-1.9049783e-64
9.1519688e-62
-1.5042658e-62
2.4171235e-58
-6.7715164e-59
1.2988213e-55
-3.1409928e-56
3.0412662e-53
-5.5714717e-54
8.7610539e-52
-9.3954217e-54
6.2718174e-50
5.8749186e-52
5.1813459e-49
2.1346271e-50
2.8257987e-47
2.0015082e-48
1.614543e-44
1.8044933e-45
7.3943991e-44
1.5229802e-44
1.1515482e-43
3.183892e-44
3.4061201e-43
9.7732081e-44
5.9434801e-42
1.7376796e-42
1.205774e-40
4.2316671e-41
2.1626385e-39
9.1508295e-40
3.376219e-38
1.7176849e-38
4.5087427e-37
2.7609782e-37
5.0560541e-36
3.7451909e-36
4.6998719e-35
4.2513343e-35
3.5791872e-34
4.0207533e-34
2.1470343e-33
3.0914476e-33
9.1597349e-33
1.791599e-32
2.4187739e-32
7.0511811e-32
3.757598e-32
1.8077974e-31
3.6846e-32
3.677071e-31
2.0982835e-33
6.9124625e-31
-3.4669166e-32
7.0074115e-31
-3.6589977e-32
3.7690525e-31
-2.3351916e-32
1.833146e-31
-8.3957511e-33
6.9728311e-32
-1.6411923e-33
1.656891e-32
-1.8078204e-34
2.3433423e-33
-1.1922288e-35
1.9877166e-34
-4.4595598e-37
1.048274e-35
-8.9145015e-39
3.2055906e-37
-8.9779317e-41
5.3159841e-39
-4.7562577e-43
4.4828405e-41
-2.2737744e-45
2.0003971e-43
-1.5082442e-45
1.3066853e-45
-4.3156382e-45
8.8615954e-46
-7.3503971e-45
2.6503251e-45
-6.426354e-45
2.8850833e-45
-9.4239011e-46
1.467495e-45
-2.0278576e-48
1.1659224e-46
-2.1297789e-49
1.7746994e-49
-8.8369328e-51
1.1523524e-50
-5.0601609e-52
1.8221728e-52
-5.4329933e-54
-4.1274993e-54
-4.8652047e-56
-1.8462577e-55
-5.9698696e-58
-3.3502176e-57
-1.7185379e-60
-1.9098604e-58
-8.128447e-64
-5.8007768e-61
-3.9548529e-65
-1.3883854e-64
-5.1984304e-65
-1.4492904e-65
-1.4808648e-64
-3.2402956e-65
-1.6412679e-64
-7.3484966e-65
-1.2696719e-64
-8.4459236e-65
-3.4286888e-65
-5.4579138e-65
-1.3293308e-65
-1.5007087e-65
-6.7963813e-66
-6.9432025e-66
-2.7092718e-66
-3.8115754e-66
-6.0182209e-67
-1.4846853e-66
-7.5241682e-68
-3.2785984e-67
-5.8226186e-69
-4.1095025e-68
-1.1425198e-70
-3.3030562e-69
-1.2383125e-72
-6.8575601e-71
-1.717651e-74
-8.1358497e-73
-2.2137746e-76
-1.3101842e-74
-2.4042252e-78
-1.8473414e-76
-2.2390866e-80
-2.2172375e-78
-1.7945252e-82
-2.3229633e-80
-1.2682204e-84
-2.1663718e-82
-7.3504461e-87
-1.8507994e-84
-3.0940641e-89
-1.3115734e-86
-7.1327407e-92
-7.1484446e-89
-4.6563392e-91
1.2756649e-89
-9.2853137e-89
4.4016652e-87
-1.1362912e-86
8.2144488e-85
-1.6369891e-84
1.1699594e-82
-1.9029033e-82
1.3898166e-80
-1.8900422e-80
1.4814355e-78
-1.7201155e-78
1.4390675e-76
-1.4728467e-76
1.275557e-74
-1.1724517e-74
1.0102041e-72
-8.428775e-73
7.0576614e-71
-5.3958391e-71
5.4851138e-69
-3.6777553e-69
3.6828904e-67
-2.3095164e-67
6.2311176e-66
-3.771167e-66
6.1082458e-65
-3.6595508e-65
2.465167e-64
-1.5329207e-64
5.7686062e-64
-3.6156372e-64
1.2038577e-63
-6.8193081e-64
3.7427515e-63
-1.7851473e-63
1.0716275e-62
-5.8338614e-63
1.1832734e-62
-6.9392913e-63
8.5158587e-63
-5.3092069e-63
3.8447021e-63
-1.7935536e-63
4.4390171e-63
-1.7959825e-63
2.7873177e-61
-5.3649131e-62
3.0485956e-59
-5.3420236e-60
6.4034556e-56
-1.3112594e-56
1.3824908e-53
-8.4411907e-55
1.4940818e-51
-4.3184768e-53
1.8974551e-50
-2.2228369e-51
7.2102367e-48
5.459264e-50
1.5874484e-46
6.5921762e-48
1.508172e-44
1.1495657e-45
7.5840445e-43
8.5187866e-44
2.9129349e-41
6.1254535e-42
4.3061335e-41
1.4164639e-41
5.8893203e-41
2.3257054e-41
5.2882187e-40
1.7585936e-40
9.9635396e-39
3.8098386e-39
1.6891585e-37
7.7836131e-38
2.4911483e-36
1.3813647e-36
3.1447182e-35
2.1000604e-35
3.3367207e-34
2.6962742e-34
2.9365957e-33
2.8978337e-33
2.1249493e-32
2.6022359e-32
1.2240187e-31
1.9177253e-31
5.1077199e-31
1.0836795e-30
1.3418454e-30
4.2318565e-30
2.0737108e-30
1.079742e-29
2.0110629e-30
2.156235e-29
1.4659974e-31
4.0444368e-29
-1.8458078e-30
4.1023814e-29
-1.9899786e-30
2.2073327e-29
-1.2808811e-30
1.0912174e-29
-4.6258829e-31
4.1669976e-30
-9.2404695e-32
9.9461422e-31
-1.0745627e-32
1.4398995e-31
-7.8072915e-34
1.2909733e-32
-3.3343943e-35
7.5007421e-34
-7.6501689e-37
2.6154025e-35
-9.3798548e-39
4.9712974e-37
-6.7003622e-41
5.1010726e-39
-6.6346033e-43
3.0848403e-41
-7.4317943e-43
5.0840627e-43
-2.5300411e-42
6.4927399e-43
-3.4916615e-42
1.5328729e-42
-2.5554924e-42
1.4906046e-42
-2.3553209e-43
5.7204162e-43
-1.036183e-45
3.1183482e-44
-7.6025912e-47
9.6810239e-47
-8.7843829e-49
4.3086029e-48
-1.6639409e-49
1.9880103e-50
-1.4208364e-51
-1.2552827e-50
-1.710331e-53
-6.0692136e-53
-1.8824272e-55
-3.9219722e-54
-2.3636409e-58
-6.5212791e-56
-1.9829495e-61
-2.0507707e-59
-8.3360315e-63
-4.802839e-62
-1.0724947e-62
-3.4738447e-63
-2.9827553e-62
-7.4378923e-63
-3.3370925e-62
-1.6715508e-62
-2.6274116e-62
-1.9317111e-62
-7.6389597e-63
-1.2875784e-62
-2.8163677e-63
-3.7310098e-63
-1.4088505e-63
-1.6356153e-63
-5.6754867e-64
-8.8679573e-64
-1.3497126e-64
-3.5129736e-64
-1.7008878e-65
-8.2439353e-65
-1.2747612e-66
-1.0496993e-65
-2.4564406e-68
-8.1275076e-67
-2.6730217e-70
-1.6597288e-68
-3.7434042e-72
-2.0301317e-70
-4.4203306e-74
-3.1412875e-72
-4.5275843e-76
-4.0503731e-74
-4.0765837e-78
-4.6416057e-76
-3.2552578e-80
-4.7681911e-78
-2.2728072e-82
-4.4831314e-80
-1.2558116e-84
-3.7077347e-82
-5.1048e-87
-2.5113912e-84
-1.1132415e-89
-1.3234317e-86
-8.1650892e-89
1.7825804e-87
-1.4376771e-86
6.4340831e-85
-1.8391673e-84
1.2321399e-82
-2.7174678e-82
1.8176006e-80
-3.2673852e-80
2.2141115e-78
-3.36241e-78
2.362228e-76
-3.05715e-76
2.3386471e-74
-2.6440243e-74
2.1421415e-72
-2.1513196e-72
1.7879055e-70
-1.6213327e-70
1.3636583e-68
-1.1281545e-68
1.067431e-66
-7.9642203e-67
7.2750714e-65
-5.056486e-65
1.2815896e-63
-8.7532931e-64
1.1299246e-62
-7.5561466e-63
4.3866081e-62
-3.0368859e-62
1.0246302e-61
-7.1217573e-62
2.1564347e-61
-1.3472543e-61
6.9520864e-61
-3.6636239e-61
1.8951756e-60
-1.1541018e-60
2.0847389e-60
-1.3560305e-60
1.5067675e-60
-1.0393241e-60
6.8551047e-61
-3.6901413e-61
8.142721e-61
-3.6553002e-61
5.5040215e-59
-1.214194e-59
6.149808e-57
-9.3336954e-58
3.5898559e-54
-2.5741692e-55
2.5633984e-52
-1.4319745e-53
1.1331531e-50
-5.9097521e-52
5.9243117e-48
-2.1381003e-48
6.2300497e-47
3.4343509e-49
4.0625697e-44
1.6619213e-45
8.1344002e-42
6.9253247e-43
4.8148607e-41
6.1398489e-42
9.9668744e-39
2.0109838e-39
1.5200001e-38
6.2429818e-39
1.5021024e-38
7.7441372e-39
4.4827852e-38
1.9129056e-38
7.0794418e-37
2.914489e-37
1.1298369e-35
5.5638212e-36
1.5665292e-34
9.2978397e-35
1.8599766e-33
1.3313648e-33
1.8572855e-32
1.6103986e-32
1.5395176e-31
1.6310721e-31
1.0526923e-30
1.3837111e-30
5.7910745e-30
9.7226729e-30
2.354688e-29
5.3362782e-29
6.1428551e-29
2.0636601e-28
9.4343628e-29
5.2352866e-28
9.0383394e-29
1.0255222e-27
8.1336443e-30
1.9120438e-27
-8.0721729e-29
1.9407773e-27
-8.9099806e-29
1.0483388e-27
-5.7890254e-29
5.2710886e-28
-2.1014902e-29
2.0211232e-28
-4.2978358e-30
4.847363e-29
-5.2911012e-31
7.1953793e-30
-4.2262374e-32
6.8355139e-31
-2.0356213e-33
4.3631725e-32
-5.3145381e-35
1.712163e-33
-7.9278082e-37
3.6967586e-35
-7.9251892e-39
4.6127877e-37
-2.3918429e-40
3.9724473e-39
-3.8548777e-40
1.95603e-40
-1.2331579e-39
4.1730078e-40
-1.3306607e-39
7.0805626e-40
-7.2394173e-40
6.0409427e-40
-5.102166e-41
1.5680313e-40
-4.1736325e-43
7.1270193e-42
-2.2694425e-44
4.0898976e-44
-4.6237727e-47
1.3263792e-45
-5.2136975e-47
1.8606151e-48
-4.8027156e-49
-6.5326942e-48
-5.6934987e-51
-1.26547e-49
-1.0062636e-53
-1.6224885e-51
-6.850598e-57
-6.2782667e-55
-3.8301008e-59
-1.088522e-57
-1.4954573e-60
-1.9390001e-59
-1.9667925e-60
-7.086946e-61
-5.353529e-60
-1.5214783e-60
-6.0399394e-60
-3.3505997e-60
-4.8144723e-60
-3.8892777e-60
-1.4811435e-60
-2.6495448e-60
-5.1975133e-61
-7.9742014e-61
-2.5379486e-61
-3.3196988e-61
-1.0242257e-61
-1.7694622e-61
-2.5392799e-62
-7.0673651e-62
-3.3629275e-63
-1.7273752e-62
-2.4339966e-64
-2.3433261e-63
-4.6073334e-66
-1.7214132e-64
-5.14027e-68
-3.4607538e-66
-6.5866943e-70
-4.3249551e-68
-7.3003287e-72
-5.9956204e-70
-7.2654194e-74
-7.3962498e-72
-6.4788242e-76
-8.2734598e-74
-5.1371796e-78
-8.4887213e-76
-3.4317682e-80
-7.8306951e-78
-1.8275655e-82
-6.1935676e-80
-7.219649e-85
-4.0486105e-82
-1.5023638e-87
-2.0745097e-84
-1.2220359e-86
2.1929339e-85
-1.9392678e-84
8.2289413e-83
-2.5787232e-82
1.6101881e-80
-3.8924833e-80
2.4433871e-78
-4.8109165e-78
3.089693e-76
-5.1321513e-76
3.3533744e-74
-4.8178935e-74
3.3495255e-72
-4.1748427e-72
3.1103052e-70
-3.4355194e-70
2.6854223e-68
-2.6619354e-68
2.1863925e-66
-1.9613373e-66
1.8417676e-64
-1.4952382e-64
1.2717186e-62
-9.6954448e-63
2.3184194e-61
-1.7334062e-61
1.8260339e-60
-1.3511007e-60
6.9037881e-60
-5.2706642e-60
1.6128791e-59
-1.2307454e-59
3.4373215e-59
-2.3474575e-59
1.1460684e-58
-6.6187172e-59
3.0108309e-58
-2.0304751e-58
3.3028762e-58
-2.3613371e-58
2.4063151e-58
-1.8188231e-58
1.0562602e-58
-6.8187647e-59
1.2046693e-58
-6.9781641e-59
8.5780637e-57
-3.1554139e-57
8.1561459e-55
-2.5627865e-55
7.4855372e-53
-1.0291808e-53
9.6692077e-51
-9.6359768e-52
1.9833338e-48
-2.057532e-49
2.2466377e-46
-3.9483991e-48
9.3158605e-45
1.9009395e-47
9.208996e-42
3.6434356e-43
2.7945245e-39
2.4342304e-40
1.3905153e-38
1.8576445e-39
1.871067e-36
3.4375191e-37
5.0274101e-36
2.1620392e-36
4.9076495e-36
2.6609498e-36
5.2790895e-36
3.3575319e-36
4.4019041e-35
2.0154865e-35
6.5345403e-34
3.3890186e-34
8.4778941e-33
5.3048041e-33
9.4201827e-32
7.1250429e-32
8.8072149e-31
8.0833941e-31
6.8345892e-30
7.6737293e-30
4.3847164e-29
6.1086225e-29
2.2872581e-28
4.0633628e-28
9.0123354e-28
2.1536662e-27
2.3279982e-27
8.2228353e-27
3.5440789e-27
2.0693844e-26
3.3440498e-27
3.9630651e-26
3.6112833e-28
7.3197504e-26
-2.8978562e-27
7.4358129e-26
-3.2882476e-27
4.0441831e-26
-2.1620127e-27
2.0741828e-26
-7.9015979e-28
7.9986858e-27
-1.6594509e-28
1.9299671e-27
-2.1732634e-29
2.9461627e-28
-1.9094078e-30
2.979121e-29
-1.029948e-31
2.0889033e-30
-3.0534093e-33
9.154596e-32
-5.618035e-35
2.2398514e-33
-8.1859394e-37
3.4480588e-35
-9.9342123e-38
4.6774897e-37
-2.1871334e-37
8.5165978e-38
-4.4465107e-37
2.1202539e-37
-4.2508893e-37
2.6034199e-37
-9.2845016e-38
1.6280712e-37
-5.6628791e-39
1.8370197e-38
-1.3877548e-40
8.2311037e-40
-5.5002742e-42
1.4094612e-41
-7.4069123e-45
3.249431e-43
-4.125209e-45
1.911808e-46
-1.7331021e-46
-5.9794065e-47
-3.7024995e-49
-5.0632826e-47
-9.3113615e-53
-2.0138761e-50
-6.1948097e-55
-1.91056e-53
-3.8768765e-57
-4.2547439e-55
-2.257428e-58
-5.3841966e-58
-3.2209613e-58
-1.1621665e-58
-8.6762686e-58
-2.8114166e-58
-9.856048e-58
-6.009376e-58
-7.9172401e-58
-6.9993673e-58
-2.5408396e-58
-4.8363613e-58
-8.5188668e-59
-1.4971266e-58
-4.0405816e-59
-5.9295495e-59
-1.6252206e-59
-3.0879844e-59
-4.132044e-60
-1.2375164e-59
-5.9010699e-61
-3.1068384e-60
-4.1104319e-62
-4.5269602e-61
-7.6505026e-64
-3.189679e-62
-8.4169336e-66
-6.2843915e-64
-9.8323914e-68
-7.6495307e-66
-1.0569346e-69
-9.8552696e-68
-1.0316771e-71
-1.1779155e-69
-9.1054439e-74
-1.2973781e-71
-6.9737632e-76
-1.3155109e-73
-4.4815209e-78
-1.1640872e-75
-2.3150718e-80
-8.8687545e-78
-8.9230617e-83
-5.6273783e-80
-1.7822898e-85
-2.8138473e-82
-1.5912772e-84
2.4054807e-83
-2.3129041e-82
9.3446239e-81
-3.1842127e-80
1.8630001e-78
-4.8973685e-78
2.8951995e-76
-6.196948e-76
3.7743591e-74
-6.8102573e-74
4.2586366e-72
-6.6408368e-72
4.3180874e-70
-5.9093965e-70
4.066948e-68
-4.9060156e-68
3.5945142e-66
-3.8886076e-66
3.0776986e-64
-3.0168797e-64
2.835939e-62
-2.5469029e-62
1.9898339e-60
-1.6518533e-60
3.6209523e-59
-2.953363e-59
2.6263721e-58
-2.1316189e-58
9.7402168e-58
-8.1296393e-58
2.2803478e-57
-1.8938451e-57
4.9528732e-57
-3.6661535e-57
1.7045936e-56
-1.0717341e-56
4.347844e-56
-3.2206065e-56
4.7606053e-56
-3.7159566e-56
3.5119055e-56
-2.8827767e-56
1.4520241e-56
-1.1555254e-56
1.3861805e-56
-6.7970817e-57
1.007211e-54
-7.1080309e-55
1.1608388e-52
-2.2179981e-52
1.0064785e-50
-4.3432456e-51
1.9438434e-48
-1.0141658e-48
2.5429189e-46
-1.7123053e-46
1.7477699e-46
-9.2264424e-48
2.5890441e-42
-1.3945257e-43
1.6890913e-39
6.1987452e-41
3.7128121e-37
2.973779e-38
3.0363307e-36
3.8943635e-37
2.3611998e-34
4.0292655e-35
1.575523e-33
5.7300532e-34
1.6160626e-33
8.9129896e-34
1.1780929e-33
8.0635123e-34
2.6453807e-33
1.5894406e-33
3.289106e-32
1.7932569e-32
3.9844065e-31
2.59522e-31
4.1185778e-30
3.2526377e-30
3.5834424e-29
3.4429528e-29
2.586596e-28
3.0457928e-28
1.5436292e-27
2.2568161e-27
7.5570068e-27
1.4065004e-26
2.8615015e-26
7.1344277e-26
7.2861178e-26
2.6765129e-25
1.0946327e-25
6.6580769e-25
1.0131184e-25
1.2398611e-24
1.2943114e-26
2.2722511e-24
-8.4876383e-26
2.3111643e-24
-9.9530971e-26
1.2623051e-24
-6.6512444e-26
6.6351127e-25
-2.4544201e-26
2.580361e-25
-5.3243833e-27
6.2788203e-26
-7.482638e-28
9.9169776e-27
-7.2518418e-29
1.0765524e-27
-4.3648953e-30
8.3089578e-29
-1.477214e-31
4.0494242e-30
-3.4798022e-33
1.1288076e-31
-8.2064384e-35
2.23662e-33
-4.1270307e-35
6.4281861e-35
-9.639824e-35
3.6470291e-35
-1.4091209e-34
8.3328841e-35
-9.9065928e-35
8.4663575e-35
-1.1552811e-36
3.0945728e-35
-2.692655e-37
2.403678e-37
-4.5758437e-38
4.6216303e-38
-1.067905e-39
5.016051e-39
-9.6014974e-43
6.2304779e-41
-3.9303315e-44
1.5930456e-44
-6.2299894e-45
-2.9341492e-45
-4.0448205e-48
-2.2184993e-46
-1.021066e-50
-5.4798756e-49
-4.9371935e-53
-1.1673551e-50
-1.7421158e-55
-5.2049458e-54
-2.7834889e-56
-4.4193572e-56
-4.7713952e-56
-1.320829e-56
-1.281344e-55
-4.7367618e-56
-1.4624604e-55
-9.7465683e-56
-1.1797606e-55
-1.137802e-55
-3.9144586e-56
-7.9259011e-56
-1.2565865e-56
-2.5092828e-56
-5.7542471e-57
-9.45559e-57
-2.2984715e-57
-4.7776728e-57
-5.9340177e-58
-1.9144132e-57
-9.0101346e-59
-4.8918176e-58
-6.206058e-60
-7.5350924e-59
-1.1368226e-61
-5.2526502e-60
-1.1852604e-63
-1.0281526e-61
-1.313711e-65
-1.1764892e-63
-1.3689482e-67
-1.436947e-65
-1.3128518e-69
-1.6684577e-67
-1.1272638e-71
-1.8153139e-69
-8.2858355e-74
-1.769001e-71
-5.1552399e-76
-1.5043512e-73
-2.5939862e-78
-1.1104239e-75
-9.7799404e-81
-6.8649241e-78
-1.8825809e-83
-3.3575908e-80
-1.8296874e-82
2.3770059e-81
-2.4678003e-80
9.5303481e-79
-3.5077155e-78
1.931935e-76
-5.4868595e-76
3.065597e-74
-7.0883816e-74
4.1022788e-72
-7.9932534e-72
4.7833858e-70
-8.0489478e-70
5.0272385e-68
-7.4409577e-68
4.8237058e-66
-6.3316667e-66
4.3660735e-64
-5.115489e-64
3.9319196e-62
-4.1743701e-62
4.0180407e-60
-3.9249824e-60
2.819439e-58
-2.5708244e-58
4.9926926e-57
-4.4218881e-57
3.4002139e-56
-3.0061997e-56
1.2423829e-55
-1.1256666e-55
2.9224967e-55
-2.6213147e-55
6.5180536e-55
-5.1925646e-55
2.3130389e-54
-1.5752418e-54
5.7562218e-54
-4.6483162e-54
6.2990854e-54
-5.3395156e-54
4.7131152e-54