/*--------------------------------*- C++ -*----------------------------------*\
  =========                 |
  \\      /  F ield         | OpenFOAM: The Open Source CFD Toolbox
   \\    /   O peration     | Website:  https://openfoam.org
    \\  /    A nd           | Version:  9
     \\/     M anipulation  |
\*---------------------------------------------------------------------------*/
FoamFile
{
    format      ascii;
    class       volScalarField;
    location    "0.28";
    object      alpha.phase1;
}
// * * * * * * * * * * * * * * * * * * * * * * * * * * * * * * * * * * * * * //

dimensions      [0 0 0 0 0 0 0];

internalField   nonuniform List<scalar> 
10000
(
1.6830319e-98
1.6830319e-98
1.2650619e-97
2.1709793e-95
3.5627906e-93
5.3859974e-91
7.0717619e-89
8.8749988e-87
1.0110241e-84
9.2718344e-83
6.7116603e-81
1.0651792e-78
1.1392442e-76
1.8890606e-75
1.0732599e-74
3.4778876e-74
7.5965908e-74
2.4697781e-73
2.2329657e-73
1.4897514e-73
1.4599427e-73
1.4599427e-73
2.1225484e-73
1.9041128e-71
1.9251943e-69
1.6890956e-67
1.8287778e-65
2.4355972e-63
4.8582347e-61
2.8226009e-58
1.0085245e-56
3.1351028e-56
4.4611654e-55
1.9182839e-54
2.5425619e-53
7.870849e-52
2.3904096e-50
6.6056079e-49
1.6424186e-47
3.6192361e-46
6.9117947e-45
1.1227314e-43
1.54793e-42
1.8076474e-41
1.7179674e-40
1.2668538e-39
7.3260214e-39
3.3761483e-38
1.1721316e-37
2.908061e-37
2.9457119e-37
1.2107061e-37
3.4210738e-38
7.0810594e-39
1.095794e-39
1.1952816e-40
7.9223306e-42
2.7236059e-43
4.316475e-45
2.8988514e-47
1.2713536e-49
1.1426891e-52
7.4535723e-56
1.0103428e-57
3.6731154e-57
2.715416e-56
5.2945648e-56
5.6937084e-56
2.5805735e-56
2.3258507e-57
9.9522882e-59
1.9452642e-61
2.4194124e-63
2.6597844e-65
2.0625473e-67
1.5832188e-69
1.7081281e-71
3.476231e-73
3.476231e-73
3.5115814e-73
3.7675907e-73
4.8339177e-73
4.8348986e-73
1.5635981e-73
7.1318771e-74
2.1724482e-74
3.9974991e-75
2.7868409e-76
3.1621692e-78
1.4248524e-80
2.3529853e-82
2.2747591e-84
1.8090783e-86
1.1499531e-88
5.7938734e-91
2.5462242e-93
1.264391e-95
7.6104504e-98
1.6421878e-98
1.6421878e-98
1.7306502e-98
9.9235659e-97
6.2390783e-95
5.6815928e-94
3.2285685e-92
2.7121851e-90
2.3923568e-88
2.1619107e-86
2.001573e-84
1.9074492e-82
3.0629576e-80
2.6204395e-78
1.2252526e-76
1.782227e-75
1.0889645e-74
3.5214583e-74
7.69999e-74
2.4592436e-73
1.3983323e-72
2.7774548e-72
2.5118527e-72
9.313422e-73
3.579107e-73
1.6406759e-71
2.1701671e-69
2.5231286e-69
1.1592646e-67
5.5895397e-65
2.3404945e-62
4.1568388e-58
1.0127399e-56
4.3524516e-56
4.9736039e-53
3.8680537e-52
7.3204837e-51
2.1915526e-49
6.2144597e-48
1.5980817e-46
3.6816539e-45
7.4942159e-44
1.3237189e-42
1.9924314e-41
2.5234096e-40
2.6534975e-39
2.2083151e-38
1.3100947e-37
4.9744291e-37
1.2299679e-36
2.6086406e-36
4.6428785e-36
4.6889845e-36
2.6728861e-36
1.2495921e-36
4.9091447e-37
1.2071544e-37
1.6398504e-38
1.1845333e-39
4.5531944e-41
8.4493038e-43
7.6703431e-45
3.0011793e-47
3.2943619e-50
1.3180383e-53
4.733648e-55
5.7938219e-54
1.5881978e-53
1.9020099e-53
7.9936018e-54
1.6744252e-56
2.7937544e-57
1.3220851e-58
1.0903409e-60
4.0324548e-65
3.2514253e-67
1.7356335e-69
2.2341153e-71
1.620108e-71
1.1925779e-72
3.9197452e-72
6.9439978e-72
6.2930015e-72
2.3510497e-72
4.815117e-73
1.6124463e-73
7.2339739e-74
2.20908e-74
4.1016131e-75
3.0538913e-76
7.3438431e-78
1.0671564e-79
7.3370908e-82
6.8940316e-84
7.0401505e-86
7.2871325e-88
7.3526505e-90
7.6526125e-92
1.077802e-93
1.0827696e-94
1.2803386e-96
1.6878386e-98
1.2488359e-95
7.2065355e-94
7.5555571e-92
5.7048291e-90
2.1709109e-88
2.7844383e-87
1.5430323e-85
1.1149388e-83
9.1344444e-82
1.085609e-79
2.0612321e-77
1.3358682e-75
9.9805935e-75
2.1860153e-74
2.6078223e-72
1.733718e-71
2.9617129e-71
5.8134263e-71
6.6798199e-70
1.2035359e-69
1.0751606e-69
3.8853122e-70
1.5082587e-70
1.091433e-69
7.6596475e-68
1.1853186e-67
7.0077758e-65
2.35478e-59
4.0247253e-57
1.9434356e-55
1.2311724e-54
1.6830815e-53
6.0493046e-50
2.4208666e-49
1.7563113e-48
4.3578361e-47
1.184318e-45
2.9251455e-44
6.4607779e-43
1.2591702e-41
2.1289611e-40
3.0712045e-39
3.7351312e-38
3.7835283e-37
3.0605609e-36
1.7960721e-35
6.8801865e-35
1.7205395e-34
3.6061713e-34
6.5701575e-34
6.6384406e-34
3.6891871e-34
1.7429971e-34
6.7747881e-35
1.6521528e-35
2.2804297e-36
1.7325621e-37
7.3011083e-39
1.5660657e-40
1.7124653e-42
8.3257534e-45
1.3776055e-47
1.047541e-50
7.131343e-52
6.7237652e-51
1.5791835e-50
1.7884972e-50
6.8841423e-51
1.4579561e-54
4.1670547e-55
3.5752913e-56
1.4734512e-57
9.8017508e-60
1.0002505e-64
3.2562469e-67
1.7727029e-69
1.0615137e-69
5.2681007e-70
1.6988192e-69
3.0482151e-69
2.8156643e-69
1.1152664e-69
5.6033035e-71
5.4492515e-71
2.5990459e-71
5.8507859e-73
6.8114202e-74
2.6677758e-74
3.9752415e-75
8.5657813e-77
5.3488606e-79
4.1939559e-81
4.5396706e-83
5.3167041e-85
7.7466234e-87
5.4226583e-88
1.1788057e-89
1.2078617e-91
8.8939687e-94
1.1934365e-95
3.9306884e-93
3.0539517e-91
3.3954844e-89
3.2860644e-87
2.5545368e-85
1.4656119e-83
3.6262864e-82
9.0018419e-81
6.0785688e-79
6.4624062e-77
1.0312061e-74
6.7282505e-73
5.5651555e-72
4.7852633e-71
2.1530713e-69
7.975181e-69
1.6646985e-68
3.9703496e-68
2.3946555e-67
3.8852654e-67
3.4548596e-67
1.2218827e-67
8.0417271e-68
1.4095611e-66
7.2472962e-65
1.7160907e-64
3.8156071e-59
3.9402092e-56
3.660615e-54
1.1153392e-52
8.0038961e-52
1.7146878e-50
6.2466279e-47
1.667115e-46
4.4096349e-46
6.8225274e-45
1.7476865e-43
4.1317928e-42
8.7233965e-41
1.6242344e-39
2.6236562e-38
3.6166278e-37
4.2090428e-36
4.0955525e-35
3.211036e-34
1.8548272e-33
7.1108142e-33
1.7841566e-32
3.6873462e-32
6.8108537e-32
6.8840125e-32
3.7664973e-32
1.8021178e-32
6.9824135e-33
1.7011703e-33
2.3959396e-34
1.9186137e-35
8.8698203e-37
2.1981807e-38
2.8715171e-40
1.6502552e-42
4.4687627e-45
6.7873665e-48
1.0449868e-48
6.6701122e-48
1.2306121e-47
1.2541976e-47
3.7423209e-48
1.3368691e-51
2.8499489e-52
2.1601742e-53
1.009417e-54
9.2163447e-57
5.4541898e-59
7.9051704e-64
2.3983678e-66
1.2394915e-66
2.040391e-67
5.3125834e-67
9.7397004e-67
9.2109685e-67
4.1243095e-67
5.1631113e-68
2.9041833e-68
1.4016378e-68
2.6564534e-69
4.267778e-71
1.5133057e-71
2.0259991e-72
4.2992221e-74
3.0327118e-76
2.7398523e-78
3.1541789e-80
7.7844884e-82
4.0074928e-83
6.167637e-85
6.38697e-87
5.0718525e-89
3.7267402e-91
3.6614736e-93
9.5291415e-91
8.7744172e-89
1.0291614e-86
1.0580181e-84
9.6267682e-83
7.3373523e-81
4.6883837e-79
2.0902739e-77
3.7611608e-76
2.4906219e-74
3.6840335e-72
2.4281763e-70
2.1482301e-69
8.8144043e-68
8.0783728e-67
2.506207e-66
5.3265937e-66
1.3806333e-65
6.7467623e-65
1.0146496e-64
9.0269676e-65
3.2091669e-65
2.8933938e-65
6.9808027e-64
3.4523523e-62
3.3005789e-59
5.280664e-56
2.9776613e-53
2.014898e-51
4.6179483e-50
3.983801e-49
1.3538723e-47
2.96761e-44
8.5842256e-44
1.4081146e-43
9.2442985e-43
2.080524e-41
4.6819928e-40
9.4139667e-39
1.6682941e-37
2.5655841e-36
3.3696291e-35
3.7419857e-34
3.4862581e-33
2.6416709e-32
1.4981006e-31
5.7261798e-31
1.4348561e-30
2.9172023e-30
5.4213417e-30
5.4814945e-30
2.9753673e-30
1.4445646e-30
5.6022981e-31
1.3678249e-31
1.9680304e-32
1.6610045e-33
8.4353808e-35
2.4045078e-36
3.7037769e-38
2.7048992e-40
1.0089481e-42
3.6666624e-45
1.2280446e-45
5.4155182e-45
8.0352979e-45
6.6572022e-45
1.1637981e-45
1.0044497e-48
1.5254322e-49
9.2503161e-51
4.4785014e-52
4.331791e-54
3.2174896e-56
1.711657e-58
3.8158993e-61
4.9889732e-64
6.3094373e-65
1.366558e-64
2.5401775e-64
2.4332167e-64
1.1764149e-64
1.9786727e-65
9.6204541e-66
4.667074e-66
1.2296018e-66
5.5061666e-68
5.7253303e-69
7.2391882e-70
1.514479e-71
1.1230989e-73
1.1972258e-75
4.3914299e-77
1.3432684e-78
1.9941132e-80
2.1883578e-82
1.8935714e-84
1.5892922e-86
1.0442563e-88
8.6422873e-91
1.8754569e-88
1.928289e-86
2.4765995e-84
2.487546e-82
2.4043727e-80
2.0530954e-78
1.5494833e-76
9.8916411e-75
4.5115043e-73
9.1986757e-72
1.0335539e-69
6.8822527e-68
6.8314422e-67
3.2296633e-65
2.1457557e-64
6.1140017e-64
1.3058918e-63
3.4807274e-63
1.5569718e-62
2.234204e-62
1.9891551e-62
7.2713185e-63
7.9010497e-63
2.3173409e-61
1.762047e-59
5.7663405e-56
3.6018572e-53
8.8705739e-51
2.5877315e-49
1.9432126e-47
1.6175544e-46
8.3716993e-45
5.2199721e-42
3.2829111e-41
5.4539245e-41
1.3799805e-40
2.0821422e-39
4.3910119e-38
8.3679415e-37
1.4058233e-35
2.0505047e-34
2.5558502e-33
2.6968477e-32
2.3961671e-31
1.7479576e-30
9.6992133e-30
3.6867426e-29
9.2052833e-29
1.8388498e-28
3.4223145e-28
3.4616043e-28
1.8725655e-28
9.2344411e-29
3.5921308e-29
8.8038605e-30
1.2955303e-30
1.1537324e-31
6.4478515e-33
2.1107156e-34
3.7888084e-36
3.4976632e-38
1.7300076e-40
1.2741377e-42
9.8394888e-43
3.4562241e-42
4.4965091e-42
2.812737e-42
2.8802507e-43
6.1156102e-46
6.457296e-47
2.5976626e-48
1.4231054e-49
1.4055968e-51
1.0981464e-53
1.3330206e-55
4.3739906e-58
1.7020667e-61
1.5537508e-62
2.9719262e-62
5.6361545e-62
5.4053095e-62
2.7518129e-62
5.3280971e-63
2.4109028e-63
1.1756968e-63
3.5538234e-64
3.9451778e-65
1.6820143e-66
2.0150945e-67
4.1612644e-69
3.1932143e-71
9.2512336e-73
2.8563337e-74
4.4468463e-76
5.2132236e-78
4.9596121e-80
4.5427359e-82
3.7352571e-84
2.2358092e-86
1.6539329e-88
3.1024666e-86
3.4533423e-84
4.689552e-82
4.9950106e-80
4.5955738e-78
4.1488646e-76
3.3976529e-74
2.4852445e-72
1.4887169e-70
5.4427239e-69
2.3998666e-67
1.6105804e-65
2.0170724e-64
7.8808256e-63
4.5090882e-62
1.2355177e-61
2.6223692e-61
7.2781656e-61
3.0252613e-60
4.2623824e-60
3.8036505e-60
1.4385372e-60
1.7534493e-60
5.9962076e-59
6.8142229e-57
1.7690665e-53
3.9208636e-51
4.4025068e-49
5.2654099e-48
2.0752005e-45
4.6010563e-44
4.3442749e-42
2.2188104e-40
1.1771329e-38
2.1589808e-38
2.9105384e-38
1.8605039e-37
3.4831627e-36
6.2543675e-35
9.9115973e-34
1.3649595e-32
1.6083916e-31
1.605559e-30
1.3539131e-29
9.4641768e-29
5.119734e-28
1.9305795e-27
4.7964492e-27
9.4060809e-27
1.7465136e-26
1.767363e-26
9.5625479e-27
4.7927895e-27
1.8717761e-27
4.6089575e-28
6.9444327e-29
6.5394672e-30
4.0290069e-31
1.505368e-32
3.1015688e-34
3.4897641e-36
2.3424494e-38
4.3524311e-40
6.3817619e-40
1.7652728e-39
2.05733e-39
9.7163973e-40
6.8453354e-41
2.9746026e-43
2.1686804e-44
2.6540498e-46
4.7483601e-47
3.396706e-49
3.8218379e-51
5.0556443e-53
6.4451983e-56
4.3446454e-59
3.2536085e-60
5.7162059e-60
1.0845703e-59
1.0391701e-59
5.4863993e-60
1.148537e-60
4.9403204e-61
2.4289135e-61
7.8655603e-62
1.193985e-62
4.3582307e-64
4.6152713e-65
9.4220246e-67
9.068421e-69
4.2309993e-70
7.2962347e-72
9.2385852e-74
9.8403414e-76
9.7045424e-78
9.2404337e-80
6.9010585e-82
3.8959866e-84
2.6569156e-86
4.4214795e-84
5.2323908e-82
7.3879765e-80
8.342261e-78
7.814334e-76
6.7146291e-74
5.6538531e-72
4.4646812e-70
3.056354e-68
1.590447e-66
4.8194545e-65
3.2128321e-63
6.0511281e-62
1.5319955e-60
7.9501198e-60
2.145515e-59
4.4949079e-59
1.2973362e-58
5.1313677e-58
7.1459513e-58
6.397934e-58
2.5197298e-58
3.2082615e-58
1.2192984e-56
1.4393165e-54
9.9241941e-52
7.0030381e-50
2.8501076e-48
1.6931995e-45
1.7822892e-44
1.1096273e-41
2.4372436e-39
1.4573821e-38
3.5267444e-36
8.6449479e-36
8.7436272e-36
1.815083e-35
2.3837806e-34
3.9852419e-33
5.9275979e-32
7.6694029e-31
8.4987863e-30
7.9859921e-29
6.3578238e-28
4.2358349e-27
2.2249838e-26
8.3062896e-26
2.0513362e-25
3.9453236e-25
7.2806235e-25
7.3711497e-25
4.0031144e-25
2.0404487e-25
8.002384e-26
1.9805532e-26
3.0611557e-27
3.0562662e-28
2.0707258e-29
8.7205392e-31
2.0449838e-32
2.8041774e-34
2.6859867e-36
1.4888458e-37
3.6868141e-37
7.327196e-37
7.5211302e-37
2.4114015e-37
1.421938e-38
1.1461169e-40
6.1673623e-42
2.4496896e-44
2.7462435e-44
1.0946474e-46
1.4659561e-48
2.68848e-51
1.6652734e-54
9.4717311e-57
5.8153259e-58
9.8712429e-58
1.8441915e-57
1.7643862e-57
9.5699263e-58
2.1137746e-58
8.6370193e-59
4.292242e-59
1.4433387e-59
2.5646466e-60
1.1647707e-61
8.9971423e-63
1.8218182e-64
3.5289651e-66
9.0594473e-68
1.2704516e-69
1.5248862e-71
1.6516649e-73
1.7154662e-75
1.5073628e-77
1.0596183e-79
5.7364024e-82
3.6720285e-84
5.5289937e-82
6.8774504e-80
1.0003417e-77
1.1770243e-75
1.1723603e-73
9.94637e-72
8.1875134e-70
6.4562462e-68
4.67037e-66
2.7755978e-64
8.6075281e-63
5.5921613e-61
1.6300761e-59
2.5276441e-58
1.2265e-57
3.2696757e-57
6.7541814e-57
2.0155514e-56
7.7415015e-56
1.0680023e-55
9.6155811e-56
3.999517e-56
4.8586966e-56
1.9833662e-54
1.8296073e-52
1.7103366e-50
2.0894229e-48
4.5073635e-46
6.0169267e-44
2.4775364e-42
2.4218884e-39
8.1954105e-37
4.1185291e-36
5.6139153e-34
2.7657264e-33
2.75583e-33
2.9029362e-33
1.4918912e-32
2.1892264e-31
3.0366299e-30
3.673097e-29
3.8090485e-28
3.3500676e-27
2.5007515e-26
1.5767196e-25
7.9962087e-25
2.9463188e-24
7.2161832e-24
1.3566972e-23
2.4794909e-23
2.5116801e-23
1.3731879e-23
7.1380148e-24
2.8156384e-24
7.0130363e-25
1.1152303e-25
1.1859836e-26
8.837834e-28
4.1649058e-29
1.1096019e-30
1.8823091e-32
2.847992e-34
5.8668809e-35
1.7028077e-34
2.4631985e-34
1.854424e-34
2.694816e-35
1.5251483e-36
3.6653876e-38
1.4271335e-39
2.6240358e-42
1.464735e-42
4.4361879e-44
9.4608504e-47
2.1451515e-50
1.4994578e-52
9.6502339e-55
8.6393558e-56
1.5412578e-55
2.8104718e-55
2.6844807e-55
1.4820593e-55
3.3802436e-56
1.324508e-56
6.6402089e-57
2.2903248e-57
4.4868732e-58
3.2661981e-59
1.5268346e-60
3.0544496e-62
7.884463e-64
1.3872612e-65
1.8908245e-67
2.2456146e-69
2.5291751e-71
2.5167436e-73
2.0758235e-75
1.39683e-77
7.3179202e-80
4.4469395e-82
6.1525883e-80
7.9841477e-78
1.1895829e-75
1.4447946e-73
1.503057e-71
1.3567607e-69
1.0942226e-67
8.5220688e-66
6.2422371e-64
3.9192685e-62
1.2750855e-60
8.7091881e-59
3.0530528e-57
3.6555006e-56
1.6907849e-55
4.4512998e-55
9.0788197e-55
2.789524e-54
1.0538067e-53
1.4404527e-53
1.3092698e-53
5.7738771e-54
5.869536e-54
2.5033108e-52
3.0574397e-50
2.2137788e-48
3.9769372e-46
1.2109236e-43
8.8623627e-44
6.5515846e-40
4.2763822e-37
1.0020787e-34
8.2704676e-34
6.3853175e-32
6.8864305e-31
8.6180133e-31
6.4352906e-31
1.0757894e-30
1.0543312e-29
1.3452536e-28
1.5119912e-27
1.4588784e-26
1.193786e-25
8.2888924e-25
4.8959046e-24
2.3762213e-23
8.6000774e-23
2.0807263e-22
3.8016912e-22
6.8899919e-22
6.9855984e-22
3.8352615e-22
2.0433987e-22
8.131538e-23
2.043389e-23
3.3631882e-24
3.8417681e-25
3.1556446e-26
1.657755e-27
5.0474143e-29
1.1055611e-30
3.5636083e-32
2.3057617e-32
6.1621846e-32
7.4227593e-32
3.263938e-32
3.3202701e-34
8.036099e-35
1.2287948e-35
2.6370652e-37
2.395328e-40
1.0410514e-41
1.6596342e-42
9.5534371e-46
2.5094066e-48
1.1791812e-50
1.2177575e-53
9.4101628e-54
2.20104e-53
3.8776366e-53
3.7006055e-53
2.0660204e-53
4.8109799e-54
1.8163186e-54
9.1530463e-55
3.2211073e-55
6.7271691e-56
6.5154999e-57
2.3154715e-58
4.4204288e-60
1.2090778e-61
1.9298508e-63
2.5394573e-65
3.045309e-67
3.3909666e-69
3.1541826e-71
2.4848321e-73
1.6155597e-75
8.2354647e-78
4.7859671e-80
6.1607476e-78
8.2981985e-76
1.261854e-73
1.5728135e-71
1.6928123e-69
1.6009121e-67
1.3550568e-65
1.0416041e-63
7.686714e-62
5.1651846e-60
2.3690484e-58
1.3076163e-56
4.6918847e-55
4.733293e-54
2.1051639e-53
5.4797784e-53
1.1063623e-52
3.4952763e-52
1.3080039e-51
1.7725631e-51
1.6284821e-51
7.7682859e-52
3.1077089e-52
7.9495937e-51
1.4825329e-48
3.5229737e-46
1.1229469e-43
1.647096e-41
2.0962588e-42
2.826569e-38
6.4544539e-35
1.8545972e-33
1.458337e-31
1.1884154e-30
1.1974671e-28
2.2911156e-28
1.6632089e-28
1.2993752e-28
4.751918e-28
5.1816523e-27
5.3762507e-26
4.7984558e-25
3.6297916e-24
2.3250294e-23
1.2693266e-22
5.8256795e-22
2.0707334e-21
5.0216167e-21
9.0704886e-21
1.6450686e-20
1.6697685e-20
9.119978e-21
4.8928925e-21
1.9325999e-21
4.8790638e-22
8.387611e-23
1.0426069e-23
9.4750851e-25
5.543366e-26
1.96567e-27
6.0302675e-29
6.0000115e-30
8.4123316e-30
2.0614501e-29
2.3211212e-29
8.973319e-30
1.1861244e-32
8.2315006e-33
4.0697625e-33
3.9115301e-35
1.3308784e-38
1.0198781e-39
5.7216918e-42
5.4927735e-44
1.1495126e-46
7.1495591e-50
6.3632825e-52
6.532363e-52
2.8851425e-51
4.8786235e-51
4.6588194e-51
2.6188546e-51
6.1990767e-52
2.2573771e-52
1.1362574e-52
4.0645351e-53
8.8903753e-54
1.017887e-54
3.4757779e-56
7.569026e-58
1.6674257e-59
2.4331326e-61
3.1408075e-63
3.7843519e-65
3.9176861e-67
3.4700382e-69
2.6358399e-71
1.6652322e-73
8.288049e-76
4.6288924e-78
5.6011092e-76
7.8034783e-74
1.2080611e-71
1.5394785e-69
1.7043264e-67
1.6719327e-65
1.4884506e-63
1.1864872e-61
8.7431766e-60
6.2582595e-58
3.9167852e-56
2.2339746e-54
6.2455936e-53
5.5611149e-52
2.3893652e-51
6.1509018e-51
1.2368463e-50
4.0164e-50
1.4911715e-49
2.0069897e-49
1.8625725e-49
9.4159694e-50
1.3092403e-50
3.7101204e-50
2.3888487e-48
8.8993643e-45
3.0665502e-42
2.6852474e-40
1.2453443e-40
2.9677555e-38
1.299543e-32
3.4606385e-32
2.2667347e-29
2.2948707e-29
2.293597e-26
5.5686246e-26
4.666004e-26
2.1166588e-26
2.6590119e-26
1.7739626e-25
1.6684318e-24
1.3684735e-23
9.493713e-23
5.5692365e-22
2.7866165e-21
1.1984713e-20
4.2405193e-20
1.1125151e-19
2.1993368e-19
3.8974132e-19
3.9422184e-19
2.2143502e-19
1.083592e-19
3.9096489e-20
9.7129317e-21
1.7542465e-21
2.3873255e-22
2.4017429e-23
1.5754114e-24
6.8015594e-26
3.4423737e-27
1.051605e-27
2.7623819e-27
5.4962353e-27
5.8354765e-27
1.9926264e-27
8.9619881e-31
6.7744508e-31
6.950614e-31
4.712229e-33
1.9349729e-38
2.1690544e-38
1.2792823e-39
1.7983745e-42
2.7799756e-46
4.0103875e-48
7.6952496e-50
5.1214585e-50
3.4451829e-49
5.6250736e-49
5.3849062e-49
3.0403553e-49
7.3175964e-50
2.5687818e-50
1.2812219e-50
4.6424815e-51
1.0535923e-51
1.348685e-52
6.1447269e-54
1.2898574e-55
2.0579704e-57
2.8085693e-59
3.5811384e-61
4.0772213e-63
4.0040428e-65
3.4106203e-67
2.5123439e-69
1.5478892e-71
7.5389001e-74
4.0598006e-76
4.6579609e-74
6.6963339e-72
1.0534266e-69
1.3690645e-67
1.5530849e-65
1.5709265e-63
1.4551272e-61
1.2268856e-59
9.3093034e-58
6.9585682e-56
5.3235372e-54
3.2540775e-52
7.379448e-51
5.9759594e-50
2.4986315e-49
6.3469188e-49
1.2800233e-48
4.2717637e-48
1.5684885e-47
2.1057671e-47
1.9679002e-47
1.0108979e-47
1.9646498e-48
5.1503181e-48
1.5759213e-46
1.5345604e-44
2.2954877e-42
2.6053137e-40
2.0305537e-39
3.7385223e-37
1.0782212e-30
3.7883033e-30
1.0766178e-28
2.1755819e-28
3.5508711e-24
1.0753997e-23
1.0001272e-23
4.8461096e-24
2.2977169e-24
5.9411992e-24
4.5675254e-23
3.4207845e-22
2.1615904e-21
1.1563868e-20
5.3890386e-20
2.1937151e-19
7.711991e-19
2.2029063e-18
4.829006e-18
7.8754682e-18
7.8890064e-18
4.8714005e-18
2.1548571e-18
7.0208503e-19
1.7178614e-19
3.238993e-20
4.7081125e-21
5.2316393e-22
3.9430836e-23
2.2669733e-24
2.6488005e-25
2.1969539e-25
7.2004844e-25
1.1462243e-24
1.1350321e-24
3.2561687e-25
9.4195398e-29
8.6198813e-29
7.9867358e-29
6.4055218e-31
1.5456127e-37
3.291982e-38
5.098532e-38
2.0834063e-42
2.3026271e-44
5.2380607e-46
1.1547157e-47
6.1042787e-48
3.7564956e-47
5.9638059e-47
5.7330158e-47
3.2483807e-47
7.9721454e-48
2.697018e-48
1.3250518e-48
4.8449003e-49
1.1309398e-49
1.5667877e-50
8.8184343e-52
1.737581e-53
2.2894299e-55
2.9923518e-57
3.6365416e-59
3.9086304e-61
3.6799462e-63
3.0326521e-65
2.1744995e-67
1.3096035e-69
6.2515261e-72
3.2530717e-74
3.5653906e-72
5.2802773e-70
8.4293894e-68
1.1153365e-65
1.2929663e-63
1.3431255e-61
1.2862343e-59
1.1332956e-57
9.1745099e-56
7.1734653e-54
6.2416318e-52
3.8938889e-50
7.8590637e-49
5.8981285e-48
2.4198761e-47
6.069293e-47
1.2332248e-46
4.2295542e-46
1.5286819e-45
2.0537372e-45
1.9270078e-45
1.0042419e-45
2.322589e-46
9.5198374e-46
3.383016e-44
1.6091502e-42
6.2157396e-41
2.4973861e-39
6.1725962e-37
1.645115e-34
7.9348858e-29
5.3893224e-28
1.7099867e-27
7.2875007e-28
4.6343964e-22
1.6874644e-21
1.6868219e-21
1.0140669e-21
2.6898483e-22
2.6417307e-22
1.1424749e-21
7.7205396e-21
4.4771835e-20
2.1567799e-19
9.1889941e-19
3.4518799e-18
1.1011624e-17
2.8673576e-17
6.0024726e-17
9.0439348e-17
9.0604144e-17
5.9778326e-17
2.7709412e-17
9.726637e-18
2.5802813e-18
5.2190839e-19
8.2538832e-20
1.0470963e-20
9.5342038e-22
8.4461989e-23
2.8132002e-23
5.0591922e-23
1.4521212e-22
1.9663274e-22
1.7528701e-22
4.001776e-23
9.7441859e-27
1.1311668e-26
6.3034383e-27
2.1509212e-29
7.8654509e-35
1.1070371e-36
4.8379964e-38
7.4830905e-41
4.6061286e-42
8.2084015e-44
1.8539096e-45
7.8274677e-46
3.7443486e-45
5.8269499e-45
5.6309498e-45
3.2035478e-45
8.0459853e-46
2.6201236e-46
1.2639317e-46
4.6537788e-47
1.1058588e-47
1.6269015e-48
1.0349168e-49
1.9914219e-51
2.3288629e-53
2.894856e-55
3.2980086e-57
3.3864441e-59
3.0764871e-61
2.4626949e-63
1.7234149e-65
1.0161639e-67
4.7593958e-70
2.3964952e-72
2.5253702e-70
3.8483553e-68
6.2276324e-66
8.3780419e-64
9.9057339e-62
1.0538293e-59
1.0389705e-57
9.5000238e-56
8.0910623e-54
6.805148e-52
6.5108232e-50
4.1430936e-48
7.6237428e-47
5.3654884e-46
2.1599794e-45
5.378112e-45
1.1081027e-44
3.9120059e-44
1.3845544e-43
1.8640588e-43
1.7524537e-43
9.370511e-44
2.0367575e-44
1.6612734e-43
6.8377814e-42
3.9207668e-40
1.7477212e-38
7.660173e-37
2.3552076e-34
4.7896103e-32
2.9382638e-27
9.5500694e-26
6.7211778e-26
6.6851688e-26
6.754229e-20
2.4218092e-19
2.4542404e-19
1.6233492e-19
4.5532477e-20
1.5171168e-20
3.0693179e-20
1.6736287e-19
8.8937914e-19
3.7279316e-18
1.3053801e-17
3.9676189e-17
1.0677181e-16
2.5215308e-16
4.7240241e-16
6.9947068e-16
6.8053732e-16
4.7785636e-16
2.3748851e-16
9.0753397e-17
2.7770724e-17
6.6701387e-18
1.3216497e-18
2.1053354e-19
2.5509875e-20
4.353448e-21
3.1492593e-21
1.0052267e-20
2.2919732e-20
2.85458e-20
2.300734e-20
4.5188533e-21
9.5138021e-26
3.1797734e-25
3.0714348e-25
2.3172936e-29
3.5958635e-32
7.0819675e-35
3.2356447e-37
2.0819011e-38
9.7745106e-40
1.361184e-41
2.8619304e-43
9.4694441e-44
3.4015053e-43
5.2499131e-43
5.1041981e-43
2.9206925e-43
7.5350707e-44
2.3529876e-44
1.1072123e-44
4.1115488e-45
9.900823e-46
1.5281111e-46
1.0484054e-47
2.0140646e-49
2.1639809e-51
2.5057546e-53
2.7129633e-55
2.6802808e-57
2.3597541e-59
1.8400074e-61
1.2590848e-63
7.2764721e-66
3.3463851e-68
1.6319086e-70
1.6628557e-68
2.6052369e-66
4.2699382e-64
5.8338528e-62
7.0249289e-60
7.6379665e-58
7.729216e-56
7.3002581e-54
6.4894994e-52
5.8095375e-50
6.1150993e-48
3.9615487e-46
6.7726334e-45
4.5163026e-44
1.777667e-43
4.3914738e-43
9.2763681e-43
3.38536e-42
1.1670965e-41
1.5744483e-41
1.480087e-41
8.0719588e-42
1.4359119e-42
2.6905094e-41
1.2844103e-39
8.7176481e-38
4.7034874e-36
2.5268646e-34
7.8201503e-32
5.0187266e-30
2.5494978e-27
1.2166141e-23
2.8999556e-23
7.0143498e-24
1.6605539e-17
4.0598298e-17
3.6880588e-17
2.1866557e-17
6.3203186e-18
1.0423308e-18
1.0874945e-18
3.498477e-18
1.5331898e-17
5.4563613e-17
1.4396531e-16
3.4122367e-16
7.3923131e-16
1.2546111e-15
2.1690602e-15
3.2786063e-15
3.4119401e-15
2.2534128e-15
1.1687294e-15
5.517552e-16
1.9036545e-16
6.1071104e-17
1.7222873e-17
3.5075236e-18
6.6382274e-19
2.7872782e-19
3.7327031e-19
1.5016592e-18
3.1473058e-18
3.8907398e-18
3.1806866e-18
6.0435093e-19
1.6647089e-24
7.1030796e-24
7.1180682e-24
2.3861023e-28
1.5787891e-29
1.3233959e-32
8.7153096e-35
5.4420443e-36
1.9699565e-37
2.2006623e-39
4.1834349e-41
8.4539245e-42
2.9008584e-41
4.3593873e-41
4.2679674e-41
2.4627184e-41
6.5506281e-42
1.9556178e-42
8.8978467e-43
3.332423e-43
8.1640967e-44
1.3088339e-44
9.4808019e-46
1.8308747e-47
1.8108053e-49
1.9715692e-51
2.0450021e-53
1.9533313e-55
1.6718582e-57
1.2724989e-59
8.5258757e-62
4.8339711e-64
2.1840218e-66
1.0320022e-68
1.0220091e-66
1.6453018e-64
2.7290773e-62
3.7831507e-60
4.6337976e-58
5.1406245e-56
5.3273349e-54
5.1803035e-52
4.7808752e-50
4.5109147e-48
5.1645215e-46
3.440356e-44
5.5301391e-43
3.5315693e-42
1.3532616e-41
3.3148054e-41
7.2505999e-41
2.7414369e-40
9.1576907e-40
1.2362138e-39
1.1593478e-39
6.4809034e-40
9.9957128e-41
3.9659531e-39
2.190266e-37
1.7414244e-35
1.156271e-33
7.829886e-32
2.276954e-29
1.0819338e-27
7.0332377e-23
2.5057582e-21
2.0360818e-21
5.6153686e-22
1.2731653e-15
4.7792542e-15
4.8585776e-15
2.8504188e-15
7.2496033e-16
8.5192644e-17
4.0476064e-17
6.6556574e-17
1.9375394e-16
5.3996752e-16
1.3237146e-15
2.3728331e-15
3.4930758e-15
5.5073301e-15
7.0376903e-15
9.8479747e-15
1.0225428e-14
6.4573053e-15
4.4666803e-15
2.6726016e-15
1.4368293e-15
5.451454e-16
1.291488e-16
3.4320911e-17
1.4950853e-17
1.3433527e-17
4.0406808e-17
1.7684365e-16
4.1738268e-16
5.6468508e-16
4.3803396e-16
5.4579893e-17
8.2786501e-22
2.5388079e-21
1.1186895e-21
1.1091161e-25
3.3714316e-27
4.3380614e-30
2.6112624e-32
1.2963619e-33
3.6985082e-35
3.3965357e-37
5.6664349e-39
6.369114e-40
2.2905702e-39
3.3341807e-39
3.2877351e-39
1.9196841e-39
5.2826808e-40
1.5071323e-40
6.5826497e-41
2.486164e-41
6.2228549e-42
1.027846e-42
7.8157624e-44
1.5028951e-45
1.377698e-47
1.4241928e-49
1.423039e-51
1.3188303e-53
1.1000255e-55
8.1861702e-58
5.3766363e-60
2.9928958e-62
1.3289544e-64
6.0857146e-67
5.8843127e-65
9.7301292e-63
1.6322956e-60
2.2937679e-58
2.8545242e-56
3.2266787e-54
3.4181401e-52
3.4131553e-50
3.2577185e-48
3.2188244e-46
3.9573723e-44
2.7359206e-42
4.1648927e-41
2.5639917e-40
9.5408334e-40
2.3182244e-39
5.3018929e-39
2.0755423e-38
6.6830312e-38
9.0074474e-38
8.3924774e-38
5.0234848e-38
1.0827747e-38
5.3082244e-37
3.3291067e-35
3.1943978e-33
2.5705436e-31
2.2738613e-29
6.1786717e-27
3.6757728e-24
9.2154747e-20
1.0010661e-19
1.5633671e-20
1.3617056e-21
2.1739098e-16
3.7929252e-14
4.6840289e-13
2.5722338e-13
5.77912e-14
5.849934e-15
1.0620411e-15
1.1258314e-15
2.0030202e-15
6.8728745e-15
3.7700163e-14
4.2862593e-14
4.6742276e-14
1.8024866e-13
7.9405193e-14
3.2313883e-14
3.1518866e-14
1.1415629e-13
3.5603633e-14
2.2948933e-14
3.1338699e-14
3.0666707e-14
6.3198632e-15
8.1032881e-16
3.4895168e-16
5.1664652e-16
2.9588329e-15
1.4795468e-14
4.2563862e-14
7.8549486e-14
3.8881109e-17
1.8958621e-17
7.6317165e-20
1.7662058e-19
2.5144128e-19
1.3922501e-20
1.5217105e-23
1.5631046e-27
7.3622287e-30
2.7718891e-31
5.7992635e-33
4.6571294e-35
7.0013365e-37
4.187522e-38
1.6634933e-37
2.3447341e-37
2.3288589e-37
1.3817102e-37
3.9480376e-38
1.0782501e-38
4.493491e-39
1.7100272e-39
4.3806849e-40
7.4336964e-41
5.915887e-42
1.1201141e-43
9.6283875e-46
9.5122534e-48
9.193194e-50
8.2899971e-52
6.7517829e-54
4.9194824e-56
3.1706344e-58
1.7339332e-60
7.5688107e-63
3.3587502e-65
3.1841869e-63
5.4067008e-61
9.1665596e-59
1.3047613e-56
1.6480866e-54
1.8957549e-52
2.0495486e-50
2.0971298e-48
2.063816e-46
2.1254424e-44
2.782903e-42
1.9962223e-40
2.903214e-39
1.7226994e-38
6.2323405e-38
1.5042678e-37
3.6350637e-37
1.4667406e-36
4.5292437e-36
6.0747676e-36
5.6055774e-36
3.8309842e-36
1.1392467e-36
6.4875239e-35
6.9050092e-33
5.315045e-30
8.4954393e-29
6.0409639e-27
2.8522635e-23
6.3140492e-19
6.3909163e-18
3.3496329e-18
1.389519e-19
1.4838312e-21
6.9420593e-15
3.7619165e-13
4.6711376e-11
1.3998402e-13
5.9544278e-14
6.5230905e-14
5.0018263e-14
6.6328341e-14
9.3185667e-14
1.1301337e-13
1.5524869e-13
2.4904208e-13
4.8904563e-13
6.0060655e-13
5.804205e-13
3.0869072e-13
2.2653084e-13
3.5596671e-13
3.2830774e-13
2.3666481e-13
1.9300863e-13
1.1705177e-13
4.04967e-14
2.0315153e-14
1.4114104e-14
2.2388976e-14
3.12953e-14
7.4605731e-14
4.2508931e-12
1.1931621e-11
1.0360006e-14
9.8804541e-20
7.6880014e-20
2.0020721e-18
9.0465986e-18
8.1014053e-18
8.2486258e-19
4.6599732e-25
3.1220842e-27
9.152991e-29
1.4168708e-30
5.7909751e-33
7.7336117e-35
2.4121291e-36
1.1199301e-35
1.5115979e-35
1.5133885e-35
9.1659671e-36
2.7315224e-36
7.1723057e-37
2.8347501e-37
1.0857686e-37
2.845312e-38
4.9725458e-39
4.1274954e-40
7.663358e-42
6.224775e-44
5.9056839e-46
5.5386198e-48
4.8711426e-50
3.8806673e-52
2.7720042e-54
1.7546904e-56
9.4324143e-59
4.0487279e-61
1.7406798e-63
1.6243007e-61
2.8315463e-59
4.8484782e-57
6.9843727e-55
8.9454687e-53
1.0458037e-50
1.1522076e-48
1.2058308e-46
1.2204545e-44
1.3053129e-42
1.8094746e-40
1.3384209e-38
1.8790194e-37
1.0734077e-36
3.7770774e-36
9.0665445e-36
2.3350327e-35
9.6482745e-35
2.8442704e-34
3.7805511e-34
3.4667061e-34
2.7167884e-34
1.205768e-34
2.7706406e-32
1.7086892e-29
3.7529204e-27
5.1816273e-25
3.4744648e-24
2.5084623e-18
8.0420476e-17
1.2594192e-16
4.4357645e-17
1.5725452e-19
1.4162836e-09
4.4133822e-10
1.223161e-10
2.6496324e-09
1.8251807e-09
2.1879928e-11
7.3667955e-14
8.7392988e-14
3.3978341e-13
3.365737e-13
1.2445816e-13
1.4857804e-13
2.551391e-13
2.603078e-13
-1.7012295e-13
-5.3523937e-13
-2.7201878e-13
2.54229e-13
1.3092278e-13
1.7714996e-13
2.4736544e-13
2.421116e-13
1.3244311e-13
5.3162321e-14
2.0409302e-14
1.1621687e-13
2.4463216e-14
4.3251852e-14
1.3267658e-11
1.4504551e-09
7.4270451e-10
1.3805503e-11
9.8309094e-12
1.1034174e-10
2.0066821e-18
1.3025131e-16
2.2389735e-16
6.3677362e-17
2.9147325e-21
2.3269712e-23
4.6690816e-25
7.2552616e-28
1.8044609e-30
7.490451e-33
1.6720307e-34
7.0302791e-34
8.9111708e-34
8.9983068e-34
5.5921802e-34
1.745942e-34
4.4396879e-35
1.654563e-35
6.3750901e-36
1.7095505e-36
3.0853758e-37
2.6563861e-38
4.8485063e-40
3.7423166e-42
3.4226478e-44
3.1234557e-46
2.6848278e-48
2.095565e-50
1.4692789e-52
9.1425758e-55
4.8337366e-57
2.0405925e-59
8.4968004e-62
7.8327547e-60
1.401587e-57
2.4220084e-55
3.5279249e-53
4.577006e-51
5.4319224e-49
6.0900565e-47
6.507417e-45
6.7587519e-43
7.4847264e-41
1.0936998e-38
8.3026356e-37
1.1313736e-35
6.2119965e-35
2.125561e-34
5.0792655e-34
1.3998218e-33
5.88809e-33
1.6504442e-32
2.1638327e-32
1.979731e-32
1.7549179e-32
8.8420257e-32
9.5751276e-30
1.2475564e-27
2.1270391e-25
5.3747406e-23
3.9439579e-20
5.1294027e-16
4.4494216e-15
3.7038716e-15
6.6434119e-16
6.4396761e-19
8.0821614e-08
5.741929e-08
1.2615347e-08
5.9745719e-08
1.1964451e-07
1.2628315e-08
4.1134123e-12
2.7742001e-13
3.0542689e-13
2.7286193e-13
1.8092063e-13
4.1272202e-15
-4.2798443e-34
-2.0857972e-13
-1.9372752e-12
-4.1553955e-12
-1.6693402e-12
-1.7076786e-14
-1.1999076e-12
-5.4152359e-13
2.3353592e-14
2.0606548e-14
-9.6991842e-14
-1.0945319e-23
7.6376766e-13
1.1556811e-13
1.3529294e-13
3.7902874e-11
1.6950743e-08
6.1475259e-08
1.1200352e-07
6.2677975e-07
1.3655153e-10
1.2437951e-09
2.03989e-17
5.5855714e-16
1.2065458e-15
1.0287214e-15
7.8441529e-17
2.302132e-21
4.1350479e-23
9.1970896e-27
2.9589126e-28
8.0129788e-31
2.2028562e-32
4.0673818e-32
4.7957051e-32
4.8810896e-32
3.1299199e-32
1.0281501e-32
2.5520488e-33
8.9425475e-34
3.4654987e-34
9.5167777e-35
1.7767685e-35
1.5827963e-36
2.852271e-38
2.1008206e-40
1.8580768e-42
1.653989e-44
1.3922431e-46
1.0663041e-48
7.3469449e-51
4.4978274e-53
2.3401921e-55
9.7186439e-58
3.9175592e-60
3.5801336e-58
6.5745735e-56
1.1456395e-53
1.6858053e-51
2.212971e-49
2.6627569e-47
3.0336897e-45
3.3042136e-43
3.5144352e-41
4.0194484e-39