/*--------------------------------*- C++ -*----------------------------------*\
  =========                 |
  \\      /  F ield         | OpenFOAM: The Open Source CFD Toolbox
   \\    /   O peration     | Website:  https://openfoam.org
    \\  /    A nd           | Version:  9
     \\/     M anipulation  |
\*---------------------------------------------------------------------------*/
FoamFile
{
    format      ascii;
    class       volScalarField;
    location    "0.28";
    object      p_rgh;
}
// * * * * * * * * * * * * * * * * * * * * * * * * * * * * * * * * * * * * * //

dimensions      [1 -1 -2 0 0 0 0];

internalField   nonuniform List<scalar> 
10000
(
0
-0.014704655
-0.025500153
-0.041521486
-0.061331433
-0.08444513
-0.11091598
-0.14087048
-0.17437728
-0.21133
-0.25178059
-0.29568787
-0.34288488
-0.39332096
-0.44681876
-0.50307084
-0.56183107
-0.62274677
-0.68531692
-0.74906715
-0.81348538
-0.87792467
-0.94169808
-1.0039965
-1.063627
-1.1195607
-1.1708098
-1.2165001
-1.2561783
-1.2903988
-1.321299
-1.3485744
-1.3676428
-1.3790203
-1.3832992
-1.3811167
-1.3731643
-1.3602792
-1.3435337
-1.3241586
-1.3034673
-1.2828529
-1.2637412
-1.2475355
-1.2355678
-1.2290476
-1.2290401
-1.2364235
-1.2518825
-1.2759009
-1.3086707
-1.3502426
-1.4002104
-1.4579318
-1.5225311
-1.5928962
-1.6677308
-1.7455393
-1.8246706
-1.9033792
-1.979862
-2.0524458
-2.119452
-2.1793241
-2.2307124
-2.2725282
-2.3039431
-2.3243526
-2.3331741
-2.3300001
-2.3142505
-2.294665
-2.265647
-2.2266123
-2.1779766
-2.1207927
-2.056383
-1.9861226
-1.9115794
-1.8339795
-1.7543966
-1.6737879
-1.593088
-1.5131604
-1.4347679
-1.358603
-1.2852639
-1.2152417
-1.1489697
-1.0867714
-1.028917
-0.97566385
-0.92723562
-0.88374184
-0.84533151
-0.81194723
-0.78365465
-0.7609992
-0.74555445
-0.72833652
0.0092322906
-0.0052127287
-0.015998936
-0.032046516
-0.051885647
-0.074988703
-0.10148218
-0.13157107
-0.16515999
-0.20232104
-0.2430836
-0.28730127
-0.33498216
-0.38604045
-0.44021382
-0.49732433
-0.55712035
-0.61915794
-0.68300881
-0.74823253
-0.81421103
-0.88024797
-0.94564778
-1.0095675
-1.0709815
-1.1289688
-1.1828133
-1.2318955
-1.2756984
-1.3137355
-1.3446568
-1.3703963
-1.3890566
-1.4003112
-1.4043724
-1.4017044
-1.3929903
-1.379143
-1.361285
-1.3406702
-1.3186447
-1.2966466
-1.2761542
-1.2586357
-1.2454764
-1.2379164
-1.2370673
-1.2438603
-1.2589964
-1.2829602
-1.3158229
-1.3577148
-1.4081929
-1.4666716
-1.5322846
-1.6038932
-1.6801559
-1.759519
-1.8402859
-1.9206983
-1.9989134
-2.0731633
-2.1417334
-2.2030077
-2.2555906
-2.2983493
-2.3303416
-2.3510278
-2.3601091
-2.3578122
-2.345552
-2.3207752
-2.2866127
-2.2433469
-2.1914554
-2.1316839
-2.0650266
-1.9927333
-1.9161441
-1.836482
-1.7548836
-1.6723804
-1.5899556
-1.5084885
-1.4287283
-1.3513548
-1.2769777
-1.2060687
-1.1390438
-1.076227
-1.0178835
-0.96423561
-0.91551528
-0.87182205
-0.83325663
-0.79975318
-0.77135001
-0.74863659
-0.73318944
-0.71588167
0.016389865
0.0019790128
-0.008729238
-0.024807429
-0.044601895
-0.067644063
-0.094173499
-0.12421908
-0.15786886
-0.19519887
-0.23611471
-0.28065116
-0.32880709
-0.380396
-0.43528946
-0.49333635
-0.55419589
-0.61749772
-0.68288349
-0.74982716
-0.81767262
-0.88576428
-0.95336179
-1.0195643
-1.0834028
-1.1439741
-1.2004102
-1.2518711
-1.2975929
-1.3366353
-1.3690996
-1.3948952
-1.4132515
-1.4238725
-1.4268566
-1.4226291
-1.4119117
-1.3956777
-1.3751067
-1.351522
-1.3263584
-1.3011647
-1.2775316
-1.2570101
-1.2410738
-1.231059
-1.2281556
-1.2333718
-1.2474594
-1.2709223
-1.3039398
-1.346525
-1.3983134
-1.4586655
-1.5266783
-1.601157
-1.6806858
-1.7636141
-1.8481777
-1.9324779
-2.0146264
-2.0926822
-2.1647989
-2.2292929
-2.284631
-2.3295779
-2.3631658
-2.3848015
-2.3942126
-2.39161
-2.3774977
-2.3520571
-2.3155957
-2.2693349
-2.2141614
-2.1510806
-2.0812349
-2.0058843
-1.9263435
-1.8438606
-1.7596057
-1.6746442
-1.5899804
-1.5065149
-1.4250001
-1.3460866
-1.2703755
-1.1983245
-1.1303437
-1.0667613
-1.0078307
-0.95375391
-0.90465163
-0.86067315
-0.8218948
-0.78825869
-0.75974915
-0.73689543
-0.72147064
-0.70405392
0.027927007
0.013571791
0.0029716323
-0.012990671
-0.032645292
-0.055625903
-0.082005718
-0.11197285
-0.14565897
-0.18301327
-0.22410141
-0.26899938
-0.31760227
-0.36983177
-0.42563215
-0.48478555
-0.54700669
-0.61202134
-0.67941106
-0.74859818
-0.81897622
-0.88987974
-0.96048873
-1.0298652
-1.0970506
-1.1610507
-1.2208427
-1.2754591
-1.3240688
-1.3662267
-1.4009737
-1.4278168
-1.4464021
-1.4565552
-1.4583688
-1.4522787
-1.4390631
-1.4197588
-1.3956126
-1.3680525
-1.3386531
-1.3091074
-1.281142
-1.2564293
-1.2365758
-1.2230667
-1.2172191
-1.2201512
-1.2327115
-1.2554786
-1.2886961
-1.3323418
-1.386059
-1.4491565
-1.5206662
-1.5992982
-1.6835359
-1.7715525
-1.8614888
-1.951252
-2.038805
-2.1220523
-2.1989467
-2.2676389
-2.3265157
-2.3741573
-2.409574
-2.4321088
-2.4414257
-2.437668
-2.4211467
-2.3921742
-2.3523529
-2.3021652
-2.2426929
-2.175177
-2.1009154
-2.0212484
-1.937546
-1.8511083
-1.7631525
-1.6747998
-1.5870768
-1.5008667
-1.4169429
-1.3359699
-1.2585135
-1.1850043
-1.1158236
-1.0512961
-0.99159985
-0.93696419
-0.88743192
-0.84313836
-0.80413158
-0.77036943
-0.74181342
-0.71886962
-0.70339248
-0.6859498
0.041533224
0.027145148
0.016696962
0.00088390073
-0.018681192
-0.04145816
-0.067668301
-0.09756559
-0.13115742
-0.16853368
-0.20983903
-0.25505418
-0.30415946
-0.35718329
-0.41402383
-0.47449963
-0.53844409
-0.60557215
-0.67541426
-0.74743627
-0.82105712
-0.89554599
-0.97002579
-1.0435465
-1.11508
-1.1834993
-1.2476588
-1.3064891
-1.3590131
-1.404269
-1.4412897
-1.4695463
-1.4885815
-1.4981843
-1.4984617
-1.4898949
-1.4733445
-1.4499535
-1.4210806
-1.3883089
-1.3534046
-1.318234
-1.2846854
-1.2545982
-1.2297429
-1.211772
-1.2021593
-1.202168
-1.212773
-1.2346472
-1.2681087
-1.3131354
-1.3693459
-1.4359897
-1.5120185
-1.5960007
-1.6863035
-1.7809228
-1.877821
-1.9747396
-2.0693833
-2.1594269
-2.2426434
-2.316902
-2.3804556
-2.4316975
-2.4694942
-2.493136
-2.5022811
-2.4970486
-2.4779189
-2.4455931
-2.4010524
-2.3456161
-2.2805435
-2.2072388
-2.1271866
-2.0418648
-1.9527286
-1.8611529
-1.7684309
-1.675742
-1.5841157
-1.4944356
-1.4074808
-1.3239206
-1.2442737
-1.1689541
-1.098276
-1.0325562
-0.97193454
-0.91658094
-0.86653851
-0.82186879
-0.7825772
-0.74859947
-0.71993937
-0.69694826
-0.68143565
-0.66388088
0.057327019
0.042959376
0.032698489
0.017002271
-0.0022985826
-0.024799631
-0.050799974
-0.080436082
-0.11384079
-0.15120669
-0.19259772
-0.23806228
-0.28770692
-0.3415396
-0.39948797
-0.4615041
-0.52745407
-0.59701329
-0.66975567
-0.74520321
-0.82273886
-0.90157906
-0.98083352
-1.0595001
-1.1364186
-1.2103174
-1.2799152
-1.3439522
-1.4011782
-1.4503889
-1.4905094
-1.5207388
-1.5405027
-1.5495236
-1.5479191
-1.5362246
-1.5153952
-1.486715
-1.4517248
-1.412229
-1.3702331
-1.3278205
-1.2870902
-1.2501069
-1.2188602
-1.1952139
-1.1808379
-1.1771707
-1.1853367
-1.2061101
-1.2398564
-1.286556
-1.3458473
-1.4169214
-1.4986273
-1.5893845
-1.6873728
-1.7904457
-1.8962728
-2.0023709
-2.1061639
-2.2050024
-2.2963815
-2.3778873
-2.4474408
-2.5032685
-2.5440563
-2.5689729
-2.577741
-2.5705319
-2.5479274
-2.5109022
-2.4607233
-2.398827
-2.326787
-2.2462813
-2.1590137
-2.0666346
-1.9707425
-1.872833
-1.7742594
-1.6762448
-1.5798531
-1.4860062
-1.3954466
-1.3088148
-1.2265896
-1.1491545
-1.0767916
-1.0097213
-0.94808247
-0.89195833
-0.84136292
-0.79631179
-0.75680352
-0.72269113
-0.6938734
-0.67078652
-0.65526708
-0.63765122
0.075226263
0.060893811
0.050785946
0.035381242
0.016419076
-0.0057535544
-0.031331333
-0.060571807
-0.093718592
-0.13089607
-0.17222687
-0.21789711
-0.26801513
-0.32261552
-0.38177061
-0.44550535
-0.51366795
-0.58598108
-0.66210247
-0.74155809
-0.82369807
-0.90774123
-0.99277294
-1.0776803
-1.1611565
-1.2417895
-1.3181185
-1.3886301
-1.4517815
-1.5060898
-1.5501416
-1.5829559
-1.6037685
-1.6122002
-1.6083529
-1.5928082
-1.5666331
-1.5313126
-1.4886498
-1.4407281
-1.3898341
-1.3383275
-1.2885778
-1.242927
-1.2036367
-1.1728302
-1.1524247
-1.1440791
-1.1491091
-1.1684238
-1.202465
-1.2512341
-1.3143607
-1.3909644
-1.4797344
-1.5789581
-1.6865429
-1.8001582
-1.9171576
-2.0347454
-2.1499867
-2.2599148
-2.3615629
-2.4521966
-2.5292984
-2.5908068
-2.6352425
-2.6616644
-2.6697731
-2.6598973
-2.6328654
-2.5898982
-2.5325403
-2.4625803
-2.3819374
-2.2925708
-2.19645
-2.0954716
-1.9913905
-1.8858367
-1.7802618
-1.6759389
-1.5739345
-1.4751994
-1.3804604
-1.2902983
-1.2051739
-1.1253614
-1.0511453
-0.98262167
-0.91987372
-0.86293107
-0.81176285
-0.76635634
-0.72663366
-0.69244026
-0.66357301
-0.64042711
-0.62488691
-0.60721367
0.095080917
0.080745611
0.070969458
0.055916231
0.037354185
0.015742719
-0.0092486264
-0.037987711
-0.070654899
-0.10743004
-0.14857866
-0.19430501
-0.24474459
-0.30008371
-0.36050103
-0.42603026
-0.49657704
-0.57197467
-0.65192728
-0.73595802
-0.82344515
-0.91362511
-1.0055138
-1.0978701
-1.1892554
-1.2780919
-1.3626695
-1.4411674
-1.5117305
-1.5725409
-1.6215827
-1.6578011
-1.680132
-1.688027
-1.6815329
-1.6612896
-1.6285293
-1.58502
-1.5329116
-1.4746368
-1.4128217
-1.3501692
-1.2893776
-1.2331074
-1.183936
-1.1442931
-1.1164042
-1.1022107
-1.1032766
-1.1206903
-1.1550079
-1.2062768
-1.274071
-1.3574318
-1.4548208
-1.5643447
-1.6836174
-1.8100418
-1.9406577
-2.0723329
-2.2016611
-2.3252556
-2.439618
-2.5415132
-2.6279773
-2.6965094
-2.7453291
-2.77342
-2.7805235
-2.76713
-2.7343698
-2.6838579
-2.6175208
-2.537584
-2.4463832
-2.3462538
-2.2394648
-2.1281766
-2.0143415
-1.8997423
-1.7859321
-1.6742473
-1.5657782
-1.4614424
-1.3619638
-1.2678342
-1.179496
-1.0971242
-1.0209108
-0.95088118
-0.88704231
-0.82934282
-0.77768839
-0.73197375
-0.69209614
-0.65784096
-0.62897697
-0.60588567
-0.59042322
-0.57268847
0.11667483
0.10248332
0.093070751
0.078434689
0.060516405
0.039641906
0.015369963
-0.012607884
-0.044526504
-0.080708781
-0.12144652
-0.16697278
-0.21757825
-0.27357944
-0.33519035
-0.40251759
-0.4756027
-0.55436641
-0.63854787
-0.72773267
-0.82136459
-0.91866583
-1.0185676
-1.1197292
-1.220581
-1.3193262
-1.4139467
-1.5022697
-1.5820764
-1.651247
-1.7066163
-1.7473327
-1.7718394
-1.7793216
-1.7697202
-1.7437632
-1.7029414
-1.6494049
-1.5857489
-1.5148567
-1.4397814
-1.3636377
-1.2895057
-1.2203976
-1.1592455
-1.1088427
-1.0718003
-1.0504189
-1.0465679
-1.0615766
-1.0961275
-1.1503403
-1.2237024
-1.3151389
-1.4228541
-1.5446831
-1.6779595
-1.8197467
-1.9667519
-2.1154345
-2.2619317
-2.4022481
-2.532287
-2.6480835
-2.7460612
-2.8231645
-2.8772321
-2.9071114
-2.9126363
-2.8945736
-2.8544623
-2.7943398
-2.7168249
-2.6246175
-2.5205446
-2.4073979
-2.2878098
-2.164253
-2.0389357
-1.9137959
-1.7904766
-1.6703498
-1.5545664
-1.4439784
-1.3392509
-1.2408046
-1.1489814
-1.0639164
-0.98565164
-0.91414931
-0.84927921
-0.79092207
-0.73885502
-0.69300201
-0.65307552
-0.61888292
-0.5901332
-0.56714585
-0.55181503
-0.53407922
0.13989588
0.12584501
0.1168641
0.10288913
0.085782463
0.06579422
0.042531789
0.015623779
-0.015300514
-0.050590333
-0.090566856
-0.13561854
-0.1861822
-0.2426301
-0.30526361
-0.37434871
-0.45005327
-0.53237159
-0.62114317
-0.71607328
-0.81665861
-0.92209655
-1.0312713
-1.1427725
-1.2548755
-1.365517
-1.4723278
-1.572707
-1.6638986
-1.7431014
-1.807198
-1.8540314
-1.8816687
-1.8889703
-1.8757383
-1.8428415
-1.7921614
-1.7263766
-1.6486754
-1.5625215
-1.4714885
-1.3791575
-1.2890328
-1.2045068
-1.128911
-1.0654752
-1.017282
-0.98709051
-0.97715446
-0.98913231
-1.023858
-1.0815181
-1.1614841
-1.2624854
-1.3824673
-1.518894
-1.668796
-1.8288395
-1.9954069
-2.1644853
-2.331726
-2.4924147
-2.6416607
-2.7745935
-2.8867302
-2.9742679
-3.0345525
-3.0662495
-3.0693526
-3.0450466
-2.9954251
-2.9232454
-2.8318009
-2.7245086
-2.6047922
-2.4759901
-2.3411864
-2.2031906
-2.0644889
-1.9271719
-1.793009
-1.6633693
-1.5393921
-1.4219126
-1.3114744
-1.2084495
-1.1130184
-1.0251982
-0.94492286
-0.87202485
-0.80624469
-0.74739636
-0.6951133
-0.64927467
-0.60951548
-0.57553827
-0.54702744
-0.52429524
-0.50918735
-0.49148774
0.16442524
0.15056729
0.14224821
0.12906862
0.11292772
0.094136958
0.072213451
0.046658284
0.017085677
-0.01688307
-0.055722259
-0.099969226
-0.15013088
-0.20668196
-0.27009997
-0.34080675
-0.41908053
-0.50505501
-0.59874224
-0.69997073
-0.80828662
-0.92291383
-1.0427471
-1.1663109
-1.2917001
-1.4165673
-1.5381616
-1.653373
-1.7587651
-1.8506084
-1.9260208
-1.9810125
-2.0130897
-2.0206013
-2.0031362
-1.9617865
-1.8990189
-1.8182754
-1.7235333
-1.6190021
-1.5088973
-1.3973028
-1.2881481
-1.1852187
-1.09229
-1.0131212
-0.95136438
-0.9103687
-0.89289828
-0.90104754
-0.93585068
-0.99754214
-1.0853671
-1.1977192
-1.3322108
-1.4858671
-1.6553344
-1.8368848
-2.0265451
-2.2199032
-2.412046
-2.5974829
-2.7702535
-2.9243296
-3.0539615
-3.1542639
-3.2218801
-3.2552736
-3.2547072
-3.2220295
-3.1601523
-3.0727175
-2.9639209
-2.8380985
-2.6994366
-2.5518998
-2.3990923
-2.2441878
-2.0899857
-1.9387356
-1.7923004
-1.6520768
-1.5190973
-1.394172
-1.2777005
-1.1699276
-1.0708689
-0.98031614
-0.89814793
-0.82401694
-0.75764371
-0.69851568
-0.64627026
-0.60066484
-0.5613117
-0.52780348
-0.49967739
-0.47727004
-0.46252306
-0.44496854
0.18996964
0.1764928
0.16891871
0.15668168
0.14182121
0.12455519
0.10427049
0.080465302
0.052729572
0.020536803
-0.016731436
-0.059685358
-0.10894053
-0.16516239
-0.22900746
-0.30103412
-0.38169219
-0.47133754
-0.57017424
-0.67815784
-0.79494338
-0.91986175
-1.0518543
-1.1893793
-1.3303599
-1.4721778
-1.611673
-1.745154
-1.8684401
-1.9769738
-2.066464
-2.1321732
-2.1704618
-2.1787719
-2.1563651
-2.1046436
-2.0269513
-1.9278636
-1.812467
-1.6859075
-1.5531414
-1.4187776
-1.2871432
-1.1624011
-1.0487753
-0.95063143
-0.87235085
-0.81808239
-0.79128281
-0.79460313
-0.82937009
-0.89580579
-0.99299532
-1.1188924
-1.2705541
-1.4444568
-1.636735
-1.8433412
-2.0599968
-2.2819985
-2.5039047
-2.7193712
-2.9211189
-3.1014539
-3.2528219
-3.3687935
-3.445017
-3.4797224
-3.4736851
-3.4297138
-3.3519247
-3.2450323
-3.114628
-2.9661028
-2.8045604
-2.6346888
-2.4607055
-2.2861809
-2.1141795
-1.947142
-1.7869649
-1.6350844
-1.4924035
-1.3595576
-1.2368054
-1.1241959
-1.0215737
-0.92854429
-0.84476772
-0.76970214
-0.70296156
-0.64395424
-0.59214343
-0.54710354
-0.50841769
-0.47562918
-0.44818355
-0.42630912
-0.41203639
-0.39470041
0.21627985
0.20322811
0.19652369
0.1855333
0.17225303
0.15680186
0.1385702
0.11703005
0.091634395
0.061728949
0.026627098
-0.014393278
-0.062139572
-0.11746456
-0.18118274
-0.2540497
-0.33677274
-0.42995804
-0.53401301
-0.64908713
-0.77504136
-0.91137323
-1.057096
-1.2106394
-1.3698047
-1.5317285
-1.6928176
-1.8487203
-1.9943824
-2.1241449
-2.2320684
-2.3122554
-2.3592484
-2.3692976
-2.3410887
-2.2764516
-2.1801068
-2.0583956
-1.9179716
-1.7651165
-1.6055754
-1.4444845
-1.2865009
-1.1360668
-0.99780751
-0.87676378
-0.77826355
-0.7075885
-0.66920759
-0.66645658
-0.70107093
-0.77324475
-0.88172362
-1.0238499
-1.1958496
-1.3934361
-1.6121441
-1.8476157
-2.0955112
-2.3510314
-2.6083698
-2.8602127
-3.0977077
-3.3109004
-3.4896094
-3.6250034
-3.7112755
-3.7464802
-3.7322997
-3.6730039
-3.5744477
-3.4428046
-3.2855002
-3.1091898
-2.9200604
-2.7236426
-2.5248152
-2.3276315
-2.1353672
-1.9506285
-1.7752871
-1.6107089
-1.4576913
-1.316599
-1.1874763
-1.0701427
-0.96419308
-0.86908136
-0.78406844
-0.70860666
-0.6419846
-0.58353478
-0.53258151
-0.48853833
-0.45093144
-0.41915653
-0.392583
-0.37145344
-0.35781392
-0.34083716
0.24289863
0.23037993
0.22480431
0.21530459
0.20387004
0.19064221
0.17497464
0.15621626
0.13371685
0.10676815
0.07457748
0.03623457
-0.0092548219
-0.062902722
-0.12573198
-0.19878346
-0.28305808
-0.37942436
-0.48856083
-0.61092118
-0.74665395
-0.89546988
-1.0565158
-1.2282824
-1.4085238
-1.5941597
-1.7811618
-1.964477
-2.1380493
-2.2948784
-2.4272216
-2.5269186
-2.5863005
-2.5997142
-2.5646373
-2.4835368
-2.3635277
-2.213764
-2.0430138
-1.8588795
-1.6679105
-1.4757147
-1.287114
-1.1065757
-0.93898109
-0.79017225
-0.66678297
-0.57564852
-0.52274877
-0.51240998
-0.54680959
-0.62610159
-0.74847495
-0.91030247
-1.1065929
-1.3318583
-1.5809033
-1.849202
-2.1327247
-2.4269973
-2.7261706
-3.0221094
-3.3040423
-3.5588426
-3.772394
-3.932127
-4.0300508
-4.0642038
-4.037905
-3.9576295
-3.8319384
-3.6686713
-3.4778865
-3.2676533
-3.0453888
-2.8175997
-2.5898172
-2.3666044
-2.1514368
-1.9469835
-1.7550851
-1.5768951
-1.4130036
-1.2635289
-1.1282101
-1.0064981
-0.89765877
-0.80095782
-0.71541228
-0.64017076
-0.57430473
-0.51699097
-0.46743549
-0.42487501
-0.38873381
-0.35839031
-0.33308931
-0.31298215
-0.30012144
-0.28361905
0.26938658
0.25761524
0.25333305
0.24553833
0.23633344
0.22581048
0.21320167
0.19779004
0.17889357
0.15570602
0.1272635
0.092487005
0.050227514
-0.0007368745
-0.061717061
-0.13406852
-0.21909809
-0.31800437
-0.43185058
-0.56149088
-0.70742838
-0.86966882
-1.0476102
-1.239926
-1.4444097
-1.6578164
-1.8757256
-2.0924066
-2.3007213
-2.4921156
-2.6566733
-2.7830918
-2.860603
-2.8799676
-2.8365249
-2.7337801
-2.5832085
-2.3985222
-2.1911675
-1.9700293
-1.7424123
-1.514296
-1.2903777
-1.0747424
-0.87221034
-0.6894778
-0.53509457
-0.41820688
-0.34694409
-0.3270953
-0.36140358
-0.44985312
-0.58972522
-0.77588516
-1.0014708
-1.2592078
-1.5427926
-1.8478149
-2.1712028
-2.5096371
-2.8578228
-3.2071211
-3.5445849
-3.8527904
-4.1115646
-4.3022812
-4.4135538
-4.443836
-4.399316
-4.2901484
-4.1281648
-3.9252496
-3.6929664
-3.4414132
-3.1794838
-2.9147655
-2.6534304
-2.4004879
-2.1596518
-1.9334964
-1.7237219
-1.5312106
-1.3562034
-1.1984596
-1.0573017
-0.93178892
-0.82089214
-0.72337318
-0.63809261
-0.56385627
-0.49959135
-0.44418197
-0.3966552
-0.35622266
-0.32210127
-0.29355551
-0.26985779
-0.25106146
-0.23921057
-0.2233298
0.29530145
0.28438178
0.28155739
0.27580552
0.26924881
0.26187419
0.25286824
0.24150795
0.22703173
0.2084838
0.18476085
0.15465486
0.11682204
0.069756735
0.011834573
-0.058614732
-0.14326144
-0.24374806
-0.36162571
-0.49822591
-0.65450555
-0.8309104
-1.0272437
-1.2424889
-1.47459
-1.7202524
-1.9747741
-2.2318345
-2.4832252
-2.7186733
-2.9255405
-3.0892307
-3.1935687
-3.2235908
-3.1700375
-3.0378497
-2.846768
-2.6183362
-2.3670115
-2.10238
-1.832275
-1.5630288
-1.2987611
-1.0423664
-0.79804787
-0.57345984
-0.3799492
-0.23022805
-0.13554795
-0.10375731
-0.13836039
-0.23899899
-0.40156764
-0.6186142
-0.88018639
-1.1761905
-1.4987375
-1.8439216
-2.2107988
-2.5984295
-3.003155
-3.4167328
-3.8241903
-4.2022744
-4.5212466
-4.7520993
-4.8782135
-4.8994109
-4.8273676
-4.678274
-4.4686524
-4.2153327
-3.9315915
-3.6298416
-3.3205807
-3.0125373
-2.7125768
-2.4259623
-2.1565398
-1.9067638
-1.6780421
-1.4708051
-1.2847498
-1.1191818
-0.97294097
-0.84458925
-0.732602
-0.63540592
-0.55148934
-0.47930398
-0.41754549
-0.36492676
-0.32023377
-0.28255551
-0.25105862
-0.2248789
-0.20322014
-0.18605734
-0.17544631
-0.160341
0.31998997
0.31004612
0.30895446
0.30558006
0.3020406
0.29830817
0.2935717
0.28704653
0.27785465
0.26494114
0.24710775
0.22298086
0.19096309
0.14925878
0.095938954
0.028971481
-0.053777003
-0.15449214
-0.2752948
-0.41809915
-0.58447523
-0.77549506
-0.99153511
-1.2320366
-1.4952563
-1.7780366
-2.0755746
-2.3811203
-2.6855495
-2.9768801
-3.2398723
-3.4551786
-3.5997986
-3.6494871
-3.5840773
-3.4100469
-3.1635015
-2.8806105
-2.5774369
-2.2619173
-1.9423226
-1.6259871
-1.3159071
-1.0124407
-0.71790554
-0.44086853
-0.19700312
-0.0046891066
0.12016849
0.16687869
0.13099708
0.013515774
-0.17935603
-0.43659572
-0.74354433
-1.0853006
-1.4513735
-1.8391747
-2.2519508
-2.6930761
-3.1619711
-3.6522952
-4.1485034
-4.6201004
-5.021558
-5.3047739
-5.4461877
-5.448811
-5.3354374
-5.1309723
-4.8591854
-4.5414317
-4.1939668
-3.8314841
-3.4660561
-3.1074422
-2.7631948
-2.4387686
-2.1379031
-1.862783
-1.6142748
-1.3922191
-1.1956823
-1.0232655
-0.87308092
-0.74323092
-0.63156264
-0.53613023
-0.45488691
-0.38603999
-0.32794995
-0.27913107
-0.23826644
-0.20419627
-0.17597428
-0.15270696
-0.13352307
-0.11833011
-0.10921662
-0.095095105
0.34274729
0.33399958
0.33486505
0.33414618
0.33405435
0.33456174
0.33479911
0.33390713
0.33095634
0.32483992
0.31423467
0.29755744
0.27296764
0.23840832
0.19161914
0.13012046
0.051231704
-0.047845521
-0.16990543
-0.3176107
-0.4933446
-0.69900289
-0.93572611
-1.2036219
-1.501494
-1.8265597
-2.1741399
-2.5373076
-2.9063828
-3.2681764
-3.6051142
-3.8927699
-4.0987595
-4.1822016
-4.1082718
-3.8715133
-3.5475211
-3.1974665
-2.8340787
-2.458566
-2.0800745
-1.7094142
-1.3477104
-0.99009318
-0.63453589
-0.29053652
0.019281505
0.26759398
0.43166868
0.49702686
0.45803135
0.31676917
0.082378186
-0.2289272
-0.59506409
-0.99280941
-1.4067986
-1.8376058
-2.2966055
-2.7944897
-3.3347191
-3.9148438
-4.5245805
-5.1252772
-5.6436459
-5.9932879
-6.1483365
-6.1153405
-5.9384044
-5.6575523
-5.3044964
-4.9051319
-4.4793153
-4.0437379
-3.6119909
-3.1947395
-2.8000492
-2.4335113
-2.0985003
-1.7966338
-1.5280355
-1.2916808
-1.0857481
-0.90793934
-0.75562958
-0.62610731
-0.51660366
-0.42465306
-0.34777306
-0.28379906
-0.23078593
-0.18696878
-0.15090188
-0.1213084
-0.097147514
-0.077439429
-0.061240674
-0.048387278
-0.041014214
-0.02805718
0.36286339
0.35546035
0.35845669
0.36073743
0.36460069
0.3699415
0.37584095
0.38144496
0.38582
0.38778249
0.38585805
0.37828374
0.36302266
0.33774965
0.29981612
0.24623503
0.17372713
0.078798647
-0.042170171
-0.19279326
-0.37648174
-0.59617824
-0.85404704
-1.1511568
-1.4871478
-1.8598641
-2.2650008
-2.6958088
-3.142635
-3.5921786
-4.0259751
-4.416247
-4.7236173
-4.8769113
-4.7924935
-4.4425879
-4.018666
-3.5989263
-3.1644614
-2.7117382
-2.2592156
-1.8239105
-1.4032949
-0.98380162
-0.55390341
-0.12251611
0.27602554
0.59925941
0.81426333
0.90213397
0.85670159
0.68196126
0.39011586
0.0042329931
-0.441359
-0.90927781
-1.3759318
-1.8479838
-2.3516665
-2.9092924
-3.5272848
-4.2101444
-4.9651671
-5.7478137
-6.4483062
-6.8786835
-7.0361517
-6.9301236
-6.6539234
-6.2672286
-5.8084157
-5.3070591
-4.7857505
-4.2627446
-3.7530046
-3.2681247
-2.8164666
-2.4034447
-2.0318888
-1.7024797
-1.4141694
-1.1647486
-0.9513213
-0.77036987
-0.61831017
-0.49148932
-0.38652341
-0.30020034
-0.22970162
-0.17239089
-0.1260061
-0.088621145
-0.058573779
-0.034437146
-0.015127702
0.00035953462
0.013061126
0.023201133
0.028570117
0.040173153
0.37945954
0.37351038
0.37888518
0.38455467
0.3928261
0.40354919
0.4158388
0.42888531
0.44173048
0.453108
0.46144283
0.46485401
0.46112192
0.44762491
0.42129993
0.37863835
0.31570882
0.22819859
0.11148587
-0.039199903
-0.2285357
-0.46081234
-0.7395855
-1.0672671
-1.4446654
-1.8705235
-2.3411723
-2.8504031
-3.3892135
-3.9459708
-4.5035211
-5.0340557
-5.5132464
-5.8269248
-5.6941146
-5.2135999
-4.6103751
-4.1326957
-3.6238273
-3.0546375
-2.4974268
-1.9816805
-1.4948165
-1.0034913
-0.47835008
0.070429642
0.58923431
1.0109241
1.2901888
1.4036804
1.3467391
1.1256085
0.75403052
0.26322816
-0.2938084
-0.85443692
-1.3771572
-1.882218
-2.4268377
-3.0499977
-3.7582702
-4.5538882
-5.4659681
-6.5177435
-7.4767594
-8.0588086
-8.1943449
-7.932605
-7.5002493
-6.9694184
-6.374871
-5.7473299
-5.1102105
-4.4830439
-3.8820208
-3.3194962
-2.8039538
-2.3403044
-1.9303571
-1.573365
-1.2666964
-1.0065589
-0.78841198
-0.60743226
-0.45877368
-0.33779579
-0.24027578
-0.16227357
-0.10048656
-0.05193278
-0.013989522
0.015484933
0.03826892
0.055863647
0.069455932
0.08004714
0.088712898
0.095736226
0.098845706
0.1088889
0.39156702
0.38726216
0.39526039
0.4046187
0.41769273
0.43436099
0.45380313
0.47523628
0.49768806
0.51987649
0.54019988
0.55669149
0.56694967
0.56806999
0.55659665
0.52849263
0.47910293
0.4031626
0.29488366
0.1481247
-0.043367375
-0.28564833
-0.58414481
-0.94308305
-1.3648685
-1.8495188
-2.3942632
-2.9936594
-3.6397622
-4.3247242
-5.0386156
-5.76883
-6.5944621
-7.3352481
-7.3918835
-6.6731634
-5.7118726
-5.0692697
-4.3972757
-3.5942697
-2.8500035
-2.2102365
-1.6475257
-1.078953
-0.43432744
0.27699754
0.96767473
1.5222035
1.8846842
2.0281335
1.9536061
1.6697242
1.1892721
0.54955326
-0.16827909
-0.85707145
-1.4450264
-1.9679419
-2.5545621
-3.2796851
-4.1367424
-5.0867186
-6.2422621
-7.7676641
-9.2353656
-9.8273986
-9.865144
-9.2023991
-8.5023832
-7.7761534
-7.0085447
-6.2258903
-5.4489243
-4.6977102
-3.9897859
-3.3383423
-2.7517458
-2.2337968
-1.7845576
-1.401216
-1.0788807
-0.81160842
-0.59284425
-0.41606951
-0.27491951
-0.16366718
-0.07706907
-0.010570127
0.039772407
0.077312722
0.10483795
0.12470147
0.13883708
0.14879651
0.1557798
0.16080331
0.16491195
0.16842252
0.16901309
0.17731078
0.39824561
0.39575716
0.40651541
0.41980195
0.4380761
0.46124082
0.48853396
0.51923053
0.55241932
0.5868789
0.62102535
0.65283644
0.67977749
0.69872725
0.70587871
0.69665037
0.66560574
0.60643592
0.51203526
0.37462727
0.18597088
-0.062282457
-0.37802861
-0.76794557
-1.2366834
-1.7860801
-2.4145738
-3.1175475
-3.8877614
-4.7227355
-5.6257073
-6.6183873
-7.9423237
-9.2204919
-9.5186808
-8.4053528
-6.8348577
-6.4250068
-5.5764655
-4.453353
-3.4101181
-2.5531989
-1.896276
-1.222798
-0.43725817
0.51329846
1.4647906
2.1765
2.6312568
2.80293
2.7020724
2.3399945
1.7166573
0.86362497
-0.10027795
-0.9773475
-1.6251234
-2.1260097
-2.7951779
-3.7378923
-4.8526026
-6.0203322
-7.4830448
-9.2984639
-11.787952
-13.074293
-12.348344
-10.854102
-9.697657
-8.7047281
-7.7175939
-6.7439754
-5.7974203
-4.8976799
-4.0643989
-3.3114084
-2.6463772
-2.0712485
-1.5833287
-1.1765663
-0.84308864
-0.57400543
-0.36027927
-0.19321382
-0.064811735
0.032014165
0.10349657
0.15490582
0.19067608
0.21455372
0.22955685
0.2381163
0.24218576
0.24337258
0.24286712
0.24164569
0.24068779
0.2403066
0.2381377
0.24450842
0.39848125
0.3978773
0.41148731
0.42893739
0.45275696
0.48286003
0.51859023
0.55936197
0.60439676
0.65258052
0.70239725
0.75185113
0.79837828
0.83872587
0.86878752
0.88345386
0.87650703
0.84055527
0.76701534
0.64614792
0.46723489
0.21900387
-0.10970509
-0.5289888
-1.0467866
-1.6675613
-2.3913694
-3.2141144
-4.127746
-5.1347211
-6.2414941
-7.5052115
-9.2534431
-10.894088
-11.046418
-6.6816781
-4.35313
-6.2135854
-6.5772887
-5.4596039
-4.173845
-3.0902634
-2.4039303
-1.6273526
-0.55674622
1.1896392
2.094098
2.9626907
3.5402255
3.7393258
3.6035566
3.1653579
2.3778939
1.225049
-0.12572614
-1.3095602
-2.0574775
-2.4757426
-3.2419533
-4.5043003
-5.9346341
-7.2282541
-7.9851344
-11.529799
-15.275881
-16.586453
-15.097299
-12.783353
-11.089843
-9.7764686
-8.5169286
-7.3062623
-6.1512371
-5.0716162
-4.0902589
-3.2213812
-2.4708788
-1.8372115
-1.3133261
-0.88865844
-0.55097112
-0.28764037
-0.086474259
0.063799
0.17301288
0.24975847
0.30124591
0.33348358
0.351355
0.35877852
0.35896446
0.35441695
0.3470455
0.33837662
0.32955712
0.32146748
0.31498291
0.31037246
0.30523892
0.30953433
0.39114354
0.39247531
0.40901177
0.43078157
0.46035305
0.49769667
0.54234423
0.5939071
0.65178392
0.71503087
0.78229953
0.85174872
0.92091077
0.98650245
1.0442133
1.0885093
1.112468
1.1076057
1.0637057
0.96873666
0.80898395
0.56947474
0.23466834
-0.2104091
-0.77864158
-1.4786104
-2.3131188
-3.2773441
-4.3603528
-5.5625047
-6.8793124
-8.3964417
-10.403379
-11.964712
-12.346824
-7.8200267
-6.6163468
-6.5548226
-7.4547929
-6.438446
-5.0013512
-3.8316797
-3.193071
-2.1429778
-0.62960716
1.1663742
2.8242858
3.9336907
4.6110745
4.8065848
4.6277231
4.1579337
3.261164
1.7999759
0.1289752
-1.6661107
-2.7846543
-3.1177594
-3.950464
-5.5955004
-7.3447524
-7.996484
-8.9463844
-14.706904
-17.801851
-18.717249
-17.383103
-14.789977
-12.672503
-11.008776
-9.4275358
-7.9198738
-6.5041985
-5.2037634
-4.0461225
-3.0454884
-2.203516
-1.5126682
-0.9589745
-0.5253355
-0.19361303
0.053625728
0.2324612
0.3570145
0.43931019
0.48936161
0.51535629
0.52387997
0.52018198
0.50830825
0.49143419
0.47201845
0.45187696
0.43236048
0.41446555
0.3989448
0.38653184
0.37745983
0.36925252
0.37139139
0.3751058
0.37843175
0.39786226
0.42396229
0.45935036
0.50410633
0.55799802
0.62087159
0.69236686
0.77181653
0.85817561
0.94989936
1.0447567
1.1395876
1.230059
1.3104145
1.3731806
1.4088238
1.4054105
1.3483763
1.2204809
1.0020732
0.67172659
0.2075279
-0.41080922
-1.1988824
-2.1647995
-3.3032476
-4.5992273
-6.0418284
-7.6162267
-9.4221883
-11.787762
-13.858493
-14.433452
-13.198052
-8.4046731
-7.4734666
-8.8886757
-7.3381191
-5.5718282
-4.4082509
-3.8829054
-1.7824901
4.9766396
6.3635914
2.2169253
3.8369671
5.3526244
5.7048513
5.5283344
5.0897462
4.0388921
1.8305771
-0.67499972
-2.625796
-3.4954179
-3.7213859
-4.7613859
-6.8109027
-8.9228884
-9.3400995
-11.487676
-16.847584
-19.985942
-20.845306
-19.235324
-16.903007
-14.529191
-12.468818
-10.486903
-8.5949049
-6.8443371
-5.2695589
-3.9018445
-2.753084
-1.8166847
-1.0744636
-0.50216364
-0.073286267
0.23803103
0.45539898
0.59943571
0.68747163
0.73369464
0.74950651
0.74394553
0.72398653
0.69493977
0.66086937
0.62477002
0.58887526
0.55477649
0.52357481
0.49601652
0.47265243
0.45402817
0.44029578
0.42898587
0.4289315
0.34928177
0.35457265
0.37673562
0.40705262
0.44818135
0.50033229
0.5635421
0.63795299
0.72354497
0.82004889
0.92686472
1.0428991
1.1663408
1.2943888
1.422969
1.5463905
1.6568801
1.7440421
1.7943273
1.790534
1.7113789
1.5313909
1.2213685
0.74964724
0.084801984
-0.80095003
-1.9255037
-3.2876425
-4.8680427
-6.6380906
-8.5507648
-10.721001
-13.413287
-15.984554
-16.964098
-15.796781
-12.976377
-7.4042969
-10.552874
-7.7775715
-5.5213554
-4.1589213
-2.5039111
17.865728
15.085515
12.326108
5.2057994
1.6487271
4.8930917
5.7140849
5.6350688
5.0132151
3.4147446
-0.2626408
-2.9320891
-1.3931596
-3.1350496
-3.248416
-5.1095729
-7.7294369
-10.78621
-9.9702856
-14.126377
-18.60094
-22.171598
-23.509187
-22.12126
-19.610501
-16.908642
-14.311187
-11.766208
-9.3487147
-7.1538096
-5.2327279
-3.6153039
-2.30358
-1.275422
-0.49499607
0.077413967
0.48126736
0.75244836
0.92207646
1.0158357
1.0544672
1.0541873
1.0275021
0.98392411
0.93053371
0.87247972
0.81350298
0.75623834
0.70249281
0.65348271
0.60998507
0.57241305
0.54099523
0.51604285
0.49758128
0.48318137
0.48093174
0.31257329
0.31970269
0.34435333
0.37865163
0.42523686
0.48448639
0.5567648
0.64258244
0.74235825
0.85634158
0.98452529
1.1264526
1.280977
1.4459737
1.6179946
1.791802
1.9597379
2.1109891
2.2307706
2.2993563
2.2910466
2.1734426
1.9073879
1.4478622
0.74662723
-0.24432816
-1.5623862