/*--------------------------------*- C++ -*----------------------------------*\
  =========                 |
  \\      /  F ield         | OpenFOAM: The Open Source CFD Toolbox
   \\    /   O peration     | Website:  https://openfoam.org
    \\  /    A nd           | Version:  9
     \\/     M anipulation  |
\*---------------------------------------------------------------------------*/
FoamFile
{
    format      ascii;
    class       volScalarField;
    location    "7";
    object      Ma;
}
// * * * * * * * * * * * * * * * * * * * * * * * * * * * * * * * * * * * * * //

dimensions      [0 0 0 0 0 0 0];

internalField   nonuniform List<scalar> 
5250
(
2.99999
2.99997
2.99989
2.99974
2.99925
2.99838
2.99546
2.98986
2.97295
2.93639
2.83681
2.6004
2.06091
1.12394
0.469551
0.303323
0.332307
0.336361
0.304088
0.250969
0.200834
0.159789
0.119219
0.0743516
0.0408391
3
2.99997
2.9999
2.99973
2.99931
2.99828
2.99581
2.98934
2.97459
2.93501
2.84181
2.60307
2.07242
1.1383
0.477755
0.303773
0.333796
0.338667
0.306696
0.25441
0.205525
0.1659
0.127525
0.0878125
0.0638153
3
2.99997
2.9999
2.99974
2.99933
2.99833
2.99591
2.98969
2.97522
2.93697
2.84612
2.61415
2.09498
1.17095
0.496864
0.306454
0.338836
0.345781
0.314874
0.264748
0.218771
0.182537
0.149026
0.117613
0.101691
3
2.99997
2.9999
2.99976
2.99933
2.99847
2.99593
2.99053
2.97554
2.94112
2.85114
2.63248
2.12932
1.22295
0.526363
0.311012
0.347291
0.3576
0.328388
0.281358
0.239112
0.20715
0.179075
0.154529
0.143087
3
2.99997
2.99991
2.99977
2.99937
2.99858
2.99609
2.99137
2.97633
2.94597
2.85877
2.65615
2.17641
1.2959
0.566086
0.318401
0.359532
0.374089
0.346841
0.303466
0.265145
0.237541
0.214561
0.195451
0.186992
3
2.99997
2.99992
2.99977
2.99947
2.99855
2.99678
2.99112
2.98017
2.94699
2.87448
2.67976
2.23893
1.39239
0.616886
0.331225
0.376908
0.39589
0.37065
0.330976
0.296726
0.273426
0.255486
0.241434
0.236142
3
2.99998
2.99992
2.99981
2.99948
2.99882
2.99674
2.99286
2.98029
2.95539
2.8829
2.71602
2.30814
1.51386
0.67973
0.354809
0.402515
0.424651
0.400942
0.364838
0.334213
0.315279
0.3025
0.294291
0.293966
3
2.99998
2.99993
2.99983
2.99954
2.99895
2.99712
2.99365
2.98256
2.9606
2.89662
2.75037
2.38751
1.66035
0.755709
0.39526
0.440618
0.462095
0.439287
0.406399
0.378869
0.364039
0.357128
0.356584
0.366385
3
2.99998
2.99995
2.99984
2.99963
2.99896
2.99773
2.99372
2.98589
2.96271
2.9118
2.77534
2.45657
1.78219
0.829597
0.431492
0.475011
0.494634
0.478277
0.451408
0.429187
0.419677
0.420098
0.432709
0.464585
3
2.99999
2.99995
2.99986
2.99966
2.9991
2.99789
2.99463
2.98694
2.96766
2.92012
2.80122
2.51145
1.88779
0.925416
0.487077
0.499825
0.514737
0.512458
0.495183
0.481868
0.479777
0.493388
0.532843
0.63213
3
2.99999
2.99996
2.99988
2.9997
2.9992
2.99819
2.99507
2.98903
2.97022
2.93148
2.82218
2.56802
1.99608
1.05413
0.559987
0.51588
0.532598
0.541255
0.535548
0.532805
0.542154
0.575599
0.653439
0.812395
3
2.99999
2.99996
2.9999
2.99972
2.99936
2.99827
2.99613
2.98944
2.97626
2.93702
2.84996
2.62009
2.11266
1.21088
0.646418
0.532255
0.550453
0.567267
0.572475
0.580185
0.602493
0.65271
0.749953
0.910523
3
2.99999
2.99997
2.99991
2.99979
2.99942
2.99865
2.99649
2.99158
2.979
2.94814
2.87156
2.68024
2.23627
1.40184
0.749159
0.557911
0.574631
0.594983
0.60824
0.624691
0.657186
0.715462
0.810543
0.944525
3
3
2.99998
2.99994
2.9998
2.99957
2.99878
2.99734
2.99269
2.98348
2.95663
2.89684
2.7383
2.3722
1.63316
0.870405
0.604555
0.612781
0.62982
0.647025
0.667646
0.703907
0.762571
0.848091
0.959945
3
3
2.99998
2.99994
2.99986
2.99961
2.99913
2.99764
2.99461
2.98597
2.96684
2.91611
2.79555
2.49814
1.87652
1.00751
0.66781
0.658367
0.671437
0.689635
0.710367
0.745288
0.799952
0.875307
0.971595
3.00001
3
2.99999
2.99996
2.99988
2.99972
2.99923
2.99823
2.99539
2.98906
2.97255
2.93294
2.83322
2.58983
2.05141
1.16628
0.742308
0.694197
0.708174
0.726705
0.749458
0.782456
0.832264
0.898578
0.981947
3.00001
3
2.99999
2.99997
2.99991
2.99976
2.99941
2.99855
2.99637
2.99132
2.97778
2.9473
2.86584
2.6722
2.21918
1.39361
0.852619
0.726437
0.737347
0.756201
0.78227
0.815124
0.860622
0.919609
0.991878
3.00001
3
3
2.99998
2.99993
2.99982
2.99955
2.99884
2.99732
2.99288
2.9839
2.95724
2.90011
2.74507
2.39127
1.67407
0.990094
0.774165
0.769804
0.784868
0.812471
0.845431
0.886918
0.939235
1.00238
3.00001
3
3
2.99999
2.99995
2.99987
2.99964
2.99921
2.99778
2.9952
2.98684
2.97033
2.92272
2.81551
2.54437
1.97298
1.15853
0.84235
0.809878
0.820914
0.845033
0.87602
0.912804
0.958664
1.01385
3.00001
3
3
2.99999
2.99996
2.9999
2.99975
2.99935
2.99847
2.99598
2.99089
2.97579
2.94435
2.85643
2.65399
2.18371
1.37118
0.931788
0.84574
0.853836
0.874493
0.903689
0.937606
0.97826
1.02649
3.00001
3.00001
3
2.99999
2.99998
2.99993
2.99982
2.99952
2.99884
2.99715
2.99288
2.98312
2.95677
2.89716
2.74085
2.38191
1.66651
1.06752
0.893297
0.886643
0.900594
0.92766
0.961566
0.998357
1.04076
3.00001
3.00001
3
3
2.99998
2.99995
2.99986
2.99968
2.99912
2.99807
2.99478
2.98821
2.96937
2.92798
2.81867
2.56523
2.01066
1.25009
0.964097
0.924874
0.93246
0.954992
0.986122
1.01942
1.05648
3.00001
3.00001
3
3
2.99999
2.99996
2.99991
2.99975
2.99944
2.99847
2.99654
2.991
2.9789
2.94679
2.87134
2.68112
2.25354
1.48851
1.05922
0.962722
0.963763
0.981184
1.00939
1.04053
1.07375
3.00001
3.00001
3.00001
3
3
2.99998
2.99994
2.99983
2.99959
2.99897
2.99749
2.9939
2.98481
2.96371
2.90901
2.77932
2.46666
1.8284
1.20977
1.01716
0.99782
1.00853
1.03191
1.06158
1.09222
3.00001
3.00001
3.00001
3
3
2.99999
2.99996
2.99989
2.99971
2.99931
2.99823
2.99593
2.98936
2.97581
2.93711
2.8521
2.63327
2.1575
1.4194
1.09671
1.03542
1.03872
1.05621
1.08236
1.11143
3.00001
3.00001
3.00001
3.00001
3
2.99999
2.99997
2.99993
2.9998
2.99954
2.9988
2.99715
2.99299
2.98282
2.95843
2.8972
2.74928
2.40201
1.7265
1.22405
1.08185
1.06952
1.07945
1.10207
1.13055
3.00001
3.00001
3.00001
3.00001
3
3
2.99998
2.99995
2.99987
2.99968
2.99924
2.99806
2.99554
2.98839
2.97363
2.93176
2.83989
2.60659
2.10547
1.41897
1.1543
1.10669
1.10847
1.12469
1.14895
3.00001
3.00001
3.00001
3.00001
3.00001
3
2.99999
2.99997
2.99993
2.99978
2.99951
2.9987
2.99703
2.99244
2.98207
2.9557
2.89245
2.73646
2.37762
1.70384
1.26707
1.14857
1.13717
1.14538
1.1653
3.00001
3.00001
3.00001
3.00001
3.00001
3
3
2.99998
2.99995
2.99987
2.99966
2.99924
2.99794
2.99555
2.98786
2.97331
2.93027
2.83735
2.60192
2.10014
1.45439
1.21401
1.17154
1.17142
1.18568
3.00001
3.00001
3.00001
3.00001
3.00001
3
3
2.99999
2.99997
2.99992
2.99978
2.99951
2.99867
2.99712
2.99218
2.98266
2.95484
2.89466
2.7372
2.38583
1.7287
1.3187
1.20982
1.19774
1.20472
3.00001
3.00001
3.00001
3.00001
3.00001
3.00001
3
3
2.99998
2.99995
2.99988
2.99967
2.99926
2.99799
2.99565
2.98817
2.97406
2.9323
2.84263
2.61529
2.12981
1.50789
1.274
1.23124
1.22943
3.00001
3.00001
3.00001
3.00001
3.00001
3.00001
3.00001
3
2.99999
2.99997
2.99992
2.99979
2.99953
2.99874
2.99725
2.99253
2.98368
2.95693
2.90095
2.75181
2.4211
1.79271
1.38147
1.2689
1.25405
3.00001
3.00001
3.00001
3.00001
3.00001
3.00001
3.00001
3
3
2.99999
2.99995
2.99989
2.99969
2.99929
2.9982
2.99572
2.98963
2.97465
2.93949
2.85173
2.64669
2.18974
1.58135
1.33828
1.28901
3.00001
3.00001
3.00001
3.00001
3.00001
3.00001
3.00001
3.00001
3
2.99999
2.99997
2.99993
2.99981
2.99957
2.99886
2.99751
2.99325
2.98537
2.9612
2.91165
2.77811
2.48255
1.89833
1.4604
1.32882
3.00001
3.00001
3.00001
3.00001
3.00001
3.00001
3.00001
3.00001
3
3
2.99999
2.99996
2.9999
2.99973
2.99937
2.99841
2.9962
2.99085
2.97759
2.94685
2.86926
2.68914
2.27861
1.67999
1.4087
3.00001
3.00001
3.00001
3.00001
3.00001
3.00001
3.00001
3.00001
3.00001
3
3
2.99998
2.99994
2.99985
2.99961
2.99908
2.99774
2.99457
2.98701
2.96812
2.92456
2.81564
2.56525
2.04854
1.55803
3.00001
3.00001
3.00001
3.00001
3.00001
3.00001
3.00001
3.00001
3.00001
3
3
2.99999
2.99997
2.99991
2.99977
2.99948
2.9986
2.99697
2.99182
2.9822
2.95347
2.89339
2.73608
2.39101
1.80484
3.00001
3.00001
3.00001
3.00001
3.00001
3.00001
3.00001
3.00001
3.00001
3.00001
3
3
2.99999
2.99995
2.99988
2.99966
2.99926
2.99804
2.99563
2.98885
2.97425
2.93638
2.84942
2.63962
2.1914
3.00001
3.00001
3.00001
3.00001
3.00001
3.00001
3.00001
3.00001
3.00001
3.00001
3
3
2.99999
2.99997
2.99992
2.99981
2.99951
2.99886
2.99718
2.99326
2.98392
2.96053
2.90686
2.77328
2.47319
3.00001
3.00001
3.00001
3.00001
3.00001
3.00001
3.00001
3.00001
3.00001
3.00001
3.00001
3
3
2.99998
2.99995
2.99986
2.99968
2.99918
2.99803
2.99519
2.98817
2.97164
2.92922
2.82915
2.58411
3.00001
3.00001
3.00001
3.00001
3.00001
3.00001
3.00001
3.00001
3.00001
3.00001
3.00001
3
3
2.99999
2.99996
2.99989
2.99974
2.99933
2.99836
2.99595
2.98986
2.97543
2.93766
2.84687
2.61629
3.00001
3.00001
3.00001
3.00001
3.00001
3.00001
3.00001
3.00001
3.00001
3.00001
3.00001
3
3
2.99999
2.99997
2.9999
2.99977
2.99935
2.99853
2.99605
2.99067
2.97588
2.94096
2.8495
2.62329
3.00001
3.00001
3.00001
3.00001
3.00001
3.00001
3.00001
3.00001
3.00001
3.00001
3.00001
3.00001
3
2.99999
2.99997
2.99992
2.99975
2.99945
2.99843
2.99643
2.9904
2.97721
2.9408
2.85362
2.62609
3.00001
3.00001
3.00001
3.00001
3.00001
3.00001
3.00001
3.00001
3.00001
3.00001
3.00001
3.00001
3
2.99999
2.99997
2.99992
2.99976
2.99945
2.99847
2.99645
2.9906
2.97725
2.94166
2.85418
2.62837
3.00001
3.00001
3.00001
3.00001
3.00001
3.00001
3.00001
3.00001
3.00001
3.00001
3.00001
3.00001
3
2.99999
2.99997
2.99992
2.99976
2.99945
2.99851
2.99646
2.99083
2.97735
2.94268
2.85553
2.63264
3.00001
3.00001
3.00001
3.00001
3.00001
3.00001
3.00001
3.00001
3.00001
3.00001
3.00001
3.00001
3
2.99999
2.99997
2.99992
2.99976
2.99948
2.99848
2.99669
2.99057
2.97859
2.94218
2.85936
2.63611
3.00001
3.00001
3.00001
3.00001
3.00001
3.00001
3.00001
3.00001
3.00001
3.00001
3.00001
3.00001
3
2.99999
2.99997
2.99992
2.99979
2.99942
2.99868
2.99631
2.99173
2.97691
2.94638
2.85739
2.64481
3.00001
3.00001
3.00001
3.00001
3.00001
3.00001
3.00001
3.00001
3.00001
3.00001
3.00001
3.00001
3
2.99999
2.99997
2.99992
2.99978
2.99949
2.99855
2.99679
2.99083
2.97941
2.94368
2.86366
2.64541
3.00001
3.00001
3.00001
3.00001
3.00001
3.00001
3.00001
3.00001
3.00001
3.00001
3.00001
3.00001
3
2.99999
2.99997
2.99992
2.9998
2.99945
2.99871
2.99644
2.99189
2.97764
2.94755
2.86089
2.65218
3.00001
3.00001
3.00001
3.00001
3.00001
3.00001
3.00001
3.00001
3.00001
3.00001
3.00001
3.00001
3
2.99999
2.99997
2.99993
2.99978
2.9995
2.9986
2.99677
2.99129
2.97914
2.9456
2.86453
2.65111
1.01654
0.873761
0.420156
0.281638
0.236381
0.369554
0.413701
0.438087
0.467874
0.506942
0.544823
0.578099
0.610011
0.642918
0.676208
0.707223
0.735024
0.760753
0.787044
0.807347
0.81701
0.820297
0.816716
0.801007
0.769831
0.726767
0.676107
0.622744
0.569301
0.517417
0.467625
0.420035
0.375529
0.333502
0.293965
0.256382
0.220385
0.184839
0.150834
0.118156
0.0868855
0.0570229
0.0301264
0.018184
0.0392932
0.0639066
0.0897894
0.11447
0.138061
0.160134
0.182219
0.204804
0.227082
0.24853
0.269282
0.289435
0.309161
0.328428
0.347331
0.365835
0.383994
0.401816
0.419325
0.43656
0.453505
0.470213
0.486648
0.502885
0.518877
0.534693
0.550278
0.565714
0.580926
0.596025
0.61091
0.625703
0.640289
0.654792
0.669094
0.683317
0.697352
0.711292
0.725069
0.738707
0.752227
0.765558
0.778804
0.791834
0.804753
0.817474
0.829966
0.84229
0.854205
0.865878
0.876917
0.887378
0.896796
0.904891
0.910918
0.915298
1.00278
0.902349
0.674141
0.414526
0.335337
0.203615
0.0841855
0.102854
0.185625
0.258195
0.307469
0.342207
0.374475
0.410579
0.448572
0.48455
0.516175
0.544942
0.573063
0.597408
0.609625
0.611878
0.605829
0.585786
0.551061
0.503326
0.449619
0.394938
0.341655
0.291155
0.24368
0.198923
0.158243
0.120773
0.0872046
0.0589527
0.0431372
0.0496872
0.0706271
0.0954628
0.121378
0.146863
0.171789
0.195352
0.217941
0.240397
0.262692
0.284557
0.305586
0.325564
0.345311
0.365435
0.385447
0.404692
0.423311
0.441466
0.459246
0.476692
0.493788
0.510581
0.527049
0.543261
0.559176
0.574869
0.590296
0.605524
0.620518
0.635341
0.649953
0.664415
0.678692
0.692824
0.706802
0.720628
0.734337
0.747876
0.761343
0.774608
0.787857
0.800848
0.813894
0.826598
0.839451
0.851854
0.864503
0.87661
0.889018
0.900849
0.912951
0.924498
0.936214
0.947385
0.958592
0.969149
0.979574
0.989052
0.998097
1.00543
1.01121
1.01483
1.0138
0.992883
0.901033
0.779127
0.679994
0.569853
0.457878
0.35162
0.260186
0.178706
0.107638
0.0612513
0.100152
0.150163
0.195865
0.236071
0.270671
0.299949
0.327133
0.353059
0.368216
0.36778
0.355838
0.335075
0.299725
0.250774
0.202313
0.157419
0.119892
0.0946005
0.086394
0.095766
0.115378
0.13976
0.165849
0.191886
0.217334
0.241485
0.265037
0.288285
0.311062
0.333162
0.35457
0.375057
0.394866
0.414201
0.4333
0.452051
0.470173
0.487421
0.504315
0.521541
0.538904
0.555695
0.571928
0.587742
0.603258
0.61851
0.633539
0.648288
0.662849
0.677107
0.691243
0.705074
0.718853
0.732309
0.745781
0.758889
0.77209
0.784875
0.797841
0.810336
0.823103
0.835341
0.847932
0.859946
0.872374
0.884189
0.89645
0.908074
0.92016
0.931592
0.943507
0.954742
0.966487
0.977538
0.989069
0.999981
1.01121
1.02199
1.03282
1.04338
1.05377
1.06394
1.07373
1.0831
1.09155
1.099
1.10437
1.1082
1.0375
1.05976
1.03448
0.974941
0.906255
0.826778
0.741493
0.656633
0.577054
0.501288
0.42619
0.354209
0.288212
0.23021
0.176566
0.128071
0.0855088
0.0555886
0.056241
0.0757229
0.10093
0.108931
0.0807328
0.0695623
0.0791163
0.11684
0.150532
0.18489
0.218453
0.249137
0.277032
0.302449
0.326702
0.350301
0.37322
0.39517
0.416387
0.436533
0.45613
0.475189
0.493868
0.511964
0.529575
0.546514
0.563026
0.579082
0.594998
0.610593
0.625864
0.64024
0.654327
0.668514
0.683257
0.697566
0.711579
0.725023
0.738461
0.751474
0.764597
0.777262
0.790089
0.802437
0.814998
0.827061
0.839373
0.851182
0.863266
0.874857
0.88673
0.898133
0.9098
0.921041
0.932505
0.943609
0.954873
0.965859
0.976929
0.987805
0.998685
1.00944
1.02012
1.03075
1.04123
1.05173
1.06198
1.07237
1.08238
1.09267
1.10244
1.11262
1.12217
1.13222
1.14158
1.15124
1.16009
1.16886
1.17662
1.18357
1.18862
1.19192
1.05249
1.09847
1.10706
1.08672
1.04865
0.999213
0.940623
0.878761
0.817503
0.756209
0.694487
0.631801
0.57303
0.518851
0.467341
0.417737
0.369468
0.323497
0.280731
0.24396
0.214894
0.202324
0.218458
0.252051
0.29839
0.345977
0.388129
0.423348
0.452682
0.477249
0.498534
0.517504
0.535123
0.552189
0.568728
0.584878
0.600467
0.615606
0.630336
0.644811
0.658964
0.672832
0.686334
0.699481
0.712312
0.724901
0.737398
0.749778
0.76201
0.773618
0.784882
0.796143
0.808065
0.819971
0.831694
0.842961
0.854177
0.865127
0.876142
0.886956
0.897842
0.908544
0.919298
0.929892
0.940515
0.951022
0.961524
0.971957
0.982351
0.99272
1.00302
1.01334
1.02358
1.03384
1.04405
1.05424
1.06443
1.07452
1.0847
1.09467
1.10482
1.11467
1.12475
1.13447
1.14445
1.15407
1.16394
1.1735
1.18335
1.19289
1.20262
1.21193
1.22137
1.23027
1.23921
1.24736
1.25526
1.26183
1.26709
1.27008
1.06061
1.11672
1.1466
1.15105
1.13834
1.11225
1.07721
1.03558
0.991964
0.94676
0.899901
0.852681
0.804905
0.758683
0.713389
0.668974
0.624615
0.58112
0.540174
0.504371
0.476975
0.466077
0.473572
0.499254
0.536565
0.579363
0.618816
0.650782
0.674039
0.690856
0.70364
0.71435
0.724352
0.734207
0.744278
0.754213
0.764148
0.773728
0.783301
0.792678
0.802198
0.811568
0.821014
0.830274
0.839586
0.84875
0.858065
0.867341
0.876787
0.885786
0.894503
0.903141
0.912474
0.922135
0.931877
0.941289
0.950729
0.959944
0.96932
0.978524
0.987929
0.997151
1.00659
1.01583
1.0253
1.03454
1.04402
1.05326
1.06275
1.07199
1.08148
1.09072
1.1002
1.10944
1.1189
1.12813
1.13755
1.14675
1.15611
1.16528
1.17457
1.1837
1.19288
1.20199
1.21111
1.22034
1.22945
1.23878
1.24771
1.25703
1.26577
1.27501
1.28348
1.29249
1.30056
1.30903
1.31626
1.3234
1.32835
1.332
1.06502
1.12501
1.16599
1.18805
1.19315
1.18599
1.16888
1.14496
1.11657
1.08602
1.05324
1.01907
0.983611
0.947314
0.910564
0.872765
0.833448
0.792534
0.752267
0.715355
0.686878
0.669254
0.66962
0.69192
0.730414
0.774221
0.813893
0.846824
0.869524
0.881286
0.885388
0.886596
0.886995
0.888587
0.891206
0.894862
0.899087
0.903648
0.908469
0.913477
0.918781
0.924252
0.930069
0.936022
0.942285
0.948619
0.955267
0.962012
0.969195
0.976152
0.982957
0.989622
0.996936
1.00475
1.01298
1.02103
1.02918
1.03718
1.04534
1.05342
1.06165
1.06988
1.07821
1.08658
1.095
1.10352
1.11201
1.12064
1.12918
1.13792
1.1465
1.15534
1.164
1.17292
1.1817
1.19067
1.19954
1.20853
1.21744
1.22642
1.23531
1.24429
1.25319
1.26226
1.27113
1.28018
1.28891
1.2979
1.3065
1.31536
1.32382
1.33249
1.34078
1.34912
1.35711
1.36486
1.37216
1.37866
1.38386
1.38683
1.0686
1.1282
1.17496
1.20704
1.22557
1.23192
1.22922
1.2193
1.20442
1.18601
1.16521
1.14219
1.11698
1.0908
1.06207
1.03132
0.996147
0.957131
0.917749
0.880692
0.845401
0.817075
0.813521
0.836543
0.875807
0.921739
0.964278
0.997407
1.02147
1.0354
1.03695
1.03102
1.0224
1.01536
1.01063
1.0085
1.00798
1.00871
1.01014
1.01204
1.01445
1.01715
1.02038
1.02394
1.02797
1.03229
1.037
1.04199
1.04742
1.05295
1.05837
1.06367
1.06933
1.07561
1.08242
1.08931
1.09628
1.10328
1.11035
1.11752
1.12474
1.13211
1.13951
1.14708
1.15464
1.16239
1.17014
1.17803
1.18597
1.19398
1.2021
1.21021
1.21848
1.22669
1.23509
1.24339
1.25187
1.26023
1.26875
1.27716
1.28577
1.29427
1.30289
1.31138
1.31998
1.32847
1.33704
1.34553
1.35405
1.36253
1.37094
1.37936
1.38762
1.39587
1.40384
1.41168
1.41901
1.42582
1.43117
1.43453
1.07339
1.13012
1.17877
1.21667
1.24349
1.26002
1.26787
1.26871
1.26453
1.25659
1.24525
1.23203
1.21564
1.19738
1.17592
1.14943
1.11664
1.07965
1.04176
0.998697
0.949446
0.916592
0.917254
0.941948
0.980675
1.02759
1.07435
1.10969
1.13452
1.15149
1.15914
1.1565
1.14561
1.13174
1.11941
1.1101
1.10376
1.09996
1.09787
1.0969
1.0967
1.09706
1.09798
1.09926
1.10111
1.10327
1.10605
1.10916
1.11288
1.11688
1.12101
1.12492
1.12911
1.13388
1.13938
1.14517
1.15119
1.15728
1.16351
1.1698
1.17626
1.1828
1.18956
1.19637
1.20342
1.21047
1.21777
1.22503
1.23253
1.23999
1.24767
1.25533
1.26319
1.27102
1.27905
1.28702
1.29518
1.30326
1.31158
1.31975
1.32809
1.33627
1.3446
1.35284
1.36111
1.36943
1.37761
1.38598
1.39405
1.40243
1.4104
1.41872
1.42657
1.43474
1.44241
1.45023
1.45741
1.46431
1.46973
1.47321
1.07952
1.1323
1.18043
1.22074
1.25286
1.27605
1.29175
1.30086
1.30472
1.30481
1.3015
1.29566
1.28675
1.27441
1.25754
1.23271
1.2014
1.16718
1.12428
1.06767
1.00897
0.981981
0.988865
1.01435
1.05393
1.10373
1.15246
1.19052
1.21605
1.23316
1.24469
1.24863
1.24487
1.23299
1.21639
1.20017
1.18627
1.17606
1.16868
1.16388
1.16071
1.15883
1.15772
1.15721
1.15733
1.15795
1.15911
1.16079
1.16302
1.16578
1.16888
1.17192
1.17511
1.17865
1.18299
1.18781
1.19302
1.19836
1.20393
1.20959
1.21544
1.22141
1.22756
1.23388
1.24034
1.247
1.25375
1.26072
1.26774
1.27497
1.28227
1.28974
1.2973
1.30498
1.31277
1.32062
1.32861
1.33662
1.34466
1.35275
1.36081
1.369
1.37704
1.38532
1.39335
1.40168
1.4097
1.41804
1.42603
1.43435
1.44229
1.45054
1.45839
1.46649
1.47417
1.48197
1.4892
1.49617
1.50173
1.50532
1.08782
1.13596
1.18207
1.22296
1.25723
1.28508
1.30574
1.32115
1.33106
1.33753
1.34008
1.33994
1.33624
1.32796
1.31152
1.28784
1.25871
1.22055
1.16661
1.09295
1.0367
1.02383
1.03708
1.06382
1.10646
1.15749
1.2046
1.24305
1.2716
1.29072
1.30341
1.31202
1.31488
1.31167
1.30149
1.28527
1.26701
1.25016
1.23634
1.22605
1.21889
1.2142
1.21114
1.20922
1.20804
1.20749
1.20745
1.20794
1.20898
1.21057
1.21275
1.2152
1.21762
1.2203
1.22359
1.22765
1.23212
1.23692
1.2419
1.24715
1.25249
1.25811
1.26379
1.26977
1.27581
1.28214
1.28854
1.29519
1.30194
1.30887
1.31593
1.3231
1.33044
1.33782
1.34541
1.353
1.36073
1.36841
1.37623
1.38402
1.39192
1.39981
1.40778
1.41574
1.42373
1.43174
1.43974
1.44778
1.45576
1.46381
1.47174
1.47976
1.48761
1.49552
1.50321
1.51087
1.51815
1.52506
1.53077
1.53433
1.09819
1.14178
1.18468
1.22484
1.25984
1.2897
1.31396
1.33307
1.34769
1.35839
1.36565
1.36906
1.36838
1.36014
1.3432
1.32002
1.28868
1.24016
1.16526
1.08751
1.05143
1.05138
1.06792
1.09986
1.14532
1.19395
1.23743
1.27418
1.30394
1.32705
1.34315
1.35415
1.36165
1.36433
1.36236
1.35496
1.3409
1.32224
1.3034
1.2867
1.27352
1.26393
1.25737
1.25303
1.25023
1.24845
1.2474
1.24689
1.24698
1.24762
1.24888
1.25067
1.25273
1.25481
1.25728
1.2604
1.26429
1.26847
1.273
1.27771
1.28272
1.28788
1.29332
1.29889
1.30472
1.31068
1.31689
1.32322
1.32979
1.33645
1.34337
1.35034
1.35758
1.36485
1.37233
1.37972
1.38732
1.39487
1.40257
1.41026
1.41803
1.42587
1.43367
1.44165
1.44946
1.45752
1.46533
1.47344
1.48122
1.48933
1.49708
1.50513
1.51282
1.52076
1.52832
1.53605
1.54326
1.55031
1.55606
1.55983
1.11046
1.1499
1.1893
1.22724
1.26213
1.29261
1.3187
1.34041
1.35784
1.37151
1.38154
1.38684
1.3856
1.37497
1.35696
1.33139
1.28973
1.22029
1.13293
1.07414
1.06041
1.06886
1.09016
1.1273
1.17311
1.21669
1.25553
1.28984
1.31936
1.34463
1.36485
1.38064
1.39124
1.39818
1.4019
1.40191
1.39723
1.38622
1.36961
1.35028
1.33207
1.31651
1.30457
1.29589
1.29013
1.28646
1.28418
1.28286
1.28219
1.2821
1.2826
1.28369
1.28523
1.28693
1.28873
1.29099
1.29395
1.29763
1.30165
1.30602
1.31061
1.31551
1.32056
1.3259
1.33138
1.33713
1.34301
1.34913
1.3554
1.36188
1.36852
1.37535
1.38234
1.38941
1.39659
1.40385
1.4112
1.41865
1.42614
1.43377
1.44137
1.44913
1.45682
1.46468
1.47243
1.48036
1.48815
1.49611
1.50391
1.51188
1.51964
1.52757
1.53526
1.5431
1.55063
1.55826
1.56545
1.57244
1.57822
1.58197
1.12491
1.15998
1.19599
1.23122
1.26451
1.29501
1.32155
1.34456
1.36374
1.3786
1.3896
1.39386
1.38844
1.37519
1.35442
1.31919
1.25732
1.16754
1.09279
1.06571
1.06794
1.08075
1.10852
1.1483
1.19007
1.22841
1.26311
1.29491
1.32366
1.34982
1.3726
1.3923
1.40809
1.41986
1.42733
1.43192
1.43351
1.43154
1.42427
1.41083
1.39289
1.3743
1.35684
1.3425
1.33169
1.32431
1.31961
1.31675
1.31519
1.31444
1.31438
1.31486
1.31591
1.31733
1.31882
1.32049
1.32264
1.3256
1.3292
1.33324
1.33758
1.34222
1.34709
1.35218
1.35747
1.36295
1.36865
1.37451
1.38064
1.3869
1.39347
1.40011
1.40696
1.41383
1.4209
1.428
1.43526
1.44257
1.44998
1.45747
1.46499
1.47264
1.48024
1.488
1.49566
1.50349
1.51118
1.51904
1.52672
1.53457
1.54222
1.55003
1.55762
1.56533
1.57279
1.58031
1.58744
1.59437
1.60015
1.60391
1.14112
1.17231
1.20458
1.23718
1.26825
1.29764
1.3241
1.34722
1.36688
1.38185
1.39093
1.38993
1.37987
1.36345
1.33321
1.27802
1.19006
1.1071
1.06837
1.0633
1.07144
1.09188
1.12483
1.16253
1.19849
1.23198
1.26331
1.29299
1.32104
1.34746
1.37182
1.39396
1.41334
1.42977
1.4428
1.45188
1.45726
1.4607
1.4611
1.45744
1.44817
1.43294
1.41464
1.39616
1.37988
1.36685
1.35761
1.35145
1.34787
1.34591
1.34517
1.3451
1.34561
1.34663
1.34786
1.34916
1.35064
1.35275
1.35563
1.3592
1.36315
1.36746
1.37202
1.37684
1.38187
1.38711
1.39255
1.3982
1.40409
1.41019
1.41652
1.42295
1.42957
1.43626
1.44314
1.45008
1.45717
1.46434
1.4716
1.47897
1.48636
1.4939
1.50139
1.50905
1.51662
1.52437
1.53197
1.53976
1.54736
1.55515
1.56272
1.57047
1.57795
1.5856
1.59294
1.60039
1.6074
1.61425
1.61996
1.62369
1.15781
1.18565
1.21451
1.2442
1.27329
1.30095
1.32655
1.34886
1.36734
1.38045
1.38327
1.37641
1.36236
1.33635
1.28642
1.2021
1.11517
1.06789
1.05723
1.0622
1.07688
1.10399
1.13741
1.17006
1.20091
1.23056
1.2594
1.28751
1.31486
1.34121
1.36633
1.38986
1.41159
1.43118
1.44829
1.46263
1.4736
1.48066
1.48514
1.48775
1.48744
1.48206
1.47052
1.45438
1.43608
1.41849
1.40345
1.39192
1.384
1.37919
1.37661
1.37559
1.37547
1.37607
1.37707
1.37833
1.37953
1.38107
1.3832
1.38616
1.38968
1.39362
1.39787
1.40241
1.4072
1.41218
1.41742
1.42285
1.42857
1.43446
1.44058
1.44679
1.45323
1.45973
1.46646
1.47324
1.4802
1.48724
1.49438
1.50164
1.5089
1.51633
1.52368
1.53123
1.53863
1.54625
1.55369
1.56133
1.56876
1.57639
1.58379
1.59136
1.59869
1.60614
1.61332
1.62058
1.62742
1.63411
1.63969
1.64335
1.17431
1.19995
1.22595
1.25286
1.27977
1.30549
1.32953
1.35001
1.36556
1.37185
1.36746
1.35497
1.33173
1.28623
1.2065
1.11809
1.06509
1.05048
1.05314
1.06334
1.08517
1.11497
1.14452
1.17261
1.19983
1.22682
1.25375
1.28062
1.30726
1.33335
1.35882
1.38309
1.40638
1.42792
1.44795
1.4658
1.48127
1.49398
1.50297
1.50899
1.51343
1.51526
1.51376
1.50646
1.49349
1.47649
1.45863
1.44184
1.42815
1.41809
1.4116
1.4079
1.4063
1.40597
1.40658
1.40765
1.40874
1.40995
1.41145
1.41367
1.41657
1.41999
1.42381
1.428
1.43248
1.43722
1.44223
1.44746
1.453
1.45865
1.46456
1.47055
1.47679
1.4831
1.48963
1.49624
1.50301
1.50989
1.51684
1.52395
1.53104
1.53833
1.54552
1.55292
1.56017
1.56763
1.57493
1.58241
1.58972
1.59718
1.60446
1.61187
1.61906
1.62636
1.63338
1.64044
1.6471
1.65356
1.65895
1.66249
1.19073
1.21488
1.23879
1.26302
1.28748
1.31094
1.33215
1.3494
1.35833
1.35581
1.34425
1.32286
1.28068
1.20523
1.11744
1.0609
1.043
1.04409
1.05151
1.06969
1.09609
1.12287
1.14812
1.17269
1.1972
1.22233
1.24778
1.27373
1.29971
1.32556
1.35101
1.37579
1.39983
1.42274
1.44453
1.4648
1.48333
1.49994
1.51399
1.52507
1.53297
1.53884
1.54297
1.54414
1.54128
1.5323
1.51769
1.50025
1.48244
1.46666
1.45421
1.44552
1.44026
1.43769
1.43692
1.43746
1.43847
1.43954
1.44073
1.44241
1.44471
1.4476
1.45093
1.45467
1.45878
1.46321
1.46797
1.47301
1.47832
1.48373
1.48941
1.49514
1.50115
1.50722
1.51354
1.51995
1.52653
1.53323
1.54001
1.54696
1.5539
1.56103
1.56808
1.57532
1.58242
1.5897
1.59683
1.60411
1.61124
1.61848
1.62557
1.63275
1.63974
1.64681
1.6536
1.66042
1.6668
1.67298
1.67808
1.68145
1.20717
1.23031
1.25263
1.27479
1.29666
1.31707
1.33436
1.34459
1.34318
1.33199
1.31179
1.27207
1.20011
1.11386
1.05568
1.03543
1.03506
1.0415
1.05812
1.08214
1.10606
1.12853
1.15018
1.17223
1.19491
1.21867
1.24312
1.26829
1.2936
1.3191
1.34433
1.36934
1.39373
1.41754
1.44037
1.4622
1.4827
1.50185
1.51917
1.53453
1.54734
1.55716
1.56477
1.57051
1.57384
1.57415
1.56966
1.55883
1.54299
1.52527
1.5078
1.49278
1.48152
1.47411
1.47012
1.46858
1.46881
1.46975
1.47073
1.47197
1.47369
1.47605
1.47886
1.4821
1.48573
1.48975
1.49421
1.49894
1.50398
1.50914
1.51458
1.52009
1.5259
1.53177
1.5379
1.54412
1.5505
1.55701
1.56358
1.57032
1.57704
1.58396
1.5908
1.59784
1.60476
1.61186
1.61882
1.62593
1.63288
1.63994
1.64682
1.65378
1.66054
1.66732
1.67383
1.68031
1.68632
1.6921
1.69675
1.69987
1.22268
1.24586
1.26721
1.28721
1.30603
1.32233
1.33281
1.33165
1.32022
1.30043
1.2618
1.19198
1.10771
1.04942
1.02831
1.0271
1.03323
1.04927
1.07201
1.09409
1.11401
1.13314
1.1525
1.1729
1.19444
1.21719
1.24083
1.26514
1.28986
1.31484
1.3398
1.36472
1.38913
1.41327
1.43648
1.4593
1.4809
1.50182
1.52126
1.53956
1.55586
1.57023
1.5818
1.59104
1.59838
1.60363
1.60597
1.60521
1.59886
1.58608
1.56938
1.55097
1.53409
1.52006
1.51012
1.50407
1.5012
1.50072
1.5014
1.50235
1.50355
1.50538
1.50777
1.51055
1.5137
1.51723
1.52129
1.52564
1.53039
1.53527
1.54049
1.54577
1.55135
1.55698
1.56288
1.56886
1.57503
1.58133
1.58771
1.59426
1.60077
1.6075
1.61412
1.62097
1.62766
1.63456
1.64129
1.64818
1.6549
1.66171
1.66837
1.67504
1.68152
1.68796
1.69411
1.70015
1.70566
1.71086
1.71487
1.71759
1.24122
1.26059
1.28189
1.29978
1.31491
1.3244
1.32272
1.31054
1.29035
1.25159
1.18217
1.09913
1.04167
1.02092
1.01978
1.02597
1.04228
1.06473
1.08548
1.10388
1.1209
1.13809
1.15618
1.17563
1.19633
1.21822
1.24103
1.26455
1.28864
1.31297
1.33756
1.36198
1.38636
1.41032
1.43397
1.45708
1.47953
1.50137
1.52218
1.54222
1.5608
1.57811
1.59357
1.60676
1.61742
1.62632
1.63336
1.63791
1.63921
1.63696
1.62853
1.61395
1.59625
1.57777
1.56138
1.54849
1.53981
1.53505
1.53339
1.53356
1.53434
1.5355
1.53731
1.5397
1.54246
1.54559
1.54919
1.55309
1.55741
1.56194
1.56682
1.57183
1.57715
1.58256
1.58821
1.59398
1.59992
1.60601
1.61216
1.61852
1.62482
1.63136
1.63777
1.6444
1.65088
1.65754
1.66406
1.67068
1.67718
1.6837
1.6901
1.69643
1.7026
1.70863
1.71434
1.71981
1.72466
1.72905
1.73211
1.73427
1.25963
1.27515
1.29443
1.31025
1.31973
1.31726
1.30383
1.28252
1.24251
1.17149
1.08839
1.03225
1.01292
1.0127
1.01969
1.03706
1.05972
1.07995
1.0971
1.11265
1.12801
1.14423
1.16164
1.18043
1.20048
1.22161
1.24371
1.26647
1.28987
1.31354
1.33757
1.36152
1.38561
1.40932
1.43303
1.45613
1.47908
1.50125
1.5231
1.54387
1.56415
1.58313
1.6011
1.61738
1.63205
1.6441
1.65434
1.66286
1.66911
1.67244
1.67279
1.66875
1.65789
1.64203
1.62342
1.60527
1.58931
1.57776
1.57041
1.56689
1.56619
1.56675
1.56762
1.56916
1.57159
1.57444
1.57769
1.58111
1.58498
1.58904
1.59358
1.59826
1.60333
1.60849
1.61392
1.61948
1.62518
1.63106
1.63694
1.64306
1.64911
1.65539
1.66158
1.66797
1.67425
1.68069
1.687
1.6934
1.69966
1.7059
1.712
1.71797
1.7237
1.72921
1.73427
1.73894
1.74276
1.74594
1.74781
1.74943
1.28365
1.2905
1.30403
1.31676
1.31548
1.30074
1.27753
1.23497
1.16056
1.07634
1.02189
1.0039
1.005
1.01431
1.03324
1.05643
1.07662
1.09327
1.10783
1.12184
1.13646
1.15216
1.16923
1.18751
1.20703
1.22746
1.24887
1.27085
1.29352
1.31647
1.33982
1.36318
1.38678
1.41011
1.43364
1.4566
1.47971
1.50196
1.5243
1.54557
1.5668
1.58677
1.60639
1.62453
1.64182
1.65714
1.67089
1.68198
1.69195
1.69989
1.70511
1.70701
1.70622
1.70016
1.68742
1.67001
1.65069
1.63262
1.61769
1.60732
1.60127
1.59903
1.59897
1.59954
1.60083
1.60316
1.60618
1.6094
1.61292
1.61662
1.62072
1.62503
1.62972
1.63456
1.6397
1.64497
1.65045
1.65604
1.66178
1.66763
1.67352
1.67959
1.68555
1.69174
1.69774
1.70392
1.70993
1.71602
1.72195
1.72783
1.73354
1.73903
1.74425
1.74905
1.75329
1.7568
1.75925
1.76109
1.76183
1.76277
1.30705
1.30545
1.31179
1.31377
1.30074
1.27466
1.22825
1.14896
1.06215
1.00952
0.993212
0.995877
1.0088
1.03074
1.05446
1.07464
1.09104
1.10491
1.11815
1.13158
1.14616
1.16171
1.17864
1.19653
1.21556
1.23538
1.25607
1.27739
1.29925
1.32161
1.34415
1.36713
1.38995
1.41316
1.436
1.45905
1.48166
1.50422
1.52633
1.54819
1.5695
1.5904
1.61061
1.63015
1.64876
1.66639
1.68253
1.69731
1.70967
1.72056
1.72985
1.73686
1.74093
1.74153
1.73895
1.73046
1.71569
1.69692
1.6773
1.65945
1.64574
1.63663
1.63208
1.63083
1.63113
1.63202
1.63407
1.63691
1.64028
1.64378
1.64767
1.65163
1.656
1.66054
1.66538
1.67045
1.6756
1.68108
1.6864
1.69217
1.69765
1.70358
1.70924
1.71521
1.721
1.7269
1.73269
1.73841
1.74407
1.74947
1.75476
1.75959
1.76409
1.76785
1.77078
1.77269
1.77365
1.77386
1.77279
1.77288
1.3402
1.32364
1.31588
1.30186
1.27271
1.2193
1.13453
1.04586
0.996247
0.981931
0.986053
1.00272
1.02833
1.05313
1.07353
1.08978