/*--------------------------------*- C++ -*----------------------------------*\
  =========                 |
  \\      /  F ield         | OpenFOAM: The Open Source CFD Toolbox
   \\    /   O peration     | Website:  https://openfoam.org
    \\  /    A nd           | Version:  9
     \\/     M anipulation  |
\*---------------------------------------------------------------------------*/
FoamFile
{
    format      ascii;
    class       volScalarField;
    location    "7";
    object      p;
}
// * * * * * * * * * * * * * * * * * * * * * * * * * * * * * * * * * * * * * //

dimensions      [1 -1 -2 0 0 0 0];

internalField   nonuniform List<scalar> 
5250
(
1.00001
1.00003
1.0001
1.00023
1.00063
1.00148
1.00378
1.00921
1.02273
1.05693
1.14208
1.36889
2.00679
3.88742
9.16966
11.4014
11.1936
11.0706
11.1531
11.3729
11.5953
11.7349
11.8421
11.9257
11.9905
1.00001
1.00003
1.00009
1.00025
1.00058
1.00155
1.00353
1.00949
1.02164
1.05765
1.13791
1.36659
1.98933
3.84549
9.06714
11.4067
11.1918
11.0612
11.1445
11.3649
11.587
11.7267
11.8354
11.9204
11.9866
1.00001
1.00003
1.00009
1.00024
1.00056
1.00151
1.00343
1.00922
1.02102
1.05603
1.1339
1.35561
1.95803
3.7519
8.83752
11.4182
11.184
11.0322
11.1138
11.3318
11.5511
11.6886
11.7966
11.8807
11.9469
1.00001
1.00003
1.00009
1.00022
1.00056
1.0014
1.00337
1.00864
1.02045
1.05286
1.12892
1.33757
1.91182
3.60892
8.47738
11.4421
11.1734
10.984
11.0615
11.2732
11.4878
11.6209
11.7256
11.8074
11.8742
1.00001
1.00003
1.00008
1.0002
1.00055
1.00125
1.00335
1.00766
1.02022
1.04777
1.12354
1.3124
1.85196
3.41927
7.98507
11.4802
11.1618
10.9188
10.99
11.1917
11.4001
11.5264
11.6257
11.7039
11.7723
1
1.00003
1.00007
1.0002
1.00046
1.00125
1.00284
1.00759
1.01756
1.04574
1.11079
1.28936
1.77159
3.19204
7.35655
11.5264
11.149
10.836
10.8983
11.0851
11.2845
11.4
11.4892
11.56
11.629
1
1.00002
1.00007
1.00017
1.00046
1.00104
1.00278
1.00637
1.01679
1.03955
1.10207
1.25557
1.68848
2.93062
6.61376
11.5588
11.133
10.7385
10.7877
10.9512
11.1366
11.2351
11.3061
11.3603
11.4241
1
1.00002
1.00006
1.00015
1.00041
1.00092
1.00248
1.00564
1.01494
1.03485
1.09023
1.2237
1.59769
2.65678
5.78179
11.5062
11.089
10.6283
10.6603
10.7888
10.9524
11.0242
11.0637
11.0824
11.121
1
1.00002
1.00005
1.00014
1.00033
1.00088
1.00206
1.00526
1.01278
1.03157
1.07886
1.19856
1.52116
2.44127
5.15241
11.1955
10.9415
10.5035
10.5105
10.5916
10.7228
10.7551
10.7437
10.6904
10.6399
1
1.00002
1.00005
1.00012
1.00031
1.00075
1.00193
1.00448
1.0118
1.02733
1.07139
1.1744
1.46179
2.26575
4.64267
10.5012
10.6224
10.4183
10.3349
10.3713
10.4431
10.425
10.3368
10.1241
9.8003
1
1.00001
1.00004
1.00011
1.00026
1.0007
1.00158
1.00426
1.00966
1.02568
1.06031
1.15698
1.40012
2.10357
4.14697
9.54417
10.4299
10.3016
10.1414
10.138
10.1278
10.0481
9.808
9.24131
7.7766
1
1.00001
1.00004
1.00009
1.00025
1.00055
1.00151
1.00339
1.00909
1.0209
1.0547
1.13237
1.34819
1.93677
3.66673
8.43147
10.3067
10.1963
9.96627
9.89543
9.82197
9.64957
9.26787
8.49976
6.98961
1
1.00001
1.00003
1.00008
1.0002
1.00049
1.00124
1.00291
1.00766
1.01758
1.04658
1.11087
1.29182
1.77388
3.18498
7.17495
10.2205
10.0984
9.81273
9.65565
9.52657
9.2749
8.80033
8.0221
6.83713
1
1.00001
1.00003
1.00006
1.00017
1.00039
1.00103
1.00242
1.00614
1.01492
1.03691
1.09204
1.23318
1.61586
2.70644
5.81711
10.0759
9.98216
9.69056
9.4319
9.24063
8.94759
8.46184
7.75151
6.82105
1
1.00001
1.00002
1.00005
1.00013
1.00033
1.00081
1.00196
1.00496
1.01166
1.03014
1.07179
1.18456
1.47489
2.29437
4.60231
9.65817
9.77651
9.57749
9.2331
8.98503
8.67508
8.21282
7.58006
6.80533
1
1.00001
1.00002
1.00004
1.00011
1.00027
1.00065
1.00163
1.00383
1.00995
1.02312
1.06024
1.14551
1.38235
2.02642
3.88553
8.61638
9.51025
9.37508
9.06374
8.76728
8.44739
8.01523
7.44989
6.77968
1
1
1.00001
1.00003
1.00009
1.0002
1.00054
1.00122
1.00327
1.00737
1.01976
1.04537
1.11952
1.29579
1.80308
3.22658
7.10282
9.25996
9.18078
8.93528
8.59282
8.25676
7.85001
7.34142
6.75087
1
1
1.00001
1.00003
1.00006
1.00017
1.00038
1.00104
1.00231
1.00624
1.014
1.03749
1.08753
1.22963
1.59316
2.63354
5.50179
9.02128
9.02112
8.85041
8.47859
8.10248
7.71021
7.24873
6.72248
1
1
1.00001
1.00002
1.00005
1.00012
1.00032
1.00072
1.00188
1.00439
1.01106
1.02688
1.06651
1.16604
1.42796
2.14404
4.10636
8.43835
8.8946
8.74344
8.38691
7.97816
7.59366
7.16969
6.69541
1
1
1.00001
1.00002
1.00004
1.0001
1.00022
1.00059
1.00132
1.00353
1.00793
1.02117
1.04873
1.12742
1.31563
1.85217
3.33032
7.14116
8.64196
8.55863
8.30099
7.88369
7.49818
7.10085
6.66871
1
1
1
1.00001
1.00003
1.00007
1.00018
1.0004
1.00106
1.0024
1.00641
1.01437
1.03856
1.08936
1.23504
1.60416
2.65173
5.45958
8.3478
8.3702
8.21663
7.85426
7.43149
7.04198
6.64258
1
1
1
1.00001
1.00002
1.00005
1.00013
1.00029
1.00075
1.00177
1.00438
1.01078
1.02596
1.06492
1.15994
1.41054
2.08292
3.87234
7.71235
8.25702
8.13588
7.82516
7.38484
6.99568
6.61933
1
1
1
1.00001
1.00001
1.00004
1.00009
1.00022
1.00052
1.00128
1.00318
1.00753
1.01922
1.04531
1.11616
1.28826
1.76542
3.05977
6.35254
8.02733
7.98083
7.78221
7.37085
6.96675
6.60059
1
1
1
1
1.00001
1.00003
1.00006
1.00015
1.00038
1.00087
1.00228
1.00517
1.01367
1.0311
1.08171
1.19578
1.51676
2.3623
4.59373
7.60084
7.83265
7.70547
7.37918
6.96438
6.59411
1
1
1
1
1.00001
1.00002
1.00004
1.0001
1.00027
1.00059
1.00158
1.00352
1.00941
1.02109
1.05574
1.13086
1.34114
1.88108
3.32444
6.65709
7.66157
7.59335
7.37105
6.97447
6.59718
1
1
1
1
1.00001
1.00001
1.00003
1.00007
1.00017
1.00043
1.00101
1.00261
1.00591
1.01558
1.03551
1.09273
1.22379
1.58946
2.55017
5.02632
7.32049
7.43705
7.32573
7.0219
6.61234
1
1
1
1
1
1.00001
1.00002
1.00005
1.00011
1.00029
1.00066
1.00174
1.00386
1.01029
1.02304
1.06067
1.14216
1.36951
1.94329
3.42319
6.59273
7.30234
7.23842
7.03305
6.65038
1
1
1
1
1
1.00001
1.00001
1.00003
1.00008
1.00019
1.00045
1.0011
1.00273
1.00637
1.01634
1.03787
1.0973
1.23646
1.61752
2.60894
5.10084
7.01086
7.10464
7.00635
6.7405
1
1
1
1
1
1
1.00001
1.00002
1.00005
1.00012
1.00031
1.00068
1.00178
1.00403
1.01041
1.0241
1.06083
1.1466
1.37309
1.94789
3.38467
6.36444
6.98768
6.94126
6.77143
1
1
1
1
1
1
1.00001
1.00001
1.00003
1.00007
1.0002
1.00044
1.00115
1.00262
1.00666
1.01578
1.03881
1.09518
1.23701
1.60685
2.5745
4.96948
6.70605
6.82923
6.74669
1
1
1
1
1
1
1
1.00001
1.00002
1.00005
1.00011
1.0003
1.00067
1.00175
1.00394
1.01016
1.02347
1.0591
1.14206
1.35972
1.90689
3.25681
6.05491
6.7027
6.67516
1
1
1
1
1
1
1
1.00001
1.00001
1.00003
1.00007
1.00019
1.00042
1.0011
1.00248
1.00643
1.01479
1.03723
1.08933
1.22411
1.56638
2.45795
4.64408
6.38537
6.57687
1
1
1
1
1
1
1
1
1.00001
1.00002
1.00005
1.00011
1.00027
1.00066
1.00153
1.00392
1.00884
1.02304
1.05244
1.13492
1.32635
1.83143
3.05187
5.6546
6.42406
1
1
1
1
1
1
1
1
1.00001
1.00001
1.00003
1.00007
1.00017
1.00038
1.001
1.00225
1.0058
1.01332
1.03353
1.07991
1.19965
1.49934
2.26943
4.13489
6.03519
1
1
1
1
1
1
1
1
1
1.00001
1.00002
1.00004
1.0001
1.00024
1.00059
1.00136
1.00348
1.00783
1.02035
1.04612
1.1189
1.28464
1.72398
2.78677
5.15464
1
1
1
1
1
1
1
1
1
1
1.00001
1.00002
1.00006
1.00014
1.00034
1.00085
1.00193
1.00497
1.01114
1.02899
1.06592
1.16884
1.40893
2.02837
3.4853
1
1
1
1
1
1
1
1
1
1
1.00001
1.00001
1.00004
1.00008
1.00021
1.00047
1.00123
1.00275
1.00704
1.01629
1.04029
1.09705
1.24001
1.59841
2.4922
1
1
1
1
1
1
1
1
1
1
1
1.00001
1.00002
1.00005
1.00012
1.0003
1.00069
1.00167
1.00406
1.00951
1.02372
1.05529
1.13827
1.33522
1.83464
1
1
1
1
1
1
1
1
1
1
1
1.00001
1.00001
1.00003
1.00007
1.00018
1.00042
1.00106
1.00241
1.0062
1.01387
1.0361
1.08211
1.21119
1.51393
1
1
1
1
1
1
1
1
1
1
1
1
1.00001
1.00002
1.00005
1.00012
1.00031
1.00071
1.00183
1.00413
1.0109
1.02466
1.06492
1.15395
1.40406
1
1
1
1
1
1
1
1
1
1
1
1
1.00001
1.00002
1.00004
1.0001
1.00025
1.00058
1.00153
1.00347
1.00934
1.02133
1.05702
1.137
1.36594
1
1
1
1
1
1
1
1
1
1
1
1
1.00001
1.00002
1.00004
1.00009
1.00022
1.00055
1.00139
1.00333
1.0087
1.02057
1.05423
1.13309
1.35509
1
1
1
1
1
1
1
1
1
1
1
1
1.00001
1.00001
1.00004
1.00008
1.00022
1.00053
1.00132
1.00336
1.00808
1.02112
1.05123
1.1333
1.34669
1
1
1
1
1
1
1
1
1
1
1
1
1.00001
1.00001
1.00003
1.00008
1.00021
1.00053
1.00128
1.00334
1.00792
1.02102
1.05049
1.13272
1.34372
1
1
1
1
1
1
1
1
1
1
1
1
1.00001
1.00001
1.00003
1.00008
1.0002
1.00052
1.00125
1.00332
1.00775
1.02087
1.04971
1.13141
1.33966
1
1
1
1
1
1
1
1
1
1
1
1
1.00001
1.00001
1.00003
1.00008
1.00021
1.00049
1.0013
1.00308
1.00803
1.01973
1.05033
1.12768
1.33744
1
1
1
1
1
1
1
1
1
1
1
1
1
1.00001
1.00003
1.00008
1.00019
1.00052
1.00118
1.00325
1.00746
1.0203
1.0482
1.12792
1.33018
1
1
1
1
1
1
1
1
1
1
1
1
1.00001
1.00001
1.00003
1.00007
1.0002
1.00047
1.00127
1.00294
1.00794
1.01879
1.0496
1.12332
1.33019
1
1
1
1
1
1
1
1
1
1
1
1
1
1.00001
1.00003
1.00008
1.00018
1.0005
1.00114
1.00317
1.00723
1.01988
1.04693
1.12548
1.32334
1
1
1
1
1
1
1
1
1
1
1
1
1.00001
1.00001
1.00003
1.00007
1.00019
1.00047
1.00118
1.00306
1.00735
1.01945
1.0472
1.12404
1.32335
3.62717
2.77692
3.70774
4.17286
3.85728
3.7546
3.70231
3.65948
3.58023
3.48994
3.40813
3.33291
3.25355
3.16938
3.08663
3.0117
2.94527
2.879
2.80987
2.77553
2.76203
2.75914
2.78116
2.84534
2.95165
3.09133
3.24943
3.41318
3.57486
3.72952
3.87485
4.00933
4.13115
4.24094
4.33955
4.42831
4.50827
4.581
4.64591
4.70236
4.75064
4.79148
4.8249
4.85414
4.87872
4.89625
4.90651
4.91169
4.91189
4.90972
4.90318
4.89068
4.87472
4.85628
4.83555
4.81258
4.78733
4.7601
4.73102
4.7003
4.66805
4.6344
4.59948
4.56338
4.52621
4.48802
4.44891
4.40891
4.36811
4.32654
4.28427
4.24133
4.19781
4.15372
4.10915
4.06412
4.0187
3.97295
3.92693
3.88071
3.83435
3.78792
3.74149
3.69514
3.64892
3.60291
3.55716
3.51174
3.46672
3.42217
3.37822
3.33498
3.29262
3.25138
3.21159
3.17376
3.13859
3.10731
3.08153
3.06478
4.48224
3.80183
4.08416
4.0644
3.85639
3.75054
3.74553
3.70207
3.58784
3.48077
3.39321
3.3245
3.25099
3.16798
3.08426
3.00689
2.93914
2.87757
2.81695
2.77572
2.75778
2.75346
2.77233
2.83321
2.93666
3.0764
3.23636
3.40152
3.56385
3.71855
3.86366
3.9978
4.11986
4.2293
4.32739
4.41587
4.49527
4.56915
4.63563
4.69259
4.74127
4.7827
4.81723
4.84654
4.87118
4.88922
4.90043
4.90598
4.90651
4.90489
4.89948
4.88773
4.87107
4.85247
4.832
4.80929
4.78428
4.75717
4.72819
4.69753
4.66535
4.63176
4.59689
4.56084
4.52371
4.48557
4.4465
4.40656
4.3658
4.32429
4.28208
4.23922
4.19575
4.15174
4.10722
4.06226
4.01691
3.97122
3.92526
3.8791
3.8328
3.78643
3.74006
3.69376
3.64759
3.60162
3.55592
3.51052
3.46553
3.42099
3.37703
3.33376
3.29134
3.25
3.21006
3.17198
3.13662
3.10501
3.07871
3.06157
5.30058
4.44509
4.25175
4.08723
3.8887
3.77075
3.72263
3.65976
3.5695
3.47316
3.39452
3.331
3.25148
3.16319
3.0755
2.99462
2.92489
2.86738
2.81817
2.77603
2.75211
2.74455
2.75972
2.81466
2.91223
3.05066
3.21286
3.37837
3.54067
3.69507
3.84176
3.9783
4.10213
4.213
4.31287
4.40301
4.48408
4.55817
4.62418
4.68165
4.73103
4.77317
4.80851
4.8382
4.86246
4.8807
4.89256
4.89867
4.89951
4.89831
4.89398
4.88391
4.86689
4.84786
4.82726
4.80472
4.77996
4.75305
4.72418
4.69359
4.66145
4.62791
4.59308
4.55708
4.51998
4.48189
4.44286
4.40297
4.36226
4.32082
4.27867
4.23588
4.19249
4.14856
4.10412
4.05924
4.01397
3.96835
3.92248
3.87639
3.83017
3.78387
3.7376
3.69136
3.64528
3.59936
3.55372
3.50836
3.46339
3.41885
3.3749
3.33159
3.28901
3.24755
3.20748
3.16921
3.13339
3.10115
3.07389
3.05581
5.68541
4.82226
4.38968
4.14708
3.95804
3.81829
3.73394
3.65912
3.5652
3.46975
3.38666
3.31504
3.23786
3.15219
3.06721
2.98831
2.91983
2.86364
2.81444
2.77435
2.74306
2.72682
2.74146
2.79882
2.89036
3.02588
3.18588
3.35183
3.51516
3.67094
3.81731
3.95345
4.0774
4.18906
4.28967
4.38081
4.46294
4.53736
4.60396
4.66246
4.71289
4.75597
4.79227
4.82261
4.84726
4.86611
4.87884
4.88581
4.88725
4.88641
4.88316
4.87522
4.85924
4.83976
4.81877
4.79631
4.77187
4.74532
4.71673
4.68636
4.65437
4.62099
4.58628
4.5504
4.51342
4.47545
4.43653
4.39676
4.35618
4.31486
4.27285
4.23019
4.18694
4.14314
4.09884
4.05409
4.00894
3.96345
3.9177
3.87173
3.82564
3.77947
3.73331
3.68722
3.64125
3.59547
3.54991
3.50468
3.45978
3.4152
3.37129
3.32806
3.28561
3.24406
3.2037
3.16505
3.12864
3.09559
3.06718
3.04797
5.8871
5.09274
4.57504
4.26341
4.04974
3.88927
3.76938
3.675
3.57764
3.47965
3.39242
3.31392
3.23074
3.14536
3.06224
2.98576
2.91857
2.86176
2.81337
2.77526
2.74986
2.74227
2.75474
2.80201
2.89705
3.01904
3.16412
3.31955
3.47781
3.63136
3.77695
3.91309
4.0384
4.15225
4.25527
4.34856
4.4329
4.50898
4.57697
4.63682
4.68862
4.73292
4.77034
4.80155
4.8269
4.8465
4.86021
4.8682
4.87054
4.86996
4.86757
4.86142
4.84836
4.82894
4.80766
4.78511
4.76089
4.73474
4.70658
4.6766
4.64493
4.6118
4.57733
4.54166
4.50487
4.46708
4.42835
4.38876
4.34836
4.30721
4.26538
4.2229
4.17982
4.13619
4.09205
4.04744
4.00245
3.9571
3.91149
3.86567
3.81974
3.77373
3.72776
3.68181
3.63604
3.59043
3.54495
3.49984
3.45509
3.41088
3.36696
3.32364
3.28107
3.23935
3.19876
3.15966
3.12262
3.08867
3.05901
3.03846
6.01293
5.30348
4.76894
4.40657
4.15571
3.97011
3.82948
3.71339
3.60845
3.50604
3.41043
3.32289
3.23717
3.15186
3.0694
2.99406
2.92926
2.87618
2.83433
2.80516
2.79049
2.79271
2.80884
2.85399
2.93952
3.03935
3.15663
3.28157
3.42224
3.56854
3.71528
3.85572
3.98612
4.10446
4.211
4.30692
4.3934
4.47136
4.54108
4.60268
4.65622
4.70218
4.74105
4.7735
4.79993
4.82062
4.83557
4.84486
4.84848
4.84815
4.8465
4.842
4.83207
4.81412
4.79312
4.77051
4.74642
4.72066
4.69304
4.6636
4.63243
4.59971
4.56561
4.53025
4.49377
4.45624
4.41777
4.37841
4.33826
4.29734
4.25573
4.21346
4.1706
4.12716
4.08321
4.03878
3.99395
3.94878
3.90335
3.85771
3.81197
3.76617
3.72041
3.67463
3.62904
3.58367
3.53863
3.49377
3.4492
3.40507
3.36126
3.31802
3.27535
3.23354
3.19267
3.15321
3.11554
3.08074
3.04984
3.02778
6.09542
5.46518
4.94445
4.55492
4.27176
4.06003
3.89837
3.76713
3.65235
3.54466
3.44296
3.34642
3.25636
3.17062
3.0893
3.01637
2.9563
2.91228
2.88563
2.87544
2.87917
2.89641
2.93708
2.9921
3.0462
3.1048
3.17499
3.2625
3.35075
3.47089
3.6142
3.7635
3.90722
4.03741
4.1525
4.25363
4.34327
4.42338
4.49509
4.55879
4.61462
4.66288
4.7039
4.73822
4.76628
4.78848
4.80496
4.81585
4.82121
4.82118
4.82026
4.8172
4.80996
4.79515
4.77507
4.75278
4.72895
4.70358
4.67652
4.6477
4.61718
4.58505
4.55145
4.51655
4.48045
4.44329
4.40514
4.3661
4.32623
4.2856
4.24425
4.20224
4.1596
4.11639
4.07264
4.02841
3.98377
3.93879
3.89356
3.84815
3.80264
3.75707
3.71159
3.66633
3.62111
3.57606
3.53118
3.48654
3.4421
3.39804
3.35431
3.31109
3.2684
3.22647
3.18541
3.1456
3.1074
3.07181
3.03983
3.01644
6.14987
5.5871
5.0934
4.69623
4.39084
4.15702
3.97473
3.828
3.70234
3.5882
3.48165
3.38197
3.28915
3.20265
3.12287
3.05437
3.00349
2.97635
2.97459
2.98181
3.00858
3.07158
3.15229
3.19314
3.2122
3.22462
3.23592
3.26076
3.31391
3.37625
3.47828
3.62325
3.78108
3.93311
4.06781
4.18293
4.28121
4.36596
4.44045
4.50616
4.56413
4.61482
4.6584
4.6952
4.72552
4.74978
4.76821
4.78101
4.78828
4.78977
4.78919
4.78707
4.78183
4.77076
4.75268
4.73153
4.70836
4.68349
4.65698
4.62882
4.599
4.56757
4.53463
4.5003
4.46472
4.42801
4.39028
4.35161
4.3121
4.27179
4.23075
4.18902
4.14665
4.10366
4.06013
4.0161
3.97168
3.92691
3.88191
3.83675
3.79163
3.74657
3.70154
3.65658
3.61169
3.56688
3.52219
3.47771
3.43345
3.38951
3.34591
3.30277
3.26012
3.21816
3.17697
3.1369
3.09827
3.06201
3.02909
3.00444
6.18604
5.67893
5.21626
4.82393
4.50705
4.25604
4.05677
3.89521
3.75854
3.63761
3.5265
3.42379
3.32871
3.24207
3.16582
3.10564
3.07325
3.07424
3.08571
3.12303
3.21061
3.35527
3.43681
3.44384
3.4342
3.40428
3.34214
3.30459
3.3104
3.33649
3.39247
3.4827
3.61479
3.77695
3.93433
4.07443
4.19328
4.29205
4.37464
4.44478
4.50547
4.55828
4.60416
4.64347
4.67638
4.70327
4.72425
4.73949
4.74911
4.75308
4.75286
4.75161
4.74814
4.74047
4.72541
4.70624
4.6843
4.66026
4.63444
4.60698
4.57792
4.54727
4.51509
4.48147
4.44652
4.41037
4.37314
4.33493
4.29583
4.2559
4.21521
4.17379
4.1317
4.08896
4.04566
4.00187
3.95769
3.9132
3.86864
3.82402
3.7794
3.73474
3.69007
3.64538
3.60072
3.55615
3.51168
3.46742
3.42335
3.37961
3.33615
3.29316
3.25059
3.20867
3.16743
3.12721
3.08825
3.05148
3.01781
2.99206
6.20941
5.74852
5.31673
4.9362
4.61625
4.35416
4.14127
3.96681
3.82012
3.69224
3.57652
3.47137
3.37549
3.29083
3.22171
3.17791
3.1787
3.19105
3.23197
3.3302
3.5322
3.71096
3.75586
3.74384
3.70214
3.60684
3.47587
3.38042
3.33944
3.34371
3.36557
3.41612
3.49271
3.60331
3.75199
3.90767
4.05351
4.17916
4.28287
4.36704
4.43589
4.49322
4.54183
4.58348
4.61878
4.64848
4.67251
4.69078
4.70343
4.71056
4.71208
4.7115
4.70943
4.7044
4.69385
4.67706
4.6568
4.63403
4.60922
4.58262
4.55438
4.52455
4.49318
4.46034
4.42611
4.39062
4.35398
4.31631
4.27768
4.23819
4.19787
4.15678
4.11497
4.07247
4.02941
3.98585
3.94207
3.89815
3.85414
3.81001
3.76577
3.72144
3.67703
3.63262
3.58821
3.54391
3.49969
3.45568
3.41183
3.36831
3.32504
3.28222
3.23979
3.19796
3.15675
3.11647
3.07732
3.04018
3.00595
2.9793
6.22399
5.80172
5.39866
5.03344
4.71617
4.44861
4.22598
4.04109
3.88515
3.75061
3.63134
3.52432
3.42954
3.35117
3.29551
3.2885
3.29953
3.33967
3.44033
3.65655
3.95761
4.10087
4.09603
4.06259
3.97529
3.7995
3.6302
3.50179
3.41991
3.38476
3.38736
3.40314
3.44389
3.50189
3.59007
3.71256
3.86111
4.00874
4.14178
4.25343
4.34321
4.41417
4.47062
4.51657
4.55477
4.58685
4.61355
4.63492
4.65093
4.66157
4.66686
4.66685
4.666
4.66324
4.6568
4.6437
4.62558
4.6045
4.58104
4.55555
4.52824
4.49928
4.46874
4.43671
4.40326
4.36851
4.33254
4.29548
4.2574
4.21838
4.17848
4.13773
4.09623
4.05397
4.0113
3.96831
3.92511
3.88171
3.83813
3.79437
3.75046
3.70643
3.66233
3.61822
3.57412
3.5301
3.48617
3.44243
3.39886
3.35557
3.31255
3.26994
3.22771
3.18604
3.14494
3.10469
3.06549
3.02813
2.99355
2.9662
6.23333
5.8434
5.46596
5.1173
4.80657
4.53781
4.30933
4.11659
3.95311
3.81272
3.6903
3.58369
3.49348
3.42684
3.40737
3.41654
3.45266
3.54653
3.75114
4.1419
4.42341
4.46986
4.44614
4.36986
4.2039
3.98754
3.80113
3.65534
3.54865
3.47834
3.43917
3.435
3.44162
3.46489
3.51187
3.5751
3.66902
3.80092
3.94387
4.08172
4.20246
4.30088
4.37753
4.43645
4.4822
4.51859
4.54817
4.57235
4.59139
4.60559
4.61473
4.61837
4.61815
4.61686
4.61327
4.60535
4.59035
4.57145
4.54971
4.52561
4.49944
4.47144
4.44179
4.4106
4.37798
4.34401
4.3088
4.27242
4.23496
4.19647
4.157
4.1166
4.07541
4.0337
3.9916
3.9492
3.90652
3.86355
3.82036
3.77695
3.73339
3.68971
3.64595
3.60218
3.5584
3.51471
3.47109
3.42766
3.38438
3.3414
3.29865
3.25631
3.21433
3.17288
3.13197
3.09187
3.05272
3.0153
2.98054
2.95266
6.23892
5.8762
5.52249
5.19001
4.88813
4.62146
4.39039
4.19246
4.02335
3.87857
3.75465
3.65165
3.57154
3.53837
3.54543
3.57739
3.6647
3.86043
4.25914
4.68074
4.83575
4.82261
4.76576
4.62987
4.39316
4.17018
3.9827
3.83025
3.70835
3.61399
3.54418
3.49905
3.47493
3.47659
3.4879
3.51497
3.55923
3.62829
3.73407
3.86647
4.00477
4.13212
4.24002
4.32581
4.39095
4.43957
4.4762
4.50447
4.52662
4.54382
4.55626
4.56395
4.56654
4.56616
4.5645
4.56017
4.55084
4.53487
4.51521
4.49277
4.46795
4.44107
4.41239
4.38211
4.35037
4.31726
4.28286
4.24723
4.21043
4.17249
4.13346
4.0935
4.0529
4.01183
3.97035
3.92848
3.88627
3.84374
3.80093
3.75792
3.71473
3.67143
3.62803
3.58463
3.5412
3.49786
3.45459
3.4115
3.36856
3.3259
3.28348
3.24145
3.19977
3.15862
3.11798
3.0781
3.03914
3.00179
2.96702
2.9388
6.24448
5.90292
5.57014
5.25403
4.96223
4.70026
4.46921
4.26858
4.09609
3.94918
3.82753
3.73298
3.68236
3.68711
3.71431
3.79439
3.9801
4.36634
4.8781
5.16688
5.16651
5.13181
5.03067
4.81727
4.5704
4.35461
4.17225
4.01773
3.88603
3.77445
3.68147
3.60691
3.55094
3.51367
3.49901
3.50257
3.51557
3.54337
3.59163
3.66909
3.7862
3.91451
4.04459
4.16214
4.25904
4.33356
4.38821
4.42751
4.45596
4.47699
4.49251
4.5034
4.50979
4.51145
4.51095
4.50898
4.50405
4.49364
4.47692
4.45652
4.43332
4.40779
4.38025
4.351
4.32022
4.28803
4.25449
4.21964
4.18353
4.14613
4.10766
4.06837
4.02848
3.98805
3.94714
3.90578
3.86403
3.82195
3.77958
3.73699
3.69421
3.65131
3.60831
3.5653
3.52226
3.47931
3.43643
3.39373
3.35117
3.30889
3.26686
3.22521
3.18391
3.14311
3.10283
3.06329
3.02462
2.9875
2.9529
2.92452
6.25207
5.92687
5.61263
5.31226
5.03157
4.77534
4.5463
4.34525
4.17217
4.02712
3.91453
3.84134
3.84322
3.86538
3.93797
4.11261
4.48122
5.05047
5.4275
5.49706
5.47148
5.38827
5.20754
4.96477
4.73867
4.54025
4.36605
4.21113
4.07213
3.94759
3.83709
3.74102
3.66
3.59447
3.54655
3.51438
3.50911
3.51301
3.52639
3.55685
3.61187
3.6984
3.81732
3.94539
4.06928
4.17739
4.26342
4.32711
4.37193
4.40275
4.42388
4.43837
4.44774
4.45285
4.45344
4.45281
4.45059
4.44516
4.43384
4.41634
4.39528
4.37147
4.34537
4.31735
4.28764
4.25642
4.22377
4.18972
4.15426
4.11751
4.0798
4.0413
4.00213
3.96233
3.922
3.88118
3.83995
3.79835
3.75646
3.71433
3.672
3.62954
3.58698
3.5444
3.5018
3.45928
3.41682
3.37455
3.33243
3.29059
3.24898
3.20776
3.1669
3.12654
3.0867
3.0476
3.00937
2.97263
2.93838
2.91004
6.26656
5.95333
5.65443
5.36788
5.09752
4.84789
4.62259
4.42385
4.25403
4.11879
4.02455
4.01206
4.03058
4.09675
4.26163
4.61415
5.21427
5.66243
5.79798
5.78061
5.7156
5.5664
5.33324
5.10843
4.90737
4.72594
4.55909
4.40384
4.25901
4.12454
4.00096
3.88894
3.78925
3.70253
3.62983
3.57145
3.53036
3.50665
3.50677
3.50988
3.52357
3.55657
3.62163
3.71914
3.83875
3.96428
4.08108
4.17934
4.25478
4.30842
4.34423
4.36717
4.38135
4.3896
4.39309
4.39298
4.39211
4.38947
4.38336
4.37086
4.35286
4.33149
4.30735
4.28087
4.25241
4.22223
4.19048
4.15719
4.12245
4.08653
4.04969
4.012
3.97356
3.93444
3.89473
3.85449
3.8138
3.77274
3.73136
3.68972
3.64788
3.6059
3.56381
3.52171
3.47958
3.43755
3.39557
3.35379
3.31215
3.2708
3.2297
3.18898
3.14864
3.10882
3.06953
3.03099
2.99335
2.95718
2.92349
2.89543
6.29611
5.98629
5.69776
5.42247
5.16158
4.91904
4.69938
4.50678
4.34873
4.23304
4.19807
4.21372
4.27419
4.4296
4.76513
5.37925
5.88118
6.07029
6.06059
6.01249
5.89408
5.67461
5.456
5.25826
5.07789
4.90865
4.74667
4.59082
4.44151
4.29972
4.16656
4.04286
3.92949
3.82695
3.73601
3.65724
3.59155
3.54044
3.50525
3.49204
3.48816
3.49207
3.50899
3.54858
3.62449
3.72956
3.84981
3.97158
4.0814
4.1703
4.23533
4.27891
4.30587
4.32127
4.3288
4.33074
4.3304
4.3291
4.32575
4.31854
4.30473
4.28676
4.26535
4.241
4.21417
4.18524
4.15447
4.12198
4.0881
4.05312
4.01718
3.98033
3.94268
3.90428
3.86526
3.82566
3.78558
3.7451
3.70427
3.66319
3.62187
3.58044
3.53888
3.49731
3.45571
3.41421
3.37277
3.33152
3.29044
3.24964
3.20911
3.16898
3.12924
3.09006
3.05144
3.01362
2.97675
2.9414
2.90851
2.88108
6.35341
6.02956
5.74395
5.47682
5.22461
4.99029
4.77956
4.60045
4.46409
4.40562
4.41784
4.47238
4.61858
4.93817
5.55564
6.09257
6.32722
6.3233
6.28586
6.18675
5.98631
5.77708
5.58701
5.41344
5.24825
5.08668
4.92711
4.7702
4.61738
4.47025
4.3301
4.19788
4.0744
3.96014
3.85563
3.76131
3.67776
3.60577
3.54659
3.5018
3.47674
3.46284
3.45968
3.46511
3.48677
3.53491
3.62052
3.72999
3.85189
3.96975
4.07137
4.15006
4.20471
4.2387
4.25734
4.26549
4.26642
4.26583
4.26395
4.25961
4.25064
4.23631
4.2182
4.19668
4.1721
4.1449
4.11538
4.08396
4.05114
4.01713
3.98211
3.94615
3.90934
3.87174
3.83347
3.79457
3.75516
3.71531
3.67509
3.6346
3.59388
3.55303
3.51205
3.47107
3.43006
3.38915
3.34832
3.30767
3.26721
3.22704
3.18717
3.14773
3.10871
3.07029
3.03251
2.99561
2.95975
2.92553
2.89379
2.86749
6.42288
6.08385
5.79343
5.5311
5.28754
5.06416
4.86939
4.71525
4.63447
4.64328
4.69235
4.83136
5.13947
5.7534
6.31061
6.57624
6.5813
6.54919
6.45615
6.26565
6.06732
5.88934
5.72665
5.5704
5.41448
5.25695
5.09827
4.94043
4.78523
4.63443
4.48933
4.35095
4.21996
4.09696
3.98224
3.87625
3.7793
3.69197
3.61502
3.54915
3.49669
3.45826
3.43998
3.4224
3.42268
3.43087
3.45762
3.51542
3.61113
3.72412
3.84464
3.95764
4.05108
4.11962
4.16405
4.18879
4.19936
4.20006
4.19921
4.19666
4.19108
4.18011
4.16522
4.14682
4.1251
4.10028
4.07266
4.04282
4.0113
3.97839
3.94437
3.90933
3.87342
3.83667
3.7992
3.76107
3.72239
3.68324
3.6437
3.60388
3.56382
3.52363
3.48331
3.44298
3.40264
3.36239
3.32223
3.28228
3.24252
3.20308
3.16397
3.12533
3.08718
3.0497
3.01296
2.97724
2.94271
2.91009
2.87998
2.85556
6.52408
6.15872
5.85077
5.58799
5.35371
5.14739
4.97986
4.88083
4.88675
4.93176
5.06689
5.37155
5.98191
6.55211
6.83101
6.8451
6.81251
6.71777
6.52549
6.33236
6.16466
6.01455
5.86981
5.72329
5.5722
5.41692
5.25914
5.10108
4.94462
4.79155
4.64298
4.50017
4.36363
4.23405
4.11158
3.9967
3.8896
3.7907
3.70028
3.61911
3.54799
3.48838
3.44098
3.41043
3.38976
3.37652
3.37866
3.39141
3.4247
3.49358
3.59392
3.71138
3.83025
3.93686
4.02111
4.07918
4.11322
4.12888
4.13083
4.12982
4.12667
4.11977
4.1074
4.09152
4.07263
4.05059
4.02551
3.99784
3.96807
3.93658
3.90374
3.86973
3.83476
3.79889
3.76228
3.72498
3.6871
3.64874
3.60997
3.57091
3.5316
3.49215
3.45257
3.41299
3.37339
3.3339
3.2945
3.25533
3.21639
3.17779
3.13958
3.1019
3.0648
3.02849
2.99309
2.95894
2.92623
2.8959
2.8681
2.84674
6.54001
6.24791
5.92154
5.65347
5.43104
5.25281
5.13944
5.14335
5.18623
5.32142
5.63063
6.25216
6.83
7.11088
7.12031
7.08471
6.98297
6.77914
6.58649
6.42306
6.28056
6.14622
6.01007
5.86813
5.71978
5.56632
5.40973
5.25208
5.09532
4.94096
4.79041
4.64443
4.50391
4.36923
4.24086
4.11917
4.00423
3.89654
3.79603
3.70334
3.61884
3.54335
3.47777
3.42347
3.38288
3.35652
3.33379
3.32429
3.32854
3.34617
3.38714
3.46936
3.57326
3.69192
3.80777
3.90669
3.98054
4.02753
4.05142
4.05765
4.0567
4.05339
4.04585
4.03219
4.01541
3.99567
3.97318
3.94809
3.92061
3.89105
3.85977
3.82702
3.7931
3.7582
3.72251
3.68611
3.64913
3.61166
3.57377
3.53558
3.49712
3.45852
3.41978
3.38104
3.34229
3.30366
3.26515
3.22688
3.18889
3.15129
3.11416
3.07764
3.04186
3.00705
2.9734
2.9414
2.91124
2.88422
2.85989
2.84331
6.51152
6.333
6.00833
5.73652
5.53323
5.40483
5.40785
5.45177
5.59321
5.91733
6.56541
7.15053
7.42683
7.42322
7.37613
7.25405
7.03507
6.83542
6.6721
6.53419
6.40704
6.27916
6.14585
6.00544
5.85841
5.70626
5.55087
5.39404
5.23756
5.08273
4.93087
4.78274
4.63928
4.50082
4.36805
4.24099
4.12005
4.00527
3.89719
3.7957
3.70131
3.61423
3.53522
3.46485
3.40466
3.35503
3.32067
3.29288
3.2717
3.26919
3.27587
3.29832
3.34779
3.4386
3.54719
3.66495
3.77573
3.86581
3.9287
3.96473
3.97922
3.97876
3.97598
3.96906
3.95498
3.93691
3.91621
3.89327
3.86816
3.84089
3.81161
3.78052
3.74799
3.71428
3.67967
3.64431
3.60834
3.57188
3.53499
3.4978
3.46032
3.4227
3.38493
3.34716
3.30938
3.27173
3.23424
3.19702
3.16015
3.12374
3.08792
3.05287
3.01877
2.98595
2.95472
2.92574
2.89933
2.87715
2.85838
2.84633
6.42206
6.33865
6.13493
5.86219
5.68303
5.68125
5.72605
5.87725
6.22651
6.92485
7.52317
7.78008
7.76862
7.69995
7.53726
7.30013
7.08834
6.91941
6.78156
6.65811
6.5368
6.41044
6.27696
6.13629
5.98955
5.83814
5.68375
5.52781
5.37184
5.217
5.06443
4.91495
4.76936
4.6281
4.49177
4.36051
4.23487
4.11472
4.00056
3.89224
3.79023
3.69448
3.60553
3.52361
3.44958
3.38411
3.3283
3.28517
3.25204
3.22484
3.20696
3.20867
3.21945
3.24806
3.30797
3.40267
3.51496
3.63084
3.73469
3.81481
3.86614
3.89223
3.89572
3.89389
3.88804
3.87547
3.85637
3.83458
3.8111
3.78582
3.75863
3.72955
3.69884
3.66673
3.63352
3.59943
3.56464
3.52933
3.49357
3.4575
3.42114
3.38462
3.34796
3.3113
3.27465
3.23815
3.20185
3.1659
3.13037
3.09543
3.06125
3.02809
2.99624
2.96617
2.93837
2.91383
2.89312
2.87795
2.86363
2.85741
6.34332
6.31832
6.22408
6.02606
5.97003
6.01753
6.18328
6.56861
7.33278
7.9505
8.18254
8.15989
8.06074
7.84292
7.57867
7.352
7.17403
7.03144
6.90729
6.7881
6.66619
6.53778
6.40238
6.26057
6.1136
5.96264
5.80905
5.65397
5.49858
5.34397
5.19103
5.04071
4.89352
4.75024
4.61112
4.47672
4.34718
4.22284
4.10375
3.99015
3.88206
3.77971
3.68316
3.59273
3.50867
3.43159
3.36195
3.30121
3.24959
3.21149
3.17717
3.15192
3.13904
3.14274
3.15781
3.19342
3.26559
3.36346
3.47715
3.58943
3.68459
3.75332
3.79312
3.80754
3.80648
3.80211
3.79205
3.77269
3.75088
3.72675
3.70104
3.6738
3.64513
3.61501
3.58362
3.55116
3.51785
3.48391
3.44944
3.41465
3.37953
3.34428
3.30889
3.27352
3.23818
3.20305
3.16818
3.13373
3.09986
3.06677
3.03474
3.00412
2.9754
2.9493
2.92656
2.90898
2.89558
2.88612
2.88076
2.88201
6.15298
6.29986
6.29012
6.28123
6.33412
6.52514
6.96544
7.80458
8.43857
8.63493
8.59701
8.45963
8.17361
7.87601
7.62998
7.44032
7.29057
7.16205
7.04099
6.91913
6.79267
6.6602
6.52199
6.37865
6.23116
6.08042
5.92739
5.773
5.61815
5.46382
5.31076
5.15986
5.01161
4.86676
4.72557
4.58866
4.45608
4.32835
4.20532
4.08747
3.97453
3.86695
3.76445
3.66749
3.57594
3.49031
3.41073
3.33789
3.27252
3.21534
3.16924
3.1311
3.09865
3.07417
3.07136
3.07684
3.09545
3.13687
3.21942
3.32109
3.43377
3.54
3.62529
3.6811
3.71144
3.71301
3.71066
3.70327
3.68752
3.66496
3.63991
3.61384
3.58687
3.55878
3.52949
3.49907
3.46764
3.4354
3.40248
3.36915
3.33547
3.30164
3.26772
3.23383
3.20006
3.16655
3.13342
3.10086
3.0691
3.03846
3.00932
2.98232
2.95815
2.93793
2.92351
2.91328
2.90802
2.90943
2.91526
2.93079
5.67231
6.24046
6.4103
6.58113
6.91662
7.55969
8.40698
9.00422
9.13629
9.07641
8.89158
8.52431
8.19328
7.92564
7.72198
7.5631
7.42817
7.30225
7.1769
7.04837
6.91546
6.77814
6.63662
6.49143
6.34307
6.19219
6.03936
5.88537
5.7309
5.57676
5.4237
5.27238
5.12343
4.97735
4.83464
4.69569
4.56078
4.43023
4.30413
4.1827
4.06598
3.95403
3.84688
3.74462
3.64741
3.55525
3.46828
3.38678
3.31129
3.2422
3.18074
3.12746
3.08564
3.0457
3.01597
2.99591
2.99735
3.00632
3.03062
3.08205
3.16973
3.27498
3.38529
3.4831
3.55687
3.60058
3.61616
3.615
3.60998
3.5983
3.57601
3.55161
3.52556
3.49871
3.47117
3.44282
3.41355
3.38338
3.35243
3.32091
3.28899
3.25686
3.22466
3.19254
3.16062
3.12908
3.0981
3.06795
3.03898
3.0117
2.98664
2.96513
2.94756
2.93772
2.93003
2.93067
2.9351
2.94786
2.97471
3.03009
4.57154
6.03234
6.64173
7.20883
8.10544
9.15155
9.73298
9.72535
9.61457
9.33207
8.90426
8.53343
8.2399
8.02171
7.85323
7.71066
7.57777
7.44595
7.31181
7.17459
7.03446
6.8919
6.74671
6.59929
6.44964
6.2981
6.14503
5.99109
5.83675
5.68267
5.52954
5.37807
5.22862
5.0817
4.93781
4.79734
4.66061
4.52781
4.39919
4.27491
4.1551
4.03957
3.92856
3.82202
3.72008
3.62261
3.52998
3.44207
3.35918
3.28156
3.20966
3.14431
3.08589
3.03724
2.9944
2.95692
2.92907
2.91827
2.92136
2.93407
2.96477
3.02782
3.11958
3.22642
3.33172
3.42041
3.47926
3.51067
3.51444
3.51194
3.50399
3.48696
3.46272
3.43655