/*--------------------------------*- C++ -*----------------------------------*\
  =========                 |
  \\      /  F ield         | OpenFOAM: The Open Source CFD Toolbox
   \\    /   O peration     | Website:  https://openfoam.org
    \\  /    A nd           | Version:  9
     \\/     M anipulation  |
\*---------------------------------------------------------------------------*/
FoamFile
{
    format      ascii;
    class       surfaceScalarField;
    location    "7";
    object      phi;
}
// * * * * * * * * * * * * * * * * * * * * * * * * * * * * * * * * * * * * * //

dimensions      [1 0 -1 0 0 0 0];

internalField   nonuniform List<scalar> 
10325
(
0.00840002
1.43322e-10
0.00840004
1.05879e-10
0.00839996
2.92906e-09
0.00840016
1.24071e-09
0.00839972
2.06148e-08
0.00840052
1.87195e-08
0.00839885
1.05392e-07
0.00840093
1.80239e-07
0.00839598
5.32412e-07
0.00840252
1.29933e-06
0.0083847
3.30159e-06
0.00839487
9.45863e-06
0.00834704
3.03678e-05
0.00823369
0.000117298
0.0076255
0.000592564
0.00698985
0.000637218
0.00637506
0.000615548
0.00573509
0.000639507
0.00506314
0.00067138
0.00435032
0.000712403
0.00358546
0.0007642
0.00276725
0.000817739
0.00189863
0.000867623
0.000978736
0.000918561
0.000978056
0.00840003
1.62415e-10
0.0084
1.01048e-09
0.00840007
3.54881e-09
0.0083999
9.93321e-09
0.00840029
2.64441e-08
0.00839909
6.63738e-08
0.00840206
1.69969e-07
0.0083945
4.07313e-07
0.00841018
1.05807e-06
0.00837964
2.5773e-06
0.00841614
6.91991e-06
0.00836407
1.93702e-05
0.00836341
6.23622e-05
0.00822308
0.000236589
0.00761974
0.0011857
0.00697486
0.00128432
0.00636794
0.00122329
0.00573615
0.00127083
0.00506837
0.00133858
0.00434911
0.00143126
0.00357581
0.00153683
0.00274976
0.00164332
0.00187026
0.00174613
0.000945907
0.00184159
0.00192329
0.00840003
2.43377e-10
0.0084
1.5653e-09
0.00840006
5.01061e-09
0.00839992
1.56268e-08
0.00840026
3.78623e-08
0.00839917
1.02255e-07
0.00840186
2.54086e-07
0.00839479
6.16786e-07
0.0084094
1.61843e-06
0.00838063
3.87217e-06
0.00841484
1.04615e-05
0.0083653
2.91902e-05
0.00836385
9.33862e-05
0.00822887
0.000351272
0.00765149
0.0017524
0.00700044
0.00193785
0.00639776
0.00182686
0.0057738
0.00189432
0.00511195
0.00199989
0.00439462
0.00214815
0.00361791
0.00231294
0.00278462
0.00247599
0.0018953
0.00263441
0.000956475
0.00277912
0.00287927
0.00840002
2.04928e-10
0.00840002
2.56568e-09
0.00840001
5.59972e-09
0.00840002
2.4663e-08
0.00839999
4.33452e-08
0.00839982
1.5522e-07
0.00840016
2.84301e-07
0.0083982
9.29583e-07
0.00840116
1.86661e-06
0.00839393
5.59342e-06
0.00839649
1.31341e-05
0.00838395
3.91426e-05
0.00835603
0.000121416
0.00824763
0.000454076
0.00772626
0.00225946
0.00707135
0.0025953
0.00647066
0.00242862
0.00585477
0.00250975
0.00520053
0.0026535
0.00448857
0.00285969
0.00371396
0.00308686
0.00287483
0.00331497
0.00196695
0.00354146
0.000999503
0.00374519
0.0038781
0.00840002
4.7001e-10
0.00840005
2.03888e-09
0.00839995
9.73911e-09
0.0084002
2.05744e-08
0.00839961
7.08904e-08
0.00840097
1.49572e-07
0.00839786
4.19182e-07
0.00840465
1.00489e-06
0.00838965
2.46685e-06
0.00841464
6.55795e-06
0.0083725
1.62251e-05
0.00840895
4.69096e-05
0.00834508
0.000146253
0.00827735
0.000536991
0.00786287
0.00265474
0.00720055
0.0032604
0.00659404
0.0030363
0.00598276
0.00312064
0.00533945
0.00329627
0.0046352
0.0035635
0.00386449
0.00385684
0.00301902
0.00415977
0.00208857
0.00447108
0.00107276
0.00475964
0.0049501
0.00840003
3.8116e-10
0.0084
3.11899e-09
0.0084001
8.53008e-09
0.00839986
3.02186e-08
0.00840041
6.55033e-08
0.00839915
1.9091e-07
0.00840201
4.45464e-07
0.00839557
1.13105e-06
0.00840827
2.91165e-06
0.0083838
6.98457e-06
0.00841653
1.90837e-05
0.00836789
5.16586e-05
0.00838656
0.000162991
0.00831478
0.000586287
0.00810285
0.00285416
0.0074271
0.00394014
0.00679391
0.00367099
0.00617753
0.00373667
0.00554054
0.00393289
0.00484809
0.00425542
0.00407909
0.00462524
0.00322756
0.00501083
0.00226783
0.00542968
0.00118778
0.00583855
0.00613711
0.00840002
4.46709e-10
0.00840005
2.8189e-09
0.00839996
9.79601e-09
0.00840017
2.7824e-08
0.0083997
7.35173e-08
0.00840081
1.8815e-07
0.00839834
4.65792e-07
0.00840403
1.18763e-06
0.00839167
2.9102e-06
0.00841419
7.51171e-06
0.008378
1.92294e-05
0.00841891
5.34925e-05
0.00837773
0.00016421
0.00839708
0.000583334
0.0085055
0.00272564
0.0078108
0.00463796
0.00710856
0.0043749
0.00647164
0.00437341
0.00583351
0.00457048
0.00514633
0.00494207
0.0043819
0.00538903
0.00351951
0.00587269
0.00253105
0.00641713
0.00136778
0.00700046
0.00750401
0.00840002
4.17049e-10
0.00840004
2.47295e-09
0.00839997
9.37941e-09
0.00840016
2.4475e-08
0.00839974
6.98354e-08
0.00840079
1.69397e-07
0.00839853
4.2435e-07
0.00840412
1.09912e-06
0.00839262
2.52341e-06
0.00841571
6.96209e-06
0.00838288
1.63718e-05
0.00843286
4.66869e-05
0.00841898
0.000136533
0.00855231
0.000468554
0.00920456
0.00205294
0.00848353
0.00536087
0.00759839
0.00526179
0.00691523
0.00505661
0.0062592
0.00522613
0.00556476
0.00563607
0.00479623
0.00615684
0.00392606
0.0067425
0.00291095
0.00743119
0.0016623
0.0082477
0.00916526
0.00840003
3.36547e-10
0.00840002
2.48311e-09
0.00840007
7.5479e-09
0.00839995
2.42269e-08
0.00840023
5.64946e-08
0.00839967
1.58195e-07
0.00840084
3.63255e-07
0.00839887
9.55786e-07
0.0084023
2.2882e-06
0.00839722
5.78245e-06
0.00841012
1.4692e-05
0.00839861
3.88871e-05
0.00844146
0.000113747
0.00852037
0.000376771
0.00897167
0.0015954
0.0086758
0.00565182
0.00789035
0.00604646
0.00732693
0.0056191
0.00667886
0.00587326
0.00603619
0.00627798
0.00530038
0.00689188
0.00447488
0.00756722
0.00350566
0.00839927
0.00216927
0.00958247
0.0113332
0.00840003
4.14483e-10
0.00840003
1.94073e-09
0.00840002
8.526e-09
0.00840003
1.9136e-08
0.00839998
6.27213e-08
0.00840016
1.29676e-07
0.00839944
3.92407e-07
0.00840155
8.13545e-07
0.00839626
2.34685e-06
0.00840719
5.1737e-06
0.00839171
1.41986e-05
0.00841204
3.57184e-05
0.0084062
0.00010522
0.0084485
0.000341762
0.00864849
0.0013849
0.00847888
0.005811
0.00823925
0.0062834
0.00762034
0.00623655
0.00706031
0.00643204
0.00650477
0.0068324
0.00588873
0.00750679
0.00520228
0.00825257
0.00431106
0.00928924
0.00303303
0.0108587
0.0143642
0.00840003
3.06494e-10
0.00840001
2.32903e-09
0.00840007
6.80799e-09
0.00839994
2.31226e-08
0.00840027
5.11987e-08
0.00839951
1.50288e-07
0.00840135
3.32954e-07
0.00839733
8.97298e-07
0.00840677
2.12654e-06
0.00838766
5.35556e-06
0.00842102
1.36385e-05
0.00837515
3.53483e-05
0.00842796
0.000101155
0.00840349
0.000326074
0.00854635
0.00125736
0.00852548
0.00581492
0.00817429
0.00663284
0.00777803
0.00663191
0.00739917
0.00680981
0.00696264
0.00726789
0.00655406
0.00791382
0.00607021
0.00873464
0.00561295
0.0097445
0.00553506
0.0109341
0.0114079
0.00848747
0.00840002
3.31961e-10
0.00840004
2.18388e-09
0.00839999
7.41667e-09
0.00840011
2.13655e-08
0.00839984
5.53087e-08
0.00840053
1.43269e-07
0.00839898
3.42671e-07
0.00840267
9.0382e-07
0.00839467
2.06795e-06
0.00841105
5.63841e-06
0.0083822
1.30756e-05
0.00842257
3.62612e-05
0.00837796
9.85911e-05
0.00842298
0.000316905
0.00848589
0.00117219
0.00868981
0.00560172
0.0083373
0.00698526
0.00796286
0.00700601
0.00765422
0.00711724
0.0073524
0.0075683
0.00706633
0.00819831
0.00682423
0.00897481
0.0067291
0.00983718
0.00709905
0.0105608
0.0104966
0.00800568
0.00840003
3.55978e-10
0.00840003
1.97281e-09
0.00840003
7.47032e-09
0.00840002
1.94106e-08
0.00840002
5.57735e-08
0.00840007
1.28967e-07
0.00839973
3.60095e-07
0.00840095
7.93384e-07
0.00839705
2.25842e-06
0.00840633
4.91642e-06
0.00838888
1.40859e-05
0.00841519
3.3426e-05
0.00839093
9.76621e-05
0.00843024
0.000297133
0.00851122
0.00107475
0.00912105
0.00498183
0.00872774
0.00737912
0.00828617
0.00744774
0.00798059
0.00742159
0.00775666
0.00779066
0.00757346
0.0083795
0.00750798
0.00903803
0.00767661
0.00966567
0.00813648
0.0100964
0.00995842
0.0086693
0.00840003
2.86504e-10
0.00840003
1.90191e-09
0.00840001
6.46727e-09
0.00840007
1.87606e-08
0.00839995
4.80096e-08
0.00840027
1.26618e-07
0.00839965
2.97428e-07
0.00840093
8.0457e-07
0.00839885
1.80006e-06
0.0084029
5.05093e-06
0.0083976
1.13343e-05
0.00841283
3.19184e-05
0.00840625
8.2284e-05
0.00847079
0.000253446
0.00866034
0.000871005
0.00993126
0.00369769
0.00935842
0.00795162
0.00883871
0.00796712
0.00844541
0.00781419
0.00821455
0.00801985
0.00811406
0.00847817
0.00815126
0.00899812
0.00836354
0.00945067
0.00876217
0.00969311
0.00951477
0.00919981
0.00840003
2.65147e-10
0.00840003
1.52616e-09
0.00840004
5.58193e-09
0.00840001
1.48734e-08
0.00840008
4.19021e-08
0.00839999
9.64641e-08
0.00840014
2.69432e-07
0.00840036
5.81621e-07
0.00839961
1.66002e-06
0.00840323
3.50733e-06
0.00840012
1.01018e-05
0.00841393
2.26585e-05
0.0084303
6.42795e-05
0.00850262
0.00017804
0.00878357
0.000587883
0.0101258
0.00235097
0.00993605
0.00813347
0.00954564
0.0083557
0.00899275
0.00836598
0.00871973
0.00829085
0.00862936
0.00856675
0.0086864
0.00893786
0.00888675
0.00924702
0.00921793
0.00935748
0.00914888
0.00957827
0.00840003
1.85812e-10
0.00840003
1.40175e-09
0.00840002
4.31522e-09
0.00840004
1.38248e-08
0.00840002
3.2065e-08
0.00840005
9.19164e-08
0.00840013
1.99745e-07
0.00839981
5.64934e-07
0.00840133
1.21458e-06
0.00839795
3.41219e-06
0.0084079
7.52075e-06
0.00839681
2.07604e-05
0.0084265
5.06675e-05
0.0084417
0.00014714
0.00857957
0.000461701
0.00915012
0.00176695
0.0100096
0.00726112
0.00976221
0.00860065
0.00942759
0.00869884
0.00916395
0.00855299
0.00907854
0.00864996
0.00913551
0.00887826
0.0093084
0.00907058
0.00957164
0.00908964
0.00885818
0.00985674
0.00840003
2.02525e-10
0.00840003
1.05558e-09
0.00840003
4.26245e-09
0.00840004
1.03953e-08
0.00840001
3.16303e-08
0.00840012
6.98039e-08
0.00839981
1.97802e-07
0.00840086
4.34971e-07
0.00839833
1.19314e-06
0.00840551
2.69925e-06
0.00839153
7.22148e-06
0.00842259
1.72032e-05
0.00838489
4.60208e-05
0.00845508
0.000124311
0.00848534
0.000388816
0.00887203
0.00139852
0.0100756
0.00603771
0.00999274
0.00868207
0.00975531
0.00893488
0.00952694
0.00878065
0.00945773
0.00871658
0.00950786
0.00882532
0.00965103
0.00892372
0.00985578
0.00888069
0.00863687
0.0100721
0.00840003
1.41098e-10
0.00840003
1.02187e-09
0.00840004
3.16288e-09
0.00840002
1.00172e-08
0.00840007
2.37199e-08
0.00839994
6.55344e-08
0.00840037
1.52632e-07
0.00839941
3.97577e-07
0.00840227
9.52054e-07
0.00839664
2.3858e-06
0.00841189
5.93307e-06
0.00838694
1.46641e-05
0.00843831
3.81172e-05
0.00840685
0.000101628
0.00853695
0.000304027
0.00886336
0.00104313
0.0106988
0.00419184
0.0104365
0.00894213
0.010291
0.00907974
0.0100067
0.00906424
0.00984618
0.00887546
0.00984773
0.00882055
0.0099499
0.00881868
0.010102
0.00872389
0.00847448
0.0102592
0.00840003
1.25991e-10
0.00840003
7.03509e-10
0.00840002
2.7113e-09
0.00840005
6.96968e-09
0.0084
2.00114e-08
0.00840014
4.71021e-08
0.00839991
1.23449e-07
0.00840059
2.94067e-07
0.00839963
7.34508e-07
0.00840237
1.8138e-06
0.00839957
4.38259e-06
0.00841066
1.11883e-05
0.00840724
2.73003e-05
0.00845802
7.25431e-05
0.00853297
0.000203311
0.00893531
0.000652909
0.0106158
0.00250176
0.0110463
0.00850372
0.010798
0.00932572
0.0104798
0.00938053
0.0102505
0.00910304
0.0101843
0.00888378
0.0102314
0.008768
0.0103301
0.00862135
0.00836254
0.0104377
0.00840003
8.34325e-11
0.00840003
6.33458e-10
0.00840003
1.92316e-09
0.00840003
6.21691e-09
0.00840005
1.44741e-08
0.00839999
4.07879e-08
0.00840022
9.1356e-08
0.00839973
2.48212e-07
0.00840134
5.60245e-07
0.00839826
1.48624e-06
0.00840754
3.41976e-06
0.00839219
8.93894e-06
0.00843099
2.14448e-05
0.00839634
5.66839e-05
0.00850366
0.000153428
0.00862461
0.000479254
0.00939181
0.00175817
0.0109937
0.00687896
0.0110171
0.00929889
0.010833
0.00956198
0.010589
0.0093456
0.0104992
0.00897069
0.0105001
0.0087643
0.0105483
0.00856872
0.00829734
0.0106089
0.00840003
7.80041e-11
0.00840003
4.65005e-10
0.00840003
1.67038e-09
0.00840003
4.55231e-09
0.00840003
1.2438e-08
0.00840006
2.99288e-08
0.0084
7.88184e-08
0.00840027
1.82746e-07
0.00839969
4.82195e-07
0.00840192
1.09996e-06
0.00839756
2.93953e-06
0.00841166
6.73063e-06
0.00839031
1.80652e-05
0.00844364
4.38427e-05
0.00842461
0.000121428
0.00859089
0.000356697
0.00908257
0.00123639
0.0112279
0.0047231
0.0112967
0.00922541
0.011265
0.00959227
0.0110632
0.00954577
0.0108434
0.00918825
0.0107693
0.00883551
0.0107685
0.00856586
0.00827343
0.0107883
0.00840003
5.63835e-11
0.00840003
3.43052e-10
0.00840003
1.24337e-09
0.00840004
3.38612e-09
0.00840002
9.15893e-09
0.00840008
2.27553e-08
0.0084
5.63386e-08
0.00840025
1.41102e-07
0.00839999
3.34074e-07
0.00840084
8.62183e-07
0.00840081
1.97683e-06
0.00840331
5.23969e-06
0.00840698
1.19723e-05
0.00842403
3.19997e-05
0.00845429
7.92603e-05
0.00859686
0.000227996
0.00910444
0.000718315
0.0111576
0.00266238
0.0118287
0.00854572
0.0116972
0.00972128
0.0114478
0.00979284
0.0111907
0.00944313
0.0110557
0.00896848
0.0110007
0.00861755
0.0082925
0.0109777
0.00840003
3.97535e-11
0.00840003
2.69548e-10
0.00840003
8.85203e-10
0.00840003
2.64462e-09
0.00840004
6.65578e-09
0.00840002
1.72925e-08
0.00840009
4.19955e-08
0.00840003
1.04601e-07
0.00840023
2.55637e-07
0.00840036
6.22698e-07
0.00840044
1.54312e-06
0.00840313
3.72134e-06
0.00840179
9.35908e-06
0.00841775
2.2903e-05
0.00842889
5.93647e-05
0.00850135
0.000159762
0.00872388
0.000490791
0.00961751
0.00176473
0.0116923
0.00645428
0.0118897
0.00951983
0.0118067
0.00987252
0.0115467
0.00970064
0.0113613
0.00915291
0.0112481
0.00872806
0.00835496
0.0111821
0.00840003
3.07705e-11
0.00840003
1.9276e-10
0.00840003
6.71539e-10
0.00840003
1.89673e-09
0.00840003
4.9676e-09
0.00840004
1.25003e-08
0.00840004
3.11408e-08
0.0084001
7.61298e-08
0.00840001
1.88843e-07
0.00840066
4.55725e-07
0.00839957
1.13381e-06
0.00840447
2.7353e-06
0.00839743
6.85672e-06
0.00842369
1.66996e-05
0.00840558
4.28771e-05
0.00849713
0.000111434
0.00862019
0.00032402
0.00932903
0.00107696
0.0118592
0.00389797
0.0122076
0.00916468
0.0122087
0.00987032
0.0120218
0.00988649
0.0116787
0.00949536
0.0115212
0.00888409
0.00846265
0.0114102
0.00840003
2.30633e-11
0.00840003
1.33306e-10
0.00840003
4.92626e-10
0.00840003
1.31562e-09
0.00840003
3.64875e-09
0.00840004
8.65149e-09
0.00840003
2.28731e-08
0.00840012
5.22518e-08
0.00839996
1.37748e-07
0.00840069
3.13015e-07
0.00839948
8.19895e-07
0.00840423
1.87374e-06
0.00839738
4.88344e-06
0.00842224
1.1405e-05
0.00839907
2.96896e-05
0.00848889
7.37136e-05
0.0085499
0.000206205
0.00902745
0.000633232
0.0106421
0.00226371
0.0123393
0.00745591
0.0124504
0.00975691
0.0123272
0.0100079
0.0119783
0.00984351
0.0118074
0.00905294
0.00861046
0.0116573
0.00840003
1.56343e-11
0.00840003
9.75842e-11
0.00840003
3.45007e-10
0.00840003
9.5696e-10
0.00840003
2.55856e-09
0.00840004
6.32927e-09
0.00840003
1.58868e-08
0.00840006
3.88908e-08
0.00840009
9.50133e-08
0.00840009
2.34562e-07
0.00840068
5.64389e-07
0.00839985
1.41024e-06
0.00840494
3.37566e-06
0.00839895
8.50443e-06
0.00842575
2.06305e-05
0.00841759
5.319e-05
0.00851737
0.000139351
0.00870462
0.000412713
0.00956619
0.00141605
0.0121403
0.00485948
0.0125815
0.00931001
0.0126423
0.00994564
0.0125576
0.009927
0.012133
0.00947652
0.00883287
0.0119078
0.00840003
1.02381e-11
0.00840003
6.85672e-11
0.00840003
2.31327e-10
0.00840003
6.74774e-10
0.00840003
1.71187e-09
0.00840003
4.46287e-09
0.00840004
1.0564e-08
0.00840003
2.72438e-08
0.00840013
6.29725e-08
0.00839999
1.62691e-07
0.00840081
3.73901e-07
0.0083996
9.64853e-07
0.00840497
2.22351e-06
0.00839819
5.72708e-06
0.00842647
1.34292e-05
0.00840598
3.47544e-05
0.00851421
8.66303e-05
0.00862296
0.000243078
0.0093211
0.000754909
0.0115441
0.00261512
0.0128764
0.00796953
0.0129069
0.00991207
0.0128005
0.0100308
0.0124304
0.00984456
0.00905856
0.0122023
0.00840003
7.07444e-12
0.00840003
4.82895e-11
0.00840003
1.57064e-10
0.00840003
4.72687e-10
0.00840003
1.174e-09
0.00840003
3.06893e-09
0.00840004
7.38051e-09
0.00840003
1.8395e-08
0.00840009
4.46241e-08
0.00840007
1.08495e-07
0.00840025
2.68088e-07
0.00840056
6.37338e-07
0.00840065
1.60665e-06
0.0084043
3.78181e-06
0.00840273
9.66751e-06
0.00842514
2.30084e-05
0.00843458
6.01131e-05
0.0085391
0.000156076
0.00880764
0.000466952
0.00982459
0.00160373
0.0125095
0.00526189
0.0130004
0.00941457
0.0130939
0.00993493
0.0129804
0.00995577
0.00947136
0.0125654
0.00840003
4.94384e-12
0.00840003
3.07258e-11
0.00840003
1.08534e-10
0.00840003
3.0248e-10
0.00840003
8.01774e-10
0.00840003
1.98628e-09
0.00840003
4.96353e-09
0.00840005
1.19993e-08
0.00840002
2.95482e-08
0.00840018
7.10838e-08
0.0084
1.74326e-07
0.00840086
4.2029e-07
0.00840004
1.02486e-06
0.00840456
2.48456e-06
0.00840102
6.05974e-06
0.00842339
1.48404e-05
0.0084209
3.68934e-05
0.00852039
9.42353e-05
0.0086821
0.000260001
0.00949955
0.000813778
0.0120195
0.00272526
0.0132905
0.00813219
0.0132961
0.00992526
0.0132755
0.00997278
0.00982657
0.0129179
0.00840003
3.44718e-12
0.00840003
1.97449e-11
0.00840003
7.44061e-11
0.00840003
1.94247e-10
0.00840003
5.4753e-10
0.00840003
1.28248e-09
0.00840003
3.37792e-09
0.00840005
7.80226e-09
0.00840002
1.99788e-08
0.00840013
4.66854e-08
0.00840001
1.17055e-07
0.00840055
2.79231e-07
0.00840006
6.83495e-07
0.00840254
1.66849e-06
0.00840132
4.01789e-06
0.0084114
1.00466e-05
0.00841446
2.41453e-05
0.00846192
6.23861e-05
0.00853345
0.000162132
0.00888963
0.000482209
0.00995103
0.00164144
0.0128192
0.00524766
0.0133931
0.00934409
0.0135065
0.00985643
0.00995448
0.0133758
0.00840003
2.05566e-12
0.00840003
1.34996e-11
0.00840003
4.55797e-11
0.00840003
1.32443e-10
0.00840003
3.37515e-10
0.00840003
8.62732e-10
0.00840003
2.09206e-09
0.00840003
5.18181e-09
0.00840006
1.24882e-08
0.00840002
3.05158e-08
0.00840019
7.35799e-08
0.00840002
1.78952e-07
0.00840089
4.3376e-07
0.00840016
1.04756e-06
0.00840473
2.55225e-06
0.00840174
6.17234e-06
0.00842427
1.51834e-05
0.00842447
3.74157e-05
0.00852752
9.56263e-05
0.00870383
0.000261535
0.0095581
0.000813513
0.0121238
0.00266574
0.0135882
0.00786736
0.0136225
0.00981755
0.00987057
0.0137022
0.00840003
1.28587e-12
0.00840003
8.89911e-12
0.00840003
2.9014e-11
0.00840003
8.72014e-11
0.00840003
2.15418e-10
0.00840003
5.67533e-10
0.00840003
1.33652e-09
0.00840003
3.39925e-09
0.00840004
7.98458e-09
0.00840003
1.99498e-08
0.00840013
4.74453e-08
0.00840002
1.16155e-07
0.00840059
2.8177e-07
0.00840004
6.77279e-07
0.00840303
1.66899e-06
0.00840074
3.97233e-06
0.00841467
9.95956e-06
0.00841181
2.3786e-05
0.00847285
6.13204e-05
0.00853539
0.000157805
0.00892338
0.000464624
0.0100026
0.00155501
0.0129857
0.00486797
0.013721
0.00907483
0.00974297
0.013845
0.00840003
8.53582e-13
0.00840003
5.4365e-12
0.00840003
1.89832e-11
0.00840003
5.34251e-11
0.00840003
1.40088e-10
0.00840003
3.51203e-10
0.00840003
8.57108e-10
0.00840003
2.12558e-09
0.00840003
5.03839e-09
0.00840005
1.25849e-08
0.00840005
2.94208e-08
0.0084001
7.40741e-08
0.00840023
1.71542e-07
0.00840028
4.33798e-07
0.00840158
1.00633e-06
0.0084009
2.5307e-06
0.00841042
5.939e-06
0.00840614
1.49039e-05
0.00845587
3.60253e-05
0.00848435
9.26923e-05
0.00873767
0.000248791
0.00949552
0.000766484
0.0118914
0.00247514
0.0137529
0.00719548
0.00964869
0.0138412
0.00840003
5.63684e-13
0.00840003
3.33766e-12
0.00840003
1.2256e-11
0.00840003
3.28342e-11
0.00840003
9.00779e-11
0.00840003
2.15071e-10
0.00840003
5.54205e-10
0.00840003
1.29444e-09
0.00840003
3.26566e-09
0.00840004
7.65207e-09
0.00840003
1.90304e-08
0.00840012
4.52117e-08
0.00840003
1.10296e-07
0.00840057
2.67016e-07
0.00840011
6.40201e-07
0.00840295
1.57443e-06
0.00840111
3.73426e-06
0.00841477
9.33168e-06
0.00841266
2.21997e-05
0.00847476
5.68994e-05
0.00853783
0.000144622
0.0089259
0.000417692
0.0100084
0.00135994
0.0130003
0.00418645
0.00864937
0.0139904
0.00840003
3.24658e-13
0.00840003
2.18047e-12
0.00840003
7.19104e-12
0.00840003
2.13984e-11
0.00840003
5.3198e-11
0.00840003
1.3841e-10
0.00840003
3.30657e-10
0.00840003
8.20683e-10
0.00840003
1.97892e-09
0.00840003
4.76843e-09
0.00840005
1.17009e-08
0.00840005
2.75688e-08
0.0084001
6.90797e-08
0.00840023
1.59466e-07
0.00840026
4.05587e-07
0.00840155
9.29616e-07
0.00840085
2.36883e-06
0.00841003
5.46265e-06
0.00840548
1.39473e-05
0.00845439
3.29407e-05
0.00847304
8.5781e-05
0.00870999
0.000224186
0.0093521
0.000680534
0.0113643
0.00218072
0.0062197
0.0137692
0.00840003
2.05163e-13
0.00840003
1.28217e-12
0.00840003
4.54155e-12
0.00840003
1.26014e-11
0.00840003
3.33205e-11
0.00840003
8.26088e-11
0.00840003
2.0297e-10
0.00840003
4.99063e-10
0.00840003
1.18561e-09
0.00840004
2.9411e-09
0.00840004
6.87312e-09
0.00840005
1.72421e-08
0.00840007
3.98113e-08
0.00840012
1.00395e-07
0.00840036
2.3141e-07
0.00840038
5.82664e-07
0.00840232
1.35048e-06
0.00840163
3.37712e-06
0.00841468
7.93905e-06
0.00841142
1.98034e-05
0.00847808
4.81772e-05
0.00853472
0.00012443
0.00891415
0.000343085
0.00997189
0.00108759
0.00327489
0.012896
0.00840003
1.27228e-13
0.00840003
7.63929e-13
0.00840003
2.74935e-12
0.00840003
7.48715e-12
0.00840003
2.02565e-11
0.00840003
4.84661e-11
0.00840003
1.24877e-10
0.00840003
2.87927e-10
0.00840003
7.35858e-10
0.00840003
1.6841e-09
0.00840003
4.27388e-09
0.00840005
9.8415e-09
0.00840003
2.46532e-08
0.00840016
5.76575e-08
0.00840006
1.41877e-07
0.00840075
3.3876e-07
0.00840034
8.15309e-07
0.00840376
1.98886e-06
0.00840278
4.71484e-06
0.00841818
1.17652e-05
0.00842447
2.78867e-05
0.00849898
7.18392e-05
0.00862118
0.000184487
0.0091945
0.000546194
0.00174683
0.0106899
0.00840003
6.66914e-14
0.00840003
4.66781e-13
0.00840003
1.50749e-12
0.00840003
4.58363e-12
0.00840003
1.11217e-11
0.00840003
2.96027e-11
0.00840003
6.81068e-11
0.00840003
1.74694e-10
0.00840003
4.01554e-10
0.00840003
1.00805e-09
0.00840004
2.34633e-09
0.00840003
5.76481e-09
0.00840006
1.37192e-08
0.00840005
3.28727e-08
0.00840019
7.99574e-08
0.00840019
1.87235e-07
0.00840073
4.65923e-07
0.00840142
1.06935e-06
0.0084031
2.69808e-06
0.00840981
6.16952e-06
0.00841765
1.57361e-05
0.00845885
3.67682e-05
0.00853776
9.61337e-05
0.00883411
0.000253891
0.000786605
0.00977506
0.00840003
4.19618e-14
0.00840003
2.40981e-13
0.00840003
9.05277e-13
0.00840003
2.36294e-12
0.00840003
6.59513e-12
0.00840003
1.53564e-11
0.00840003
3.97516e-11
0.00840003
9.14109e-11
0.00840003
2.28384e-10
0.00840003
5.32235e-10
0.00840003
1.29001e-09
0.00840004
3.08262e-09
0.00840004
7.24549e-09
0.00840006
1.77264e-08
0.00840008
4.04215e-08
0.00840017
1.01491e-07
0.00840047
2.24984e-07
0.00840056
5.73698e-07
0.00840313
1.25543e-06
0.00840248
3.21183e-06
0.00841984
7.03109e-06
0.00841744
1.80378e-05
0.00850711
4.11907e-05
0.00859286
0.000109345
0.00030074
0.00912107
0.00840003
2.03141e-14
0.00840003
1.31935e-13
0.00840003
4.519e-13
0.00840003
1.28908e-12
0.00840003
3.301e-12
0.00840003
8.2295e-12
0.00840003
1.98727e-11
0.00840003
4.76876e-11
0.00840003
1.13308e-10
0.00840003
2.69323e-10
0.00840003
6.36485e-10
0.00840003
1.50075e-09
0.00840004
3.53799e-09
0.00840004
8.29932e-09
0.00840006
1.95004e-08
0.00840012
4.53732e-08
0.00840014
1.06487e-07
0.00840072
2.45714e-07
0.0084003
5.74445e-07
0.00840471
1.31356e-06
0.00840089
3.06353e-06
0.00842603
7.00486e-06
0.00841793
1.65333e-05
0.00851609
3.95394e-05
0.000102718
0.00865166
0.00840003
9.88386e-15
0.00840003
6.61554e-14
0.00840003
2.20212e-13
0.00840003
6.40532e-13
0.00840003
1.6059e-12
0.00840003
3.99506e-12
0.00840003
9.59721e-12
0.00840003
2.25502e-11
0.00840003
5.43686e-11
0.00840003
1.22551e-10
0.00840003
2.99853e-10
0.00840003
6.56381e-10
0.00840003
1.62406e-09
0.00840003
3.46747e-09
0.00840004
8.67092e-09
0.00840008
1.81083e-08
0.00840003
4.48344e-08
0.00840043
9.46607e-08
0.00839968
2.24383e-07
0.0084028
4.86536e-07
0.00839732
1.10305e-06
0.00841424
2.47033e-06
0.00839381
5.44764e-06
0.00844422
1.25196e-05
2.98691e-05
0.00845333
0.00840003
3.84629e-15
0.00840003
3.49804e-14
0.00840003
9.36045e-14
0.00840003
3.44334e-13
0.00840003
6.66582e-13
0.00840003
2.16556e-12
0.00840003
3.77866e-12
0.00840003
1.2189e-11
0.00840003
2.0649e-11
0.00840003
6.49254e-11
0.00840003
1.13247e-10
0.00840003
3.34539e-10
0.00840004
6.28568e-10
0.00840002
1.64085e-09
0.00840005
3.62437e-09
0.0084
7.72007e-09
0.00840008
2.09009e-08
0.0084
3.30464e-08
0.00839984
1.21515e-07
0.00840053
1.28763e-07
0.00839758
6.73426e-07
0.00840272
5.55709e-07
0.008391
3.16909e-06
0.008398
3.47637e-06
1.34269e-05
0.00838241
0.00840003
2.42766e-15
0.00840003
1.57803e-14
0.00840003
5.12728e-14
0.00840003
1.50072e-13
0.00840003
3.73878e-13
0.00840003
9.09758e-13
0.00840003
2.23416e-12
0.00840003
4.92199e-12
0.00840003
1.24588e-11
0.00840003
2.57236e-11
0.00840003
6.76623e-11
0.00840003
1.29974e-10
0.00840003
3.64782e-10
0.00840004
6.71218e-10
0.00840001
1.89066e-09
0.00840007
3.40907e-09
0.00839993
1.00805e-08
0.00840008
1.79342e-08
0.00839978
4.98557e-08
0.00839926
9.7792e-08
0.00839955
2.37295e-07
0.00839551
4.97533e-07
0.00839426
1.16477e-06
0.00838446
2.54893e-06
6.40088e-06
0.00835883
0.00840003
1.36428e-15
0.00840003
7.87377e-15
0.00840003
2.95116e-14
0.00840003
7.75883e-14
0.00840003
2.1059e-13
0.00840003
4.81373e-13
0.00840003
1.27719e-12
0.00840003
2.73725e-12
0.00840003
7.31179e-12
0.00840003
1.53267e-11
0.00840003
4.15815e-11
0.00840003
8.54014e-11
0.00840003
2.31299e-10
0.00840004
4.73563e-10
0.00840001
1.31454e-09
0.00840004
2.55725e-09
0.00839997
7.14573e-09
0.00839992
1.4654e-08
0.00839993
3.70825e-08
0.00839873
8.22291e-08
0.00840007
2.00735e-07
0.00839277
4.75069e-07
0.00839616
1.11926e-06
0.00837464
2.87142e-06
7.47251e-06
0.0083531
0.00840003
1.07122e-15
0.00840003
3.92134e-15
0.00840003
2.13154e-14
0.00840003
3.90243e-14
0.00840003
1.48089e-13
0.00840003
3.0954e-13
0.00840003
8.48533e-13
0.00840003
2.22461e-12
0.00840003
4.49127e-12
0.00840003
1.51664e-11
0.00840003
2.46899e-11
0.00840003
9.98143e-11
0.00840003
1.28328e-10
0.00840003
6.26628e-10
0.00840002
6.17296e-10
0.00840002
3.93438e-09
0.00839999
3.27494e-09
0.00839984
2.31115e-08
0.00840006
2.05327e-08
0.0083983
1.34193e-07
0.00840084
1.43716e-07
0.00839088
7.06276e-07
0.00839832
1.13159e-06
0.00837001
3.57899e-06
8.9575e-06
0.00835429
0.00840003
7.52057e-16
0.00840003
3.14513e-15
0.00840003
1.33368e-14
0.00840003
3.13579e-14
0.00840003
1.09587e-13
0.00840003
1.88903e-13
0.00840003
8.50776e-13
0.00840003
1.03336e-12
0.00840003
6.43001e-12
0.00840003
5.02732e-12
0.00840003
4.38612e-11
0.00840003
2.69489e-11
0.00840003
2.78955e-10
0.00840004
1.30454e-10
0.0084
1.65968e-09
0.00840008
9.11726e-10
0.00839987
9.26392e-09
0.00840025
9.06589e-09
0.00839917
5.00523e-08
0.00840076
7.57329e-08
0.00839565
2.58201e-07
0.0084013
5.77483e-07
0.00838099
1.33564e-06
0.00839106
3.79686e-06
8.90067e-06
0.00833313
0.00840003
6.32659e-16
0.00840003
1.73903e-15
0.00840003
1.31705e-14
0.00840003
1.688e-14
0.00840003
9.53055e-14
0.00840003
1.76593e-13
0.00840003
5.33649e-13
0.00840003
1.74502e-12
0.00840003
2.24281e-12
0.00840003
1.46313e-11
0.00840003
8.51173e-12
0.00840003
1.06271e-10
0.00840003
4.12544e-11
0.00840002
6.87906e-10
0.00840005
2.11812e-10
0.00839995
4.24512e-09
0.00840016
1.22662e-09
0.00839955
2.44883e-08
0.00840079
1.51093e-08
0.00839728
1.35309e-07
0.00840395
1.31717e-07
0.00838557
6.95566e-07
0.00840853
1.09731e-06
0.00835444
3.31124e-06
8.38288e-06
0.00836912
0.00840003
1.64907e-16
0.00840003
3.58535e-15
0.00840003
1.84591e-15
0.00840003
3.47124e-14
0.00840003
2.65713e-14
0.00840003
2.07531e-13
0.00840003
3.82025e-13
0.00840003
8.90929e-13
0.00840003
4.04652e-12
0.00840003
2.70158e-12
0.00840003
3.40602e-11
0.00840003
7.38269e-12
0.00840003
2.3977e-10
0.00840004
1.75792e-11
0.0084
1.55963e-09
0.00840008
8.6867e-12
0.00839984
9.19525e-09
0.00840032
2.33607e-10
0.00839897
5.23558e-08
0.00840154
1.85239e-08
0.00839394
2.75146e-07
0.00840533
2.06344e-07
0.00837494
1.28427e-06
0.00839682
2.04066e-06
6.34727e-06
0.0083259
0.00840003
-1.27936e-17
0.00840003
1.78549e-15
0.00840003
4.28759e-15
0.00840003
1.96827e-14
0.00840003
2.56903e-14
0.00840003
1.54958e-13
0.00840003
9.27911e-14
0.00840003
1.23583e-12
0.00840003
8.6687e-14
0.00840003
9.24288e-12
0.00840003
-1.28982e-12
0.00840003
6.33739e-11
0.00840003
-8.84175e-12
0.00840002
3.83366e-10
0.00840004
-6.10797e-11
0.00839996
2.08982e-09
0.00840015
9.16643e-10
0.00839955
9.55679e-09
0.00840083
1.40028e-08
0.00839712
4.10688e-08
0.00840423
1.13705e-07
0.00838506
1.89514e-07
0.00840887
6.90593e-07
0.00835263
1.07468e-06
3.70448e-06
0.0083667
0.00840003
0.00840003
0.00840003
0.00840003
0.00840003
0.00840003
0.00840003
0.00840003
0.00840003
0.00840003
0.00840003
0.00840003
0.00840003
0.00840004
0.00840001
0.00840005
0.00839993
0.00839998
0.00839977
0.00839889
0.00839924
0.00839349
0.00839171
0.00837531
0.00834177
0.00414456
0.00433142
0.00201581
0.00211471
2.0684e-05
0.00195632
-0.00140425
0.00142463
-0.00198951
0.000589516
-0.00243816
0.000446691
-0.00262417
0.000185821
-0.00271409
9.07895e-05
-0.00286691
0.000153879
-0.00303633
0.00016986
-0.00318033
0.00014396
-0.00329367
0.000112951
-0.0033957
0.000102096
-0.00349382
9.82184e-05
-0.00358532
9.1493e-05
-0.00366543
7.96392e-05
-0.0037267
6.04618e-05
-0.00376309
3.58966e-05
-0.00378587
2.09568e-05
-0.00382587
3.55743e-05
-0.00386799
3.70307e-05
-0.00389915
2.57469e-05
-0.00391837
9.63135e-06
-0.00391851
-1.35286e-05
-0.00388511
-5.01003e-05
-0.00380647
-9.72136e-05
-0.00368411
-0.000141449
-0.00352791
-0.000175484
-0.0033457
-0.000200594
-0.00314444
-0.000218976
-0.00292766
-0.000232626
-0.00270143
-0.000241856
-0.00246923
-0.000246603
-0.00223491
-0.000246909
-0.00200122
-0.000246293
-0.00176379
-0.000247988
-0.00152692
-0.000247213
-0.00128377
-0.000253406
-0.00104079
-0.000252533
-0.000800127
-0.00024942
-0.000562406
-0.000246083
-0.00032558
-0.000244869
-8.70126e-05
-0.000246152
0.000155366
-0.000249901
0.000384986
-0.000236623
0.000601624
-0.00022288
0.000810448
-0.000214544
0.00101083
-0.000205263
0.00120298
-0.000196403
0.0013864
-0.000187221
0.00156506
-0.000181259
0.00174117
-0.000177887
0.00191177
-0.000171468
0.00207595
-0.00016412
0.00223352
-0.000156706
0.00238444
-0.000149432
0.00252944
-0.000142719
0.00266878
-0.000136275
0.00280283
-0.00013019
0.00293142
-0.000124293
0.00305483
-0.000118668
0.00317315
-0.00011327
0.00328674
-0.000108108
0.00339566
-0.000103181
0.00350005
-9.84486e-05
0.00359995
-9.39399e-05
0.00369552
-8.9599e-05
0.00378693