/*--------------------------------*- C++ -*----------------------------------*\
  =========                 |
  \\      /  F ield         | OpenFOAM: The Open Source CFD Toolbox
   \\    /   O peration     | Website:  https://openfoam.org
    \\  /    A nd           | Version:  9
     \\/     M anipulation  |
\*---------------------------------------------------------------------------*/
FoamFile
{
    format      ascii;
    class       volScalarField;
    location    "7";
    object      rho;
}
// * * * * * * * * * * * * * * * * * * * * * * * * * * * * * * * * * * * * * //

dimensions      [1 -3 0 0 0 0 0];

internalField   nonuniform List<scalar> 
5250
(
1.40001
1.40003
1.40007
1.40018
1.40042
1.40113
1.4025
1.4069
1.41505
1.44023
1.48945
1.61099
1.85455
2.43618
4.78261
5.80177
5.71695
5.65724
5.67631
5.75488
5.84148
5.89391
5.93552
5.963
5.99019
1.40001
1.40003
1.40006
1.40019
1.4004
1.40113
1.40245
1.40678
1.41499
1.43953
1.48844
1.60873
1.84931
2.42152
4.73628
5.80479
5.71715
5.65418
5.67367
5.7528
5.83948
5.89214
5.9346
5.96292
5.99112
1.40001
1.40003
1.40006
1.40018
1.40039
1.40111
1.40236
1.40662
1.41448
1.4386
1.4859
1.60375
1.83852
2.391
4.63265
5.8125
5.71695
5.6447
5.66381
5.74193
5.82808
5.87994
5.92138
5.95074
5.97951
1.40001
1.40002
1.40006
1.40017
1.40037
1.40107
1.40223
1.40644
1.41362
1.43735
1.48185
1.59618
1.82193
2.34551
4.46914
5.82786
5.71803
5.62916
5.64706
5.72245
5.80609
5.8571
5.89811
5.92458
5.95466
1.40001
1.40002
1.40006
1.40015
1.40038
1.40092
1.40227
1.40569
1.41352
1.43387
1.47904
1.58326
1.80189
2.28542
4.24402
5.85251
5.72163
5.60897
5.62315
5.69708
5.77665
5.82528
5.86476
5.89037
5.92057
1.40001
1.40002
1.40005
1.40014
1.40034
1.40086
1.40211
1.40512
1.41285
1.4305
1.47404
1.56948
1.77486
2.21488
3.95431
5.88555
5.72927
5.5843
5.59513
5.66019
5.73904
5.78026
5.81809
5.84068
5.8724
1.40001
1.40002
1.40005
1.40012
1.40032
1.40077
1.40188
1.40476
1.41122
1.42834
1.4661
1.55507
1.74254
2.13861
3.60851
5.92078
5.74343
5.55982
5.56438
5.61802
5.69002
5.72589
5.75389
5.77329
5.80385
1.40001
1.40002
1.40005
1.40011
1.40029
1.40068
1.40169
1.40419
1.41005
1.42502
1.45904
1.53854
1.7084
2.06237
3.21784
5.92799
5.7553
5.53721
5.53203
5.56886
5.63057
5.65364
5.6712
5.67591
5.70289
1.40001
1.40002
1.40004
1.4001
1.40026
1.40059
1.40157
1.40349
1.40953
1.42095
1.45467
1.52166
1.67952
1.99524
2.93
5.8023
5.7138
5.50496
5.49222
5.50741
5.55641
5.56347
5.55867
5.54078
5.54278
1.40001
1.40001
1.40004
1.40008
1.40024
1.4005
1.40144
1.40303
1.40861
1.41848
1.44924
1.50868
1.65311
1.93951
2.71895
5.49561
5.57226
5.48107
5.43483
5.43526
5.46037
5.44871
5.4164
5.34553
5.28427
1.40001
1.40001
1.40003
1.40008
1.40019
1.4005
1.40115
1.40292
1.40709
1.4173
1.44209
1.49896
1.6246
1.88855
2.53523
5.06751
5.4883
5.43879
5.36392
5.35576
5.34776
5.31584
5.22564
5.01106
4.39693
1.40001
1.40001
1.40003
1.40007
1.40018
1.4004
1.40104
1.40249
1.40618
1.41513
1.43653
1.48682
1.59852
1.83377
2.37056
4.56492
5.44129
5.40286
5.29949
5.26748
5.23722
5.17069
5.02437
4.72568
4.06964
1.40001
1.40001
1.40003
1.40006
1.40016
1.40033
1.40094
1.40195
1.40565
1.41188
1.43285
1.47151
1.57391
1.77372
2.21914
3.98689
5.42482
5.37948
5.25019
5.18104
5.13092
5.0344
4.84714
4.53271
4.02758
1.40001
1.40001
1.40002
1.40005
1.40012
1.4003
1.40069
1.40184
1.40409
1.41105
1.42456
1.46296
1.54045
1.71815
2.07481
3.34683
5.40183
5.36169
5.22605
5.10687
5.02795
4.91141
4.71967
4.42792
4.03526
1.40001
1.40001
1.40002
1.40004
1.4001
1.40022
1.40062
1.4013
1.40375
1.40776
1.42196
1.44705
1.51848
1.65712
1.95583
2.76719
5.25607
5.30799
5.21651
5.05203
4.94354
4.81441
4.62827
4.36489
4.04055
1.40001
1.40001
1.40002
1.40004
1.40008
1.40021
1.40043
1.40123
1.40258
1.40735
1.41559
1.44217
1.4922
1.6185
1.86548
2.47141
4.77949
5.20911
5.15385
5.00426
4.87328
4.73553
4.56006
4.32121
4.03859
1.40001
1.40001
1.40001
1.40003
1.40007
1.40014
1.4004
1.40085
1.40237
1.40515
1.41394
1.43113
1.47862
1.57387
1.78881
2.24062
4.06429
5.1149
5.08697
4.9737
4.81866
4.67165
4.5022
4.28702
4.03391
1.40001
1.40001
1.40001
1.40003
1.40005
1.40013
1.40027
1.40074
1.40166
1.40435
1.41009
1.42554
1.45926
1.54035
1.70845
2.05454
3.28804
5.04604
5.04123
4.96568
4.79599
4.62539
4.4574
4.25964
4.03218
1.40001
1.40001
1.40001
1.40002
1.40004
1.40009
1.40022
1.40055
1.40125
1.40335
1.40734
1.41979
1.44373
1.50819
1.63729
1.90742
2.6033
4.8143
5.02647
4.95653
4.7886
4.59653
4.42443
4.23849
4.03139
1.40001
1.40001
1.40001
1.40002
1.40003
1.40008
1.40016
1.40043
1.40095
1.40248
1.40575
1.41456
1.43413
1.48265
1.58564
1.80801
2.29228
4.18694
4.93506
4.89924
4.78158
4.58176
4.40404
4.22464
4.03142
1.40001
1.40001
1.40001
1.40001
1.40003
1.40005
1.40014
1.40028
1.40079
1.40166
1.40463
1.41003
1.42688
1.45962
1.54459
1.71265
2.06244
3.34939
4.83495
4.83825
4.7706
4.59819
4.39941
4.21832
4.03582
1.40001
1.40001
1.40001
1.40001
1.40002
1.40004
1.40009
1.40023
1.40051
1.40135
1.40293
1.40808
1.41738
1.44581
1.50089
1.63426
1.88263
2.54099
4.56941
4.83015
4.77068
4.62115
4.4057
4.22084
4.04276
1.40001
1.40001
1.40001
1.40001
1.40002
1.40003
1.40007
1.40015
1.4004
1.40086
1.40241
1.40506
1.41414
1.43024
1.47854
1.56968
1.77994
2.20691
3.8861
4.75335
4.72734
4.63597
4.43178
4.23381
4.05682
1.40001
1.40001
1.40001
1.40001
1.40001
1.40002
1.40005
1.40011
1.40029
1.4006
1.40168
1.40359
1.40985
1.42144
1.45583
1.52204
1.68086
1.97119
2.96691
4.58174
4.69117
4.63156
4.46998
4.26248
4.07955
1.40001
1.40001
1.40001
1.40001
1.40001
1.40002
1.40004
1.40007
1.4002
1.40042
1.40114
1.40253
1.40661
1.41509
1.43799
1.48622
1.59955
1.81645
2.33146
4.1254
4.64753
4.61135
4.50393
4.2991
4.10988
1.40001
1.40001
1.40001
1.40001
1.40001
1.40001
1.40002
1.40006
1.40012
1.40033
1.40069
1.40194
1.40407
1.41133
1.42421
1.46334
1.53707
1.71174
2.03511
3.26392
4.51205
4.56394
4.5113
4.35858
4.14643
1.40001
1.40001
1.40001
1.40001
1.40001
1.40001
1.40002
1.40004
1.40008
1.40022
1.40047
1.40125
1.40278
1.40724
1.41648
1.44134
1.49318
1.61419
1.83373
2.3999
4.17151
4.54111
4.50412
4.40135
4.19875
1.40001
1.40001
1.40001
1.40001
1.40001
1.40001
1.40001
1.40003
1.40006
1.40013
1.40035
1.40074
1.40206
1.40434
1.412
1.42564
1.46668
1.54394
1.72346
2.0614
3.36685
4.42562
4.46582
4.41702
4.28029
1.40001
1.40001
1.40001
1.40001
1.40001
1.40001
1.40001
1.40002
1.40004
1.40009
1.40022
1.40051
1.40122
1.40305
1.40703
1.41783
1.44062
1.49735
1.61485
1.83404
2.40709
4.11679
4.44873
4.41847
4.33379
1.40001
1.40001
1.40001
1.40001
1.40001
1.40001
1.40001
1.40001
1.40003
1.40006
1.40014
1.40034
1.40078
1.402
1.4045
1.41179
1.42602
1.46586
1.5443
1.71924
2.05564
3.34639
4.32986
4.38895
4.34727
1.40001
1.40001
1.40001
1.40001
1.40001
1.40001
1.40001
1.40001
1.40002
1.40004
1.40009
1.40021
1.4005
1.4012
1.40299
1.40687
1.4174
1.43953
1.49484
1.6086
1.81943
2.36771
4.00686
4.36297
4.34178
1.40001
1.40001
1.40001
1.40001
1.40001
1.40001
1.40001
1.40001
1.40001
1.40003
1.40006
1.40014
1.40032
1.40077
1.40187
1.40436
1.41106
1.42504
1.46216
1.53782
1.70265
2.01786
3.20583
4.21609
4.31713
1.40001
1.40001
1.40001
1.40001
1.40001
1.40001
1.40001
1.40001
1.40001
1.40002
1.40004
1.40009
1.40019
1.40051
1.40106
1.40291
1.40615
1.41667
1.43581
1.49007
1.59238
1.79406
2.28818
3.83663
4.27506
1.40001
1.40001
1.40001
1.40001
1.40001
1.40001
1.40001
1.40001
1.40001
1.40001
1.40003
1.40005
1.40013
1.40029
1.4007
1.4017
1.40394
1.41002
1.42257
1.45625
1.5245
1.67501
1.95182
2.94669
4.07859
1.40001
1.40001
1.40001
1.40001
1.40001
1.40001
1.40001
1.40001
1.40001
1.40001
1.40002
1.40003
1.40008
1.40017
1.40045
1.40094
1.40258
1.40547
1.41472
1.43175
1.48016
1.57154
1.75679
2.17945
3.59626
1.40001
1.40001
1.40001
1.40001
1.40001
1.40001
1.40001
1.40001
1.40001
1.40001
1.40001
1.40002
1.40005
1.40012
1.40024
1.40064
1.40134
1.40368
1.4078
1.42085
1.44494
1.51057
1.63174
1.86586
2.58606
1.40001
1.40001
1.40001
1.40001
1.40001
1.40001
1.40001
1.40001
1.40001
1.40001
1.40001
1.40001
1.40003
1.40006
1.40016
1.40036
1.40085
1.4021
1.40479
1.41225
1.42711
1.4677
1.54701
1.71441
2.05661
1.40001
1.40001
1.40001
1.40001
1.40001
1.40001
1.40001
1.40001
1.40001
1.40001
1.40001
1.40001
1.40002
1.40004
1.40009
1.40021
1.40053
1.40114
1.40309
1.40651
1.41756
1.43737
1.49354
1.59721
1.79792
1.40001
1.40001
1.40001
1.40001
1.40001
1.40001
1.40001
1.40001
1.40001
1.40001
1.40001
1.40001
1.40001
1.40003
1.40006
1.40014
1.4003
1.40081
1.40168
1.4046
1.40973
1.42595
1.45576
1.53634
1.68289
1.40001
1.40001
1.40001
1.40001
1.40001
1.40001
1.40001
1.40001
1.40001
1.40001
1.40001
1.40001
1.40001
1.40002
1.40004
1.40009
1.40024
1.40049
1.40138
1.40289
1.40803
1.41727
1.44574
1.50061
1.6382
1.40001
1.40001
1.40001
1.40001
1.40001
1.40001
1.40001
1.40001
1.40001
1.40001
1.40001
1.40001
1.40001
1.40002
1.40004
1.40007
1.40019
1.4004
1.40115
1.40243
1.40687
1.41495
1.44024
1.48989
1.61623
1.40001
1.40001
1.40001
1.40001
1.40001
1.40001
1.40001
1.40001
1.40001
1.40001
1.40001
1.40001
1.40001
1.40002
1.40003
1.40007
1.40018
1.40037
1.40107
1.40225
1.40657
1.41397
1.43888
1.48587
1.60908
1.40001
1.40001
1.40001
1.40001
1.40001
1.40001
1.40001
1.40001
1.40001
1.40001
1.40001
1.40001
1.40001
1.40002
1.40003
1.40007
1.40015
1.40041
1.40089
1.40259
1.40543
1.41572
1.43434
1.48945
1.60005
1.40001
1.40001
1.40001
1.40001
1.40001
1.40001
1.40001
1.40001
1.40001
1.40001
1.40001
1.40001
1.40001
1.40002
1.40003
1.40007
1.40014
1.40041
1.40086
1.40255
1.40535
1.41555
1.43399
1.48884
1.59836
1.40001
1.40001
1.40001
1.40001
1.40001
1.40001
1.40001
1.40001
1.40001
1.40001
1.40001
1.40001
1.40001
1.40002
1.40003
1.40007
1.40014
1.40041
1.40084
1.40252
1.40529
1.41534
1.43364
1.48784
1.59669
1.40001
1.40001
1.40001
1.40001
1.40001
1.40001
1.40001
1.40001
1.40001
1.40001
1.40001
1.40001
1.40001
1.40001
1.40003
1.40006
1.40015
1.40038
1.40087
1.40239
1.40537
1.41482
1.43366
1.48609
1.5956
1.40001
1.40001
1.40001
1.40001
1.40001
1.40001
1.40001
1.40001
1.40001
1.40001
1.40001
1.40001
1.40001
1.40001
1.40003
1.40006
1.40014
1.40037
1.40088
1.40225
1.40559
1.4139
1.4345
1.48346
1.59502
1.40001
1.40001
1.40001
1.40001
1.40001
1.40001
1.40001
1.40001
1.40001
1.40001
1.40001
1.40001
1.40001
1.40001
1.40003
1.40006
1.40015
1.40035
1.40087
1.40225
1.40537
1.41405
1.43348
1.48318
1.59324
1.40001
1.40001
1.40001
1.40001
1.40001
1.40001
1.40001
1.40001
1.40001
1.40001
1.40001
1.40001
1.40001
1.40001
1.40003
1.40006
1.40014
1.40036
1.40084
1.40223
1.40536
1.4138
1.43341
1.48254
1.59172
1.40001
1.40001
1.40001
1.40001
1.40001
1.40001
1.40001
1.40001
1.40001
1.40001
1.40001
1.40001
1.40001
1.40001
1.40003
1.40006
1.40013
1.40037
1.40079
1.40236
1.40495
1.41455
1.43179
1.48412
1.58943
2.18428
1.598
1.94981
2.03986
1.84769
1.81835
1.80631
1.79089
1.75966
1.72644
1.69798
1.67112
1.64219
1.61052
1.58047
1.55289
1.52918
1.50395
1.4779
1.46735
1.46392
1.46356
1.47298
1.50116
1.5442
1.6006
1.66234
1.72616
1.78871
1.84946
1.90686
1.95931
2.01015
2.05324
2.09334
2.13055
2.16314
2.19528
2.224
2.25019
2.27328
2.29322
2.31047
2.32558
2.34054
2.35187
2.36131
2.36673
2.3726
2.37457
2.3774
2.37624
2.37444
2.371
2.36728
2.36175
2.35568
2.34831
2.34062
2.33188
2.32247
2.31228
2.30142
2.29017
2.27822
2.26595
2.25293
2.23972
2.22585
2.21181
2.19708
2.18225
2.16671
2.15121
2.13501
2.11893
2.10217
2.08555
2.06833
2.05126
2.03374
2.01632
1.99866
1.98093
1.96327
1.94534
1.92773
1.90983
1.89223
1.87462
1.85702
1.83992
1.82257
1.80613
1.78959
1.77413
1.7593
1.74593
1.73465
1.72728
2.68634
2.20436
2.22694
2.05149
1.88997
1.8056
1.78302
1.75885
1.70319
1.65597
1.62236
1.59316
1.56465
1.53121
1.49816
1.46901
1.44257
1.42033
1.39699
1.38361
1.37833
1.37684
1.38434
1.40953
1.45156
1.50924
1.57627
1.64602
1.71406
1.77967
1.84319
1.90136
1.95513
2.0049
2.05148
2.09391
2.13357
2.17083
2.20706
2.23842
2.26796
2.29256
2.31753
2.33926
2.35955
2.37732
2.39134
2.40279
2.41227
2.41989
2.42637
2.42992
2.43164
2.43187
2.43107
2.42901
2.42568
2.42135
2.41582
2.4095
2.4021
2.3941
2.38507
2.37555
2.36511
2.35422
2.34254
2.3305
2.31774
2.30467
2.29099
2.27693
2.26239
2.24737
2.23207
2.21614
2.20018
2.18343
2.16696
2.14947
2.13268
2.11451
2.09753
2.07878
2.06171
2.04256
2.02535
2.00607
1.98866
1.96952
1.95197
1.93315
1.91577
1.89743
1.88075
1.8633
1.84832
1.83302
1.82125
1.81192
3.18922
2.65409
2.46192
2.28338
2.09912
1.96288
1.86909
1.79235
1.71639
1.65456
1.61437
1.58846
1.55308
1.5049
1.46162
1.4235
1.39535
1.37208
1.35282
1.3383
1.33016
1.32685
1.33296
1.35516
1.39688
1.45512
1.52416
1.59946
1.67631
1.74995
1.82152
1.88946
1.95319
2.01144
2.06751
2.11679
2.1628
2.20583
2.24543
2.28153
2.31457
2.34396
2.37098
2.39469
2.41651
2.4349
2.45089
2.46389
2.4746
2.48398
2.49184
2.49701
2.49916
2.50014
2.50002
2.49863
2.49595
2.49197
2.48702
2.48074
2.47382
2.46538
2.45671
2.44647
2.43639
2.42461
2.41335
2.40012
2.3878
2.37323
2.36001
2.34426
2.33027
2.3135
2.29886
2.28125
2.26599
2.24772
2.23191
2.21312
2.19682
2.17765
2.16104
2.14161
2.12483
2.10534
2.08833
2.06912
2.05171
2.03305
2.01531
1.99727
1.97953
1.96222
1.94517
1.92907
1.91338
1.89945
1.88664
1.87882
3.45216
2.94504
2.65663
2.45856
2.29404
2.1529
2.046
1.94812
1.84491
1.7505
1.66868
1.61798
1.57147
1.51762
1.46494
1.42363
1.39313
1.3712
1.35194
1.33382
1.31612
1.30513
1.30593
1.33076
1.37439
1.44089
1.52117
1.60962
1.69875
1.78248
1.86233
1.9382
2.00821
2.07252
2.13258
2.18699
2.23885
2.28593
2.33048
2.37045
2.40731
2.44005
2.47021
2.49671
2.52114
2.54175
2.56008
2.57442
2.58683
2.59634
2.60544
2.6111
2.61435
2.61424
2.6143
2.61191
2.60998
2.60501
2.60062
2.59305
2.58652
2.57687
2.56858
2.55715
2.54722
2.53421
2.52278
2.50843
2.49562
2.48011
2.46598
2.44946
2.43405
2.41667
2.40004
2.38193
2.36419
2.34548
2.32679
2.30757
2.2881
2.26851
2.2484
2.22862
2.20798
2.1882
2.16713
2.14756
2.12628
2.10695
2.08578
2.06697
2.04634
2.02792
2.00822
1.99055
1.97268
1.95685
1.9423
1.93235
3.59044
3.15726
2.84
2.62707
2.46064
2.32289
2.20402
2.10337
2.00428
1.90612
1.81741
1.72947
1.65137
1.58527
1.52501
1.47201
1.42808
1.39628
1.37054
1.3496
1.33404
1.32902
1.33685
1.36407
1.41688
1.4865
1.56803
1.65552
1.74478
1.83164
1.91521
1.99471
2.06878
2.13825
2.20232
2.26247
2.31791
2.36968
2.41727
2.46092
2.49988
2.53491
2.56591
2.5934
2.61757
2.63837
2.65618
2.67045
2.68202
2.69108
2.69932
2.70473
2.70763
2.7061
2.70419
2.70033
2.69627
2.69005
2.68349
2.67498
2.66626
2.65592
2.64538
2.63348
2.62132
2.60812
2.59451
2.58018
2.56529
2.54996
2.53399
2.51777
2.50092
2.48385
2.46631
2.4484
2.43033
2.41161
2.39317
2.37375
2.35508
2.33511
2.31622
2.29589
2.2768
2.25633
2.237
2.21653
2.19721
2.17692
2.15759
2.1373
2.11819
2.09819
2.07961
2.06027
2.04284
2.02523
2.01021
1.99841
3.67783
3.30745
3.00659
2.77874
2.60778
2.46615
2.34947
2.24221
2.1456
2.05074
1.96059
1.87717
1.7928
1.71428
1.64074
1.57628
1.51964
1.47307
1.43684
1.41216
1.39865
1.39793
1.40823
1.43855
1.49305
1.56018
1.63777
1.71973
1.80867
1.89988
1.99005
2.07615
2.15688
2.23067
2.29893
2.36063
2.41781
2.46895
2.51608
2.55767
2.5957
2.62867
2.65845
2.68389
2.7067
2.72554
2.74193
2.75441
2.76456
2.77147
2.77794
2.78212
2.78444
2.78178
2.77829
2.77285
2.76738
2.75994
2.75241
2.7428
2.73322
2.72166
2.71041
2.69726
2.68462
2.67009
2.65618
2.64041
2.62535
2.60851
2.59237
2.57457
2.5574
2.5387
2.52054
2.501
2.48193
2.46167
2.44186
2.42106
2.40066
2.37956
2.3587
2.3375
2.31631
2.29547
2.27418
2.25382
2.23227
2.21241
2.19079
2.17142
2.15
2.13126
2.11051
2.09268
2.07326
2.05723
2.04048
2.02999
3.73357
3.41879
3.13844
2.91477
2.736
2.59288
2.47313
2.36806
2.27061
2.17907
2.09053
2.00609
1.92572
1.8478
1.77382
1.706
1.64696
1.59758
1.56164
1.53654
1.52595
1.52696
1.54913
1.58858
1.63724
1.69377
1.75657
1.82862
1.89578
1.9758
2.06251
2.15116
2.23389
2.31001
2.377
2.43703
2.49093
2.53973
2.58409
2.62384
2.65958
2.69077
2.71874
2.74276
2.76422
2.78197
2.79736
2.80905
2.81879
2.82456
2.83061
2.83468
2.8377
2.83604
2.83251
2.82689
2.82121
2.81384
2.80614
2.79675
2.7868
2.77547
2.76352
2.75068
2.73708
2.72302
2.70798
2.69285
2.67649
2.66038
2.6429
2.6259
2.60756
2.58974
2.57077
2.55214
2.53264
2.51329
2.49329
2.47337
2.45292
2.43258
2.41175
2.39143
2.37024
2.34973
2.3281
2.30744
2.28549
2.26466
2.24265
2.2217
2.19997
2.17906
2.15798
2.13748
2.1176
2.09851
2.08101
2.06708
3.7712
3.49856
3.24342
3.02537
2.84809
2.70109
2.57961
2.4745
2.37918
2.28892
2.20334
2.12158
2.04267
1.96968
1.89767
1.83421
1.77818
1.73612
1.70917
1.68988
1.68484
1.70283
1.7464
1.78165
1.81667
1.85353
1.8879
1.92674
1.97515
2.02338
2.08492
2.16714
2.25322
2.33759
2.4123
2.47831
2.5353
2.58602
2.63138
2.6719
2.70874
2.74116
2.77048
2.79594
2.8186
2.83782
2.85426
2.86743
2.878
2.88491
2.89081
2.89541
2.89863
2.89863
2.8951
2.88956
2.88298
2.87529
2.86665
2.85712
2.84637
2.8349
2.82208
2.8088
2.79425
2.77943
2.76359
2.74747
2.73067
2.71334
2.6957
2.67725
2.65879
2.63936
2.62009
2.59984
2.57985
2.55893
2.53833
2.51695
2.49605
2.47456
2.45346
2.43177
2.41043
2.38862
2.36709
2.34531
2.32367
2.30205
2.2804
2.25907
2.23756
2.2166
2.19549
2.17516
2.15494
2.13603
2.11781
2.10382
3.80102
3.5592
3.32699
3.11972
2.94379
2.79648
2.6728
2.56618
2.47172
2.38467
2.30041
2.2228
2.1461
2.07574
2.00981
1.95034
1.90608
1.87851
1.85901
1.85062
1.86907
1.93037
1.97714
1.99628
2.01865
2.03294
2.0315
2.03476
2.05784
2.08713
2.12907
2.18361
2.25729
2.34642
2.43277
2.51071
2.57777
2.63509
2.68401
2.72635
2.76364
2.79652
2.82591
2.8511
2.87345
2.89183
2.90797
2.92048
2.93075
2.93733
2.94189
2.94507
2.94756
2.94785
2.94461
2.93906
2.93217
2.92384
2.91459
2.90412
2.89295
2.88055
2.86767
2.85349
2.83906
2.8233
2.80748
2.79039
2.77336
2.75517
2.73706
2.71795
2.69888
2.67891
2.65906
2.63831
2.61783
2.59646
2.57569
2.55402
2.53292
2.511
2.48946
2.46741
2.44535
2.42334
2.40079
2.3789
2.35602
2.33429
2.31133
2.2898
2.26707
2.24583
2.22367
2.20297
2.18182
2.16242
2.14332
2.12854
3.8228
3.60541
3.39333
3.19662
3.02629
2.87881
2.75438
2.64699
2.55202
2.46622
2.38491
2.30957
2.23745
2.17021
2.11037
2.06145
2.03551
2.01701
2.00786
2.02599
2.10284
2.18528
2.21657
2.2287
2.23389
2.2169
2.17557
2.14688
2.14152
2.15799
2.18232
2.21789
2.26403
2.32452
2.40383
2.48771
2.5658
2.63498
2.69183
2.7394
2.77858
2.81225
2.84114
2.86613
2.88824
2.90738
2.92362
2.93685
2.94725
2.95467
2.95907
2.9619
2.96429
2.9649
2.96321
2.95781
2.95104
2.94248
2.93315
2.92246
2.91104
2.89855
2.88523
2.87112
2.85606
2.84054
2.82402
2.8073
2.78963
2.77185
2.75327
2.73448
2.71511
2.69534
2.67525
2.6547
2.63416
2.61333
2.59239
2.57136
2.54989
2.52867
2.50667
2.4853
2.46288
2.4414
2.41872
2.39716
2.37437
2.35279
2.33003
2.30851
2.28596
2.26463
2.24249
2.2216
2.20026
2.18053
2.161
2.14555
3.84359
3.64354
3.44807
3.26332
3.09624
2.95242
2.82579
2.71904
2.623
2.53888
2.45928
2.38646
2.31854
2.25776
2.20487
2.17965
2.16105
2.15357
2.17401
2.24467
2.37833
2.45174
2.45959
2.46111
2.44511
2.38289
2.3185
2.26992
2.24148
2.23507
2.24736
2.26609
2.29514
2.33064
2.37964
2.4445
2.52398
2.60282
2.6742
2.73505
2.78492
2.82544
2.85826
2.88564
2.90877
2.92881
2.94589
2.96011
2.97151
2.98004
2.98581
2.98861
2.9908
2.99222
2.99193
2.98828
2.98171
2.97384
2.9644
2.9542
2.94253
2.93037
2.91678
2.90286
2.88761
2.87213
2.85553
2.83868
2.82097
2.80285
2.78413
2.76478
2.74511
2.72463
2.7042
2.68316
2.66227
2.64082
2.61953
2.59775
2.57606
2.554
2.53194
2.50967
2.48731
2.4649
2.44233
2.41988
2.39718
2.3748
2.35209
2.32986
2.30731
2.28533
2.26314
2.24161
2.22011
2.19968
2.17983
2.16341
3.86357
3.67786
3.49381
3.32086
3.15934
3.0167
2.89129
2.78221
2.68682
2.60203
2.52554
2.45487
2.39212
2.33828
2.30843
2.29218
2.28786
2.30338
2.36814
2.53671
2.67046
2.69795
2.6995
2.68214
2.62452
2.53644
2.45932
2.39925
2.35644
2.3311
2.31974
2.32665
2.33822
2.35591
2.38576
2.42106
2.47038
2.5391
2.61424
2.68707
2.7518
2.80533
2.84783
2.88108
2.90747
2.92889
2.94678
2.96156
2.97394
2.98379
2.99112
2.99549
2.99802
2.99973
3.0006
2.99908
2.99403
2.98646
2.97768
2.96724
2.95604
2.94355
2.93048
2.91631
2.90164
2.88597
2.86987
2.85281
2.83546
2.81711
2.79862
2.77906
2.75955
2.73917
2.71905
2.69807
2.67739
2.65597
2.63471
2.61299
2.59118
2.56932
2.54701
2.52508
2.50236
2.48039
2.45739
2.43538
2.41223
2.3902
2.36707
2.34509
2.32215
2.30035
2.2778
2.25643
2.23457
2.21425
2.19404
2.17751
3.88341
3.71054
3.53654
3.37054
3.21685
3.07616
2.95158
2.84228
2.74584
2.66107
2.58656
2.51993
2.4631
2.42928
2.41481
2.41129
2.42802
2.48817
2.65356
2.84963
2.92869
2.92921
2.91649
2.87154
2.77228
2.67675
2.59532
2.53017
2.47802
2.43977
2.41149
2.39628
2.3892
2.39689
2.40794
2.42638
2.45191
2.48773
2.54274
2.61174
2.68531
2.75294
2.81126
2.85773
2.89389
2.9215
2.94271
2.95963
2.97316
2.98422
2.99295
2.99929
3.00277
3.00454
3.00551
3.00536
3.00251
2.99628
2.98783
2.97818
2.96697
2.95495
2.9417
2.9279
2.91304
2.89771
2.8814
2.86461
2.84693
2.82869
2.8097
2.79016
2.77024
2.74994
2.72939
2.70854
2.68743
2.66617
2.64454
2.62297
2.60092
2.5791
2.55672
2.5347
2.51209
2.48991
2.46716
2.44489
2.42207
2.39982
2.37699
2.35484
2.33211
2.31017
2.28771
2.26617
2.24428
2.2237
2.20334
2.18628
3.9069
3.74022
3.57624
3.41712
3.26782
3.13206
3.00776
2.89852
2.80231
2.7165
2.64491
2.58286
2.54187
2.53082
2.52677
2.5442
2.60393
2.75609
2.99159
3.13493
3.13716
3.13078
3.09988
3.0125
2.90391
2.80812
2.72694
2.65932
2.60129
2.55347
2.51294
2.48196
2.45874
2.44471
2.4413
2.44831
2.45821
2.47548
2.50123
2.54115
2.60242
2.67022
2.73886
2.80181
2.85408
2.89518
2.92603
2.94857
2.96551
2.9784
2.98869
2.99651
3.00208
3.00496
3.00636
3.00706
3.00627
3.00284
2.99588
2.98718
2.97688
2.96547
2.95289
2.93939
2.92503
2.90978
2.89388
2.87703
2.8597
2.84131
2.82263
2.8031
2.78353
2.76323
2.74291
2.72202
2.70105
2.67971
2.65817
2.6365
2.61447
2.59255
2.57014
2.54804
2.52533
2.50308
2.48018
2.45782
2.43482
2.41242
2.38946
2.36713
2.34432
2.3222
2.29969
2.27802
2.25608
2.23537
2.21493
2.19757
3.93569
3.77327
3.61543
3.4644
3.3188
3.18556
3.06354
2.95398
2.85841
2.77489
2.70602
2.65377
2.64326
2.64006
2.65565
2.71225
2.85345
3.11512
3.29798
3.33401
3.32794
3.30055
3.22887
3.12214
3.02087
2.93192
2.85389
2.785
2.72309
2.66796
2.61866
2.57615
2.53997
2.51122
2.49067
2.47739
2.47855
2.48493
2.49438
2.51191
2.5408
2.58456
2.64722
2.71442
2.78057
2.83865
2.88614
2.9215
2.94753
2.96578
2.97929
2.98886
2.99572
3.00029
3.00189
3.00286
3.00284
3.00166
2.99724
2.98969
2.98011
2.96928
2.95708
2.94393
2.92976
2.91475
2.8989
2.8822
2.86474
2.84645
2.82775
2.80837
2.78876
2.76855
2.74819
2.72733
2.70633
2.68499
2.66343
2.64176
2.61974
2.59785
2.57547
2.55344
2.53081
2.50866
2.48588
2.46367
2.44081
2.41861
2.39574
2.37362
2.35088
2.32896
2.30649
2.28497
2.26307
2.24243
2.22201
2.20454
3.96842
3.80841
3.65527
3.5093
3.36918
3.23782
3.11812
3.00916
2.91444
2.83643
2.77316
2.75641
2.75177
2.76748
2.82016
2.95244
3.22679
3.44116
3.50905
3.50435
3.4822
3.4254
3.32217
3.22131
3.13097
3.04999
2.97582
2.90649
2.84155
2.78077
2.72469
2.67347
2.62791
2.58827
2.55519
2.52901
2.5113
2.50155
2.50626
2.51054
2.51981
2.53737
2.57073
2.62183
2.68501
2.75211
2.8151
2.86878
2.91083
2.94172
2.96299
2.97748
2.98685
2.9932
2.9965
2.99797
2.99864
2.99874
2.99706
2.99211
2.98404
2.9743
2.963
2.95041
2.93666
2.92185
2.90622
2.88956
2.87225
2.85407
2.83559
2.8163
2.79689
2.77671
2.7565
2.73568
2.71479
2.69352
2.67203
2.65043
2.62841
2.60657
2.58411
2.56207
2.5393
2.5171
2.49416
2.47186
2.44886
2.42653
2.40359
2.38133
2.35856
2.33653
2.3141
2.29254
2.2707
2.25011
2.2298
2.21231
4.01169
3.85126
3.70005
3.55703
3.42077
3.29166
3.17443
3.06801
2.97777
2.90418
2.8744
2.86866
2.88238
2.93096
3.05604
3.33351
3.57115
3.66554
3.66271
3.64628
3.60143
3.50562
3.40819
3.31966
3.23923
3.16415
3.09191
3.02195
2.95442
2.88962
2.82885
2.77137
2.71955
2.67165
2.62999
2.59351
2.56328
2.54014
2.5241
2.52053
2.5224
2.52629
2.53673
2.55688
2.5973
2.65275
2.71759
2.78336
2.84393
2.89352
2.93066
2.95605
2.97266
2.98261
2.98847
2.991
2.99189
2.99241
2.99179
2.98944
2.98332
2.97506
2.9649
2.95316
2.93999
2.92558
2.91018
2.89366
2.87657
2.85858
2.84033
2.82121
2.80195
2.7819
2.76175
2.74099
2.72006
2.69885
2.67728
2.65575
2.63365
2.61186
2.58935
2.56732
2.54456
2.52234
2.49946
2.47713
2.45425
2.43193
2.40916
2.38697
2.36441
2.34251
2.32029
2.29891
2.27733
2.25696
2.23694
2.21964
4.07167
3.89965
3.74847
3.60633
3.47248
3.34638
3.23109
3.13098
3.04768
3.00397
2.99632
3.00666
3.05013
3.16726
3.44352
3.69553
3.81087
3.80927
3.79588
3.75962
3.67307
3.5795
3.49411
3.41748
3.34411
3.27301
3.20128
3.13091
3.06148
2.99436
2.93006
2.86891
2.81198
2.7587
2.71031
2.66628
2.6271
2.59366
2.56582
2.54534
2.535
2.53085
2.53292
2.53752
2.55011
2.57515
2.62066
2.67976
2.74613
2.81105
2.86762
2.91212
2.94373
2.96417
2.97595
2.98223
2.98394
2.98478
2.98485
2.98401
2.98054
2.97409
2.96552
2.95502
2.94281
2.929
2.91401
2.89782
2.88105
2.86325
2.84516
2.8261
2.80691
2.78689
2.76678
2.74607
2.72518
2.70402
2.68249
2.66101
2.63899
2.61724
2.59485
2.57283
2.55016
2.52789
2.50506
2.48265
2.4598
2.43741
2.41469
2.39251
2.37006
2.34828
2.32628
2.30516
2.28391
2.26397
2.24438
2.22767
4.14214
3.95782
3.80084
3.65941
3.52762
3.40471
3.2955
3.20257
3.14518
3.13508
3.14205
3.18192
3.29205
3.56301
3.82178
3.95141
3.9531
3.94237
3.90817
3.82563
3.73626
3.65694
3.58454
3.51619
3.44667
3.37684
3.30538
3.23471
3.16397
3.09548
3.02875
2.96543
2.90484
2.84818
2.79461
2.74502
2.69911
2.65791
2.62113
2.58994
2.56532
2.54767
2.54203
2.53485
2.53857
2.54454
2.55931
2.58997
2.64206
2.70381
2.77008
2.83275
2.88546
2.9247
2.9511
2.96648
2.97419
2.97578
2.9763
2.97607
2.97416
2.9693
2.96219
2.95312
2.94214
2.92932
2.91509
2.8994
2.88299
2.86543
2.8476
2.82876
2.80983
2.79004
2.77015
2.74962
2.72886
2.70775
2.68623
2.6647
2.64263
2.62082
2.59841
2.57639
2.55377
2.5316
2.50889
2.48664
2.46394
2.44171
2.41915
2.39712
2.37488
2.3533
2.3316
2.31083
2.29006
2.27079
2.25187
2.23626
4.23221
4.02981
3.85923
3.71399
3.58396
3.46759
3.3676
3.2983
3.28517
3.28891
3.32501
3.43113
3.6986
3.96161
4.09724
4.10243
4.09113
4.05577
3.97089
3.88392
3.80807
3.74163
3.67751
3.613
3.5458
3.47687
3.40625
3.33515
3.26422
3.1947
3.12668
3.06155
2.9981
2.93837
2.88019
2.82666
2.77521
2.7287
2.68507
2.64682
2.6125
2.58433
2.56164
2.54884
2.54114
2.53684
2.54045
2.54905
2.56679
2.60327
2.65892
2.72318
2.78993
2.84983
2.89823
2.93225
2.95281
2.96327
2.96546
2.96601
2.96519
2.96249
2.95654
2.94852
2.93878
2.92713
2.91405
2.89926
2.88363
2.86658
2.84919
2.8306
2.81188
2.79218
2.77238
2.75192
2.73126
2.71028
2.68888
2.66749
2.6455
2.62381
2.60142
2.57951
2.55689
2.53484
2.51216
2.49001
2.46743
2.44531
2.42299
2.40112
2.37922
2.35792
2.33671
2.31647
2.29644
2.27819
2.2603
2.24656
4.27301
4.11188
3.92952
3.77619
3.64934
3.541
3.46158
3.44546
3.44625
3.47961
3.58472
3.85588
4.12101
4.25616
4.25836
4.24563
4.20714
4.11646
4.0286
3.95471
3.89043
3.83124
3.77101
3.7085
3.64254
3.57416
3.50386
3.4327
3.36194
3.29156
3.22316
3.15566
3.09086
3.02772
2.96758
2.9101
2.85534
2.80422
2.75558
2.71147
2.67025
2.63403
2.60235
2.57614
2.55718
2.54689
2.53706
2.53484
2.53888
2.54968
2.57146
2.61637
2.67354
2.73962
2.80533
2.86173
2.90457
2.93264
2.94783
2.95257
2.95285
2.95198
2.94869
2.94163
2.93273
2.92208
2.9101
2.89641
2.88166
2.86533
2.84838
2.83015
2.8116
2.79213
2.77246
2.75223
2.73169
2.71094
2.68968
2.66856
2.64673
2.62529
2.60304
2.5813
2.55886
2.53687
2.51444
2.49236
2.47008
2.4481
2.42615
2.40455
2.38317
2.36237
2.34195
2.32261
2.30382
2.28718
2.271
2.26033
4.28334
4.19068
4.00527
3.84798
3.72406
3.63336
3.61375
3.61265
3.64611
3.75349
4.03475
4.30234
4.43585
4.43052
4.41241
4.36499
4.26545
4.17371
4.09847
4.03603
3.97912
3.9227
3.86368
3.80165
3.73634
3.66832
3.59879
3.5279
3.45738
3.38659
3.31744
3.24867
3.18254
3.11722
3.05527
2.99448
2.93735
2.88185
2.83045
2.78061
2.73532
2.6924
2.65408
2.61935
2.59033
2.5656
2.55072
2.5383
2.52882
2.53013
2.53507
2.54765
2.57294
2.62459
2.68465
2.75177
2.81436
2.86702
2.90407
2.92611
2.93589
2.93621
2.93523
2.93182
2.92448
2.9145
2.90322
2.89015
2.87635
2.86081
2.84471
2.82703
2.80903
2.78993
2.7706
2.75068
2.73036
2.70991
2.68881
2.66789
2.64621
2.62491
2.60293
2.58138
2.55927
2.5376
2.51552
2.49383
2.47196
2.45042
2.42897
2.40793
2.38719
2.3672
2.34774
2.32979
2.31269
2.29853
2.28538
2.27771
4.26389
4.2196
4.10534
3.94151
3.81853
3.79292
3.78836
3.82194
3.93581
4.24103
4.51419
4.63623
4.62856
4.59989
4.53041
4.42368
4.32529
4.2466
4.1833
4.12734
4.07326
4.01681
3.95766
3.89473
3.82952
3.76124
3.69216
3.62124
3.55075
3.47955
3.40962
3.3398
3.27229
3.20527
3.14163
3.07844
3.01945
2.96066
2.90656
2.85286
2.80407
2.75613
2.71313
2.67188
2.63583
2.60255
2.57542
2.55367
2.53919
2.52617
2.51782
2.5206
2.52802
2.54341
2.5751
2.6283
2.69128
2.75776
2.81768
2.86493
2.89559
2.9121
2.91458
2.91389
2.91105
2.90449
2.8939
2.88137
2.86807
2.85334
2.83789
2.82097
2.80349
2.78489
2.76595
2.74629
2.72645
2.70616
2.68566
2.66498
2.64389
2.62298
2.60137
2.58025
2.55837
2.53706
2.51526
2.49391
2.47248
2.4514
2.43064
2.4103
2.39068
2.3719
2.35429
2.33849
2.32452
2.31447
2.30373
2.29987
4.25021
4.22996
4.17722
4.0465
3.98791
3.97735
4.01043
4.13431
4.46738
4.74984
4.85812
4.84827
4.80884
4.71312
4.59139
4.48493
4.4009
4.33311
4.27646
4.22196
4.16833
4.11046
4.05058
3.98654
3.92085
3.85244
3.78316
3.71266
3.64165
3.5709
3.49965
3.43033
3.36053
3.29388
3.22717
3.16378
3.10116
3.04154
2.98347
2.92821
2.87491
2.82452
2.77643
2.73134
2.68904
2.65034
2.61466
2.58429
2.55732
2.53943
2.52218
2.50965
2.50376
2.50667
2.51561
2.53418
2.57395
2.62846
2.69347
2.75794
2.8138
2.85437
2.87867
2.88786
2.88736
2.88507
2.8799
2.86843
2.85616
2.84185
2.82712
2.8109
2.79438
2.77669
2.75849
2.73971
2.72012
2.70073
2.68011
2.66032
2.63909
2.61892
2.59756
2.57699
2.55573
2.53486
2.51383
2.49293
2.4724
2.45192
2.4323
2.41299
2.39499
2.37803
2.36298
2.35097
2.34119
2.33392
2.32847
2.32959
4.17623
4.24784
4.22754
4.19765
4.18361
4.22063
4.36425
4.73046
5.02393
5.11046
5.09372
5.03779
4.91059
4.77202
4.65536
4.56486
4.49415
4.43393
4.37848
4.32317
4.26616
4.20616
4.14368
4.07853
4.01181
3.94338
3.87384
3.80358
3.73222
3.66122
3.5894
3.51906
3.44845
3.38026
3.31214
3.24725
3.18237
3.1215
3.06033
3.00381
2.94671
2.89475
2.84213
2.7947
2.74725
2.70444
2.66292
2.62574
2.59099
2.5616
2.5366
2.51812
2.49994
2.48696
2.48558
2.48935
2.49895
2.51915
2.56584
2.62282
2.68791