/*--------------------------------*- C++ -*----------------------------------*\
  =========                 |
  \\      /  F ield         | OpenFOAM: The Open Source CFD Toolbox
   \\    /   O peration     | Website:  https://openfoam.org
    \\  /    A nd           | Version:  9
     \\/     M anipulation  |
\*---------------------------------------------------------------------------*/
FoamFile
{
    format      ascii;
    class       volScalarField;
    location    "7";
    object      T;
}
// * * * * * * * * * * * * * * * * * * * * * * * * * * * * * * * * * * * * * //

dimensions      [0 0 0 1 0 0 0];

internalField   nonuniform List<scalar> 
5250
(
1.00001
1.00002
1.00005
1.00011
1.00033
1.00067
1.002
1.00426
1.01185
1.02742
1.07349
1.18961
1.51493
2.23399
2.68422
2.75123
2.74118
2.73965
2.75081
2.76671
2.77901
2.78743
2.79318
2.79993
2.80238
1.00001
1.00002
1.00005
1.00012
1.0003
1.00075
1.00178
1.00463
1.01082
1.02861
1.0703
1.18928
1.50601
2.22328
2.68017
2.75107
2.74064
2.73882
2.74995
2.76576
2.77796
2.78633
2.79205
2.79872
2.80103
1.00001
1.00002
1.00005
1.00012
1.00029
1.00072
1.00174
1.00447
1.01057
1.0277
1.06836
1.1834
1.49101
2.19685
2.67074
2.7502
2.73882
2.73621
2.74716
2.76293
2.77477
2.78305
2.7891
2.79512
2.79717
1.00001
1.00002
1.00005
1.0001
1.0003
1.00064
1.00177
1.00402
1.01062
1.02551
1.06657
1.17318
1.46908
2.15412
2.65563
2.74869
2.73571
2.73179
2.74235
2.758
2.77003
2.7777
2.78325
2.79015
2.79175
1
1.00001
1.00004
1.0001
1.00028
1.00059
1.00173
1.00359
1.01046
1.02303
1.0635
1.1605
1.4389
2.09458
2.63409
2.74623
2.73113
2.72535
2.73621
2.75027
2.76288
2.77017
2.77522
2.78174
2.78373
1
1.00002
1.00004
1.0001
1.00022
1.00064
1.00134
1.00393
1.00831
1.02345
1.05499
1.15013
1.39743
2.01766
2.60455
2.74181
2.72436
2.71662
2.72696
2.74182
2.75278
2.76113
2.76465
2.77092
2.77241
1
1.00001
1.00004
1.00008
1.00023
1.00049
1.00144
1.00297
1.00872
1.01893
1.05239
1.13037
1.35657
1.91848
2.56596
2.73316
2.71376
2.70403
2.71421
2.72904
2.74012
2.74703
2.75093
2.75483
2.75572
1
1.00001
1.00003
1.00007
1.00021
1.00044
1.00127
1.00264
1.00771
1.01668
1.04611
1.11351
1.30928
1.80351
2.51552
2.7174
2.69745
2.68721
2.69782
2.7123
2.72324
2.72991
2.7312
2.73355
2.73009
1
1.00001
1.00002
1.00008
1.00015
1.00047
1.00094
1.00277
1.00594
1.01636
1.03832
1.10273
1.268
1.71298
2.46191
2.70131
2.68091
2.67121
2.6792
2.69243
2.70174
2.70644
2.7059
2.70117
2.68745
1
1.00001
1.00002
1.00007
1.00014
1.00039
1.0009
1.00231
1.00562
1.01395
1.035
1.0898
1.23798
1.6355
2.39054
2.67517
2.66883
2.66109
2.66226
2.67142
2.67754
2.67863
2.6718
2.65152
2.59647
1
1.00001
1.00002
1.00006
1.00013
1.00035
1.00076
1.00218
1.00457
1.01317
1.02937
1.0806
1.20656
1.55941
2.29004
2.63678
2.66055
2.65175
2.64694
2.6501
2.65138
2.64632
2.62767
2.58186
2.47611
1
1.00001
1.00002
1.00004
1.00012
1.00027
1.00076
1.00161
1.00466
1.00998
1.02789
1.06625
1.18077
1.47864
2.1655
2.58583
2.65185
2.64209
2.63287
2.63003
2.62559
2.6127
2.58243
2.51809
2.40451
1
1.00001
1.00001
1.00004
1.00009
1.00026
1.00057
1.00152
1.00361
1.00902
1.02259
1.05688
1.14909
1.40014
2.00933
2.5195
2.63766
2.62811
2.61664
2.60912
2.59939
2.57924
2.54181
2.47776
2.37662
1
1
1.00001
1.00003
1.00009
1.00018
1.00054
1.00111
1.00322
1.00697
1.01904
1.04505
1.12075
1.31666
1.82621
2.43334
2.61141
2.60647
2.596
2.58567
2.573
2.55053
2.51005
2.45085
2.36651
1
1
1.00001
1.00003
1.00006
1.00018
1.00037
1.00103
1.00228
1.00608
1.01424
1.03695
1.09214
1.24605
1.64233
2.32845
2.57254
2.5786
2.5704
2.55865
2.54455
2.52266
2.48429
2.43124
2.35797
1
1
1.00001
1.00002
1.00006
1.00012
1.00034
1.00075
1.00199
1.00469
1.01185
1.02925
1.07474
1.19573
1.52079
2.20108
2.52391
2.55598
2.54667
2.5357
2.51868
2.49737
2.46079
2.41365
2.35023
1
1
1.00001
1.00002
1.00004
1.00011
1.00026
1.00062
1.00157
1.00368
1.00971
1.02264
1.06
1.15265
1.41117
2.01606
2.44667
2.53455
2.52668
2.51512
2.49654
2.4744
2.44104
2.39747
2.34295
1
1
1.00001
1.00001
1.00003
1.00008
1.00019
1.00051
1.00113
1.00313
1.00675
1.0189
1.04336
1.1176
1.30553
1.79455
2.34259
2.50292
2.50527
2.49525
2.475
2.45245
2.42167
2.38242
2.3341
1
1
1
1.00001
1.00003
1.00006
1.00016
1.00033
1.00099
1.002
1.00579
1.01257
1.03421
1.0824
1.22101
1.57368
2.20832
2.45389
2.47738
2.46964
2.45202
2.42998
2.40283
2.3682
2.32516
1
1
1
1.00001
1.00002
1.00005
1.00011
1.00029
1.00065
1.00177
1.00381
1.01067
1.02377
1.06458
1.1616
1.4342
2.03399
2.38782
2.4516
2.44571
2.43046
2.40894
2.3836
2.35315
2.31587
1
1
1
1.00001
1.00001
1.00004
1.00008
1.00021
1.0005
1.00121
1.00309
1.00716
1.019
1.04487
1.11943
1.31132
1.80002
2.28204
2.41718
2.42202
2.41129
2.39138
2.36489
2.33714
2.30427
1
1
1
1
1.00001
1.00002
1.00007
1.00013
1.00039
1.00081
1.00229
1.00498
1.01339
1.03119
1.08197
1.20835
1.54895
2.13354
2.36296
2.39327
2.38756
2.37068
2.34669
2.32039
2.29227
1
1
1
1
1.00001
1.00002
1.00004
1.00012
1.00024
1.00067
1.00146
1.00391
1.00903
1.02322
1.05688
1.149
1.38858
1.94103
2.28856
2.36429
2.36353
2.35013
2.32846
2.30371
2.27786
1
1
1
1
1
1.00001
1.00003
1.00008
1.00018
1.00045
1.00108
1.0026
1.00659
1.01555
1.04023
1.09991
1.26333
1.67779
2.16766
2.32253
2.33753
2.32917
2.31117
2.28744
2.26294
1
1
1
1
1
1.00001
1.00002
1.00005
1.00013
1.0003
1.00077
1.00171
1.00467
1.01021
1.02785
1.06526
1.17384
1.44982
1.99627
2.25917
2.30794
2.30534
2.29122
2.27124
2.24729
1
1
1
1
1
1.00001
1.00002
1.00003
1.00009
1.0002
1.00052
1.00123
1.003
1.00743
1.01791
1.04544
1.11466
1.29999
1.75433
2.15596
2.27141
2.28134
2.27341
2.25548
2.2326
1
1
1
1
1
1
1.00001
1.00002
1.00006
1.00014
1.00033
1.00085
1.00188
1.0051
1.01114
1.03025
1.07089
1.18779
1.48365
1.99695
2.21259
2.25128
2.2499
2.23711
2.21746
1
1
1
1
1
1
1.00001
1.00002
1.00003
1.0001
1.00021
1.00057
1.00126
1.00327
1.0077
1.01921
1.04741
1.12119
1.31395
1.77187
2.12103
2.21782
2.22726
2.22071
2.20469
1
1
1
1
1
1
1
1.00001
1.00003
1.00006
1.00015
1.00032
1.00091
1.00185
1.00537
1.01123
1.03093
1.07205
1.19041
1.48691
1.96858
2.16437
2.19901
2.19936
2.18747
1
1
1
1
1
1
1
1.00001
1.00002
1.00004
1.0001
1.0002
1.00059
1.0012
1.00344
1.0073
1.01986
1.04597
1.12143
1.30849
1.75338
2.07905
2.16832
2.17841
2.17272
1
1
1
1
1
1
1
1
1.00001
1.00003
1.00005
1.00015
1.00031
1.00089
1.0018
1.00523
1.01091
1.03002
1.0696
1.1834
1.4673
1.92572
2.1156
2.15078
2.1524
1
1
1
1
1
1
1
1
1.00001
1.00002
1.00004
1.00009
1.0002
1.00056
1.00114
1.0033
1.00683
1.01901
1.04303
1.11441
1.28796
1.70534
2.0281
2.12034
2.13282
1
1
1
1
1
1
1
1
1
1.00001
1.00002
1.00005
1.00014
1.00031
1.00078
1.00184
1.00444
1.01101
1.0262
1.06632
1.16612
1.42917
1.86727
2.06339
2.10376
1
1
1
1
1
1
1
1
1
1.00001
1.00001
1.00003
1.00008
1.00018
1.00051
1.00103
1.00298
1.00612
1.01714
1.0382
1.10169
1.25318
1.62782
1.96453
2.07162
1
1
1
1
1
1
1
1
1
1
1.00001
1.00002
1.00005
1.00012
1.00027
1.00069
1.00164
1.00391
1.00974
1.02293
1.05831
1.14442
1.37386
1.79013
2.00668
1
1
1
1
1
1
1
1
1
1
1.00001
1.00001
1.00003
1.00007
1.00017
1.00039
1.00097
1.00234
1.00555
1.01389
1.03278
1.08328
1.20884
1.52194
1.88683
1
1
1
1
1
1
1
1
1
1
1
1.00001
1.00002
1.00004
1.00011
1.00022
1.00062
1.00126
1.00361
1.00747
1.02053
1.04645
1.12218
1.30527
1.69653
1
1
1
1
1
1
1
1
1
1
1
1
1.00001
1.00003
1.00005
1.00015
1.00031
1.00086
1.00185
1.00484
1.01104
1.02786
1.06698
1.17036
1.4286
1
1
1
1
1
1
1
1
1
1
1
1
1.00001
1.00001
1.00004
1.00008
1.00022
1.00049
1.00121
1.00291
1.00688
1.01725
1.04066
1.10371
1.25945
1
1
1
1
1
1
1
1
1
1
1
1
1
1.00001
1.00002
1.00006
1.00014
1.00036
1.00085
1.00206
1.00514
1.01218
1.03123
1.07658
1.1999
1
1
1
1
1
1
1
1
1
1
1
1
1
1.00001
1.00002
1.00005
1.00011
1.00029
1.00071
1.00174
1.00441
1.01054
1.02749
1.06841
1.1832
1
1
1
1
1
1
1
1
1
1
1
1
1
1.00001
1.00002
1.00005
1.0001
1.00029
1.00062
1.00172
1.00399
1.01049
1.02575
1.06761
1.17902
1
1
1
1
1
1
1
1
1
1
1
1
1
1.00001
1.00002
1.00004
1.00011
1.00023
1.00069
1.00151
1.00419
1.00978
1.02607
1.06524
1.17832
1
1
1
1
1
1
1
1
1
1
1
1
1
1.00001
1.00002
1.00004
1.00011
1.00024
1.00067
1.00151
1.00409
1.00981
1.0256
1.06513
1.17697
1
1
1
1
1
1
1
1
1
1
1
1
1
1.00001
1.00002
1.00004
1.00011
1.00024
1.00065
1.00152
1.00397
1.00981
1.02508
1.06462
1.17464
1
1
1
1
1
1
1
1
1
1
1
1
1
1.00001
1.00002
1.00004
1.00011
1.00022
1.00068
1.00137
1.00419
1.00906
1.02567
1.06235
1.17349
1
1
1
1
1
1
1
1
1
1
1
1
1
1.00001
1.00001
1.00004
1.00009
1.00026
1.00055
1.00164
1.00346
1.01027
1.023
1.06447
1.16755
1
1
1
1
1
1
1
1
1
1
1
1
1
1.00001
1.00002
1.00004
1.0001
1.00022
1.00065
1.00133
1.00409
1.00867
1.02508
1.06033
1.16886
1
1
1
1
1
1
1
1
1
1
1
1
1
1.00001
1.00001
1.00004
1.00009
1.00025
1.00054
1.00158
1.0034
1.00993
1.02254
1.06283
1.16396
1
1
1
1
1
1
1
1
1
1
1
1
1
1.00001
1.00002
1.00003
1.0001
1.00021
1.00062
1.00137
1.00381
1.00897
1.02395
1.06033
1.16563
2.32482
2.43286
2.66224
2.86394
2.92269
2.89078
2.86953
2.86075
2.84847
2.83006
2.81005
2.79219
2.77373
2.7551
2.73418
2.71519
2.69647
2.68001
2.66176
2.64814
2.64144
2.63933
2.64337
2.65362
2.67602
2.70391
2.73665
2.76827
2.798
2.82317
2.84488
2.86482
2.87722
2.89168
2.90224
2.90988
2.9178
2.92146
2.92459
2.92567
2.9257
2.92518
2.92359
2.9222
2.91824
2.9146
2.90904
2.90544
2.89837
2.89469
2.88739
2.88143
2.87421
2.86748
2.85974
2.85282
2.84516
2.83785
2.82978
2.82194
2.81394
2.80597
2.79796
2.78964
2.78143
2.7729
2.76462
2.75592
2.74743
2.73856
2.72998
2.72099
2.71239
2.70324
2.69452
2.68521
2.67638
2.66699
2.65806
2.64862
2.63952
2.63009
2.6208
2.6115
2.60204
2.5929
2.58337
2.57429
2.56492
2.55575
2.54683
2.5376
2.52922
2.52028
2.51245
2.50448
2.49761
2.49165
2.48705
2.48408
2.33595
2.41457
2.56758
2.77368
2.85664
2.90804
2.94094
2.94677
2.94916
2.94274
2.92816
2.92144
2.9089
2.89652
2.88219
2.86565
2.85241
2.83639
2.82303
2.80861
2.80114
2.79979
2.80369
2.81407
2.83235
2.85374
2.87445
2.89312
2.91087
2.92526
2.93466
2.94365
2.9501
2.95328
2.95318
2.95249
2.94971
2.94671
2.94052
2.93494
2.92677
2.92067
2.91006
2.90057
2.89025
2.87926
2.86895
2.85851
2.84758
2.83768
2.82698
2.81608
2.80449
2.79352
2.78265
2.77192
2.76129
2.75056
2.74006
2.72943
2.71908
2.70853
2.69832
2.68788
2.67777
2.66747
2.65742
2.64716
2.63711
2.62685
2.61674
2.60655
2.5964
2.58633
2.57614
2.56626
2.55601
2.54633
2.53598
2.52655
2.51606
2.50697
2.49631
2.48765
2.4769
2.46861
2.458
2.44993
2.43972
2.43176
2.4221
2.41434
2.40524
2.39799
2.38953
2.38329
2.37582
2.37151
2.36662
2.36557
2.32685
2.34474
2.41782
2.506
2.59356
2.68946
2.78836
2.85864
2.91154
2.9388
2.94378
2.9358
2.93101
2.94271
2.94585
2.94519
2.93465
2.92574
2.91647
2.90402
2.89663
2.89587
2.89853
2.90781
2.91875
2.93511
2.95114
2.95708
2.95707
2.95615
2.95274
2.94774
2.94032
2.93233
2.92045
2.91207
2.90259
2.893
2.88314
2.87278
2.86164
2.85093
2.8393
2.82855
2.81707
2.80628
2.79474
2.78347
2.7719
2.76075
2.74961
2.73827
2.72638
2.71465
2.70325
2.69213
2.68113
2.6703
2.65936
2.64883
2.63805
2.62803
2.61746
2.60781
2.59728
2.5879
2.57734
2.56828
2.55766
2.54892
2.53819
2.52969
2.51881
2.51048
2.49941
2.49116
2.47996
2.47171
2.46045
2.45218
2.44092
2.43264
2.42136
2.4131
2.4018
2.3935
2.38239
2.37382
2.36328
2.35429
2.34449
2.3353
2.32613
2.31706
2.30853
2.30002
2.29268
2.28573
2.28102
2.27704
2.30569
2.29239
2.31329
2.36152
2.41551
2.48298
2.555
2.62961
2.70544
2.77502
2.84137
2.86843
2.88457
2.90789
2.93126
2.93872
2.93422
2.92379
2.91449
2.91201
2.9179
2.92505
2.93895
2.94446
2.94423
2.94002
2.93211
2.91534
2.89698
2.88325
2.86965
2.85567
2.84252
2.82975
2.8161
2.80438
2.79077
2.77888
2.76577
2.75368
2.74085
2.72879
2.71605
2.70423
2.69172
2.68027
2.66804
2.65696
2.64501
2.63486
2.62391
2.61397
2.60216
2.59184
2.58054
2.57086
2.55965
2.55027
2.53918
2.5302
2.51928
2.51056
2.49975
2.49128
2.48067
2.47242
2.46203
2.45392
2.44375
2.43571
2.42581
2.41779
2.40823
2.40017
2.39096
2.38283
2.37398
2.36577
2.35723
2.34899
2.34077
2.33249
2.32461
2.31628
2.30879
2.30038
2.29331
2.28472
2.27802
2.26929
2.26286
2.25417
2.24786
2.23959
2.23342
2.22606
2.22039
2.21471
2.21082
2.20828
2.29553
2.25824
2.25531
2.27203
2.30414
2.34406
2.39433
2.44609
2.49901
2.55572
2.61328
2.68261
2.73897
2.77777
2.81122
2.8397
2.86118
2.8694
2.87386
2.87891
2.88584
2.88875
2.88487
2.87583
2.86255
2.84336
2.82506
2.8072
2.79058
2.77561
2.76092
2.74643
2.73291
2.71865
2.70506
2.69087
2.67745
2.6639
2.65083
2.63787
2.62576
2.61394
2.60278
2.59203
2.58167
2.57171
2.5617
2.55219
2.54241
2.53355
2.52457
2.51634
2.50689
2.49826
2.48901
2.48088
2.47203
2.46414
2.45548
2.44759
2.43897
2.431
2.42244
2.41442
2.40598
2.39788
2.38955
2.38134
2.37311
2.36479
2.35658
2.34814
2.33985
2.33133
2.32286
2.31434
2.30563
2.2972
2.28823
2.27992
2.27069
2.26253
2.25318
2.24512
2.2358
2.22778
2.21857
2.21057
2.20149
2.19358
2.18473
2.1771
2.1686
2.16144
2.15342
2.14706
2.14001
2.13514
2.13043
2.12862
2.28888
2.2449
2.22063
2.22015
2.23102
2.25379
2.28191
2.31859
2.35451
2.39351
2.4353
2.47824
2.52792
2.57404
2.61905
2.65924
2.69865
2.73352
2.76167
2.78101
2.79319
2.79686
2.79243
2.77753
2.75633
2.72732
2.69836
2.67147
2.64899
2.62963
2.61372
2.60002
2.58734
2.57602
2.56442
2.55428
2.54395
2.53546
2.52677
2.5194
2.51136
2.50434
2.49675
2.49002
2.4827
2.47617
2.469
2.46253
2.45533
2.44904
2.44251
2.43657
2.42955
2.42284
2.41529
2.40862
2.40119
2.39459
2.3871
2.38044
2.37281
2.36607
2.35827
2.35141
2.34346
2.33654
2.3285
2.32153
2.31344
2.30641
2.2983
2.29121
2.28312
2.27598
2.26797
2.26082
2.25291
2.24576
2.23793
2.23077
2.22305
2.21581
2.20824
2.20085
2.19344
2.18567
2.17841
2.17022
2.16322
2.15471
2.14798
2.13927
2.13279
2.12408
2.11786
2.1095
2.10382
2.09653
2.09255
2.08814
2.28565
2.23801
2.20564
2.18779
2.18585
2.19218
2.20682
2.22714
2.25195
2.27737
2.30571
2.33538
2.36738
2.40225
2.43826
2.47534
2.51301
2.55211
2.58696
2.61994
2.64154
2.6556
2.65436
2.63692
2.60481
2.56631
2.5305
2.49779
2.47448
2.45939
2.45326
2.44934
2.4487
2.44692
2.44574
2.44358
2.4411
2.43835
2.43534
2.43244
2.42914
2.42609
2.42226
2.41856
2.414
2.40977
2.40475
2.40017
2.39454
2.38964
2.38408
2.37914
2.37304
2.36712
2.36014
2.35379
2.34671
2.34023
2.33315
2.32657
2.31954
2.31279
2.30577
2.29878
2.29174
2.28446
2.27742
2.26992
2.26294
2.25526
2.24828
2.24043
2.2333
2.22531
2.2179
2.20983
2.20217
2.19407
2.18627
2.17817
2.17037
2.16228
2.15456
2.14637
2.13884
2.13067
2.12348
2.11541
2.1085
2.10066
2.09397
2.08648
2.07993
2.07295
2.06656
2.0603
2.05438
2.04933
2.04505
2.043
2.28305
2.23577
2.19854
2.1732
2.15836
2.15463
2.15716
2.16578
2.17861
2.1947
2.21225
2.23173
2.25431
2.27637
2.30389
2.33133
2.36472
2.40012
2.43652
2.47032
2.49996
2.52534
2.52705
2.50914
2.47546
2.43562
2.39965
2.36933
2.34893
2.33608
2.33563
2.34068
2.34932
2.35558
2.3608
2.36295
2.36411
2.36362
2.3625
2.3611
2.35896
2.35694
2.35403
2.35102
2.34717
2.34324
2.33879
2.3343
2.32927
2.3244
2.31938
2.31467
2.30957
2.30422
2.29829
2.29245
2.28643
2.28044
2.27436
2.26815
2.26205
2.25568
2.24958
2.24311
2.23696
2.2304
2.22406
2.21741
2.21079
2.20412
2.19723
2.19055
2.18345
2.17672
2.16947
2.16266
2.15531
2.14844
2.14105
2.13412
2.12668
2.11966
2.11219
2.10515
2.09771
2.0906
2.08319
2.07598
2.06865
2.06135
2.05415
2.04682
2.03981
2.03259
2.02587
2.01901
2.01286
2.00691
2.00242
1.99933
2.27846
2.23379
2.19501
2.16479
2.14346
2.13071
2.12492
2.12507
2.12887
2.13559
2.14619
2.15644
2.17148
2.18665
2.20526
2.22931
2.25729
2.29115
2.32383
2.3626
2.40487
2.43342
2.43359
2.41519
2.38174
2.34439
2.30323
2.27371
2.25216
2.23804
2.23077
2.23291
2.24195
2.25354
2.26412
2.27196
2.2774
2.28034
2.28186
2.28243
2.28238
2.28198
2.28098
2.28013
2.27843
2.27697
2.27443
2.272
2.26863
2.26544
2.26182
2.25879
2.25523
2.25136
2.24668
2.24179
2.23658
2.23144
2.22612
2.22092
2.21542
2.21007
2.20428
2.19873
2.19268
2.18699
2.18075
2.17494
2.16855
2.16258
2.15608
2.1499
2.14326
2.1369
2.13006
2.12357
2.11655
2.10999
2.10278
2.09617
2.08896
2.0823
2.0752
2.06838
2.06147
2.05445
2.04781
2.04061
2.03424
2.02694
2.02075
2.01347
2.00737
2.00022
1.99419
1.98737
1.98163
1.9756
1.97121
1.96797
2.27404
2.23219
2.19355
2.16188
2.13554
2.11749
2.10494
2.09807
2.09567
2.09598
2.09951
2.10426
2.11209
2.12292
2.13725
2.15823
2.18628
2.21491
2.25353
2.30124
2.35163
2.37744
2.37223
2.35177
2.32018
2.27777
2.23677
2.20441
2.18314
2.16925
2.15908
2.15637
2.15978
2.17019
2.18518
2.19911
2.21176
2.22045
2.22749
2.23183
2.23505
2.23683
2.23804
2.23887
2.23884
2.23841
2.23748
2.23611
2.23423
2.23199
2.2294
2.22699
2.22422
2.22139
2.21767
2.21377
2.20924
2.20483
2.2
2.19531
2.19034
2.18537
2.18024
2.17493
2.16962
2.16399
2.15848
2.15255
2.1468
2.14062
2.13457
2.1282
2.12182
2.11531
2.10866
2.10201
2.09514
2.08831
2.08141
2.07441
2.06758
2.06038
2.05366
2.04631
2.03969
2.03223
2.02569
2.0182
2.01173
2.00428
1.99786
1.99052
1.98416
1.977
1.97078
1.96393
1.95806
1.95194
1.9474
1.94404
2.26705
2.22927
2.192
2.15941
2.13248
2.10948
2.09371
2.08072
2.07366
2.06818
2.06723
2.06753
2.07086
2.07801
2.09252
2.11223
2.13755
2.17107
2.21549
2.28059
2.32964
2.34169
2.33147
2.31101
2.27614
2.2323
2.19206
2.15978
2.13604
2.12015
2.11018
2.10248
2.10073
2.10357
2.11213
2.12624
2.14169
2.15622
2.16832
2.17722
2.18337
2.18722
2.18976
2.19127
2.19224
2.19257
2.19254
2.19212
2.19125
2.18998
2.18822
2.18617
2.18417
2.18184
2.17904
2.17557
2.17185
2.16767
2.1635
2.15889
2.15446
2.14956
2.14492
2.13976
2.13484
2.12941
2.12415
2.11848
2.11288
2.10705
2.10115
2.09523
2.08908
2.08307
2.0767
2.07057
2.06409
2.05785
2.05129
2.0449
2.03825
2.03173
2.02504
2.01841
2.01172
2.00502
1.99836
1.9916
1.985
1.9782
1.97169
1.9649
1.95848
1.95178
1.9455
1.93904
1.9331
1.92728
1.92262
1.91951
2.25871
2.22433
2.19027
2.15735
2.12994
2.10593
2.08665
2.07146
2.05983
2.05141
2.04568
2.04377
2.04458
2.05176
2.06649
2.08674
2.11278
2.15559
2.21761
2.28591
2.319
2.31947
2.30584
2.28095
2.2425
2.20095
2.16385
2.13296
2.10832
2.08901
2.0756
2.06692
2.06066
2.05902
2.06082
2.06734
2.0793
2.09574
2.11206
2.12664
2.13804
2.14636
2.15201
2.15581
2.15827
2.15988
2.16082
2.16146
2.16143
2.16096
2.15994
2.15849
2.15657
2.15474
2.15244
2.14983
2.14644
2.14302
2.13912
2.13527
2.13097
2.1267
2.12201
2.11735
2.11232
2.10731
2.10196
2.09668
2.09101
2.08549
2.07953
2.07382
2.06758
2.06165
2.05523
2.0492
2.04271
2.03654
2.03002
2.02364
2.01714
2.0105
2.00405
1.99719
1.99083
1.9838
1.97752
1.97043
1.96422
1.95714
1.95099
1.944
1.93789
1.93103
1.92501
1.91835
1.91259
1.90648
1.90187
1.89838
2.24919
2.21712
2.18618
2.15575
2.12736
2.10329
2.08247
2.06506
2.05136
2.04054
2.03225
2.02876
2.03003
2.03918
2.05549
2.07705
2.11308
2.17212
2.2471
2.29962
2.31164
2.30494
2.28771
2.25727
2.21856
2.18111
2.1484
2.11937
2.09511
2.07381
2.0576
2.04429
2.03622
2.03065
2.0279
2.02811
2.03227
2.04187
2.05594
2.07259
2.08791
2.10139
2.11153
2.11922
2.12425
2.12748
2.12957
2.13077
2.1315
2.13167
2.13127
2.13036
2.1291
2.12766
2.12621
2.12429
2.12196
2.11891
2.11568
2.112
2.10826
2.10411
2.09994
2.09535
2.09079
2.08585
2.08094
2.07573
2.07052
2.06509
2.05961
2.05397
2.04823
2.04244
2.03654
2.03057
2.02453
2.01834
2.01219
2.00578
1.99954
1.99295
1.98663
1.97992
1.97353
1.96675
1.96033
1.95351
1.94709
1.94026
1.93391
1.92712
1.92088
1.91418
1.9081
1.9016
1.89584
1.88988
1.88525
1.88189
2.23766
2.20953
2.18056
2.15259
2.12593
2.10097
2.08026
2.06175
2.04637
2.03529
2.02599
2.02341
2.02817
2.03965
2.05798
2.08795
2.13991
2.21796
2.28285
2.30744
2.30564
2.29481
2.27202
2.23874
2.20344
2.17102
2.14202
2.11514
2.09145
2.06944
2.05101
2.03456
2.0219
2.01216
2.00656
2.00285
2.0022
2.00395
2.01033
2.02142
2.03683
2.05239
2.06745
2.07974
2.08918
2.09555
2.09961
2.10222
2.10364
2.10442
2.10444
2.10404
2.10312
2.10188
2.10066
2.09926
2.09752
2.09506
2.09211
2.08864
2.08496
2.08093
2.07674
2.07234
2.06778
2.06313
2.05824
2.05334
2.0481
2.04293
2.03737
2.03194
2.02617
2.02057
2.01465
2.00884
2.0028
1.99676
1.99063
1.98438
1.97819
1.97175
1.96552
1.95893
1.95269
1.94602
1.93979
1.93311
1.9269
1.92025
1.91408
1.9075
1.9014
1.89491
1.88894
1.88261
1.87692
1.87107
1.86646
1.86312
2.22399
2.19906
2.17338
2.14675
2.12252
2.09869
2.07761
2.05938
2.04347
2.03179
2.02525
2.02651
2.03557
2.04978
2.07601
2.12284
2.19865
2.26979
2.304
2.3083
2.30175
2.28556
2.25794
2.22626
2.19611
2.16799
2.14182
2.11692
2.09358
2.07149
2.05141
2.03306
2.01736
2.00392
1.99352
1.98602
1.98212
1.97922
1.97924
1.9824
1.99017
2.00335
2.01882
2.0349
2.04887
2.06026
2.0681
2.07358
2.07656
2.07833
2.07884
2.07897
2.07859
2.0778
2.07697
2.07601
2.07498
2.07327
2.07104
2.06807
2.06483
2.06114
2.05728
2.05314
2.04888
2.04443
2.03984
2.03513
2.0302
2.02517
2.01989
2.01464
2.00914
2.00368
1.99798
1.99231
1.98643
1.98054
1.97455
1.96841
1.96234
1.95599
1.94985
1.94333
1.93714
1.93051
1.9243
1.91762
1.91142
1.90475
1.89862
1.892
1.88597
1.87946
1.87358
1.86727
1.86169
1.85589
1.85136
1.84803
2.21076
2.1885
2.1657
2.14147
2.11819
2.09619
2.0755
2.05818
2.0435
2.03295
2.03176
2.03776
2.05062
2.07246
2.11559
2.18796
2.26231
2.30371
2.31321
2.30938
2.29794
2.27506
2.2475
2.22016
2.19432
2.1693
2.14487
2.12125
2.09837
2.07654
2.05578
2.03651
2.01871
2.00271
1.98881
1.97708
1.96811
1.96251
1.9589
1.95729
1.9577
1.96235
1.97232
1.98595
2.00158
2.01664
2.0296
2.03958
2.0464
2.05044
2.05264
2.05343
2.05364
2.05314
2.05251
2.05145
2.05059
2.04929
2.04758
2.04512
2.04221
2.03884
2.0352
2.03133
2.02727
2.02308
2.01867
2.01418
2.00938
2.00456
1.99944
1.99439
1.989
1.98372
1.9781
1.97257
1.96676
1.96095
1.95504
1.94898
1.94302
1.93676
1.93079
1.92439
1.91842
1.91195
1.90598
1.89951
1.89354
1.88711
1.88118
1.87483
1.86898
1.86274
1.85703
1.85096
1.84555
1.83994
1.83555
1.8323
2.19722
2.17613
2.15589
2.13422
2.11246
2.09216
2.07255
2.05655
2.04456
2.04061
2.04471
2.05644
2.07602
2.11585
2.18295
2.25917
2.30561
2.31847
2.31655
2.30852
2.29124
2.26622
2.2412
2.21757
2.19468
2.17187
2.14927
2.12683
2.10469
2.08319
2.06205
2.04232
2.02287
2.00541
1.98876
1.97422
1.96162
1.95132
1.94421
1.93962
1.93603
1.93521
1.93659
1.94301
1.95369
1.9683
1.98329
1.99767
2.00919
2.01777
2.02326
2.02652
2.02789
2.02835
2.02791
2.0271
2.02634
2.02538
2.02423
2.02245
2.02011
2.01726
2.01407
2.01053
2.00676
2.0028
1.9986
1.99429
1.98965
1.98504
1.98008
1.97521
1.96997
1.96485
1.95941
1.95402
1.94842
1.94274
1.93704
1.93108
1.92533
1.91918
1.91339
1.90714
1.90132
1.89503
1.88917
1.88288
1.877
1.87074
1.86487
1.85867
1.85288
1.84678
1.84116
1.83526
1.82998
1.82456
1.82032
1.8172
2.18456
2.16466
2.14529
2.12615
2.10641
2.08776
2.07094
2.05707
2.05066
2.05325
2.0642
2.08249
2.11992
2.18279
2.25871
2.30809
2.32444
2.32398
2.31837
2.30382
2.28171
2.25952
2.23858
2.21767
2.19717
2.17579
2.15476
2.13302
2.11151
2.09005
2.06895
2.04854
2.02853
2.00972
1.99162
1.97498
1.95991
1.94632
1.93515
1.92608
1.9201
1.91556
1.91225
1.91178
1.91423
1.92179
1.93415
1.94869
1.96373
1.97708
1.98769
1.99514
1.99972
2.00198
2.00282
2.00243
2.00172
2.00088
1.99995
1.99848
1.99659
1.99418
1.99139
1.98827
1.98483
1.98118
1.97719
1.97306
1.96859
1.96421
1.95946
1.95486
1.94987
1.94499
1.93975
1.93455
1.92913
1.9236
1.91805
1.91223
1.90658
1.90057
1.89487
1.88878
1.88306
1.87699
1.87128
1.86525
1.85954
1.85356
1.84788
1.84193
1.83633
1.83046
1.82503
1.81934
1.81428
1.8091
1.80509
1.80211
2.17087
2.15205
2.13396
2.11607
2.09846
2.08237
2.06863
2.06128
2.06292
2.07351
2.09078
2.12574
2.18566
2.26067
2.31172
2.33
2.33079
2.32573
2.31276
2.29294
2.27347
2.25465
2.23665
2.21791
2.19931
2.17948
2.15939
2.13826
2.11738
2.09603
2.07514
2.05412
2.03383
2.01383
1.99497
1.97695
1.96029
1.94468
1.93087
1.91851
1.90829
1.90039
1.89454
1.8902
1.88759
1.88766
1.8914
1.90026
1.91351
1.92831
1.94309
1.95595
1.96556
1.972
1.97543
1.97687
1.97671
1.97599
1.97524
1.97419
1.97284
1.9709
1.96859
1.96591
1.96291
1.95964
1.95595
1.95212
1.94792
1.94378
1.93923
1.9348
1.92994
1.92519
1.92008
1.915
1.90972
1.90437
1.89902
1.89344
1.88803
1.88227
1.87678
1.87091
1.86536
1.85944
1.85386
1.84796
1.84239
1.83655
1.83104
1.8253
1.81991
1.8143
1.80913
1.80375
1.799
1.79416
1.79051
1.78772
2.15815
2.13962
2.12247
2.10642
2.09132
2.07821
2.07027
2.07173
2.08253
2.09932
2.13343
2.19176
2.26429
2.31547
2.33412
2.33598
2.33127
2.31889
2.30067
2.28258
2.26639
2.25046
2.2346
2.21772
2.2001
2.18119
2.16156
2.1413
2.12072
2.09979
2.07895
2.05787
2.03766
2.01734
1.99856
1.97951
1.96218
1.94488
1.92934
1.91429
1.90132
1.88976
1.88058
1.87325
1.86754
1.8634
1.86193
1.86265
1.86793
1.8788
1.89231
1.90805
1.92204
1.93402
1.94242
1.94761
1.95019
1.9507
1.95018
1.94934
1.94839
1.94691
1.94497
1.94272
1.94016
1.93734
1.93398
1.93049
1.9265
1.92258
1.91818
1.91396
1.90929
1.90477
1.89989
1.89504
1.88996
1.88477
1.87959
1.87416
1.86893
1.86333
1.85807
1.85236
1.84707
1.84133
1.836
1.83031
1.82496
1.81937
1.81405
1.8086
1.80342
1.79816
1.79327
1.78829
1.78395
1.7796
1.77647
1.77402
2.14277
2.12728
2.10972
2.096
2.08352
2.0768
2.0786
2.08991
2.10686
2.14105
2.19903
2.27005
2.32031
2.33903
2.34092
2.33619
2.32372
2.30558
2.28891
2.27382
2.26011
2.24594
2.23127
2.21529
2.19839
2.18034
2.16152
2.14202
2.12183
2.10155
2.08075
2.0605
2.04005
2.02031
2.0007
1.98167
1.96332
1.94535
1.92861
1.91213
1.89735
1.88332
1.87096
1.86049
1.85206
1.84505
1.83966
1.83602
1.83544
1.83734
1.8441
1.85643
1.87114
1.88665
1.90028
1.91122
1.91863
1.92269
1.92413
1.92399
1.92337
1.92236
1.92092
1.91903
1.91685
1.91438
1.91144
1.90834
1.90477
1.90117
1.89711
1.89313
1.88874
1.8844
1.87975
1.87505
1.8702
1.86516
1.86018
1.85487
1.84983
1.84434
1.83927
1.83376
1.82864
1.82317
1.81799
1.8126
1.80741
1.80214
1.79702
1.7919
1.78696
1.78206
1.77749
1.77299
1.76913
1.76546
1.76304
1.76109
2.12828
2.1157
2.10016
2.08711
2.08013
2.08259
2.09506
2.11272
2.14764
2.20709
2.27811
2.32682
2.34399
2.34567
2.34036
2.32663
2.30905
2.29283
2.27914
2.26655
2.25424
2.24102
2.22695
2.21158
2.19514
2.17778
2.1594
2.14056
2.12086
2.10118
2.08089
2.06111
2.04083
2.02141
2.00156
1.98279
1.9637
1.94576
1.92764
1.91109
1.89442
1.87934
1.8648
1.85192
1.84013
1.83079
1.8226
1.81619
1.81128
1.80895
1.80911
1.81252
1.82162
1.83421
1.84981
1.8646
1.87824
1.88773
1.89396
1.89694
1.89753
1.8971
1.89641
1.89531
1.89332
1.89113
1.8885
1.88592
1.88275
1.87963
1.87586
1.87219
1.86798
1.86385
1.85937
1.85483
1.85019
1.84532
1.8406
1.83551
1.83072
1.82551
1.82061
1.81532
1.81034
1.80503
1.80001
1.79477
1.78976
1.78469
1.77981
1.77498
1.77041
1.76595
1.76195
1.75812
1.75513
1.75243
1.75102
1.74951
2.10862
2.10308
2.09214
2.08222
2.0836
2.09701
2.11609
2.15288
2.21483
2.28596
2.3332
2.34936
2.34978
2.34353
2.32919
2.31034
2.29434
2.28117
2.26956
2.25845
2.24674
2.23427
2.22045
2.20576
2.18967
2.17307
2.15518
2.13711
2.11803
2.09907
2.07948
2.06029
2.0405
2.02147
2.00167
1.98306
1.96355
1.94572
1.92696
1.91007
1.89237
1.87665
1.86049
1.8463
1.83222
1.82043
1.80927
1.80104
1.79304
1.78721
1.78319
1.78218
1.78291
1.78787
1.79845
1.81248
1.82848
1.84323
1.85563
1.86418
1.86926
1.87121
1.8713
1.87086
1.86987
1.86803
1.86563
1.86315
1.86033
1.85753
1.85423
1.85092
1.84712
1.84332
1.83913
1.83492
1.83041
1.82587
1.82116
1.81634
1.81157
1.80653
1.80181
1.79666
1.79197
1.78689
1.78217
1.77723
1.77253
1.76781
1.76322
1.75884
1.75462
1.75077
1.74733
1.74445
1.74246
1.74085
1.74026
1.7394
2.08947
2.0912
2.08602
2.08489
2.09585
2.11814
2.15853
2.22433
2.29798
2.34339
2.35803
2.35628
2.34673
2.32969
2.31089
2.29498
2.28218
2.27182
2.26127
2.25094
2.23895
2.22674
2.21286
2.19861
2.18296
2.16687
2.14971
2.13205
2.11389
2.09515
2.07663
2.05724
2.03865
2.019
2.00039
1.98099
1.96251
1.94375
1.9257
1.90773
1.89046
1.87346
1.85722
1.84153
1.82673
1.81269
1.80013
1.78838
1.77899
1.77051
1.76357
1.7583
1.75523
1.75526
1.75741
1.7642
1.7762
1.79149
1.80734
1.82209
1.83327
1.84092
1.84474
1.84586
1.84566
1.84501
1.84343
1.84135
1.83857
1.83594
1.83277
1.82978
1.82624
1.82269
1.81878
1.81466
1.81058
1.80599
1.80188
1.79697
1.7928
1.78776
1.78339
1.77841
1.77384
1.76904
1.76443
1.75988
1.75531
1.75107
1.74676
1.74298
1.73928
1.73632
1.73391
1.7323
1.73153
1.73124
1.73207
1.73199
2.06267
2.07631
2.08306
2.09492
2.11965
2.16442
2.23444
2.3098
2.35155
2.36553
2.36288
2.35094
2.33029
2.31065
2.29456
2.28188
2.27114
2.26141
2.25133
2.24068
2.22912
2.21682
2.20355
2.18955
2.17449
2.15871
2.14215
2.1249
2.10744
2.0893
2.0714
2.05277
2.03462
2.01567
1.99745
1.97833
1.96034
1.94128
1.9238
1.90507
1.88833
1.8702
1.85433
1.83723
1.82231
1.80683
1.79316
1.77971
1.76826
1.7573
1.74918
1.74081
1.73529
1.73057
1.72995
1.73041
1.73419
1.7433
1.75662
1.77273
1.78848
1.80251
1.81262
1.81907
1.82165
1.82204
1.82171
1.8206
1.81831
1.81584
1.81275
1.8099
1.80675
1.80344
1.8
1.79603
1.79224
1.78775
1.78363
1.7789
1.77452
1.76974
1.76521
1.76048
1.75596
1.75142
1.74697
1.74276
1.73856
1.73476
1.73114
1.72794
1.7254
1.72336
1.72255
1.72206
1.72279
1.72446
1.72703
1.72838
2.0277
2.06334
2.08627
2.12009
2.17586
2.25296
2.32502
2.3632
2.37268
2.36843
2.35287
2.32984
2.30873
2.29231
2.2799
2.26969
2.26058
2.2511
2.24141
2.23045
2.21892
2.20622
2.1931
2.17888
2.16434
2.14872
2.13281
2.11617
2.09918
2.08198
2.06426
2.04672
2.0286
2.01073
1.99248
1.97438
1.9562
1.93813
1.92011
1.90242
1.88472
1.86765
1.85059
1.83431
1.81818
1.80305
1.78816
1.7744
1.76108
1.74928
1.73834
1.72937
1.72119
1.71462
1.70922
1.70689
1.70698
1.7088
1.71439
1.72513
1.74027
1.75675
1.77268
1.78538
1.79449
1.79918
1.80085
1.80074
1.79999
1.7983
1.79542
1.79251
1.78917
1.78604
1.7825
1.77902
1.7751
1.77118
1.76687
1.76261
1.75815
1.75371
1.7492
1.74473
1.74025
1.73596
1.73171
1.72777
1.724
1.7206
1.71771
1.71536
1.71413
1.71356
1.71403
1.7155
1.71773
1.72239
1.72943
1.73371
1.95841
2.05296
2.10957
2.18358
2.27831
2.35108
2.38359
2.38536
2.37667
2.35547
2.33
2.3082
2.29087
2.27842
2.26863
2.25965
2.25034
2.24033
2.22954
2.21803
2.20598
2.19339
2.18063
2.16727
2.15355
2.13894
2.12373
2.10763
2.09098
2.0738
2.05652
2.03916
2.02159
2.0041
1.98628
1.96876
1.95093
1.93345
1.9159
1.89861
1.88152
1.8648
1.84792
1.8318
1.81552
1.80017
1.7849
1.77068
1.75698
1.74414
1.73238
1.72148
1.71216
1.70402
1.69674
1.69125
1.68724
1.68686
1.68785
1.69139
1.69911
1.71207
1.72803
1.74481
1.76
1.77122
1.77861
1.78145
1.78203
1.78148
1.77995
1.77755
1.77419
1.77086
1.76723
1.76368
1.75983
1.75599
1.75185
1.74758
1.74322
1.73871
1.7343
1.72982
1.72543
1.7212
1.71717
1.71354
1.71028
1.70768
1.70585
1.70504
1.70526
1.70627
1.70817
1.71236
1.71804