/*--------------------------------*- C++ -*----------------------------------*\
  =========                 |
  \\      /  F ield         | OpenFOAM: The Open Source CFD Toolbox
   \\    /   O peration     | Website:  https://openfoam.org
    \\  /    A nd           | Version:  9
     \\/     M anipulation  |
\*---------------------------------------------------------------------------*/
FoamFile
{
    format      ascii;
    class       volScalarField;
    location    "35";
    object      p;
}
// * * * * * * * * * * * * * * * * * * * * * * * * * * * * * * * * * * * * * //

dimensions      [0 2 -2 0 0 0 0];

internalField   nonuniform List<scalar> 
400
(
2.4496939e-08
-0.00067284852
-0.0013853261
-0.0019426842
-0.0022199773
-0.0021564739
-0.0017277692
-0.00092617841
0.0002354423
0.0017074271
0.0033873074
0.0051122172
0.0066734994
0.0078491242
0.0084584107
0.0084237035
0.0078134153
0.0068445364
0.0058613189
0.0052989633
0.00065786614
-4.0500805e-05
-0.00056963465
-0.00094060048
-0.0011108382
-0.0010398959
-0.0007057651
-9.5520057e-05
0.00078912306
0.0019162085
0.0032096063
0.0045547244
0.0057819831
0.0067162791
0.0072144481
0.0072145525
0.0067699772
0.0060527903
0.0053105474
0.0047385057
0.0014237237
0.00044067433
-0.00011657549
-0.00045321873
-0.00061478411
-0.00058478691
-0.0003465562
0.00011976597
0.00082847993
0.0017699241
0.0028943076
0.0040981807
0.0052282585
0.0061109963
0.0065938955
0.006597692
0.0061557638
0.0054215332
0.0045937643
0.0037482499
0.0020142184
0.0006817086
1.6792607e-05
-0.00035882976
-0.0005715261
-0.00062653703
-0.00051006057
-0.00019060944
0.0003685216
0.001184403
0.0022299277
0.0034174412
0.0045913827
0.0055569615
0.0061235781
0.0061665873
0.0056836467
0.0048170725
0.0037473092
0.0024736133
0.0021672891
0.00049613797
-0.00029623821
-0.00074868371
-0.0010582313
-0.001245249
-0.0012927279
-0.0011512813
-0.00075502988
-5.3082346e-05
0.00095703834
0.0022102938
0.0035447202
0.0047326758
0.0055218585
0.005709902
0.0052293064
0.004201623
0.0028061995
0.00098397565
0.00165398
-0.00031446046
-0.0012387685
-0.0017992813
-0.0022526417
-0.0026278892
-0.0028986016
-0.002991063
-0.0028025172
-0.0022376589
-0.0012510821
0.00013090074
0.0017446521
0.0033271161
0.004541652
0.0050657903
0.00471751
0.0035662139
0.0017896072
-0.00072590852
0.0002870424
-0.0019195524
-0.0029729805
-0.0036713642
-0.0043202779
-0.0049531817
-0.0055301023
-0.0059479365
-0.0060589858
-0.0057073624
-0.0047756983
-0.0032586838
-0.0012665023
0.00090718338
0.0028231344
0.0039868474
0.004025108
0.0028877216
0.00071539128
-0.0026804885
-0.0020764124
-0.0044511742
-0.0056267862
-0.0064923053
-0.0073929034
-0.0083657459
-0.0093569047
-0.010231767
-0.010790955
-0.010804824
-0.010063341
-0.008461743
-0.0060407538
-0.0030832086
-0.00012629931
0.0021126325
0.0029638383
0.0021355927
-0.00036602365
-0.0048726001
-0.0055241505
-0.0079920971
-0.009277903
-0.010333772
-0.011537982
-0.012935402
-0.014462695
-0.015956308
-0.017162454
-0.017766022
-0.017438067
-0.015919458
-0.013122945
-0.0092517504
-0.0048990016
-0.0010300086
0.0012694187
0.0012777732
-0.0013339485
-0.0072016679
-0.010076896
-0.01256508
-0.013936648
-0.015183986
-0.016718363
-0.018602611
-0.020774192
-0.02304876
-0.025121683
-0.02658635
-0.026969348
-0.025812938
-0.022845671
-0.018074444
-0.012051087
-0.0059519475
-0.0013707317
0.00030060252
-0.0019471938
-0.0093822156
-0.015684972
-0.018132399
-0.019537543
-0.020926793
-0.022757721
-0.025129863
-0.027997005
-0.031166407
-0.034291473
-0.036876854
-0.03829418
-0.037844285
-0.035065858
-0.029601468
-0.021822494
-0.012985572
-0.0051849689
-0.00071574263
-0.0017641905
-0.010792246
-0.022243588
-0.024613024
-0.025945582
-0.027334947
-0.029324145
-0.03207921
-0.035588936
-0.039664657
-0.043927281
-0.047801308
-0.050530193
-0.051236486
-0.048956882
-0.043143549
-0.033769015
-0.021926339
-0.010036877
-0.0014154365
-9.8582786e-06
-0.01022561
-0.029641211
-0.031923885
-0.032978738
-0.034079864
-0.035939502
-0.038831499
-0.0427956
-0.047651585
-0.052990542
-0.058163595
-0.062284252
-0.064265535
-0.062875161
-0.057112188
-0.046476742
-0.031649085
-0.015037856
-0.00086438187
0.0046467728
-0.0055215274
-0.037866005
-0.04004851
-0.040440132
-0.040752511
-0.042015049
-0.044653062
-0.048758182
-0.054144051
-0.060356034
-0.066665354
-0.072060695
-0.075268286
-0.074811363
-0.069269267
-0.057628306
-0.039961505
-0.018247965
0.0027890475
0.014445168
0.0069075593
-0.047230587
-0.049134364
-0.048140582
-0.046882286
-0.0469055
-0.048798702
-0.052668296
-0.058276012
-0.0650761
-0.072231999
-0.078595773
-0.082712325
-0.082880211
-0.07730939
-0.064523936
-0.04393495
-0.01674798
0.012502959
0.032938797
0.032408967
-0.058896784
-0.059639886
-0.055883923
-0.051941044
-0.049972307
-0.05062988
-0.053928658
-0.05949535
-0.066611864
-0.074285299
-0.081191172
-0.085679408
-0.085831799
-0.079522194
-0.064876097
-0.040689261
-0.0072409108
0.032139385
0.064981465
0.077749197
-0.076226508
-0.072613725
-0.063516187
-0.055435377
-0.050725007
-0.049781587
-0.052312339
-0.057664369
-0.064891825
-0.072774976
-0.079779371
-0.084036752
-0.083391658
-0.075348963
-0.057602672
-0.028375134
0.012933339
0.065396491
0.11555153
0.15150624
-0.10809225
-0.089556332
-0.071233832
-0.057233011
-0.049072133
-0.046330213
-0.048077262
-0.053202606
-0.060434625
-0.068295869
-0.075027399
-0.078526919
-0.076389011
-0.065809678
-0.043865479
-0.0078184426
0.04439368
0.11299817
0.18838044
0.27186078
-0.17684557
-0.10828969
-0.076202474
-0.054651237
-0.042992383
-0.038998033
-0.040570512
-0.045928045
-0.05344154
-0.061438362
-0.06802759
-0.070962563
-0.067551138
-0.054739838
-0.029148814
0.013563606
0.078146967
0.17006437
0.28949548
0.47421823
-0.37208361
-0.12470854
-0.054973088
-0.03196252
-0.022063557
-0.020300523
-0.024359459
-0.031958003
-0.041261563
-0.050640891
-0.058316906
-0.062187469
-0.059782559
-0.048056814
-0.022658529
0.021474212
0.09281873
0.21015278
0.40288844
0.7764093
)
;

boundaryField
{
    movingWall
    {
        type            zeroGradient;
    }
    fixedWalls
    {
        type            zeroGradient;
    }
    frontAndBack
    {
        type            empty;
    }
}


// ************************************************************************* //
