/*--------------------------------*- C++ -*----------------------------------*\
  =========                 |
  \\      /  F ield         | OpenFOAM: The Open Source CFD Toolbox
   \\    /   O peration     | Website:  https://openfoam.org
    \\  /    A nd           | Version:  9
     \\/     M anipulation  |
\*---------------------------------------------------------------------------*/
FoamFile
{
    format      ascii;
    class       volVectorField;
    location    "35";
    object      U_0;
}
// * * * * * * * * * * * * * * * * * * * * * * * * * * * * * * * * * * * * * //

dimensions      [0 1 -1 0 0 0 0];

internalField   nonuniform List<vector> 
400
(
(0.00028445066 -0.00028138987 0)
(0.00011070468 7.997024e-05 0)
(-0.0013271916 0.00047803582 0)
(-0.003621906 0.00073593485 0)
(-0.0064236757 0.00086752619 0)
(-0.0094315226 0.00090727533 0)
(-0.012388066 0.00087487282 0)
(-0.015056529 0.00077153631 0)
(-0.01719465 0.00058849339 0)
(-0.018552961 0.00032008568 0)
(-0.018902726 -2.4813157e-05 0)
(-0.018086236 -0.00041827029 0)
(-0.016079962 -0.0007997267 0)
(-0.013048986 -0.0010930875 0)
(-0.009366412 -0.001221216 0)
(-0.0055776643 -0.0011294832 0)
(-0.0023003385 -0.00081287235 0)
(-8.2950106e-05 -0.00033798312 0)
(0.00076015233 0.00015229451 0)
(0.00040944204 0.0003893388 0)
(-8.6058022e-05 -0.00012357583 0)
(-0.0018692582 0.0017872687 0)
(-0.006306545 0.0036260821 0)
(-0.012452746 0.0048625292 0)
(-0.019600762 0.0054985666 0)
(-0.027107123 0.0056207089 0)
(-0.034359119 0.0052860647 0)
(-0.040769149 0.0045044055 0)
(-0.045758473 0.0032662342 0)
(-0.048776217 0.0015896544 0)
(-0.049366969 -0.00043547951 0)
(-0.047254136 -0.0026182113 0)
(-0.042452258 -0.0046645734 0)
(-0.035361688 -0.006218958 0)
(-0.026778741 -0.0069376288 0)
(-0.017827329 -0.0065923027 0)
(-0.0097755603 -0.0051798015 0)
(-0.0037462991 -0.0029994446 0)
(-0.00038875054 -0.00066553634 0)
(0.00028989586 0.00078354964 0)
(-0.00058807946 0.0014336375 0)
(-0.0042428199 0.006377556 0)
(-0.011758631 0.010640663 0)
(-0.021468838 0.01348371 0)
(-0.032366427 0.014898413 0)
(-0.043588331 0.015017489 0)
(-0.054287808 0.013936248 0)
(-0.063643012 0.011684299 0)
(-0.070856343 0.008281391 0)
(-0.075188885 0.0038286526 0)
(-0.076040061 -0.0014059369 0)
(-0.073058226 -0.0069357105 0)
(-0.066267051 -0.012071836 0)
(-0.05616964 -0.01600036 0)
(-0.043781007 -0.017942851 0)
(-0.030569302 -0.017380042 0)
(-0.018250709 -0.014290035 0)
(-0.008417989 -0.0093123281 0)
(-0.0021511224 -0.0037618392 0)
(-1.9695614e-06 0.00031696953 0)
(-0.0010530687 0.0043004033 0)
(-0.0065148929 0.013565822 0)
(-0.016999229 0.020864231 0)
(-0.030031098 0.025561411 0)
(-0.044300896 0.027761633 0)
(-0.058784712 0.02768812 0)
(-0.072488041 0.025487766 0)
(-0.084447488 0.021218508 0)
(-0.093729539 0.01494516 0)
(-0.099464821 0.0068783788 0)
(-0.10093072 -0.0025013247 0)
(-0.097663342 -0.012378527 0)
(-0.089593479 -0.02160554 0)
(-0.077182525 -0.028824946 0)
(-0.061505297 -0.032706228 0)
(-0.044253771 -0.032300062 0)
(-0.027562287 -0.027445998 0)
(-0.013581785 -0.019080755 0)
(-0.0040263572 -0.0092707111 0)
(-0.00026772023 -0.0011081892 0)
(-0.0014558701 0.008365065 0)
(-0.0085490978 0.023181337 0)
(-0.021746314 0.034051807 0)
(-0.037792615 0.040763247 0)
(-0.055097132 0.043701918 0)
(-0.07251986 0.043259176 0)
(-0.08898476 0.039661591 0)
(-0.10345883 0.033001435 0)
(-0.11493262 0.023384276 0)
(-0.1224373 0.01111675 0)
(-0.12511569 -0.0031289786 0)
(-0.12232022 -0.018219459 0)
(-0.11376181 -0.032541731 0)
(-0.09969848 -0.044132768 0)
(-0.081100668 -0.050966435 0)
(-0.059776444 -0.051441367 0)
(-0.038291252 -0.045013743 0)
(-0.019520485 -0.032755611 0)
(-0.006092349 -0.017491877 0)
(-0.00051102264 -0.0035220293 0)
(-0.0017889397 0.013475495 0)
(-0.010269749 0.034960973 0)
(-0.025805589 0.049908796 0)
(-0.044466901 0.058794981 0)
(-0.064427914 0.062458551 0)
(-0.084477805 0.061551065 0)
(-0.10351687 0.056416175 0)
(-0.12050386 0.047182299 0)
(-0.13440432 0.033970397 0)
(-0.14417429 0.01713237 0)
(-0.14880382 -0.0025359577 0)
(-0.14739363 -0.023636507 0)
(-0.13931143 -0.044142768 0)
(-0.12443582 -0.061442319 0)
(-0.10343184 -0.072642525 0)
(-0.078056048 -0.075174115 0)
(-0.051261013 -0.06770691 0)
(-0.026809496 -0.051124281 0)
(-0.0086123142 -0.028965703 0)
(-0.00078707404 -0.0070521596 0)
(-0.00204204 0.019436575 0)
(-0.01160568 0.048529056 0)
(-0.028995865 0.067998526 0)
(-0.049757845 0.07922623 0)
(-0.071891789 0.083657605 0)
(-0.094162277 0.082297918 0)
(-0.11550027 0.075649837 0)
(-0.13491526 0.063877006 0)
(-0.15140353 0.047076036 0)
(-0.16388501 0.025567778 0)
(-0.17119263 0.00016299792 0)
(-0.1721548 -0.027610709 0)
(-0.1657159 -0.05539645 0)
(-0.15119218 -0.079945897 0)
(-0.12870077 -0.097351372 0)
(-0.099670146 -0.10369876 0)
(-0.06724193 -0.096286273 0)
(-0.036119174 -0.075220332 0)
(-0.011929749 -0.044539884 0)
(-0.0011708192 -0.012001499 0)
(-0.0022012918 0.026013428 0)
(-0.012484743 0.063419721 0)
(-0.031139974 0.087764646 0)
(-0.053354665 0.10149045 0)
(-0.077017855 0.10677731 0)
(-0.10091222 0.10507392 0)
(-0.12405026 0.097088314 0)
(-0.14555193 0.083021464 0)
(-0.1645098 0.062902238 0)
(-0.17987612 0.036930822 0)
(-0.1903994 0.0057954921 0)
(-0.19465584 -0.029033487 0)
(-0.19113645 -0.065018207 0)
(-0.17848991 -0.098391233 0)
(-0.15602505 -0.12417765 0)
(-0.12444503 -0.13676299 0)
(-0.08664671 -0.13132926 0)
(-0.048063805 -0.10623298 0)
(-0.016429383 -0.065393312 0)
(-0.0017537948 -0.018878437 0)
(-0.0022557109 0.032933311 0)
(-0.012853728 0.079088618 0)
(-0.032098963 0.10853518 0)
(-0.054981908 0.12486444 0)
(-0.079334954 0.13109305 0)
(-0.10399431 0.12919943 0)
(-0.12810044 0.12015145 0)
(-0.15094519 0.10420154 0)
(-0.17179742 0.08127838 0)
(-0.18974481 0.051375582 0)
(-0.20357632 0.01491538 0)
(-0.21172916 -0.026876172 0)
(-0.21232525 -0.071532442 0)
(-0.20333824 -0.1150262 0)
(-0.18306288 -0.15144724 0)
(-0.15101797 -0.17328524 0)
(-0.10916565 -0.17282203 0)
(-0.063026409 -0.14524397 0)
(-0.022524986 -0.092978147 0)
(-0.0026589644 -0.028422212 0)
(-0.0022086338 0.039904558 0)
(-0.012717086 0.09494433 0)
(-0.031841312 0.1295403 0)
(-0.054496845 0.14845866 0)
(-0.078500116 0.15563561 0)
(-0.10277104 0.15366654 0)
(-0.12662146 0.14384612 0)
(-0.14957662 0.12651342 0)
(-0.17117095 0.10149253 0)
(-0.19075578 0.068517124 0)
(-0.20732711 0.027627534 0)
(-0.21937773 -0.020394309 0)
(-0.2248878 -0.073462021 0)
(-0.22130659 -0.1276889 0)
(-0.20585481 -0.17662071 0)
(-0.17647628 -0.21099215 0)
(-0.13334659 -0.21961326 0)
(-0.080899185 -0.19275402 0)
(-0.030641905 -0.12885266 0)
(-0.0040700742 -0.041637063 0)
(-0.002093349 0.046663324 0)
(-0.012189726 0.11041864 0)
(-0.030536215 0.14996591 0)
(-0.052017598 0.17124312 0)
(-0.074465012 0.17919263 0)
(-0.096919921 0.17712119 0)
(-0.11891406 0.16672986 0)
(-0.14026652 0.14850281 0)
(-0.16086208 0.12219249 0)
(-0.18044322 0.087272644 0)
(-0.19840292 0.043352575 0)
(-0.21353681 -0.0093897099 0)
(-0.2240146 -0.06967674 0)
(-0.22708288 -0.13413355 0)
(-0.21908959 -0.19645342 0)
(-0.1962665 -0.24625232 0)
(-0.15621929 -0.26886044 0)
(-0.10070625 -0.24798819 0)
(-0.041146022 -0.17433509 0)
(-0.0062706215 -0.059833959 0)
(-0.0019963286 0.053057501 0)
(-0.0115655 0.12508359 0)
(-0.028660952 0.16904528 0)
(-0.048056613 0.19210925 0)
(-0.067638435 0.20035678 0)
(-0.086643882 0.19791293 0)
(-0.10489589 0.18696732 0)
(-0.12256942 0.16821865 0)
(-0.13996398 0.14140914 0)
(-0.15729756 0.10579906 0)
(-0.17451556 0.060571787 0)
(-0.19108366 0.0052257089 0)
(-0.20560156 -0.059922493 0)
(-0.21550584 -0.13260799 0)
(-0.21690135 -0.207528 0)
(-0.20457804 -0.27431827 0)
(-0.17317489 -0.31571794 0)
(-0.12017098 -0.30807993 0)
(-0.054147492 -0.22988384 0)
(-0.0096749058 -0.084653185 0)
(-0.0020996013 0.059184306 0)
(-0.011414855 0.13881595 0)
(-0.027115362 0.18617349 0)
(-0.043624828 0.20994723 0)
(-0.058981202 0.21760167 0)
(-0.07277779 0.21419787 0)
(-0.085249918 0.20247372 0)
(-0.097001109 0.18339421 0)
(-0.10878854 0.15675623 0)
(-0.12135024 0.1216863 0)
(-0.1352539 0.077015417 0)
(-0.1507027 0.021618185 0)
(-0.167122 -0.045110806 0)
(-0.18273999 -0.12251615 0)
(-0.19405352 -0.20712626 0)
(-0.19523503 -0.29011484 0)
(-0.17829425 -0.35358521 0)
(-0.13540546 -0.36743821 0)
(-0.069089023 -0.29415304 0)
(-0.014795029 -0.11798451 0)
(-0.0027676945 0.065619985 0)
(-0.01274098 0.15199863 0)
(-0.027329945 0.20099738 0)
(-0.040244463 0.22368379 0)
(-0.049928491 0.22933099 0)
(-0.056643277 0.22403763 0)
(-0.061232392 0.21108068 0)
(-0.064815777 0.19168183 0)
(-0.068620446 0.16572047 0)
(-0.073874732 0.13227354 0)
(-0.081727928 0.089960248 0)
(-0.093119842 0.037200109 0)
(-0.10846904 -0.027479129 0)
(-0.12721362 -0.10497645 0)
(-0.14705408 -0.19422082 0)
(-0.16280337 -0.28948652 0)
(-0.16509069 -0.37509947 0)
(-0.14090145 -0.41772704 0)
(-0.084061562 -0.36281408 0)
(-0.022011634 -0.16157411 0)
(-0.0047195807 0.073834782 0)
(-0.017222399 0.16572645 0)
(-0.031284265 0.21337843 0)
(-0.039683057 0.23217433 0)
(-0.041883256 0.23380259 0)
(-0.039350804 0.22539475 0)
(-0.033812225 0.21061261 0)
(-0.027000019 0.19081087 0)
(-0.020591654 0.16589803 0)
(-0.016215066 0.13493926 0)
(-0.015476019 0.096470885 0)
(-0.019925243 0.048689983 0)
(-0.030918342 -0.010412761 0)
(-0.049234028 -0.082920544 0)
(-0.074398895 -0.1701432 0)
(-0.10327649 -0.27050262 0)
(-0.12725447 -0.3736954 0)
(-0.12973492 -0.44868785 0)
(-0.094914796 -0.42750701 0)
(-0.030930662 -0.21612807 0)
(-0.0092999969 0.086952165 0)
(-0.027432062 0.18185346 0)
(-0.040981528 0.22303367 0)
(-0.042679237 0.23378976 0)
(-0.034405061 0.22880248 0)
(-0.019622161 0.21592317 0)
(-0.0012378773 0.1987802 0)
(0.018346139 0.17856487 0)
(0.037072138 0.15508364 0)
(0.053056346 0.12735939 0)
(0.064422213 0.093936244 0)
(0.069231533 0.053014499 0)
(0.065415593 0.0024625032 0)
(0.051047828 -0.060339452 0)
(0.024643277 -0.13837673 0)
(-0.013701743 -0.23417151 0)
(-0.058753682 -0.34517039 0)
(-0.093510866 -0.44954003 0)
(-0.094469895 -0.4755883 0)
(-0.039216113 -0.28048286 0)
(-0.018580313 0.11087148 0)
(-0.046039615 0.20177658 0)
(-0.055229916 0.22793174 0)
(-0.043984575 0.2250178 0)
(-0.019372056 0.21061312 0)
(0.012333946 0.19228022 0)
(0.046993748 0.17278511 0)
(0.081754886 0.15265409 0)
(0.11443863 0.1313529 0)
(0.14315394 0.10779554 0)
(0.16601745 0.080591562 0)
(0.1809817 0.048112067 0)
(0.18557649 0.0084491526 0)
(0.17716602 -0.040817653 0)
(0.15275969 -0.10317636 0)
(0.10948896 -0.18390634 0)
(0.047240634 -0.28855476 0)
(-0.021439219 -0.41051048 0)
(-0.072252924 -0.49101708 0)
(-0.041147482 -0.35054299 0)
(-0.033352248 0.15561543 0)
(-0.068601625 0.22040443 0)
(-0.05518725 0.21729228 0)
(-0.016078486 0.19532449 0)
(0.034511413 0.1709236 0)
(0.088508143 0.14849477 0)
(0.141769 0.12861272 0)
(0.1919695 0.11057767 0)
(0.23754119 0.093297646 0)
(0.27712065 0.075575087 0)
(0.30921861 0.056181441 0)
(0.33204371 0.033823246 0)
(0.34317599 0.0070271753 0)
(0.3398291 -0.025910575 0)
(0.31813267 -0.067741858 0)
(0.27327736 -0.12410803 0)
(0.20044733 -0.20584717 0)
(0.10213984 -0.32506916 0)
(-0.012387252 -0.45457172 0)
(-0.023756651 -0.40864073 0)
(-0.033081126 0.23907316 0)
(-0.042647166 0.2179201 0)
(0.042207226 0.16426629 0)
(0.12760463 0.12783581 0)
(0.20769806 0.10143554 0)
(0.28028174 0.081658208 0)
(0.34487328 0.066648176 0)
(0.40158324 0.05470308 0)
(0.45055087 0.044399497 0)
(0.49162064 0.034639937 0)
(0.52416207 0.024550586 0)
(0.54698625 0.013381689 0)
(0.55822251 0.00039972113 0)
(0.55570952 -0.015137355 0)
(0.53552629 -0.034969205 0)
(0.49244663 -0.062488209 0)
(0.41797274 -0.10694763 0)
(0.30410596 -0.19317544 0)
(0.12313783 -0.33691905 0)
(0.052374208 -0.39437913 0)
(0.24299926 0.15257479 0)
(0.30529617 0.11854287 0)
(0.45481214 0.076108142 0)
(0.56000885 0.050840198 0)
(0.63223324 0.035126092 0)
(0.6865492 0.024812316 0)
(0.72943835 0.017960107 0)
(0.76379643 0.013255932 0)
(0.79127941 0.0097622054 0)
(0.81275158 0.0068543619 0)
(0.82841148 0.0041185175 0)
(0.83794405 0.0012768536 0)
(0.8405708 -0.0018442024 0)
(0.83497559 -0.0053262622 0)
(0.81886698 -0.0098289669 0)
(0.78942866 -0.01623275 0)
(0.73784287 -0.026935706 0)
(0.65316763 -0.05128655 0)
(0.45609767 -0.11374603 0)
(0.31788988 -0.17206002 0)
)
;

boundaryField
{
    movingWall
    {
        type            fixedValue;
        value           uniform (1 0 0);
    }
    fixedWalls
    {
        type            fixedValue;
        value           uniform (0 0 0);
    }
    frontAndBack
    {
        type            empty;
    }
}


// ************************************************************************* //
