/*--------------------------------*- C++ -*----------------------------------*\
  =========                 |
  \\      /  F ield         | OpenFOAM: The Open Source CFD Toolbox
   \\    /   O peration     | Website:  https://openfoam.org
    \\  /    A nd           | Version:  9
     \\/     M anipulation  |
\*---------------------------------------------------------------------------*/
FoamFile
{
    format      ascii;
    class       volScalarField;
    location    "5.5";
    object      divGradT;
}
// * * * * * * * * * * * * * * * * * * * * * * * * * * * * * * * * * * * * * //

dimensions      [0 -2 0 1 0 0 0];

internalField   nonuniform List<scalar> 10(7.1018342e-05 0.00036601939 0.00091691886 0.0056120491 0.037389638 0.10066521 0.92052623 5.8780093 -0.95893252 -256.10268);

boundaryField
{
    inlet
    {
        type            extrapolatedCalculated;
        value           uniform 7.1018342e-05;
    }
    outlet
    {
        type            extrapolatedCalculated;
        value           uniform -256.10268;
    }
    bottom
    {
        type            extrapolatedCalculated;
        value           nonuniform List<scalar> 10(7.1018342e-05 0.00036601939 0.00091691886 0.0056120491 0.037389638 0.10066521 0.92052623 5.8780093 -0.95893252 -256.10268);
    }
    top
    {
        type            extrapolatedCalculated;
        value           nonuniform List<scalar> 10(7.1018342e-05 0.00036601939 0.00091691886 0.0056120491 0.037389638 0.10066521 0.92052623 5.8780093 -0.95893252 -256.10268);
    }
    frontAndBack
    {
        type            empty;
    }
}


// ************************************************************************* //
