/*--------------------------------*- C++ -*----------------------------------*\
  =========                 |
  \\      /  F ield         | OpenFOAM: The Open Source CFD Toolbox
   \\    /   O peration     | Website:  https://openfoam.org
    \\  /    A nd           | Version:  9
     \\/     M anipulation  |
\*---------------------------------------------------------------------------*/
FoamFile
{
    format      ascii;
    class       volVectorField;
    location    "5.5";
    object      gradT;
}
// * * * * * * * * * * * * * * * * * * * * * * * * * * * * * * * * * * * * * //

dimensions      [0 -1 0 1 0 0 0];

internalField   nonuniform List<vector> 10((5.7422012e-06 0 0) (1.994587e-05 0 0) (7.894608e-05 0 0) (0.00020332964 0 0) (0.0012013559 0 0) (0.0076812572 0 0) (0.021334398 0 0) (0.1917865 0 0) (1.1969363 0 0) (-0 0 0));

boundaryField
{
    inlet
    {
        type            extrapolatedCalculated;
        value           uniform (5.7422012e-06 0 0);
    }
    outlet
    {
        type            extrapolatedCalculated;
        value           uniform (-25.011799 0 0);
    }
    bottom
    {
        type            extrapolatedCalculated;
        value           nonuniform List<vector> 10((5.7422012e-06 0 0) (1.994587e-05 0 0) (7.894608e-05 0 0) (0.00020332964 0 0) (0.0012013559 0 0) (0.0076812572 0 0) (0.021334398 0 0) (0.1917865 0 0) (1.1969363 0 0) (0 0 0));
    }
    top
    {
        type            extrapolatedCalculated;
        value           nonuniform List<vector> 10((5.7422012e-06 0 0) (1.994587e-05 0 0) (7.894608e-05 0 0) (0.00020332964 0 0) (0.0012013559 0 0) (0.0076812572 0 0) (0.021334398 0 0) (0.1917865 0 0) (1.1969363 0 0) (0 0 0));
    }
    frontAndBack
    {
        type            empty;
    }
}


// ************************************************************************* //
