/*--------------------------------*- C++ -*----------------------------------*\
  =========                 |
  \\      /  F ield         | OpenFOAM: The Open Source CFD Toolbox
   \\    /   O peration     | Website:  https://openfoam.org
    \\  /    A nd           | Version:  9
     \\/     M anipulation  |
\*---------------------------------------------------------------------------*/
FoamFile
{
    format      ascii;
    class       surfaceScalarField;
    location    "0.65";
    object      alphaPhi0.phase1;
}
// * * * * * * * * * * * * * * * * * * * * * * * * * * * * * * * * * * * * * //

dimensions      [0 3 -1 0 0 0 0];

internalField   nonuniform List<scalar> 
8032
(
-3.13002e-181
3.1468e-186
-3.07934e-176
3.06198e-181
-1.52232e-171
1.41899e-176
-5.07446e-167
4.22387e-172
-1.30198e-162
9.07745e-168
-2.78227e-158
1.4741e-163
-1.98383e-155
1.0188e-159
-6.36625e-153
8.17057e-156
-1.56037e-148
-3.30078e-149
-2.31372e-144
-2.34084e-144
-1.75189e-140
-5.20852e-140
-1.4519e-136
-4.66213e-136
-4.83189e-133
-1.31032e-132
-1.50523e-130
-1.78832e-129
-4.28119e-129
-9.79373e-127
5.47647e-132
-5.60943e-125
4.29212e-129
-5.60885e-125
1.49939e-130
-9.42543e-127
9.70685e-133
-1.3642e-129
1.0119e-134
-1.08521e-131
1.0536e-137
-5.50984e-134
1.20892e-142
-3.26219e-138
1.01822e-147
-2.28419e-143
7.36676e-153
-9.80159e-149
1.26117e-156
2.66531e-158
6.26873e-161
3.93488e-162
2.75499e-165
3.1149e-166
1.02955e-169
1.83833e-170
3.0175e-174
8.35091e-175
6.06253e-179
2.77852e-179
6.15415e-184
5.99899e-184
6.22182e-189
-7.5385e-176
1.58293e-180
-6.95693e-171
1.43623e-175
-3.23331e-166
6.23461e-171
-1.02573e-161
1.74839e-166
-2.53535e-157
3.59202e-162
-3.69276e-156
5.71707e-158
-6.99464e-152
1.05182e-153
-2.01772e-147
1.05932e-149
-4.63635e-143
-1.06487e-143
-6.26943e-139
-6.89673e-139
-4.24289e-135
-1.36231e-134
-3.3642e-131
-1.05906e-130
-9.51999e-128
-2.56834e-127
-2.65858e-125
-1.17741e-124
-5.79395e-124
-6.26944e-123
6.13742e-127
-4.2932e-122
5.80625e-124
-4.29321e-122
2.65316e-125
-6.26988e-123
1.9027e-127
-1.13321e-124
1.87515e-129
-1.90688e-126
2.45459e-132
-1.13858e-128
3.39128e-137
-8.51977e-133
2.97922e-142
-6.54561e-138
2.21133e-147
-2.99988e-143
9.60137e-155
2.647e-152
9.8742e-156
1.44462e-156
5.2955e-160
1.34363e-160
2.06535e-164
7.19357e-165
6.29265e-169
3.39701e-169
1.31233e-173
1.17339e-173
1.3835e-178
2.63181e-178
2.84067e-183
-1.26514e-170
4.09273e-175
-1.09537e-165
3.46672e-170
-4.78745e-161
1.4109e-165
-1.40158e-156
3.80561e-161
-1.42186e-155
7.21599e-157
-4.49813e-151
1.69111e-152
-1.28105e-146
2.97712e-148
-3.42271e-142
2.77717e-144
-7.19378e-138
-1.77337e-138
-8.70152e-134
-1.02404e-133
-5.24079e-130
-1.76379e-129
-3.90437e-126
-1.17806e-125
-9.3445e-123
-2.45598e-122
-2.30214e-120
-9.94997e-120
-4.62551e-119
-4.88805e-118
3.83912e-122
-3.21953e-117
4.63313e-119
-3.21951e-117
2.29663e-120
-4.88828e-118
1.83821e-122
-9.57668e-120
1.77249e-124
-1.7027e-121
2.87048e-127
-1.17211e-123
4.85616e-132
-1.10686e-127
4.64867e-137
-9.65902e-133
3.66427e-142
-4.88923e-138
1.53011e-149
5.98069e-147
5.40004e-154
3.55604e-151
2.98335e-155
2.02103e-155
2.47444e-159
1.75316e-159
8.2602e-164
6.41691e-164
1.87508e-168
2.41251e-168
2.14107e-173
5.86042e-173
6.82638e-178
-1.91296e-165
8.58035e-170
-1.49832e-160
6.59245e-165
-5.44846e-156
2.63364e-160
-6.77747e-155
5.84706e-156
-2.29664e-150
1.61429e-151
-6.58644e-146
3.42978e-147
-1.69216e-141
5.44508e-143
-4.07729e-137
4.58131e-139
-7.654e-133
-1.99003e-133
-8.14567e-129
-1.0042e-128
-4.80255e-125
-1.48701e-124
-3.00027e-121
-8.4658e-121
-6.06509e-118
-1.51361e-117
-1.31794e-115
-5.41868e-115
-2.44122e-114
-2.45615e-113
1.59738e-117
-1.55609e-112
2.44436e-114
-1.55607e-112
1.3144e-115
-2.45623e-113
1.17901e-117
-5.21552e-115
1.13195e-119
-1.00411e-116
2.22962e-122
-7.94793e-119
4.66701e-127
-9.40852e-123
5.04359e-132
-9.57567e-128
4.36057e-137
-5.49481e-133
1.83505e-144
8.8781e-142
7.17191e-149
5.90594e-146
2.49336e-153
3.72128e-150
3.35765e-155
1.75195e-154
8.21717e-159
1.01303e-158
2.14132e-163
3.46678e-163
2.78497e-168
9.59054e-168
1.26417e-172
-2.6248e-160
1.56779e-164
-1.4214e-155
1.28049e-159
-2.69003e-154
3.50155e-155
-1.02935e-149
1.16334e-150
-3.07705e-145
2.83279e-146
-7.78137e-141
5.30269e-142
-1.76215e-136
7.41715e-138
-3.74102e-132
5.49977e-134
-6.14868e-128
-1.65654e-128
-5.68527e-124
-7.19145e-124
-3.25103e-120
-9.06049e-120
-1.6931e-116
-4.37296e-116
-2.88861e-113
-6.69605e-113
-5.53565e-111
-2.11852e-110
-9.45264e-110
-8.86131e-109
4.84955e-113
-5.40037e-108
9.462e-110
-5.40027e-108
5.51937e-111
-8.86144e-109
5.56454e-113
-2.03915e-110
5.40835e-115
-4.33931e-112
1.2764e-117
-3.94193e-114
3.32587e-122
-5.80419e-118
4.16712e-127
-7.0231e-123
4.06055e-132
-4.66149e-128
1.80653e-139
1.00005e-136
8.00674e-144
7.60624e-141
3.15759e-148
5.43914e-145
1.05647e-152
2.9062e-149
1.73866e-155
1.19368e-153
2.11457e-158
4.42854e-158
3.19356e-163
1.28086e-162
1.96305e-167
-2.16325e-155
3.30186e-159
-8.38193e-154
1.52119e-154
-4.06309e-149
6.72141e-150
-1.34715e-144
1.93154e-145
-3.48777e-140
4.06719e-141
-7.63525e-136
6.58349e-137
-1.49604e-131
7.96322e-133
-2.7466e-127
5.10822e-129
-3.89202e-123
-1.06948e-123
-3.0992e-119
-3.94874e-119
-1.70395e-115
-4.20191e-115
-7.36986e-112
-1.71323e-111
-1.06081e-108
-2.24547e-108
-1.79263e-106
-6.28035e-106
-2.82188e-105
-2.42453e-104
1.12409e-108
-1.42144e-103
2.82401e-105
-1.42141e-103
1.78697e-106
-2.42454e-104
2.02889e-108
-6.04533e-106
2.02443e-110
-1.44393e-107
5.65543e-113
-1.50353e-109
1.84068e-117
-2.73439e-113
2.72599e-122
-3.98709e-118
3.05811e-127
-3.10767e-123
1.50076e-134
9.0359e-132
7.68606e-139
7.99148e-136
3.50178e-143
6.60794e-140
1.35271e-147
4.08279e-144
4.08027e-152
1.93915e-148
7.84533e-156
6.74851e-153
3.57688e-158
1.65699e-157
2.80223e-162
-1.57445e-153
3.74592e-154
-1.29176e-148
2.92712e-149
-5.3543e-144
1.10274e-144
-1.51726e-139
2.70172e-140
-3.35546e-135
4.85006e-136
-6.27085e-131
6.69296e-132
-1.04826e-126
6.90209e-128
-1.64083e-122
3.77699e-124
-1.9822e-118
-5.48134e-119
-1.35163e-114
-1.70743e-114
-7.08548e-111
-1.52703e-110
-2.53952e-107
-5.24887e-107
-3.08382e-104
-5.88873e-104
-4.59501e-102
-1.45664e-101
-6.66793e-101
-5.19119e-100
2.05192e-104
-2.92807e-99
6.67171e-101
-2.928e-99
4.57961e-102
-5.19115e-100
5.86301e-104
-1.40221e-101
6.0725e-106
-3.79771e-103
1.98921e-108
-4.52977e-105
8.10222e-113
-1.01175e-108
1.43798e-117
-1.7946e-113
1.8869e-122
-1.66093e-118
1.0579e-129
6.6923e-127
6.34999e-134
6.96874e-131
3.38896e-138
6.75836e-135
1.53252e-142
4.89785e-139
5.40853e-147
2.72854e-143
1.30494e-151
1.11376e-147
5.08884e-156
2.9565e-152
3.95556e-157
-2.49377e-148
7.33908e-149
-1.73351e-143
4.83901e-144
-6.08466e-139
1.53817e-139
-1.45922e-134
3.17963e-135
-2.72924e-130
4.81595e-131
-4.31048e-126
5.60724e-127
-6.08479e-122
4.87904e-123
-8.03654e-118
2.25457e-119
-8.21204e-114
-2.25965e-114
-4.7793e-110
-5.90645e-110
-2.36921e-106
-4.42583e-106
-7.02903e-103
-1.28126e-102
-7.20269e-100
-1.23103e-99
-9.46258e-98
-2.69464e-97
-1.26581e-96
-8.86728e-96
3.0116e-100
-4.8124e-95
1.26635e-96
-4.81227e-95
9.42935e-98
-8.86716e-96
1.36225e-99
-2.5941e-97
1.47684e-101
-8.01196e-99
5.63217e-104
-1.09443e-100
2.87378e-108
-2.98919e-104
6.17278e-113
-6.49257e-109
9.58305e-118
-7.1923e-114
6.31283e-125
4.09428e-122
4.48703e-129
5.06448e-126
2.83361e-133
5.8208e-130
1.5151e-137
4.99964e-134
6.31795e-142
3.30107e-138
1.80008e-146
1.59698e-142
2.58972e-151
5.02422e-147
7.62036e-152
-3.41146e-143
1.23113e-143
-1.99616e-138
6.79843e-139
-5.89407e-134
1.80988e-134
-1.18817e-129
3.13338e-130
-1.86643e-125
3.97465e-126
-2.47358e-121
3.87567e-122
-2.92734e-117
2.82456e-118
-3.23828e-113
1.09429e-114
-2.78434e-109
-7.55137e-110
-1.38083e-105
-1.65075e-105
-6.41987e-102
-1.0345e-101
-1.5762e-98
-2.52185e-98
-1.36351e-95
-2.07674e-95
-1.57935e-93
-4.02541e-93
-1.94756e-92
-1.22348e-91
3.6065e-96
-6.38957e-91
1.94818e-92
-6.3894e-91
1.57358e-93
-1.22346e-91
2.56643e-95
-3.87551e-93
2.93027e-97
-1.36754e-94
1.29391e-99
-2.13965e-96
8.27498e-104
-7.12331e-100
2.16649e-108
-1.90355e-104
4.01146e-113
-2.53825e-109
3.17494e-120
2.07327e-117
2.69176e-124
3.06514e-121
2.02573e-128
4.20599e-125
1.28962e-132
4.31358e-129
6.39756e-137
3.40068e-133
2.16675e-141
1.96434e-137
3.70323e-146
7.37879e-142
1.33629e-146
-3.97296e-138
1.74714e-138
-1.94887e-133
8.03857e-134
-4.82002e-129
1.78308e-129
-8.13101e-125
2.57204e-125
-1.06774e-120
2.71833e-121
-1.1817e-116
2.20844e-117
-1.16657e-112
1.34115e-113
-1.0753e-108
4.33505e-110
-7.75408e-105
-2.05559e-105
-3.55102e-101
-3.75106e-101
-1.41624e-97
-1.96442e-97
-2.87844e-94
-4.03409e-94
-2.10332e-91
-2.85047e-91
-2.14794e-89
-4.89635e-89
-2.44171e-88
-1.37495e-87
3.557e-92
-6.91064e-87
2.44228e-88
-6.91044e-87
2.13985e-89
-1.37493e-87
3.94055e-91
-4.71443e-89
4.75995e-93
-1.89834e-90
2.42332e-95
-3.40347e-92
1.94293e-99
-1.37785e-95
6.23276e-104
-4.5458e-100
1.38409e-108
-7.32513e-105
1.34018e-115
8.68909e-113
1.3621e-119
1.54162e-116
1.22748e-123
2.53864e-120
9.34769e-128
3.12484e-124
5.5414e-132
2.95675e-128
2.24062e-136
2.04983e-132
4.56791e-141
9.24134e-137
2.00861e-141
-3.89658e-133
2.07792e-133
-1.59864e-128
7.93751e-129
-3.3033e-124
1.4618e-124
-4.65008e-120
1.75066e-120
-5.08939e-116
1.53612e-116
-4.68862e-112
1.03612e-112
-3.84804e-108
5.22476e-109
-2.94506e-104
1.40451e-105
-1.77764e-100
-4.57212e-101
-7.74448e-97
-6.95939e-97
-2.55064e-93
-3.04549e-93
-4.29472e-90
-5.27309e-90
-2.65273e-87
-3.20118e-87
-2.3884e-85
-4.87701e-85
-2.50288e-84
-1.26573e-83
2.90611e-88
-6.12319e-83
2.50332e-84
-6.12302e-83
2.37915e-85
-1.2657e-83
4.94678e-87
-4.69628e-85
6.34276e-89
-2.14982e-86
3.71036e-91
-4.41981e-88
3.72974e-95
-2.1721e-91
1.47184e-99
-8.87041e-96
3.93475e-104
-1.73205e-100
4.7324e-111
3.0118e-108
5.78553e-115
6.4293e-112
6.26322e-119
1.27502e-115
5.7227e-123
1.89035e-119
4.06534e-127
2.1544e-123
1.96747e-131
1.79895e-127
4.79576e-136
9.76837e-132
2.55728e-136
-3.1929e-128
2.05643e-128
-1.09454e-123
6.50644e-124
-1.8871e-119
9.9249e-120
-2.21331e-115
9.84502e-116
-2.01531e-111
7.15494e-112
-1.54234e-107
3.99723e-108
-1.05003e-103
1.6698e-104
-6.65662e-100
3.72559e-101
-3.35966e-96
-8.32644e-97
-1.38171e-92
-1.05729e-92
-3.75668e-89
-3.86815e-89
-5.24594e-86
-5.65365e-86
-2.74122e-83
-2.95313e-83
-2.17603e-81
-3.99389e-81
-2.10216e-80
-9.5829e-80
1.97262e-84
-4.46269e-79
2.10243e-80
-4.46256e-79
2.1674e-81
-9.58268e-80
5.0874e-83
-3.84633e-81
6.94139e-85
-1.98994e-82
4.65244e-87
-4.69589e-84
5.86322e-91
-2.79789e-87
2.85518e-95
-1.41722e-91
9.21166e-100
-3.35939e-96
1.39476e-106
8.62766e-104
2.05562e-110
2.21933e-107
2.6787e-114
5.31281e-111
2.94192e-118
9.50991e-115
2.50837e-122
1.30856e-118
1.45491e-126
1.31919e-122
4.24426e-131
8.64834e-127
2.73346e-131
-2.1736e-123
1.68464e-123
-6.22597e-119
4.40788e-119
-8.95314e-115
5.56054e-115
-8.74271e-111
4.56151e-111
-6.61626e-107
2.7415e-107
-4.2013e-103
1.26659e-103
-2.3693e-99
4.37657e-100
-1.24216e-95
8.09579e-97
-5.23973e-92
-1.24334e-92
-2.01775e-88
-1.31803e-88
-4.52955e-85
-4.03511e-85
-5.25269e-82
-4.98578e-82
-2.3241e-79
-2.24428e-79
-1.62665e-77
-2.69687e-77
-1.44867e-76
-5.98436e-76
1.11382e-80
-2.68305e-75
1.44881e-76
-2.68297e-75
1.62006e-77
-5.98423e-76
4.29171e-79
-2.59757e-77
6.24334e-81
-1.50714e-78
4.78271e-83
-4.08739e-80
7.55537e-87
-2.94967e-83
4.55175e-91
-1.85624e-87
1.77505e-95
-5.34793e-92
3.42595e-102
2.04139e-99
6.09558e-106
6.33222e-103
9.57304e-110
1.83258e-106
1.26499e-113
3.9666e-110
1.29546e-117
6.59998e-114
9.00868e-122
8.04556e-118
3.14518e-126
6.37785e-122
2.43759e-126
-1.22439e-118
1.13792e-118
-2.93279e-114
2.45985e-114
-3.51865e-110
2.56378e-110
-2.86039e-106
1.73761e-106
-1.79838e-102
8.62784e-103
-9.46896e-99
3.29325e-99
-4.41964e-95
9.40411e-96
-1.91435e-91
1.44159e-92
-7.20704e-88
-1.5238e-88
-2.41239e-84
-1.35029e-84
-4.47369e-81
-3.46353e-81
-4.31478e-78
-3.62382e-78
-1.61811e-75
-1.40806e-75
-9.98574e-74
-1.50477e-73
-8.19865e-73
-3.08903e-72
5.23511e-77
-1.33348e-71
8.19922e-73
-1.33344e-71
9.94459e-74
-3.08896e-72
2.97216e-75
-1.44959e-73
4.61714e-77
-9.34477e-75
4.03353e-79
-2.91702e-76
7.98524e-83
-2.5477e-79
5.96458e-87
-1.99463e-83
2.81402e-91
-6.98956e-88
7.00741e-98
3.98819e-95
1.50645e-101
1.49194e-98
2.85314e-105
5.22469e-102
4.53808e-109
1.3688e-105
5.58249e-113
2.75673e-109
4.65307e-117
4.0675e-113
1.94261e-121
3.90266e-117
1.80538e-121
-6.48478e-114
6.31969e-114
-1.1628e-109
1.12796e-109
-1.14351e-105
9.70755e-106
-7.74107e-102
5.4328e-102
-4.04329e-98
2.22742e-98
-1.76477e-94
7.02043e-95
-6.81423e-91
1.65592e-91
-2.43705e-87
2.10373e-88
-8.55617e-84
-1.53371e-84
-2.36145e-80
-1.13814e-80
-3.6206e-77
-2.44965e-77
-2.90917e-74
-2.17423e-74
-9.25638e-72
-7.30474e-72
-5.037e-70
-6.94887e-70
-3.81265e-69
-1.32001e-68
2.04741e-73
-5.48694e-68
3.81284e-69
-5.48679e-68
5.01592e-70
-1.31998e-68
1.69057e-71
-6.6952e-70
2.8082e-73
-4.74391e-71
2.79182e-75
-1.70766e-72
6.92418e-79
-1.80395e-75
6.42476e-83
-1.75913e-79
3.66843e-87
-7.49991e-84
1.19303e-93
6.43252e-91
3.10039e-97
2.90091e-94
7.08329e-101
1.22987e-97
1.35614e-104
3.90212e-101
2.00332e-108
9.51753e-105
2.03064e-112
1.70065e-108
1.13383e-116
1.97607e-112
1.10716e-116
-2.95397e-109
2.87914e-109
-4.37809e-105
4.24193e-105
-3.13608e-101
3.01349e-101
-1.73121e-97
1.39226e-97
-7.51375e-94
4.71221e-94
-2.71852e-90
1.22609e-90
-8.68185e-87
2.38839e-87
-2.56281e-83
2.51586e-84
-8.31499e-80
-1.26825e-80
-1.89245e-76
-7.89974e-77
-2.4014e-73
-1.42917e-73
-1.6104e-70
-1.0781e-70
-4.35218e-68
-3.13722e-68
-2.08842e-66
-2.65882e-66
-1.45738e-65
-4.67493e-65
6.66122e-70
-1.87131e-64
1.45744e-65
-1.87126e-64
2.07957e-66
-4.67483e-65
7.90006e-68
-2.56226e-66
1.40489e-69
-1.97142e-67
1.58628e-71
-8.20215e-69
4.92671e-75
-1.04747e-71
5.68832e-79
-1.27353e-75
3.93053e-83
-6.6056e-80
1.69037e-89
8.56551e-87
5.31144e-93
4.65305e-90
1.46383e-96
2.38865e-93
3.37275e-100
9.18031e-97
6.08828e-104
2.71241e-100
8.50747e-108
5.87096e-104
5.74284e-112
8.26429e-108
5.60929e-112
-1.10181e-104
1.07398e-104
-1.34795e-100
1.30614e-100
-7.97734e-97
7.65971e-97
-3.197e-93
2.92106e-93
-1.15341e-89
8.16149e-90
-3.4597e-86
1.75308e-86
-9.13826e-83
2.82052e-83
-2.31329e-79
2.4656e-80
-6.61139e-76
-8.61782e-77
-1.24137e-72
-4.51821e-73
-1.30534e-69
-6.88345e-70
-7.32007e-67
-4.4219e-67
-1.6821e-64
-1.11641e-64
-7.11885e-63
-8.5082e-63
-4.58052e-62
-1.44629e-61
1.80315e-66
-5.69155e-61
4.58063e-62
-5.69139e-61
7.08834e-63
-1.44626e-61
3.03334e-64
-8.19953e-63
5.78157e-66
-6.70354e-64
7.39961e-68
-3.23253e-65
2.87648e-71
-4.98834e-68
4.13905e-75
-7.56806e-72
3.45938e-79
-4.77362e-76
1.99308e-85
9.418e-83
7.5725e-89
6.1555e-86
2.51718e-92
3.8259e-89
6.97713e-96
1.78116e-92
1.73485e-99
6.37496e-96
2.93365e-103
1.67166e-99
2.39916e-107
2.85055e-103
2.34389e-107
-3.35965e-100
3.27488e-100
-3.39335e-96
3.28822e-96
-1.65802e-92
1.59212e-92
-5.29573e-89
5.01282e-89
-1.46169e-85
1.15632e-85
-3.64821e-82
2.05084e-82
-8.06389e-79
2.72607e-79
-1.82844e-75
1.98009e-76
-4.29901e-72
-4.81178e-73
-6.66338e-69
-2.13034e-69
-5.81454e-66
-2.73855e-66
-2.73218e-63
-1.50119e-63
-5.34614e-61
-3.46087e-61
-1.99547e-59
-2.4801e-59
-1.18377e-58
-3.88818e-58
4.0605e-63
-1.47066e-57
1.18378e-58
-1.47062e-57
1.98685e-59
-3.88811e-58
9.56513e-61
-2.39077e-59
1.95722e-62
-1.86432e-60
2.8339e-64
-1.04523e-61
1.378e-67
-1.94831e-64
2.47467e-71
-3.69107e-68
2.49945e-75
-2.82886e-72
1.95547e-81
8.55296e-79
9.01369e-85
6.71545e-82
3.60076e-88
5.05214e-85
1.29803e-91
2.84854e-88
4.06907e-95
1.23488e-91
8.33465e-99
3.92212e-95
8.25624e-103
8.10039e-99
8.06756e-103
-8.36282e-96
8.15177e-96
-6.97597e-92
6.75979e-92
-2.81516e-88
2.70331e-88
-7.42597e-85
7.02982e-85
-1.63812e-81
1.33927e-81
-3.47862e-78
1.96208e-78
-6.34248e-75
2.15567e-75
-1.18135e-71
1.30273e-72
-2.28487e-68
-2.20694e-69
-2.92583e-65
-8.28243e-66
-2.12241e-62
-9.00313e-63
-8.37582e-60
-4.55537e-60
-1.39701e-57
-9.34422e-58
-4.59891e-56
-5.94295e-56
-2.51527e-55
-8.59161e-55
7.60771e-60
-3.12307e-54
2.51529e-55
-3.12299e-54
4.57891e-56
-8.59146e-55
2.47654e-57
-5.73051e-56
5.44758e-59
-4.2373e-57
8.9103e-61
-2.77267e-58
5.41585e-64
-6.24008e-61
1.21538e-67
-1.47701e-64
1.48136e-71
-1.37362e-68
1.5963e-77
6.41791e-75
9.77744e-81
6.04196e-78
4.59203e-84
5.50028e-81
2.07057e-87
3.75438e-84
7.85996e-91
1.97066e-87
1.94937e-94
7.57814e-91
2.33824e-98
1.89496e-94
2.28518e-98
-1.69672e-91
1.65382e-91
-1.16949e-87
1.13319e-87
-3.9e-84
3.74488e-84
-8.50104e-81
8.04759e-81
-1.54551e-77
1.2669e-77
-2.70941e-74
1.53385e-74
-4.07592e-71
1.39376e-71
-6.23389e-68
7.02025e-69
-9.91991e-65
-8.30911e-66
-1.0507e-61
-2.66394e-62
-6.3476e-59
-2.69047e-59
-2.10838e-56
-1.16814e-56
-3.00119e-54
-2.07249e-54
-8.71386e-53
-1.17035e-52
-4.39376e-52
-1.56021e-51
1.18582e-56
-5.44999e-51
4.39377e-52
-5.44985e-51
8.67582e-53
-1.56018e-51
5.26723e-54
-1.12888e-52
1.24668e-55
-7.85879e-54
2.29979e-57
-6.03215e-55
1.74594e-60
-1.63857e-57
4.90155e-64
-4.84726e-61
7.19511e-68
-5.45959e-65
1.15523e-73
3.98111e-71
8.74596e-77
4.48416e-74
4.97361e-80
4.93613e-77
2.72008e-83
4.07705e-80
1.24966e-86
2.5898e-83
3.75078e-90
1.20514e-86
5.44496e-94
3.6467e-90
5.32214e-94
-2.80151e-87
2.73045e-87
-1.59662e-83
1.54691e-83
-4.40301e-80
4.2275e-80
-7.93589e-77
7.51221e-77
-1.18945e-73
9.7788e-74
-1.72238e-70
9.79078e-71
-2.13881e-67
7.36406e-68
-2.68467e-64
3.09809e-65
-3.51649e-61
-2.6005e-62
-3.08451e-58
-7.825e-59
-1.55493e-55
-6.64964e-56
-4.35732e-53
-2.45608e-53
-5.30008e-51
-3.77486e-51
-1.35725e-49
-1.89395e-49
-6.30894e-49
-2.32819e-48
1.53783e-53
-7.81442e-48
6.30892e-49
-7.81422e-48
1.35132e-49
-2.32815e-48
9.20056e-51
-1.82753e-49
2.34619e-52
-1.18744e-50
4.8721e-54
-1.07587e-51
4.61574e-57
-3.52658e-54
1.62249e-60
-1.3039e-57
2.86067e-64
-1.77381e-61
7.0503e-70
2.0427e-67
6.44854e-73
2.74568e-70
4.43637e-76
3.65158e-73
2.94164e-79
3.64711e-76
1.63456e-82
2.80172e-79
5.933e-86
1.57666e-82
1.0417e-89
5.76923e-86
1.01832e-89
-3.75822e-83
3.66244e-83
-1.77255e-79
1.71712e-79
-4.04561e-76
3.88376e-76
-6.03444e-73
5.71165e-73
-7.45962e-70
6.15296e-70
-8.92783e-67
5.09896e-67
-9.15553e-64
3.17777e-64
-9.42862e-61
1.11937e-61
-1.01706e-57
-7.30551e-59
-7.39869e-55
-1.87564e-55
-3.11905e-52
-1.34398e-52
-7.39232e-50
-4.23254e-50
-7.69321e-48
-5.64541e-48
-1.73751e-46
-2.51821e-46
-7.44482e-46
-2.85428e-45
1.65886e-50
-9.20424e-45
7.44477e-46
-9.204e-45
1.72994e-46
-2.85424e-45
1.31955e-47
-2.43095e-46
3.63048e-49
-1.45854e-47
8.47064e-51
-1.5724e-48
1.00041e-53
-6.2182e-51
4.40556e-57
-2.87298e-54
9.29586e-61
-4.7025e-58
3.54902e-66
8.67576e-64
3.91779e-69
1.38733e-66
3.25799e-72
2.22687e-69
2.61811e-75
2.68717e-72
1.75805e-78
2.49439e-75
7.71077e-82
1.6961e-78
1.63597e-85
7.49886e-82
1.59943e-85
-4.08879e-79
3.98392e-79
-1.59762e-75
1.54734e-75
-3.02099e-72
2.89952e-72
-3.73305e-69
3.53274e-69
-3.80767e-66
3.15274e-66
-3.76944e-63
2.16478e-63
-3.19434e-60
1.11927e-60
-2.69803e-57
3.3104e-58
-2.39831e-54
-1.65965e-55
-1.44937e-51
-3.6638e-52
-5.1219e-49
-2.2201e-49
-1.02936e-46
-5.97642e-47
-9.17692e-45
-6.93073e-45
-1.82774e-43
-2.75027e-43
-7.21787e-43
-2.87402e-42
1.48817e-47
-8.90289e-42
7.21781e-43
-8.90267e-42
1.81983e-43
-2.87399e-42
1.5534e-44
-2.65632e-43
4.61835e-46
-1.4521e-44
1.20839e-47
-1.88211e-45
1.77709e-50
-8.97798e-48
9.80465e-54
-5.1801e-51
2.46359e-57
-1.01462e-54
1.47395e-62
3.05276e-60
1.96139e-65
5.78673e-63
1.96953e-68
1.11969e-65
1.91723e-71
1.63068e-68
1.55418e-74
1.82717e-71
8.22818e-78
1.49964e-74
2.10737e-81
8.00282e-78
2.06046e-81
-3.60059e-75
3.50746e-75
-1.16692e-71
1.12989e-71
-1.83047e-68
1.75637e-68
-1.87626e-65
1.77514e-65
-1.57987e-62
1.31404e-62
-1.29495e-59
7.48546e-60
-9.07521e-57
3.21564e-57
-6.28477e-54
8.01105e-55
-4.60743e-51
-3.03696e-52
-2.31761e-48
-5.82613e-49
-6.8836e-46
-2.99555e-46
-1.17627e-43
-6.91196e-44
-8.99413e-42
-6.9827e-42
-1.57941e-40
-2.46651e-40
-5.74735e-40
-2.37593e-39
1.10972e-44
-7.06882e-39
5.7473e-40
-7.06865e-39
1.57264e-40
-2.37591e-39
1.50042e-41
-2.38364e-40
4.82891e-43
-1.16694e-41
1.41413e-44
-1.8438e-42
2.5863e-47
-1.06076e-44
1.78636e-50
-7.63269e-48
5.30496e-54
-1.77426e-51
5.05295e-59
8.90909e-57
8.09305e-62
1.99365e-59
9.80022e-65
4.64317e-62
1.155e-67
8.15078e-65
1.12886e-70
1.10105e-67
7.2049e-74
1.08939e-70
2.22484e-77
7.00806e-74
2.17545e-77
-2.56038e-71
2.49345e-71
-6.89312e-68
6.67215e-68
-8.98375e-65
8.61695e-65
-7.65025e-62
7.23537e-62
-5.32096e-59
4.44931e-59
-3.61535e-56
2.10604e-56
-2.09732e-53
7.53034e-54
-1.19054e-50
1.58582e-51
-7.20545e-48
-4.45474e-49
-3.02351e-45
-7.53304e-46
-7.56915e-43
-3.29918e-43
-1.10284e-40
-6.5447e-41
-7.24078e-39
-5.77127e-39
-1.12076e-37
-1.81565e-37
-3.75699e-37
-1.61183e-36
6.87673e-42
-4.60476e-36
3.75695e-37
-4.60465e-36
1.11603e-37
-1.61182e-36
1.17969e-38
-1.75585e-37
4.14918e-40
-7.81361e-39
1.35727e-41
-1.47714e-39
3.08284e-44
-1.02488e-41
2.66093e-47
-9.17643e-45
9.23004e-51
-2.49968e-48
1.42963e-55
2.15734e-53
2.75087e-58
5.67261e-56
4.01073e-61
1.58739e-58
5.71924e-64
3.35355e-61
6.72911e-67
5.45317e-64
5.16961e-70
6.49429e-67
1.92178e-73
5.02846e-70
1.87916e-73
-1.46637e-67
1.42753e-67
-3.28542e-64
3.17874e-64
-3.56418e-61
3.41706e-61
-2.52618e-58
2.3881e-58
-1.45236e-55
1.22216e-55
-8.19207e-53
4.81588e-53
-3.93837e-50
1.43627e-50
-1.83209e-47
2.56679e-48
-9.16517e-45
-5.20165e-46
-3.21623e-42
-7.90819e-43
-6.80758e-40
-2.96355e-40
-8.48217e-38
-5.0709e-38
-4.78681e-36
-3.9114e-36
-6.52786e-35
-1.09649e-34
-2.01506e-34
-8.96777e-34
3.53926e-39
-2.4594e-33
2.01504e-34
-2.45935e-33
6.50087e-35
-8.96769e-34
7.27754e-36
-1.06124e-34
2.92911e-37
-4.95163e-36
1.06814e-38
-9.668e-37
3.00897e-41
-8.09137e-39
3.23661e-44
-8.98766e-42
1.28829e-47
-2.81547e-45
3.33402e-52
4.33173e-50
7.69128e-55
1.33166e-52
1.3475e-57
4.46806e-55
2.32328e-60
1.13386e-57
3.28455e-63
2.2154e-60
3.03166e-66
3.16985e-63
1.35429e-69
2.9487e-66
1.32419e-69
-6.74318e-64
6.56165e-64
-1.26008e-60
1.21852e-60
-1.1404e-57
1.09269e-57
-6.74235e-55
6.37013e-55
-3.20695e-52
2.71903e-52
-1.50428e-49
8.93933e-50
-6.00154e-47
2.22921e-47
-2.28765e-44
3.39524e-45
-9.47322e-42
-4.78298e-43
-2.78798e-39
-6.72903e-40
-5.00627e-37
-2.16915e-37
-5.35048e-35
-3.2131e-35
-2.59769e-33
-2.17259e-33
-3.11914e-32
-5.42909e-32
-8.86173e-32
-4.0889e-31
1.51151e-36
-1.07613e-30
8.86163e-32
-1.07611e-30
3.10659e-32
-4.08888e-31
3.64689e-33
-5.25964e-32
1.69806e-34
-2.54504e-33
6.89029e-36
-5.16389e-34
2.40432e-38
-5.21581e-36
3.21058e-41
-7.15947e-39
1.42745e-44
-2.50676e-42
6.40072e-49
7.20637e-47
1.76623e-51
2.57657e-49
3.70939e-54
1.03399e-51
7.72603e-57
3.14492e-54
1.30955e-59
7.36719e-57
1.44898e-62
1.26367e-59
7.76119e-66
1.40913e-62
7.5879e-66
-2.481e-60
2.41288e-60
-3.87684e-57
3.74652e-57
-2.93487e-54
2.81005e-54
-1.45122e-51
1.37013e-51
-5.71656e-49
4.89036e-49
-2.23467e-46
1.34504e-46
-7.41114e-44
2.81274e-44
-2.31482e-41
3.66768e-42
-7.94878e-39
-3.39964e-40
-1.96816e-36
-4.63098e-37
-3.00931e-34
-1.29229e-34
-2.76741e-32
-1.66379e-32
-1.1567e-30
-9.88394e-31
-1.22182e-29
-2.20228e-29
-3.19278e-29
-1.52648e-28
5.35131e-34
-3.85377e-28
3.19275e-29
-3.85368e-28
1.21708e-29
-1.52648e-28
1.49806e-30
-2.13595e-29
8.07895e-32
-1.07048e-30
3.64186e-33
-2.24786e-31
1.57259e-35
-2.7428e-33
2.5934e-38
-4.62961e-36
1.23338e-41
-1.73063e-39
1.01075e-45
9.92518e-44
3.32756e-48
4.10659e-46
8.35256e-51
1.96534e-48
2.09935e-53
7.14523e-51
4.25498e-56
2.00162e-53
5.6288e-59
4.10497e-56
3.60563e-62
5.47275e-59
3.52449e-62
-7.27306e-57
7.06853e-57
-9.53329e-54
9.20543e-54
-6.05596e-51
5.79324e-51
-2.51238e-48
2.36992e-48
-8.20636e-46
7.09523e-46
-2.68032e-43
1.63774e-43
-7.40421e-41
2.88182e-41
-1.89544e-38
3.23265e-39
-5.4085e-36
-1.79965e-37
-1.13072e-33
-2.57087e-34
-1.4781e-31
-6.25809e-32
-1.17339e-29
-7.03469e-30
-4.22397e-28
-3.68011e-28
-3.92036e-27
-7.31186e-27
-9.41435e-27
-4.66052e-26
1.56736e-31
-1.12809e-25
9.41426e-27
-1.12806e-25
3.90584e-27
-4.6605e-26
5.0453e-28
-7.101e-27
3.15315e-29
-3.68483e-28
1.57654e-30
-7.96144e-29
8.41964e-33
-1.17548e-30
1.70291e-35
-2.42454e-33
8.02276e-39
-8.91772e-37
1.31184e-42
1.1267e-40
5.13753e-45
5.38882e-43
1.5357e-47
3.06511e-45
4.65178e-50
1.32777e-47
1.12385e-52
4.4342e-50
1.77184e-55
1.08386e-52
1.35312e-58
1.72214e-55
1.32231e-58
-1.69044e-53
1.64151e-53
-1.86558e-50
1.79964e-50
-9.98225e-48
9.53873e-48
-3.48751e-45
3.28624e-45
-9.46009e-43
8.28277e-43
-2.58966e-40
1.61059e-40
-5.97339e-38
2.39418e-38
-1.25393e-35
2.32193e-36
-2.98058e-33
-6.37913e-35
-5.28238e-31
-1.14727e-31
-5.9301e-29
-2.4594e-29
-4.07741e-27
-2.42618e-27
-1.2642e-25
-1.12036e-25
-1.02928e-24
-1.98437e-24
-2.26893e-24
-1.16153e-23
3.79059e-29
-2.6948e-23
2.26891e-24
-2.69474e-23
1.02568e-24
-1.16153e-23
1.39207e-25
-1.93008e-24
1.00914e-26
-1.03702e-25
5.58709e-28
-2.2896e-26
3.69098e-30
-4.10159e-28
9.07214e-33
-1.02554e-30
3.58893e-36
-3.11181e-34
1.39796e-39
9.85712e-38
6.49115e-42
5.81783e-40
2.30035e-44
3.91716e-42
8.38455e-47
2.01414e-44
2.40554e-49
7.98938e-47
4.50281e-52
2.3188e-49
4.08433e-55
4.37447e-52
3.98982e-55
-3.09766e-50
3.00485e-50
-2.89111e-47
2.78554e-47
-1.30891e-44
1.24908e-44
-3.86823e-42
3.6403e-42
-8.72949e-40
7.75787e-40
-2.01042e-37
1.27657e-37
-3.88371e-35
1.61054e-35
-6.69247e-33
1.35731e-33
-1.32864e-30
-9.69581e-33
-2.00483e-28
-4.09621e-29
-1.94251e-26
-7.82747e-27
-1.16079e-24
-6.81645e-25
-3.09835e-23
-2.78583e-23
-2.20849e-22
-4.40763e-22
-4.46294e-22
-2.38009e-21
7.53916e-27
-5.29589e-21
4.46291e-22
-5.29579e-21
2.20131e-22
-2.38008e-21
3.14384e-23
-4.29491e-22
2.6479e-24
-2.38289e-23
1.62012e-25
-5.3338e-24
1.32584e-27
-1.16418e-25
3.91407e-30
-3.49407e-28
7.21524e-34
-4.70323e-32
1.22091e-36
4.25342e-35
6.69755e-39
5.16079e-37
2.79873e-41
4.09406e-39
1.22522e-43
2.48737e-41
4.15574e-46
1.16681e-43
9.19414e-49
4.00315e-46
9.86163e-52
8.92639e-49
9.62837e-52
-4.53042e-47
4.39159e-47
-3.59439e-44
3.46045e-44
-1.38408e-41
1.3198e-41
-3.47756e-39
3.27119e-39
-6.55034e-37
5.9248e-37
-1.2749e-34
8.29457e-35
-2.07084e-32
8.92942e-33
-2.96226e-30
6.57547e-31
-4.81881e-28
4.3597e-30
-6.174e-26
-1.16177e-26
-5.19252e-24
-2.01183e-24
-2.70515e-22
-1.55817e-22
-6.20877e-21
-5.69388e-21
-3.87538e-20
-8.35583e-20
-7.1564e-20
-4.29246e-19
1.2345e-24
-8.66974e-19
7.15637e-20
-8.66958e-19
3.86397e-20
-4.2927e-19
5.78877e-21
-8.1908e-20
5.69579e-22
-4.48229e-21
3.84282e-23
-1.00306e-21
3.90984e-25
-2.68823e-23
1.35327e-27
-9.59926e-26
9.79186e-32
2.85603e-31
9.09317e-34
2.7627e-32
5.39785e-36
3.77522e-34
2.76631e-38
3.50502e-36
1.45183e-40
2.50372e-38
5.79115e-43
1.38181e-40
1.50627e-45
5.57424e-43
1.90046e-48
1.46135e-45
1.85438e-48
-5.24725e-44
5.08111e-44
-3.5612e-41
3.42452e-41
-1.17381e-38
1.11794e-38
-2.52322e-36
2.37139e-36
-3.99133e-34
3.67263e-34
-6.57735e-32
4.40221e-32
-9.02966e-30
4.06948e-30
-1.08428e-27
2.63501e-28
-1.41876e-25
4.04963e-27
-1.54002e-23
-2.58863e-24
-1.13229e-21
-4.16427e-22
-5.18459e-20
-2.94971e-20
-1.02178e-18
-9.35728e-19
-5.47664e-18
-1.05395e-17
-9.14776e-18
-4.07721e-17
1.61886e-22
-7.12597e-17
9.14776e-18
-7.12588e-17
5.46274e-18
-4.07714e-17
9.51028e-19
-1.03226e-17
1.00214e-19
-7.46247e-19
7.43966e-21
-1.50494e-19
9.47203e-23
-5.03815e-21
3.76947e-25
-2.12865e-23
4.78911e-29
3.53688e-28
5.25258e-31
1.45058e-29
3.65358e-33
2.25711e-31
2.20228e-35
2.43976e-33
1.38168e-37
2.03548e-35
6.44066e-40
1.31369e-37
1.95686e-42
6.1919e-40
2.88607e-45
1.89642e-42
2.81342e-45
-4.68579e-41
4.52857e-41
-2.74076e-38
2.62988e-38
-7.79148e-36
7.40366e-36
-1.44399e-33
1.35413e-33
-1.96824e-31
1.80697e-31
-2.6991e-29
1.86681e-29
-3.15039e-27
1.49277e-27
-3.18957e-25
8.55003e-26
-3.36164e-23
1.79291e-24
-3.10583e-21
-4.4719e-22
-2.04083e-19
-7.03656e-20
-8.69395e-18
-4.13384e-18
-1.3146e-16
-6.39008e-17
-5.94573e-16
-2.8413e-17
-9.267e-16
-5.27407e-16
1.69958e-20
-2.52287e-15
9.26702e-16
-2.52281e-15
5.929e-16
-5.25852e-16
1.23371e-16
-2.44424e-17
1.44005e-17
-5.45896e-17
1.16698e-18
-1.77155e-17
1.87025e-20
-7.56426e-19
8.38524e-23
-3.71618e-21
1.98487e-26
2.19904e-25
2.5533e-28
6.4677e-27
2.06272e-30
1.13925e-28
1.47308e-32
1.42304e-30
1.08462e-34
1.37666e-32
5.86582e-37
1.03132e-34
2.06664e-39
5.6371e-37
3.53698e-42
2.0019e-39
3.44652e-42
-3.17681e-38
3.06217e-38
-1.61333e-35
1.54567e-35
-3.99622e-33
3.78597e-33
-6.44172e-31
6.02347e-31
-7.62699e-29
6.98599e-29
-8.73194e-27
6.27231e-27
-8.72985e-25
4.37599e-25
-7.49051e-23
2.2317e-23
-6.38015e-21
5.40125e-22
-5.16634e-19
-6.05807e-20
-2.86903e-17
-1.12131e-17
-9.88321e-16
-3.16224e-17
-1.3985e-14
0
-5.61509e-14
0
-7.96455e-14
-4.38306e-14
1.51828e-18
-1.99884e-13
7.9645e-14
-1.99878e-13
5.60118e-14
-4.37078e-14
1.41186e-14
0
1.78987e-15
0
1.47534e-16
-1.48356e-15
2.97676e-18
-8.92994e-17
1.42499e-20
-4.85737e-19
7.05623e-24
9.93619e-23
1.05536e-25
2.47015e-24
9.77475e-28
4.89377e-26
8.32698e-30
7.00163e-28
7.06052e-32
7.79117e-30
4.39115e-34
6.71441e-32
1.77825e-36
4.21848e-34
3.50094e-39
1.72172e-36
3.4098e-39
-1.59669e-35
1.53331e-35
-7.07397e-33
6.7951e-33
-1.5516e-30
1.46383e-30
-2.19822e-28
2.04702e-28
-2.28373e-26
2.08467e-26
-2.18931e-24
1.64227e-24
-1.89211e-22
1.00982e-22
-1.38717e-20
4.6203e-21
-9.69097e-19
1.19242e-19
-6.28401e-17
-4.44862e-18
-2.81325e-15
-4.03932e-17
-8.37853e-14
0
-1.18139e-12
0
-4.27586e-12
0
-5.52781e-12
-3.35489e-12
1.12479e-16
-1.32908e-11
5.52772e-12
-1.32904e-11
4.26716e-12
-3.34737e-12
1.13047e-12
0
1.47651e-13
0
1.5021e-14
-1.13124e-13
3.76092e-16
-7.93361e-15
1.70927e-18
-4.28361e-17
2.12102e-21
3.26548e-20
3.65564e-23
7.97637e-22
3.82593e-25
1.7643e-23
3.87417e-27
2.86095e-25
3.74418e-29
3.62624e-27
2.64984e-31
3.55817e-29
1.22053e-33
2.54287e-31
2.73561e-36
1.18033e-33
2.66139e-36
-5.74845e-33
5.48919e-33
-2.24284e-30
2.16123e-30
-4.42241e-28
4.14673e-28
-5.57464e-26
5.15928e-26
-5.14232e-24
4.66944e-24
-4.13982e-22
3.26331e-22
-3.13286e-20
1.79036e-20
-2.03174e-18
7.45983e-19
-1.11887e-16
2.29147e-17
-1.57876e-15
-5.02423e-18
-9.30898e-15
0
-6.3855e-12
0
-8.63384e-11
0
-2.67633e-10
0
-3.09337e-10
-2.10455e-10
6.76474e-15
-7.09006e-10
3.09333e-10
-7.08984e-10
2.67221e-10
-2.10113e-10
8.37722e-11
0
9.96092e-12
0
1.11883e-12
-5.61384e-12
3.61202e-14
-5.82919e-13
1.03005e-16
-1.78515e-15
5.32771e-19
6.47765e-18
1.04734e-20
2.17039e-19
1.21891e-22
5.2748e-21
1.45995e-24