/*--------------------------------*- C++ -*----------------------------------*\
  =========                 |
  \\      /  F ield         | OpenFOAM: The Open Source CFD Toolbox
   \\    /   O peration     | Website:  https://openfoam.org
    \\  /    A nd           | Version:  9
     \\/     M anipulation  |
\*---------------------------------------------------------------------------*/
FoamFile
{
    format      ascii;
    class       volScalarField;
    location    "0.65";
    object      p;
}
// * * * * * * * * * * * * * * * * * * * * * * * * * * * * * * * * * * * * * //

dimensions      [1 -1 -2 0 0 0 0];

internalField   nonuniform List<scalar> 
4096
(
-1.79165e-05
0
3.43505e-05
8.50689e-05
0.000149904
0.000226303
0.000311329
0.000401703
0.000493939
0.000584476
0.000669822
0.000746679
0.000812079
0.000863494
0.000898935
0.000917033
0.000917089
0.000899104
0.000863776
0.000812478
0.000747198
0.000670464
0.000585247
0.000494844
0.000402747
0.000312515
0.000227631
0.000151365
8.66549e-05
3.6005e-05
1.41194e-06
-1.61411e-05
-0.0519666
-0.0519483
-0.0519125
-0.0518599
-0.0517927
-0.0517135
-0.0516254
-0.0515317
-0.0514361
-0.0513422
-0.0512538
-0.0511741
-0.0511063
-0.051053
-0.0510162
-0.0509975
-0.0509974
-0.0510161
-0.0510527
-0.0511059
-0.0511736
-0.0512531
-0.0513415
-0.0514352
-0.0515307
-0.0516242
-0.0517122
-0.0517913
-0.0518584
-0.0519109
-0.0519468
-0.051965
-0.103933
-0.103914
-0.103875
-0.103819
-0.103747
-0.103662
-0.103568
-0.103467
-0.103364
-0.103264
-0.103169
-0.103083
-0.10301
-0.102953
-0.102914
-0.102894
-0.102894
-0.102914
-0.102953
-0.10301
-0.103083
-0.103168
-0.103263
-0.103364
-0.103466
-0.103566
-0.103661
-0.103746
-0.103818
-0.103874
-0.103912
-0.103932
-0.15592
-0.155899
-0.155856
-0.155794
-0.155714
-0.15562
-0.155515
-0.155404
-0.155291
-0.155179
-0.155074
-0.15498
-0.154899
-0.154836
-0.154792
-0.15477
-0.15477
-0.154792
-0.154836
-0.154899
-0.154979
-0.155074
-0.155179
-0.15529
-0.155403
-0.155514
-0.155619
-0.155713
-0.155792
-0.155855
-0.155897
-0.155919
-0.207929
-0.207904
-0.207856
-0.207785
-0.207695
-0.207588
-0.20747
-0.207344
-0.207215
-0.207089
-0.20697
-0.206862
-0.206771
-0.206699
-0.20665
-0.206625
-0.206625
-0.20665
-0.206699
-0.206771
-0.206862
-0.206969
-0.207088
-0.207214
-0.207343
-0.207469
-0.207587
-0.207694
-0.207784
-0.207855
-0.207903
-0.207927
-0.259962
-0.259934
-0.259878
-0.259796
-0.259692
-0.259569
-0.259432
-0.259286
-0.259137
-0.258991
-0.258853
-0.258729
-0.258624
-0.258541
-0.258484
-0.258454
-0.258454
-0.258483
-0.258541
-0.258623
-0.258729
-0.258853
-0.258991
-0.259136
-0.259285
-0.259431
-0.259568
-0.259691
-0.259795
-0.259877
-0.259933
-0.259961
-0.312024
-0.311991
-0.311925
-0.311829
-0.311707
-0.311563
-0.311402
-0.311231
-0.311057
-0.310885
-0.310724
-0.310578
-0.310454
-0.310357
-0.31029
-0.310255
-0.310255
-0.31029
-0.310357
-0.310454
-0.310578
-0.310723
-0.310885
-0.311056
-0.31123
-0.311401
-0.311562
-0.311706
-0.311828
-0.311924
-0.31199
-0.312023
-0.364119
-0.36408
-0.364002
-0.363889
-0.363744
-0.363573
-0.363382
-0.36318
-0.362973
-0.36277
-0.362578
-0.362406
-0.362259
-0.362143
-0.362063
-0.362023
-0.362023
-0.362063
-0.362143
-0.362258
-0.362405
-0.362578
-0.362769
-0.362972
-0.363179
-0.363382
-0.363572
-0.363743
-0.363888
-0.364001
-0.364079
-0.364118
-0.416254
-0.416207
-0.416115
-0.415979
-0.415806
-0.415602
-0.415374
-0.415133
-0.414886
-0.414643
-0.414414
-0.414208
-0.414032
-0.413894
-0.413799
-0.41375
-0.41375
-0.413799
-0.413894
-0.414032
-0.414207
-0.414414
-0.414642
-0.414885
-0.415132
-0.415374
-0.415601
-0.415805
-0.415979
-0.416114
-0.416207
-0.416254
-0.468437
-0.468381
-0.46827
-0.468107
-0.467899
-0.467654
-0.467381
-0.467091
-0.466794
-0.466502
-0.466228
-0.46598
-0.465769
-0.465603
-0.465489
-0.46543
-0.46543
-0.465488
-0.465603
-0.465769
-0.465979
-0.466227
-0.466502
-0.466793
-0.46709
-0.46738
-0.467653
-0.467899
-0.468106
-0.468269
-0.46838
-0.468436
-0.520677
-0.520609
-0.520475
-0.520279
-0.520029
-0.519734
-0.519405
-0.519055
-0.518697
-0.518346
-0.518014
-0.517716
-0.517461
-0.517261
-0.517123
-0.517053
-0.517053
-0.517123
-0.517261
-0.517461
-0.517715
-0.518014
-0.518346
-0.518697
-0.519054
-0.519404
-0.519733
-0.520028
-0.520279
-0.520475
-0.520608
-0.520676
-0.572985
-0.572903
-0.572742
-0.572506
-0.572203
-0.571847
-0.57145
-0.571027
-0.570595
-0.57017
-0.569769
-0.569408
-0.5691
-0.568858
-0.568692
-0.568606
-0.568606
-0.568691
-0.568858
-0.5691
-0.569408
-0.569769
-0.57017
-0.570594
-0.571026
-0.571449
-0.571846
-0.572203
-0.572505
-0.572741
-0.572903
-0.572985
-0.625377
-0.625278
-0.625083
-0.624797
-0.624431
-0.624
-0.62352
-0.623008
-0.622485
-0.621971
-0.621486
-0.621048
-0.620675
-0.620382
-0.62018
-0.620077
-0.620076
-0.62018
-0.620382
-0.620675
-0.621048
-0.621485
-0.621971
-0.622485
-0.623008
-0.623519
-0.624
-0.624431
-0.624796
-0.625082
-0.625277
-0.625376
-0.677868
-0.677749
-0.677513
-0.677167
-0.676725
-0.676203
-0.675621
-0.675001
-0.674367
-0.673744
-0.673156
-0.672625
-0.672172
-0.671816
-0.671571
-0.671446
-0.671446
-0.671571
-0.671816
-0.672172
-0.672624
-0.673155
-0.673744
-0.674367
-0.675001
-0.67562
-0.676202
-0.676724
-0.677166
-0.677512
-0.677748
-0.677868
-0.730482
-0.730337
-0.730051
-0.729632
-0.729097
-0.728465
-0.727759
-0.727008
-0.72624
-0.725484
-0.724769
-0.724125
-0.723575
-0.723143
-0.722844
-0.722692
-0.722692
-0.722844
-0.723143
-0.723575
-0.724124
-0.724769
-0.725483
-0.726239
-0.727008
-0.727759
-0.728464
-0.729097
-0.729632
-0.730051
-0.730336
-0.730481
-0.783242
-0.783067
-0.782721
-0.782214
-0.781565
-0.780799
-0.779944
-0.779033
-0.778101
-0.777183
-0.776315
-0.775532
-0.774864
-0.774338
-0.773975
-0.77379
-0.77379
-0.773975
-0.774338
-0.774864
-0.775532
-0.776315
-0.777183
-0.778101
-0.779033
-0.779944
-0.780799
-0.781565
-0.782214
-0.782721
-0.783066
-0.783242
-0.836181
-0.835969
-0.83555
-0.834937
-0.834151
-0.833223
-0.832186
-0.831081
-0.829949
-0.828834
-0.82778
-0.826827
-0.826015
-0.825374
-0.824933
-0.824707
-0.824707
-0.824933
-0.825374
-0.826014
-0.826827
-0.827779
-0.828834
-0.829949
-0.831081
-0.832186
-0.833222
-0.834151
-0.834936
-0.83555
-0.835969
-0.836181
-0.889337
-0.88908
-0.888573
-0.887831
-0.886879
-0.885754
-0.884498
-0.883157
-0.881783
-0.880428
-0.879146
-0.877987
-0.876998
-0.876218
-0.87568
-0.875405
-0.875405
-0.87568
-0.876218
-0.876998
-0.877987
-0.879146
-0.880428
-0.881783
-0.883157
-0.884498
-0.885754
-0.886879
-0.88783
-0.888573
-0.88908
-0.889336
-0.942755
-0.942444
-0.941832
-0.940933
-0.939781
-0.938419
-0.936896
-0.935269
-0.9336
-0.931954
-0.930394
-0.928983
-0.927778
-0.926827
-0.926171
-0.925836
-0.925836
-0.926171
-0.926827
-0.927778
-0.928983
-0.930394
-0.931953
-0.9336
-0.935269
-0.936896
-0.938419
-0.939781
-0.940933
-0.941832
-0.942444
-0.942754
-0.996491
-0.996116
-0.995376
-0.994289
-0.992896
-0.991246
-0.9894
-0.987427
-0.9854
-0.983398
-0.9815
-0.979781
-0.978312
-0.977153
-0.976351
-0.975942
-0.975942
-0.976351
-0.977153
-0.978312
-0.979781
-0.9815
-0.983398
-0.9854
-0.987427
-0.9894
-0.991246
-0.992896
-0.994289
-0.995375
-0.996116
-0.996491
-1.05061
-1.05016
-1.04927
-1.04795
-1.04627
-1.04427
-1.04204
-1.03964
-1.03718
-1.03475
-1.03244
-1.03034
-1.02855
-1.02713
-1.02615
-1.02565
-1.02565
-1.02615
-1.02713
-1.02855
-1.03034
-1.03244
-1.03475
-1.03718
-1.03964
-1.04204
-1.04427
-1.04627
-1.04795
-1.04927
-1.05016
-1.05061
-1.1052
-1.10466
-1.10358
-1.10199
-1.09996
-1.09755
-1.09484
-1.09194
-1.08895
-1.08599
-1.08317
-1.08062
-1.07843
-1.0767
-1.0755
-1.07489
-1.07489
-1.0755
-1.0767
-1.07843
-1.08062
-1.08317
-1.08599
-1.08895
-1.09194
-1.09484
-1.09755
-1.09996
-1.10199
-1.10358
-1.10466
-1.1052
-1.16036
-1.1597
-1.1584
-1.15649
-1.15404
-1.15112
-1.14785
-1.14433
-1.1407
-1.1371
-1.13367
-1.13055
-1.12787
-1.12575
-1.12428
-1.12353
-1.12353
-1.12428
-1.12575
-1.12787
-1.13055
-1.13367
-1.1371
-1.1407
-1.14433
-1.14785
-1.15112
-1.15404
-1.15649
-1.1584
-1.1597
-1.16036
-1.2162
-1.21541
-1.21385
-1.21155
-1.2086
-1.20508
-1.20112
-1.19685
-1.19245
-1.18806
-1.18388
-1.18006
-1.17679
-1.17419
-1.17239
-1.17147
-1.17147
-1.17239
-1.17419
-1.17679
-1.18006
-1.18388
-1.18806
-1.19245
-1.19685
-1.20112
-1.20508
-1.2086
-1.21155
-1.21385
-1.21541
-1.2162
-1.27286
-1.27192
-1.27005
-1.26729
-1.26374
-1.2595
-1.25471
-1.24955
-1.2442
-1.23886
-1.23376
-1.22909
-1.22507
-1.22188
-1.21967
-1.21853
-1.21853
-1.21967
-1.22188
-1.22507
-1.22909
-1.23376
-1.23886
-1.2442
-1.24955
-1.25471
-1.2595
-1.26374
-1.26729
-1.27005
-1.27192
-1.27286
-1.33053
-1.3294
-1.32717
-1.32386
-1.3196
-1.3145
-1.30873
-1.30248
-1.29599
-1.28949
-1.28325
-1.27754
-1.2726
-1.26867
-1.26594
-1.26454
-1.26454
-1.26594
-1.26867
-1.2726
-1.27754
-1.28325
-1.28949
-1.29599
-1.30248
-1.30873
-1.3145
-1.3196
-1.32387
-1.32717
-1.3294
-1.33053
-1.38941
-1.38806
-1.3854
-1.38145
-1.37635
-1.37023
-1.36328
-1.35573
-1.34785
-1.33994
-1.33231
-1.32529
-1.31922
-1.31437
-1.311
-1.30927
-1.30927
-1.311
-1.31437
-1.31922
-1.3253
-1.33231
-1.33994
-1.34785
-1.35573
-1.36328
-1.37023
-1.37635
-1.38146
-1.3854
-1.38806
-1.38941
-1.44974
-1.44815
-1.44498
-1.44029
-1.4342
-1.42687
-1.41852
-1.40941
-1.39985
-1.39021
-1.38087
-1.37225
-1.36475
-1.35876
-1.35457
-1.35242
-1.35242
-1.35457
-1.35876
-1.36475
-1.37225
-1.38087
-1.39021
-1.39985
-1.40941
-1.41852
-1.42687
-1.4342
-1.44029
-1.44498
-1.44815
-1.44974
-1.51182
-1.50994
-1.5062
-1.50064
-1.4934
-1.48466
-1.47465
-1.46368
-1.4521
-1.44034
-1.4289
-1.41828
-1.409
-1.40156
-1.39635
-1.39367
-1.39367
-1.39635
-1.40156
-1.409
-1.41828
-1.4289
-1.44034
-1.4521
-1.46368
-1.47465
-1.48466
-1.4934
-1.50064
-1.5062
-1.50994
-1.51182
-1.576
-1.5738
-1.5694
-1.56286
-1.5543
-1.54391
-1.53195
-1.51876
-1.50474
-1.49041
-1.47637
-1.46325
-1.45174
-1.44246
-1.43595
-1.43259
-1.43259
-1.43595
-1.44246
-1.45174
-1.46326
-1.47637
-1.49041
-1.50474
-1.51876
-1.53196
-1.54391
-1.5543
-1.56286
-1.5694
-1.5738
-1.57601
-1.6427
-1.64013
-1.63501
-1.62735
-1.61729
-1.60502
-1.59079
-1.57496
-1.55803
-1.54056
-1.5233
-1.50707
-1.49273
-1.48111
-1.47292
-1.4687
-1.4687
-1.47292
-1.48111
-1.49273
-1.50707
-1.5233
-1.54056
-1.55803
-1.57497
-1.59079
-1.60502
-1.61729
-1.62735
-1.63501
-1.64013
-1.6427
-1.71238
-1.70942
-1.7035
-1.69462
-1.68289
-1.66849
-1.65164
-1.63275
-1.61231
-1.59103
-1.5698
-1.54965
-1.53171
-1.51708
-1.50675
-1.5014
-1.5014
-1.50675
-1.51708
-1.53171
-1.54965
-1.5698
-1.59104
-1.61231
-1.63275
-1.65165
-1.66849
-1.6829
-1.69462
-1.7035
-1.70943
-1.71238
-1.78561
-1.78224
-1.77547
-1.76529
-1.75175
-1.73498
-1.71519
-1.69274
-1.66817
-1.64228
-1.61612
-1.59102
-1.56846
-1.54996
-1.53683
-1.53003
-1.53003
-1.53683
-1.54996
-1.56847
-1.59102
-1.61612
-1.64228
-1.66817
-1.69274
-1.71519
-1.73498
-1.75175
-1.76529
-1.77548
-1.78224
-1.78561
-1.863
-1.85922
-1.85161
-1.84007
-1.82464
-1.80534
-1.78231
-1.75583
-1.72644
-1.69499
-1.66274
-1.63137
-1.60286
-1.57931
-1.56253
-1.55383
-1.55383
-1.56253
-1.57931
-1.60287
-1.63137
-1.66274
-1.69499
-1.72644
-1.75583
-1.78231
-1.80534
-1.82464
-1.84008
-1.85161
-1.85922
-1.863
-1.94525
-1.94109
-1.93267
-1.91985
-1.90254
-1.88065
-1.85418
-1.82328
-1.78837
-1.75031
-1.71054
-1.67119
-1.63498
-1.60481
-1.58325
-1.57206
-1.57206
-1.58325
-1.60481
-1.63498
-1.6712
-1.71054
-1.75032
-1.78837
-1.82328
-1.85419
-1.88065
-1.90254
-1.91985
-1.93267
-1.94109
-1.94525
-2.03308
-2.02862
-2.01953
-2.0056
-1.9866
-1.96228
-1.93239
-1.89684
-1.85582
-1.81007
-1.76109
-1.7116
-1.66531
-1.62641
-1.59857
-1.58417
-1.58417
-1.59857
-1.62642
-1.66531
-1.7116
-1.76109
-1.81008
-1.85582
-1.89684
-1.93239
-1.96228
-1.9866
-2.0056
-2.01954
-2.02862
-2.03308
-2.12725
-2.12261
-2.11311
-2.09843
-2.07819
-2.05189
-2.01897
-1.97895
-1.93156
-1.8772
-1.81712
-1.75474
-1.69515
-1.6446
-1.60863
-1.59018
-1.59018
-1.60863
-1.6446
-1.69516
-1.75474
-1.81712
-1.8772
-1.93156
-1.97895
-2.01898
-2.05189
-2.07819
-2.09843
-2.11311
-2.12261
-2.12725
-2.22843
-2.22383
-2.21432
-2.1995
-2.17881
-2.15147
-2.11652
-2.07291
-2.01964
-1.95617
-1.88332
-1.80448
-1.72674
-1.66061
-1.61446
-1.59106
-1.59107
-1.61446
-1.66061
-1.72675
-1.80448
-1.88332
-1.95618
-2.01964
-2.07291
-2.11652
-2.15147
-2.17881
-2.1995
-2.21432
-2.22383
-2.22843
-2.33718
-2.33289
-2.32396
-2.30991
-2.29002
-2.26322
-2.22816
-2.1831
-2.12596
-2.05449
-1.96782
-1.8682
-1.76548
-1.67945
-1.61976
-1.58933
-1.58933
-1.61977
-1.67945
-1.76549
-1.8682
-1.96782
-2.0545
-2.12596
-2.1831
-2.22816
-2.26323
-2.29002
-2.30992
-2.32397
-2.33289
-2.33718
-2.45376
-2.45016
-2.44259
-2.43054
-2.41322
-2.3894
-2.35739
-2.31489
-2.25865
-2.18395
-2.08578
-1.96258
-1.82739
-1.71212
-1.63469
-1.59583
-1.59583
-1.63469
-1.71213
-1.8274
-1.96259
-2.08579
-2.18395
-2.25865
-2.31489
-2.35739
-2.38941
-2.41322
-2.43054
-2.44259
-2.45016
-2.45376
-2.57804
-2.57556
-2.57027
-2.56176
-2.54932
-2.53181
-2.50755
-2.47423
-2.4284
-2.36219
-2.25749
-2.10687
-1.95418
-1.80803
-1.7022
-1.65448
-1.65448
-1.70221
-1.80804
-1.95419
-2.10688
-2.2575
-2.3622
-2.4284
-2.47423
-2.50755
-2.53181
-2.54932
-2.56176
-2.57027
-2.57556
-2.57804
-2.7093
-2.7084
-2.70638
-2.70308
-2.69817
-2.69101
-2.68063
-2.66623
-2.64673
-2.60434
-2.48826
-2.33414
-2.14994
-2.00734
-1.90183
-1.8518
-1.85181
-1.90183
-2.00735
-2.14995
-2.33415
-2.48828
-2.60435
-2.64673
-2.66623
-2.68063
-2.69101
-2.69816
-2.70308
-2.70638
-2.7084
-2.7093
-2.84609
-2.84716
-2.84932
-2.85281
-2.85799
-2.86527
-2.87558
-2.89291
-2.91987
-2.91788
-2.81359
-2.68168
-2.48635
-2.32159
-2.22786
-2.18147
-2.18148
-2.22786
-2.3216
-2.48637
-2.6817
-2.8136
-2.91789
-2.91987
-2.89291
-2.87558
-2.86526
-2.85798
-2.85281
-2.84931
-2.84716
-2.84608
-2.98621
-2.9895
-2.99637
-3.00767
-3.02467
-3.04929
-3.08596
-3.14519
-3.22301
-3.25824
-3.29207
-3.17689
-2.9408
-2.74807
-2.63002
-2.57216
-2.57216
-2.63003
-2.74808
-2.94081
-3.17691
-3.29207
-3.25824
-3.22301
-3.14518
-3.08596
-3.04929
-3.02467
-3.00766
-2.99637
-2.9895
-2.9862
-3.127
-3.13246
-3.144
-3.16305
-3.19189
-3.23417
-3.29894
-3.40058
-3.52765
-3.63443
-3.77774
-3.71653
-3.40405
-3.16983
-3.02237
-2.95154
-2.95154
-3.02238
-3.16984
-3.40407
-3.71655
-3.77774
-3.63442
-3.52763
-3.40057
-3.29893
-3.23416
-3.19189
-3.16304
-3.14399
-3.13246
-3.12699
-3.26555
-3.27283
-3.28825
-3.31366
-3.35207
-3.40874
-3.49512
-3.62371
-3.78642
-3.98779
-4.14792
-4.11213
-3.7924
-3.53688
-3.37432
-3.29682
-3.29682
-3.37433
-3.53689
-3.79242
-4.11214
-4.1479
-3.98776
-3.7864
-3.62369
-3.49511
-3.40873
-3.35206
-3.31366
-3.28825
-3.27283
-3.26554
-3.39912
-3.40759
-3.42548
-3.45471
-3.49845
-3.56232
-3.65635
-3.78781
-3.95121
-4.1545
-4.25748
-4.28814
-4.05917
-3.82441
-3.6611
-3.58256
-3.58256
-3.6611
-3.82441
-4.05918
-4.28813
-4.25746
-4.15447
-3.95119
-3.78779
-3.65633
-3.5623
-3.49844
-3.4547
-3.42547
-3.40759
-3.39911
-3.52565
-3.53454
-3.55318
-3.58319
-3.6272
-3.68927
-3.77598
-3.89037
-4.02713
-4.1734
-4.25185
-4.26455
-4.2067
-4.00605
-3.86067
-3.7843
-3.7843
-3.86067
-4.00605
-4.20669
-4.26453
-4.25182
-4.17337
-4.0271
-3.89035
-3.77596
-3.68926
-3.62719
-3.58318
-3.55317
-3.53453
-3.52564
-3.64403
-3.65263
-3.67046
-3.69861
-3.73861
-3.79268
-3.86309
-3.94923
-4.04934
-4.1398
-4.1973
-4.18975
-4.26063
-4.09226
-3.97438
-3.91291
-3.91291
-3.97437
-4.09226
-4.26061
-4.18973
-4.19727
-4.13977
-4.04931
-3.94921
-3.86307
-3.79266
-3.73859
-3.6986
-3.67045
-3.65262
-3.64402
-3.75414
-3.76194
-3.77791
-3.80255
-3.83631
-3.87979
-3.93265
-3.99295
-4.0563
-4.11197
-4.14643
-4.15509
-4.23252
-4.11897
-4.03825
-3.99976
-3.99976
-4.03825
-4.11897
-4.2325
-4.15507
-4.14641
-4.11194
-4.05628
-3.99294
-3.93263
-3.87978
-3.8363
-3.80254
-3.7779
-3.76193
-3.75413
-3.85659
-3.86334
-3.87701
-3.89759
-3.92476
-3.95781
-3.99509
-4.03429
-4.07125
-4.10388
-4.12506
-4.1325
-4.19397
-4.1257
-4.07817
-4.05801
-4.05801
-4.07816
-4.1257
-4.19396
-4.13248
-4.12504
-4.10385
-4.07123
-4.03428
-3.99507
-3.9578
-3.92475
-3.89758
-3.877
-3.86333
-3.85658
-3.95234
-3.95806
-3.96947
-3.98629
-4.0077
-4.0322
-4.05754
-4.0807
-4.09873
-4.11289
-4.1206
-4.09974
-4.14824
-4.13041
-4.1068
-4.09678
-4.09678
-4.10679
-4.1304
-4.14823
-4.09973
-4.12059
-4.11289
-4.09872
-4.08068
-4.05753
-4.03219
-4.00769
-3.98628
-3.96946
-3.95805
-3.95233
-4.04246
-4.0473
-4.05686
-4.07073
-4.08786
-4.1064
-4.1238
-4.13686
-4.14266
-4.14615
-4.1278
-4.13346
-4.15408
-4.15704
-4.14301
-4.13594
-4.13594
-4.14301
-4.15704
-4.15407
-4.13344
-4.12779
-4.14614
-4.14265
-4.13685
-4.12379
-4.10639
-4.08785
-4.07072
-4.05686
-4.04729
-4.04245
-4.1278
-4.13205
-4.14039
-4.15233
-4.16692
-4.18252
-4.19656
-4.20611
-4.20711
-4.21832
-4.14782
-4.23805
-4.20907
-4.20175
-4.18952
-4.18226
-4.18226
-4.18952
-4.20175
-4.20906
-4.23804
-4.14782
-4.21831
-4.2071
-4.2061
-4.19655
-4.18251
-4.16691
-4.15232
-4.14038
-4.13204
-4.12779
-4.20895
-4.21288
-4.22063
-4.2318
-4.24558
-4.26084
-4.27589
-4.28861
-4.29548
-4.32025
-4.23161
-4.30789
-4.27205
-4.25358
-4.2409
-4.23347
-4.23347
-4.2409
-4.25357
-4.27205
-4.30788
-4.23161
-4.32025
-4.29547
-4.2886
-4.27588
-4.26083
-4.24558
-4.23179
-4.22063
-4.21287
-4.20894
-4.2862
-4.29003
-4.29767
-4.30889
-4.32321
-4.34001
-4.35857
-4.37743
-4.39328
-4.42186
-4.3343
-4.35565
-4.339
-4.31383
-4.29647
-4.2877
-4.2877
-4.29647
-4.31383
-4.339
-4.35565
-4.33429
-4.42185
-4.39327
-4.37742
-4.35856
-4.34
-4.3232
-4.30889
-4.29766
-4.29002
-4.28619
-4.35962
-4.36348
-4.3713
-4.38302
-4.39843
-4.41735
-4.43956
-4.46433
-4.48934
-4.51818
-4.50777
-4.44375
-4.41205
-4.37725
-4.35237
-4.3408
-4.3408
-4.35237
-4.37725
-4.41205
-4.44374
-4.50776
-4.51818
-4.48934
-4.46433
-4.43955
-4.41735
-4.39843
-4.38301
-4.37129
-4.36347
-4.35961
-4.42911
-4.43308
-4.44117
-4.45344
-4.46991
-4.49065
-4.51557
-4.54413
-4.57322
-4.60028
-4.6363
-4.53844
-4.48291
-4.43623
-4.40432
-4.38992
-4.38992
-4.40432
-4.43623
-4.4829
-4.53843
-4.6363
-4.60027
-4.57321
-4.54412
-4.51557
-4.49065
-4.46991
-4.45343
-4.44117
-4.43307
-4.4291
-4.4946
-4.49865
-4.50692
-4.51953
-4.53672
-4.55871
-4.58551
-4.6161
-4.64633
-4.67515
-4.6974
-4.60781
-4.53934
-4.48667
-4.45045
-4.43372
-4.43372
-4.45045
-4.48667
-4.53934
-4.6078
-4.6974
-4.67514
-4.64633
-4.6161
-4.58551
-4.55871
-4.53672
-4.51952
-4.50691
-4.49864
-4.49459
-4.55598
-4.56003
-4.56823
-4.58087
-4.59824
-4.62066
-4.64817
-4.67949
-4.71015
-4.73878
-4.73341
-4.65569
-4.58411
-4.52749
-4.48892
-4.47061
-4.47061
-4.48892
-4.52748
-4.58411
-4.65569
-4.73341
-4.73877
-4.71014
-4.67948
-4.64817
-4.62065
-4.59823
-4.58086
-4.56822
-4.56003
-4.55598
-4.61323
-4.6171
-4.62502
-4.63725
-4.65405
-4.67566
-4.7019
-4.73092
-4.75797
-4.78438
-4.78588
-4.70787
-4.62442
-4.56136
-4.51998
-4.50042
-4.50042
-4.51998
-4.56136
-4.62441
-4.70786
-4.78588
-4.78437
-4.75797
-4.73091
-4.7019
-4.67566
-4.65405
-4.63725
-4.62502
-4.6171
-4.61322
-4.66644
-4.67005
-4.67744
-4.6888
-4.70426
-4.72379
-4.74673
-4.7705
-4.78963
-4.79994
-4.81404
-4.74553
-4.65576
-4.58827
-4.54447
-4.52373
-4.52373
-4.54447
-4.58827
-4.65576
-4.74552
-4.81403
-4.79993
-4.78963
-4.7705
-4.74673
-4.72379
-4.70425
-4.68879
-4.67744
-4.67005
-4.66643
-4.71596
-4.71924
-4.72591
-4.73607
-4.74971
-4.76654
-4.78554
-4.80413
-4.8174
-4.82083
-4.8309
-4.77378
-4.67892
-4.60842
-4.56324
-4.54157
-4.54157
-4.56324
-4.60842
-4.67891
-4.77378
-4.8309
-4.82083
-4.8174
-4.80413
-4.78554
-4.76654
-4.74971
-4.73607
-4.7259
-4.71923
-4.71596
-4.76227
-4.76516
-4.77105
-4.77993
-4.79171
-4.80596
-4.82163
-4.83664
-4.84769
-4.8525
-4.85539
-4.80351
-4.69893
-4.62456
-4.57812
-4.55563
-4.55562
-4.57812
-4.62456
-4.69892
-4.8035
-4.85538
-4.8525
-4.84769
-4.83664
-4.82163
-4.80596
-4.79171
-4.77993
-4.77104
-4.76516
-4.76226
-4.80587
-4.8084
-4.81353
-4.82124
-4.83136
-4.84347
-4.85664
-4.86911
-4.87843
-4.88209
-4.87902
-4.83006
-4.71614
-4.63834
-4.59093
-4.56784
-4.56784
-4.59093
-4.63834
-4.71613
-4.83006
-4.87902
-4.88208
-4.87843
-4.86911
-4.85663
-4.84347
-4.83136
-4.82123
-4.81353
-4.8084
-4.80587
-4.8473
-4.8495
-4.85397
-4.86066
-4.86942
-4.87983
-4.89107
-4.9017
-4.90974
-4.91246
-4.90462
-4.85051
-4.7295
-4.6507
-4.60361
-4.58055
-4.58055
-4.60361
-4.65069
-4.72949
-4.8505
-4.90462
-4.91246
-4.90974
-4.9017
-4.89107
-4.87983
-4.86942
-4.86066
-4.85397
-4.8495
-4.8473
-4.88703
-4.88896
-4.89286
-4.8987
-4.90632
-4.91533
-4.92497
-4.9341
-4.94162
-4.94511
-4.94046
-4.8638
-4.74102
-4.66449
-4.61907
-4.59683
-4.59683
-4.61907
-4.66449
-4.74102
-4.8638
-4.94046
-4.94511
-4.94162
-4.9341
-4.92497
-4.91533
-4.90632
-4.8987
-4.89286
-4.88896
-4.88703
-4.92553
-4.92723
-4.93065
-4.93576
-4.94238
-4.95008
-4.95803
-4.96511
-4.97054
-4.97402
-4.9805
-4.87407
-4.75433
-4.6834
-4.64116
-4.62054
-4.62054
-4.64116
-4.6834
-4.75432
-4.87406
-4.9805
-4.97402
-4.97054
-4.96511
-4.95803
-4.95007
-4.94238
-4.93576
-4.93065
-4.92722
-4.92552
-4.96322
-4.96473
-4.96777
-4.97226
-4.97798
-4.9844
-4.99055
-4.9949
-4.99497
-4.98457
-5.00646
-4.88485
-4.77439
-4.71161
-4.67416
-4.65593
-4.65593
-4.67416
-4.71161
-4.77439
-4.88485
-5.00646
-4.98456
-4.99496
-4.9949
-4.99054
-4.9844
-4.97798
-4.97226
-4.96777
-4.96473
-4.96321
-5.00053
-5.00191
-5.00465
-5.00866
-5.01365
-5.01903
-5.0237
-5.02606
-5.02242
-4.99853
-5.01216
-4.89817
-4.80586
-4.75356
-4.7222
-4.70709
-4.70709
-4.7222
-4.75356
-4.80586
-4.89817
-5.01215
-4.99853
-5.02242
-5.02606
-5.0237
-5.01902
-5.01365
-5.00866
-5.00465
-5.00191
-5.00053
-5.03791
-5.0392
-5.04175
-5.04542
-5.04988
-5.05449
-5.05815
-5.05952
-5.05647
-5.04796
-5.02222
-4.92341
-4.85408
-4.814
-4.78981
-4.77831
-4.77831
-4.78981
-4.814
-4.85408
-4.92341
-5.02221
-5.04796
-5.05647
-5.05952
-5.05815
-5.05449
-5.04988
-5.04541
-5.04175
-5.0392
-5.03791
-5.07578
-5.07704
-5.07949
-5.08294
-5.087
-5.09099
-5.09364
-5.09263
-5.08279
-5.1132
-5.05069
-4.97156
-4.9249
-4.89771
-4.88137
-4.8737
-4.8737
-4.88137
-4.89771
-4.9249
-4.97156
-5.05069
-5.1132
-5.08279
-5.09262
-5.09364
-5.09099
-5.087
-5.08294
-5.07949
-5.07704
-5.07578
-5.11459
-5.11587
-5.1183
-5.12165
-5.12546
-5.12904
-5.13104
-5.12963
-5.13317
-5.16182
-5.10028
-5.04936
-5.02343
-5.0087
-5.00017
-4.99628
-4.99628
-5.00017
-5.0087
-5.02343
-5.04936
-5.10028
-5.16182
-5.13317
-5.12963
-5.13104
-5.12904
-5.12546
-5.12165
-5.1183
-5.11587
-5.11459
-5.15482
-5.15614
-5.15864
-5.16202
-5.16565
-5.16891
-5.16934
-5.17045
-5.20842
-5.21337
-5.18019
-5.16059
-5.15295
-5.14962
-5.1482
-5.14769
-5.14769
-5.1482
-5.14962
-5.15295
-5.16059
-5.18019
-5.21337
-5.20843
-5.17046
-5.16935
-5.16891
-5.16565
-5.16201
-5.15864
-5.15614
-5.15482
-5.19696
-5.19837
-5.20104
-5.20475
-5.20842
-5.21202
-5.21164
-5.23683
-5.29266
-5.30236
-5.30299
-5.3084
-5.31543
-5.32158
-5.32601
-5.32829
-5.32829
-5.32601
-5.32158
-5.31543
-5.3084
-5.30299
-5.30236
-5.29266
-5.23683
-5.21165
-5.21203
-5.20842
-5.20475
-5.20104
-5.19837
-5.19696
-5.24178
-5.24319
-5.24621
-5.25115
-5.25414
-5.26019
-5.30504
-5.37063
-5.41933
-5.44779
-5.47213
-5.49364
-5.51104
-5.52411
-5.5328
-5.53713
-5.53713
-5.5328
-5.52411
-5.51104
-5.49364
-5.47213
-5.44779
-5.41934
-5.37064
-5.30504
-5.26019
-5.25414
-5.25115
-5.24621
-5.24319
-5.24178
-5.28966
-5.29089
-5.29328
-5.30059
-5.33357
-5.39612
-5.46714
-5.54337
-5.60078
-5.6462
-5.68382
-5.7142
-5.73784
-5.7552
-5.7666
-5.77223
-5.77223
-5.7666
-5.7552
-5.73784
-5.7142
-5.68382
-5.64621
-5.60078
-5.54337
-5.46714
-5.39611
-5.33357
-5.30059
-5.29328
-5.29089
-5.28966
-5.39816
-5.409
-5.43609
-5.4785
-5.53603
-5.61462
-5.69966
-5.77511
-5.83786
-5.88958
-5.93192
-5.96598
-5.99247
-6.01189
-6.02463
-6.03093
-6.03093
-6.02463
-6.01189
-5.99247
-5.96598
-5.93192
-5.88958
-5.83786
-5.77511
-5.69966
-5.61462
-5.53603
-5.4785
-5.43609
-5.409
-5.39815
-5.67427
-5.69248
-5.72829
-5.7793
-5.84346
-5.91565
-5.98981
-6.05758
-6.11698
-6.16756
-6.20972
-6.24402
-6.27089
-6.2907
-6.30374
-6.3102
-6.3102
-6.30374
-6.2907
-6.27089
-6.24402
-6.20972
-6.16756
-6.11698
-6.05758
-5.98981
-5.91565
-5.84346
-5.77929
-5.72828
-5.69248
-5.67427
-6.05894
-6.07344
-6.10179
-6.14268
-6.19481
-6.25418
-6.31483
-6.37268
-6.42539
-6.47161
-6.51094
-6.54338
-6.56906
-6.58813
-6.60074
-6.607
-6.607
-6.60074
-6.58813
-6.56906
-6.54338
-6.51094
-6.47161
-6.42539
-6.37268
-6.31483
-6.25418
-6.19481
-6.14268
-6.10179
-6.07344
-6.05894
-6.45331
-6.46505
-6.4881
-6.5215
-6.56344
-6.61078
-6.66025
-6.70883
-6.7542
-6.7949
-6.83017
-6.85966
-6.88325
-6.9009
-6.91263
-6.91848
-6.91848
-6.91263
-6.9009
-6.88325
-6.85966
-6.83017
-6.7949
-6.7542
-6.70883
-6.66025
-6.61078
-6.56344
-6.52149
-6.4881
-6.46505
-6.45331
-6.85116
-6.86068
-6.87934
-6.90622
-6.93978
-6.97796
-7.01841
-7.05872
-7.09714
-7.13221
-7.16305
-7.18916
-7.21024
-7.22612
-7.23674
-7.24204
-7.24204
-7.23674
-7.22612
-7.21024
-7.18916
-7.16305
-7.13221
-7.09714
-7.05872
-7.01841
-6.97796
-6.93978
-6.90622
-6.87934
-6.86068
-6.85115
-7.2491
-7.25678
-7.2718
-7.29343
-7.32048
-7.35141
-7.38445
-7.41787
-7.44993
-7.47968
-7.5062
-7.52889
-7.54736
-7.56137
-7.57078
-7.57549
-7.57549
-7.57078
-7.56137
-7.54736
-7.52889
-7.5062
-7.47968
-7.44993
-7.41786
-7.38445
-7.35141
-7.32048
-7.29343
-7.2718
-7.25678
-7.2491
-7.64559
-7.65179
-7.66389
-7.68134
-7.70319
-7.72827
-7.75523
-7.78272
-7.80945
-7.83449
-7.85704
-7.8765
-7.89246
-7.90463
-7.91284
-7.91696
-7.91696
-7.91284
-7.90463
-7.89246
-7.8765
-7.85704
-7.83449
-7.80945
-7.78272
-7.75523
-7.72827
-7.70319
-7.68134
-7.66389
-7.65178
-7.64559
-8.03995
-8.04496
-8.05474
-8.06883
-8.08652
-8.10688
-8.12889
-8.1515
-8.17368
-8.19463
-8.21364
-8.23017
-8.24382
-8.25428
-8.26135
-8.26491
-8.26491
-8.26135
-8.25428
-8.24382
-8.23017
-8.21364
-8.19463
-8.17368
-8.1515
-8.12889
-8.10688
-8.08652
-8.06883
-8.05473
-8.04496
-8.03995
-8.43198
-8.43603
-8.44394
-8.45536
-8.4697
-8.48626
-8.50424
-8.52282
-8.54117
-8.55862
-8.57457
-8.58852
-8.60009
-8.609
-8.61504
-8.61809
-8.61809
-8.61504
-8.609
-8.60009
-8.58852
-8.57457
-8.55862
-8.54117
-8.52282
-8.50424
-8.48626
-8.4697
-8.45535
-8.44394
-8.43603
-8.43198
-8.82173
-8.82502
-8.83143
-8.84068
-8.85233
-8.86583
-8.88053
-8.89579
-8.91095
-8.92545
-8.93877
-8.95048
-8.96023
-8.96777
-8.97289
-8.97548
-8.97548
-8.97289
-8.96777
-8.96023
-8.95048
-8.93877
-8.92545
-8.91095
-8.89579
-8.88053
-8.86582
-8.85233
-8.84068
-8.83143
-8.82502
-8.82173
-9.20938
-9.21205
-9.21725
-9.22477
-9.23425
-9.24526
-9.25729
-9.26983
-9.28234
-9.29436
-9.30545
-9.31524
-9.32342
-9.32976
-9.33408
-9.33627
-9.33627
-9.33408
-9.32976
-9.32342
-9.31524
-9.30545
-9.29436
-9.28234
-9.26983
-9.25729
-9.24526
-9.23425
-9.22477
-9.21725
-9.21204
-9.20938
-9.59515
-9.59732
-9.60155
-9.60767
-9.6154
-9.62439
-9.63424
-9.64455
-9.65487
-9.66481
-9.67402
-9.68218
-9.68902
-9.69434
-9.69796
-9.6998
-9.6998
-9.69796
-9.69434
-9.68902
-9.68218
-9.67402
-9.66481
-9.65487
-9.64454
-9.63424
-9.62439
-9.6154
-9.60767
-9.60155
-9.59732
-9.59515
-9.97928
-9.98105
-9.9845
-9.98949
-9.9958
-10.0031
-10.0112
-10.0197
-10.0282
-10.0364
-10.0441
-10.0508
-10.0565
-10.061
-10.064
-10.0656
-10.0656
-10.064
-10.061
-10.0565
-10.0508
-10.0441
-10.0364
-10.0282
-10.0197
-10.0112
-10.0031
-9.9958
-9.98949
-9.9845
-9.98105
-9.97928
-10.362
-10.3634
-10.3663
-10.3703
-10.3755
-10.3815
-10.3881
-10.3951
-10.4021
-10.4089
-10.4152
-10.4208
-10.4256
-10.4293
-10.4318
-10.4331
-10.4331
-10.4318
-10.4293
-10.4256
-10.4208
-10.4152
-10.4089
-10.4021
-10.3951
-10.3881
-10.3815
-10.3755
-10.3703
-10.3663
-10.3634
-10.362
-10.7435
-10.7447
-10.747
-10.7503
-10.7546
-10.7595
-10.7649
-10.7706
-10.7764
-10.782
-10.7873
-10.7919
-10.7959
-10.7989
-10.801
-10.8021
-10.8021
-10.801
-10.7989
-10.7959
-10.7919
-10.7873
-10.782
-10.7764
-10.7706
-10.7649
-10.7595
-10.7546
-10.7503
-10.747
-10.7447
-10.7435
-11.1241
-11.125
-11.1269
-11.1296
-11.1331
-11.1371
-11.1416
-11.1463
-11.151
-11.1557
-11.16
-11.1639
-11.1671
-11.1697
-11.1714
-11.1723
-11.1723
-11.1714
-11.1697
-11.1671
-11.1639
-11.16
-11.1557
-11.151
-11.1463
-11.1416
-11.1371
-11.1331
-11.1296
-11.1269
-11.125
-11.1241
-11.5037
-11.5045
-11.5061
-11.5083
-11.5111
-11.5144
-11.5181
-11.522
-11.5259
-11.5297
-11.5333
-11.5365
-11.5392
-11.5413
-11.5427
-11.5435
-11.5435
-11.5427
-11.5413
-11.5392
-11.5365
-11.5333
-11.5297
-11.5259
-11.522
-11.5181
-11.5144
-11.5111
-11.5083
-11.5061
-11.5045
-11.5037
-11.8827
-11.8833
-11.8846
-11.8864
-11.8887
-11.8915
-11.8945
-11.8977
-11.9009
-11.904
-11.907
-11.9096
-11.9119
-11.9136
-11.9148
-11.9154
-11.9154
-11.9148
-11.9136
-11.9119
-11.9096
-11.907
-11.904
-11.9009
-11.8977
-11.8945
-11.8915
-11.8887
-11.8864
-11.8846
-11.8833
-11.8827
-12.2611
-12.2616
-12.2626
-12.2641
-12.266
-12.2683
-12.2707
-12.2734
-12.276
-12.2786
-12.281
-12.2832
-12.2851
-12.2865
-12.2875
-12.288
-12.288
-12.2875
-12.2865
-12.2851
-12.2832
-12.281
-12.2786
-12.276
-12.2734
-12.2707
-12.2683
-12.266
-12.2641
-12.2626
-12.2616
-12.2611
-12.6389
-12.6394
-12.6402
-12.6415
-12.643
-12.6449
-12.6469
-12.649
-12.6512
-12.6534
-12.6554
-12.6572
-12.6587
-12.6599
-12.6607
-12.6611
-12.6611
-12.6607
-12.6599
-12.6587
-12.6572
-12.6554
-12.6534
-12.6512
-12.649
-12.6469
-12.6449
-12.643
-12.6415
-12.6402
-12.6394
-12.6389
-13.0164
-13.0168
-13.0175
-13.0185
-13.0198
-13.0213
-13.023
-13.0247
-13.0265
-13.0283
-13.0299
-13.0314
-13.0327
-13.0337
-13.0344
-13.0347
-13.0347
-13.0344
-13.0337
-13.0327
-13.0314
-13.0299
-13.0283
-13.0265
-13.0247
-13.023
-13.0213
-13.0198
-13.0185
-13.0175
-13.0168
-13.0164
-13.3935
-13.3938
-13.3944
-13.3952
-13.3963
-13.3975
-13.3989
-13.4004
-13.4019
-13.4033
-13.4047
-13.4059
-13.4069
-13.4078
-13.4083
-13.4086
-13.4086
-13.4083
-13.4078
-13.4069
-13.4059
-13.4047
-13.4033
-13.4019
-13.4004
-13.3989
-13.3975
-13.3963
-13.3952
-13.3944
-13.3938
-13.3935
-13.7704
-13.7706
-13.7711
-13.7718
-13.7727
-13.7737
-13.7748
-13.776
-13.7772
-13.7784
-13.7796
-13.7806
-13.7814
-13.7821
-13.7826
-13.7828
-13.7828
-13.7826
-13.7821
-13.7814
-13.7806
-13.7796
-13.7784
-13.7772
-13.776
-13.7748
-13.7737
-13.7727
-13.7718
-13.7711
-13.7706
-13.7704
-14.147
-14.1472
-14.1476
-14.1482
-14.1489
-14.1497
-14.1507
-14.1517
-14.1527
-14.1536
-14.1546
-14.1554
-14.1561
-14.1567
-14.157
-14.1572
-14.1572
-14.157
-14.1567
-14.1561
-14.1554
-14.1546
-14.1536
-14.1527
-14.1517
-14.1507