/*--------------------------------*- C++ -*----------------------------------*\
  =========                 |
  \\      /  F ield         | OpenFOAM: The Open Source CFD Toolbox
   \\    /   O peration     | Website:  https://openfoam.org
    \\  /    A nd           | Version:  9
     \\/     M anipulation  |
\*---------------------------------------------------------------------------*/
FoamFile
{
    format      ascii;
    class       volScalarField;
    location    "0.65";
    object      p_rgh;
}
// * * * * * * * * * * * * * * * * * * * * * * * * * * * * * * * * * * * * * //

dimensions      [1 -1 -2 0 0 0 0];

internalField   nonuniform List<scalar> 
4096
(
-3.29768
-3.29766
-3.29763
-3.29758
-3.29751
-3.29744
-3.29735
-3.29726
-3.29717
-3.29708
-3.29699
-3.29692
-3.29685
-3.2968
-3.29676
-3.29675
-3.29675
-3.29676
-3.2968
-3.29685
-3.29691
-3.29699
-3.29708
-3.29717
-3.29726
-3.29735
-3.29743
-3.29751
-3.29758
-3.29763
-3.29766
-3.29768
-3.2977
-3.29768
-3.29764
-3.29759
-3.29752
-3.29744
-3.29736
-3.29726
-3.29717
-3.29707
-3.29698
-3.2969
-3.29684
-3.29678
-3.29675
-3.29673
-3.29673
-3.29675
-3.29678
-3.29684
-3.2969
-3.29698
-3.29707
-3.29717
-3.29726
-3.29735
-3.29744
-3.29752
-3.29759
-3.29764
-3.29768
-3.2977
-3.29773
-3.29771
-3.29767
-3.29762
-3.29755
-3.29746
-3.29737
-3.29727
-3.29716
-3.29706
-3.29697
-3.29688
-3.29681
-3.29675
-3.29671
-3.29669
-3.29669
-3.29671
-3.29675
-3.29681
-3.29688
-3.29697
-3.29706
-3.29716
-3.29726
-3.29737
-3.29746
-3.29754
-3.29762
-3.29767
-3.29771
-3.29773
-3.29779
-3.29777
-3.29772
-3.29766
-3.29758
-3.29749
-3.29738
-3.29727
-3.29716
-3.29705
-3.29694
-3.29685
-3.29677
-3.2967
-3.29666
-3.29664
-3.29664
-3.29666
-3.2967
-3.29677
-3.29685
-3.29694
-3.29705
-3.29716
-3.29727
-3.29738
-3.29749
-3.29758
-3.29766
-3.29772
-3.29776
-3.29779
-3.29786
-3.29784
-3.29779
-3.29772
-3.29763
-3.29752
-3.29741
-3.29728
-3.29715
-3.29702
-3.29691
-3.2968
-3.29671
-3.29663
-3.29659
-3.29656
-3.29656
-3.29659
-3.29663
-3.29671
-3.2968
-3.2969
-3.29702
-3.29715
-3.29728
-3.2974
-3.29752
-3.29763
-3.29772
-3.29779
-3.29784
-3.29786
-3.29797
-3.29794
-3.29788
-3.2978
-3.2977
-3.29757
-3.29744
-3.29729
-3.29714
-3.29699
-3.29686
-3.29673
-3.29663
-3.29654
-3.29649
-3.29646
-3.29646
-3.29649
-3.29654
-3.29663
-3.29673
-3.29686
-3.29699
-3.29714
-3.29729
-3.29743
-3.29757
-3.29769
-3.2978
-3.29788
-3.29794
-3.29796
-3.2981
-3.29806
-3.298
-3.2979
-3.29778
-3.29763
-3.29747
-3.2973
-3.29713
-3.29696
-3.2968
-3.29665
-3.29653
-3.29643
-3.29636
-3.29633
-3.29633
-3.29636
-3.29643
-3.29653
-3.29665
-3.2968
-3.29696
-3.29713
-3.2973
-3.29747
-3.29763
-3.29778
-3.2979
-3.298
-3.29806
-3.29809
-3.29826
-3.29822
-3.29814
-3.29803
-3.29788
-3.29771
-3.29752
-3.29732
-3.29711
-3.29691
-3.29672
-3.29655
-3.2964
-3.29628
-3.2962
-3.29616
-3.29616
-3.2962
-3.29628
-3.2964
-3.29655
-3.29672
-3.29691
-3.29711
-3.29732
-3.29752
-3.29771
-3.29788
-3.29803
-3.29814
-3.29822
-3.29826
-3.29846
-3.29842
-3.29832
-3.29819
-3.29801
-3.29781
-3.29758
-3.29734
-3.29709
-3.29685
-3.29662
-3.29642
-3.29624
-3.2961
-3.29601
-3.29596
-3.29596
-3.29601
-3.2961
-3.29624
-3.29642
-3.29662
-3.29685
-3.29709
-3.29734
-3.29758
-3.29781
-3.29801
-3.29819
-3.29832
-3.29842
-3.29846
-3.29871
-3.29866
-3.29855
-3.29838
-3.29818
-3.29793
-3.29766
-3.29737
-3.29707
-3.29678
-3.2965
-3.29626
-3.29605
-3.29588
-3.29577
-3.29571
-3.29571
-3.29577
-3.29588
-3.29605
-3.29626
-3.2965
-3.29678
-3.29707
-3.29737
-3.29766
-3.29793
-3.29818
-3.29838
-3.29855
-3.29866
-3.29871
-3.29902
-3.29895
-3.29882
-3.29862
-3.29837
-3.29808
-3.29775
-3.2974
-3.29704
-3.29669
-3.29636
-3.29606
-3.29581
-3.29561
-3.29547
-3.2954
-3.2954
-3.29547
-3.29561
-3.29581
-3.29606
-3.29636
-3.29669
-3.29704
-3.2974
-3.29775
-3.29808
-3.29837
-3.29862
-3.29882
-3.29895
-3.29902
-3.2994
-3.29932
-3.29916
-3.29892
-3.29862
-3.29826
-3.29786
-3.29744
-3.29701
-3.29658
-3.29618
-3.29582
-3.29551
-3.29527
-3.29511
-3.29502
-3.29502
-3.29511
-3.29527
-3.29551
-3.29582
-3.29618
-3.29658
-3.29701
-3.29744
-3.29786
-3.29826
-3.29862
-3.29892
-3.29915
-3.29932
-3.2994
-3.29986
-3.29976
-3.29956
-3.29928
-3.29891
-3.29848
-3.298
-3.29749
-3.29697
-3.29645
-3.29597
-3.29553
-3.29516
-3.29486
-3.29466
-3.29456
-3.29456
-3.29466
-3.29486
-3.29516
-3.29553
-3.29597
-3.29645
-3.29697
-3.29749
-3.298
-3.29848
-3.29891
-3.29928
-3.29956
-3.29976
-3.29986
-3.30042
-3.3003
-3.30006
-3.29972
-3.29927
-3.29875
-3.29817
-3.29755
-3.29692
-3.29629
-3.29571
-3.29517
-3.29472
-3.29437
-3.29412
-3.294
-3.294
-3.29412
-3.29437
-3.29472
-3.29517
-3.29571
-3.29629
-3.29692
-3.29755
-3.29817
-3.29875
-3.29927
-3.29972
-3.30006
-3.3003
-3.30042
-3.3011
-3.30096
-3.30067
-3.30025
-3.29972
-3.29908
-3.29838
-3.29763
-3.29686
-3.2961
-3.29539
-3.29474
-3.29419
-3.29376
-3.29346
-3.29331
-3.29331
-3.29346
-3.29376
-3.29419
-3.29474
-3.29539
-3.2961
-3.29686
-3.29763
-3.29838
-3.29908
-3.29972
-3.30025
-3.30067
-3.30095
-3.3011
-3.30193
-3.30175
-3.30141
-3.3009
-3.30025
-3.29949
-3.29863
-3.29772
-3.29679
-3.29587
-3.295
-3.29422
-3.29355
-3.29302
-3.29266
-3.29248
-3.29248
-3.29266
-3.29302
-3.29355
-3.29422
-3.295
-3.29587
-3.29679
-3.29772
-3.29863
-3.29949
-3.30025
-3.3009
-3.30141
-3.30175
-3.30193
-3.30294
-3.30272
-3.30231
-3.30169
-3.30091
-3.29998
-3.29894
-3.29784
-3.2967
-3.29559
-3.29453
-3.29358
-3.29277
-3.29213
-3.29169
-3.29146
-3.29146
-3.29169
-3.29213
-3.29277
-3.29358
-3.29453
-3.29559
-3.2967
-3.29784
-3.29894
-3.29998
-3.30091
-3.30169
-3.30231
-3.30272
-3.30294
-3.30416
-3.3039
-3.3034
-3.30265
-3.3017
-3.30058
-3.29932
-3.29798
-3.29661
-3.29525
-3.29397
-3.29281
-3.29182
-3.29104
-3.2905
-3.29023
-3.29023
-3.2905
-3.29104
-3.29182
-3.29281
-3.29397
-3.29525
-3.29661
-3.29798
-3.29932
-3.30058
-3.3017
-3.30265
-3.3034
-3.3039
-3.30416
-3.30565
-3.30534
-3.30472
-3.30382
-3.30267
-3.30131
-3.29979
-3.29816
-3.29649
-3.29485
-3.29329
-3.29187
-3.29067
-3.28972
-3.28906
-3.28873
-3.28873
-3.28906
-3.28972
-3.29067
-3.29187
-3.29329
-3.29485
-3.29649
-3.29816
-3.29979
-3.30131
-3.30267
-3.30382
-3.30472
-3.30534
-3.30565
-3.30745
-3.30708
-3.30634
-3.30525
-3.30386
-3.30221
-3.30036
-3.29839
-3.29636
-3.29436
-3.29246
-3.29074
-3.28927
-3.28811
-3.28731
-3.2869
-3.2869
-3.28731
-3.28811
-3.28927
-3.29074
-3.29246
-3.29436
-3.29636
-3.29839
-3.30036
-3.30221
-3.30386
-3.30525
-3.30634
-3.30708
-3.30745
-3.30964
-3.30919
-3.30829
-3.30698
-3.3053
-3.3033
-3.30107
-3.29867
-3.29621
-3.29378
-3.29147
-3.28937
-3.28758
-3.28616
-3.28518
-3.28468
-3.28468
-3.28518
-3.28616
-3.28758
-3.28937
-3.29147
-3.29378
-3.29621
-3.29867
-3.30107
-3.3033
-3.3053
-3.30698
-3.30829
-3.30919
-3.30964
-3.3123
-3.31175
-3.31068
-3.30909
-3.30706
-3.30464
-3.30194
-3.29903
-3.29604
-3.29308
-3.29027
-3.28771
-3.28552
-3.28379
-3.28259
-3.28198
-3.28198
-3.28259
-3.28379
-3.28552
-3.28771
-3.29027
-3.29308
-3.29604
-3.29903
-3.30194
-3.30464
-3.30706
-3.30909
-3.31068
-3.31175
-3.3123
-3.31552
-3.31486
-3.31357
-3.31166
-3.3092
-3.30629
-3.30301
-3.29949
-3.29586
-3.29226
-3.28883
-3.28571
-3.28303
-3.28091
-3.27945
-3.2787
-3.2787
-3.27945
-3.28091
-3.28303
-3.28571
-3.28883
-3.29226
-3.29586
-3.29949
-3.30301
-3.30629
-3.3092
-3.31166
-3.31357
-3.31486
-3.31552
-3.31943
-3.31864
-3.31708
-3.31479
-3.31183
-3.30831
-3.30435
-3.30009
-3.29568
-3.2913
-3.28711
-3.2833
-3.28002
-3.27742
-3.27562
-3.2747
-3.2747
-3.27562
-3.27742
-3.28002
-3.2833
-3.28711
-3.2913
-3.29568
-3.30009
-3.30435
-3.30831
-3.31183
-3.31479
-3.31708
-3.31864
-3.31943
-3.32417
-3.32322
-3.32135
-3.31859
-3.31504
-3.3108
-3.30601
-3.30085
-3.2955
-3.29017
-3.28506
-3.28039
-3.27637
-3.27318
-3.27097
-3.26983
-3.26983
-3.27097
-3.27318
-3.27638
-3.28039
-3.28506
-3.29017
-3.2955
-3.30085
-3.30602
-3.3108
-3.31504
-3.31859
-3.32135
-3.32322
-3.32417
-3.3299
-3.32877
-3.32654
-3.32323
-3.31897
-3.31387
-3.3081
-3.30185
-3.29536
-3.28886
-3.28262
-3.27691
-3.27197
-3.26804
-3.26531
-3.26391
-3.26391
-3.26531
-3.26804
-3.27197
-3.27691
-3.28262
-3.28886
-3.29536
-3.30185
-3.3081
-3.31387
-3.31897
-3.32324
-3.32654
-3.32877
-3.3299
-3.33685
-3.3355
-3.33284
-3.32889
-3.32379
-3.31767
-3.31072
-3.30317
-3.29529
-3.28737
-3.27975
-3.27273
-3.26666
-3.26181
-3.25844
-3.2567
-3.2567
-3.25844
-3.26181
-3.26666
-3.27273
-3.27975
-3.28738
-3.29529
-3.30317
-3.31072
-3.31767
-3.32379
-3.32889
-3.33284
-3.3355
-3.33685
-3.34525
-3.34365
-3.34049
-3.33579
-3.3297
-3.32238
-3.31403
-3.30492
-3.29536
-3.28572
-3.27638
-3.26776
-3.26026
-3.25426
-3.25008
-3.24793
-3.24793
-3.25008
-3.25426
-3.26026
-3.26776
-3.27638
-3.28572
-3.29536
-3.30492
-3.31403
-3.32238
-3.3297
-3.3358
-3.34049
-3.34365
-3.34525
-3.3554
-3.35352
-3.34977
-3.34422
-3.33698
-3.32824
-3.31823
-3.30725
-3.29567
-3.28392
-3.27247
-3.26185
-3.25258
-3.24513
-3.23992
-3.23724
-3.23724
-3.23992
-3.24513
-3.25258
-3.26185
-3.27247
-3.28392
-3.29567
-3.30725
-3.31823
-3.32824
-3.33698
-3.34422
-3.34977
-3.35352
-3.3554
-3.36765
-3.36544
-3.36105
-3.3545
-3.34594
-3.33556
-3.3236
-3.3104
-3.29638
-3.28205
-3.26801
-3.2549
-3.24339
-3.2341
-3.22759
-3.22423
-3.22423
-3.22759
-3.2341
-3.24339
-3.2549
-3.26801
-3.28205
-3.29639
-3.3104
-3.3236
-3.33556
-3.34594
-3.3545
-3.36105
-3.36544
-3.36765
-3.38241
-3.37984
-3.37472
-3.36706
-3.357
-3.34473
-3.3305
-3.31468
-3.29774
-3.28027
-3.26301
-3.24678
-3.23244
-3.22082
-3.21263
-3.20841
-3.20841
-3.21263
-3.22082
-3.23244
-3.24678
-3.26301
-3.28027
-3.29774
-3.31468
-3.3305
-3.34473
-3.357
-3.36706
-3.37472
-3.37984
-3.38241
-3.40016
-3.3972
-3.39128
-3.3824
-3.37067
-3.35626
-3.33942
-3.32053
-3.30009
-3.27881
-3.25758
-3.23743
-3.21949
-3.20486
-3.19453
-3.18918
-3.18918
-3.19453
-3.20486
-3.21949
-3.23743
-3.25758
-3.27882
-3.30009
-3.32053
-3.33943
-3.35627
-3.37068
-3.3824
-3.39128
-3.39721
-3.40016
-3.42145
-3.41809
-3.41132
-3.40113
-3.38759
-3.37082
-3.35104
-3.32859
-3.30402
-3.27813
-3.25197
-3.22687
-3.20431
-3.18581
-3.17268
-3.16588
-3.16588
-3.17268
-3.18581
-3.20431
-3.22687
-3.25197
-3.27813
-3.30402
-3.32859
-3.35104
-3.37083
-3.3876
-3.40114
-3.41132
-3.41809
-3.42146
-3.44692
-3.44314
-3.43552
-3.42399
-3.40855
-3.38925
-3.36622
-3.33975
-3.31036
-3.27891
-3.24665
-3.21528
-3.18678
-3.16323
-3.14645
-3.13774
-3.13774
-3.14645
-3.16323
-3.18678
-3.21528
-3.24666
-3.27891
-3.31036
-3.33975
-3.36623
-3.38926
-3.40856
-3.42399
-3.43552
-3.44314
-3.44692
-3.47723
-3.47308
-3.46466
-3.45183
-3.43452
-3.41264
-3.38617
-3.35527
-3.32035
-3.2823
-3.24252
-3.20318
-3.16696
-3.13679
-3.11523
-3.10405
-3.10405
-3.11523
-3.13679
-3.16697
-3.20318
-3.24252
-3.2823
-3.32036
-3.35527
-3.38617
-3.41264
-3.43452
-3.45183
-3.46466
-3.47308
-3.47723
-3.51314
-3.50867
-3.49959
-3.48565
-3.46666
-3.44233
-3.41245
-3.37689
-3.33587
-3.29013
-3.24114
-3.19165
-3.14536
-3.10647
-3.07863
-3.06422
-3.06422
-3.07863
-3.10647
-3.14537
-3.19166
-3.24114
-3.29013
-3.33588
-3.3769
-3.41245
-3.44233
-3.46666
-3.48565
-3.49959
-3.50868
-3.51314
-3.55537
-3.55073
-3.54123
-3.52655
-3.50631
-3.48001
-3.4471
-3.40707
-3.35968
-3.30532
-3.24524
-3.18286
-3.12327
-3.07272
-3.03675
-3.0183
-3.0183
-3.03675
-3.07272
-3.12328
-3.18286
-3.24525
-3.30532
-3.35968
-3.40707
-3.4471
-3.48001
-3.50631
-3.52655
-3.54124
-3.55073
-3.55537
-3.60462
-3.60002
-3.59051
-3.57569
-3.555
-3.52765
-3.49271
-3.4491
-3.39583
-3.33236
-3.25951
-3.18067
-3.10293
-3.0368
-2.99065
-2.96726
-2.96726
-2.99065
-3.03681
-3.10294
-3.18067
-3.25951
-3.33237
-3.39583
-3.4491
-3.49271
-3.52766
-3.555
-3.57569
-3.59051
-3.60002
-3.60462
-3.66144
-3.65715
-3.64822
-3.63417
-3.61428
-3.58748
-3.55241
-3.50736
-3.45022
-3.37875
-3.29208
-3.19246
-3.08981
-3.00383
-2.94419
-2.91382
-2.91382
-2.94419
-3.00383
-3.08981
-3.19246
-3.29208
-3.37875
-3.45022
-3.50736
-3.55242
-3.58748
-3.61428
-3.63417
-3.64822
-3.65715
-3.66144
-3.72609
-3.72249
-3.71492
-3.70287
-3.68555
-3.66173
-3.62971
-3.58722
-3.53097
-3.45628
-3.35811
-3.2354
-3.10217
-2.9874
-2.91157
-2.87425
-2.87426
-2.91157
-2.9874
-3.10217
-3.23539
-3.35812
-3.45628
-3.53097
-3.58722
-3.62972
-3.66173
-3.68555
-3.70287
-3.71491
-3.72249
-3.72609
-3.79844
-3.79595
-3.79066
-3.78215
-3.76971
-3.7522
-3.72794
-3.69463
-3.64879
-3.58259
-3.47796
-3.33787
-3.40992
-4.27851
-5.01561
-5.36133
-5.36132
-5.01559
-4.27848
-3.4099
-3.33785
-3.47797
-3.58259
-3.6488
-3.69463
-3.72794
-3.7522
-3.76971
-3.78215
-3.79066
-3.79595
-3.79843
-3.87777
-3.87686
-3.87484
-3.87154
-3.86663
-3.85947
-3.84909
-3.83469
-3.81519
-3.77288
-3.65848
-4.1734
-7.81466
-9.61596
-10.0535
-10.1666
-10.1666
-10.0534
-9.61593
-7.81453
-4.17327
-3.65849
-3.77289
-3.8152
-3.8347
-3.84909
-3.85947
-3.86663
-3.87154
-3.87484
-3.87686
-3.87776
-3.96262
-3.96369
-3.96585
-3.96934
-3.97452
-3.9818
-3.99211
-4.00944
-4.03644
-4.03535
-4.31877
-8.79801
-10.5604
-10.3957
-10.3019
-10.2556
-10.2556
-10.302
-10.3957
-10.5605
-8.79774
-4.31868
-4.03536
-4.03644
-4.00944
-3.99211
-3.9818
-3.97451
-3.96934
-3.96585
-3.96369
-3.96262
-4.05081
-4.0541
-4.06097
-4.07227
-4.08927
-4.11389
-4.15056
-4.20979
-4.28778
-4.33828
-7.28323
-10.8753
-10.6393
-10.4466
-10.3286
-10.2707
-10.2707
-10.3286
-10.4466
-10.6394
-10.8753
-7.2829
-4.33827
-4.28778
-4.20978
-4.15056
-4.11389
-4.08927
-4.07226
-4.06097
-4.05409
-4.0508
-4.13967
-4.14513
-4.15667
-4.17571
-4.20456
-4.24684
-4.31161
-4.41326
-4.54081
-5.0949
-9.75048
-11.0394
-10.7271
-10.4928
-10.3454
-10.2746
-10.2746
-10.3454
-10.4929
-10.7271
-11.0394
-9.75021
-5.09477
-4.54079
-4.41325
-4.3116
-4.24683
-4.20455
-4.17571
-4.15666
-4.14513
-4.13966
-4.22628
-4.23357
-4.24899
-4.2744
-4.3128
-4.36948
-4.45586
-4.58446
-4.7476
-5.7678
-10.2954
-11.0581
-10.7399
-10.4844
-10.3218
-10.2443
-10.2443
-10.3218
-10.4844
-10.7399
-11.0581
-10.2952
-5.76758
-4.74758
-4.58444
-4.45585
-4.36946
-4.31279
-4.27439
-4.24898
-4.23356
-4.22627
-4.30792
-4.3164
-4.33429
-4.36351
-4.40726
-4.47112
-4.56516
-4.69669
-4.86213
-5.70892
-9.63029
-10.2903
-10.134
-10.3963
-10.233
-10.1545
-10.1545
-10.233
-10.3963
-10.1339
-10.2903
-9.62996
-5.70869
-4.86211
-4.69667
-4.56514
-4.47111
-4.40725
-4.3635
-4.33428
-4.31639
-4.30792
-4.38252
-4.39142
-4.41005
-4.44007
-4.48408
-4.54615
-4.63285
-4.74729
-4.88612
-5.2709
-7.22078
-6.16546
-9.28979
-10.2024
-10.057
-9.9807
-9.9807
-10.057
-10.2024
-9.28956
-6.1654
-7.22051
-5.27076
-4.88609
-4.74727
-4.63283
-4.54613
-4.48407
-4.44006
-4.41004
-4.39141
-4.38251
-4.44897
-4.45757
-4.4754
-4.50355
-4.54355
-4.59762
-4.66803
-4.7542
-4.85504
-4.97863
-5.24416
-5.00024
-8.91825
-9.91272
-9.79523
-9.73376
-9.73376
-9.79522
-9.91271
-8.91801
-5.00022
-5.24411
-4.97858
-4.85501
-4.75419
-4.66801
-4.5976
-4.54354
-4.50354
-4.47539
-4.45756
-4.44896
-4.50715
-4.51495
-4.53092
-4.55556
-4.58932
-4.6328
-4.68566
-4.74598
-4.80964
-4.87
-4.90012
-4.90879
-8.92214
-9.56428
-9.48357
-9.44508
-9.44508
-9.48356
-9.56427
-8.92203
-4.90877
-4.9001
-4.86997
-4.80962
-4.74596
-4.68564
-4.63278
-4.58931
-4.55555
-4.53091
-4.51494
-4.50714
-4.55766
-4.56442
-4.57809
-4.59867
-4.62584
-4.65889
-4.69617
-4.73538
-4.77242
-4.80752
-4.82678
-5.70789
-9.08352
-9.19548
-9.14794
-9.12778
-9.12778
-9.14794
-9.19547
-9.08348
-5.7076
-4.82676
-4.80749
-4.7724
-4.73536
-4.69615
-4.65888
-4.62583
-4.59865
-4.57807
-4.56441
-4.55765
-4.60149
-4.6072
-4.61861
-4.63543
-4.65685
-4.68134
-4.70668
-4.72985
-4.74793
-4.76323
-4.7702
-7.65511
-8.84245
-8.82464
-8.80103
-8.79102
-8.79101
-8.80103
-8.82464
-8.84244
-7.65496
-4.77018
-4.76322
-4.74792
-4.72983
-4.70667
-4.68133
-4.65684
-4.63542
-4.6186
-4.60719
-4.60148
-4.63967
-4.64451
-4.65408
-4.66795
-4.68508
-4.70361
-4.72102
-4.73408
-4.73994
-4.74364
-4.72529
-8.06891
-8.47277
-8.47574
-8.46171
-8.45464
-8.45464
-8.46171
-8.47573
-8.47276
-8.0689
-4.72528
-4.74363
-4.73993
-4.73407
-4.721
-4.7036
-4.68507
-4.66794
-4.65407
-4.6445
-4.63966
-4.67308
-4.67733
-4.68567
-4.69761
-4.7122
-4.7278
-4.74185
-4.7514
-4.75243
-4.76366
-4.80231
-7.95959
-8.15222
-8.14491
-8.13268
-8.12542
-8.12542
-8.13268
-8.14491
-8.15222
-7.95958
-4.80228
-4.76365
-4.75243
-4.75139
-4.74184
-4.72779
-4.7122
-4.6976
-4.68566
-4.67732
-4.67307
-4.7023
-4.70623
-4.71399
-4.72515
-4.73894
-4.75419
-4.76924
-4.78196
-4.78885
-4.81386
-6.33402
-7.83667
-7.83967
-7.8212
-7.80852
-7.80109
-7.80109
-7.80852
-7.82119
-7.83967
-7.83666
-6.33394
-4.81385
-4.78884
-4.78195
-4.76923
-4.75418
-4.73893
-4.72514
-4.71398
-4.70622
-4.70229
-4.72762
-4.73145
-4.73909
-4.75031
-4.76463
-4.78143
-4.79999
-4.81885
-4.83471
-4.86328
-7.11628
-7.54773
-7.53109
-7.50591
-7.48856
-7.47978
-7.47978
-7.48855
-7.50591
-7.53108
-7.54772
-7.11626
-4.86327
-4.8347
-4.81884
-4.79998
-4.78142
-4.76462
-4.75031
-4.73908
-4.73144
-4.72761
-4.7491
-4.75297
-4.76079
-4.77251
-4.78792
-4.80684
-4.82904
-4.85382
-4.87883
-4.90767
-6.91757
-7.26028
-7.22859
-7.1938
-7.16891
-7.15735
-7.15734
-7.16891
-7.19379
-7.22859
-7.26027
-6.91756
-4.90766
-4.87883
-4.85382
-4.82904
-4.80683
-4.78791
-4.7725
-4.76078
-4.75296
-4.7491
-4.76667
-4.77063
-4.77873
-4.791
-4.80747
-4.82821
-4.85313
-4.88168
-4.91077
-4.93783
-6.69992
-6.97941
-6.9239
-6.87724
-6.84532
-6.83092
-6.83092
-6.84532
-6.87723
-6.9239
-6.97941
-6.69992
-4.93783
-4.91077
-4.88168
-4.85312
-4.8282
-4.80746
-4.79099
-4.77872
-4.77063
-4.76666
-4.78022
-4.78427
-4.79254
-4.80515
-4.82234
-4.84434
-4.87114
-4.90173
-4.93196
-5.20923
-6.51279
-6.67255
-6.60478
-6.55214
-6.51591
-6.49919
-6.49919
-6.51591
-6.55214
-6.60478
-6.67255
-6.51279
-5.20922
-4.93195
-4.90172
-4.87113
-4.84433
-4.82234
-4.80515
-4.79254
-4.78427
-4.78021
-4.78967
-4.79372
-4.80192
-4.81456
-4.83193
-4.85435
-4.88187
-4.91318
-4.94384
-5.23264
-6.18196
-6.3438
-6.27401
-6.21741
-6.17885
-6.16054
-6.16054
-6.17884
-6.21741
-6.27401
-6.34379
-6.18196
-5.23264
-4.94383
-4.91318
-4.88186
-4.85435
-4.83193
-4.81456
-4.80192
-4.79372
-4.78967
-4.79499
-4.79886
-4.80678
-4.81901
-4.83581
-4.85743
-4.88366
-4.91268
-4.93973
-5.03847
-5.73288
-6.02037
-5.93878
-5.87575
-5.83437
-5.81481
-5.81481
-5.83437
-5.87574
-5.93877
-6.02037
-5.7329
-5.03847
-4.93973
-4.91267
-4.88366
-4.85742
-4.83581
-4.81901
-4.80678
-4.79886
-4.79498
-4.79627
-4.79988
-4.80727
-4.81863
-4.83409
-4.85362
-4.87656
-4.90033
-4.91946
-4.93402
-5.37691
-5.68081
-5.59458
-5.52712
-5.48332
-5.46258
-5.46258
-5.48332
-5.52712
-5.59458
-5.68081
-5.37693
-4.93402
-4.91946
-4.90033
-4.87656
-4.85362
-4.83408
-4.81862
-4.80727
-4.79988
-4.79626
-4.79386
-4.79713
-4.80381
-4.81397
-4.82761
-4.84444
-4.86344
-4.88203
-4.8953
-4.89873
-5.10771
-5.32961
-5.2422
-5.17173
-5.12655
-5.10488
-5.10488
-5.12655
-5.17173
-5.2422
-5.3296
-5.10772
-4.89872
-4.8953
-4.88202
-4.86344
-4.84444
-4.82761
-4.81397
-4.8038
-4.79713
-4.79386
-4.78823
-4.79113
-4.79701
-4.8059
-4.81767
-4.83193
-4.8476
-4.86261
-4.87365
-4.87846
-4.93585
-4.98693
-4.88669
-4.81233
-4.76589
-4.74339
-4.74339
-4.76589
-4.81233
-4.88669
-4.98693
-4.93585
-4.87846
-4.87365
-4.86261
-4.84759
-4.83192
-4.81767
-4.8059
-4.79701
-4.79113
-4.78823
-4.77991
-4.78244
-4.78756
-4.79527
-4.80539
-4.81751
-4.83067
-4.84315
-4.85246
-4.85612
-4.80202
-4.64727
-4.52837
-4.45057
-4.40316
-4.38007
-4.38007
-4.40316
-4.45057
-4.52837
-4.64727
-4.80201
-4.85612
-4.85246
-4.84314
-4.83067
-4.8175
-4.80539
-4.79527
-4.78756
-4.78244
-4.7799
-4.7694
-4.77161
-4.77607
-4.78276
-4.79152
-4.80193
-4.81317
-4.82381
-4.83185
-4.83456
-4.66377
-4.29894
-4.16619
-4.08739
-4.0403
-4.01724
-4.01724
-4.0403
-4.08738
-4.16619
-4.29894
-4.66376
-4.83456
-4.83185
-4.8238
-4.81317
-4.80193
-4.79152
-4.78276
-4.77607
-4.77161
-4.7694
-4.7572
-4.75913
-4.76303
-4.76887
-4.77649
-4.78551
-4.79515
-4.80427
-4.8118
-4.81528
-4.4315
-3.92983
-3.80218
-3.72564
-3.68022
-3.65798
-3.65798
-3.68022
-3.72564
-3.80217
-3.92983
-4.43148
-4.81528
-4.81179
-4.80427
-4.79514
-4.7855
-4.77649
-4.76887
-4.76303
-4.75913
-4.7572
-4.74377
-4.74546
-4.74889
-4.754
-4.76062
-4.76831
-4.77627
-4.78335
-4.78878
-4.79226
-4.10522
-3.55979
-3.43994
-3.36901
-3.32678
-3.30615
-3.30615
-3.32678
-3.36901
-3.43994
-3.55978
-4.1052
-4.79226
-4.78878
-4.78335
-4.77627
-4.76831
-4.76062
-4.754
-4.74889
-4.74546
-4.74376
-4.72952
-4.73104
-4.73407
-4.73856
-4.74429
-4.75071
-4.75685
-4.76121
-4.76127
-4.72255
-3.65834
-3.19502
-3.08447
-3.02168
-2.98423
-2.96601
-2.96601
-2.98423
-3.02168
-3.08447
-3.19502
-3.65832
-4.72253
-4.76127
-4.76121
-4.75685
-4.75071
-4.74429
-4.73856
-4.73407
-4.73104
-4.72952
-4.71491
-4.71629
-4.71903
-4.72303
-4.72803
-4.7334
-4.73807
-4.74044
-4.7368
-4.44943
-3.13398
-2.83276
-2.7404
-2.6881
-2.65674
-2.64162
-2.64162
-2.65674
-2.6881
-2.7404
-2.83276
-3.13396
-4.4494
-4.73679
-4.74044
-4.73807
-4.7334
-4.72803
-4.72303
-4.71903
-4.71629
-4.71491
-4.70035
-4.70165
-4.7042
-4.70786
-4.71232
-4.71691
-4.72057
-4.72197
-4.71892
-3.9044
-2.62753
-2.48243
-2.41308
-2.373
-2.34881
-2.3373
-2.3373
-2.34881
-2.373
-2.41308
-2.48242
-2.62752
-3.90437
-4.71892
-4.72197
-4.72057
-4.71691
-4.71232
-4.70786
-4.7042
-4.70165
-4.70035
-4.68629
-4.68756
-4.69
-4.69345
-4.6975
-4.70146
-4.70413
-4.70314
-4.6933
-3.00745
-2.23434
-2.15502
-2.10836
-2.08116
-2.06482
-2.05716
-2.05716
-2.06482
-2.08116
-2.10836
-2.15502
-2.23434
-3.0074
-4.6933
-4.70314
-4.70413
-4.70146
-4.6975
-4.69345
-4.69
-4.68755
-4.68629
-4.67317
-4.67445
-4.67688
-4.68023
-4.68399
-4.68757
-4.68962
-4.68821
-4.00004
-2.14473
-1.90828
-1.85728
-1.83134
-1.81662
-1.80809
-1.80419
-1.80419
-1.80809
-1.81662
-1.83134
-1.85728
-1.90828
-2.14471
-4
-4.68821
-4.68962
-4.68757
-4.68399
-4.68023
-4.67688
-4.67445
-4.67317
-4.66147
-4.66279
-4.66529
-4.66866
-4.67228
-4.67555
-4.67599
-4.58109
-2.49243
-1.64599
-1.61258
-1.59297
-1.58533
-1.58199
-1.58058
-1.58007
-1.58007
-1.58058
-1.58199
-1.58533
-1.59297
-1.61258
-1.64599
-2.49239
-4.58108
-4.67599
-4.67555
-4.67228
-4.66866
-4.66529
-4.66279
-4.66147
-4.65168
-4.65309
-4.65576
-4.65946
-4.66314
-4.66674
-4.66636
-2.98759
-1.36459
-1.35921
-1.35983
-1.36524
-1.37227
-1.37842
-1.38285
-1.38513
-1.38513
-1.38285
-1.37842
-1.37227
-1.36524
-1.35983
-1.35921
-1.36459
-2.98754
-4.66636
-4.66674
-4.66314
-4.65946
-4.65576
-4.65309
-4.65168
-4.64456
-4.64598
-4.649
-4.65393
-4.65692
-4.66297
-2.91521
-1.0903
-1.10065
-1.12909
-1.15343
-1.17494
-1.19234
-1.20541
-1.2141
-1.21843
-1.21843
-1.2141
-1.20541
-1.19234
-1.17494
-1.15343
-1.12909
-1.10065
-1.0903
-2.91516
-4.66297
-4.65692
-4.65393
-4.649
-4.64598
-4.64456
-4.64051
-4.64174
-4.64413
-4.59995
-3.98017
-2.08544
-0.804536
-0.849134
-0.906539
-0.951966
-0.989585
-1.01996
-1.04361
-1.06097
-1.07236
-1.07799
-1.07799
-1.07236
-1.06097
-1.04361
-1.01996
-0.989586
-0.951967
-0.90654
-0.849136
-0.804533
-2.08542
-3.98017
-4.59995
-4.64413
-4.64174
-4.64051
-3.27851
-3.11305
-2.62561
-1.73524
-0.867199
-0.554646
-0.62991
-0.705332
-0.768078
-0.819802
-0.862138
-0.8962
-0.922689
-0.942114
-0.954853
-0.961148
-0.961148
-0.954853
-0.942114
-0.92269
-0.8962
-0.862139
-0.819802
-0.768079
-0.705332
-0.629909
-0.554644
-0.867198
-1.73524
-2.62563
-3.11307
-3.27853
-0.369916
-0.342765
-0.30573
-0.335527
-0.399098
-0.47048
-0.544492
-0.612265
-0.671659
-0.72224
-0.764399
-0.798699
-0.825575
-0.845387
-0.858426
-0.864883
-0.864883
-0.858426
-0.845387
-0.825575
-0.798699
-0.7644
-0.722241
-0.671659
-0.612265
-0.544492
-0.470479
-0.399096
-0.335525
-0.305729
-0.342768
-0.36992
-0.238124
-0.252612
-0.280962
-0.321841
-0.373967
-0.433325
-0.493973
-0.55182
-0.604537
-0.650758
-0.690083
-0.722525
-0.748204
-0.767273
-0.779885
-0.786149
-0.786149
-0.779885
-0.767273
-0.748204
-0.722525
-0.690083
-0.650758
-0.604537
-0.55182
-0.493972
-0.433324
-0.373965
-0.32184
-0.28096
-0.25261
-0.238122
-0.25692
-0.268654
-0.291708
-0.325101
-0.367043
-0.414384
-0.463859
-0.512433
-0.557807
-0.598509
-0.633775
-0.663266
-0.686852
-0.704501
-0.716234
-0.722081
-0.722081
-0.716234
-0.704501
-0.686852
-0.663266
-0.633775
-0.598509
-0.557807
-0.512432
-0.463858
-0.414383
-0.367041
-0.325099
-0.291705
-0.268651
-0.256917
-0.279223
-0.288751
-0.307405
-0.334287
-0.36785
-0.406029
-0.446475
-0.486787
-0.525211
-0.560275
-0.591118
-0.617225
-0.638302
-0.654189
-0.664804
-0.67011
-0.67011
-0.664804
-0.654189
-0.638302
-0.617225
-0.591118
-0.560275
-0.525211
-0.486787
-0.446474
-0.406028
-0.367849
-0.334285
-0.307403
-0.288749
-0.279221
-0.301626
-0.309312
-0.32433
-0.345958
-0.373005
-0.403935
-0.436974
-0.470392
-0.502458
-0.53221
-0.558729
-0.581415
-0.599886
-0.6139
-0.623306
-0.628021
-0.628021
-0.623306
-0.6139
-0.599886
-0.581414
-0.558729
-0.53221
-0.502458
-0.470392
-0.436973
-0.403934
-0.373004
-0.345956
-0.324328
-0.30931
-0.301624
-0.322575
-0.328774
-0.340882
-0.358328
-0.380181
-0.405257
-0.432214
-0.459708
-0.486443
-0.511483
-0.534027
-0.553485
-0.569445
-0.581621
-0.589828
-0.593952
-0.593952
-0.589828
-0.581621
-0.569445
-0.553485
-0.534027
-0.511483
-0.486442
-0.459708
-0.432213
-0.405256
-0.38018
-0.358326
-0.340881
-0.328773
-0.322574
-0.3414
-0.346407
-0.356185
-0.370282
-0.387968
-0.408331
-0.430339
-0.452947
-0.475128
-0.496075
-0.515088
-0.531621
-0.545264
-0.555725
-0.5628
-0.566363
-0.566363
-0.5628
-0.555725
-0.545264
-0.53162
-0.515088
-0.496074
-0.475127
-0.452947
-0.430338
-0.40833
-0.387967
-0.370281
-0.356184
-0.346406
-0.341399
-0.357894
-0.361944
-0.369854
-0.381265
-0.395607
-0.412169
-0.43015
-0.448727
-0.467083
-0.484534
-0.50048
-0.514429
-0.526
-0.534908
-0.540952
-0.544001
-0.544001
-0.540951
-0.534908
-0.526
-0.514428
-0.500479
-0.484534
-0.467082
-0.448727
-0.43015
-0.412168
-0.395606
-0.381264
-0.369853
-0.361943
-0.357892
-0.372105
-0.375388
-0.381799
-0.391054
-0.402705
-0.416197
-0.4309
-0.446161
-0.461325
-0.475822
-0.489139
-0.500848
-0.510602
-0.518137
-0.523262
-0.525853
-0.525853
-0.523262
-0.518137
-0.510602
-0.500847
-0.489139
-0.475822
-0.461325
-0.44616
-0.430899
-0.416196
-0.402705
-0.391053
-0.381798
-0.375387
-0.372105
-0.384212
-0.386877
-0.392083
-0.399603
-0.409086
-0.420091
-0.432123
-0.44466
-0.457175
-0.469192
-0.48028
-0.490069
-0.498253
-0.504594
-0.508915
-0.511103
-0.511103
-0.508915
-0.504593
-0.498253
-0.490069
-0.48028
-0.469192
-0.457174
-0.444659
-0.432122
-0.42009
-0.409085
-0.399603
-0.392082
-0.386876
-0.384212
-0.394442
-0.396609
-0.400843
-0.406965
-0.414695
-0.423684
-0.433538
-0.443838
-0.454159
-0.464106
-0.473317
-0.481475
-0.488317
-0.49363
-0.497258
-0.499096
-0.499096
-0.497258
-0.49363
-0.488317
-0.481475
-0.473316
-0.464105
-0.454159
-0.443838
-0.433537
-0.423683
-0.414694
-0.406965
-0.400843
-0.396609
-0.394441
-0.403035
-0.4048
-0.40825
-0.413241
-0.419551
-0.426902
-0.434978
-0.443442
-0.451949
-0.460173
-0.467811
-0.474595
-0.480297
-0.484735
-0.487769
-0.489309
-0.489309
-0.487769
-0.484735
-0.480297
-0.474594
-0.46781
-0.460172
-0.451949
-0.443442
-0.434977
-0.426901
-0.41955
-0.41324
-0.408249
-0.404799
-0.403034
-0.410221
-0.411661
-0.414475
-0.418551
-0.423708
-0.429726
-0.436349
-0.443306
-0.450316
-0.457109
-0.463434
-0.469064
-0.473807
-0.477503
-0.480034
-0.481319
-0.481319
-0.480034
-0.477503
-0.473807
-0.469064
-0.463433
-0.457109
-0.450316
-0.443306
-0.436349
-0.429725
-0.423708
-0.41855
-0.414475
-0.41166
-0.41022
-0.41621
-0.417386
-0.419686
-0.423018
-0.427238
-0.432168
-0.437603
-0.443323
-0.449098
-0.454705
-0.459937
-0.464603
-0.46854
-0.471613
-0.473719
-0.474789
-0.474789
-0.473719
-0.471613
-0.46854
-0.464603
-0.459937
-0.454705
-0.449097
-0.443322
-0.437603
-0.432168
-0.427237
-0.423017
-0.419686
-0.417386
-0.41621
-0.42119
-0.422151
-0.424033
-0.426759
-0.430216
-0.434259
-0.438721
-0.443424
-0.448181
-0.452808
-0.457132
-0.460994
-0.464257
-0.466807
-0.468556
-0.469446
-0.469446
-0.468556
-0.466807
-0.464257
-0.460994
-0.457131
-0.452808
-0.448181
-0.443424
-0.438721
-0.434258
-0.430215
-0.426759
-0.424032
-0.422151
-0.421189
-0.425321
-0.426109
-0.427649
-0.429882
-0.432716
-0.436033
-0.439699
-0.443567
-0.447485
-0.451301
-0.454872
-0.458066
-0.460768
-0.462881
-0.464331
-0.465069
-0.465069
-0.464331
-0.462881
-0.460768
-0.458066
-0.454872
-0.451301
-0.447484
-0.443567
-0.439699
-0.436033
-0.432716
-0.429882
-0.427649
-0.426108
-0.425321
-0.428744
-0.429389
-0.430652
-0.432483
-0.434807
-0.437531
-0.440543
-0.443725
-0.446951
-0.450098
-0.453045
-0.455685
-0.45792
-0.459669
-0.46087
-0.461481
-0.461481
-0.46087
-0.459669
-0.457919
-0.455685
-0.453045
-0.450097
-0.446951
-0.443724
-0.440543
-0.43753
-0.434807
-0.432482
-0.430651
-0.429389
-0.428744
-0.431577
-0.432106
-0.433141
-0.434643
-0.436551
-0.438788
-0.441264
-0.443882
-0.446539
-0.449133
-0.451565
-0.453745
-0.455592
-0.457038
-0.458032
-0.458538
-0.458538
-0.458032
-0.457038
-0.455591
-0.453745
-0.451565
-0.449133
-0.446539
-0.443882
-0.441264
-0.438788
-0.436551
-0.434643
-0.433141
-0.432105
-0.431576
-0.433918
-0.434352
-0.435202
-0.436435
-0.438002
-0.43984
-0.441876
-0.44403
-0.446218
-0.448356
-0.450362
-0.452161
-0.453686
-0.454882
-0.455704
-0.456122
-0.456122
-0.455704
-0.454882
-0.453686
-0.452161
-0.450362
-0.448356
-0.446218
-0.44403
-0.441876
-0.43984
-0.438002
-0.436435
-0.435201
-0.434352
-0.433918
-0.435852
-0.436209
-0.436906
-0.437919
-0.439207
-0.440718
-0.442392
-0.444165
-0.445966
-0.447728
-0.449382
-0.450867
-0.452126
-0.453113
-0.453792
-0.454138
-0.454138
-0.453792
-0.453113
-0.452126
-0.450866
-0.449382
-0.447728
-0.445966
-0.444164
-0.442392
-0.440717
-0.439207
-0.437919
-0.436906
-0.436208
-0.435852
-0.437449
-0.437742
-0.438315
-0.439147
-0.440205
-0.441448
-0.442825
-0.444284
-0.445768
-0.447219
-0.448583
-0.449807
-0.450846
-0.451661
-0.452222
-0.452507
-0.452507
-0.452222
-0.451661
-0.450846
-0.449807
-0.448583
-0.447219
-0.445768
-0.444284
-0.442825
-0.441448
-0.440205
-0.439147
-0.438315
-0.437742
-0.437449
-0.438767
-0.439007
-0.439478
-0.440162
-0.441032
-0.442054
-0.443187
-0.444388
-0.44561
-0.446806
-0.44793
-0.448939
-0.449796
-0.450469
-0.450931
-0.451167
-0.451167
-0.450931
-0.450468
-0.449796
-0.448939
-0.447929
-0.446806
-0.44561
-0.444388
-0.443187
-0.442054
-0.441032
-0.440162
-0.439478
-0.439007
-0.438767
-0.439853
-0.440051
-0.440438
-0.441001
-0.441716
-0.442557
-0.443489
-0.444478
-0.445484
-0.446469
-0.447395
-0.448227
-0.448934
-0.449489
-0.44987