/*--------------------------------*- C++ -*----------------------------------*\
  =========                 |
  \\      /  F ield         | OpenFOAM: The Open Source CFD Toolbox
   \\    /   O peration     | Website:  https://openfoam.org
    \\  /    A nd           | Version:  9
     \\/     M anipulation  |
\*---------------------------------------------------------------------------*/
FoamFile
{
    format      ascii;
    class       surfaceScalarField;
    location    "0.65";
    object      phi;
}
// * * * * * * * * * * * * * * * * * * * * * * * * * * * * * * * * * * * * * //

dimensions      [0 3 -1 0 0 0 0];

internalField   nonuniform List<scalar> 
8032
(
-6.3087e-07
6.31124e-07
-1.23906e-06
6.17039e-07
-1.80965e-06
5.70814e-07
-2.31139e-06
5.02017e-07
-2.72453e-06
4.13404e-07
-3.03277e-06
3.08448e-07
-3.224e-06
1.91421e-07
-3.29075e-06
6.68991e-08
-3.23033e-06
-6.02722e-08
-3.04503e-06
-1.8517e-07
-2.74196e-06
-3.02953e-07
-2.33279e-06
-4.09053e-07
-1.83333e-06
-4.99351e-07
-1.26288e-06
-5.70339e-07
-6.43518e-07
-6.19258e-07
7.87737e-10
-6.44204e-07
6.45095e-07
-6.44209e-07
1.26446e-06
-6.19271e-07
1.83492e-06
-5.70362e-07
2.33439e-06
-4.99383e-07
2.74358e-06
-4.09095e-07
3.04667e-06
-3.03005e-07
3.23199e-06
-1.85234e-07
3.29243e-06
-6.03516e-08
3.22572e-06
6.67957e-08
3.03452e-06
1.91278e-07
2.72637e-06
3.08236e-07
2.3134e-06
4.13055e-07
1.81202e-06
5.01455e-07
1.24261e-06
5.6948e-07
6.29294e-07
6.13415e-07
6.29328e-07
-6.61909e-07
1.29307e-06
-1.30569e-06
1.26094e-06
-1.90464e-06
1.16997e-06
-2.43216e-06
1.02978e-06
-2.86664e-06
8.48111e-07
-3.19085e-06
6.3287e-07
-3.39203e-06
3.92782e-07
-3.46226e-06
1.37284e-07
-3.39872e-06
-1.23671e-07
-3.20378e-06
-3.79967e-07
-2.88494e-06
-6.21669e-07
-2.45447e-06
-8.394e-07
-1.929e-06
-1.02471e-06
-1.32883e-06
-1.17039e-06
-6.77197e-07
-1.27078e-06
6.84679e-10
-1.32198e-06
6.78568e-07
-1.32199e-06
1.33021e-06
-1.27081e-06
1.93038e-06
-1.17043e-06
2.45586e-06
-1.02477e-06
2.88634e-06
-8.39477e-07
3.20519e-06
-6.21765e-07
3.40013e-06
-3.80085e-07
3.46369e-06
-1.23819e-07
3.39348e-06
1.37096e-07
3.19232e-06
3.92531e-07
2.86812e-06
6.32521e-07
2.43366e-06
8.47599e-07
1.9062e-06
1.029e-06
1.30709e-06
1.16867e-06
6.61753e-07
1.25882e-06
1.29114e-06
-7.14284e-07
2.00734e-06
-1.41045e-06
1.95716e-06
-2.05695e-06
1.8166e-06
-2.62631e-06
1.59933e-06
-3.09534e-06
1.31732e-06
-3.44537e-06
9.8308e-07
-3.66261e-06
6.10177e-07
-3.73848e-06
2.133e-07
-3.66992e-06
-1.9209e-07
-3.4595e-06
-5.9026e-07
-3.11527e-06
-9.65772e-07
-2.6505e-06
-1.30406e-06
-2.08312e-06
-1.59197e-06
-1.43506e-06
-1.81833e-06
-7.31419e-07
-1.97432e-06
5.76662e-10
-2.05387e-06
7.32572e-07
-2.05388e-06
1.43622e-06
-1.97435e-06
2.08427e-06
-1.81839e-06
2.65165e-06
-1.59205e-06
3.11643e-06
-1.30416e-06
3.46065e-06
-9.65898e-07
3.67107e-06
-5.90414e-07
3.73962e-06
-1.9228e-07
3.66375e-06
2.13061e-07
3.4465e-06
6.0987e-07
3.09644e-06
9.82673e-07
2.62735e-06
1.31677e-06
2.05788e-06
1.59855e-06
1.41111e-06
1.81551e-06
7.14465e-07
1.95558e-06
2.00563e-06
-7.92027e-07
2.79943e-06
-1.56417e-06
2.72937e-06
-2.28115e-06
2.53369e-06
-2.91251e-06
2.23083e-06
-3.43264e-06
1.8376e-06
-3.82086e-06
1.37145e-06
-4.06185e-06
8.51308e-07
-4.1461e-06
2.97676e-07
-4.07018e-06
-2.67875e-07
-3.83693e-06
-8.23394e-07
-3.45525e-06
-1.34733e-06
-2.93984e-06
-1.81935e-06
-2.3106e-06
-2.22111e-06
-1.59184e-06
-2.53698e-06
-8.11399e-07
-2.75466e-06
5.02207e-10
-2.86567e-06
8.12403e-07
-2.86568e-06
1.59284e-06
-2.75469e-06
2.31159e-06
-2.53704e-06
2.94083e-06
-2.2212e-06
3.45623e-06
-1.81946e-06
3.8379e-06
-1.34747e-06
4.07114e-06
-8.23565e-07
4.14703e-06
-2.68085e-07
4.06276e-06
2.97419e-07
3.82174e-06
8.50984e-07
3.43347e-06
1.37103e-06
2.91326e-06
1.83706e-06
2.28177e-06
2.23011e-06
1.56464e-06
2.53275e-06
7.92203e-07
2.72806e-06
2.7979e-06
-8.98943e-07
3.69835e-06
-1.77544e-06
3.6059e-06
-2.58927e-06
3.3476e-06
-3.30596e-06
2.94762e-06
-3.89644e-06
2.42821e-06
-4.33725e-06
1.81237e-06
-4.61097e-06
1.12515e-06
-4.70679e-06
3.93613e-07
-4.6208e-06
-3.53747e-07
-4.35617e-06
-1.08791e-06
-3.923e-06
-1.78039e-06
-3.33794e-06
-2.40429e-06
-2.62358e-06
-2.93536e-06
-1.80754e-06
-3.35291e-06
-9.21419e-07
-3.64068e-06
4.45827e-10
-3.78743e-06
9.22309e-07
-3.78744e-06
1.80843e-06
-3.64072e-06
2.62446e-06
-3.35298e-06
3.33881e-06
-2.93545e-06
3.92385e-06
-2.40441e-06
4.357e-06
-1.78053e-06
4.6216e-06
-1.08808e-06
4.70756e-06
-3.53955e-07
4.61171e-06
3.93359e-07
4.33794e-06
1.12484e-06
3.89708e-06
1.81198e-06
3.30651e-06
2.42771e-06
2.58972e-06
2.94698e-06
1.77575e-06
3.34677e-06
8.99113e-07
3.60483e-06
3.69703e-06
-1.03953e-06
4.73797e-06
-2.0532e-06
4.61964e-06
-2.99444e-06
4.2889e-06
-3.82339e-06
3.77666e-06
-4.50647e-06
3.11138e-06
-5.0165e-06
2.32252e-06
-5.33335e-06
1.44211e-06
-5.44446e-06
5.04831e-07
-5.34528e-06
-4.52821e-07
-5.03943e-06
-1.39366e-06
-4.53854e-06
-2.28117e-06
-3.86186e-06
-3.08087e-06
-3.03551e-06
-3.76162e-06
-2.09143e-06
-4.29689e-06
-1.06621e-06
-4.6658e-06
3.99803e-10
-4.85394e-06
1.067e-06
-4.85395e-06
2.09222e-06
-4.66584e-06
3.03629e-06
-4.29695e-06
3.86263e-06
-3.7617e-06
4.53928e-06
-3.08097e-06
5.04014e-06
-2.28131e-06
5.34597e-06
-1.39382e-06
5.44511e-06
-4.53014e-07
5.33396e-06
5.04597e-07
5.01706e-06
1.44183e-06
4.50696e-06
2.32216e-06
3.82382e-06
3.11093e-06
2.99478e-06
3.7761e-06
2.05347e-06
4.28819e-06
1.03968e-06
4.61866e-06
4.73678e-06
-1.21937e-06
5.95733e-06
-2.40842e-06
5.80873e-06
-3.51259e-06
5.39314e-06
-4.48516e-06
4.74931e-06
-5.28672e-06
3.91303e-06
-5.8854e-06
2.92129e-06
-6.25752e-06
1.81433e-06
-6.38829e-06
6.35705e-07
-6.27233e-06
-5.68688e-07
-5.9138e-06
-1.75209e-06
-5.32632e-06
-2.86855e-06
-4.53244e-06
-3.87465e-06
-3.56277e-06
-4.73119e-06
-2.45482e-06
-5.40475e-06
-1.25154e-06
-5.86899e-06
3.6225e-10
-6.10575e-06
1.25226e-06
-6.10576e-06
2.45553e-06
-5.86902e-06
3.56347e-06
-5.4048e-06
4.53312e-06
-4.73127e-06
5.32698e-06
-3.87475e-06
5.91442e-06
-2.86867e-06
6.27292e-06
-1.75223e-06
6.38884e-06
-5.68857e-07
6.25802e-06
6.355e-07
5.88586e-06
1.81407e-06
5.28713e-06
2.92097e-06
4.48551e-06
3.91264e-06
3.51287e-06
4.74881e-06
2.40861e-06
5.39249e-06
1.2195e-06
5.80791e-06
5.95629e-06
-1.44524e-06
7.40267e-06
-2.85464e-06
7.2182e-06
-4.16354e-06
6.7021e-06
-5.31661e-06
5.90245e-06
-6.26713e-06
4.86364e-06
-6.9773e-06
3.63154e-06
-7.41901e-06
2.25612e-06
-7.57465e-06
7.91434e-07
-7.43773e-06
-7.05515e-07
-7.01312e-06
-2.17661e-06
-6.31689e-06
-3.5647e-06
-5.3757e-06
-4.81574e-06
-4.22585e-06
-5.88095e-06
-2.91183e-06
-6.71868e-06
-1.48462e-06
-7.29611e-06
3.32387e-10
-7.59061e-06
1.48528e-06
-7.59062e-06
2.91249e-06
-7.29614e-06
4.22649e-06
-6.71872e-06
5.37632e-06
-5.88101e-06
6.31748e-06
-4.81582e-06
7.01368e-06
-3.56479e-06
7.43825e-06
-2.17672e-06
7.57513e-06
-7.05654e-07
7.41945e-06
7.91262e-07
6.9777e-06
2.2559e-06
6.26748e-06
3.63127e-06
5.3169e-06
4.86329e-06
4.16377e-06
5.90201e-06
2.85484e-06
6.70154e-06
1.44535e-06
7.21741e-06
7.40171e-06
-1.72575e-06
9.12841e-06
-3.40876e-06
8.90125e-06
-4.97193e-06
8.26533e-06
-6.34923e-06
7.27982e-06
-7.4849e-06
5.99938e-06
-8.33375e-06
4.48046e-06
-8.86211e-06
2.78456e-06
-9.04886e-06
9.78269e-07
-8.88613e-06
-8.68167e-07
-8.37959e-06
-2.68306e-06
-7.54833e-06
-4.39587e-06
-6.42415e-06
-5.93984e-06
-5.05036e-06
-7.25465e-06
-3.48015e-06
-8.28881e-06
-1.77447e-06
-9.0017e-06
3.09798e-10
-9.3653e-06
1.77509e-06
-9.36531e-06
3.48075e-06
-9.00172e-06
5.05096e-06
-8.28884e-06
6.42472e-06
-7.2547e-06
7.54888e-06
-5.93989e-06
8.3801e-06
-4.39593e-06
8.8866e-06
-2.68315e-06
9.0493e-06
-8.68273e-07
8.86251e-06
9.78134e-07
8.3341e-06
2.78439e-06
7.48521e-06
4.48023e-06
6.3495e-06
5.99908e-06
4.97215e-06
7.27943e-06
3.4089e-06
8.26481e-06
1.72586e-06
8.9006e-06
9.12758e-06
-2.07137e-06
1.11999e-05
-4.09158e-06
1.09215e-05
-5.96818e-06
1.0142e-05
-7.62199e-06
8.93369e-06
-8.98607e-06
7.36352e-06
-1.00061e-05
5.50059e-06
-1.06416e-05
3.42016e-06
-1.08671e-05
1.2038e-06
-1.06729e-05
-1.06234e-06
-1.00655e-05
-3.29029e-06
-9.06795e-06
-5.39339e-06
-7.71813e-06
-7.28958e-06
-6.06808e-06
-8.90463e-06
-4.18169e-06
-1.01751e-05
-2.13228e-06
-1.1051e-05
2.93821e-10
-1.14978e-05
2.13287e-06
-1.14978e-05
4.18226e-06
-1.1051e-05
6.06864e-06
-1.01751e-05
7.71867e-06
-8.90465e-06
9.06846e-06
-7.28961e-06
1.0066e-05
-5.39343e-06
1.06733e-05
-3.29034e-06
1.08675e-05
-1.06241e-06
1.0642e-05
1.2037e-06
1.00065e-05
3.42002e-06
8.98636e-06
5.5004e-06
7.62224e-06
7.36327e-06
5.96838e-06
8.93335e-06
4.09176e-06
1.01415e-05
2.07146e-06
1.09209e-05
1.11991e-05
-2.49511e-06
1.3695e-05
-4.92873e-06
1.33552e-05
-7.18971e-06
1.2403e-05
-9.18274e-06
1.09268e-05
-1.08272e-05
9.00807e-06
-1.20577e-05
6.7311e-06
-1.28251e-05
4.18765e-06
-1.30985e-05
1.47731e-06
-1.28661e-05
-1.2947e-06
-1.21356e-05
-4.02077e-06
-1.09341e-05
-6.59477e-06
-9.30747e-06
-8.91613e-06
-7.31827e-06
-1.08938e-05
-5.04357e-06
-1.24497e-05
-2.5719e-06
-1.35226e-05
2.83771e-10
-1.40699e-05
2.57247e-06
-1.40699e-05
5.04413e-06
-1.35226e-05
7.31881e-06
-1.24497e-05
9.30799e-06
-1.08938e-05
1.09346e-05
-8.91614e-06
1.2136e-05
-6.59479e-06
1.28665e-05
-4.02079e-06
1.30989e-05
-1.29474e-06
1.28255e-05
1.47725e-06
1.2058e-05
4.18756e-06
1.08275e-05
6.73096e-06
9.18299e-06
9.00786e-06
7.18991e-06
1.09265e-05
4.92886e-06
1.24026e-05
2.49521e-06
1.33547e-05
1.36943e-05
-3.0127e-06
1.67078e-05
-5.95144e-06
1.6294e-05
-8.68218e-06
1.51338e-05
-1.109e-05
1.33347e-05
-1.30776e-05
1.09957e-05
-1.45658e-05
8.21935e-06
-1.54952e-05
5.11711e-06
-1.58281e-05
1.81023e-06
-1.55497e-05
-1.57305e-06
-1.4669e-05
-4.90139e-06
-1.32186e-05
-8.04512e-06
-1.12535e-05
-1.08811e-05
-8.8493e-06
-1.32979e-05
-6.0992e-06
-1.51998e-05
-3.11038e-06
-1.65114e-05
2.78918e-10
-1.71805e-05
3.11094e-06
-1.71805e-05
6.09975e-06
-1.65114e-05
8.84983e-06
-1.51998e-05
1.1254e-05
-1.32979e-05
1.3219e-05
-1.08811e-05
1.46694e-05
-8.0451e-06
1.55501e-05
-4.90138e-06
1.58285e-05
-1.57305e-06
1.54956e-05
1.8102e-06
1.45661e-05
5.11705e-06
1.30779e-05
8.21925e-06
1.10903e-05
1.09956e-05
8.68237e-06
1.33344e-05
5.95161e-06
1.51335e-05
3.01278e-06
1.62935e-05
1.67072e-05
-3.64345e-06
2.03512e-05
-7.19779e-06
1.98484e-05
-1.05013e-05
1.84373e-05
-1.34151e-05
1.62486e-05
-1.58217e-05
1.34024e-05
-1.76251e-05
1.00228e-05
-1.8753e-05
6.24513e-06
-1.91595e-05
2.21672e-06
-1.8826e-05
-1.90644e-06
-1.7763e-05
-5.96433e-06
-1.60094e-05
-9.79868e-06
-1.36314e-05
-1.3259e-05
-1.07206e-05
-1.62087e-05
-7.38962e-06
-1.85306e-05
-3.76869e-06
-2.01322e-05
2.78662e-10
-2.09494e-05
3.76925e-06
-2.09494e-05
7.39017e-06
-2.01322e-05
1.07211e-05
-1.85306e-05
1.3632e-05
-1.62087e-05
1.60099e-05
-1.3259e-05
1.77635e-05
-9.79863e-06
1.88264e-05
-5.96429e-06
1.91598e-05
-1.90641e-06
1.87534e-05
2.21673e-06
1.76254e-05
6.24511e-06
1.5822e-05
1.00227e-05
1.34154e-05
1.34023e-05
1.05015e-05
1.62484e-05
7.19791e-06
1.8437e-05
3.64355e-06
1.9848e-05
2.03507e-05
-4.41061e-06
2.47619e-05
-8.71389e-06
2.41517e-05
-1.27145e-05
2.2438e-05
-1.62447e-05
1.97789e-05
-1.91622e-05
1.63199e-05
-2.13504e-05
1.22111e-05
-2.27217e-05
7.61644e-06
-2.32194e-05
2.71445e-06
-2.28204e-05
-2.30533e-06
-2.15366e-05
-7.24811e-06
-1.94144e-05
-1.19209e-05
-1.65336e-05
-1.61397e-05
-1.30049e-05
-1.97374e-05
-8.96522e-06
-2.25703e-05
-4.57258e-06
-2.45248e-05
2.82687e-10
-2.55222e-05
4.57314e-06
-2.55222e-05
8.96577e-06
-2.45248e-05
1.30055e-05
-2.25702e-05
1.65342e-05
-1.97373e-05
1.94149e-05
-1.61396e-05
2.15371e-05
-1.19208e-05
2.28209e-05
-7.24803e-06
2.32198e-05
-2.30526e-06
2.27221e-05
2.7145e-06
2.13508e-05
7.61646e-06
1.91624e-05
1.22111e-05
1.62449e-05
1.63198e-05
1.27147e-05
1.97787e-05
8.71406e-06
2.24378e-05
4.41069e-06
2.41513e-05
2.47615e-05
-5.34246e-06
3.01044e-05
-1.05556e-05
2.93649e-05
-1.54036e-05
2.7286e-05
-1.96837e-05
2.4059e-05
-2.32235e-05
1.98597e-05
-2.58817e-05
1.48693e-05
-2.75511e-05
9.28587e-06
-2.81622e-05
3.32555e-06
-2.76858e-05
-2.78163e-06
-2.61351e-05
-8.79875e-06
-2.35655e-05
-1.44904e-05
-2.00731e-05
-1.9632e-05
-1.57918e-05
-2.40186e-05
-1.08878e-05
-2.74742e-05
-5.55365e-06
-2.9859e-05
2.90725e-10
-3.10761e-05
5.55423e-06
-3.10761e-05
1.08884e-05
-2.98589e-05
1.57923e-05
-2.74741e-05
2.00736e-05
-2.40186e-05
2.3566e-05
-1.96319e-05
2.61356e-05
-1.44903e-05
2.76862e-05
-8.79864e-06
2.81626e-05
-2.78152e-06
2.75515e-05
3.32564e-06
2.5882e-05
9.28594e-06
2.32238e-05
1.48694e-05
1.9684e-05
1.98597e-05
1.54038e-05
2.40589e-05
1.05557e-05
2.72858e-05
5.34256e-06
2.93647e-05
3.0104e-05
-6.47296e-06
3.65774e-05
-1.27904e-05
3.56824e-05
-1.86674e-05
3.3163e-05
-2.38591e-05
2.92508e-05
-2.81567e-05
2.41574e-05
-3.13884e-05
1.81011e-05
-3.34233e-05
1.13208e-05
-3.41757e-05
4.07795e-06
-3.36085e-05
-3.3487e-06
-3.17361e-05
-1.06711e-05
-2.86242e-05
-1.76024e-05
-2.43884e-05
-2.38678e-05
-1.91907e-05
-2.92162e-05
-1.32334e-05
-3.34315e-05
-6.75074e-06
-3.63415e-05
3.02805e-10
-3.78271e-05
6.75134e-06
-3.78271e-05
1.3234e-05
-3.63415e-05
1.91913e-05
-3.34314e-05
2.43889e-05
-2.92161e-05
2.86247e-05
-2.38676e-05
3.17366e-05
-1.76022e-05
3.3609e-05
-1.0671e-05
3.41761e-05
-3.34855e-06
3.34237e-05
4.07809e-06
3.13887e-05
1.13209e-05
2.8157e-05
1.81011e-05
2.38594e-05
2.41574e-05
1.86676e-05
2.92508e-05
1.27905e-05
3.3163e-05
6.47303e-06
3.56821e-05
3.65771e-05
-7.8431e-06
4.44205e-05
-1.54993e-05
4.33386e-05
-2.26249e-05
4.02887e-05
-2.89241e-05
3.55501e-05
-3.4144e-05
2.93773e-05
-3.80758e-05
2.20329e-05
-4.05593e-05
1.38043e-05
-4.14884e-05
5.00711e-06
-4.08159e-05
-4.02115e-06
-3.85566e-05
-1.29304e-05
-3.4788e-05
-2.13709e-05
-2.96493e-05
-2.90065e-05
-2.33364e-05
-3.55291e-05
-1.60952e-05
-4.06726e-05
-8.21161e-06
-4.4225e-05
3.19255e-10
-4.6039e-05
8.21225e-06
-4.6039e-05
1.60958e-05
-4.4225e-05
2.3337e-05
-4.06725e-05
2.96498e-05
-3.5529e-05
3.47885e-05
-2.90063e-05
3.8557e-05
-2.13707e-05
4.08163e-05
-1.29302e-05
4.14888e-05
-4.02095e-06
4.05596e-05
5.00729e-06
3.80761e-05
1.38045e-05
3.41443e-05
2.2033e-05
2.89243e-05
2.93774e-05
2.26251e-05
3.55501e-05
1.54994e-05
4.02886e-05
7.84319e-06
4.33385e-05
4.44203e-05
-9.50194e-06
5.39225e-05
-1.87797e-05
5.26164e-05
-2.74191e-05
4.89281e-05
-3.50631e-05
4.31941e-05
-4.14055e-05
3.57197e-05
-4.61922e-05
2.68196e-05
-4.92269e-05
1.68391e-05
-5.03781e-05
6.15832e-06
-4.95848e-05
-4.81437e-06
-4.68615e-05
-1.56538e-05
-4.22991e-05
-2.59333e-05
-3.60643e-05
-3.52412e-05
-2.83942e-05
-4.31991e-05
-1.95881e-05
-4.94787e-05
-9.99509e-06
-5.3818e-05
3.40602e-10
-5.60344e-05
9.99577e-06
-5.60344e-05
1.95887e-05
-5.38179e-05
2.83948e-05
-4.94786e-05
3.60649e-05
-4.3199e-05
4.22996e-05
-3.5241e-05
4.6862e-05
-2.5933e-05
4.95853e-05
-1.56535e-05
5.03785e-05
-4.81412e-06
4.92273e-05
6.15856e-06
4.61925e-05
1.68393e-05
4.14058e-05
2.68198e-05
3.50633e-05
3.57199e-05
2.74193e-05
4.31942e-05
1.87799e-05
4.89281e-05
9.50201e-06
5.26162e-05
5.39224e-05
-1.15083e-05
6.54308e-05
-2.27483e-05
6.38564e-05
-3.32216e-05
5.94014e-05
-4.24977e-05
5.24702e-05
-5.0206e-05
4.34281e-05
-5.60374e-05
3.26509e-05
-5.97508e-05
2.05526e-05
-6.11824e-05
7.58994e-06
-6.02531e-05
-5.74365e-06
-5.6975e-05
-1.89318e-05
-5.14541e-05
-3.14541e-05
-4.38896e-05
-4.28058e-05
-3.4568e-05
-5.25207e-05
-2.38538e-05
-6.0193e-05
-1.21738e-05
-6.54979e-05
3.67736e-10
-6.82085e-05
1.21745e-05
-6.82085e-05
2.38545e-05
-6.54978e-05
3.45687e-05
-6.01928e-05
4.38902e-05
-5.25204e-05
5.14547e-05
-4.28055e-05
5.69755e-05
-3.14538e-05
6.02536e-05
-1.89315e-05
6.11828e-05
-5.74334e-06
5.97512e-05
7.59024e-06
5.60377e-05
2.05528e-05
5.02063e-05
3.26512e-05
4.24979e-05
4.34283e-05
3.32218e-05
5.24703e-05
2.27484e-05
5.94015e-05
1.15084e-05
6.38564e-05
6.54307e-05
-1.39321e-05
7.9363e-05
-2.75442e-05
7.74686e-05
-4.02374e-05
7.20946e-05
-5.14933e-05
6.37261e-05
-6.0864e-05
5.27987e-05
-6.79729e-05
3.97599e-05
-7.25237e-05
2.51034e-05
-7.43114e-05
9.37762e-06
-7.32324e-05
-6.82259e-06
-6.92939e-05
-2.28703e-05
-6.26177e-05
-3.81303e-05
-5.34408e-05
-5.19826e-05
-4.21095e-05
-6.38519e-05
-2.90674e-05
-7.3235e-05
-1.48377e-05
-7.97276e-05
4.01795e-10
-8.30466e-05
1.48385e-05
-8.30466e-05
2.90682e-05
-7.97275e-05
4.21102e-05
-7.32348e-05
5.34415e-05
-6.38517e-05
6.26183e-05
-5.19823e-05
6.92944e-05
-3.81299e-05
7.32329e-05
-2.287e-05
7.43118e-05
-6.82221e-06
7.25241e-05
9.37799e-06
6.79732e-05
2.51037e-05
6.08642e-05
3.97602e-05
5.14935e-05
5.2799e-05
4.02375e-05
6.37263e-05
2.75444e-05
7.20948e-05
1.39321e-05
7.74685e-05
7.93629e-05
-1.68564e-05
9.62194e-05
-3.33326e-05
9.39447e-05
-4.87104e-05
8.74724e-05
-6.23669e-05
7.73827e-05
-7.37608e-05
6.41927e-05
-8.24337e-05
4.84327e-05
-8.80203e-05
3.069e-05
-9.02629e-05
1.16203e-05
-8.90251e-05
-8.06038e-06
-8.43042e-05
-2.75913e-05
-7.62381e-05
-4.61964e-05
-6.51075e-05
-6.31132e-05
-5.13301e-05
-7.76293e-05
-3.54465e-05
-8.91186e-05
-1.80984e-05
-9.70757e-05
4.44379e-10
-0.000101145
1.80993e-05
-0.000101145
3.54473e-05
-9.70755e-05
5.13309e-05
-8.91184e-05
6.51082e-05
-7.7629e-05
7.62387e-05
-6.31128e-05
8.43048e-05
-4.61959e-05
8.90256e-05
-2.75908e-05
9.02634e-05
-8.05991e-06
8.80206e-05
1.16207e-05
8.24339e-05
3.06905e-05
7.3761e-05
4.84331e-05
6.2367e-05
6.4193e-05
4.87105e-05
7.73829e-05
3.33327e-05
8.74726e-05
1.68565e-05
9.39449e-05
9.62194e-05
-2.03792e-05
0.000116599
-4.03087e-05
0.000113874
-5.89297e-05
0.000106093
-7.54952e-05
9.39482e-05
-8.93521e-05
7.80496e-05
-9.99419e-05
5.90225e-05
-0.000106814
3.75617e-05
-0.000109642
1.44483e-05
-0.000108244
-9.45751e-06
-0.000102602
-3.32334e-05
-9.2868e-05
-5.59306e-05
-7.93719e-05
-7.66093e-05
-6.26167e-05
-9.43846e-05
-4.32615e-05
-0.000108474
-2.20953e-05
-0.000118242
4.97538e-10
-0.000123241
2.20963e-05
-0.000123241
4.32625e-05
-0.000118242
6.26176e-05
-0.000108473
7.93727e-05
-9.43842e-05
9.28688e-05
-7.66088e-05
0.000102603
-5.593e-05
0.000108245
-3.32328e-05
0.000109642
-9.45694e-06
0.000106814
1.44488e-05
9.99422e-05
3.75622e-05
8.93523e-05
5.9023e-05
7.54953e-05
7.805e-05
5.89297e-05
9.39485e-05
4.03088e-05
0.000106094
2.03793e-05
0.000113874
0.000116599
-2.46154e-05
0.000141214
-4.87019e-05
0.000137961
-7.12359e-05
0.000128627
-9.13243e-05
0.000114037
-0.00010818
9.49054e-05
-0.000121123
7.19652e-05
-0.000129594
4.60329e-05
-0.00013318
1.80348e-05
-0.000131639
-1.09989e-05
-0.000124921
-3.99511e-05
-0.000113191
-6.76609e-05
-9.68333e-05
-9.29669e-05
-7.64519e-05
-0.000114766
-5.28512e-05
-0.000132074
-2.70029e-05
-0.00014409
5.64063e-10
-0.000150245
2.7004e-05
-0.000150245
5.28522e-05
-0.00014409
7.64529e-05
-0.000132074
9.68341e-05
-0.000114765
0.000113192
-9.29663e-05
0.000124922
-6.76602e-05
0.00013164
-3.99504e-05
0.000133181
-1.09982e-05
0.000129594
1.80354e-05
0.000121123
4.60334e-05
0.00010818
7.19658e-05
9.13244e-05
9.49059e-05
7.1236e-05
0.000114037
4.87019e-05
0.000128628
2.46155e-05
0.000137961
0.000141214
-2.96985e-05
0.000170913
-5.87794e-05
0.000167042
-8.60277e-05
0.000155876
-0.000110379
0.000138388
-0.000130887
0.000115413
-0.000146722
8.78007e-05
-0.000157192
5.65027e-05
-0.000161769
2.26116e-05
-0.000160124
-1.26434e-05
-0.000152164
-4.79116e-05
-0.000138054
-8.17708e-05
-0.000118239
-0.000112782
-9.34405e-05
-0.000139564
-6.46412e-05
-0.000160874
-3.30411e-05
-0.00017569
6.47603e-10
-0.000183286
3.30424e-05
-0.000183286
6.46424e-05
-0.00017569
9.34416e-05
-0.000160873
0.00011824
-0.000139563
0.000138055
-0.000112781
0.000152165
-8.177e-05
0.000160125
-4.79107e-05
0.000161769
-1.26425e-05
0.000157192
2.26124e-05
0.000146722
5.65034e-05
0.000130887
8.78013e-05
0.000110379
0.000115414
8.60277e-05
0.000138388
5.87794e-05
0.000155876
2.96985e-05
0.000167042
0.000170913
-3.57821e-05
0.000206695
-7.08496e-05
0.000202109
-0.000103767
0.000188793
-0.000133272
0.000167892
-0.000158228
0.00014037
-0.000177626
0.000107199
-0.000190604
6.94802e-05
-0.000196484
2.84917e-05
-0.00019482
-1.43072e-05
-0.000185445
-5.72872e-05
-0.000168512
-9.87039e-05
-0.000144525
-0.000136769
-0.000114344
-0.000169744
-7.91701e-05
-0.000196048
-4.04889e-05
-0.000214371
7.5327e-10
-0.000223776
4.04904e-05
-0.000223776
7.91715e-05
-0.000214371
0.000114346
-0.000196048
0.000144526
-0.000169743
0.000168513
-0.000136768
0.000185445
-9.87028e-05
0.000194821
-5.72861e-05
0.000196484
-1.43061e-05
0.000190604
2.84927e-05
0.000177626
6.94811e-05
0.000158228
0.0001072
0.000133272
0.00014037
0.000103767
0.000167892
7.08495e-05
0.000188794
3.57821e-05
0.000202109
0.000206695
-4.30406e-05
0.000249735
-8.52641e-05
0.000244333
-0.000124985
0.000228514
-0.000160711
0.000203619
-0.000191087
0.000170745
-0.000214882
0.000130994
-0.000231021
8.56188e-05
-0.000238629
3.61003e-05
-0.000237097
-1.58391e-05
-0.000226142
-6.82422e-05
-0.000205881
-0.000118965
-0.00017687
-0.00016578
-0.00014013
-0.000206485
-9.71241e-05
-0.000239054
-4.97027e-05
-0.000261793
8.88011e-10
-0.00027348
4.97044e-05
-0.000273479
9.71257e-05
-0.000261792
0.000140131
-0.000239053
0.000176872
-0.000206484
0.000205882
-0.000165779
0.000226143
-0.000118964
0.000237098
-6.82409e-05
0.00023863
-1.58379e-05
0.000231021
3.61014e-05
0.000214882
8.56197e-05
0.000191087
0.000130995
0.000160711
0.000170746
0.000124985
0.000203619
8.5264e-05
0.000228515
4.30406e-05
0.000244333
0.000249735
-5.16689e-05
0.000301404
-0.000102417
0.000295081
-0.00015028
0.000276377
-0.000193508
0.000246846
-0.000230486
0.000207723
-0.000259718
0.000160227
-0.000279861
0.000105761
-0.000289779
4.60192e-05
-0.000288636
-1.69831e-05
-0.000275969
-8.09086e-05
-0.000251817
-0.000143118
-0.000216772
-0.000200825
-0.000172031
-0.000251225
-0.000119384
-0.000291701
-6.11415e-05
-0.000320036
1.06112e-09
-0.000334622
6.11436e-05
-0.000334622
0.000119386
-0.000320035
0.000172033
-0.0002917
0.000216773
-0.000251224
0.000251818
-0.000200823
0.00027597
-0.000143116
0.000288636
-8.0907e-05
0.00028978
-1.69816e-05
0.000279861
4.60205e-05
0.000259718
0.000105762
0.000230485
0.000160228
0.000193508
0.000207724
0.00015028
0.000246847
0.000102417
0.000276377
5.16688e-05
0.000295081
0.000301404
-6.18793e-05
0.000363283
-0.000122741
0.000355943
-0.000180317
0.000333953
-0.000232571
0.0002991
-0.000277592
0.000252743
-0.000313564
0.000196199
-0.000338803
0.000131
-0.000351832
5.90486e-05
-0.000351494
-1.73208e-05
-0.000337056
-9.53466e-05
-0.000308406
-0.000171768
-0.000266136
-0.000243094
-0.000211636
-0.000305725
-0.000147092
-0.000356245
-7.54024e-05
-0.000391725
1.28578e-09
-0.000410026
7.54049e-05
-0.000410025
0.000147095
-0.000391725
0.000211638
-0.000356243
0.000266138
-0.000305723
0.000308407
-0.000243092
0.000337057
-0.000171766
0.000351495
-9.53446e-05
0.000351832
-1.7319e-05
0.000338802
5.90502e-05
0.000313563
0.000131001
0.000277591
0.0001962
0.000232571
0.000252744
0.000180317
0.000299101
0.000122741
0.000333954
6.18791e-05
0.000355942
0.000363283
-7.38959e-05
0.000437179
-0.000146697
0.000428744
-0.000215815
0.000403071
-0.000278904
0.000362189
-0.000333717
0.000307557
-0.00037806
0.000240541
-0.00040982
0.00016276
-0.000427067
7.62952e-05
-0.000428201
-1.6187e-05
-0.000412068
-0.000111479
-0.000378299
-0.000205537
-0.000327421
-0.000293972
-0.000261012
-0.000372134
-0.000181742
-0.000435514
-9.32697e-05
-0.000480198
1.579e-09
-0.000503297
9.32728e-05
-0.000503297
0.000181745
-0.000480197
0.000261014
-0.000435512
0.000327422
-0.000372132
0.0003783
-0.00029397
0.000412068
-0.000205535
0.000428201
-0.000111477
0.000427066
-1.61848e-05
0.00040982
7.62971e-05
0.000378059
0.000162762
0.000333716
0.000240542
0.000278903
0.000307558
0.000215814
0.00036219
0.000146697
0.000403071
7.38957e-05
0.000428743
0.000437179
-8.79448e-05
0.000525124
-0.000174755
0.000515554
-0.00025752
0.000485835
-0.000333575
0.000438244
-0.000400303
0.000374285
-0.000455063
0.000295301
-0.000495209
0.000202907
-0.000518207
9.92933e-05
-0.000521855
-1.25399e-05
-0.000504345
-0.000128989
-0.000464886
-0.000244996
-0.000403812
-0.000355046
-0.000322868
-0.000453078
-0.000225311
-0.000533072
-0.000115786
-0.000589722
1.96555e-09
-0.000619085
0.00011579
-0.000619084
0.000225314
-0.000589721
0.000322871
-0.000533069
0.000403814
-0.000453075
0.000464887
-0.000355043
0.000504345
-0.000244993
0.000521855
-0.000128986
0.000518207
-1.25371e-05
0.000495208
9.92956e-05
0.000455062
0.000202909
0.000400302
0.000295302
0.000333573
0.000374286
0.000257519
0.000438244
0.000174755
0.000485835
8.79444e-05
0.000515554
0.000525123
-0.000104237
0.000629361
-0.000207364
0.000618682
-0.000306168
0.00058464
-0.000397676
0.000529751
-0.00047888
0.00045549
-0.000546625
0.000363046
-0.000597606
0.000253887
-0.000628485
0.000130173
-0.000636259
-4.76669e-06
-0.000618092
-0.000147155
-0.000572529
-0.000290559
-0.000499487
-0.000428088
-0.000400805
-0.00055176
-0.000280444
-0.000653433
-0.000144352
-0.000725813
2.47541e-09
-0.000763439
0.000144357
-0.000763439
0.000280448
-0.000725811
0.000400809
-0.00065343
0.00049949
-0.000551756
0.000572531
-0.000428084
0.000618093
-0.000290555
0.000636258
-0.000147151
0.000628484
-4.76322e-06
0.000597604
0.000130176
0.000546624
0.000253889
0.000478879
0.000363047
0.000397674
0.00045549
0.000306167
0.000529751
0.000207363
0.000584639
0.000104237
0.000618681
0.00062936
-0.000122944
0.000752305
-0.000244902
0.00074064
-0.000362416
0.000702154
-0.000472245
0.00063958
-0.000570996
0.000554241
-0.000654943
0.000446992
-0.000719985
0.000318929
-0.000761732
0.00017192
-0.000776033
9.53464e-06
-0.000758614
-0.000164574
-0.000706893
-0.00034228
-0.000619985
-0.000514995
-0.000499662
-0.000672083
-0.000350729
-0.000802366
-0.000180878
-0.000895664
3.16458e-09
-0.000944321
0.000180884
-0.00094432
0.000350734
-0.000895661
0.000499666
-0.000802362
0.000619988
-0.000672077
0.000706894
-0.00051499
0.000758614
-0.000342275
0.000776032
-0.000164569
0.00076173
9.5387e-06
0.000719983
0.000171923
0.00065494
0.000318932
0.000570994
0.000446993
0.000472243
0.000554241
0.000362415
0.000639579
0.000244901
0.000702153
0.000122944
0.000740638
0.000752303
-0.000144164
0.000896469
-0.000287609
0.000884085
-0.000426742
0.000841287
-0.000558145
0.000770983
-0.000678088
0.000674184
-0.000782249
0.000551153
-0.000865598
0.000402278
-0.000922473
0.000228795
-0.00094671
3.37715e-05
-0.000932634
-0.00017865
-0.000875391
-0.000399524
-0.00077273
-0.000617656
-0.000626029
-0.000818784
-0.000441094
-0.000987301
-0.000227996
-0.00110876
4.08921e-09
-0.00117232
0.000228004
-0.00117232
0.000441101
-0.00110876
0.000626034
-0.000987295
0.000772733
-0.000818777
0.000875392
-0.000617649
0.000932634
-0.000399517
0.000946709
-0.000178644
0.000922471
3.37766e-05
0.000865595
0.000228799
0.000782246
0.000402281
0.000678085
0.000551154
0.000558142
0.000674184
0.00042674
0.000770982
0.000287607
0.000841285
0.000144163
0.000884082
0.000896466
-0.000167868
0.00106434
-0.000335488
0.0010517
-0.000499303
0.0010051
-0.000655879
0.000927559
-0.000801266
0.00081957
-0.000930579
0.000680465
-0.00103775
0.000509448
-0.00111546
0.000306508
-0.00115534
7.36501e-05
-0.00114878
-0.000185216
-0.00108786
-0.000460441
-0.000967826
-0.000737688
-0.000789014
-0.000997595
-0.0005584
-0.00121792
-0.000289381
-0.00137778
5.3747e-09
-0.00146171
0.000289391
-0.00146171
0.000558408
-0.00137778
0.000789021
-0.00121791
0.000967829
-0.000997586
0.00108786
-0.000737679
0.00114877
-0.000460432
0.00115534
-0.000185208
0.00111546
7.36563e-05
0.00103774
0.000306513
0.000930574
0.000509451
0.000801262
0.000680466
0.000655875
0.00081957
0.0004993
0.000927557
0.000335486
0.0010051
0.000167867
0.0010517
0.00106433
-0.000193849
0.00125819
-0.000388185
0.00124604
-0.000579746
0.00119666
-0.000765341
0.00111315
-0.000941023
0.000995253
-0.0011015
0.000840939
-0.00123965
0.000647599
-0.00134623
0.000413095
-0.0014099
0.00013731
-0.00141792
-0.000177192
-0.00135739
-0.000520974
-0.00121918
-0.000875892
-0.00100138
-0.0012154
-0.000712329
-0.00150697
-0.000370243
-0.00171987
7.10927e-09
-0.00183196
0.000370257
-0.00183196
0.00071234
-0.00171986
0.00100139
-0.00150696
0.00121919
-0.00121539
0.00135739
-0.000875879
0.00141792
-0.000520961
0.00140989
-0.000177182
0.00134623
0.000137318
0.00123964
0.0004131
0.00110149
0.000647602
0.000941017
0.00084094
0.000765335
0.000995251
0.000579742
0.00111315
0.000388182
0.00119666
0.000193848
0.00124604
0.00125818
-0.000221639
0.00147983
-0.00044483
0.00146923
-0.000666964
0.0014188
-0.000885466
0.00133166
-0.00109678
0.00120657
-0.00129555
0.00103971
-0.00147381
0.000825861
-0.00162026
0.000559543
-0.00171974
0.000236789
-0.00175386
-0.000143067
-0.00170158
-0.000573262
-0.00154618
-0.00103129
-0.00128123
-0.00148035
-0.000916694
-0.0018715
-0.000477997
-0.00215856
9.70712e-09
-0.00230996
0.000478015
-0.00230996
0.000916709
-0.00215855
0.00128124
-0.00187148
0.00154618
-0.00148033
0.00170158
-0.00103127
0.00175386
-0.000573246
0.00171973
-0.000143055
0.00162025
0.000236798
0.0014738
0.000559549
0.00129554
0.000825864
0.00109677
0.00103971
0.00088546
0.00120657
0.000666959
0.00133165
0.000444827
0.00141879
0.000221638
0.00146922
0.00147982
-0.000250436
0.00173026
-0.000503871
0.00172267
-0.000758803
0.00167373
-0.00101379
0.00158665
-0.00126628
0.00145905
-0.00151147
0.0012849
-0.00174117
0.00105556
-0.00194227
0.00076064
-0.00209509
0.000389613
-0.00217382
-6.43396e-05
-0.00214402
-0.000603065
-0.00197589
-0.00119942
-0.00165423
-0.00180201
-0.00119055
-0.00233518
-0.000622535
-0.00272658
1.35609e-08
-0.00293251
0.00062256
-0.00293251
0.00119057
-0.00272656
0.00165424
-0.00233516
0.00197589
-0.00180198
0.00214402
-0.0011994
0.00217382
-0.000603044
0.00209508
-6.43237e-05
0.00194226
0.000389623
0.00174116
0.000760646
0.00151146
0.00105557
0.00126627
0.0012849
0.00101379
0.00145905
0.000758797
0.00158664
0.000503867
0.00167372
0.000250434
0.00172266
0.00173025
-0.000279028
0.00200929
-0.000562899
0.00200654
-0.000851752
0.00196258
-0.00114595
0.00188084
-0.00144475
0.00175785
-0.00174503
0.00158519
-0.00203962
0.00135015
-0.00231474
0.00103576
-0.00254605
0.000620918
-0.002698
8.76134e-05
-0.0027149
-0.000586169
-0.002544
-0.00137032
-0.00215104
-0.00219496
-0.00155236
-0.00293386
-0.000811728
-0.00346722
1.93408e-08
-0.00374426
0.000811765
-0.00374425
0.00155239
-0.00346719
0.00215106
-0.00293382
0.00254401
-0.00219492
0.00271489
-0.00137028
0.00269799
-0.000586141
0.00254603
8.76321e-05
0.00231473
0.000620931
0.0020396
0.00103577
0.00174502
0.00135015
0.00144473
0.00158519