/*--------------------------------*- C++ -*----------------------------------*\
  =========                 |
  \\      /  F ield         | OpenFOAM: The Open Source CFD Toolbox
   \\    /   O peration     | Website:  https://openfoam.org
    \\  /    A nd           | Version:  9
     \\/     M anipulation  |
\*---------------------------------------------------------------------------*/
FoamFile
{
    format      ascii;
    class       volScalarField;
    location    "0.27";
    object      p_rgh;
}
// * * * * * * * * * * * * * * * * * * * * * * * * * * * * * * * * * * * * * //

dimensions      [1 -1 -2 0 0 0 0];

internalField   nonuniform List<scalar> 
10000
(
0
-0.0085197417
-0.010600365
-0.01406162
-0.017716505
-0.021010748
-0.024071677
-0.027005238
-0.029844361
-0.032664627
-0.035422861
-0.038155173
-0.040883959
-0.043546246
-0.04611072
-0.048503315
-0.050587402
-0.052229537
-0.053249643
-0.053408336
-0.052470325
-0.050193072
-0.046236489
-0.040080549
-0.031025804
-0.018447565
-0.0017373136
0.019739896
0.046481025
0.078552012
0.11515968
0.15300034
0.19811078
0.24790441
0.30195009
0.35961257
0.42020543
0.48292418
0.54676775
0.61060529
0.67326745
0.73353145
0.79017421
0.84201687
0.88789623
0.92673292
0.95755307
0.97947376
0.9917611
0.99381532
0.985214
0.96570001
0.93525538
0.89412219
0.84268927
0.78156159
0.71147546
0.63339216
0.54837878
0.45770073
0.36263521
0.26455783
0.16485434
0.064896772
-0.033950284
-0.13056807
-0.22381813
-0.31267302
-0.39632503
-0.47428253
-0.54690855
-0.61449024
-0.67606681
-0.73129482
-0.78039932
-0.8238893
-0.86234804
-0.89643439
-0.92667326
-0.95341449
-0.97694036
-0.99749389
-1.0153659
-1.0308566
-1.044242
-1.0557575
-1.0656174
-1.0739714
-1.080969
-1.0867406
-1.0913859
-1.0950182
-1.0976552
-1.0993375
-1.1000793
-1.0998197
-1.0985246
-1.0967024
-1.0956542
-1.0874749
0.0032314259
-0.0052722816
-0.0073157275
-0.010831063
-0.014452227
-0.01775576
-0.020826526
-0.023768088
-0.026706734
-0.02959447
-0.032477515
-0.035425302
-0.03840147
-0.041407028
-0.044417234
-0.047329668
-0.050048416
-0.052442087
-0.05430354
-0.05541109
-0.055515371
-0.054286992
-0.051318143
-0.046111921
-0.038061822
-0.026557142
-0.011064152
0.0088077329
0.033335643
0.062645921
0.096739275
0.13679637
0.18179415
0.23152347
0.28564239
0.34361108
0.40469481
0.46802179
0.53258203
0.59723711
0.66079491
0.72202485
0.77967722
0.83252459
0.879355
0.91904845
0.95061249
0.97313609
0.98586103
0.98817704
0.97968131
0.96018375
0.92965784
0.88829017
0.83646084
0.77481089
0.70410273
0.62534778
0.53962022
0.44820436
0.35239567
0.25360272
0.15324681
0.052699184
-0.046661901
-0.14366282
-0.23714634
-0.32613947
-0.40999437
-0.48822504
-0.56089065
-0.62713798
-0.68715526
-0.74114979
-0.78935381
-0.83205541
-0.86970449
-0.90286884
-0.9320537
-0.95766065
-0.98007432
-0.99961222
-1.0165754
-1.0312677
-1.0439805
-1.0549291
-1.0643047
-1.0722577
-1.0789442
-1.0844967
-1.088978
-1.0924878
-1.0950297
-1.0966406
-1.0973565
-1.0970739
-1.0958093
-1.0940475
-1.0930742
-1.0848264
0.0010210368
-0.0075349206
-0.0096004936
-0.013070677
-0.016670429
-0.019917017
-0.022892504
-0.025814686
-0.028676405
-0.031513362
-0.034429022
-0.037435102
-0.040558083
-0.04381675
-0.047156832
-0.050519826
-0.053829929
-0.056936664
-0.059660514
-0.061788051
-0.063018408
-0.062979095
-0.061240984
-0.057289843
-0.050517801
-0.040323243
-0.026158474
-0.0075369498
0.015968695
0.04470246
0.079092741
0.11895041
0.16417011
0.21451413
0.26964669
0.32900378
0.39180833
0.45712639
0.52390165
0.59095716
0.6570502
0.72088742
0.78113111
0.836488
0.88570096
0.92757351
0.96104237
0.9851428
0.99907312
1.0022094
0.99415499
0.97468278
0.94374596
0.90156495
0.84854161
0.78535453
0.71280803
0.63196707
0.54395627
0.45012058
0.35181394
0.25050889
0.14768008
0.044785671
-0.056765267
-0.15569006
-0.25079748
-0.34115141
-0.42604925
-0.50509548
-0.57828963
-0.64471586
-0.70455187
-0.75799298
-0.80538461
-0.84715965
-0.88381052
-0.91587469
-0.94387823
-0.9682783
-0.98951705
-1.0079713
-1.0239716
-1.0378353
-1.049844
-1.060197
-1.0690892
-1.0766754
-1.0830787
-1.0884252
-1.0927727
-1.0961747
-1.0986426
-1.1001955
-1.1009081
-1.100611
-1.0992889
-1.0974893
-1.0965953
-1.0883107
-0.00072468024
-0.0093370749
-0.011269205
-0.014657358
-0.018133633
-0.021185329
-0.024023389
-0.026748082
-0.029408764
-0.032118296
-0.034934309
-0.037922085
-0.041145323
-0.044597446
-0.048264667
-0.052133938
-0.056124595
-0.060108632
-0.063923345
-0.067327758
-0.069998532
-0.071555696
-0.071545001
-0.069399485
-0.064492728
-0.056190191
-0.043878003
-0.026972105
-0.0049436911
0.022620927
0.055795475
0.095112374
0.14044454
0.19150691
0.24787178
0.30894707
0.37391774
0.44178782
0.51144329
0.58165312
0.65109554
0.71839549
0.78213313
0.84092942
0.89345471
0.93841554
0.97463668
1.0010584
1.0167989
1.0211748
1.013758
0.99427928
0.96271041
0.91930674
0.86452543
0.799113
0.7239457
0.6401579
0.54895673
0.45174712
0.34997142
0.24518478
0.13892177
0.032781869
-0.071766494
-0.17334272
-0.27069297
-0.36284241
-0.44900187
-0.52862891
-0.60143881
-0.66747023
-0.7265954
-0.77903057
-0.82518341
-0.86555818
-0.90068038
-0.93112623
-0.95749708
-0.98031475
-1.0000398
-1.017093
-1.0318589
-1.0446527
-1.0557504
-1.0653647
-1.0736788
-1.0808307
-1.0869131
-1.0920316
-1.0962352
-1.0995501
-1.1020048
-1.103578
-1.1043251
-1.1041196
-1.1028369
-1.1010276
-1.1001603
-1.091894
-0.0040962431
-0.012717777
-0.014558119
-0.017831922
-0.021105384
-0.023978552
-0.026563206
-0.02900173
-0.031426036
-0.033914899
-0.036571124
-0.039509187
-0.04277846
-0.046412832
-0.050454173
-0.05489525
-0.059680886
-0.064722703
-0.06985495
-0.074821446
-0.079305864
-0.082915243
-0.085140031
-0.085367764
-0.082932576
-0.077135601
-0.067263104
-0.052625818
-0.032598675
-0.0066457639
0.025688492
0.064731794
0.11043587
0.16257109
0.22069564
0.28415886
0.35207435
0.42334745
0.49677756
0.57105606
0.64475794
0.71641392
0.7845279
0.84761939
0.90425873
0.95305288
0.9927046
1.0220409
1.0400844
1.0460668
1.039485
1.0200369
0.98772971
0.94286242
0.88595804
0.81783009
0.73944318
0.65197927
0.55674253
0.45518779
0.34886412
0.23944376
0.12856661
0.017988486
-0.090684627
-0.1959345
-0.29641799
-0.39104756
-0.47897711
-0.55965551
-0.63279556
-0.69830869
-0.75641425
-0.80743879
-0.85187038
-0.89029887
-0.92334251
-0.9516527
-0.97590478
-0.99668486
-1.0144964
-1.0298062
-1.0430341
-1.0545057
-1.0644936
-1.0732017
-1.080784
-1.0873736
-1.0930549
-1.0979009
-1.1019229
-1.1051469
-1.1075578
-1.1091558
-1.1099441
-1.1098015
-1.10858
-1.1067892
-1.1059363
-1.0976168
-0.0089337565
-0.017606687
-0.019308667
-0.022374135
-0.02543928
-0.027995703
-0.030200227
-0.032278257
-0.034331221
-0.036478088
-0.038879839
-0.041645464
-0.044862807
-0.048631424
-0.053014851
-0.058036194
-0.063694693
-0.069922565
-0.076555885
-0.083360227
-0.09002671
-0.096126435
-0.10110187
-0.10430012
-0.10499147
-0.10237343
-0.095601972
-0.083843149
-0.066312643
-0.042299861
-0.011201751
0.02747934
0.073680387
0.1272139
0.18762439
0.25418632
0.3259058
0.40157241
0.47985872
0.55933578
0.63845868
0.71563929
0.78927828
0.85777767
0.91957428
0.97314485
1.017053
1.0499862
1.0708529
1.0787985
1.073262
1.0539415
1.0208175
0.97421767
0.91474417
0.84326734
0.76085129
0.66873392
0.56833167
0.46119425
0.34899778
0.23354102
0.11666513
0.00027297107
-0.11381758
-0.22388922
-0.32845269
-0.42627996
-0.51640621
-0.5982847
-0.6716883
-0.73665395
-0.79347061
-0.84263921
-0.88479665
-0.92067997
-0.95104937
-0.97666153
-0.99826761
-1.0165345
-1.0320337
-1.0452685
-1.0566789
-1.0666012
-1.0753085
-1.0829879
-1.08975
-1.095729
-1.1009808
-1.1055462
-1.1094036
-1.1125634
-1.1149908
-1.1166354
-1.117497
-1.1174534
-1.116313
-1.1145759
-1.113784
-1.1054091
-0.015398508
-0.024100394
-0.025587055
-0.028449044
-0.031168123
-0.033277267
-0.035021073
-0.036594176
-0.03813114
-0.039812611
-0.041802388
-0.04424759
-0.047307518
-0.051114582
-0.055769447
-0.061363261
-0.067939234
-0.075449697
-0.083769408
-0.092699647
-0.10192517
-0.11098831
-0.1193028
-0.12616429
-0.130746
-0.13211292
-0.12926243
-0.12117272
-0.10685635
-0.085433676
-0.056160613
-0.017882275
0.02894417
0.084209842
0.14746657
0.21789591
0.29436016
0.37549624
0.45980789
0.54570126
0.63149544
0.71547156
0.79590564
0.87107743
0.93926982
0.99878653
1.0480128
1.0854549
1.1098681
1.1202886
1.1160803
1.0969105
1.0627502
1.0139621
0.95125769
0.87559766
0.78815033
0.69026185
0.58345889
0.46940612
0.3499446
0.22696966
0.10255901
-0.021185487
-0.14217173
-0.25838105
-0.36805529
-0.46981047
-0.56261649
-0.64588393
-0.71946386
-0.78351848
-0.83852048
-0.88518527
-0.92436677
-0.95697664
-0.98394924
-1.0061973
-1.0245597
-1.0397798
-1.0525182
-1.0633218
-1.0726291
-1.0807733
-1.088016
-1.0945359
-1.1004208
-1.105765
-1.1105851
-1.1148777
-1.1186204
-1.1217408
-1.1242489
-1.1260146
-1.1269912
-1.1270583
-1.1260333
-1.1244228
-1.1237211
-1.1152827
-0.02360081
-0.032289489
-0.03357612
-0.036099224
-0.03834989
-0.039928902
-0.041058289
-0.041964163
-0.042838725
-0.043868546
-0.045255119
-0.047219718
-0.049961582
-0.053655318
-0.058480578
-0.064593771
-0.072077774
-0.080942184
-0.091126684
-0.10246232
-0.11463637
-0.12719104
-0.13951895
-0.15084271
-0.16021401
-0.16654121
-0.16862289
-0.16519037
-0.15499161
-0.1369486
-0.1105656
-0.072510936
-0.025043913
0.03226934
0.098997722
0.17418082
0.25646985
0.34427299
0.43587259
0.52946331
0.62320814
0.71527283
0.80381568
0.88698299
0.9628839
1.029615
1.085345
1.1283581
1.1571867
1.1706899
1.168113
1.1490729
1.1135807
1.0620769
0.99539773
0.91465671
0.82116203
0.7163934
0.60199272
0.47970389
0.35147182
0.21934579
0.08564885
-0.047191293
-0.17670919
-0.30051554
-0.41653733
-0.52310736
-0.61906918
-0.70383308
-0.77733361
-0.8399304
-0.89239102
-0.93571268
-0.97101344
-0.99944418
-1.0221612
-1.0402465
-1.0546533
-1.066233
-1.0757231
-1.0836987
-1.0905969
-1.0967481
-1.1023844
-1.1076465
-1.1126318
-1.1173328
-1.1217357
-1.1258003
-1.1294852
-1.1326832
-1.135306
-1.1372486
-1.1384413
-1.1386995
-1.1378262
-1.1363439
-1.1357838
-1.1273097
-0.033678059
-0.042388398
-0.04334049
-0.04542365
-0.047133624
-0.048026651
-0.048370194
-0.048446118
-0.04844913
-0.048602169
-0.049179471
-0.050444434
-0.052639777
-0.056025156
-0.060863134
-0.067369668
-0.075702457
-0.085961864
-0.098156087
-0.11215991
-0.12769882
-0.14433412
-0.16143036
-0.17812856
-0.19335254
-0.20583023
-0.21410997
-0.21659474
-0.211615
-0.19747839
-0.17228154
-0.13743953
-0.089902156
-0.030279867
0.040655493
0.12166156
0.21105562
0.306901
0.40719008
0.50987752
0.61295485
0.71448939
0.8125433
0.90513181
0.99018796
1.0655751
1.1291761
1.1789699
1.2131819
1.2304105
1.2297646
1.2108223
1.1736624
1.1188511
1.0474076
0.96063345
0.86006036
0.74729771
0.62402803
0.49208318
0.35343293
0.21033271
0.065388426
-0.07858847
-0.21866532
-0.35188913
-0.47569249
-0.58809318
-0.68771399
-0.77393545
-0.84681363
-0.90716043
-0.95608252
-0.99493167
-1.0251848
-1.0483151
-1.0657343
-1.0787163
-1.0883654
-1.0956502
-1.1013509
-1.1060644
-1.110238
-1.1141868
-1.1181139
-1.1220793
-1.1261439
-1.1302338
-1.1342908
-1.1382385
-1.1419328
-1.1452818
-1.1481283
-1.1503556
-1.1518428
-1.152371
-1.1517404
-1.1504277
-1.1500384
-1.1415567
-0.045854195
-0.054481057
-0.055028938
-0.056617264
-0.057636501
-0.057677302
-0.057067863
-0.056091035
-0.05497459
-0.054010598
-0.053511864
-0.053782233
-0.055151992
-0.057973107
-0.062581717
-0.069284539
-0.078353028
-0.089989024
-0.10428518
-0.12120202
-0.14053811
-0.16188207
-0.18457327
-0.20768648
-0.23002382
-0.25010506
-0.26617365
-0.27624118
-0.27818717
-0.26989918
-0.24948545
-0.2160784
-0.16808966
-0.10561447
-0.02950429
0.058651029
0.15669104
0.26218403
0.37272603
0.48602068
0.59990295
0.71236644
0.8214263
0.92501815
1.020911
1.1066809
1.1798057
1.2378166
1.2785367
1.3002337
1.3018525
1.2829278
1.2436575
1.1847798
1.1076387
1.0137836
0.90498913
0.78303226
0.64959202
0.50650889
0.35573097
0.19963255
0.041112542
-0.11650399
-0.26958832
-0.4144719
-0.54784045
-0.66716696
-0.77084907
-0.85829534
-0.92976047
-0.98671064
-1.0307147
-1.0636164
-1.0873433
-1.1037675
-1.1146145
-1.1213967
-1.1253775
-1.1276202
-1.128946
-1.1299831
-1.1311659
-1.1327403
-1.1348533
-1.1375142
-1.140682
-1.1442693
-1.1481138
-1.152064
-1.1559505
-1.15959
-1.1627685
-1.1653662
-1.16721
-1.1681105
-1.1677837
-1.1667158
-1.1665675
-1.1580921
-0.06026387
-0.068776032
-0.068882767
-0.069840221
-0.07001925
-0.069046783
-0.067259775
-0.064974243
-0.062479054
-0.060098913
-0.058180588
-0.057108583
-0.057308827
-0.059217087
-0.063268398
-0.069896573
-0.079500725
-0.092402963
-0.10882567
-0.12885852
-0.15239588
-0.17907757
-0.20825591
-0.23897029
-0.26990287
-0.29933712
-0.32515955
-0.34491443
-0.35591641
-0.35542629
-0.3409134
-0.31047769
-0.26225995
-0.19638452
-0.11388836
-0.016911916
0.091659707
0.20869438
0.33126919
0.45680148
0.5829986
0.70786412
0.82949213
0.94583756
1.0545105
1.1527048
1.2373589
1.3053797
1.3540229
1.381102
1.3853597
1.366269
1.32424
1.2603043
1.1762496
1.0740591
0.95582961
0.82347624
0.67863837
0.52296235
0.35825064
0.18690121
0.012102269
-0.16221146
-0.3314407
-0.49076711
-0.63585553
-0.7634312
-0.87152137
-0.95943215
-1.0283915
-1.080307
-1.117513
-1.1425323
-1.1578737
-1.1658881
-1.1686528
-1.1679458
-1.1652159
-1.1616165
-1.1579979
-1.1549725
-1.1529003
-1.1519555
-1.152223
-1.1536498
-1.1560493
-1.1592527
-1.1630368
-1.1671637
-1.1713979
-1.1754854
-1.1791804
-1.1822934
-1.1846224
-1.1860094
-1.1860916
-1.1853392
-1.1854519
-1.1770009
-0.077175126
-0.085554999
-0.085102648
-0.085308383
-0.084504778
-0.082302878
-0.079088145
-0.075232258
-0.071044419
-0.06687576
-0.063144645
-0.060322361
-0.058915562
-0.05946512
-0.062540841
-0.068714803
-0.07852832
-0.092470129
-0.11094336
-0.13419986
-0.16226611
-0.19489184
-0.23150504
-0.27114604
-0.31238661
-0.3532662
-0.39127553
-0.42339821
-0.4462148
-0.45609668
-0.44954149
-0.42369538
-0.37580321
-0.30593508
-0.21547936
-0.10748448
0.014022007
0.14489262
0.28149431
0.42093395
0.56090905
0.69960852
0.83538924
0.96636541
1.090045
1.2031534
1.3018748
1.3822007
1.4405666
1.4741426
1.4814126
1.4618331
1.4160738
1.3456924
1.2531397
1.1410803
1.0120986
0.86823253
0.71094331
0.54143296
0.36105605
0.171995
-0.022335367
-0.21713412
-0.40648911
-0.58394423
-0.74358522
-0.88104668
-0.99400877
-1.0810178
-1.1454161
-1.1899414
-1.217812
-1.2324335
-1.2370435
-1.234546
-1.2274335
-1.2177766
-1.207209
-1.1969394
-1.187792
-1.1803165
-1.1747845
-1.1712735
-1.1697634
-1.1700597
-1.1718966
-1.1749468
-1.178887
-1.1834034
-1.1881987
-1.192939
-1.197328
-1.2011362
-1.2041451
-1.2061191
-1.2067058
-1.2063538
-1.2067846
-1.1984458
-0.09689833
-0.10505112
-0.10396291
-0.10329654
-0.10131203
-0.097653542
-0.092763264
-0.087025367
-0.080765765
-0.07439416
-0.068401948
-0.063331754
-0.059785851
-0.058435077
-0.059992585
-0.065181115
-0.074724578
-0.089329126
-0.10961867
-0.13605247
-0.1688602
-0.20798456
-0.25300124
-0.30300756
-0.35650899
-0.41132683
-0.46453414
-0.51244748
-0.55070593
-0.57447619
-0.5788232
-0.55925096
-0.51318661
-0.43864023
-0.33804959
-0.21599522
-0.07838218
0.069100164
0.22191029
0.3768933
0.5319551
0.68574183
0.83717267
0.98478723
1.1261087
1.2572698
1.3733523
1.4689715
1.5393649
1.5808478
1.5914734
1.5707645
1.519789
1.4409529
1.3377516
1.2139167
1.0727568
0.91648604
0.74611569
0.56194683
0.36439837
0.15505991
-0.062596597
-0.28277852
-0.49762892
-0.69815956
-0.87599618
-1.0252232
-1.1441531
-1.2268815
-1.2838478
-1.3177691
-1.3329554
-1.3339337
-1.3248606
-1.3093148
-1.290267
-1.2700668
-1.2504542
-1.2326447
-1.217402
-1.2051616
-1.1960973
-1.1901003
-1.1869715
-1.1863655
-1.1878997
-1.1910706
-1.1954829
-1.2007131
-1.206317
-1.2119686
-1.2172837
-1.2219797
-1.2258267
-1.2285529
-1.2297816
-1.2299057
-1.2307231
-1.2225451
-0.11971461
-0.12759055
-0.12578504
-0.1240756
-0.12071211
-0.11537736
-0.10852107
-0.10053639
-0.091795738
-0.082762197
-0.073979202
-0.066072334
-0.059762502
-0.055847424
-0.055182051
-0.058676342
-0.067287299
-0.081974859
-0.10362662
-0.13298517
-0.17058131
-0.21664707
-0.27099707
-0.33288314
-0.4008371
-0.47252131
-0.54459674
-0.61263154
-0.67111716
-0.71365885
-0.73341632
-0.72391768
-0.68062514
-0.60033741
-0.48641309
-0.34593327
-0.18799173
-0.020592727
0.15074471
0.32278117
0.49391922
0.66365918
0.83199403
0.99838529
1.1605861
1.3138979
1.4517226
1.566661
1.6521283
1.7032414
1.7174746
1.694486
1.6360195
1.5457686
1.428845
1.290656
1.1357462
0.96656915
0.78324319
0.58440085
0.36876777
0.13662849
-0.10885347
-0.36073569
-0.60837597
-0.83882754
-1.0397464
-1.2018655
-1.3182259
-1.4002951
-1.4471055
-1.4661649
-1.4642084
-1.447371
-1.4209843
-1.3894258
-1.3561081
-1.3235825
-1.2936407
-1.2674631
-1.2457061
-1.2285419
-1.2159634
-1.2076785
-1.2032302
-1.202074
-1.203662
-1.2073622
-1.2126116
-1.2189023
-1.2256815
-1.2325451
-1.2390513
-1.2448879
-1.2497515
-1.2533966
-1.2554018
-1.2561215
-1.2574182
-1.2494281
-0.14599526
-0.15353452
-0.15087743
-0.14797846
-0.14305296
-0.13578083
-0.12662842
-0.11601859
-0.1043552
-0.092133753
-0.079956837
-0.068544683
-0.058727229
-0.051423707
-0.047652445
-0.048547879
-0.055332547
-0.06925707
-0.09153946
-0.12330277
-0.16548743
-0.21872958
-0.28321312
-0.35849273
-0.44327492
-0.53517729
-0.63051024
-0.72407736
-0.80904932
-0.87705004
-0.91858157
-0.92395869
-0.88504648
-0.7987871
-0.66675598
-0.50140085
-0.31744634
-0.12630564
0.065803881
0.2560781
0.44379332
0.62979092
0.81588926
1.0032405
1.1902633
1.3712208
1.5368732
1.6766681
1.7812483
1.8440674
1.8619703
1.8348565
1.7654678
1.6592937
1.5240506
1.3679198
1.1974804
1.0155056
0.82056597
0.60845818
0.37488671
0.11781376
-0.16065427
-0.4525303
-0.74322063
-1.0135234
-1.2451111
-1.4261221
-1.5406181
-1.6106827
-1.6400677
-1.6376695
-1.6125364
-1.5726433
-1.5245964
-1.4735624
-1.423335
-1.376593
-1.3351163
-1.2998704
-1.2712712
-1.249209
-1.2333626
-1.2231505
-1.217847
-1.2166798
-1.2188424
-1.22357
-1.2301543
-1.2379281
-1.2462811
-1.2547119
-1.2627175
-1.2699492
-1.2760595
-1.2807933
-1.2837053
-1.2851589
-1.2870245
-1.2792825
-0.1761327
-0.18323632
-0.17962944
-0.17540606
-0.16870377
-0.15921341
-0.1474365
-0.13380478
-0.1187284
-0.10274067
-0.086509888
-0.070829475
-0.056617858
-0.044930932
-0.036980232
-0.034139061
-0.037915313
-0.049905027
-0.071742945
-0.10503234
-0.15123956
-0.21155317
-0.28670668
-0.37675541
-0.4807943
-0.59661531
-0.72035377
-0.84613489
-0.96571132
-1.0683148
-1.1409051
-1.1691351
-1.1396623
-1.0442774
-0.88748318
-0.68781184
-0.47019989
-0.25086223
-0.035975169
0.17318657
0.37727818
0.57890776
0.78281652
0.99332621
1.2103156
1.4265093
1.6284659
1.8007495
1.9299773
2.0071965
2.0284896
1.9942028
1.9085255
1.7796682
1.6192581
1.4398975
1.2516591
1.0580478
0.8548652
0.63317352
0.38378251
0.10062897
-0.21659374
-0.5594938
-0.9080022
-1.2321837
-1.5032527
-1.6874753
-1.8089952
-1.8633675
-1.8669601
-1.8344508
-1.7783973
-1.7089743
-1.6340977
-1.5596464
-1.4897069
-1.4268989
-1.3727614
-1.3279302
-1.292429
-1.2657539
-1.2471128
-1.2355668
-1.2300919
-1.2296051
-1.2330518
-1.2394782
-1.2479862
-1.257787
-1.2681666
-1.2785562
-1.2884131
-1.2973287
-1.3049457
-1.3109571
-1.3149468
-1.3172573
-1.3197546
-1.3123391
-0.21052927
-0.21713442
-0.21249447
-0.20677878
-0.19808047
-0.18611353
-0.17138173
-0.15430308
-0.13529979
-0.11493895
-0.093925697
-0.073101169
-0.053473061
-0.036243732
-0.022821941
-0.014824425
-0.014073469
-0.022573787
-0.042460152
-0.075915223
-0.12506404
-0.19183225
-0.27773394
-0.3835859
-0.50916923
-0.65279856
-0.81078342
-0.97684058
-1.1414112
-1.2910429
-1.4081822
-1.4717332
-1.459763
-1.3546319
-1.1601749
-0.9117414
-0.65094014
-0.3990004
-0.16031351
0.068085661
0.28813616
0.50395785
0.72463698
0.96018093
1.2138825
1.4763082
1.7269549
1.9424743
2.1036682
2.1984649
2.2222015
2.1761183
2.0663484
1.9047429
1.7085766
1.4977385
1.2885497
1.0858957
0.88071484
0.65617832
0.395677
0.087088038
-0.27465533
-0.68320357
-1.111136
-1.5082483
-1.8219473
-2.0360536
-2.144668
-2.1683672
-2.1325699
-2.0580469
-1.9611544
-1.8543537
-1.7467412
-1.6446325
-1.5520999
-1.4715006
-1.4038849
-1.3493128
-1.3071684
-1.2764665
-1.2558826
-1.2439479
-1.2392328
-1.2403466
-1.2459438
-1.2548641
-1.2660084
-1.2784996
-1.2914648
-1.3042426
-1.3162953
-1.3272117
-1.3366148
-1.344142
-1.3493616
-1.3526334
-1.355829
-1.3488237
-0.24966562
-0.25571124
-0.24992829
-0.24256775
-0.23168617
-0.21699222
-0.19897142
-0.17802868
-0.15458794
-0.12921349
-0.10261537
-0.075675739
-0.049489515
-0.025387313
-0.0049570383
0.0099291225
0.017098832
0.014091667
-0.0017943478
-0.03342895
-0.083753105
-0.15563982
-0.25165643
-0.3737218
-0.52270807
-0.69793817
-0.89645967
-1.1121544
-1.3346549
-1.5480146
-1.7294436
-1.8484997
-1.8702759
-1.7587681
-1.5065316
-1.1838833
-0.86968761
-0.58136303
-0.31886258
-0.069661974
0.1670928
0.39487217
0.62936905
0.891201
1.1909279
1.5155885
1.8327301
2.1065718
2.3092894
2.4252321
2.4496001
2.3850772
2.2401704
2.0309134
1.7824896
1.5268743
1.2919493
1.0853557
0.88871166
0.67192348
0.40822252
0.078199443
-0.33268935
-0.82606943
-1.3663079
-1.873236
-2.2585062
-2.4862358
-2.5642199
-2.5347576
-2.4404362
-2.3083393
-2.1584587
-2.0051834
-1.8583427
-1.7242075
-1.6064156
-1.5066691
-1.4251753
-1.3611773
-1.3132312
-1.2795854
-1.2582724
-1.2472572
-1.2445897
-1.248496
-1.2573312
-1.2697085
-1.2843358
-1.3001786
-1.3163152
-1.332018
-1.3467015
-1.3599374
-1.3713282
-1.3805673
-1.3871984
-1.3915295
-1.3955082
-1.3889882
-0.29403759
-0.29943717
-0.29242909
-0.28331499
-0.27007611
-0.25241804
-0.23080974
-0.2056214
-0.17723427
-0.14617572
-0.11314857
-0.079062665
-0.045065588
-0.012579907
0.016644059
0.040470333
0.056359739
0.06137566
0.052194314
0.025143593
-0.023709935
-0.098414376
-0.20289503
-0.34059148
-0.51399244
-0.724058
-0.96936979
-1.2449573
-1.5407575
-1.839577
-2.1137845
-2.3197538
-2.4055377
-2.3000228
-1.9517321
-1.5133571
-1.1327893
-0.82498965
-0.53783361
-0.25941539
-0.00087862159
0.2378131
0.48159515
0.76897713
1.1270445
1.5380689
1.9480177
2.3010383
2.5564708
2.6958029
2.7172759
2.6262056
2.43203
2.1542561
1.8291292
1.5079953
1.238703
1.0353632
0.86258042
0.66737232
0.41104613
0.068267164
-0.39313515
-0.99379613
-1.6991236
-2.3722772
-2.8492371
-3.0761344
-3.0885275
-2.9690487
-2.7911972
-2.5824966
-2.3655686
-2.1558179
-1.9630161
-1.7927069
-1.6474636
-1.5277991
-1.4327184
-1.3603111
-1.3080424
-1.2731444
-1.2528422
-1.2444387
-1.2454378
-1.2536494
-1.2670703
-1.2840144
-1.3030701
-1.3230566
-1.343029
-1.3622082
-1.3799464
-1.3958204
-1.4094823
-1.4206133
-1.4288143
-1.4342879
-1.4391125
-1.433121
-0.34412857
-0.34882036
-0.34054381
-0.32957781
-0.3138428
-0.29304397
-0.26760793
-0.23782317
-0.20399452
-0.16659642
-0.1263011
-0.083999745
-0.040840393
0.0016971149
0.041720531
0.076856677
0.10421991
0.12039274
0.12138108
0.10260339
0.058963637
-0.015000926
-0.1249092
-0.27620287
-0.4736296
-0.72057374
-1.0181606
-1.3639606
-1.7500716
-2.1610789
-2.5690255
-2.9119376
-3.1242689
-3.0428989
-2.5827526
-1.960464
-1.512419
-1.2039961
-0.8794195
-0.5340835
-0.23300332
0.01779581
0.25982597
0.57165686
1.0100343
1.5443993
2.0819116
2.5397486
2.8590573
3.0213664
3.0343335
2.9075147
2.6478513
2.2744287
1.8347495
1.4112311
1.0912689
0.90577464
0.78134877
0.62272721
0.37564777
0.018421979
-0.48789727
-1.2164218
-2.1589109
-3.0701858
-3.6539346
-3.7522366
-3.6655314
-3.4682575
-3.181531
-2.8744482
-2.5748006
-2.2980456
-2.0527271
-1.8426879
-1.6686619
-1.5293427
-1.4219954
-1.3430981
-1.2887823
-1.2550774
-1.2381848
-1.2346469
-1.2413701
-1.2556691
-1.2752003
-1.2980453
-1.3226
-1.3475936
-1.3720603
-1.3952245
-1.4164483
-1.435287
-1.4514379
-1.4646337
-1.4744801
-1.481189
-1.4869013
-1.4815214
-0.4004545
-0.40438954
-0.39481196
-0.38193727
-0.3636424
-0.33960305
-0.31015326
-0.27547149
-0.23577208
-0.19144747
-0.14308386
-0.091489785
-0.037764314
0.01659913
0.069617556
0.11875149
0.16082538
0.19194787
0.20742309
0.20168782
0.16834063
0.1002573
-0.010241704
-0.17111347
-0.39008085
-0.67391017
-1.0274984
-1.4527014
-1.9460994
-2.4977313
-3.0867274
-3.6811014
-4.2814357
-4.4685158
-3.9775125
-2.9996451
-2.3659393
-1.9795873
-1.5342737
-1.0019779
-0.58253719
-0.29354115
-0.071454872
0.24320126
0.78454031
1.5055817
2.2256771
2.8314369
3.2274152
3.4091259
3.4057428
3.2327883
2.8920879
2.3918378
1.7850436
1.2040223
0.79634464
0.64278326
0.59942345
0.46836293
0.18026417
-0.23815028
-0.78400536
-1.6992701
-3.0828582
-4.4092139
-4.8404834
-4.8441484
-4.4790072
-4.0551196
-3.6095704
-3.1750259
-2.7749983
-2.4206455
-2.1170367
-1.8649004
-1.6621317
-1.5047625
-1.3877686
-1.3055683
-1.2525448
-1.2233439
-1.2130313
-1.2172243
-1.2321352
-1.2546079
-1.2819834
-1.3121808
-1.343416
-1.3743446
-1.4040288
-1.4317083
-1.4567649
-1.4788158
-1.4976217
-1.5130158
-1.524572
-1.5325828
-1.539197
-1.5344711
-0.46352745
-0.46664835
-0.45578289
-0.4410252
-0.42018062
-0.39286728
-0.35929907
-0.31952892
-0.27365137
-0.22192029
-0.16476814
-0.10286037
-0.037188878
0.030817653
0.099184865
0.16530601
0.2257982
0.27633988
0.31154612
0.32485286
0.30844929
0.25330957
0.14931044
-0.01453991
-0.24967826
-0.56730205
-0.97758163
-1.4888597
-2.1056617
-2.8318134
-3.6675917
-4.6280358
-5.8638412
-6.5371934
-6.1726501
-4.7546226
-3.9688013
-3.3485121
-2.6569069
-1.7937364
-1.1280264
-0.73499158
-0.56296939
-0.23454009
0.42959289
1.4802943
2.4223701
3.208852
3.6657692
3.8472825
3.8134074
3.5901035
3.1608832
2.504663
1.6483464
0.80104398
0.24147175
0.17607851
0.25613645
0.069664222
-0.39544455
-0.98085871
-1.6170166
-2.8562395
-4.7791523
-6.9661055
-7.2154874
-6.4979126
-5.4962463
-4.7377555
-4.0650728
-3.4685906
-2.9502242
-2.5087965
-2.1429158
-1.8482588
-1.6186648
-1.4466999
-1.3243639
-1.2435412
-1.1964935
-1.176189
-1.1763764
-1.1917537
-1.2178057
-1.2509141
-1.2881382
-1.3271817
-1.3662758
-1.4040529
-1.4395929
-1.4722303
-1.5014559
-1.5269246
-1.5485225
-1.5661372
-1.5794569
-1.5887639
-1.5962946
-1.5922355
-0.5338092
-0.53609754
-0.52403367
-0.50748384
-0.48416683
-0.45364134
-0.41598736
-0.37109824
-0.3188953
-0.25943239
-0.19292676
-0.1198327
-0.040942954
0.042497847
0.12866171
0.21499547
0.29802317
0.3731095
0.43426662
0.47396225
0.48292211
0.45003091
0.36236298
0.20535418
-0.036916861
-0.38110205
-0.8441427
-1.4430617
-2.1945779
-3.12618
-4.2356302
-5.6235695
-7.356994
-8.4726857
-7.9401662
-3.5181445
-3.6331393
-4.9527898
-4.0302442
-2.906594
-1.9444988
-1.4476308
-1.336274
-1.1198667
0.001001656
1.6534948
2.6606939
3.6062768
4.1267703
4.2740254
4.1906836
3.9368004
3.4528899
2.6498364
1.4832161
0.22494478
-0.70885266
-0.76505119
-0.45651545
-0.72803971
-1.4726613
-2.2935302
-2.8981882
-3.6447454
-7.0272683
-9.9985649
-10.38786
-8.4972346
-6.6556742
-5.4640531
-4.5187049
-3.7301248
-3.07932
-2.5444203
-2.1148476
-1.7797412
-1.5277337
-1.3470318
-1.2258356
-1.1529442
-1.1180908
-1.1122804
-1.1278427
-1.1585057
-1.1990803
-1.2455059
-1.2946757
-1.3441806
-1.3922968
-1.4377507
-1.4797214
-1.517679
-1.5512446
-1.5802226
-1.6046432
-1.6244685
-1.639515
-1.6500771
-1.6584619
-1.6551239
-0.61173813
-0.61322619
-0.60010622
-0.58190878
-0.55629763
-0.52277272
-0.48124217
-0.43139502
-0.37292893
-0.3056422
-0.22946994
-0.14456
-0.051377866
0.049162454
0.15553716
0.26541067
0.37539144
0.48073207
0.57501789
0.64985397
0.69453035
0.69575368
0.63749838
0.50105407
0.26514427
-0.093422101
-0.59977462
-1.2797298
-2.1628158
-3.2895794
-4.6850146
-6.5172424
-8.6863962
-9.8614248
-8.6681525
-2.8686836
-2.4485815
-5.540705
-4.8628227
-3.8940358
-2.8339843
-2.2589244
-1.8099588
-2.1922112
-0.94867894
1.2981331
2.6595641
3.8427739
4.4500529
4.5054462
4.3546445
4.1108395
3.6082458
2.6390425
1.3681358
-0.13062142
-2.0617968
-2.1800046
-1.6695284
-1.9393394
-3.0076165
-4.0950024
-3.9149247
-5.4521089
-9.9074934
-12.42593
-12.22921
-10.137004
-7.7329523
-6.1366702
-4.9181717
-3.9292646
-3.1381644
-2.5067684
-2.014748
-1.6443728
-1.3775774
-1.1970277
-1.0861787
-1.0299865
-1.0152891
-1.0309022
-1.0676986
-1.1183728
-1.177211
-1.2398718
-1.3031429
-1.3646689
-1.4228701
-1.476702
-1.5255227
-1.5689947
-1.6069387
-1.6394022
-1.6665241
-1.6884633
-1.7051128
-1.7168508
-1.7259513
-1.7233548
-0.69770823
-0.69843059
-0.68444598
-0.6648407
-0.63725787
-0.60112078
-0.55612296
-0.50171461
-0.43733042
-0.36245194
-0.27664276
-0.17962664
-0.071399115
0.047619554
0.17639613
0.31304242
0.45451618
0.59624346
0.73166877
0.8517809
0.94459729
0.99466726
0.98264781
0.88511129
0.67450662
0.31965052
-0.21473569
-0.96455253
-1.976749
-3.3036366
-5.0050103
-7.3003299
-9.8402065
-11.683935
-11.212553
-6.2581713
-4.4688565
-7.0934267
-5.4611582
-4.3381295
-3.4421226
-2.8878263
-1.7863222
0.5537481
1.2065958
-1.8037327
-1.3765524
2.1445334
3.8333451
4.0152781
3.8460496
3.542344
2.7098378
0.61253836
-1.987233
-2.5394703
-3.4311234
-3.3989559
-2.8832138
-3.1549116
-4.498779
-5.8739503
-4.9316676
-8.7507344
-12.073026
-14.469382
-13.559611
-11.262372
-8.7155202
-6.7494488
-5.2477058
-4.0425564
-3.1002332
-2.3714662
-1.8219087
-1.4254503
-1.1556698
-0.98790762
-0.89975191
-0.87163344
-0.88701999
-0.93240819
-0.99717986
-1.0731715
-1.1543211
-1.2361734
-1.3156269
-1.3905756
-1.4597481
-1.5224195
-1.5782899
-1.6272699
-1.669471
-1.7051828
-1.7347719
-1.758558
-1.7765978
-1.7893184
-1.798998
-1.7970952
-0.79197686
-0.79197659
-0.77739837
-0.7567551
-0.72768154
-0.68950444
-0.64168538
-0.58341264
-0.51381061
-0.43197285
-0.33699115
-0.22804433
-0.10451309
0.033860948
0.18677155
0.3530748
0.5304266
0.71481649
0.89998983
1.0767711
1.2322644
1.34902
1.4042441
1.3692187
1.2091066
0.88263376
0.34279562
-0.46144879
-1.6004501
-3.1568949
-5.2376787
-8.1362122
-11.706153
-14.17757
-14.151183
-11.731352
-6.6892997
-7.4276016
-5.6167926
-3.883125
-3.7113942
-3.4467784
12.678272
17.689486
7.8074659
5.1198382
-7.689024
-2.0402148
1.4754983
2.3413088
2.3188037
1.5860062
-0.38258344
-4.5096289
-7.7205818
5.9307835
-6.6181662
-3.7780699
-3.0038703
-3.7629449
-5.3538119
-7.4315034
-6.0860831
-11.636018
-14.610908
-16.325487
-15.509357
-12.767207
-9.7651641
-7.3824606
-5.5241093
-4.0554718
-2.9422195
-2.1134327
-1.5144576
-1.1052019
-0.84896971
-0.71108787
-0.66180623
-0.67611166
-0.73365097
-0.81857651
-0.91890412
-1.0259392
-1.1335145
-1.2374129
-1.3349419