/*--------------------------------*- C++ -*----------------------------------*\
  =========                 |
  \\      /  F ield         | OpenFOAM: The Open Source CFD Toolbox
   \\    /   O peration     | Website:  https://openfoam.org
    \\  /    A nd           | Version:  9
     \\/     M anipulation  |
\*---------------------------------------------------------------------------*/
FoamFile
{
    format      ascii;
    class       surfaceScalarField;
    location    "0.27";
    object      phi;
}
// * * * * * * * * * * * * * * * * * * * * * * * * * * * * * * * * * * * * * //

dimensions      [0 3 -1 0 0 0 0];

internalField   nonuniform List<scalar> 
19800
(
0.00016733075
-0.00015724144
0.00023937719
-0.00015685244
0.00031116416
-0.00015671783
0.00038259295
-0.00015638767
0.00045356954
-0.00015581642
0.00052404013
-0.00015513133
0.00059391952
-0.00015428887
0.00066310195
-0.0001532453
0.00073147035
-0.00015199038
0.000798894
-0.00015051074
0.00086523146
-0.00014878339
0.00093032461
-0.000146788
0.00099399374
-0.00014450665
0.0010560419
-0.00014191661
0.0011162598
-0.00013899786
0.001174406
-0.00013573016
0.0012302054
-0.00013209213
0.0012833728
-0.00012805491
0.0013336213
-0.00012359718
0.00138062
-0.00011869182
0.0014239447
-0.00011330505
0.0014631362
-0.00010736289
0.001497782
-0.000100734
0.001527609
-9.3207966e-05
0.0015523838
-8.4615451e-05
0.0015717886
-7.4827439e-05
0.0015853713
-6.3679411e-05
0.0015926656
-5.0916503e-05
0.0015934578
-3.6406648e-05
0.0015882017
-2.0290488e-05
0.0015787997
-3.4171351e-06
0.0015650929
1.5912284e-05
0.0015421242
3.5423786e-05
0.0015104
5.5153839e-05
0.0014698894
7.5869294e-05
0.0014205454
9.7611976e-05
0.0013623842
0.0001202281
0.0012955049
0.00014363956
0.001220127
0.00016774645
0.0011366097
0.00019220011
0.0010454142
0.00021666968
0.00094716657
0.00024088708
0.00084261356
0.00026435181
0.0007325009
0.00028648161
0.00061760442
0.00030677161
0.00049870462
0.00032472442
0.00037651423
0.00033983253
0.00025167461
0.00035167058
0.00012477343
0.00035994574
-3.5876539e-06
0.00036451048
-0.00013228465
0.00036536058
-0.00026002614
0.00036248948
-0.00038601806
0.0003558597
-0.00050961711
0.00034560991
-0.00063014782
0.00033195881
-0.00074687704
0.00031525225
-0.00085900873
0.00029595591
-0.00096569544
0.00027462094
-0.0010661206
0.0002518115
-0.0011595478
0.00022795407
-0.001245358
0.0002034606
-0.0013230498
0.00017880597
-0.001392233
0.00015437171
-0.0014526735
0.00013047392
-0.0015042434
0.00010724985
-0.0015469403
8.474434e-05
-0.0015808769
6.3187865e-05
-0.0016061885
4.27268e-05
-0.0016227471
2.2897901e-05
-0.0016312883
2.3543329e-06
-0.0016365192
-1.5017504e-05
-0.0016362237
-3.1941992e-05
-0.0016293734
-4.7547786e-05
-0.0016158774
-6.149359e-05
-0.0015961499
-7.3735038e-05
-0.001570699
-8.4454367e-05
-0.0015398682
-9.3885427e-05
-0.0015039307
-0.00010214855
-0.0014632192
-0.00010943693
-0.0014181805
-0.00011593953
-0.0013693166
-0.00012180789
-0.0013171003
-0.00012712022
-0.0012619091
-0.00013189751
-0.0012040482
-0.00013616591
-0.0011438141
-0.00013996072
-0.0010814999
-0.00014331666
-0.001017376
-0.00014627138
-0.00095167624
-0.00014885119
-0.00088460771
-0.00015108953
-0.00081635422
-0.00015301777
-0.0007470818
-0.00015466492
-0.00067694301
-0.00015605443
-0.00060606388
-0.00015721072
-0.00053455411
-0.00015815404
-0.0004625159
-0.0001589011
-0.0003900282
-0.0001594933
-0.00031713776
-0.00015998436
-0.00024392221
-0.00016028915
-0.00017049369
-0.00016035142
-0.00016072568
0.00016714245
-0.0002296972
0.00023933091
-0.00022903853
0.00031127728
-0.00022865904
0.00038286694
-0.00022797658
0.00045402484
-0.00022697557
0.00052469064
-0.00022579853
0.00059477907
-0.00022437604
0.00066418771
-0.00022265186
0.00073280283
-0.00022060588
0.00080049533
-0.00021820453
0.00086712178
-0.00021541138
0.00093252328
-0.00021219129
0.00099652139
-0.00020850658
0.0010589194
-0.00020431608
0.0011195004
-0.00019957865
0.0011780315
-0.00019426052
0.0012342528
-0.00018831477
0.0012878892
-0.00018169394
0.0013386399
-0.00017434918
0.0013861758
-0.0001662275
0.0014301305
-0.00015725885
0.0014701413
-0.00014737148
0.0015058477
-0.00013643674
0.001536946
-0.00012430364
0.001563149
-0.0001108181
0.0015841642
-9.5843509e-05
0.0015997424
-7.9258061e-05
0.0016097764
-6.0950462e-05
0.001614156
-4.0785786e-05
0.001612614
-1.8747577e-05
0.00160409
5.1077849e-06
0.0015891338
3.0868359e-05
0.0015669193
5.7636628e-05
0.0015364998
8.557094e-05
0.0014975585
0.00011480866
0.001449818
0.00014535162
0.0013930696
0.00017697588
0.0013272836
0.00020942426
0.0012525825
0.00024244589
0.0011691908
0.00027559028
0.0010774941
0.00030836555
0.00097810694
0.00034027504
0.0008716994
0.00037076069
0.00075896453
0.00039921769
0.00064070205
0.00042503477
0.00051777453
0.00044764992
0.0003910523
0.00046655184
0.00026142321
0.00048129804
0.00012981872
0.00049154875
-2.7270812e-06
0.00049705549
-0.00013546511
0.00049809682
-0.0002677163
0.00049473995
-0.0003984832
0.0004866276
-0.00052673534
0.0004738657
-0.00065150982
0.00045673588
-0.00077187785
0.00043562355
-0.00088693875
0.00041101693
-0.00099581647
0.00038349942
-0.0010977009
0.00035369576
-0.0011918868
0.00032214142
-0.0012778218
0.00028939788
-0.0013550875
0.00025607113
-0.0014234067
0.00022269219
-0.0014826566
0.00018971862
-0.0015328078
0.00015740032
-0.0015740407
0.00012597655
-0.0016066411
9.5784651e-05
-0.0016308352
6.6920749e-05
-0.0016470921
3.9155473e-05
-0.0016572742
1.2535853e-05
-0.0016595407
-1.2749226e-05
-0.0016554533
-3.6030011e-05
-0.0016454083
-5.7594423e-05
-0.0016295671
-7.7333823e-05
-0.0016080447
-9.5257289e-05
-0.0015810191
-0.00011148204
-0.0015487959
-0.00012610919
-0.0015116902
-0.00013925263
-0.0014700596
-0.00015106544
-0.0014242991
-0.00016169826
-0.0013748114
-0.00017129554
-0.0013220064
-0.00017992559
-0.0012662472
-0.00018765649
-0.0012078616
-0.00019454791
-0.0011471603
-0.00020065923
-0.0010844262
-0.00020605157
-0.0010199128
-0.00021078763
-0.00095384205
-0.00021492155
-0.00088642848
-0.00021850268
-0.00081786251
-0.00022158315
-0.00074830843
-0.00022421549
-0.00067791665
-0.00022644774
-0.00060681252
-0.00022831829
-0.00053510293
-0.00022986629
-0.0004628845
-0.00023112218
-0.00039023286
-0.00023214554
-0.00031720941
-0.00023302068
-0.00024388807
-0.00023363964
-0.0001703663
-0.00023390678
-0.00023449214
0.00016776208
-0.0003023354
0.00024010984
-0.00030138123
0.00031222794
-0.00030077641
0.00038400303
-0.00029975262
0.00045539144
-0.00029836526
0.0005263226
-0.00029672862
0.00059670348
-0.00029475472
0.00066643238
-0.0002923808
0.00073539826
-0.00028957281
0.00080347728
-0.00028628442
0.00087052804
-0.00028246273
0.0009363911
-0.00027805509
0.0010008876
-0.00027300446
0.0010638302
-0.00026725954
0.0011250371
-0.00026078592
0.0011842334
-0.00025345866
0.0012411488
-0.00024523324
0.0012954951
-0.00023604213
0.0013470208
-0.00022587536
0.0013954133
-0.00021462003
0.0014403101
-0.00020215471
0.0014814047
-0.00018846352
0.0015183159
-0.00017334516
0.0015507772
-0.0001567637
0.0015784687
-0.00013850946
0.0016011221
-0.00011849668
0.0016184438
-9.6578762e-05
0.0016301671
-7.2672134e-05
0.0016360628
-4.6679085e-05
0.0016357501
-1.8432147e-05
0.0016283826
1.2477169e-05
0.0016148691
4.438211e-05
0.001593908
7.8596795e-05
0.0015648318
0.00011464613
0.0015271924
0.00015244744
0.0014805786
0.00019196469
0.0014247945
0.00023275855
0.0013597686
0.00027444748
0.0012855418
0.00031666989
0.001202281
0.00035884918
0.0011102616
0.0004003847
0.0010099407
0.00044059753
0.00090197142
0.00047873162
0.00078703855
0.00051415063
0.00066588505
0.00054618795
0.00053936002
0.00057417395
0.00040837833
0.00059753236
0.00027391559
0.00061576111
0.00013699616
0.00062846792
-1.3402679e-06
0.00063539101
-0.00013999464
0.00063674898
-0.000277815
0.00063255814
-0.00041368388
0.00062249581
-0.00054649013
0.00060667432
-0.00067519306
0.00058544103
-0.00079881038
0.00055924443
-0.00091642835
0.00052863572
-0.0010271828
0.00049425711
-0.0011302746
0.0004567884
-0.0012250846
0.00041695401
-0.0013111212
0.00037543352
-0.0013880706
0.00033301785
-0.0014558001
0.00029042152
-0.0015141585
0.00024807655
-0.001563261
0.00020650476
-0.0016033376
0.00016605336
-0.0016346423
0.00012708822
-0.0016576373
8.9913619e-05
-0.0016728178
5.4336473e-05
-0.0016810475
2.0767944e-05
-0.0016824982
-1.1297157e-05
-0.0016770763
-4.1451536e-05
-0.0016654124
-6.926043e-05
-0.0016478402
-9.4908019e-05
-0.0016245941
-0.00011850357
-0.0015959692
-0.00014010559
-0.0015622596
-0.00015981735
-0.0015238366
-0.00017767463
-0.0014809988
-0.00019390214
-0.0014341406
-0.00020855549
-0.0013836967
-0.00022173925
-0.0013299805
-0.0002336403
-0.0012734021
-0.00024423275
-0.0012142586
-0.0002536892
-0.0011528141
-0.00026210291
-0.0010893798
-0.00026948668
-0.0010242222
-0.00027594722
-0.0009575968
-0.00028154582
-0.00088968958
-0.00028640728
-0.00082067962
-0.00029059371
-0.0007507266
-0.00029416813
-0.00067997922
-0.00029719533
-0.00060856423
-0.00029973619
-0.00053658511
-0.00030184628
-0.00046413246
-0.00030357493
-0.000391282
-0.00030498779
-0.00031810074
-0.00030618705
-0.0002446416
-0.0003070905
-0.00017100366
-0.00030756233
-0.00030841578
0.00016829472
-0.00037510334
0.00024086259
-0.00037394836
0.00031322648
-0.00037314108
0.00038526372
-0.00037179092
0.00045695397
-0.00037005434
0.00052822457
-0.0003679969
0.0005989845
-0.00036551461
0.00066913766
-0.00036253525
0.00073857934
-0.00035901534
0.00080719044
-0.00035489529
0.00087483059
-0.00035010233
0.00094134325
-0.00034456832
0.0010065594
-0.00033822178
0.0010702846
-0.00033098573
0.0011322779
-0.00032278137
0.0011923174
-0.00031350128
0.0012501709
-0.00030308872
0.0013055841
-0.0002914557
0.0013582356
-0.00027852704
0.0014077973
-0.00026418175
0.0014539886
-0.00024834462
0.0014964415
-0.00023091384
0.0015348677
-0.00021176932
0.0015689191
-0.00019081423
0.0015983263
-0.00016791594
0.0016227858
-0.00014295486
0.0016420152
-0.00011580622
0.0016557235
-8.6377696e-05
0.0016635738
-5.4525861e-05
0.0016652362
-2.009138e-05
0.0016610126
1.6702478e-05
0.0016491918
5.6202765e-05
0.001629792
9.7995943e-05
0.0016023416
0.00014209614
0.0015661251
0.00018866322
0.0015206778
0.00023741048
0.0014657173
0.00028771677
0.0014009974
0.00033916483
0.0013264542
0.00039121125
0.0012422274
0.00044307577
0.0011486545
0.00049395851
0.001046232
0.00054302134
0.00093553962
0.00058942513
0.00081731135
0.00063237829
0.00069239013
0.00067110852
0.00056161972
0.00070494465
0.00042594908
0.0007332029
0.00028641447
0.00075529553
0.00014408153
0.0007707991
5.8954823e-08
0.00077941018
-0.00014434138
0.00078114661
-0.00028773309
0.00077594889
-0.00042889293
0.00076365696
-0.00056668971
0.00074447493
-0.0007000009
0.00071875472
-0.00082775805
0.00068700575
-0.0009489745
0.00064985214
-0.0010627226
0.00060800751
-0.0011682299
0.00056229388
-0.001264842
0.00051356736
-0.0013520873
0.00046267739
-0.0014296087
0.00041054096
-0.0014972202
0.00035803367
-0.0015550047
0.00030586357
-0.0016031328
0.00025463462
-0.0016419033
0.00020481949
-0.0016717758
0.00015696041
-0.0016931834
0.00011132164
-0.0017066764
6.7826839e-05
-0.0017125732
2.666685e-05
-0.0017116317
-1.2236348e-05
-0.0017043068
-4.8780066e-05
-0.0016907332
-8.2837227e-05
-0.001671199
-0.0001144412
-0.0016460173
-0.00014368345
-0.0016155093
-0.00017061381
-0.0015800727
-0.00019525537
-0.0015399697
-0.00021777794
-0.0014956012
-0.00023826998
-0.0014473235
-0.00025683158
-0.0013954954
-0.0002735647
-0.0013405306
-0.00028860113
-0.0012827339
-0.00030202704
-0.0012224664
-0.00031395672
-0.0011600566
-0.00032451248
-0.0010957477
-0.0003337944
-0.0010297878
-0.00034190825
-0.00096239113
-0.00034894416
-0.0008937829
-0.00035501592
-0.00082414958
-0.00036022839
-0.00075365033
-0.00036466797
-0.00068242216
-0.00036842217
-0.00061058549
-0.00037157739
-0.0005382414
-0.00037419523
-0.00046547149
-0.0003763502
-0.00039235579
-0.00037811347
-0.00031895143
-0.0003795961
-0.00024529806
-0.0003807346
-0.00017147936
-0.00038138445
-0.00038241026
0.00016902953
-0.00044808945
0.0002418629
-0.00044678231
0.00031451066
-0.00044578935
0.00038689272
-0.00044417127
0.00045897053
-0.00044212925
0.00053066627
-0.00043969214
0.00060189739
-0.00043674696
0.00067258595
-0.0004332247
0.00074262714
-0.00042905587
0.00081190617
-0.00042417267
0.00088028371
-0.00041847926
0.0009476095
-0.00041189478
0.0010137132
-0.00040432641
0.0010784006
-0.00039567493
0.001141457
-0.00038584034
0.0012026704
-0.00037471603
0.0012617826
-0.00036220046
0.001318518
-0.0003481908
0.0013725645
-0.00033257397
0.0014236414
-0.00031525838
0.0014714325
-0.00029613383
0.0015156385
-0.0002751177
0.001555912
-0.00025204143
0.0015919493
-0.00022685083
0.0016234569
-0.00019942285
0.0016501559
-0.00016965273
0.001671749
-0.00013739747
0.001687933
-0.00010255881
0.0016983958
-6.498557e-05
0.0017028804
-2.4573838e-05
0.0017005359
1.9047454e-05
0.0016913728
6.5365179e-05
0.0016745036
0.00011486437
0.0016492701
0.0001673293
0.0016150586
0.00022287424
0.0015712547
0.00028121351
0.0015173555
0.00034161519
0.0014530434
0.0004034765
0.0013781921
0.00046606263
0.0012928671
0.00052840136
0.0011973459
0.00058948034
0.001092079
0.00064828846
0.00097775963
0.00070374488
0.00085515625
0.00075498137
0.0007251566
0.00080110719
0.00058877867
0.00084132198
0.00044708372
0.00087489616
0.00030116974
0.00090120664
0.00015227286
0.00091969371
1.7285319e-06
0.00092995225
-0.00014920643
0.00093208193
-0.00029927605
0.0009260213
-0.00044709155
0.00091147571
-0.00059130947
0.00088869664
-0.00073065834
0.00085810323
-0.00086390775
0.0008202555
-0.00098994335
0.00077588577
-0.0011077579
0.0007258231
-0.0012164784
0.00067101456
-0.0013154159
0.00061250959
-0.0014040402
0.00055130109
-0.0014820808
0.00048858514
-0.0015494832
0.00042543382
-0.0016063925
0.00036277153
-0.0016531198
0.00030136378
-0.0016901167
0.00024181314
-0.0017179348
0.0001847753
-0.0017370688
0.0001304581
-0.001748228
7.8987001e-05
-0.0017520271
3.0461328e-05
-0.0017486521
-1.561461e-05
-0.0017387211
-5.871265e-05
-0.0017226116
-9.894779e-05
-0.0017006189
-0.0001364348
-0.0016730784
-0.00017122441
-0.001640349
-0.00020334388
-0.001602702
-0.00023290356
-0.0015605209
-0.0002599588
-0.0015141806
-0.0002846089
-0.0014640553
-0.00030695427
-0.001410517
-0.00032710023
-0.0013539406
-0.00034517574
-0.0012946596
-0.00036130757
-0.0012330003
-0.00037561614
-0.0011692758
-0.00038823474
-0.0011037663
-0.00039929997
-0.0010367285
-0.00040894534
-0.00096837679
-0.00041729659
-0.00089890921
-0.0004244823
-0.00082850886
-0.00043062686
-0.00075732979
-0.00043584665
-0.00068550513
-0.00044024585
-0.00061314882
-0.00044393129
-0.00054034882
-0.00044699344
-0.00046718538
-0.00044951364
-0.00039373634
-0.00045156845
-0.00032004454
-0.00045329319
-0.00024615826
-0.00045461795
-0.00017212769
-0.0004554136
-0.00045656263
0.0001699272
-0.00052135298
0.00024307242
-0.00051992751
0.00031605483
-0.00051876945
0.00038883384
-0.00051694702
0.00046135046
-0.00051464488
0.00053354827
-0.00051189087
0.00060535667
-0.00050855624
0.00067669084
-0.00050455815
0.00074745972
-0.00049982256
0.00081753672
-0.00049424813
0.00088680753
-0.00048774995
0.00095512415
-0.0004802118
0.0010223179
-0.00047152118
0.0010882011
-0.00046155975
0.0011525652
-0.00045020489
0.0012151845
-0.00043733407
0.0012757974
-0.00042281227
0.0013341526
-0.00040654667
0.0013899364
-0.00038835859
0.0014428595
-0.00036818069
0.0014926079
-0.00034588042
0.0015388399
-0.00032134844
0.001581268
-0.00029446895
0.0016195744
-0.00026515721
0.0016534627
-0.00023331112
0.0016826297
-0.00019881926
0.0017068198
-0.0001615861
0.0017257026
-0.00012143924
0.0017389865
-7.8267439e-05
0.001746276
-3.1862735e-05
0.0017471466
1.8176425e-05
0.0017409439
7.156716e-05
0.0017271563
0.00012865169
0.0017048404
0.00018964555
0.0016733003
0.00025441543
0.0016317101
0.00032280473
0.0015793739
0.00039395243
0.0015157732
0.00046707798
0.0014406415
0.00054119413
0.0013540194
0.00061502298
0.0012561658
0.00068733391
0.0011476211
0.0007568332
0.0010290367
0.00082232913
0.0009012708
0.00088274657
0.00076532115
0.00093705455
0.00062225154
0.00098438905
0.00047325299
0.001023893
0.00031960694
0.0010548503
0.00016265902
0.0010766418
3.8582766e-06
0.0010887544
-0.00015542181
0.0010913644
-0.00031379427
0.0010843972
-0.0004697287
0.0010674112
-0.00062172067
0.0010406887
-0.00076831325
0.0010046941
-0.00090813291
0.00096007399
-0.0010399153
0.0009076693
-0.0011625611
0.00084847213
-0.0012750467
0.0007835021
-0.0013766177
0.00071408529
-0.0014668164
0.00064149873
-0.0015453625
0.00056713133
-0.0016122697
0.00049233781
-0.0016678362
0.00041833612
-0.001712587
0.00034611315
-0.0017471546
0.00027638129
-0.001772288
0.00020991057
-0.0017887142
0.00014688127
-0.0017970553
8.732496e-05
-0.0017978942
3.1299165e-05
-0.0017917893
-2.1722364e-05
-0.0017791488
-7.1355931e-05
-0.0017603104
-0.00011778809
-0.0017356288
-0.00016111841
-0.0017054501
-0.00020140535
-0.0016700938
-0.00023870254
-0.0016299211
-0.0002730772
-0.0015853144
-0.00030456402
-0.0015366478
-0.00033327313
-0.0014842921
-0.00035930803
-0.0014286628
-0.00038272895
-0.0013701068
-0.00040373155
-0.0013089778
-0.00042243527
-0.0012456179
-0.00043897412
-0.0011803249
-0.00045352754
-0.0011133794
-0.00046624608
-0.0010450327
-0.00047729242
-0.00097550686
-0.00048682532
-0.0009049929
-0.00049499752
-0.00083366376
-0.00050195582
-0.00076166798
-0.00050784352
-0.00068912512
-0.00051279174
-0.00061614459
-0.00051691568
-0.00054280557
-0.00052033152
-0.00046918626
-0.00052313208
-0.00039534159
-0.00052541417
-0.00032132293
-0.0005273155
-0.00024715961
-0.00052877918
-0.00017288454
-0.00052968762
-0.00053092014
0.00017092538
-0.00059494331
0.0002444363
-0.00059343574
0.00031781306
-0.00059214292
0.00039104142
-0.00059017435
0.00046406718
-0.00058767116
0.00053683878
-0.00058466311
0.00060929849
-0.00058101533
0.00068136746
-0.00057662506
0.00075296227
-0.00057141566
0.00082398116
-0.00056526649
0.00089429573
-0.00055806439
0.00096376772
-0.0005496841
0.0010322403
-0.00053999467
0.001099528
-0.0005288475
0.001165425
-0.00051610018
0.001229701
-0.00050160871
0.0012921111
-0.00048522322
0.0013523582
-0.00046679566
0.0014101793
-0.00044618026
0.0014652533
-0.00042325402
0.0015172641
-0.00039789031
0.0015658751
-0.00036995914
0.0016107734
-0.00033936742
0.0016516429
-0.00030602703
0.0016882044
-0.00026987277
0.0017201534
-0.00023076762
0.0017472259
-0.000188657
0.0017691994
-0.00014341067
0.0017857326
-9.4799475e-05
0.0017964643
-4.2594297e-05
0.0018008908
1.3749679e-05
0.0017983806
7.4077511e-05
0.0017883743
0.00013865869
0.0017697905
0.00020823085
0.0017416354
0.00028257276
0.0017028589
0.0003615828
0.0016524666
0.00044434503
0.0015897355
0.00052980825
0.0015143006
0.00061662784
0.0014260784
0.00070324426
0.0013253707
0.00078804173
0.0012127887
0.00086941552
0.0010891036
0.00094601327
0.00095529612
0.0010165526
0.00081241298
0.0010799363
0.00066162012
0.0011351805
0.00050419822
0.0011813161
0.00034153445
0.0012175143
0.00017510456
0.0012430718
6.4835673e-06
0.0012573762
-0.00016274668
0.0012605951
-0.00033096911
0.0012526207
-0.00049647454
0.0012329173
-0.0006575772
0.0012017906
-0.00081266114
0.0011597797
-0.000960205
0.00110762
-0.001098773
0.0010462418
-0.0012270869
0.00097678837
-0.0013440915
0.00090050734
-0.0014488934
0.00081888521
-0.001540928
0.00073353215
-0.0016199904
0.00064619445
-0.001686193
0.00055853853
-0.0017400404
0.0004721857
-0.0017822695
0.00038834384
-0.0018137833
0.00030789131
-0.0018355736
0.00023169921
-0.0018485336
0.00015984077
-0.0018534637
9.2252737e-05
-0.0018511149
2.8949566e-05
-0.0018417317
-3.1107175e-05
-0.0018258811
-8.7209342e-05
-0.0018039185
-0.00013975435
-0.0017761778
-0.00018886252
-0.0017429847
-0.00023460016
-0.0017046584
-0.00027702826
-0.0016616091
-0.00031612451
-0.0016141724
-0.00035199961
-0.0015627942
-0.00038465158
-0.0015078588
-0.00041424311
-0.0014497379
-0.00044084992
-0.0013888473
-0.00046462206
-0.0013255502
-0.00048573158
-0.00126017
-0.00050435247
-0.0011930272
-0.00052066996
-0.0011243976
-0.0005348779
-0.0010545244
-0.00054716501
-0.00098362755
-0.00055772235
-0.00091189691
-0.00056672792
-0.000839492
-0.00057436082
-0.00076655032
-0.00058078553
-0.00069318698
-0.00058615365
-0.00061949922
-0.0005906077
-0.00054555713
-0.00059427913
-0.00047141966
-0.00059726933
-0.00039713456
-0.00059969679
-0.00032274118
-0.00060170883
-0.0002482678
-0.00060325438
-0.00017371443
-0.00060424434
-0.00060551418
0.0001720074
-0.00066890094
0.00024591897
-0.00066734463
0.00031973078
-0.00066595417
0.00039345432
-0.00066389827
0.00046703786
-0.00066125491
0.00054044566
-0.00065807016
0.0006136305
-0.00065419839
0.00068652987
-0.00064952302
0.00075905953
-0.00064394483
0.00083113028
-0.00063733681
0.00090262953
-0.0006295634
0.00097342499
-0.00062048007
0.0010433558
-0.00060992559
0.001112252
-0.00059774243
0.0011799105
-0.00058375766
0.0012460993
-0.00056779871
0.001310562
-0.0005496886
0.001373025
-0.00052926062
0.0014331923
-0.00050634801
0.0014907388
-0.00048080067
0.0015453484
-0.00045250013
0.0015966507
-0.0004212616
0.0016443388
-0.00038705542
0.0016880889
-0.00034977679
0.0017275983
-0.0003093813
0.0017626189
-0.00026578665
0.0017929029
-0.00021893893
0.0018182051
-0.00016871098
0.0018383207
-0.00011491379
0.0018529811
-5.7254234e-05
0.0018614764
5.2548241e-06
0.0018635856
7.1969226e-05
0.0018582624
0.00014398309
0.0018444019
0.00022209277
0.0018206659
0.00030630991
0.0017856653
0.00039658332
0.0017379239
0.00049208483
0.0016764581
0.00059127236
0.0016006973
0.00069238804
0.0015105523
0.00079338934
0.0014063946
0.00089219943
0.0012889154
0.00098689497
0.0011591171
0.0010758112
0.0010181096
0.0011575603
0.00086707225
0.001230976
0.00070729044
0.001294963
0.000540107
0.0013484998
0.00036701164
0.0013906088
0.0001896295
0.0014204515
9.692742e-06
0.0014373118
-0.00017101875
0.0014413069
-0.00035067589
0.0014322789
-0.00052735265
0.0014095976
-0.00069916387
0.0013736041
-0.00086427544
0.001324895
-0.0010209724
0.0012643178
-0.001167642
0.0011929145
-0.0013028194
0.0011119633
-0.0014252297
0.0010229182
-0.0015338415
0.00092749618
-0.0016279969
0.00082768874
-0.0017074596
0.00072565932
-0.0017725193
0.00062359913
-0.0018238859
0.00052355053
-0.0018626481
0.00042710354
-0.0018901709
0.00033541317
-0.0019077369
0.00024926487
-0.0019165052
0.00016860829
-0.0019173726
9.3120506e-05
-0.0019112609
2.2838598e-05
-0.0018981698
-4.419945e-05
-0.0018787758
-0.00010660641
-0.0018533675
-0.00016516623
-0.0018222343
-0.00021999725
-0.0017856745
-0.00027115958
-0.0017440305
-0.00031867135
-0.0016976844
-0.00036247
-0.0016470503
-0.00040263338
-0.0015925271
-0.00043917469
-0.001534575
-0.00047219348
-0.0014735925
-0.00050183103
-0.001410016
-0.00052819703
-0.0013442027
-0.00055154346
-0.0012765025
-0.00057205193
-0.0012072277
-0.00058994393
-0.0011366603
-0.00060544561
-0.0010650449
-0.00061878249
-0.00099259207
-0.00063017612
-0.00091947795
-0.00063984096
-0.00084586065
-0.00064797758
-0.00077186171
-0.00065478258
-0.0006975843
-0.00066042875
-0.00062310834
-0.00066508233
-0.00054849945
-0.00066889071
-0.00047379862
-0.00067197036
-0.00039904035
-0.00067445647
-0.00032424245
-0.00067650518
-0.00024943411
-0.00067806615
-0.00017458979
-0.00067909176
-0.00068036348
0.00017314694
-0.00074325323
0.00024747909
-0.00074167717
0.00032175326
-0.00074022866
0.00039600635
-0.00073815108
0.00047018679
-0.00073543418
0.00054428586
-0.00073216747
0.0006182587
-0.00072817012
0.00069205787
-0.00072332176
0.00076561763
-0.00071750375
0.00083885502
-0.00071057323
0.00091166834
-0.00070237668
0.00098393727
-0.00069274924
0.0010555129
-0.00068150068
0.0011262208
-0.00066844988
0.0011958715
-0.00065340985
0.0012642219
-0.00063615215
0.0013310294
-0.00061649855
0.0013960058
-0.00059423823
0.0014588391
-0.00056918226
0.0015192096
-0.00054117215
0.0015767236
-0.00051001452
0.0016310652
-0.00047560256
0.0016818646
-0.00043785359
0.0017287938
-0.00039670465
0.001771552
-0.00035213799
0.0018098886
-0.00030412128
0.0018436005
-0.00025264875
0.0018725368
-0.00019764547
0.0018965345
-0.00013891022
0.0019153733
-7.609227e-05
0.0019290767
-8.4481759e-06
0.0019364025
6.4644027e-05
0.0019367997
0.00014358649
0.0019289476
0.00022994494
0.0019109793
0.00032427763
0.0018810491
0.00042651283
0.0018370584
0.0005360746
0.0017775389
0.0006507913
0.0017016072
0.00076832029
0.0016091675
0.00088582992
0.001500774
0.0010005926
0.0013774453
0.0011102244
0.001240405
0.0012128539
0.0010909524
0.0013070145
0.00093043408
0.0013914963
0.00076021935
0.0014651772
0.000581759
0.0015269572
0.0003966423
0.0015757229
0.00020663178
0.0016104606
1.3644332e-05
0.001630299
-0.00018034009
0.0016352934
-0.00037326722
0.0016252084
-0.00056296053
0.001599295
-0.00074729353
0.0015579381
-0.00092418716
0.0015017912
-0.0010917156
0.0014318428
-0.0012480143
0.0013492134
-0.0013913669
0.0012553143
-0.0015202328
0.0011517863
-0.0016333338
0.0010405997
-0.0017298017
0.00092416074
-0.0018093842
0.00080524137
-0.0018725117
0.0006867244
-0.0019202979
0.00057133627
-0.0019542976
0.00046110045
-0.0019765725
0.00035768645
-0.0019888309
0.00026152705
-0.0019924989
0.00017227811
-0.0019887285
8.9349618e-05
-0.0019781346
1.2243162e-05
-0.0019610125
-6.1324004e-05
-0.0019377929
-0.00012982867
-0.00190865
-0.00019430975
-0.0018737892
-0.00025485702
-0.0018334973
-0.00031145119
-0.0017881392
-0.00036403063
-0.0017380804
-0.00041253117
-0.0016837842
-0.00045693101
-0.0016257103
-0.00049724867
-0.0015643238
-0.00053358072
-0.0015000959
-0.00056606076
-0.0014334338
-0.00059485969
-0.0013647521
-0.00062022383
-0.0012944106
-0.00064239223
-0.0012227284
-0.00066162693
-0.0011499786
-0.00067819565
-0.0010764081
-0.00069235535
-0.0010022145
-0.00070436985
-0.00092756854
-0.00071448561
-0.00085261178
-0.00072293755
-0.00077745482
-0.00072994128
-0.00070218154
-0.00073570092
-0.00062685961
-0.00074040443
-0.00055153507
-0.00074421709
-0.00047623484
-0.00074727203
-0.00040098149
-0.00074971149
-0.00032576624
-0.0007517201
-0.0002506155
-0.00075321914
-0.00017547773
-0.00075422958
-0.00075547641
0.00017431321
-0.00081800401
0.00024906796
-0.00081643226
0.00032382107
-0.00081498076
0.00039861355
-0.00081294169
0.00047342528
-0.00081024387
0.00054824301
-0.00080698413
0.00062305659
-0.00080298316
0.00069782647
-0.00079809017
0.00077250042
-0.0007921756
0.00084701027
-0.00078508187
0.00092126881
-0.00077663493
0.00099515217
-0.00076663225
0.0010685388
-0.00075488728
0.0011412631
-0.00074117573
0.00121312
-0.00072526911
0.0012838984
-0.0007069324
0.0013533338
-0.00068593484
0.0014211336
-0.00066203912
0.0014869707
-0.00063502076
0.0015504924
-0.00060469454
0.0016113084
-0.00057082981
0.0016690425
-0.0005333352
0.0017232995
-0.00049210925
0.0017737167
-0.00044712083
0.0018199845
-0.00039840473
0.0018618651
-0.00034600045
0.0018992056
-0.00028998762
0.0019319419
-0.00023038068
0.0019600931
-0.00016706094
0.0019836549
-9.9653949e-05
0.0020026444
-2.7437885e-05
0.0020163723
5.0916025e-05
0.0020238314
0.00013612775
0.0020237021
0.00023007423
0.0020135024
0.00033447719
0.0019904144
0.00044960168
0.001951644
0.00057484632
0.0018948374
0.00070759871
0.0018188769
0.00084428113
0.0017237383
0.00098096963
0.0016102452
0.0011140863
0.0014798305
0.0012406394
0.0013341607
0.0013585252
0.001174862
0.0014663128
0.0010034402
0.0015629165
0.00082132639
0.0016472897
0.00062999001
0.0017182924
0.00043111086
0.0017746009
0.00022659352
0.0018149783
1.8557021e-05
0.0018383365
-0.00019077649
0.0018446287
-0.00039908565
0.0018335169
-0.00060388593
0.0018040963
-0.00080278465
0.0017568333
-0.00099343559
0.0016924423
-0.0011736512
0.0016120571
-0.0013413281
0.0015168919
-0.0014944237
0.0014084102
-0.0016310085
0.0012883724
-0.0017493905
0.0011589839
-0.0018484139
0.0010231862
-0.0019276663
0.00088449406
-0.0019877561
0.00074681162
-0.0020303303
0.00061391014
-0.0020578737
0.00048864627
-0.0020731926
0.00037300617
-0.0020786768
0.00026701151
-0.0020762488
0.00016985035
-0.0020672459
8.0345213e-05
-0.0020514925
-3.5123288e-06
-0.0020301554
-8.2662208e-05
-0.0020028643
-0.00015711975
-0.0019697196
-0.00022745347
-0.0019308476
-0.00029372811
-0.0018864893
-0.00035580959
-0.0018369812
-0.00041353855
-0.0017827656
-0.00046674509
-0.0017243377
-0.00051535857
-0.0016622204
-0.0005593647
-0.00159694
-0.00059885966
-0.0015290034
-0.00063399439
-0.0014588705
-0.00066498866
-0.0013869664
-0.00069212612
-0.001313666
-0.00071569356
-0.0012392939
-0.00073600071
-0.001164126
-0.00075336154
-0.0010883937
-0.00076808602
-0.0010122941
-0.00078047064
-0.00093597531
-0.00079080422
-0.00085956925
-0.00079934309
-0.00078316239
-0.0008063478
-0.0007068262
-0.00081203857
-0.00063060703
-0.00081662339
-0.00055453407
-0.00082028991
-0.00047862316
-0.00082318426
-0.00040286553
-0.00082546975
-0.00032724693
-0.00082734121
-0.00025175852
-0.00082870792
-0.00017634874
-0.00082964259
-0.0008308327
0.00017547709
-0.00089313598
0.00025063847
-0.00089159186
0.00032587282
-0.00089021239
0.00040120299
-0.00088826934
0.0004766452
-0.00088568497
0.00055221145
-0.00088254979
0.00062790107
-0.00087867085
0.00070369082
-0.00087387676
0.00077954729
-0.00086802943
0.00085541586
-0.00086094894
0.00093121718
-0.00085243537
0.0010068635
-0.00084227838
0.0010822297
-0.00083025459
0.0011571566
-0.00081610397
0.0012314614
-0.00079957435
0.0013049247
-0.00078039532
0.001377282
-0.00075829245
0.0014482317
-0.00073298998
0.0015174283
-0.00070421801
0.0015844894
-0.000671755
0.0016489959
-0.00063533506
0.0017105089
-0.00059484761
0.001768589
-0.00055018975
0.0018228211
-0.00050135336
0.001872855
-0.00044843831
0.0019184488
-0.00039159341
0.0019594963
-0.0003310344
0.0019960713
-0.00026695571
0.002028408
-0.00019939814
0.0020568668
-0.00012811301
0.0020816743
-5.2245276e-05
0.002102697
2.9893767e-05
0.0021189093
0.00011991652
0.0021287196
0.00022026551
0.0021288864
0.0003343122
0.0021153587
0.00046313118
0.0020839072
0.0006062997
0.0020311613
0.00076034555
0.00195546
0.00091998219
0.0018568616
0.0010795687
0.0017368594
0.0012340888
0.0015976876
0.001379809
0.0014416963
0.0015145142
0.001270948
0.0016370603
0.0010870871
0.0017467775
0.00089150902
0.0018428682
0.00068561754
0.0019241844