/*--------------------------------*- C++ -*----------------------------------*\
  =========                 |
  \\      /  F ield         | OpenFOAM: The Open Source CFD Toolbox
   \\    /   O peration     | Website:  https://openfoam.org
    \\  /    A nd           | Version:  9
     \\/     M anipulation  |
\*---------------------------------------------------------------------------*/
FoamFile
{
    format      ascii;
    class       volScalarField;
    location    "0.005";
    object      p;
}
// * * * * * * * * * * * * * * * * * * * * * * * * * * * * * * * * * * * * * //

dimensions      [1 -1 -2 0 0 0 0];

internalField   nonuniform List<scalar> 
1000
(
100000
100000
100000
100000
100000
100000
100000
100000
100000
100000
100000
100000
100000
100000
100000
100000
100000
100000
100000
100000
100000
100000
100000
100000
100000
100000
100000
100000
100000
100000
100000
100000
100000
100000
100000
100000
100000
100000
100000
100000
100000
100000
100000
100000
100000
100000
100000
100000
100000
100000
100000
100000
100000
100000
100000
100000
100000
100000
100000
100000
100000
100000
100000
100000
100000
100000
100000
100000
100000
100000
100000
100000
100000
100000
100000
100000
100000
100000
100000
100000
100000
100000
100000
100000
100000
100000
100000
100000
100000
100000
100000
100000
100000
100000
100000
100000
100000
100000
100000
100000
100000
100000
100000
100000
100000
100000
100000
100000
100000
100000
100000
100000
100000
100000
100000
100000
100000
100000
100000
100000
100000
100000
100000
100000
100000
100000
100000
100000
100000
100000
100000
100000
100000
100000
100000
100000
100000
100000
100000
100000
100000
100000
100000
100000
100000
100000
100000
100000
100000
100000
100000
100000
100000
100000
100000
100000
100000
100000
100000
100000
100000
100000
100000
100000
100000
100000
100000
100000
100000
100000
100000
100000
100000
100000
100000
100000
100000
100000
100000
100000
100000
100000
100000
100000
100000
100000
100000
100000
100000
100000
100000
100000
100000
100000
100000
100000
100000
100000
100000
100000
100000
100000
100000
100000
100000
100000
100000
100000
100000
100000
100000
100000
100000
100000
100000
100000
100000
100000
100000
100000
100000
100000
100000
100000
100000
100000
100000
100000
100000
100000
100000
100000
100000
100000
100000
100000
100000
100000
100000
100000
100000
100000
100000
100000
100000
100000
100000
100000
100000
100000
100000
100000
100000
100000
100000
100000
100000
100000
100000
100000
100000
100000
100000
100000
100000
100000
100000
100000
100000
99999.9
99999.9
99999.9
99999.8
99999.7
99999.5
99999.3
99999
99998.5
99997.9
99997
99995.7
99994
99991.6
99988.4
99984.1
99978.3
99970.7
99960.8
99948
99931.6
99910.8
99884.7
99852.3
99812.4
99763.9
99705.4
99635.7
99553.4
99457.2
99345.9
99218.4
99073.6
98910.9
98729.5
98529
98309.2
98070.2
97812.2
97535.4
97240.6
96928.3
96599.4
96254.8
95895.4
95522.2
95136.3
94738.5
94329.9
93911.4
93483.9
93048.3
92605.3
92155.8
91700.4
91239.8
90774.6
90305.3
89832.4
89356.5
88877.9
88397
87914.1
87429.7
86944
86457.2
85969.6
85481.5
84992.9
84504.3
84015.6
83527.1
83038.9
82551.1
82064
81577.5
81091.8
80607
80123.3
79640.6
79159.1
78678.9
78200
77722.5
77246.4
76771.9
76298.9
75827.5
75357.8
74889.9
74423.7
73959.2
73496.7
73035.9
72577.1
72120.2
71665.3
71212.3
70761.3
70312.3
69865.4
69420.5
68977.6
68536.9
68098.3
67661.7
67227.3
66795
66364.8
65936.7
65510.9
65087.1
64665.5
64246.1
63828.8
63413.7
63000.8
62590
62181.4
61775
61370.7
60968.7
60568.7
60171
59775.4
59382
58990.8
58601.7
58214.7
57829.9
57447.3
57066.8
56688.5
56312.3
55938.2
55566.3
55196.5
54828.8
54463.3
54099.9
53738.5
53379.3
53022.2
52667.2
52314.3
51963.5
51614.7
51268.1
50923.4
50581
50240.5
49902.1
49565.8
49231.5
48899.3
48569.1
48240.9
47914.8
47590.8
47268.8
46948.8
46630.8
46314.8
46000.9
45689
45379.1
45071.3
44765.4
44461.6
44159.8
43860
43562.3
43266.6
42972.9
42681.2
42391.6
42104
41818.4
41535
41253.6
40974.2
40697
40421.9
40148.8
39877.9
39609.2
39342.6
39078.2
38816.1
38556.1
38298.5
38043.1
37790.1
37539.4
37291.2
37045.5
36802.2
36561.6
36323.5
36088.2
35855.6
35625.9
35399.1
35175.4
34954.8
34737.4
34523.4
34312.9
34106
33902.9
33703.7
33508.6
33317.8
33131.4
32949.7
32772.9
32601.2
32434.9
32274.1
32119.1
31970.1
31827.4
31691.2
31561.7
31439.1
31323.5
31215.3
31114.3
31020.8
30934.6
30855.9
30784.4
30720
30662.6
30611.8
30567.2
30528.6
30495.5
30467.3
30443.7
30424.2
30408.2
30395.3
30385
30376.8
30370.6
30365.7
30362.1
30359.4
30357.4
30356
30354.9
30354.1
30353.6
30353.2
30352.9
30352.7
30352.5
30352.3
30352.2
30352
30352
30351.9
30351.9
30351.9
30351.8
30351.8
30351.7
30351.6
30351.6
30351.5
30351.5
30351.4
30351.3
30351.3
30351.2
30351.1
30351.1
30351
30350.9
30350.9
30350.8
30350.7
30350.7
30350.6
30350.6
30350.5
30350.5
30350.4
30350.4
30350.3
30350.3
30350.3
30350.2
30350.2
30350.1
30350.1
30350.1
30350
30350
30350
30350
30349.9
30349.9
30349.9
30349.9
30349.9
30349.8
30349.8
30349.8
30349.8
30349.7
30349.8
30349.7
30349.7
30349.7
30349.7
30349.7
30349.5
30349.6
30349.6
30349.6
30349.4
30349.4
30349.5
30349.4
30349.3
30349.3
30349.3
30349.2
30349.2
30349.1
30349
30349
30349
30349
30348.9
30348.9
30349
30349.1
30349.2
30349.3
30349.4
30349.4
30349.5
30349.5
30349.6
30349.6
30349.6
30349.6
30349.6
30349.5
30349.5
30349.5
30349.5
30349.5
30349.5
30349.5
30349.5
30349.4
30349.4
30349.3
30349.3
30349.1
30349
30348.8
30348.6
30348.4
30348.2
30348
30347.9
30347.9
30347.9
30347.9
30348.1
30348.3
30348.5
30348.7
30349
30349.1
30349.3
30349.4
30349.4
30349.4
30349.4
30349.3
30349.2
30349.2
30349.1
30349
30348.9
30348.8
30348.8
30348.7
30348.7
30348.6
30348.6
30348.6
30348.5
30348.5
30348.5
30348.5
30348.4
30348.4
30348.4
30348.3
30348.3
30348.3
30348.3
30348.2
30348.2
30348.2
30348.1
30348.1
30348.1
30348.1
30348.1
30348.1
30348.1
30348.1
30348.1
30348.1
30348
30348
30348
30347.9
30347.9
30347.9
30347.8
30347.8
30347.7
30347.7
30347.6
30347.6
30347.6
30347.5
30347.5
30347.5
30347.5
30347.5
30347.5
30347.5
30347.5
30347.5
30347.4
30347.4
30347.3
30347.2
30347.2
30347.1
30347
30347
30346.9
30346.9
30346.8
30346.8
30346.8
30346.8
30346.7
30346.7
30346.7
30346.7
30346.6
30346.6
30346.6
30346.5
30346.4
30346.4
30346.3
30346.2
30346.1
30346
30346
30345.9
30345.8
30345.7
30345.7
30345.6
30345.6
30345.5
30345.5
30345.5
30345.4
30345.4
30345.3
30345.3
30345.2
30345.1
30345
30344.8
30344.6
30344.4
30344.2
30343.8
30343.2
30341.9
30339.8
30335.8
30327.1
30311
30277.6
30208.9
30059
29726.6
28937.5
27195.9
23609.1
18674.9
14322.1
11655.2
10507.6
10136
10034.5
10008.6
10002.1
10000.5
10000.1
10000
10000
10000
10000
10000
10000
10000
10000
10000
10000
10000
10000
10000
10000
10000
10000
10000
10000
10000
10000
10000
10000
10000
10000
10000
10000
10000
10000
10000
10000
10000
10000
10000
10000
10000
10000
10000
10000
10000
10000
10000
10000
10000
10000
10000
10000
10000
10000
10000
10000
10000
10000
10000
10000
10000
10000
10000
10000
10000
10000
10000
10000
10000
10000
10000
10000
10000
10000
10000
10000
10000
10000
10000
10000
10000
10000
10000
10000
10000
10000
10000
10000
10000
10000
10000
10000
10000
10000
10000
10000
10000
10000
10000
10000
10000
10000
10000
10000
10000
10000
10000
10000
10000
10000
10000
10000
10000
10000
10000
10000
10000
10000
10000
10000
10000
10000
10000
10000
10000
10000
10000
10000
10000
10000
10000
10000
10000
10000
10000
10000
10000
10000
10000
10000
10000
10000
10000
10000
10000
10000
10000
10000
10000
10000
10000
10000
10000
10000
10000
10000
10000
10000
10000
10000
10000
10000
10000
10000
10000
10000
10000
10000
10000
10000
10000
10000
10000
10000
10000
10000
10000
10000
10000
10000
10000
10000
10000
10000
10000
10000
10000
10000
10000
10000
10000
10000
10000
10000
10000
10000
10000
10000
10000
10000
10000
10000
10000
10000
10000
10000
10000
10000
10000
10000
10000
10000
10000
10000
10000
10000
10000
10000
10000
10000
)
;

boundaryField
{
    sides
    {
        type            zeroGradient;
    }
    empty
    {
        type            empty;
    }
}


// ************************************************************************* //
