/*--------------------------------*- C++ -*----------------------------------*\
  =========                 |
  \\      /  F ield         | OpenFOAM: The Open Source CFD Toolbox
   \\    /   O peration     | Website:  https://openfoam.org
    \\  /    A nd           | Version:  9
     \\/     M anipulation  |
\*---------------------------------------------------------------------------*/
FoamFile
{
    format      ascii;
    class       surfaceScalarField;
    location    "0.005";
    object      phi;
}
// * * * * * * * * * * * * * * * * * * * * * * * * * * * * * * * * * * * * * //

dimensions      [1 0 -1 0 0 0 0];

internalField   nonuniform List<scalar> 
999
(
1.36424e-12
1.47793e-12
1.76215e-12
1.25056e-12
1.64846e-12
1.3074e-12
9.66338e-13
6.25278e-13
6.25278e-13
2.27374e-13
-2.84217e-13
0
-2.84217e-13
2.84217e-13
2.84217e-13
4.54747e-13
0
3.97904e-13
3.41061e-13
1.7053e-13
2.84217e-13
6.25278e-13
6.82121e-13
1.02318e-12
1.25056e-12
9.09495e-13
5.68434e-13
1.13687e-12
9.09495e-13
3.41061e-13
2.84217e-13
5.11591e-13
6.82121e-13
4.54747e-13
5.11591e-13
6.25278e-13
6.82121e-13
1.25056e-12
9.66338e-13
1.3074e-12
7.38964e-13
3.41061e-13
1.13687e-13
6.82121e-13
3.97904e-13
5.68434e-14
-2.27374e-13
-9.09495e-13
-6.82121e-13
-1.08002e-12
-6.25278e-13
-6.25278e-13
-3.41061e-13
-3.41061e-13
-2.84217e-13
-5.11591e-13
-8.52651e-13
-7.95808e-13
-6.25278e-13
-1.25056e-12
-1.02318e-12
-1.3074e-12
-1.42109e-12
-1.36424e-12
-1.25056e-12
-1.08002e-12
-1.81899e-12
-1.81899e-12
-1.64846e-12
-1.19371e-12
-4.54747e-13
-1.08002e-12
-1.47793e-12
-1.36424e-12
-9.09495e-13
-5.11591e-13
-3.97904e-13
-9.09495e-13
-5.68434e-13
-2.27374e-13
-3.41061e-13
-5.68434e-13
-1.13687e-12
-9.09495e-13
-8.52651e-13
-7.38964e-13
-5.68434e-14
1.13687e-13
2.84217e-13
1.13687e-13
3.41061e-13
0
0
2.84217e-13
4.54747e-13
4.54747e-13
1.02318e-12
1.02318e-12
1.53477e-12
1.98952e-12
2.04636e-12
1.53477e-12
1.93268e-12
1.81899e-12
1.25056e-12
1.64846e-12
1.25056e-12
1.13687e-12
7.95808e-13
3.97904e-13
7.38964e-13
0
-5.68434e-14
4.54747e-13
-1.7053e-13
3.41061e-13
7.95808e-13
1.08002e-12
1.08002e-12
7.38964e-13
8.52651e-13
1.19371e-12
1.36424e-12
1.7053e-12
1.87583e-12
1.81899e-12
1.3074e-12
1.3074e-12
9.66338e-13
1.08002e-12
8.52651e-13
1.47793e-12
1.59162e-12
1.47793e-12
1.13687e-12
1.47793e-12
1.19371e-12
9.66338e-13
5.68434e-13
2.84217e-13
-3.41061e-13
-6.82121e-13
-6.25278e-13
-6.25278e-13
-2.27374e-13
-1.13687e-13
-3.41061e-13
-1.13687e-13
7.38964e-13
8.52651e-13
1.02318e-12
5.11591e-13
5.11591e-13
3.41061e-13
6.25278e-13
6.82121e-13
8.52651e-13
8.52651e-13
1.64846e-12
1.53477e-12
1.7053e-12
1.76215e-12
2.10321e-12
2.21689e-12
2.95586e-12
3.58114e-12
3.58114e-12
4.3201e-12
4.43379e-12
4.49063e-12
4.3201e-12
4.43379e-12
3.97904e-12
3.97904e-12
4.37694e-12
4.14957e-12
3.75167e-12
3.9222e-12
4.09273e-12
3.86535e-12
4.37694e-12
5.17275e-12
4.66116e-12
5.17275e-12
4.94538e-12
4.77485e-12
5.00222e-12
5.11591e-12
5.74119e-12
5.57066e-12
5.34328e-12
5.91172e-12
5.79803e-12
6.48015e-12
6.42331e-12
6.53699e-12
6.48015e-12
7.21911e-12
6.87805e-12
6.99174e-12
7.10543e-12
7.21911e-12
7.16227e-12
6.59384e-12
6.30962e-12
6.0254e-12
6.13909e-12
5.74119e-12
6.25278e-12
6.70752e-12
6.87805e-12
6.30962e-12
6.48015e-12
6.25278e-12
6.19593e-12
6.19593e-12
5.68434e-12
5.45697e-12
5.34328e-12
5.11591e-12
4.14957e-12
4.3201e-12
3.69482e-12
3.9222e-12
3.24007e-12
3.29692e-12
3.52429e-12
3.86535e-12
3.97904e-12
3.9222e-12
4.09273e-12
4.60432e-12
5.34328e-12
7.90124e-12
1.1255e-11
1.77351e-11
3.04112e-11
5.34328e-11
9.57812e-11
1.71724e-10
3.0883e-10
5.5428e-10
9.91406e-10
1.76624e-09
3.13037e-09
5.52075e-09
9.68356e-09
1.68965e-08
2.93242e-08
5.06179e-08
8.68964e-08
1.48356e-07
2.51874e-07
4.25217e-07
7.13778e-07
1.19128e-06
1.97669e-06
3.26067e-06
5.34679e-06
8.71505e-06
1.41191e-05
2.2734e-05
3.63786e-05
5.78478e-05
9.14043e-05
0.000143501
0.000223828
0.000346829
0.000533853
0.000816202
0.00123939
0.00186902
0.00279885
0.00416163
0.00614365
0.00900384
0.0130986
0.0189137
0.0271043
0.0385447
0.0543889
0.0761432
0.10575
0.145684
0.199058
0.269736
0.362448
0.482901
0.637878
0.835312
1.08433
1.39524
1.77947
2.24948
2.81849
3.50029
4.30889
5.25811
6.36124
7.63057
9.07702
10.7098
12.5361
14.5609
16.7868
19.2142
21.8411
24.6635
27.6754
30.8691
34.2359
37.7655
41.4474
45.2702
49.2225
53.293
57.4704
61.7438
66.1028
70.5375
75.0384
79.5967
84.2043
88.8537
93.5377
98.2501
102.985
107.737
112.501
117.273
122.048
126.823
131.595
136.361
141.117
145.862
150.593
155.307
160.003
164.68
169.335
173.968
178.576
183.159
187.715
192.243
196.743
201.213
205.653
210.062
214.439
218.783
223.094
227.372
231.616
235.825
239.999
244.137
248.24
252.307
256.338
260.332
264.289
268.21
272.093
275.939
279.748
283.519
287.252
290.948
294.607
298.227
301.81
305.355
308.863
312.332
315.764
319.159
322.516
325.835
329.118
332.362
335.57
338.741
341.874
344.971
348.03
351.054
354.04
356.99
359.904
362.782
365.624
368.43
371.201
373.935
376.635
379.299
381.929
384.523
387.083
389.608
392.099
394.555
396.978
399.366
401.722
404.042
406.333
408.583
410.814
412.991
415.164
417.269
419.383
421.424
423.463
425.464
427.407
429.378
431.237
433.148
434.968
436.776
438.578
440.303
442.038
443.73
445.378
447.023
448.621
450.188
451.741
453.254
454.737
456.2
457.632
459.031
460.407
461.757
463.074
464.367
465.635
466.872
468.084
469.27
470.43
471.562
472.669
473.751
474.806
475.836
476.841
477.82
478.775
479.704
480.61
481.49
482.346
483.178
483.986
484.77
485.531
486.268
486.981
487.671
488.338
488.982
489.604
490.203
490.779
491.333
491.865
492.375
492.864
493.33
493.776
494.2
494.603
494.985
495.347
495.688
496.009
496.311
496.593
496.855
497.099
497.325
497.532
497.722
497.896
498.052
498.193
498.319
498.43
498.527
498.612
498.685
498.746
498.798
498.84
498.874
498.901
498.921
498.936
498.946
498.952
498.956
498.956
498.955
498.953
498.949
498.945
498.94
498.935
498.93
498.924
498.919
498.914
498.909
498.904
498.898
498.893
498.888
498.883
498.878
498.873
498.867
498.862
498.856
498.851
498.845
498.839
498.833
498.828
498.821
498.815
498.809
498.802
498.796
498.789
498.782
498.775
498.768
498.761
498.753
498.746
498.738
498.73
498.722
498.714
498.706
498.697
498.688
498.679
498.67
498.661
498.651
498.642
498.632
498.622
498.611
498.6
498.589
498.578
498.567
498.555
498.543
498.531
498.518
498.505
498.492
498.478
498.464
498.45
498.435
498.419
498.404
498.387
498.371
498.354
498.336
498.319
498.299
498.279
498.259
498.241
498.217
498.194
498.172
498.151
498.124
498.097
498.073
498.046
498.017
497.987
497.956
497.923
497.889
497.854
497.817
497.782
497.735
497.694
497.649
497.602
497.551
497.498
497.442
497.383
497.321
497.255
497.184
497.109
497.026
496.936
496.84
496.737
496.626
496.506
496.374
496.224
496.057
495.883
495.717
495.574
495.449
495.304
495.066
494.616
493.798
492.433
490.327
487.299
483.193
477.903
471.38
463.65
454.809
445.017
434.493
423.492
412.28
401.126
390.273
379.929
370.264
361.395
353.397
346.301
340.101
334.764
330.235
326.443
323.31
320.754
318.697
317.06
315.775
314.777
314.013
313.434
313
312.68
312.445
312.276
312.155
312.069
312.009
311.967
311.938
311.918
311.904
311.895
311.887
311.882
311.877
311.874
311.87
311.867
311.864
311.861
311.858
311.855
311.852
311.849
311.847
311.844
311.842
311.84
311.838
311.836
311.835
311.833
311.832
311.831
311.83
311.83
311.829
311.828
311.827
311.826
311.826
311.825
311.824
311.823
311.822
311.821
311.82
311.82
311.819
311.818
311.818
311.817
311.817
311.816
311.816
311.815
311.814
311.814
311.813
311.812
311.811
311.81
311.809
311.808
311.807
311.806
311.805
311.804
311.803
311.802
311.801
311.801
311.8
311.799
311.798
311.797
311.796
311.795
311.793
311.792
311.791
311.79
311.789
311.788
311.786
311.784
311.783
311.781
311.78
311.779
311.777
311.776
311.774
311.773
311.771
311.769
311.766
311.763
311.759
311.752
311.74
311.718
311.672
311.583
311.401
311.036
310.275
308.703
305.196
296.929
277.59
234.632
166.176
92.6041
39.1598
12.7821
3.49998
0.89016
0.221878
0.0550838
0.0136677
0.00339126
0.000841467
0.000208795
5.18089e-05
1.28556e-05
3.18991e-06
7.91529e-07
1.96406e-07
4.87351e-08
1.20927e-08
3.00037e-09
7.44279e-10
1.84443e-10
4.54889e-11
1.10134e-11
2.49401e-12
4.54747e-13
-1.77636e-13
-1.35003e-13
-1.42109e-13
-2.84217e-14
-9.9476e-14
-7.10543e-14
-1.49214e-13
-1.56319e-13
-9.23706e-14
-1.13687e-13
-1.91847e-13
-1.27898e-13
-9.9476e-14
-1.06581e-13
-8.52651e-14
-1.98952e-13
-2.77112e-13
-3.19744e-13
-4.47642e-13
-4.40536e-13
-4.1922e-13
-3.69482e-13
-3.69482e-13
-3.90799e-13
-2.27374e-13
-2.06057e-13
-1.49214e-13
-1.27898e-13
-4.26326e-14
-5.68434e-14
7.10543e-15
-2.84217e-14
-7.10543e-14
-5.68434e-14
-2.13163e-14
-1.42109e-14
3.55271e-14
0
-5.68434e-14
-7.81597e-14
-7.81597e-14
-7.10543e-14
-3.55271e-14
1.42109e-14
-7.10543e-15
0
4.26326e-14
4.9738e-14
5.68434e-14
0
0
1.42109e-14
3.55271e-14
8.52651e-14
1.42109e-13
1.42109e-13
9.23706e-14
6.39488e-14
7.10543e-14
3.55271e-14
2.13163e-14
1.42109e-14
2.84217e-14
2.13163e-14
-1.42109e-14
-2.13163e-14
-7.10543e-14
6.39488e-14
1.42109e-14
8.52651e-14
6.39488e-14
9.23706e-14
7.81597e-14
1.06581e-13
7.81597e-14
9.9476e-14
0
0
7.81597e-14
1.13687e-13
1.20792e-13
-2.13163e-14
7.10543e-15
4.26326e-14
0
-6.39488e-14
-4.9738e-14
-2.84217e-14
0
-1.42109e-14
-2.13163e-14
-6.39488e-14
-5.68434e-14
-8.52651e-14
-5.68434e-14
-2.13163e-14
2.84217e-14
6.39488e-14
6.39488e-14
4.26326e-14
2.84217e-14
-2.84217e-14
-4.9738e-14
-6.39488e-14
0
1.42109e-14
-7.10543e-15
1.42109e-14
4.26326e-14
7.10543e-14
9.23706e-14
7.81597e-14
9.9476e-14
5.68434e-14
1.27898e-13
7.81597e-14
8.52651e-14
9.9476e-14
3.55271e-14
1.42109e-14
4.9738e-14
4.26326e-14
7.81597e-14
7.10543e-15
2.84217e-14
-2.84217e-14
-7.81597e-14
-8.52651e-14
0
-3.55271e-14
2.13163e-14
9.23706e-14
7.10543e-15
-2.84217e-14
-7.10543e-15
9.9476e-14
2.84217e-14
-7.10543e-15
-7.10543e-15
-7.10543e-14
-4.26326e-14
-3.55271e-14
0
-1.06581e-13
-4.9738e-14
-1.13687e-13
-4.26326e-14
-1.42109e-14
-1.42109e-14
-9.9476e-14
-2.84217e-14
-1.42109e-14
-7.10543e-14
-1.20792e-13
-1.06581e-13
-9.9476e-14
7.10543e-15
-7.10543e-14
-6.39488e-14
-2.84217e-14
-1.13687e-13
-7.10543e-14
-1.13687e-13
-1.27898e-13
-5.68434e-14
-6.39488e-14
-2.13163e-14
-7.10543e-15
-7.81597e-14
-6.39488e-14
-1.13687e-13
-1.56319e-13
-1.42109e-13
-1.13687e-13
-4.9738e-14
2.84217e-14
-3.55271e-14
-6.39488e-14
-7.81597e-14
-2.84217e-14
3.55271e-14
-5.68434e-14
-6.39488e-14
-9.23706e-14
0
6.39488e-14
1.42109e-14
-5.68434e-14
-5.68434e-14
-8.52651e-14
-9.23706e-14
-1.42109e-14
-2.84217e-14
-1.13687e-13
-1.20792e-13
-1.84741e-13
-2.06057e-13
-1.98952e-13
)
;

boundaryField
{
    sides
    {
        type            calculated;
        value           nonuniform List<scalar> 2(-2.05409e-13 -7.23565e-13);
    }
    empty
    {
        type            empty;
        value           nonuniform List<scalar> 0();
    }
}


// ************************************************************************* //
