/*--------------------------------*- C++ -*----------------------------------*\
  =========                 |
  \\      /  F ield         | OpenFOAM: The Open Source CFD Toolbox
   \\    /   O peration     | Website:  https://openfoam.org
    \\  /    A nd           | Version:  9
     \\/     M anipulation  |
\*---------------------------------------------------------------------------*/
FoamFile
{
    format      ascii;
    class       volScalarField;
    location    "0.005";
    object      rho;
}
// * * * * * * * * * * * * * * * * * * * * * * * * * * * * * * * * * * * * * //

dimensions      [1 -3 0 0 0 0 0];

internalField   nonuniform List<scalar> 
1000
(
0.997574
0.997574
0.997574
0.997574
0.997574
0.997574
0.997574
0.997574
0.997574
0.997574
0.997574
0.997574
0.997574
0.997574
0.997574
0.997574
0.997574
0.997574
0.997574
0.997574
0.997574
0.997574
0.997574
0.997574
0.997574
0.997574
0.997574
0.997574
0.997574
0.997574
0.997574
0.997574
0.997574
0.997574
0.997574
0.997574
0.997574
0.997574
0.997574
0.997574
0.997574
0.997574
0.997574
0.997574
0.997574
0.997574
0.997574
0.997574
0.997574
0.997574
0.997574
0.997574
0.997574
0.997574
0.997574
0.997574
0.997574
0.997574
0.997574
0.997574
0.997574
0.997574
0.997574
0.997574
0.997574
0.997574
0.997574
0.997574
0.997574
0.997574
0.997574
0.997574
0.997574
0.997574
0.997574
0.997574
0.997574
0.997574
0.997574
0.997574
0.997574
0.997574
0.997574
0.997574
0.997574
0.997574
0.997574
0.997574
0.997574
0.997574
0.997574
0.997574
0.997574
0.997574
0.997574
0.997574
0.997574
0.997574
0.997574
0.997574
0.997574
0.997574
0.997574
0.997574
0.997574
0.997574
0.997574
0.997574
0.997574
0.997574
0.997574
0.997574
0.997574
0.997574
0.997574
0.997574
0.997574
0.997574
0.997574
0.997574
0.997574
0.997574
0.997574
0.997574
0.997574
0.997574
0.997574
0.997574
0.997574
0.997574
0.997574
0.997574
0.997574
0.997574
0.997574
0.997574
0.997574
0.997574
0.997574
0.997574
0.997574
0.997574
0.997574
0.997574
0.997574
0.997574
0.997574
0.997574
0.997574
0.997574
0.997574
0.997574
0.997574
0.997574
0.997574
0.997574
0.997574
0.997574
0.997574
0.997574
0.997574
0.997574
0.997574
0.997574
0.997574
0.997574
0.997574
0.997574
0.997574
0.997574
0.997574
0.997574
0.997574
0.997574
0.997574
0.997574
0.997574
0.997574
0.997574
0.997574
0.997574
0.997574
0.997574
0.997574
0.997574
0.997574
0.997574
0.997574
0.997574
0.997574
0.997574
0.997574
0.997574
0.997574
0.997574
0.997574
0.997574
0.997574
0.997574
0.997574
0.997574
0.997574
0.997574
0.997574
0.997574
0.997574
0.997574
0.997574
0.997574
0.997574
0.997574
0.997574
0.997574
0.997574
0.997574
0.997574
0.997574
0.997574
0.997574
0.997574
0.997574
0.997574
0.997574
0.997574
0.997574
0.997574
0.997574
0.997574
0.997574
0.997574
0.997574
0.997574
0.997574
0.997574
0.997574
0.997574
0.997574
0.997574
0.997574
0.997574
0.997574
0.997574
0.997574
0.997574
0.997574
0.997574
0.997574
0.997574
0.997574
0.997574
0.997574
0.997574
0.997574
0.997574
0.997574
0.997574
0.997574
0.997574
0.997574
0.997574
0.997574
0.997574
0.997574
0.997574
0.997574
0.997574
0.997574
0.997574
0.997574
0.997574
0.997574
0.997573
0.997573
0.997572
0.997571
0.997569
0.997567
0.997564
0.997559
0.997553
0.997544
0.997531
0.997514
0.997492
0.997461
0.99742
0.997366
0.997295
0.997204
0.997087
0.996939
0.996753
0.996522
0.996238
0.995893
0.995476
0.994979
0.994392
0.993706
0.992912
0.992002
0.990969
0.989807
0.98851
0.987077
0.985505
0.983794
0.981945
0.979961
0.977845
0.975602
0.973237
0.970757
0.968168
0.965476
0.962689
0.959813
0.956855
0.953822
0.95072
0.947555
0.944331
0.941056
0.937733
0.934367
0.930962
0.927523
0.924052
0.920554
0.91703
0.913484
0.909919
0.906335
0.902737
0.899125
0.895501
0.891867
0.888225
0.884575
0.880919
0.877259
0.873594
0.869927
0.866258
0.862588
0.858918
0.855249
0.851581
0.847915
0.844251
0.840591
0.836934
0.833282
0.829634
0.825992
0.822355
0.818725
0.815101
0.811483
0.807873
0.804271
0.800676
0.797089
0.793511
0.789941
0.78638
0.782827
0.779285
0.775751
0.772227
0.768713
0.765209
0.761715
0.758232
0.754758
0.751295
0.747843
0.744401
0.74097
0.73755
0.734141
0.730743
0.727356
0.723981
0.720616
0.717263
0.713921
0.710591
0.707272
0.703965
0.700669
0.697385
0.694113
0.690852
0.687603
0.684366
0.681141
0.677927
0.674725
0.671535
0.668357
0.665191
0.662037
0.658895
0.655764
0.652647
0.649538
0.646449
0.643356
0.640307
0.637211
0.634228
0.631094
0.628221
0.625003
0.622277
0.618966
0.616345
0.613045
0.610372
0.607265
0.604386
0.601535
0.598517
0.595739
0.59281
0.589932
0.587137
0.584247
0.581435
0.578643
0.575812
0.573036
0.570268
0.567491
0.564743
0.562011
0.559281
0.556565
0.553872
0.551184
0.548505
0.545849
0.543203
0.540565
0.537947
0.535339
0.532748
0.530166
0.527602
0.525052
0.522513
0.519992
0.517484
0.514993
0.512515
0.510053
0.507609
0.505178
0.502766
0.500368
0.497991
0.495629
0.493287
0.490963
0.488657
0.486374
0.484108
0.481867
0.479645
0.477448
0.475273
0.473125
0.471002
0.468906
0.466839
0.4648
0.462795
0.46082
0.458882
0.456979
0.455114
0.453289
0.451507
0.44977
0.448078
0.446437
0.444847
0.443312
0.441832
0.440414
0.439055
0.437763
0.436535
0.435377
0.434289
0.433272
0.432328
0.431455
0.430657
0.429929
0.429274
0.428686
0.428165
0.427706
0.427308
0.426964
0.426672
0.426425
0.42622
0.42605
0.425912
0.425802
0.425713
0.425644
0.425589
0.425548
0.425515
0.425491
0.425471
0.425456
0.425443
0.425434
0.425425
0.425418
0.425411
0.425406
0.425398
0.425394
0.425385
0.425382
0.425374
0.425372
0.425363
0.425361
0.425352
0.42535
0.42534
0.425338
0.425327
0.425326
0.425315
0.425313
0.425301
0.4253
0.425288
0.425286
0.425274
0.425272
0.425259
0.425258
0.425244
0.425242
0.425228
0.425227
0.425212
0.425211
0.425195
0.425194
0.425178
0.425176
0.425159
0.425158
0.425141
0.425139
0.425121
0.42512
0.4251
0.425099
0.425079
0.425077
0.425056
0.425055
0.425032
0.425031
0.425007
0.425006
0.42498
0.42498
0.424952
0.424951
0.424923
0.424922
0.424891
0.42489
0.424857
0.424856
0.424821
0.42482
0.424782
0.424782
0.424741
0.424739
0.424696
0.424695
0.424649
0.424646
0.424596
0.424592
0.424539
0.424534
0.424475
0.424471
0.424419
0.42439
0.42435
0.424315
0.42427
0.424229
0.424183
0.424136
0.424086
0.424031
0.423975
0.423913
0.423846
0.423772
0.423693
0.423609
0.423518
0.42342
0.423314
0.423194
0.423058
0.422909
0.422761
0.422627
0.422517
0.422413
0.422271
0.422007
0.421503
0.420613
0.419175
0.417025
0.414016
0.410032
0.405004
0.398923
0.391839
0.383863
0.375159
0.365933
0.356409
0.346819
0.337386
0.328305
0.319738
0.311808
0.304599
0.298154
0.292483
0.287568
0.28337
0.279834
0.276896
0.274486
0.272535
0.270974
0.269742
0.268782
0.268041
0.267478
0.267054
0.266739
0.266507
0.26634
0.266219
0.266133
0.266073
0.266031
0.266002
0.265982
0.265969
0.265959
0.265952
0.265947
0.265942
0.265939
0.265936
0.265933
0.265931
0.265928
0.265926
0.265924
0.265921
0.265919
0.265917
0.265916
0.265914
0.265912
0.265911
0.265909
0.265908
0.265907
0.265906
0.265905
0.265904
0.265904
0.265903
0.265902
0.265902
0.265901
0.265901
0.265901
0.2659
0.2659
0.2659
0.2659
0.2659
0.265899
0.265899
0.265899
0.265899
0.265898
0.265898
0.265898
0.265897
0.265897
0.265896
0.265896
0.265895
0.265895
0.265894
0.265894
0.265894
0.265894
0.265894
0.265893
0.265893
0.265893
0.265893
0.265892
0.265892
0.265892
0.265891
0.265891
0.26589
0.265889
0.265889
0.265888
0.265887
0.265887
0.265886
0.265886
0.265885
0.265885
0.265885
0.265884
0.265884
0.265883
0.265883
0.265883
0.265883
0.265882
0.265882
0.265881
0.26588
0.265878
0.265877
0.265876
0.265875
0.265873
0.265869
0.265862
0.26585
0.265824
0.265775
0.265683
0.265484
0.265081
0.264232
0.262257
0.257592
0.24678
0.224426
0.192239
0.160471
0.139136
0.12926
0.125928
0.125009
0.124774
0.124716
0.124701
0.124698
0.124697
0.124697
0.124697
0.124697
0.124697
0.124697
0.124697
0.124697
0.124697
0.124697
0.124697
0.124697
0.124697
0.124697
0.124697
0.124697
0.124697
0.124697
0.124697
0.124697
0.124697
0.124697
0.124697
0.124697
0.124697
0.124697
0.124697
0.124697
0.124697
0.124697
0.124697
0.124697
0.124697
0.124697
0.124697
0.124697
0.124697
0.124697
0.124697
0.124697
0.124697
0.124697
0.124697
0.124697
0.124697
0.124697
0.124697
0.124697
0.124697
0.124697
0.124697
0.124697
0.124697
0.124697
0.124697
0.124697
0.124697
0.124697
0.124697
0.124697
0.124697
0.124697
0.124697
0.124697
0.124697
0.124697
0.124697
0.124697
0.124697
0.124697
0.124697
0.124697
0.124697
0.124697
0.124697
0.124697
0.124697
0.124697
0.124697
0.124697
0.124697
0.124697
0.124697
0.124697
0.124697
0.124697
0.124697
0.124697
0.124697
0.124697
0.124697
0.124697
0.124697
0.124697
0.124697
0.124697
0.124697
0.124697
0.124697
0.124697
0.124697
0.124697
0.124697
0.124697
0.124697
0.124697
0.124697
0.124697
0.124697
0.124697
0.124697
0.124697
0.124697
0.124697
0.124697
0.124697
0.124697
0.124697
0.124697
0.124697
0.124697
0.124697
0.124697
0.124697
0.124697
0.124697
0.124697
0.124697
0.124697
0.124697
0.124697
0.124697
0.124697
0.124697
0.124697
0.124697
0.124697
0.124697
0.124697
0.124697
0.124697
0.124697
0.124697
0.124697
0.124697
0.124697
0.124697
0.124697
0.124697
0.124697
0.124697
0.124697
0.124697
0.124697
0.124697
0.124697
0.124697
0.124697
0.124697
0.124697
0.124697
0.124697
0.124697
0.124697
0.124697
0.124697
0.124697
0.124697
0.124697
0.124697
0.124697
0.124697
0.124697
0.124697
0.124697
0.124697
0.124697
0.124697
0.124697
0.124697
0.124697
0.124697
0.124697
0.124697
0.124697
0.124697
0.124697
0.124697
0.124697
0.124697
0.124697
0.124697
0.124697
0.124697
0.124697
0.124697
0.124697
0.124697
0.124697
0.124697
0.124697
0.124697
0.124697
0.124697
0.124697
0.124697
0.124697
0.124697
0.124697
0.124697
0.124697
0.124697
0.124697
0.124697
)
;

boundaryField
{
    sides
    {
        type            calculated;
        value           nonuniform List<scalar> 2(0.124697 0.997574);
    }
    empty
    {
        type            empty;
    }
}


// ************************************************************************* //
