/*--------------------------------*- C++ -*----------------------------------*\
  =========                 |
  \\      /  F ield         | OpenFOAM: The Open Source CFD Toolbox
   \\    /   O peration     | Website:  https://openfoam.org
    \\  /    A nd           | Version:  9
     \\/     M anipulation  |
\*---------------------------------------------------------------------------*/
FoamFile
{
    format      ascii;
    class       volScalarField;
    location    "0.005";
    object      T;
}
// * * * * * * * * * * * * * * * * * * * * * * * * * * * * * * * * * * * * * //

dimensions      [0 0 0 1 0 0 0];

internalField   nonuniform List<scalar> 
1000
(
348.432
348.432
348.432
348.432
348.432
348.432
348.432
348.432
348.432
348.432
348.432
348.432
348.432
348.432
348.432
348.432
348.432
348.432
348.432
348.432
348.432
348.432
348.432
348.432
348.432
348.432
348.432
348.432
348.432
348.432
348.432
348.432
348.432
348.432
348.432
348.432
348.432
348.432
348.432
348.432
348.432
348.432
348.432
348.432
348.432
348.432
348.432
348.432
348.432
348.432
348.432
348.432
348.432
348.432
348.432
348.432
348.432
348.432
348.432
348.432
348.432
348.432
348.432
348.432
348.432
348.432
348.432
348.432
348.432
348.432
348.432
348.432
348.432
348.432
348.432
348.432
348.432
348.432
348.432
348.432
348.432
348.432
348.432
348.432
348.432
348.432
348.432
348.432
348.432
348.432
348.432
348.432
348.432
348.432
348.432
348.432
348.432
348.432
348.432
348.432
348.432
348.432
348.432
348.432
348.432
348.432
348.432
348.432
348.432
348.432
348.432
348.432
348.432
348.432
348.432
348.432
348.432
348.432
348.432
348.432
348.432
348.432
348.432
348.432
348.432
348.432
348.432
348.432
348.432
348.432
348.432
348.432
348.432
348.432
348.432
348.432
348.432
348.432
348.432
348.432
348.432
348.432
348.432
348.432
348.432
348.432
348.432
348.432
348.432
348.432
348.432
348.432
348.432
348.432
348.432
348.432
348.432
348.432
348.432
348.432
348.432
348.432
348.432
348.432
348.432
348.432
348.432
348.432
348.432
348.432
348.432
348.432
348.432
348.432
348.432
348.432
348.432
348.432
348.432
348.432
348.432
348.432
348.432
348.432
348.432
348.432
348.432
348.432
348.432
348.432
348.432
348.432
348.432
348.432
348.432
348.432
348.432
348.432
348.432
348.432
348.432
348.432
348.432
348.432
348.432
348.432
348.432
348.432
348.432
348.432
348.432
348.432
348.432
348.432
348.432
348.432
348.432
348.432
348.432
348.432
348.432
348.432
348.432
348.432
348.432
348.432
348.432
348.432
348.432
348.432
348.432
348.432
348.432
348.432
348.432
348.432
348.432
348.432
348.432
348.432
348.432
348.432
348.432
348.432
348.432
348.432
348.432
348.432
348.432
348.432
348.432
348.432
348.432
348.432
348.432
348.432
348.432
348.432
348.432
348.432
348.432
348.432
348.432
348.432
348.432
348.432
348.432
348.432
348.432
348.432
348.432
348.432
348.432
348.432
348.432
348.431
348.431
348.431
348.43
348.429
348.428
348.426
348.424
348.42
348.416
348.41
348.403
348.393
348.38
348.364
348.343
348.317
348.285
348.245
348.196
348.138
348.068
347.986
347.89
347.778
347.65
347.505
347.342
347.159
346.957
346.736
346.494
346.233
345.953
345.653
345.336
345
344.648
344.279
343.895
343.497
343.086
342.662
342.227
341.781
341.324
340.859
340.385
339.903
339.414
338.919
338.417
337.909
337.396
336.878
336.356
335.83
335.3
334.766
334.229
333.689
333.146
332.601
332.053
331.503
330.95
330.396
329.84
329.282
328.723
328.162
327.6
327.036
326.472
325.906
325.34
324.772
324.204
323.634
323.065
322.494
321.923
321.352
320.78
320.207
319.634
319.061
318.488
317.914
317.341
316.767
316.193
315.619
315.045
314.471
313.896
313.322
312.748
312.174
311.601
311.027
310.454
309.88
309.307
308.734
308.162
307.589
307.017
306.445
305.874
305.303
304.732
304.161
303.591
303.022
302.452
301.883
301.315
300.747
300.179
299.612
299.045
298.479
297.913
297.347
296.783
296.218
295.654
295.091
294.528
293.966
293.405
292.841
292.286
291.717
291.174
290.587
290.074
289.448
288.988
288.306
287.901
287.182
286.786
286.103
285.63
285.056
284.476
283.981
283.378
282.855
282.314
281.739
281.217
280.663
280.108
279.578
279.028
278.481
277.946
277.404
276.86
276.324
275.788
275.247
274.712
274.18
273.643
273.11
272.581
272.049
271.52
270.991
270.466
269.941
269.416
268.895
268.373
267.855
267.336
266.821
266.307
265.794
265.285
264.776
264.271
263.766
263.266
262.767
262.271
261.778
261.287
260.801
260.316
259.837
259.36
258.888
258.42
257.957
257.499
257.045
256.599
256.156
255.722
255.293
254.873
254.459
254.055
253.659
253.273
252.897
252.531
252.178
251.835
251.507
251.19
250.889
250.602
250.33
250.074
249.834
249.611
249.404
249.214
249.04
248.884
248.743
248.618
248.508
248.413
248.33
248.26
248.201
248.152
248.113
248.081
248.055
248.036
248.021
248.01
248.003
247.997
247.994
247.992
247.992
247.992
247.993
247.994
247.996
247.997
248
248.002
248.005
248.006
248.01
248.011
248.015
248.016
248.021
248.022
248.027
248.027
248.033
248.033
248.039
248.039
248.046
248.046
248.052
248.052
248.059
248.059
248.066
248.067
248.074
248.074
248.082
248.082
248.09
248.09
248.098
248.099
248.107
248.108
248.117
248.117
248.127
248.127
248.137
248.138
248.148
248.149
248.16
248.16
248.172
248.172
248.185
248.185
248.198
248.199
248.212
248.213
248.228
248.228
248.244
248.244
248.261
248.261
248.279
248.28
248.299
248.299
248.319
248.32
248.342
248.342
248.365
248.365
248.392
248.391
248.418
248.419
248.448
248.45
248.481
248.483
248.517
248.519
248.55
248.566
248.589
248.61
248.636
248.661
248.689
248.718
248.748
248.78
248.814
248.851
248.89
248.933
248.98
249.03
249.083
249.14
249.203
249.273
249.353
249.441
249.528
249.607
249.672
249.733
249.817
249.973
250.271
250.8
251.659
252.955
254.792
257.266
260.457
264.426
269.206
274.799
281.174
288.265
295.969
304.154
312.661
321.312
329.923
338.316
346.325
353.812
360.673
366.837
372.271
376.974
380.973
384.317
387.068
389.295
391.072
392.47
393.553
394.381
395.006
395.472
395.815
396.064
396.243
396.37
396.459
396.522
396.565
396.594
396.615
396.629
396.639
396.646
396.652
396.656
396.66
396.664
396.668
396.671
396.674
396.678
396.681
396.684
396.687
396.689
396.692
396.694
396.696
396.698
396.699
396.7
396.701
396.702
396.702
396.703
396.703
396.703
396.704
396.704
396.704
396.705
396.705
396.705
396.706
396.706
396.706
396.706
396.706
396.706
396.706
396.706
396.705
396.705
396.705
396.705
396.705
396.704
396.704
396.704
396.705
396.705
396.705
396.705
396.705
396.705
396.705
396.705
396.705
396.705
396.705
396.705
396.704
396.704
396.704
396.704
396.704
396.704
396.704
396.704
396.703
396.703
396.703
396.703
396.703
396.703
396.703
396.703
396.703
396.703
396.703
396.702
396.702
396.702
396.702
396.702
396.702
396.701
396.699
396.697
396.694
396.689
396.68
396.666
396.626
396.551
396.412
396.113
395.415
393.986
390.473
383.051
365.653
337.661
310.224
291.166
282.555
279.774
279.01
278.812
278.763
278.75
278.747
278.746
278.746
278.746
278.746
278.746
278.746
278.746
278.746
278.746
278.746
278.746
278.746
278.746
278.746
278.746
278.746
278.746
278.746
278.746
278.746
278.746
278.746
278.746
278.746
278.746
278.746
278.746
278.746
278.746
278.746
278.746
278.746
278.746
278.746
278.746
278.746
278.746
278.746
278.746
278.746
278.746
278.746
278.746
278.746
278.746
278.746
278.746
278.746
278.746
278.746
278.746
278.746
278.746
278.746
278.746
278.746
278.746
278.746
278.746
278.746
278.746
278.746
278.746
278.746
278.746
278.746
278.746
278.746
278.746
278.746
278.746
278.746
278.746
278.746
278.746
278.746
278.746
278.746
278.746
278.746
278.746
278.746
278.746
278.746
278.746
278.746
278.746
278.746
278.746
278.746
278.746
278.746
278.746
278.746
278.746
278.746
278.746
278.746
278.746
278.746
278.746
278.746
278.746
278.746
278.746
278.746
278.746
278.746
278.746
278.746
278.746
278.746
278.746
278.746
278.746
278.746
278.746
278.746
278.746
278.746
278.746
278.746
278.746
278.746
278.746
278.746
278.746
278.746
278.746
278.746
278.746
278.746
278.746
278.746
278.746
278.746
278.746
278.746
278.746
278.746
278.746
278.746
278.746
278.746
278.746
278.746
278.746
278.746
278.746
278.746
278.746
278.746
278.746
278.746
278.746
278.746
278.746
278.746
278.746
278.746
278.746
278.746
278.746
278.746
278.746
278.746
278.746
278.746
278.746
278.746
278.746
278.746
278.746
278.746
278.746
278.746
278.746
278.746
278.746
278.746
278.746
278.746
278.746
278.746
278.746
278.746
278.746
278.746
278.746
278.746
278.746
278.746
278.746
278.746
278.746
278.746
278.746
278.746
278.746
278.746
278.746
278.746
278.746
278.746
278.746
278.746
278.746
278.746
278.746
278.746
278.746
278.746
278.746
278.746
)
;

boundaryField
{
    sides
    {
        type            zeroGradient;
    }
    empty
    {
        type            empty;
    }
}


// ************************************************************************* //
