/*--------------------------------*- C++ -*----------------------------------*\
  =========                 |
  \\      /  F ield         | OpenFOAM: The Open Source CFD Toolbox
   \\    /   O peration     | Website:  https://openfoam.org
    \\  /    A nd           | Version:  9
     \\/     M anipulation  |
\*---------------------------------------------------------------------------*/
FoamFile
{
    format      ascii;
    class       volScalarField;
    location    "0.64";
    object      alpha.phase1;
}
// * * * * * * * * * * * * * * * * * * * * * * * * * * * * * * * * * * * * * //

dimensions      [0 0 0 0 0 0 0];

internalField   nonuniform List<scalar> 
10000
(
4.6711328e-84
4.6902541e-84
1.0973015e-82
3.5504899e-81
5.6759737e-81
2.9447874e-81
8.5581373e-82
2.4719655e-82
2.2188256e-82
2.2253112e-82
1.125474e-80
2.4737889e-78
1.0889429e-76
1.2940044e-75
7.0408168e-75
2.8306625e-74
3.6585102e-73
3.2450251e-71
3.3525882e-69
3.2679439e-67
3.0004179e-65
2.6022489e-63
2.1375613e-61
1.6670313e-59
1.2371434e-57
8.7566956e-56
5.9137345e-54
3.7808352e-52
2.3756687e-50
2.1265331e-48
2.8879116e-46
1.0655784e-44
7.9510319e-44
2.1549455e-43
3.4970978e-43
3.6928804e-43
1.7286372e-42
7.3098351e-41
3.2466223e-39
1.2511829e-37
4.0717869e-36
1.0319342e-34
1.7178624e-33
2.2024293e-32
2.5290555e-31
1.8343621e-30
1.3874111e-29
2.5282278e-28
7.2101417e-27
2.2086956e-25
7.4004269e-24
2.8044423e-22
1.2020698e-20
1.8583557e-19
7.9703617e-19
3.9538062e-19
1.052243e-19
2.3966215e-20
4.062034e-21
2.7747869e-22
9.6001235e-24
8.8911599e-25
7.3324383e-26
4.5042851e-27
2.4043848e-28
1.2144954e-29
5.8009296e-31
2.5887995e-32
1.0731217e-33
4.117626e-35
1.4580158e-36
4.7508248e-38
1.4208501e-39
3.8910362e-41
9.7352345e-43
2.2205219e-44
4.6074846e-46
8.6783105e-48
1.4804298e-49
2.2817534e-51
3.1691491e-53
3.9550392e-55
4.4207997e-57
4.409387e-59
3.9085283e-61
3.0644848e-63
2.1137469e-65
1.2743368e-67
6.6617389e-70
2.9888068e-72
1.136117e-74
3.6014555e-77
9.3224821e-80
4.5644956e-82
4.361947e-82
1.6328633e-81
5.915354e-81
6.5531238e-81
6.6693092e-81
6.714755e-81
5.2188523e-84
7.7313332e-83
2.9855288e-81
4.0960793e-80
7.1651184e-80
6.313378e-80
4.5608336e-80
2.1314363e-80
4.3010254e-81
3.889691e-82
8.0837318e-81
1.6236508e-78
7.8537923e-77
1.0135034e-75
8.0031406e-75
2.3607271e-73
2.5766217e-71
2.9045099e-69
3.0673703e-67
3.0390614e-65
2.8347377e-63
2.4970175e-61
2.0823357e-59
1.648318e-57
1.2413502e-55
8.914526e-54
6.0865352e-52
3.9240002e-50
2.779947e-48
4.2930044e-46
4.0746137e-44
5.6896058e-43
1.8918145e-42
5.1529433e-42
4.4883256e-41
1.3064594e-40
6.3514068e-40
2.6681758e-38
1.179351e-36
4.5289521e-35
1.474725e-33
3.8099697e-32
6.1246988e-31
4.6755289e-30
2.3383678e-29
1.5550399e-28
2.4709599e-27
4.8244866e-26
8.6587418e-25
9.4725971e-24
2.8971415e-22
1.2442995e-20
1.9370744e-19
8.4338058e-19
5.5311295e-18
9.7371759e-18
8.1016518e-18
4.0171396e-18
9.4112113e-19
8.0842613e-20
2.8569132e-21
2.0080495e-22
1.4986204e-23
8.898087e-25
4.6057593e-26
2.2385221e-27
1.0249039e-28
4.3771834e-30
1.7348672e-31
6.3630393e-33
2.1541592e-34
6.7143475e-36
1.9220847e-37
5.0412369e-39
1.2085899e-40
2.6425739e-42
5.257681e-44
9.4976679e-46
1.5537691e-47
2.294989e-49
3.0536775e-51
3.6463395e-53
3.8949386e-55
3.7064112e-57
3.1278246e-59
2.3271273e-61
1.5173215e-63
8.6001837e-66
4.198108e-68
1.7455812e-70
6.0824838e-73
1.7424518e-75
3.9911582e-78
2.7386256e-80
6.0877112e-80
1.2985651e-79
8.6848538e-80
4.4165691e-80
6.9655566e-81
7.2229626e-81
6.1866746e-81
1.2162162e-79
4.682094e-78
3.9674158e-77
5.6798508e-77
4.7400172e-77
3.2125264e-77
1.4521938e-77
3.0661471e-78
2.8134038e-79
2.6682009e-80
1.499041e-78
1.0597666e-76
8.3792906e-75
1.1562798e-72
1.5343438e-70
1.8816463e-68
2.15023e-66
2.293948e-64
2.2939751e-62
2.1581055e-60
1.9159803e-58
1.6093484e-56
1.282848e-54
9.7246088e-53
7.0274828e-51
4.8252418e-49
3.1277057e-47
2.2396621e-45
3.5059091e-43
3.2937874e-41
4.6322838e-40
1.6276974e-39
5.6764446e-39
5.0386329e-38
1.2671854e-37
2.3064041e-37
5.8226853e-36
2.5523085e-34
9.7312401e-33
3.1417195e-31
7.9976765e-30
1.2399599e-28
8.8988635e-28
4.0537306e-27
2.4028934e-26
3.8258409e-25
7.6265393e-24
1.5628036e-22
3.1424528e-21
5.1478446e-20
1.5355832e-18
2.2544298e-17
1.6920575e-16
7.2958058e-16
1.0078891e-15
8.0993703e-16
4.1488655e-16
1.0604413e-16
1.0977516e-17
4.5664322e-19
2.804177e-20
1.9454109e-21
1.1493531e-22
5.9739429e-24
2.8928524e-25
1.3115908e-26
5.5243527e-28
2.1517127e-29
7.7300224e-31
2.5556876e-32
7.7594763e-34
2.1589973e-35
5.4937554e-37
1.275786e-38
2.6982194e-40
5.1851691e-42
9.0356444e-44
1.4233691e-45
2.0220889e-47
2.5820268e-49
2.9548457e-51
3.0176798e-53
2.738669e-55
2.1971046e-57
1.5487275e-59
9.5220951e-62
5.0644936e-64
2.3053211e-66
8.8543683e-69
2.8083095e-71
7.1313529e-74
1.5515823e-76
1.9222163e-77
7.0989257e-77
1.3956715e-76
1.1464973e-76
6.1419456e-77
1.5653133e-77
1.17227e-77
3.3393211e-78
1.0529254e-76
4.050826e-75
2.3069091e-74
2.9463319e-74
2.4287891e-74
1.6065924e-74
7.1202358e-75
1.5093109e-75
2.0024039e-76
1.1703668e-77
1.4357213e-76
2.6410313e-74
5.1991083e-72
8.0638619e-70
8.2775529e-68
1.009185e-65
1.167246e-63
1.258969e-61
1.2714461e-59
1.2071294e-57
1.0804811e-55
9.14615e-54
7.3404898e-52
5.6010763e-50
4.0720395e-48
2.8113138e-46
1.8315876e-44
1.3252185e-42
2.0996669e-40
1.9525614e-38
2.7674448e-37
1.0222412e-36
4.3920121e-36
4.0393032e-35
9.3734242e-35
1.090269e-34
9.3168755e-34
3.988164e-32
1.5104637e-30
4.8361922e-29
1.2133381e-27
1.8033859e-26
1.1921626e-25
4.7763187e-25
2.4409811e-24
3.8149793e-23
7.5699937e-22
1.5281732e-20
3.3416202e-19
7.844716e-18
1.7735883e-16
1.6300209e-15
7.5385001e-15
2.4532812e-14
3.7781591e-14
4.0966428e-14
2.6077653e-14
8.063726e-15
1.050468e-15
5.4431669e-17
3.0228664e-18
1.938478e-19
1.1409146e-20
5.9747451e-22
2.8826083e-23
1.2901612e-24
5.3322958e-26
2.0283496e-27
7.0876362e-29
2.2713519e-30
6.6645495e-32
1.7874367e-33
4.3741607e-35
9.7491534e-37
1.9752615e-38
3.6305517e-40
6.0412859e-42
9.0694623e-44
1.2252237e-45
1.4843131e-47
1.6065432e-49
1.5471335e-51
1.3188102e-53
9.8805221e-56
6.4659034e-58
3.6585683e-60
1.7704663e-62
7.2150453e-65
2.4253954e-67
6.7152867e-70
1.7272827e-72
2.0729506e-74
1.8352042e-74
6.0506276e-74
1.0900363e-73
9.7362628e-74
5.2043428e-74
1.5026357e-74
8.7109593e-75
1.373001e-75
5.3542516e-74
2.0688354e-72
9.8683391e-72
1.1737266e-71
9.6288502e-72
6.2722607e-72
2.7450828e-72
5.8593629e-73
1.0058111e-73
3.6057728e-75
5.494758e-74
1.0842383e-71
2.6992149e-69
3.9306746e-67
3.4779985e-65
4.2900655e-63
5.0339777e-61
5.4994841e-59
5.6158036e-57
5.3835937e-55
4.8629612e-53
4.151038e-51
3.3578864e-49
2.5805968e-47
1.888073e-45
1.3102724e-43
8.5752802e-42
6.2732732e-40
1.0154646e-37
9.3635807e-36
1.3216964e-34
4.9813459e-34
2.4176645e-33
2.3784568e-32
5.4330377e-32
5.7270463e-32
1.2673605e-31
4.8334888e-30
1.820721e-28
5.7932594e-27
1.4354095e-25
2.0379165e-24
1.2278481e-23
4.2231525e-23
1.7926827e-22
2.7159345e-21
5.3851352e-20
1.0268828e-18
2.2416618e-17
6.2634292e-16
9.666118e-15
8.1667875e-14
3.0853985e-13
4.5797841e-13
4.1931934e-13
8.5805168e-13
7.6243752e-13
3.6587053e-13
7.3028494e-14
5.1513369e-15
2.6578069e-16
1.5849902e-17
9.2516083e-19
4.8684394e-20
2.3334355e-21
1.0257742e-22
4.1308991e-24
1.52137e-25
5.1194326e-27
1.5728484e-28
4.4078635e-30
1.1255401e-31
2.6152218e-33
5.5206789e-35
1.056753e-36
1.8313534e-38
2.8640505e-40
4.0300125e-42
5.085231e-44
5.7346194e-46
5.7510753e-48
5.1033849e-50
3.9804782e-52
2.7117917e-54
1.5997871e-56
8.3554747e-59
3.9989976e-61
1.6466193e-63
5.7044201e-66
1.6348343e-68
4.24115e-71
4.5301122e-72
1.3546595e-71
4.0048177e-71
6.6985336e-71
6.17877e-71
3.2349622e-71
9.7842384e-72
4.8818863e-72
4.5736874e-73
1.9783691e-71
7.6690624e-70
3.3366131e-69
3.7923326e-69
3.105679e-69
2.0049351e-69
8.7083124e-70
1.8747151e-70
4.0116987e-71
1.7750281e-71
1.9579835e-71
8.9880419e-69
2.8805609e-66
1.4949365e-64
1.1851992e-62
1.4901244e-60
1.778538e-58
1.9710239e-56
2.0384181e-54
1.9756236e-52
1.8021864e-50
1.5518985e-48
1.265225e-46
9.7904485e-45
7.2076355e-43
5.0297933e-41
3.3092868e-39
2.4540509e-37
4.0955445e-35
3.7442663e-33
5.2092752e-32
1.9588293e-31
1.004536e-30
1.0692576e-29
2.5172081e-29
2.6308862e-29
2.0197468e-29
4.7619576e-28
1.7915048e-26
5.680135e-25
1.3945519e-23
1.8893021e-22
1.0300166e-21
2.9660483e-21
1.0020477e-20
1.4485537e-19
2.8450271e-18
5.3797141e-17
1.1816001e-15
2.0668864e-14
1.8935044e-13
2.8169017e-12
1.075431e-11
1.6456785e-11
1.3600102e-11
2.3102827e-11
2.6977112e-11
1.4965703e-11
3.430036e-12
3.1451143e-13
1.8120085e-14
1.0644544e-15
6.1559309e-17
3.2332096e-18
1.5297446e-19
6.5488099e-21
2.5412679e-22
8.9425656e-24
2.8549323e-25
8.2725683e-27
2.1759587e-28
5.1939411e-30
1.1241874e-31
2.2037247e-33
3.9079889e-35
6.2663914e-37
9.0404518e-39
1.1734518e-40
1.364485e-42
1.4114406e-44
1.3726036e-46
1.2005005e-48
9.2725801e-51
6.289897e-53
3.7214224e-55
1.9041136e-57
8.3415916e-60
3.0909206e-62
9.5344558e-65
2.42563e-67
3.5225984e-69
3.0942233e-69
8.1011495e-69
2.1444186e-68
3.3388617e-68
3.1044506e-68
1.573587e-68
4.8245279e-69
2.1780046e-69
1.2877828e-70
5.8222444e-69
2.2613713e-67
9.3300484e-67
1.030227e-66
8.4349996e-67
5.4204634e-67
2.34807e-67
5.1041611e-68
1.4038601e-68
4.3019333e-68
7.895816e-69
9.3547189e-66
1.8701879e-63
4.5354348e-62
3.2958303e-60
4.2485927e-58
5.1773998e-56
5.8373983e-54
6.1260396e-52
6.0124923e-50
5.5440789e-48
4.8196486e-46
3.9635664e-44
3.093063e-42
2.2947987e-40
1.6115483e-38
1.0658618e-36
8.0277404e-35
1.3940511e-32
1.2658389e-30
1.7239358e-29
6.3772075e-29
3.3419023e-28
3.8124758e-27
9.3906713e-27
9.8741575e-27
4.8558144e-27
3.9143281e-26
1.4816049e-24
4.7086503e-23
1.1508933e-21
1.4904745e-20
7.348458e-20
1.7168134e-19
4.3990819e-19
5.9192359e-18
1.1650337e-16
2.2651125e-15
4.2975574e-14
1.930491e-13
4.4511284e-12
8.1659291e-11
3.0749063e-10
4.8290752e-10
4.2956567e-10
4.8501922e-10
8.4757233e-10
5.5017769e-10
1.4406507e-10
1.152001e-11
6.365363e-13
5.0484777e-14
3.2829336e-15
1.7083957e-16
7.8359596e-18
3.2175299e-19
1.1824968e-20
3.8949022e-22
1.1523228e-23
3.0674379e-25
7.3577624e-27
1.5930992e-28
3.1637133e-30
5.8105266e-32
1.0037864e-33
1.5947779e-35
2.2762131e-37
2.9124983e-39
3.3338968e-41
3.403476e-43
3.0870874e-45
2.4755199e-47
1.745201e-49
1.0744415e-51
5.7307974e-54
2.6217372e-56
1.0165543e-58
3.2919578e-61
8.7345183e-64
2.4420638e-66
5.8996351e-67
1.6877537e-66
4.0224464e-66
9.538086e-66
1.3821921e-65
1.2776565e-65
6.2306693e-66
1.9061478e-66
8.0058627e-67
3.1659186e-68
1.4322004e-66
5.562014e-65
2.2253458e-64
2.4122219e-64
1.9781973e-64
1.269602e-64
5.5050448e-65
1.2200778e-65
4.0255474e-66
2.3315871e-65
4.2191612e-66
5.8377454e-63
6.0675482e-61
1.0656703e-59
7.4576551e-58
9.9493059e-56
1.2446588e-53
1.4327963e-51
1.5295994e-49
1.5231222e-47
1.4219293e-45
1.2493096e-43
1.0372852e-41
8.1634346e-40
6.1034228e-38
4.3148449e-36
2.872998e-34
2.2019312e-32
4.0075836e-30
3.6372026e-28
4.8607362e-27
1.7671793e-26
9.3747016e-26
1.114494e-24
2.8319184e-24
2.9918424e-24
1.335153e-24
2.784883e-24
1.0489124e-22
3.3672416e-21
8.2450901e-20
1.0312134e-18
4.6765589e-18
8.6062482e-18
1.5696936e-17
1.9144148e-16
3.8874768e-15
6.4939823e-14
5.5643055e-13
3.9195623e-12
9.9914061e-11
1.8937769e-09
6.8924727e-09
1.1029379e-08
1.068317e-08
8.2963528e-09
2.355026e-08
1.7783957e-08
5.4103724e-09
1.3589803e-10
1.6856493e-12
1.7630574e-13
4.3414793e-14
5.5149387e-15
2.4913557e-16
8.0637368e-18
2.6415228e-19
7.849043e-21
2.0426243e-22
4.9240606e-24
1.1687847e-25
2.6475545e-27
5.3799976e-29
9.7916388e-31
1.5987884e-32
2.3400942e-34
3.0671919e-36
3.593352e-38
3.7527908e-40
3.4810258e-42
2.8552183e-44
2.059612e-46
1.2979561e-48
7.0882748e-51
3.3211299e-53
1.3191485e-55
4.3760891e-58
1.1889823e-60
2.9819428e-63
3.3231695e-64
3.3813963e-64
7.7137987e-64
1.6756066e-63
3.5865775e-63
4.8416292e-63
4.4086792e-63
2.0607332e-63
6.2447041e-64
2.4823845e-64
6.984819e-66
3.0399061e-64
1.1766294e-62
4.6296784e-62
4.9614471e-62
4.0821118e-62
2.6227645e-62
1.141796e-62
2.5661463e-63
6.1124749e-64
4.9425236e-63
6.3283867e-62
5.8028087e-60
1.6139171e-58
2.009153e-57
1.3416148e-55
1.8779123e-53
2.4302631e-51
2.8716271e-49
3.1298756e-47
3.1688308e-45
2.9993203e-43
2.666809e-41
2.2366836e-39
1.7766753e-37
1.3395552e-35
9.5457527e-34
6.4054148e-32
5.002841e-30
9.5527784e-28
8.72871e-26
1.1590477e-24
4.2222947e-24
2.370676e-23
2.7758547e-22
6.9460828e-22
7.3548525e-22
2.9918983e-22
1.9918088e-22
6.4239445e-21
2.1107787e-19
5.2172463e-18
6.4239059e-17
2.7145402e-16
3.9837252e-16
5.1138932e-16
4.8133215e-15
9.5956832e-14
1.0533603e-12
3.7693998e-12
7.9977464e-11
2.0696976e-09
3.56246e-08
1.2121997e-07
2.151748e-07
6.0219228e-07
2.009978e-06
1.3444778e-06
5.5269518e-07
1.7705553e-07
6.4207349e-09
3.43162e-11
2.665177e-12
3.2658563e-13
3.7246338e-14
6.2679098e-15
2.8828759e-16
5.9647529e-18
1.4226512e-19
4.91695e-21
1.3307576e-22
3.0938271e-24
6.4348884e-26
1.1938303e-27
1.9775746e-29
2.9266213e-31
3.868428e-33
4.5620157e-35
4.7903606e-37
4.4648956e-39
3.6784257e-41
2.6643358e-43
1.6851553e-45
9.2246374e-48
4.3257848e-50
1.7175636e-52
5.6796994e-55
1.5384712e-57
6.2771375e-60
5.9466456e-61
5.9083517e-62
1.5414122e-61
2.9813322e-61
5.9382895e-61
1.1552961e-60
1.4530424e-60
1.2980596e-60
5.8009884e-61
1.7360648e-61
6.6049667e-62
1.4177095e-63
5.6987682e-62
2.1867886e-60
8.5439147e-60
9.1000345e-60
7.5206896e-60
4.8456397e-60
2.1218561e-60
4.8491248e-61
1.0949405e-61
8.0648782e-61
5.4646974e-59
2.3795985e-57
3.7213479e-56
2.7297634e-55
1.1005294e-53
1.5546206e-51
2.0814309e-49
2.5387476e-47
2.8371623e-45
2.9347487e-43
2.8288718e-41
2.5556855e-39
2.174618e-37
1.7506793e-35
1.3371604e-33
9.6704899e-32
6.5753223e-30
4.8912491e-28
7.5048421e-26
8.2929051e-24
1.758074e-22
1.2256153e-21
1.2079254e-20
8.0669984e-20
1.4642362e-19
1.4384245e-19
5.256695e-20
1.8163237e-20
3.4118551e-19
1.1836777e-17
3.0257439e-16
3.4414934e-15
1.0922246e-14
1.0061001e-14
1.2822433e-14
6.7236689e-14
1.2113318e-12
1.442482e-11
2.5859935e-10
8.6174507e-09
3.2697219e-08
3.7370497e-06
2.2090787e-05
3.6905444e-05
4.4730818e-05
5.8636394e-05
5.2248909e-05
2.5509304e-05
2.5405644e-06
1.6159164e-08
1.6337468e-09
1.1373179e-10
1.1151046e-11
9.2360608e-13
5.7244595e-14
2.9425131e-15
1.1744915e-16
3.6649396e-18
9.964144e-20
2.3846067e-21
5.0275306e-23
9.375353e-25
1.5508202e-26
2.2806405e-28
2.9846494e-30
3.4714931e-32
3.590734e-34
3.2932258e-36
2.6684111e-38
1.9000493e-40
1.1804009e-42
6.3512374e-45
3.6397567e-47
2.274487e-49
8.9014057e-52
2.7343794e-54
1.8096047e-56
2.0336739e-57
1.0914415e-58
2.0921055e-59
5.8690388e-59
9.8398691e-59
1.8056206e-58
3.2193658e-58
3.7771622e-58
3.2998651e-58
1.4098282e-58
4.1622161e-59
1.5281968e-59
2.7084352e-61
9.6083826e-60
3.6280587e-58
1.4173041e-57
1.5061758e-57
1.2515533e-57
8.0973773e-58
3.5720813e-58
8.2720634e-59
2.0534508e-59
1.631857e-58
1.8248274e-56
5.8760467e-55
6.7967035e-54
4.0045316e-53
1.6266925e-51
2.6868744e-49
3.9347055e-47
5.0930834e-45
5.9338852e-43
6.3199508e-41
6.2182275e-39
5.705642e-37
4.9181948e-35
3.9986429e-33
3.0832332e-31
2.2450724e-29
1.5395056e-27
1.215761e-25
2.3733843e-23
2.5194039e-21
4.122948e-20
1.9589024e-19
1.4422934e-18
1.1079873e-17
2.0951606e-17
2.0265467e-17
6.8524836e-18
1.9515864e-18
1.6050024e-17
6.1093613e-16
1.5290221e-14
1.2636178e-13
2.6020863e-13
7.6912284e-14
1.1421097e-13
3.7580905e-13
8.4320212e-12
1.6100544e-10
3.5575349e-09
1.0239495e-07
9.1599695e-06
5.8953802e-05
7.4207205e-05
7.3277542e-05
7.2938103e-05
7.3217414e-05
7.3516325e-05
7.3453305e-05
5.5889288e-05
3.2967775e-06
4.9310932e-08
4.3919212e-09
3.4591066e-10
2.2685429e-11
1.2065706e-12
4.7240947e-14
1.5444777e-15
4.32622e-17
1.0540157e-18
2.2136275e-20
4.0642115e-22
6.5423818e-24
9.3006833e-26
1.1721384e-27
1.3126853e-29
1.7966995e-31
2.1683029e-33
2.0448517e-35
1.6556723e-37
1.1338876e-39
6.5445014e-42
3.2211058e-44
1.3546104e-46
5.2370396e-49
2.0142989e-51
1.5684115e-53
2.4586121e-54
2.9489201e-55
1.8192958e-56
7.121087e-57
1.8831714e-56
2.8087606e-56
4.7286306e-56
7.7863707e-56
8.6906004e-56
7.2457402e-56
2.9939693e-56
8.7095143e-57
3.1084273e-57
4.9675416e-59
1.4801391e-57
5.4402515e-56
2.1358979e-55
2.2720339e-55
1.8997572e-55
1.2351762e-55
5.4946749e-56
1.2875617e-56
3.8246565e-57
3.9710401e-56
4.323582e-54
1.1752356e-52
9.8715172e-52
2.9213199e-51
6.6329946e-49
1.6929814e-46
3.0620467e-44
4.4459402e-42
5.5695498e-40
6.2308355e-38
6.3620089e-36
6.0104562e-34
5.3100593e-32
4.4149821e-30
3.444511e-28
2.5751439e-26
2.5133118e-24
5.2176468e-22
5.0926712e-20
1.208486e-18
8.6993936e-18
2.1434912e-17
3.856765e-17
5.3475872e-16
1.6464788e-15
1.7917974e-15
5.6853809e-16
1.7104684e-16
7.0988833e-16
2.8076406e-14
5.6785736e-13
4.1565917e-12
8.4838761e-12
2.4545518e-12
1.3665654e-12
1.2346056e-12
3.7261062e-11
8.1795802e-10
2.0340835e-08
6.366817e-07
6.7843897e-05
7.731567e-05
7.5816779e-05
7.2487733e-05
4.9438886e-05
3.5687086e-05
6.4073542e-05
7.3514173e-05
7.2571949e-05
2.7684234e-05
2.648814e-07
2.5908185e-08
1.7560986e-09
9.4461495e-11
4.5541511e-12
5.6316226e-13
7.1701485e-14
9.7912841e-16
3.5866894e-18
6.0622447e-20
9.9236057e-22
1.789724e-23
3.1346121e-25
4.8030383e-27
5.7529901e-29
5.6121935e-31
5.1229922e-33
4.3082027e-35
3.1746778e-37
2.0626484e-39
1.1619906e-41
5.5101289e-44
2.1718064e-46
6.6272522e-49
8.3351835e-51
1.4452894e-51
3.2271429e-52
3.7482587e-53
2.9782988e-54
2.28974e-54
5.1333434e-54
6.9835987e-54
1.0727227e-53
1.6411347e-53
1.7898034e-53
1.3827658e-53
5.6063493e-54
1.6058201e-54
5.6086594e-55
8.8731982e-57
2.1103329e-55
7.4496049e-54
2.9505383e-53
3.1499634e-53
2.6516805e-53
1.7333382e-53
7.781268e-54
1.8562096e-54
6.1113914e-55
1.1753859e-53
8.7756573e-52
1.5607707e-50
4.0058542e-50
3.1469927e-48
3.8769535e-46
1.1162445e-43
2.6741978e-41
4.4515593e-39
5.9328432e-37
6.8224415e-35
7.0409638e-33
6.6465241e-31
5.8312462e-29
4.775437e-27
3.6419562e-25
3.2917711e-23
1.6653704e-20
2.5825443e-18
2.1279583e-17
1.2505682e-18
4.2420327e-18
2.2679793e-15
1.5951654e-15
1.4358675e-15
1.4946845e-15
1.261576e-14
3.8723496e-14
1.2907817e-14
2.7181478e-14
9.9821061e-13
2.5225988e-11
1.7464486e-10
3.0496983e-10
8.3954218e-11
3.5113957e-11
7.8465024e-12
1.2522397e-10
2.2399192e-09
6.4793126e-08
5.4759179e-06
7.9564131e-05
7.911445e-05
4.4288012e-05
1.8352829e-06
1.6046338e-06
1.5572533e-06
1.5577204e-06
4.5978851e-06
1.6812895e-05
1.5218551e-05
1.9339353e-06
2.5990385e-08
1.6504125e-09
8.7079994e-11
7.577199e-12
2.0505203e-12
2.572999e-13
6.9753518e-15
2.2863889e-16
3.2372268e-18
2.5351788e-21
2.0080568e-23
3.1637815e-25
4.8221852e-27
6.428119e-29
7.3795364e-31
4.9160897e-33
3.1844696e-35
1.7642441e-37
8.4296361e-40
3.5064413e-42
1.1552955e-44
2.8238929e-47
8.4491718e-49
7.7030444e-49
1.6151963e-49
3.6016206e-50
4.3049905e-51
4.5844318e-52
6.5079569e-52
1.1983856e-51
1.5219844e-51
2.1326716e-51
3.0487544e-51
3.2618651e-51
2.337252e-51
9.3225969e-52
2.6285977e-52
9.0407711e-53
1.5546495e-54
2.8163712e-53
9.4015654e-52
3.7642971e-51
4.041913e-51
3.4275102e-51
2.252261e-51
1.0206381e-51
2.4972886e-52
8.417095e-53
2.740835e-51
1.299469e-49
1.5075211e-48
3.7569835e-47
5.0373699e-45
6.18093e-43
6.9289395e-41
7.2201844e-39
1.0223989e-36
1.4211428e-34
1.7031638e-32
1.8085084e-30
1.7376408e-28
1.5418966e-26
1.2779422e-24
9.9461045e-23
7.2397345e-21
5.9173216e-19
1.871983e-16
3.8135266e-14
6.744732e-13
1.6675646e-12
8.2190194e-13
1.7241202e-13
4.5588893e-13
2.8920691e-12
4.6719593e-12
7.4886211e-13
5.3060568e-14
1.3371957e-13
-1.2529092e-12
1.1796572e-09
6.9449196e-09
9.4234968e-09
2.5776421e-09
9.0167426e-10
7.866506e-11
4.9898976e-10
1.1574756e-08
2.3214406e-07
5.9347634e-05
8.1526133e-05
2.2384044e-05
1.8670637e-06
1.6075057e-06
1.5618494e-06
1.5591583e-06
1.5577204e-06
1.4974975e-06
1.5385923e-06
2.210236e-06
1.3832517e-06
5.0487219e-08
2.7964396e-09
1.4858398e-10
2.1844057e-11
1.0586573e-11
1.100743e-12
6.3241719e-14
1.3779849e-14
9.1470537e-16
2.6296307e-18
5.6164992e-22
2.9953585e-24
1.563346e-26
7.1693438e-29
2.9388073e-31
1.0486958e-33
3.2835144e-36
1.23195e-38
3.0175076e-40
2.2878656e-42
1.1430531e-44
1.2581782e-46
7.9720842e-47
7.4864769e-47
1.4770489e-47
3.4500968e-48
4.6741134e-49
7.206889e-50
1.5448382e-49
2.419004e-49
2.9115423e-49
3.74388e-49
5.031917e-49
5.2579003e-49
3.5314805e-49
1.3839355e-49
3.8430686e-50
1.3091371e-50
2.6724619e-52
3.5522345e-51
1.1036449e-49
4.4632128e-49
4.8292392e-49
4.1278553e-49
2.7249854e-49
1.2462681e-49
3.1494541e-50
9.7909032e-51
3.9990425e-49
1.7038802e-47
2.0914121e-46
2.1339453e-45
2.827824e-43
3.8877326e-41
4.8021674e-39
5.4251283e-37
6.5719062e-35
7.6455278e-33
8.0429005e-31
7.761411e-29
6.9509977e-27
5.8438275e-25
4.6500456e-23
3.5161903e-21
2.5038602e-19
1.8483994e-17
3.8005695e-15
9.487035e-13
2.1935188e-11
6.3773445e-11
1.8621702e-11
2.5029276e-12
2.5097879e-11
1.0488364e-10
1.1115004e-10
5.2543306e-13
1.5063143e-13
3.1923253e-12
4.9314133e-11
4.5636392e-08
2.3423952e-07
2.191763e-07
6.9211686e-08
2.0745803e-08
1.3591212e-09
1.9044409e-09
7.5458076e-08
4.9173155e-06
8.3976749e-05
8.36964e-05
2.4195992e-06
2.4719011e-06
3.4144845e-06
1.607405e-06
1.5618494e-06
2.5486979e-06
2.5693368e-06
1.1544549e-06
1.433716e-07
2.159427e-07
3.4310029e-08
1.355705e-09
1.818046e-10
1.3479023e-10
1.816681e-11
7.2983932e-13
2.2887853e-13
9.4212957e-14
4.8901876e-15
1.5166431e-17
2.8091346e-19
3.5452241e-22
3.1245801e-25
1.3446444e-27
6.0612467e-30
3.2071098e-32
1.6284689e-34
1.4077268e-36
1.6596942e-38
1.2033347e-40
5.9684455e-43
9.3047725e-45
7.5747383e-45
6.1039452e-45
1.1781094e-45
2.9915864e-46
4.914872e-47
1.4002163e-47
3.0877956e-47
4.2460866e-47
4.8933734e-47
5.8204283e-47
7.3908972e-47
7.5530219e-47
4.7863633e-47
1.8415631e-47
5.0427051e-48
1.7108702e-48
4.4872528e-50
4.2784576e-49
1.2143521e-47
4.9433438e-47
5.4039328e-47
4.6567591e-47
3.0851386e-47
1.4229206e-47
3.7250352e-48
1.0016393e-48
4.1780526e-47
1.7402306e-45
2.0833607e-44
1.2452145e-43
1.3552607e-42
1.6422481e-40
2.2685313e-38
2.8063378e-36
3.1473642e-34
3.2334955e-32
3.0747563e-30
2.7292106e-28
2.27826e-26
1.8027749e-24
1.361972e-22
9.9428941e-21
7.1434766e-19
5.293983e-17
7.714986e-15
1.8459292e-12
4.4274941e-11
1.2408675e-10
6.1856383e-11
2.9890927e-12
7.9937183e-12
5.0942513e-11
1.059612e-10
1.5674803e-10
8.3244213e-12
1.388614e-10
2.1550207e-09
1.0828496e-07
1.4283983e-05
3.6701245e-05
3.6375048e-05
4.2328856e-06
1.4432418e-08
7.9809678e-09
2.0923817e-07
2.6609692e-05
8.4037589e-05
2.3961816e-05
2.4195992e-06
4.4499043e-06
9.9932081e-06
3.7455622e-06
3.9246771e-06
4.5999643e-06
4.5999643e-06
8.4703545e-07
7.4785103e-08
9.0878788e-09
5.1197041e-09
2.0213521e-09
9.9473486e-10
1.3156048e-10
1.0056032e-11
2.6413296e-13
2.6901754e-13
1.0893504e-13
4.1384251e-15
5.9387956e-17
3.2104455e-18
2.762953e-20
1.8547423e-24
2.5944942e-27
3.4138994e-29
3.9188908e-31
2.9479005e-33
6.6800788e-35
7.7460073e-37
3.9173802e-39
1.5694371e-41
6.3417751e-43
6.2192441e-43
4.3177648e-43
8.6983724e-44
2.6629582e-44
5.5496832e-45
2.5187066e-45
5.355447e-45
6.5594611e-45
7.1930359e-45
8.0537012e-45
9.7100051e-45
9.7066244e-45
5.8388409e-45
2.2060374e-45
5.9673348e-46
2.0262544e-46
7.3114757e-48
4.9663614e-47
1.2591689e-45
5.1339283e-45
5.699813e-45
4.9422349e-45
3.2812132e-45
1.5247157e-45
4.1338887e-46
9.4407355e-47
3.3748233e-45
1.4702123e-43
1.6730722e-42
9.254706e-42
3.0248393e-41
3.090628e-40
4.0627257e-38
5.279119e-36
6.091995e-34
6.3488503e-32
6.2076921e-30
5.9295725e-28
5.2669873e-26
4.1459634e-24
3.3720528e-22
3.979032e-20
4.4339812e-18
2.5001011e-16
1.6105162e-14
1.6247651e-12
3.0277518e-11
8.6550799e-11
4.7586116e-11
3.7164882e-12
3.7337298e-12
1.7550099e-10
2.3604142e-09
3.087774e-09
1.4882508e-10
1.8937468e-09
2.77827e-08
2.2680228e-05
8.319081e-05
8.7784193e-05
8.7680995e-05
6.3826838e-05
4.1434267e-06
2.5735159e-08
5.6630148e-07
4.9703767e-05
8.3340696e-05
2.4451078e-06
2.4450951e-06
9.9904558e-06
1.0048188e-05
7.4700755e-06
6.7605513e-07
4.5083028e-06
2.3686104e-06
4.600195e-09
5.1945849e-09
4.0938089e-09
3.8397235e-09
3.8374547e-09
1.2837306e-09
9.6208117e-12
1.431378e-12
1.3883919e-14
4.9388766e-15
2.2253427e-15
2.2063818e-15
7.5209091e-17
6.9978095e-18
9.5049756e-20
6.0786493e-24
5.6591926e-26
1.1957433e-27
1.1122272e-29
2.4428789e-31
2.4637118e-33
1.77584e-35
7.5780588e-38
4.0659084e-40
6.557267e-41
4.9423543e-41
1.8934019e-41
6.9664321e-42
2.8725882e-42
8.1821046e-43
3.7290456e-43
8.1352287e-43
9.1377442e-43
9.1941361e-43
9.9806801e-43
1.1487882e-42
1.1179369e-42
6.4307816e-43
2.3872149e-43
6.3933916e-44
2.1830485e-44
1.1485764e-45
5.5994834e-45
1.2358473e-43
5.0184729e-43
5.6931668e-43
4.954342e-43
3.290256e-43
1.5385478e-43
4.3110698e-44
8.4971841e-45
2.2550435e-43
1.05557e-41
1.1626095e-40
6.4567093e-40
2.1986545e-39
7.1996472e-39
6.2619931e-37
7.0121614e-35
7.0647643e-33
6.462033e-31
5.4788343e-29
5.8834036e-27
6.9685492e-25
7.7852549e-23
1.4672903e-20
2.2612215e-18
1.0799464e-16
3.4446316e-15
5.3156855e-13
1.3472375e-11
4.3570288e-11
4.2965298e-11
2.8154554e-11
3.7443459e-12
3.7733042e-12
3.8924024e-12
6.2999264e-11
6.235958e-10
1.3233359e-09
4.5775408e-08
3.5797234e-05
8.8336052e-05
8.8336052e-05
8.8336052e-05
8.7787532e-05
8.5622866e-05
4.3443383e-05
7.9360053e-08
1.1580882e-06
5.610968e-05
8.0751489e-05
2.1647248e-06
1.9342927e-06
1.0032166e-05
1.0405341e-05
4.8843246e-06
8.4821235e-08
2.9074744e-07
3.4899855e-07
6.3588208e-10
5.9039147e-10
2.357979e-09
4.2671214e-09
4.0876215e-09
4.0401866e-10
2.5290903e-12
1.6888013e-12
4.2994807e-11
3.921611e-10
2.035459e-09
0
-2.7648629e-18
-5.5965757e-17
1.6906687e-19
1.1822693e-22
2.5379077e-24
2.9819496e-26
4.0130758e-28
5.6398188e-30
4.073873e-32
2.4653306e-34
1.4013462e-36
1.076889e-38
4.5697213e-39
3.0742401e-39
1.191757e-39
6.7752714e-40
3.8879432e-40
1.2871746e-40
4.754078e-41
1.0694243e-40
1.1401645e-40
1.0571137e-40
1.1078532e-40
1.2255224e-40
1.1577021e-40
6.4135389e-41
2.3411086e-41
6.220322e-42
2.1472045e-42
1.7301842e-43
6.1704437e-43
1.1523362e-41
4.6341329e-41
5.4019608e-41
4.7060096e-41
3.120989e-41
1.4665199e-41
4.2352339e-42
7.4211687e-43
1.3208663e-41
6.6627262e-40
7.2022954e-39
4.0327695e-38
1.5247641e-37
2.8122983e-37
1.6012197e-35
1.7771869e-33
1.7728223e-31
1.5929992e-29
1.3102541e-27
1.2968147e-25
2.3976694e-23
5.9711255e-21
8.8117572e-19
4.4888114e-17
9.2323945e-16
1.7763669e-14
2.1294915e-12
5.4613058e-11
1.5511586e-10
1.1201711e-10
2.8020637e-11
3.7733042e-12
3.8924023e-12
2.1776542e-05
1.0721388e-10
1.4893823e-10
1.2069934e-09
1.7831912e-07
1.4198447e-05
3.4848392e-05
4.5439795e-05
4.4462095e-05
3.770364e-05
4.6726231e-05
4.7638447e-05
5.8727096e-07
1.6802103e-06
4.816675e-05
7.8426307e-05
5.9593116e-06
8.84865e-07
5.9296702e-06
1.0691576e-05
5.521007e-06
1.8919033e-08
1.0100711e-08
2.9358347e-08
3.0332276e-10
2.8534807e-10
6.313367e-10
1.8684871e-09
1.0620283e-09
5.9687889e-12
3.4303289e-12
3.8310433e-11
1.1490146e-09
3.1661799e-09
4.8911286e-09
-4.6160176e-17
-1.7241023e-16
-1.552401e-16
2.0549377e-19
7.7272345e-21
4.2656063e-23
5.5926442e-25
5.6403293e-27
6.1877627e-29
8.2285432e-31
5.135825e-33
2.3777921e-35
4.1992526e-37
2.6905121e-37
1.7592863e-37
9.8385219e-38
8.2257435e-38
6.2801231e-38
1.917132e-38
5.904143e-39
1.23057e-38
1.2681515e-38
1.0958649e-38
1.1056714e-38
1.1806571e-38
1.0829675e-38
5.807868e-39
2.0870026e-39
5.5148323e-40
1.9348256e-40
2.4888147e-41
6.6756623e-41
1.0242445e-39
4.057537e-39
4.8753333e-39
4.2484619e-39
2.8091066e-39
1.3241313e-39
3.9299406e-40
6.3034719e-41
7.1836997e-40
3.7562692e-38
4.0117415e-37
2.1798875e-36
8.0502311e-36
1.2322712e-35
3.5897497e-34
3.8773204e-32
3.8176504e-30
3.3388019e-28
2.6847369e-26
4.0556529e-24
9.1041894e-22
2.2458384e-19
1.6196584e-17
3.205499e-16
3.0706971e-15
2.4636178e-14
7.6694774e-13
7.6352061e-11
5.1545969e-10
5.9734829e-10
2.9047903e-11
1.1704746e-10
3.5279348e-05
7.7625201e-05
6.8437769e-05
2.781548e-06
1.9416223e-08
1.0072827e-07
1.6721266e-07
2.5078944e-07
5.2113017e-08
4.267572e-08
3.9080905e-08
4.4461867e-08
3.0022804e-05
6.6047573e-06
3.3756504e-06
3.4050263e-05
7.5379877e-05
1.6899018e-05
7.7749171e-07
1.815803e-06
1.113874e-05
1.1601945e-05
9.5861708e-08
4.1720789e-10
2.9253277e-10
2.8534798e-10
2.5325637e-10
1.6765556e-10
5.6349111e-11
1.1150036e-11
9.2173445e-12
4.8476243e-12
4.3725291e-11
4.2451131e-09
1.2572673e-08
3.7849507e-09
-1.4910821e-16
-2.1210716e-16
-1.1460415e-16
2.3183066e-17
5.0078514e-19
1.8370257e-20
1.9808953e-22
1.9705909e-24
1.5084611e-26
8.0536138e-29
3.0327354e-31
1.2406623e-33
2.1954633e-35
1.3900149e-35
1.1127209e-35
1.0805847e-35
1.2053739e-35
8.8301776e-36
2.4888453e-36
6.4779237e-37
1.2574713e-36
1.252089e-36
1.0161197e-36
9.9682417e-37
1.0305327e-36
9.171837e-37
4.7889882e-37
1.6963035e-37
4.4700503e-38
1.6029956e-38
3.4078278e-39
7.1020924e-39
8.698952e-38
3.3779204e-37
4.1894572e-37
3.6528041e-37
2.4054905e-37
1.1352e-37
3.4541926e-38
5.2102282e-39
3.7219685e-38
1.9039075e-36
2.0044131e-35
1.0518315e-34
3.7710609e-34
9.5558351e-34
3.6309074e-33
2.9548496e-31
2.8535935e-29
3.2893883e-27
4.566089e-25
5.3513645e-23
7.8353543e-21
1.2518385e-18
7.3064806e-17
1.3390791e-15
1.1806986e-14
4.9628024e-14
6.4649987e-14
1.0344066e-10
4.8906456e-09
7.5647661e-09
2.112326e-09
1.5601545e-06
5.8711751e-05
7.7959957e-05
7.797019e-05
7.7450023e-05
1.2856294e-06
1.4954555e-07
2.3695747e-07
2.8728347e-07
3.0355337e-07
4.3478033e-08
3.870642e-08
3.8218379e-08
4.4339036e-08
2.5762922e-05
6.7606733e-06
2.4563403e-05
7.2756699e-05
2.5314464e-05
6.5230988e-07
4.4537773e-07
6.8158804e-06
1.1697194e-05
1.1416961e-05
2.0067181e-07
2.4045558e-07
3.0291772e-06
8.4065792e-06
1.173049e-05
1.0865113e-05
3.4694337e-06
1.1150036e-11
9.4873409e-12
3.0954601e-09
2.0208749e-08
2.0208749e-08
1.4502001e-09
0
2.8233796e-16
4.0310893e-16
1.5894268e-16
5.8508676e-18
1.9851204e-19
1.7606705e-21
1.8292392e-23
1.5174007e-25
9.2150801e-28
4.060993e-30
8.0646301e-33
1.0594795e-33
9.4615959e-34
1.0643075e-33
1.4789434e-33
1.6308724e-33
1.0795479e-33
2.6822685e-34
6.3553448e-35
1.1500113e-34
1.0938858e-34
8.476787e-35
8.1234312e-35
8.2022757e-35
7.0285487e-35
3.6069056e-35
1.2608287e-35
3.3226568e-36
1.2258877e-36
4.4320779e-37
7.4192888e-37
7.0739244e-36
2.6788747e-35
3.4299613e-35
2.9944713e-35
1.964397e-35
9.2670235e-36
2.881611e-36
4.1941237e-37
1.8192966e-36
8.6646143e-35
8.972112e-34