/*--------------------------------*- C++ -*----------------------------------*\
  =========                 |
  \\      /  F ield         | OpenFOAM: The Open Source CFD Toolbox
   \\    /   O peration     | Website:  https://openfoam.org
    \\  /    A nd           | Version:  9
     \\/     M anipulation  |
\*---------------------------------------------------------------------------*/
FoamFile
{
    format      ascii;
    class       volScalarField;
    location    "0.64";
    object      p;
}
// * * * * * * * * * * * * * * * * * * * * * * * * * * * * * * * * * * * * * //

dimensions      [1 -1 -2 0 0 0 0];

internalField   nonuniform List<scalar> 
10000
(
0
0.047061377
0.093821659
0.14828765
0.21067342
0.28127296
0.36020385
0.44759625
0.54343007
0.64773506
0.76040067
0.88134426
1.0104377
1.147475
1.2922718
1.4445355
1.6039212
1.7700823
1.9425718
2.1208938
2.304513
2.4927687
2.6849487
2.8803335
3.0781333
3.277478
3.4774968
3.677331
3.8760883
4.0728722
4.2668086
4.456966
4.6426148
4.8236002
4.9998998
5.170995
5.3378611
5.4990473
5.6537124
5.801428
5.9415441
6.0733118
6.1957689
6.3076206
6.4073052
6.4927855
6.5612053
6.6095693
6.6337775
6.6298986
6.593244
6.519443
6.4054095
6.2506136
6.058279
5.8366593
5.5982931
5.3582874
5.131621
4.9310505
4.7655502
4.6401753
4.5489887
4.4873332
4.450764
4.4343827
4.4331718
4.4425482
4.4587359
4.4789798
4.5012037
4.5240018
4.5463884
4.5678963
4.5882778
4.6073777
4.6251959
4.6417955
4.6572229
4.6715074
4.6847281
4.696999
4.7083484
4.718767
4.7282234
4.7367028
4.7441948
4.7506898
4.7561603
4.7605182
4.7636515
4.765545
4.7661815
4.7655843
4.7637571
4.760696
4.7564153
4.7510692
4.7444505
4.730241
-0.012469682
0.029807194
0.074937119
0.12873217
0.19086046
0.26132015
0.34028788
0.42775001
0.52378499
0.62833073
0.74131736
0.86266795
0.99221844
1.129842
1.2752979
1.428295
1.588532
1.7556093
1.9290869
2.1084977
2.2932612
2.4827078
2.6761512
2.8728568
3.0719742
3.2726586
3.4740568
3.6752775
3.8754164
4.0736202
4.2690676
4.4609555
4.6486637
4.8318559
5.0102648
5.1837441
5.3515205
5.5135283
5.669118
5.8177623
5.9588335
6.0916223
6.2151793
6.3281911
6.4290932
6.5159016
6.5857392
6.63822
6.6652921
6.6650391
6.6319863
6.5606675
6.4465018
6.2875625
6.0861377
5.8506433
5.5951644
5.3372533
5.0942394
4.8802541
4.7039478
4.5706843
4.4757003
4.4135203
4.3785169
4.3648595
4.3670115
4.380186
4.4003803
4.4246681
4.4509562
4.477749
4.5040348
4.5292389
4.5530622
4.5753873
4.5961871
4.6154927
4.6333317
4.6497727
4.664974
4.6789931
4.6918891
4.7036662
4.714319
4.7238306
4.7322051
4.7394225
4.7454449
4.7502569
4.7538708
4.7562806
4.75744
4.757357
4.7560298
4.7534401
4.7495655
4.7444985
4.7379602
4.7253981
-0.032802447
0.0072908547
0.05098118
0.10402394
0.16571627
0.23606101
0.31499414
0.40261361
0.4988807
0.60375448
0.71720828
0.83911368
0.96937669
1.1078333
1.2542375
1.4083245
1.5697784
1.738215
1.913214
2.0942907
2.280829
2.4721695
2.6676145
2.8663681
3.0675983
3.2704627
3.474067
3.6774606
3.8797436
4.0800588
4.2775613
4.4714663
4.6611567
4.8461656
5.0260648
5.2004813
5.3689716
5.531554
5.6876103
5.8365921
5.9779137
6.1108702
6.2346224
6.3479238
6.4492142
6.5367541
6.6083075
6.662041
6.6921398
6.6953444
6.6658919
6.5969211
6.4816387
6.3156507
6.0997074
5.8426685
5.5615003
5.2780153
5.0135192
4.7842909
4.5997181
4.4660529
4.3748271
4.3198628
4.294
4.2899062
4.3010956
4.3224103
4.3497964
4.3802415
4.4118285
4.4431341
4.4732735
4.5018241
4.5285763
4.5534791
4.5765431
4.5978176
4.6173783
4.6353789
4.6519846
4.6672633
4.6812765
4.6940221
4.7055247
4.7157904
4.7248441
4.7326591
4.7392525
4.7446099
4.7487036
4.7515345
4.7531206
4.7534278
4.7524699
4.7502733
4.7467658
4.7420473
4.7353182
4.7242794
-0.063418894
-0.024704321
0.017925543
0.070239542
0.1315464
0.20164715
0.28056653
0.3682765
0.46476193
0.57001209
0.68395208
0.80653251
0.93765014
1.0771083
1.2247033
1.3801686
1.543169
1.7133693
1.8903673
2.0736227
2.2625285
2.4564296
2.6545674
2.8561366
3.0603214
3.2662418
3.472926
3.6793871
3.8847032
4.0879654
4.2882949
4.4849063
4.6771556
4.8644739
5.0463551
5.2224073
5.3924226
5.5561092
5.7130112
5.8626651
6.0044567
6.1376612
6.261429
6.3746186
6.4758135
6.5635296
6.6360463
6.6911202
6.7250461
6.7333118
6.7098888
6.6459975
6.5312259
6.3565531
6.1194817
5.8294327
5.5084436
5.1858589
4.8898754
4.6403493
4.4457317
4.3139099
4.2305278
4.1881136
4.1769202
4.1875984
4.2125541
4.2461179
4.2840812
4.3235155
4.3626247
4.4002029
4.4356159
4.4686118
4.4991448
4.5272924
4.5531844
4.5769677
4.5987631
4.6187742
4.6371855
4.6540905
4.6695369
4.6835626
4.6962207
4.707511
4.7174845
4.7261406
4.7334923
4.7395057
4.7441944
4.747556
4.7496082
4.750317
4.7497148
4.7478714
4.7448239
4.7409231
4.7331635
4.7238331
-0.10424805
-0.066355929
-0.024419828
0.027376931
0.088267295
0.15816955
0.2370165
0.32479614
0.42152397
0.52714677
0.6416575
0.7650248
0.89711286
1.0377688
1.1867948
1.3439118
1.5088405
1.681269
1.8607597
2.0467756
2.2387199
2.4358944
2.637524
2.8428199
3.0509216
3.2608546
3.4715908
3.6821047
3.8914136
4.0985335
4.3025337
4.5025931
4.6979804
4.8880417
5.072257
5.2502326
5.4216693
5.5866219
5.7444205
5.8945887
6.0365577
6.1695936
6.2927911
6.4050847
6.5052283
6.5919668
6.6640501
6.7197458
6.7575252
6.7713827
6.7559255
6.7001423
6.5881419
6.4022748
6.1345315
5.7950415
5.4141184
5.0342124
4.6947933
4.4220368
4.2282682
4.0978166
4.0308459
4.0106667
4.0229561
4.0557691
4.1003276
4.1507934
4.2029716
4.2542136
4.3030445
4.3486634
4.3907749
4.4293909
4.4646761
4.496895
4.5263373
4.553216
4.5777594
4.6002737
4.6209525
4.6398694
4.6571115
4.6727405
4.6868154
4.6993704
4.7104655
4.7201163
4.728338
4.7351233
4.7404912
4.7444313
4.7469961
4.7481844
4.7480175
4.7465067
4.7437469
4.7400806
4.7328775
4.7243925
-0.15519937
-0.1177173
-0.076092839
-0.024718161
0.035859371
0.10552353
0.18426535
0.27211794
0.36905753
0.47509902
0.59025964
0.71447914
0.84767183
0.98970431
1.1403638
1.2994325
1.4666764
1.6417578
1.8242431
2.0136209
2.2092703
2.4104688
2.6164573
2.8264242
3.0394095
3.2543425
3.4701559
3.6857607
3.9000594
4.1119884
4.3205164
4.5247494
4.7238395
4.9170903
5.1039894
5.2840724
5.4566303
5.6231585
5.7818116
5.932283
6.0740862
6.20647
6.3284134
6.4387778
6.5363893
6.6203072
6.6898966
6.744639
6.7836417
6.8037206
6.7985817
6.7551439
6.651394
6.4534027
6.1414793
5.7284219
5.2577655
4.7944741
4.3966035
4.0971447
3.9016893
3.7960102
3.7632624
3.7807907
3.8292415
3.8940897
3.9658194
4.0387832
4.1093267
4.1754498
4.2362548
4.2915486
4.3415448
4.3866815
4.4274629
4.4643679
4.4978219
4.5281723
4.5558422
4.5811706
4.6043414
4.6254724
4.6446905
4.662073
4.6777159
4.6916928
4.7040465
4.7148051
4.723978
4.7316008
4.7376994
4.7422736
4.7453829
4.747075
4.7473783
4.7462366
4.7437192
4.7404553
4.7337169
4.7260305
-0.21631581
-0.17858703
-0.13709123
-0.086031378
-0.025831615
0.043540113
0.12215363
0.21001557
0.30716719
0.41365657
0.52947951
0.6546221
0.78903193
0.93256872
1.0850745
1.2463945
1.4162915
1.5944332
1.7804271
1.973763
2.1737992
2.3798302
2.59109
2.8066748
3.0255311
3.2465415
3.4685618
3.6903638
3.9107132
4.1284515
4.3424089
4.5515428
4.7549416
4.9518643
5.1418195
5.3244787
5.4997472
5.6658555
5.8248946
5.9753305
6.1165063
6.2475248
6.3672757
6.4743764
6.5675083
6.6459549
6.7097504
6.75962
6.7964294
6.8201461
6.826268
6.8003427
6.7155788
6.51028
6.1371995
5.6173899
5.0126706
4.4228978
3.9427305
3.6181428
3.4408596
3.3821248
3.4094575
3.4875683
3.5900121
3.6997977
3.8079966
3.9100716
4.0035854
4.087714
4.162688
4.2292362
4.2883066
4.3408812
4.3878218
4.4298969
4.4677646
4.5019745
4.5331077
4.5615273
4.5874299
4.6109758
4.6323482
4.6516828
4.6690735
4.6845892
4.6982867
4.7102353
4.720455
4.7290033
4.7358866
4.7411677
4.744885
4.7471183
4.7478825
4.7471725
4.745058
4.7418664
4.735639
4.7286752
-0.28740536
-0.24844225
-0.20707799
-0.15661365
-0.096937479
-0.027931415
0.05045265
0.13828395
0.23563806
0.34254138
0.45903559
0.58514977
0.72083042
0.86599549
1.02056
1.184377
1.3572301
1.5388453
1.7288522
1.9267382
2.1318854
2.3435981
2.5610498
2.7832494
3.0090806
3.237358
3.4667963
3.6959944
3.9235728
4.1482141
4.3685953
4.5834488
4.7917924
4.992864
5.1860911
5.3710555
5.5472903
5.7131931
5.8734546
6.0233214
6.1631733
6.2920181
6.4084882
6.5107645
6.5971157
6.6667916
6.720307
6.7595382
6.7873558
6.806777
6.8220277
6.8193209
6.7767761
6.5469961
6.0769753
5.4160779
4.6255134
3.8496617
3.2568792
2.9203602
2.7920339
2.8183097
2.9472761
3.1203888
3.3008195
3.4713675
3.6267451
3.7651944
3.8864657
3.9917687
4.0830657
4.1623637
4.2315366
4.292255
4.345908
4.3936237
4.4363104
4.47478
4.5096922
4.5414327
4.5702784
4.5964764
4.6202343
4.6417097
4.6610048
4.6782166
4.6934034
4.7066214
4.7179359
4.7274454
4.7351887
4.7412308
4.7456006
4.7483786
4.7496015
4.7493098
4.7476249
4.7445981
4.7387513
4.732364
-0.36947461
-0.32459077
-0.28568227
-0.23651276
-0.1775859
-0.1091016
-0.031022467
0.056730518
0.15420759
0.26148462
0.37864394
0.50571436
0.64269968
0.78960219
0.9463676
1.112878
1.2889858
1.4744673
1.6689624
1.8719965
2.082992
2.301237
2.5258414
2.7557555
2.9897991
3.2266452
3.46482
3.7027587
3.9388991
4.1717077
4.399625
4.6211199
4.8350774
5.0406847
5.2373022
5.4245956
5.6025373
5.7718196
5.928032
6.0754259
6.2128807
6.3386584
6.4507493
6.5467093
6.6240673
6.6814426
6.7193829
6.7402782
6.7479252
6.7508476
6.7640869
6.771452
6.7987889
6.495584
5.8036469
4.9181641
3.8251016
2.7991698
2.1099191
1.8861028
1.8627786
2.0514137
2.3510368
2.6687182
2.9589817
3.2094763
3.4239554
3.6063697
3.7600582
3.8894296
3.9988926
4.092114
4.172177
4.2416193
4.3024217
4.3561306
4.4039719
4.4470074
4.485935
4.5212221
4.5532344
4.5822967
4.6086261
4.632398
4.6537295
4.6727413
4.6895043
4.7040778
4.7165839
4.727106
4.7357321
4.7425122
4.747542
4.7509007
4.7526207
4.752764
4.7514137
4.748629
4.7431474
4.7372128
-0.45602539
-0.41222718
-0.37435028
-0.32622386
-0.26808478
-0.20017581
-0.1224626
-0.034895481
0.062622142
0.17021205
0.28795759
0.41593812
0.55424487
0.70292039
0.8619556
1.0313263
1.2109522
1.4006373
1.6000742
1.8088585
2.0264377
2.2520737
2.484863
2.7237112
2.9673184
3.2141674
3.4625906
3.7108269
3.9570797
4.1995195
4.4362438
4.6654408
4.8857079
5.0961109
5.2960334
5.4851603
5.6632911
5.8303499
5.985292
6.1293515
6.2635872
6.3853547
6.4922689
6.5810074
6.64776
6.6897962
6.707011
6.7008301
6.6736983
6.6342402
6.5916206
6.6131861
6.6030235
6.2708847
4.917319
3.9590503
3.2411142
1.6775189
0.084522004
0.15968953
0.39333029
0.96940974
1.5875696
2.1271332
2.5646156
2.9163846
3.2032161
3.4371744
3.6273771
3.7830698
3.9119804
4.0199417
4.1114574
4.189991
4.2582012
4.3181478
4.3713935
4.4191753
4.4622841
4.5013253
4.5367052
4.5687905
4.5978387
4.6240383
4.6475168
4.6684002
4.6867859
4.7027723
4.7165061
4.7280866
4.7376105
4.7451744
4.7508732
4.7547844
4.7569925
4.7575677
4.7565961
4.7540681
4.7489087
4.7433142
-0.54925066
-0.51161609
-0.47346443
-0.4260248
-0.36861566
-0.30132501
-0.22409626
-0.13682175
-0.039360669
0.068407437
0.18661869
0.3154368
0.4549987
0.60539989
0.76673586
0.93907788
1.1223994
1.3165686
1.5213768
1.7364858
1.9613748
2.1953227
2.4374172
2.6865129
2.9411592
3.1996294
3.4600656
3.7204397
3.9785935
4.2323365
4.4794298
4.7175933
4.9449499
5.1603319
5.3632034
5.5533946
5.7306586
5.8947426
6.0454616
6.1815269
6.3120587
6.4285393
6.5296804
6.6102803
6.6656684
6.6919679
6.6873611
6.6518457
6.5812073
6.4502302
6.2260982
6.1980921
6.4366043
6.3301387
5.1382458
3.4150618
1.8763505
0.73322277
0.9413639
-0.56879251
-1.9347515
-0.621852
0.58197881
1.4903342
2.1261479
2.5986282
2.9698372
3.2620853
3.491837
3.6752674
3.8243555
3.9474145
4.0505268
4.1382191
4.2139361
4.2802451
4.3390584
4.3917235
4.4391752
4.4821041
4.5209869
4.5562375
4.5881504
4.6168856
4.6425837
4.665401
4.6854721
4.7029403
4.7179178
4.7305569
4.7409762
4.7492608
4.7556061
4.7600754
4.7627438
4.7637305
4.7631302
4.7609044
4.7560858
4.7507941
-0.65378502
-0.62075579
-0.58232252
-0.53578837
-0.47925332
-0.4127332
-0.33611512
-0.24926171
-0.15203339
-0.044262727
0.074267812
0.20376539
0.34442158
0.49644728
0.66005138
0.83537561
1.0224818
1.2213627
1.4319136
1.65387
1.8867864
2.1300183
2.3826339
2.6433829
2.910689
3.1826629
3.457171
3.7318354
4.004003
4.2710226
4.5304104
4.7792053
5.0146376
5.235082
5.44019
5.6301596
5.8048615
5.9636504
6.1070557
6.238696
6.3538367
6.4616519
6.5541448
6.6257245
6.6735615
6.6909247
6.6726691
6.6239429
6.5243284
6.3042254
6.082005
6.3188244
6.1241731
3.5643179
-0.59560731
-4.5949472
-6.7750394
-7.1827103
-5.3313667
-2.689211
-4.7200377
-2.9103864
-0.71767506
0.76079169
1.6586035
2.2684521
2.7316524
3.0865132
3.3574181
3.5690511
3.7383355
3.8762661
3.9906786
4.0873385
4.1704774
4.2431265
4.3075108
4.3650794
4.4169586
4.4639028
4.5064589
4.545033
4.5798843
4.611217
4.6392145
4.6640278
4.6858144
4.7047413
4.7209664
4.7346391
4.745893
4.7549294
4.761866
4.7668338
4.7699516
4.7713434
4.7710863
4.7691605
4.7646729
4.7597662
-0.76990365
-0.74101929
-0.69986647
-0.65549999
-0.60016849
-0.53456188
-0.45869611
-0.37246751
-0.27568945
-0.16812003
-0.049502876
0.080421851
0.22195797
0.37543598
0.54115166
0.71935551
0.91025614
1.1139848
1.3305504
1.5598182
1.801477
2.0549637
2.3193466
2.5933007
2.875137
3.1627745
3.4537301
3.7451963
4.0339448
4.3166825
4.590788
4.8525318
5.0975309
5.3230654
5.5290061
5.7162777
5.88532
6.034543
6.1628748
6.2749352
6.3766575
6.4662851
6.5504356
6.6218286
6.6730761
6.6913416
6.6706392
6.6398864
6.5172178
6.1218286
6.1170185
5.433017
3.1154634
-3.4217349
-7.0275058
-11.761052
-15.618871
-17.58232
-17.082018
-14.634914
-10.138024
-6.2555922
-2.5056248
-0.14689352
1.1428401
1.9279738
2.4953589
2.9162851
3.2285196
3.4677258
3.6563426
3.8082712
3.933293
4.0384495
4.1286992
4.2075359
4.2773352
4.3397853
4.3961483
4.4471953
4.4935159
4.5355063
4.5733937
4.6074108
4.6377443
4.6645292
4.6880375
4.7084206
4.7257963
4.7404525
4.7525253
4.7621782
4.7696448
4.775072
4.7786015
4.7803663
4.7804699
4.778868
4.7747042
4.7703103
-0.89594131
-0.86822761
-0.83048016
-0.78620513
-0.73165491
-0.66696943
-0.59203945
-0.50666639
-0.41057765
-0.30349735
-0.18512302
-0.055082585
0.087041773
0.24166893
0.40921053
0.59008294
0.78466065
0.99322462
1.2159561
1.4529251
1.7039841
1.9686609
2.2460891
2.5349593
2.8334737
3.1392685
3.4494396
3.7606605
4.0690909
4.3705616
4.6624417
4.9403742
5.1972107
5.4272758
5.6311507
5.8125484
5.9722606
6.1058194
6.2070689
6.2769939
6.3344891
6.3930824
6.4987412
6.570548
6.6183898
6.6477743
6.6539761
6.7082177
6.6524213
6.1737243
6.8797165
6.1860021
-2.2530171
-6.9656831
-12.968125
-19.34464
-24.583839
-27.280072
-26.668206
-23.111691
-17.030647
-10.146984
-4.6243399
-1.1596371
0.59723076
1.5894214
2.2726714
2.7592418
3.1103355
3.3750104
3.5810091
3.7452819
3.8797876
3.9926111
4.0893548
4.173988
4.2490235
4.3163646
4.3772287
4.4324205
4.4825931
4.5280908
4.5691034
4.6057515
4.6384697
4.6671787
4.6923196
4.7141022
4.7326334
4.7481487
4.7609198
4.771134
4.7790398
4.784842
4.7887206
4.7908178
4.7912674
4.7899886
4.7861733
4.7824172
-1.0323757
-1.0061643
-0.9701959
-0.92731229
-0.87358416
-0.81001187
-0.73625965
-0.6520082
-0.5569399
-0.45072793
-0.33297729
-0.20321418
-0.060934782
0.094392517
0.26334967
0.44652965
0.64447863
0.85769189
1.0865988
1.3315069
1.5924825
1.8692338
2.1610544
2.4667011
2.7842702
3.1110992
3.443808
3.778387
4.1102379
4.4340798
4.747287
5.0460211
5.3204373
5.5575625
5.7548725
5.9229745
6.0653231
6.1762368
6.2348987
6.236345
6.2373433
6.313345
6.3019767
6.2934215
6.3280762
6.4555607
6.5955788
6.8206411
6.9603451
6.8735981
9.9654423
5.8036436
-3.0789472
-9.425246
-16.984756
-24.743561
-31.101863
-34.430769
-33.803221
-29.468251
-21.897406
-13.391087
-6.3494867
-2.0070099
0.11931762
1.3026404
2.0886662
2.6277451
3.0099719
3.295264
3.5150541
3.6891326
3.8313657
3.9507616
4.053223
4.1430993
4.2231985
4.2952655
4.3605821
4.4200358
4.4741022
4.5231958
4.5675301
4.6065753
4.6416221
4.6724037
4.699148
4.7221443
4.741638
4.7578864
4.7711886
4.7818319
4.7900779
4.7961607
4.8002871
4.8026582
4.8034381
4.8024785
4.7990525
4.7960513
-1.1790792
-1.154423
-1.1199717
-1.0779962
-1.025739
-0.96364018
-0.89137963
-0.808616
-0.71499122
-0.610087
-0.49342439
-0.36446807
-0.22260821
-0.067154223
0.102642
0.28755075
0.48834606
0.70580769
0.94067209
1.193529
1.4647507
1.7543678
2.06193
2.3863226
2.7255833
3.0767834
3.4360114
3.7983826
4.1581063
4.5084257
4.8468875
5.1710564
5.4687924
5.7198613
5.9025772
6.0528874
6.1675858
6.2489889
6.2332217
6.0722095
5.795386
5.6567125
5.8493505
6.4331108
6.4999135
6.1993662
6.4977893
6.9894229
7.3668125
7.5727994
11.220564
1.7700031
-3.7854831
-10.291853
-17.990826
-26.730875
-33.504802
-36.80714
-36.263653
-31.872288
-23.78304
-14.559822
-6.9945804
-2.4104174
-0.14705959
1.1395346
1.9722334
2.536165
2.9355867
3.2327329
3.4607333
3.6412587
3.7889825
3.9134225
4.0207762
4.1154399
4.2002931
4.276993
4.3467822
4.4105258
4.4686184
4.5212574
4.5686233
4.6106977
4.647937
4.6805089
4.7086709
4.7327135
4.7529604
4.769752
4.7834328
4.7943247
4.8027435
4.8089844
4.8132729
4.8158383
4.816912
4.816256
4.8132672
4.8111388
-1.3356715
-1.3124355
-1.2793542
-1.2386018
-1.1880953
-1.1278044
-1.0574243
-0.97659289
-0.88487961
-0.78180383
-0.66683574
-0.53934968
-0.3986015
-0.24375372
-0.073906427
0.11191783
0.3147871
0.53581213
0.77607853
1.0365746
1.3181241
1.6212149
1.9457565
2.2908987
2.6547906
3.0342918
3.4248469
3.8205252
4.2135449
4.5950491
4.9631194
5.3198839
5.6567556
5.9656794
6.0773333
6.1807917
6.2382591
6.2906271
6.1399635
5.7670833
5.2527988
5.6792827
8.1573589
9.0051356
9.8667225
7.8174561
6.066648
7.284452
7.7901081
8.7174125
11.062539
1.7744623
-3.3840411
-9.4048202
-16.69989
-24.992525
-31.352258
-34.861218
-34.418936
-29.95152
-22.133211
-13.370714
-6.3809005
-2.2400702
-0.10799644
1.1329488
1.9387461
2.4934108
2.8914006
3.1893994
3.419302
3.6023983
3.7530399
3.8808706
3.9921606
4.0911572
4.1805918
4.2620704
4.3366154
4.4048163
4.4669302
4.5231291
4.5735757
4.6183456
4.6576916
4.6918678
4.7212202
4.7460849
4.7668527
4.7839072
4.7977063
4.8086214
4.8170056
4.8232184
4.827534
4.8302244
4.8315446
4.8311611
4.8286482
4.8275081
-1.5016303
-1.479769
-1.4481791
-1.4090287
-1.3603868
-1.3024746
-1.2343964
-1.1559848
-1.0667335
-0.96612369
-0.85356325
-0.72831228
-0.58951339
-0.43621453
-0.2673312
-0.081638257
0.12223023
0.34574902
0.59045128
0.85787023
1.1494243
1.4662105
1.8087034
2.1765725
2.5683766
2.9808201
3.40856
3.8445244
4.2773124
4.6938241
5.0918948
5.4794718
5.8500745
6.2700515
6.3128446
6.3404842
6.3372194
6.4476504
6.1967028
5.5816858
6.1148196
10.077736
9.3722608
9.1452501
9.0197732
9.3385082
5.3910017
7.9970842
7.9523548
8.5888142
10.709759
1.6097874
-2.1548154
-7.0690021
-13.073916
-20.171303
-25.474868
-28.442521
-27.966055
-23.930195
-17.256591
-10.133816
-4.6971841
-1.5134777
0.2083732
1.2623307
1.9803592
2.494884
2.8744914
3.1640348
3.3901444
3.5720663
3.7232364
3.8529909
3.9674495
4.0705178
4.1645517
4.250933
4.3303528
4.4031413
4.4694767
4.5293745
4.5828956
4.6301776
4.6714148
4.706938
4.7371415
4.7624737
4.7833963
4.8004031
4.8140014
4.8246385
4.8327683
4.8387704
4.842935
4.8456424
4.8471367
4.8469958
4.8450098
4.844922
-1.6764008
-1.6560368
-1.6261716
-1.589004
-1.5427989
-1.4872082
-1.4222236
-1.3468132
-1.2606854
-1.163269
-1.0538944
-0.93175509
-0.79591916
-0.64530228
-0.47862077
-0.29440714
-0.091000389
0.13349142
0.38116796
0.65423348
0.95482565
1.2848968
1.645857
2.0382331
2.4613628
2.9121351
3.3843674
3.8697196
4.3520941
4.8100917
5.2343339
5.6143577
6.0010238
6.2671701
6.1776443
6.8282218
6.3390295
6.799403
6.4822461
5.264861
4.268203
3.8832133
2.6229859
1.9707099
2.2628869
4.0252515
6.7892635
8.0485086
8.3095325
7.6907381
10.742705
2.5637752
-0.045101145
-4.13107
-8.1836842
-13.53969
-17.425049
-19.530861
-18.991383
-15.924782
-11.12048
-6.2507217
-2.6581948
-0.53180639
0.68164446
1.4793045
2.0720024
2.5261624
2.8772714
3.1528463
3.3708667
3.5486358
3.6984075
3.8291197
3.9462846
4.0533736
4.1522841
4.2439328
4.3286176
4.4063651
4.4771214
4.5407773
4.5973169
4.6468684
4.6896916
4.7261672
4.7567785
4.7821294
4.8027528
4.81927
4.8322812
4.8423064
4.8498831
4.8554223
4.8592507
4.8618385
4.8634108
4.863464
4.8620639
4.8630698
-1.8593411
-1.8408141
-1.8129972
-1.7782419
-1.734908
-1.6824227
-1.6204898
-1.549128
-1.4668263
-1.3733613
-1.2680406
-1.1500225
-1.0183035
-0.87166784
-0.70867686
-0.52765658
-0.32661538
-0.10318009
0.14536764
0.42200826
0.72979622
1.0717945
1.4508957
1.8690755
2.3267976
2.8217003
3.3476309
3.8953106
4.4440159
4.9584952
5.4316746
5.7713555
6.1614749
6.0129853
7.2516406
10.535303
8.9246049
7.5807323
6.9728501
5.0784463
2.650241
0.53538006
-0.93173876
-1.0902661
-0.019310571
1.7617814
5.5564291
8.0091112
9.0670372
7.8863382
11.705197
4.3299558
2.1647828
-0.62291222
-3.5295615
-6.665021
-9.4009502
-10.77551
-10.403847
-8.5454904
-5.7333163
-2.9499536
-0.87700956
0.3942443
1.1563518
1.7099136
2.1807964
2.5735554
2.893977
3.1516536
3.3586345
3.5297849
3.676721
3.8078246
3.9277712
4.0393934
4.1438799
4.2415456
4.3321519
4.4153467
4.490812
4.5582866
4.6177297
4.6692279
4.7131819
4.7500874
4.7805446
4.805301
4.8250557
4.8405361
4.8524562
4.8614552
4.8681145
4.8728829
4.8761855
4.8785074
4.8800337
4.8802195
4.8794325
4.8815366
-2.0498232
-2.033651
-2.0083256
-1.9764461
-1.9364901
-1.8877208
-1.8298463
-1.7623503
-1.6851691
-1.5964321
-1.4961344
-1.3833493
-1.2570055
-1.1158356
-0.95831043
-0.78255782
-0.58624308
-0.36650678
-0.12000947
0.15708739
0.4690331
0.82037179
1.2158843
1.6597867
2.1545315
2.6994307
3.289819
3.9169914
4.5625826
5.1654577
5.6989679
6.0840952
6.5246488
6.3815988
8.7033024
10.553494
10.672239
10.523069
6.7424205
4.9009935
2.1954555
-0.50207602
-2.1689552
-2.0945113
-0.94061994
0.95600563
4.8057297
7.9717401
10.006254
9.5205739
12.450104
6.8032695
4.2055783
2.0574542
-0.2661051
-1.5142273
-3.1552976
-4.0863544
-3.9978268
-3.2824452
-1.9292812
-0.42390373
0.64820002
1.1367766
1.5259379
1.9012615
2.2897614
2.6359915
2.9254658
3.1597738
3.3506772
3.512208
3.6552522
3.7868338
3.9104709
4.0279294
4.139379
4.244321
4.3418655
4.4312285
4.5117549
4.583077
4.645167
4.698186
4.7426443
4.7792576
4.8088249
4.8322317
4.8503777
4.8641344
4.8743389
4.8817711
4.8870728
4.890747
4.8932842
4.895212
4.8966135
4.8968698
4.8966793
4.8999799
-2.2473329
-2.234108
-2.2117669
-2.1832697
-2.1472901
-2.1029014
-2.0497662
-1.9873671
-1.9151416
-1.8324272
-1.7382012
-1.631815
-1.512235
-1.3782103
-1.2281735
-1.060078
-0.87132807
-0.65866186
-0.41808653
-0.14484666
0.16667262
0.52288063
0.9308559
1.3978563
1.929851
2.5294698
3.1950603
3.9167918
4.7003769
5.4380446
6.0633423
6.5689111
7.0119062
7.3119432
7.9293668
11.122794
10.777747
10.870286
10.720954
5.0062409
3.1896089
0.67685766
-0.95103301
-1.0227926
-0.040171382
1.3755391
4.5330172
9.0798124
10.746213
11.866115
12.890268
8.3986967
5.610652
3.5890986
2.2105013
1.2541255
1.4743774
1.3371331
0.80841021
0.8575093
1.0256466
1.4220423
1.8094806
2.2350543
2.1910188
2.0020388
2.3842261
2.7062922
2.9653698
3.1702552
3.3400312
3.489853
3.6292211
3.7627239
3.8922819
4.0180492
4.138784
4.2529558
4.3589219
4.4553859
4.5414324
4.6166297
4.6809506
4.7348228
4.7789724
4.8143462
4.8419895
4.8630528
4.8786345
4.8898029
4.897578
4.9028343
4.9062725
4.9084856
4.9099894
4.9113742
4.9126021
4.9129545
4.9136974
4.9177485
-2.4514593
-2.4417203
-2.4229101
-2.3983829
-2.3670414
-2.3277248
-2.2800394
-2.2234801
-2.1574276
-2.0812307
-1.9942016
-1.8954001
-1.7840585
-1.6589806
-1.5186103
-1.3608487
-1.1829735
-0.98146785
-0.75172369
-0.48804237
-0.18345993
0.17047977
0.58366768
1.0672188
1.6323218
2.2876232
3.0398144
3.9232088
4.84357
5.7602887
6.546044
7.1223101
7.5455857
7.8972973
8.2425003
9.065491
8.3067452
6.8536307
8.1577598
8.8846807
5.8069428
3.4115658
2.1887863
2.0515603
2.5219277
3.2242446
4.8928064
19.455275
11.358734
14.122218
11.894633
8.3566995
5.7324799
4.1363114
3.4952886
3.0626323
2.6521508
2.3422578
1.9663496
1.6993591
1.6528085
1.9996617
2.236364
2.4837761
2.6179143
2.0786486
2.4557662
2.761541
2.989537
3.1641722
3.3126317
3.4525787
3.5913571
3.7307401
3.8705038
4.0086658
4.142308
4.2685423
4.3849432
4.4897156
4.5817351
4.6606563
4.7266236
4.7803717
4.8230468
4.8559093
4.8803191
4.8977674
4.9096232
4.9171753
4.9216302
4.9239802
4.92502
4.925378
4.9256
4.926326
4.9273255
4.9278723
4.9292268
4.934358
-2.6619552
-2.6560675
-2.6413835
-2.6214552
-2.5954535
-2.561977
-2.5205616
-2.4707044
-2.4117385
-2.343029
-2.2639957
-2.1739997
-2.0723672
-1.9579978
-1.8295166
-1.6849758
-1.5216951
-1.3360715
-1.1231219
-0.87632023
-0.58746996
-0.24613149
0.16066408
0.64842417
1.2345229
1.9353139
2.764427
3.7699152
4.8940196
6.0564209
7.0866017
7.6945652
7.9657243
8.1979625
8.4355043
8.5869127
8.2273186
7.6701187
7.8306861
7.3745296
7.9538858
6.9037926
5.0821119
5.0555772
5.3933199
5.7418701
6.5828529
21.236448
17.704546
11.654327
9.1134
6.1065169
3.4026705
3.5021708
4.1119128
4.2853676
4.0409944
3.6574864
3.1372641
2.5644672
2.0865599
1.9446022
1.8587858
1.6669318
1.8713578
2.1946571
2.5209037
2.7793361
2.9691801
3.116426
3.2502763
3.3873978
3.5326159
3.6850608
3.8419987
3.9988062
4.1505218
4.2927722
4.4222187
4.5366886
4.6350903
4.7173019
4.7839532
4.8362381
4.8757941
4.9044206
4.923938
4.9361937
4.9429183
4.9456404
4.9457338
4.9443522
4.9423785
4.9404608
4.9391913
4.9391972
4.9400428
4.9407692
4.9431693
4.9497303
-2.8786065
-2.8767276
-2.8667685
-2.8521266
-2.8322898
-2.8055869
-2.7713778
-2.7291132
-2.6780899
-2.6177195
-2.547572
-2.467365
-2.3768618
-2.2747622
-2.1603025
-2.0319184
-1.8871943
-1.7226335
-1.5333162
-1.3123206
-1.0504583
-0.73566112
-0.35219492
0.11971597
0.70373567
1.4281666
2.3361475
3.4247203
4.7517005
6.2225156
7.5305039
8.167548
8.0877725
8.1227681
8.2164289
8.3761108
8.3336934
8.0474827
7.9434926
7.7671298
7.3052472
7.2444483
7.4143894
7.2704371
7.7064682
8.2758704
9.9036946
17.83522
19.732103
8.4742211
9.4024521
4.6686315
4.2958857
2.2214322
4.4212526
5.5357791
5.4700091
4.8908579
4.0912557
3.2454761
2.4879175
1.9104703
1.5897635
1.5866457
1.8341816
2.1994539
2.5127024
2.72214
2.8747607
3.0053012
3.1357022
3.2803686
3.4428128
3.6192628
3.8037015
3.9881301
4.1650056
4.3282803
4.4738946
4.5995514
4.7045145
4.7892049
4.8549872
4.9038321
4.9380831
4.9602579
4.9727847
4.9779185
4.9777918
4.9742468
4.968802
4.9627667
4.9571074
4.9524766
4.9495212
4.9488341
4.949681
4.9509336
4.9548778
4.9635143
-3.1006632
-3.1030174
-3.0985354
-3.0900857
-3.0774787
-3.0586762
-3.0327136
-2.9989634
-2.9567181
-2.9054597
-2.8449509
-2.7749875
-2.6972028
-2.6084255
-2.50988
-2.4003996
-2.2781098
-2.1400033
-1.9816741
-1.7965387
-1.5750609
-1.304298
-0.96683778
-0.53983929
0.0040029556
0.69445879
1.5767174
2.6953354
4.0677346
5.671639
7.4300532
8.8000741
10.042557
8.3381134
7.8387391
8.1075217
8.296246
8.302977
8.1478709
7.9406504
7.9103526
8.2131056
8.6936777
9.2324101
9.6549306
10.04218
11.689876
15.425186
16.469614
7.6148671
9.1790951
4.9825883
4.4316421
2.3461822
6.1250383
7.9245534
7.7020941
6.4588352
5.0855304
3.7921326
2.7558164
1.9434538
1.439279
1.3052281
1.6054414
2.081849
2.4176672
2.5761102
2.6877063
2.812534
2.9519046
3.1157987
3.3104856
3.5264178
3.7529921
3.9773075
4.1885771
4.3790692
4.5443382
4.6825062
4.7936566
4.8793026
4.9419318
4.9845817
5.0106519
5.0235216
5.0263676
5.0220376
5.013044
5.0015391
4.989245
4.9775664
4.967505
4.9597912
4.9550298
4.9539081
4.9550247
4.9572915
4.9635295
4.9751705
-3.3262096
-3.3338707
-3.3361429
-3.3351821
-3.3311582
-3.3215926
-3.3050679
-3.2808442
-3.2482034
-3.2067342
-3.1564797
-3.0978293
-3.031582
-2.9576394
-2.8765529
-2.7881993
-2.6917411
-2.5852467
-2.4652693
-2.326365
-2.159875
-1.9532132
-1.6887392
-1.3419895
-0.88534641
-0.29659151
0.43868476
1.3269382
2.3846592
3.8444994
5.9410507
7.4156582
8.3743876
7.7929911
7.2698617
7.8327287
8.525807
8.7754075
8.4316372
7.9012767
8.1044622
9.0775413
10.173517
10.952089
11.227077
11.487188
12.565152
14.614972
15.221778
14.023387
8.9841092
7.6911194
4.2234934
4.2418675
8.1597175
11.082096
10.47618
8.3668801
6.3326498
4.342525
2.9678228
1.6457938
0.91836403
0.62923405
1.0339779
1.839331
2.2899477
2.3613481
2.3873886
2.5185696
2.6793885
2.8733221
3.1219877
3.3990757
3.6882905
3.9688252
4.2261323
4.4509398
4.6392929
4.7907415
4.9068453
4.9908662
5.046947
5.0796372
5.0936893
5.0936387
5.0835595
5.0669764
5.0468128
5.0254437
5.0048233
4.986476
4.9713797
4.9602914
4.9540312
4.9525363
4.9544877
4.9584996
4.9680593
4.9840212
-3.5534837
-3.5682735
-3.5792248
-3.5874992
-3.5937631
-3.5950861
-3.5894311
-3.5758752
-3.5536468
-3.5223835
-3.4824365
-3.4347469
-3.3806237
-3.3213222
-3.258157
-3.1921747
-3.1239461
-3.0531754
-2.9781311
-2.8951573
-2.7978705
-2.6760967
-2.5135499
-2.2857613
-1.9648786
-1.5447188
-1.0992807
-0.56702881
0.62527669
1.9245348
3.9669459
5.2574043
4.6263087
4.2794596
6.0179895
7.5156921
9.0792759
9.7657843
8.9351529
7.7858889
8.7352545
10.692637
12.193629
13.329577
13.895863
13.645832
11.81889
12.589937
16.067155
11.30403
12.408435
13.126226
10.060814
8.4814358
9.4915012
11.437373
12.872912
10.989444
7.9221449
4.0267227
2.2896513
0.78106115
-0.05397113
-0.82121268
-0.27394765
1.4175747
2.2714685
2.1925502
1.980106
2.0922091
2.292247
2.5217625
2.8596383
3.2298312
3.6102494
3.96821
4.2855764
4.5521653
4.7661334
4.9304992
5.0488857
5.1272078
5.1718748
5.1895195
5.1866246
5.1692013
5.1423505
5.1102586
5.0763112
5.0430839
5.0126312
4.9865668
4.9658798
4.9511056
4.9435108
4.9424073
4.9460663
4.9528808
4.9671692
4.9892696
-3.7810129
-3.8054531
-3.8277167
-3.8475172
-3.8662489
-3.8805707
-3.8876068
-3.8860729
-3.8750084
-3.8540646
-3.8240158
-3.7865034
-3.7436989
-3.6980452
-3.6521194
-3.6084363
-3.5692817
-3.5364241
-3.5107127
-3.4913889
-3.4753443
-3.4568193
-3.4238047
-3.3494829
-3.1985364
-2.9841665
-2.8434515
-2.4201474
-0.32046526
0.92143159
3.8950222
4.837372
1.4203219
0.97376722
2.2656854
7.8132968
10.19573
11.161745
7.3573906
1.8179916
6.1750313
11.736014
15.307514
18.366686
18.945231
16.61771
18.105984
16.905279
20.881131
20.128037
19.021868
17.7223
14.184358
10.196056
8.579303
9.4494651
9.8936885
8.8943387
12.710484
23.008549
3.1889122
-0.37717508
-1.5205887
-3.0193881
-2.5941677
0.98660097
3.1003883
2.4130524
1.3458235
1.1828878
1.6418111
1.9908612
2.4960986
3.0118273