/*--------------------------------*- C++ -*----------------------------------*\
  =========                 |
  \\      /  F ield         | OpenFOAM: The Open Source CFD Toolbox
   \\    /   O peration     | Website:  https://openfoam.org
    \\  /    A nd           | Version:  9
     \\/     M anipulation  |
\*---------------------------------------------------------------------------*/
FoamFile
{
    format      ascii;
    class       volScalarField;
    location    "10";
    object      p;
}
// * * * * * * * * * * * * * * * * * * * * * * * * * * * * * * * * * * * * * //

dimensions      [0 2 -2 0 0 0 0];

internalField   nonuniform List<scalar> 
400
(
1.1658558e-08
-0.0006673804
-0.0013708244
-0.0019185012
-0.0021865725
-0.0021151005
-0.0016803828
-0.0008753668
0.00028667825
0.0017562039
0.0034315909
0.0051515745
0.0067094745
0.0078851658
0.0084991045
0.0084734295
0.0078749667
0.006918463
0.0059433633
0.0053838929
0.00065061076
-4.1325388e-05
-0.00056326478
-0.00092635631
-0.0010883282
-0.0010092213
-0.00066768441
-5.1543096e-05
0.00083684151
0.0019653308
0.0032581953
0.0046018488
0.0058282468
0.0067638418
0.0072664597
0.007274105
0.0068389722
0.0061311094
0.0053953546
0.0048264743
0.0014052301
0.00043236073
-0.00011717739
-0.00044602781
-0.00059884239
-0.00055940158
-0.00031172942
0.000163089
0.00087837513
0.0018238655
0.0029497897
0.0041536325
0.0052834808
0.0061674544
0.0066542741
0.0066648869
0.0062317271
0.0055063947
0.0046855676
0.0038440327
0.0019853076
0.00066688172
1.0982168e-05
-0.00035591691
-0.00055829765
-0.00060148899
-0.00047252615
-0.00014122854
0.00042765435
0.0012501426
0.002298804
0.0034867889
0.0046599428
0.005625482
0.0061944915
0.0062430502
0.0057682634
0.0049107936
0.0038492219
0.0025822515
0.002132301
0.00047862263
-0.00030328981
-0.00074539484
-0.0010420306
-0.0012136491
-0.0012443947
-0.0010866862
-0.00067668574
3.4862833e-05
0.0010496225
0.0023034129
0.0036355008
0.0048206953
0.0056090775
0.0057998482
0.0053256857
0.0043068385
0.0029209188
0.0011086639
0.0016206865
-0.00032808861
-0.0012405235
-0.0017884593
-0.0022253177
-0.0025803886
-0.0028288744
-0.0028994993
-0.0026922528
-0.002114219
-0.0011216491
0.00026113368
0.0018701721
0.0034455408
0.004653912
0.0051756047
0.0048300041
0.0036859575
0.0019196448
-0.00058248021
0.00026569517
-0.0019207164
-0.0029610603
-0.0036441312
-0.0042720997
-0.0048789991
-0.0054270589
-0.0058163437
-0.0059026796
-0.0055330006
-0.004591199
-0.0030750488
-0.0010909682
0.0010698083
0.0029719337
0.0041251604
0.0041594732
0.0030254806
0.00086295404
-0.0025164083
-0.0020745969
-0.0044305573
-0.0055922267
-0.0064394105
-0.0073140844
-0.0082544155
-0.0092093134
-0.01004808
-0.010575641
-0.010566151
-0.0098122307
-0.0082102059
-0.0058001228
-0.00286189
7.1890395e-05
0.002289603
0.0031269192
0.0022950954
-0.00019936499
-0.0046872109
-0.0054887468
-0.0079411907
-0.009212734
-0.010247339
-0.011420658
-0.012779029
-0.014262586
-0.015712435
-0.016879854
-0.017454394
-0.017110512
-0.015590526
-0.01280702
-0.0089608961
-0.0046406981
-0.00080498314
0.0014679439
0.0014623625
-0.0011478248
-0.0069963909
-0.010000049
-0.012477825
-0.013835628
-0.015059457
-0.016558782
-0.018398345
-0.020519671
-0.022743811
-0.024771961
-0.026202927
-0.026566948
-0.025407399
-0.022455034
-0.017713268
-0.011729951
-0.0056748384
-0.0011330991
0.00051169004
-0.0017433516
-0.0091616803
-0.015562921
-0.018006555
-0.019399611
-0.020764555
-0.02255804
-0.024881821
-0.02769429
-0.030808847
-0.033885467
-0.03643473
-0.037831386
-0.03737464
-0.034616828
-0.029185466
-0.021450562
-0.012663991
-0.0049123845
-0.00048141987
-0.0015477768
-0.010565475
-0.022077607
-0.024450944
-0.025774662
-0.02714118
-0.029093219
-0.031799069
-0.035252619
-0.03927217
-0.043485979
-0.047324885
-0.050037581
-0.050751596
-0.048486509
-0.042706435
-0.033376351
-0.021584257
-0.0097462153
-0.0011693445
0.00020898938
-0.010006751
-0.029437861
-0.03173257
-0.032783713
-0.033866365
-0.035692322
-0.038537266
-0.042446479
-0.047247682
-0.052540407
-0.057682807
-0.06179278
-0.06378433
-0.062421036
-0.056697028
-0.046106372
-0.03132537
-0.014760149
-0.00062858615
0.0048515841
-0.0053292774
-0.037636785
-0.039839088
-0.040234166
-0.040535617
-0.041770964
-0.044366385
-0.048419513
-0.053753271
-0.059922888
-0.066207803
-0.071601233
-0.074829315
-0.074410337
-0.068915801
-0.057323114
-0.039699502
-0.018022484
0.0029835005
0.014613266
0.0070527223
-0.046991463
-0.048921507
-0.04794025
-0.046681319
-0.046685707
-0.048541383
-0.052361301
-0.057918726
-0.064679046
-0.071815459
-0.078185013
-0.082332541
-0.082550625
-0.07703926
-0.064310534
-0.04376618
-0.016609101
0.012623923
0.033045169
0.032490098
-0.058667912
-0.059441634
-0.055708631
-0.051776629
-0.049797119
-0.050420317
-0.05366846
-0.059184246
-0.06625997
-0.073915492
-0.08083209
-0.085359311
-0.085572258
-0.079334065
-0.064756168
-0.040620943
-0.007204247
0.032168499
0.065008415
0.077758428
-0.076031169
-0.072450773
-0.063386557
-0.055326504
-0.050610315
-0.049630789
-0.052108217
-0.057403706
-0.064586777
-0.072450226
-0.079465966
-0.083765479
-0.083186503
-0.075223718
-0.057555238
-0.028390347
0.012877741
0.065344326
0.11550039
0.15144563
-0.10794819
-0.089444713
-0.071163023
-0.057187891
-0.049020515
-0.046238957
-0.047926464
-0.052989213
-0.06017202
-0.068009838
-0.074750191
-0.078290483
-0.076218001
-0.065719913
-0.04385787
-0.0078791848
0.044289667
0.11288318
0.18827089
0.27174576
-0.17675058
-0.10821836
-0.076181648
-0.054656009
-0.042988469
-0.038951627
-0.040461037
-0.04575241
-0.053212851
-0.061181828
-0.067775054
-0.070746679
-0.067400834
-0.054660372
-0.029147284
0.013496451
0.078033209
0.16992931
0.2893585
0.47408593
-0.37198971
-0.12464809
-0.05496254
-0.031984632
-0.022082825
-0.020281794
-0.024280041
-0.031811957
-0.041058863
-0.050403761
-0.058074416
-0.061969099
-0.059613452
-0.047963514
-0.02264149
0.021424843
0.092720329
0.21002923
0.40275945
0.77628295
)
;

boundaryField
{
    movingWall
    {
        type            zeroGradient;
    }
    fixedWalls
    {
        type            zeroGradient;
    }
    frontAndBack
    {
        type            empty;
    }
}


// ************************************************************************* //
