/*--------------------------------*- C++ -*----------------------------------*\
  =========                 |
  \\      /  F ield         | OpenFOAM: The Open Source CFD Toolbox
   \\    /   O peration     | Website:  https://openfoam.org
    \\  /    A nd           | Version:  9
     \\/     M anipulation  |
\*---------------------------------------------------------------------------*/
FoamFile
{
    format      ascii;
    class       surfaceScalarField;
    location    "10";
    object      phi;
}
// * * * * * * * * * * * * * * * * * * * * * * * * * * * * * * * * * * * * * //

dimensions      [0 3 -1 0 0 0 0];

internalField   nonuniform List<scalar> 
760
(
1.242318e-05
-1.2423582e-05
-2.8812989e-05
4.1236395e-05
-0.00012169741
9.288421e-05
-0.00024876705
0.00012706971
-0.00039322156
0.0001444545
-0.0005412601
0.00014803858
-0.00068093586
0.00013967577
-0.00080055726
0.00011962139
-0.00088796281
8.7405579e-05
-0.00093121449
4.3251691e-05
-0.00092046054
-1.0753971e-05
-0.00085095375
-6.950688e-05
-0.00072586936
-0.00012508446
-0.00055837117
-0.00016749823
-0.00037134903
-0.00018702215
-0.00019430967
-0.00017703936
-5.7080329e-05
-0.00013722943
1.8911822e-05
-7.5992242e-05
3.0025195e-05
-1.1113338e-05
3.002539e-05
-4.2939075e-05
3.0515777e-05
-0.00020301732
0.00020131443
-0.00046445283
0.00035432005
-0.00079383967
0.0004564569
-0.001157172
0.00050778684
-0.0015229862
0.00051385274
-0.0018618316
0.00047852117
-0.0021450223
0.0004028123
-0.0023445792
0.0002869624
-0.0024352532
0.00013392558
-0.0023991754
-4.6831971e-05
-0.0022287085
-0.00023997383
-0.0019341515
-0.00041964156
-0.0015448106
-0.0005568391
-0.001108379
-0.00062345377
-0.00068467939
-0.00060073916
-0.00033388711
-0.00048802178
-0.00010124084
-0.0003086384
-1.8888657e-06
-0.00011046501
2.8136635e-05
-0.00010901808
0.00013953362
-0.00039921409
0.00049151065
-0.00082345335
0.00077855949
-0.0013328009
0.00096580429
-0.0018806591
0.001055645
-0.002423762
0.0010569559
-0.0029210337
0.00097579283
-0.0033325553
0.0008143339
-0.0036202202
0.00057462717
-0.0037507164
0.0002644217
-0.0037000264
-9.7521985e-05
-0.0034593895
-0.00048061069
-0.0030414519
-0.00083757911
-0.0024834744
-0.0011148168
-0.0018470804
-0.001259848
-0.0012117502
-0.0012360695
-0.00066093689
-0.001038835
-0.00026241924
-0.00070715587
-4.8049419e-05
-0.0003248346
-1.9912704e-05
-0.00017162841
0.00031116219
-0.00058718775
0.00090706977
-0.001165777
0.0013571488
-0.0018399141
0.0016399413
-0.0025518589
0.0017675898
-0.0032501879
0.0017552849
-0.0038866416
0.0016122464
-0.0044144301
0.0013421224
-0.0047888061
0.00094900306
-0.004970018
0.00044563354
-0.00492827
-0.0001392699
-0.0046494657
-0.00075941492
-0.0041428328
-0.001344212
-0.003445975
-0.0018116747
-0.0026274856
-0.0020783375
-0.0017828438
-0.0020807113
-0.0010205121
-0.0018011666
-0.00043826703
-0.0012894007
-9.643958e-05
-0.00066666185
-0.00011635232
-0.00022730645
0.00053846885
-0.00075706501
0.0014368282
-0.0014763158
0.0020763995
-0.0022996003
0.0024632258
-0.0031595788
0.0026275684
-0.003999436
0.0025951421
-0.004767131
0.0023799413
-0.0054122485
0.00198724
-0.0058856314
0.001422386
-0.0061415208
0.0007015229
-0.0061424436
-0.00013834701
-0.0058637995
-0.0010380588
-0.0053043909
-0.0019036207
-0.0044939858
-0.0026220799
-0.003501308
-0.0030710154
-0.0024354441
-0.0031465751
-0.0014345311
-0.0028020793
-0.00063790861
-0.002086023
-0.00014815046
-0.0011564199
-0.00026450287
-0.00027436841
0.00081283723
-0.00090232891
0.0020647886
-0.0017435564
0.0029176269
-0.0026971896
0.003416859
-0.0036885057
0.0036188844
-0.0046578917
0.0035645281
-0.0055524519
0.0032745014
-0.0063209034
0.0027556917
-0.0069115591
0.0020130417
-0.0072727691
0.001062733
-0.0073575512
-5.3564811e-05
-0.0071256247
-0.0012699852
-0.0065582847
-0.0024709607
-0.0056678754
-0.0035124894
-0.0045139326
-0.0042249582
-0.0032137659
-0.0044467417
-0.0019383844
-0.0040774605
-0.00088255934
-0.003141848
-0.00021049124
-0.0018284881
-0.00047499415
-0.00031106371
0.0011239009
-0.0010168307
0.0027705556
-0.0019559382
0.0038567345
-0.0030157546
0.0044766755
-0.0041167835
0.0047199133
-0.0051991751
0.0046469196
-0.0062119688
0.0042872951
-0.0071058131
0.0036495362
-0.0078288516
0.0027360802
-0.0083253191
0.0015592006
-0.0085353518
0.000156468
-0.0084044731
-0.0014008639
-0.007887272
-0.0029881619
-0.0069687309
-0.0044310306
-0.0056860169
-0.0055076723
-0.0041525672
-0.0059801912
-0.0025688595
-0.0056611679
-0.0011980062
-0.0045127014
-0.00029296695
-0.0027335273
-0.00076796103
-0.00033543698
0.0014593379
-0.0010944132
0.0035295318
-0.0021014776
0.0048637989
-0.0032360617
0.0056112595
-0.0044164685
0.0059003201
-0.0055850247
0.0058154758
-0.0066954438
0.0053977142
-0.007703446
0.0046575385
-0.0085603534
0.0035929877
-0.0092090983
0.0022079454
-0.0095819306
0.00052930033
-0.0096062804
-0.0013765141
-0.009209314
-0.0033851284
-0.0083387226
-0.005301622
-0.0069926119
-0.0068537829
-0.0052593809
-0.0077134223
-0.0033530163
-0.0075675326
-0.0016100685
-0.0062556492
-0.00040629342
-0.0039373024
-0.0011742544
-0.00034595133
0.0018052893
-0.0011302593
0.0043138398
-0.00216986
0.0059033997
-0.0033395164
0.0067809159
-0.0045575153
0.007118319
-0.0057705105
0.0070284709
-0.0069395769
0.0065667806
-0.0080290442
0.0057470058
-0.0089979652
0.0045619088
-0.0097935707
0.0030035508
-0.010346548
0.0010822774
-0.010570941
-0.0011521206
-0.010368806
-0.0035872634
-0.0096452252
-0.0060252033
-0.0083423941
-0.008156614
-0.0064942838
-0.0095615326
-0.0042948525
-0.0097669641
-0.0021402596
-0.008410242
-0.00056255329
-0.0055150087
-0.0017368077
-0.00034265608
0.0021479454
-0.0011236296
0.0050948133
-0.0021566199
0.00693639
-0.0033137899
0.0079380859
-0.0045151343
0.0083196634
-0.0057136022
0.0082269387
-0.0068802583
0.0077334367
-0.0079917936
0.0068585411
-0.0090203746
0.0055904897
-0.009925074
0.0039082503
-0.010644109
0.0018013123
-0.011087658
-0.0007085721
-0.011144344
-0.0035305768
-0.010677975
-0.0064915719
-0.0095638369
-0.0092707525
-0.0077496989
-0.011375671
-0.0053580712
-0.012158592
-0.0027991434
-0.01096917
-0.00077573154
-0.0075384206
-0.0025125393
-0.00032878425
0.0024767297
-0.0010816014
0.0058476304
-0.0020687355
0.0079235241
-0.0031601984
0.0090295486
-0.0042794142
0.0094388791
-0.0053879186
0.0093354429
-0.0064694969
0.0088150149
-0.0075168301
0.0079058741
-0.0085204758
0.0065941352
-0.0094591344
0.0048469089
-0.010291037
0.0026332145
-0.010932123
-6.7485748e-05
-0.011281025
-0.0031816742
-0.0111692
-0.0066033969
-0.010408596
-0.010031356
-0.0088375702
-0.012946697
-0.0064464556
-0.014549706
-0.0035747411
-0.013840884
-0.0010615862
-0.010051575
-0.0035741256
-0.00031292473
0.0027896544
-0.001023624
0.0065583297
-0.0019307617
0.0088306616
-0.0029011603
0.0099999472
-0.0038646865
0.010402405
-0.0047952022
0.010265958
-0.0056925312
0.0097123437
-0.006568508
0.0087818509
-0.0074361141
0.0074617412
-0.0082997195
0.0057105145
-0.0091435922
0.0034770871
-0.0099272265
0.0007161487
-0.010543395
-0.0025655058
-0.010839255
-0.0063075363
-0.010580703
-0.010289909
-0.0094947949
-0.014032604
-0.0073884868
-0.016656014
-0.0044149034
-0.016814467
-0.0014350059
-0.013031473
-0.0050091315
-0.00031242672
0.0031020811
-0.00098705275
0.0072329557
-0.0017904207
0.0096340293
-0.0025852239
0.01079475
-0.0033146406
0.011131822
-0.0039718504
0.010923168
-0.0045775273
0.010318021
-0.0051655239
0.0093698475
-0.0057732184
0.0080694358
-0.0064335084
0.0063708045
-0.0071656654
0.0042092443
-0.0079649801
0.0015154635
-0.008770876
-0.0017596099
-0.0094578293
-0.005620583
-0.0097895644
-0.0099581743
-0.0094135585
-0.01440861
-0.007936166
-0.018133407
-0.0052063662
-0.019544267
-0.0019014048
-0.016336435
-0.006910536
-0.0003595121
0.0034615932
-0.0010339983
0.0079074419
-0.001721612
0.010321643
-0.0022853414
0.01135848
-0.0026967361
0.011543216
-0.0029805877
0.01120702
-0.0031853532
0.010522786
-0.0033693813
0.0095538755
-0.0035939289
0.0082939834
-0.0039187766
0.0066956522
-0.0043966405
0.0046871081
-0.0050642702
0.0021830932
-0.005919442
-0.00090443802
-0.0068959402
-0.0046440848
-0.0078077594
-0.0090463553
-0.0082888513
-0.013927518
-0.007782339
-0.018639919
-0.0057562595
-0.021570347
-0.0024370302
-0.019655664
-0.0093475662
-0.00051249652
0.0039740896
-0.0012580191
0.0086529645
-0.0018177312
0.010881355
-0.0020791189
0.011619867
-0.0020718545
0.011535952
-0.0018714673
0.011006632
-0.0015631023
0.010214421
-0.0012318297
0.0092226028
-0.00095994516
0.0080220987
-0.00082863905
0.006564346
-0.00091682266
0.0047752918
-0.0012980625
0.0025643331
-0.0020299129
-0.00017258752
-0.0031242584
-0.0035497391
-0.0044963685
-0.0076742452
-0.0058560579
-0.012567828
-0.0065854217
-0.017910555
-0.0057780111
-0.022377757
-0.0029534359
-0.02248024
-0.012301002
-0.00087293424
0.0048470238
-0.0017760837
0.009556114
-0.0021449124
0.011250184
-0.0019708358
0.011445791
-0.0013941564
0.010959272
-0.00056667513
0.010179151
0.0003814997
0.009266246
0.001341502
0.0082626005
0.0022138818
0.007149719
0.002903907
0.0058743208
0.0033150777
0.0043641211
0.0033466488
0.002532762
0.002892943
0.00028111841
0.001868934
-0.0025257302
0.00023450626
-0.0060398176
-0.0018829892
-0.010450332
-0.0039727571
-0.015820788
-0.0048727706
-0.021477744
-0.0032583879
-0.024094622
-0.01555939
-0.0015944809
0.0064415047
-0.0026219361
0.010583569
-0.0025339929
0.01116224
-0.0016209469
0.010532745
-0.00021243605
0.0095507616
0.0014450368
0.0085216781
0.0031800703
0.0075312123
0.0048678391
0.0065748316
0.0064074662
0.0056100919
0.0077039504
0.0045778369
0.0086575701
0.0034105015
0.0091562569
0.0020340754
0.0090634032
0.00037397215
0.0082404422
-0.0017027693
0.0065360363
-0.0043354119
0.0038802473
-0.0077945431
0.00054134575
-0.012481886
-0.0024793971
-0.018457001
-0.0030315849
-0.023542434
-0.018590975
-0.0027196603
0.0091611649
-0.003155595
0.011019504
-0.0018159208
0.0098225662
0.00044534869
0.0082714751
0.0030596861
0.0069364242
0.0057368323
0.005844532
0.0083205106
0.0049475341
0.010714853
0.0041804888
0.012847173
0.0034777726
0.014645801
0.0027792083
0.016026809
0.0020294939
0.016886352
0.0011745322
0.017088184
0.00017213928
0.016464755
-0.0010793395
0.014795842
-0.0026664986
0.011830047
-0.0048287485
0.0074226761
-0.0080745153
0.0022544948
-0.01328882
-0.0012763412
-0.020011598
-0.019867317
-0.0024121845
0.011573349
2.8372988e-05
0.0085789463
0.0042521584
0.0055987808
0.008407615
0.0041160186
0.012216418
0.0031276211
0.015634796
0.0024261548
0.018659773
0.0019225565
0.02129885
0.0015414115
0.023551668
0.001224955
0.025398046
0.00093283087
0.026791557
0.0006359829
0.0276527
0.00031338887
0.027879799
-5.4959577e-05
0.027331866
-0.00053140674
0.025760639
-0.0010952717
0.022835366
-0.001903476
0.018049359
-0.0032885072
0.011110007
-0.0063494683
0.0033871634
-0.012288755
-0.016480153
0.011573349
0.020152296
0.025751077
0.029867095
0.032994717
0.035420871
0.037343428
0.038884839
0.040109794
0.041042625
0.041678608
0.041991997
0.041937037
0.041405631
0.040310359
0.038406883
0.035118376
0.028768908
0.016480153
)
;

boundaryField
{
    movingWall
    {
        type            calculated;
        value           uniform 0;
    }
    fixedWalls
    {
        type            calculated;
        value           uniform 0;
    }
    frontAndBack
    {
        type            empty;
        value           nonuniform List<scalar> 0();
    }
}


// ************************************************************************* //
