/*--------------------------------*- C++ -*----------------------------------*\
  =========                 |
  \\      /  F ield         | OpenFOAM: The Open Source CFD Toolbox
   \\    /   O peration     | Website:  https://openfoam.org
    \\  /    A nd           | Version:  9
     \\/     M anipulation  |
\*---------------------------------------------------------------------------*/
FoamFile
{
    format      ascii;
    class       surfaceScalarField;
    location    "10";
    object      phi_0;
}
// * * * * * * * * * * * * * * * * * * * * * * * * * * * * * * * * * * * * * //

dimensions      [0 3 -1 0 0 0 0];

internalField   nonuniform List<scalar> 
760
(
1.241613e-05
-1.2427682e-05
-2.8816993e-05
4.1233084e-05
-0.00012169677
9.2879577e-05
-0.00024876031
0.00012706356
-0.00039320778
0.00014444748
-0.00054123919
0.00014803137
-0.00068090827
0.00013966906
-0.00080052417
0.00011961586
-0.00088792611
8.7401868e-05
-0.00093117664
4.3250489e-05
-0.00092042452
-1.0752161e-05
-0.00085092249
-6.9502074e-05
-0.00072584522
-0.00012507724
-0.00055835547
-0.00016748973
-0.00037134165
-0.00018701385
-0.00019430893
-0.00017703273
-5.7083339e-05
-0.00013722555
1.8908136e-05
-7.5991445e-05
3.0023197e-05
-1.1115072e-05
3.0023162e-05
-4.2939949e-05
3.0512267e-05
-0.00020301106
0.00020130386
-0.00046443396
0.00035430206
-0.00079380431
0.0004564338
-0.0011571184
0.00050776146
-0.0015229146
0.00051382747
-0.001861744
0.00047849828
-0.0021449225
0.00040279422
-0.0023444722
0.00028695149
-0.0024351453
0.00013392369
-0.0023990735
-4.6823944e-05
-0.002228619
-0.00023995638
-0.0019340794
-0.00041961675
-0.0015447587
-0.00055681034
-0.0011083471
-0.00062342533
-0.00068466428
-0.00060071546
-0.00033388357
-0.00048800625
-0.00010124261
-0.00030863241
-1.890742e-06
-0.00011046696
2.8132466e-05
-0.00010901362
0.00013952575
-0.00039919479
0.00049148509
-0.00082341207
0.0007785192
-0.0013327329
0.00096575478
-0.0018805632
0.0010555917
-0.0024236397
0.0010569039
-0.0029208886
0.00097574715
-0.0033323936
0.00081429915
-0.0036200496
0.00057460747
-0.0037505461
0.00026442005
-0.0036998658
-9.7504366e-05
-0.0034592471
-0.00048057515
-0.0030413343
-0.0008375295
-0.0024833853
-0.0011147593
-0.0018470202
-0.0012597904
-0.0012117156
-0.00123602
-0.00066092168
-0.0010388001
-0.00026241561
-0.00070713842
-4.8049997e-05
-0.0003248325
-1.9917456e-05
-0.00017161937
0.00031114494
-0.00058715552
0.00090702135
-0.0011657137
0.0013570771
-0.0018398153
0.0016398563
-0.0025517244
0.0017675008
-0.0032500204
0.0017552
-0.0038864467
0.0016121734
-0.004414216
0.0013420684
-0.0047885824
0.00094897384
-0.0049697954
0.00044563312
-0.0049280595
-0.00013924023
-0.0046492769
-0.00075935762
-0.0041426735
-0.0013441329
-0.0034458499
-0.0018115827
-0.0026273962
-0.0020782441
-0.0017827877
-0.0020806284
-0.0010204833
-0.0018011045
-0.00043825659
-0.001289365
-9.6438166e-05
-0.00066665078
-0.00011635551
-0.00022729357
0.00053843837
-0.00075702222
0.0014367501
-0.0014762345
0.0020762892
-0.0022994769
0.0024630987
-0.0031594142
0.002627438
-0.0039992344
0.0025950201
-0.0047668993
0.0023798383
-0.0054119962
0.0019871652
-0.005885369
0.0014223467
-0.0061412597
0.00070152381
-0.0061421952
-0.00013830471
-0.0058635738
-0.0010379789
-0.0053041962
-0.0019035104
-0.0044938282
-0.0026219506
-0.0035011907
-0.0030708815
-0.0024353663
-0.0031464527
-0.0014344879
-0.0028019828
-0.00063789081
-0.0020859619
-0.00014814686
-0.0011563945
-0.00026450221
-0.00027435293
0.00081279125
-0.0009022794
0.0020646767
-0.0017434641
0.0029174738
-0.0026970516
0.0034166863
-0.0036883238
0.0036187103
-0.0046576713
0.0035643676
-0.0055522009
0.0032743678
-0.0063206315
0.0027555958
-0.0069112769
0.0020129921
-0.0072724874
0.0010627343
-0.0073572812
-5.3510865e-05
-0.0071253755
-0.0012698845
-0.006558065
-0.0024708208
-0.0056676923
-0.0035123232
-0.0045137913
-0.0042247825
-0.003213668
-0.0044465759
-0.001938327
-0.0040773238
-0.00088253391
-0.0031417549
-0.00021048528
-0.001828443
-0.00047498745
-0.00031104744
0.0011238386
-0.0010167795
0.002770409
-0.0019558435
0.0038565377
-0.0030156144
0.0044764572
-0.0041166003
0.0047196962
-0.0051989548
0.0046467221
-0.0062117194
0.0042871325
-0.0071055442
0.0036494207
-0.0078285728
0.0027360207
-0.0083250402
0.0015592018
-0.0085350809
0.00015652988
-0.0084042195
-0.0014007459
-0.0078870433
-0.0029879969
-0.0069685346
-0.0044308318
-0.0056858596
-0.0055074575
-0.0041524534
-0.005979982
-0.0025687894
-0.0056609878
-0.0011979732
-0.0045125709
-0.00029295853
-0.0027334575
-0.00076794608
-0.00033542197
0.0014592606
-0.001094366
0.0035293531
-0.0021013905
0.0048635622
-0.0032359331
0.0056109997
-0.0044163014
0.0059000645
-0.005584825
0.0058152457
-0.0066952192
0.0053975267
-0.0077032051
0.0046574066
-0.0085601043
0.00359292
-0.0092088483
0.0022079458
-0.0095816864
0.00052936798
-0.0096060479
-0.0013763844
-0.009209099
-0.0033849457
-0.0083385317
-0.0053013991
-0.0069924523
-0.0068535368
-0.0052592594
-0.0077131749
-0.003352937
-0.0075673101
-0.001610029
-0.0062554788
-0.00040628259
-0.0039372038
-0.0011742289
-0.00034593954
0.0018052001
-0.0011302219
0.0043136355
-0.0021697903
0.0059031307
-0.0033394133
0.0067806228
-0.0045573817
0.0071180329
-0.0057703519
0.0070282159
-0.0069394003
0.0065665752
-0.0080288567
0.0057468629
-0.008997773
0.0045618364
-0.0097933787
0.0030035515
-0.01034636
0.0010823488
-0.010570759
-0.0011519847
-0.010368633
-0.0035870719
-0.0096450643
-0.0060249678
-0.0083422517
-0.0081563494
-0.0064941679
-0.0095612586
-0.004294771
-0.0097667069
-0.0021402159
-0.0084100338
-0.00056254035
-0.0055148793
-0.0017367694
-0.00034264925
0.0021478494
-0.0011236069
0.0050945931
-0.0021565762
0.0069361002
-0.0033137245
0.0079377709
-0.0045150497
0.008319358
-0.005713503
0.0082266693
-0.0068801502
0.0077332224
-0.0079916821
0.0068583948
-0.0090202637
0.005590418
-0.0099249662
0.003908254
-0.010644004
0.0018013871
-0.011087554
-0.00070843523
-0.011144241
-0.0035303852
-0.010677872
-0.0064913368
-0.0095637352
-0.0092704857
-0.0077496063
-0.011375387
-0.0053579984
-0.012158315
-0.0027990999
-0.010968932
-0.00077571724
-0.0075382619
-0.0025124867
-0.00032878364
0.0024766331
-0.0010815972
0.0058474065
-0.0020687245
0.0079232277
-0.00316018
0.0090292263
-0.0042793901
0.0094385681
-0.005387892
0.0093351711
-0.0064694719
0.0088148023
-0.00751681
0.007905733
-0.0085204625
0.0065940705
-0.0094591278
0.0048469193
-0.010291035
0.0026332943
-0.010932117
-6.7353924e-05
-0.011281013
-0.0031814883
-0.011169176
-0.006603174
-0.010408558
-0.010031104
-0.0088375205
-0.012946424
-0.0064464053
-0.01454943
-0.0035747044
-0.013840633
-0.001061572
-0.010051394
-0.0035740587
-0.00031293095
0.002789564
-0.0010236403
0.0065581156
-0.0019307869
0.0088303746
-0.0029011941
0.0099996333
-0.003864729
0.010402103
-0.0047952546
0.010265697
-0.0056925951
0.0097121427
-0.0065685843
0.0087817222
-0.007436202
0.0074616883
-0.0082998166
0.0057105339
-0.009143692
0.0034771697
-0.0099273276
0.00071628184
-0.010543482
-0.0025653335
-0.010839322
-0.0063073347
-0.010580741
-0.010289685
-0.0094948035
-0.014032362
-0.0073884727
-0.016655761
-0.0044148818
-0.016814224
-0.0014349939
-0.013031282
-0.0050090525
-0.00031243964
0.0031020037
-0.00098708929
0.007232765
-0.0017904823
0.0096337679
-0.0025853099
0.010794461
-0.0033147494
0.011131542
-0.0039719805
0.010922928
-0.0045776769
0.010317839
-0.0051656907
0.009369736
-0.0057733991
0.0080693967
-0.0064336982
0.006370833
-0.0071658583
0.0042093297
-0.0079651687
0.0015155922
-0.0087710502
-0.001759452
-0.0094579785
-0.0056204064
-0.0097896783
-0.0099579854
-0.0094136303
-0.01440841
-0.0079361966
-0.018133194
-0.0052063675
-0.019544052
-0.0019013982
-0.016336251
-0.0069104505
-0.00035953086
0.0034615346
-0.0010340527
0.0079072866
-0.0017217062
0.010321422
-0.0022854745
0.011358229
-0.0026969043
0.011542972
-0.0029807862
0.01120681
-0.0031855762
0.010522629
-0.0033696228
0.0095537827
-0.0035941825
0.0082939564
-0.0039190357
0.0066956862
-0.0043968982
0.0046871923
-0.0050645195
0.0021832134
-0.0059196747
-0.00090429676
-0.0068961473
-0.0046439338
-0.0078079302
-0.0090462024
-0.0082889765
-0.013927363
-0.0077824131
-0.018639758
-0.0057562877
-0.021570178
-0.0024370323
-0.019655507
-0.0093474826
-0.00051251939
0.0039740541
-0.0012580864
0.0086528534
-0.0018178496
0.010881185
-0.0020792876
0.011619667
-0.0020720679
0.011535752
-0.001871717
0.011006459
-0.0015633785
0.010214291
-0.0012321225
0.0092225268
-0.00096024482
0.0080220789
-0.00082893713
0.0065643784
-0.00091711221
0.0047753673
-0.0012983379
0.0025644391
-0.0020301687
-0.00017246604
-0.0031244888
-0.0035496138
-0.0044965658
-0.0076741254
-0.0058562134
-0.012567716
-0.0065855265
-0.017910445
-0.0057780632
-0.022377641
-0.0029534481
-0.022480122
-0.012300931
-0.00087295795
0.0048470122
-0.0017761548
0.0095560503
-0.00214504
0.01125007
-0.0019710199
0.011445647
-0.0013943907
0.010959123
-0.00056694885
0.010179017
0.00038119849
0.0092661434
0.0013411869
0.0082625385
0.0022135645
0.0071497014
0.0029035977
0.0058743453
0.0033147842
0.0043641808
0.0033463766
0.0025328468
0.0028926951
0.00028121527
0.0018687129
-0.0025256316
0.00023431514
-0.0060397277
-0.0018831461
-0.010450255
-0.0039728721
-0.015820719
-0.0048728355
-0.021477677
-0.003258408
-0.024094549
-0.015559339
-0.0015944993
0.0064415116
-0.0026219961
0.010583547
-0.0025341057
0.01116218
-0.0016211149
0.010532656
-0.00021265421
0.0095506624
0.001444778
0.0085215846
0.003179784
0.0075311374
0.0048675389
0.0065747837
0.0064071653
0.0056100751
0.00770366
0.0045778506
0.0086572992
0.0034105416
0.0091560114
0.0020341346
0.0090631863
0.00037404031
0.008240254
-0.0017026992
0.0065358765
-0.0043353502
0.0038801167
-0.007794495
0.00054125016
-0.012481852
-0.002479459
-0.018456968
-0.0030316081
-0.0235424
-0.018590947
-0.0027196673
0.009161179
-0.003155626
0.011019506
-0.0018159906
0.0098225451
0.00044523327
0.0082714328
0.0030595253
0.0069363705
0.0057366321
0.0058444778
0.008320281
0.0049474884
0.010714607
0.004180458
0.012846922
0.00347776
0.014645558
0.0027792143
0.016026584
0.0020295163
0.016886151
0.0011745667
0.017088013
0.00017217836
0.016464613
-0.0010792988
0.014795727
-0.0026664642
0.011829957
-0.004828724
0.0074226064
-0.0080745015
0.0022544489
-0.013288811
-0.0012763623
-0.020011588
-0.019867309
-0.0024121785
0.011573358
2.8374719e-05
0.0085789529
0.0042521425
0.0055987775
0.0084075691
0.004116006
0.012216337
0.0031276028
0.015634679
0.0024261351
0.018659628
0.0019225395
0.021298686
0.0015414001
0.023551496
0.0012249506
0.025397877
0.00093283358
0.026791402
0.00063599151
0.027652568
0.00031340125
0.027879688
-5.4942197e-05
0.027331783
-0.00053139311
0.025760579
-0.0010952607
0.022835325
-0.0019034693
0.018049329
-0.0032885056
0.011109988
-0.0063494694
0.0033871552
-0.012288756
-0.016480153
0.011573358
0.020152311
0.025751088
0.029867094
0.032994697
0.035420832
0.037343372
0.038884772
0.040109723
0.041042557
0.041678549
0.04199195
0.041937008
0.041405614
0.040310354
0.038406884
0.035118379
0.028768909
0.016480154
)
;

boundaryField
{
    movingWall
    {
        type            calculated;
        value           uniform 0;
    }
    fixedWalls
    {
        type            calculated;
        value           uniform 0;
    }
    frontAndBack
    {
        type            empty;
        value           nonuniform List<scalar> 0();
    }
}


// ************************************************************************* //
