/*--------------------------------*- C++ -*----------------------------------*\
  =========                 |
  \\      /  F ield         | OpenFOAM: The Open Source CFD Toolbox
   \\    /   O peration     | Website:  https://openfoam.org
    \\  /    A nd           | Version:  9
     \\/     M anipulation  |
\*---------------------------------------------------------------------------*/
FoamFile
{
    format      ascii;
    class       volVectorField;
    location    "10";
    object      U;
}
// * * * * * * * * * * * * * * * * * * * * * * * * * * * * * * * * * * * * * //

dimensions      [0 1 -1 0 0 0 0];

internalField   nonuniform List<vector> 
400
(
(0.00028053927 -0.00027744979 0)
(0.0001046996 8.1253197e-05 0)
(-0.0013240801 0.00047567595 0)
(-0.0036007666 0.00073092938 0)
(-0.0063792397 0.00086096587 0)
(-0.0093614172 0.00089997094 0)
(-0.012292503 0.00086752314 0)
(-0.014938311 0.00076494825 0)
(-0.017059352 0.00058363765 0)
(-0.018408891 0.00031795271 0)
(-0.018760347 -2.3467813e-05 0)
(-0.017956847 -0.00041321277 0)
(-0.015973809 -0.00079151258 0)
(-0.012973198 -0.0010831088 0)
(-0.0093232157 -0.0012114866 0)
(-0.0055635934 -0.0011221603 0)
(-0.0023068575 -0.00080955004 0)
(-9.7695024e-05 -0.00033893439 0)
(0.000748273 0.00014790983 0)
(0.00040524286 0.00038527068 0)
(-8.687798e-05 -0.00011741584 0)
(-0.0018572018 0.0017772265 0)
(-0.0062565501 0.0035982571 0)
(-0.012347608 0.0048221311 0)
(-0.019430756 0.0054513797 0)
(-0.026869436 0.0055718743 0)
(-0.034057607 0.0052404285 0)
(-0.040414183 0.0044669791 0)
(-0.045366655 0.0032420963 0)
(-0.048369399 0.0015832123 0)
(-0.048970245 -0.00042163037 0)
(-0.046892834 -0.0025844505 0)
(-0.042148279 -0.0046147824 0)
(-0.035129875 -0.0061604539 0)
(-0.026624024 -0.0068800823 0)
(-0.017743512 -0.0065456889 0)
(-0.0097463023 -0.0051516548 0)
(-0.003748535 -0.0029920891 0)
(-0.00040013075 -0.00067492924 0)
(0.00028435302 0.00077171143 0)
(-0.00058313949 0.0014277821 0)
(-0.0042034406 0.0063265752 0)
(-0.011646733 0.010547882 0)
(-0.021263667 0.013362982 0)
(-0.032058494 0.014764473 0)
(-0.043177843 0.014884054 0)
(-0.053784414 0.013816402 0)
(-0.063065243 0.011590863 0)
(-0.070230535 0.008226227 0)
(-0.074547223 0.0038209069 0)
(-0.075417647 -0.0013621225 0)
(-0.072489062 -0.0068431951 0)
(-0.065779886 -0.011940993 0)
(-0.055784333 -0.015848592 0)
(-0.043505468 -0.017792203 0)
(-0.030397955 -0.017253041 0)
(-0.0181651 -0.014204227 0)
(-0.0083903307 -0.0092746992 0)
(-0.0021513625 -0.003764712 0)
(-5.4348288e-06 0.00030010292 0)
(-0.0010419316 0.0042658055 0)
(-0.0064472587 0.013442898 0)
(-0.016825354 0.020670535 0)
(-0.029729093 0.025324265 0)
(-0.043864142 0.027507899 0)
(-0.058218299 0.027442494 0)
(-0.071808014 0.025273415 0)
(-0.083679638 0.021057206 0)
(-0.092907537 0.014855824 0)
(-0.098627564 0.0068743091 0)
(-0.10011904 -0.0024155454 0)
(-0.09691588 -0.012209492 0)
(-0.08894301 -0.021371133 0)
(-0.076653036 -0.028553534 0)
(-0.061108935 -0.0324333 0)
(-0.043988679 -0.032062402 0)
(-0.027411969 -0.02727368 0)
(-0.013517377 -0.018988305 0)
(-0.0040124769 -0.0092499586 0)
(-0.00026879435 -0.0011235352 0)
(-0.0014394505 0.0082866167 0)
(-0.0084576908 0.022958482 0)
(-0.021521161 0.033726091 0)
(-0.03741229 0.040380459 0)
(-0.054558951 0.043303652 0)
(-0.07183408 0.042882444 0)
(-0.088172993 0.039340128 0)
(-0.10255204 0.032765695 0)
(-0.11396859 0.023259311 0)
(-0.12145768 0.011118826 0)
(-0.12416313 -0.0029957266 0)
(-0.12143457 -0.017965719 0)
(-0.11297749 -0.032192273 0)
(-0.099043051 -0.04372586 0)
(-0.08059173 -0.050550229 0)
(-0.059418651 -0.051067404 0)
(-0.038073711 -0.044727049 0)
(-0.019416563 -0.032582381 0)
(-0.0060632167 -0.017428321 0)
(-0.00050966336 -0.0035276804 0)
(-0.0017690476 0.013341703 0)
(-0.010163064 0.034617538 0)
(-0.025548248 0.049428956 0)
(-0.044038906 0.058247002 0)
(-0.063830389 0.061900599 0)
(-0.083725287 0.061032935 0)
(-0.10263476 0.055981664 0)
(-0.11952562 0.046869308 0)
(-0.1333684 0.03380847 0)
(-0.14312124 0.01713902 0)
(-0.14777439 -0.0023581047 0)
(-0.1464255 -0.023299726 0)
(-0.13843794 -0.043677592 0)
(-0.12368671 -0.060894683 0)
(-0.1028302 -0.072070959 0)
(-0.07761492 -0.074644137 0)
(-0.0509786 -0.067280537 0)
(-0.026665422 -0.0508444 0)
(-0.0085672631 -0.028839417 0)
(-0.00078317954 -0.0070399279 0)
(-0.0020211188 0.0192416 0)
(-0.011495061 0.048055287 0)
(-0.02873138 0.067355173 0)
(-0.049321435 0.078506292 0)
(-0.071287493 0.082936659 0)
(-0.093407375 0.081638245 0)
(-0.11462183 0.075104087 0)
(-0.13394666 0.063488723 0)
(-0.15038115 0.046877387 0)
(-0.16284529 0.025576403 0)
(-0.17016881 0.0003800256 0)
(-0.17117896 -0.027200497 0)
(-0.16481889 -0.054826318 0)
(-0.15040213 -0.079265472 0)
(-0.12804389 -0.096625415 0)
(-0.099167764 -0.10300383 0)
(-0.066904129 -0.095701709 0)
(-0.035936889 -0.074810614 0)
(-0.011868257 -0.044331096 0)
(-0.0011640409 -0.011962786 0)
(-0.0021821441 0.025758394 0)
(-0.012383098 0.062818963 0)
(-0.030896603 0.086963279 0)
(-0.052953688 0.10060631 0)
(-0.076464935 0.1059032 0)
(-0.10022562 0.10428374 0)
(-0.12325669 0.096441975 0)
(-0.14468239 0.08256605 0)
(-0.16359591 0.062670437 0)
(-0.17894732 0.03693891 0)
(-0.18948128 0.0060423054 0)
(-0.19377094 -0.028567023 0)
(-0.19030613 -0.064365272 0)
(-0.17773642 -0.097601013 0)
(-0.15537328 -0.12331558 0)
(-0.12392172 -0.13591096 0)
(-0.086274538 -0.13058085 0)
(-0.047850179 -0.10567717 0)
(-0.016351735 -0.065084178 0)
(-0.0017435982 -0.0188043 0)
(-0.0022411406 0.032626785 0)
(-0.012774012 0.078378095 0)
(-0.03190507 0.10759688 0)
(-0.054660273 0.12383885 0)
(-0.078891441 0.13008906 0)
(-0.10344644 0.12830138 0)
(-0.1274728 0.11942479 0)
(-0.15026481 0.10369473 0)
(-0.17108979 0.081022202 0)
(-0.18903114 0.051382366 0)
(-0.2028721 0.015179419 0)
(-0.21104438 -0.026376063 0)
(-0.2116681 -0.07082814 0)
(-0.20271942 -0.11416385 0)
(-0.18249911 -0.15048713 0)
(-0.15053517 -0.17230627 0)
(-0.10879597 -0.1719243 0)
(-0.062796604 -0.14453902 0)
(-0.022433556 -0.092555994 0)
(-0.0026448201 -0.028303922 0)
(-0.0022010294 0.039562101 0)
(-0.012670645 0.094154405 0)
(-0.031722053 0.12850094 0)
(-0.054293627 0.14732855 0)
(-0.078217568 0.15453768 0)
(-0.10242418 0.1526942 0)
(-0.12623114 0.14306881 0)
(-0.14916464 0.12597909 0)
(-0.17075592 0.10122795 0)
(-0.19035038 0.068528452 0)
(-0.20693605 0.027902549 0)
(-0.21899591 -0.019881339 0)
(-0.22450833 -0.072741236 0)
(-0.22092556 -0.12680247 0)
(-0.20547387 -0.17561866 0)
(-0.17611199 -0.20994089 0)
(-0.13303289 -0.21860701 0)
(-0.080679595 -0.19191769 0)
(-0.030542834 -0.12831502 0)
(-0.0040517853 -0.041467465 0)
(-0.0020943139 0.046306121 0)
(-0.012184767 0.10959056 0)
(-0.030510401 0.14887373 0)
(-0.051962339 0.17005717 0)
(-0.074382239 0.17804689 0)
(-0.096820184 0.17611655 0)
(-0.11881248 0.16593851 0)
(-0.14017815 0.14797089 0)
(-0.16079795 0.12194136 0)
(-0.18040769 0.087301233 0)
(-0.19839107 0.043642365 0)
(-0.21352808 -0.0088688721 0)
(-0.22398885 -0.068969316 0)
(-0.22702204 -0.13327328 0)
(-0.21897608 -0.19547565 0)
(-0.19609996 -0.24520292 0)
(-0.15602485 -0.26781359 0)
(-0.10053448 -0.24706519 0)
(-0.041050844 -0.17369601 0)
(-0.0062488391 -0.059609809 0)
(-0.00200647 0.052710224 0)
(-0.011606017 0.12426584 0)
(-0.028738646 0.16795704 0)
(-0.048165589 0.19092409 0)
(-0.067776467 0.19921554 0)
(-0.086814694 0.1969219 0)
(-0.10510619 0.18620029 0)
(-0.12282506 0.16771919 0)
(-0.14026645 0.14119264 0)
(-0.15764083 0.10585611 0)
(-0.17488499 0.060874385 0)
(-0.19146251 0.0057340336 0)
(-0.20595858 -0.059256764 0)
(-0.21579927 -0.13181704 0)
(-0.21710075 -0.20663671 0)
(-0.2046648 -0.27335003 0)
(-0.1731561 -0.31471616 0)
(-0.1200896 -0.30714159 0)
(-0.054073695 -0.22917937 0)
(-0.0096518359 -0.084378347 0)
(-0.0021185171 0.058872573 0)
(-0.011500171 0.13805972 0)
(-0.027296482 0.18514953 0)
(-0.043898781 0.20882257 0)
(-0.059340441 0.21651848 0)
(-0.073216827 0.21326489 0)
(-0.085764008 0.20176502 0)
(-0.097584081 0.18295078 0)
(-0.10943084 0.15658823 0)
(-0.12203731 0.12177695 0)
(-0.13596576 0.077326734 0)
(-0.1514151 0.022100358 0)
(-0.16780166 -0.04450141 0)
(-0.18334708 -0.12181915 0)
(-0.1945478 -0.20636322 0)
(-0.19558156 -0.28929154 0)
(-0.17847813 -0.3527117 0)
(-0.13544844 -0.36657065 0)
(-0.069057793 -0.29344183 0)
(-0.014775106 -0.11767333 0)
(-0.0027939922 0.065367785 0)
(-0.01286549 0.15135267 0)
(-0.027603309 0.20009594 0)
(-0.040667066 0.22267708 0)
(-0.050487109 0.22835564 0)
(-0.057321525 0.22320074 0)
(-0.062011494 0.21045494 0)
(-0.065674953 0.19130637 0)
(-0.069537219 0.16560258 0)
(-0.074825204 0.1323934 0)
(-0.082687357 0.090276763 0)
(-0.094062744 0.03766033 0)
(-0.10936692 -0.026927696 0)
(-0.12803466 -0.10437798 0)
(-0.1477611 -0.1935987 0)
(-0.16335612 -0.28883902 0)
(-0.16545746 -0.37441101 0)
(-0.14107731 -0.41700894 0)
(-0.084090871 -0.3621685 0)
(-0.022001434 -0.16125329 0)
(-0.0047505372 0.073661671 0)
(-0.017374426 0.16523128 0)
(-0.031625313 0.21264933 0)
(-0.040217641 0.23133506 0)
(-0.042593717 0.23297655 0)
(-0.040210286 0.2246821 0)
(-0.034787444 0.21008239 0)
(-0.028055349 0.19050158 0)
(-0.021691744 0.16581675 0)
(-0.017326516 0.13506815 0)
(-0.016569521 0.096771738 0)
(-0.020976183 0.04911156 0)
(-0.031905545 -0.0099253201 0)
(-0.050138289 -0.082415635 0)
(-0.075196199 -0.16965087 0)
(-0.10393417 -0.27002515 0)
(-0.12773708 -0.37320708 0)
(-0.13001628 -0.44816695 0)
(-0.095008367 -0.42699365 0)
(-0.030936653 -0.21583382 0)
(-0.0093304126 0.086868651 0)
(-0.027590367 0.18153313 0)
(-0.04134626 0.22250963 0)
(-0.043260364 0.23315212 0)
(-0.035184665 0.22815405 0)
(-0.020567562 0.21535143 0)
(-0.0023050342 0.19834931 0)
(0.017203482 0.17831121 0)
(0.035898697 0.15501779 0)
(0.05189408 0.12746953 0)
(0.063304711 0.094192048 0)
(0.068183189 0.053372173 0)
(0.064452982 0.0028718252 0)
(0.0501796 -0.059926393 0)
(0.02387797 -0.13799587 0)
(-0.014347932 -0.23383481 0)
(-0.059258423 -0.34485882 0)
(-0.09383917 -0.44921914 0)
(-0.094607763 -0.47524408 0)
(-0.039239285 -0.28025101 0)
(-0.018601204 0.11087002 0)
(-0.046168878 0.20162571 0)
(-0.055547083 0.2276154 0)
(-0.044507968 0.22459001 0)
(-0.020092622 0.21015116 0)
(0.011445227 0.19185568 0)
(0.04598018 0.17245336 0)
(0.080664376 0.15244838 0)
(0.11332051 0.1312879 0)
(0.14205443 0.10786677 0)
(0.16497455 0.080778575 0)
(0.18002284 0.048382153 0)
(0.1847196 0.0087621475 0)
(0.17641579 -0.04050394 0)
(0.15211597 -0.10289722 0)
(0.10895109 -0.18368146 0)
(0.046805775 -0.28837897 0)
(-0.021742671 -0.41034588 0)
(-0.072394836 -0.49083364 0)
(-0.041178951 -0.35039708 0)
(-0.033353133 0.1556638 0)
(-0.068658415 0.22037802 0)
(-0.055370537 0.21715089 0)
(-0.016420628 0.1950881 0)
(0.033999873 0.17064199 0)
(0.087838009 0.1482201 0)
(0.14097008 0.12838627 0)
(0.1910828 0.11042749 0)
(0.23661357 0.093238272 0)
(0.27619923 0.075607193 0)
(0.30834523 0.056293689 0)
(0.33125088 0.033995109 0)
(0.3424859 0.0072330078 0)
(0.33924881 -0.025705775 0)
(0.31766084 -0.067564339 0)
(0.27290222 -0.12397657 0)
(0.20015341 -0.20576657 0)
(0.10192759 -0.32500847 0)
(-0.012497028 -0.45450601 0)
(-0.023784726 -0.40858228 0)
(-0.033066151 0.23912164 0)
(-0.042621591 0.21795217 0)
(0.042191184 0.16423903 0)
(0.12749565 0.12775153 0)
(0.20746703 0.10131674 0)
(0.27991821 0.081532606 0)
(0.34438894 0.06653961 0)
(0.40100672 0.054628678 0)
(0.44992131 0.044368617 0)
(0.49098136 0.03465401 0)
(0.52355455 0.024603857 0)
(0.54644685 0.013462617 0)
(0.55776782 0.00049217613 0)
(0.55534914 -0.015044316 0)
(0.53526221 -0.034889375 0)
(0.49226316 -0.062433368 0)
(0.41784704 -0.10692142 0)
(0.30401904 -0.19316695 0)
(0.12308744 -0.33691368 0)
(0.052357703 -0.39437415 0)
(0.24301641 0.1525916 0)
(0.30534252 0.11856631 0)
(0.4548642 0.076117534 0)
(0.56003316 0.050833274 0)
(0.63220068 0.035106777 0)
(0.68644483 0.024787674 0)
(0.72926416 0.017937253 0)
(0.76356794 0.013240353 0)
(0.79102042 0.0097570452 0)
(0.81248897 0.006860285 0)
(0.82817019 0.0041337021 0)
(0.8377437 0.0012977206 0)
(0.8404244 -0.0018262392 0)
(0.83488887 -0.0053075423 0)
(0.81882856 -0.0098124426 0)
(0.78942389 -0.016222627 0)
(0.73785438 -0.026932777 0)
(0.6531791 -0.051288594 0)
(0.4561024 -0.11375008 0)
(0.31789003 -0.17206348 0)
)
;

boundaryField
{
    movingWall
    {
        type            fixedValue;
        value           uniform (1 0 0);
    }
    fixedWalls
    {
        type            fixedValue;
        value           uniform (0 0 0);
    }
    frontAndBack
    {
        type            empty;
    }
}


// ************************************************************************* //
