/*--------------------------------*- C++ -*----------------------------------*\
  =========                 |
  \\      /  F ield         | OpenFOAM: The Open Source CFD Toolbox
   \\    /   O peration     | Website:  https://openfoam.org
    \\  /    A nd           | Version:  9
     \\/     M anipulation  |
\*---------------------------------------------------------------------------*/
FoamFile
{
    format      ascii;
    class       volVectorField;
    location    "10";
    object      U_0;
}
// * * * * * * * * * * * * * * * * * * * * * * * * * * * * * * * * * * * * * //

dimensions      [0 1 -1 0 0 0 0];

internalField   nonuniform List<vector> 
400
(
(0.00028047227 -0.00027747531 0)
(0.00010458453 8.1241513e-05 0)
(-0.001324124 0.00047565511 0)
(-0.0036006992 0.00073089734 0)
(-0.0063790368 0.00086092666 0)
(-0.0093610692 0.00089992861 0)
(-0.012292014 0.00086748156 0)
(-0.014937696 0.00076491139 0)
(-0.017058643 0.00058360979 0)
(-0.018408133 0.00031793934 0)
(-0.018759595 -2.3461976e-05 0)
(-0.017956163 -0.00041318633 0)
(-0.015973248 -0.00079146894 0)
(-0.012972798 -0.0010830559 0)
(-0.0093229885 -0.0012114353 0)
(-0.0055635213 -0.0011221219 0)
(-0.0023068941 -0.00080953237 0)
(-9.7773525e-05 -0.00033893936 0)
(0.00074821081 0.00014788591 0)
(0.00040522108 0.00038524731 0)
(-8.6899974e-05 -0.00011746811 0)
(-0.0018571759 0.001777128 0)
(-0.0062563215 0.0035980811 0)
(-0.012347079 0.0048218947 0)
(-0.019429869 0.0054511122 0)
(-0.026868178 0.0055716015 0)
(-0.034055999 0.0052401748 0)
(-0.040412286 0.0044667712 0)
(-0.045364558 0.0032419611 0)
(-0.048367217 0.001583174 0)
(-0.048968115 -0.00042155737 0)
(-0.046890893 -0.0025842688 0)
(-0.042146646 -0.0046145144 0)
(-0.03512863 -0.0061601398 0)
(-0.026623193 -0.0068797737 0)
(-0.017743061 -0.0065454388 0)
(-0.0097461434 -0.0051515034 0)
(-0.0037485453 -0.0029920502 0)
(-0.00040019156 -0.00067498228 0)
(0.00028432291 0.00077164342 0)
(-0.00058312133 0.0014276875 0)
(-0.00420325 0.006326252 0)
(-0.011646157 0.010547346 0)
(-0.021262587 0.013362303 0)
(-0.032056853 0.014763731 0)
(-0.043175646 0.014883318 0)
(-0.053781713 0.013815742 0)
(-0.063062138 0.011590348 0)
(-0.070227168 0.0082259217 0)
(-0.074543767 0.0038208605 0)
(-0.075414292 -0.0013618881 0)
(-0.072485995 -0.0068426965 0)
(-0.065777262 -0.011940288 0)
(-0.055782257 -0.015847773 0)
(-0.043503982 -0.01779139 0)
(-0.030397028 -0.017252356 0)
(-0.018164636 -0.014203765 0)
(-0.0083901806 -0.0092744983 0)
(-0.0021513645 -0.0037647324 0)
(-5.4542991e-06 0.00030000574 0)
(-0.0010418784 0.0042655701 0)
(-0.0064469082 0.013442191 0)
(-0.016824434 0.020669453 0)
(-0.029727482 0.025322956 0)
(-0.0438618 0.027506506 0)
(-0.058215255 0.027441148 0)
(-0.071804354 0.025272241 0)
(-0.083675501 0.021056323 0)
(-0.092903105 0.014855333 0)
(-0.098623047 0.0068742806 0)
(-0.10011466 -0.0024150861 0)
(-0.096911846 -0.012208581 0)
(-0.088939499 -0.021369868 0)
(-0.076650177 -0.028552068 0)
(-0.061106793 -0.032431824 0)
(-0.043987245 -0.032061117 0)
(-0.027411155 -0.027272749 0)
(-0.01351703 -0.018987808 0)
(-0.0040124042 -0.0092498524 0)
(-0.00026880143 -0.0011236247 0)
(-0.0014393672 0.008286151 0)
(-0.0084572077 0.022957241 0)
(-0.021519957 0.033724298 0)
(-0.03741025 0.040378362 0)
(-0.054556056 0.043301475 0)
(-0.071830386 0.042880387 0)
(-0.088168615 0.039338373 0)
(-0.10254715 0.032764406 0)
(-0.11396338 0.023258624 0)
(-0.12145239 0.011118829 0)
(-0.12415798 -0.0029950114 0)
(-0.12142978 -0.017964351 0)
(-0.11297325 -0.032190385 0)
(-0.099039508 -0.04372366 0)
(-0.080588976 -0.050547978 0)
(-0.059416714 -0.051065381 0)
(-0.038072535 -0.0447255 0)
(-0.019416004 -0.032581448 0)
(-0.0060630621 -0.017427983 0)
(-0.00050965715 -0.0035277159 0)
(-0.0017689436 0.013340944 0)
(-0.010162495 0.03461565 0)
(-0.025546865 0.049426333 0)
(-0.044036603 0.058244012 0)
(-0.063827169 0.061897557 0)
(-0.083721227 0.06103011 0)
(-0.10263 0.055979295 0)
(-0.11952033 0.046867599 0)
(-0.1333628 0.033807581 0)
(-0.14311554 0.017139045 0)
(-0.14776883 -0.0023571507 0)
(-0.14642027 -0.02329791 0)
(-0.13843322 -0.043675078 0)
(-0.12368265 -0.060891721 0)
(-0.10282694 -0.072067867 0)
(-0.077612532 -0.07464127 0)
(-0.050977073 -0.067278233 0)
(-0.026664645 -0.050842889 0)
(-0.0085670212 -0.028838738 0)
(-0.00078315868 -0.0070398645 0)
(-0.002021008 0.019240516 0)
(-0.011494468 0.048052698 0)
(-0.028729957 0.067351667 0)
(-0.049319083 0.078502372 0)
(-0.071284233 0.082932734 0)
(-0.093403299 0.081634653 0)
(-0.11461709 0.075101113 0)
(-0.13394143 0.063486603 0)
(-0.15037562 0.046876296 0)
(-0.16283966 0.025576436 0)
(-0.17016327 0.0003811899 0)
(-0.17117368 -0.027198284 0)
(-0.16481404 -0.054823236 0)
(-0.15039786 -0.07926179 0)
(-0.12804033 -0.096621486 0)
(-0.099165043 -0.10300007 0)
(-0.066902302 -0.095698548 0)
(-0.035935904 -0.074808401 0)
(-0.011867925 -0.044329969 0)
(-0.0011640034 -0.011962579 0)
(-0.0021820425 0.025756989 0)
(-0.012382552 0.06281569 0)
(-0.030895291 0.08695892 0)
(-0.052951526 0.1006015 0)
(-0.07646195 0.10589844 0)
(-0.10022191 0.10427944 0)
(-0.12325239 0.096438455 0)
(-0.14467768 0.082563565 0)
(-0.16359097 0.062669164 0)
(-0.17894229 0.03693894 0)
(-0.18947631 0.0060436312 0)
(-0.19376614 -0.028564504 0)
(-0.19030163 -0.064361739 0)
(-0.17773234 -0.097596735 0)
(-0.15536975 -0.12331092 0)
(-0.12391889 -0.13590634 0)
(-0.086272524 -0.1305768 0)
(-0.047849022 -0.10567416 0)
(-0.016351313 -0.065082508 0)
(-0.0017435419 -0.018803903 0)
(-0.0022410631 0.032625103 0)
(-0.012773584 0.07837423 0)
(-0.031904025 0.10759178 0)
(-0.054658537 0.12383328 0)
(-0.078889046 0.1300836 0)
(-0.10344348 0.1282965 0)
(-0.1274694 0.11942084 0)
(-0.15026113 0.10369196 0)
(-0.17108596 0.081020796 0)
(-0.18902727 0.051382388 0)
(-0.20286828 0.015180837 0)
(-0.21104067 -0.026373362 0)
(-0.21166454 -0.070824328 0)
(-0.20271606 -0.11415918 0)
(-0.18249605 -0.15048193 0)
(-0.15053255 -0.17230097 0)
(-0.10879396 -0.17191943 0)
(-0.062795358 -0.1445352 0)
(-0.022433059 -0.092553712 0)
(-0.0026447429 -0.028303289 0)
(-0.0022009891 0.039560227 0)
(-0.012670397 0.094150112 0)
(-0.031721411 0.12849529 0)
(-0.05429253 0.14732241 0)
(-0.078216043 0.15453172 0)
(-0.10242231 0.15268891 0)
(-0.12622903 0.14306458 0)
(-0.14916241 0.12597617 0)
(-0.17075367 0.10122649 0)
(-0.19034819 0.068528498 0)
(-0.20693393 0.027904026 0)
(-0.21899384 -0.019878569 0)
(-0.22450626 -0.072737334 0)
(-0.22092349 -0.12679766 0)
(-0.2054718 -0.17561323 0)
(-0.17611002 -0.20993519 0)
(-0.13303119 -0.21860156 0)
(-0.080678405 -0.19191316 0)
(-0.030542297 -0.12831211 0)
(-0.0040516863 -0.041466555 0)
(-0.0020943197 0.046304169 0)
(-0.012184743 0.10958606 0)
(-0.030510264 0.1488678 0)
(-0.051962042 0.17005073 0)
(-0.074381795 0.17804067 0)
(-0.096819647 0.17611109 0)
(-0.11881194 0.1659342 0)
(-0.14017768 0.14796799 0)
(-0.1607976 0.12193999 0)
(-0.1804075 0.087301373 0)
(-0.19839101 0.043643926 0)
(-0.21352803 -0.008866052 0)
(-0.2239887 -0.068965484 0)
(-0.22702171 -0.13326861 0)
(-0.21897546 -0.19547035 0)
(-0.19609906 -0.24519723 0)
(-0.1560238 -0.26780792 0)
(-0.10053355 -0.24706019 0)
(-0.04105033 -0.17369255 0)
(-0.0062487217 -0.059608603 0)
(-0.0020065253 0.052708327 0)
(-0.011606239 0.1242614 0)
(-0.028739069 0.16795113 0)
(-0.04816618 0.19091766 0)
(-0.067777218 0.19920934 0)
(-0.086815623 0.19691652 0)
(-0.10510733 0.18619611 0)
(-0.12282645 0.16771647 0)
(-0.14026809 0.14119145 0)
(-0.15764269 0.1058564 0)
(-0.17488699 0.060876015 0)
(-0.19146457 0.0057367839 0)
(-0.20596052 -0.059253161 0)
(-0.21580087 -0.13181276 0)
(-0.21710183 -0.20663188 0)
(-0.20466527 -0.27334478 0)
(-0.173156 -0.31471072 0)
(-0.12008916 -0.3071365 0)
(-0.054073297 -0.22917556 0)
(-0.009651711 -0.084376864 0)
(-0.0021186196 0.058870869 0)
(-0.011500636 0.13805562 0)
(-0.027297466 0.18514397 0)
(-0.043900265 0.20881646 0)
(-0.05934239 0.21651259 0)
(-0.07321921 0.21325982 0)
(-0.085766798 0.20176116 0)
(-0.097587245 0.18294836 0)
(-0.10943433 0.1565873 0)
(-0.12204103 0.12177742 0)
(-0.13596962 0.077328406 0)
(-0.15141897 0.022102957 0)
(-0.16780535 -0.044498116 0)
(-0.18335038 -0.12181538 0)
(-0.19455049 -0.20635908 0)
(-0.19558345 -0.28928707 0)
(-0.17847913 -0.35270696 0)
(-0.13544868 -0.36656595 0)
(-0.069057625 -0.29343798 0)
(-0.014774997 -0.11767165 0)
(-0.0027941342 0.065366405 0)
(-0.012866166 0.15134916 0)
(-0.027604793 0.20009105 0)
(-0.040669357 0.22267162 0)
(-0.050490138 0.22835034 0)
(-0.057325204 0.2231962 0)
(-0.062015722 0.21045154 0)
(-0.065679615 0.19130432 0)
(-0.069542194 0.16560193 0)
(-0.074830362 0.13239404 0)
(-0.082692565 0.090278464 0)
(-0.094067864 0.037662812 0)
(-0.10937179 -0.026924716 0)
(-0.12803912 -0.10437475 0)
(-0.14776494 -0.19359533 0)
(-0.16335912 -0.28883551 0)
(-0.16545945 -0.37440728 0)
(-0.14107827 -0.41700504 0)
(-0.084091033 -0.362165 0)
(-0.02200138 -0.16125155 0)
(-0.0047507042 0.073660721 0)
(-0.01737525 0.16522859 0)
(-0.031627162 0.21264538 0)
(-0.040220538 0.23133051 0)
(-0.042597569 0.23297207 0)
(-0.040214947 0.22467823 0)
(-0.034792734 0.2100795 0)
(-0.028061074 0.19049989 0)
(-0.021697711 0.1658163 0)
(-0.017332546 0.13506883 0)
(-0.016575456 0.096773356 0)
(-0.020981889 0.049113833 0)
(-0.031910907 -0.0099226875 0)
(-0.050143202 -0.082412906 0)
(-0.07520053 -0.16964821 0)
(-0.10393774 -0.27002257 0)
(-0.12773971 -0.37320444 0)
(-0.13001782 -0.44816413 0)
(-0.095008878 -0.42699087 0)
(-0.030936688 -0.21583223 0)
(-0.0093305771 0.08686819 0)
(-0.027591225 0.18153139 0)
(-0.041348236 0.22250679 0)
(-0.043263512 0.23314866 0)
(-0.035188888 0.22815053 0)
(-0.020572685 0.21534833 0)
(-0.0023108184 0.19834697 0)
(0.017197288 0.17830983 0)
(0.035892335 0.15501742 0)
(0.051887777 0.12747012 0)
(0.063298648 0.094193423 0)
(0.0681775 0.0533741 0)
(0.064447755 0.0028740328 0)
(0.050174882 -0.059924165 0)
(0.023873812 -0.13799382 0)
(-0.014351445 -0.23383299 0)
(-0.059261169 -0.34485714 0)
(-0.093840956 -0.4492174 0)
(-0.094608515 -0.47524222 0)
(-0.039239412 -0.28024975 0)
(-0.018601318 0.11087001 0)
(-0.046169578 0.20162489 0)
(-0.055548799 0.22761369 0)
(-0.0445108 0.22458769 0)
(-0.020096522 0.21014865 0)
(0.011440414 0.19185338 0)
(0.04597469 0.17245156 0)
(0.080658468 0.15244726 0)
(0.11331445 0.13128754 0)
(0.14204847 0.10786715 0)
(0.1649689 0.080779577 0)
(0.18001764 0.048383605 0)
(0.18471495 0.008763833 0)
(0.17641172 -0.040502249 0)
(0.15211248 -0.10289572 0)
(0.10894817 -0.18368025 0)
(0.04680341 -0.28837802 0)
(-0.021744321 -0.41034499 0)
(-0.072395609 -0.49083265 0)
(-0.041179122 -0.3503963 0)
(-0.033353138 0.15566406 0)
(-0.068658721 0.22037788 0)
(-0.055371527 0.21715013 0)
(-0.016422477 0.19508682 0)
(0.033997107 0.17064046 0)
(0.087834383 0.14821861 0)
(0.14096575 0.12838504 0)
(0.191078 0.11042667 0)
(0.23660854 0.093237944 0)
(0.27619424 0.075607358 0)
(0.3083405 0.056294287 0)
(0.33124659 0.033996031 0)
(0.34248215 0.0072341151 0)
(0.33924566 -0.025704672 0)
(0.31765828 -0.067563382 0)
(0.27290017 -0.12397586 0)
(0.20015181 -0.20576614 0)
(0.10192643 -0.32500815 0)
(-0.012497626 -0.45450565 0)
(-0.023784879 -0.40858196 0)
(-0.033066068 0.2391219 0)
(-0.04262145 0.21795235 0)
(0.0421911 0.16423888 0)
(0.12749506 0.12775107 0)
(0.20746578 0.10131609 0)
(0.27991625 0.081531923 0)
(0.34438632 0.066539018 0)
(0.4010036 0.05462827 0)
(0.4499179 0.044368444 0)
(0.4909779 0.034654081 0)
(0.52355126 0.024604141 0)
(0.54644393 0.013463051 0)
(0.55776535 0.0004926738 0)
(0.55534718 -0.015043813 0)
(0.53526078 -0.034888943 0)
(0.49226216 -0.062433071 0)
(0.41784635 -0.10692128 0)
(0.30401857 -0.1931669 0)
(0.12308717 -0.33691365 0)
(0.052357614 -0.39437413 0)
(0.24301651 0.15259169 0)
(0.30534278 0.11856644 0)
(0.45486449 0.076117586 0)
(0.56003329 0.050833236 0)
(0.6322005 0.035106671 0)
(0.68644427 0.024787538 0)
(0.72926322 0.017937127 0)
(0.7635667 0.013240267 0)
(0.79101902 0.0097570161 0)
(0.81248755 0.0068603158 0)
(0.82816888 0.0041337828 0)
(0.83774262 0.0012978326 0)
(0.84042361 -0.0018261421 0)
(0.8348884 -0.0053074404 0)
(0.81882835 -0.009812352 0)
(0.78942386 -0.016222572 0)
(0.73785444 -0.026932761 0)
(0.65317916 -0.051288605 0)
(0.45610243 -0.1137501 0)
(0.31789003 -0.1720635 0)
)
;

boundaryField
{
    movingWall
    {
        type            fixedValue;
        value           uniform (1 0 0);
    }
    fixedWalls
    {
        type            fixedValue;
        value           uniform (0 0 0);
    }
    frontAndBack
    {
        type            empty;
    }
}


// ************************************************************************* //
