/*--------------------------------*- C++ -*----------------------------------*\
  =========                 |
  \\      /  F ield         | OpenFOAM: The Open Source CFD Toolbox
   \\    /   O peration     | Website:  https://openfoam.org
    \\  /    A nd           | Version:  9
     \\/     M anipulation  |
\*---------------------------------------------------------------------------*/
FoamFile
{
    format      ascii;
    class       volScalarField;
    location    "0.007";
    object      mag(U);
}
// * * * * * * * * * * * * * * * * * * * * * * * * * * * * * * * * * * * * * //

dimensions      [0 1 -1 0 0 0 0];

internalField   nonuniform List<scalar> 
1000
(
7.14778e-13
6.41841e-13
5.68905e-13
7.14778e-13
5.54317e-13
8.46063e-13
7.0019e-13
7.87714e-13
8.89825e-13
6.71016e-13
9.19e-13
6.56429e-13
8.60651e-13
6.56429e-13
7.87714e-13
4.95968e-13
8.60651e-13
8.02302e-13
1.07946e-12
1.29827e-12
1.25451e-12
1.51708e-12
1.10863e-12
1.31286e-12
1.05029e-12
1.54625e-12
1.0357e-12
1.25451e-12
9.04413e-13
9.77349e-13
1.02111e-12
1.05029e-12
8.60651e-13
9.91936e-13
8.89825e-13
8.89825e-13
7.5854e-13
8.16889e-13
7.43952e-13
7.14778e-13
8.31476e-13
8.75238e-13
8.16889e-13
7.5854e-13
1.19616e-12
9.77349e-13
1.12322e-12
9.48175e-13
1.54625e-12
1.23992e-12
1.66295e-12
1.38579e-12
1.53167e-12
1.35662e-12
1.40038e-12
1.38579e-12
1.4879e-12
1.53167e-12
1.57543e-12
1.4879e-12
1.76506e-12
1.42956e-12
1.89635e-12
1.32744e-12
1.82341e-12
1.38579e-12
1.82341e-12
1.6046e-12
1.79424e-12
1.9547e-12
1.57543e-12
2.17351e-12
1.6046e-12
1.76506e-12
1.32744e-12
1.40038e-12
9.33587e-13
1.10863e-12
8.31476e-13
8.89825e-13
5.98079e-13
7.43952e-13
7.43952e-13
1.12322e-12
1.16698e-12
1.76506e-12
1.37121e-12
2.20268e-12
1.86717e-12
2.50902e-12
2.39232e-12
2.6403e-12
2.58195e-12
2.97581e-12
2.84452e-12
2.31938e-12
2.82994e-12
2.33397e-12
2.43608e-12
2.42149e-12
2.11516e-12
2.43608e-12
2.24644e-12
2.39232e-12
2.43608e-12
2.93205e-12
2.12975e-12
2.84452e-12
2.33397e-12
2.46525e-12
2.12975e-12
2.05681e-12
2.24644e-12
2.02763e-12
1.838e-12
1.85259e-12
1.6046e-12
1.6046e-12
1.40038e-12
1.88176e-12
1.40038e-12
1.838e-12
1.41497e-12
1.91094e-12
1.838e-12
2.21727e-12
2.29021e-12
2.37773e-12
2.5236e-12
2.31938e-12
2.37773e-12
2.46525e-12
2.45067e-12
2.47984e-12
2.59654e-12
2.43608e-12
2.34856e-12
2.42149e-12
2.20268e-12
2.46525e-12
2.0714e-12
2.24644e-12
2.37773e-12
2.10057e-12
2.24644e-12
2.20268e-12
2.65489e-12
2.80076e-12
3.36967e-12
4.91592e-12
6.71016e-12
1.12322e-11
1.77673e-11
2.9904e-11
4.95676e-11
8.37311e-11
1.39148e-10
2.33207e-10
3.86914e-10
6.4136e-10
1.05773e-09
1.73776e-09
2.84314e-09
4.63138e-09
7.51258e-09
1.21331e-08
1.95096e-08
3.12333e-08
4.97776e-08
7.89771e-08
1.24736e-07
1.96107e-07
3.06892e-07
4.7803e-07
7.41111e-07
1.14354e-06
1.75608e-06
2.68374e-06
4.08152e-06
6.17692e-06
9.30187e-06
1.39379e-05
2.07793e-05
3.08216e-05
4.54827e-05
6.67705e-05
9.75097e-05
0.000141649
0.000204674
0.000294149
0.000420445
0.000597671
0.000844895
0.0011877
0.00166016
0.0023073
0.00318822
0.00437979
0.00598126
0.00811972
0.0109565
0.0146946
0.0195871
0.0259468
0.0341566
0.04468
0.0580733
0.0749964
0.0962238
0.122654
0.155318
0.195383
0.244155
0.303072
0.373704
0.457731
0.556929
0.673143
0.808261
0.964176
1.14275
1.34579
1.57497
1.83186
2.11783
2.43405
2.78149
3.16088
3.57268
4.01713
4.49425
5.00381
5.54539
6.11837
6.72199
7.35533
8.01738
8.70702
9.42309
10.1644
10.9297
11.7177
12.5273
13.3573
14.2064
15.0736
15.9578
16.858
17.7731
18.7023
19.6447
20.5994
21.5658
22.543
23.5305
24.5276
25.5337
26.5482
27.5708
28.601
29.6382
30.6821
31.7323
32.7886
33.8505
34.9178
35.9901
37.0673
38.1491
39.2353
40.3256
41.4198
42.5178
43.6193
44.7243
45.8326
46.9439
48.0582
49.1753
50.2951
51.4176
52.5424
53.6696
54.7991
55.9308
57.0644
58.2001
59.3376
60.477
61.6181
62.7608
63.9051
65.0509
66.1981
67.3468
68.4967
69.648
70.8005
71.9541
73.1088
74.2647
75.4215
76.5794
77.7382
78.8979
80.0585
81.2199
82.3821
83.5451
84.7089
85.8733
87.0384
88.2042
89.3707
90.5377
91.7053
92.8735
94.0422
95.2115
96.3812
97.5514
98.7221
99.8932
101.065
102.237
103.409
104.582
105.755
106.928
108.102
109.276
110.45
111.625
112.8
113.975
115.15
116.326
117.502
118.678
119.854
121.031
122.208
123.385
124.562
125.739
126.916
128.094
129.271
130.449
131.627
132.805
133.983
135.161
136.339
137.518
138.696
139.874
141.053
142.231
143.41
144.588
145.767
146.946
148.124
149.303
150.481
151.66
152.838
154.017
155.195
156.374
157.552
158.73
159.909
161.087
162.265
163.443
164.621
165.798
166.976
168.153
169.331
170.508
171.685
172.862
174.039
175.215
176.392
177.568
178.744
179.919
181.095
182.27
183.445
184.62
185.795
186.969
188.143
189.317
190.49
191.663
192.836
194.008
195.18
196.352
197.523
198.694
199.864
201.034
202.203
203.372
204.54
205.708
206.876
208.042
209.208
210.374
211.539
212.703
213.866
215.029
216.191
217.352
218.512
219.672
220.83
221.988
223.144
224.3
225.454
226.607
227.759
228.91
230.06
231.208
232.354
233.499
234.643
235.785
236.925
238.063
239.199
240.333
241.465
242.595
243.723
244.847
245.97
247.089
248.205
249.318
250.428
251.535
252.637
253.736
254.831
255.921
257.006
258.087
259.162
260.231
261.295
262.352
263.403
264.446
265.482
266.51
267.529
268.539
269.54
270.53
271.509
272.476
273.431
274.373
275.301
276.214
277.111
277.992
278.855
279.7
280.525
281.329
282.112
282.871
283.607
284.318
285.003
285.661
286.291
286.893
287.465
288.006
288.518
288.998
289.447
289.864
290.251
290.606
290.932
291.228
291.495
291.735
291.949
292.138
292.305
292.45
292.575
292.683
292.775
292.852
292.917
292.97
293.014
293.05
293.079
293.103
293.121
293.136
293.147
293.156
293.163
293.168
293.173
293.176
293.178
293.18
293.182
293.183
293.184
293.185
293.186
293.186
293.187
293.187
293.188
293.188
293.188
293.188
293.188
293.188
293.189
293.189
293.189
293.189
293.19
293.19
293.19
293.19
293.191
293.191
293.191
293.191
293.192
293.192
293.192
293.192
293.193
293.193
293.193
293.193
293.193
293.194
293.194
293.194
293.194
293.194
293.194
293.195
293.195
293.195
293.195
293.195
293.196
293.196
293.196
293.196
293.196
293.196
293.196
293.197
293.197
293.197
293.197
293.197
293.197
293.197
293.198
293.198
293.198
293.198
293.198
293.198
293.198
293.199
293.199
293.199
293.199
293.199
293.199
293.198
293.198
293.198
293.198
293.198
293.198
293.197
293.197
293.197
293.196
293.196
293.196
293.196
293.196
293.195
293.195
293.195
293.195
293.195
293.195
293.195
293.195
293.195
293.195
293.195
293.195
293.195
293.195
293.195
293.195
293.195
293.195
293.195
293.195
293.195
293.195
293.195
293.195
293.195
293.195
293.195
293.195
293.195
293.195
293.195
293.195
293.195
293.195
293.195
293.195
293.195
293.195
293.195
293.195
293.195
293.195
293.195
293.195
293.195
293.195
293.195
293.195
293.195
293.195
293.195
293.195
293.195
293.195
293.195
293.195
293.195
293.195
293.195
293.195
293.195
293.195
293.195
293.195
293.195
293.195
293.195
293.195
293.195
293.195
293.195
293.195
293.195
293.195
293.194
293.194
293.193
293.192
293.191
293.189
293.186
293.183
293.178
293.174
293.169
293.165
293.161
293.157
293.155
293.154
293.154
293.155
293.157
293.161
293.164
293.168
293.172
293.176
293.18
293.183
293.185
293.187
293.189
293.19
293.191
293.192
293.192
293.193
293.193
293.193
293.193
293.193
293.193
293.193
293.193
293.193
293.192
293.192
293.192
293.192
293.192
293.192
293.192
293.192
293.192
293.192
293.192
293.192
293.192
293.192
293.192
293.192
293.192
293.192
293.192
293.192
293.191
293.191
293.191
293.191
293.191
293.191
293.191
293.191
293.191
293.191
293.191
293.191
293.191
293.191
293.191
293.191
293.191
293.191
293.191
293.19
293.19
293.19
293.19
293.19
293.19
293.189
293.189
293.189
293.189
293.189
293.189
293.189
293.189
293.189
293.189
293.189
293.189
293.189
293.189
293.188
293.188
293.188
293.188
293.187
293.187
293.187
293.187
293.187
293.186
293.186
293.186
293.186
293.186
293.187
293.186
293.186
293.186
293.186
293.186
293.186
293.185
293.185
293.184
293.184
293.184
293.183
293.183
293.183
293.182
293.182
293.182
293.183
293.183
293.183
293.183
293.183
293.183
293.183
293.183
293.182
293.182
293.181
293.181
293.18
293.179
293.179
293.178
293.178
293.178
293.178
293.178
293.178
293.178
293.178
293.178
293.178
293.178
293.177
293.177
293.177
293.176
293.176
293.175
293.175
293.174
293.173
293.173
293.172
293.172
293.171
293.171
293.17
293.17
293.17
293.17
293.17
293.17
293.17
293.169
293.17
293.169
293.168
293.164
293.159
293.152
293.138
293.108
293.051
292.944
292.748
292.296
291.322
289.258
284.636
273.806
248.931
199.45
127.717
60.5942
21.6214
6.39677
1.70197
0.431411
0.10763
0.0267392
0.00663636
0.0016467
0.00040858
0.000101376
2.51532e-05
6.24097e-06
1.5485e-06
3.84211e-07
9.533e-08
2.36533e-08
5.869e-09
1.45663e-09
3.61678e-10
9.01934e-11
2.27708e-11
6.2142e-12
1.67754e-12
8.60652e-13
1.75048e-13
2.47984e-13
5.83493e-14
1.45873e-14
2.04222e-13
8.75239e-14
2.04222e-13
1.02111e-13
5.83493e-14
2.91746e-14
1.02111e-13
1.60461e-13
1.60461e-13
2.47984e-13
2.47984e-13
1.45873e-13
1.11229e-26
8.75239e-14
5.10556e-13
4.3762e-13
1.45873e-13
4.08445e-13
1.45873e-14
2.91746e-14
2.04222e-13
1.31286e-13
7.29366e-14
2.47984e-13
2.47984e-13
1.45873e-13
1.31286e-13
2.1881e-13
2.91746e-13
2.33397e-13
3.50096e-13
1.45873e-14
2.91746e-14
1.16699e-13
4.3762e-14
2.04222e-13
1.45873e-14
1.89635e-13
1.89635e-13
4.3762e-13
3.20921e-13
2.04222e-13
1.45873e-14
1.60461e-13
2.91746e-14
7.29366e-14
2.20551e-26
4.3762e-14
1.89635e-13
1.45873e-13
2.91746e-14
2.47984e-13
8.75239e-14
1.16699e-13
1.15394e-26
1.45873e-14
4.3762e-14
2.77159e-13
1.45873e-13
7.29366e-14
4.3762e-14
1.75048e-13
2.62572e-13
2.04222e-13
2.1881e-13
1.16699e-13
1.89635e-13
8.75239e-14
1.45873e-13
8.75239e-14
4.3762e-14
8.75239e-14
1.45873e-13
3.06334e-13
3.06334e-13
5.25144e-13
4.81382e-13
2.1881e-13
2.91746e-14
1.02111e-13
2.1881e-13
4.3762e-14
1.45873e-13
)
;

boundaryField
{
    sides
    {
        type            calculated;
        value           nonuniform List<scalar> 2(1.45873e-13 7.14778e-13);
    }
    empty
    {
        type            empty;
    }
}


// ************************************************************************* //
