/*--------------------------------*- C++ -*----------------------------------*\
  =========                 |
  \\      /  F ield         | OpenFOAM: The Open Source CFD Toolbox
   \\    /   O peration     | Website:  https://openfoam.org
    \\  /    A nd           | Version:  9
     \\/     M anipulation  |
\*---------------------------------------------------------------------------*/
FoamFile
{
    format      ascii;
    class       surfaceScalarField;
    location    "0.007";
    object      phi;
}
// * * * * * * * * * * * * * * * * * * * * * * * * * * * * * * * * * * * * * //

dimensions      [1 0 -1 0 0 0 0];

internalField   nonuniform List<scalar> 
999
(
2.78533e-12
2.50111e-12
2.33058e-12
2.72848e-12
2.55795e-12
3.29692e-12
2.95586e-12
3.0127e-12
3.41061e-12
2.95586e-12
3.29692e-12
3.41061e-12
3.24007e-12
3.06954e-12
2.33058e-12
2.78533e-12
3.12639e-12
3.63798e-12
4.49063e-12
5.22959e-12
5.51381e-12
5.22959e-12
4.77485e-12
4.83169e-12
5.40012e-12
5.00222e-12
4.718e-12
4.20641e-12
3.29692e-12
3.9222e-12
4.26326e-12
4.14957e-12
3.69482e-12
3.75167e-12
3.63798e-12
3.35376e-12
3.24007e-12
3.12639e-12
3.06954e-12
3.35376e-12
3.69482e-12
3.12639e-12
3.0127e-12
3.63798e-12
4.43379e-12
4.20641e-12
4.37694e-12
5.05906e-12
5.45697e-12
5.74119e-12
5.91172e-12
6.13909e-12
5.17275e-12
5.68434e-12
5.34328e-12
5.74119e-12
5.85487e-12
6.19593e-12
6.48015e-12
5.96856e-12
6.87805e-12
6.36646e-12
6.87805e-12
6.30962e-12
6.48015e-12
6.65068e-12
6.9349e-12
6.87805e-12
7.16227e-12
7.50333e-12
7.3328e-12
7.27596e-12
6.59384e-12
6.0254e-12
5.28644e-12
4.60432e-12
4.03588e-12
3.75167e-12
3.58114e-12
2.78533e-12
2.67164e-12
2.78533e-12
3.86535e-12
4.94538e-12
5.74119e-12
6.13909e-12
7.21911e-12
8.18545e-12
9.0381e-12
9.89075e-12
1.04023e-11
1.00613e-11
1.09708e-11
1.11982e-11
1.06866e-11
1.06866e-11
1.02887e-11
9.77707e-12
9.15179e-12
9.43601e-12
9.0381e-12
9.32232e-12
9.09495e-12
9.60654e-12
1.03455e-11
1.03455e-11
1.00613e-11
1.03455e-11
1.00044e-11
8.81073e-12
8.58336e-12
8.29914e-12
8.46967e-12
7.90124e-12
7.27596e-12
6.87805e-12
6.70752e-12
6.0254e-12
6.87805e-12
6.53699e-12
6.48015e-12
6.59384e-12
7.16227e-12
7.27596e-12
8.52651e-12
9.09495e-12
9.26548e-12
9.89075e-12
1.00613e-11
9.66338e-12
9.72022e-12
9.9476e-12
9.9476e-12
9.60654e-12
9.60654e-12
9.49285e-12
9.66338e-12
8.98126e-12
9.32232e-12
8.98126e-12
8.46967e-12
9.0381e-12
8.58336e-12
8.58336e-12
8.75389e-12
9.89075e-12
1.08002e-11
1.21076e-11
1.54046e-11
2.22258e-11
3.38787e-11
5.47971e-11
8.99831e-11
1.50578e-10
2.51987e-10
4.22176e-10
7.05711e-10
1.17529e-09
1.95132e-09
3.22626e-09
5.31287e-09
8.71268e-09
1.42271e-08
2.31342e-08
3.74544e-08
6.03753e-08
9.68963e-08
1.54819e-07
2.46259e-07
3.89939e-07
6.14637e-07
9.64367e-07
1.50609e-06
2.34113e-06
3.62203e-06
5.57712e-06
8.54639e-06
1.30332e-05
1.97786e-05
2.98675e-05
4.48788e-05
6.70968e-05
9.98071e-05
0.000147706
0.000217468
0.000318513
0.000464059
0.00067253
0.000969439
0.00138988
0.00198178
0.00281018
0.00396269
0.00555642
0.00774688
0.0107389
0.0148001
0.0202777
0.027618
0.0373906
0.0503151
0.0672938
0.0894466
0.118151
0.155086
0.202274
0.262129
0.337499
0.431711
0.548597
0.692526
0.868412
1.08171
1.33839
1.64489
2.00806
2.43504
2.93317
3.50987
4.17244
4.92797
5.78312
6.744
7.81603
9.0038
10.311
11.7402
13.2933
14.9706
16.772
18.6959
20.7402
22.9017
25.1766
27.5606
30.0489
32.636
35.3166
38.0848
40.935
43.8613
46.8581
49.9197
53.0407
56.216
59.4405
62.7094
66.0182
69.3627
72.7388
76.1429
79.5714
83.021
86.4889
89.972
93.4679
96.9741
100.488
104.009
107.533
111.06
114.587
118.114
121.639
125.16
128.677
132.188
135.692
139.188
142.676
146.155
149.623
153.08
156.526
159.96
163.381
166.789
170.182
173.562
176.927
180.277
183.611
186.929
190.231
193.517
196.786
200.037
203.271
206.488
209.687
212.867
216.03
219.173
222.299
225.405
228.493
231.561
234.611
237.641
240.651
243.642
246.614
249.566
252.498
255.411
258.304
261.176
264.029
266.862
269.675
272.469
275.242
277.995
280.728
283.441
286.134
288.807
291.46
294.094
296.707
299.3
301.873
304.427
306.96
309.474
311.968
314.442
316.896
319.331
321.746
324.141
326.517
328.873
331.21
333.527
335.825
338.104
340.363
342.603
344.824
347.026
349.208
351.372
353.517
355.643
357.75
359.838
361.907
363.958
365.991
368.004
370
371.976
373.935
375.875
377.797
379.701
381.587
383.455
385.305
387.137
388.951
390.748
392.527
394.288
396.032
397.758
399.467
401.159
402.833
404.49
406.13
407.754
409.358
410.95
412.518
414.08
415.61
417.143
418.636
420.138
421.6
423.063
424.504
425.918
427.345
428.712
430.113
431.453
432.807
434.136
435.44
436.749
438.022
439.289
440.544
441.773
442.997
444.202
445.388
446.566
447.725
448.867
449.999
451.113
452.212
453.299
454.37
455.425
456.468
457.496
458.508
459.507
460.492
461.463
462.419
463.362
464.291
465.205
466.106
466.994
467.867
468.727
469.574
470.407
471.226
472.032
472.825
473.605
474.372
475.125
475.866
476.593
477.308
478.009
478.698
479.374
480.038
480.689
481.327
481.953
482.567
483.168
483.756
484.333
484.897
485.449
485.989
486.517
487.033
487.537
488.029
488.51
488.978
489.435
489.88
490.314
490.736
491.146
491.545
491.933
492.309
492.674
493.027
493.37
493.701
494.021
494.33
494.629
494.916
495.192
495.458
495.713
495.957
496.19
496.413
496.626
496.829
497.021
497.203
497.375
497.537
497.69
497.833
497.967
498.091
498.207
498.314
498.412
498.502
498.585
498.659
498.727
498.787
498.841
498.888
498.93
498.966
498.997
499.024
499.046
499.064
499.08
499.092
499.101
499.109
499.114
499.118
499.12
499.121
499.122
499.121
499.12
499.119
499.117
499.115
499.113
499.111
499.109
499.107
499.104
499.102
499.099
499.097
499.095
499.092
499.09
499.087
499.085
499.082
499.08
499.077
499.075
499.072
499.07
499.067
499.064
499.062
499.059
499.056
499.053
499.05
499.047
499.045
499.042
499.039
499.036
499.032
499.029
499.026
499.023
499.02
499.016
499.013
499.01
499.006
499.003
498.999
498.996
498.992
498.988
498.984
498.981
498.976
498.972
498.969
498.965
498.96
498.957
498.952
498.948
498.944
498.94
498.935
498.931
498.926
498.921
498.917
498.912
498.907
498.902
498.897
498.892
498.887
498.882
498.876
498.871
498.866
498.86
498.854
498.849
498.843
498.837
498.831
498.824
498.818
498.812
498.805
498.798
498.791
498.784
498.777
498.77
498.763
498.755
498.747
498.74
498.732
498.724
498.715
498.707
498.698
498.689
498.68
498.671
498.662
498.652
498.642
498.632
498.622
498.612
498.601
498.59
498.578
498.567
498.555
498.543
498.53
498.518
498.504
498.491
498.477
498.463
498.448
498.433
498.418
498.402
498.385
498.368
498.351
498.333
498.314
498.295
498.275
498.255
498.234
498.212
498.189
498.166
498.142
498.116
498.09
498.063
498.034
498.005
497.974
497.942
497.908
497.873
497.836
497.797
497.757
497.714
497.67
497.623
497.573
497.52
497.464
497.405
497.343
497.277
497.206
497.129
497.045
496.952
496.849
496.738
496.622
496.504
496.39
496.282
496.179
496.07
495.935
495.739
495.43
494.939
494.183
493.065
491.48
489.324
486.497
482.914
478.512
473.255
467.143
460.208
452.52
444.178
435.314
426.075
416.621
407.117
397.72
388.574
379.806
371.521
363.797
356.69
350.231
344.431
339.281
334.758
330.828
327.448
324.57
322.142
320.115
318.438
317.062
315.945
315.044
314.326
313.757
313.311
312.964
312.696
312.491
312.335
312.217
312.129
312.063
312.014
311.978
311.952
311.932
311.917
311.906
311.898
311.891
311.886
311.881
311.877
311.874
311.871
311.869
311.866
311.864
311.862
311.861
311.859
311.858
311.856
311.855
311.854
311.853
311.853
311.852
311.851
311.851
311.85
311.85
311.849
311.849
311.849
311.848
311.848
311.848
311.847
311.847
311.847
311.846
311.846
311.846
311.846
311.845
311.845
311.845
311.845
311.845
311.844
311.844
311.844
311.843
311.843
311.843
311.842
311.842
311.842
311.841
311.841
311.84
311.84
311.84
311.839
311.839
311.838
311.838
311.838
311.837
311.837
311.836
311.836
311.836
311.835
311.835
311.834
311.834
311.833
311.833
311.832
311.832
311.831
311.831
311.83
311.83
311.83
311.829
311.829
311.829
311.828
311.828
311.828
311.827
311.827
311.826
311.826
311.826
311.825
311.824
311.824
311.823
311.823
311.822
311.821
311.821
311.82
311.82
311.819
311.819
311.818
311.818
311.817
311.817
311.817
311.816
311.815
311.815
311.814
311.813
311.813
311.812
311.811
311.811
311.81
311.809
311.808
311.807
311.806
311.806
311.805
311.804
311.804
311.803
311.802
311.801
311.8
311.799
311.798
311.797
311.795
311.793
311.786
311.777
311.76
311.726
311.659
311.525
311.258
310.705
309.523
307.033
301.234
287.631
256.282
196.552
121.909
57.9037
20.9143
6.07703
1.57814
0.395305
0.098219
0.0243715
0.00604669
0.00150025
0.000372234
9.23573e-05
2.29154e-05
5.68573e-06
1.41073e-06
3.50029e-07
8.68487e-08
2.15488e-08
5.34674e-09
1.32675e-09
3.29329e-10
8.18545e-11
2.05063e-11
5.26512e-12
1.45661e-12
4.90274e-13
2.27374e-13
1.06581e-13
4.9738e-14
-1.42109e-14
-5.68434e-14
-1.42109e-14
-4.26326e-14
-8.52651e-14
-2.13163e-14
0
4.26326e-14
6.39488e-14
8.52651e-14
1.20792e-13
9.9476e-14
1.13687e-13
2.13163e-14
-1.42109e-14
-1.49214e-13
-2.20268e-13
-1.63425e-13
-1.63425e-13
-8.52651e-14
0
4.9738e-14
2.84217e-14
-4.9738e-14
-9.9476e-14
-9.23706e-14
-1.13687e-13
-7.81597e-14
-7.81597e-14
-1.56319e-13
-1.27898e-13
-1.56319e-13
-1.20792e-13
1.42109e-14
-2.84217e-14
-3.55271e-14
7.10543e-14
5.68434e-14
-7.10543e-14
-5.68434e-14
-1.84741e-13
-2.06057e-13
-1.27898e-13
-6.39488e-14
-5.68434e-14
-2.13163e-14
-3.55271e-14
-7.10543e-15
-7.10543e-15
-2.84217e-14
-7.10543e-15
2.84217e-14
5.68434e-14
3.55271e-14
1.42109e-14
3.55271e-14
-7.10543e-15
7.10543e-15
-1.20792e-13
-7.10543e-14
-7.81597e-14
0
-4.26326e-14
-1.20792e-13
-1.56319e-13
-1.06581e-13
-2.13163e-14
-3.55271e-14
-5.68434e-14
-8.52651e-14
-3.55271e-14
-1.42109e-14
3.55271e-14
5.68434e-14
8.52651e-14
1.49214e-13
2.34479e-13
3.12639e-13
1.7053e-13
6.39488e-14
-3.55271e-14
-7.10543e-14
-7.81597e-14
3.55271e-14
)
;

boundaryField
{
    sides
    {
        type            calculated;
        value           nonuniform List<scalar> 2(8.25937e-14 -2.95095e-12);
    }
    empty
    {
        type            empty;
        value           nonuniform List<scalar> 0();
    }
}


// ************************************************************************* //
