/*--------------------------------*- C++ -*----------------------------------*\
  =========                 |
  \\      /  F ield         | OpenFOAM: The Open Source CFD Toolbox
   \\    /   O peration     | Website:  https://openfoam.org
    \\  /    A nd           | Version:  9
     \\/     M anipulation  |
\*---------------------------------------------------------------------------*/
FoamFile
{
    format      ascii;
    class       volScalarField;
    location    "0.007";
    object      T;
}
// * * * * * * * * * * * * * * * * * * * * * * * * * * * * * * * * * * * * * //

dimensions      [0 0 0 1 0 0 0];

internalField   nonuniform List<scalar> 
1000
(
348.432
348.432
348.432
348.432
348.432
348.432
348.432
348.432
348.432
348.432
348.432
348.432
348.432
348.432
348.432
348.432
348.432
348.432
348.432
348.432
348.432
348.432
348.432
348.432
348.432
348.432
348.432
348.432
348.432
348.432
348.432
348.432
348.432
348.432
348.432
348.432
348.432
348.432
348.432
348.432
348.432
348.432
348.432
348.432
348.432
348.432
348.432
348.432
348.432
348.432
348.432
348.432
348.432
348.432
348.432
348.432
348.432
348.432
348.432
348.432
348.432
348.432
348.432
348.432
348.432
348.432
348.432
348.432
348.432
348.432
348.432
348.432
348.432
348.432
348.432
348.432
348.432
348.432
348.432
348.432
348.432
348.432
348.432
348.432
348.432
348.432
348.432
348.432
348.432
348.432
348.432
348.432
348.432
348.432
348.432
348.432
348.432
348.432
348.432
348.432
348.432
348.432
348.432
348.432
348.432
348.432
348.432
348.432
348.432
348.432
348.432
348.432
348.432
348.432
348.432
348.432
348.432
348.432
348.432
348.432
348.432
348.432
348.432
348.432
348.432
348.432
348.432
348.432
348.432
348.432
348.432
348.432
348.432
348.432
348.432
348.432
348.432
348.432
348.432
348.432
348.432
348.432
348.432
348.432
348.432
348.432
348.432
348.432
348.432
348.432
348.432
348.432
348.432
348.432
348.432
348.432
348.432
348.432
348.432
348.432
348.432
348.432
348.432
348.432
348.432
348.432
348.432
348.432
348.432
348.432
348.432
348.432
348.432
348.432
348.432
348.432
348.432
348.432
348.432
348.432
348.432
348.432
348.432
348.432
348.432
348.432
348.432
348.432
348.432
348.432
348.432
348.432
348.432
348.432
348.431
348.431
348.431
348.43
348.43
348.429
348.428
348.427
348.425
348.422
348.419
348.415
348.41
348.404
348.396
348.387
348.374
348.36
348.341
348.319
348.293
348.262
348.225
348.182
348.132
348.074
348.007
347.931
347.846
347.751
347.644
347.526
347.397
347.256
347.103
346.937
346.76
346.57
346.369
346.156
345.932
345.697
345.451
345.195
344.929
344.655
344.371
344.079
343.779
343.472
343.158
342.837
342.511
342.178
341.84
341.498
341.15
340.798
340.442
340.083
339.719
339.353
338.983
338.611
338.235
337.857
337.477
337.095
336.71
336.324
335.935
335.545
335.154
334.76
334.366
333.97
333.572
333.174
332.774
332.374
331.972
331.569
331.166
330.762
330.356
329.951
329.544
329.137
328.729
328.321
327.912
327.503
327.093
326.683
326.272
325.861
325.45
325.038
324.626
324.214
323.801
323.389
322.976
322.563
322.15
321.736
321.323
320.909
320.496
320.082
319.668
319.254
318.84
318.426
318.013
317.599
317.185
316.771
316.357
315.943
315.529
315.116
314.702
314.289
313.875
313.462
313.048
312.635
312.222
311.809
311.396
310.984
310.571
310.159
309.747
309.335
308.923
308.511
308.099
307.688
307.277
306.866
306.455
306.044
305.633
305.223
304.813
304.403
303.994
303.584
303.175
302.766
302.357
301.949
301.54
301.132
300.724
300.317
299.909
299.502
299.095
298.689
298.282
297.876
297.47
297.065
296.66
296.254
295.85
295.445
295.041
294.637
294.233
293.83
293.427
293.024
292.622
292.218
291.819
291.413
291.019
290.606
290.224
289.795
289.436
288.98
288.655
288.163
287.872
287.357
287.074
286.575
286.253
285.812
285.426
285.046
284.62
284.253
283.841
283.446
283.062
282.655
282.268
281.876
281.476
281.089
280.695
280.3
279.912
279.519
279.127
278.739
278.348
277.957
277.569
277.18
276.791
276.404
276.016
275.629
275.243
274.856
274.471
274.085
273.701
273.317
272.933
272.55
272.167
271.786
271.404
271.023
270.643
270.263
269.884
269.505
269.128
268.75
268.374
267.998
267.623
267.249
266.875
266.503
266.131
265.76
265.389
265.02
264.652
264.284
263.918
263.552
263.188
262.825
262.463
262.102
261.743
261.384
261.028
260.672
260.319
259.966
259.616
259.267
258.92
258.575
258.232
257.892
257.553
257.218
256.884
256.553
256.225
255.9
255.579
255.26
254.946
254.634
254.327
254.024
253.726
253.432
253.144
252.86
252.582
252.31
252.044
251.784
251.532
251.286
251.048
250.818
250.595
250.382
250.177
249.981
249.794
249.616
249.449
249.291
249.143
249.005
248.877
248.759
248.65
248.551
248.461
248.38
248.308
248.244
248.188
248.138
248.095
248.058
248.027
248.001
247.979
247.96
247.946
247.934
247.924
247.917
247.911
247.906
247.903
247.901
247.9
247.899
247.898
247.898
247.898
247.899
247.899
247.9
247.901
247.902
247.903
247.904
247.905
247.906
247.907
247.909
247.909
247.912
247.912
247.914
247.914
247.917
247.917
247.92
247.92
247.922
247.923
247.925
247.925
247.928
247.928
247.931
247.931
247.934
247.934
247.938
247.938
247.941
247.941
247.944
247.944
247.947
247.948
247.95
247.953
247.954
247.956
247.958
247.96
247.962
247.964
247.966
247.968
247.97
247.972
247.974
247.977
247.979
247.981
247.983
247.986
247.988
247.991
247.993
247.995
247.998
248.001
248.003
248.006
248.009
248.011
248.014
248.017
248.02
248.023
248.026
248.029
248.032
248.036
248.039
248.042
248.046
248.049
248.053
248.057
248.06
248.064
248.068
248.072
248.076
248.081
248.085
248.089
248.094
248.098
248.103
248.107
248.112
248.117
248.122
248.127
248.133
248.138
248.143
248.149
248.155
248.161
248.167
248.173
248.179
248.186
248.193
248.2
248.207
248.214
248.222
248.229
248.237
248.246
248.254
248.263
248.272
248.281
248.291
248.301
248.311
248.322
248.333
248.344
248.356
248.368
248.381
248.394
248.408
248.423
248.437
248.453
248.469
248.487
248.505
248.523
248.543
248.564
248.585
248.608
248.632
248.658
248.685
248.713
248.743
248.776
248.809
248.846
248.886
248.93
248.979
249.033
249.09
249.15
249.208
249.264
249.316
249.368
249.425
249.503
249.622
249.814
250.117
250.578
251.251
252.195
253.468
255.132
257.24
259.844
262.982
266.683
270.962
275.817
281.229
287.161
293.555
300.339
307.422
314.701
322.066
329.403
336.597
343.545
350.151
356.339
362.05
367.244
371.903
376.025
379.623
382.725
385.366
387.588
389.437
390.958
392.196
393.194
393.99
394.62
395.112
395.495
395.789
396.014
396.184
396.312
396.408
396.479
396.531
396.57
396.599
396.62
396.636
396.648
396.657
396.664
396.67
396.675
396.68
396.683
396.687
396.689
396.692
396.695
396.697
396.699
396.7
396.702
396.703
396.704
396.705
396.706
396.707
396.708
396.708
396.709
396.709
396.709
396.71
396.71
396.71
396.711
396.711
396.711
396.711
396.711
396.711
396.711
396.712
396.712
396.712
396.712
396.712
396.712
396.712
396.712
396.712
396.712
396.712
396.712
396.712
396.712
396.712
396.712
396.712
396.712
396.713
396.713
396.713
396.713
396.713
396.713
396.713
396.713
396.713
396.713
396.713
396.713
396.713
396.713
396.713
396.713
396.713
396.713
396.714
396.714
396.714
396.714
396.714
396.714
396.714
396.714
396.714
396.714
396.714
396.714
396.714
396.714
396.714
396.714
396.714
396.713
396.713
396.714
396.714
396.714
396.714
396.714
396.714
396.714
396.714
396.714
396.715
396.715
396.714
396.714
396.714
396.714
396.714
396.713
396.713
396.713
396.713
396.713
396.713
396.713
396.713
396.713
396.713
396.713
396.713
396.713
396.713
396.713
396.713
396.713
396.713
396.712
396.712
396.712
396.712
396.712
396.712
396.711
396.71
396.709
396.708
396.708
396.707
396.704
396.698
396.687
396.66
396.603
396.483
396.271
395.79
394.723
392.372
386.674
375.001
349.469
321.026
297.702
285.11
280.532
279.211
278.864
278.775
278.753
278.748
278.746
278.746
278.746
278.746
278.746
278.746
278.746
278.746
278.746
278.746
278.746
278.746
278.746
278.746
278.746
278.746
278.746
278.746
278.746
278.746
278.746
278.746
278.746
278.746
278.746
278.746
278.746
278.746
278.746
278.746
278.746
278.746
278.746
278.746
278.746
278.746
278.746
278.746
278.746
278.746
278.746
278.746
278.746
278.746
278.746
278.746
278.746
278.746
278.746
278.746
278.746
278.746
278.746
278.746
278.746
278.746
278.746
278.746
278.746
278.746
278.746
278.746
278.746
278.746
278.746
278.746
278.746
278.746
278.746
278.746
278.746
278.746
278.746
278.746
278.746
278.746
278.746
278.746
278.746
278.746
278.746
278.746
278.746
278.746
278.746
278.746
278.746
278.746
278.746
278.746
278.746
278.746
278.746
278.746
278.746
278.746
278.746
278.746
278.746
278.746
278.746
278.746
278.746
278.746
)
;

boundaryField
{
    sides
    {
        type            zeroGradient;
    }
    empty
    {
        type            empty;
    }
}


// ************************************************************************* //
