/*--------------------------------*- C++ -*----------------------------------*\
  =========                 |
  \\      /  F ield         | OpenFOAM: The Open Source CFD Toolbox
   \\    /   O peration     | Website:  https://openfoam.org
    \\  /    A nd           | Version:  9
     \\/     M anipulation  |
\*---------------------------------------------------------------------------*/
FoamFile
{
    format      ascii;
    class       volVectorField;
    location    "0.007";
    object      U;
}
// * * * * * * * * * * * * * * * * * * * * * * * * * * * * * * * * * * * * * //

dimensions      [0 1 -1 0 0 0 0];

internalField   nonuniform List<vector> 
1000
(
(7.14778e-13 0 0)
(6.41841e-13 0 0)
(5.68905e-13 0 0)
(7.14778e-13 0 0)
(5.54317e-13 0 0)
(8.46063e-13 0 0)
(7.0019e-13 0 0)
(7.87714e-13 0 0)
(8.89825e-13 0 0)
(6.71016e-13 0 0)
(9.19e-13 0 0)
(6.56429e-13 0 0)
(8.60651e-13 0 0)
(6.56429e-13 0 0)
(7.87714e-13 0 0)
(4.95968e-13 0 0)
(8.60651e-13 0 0)
(8.02302e-13 0 0)
(1.07946e-12 0 0)
(1.29827e-12 0 0)
(1.25451e-12 0 0)
(1.51708e-12 0 0)
(1.10863e-12 0 0)
(1.31286e-12 0 0)
(1.05029e-12 0 0)
(1.54625e-12 0 0)
(1.0357e-12 0 0)
(1.25451e-12 0 0)
(9.04413e-13 0 0)
(9.77349e-13 0 0)
(1.02111e-12 0 0)
(1.05029e-12 0 0)
(8.60651e-13 0 0)
(9.91936e-13 0 0)
(8.89825e-13 0 0)
(8.89825e-13 0 0)
(7.5854e-13 0 0)
(8.16889e-13 0 0)
(7.43952e-13 0 0)
(7.14778e-13 0 0)
(8.31476e-13 0 0)
(8.75238e-13 0 0)
(8.16889e-13 0 0)
(7.5854e-13 0 0)
(1.19616e-12 0 0)
(9.77349e-13 0 0)
(1.12322e-12 0 0)
(9.48175e-13 0 0)
(1.54625e-12 0 0)
(1.23992e-12 0 0)
(1.66295e-12 0 0)
(1.38579e-12 0 0)
(1.53167e-12 0 0)
(1.35662e-12 0 0)
(1.40038e-12 0 0)
(1.38579e-12 0 0)
(1.4879e-12 0 0)
(1.53167e-12 0 0)
(1.57543e-12 0 0)
(1.4879e-12 0 0)
(1.76506e-12 0 0)
(1.42956e-12 0 0)
(1.89635e-12 0 0)
(1.32744e-12 0 0)
(1.82341e-12 0 0)
(1.38579e-12 0 0)
(1.82341e-12 0 0)
(1.6046e-12 0 0)
(1.79424e-12 0 0)
(1.9547e-12 0 0)
(1.57543e-12 0 0)
(2.17351e-12 0 0)
(1.6046e-12 0 0)
(1.76506e-12 0 0)
(1.32744e-12 0 0)
(1.40038e-12 0 0)
(9.33587e-13 0 0)
(1.10863e-12 0 0)
(8.31476e-13 0 0)
(8.89825e-13 0 0)
(5.98079e-13 0 0)
(7.43952e-13 0 0)
(7.43952e-13 0 0)
(1.12322e-12 0 0)
(1.16698e-12 0 0)
(1.76506e-12 0 0)
(1.37121e-12 0 0)
(2.20268e-12 0 0)
(1.86717e-12 0 0)
(2.50902e-12 0 0)
(2.39232e-12 0 0)
(2.6403e-12 0 0)
(2.58195e-12 0 0)
(2.97581e-12 0 0)
(2.84452e-12 0 0)
(2.31938e-12 0 0)
(2.82994e-12 0 0)
(2.33397e-12 0 0)
(2.43608e-12 0 0)
(2.42149e-12 0 0)
(2.11516e-12 0 0)
(2.43608e-12 0 0)
(2.24644e-12 0 0)
(2.39232e-12 0 0)
(2.43608e-12 0 0)
(2.93205e-12 0 0)
(2.12975e-12 0 0)
(2.84452e-12 0 0)
(2.33397e-12 0 0)
(2.46525e-12 0 0)
(2.12975e-12 0 0)
(2.05681e-12 0 0)
(2.24644e-12 0 0)
(2.02763e-12 0 0)
(1.838e-12 0 0)
(1.85259e-12 0 0)
(1.6046e-12 0 0)
(1.6046e-12 0 0)
(1.40038e-12 0 0)
(1.88176e-12 0 0)
(1.40038e-12 0 0)
(1.838e-12 0 0)
(1.41497e-12 0 0)
(1.91094e-12 0 0)
(1.838e-12 0 0)
(2.21727e-12 0 0)
(2.29021e-12 0 0)
(2.37773e-12 0 0)
(2.5236e-12 0 0)
(2.31938e-12 0 0)
(2.37773e-12 0 0)
(2.46525e-12 0 0)
(2.45067e-12 0 0)
(2.47984e-12 0 0)
(2.59654e-12 0 0)
(2.43608e-12 0 0)
(2.34856e-12 0 0)
(2.42149e-12 0 0)
(2.20268e-12 0 0)
(2.46525e-12 0 0)
(2.0714e-12 0 0)
(2.24644e-12 0 0)
(2.37773e-12 0 0)
(2.10057e-12 0 0)
(2.24644e-12 0 0)
(2.20268e-12 0 0)
(2.65489e-12 0 0)
(2.80076e-12 0 0)
(3.36967e-12 0 0)
(4.91592e-12 0 0)
(6.71016e-12 0 0)
(1.12322e-11 0 0)
(1.77673e-11 0 0)
(2.9904e-11 0 0)
(4.95676e-11 0 0)
(8.37311e-11 0 0)
(1.39148e-10 0 0)
(2.33207e-10 0 0)
(3.86914e-10 0 0)
(6.4136e-10 0 0)
(1.05773e-09 0 0)
(1.73776e-09 0 0)
(2.84314e-09 0 0)
(4.63138e-09 0 0)
(7.51258e-09 0 0)
(1.21331e-08 0 0)
(1.95096e-08 0 0)
(3.12333e-08 0 0)
(4.97776e-08 0 0)
(7.89771e-08 0 0)
(1.24736e-07 0 0)
(1.96107e-07 0 0)
(3.06892e-07 0 0)
(4.7803e-07 0 0)
(7.41111e-07 0 0)
(1.14354e-06 0 0)
(1.75608e-06 0 0)
(2.68374e-06 0 0)
(4.08152e-06 0 0)
(6.17692e-06 0 0)
(9.30187e-06 0 0)
(1.39379e-05 0 0)
(2.07793e-05 0 0)
(3.08216e-05 0 0)
(4.54827e-05 0 0)
(6.67705e-05 0 0)
(9.75097e-05 0 0)
(0.000141649 0 0)
(0.000204674 0 0)
(0.000294149 0 0)
(0.000420445 0 0)
(0.000597671 0 0)
(0.000844895 0 0)
(0.0011877 0 0)
(0.00166016 0 0)
(0.0023073 0 0)
(0.00318822 0 0)
(0.00437979 0 0)
(0.00598126 0 0)
(0.00811972 0 0)
(0.0109565 0 0)
(0.0146946 0 0)
(0.0195871 0 0)
(0.0259468 0 0)
(0.0341566 0 0)
(0.04468 0 0)
(0.0580733 0 0)
(0.0749964 0 0)
(0.0962238 0 0)
(0.122654 0 0)
(0.155318 0 0)
(0.195383 0 0)
(0.244155 0 0)
(0.303072 0 0)
(0.373704 0 0)
(0.457731 0 0)
(0.556929 0 0)
(0.673143 0 0)
(0.808261 0 0)
(0.964176 0 0)
(1.14275 0 0)
(1.34579 0 0)
(1.57497 0 0)
(1.83186 0 0)
(2.11783 0 0)
(2.43405 0 0)
(2.78149 0 0)
(3.16088 0 0)
(3.57268 0 0)
(4.01713 0 0)
(4.49425 0 0)
(5.00381 0 0)
(5.54539 0 0)
(6.11837 0 0)
(6.72199 0 0)
(7.35533 0 0)
(8.01738 0 0)
(8.70702 0 0)
(9.42309 0 0)
(10.1644 0 0)
(10.9297 0 0)
(11.7177 0 0)
(12.5273 0 0)
(13.3573 0 0)
(14.2064 0 0)
(15.0736 0 0)
(15.9578 0 0)
(16.858 0 0)
(17.7731 0 0)
(18.7023 0 0)
(19.6447 0 0)
(20.5994 0 0)
(21.5658 0 0)
(22.543 0 0)
(23.5305 0 0)
(24.5276 0 0)
(25.5337 0 0)
(26.5482 0 0)
(27.5708 0 0)
(28.601 0 0)
(29.6382 0 0)
(30.6821 0 0)
(31.7323 0 0)
(32.7886 0 0)
(33.8505 0 0)
(34.9178 0 0)
(35.9901 0 0)
(37.0673 0 0)
(38.1491 0 0)
(39.2353 0 0)
(40.3256 0 0)
(41.4198 0 0)
(42.5178 0 0)
(43.6193 0 0)
(44.7243 0 0)
(45.8326 0 0)
(46.9439 0 0)
(48.0582 0 0)
(49.1753 0 0)
(50.2951 0 0)
(51.4176 0 0)
(52.5424 0 0)
(53.6696 0 0)
(54.7991 0 0)
(55.9308 0 0)
(57.0644 0 0)
(58.2001 0 0)
(59.3376 0 0)
(60.477 0 0)
(61.6181 0 0)
(62.7608 0 0)
(63.9051 0 0)
(65.0509 0 0)
(66.1981 0 0)
(67.3468 0 0)
(68.4967 0 0)
(69.648 0 0)
(70.8005 0 0)
(71.9541 0 0)
(73.1088 0 0)
(74.2647 0 0)
(75.4215 0 0)
(76.5794 0 0)
(77.7382 0 0)
(78.8979 0 0)
(80.0585 0 0)
(81.2199 0 0)
(82.3821 0 0)
(83.5451 0 0)
(84.7089 0 0)
(85.8733 0 0)
(87.0384 0 0)
(88.2042 0 0)
(89.3707 0 0)
(90.5377 0 0)
(91.7053 0 0)
(92.8735 0 0)
(94.0422 0 0)
(95.2115 0 0)
(96.3812 0 0)
(97.5514 0 0)
(98.7221 0 0)
(99.8932 0 0)
(101.065 0 0)
(102.237 0 0)
(103.409 0 0)
(104.582 0 0)
(105.755 0 0)
(106.928 0 0)
(108.102 0 0)
(109.276 0 0)
(110.45 0 0)
(111.625 0 0)
(112.8 0 0)
(113.975 0 0)
(115.15 0 0)
(116.326 0 0)
(117.502 0 0)
(118.678 0 0)
(119.854 0 0)
(121.031 0 0)
(122.208 0 0)
(123.385 0 0)
(124.562 0 0)
(125.739 0 0)
(126.916 0 0)
(128.094 0 0)
(129.271 0 0)
(130.449 0 0)
(131.627 0 0)
(132.805 0 0)
(133.983 0 0)
(135.161 0 0)
(136.339 0 0)
(137.518 0 0)
(138.696 0 0)
(139.874 0 0)
(141.053 0 0)
(142.231 0 0)
(143.41 0 0)
(144.588 0 0)
(145.767 0 0)
(146.946 0 0)
(148.124 0 0)
(149.303 0 0)
(150.481 0 0)
(151.66 0 0)
(152.838 0 0)
(154.017 0 0)
(155.195 0 0)
(156.374 0 0)
(157.552 0 0)
(158.73 0 0)
(159.909 0 0)
(161.087 0 0)
(162.265 0 0)
(163.443 0 0)
(164.621 0 0)
(165.798 0 0)
(166.976 0 0)
(168.153 0 0)
(169.331 0 0)
(170.508 0 0)
(171.685 0 0)
(172.862 0 0)
(174.039 0 0)
(175.215 0 0)
(176.392 0 0)
(177.568 0 0)
(178.744 0 0)
(179.919 0 0)
(181.095 0 0)
(182.27 0 0)
(183.445 0 0)
(184.62 0 0)
(185.795 0 0)
(186.969 0 0)
(188.143 0 0)
(189.317 0 0)
(190.49 0 0)
(191.663 0 0)
(192.836 0 0)
(194.008 0 0)
(195.18 0 0)
(196.352 0 0)
(197.523 0 0)
(198.694 0 0)
(199.864 0 0)
(201.034 0 0)
(202.203 0 0)
(203.372 0 0)
(204.54 0 0)
(205.708 0 0)
(206.876 0 0)
(208.042 0 0)
(209.208 0 0)
(210.374 0 0)
(211.539 0 0)
(212.703 0 0)
(213.866 0 0)
(215.029 0 0)
(216.191 0 0)
(217.352 0 0)
(218.512 0 0)
(219.672 0 0)
(220.83 0 0)
(221.988 0 0)
(223.144 0 0)
(224.3 0 0)
(225.454 0 0)
(226.607 0 0)
(227.759 0 0)
(228.91 0 0)
(230.06 0 0)
(231.208 0 0)
(232.354 0 0)
(233.499 0 0)
(234.643 0 0)
(235.785 0 0)
(236.925 0 0)
(238.063 0 0)
(239.199 0 0)
(240.333 0 0)
(241.465 0 0)
(242.595 0 0)
(243.723 0 0)
(244.847 0 0)
(245.97 0 0)
(247.089 0 0)
(248.205 0 0)
(249.318 0 0)
(250.428 0 0)
(251.535 0 0)
(252.637 0 0)
(253.736 0 0)
(254.831 0 0)
(255.921 0 0)
(257.006 0 0)
(258.087 0 0)
(259.162 0 0)
(260.231 0 0)
(261.295 0 0)
(262.352 0 0)
(263.403 0 0)
(264.446 0 0)
(265.482 0 0)
(266.51 0 0)
(267.529 0 0)
(268.539 0 0)
(269.54 0 0)
(270.53 0 0)
(271.509 0 0)
(272.476 0 0)
(273.431 0 0)
(274.373 0 0)
(275.301 0 0)
(276.214 0 0)
(277.111 0 0)
(277.992 0 0)
(278.855 0 0)
(279.7 0 0)
(280.525 0 0)
(281.329 0 0)
(282.112 0 0)
(282.871 0 0)
(283.607 0 0)
(284.318 0 0)
(285.003 0 0)
(285.661 0 0)
(286.291 0 0)
(286.893 0 0)
(287.465 0 0)
(288.006 0 0)
(288.518 0 0)
(288.998 0 0)
(289.447 0 0)
(289.864 0 0)
(290.251 0 0)
(290.606 0 0)
(290.932 0 0)
(291.228 0 0)
(291.495 0 0)
(291.735 0 0)
(291.949 0 0)
(292.138 0 0)
(292.305 0 0)
(292.45 0 0)
(292.575 0 0)
(292.683 0 0)
(292.775 0 0)
(292.852 0 0)
(292.917 0 0)
(292.97 0 0)
(293.014 0 0)
(293.05 0 0)
(293.079 0 0)
(293.103 0 0)
(293.121 0 0)
(293.136 0 0)
(293.147 0 0)
(293.156 0 0)
(293.163 0 0)
(293.168 0 0)
(293.173 0 0)
(293.176 0 0)
(293.178 0 0)
(293.18 0 0)
(293.182 0 0)
(293.183 0 0)
(293.184 0 0)
(293.185 0 0)
(293.186 0 0)
(293.186 0 0)
(293.187 0 0)
(293.187 0 0)
(293.188 0 0)
(293.188 0 0)
(293.188 0 0)
(293.188 0 0)
(293.188 0 0)
(293.188 0 0)
(293.189 0 0)
(293.189 0 0)
(293.189 0 0)
(293.189 0 0)
(293.19 0 0)
(293.19 0 0)
(293.19 0 0)
(293.19 0 0)
(293.191 0 0)
(293.191 0 0)
(293.191 0 0)
(293.191 0 0)
(293.192 0 0)
(293.192 0 0)
(293.192 0 0)
(293.192 0 0)
(293.193 0 0)
(293.193 0 0)
(293.193 0 0)
(293.193 0 0)
(293.193 0 0)
(293.194 0 0)
(293.194 0 0)
(293.194 0 0)
(293.194 0 0)
(293.194 0 0)
(293.194 0 0)
(293.195 0 0)
(293.195 0 0)
(293.195 0 0)
(293.195 0 0)
(293.195 0 0)
(293.196 0 0)
(293.196 0 0)
(293.196 0 0)
(293.196 0 0)
(293.196 0 0)
(293.196 0 0)
(293.196 0 0)
(293.197 0 0)
(293.197 0 0)
(293.197 0 0)
(293.197 0 0)
(293.197 0 0)
(293.197 0 0)
(293.197 0 0)
(293.198 0 0)
(293.198 0 0)
(293.198 0 0)
(293.198 0 0)
(293.198 0 0)
(293.198 0 0)
(293.198 0 0)
(293.199 0 0)
(293.199 0 0)
(293.199 0 0)
(293.199 0 0)
(293.199 0 0)
(293.199 0 0)
(293.198 0 0)
(293.198 0 0)
(293.198 0 0)
(293.198 0 0)
(293.198 0 0)
(293.198 0 0)
(293.197 0 0)
(293.197 0 0)
(293.197 0 0)
(293.196 0 0)
(293.196 0 0)
(293.196 0 0)
(293.196 0 0)
(293.196 0 0)
(293.195 0 0)
(293.195 0 0)
(293.195 0 0)
(293.195 0 0)
(293.195 0 0)
(293.195 0 0)
(293.195 0 0)
(293.195 0 0)
(293.195 0 0)
(293.195 0 0)
(293.195 0 0)
(293.195 0 0)
(293.195 0 0)
(293.195 0 0)
(293.195 0 0)
(293.195 0 0)
(293.195 0 0)
(293.195 0 0)
(293.195 0 0)
(293.195 0 0)
(293.195 0 0)
(293.195 0 0)
(293.195 0 0)
(293.195 0 0)
(293.195 0 0)
(293.195 0 0)
(293.195 0 0)
(293.195 0 0)
(293.195 0 0)
(293.195 0 0)
(293.195 0 0)
(293.195 0 0)
(293.195 0 0)
(293.195 0 0)
(293.195 0 0)
(293.195 0 0)
(293.195 0 0)
(293.195 0 0)
(293.195 0 0)
(293.195 0 0)
(293.195 0 0)
(293.195 0 0)
(293.195 0 0)
(293.195 0 0)
(293.195 0 0)
(293.195 0 0)
(293.195 0 0)
(293.195 0 0)
(293.195 0 0)
(293.195 0 0)
(293.195 0 0)
(293.195 0 0)
(293.195 0 0)
(293.195 0 0)
(293.195 0 0)
(293.195 0 0)
(293.195 0 0)
(293.195 0 0)
(293.195 0 0)
(293.195 0 0)
(293.195 0 0)
(293.195 0 0)
(293.195 0 0)
(293.195 0 0)
(293.195 0 0)
(293.195 0 0)
(293.195 0 0)
(293.195 0 0)
(293.195 0 0)
(293.195 0 0)
(293.195 0 0)
(293.195 0 0)
(293.195 0 0)
(293.195 0 0)
(293.194 0 0)
(293.194 0 0)
(293.193 0 0)
(293.192 0 0)
(293.191 0 0)
(293.189 0 0)
(293.186 0 0)
(293.183 0 0)
(293.178 0 0)
(293.174 0 0)
(293.169 0 0)
(293.165 0 0)
(293.161 0 0)
(293.157 0 0)
(293.155 0 0)
(293.154 0 0)
(293.154 0 0)
(293.155 0 0)
(293.157 0 0)
(293.161 0 0)
(293.164 0 0)
(293.168 0 0)
(293.172 0 0)
(293.176 0 0)
(293.18 0 0)
(293.183 0 0)
(293.185 0 0)
(293.187 0 0)
(293.189 0 0)
(293.19 0 0)
(293.191 0 0)
(293.192 0 0)
(293.192 0 0)
(293.193 0 0)
(293.193 0 0)
(293.193 0 0)
(293.193 0 0)
(293.193 0 0)
(293.193 0 0)
(293.193 0 0)
(293.193 0 0)
(293.193 0 0)
(293.192 0 0)
(293.192 0 0)
(293.192 0 0)
(293.192 0 0)
(293.192 0 0)
(293.192 0 0)
(293.192 0 0)
(293.192 0 0)
(293.192 0 0)
(293.192 0 0)
(293.192 0 0)
(293.192 0 0)
(293.192 0 0)
(293.192 0 0)
(293.192 0 0)
(293.192 0 0)
(293.192 0 0)
(293.192 0 0)
(293.192 0 0)
(293.192 0 0)
(293.191 0 0)
(293.191 0 0)
(293.191 0 0)
(293.191 0 0)
(293.191 0 0)
(293.191 0 0)
(293.191 0 0)
(293.191 0 0)
(293.191 0 0)
(293.191 0 0)
(293.191 0 0)
(293.191 0 0)
(293.191 0 0)
(293.191 0 0)
(293.191 0 0)
(293.191 0 0)
(293.191 0 0)
(293.191 0 0)
(293.191 0 0)
(293.19 0 0)
(293.19 0 0)
(293.19 0 0)
(293.19 0 0)
(293.19 0 0)
(293.19 0 0)
(293.189 0 0)
(293.189 0 0)
(293.189 0 0)
(293.189 0 0)
(293.189 0 0)
(293.189 0 0)
(293.189 0 0)
(293.189 0 0)
(293.189 0 0)
(293.189 0 0)
(293.189 0 0)
(293.189 0 0)
(293.189 0 0)
(293.189 0 0)
(293.188 0 0)
(293.188 0 0)
(293.188 0 0)
(293.188 0 0)
(293.187 0 0)
(293.187 0 0)
(293.187 0 0)
(293.187 0 0)
(293.187 0 0)
(293.186 0 0)
(293.186 0 0)
(293.186 0 0)
(293.186 0 0)
(293.186 0 0)
(293.187 0 0)
(293.186 0 0)
(293.186 0 0)
(293.186 0 0)
(293.186 0 0)
(293.186 0 0)
(293.186 0 0)
(293.185 0 0)
(293.185 0 0)
(293.184 0 0)
(293.184 0 0)
(293.184 0 0)
(293.183 0 0)
(293.183 0 0)
(293.183 0 0)
(293.182 0 0)
(293.182 0 0)
(293.182 0 0)
(293.183 0 0)
(293.183 0 0)
(293.183 0 0)
(293.183 0 0)
(293.183 0 0)
(293.183 0 0)
(293.183 0 0)
(293.183 0 0)
(293.182 0 0)
(293.182 0 0)
(293.181 0 0)
(293.181 0 0)
(293.18 0 0)
(293.179 0 0)
(293.179 0 0)
(293.178 0 0)
(293.178 0 0)
(293.178 0 0)
(293.178 0 0)
(293.178 0 0)
(293.178 0 0)
(293.178 0 0)
(293.178 0 0)
(293.178 0 0)
(293.178 0 0)
(293.178 0 0)
(293.177 0 0)
(293.177 0 0)
(293.177 0 0)
(293.176 0 0)
(293.176 0 0)
(293.175 0 0)
(293.175 0 0)
(293.174 0 0)
(293.173 0 0)
(293.173 0 0)
(293.172 0 0)
(293.172 0 0)
(293.171 0 0)
(293.171 0 0)
(293.17 0 0)
(293.17 0 0)
(293.17 0 0)
(293.17 0 0)
(293.17 0 0)
(293.17 0 0)
(293.17 0 0)
(293.169 0 0)
(293.17 0 0)
(293.169 0 0)
(293.168 0 0)
(293.164 0 0)
(293.159 0 0)
(293.152 0 0)
(293.138 0 0)
(293.108 0 0)
(293.051 0 0)
(292.944 0 0)
(292.748 0 0)
(292.296 0 0)
(291.322 0 0)
(289.258 0 0)
(284.636 0 0)
(273.806 0 0)
(248.931 0 0)
(199.45 0 0)
(127.717 0 0)
(60.5942 0 0)
(21.6214 0 0)
(6.39677 0 0)
(1.70197 0 0)
(0.431411 0 0)
(0.10763 0 0)
(0.0267392 0 0)
(0.00663636 0 0)
(0.0016467 0 0)
(0.00040858 0 0)
(0.000101376 0 0)
(2.51532e-05 0 0)
(6.24097e-06 0 0)
(1.5485e-06 0 0)
(3.84211e-07 0 0)
(9.533e-08 0 0)
(2.36533e-08 0 0)
(5.869e-09 0 0)
(1.45663e-09 0 0)
(3.61678e-10 0 0)
(9.01934e-11 0 0)
(2.27708e-11 0 0)
(6.2142e-12 0 0)
(1.67754e-12 0 0)
(8.60652e-13 0 0)
(1.75048e-13 0 0)
(2.47984e-13 0 0)
(-5.83493e-14 0 0)
(1.45873e-14 0 0)
(-2.04222e-13 0 0)
(8.75239e-14 0 0)
(-2.04222e-13 0 0)
(-1.02111e-13 0 0)
(-5.83493e-14 0 0)
(2.91746e-14 0 0)
(1.02111e-13 0 0)
(1.60461e-13 0 0)
(1.60461e-13 0 0)
(2.47984e-13 0 0)
(2.47984e-13 0 0)
(1.45873e-13 0 0)
(1.11229e-26 0 0)
(-8.75239e-14 0 0)
(-5.10556e-13 0 0)
(-4.3762e-13 0 0)
(-1.45873e-13 0 0)
(-4.08445e-13 0 0)
(-1.45873e-14 0 0)
(2.91746e-14 0 0)
(2.04222e-13 0 0)
(-1.31286e-13 0 0)
(-7.29366e-14 0 0)
(-2.47984e-13 0 0)
(-2.47984e-13 0 0)
(-1.45873e-13 0 0)
(-1.31286e-13 0 0)
(-2.1881e-13 0 0)
(-2.91746e-13 0 0)
(-2.33397e-13 0 0)
(-3.50096e-13 0 0)
(-1.45873e-14 0 0)
(2.91746e-14 0 0)
(-1.16699e-13 0 0)
(4.3762e-14 0 0)
(2.04222e-13 0 0)
(1.45873e-14 0 0)
(-1.89635e-13 0 0)
(-1.89635e-13 0 0)
(-4.3762e-13 0 0)
(-3.20921e-13 0 0)
(-2.04222e-13 0 0)
(-1.45873e-14 0 0)
(-1.60461e-13 0 0)
(2.91746e-14 0 0)
(-7.29366e-14 0 0)
(2.20551e-26 0 0)
(4.3762e-14 0 0)
(-1.89635e-13 0 0)
(1.45873e-13 0 0)
(-2.91746e-14 0 0)
(2.47984e-13 0 0)
(-8.75239e-14 0 0)
(1.16699e-13 0 0)
(1.15394e-26 0 0)
(1.45873e-14 0 0)
(-4.3762e-14 0 0)
(-2.77159e-13 0 0)
(-1.45873e-13 0 0)
(-7.29366e-14 0 0)
(4.3762e-14 0 0)
(-1.75048e-13 0 0)
(-2.62572e-13 0 0)
(-2.04222e-13 0 0)
(-2.1881e-13 0 0)
(1.16699e-13 0 0)
(-1.89635e-13 0 0)
(-8.75239e-14 0 0)
(-1.45873e-13 0 0)
(-8.75239e-14 0 0)
(4.3762e-14 0 0)
(8.75239e-14 0 0)
(1.45873e-13 0 0)
(3.06334e-13 0 0)
(3.06334e-13 0 0)
(5.25144e-13 0 0)
(4.81382e-13 0 0)
(2.1881e-13 0 0)
(2.91746e-14 0 0)
(-1.02111e-13 0 0)
(-2.1881e-13 0 0)
(-4.3762e-14 0 0)
(1.45873e-13 0 0)
)
;

boundaryField
{
    sides
    {
        type            zeroGradient;
    }
    empty
    {
        type            empty;
    }
}


// ************************************************************************* //
