/*--------------------------------*- C++ -*----------------------------------*\
  =========                 |
  \\      /  F ield         | OpenFOAM: The Open Source CFD Toolbox
   \\    /   O peration     | Website:  https://openfoam.org
    \\  /    A nd           | Version:  9
     \\/     M anipulation  |
\*---------------------------------------------------------------------------*/
FoamFile
{
    format      ascii;
    class       volScalarField;
    location    "6";
    object      Ma;
}
// * * * * * * * * * * * * * * * * * * * * * * * * * * * * * * * * * * * * * //

dimensions      [0 0 0 0 0 0 0];

internalField   nonuniform List<scalar> 
5250
(
3
2.99997
2.99991
2.99973
2.9994
2.99831
2.99623
2.98987
2.97643
2.93912
2.85221
2.62747
2.12395
1.21173
0.502343
0.280789
0.32469
0.335244
0.301945
0.247506
0.197155
0.156601
0.116377
0.0721927
0.0395071
3
2.99997
2.9999
2.99976
2.99934
2.9985
2.99589
2.99083
2.97514
2.94264
2.85105
2.63591
2.1336
1.22791
0.511064
0.281228
0.326497
0.337903
0.304872
0.251297
0.202234
0.163075
0.124989
0.0857835
0.0620332
3
2.99997
2.99991
2.99975
2.99941
2.99842
2.99633
2.99051
2.97714
2.94257
2.85817
2.64512
2.15891
1.26451
0.531278
0.284675
0.332599
0.346036
0.313967
0.262534
0.216314
0.180335
0.146855
0.115477
0.0992095
3
2.99997
2.99992
2.99976
2.99945
2.99848
2.99654
2.99087
2.9785
2.94497
2.86582
2.66192
2.19649
1.32263
0.562611
0.291239
0.343008
0.35962
0.3291
0.280695
0.237924
0.205807
0.177315
0.15227
0.139976
3
2.99997
2.99992
2.99979
2.99946
2.99862
2.99673
2.99146
2.9802
2.94801
2.87598
2.68419
2.24681
1.40373
0.605265
0.303054
0.35846
0.378736
0.350006
0.30499
0.265794
0.237451
0.213447
0.193261
0.183527
3
2.99998
2.99993
2.9998
2.9995
2.99878
2.99686
2.99264
2.98073
2.95479
2.88353
2.71498
2.30669
1.50878
0.659731
0.324777
0.381543
0.404771
0.377701
0.336105
0.300032
0.275292
0.255534
0.239784
0.232718
3
2.99998
2.99994
2.99982
2.99957
2.99883
2.99738
2.99282
2.984
2.95701
2.89927
2.74158
2.37904
1.63715
0.727858
0.36255
0.416327
0.439487
0.413664
0.375282
0.341811
0.320151
0.304639
0.293801
0.291209
3
2.99998
2.99994
2.99985
2.99958
2.99905
2.99737
2.99426
2.98406
2.96429
2.9057
2.77308
2.43863
1.75301
0.796309
0.397116
0.448421
0.4703
0.449928
0.417685
0.388823
0.37169
0.36172
0.358082
0.365187
3
2.99998
2.99995
2.99985
2.99965
2.99906
2.99788
2.99419
2.98709
2.96513
2.91904
2.79116
2.49375
1.84914
0.879032
0.445243
0.473009
0.489387
0.481582
0.458899
0.438105
0.428213
0.426704
0.43646
0.465915
3
2.99999
2.99996
2.99987
2.99968
2.9992
2.99797
2.99519
2.98751
2.97075
2.92438
2.81686
2.54197
1.95056
0.991406
0.51168
0.489806
0.505215
0.509428
0.497636
0.487907
0.487452
0.501048
0.539245
0.637715
3
2.99999
2.99996
2.99989
2.99972
2.9993
2.99821
2.99576
2.98897
2.97428
2.93312
2.83895
2.59425
2.05708
1.12967
0.590686
0.50522
0.522314
0.535547
0.534626
0.535712
0.548134
0.583552
0.662688
0.824503
3
2.99999
2.99997
2.99991
2.99974
2.99943
2.99839
2.99647
2.99034
2.97796
2.94239
2.86139
2.64956
2.1734
1.29916
0.683948
0.524726
0.542466
0.562114
0.570645
0.581447
0.60709
0.660503
0.761109
0.929702
3
3
2.99997
2.99992
2.9998
2.99949
2.99875
2.9968
2.99247
2.98039
2.95391
2.88168
2.71044
2.29876
1.50457
0.794665
0.559142
0.573734
0.594435
0.608525
0.626218
0.66113
0.722898
0.82285
0.966014
3
3
2.99998
2.99994
2.99983
2.99961
2.99894
2.99754
2.99366
2.98477
2.96209
2.90675
2.76833
2.43828
1.75962
0.923698
0.617366
0.622039
0.637305
0.653083
0.672193
0.709004
0.770347
0.860694
0.980907
3.00001
3
2.99999
2.99995
2.99988
2.99964
2.99921
2.99785
2.9951
2.98721
2.96986
2.92339
2.81345
2.53831
1.95178
1.05381
0.678468
0.664476
0.679197
0.696876
0.717154
0.752225
0.808745
0.888122
0.991049
3.00001
3
2.99999
2.99996
2.9999
2.99972
2.99935
2.99827
2.99609
2.98943
2.97616
2.93684
2.85025
2.62125
2.12015
1.24675
0.773043
0.695831
0.710401
0.7302
0.755397
0.790286
0.841762
0.911531
1.00014
3.00001
3
2.99999
2.99997
2.99992
2.99979
2.99946
2.9987
2.99668
2.99223
2.97973
2.95255
2.8782
2.70311
2.28488
1.49387
0.894468
0.730773
0.738914
0.759253
0.787826
0.822923
0.870443
0.93228
1.00897
3.00001
3
3
2.99998
2.99994
2.99984
2.99961
2.99896
2.99763
2.99364
2.98575
2.96187
2.91171
2.77376
2.45918
1.80039
1.04501
0.78845
0.777569
0.792859
0.82101
0.8549
0.8977
0.952154
1.01861
3.00001
3
3
2.99999
2.99995
2.99989
2.99967
2.99929
2.998
2.99567
2.98814
2.97324
2.93021
2.83323
2.58535
2.05171
1.21672
0.859369
0.816992
0.829123
0.853569
0.886302
0.924226
0.971862
1.02942
3.00001
3.00001
3
2.99999
2.99997
2.99991
2.99978
2.99942
2.9986
2.99653
2.99141
2.97936
2.94772
2.87399
2.68463
2.25613
1.46603
0.972044
0.856221
0.861412
0.882223
0.913248
0.948811
0.990986
1.04144
3.00001
3.00001
3
3
2.99998
2.99994
2.99982
2.9996
2.99893
2.99753
2.99368
2.98487
2.96244
2.90805
2.77235
2.4515
1.79226
1.12384
0.912231
0.897339
0.911008
0.938317
0.972341
1.01056
1.05469
3.00001
3.00001
3
3
2.99999
2.99995
2.99989
2.99968
2.99931
2.99808
2.99578
2.98869
2.97416
2.93354
2.841
2.60703
2.09959
1.31996
0.98949
0.935384
0.942714
0.964714
0.996119
1.03033
1.06985
3.00001
3.00001
3.00001
3
2.99999
2.99997
2.99991
2.9998
2.99946
2.99874
2.99681
2.99227
2.98115
2.95318
2.88618
2.71813
2.33109
1.59894
1.11046
0.979179
0.974531
0.989045
1.01708
1.05028
1.08601
3.00001
3.00001
3.00001
3
3
2.99998
2.99994
2.99987
2.99962
2.99917
2.99773
2.99495
2.98675
2.96935
2.92224
2.81371
2.54665
1.9841
1.28556
1.04338
1.01165
1.01896
1.04107
1.07175
1.10424
3.00001
3.00001
3.00001
3
3
2.99999
2.99996
2.99991
2.99975
2.9994
2.9985
2.99635
2.99114
2.97798
2.94726
2.86859
2.68127
2.2519
1.51086
1.127
1.04741
1.04833
1.0651
1.09248
1.12332
3.00001
3.00001
3.00001
3.00001
3
3
2.99998
2.99994
2.99983
2.99961
2.99894
2.99762
2.99379
2.98556
2.96354
2.91246
2.78291
2.48171
1.8587
1.27786
1.1
1.08039
1.09008
1.1131
1.14276
3.00001
3.00001
3.00001
3.00001
3
3
2.99999
2.99996
2.99989
2.99973
2.99932
2.99841
2.99585
2.99064
2.97535
2.94368
2.85616
2.6579
2.2019
1.49805
1.18301
1.11889
1.1192
1.13529
1.16054
3.00001
3.00001
3.00001
3.00001
3.00001
3
3
2.99997
2.99994
2.99981
2.99959
2.99887
2.99747
2.99342
2.9847
2.96151
2.9077
2.77206
2.45891
1.83012
1.31957
1.16738
1.14945
1.15778
1.17861
3.00001
3.00001
3.00001
3.00001
3.00001
3
3
2.99999
2.99996
2.99989
2.99973
2.99928
2.99841
2.99566
2.99062
2.97466
2.94308
2.85411
2.65578
2.19875
1.53289
1.24771
1.18854
1.18604
1.19909
3.00001
3.00001
3.00001
3.00001
3.00001
3.00001
3
3
2.99997
2.99994
2.99981
2.99959
2.99888
2.9975
2.99347
2.98495
2.96203
2.90959
2.777
2.4726
1.86507
1.38151
1.23492
1.21503
1.22123
3.00001
3.00001
3.00001
3.00001
3.00001
3.00001
3
3
2.99999
2.99996
2.99989
2.99975
2.99929
2.99847
2.99588
2.99081
2.9762
2.94487
2.86189
2.67231
2.23679
1.59837
1.31623
1.25451
1.24897
3.00001
3.00001
3.00001
3.00001
3.00001
3.00001
3.00001
3
3
2.99998
2.99994
2.99984
2.99958
2.99905
2.99744
2.99446
2.98496
2.96692
2.91391
2.79911
2.51359
1.94998
1.45879
1.30253
1.27744
3.00001
3.00001
3.00001
3.00001
3.00001
3.00001
3.00001
3
3
2.99999
2.99997
2.9999
2.99976
2.99938
2.99856
2.99639
2.99139
2.97917
2.94905
2.87755
2.70378
2.3097
1.6923
1.39128
1.31654
3.00001
3.00001
3.00001
3.00001
3.00001
3.00001
3.00001
3.00001
3
3
2.99998
2.99994
2.99986
2.99962
2.99918
2.99777
2.99512
2.98722
2.97097
2.92671
2.82753
2.58397
2.08155
1.55503
1.36973
3.00001
3.00001
3.00001
3.00001
3.00001
3.00001
3.00001
3.00001
3
3
2.99999
2.99997
2.99992
2.99979
2.99949
2.99871
2.99703
2.99235
2.98288
2.95531
2.89818
2.74508
2.41065
1.8163
1.46697
3.00001
3.00001
3.00001
3.00001
3.00001
3.00001
3.00001
3.00001
3.00001
3
3
2.99998
2.99996
2.99988
2.99971
2.99925
2.99825
2.99571
2.9897
2.97539
2.93983
2.8568
2.65687
2.21967
1.66224
3.00001
3.00001
3.00001
3.00001
3.00001
3.00001
3.00001
3.00001
3.00001
3.00001
3
3
2.99998
2.99993
2.99983
2.99957
2.99899
2.99744
2.9942
2.98496
2.9663
2.91359
2.79981
2.51764
1.98373
3.00001
3.00001
3.00001
3.00001
3.00001
3.00001
3.00001
3.00001
3.00001
3.00001
3
3
2.99999
2.99997
2.9999
2.99977
2.99938
2.99866
2.9964
2.99209
2.97948
2.95323
2.88308
2.72567
2.3565
3.00001
3.00001
3.00001
3.00001
3.00001
3.00001
3.00001
3.00001
3.00001
3.00001
3.00001
3
3
2.99998
2.99995
2.99986
2.99969
2.99916
2.99818
2.99525
2.98932
2.97314
2.93755
2.84766
2.64315
3.00001
3.00001
3.00001
3.00001
3.00001
3.00001
3.00001
3.00001
3.00001
3.00001
3.00001
3.00001
3
2.99999
2.99997
2.99993
2.99981
2.99958
2.99885
2.99751
2.99347
2.98537
2.96297
2.91409
2.78977
3.00001
3.00001
3.00001
3.00001
3.00001
3.00001
3.00001
3.00001
3.00001
3.00001
3.00001
3.00001
3
3
2.99999
2.99996
2.99989
2.99976
2.99935
2.99859
2.99621
2.99181
2.97854
2.95176
2.879
3.00001
3.00001
3.00001
3.00001
3.00001
3.00001
3.00001
3.00001
3.00001
3.00001
3.00001
3.00001
3.00001
3
3
2.99998
2.99994
2.99985
2.99963
2.99913
2.99778
2.99505
2.98712
2.97157
2.92691
3.00001
3.00001
3.00001
3.00001
3.00001
3.00001
3.00001
3.00001
3.00001
3.00001
3.00001
3.00001
3.00001
3
3
2.99999
2.99997
2.9999
2.99975
2.99937
2.9985
2.99636
2.99105
2.97896
2.94694
3.00001
3.00001
3.00001
3.00001
3.00001
3.00001
3.00001
3.00001
3.00001
3.00001
3.00001
3.00001
3.00001
3.00001
3
2.99999
2.99997
2.99992
2.99979
2.99949
2.99874
2.99689
2.99254
2.98106
2.95522
3.00001
3.00001
3.00001
3.00001
3.00001
3.00001
3.00001
3.00001
3.00001
3.00001
3.00001
3.00001
3.00001
3.00001
3
2.99999
2.99998
2.99993
2.99982
2.99951
2.99888
2.99695
2.99321
2.98141
2.95752
3.00001
3.00001
3.00001
3.00001
3.00001
3.00001
3.00001
3.00001
3.00001
3.00001
3.00001
3.00001
3.00001
3.00001
3
3
2.99997
2.99994
2.99981
2.99957
2.99882
2.99725
2.99287
2.98272
2.9565
3.00001
3.00001
3.00001
3.00001
3.00001
3.00001
3.00001
3.00001
3.00001
3.00001
3.00001
3.00001
3.00001
3.00001
3
2.99999
2.99998
2.99993
2.99983
2.99952
2.99895
2.99701
2.9935
2.98182
2.95852
3.00001
3.00001
3.00001
3.00001
3.00001
3.00001
3.00001
3.00001
3.00001
3.00001
3.00001
3.00001
3.00001
3.00001
3
2.99999
2.99998
2.99993
2.99983
2.99954
2.99891
2.99717
2.99314
2.98282
2.95722
3.00001
3.00001
3.00001
3.00001
3.00001
3.00001
3.00001
3.00001
3.00001
3.00001
3.00001
3.00001
3.00001
3.00001
3
2.99999
2.99998
2.99993
2.99984
2.99953
2.99893
2.99717
2.99324
2.98283
2.9576
3.00001
3.00001
3.00001
3.00001
3.00001
3.00001
3.00001
3.00001
3.00001
3.00001
3.00001
3.00001
3.00001
3.00001
3
3
2.99998
2.99994
2.99982
2.99957
2.99884
2.99737
2.99281
2.98373
2.95629
1.05281
1.04025
0.572158
0.215715
0.137899
0.243527
0.342082
0.386847
0.404635
0.424353
0.456758
0.491759
0.520949
0.545001
0.568792
0.595063
0.621955
0.647982
0.670913
0.691559
0.711459
0.733637
0.752194
0.762772
0.767854
0.76715
0.755481
0.727895
0.686912
0.636138
0.580373
0.523061
0.466045
0.410458
0.357768
0.308516
0.262473
0.219112
0.177017
0.137474
0.100086
0.0649522
0.0352902
0.0208182
0.0429458
0.071486
0.0985057
0.124247
0.148827
0.17219
0.19449
0.215731
0.235987
0.255399
0.273999
0.291779
0.308626
0.324683
0.34041
0.355834
0.370782
0.385267
0.399522
0.413523
0.427532
0.441335
0.455319
0.469098
0.483153
0.497054
0.511178
0.525249
0.539472
0.553635
0.567953
0.582193
0.59651
0.610772
0.625077
0.639299
0.653522
0.667667
0.681808
0.695842
0.709841
0.72372
0.737547
0.751208
0.764752
0.778067
0.791203
0.804
0.816501
0.828476
0.839911
0.85048
0.86
0.868005
0.873922
0.878277
1.04865
1.01204
0.798067
0.524351
0.423528
0.327031
0.212137
0.109359
0.0725993
0.154807
0.231233
0.287375
0.32261
0.344348
0.366391
0.393548
0.423248
0.451876
0.476993
0.499539
0.520791
0.544218
0.565614
0.577803
0.581775
0.579216
0.563792
0.53257
0.486727
0.431869
0.373596
0.315354
0.25961
0.205627
0.157218
0.113616
0.0770508
0.0544398
0.055835
0.0778083
0.106297
0.135066
0.162843
0.188772
0.214454
0.23986
0.264282
0.287692
0.310031
0.331342
0.351775
0.371226
0.389777
0.407436
0.42437
0.440502
0.455878
0.470368
0.484582
0.498495
0.51225
0.525409
0.538469
0.551227
0.564003
0.576641
0.589341
0.60199
0.614746
0.62748
0.640347
0.653199
0.666175
0.679126
0.692195
0.705205
0.718322
0.731352
0.744468
0.75747
0.770557
0.7835
0.796525
0.809379
0.822313
0.835047
0.847833
0.860373
0.872922
0.885168
0.89736
0.909155
0.920772
0.931837
0.9425
0.952328
0.961329
0.968866
0.974424
0.978343
1.05443
1.06932
1.00083
0.85616
0.758321
0.681331
0.590336
0.49141
0.390354
0.302152
0.223367
0.146739
0.0794085
0.0533506
0.108236
0.161216
0.203048
0.237062
0.264086
0.28557
0.305309
0.32668
0.348768
0.362937
0.364874
0.358299
0.339122
0.306101
0.258465
0.206903
0.158415
0.118771
0.0984106
0.0985057
0.117205
0.144863
0.17493
0.204811
0.232807
0.260718
0.288069
0.314355
0.33941
0.362973
0.385876
0.407971
0.429447
0.449903
0.469625
0.488342
0.506332
0.523378
0.539843
0.555358
0.570313
0.584434
0.598055
0.610732
0.623128
0.635195
0.647234
0.658795
0.670238
0.681411
0.69265
0.703721
0.714923
0.726037
0.737317
0.748551
0.75996
0.771342
0.782888
0.79441
0.806059
0.817698
0.829418
0.841127
0.852879
0.864624
0.876376
0.888122
0.899849
0.911578
0.92325
0.934919
0.946483
0.958017
0.969399
0.980702
0.991787
1.0027
1.01331
1.02364
1.03352
1.04285
1.05123
1.05841
1.06358
1.06716
1.07186
1.11808
1.11143
1.05219
0.979464
0.916951
0.84845
0.774226
0.69632
0.621908
0.553919
0.485749
0.416423
0.346632
0.282404
0.224439
0.170463
0.120881
0.0763702
0.0462624
0.0565277
0.0808971
0.105849
0.127179
0.12847
0.104016
0.0900235
0.0772395
0.100119
0.136074
0.174036
0.213591
0.250638
0.282316
0.312859
0.34171
0.369294
0.394938
0.419424
0.442695
0.465597
0.487397
0.508475
0.528398
0.547825
0.566384
0.584595
0.601924
0.61877
0.634721
0.650277
0.664935
0.679145
0.69263
0.705693
0.718093
0.72999
0.74116
0.751919
0.76242
0.772886
0.783093
0.793094
0.802929
0.812711
0.822465
0.832219
0.842023
0.851855
0.861789
0.87176
0.881854
0.891983
0.902229
0.9125
0.922873
0.93326
0.943721
0.954194
0.964714
0.975252
0.985808
0.9964
1.00697
1.01758
1.02811
1.0387
1.04911
1.05959
1.06981
1.08008
1.09005
1.10008
1.10964
1.11901
1.12762
1.13561
1.14228
1.14726
1.15036
1.08207
1.14375
1.16874
1.15572
1.1177
1.07577
1.02896
0.976994
0.920384
0.865174
0.810196
0.754942
0.695899
0.636469
0.579513
0.527318
0.477515
0.428545
0.3802
0.33329
0.289202
0.249357
0.213903
0.183689
0.168388
0.175486
0.203556
0.250336
0.303712
0.354873
0.398751
0.435644
0.467079
0.493676
0.517412
0.539459
0.5603
0.579887
0.598551
0.616274
0.633686
0.650283
0.666573
0.681988
0.697171
0.711651
0.725988
0.739612
0.753071
0.765806
0.778283
0.790159
0.801775
0.812768
0.823543
0.833874
0.843958
0.853392
0.862488
0.87133
0.880312
0.889178
0.897958
0.906542
0.91519
0.923744
0.932443
0.941081
0.949908
0.958684
0.967678
0.976621
0.985793
0.994897
1.00424
1.01348
1.02296
1.0323
1.04189
1.05133
1.061
1.07051
1.08026
1.08982
1.09961
1.10918
1.11894
1.12847
1.13821
1.14775
1.15746
1.16686
1.17627
1.18524
1.19404
1.20218
1.20977
1.21618
1.22101
1.22389
1.08651
1.15407
1.19599
1.20944
1.20057
1.18018
1.15304
1.12
1.0822
1.04251
1.00215
0.959459
0.915113
0.868372
0.822952
0.777653
0.733569
0.689672
0.645814
0.602644
0.561631
0.523369
0.488965
0.459909
0.444409
0.4402
0.455163
0.488896
0.533894
0.579173
0.620367
0.653256
0.677985
0.696403
0.711595
0.725224
0.738631
0.751282
0.763675
0.775392
0.787072
0.798237
0.809451
0.820124
0.830931
0.84123
0.851708
0.861702
0.871784
0.881369
0.890997
0.900065
0.909159
0.917766
0.926353
0.934478
0.942679
0.950318
0.957791
0.964858
0.97225
0.979603
0.987097
0.994385
1.00184
1.00921
1.0168
1.02437
1.03218
1.03999
1.04804
1.05609
1.06438
1.07267
1.08117
1.08964
1.09832
1.10695
1.11577
1.12453
1.13349
1.14235
1.15144
1.16038
1.16955
1.17854
1.1878
1.19688
1.20617
1.21515
1.22428
1.23309
1.24196
1.25042
1.25877
1.26653
1.27382
1.28005
1.28481
1.28755
1.08808
1.15647
1.20705
1.237
1.2481
1.24614
1.23559
1.2184
1.19607
1.17019
1.14269
1.11278
1.08068
1.04674
1.01141
0.976077
0.940343
0.904121
0.86669
0.828558
0.789875
0.751966
0.71565
0.685417
0.662916
0.649254
0.655175
0.685353
0.729091
0.77411
0.814089
0.847049
0.869886
0.881832
0.88743
0.89122
0.89552
0.900284
0.905877
0.911555
0.917687
0.923708
0.930101
0.936348
0.942973
0.949479
0.956314
0.962991
0.97001
0.976775
0.983782
0.990574
0.997479
1.00411
1.0109
1.01749
1.02416
1.03048
1.03671
1.04267
1.04887
1.05514
1.06164
1.06799
1.07455
1.08102
1.08778
1.0945
1.10154
1.10853
1.11586
1.12312
1.13074
1.13826
1.14613
1.15388
1.16197
1.16992
1.1782
1.18631
1.19475
1.20302
1.21159
1.22002
1.22876
1.23733
1.24613
1.25471
1.26349
1.27203
1.28072
1.28916
1.29764
1.30583
1.31388
1.32148
1.32861
1.33486
1.33967
1.34246
1.0898
1.15573
1.20996
1.24939
1.27358
1.28565
1.28813
1.28389
1.27415
1.26032
1.24382
1.2251
1.20354
1.18017
1.15462
1.12845
1.10113
1.07265
1.0422
1.00882
0.973227
0.93586
0.900007
0.865475
0.830427
0.804981
0.806676
0.836818
0.880785
0.927999
0.96998
1.00367
1.029
1.04127
1.04143
1.03606
1.03035
1.02602
1.02392
1.02339
1.02443
1.02622
1.0287
1.03151
1.0349
1.03837
1.0424
1.04642
1.05095
1.05542
1.0603
1.06501
1.07011
1.07501
1.0802
1.08528
1.09072
1.09583
1.10099
1.10594
1.1113
1.11672
1.12249
1.12813
1.13402
1.1398
1.14588
1.15193
1.1583
1.16467
1.17137
1.17807
1.1851
1.19213
1.19946
1.20678
1.21436
1.22193
1.22974
1.23756
1.24558
1.25362
1.26189
1.27011
1.27847
1.28672
1.2951
1.30336
1.31173
1.31996
1.32826
1.33638
1.3445
1.35239
1.36016
1.36753
1.37454
1.3807
1.3856
1.38831
1.09263
1.15455
1.20908
1.25342
1.28572
1.30752
1.32026
1.32595
1.32616
1.32224
1.31481
1.30536
1.29293
1.27836
1.26197
1.24332
1.22423
1.20178
1.17766
1.14757
1.11451
1.07928
1.04143
0.997196
0.945127
0.911989
0.915806
0.946715
0.990386
1.03949
1.0839
1.11914
1.14528
1.16196
1.16675
1.16142
1.15001
1.13763
1.12715
1.11973
1.11503
1.11249
1.11141
1.11134
1.11195
1.11299
1.11457
1.11643
1.11886
1.12141
1.12443
1.12751
1.13098
1.13441
1.13828
1.14213
1.14638
1.15044
1.15462
1.15863
1.16314
1.16774
1.17278
1.17774
1.18304
1.18826
1.19382
1.19935
1.20523
1.21112
1.21734
1.22358
1.23014
1.23669
1.24357
1.2504
1.25756
1.26464
1.27208
1.27945
1.28721
1.29489
1.30286
1.31067
1.31876
1.32667
1.33484
1.34282
1.35101
1.35903
1.36718
1.37514
1.38317
1.39094
1.39868
1.40601
1.41307
1.41932
1.42441
1.42723
1.09741
1.15434
1.20726
1.25323
1.29046
1.31856
1.33886
1.35216
1.36018
1.36368
1.36398
1.36141
1.35681
1.34913
1.34049
1.3284
1.3157
1.29895
1.27815
1.25108
1.22047
1.18588
1.1417
1.08062
1.01507
0.984335
0.993159
1.02336
1.06611
1.11743
1.16688
1.20424
1.23018
1.24895
1.25974
1.26223
1.25631
1.24313
1.22671
1.21147
1.19904
1.19013
1.18393
1.1801
1.17763
1.1762
1.17555
1.17529
1.17569
1.17649
1.17769
1.17927
1.18133
1.18364
1.18648
1.18941
1.19298
1.19634
1.19991
1.20329
1.20721
1.21126
1.2157
1.22015
1.22492
1.22969
1.23476
1.23984
1.24527
1.2507
1.2565
1.26229
1.26847
1.27462
1.28116
1.28767
1.29453
1.30138
1.30854
1.31575
1.32321
1.33064
1.33827
1.34586
1.35363
1.36136
1.36924
1.37705
1.38498
1.39282
1.40073
1.40853
1.41635
1.42401
1.4316
1.43891
1.44595
1.45231
1.45753
1.4605
1.10415
1.15608
1.2061
1.25179
1.291
1.32335
1.34857
1.36777
1.38157
1.39116
1.39727
1.40055
1.40141
1.40015
1.3967
1.39063
1.38217
1.3695
1.34979
1.32542
1.29613
1.25799
1.20127
1.11932
1.04948
1.03023
1.04467
1.07447
1.11916
1.17161
1.22149
1.26102
1.28987
1.30923
1.32241
1.3298
1.33094
1.32612
1.31361
1.29555
1.27724
1.26085
1.2483
1.23894
1.23267
1.22835
1.22561
1.22373
1.22266
1.22206
1.22193
1.22243
1.22335
1.22473
1.22666
1.22887
1.23179
1.23467
1.23777
1.24077
1.24435
1.2481
1.25225
1.25643
1.26096
1.26549
1.27035
1.27517
1.28035
1.28549
1.291
1.29645
1.30228
1.30808
1.31423
1.32038
1.32686
1.33338
1.34026
1.34715
1.35432
1.36145
1.36885
1.37617
1.38376
1.39123
1.39895
1.40654
1.41433
1.422
1.42981
1.43746
1.4452
1.45272
1.46025
1.46746
1.47449
1.48083
1.48618
1.48917
1.11334
1.1601
1.20676
1.25073
1.29041
1.32456
1.35327
1.37618
1.39459
1.40853
1.41928
1.42708
1.43247
1.43562
1.4364
1.43474
1.42949
1.41735
1.39888
1.37604
1.34467
1.29651
1.21767
1.12284
1.06619
1.05987
1.07784
1.11028
1.15683
1.209
1.25565
1.29481
1.32589
1.34913
1.3652
1.37578
1.38224
1.38426
1.38084
1.37095
1.35447
1.33502
1.31616
1.30026
1.28785
1.27899
1.27284
1.2688
1.26599
1.2642
1.263
1.26246
1.2623
1.26284
1.26382
1.26529
1.26746
1.26977
1.27235
1.27483
1.27802
1.28141
1.28532
1.28923
1.29356
1.29785
1.30252
1.3071
1.31206
1.31692
1.32216
1.32731
1.33284
1.33831
1.34414
1.34996
1.35614
1.36235
1.36892
1.37547
1.38233
1.38915
1.39629
1.40335
1.41071
1.41798
1.42549
1.43291
1.44051
1.44802
1.45566
1.46321
1.47082
1.4783
1.48579
1.49302
1.50008
1.50653
1.51199
1.51513
1.12539
1.16701
1.2097
1.25126
1.29003
1.32473
1.35506
1.38074
1.40189
1.4195
1.43336
1.44481
1.45348
1.46001
1.46393
1.46461
1.45981
1.44747
1.43
1.40515
1.36571
1.29861
1.19459
1.10456
1.0744
1.0805
1.10057
1.1363
1.18347
1.23203
1.275
1.31235
1.34384
1.37001
1.39071
1.40556
1.41558
1.42184
1.42428
1.42267
1.41588
1.40221
1.3835
1.36333
1.34508
1.32988
1.31864
1.31042
1.30501
1.30121
1.29894
1.29732
1.29665
1.29632
1.29678
1.29771
1.29938
1.30135
1.3037
1.30597
1.30893
1.31217
1.31602
1.31988
1.32419
1.32841
1.33302
1.33749
1.34233
1.34702
1.35206
1.35699
1.36225
1.36747
1.37302
1.37856
1.38446
1.39041
1.3967
1.40295
1.40956
1.4161
1.42297
1.42979
1.43688
1.44394
1.45122
1.45845
1.46585
1.47319
1.48063
1.48799
1.4954
1.50268
1.50997
1.51702
1.52397
1.53032
1.53581
1.53894
1.13911
1.17658
1.21527
1.2538
1.29087
1.32509
1.35581
1.38304
1.40621
1.42593
1.44263
1.45617
1.46768
1.4761
1.48199
1.4829
1.47607
1.46333
1.44422
1.4127
1.35681
1.25887
1.14887
1.08954
1.08083
1.09286
1.11754
1.15634
1.20188
1.24496
1.28386
1.31901
1.35008
1.37772
1.40121
1.42081
1.43621
1.44653
1.45288
1.45671
1.45706
1.45302
1.44298
1.42698
1.40728
1.38789
1.37065
1.35693
1.34654
1.33959
1.33476
1.33194
1.33009
1.32931
1.32905
1.32954
1.3307
1.33233
1.33443
1.33641
1.33904
1.34194
1.34569
1.3494
1.35366
1.35778
1.36236
1.36676
1.37156
1.37616
1.3811
1.38589
1.391
1.39602
1.40134
1.40662
1.41223
1.41786
1.42381
1.42978
1.43605
1.44232
1.44889
1.45544
1.46227
1.46905
1.47607
1.48302
1.49019
1.49727
1.50453
1.51168
1.51898
1.52609
1.5333
1.54024
1.54711
1.55343
1.5589
1.56211
1.15498
1.18821
1.22337
1.25866
1.29344
1.32646
1.35697
1.38432
1.40905
1.42997
1.44851
1.46386
1.47668
1.48651
1.49224
1.49044
1.48105
1.46672
1.44141
1.39464
1.3091
1.19134
1.10601
1.08228
1.08782
1.10275
1.13178
1.17132
1.21244
1.25055
1.28592
1.31874
1.3491
1.37718
1.40247
1.42515
1.44436
1.46016
1.47187
1.47939
1.48396
1.48587
1.48439
1.47801
1.46529
1.4477
1.42829
1.40957
1.39391
1.38152
1.37287
1.36702
1.36352
1.36148
1.36065
1.36059
1.36133
1.36269
1.36461
1.36638
1.36871
1.37137
1.37498
1.37864
1.38287
1.38702
1.39163
1.39607
1.40088
1.40549
1.41042
1.41516
1.4202
1.42511
1.4303
1.43539
1.44083
1.44619
1.45189
1.45753
1.46351
1.46945
1.47571
1.48195
1.48848
1.49499
1.50175
1.50846
1.51537
1.5222
1.5292
1.53608
1.54312
1.54998
1.55695
1.56366
1.57034
1.57645
1.58184
1.58493
1.17182
1.20168
1.23316
1.26562
1.29784
1.32913
1.35884
1.38597
1.41076
1.43292
1.45197
1.46881
1.48201
1.49196
1.49447
1.48897
1.47744
1.4569
1.41758
1.34396
1.22774
1.12671
1.08512
1.08172
1.09193
1.11319
1.14539
1.18213
1.21761
1.25136
1.28365
1.3145
1.34412
1.37214
1.39848
1.42282
1.44481
1.46438
1.48078
1.49398
1.50302
1.50851
1.51193
1.51261
1.50949
1.5009
1.48623
1.46806
1.44909
1.43198
1.41786
1.40738
1.40022
1.39581
1.39347
1.39255
1.39272
1.39376
1.39549
1.39713
1.39928
1.40157
1.40489
1.40835
1.41249
1.41654
1.42112
1.42553
1.43036
1.43496
1.43991
1.44463
1.44966
1.45449
1.45963
1.46462
1.46995
1.47516
1.48067
1.48609
1.49181
1.49744
1.50336
1.50921
1.51537
1.52147
1.52788
1.53422
1.54084
1.54736
1.55412
1.56073
1.56756
1.57417
1.58092
1.58739
1.59383
1.59975
1.60496
1.608
1.18877
1.21644
1.24504
1.27447
1.30451
1.33377
1.36201
1.38876
1.41294
1.4353
1.45476
1.4714
1.48443
1.49147
1.48918
1.47992
1.46264
1.42981
1.36611
1.25535
1.14398
1.08866
1.07844
1.08462
1.09905
1.12468
1.15672
1.18858
1.21941
1.24964
1.27939
1.30876
1.3375
1.36535
1.39218
1.41748
1.44136
1.46317
1.48293
1.50005
1.51426
1.5252
1.5321
1.53655
1.53908
1.53877
1.53385
1.52282
1.507
1.48899
1.47129
1.45585
1.44363
1.43492
1.42941
1.42637
1.42527
1.4255
1.42685
1.42841
1.43039
1.4324
1.43537
1.43856
1.44253
1.44643
1.45096
1.45534
1.46022
1.46487
1.46992
1.4747
1.4798
1.48464
1.48979
1.49469
1.49991
1.50492
1.51021
1.51534
1.52077
1.52608
1.53172
1.53725
1.54312
1.54889
1.55498
1.56098
1.56726
1.57342
1.57983
1.58609
1.59256
1.59883
1.60526
1.61142
1.61759
1.62322
1.62822
1.63112
1.20587
1.23209
1.2582
1.28488
1.31222
1.33965
1.36625
1.39189
1.41581
1.43755
1.45698
1.47269
1.48338
1.48402
1.47637
1.46221
1.43381
1.37766
1.27595
1.16039
1.09301
1.07573
1.07918
1.08893
1.10847
1.13599
1.16447
1.19241
1.21982
1.24761
1.27545
1.3036
1.33138
1.35899
1.38569
1.41166
1.43632
1.45972
1.48141
1.50132
1.51903
1.53421
1.5467
1.55544
1.56115
1.56506
1.5669
1.56524
1.55832
1.54582
1.52964
1.51236
1.49599
1.4823
1.4719
1.46503
1.46102
1.45942
1.45954
1.46078
1.4626
1.46432
1.46688
1.46972
1.47352
1.47723
1.48163
1.48586
1.49067
1.49523
1.50027
1.50503
1.51015
1.51497
1.52011
1.52501
1.53018
1.53513
1.54032
1.54532
1.55057
1.55562
1.56096
1.56613
1.5716
1.57695
1.58262
1.58819
1.59407
1.59982
1.60587
1.61177
1.61789
1.62382
1.62989
1.63569
1.64148
1.64675
1.65144
1.65417
1.22196
1.24797
1.27271
1.29718
1.32213
1.34745
1.37239
1.39649
1.41934
1.44005
1.45784
1.47149
1.47562
1.46991
1.45725
1.43194
1.3815
1.28842
1.17449
1.09866
1.07406
1.07449
1.08211
1.09819
1.12142
1.14648
1.17107
1.1956
1.22056
1.24626
1.27263
1.29949
1.32666
1.35357
1.38028
1.40615
1.43146
1.45552
1.47864
1.50019
1.52031
1.5385
1.55458
1.56818
1.57871
1.58607
1.59134
1.5948
1.59598
1.59284
1.58423
1.5706
1.55452
1.53796
1.52311
1.51108
1.5025
1.49718
1.49465
1.49441
1.49553
1.49698
1.49903
1.50134
1.50479
1.50825
1.51247
1.51649
1.52119
1.52566
1.53069
1.53544
1.54061
1.54548
1.55067
1.55563
1.56082
1.56572
1.57085
1.57567
1.58075
1.58556
1.59066
1.59553
1.60071
1.60572
1.61103
1.61619
1.62164
1.62695
1.63253
1.63796
1.6436
1.64907
1.65467
1.65999
1.66532
1.67012
1.67439
1.6769
1.23934
1.26312
1.28661
1.30967
1.3327
1.35608
1.37949
1.40201
1.4235
1.44253
1.45772
1.46481
1.46112
1.4492
1.42619
1.38019
1.29439
1.18346
1.10319
1.07353
1.0714
1.07773
1.09146
1.11182
1.13406
1.15553
1.17687
1.19895
1.22206
1.24642
1.27165
1.29764
1.32391
1.35026
1.37646
1.40229
1.42762
1.45219
1.47595
1.49859
1.52013
1.54032
1.55881
1.57577
1.59019
1.60253
1.61134
1.61833
1.6233
1.62636
1.62633
1.62156
1.61134
1.59704
1.58116
1.56559
1.55219
1.54182
1.53503
1.53127
1.53021
1.53083
1.53233
1.53395
1.53659
1.53965
1.54366
1.54758
1.55215
1.55651
1.56143
1.56609
1.57122
1.57607
1.58129
1.58627
1.5915
1.5964
1.60149
1.60625
1.61122
1.61585
1.62073
1.62531
1.63016
1.63477
1.63967
1.64437
1.64936
1.65418
1.65927
1.6642
1.66934
1.67427
1.67935
1.6841
1.68885
1.69307
1.69677
1.69898
1.25802
1.27737
1.30126
1.32353
1.34493
1.36629
1.38774
1.40851
1.42765
1.44374
1.4531
1.45097
1.43956
1.41818
1.37553
1.29565
1.18804
1.10564
1.07287
1.0689
1.07455
1.08723
1.10616
1.12643
1.14557
1.1642
1.18345
1.20398
1.22593
1.24914
1.27337
1.29828
1.32371
1.34934
1.37505
1.40051
1.42568
1.45021
1.47433
1.49748
1.52006
1.54128
1.56165
1.58045
1.59782
1.61337
1.62668
1.63746
1.64559
1.65235
1.65665
1.65887
1.65757
1.65129
1.63966
1.62525
1.60951
1.59525
1.58316
1.57463
1.56923
1.56694
1.56689
1.56804
1.56971
1.57175
1.57511
1.57876
1.58325
1.58738
1.59224
1.59666
1.60179
1.60647
1.61183
1.61667
1.62199
1.62677
1.63193
1.63657
1.6415
1.64598
1.65071
1.65508
1.65967
1.66397
1.66851
1.67282
1.67737
1.68171
1.6863
1.69067
1.69525
1.69956
1.704
1.70807
1.71209
1.71558
1.71855
1.72036
1.27943
1.29381
1.31496
1.33676
1.35743
1.37725
1.39698
1.41537
1.43146
1.44171
1.44054
1.42926
1.40876
1.36837
1.29262
1.18852
1.10569
1.07136
1.06661
1.07225
1.08506
1.10381
1.12302
1.1405
1.15697
1.17384
1.19179
1.2113
1.23213
1.25433
1.27746
1.3015
1.326
1.35092
1.37594
1.4009
1.42571
1.45013
1.47426
1.49764
1.52064
1.54253
1.56397
1.58393
1.60326
1.62077
1.63716
1.65138
1.66353
1.67312
1.68099
1.68735
1.69091
1.69205
1.68936
1.68139
1.66892
1.6545
1.63955
1.6263
1.61563
1.60856
1.60446
1.60346
1.60398
1.60524
1.60715
1.61013
1.614
1.61827
1.62268
1.6273
1.63201
1.63685
1.64191
1.64691
1.65204
1.65693
1.66199
1.66666
1.67155
1.67596
1.68065
1.6848
1.68931
1.69325
1.6976
1.70144
1.70566
1.70949
1.71359
1.71739
1.72133
1.72497
1.72864
1.73192
1.73505
1.73763
1.73971
1.74102
1.30602
1.31187
1.32823
1.34965
1.36981
1.3884
1.4059
1.42119
1.43186
1.43099
1.41942
1.39923
1.35986
1.28601
1.18459
1.10313
1.06918
1.06446
1.07026
1.08385
1.10309
1.1223
1.13866
1.1538
1.1686
1.18457
1.20168
1.22049
1.24046
1.26188
1.28404
1.30727
1.33076
1.355
1.37909
1.40367
1.42778
1.45212
1.47579
1.49941
1.52228
1.54474
1.56649
1.58738
1.60768
1.62657
1.64489
1.66123
1.67671
1.68954
1.70082
1.70955
1.71774
1.72271
1.72535
1.72539
1.72142
1.7123
1.69937
1.68467
1.67054
1.65818
1.64903
1.64318
1.64043
1.64016
1.64105
1.64248
1.64503
1.64858
1.65297
1.65739
1.66221
1.66687
1.67191
1.67671
1.68183
1.68663
1.69169
1.69636
1.70124
1.70567
1.71027
1.71443
1.71871
1.7226
1.7266
1.73021
1.73399
1.73734
1.74092
1.74404
1.74734
1.75011
1.75298
1.75516
1.75732
1.75875
1.75972
1.76047
1.33611
1.33398
1.344
1.36172
1.38255
1.40009
1.41469
1.42463
1.42341
1.41116
1.39031
1.35043
1.27657
1.17648
1.09715
1.0651
1.06123
1.06762
1.08287
1.10386
1.12332
1.13942
1.1535
1.1672
1.18144
1.19695
1.2137
1.23192
1.25124
1.27179
1.29313
1.3154
1.33809
1.36143
1.38482
1.40867
1.4322
1.45608
1.4793
1.50279
1.52534
1.54808
1.56967
1.5913
1.61171
1.63186
1.65085
1.66905
1.68615
1.70173
1.71612
1.72792
1.73858
1.74711
1.75462
1.75845
1.76018
1.75886
1.75345
1.7432
1.72987
1.71529
1.70191
1.69057
1.68276
1.67792
1.67636
1.67654
1.67755
1.67929
1.68252
1.68681
1.69135
1.69626
1.701
1.70598
1.71082
1.71577
1.72067
1.72548
1.73028
1.73484
1.73933
1.74357
1.74765
1.75153
1.75517
1.75865
1.76189
1.76491
1.7678
1.7703
1.77274
1.77465
1.77633
1.77756
1.77814
1.77842
1.77782
1.77811
1.37238
1.35751
1.36098
1.37465
1.39312
1.40959
1.42001
1.41851
1.40514
1.3831
1.34127
1.26512
1.16493
1.08807
1.05906
1.05686
1.06422
1.08189
1.10523
1.12525
1.14136
1.1549
1.16793