/*--------------------------------*- C++ -*----------------------------------*\
  =========                 |
  \\      /  F ield         | OpenFOAM: The Open Source CFD Toolbox
   \\    /   O peration     | Website:  https://openfoam.org
    \\  /    A nd           | Version:  9
     \\/     M anipulation  |
\*---------------------------------------------------------------------------*/
FoamFile
{
    format      ascii;
    class       volScalarField;
    location    "6";
    object      p;
}
// * * * * * * * * * * * * * * * * * * * * * * * * * * * * * * * * * * * * * //

dimensions      [1 -1 -2 0 0 0 0];

internalField   nonuniform List<scalar> 
5250
(
1.00001
1.00003
1.00008
1.00023
1.00055
1.0014
1.00346
1.0084
1.02138
1.0517
1.13213
1.33846
1.92308
3.63893
8.58151
11.5684
11.2554
11.0645
11.1479
11.3719
11.5929
11.7274
11.83
11.9103
11.9713
1.00001
1.00003
1.00009
1.00021
1.00058
1.00131
1.00355
1.00807
1.02143
1.05044
1.13095
1.33189
1.90923
3.59376
8.47133
11.5794
11.2544
11.055
11.1393
11.3644
11.5851
11.7198
11.824
11.9056
11.968
1.00001
1.00003
1.00008
1.00021
1.00054
1.0013
1.00337
1.00788
1.02068
1.04876
1.12683
1.32074
1.87686
3.4982
8.22336
11.6019
11.2484
11.0253
11.1086
11.3319
11.55
11.6829
11.7866
11.8677
11.9304
1
1.00003
1.00008
1.00021
1.00051
1.00126
1.00317
1.00757
1.0195
1.04668
1.11992
1.30469
1.82758
3.35417
7.83704
11.6399
11.2409
10.9769
11.0561
11.2737
11.488
11.617
11.7179
11.7974
11.8613
1
1.00003
1.00007
1.0002
1.00046
1.00123
1.00278
1.00754
1.01703
1.0458
1.10812
1.28693
1.76066
3.16785
7.31468
11.686
11.2324
10.9114
10.9842
11.1918
11.4013
11.5247
11.6207
11.6974
11.7635
1
1.00002
1.00007
1.00017
1.00046
1.00103
1.00279
1.00629
1.01701
1.03903
1.10316
1.25493
1.69186
2.94156
6.67282
11.7215
11.2221
10.831
10.8932
11.0837
11.2857
11.3999
11.4865
11.5565
11.6244
1
1.00002
1.00006
1.00017
1.00037
1.00102
1.0023
1.00617
1.0142
1.03705
1.08911
1.23133
1.60658
2.70093
5.93308
11.6838
11.1912
10.7377
10.7846
10.9469
11.1362
11.2351
11.3044
11.3587
11.4229
1
1.00002
1.00006
1.00013
1.00037
1.00084
1.00225
1.00515
1.01353
1.03184
1.08185
1.20315
1.53962
2.4912
5.31477
11.4418
11.0762
10.6283
10.6543
10.775
10.9438
11.0189
11.0586
11.0787
11.1196
1
1.00002
1.00005
1.00013
1.0003
1.00083
1.00186
1.00499
1.01145
1.03
1.07152
1.18525
1.4786
2.32825
4.83253
10.8663
10.806
10.5381
10.5073
10.5718
10.7025
10.74
10.7298
10.6789
10.6307
1
1.00001
1.00005
1.00011
1.0003
1.00068
1.00182
1.0041
1.01105
1.02516
1.06685
1.1609
1.4293
2.16795
4.36436
10.0251
10.5901
10.4393
10.3298
10.3555
10.4146
10.398
10.3108
10.0975
9.77007
1
1.00001
1.00004
1.0001
1.00026
1.00059
1.0016
1.00361
1.00975
1.02211
1.05905
1.14102
1.37555
2.01253
3.90031
9.02222
10.4563
10.3382
10.1448
10.1209
10.1006
10.013
9.76604
9.18684
7.68764
1
1.00001
1.00003
1.00008
1.00022
1.00052
1.00135
1.00323
1.00806
1.01994
1.04907
1.12366
1.3174
1.85781
3.42995
7.85697
10.3643
10.2426
9.97675
9.87618
9.79357
9.60992
9.21413
8.42104
6.86261
1
1.00001
1.00003
1.00008
1.00017
1.00047
1.00106
1.00286
1.00643
1.01733
1.03979
1.10491
1.25924
1.70209
2.95738
6.57349
10.2934
10.156
9.82755
9.63465
9.49213
9.23003
8.73943
7.92906
6.68863
1
1.00001
1.00002
1.00006
1.00015
1.00037
1.00089
1.00226
1.00529
1.01382
1.03213
1.08378
1.20505
1.54513
2.48756
5.16931
10.1006
10.0179
9.71061
9.41178
9.20404
8.89915
8.395
7.65146
6.67101
1
1.00001
1.00002
1.00005
1.00012
1.0003
1.00073
1.00179
1.0045
1.01065
1.02738
1.06557
1.16784
1.43182
2.1777
4.30891
9.43361
9.73984
9.55422
9.2045
8.94492
8.62178
8.14085
7.47805
6.66191
1
1.00001
1.00001
1.00004
1.00009
1.00025
1.00056
1.00152
1.00342
1.00917
1.02094
1.05511
1.13236
1.34843
1.93091
3.62009
8.06165
9.44855
9.33523
9.04556
8.72744
8.38985
7.93938
7.34829
6.64408
1
1
1.00001
1.00003
1.00008
1.00018
1.00049
1.0011
1.00296
1.00666
1.01791
1.04107
1.10811
1.26676
1.72076
2.99237
6.5243
9.25763
9.18413
8.93236
8.55555
8.1971
7.77225
7.24129
6.62249
1
1
1.00001
1.00002
1.00006
1.00015
1.00034
1.00092
1.00206
1.00555
1.01253
1.03322
1.07796
1.20279
1.5199
2.41731
4.87398
8.94948
9.03777
8.85186
8.44628
8.04392
7.63262
7.15123
6.60103
1
1
1.00001
1.00002
1.00005
1.00011
1.00028
1.00065
1.00169
1.00395
1.00999
1.02421
1.06008
1.14963
1.38522
2.03097
3.82928
8.13656
8.83765
8.69716
8.34929
7.91792
7.5154
7.07489
6.58094
1
1
1.00001
1.00001
1.00003
1.00008
1.00021
1.00049
1.00128
1.00291
1.00776
1.01749
1.04688
1.10952
1.28924
1.75459
3.08346
6.5694
8.55988
8.49874
8.26612
7.82502
7.4217
7.01065
6.56261
1
1
1
1.00001
1.00003
1.00006
1.00015
1.00037
1.0009
1.00227
1.00529
1.01375
1.0319
1.0828
1.20172
1.53206
2.42482
4.83494
8.18652
8.33639
8.18081
7.80772
7.36593
6.96194
6.54761
1
1
1
1.00001
1.00002
1.00005
1.00011
1.00028
1.00064
1.00162
1.00387
1.00951
1.02347
1.05719
1.14304
1.36413
1.96227
3.57655
7.32573
8.16709
8.06402
7.77934
7.33858
6.93006
6.53657
1
1
1
1
1.00001
1.00003
1.00008
1.00019
1.00046
1.00116
1.00268
1.00705
1.01589
1.04232
1.09856
1.25805
1.66478
2.80051
5.73795
7.91639
7.89874
7.731
7.34759
6.92203
6.53262
1
1
1
1
1.00001
1.00002
1.00006
1.00013
1.00033
1.00076
1.00191
1.00465
1.01112
1.02802
1.06689
1.1692
1.42756
2.11857
3.8849
7.40171
7.8005
7.67784
7.36622
6.92827
6.53536
1
1
1
1
1.00001
1.00002
1.00004
1.00009
1.00022
1.00056
1.00127
1.00332
1.00751
1.01985
1.04543
1.11834
1.28956
1.76839
3.03686
6.19584
7.59097
7.55141
7.35734
6.95207
6.5458
1
1
1
1
1
1.00001
1.00003
1.00006
1.00015
1.00036
1.00089
1.00219
1.00522
1.01321
1.031
1.07921
1.19265
1.50126
2.3139
4.41527
7.14748
7.40874
7.30266
7.0091
6.57252
1
1
1
1
1
1.00001
1.00002
1.00004
1.0001
1.00023
1.00062
1.00138
1.00367
1.0082
1.0217
1.04963
1.12859
1.3152
1.82459
3.13736
6.16736
7.22015
7.17998
7.002
6.62676
1
1
1
1
1
1
1.00001
1.00003
1.00006
1.00016
1.00039
1.00095
1.00233
1.00554
1.01402
1.0328
1.0837
1.20312
1.52682
2.36783
4.49687
6.82037
7.04834
6.95704
6.70574
1
1
1
1
1
1
1.00001
1.00002
1.00004
1.00011
1.00024
1.00064
1.00143
1.00372
1.00853
1.02175
1.05136
1.12911
1.31999
1.82385
3.09769
5.94608
6.87495
6.84886
6.70202
1
1
1
1
1
1
1
1.00001
1.00003
1.00006
1.00017
1.00038
1.00095
1.00231
1.0055
1.01383
1.03238
1.08223
1.19899
1.51224
2.31378
4.30625
6.47808
6.74039
6.6637
1
1
1
1
1
1
1
1.00001
1.00002
1.00004
1.0001
1.00024
1.00061
1.00142
1.00348
1.00849
1.02019
1.05038
1.12133
1.30543
1.77391
2.9523
5.58948
6.5552
6.55196
1
1
1
1
1
1
1
1
1.00001
1.00002
1.00007
1.00015
1.00038
1.00085
1.00222
1.00502
1.01294
1.02998
1.07549
1.18268
1.4651
2.17668
3.91999
6.10938
6.45453
1
1
1
1
1
1
1
1
1.00001
1.00002
1.00004
1.00009
1.00022
1.00053
1.00134
1.00306
1.00791
1.01777
1.04647
1.1074
1.27521
1.68658
2.7276
5.10345
6.23704
1
1
1
1
1
1
1
1
1
1.00001
1.00002
1.00006
1.00013
1.00033
1.00076
1.00191
1.00452
1.01087
1.02674
1.06363
1.15807
1.39053
1.97749
3.37396
5.71302
1
1
1
1
1
1
1
1
1
1.00001
1.00001
1.00003
1.00008
1.0002
1.00045
1.00117
1.00259
1.00682
1.01513
1.03965
1.09091
1.23381
1.57417
2.45456
4.51843
1
1
1
1
1
1
1
1
1
1
1.00001
1.00002
1.00005
1.00011
1.00028
1.00064
1.00162
1.00366
1.00945
1.02117
1.05493
1.12677
1.32223
1.78832
2.90719
1
1
1
1
1
1
1
1
1
1
1
1.00001
1.00003
1.00007
1.00015
1.0004
1.00088
1.00231
1.0051
1.01338
1.02992
1.07737
1.18121
1.46233
2.13994
1
1
1
1
1
1
1
1
1
1
1
1.00001
1.00002
1.00004
1.00009
1.00021
1.00054
1.00124
1.00308
1.00734
1.01751
1.04302
1.10289
1.25463
1.62895
1
1
1
1
1
1
1
1
1
1
1
1
1.00001
1.00002
1.00005
1.00013
1.00029
1.00072
1.00171
1.00404
1.00997
1.02297
1.05771
1.13509
1.33621
1
1
1
1
1
1
1
1
1
1
1
1
1.00001
1.00001
1.00003
1.00007
1.00017
1.0004
1.00099
1.00233
1.00556
1.0136
1.03185
1.07911
1.1891
1
1
1
1
1
1
1
1
1
1
1
1
1
1.00001
1.00002
1.00004
1.0001
1.00022
1.00058
1.0013
1.00327
1.00758
1.0185
1.04435
1.10731
1
1
1
1
1
1
1
1
1
1
1
1
1
1
1.00001
1.00002
1.00006
1.00013
1.00035
1.00077
1.002
1.00441
1.01143
1.02564
1.06534
1
1
1
1
1
1
1
1
1
1
1
1
1
1
1.00001
1.00002
1.00004
1.00009
1.00024
1.00054
1.00139
1.00312
1.00818
1.01826
1.04814
1
1
1
1
1
1
1
1
1
1
1
1
1
1
1.00001
1.00001
1.00003
1.00008
1.00018
1.00047
1.00107
1.00284
1.00641
1.01705
1.039
1
1
1
1
1
1
1
1
1
1
1
1
1
1
1
1.00001
1.00003
1.00007
1.00016
1.00044
1.00099
1.00267
1.00606
1.01616
1.03785
1
1
1
1
1
1
1
1
1
1
1
1
1
1
1
1.00001
1.00003
1.00007
1.00017
1.00041
1.00099
1.00254
1.00598
1.01579
1.03718
1
1
1
1
1
1
1
1
1
1
1
1
1
1
1
1.00001
1.00003
1.00007
1.00016
1.00042
1.00096
1.00254
1.00596
1.01542
1.03758
1
1
1
1
1
1
1
1
1
1
1
1
1
1
1
1.00001
1.00003
1.00007
1.00016
1.00039
1.00101
1.00236
1.00629
1.01451
1.03879
1
1
1
1
1
1
1
1
1
1
1
1
1
1
1
1.00001
1.00003
1.00007
1.00016
1.00039
1.001
1.00236
1.00623
1.01444
1.03852
1
1
1
1
1
1
1
1
1
1
1
1
1
1
1
1.00001
1.00003
1.00006
1.00017
1.00037
1.00102
1.00231
1.00627
1.01441
1.03828
3.37571
2.32733
2.65334
3.71064
3.67352
3.50114
3.39068
3.33852
3.31174
3.25405
3.17833
3.10621
3.04884
2.99742
2.9402
2.879
2.81802
2.76232
2.7143
2.67133
2.62538
2.5743
2.54536
2.53352
2.53063
2.54567
2.59781
2.68963
2.81757
2.96964
3.13333
3.29928
3.46155
3.61642
3.75852
3.8866
4.00161
4.10514
4.20012
4.2845
4.35842
4.42357
4.47989
4.53168
4.57755
4.61418
4.64507
4.67074
4.69179
4.70902
4.72274
4.73347
4.74159
4.74733
4.75087
4.75249
4.75235
4.75134
4.74857
4.74289
4.73484
4.72462
4.71199
4.69686
4.679
4.65848
4.63511
4.60911
4.58036
4.54916
4.51551
4.47969
4.44179
4.40209
4.3607
4.31789
4.27379
4.22861
4.18249
4.1356
4.08807
4.04001
3.99153
3.94274
3.89372
3.84458
3.79544
3.74643
3.6977
3.6494
3.60171
3.55483
3.509
3.46455
3.42188
3.38158
3.34447
3.31175
3.28505
3.26756
4.18529
3.27929
3.3815
3.71947
3.63452
3.46357
3.3708
3.37271
3.36053
3.27487
3.17603
3.09008
3.03187
2.98974
2.93849
2.87897
2.818
2.7613
2.7118
2.66836
2.62502
2.57932
2.54558
2.53059
2.52678
2.53914
2.58668
2.67488
2.80173
2.95447
3.11908
3.28573
3.44739
3.60232
3.7445
3.87221
3.98726
4.0891
4.18732
4.27279
4.34681
4.41222
4.46984
4.52275
4.56814
4.60552
4.63674
4.6628
4.68432
4.70194
4.71602
4.72714
4.73555
4.74162
4.74546
4.74736
4.74728
4.74657
4.74433
4.73934
4.73116
4.72111
4.70873
4.69383
4.67616
4.65577
4.63257
4.60666
4.57804
4.54691
4.51335
4.47759
4.43976
4.4001
4.35877
4.316
4.27194
4.2268
4.18072
4.13387
4.08638
4.03836
3.98991
3.94114
3.89214
3.84301
3.79389
3.74489
3.69617
3.64787
3.60016
3.55324
3.50736
3.46279
3.41996
3.37939
3.34203
3.30904
3.2819
3.26406
5.03003
4.04541
3.69194
3.69766
3.6451
3.50994
3.39048
3.35693
3.31241
3.2483
3.16619
3.09036
3.04213
3.00574
2.94288
2.8765
2.81075
2.75157
2.70177
2.66001
2.62082
2.58254
2.54709
2.52619
2.51931
2.52756
2.56877
2.65106
2.77631
2.93028
3.09518
3.26164
3.42046
3.58117
3.72491
3.85419
3.97073
4.07561
4.17279
4.25851
4.33338
4.39959
4.4579
4.5101
4.55537
4.59362
4.62543
4.65202
4.67393
4.69198
4.70644
4.71794
4.7267
4.73316
4.73736
4.73958
4.73958
4.73907
4.73728
4.73309
4.72513
4.71519
4.70303
4.68837
4.67095
4.65076
4.62776
4.60202
4.57359
4.54261
4.50921
4.47358
4.43589
4.39634
4.35513
4.31246
4.26851
4.22346
4.17748
4.13072
4.08331
4.03536
3.98697
3.93824
3.88927
3.84018
3.79108
3.74211
3.69341
3.64512
3.59741
3.55049
3.50452
3.45979
3.41677
3.37603
3.33827
3.30466
3.27663
3.25802
5.45099
4.49822
3.95513
3.75099
3.66831
3.54766
3.43029
3.36588
3.31411
3.24596
3.1634
3.08734
3.03207
2.98447
2.93081
2.86964
2.80732
2.75017
2.70149
2.66028
2.61897
2.57871
2.54407
2.51645
2.50325
2.51173
2.5522
2.62702
2.74803
2.89883
3.06454
3.23192
3.39411
3.55202
3.69584
3.82565
3.94283
4.04914
4.14594
4.23279
4.30907
4.37647
4.43572
4.48833
4.53404
4.57317
4.60586
4.63329
4.65593
4.6747
4.68983
4.702
4.71136
4.7184
4.72318
4.7259
4.72627
4.72588
4.7245
4.72115
4.71427
4.70442
4.69245
4.6781
4.66107
4.64124
4.6186
4.5932
4.56511
4.53447
4.50139
4.46607
4.42868
4.38941
4.34847
4.30604
4.26233
4.21751
4.17173
4.12516
4.07792
4.03012
3.98185
3.93321
3.88433
3.8353
3.78631
3.7374
3.68882
3.64059
3.59289
3.54598
3.50007
3.45533
3.41211
3.37094
3.33256
3.29809
3.26894
3.24924
5.68348
4.82122
4.22549
3.88612
3.72615
3.60681
3.48883
3.39575
3.32707
3.25421
3.1722
3.09579
3.0362
2.98455
2.9272
2.86473
2.80247
2.74598
2.69737
2.65492
2.61373
2.57524
2.54303
2.51924
2.50924
2.51549
2.5485
2.62468
2.73983
2.88123
3.03289
3.19504
3.35568
3.5108
3.65475
3.78606
3.90499
4.01306
4.11098
4.19928
4.2774
4.34643
4.40697
4.46036
4.50674
4.54675
4.58049
4.60893
4.63253
4.65217
4.66815
4.68109
4.69121
4.69893
4.70434
4.70762
4.70843
4.70814
4.70705
4.70437
4.69869
4.68919
4.67741
4.66335
4.6467
4.62733
4.60517
4.58026
4.55269
4.52255
4.48998
4.45515
4.41825
4.37944
4.33895
4.29694
4.25363
4.20917
4.16375
4.11749
4.07054
4.02296
3.9749
3.92642
3.87769
3.82883
3.78004
3.73116
3.68282
3.63487
3.5875
3.54064
3.49466
3.44976
3.4063
3.36468
3.32564
3.29024
3.25984
3.2388
5.83163
5.06927
4.47583
4.07917
3.84173
3.6854
3.55479
3.44664
3.35773
3.2765
3.19487
3.11679
3.04898
2.98977
2.93062
2.86918
2.80785
2.75147
2.70224
2.65904
2.6194
2.58433
2.55655
2.53905
2.53757
2.54739
2.5833
2.66022
2.7617
2.88017
3.01326
3.14957
3.29864
3.44963
3.5954
3.73115
3.8541
3.96485
4.06445
4.15432
4.23443
4.30559
4.36816
4.4232
4.47106
4.5125
4.54775
4.57763
4.60259
4.62346
4.64059
4.65457
4.66565
4.6742
4.68033
4.68421
4.68545
4.68522
4.68433
4.68208
4.67729
4.66836
4.65683
4.643
4.62672
4.60785
4.58628
4.56203
4.53514
4.50572
4.47389
4.43979
4.40361
4.3655
4.32569
4.28432
4.24162
4.19773
4.15284
4.10705
4.0605
4.01326
3.96547
3.91724
3.86874
3.82011
3.77162
3.72349
3.67539
3.62765
3.58042
3.5337
3.48773
3.44272
3.39901
3.35699
3.31731
3.28101
3.24935
3.22687
5.93077
5.25849
4.69159
4.26737
3.97645
3.7772
3.62568
3.50288
3.40099
3.31156
3.22692
3.14589
3.07218
3.00484
2.94241
2.88138
2.82097
2.76436
2.71425
2.67168
2.63717
2.61117
2.59503
2.59522
2.6033
2.63142
2.69265
2.76488
2.83619
2.91656
3.00978
3.1125
3.22006
3.3523
3.49837
3.64514
3.77979
3.89937
4.00463
4.09794
4.18051
4.25398
4.31898
4.37636
4.4265
4.47014
4.50757
4.53949
4.56634
4.58886
4.60749
4.62279
4.63504
4.64459
4.65154
4.65606
4.65775
4.65756
4.65677
4.65477
4.65049
4.64206
4.63082
4.6172
4.60127
4.5829
4.56199
4.53849
4.51245
4.48392
4.45303
4.41989
4.38468
4.34753
4.30865
4.26817
4.22632
4.18321
4.13906
4.09391
4.04791
4.00113
3.95373
3.90591
3.85799
3.80999
3.76203
3.71417
3.6665
3.61905
3.57202
3.52546
3.47959
3.43455
3.39069
3.34834
3.3081
3.27095
3.23813
3.21425
5.99909
5.40233
4.87101
4.44109
4.11781
3.88264
3.7063
3.56647
3.45172
3.35309
3.26321
3.17892
3.10095
3.02992
2.96452
2.90221
2.84188
2.78536
2.73618
2.69716
2.67165
2.66001
2.66197
2.67404
2.70968
2.78823
2.87838
2.9336
2.96871
3.00382
3.04347
3.10077
3.16246
3.23673
3.35777
3.51047
3.66152
3.80035
3.92177
4.02615
4.11526
4.19281
4.26081
4.32064
4.37334
4.41965
4.4599
4.49455
4.52392
4.54867
4.56926
4.58622
4.59986
4.61054
4.61837
4.62352
4.62559
4.62541
4.62463
4.62266
4.61847
4.61026
4.59923
4.58582
4.57016
4.55224
4.53195
4.50925
4.48414
4.45665
4.42689
4.39493
4.36093
4.32498
4.28729
4.24796
4.20721
4.16513
4.1219
4.07756
4.03223
3.98605
3.93942
3.89241
3.84521
3.79784
3.75042
3.70298
3.65569
3.60858
3.56183
3.51552
3.46983
3.4249
3.38101
3.33847
3.29782
3.25999
3.22619
3.20106
6.04737
5.51237
5.01846
4.59661
4.25783
3.99679
3.79635
3.63864
3.50972
3.40138
3.30481
3.21658
3.13518
3.06033
2.99177
2.92753
2.8673
2.81192
2.76578
2.73409
2.72412
2.72747
2.74306
2.78648
2.88409
3.03664
3.13225
3.15989
3.15828
3.14984
3.12943
3.13007
3.1437
3.18124
3.24725
3.3522
3.49447
3.64762
3.79337
3.92091
4.02828
4.11774
4.1929
4.25704
4.3128
4.36178
4.40498
4.44261
4.47493
4.50251
4.52567
4.54475
4.56018
4.5722
4.58106
4.58689
4.58933
4.58915
4.58834
4.58628
4.58191
4.57363
4.56267
4.54938
4.53392
4.51633
4.49659
4.47464
4.45047
4.4241
4.39558
4.36496
4.33236
4.29785
4.26158
4.22366
4.18426
4.14345
4.10137
4.05797
4.01362
3.96851
3.92288
3.87678
3.83038
3.78369
3.73687
3.68997
3.64316
3.5965
3.55016
3.5042
3.4588
3.41407
3.37028
3.32769
3.28678
3.24844
3.21385
3.18765
6.08326
5.5987
5.1401
4.73274
4.39009
4.11291
3.89284
3.71738
3.57453
3.45535
3.35149
3.2581
3.17376
3.09496
3.02385
2.95776
2.89773
2.84488
2.80444
2.78858
2.79182
2.80732
2.85121
2.95192
3.1589
3.35723
3.4306
3.42602
3.40274
3.345
3.24877
3.18205
3.1653
3.17384
3.20337
3.26136
3.346
3.46393
3.61323
3.7612
3.89589
4.01032
4.1041
4.18044
4.24365
4.29728
4.34368
4.38433
4.41939
4.45003
4.47621
4.49786
4.51567
4.52934
4.53957
4.54621
4.54914
4.54896
4.54811
4.54592
4.54129
4.53274
4.52164
4.50832
4.49292
4.47553
4.45618
4.43486
4.41157
4.38629
4.35904
4.32984
4.29878
4.26586
4.23123
4.19492
4.1571
4.11779
4.07698
4.03494
3.99194
3.94811
3.90361
3.85852
3.81299
3.7671
3.72102
3.6748
3.62862
3.58254
3.53672
3.49124
3.44625
3.40186
3.3583
3.31581
3.27481
3.23615
3.201
3.17394
6.11088
5.66753
5.24084
4.85131
4.51153
4.22604
3.99175
3.801
3.64458
3.51413
3.40231
3.30357
3.21499
3.13297
3.05991
2.9926
2.93346
2.8847
2.85751
2.85926
2.87166
2.91031
3.00388
3.204
3.53458
3.7315
3.75098
3.73174
3.6724
3.54523
3.39894
3.28978
3.22435
3.20288
3.20791
3.22971
3.27667
3.3409
3.43176
3.56275
3.70803
3.84824
3.97104
4.07291
4.15503
4.221
4.27481
4.31992
4.35851
4.39205
4.42103
4.44538
4.46575
4.48159
4.49358
4.5014
4.50522
4.50506
4.50419
4.50195
4.49716
4.48827
4.47689
4.46336
4.44785
4.43048
4.41135
4.39048
4.36791
4.3436
4.31756
4.28977
4.26026
4.22902
4.19614
4.16162
4.12557
4.08788
4.04874
4.00834
3.9669
3.92449
3.88129
3.83737
3.79292
3.74801
3.70284
3.65747
3.61208
3.56673
3.52158
3.4767
3.43225
3.38833
3.34514
3.3029
3.26199
3.22322
3.18773
3.16004
6.13247
5.72266
5.32437
4.95339
4.62097
4.33301
4.08981
3.88708
3.71861
3.5774
3.45709
3.35217
3.259
3.1747
3.09912
3.03139
2.97529
2.93438
2.93178
2.94015
2.97128
3.05177
3.22997
3.59536
3.96843
4.10363
4.0921
4.04351
3.92882
3.73779
3.56609
3.43214
3.33627
3.27536
3.24532
3.24699
3.25931
3.29092
3.33616
3.40861
3.51066
3.64539
3.78418
3.9143
4.02629
4.11723
4.18892
4.24548
4.29104
4.32883
4.3608
4.38794
4.41059
4.42861
4.44256
4.45196
4.45738
4.45732
4.4566
4.4545
4.44989
4.44076
4.42905
4.41518
4.3994
4.38187
4.36276
4.34214
4.32008
4.29654
4.27154
4.24501
4.21698
4.1874
4.1563
4.12366
4.08946
4.05361
4.01637
3.97782
3.93813
3.89734
3.85564
3.81311
3.76995
3.72624
3.68217
3.63783
3.5934
3.54894
3.50461
3.46048
3.41671
3.37339
3.33072
3.28887
3.24823
3.20953
3.17392
3.1458
6.14971
5.76802
5.39457
5.04143
4.71892
4.4326
4.18477
3.97365
3.79517
3.64427
3.51552
3.40405
3.30609
3.21893
3.14196
3.07618
3.02499
3.00787
3.01393
3.03893
3.10674
3.26215
3.58919
4.11442
4.41629
4.44159
4.413
4.32678
4.14405
3.92866
3.74491
3.59706
3.48105
3.39319
3.33116
3.29219
3.28068
3.28509
3.30206
3.33641
3.38565
3.46263
3.57666
3.71008
3.84375
3.96434
4.0652
4.14546
4.20773
4.25606
4.29423
4.32506
4.35022
4.37062
4.38625
4.39742
4.4047
4.4057
4.40515
4.40331
4.3991
4.39055
4.3786
4.36435
4.34821
4.33039
4.31114
4.29056
4.26876
4.24573
4.22151
4.19603
4.16929
4.14121
4.1118
4.08098
4.04866
4.01479
3.97959
3.94303
3.90525
3.86628
3.82631
3.7854
3.74376
3.70147
3.65874
3.61564
3.57235
3.52896
3.48562
3.44241
3.39949
3.35693
3.31493
3.27367
3.23348
3.19506
3.15956
3.1312
6.16601
5.80592
5.45423
5.11826
4.80657
4.52493
4.27555
4.05912
3.87303
3.71374
3.57722
3.45919
3.35649
3.26657
3.18987
3.12797
3.09431
3.09757
3.11618
3.17161
3.30374
3.58566
4.15335
4.63181
4.77854
4.76169
4.69846
4.55384
4.32567
4.11181
3.92838
3.77429
3.64535
3.5386
3.45224
3.38477
3.33804
3.3076
3.30762
3.31438
3.33241
3.36787
3.42441
3.51374
3.63433
3.76425
3.88972
4.00012
4.09053
4.16077
4.21384
4.25373
4.28408
4.30744
4.32542
4.33812
4.34698
4.34996
4.3496
4.34818
4.34472
4.33749
4.32565
4.3112
4.29476
4.27665
4.25717
4.23645
4.21468
4.19189
4.16815
4.1434
4.11765
4.09082
4.06288
4.03372
4.0032
3.97132
3.93816
3.90368
3.86796
3.83102
3.793
3.75397
3.71411
3.67351
3.63235
3.59072
3.54881
3.50669
3.46454
3.42242
3.3805
3.33887
3.29771
3.25719
3.21765
3.17973
3.14455
3.11614
6.18291
5.83971
5.50683
5.187
4.88644
4.61043
4.36238
4.14265
3.95114
3.78507
3.64172
3.51774
3.41074
3.31908
3.24568
3.1923
3.19268
3.20534
3.25016
3.3639
3.61504
4.13308
4.77117
5.06748
5.06583
5.03015
4.93031
4.72517
4.49577
4.29096
4.11257
3.95651
3.81924
3.69884
3.59422
3.50538
3.43291
3.37646
3.33842
3.31952
3.32171
3.33113
3.35233
3.39294
3.45735
3.55921
3.6798
3.80559
3.92293
4.02301
4.1023
4.16189
4.20523
4.23634
4.25868
4.27416
4.28458
4.28979
4.28973
4.28891
4.28646
4.28098
4.26998
4.25577
4.23934
4.22109
4.20139
4.18046
4.15855
4.13574
4.11217
4.08782
4.06271
4.03677
4.00999
3.98219
3.95326
3.92321
3.89202
3.8596
3.82602
3.79124
3.75538
3.71845
3.68063
3.64196
3.60264
3.56273
3.52243
3.48181
3.44106
3.40023
3.35953
3.31901
3.2789
3.23933
3.20065
3.16346
3.12885
3.10064
6.20552
5.87305
5.55521
5.24939
4.95953
4.6898
4.44445
4.22392
4.02874
3.85775
3.70878
3.58001
3.46987
3.37977
3.31241
3.2938
3.3035
3.34086
3.43958
3.66232
4.12784
4.83881
5.26252
5.34846
5.32465
5.24903
5.08563
4.86496
4.65526
4.46573
4.29445
4.13821
3.99528
3.86493
3.74718
3.64232
3.5507
3.47309
3.41019
3.36364
3.33216
3.32547
3.32861
3.33963
3.3651
3.41222
3.48821
3.59593
3.71607
3.83542
3.94265
4.03094
4.09846
4.14714
4.18076
4.20311
4.21724
4.2249
4.22652
4.22599
4.22417
4.2199
4.2111
4.19774
4.18179
4.16376
4.14406
4.12299
4.10088
4.0779
4.05426
4.02999
4.00516
3.97973
3.95371
3.92691
3.89925
3.87071
3.84126
3.81079
3.7793
3.74673
3.71314
3.6785
3.64295
3.60648
3.56928
3.53137
3.49295
3.45409
3.41497
3.37567
3.33639
3.29721
3.25835
3.21997
3.18239
3.1462
3.11244
3.08468
6.24214
5.90856
5.6008
5.30703
5.0274
4.76518
4.52301
4.30335
4.10618
3.93157
3.77861
3.64666
3.53676
3.45137
3.41136
3.41766
3.4475
3.53215
3.72875
4.1436
4.89128
5.42964
5.58955
5.57707
5.52537
5.40369
5.1989
4.99618
4.8088
4.6344
4.47009
4.31472
4.16811
4.03084
3.90362
3.78705
3.68173
3.58819
3.50692
3.43912
3.38472
3.34656
3.32455
3.32489
3.32806
3.341
3.37096
3.42622
3.51503
3.62353
3.73945
3.85017
3.9461
4.02219
4.07801
4.11608
4.14017
4.15371
4.15953
4.15931
4.15809
4.15495
4.14829
4.13653
4.12166
4.10433
4.08505
4.06414
4.042
4.01887
3.99503
3.9706
3.94573
3.92044
3.89477
3.86857
3.84175
3.81434
3.78631
3.75753
3.72797
3.69752
3.66621
3.63395
3.6008
3.56674
3.53188
3.49623
3.45997
3.42313
3.38593
3.34843
3.31084
3.27327
3.23593
3.19901
3.16283
3.12795
3.09534
3.06838
6.29949
5.95187
5.64661
5.36198
5.09166
4.83655
4.59875
4.38058
4.18302
4.00658
3.85181
3.71987
3.61585
3.54824
3.55054
3.57288
3.64489
3.81908
4.18972
4.93084
5.55976
5.80361
5.80008
5.76696
5.67887
5.50096
5.30768
5.12738
4.95816
4.79546
4.637
4.48308
4.33447
4.19272
4.05894
3.93405
3.8187
3.71343
3.61868
3.53489
3.46307
3.40326
3.35754
3.32608
3.31448
3.31449
3.31865
3.335
3.37178
3.43769
3.53096
3.63812
3.74775
3.84876
3.93308
3.99709
4.04144
4.06903
4.08413
4.08831
4.08784
4.08594
4.08145
4.07223
4.05863
4.0423
4.02385
4.00356
3.98177
3.95872
3.93477
3.91012
3.88504
3.85961
3.83392
3.80779
3.78148
3.75479
3.72779
3.70034
3.67241
3.64387
3.61469
3.58473
3.55403
3.52246
3.49012
3.45695
3.42311
3.3886
3.35361
3.31822
3.28264
3.24699
3.2115
3.17636
3.14192
3.10874
3.07766
3.05195
6.37987
6.01033
5.6974
5.41717
5.15429
4.90572
4.67254
4.4568
4.26009
4.08391
3.93025
3.80472
3.71305
3.69969
3.71684
3.77944
3.93835
4.28288
4.97903
5.66513
5.98638
6.0105
5.986
5.91403
5.76389
5.58622
5.4178
5.25849
5.10322
4.94902
4.7951
4.64243
4.49307
4.34858
4.21054
4.07977
3.95721
3.84328
3.73848
3.64309
3.55756
3.48241
3.41828
3.36629
3.32736
3.30613
3.29657
3.29645
3.30187
3.32187
3.36556
3.44008
3.53416
3.63864
3.74118
3.8317
3.90396
3.95598
3.98929
4.00672
4.01238
4.0118
4.00946
4.00395
3.99276
3.97776
3.96032
3.94089
3.91981
3.89719
3.87343
3.84876
3.82351
3.79786
3.77191
3.74565
3.71936
3.69298
3.66657
3.64002
3.61333
3.58633
3.55899
3.53113
3.50272
3.47361
3.44382
3.41327
3.38204
3.35012
3.31766
3.28472
3.25151
3.21815
3.18489
3.15197
3.11969
3.0887
3.05959
3.03569
6.45347
6.08375
5.758
5.47551
5.21682
4.97375
4.74525
4.53267
4.33848
4.16532
4.01952
3.90763
3.86787
3.88148
3.93684
4.08339
4.40716
5.06692
5.78338
6.15761
6.212
6.192
6.12885
5.99506
5.83045
5.67598
5.53092
5.38788
5.24255
5.09404
4.94334
4.79237
4.64314
4.49743
4.35663
4.222
4.09424
3.97403
3.86172
3.75762
3.66185
3.57506
3.49736
3.42953
3.37213
3.32716
3.29414
3.28036
3.26772
3.26831
3.27624
3.30038
3.35178
3.43153
3.52574
3.62514
3.71921
3.79899
3.85939
3.89971
3.92228
3.93101
3.93066
3.92839
3.92268
3.9109
3.89496
3.87632
3.85587
3.83386
3.81062
3.78629
3.76118
3.73544
3.70922
3.68267
3.65618
3.62978
3.60359
3.57753
3.55163
3.52574
3.49981
3.47367
3.44726
3.42041
3.39308
3.36514
3.33662
3.30748
3.27782
3.24766
3.2172
3.18656
3.15601
3.1258
3.09623
3.06805
3.04147
3.02011
6.44819
6.19676
5.84148
5.54213
5.28141
5.04174
4.81768
4.60946
4.42023
4.25602
4.12563
4.06095
4.07062
4.11887
4.25471
4.56189
5.19277
5.93094
6.337
6.41396
6.39591
6.33561
6.20668
6.04967
5.90566
5.77389
5.64508
5.51252
5.37386
5.22973
5.08201
4.93291
4.78447
4.63848
4.4964
4.35931
4.22821
4.10334
3.98541
3.87444
3.77109
3.6753
3.58742
3.50764
3.43652
3.37473
3.32333
3.28296
3.25787
3.24095
3.23005
3.23205
3.24347
3.27222
3.33138
3.41138
3.50454
3.59821
3.68286
3.7513
3.80027
3.82972
3.84443
3.84447
3.84289
3.83797
3.8273
3.81024
3.7903
3.76879
3.74615
3.72243
3.69779
3.67219
3.64589
3.61921
3.59253
3.56597
3.53975
3.51383
3.48832
3.46307
3.43809
3.41321
3.38839
3.36343
3.3383
3.31282
3.28698
3.26069
3.23399
3.2069
3.17956
3.1521
3.12478
3.09791
3.07172
3.04713
3.02376
3.00586
6.40756
6.25223
5.93324
5.6184
5.35025
5.11119
4.89132
4.68921
4.51036
4.36431
4.27683
4.28296
4.32534
4.45335
4.75004
5.36333
6.11479
6.54257
6.63191
6.61231
6.54786
6.4114
6.25408
6.11574
5.99393
5.87753
5.75797
5.63132
5.49696
5.35633
5.21143
5.06452
4.91746
4.77203
4.6295
4.49104
4.35741
4.2293
4.10717
3.99129
3.88197
3.77923
3.68342
3.59448
3.51292
3.43887
3.37312
3.31624
3.26948
3.23503
3.21203
3.19242
3.18351
3.18714
3.20191
3.23562
3.30243
3.38177
3.47058
3.55741
3.63287
3.69069
3.72929
3.7497
3.75511
3.75405
3.74995
3.74063
3.72307
3.70271
3.68056
3.65726
3.63305
3.60783
3.58181
3.55532
3.52868
3.50207
3.47575
3.44978
3.42432
3.39932
3.37485
3.35076
3.32707
3.30357
3.28026
3.25694
3.23359
3.21006
3.18639
3.16254
3.13865
3.11483
3.09132
3.06853
3.04649
3.02644
3.00711
2.99379
6.31173
6.23832
6.04583
5.71566
5.42966
5.18528
4.96873
4.77684
4.61802
4.51197
4.51535
4.55385
4.67834
4.97302
5.58497
6.3457
6.78196
6.86972
6.84676
6.7739
6.62114
6.45506
6.31619
6.19964
6.092
5.98307
5.8674
5.74353
5.61185
5.47405
5.33185
5.18736
5.04208
4.89778
4.75546
4.61647
4.48134
4.35104
4.22574
4.10607
3.99201
3.88392
3.7818
3.68579
3.59608
3.51274
3.43625
3.36685
3.30538
3.25283
3.20995
3.18028
3.15418
3.13405
3.13235
3.13766
3.15523
3.19379
3.26161
3.34124
3.42594
3.50556
3.57158
3.61941
3.64798
3.66091
3.66057
3.65784
3.65049
3.63514
3.6145
3.5914
3.56716
3.54217
3.51669
3.49075
3.46452
3.43814
3.41188
3.38587
3.36035
3.33537
3.31106
3.28738
3.26436
3.2419
3.21997
3.19843
3.17724
3.15628
3.13557
3.11504
3.09485
3.07512
3.05607
3.03813
3.02116
3.00676
2.9924
2.985
6.20329
6.18412
6.07625
5.83389
5.52647
5.26931
5.05571
4.88371
4.76197
4.76375
4.8015
4.92837
5.2312
5.86039
6.63257
7.06536
7.13911
7.11081
7.02316
6.8421
6.66105
6.51726
6.40125
6.29786
6.19548
6.08786
5.97253
5.8494
5.71932
5.58372
5.44405
5.30193
5.15869
5.0158
4.87424
4.73523
4.59934
4.46753
4.33996
4.21737
4.09963
3.98733
3.88016
3.7786
3.68236
3.59186
3.50701
3.42822
3.35579
3.29024
3.23265
3.183
3.14577
3.11347
3.08846
3.07076
3.07199
3.08012
3.10168
3.14683
3.21419
3.29251
3.37213
3.44387
3.50052
3.53872
3.55962
3.56385
3.56241
3.55717
3.54545
3.52466
3.50091
3.47616
3.45097
3.4255
3.39984
3.374
3.34811
3.3223
3.29682
3.27184
3.24755
3.22404
3.20138
3.17958
3.15863
3.13849
3.11911
3.10046
3.08253
3.06536
3.04908
3.0339
3.01998
3.00764
2.99689
2.98923
2.98096
2.98046
5.91743
6.1045
6.05501
5.91525
5.63147
5.36753
5.16587
5.02613
5.02526
5.06377
5.19838
5.52189
6.1931
6.98226
7.40301
7.44709
7.40948
7.29912
7.07702
6.87955
6.72682
6.60809
6.50464
6.40432
6.30056
6.19044
6.0734
5.94975
5.82044
5.68639
5.54884
5.40883
5.26761
5.12622
4.98575
4.84706
4.71099
4.57817
4.4491
4.32423
4.20373
4.08798
3.97684
3.87072
3.76929
3.67303
3.58159
3.49554
3.41467
3.33966
3.2707
3.20856
3.15415
3.1089
3.07278
3.03978
3.015
3.00381
3.00634
3.01699
3.0423
3.09373
3.16038
3.23613
3.31028
3.37387
3.42157
3.45073
3.4639
3.46343
3.46025
3.45177
3.43423
3.41089
3.38569
3.36016
3.33474
3.30939
3.28405
3.25875
3.23365
3.20893
3.18482
3.16149
3.13909
3.11774
3.09751
3.07845
3.0606
3.04399
3.02873
3.01495
3.00285
2.99273
2.98463
2.97841
2.9749
2.97511
2.97662
2.98181
5.23413
5.9419
5.98199
5.91556
5.75172
5.50083
5.31503
5.29804
5.34049
5.48938
5.84593
6.5826
7.39256
7.80292
7.80069
7.74727
7.60418
7.34385
7.12242
6.95497
6.8279
6.71872
6.61591
6.5119
6.40332
6.28913
6.16945
6.04468
5.9155
5.7825
5.64653
5.50833
5.36891
5.22904
5.08974
4.9517
4.81577
4.68245
4.55239
4.42586
4.30328
4.18476
4.07052
3.9606
3.85508
3.75402
3.65743
3.56549
3.47814
3.39576
3.3184
3.24664
3.18083
3.12206
3.07071
3.02979
2.99083
2.95964
2.93613
2.93377
2.93761
2.95046
2.97906
3.03507
3.1017
3.17376
3.24154
3.29705
3.33549
3.35747
3.36187
3.36033
3.3548
3.34244
3.32019
3.29577
3.27041
3.24505
3.21993
3.19515
3.17069
3.14659
3.123
3.10011
3.07813
3.05728
3.03774
3.01966
3.00323
2.98855
2.97607
2.96583
2.9586
2.95325
2.95268
2.95331
2.95587
2.96244
2.97576
2.99592
3.77657
5.52047
5.88854
5.88197
5.82212
5.67992
5.60434
5.64749
5.81091
6.20948
7.03107
7.86971
8.24231
8.22745
8.13614
7.92408
7.63696
7.3922
7.20635
7.06439
6.94676
6.83771
6.72939
6.61832
6.50332
6.38428
6.2614
6.13498
6.00531
5.87276
5.73779
5.60099
5.463
5.32455
5.18637
5.04915
4.91357
4.78017
4.64949
4.52186
4.39767
4.27705
4.16027
4.0473
3.93839
3.83341
3.73262
3.63585
3.54334
3.45503
3.37124
3.292
3.21792
3.14912
3.0867
3.03051
2.9837
2.94123
2.90309
2.87489
2.85767
2.85863
2.86451
2.88074
2.91527
2.9721
3.03836
3.10645
3.16715
3.21448
3.24426
3.25884
3.25842
3.25544
3.24728
3.23016
3.20697
3.1818
3.15667
3.13214
3.10825
3.08492
3.06216
3.0401
3.01892
2.9989
2.9803
2.9634
2.94857
2.93609
2.92698
2.92047
2.91935
2.91997
2.92263
2.92908
2.94256
2.96665
2.98654
3.02651