/*--------------------------------*- C++ -*----------------------------------*\
  =========                 |
  \\      /  F ield         | OpenFOAM: The Open Source CFD Toolbox
   \\    /   O peration     | Website:  https://openfoam.org
    \\  /    A nd           | Version:  9
     \\/     M anipulation  |
\*---------------------------------------------------------------------------*/
FoamFile
{
    format      ascii;
    class       surfaceScalarField;
    location    "6";
    object      phi;
}
// * * * * * * * * * * * * * * * * * * * * * * * * * * * * * * * * * * * * * //

dimensions      [1 0 -1 0 0 0 0];

internalField   nonuniform List<scalar> 
10325
(
0.00840002
4.25625e-11
0.00840001
7.98096e-10
0.00840007
9.11547e-10
0.00839991
7.68961e-09
0.00840015
9.61481e-09
0.00839969
3.92801e-08
0.00839986
9.37687e-08
0.00839936
1.84098e-07
0.00839831
6.85777e-07
0.00839599
1.07803e-06
0.00839646
4.07621e-06
0.00837527
8.80747e-06
0.00835106
3.16422e-05
0.00822275
0.000115628
0.00760127
0.000592513
0.00695366
0.000656355
0.00632886
0.000627922
0.00567956
0.000649683
0.00499973
0.000680379
0.00428246
0.000718445
0.00351741
0.000766673
0.00270429
0.00081491
0.00184796
0.000857986
0.000947953
0.000901286
0.000948967
0.00840002
1.76567e-10
0.00840005
1.12526e-09
0.00839994
3.77038e-09
0.00840021
1.08591e-08
0.00839958
2.76026e-08
0.00840102
7.7612e-08
0.00839767
1.56142e-07
0.00840483
5.20591e-07
0.00838908
8.94185e-07
0.00841392
3.17491e-06
0.0083722
6.32464e-06
0.00840167
2.07511e-05
0.00833342
6.20616e-05
0.00822377
0.000234785
0.00760306
0.00117943
0.0069411
0.0013265
0.00632456
0.00124762
0.00568494
0.00128972
0.00501025
0.00135564
0.00428643
0.00144346
0.00351359
0.00154118
0.00269323
0.00163709
0.00182653
0.00172637
0.00092111
0.00180801
0.00187112
0.00840002
2.59691e-10
0.00840003
1.41316e-09
0.00840002
5.6654e-09
0.00840001
1.40725e-08
0.00839993
4.14718e-08
0.00840013
9.73581e-08
0.00839898
2.63249e-07
0.00840148
6.23993e-07
0.00839414
1.62237e-06
0.00840448
4.00037e-06
0.00838524
1.06275e-05
0.00838742
2.93972e-05
0.00834321
9.37735e-05
0.00823132
0.000344585
0.00765622
0.00172199
0.00698472
0.00200719
0.00636928
0.00186631
0.00573692
0.00192254
0.00506837
0.00202481
0.00434577
0.00216739
0.00356828
0.00232043
0.00273949
0.00246755
0.00185919
0.0026084
0.000936344
0.00273227
0.00280851
0.00840002
4.43592e-10
0.00840002
1.5851e-09
0.00840004
8.60847e-09
0.00839996
1.56464e-08
0.00840003
6.3604e-08
0.00839994
1.05196e-07
0.00839946
4.01257e-07
0.00840024
6.65875e-07
0.00839701
2.43072e-06
0.008399
4.57774e-06
0.00839344
1.46634e-05
0.0083807
3.69132e-05
0.0083549
0.000121383
0.00825251
0.000437676
0.00776963
0.00217238
0.0070918
0.00269492
0.00647234
0.00248922
0.00584462
0.00255064
0.00518297
0.00268705
0.0044626
0.00288881
0.00368375
0.00310099
0.0028459
0.0033077
0.0019442
0.00351202
0.000985064
0.0036927
0.0037947
0.00840003
2.34803e-10
0.0084
2.86368e-09
0.00840007
6.16381e-09
0.0083999
2.81297e-08
0.00840032
4.85431e-08
0.00839912
1.8118e-07
0.00840208
3.29204e-07
0.00839484
1.0937e-06
0.00841077
2.18231e-06
0.00837837
6.58782e-06
0.00842257
1.53563e-05
0.00836095
4.54556e-05
0.00838305
0.000138502
0.00828738
0.000503261
0.00797581
0.00245551
0.00728918
0.00339166
0.0066503
0.00313191
0.00601924
0.0031826
0.00536355
0.00334388
0.00464891
0.00360539
0.00386594
0.00388613
0.00301319
0.00416277
0.00208132
0.00444576
0.00106759
0.00470826
0.00486386
0.00840002
4.93492e-10
0.00840004
2.0466e-09
0.00839998
1.00253e-08
0.00840012
2.03503e-08
0.00839973
7.3909e-08
0.00840075
1.45169e-07
0.00839809
4.517e-07
0.00840453
9.64774e-07
0.00839024
2.70313e-06
0.00841666
6.42022e-06
0.00837324
1.7174e-05
0.00841767
4.70079e-05
0.00836693
0.000146361
0.0083644
0.000519475
0.00832602
0.00245606
0.00763051
0.00409615
0.0069369
0.00382958
0.00628909
0.00383115
0.00563216
0.0040014
0.00491788
0.00432064
0.00413078
0.00467486
0.0032585
0.00503711
0.00228596
0.00542052
0.0011946
0.00580137
0.00606007
0.00840003
3.17891e-10
0.00840001
2.65655e-09
0.00840009
7.21469e-09
0.00839989
2.58303e-08
0.00840037
5.54053e-08
0.00839933
1.63737e-07
0.00840178
3.77076e-07
0.00839659
9.65996e-07
0.00840774
2.46636e-06
0.0083871
5.86916e-06
0.00842136
1.60142e-05
0.00838126
4.18345e-05
0.00843697
0.000128414
0.00848785
0.00044132
0.00895026
0.0019652
0.00824615
0.004807
0.00739345
0.00468608
0.00670348
0.00452256
0.00603057
0.00467587
0.00530744
0.00504536
0.00450317
0.00548153
0.00360489
0.00593784
0.00258231
0.00644555
0.00139337
0.00699217
0.00745504
0.00840002
3.98648e-10
0.00840004
1.87882e-09
0.00839998
8.34337e-09
0.00840015
1.88823e-08
0.00839978
6.08028e-08
0.00840067
1.33061e-07
0.00839878
3.62084e-07
0.00840332
8.70779e-07
0.00839381
2.11826e-06
0.00841296
5.55419e-06
0.0083845
1.33042e-05
0.00842831
3.6959e-05
0.00841033
0.0001064
0.00851097
0.000357102
0.00892495
0.00153001
0.00852037
0.00520433
0.00768813
0.00551519
0.00707751
0.00513321
0.00642951
0.00532457
0.0057375
0.00573865
0.00494982
0.00627118
0.0040458
0.00684401
0.00299408
0.00749927
0.00170644
0.00828168
0.0091633
0.00840003
2.65705e-10
0.00840001
2.37083e-09
0.00840008
6.15531e-09
0.00839992
2.31611e-08
0.00840031
4.65145e-08
0.00839945
1.47954e-07
0.00840148
3.0654e-07
0.00839717
8.73816e-07
0.00840673
1.96745e-06
0.00838824
5.19128e-06
0.00842001
1.27651e-05
0.00837893
3.43591e-05
0.00842645
9.8614e-05
0.00843143
0.000326297
0.00860902
0.00134611
0.00833
0.00546276
0.00796315
0.00587159
0.00735959
0.00573784
0.0067351
0.00594929
0.00613482
0.00633956
0.00542153
0.00698559
0.00459052
0.00767679
0.00359788
0.00849381
0.00222772
0.00965357
0.0113927
0.00840003
3.2892e-10
0.00840003
2.04633e-09
0.0084
7.14626e-09
0.00840008
2.01055e-08
0.00839986
5.29644e-08
0.00840046
1.33406e-07
0.00839884
3.3303e-07
0.00840296
8.23125e-07
0.00839355
2.04005e-06
0.00841355
5.07588e-06
0.00837824
1.28299e-05
0.00842533
3.37779e-05
0.00837797
9.67537e-05
0.00842315
0.000314757
0.00850189
0.00123929
0.00832525
0.00562039
0.00797016
0.00622399
0.00751045
0.00619836
0.00703849
0.00642209
0.0065186
0.00686055
0.00595399
0.0075511
0.00529608
0.00833571
0.0044014
0.0093898
0.00309957
0.0109571
0.0144937
0.00840003
3.72341e-10
0.00840003
1.88911e-09
0.00840001
7.69118e-09
0.00840007
1.86815e-08
0.00839988
5.71212e-08
0.00840041
1.25468e-07
0.00839894
3.62403e-07
0.00840272
7.74425e-07
0.00839385
2.23259e-06
0.00841321
4.83042e-06
0.00837726
1.37272e-05
0.00842644
3.32731e-05
0.00837128
9.80987e-05
0.00841551
0.000309553
0.00845004
0.0011742
0.00844439
0.00560671
0.00805382
0.00661541
0.00765997
0.00659336
0.00732027
0.00676181
0.00693061
0.00725023
0.00655521
0.00792692
0.00610947
0.0087824
0.00568088
0.00981973
0.00562577
0.0110135
0.0114427
0.00867774
0.00840003
3.37025e-10
0.00840003
1.98871e-09
0.00840001
7.44019e-09
0.00840008
1.94934e-08
0.00839992
5.53197e-08
0.00840027
1.32045e-07
0.00839955
3.43993e-07
0.00840067
8.44421e-07
0.00839845
2.07485e-06
0.00840185
5.32617e-06
0.00839442
1.30819e-05
0.0084062
3.47757e-05
0.00838681
9.61214e-05
0.00840844
0.000303665
0.00845728
0.0011089
0.00874184
0.00529615
0.0083269
0.00703312
0.00791952
0.00700304
0.0075984
0.00708563
0.00731646
0.00753382
0.0070527
0.00819213
0.00684118
0.00899513
0.00678335
0.00987888
0.00719429
0.0106041
0.0104882
0.00814871
0.00840003
3.03575e-10
0.00840002
2.03165e-09
0.00840004
6.6638e-09
0.0084
1.98763e-08
0.00840011
5.01644e-08
0.00839977
1.32108e-07
0.00840075
3.24712e-07
0.00839824
8.14639e-07
0.00840465
2.03955e-06
0.00839101
5.02814e-06
0.00841759
1.29298e-05
0.00837811
3.29233e-05
0.00842786
9.16352e-05
0.00840922
0.000280624
0.00853408
0.000997002
0.00934472
0.0044522
0.00885379
0.0075284
0.00833692
0.00752354
0.00799098
0.00743385
0.00774976
0.00777591
0.00758003
0.00836246
0.00753993
0.00903634
0.00773986
0.0096793
0.00823826
0.0101068
0.00991302
0.0088144
0.00840003
2.36094e-10
0.00840003
1.73284e-09
0.00840002
5.48195e-09
0.00840004
1.71212e-08
0.00840002
4.08601e-08
0.00840005
1.1458e-07
0.00840018
2.52607e-07
0.00839966
7.18775e-07
0.008402
1.53362e-06
0.00839703
4.43061e-06
0.00841139
9.62624e-06
0.00839871
2.73767e-05
0.00844075
6.82505e-05
0.00849477
0.000206604
0.00881296
0.000684658
0.0103794
0.00284716
0.00969374
0.00821787
0.00909982
0.00812144
0.00857861
0.00795863
0.00828209
0.00807425
0.00815736
0.00848852
0.00819688
0.00899839
0.00842976
0.00944764
0.00885984
0.00967713
0.00944762
0.00932531
0.00840003
2.42717e-10
0.00840003
1.33466e-09
0.00840004
5.13002e-09
0.00840001
1.31056e-08
0.00840008
3.80044e-08
0.00839998
8.68123e-08
0.00840013
2.40234e-07
0.00840023
5.31162e-07
0.00839972
1.46139e-06
0.00840212
3.23613e-06
0.00840035
8.81699e-06
0.0084082
2.07044e-05
0.00842199
5.64649e-05
0.00846258
0.000157429
0.00863454
0.000513003
0.00945118
0.00201899
0.00991569
0.0077414
0.00958015
0.00845692
0.0090603
0.00847973
0.00879268
0.00834344
0.00869311
0.00858962
0.00874589
0.00894645
0.00895733
0.00923745
0.00930809
0.00932776
0.00907049
0.00968583
0.00840003
1.64413e-10
0.00840003
1.31409e-09
0.00840004
3.81108e-09
0.00840001
1.28823e-08
0.0084001
2.9019e-08
0.00839986
8.40766e-08
0.00840056
1.86453e-07
0.00839905
5.09621e-07
0.0084031
1.15909e-06
0.00839494
3.05513e-06
0.00841421
7.26063e-06
0.00838369
1.87959e-05
0.00843823
4.80304e-05
0.00840534
0.000135002
0.00853525
0.000424486
0.00894057
0.00158063
0.00984507
0.00681587
0.00970048
0.00859985
0.00945687
0.0087234
0.00920529
0.00859665
0.00913057
0.00866597
0.00919532
0.00888313
0.00937698
0.0090557
0.00965411
0.00905085
0.00877637
0.00994849
0.00840003
1.88829e-10
0.00840003
9.74509e-10
0.00840002
3.95954e-09
0.00840004
9.64028e-09
0.0084
2.91255e-08
0.00840014
6.53345e-08
0.00839977
1.81973e-07
0.00840088
4.10611e-07
0.00839832
1.10517e-06
0.00840533
2.55891e-06
0.00839169
6.71176e-06
0.00842114
1.63055e-05
0.00838376
4.29378e-05
0.00844932
0.000116505
0.00847062
0.000359041
0.00879201
0.00127351
0.0101544
0.00542077
0.0100704
0.00868552
0.00981475
0.0089807
0.00957614
0.00883768
0.00950514
0.00873831
0.00956293
0.0088262
0.00971352
0.00890594
0.00992734
0.008837
0.00855446
0.0101492
0.00840003
1.24794e-10
0.00840003
9.06513e-10
0.00840004
2.8062e-09
0.00840002
8.86565e-09
0.00840008
2.12104e-08
0.00839994
5.7714e-08
0.00840037
1.36124e-07
0.00839951
3.49924e-07
0.00840204
8.42191e-07
0.00839741
2.09244e-06
0.00841048
5.22995e-06
0.0083905
1.27373e-05
0.00843879
3.31459e-05
0.00841596
8.64059e-05
0.00856747
0.000253199
0.00896717
0.000840467
0.0110158
0.00334435
0.0106818
0.00901869
0.0104784
0.00918923
0.010129
0.00919193
0.00993202
0.0089376
0.00991869
0.00884122
0.0100166
0.00880878
0.0101689
0.00868512
0.00839525
0.010328
0.00840003
1.04168e-10
0.00840003
6.77638e-10
0.00840002
2.32121e-09
0.00840005
6.68487e-09
0.00840001
1.72119e-08
0.00840013
4.48404e-08
0.00839993
1.06473e-07
0.00840051
2.77919e-07
0.00839964
6.37079e-07
0.00840205
1.69762e-06
0.00839923
3.83028e-06
0.00840908
1.03523e-05
0.00840385
2.4092e-05
0.00844526
6.57169e-05
0.00849337
0.000179234
0.00876959
0.000574109
0.00992912
0.00217347
0.0110062
0.00792525
0.0108375
0.00935861
0.0105643
0.00946685
0.0103285
0.00917597
0.0102527
0.00891762
0.0102951
0.00876662
0.0103919
0.00858847
0.00829107
0.0104954
0.00840003
9.1144e-11
0.00840003
5.20511e-10
0.00840003
1.93544e-09
0.00840003
5.13187e-09
0.00840003
1.44315e-08
0.00840005
3.37754e-08
0.00840001
9.17079e-08
0.00840027
2.0584e-07
0.00839963
5.62032e-07
0.00840213
1.24501e-06
0.00839707
3.40346e-06
0.00841287
7.6594e-06
0.00838942
2.08729e-05
0.0084455
5.045e-05
0.00843238
0.000143038
0.00861423
0.000431522
0.00919382
0.00156192
0.0109311
0.00617074
0.0110279
0.00926132
0.0108996
0.00959552
0.0106474
0.00942976
0.0105528
0.00901346
0.0105549
0.00876459
0.0106055
0.00853733
0.00823114
0.0106653
0.00840003
6.56421e-11
0.00840003
4.20749e-10
0.00840003
1.46445e-09
0.00840004
4.13346e-09
0.00840003
1.08365e-08
0.00840006
2.77506e-08
0.00840004
6.69437e-08
0.0084001
1.72832e-07
0.0084003
4.01213e-07
0.00839992
1.05643e-06
0.00840261
2.40855e-06
0.00839865
6.45486e-06
0.00841477
1.4908e-05
0.00840845
4.02161e-05
0.00846528
0.000102587
0.00857519
0.000304169
0.00912814
0.00101304
0.0114152
0.00385233
0.0114577
0.00921506
0.0113868
0.00966805
0.0111658
0.00965235
0.010915
0.00926562
0.0108285
0.00885141
0.0108274
0.00853823
0.00821486
0.0108422
0.00840003
4.99902e-11
0.00840003
3.20055e-10
0.00840003
1.08469e-09
0.00840003
3.14188e-09
0.00840005
8.12996e-09
0.00840001
2.04311e-08
0.00840012
5.18153e-08
0.00839998
1.22757e-07
0.00840045
3.17252e-07
0.00840002
7.29577e-07
0.00840161
1.92628e-06
0.00840148
4.36375e-06
0.00840826
1.16866e-05
0.0084132
2.72481e-05
0.0084552
7.37683e-05
0.00854072
0.000199569
0.00892957
0.000631738
0.0104528
0.00231915
0.0117527
0.00789686
0.0117117
0.0097074
0.0115098
0.0098537
0.0112512
0.00952433
0.011127
0.00897489
0.0110663
0.00859809
0.00824188
0.011039
0.00840003
3.58825e-11
0.00840003
2.42559e-10
0.00840003
8.04507e-10
0.00840003
2.38319e-09
0.00840003
5.99354e-09
0.00840005
1.57871e-08
0.00840004
3.75482e-08
0.00840007
9.70393e-08
0.00840021
2.27735e-07
0.00839995
5.84238e-07
0.0084018
1.38462e-06
0.00839861
3.5104e-06
0.00841167
8.49183e-06
0.00839694
2.1565e-05
0.008447
5.43991e-05
0.00846271
0.000147807
0.00867913
0.000442845
0.00940682
0.00156865
0.0116536
0.00563022
0.0119063
0.0094506
0.0119085
0.00984916
0.0117053
0.00972593
0.0114405
0.00923901
0.0113228
0.00871448
0.00830899
0.0112544
0.00840003
2.76455e-11
0.00840003
1.62777e-10
0.00840003
5.99117e-10
0.00840003
1.605e-09
0.00840003
4.44217e-09
0.00840005
1.06574e-08
0.00840002
2.7573e-08
0.00840015
6.53786e-08
0.00840001
1.64339e-07
0.00840053
3.94368e-07
0.00840047
9.70334e-07
0.00840166
2.38095e-06
0.0084046
5.75411e-06
0.00841004
1.44508e-05
0.00842911
3.55901e-05
0.00848667
9.33221e-05
0.00865917
0.000261108
0.0093892
0.000838308
0.012014
0.0029826
0.0124463
0.00901136
0.012383
0.00990873
0.0121063
0.00999919
0.0117887
0.00955466
0.0116077
0.00889468
0.00843034
0.0114857
0.00840003
1.81334e-11
0.00840003
1.23878e-10
0.00840003
4.08409e-10
0.00840003
1.2145e-09
0.00840003
3.03305e-09
0.00840004
7.96865e-09
0.00840004
1.8925e-08
0.00840005
4.83369e-08
0.00840015
1.14185e-07
0.00840003
2.87733e-07
0.00840098
6.84304e-07
0.00839962
1.70739e-06
0.00840647
4.11008e-06
0.00839842
1.02236e-05
0.00843206
2.5232e-05
0.00842487
6.44479e-05
0.00855127
0.000174132
0.00881665
0.000532618
0.00991106
0.0019011
0.0122585
0.00663825
0.0124993
0.00966327
0.0125301
0.00996461
0.0121751
0.00990805
0.0119181
0.00915178
0.00860806
0.0117399
0.00840003
1.31483e-11
0.00840003
8.52682e-11
0.00840003
2.93639e-10
0.00840003
8.3948e-10
0.00840003
2.17644e-09
0.00840004
5.57177e-09
0.00840003
1.34309e-08
0.00840008
3.41214e-08
0.00840003
8.01716e-08
0.00840023
2.05504e-07
0.00840029
4.7641e-07
0.00840065
1.22776e-06
0.00840255
2.84851e-06
0.00840251
7.37149e-06
0.00841582
1.7398e-05
0.00842557
4.54925e-05
0.00849093
0.000116104
0.00867535
0.000338225
0.00946252
0.00111466
0.0121586
0.00391343
0.0127331
0.00907978
0.0127905
0.00990504
0.0126852
0.0100112
0.0122712
0.00956567
0.00886608
0.0120128
0.00840003
9.70229e-12
0.00840003
5.64175e-11
0.00840003
2.10452e-10
0.00840003
5.55693e-10
0.00840003
1.55646e-09
0.00840003
3.67731e-09
0.00840003
9.6442e-09
0.00840006
2.24663e-08
0.00840001
5.73777e-08
0.00840029
1.35293e-07
0.00839986
3.37922e-07
0.00840176
8.12961e-07
0.00839905
1.99154e-06
0.00841005
4.89176e-06
0.00839748
1.18928e-05
0.00844628
2.99659e-05
0.00843579
7.55017e-05
0.00861886
0.000206981
0.00906217
0.000633123
0.0107627
0.00221371
0.0127461
0.00707401
0.0129259
0.00972165
0.0129561
0.00997874
0.0126268
0.00989462
0.00916731
0.0123277
0.00840003
6.37089e-12
0.00840003
3.99642e-11
0.00840003
1.39026e-10
0.00840003
3.93628e-10
0.00840003
1.03119e-09
0.00840003
2.5838e-09
0.00840004
6.46604e-09
0.00840003
1.55771e-08
0.00840009
3.89145e-08
0.00840005
9.248e-08
0.00840027
2.32824e-07
0.00840039
5.48464e-07
0.00840083
1.38293e-06
0.0084032
3.27444e-06
0.00840355
8.27976e-06
0.00841975
1.99264e-05
0.00843371
5.1175e-05
0.00851677
0.000132261
0.00875332
0.000385381
0.00967716
0.00128896
0.0124276
0.00429462
0.0130927
0.00904873
0.0131858
0.00988517
0.01307
0.0100101
0.00955746
0.01268
0.00840003
3.97841e-12
0.00840003
2.78274e-11
0.00840003
8.92497e-11
0.00840003
2.7329e-10
0.00840003
6.64269e-10
0.00840003
1.78155e-09
0.00840004
4.15467e-09
0.00840003
1.069e-08
0.00840008
2.51307e-08
0.00840001
6.28256e-08
0.00840034
1.50533e-07
0.00839997
3.67275e-07
0.00840171
9.0304e-07
0.00840005
2.14786e-06
0.00840892
5.41179e-06
0.00840321
1.2774e-05
0.00844469
3.28875e-05
0.00845828
8.12686e-05
0.00865764
0.000224607
0.00923234
0.000685012
0.0111943
0.0023279
0.0131533
0.00706854
0.0132942
0.00974083
0.0133849
0.00991692
0.00987148
0.0130703
0.00840003
2.77786e-12
0.00840003
1.75714e-11
0.00840003
6.14302e-11
0.00840003
1.72631e-10
0.00840003
4.55272e-10
0.00840003
1.13363e-09
0.00840003
2.81988e-09
0.00840004
6.89497e-09
0.00840003
1.67578e-08
0.0084001
4.10438e-08
0.00840006
9.88957e-08
0.00840032
2.43869e-07
0.00840044
5.82623e-07
0.00840108
1.44306e-06
0.00840355
3.45344e-06
0.008405
8.58723e-06
0.00842194
2.08579e-05
0.00844202
5.28538e-05
0.0085351
0.000136852
0.00881657
0.0003952
0.00983261
0.00130724
0.012664
0.00420804
0.0134691
0.00892622
0.0135837
0.00980052
0.0100226
0.013431
0.00840003
1.79974e-12
0.00840003
1.14003e-11
0.00840003
3.99529e-11
0.00840003
1.11809e-10
0.00840003
2.9568e-10
0.00840003
7.33981e-10
0.00840003
1.82115e-09
0.00840004
4.44703e-09
0.00840003
1.07978e-08
0.00840008
2.6521e-08
0.00840004
6.33346e-08
0.00840029
1.5679e-07
0.00840017
3.72054e-07
0.00840116
9.26972e-07
0.00840173
2.18466e-06
0.00840498
5.49169e-06
0.00841217
1.30244e-05
0.00843325
3.30536e-05
0.00848063
8.22464e-05
0.00866019
0.000224106
0.00927943
0.000677994
0.0112201
0.00225649
0.0134203
0.00670158
0.0135854
0.00963075
0.00980557
0.0137992
0.00840003
1.20289e-12
0.00840003
7.09524e-12
0.00840003
2.61735e-11
0.00840003
6.98421e-11
0.00840003
1.92829e-10
0.00840003
4.58787e-10
0.00840003
1.18876e-09
0.00840003
2.77241e-09
0.00840003
7.02748e-09
0.00840006
1.6485e-08
0.00840003
4.10722e-08
0.00840023
9.78184e-08
0.00840002
2.38989e-07
0.00840117
5.81283e-07
0.00840019
1.38997e-06
0.00840625
3.45229e-06
0.00840213
8.16004e-06
0.00843158
2.07171e-05
0.0084332
4.99701e-05
0.0085661
0.000132324
0.00882473
0.000369691
0.00989821
0.00120443
0.0127806
0.00377853
0.0137928
0.00860645
0.00973813
0.0138565
0.00840003
7.29752e-13
0.00840003
4.62025e-12
0.00840003
1.59449e-11
0.00840003
4.54442e-11
0.00840003
1.17677e-10
0.00840003
2.95876e-10
0.00840003
7.32041e-10
0.00840003
1.76984e-09
0.00840004
4.37281e-09
0.00840003
1.03814e-08
0.00840007
2.58387e-08
0.00840008
6.07766e-08
0.00840017
1.51921e-07
0.00840045
3.56055e-07
0.00840052
8.92074e-07
0.00840318
2.09754e-06
0.00840193
5.23466e-06
0.00842009
1.24921e-05
0.00841752
3.1374e-05
0.00850237
7.80493e-05
0.00862646
0.000209399
0.00922695
0.000623962
0.0109338
0.00204937
0.0135154
0.00600007
0.00933534
0.013912
0.00840003
4.26545e-13
0.00840003
2.9239e-12
0.00840003
9.59901e-12
0.00840003
2.86357e-11
0.00840003
7.12267e-11
0.00840003
1.85988e-10
0.00840003
4.40825e-10
0.00840003
1.1089e-09
0.00840004
2.62578e-09
0.00840003
6.46188e-09
0.00840006
1.55193e-08
0.00840004
3.7439e-08
0.00840021
9.14534e-08
0.00840011
2.16874e-07
0.00840091
5.36749e-07
0.00840095
1.25802e-06
0.00840383
3.15489e-06
0.00840774
7.34298e-06
0.00842079
1.86434e-05
0.00845065
4.45675e-05
0.00855031
0.000116633
0.00884042
0.000317442
0.00988602
0.00100516
0.0127648
0.00307913
0.0080259
0.0140635
0.00840003
2.77488e-13
0.00840003
1.70575e-12
0.00840003
6.1279e-12
0.00840003
1.68406e-11
0.00840003
4.50147e-11
0.00840003
1.10797e-10
0.00840003
2.74243e-10
0.00840003
6.70175e-10
0.00840003
1.60321e-09
0.00840003
3.9806e-09
0.00840004
9.28719e-09
0.00840004
2.34415e-08
0.00840012
5.3939e-08
0.00840007
1.37241e-07
0.00840067
3.14664e-07
0.00840008
8.00206e-07
0.00840404
1.84462e-06
0.00840046
4.67027e-06
0.00842269
1.09438e-05
0.00840931
2.76659e-05
0.00850946
6.77313e-05
0.00856985
0.000180055
0.00912855
0.000521656
0.0104432
0.00170034
0.00500641
0.0134474
0.00840003
1.62334e-13
0.00840003
1.06882e-12
0.00840003
3.58009e-12
0.00840003
1.04791e-11
0.00840003
2.647e-11
0.00840003
6.77488e-11
0.00840003
1.64201e-10
0.00840003
4.01067e-10
0.00840003
9.77613e-10
0.00840003
2.32299e-09
0.00840004
5.75387e-09
0.00840004
1.34173e-08
0.00840007
3.37089e-08
0.00840013
7.74796e-08
0.0084002
1.96459e-07
0.00840071
4.49601e-07
0.00840076
1.14069e-06
0.00840453
2.61685e-06
0.00840393
6.63649e-06
0.00842765
1.54423e-05
0.00843174
3.93508e-05
0.00854974
9.66398e-05
0.00876515
0.00026462
0.00969152
0.000796671
0.00246161
0.0122103
0.00840003
9.71666e-14
0.00840003
6.2953e-13
0.00840003
2.1686e-12
0.00840003
6.19194e-12
0.00840003
1.59523e-11
0.00840003
4.0448e-11
0.00840003
9.71518e-11
0.00840003
2.42872e-10
0.00840003
5.68078e-10
0.00840003
1.42929e-09
0.00840003
3.29509e-09
0.00840004
8.31596e-09
0.00840006
1.91704e-08
0.00840005
4.82232e-08
0.00840024
1.11639e-07
0.0084001
2.78251e-07
0.00840142
6.53602e-07
0.00840031
1.60438e-06
0.00840827
3.83091e-06
0.00840274
9.30724e-06
0.00844368
2.27915e-05
0.00843913
5.60408e-05
0.00862044
0.000144956
0.0089371
0.000407385
0.00129227
0.0101403
0.00840003
6.10315e-14
0.00840003
3.61784e-13
0.00840003
1.31806e-12
0.00840003
3.5564e-12
0.00840003
9.67548e-12
0.00840003
2.30935e-11
0.00840003
5.9479e-11
0.00840003
1.37417e-10
0.00840003
3.50029e-10
0.00840003
8.04318e-10
0.00840003
2.02608e-09
0.00840004
4.71014e-09
0.00840003
1.16848e-08
0.00840009
2.75489e-08
0.00840005
6.71973e-08
0.00840034
1.6162e-07
0.00840026
3.86397e-07
0.00840151
9.47836e-07
0.00840211
2.22292e-06
0.00840662
5.58666e-06
0.00841474
1.29567e-05
0.00843986
3.3229e-05
0.00849599
8.00317e-05
0.00869686
0.000215802
0.00062775
0.00935004
0.00840003
3.20868e-14
0.00840003
2.20225e-13
0.00840003
7.26312e-13
0.00840003
2.15758e-12
0.00840003
5.35548e-12
0.00840003
1.40007e-11
0.00840003
3.26937e-11
0.00840003
8.33046e-11
0.00840003
1.91457e-10
0.00840003
4.83505e-10
0.00840003
1.11624e-09
0.00840003
2.77994e-09
0.00840004
6.49247e-09
0.00840004
1.59329e-08
0.00840011
3.78378e-08
0.0084001
9.09621e-08
0.00840041
2.2007e-07
0.00840058
5.19109e-07
0.00840168
1.28171e-06
0.00840433
2.96054e-06
0.00840803
7.46316e-06
0.00842766
1.71935e-05
0.00845562
4.41025e-05
0.00857115
0.000107151
0.000295751
0.00889208
0.00840003
1.95582e-14
0.00840003
1.21436e-13
0.00840003
4.30252e-13
0.00840003
1.19199e-12
0.00840003
3.15324e-12
0.00840003
7.73108e-12
0.00840003
1.92524e-11
0.00840003
4.58499e-11
0.00840003
1.12588e-10
0.00840003
2.66315e-10
0.00840003
6.49057e-10
0.00840003
1.54252e-09
0.00840003
3.72697e-09
0.00840005
8.90524e-09
0.00840004
2.13725e-08
0.00840014
5.15052e-08
0.00840012
1.22319e-07
0.00840056
2.96684e-07
0.00840073
7.0119e-07
0.00840238
1.71366e-06
0.0084053
4.02491e-06
0.0084118
9.91611e-06
0.00843286
2.35986e-05
0.00847929
5.91907e-05
0.000150162
0.00861836
0.00840003
1.10179e-14
0.00840003
6.67156e-14
0.00840003
2.4002e-13
0.00840003
6.55065e-13
0.00840003
1.75868e-12
0.00840003
4.23529e-12
0.00840003
1.07163e-11
0.00840003
2.50245e-11
0.00840003
6.23516e-11
0.00840003
1.45017e-10
0.00840003
3.58262e-10
0.00840003
8.35959e-10
0.00840003
2.04467e-09
0.00840004
4.82993e-09
0.00840004
1.16487e-08
0.0084001
2.7808e-08
0.00840006
6.6413e-08
0.0084004
1.6042e-07
0.00840029
3.78258e-07
0.00840195
9.22237e-07
0.00840208
2.165e-06
0.00840932
5.32367e-06
0.00841479
1.25055e-05
0.00845193
3.12572e-05
7.63168e-05
0.00850574
0.00840003
5.62565e-15
0.00840003
3.63139e-14
0.00840003
1.23885e-13
0.00840003
3.54471e-13
0.00840003
9.0796e-13
0.00840003
2.26928e-12
0.00840003
5.5173e-12
0.00840003
1.32511e-11
0.00840003
3.2115e-11
0.00840003
7.53844e-11
0.00840003
1.83776e-10
0.00840003
4.26634e-10
0.00840003
1.04567e-09
0.00840003
2.40954e-09
0.00840004
5.90155e-09
0.00840006
1.36483e-08
0.00840006
3.30721e-08
0.00840024
7.7156e-08
0.00840014
1.84749e-07
0.00840137
4.35268e-07
0.00840069
1.02704e-06
0.00840779
2.45369e-06
0.00840497
5.72354e-06
0.00844188
1.39187e-05
3.29388e-05
0.00844663
0.00840003
2.64643e-15
0.00840003
1.89048e-14
0.00840003
6.00127e-14
0.00840003
1.86611e-13
0.00840003
4.37601e-13
0.00840003
1.18702e-12
0.00840003
2.62258e-12
0.00840003
6.85256e-12
0.00840003
1.50186e-11
0.00840003
3.82278e-11
0.00840003
8.52477e-11
0.00840003
2.09662e-10
0.00840003
4.83744e-10
0.00840003
1.13635e-09
0.00840004
2.73585e-09
0.00840004
6.08906e-09
0.00840006
1.54072e-08
0.00840011
3.25302e-08
0.00840014
8.51248e-08
0.0084006
1.73897e-07
0.00840038
4.62628e-07
0.00840398
9.29143e-07
0.00840124
2.46454e-06
0.008424
4.99722e-06
1.30594e-05
0.00841283
0.00840003
1.52553e-15
0.00840003
8.66435e-15
0.00840003
3.11184e-14
0.00840003
8.25316e-14
0.00840003
2.26999e-13
0.00840003
5.15356e-13
0.00840003
1.35494e-12
0.00840003
2.92367e-12
0.00840003
7.63643e-12
0.00840003
1.60994e-11
0.00840003
4.20221e-11
0.00840003
8.84758e-11
0.00840003
2.26767e-10
0.00840003
4.83957e-10
0.00840003
1.20255e-09
0.00840004
2.66631e-09
0.00840004
6.23961e-09
0.00840004
1.44249e-08
0.00840016
3.18649e-08
0.00839999
7.67308e-08
0.008401
1.60375e-07
0.00839932
3.94605e-07
0.00840623
7.88234e-07
0.00839612
1.98278e-06
3.82438e-06
0.0084294
0.00840003
6.03819e-16
0.00840003
3.9675e-15
0.00840003
1.37533e-14
0.00840003
4.09717e-14
0.00840003
9.74523e-14
0.00840003
2.67919e-13
0.00840003
5.48381e-13
0.00840003
1.55824e-12
0.00840003
2.89626e-12
0.00840003
8.76552e-12
0.00840003
1.50496e-11
0.00840003
4.74884e-11
0.00840003
7.86422e-11
0.00840003
2.52342e-10
0.00840003
4.18985e-10
0.00840003
1.28612e-09
0.00840005
2.29692e-09
0.00839999
6.39126e-09
0.00840019
1.28345e-08
0.00839977
3.02793e-08
0.00840091
7.07896e-08
0.00839857
1.39551e-07
0.00840461
3.80882e-07
0.0083925
6.22546e-07
1.85921e-06
0.0084155
0.00840003
2.91813e-16
0.00840003
1.6276e-15
0.00840003
7.5322e-15
0.00840003
1.62701e-14
0.00840003
5.3428e-14
0.00840003
9.61355e-14
0.00840003
3.29828e-13
0.00840003
4.85732e-13
0.00840003
1.91917e-12
0.00840003
2.38209e-12
0.00840003
1.06843e-11
0.00840003
1.15061e-11
0.00840003
5.67988e-11
0.00840003
6.03607e-11
0.00840003
2.85203e-10
0.00840004
3.54228e-10
0.00840002
1.35668e-09
0.00840005
2.22712e-09
0.0084
5.71458e-09
0.00840002
1.45746e-08
0.00840011
2.27348e-08
0.00839929
8.89054e-08
0.00840137
9.51844e-08
0.0083946
5.17671e-07
4.10385e-07
0.00840489
0.00840003
2.20771e-16
0.00840003
5.40881e-16
0.00840003
4.40552e-15
0.00840003
5.29625e-15
0.00840003
2.94737e-14
0.00840003
3.85639e-14
0.00840003
1.5446e-13
0.00840003
2.60932e-13
0.00840003
7.44959e-13
0.00840003
1.68941e-12
0.00840003
3.35156e-12
0.00840003
1.0827e-11
0.00840003
1.58591e-11
0.00840003
6.63386e-11
0.00840003
6.58014e-11
0.00840002
3.94412e-10
0.00840005
2.12619e-10
0.00839998
2.35183e-09
0.00840014
1.54481e-10
0.00839977
1.33163e-08
0.00840057
2.77007e-10
0.00839866
6.92127e-08
0.00840228
2.40387e-09
0.00839305
3.49887e-07
1.98046e-07
0.00840663
0.00840003
5.62701e-17
0.00840003
6.48949e-16
0.00840003
9.16232e-16
0.00840003
5.34739e-15
0.00840003
8.24419e-15
0.00840003
2.81066e-14
0.00840003
5.33006e-14
0.00840003
1.5435e-13
0.00840003
3.03823e-13
0.00840003
8.13502e-13
0.00840003
1.60116e-12
0.00840003
4.40406e-12
0.00840003
9.855e-12
0.00840003
2.45733e-11
0.00840003
5.43735e-11
0.00840003
1.18508e-10
0.00840004
3.70331e-10
0.00840002
4.52536e-10
0.00840001
2.10144e-09
0.00840004
2.46091e-09
0.00839969
1.18844e-08
0.00840061
1.51278e-08
0.00839704
6.88271e-08
0.00840359
8.91153e-08
3.86688e-07
0.00838712
0.00840003
-5.46167e-17
0.00840003
3.55564e-16
0.00840003
4.9071e-16
0.00840003
2.49765e-15
0.00840003
1.82051e-15
0.00840003
2.13339e-14
0.00840003
-6.23126e-15
0.00840003
1.54044e-13
0.00840003
-1.26088e-13
0.00840003
1.07191e-12
0.00840003
-1.19732e-12
0.00840003
6.647e-12
0.00840003
-7.77071e-12
0.00840003
3.62508e-11
0.00840003
-4.33993e-11
0.00840002
1.78753e-10
0.00840004
-2.12407e-10
0.00840001
7.09281e-10
0.00840003
-1.99927e-11
0.00840001
1.69597e-09
0.00839975
5.98714e-09
0.00840042
-2.42518e-09
0.00839736
6.96671e-08
0.00840292
-5.99167e-08
4.78297e-07
0.00838771
0.00840003
0.00840003
0.00840003
0.00840003
0.00840003
0.00840003
0.00840003
0.00840003
0.00840003
0.00840003
0.00840003
0.00840003
0.00840003
0.00840003
0.00840003
0.00840004
0.00840001
0.00840008
0.0083999
0.00840033
0.00839924
0.00840173
0.00839567
0.00840732
0.00838181
0.00448844
0.00418857
0.00249497
0.00199207
0.00135053
0.00114297
-0.000325462
0.00167304
-0.00111154
0.000782989
-0.0016923
0.000575321
-0.0020741
0.000375954
-0.00223632
0.000155906
-0.0022802
3.7595e-05
-0.00238076
9.45103e-05
-0.00251772
0.000130803
-0.00264894
0.000125229
-0.00274623
9.1623e-05
-0.00281901
6.76814e-05
-0.00289424
7.07838e-05
-0.00297139
7.35561e-05
-0.0030464
7.18839e-05
-0.00311491
6.6084e-05
-0.00317393
5.68391e-05
-0.00322014
4.45397e-05
-0.00325267
3.169e-05
-0.00327827
2.50997e-05
-0.00331675
3.81906e-05
-0.00335772
4.04364e-05
-0.003391
3.26836e-05
-0.00341401
2.14983e-05
-0.00341931
2.53396e-06
-0.00339437
-2.88232e-05
-0.00332584
-7.40244e-05
-0.00320998
-0.000121769
-0.00305337
-0.000163682
-0.00286231
-0.000198266
-0.00264535
-0.000224898
-0.00240439
-0.000249071
-0.00215374
-0.000259153
-0.00189781
-0.000264755
-0.00164147
-0.00026559
-0.00138275
-0.000268242
-0.00111832
-0.000274287
-0.000856193
-0.000272865
-0.000598396
-0.000269043
-0.000341444
-0.000268977
-7.56693e-05
-0.000278607
0.000174255
-0.000263355
0.000405623
-0.000245561
0.000626871
-0.000236366
0.00083829
-0.000227421
0.00104016
-0.000218834
0.00123336
-0.00021087
0.00141747
-0.000202665
0.00159303
-0.000194592
0.00176024
-0.000186959
0.00191941
-0.000179496
0.00207165
-0.000172611
0.00221721
-0.000165965
0.00235619
-0.000159433
0.00248823
-0.000152471
0.00261382
-0.000145739
0.00273393
-0.000139797
0.00285034
-0.000134945
0.00296215
-0.000129261
0.00306997
-0.000123915
0.00317393
-0.000118912
0.0032749
-0.000114154
0.00337269
-0.000109664
0.00346792
-0.000105207
0.00356037
-0.000101056