/*--------------------------------*- C++ -*----------------------------------*\
  =========                 |
  \\      /  F ield         | OpenFOAM: The Open Source CFD Toolbox
   \\    /   O peration     | Website:  https://openfoam.org
    \\  /    A nd           | Version:  9
     \\/     M anipulation  |
\*---------------------------------------------------------------------------*/
FoamFile
{
    format      ascii;
    class       volScalarField;
    location    "6";
    object      rho;
}
// * * * * * * * * * * * * * * * * * * * * * * * * * * * * * * * * * * * * * //

dimensions      [1 -3 0 0 0 0 0];

internalField   nonuniform List<scalar> 
5250
(
1.40001
1.40002
1.40007
1.40015
1.40043
1.40092
1.40263
1.40555
1.41572
1.43404
1.48754
1.59244
1.82976
2.3548
4.49782
5.86702
5.73878
5.64967
5.6687
5.74929
5.83616
5.88842
5.92869
5.9603
5.98709
1.40001
1.40002
1.40007
1.40015
1.40041
1.40096
1.40243
1.40593
1.41448
1.4354
1.4839
1.59228
1.8225
2.34126
4.44718
5.87285
5.73958
5.64676
5.66634
5.74764
5.83457
5.88706
5.92814
5.96051
5.98818
1.40001
1.40002
1.40007
1.40014
1.40042
1.40086
1.40253
1.40527
1.41505
1.43242
1.48402
1.58413
1.81342
2.30985
4.33442
5.8865
5.74097
5.63776
5.65711
5.73758
5.82418
5.87581
5.91668
5.94879
5.97657
1.40001
1.40002
1.40006
1.40014
1.40039
1.40083
1.4024
1.40503
1.41432
1.43089
1.48007
1.5762
1.79603
2.26515
4.15745
5.91008
5.74514
5.62337
5.64074
5.71925
5.80269
5.85279
5.89354
5.92534
5.95329
1.40001
1.40002
1.40005
1.40015
1.40032
1.40089
1.40196
1.4053
1.41206
1.43127
1.47137
1.56972
1.76966
2.20975
3.91653
5.94148
5.75238
5.60501
5.61982
5.69356
5.77667
5.82339
5.86043
5.89097
5.92085
1.40001
1.40002
1.40005
1.40012
1.40033
1.40072
1.402
1.40446
1.41189
1.42707
1.46817
1.5532
1.74525
2.14282
3.61884
5.97543
5.76669
5.58633
5.59552
5.66128
5.73862
5.78309
5.81582
5.84427
5.87514
1.40001
1.40002
1.40004
1.40012
1.40027
1.40071
1.4017
1.40418
1.41044
1.42481
1.46083
1.54003
1.71355
2.07532
3.27475
5.98533
5.77976
5.56774
5.56838
5.62062
5.69207
5.72762
5.75461
5.77592
5.80811
1.40001
1.40002
1.40004
1.4001
1.40026
1.40063
1.40151
1.40388
1.40901
1.42312
1.45353
1.52782
1.68414
2.01235
2.99165
5.89333
5.75257
5.54143
5.53528
5.56793
5.63171
5.6575
5.6712
5.68057
5.70772
1.40001
1.40002
1.40004
1.4001
1.40022
1.40058
1.40137
1.40339
1.40844
1.42012
1.44952
1.51496
1.65982
1.95869
2.78948
5.64015
5.63422
5.51316
5.48928
5.50081
5.5492
5.56137
5.55689
5.54114
5.54579
1.40001
1.40001
1.40004
1.40008
1.40022
1.40047
1.40131
1.40289
1.40778
1.41761
1.44525
1.50231
1.63734
1.90918
2.61082
5.26802
5.53958
5.47664
5.42514
5.42687
5.44875
5.44057
5.41004
5.34022
5.28164
1.40001
1.40001
1.40003
1.40007
1.4002
1.40041
1.40116
1.40254
1.40686
1.41554
1.44009
1.4909
1.61259
1.8584
2.4478
4.81923
5.48701
5.44277
5.35557
5.34209
5.33285
5.30084
5.21067
4.99372
4.36646
1.40001
1.40001
1.40003
1.40007
1.40015
1.4004
1.40089
1.40246
1.40533
1.41471
1.43239
1.48243
1.58262
1.80728
2.29384
4.28962
5.45946
5.41488
5.29561
5.25255
5.22108
5.15255
5.00315
4.69488
4.02275
1.40001
1.40001
1.40002
1.40006
1.40012
1.40035
1.40074
1.40205
1.40455
1.41214
1.42756
1.46936
1.55539
1.74969
2.14957
3.69533
5.46134
5.40565
5.25611
5.16781
5.11206
5.01325
4.82126
4.49624
3.96714
1.40001
1.40001
1.40002
1.40005
1.4001
1.40028
1.4006
1.4017
1.40357
1.41012
1.42167
1.45755
1.52591
1.6913
2.01532
3.0202
5.42597
5.38779
5.24256
5.10233
5.01175
4.88995
4.69037
4.38707
3.97328
1.40001
1.40001
1.40002
1.40004
1.40009
1.4002
1.40056
1.40119
1.4034
1.40709
1.42
1.44314
1.50878
1.63762
1.91913
2.6314
5.14368
5.29225
5.20967
5.04298
4.93018
4.79344
4.59782
4.32341
3.98033
1.40001
1.40001
1.40001
1.40003
1.40007
1.40018
1.40041
1.40107
1.40249
1.40629
1.41514
1.43693
1.48706
1.59944
1.83439
2.37185
4.50643
5.1734
5.13153
4.99492
4.85579
4.71518
4.52833
4.28063
3.98227
1.40001
1.40001
1.40001
1.40002
1.40006
1.40013
1.40036
1.40078
1.40212
1.40473
1.41253
1.42851
1.47133
1.55973
1.75781
2.16545
3.77758
5.11655
5.08717
4.97492
4.80106
4.64751
4.47022
4.24548
3.98094
1.40001
1.40001
1.40001
1.40002
1.40004
1.40012
1.40025
1.40066
1.4015
1.40384
1.40914
1.42252
1.45368
1.52564
1.68007
1.99277
2.96493
5.02078
5.05781
4.97585
4.78748
4.60374
4.42662
4.21987
3.98151
1.40001
1.40001
1.40001
1.40002
1.40004
1.40008
1.4002
1.4005
1.40113
1.40302
1.40664
1.41785
1.43971
1.49837
1.61746
1.87036
2.48083
4.66202
5.00096
4.93902
4.77612
4.57572
4.39329
4.20069
3.983
1.40001
1.40001
1.40001
1.40001
1.40003
1.40006
1.40016
1.40034
1.40096
1.402
1.40565
1.41207
1.43274
1.47169
1.57317
1.77056
2.20487
3.9001
4.9008
4.87333
4.77045
4.55886
4.37424
4.18846
3.98847
1.40001
1.40001
1.40001
1.40001
1.40002
1.40005
1.40011
1.40029
1.4006
1.40171
1.40359
1.41008
1.42157
1.45707
1.52434
1.68698
1.99165
3.02457
4.76682
4.83209
4.76231
4.58558
4.37228
4.18682
3.99676
1.40001
1.40001
1.40001
1.40001
1.40002
1.40004
1.40008
1.40019
1.40049
1.40108
1.40295
1.40635
1.4173
1.43797
1.4947
1.60829
1.84634
2.41078
4.37412
4.79133
4.74207
4.60767
4.39266
4.19373
4.01239
1.40001
1.40001
1.40001
1.40001
1.40001
1.40003
1.40006
1.40015
1.40031
1.40088
1.40182
1.40518
1.41089
1.43001
1.46461
1.55826
1.73679
2.11672
3.57278
4.70988
4.69173
4.61388
4.42812
4.21849
4.0315
1.40001
1.40001
1.40001
1.40001
1.40001
1.40002
1.40004
1.4001
1.40023
1.40059
1.40128
1.40354
1.40744
1.42063
1.44415
1.51082
1.63861
1.89449
2.5821
4.50245
4.69168
4.62867
4.47382
4.2521
4.05752
1.40001
1.40001
1.40001
1.40001
1.40001
1.40002
1.40003
1.40007
1.40015
1.40042
1.40088
1.40245
1.40521
1.41426
1.43105
1.47903
1.57221
1.78051
2.21137
3.88082
4.62206
4.59923
4.50687
4.29924
4.09237
1.40001
1.40001
1.40001
1.40001
1.40001
1.40001
1.40002
1.40005
1.40011
1.40028
1.4006
1.40167
1.40352
1.40981
1.42089
1.45519
1.51962
1.67565
1.95608
2.9259
4.43184
4.56171
4.51162
4.36572
4.13716
1.40001
1.40001
1.40001
1.40001
1.40001
1.40001
1.40002
1.40003
1.40008
1.40017
1.40045
1.401
1.40259
1.40596
1.41502
1.43494
1.48402
1.5876
1.7959
2.27247
3.94171
4.50708
4.48236
4.39684
4.1988
1.40001
1.40001
1.40001
1.40001
1.40001
1.40001
1.40001
1.40002
1.40005
1.40012
1.4003
1.40064
1.40178
1.40375
1.41041
1.42212
1.45823
1.5257
1.68698
1.97682
3.02806
4.33259
4.44773
4.40352
4.27682
1.40001
1.40001
1.40001
1.40001
1.40001
1.40001
1.40001
1.40002
1.40003
1.40008
1.40018
1.40044
1.40109
1.40252
1.40646
1.41462
1.437
1.48329
1.5921
1.79246
2.2764
3.8934
4.40191
4.38065
4.30706
1.40001
1.40001
1.40001
1.40001
1.40001
1.40001
1.40001
1.40001
1.40002
1.40005
1.40012
1.4003
1.40065
1.40177
1.40372
1.41032
1.42184
1.45749
1.52366
1.68117
1.96151
2.97146
4.22003
4.35747
4.31775
1.40001
1.40001
1.40001
1.40001
1.40001
1.40001
1.40001
1.40001
1.40002
1.40003
1.40008
1.40019
1.40041
1.40109
1.40234
1.40644
1.41358
1.43642
1.47846
1.58571
1.77314
2.23037
3.75775
4.30204
4.29046
1.40001
1.40001
1.40001
1.40001
1.40001
1.40001
1.40001
1.40001
1.40001
1.40002
1.40005
1.40011
1.40028
1.40064
1.40153
1.40381
1.40875
1.42214
1.4501
1.51905
1.6566
1.91761
2.79027
4.08425
4.27208
1.40001
1.40001
1.40001
1.40001
1.40001
1.40001
1.40001
1.40001
1.40001
1.40002
1.40003
1.40007
1.40018
1.40037
1.40101
1.40211
1.40586
1.41227
1.43316
1.47083
1.5697
1.74241
2.14451
3.53436
4.19227
1.40001
1.40001
1.40001
1.40001
1.40001
1.40001
1.40001
1.40001
1.40001
1.40001
1.40002
1.40005
1.4001
1.40023
1.40059
1.4013
1.40346
1.40736
1.41986
1.44246
1.50548
1.62249
1.84727
2.49894
3.92105
1.40001
1.40001
1.40001
1.40001
1.40001
1.40001
1.40001
1.40001
1.40001
1.40001
1.40001
1.40003
1.40006
1.40015
1.40032
1.40086
1.40187
1.40483
1.41104
1.42728
1.46273
1.54504
1.70338
2.03578
3.22681
1.40001
1.40001
1.40001
1.40001
1.40001
1.40001
1.40001
1.40001
1.40001
1.40001
1.40001
1.40002
1.40004
1.40008
1.40022
1.40044
1.40122
1.40254
1.40698
1.41472
1.43896
1.48322
1.5942
1.77505
2.25576
1.40001
1.40001
1.40001
1.40001
1.40001
1.40001
1.40001
1.40001
1.40001
1.40001
1.40001
1.40001
1.40002
1.40006
1.40011
1.4003
1.40064
1.40166
1.40372
1.40941
1.42161
1.45241
1.51767
1.65646
1.91393
1.40001
1.40001
1.40001
1.40001
1.40001
1.40001
1.40001
1.40001
1.40001
1.40001
1.40001
1.40001
1.40002
1.40003
1.40007
1.40017
1.40038
1.40096
1.40209
1.40561
1.41185
1.43152
1.46756
1.56014
1.71736
1.40001
1.40001
1.40001
1.40001
1.40001
1.40001
1.40001
1.40001
1.40001
1.40001
1.40001
1.40001
1.40001
1.40002
1.40004
1.40009
1.40023
1.40049
1.40132
1.40275
1.40757
1.41563
1.44176
1.48756
1.60217
1.40001
1.40001
1.40001
1.40001
1.40001
1.40001
1.40001
1.40001
1.40001
1.40001
1.40001
1.40001
1.40001
1.40001
1.40003
1.40006
1.40013
1.40031
1.40068
1.40179
1.40379
1.41029
1.42159
1.45627
1.51922
1.40001
1.40001
1.40001
1.40001
1.40001
1.40001
1.40001
1.40001
1.40001
1.40001
1.40001
1.40001
1.40001
1.40001
1.40002
1.40003
1.40008
1.40017
1.4004
1.401
1.40224
1.40579
1.41258
1.43253
1.47067
1.40001
1.40001
1.40001
1.40001
1.40001
1.40001
1.40001
1.40001
1.40001
1.40001
1.40001
1.40001
1.40001
1.40001
1.40001
1.40002
1.40005
1.4001
1.40026
1.40056
1.40144
1.40327
1.40802
1.41888
1.4445
1.40001
1.40001
1.40001
1.40001
1.40001
1.40001
1.40001
1.40001
1.40001
1.40001
1.40001
1.40001
1.40001
1.40001
1.40001
1.40002
1.40004
1.40007
1.40018
1.40038
1.40104
1.40219
1.40599
1.41292
1.43386
1.40001
1.40001
1.40001
1.40001
1.40001
1.40001
1.40001
1.40001
1.40001
1.40001
1.40001
1.40001
1.40001
1.40001
1.40001
1.40001
1.40003
1.40006
1.40013
1.40036
1.40075
1.40208
1.40452
1.41219
1.42718
1.40001
1.40001
1.40001
1.40001
1.40001
1.40001
1.40001
1.40001
1.40001
1.40001
1.40001
1.40001
1.40001
1.40001
1.40001
1.40001
1.40002
1.40006
1.40012
1.40031
1.40073
1.40184
1.40451
1.41102
1.42718
1.40001
1.40001
1.40001
1.40001
1.40001
1.40001
1.40001
1.40001
1.40001
1.40001
1.40001
1.40001
1.40001
1.40001
1.40001
1.40001
1.40002
1.40006
1.40012
1.40032
1.40067
1.40192
1.40405
1.4116
1.42511
1.40001
1.40001
1.40001
1.40001
1.40001
1.40001
1.40001
1.40001
1.40001
1.40001
1.40001
1.40001
1.40001
1.40001
1.40001
1.40001
1.40002
1.40005
1.40012
1.40029
1.40074
1.40169
1.40456
1.41024
1.42741
1.40001
1.40001
1.40001
1.40001
1.40001
1.40001
1.40001
1.40001
1.40001
1.40001
1.40001
1.40001
1.40001
1.40001
1.40001
1.40001
1.40002
1.40005
1.40013
1.40027
1.40077
1.4016
1.40467
1.40989
1.42771
1.40001
1.40001
1.40001
1.40001
1.40001
1.40001
1.40001
1.40001
1.40001
1.40001
1.40001
1.40001
1.40001
1.40001
1.40001
1.40001
1.40002
1.40005
1.40013
1.40026
1.40077
1.40158
1.40466
1.40978
1.42761
1.40001
1.40001
1.40001
1.40001
1.40001
1.40001
1.40001
1.40001
1.40001
1.40001
1.40001
1.40001
1.40001
1.40001
1.40001
1.40001
1.40002
1.40005
1.40012
1.40027
1.40072
1.4017
1.40432
1.41053
1.42602
2.06182
1.41525
1.42371
1.91871
1.79478
1.71156
1.68283
1.66864
1.66092
1.63895
1.6102
1.58521
1.56487
1.54706
1.52494
1.50253
1.4791
1.45937
1.44112
1.42616
1.40771
1.38852
1.37874
1.37599
1.3761
1.38308
1.40717
1.4456
1.49884
1.56018
1.62553
1.69172
1.75557
1.81724
1.87341
1.92533
1.97041
2.01314
2.05027
2.08568
2.11685
2.14521
2.17039
2.19313
2.21496
2.23237
2.24747
2.26034
2.27194
2.2812
2.28955
2.29679
2.3025
2.30742
2.31181
2.31513
2.3176
2.31959
2.32095
2.32089
2.32024
2.31837
2.31615
2.31201
2.30806
2.30145
2.29572
2.28676
2.27894
2.26825
2.25799
2.24587
2.23371
2.2199
2.20632
2.19133
2.17625
2.16029
2.14429
2.1275
2.1106
2.09317
2.07577
2.05784
2.03991
2.02161
2.00346
1.98501
1.96674
1.94828
1.93019
1.91202
1.89442
1.87691
1.86022
1.84403
1.82915
1.81554
1.80426
1.79705
2.552
1.97476
1.88159
1.97807
1.87816
1.7258
1.65302
1.62994
1.62452
1.60383
1.56387
1.53233
1.50976
1.49313
1.47357
1.45008
1.42735
1.40686
1.38703
1.37282
1.35536
1.33932
1.32809
1.32388
1.32322
1.32954
1.34983
1.38723
1.44003
1.50409
1.57302
1.64311
1.71236
1.77875
1.84088
1.89859
1.95254
2.00101
2.04898
2.09232
2.13252
2.16656
2.19898
2.22768
2.25354
2.27571
2.29466
2.31179
2.32663
2.33898
2.3507
2.36038
2.36871
2.3754
2.382
2.387
2.39179
2.39519
2.39908
2.40029
2.4017
2.40076
2.40033
2.39759
2.39466
2.3899
2.38455
2.37753
2.36992
2.36067
2.35093
2.33967
2.32798
2.31493
2.30163
2.28704
2.27238
2.25656
2.24077
2.22393
2.20729
2.18963
2.17229
2.15396
2.13608
2.11728
2.099
2.07991
2.06144
2.04231
2.02393
2.00504
1.98703
1.96877
1.95162
1.93469
1.91935
1.90516
1.89329
1.88547
3.07325
2.48398
2.21176
2.1078
2.0305
1.91011
1.79404
1.72225
1.65233
1.6071
1.55083
1.50185
1.47123
1.46202
1.44248
1.41694
1.39153
1.3651
1.34582
1.3304
1.31388
1.29922
1.28661
1.27862
1.27565
1.27888
1.29525
1.33075
1.38459
1.45343
1.52904
1.60732
1.68321
1.76121
1.83483
1.90321
1.96645
2.02314
2.07711
2.12549
2.16929
2.20872
2.24552
2.27765
2.30856
2.33414
2.35801
2.37758
2.39617
2.4112
2.42512
2.43606
2.44714
2.45498
2.46268
2.4676
2.47303
2.47639
2.48052
2.482
2.48275
2.48159
2.48038
2.47709
2.4736
2.46795
2.462
2.45408
2.44579
2.43569
2.42522
2.41315
2.40073
2.38694
2.37279
2.35761
2.34203
2.32567
2.30893
2.29165
2.27398
2.25592
2.23749
2.21885
2.19981
2.18073
2.16126
2.1419
2.12227
2.10285
2.08329
2.06407
2.04493
2.02628
2.0081
1.99084
1.97447
1.95978
1.94684
1.9385
3.35062
2.81045
2.46487
2.28788
2.18098
2.06952
1.95329
1.8748
1.79469
1.70985
1.63255
1.56236
1.5092
1.47578
1.44647
1.41451
1.37834
1.34791
1.325
1.30904
1.29336
1.27696
1.26209
1.24929
1.24258
1.24441
1.26317
1.29806
1.35686
1.43141
1.51618
1.602
1.68674
1.76854
1.84665
1.9162
1.98318
2.04267
2.10165
2.15339
2.2035
2.24746
2.28959
2.3267
2.36243
2.3926
2.42139
2.44547
2.46831
2.48707
2.50554
2.52012
2.53407
2.54547
2.55627
2.5645
2.57154
2.57721
2.58254
2.5863
2.58826
2.58813
2.58696
2.58432
2.58034
2.5749
2.56798
2.5598
2.55017
2.53951
2.52746
2.51459
2.50048
2.48569
2.46984
2.45347
2.43623
2.41856
2.40024
2.38153
2.36239
2.34287
2.32312
2.30292
2.28273
2.26202
2.24161
2.22054
2.20012
2.17899
2.15867
2.13781
2.11808
2.09794
2.07903
2.06009
2.04281
2.02637
2.01231
2.00223
3.50319
3.03916
2.68789
2.45999
2.32414
2.21882
2.10826
2.01648
1.93601
1.85718
1.7716
1.69673
1.6267
1.5644
1.50435
1.45642
1.41441
1.37824
1.34904
1.32606
1.30453
1.28416
1.26713
1.25364
1.24877
1.25241
1.27063
1.31021
1.37194
1.44811
1.53076
1.61859
1.70702
1.79363
1.87574
1.95269
2.02487
2.09176
2.15475
2.21178
2.26533
2.3124
2.35687
2.39552
2.43219
2.46346
2.49289
2.51728
2.54062
2.5597
2.5777
2.5927
2.60691
2.61818
2.62897
2.63769
2.64557
2.65149
2.6572
2.66156
2.66494
2.66561
2.66531
2.66314
2.66008
2.65492
2.64885
2.64063
2.63165
2.62057
2.60892
2.5953
2.58133
2.56554
2.54965
2.53205
2.5146
2.49555
2.47687
2.45671
2.43705
2.41601
2.39558
2.37387
2.35285
2.33074
2.30941
2.28708
2.26575
2.24377
2.22277
2.20113
2.18043
2.15942
2.13951
2.11967
2.10131
2.08381
2.06852
2.05726
3.6004
3.20635
2.87577
2.63376
2.47187
2.35339
2.24602
2.15101
2.06598
1.98632
1.90786
1.83004
1.76163
1.69476
1.63329
1.56951
1.51098
1.45905
1.41447
1.37656
1.34589
1.321
1.30256
1.29028
1.2882
1.29289
1.31387
1.35907
1.42202
1.49552
1.57963
1.66484
1.75707
1.84903
1.93928
2.02323
2.10222
2.17305
2.23901
2.29795
2.35275
2.40075
2.44536
2.48371
2.51986
2.55027
2.57903
2.60276
2.62522
2.64353
2.66115
2.67488
2.68833
2.69868
2.70863
2.71552
2.72235
2.7268
2.7316
2.73416
2.73667
2.73606
2.73498
2.73165
2.72784
2.72186
2.71523
2.7065
2.69707
2.68569
2.67366
2.65984
2.64551
2.62957
2.61325
2.5955
2.57753
2.5583
2.53901
2.51857
2.49828
2.47682
2.45575
2.43354
2.41191
2.38925
2.36746
2.34489
2.32307
2.30037
2.27864
2.25614
2.23463
2.21267
2.19182
2.17098
2.15157
2.13296
2.11644
2.10386
3.66309
3.32844
3.02573
2.78356
2.60442
2.4719
2.36278
2.26727
2.18223
2.10293
2.02776
1.95318
1.88346
1.81767
1.75463
1.69417
1.63445
1.57886
1.52766
1.48301
1.4442
1.41248
1.38866
1.37848
1.37452
1.38595
1.42067
1.47051
1.52833
1.59375
1.66791
1.74617
1.82404
1.91043
2.00112
2.09056
2.17369
2.24705
2.31357
2.37185
2.42509
2.47169
2.51464
2.55179
2.58622
2.6157
2.64288
2.6656
2.68704
2.70455
2.72126
2.73511
2.74809
2.75835
2.7682
2.77575
2.78222
2.78665
2.79137
2.79445
2.79684
2.79629
2.79495
2.79137
2.78735
2.7811
2.77439
2.76538
2.75593
2.74421
2.73215
2.71789
2.7035
2.68699
2.67057
2.65214
2.63403
2.61406
2.59453
2.57329
2.55253
2.53022
2.50842
2.48544
2.46322
2.44005
2.41766
2.39441
2.37196
2.34875
2.32635
2.30344
2.2813
2.25896
2.23743
2.21612
2.19586
2.17663
2.15908
2.1456
3.70857
3.41897
3.14464
2.91028
2.72287
2.57965
2.46395
2.36685
2.28159
2.20365
2.13014
2.05968
1.99098
1.92749
1.86572
1.80744
1.74973
1.69507
1.64488
1.59957
1.5635
1.53445
1.5163
1.50543
1.50839
1.54147
1.59294
1.64005
1.68515
1.73416
1.78559
1.8429
1.89921
1.95349
2.02796
2.11664
2.20333
2.28272
2.35375
2.41473
2.46872
2.51605
2.55863
2.5961
2.63084
2.66082
2.68874
2.71202
2.73374
2.75155
2.76836
2.78161
2.79453
2.80432
2.81362
2.82029
2.82662
2.83027
2.83456
2.83718
2.83975
2.83918
2.83803
2.83443
2.8304
2.82406
2.81722
2.80815
2.79856
2.7869
2.77479
2.76076
2.74637
2.73021
2.71376
2.69573
2.67748
2.6579
2.63812
2.61721
2.59611
2.57404
2.55208
2.52938
2.50689
2.48367
2.46076
2.43719
2.41404
2.3904
2.3672
2.3437
2.32071
2.29763
2.27523
2.25301
2.23186
2.21149
2.19296
2.17803
3.74126
3.48736
3.23869
3.01698
2.82848
2.67762
2.5555
2.45414
2.36686
2.2899
2.21704
2.14993
2.08413
2.02197
1.96367
1.90558
1.85298
1.79869
1.75331
1.71094
1.68335
1.66215
1.6476
1.64766
1.67432
1.7447
1.80247
1.83827
1.86545
1.89443
1.9127
1.93909
1.96621
2.00227
2.04708
2.10908
2.18919
2.27504
2.35698
2.43004
2.49246
2.54567
2.5911
2.63066
2.66568
2.69667
2.72494
2.74946
2.772
2.79082
2.80799
2.82188
2.83445
2.84391
2.85278
2.85882
2.86395
2.86648
2.86962
2.87103
2.87247
2.87076
2.86883
2.86455
2.86012
2.85346
2.84653
2.8375
2.82806
2.81669
2.80485
2.79116
2.77703
2.76108
2.74484
2.7268
2.70868
2.68881
2.66907
2.64766
2.62662
2.60428
2.58249
2.55944
2.53704
2.51351
2.49066
2.46688
2.44377
2.41999
2.39685
2.37327
2.35033
2.32713
2.30471
2.28224
2.26086
2.24001
2.22093
2.20518
3.76977
3.54159
3.31507
3.10583
2.92248
2.76728
2.64005
2.5334
2.44344
2.36428
2.29277
2.22571
2.1641
2.10197
2.04755
1.99075
1.94143
1.89154
1.84948
1.81869
1.79847
1.78435
1.78103
1.80348
1.88469
1.98203
2.0316
2.05023
2.06791
2.07129
2.04931
2.03652
2.04617
2.06766
2.0957
2.13689
2.18762
2.25377
2.3365
2.4182
2.49266
2.55721
2.60998
2.6543
2.69102
2.72279
2.75093
2.77508
2.79697
2.8164
2.83322
2.84755
2.86029
2.87025
2.87945
2.88549
2.89105
2.8933
2.89628
2.89718
2.89794
2.89552
2.89258
2.88765
2.8823
2.87517
2.86765
2.85837
2.84879
2.83735
2.82574
2.81217
2.79856
2.78302
2.76745
2.7501
2.73265
2.71358
2.69427
2.6736
2.65282
2.63098
2.60913
2.58637
2.56372
2.54036
2.51718
2.49345
2.46996
2.44609
2.42254
2.39878
2.37543
2.35203
2.3292
2.30652
2.2847
2.26355
2.24392
2.22761
3.7947
3.58699
3.37831
3.18176
3.00331
2.84905
2.71728
2.60695
2.51275
2.43159
2.35922
2.29303
2.23138
2.17287
2.11894
2.06598
2.0178
1.97367
1.9388
1.92116
1.90614
1.90327
1.92131
1.98739
2.13761
2.24119
2.26412
2.27604
2.27674
2.24066
2.18999
2.15185
2.13359
2.13523
2.14958
2.17038
2.2025
2.24128
2.29089
2.36075
2.43989
2.51522
2.58306
2.63906
2.68568
2.72301
2.7544
2.78059
2.80373
2.82391
2.84141
2.85722
2.87074
2.88177
2.89139
2.89803
2.9038
2.90606
2.90897
2.90998
2.91073
2.9082
2.9051
2.89998
2.8946
2.88739
2.88003
2.87085
2.8616
2.85047
2.83928
2.82616
2.81294
2.79789
2.78271
2.76584
2.74879
2.73014
2.7113
2.6911
2.67086
2.64936
2.62797
2.60539
2.58309
2.55973
2.53681
2.51305
2.4898
2.46593
2.44258
2.41879
2.39553
2.37195
2.34905
2.32602
2.30397
2.2823
2.26227
2.24517
3.81993
3.62594
3.43271
3.24673
3.0754
2.92184
2.78943
2.67446
2.57746
2.49263
2.41889
2.35219
2.29109
2.23407
2.18073
2.13126
2.08684
2.04725
2.02955
2.01603
2.01138
2.02635
2.07979
2.23424
2.41411
2.49097
2.49936
2.49922
2.46966
2.39661
2.32774
2.27512
2.23886
2.21818
2.21222
2.22278
2.23707
2.26077
2.2887
2.32934
2.38292
2.45548
2.52957
2.60021
2.66114
2.71155
2.75152
2.78397
2.81002
2.8324
2.85125
2.86795
2.8816
2.89353
2.90308
2.9101
2.91568
2.91713
2.91932
2.91962
2.91995
2.91666
2.9131
2.90731
2.90152
2.89376
2.88612
2.87662
2.86733
2.85617
2.84517
2.83229
2.81948
2.80492
2.79031
2.77409
2.7577
2.73968
2.72153
2.70187
2.6822
2.66109
2.64017
2.61796
2.59605
2.57309
2.55044
2.52702
2.50392
2.48032
2.45707
2.43351
2.41039
2.38712
2.36438
2.34163
2.31966
2.2981
2.27795
2.26061
3.84972
3.66443
3.4815
3.3049
3.1399
2.98905
2.85582
2.73936
2.63776
2.55094
2.47355
2.40619
2.34432
2.28818
2.2364
2.18942
2.14842
2.12482
2.1134
2.10868
2.12115
2.16811
2.29107
2.5389
2.69481
2.71605
2.71799
2.69978
2.6312
2.54157
2.46297
2.40094
2.35236
2.31725
2.29382
2.28055
2.28172
2.29073
2.30435
2.32666
2.35427
2.39404
2.45416
2.52467
2.59663
2.66115
2.71672
2.7605
2.79584
2.8228
2.84547
2.86314
2.87901
2.89126
2.9019
2.90997
2.91652
2.91861
2.92108
2.92174
2.9225
2.91984
2.9164
2.91059
2.90479
2.89686
2.88915
2.87949
2.87018
2.85901
2.84808
2.8354
2.82287
2.80879
2.79476
2.77921
2.76357
2.74637
2.72913
2.7103
2.69146
2.6711
2.65079
2.62922
2.60776
2.58532
2.56306
2.54008
2.5173
2.49402
2.47094
2.44753
2.42439
2.40104
2.37818
2.35521
2.33312
2.31127
2.29096
2.27314
3.87654
3.70124
3.52712
3.35812
3.19906
3.05174
2.91817
2.80089
2.69676
2.60599
2.52706
2.45606
2.39444
2.33721
2.28778
2.24325
2.21223
2.20281
2.19785
2.2079
2.24752
2.34701
2.60578
2.8418
2.92276
2.92487
2.91169
2.86243
2.76614
2.67313
2.59235
2.52571
2.46928
2.42403
2.38689
2.3589
2.34091
2.32913
2.33509
2.34341
2.35628
2.37734
2.40709
2.45398
2.5175
2.58704
2.65438
2.71463
2.7636
2.80328
2.83262
2.85613
2.87362
2.88829
2.89934
2.90826
2.91539
2.91864
2.92096
2.9216
2.92256
2.92023
2.91685
2.91055
2.9045
2.8961
2.88819
2.87824
2.86883
2.85757
2.84673
2.83424
2.82204
2.80835
2.79476
2.77975
2.76461
2.74811
2.73147
2.71348
2.69534
2.67588
2.65631
2.63552
2.61476
2.59292
2.57122
2.54865
2.52633
2.50335
2.48076
2.45763
2.43503
2.41197
2.38957
2.36687
2.345
2.32337
2.30308
2.28527
3.91033
3.73808
3.57264
3.40974
3.25541
3.11113
2.97917
2.85923
2.75493
2.66027
2.57906
2.50601
2.44202
2.3856
2.33731
2.29679
2.28737
2.28229
2.28954
2.32416
2.41334
2.63517
2.94539
3.10049
3.10527
3.09966
3.07083
2.98636
2.88628
2.79494
2.71588
2.64673
2.58567
2.53261
2.48585
2.44713
2.41494
2.39033
2.37471
2.36825
2.37442
2.3825
2.39607
2.41851
2.45106
2.50504
2.56932
2.6364
2.70069
2.75515
2.79969
2.83319
2.85854
2.87686
2.8909
2.901
2.90889
2.91357
2.91596
2.91692
2.91837
2.91719
2.9143
2.90824
2.90225
2.89393
2.88597
2.876
2.86649
2.85523
2.84442
2.83207
2.82011
2.80675
2.79366
2.77914
2.76473
2.74883
2.73303
2.71574
2.69846
2.67977
2.66105
2.6411
2.62117
2.60018
2.57927
2.55744
2.53576
2.51332
2.49114
2.46835
2.446
2.42315
2.40092
2.37835
2.35664
2.33499
2.3148
2.29667
3.94818
3.77768
3.61587
3.45969
3.30908
3.16733
3.03731
2.91711
2.81002
2.71501
2.62947
2.55601
2.4897
2.43504
2.38764
2.36845
2.36321
2.3691
2.39908
2.47933
2.66839
3.00968
3.22226
3.27102
3.26823
3.24644
3.18284
3.08727
2.99386
2.90916
2.83292
2.76283
2.69895
2.64011
2.58691
2.53931
2.49743
2.46264
2.43416
2.41387
2.40009
2.40038
2.40599
2.41424
2.42941
2.4546
2.4935
2.55154
2.6159
2.68112
2.74004
2.78942
2.82779
2.85614
2.87656
2.89074
2.90063
2.90697
2.91041
2.9115
2.91325
2.91247
2.91078
2.90492
2.89914
2.89069
2.88264
2.87236
2.86264
2.85109
2.84016
2.82769
2.81579
2.80254
2.78979
2.77571
2.76194
2.74682
2.73185
2.71548
2.69913
2.68131
2.66349
2.64427
2.62513
2.60479
2.58463
2.56345
2.54254
2.52072
2.49932
2.47709
2.45543
2.43305
2.41134
2.38917
2.36778
2.34646
2.32646
2.30845
3.99709
3.82203
3.66239
3.50931
3.36405
3.22476
3.09496
2.97653
2.86656
2.76974
2.68232
2.60577
2.54034
2.48564
2.45399
2.4484
2.45065
2.47703
2.54689
2.70764
3.06166
3.32922
3.41432
3.414
3.39917
3.3557
3.26698
3.17719
3.09369
3.0162
2.94278
2.87337
2.80743
2.74512
2.68744
2.63368
2.58565
2.54228
2.50506
2.4738
2.44872
2.43217
2.42264
2.42736
2.43175
2.44077
2.4575
2.48601
2.53373
2.59251
2.65599
2.7175
2.77136
2.81484
2.84766
2.87067
2.88626
2.89601
2.90193
2.90323
2.90524
2.90499
2.90434
2.89925
2.89395
2.88576
2.8779
2.86769
2.85804
2.84644
2.83556
2.823
2.81121
2.79794
2.78538
2.77135
2.75778
2.74282
2.72823
2.7123
2.69665
2.67966
2.66289
2.64477
2.62685
2.60764
2.58863
2.56842
2.54843
2.52737
2.50664
2.485
2.46385
2.44199
2.42076
2.39909
2.37824
2.35736
2.33786
2.32008
4.0589
3.87257
3.71029
3.55896
3.41554
3.27981
3.15107
3.03269
2.92383
2.82484
2.73743
2.66014
2.59639
2.54735
2.54026
2.54062
2.56115
2.62065
2.7623
3.10626
3.41381
3.54063
3.54248
3.53408
3.50384
3.42976
3.34432
3.2652
3.18996
3.1188
3.04809
2.97984
2.91224
2.84836
2.78669
2.72955
2.67587
2.62712
2.58268
2.54361
2.51002
2.48194
2.46136
2.44684
2.44404
2.44787
2.45265
2.46301
2.483
2.51842
2.56953
2.62885
2.6899
2.74723
2.79559
2.83347
2.86028
2.87821
2.8891
2.89344
2.89576
2.89616
2.89661
2.89289
2.88833
2.88051
2.87307
2.86291
2.85331
2.84139
2.83024
2.81723
2.80511
2.79148
2.77867
2.76451
2.75103
2.7364
2.7223
2.70703
2.69216
2.67599
2.66014
2.6429
2.62593
2.60764
2.5896
2.57033
2.55133
2.53121
2.51145
2.49073
2.47045
2.44944
2.42896
2.40803
2.38785
2.36766
2.34876
2.33155
4.13603
3.93489
3.76592
3.61423
3.47195
3.33765
3.2103
3.09128
2.98206
2.88221
2.79334
2.71925
2.65736
2.64113
2.63853
2.65441
2.70795
2.83792
3.15513
3.48718
3.65035
3.66549
3.6603
3.63662
3.57427
3.49642
3.42213
3.35233
3.28416
3.21634
3.14797
3.07963
3.01278
2.94692
2.88425
2.82347
2.76709
2.71347
2.66473
2.6195
2.5794
2.54382
2.51362
2.48929
2.47137
2.46293
2.46141
2.46482
2.47046
2.48229
2.50629
2.54728
2.59992
2.65862
2.71715
2.76923
2.81169
2.84305
2.86408
2.87661
2.88228
2.88335
2.88473
2.8831
2.87977
2.87249
2.86544
2.85551
2.8462
2.83436
2.82328
2.81019
2.79791
2.78409
2.77104
2.7567
2.74315
2.72844
2.71449
2.69937
2.68496
2.66933
2.65432
2.63806
2.62226
2.60516
2.58837
2.57028
2.55243
2.53339
2.51459
2.49484
2.47542
2.45531
2.43569
2.41561
2.39634
2.37706
2.35905
2.34281
4.21009
4.00458
3.82455
3.67
3.52785
3.39465
3.26934
3.15066
3.04212
2.94308
2.85723
2.78473
2.75176
2.74673
2.75905
2.80704
2.9276
3.22197
3.5667
3.75489
3.7839
3.77984
3.75899
3.7037
3.63161
3.56347
3.5
3.43784
3.37422
3.30956
3.2431
3.1764
3.10942
3.04336
2.97896
2.91689
2.85774
2.80153
2.74896
2.69958
2.65422
2.61305
2.57572
2.54406
2.5162
2.49608
2.48019
2.47771
2.47323
2.47756
2.48378
2.49726
2.52569
2.57063
2.62402
2.68069
2.73533
2.78207
2.81876
2.84385
2.85941
2.86661
2.86847
2.86859
2.86818
2.8628
2.85656
2.84708
2.83804
2.82646
2.81553
2.8024
2.79004
2.77591
2.76253
2.7478
2.73396
2.71904
2.70501
2.68997
2.67578
2.66052
2.64604
2.63039
2.61537
2.59913
2.58334
2.56633
2.54965
2.53182
2.51427
2.49575
2.47758
2.45864
2.44026
2.42138
2.40334
2.38538
2.36851
2.35377
4.23708
4.10264
3.90276
3.73544
3.58947
3.45512
3.32991
3.21241
3.10405
3.00816
2.92674
2.87782
2.87006
2.87811
2.92034
3.03275
3.30859
3.66149
3.86419
3.90396
3.90031
3.87986
3.82657
3.75717
3.69361
3.63604
3.5805
3.52364
3.464
3.40135
3.33649
3.27005
3.20347
3.13726
3.07253
3.00932
2.94865
2.88978
2.83464
2.78163
2.73317
2.6869
2.64535
2.60679
2.57279
2.54338
2.5188
2.50012
2.48958
2.4845
2.48062
2.48533
2.49292
2.50885
2.54165
2.58771
2.64072
2.69582
2.74523
2.78688
2.81689
2.83656
2.84761
2.84906
2.85053
2.84915
2.84588
2.83704
2.82823
2.81644
2.80592
2.79261
2.78068
2.76605
2.75283
2.73734
2.72346
2.70782
2.69375
2.67829
2.6642
2.64893
2.63476
2.61955
2.60516
2.58976
2.57494
2.5591
2.54367
2.52719
2.5111
2.49399
2.47733
2.45986
2.443
2.42572
2.40926
2.39313
2.37779
2.36518
4.24413
4.16411
3.98475
3.80565
3.65439
3.51812
3.39393
3.27724
3.17302
3.08204
3.01839
3.00775
3.01129
3.0486
3.15452
3.41913
3.77592
3.98787
4.0337
4.02932
4.00709
3.94989
3.87956
3.81803
3.76449
3.71488
3.66389
3.61018
3.55188
3.49072
3.42641
3.36129
3.29502
3.22934
3.16415
3.10021
3.03819
2.97798
2.92084
2.86547
2.814
2.76409
2.71883
2.67498
2.63636
2.59962
2.56835
2.54033
2.51801
2.50198
2.49283
2.485
2.48192
2.48682
2.49571
2.51391
2.55262
2.59852
2.65016
2.70187
2.74685
2.78288
2.80711
2.82192
2.82676
2.8277
2.82723
2.82399
2.81547
2.80535
2.79375
2.78156
2.76859
2.75488
2.74078
2.72592
2.71126
2.69578
2.6811
2.6655
2.65116
2.63572
2.62177
2.60652
2.59284
2.57768
2.56402
2.54887
2.53487
2.51965
2.50512
2.48967
2.47473
2.45914
2.44417
2.42902
2.41467
2.40097
2.38775
2.37806
4.22431
4.18446
4.08115
3.89072
3.72594
3.58423
3.45871
3.34569
3.24825
3.17213
3.1586
3.15887
3.19287
3.29475
3.55616
3.91643
4.13265
4.17683
4.17076
4.14544
4.07864
4.00461
3.94078
3.89013
3.84269
3.79697
3.74697
3.69455
3.63696
3.57748
3.51397
3.45041
3.38414
3.31956
3.25338
3.19014
3.12634
3.0662
3.00635
2.95022
2.89531
2.84357
2.79424
2.74721
2.70395
2.66214
2.6254
2.5899
2.56054
2.53327
2.51312
2.49898
2.48822
2.47771
2.48002
2.48477
2.49478
2.51584
2.55586
2.602
2.65259
2.70019
2.74087
2.77096
2.78991
2.79988
2.80087
2.80073
2.79852
2.79101
2.78075
2.768
2.75534
2.74113
2.72753
2.71246
2.69804
2.68236
2.66755
2.65173
2.63705
2.62152
2.60725
2.59229
2.57846
2.56406
2.5506
2.5365
2.52335
2.50932
2.49632
2.48238
2.4695
2.45582
2.44348
2.43061
2.41924
2.40857
2.39807
2.39243
4.20035
4.18422
4.12787
3.99068
3.81304
3.66039
3.53258
3.42515
3.33775
3.32149
3.31868
3.35072
3.45359
3.72107
4.08557
4.30024
4.33676
4.32861
4.29712
4.21713
4.13429
4.06851
4.01633
3.97138
3.92705
3.88138
3.83155
3.77886
3.72186
3.66282
3.60053
3.53753
3.47244
3.408
3.34234
3.27879
3.21451
3.15358
3.09211
3.03487
2.97711
2.92402
2.87057
2.82178
2.77323
2.72886
2.68593
2.6464
2.60991
2.57622
2.54769
2.52127
2.50445
2.48775
2.47708
2.4668
2.47085
2.47626
2.48835
2.51384
2.55373
2.59978
2.64813
2.6914
2.72716
2.75121
2.76609
2.7697
2.77006
2.76811
2.76308
2.75214
2.73891
2.72553
2.71111
2.69706
2.68222
2.66744
2.65233
2.63698
2.62185
2.60653
2.59172
2.57699
2.5627
2.54881
2.53516
2.52202
2.50912
2.4965
2.48447
2.47237
2.46129
2.45024
2.44028
2.43108
2.42241
2.41608
2.40834
2.40798
4.06521
4.16756
4.13947
4.06593
3.89961
3.74319
3.61695
3.51649
3.49537
3.49056
3.52183
3.63024
3.91644
4.28826
4.4971
4.5178
4.5059
4.46483
4.36535
4.27346
4.20317
4.14852
4.10328
4.05917
4.01514
3.96716
3.91705
3.86252
3.80629
3.74648
3.68572
3.62242
3.55887
3.49396
3.42957
3.36484
3.30138
3.23848
3.17715
3.11737
3.05877
3.00292
2.94749
2.89601
2.84423
2.79734
2.74972
2.70744
2.66471
2.62731
2.59055
2.55894
2.52986
2.50646
2.48851
2.47115
2.45846
2.45234
2.45614
2.46233
2.47603