/*--------------------------------*- C++ -*----------------------------------*\
  =========                 |
  \\      /  F ield         | OpenFOAM: The Open Source CFD Toolbox
   \\    /   O peration     | Website:  https://openfoam.org
    \\  /    A nd           | Version:  9
     \\/     M anipulation  |
\*---------------------------------------------------------------------------*/
FoamFile
{
    format      ascii;
    class       volScalarField;
    location    "6";
    object      T;
}
// * * * * * * * * * * * * * * * * * * * * * * * * * * * * * * * * * * * * * //

dimensions      [0 0 0 1 0 0 0];

internalField   nonuniform List<scalar> 
5250
(
1
1.00002
1.00004
1.00012
1.00025
1.00075
1.00159
1.00442
1.01004
1.02674
1.06551
1.17672
1.47141
2.16346
2.6711
2.76049
2.74581
2.74182
2.7532
2.76917
2.78096
2.78825
2.79355
2.7976
2.79934
1.00001
1.00002
1.00005
1.0001
1.00029
1.00063
1.00181
1.00382
1.01097
1.02453
1.06701
1.17106
1.46663
2.14896
2.66684
2.76036
2.74518
2.74086
2.75224
2.76814
2.77984
2.7871
2.79238
2.79639
2.79805
1
1.00002
1.00004
1.00011
1.00025
1.00069
1.00156
1.0041
1.00983
1.02503
1.06303
1.16723
1.44898
2.12027
2.65612
2.75932
2.74306
2.73789
2.74911
2.76505
2.77638
2.78363
2.78895
2.79298
2.79468
1
1.00002
1.00004
1.00011
1.00023
1.00067
1.00146
1.00397
1.00919
1.02408
1.05934
1.15885
1.4246
2.07309
2.63909
2.75731
2.73923
2.73282
2.74408
2.75966
2.7717
2.77883
2.78358
2.78742
2.78936
1
1.00001
1.00004
1.0001
1.00023
1.0006
1.00138
1.00374
1.00835
1.02296
1.05438
1.14779
1.39288
2.00701
2.61471
2.7536
2.73372
2.72542
2.73638
2.75199
2.76317
2.77067
2.77609
2.77991
2.78153
1
1.00001
1.00003
1.00009
1.00022
1.00052
1.00137
1.0031
1.00845
1.01932
1.05195
1.13115
1.35717
1.92186
2.58149
2.74627
2.72444
2.71438
2.72548
2.74094
2.75328
2.75974
2.76507
2.76838
2.77003
1
1.00001
1.00003
1.00008
1.00018
1.00052
1.00109
1.00317
1.0067
1.019
1.04376
1.11937
1.31261
1.82204
2.53648
2.73291
2.7108
2.69999
2.71146
2.72669
2.73904
2.74619
2.75019
2.7532
2.75341
1
1.00001
1.00003
1.00007
1.00019
1.0004
1.00117
1.00238
1.00706
1.01508
1.04201
1.1025
1.27986
1.73315
2.48716
2.71808
2.69562
2.68516
2.69472
2.70926
2.72055
2.72673
2.72994
2.73041
2.72744
1
1.00001
1.00002
1.00007
1.00015
1.00042
1.00088
1.00257
1.00539
1.01541
1.03491
1.09532
1.24715
1.66416
2.42539
2.69724
2.68511
2.67604
2.67982
2.69061
2.70013
2.70366
2.70327
2.69809
2.68367
1
1.00001
1.00002
1.00006
1.00014
1.00034
1.00088
1.00204
1.00546
1.01243
1.03345
1.08184
1.22212
1.58976
2.34031
2.66422
2.6764
2.66862
2.66569
2.67148
2.67592
2.67567
2.66823
2.64718
2.58975
1
1.00001
1.00002
1.00005
1.00012
1.0003
1.00078
1.00179
1.00483
1.0109
1.02957
1.07145
1.19421
1.51612
2.23076
2.62099
2.6679
2.65922
2.65195
2.65238
2.65166
2.64453
2.62394
2.57556
2.46487
1
1.00001
1.00002
1.00004
1.00012
1.00024
1.00072
1.00147
1.00424
1.00934
1.02535
1.06118
1.16539
1.43915
2.09341
2.56428
2.65779
2.64819
2.63756
2.63238
2.6261
2.61112
2.57834
2.51114
2.38834
1
1.00001
1.00001
1.00004
1.00009
1.00022
1.00053
1.0014
1.00318
1.00859
1.01972
1.05276
1.13344
1.36192
1.92613
2.49042
2.6387
2.6303
2.61764
2.61011
2.59954
2.57759
2.53777
2.46889
2.36042
1
1
1.00001
1.00003
1.00008
1.00017
1.00047
1.00105
1.00274
1.00655
1.0164
1.04099
1.10562
1.27901
1.72806
2.39622
2.60615
2.60312
2.59318
2.58245
2.5711
2.54785
2.50578
2.44174
2.35057
1
1
1.00001
1.00003
1.00005
1.00016
1.00033
1.00094
1.00207
1.00556
1.01292
1.03371
1.08365
1.22407
1.58864
2.2925
2.56764
2.57656
2.56752
2.55531
2.54005
2.51814
2.47884
2.42154
2.3432
1
1
1.00001
1.00002
1.00005
1.00012
1.00028
1.00076
1.00164
1.00466
1.01002
1.028
1.06607
1.1803
1.47367
2.13678
2.5045
2.55693
2.54688
2.53534
2.51626
2.49107
2.45459
2.4033
2.33579
1
1
1.00001
1.00002
1.00004
1.00009
1.00023
1.00055
1.00145
1.00328
1.00889
1.02029
1.05439
1.13704
1.3705
1.93463
2.41796
2.5331
2.5275
2.51368
2.49483
2.46927
2.43415
2.38791
2.32898
1
1
1
1.00001
1.00003
1.00007
1.00017
1.00046
1.00099
1.0028
1.00596
1.01686
1.03815
1.10374
1.26653
1.69826
2.30144
2.49549
2.50166
2.49056
2.46995
2.44617
2.41396
2.37253
2.3211
1
1
1
1.00001
1.00002
1.00005
1.00015
1.0003
1.00089
1.0018
1.00522
1.01132
1.03084
1.07416
1.19899
1.52022
2.16098
2.44341
2.47408
2.46528
2.44739
2.4226
2.39493
2.35792
2.31317
1
1
1
1.00001
1.00002
1.00004
1.0001
1.00025
1.0006
1.00148
1.00372
1.00879
1.02296
1.05548
1.14732
1.38737
1.95788
2.35819
2.44529
2.44151
2.42589
2.40303
2.37537
2.34333
2.30356
1
1
1
1
1.00001
1.00003
1.00008
1.00017
1.00047
1.00105
1.00273
1.0065
1.01625
1.04039
1.1037
1.27144
1.70449
2.23799
2.40436
2.41531
2.40496
2.38374
2.35857
2.32796
2.29353
1
1
1
1
1.00001
1.00002
1.00005
1.00014
1.00029
1.00085
1.00176
1.00495
1.01098
1.02928
1.07063
1.18746
1.48791
2.077
2.34471
2.38639
2.38075
2.36369
2.33891
2.31348
2.28074
1
1
1
1
1.00001
1.00001
1.00004
1.00009
1.00024
1.00054
1.00137
1.00334
1.00806
1.02045
1.0501
1.13029
1.34196
1.85227
2.24844
2.35313
2.35697
2.34584
2.32303
2.29724
2.26856
1
1
1
1
1
1.00001
1.00003
1.00006
1.00017
1.00035
1.001
1.00212
1.00578
1.0131
1.03427
1.08345
1.21969
1.5656
2.10638
2.30151
2.32768
2.32227
2.30513
2.28114
2.25496
1
1
1
1
1
1.00001
1.00002
1.00004
1.00011
1.00026
1.00065
1.00157
1.00378
1.00957
1.02276
1.05858
1.14831
1.39047
1.92262
2.23515
2.29928
2.29864
2.28547
2.26387
2.23933
1
1
1
1
1
1
1.00001
1.00003
1.00008
1.00016
1.00047
1.001
1.0027
1.00616
1.01585
1.03829
1.09878
1.2543
1.6561
2.11265
2.25786
2.27377
2.2661
2.24769
2.22413
1
1
1
1
1
1
1.00001
1.00002
1.00005
1.00012
1.0003
1.00067
1.00182
1.00392
1.01086
1.02408
1.06469
1.1598
1.42237
1.93284
2.1905
2.24275
2.24257
2.22952
2.20956
1
1
1
1
1
1
1.00001
1.00001
1.00003
1.00009
1.00018
1.0005
1.00107
1.00286
1.00653
1.01674
1.04043
1.10401
1.2671
1.67692
2.0791
2.20389
2.21859
2.21185
2.1951
1
1
1
1
1
1
1
1.00001
1.00002
1.00005
1.00012
1.00032
1.00066
1.00192
1.0039
1.0112
1.02429
1.06571
1.16073
1.42452
1.9051
2.13812
2.18654
2.18882
2.17848
1
1
1
1
1
1
1
1.00001
1.00001
1.00003
1.00009
1.00017
1.00049
1.00106
1.00284
1.00641
1.01653
1.03955
1.10169
1.25933
1.65144
2.02889
2.14912
2.16561
2.16067
1
1
1
1
1
1
1
1
1.00001
1.00002
1.00005
1.00011
1.00031
1.00064
1.00181
1.00388
1.01039
1.02375
1.06182
1.15255
1.40062
1.85316
2.08244
2.13325
2.13795
1
1
1
1
1
1
1
1
1.00001
1.00001
1.00003
1.00007
1.00019
1.0004
1.00113
1.0023
1.00665
1.01395
1.03834
1.09
1.23817
1.58915
1.96684
2.09418
2.11522
1
1
1
1
1
1
1
1
1
1.00001
1.00002
1.00005
1.0001
1.00027
1.00062
1.00155
1.00371
1.00893
1.02226
1.05408
1.13735
1.35514
1.78067
2.02154
2.08285
1
1
1
1
1
1
1
1
1
1
1.00001
1.00003
1.00006
1.00017
1.00034
1.00098
1.00205
1.00559
1.01238
1.03232
1.07694
1.19985
1.4987
1.89022
2.03983
1
1
1
1
1
1
1
1
1
1
1.00001
1.00002
1.00004
1.00009
1.00022
1.00056
1.00125
1.00336
1.0072
1.01978
1.04413
1.11799
1.29381
1.688
1.9604
1
1
1
1
1
1
1
1
1
1
1
1.00001
1.00002
1.00006
1.00013
1.00033
1.00075
1.00184
1.00445
1.01055
1.02638
1.06355
1.16116
1.41047
1.8043
1
1
1
1
1
1
1
1
1
1
1
1.00001
1.00001
1.00003
1.00008
1.00019
1.00043
1.00112
1.00244
1.00661
1.01427
1.0385
1.08963
1.23593
1.56533
1
1
1
1
1
1
1
1
1
1
1
1
1.00001
1.00002
1.00005
1.0001
1.00028
1.00056
1.00159
1.00333
1.00897
1.02006
1.05212
1.12586
1.32793
1
1
1
1
1
1
1
1
1
1
1
1
1
1.00001
1.00002
1.00007
1.00013
1.00037
1.00077
1.00207
1.00454
1.01168
1.02708
1.06829
1.1676
1
1
1
1
1
1
1
1
1
1
1
1
1
1.00001
1.00002
1.00003
1.00009
1.00018
1.00051
1.00105
1.00285
1.00621
1.01618
1.03742
1.09579
1
1
1
1
1
1
1
1
1
1
1
1
1
1
1.00001
1.00002
1.00005
1.0001
1.00029
1.00059
1.00167
1.00343
1.00943
1.02064
1.05411
1
1
1
1
1
1
1
1
1
1
1
1
1
1
1
1.00001
1.00003
1.00007
1.00016
1.00037
1.00097
1.00208
1.00567
1.01199
1.03252
1
1
1
1
1
1
1
1
1
1
1
1
1
1
1
1.00001
1.00002
1.00005
1.00011
1.00027
1.00065
1.00156
1.00389
1.00896
1.02339
1
1
1
1
1
1
1
1
1
1
1
1
1
1
1
1.00001
1.00002
1.00004
1.00009
1.00022
1.00054
1.00135
1.00317
1.00828
1.01921
1
1
1
1
1
1
1
1
1
1
1
1
1
1
1
1.00001
1.00001
1.00004
1.00008
1.00022
1.00047
1.00135
1.00283
1.00823
1.01809
1
1
1
1
1
1
1
1
1
1
1
1
1
1
1
1
1.00001
1.00003
1.00009
1.00019
1.00052
1.00117
1.00309
1.00744
1.01891
1
1
1
1
1
1
1
1
1
1
1
1
1
1
1
1.00001
1.00001
1.00003
1.00007
1.00022
1.00044
1.00133
1.0027
1.00804
1.01766
1
1
1
1
1
1
1
1
1
1
1
1
1
1
1
1.00001
1.00001
1.00003
1.00007
1.00021
1.00046
1.00122
1.00295
1.00739
1.01864
1
1
1
1
1
1
1
1
1
1
1
1
1
1
1
1.00001
1.00001
1.00003
1.00007
1.00021
1.00045
1.00123
1.0029
1.00741
1.01844
1
1
1
1
1
1
1
1
1
1
1
1
1
1
1
1.00001
1.00001
1.00003
1.00008
1.00018
1.00051
1.0011
1.00318
1.00684
1.01934
2.29215
2.30225
2.60916
2.70751
2.8655
2.86384
2.82082
2.80104
2.7915
2.77963
2.76343
2.7433
2.72764
2.71249
2.69932
2.68256
2.66733
2.64995
2.63686
2.62234
2.611
2.5956
2.58461
2.57774
2.5746
2.57682
2.58459
2.6048
2.63178
2.66476
2.69862
2.73037
2.76046
2.7861
2.80875
2.82614
2.8432
2.85485
2.86801
2.87595
2.8825
2.88691
2.88974
2.89284
2.89333
2.89373
2.89352
2.89295
2.89115
2.88999
2.88784
2.88528
2.88306
2.8804
2.87707
2.87393
2.87078
2.86771
2.86435
2.861
2.85694
2.85308
2.84818
2.84412
2.83815
2.83382
2.82664
2.8218
2.81382
2.80783
2.79973
2.79249
2.78395
2.77623
2.76706
2.75863
2.74937
2.7404
2.73074
2.72144
2.7117
2.70213
2.69209
2.68235
2.67228
2.66245
2.65223
2.64231
2.63217
2.6224
2.61239
2.60289
2.59321
2.58424
2.57531
2.56732
2.55981
2.55376
2.54901
2.54563
2.29601
2.32485
2.51602
2.63251
2.70922
2.80971
2.85485
2.89693
2.89609
2.85867
2.84325
2.82323
2.81147
2.80327
2.7918
2.77956
2.76401
2.74785
2.73717
2.72121
2.71149
2.69619
2.68343
2.6761
2.67341
2.67371
2.68282
2.69952
2.72387
2.75001
2.77602
2.79959
2.81854
2.83529
2.84772
2.85534
2.85893
2.86094
2.86107
2.85899
2.85369
2.85113
2.84577
2.84236
2.83795
2.83329
2.82894
2.82376
2.81869
2.81436
2.80873
2.8038
2.79891
2.79461
2.78911
2.78439
2.77876
2.77441
2.76859
2.76429
2.7579
2.75312
2.74639
2.74082
2.73385
2.72736
2.71985
2.71262
2.70443
2.69656
2.68776
2.67929
2.66999
2.66105
2.6513
2.64202
2.63192
2.62237
2.61206
2.60235
2.59184
2.58204
2.57143
2.56161
2.55094
2.54111
2.53047
2.52072
2.51021
2.50062
2.49033
2.48102
2.47119
2.46242
2.45333
2.44544
2.43773
2.43164
2.42682
2.42365
2.29141
2.28005
2.33693
2.456
2.51326
2.5726
2.64581
2.72883
2.80657
2.82971
2.85826
2.8808
2.89485
2.87824
2.85622
2.84212
2.82786
2.82192
2.81055
2.79919
2.79261
2.78287
2.77159
2.76603
2.7649
2.76694
2.77652
2.78902
2.80722
2.82257
2.83398
2.84094
2.84496
2.84671
2.84217
2.83514
2.82695
2.82031
2.81253
2.80497
2.79666
2.78869
2.77934
2.77222
2.76256
2.75523
2.74622
2.73927
2.73083
2.72429
2.71699
2.71141
2.70414
2.69919
2.69313
2.68902
2.68313
2.67919
2.67372
2.66976
2.66447
2.6601
2.65454
2.64977
2.64366
2.63826
2.63155
2.62537
2.61799
2.61103
2.60303
2.59538
2.58682
2.57857
2.56963
2.56085
2.5516
2.54244
2.53299
2.52353
2.51394
2.50431
2.49466
2.48487
2.47521
2.46536
2.45576
2.44594
2.43645
2.42679
2.41751
2.4082
2.39927
2.39045
2.3821
2.37411
2.36701
2.36074
2.35629
2.35297
2.27762
2.24076
2.24645
2.29532
2.35475
2.39995
2.45863
2.51347
2.58528
2.65775
2.7128
2.76651
2.81269
2.83124
2.83667
2.84021
2.85145
2.85645
2.85442
2.84513
2.83493
2.8272
2.82208
2.82003
2.82038
2.82579
2.82867
2.83333
2.8354
2.83523
2.82973
2.82441
2.81713
2.81183
2.80194
2.79508
2.7834
2.77519
2.76181
2.75191
2.7378
2.72623
2.71229
2.70068
2.68693
2.67595
2.66303
2.6525
2.64081
2.63145
2.62051
2.61211
2.6029
2.59512
2.58677
2.57995
2.57309
2.56722
2.56117
2.55564
2.54998
2.54478
2.53945
2.53427
2.52894
2.5235
2.51796
2.51211
2.50618
2.4998
2.4934
2.4865
2.4796
2.47223
2.46488
2.45712
2.44939
2.44134
2.43328
2.42501
2.41667
2.40824
2.39962
2.3911
2.38227
2.37374
2.36475
2.35635
2.34731
2.33909
2.33017
2.32219
2.31347
2.30583
2.29769
2.29084
2.28391
2.27863
2.27427
2.27194
2.27133
2.22092
2.20088
2.21163
2.24454
2.27578
2.31678
2.35761
2.40594
2.45314
2.50683
2.5544
2.61308
2.67092
2.72416
2.75377
2.77393
2.78934
2.79927
2.80297
2.80501
2.80756
2.8097
2.81337
2.81313
2.81194
2.808
2.80456
2.79588
2.78553
2.77382
2.76357
2.75216
2.74033
2.72782
2.71447
2.69994
2.68592
2.67103
2.65805
2.64349
2.63147
2.61778
2.60675
2.59415
2.58396
2.5724
2.56329
2.55275
2.54447
2.53537
2.5277
2.51935
2.51263
2.5052
2.49866
2.49165
2.48593
2.48002
2.47454
2.46842
2.46281
2.4569
2.45151
2.44557
2.44011
2.43398
2.42835
2.42197
2.41611
2.40943
2.40328
2.39627
2.38984
2.38251
2.37584
2.36821
2.36134
2.35348
2.34643
2.33839
2.33118
2.32298
2.31563
2.30733
2.29986
2.29153
2.28398
2.27561
2.26798
2.25957
2.25199
2.24384
2.23657
2.22893
2.22231
2.21572
2.21054
2.20631
2.20406
2.26761
2.21342
2.17895
2.16833
2.17586
2.19241
2.2158
2.24328
2.27536
2.30935
2.34442
2.38438
2.42309
2.46978
2.51203
2.55931
2.60162
2.64011
2.67462
2.70433
2.72472
2.73889
2.74782
2.75497
2.75781
2.75844
2.75265
2.74033
2.71895
2.69622
2.67061
2.64855
2.6283
2.61191
2.59559
2.58182
2.5667
2.55438
2.54142
2.53098
2.5197
2.51081
2.50083
2.49325
2.48407
2.4772
2.46871
2.46227
2.45452
2.44857
2.44137
2.43615
2.42974
2.42486
2.41912
2.41497
2.40956
2.40551
2.40082
2.39743
2.39277
2.38873
2.38378
2.37959
2.37456
2.37007
2.36474
2.35983
2.35412
2.34876
2.34265
2.33688
2.33039
2.32423
2.31741
2.31095
2.30386
2.29716
2.28987
2.283
2.27546
2.26846
2.26069
2.25357
2.24563
2.23843
2.23035
2.22309
2.21499
2.20779
2.19983
2.19277
2.18508
2.17829
2.17108
2.16483
2.15855
2.15354
2.14941
2.1473
2.2667
2.21182
2.1708
2.1463
2.13754
2.13929
2.14831
2.16297
2.1819
2.20464
2.22793
2.25492
2.2836
2.31438
2.34773
2.38107
2.41633
2.4512
2.48744
2.52213
2.55648
2.58811
2.61623
2.63575
2.65156
2.6581
2.65348
2.63232
2.59805
2.562
2.52634
2.49547
2.47149
2.45664
2.4475
2.44108
2.43444
2.42947
2.42331
2.41885
2.41341
2.40952
2.40456
2.40103
2.39621
2.39255
2.38778
2.38419
2.37916
2.37541
2.37041
2.36624
2.3613
2.35737
2.3525
2.34838
2.34377
2.33995
2.33559
2.33202
2.32788
2.32412
2.3196
2.31575
2.31108
2.30703
2.30206
2.29766
2.29231
2.28755
2.28181
2.27672
2.2706
2.2652
2.25874
2.25307
2.24631
2.24039
2.23343
2.2273
2.22018
2.21388
2.20666
2.20013
2.19274
2.18603
2.17849
2.17167
2.16408
2.15718
2.14965
2.14274
2.13538
2.12859
2.12162
2.11527
2.10913
2.10387
2.09969
2.0973
2.26469
2.21215
2.1686
2.13641
2.11723
2.10715
2.1059
2.10959
2.11801
2.13026
2.14471
2.16078
2.18051
2.20074
2.22453
2.24799
2.27386
2.3005
2.32884
2.36066
2.39228
2.42696
2.4578
2.48677
2.51497
2.53235
2.52975
2.50423
2.46637
2.42501
2.38625
2.35558
2.33121
2.31966
2.31804
2.32192
2.32655
2.33077
2.33266
2.33427
2.33376
2.333
2.33139
2.33
2.32728
2.32542
2.32223
2.32019
2.31679
2.31439
2.31075
2.30828
2.30444
2.30172
2.29802
2.29513
2.29102
2.28798
2.28413
2.28105
2.27692
2.27333
2.26881
2.26506
2.26054
2.25673
2.25214
2.24809
2.24323
2.23881
2.23356
2.22871
2.22305
2.21778
2.21178
2.20614
2.19987
2.19392
2.18743
2.18118
2.17447
2.16799
2.16106
2.15444
2.14741
2.14078
2.13373
2.12711
2.12009
2.11347
2.10654
2.09999
2.09323
2.08688
2.08042
2.0745
2.06866
2.06377
2.05963
2.05759
2.26297
2.21295
2.16936
2.13302
2.10749
2.08974
2.0798
2.07572
2.07601
2.07955
2.08691
2.0946
2.10605
2.11896
2.13299
2.15082
2.16637
2.18865
2.20846
2.23721
2.26559
2.29731
2.33085
2.36765
2.41157
2.4367
2.43287
2.40653
2.37026
2.32777
2.29059
2.25989
2.23841
2.22435
2.2208
2.22518
2.23474
2.24465
2.25319
2.25893
2.26267
2.26457
2.26547
2.26554
2.26506
2.26447
2.26317
2.26214
2.26008
2.25867
2.25641
2.25476
2.25239
2.25082
2.24816
2.24627
2.24343
2.24137
2.23852
2.23642
2.23317
2.23046
2.2266
2.22344
2.21932
2.21587
2.21155
2.20776
2.20316
2.19895
2.194
2.1894
2.18411
2.17922
2.17362
2.16853
2.16267
2.15741
2.15129
2.14573
2.13929
2.13339
2.12665
2.12058
2.1137
2.10748
2.1005
2.09413
2.08713
2.08064
2.07366
2.06715
2.06028
2.05391
2.04729
2.04132
2.03529
2.03027
2.02591
2.02374
2.25918
2.21319
2.17074
2.13336
2.10306
2.08078
2.06435
2.0543
2.04808
2.04608
2.04648
2.04939
2.05318
2.06138
2.06755
2.08006
2.08962
2.10561
2.12288
2.14661
2.17328
2.20263
2.24124
2.29152
2.34653
2.37138
2.36407
2.33947
2.3037
2.26092
2.21942
2.1875
2.16572
2.14899
2.13997
2.13671
2.14133
2.15174
2.16501
2.17753
2.18813
2.19555
2.20146
2.20496
2.20776
2.20958
2.21059
2.21186
2.2121
2.21206
2.21187
2.21139
2.21026
2.20925
2.20717
2.20576
2.20295
2.20115
2.19847
2.19672
2.19391
2.19162
2.18847
2.18575
2.18232
2.17927
2.17554
2.17216
2.16801
2.16428
2.15968
2.15556
2.1505
2.14595
2.14051
2.13553
2.12979
2.12447
2.11849
2.11286
2.10672
2.10088
2.0946
2.08862
2.08221
2.07607
2.06955
2.0633
2.05675
2.05045
2.0439
2.0376
2.03111
2.0249
2.01856
2.01262
2.00672
2.00156
1.99714
1.99476
2.25453
2.21204
2.17186
2.13462
2.10306
2.07665
2.05664
2.04124
2.03062
2.02328
2.01899
2.01699
2.01714
2.0186
2.02171
2.02792
2.03532
2.04624
2.0634
2.08362
2.10915
2.14076
2.18884
2.25704
2.31494
2.33096
2.3194
2.29542
2.25821
2.21512
2.17286
2.14035
2.11573
2.10003
2.08928
2.08332
2.0828
2.08687
2.09722
2.11284
2.12766
2.14198
2.15228
2.16065
2.16596
2.17018
2.1728
2.17505
2.17636
2.17744
2.1783
2.17819
2.17787
2.17722
2.17578
2.17457
2.1721
2.17033
2.16774
2.1659
2.16305
2.16065
2.15747
2.15474
2.15125
2.1482
2.14439
2.14108
2.13695
2.13335
2.12892
2.12504
2.12034
2.11611
2.11111
2.10652
2.10123
2.09625
2.0906
2.08528
2.07936
2.07383
2.06769
2.06201
2.05572
2.04992
2.04351
2.03756
2.03106
2.02497
2.01845
2.01233
2.00589
1.9999
1.99366
1.98798
1.98215
1.97719
1.97273
1.97049
2.24755
2.20957
2.17151
2.13593
2.10359
2.07617
2.05266
2.03477
2.01984
2.00927
2.0009
1.99518
1.99146
1.98946
1.9896
1.99129
1.99604
2.00666
2.02238
2.04174
2.06814
2.10847
2.17424
2.2529
2.3014
2.30637
2.29217
2.26508
2.22718
2.18347
2.1448
2.11198
2.08624
2.06724
2.0538
2.0451
2.03975
2.03794
2.04074
2.04868
2.06257
2.07844
2.09438
2.10753
2.1182
2.12577
2.13137
2.13497
2.13788
2.13967
2.14122
2.14199
2.14286
2.14274
2.14242
2.14177
2.14027
2.13918
2.13723
2.13601
2.13356
2.13158
2.12856
2.12611
2.12274
2.11995
2.1163
2.11325
2.10933
2.10603
2.10187
2.09831
2.09393
2.09004
2.08537
2.08109
2.0761
2.07144
2.0661
2.06116
2.05555
2.0504
2.04454
2.03913
2.03307
2.02743
2.02124
2.01541
2.00916
2.00318
1.99688
1.99082
1.9845
1.97844
1.97219
1.96634
1.96043
1.95525
1.95066
1.9482
2.23642
2.20369
2.1693
2.13562
2.10405
2.07613
2.05149
2.03081
2.0143
2.00004
1.98974
1.98059
1.97437
1.96948
1.96689
1.96704
1.97122
1.98183
1.99656
2.01762
2.05051
2.10646
2.19325
2.26877
2.29435
2.28944
2.27309
2.2437
2.20496
2.16407
2.12868
2.09747
2.07175
2.05005
2.03313
2.02104
2.01294
2.00772
2.00616
2.0076
2.01333
2.02491
2.04035
2.05735
2.07241
2.0856
2.09492
2.1024
2.107
2.11085
2.11281
2.11485
2.11543
2.11634
2.11612
2.11562
2.11437
2.11334
2.11129
2.10993
2.10736
2.10518
2.10193
2.09927
2.09568
2.09281
2.08906
2.08607
2.0822
2.07906
2.07513
2.07183
2.06776
2.06413
2.05976
2.05576
2.05102
2.04661
2.04147
2.03677
2.03138
2.02644
2.02085
2.01565
2.00988
2.00442
1.99849
1.99281
1.98677
1.98096
1.97491
1.96909
1.96309
1.95737
1.95146
1.94596
1.94027
1.93535
1.9308
1.92847
2.22684
2.19611
2.16493
2.13381
2.1035
2.07584
2.05121
2.02892
2.01065
1.99512
1.9818
1.97181
1.96251
1.9567
1.95204
1.95216
1.95823
1.96867
1.98498
2.01108
2.05793
2.13887
2.23147
2.28185
2.28892
2.2792
2.25912
2.22727
2.18932
2.15348
2.12153
2.0921
2.0668
2.04373
2.02488
2.00886
1.99635
1.98815
1.98309
1.98008
1.97999
1.98332
1.9917
2.0046
2.02108
2.03707
2.05156
2.06297
2.07221
2.07796
2.08267
2.08507
2.08717
2.08789
2.08861
2.08833
2.08747
2.08658
2.08474
2.08361
2.08127
2.07946
2.07619
2.07373
2.07013
2.06738
2.0636
2.06065
2.05679
2.05373
2.04987
2.04668
2.04276
2.03933
2.03526
2.03156
2.02723
2.02317
2.01849
2.01408
2.00908
2.00437
1.9991
1.99413
1.98863
1.98345
1.97778
1.97243
1.96662
1.96113
1.9552
1.9496
1.9436
1.93801
1.93207
1.92663
1.92099
1.91602
1.91151
1.90901
2.21365
2.18712
2.15795
2.12973
2.10143
2.07469
2.05002
2.02842
2.0079
1.99195
1.97685
1.96522
1.95537
1.94782
1.9441
1.94586
1.9541
1.96623
1.9874
2.02631
2.09712
2.19581
2.26783
2.28818
2.28392
2.27194
2.24775
2.21516
2.1807
2.14937
2.11998
2.09282
2.06792
2.04469
2.02423
2.00543
1.99015
1.97758
1.96816
1.96236
1.95854
1.95744
1.95874
1.96407
1.97478
1.98915
2.0051
2.02088
2.0336
2.04425
2.05138
2.05657
2.05956
2.06159
2.06239
2.06269
2.06211
2.0613
2.05958
2.05851
2.05631
2.05451
2.05126
2.0487
2.045
2.04205
2.03812
2.035
2.03105
2.02788
2.02399
2.02077
2.01688
2.01354
2.00955
2.00605
2.00186
1.99813
1.9937
1.98968
1.985
1.98067
1.97574
1.97109
1.96588
1.96093
1.95548
1.95033
1.94475
1.93949
1.93385
1.92855
1.92288
1.9176
1.91196
1.90682
1.9014
1.89674
1.89234
1.89009
2.20045
2.17655
2.15088
2.12423
2.09828
2.07296
2.04861
2.02718
2.00719
1.98926
1.97466
1.96088
1.95117
1.94316
1.94225
1.94698
1.95705
1.97426
2.0072
2.068
2.16572
2.25086
2.28646
2.28916
2.28091
2.26361
2.23697
2.20615
2.17692
2.14909
2.12228
2.09695
2.07243
2.04951
2.02793
2.00813
1.99044
1.97445
1.96137
1.95085
1.94369
1.93955
1.93686
1.93664
1.93922
1.94619
1.9585
1.97305
1.9888
2.00275
2.01447
2.02312
2.0291
2.03282
2.03476
2.0356
2.03548
2.03472
2.0331
2.03208
2.02999
2.02848
2.02543
2.02307
2.0194
2.01657
2.01264
2.00957
2.00558
2.00242
1.99847
1.99527
1.99136
1.98807
1.9841
1.98064
1.9765
1.97284
1.96855
1.96471
1.96027
1.95629
1.95173
1.94758
1.94281
1.93839
1.93335
1.92863
1.92334
1.9184
1.91291
1.90787
1.9023
1.89725
1.89177
1.88684
1.88166
1.87717
1.87298
1.87076
2.18635
2.1643
2.14099
2.11719
2.09224
2.06877
2.04598
2.02407
2.00543
1.98727
1.9722
1.95924
1.94914
1.94394
1.94619
1.95423
1.96949
1.99636
2.04967
2.14248
2.23663
2.28328
2.29193
2.28703
2.27571
2.25443
2.2279
2.20153
2.17615
2.15111
2.12661
2.10228
2.07855
2.05572
2.03357
2.01311
1.99348
1.97598
1.95992
1.94631
1.93515
1.92635
1.92121
1.91767
1.91602
1.91637
1.92039
1.92948
1.94222
1.95678
1.97111
1.98353
1.99344
2.0005
2.00489
2.00738
2.00823
2.00801
2.00672
2.00571
2.00375
2.0024
1.99964
1.99747
1.99393
1.99118
1.98724
1.98411
1.97996
1.97665
1.97248
1.96913
1.96501
1.96167
1.95761
1.95429
1.95029
1.94693
1.94297
1.93952
1.93543
1.93179
1.9275
1.92362
1.91908
1.91493
1.91014
1.90574
1.90077
1.8962
1.8911
1.88645
1.88129
1.87658
1.87145
1.86681
1.86187
1.85765
1.85361
1.85156
2.17284
2.15171
2.13064
2.10927
2.08703
2.0645
2.0432
2.02224
2.00294
1.98568
1.96994
1.95773
1.94971
1.95008
1.9568
1.96883
1.99241
2.04023
2.12346
2.22236
2.28006
2.29481
2.29222
2.28455
2.26907
2.24545
2.22191
2.19845
2.17603
2.15264
2.1298
2.10627
2.08372
2.06078
2.03917
2.0178
1.99793
1.9789
1.96159
1.94561
1.93158
1.9197
1.90974
1.90308
1.89862
1.89565
1.89433
1.89566
1.90113
1.91103
1.92384
1.93749
1.95058
1.96135
1.96965
1.97494
1.97814
1.97923
1.97909
1.97815
1.97633
1.97515
1.97267
1.97074
1.96726
1.96467
1.96077
1.9578
1.9537
1.95054
1.94637
1.94311
1.93899
1.9357
1.93168
1.92835
1.9244
1.92104
1.9171
1.91372
1.90976
1.90637
1.90238
1.89891
1.89482
1.89116
1.88685
1.88293
1.87838
1.87422
1.86947
1.86513
1.86028
1.85585
1.85105
1.8467
1.84212
1.83821
1.83447
1.83258
2.15952
2.13843
2.11804
2.09839
2.07838
2.05775
2.03769
2.01843
2.00001
1.98372
1.96982
1.95886
1.95619
1.96113
1.97216
1.99338
2.03612
2.11284
2.20931
2.27439
2.29593
2.29566
2.28955
2.27675
2.25765
2.23678
2.21644
2.19606
2.17545
2.1542
2.13254
2.11046
2.08788
2.0659
2.04378
2.02294
2.00215
1.98293
1.96414
1.94706
1.93091
1.91656
1.90387
1.89324
1.88491
1.8793
1.87503
1.87236
1.87116
1.87353
1.87999
1.89069
1.90307
1.91608
1.92764
1.93715
1.94387
1.94805
1.95002
1.95001
1.94892
1.94792
1.94586
1.94428
1.94109
1.9387
1.93494
1.93215
1.9281
1.92498
1.92075
1.91741
1.91319
1.90979
1.90567
1.90225
1.89823
1.89493
1.89104
1.88786
1.88408
1.88095
1.87717
1.87395
1.87007
1.86671
1.86271
1.85917
1.85505
1.85135
1.84711
1.84325
1.83893
1.83497
1.83064
1.82677
1.8226
1.81914
1.81575
1.81406
2.14601
2.12688
2.10776
2.08876
2.07026
2.05125
2.03203
2.01411
1.9966
1.98142
1.96951
1.96454
1.96785
1.97838
1.99765
2.03658
2.10755
2.20167
2.2701
2.29586
2.29837
2.29344
2.28264
2.26614
2.24767
2.22996
2.21237
2.19413
2.1752
2.15487
2.13398
2.11225
2.09056
2.06891
2.04746
2.02641
2.00577
1.98594
1.96672
1.9487
1.93149
1.91542
1.90095
1.88728
1.87624
1.86614
1.85946
1.85354
1.84974
1.84684
1.84668
1.85025
1.85791
1.86887
1.88111
1.89325
1.90358
1.91174
1.91686
1.91979
1.9204
1.91984
1.91843
1.91723
1.91473
1.91256
1.90893
1.90612
1.9021
1.89899
1.89481
1.89153
1.88731
1.88393
1.87977
1.87632
1.87226
1.86894
1.86508
1.86194
1.85826
1.85529
1.85173
1.84884
1.84531
1.84238
1.83883
1.83578
1.83213
1.82892
1.82516
1.82179
1.81794
1.8145
1.81064
1.80729
1.80364
1.80067
1.79779
1.79634
2.13059
2.11461
2.09547
2.07714
2.05992
2.0429
2.02551
2.00886
1.99363
1.98076
1.97349
1.97558
1.98563
2.00355
2.0397
2.1059
2.19729
2.26775
2.29591
2.30012
2.29579
2.28613
2.2708
2.25424
2.23845
2.22315
2.20728
2.19023
2.17189
2.15257
2.13243
2.11192
2.09094
2.06993
2.0488
2.02805
2.00753
1.98794
1.96836
1.95002
1.93166
1.91501
1.89858
1.88381
1.87001
1.85762
1.84718
1.83837
1.83205
1.82626
1.82297
1.82064
1.82151
1.82599
1.83501
1.84563
1.85796
1.86864
1.87818
1.88448
1.88875
1.89019
1.89008
1.88914
1.88739
1.88589
1.88281
1.88025
1.87624
1.8734
1.86913
1.86615
1.86175
1.85864
1.85419
1.85103
1.84676
1.84369
1.83969
1.83676
1.83307
1.83029
1.82686
1.82417
1.82091
1.81824
1.81505
1.81234
1.80912
1.80634
1.80304
1.8002
1.79685
1.79399
1.79071
1.78796
1.78495
1.7826
1.78034
1.77924
2.11365
2.10205
2.08459
2.06687
2.04969
2.03395
2.01768
2.00318
1.99007
1.98247
1.98371
1.99357
2.01093
2.04511
2.10811
2.19608
2.26719
2.29687
2.30178
2.29748
2.28771
2.27247
2.25689
2.24253
2.22913
2.21503
2.20017
2.18379
2.16668
2.14824
2.12935
2.10941
2.08935
2.0688
2.04836
2.02808
2.0079
1.98827
1.96863
1.95005
1.93134
1.91417
1.8967
1.88125
1.86549
1.85198
1.83868
1.82762
1.81782
1.81019
1.80392
1.79855
1.79576
1.79427
1.79615
1.80192
1.81124
1.822
1.83341
1.84331
1.85159
1.85671
1.85993
1.86029
1.85979
1.85865
1.85693
1.85443
1.85131
1.84783
1.8444
1.84076
1.83714
1.83347
1.8296
1.82598
1.8221
1.81874
1.81495
1.81193
1.8083
1.8056
1.80215
1.79975
1.79645
1.79426
1.79109
1.78892
1.7859
1.78362
1.78074
1.77838
1.7756
1.7733
1.77069
1.76859
1.76632
1.76472
1.76316
1.76249
2.09181
2.08717
2.07397
2.05668
2.04017
2.02538
2.01123
1.99887
1.99038
1.99133
2.00136
2.01825
2.05135
2.11314
2.19872
2.26839
2.29751
2.30262
2.29826
2.28769
2.27273
2.25668
2.2439
2.23117
2.2195
2.20606
2.19228
2.17644
2.16022
2.14221
2.12427
2.10477
2.08589
2.06561
2.04639
2.02596
2.00679
1.98665
1.96786
1.94851
1.93031
1.91221
1.8948
1.87832
1.86192
1.84733
1.83239
1.81999
1.80726
1.79767
1.7882
1.78169
1.77471
1.77086
1.76826
1.76786
1.77064
1.77727
1.78659
1.79775
1.80817
1.81758
1.82432
1.82868
1.83059
1.83054
1.82972
1.82845
1.82621
1.82343
1.81977
1.81646
1.8125
1.80913
1.80508
1.80171
1.79773
1.79447
1.79065
1.7876
1.784
1.78123
1.77793
1.7754
1.77243
1.77011
1.76741
1.76535
1.7628
1.76096
1.75851
1.75681
1.75453
1.75305
1.75099
1.74993
1.74833
1.74771
1.74698
1.74676
2.0676
2.06915
2.06082
2.04664
2.02911
2.01538
2.00364
1.99618
1.99739
2.00792
2.02555
2.05918
2.12061
2.2049
2.27279
2.30023
2.30467
2.29985
2.28815
2.27145
2.25565
2.24264
2.23134
2.22015
2.20871
2.19588
2.18229
2.16711
2.15137
2.13421
2.11683
2.09828
2.07986
2.06049
2.04167
2.02189
2.00314
1.98332
1.96499
1.9455
1.92788
1.90911
1.89239
1.87473
1.85896
1.84275
1.82798
1.81361
1.80011
1.78802
1.77641
1.76745
1.75851
1.75213
1.74555
1.74278
1.74062
1.74141
1.74508
1.75253
1.76208
1.77305
1.78277
1.79142
1.79701
1.80074
1.80163
1.80143
1.80046
1.79908
1.79642
1.79298
1.78951
1.78557
1.78207
1.77813
1.77457
1.77085
1.76727
1.76385
1.76042
1.75735
1.75428
1.75153
1.74892
1.74648
1.7443
1.74221
1.74036
1.7387
1.73702
1.73579
1.73435
1.73349
1.73259
1.73203
1.73202
1.73212
1.73288
1.73285
2.03789
2.05068
2.04786
2.03677
2.02176
2.00753
1.99955
2.00103
2.01277
2.03099
2.06647
2.12952
2.21384
2.27953
2.30465
2.30775
2.30216
2.28874
2.26966
2.25377
2.24059
2.23004
2.21933
2.20884
2.19689
2.1846
2.17071
2.15654
2.14083
2.12492
2.1077
2.09042
2.0722
2.05404
2.03526
2.01671
1.99777
1.97916
1.96049
1.942
1.92405
1.90588
1.88893
1.8712
1.85535
1.83827
1.82355
1.80753
1.79403
1.77959
1.76758
1.75541
1.74548
1.7365
1.72871
1.72216
1.71693
1.71483
1.71362
1.71537
1.72019
1.72838
1.73834
1.74891
1.75821
1.76582
1.77061
1.77333
1.77367
1.77322
1.77224
1.77018
1.76701
1.76364
1.75968
1.7563
1.75238
1.74908
1.74536
1.74203
1.73861
1.73533
1.73234
1.72929
1.72677
1.7241
1.72202
1.71984
1.71818
1.71664
1.71538
1.71459
1.71387
1.71387
1.71406
1.71446
1.71542
1.71718
1.71883
1.7199
1.98293
2.02163
2.02843
2.02417
2.01494
2.00477
2.00403
2.01567
2.03506
2.07366
2.1401
2.22611
2.28864
2.31142
2.31191
2.30537
2.28948
2.26937
2.25215
2.23892
2.22779
2.21772
2.20732
2.1965
2.18462
2.1721
2.15847
2.14433
2.12916
2.1137
2.09724
2.08068
2.06314
2.0457
2.02748
2.00954
1.9911
1.97309
1.95475
1.93703
1.91898
1.9017
1.88412
1.86728
1.85048
1.83416
1.81847
1.80279
1.78839
1.77356
1.76061
1.74705
1.73594
1.72437
1.71582
1.70667
1.7
1.69321
1.69027
1.68826
1.68869
1.69125
1.69709
1.70582
1.71604
1.72595
1.73474
1.74114
1.74523
1.74684
1.7468
1.74625
1.74481
1.74219
1.73887
1.73507
1.73169
1.72786
1.72467
1.72105
1.71795
1.71462
1.71161
1.70871
1.70595
1.70361
1.70126
1.69955
1.69774
1.69674
1.69573
1.69556
1.69577
1.6963
1.69743
1.69914
1.70095
1.70421
1.7079
1.70992
1.88444
1.98903
2.00958
2.01177
2.008
2.00805
2.01759
2.03976
2.08074
2.15133
2.23937
2.29926
2.31983
2.31804
2.30869
2.29004
2.26892
2.25134
2.2375
2.22624
2.21616
2.20606
2.19556
2.18418
2.17216
2.15933
2.14592
2.13188
2.11726
2.10213
2.08643
2.07035
2.05375
2.03695
2.01968
2.00242
1.98472
1.96726
1.9494
1.93202
1.91422
1.89713
1.87957
1.86304
1.8459
1.83012
1.81355
1.79858
1.78278
1.76869
1.75395
1.74095
1.72757
1.71618
1.70461
1.6955
1.68631
1.67899
1.67178
1.6675
1.66464
1.66445
1.66568
1.66914
1.67611
1.68546
1.69575
1.7053
1.71336
1.71883
1.72208
1.72285
1.7226
1.72175
1.71977
1.71676
1.71304
1.70952
1.70565
1.70244
1.69881
1.69584
1.69261
1.6898
1.68713
1.6846
1.68262
1.6806
1.67946
1.67824
1.67819
1.67849
1.6792
1.6807
1.68226
1.68543
1.68928
1.69451
1.70007
1.7035
1.69857
1.91783
1.98168
1.99908
2.00702
2.0186
2.04308
2.09116
2.17028
2.25916
2.31269
2.3291
2.3256
2.31254
2.29106
2.26856
2.25054
2.23613
2.22486