/*--------------------------------*- C++ -*----------------------------------*\
  =========                 |
  \\      /  F ield         | OpenFOAM: The Open Source CFD Toolbox
   \\    /   O peration     | Website:  https://openfoam.org
    \\  /    A nd           | Version:  9
     \\/     M anipulation  |
\*---------------------------------------------------------------------------*/
FoamFile
{
    format      ascii;
    class       volVectorField;
    location    "6";
    object      U;
}
// * * * * * * * * * * * * * * * * * * * * * * * * * * * * * * * * * * * * * //

dimensions      [0 1 -1 0 0 0 0];

internalField   nonuniform List<vector> 
5250
(
(3 1.14745e-08 0)
(2.99999 6.84756e-08 0)
(2.99996 1.46941e-07 0)
(2.99991 7.03913e-07 0)
(2.99977 1.46691e-06 0)
(2.99942 3.50136e-06 0)
(2.99859 1.46209e-05 0)
(2.99646 1.35892e-05 0)
(2.99133 0.00010463 0)
(2.97815 0.000109213 0)
(2.94414 0.000558166 0)
(2.85018 0.00111767 0)
(2.57638 0.00347613 0)
(1.78226 0.00974298 0)
(0.820593 0.0259248 0)
(0.465892 0.0242274 0)
(0.537472 0.024426 0)
(0.554489 0.0262598 0)
(0.500221 0.0280818 0)
(0.410783 0.0298888 0)
(0.32721 0.0320773 0)
(0.259189 0.0346298 0)
(0.19091 0.0372571 0)
(0.113847 0.040241 0)
(0.0490663 0.0442913 0)
(3 3.07102e-08 0)
(2.99999 2.56941e-07 0)
(2.99996 6.89895e-07 0)
(2.99991 2.49761e-06 0)
(2.99977 5.49952e-06 0)
(2.99943 1.59137e-05 0)
(2.9986 3.68538e-05 0)
(2.99654 9.4425e-05 0)
(2.99141 0.000230786 0)
(2.97851 0.000576783 0)
(2.94502 0.001452 0)
(2.85246 0.00383387 0)
(2.58385 0.0105592 0)
(1.79977 0.0304466 0)
(0.830835 0.0790639 0)
(0.461979 0.0699185 0)
(0.536754 0.0673055 0)
(0.554985 0.0702711 0)
(0.500452 0.0732081 0)
(0.4111 0.076185 0)
(0.327635 0.0796604 0)
(0.25914 0.0834526 0)
(0.189945 0.0868571 0)
(0.111673 0.0900393 0)
(0.046353 0.0928364 0)
(3 5.78614e-08 0)
(2.99999 3.982e-07 0)
(2.99997 1.381e-06 0)
(2.99991 3.87141e-06 0)
(2.99978 1.01354e-05 0)
(2.99945 2.67726e-05 0)
(2.99866 6.08769e-05 0)
(2.99662 0.000173254 0)
(2.99173 0.000363442 0)
(2.97916 0.00105097 0)
(2.94687 0.00238624 0)
(2.85773 0.00659563 0)
(2.59869 0.0179061 0)
(1.84053 0.051937 0)
(0.85504 0.13642 0)
(0.457757 0.118624 0)
(0.539164 0.112891 0)
(0.560274 0.118016 0)
(0.50569 0.123576 0)
(0.416799 0.129831 0)
(0.333597 0.136468 0)
(0.26449 0.143422 0)
(0.194066 0.149951 0)
(0.114054 0.155678 0)
(0.0465143 0.159195 0)
(3 1.04806e-07 0)
(2.99999 4.43843e-07 0)
(2.99997 2.13637e-06 0)
(2.99991 4.42057e-06 0)
(2.99979 1.56722e-05 0)
(2.99947 3.03277e-05 0)
(2.99872 9.88148e-05 0)
(2.99679 0.000192832 0)
(2.99214 0.000598855 0)
(2.98021 0.00125392 0)
(2.94961 0.00358721 0)
(2.86553 0.00877759 0)
(2.62153 0.0250436 0)
(1.903 0.0717696 0)
(0.893473 0.192502 0)
(0.453795 0.167164 0)
(0.545236 0.158113 0)
(0.571047 0.165316 0)
(0.516778 0.173613 0)
(0.428619 0.18362 0)
(0.345457 0.193798 0)
(0.275549 0.204388 0)
(0.203456 0.214762 0)
(0.120504 0.223849 0)
(0.0488508 0.228617 0)
(3 1.02266e-07 0)
(2.99999 6.59334e-07 0)
(2.99997 2.21605e-06 0)
(2.99992 6.52745e-06 0)
(2.9998 1.68379e-05 0)
(2.99952 4.28042e-05 0)
(2.99879 0.000109589 0)
(2.99704 0.00026205 0)
(2.99261 0.000685446 0)
(2.98166 0.00164019 0)
(2.95312 0.00427212 0)
(2.87567 0.0110308 0)
(2.65151 0.0306788 0)
(1.98666 0.0887017 0)
(0.947873 0.243756 0)
(0.45441 0.215418 0)
(0.556724 0.203274 0)
(0.588253 0.211878 0)
(0.534474 0.22261 0)
(0.447189 0.236659 0)
(0.363699 0.250858 0)
(0.292583 0.265731 0)
(0.218238 0.280801 0)
(0.131042 0.294375 0)
(0.0532997 0.301408 0)
(3 1.06769e-07 0)
(2.99999 7.3998e-07 0)
(2.99997 2.42584e-06 0)
(2.99993 7.30535e-06 0)
(2.99982 1.84451e-05 0)
(2.99955 4.90964e-05 0)
(2.99891 0.000117882 0)
(2.99727 0.000309194 0)
(2.99329 0.000733415 0)
(2.98319 0.00193084 0)
(2.95746 0.00469796 0)
(2.88749 0.0125944 0)
(2.68702 0.0344712 0)
(2.08922 0.100458 0)
(1.02068 0.28599 0)
(0.467857 0.266055 0)
(0.576826 0.252742 0)
(0.613787 0.260742 0)
(0.560825 0.272552 0)
(0.474599 0.290497 0)
(0.39017 0.309214 0)
(0.317302 0.329344 0)
(0.240042 0.350615 0)
(0.147078 0.370862 0)
(0.0606233 0.382547 0)
(3 1.20527e-07 0)
(2.99999 7.04644e-07 0)
(2.99997 2.58765e-06 0)
(2.99993 6.93962e-06 0)
(2.99984 1.94248e-05 0)
(2.9996 4.6474e-05 0)
(2.99901 0.000124546 0)
(2.99755 0.000289844 0)
(2.99397 0.000774448 0)
(2.98496 0.00182034 0)
(2.96202 0.00480664 0)
(2.90057 0.0121719 0)
(2.72543 0.0338177 0)
(2.20771 0.0975058 0)
(1.12314 0.286929 0)
(0.51558 0.305605 0)
(0.614529 0.303659 0)
(0.651763 0.310971 0)
(0.599363 0.323637 0)
(0.514225 0.345815 0)
(0.427932 0.369983 0)
(0.352379 0.396614 0)
(0.271546 0.42602 0)
(0.171473 0.456343 0)
(0.0728028 0.477698 0)
(3 1.04778e-07 0)
(2.99999 6.69263e-07 0)
(2.99998 2.29486e-06 0)
(2.99994 6.59469e-06 0)
(2.99985 1.71459e-05 0)
(2.99964 4.37651e-05 0)
(2.99911 0.00010888 0)
(2.99781 0.000269973 0)
(2.99456 0.00067061 0)
(2.98655 0.00165974 0)
(2.9661 0.00416543 0)
(2.91171 0.0106937 0)
(2.75869 0.0288511 0)
(2.30635 0.0821498 0)
(1.23182 0.244443 0)
(0.561241 0.337123 0)
(0.641596 0.361096 0)
(0.680048 0.362547 0)
(0.635918 0.375645 0)
(0.557723 0.402 0)
(0.473047 0.433041 0)
(0.39708 0.46801 0)
(0.314537 0.508187 0)
(0.208419 0.553768 0)
(0.0936656 0.595786 0)
(3 9.53569e-08 0)
(2.99999 6.2829e-07 0)
(2.99998 2.12472e-06 0)
(2.99995 6.20051e-06 0)
(2.99987 1.57447e-05 0)
(2.99968 4.14132e-05 0)
(2.9992 9.78204e-05 0)
(2.99802 0.000256409 0)
(2.99512 0.000593446 0)
(2.98787 0.00155763 0)
(2.96955 0.00370057 0)
(2.92113 0.00969374 0)
(2.78479 0.025479 0)
(2.38435 0.0716671 0)
(1.35247 0.211917 0)
(0.623159 0.38259 0)
(0.653562 0.416672 0)
(0.685764 0.41308 0)
(0.661892 0.428254 0)
(0.59836 0.456699 0)
(0.521592 0.496177 0)
(0.450036 0.541504 0)
(0.371167 0.595343 0)
(0.266117 0.665701 0)
(0.131652 0.751817 0)
(3 8.92486e-08 0)
(2.99999 6.53615e-07 0)
(2.99998 1.97714e-06 0)
(2.99995 6.41183e-06 0)
(2.99988 1.47615e-05 0)
(2.99971 4.16508e-05 0)
(2.99929 9.46506e-05 0)
(2.99822 0.000250464 0)
(2.99565 0.000589691 0)
(2.98914 0.00150136 0)
(2.97288 0.00366477 0)
(2.92984 0.00942054 0)
(2.81002 0.0247191 0)
(2.45838 0.0693834 0)
(1.50295 0.203472 0)
(0.714665 0.43219 0)
(0.659602 0.454992 0)
(0.688656 0.454857 0)
(0.68249 0.475391 0)
(0.636007 0.507012 0)
(0.573564 0.555008 0)
(0.511547 0.611623 0)
(0.446831 0.685708 0)
(0.361159 0.799576 0)
(0.203328 1.00591 0)
(3 1.043e-07 0)
(2.99999 5.84945e-07 0)
(2.99998 2.20724e-06 0)
(2.99996 5.76245e-06 0)
(2.9999 1.63748e-05 0)
(2.99974 3.84666e-05 0)
(2.99937 0.00010344 0)
(2.99844 0.000236982 0)
(2.99617 0.000633225 0)
(2.99043 0.00145493 0)
(2.97616 0.00384605 0)
(2.9386 0.00934475 0)
(2.83488 0.0251554 0)
(2.53194 0.0695319 0)
(1.675 0.202865 0)
(0.827316 0.479619 0)
(0.665874 0.487425 0)
(0.696968 0.48959 0)
(0.705287 0.513006 0)
(0.674523 0.550574 0)
(0.629094 0.604343 0)
(0.585601 0.672026 0)
(0.554713 0.765394 0)
(0.552081 0.908996 0)
(0.589653 1.15236 0)
(3 1.05347e-07 0)
(2.99999 5.77464e-07 0)
(2.99999 2.25467e-06 0)
(2.99996 5.6833e-06 0)
(2.99991 1.67678e-05 0)
(2.99978 3.83542e-05 0)
(2.99945 0.000105326 0)
(2.99867 0.000240766 0)
(2.99666 0.000640198 0)
(2.99182 0.0014977 0)
(2.97945 0.00390771 0)
(2.94761 0.00957949 0)
(2.86016 0.0255664 0)
(2.60635 0.0704397 0)
(1.86855 0.204427 0)
(0.962075 0.523391 0)
(0.678782 0.520618 0)
(0.712348 0.521379 0)
(0.7337 0.54321 0)
(0.716858 0.585925 0)
(0.688447 0.643326 0)
(0.667811 0.718593 0)
(0.672364 0.820218 0)
(0.729965 0.960112 0)
(0.871065 1.14262 0)
(3 9.60642e-08 0)
(3 6.03475e-07 0)
(2.99999 2.12373e-06 0)
(2.99997 5.93145e-06 0)
(2.99992 1.59006e-05 0)
(2.99982 3.98087e-05 0)
(2.99954 0.000100843 0)
(2.99888 0.000249977 0)
(2.99721 0.000619574 0)
(2.99316 0.00155037 0)
(2.98288 0.00385694 0)
(2.9567 0.00974102 0)
(2.8855 0.0255375 0)
(2.68176 0.0703734 0)
(2.07807 0.204458 0)
(1.12199 0.560179 0)
(0.712924 0.562759 0)
(0.741939 0.561551 0)
(0.771878 0.573717 0)
(0.766699 0.615387 0)
(0.751735 0.674016 0)
(0.751459 0.749632 0)
(0.78117 0.846143 0)
(0.863287 0.962481 0)
(1.02243 1.07579 0)
(3 8.05106e-08 0)
(3 5.62266e-07 0)
(2.99999 1.81481e-06 0)
(2.99998 5.53979e-06 0)
(2.99994 1.36195e-05 0)
(2.99985 3.69538e-05 0)
(2.99963 8.64496e-05 0)
(2.9991 0.000229734 0)
(2.99775 0.000534297 0)
(2.99452 0.00141037 0)
(2.98627 0.00332845 0)
(2.96571 0.00870962 0)
(2.91076 0.0219765 0)
(2.75686 0.0605121 0)
(2.3066 0.173598 0)
(1.33684 0.507305 0)
(0.804744 0.587955 0)
(0.800408 0.605452 0)
(0.824513 0.611075 0)
(0.828173 0.64466 0)
(0.82061 0.698805 0)
(0.831281 0.767942 0)
(0.873884 0.850493 0)
(0.961067 0.940832 0)
(1.11068 1.01392 0)
(3 7.04296e-08 0)
(3 4.53593e-07 0)
(2.99999 1.56757e-06 0)
(2.99998 4.45687e-06 0)
(2.99995 1.16464e-05 0)
(2.99988 2.96675e-05 0)
(2.9997 7.26361e-05 0)
(2.99925 0.000183648 0)
(2.9982 0.000439806 0)
(2.99549 0.00111964 0)
(2.98897 0.00267474 0)
(2.97224 0.00683719 0)
(2.9287 0.0170265 0)
(2.80795 0.0455117 0)
(2.45675 0.127278 0)
(1.54928 0.381557 0)
(0.895757 0.616071 0)
(0.846156 0.64934 0)
(0.86694 0.657897 0)
(0.884331 0.677421 0)
(0.886818 0.721057 0)
(0.904037 0.779473 0)
(0.951233 0.846449 0)
(1.0357 0.915062 0)
(1.16916 0.966687 0)
(3 6.05213e-08 0)
(3 3.92183e-07 0)
(2.99999 1.32378e-06 0)
(2.99998 3.84638e-06 0)
(2.99996 9.90333e-06 0)
(2.9999 2.52881e-05 0)
(2.99976 6.30032e-05 0)
(2.9994 0.000153878 0)
(2.99853 0.000386158 0)
(2.99638 0.000925517 0)
(2.99104 0.00234584 0)
(2.97765 0.005685 0)
(2.94286 0.0144983 0)
(2.84751 0.0377244 0)
(2.57163 0.104371 0)
(1.79649 0.306579 0)
(1.03021 0.659805 0)
(0.87537 0.686831 0)
(0.893426 0.697936 0)
(0.923211 0.706752 0)
(0.94249 0.739966 0)
(0.967072 0.787759 0)
(1.01566 0.841229 0)
(1.09492 0.893322 0)
(1.21192 0.93149 0)
(3 5.24394e-08 0)
(3 3.40597e-07 0)
(2.99999 1.15651e-06 0)
(2.99999 3.35248e-06 0)
(2.99997 8.66482e-06 0)
(2.99992 2.22583e-05 0)
(2.99981 5.49384e-05 0)
(2.99952 0.000137147 0)
(2.99884 0.000337448 0)
(2.99712 0.000835725 0)
(2.99294 0.00206962 0)
(2.98235 0.00514767 0)
(2.9554 0.0129558 0)
(2.88218 0.0337654 0)
(2.67325 0.0927808 0)
(2.06028 0.269459 0)
(1.2103 0.685348 0)
(0.914826 0.718217 0)
(0.922064 0.727868 0)
(0.956657 0.730651 0)
(0.990235 0.753584 0)
(1.02167 0.7927 0)
(1.07012 0.836132 0)
(1.1434 0.8764 0)
(1.24567 0.905115 0)
(3 4.66752e-08 0)
(3 2.80532e-07 0)
(3 1.00905e-06 0)
(2.99999 2.76324e-06 0)
(2.99998 7.51079e-06 0)
(2.99994 1.83831e-05 0)
(2.99985 4.74925e-05 0)
(2.99964 0.000113584 0)
(2.99911 0.00029087 0)
(2.99782 0.000693719 0)
(2.99463 0.00177668 0)
(2.98672 0.00427556 0)
(2.96671 0.0109787 0)
(2.91395 0.0278436 0)
(2.76651 0.0760678 0)
(2.33607 0.218007 0)
(1.45997 0.617877 0)
(1.00892 0.73034 0)
(0.974379 0.75041 0)
(0.996991 0.756062 0)
(1.03679 0.768077 0)
(1.07316 0.797568 0)
(1.11923 0.832251 0)
(1.18536 0.863625 0)
(1.27454 0.885354 0)
(3 3.388e-08 0)
(3 2.34665e-07 0)
(3 7.58212e-07 0)
(2.99999 2.29874e-06 0)
(2.99998 5.67457e-06 0)
(2.99995 1.51478e-05 0)
(2.99989 3.57581e-05 0)
(2.99973 9.26536e-05 0)
(2.99932 0.000217486 0)
(2.99836 0.000557573 0)
(2.99592 0.00132419 0)
(2.99002 0.00335893 0)
(2.97504 0.00816455 0)
(2.93633 0.0209369 0)
(2.83038 0.0547671 0)
(2.52503 0.153685 0)
(1.72909 0.457533 0)
(1.12246 0.737944 0)
(1.02732 0.772007 0)
(1.03779 0.785961 0)
(1.07734 0.788951 0)
(1.11902 0.806723 0)
(1.16347 0.831903 0)
(1.22284 0.855426 0)
(1.30076 0.871385 0)
(3 2.88627e-08 0)
(3 1.77223e-07 0)
(3 6.29614e-07 0)
(2.99999 1.74436e-06 0)
(2.99999 4.67762e-06 0)
(2.99997 1.16052e-05 0)
(2.99992 2.92863e-05 0)
(2.99979 7.13764e-05 0)
(2.9995 0.000177067 0)
(2.99875 0.000433534 0)
(2.99696 0.00106481 0)
(2.99242 0.00263349 0)
(2.98135 0.00650284 0)
(2.95258 0.0162829 0)
(2.87527 0.0423537 0)
(2.6549 0.115654 0)
(2.02288 0.340453 0)
(1.28733 0.755619 0)
(1.07229 0.801783 0)
(1.07066 0.815688 0)
(1.10728 0.813653 0)
(1.15588 0.817374 0)
(1.20161 0.833388 0)
(1.25615 0.850504 0)
(1.32494 0.861939 0)
(3 2.32836e-08 0)
(3 1.39583e-07 0)
(3 5.04122e-07 0)
(3 1.3737e-06 0)
(2.99999 3.74598e-06 0)
(2.99997 9.12656e-06 0)
(2.99994 2.3535e-05 0)
(2.99985 5.62018e-05 0)
(2.99963 0.000143009 0)
(2.9991 0.000341605 0)
(2.99775 0.000861923 0)
(2.99455 0.00208535 0)
(2.9864 0.00524244 0)
(2.96616 0.0129962 0)
(2.91235 0.0335363 0)
(2.76278 0.0904665 0)
(2.32533 0.26069 0)
(1.53111 0.694478 0)
(1.1568 0.814025 0)
(1.11793 0.833713 0)
(1.13859 0.836401 0)
(1.18683 0.830768 0)
(1.23654 0.837167 0)
(1.28761 0.848213 0)
(1.34856 0.855959 0)
(3 1.70762e-08 0)
(3 1.09732e-07 0)
(3 3.77085e-07 0)
(3 1.0747e-06 0)
(2.99999 2.80357e-06 0)
(2.99998 7.11128e-06 0)
(2.99996 1.75374e-05 0)
(2.99989 4.35981e-05 0)
(2.99973 0.000105965 0)
(2.99934 0.000263109 0)
(2.99842 0.000637661 0)
(2.99607 0.00158656 0)
(2.99044 0.00387135 0)
(2.97616 0.00966593 0)
(2.93951 0.0243526 0)
(2.84017 0.0641624 0)
(2.55476 0.179789 0)
(1.82856 0.524508 0)
(1.28085 0.809385 0)
(1.17295 0.843884 0)
(1.17565 0.856515 0)
(1.21566 0.849696 0)
(1.26725 0.845488 0)
(1.31704 0.849306 0)
(1.37201 0.853267 0)
(3 1.27476e-08 0)
(3 8.32542e-08 0)
(3 2.78933e-07 0)
(3 8.16472e-07 0)
(2.99999 2.08187e-06 0)
(2.99999 5.34929e-06 0)
(2.99997 1.31712e-05 0)
(2.99992 3.24441e-05 0)
(2.99981 8.03135e-05 0)
(2.99954 0.000193795 0)
(2.99886 0.000487498 0)
(2.99725 0.00115781 0)
(2.99313 0.00295221 0)
(2.98321 0.00705863 0)
(2.95753 0.0180466 0)
(2.8894 0.0459678 0)
(2.69747 0.125557 0)
(2.14474 0.368257 0)
(1.45616 0.807563 0)
(1.22657 0.866992 0)
(1.21223 0.876889 0)
(1.23957 0.870728 0)
(1.29081 0.85842 0)
(1.34287 0.854839 0)
(1.3948 0.854457 0)
(3 9.40897e-09 0)
(3 5.99764e-08 0)
(3 2.07527e-07 0)
(3 5.87973e-07 0)
(3 1.54166e-06 0)
(2.99999 3.8979e-06 0)
(2.99998 9.61947e-06 0)
(2.99995 2.39534e-05 0)
(2.99987 5.79104e-05 0)
(2.99968 0.000144357 0)
(2.99922 0.000347501 0)
(2.99813 0.000867908 0)
(2.99535 0.00209224 0)
(2.98872 0.00524653 0)
(2.97186 0.0128763 0)
(2.92857 0.0329703 0)
(2.81113 0.0876963 0)
(2.46981 0.251492 0)
(1.73949 0.674772 0)
(1.33176 0.855521 0)
(1.26688 0.881607 0)
(1.27466 0.886789 0)
(1.31685 0.874233 0)
(1.36854 0.864466 0)
(1.41791 0.859707 0)
(3 6.77649e-09 0)
(3 4.23124e-08 0)
(3 1.48223e-07 0)
(3 4.14064e-07 0)
(3 1.09674e-06 0)
(2.99999 2.73176e-06 0)
(2.99998 6.81534e-06 0)
(2.99996 1.6659e-05 0)
(2.99991 4.07652e-05 0)
(2.99978 9.97452e-05 0)
(2.99946 0.000241605 0)
(2.9987 0.000595831 0)
(2.99678 0.00143229 0)
(2.99219 0.00355715 0)
(2.98058 0.0086508 0)
(2.95133 0.0216662 0)
(2.87268 0.0558277 0)
(2.65103 0.152234 0)
(2.04758 0.442904 0)
(1.46685 0.829017 0)
(1.31671 0.888108 0)
(1.30859 0.9021 0)
(1.33937 0.893754 0)
(1.39025 0.877024 0)
(1.43961 0.867855 0)
(3 4.63753e-09 0)
(3 3.09489e-08 0)
(3 1.03548e-07 0)
(3 3.02737e-07 0)
(3 7.67131e-07 0)
(3 1.99402e-06 0)
(2.99999 4.76097e-06 0)
(2.99997 1.21431e-05 0)
(2.99994 2.8591e-05 0)
(2.99985 7.26715e-05 0)
(2.99963 0.000170726 0)
(2.99912 0.000432299 0)
(2.99782 0.0010219 0)
(2.99473 0.00257923 0)
(2.98692 0.00618937 0)
(2.96764 0.0156304 0)
(2.91685 0.0393271 0)
(2.77739 0.105686 0)
(2.37264 0.303299 0)
(1.70028 0.747553 0)
(1.39407 0.888004 0)
(1.35007 0.911787 0)
(1.36321 0.913455 0)
(1.40808 0.895641 0)
(1.45968 0.879671 0)
(3 3.38149e-09 0)
(3 2.09154e-08 0)
(3 7.4238e-08 0)
(3 2.0483e-07 0)
(3 5.48589e-07 0)
(3 1.35695e-06 0)
(2.99999 3.38931e-06 0)
(2.99998 8.30139e-06 0)
(2.99996 2.0196e-05 0)
(2.9999 4.99902e-05 0)
(2.99976 0.000119508 0)
(2.99941 0.000299231 0)
(2.99857 0.000708919 0)
(2.9965 0.0017922 0)
(2.99145 0.00425322 0)
(2.97888 0.0108057 0)
(2.94698 0.0265202 0)
(2.86153 0.0700392 0)
(2.61891 0.193536 0)
(2.00912 0.548635 0)
(1.52285 0.864017 0)
(1.40299 0.916155 0)
(1.3954 0.928381 0)
(1.42547 0.917404 0)
(1.47503 0.894556 0)
(3 2.38181e-09 0)
(3 1.42183e-08 0)
(3 5.13827e-08 0)
(3 1.39313e-07 0)
(3 3.79321e-07 0)
(3 9.17817e-07 0)
(3 2.36091e-06 0)
(2.99999 5.57371e-06 0)
(2.99997 1.41111e-05 0)
(2.99993 3.33507e-05 0)
(2.99984 8.36254e-05 0)
(2.99961 0.000199168 0)
(2.99906 0.000493879 0)
(2.99769 0.00119125 0)
(2.99443 0.00293403 0)
(2.98617 0.00717972 0)
(2.96584 0.0178087 0)
(2.91229 0.0452784 0)
(2.76522 0.121189 0)
(2.3439 0.350264 0)
(1.73249 0.786586 0)
(1.47344 0.912346 0)
(1.43412 0.93517 0)
(1.4455 0.935633 0)
(1.4874 0.914822 0)
(3 1.53439e-09 0)
(3 1.0004e-08 0)
(3 3.35294e-08 0)
(3 9.79275e-08 0)
(3 2.48313e-07 0)
(3 6.40004e-07 0)
(3 1.55456e-06 0)
(2.99999 3.84962e-06 0)
(2.99998 9.37301e-06 0)
(2.99996 2.27541e-05 0)
(2.9999 5.60961e-05 0)
(2.99975 0.000134102 0)
(2.9994 0.000334383 0)
(2.99853 0.000792553 0)
(2.99644 0.0019959 0)
(2.99126 0.00473841 0)
(2.97858 0.0119993 0)
(2.94624 0.0294499 0)
(2.8602 0.0776695 0)
(2.61539 0.21575 0)
(2.03198 0.589531 0)
(1.59676 0.882564 0)
(1.48817 0.934922 0)
(1.47754 0.946492 0)
(1.50225 0.935666 0)
(3 9.98789e-10 0)
(3 6.68676e-09 0)
(3 2.2082e-08 0)
(3 6.52531e-08 0)
(3 1.6357e-07 0)
(3 4.25848e-07 0)
(3 1.01792e-06 0)
(3 2.56751e-06 0)
(2.99999 6.11094e-06 0)
(2.99997 1.51597e-05 0)
(2.99993 3.63643e-05 0)
(2.99984 8.91187e-05 0)
(2.99961 0.00021639 0)
(2.99907 0.000522697 0)
(2.99771 0.00128717 0)
(2.9945 0.00308814 0)
(2.9864 0.00769337 0)
(2.96649 0.0187418 0)
(2.91438 0.0479272 0)
(2.77181 0.127458 0)
(2.36873 0.365492 0)
(1.80063 0.793715 0)
(1.55691 0.923827 0)
(1.51568 0.948554 0)
(1.52252 0.950959 0)
(3 6.75847e-10 0)
(3 4.26355e-09 0)
(3 1.48592e-08 0)
(3 4.15511e-08 0)
(3 1.09738e-07 0)
(3 2.72416e-07 0)
(3 6.77613e-07 0)
(3 1.65388e-06 0)
(2.99999 4.02227e-06 0)
(2.99998 9.85142e-06 0)
(2.99996 2.36749e-05 0)
(2.9999 5.84145e-05 0)
(2.99976 0.000139275 0)
(2.99942 0.00034543 0)
(2.99858 0.000821276 0)
(2.9966 0.00204502 0)
(2.99161 0.00489701 0)
(2.97959 0.0122231 0)
(2.94887 0.0301945 0)
(2.86783 0.0786759 0)
(2.63819 0.218052 0)
(2.0955 0.585935 0)
(1.6792 0.887723 0)
(1.56913 0.946118 0)
(1.55417 0.958959 0)
(3 4.43566e-10 0)
(3 2.7189e-09 0)
(3 9.67899e-09 0)
(3 2.65022e-08 0)
(3 7.12566e-08 0)
(3 1.73711e-07 0)
(3 4.38507e-07 0)
(3 1.05054e-06 0)
(3 2.59495e-06 0)
(2.99999 6.25579e-06 0)
(2.99997 1.51897e-05 0)
(2.99994 3.7018e-05 0)
(2.99985 8.881e-05 0)
(2.99964 0.000219105 0)
(2.99913 0.00051864 0)
(2.9979 0.00129544 0)
(2.99487 0.00305442 0)
(2.98753 0.00767848 0)
(2.96917 0.0184715 0)
(2.92196 0.0472733 0)
(2.79417 0.12439 0)
(2.4325 0.354261 0)
(1.89313 0.775655 0)
(1.64145 0.926602 0)
(1.59298 0.956095 0)
(3 2.85662e-10 0)
(3 1.71878e-09 0)
(3 6.15326e-09 0)
(3 1.67939e-08 0)
(3 4.5179e-08 0)
(3 1.09756e-07 0)
(3 2.79332e-07 0)
(3 6.60315e-07 0)
(3 1.65761e-06 0)
(2.99999 3.90387e-06 0)
(2.99998 9.72836e-06 0)
(2.99996 2.30437e-05 0)
(2.99991 5.68248e-05 0)
(2.99978 0.000136153 0)
(2.99948 0.000331534 0)
(2.99871 0.000805228 0)
(2.99693 0.00193921 0)
(2.99243 0.00478191 0)
(2.98166 0.0115574 0)
(2.95419 0.0289861 0)
(2.88253 0.074043 0)
(2.681 0.203686 0)
(2.19075 0.54795 0)
(1.77042 0.882407 0)
(1.64458 0.951568 0)
(3 1.70682e-10 0)
(3 1.10624e-09 0)
(3 3.72274e-09 0)
(3 1.07818e-08 0)
(3 2.74158e-08 0)
(3 6.99725e-08 0)
(3 1.70052e-07 0)
(3 4.17759e-07 0)
(3 1.01444e-06 0)
(3 2.44294e-06 0)
(2.99999 5.99311e-06 0)
(2.99998 1.42372e-05 0)
(2.99995 3.52645e-05 0)
(2.99987 8.29856e-05 0)
(2.99969 0.000206926 0)
(2.99924 0.000485399 0)
(2.99818 0.00121224 0)
(2.99554 0.00285496 0)
(2.98929 0.00713856 0)
(2.97357 0.0171819 0)
(2.93396 0.0435591 0)
(2.82813 0.113759 0)
(2.52791 0.321322 0)
(2.00859 0.732335 0)
(1.72747 0.918067 0)
(3 1.03325e-10 0)
(3 6.77653e-10 0)
(3 2.2864e-09 0)
(3 6.59283e-09 0)
(3 1.68406e-08 0)
(3 4.29433e-08 0)
(3 1.03439e-07 0)
(3 2.57176e-07 0)
(3 6.11123e-07 0)
(3 1.50869e-06 0)
(2.99999 3.58242e-06 0)
(2.99999 8.78905e-06 0)
(2.99997 2.09783e-05 0)
(2.99992 5.10909e-05 0)
(2.99981 0.000122722 0)
(2.99955 0.000296523 0)
(2.9989 0.000719084 0)
(2.99736 0.00172401 0)
(2.99358 0.00421992 0)
(2.98438 0.010187 0)
(2.96133 0.0252252 0)
(2.9018 0.0638066 0)
(2.7366 0.172014 0)
(2.31291 0.46801 0)
(1.87224 0.844691 0)
(3 6.4502e-11 0)
(3 4.05125e-10 0)
(3 1.40972e-09 0)
(3 3.95359e-09 0)
(3 1.03385e-08 0)
(3 2.57897e-08 0)
(3 6.33335e-08 0)
(3 1.5463e-07 0)
(3 3.72693e-07 0)
(3 9.09792e-07 0)
(3 2.17164e-06 0)
(2.99999 5.32087e-06 0)
(2.99998 1.26575e-05 0)
(2.99995 3.1004e-05 0)
(2.99989 7.382e-05 0)
(2.99973 0.000180538 0)
(2.99937 0.000430978 0)
(2.99846 0.0010515 0)
(2.99634 0.00252861 0)
(2.99103 0.00616776 0)
(2.9783 0.0150621 0)
(2.94593 0.0375125 0)
(2.86131 0.0971519 0)
(2.62229 0.269873 0)
(2.1334 0.658768 0)
(3 3.80569e-11 0)
(3 2.47679e-10 0)
(3 8.32678e-10 0)
(3 2.41063e-09 0)
(3 6.11466e-09 0)
(3 1.56078e-08 0)
(3 3.76255e-08 0)
(3 9.28089e-08 0)
(3 2.22431e-07 0)
(3 5.40283e-07 0)
(3 1.30171e-06 0)
(3 3.12705e-06 0)
(2.99999 7.60461e-06 0)
(2.99997 1.80677e-05 0)
(2.99994 4.42802e-05 0)
(2.99985 0.000104477 0)
(2.99963 0.000257519 0)
(2.99911 0.000604417 0)
(2.99784 0.0014963 0)
(2.99481 0.00351761 0)
(2.98736 0.00874373 0)
(2.96906 0.0209591 0)
(2.9221 0.0531614 0)
(2.79544 0.139294 0)
(2.45193 0.384532 0)
(3 2.31088e-11 0)
(3 1.44509e-10 0)
(3 5.05093e-10 0)
(3 1.40647e-09 0)
(3 3.69806e-09 0)
(3 9.1505e-09 0)
(3 2.25698e-08 0)
(3 5.47371e-08 0)
(3 1.32262e-07 0)
(3 3.21608e-07 0)
(3 7.66567e-07 0)
(3 1.87617e-06 0)
(2.99999 4.44533e-06 0)
(2.99998 1.09198e-05 0)
(2.99996 2.57678e-05 0)
(2.99991 6.34131e-05 0)
(2.99979 0.000149863 0)
(2.99949 0.000368013 0)
(2.99876 0.000871702 0)
(2.99706 0.00214241 0)
(2.99281 0.00511405 0)
(2.98267 0.0126211 0)
(2.9571 0.030835 0)
(2.89102 0.0792026 0)
(2.70704 0.214517 0)
(3 1.36315e-11 0)
(3 8.46351e-11 0)
(3 2.95494e-10 0)
(3 8.23019e-10 0)
(3 2.16162e-09 0)
(3 5.33206e-09 0)
(3 1.3245e-08 0)
(3 3.17184e-08 0)
(3 7.78068e-08 0)
(3 1.84984e-07 0)
(3 4.51486e-07 0)
(3 1.07549e-06 0)
(3 2.61142e-06 0)
(2.99999 6.23962e-06 0)
(2.99998 1.50855e-05 0)
(2.99995 3.62257e-05 0)
(2.99988 8.705e-05 0)
(2.99971 0.000210212 0)
(2.99932 0.00050247 0)
(2.99834 0.00122222 0)
(2.99609 0.00291326 0)
(2.99044 0.00713381 0)
(2.977 0.0172719 0)
(2.94296 0.0430104 0)
(2.85388 0.111781 0)
(3 7.5387e-12 0)
(3 4.96843e-11 0)
(3 1.6675e-10 0)
(3 4.81871e-10 0)
(3 1.22116e-09 0)
(3 3.11842e-09 0)
(3 7.44507e-09 0)
(3 1.85172e-08 0)
(3 4.35322e-08 0)
(3 1.07421e-07 0)
(3 2.52556e-07 0)
(3 6.1869e-07 0)
(3 1.46033e-06 0)
(3 3.55087e-06 0)
(2.99999 8.4531e-06 0)
(2.99997 2.03318e-05 0)
(2.99993 4.88102e-05 0)
(2.99984 0.000116176 0)
(2.99961 0.000282199 0)
(2.99907 0.000663169 0)
(2.99773 0.00162737 0)
(2.99461 0.00381198 0)
(2.98683 0.00942365 0)
(2.96802 0.022502 0)
(2.91977 0.0567032 0)
(3 4.48011e-12 0)
(3 2.73157e-11 0)
(3 9.67638e-11 0)
(3 2.65333e-10 0)
(3 7.05102e-10 0)
(3 1.71466e-09 0)
(3 4.29553e-09 0)
(3 1.0147e-08 0)
(3 2.50679e-08 0)
(3 5.88748e-08 0)
(3 1.44309e-07 0)
(3 3.40358e-07 0)
(3 8.26792e-07 0)
(3 1.96566e-06 0)
(2.99999 4.72918e-06 0)
(2.99998 1.13533e-05 0)
(2.99996 2.70331e-05 0)
(2.99991 6.54688e-05 0)
(2.99978 0.000154617 0)
(2.99947 0.000377694 0)
(2.99871 0.000886155 0)
(2.99693 0.00217866 0)
(2.99253 0.00513477 0)
(2.98202 0.0126882 0)
(2.95569 0.0307728 0)
(3 2.43449e-12 0)
(3 1.49002e-11 0)
(3 5.22438e-11 0)
(3 1.44201e-10 0)
(3 3.80424e-10 0)
(3 9.26071e-10 0)
(3 2.31185e-09 0)
(3 5.44135e-09 0)
(3 1.34407e-08 0)
(3 3.13026e-08 0)
(3 7.70599e-08 0)
(3 1.79179e-07 0)
(3 4.38947e-07 0)
(3 1.02681e-06 0)
(3 2.49017e-06 0)
(2.99999 5.87595e-06 0)
(2.99998 1.40986e-05 0)
(2.99994 3.36534e-05 0)
(2.99987 7.96751e-05 0)
(2.99968 0.000192052 0)
(2.99923 0.000450691 0)
(2.99815 0.00109684 0)
(2.99557 0.00255663 0)
(2.98933 0.00628244 0)
(2.97407 0.014866 0)
(3 1.19398e-12 0)
(3 7.9258e-12 0)
(3 2.61014e-11 0)
(3 7.66791e-11 0)
(3 1.89723e-10 0)
(3 4.87642e-10 0)
(3 1.14468e-09 0)
(3 2.82873e-09 0)
(3 6.61638e-09 0)
(3 1.59351e-08 0)
(3 3.76745e-08 0)
(3 8.89186e-08 0)
(3 2.136e-07 0)
(3 4.93151e-07 0)
(3 1.20192e-06 0)
(2.99999 2.73046e-06 0)
(2.99998 6.71292e-06 0)
(2.99996 1.50756e-05 0)
(2.99991 3.7138e-05 0)
(2.99977 8.31231e-05 0)
(2.99946 0.000203075 0)
(2.99868 0.00045687 0)
(2.99685 0.00109919 0)
(2.99226 0.00250167 0)
(2.9812 0.00594621 0)
(3 5.95369e-13 0)
(3 3.92495e-12 0)
(3 1.27822e-11 0)
(3 3.76215e-11 0)
(3 9.24751e-11 0)
(3 2.36772e-10 0)
(3 5.51414e-10 0)
(3 1.35515e-09 0)
(3 3.12976e-09 0)
(3 7.4971e-09 0)
(3 1.75138e-08 0)
(3 4.08903e-08 0)
(3 9.72798e-08 0)
(3 2.20463e-07 0)
(3 5.35694e-07 0)
(2.99999 1.17912e-06 0)
(2.99999 2.92055e-06 0)
(2.99997 6.25502e-06 0)
(2.99992 1.56042e-05 0)
(2.99982 3.29729e-05 0)
(2.99954 8.19678e-05 0)
(2.9989 0.000171041 0)
(2.99728 0.000418003 0)
(2.99336 0.000877017 0)
(2.98347 0.00207644 0)
(3 2.93131e-13 0)
(3 1.76224e-12 0)
(3 6.16778e-12 0)
(3 1.68639e-11 0)
(3 4.42243e-11 0)
(3 1.06675e-10 0)
(3 2.58278e-10 0)
(3 6.08369e-10 0)
(3 1.4234e-09 0)
(3 3.36289e-09 0)
(3 7.67767e-09 0)
(3 1.8282e-08 0)
(3 4.07895e-08 0)
(3 9.82163e-08 0)
(3 2.14324e-07 0)
(3 5.20771e-07 0)
(2.99999 1.11203e-06 0)
(2.99997 2.69494e-06 0)
(2.99993 5.74142e-06 0)
(2.99983 1.34854e-05 0)
(2.99958 2.92812e-05 0)
(2.99896 6.49889e-05 0)
(2.99744 0.000144871 0)
(2.99364 0.000299823 0)
(2.98414 0.000668759 0)
(3 1.1552e-13 0)
(3 7.48302e-13 0)
(3 2.86335e-12 0)
(3 7.52012e-12 0)
(3 2.01549e-11 0)
(3 4.76445e-11 0)
(3 1.16806e-10 0)
(3 2.65367e-10 0)
(3 6.37337e-10 0)
(3 1.4438e-09 0)
(3 3.37856e-09 0)
(3 7.66434e-09 0)
(3 1.75371e-08 0)
(3 4.06617e-08 0)
(3 8.93049e-08 0)
(3 2.11774e-07 0)
(2.99999 4.45807e-07 0)
(2.99997 1.09221e-06 0)
(2.99993 2.19714e-06 0)
(2.99984 5.58374e-06 0)
(2.99959 1.03717e-05 0)
(2.999 2.82177e-05 0)
(2.99747 4.90819e-05 0)
(2.9938 0.000137847 0)
(2.98431 0.000222075 0)
(3 7.11348e-14 0)
(3 2.83078e-13 0)
(3 1.61357e-12 0)
(3 2.66387e-12 0)
(3 1.10548e-11 0)
(3 1.63589e-11 0)
(3 6.37812e-11 0)
(3 8.94634e-11 0)
(3 3.43046e-10 0)
(3 4.89997e-10 0)
(3 1.77633e-09 0)
(3 2.78032e-09 0)
(3 8.6612e-09 0)
(3 1.62223e-08 0)
(3 4.01951e-08 0)
(3 9.8237e-08 0)
(2.99999 1.68576e-07 0)
(2.99997 6.03176e-07 0)
(2.99993 5.77615e-07 0)
(2.99984 3.75129e-06 0)
(2.9996 1.43989e-06 0)
(2.99899 2.14284e-05 0)
(2.99753 1.43664e-06 0)
(2.99379 0.000116335 0)
(2.98452 2.52511e-05 0)
(3 3.85731e-14 0)
(3 1.47917e-13 0)
(3 7.03789e-13 0)
(3 1.32917e-12 0)
(3 5.09868e-12 0)
(3 8.63023e-12 0)
(3 2.79763e-11 0)
(3 5.38785e-11 0)
(3 1.37885e-10 0)
(3 3.26832e-10 0)
(3 6.30463e-10 0)
(3 1.97639e-09 0)
(3 2.95157e-09 0)
(3 1.15595e-08 0)
(3 1.30607e-08 0)
(3 6.74973e-08 0)
(2.99999 6.75063e-08 0)
(2.99997 3.9291e-07 0)
(2.99994 3.07982e-07 0)
(2.99984 2.26539e-06 0)
(2.9996 1.77604e-06 0)
(2.999 1.22367e-05 0)
(2.99755 1.11681e-05 0)
(2.99382 6.16589e-05 0)
(2.98465 9.07333e-05 0)
(3 -1.57831e-15 0)
(3 1.41825e-13 0)
(3 1.51198e-13 0)
(3 1.07765e-12 0)
(3 9.96622e-13 0)
(3 6.90106e-12 0)
(3 4.09929e-12 0)
(3 4.22946e-11 0)
(3 1.20725e-11 0)
(3 2.53721e-10 0)
(3 -1.48502e-11 0)
(3 1.43437e-09 0)
(3 -4.35956e-11 0)
(3 7.30231e-09 0)
(3 6.35461e-10 0)
(3 3.59189e-08 0)
(2.99999 2.35903e-08 0)
(2.99997 1.44022e-07 0)
(2.99994 3.02308e-07 0)
(2.99984 5.02584e-07 0)
(2.99961 2.64827e-06 0)
(2.999 1.43146e-06 0)
(2.99757 2.06487e-05 0)
(2.99385 3.01446e-06 0)
(2.98474 0.000127312 0)
(3 -1.18791e-14 0)
(3 6.70181e-14 0)
(3 3.17642e-15 0)
(3 4.467e-13 0)
(3 -3.2879e-13 0)
(3 3.37299e-12 0)
(3 -4.85901e-12 0)
(3 2.38179e-11 0)
(3 -4.15785e-11 0)
(3 1.59247e-10 0)
(3 -2.87669e-10 0)
(3 9.51817e-10 0)
(3 -1.68298e-09 0)
(3 4.82104e-09 0)
(3 -7.48445e-09 0)
(3 2.12432e-08 0)
(2.99999 -2.77246e-08 0)
(2.99997 5.63733e-08 0)
(2.99994 2.76873e-08 0)
(2.99984 -9.359e-08 0)
(2.9996 1.15879e-06 0)
(2.99901 -2.66093e-06 0)
(2.99755 1.21561e-05 0)
(2.9939 -2.13859e-05 0)
(2.98473 7.58541e-05 0)
(1.20741 1.04058 0)
(1.36855 0.786375 0)
(0.814476 0.436774 0)
(0.00133141 0.354945 0)
(-0.228674 0.0468851 0)
(-0.412091 0.00460763 0)
(-0.574131 -0.0215939 0)
(-0.646622 -0.0324765 0)
(-0.675926 -0.0131683 0)
(-0.707361 0.0134709 0)
(-0.758894 0.0245825 0)
(-0.814153 0.0235726 0)
(-0.860221 0.0161985 0)
(-0.897554 0.00870956 0)
(-0.934484 0.0054581 0)
(-0.97461 0.00486635 0)
(-1.01576 0.00501188 0)
(-1.05481 0.00515416 0)
(-1.08944 0.00488213 0)
(-1.11988 0.00400869 0)
(-1.14961 0.00292292 0)
(-1.18195 0.00277805 0)
(-1.20927 0.00459789 0)
(-1.22464 0.00469409 0)
(-1.23206 0.00366368 0)
(-1.23146 0.00231776 0)
(-1.21456 4.35137e-05 0)
(-1.17477 -0.00386822 0)
(-1.11432 -0.00904836 0)
(-1.03834 -0.0143371 0)
(-0.953219 -0.0187502 0)
(-0.864013 -0.0220313 0)
(-0.773934 -0.0242259 0)
(-0.684627 -0.0259776 0)
(-0.598994 -0.0268004 0)
(-0.517927 -0.0273568 0)
(-0.44168 -0.0281192 0)
(-0.369078 -0.0290268 0)
(-0.298133 -0.0313851 0)
(-0.230951 -0.0318412 0)
(-0.166921 -0.0318113 0)
(-0.105359 -0.0328415 0)
(-0.0478271 -0.0362138 0)
(0.0160932 -0.0315397 0)
(0.0675948 -0.0276985 0)
(0.118707 -0.0263879 0)
(0.165659 -0.0251782 0)
(0.209953 -0.0240554 0)
(0.252002 -0.023075 0)
(0.291889 -0.0220766 0)
(0.329833 -0.0211147 0)
(0.365882 -0.0202433 0)
(0.400223 -0.0194393 0)
(0.43305 -0.0187403 0)
(0.464403 -0.0180698 0)
(0.494337 -0.0173862 0)
(0.52265 -0.0166182 0)
(0.549598 -0.0158694 0)
(0.57592 -0.0152469 0)
(0.601692 -0.0147712 0)
(0.626552 -0.0141802 0)
(0.650613 -0.0136269 0)
(0.674125 -0.0131289 0)
(0.697269 -0.012673 0)
(0.720149 -0.0122459 0)
(0.742845 -0.0118342 0)
(0.765422 -0.0114485 0)
(0.787921 -0.011066 0)
(0.810389 -0.0107048 0)
(0.832826 -0.0103426 0)
(0.855262 -0.0099927 0)
(0.877676 -0.00964378 0)
(0.900069 -0.00930033 0)
(0.922422 -0.00895763 0)
(0.944719 -0.00861987 0)
(0.966934 -0.00828207 0)
(0.989053 -0.00794806 0)
(1.01105 -0.00761598 0)
(1.03291 -0.00728728 0)
(1.05461 -0.00696105 0)
(1.07615 -0.00663862 0)
(1.0975 -0.00631874 0)
(1.11866 -0.00600159 0)
(1.13962 -0.00568533 0)
(1.16037 -0.00536994 0)
(1.18088 -0.00505337 0)
(1.20113 -0.00473627 0)
(1.22109 -0.00441732 0)
(1.24072 -0.00409725 0)
(1.25998 -0.00377329 0)
(1.2788 -0.00344245 0)
(1.29712 -0.00310003 0)
(1.31484 -0.00274028 0)
(1.33182 -0.0023514 0)
(1.34787 -0.00192066 0)
(1.36271 -0.00142329 0)
(1.37595 -0.000861247 0)
(1.38711 -0.000231575 0)
(1.39527 0.000508757 0)
(1.40129 0.00133312 0)
(1.27576 0.947232 0)
(1.398 0.65326 0)
(1.20387 0.391382 0)
(0.759689 0.382964 0)
(0.618644 0.321321 0)
(0.489853 0.246046 0)
(0.305921 0.186777 0)
(0.141422 0.121018 0)
(-0.116455 0.0412613 0)
(-0.257994 0.0441254 0)
(-0.387531 0.0429358 0)
(-0.48155 0.035542 0)
(-0.540323 0.0256781 0)
(-0.576095 0.0226316 0)