/*--------------------------------*- C++ -*----------------------------------*\
  =========                 |
  \\      /  F ield         | OpenFOAM: The Open Source CFD Toolbox
   \\    /   O peration     | Website:  https://openfoam.org
    \\  /    A nd           | Version:  9
     \\/     M anipulation  |
\*---------------------------------------------------------------------------*/
FoamFile
{
    format      ascii;
    class       volScalarField;
    location    "0.24";
    object      alpha.phase1;
}
// * * * * * * * * * * * * * * * * * * * * * * * * * * * * * * * * * * * * * //

dimensions      [0 0 0 0 0 0 0];

internalField   nonuniform List<scalar> 
10000
(
8.3157384e-101
8.3157384e-101
5.9826899e-99
1.2721399e-96
2.1830733e-94
3.2067328e-92
4.1604713e-90
4.9262567e-88
5.4076426e-86
5.4742643e-84
5.2781992e-82
4.8306258e-80
3.1685214e-78
5.2443904e-77
2.8843401e-76
1.0105558e-75
2.297279e-75
5.8382169e-75
1.4196035e-74
2.344148e-74
2.770939e-74
2.9507495e-74
5.1589548e-73
6.7122188e-71
6.6862872e-69
6.0326755e-67
6.6865722e-65
9.1062746e-63
1.7910714e-60
1.0160447e-57
2.7484349e-56
5.9040746e-56
1.2551068e-54
4.2500164e-54
7.7143812e-53
2.4323058e-51
7.071844e-50
1.8540431e-48
4.340149e-47
8.9330464e-46
1.580695e-44
2.3629322e-43
2.9841405e-42
3.1773321e-41
2.7351954e-40
1.8212805e-39
9.5603202e-39
4.0266743e-38
1.2869946e-37
2.9839132e-37
2.9939595e-37
1.3001542e-37
3.9837829e-38
9.0541176e-39
1.5566971e-39
1.9121285e-40
1.4339464e-41
5.5320637e-43
9.7031701e-45
7.100623e-47
3.3711893e-49
3.2459107e-52
2.2381731e-55
2.9218944e-58
4.1327929e-58
7.1671698e-57
3.8895439e-56
6.2908352e-56
5.4589707e-56
7.4557414e-57
3.6170935e-58
7.1667527e-61
8.9134463e-63
9.858863e-65
7.6441679e-67
5.7753292e-69
6.1631828e-71
4.8990312e-73
6.085655e-74
5.7952824e-74
4.9806815e-74
3.0188908e-74
1.2022391e-74
4.9188367e-75
2.1925287e-75
6.2562317e-76
1.1719714e-76
7.926532e-78
1.4069527e-79
1.6815651e-81
1.773626e-83
1.6427375e-85
1.3784297e-87
1.023778e-89
6.7238292e-92
3.8688805e-94
1.8692484e-96
7.1032581e-99
8.446526e-101
8.446526e-101
1.0168463e-100
6.1233898e-99
1.2804889e-96
2.2004971e-94
3.2324527e-92
4.1938926e-90
4.9658138e-88
5.4510119e-86
5.5179766e-84
5.3201327e-82
4.8691229e-80
3.1937739e-78
5.2816577e-77
2.8981427e-76
1.0126773e-75
2.2795722e-75
5.7143851e-75
1.3669971e-74
1.1219932e-73
2.8451255e-73
1.1745698e-73
3.8636036e-74
1.627818e-72
1.3741208e-70
1.1541709e-68
1.0438989e-66
1.2920192e-64
7.5890605e-62
3.4947565e-60
1.6778164e-57
2.9556932e-56
1.024655e-55
1.7144418e-52
1.1054787e-51
2.4821401e-50
7.5415836e-49
2.0930314e-47
5.226085e-46
1.1602794e-44
2.2579728e-43
3.7812299e-42
5.3529185e-41
6.3302638e-40
6.166327e-39
4.6940898e-38
2.5027161e-37
8.4722035e-37
1.917346e-36
3.8750316e-36
6.5892358e-36
6.6181485e-36
3.9217038e-36
1.9283905e-36
8.2844323e-37
2.3072361e-37
3.5658489e-38
2.8880954e-39
1.2256925e-40
2.4687259e-42
2.3988334e-44
9.9299802e-47
1.1406157e-49
4.6731336e-53
7.4929586e-56
8.6775726e-55
9.5599823e-54
2.2316122e-53
2.0367751e-53
4.5314382e-56
8.6403718e-57
4.9515477e-58
7.236873e-60
4.7697972e-62
1.4986169e-64
1.3710405e-66
1.1827246e-68
1.2170093e-70
1.4405134e-72
6.3384865e-74
3.1670484e-73
6.0837059e-73
2.2831051e-73
3.0018751e-74
1.2046143e-74
4.9344164e-75
2.201264e-75
6.2883485e-76
1.180439e-76
7.9907544e-78
1.4184143e-79
1.6952307e-81
1.788085e-83
1.6561301e-85
1.3896656e-87
1.0320945e-89
6.7781529e-92
3.8998934e-94
1.8814637e-96
7.2652498e-99
1.0257899e-100
5.7200587e-98
5.7074793e-96
6.5012284e-94
1.1150576e-91
1.6420241e-89
2.1350087e-87
2.5348927e-85
2.7923783e-83
2.8385609e-81
2.7509318e-79
2.5331386e-77
1.6702555e-75
2.7184038e-74
1.3906602e-73
4.493402e-73
8.6834428e-73
2.2755254e-72
5.299282e-72
6.2327111e-71
1.2611406e-70
5.1979809e-71
9.7732539e-72
6.8537175e-70
4.4296019e-68
3.1470706e-66
3.6813152e-64
4.580368e-61
3.1522218e-58
2.4691552e-56
7.0585426e-55
3.2876798e-54
5.7590424e-53
1.9482929e-49
5.4483136e-49
5.5935839e-48
1.5773118e-46
4.2472738e-45
1.0263682e-43
2.2006725e-42
4.1288237e-41
6.6607247e-40
9.0880387e-39
1.0369475e-37
9.7702969e-37
7.2571077e-36
3.8418498e-35
1.3162336e-34
3.0201161e-34
6.0559284e-34
1.0608359e-33
1.0656837e-33
6.1228797e-34
3.0315441e-34
1.2857879e-34
3.5429582e-35
5.5491764e-36
4.7156943e-37
2.1885977e-38
5.0801751e-40
5.9221969e-42
3.0300339e-44
5.2119108e-47
3.9806022e-50
1.3614736e-52
1.4460742e-51
1.1118083e-50
2.2076674e-50
1.8780135e-50
3.3253646e-54
1.1323345e-54
1.2755601e-55
7.4225071e-57
8.2994167e-59
5.6644413e-61
8.6844336e-64
4.2677037e-66
3.790035e-68
5.8708296e-70
1.3737417e-71
1.403492e-70
2.7061557e-70
1.2658347e-70
1.1827461e-71
4.7141966e-72
1.8582634e-72
9.6180152e-73
2.9526738e-73
5.9473591e-74
4.1016712e-75
7.2451537e-77
8.6073e-79
9.0329402e-81
8.3298024e-83
6.9651722e-85
5.1585968e-87
3.3803831e-89
1.9402196e-91
9.3753229e-94
6.8291341e-96
5.70604e-98
1.7841086e-95
2.4179049e-93
3.1187105e-91
3.7503225e-89
5.5411455e-87
7.2319389e-85
8.623894e-83
9.5492875e-81
9.7667702e-79
9.5333867e-77
8.8522064e-75
5.8927066e-73
9.688733e-72
5.0081831e-71
1.6384287e-70
3.2161154e-70
8.6255636e-70
2.0544966e-69
2.2068822e-68
3.8893866e-68
1.6184662e-68
4.2622258e-69
2.9860871e-67
2.0170913e-65
1.560872e-63
7.5016363e-61
6.0703161e-58
2.410677e-55
1.6926067e-53
4.0570255e-52
2.3324929e-51
6.3278214e-50
1.8332231e-46
2.8487042e-46
1.0852502e-45
2.5806498e-44
6.7090222e-43
1.5639888e-41
3.2284695e-40
5.8247667e-39
9.0297291e-38
1.1831967e-36
1.2974609e-35
1.1787026e-34
8.5140497e-34
4.4489418e-33
1.527222e-32
3.5118831e-32
6.9399048e-32
1.2340584e-31
1.2398762e-31
7.0103351e-32
3.5186345e-32
1.4900405e-32
4.1006501e-33
6.5426633e-34
5.8481159e-35
2.9712698e-36
7.9507112e-38
1.104193e-39
6.6399806e-42
1.8575355e-44
2.7098946e-47
2.7889812e-49
2.1478576e-48
1.0842313e-47
1.7219308e-47
1.1566427e-47
3.6261346e-51
8.5983039e-52
7.7217086e-53
4.7416093e-54
5.7016958e-56
5.238282e-58
3.5930809e-60
3.0283465e-63
1.7735136e-65
2.5706595e-67
4.5982597e-69
4.2051763e-68
8.2930637e-68
4.4417219e-68
4.5081094e-69
1.7552592e-69
6.7700843e-70
3.4546277e-70
1.0464885e-70
2.0843646e-71
1.4222284e-72
2.4874601e-74
2.9296742e-76
3.051905e-78
2.7967502e-80
2.3262846e-82
1.7153895e-84
1.1202788e-86
6.4056549e-89
4.4331246e-91
2.8395592e-93
1.7463014e-95
4.2441421e-93
6.7871346e-91
1.0495271e-88
1.0887739e-86
1.3959789e-84
1.8318059e-82
2.1951452e-80
2.4448193e-78
2.5175626e-76
2.4770362e-74
2.3214079e-72
1.5616325e-70
2.5967484e-69
1.3580616e-68
4.5047401e-68
8.9824901e-68
2.4701188e-67
6.0165981e-67
6.0047527e-66
9.5178967e-66
4.0278038e-66
1.4000152e-66
1.009242e-64
7.0856839e-63
5.9811704e-61
7.6809418e-58
3.0407938e-55
1.1426695e-52
7.2927903e-51
1.6816132e-49
1.2835829e-48
5.3378101e-47
9.1300276e-44
1.4114447e-43
2.4295134e-43
3.475757e-42
8.5873449e-41
1.9241467e-39
3.8110584e-38
6.5890878e-37
9.7827188e-36
1.2273967e-34
1.2894433e-33
1.1253783e-32
7.8790732e-32
4.0503979e-31
1.3865636e-30
3.1786357e-30
6.1754782e-30
1.1061428e-29
1.1115261e-29
6.2327267e-30
3.1781121e-30
1.3501663e-30
3.7267153e-31
6.0702262e-32
5.7097222e-33
3.1820525e-34
9.7793805e-36
1.5964491e-37
1.2142529e-39
4.6394606e-42
1.4667956e-44
4.2278684e-46
2.3696578e-45
8.7919817e-45
1.1445323e-44
4.307813e-45
3.1829402e-48
5.1417015e-49
3.2934794e-50
2.09612e-51
2.4973161e-53
2.3557724e-55
1.8806666e-57
6.1204375e-60
6.2555423e-63
8.8341909e-65
1.453244e-66
1.011695e-65
2.0225484e-65
1.2021225e-65
1.3040585e-66
4.9497268e-67
1.8622101e-67
9.3567138e-68
2.7919293e-68
5.4926095e-69
3.7041937e-70
6.4086806e-72
7.47653e-74
7.7255549e-76
7.031028e-78
5.8143362e-80
4.269747e-82
2.7687183e-84
1.8038081e-86
1.4693508e-88
7.8250112e-91
4.0760871e-93
8.1445229e-91
1.4481126e-88
2.4521262e-86
3.0343535e-84
2.8996686e-82
3.7006071e-80
4.4615565e-78
4.9990991e-76
5.1845653e-74
5.1437191e-72
4.8673497e-70
3.310402e-68
5.5697e-67
2.9487968e-66
9.9251648e-66
2.0148808e-65
5.6704535e-65
1.5086738e-64
1.3242123e-63
1.9249389e-63
8.3235454e-64
3.7002576e-64
2.7390106e-62
1.985036e-60
2.0289001e-58
2.8876176e-55
1.0465153e-52
2.6008217e-50
1.3031902e-48
5.6156176e-47
5.583521e-46
3.5054436e-44
2.007215e-41
6.954895e-41
8.2582011e-41
4.2039054e-40
9.1936316e-39
1.9702975e-37
3.7288747e-36
6.15587e-35
8.7216955e-34
1.0436748e-32
1.0459414e-31
8.7344459e-31
5.9035265e-30
2.974748e-29
1.012238e-28
2.3064914e-28
4.3987221e-28
7.8974427e-28
7.9370121e-28
4.435307e-28
2.3008034e-28
9.8346055e-29
2.7298129e-29
4.5474638e-30
4.5071897e-31
2.7610162e-32
9.7369329e-34
1.8461132e-35
1.7661487e-37
8.8730543e-40
4.3117117e-42
3.0938674e-43
1.9994925e-42
5.6177194e-42
6.1980774e-42
1.2171793e-42
2.2083745e-45
2.4459574e-46
9.1957397e-48
6.9275112e-49
8.1644589e-51
7.4961509e-53
6.2229237e-55
2.6211124e-57
1.8165481e-60
2.4161126e-62
3.7598186e-64
2.0293349e-63
4.0855528e-63
2.6402327e-63
3.0248797e-64
1.1201245e-64
4.1147002e-65
2.0305418e-65
5.9637743e-66
1.1580536e-66
7.7156339e-68
1.3199811e-69
1.5248016e-71
1.5623829e-73
1.4117845e-75
1.1616674e-77
8.4537035e-80
5.3288206e-82
4.9583968e-84
3.3729168e-86
1.6392318e-88
7.6747022e-91
1.3077192e-88
2.5061518e-86
4.4835422e-84
6.0885447e-82
6.4409451e-80
6.3068243e-78
7.5415939e-76
8.5052012e-74
8.8826495e-72
8.8874147e-70
8.4929518e-68
5.8409607e-66
9.9451353e-65
5.3315566e-64
1.8197244e-63
4.2911328e-63
1.0850829e-62
4.5428187e-62
2.4608247e-61
3.3072106e-61
1.4647456e-61
8.153384e-62
6.1652207e-60
4.6601869e-58
5.747198e-56
7.414064e-53
1.6170471e-50
1.8643413e-48
3.0617052e-47
8.8344009e-45
1.9422215e-43
1.9145042e-41
9.8795415e-40
3.2122167e-38
3.0361645e-38
5.4984102e-38
8.4428571e-37
1.7146442e-35
3.0867054e-34
4.84337e-33
6.5203959e-32
7.4130121e-31
7.0547563e-30
5.6088319e-29
3.6427783e-28
1.7927056e-27
6.0472932e-27
1.3669272e-26
2.556003e-26
4.5820604e-26
4.6059128e-26
2.5747605e-26
1.3601746e-26
5.8596291e-27
1.6381882e-27
2.7951362e-28
2.9256837e-29
1.9743454e-30
7.9469135e-32
1.7239832e-33
1.9981066e-35
1.34758e-37
9.9401436e-40
2.0203249e-40
1.3363418e-39
2.8291499e-39
2.6655904e-39
3.1622426e-40
1.1966833e-42
9.3356473e-44
7.9886757e-46
1.7846518e-46
2.1185006e-48
1.8827068e-50
1.5619388e-52
4.548196e-55
4.3046219e-58
5.4818401e-60
8.1592196e-62
3.4782845e-61
7.0211045e-61
4.8698116e-61
6.0501449e-62
2.1147313e-62
8.4930376e-63
3.6662602e-63
1.060408e-63
2.0320075e-64
1.3373351e-65
2.2620881e-67
2.5871592e-69
2.6291675e-71
2.3608527e-73
1.922987e-75
1.2761781e-77
1.2072576e-79
9.7802064e-82
6.0586589e-84
2.7853797e-86
1.2090008e-88
1.802926e-86
3.6562788e-84
6.7909592e-82
9.759295e-80
1.1349749e-77
1.0595059e-75
1.088702e-73
1.237961e-71
1.3025623e-69
1.3137147e-67
1.2676339e-65
8.8155536e-64
1.5189318e-62
8.246054e-62
2.8507124e-61
9.0564857e-61
1.7818374e-60
9.8129925e-60
3.9184813e-59
4.9330425e-59
2.2222698e-59
1.5250791e-59
1.1782544e-57
9.2148342e-56
1.1163115e-53
6.9924748e-51
4.9846971e-49
2.1053701e-47
5.2695445e-45
1.3392361e-43
5.4700569e-41
1.0028636e-38
4.8923106e-38
1.1380564e-35
1.1972174e-35
1.1182122e-35
6.9248532e-35
1.2864769e-33
2.1928582e-32
3.2554903e-31
4.1448543e-30
4.4533894e-29
4.0035967e-28
3.0136479e-27
1.8705368e-26
8.9556658e-26
2.9881365e-25
6.6894222e-25
1.2247604e-24
2.1838638e-24
2.1957417e-24
1.2323799e-24
6.6375172e-25
2.8850925e-25
8.1327255e-26
1.4243865e-26
1.579439e-27
1.1723224e-28
5.3211911e-30
1.3092983e-31
1.8359753e-33
1.7219581e-35
2.3131404e-37
1.3790788e-37
7.1849931e-37
1.2070831e-36
8.3026142e-37
7.0284487e-38
5.0446552e-40
2.89109e-41
2.3982419e-44
4.2074546e-44
4.6298349e-46
4.0179337e-48
1.4692105e-50
1.348434e-53
8.6533522e-56
1.0523251e-57
1.5124986e-59
5.1877398e-59
1.0464932e-58
7.7470336e-59
1.4609751e-59
3.4200571e-60
1.7522941e-60
5.6500055e-61
1.6120855e-61
3.0485617e-62
1.9821075e-63
3.3152117e-65
3.7548207e-67
3.7858452e-69
3.3624039e-71
2.4273799e-73
2.261184e-75
2.0937389e-77
1.5407353e-79
9.0150693e-82
3.9898079e-84
1.6352292e-86
2.1758247e-84
4.6142182e-82
8.8103637e-80
1.3162796e-77
1.6222526e-75
1.6648488e-73
1.40835e-71
1.5316903e-69
1.6659122e-67
1.6962685e-65
1.6524689e-63
1.1609454e-61
2.0238824e-60
1.1123579e-59
4.033509e-59
1.4938779e-58
2.5468614e-58
1.6622354e-57
5.4360433e-57
6.4809696e-57
2.9611035e-57
2.4657673e-57
1.9322976e-55
1.5465159e-53
1.4530474e-51
1.4339303e-49
1.8121076e-47
3.3255683e-45
8.8793829e-43
2.4659646e-41
1.2711332e-38
3.3237826e-36
1.3295781e-35
2.4401439e-33
5.0074216e-33
2.9964703e-33
5.9814327e-33
8.44341e-32
1.3516214e-30
1.8888078e-29
2.2636715e-28
2.286921e-27
1.9301699e-26
1.365534e-25
8.0420453e-25
3.7253826e-24
1.2255788e-23
2.7085005e-23
4.8370025e-23
8.5524382e-23
8.6014495e-23
4.8606763e-23
2.6783283e-23
1.1778751e-23
3.3545385e-24
6.0505058e-25
7.1449403e-26
5.8410159e-27
2.9703373e-28
8.2684409e-30
1.4205498e-31
1.9227695e-33
6.3452197e-35
8.3130385e-35
3.2277253e-34
4.2754261e-34
1.2145224e-34
7.7942917e-36
1.7462798e-37
7.2193902e-39
6.6391295e-42
4.4151941e-42
9.8009603e-44
4.4956151e-46
1.9521194e-49
1.3682431e-51
1.3997514e-53
1.7357886e-55
2.4358304e-57
6.8290613e-57
1.3725557e-56
1.074139e-56
2.6157484e-57
4.8144012e-58
2.8378229e-58
7.6820797e-59
2.136485e-59
3.9881647e-60
2.5623634e-61
4.2388641e-63
4.7588897e-65
4.6255721e-67
3.7064931e-69
3.3483551e-71
3.5049589e-73
2.9425098e-75
2.0422463e-77
1.1489816e-79
4.9436695e-82
1.9358948e-84
2.3329492e-82
5.1318968e-80
1.0012097e-77
1.5394213e-75
1.9745775e-73
2.151617e-71
2.0064353e-69
1.6137891e-67
1.7776595e-65
1.9130434e-63
1.9062308e-61
1.3543091e-59
2.388138e-58
1.3275048e-57
5.9064875e-57
2.0846247e-56
3.2176696e-56
2.3551652e-55
6.6646192e-55
7.5869671e-55
3.505095e-55
3.516848e-55
2.7958822e-53
2.2508398e-51
1.905335e-49
1.9948828e-47
2.8043028e-45
5.0367212e-43
1.3387013e-40
6.25349e-39
2.4135634e-36
4.6116503e-34
3.4212104e-33
3.3689281e-31
1.6552854e-30
9.6195061e-31
7.4963031e-31
4.9717813e-30
7.2996268e-29
9.5539015e-28
1.0712927e-26
1.0115653e-25
7.961535e-25
5.246155e-24
2.9005388e-23
1.2893511e-22
4.1639115e-22
9.043384e-22
1.5664877e-21
2.7544626e-21
2.7716509e-21
1.5715456e-21
8.9039091e-22
3.977405e-22
1.1477352e-22
2.1447777e-23
2.7231749e-24
2.4617162e-25
1.3981842e-26
4.4210682e-28
9.6430176e-30
2.0787847e-31
1.6459758e-32
4.2373626e-32
1.1843575e-31
1.2560034e-31
1.2502001e-33
2.7737381e-34
5.7014431e-35
1.4445792e-36
1.7607706e-39
5.1028293e-41
7.417547e-42
8.034201e-45
2.4772354e-47
2.0544532e-49
2.025057e-51
2.5326549e-53
3.4586532e-55
8.0234788e-55
1.6020581e-54
1.3151806e-54
3.8139859e-55
5.9844169e-56
3.8890883e-56
1.0842595e-56
2.5028656e-57
4.6177872e-58
2.9329566e-59
4.8063517e-61
5.2577669e-63
4.5792228e-65
4.012563e-67
4.7092977e-69
4.4554518e-71
3.5211397e-73
2.347313e-75
1.2827179e-77
5.3985023e-80
2.0360904e-82
2.2488153e-80
5.1017326e-78
1.0128413e-75
1.5925843e-73
2.1043778e-71
2.3896251e-69
2.3726684e-67
2.0538471e-65
1.6625616e-63
1.7608489e-61
1.8369739e-59
1.41608e-57
2.5249261e-56
1.4182276e-55
7.7078913e-55
2.5108159e-54
3.6583352e-54
2.8872266e-53
7.3021767e-53
7.9889737e-53
3.7297243e-53
4.4872663e-53
3.6873253e-51
2.992585e-49
2.558653e-47
2.8597796e-45
3.9978155e-43
6.7952881e-41
1.9879253e-38
1.4439996e-36
3.7667591e-34
9.6773169e-33
7.479858e-31
5.498478e-30
4.1581549e-28
3.1850966e-28
1.2027819e-28
2.9462265e-28
3.4879809e-27
4.2373669e-26
4.4182167e-25
3.8735822e-24
2.8210644e-23
1.7144243e-22
8.7702884e-22
3.7043745e-21
1.1803196e-20
2.5701326e-20
4.4044531e-20
7.7538335e-20
7.8057031e-20
4.4106155e-20
2.5186566e-20
1.1194678e-20
3.2464858e-21
6.3334716e-22
8.7737526e-23
8.8257047e-24
5.5962132e-25
2.0400408e-26
5.99754e-28
2.1984801e-29
4.1468527e-30
1.6774827e-29
3.9218802e-29
3.9332157e-29
2.616224e-32
1.1204221e-32
1.2363384e-32
2.3031653e-34
4.4687105e-37
6.7174586e-39
5.4046382e-41
4.1852179e-43
3.572353e-45
2.9257357e-47
2.7223563e-49
3.3633856e-51
4.3970847e-53
8.4765535e-53
1.6793623e-52
1.4376177e-52
4.7486241e-53
6.6427665e-54
4.6059372e-54
1.3996995e-54
2.6235022e-55
4.787834e-56
3.0077105e-57
4.8648152e-59
4.7489101e-61
4.2096145e-63
5.1394682e-65
5.4775946e-67
4.8662124e-69
3.6891885e-71
2.3866797e-73
1.274853e-75
5.269568e-78
1.9251612e-80
1.9676355e-78
4.5841175e-76
9.2346931e-74
1.4785534e-71
1.9998183e-69
2.3416669e-67
2.4274882e-65
2.2456158e-63
1.7934697e-61
1.4955832e-59
1.5563504e-57
1.3402315e-55
2.41435e-54
1.403697e-53
8.6053169e-53
2.6558384e-52
3.8177313e-52
3.1272189e-51
7.2155278e-51
7.6270321e-51
3.5842177e-51
5.1679729e-51
4.3790953e-49
3.6728123e-47
3.2343131e-45
3.6768341e-43
4.8460707e-41
8.6732724e-39
2.8173077e-36
2.9607677e-34
5.0694539e-32
1.151112e-31
6.2431178e-29
1.4308112e-29
9.4130567e-26
8.638274e-26
2.8065775e-26
2.3377883e-26
1.5067974e-25
1.667844e-24
1.6059715e-23
1.296406e-22
8.6508785e-22
4.8094997e-21
2.2599374e-20
9.035253e-20
2.9222288e-19
7.0052412e-19
1.3085256e-18
2.199892e-18
2.208491e-18
1.3094659e-18
6.8634397e-19
2.7571835e-19
7.7757433e-20
1.5862573e-20
2.4107496e-21
2.703576e-22
1.9251618e-23
8.38635e-25
3.572124e-26
2.3958573e-27
1.1339183e-27
5.2320409e-27
1.0408942e-26
9.8200842e-27
2.8765729e-30
2.8957136e-31
1.7712498e-30
2.8701627e-32
1.0245955e-34
8.6491287e-37
6.0760073e-39
5.5951322e-41
4.6705074e-43
3.7004198e-45
3.3777998e-47
4.016256e-49
5.0298734e-51
8.0975645e-51
1.5933868e-50
1.415235e-50
5.1834638e-51
6.7503649e-52
4.7907261e-52
1.5410993e-52
2.5758355e-53
4.4863709e-54
2.7893839e-55
4.0449312e-57
3.928234e-59
4.7099767e-61
5.5255275e-63
5.5109813e-65
4.6891666e-67
3.4468561e-69
2.1779382e-71
1.142059e-73
4.6494816e-76
1.6522704e-78
1.5752423e-76
3.7569412e-74
7.6625431e-72
1.2455401e-69
1.7170172e-67
2.0595038e-65
2.2045521e-63
2.1340977e-61
1.8294206e-59
1.3781051e-57
1.2112157e-55
1.1570296e-53
2.1035651e-52
1.3947657e-51
8.5028777e-51
2.5069402e-50
3.9764732e-50
3.0366521e-49
6.4776104e-49
6.6390898e-49
3.1480614e-49
5.3903257e-49
4.6685924e-47
4.0820321e-45
3.7129746e-43
3.9917772e-41
5.3098235e-39
1.0253676e-36
3.5780726e-34
5.2984369e-32
5.4552218e-30
1.8450629e-29
7.3534706e-28
6.3834955e-27
1.6931181e-23
1.7981273e-23
7.4226318e-24
2.2950547e-24
6.4635003e-24
5.9050747e-23
5.2040451e-22
3.8376215e-21
2.3254329e-20
1.1804013e-19
5.2158352e-19
1.9899174e-18
6.4738077e-18
1.6945608e-17
3.4154315e-17
5.1100554e-17
5.099851e-17
3.4132537e-17
1.6648422e-17
6.0802814e-18
1.6831183e-18
3.5837245e-19
5.7998992e-20
7.2133798e-21
5.8824282e-22
3.2730744e-23
2.1589534e-24
3.1929794e-25
3.2286557e-25
1.324782e-24
2.1763904e-24
1.8435792e-24
1.2317972e-28
5.7279697e-29
2.0520151e-28
2.7034989e-30
2.0758136e-32
1.0414705e-34
7.9847398e-37
7.0287539e-39
5.1032536e-41
3.936828e-43
3.7823215e-45
4.2943501e-47
5.2124008e-49
7.0268981e-49
1.3774169e-48
1.2635713e-48
5.0443491e-49
6.7119424e-50
4.4456742e-50
1.4980753e-50
2.522548e-51
3.8256891e-52
2.3579535e-53
3.0847121e-55
3.5470183e-57
4.7232956e-59
5.161971e-61
4.9210345e-63
4.0554445e-65
2.9098366e-67
1.8035968e-69
9.3119403e-72
3.7420881e-74
1.2975529e-76
1.1617423e-74
2.8294809e-72
5.8329695e-70
9.6061137e-68
1.3453419e-65
1.6455466e-63
1.8062565e-61
1.8083635e-59
1.6267462e-57
1.3237855e-55
9.5116709e-54
8.961087e-52
1.6857494e-50
1.3208249e-49
7.5298567e-49
2.1381313e-48
3.8339257e-48
2.6689561e-47
5.3159294e-47
5.2991974e-47
2.5385045e-47
5.1271075e-47
4.3762941e-45
4.067703e-43
3.8012363e-41
3.8330217e-39
5.3827181e-37
1.09493e-34
4.0421615e-32
8.194633e-30
5.2325056e-28
3.2928698e-27
1.4712384e-25
4.926141e-24
2.3897049e-21
3.016161e-21
1.5085877e-21
2.9253435e-22
3.3772247e-22
1.9383473e-21
1.5395357e-20
1.0443253e-19
5.7510341e-19
2.6014798e-18
1.0498901e-17
3.6355454e-17
1.0390048e-16
2.4016875e-16
4.4909026e-16
6.1973676e-16
6.1910852e-16
4.4510723e-16
2.3428699e-16
9.5924705e-17
2.9946915e-17
7.0133913e-18
1.2467123e-18
1.7879046e-19
1.7447427e-20
1.3247639e-21
1.3889093e-22
4.4041339e-23
8.3099487e-23
2.6499915e-22
3.7682111e-22
2.6368934e-22
1.2333576e-25
1.9575197e-26
1.9390134e-26
1.701255e-28
3.6246337e-30
1.1971025e-32
9.5128848e-35
7.5922199e-37
4.9691729e-39
3.6643982e-41
3.7759549e-43
4.015038e-45
4.9212163e-47
5.5594847e-47
1.0905115e-46
1.0293066e-46
4.426704e-47
6.3168405e-48
3.722706e-48
1.3037438e-48
2.3387513e-49
3.0023689e-50
1.8284516e-51
2.2984157e-53
3.3449575e-55
4.1262462e-57
4.2991035e-59
3.9642661e-61
3.1865484e-63
2.2420015e-65
1.3676178e-67
6.9666988e-70
2.7680574e-72
9.3877155e-75
7.9391293e-73
1.9707446e-70
4.1010137e-68
6.8312971e-66
9.6964252e-64
1.2054792e-61
1.3504998e-59
1.3880978e-57
1.2937781e-55
1.1092529e-53
8.6483069e-52
6.0790248e-50
1.2684794e-48
1.1078078e-47
6.0258093e-47
1.6632485e-46
3.2886959e-46
2.1387662e-45
4.009188e-45
3.8979165e-45
1.882806e-45
4.4712193e-45
3.5532799e-43
3.5375281e-41
3.3510767e-39
3.4049845e-37
4.9886226e-35
1.0565492e-32
4.0737467e-30
1.0895141e-27
4.9174287e-26
4.2785722e-25
2.8860458e-23
2.2008241e-21
2.9452595e-19
4.1093186e-19
2.2626799e-19
4.6561514e-20
2.2584359e-20
6.5001197e-20
4.4636134e-19
2.7711729e-18
1.3547135e-17
5.0716888e-17
1.5984187e-16
4.3578534e-16
1.0352588e-15
2.0531151e-15
3.3549531e-15
4.7012999e-15
4.5919081e-15
3.4288389e-15
1.9732038e-15
9.2647908e-16
3.4311851e-16
9.9143528e-17
2.3264235e-17
4.3357118e-18
5.5753366e-19
6.1944311e-20
9.9865714e-21
5.8049731e-21
1.6370239e-20
4.1059517e-20
5.3914636e-20
3.1857707e-20
8.7871906e-23
4.1880456e-24
9.7662069e-25
5.8321703e-27
5.139526e-28
1.2480856e-30
9.6399038e-33
7.1215221e-35
4.4685474e-37
3.1451774e-39
3.2231853e-41
3.2365227e-43
4.2441482e-45
4.043248e-45
7.9356961e-45
7.6886423e-45
3.5296504e-45
5.348047e-46
2.8399425e-46
1.0239283e-46
1.9193255e-47
2.2927329e-48
1.3004532e-49
1.9868889e-51
2.7490324e-53
3.2234969e-55
3.2431452e-57
2.9142768e-59
2.2958926e-61
1.5892787e-63
9.5639634e-66
4.814821e-68
1.8939237e-70
6.2942819e-73
5.0530617e-71
1.2763816e-68
2.6782553e-66
4.5059042e-64
6.4709054e-62
8.1565114e-60
9.2940669e-58
9.7577844e-56
9.3491794e-54
8.3287668e-52
6.8700238e-50
4.2586259e-48
9.5640852e-47
8.3865904e-46
4.4006185e-45
1.1879846e-44
2.554881e-44
1.5729188e-43
2.7920048e-43
2.6532088e-43
1.2952935e-43
3.5909153e-43
2.6513211e-41
2.7264987e-39
2.6614603e-37
2.7958376e-35
4.2441208e-33
9.2752412e-31
3.690351e-28
1.2335166e-25
4.6990656e-24
4.1445835e-23
4.6340597e-21
5.1826573e-19
3.623924e-17
4.6437646e-17
2.6580149e-17
6.349633e-18
1.586083e-18
2.6073045e-18
1.3191081e-17
6.597232e-17
2.5513493e-16
7.636877e-16
1.7055547e-15
3.6784501e-15
6.3952839e-15
8.6963441e-15
1.3451746e-14
1.8173979e-14
1.9367073e-14
1.3269426e-14
8.3570618e-15
5.4389641e-15
2.4058038e-15
9.2126133e-16
3.1965841e-16
7.7534293e-17
1.4707027e-17
2.7412807e-18
7.950547e-19
7.1212549e-19
2.2894792e-18
5.0624901e-18
6.7893656e-18
3.7338863e-18
3.4410347e-20
4.2515736e-22
2.8582457e-23
3.9796625e-25
5.2490506e-26
1.1717585e-28
8.6522728e-31
6.1420828e-33
3.6963938e-35
2.4898273e-37
2.4545888e-39
2.3693742e-41
3.3640885e-43
2.7105773e-43
5.3283818e-43
5.2884941e-43
2.5743564e-43
4.0873635e-44
1.9869359e-44
7.3291646e-45
1.4209069e-45
1.7153538e-46
8.5862516e-48
1.5443649e-49
2.0242601e-51
2.287804e-53
2.240516e-55
1.9720757e-57
1.5280552e-59
1.0433378e-61
6.205001e-64
3.0917165e-66
1.2052279e-68
3.9311661e-71
3.0089342e-69
7.7238776e-67
1.6326903e-64
2.7712414e-62
4.0204003e-60
5.1279339e-58
5.9273082e-56
6.3334408e-54
6.2042099e-52
5.69276e-50
4.8910028e-48
3.1748516e-46
6.9373452e-45
5.8053611e-44
2.9544494e-43
7.8329395e-43
1.8195125e-42
1.0672219e-41
1.8026443e-41
1.6756882e-41
8.6545454e-42
2.642999e-41
1.8163466e-39
1.932568e-37
1.9412473e-35
2.1019574e-33
3.2924544e-31
7.4768194e-29
3.035271e-26
1.1970468e-23
4.5527661e-22
3.105337e-21
5.8124703e-19
5.2864256e-17
3.41422e-15
4.078514e-15
2.3242915e-15
6.1249281e-16
1.1672138e-16
1.2368364e-16
3.2721468e-16
1.1377798e-15
3.0860279e-15
8.1370689e-15
1.8395256e-14
2.3951158e-14
3.2171237e-14
6.4827665e-14
4.7881345e-14
5.4533452e-14
5.0818657e-14
4.1929478e-14
4.3987009e-14
2.6594684e-14
2.1802938e-14
1.3346723e-14
3.1588056e-15
7.5359189e-16
2.0824313e-16
8.160878e-17
5.2570511e-17
7.2351893e-17
2.3373527e-16
5.0561545e-16
7.1978172e-16
4.495062e-16
8.0468058e-18
3.7874226e-20
1.8518019e-21
3.9206286e-23
4.6188295e-24
9.9629915e-27
7.1165185e-29
4.8195396e-31
2.7837992e-33
1.7982845e-35
1.7113501e-37
1.5923646e-39
2.4455437e-41
1.6978419e-41
3.311762e-41
3.3615366e-41
1.7268394e-41
2.8550018e-42
1.2814904e-42
4.8163645e-43
9.6090891e-44
1.2125368e-44
6.1466095e-46
1.0759306e-47
1.3568451e-49
1.4909414e-51
1.4291801e-53
1.2368304e-55
9.4517721e-58
6.3784824e-60
3.7547814e-62
1.8536926e-64
7.1679538e-67
2.2975437e-69
1.6830663e-67
4.3858874e-65
9.3329521e-63
1.596406e-60
2.3364323e-58
3.010642e-56
3.5226469e-54
3.8197674e-52
3.8105841e-50
3.5800946e-48
3.1734844e-46
2.1270673e-44
4.5885941e-43
3.7035162e-42
1.833875e-41
4.7896068e-41
1.1917212e-40
6.7073429e-40
1.0826287e-39
9.849526e-40
5.8109929e-40
2.0452302e-39
1.3159479e-37
1.425646e-35
1.5002722e-33
1.7376898e-31
2.5541125e-29
5.5162459e-27
2.2614343e-24
2.8606655e-21
5.1369617e-20
1.934132e-19
5.1289393e-17
3.8707322e-15
1.2814228e-13
2.0628572e-13
1.2562564e-13
3.7773014e-14
6.8580529e-15
4.3479687e-15
6.3597614e-15
1.3012516e-14
4.0601752e-14
1.6702039e-13
3.8517122e-13
4.2186169e-13
8.7105893e-13
1.0554482e-12
7.6107281e-13
2.6112708e-13
2.0780728e-13
5.7554807e-13
5.6961991e-13
2.6809846e-13
3.0583137e-13
3.5809589e-13
1.8506015e-13
3.9655479e-14
4.73467e-15
2.072012e-15
2.1478875e-15
5.6659821e-15
1.5332599e-14
3.1667022e-14
4.6569818e-14
2.0660174e-14
1.1976884e-15
2.6372453e-18
1.5127848e-19
1.062525e-20
5.1203471e-22
7.7597536e-25
5.3319634e-27
3.5931751e-29
2.1010071e-31
1.291918e-33
1.1653893e-35
1.0165193e-37
1.6578652e-39
1.0105271e-39
1.9108877e-39
1.9806697e-39
1.0697312e-39
1.8306528e-40
7.6528317e-41
2.9222744e-41
5.984175e-42
7.8084934e-43
4.0169184e-44
6.8320398e-46
8.3671025e-48
8.992423e-50
8.4717158e-52
7.2299648e-54
5.4611619e-56
3.6486236e-58
2.1289025e-60
1.042527e-62
4.0015584e-65
1.2616929e-67
8.8759594e-66
2.3458613e-63
5.0211516e-61
8.6482104e-59
1.275433e-56
1.6579024e-54
1.9600403e-52
2.151809e-50
2.17928e-48
2.0873981e-46
1.8968312e-44
1.3030071e-42
2.7883634e-41
2.1858669e-40
1.0570329e-39
2.725854e-39
7.2156625e-39
3.9173477e-38
6.0670748e-38
5.4178609e-38
3.5441079e-38
5.3539952e-37
5.9106917e-35
7.7542467e-33
1.1611047e-30
2.0861292e-28
2.4080362e-26
4.8989244e-25
1.6303721e-22
2.675069e-18
4.7916314e-18
9.0223272e-18
3.2109309e-15
2.0059388e-13
4.32579e-12
8.3820766e-12
4.7403883e-12
1.1959317e-12
2.8593389e-13
1.0535509e-13
6.1323818e-13
5.5316617e-13
2.3269127e-13
2.109806e-13
4.0223914e-13
1.2789258e-12
1.8383e-12
1.8382919e-12
1.6665691e-12
9.0004145e-13
8.4866179e-13
1.1790346e-12
1.1790348e-12
9.9200073e-13
6.4603173e-13
4.0854217e-13
1.6854072e-13
8.1553648e-14
1.2138524e-13
1.4168507e-13
7.5940536e-14
2.2357288e-13
5.082506e-13
1.1103484e-12
1.6434422e-12
2.1010546e-13
9.8195608e-14
1.4642375e-16
7.0738337e-18
5.4920674e-18
1.4970725e-18
5.5547135e-23
5.3147439e-25
1.5363887e-26
1.737047e-28
7.89611e-31
3.8602469e-33
1.6166531e-35
1.606025e-37
5.6134554e-38
1.026286e-37
1.0847524e-37
6.1412033e-38
1.0826478e-38
4.2465235e-39
1.6440779e-39
3.4438545e-40
4.6204584e-41
2.4006189e-42
3.9961294e-44
4.783166e-46
5.050269e-48
4.6911829e-50
3.9577811e-52
2.9606339e-54
1.9612413e-56
1.1355959e-58
5.5206584e-61
2.1050206e-63
6.5345042e-66
4.4281377e-64
1.1860377e-61
2.552001e-59
4.4218254e-57
6.564268e-55
8.5958596e-53
1.025164e-50
1.1371705e-48
1.1661855e-46
1.1349457e-44
1.052288e-42
7.3701215e-41
1.5688652e-39
1.1989662e-38
5.6779379e-38
1.4480853e-37
4.0584486e-37
2.1303968e-36
3.1830447e-36
2.791228e-36
2.0098847e-36
5.4258438e-35
6.6305519e-33
8.7818733e-31
1.3458828e-28
2.7233589e-26
6.0944196e-24
1.1724225e-21
7.3617555e-19
1.203538e-16
8.5277959e-17
2.5755025e-16
1.5661819e-13
8.1217187e-12
1.2739675e-10
3.4648051e-10
2.0890706e-10
1.9445861e-11
6.4259526e-12
2.3881793e-12
1.0957487e-12
2.3764024e-13
5.908624e-14
4.7534818e-14
7.7186381e-14
-6.4822133e-13
-5.5694698e-12
-1.2891976e-11
-1.2741297e-11
-3.66194e-12
2.7912284e-13
-3.4025413e-12
-3.8304007e-12
-1.5242164e-12
-3.4501964e-14
1.4411771e-13
4.5526695e-14
3.1095348e-14
1.4032114e-13
9.3206273e-13
2.1844111e-12
3.2322014e-12
1.0840118e-11
4.5639969e-11
7.0668393e-11
8.2878571e-12
4.9760891e-12
6.4795761e-15
1.4303847e-16
1.9565312e-16
1.8388254e-16
9.1469586e-21
8.2170169e-22
6.6139989e-24
3.5269471e-26
1.4318495e-28
5.9398791e-31
3.231491e-33
2.4347935e-35
2.9076114e-36
5.1383269e-36
5.5330358e-36
3.2765357e-36
5.9336072e-37
2.1956924e-37
8.6078023e-38
1.8401866e-38
2.5309233e-39
1.3247812e-40
2.1692055e-42
2.5497306e-44
2.6541196e-46
2.4374683e-48
2.0372161e-50
1.5117856e-52
9.9438716e-55
5.7199602e-57
2.7630889e-59
1.0472033e-61
3.2028402e-64
2.0964237e-62
5.6865814e-60
1.2291855e-57
2.1408133e-55
3.1958492e-53
4.2107038e-51
5.058281e-49
5.6588015e-47
5.863071e-45
5.7811816e-43
5.4487872e-41
3.8756291e-39
8.2096467e-38
6.1351487e-37
2.8504487e-36
7.1973915e-36
2.1281712e-35
1.0820881e-34
1.564522e-34
1.3493053e-34
1.0690902e-34
4.1257217e-33
4.8998173e-31
6.2263206e-29
8.6173524e-27
1.623532e-24
4.175483e-22
2.2934494e-19
9.8903035e-16
2.315551e-15
1.171566e-16
1.81434e-15
2.3461489e-12
6.8946403e-08
1.1007293e-08
1.0151272e-08
6.8185846e-09
1.1241835e-09
1.5088911e-10
1.8043015e-11
1.2597704e-12
7.8109076e-14
9.8260568e-15
2.0114316e-15
-3.4912767e-20
-1.964296e-13
-2.994446e-12
-2.6060014e-11
-4.1683325e-11
5.6960348e-11
1.9830745e-12
-1.5051922e-11
-1.0385369e-11
-1.4134693e-12
-2.2963598e-13
-5.3858695e-13
-1.5531456e-12
-2.5350854e-12
1.8261482e-13
8.740392e-12
2.9108818e-11
3.6634968e-12
3.7682777e-11
1.5687792e-09
2.2392716e-09
6.784655e-10
7.0749572e-09
1.3637618e-14
4.094427e-16
7.4915118e-16
2.1305474e-15
4.9430141e-17
6.8994177e-20
4.2914006e-22
2.2213064e-24
9.6342027e-27
4.3064589e-29
2.7376979e-31
2.185746e-33
1.4381229e-34
2.400226e-34
2.6334443e-34
1.6275019e-34
3.0245396e-35
1.0602876e-35
4.2057998e-36
9.1635979e-37
1.2889735e-37
6.7963306e-39
1.0989636e-40
1.2733669e-42
1.3106991e-44
1.1928946e-46
9.8964134e-49
7.2969867e-51
4.7718338e-53
2.7296622e-55
1.3112962e-57
4.942956e-60
1.4904393e-62
9.4466244e-61
2.5934664e-58
5.6279012e-56
9.8444991e-54
1.4762837e-51
1.9546886e-49
2.3618065e-47
2.6601844e-45
2.7788923e-43
2.7692463e-41