/*--------------------------------*- C++ -*----------------------------------*\
  =========                 |
  \\      /  F ield         | OpenFOAM: The Open Source CFD Toolbox
   \\    /   O peration     | Website:  https://openfoam.org
    \\  /    A nd           | Version:  9
     \\/     M anipulation  |
\*---------------------------------------------------------------------------*/
FoamFile
{
    format      ascii;
    class       volScalarField;
    location    "0.24";
    object      p_rgh;
}
// * * * * * * * * * * * * * * * * * * * * * * * * * * * * * * * * * * * * * //

dimensions      [1 -1 -2 0 0 0 0];

internalField   nonuniform List<scalar> 
10000
(
0
-0.016327201
-0.027418951
-0.041943712
-0.059075023
-0.078150767
-0.098862349
-0.12104449
-0.14432694
-0.16833521
-0.19259977
-0.21660639
-0.23979506
-0.26149297
-0.28099413
-0.29750902
-0.31015893
-0.31802444
-0.32007968
-0.31520336
-0.30225451
-0.28002687
-0.24721149
-0.20241627
-0.14411438
-0.070893469
0.018378268
0.12453457
0.24817516
0.38967209
0.54919473
0.7268318
0.91968835
1.1254292
1.3476265
1.5851705
1.8359939
2.0976317
2.36711
2.6410059
2.9155601
3.1866704
3.4499427
3.7008583
3.9349527
4.1479406
4.335859
4.4952429
4.6232737
4.7178989
4.7779123
4.8030535
4.7939292
4.7519206
4.6792359
4.5787539
4.4539021
4.3084586
4.1464751
3.9721465
3.7896319
3.6028595
3.4154863
3.2308568
3.0520486
2.881644
2.7220949
2.5755763
2.4408727
2.3136196
2.2006092
2.1021889
2.0182146
1.9484866
1.8926853
1.8503205
1.8205823
1.8023559
1.7942747
1.7950167
1.8033798
1.8182751
1.8386183
1.8634221
1.8917743
1.9227923
1.9556724
1.9896801
2.0241494
2.0584707
2.092083
2.1244688
2.155199
2.1838742
2.2101971
2.2339949
2.2550312
2.2725605
2.2856202
2.3026443
0.011056013
-0.00509947
-0.016473983
-0.031286223
-0.048771099
-0.068206245
-0.089412088
-0.11215123
-0.13612125
-0.1609015
-0.1860386
-0.21105667
-0.23535471
-0.25829763
-0.27917187
-0.29716146
-0.3114158
-0.32098227
-0.32479055
-0.32174226
-0.31067726
-0.29033737
-0.25939531
-0.21647475
-0.16015167
-0.089116156
-0.0022624374
0.10135342
0.22247477
0.3614999
0.51844776
0.69268316
0.88483922
1.0927153
1.3169115
1.5564104
1.8094265
2.0735222
2.3457438
2.6226739
2.9004868
3.1750153
3.4417767
3.6960984
3.933399
4.1493146
4.3397673
4.5011694
4.6306258
4.7260701
4.7863266
4.8110613
4.800841
4.7571312
4.6822361
4.5791115
4.4512807
4.3026559
4.1374152
3.9598376
3.7741717
3.5844501
3.3944144
3.2074418
3.0265672
2.8543344
2.6928777
2.5435224
2.4060618
2.2836029
2.1738404
2.0780097
1.9965678
1.9293942
1.876097
1.8360381
1.8083362
1.7919247
1.7856122
1.7881457
1.7982968
1.8149558
1.837007
1.8634491
1.8933494
1.925805
1.9600228
1.9952614
2.0308333
2.0661234
2.100599
2.1337301
2.1650909
2.1943127
2.2211198
2.2453217
2.2666739
2.284478
2.2976859
2.3147596
0.017916271
0.0014656247
-0.010208114
-0.025595842
-0.043679759
-0.06384178
-0.085846464
-0.10953774
-0.13457187
-0.16054611
-0.18706023
-0.21359924
-0.23959978
-0.26442797
-0.28734169
-0.30755785
-0.32420984
-0.33630084
-0.34278196
-0.34254261
-0.33436203
-0.31694543
-0.28894808
-0.2489656
-0.19558823
-0.12750895
-0.043526667
0.057424069
0.17618028
0.31329034
0.4690248
0.64338853
0.83674364
1.0474942
1.2753209
1.5192439
1.7775365
2.0477721
2.3269653
2.611637
2.8977939
3.1810104
3.4565566
3.7195303
3.9650434
4.1883924
4.3852188
4.5517193
4.6848225
4.7823527
4.843089
4.8667079
4.8538222
4.805974
4.7256281
4.6159506
4.4807121
4.324121
4.1506657
3.9649087
3.7713001
3.5740816
3.3771749
3.1841053
2.9979326
2.8212176
2.6559918
2.5035292
2.364546
2.2404605
2.1312545
2.036917
1.9575115
1.8927486
1.8420755
1.8047382
1.7797788
1.7660855
1.7624639
1.7676716
1.7804555
1.7996878
1.8242411
1.8530644
1.8852071
1.9197626
1.9559344
1.9929563
2.0301366
2.0668741
2.102653
2.136958
2.1693552
2.1994869
2.2270572
2.2518786
2.2737244
2.2919781
2.3055522
2.3230347
0.027874201
0.01115659
-0.00090190711
-0.01684931
-0.035697048
-0.056723906
-0.079771096
-0.1046531
-0.13103723
-0.15858582
-0.18687502
-0.21542692
-0.24369325
-0.27101088
-0.2966739
-0.31991219
-0.33982184
-0.35541615
-0.36564169
-0.36933506
-0.36524125
-0.35203417
-0.32831098
-0.2926145
-0.24351779
-0.17962572
-0.099598844
-0.002242834
0.11342903
0.24821415
0.40268642
0.57713326
0.77108799
0.98441853
1.2164371
1.4659908
1.7312965
2.0099163
2.2988317
2.5944526
2.8925622
3.1884155
3.4769415
3.7528607
4.0108123
4.2455832
4.4523558
4.626948
4.765955
4.8669198
4.9284818
4.9503213
4.9331774
4.8788121
4.7899795
4.6702398
4.5238261
4.3554028
4.1698683
3.972176
3.7671336
3.5592932
3.3527926
3.1513011
2.9579555
2.7753415
2.605463
2.4497184
2.309146
2.1844551
2.0756665
1.9829056
1.905923
1.8441781
1.7969425
1.7633015
1.7421824
1.7323803
1.7326165
1.7416304
1.7581395
1.7809582
1.8089508
1.8410383
1.8762344
1.9136175
1.9523714
1.9917368
2.0310389
2.0696863
2.1071475
2.1429373
2.17665
2.2079252
2.2364783
2.2621224
2.2846267
2.3033566
2.3172477
2.3350831
0.03939993
0.022243551
0.0097366591
-0.0069427764
-0.026688437
-0.048821496
-0.073161545
-0.09952832
-0.12765451
-0.15719166
-0.18775231
-0.21888458
-0.25001919
-0.28053364
-0.30975049
-0.33686819
-0.36098942
-0.38114365
-0.39624208
-0.40508173
-0.40637632
-0.39873558
-0.38067922
-0.35069669
-0.30726079
-0.24882191
-0.17388326
-0.081096198
0.030730844
0.16264909
0.31546629
0.48961071
0.68512112
0.90182385
1.1391341
1.3959048
1.6703235
1.9599431
2.2617004
2.5718301
2.885828
3.1985799
3.504544
3.7978638
4.0725406
4.3227115
4.5429346
4.7284685
4.8754431
4.9810498
5.04374
5.0631868
5.0402991
4.9771518
4.8769224
4.7436916
4.5822977
4.3980198
4.1963383
3.9827191
3.7624746
3.540552
3.3213964
3.1088184
2.9060413
2.7157338
2.5398782
2.3799124
2.2368408
2.1112517
2.003095
1.9122117
1.838148
1.7801315
1.7372196
1.7083235
1.6921913
1.6874784
1.6928105
1.7068693
1.7282976
1.7558195
1.7882899
1.8245962
1.8637055
1.9047197
1.9468008
1.9891627
2.0311734
2.0722558
2.1118574
2.1495112
2.1848884
2.217601
2.2473743
2.2740198
2.2974018
2.3167665
2.3311143
2.349361
0.052621881
0.034995506
0.021884968
0.0043860309
-0.016430744
-0.039846631
-0.065692182
-0.093853137
-0.1240547
-0.15598361
-0.18928734
-0.22349952
-0.25809386
-0.29249544
-0.32601292
-0.35785211
-0.38714367
-0.41290049
-0.434006
-0.44923847
-0.45725385
-0.45658127
-0.44567227
-0.42291365
-0.38660704
-0.33502313
-0.26649989
-0.17946841
-0.072450714
0.055873033
0.20655626
0.38030496
0.57745506
0.79805698
1.0416289
1.307112
1.5927661
1.896175
2.214196
2.5428378
2.8772538
3.2118577
3.5404696
3.856453
4.1529482
4.4232197
4.6609887
4.8607512
5.0180264
5.1295914
5.1937134
5.2100644
5.179712
5.1051174
4.9900348
4.8392231
4.6582812
4.4533116
4.2306497
3.9964911
3.7567558
3.5168407
3.2815674
3.0550001
2.8404857
2.6407281
2.4576763
2.2927172
2.1466921
2.0201258
1.9127804
1.8242477
1.7538009
1.7004226
1.6629198
1.6399457
1.6300549
1.6317599
1.6435261
1.6638895
1.6914286
1.7248037
1.7627971
1.8042745
1.8481902
1.8936135
1.9397159
1.9857136
2.0309847
2.0749556
2.1171314
2.1570709
2.1944271
2.2288256
2.2600244
2.2878768
2.3122756
2.3324371
2.3473375
2.3660887
0.067749574
0.04953185
0.035764318
0.017310389
-0.0047008641
-0.029550564
-0.057142516
-0.08735785
-0.11995538
-0.1546615
-0.19111598
-0.22889773
-0.26754247
-0.3064785
-0.34502987
-0.38244563
-0.41786164
-0.45027713
-0.47857272
-0.50149379
-0.51762853
-0.52544102
-0.52328678
-0.50938504
-0.48184302
-0.43875117
-0.37822992
-0.29840535
-0.19746035
-0.073786769
0.073951709
0.24681132
0.4454841
0.67029195
0.92092158
1.1965169
1.495498
1.8155159
2.1533602
2.5048146
2.864644
3.2266615
3.5838613
3.9286083
4.2529191
4.5488919
4.8091362
5.0271487
5.1976322
5.3168071
5.3826924
5.3949765
5.3549496
5.265556
5.1312932
4.9578779
4.7519672
4.5207466
4.2715818
4.0116241
3.747595
3.4854941
3.2305415
2.9870289
2.7584623
2.5475587
2.3561826
2.1855909
2.0365364
1.9090686
1.803002
1.7175709
1.6517462
1.604204
1.5734316
1.5578142
1.5556475
1.5652167
1.584827
1.612865
1.6477938
1.6881891
1.7327978
1.7804367
1.8300282
1.8806382
1.9314479
1.9817093
2.0307905
2.0781294
2.1232775
2.1658358
2.2054518
2.2418333
2.2746947
2.3039458
2.3294619
2.3505457
2.366079
2.3853699
0.084932617
0.06609583
0.051567874
0.032078193
0.0087687051
-0.017697869
-0.047229168
-0.079741631
-0.11503611
-0.15283672
-0.19283088
-0.23466988
-0.27790731
-0.32199672
-0.36632061
-0.41015702
-0.45264799
-0.49281133
-0.52952167
-0.56148013
-0.58723051
-0.60516853
-0.61350322
-0.61026066
-0.59336266
-0.56067947
-0.51001824
-0.43914197
-0.34588619
-0.22829095
-0.084634093
0.086550202
0.28630497
0.5153791
0.77364493
1.0605761
1.3748564
1.7142796
2.0756286
2.4544885
2.8451994
3.2408554
3.6334138
4.0139529
4.3730485
4.7012877
4.9898079
5.2307923
5.4178869
5.5465954
5.6145958
5.6215898
5.5691746
5.4609544
5.302399
5.100493
4.8632767
4.5993551
4.3173959
4.0257631
3.7321791
3.4433679
3.1650022
2.9016017
2.6567364
2.4330549
2.232339
2.0556514
1.9035029
1.7757043
1.6717548
1.5905444
1.5306681
1.4904544
1.46803
1.4614447
1.4686709
1.4877341
1.5167586
1.5539396
1.5976252
1.6463154
1.6986732
1.7534744
1.8096222
1.866207
1.9224168
1.9775512
2.0309637
2.0821395
2.1306453
2.1761431
2.2183017
2.2568691
2.291591
2.3224133
2.3492007
2.3713012
2.3875625
2.4074713
0.10442627
0.084893072
0.069564527
0.048971812
0.02422676
-0.003988398
-0.035630314
-0.070660119
-0.10888009
-0.15006595
-0.1939826
-0.24030992
-0.2886348
-0.33848302
-0.38929024
-0.44036438
-0.49088838
-0.53990347
-0.5862732
-0.62868599
-0.66565475
-0.69546877
-0.71617261
-0.72562038
-0.72153109
-0.70147275
-0.66286209
-0.6030669
-0.51953558
-0.40986002
-0.27182449
-0.10349421
0.096654477
0.3294877
0.59561138
0.89481627
1.226158
1.5877177
1.9763965
2.3876515
2.8153768
3.2518204
3.6876509
4.1123014
4.5144976
4.8828591
5.2065734
5.4761135
5.6837991
5.8242473
5.8946972
5.89486
5.8267508
5.6948644
5.505925
5.268488
4.9923746
4.6880771
4.3659934
4.0359765
3.7069254
3.3864469
3.0806985
2.7944009
2.5310794
2.2932473
2.0824725
1.8995161
1.7446764
1.6173957
1.5167501
1.4412487
1.3890547
1.3580402
1.345897
1.3502879
1.3688474
1.3992714
1.4394339
1.4873725
1.5412879
1.5995915
1.6608624
1.7238474
1.7874789
1.850859
1.9131629
1.9737185
2.0319336
2.0873865
2.1396589
2.1884161
2.2333617
2.2743077
2.3110856
2.3435988
2.3717987
2.3949904
2.4120128
2.4326084
0.12645069
0.10620739
0.09003765
0.068239443
0.041978385
0.011904172
-0.021994773
-0.059687016
-0.10103081
-0.14588271
-0.19403993
-0.24522202
-0.29910132
-0.35527449
-0.41322874
-0.4723374
-0.53183774
-0.59079369
-0.64809521
-0.70245109
-0.75232395
-0.79588127
-0.83103213
-0.85547207
-0.86665712
-0.86177562
-0.83781992
-0.79172116
-0.7204407
-0.62101405
-0.49065666
-0.32693061
-0.12785117
0.10798282
0.38175945
0.69375935
1.0435711
1.4297934
1.849672
2.2987105
2.7703658
3.2558861
3.744368
4.2231683
4.6785795
5.0966085
5.4639061
5.7687668
6.0018231
6.1565841
6.2297835
6.2211667
6.1332918
5.9717542
5.744909
5.4633326
5.1391381
4.7852314
4.4142952
4.0381165
3.666981
3.3094461
2.9721891
2.6600937
2.3764785
2.1234758
1.9022594
1.7131688
1.5565625
1.4310474
1.3353341
1.2674965
1.2251557
1.2056407
1.2061426
1.2238252
1.2559304
1.2998319
1.3531025
1.4135811
1.4793068
1.5485933
1.6199958
1.6922514
1.764293
1.8352304
1.904282
1.9708088
2.0343244
2.0944153
2.1507535
2.2030312
2.2510125
2.2945281
2.3334973
2.3678112
2.3974937
2.4218389
2.4397238
2.4610398
0.15128266
0.13031069
0.1132254
0.090179568
0.062340481
0.030325999
-0.0059005398
-0.046371237
-0.091024442
-0.13975127
-0.19239097
-0.24875286
-0.30859852
-0.3715968
-0.43731713
-0.50521245
-0.57457885
-0.64454877
-0.71408596
-0.78191296
-0.84643407
-0.90574286
-0.95765483
-0.99967254
-1.028922
-1.04218
-1.0359897
-1.0067582
-0.95082367
-0.86455889
-0.74455197
-0.58779158
-0.39174872
-0.15443946
0.12613734
0.45073705
0.81978577
1.2327731
1.6876883
2.1803017
2.7036608
3.2479085
3.8002795
4.3454706
4.8665115
5.3459273
5.7670835
6.1154987
6.3796832
6.551785
6.6279884
6.6081099
6.4953908
6.2967943
6.0227399
5.6863891
5.3028454
4.8881486
4.4579532
4.0264934
3.6058087
3.2055273
2.8327583
2.4922338
2.1868359
1.9181268
1.6867472
1.4928321
1.335184
1.2130961
1.1244989
1.0668283
1.0370571
1.0318927
1.0478941
1.0816291
1.1298946
1.1896837
1.2582306
1.3331546
1.4123691
1.4941176
1.5769223
1.659517
1.7408396
1.8200504
1.8964688
1.9694888
2.0387114
2.1037595
2.1644467
2.2204603
2.2716533
2.3179178
2.3591817
2.395404
2.4266344
2.4521903
2.4709832
2.49301
0.17917106
0.15742448
0.13941227
0.11509009
0.085641388
0.051680294
0.013080351
-0.030270882
-0.078341299
-0.13106673
-0.18837982
-0.25018436
-0.31632606
-0.38657782
-0.46060821
-0.5379529
-0.6180151
-0.70005675
-0.7831221
-0.8659447
-0.9469285
-1.0241655
-1.0953805
-1.157838
-1.2083197
-1.2431884
-1.2584684
-1.2499063
-1.2130778
-1.1435901
-1.0373224
-0.89058252
-0.70017275
-0.46337223
-0.1781555
0.15776612
0.54588155
0.98706274
1.480508
2.0226638
2.6064434
3.2208369
3.8507544
4.47739
5.0794263
5.634778
6.1224869
6.5244675
6.8266313
7.0195621
7.0988966
7.0646358
6.920843
6.6760651
6.3432496
5.9388988
5.4820803
4.9929021
4.4908771
3.993468
3.5149184
3.0659156
2.6537737
2.2827631
1.9548573
1.6705757
1.4297392
1.2318489
1.0756186
0.95944516
0.8808165
0.83652709
0.8227548
0.83541359
0.87035772
0.92347834
0.99094875
1.0693129
1.15551
1.2469608
1.3414639
1.4371799
1.5326118
1.6265547
1.7180055
1.80617
1.8904679
1.9704413
2.04574
2.1160635
2.181305
2.241223
2.2957749
2.3448921
2.3885296
2.4267092
2.4595056
2.4863364
2.5060462
2.5288012
0.21033557
0.18782606
0.16886924
0.1432826
0.11226467
0.076360395
0.03535353
-0.010898336
-0.062405743
-0.11919625
-0.18130157
-0.24871913
-0.32140195
-0.39923466
-0.48199404
-0.56935041
-0.66087719
-0.75598103
-0.85379159
-0.95312049
-1.0524659
-1.1499524
-1.2432023
-1.3292552
-1.4045845
-1.4651196
-1.5062488
-1.5229086
-1.5097738
-1.461536
-1.3731974
-1.2402952
-1.0590514
-0.82632027
-0.53931729
-0.1946482
0.21096082
0.68052319
1.2152112
1.8128991
2.4669062
3.1650527
3.8892952
4.6161734
5.3184803
5.9678852
6.5377185
7.0053382
7.353582
7.5713288
7.6537761
7.6012407
7.4186828
7.1165197
6.7107498
6.2219938
5.6744232
5.0937238
4.5046076
3.9286833
3.3829054
2.8791105
2.4243605
2.0218033
1.6718154
1.3732583
1.1247562
0.92509599
0.77272388
0.6655682
0.60056795
0.57370144
0.58022125
0.61503987
0.67307436
0.74941284
0.83953005
0.9395006
1.0459814
1.1561775
1.2677853
1.3789614
1.4882426
1.5944937
1.6968163
1.7945567
1.8872167
1.9744965
2.056121
2.1319393
2.2018832
2.265823
2.3238267
2.3758481
2.4218991
2.4620536
2.4964457
2.5245608
2.5451848
2.5686862
0.24504592
0.22177606
0.20189096
0.1751124
0.14256719
0.10473331
0.061365356
0.012276892
-0.042631334
-0.10347943
-0.1703952
-0.24349428
-0.32284715
-0.40844534
-0.50021876
-0.59804508
-0.701689
-0.81070276
-0.92437094
-1.0416969
-1.1613373
-1.2814655
-1.3996491
-1.5127884
-1.6170812
-1.7079649
-1.7800884
-1.8274415
-1.8436074
-1.8220933
-1.7567771
-1.6423528
-1.4746076
-1.2502639
-0.96610321
-0.61753368
-0.19841696
0.29755181
0.87489592
1.5339745
2.2692142
3.0673835
3.9067826
4.7576791
5.5847303
6.3509896
7.0220929
7.569712
7.9733043
8.2202029
8.3054808
8.2299455
7.9994375
7.6263279
7.1300208
6.5362618
5.875961
5.1823564
4.4872996
3.8179339
3.194542
2.6300159
2.1305386
1.6971389
1.3274306
1.0175789
0.76437445
0.56586861
0.42061225
0.32639015
0.27961124
0.27527864
0.30745711
0.36972654
0.45579042
0.55979854
0.67649152
0.80146598
0.93105168
1.0622757
1.1928284
1.3209245
1.445164
1.5645816
1.6784392
1.786269
1.8876937
1.9825378
2.0706589
2.152077
2.2267813
2.2948128
2.3562826
2.4112133
2.4596822
2.5018005
2.5378019
2.5671577
2.5887051
2.6129335
0.28355196
0.25955739
0.23882217
0.21089273
0.17686996
0.13720331
0.091593984
0.039780486
-0.01841977
-0.083221391
-0.15486615
-0.23358759
-0.31957373
-0.41297011
-0.51391689
-0.62251562
-0.73872677
-0.86231381
-0.99283168
-1.1295597
-1.2713537
-1.4165099
-1.5626731
-1.7067186
-1.8445934
-1.9711968
-2.0803722
-2.1650131
-2.2173159
-2.229204
-2.1930626
-2.1026165
-1.9534924
-1.7430332
-1.4684733
-1.1238583
-0.69887528
-0.18168519
0.43758487
1.1633427
1.9920813
2.9100222
3.890988
4.8963573
5.8791446
6.7905021
7.5860267
8.2305081
8.6998285
8.980399
9.067781
8.9635937
8.6743257
8.2139865
7.6057418
6.8815826
6.0810081
5.2474465
4.4228305
3.6420704
2.9295638
2.2989211
1.7545451
1.2938335
0.90967308
0.5938573
0.34037822
0.14682202
0.012656248
-0.063801943
-0.086568643
-0.061918689
0.0025335583
0.098673182
0.21867172
0.35555986
0.50329849
0.65694809
0.81258158
0.96716106
1.1184443
1.2648012
1.4050097
1.5383259
1.6642489
1.7824923
1.8929004
1.9954734
2.0901821
2.1772306
2.2567157
2.3288123
2.3936854
2.451467
2.5023065
2.5463543
2.5839202
2.6144838
2.6369456
2.6618737
0.32611725
0.30147817
0.27993524
0.25091262
0.21553155
0.17418634
0.12649571
0.072135099
0.010840565
-0.057717094
-0.13388983
-0.21801632
-0.31043747
-0.41151803
-0.5216209
-0.64105744
-0.77004033
-0.908658
-1.0568203
-1.214131
-1.3797406
-1.5522356
-1.7295061
-1.9085134
-2.0850349
-2.2534956
-2.4069001
-2.5368308
-2.6336624
-2.6871669
-2.6876307
-2.6274469
-2.5024623
-2.3123153
-2.0570845
-1.7294577
-1.3114973
-0.78265676
-0.12541657
0.67091374
1.6066729
2.668411
3.8245758
5.0240323
6.2028087
7.2947086
8.241927
9.0019509
9.5480269
9.8664992
9.9545673
9.8150168
9.45447
8.8883492
8.1430728
7.2571656
6.2811078
5.2728616
4.2889924
3.375212
2.5609317
1.8599174
1.2733587
0.79292658
0.40438573
0.091976198
-0.15547166
-0.33987788
-0.4586102
-0.51153979
-0.50305901
-0.44128303
-0.33626651
-0.19839219
-0.03735075
0.13845697
0.32216507
0.50840123
0.69309174
0.87329505
1.0469756
1.2127349
1.369723
1.5174698
1.6557745
1.7846065
1.9040336
2.0142886
2.1155445
2.2081263
2.2923296
2.3684115
2.4365899
2.4971025
2.5501948
2.5961027
2.6351466
2.6668652
2.6901978
2.7157942
0.37299472
0.34776245
0.32546619
0.29548512
0.25890568
0.21605991
0.16650743
0.10985527
0.045740501
-0.026265618
-0.10661321
-0.19578071
-0.29430663
-0.40277211
-0.52175458
-0.65181777
-0.79351747
-0.94734124
-1.1135966
-1.2923001
-1.4830785
-1.6850223
-1.8964429
-2.1145534
-2.3351682
-2.5524302
-2.7585332
-2.9435285
-3.0954327
-3.2009894
-3.2472668
-3.2243484
-3.1284129
-2.9647827
-2.742211
-2.4520175
-2.0636276
-1.5394998
-0.85258521
0.016709744
1.0749504
2.3109361
3.6862464
5.1309005
6.5564376
7.8726745
9.0040068
9.8996058
10.531911
10.890564
10.976963
10.795397
10.351246
9.6589212
8.7470795
7.6613303
6.4659264
5.2384987
4.0568608
2.9827441
2.0520541
1.2778566
0.6560477
0.1698491
-0.20408515
-0.4977281
-0.73091116
-0.90280008
-1.0021588
-1.0247804
-0.97574726
-0.86625423
-0.71001122
-0.52064092
-0.31023695
-0.08870496
0.1363028
0.35913339
0.57579043
0.78364481
0.98111091
1.1671848
1.3414514
1.5038861
1.6546382
1.7939811
1.9223057
2.0400647
2.1476615
2.2456084
2.3343351
2.4141834
2.4854765
2.5485559
2.6037609
2.6513923
2.6917895
2.7245898
2.7487235
2.7748745
0.4243497
0.3986003
0.37567232
0.34488342
0.30729013
0.26317815
0.21204305
0.15341388
0.086846274
0.011829325
-0.072213361
-0.16593683
-0.27006697
-0.3853727
-0.51267675
-0.65287557
-0.80691327
-0.97569427
-1.1599981
-1.3604218
-1.5772731
-1.8103475
-2.0586094
-2.3198399
-2.5902559
-2.8640349
-3.1327224
-3.3847408
-3.6052311
-3.776675
-3.880861
-3.903322
-3.8393355
-3.7059685
-3.5346232
-3.3155836
-2.9930064
-2.4971689
-1.7944156
-0.8521805
0.34497101
1.7927766
3.4457417
5.2039217
6.9406918
8.5307511
9.8791645
10.93001
11.65642
12.055345
12.13647
11.906251
11.365808
10.525066
9.4154955
8.0881152
6.6197558
5.1156741
3.6865939
2.4182696
1.3541843
0.50592425
-0.13765673
-0.60822401
-0.93545156
-1.1849689
-1.3932603
-1.5524416
-1.6298669
-1.6136867
-1.5114303
-1.3399063
-1.1186825
-0.86585901
-0.59636163
-0.32157877
-0.04973503
0.21355504
0.46479476
0.70196834
0.92411339
1.1309493
1.3226463
1.4996441
1.6625776
1.8121536
1.9490231
2.0739395
2.1875372
2.2905037
2.3834016
2.4666852
2.5408227
2.6062516
2.6633831
2.7125395
2.754139
2.7879161
2.8127444
2.8393453
0.48032466
0.4541878
0.43075084
0.3993203
0.36095347
0.31586067
0.26346595
0.20324853
0.13470346
0.057212411
-0.029952445
-0.12760061
-0.23661023
-0.35795815
-0.49276351
-0.6422818
-0.80783521
-0.99078053
-1.1925031
-1.4143583
-1.6575092
-1.9226705
-2.2098049
-2.517742
-2.8436302
-3.182197
-3.5248218
-3.8585239
-4.1651858
-4.4215837
-4.6010258
-4.6807663
-4.6487123
-4.540776
-4.448269
-4.3545935
-4.162024
-3.7180687
-3.0174242
-2.0046193
-0.649874
1.0597696
3.0714212
5.2319011
7.3605798
9.281505
10.878809
12.099019
12.920993
13.354828
13.425169
13.141702
12.495136
11.486043
10.149185
8.537267
6.7324668
4.8762621
3.1310566
1.6234686
0.40466484
-0.51808897
-1.165388
-1.598713
-1.8160006
-1.978299
-2.1492262
-2.3050323
-2.3596218
-2.2919298
-2.1178793
-1.8645584
-1.5605078
-1.2296125
-0.88990505
-0.55394632
-0.22989873
0.077295508
0.36510358
0.63258286
0.87975186
1.1071999
1.3159081
1.5069709
1.6814864
1.8406204
1.9854546
2.1169447
2.2360401
2.3435549
2.4401656
2.5265108
2.6031719
2.6706763
2.7294862
2.7799124
2.8225221
2.8571283
2.8825202
2.9094723
0.54104737
0.51464803
0.49084382
0.4589888
0.4201195
0.37436129
0.32109425
0.25976525
0.18978692
0.11042252
0.020827005
-0.079926397
-0.19287876
-0.3192529
-0.46045659
-0.61806153
-0.79377985
-0.98950634
-1.2073505
-1.4495374
-1.7182434
-2.0153966
-2.3424054
-2.699726
-3.0861546
-3.4978495
-3.9270387
-4.3602407
-4.7762833
-5.1448459
-5.4258886
-5.5812514
-5.5704284
-5.4577853
-5.5143234
-5.6315299
-5.5980674
-5.2951637
-4.6167166
-3.5295514
-2.0042401
0.014112185
2.4927035
5.1684107
7.7816258
10.077785
11.954817
13.37064
14.297917
14.766262
14.820759
14.474169
13.70439
12.49448
10.892846
8.9594177
6.7549598
4.4623559
2.3226057
0.52644727
-0.87748942
-1.8880308
-2.5118969
-2.7907062
-2.8816223
-2.8982262
-3.0011439
-3.1862118
-3.2193885
-3.0787011
-2.8039995
-2.4407282
-2.0305656
-1.6041748
-1.1821558
-0.77717479
-0.39626734
-0.04271072
0.28263732
0.58039819
0.85200643
1.0992212
1.323946
1.5279703
1.7131033
1.8808942
2.0328222
2.1701278
2.2939989
2.4054474
2.5052426
2.5941708
2.6729529
2.7421878
2.802347
2.8538183
2.8972392
2.9324463
2.9582895
2.985483
0.60656374
0.5800588
0.55606981
0.52403262
0.48494376
0.43888382
0.38519928
0.32328018
0.25245275
0.17190508
0.080716414
-0.022163318
-0.1379606
-0.26811607
-0.41426859
-0.57827432
-0.76228431
-0.96879541
-1.2006657
-1.4610527
-1.7533324
-2.0809827
-2.4473241
-2.8550734
-3.3056086
-3.7978638
-4.3266946
-4.8803804
-5.4367452
-5.9593287
-6.3876391
-6.6580267
-6.6361469
-6.4704466
-6.8144626
-7.3657802
-7.6205023
-7.4573838
-6.7827552
-5.5860531
-3.8616316
-1.4794924
1.6319377
4.9243412
8.1500072
10.850507
13.028486
14.661549
15.699836
16.20497
16.239508
15.815934
14.90232
13.436969
11.51518
9.2733254
6.6499534
3.8269901
1.1640735
-0.98885955
-2.6413924
-3.8006684
-4.4100441
-4.5282991
-4.3316799
-4.0190006
-3.9632021
-4.2363134
-4.2575397
-4.0031704
-3.5801724
-3.0652688
-2.5187173
-1.9768092
-1.460349
-0.97967481
-0.53885831
-0.1381839
0.22413645
0.55089049
0.84528402
1.1104721
1.3494586
1.5648969
1.7591563
1.9343422
2.0922117
2.2343558
2.3621552
2.4767593
2.5791251
2.6701111
2.7505149
2.8210578
2.8822158
2.9344784
2.9784876
3.0140763
3.0402476
3.0675637
0.67687137
0.65047221
0.62648635
0.59451319
0.55553629
0.50958384
0.4559542
0.39398474
0.32295782
0.24202341
0.15018196
0.046253309
-0.071133824
-0.20355853
-0.35285872
-0.52118725
-0.71113138
-0.925758
-1.1686362
-1.4439092
-1.7563227
-2.1111688
-2.5140952
-2.9707572
-3.4862106
-4.0638559
-4.7038449
-5.4004401
-6.1370451
-6.8811898
-7.5590526
-8.1384832
-8.234086
-8.0739948
-8.6520644
-9.86629
-10.509084
-10.427959
-9.7167047
-8.3881705
-6.4537296
-3.725918
0.28506539
4.4601413
8.239744
11.143619
13.818377
15.827411
17.002092
17.525299
17.537382
17.052899
15.990585
14.151796
11.752954
9.2598823
6.2693181
2.8633186
-0.49477649
-3.0817173
-5.0837683
-6.4709695
-7.1055832
-7.0554942
-6.412488
-5.5163286
-5.3899151
-5.7396472
-5.6434878
-5.1251167
-4.457504
-3.7263656
-3.0055886
-2.3276363
-1.7067496
-1.1466612
-0.6456939
-0.19960103
0.19701591
0.54978773
0.8639726
1.1443718
1.3950934
1.6197266
1.8212298
2.0021346
2.1645865
2.3103876
2.4410964
2.5580035
2.6621954
2.7546612
2.8362285
2.9076013
2.9693833
3.0221203
3.0664413
3.1022295
3.1285714
3.1558083
0.75195248
0.72586973
0.70207745
0.67044515
0.63194613
0.5865145
0.53341377
0.47197874
0.40147364
0.32100018
0.22948446
0.12567272
0.0081276822
-0.12482673
-0.27521762
-0.4454756
-0.63852084
-0.85787627
-1.1077839
-1.3933847
-1.7208357
-2.0973595
-2.5312565
-3.0317586
-3.6086716
-4.27158
-5.0289841
-5.8864996
-6.8449612
-7.8967908
-8.9879824
-10.292987
-11.088728
-10.864241
-11.022055
-13.171765
-14.252839
-14.234581
-13.637015
-12.154614
-9.9330946
-7.0037635
-2.8590423
5.3270022
6.7508084
9.2852694
13.407601
16.409423
17.967814
18.557043
18.566903
18.029987
16.694319
13.950026
9.9174678
6.7833893
4.5145755
0.65163934
-3.0178299
-5.938228
-8.3955784
-10.095353
-10.681053
-10.462044
-9.2556685
-7.6779152
-8.0119115
-8.3644537
-7.6695378
-6.5061638
-5.4205745
-4.3896692
-3.456801
-2.6277844
-1.8983079
-1.2602038
-0.70320417
-0.21684093
0.20877933
0.58255458
0.91211554
1.2038529
1.4630489
1.6940678
1.900519
2.0852357
2.2506521
2.3988006
2.5313033
2.6495713
2.7548248
2.8481163
2.9302869
3.00204
3.0640817
3.1169476
3.1612896
3.197103
3.2234488
3.2503542
0.83172804
0.80617165
0.78278797
0.75179978
0.71412841
0.66962386
0.61755865
0.55728123
0.4880269
0.40885543
0.31867611
0.21624204
0.10009017
-0.03155009
-0.18083569
-0.3503546
-0.54321652
-0.76326987
-1.0153352
-1.3054345
-1.6410175
-2.0312134
-2.4871221
-3.0219567
-3.6511053
-4.3917579
-5.263207
-6.2865768
-7.4919671
-8.9334696
-10.694909
-12.821506
-14.513864
-14.060676
-14.315819
-14.801707
-17.644669
-17.623079
-17.706735
-16.475066
-14.167935
-10.860744
-6.3707245
-2.9456894
17.966422
5.6164008
10.505733
15.893843
18.375147
19.201916
19.25787
18.567974
16.481012
12.074072
5.4417122
2.2003213
2.320621
-2.2054886
-5.8540263
-9.5384343
-12.518213
-14.15194
-14.310896
-13.885826
-12.308202
-11.114309
-11.413722
-11.804082
-10.257901
-8.0697949
-6.3818328
-4.9854487
-3.8209607
-2.8395226
-2.0075074
-1.3004606
-0.69717131
-0.17986163
0.26646209
0.65409669
0.99302058
1.2911556
1.5548016
1.7889929
1.9977334
2.184162
2.3508297
2.4998786
2.633051
2.751783
2.8573141
2.9507403
3.0328986
3.1045759
3.1664749
3.2191273
3.2631822
3.2988212
3.3249967
3.3513629
0.91604995
0.89128644
0.8685208
0.83845927
0.80196271
0.75881111
0.70830126
0.64977811
0.58245913
0.50542619
0.41763557
0.31786993
0.20464727
0.076156023
-0.06975621
-0.2356632
-0.42473664
-0.64099917
-0.88960851
-1.1771803
-1.5122066
-1.9055342
-2.3709291
-2.9255907
-3.5908215
-4.392259
-5.3614403
-6.5369135
-7.9796871
-9.7506443
-12.008934
-14.576451
-16.124111
-15.270373
-17.383524
-17.833828
-19.833214
-20.582002
-22.365129
-22.396456
-20.872073
-17.098345
-11.832744
-11.891032
8.2804207
15.10837
7.8919754
15.006478
18.637232
19.776413
19.952431
19.233846
16.464477
10.739122
5.859658
34.141721
6.2568295
-3.728037
-9.3268493
-15.007769
-18.167594
-19.395186
-18.176187
-16.817035
-13.321936
-14.459031
-14.237003
-12.927385
-12.340352
-9.4678788
-7.1664528
-5.4249823
-4.0351357
-2.9191859
-2.0047647
-1.2475706
-0.61443516
-0.080048635
0.37557359
0.76787243
1.1087793
1.4074779
1.6710427
1.9048597
2.1130999
2.2990206
2.4652196
2.6137961
2.7464451
2.8646751
2.969732
3.0626262
3.1442198
3.2153508
3.2766686
3.3287393
3.3722125
3.4073939
3.4332363
3.4588487
1.0047482
0.9810751
0.95911956
0.93025494
0.89529126
0.85391431
0.80543114
0.74920122
0.68448003
0.61042247
0.52604164
0.43013918
0.32126141
0.19768812
0.057415273
-0.10198247
-0.28357883
-0.49132802
-0.73036508
-1.0074888
-1.331826
-1.7154813
-2.1744453
-2.7295277
-3.407584
-4.2424799
-5.2775062
-6.5688643
-8.2010653
-10.22152
-12.831248
-15.505052
-17.023767
-16.16487
-19.767307
-20.603213
-22.386076
-25.272342
-27.568231
-27.281071
-26.073439
-24.654875
-27.010515
-18.209041
-4.0921189
10.905765
6.2162103
15.364586
19.699222
20.879761
21.231885
20.92723
18.424753
11.959157
8.4253769
24.929234
13.927635
-1.6470639
-15.160491
-23.028424
-24.802828
-26.18667
-22.979757
-16.716205
-18.2527
-17.244373
-15.565654
-13.748025
-13.167274
-10.240257
-7.5441322
-5.5679388
-4.0259338
-2.8237793
-1.8645404
-1.0858916
-0.44549198
0.088149784
0.53909276
0.92523107
1.259839
1.5528076
1.8114762
2.0412824
2.2462767
2.429551
2.5935919
2.7403502
2.871412
2.9882314
3.0920101
3.1837186
3.2642341
3.3343513
3.3946948
3.4458157
3.4884352
3.5228335
3.5481697
3.5727703
1.0976315
1.0753387
1.0543981
1.0270093
0.99390063
0.95465895
0.90861723
0.85519342
0.79371737
0.72340122
0.64329985
0.55227168
0.44900167
0.33198426
0.19945366
0.049247672
-0.12137445
-0.3159538
-0.53919194
-0.79757038
-1.1002041
-1.4597346
-1.8936067
-2.425557
-3.0874662
-3.9210316
-4.9781076
-6.335874
-8.0887363
-10.348298
-13.417112
-16.653755
-19.000817
-20.264144
-14.068196
-25.435628
-26.707168
-27.951914
-31.107976
-30.049337
-25.121585
-0.66720054
31.201274
-30.9185
-16.367878
2.0649465
9.0294389
19.218601
22.60734
22.851921
23.278579
24.051328
22.783309
15.184669
6.9884966
2.464792
-4.5859757
8.0483314
-29.357476
-32.06261
-32.03621
-30.477695
-25.452223
-22.142791
-20.513127
-20.722475
-18.103092
-16.417656
-14.05658
-10.490425
-7.4890228
-5.3711143
-3.7653441
-2.5324294
-1.5743755
-0.80790038
-0.18651595
0.32602405
0.75674139
1.1250306
1.4446418
1.7255052
1.9746094
2.1969644
2.3961771
2.5749097
2.7353064
2.879033
3.0075572
3.1222042
3.2239963
3.3139109
3.3928378
3.4615034
3.5204879
3.5703644
3.6118556
3.645223
3.6698247
3.6931144
1.1944721
1.1738689
1.15415
1.128484
1.0974925
1.0606939
1.0174877
0.96735479
0.90967771
0.84370006
0.76854443
0.68321363
0.58662164
0.47752717
0.35446427
0.21568869
0.059056971
-0.11819832
-0.3198831
-0.55151258
-0.82126877
-1.1413048
-1.5293621
-2.0108534
-2.6221957
-3.4132818
-4.4451855
-5.8242391
-7.6579999
-10.092138
-13.568916
-17.680592
-20.847822
-23.573556
-16.070646
-26.514304
-30.43039
-32.800038
-37.752559
-50.936959
2.4846217
33.27751
-38.270267
-18.442042
-7.557304
5.2500389
19.474409
28.957605
28.597191
25.529994
25.818603
29.613808
31.276258
23.666342
10.094145
-0.48270387
-12.696357
-36.680057
23.668058
21.135529