/*--------------------------------*- C++ -*----------------------------------*\
  =========                 |
  \\      /  F ield         | OpenFOAM: The Open Source CFD Toolbox
   \\    /   O peration     | Website:  https://openfoam.org
    \\  /    A nd           | Version:  9
     \\/     M anipulation  |
\*---------------------------------------------------------------------------*/
FoamFile
{
    format      ascii;
    class       volVectorField;
    location    "0.24";
    object      U;
}
// * * * * * * * * * * * * * * * * * * * * * * * * * * * * * * * * * * * * * //

dimensions      [0 1 -1 0 0 0 0];

internalField   nonuniform List<vector> 
10000
(
(0.0092938355 -0.0086776885 0)
(0.021892863 -0.0086919486 0)
(0.029062173 -0.0087069441 0)
(0.03681079 -0.0087201569 0)
(0.045074779 -0.0087208915 0)
(0.053178051 -0.0087194641 0)
(0.061174986 -0.0087144081 0)
(0.069129969 -0.0087039098 0)
(0.077020464 -0.008687893 0)
(0.084829546 -0.0086665727 0)
(0.092545904 -0.008638788 0)
(0.10015657 -0.0086042654 0)
(0.10764549 -0.0085636223 0)
(0.11499538 -0.0085156526 0)
(0.12218964 -0.0084592101 0)
(0.12920758 -0.0083956138 0)
(0.13602365 -0.0083233361 0)
(0.14261339 -0.0082362255 0)
(0.14895275 -0.0081297203 0)
(0.15501558 -0.0080016153 0)
(0.16077164 -0.0078495075 0)
(0.16618716 -0.0076674724 0)
(0.17122189 -0.0074512269 0)
(0.17582988 -0.0071877357 0)
(0.17996356 -0.0068688625 0)
(0.18357482 -0.006481237 0)
(0.18660624 -0.0060119612 0)
(0.1890023 -0.0054237338 0)
(0.19073137 -0.0047007112 0)
(0.1917592 -0.0038397838 0)
(0.19202147 -0.0028244296 0)
(0.19147237 -0.0016132139 0)
(0.19029755 -0.00017074967 0)
(0.1883831 0.0012359181 0)
(0.18538232 0.0026833443 0)
(0.1812554 0.0042098664 0)
(0.17597769 0.0058204809 0)
(0.16950927 0.0075227309 0)
(0.16186446 0.0093149317 0)
(0.15305638 0.011163449 0)
(0.14307746 0.013046378 0)
(0.13198443 0.014952524 0)
(0.11985385 0.016827182 0)
(0.10674033 0.018607912 0)
(0.092716782 0.020252251 0)
(0.077886453 0.021711996 0)
(0.062359494 0.02293411 0)
(0.046250283 0.023877708 0)
(0.029683453 0.024515706 0)
(0.012794792 0.024840711 0)
(-0.0042804652 0.024893539 0)
(-0.021281689 0.024682656 0)
(-0.038057097 0.024166044 0)
(-0.054456993 0.023341163 0)
(-0.070346941 0.022226839 0)
(-0.08560378 0.020857019 0)
(-0.10011608 0.019280237 0)
(-0.1137858 0.017553656 0)
(-0.12650416 0.015735618 0)
(-0.13816914 0.013867041 0)
(-0.14873499 0.01197937 0)
(-0.15816816 0.010114734 0)
(-0.16643367 0.0083057311 0)
(-0.1735057 0.0065766891 0)
(-0.17937087 0.0049374613 0)
(-0.18406293 0.0033787111 0)
(-0.1876281 0.0018958576 0)
(-0.19000426 0.00048526048 0)
(-0.19147606 -0.00097245468 0)
(-0.19236116 -0.0023161037 0)
(-0.19250615 -0.0034278553 0)
(-0.19183922 -0.0043677015 0)
(-0.19042572 -0.0051579213 0)
(-0.18831531 -0.0058117236 0)
(-0.18553872 -0.0063407993 0)
(-0.1821274 -0.0067727836 0)
(-0.17814525 -0.0071339277 0)
(-0.17364789 -0.0074305643 0)
(-0.16867957 -0.0076792932 0)
(-0.16329376 -0.0078888311 0)
(-0.15753384 -0.0080657975 0)
(-0.15144023 -0.008217292 0)
(-0.14504919 -0.0083467702 0)
(-0.13838955 -0.0084522758 0)
(-0.13148634 -0.008538387 0)
(-0.12436639 -0.0086111347 0)
(-0.11705701 -0.0086751835 0)
(-0.10958265 -0.0087298825 0)
(-0.1019624 -0.0087754748 0)
(-0.094214539 -0.0088134796 0)
(-0.086356543 -0.008844711 0)
(-0.078403561 -0.0088694383 0)
(-0.070367997 -0.008888039 0)
(-0.062266858 -0.0089000104 0)
(-0.054123054 -0.0089058234 0)
(-0.045871558 -0.0089071752 0)
(-0.037457428 -0.0089061666 0)
(-0.029563221 -0.0088986455 0)
(-0.022258868 -0.0088820435 0)
(-0.0094507826 -0.0088705385 0)
(0.0092721731 -0.021536322 0)
(0.02186415 -0.021513544 0)
(0.029031742 -0.021512897 0)
(0.036798442 -0.021499077 0)
(0.045077505 -0.021460909 0)
(0.05318795 -0.021413336 0)
(0.06119501 -0.021351379 0)
(0.069162454 -0.021271439 0)
(0.077065762 -0.021172235 0)
(0.084888985 -0.021051901 0)
(0.092621555 -0.020908314 0)
(0.1002489 -0.020739083 0)
(0.1077558 -0.020541754 0)
(0.11512634 -0.02031364 0)
(0.1223421 -0.020052391 0)
(0.12938303 -0.019752044 0)
(0.13622895 -0.019406462 0)
(0.14285739 -0.019011582 0)
(0.14924214 -0.018564951 0)
(0.15535563 -0.018057659 0)
(0.1611697 -0.017478145 0)
(0.16665204 -0.016819026 0)
(0.17176871 -0.016068301 0)
(0.1764773 -0.015210692 0)
(0.18073149 -0.014224827 0)
(0.18448723 -0.013085736 0)
(0.18770943 -0.011768907 0)
(0.19034461 -0.010238866 0)
(0.19233217 -0.0084639679 0)
(0.19364157 -0.0064262046 0)
(0.19424993 -0.0041022775 0)
(0.19413589 -0.0014536446 0)
(0.1931787 0.0015186464 0)
(0.19129723 0.004581237 0)
(0.1884391 0.0077817604 0)
(0.18448413 0.011145274 0)
(0.17937505 0.014659534 0)
(0.17306766 0.018307587 0)
(0.16553894 0.022061843 0)
(0.15678335 0.025858442 0)
(0.14681374 0.029647661 0)
(0.13565868 0.033373507 0)
(0.1233534 0.036954733 0)
(0.10997226 0.040309885 0)
(0.095606086 0.043359658 0)
(0.080349913 0.046034598 0)
(0.064323246 0.048270861 0)
(0.047667652 0.050012763 0)
(0.030538846 0.051221814 0)
(0.013130307 0.05187859 0)
(-0.0044112362 0.0520008 0)
(-0.021916048 0.051590087 0)
(-0.039246889 0.050622603 0)
(-0.056202574 0.04910979 0)
(-0.072614298 0.047083624 0)
(-0.088330528 0.044591694 0)
(-0.103219 0.04169637 0)
(-0.11716719 0.038470943 0)
(-0.13007251 0.034996833 0)
(-0.14185308 0.031342364 0)
(-0.15245936 0.027574729 0)
(-0.16185481 0.02377393 0)
(-0.17001819 0.020002212 0)
(-0.17694359 0.016316929 0)
(-0.18264888 0.012751165 0)
(-0.18717999 0.0093190036 0)
(-0.19057829 0.006054214 0)
(-0.1929043 0.0029636256 0)
(-0.19428862 -9.2216517e-05 0)
(-0.19481853 -0.002943148 0)
(-0.19456346 -0.0054426438 0)
(-0.19358599 -0.0076388404 0)
(-0.19190002 -0.0095663006 0)
(-0.18954163 -0.011241968 0)
(-0.18655356 -0.012680003 0)
(-0.18298048 -0.013924418 0)
(-0.17886703 -0.015010203 0)
(-0.17425921 -0.015956491 0)
(-0.16920323 -0.016785378 0)
(-0.16374329 -0.017513353 0)
(-0.15792127 -0.018156066 0)
(-0.15177422 -0.018721862 0)
(-0.14533218 -0.019216881 0)
(-0.13862576 -0.019652947 0)
(-0.1316853 -0.020035845 0)
(-0.12453699 -0.020367651 0)
(-0.11720326 -0.020653641 0)
(-0.10970511 -0.020899054 0)
(-0.10206333 -0.021109766 0)
(-0.094296456 -0.0212895 0)
(-0.086421158 -0.021441523 0)
(-0.078452715 -0.021568217 0)
(-0.070402968 -0.021671609 0)
(-0.062288614 -0.021754201 0)
(-0.054133995 -0.021817698 0)
(-0.0458753 -0.021865702 0)
(-0.037451546 -0.021903811 0)
(-0.029540768 -0.021924385 0)
(-0.022235171 -0.02192323 0)
(-0.0094386477 -0.021942975 0)
(0.0092937196 -0.0282228 0)
(0.021903866 -0.028170067 0)
(0.029070233 -0.028134949 0)
(0.036861151 -0.028074521 0)
(0.045161221 -0.027985089 0)
(0.05328879 -0.027877902 0)
(0.061317482 -0.027746782 0)
(0.06930918 -0.027587707 0)
(0.077238914 -0.02739891 0)
(0.085090701 -0.027177056 0)
(0.092854042 -0.026919031 0)
(0.10051606 -0.026621578 0)
(0.1080612 -0.026280355 0)
(0.11547243 -0.025891163 0)
(0.12273577 -0.025449675 0)
(0.12983376 -0.024952725 0)
(0.13673988 -0.02439555 0)
(0.14342707 -0.02377221 0)
(0.14987621 -0.023073102 0)
(0.15606856 -0.02228826 0)
(0.16197285 -0.021409399 0)
(0.16755665 -0.020425559 0)
(0.17278765 -0.019321618 0)
(0.1776297 -0.018081682 0)
(0.18204462 -0.016681261 0)
(0.18598809 -0.015096042 0)
(0.18941487 -0.013296586 0)
(0.19227744 -0.011263817 0)
(0.19452574 -0.0089577355 0)
(0.19611556 -0.0063500542 0)
(0.19700136 -0.003433856 0)
(0.19711188 -0.00022151347 0)
(0.19636136 0.0032464243 0)
(0.19468816 0.006996792 0)
(0.19201236 0.010984442 0)
(0.18823808 0.015196302 0)
(0.18329838 0.01961776 0)
(0.17713815 0.024221577 0)
(0.16972027 0.028970273 0)
(0.16102868 0.033804643 0)
(0.15106238 0.038655091 0)
(0.1398371 0.043435814 0)
(0.12738917 0.048066469 0)
(0.11377134 0.052458298 0)
(0.0990652 0.056507474 0)
(0.083383087 0.060108179 0)
(0.066845973 0.063165406 0)
(0.049598551 0.065596904 0)
(0.031810182 0.067332801 0)
(0.013681523 0.068317395 0)
(-0.0046193629 0.068508394 0)
(-0.022864088 0.067894582 0)
(-0.040881868 0.066507851 0)
(-0.058458496 0.0643994 0)
(-0.075415258 0.061630749 0)
(-0.09159239 0.058279134 0)
(-0.10685262 0.054434804 0)
(-0.12108026 0.050197695 0)
(-0.13417842 0.045672659 0)
(-0.14607006 0.040954104 0)
(-0.15670383 0.036129575 0)
(-0.16605968 0.031284259 0)
(-0.17413161 0.026495691 0)
(-0.18092857 0.021826647 0)
(-0.18648461 0.017317202 0)
(-0.19083388 0.013001715 0)
(-0.19403005 0.0089085405 0)
(-0.19618129 0.0050426574 0)
(-0.19740442 0.0014033032 0)
(-0.19772275 -0.0019490653 0)
(-0.19720031 -0.0050368603 0)
(-0.19594781 -0.0078230584 0)
(-0.19400183 -0.010311994 0)
(-0.19139392 -0.012521588 0)
(-0.18818144 -0.014480314 0)
(-0.18441598 -0.016217379 0)
(-0.18013542 -0.01775743 0)
(-0.1753815 -0.019121238 0)
(-0.17019683 -0.020337208 0)
(-0.16462731 -0.021423499 0)
(-0.15870799 -0.022393655 0)
(-0.15247033 -0.023258784 0)
(-0.14595258 -0.024029432 0)
(-0.13918396 -0.02471279 0)
(-0.13218107 -0.025318368 0)
(-0.12496891 -0.025854966 0)
(-0.11757686 -0.02632893 0)
(-0.11002967 -0.026745294 0)
(-0.10234556 -0.027107702 0)
(-0.094540485 -0.027421382 0)
(-0.086630775 -0.02769113 0)
(-0.078630751 -0.027921139 0)
(-0.070552809 -0.02811508 0)
(-0.062413817 -0.02827688 0)
(-0.054237476 -0.028409592 0)
(-0.045961774 -0.028517117 0)
(-0.037519464 -0.028606139 0)
(-0.029585526 -0.028670597 0)
(-0.022281409 -0.028703016 0)
(-0.0094659638 -0.028755489 0)
(0.0093128116 -0.036489729 0)
(0.021943451 -0.036438381 0)
(0.029118961 -0.036397774 0)
(0.036941424 -0.036318279 0)
(0.045268472 -0.036206818 0)
(0.053420495 -0.036070742 0)
(0.061479128 -0.035902107 0)
(0.06950404 -0.03569609 0)
(0.077470209 -0.035450017 0)
(0.085362965 -0.035159769 0)
(0.09317171 -0.034820007 0)
(0.10088357 -0.034426432 0)
(0.10848395 -0.033974138 0)
(0.11595689 -0.03345737 0)
(0.12328319 -0.032870278 0)
(0.13044338 -0.032209947 0)
(0.13741936 -0.03146981 0)
(0.14419341 -0.030638724 0)
(0.15074369 -0.029704035 0)
(0.15704095 -0.028658067 0)
(0.16305839 -0.027491752 0)
(0.16876992 -0.026188514 0)
(0.1741461 -0.024730926 0)
(0.17915407 -0.023097907 0)
(0.18375541 -0.02126687 0)
(0.18791076 -0.019209968 0)
(0.19157882 -0.016894959 0)
(0.19471751 -0.014289895 0)
(0.19727541 -0.011362928 0)
(0.19918936 -0.0080823549 0)
(0.20039693 -0.0044344162 0)
(0.2008322 -0.00041901854 0)
(0.20041547 0.0039740873 0)
(0.19906044 0.0087332146 0)
(0.19666879 0.01383419 0)
(0.19314219 0.019239336 0)
(0.18840715 0.024894875 0)
(0.18240034 0.030762617 0)
(0.17507405 0.036787036 0)
(0.1663962 0.04288694 0)
(0.1563551 0.048971388 0)
(0.14496779 0.054943841 0)
(0.13227089 0.060696604 0)
(0.11831403 0.066117673 0)
(0.10316975 0.071098854 0)
(0.086943342 0.075521478 0)
(0.069773062 0.079267857 0)
(0.051819885 0.082234447 0)
(0.033262967 0.084341094 0)
(0.014316478 0.08552871 0)
(-0.0048316918 0.085771979 0)
(-0.023907467 0.085061971 0)
(-0.042715925 0.083411127 0)
(-0.061032385 0.080868159 0)
(-0.078663761 0.077500824 0)
(-0.095433837 0.073400046 0)
(-0.11119279 0.068673786 0)
(-0.12581567 0.063442316 0)
(-0.13920551 0.057825952 0)
(-0.15129685 0.051937037 0)
(-0.16204762 0.045883394 0)
(-0.17143129 0.039768684 0)
(-0.1794469 0.03369331 0)
(-0.18612078 0.027739663 0)
(-0.19149217 0.021970172 0)
(-0.19561458 0.016441568 0)
(-0.19856108 0.011192076 0)
(-0.20042929 0.0062459562 0)
(-0.20129868 0.0016505452 0)
(-0.20127922 -0.0025597564 0)
(-0.20046366 -0.0064188496 0)
(-0.19889329 -0.0099213579 0)
(-0.19663522 -0.013069558 0)
(-0.1937491 -0.015888372 0)
(-0.19028948 -0.018413569 0)
(-0.1862969 -0.020667725 0)
(-0.18180827 -0.022679534 0)
(-0.17687292 -0.024475717 0)
(-0.17153542 -0.02608362 0)
(-0.16582565 -0.027523122 0)
(-0.15977789 -0.028809385 0)
(-0.15342668 -0.029958996 0)
(-0.14679909 -0.03098592 0)
(-0.13992455 -0.031895637 0)
(-0.13283435 -0.032698525 0)
(-0.12555097 -0.033407896 0)
(-0.11809371 -0.034034166 0)
(-0.11048158 -0.034583747 0)
(-0.10273506 -0.035061474 0)
(-0.094873985 -0.035473477 0)
(-0.086914144 -0.035825981 0)
(-0.078869536 -0.036124852 0)
(-0.070751775 -0.036376001 0)
(-0.06257708 -0.036583297 0)
(-0.054369478 -0.036752643 0)
(-0.046068096 -0.036888145 0)
(-0.037600628 -0.03699737 0)
(-0.029634319 -0.037076543 0)
(-0.022320719 -0.03711326 0)
(-0.0094877179 -0.037162267 0)
(0.0093369224 -0.044742881 0)
(0.021992305 -0.044682548 0)
(0.029185566 -0.044630783 0)
(0.037047599 -0.044527017 0)
(0.045405603 -0.04438935 0)
(0.053589863 -0.04421887 0)
(0.06168777 -0.044007121 0)
(0.069756532 -0.043749165 0)
(0.077770121 -0.043440892 0)
(0.085715139 -0.043077488 0)
(0.09358169 -0.042652128 0)
(0.10135641 -0.042159554 0)
(0.10902508 -0.041593996 0)
(0.11657217 -0.040948837 0)
(0.12398013 -0.040217327 0)
(0.13123184 -0.039390279 0)
(0.1383093 -0.038458435 0)
(0.14519231 -0.037412774 0)
(0.15185812 -0.036244989 0)
(0.15828342 -0.034944169 0)
(0.16444612 -0.033493733 0)
(0.17032199 -0.031876723 0)
(0.17588306 -0.030073417 0)
(0.18109847 -0.028061226 0)
(0.18593682 -0.025811926 0)
(0.19036364 -0.023291703 0)
(0.19433833 -0.020464261 0)
(0.19781382 -0.017291754 0)
(0.20073991 -0.013742692 0)
(0.2030535 -0.0097802725 0)
(0.20467755 -0.0053704638 0)
(0.20553788 -0.00049644613 0)
(0.20553748 0.0048442408 0)
(0.20457953 0.010640705 0)
(0.20256008 0.016868807 0)
(0.19934605 0.023486553 0)
(0.1948654 0.030429765 0)
(0.1890647 0.037645195 0)
(0.18186736 0.045060018 0)
(0.17322143 0.052572013 0)
(0.16311196 0.060071692 0)
(0.15153874 0.067442395 0)
(0.13852233 0.074552781 0)
(0.12411665 0.08125972 0)
(0.10840083 0.087415249 0)
(0.091478644 0.092877656 0)
(0.073490684 0.097508595 0)
(0.054619702 0.10117937 0)
(0.035075954 0.10378237 0)
(0.015106854 0.10524625 0)
(-0.0050757946 0.10555465 0)
(-0.025188175 0.10469722 0)
(-0.04501358 0.10267199 0)
(-0.06429075 0.099534458 0)
(-0.082798745 0.095376383 0)
(-0.10033773 0.090311689 0)
(-0.11673981 0.084476572 0)
(-0.13187429 0.078011355 0)
(-0.14564848 0.071061454 0)
(-0.15799561 0.063777637 0)
(-0.16887281 0.05629793 0)
(-0.1782658 0.048752175 0)
(-0.18619005 0.041261745 0)
(-0.19269218 0.033928659 0)
(-0.19782724 0.026834005 0)
(-0.20165166 0.020052329 0)
(-0.20425599 0.013642295 0)
(-0.20574652 0.0076352358 0)
(-0.2062291 0.0020648308 0)
(-0.20580743 -0.0030698149 0)
(-0.20457361 -0.0077455093 0)
(-0.2026067 -0.01198 0)
(-0.19997416 -0.015797123 0)
(-0.1967421 -0.019232461 0)
(-0.19296527 -0.022315243 0)
(-0.18868658 -0.025075975 0)
(-0.18394794 -0.027549222 0)
(-0.17878999 -0.029770676 0)
(-0.1732485 -0.031762601 0)
(-0.16735674 -0.033546835 0)
(-0.16114646 -0.035144845 0)
(-0.15464823 -0.036575032 0)
(-0.14788916 -0.037851494 0)
(-0.14089486 -0.038990244 0)
(-0.13369097 -0.040000971 0)
(-0.12630181 -0.040892117 0)
(-0.1187492 -0.04167361 0)
(-0.11105244 -0.042355478 0)
(-0.10322985 -0.042948326 0)
(-0.095299184 -0.04345999 0)
(-0.087276416 -0.04389791 0)
(-0.079175308 -0.044269123 0)
(-0.071006175 -0.044580977 0)
(-0.062785874 -0.0448394 0)
(-0.054538896 -0.04504948 0)
(-0.046204001 -0.045217377 0)
(-0.037704342 -0.045352811 0)
(-0.029699221 -0.045451471 0)
(-0.022369331 -0.045501373 0)
(-0.0095120508 -0.045556311 0)
(0.0093678903 -0.053002499 0)
(0.022054773 -0.052936278 0)
(0.029271456 -0.052871445 0)
(0.037178864 -0.052747382 0)
(0.045574368 -0.052584541 0)
(0.053799521 -0.052381325 0)
(0.061945068 -0.05212874 0)
(0.070066327 -0.051821788 0)
(0.078137647 -0.051454844 0)
(0.086147413 -0.051021055 0)
(0.094085398 -0.050513526 0)
(0.1019378 -0.049925426 0)
(0.10969145 -0.049249131 0)
(0.11733141 -0.048476433 0)
(0.12484092 -0.047599112 0)
(0.13220281 -0.046607744 0)
(0.13939918 -0.045493693 0)
(0.14641114 -0.044246437 0)
(0.15321859 -0.042855963 0)
(0.15980049 -0.041308179 0)
(0.16613613 -0.039586919 0)
(0.17220244 -0.037674088 0)
(0.17797526 -0.035548997 0)
(0.18343034 -0.033185813 0)
(0.18854046 -0.030553678 0)
(0.19327435 -0.027616077 0)
(0.19759517 -0.02433416 0)
(0.20145597 -0.020659153 0)
(0.20480399 -0.016546201 0)
(0.20757886 -0.011956942 0)
(0.20969816 -0.006842086 0)
(0.21106639 -0.001168825 0)
(0.21158073 0.0050726294 0)
(0.21112562 0.011881762 0)
(0.20957717 0.019240365 0)
(0.2067928 0.027100697 0)
(0.20267484 0.035397459 0)
(0.19714847 0.044050778 0)
(0.19012194 0.05295742 0)
(0.18153061 0.061999298 0)
(0.17134936 0.071046421 0)
(0.15957084 0.079949666 0)
(0.14620434 0.08855758 0)
(0.13128339 0.096706516 0)
(0.11488248 0.10421554 0)
(0.097117772 0.1109002 0)
(0.07814042 0.11658334 0)
(0.058145536 0.12110833 0)
(0.037370871 0.1243326 0)
(0.016110827 0.12615609 0)
(-0.0053899177 0.12654445 0)
(-0.026815286 0.12548188 0)
(-0.047914355 0.12297937 0)
(-0.068376347 0.11911457 0)
(-0.087950183 0.11400755 0)
(-0.10641322 0.10780505 0)
(-0.12358718 0.10067968 0)
(-0.13933564 0.09280874 0)
(-0.15355169 0.084374735 0)
(-0.16617804 0.075556942 0)
(-0.17719171 0.066522089 0)
(-0.18658486 0.057422661 0)
(-0.19438583 0.048405742 0)
(-0.20065518 0.039600351 0)
(-0.20545655 0.031114594 0)
(-0.20887045 0.023039922 0)
(-0.21102162 0.015445242 0)
(-0.21203774 0.0083746424 0)
(-0.21202683 0.0018488031 0)
(-0.21111003 -0.0041216178 0)
(-0.20939421 -0.0095512212 0)
(-0.20696485 -0.01446255 0)
(-0.2039064 -0.018893497 0)
(-0.20028458 -0.022884659 0)
(-0.19614929 -0.026473695 0)
(-0.19154667 -0.029700271 0)
(-0.18651817 -0.03260391 0)
(-0.18110027 -0.035216407 0)
(-0.17532399 -0.037565593 0)
(-0.16921881 -0.039679714 0)
(-0.16281488 -0.041578675 0)
(-0.15614014 -0.043279638 0)
(-0.1492192 -0.044800286 0)
(-0.14207688 -0.046155341 0)
(-0.13473726 -0.047357845 0)
(-0.12722302 -0.048419905 0)
(-0.11955509 -0.049352671 0)
(-0.11175307 -0.050166822 0)
(-0.10383532 -0.05087288 0)
(-0.09581872 -0.051480936 0)
(-0.087718438 -0.052000574 0)
(-0.079547954 -0.052440524 0)
(-0.071317432 -0.052808975 0)
(-0.063041022 -0.053114713 0)
(-0.054743675 -0.053362351 0)
(-0.046368322 -0.053559948 0)
(-0.037830319 -0.0537185 0)
(-0.029780069 -0.053834656 0)
(-0.022428105 -0.053897147 0)
(-0.009539923 -0.053955787 0)
(0.009400344 -0.061290013 0)
(0.022125056 -0.061222382 0)
(0.029372766 -0.061146531 0)
(0.037331576 -0.061007664 0)
(0.045770383 -0.060823433 0)
(0.05404328 -0.060593157 0)
(0.062244353 -0.06030642 0)
(0.07042723 -0.05995704 0)
(0.078567569 -0.059537683 0)
(0.086653343 -0.059040603 0)
(0.094674542 -0.058458682 0)
(0.10261868 -0.0577832 0)
(0.11047296 -0.05700523 0)
(0.11822231 -0.056114982 0)
(0.12585055 -0.055103658 0)
(0.13334088 -0.053961083 0)
(0.1406764 -0.05267698 0)
(0.14783795 -0.051241065 0)
(0.15480665 -0.049641496 0)
(0.16156528 -0.047864615 0)
(0.16809556 -0.045894486 0)
(0.17437715 -0.043711693 0)
(0.18038982 -0.041293049 0)
(0.18611354 -0.038611744 0)
(0.19152737 -0.03563386 0)
(0.19660453 -0.032319141 0)
(0.20131707 -0.028620408 0)
(0.20562393 -0.024484546 0)
(0.20946459 -0.019849365 0)
(0.21277997 -0.014657904 0)
(0.21548743 -0.0088504647 0)
(0.21747553 -0.0023766106 0)
(0.21861736 0.0047928153 0)
(0.21878351 0.012658895 0)
(0.21782893 0.021212004 0)
(0.21557494 0.030390094 0)
(0.21190228 0.040108389 0)
(0.2067157 0.050270882 0)
(0.19990815 0.060755833 0)
(0.19140476 0.071424412 0)
(0.18115993 0.082123507 0)
(0.16915054 0.092686412 0)
(0.15538088 0.1029307 0)
(0.13987493 0.1126589 0)
(0.12269173 0.12166054 0)
(0.1039395 0.12971124 0)
(0.083784207 0.13658142 0)
(0.062444442 0.14206597 0)
(0.04018455 0.14599035 0)
(0.017349298 0.14821989 0)
(-0.0057703885 0.14870148 0)
(-0.028800716 0.14741427 0)
(-0.051441689 0.14438002 0)
(-0.073333106 0.13970195 0)
(-0.094187722 0.13353007 0)
(-0.11375083 0.12605329 0)
(-0.13182557 0.11748846 0)
(-0.14827207 0.1080662 0)
(-0.16299445 0.098006897 0)
(-0.17594178 0.087516347 0)
(-0.18709937 0.076796554 0)
(-0.19647333 0.066032127 0)
(-0.20410364 0.055393083 0)
(-0.21006922 0.045033975 0)
(-0.21445861 0.035087359 0)
(-0.21737355 0.025651594 0)
(-0.21896029 0.016812579 0)
(-0.21937513 0.0086351725 0)
(-0.21875227 0.0011339071 0)
(-0.21723298 -0.0056949621 0)
(-0.21493978 -0.01187161 0)
(-0.2119737 -0.017439557 0)
(-0.20842037 -0.022455504 0)
(-0.20434526 -0.026965455 0)
(-0.19980311 -0.031024208 0)
(-0.19483857 -0.03468156 0)
(-0.18948496 -0.037978578 0)
(-0.18377124 -0.040952183 0)
(-0.17772939 -0.043635236 0)
(-0.17138531 -0.046053004 0)
(-0.16475962 -0.048228798 0)
(-0.15788044 -0.050181205 0)
(-0.1507731 -0.051928491 0)
(-0.1434583 -0.053486225 0)
(-0.13595907 -0.054868474 0)
(-0.12829802 -0.056088312 0)
(-0.12049552 -0.057158613 0)
(-0.11257045 -0.058091987 0)
(-0.1045406 -0.058899876 0)
(-0.096422708 -0.059594162 0)
(-0.088231541 -0.060185679 0)
(-0.079979294 -0.060685216 0)
(-0.071676041 -0.061102137 0)
(-0.06333494 -0.061446361 0)
(-0.054980001 -0.061725252 0)
(-0.046556861 -0.061947333 0)
(-0.037974482 -0.062123702 0)
(-0.029874709 -0.062252557 0)
(-0.022493708 -0.062324389 0)
(-0.0095682512 -0.062384031 0)
(0.0094335241 -0.069609818 0)
(0.022201819 -0.069542859 0)
(0.029485419 -0.069457304 0)
(0.037500163 -0.069309357 0)
(0.045988668 -0.069108894 0)
(0.054315161 -0.068857012 0)
(0.062579087 -0.068542659 0)
(0.070832799 -0.068157706 0)
(0.079051859 -0.067693994 0)
(0.087224345 -0.067143099 0)
(0.095341284 -0.066495532 0)
(0.10339062 -0.065741763 0)
(0.11136026 -0.064870989 0)
(0.11923499 -0.063873207 0)
(0.12699865 -0.062738118 0)
(0.13463534 -0.061454616 0)
(0.14212737 -0.060012018 0)
(0.14945735 -0.058400108 0)
(0.1566084 -0.056605467 0)
(0.16356385 -0.054615191 0)
(0.17030805 -0.05241269 0)
(0.17682474 -0.049981437 0)
(0.1830977 -0.047298337 0)
(0.18911381 -0.044333542 0)
(0.19485874 -0.041050627 0)
(0.20031422 -0.037405559 0)
(0.2054567 -0.033341833 0)
(0.21025513 -0.028800366 0)
(0.21465971 -0.023703477 0)
(0.21860626 -0.01796793 0)
(0.22200608 -0.011519 0)
(0.2247356 -0.0042818297 0)
(0.22664807 0.0037964965 0)
(0.22758656 0.012742484 0)
(0.227368 0.022534368 0)
(0.2257812 0.033105374 0)
(0.2226722 0.044362331 0)
(0.21791832 0.056182183 0)
(0.21139494 0.068410326 0)
(0.2030131 0.080876132 0)
(0.19272051 0.093400805 0)
(0.18048133 0.1058042 0)
(0.16627465 0.11788231 0)
(0.15010619 0.12940122 0)
(0.13202266 0.14010839 0)
(0.11212164 0.14972746 0)
(0.090572283 0.15797129 0)
(0.067625789 0.1645728 0)
(0.043585752 0.16930957 0)
(0.01885222 0.17200817 0)
(-0.0062200418 0.17259836 0)
(-0.031186806 0.17105435 0)
(-0.05568499 0.16740226 0)
(-0.079291716 0.1617759 0)
(-0.10167116 0.15436973 0)
(-0.122533 0.14542675 0)
(-0.14165874 0.13521912 0)
(-0.15890735 0.12403221 0)
(-0.17419778 0.11213199 0)
(-0.18749087 0.099768333 0)
(-0.19878466 0.087173142 0)
(-0.2081042 0.074558661 0)
(-0.21550492 0.062124068 0)
(-0.22107421 0.05005844 0)
(-0.22492946 0.038523824 0)
(-0.22720923 0.027636023 0)
(-0.22808418 0.017503648 0)
(-0.22775334 0.0082061319 0)
(-0.22638735 -0.00026032692 0)
(-0.22414531 -0.0079143743 0)
(-0.22116948 -0.014796539 0)
(-0.2175794 -0.020970279 0)
(-0.21346249 -0.026513701 0)
(-0.20888197 -0.031493709 0)
(-0.20389264 -0.035980005 0)
(-0.19852743 -0.040026485 0)
(-0.19281394 -0.043679444 0)
(-0.18677996 -0.046983007 0)
(-0.18044557 -0.049970792 0)
(-0.17383098 -0.052668017 0)
(-0.1669594 -0.055100111 0)
(-0.15985304 -0.057288185 0)
(-0.15253434 -0.059246364 0)
(-0.14502414 -0.060991826 0)
(-0.13734397 -0.06254011 0)
(-0.12951544 -0.063905264 0)
(-0.12155901 -0.065100779 0)
(-0.11349289 -0.066140741 0)
(-0.10533473 -0.06703861 0)
(-0.097100874 -0.067807609 0)
(-0.088805456 -0.06846016 0)
(-0.080460368 -0.069008725 0)
(-0.072074334 -0.069464915 0)
(-0.063659867 -0.069839337 0)
(-0.05524077 -0.070141589 0)
(-0.046763803 -0.070380972 0)
(-0.038131345 -0.070569803 0)
(-0.02997767 -0.070705252 0)
(-0.022563418 -0.070783048 0)
(-0.0095973825 -0.070841712 0)
(0.0094666692 -0.077970695 0)
(0.022282732 -0.077906103 0)
(0.029605834 -0.077814226 0)
(0.03767915 -0.077662269 0)
(0.046223341 -0.077451779 0)
(0.054608889 -0.077184405 0)
(0.062942407 -0.076849388 0)
(0.071274569 -0.07643714 0)
(0.079580856 -0.07593871 0)
(0.087850795 -0.07534361 0)
(0.096075532 -0.074640378 0)
(0.10424385 -0.073818937 0)
(0.1123435 -0.072866173 0)
(0.12035895 -0.071771286 0)
(0.12827486 -0.070522596 0)
(0.13607489 -0.069109494 0)
(0.14374149 -0.067520527 0)
(0.15125808 -0.065743836 0)
(0.15860827 -0.063768076 0)
(0.16577814 -0.061581027 0)
(0.17275219 -0.059167945 0)
(0.17951694 -0.056512453 0)
(0.18606553 -0.053592707 0)
(0.19239137 -0.050379469 0)
(0.19848729 -0.046836431 0)
(0.20434645 -0.042914792 0)
(0.20995643 -0.038552747 0)
(0.21529768 -0.033672808 0)
(0.22033344 -0.028186871 0)
(0.22500053 -0.021985871 0)
(0.22920775 -0.014963758 0)
(0.23282328 -0.0070114112 0)
(0.23567755 0.0019582546 0)
(0.2375672 0.011997554 0)
(0.23825247 0.023085272 0)
(0.23750055 0.035158391 0)
(0.23511174 0.048091848 0)
(0.23091324 0.061714566 0)
(0.22475547 0.075841339 0)
(0.21654618 0.090280638 0)
(0.20623346 0.1048346 0)
(0.19377153 0.11929161 0)
(0.17911153 0.13342769 0)
(0.16222674 0.14698802 0)
(0.14313291 0.1596714 0)
(0.12190749 0.17113278 0)
(0.098724027 0.18100992 0)
(0.073866571 0.18895241 0)
(0.047690928 0.19466596 0)
(0.02067123 0.19792943 0)
(-0.0067550525 0.19865016 0)
(-0.03405712 0.19679579 0)
(-0.060790397 0.1924008 0)
(-0.086446425 0.18563548 0)
(-0.11062821 0.17675507 0)
(-0.13300341 0.16607958 0)
(-0.15333373 0.15395506 0)
(-0.17148365 0.14073575 0)
(-0.18738999 0.12674642 0)
(-0.20103907 0.11227725 0)
(-0.21245348 0.09758986 0)
(-0.22167104 0.082924537 0)
(-0.22875139 0.068513826 0)
(-0.23380125 0.05457975 0)
(-0.23698001 0.041313931 0)
(-0.23845868 0.028876155 0)
(-0.23843983 0.017398514 0)
(-0.23718154 0.0069537169 0)
(-0.23490854 -0.0024609528 0)
(-0.23180522 -0.010890003 0)
(-0.22803327 -0.01841349 0)
(-0.22372851 -0.025129394 0)
(-0.21898051 -0.031134532 0)
(-0.21384669 -0.036525309 0)
(-0.20836911 -0.041380227 0)
(-0.20256995 -0.045764689 0)
(-0.19647178 -0.049735876 0)
(-0.19009064 -0.053336643 0)
(-0.18343972 -0.056600119 0)
(-0.17653658 -0.059555573 0)
(-0.16939858 -0.062225031 0)
(-0.16204216 -0.064627862 0)
(-0.15448867 -0.066780615 0)
(-0.14676069 -0.068698977 0)
(-0.1388781 -0.070398342 0)
(-0.13086177 -0.07189401 0)
(-0.12273209 -0.073200853 0)
(-0.11450768 -0.074333947 0)
(-0.10620545 -0.075308519 0)
(-0.097841385 -0.07613866 0)
(-0.089429201 -0.076840295 0)
(-0.080980391 -0.077425967 0)
(-0.072502779 -0.077910271 0)
(-0.064007346 -0.078305058 0)
(-0.055517783 -0.078621652 0)
(-0.046982308 -0.078870542 0)
(-0.03829494 -0.079064881 0)
(-0.030084745 -0.07920143 0)
(-0.022634475 -0.079282048 0)
(-0.0096257128 -0.079337051 0)
(0.0094993867 -0.086374582 0)
(0.022364211 -0.086313252 0)
(0.029729061 -0.086219812 0)
(0.037862634 -0.08606889 0)
(0.04646764 -0.085853787 0)
(0.054917403 -0.085579466 0)
(0.063325729 -0.085233099 0)
(0.071742787 -0.084803631 0)
(0.080144877 -0.084280765 0)
(0.08852263 -0.083651858 0)
(0.09686656 -0.082904955 0)
(0.10516661 -0.082026362 0)
(0.11341112 -0.081004387 0)
(0.12158373 -0.079824596 0)
(0.12966785 -0.078474694 0)
(0.13764749 -0.076943494 0)
(0.14550618 -0.07521909 0)
(0.15322628 -0.073290152 0)
(0.1607915 -0.071146629 0)
(0.16818819 -0.068777698 0)
(0.17540408 -0.066172325 0)
(0.18243047 -0.063314601 0)
(0.18926433 -0.060186047 0)
(0.19590686 -0.056761907 0)
(0.20236275 -0.05300667 0)
(0.20863896 -0.048870407 0)
(0.21474166 -0.044285854 0)
(0.22066555 -0.039162426 0)
(0.22639275 -0.033391216 0)
(0.23187543 -0.026831356 0)
(0.23702453 -0.019333929 0)
(0.24169777 -0.010742865 0)
(0.24569794 -0.00092889745 0)
(0.2487652 0.010201376 0)
(0.25059305 0.02265468 0)
(0.25089249 0.03635136 0)
(0.24938401 0.051127292 0)
(0.24585399 0.06675671 0)
(0.24015315 0.083000431 0)
(0.23219368 0.099620767 0)
(0.22191324 0.11639953 0)
(0.20925199 0.13312575 0)
(0.19414349 0.14957538 0)
(0.17651277 0.16547765 0)
(0.15631687 0.18047091 0)
(0.13359572 0.19411686 0)
(0.10851304 0.20595284 0)
(0.081387104 0.21552026 0)
(0.05264989 0.22242454 0)
(0.022875522 0.22637862 0)
(-0.0073937464 0.2272593 0)
(-0.037512977 0.22502585 0)
(-0.066935482 0.21972522 0)
(-0.095040881 0.21158029 0)
(-0.1213436 0.20092496 0)
(-0.14546312 0.18818066 0)
(-0.16714634 0.17380675 0)
(-0.1862732 0.15824203 0)
(-0.20282298 0.14187721 0)
(-0.2168221 0.12504277 0)
(-0.22831961 0.1080194 0)
(-0.23736871 0.091065242 0)
(-0.24403233 0.074450647 0)
(-0.24842773 0.058435223 0)
(-0.25073893 0.043263241 0)
(-0.25118991 0.029161752 0)
(-0.25006037 0.016284038 0)
(-0.24765927 0.0046854099 0)
(-0.24427309 -0.0056343782 0)
(-0.24014149 -0.014768658 0)
(-0.23545374 -0.022843595 0)
(-0.23034578 -0.030004177 0)
(-0.2249027 -0.036381666 0)
(-0.21917063 -0.042099659 0)
(-0.21317299 -0.047253366 0)
(-0.20692192 -0.051922425 0)
(-0.2004225 -0.056167311 0)
(-0.19367783 -0.06003026 0)
(-0.18669436 -0.063544573 0)
(-0.17948185 -0.066735719 0)
(-0.17205391 -0.069622878 0)
(-0.16442672 -0.072222491 0)
(-0.15661937 -0.074552874 0)
(-0.14865216 -0.076628011 0)
(-0.14054584 -0.078462913 0)
(-0.13232191 -0.080073425 0)
(-0.1240007 -0.081476101 0)
(-0.11560066 -0.082687184 0)
(-0.10713815 -0.083722796 0)
(-0.098630329 -0.084599317 0)
(-0.090090035 -0.085335698 0)
(-0.081527129 -0.085945477 0)
(-0.07294971 -0.086445119 0)
(-0.064367007 -0.086848871 0)
(-0.055802165 -0.087168908 0)
(-0.047204295 -0.087418183 0)
(-0.038458729 -0.087611374 0)
(-0.030191322 -0.087742819 0)
(-0.022703653 -0.087821265 0)
(-0.0096525406 -0.087870859 0)
(0.0095311382 -0.094822221 0)
(0.022443421 -0.094765162 0)
(0.029849818 -0.094674204 0)
(0.03804545 -0.094531833 0)
(0.046714248 -0.094318426 0)
(0.055230013 -0.094046499 0)
(0.063718023 -0.093699397 0)
(0.072226715 -0.093263992 0)
(0.080732815 -0.092728518 0)
(0.089227362 -0.092078865 0)
(0.097702611 -0.091301209 0)
(0.10614718 -0.090378855 0)
(0.11454971 -0.089300386 0)
(0.12289518 -0.088049013 0)
(0.13116513 -0.086610825 0)
(0.13934269 -0.084973079 0)
(0.14741052 -0.083124737 0)
(0.1553501 -0.081055245 0)
(0.16314493 -0.078755081 0)
(0.17078108 -0.076216307 0)
(0.17824773 -0.07343203 0)
(0.18553964 -0.070392055 0)
(0.1926589 -0.067083072 0)
(0.19961553 -0.063485249 0)
(0.206427 -0.059568858 0)
(0.21311811 -0.055286094 0)
(0.21971803 -0.050566617 0)
(0.22624856 -0.045311695 0)
(0.23272287 -0.039383417 0)
(0.23911631 -0.032608935 0)
(0.24535229 -0.024785547 0)
(0.25128054 -0.015686247 0)
(0.25667183 -0.0051023843 0)
(0.26120957 0.0071092745 0)
(0.26447781 0.020997038 0)
(0.26608117 0.036460973 0)