/*--------------------------------*- C++ -*----------------------------------*\
  =========                 |
  \\      /  F ield         | OpenFOAM: The Open Source CFD Toolbox
   \\    /   O peration     | Website:  https://openfoam.org
    \\  /    A nd           | Version:  9
     \\/     M anipulation  |
\*---------------------------------------------------------------------------*/
FoamFile
{
    format      ascii;
    class       surfaceScalarField;
    location    "0.7";
    object      alphaPhi0.phase1;
}
// * * * * * * * * * * * * * * * * * * * * * * * * * * * * * * * * * * * * * //

dimensions      [0 3 -1 0 0 0 0];

internalField   nonuniform List<scalar> 
8032
(
-3.183e-163
1.93474e-167
-3.45523e-159
3.09981e-163
-4.8907e-156
1.41346e-159
-3.33218e-154
5.61582e-156
-8.00927e-150
1.09625e-151
-1.62803e-145
1.64551e-147
-2.96219e-141
1.84543e-143
-5.05033e-137
1.09405e-139
-7.00366e-133
-1.41513e-133
-5.99919e-129
-5.61676e-129
-3.43551e-125
-7.00302e-125
-2.0662e-121
-3.48607e-121
-2.53072e-118
-5.25438e-118
-3.66754e-116
-1.32809e-115
-1.13105e-114
-5.07918e-114
8.77866e-118
-3.06983e-113
1.13242e-114
-3.06963e-113
3.63798e-116
-5.07863e-114
4.27141e-118
-1.26873e-115
3.15816e-120
-2.49154e-117
1.71533e-122
-2.67503e-119
6.91587e-127
-8.73228e-123
1.02257e-131
-1.30773e-127
1.29178e-136
-9.92813e-133
1.08018e-143
7.97405e-142
5.98302e-148
6.7387e-146
2.92565e-152
6.00883e-150
1.22391e-156
4.00219e-154
1.51697e-157
2.20111e-158
2.65002e-161
1.21215e-161
2.05268e-165
1.998e-165
1.0772e-169
-4.47684e-159
9.63494e-163
-6.10589e-158
1.20147e-158
-2.4616e-153
1.95944e-154
-7.21785e-149
4.96764e-150
-1.65268e-144
9.23263e-146
-3.19956e-140
1.31941e-141
-5.54342e-136
1.40877e-137
-8.9975e-132
7.95242e-134
-1.17261e-127
-2.57853e-128
-9.2057e-124
-9.35883e-124
-5.23487e-120
-1.03722e-119
-2.70222e-116
-4.4879e-116
-2.87961e-113
-5.83328e-113
-4.12016e-111
-1.30294e-110
-6.20943e-110
-4.59374e-109
4.16112e-113
-2.63963e-108
6.21698e-110
-2.63947e-108
4.10427e-111
-4.59355e-109
5.2265e-113
-1.24517e-110
3.29926e-115
-2.28619e-112
2.19079e-117
-3.0665e-114
1.09731e-121
-1.26924e-117
1.71779e-126
-2.14039e-122
2.23141e-131
-1.74264e-127
1.74838e-138
4.56141e-136
1.07828e-142
4.4495e-140
5.2265e-147
4.17194e-144
2.28083e-151
2.91695e-148
7.78233e-156
1.56915e-152
6.60023e-157
6.25656e-157
6.14778e-161
1.22695e-160
9.80743e-165
-1.11739e-157
2.73699e-158
-8.63011e-153
1.16925e-153
-3.43378e-148
4.2217e-149
-9.34444e-144
9.92087e-145
-1.98516e-139
1.70907e-140
-3.56464e-135
2.26383e-136
-5.7263e-131
2.24043e-132
-8.61461e-127
1.17258e-128
-1.02906e-122
-2.42658e-123
-7.26501e-119
-7.86462e-119
-4.0498e-115
-7.61083e-115
-1.76395e-111
-2.83192e-111
-1.5876e-108
-3.16283e-108
-2.00286e-106
-6.2423e-106
-2.78409e-105
-2.03279e-104
1.54161e-108
-1.12425e-103
2.78684e-105
-1.12418e-103
1.99475e-106
-2.03271e-104
2.85599e-108
-5.96741e-106
1.76835e-110
-1.13385e-107
1.40926e-112
-1.75704e-109
8.87006e-117
-9.1631e-113
1.53326e-121
-1.7977e-117
2.12077e-126
-1.62125e-122
1.61192e-133
5.94517e-131
1.04114e-137
6.31566e-135
5.59886e-142
6.38441e-139
2.6341e-146
4.81733e-143
9.67673e-151
2.7957e-147
2.43165e-155
1.18933e-151
1.10245e-156
3.3039e-156
3.40897e-160
-1.5038e-152
2.98165e-153
-1.07069e-147
2.01193e-148
-3.85265e-143
6.55513e-144
-9.47768e-139
1.38997e-139
-1.81933e-134
2.16054e-135
-2.95046e-130
2.58213e-131
-4.27852e-126
2.3057e-127
-5.80737e-122
1.08928e-123
-6.20941e-118
-1.53948e-118
-3.87934e-114
-4.36773e-114
-2.09335e-110
-3.63954e-110
-7.62915e-107
-1.15557e-106
-5.79246e-104
-1.10641e-103
-6.44166e-102
-1.92937e-101
-8.25867e-101
-5.80378e-100
3.79059e-104
-3.08951e-99
8.26526e-101
-3.08933e-99
6.41452e-102
-5.80357e-100
1.03414e-103
-1.84497e-101
6.4267e-106
-3.71181e-103
6.03891e-108
-6.6447e-105
4.80327e-112
-4.32742e-108
9.48014e-117
-1.01147e-112
1.44186e-121
-1.03665e-117
1.11628e-128
5.0739e-126
7.91413e-133
6.02417e-130
4.75439e-137
6.74778e-134
2.47571e-141
5.64356e-138
1.0061e-145
3.62986e-142
2.79525e-150
1.71137e-146
3.92497e-155
5.25089e-151
7.79559e-156
-1.86891e-147
4.87561e-148
-1.17702e-142
2.90016e-143
-3.74457e-138
8.32954e-139
-8.14016e-134
1.55688e-134
-1.37997e-129
2.13306e-130
-1.97514e-125
2.24695e-126
-2.5262e-121
1.7685e-122
-3.02223e-117
7.36879e-119
-2.83593e-113
-7.24907e-114
-1.54892e-109
-1.77295e-109
-7.9957e-106
-1.25907e-105
-2.4241e-102
-3.39309e-102
-1.55151e-99
-2.78147e-99
-1.52066e-97
-4.28618e-97
-1.79814e-96
-1.19119e-95
6.88119e-100
-6.10382e-95
1.79931e-96
-6.10347e-95
1.51404e-97
-1.19115e-95
2.75134e-99
-4.09991e-97
1.75183e-101
-8.89429e-99
1.91213e-103
-1.8403e-100
1.92606e-107
-1.48396e-103
4.45067e-112
-4.20108e-108
7.64457e-117
-4.99104e-113
6.33235e-124
3.27367e-121
5.06831e-128
4.4393e-125
3.4642e-132
5.64085e-129
2.0427e-136
5.35282e-133
9.39443e-141
3.90602e-137
2.95219e-145
2.08926e-141
4.6864e-150
7.27236e-146
1.22224e-150
-2.11561e-142
7.03353e-143
-1.15791e-137
3.61973e-138
-3.19937e-133
8.9944e-134
-6.03612e-129
1.45441e-129
-8.87402e-125
1.72383e-125
-1.10059e-120
1.57083e-121
-1.21875e-116
1.06956e-117
-1.26131e-112
3.85851e-114
-1.02307e-108
-2.64932e-109
-4.89488e-105
-5.52416e-105
-2.36524e-101
-3.31897e-101
-5.94283e-98
-7.56629e-98
-3.20524e-95
-5.30755e-95
-2.76833e-93
-7.22972e-93
-3.01923e-92
-1.8567e-91
9.68224e-96
-9.15887e-91
3.02082e-92
-9.15837e-91
2.75592e-93
-1.85665e-91
5.64865e-95
-6.91762e-93
3.7479e-97
-1.63834e-94
4.69557e-99
-3.92244e-96
5.99188e-103
-3.88866e-99
1.65084e-107
-1.34848e-103
3.26922e-112
-1.8849e-108
3.02686e-119
1.68879e-116
2.79122e-123
2.66006e-120
2.20696e-127
3.90688e-124
1.50069e-131
4.28589e-128
7.95257e-136
3.61529e-132
2.8776e-140
2.2353e-136
5.25664e-145
8.99382e-141
1.74722e-145
-2.14862e-137
8.92236e-138
-1.0087e-132
3.91665e-133
-2.38874e-128
8.30117e-129
-3.85909e-124
1.1449e-124
-4.85347e-120
1.15736e-120
-5.14437e-116
8.99459e-117
-4.86353e-112
5.22355e-113
-4.29286e-108
1.60898e-109
-2.97711e-104
-7.69292e-105
-1.37486e-100
-1.35701e-100
-5.5524e-97
-6.86507e-97
-1.15359e-93
-1.32137e-93
-5.24247e-91
-7.93216e-91
-3.98959e-89
-9.55521e-89
-4.01338e-88
-2.26821e-87
1.08501e-91
-1.07724e-86
4.01511e-88
-1.07718e-86
3.97127e-89
-2.26816e-87
9.18371e-91
-9.14561e-89
6.43489e-93
-2.38033e-90
9.16769e-95
-6.60552e-92
1.48136e-98
-8.00775e-95
4.93044e-103
-3.42775e-99
1.14313e-107
-5.69904e-104
1.22695e-114
7.12362e-112
1.32302e-118
1.31959e-115
1.22601e-122
2.27224e-119
9.74545e-127
2.92282e-123
6.03128e-131
2.89082e-127
2.54643e-135
2.09564e-131
5.42331e-140
9.88591e-136
2.2517e-140
-1.91967e-132
9.82465e-133
-7.66055e-128
3.64069e-128
-1.5404e-123
6.51381e-124
-2.11067e-119
7.58357e-120
-2.24877e-115
6.47089e-116
-2.01679e-111
4.24478e-112
-1.61137e-107
2.08093e-108
-1.20054e-103
5.41803e-105
-7.06402e-100
-1.79851e-100
-3.12161e-96
-2.67039e-96
-1.04838e-92
-1.13423e-92
-1.79905e-89
-1.8417e-89
-6.8896e-87
-9.46559e-87
-4.61944e-85
-1.00891e-84
-4.28647e-84
-2.21435e-83
9.845e-88
-1.01265e-82
4.28799e-84
-1.0126e-82
4.59779e-85
-2.21432e-83
1.19972e-86
-9.65982e-85
8.96905e-89
-2.76694e-86
1.44233e-90
-8.92035e-88
2.94911e-94
-1.31713e-90
1.19708e-98
-6.99745e-95
3.28536e-103
-1.39471e-99
4.21115e-110
2.4779e-107
5.36646e-114
5.44568e-111
5.8843e-118
1.11081e-114
5.52159e-122
1.69288e-118
4.02916e-126
1.98366e-122
2.0035e-130
1.7036e-126
5.02007e-135
9.52056e-131
2.5689e-135
-1.48219e-127
9.26051e-128
-4.99797e-123
2.87564e-123
-8.48069e-119
4.31138e-119
-9.79181e-115
4.20601e-115
-8.77833e-111
3.00715e-111
-6.6151e-107
1.65283e-107
-4.43474e-103
6.78996e-104
-2.76845e-99
1.48389e-100
-1.37498e-95
-3.41235e-96
-5.76236e-92
-4.2519e-92
-1.60457e-88
-1.51392e-88
-2.27347e-85
-2.07364e-85
-7.33858e-83
-9.13203e-83
-4.33504e-81
-8.61776e-81
-3.71077e-80
-1.74935e-79
7.30642e-84
-7.7043e-79
3.71186e-80
-7.70392e-79
4.31437e-81
-1.74934e-79
1.27009e-82
-8.25395e-81
1.02117e-84
-2.59426e-82
1.8424e-86
-9.74459e-84
4.76343e-90
-1.7476e-86
2.37467e-94
-1.15687e-90
7.77448e-99
-2.77966e-95
1.2193e-105
7.12667e-103
1.84997e-109
1.86933e-106
2.41648e-113
4.55026e-110
2.69491e-117
8.27665e-114
2.3338e-121
1.15748e-117
1.37527e-125
1.18636e-121
4.0782e-130
7.9122e-126
2.54783e-130
-9.74872e-123
7.38239e-123
-2.76816e-118
1.91124e-118
-3.94829e-114
2.38899e-114
-3.82521e-110
1.94298e-110
-2.8726e-106
1.15806e-106
-1.81031e-102
5.30601e-103
-1.0133e-98
1.81736e-99
-5.27306e-95
3.31805e-96
-2.20313e-91
-5.2818e-92
-8.67728e-88
-5.5136e-88
-1.99993e-84
-1.64476e-84
-2.34015e-81
-1.90141e-81
-6.36932e-79
-7.18208e-79
-3.31475e-77
-6.00459e-77
-2.61771e-76
-1.12772e-75
4.46041e-80
-4.7836e-75
2.61835e-76
-4.78337e-75
3.29873e-77
-1.12771e-75
1.09525e-78
-5.75324e-77
9.5305e-81
-1.97087e-78
1.91916e-82
-8.65625e-80
6.27007e-86
-1.88191e-82
3.85939e-90
-1.55703e-86
1.51534e-94
-4.52753e-91
2.96732e-101
1.69555e-98
5.38772e-105
5.32887e-102
8.42209e-109
1.55579e-105
1.12131e-112
3.39483e-109
1.1573e-116
5.69528e-113
8.11347e-121
7.00217e-117
2.85728e-125
5.60167e-121
2.16367e-125
-5.40398e-118
4.93083e-118
-1.29e-113
1.06061e-113
-1.54328e-109
1.10146e-109
-1.2514e-105
7.44259e-106
-7.84952e-102
3.68518e-102
-4.12402e-98
1.40268e-98
-1.92093e-94
3.9919e-95
-8.30472e-91
6.07051e-92
-3.1575e-87
-6.69018e-88
-1.06796e-83
-5.84839e-84
-2.03567e-80
-1.46192e-80
-1.96837e-77
-1.42774e-77
-4.51927e-75
-4.63081e-75
-2.07208e-73
-3.4323e-73
-1.50981e-72
-5.96588e-72
2.24619e-76
-2.43773e-71
1.51012e-72
-2.43761e-71
2.06195e-73
-5.9659e-72
7.71773e-75
-3.28994e-73
7.3061e-77
-1.2161e-74
1.63446e-78
-6.27288e-76
6.74371e-82
-1.65106e-78
5.14658e-86
-1.71149e-82
2.43228e-90
-6.03925e-87
6.05203e-97
3.33616e-94
1.31954e-100
1.25928e-97
2.47594e-104
4.42477e-101
3.94669e-108
1.16228e-104
4.86704e-112
2.3472e-108
4.0682e-116
3.47365e-112
1.70427e-120
3.34484e-116
1.55509e-120
-2.75896e-113
2.74058e-113
-5.02475e-109
4.8847e-109
-5.03731e-105
4.20471e-105
-3.41388e-101
2.35505e-101
-1.78555e-97
9.66534e-98
-7.80532e-94
3.04919e-94
-3.01885e-90
7.19423e-91
-1.08176e-86
9.09656e-88
-3.84613e-83
-6.94871e-84
-1.07543e-79
-5.08986e-80
-1.69509e-76
-1.06688e-76
-1.35569e-73
-8.81298e-74
-2.62689e-71
-2.45751e-71
-1.06114e-69
-1.61585e-69
-7.13482e-69
-2.60012e-68
9.34093e-73
-1.02355e-67
7.13607e-69
-1.0235e-67
1.05591e-69
-2.60014e-68
4.45258e-71
-1.54949e-69
4.60626e-73
-6.10027e-71
1.13984e-74
-3.71545e-72
5.93592e-78
-1.18297e-74
5.63574e-82
-1.53951e-78
3.21372e-86
-6.60467e-83
1.03232e-92
5.42674e-90
2.709e-96
2.4632e-93
6.11292e-100
1.04399e-96
1.16864e-103
3.30874e-100
1.72436e-107
8.06185e-104
1.72012e-111
1.43939e-107
9.48308e-116
1.67223e-111
9.38239e-116
-1.28336e-108
1.26068e-108
-1.89127e-104
1.85923e-104
-1.3678e-100
1.32415e-100
-7.74287e-97
6.13822e-97
-3.37359e-93
2.08504e-93
-1.22554e-89
5.4441e-90
-3.93035e-86
1.06341e-86
-1.16553e-82
1.11709e-83
-3.8389e-79
-5.92641e-80
-8.86559e-76
-3.64231e-76
-1.15593e-72
-6.40885e-73
-7.65523e-70
-4.48423e-70
-1.25252e-67
-1.07637e-67
-4.45791e-66
-6.28222e-66
-2.76625e-65
-9.36173e-65
3.20839e-69
-3.55084e-64
2.76666e-65
-3.55069e-64
4.43578e-66
-9.36186e-65
2.1057e-67
-6.02704e-66
2.39026e-69
-2.48723e-67
6.5152e-71
-1.80072e-68
4.28001e-74
-6.93212e-71
5.06957e-78
-1.13456e-74
3.49355e-82
-5.92493e-79
1.47062e-88
7.2962e-86
4.65169e-92
3.98382e-89
1.26374e-95
2.03951e-92
2.9003e-99
7.81023e-96
5.12362e-103
2.29931e-99
7.09578e-107
4.96031e-103
4.80827e-111
6.96492e-107
4.72279e-111
-4.87292e-104
4.77996e-104
-5.96027e-100
5.82803e-100
-3.50223e-96
3.43157e-96
-1.45699e-92
1.315e-92
-5.28596e-89
3.69398e-89
-1.59472e-85
7.97603e-86
-4.23743e-82
1.28885e-82
-1.08153e-78
1.12487e-79
-3.13864e-75
-4.15426e-76
-5.98475e-72
-2.14642e-72
-6.45963e-69
-3.17471e-69
-3.54679e-66
-1.88444e-66
-4.90214e-64
-3.89872e-64
-1.53766e-62
-2.02616e-62
-8.80892e-62
-2.91993e-61
9.10226e-66
-1.08912e-60
8.81003e-62
-1.08908e-60
1.53e-62
-2.91998e-61
8.16856e-64
-1.94412e-62
1.02139e-65
-8.23328e-64
3.05391e-67
-7.14531e-65
2.52926e-70
-3.32513e-67
3.74637e-74
-6.85438e-71
3.12235e-78
-4.35982e-75
1.74803e-84
8.10781e-82
6.67087e-88
5.32354e-85
2.18324e-91
3.29453e-88
6.01765e-95
1.52569e-91
1.45126e-98
5.43152e-95
2.46156e-102
1.41742e-98
2.01203e-106
2.40733e-102
1.97444e-106
-1.51903e-99
1.4894e-99
-1.53667e-95
1.5007e-95
-7.51256e-92
7.30247e-92
-2.29316e-88
2.31234e-88
-6.86028e-85
5.36818e-85
-1.71826e-81
9.58182e-82
-3.82474e-78
1.28046e-78
-8.78752e-75
9.29019e-76
-2.10125e-71
-2.39458e-72
-3.30843e-68
-1.04276e-68
-2.95892e-65
-1.2985e-65
-1.34897e-62
-6.54985e-63
-1.57658e-60
-1.21885e-60
-4.35777e-59
-5.98332e-59
-2.30456e-58
-7.95759e-58
2.13171e-62
-2.8547e-57
2.30481e-58
-2.85459e-57
4.33602e-59
-7.95776e-58
2.59752e-60
-5.74441e-59
3.59524e-62
-2.17081e-60
1.17424e-63
-2.32174e-61
1.22531e-66
-1.30614e-63
2.27422e-70
-3.39546e-67
2.29268e-74
-2.63078e-71
1.73223e-80
7.44618e-78
7.98027e-84
5.87401e-81
3.14721e-87
4.39597e-84
1.0687e-90
2.46273e-87
3.44582e-94
1.06087e-90
7.04559e-98
3.35032e-94
6.9647e-102
6.88516e-98
6.83343e-102
-3.88133e-95
3.80544e-95
-3.2458e-91
3.16833e-91
-1.3131e-87
1.27402e-87
-3.44742e-84
3.33366e-84
-7.86807e-81
6.39562e-81
-1.68376e-77
9.43537e-78
-3.09437e-74
1.04259e-74
-5.84794e-71
6.29165e-72
-1.15142e-67
-1.13514e-68
-1.49748e-64
-4.17909e-65
-1.11154e-61
-4.38935e-62
-4.21475e-59
-2.00952e-59
-4.16548e-57
-3.34515e-57
-1.01454e-55
-1.4508e-55
-4.95365e-55
-1.78026e-54
4.11904e-59
-6.14181e-54
4.95411e-55
-6.14158e-54
1.00949e-55
-1.78031e-54
6.6693e-57
-1.39371e-55
1.0418e-58
-4.36764e-57
3.70416e-60
-6.17789e-58
4.86668e-63
-4.20212e-60
1.13381e-66
-1.37911e-63
1.38212e-70
-1.30111e-67
1.4301e-76
5.65213e-74
8.73426e-80
5.34957e-77
4.0383e-83
4.84318e-80
1.77126e-86
3.28282e-83
6.73408e-90
1.71125e-86
1.6646e-93
6.5399e-90
1.99081e-97
1.6264e-93
1.95346e-97
-8.11191e-91
7.95295e-91
-5.6066e-87
5.47234e-87
-1.8755e-83
1.81877e-83
-4.07801e-80
3.93357e-80
-7.64758e-77
6.23752e-77
-1.35146e-73
7.60645e-74
-2.04984e-70
6.9517e-71
-3.18437e-67
3.49393e-68
-5.16151e-64
-4.4242e-65
-5.55063e-61
-1.38226e-61
-3.42468e-58
-1.32887e-58
-1.08141e-55
-5.27885e-56
-9.04109e-54
-7.5378e-54
-1.9405e-52
-2.8879e-52
-8.74929e-52
-3.26987e-51
6.56509e-56
-1.08489e-50
8.74999e-52
-1.08485e-50
1.93086e-52
-3.26997e-51
1.3313e-53
-2.7761e-52
2.48548e-55
-9.07454e-54
9.58591e-57
-1.34576e-54
1.58461e-59
-1.1072e-56
4.6406e-63
-4.59154e-60
6.83467e-67
-5.26997e-64
1.03991e-72
3.5471e-70
7.91464e-76
4.02197e-73
4.42698e-79
4.40321e-76
2.36095e-82
3.61066e-79
1.08433e-85
2.27715e-82
3.24204e-89
1.05289e-85
4.69154e-93
3.16797e-89
4.60404e-93
-1.38403e-86
1.35682e-86
-7.90904e-83
7.71903e-83
-2.18811e-79
2.12141e-79
-3.93891e-76
3.79374e-76
-6.07899e-73
4.97439e-73
-8.87446e-70
5.01644e-70
-1.11121e-66
3.79401e-67
-1.41771e-63
1.59089e-64
-1.89238e-60
-1.41668e-61
-1.68418e-57
-4.13451e-58
-8.65131e-55
-3.384e-55
-2.27852e-52
-1.13744e-52
-1.61199e-50
-1.39424e-50
-3.04908e-49
-4.71971e-49
-1.26973e-48
-4.93147e-48
8.62886e-53
-1.57352e-47
1.26982e-48
-1.57347e-47
3.03406e-49
-4.93163e-48
2.18468e-50
-4.54032e-49
4.88546e-52
-1.54916e-50
2.0349e-53
-2.39837e-51
4.22907e-56
-2.38868e-53
1.55844e-59
-1.25243e-56
2.76919e-63
-1.74592e-60
6.42899e-69
1.84137e-66
5.92403e-72
2.49607e-69
4.00246e-75
3.30254e-72
2.59179e-78
3.27471e-75
1.43829e-81
2.49765e-78
5.20012e-85
1.39665e-81
9.10085e-89
5.08191e-85
8.93281e-89
-1.92401e-82
1.8862e-82
-9.0973e-79
8.87796e-79
-2.08245e-75
2.0188e-75
-3.10488e-72
2.98707e-72
-3.94726e-69
3.24073e-69
-4.76224e-66
2.7044e-66
-4.92395e-63
1.69398e-63
-5.15718e-60
5.93856e-61
-5.67036e-57
-4.11589e-58
-4.18126e-54
-1.02593e-54
-1.79172e-51
-7.05446e-52
-3.94214e-49
-2.00973e-49
-2.36062e-47
-2.11685e-47
-3.93523e-46
-6.33265e-46
-1.51381e-45
-6.10646e-45
9.35132e-50
-1.87384e-44
1.5139e-45
-1.87378e-44
3.91606e-46
-6.10669e-45
2.94524e-47
-6.09696e-46
7.91182e-49
-2.17187e-47
3.54299e-50
-3.49426e-48
9.24915e-53
-4.21754e-50
4.291e-56
-2.79672e-53
9.17613e-60
-4.72195e-57
3.28058e-65
7.91236e-63
3.65809e-68
1.27877e-65
2.98259e-71
2.04322e-68
2.3421e-74
2.44826e-71
1.5704e-77
2.2568e-74
6.86216e-81
1.52524e-77
1.45162e-84
6.70745e-81
1.42506e-84
-2.17542e-78
2.13262e-78
-8.5177e-75
8.31171e-75
-1.61466e-71
1.56517e-71
-1.99459e-68
1.91776e-68
-2.09105e-65
1.723e-65
-2.08622e-62
1.19089e-62
-1.78201e-59
6.18425e-60
-1.53153e-56
1.81706e-57
-1.38771e-53
-9.76071e-55
-8.49079e-51
-2.07805e-51
-3.04187e-48
-1.20336e-48
-5.59993e-46
-2.91147e-46
-2.83863e-44
-2.63779e-44
-4.17066e-43
-6.97432e-43
-1.48231e-42
-6.20693e-42
8.3547e-47
-1.83176e-41
1.48238e-42
-1.8317e-41
4.15066e-43
-6.20719e-42
3.24283e-44
-6.72093e-43
1.05564e-45
-2.48622e-44
5.05866e-47
-4.15763e-45
1.65726e-49
-6.09106e-47
9.67798e-53
-5.1074e-50
2.47964e-56
-1.03942e-53
1.38157e-61
2.81597e-59
1.8629e-64
5.40821e-62
1.83079e-67
1.04251e-64
1.74245e-70
1.50818e-67
1.41043e-73
1.67879e-70
7.44241e-77
1.37012e-73
1.90134e-80
7.27586e-77
1.86683e-80
-1.99677e-74
1.95736e-74
-6.48061e-71
6.32334e-71
-1.01852e-67
9.87144e-68
-1.04355e-64
1.00269e-64
-9.02643e-62
7.4684e-62
-7.4534e-59
4.2801e-59
-5.26279e-56
1.84503e-56
-3.70999e-53
4.55657e-54
-2.77206e-50
-1.87167e-51
-1.4098e-47
-3.43304e-48
-4.23288e-45
-1.67901e-45
-6.53034e-43
-3.45745e-43
-2.80202e-41
-2.69699e-41
-3.62843e-40
-6.30253e-40
-1.19167e-39
-5.17704e-39
6.15317e-44
-1.46932e-38
1.19173e-39
-1.46928e-38
3.61137e-40
-5.17726e-39
2.84935e-41
-6.07961e-40
1.1604e-42
-2.27096e-41
5.9219e-44
-4.03482e-42
2.43232e-46
-7.19145e-44
1.78661e-49
-7.6206e-47
5.44724e-53
-1.85622e-50
4.79697e-58
8.29726e-56
7.81502e-61
1.8867e-58
9.24358e-64
4.38229e-61
1.06572e-66
7.64555e-64
1.04026e-69
1.02656e-66
6.62119e-73
1.01063e-69
2.04072e-76
6.4737e-73
2.00388e-76
-1.48462e-70
1.45516e-70
-3.99937e-67
3.90176e-67
-5.21826e-64
5.05645e-64
-4.44059e-61
4.26355e-61
-3.17099e-58
2.63622e-58
-2.16936e-55
1.25445e-55
-1.2672e-52
4.49581e-53
-7.3245e-50
9.36277e-51
-4.51675e-47
-2.89129e-48
-1.91325e-44
-4.62143e-45
-4.82722e-42
-1.91527e-42
-6.25036e-40
-3.36462e-40
-2.26952e-38
-2.26175e-38
-2.59007e-37
-4.67109e-37
-7.86176e-37
-3.54148e-36
3.7353e-41
-9.66623e-36
7.86205e-37
-9.66594e-36
2.57819e-37
-3.54163e-36
2.02294e-38
-4.51081e-37
1.05056e-39
-1.6747e-38
5.68266e-41
-3.18852e-39
2.92355e-43
-6.9368e-41
2.69764e-46
-9.28133e-44
9.69342e-50
-2.67908e-47
1.37174e-54
2.02326e-52
2.69768e-57
5.42503e-55
3.83315e-60
1.51608e-57
5.35025e-63
3.18533e-60
6.2891e-66
5.15207e-63
4.82195e-69
6.11007e-66
1.79056e-72
4.71469e-69
1.75831e-72
-8.91973e-67
8.74138e-67
-1.99768e-63
1.94853e-63
-2.16754e-60
2.09972e-60
-1.53431e-57
1.47211e-57
-9.05283e-55
7.56848e-55
-5.13785e-52
2.99541e-52
-2.48522e-49
8.9419e-50
-1.17743e-46
1.57601e-47
-5.9987e-44
-3.57935e-45
-2.12137e-41
-5.06353e-42
-4.51091e-39
-1.78513e-39
-4.90892e-37
-2.68214e-37
-1.50756e-35
-1.55501e-35
-1.51611e-34
-2.83754e-34
-4.25368e-34
-1.98565e-33
1.86877e-38
-5.21195e-33
4.25381e-34
-5.2118e-33
1.50937e-34
-1.98574e-33
1.34822e-35
-2.74349e-34
7.82626e-37
-1.16285e-35
4.46892e-38
-2.04806e-36
2.87729e-40
-5.46291e-38
3.329e-43
-9.21763e-41
1.39037e-46
-3.10855e-44
3.22896e-51
4.08354e-49
7.65787e-54
1.28539e-51
1.30417e-56
4.31418e-54
2.20169e-59
1.08971e-56
3.112e-62
2.11971e-59
2.86946e-65
3.02332e-62
1.28167e-68
2.80555e-65
1.25859e-68
-4.31848e-63
4.23121e-63
-8.05678e-60
7.85633e-60
-7.28418e-57
7.05365e-57
-4.2965e-54
4.12015e-54
-2.09694e-51
1.7648e-51
-9.88865e-49
5.82114e-49
-3.96558e-46
1.45066e-46
-1.53956e-43
2.17247e-44
-6.48869e-41
-3.52376e-42
-1.92092e-38
-4.50932e-39
-3.45364e-36
-1.35852e-36
-3.16268e-34
-1.75058e-34
-8.20762e-33
-8.75954e-33
-7.27212e-32
-1.41171e-31
-1.88609e-31
-9.11753e-31
7.70319e-36
-2.30135e-30
1.88615e-31
-2.30128e-30
7.24095e-32
-9.11796e-31
7.36844e-33
-1.36675e-31
4.79617e-34
-6.62281e-33
2.8796e-35
-1.06647e-33
2.31842e-37
-3.50968e-35
3.35472e-40
-7.45577e-38
1.59566e-43
-2.8767e-41
6.25524e-48
6.82407e-46
1.78702e-50
2.50962e-48
3.63747e-53
1.00947e-50
7.41963e-56
3.05897e-53
1.25863e-58
7.14208e-56
1.39289e-61
1.22266e-58
7.4687e-65
1.36175e-61
7.33381e-65
-1.67935e-59
1.64494e-59
-2.61617e-56
2.55013e-56
-1.97557e-53
1.91226e-53
-9.73404e-51
9.32845e-51
-3.93366e-48
3.3368e-48
-1.54436e-45
9.19555e-46
-5.14196e-43
1.91806e-43
-1.63557e-40
2.45121e-41
-5.71154e-38
-2.72468e-39
-1.41988e-35
-3.25847e-36
-2.1661e-33
-8.43459e-34
-1.67097e-31
-9.34949e-32
-3.65949e-30
-4.03988e-30
-2.85568e-29
-5.74648e-29
-6.84712e-29
-3.42503e-28
2.61518e-33
-8.31278e-28
6.8473e-29
-8.31257e-28
2.84398e-29
-3.42518e-28
3.30002e-30
-5.5718e-29
2.41746e-31
-3.09198e-30
1.52024e-32
-4.4862e-31
1.52944e-34
-1.83796e-32
2.7581e-37
-4.9048e-35
1.44791e-40
-2.09615e-38
9.97083e-45
9.4439e-43
3.42693e-47
4.0378e-45
8.30878e-50
1.94162e-47
2.04549e-52
7.04077e-50
4.15429e-55
1.96844e-52
5.50451e-58
4.03491e-55
3.53475e-61
5.38058e-58
3.47056e-61
-5.22537e-56
5.11634e-56
-6.81688e-53
6.64158e-53
-4.31216e-50
4.17164e-50
-1.78e-47
1.70448e-47
-5.96309e-45
5.10596e-45
-1.95368e-42
1.17908e-42
-5.41013e-40
2.06493e-40
-1.40992e-37
2.26227e-38
-4.08727e-35
-1.61844e-36
-8.56308e-33
-1.90652e-33
-1.1128e-30
-4.26802e-31
-7.23685e-29
-4.08313e-29
-1.33494e-27
-1.52403e-27
-9.17035e-27
-1.9113e-26
-2.03278e-26
-1.05089e-25
7.30697e-31
-2.45244e-25
2.03282e-26
-2.45238e-25
9.13473e-27
-1.05094e-25
1.21003e-27
-1.85628e-26
1.00212e-28
-1.1825e-27
6.57651e-30
-1.51704e-28
8.26199e-32
-7.83978e-30
1.84835e-34
-2.62024e-32
1.01621e-37
-1.1749e-35
1.30743e-41
1.08146e-39
5.39827e-44
5.3536e-42
1.55253e-46
3.06852e-44
4.6067e-49
1.32749e-46
1.1169e-51
4.43152e-49
1.7667e-54
1.08451e-51
1.35477e-57
1.72652e-54
1.32995e-57
-1.29499e-52
1.26734e-52
-1.41964e-49
1.38227e-49
-7.5491e-47
7.29791e-47
-2.61951e-44
2.50617e-44
-7.28575e-42
6.30848e-42
-1.99778e-39
1.22504e-39
-4.61105e-37
1.8079e-37
-9.84753e-35
1.70617e-35
-2.37533e-32
-7.04312e-34
-4.21116e-30
-9.00787e-31
-4.68211e-28
-1.75804e-28
-2.56797e-26
-1.45686e-26
-3.9793e-25
-4.69656e-25
-2.40468e-24
-5.1833e-24
-4.92803e-24
-2.62717e-23
1.6778e-28
-5.90059e-23
4.92814e-24
-5.90044e-23
2.39592e-24
-2.62729e-23
3.62858e-25
-5.04276e-24
3.41711e-26
-3.70513e-25
2.33277e-27
-4.09425e-26
3.657e-29
-2.72303e-27
1.00968e-31
-1.13561e-29
5.26584e-35
-4.82413e-33
1.40864e-38
1.01082e-36
6.97516e-41
5.84438e-39
2.36782e-43
3.97927e-41
8.45399e-46
2.04622e-43
2.43845e-48
8.12867e-46
4.58845e-51
2.36681e-48
4.18726e-54
4.48251e-51
4.10951e-54
-2.54197e-49
2.48609e-49
-2.3514e-46
2.28768e-46
-1.05555e-43
1.0195e-43
-3.09154e-41
2.95486e-41
-7.15166e-39
6.27501e-39
-1.64705e-36
1.02907e-36
-3.17676e-34
1.28526e-34
-5.56264e-32
1.05001e-32
-1.11957e-29
-1.92107e-31
-1.68758e-27
-3.42464e-28
-1.61317e-25
-5.88501e-26
-7.45988e-24
-4.24077e-24
-9.67591e-23
-1.18357e-22
-5.14404e-22
-1.15918e-21
-9.74607e-22
-5.51142e-21
3.16481e-26
-1.19432e-20
9.74627e-22
-1.19429e-20
5.12669e-22
-5.51159e-21
8.88499e-23
-1.13058e-21
9.59033e-24
-9.52321e-23
6.79663e-25
-8.73035e-24
1.32829e-26
-7.71048e-25
4.51262e-29
-4.00019e-27
1.76466e-32
-1.26694e-30
1.24298e-35
6.29074e-34
7.3651e-38
5.23905e-36
2.93493e-40
4.22056e-38
1.2584e-42
2.56828e-40
4.30047e-45
1.20922e-42
9.58589e-48
4.17154e-45
1.0367e-50
9.35956e-48
1.01704e-50
-3.92583e-46
3.83632e-46
-3.07958e-43
2.99309e-43
-1.17293e-40
1.13156e-40
-2.91408e-38
2.78184e-38
-5.61799e-36
5.00767e-36
-1.09141e-33
6.97087e-34
-1.76468e-31
7.40533e-32
-2.53636e-29
5.26332e-30
-4.27276e-27
-1.07243e-29
-5.5053e-25
-1.04196e-25
-4.54851e-23
-1.59733e-23
-1.77097e-21
-1.01085e-21
-1.91522e-20
-2.51195e-20
-9.02845e-20
-2.26978e-19
-1.57267e-19
-1.0384e-18
4.90274e-24
-1.92389e-18
1.5727e-19
-1.92385e-18
9.00156e-20
-1.03856e-18
1.77341e-20
-2.23662e-19
2.2139e-21
-2.08163e-20
1.63052e-22
-1.44002e-21
3.96649e-24
-1.78348e-22
1.66727e-26
-1.15256e-24
1.51861e-30
-7.06039e-29
8.96837e-33
2.66352e-31
6.28691e-35
3.85213e-33
2.94739e-37
3.65449e-35
1.51422e-39
2.61768e-37
6.10031e-42
1.45377e-39
1.60264e-44
5.91242e-42
2.04384e-47
1.56366e-44
2.00394e-47
-4.8875e-43
4.77461e-43
-3.27025e-40
3.1772e-40
-1.063e-37
1.02515e-37
-2.25306e-35
2.15051e-35
-3.63353e-33
3.30012e-33
-5.98508e-31
3.92322e-31
-8.15408e-29
3.5664e-29
-9.78522e-27
2.21961e-27
-1.33263e-24
1.86875e-26
-1.45941e-22
-2.51522e-23
-1.05499e-20
-3.55512e-21
-3.47234e-19
-1.99395e-19
-3.08817e-18
-3.75588e-18
-1.23407e-17
-2.42562e-17
-1.95985e-17
-7.2311e-17
5.89511e-22
-9.70524e-17
1.95989e-17
-9.70522e-17
1.23096e-17
-7.23127e-17
2.88537e-18
-2.37614e-17
4.15945e-19
-3.17508e-18
3.20428e-20
-1.83047e-19
9.70654e-22
-3.32628e-20
4.98247e-24
-2.69987e-22
5.04226e-28
1.91131e-27
6.11669e-30
1.48636e-28
4.10309e-32
2.43196e-30
2.46504e-34
2.66507e-32
1.52143e-36
2.24246e-34
7.18429e-39
1.46087e-36
2.21146e-41
6.96238e-39
3.30629e-44
2.1574e-41
3.24155e-44
-4.74815e-40
4.63279e-40
-2.72953e-37
2.64806e-37
-7.62815e-35
7.34455e-35
-1.3894e-32
1.32407e-32
-1.87776e-30
1.74366e-30
-2.63932e-28
1.78327e-28
-3.04761e-26
1.39696e-26
-3.07129e-24
7.66055e-25
-3.35733e-22
1.16449e-23
-3.16172e-20
-4.86795e-21
-2.13588e-18
-6.24634e-19
-5.47022e-17
-2.35459e-17
-3.73581e-16
-2.56284e-17
-1.28555e-15
-6.78062e-17
-1.98822e-15
-8.54312e-16
5.82968e-20
-5.39411e-15
1.98826e-15
-5.39396e-15
1.28125e-15
-8.48005e-16
3.51854e-16
-6.08704e-17
5.92016e-17
-1.30532e-17
5.14761e-18
-2.15849e-17
1.92353e-19
-4.90628e-18
1.19132e-21
-4.99461e-20
2.1864e-25
1.64226e-24
3.16549e-27
6.93249e-26
2.45944e-29
1.29342e-27
1.7264e-31
1.64243e-29
1.26995e-33
1.60648e-31
6.97908e-36
1.2193e-33
2.49896e-38
6.76115e-36
4.34884e-41
2.43704e-38
4.26262e-41
-3.51976e-37
3.42793e-37
-1.75324e-34
1.69735e-34
-4.24939e-32
4.08152e-32
-6.70727e-30
6.37748e-30
-7.61983e-28
7.26595e-28
-9.20872e-26
6.44453e-26
-9.07404e-24
4.38683e-24
-7.71231e-22
2.13329e-22
-6.87831e-20
4.14379e-21
-5.54891e-18
-1.13514e-18
-2.93652e-16
-4.33191e-17
-6.73653e-15
0
-3.97965e-14
0
-1.2285e-13
0
-1.74931e-13
-8.35417e-14
5.12037e-18
-4.53659e-13
1.74933e-13
-4.53645e-13
1.2251e-13
-8.31538e-14
3.79383e-14
0
8.25301e-15
0
6.809e-16
0
3.05152e-17
-5.52545e-16
2.21412e-19
-7.02954e-18
8.17886e-23
8.65345e-22
1.40252e-24
2.78614e-23
1.247e-26
5.89599e-25
1.01403e-28
8.59861e-27
8.85461e-31
9.69339e-29
5.61598e-33
8.50229e-31
2.31901e-35
5.43875e-33
4.65779e-38
2.26085e-35
4.56437e-38
-1.92472e-34
1.86894e-34
-8.37088e-32
8.09671e-32
-1.78217e-29
1.70568e-29
-2.46342e-27
2.3334e-27
-2.48768e-25
2.32421e-25
-2.4741e-23
1.80284e-23
-2.10013e-21
1.07704e-21
-1.52221e-19
4.68276e-20
-1.07031e-17
1.04178e-18
-6.54889e-16
-7.81374e-18
-2.94555e-14
0
-6.6924e-13
0
-3.43394e-12
0
-9.57346e-12
0
-1.25079e-11
-7.11969e-12
3.69438e-16
-3.15258e-11
1.25079e-11
-3.15247e-11
9.55146e-12
-7.09432e-12
3.3108e-12
0
6.99795e-13
0
6.94716e-14
0
3.8066e-15
-4.90214e-14
2.98134e-17
-6.81208e-16
2.61645e-20
3.3167e-19
5.27261e-22
9.56604e-21
5.28414e-24
2.28089e-22
5.12633e-26
3.7794e-24
5.08651e-28
4.86724e-26
3.68489e-30
4.88243e-28
1.73697e-32
3.56637e-30
3.98581e-35
1.69229e-32
3.90363e-35
-7.24576e-32
6.99597e-32
-2.76724e-29
2.68255e-29
-5.27502e-27
5.01469e-27
-6.46413e-25
6.07863e-25
-5.7882e-23
5.35691e-23
-4.81138e-21
3.67076e-21
-3.65612e-19
1.95274e-19
-2.36107e-17
8.08626e-18
-7.76777e-16
4.60432e-16
0
-1.44065e-17
-2.11122e-12
0
-6.01663e-11
0
-2.50652e-10
0
-6.10731e-10
0
-7.22215e-10
-4.78269e-10
2.18745e-14
-1.76244e-09
7.22218e-10
-1.76238e-09
6.09715e-10
-4.7724e-10
2.44906e-10
0
5.21378e-11
0
5.05746e-12
0
3.5729e-13
-3.50032e-12
2.6119e-15
-4.35301e-14
6.83221e-18
1.96751e-16
1.58637e-19
2.90516e-18
1.80018e-21
7.2247e-20
2.06197e-23
1.34065e-21
2.30829e-25
1.95166e-23
1.8868e-27
2.21182e-25
1.00288e-29
1.82267e-27
2.59736e-32
9.75306e-30
2.5396e-32
-2.04368e-29
1.96661e-29
-6.97466e-27
6.77192e-27
-1.20301e-24
1.14002e-24
-1.32477e-22
1.24249e-22
-1.066e-20
9.83033e-21
-8.00645e-19
6.0772e-19
-4.5035e-17
3.20866e-17
-4.43078e-15
4.21013e-15
-3.1537e-13
3.02968e-13
-6.89181e-13
-2.19274e-14
-2.14653e-10
0
-4.52198e-09
0
-1.47486e-08
0
-3.10603e-08
0
-3.30144e-08
-2.5426e-08
1.03183e-12
-7.85288e-08
3.3015e-08
-7.85267e-08
3.10334e-08
-2.53972e-08
1.45886e-08
0
4.23264e-09
0
3.04995e-10
0
2.48923e-11
-1.05259e-10
2.97105e-13
-8.54108e-13
3.15876e-15
2.26663e-13
2.56211e-17
3.07103e-15
4.57988e-19
1.89356e-17
5.93883e-21
3.4618e-19
7.38192e-23
5.57175e-21
6.70881e-25
7.0323e-23
3.95824e-27
6.44458e-25
1.14138e-29
3.83275e-27
1.11059e-29
-4.68474e-27
4.49979e-27
-1.45534e-24
1.41617e-24
-2.30708e-22
2.18432e-22
-2.3242e-20
2.17857e-20
-1.70392e-18
1.57837e-18
-1.05762e-16
9.81821e-17
-1.57858e-14
1.53012e-14
-1.26356e-12
1.24074e-12
-3.10487e-11
2.95491e-11
-2.21314e-10
1.60671e-10
-1.82055e-08
0
-2.70614e-07
0
-6.71652e-07
0
-1.19616e-06
0
-1.1278e-06
-1.07792e-06
3.575e-11
-2.71386e-06
1.12785e-06
-2.71381e-06
1.19605e-06
-1.07768e-06
6.70511e-07
0
2.68109e-07
0
1.60836e-08
0
8.36249e-10
0
2.8845e-11
1.43663e-10
1.15843e-12
2.7607e-11
1.43628e-14
1.13977e-12
8.52461e-17
1.40488e-14
1.33677e-18
8.0155e-17
1.823e-20
1.25657e-18
1.8104e-22
1.73124e-20
1.15955e-24
1.7339e-22
3.67915e-27
1.12541e-24
3.56841e-27
-7.42504e-25
7.06833e-25
-2.11953e-22
2.07177e-22
-3.14644e-20
2.98904e-20
-2.99961e-18
2.79047e-18
-2.13948e-16
1.97478e-16
-2.59795e-14
2.49773e-14
-2.40356e-12
2.36059e-12
-7.9416e-11
7.71389e-11
-1.7344e-09
1.64396e-09
-1.75719e-08
1.41799e-08
-1.12238e-06
0
-1.05772e-05
0
-2.14112e-05
0
-3.88973e-05
-0.00014817
-3.75872e-05
-0.000836034
1.14232e-09
-0.00122467
3.75886e-05
-0.00122466
3.88968e-05
-0.000836004
2.14097e-05
-0.000148142
1.05733e-05
0
1.11524e-06
0
1.85496e-08
0
1.71604e-09
1.40392e-08
7.86163e-11
1.63122e-09
2.37329e-12
7.6421e-11
2.549e-14
2.33499e-12
2.06017e-16
2.46144e-14
2.88317e-18
1.91695e-16
3.0641e-20
2.70209e-18
2.05751e-22
2.89689e-20
7.13692e-25
2.00788e-22
6.83683e-25
-5.75126e-23
5.29172e-23
-1.48676e-20
1.46952e-20
-2.10631e-18
2.03254e-18
-1.94462e-16
1.8301e-16
-1.69708e-14
1.58912e-14
-1.80242e-12
1.74342e-12
-7.89672e-11
7.68855e-11
-2.43537e-09
2.342e-09
-5.23742e-08
4.8679e-08
-5.42485e-07
4.16275e-07
-2.94504e-06
0
-0.000334694
-0.000669791
-0.000723519
-0.00369152
-0.000773299
-0.0065811
-0.00046603
-0.00704906
1.24995e-08
-0.00722318
0.000466052
-0.00722318
0.00077331