/*--------------------------------*- C++ -*----------------------------------*\
  =========                 |
  \\      /  F ield         | OpenFOAM: The Open Source CFD Toolbox
   \\    /   O peration     | Website:  https://openfoam.org
    \\  /    A nd           | Version:  9
     \\/     M anipulation  |
\*---------------------------------------------------------------------------*/
FoamFile
{
    format      ascii;
    class       volScalarField;
    location    "0.7";
    object      p_rgh;
}
// * * * * * * * * * * * * * * * * * * * * * * * * * * * * * * * * * * * * * //

dimensions      [1 -1 -2 0 0 0 0];

internalField   nonuniform List<scalar> 
4096
(
-3.2977
-3.29766
-3.29759
-3.29748
-3.29733
-3.29716
-3.29697
-3.29677
-3.29656
-3.29635
-3.29616
-3.29599
-3.29584
-3.29572
-3.29564
-3.2956
-3.2956
-3.29564
-3.29572
-3.29584
-3.29599
-3.29616
-3.29635
-3.29656
-3.29677
-3.29697
-3.29716
-3.29734
-3.29748
-3.2976
-3.29768
-3.29772
-3.29775
-3.2977
-3.29763
-3.29751
-3.29736
-3.29718
-3.29698
-3.29677
-3.29655
-3.29634
-3.29614
-3.29596
-3.29581
-3.29569
-3.2956
-3.29556
-3.29556
-3.2956
-3.29569
-3.29581
-3.29596
-3.29614
-3.29634
-3.29655
-3.29677
-3.29698
-3.29718
-3.29736
-3.29751
-3.29763
-3.29771
-3.29776
-3.29783
-3.29778
-3.2977
-3.29757
-3.29741
-3.29722
-3.29701
-3.29678
-3.29655
-3.29632
-3.2961
-3.29591
-3.29574
-3.29562
-3.29553
-3.29548
-3.29548
-3.29553
-3.29561
-3.29574
-3.29591
-3.2961
-3.29632
-3.29655
-3.29678
-3.29701
-3.29722
-3.29741
-3.29758
-3.2977
-3.29779
-3.29784
-3.29795
-3.29791
-3.29781
-3.29767
-3.29749
-3.29728
-3.29704
-3.29679
-3.29653
-3.29628
-3.29604
-3.29583
-3.29565
-3.2955
-3.29541
-3.29535
-3.29535
-3.29541
-3.2955
-3.29565
-3.29583
-3.29604
-3.29628
-3.29653
-3.29679
-3.29704
-3.29728
-3.29749
-3.29767
-3.29782
-3.29791
-3.29796
-3.29813
-3.29807
-3.29797
-3.29781
-3.2976
-3.29736
-3.29709
-3.29681
-3.29652
-3.29623
-3.29596
-3.29572
-3.29551
-3.29535
-3.29524
-3.29518
-3.29518
-3.29524
-3.29535
-3.29551
-3.29572
-3.29596
-3.29623
-3.29652
-3.29681
-3.2971
-3.29736
-3.29761
-3.29781
-3.29797
-3.29808
-3.29814
-3.29836
-3.2983
-3.29817
-3.29799
-3.29775
-3.29747
-3.29716
-3.29683
-3.2965
-3.29617
-3.29585
-3.29557
-3.29533
-3.29514
-3.29501
-3.29495
-3.29495
-3.29501
-3.29514
-3.29533
-3.29557
-3.29585
-3.29617
-3.2965
-3.29683
-3.29716
-3.29747
-3.29775
-3.29799
-3.29818
-3.2983
-3.29837
-3.29866
-3.29858
-3.29843
-3.29822
-3.29794
-3.29761
-3.29725
-3.29686
-3.29647
-3.29608
-3.29571
-3.29538
-3.2951
-3.29488
-3.29473
-3.29465
-3.29465
-3.29473
-3.29488
-3.2951
-3.29538
-3.29571
-3.29608
-3.29647
-3.29686
-3.29725
-3.29762
-3.29794
-3.29822
-3.29844
-3.29859
-3.29866
-3.29903
-3.29894
-3.29876
-3.29851
-3.29818
-3.29779
-3.29736
-3.2969
-3.29643
-3.29597
-3.29554
-3.29515
-3.29481
-3.29455
-3.29437
-3.29428
-3.29428
-3.29437
-3.29455
-3.29481
-3.29515
-3.29554
-3.29597
-3.29643
-3.2969
-3.29736
-3.29779
-3.29818
-3.29851
-3.29877
-3.29895
-3.29903
-3.29949
-3.29939
-3.29918
-3.29887
-3.29848
-3.29801
-3.2975
-3.29695
-3.29639
-3.29584
-3.29532
-3.29485
-3.29446
-3.29414
-3.29393
-3.29382
-3.29382
-3.29393
-3.29414
-3.29446
-3.29486
-3.29532
-3.29584
-3.29639
-3.29695
-3.2975
-3.29802
-3.29848
-3.29887
-3.29918
-3.29939
-3.2995
-3.30006
-3.29993
-3.29968
-3.29931
-3.29884
-3.29829
-3.29767
-3.29701
-3.29634
-3.29568
-3.29506
-3.29449
-3.29402
-3.29364
-3.29338
-3.29325
-3.29325
-3.29338
-3.29364
-3.29402
-3.29449
-3.29506
-3.29568
-3.29634
-3.29701
-3.29767
-3.29829
-3.29885
-3.29932
-3.29969
-3.29994
-3.30007
-3.30076
-3.30061
-3.3003
-3.29986
-3.29929
-3.29863
-3.29788
-3.29709
-3.29628
-3.29548
-3.29473
-3.29405
-3.29347
-3.29302
-3.29271
-3.29255
-3.29255
-3.29271
-3.29302
-3.29347
-3.29405
-3.29473
-3.29548
-3.29628
-3.29709
-3.29788
-3.29863
-3.2993
-3.29986
-3.30031
-3.30061
-3.30077
-3.30162
-3.30143
-3.30106
-3.30053
-3.29985
-3.29904
-3.29814
-3.29718
-3.2962
-3.29524
-3.29433
-3.29351
-3.29281
-3.29226
-3.29188
-3.29169
-3.29169
-3.29188
-3.29226
-3.29281
-3.29351
-3.29433
-3.29524
-3.2962
-3.29718
-3.29814
-3.29904
-3.29985
-3.30053
-3.30107
-3.30143
-3.30162
-3.30266
-3.30244
-3.30199
-3.30135
-3.30052
-3.29954
-3.29846
-3.2973
-3.29611
-3.29495
-3.29385
-3.29285
-3.29201
-3.29134
-3.29088
-3.29064
-3.29065
-3.29088
-3.29134
-3.29201
-3.29285
-3.29385
-3.29495
-3.29612
-3.2973
-3.29846
-3.29955
-3.30052
-3.30135
-3.302
-3.30244
-3.30266
-3.30393
-3.30366
-3.30313
-3.30234
-3.30134
-3.30016
-3.29885
-3.29744
-3.29601
-3.29459
-3.29326
-3.29205
-3.29102
-3.29022
-3.28966
-3.28937
-3.28937
-3.28966
-3.29022
-3.29103
-3.29205
-3.29326
-3.2946
-3.29601
-3.29745
-3.29885
-3.30017
-3.30135
-3.30235
-3.30313
-3.30366
-3.30393
-3.30548
-3.30515
-3.3045
-3.30356
-3.30235
-3.30092
-3.29932
-3.29762
-3.29588
-3.29417
-3.29255
-3.29108
-3.28983
-3.28885
-3.28817
-3.28782
-3.28782
-3.28817
-3.28885
-3.28983
-3.29108
-3.29255
-3.29417
-3.29589
-3.29763
-3.29933
-3.30092
-3.30235
-3.30356
-3.30451
-3.30515
-3.30548
-3.30736
-3.30696
-3.30618
-3.30504
-3.30357
-3.30184
-3.29991
-3.29785
-3.29574
-3.29366
-3.29168
-3.2899
-3.28838
-3.28718
-3.28636
-3.28594
-3.28594
-3.28636
-3.28719
-3.28838
-3.2899
-3.29169
-3.29366
-3.29574
-3.29785
-3.29991
-3.30185
-3.30358
-3.30504
-3.30618
-3.30697
-3.30736
-3.30964
-3.30917
-3.30822
-3.30684
-3.30507
-3.30297
-3.30063
-3.29813
-3.29557
-3.29304
-3.29064
-3.28848
-3.28662
-3.28517
-3.28416
-3.28364
-3.28364
-3.28416
-3.28517
-3.28663
-3.28848
-3.29065
-3.29304
-3.29557
-3.29814
-3.30064
-3.30298
-3.30507
-3.30684
-3.30822
-3.30917
-3.30965
-3.31242
-3.31184
-3.3107
-3.30903
-3.30689
-3.30436
-3.30152
-3.29849
-3.29538
-3.2923
-3.28939
-3.28675
-3.28449
-3.28271
-3.28148
-3.28085
-3.28085
-3.28148
-3.28271
-3.28449
-3.28675
-3.28939
-3.29231
-3.29538
-3.29849
-3.30153
-3.30436
-3.3069
-3.30904
-3.31071
-3.31185
-3.31243
-3.3158
-3.3151
-3.31372
-3.31171
-3.30912
-3.30605
-3.30262
-3.29894
-3.29517
-3.29143
-3.28788
-3.28466
-3.28191
-3.27974
-3.27823
-3.27747
-3.27747
-3.27824
-3.27974
-3.28191
-3.28466
-3.28788
-3.29143
-3.29517
-3.29895
-3.30262
-3.30606
-3.30912
-3.31171
-3.31373
-3.3151
-3.3158
-3.3199
-3.31906
-3.3174
-3.31496
-3.31184
-3.30813
-3.30398
-3.29952
-3.29493
-3.29039
-3.28607
-3.28215
-3.27878
-3.27613
-3.27429
-3.27335
-3.27335
-3.27429
-3.27613
-3.27879
-3.28215
-3.28607
-3.29039
-3.29494
-3.29953
-3.30398
-3.30814
-3.31184
-3.31497
-3.3174
-3.31906
-3.3199
-3.32487
-3.32386
-3.32187
-3.31894
-3.31517
-3.31069
-3.30567
-3.30027
-3.2947
-3.28917
-3.2839
-3.27911
-3.275
-3.27175
-3.2695
-3.26835
-3.26835
-3.2695
-3.27175
-3.27501
-3.27911
-3.2839
-3.28917
-3.2947
-3.30027
-3.30567
-3.3107
-3.31517
-3.31894
-3.32187
-3.32387
-3.32488
-3.33091
-3.3297
-3.3273
-3.32378
-3.31924
-3.31385
-3.30777
-3.30123
-3.29447
-3.28774
-3.28132
-3.27547
-3.27044
-3.26645
-3.26369
-3.26228
-3.26228
-3.26369
-3.26645
-3.27044
-3.27547
-3.28132
-3.28774
-3.29447
-3.30123
-3.30777
-3.31385
-3.31925
-3.32378
-3.32731
-3.32971
-3.33092
-3.33825
-3.33679
-3.33392
-3.32969
-3.32424
-3.31774
-3.31041
-3.30249
-3.29428
-3.28609
-3.27825
-3.2711
-3.26493
-3.26004
-3.25664
-3.2549
-3.2549
-3.25664
-3.26004
-3.26493
-3.2711
-3.27826
-3.28609
-3.29428
-3.30249
-3.31041
-3.31774
-3.32425
-3.3297
-3.33393
-3.3368
-3.33825
-3.34715
-3.34541
-3.34198
-3.33692
-3.33038
-3.32256
-3.31372
-3.30415
-3.29418
-3.28421
-3.27464
-3.26587
-3.2583
-3.25228
-3.2481
-3.24596
-3.24596
-3.2481
-3.25228
-3.25831
-3.26587
-3.27464
-3.28422
-3.29419
-3.30415
-3.31372
-3.32257
-3.33038
-3.33692
-3.34198
-3.34542
-3.34715
-3.35794
-3.35587
-3.35179
-3.34575
-3.33793
-3.32856
-3.31791
-3.30635
-3.29426
-3.28212
-3.27041
-3.25966
-3.25034
-3.24292
-3.23775
-3.2351
-3.2351
-3.23775
-3.24292
-3.25035
-3.25966
-3.27042
-3.28212
-3.29426
-3.30635
-3.31792
-3.32856
-3.33794
-3.34575
-3.35179
-3.35588
-3.35794
-3.37102
-3.36858
-3.36373
-3.35656
-3.34725
-3.33604
-3.32325
-3.30929
-3.29464
-3.27984
-3.26552
-3.2523
-3.24082
-3.23164
-3.22524
-3.22195
-3.22195
-3.22524
-3.23164
-3.24082
-3.25231
-3.26552
-3.27985
-3.29464
-3.3093
-3.32326
-3.33604
-3.34725
-3.35656
-3.36374
-3.36858
-3.37103
-3.38687
-3.384
-3.37828
-3.3698
-3.35875
-3.34539
-3.33008
-3.31327
-3.29553
-3.27749
-3.25994
-3.24366
-3.22947
-3.21808
-3.21013
-3.20604
-3.20604
-3.21013
-3.21808
-3.22947
-3.24367
-3.25994
-3.2775
-3.29553
-3.31328
-3.33009
-3.3454
-3.35876
-3.36981
-3.37829
-3.384
-3.38688
-3.40606
-3.4027
-3.396
-3.38604
-3.373
-3.35716
-3.33889
-3.3187
-3.29723
-3.27524
-3.2537
-3.23362
-3.21601
-3.20185
-3.19192
-3.18682
-3.18682
-3.19192
-3.20185
-3.21602
-3.23362
-3.25371
-3.27525
-3.29723
-3.3187
-3.3389
-3.35717
-3.37301
-3.38605
-3.39601
-3.4027
-3.40607
-3.42926
-3.42536
-3.41759
-3.40597
-3.3907
-3.37202
-3.35032
-3.32614
-3.30023
-3.27341
-3.24695
-3.2221
-3.2002
-3.18251
-3.17008
-3.16368
-3.16368
-3.17008
-3.18251
-3.2002
-3.22211
-3.24696
-3.27342
-3.30024
-3.32614
-3.35032
-3.37203
-3.3907
-3.40598
-3.41759
-3.42537
-3.42926
-3.45725
-3.45279
-3.44385
-3.43045
-3.41272
-3.39087
-3.36525
-3.3364
-3.30509
-3.27252
-3.23999
-3.20917
-3.18182
-3.15963
-3.14401
-3.13596
-3.13596
-3.14401
-3.15964
-3.18182
-3.20917
-3.23999
-3.27253
-3.3051
-3.3364
-3.36525
-3.39087
-3.41272
-3.43046
-3.44386
-3.4528
-3.45726
-3.49096
-3.48592
-3.47579
-3.46052
-3.44017
-3.41487
-3.38488
-3.35071
-3.31316
-3.27351
-3.23344
-3.19509
-3.16081
-3.13288
-3.11316
-3.10298
-3.10298
-3.11316
-3.13288
-3.16082
-3.1951
-3.23345
-3.27352
-3.31317
-3.35071
-3.38489
-3.41487
-3.44017
-3.46052
-3.47579
-3.48592
-3.49096
-3.5314
-3.52582
-3.51454
-3.49743
-3.47444
-3.44554
-3.41085
-3.37072
-3.32592
-3.27781
-3.22842
-3.18056
-3.13741
-3.1021
-3.07711
-3.06421
-3.06421
-3.07711
-3.1021
-3.13742
-3.18056
-3.22843
-3.27782
-3.32593
-3.37073
-3.41086
-3.44555
-3.47444
-3.49743
-3.51454
-3.52582
-3.53141
-3.57973
-3.57368
-3.56141
-3.54267
-3.51723
-3.48485
-3.44536
-3.39884
-3.34585
-3.28775
-3.22689
-3.16699
-3.11245
-3.06763
-3.03588
-3.01949
-3.01949
-3.03588
-3.06763
-3.11246
-3.16699
-3.2269
-3.28776
-3.34586
-3.39885
-3.44536
-3.48485
-3.51724
-3.54267
-3.56142
-3.57369
-3.57974
-3.63712
-3.63079
-3.61785
-3.59794
-3.57059
-3.53525
-3.49134
-3.43846
-3.37668
-3.30714
-3.23226
-3.15701
-3.08756
-3.0305
-2.99022
-2.96944
-2.96944
-2.99022
-3.0305
-3.08757
-3.15702
-3.23226
-3.30715
-3.37669
-3.43847
-3.49135
-3.53525
-3.5706
-3.59794
-3.61786
-3.63079
-3.63713
-3.70474
-3.69841
-3.68536
-3.6651
-3.63689
-3.59979
-3.55268
-3.49438
-3.42405
-3.34218
-3.25025
-3.15502
-3.06593
-2.99369
-2.94227
-2.91538
-2.91538
-2.94228
-2.99369
-3.06594
-3.15503
-3.25025
-3.34219
-3.42406
-3.49439
-3.55269
-3.5998
-3.6369
-3.6651
-3.68537
-3.69841
-3.70475
-3.78359
-3.77766
-3.76536
-3.74604
-3.71873
-3.68206
-3.6343
-3.57323
-3.49626
-3.40151
-3.29085
-3.17007
-3.05852
-2.96681
-2.89858
-2.86355
-2.86355
-2.89859
-2.96681
-3.05852
-3.17007
-3.29086
-3.40152
-3.49627
-3.57324
-3.63431
-3.68207
-3.71874
-3.74605
-3.76537
-3.77767
-3.7836
-3.87429
-3.86934
-3.85895
-3.84242
-3.81864
-3.78596
-3.74214
-3.68398
-3.60669
-3.50445
-3.37412
-3.22348
-3.0836
-2.98278
-3.02814
-3.0854
-3.08539
-3.02814
-2.98279
-3.08361
-3.22349
-3.37412
-3.50446
-3.6067
-3.68399
-3.74215
-3.78597
-3.81865
-3.84243
-3.85896
-3.86935
-3.8743
-3.97685
-3.97357
-3.96656
-3.95525
-3.9386
-3.91506
-3.88247
-3.83764
-3.77362
-3.6715
-3.51615
-3.58807
-5.12112
-6.86366
-8.05972
-8.50798
-8.50797
-8.05969
-6.86359
-5.12105
-3.58804
-3.51614
-3.67151
-3.77363
-3.83765
-3.88248
-3.91507
-3.93861
-3.95525
-3.96657
-3.97357
-3.97685
-4.09034
-4.0895
-4.08755
-4.08426
-4.07916
-4.0714
-4.06051
-4.04674
-4.01544
-3.91079
-4.15171
-8.39002
-11.0732
-11.5054
-11.4251
-11.3911
-11.3911
-11.4251
-11.5054
-11.0731
-8.3898
-4.15162
-3.91081
-4.01545
-4.04675
-4.06051
-4.0714
-4.07917
-4.08427
-4.08755
-4.0895
-4.09034
-4.2125
-4.21485
-4.21961
-4.22725
-4.23828
-4.25364
-4.27785
-4.31763
-4.33606
-4.41576
-8.84031
-11.8694
-11.6733
-11.5397
-11.452
-11.4106
-11.4106
-11.452
-11.5397
-11.6733
-11.8694
-8.83995
-4.4157
-4.33607
-4.31763
-4.27785
-4.25364
-4.23829
-4.22725
-4.21961
-4.21485
-4.2125
-4.33973
-4.34579
-4.35848
-4.37924
-4.41016
-4.45542
-4.52725
-4.62946
-4.69213
-7.08679
-12.2083
-12.0669
-11.8255
-11.6383
-11.5213
-11.4657
-11.4657
-11.5213
-11.6383
-11.8255
-12.067
-12.2082
-7.08646
-4.69214
-4.62946
-4.52724
-4.45541
-4.41016
-4.37924
-4.35848
-4.34579
-4.33973
-4.46744
-4.47727
-4.49808
-4.5325
-4.58455
-4.66336
-4.78827
-4.95395
-5.34995
-10.2965
-12.547
-12.2883
-11.9996
-11.7481
-11.5974
-11.5258
-11.5258
-11.5974
-11.7482
-11.9997
-12.2883
-12.547
-10.2961
-5.34986
-4.95394
-4.78826
-4.66335
-4.58454
-4.5325
-4.49808
-4.47726
-4.46744
-4.59036
-4.60343
-4.63126
-4.67736
-4.74766
-4.85569
-5.02178
-5.23829
-6.1606
-11.4608
-12.7417
-12.4397
-12.0831
-11.8447
-11.6583
-11.5709
-11.5709
-11.6583
-11.8447
-12.0832
-12.4398
-12.7418
-11.4605
-6.16038
-5.23827
-5.02176
-4.85568
-4.74765
-4.67735
-4.63125
-4.60343
-4.59036
-4.70339
-4.71862
-4.75105
-4.80461
-4.88613
-5.00915
-5.19021
-5.42379
-6.30503
-11.1125
-12.5358
-9.28729
-11.1474
-11.8762
-11.6626
-11.5635
-11.5635
-11.6626
-11.8762
-11.1471
-9.2873
-12.5358
-11.1121
-6.30477
-5.42376
-5.19019
-5.00913
-4.88612
-4.8046
-4.75104
-4.71861
-4.70338
-4.80263
-4.81858
-4.85244
-4.90777
-4.99049
-5.11065
-5.27904
-5.49315
-5.9737
-9.26434
-10.405
-5.72033
-10.3907
-11.7598
-11.5617
-11.4617
-11.4617
-11.5617
-11.7598
-10.3902
-5.72034
-10.405
-9.26397
-5.97351
-5.49312
-5.27901
-5.11063
-4.99047
-4.90776
-4.85243
-4.81858
-4.80262
-4.88608
-4.90139
-4.9336
-4.98521
-5.05994
-5.16382
-5.30133
-5.46919
-5.63532
-7.08244
-6.39103
-5.68842
-10.0106
-11.4873
-11.3451
-11.2515
-11.2515
-11.345
-11.4872
-10.0102
-5.68842
-6.39098
-7.08222
-5.63526
-5.46916
-5.30131
-5.1638
-5.05992
-4.9852
-4.93359
-4.90138
-4.88607
-4.95378
-4.96751
-4.99589
-5.04014
-5.10172
-5.18343
-5.28495
-5.40205
-5.51076
-5.89476
-5.60152
-5.59334
-10.1775
-11.1348
-11.0282
-10.9704
-10.9704
-11.0282
-11.1348
-10.1774
-5.59334
-5.60151
-5.89469
-5.51074
-5.40203
-5.28493
-5.18341
-5.1017
-5.04013
-4.99588
-4.96749
-4.95377
-5.00758
-5.01904
-5.04241
-5.07776
-5.1253
-5.1849
-5.25431
-5.32915
-5.39647
-5.49093
-5.46254
-5.60543
-10.4518
-10.7507
-10.6827
-10.6526
-10.6526
-10.6827
-10.7507
-10.4517
-5.60527
-5.46253
-5.49091
-5.39645
-5.32913
-5.25429
-5.18488
-5.12528
-5.07775
-5.0424
-5.01903
-5.00757
-5.04959
-5.05864
-5.07682
-5.10371
-5.13844
-5.17943
-5.22355
-5.26681
-5.30286
-5.33179
-5.344
-7.44302
-10.3224
-10.3508
-10.3163
-10.303
-10.303
-10.3163
-10.3508
-10.3223
-7.4426
-5.34399
-5.33177
-5.30284
-5.26679
-5.22353
-5.17941
-5.13842
-5.1037
-5.0768
-5.05863
-5.04958
-5.0821
-5.08908
-5.10283
-5.12269
-5.14721
-5.17412
-5.20005
-5.22142
-5.23605
-5.24712
-5.25237
-8.86702
-9.95112
-9.96114
-9.94918
-9.94428
-9.94428
-9.94918
-9.96113
-9.95111
-8.86693
-5.25236
-5.24711
-5.23603
-5.22141
-5.20004
-5.17411
-5.1472
-5.12268
-5.10282
-5.08907
-5.08209
-5.10771
-5.11305
-5.12348
-5.13815
-5.15544
-5.173
-5.18763
-5.1963
-5.19824
-5.19844
-5.19102
-8.97808
-9.58352
-9.60236
-9.59764
-9.59506
-9.59506
-9.59764
-9.60235
-9.58351
-8.97807
-5.19101
-5.19844
-5.19823
-5.19629
-5.18762
-5.17299
-5.15543
-5.13814
-5.12347
-5.11304
-5.1077
-5.12815
-5.13241
-5.14063
-5.152
-5.16505
-5.17772
-5.18741
-5.19169
-5.19
-5.18811
-5.19621
-8.94719
-9.25261
-9.2617
-9.2577
-9.25435
-9.25435
-9.2577
-9.26169
-9.2526
-8.94717
-5.19618
-5.18809
-5.18999
-5.19168
-5.1874
-5.17771
-5.16504
-5.15199
-5.14062
-5.1324
-5.12815
-5.14462
-5.14823
-5.15522
-5.16496
-5.17635
-5.18789
-5.19793
-5.20498
-5.20786
-5.21744
-6.50875
-8.89637
-8.93123
-8.92928
-8.92475
-8.92066
-8.92066
-8.92475
-8.92928
-8.93122
-8.89636
-6.50864
-5.21743
-5.20785
-5.20497
-5.19793
-5.18788
-5.17634
-5.16495
-5.15521
-5.14822
-5.14461
-5.15768
-5.16098
-5.16746
-5.17679
-5.18833
-5.20131
-5.21511
-5.22918
-5.24267
-5.26106
-7.54568
-8.63489
-8.61685
-8.60617
-8.59753
-8.59195
-8.59195
-8.59753
-8.60617
-8.61685
-8.63489
-7.54566
-5.26105
-5.24266
-5.22917
-5.21511
-5.2013
-5.18833
-5.17678
-5.16746
-5.16097
-5.15767
-5.16755
-5.17073
-5.17712
-5.18662
-5.1991
-5.2145
-5.2328
-5.25449
-5.2791
-5.30362
-7.36952
-8.33513
-8.31137
-8.28884
-8.27215
-8.2638
-8.2638
-8.27215
-8.28884
-8.31136
-8.33512
-7.36953
-5.30362
-5.27909
-5.25448
-5.2328
-5.2145
-5.19909
-5.18661
-5.17711
-5.17073
-5.16754
-5.17432
-5.17747
-5.18387
-5.19362
-5.20688
-5.22405
-5.24573
-5.27294
-5.3044
-5.33409
-6.79444
-8.0521
-8.00877
-7.97054
-7.94492
-7.93343
-7.93343
-7.94492
-7.97054
-8.00876
-8.0521
-6.79445
-5.33408
-5.3044
-5.27294
-5.24573
-5.22404
-5.20688
-5.19361
-5.18387
-5.17746
-5.17431
-5.178
-5.1811
-5.18746
-5.19724
-5.21073
-5.22848
-5.25127
-5.28005
-5.31376
-5.34686
-6.55742
-7.73603
-7.69391
-7.64608
-7.61352
-7.59904
-7.59904
-7.61352
-7.64608
-7.69391
-7.73603
-6.55742
-5.34686
-5.31375
-5.28005
-5.25127
-5.22848
-5.21073
-5.19723
-5.18745
-5.1811
-5.178
-5.1786
-5.18158
-5.1877
-5.19713
-5.21014
-5.22716
-5.24873
-5.27532
-5.3059
-5.33712
-6.31187
-7.34463
-7.35806
-7.31001
-7.27458
-7.25822
-7.25822
-7.27458
-7.31001
-7.35806
-7.34464
-6.31189
-5.33712
-5.3059
-5.27532
-5.24873
-5.22716
-5.21014
-5.19713
-5.18769
-5.18158
-5.1786
-5.17625
-5.17902
-5.1847
-5.19342
-5.20533
-5.22061
-5.23932
-5.26116
-5.28484
-5.30874
-5.75595
-6.82531
-7.01425
-6.96513
-6.92816
-6.91061
-6.91061
-6.92816
-6.96513
-7.01425
-6.82534
-5.756
-5.30874
-5.28485
-5.26116
-5.23932
-5.22061
-5.20533
-5.19342
-5.1847
-5.17902
-5.17624
-5.17118
-5.17369
-5.17882
-5.18662
-5.19714
-5.21031
-5.22584
-5.24289
-5.25967
-5.27498
-5.37233
-6.33333
-6.67233
-6.61476
-6.57554
-6.55676
-6.55676
-6.57554
-6.61477
-6.67233
-6.33337
-5.37236
-5.27499
-5.25967
-5.24289
-5.22584
-5.21031
-5.19714
-5.18662
-5.17881
-5.17369
-5.17117
-5.16371
-5.16594
-5.17048
-5.17734
-5.1865
-5.19779
-5.21076
-5.22438
-5.23648
-5.24479
-5.26026
-5.97681
-6.32251
-6.25862
-6.21717
-6.19717
-6.19717
-6.21717
-6.25863
-6.32252
-5.97686
-5.26029
-5.2448
-5.23648
-5.22438
-5.21076
-5.19779
-5.1865
-5.17734
-5.17048
-5.16594
-5.16371
-5.15421
-5.15616
-5.16011
-5.16608
-5.17402
-5.18372
-5.1947
-5.2058
-5.21481
-5.2191
-5.21729
-5.70145
-5.96678
-5.89724
-5.8539
-5.83289
-5.83289
-5.8539
-5.89724
-5.96677
-5.70147
-5.21729
-5.2191
-5.21481
-5.2058
-5.1947
-5.18372
-5.17402
-5.16608
-5.16011
-5.15616
-5.15421
-5.14303
-5.1447
-5.1481
-5.15322
-5.16001
-5.16826
-5.17746
-5.18649
-5.19352
-5.19703
-5.19673
-5.47534
-5.61296
-5.5345
-5.48773
-5.46528
-5.46528
-5.48773
-5.5345
-5.61295
-5.47534
-5.19671
-5.19702
-5.19351
-5.18648
-5.17746
-5.16826
-5.16001
-5.15322
-5.1481
-5.1447
-5.14302
-5.1305
-5.13192
-5.1348
-5.13913
-5.14484
-5.15173
-5.15929
-5.1666
-5.17239
-5.17624
-5.17761
-5.26978
-5.25812
-5.17005
-5.11947
-5.09537
-5.09537
-5.11947
-5.17005
-5.25811
-5.26978
-5.1776
-5.17623
-5.17238
-5.1666
-5.15929
-5.15172
-5.14484
-5.13913
-5.13479
-5.13191
-5.13049
-5.11697
-5.11816
-5.12057
-5.12419
-5.12893
-5.13458
-5.14068
-5.14642
-5.15091
-5.15447
-5.15688
-5.05086
-4.89738
-4.80247
-4.74936
-4.72417
-4.72417
-4.74936
-4.80247
-4.89737
-5.05085
-5.15687
-5.15446
-5.1509
-5.14641
-5.14067
-5.13458
-5.12892
-5.12418
-5.12057
-5.11816
-5.11697
-5.10277
-5.10376
-5.10577
-5.10878
-5.11268
-5.11725
-5.122
-5.12607
-5.12843
-5.12855
-5.11322
-4.76306
-4.52998
-4.43294
-4.37899
-4.3534
-4.3534
-4.37898
-4.43293
-4.52997
-4.76305
-5.11321
-5.12854
-5.12843
-5.12606
-5.122
-5.11725
-5.11268
-5.10877
-5.10577
-5.10376
-5.10276
-5.08818
-5.08902
-5.09072
-5.09323
-5.09646
-5.10014
-5.10372
-5.1062
-5.10618
-5.1015
-5.02793
-4.42102
-4.15908
-4.06397
-4.01089
-3.98553
-3.98553
-4.01089
-4.06396
-4.15907
-4.421
-5.02791
-5.10149
-5.10617
-5.1062
-5.10371
-5.10014
-5.09646
-5.09323
-5.09071
-5.08902
-5.08818
-5.07347
-5.0742
-5.07567
-5.07782
-5.08056
-5.08359
-5.08631
-5.0877
-5.08625
-5.07906
-4.89101
-4.03202
-3.78974
-3.69886
-3.64806
-3.62361
-3.62361
-3.64806
-3.69886
-3.78974
-4.032
-4.89099
-5.07906
-5.08624
-5.08769
-5.0863
-5.08358
-5.08056
-5.07782
-5.07566
-5.0742
-5.07347
-5.05887
-5.05953
-5.06085
-5.06278
-5.06519
-5.06778
-5.06995
-5.07078
-5.06914
-5.06246
-4.63619
-3.6094
-3.42514
-3.34142
-3.29396
-3.27101
-3.27101
-3.29396
-3.34141
-3.42513
-3.60938
-4.63616
-5.06246
-5.06913
-5.07078
-5.06995
-5.06778
-5.06518
-5.06277
-5.06085
-5.05953
-5.05887
-5.04458
-5.04521
-5.04645
-5.04826
-5.05047
-5.05277
-5.05454
-5.05497
-5.05349
-5.0484
-4.19933
-3.19891
-3.06858
-2.99473
-2.95198
-2.93122
-2.93122
-2.95198
-2.99473
-3.06858
-3.1989
-4.1993
-5.04839
-5.05348
-5.05497
-5.05454
-5.05277
-5.05047
-5.04825
-5.04645
-5.0452
-5.04458
-5.03079
-5.03142
-5.03266
-5.03442
-5.03653
-5.03859
-5.03995
-5.03968
-5.03604
-5.02432
-3.55829
-2.83205
-2.72428
-2.662
-2.62539
-2.60765
-2.60765
-2.62538
-2.66199
-2.72428
-2.83205
-3.55824
-5.02432
-5.03603
-5.03968
-5.03995
-5.03859
-5.03653
-5.03442
-5.03266
-5.03142
-5.03078
-5.01769
-5.01836
-5.01965
-5.02145
-5.02353
-5.02545
-5.0265
-5.0259
-5.02137
-4.64587
-2.84208
-2.4845
-2.39647
-2.34731
-2.31822
-2.30426
-2.30426
-2.31822
-2.34731
-2.39647
-2.48449
-2.84206
-4.64583
-5.02137
-5.0259
-5.0265
-5.02544
-5.02353
-5.02145
-5.01965
-5.01836
-5.01769
-5.00551
-5.00624
-5.00762
-5.00951
-5.01161
-5.0134
-5.01412
-5.01285
-5.0091
-3.72386
-2.26266
-2.15071
-2.08987
-2.05536
-2.03479
-2.02503
-2.02503
-2.03479
-2.05535
-2.08987
-2.15071
-2.26265
-3.72382
-5.0091
-5.01284
-5.01412
-5.0134
-5.01161
-5.00951
-5.00762
-5.00624
-5.00551
-4.99447
-4.99528
-4.9968
-4.99883
-5.00094
-5.00259
-5.00248
-4.99792
-4.74406
-2.47495
-1.90484
-1.84559
-1.81055
-1.79041
-1.77847
-1.77288
-1.77288
-1.77847
-1.79041
-1.81055
-1.84559
-1.90484
-2.47491
-4.74403
-4.99792
-5.00247
-5.00259
-5.00094
-4.99883
-4.9968
-4.99528
-4.99447
-4.98487
-4.98577
-4.98746
-4.98972
-4.992
-4.99383
-4.99352
-4.98821
-3.20033
-1.64141
-1.60171
-1.57553
-1.56256
-1.55541
-1.55141
-1.54962
-1.54962
-1.55141
-1.55541
-1.56256
-1.57553
-1.6017
-1.6414
-3.20028
-4.9882
-4.99351
-4.99382
-4.992
-4.98971
-4.98745
-4.98576
-4.98486
-4.977
-4.97799
-4.97992
-4.98268
-4.98532
-4.9879
-4.9895
-3.81129
-1.47982
-1.34975
-1.3449
-1.34515
-1.34849
-1.35184
-1.35434
-1.35565
-1.35565
-1.35434
-1.35184
-1.34849
-1.34514
-1.3449
-1.34975
-1.47981
-3.81126
-4.9895
-4.98789
-4.98532
-4.98268
-4.97992
-4.97799
-4.977
-4.97141
-4.97241
-4.97464
-4.9787
-4.98111
-4.98502
-3.6975
-1.21573
-1.089
-1.11522
-1.13542
-1.15353
-1.16824
-1.17922
-1.18648
-1.19007
-1.19007
-1.18648
-1.17922
-1.16824
-1.15353
-1.13542
-1.11522
-1.089
-1.21572
-3.69747
-4.98502
-4.98111
-4.9787
-4.97464
-4.97241
-4.97141
-4.96849
-4.96931
-4.97073
-4.9698
-4.43629
-2.62195
-0.864226
-0.831499
-0.89093
-0.934581
-0.969864
-0.998005
-1.01968
-1.03548
-1.04578
-1.05086
-1.05086
-1.04578
-1.03548
-1.01968
-0.998004
-0.969862
-0.934579
-0.890928
-0.831497
-0.86422
-2.62195
-4.43629
-4.9698
-4.97072
-4.96931
-4.96849
-3.65852
-3.49159
-2.99758
-2.01999
-1.02226
-0.551012
-0.611185
-0.687603
-0.750479
-0.801093
-0.841853
-0.874278
-0.899291
-0.917518
-0.929416
-0.935279
-0.935279
-0.929416
-0.917517
-0.89929
-0.874277
-0.841851
-0.801091
-0.750477
-0.687601
-0.611182
-0.551009
-1.02226
-2.02001
-2.99761
-3.49162
-3.65855
-0.423458
-0.38338
-0.317847
-0.323959
-0.385906
-0.455048
-0.527727
-0.594965
-0.653696
-0.703248
-0.744156
-0.777179
-0.8029
-0.821772
-0.834149
-0.840264
-0.840264
-0.834148
-0.821771
-0.802899
-0.777178
-0.744154
-0.703247
-0.653694
-0.594962
-0.527724
-0.455045
-0.385902
-0.323955
-0.317847
-0.383384
-0.423464
-0.228149
-0.242388
-0.270152
-0.310024
-0.360824
-0.418756
-0.4782
-0.535027
-0.586771
-0.631958
-0.670201
-0.701594
-0.726336
-0.744647
-0.756726
-0.762716
-0.762716
-0.756726
-0.744646
-0.726335
-0.701592
-0.6702
-0.631956
-0.586769
-0.535025
-0.478197
-0.418753
-0.36082
-0.31002
-0.270147
-0.242383
-0.228144
-0.246575
-0.258045
-0.280544
-0.313101
-0.354001
-0.400179
-0.448474
-0.495985
-0.540347
-0.580068
-0.614381
-0.642983
-0.665789
-0.682813
-0.694111
-0.699734
-0.699734
-0.69411
-0.682813
-0.665788
-0.642982
-0.614379
-0.580066
-0.540345
-0.495983
-0.448471
-0.400176
-0.353997
-0.313097
-0.28054
-0.258041
-0.246571
-0.268202
-0.277506
-0.295707
-0.321911
-0.354614
-0.391801
-0.431238
-0.470602
-0.508054
-0.542222
-0.572229
-0.597573
-0.617993
-0.633359
-0.643612
-0.648733
-0.648733
-0.643612
-0.633358
-0.617993
-0.597572
-0.572227
-0.54222
-0.508052
-0.4706
-0.431235
-0.391798
-0.354611
-0.321908
-0.295703
-0.277502
-0.268198
-0.289895
-0.297394
-0.312037
-0.333105
-0.359439
-0.38955
-0.421723
-0.454259
-0.485532
-0.514508
-0.540302
-0.562336
-0.580252
-0.593828
-0.602932
-0.607493
-0.607493
-0.602932
-0.593827
-0.580251
-0.562335
-0.5403
-0.514506
-0.48553
-0.454257
-0.421721
-0.389548
-0.359436
-0.333101
-0.312033
-0.29739
-0.289892
-0.310175
-0.316218
-0.328016
-0.345003
-0.366274
-0.390679
-0.41692
-0.443692
-0.46972
-0.494086
-0.516007
-0.53491
-0.550399
-0.562207
-0.57016
-0.574155
-0.574155
-0.570159
-0.562206
-0.550398
-0.534909
-0.516006
-0.494084
-0.469718
-0.44369
-0.416918
-0.390677
-0.366271
-0.345
-0.328013
-0.316215
-0.310172
-0.328402
-0.33328
-0.342804
-0.356526
-0.373737
-0.393551
-0.414968
-0.43697
-0.458553
-0.478928
-0.497412
-0.513475
-0.526722
-0.536872
-0.543734
-0.547189
-0.547189
-0.543733
-0.536871
-0.526721
-0.513474
-0.497411
-0.478926
-0.458551
-0.436968
-0.414966
-0.393549
-0.373735
-0.356523
-0.342801
-0.333277
-0.328399
-0.344377
-0.348323
-0.356025
-0.36713
-0.381085
-0.397198
-0.414692
-0.432766
-0.450621
-0.467591
-0.48309
-0.496643
-0.507881
-0.516529
-0.522394
-0.525352
-0.525352
-0.522393
-0.516529
-0.507881
-0.496643
-0.483089
-0.467589
-0.450619
-0.432764
-0.41469
-0.397196
-0.381082
-0.367128
-0.356022
-0.348321
-0.344375
-0.358149
-0.361346
-0.367587
-0.376593
-0.387928
-0.401052
-0.415355
-0.430199
-0.444948
-0.459042
-0.471986
-0.483363
-0.492837
-0.500155
-0.50513
-0.507644
-0.507644
-0.50513
-0.500154
-0.492837
-0.483362
-0.471985
-0.459041
-0.444946
-0.430198
-0.415353
-0.40105
-0.387926
-0.376591
-0.367585
-0.361344
-0.358147
-0.369886
-0.372481
-0.377548
-0.384865
-0.394089
-0.404794
-0.416497
-0.42869
-0.44086
-0.452543
-0.46332
-0.472832
-0.480782
-0.486941
-0.491137
-0.493261
-0.493261
-0.491137
-0.48694
-0.480782
-0.472831
-0.463319
-0.452542
-0.440859
-0.428689
-0.416496
-0.404792
-0.394088
-0.384863
-0.377546
-0.372479
-0.369884
-0.379808
-0.381917
-0.386038
-0.391994
-0.399513
-0.408255
-0.417839
-0.427856
-0.437892
-0.447561
-0.456514
-0.464442
-0.471089
-0.47625
-0.479774
-0.481559
-0.481559
-0.479774
-0.47625
-0.471088
-0.464441
-0.456513
-0.44756
-0.437891
-0.427855
-0.417838
-0.408254
-0.399511
-0.391992
-0.386036
-0.381915
-0.379806
-0.388143
-0.389862
-0.393219
-0.398075
-0.404212
-0.411361
-0.419215
-0.427446
-0.435718
-0.443712
-0.451136
-0.457729
-0.46327
-0.467581
-0.470529
-0.472024
-0.472024
-0.470529
-0.467581
-0.463269
-0.457728
-0.451135
-0.443711
-0.435717
-0.427445
-0.419214
-0.41136
-0.404211
-0.398073
-0.393217
-0.389861
-0.388142
-0.395117
-0.396518
-0.399257
-0.403222
-0.408238
-0.41409
-0.420531
-0.427296
-0.434112
-0.440716
-0.446863
-0.452335
-0.456944
-0.460535
-0.462994
-0.464243
-0.464243
-0.462994
-0.460535
-0.456943
-0.452335
-0.446863
-0.440715
-0.434111
-0.427295
-0.42053
-0.414089
-0.408237
-0.40322
-0.399256
-0.396517
-0.395116
-0.40093
-0.402075
-0.404312
-0.407553
-0.411658
-0.416453
-0.421738
-0.4273
-0.432914
-0.438366
-0.443451
-0.447986
-0.451812
-0.454798
-0.456845
-0.457884
-0.457884
-0.456845
-0.454798
-0.451812
-0.447986
-0.443451
-0.438365
-0.432914
-0.427299
-0.421737
-0.416452
-0.411657
-0.407552
-0.404311
-0.402074
-0.400929
-0.405764
-0.4067
-0.40853
-0.411182
-0.414544
-0.418476
-0.422816
-0.427389
-0.432013
-0.436512
-0.440715
-0.444469
-0.44764
-0.450119
-0.451818
-0.452682
-0.452682
-0.451818
-0.450118
-0.44764
-0.444469
-0.440714
-0.436511
-0.432013
-0.427388
-0.422815
-0.418475
-0.414544
-0.411182
-0.408529
-0.406699
-0.405763
-0.409775
-0.410541
-0.41204
-0.414213
-0.416969
-0.420195
-0.423759
-0.42752
-0.431329
-0.435039
-0.438511
-0.441616
-0.444242
-0.446295
-0.447705
-0.448422
-0.448422
-0.447705
-0.446295
-0.444241
-0.441615
-0.438511
-0.435039
-0.431329
-0.42752
-0.423759
-0.420194
-0.416968
-0.414212
-0.412039
-0.410541
-0.409774
-0.413099
-0.413726
-0.414955
-0.416736
-0.418997
-0.421645
-0.424574
-0.427668
-0.430805
-0.433864
-0.43673
-0.439296
-0.441468
-0.443168
-0.444336
-0.44493
-0.44493
-0.444336
-0.443168
-0.441468
-0.439296
-0.43673
-0.433864
-0.430805
-0.427668
-0.424574
-0.421645
-0.418996
-0.416735
-0.414954
-0.413726
-0.413098
-0.415849
-0.416364
-0.417371
-0.418832
-0.420688
-0.422863
-0.425271
-0.427817
-0.4304
-0.432922
-0.435286
-0.437405
-0.439201
-0.440607
-0.441573
-0.442065
-0.442065
-0.441573
-0.440607
-0.439201
-0.437405
-0.435286
-0.432922
-0.4304
-0.427816
-0.425271
-0.422863
-0.420688
-0.418832
-0.41737
-0.416364
-0.415848
-0.418122
-0.418545
-0.419371
-0.420571
-0.422095
-0.423883
-0.425863
-0.427957
-0.430085
-0.432163
-0.434113
-0.435862
-0.437345
-0.438507
-0.439306
-0.439713
-0.439713
-0.439306
-0.438507
-0.437345
-0.435862
-0.434113
-0.432163
-0.430084
-0.427957
-0.425862
-0.423883
-0.422095
-0.420571
-0.419371
-0.418544
-0.418122
-0.42
-0.420347
-0.421026
-0.422011
-0.423264
-0.424733
-0.426361
-0.428085
-0.429837
-0.43155
-0.433158
-0.434601
-0.435825
-0.436785
-0.437445
-0.437781
-0.437781
-0.437445
-0.436785
-0.435825
-0.434601
-0.433158
-0.43155
-0.429837
-0.428085
-0.426361
-0.424733
-0.423263
-0.422011
-0.421026
-0.420347
-0.42
-0.421551
-0.421836
-0.422393
-0.423203
-0.424232
-0.42544
-0.42678
-0.428198
-0.429641
-0.431052
-0.432378
-0.433569
-0.434579
-0.435371
-0.435916
-0.436194
-0.436194
-0.435916
-0.435371
-0.434579
-0.433569
-0.432378
-0.431052
-0.429641
-0.428198
-0.42678
-0.42544
-0.424232
-0.423203
-0.422393
-0.421835
-0.421551
-0.422829
-0.423064
-0.423522
-0.424188
-0.425034
-0.426027
-0.42713
-0.428297
-0.429485
-0.430648
-0.431741
-0.432722
-0.433556
-0.43421
-0.434659
-0.434888
-0.434888
-0.434659
-0.43421