/*--------------------------------*- C++ -*----------------------------------*\
  =========                 |
  \\      /  F ield         | OpenFOAM: The Open Source CFD Toolbox
   \\    /   O peration     | Website:  https://openfoam.org
    \\  /    A nd           | Version:  9
     \\/     M anipulation  |
\*---------------------------------------------------------------------------*/
FoamFile
{
    format      ascii;
    class       surfaceScalarField;
    location    "0.7";
    object      phi;
}
// * * * * * * * * * * * * * * * * * * * * * * * * * * * * * * * * * * * * * //

dimensions      [0 3 -1 0 0 0 0];

internalField   nonuniform List<scalar> 
8032
(
-1.41727e-06
1.41723e-06
-2.79122e-06
1.3808e-06
-4.07068e-06
1.27946e-06
-5.19642e-06
1.12573e-06
-6.12334e-06
9.26902e-07
-6.81476e-06
6.91425e-07
-7.24357e-06
4.28829e-07
-7.39293e-06
1.49381e-07
-7.25686e-06
-1.36031e-07
-6.84044e-06
-4.16386e-07
-6.15958e-06
-6.80815e-07
-5.24049e-06
-9.19046e-07
-4.11863e-06
-1.12182e-06
-2.83733e-06
-1.28125e-06
-1.44616e-06
-1.39112e-06
1.02979e-09
-1.44714e-06
1.44822e-06
-1.44714e-06
2.83938e-06
-1.39111e-06
4.12067e-06
-1.28123e-06
5.24252e-06
-1.1218e-06
6.16158e-06
-9.19013e-07
6.84241e-06
-6.80773e-07
7.25881e-06
-4.16337e-07
7.39484e-06
-1.35975e-07
7.24545e-06
1.4944e-07
6.81663e-06
4.28882e-07
6.12523e-06
6.91454e-07
5.19843e-06
9.26848e-07
4.07296e-06
1.12553e-06
2.79428e-06
1.27873e-06
1.41608e-06
1.37826e-06
1.4161e-06
-1.48706e-06
2.90437e-06
-2.93373e-06
2.82751e-06
-4.27698e-06
2.62272e-06
-5.45934e-06
2.30809e-06
-6.43296e-06
1.90053e-06
-7.15934e-06
1.41781e-06
-7.6099e-06
8.79412e-07
-7.76691e-06
3.06429e-07
-7.62407e-06
-2.78841e-07
-7.18668e-06
-8.53734e-07
-6.47146e-06
-1.39598e-06
-5.50593e-06
-1.88453e-06
-4.32732e-06
-2.30038e-06
-2.98117e-06
-2.62734e-06
-1.51956e-06
-2.85267e-06
9.23046e-10
-2.96757e-06
1.52141e-06
-2.96757e-06
2.983e-06
-2.85265e-06
4.32914e-06
-2.6273e-06
5.50772e-06
-2.30033e-06
6.47323e-06
-1.88446e-06
7.18841e-06
-1.39589e-06
7.62575e-06
-8.53626e-07
7.76856e-06
-2.78719e-07
7.61149e-06
3.0656e-07
7.1609e-06
8.7954e-07
6.43449e-06
1.41791e-06
5.46085e-06
1.90055e-06
4.27849e-06
2.30794e-06
2.93506e-06
2.62221e-06
1.48705e-06
2.82632e-06
2.90318e-06
-1.60432e-06
4.50876e-06
-3.16616e-06
4.38942e-06
-4.61546e-06
4.07206e-06
-5.89121e-06
3.58387e-06
-6.94188e-06
2.95123e-06
-7.72585e-06
2.20181e-06
-8.21227e-06
1.36587e-06
-8.38197e-06
4.76166e-07
-8.22807e-06
-4.32693e-07
-7.75628e-06
-1.32549e-06
-6.98459e-06
-2.16762e-06
-5.94268e-06
-2.9264e-06
-4.67071e-06
-3.5723e-06
-3.21784e-06
-4.08016e-06
-1.6403e-06
-4.43016e-06
8.18879e-10
-4.60864e-06
1.64194e-06
-4.60863e-06
3.21947e-06
-4.43012e-06
4.67231e-06
-4.08009e-06
5.94425e-06
-3.57221e-06
6.98613e-06
-2.92628e-06
7.75777e-06
-2.16747e-06
8.22951e-06
-1.32531e-06
8.38335e-06
-4.32495e-07
8.21359e-06
4.7638e-07
7.72711e-06
1.36608e-06
6.94307e-06
2.20201e-06
5.89232e-06
2.95136e-06
4.61645e-06
3.58386e-06
3.16691e-06
4.0718e-06
1.60459e-06
4.38871e-06
4.50779e-06
-1.7784e-06
6.28724e-06
-3.50984e-06
6.12093e-06
-5.1165e-06
5.67877e-06
-6.53083e-06
4.99825e-06
-7.69579e-06
4.11623e-06
-8.56522e-06
3.07129e-06
-9.10489e-06
1.90558e-06
-9.29348e-06
6.64802e-07
-9.1233e-06
-6.02819e-07
-8.60059e-06
-1.84815e-06
-7.74526e-06
-3.0229e-06
-6.59015e-06
-4.08145e-06
-5.1798e-06
-4.9826e-06
-3.56871e-06
-5.69119e-06
-1.81926e-06
-6.17955e-06
7.53832e-10
-6.42859e-06
1.82076e-06
-6.42857e-06
3.5702e-06
-6.17949e-06
5.18126e-06
-5.69109e-06
6.59158e-06
-4.98246e-06
7.74665e-06
-4.08128e-06
8.60193e-06
-3.02269e-06
9.12458e-06
-1.8479e-06
9.29469e-06
-6.02541e-07
9.10602e-06
6.65104e-07
8.56628e-06
1.90589e-06
7.69676e-06
3.07158e-06
6.53171e-06
4.11648e-06
5.11724e-06
4.99838e-06
3.51041e-06
5.6787e-06
1.77866e-06
6.1205e-06
6.28649e-06
-2.01799e-06
8.3053e-06
-3.98281e-06
8.08582e-06
-5.8061e-06
7.50212e-06
-7.41131e-06
6.60352e-06
-8.73373e-06
5.43871e-06
-9.72095e-06
4.05857e-06
-1.03341e-05
2.51875e-06
-1.05488e-05
8.79593e-07
-1.03563e-05
-7.95238e-07
-9.76361e-06
-2.44082e-06
-8.79315e-06
-3.99331e-06
-7.48217e-06
-5.39238e-06
-5.88119e-06
-6.58351e-06
-4.05212e-06
-7.5202e-06
-2.0658e-06
-8.16581e-06
7.18908e-10
-8.49505e-06
2.06723e-06
-8.49502e-06
4.05353e-06
-8.16573e-06
5.88258e-06
-7.52008e-06
7.48352e-06
-6.58334e-06
8.79445e-06
-5.39216e-06
9.76486e-06
-3.99304e-06
1.03575e-05
-2.4405e-06
1.05499e-05
-7.94879e-07
1.03351e-05
8.79983e-07
9.7219e-06
2.51916e-06
8.73458e-06
4.05897e-06
7.41206e-06
5.43906e-06
5.80672e-06
6.60378e-06
3.98327e-06
7.5022e-06
2.01824e-06
8.08561e-06
8.30476e-06
-2.33313e-06
1.06385e-05
-4.60491e-06
1.03577e-05
-6.71322e-06
9.61049e-06
-8.56963e-06
8.46001e-06
-1.00993e-05
6.96848e-06
-1.12417e-05
5.20102e-06
-1.19517e-05
3.22878e-06
-1.2201e-05
1.129e-06
-1.19794e-05
-1.01681e-06
-1.12947e-05
-3.12547e-06
-1.01728e-05
-5.11514e-06
-8.65671e-06
-6.90842e-06
-6.8048e-06
-8.43536e-06
-4.6887e-06
-9.63624e-06
-2.39045e-06
-1.0464e-05
7.05549e-10
-1.08861e-05
2.39186e-06
-1.08861e-05
4.69009e-06
-1.04639e-05
6.80616e-06
-9.63608e-06
8.65802e-06
-8.43514e-06
1.01741e-05
-6.90814e-06
1.12959e-05
-5.1148e-06
1.19805e-05
-3.12507e-06
1.22021e-05
-1.01637e-06
1.19527e-05
1.12948e-06
1.12426e-05
3.22928e-06
1.01001e-05
5.20151e-06
8.57031e-06
6.96894e-06
6.71377e-06
8.46038e-06
4.60533e-06
9.61071e-06
2.33336e-06
1.03576e-05
1.06382e-05
-2.7361e-06
1.33747e-05
-5.40038e-06
1.3022e-05
-7.87322e-06
1.20834e-05
-1.0051e-05
1.06379e-05
-1.1846e-05
8.76358e-06
-1.31871e-05
6.54218e-06
-1.40213e-05
4.06301e-06
-1.43152e-05
1.42301e-06
-1.40566e-05
-1.27538e-06
-1.32544e-05
-3.92756e-06
-1.1939e-05
-6.43055e-06
-1.01605e-05
-8.68687e-06
-7.98739e-06
-1.06084e-05
-5.50384e-06
-1.21197e-05
-2.80618e-06
-1.31616e-05
7.08742e-10
-1.3693e-05
2.80759e-06
-1.36929e-05
5.50523e-06
-1.31615e-05
7.98875e-06
-1.21195e-05
1.01618e-05
-1.06081e-05
1.19402e-05
-8.68653e-06
1.32556e-05
-6.43014e-06
1.40577e-05
-3.92709e-06
1.43163e-05
-1.27485e-06
1.40222e-05
1.42358e-06
1.3188e-05
4.0636e-06
1.18468e-05
6.54277e-06
1.00517e-05
8.76414e-06
7.87374e-06
1.06384e-05
5.40076e-06
1.20837e-05
2.73632e-06
1.30222e-05
1.33745e-05
-3.24214e-06
1.66169e-05
-6.39939e-06
1.61794e-05
-9.33016e-06
1.50142e-05
-1.19118e-05
1.32196e-05
-1.40404e-05
1.08923e-05
-1.56316e-05
8.1334e-06
-1.66222e-05
5.05374e-06
-1.69727e-05
1.77356e-06
-1.6668e-05
-1.57997e-06
-1.57187e-05
-4.87686e-06
-1.41601e-05
-7.98902e-06
-1.20519e-05
-1.07951e-05
-9.47504e-06
-1.31851e-05
-6.52933e-06
-1.50654e-05
-3.32921e-06
-1.63616e-05
7.25985e-10
-1.70228e-05
3.33065e-06
-1.70228e-05
6.53076e-06
-1.63615e-05
9.47642e-06
-1.50651e-05
1.20532e-05
-1.31848e-05
1.41614e-05
-1.07947e-05
1.57199e-05
-7.98854e-06
1.66692e-05
-4.87631e-06
1.69737e-05
-1.57936e-06
1.66232e-05
1.77422e-06
1.56324e-05
5.05442e-06
1.40412e-05
8.13409e-06
1.19124e-05
1.08929e-05
9.33067e-06
1.32202e-05
6.39977e-06
1.50147e-05
3.24235e-06
1.61796e-05
1.66169e-05
-3.87025e-06
2.04872e-05
-7.63943e-06
1.99486e-05
-1.11388e-05
1.85137e-05
-1.42221e-05
1.6303e-05
-1.67654e-05
1.34356e-05
-1.86676e-05
1.00357e-05
-1.98534e-05
6.23956e-06
-2.02748e-05
2.1951e-06
-1.99137e-05
-1.941e-06
-1.87821e-05
-6.00845e-06
-1.69219e-05
-9.84907e-06
-1.44041e-05
-1.33128e-05
-1.13254e-05
-1.62638e-05
-7.80498e-06
-1.85857e-05
-3.97986e-06
-2.01867e-05
7.55951e-10
-2.10034e-05
3.98137e-06
-2.10033e-05
7.80647e-06
-2.01865e-05
1.13268e-05
-1.85854e-05
1.44055e-05
-1.62634e-05
1.69233e-05
-1.33124e-05
1.87833e-05
-9.84851e-06
1.99149e-05
-6.00782e-06
2.02759e-05
-1.9403e-06
1.98543e-05
2.19586e-06
1.86685e-05
6.24035e-06
1.67661e-05
1.00365e-05
1.42228e-05
1.34364e-05
1.11393e-05
1.63037e-05
7.63979e-06
1.85143e-05
3.87046e-06
1.9949e-05
2.04874e-05
-4.64381e-06
2.51311e-05
-9.16676e-06
2.44716e-05
-1.33667e-05
2.27137e-05
-1.70685e-05
2.00049e-05
-2.01233e-05
1.64905e-05
-2.24099e-05
1.23223e-05
-2.38372e-05
7.66692e-06
-2.43473e-05
2.70531e-06
-2.39177e-05
-2.37052e-06
-2.25622e-05
-7.36389e-06
-2.03307e-05
-1.20804e-05
-1.7308e-05
-1.63355e-05
-1.36101e-05
-1.99616e-05
-9.38032e-06
-2.28154e-05
-4.78344e-06
-2.47835e-05
7.97852e-10
-2.57875e-05
4.78503e-06
-2.57875e-05
9.38189e-06
-2.47833e-05
1.36116e-05
-2.28151e-05
1.73095e-05
-1.99612e-05
2.03321e-05
-1.63349e-05
2.25635e-05
-1.20798e-05
2.39189e-05
-7.36317e-06
2.43484e-05
-2.36973e-06
2.38382e-05
2.70616e-06
2.24108e-05
7.66781e-06
2.01241e-05
1.23232e-05
1.70692e-05
1.64914e-05
1.33673e-05
2.00057e-05
9.16714e-06
2.27145e-05
4.64401e-06
2.44722e-05
2.51314e-05
-5.59152e-06
3.07227e-05
-1.10381e-05
2.99183e-05
-1.60969e-05
2.77726e-05
-2.05573e-05
2.44654e-05
-2.42402e-05
2.01734e-05
-2.69992e-05
1.50815e-05
-2.87243e-05
9.39207e-06
-2.93449e-05
3.32599e-06
-2.88329e-05
-2.88241e-06
-2.72041e-05
-8.9926e-06
-2.4518e-05
-1.47664e-05
-2.0876e-05
-1.99774e-05
-1.6418e-05
-2.44196e-05
-1.13167e-05
-2.79166e-05
-5.77127e-06
-3.03288e-05
8.5113e-10
-3.15596e-05
5.77296e-06
-3.15595e-05
1.13183e-05
-3.03286e-05
1.64196e-05
-2.79163e-05
2.08776e-05
-2.44191e-05
2.45195e-05
-1.99768e-05
2.72055e-05
-1.47657e-05
2.88342e-05
-8.99178e-06
2.93461e-05
-2.88152e-06
2.87254e-05
3.32695e-06
2.70002e-05
9.39307e-06
2.4241e-05
1.50825e-05
2.0558e-05
2.01744e-05
1.60974e-05
2.44664e-05
1.10384e-05
2.77735e-05
5.59174e-06
2.9919e-05
3.07232e-05
-6.74832e-06
3.74711e-05
-1.33225e-05
3.64926e-05
-1.94304e-05
3.38805e-05
-2.48181e-05
2.98532e-05
-2.92696e-05
2.4625e-05
-3.2608e-05
1.84199e-05
-3.46993e-05
1.14835e-05
-3.54575e-05
4.08426e-06
-3.48473e-05
-3.49256e-06
-3.28864e-05
-1.09534e-05
-2.96456e-05
-1.80071e-05
-2.52467e-05
-2.43761e-05
-1.98584e-05
-2.98078e-05
-1.36897e-05
-3.40852e-05
-6.98204e-06
-3.70364e-05
9.15554e-10
-3.85424e-05
6.98386e-06
-3.85424e-05
1.36915e-05
-3.70362e-05
1.98602e-05
-3.40848e-05
2.52484e-05
-2.98073e-05
2.96472e-05
-2.43755e-05
3.28879e-05
-1.80063e-05
3.48487e-05
-1.09525e-05
3.54588e-05
-3.49156e-06
3.47005e-05
4.08534e-06
3.2609e-05
1.14847e-05
2.92705e-05
1.8421e-05
2.48188e-05
2.46262e-05
1.94309e-05
2.98543e-05
1.33229e-05
3.38816e-05
6.74854e-06
3.64934e-05
3.74718e-05
-8.15665e-06
4.56278e-05
-1.6104e-05
4.444e-05
-2.349e-05
4.12666e-05
-3.00087e-05
3.6372e-05
-3.53989e-05
3.00154e-05
-3.94462e-05
2.24673e-05
-4.19877e-05
1.40251e-05
-4.29174e-05
5.01409e-06
-4.21909e-05
-4.21894e-06
-3.98279e-05
-1.33164e-05
-3.59123e-05
-2.19226e-05
-3.05905e-05
-2.96978e-05
-2.40662e-05
-3.6332e-05
-1.65928e-05
-4.15585e-05
-8.46342e-06
-4.51657e-05
9.91171e-10
-4.70068e-05
8.46539e-06
-4.70067e-05
1.65947e-05
-4.51654e-05
2.40681e-05
-4.15581e-05
3.05923e-05
-3.63314e-05
3.5914e-05
-2.96971e-05
3.98295e-05
-2.19217e-05
4.21924e-05
-1.33153e-05
4.29188e-05
-4.21782e-06
4.19889e-05
5.01529e-06
3.94473e-05
1.40263e-05
3.53999e-05
2.24686e-05
3.00095e-05
3.00167e-05
2.34906e-05
3.63733e-05
1.61044e-05
4.12678e-05
8.15689e-06
4.44411e-05
4.56287e-05
-9.86771e-06
5.54956e-05
-1.9484e-05
5.40564e-05
-2.84245e-05
5.02073e-05
-3.63202e-05
4.42678e-05
-4.28553e-05
3.65505e-05
-4.77694e-05
2.73815e-05
-5.08637e-05
1.71195e-05
-5.20079e-05
6.15832e-06
-5.11452e-05
-5.08153e-06
-4.82968e-05
-1.61647e-05
-4.3562e-05
-2.66573e-05
-3.71167e-05
-3.6143e-05
-2.9207e-05
-4.42416e-05
-2.01406e-05
-5.06249e-05
-1.02741e-05
-5.5032e-05
1.07848e-09
-5.72819e-05
1.02763e-05
-5.72818e-05
2.01427e-05
-5.50317e-05
2.92091e-05
-5.06244e-05
3.71187e-05
-4.4241e-05
4.35639e-05
-3.61422e-05
4.82985e-05
-2.66562e-05
5.11468e-05
-1.61636e-05
5.20094e-05
-5.08028e-06
5.08651e-05
6.15967e-06
4.77705e-05
1.71209e-05
4.28563e-05
2.73829e-05
3.6321e-05
3.65519e-05
2.84252e-05
4.42692e-05
1.94845e-05
5.02086e-05
9.86795e-06
5.40576e-05
5.54967e-05
-1.19433e-05
6.7439e-05
-2.35848e-05
6.5698e-05
-3.44132e-05
6.10358e-05
-4.39835e-05
5.38381e-05
-5.19135e-05
4.44806e-05
-5.78871e-05
3.33551e-05
-6.16611e-05
2.08937e-05
-6.30742e-05
7.57143e-06
-6.20536e-05
-6.10198e-06
-5.86211e-05
-1.95971e-05
-5.28938e-05
-3.23844e-05
-4.50825e-05
-4.39543e-05
-3.54848e-05
-5.38393e-05
-2.44745e-05
-6.16351e-05
-1.24866e-05
-6.70199e-05
1.17839e-09
-6.97695e-05
1.24889e-05
-6.97694e-05
2.44768e-05
-6.70195e-05
3.5487e-05
-6.16346e-05
4.50847e-05
-5.38385e-05
5.28959e-05
-4.39533e-05
5.8623e-05
-3.23833e-05
6.20554e-05
-1.95959e-05
6.30757e-05
-6.10057e-06
6.16626e-05
7.57293e-06
5.78883e-05
2.08952e-05
5.19146e-05
3.33568e-05
4.39843e-05
4.44823e-05
3.44139e-05
5.38397e-05
2.35852e-05
6.10374e-05
1.19435e-05
6.56994e-05
6.74403e-05
-1.44574e-05
8.18965e-05
-2.85531e-05
7.97938e-05
-4.16717e-05
7.41546e-05
-5.32766e-05
6.54431e-05
-6.29056e-05
5.41098e-05
-7.01743e-05
4.06239e-05
-7.47847e-05
2.55042e-05
-7.65363e-05
9.32312e-06
-7.53354e-05
-7.30279e-06
-7.12025e-05
-2.373e-05
-6.42746e-05
-3.93122e-05
-5.4804e-05
-5.34248e-05
-4.31506e-05
-6.54926e-05
-2.97689e-05
-7.50167e-05
-1.519e-05
-8.15987e-05
1.29236e-09
-8.49607e-05
1.51926e-05
-8.49606e-05
2.97714e-05
-8.15983e-05
4.3153e-05
-7.50161e-05
5.48064e-05
-6.54917e-05
6.42768e-05
-5.34237e-05
7.12045e-05
-3.93109e-05
7.53373e-05
-2.37286e-05
7.6538e-05
-7.30121e-06
7.47862e-05
9.32481e-06
7.01756e-05
2.55059e-05
6.29067e-05
4.06257e-05
5.32775e-05
5.41116e-05
4.16724e-05
6.54449e-05
2.85535e-05
7.41564e-05
1.44576e-05
7.97954e-05
8.1898e-05
-1.74986e-05
9.93951e-05
-3.45646e-05
9.68599e-05
-5.04584e-05
9.00486e-05
-6.45336e-05
7.95184e-05
-7.62313e-05
6.58076e-05
-8.50837e-05
4.94765e-05
-9.07251e-05
3.11456e-05
-9.29052e-05
1.15034e-05
-9.15022e-05
-8.70577e-06
-8.65323e-05
-2.86998e-05
-7.81546e-05
-4.76897e-05
-6.66703e-05
-6.4909e-05
-5.25139e-05
-7.96488e-05
-3.6239e-05
-9.12916e-05
-1.84948e-05
-9.93428e-05
1.42237e-09
-0.000103457
1.84976e-05
-0.000103457
3.62417e-05
-9.93423e-05
5.25166e-05
-9.12909e-05
6.66728e-05
-7.96478e-05
7.8157e-05
-6.49078e-05
8.65345e-05
-4.76883e-05
9.15042e-05
-2.86982e-05
9.29071e-05
-8.70399e-06
9.07267e-05
1.15052e-05
8.50851e-05
3.11476e-05
7.62325e-05
4.94785e-05
6.45345e-05
6.58096e-05
5.04592e-05
7.95203e-05
3.45651e-05
9.00505e-05
1.74988e-05
9.68618e-05
9.93968e-05
-2.11722e-05
0.000120567
-4.18287e-05
0.000117517
-6.1082e-05
0.000109302
-7.81544e-05
9.65908e-05
-9.23707e-05
8.0024e-05
-0.000103161
6.02672e-05
-0.000110076
3.80606e-05
-0.000112802
1.42291e-05
-0.000111178
-1.03294e-05
-0.000105213
-3.46652e-05
-9.50875e-05
-5.78147e-05
-8.11608e-05
-7.88356e-05
-6.39574e-05
-9.68521e-05
-4.41512e-05
-0.000111098
-2.25377e-05
-0.000120956
1.57112e-09
-0.000125996
2.25409e-05
-0.000125996
4.41543e-05
-0.000120956
6.39604e-05
-0.000111097
8.11636e-05
-9.6851e-05
9.50901e-05
-7.88342e-05
0.000105215
-5.7813e-05
0.00011118
-3.46634e-05
0.000112804
-1.03274e-05
0.000110078
1.42312e-05
0.000103163
3.80628e-05
9.23719e-05
6.02695e-05
7.81553e-05
8.00262e-05
6.10827e-05
9.6593e-05
4.18293e-05
0.000109304
2.11724e-05
0.000117519
0.000120569
-2.56031e-05
0.000146171
-5.05938e-05
0.000142507
-7.39092e-05
0.000132617
-9.46159e-05
0.000117298
-0.000111899
9.73069e-05
-0.000125064
7.34324e-05
-0.000133556
4.65527e-05
-0.00013698
1.76536e-05
-0.000135125
-1.21845e-05
-0.000127982
-4.18087e-05
-0.000115755
-7.00413e-05
-9.88684e-05
-9.5722e-05
-7.79551e-05
-0.000117765
-5.38366e-05
-0.000135216
-2.74889e-05
-0.000147304
1.74213e-09
-0.000153487
2.74923e-05
-0.000153486
5.384e-05
-0.000147303
7.79584e-05
-0.000135215
9.88714e-05
-0.000117764
0.000115758
-9.57203e-05
0.000127984
-7.00394e-05
0.000135127
-4.18066e-05
0.000136982
-1.21822e-05
0.000133558
1.7656e-05
0.000125065
4.65552e-05
0.0001119
7.34349e-05
9.46169e-05
9.73093e-05
7.391e-05
0.0001173
5.05943e-05
0.00013262
2.56034e-05
0.00014251
0.000146173
-3.09382e-05
0.000177109
-6.11526e-05
0.000172722
-8.93741e-05
0.000160839
-0.000114485
0.000142408
-0.000135502
0.000118324
-0.000151579
8.951e-05
-0.00016203
5.70043e-05
-0.000166356
2.19796e-05
-0.000164274
-1.42668e-05
-0.000155746
-5.03369e-05
-0.000140998
-8.47893e-05
-0.000120527
-0.000116192
-9.50965e-05
-0.000143196
-6.57074e-05
-0.000164605
-3.35605e-05
-0.000179451
1.93999e-09
-0.000187049
3.35644e-05
-0.000187049
6.57112e-05
-0.00017945
9.51001e-05
-0.000164604
0.000120531
-0.000143194
0.000141001
-0.00011619
0.000155748
-8.47871e-05
0.000164276
-5.03345e-05
0.000166359
-1.42643e-05
0.000162032
2.19823e-05
0.000151581
5.7007e-05
0.000135503
8.95128e-05
0.000114486
0.000118326
8.93748e-05
0.000142411
6.11531e-05
0.000160842
3.09385e-05
0.000172724
0.000177111
-3.73493e-05
0.000214458
-7.3848e-05
0.000209221
-0.000107987
0.000194978
-0.00013843
0.000172852
-0.000163994
0.000143888
-0.00018365
0.000109165
-0.000196544
6.98986e-05
-0.000202041
2.74773e-05
-0.000199762
-1.65464e-05
-0.00018962
-6.04784e-05
-0.000171856
-0.000102553
-0.00014705
-0.000140998
-0.000116117
-0.000174129
-8.02801e-05
-0.000200442
-4.10188e-05
-0.000218712
2.17067e-09
-0.00022807
4.10231e-05
-0.00022807
8.02843e-05
-0.000218711
0.000116121
-0.000200441
0.000147054
-0.000174127
0.00017186
-0.000140996
0.000189623
-0.00010255
0.000199764
-6.04757e-05
0.000202044
-1.65435e-05
0.000196546
2.74803e-05
0.000183651
6.99016e-05
0.000163996
0.000109168
0.000138431
0.000143891
0.000107987
0.000172855
7.38485e-05
0.000194981
3.73496e-05
0.000209223
0.000214461
-4.50351e-05
0.000259494
-8.90782e-05
0.000253264
-0.000130341
0.000236241
-0.000167236
0.000209747
-0.000198341
0.000174993
-0.000222399
0.000133223
-0.000238351
8.58507e-05
-0.000245383
3.45094e-05
-0.000242979
-1.89499e-05
-0.000230979
-7.24786e-05
-0.000209623
-0.000123909
-0.000179578
-0.000171043
-0.00014194
-0.000211766
-9.82042e-05
-0.000244178
-5.01994e-05
-0.000266716
2.44205e-09
-0.000278272
5.02042e-05
-0.000278271
9.82089e-05
-0.000266715
0.000141945
-0.000244177
0.000179582
-0.000211764
0.000209627
-0.00017104
0.000230982
-0.000123906
0.000242982
-7.24754e-05
0.000245385
-1.89466e-05
0.000238353
3.45128e-05
0.000222401
8.58541e-05
0.000198342
0.000133227
0.000167237
0.000174996
0.000130342
0.00020975
8.90787e-05
0.000236244
4.50353e-05
0.000253267
0.000259496
-5.4223e-05
0.000313717
-0.0001073
0.000306341
-0.000157125
0.000286066
-0.000201818
0.000254439
-0.000239673
0.000212848
-0.00026916
0.00016271
-0.000288957
0.000105648
-0.000298015
4.35677e-05
-0.00029563
-2.1334e-05
-0.000281522
-8.6587e-05
-0.000255907
-0.000149524
-0.00021954
-0.00020741
-0.000173729
-0.000257577
-0.000120302
-0.000297605
-6.15279e-05
-0.00032549
2.76445e-09
-0.000339802
6.15333e-05
-0.000339802
0.000120307
-0.000325489
0.000173734
-0.000297603
0.000219544
-0.000257575
0.000255911
-0.000207407
0.000281525
-0.000149521
0.000295633
-8.65834e-05
0.000298017
-2.13302e-05
0.000288959
4.35715e-05
0.000269161
0.000105651
0.000239674
0.000162714
0.000201819
0.000212852
0.000157126
0.000254443
0.000107301
0.00028607
5.42233e-05
0.000306344
0.00031372
-6.51692e-05
0.000378886
-0.000129031
0.000370203
-0.000189121
0.000346157
-0.000243226
0.000308544
-0.000289309
0.000258932
-0.000325504
0.000198906
-0.000350159
0.000130302
-0.000361913
5.53226e-05
-0.000359802
-2.34454e-05
-0.000343353
-0.000103036
-0.000312721
-0.000180157
-0.000268739
-0.000251391
-0.00021296
-0.000313356
-0.000147621
-0.000362944
-7.55479e-05
-0.000397563
3.15145e-09
-0.000415353
7.55542e-05
-0.000415353
0.000147627
-0.000397561
0.000212965
-0.000362942
0.000268744
-0.000313353
0.000312725
-0.000251388
0.000343357
-0.000180153
0.000359805
-0.000103031
0.000361916
-2.3441e-05
0.000350161
5.5327e-05
0.000325506
0.000130307
0.00028931
0.00019891
0.000243226
0.000258935
0.000189122
0.000308548
0.000129031
0.000346161
6.51693e-05
0.000370206
0.000378889
-7.81564e-05
0.000457042
-0.000154844
0.000446891
-0.000227206
0.000418519
-0.000292653
0.000373991
-0.000348766
0.000315044
-0.000393272
0.000243412
-0.000424097
0.000161128
-0.000439469
7.06954e-05
-0.000438056
-2.48587e-05
-0.000419091
-0.000122
-0.000382597
-0.000216651
-0.000329463
-0.000304525
-0.000261518
-0.000381301
-0.000181505
-0.000442957
-9.29593e-05
-0.000486109
3.6215e-09
-0.000508316
9.29665e-05
-0.000508315
0.000181512
-0.000486107
0.000261524
-0.000442954
0.000329469
-0.000381297
0.000382602
-0.000304521
0.000419095
-0.000216646
0.000438059
-0.000121995
0.000439472
-2.48536e-05
0.000424099
7.07004e-05
0.000393273
0.000161132
0.000348767
0.000243416
0.000292654
0.000315048
0.000227207
0.000373995
0.000154845
0.000418523
7.81565e-05
0.000446895
0.000457046
-9.34877e-05
0.00055053
-0.000185362
0.000538765
-0.000272342
0.0005055
-0.000351431
0.00045308
-0.00041977
0.000383383
-0.000474596
0.000298238
-0.000513301
0.000199834
-0.000533565
9.09591e-05
-0.00053354
-2.48835e-05
-0.000512003
-0.000143537
-0.000468738
-0.000259916
-0.000404636
-0.000368627
-0.000321832
-0.000464104
-0.000223695
-0.000541094
-0.00011467
-0.000595133
4.19839e-09
-0.00062299
0.000114678
-0.000622989
0.000223703
-0.000595131
0.00032184
-0.00054109
0.000404642
-0.0004641
0.000468743
-0.000368621
0.000512008
-0.00025991
0.000533544
-0.000143531
0.000533568
-2.48775e-05
0.000513303
9.09648e-05
0.000474597
0.000199839
0.00041977
0.000298243
0.000351432
0.000383387
0.000272342
0.000453084
0.000185362
0.000505504
9.34878e-05
0.000538768
0.000550533
-0.000111476
0.000662006
-0.000221229
0.000648518
-0.000325549
0.00060982
-0.000421003
0.000548535
-0.000504241
0.00046662
-0.000571916
0.000365913
-0.000620744
0.000248662
-0.000647666
0.000117881
-0.000650127
-2.24227e-05
-0.000626184
-0.000167479
-0.000575218
-0.000310882
-0.000498023
-0.000445822
-0.000397056
-0.000565071
-0.000276463
-0.000661687
-0.00014187
-0.000729726
4.91394e-09
-0.000764864
0.000141879
-0.000764863
0.000276472
-0.000729724
0.000397065
-0.000661683
0.00049803
-0.000565065
0.000575224
-0.000445815
0.000626189
-0.000310875
0.00065013
-0.000167472
0.000647669
-2.24157e-05
0.000620745
0.000117888
0.000571917
0.000248668
0.000504242
0.000365918
0.000421003
0.000466625
0.000325548
0.00054854
0.000221229
0.000609824
0.000111476
0.000648522
0.000662009
-0.000132422
0.000794428
-0.000263083
0.000779179
-0.000387857
0.000734594
-0.00050288
0.000663558
-0.000604264
0.000568004
-0.000687975
0.000449624
-0.000749876
0.000310562
-0.000785917
0.000153923
-0.000792588
-1.57512e-05
-0.000766791
-0.000193277
-0.000707263
-0.00037041
-0.000614515
-0.000538569
-0.000491323
-0.000688263
-0.000342802
-0.000810208
-0.000176129
-0.000896399
5.81021e-09
-0.000940999
0.00017614
-0.000940998
0.000342812
-0.000896396
0.000491333
-0.000810203
0.000614523
-0.000688256
0.000707269
-0.000538561
0.000766796
-0.000370402
0.000792592
-0.000193268
0.000785919
-1.57429e-05
0.000749877
0.000153931
0.000687975
0.000310569
0.000604264
0.00044963
0.00050288
0.000568009
0.000387856
0.000663563
0.000263082
0.000734598
0.000132422
0.000779182
0.000794431
-0.000156587
0.000951015
-0.00031149
0.000934083
-0.000460232
0.000883335
-0.000598551
0.000801878
-0.000722006
0.000691459
-0.000825775
0.000553393
-0.000904656
0.000389443
-0.000953237
0.000202505
-0.000966816
-2.17258e-06
-0.000940342
-0.00021975
-0.000871623
-0.000439129
-0.00076053
-0.000649662
-0.000610106
-0.000838687
-0.000426695
-0.000993619
-0.000219544
-0.00110355
6.94961e-09
-0.00116055
0.000219558
-0.00116055
0.000426708
-0.00110355
0.000610117
-0.000993612
0.000760539
-0.000838679
0.00087163
-0.000649652
0.000940347
-0.000439119
0.000966819
-0.000219739
0.000953239
-2.16241e-06
0.000904656
0.000202513
0.000825775
0.000389451
0.000722005
0.000553399
0.00059855
0.000691465
0.000460231
0.000801882
0.00031149
0.000883339
0.000156587
0.000934086
0.000951017
-0.000184145
0.00113516
-0.000366863
0.0011168
-0.000543449
0.00105992
-0.000709345
0.000967774
-0.000859585
0.0008417
-0.000988485
0.000682292
-0.00108957
0.000490524
-0.00115573
0.000268673
-0.00117977
2.1859e-05
-0.0011551
-0.00024442
-0.00107711
-0.000517119
-0.000944582
-0.000782185
-0.000760729
-0.00102254
-0.000533496
-0.00122085
-0.000274936
-0.00136211
8.38305e-09
-0.00143549
0.000274952
-0.00143549
0.000533511
-0.0013621
0.000760742
-0.00122084
0.000944593
-0.00102253
0.00107711
-0.000782172
0.0011551
-0.000517107
0.00117977
-0.000244408
0.00115574
2.18705e-05
0.00108957
0.000268684
0.000988483
0.000490533
0.000859583
0.000682299
0.000709343
0.000841705
0.000543447
0.000967778
0.000366862
0.00105992
0.000184144
0.0011168
0.00113516
-0.00021512
0.00135028
-0.000429329
0.00133101
-0.000637913
0.00126851
-0.000836203
0.00116606
-0.00101882
0.00102432
-0.0011792
0.000842667
-0.00130933
0.000620659
-0.0013999
0.000359244
-0.0014406
6.25598e-05
-0.00142177
-0.000263255
-0.00133536
-0.000603525
-0.00117811
-0.000939432
-0.000953111
-0.00124754
-0.000670472
-0.00150349
-0.000346139
-0.00168644
1.02773e-08
-0.00178164
0.000346159
-0.00178164
0.00067049
-0.00168644
0.000953126
-0.00150348
0.00117813
-0.00124753
0.00133537
-0.000939416
0.00142177
-0.000603509
0.00144061
-0.00026324
0.0013999
6.25736e-05
0.00130933
0.000359256
0.00117919
0.000620668
0.00101882
0.000842674
0.0008362
0.00102432
0.00063791
0.00116607
0.000429327
0.00126851
0.000215119
0.00133101
0.00135028
-0.000249301
0.00159958
-0.000498566
0.00158028
-0.000743404
0.00151334
-0.000979353
0.00140201
-0.00120087
0.00124583
-0.00140059
0.00104239
-0.00156884
0.000788912
-0.00169346
0.000483863
-0.00176016
0.000129258
-0.00175411
-0.000269308
-0.00166194
-0.00069569
-0.00147668
-0.00112469
-0.00120083
-0.0015234
-0.000847608
-0.00185671
-0.000438437
-0.00209561
1.28694e-08
-0.00222009
0.000438462
-0.00222009
0.00084763
-0.0020956
0.00120085
-0.0018567
0.0014767
-0.00152338
0.00166195
-0.00112467
0.00175411
-0.000695669
0.00176016
-0.000269289
0.00169346
0.000129274
0.00156884
0.000483877
0.00140058
0.000788922
0.00120086
0.0010424
0.000979348
0.00124584
0.0007434
0.00140202
0.000498563
0.00151334
0.000249299
0.00158028
0.00159958
-0.000286136
0.00188572
-0.000573579
0.00186772
-0.00085874
0.0017985
-0.00113785
0.00168113
-0.00140566
0.00151364
-0.00165435
0.00129108
-0.00187261
0.00100717
-0.0020449
0.00065616
-0.00215141
0.000235771
-0.00216984
-0.000250887
-0.00207773
-0.000787794
-0.00186164
-0.00134078
-0.00152267
-0.00186237
-0.00107866
-0.00230073
-0.000559046
-0.00261523
1.6458e-08
-0.00277916
0.000559077
-0.00277915
0.00107869
-0.00261521
0.0015227
-0.00230071
0.00186166
-0.00186234
0.00207774
-0.00134075
0.00216984
-0.000787768
0.00215141
-0.000250863
0.0020449
0.000235791
0.0018726
0.000656175
0.00165434
0.00100718
0.00140565
0.00129108
0.00113784
0.00151364
0.000858734
0.00168113
0.000573575
0.0017985
0.000286134
0.00186772
0.00188571
-0.000324608
0.00221033
-0.000652439
0.00219555
-0.000981346
0.00212741
-0.00130896
0.00200874
-0.00163108
0.00183576
-0.00194017
0.00160016
-0.00222377
0.00129077
-0.00246269
0.000895083
-0.00262972
0.0004028
-0.00269175
-0.000188857
-0.00261085
-0.000868699
-0.00236236
-0.00158926
-0.0019435
-0.00228123
-0.00138048
-0.00286375
-0.000716282
-0.00327942
2.15751e-08
-0.00349546
0.000716323
-0.00349545
0.00138051
-0.0032794
0.00194353
-0.00286372
0.00236238
-0.0022812
0.00261086
-0.00158923
0.00269175
-0.000868665
0.00262972
-0.000188827
0.00246268
0.000402824
0.00222376
0.000895101
0.00194016
0.00129079
0.00163107
0.00160017
0.00130895
0.00183576
0.000981338
0.00200874
0.000652434
0.00212741
0.000324605
0.00219555
0.00221032
-0.000363107
0.00257343
-0.000731994
0.00256444
-0.00110675
0.00250217
-0.00148737
0.00238936
-0.00187183
0.00222022
-0.00225427
0.0019826
-0.00262241
0.00165891
-0.00295388
0.00122656
-0.00321165
0.000660564
-0.00334735
-5.31479e-05
-0.00329544
-0.000920612
-0.00300962
-0.00187509
-0.00247872
-0.00281213
-0.0017561
-0.00358636
-0.000908831
-0.00412669
2.81295e-08
-0.00440432
0.000908886
-0.00440431
0.00175615
-0.00412667
0.00247876
-0.00358632
0.00300965
-0.00281209
0.00329545
-0.00187503
0.00334735
-0.000920565
0.00321164
-5.31087e-05
0.00295387
0.000660593
0.00262239
0.00122658
0.00225425
0.00165893
0.00187182
0.0019826
0.00148735
0.00222023
0.00110674
0.00238935
0.000731987
0.00250216
0.000363104
0.00256443
0.00257342
-0.000399325
0.00297276
-0.000807614
0.00297273
-0.00122808
0.00292264
-0.00166424
0.00282551
-0.00211792
0.00267391
-0.00258714
0.00245182
-0.00306256
0.00213434
-0.00352049
0.00168449
-0.00391128
0.00105135
-0.00415346
0.000189032
-0.00414021
-0.000933867
-0.00376633
-0.00224897
-0.00304266
-0.0035358
-0.00211065
-0.00451837
-0.00107403
-0.00516331
3.35886e-08
-0.00547839
0.0010741
-0.00547838
0.00211071
-0.00516328
0.00304272
-0.00451833
0.00376637
-0.00353574
0.00414023
-0.00224889
0.00415347
-0.000933798
0.00391127
0.000189085
0.00352047
0.00105139
0.00306254
0.00168451
0.00258712
0.00213435
0.0021179
0.00245182
0.00166422
0.0026739
0.00122807
0.00282551
0.000807605
0.00292263
0.000399321
0.00297271
0.00297274
-0.000430222
0.00340298
-0.000873054
0.00341556
-0.00133568
0.00338526
-0.00182638
0.00331621
-0.00235291
0.00320044
-0.00292043
0.00301934
-0.00352661
0.00274051
-0.00414685
0.00230473
-0.00470509
0.0016096
-0.00504584
0.000529778
-0.00495733
-0.00102237
-0.00429969
-0.00290661
-0.00324692
-0.00458857
-0.00211633
-0.00564896
-0.00103157
-0.00624807
3.05317e-08
-0.00650999
0.00103164
-0.00650998
0.0021164
-0.00624805
0.003247
-0.00564892
0.00429976
-0.0045885
0.00495738
-0.00290651
0.00504585
-0.00102227
0.00470508
0.000529857
0.00414682
0.00160965
0.00352657
0.00230475
0.0029204
0.00274052
0.00235289
0.00301934
0.00182636
0.00320043
0.00133566
0.0033162
0.000873043
0.00338525
0.000430216
0.00341554
0.00340296
-0.000452129
0.00385511
-0.000920591
0.00388402
-0.00141707
0.00388174
-0.00195566
0.0038548
-0.00255212
0.0037969
-0.00322229
0.0036895
-0.00397371
0.00349194
-0.00477084
0.00310186
-0.005466
0.00230476
-0.00574846
0.000812238
-0.00518276
-0.00158808
-0.00393288
-0.00415649
-0.00263898
-0.00588247
-0.00159846
-0.00668949
-0.000753226
-0.0070933
1.9131e-08
-0.00726323
0.000753267
-0.00726323
0.00159851
-0.00709329
0.00263905
-0.00668946
0.00393296
-0.00588242
0.00518283
-0.00415638
0.00574848
-0.00158792
0.00546598
0.000812357
0.0047708
0.00230483
0.00397366
0.00310189
0.00322225
0.00349194
0.00255209
0.0036895
0.00195563
0.00379689
0.00141705
0.00385478
0.000920578
0.00388171
0.000452122
0.003884
0.00385508
-0.000461081
0.00431619
-0.000941639
0.00436458
-0.00145772
0.00439782
-0.00202954
0.00442662
-0.00268215