/*--------------------------------*- C++ -*----------------------------------*\
  =========                 |
  \\      /  F ield         | OpenFOAM: The Open Source CFD Toolbox
   \\    /   O peration     | Website:  https://openfoam.org
    \\  /    A nd           | Version:  9
     \\/     M anipulation  |
\*---------------------------------------------------------------------------*/
FoamFile
{
    format      ascii;
    class       volVectorField;
    location    "0.7";
    object      U;
}
// * * * * * * * * * * * * * * * * * * * * * * * * * * * * * * * * * * * * * //

dimensions      [0 1 -1 0 0 0 0];

internalField   nonuniform List<vector> 
4096
(
(-0.00022731 0.000223876 0)
(-0.000678778 0.000218238 0)
(-0.00110666 0.000202244 0)
(-0.00149504 0.000177921 0)
(-0.00182638 0.000146497 0)
(-0.00208754 0.000109278 0)
(-0.00226832 6.77747e-05 0)
(-0.00236163 2.3606e-05 0)
(-0.00236378 -2.14962e-05 0)
(-0.00227465 -6.58052e-05 0)
(-0.00209761 -0.000107596 0)
(-0.00183946 -0.000145246 0)
(-0.00151014 -0.000177292 0)
(-0.00112238 -0.000202488 0)
(-0.000691167 -0.000219851 0)
(-0.000233183 -0.000228705 0)
(0.000233842 -0.000228704 0)
(0.000691825 -0.000219849 0)
(0.00112304 -0.000202485 0)
(0.00151079 -0.000177289 0)
(0.0018401 -0.000145242 0)
(0.00209824 -0.000107591 0)
(0.00227528 -6.57986e-05 0)
(0.0023644 -2.14888e-05 0)
(0.00236223 2.36136e-05 0)
(0.00226892 6.77809e-05 0)
(0.00208815 0.00010928 0)
(0.001827 0.000146484 0)
(0.00149574 0.000177884 0)
(0.00110756 0.000202098 0)
(0.000679031 0.000217831 0)
(0.000227072 0.000223652 0)
(-0.000238494 0.000685314 0)
(-0.00071283 0.000667706 0)
(-0.00116251 0.000619098 0)
(-0.00157011 0.000544776 0)
(-0.00191797 0.00044857 0)
(-0.00219221 0.000334624 0)
(-0.00238207 0.000207543 0)
(-0.00248008 7.23045e-05 0)
(-0.00248237 -6.5828e-05 0)
(-0.0023888 -0.000201508 0)
(-0.00220291 -0.000329483 0)
(-0.00193183 -0.000444781 0)
(-0.001586 -0.00054292 0)
(-0.00117879 -0.000620081 0)
(-0.000725926 -0.000673256 0)
(-0.000244944 -0.000700371 0)
(0.000245535 -0.000700369 0)
(0.000726515 -0.00067325 0)
(0.00117937 -0.000620072 0)
(0.00158658 -0.000542907 0)
(0.0019324 -0.000444764 0)
(0.00220347 -0.000329462 0)
(0.00238935 -0.000201483 0)
(0.00248291 -6.57993e-05 0)
(0.0024806 7.23354e-05 0)
(0.00238257 0.000207573 0)
(0.00219271 0.000334646 0)
(0.00191846 0.000448565 0)
(0.00157059 0.000544721 0)
(0.00116299 0.000618889 0)
(0.000713035 0.000667072 0)
(0.000238452 0.000684912 0)
(-0.000257263 0.00117601 0)
(-0.000769216 0.00114536 0)
(-0.00125458 0.00106246 0)
(-0.00169434 0.00093505 0)
(-0.00206971 0.000769961 0)
(-0.00236568 0.000574415 0)
(-0.00257061 0.000356304 0)
(-0.00267646 0.000124178 0)
(-0.00267902 -0.000112935 0)
(-0.00257812 -0.000345848 0)
(-0.00237757 -0.000565538 0)
(-0.00208506 -0.000763476 0)
(-0.00171185 -0.000931963 0)
(-0.00127236 -0.00106444 0)
(-0.000783584 -0.00115573 0)
(-0.000264439 -0.00120229 0)
(0.000264963 -0.00120229 0)
(0.000784105 -0.00115572 0)
(0.00127288 -0.00106442 0)
(0.00171236 -0.000931939 0)
(0.00208556 -0.000763445 0)
(0.00237805 -0.0005655 0)
(0.00257859 -0.000345802 0)
(0.00267947 -0.000112883 0)
(0.00267689 0.000124235 0)
(0.00257102 0.000356361 0)
(0.00236607 0.000574465 0)
(0.00207008 0.000769986 0)
(0.00169468 0.000935024 0)
(0.00125486 0.00106234 0)
(0.000769378 0.00114505 0)
(0.000257301 0.00117567 0)
(-0.000285174 0.00171311 0)
(-0.0008527 0.00166842 0)
(-0.00139077 0.00154784 0)
(-0.00187828 0.0013623 0)
(-0.00229446 0.00112185 0)
(-0.00262265 0.000837011 0)
(-0.00284996 0.000519269 0)
(-0.00296745 0.000181084 0)
(-0.00297044 -0.000164398 0)
(-0.0028587 -0.000503785 0)
(-0.00263645 -0.000823924 0)
(-0.0023122 -0.00111238 0)
(-0.00189841 -0.00135794 0)
(-0.00141108 -0.00155101 0)
(-0.000869048 -0.00168408 0)
(-0.000293316 -0.00175194 0)
(0.000293798 -0.00175193 0)
(0.000869527 -0.00168407 0)
(0.00141155 -0.00155099 0)
(0.00189888 -0.0013579 0)
(0.00231265 -0.00111234 0)
(0.00263689 -0.000823866 0)
(0.00285912 -0.000503717 0)
(0.00297084 -0.000164321 0)
(0.00296782 0.000181168 0)
(0.00285031 0.000519355 0)
(0.00262298 0.000837091 0)
(0.00229476 0.00112191 0)
(0.00187854 0.00136232 0)
(0.00139098 0.00154778 0)
(0.000852835 0.00166824 0)
(0.000285215 0.00171283 0)
(-0.000323589 0.00231571 0)
(-0.00096759 0.00225536 0)
(-0.0015782 0.00209247 0)
(-0.00213147 0.00184177 0)
(-0.00260385 0.00151681 0)
(-0.00297645 0.00113182 0)
(-0.00323462 0.000702313 0)
(-0.00336818 0.000245127 0)
(-0.0033718 -0.000221976 0)
(-0.00324518 -0.000680886 0)
(-0.00299307 -0.00111381 0)
(-0.0026251 -0.00150393 0)
(-0.00215544 -0.00183604 0)
(-0.00160219 -0.00209721 0)
(-0.000986792 -0.0022772 0)
(-0.00033309 -0.002369 0)
(0.00033355 -0.00236899 0)
(0.000987249 -0.00227718 0)
(0.00160264 -0.00209717 0)
(0.00215587 -0.001836 0)
(0.00262553 -0.00150386 0)
(0.00299348 -0.00111373 0)
(0.00324557 -0.000680795 0)
(0.00337216 -0.000221873 0)
(0.00336852 0.000245238 0)
(0.00323493 0.000702428 0)
(0.00297674 0.00113193 0)
(0.00260411 0.00151691 0)
(0.00213169 0.00184183 0)
(0.00157837 0.00209248 0)
(0.000967707 0.00225526 0)
(0.000323631 0.0023155 0)
(-0.00037412 0.00300628 0)
(-0.0011187 0.00292802 0)
(-0.00182473 0.0027167 0)
(-0.00246453 0.00239137 0)
(-0.0030109 0.00196964 0)
(-0.00344197 0.00146993 0)
(-0.00374079 0.000912369 0)
(-0.00389557 0.000318804 0)
(-0.00390008 -0.000287719 0)
(-0.00375393 -0.000883687 0)
(-0.00346257 -0.00144598 0)
(-0.0030371 -0.00195273 0)
(-0.00249388 -0.00238419 0)
(-0.00185386 -0.00272349 0)
(-0.00114185 -0.00295736 0)
(-0.000385462 -0.00307663 0)
(0.000385913 -0.00307663 0)
(0.0011423 -0.00295734 0)
(0.0018543 -0.00272345 0)
(0.0024943 -0.00238412 0)
(0.00303752 -0.00195265 0)
(0.00346297 -0.00144588 0)
(0.0037543 -0.000883572 0)
(0.00390043 -0.000287591 0)
(0.00389589 0.000318943 0)
(0.00374109 0.000912514 0)
(0.00344224 0.00147007 0)
(0.00301113 0.00196977 0)
(0.00246473 0.00239147 0)
(0.00182489 0.00271674 0)
(0.00111881 0.00292798 0)
(0.000374158 0.00300614 0)
(-0.000438734 0.0038108 0)
(-0.00131193 0.00371171 0)
(-0.00213997 0.00344403 0)
(-0.00289046 0.00303185 0)
(-0.00353149 0.00249748 0)
(-0.00403743 0.0018642 0)
(-0.00438835 0.0011575 0)
(-0.00457036 0.000405047 0)
(-0.00457612 -0.000363969 0)
(-0.00440507 -0.00111973 0)
(-0.00406356 -0.00183291 0)
(-0.00356455 -0.00247573 0)
(-0.0029272 -0.00302312 0)
(-0.00217611 -0.00345364 0)
(-0.0013404 -0.00375041 0)
(-0.000452523 -0.00390177 0)
(0.000452976 -0.00390176 0)
(0.00134085 -0.00375038 0)
(0.00217655 -0.00345359 0)
(0.00292763 -0.00302304 0)
(0.00356496 -0.00247564 0)
(0.00406395 -0.00183279 0)
(0.00440544 -0.00111959 0)
(0.00457646 -0.000363814 0)
(0.00457068 0.000405214 0)
(0.00438863 0.00115768 0)
(0.00403769 0.00186437 0)
(0.00353172 0.00249764 0)
(0.00289065 0.00303199 0)
(0.00214012 0.00344411 0)
(0.00131203 0.00371172 0)
(0.00043877 0.00381072 0)
(-0.000519873 0.00475959 0)
(-0.00155459 0.00463599 0)
(-0.00253589 0.00430193 0)
(-0.00342544 0.00378747 0)
(-0.00418547 0.00312039 0)
(-0.00478556 0.0023297 0)
(-0.00520208 0.00144719 0)
(-0.00541847 0.000507333 0)
(-0.00542595 -0.000453409 0)
(-0.00522376 -0.0013978 0)
(-0.00481932 -0.00228915 0)
(-0.00422793 -0.00309273 0)
(-0.00347227 -0.00377712 0)
(-0.00258151 -0.00431547 0)
(-0.00159019 -0.0046866 0)
(-0.000536892 -0.0048759 0)
(0.000537357 -0.00487588 0)
(0.00159065 -0.00468656 0)
(0.00258196 -0.0043154 0)
(0.00347271 -0.00377703 0)
(0.00422835 -0.00309262 0)
(0.00481972 -0.00228901 0)
(0.00522414 -0.00139763 0)
(0.0054263 -0.000453227 0)
(0.00541879 0.000507529 0)
(0.00520236 0.00144739 0)
(0.00478582 0.00232991 0)
(0.00418569 0.00312058 0)
(0.00342563 0.00378765 0)
(0.00253604 0.00430206 0)
(0.00155468 0.00463605 0)
(0.000519907 0.00475956 0)
(-0.000620583 0.00588838 0)
(-0.00185578 0.00573569 0)
(-0.00302736 0.00532282 0)
(-0.00408961 0.00468686 0)
(-0.00499749 0.00386208 0)
(-0.00571467 0.00288428 0)
(-0.00621286 0.00179267 0)
(-0.00647221 0.000629848 0)
(-0.00648207 -0.000559131 0)
(-0.00624141 -0.00172818 0)
(-0.00575895 -0.00283186 0)
(-0.00505287 -0.00382709 0)
(-0.0041502 -0.00467488 0)
(-0.00308578 -0.00534187 0)
(-0.00190094 -0.00580174 0)
(-0.000641851 -0.00603631 0)
(0.000642335 -0.0060363 0)
(0.00190142 -0.00580169 0)
(0.00308625 -0.00534179 0)
(0.00415065 -0.00467477 0)
(0.0050533 -0.00382695 0)
(0.00575936 -0.0028317 0)
(0.0062418 -0.00172799 0)
(0.00648242 -0.000558922 0)
(0.00647254 0.000630073 0)
(0.00621315 0.00179291 0)
(0.00571493 0.00288452 0)
(0.00499771 0.00386231 0)
(0.0040898 0.00468707 0)
(0.0030275 0.00532299 0)
(0.00185587 0.0057358 0)
(0.000620617 0.00588841 0)
(-0.00074461 0.00723965 0)
(-0.00222672 0.00705224 0)
(-0.00363271 0.00654522 0)
(-0.00490782 0.00576409 0)
(-0.00599803 0.00475081 0)
(-0.00685975 0.00354925 0)
(-0.00745892 0.00220745 0)
(-0.00777158 0.000777683 0)
(-0.00778474 -0.000684712 0)
(-0.00749698 -0.00212306 0)
(-0.00691856 -0.0034814 0)
(-0.00607119 -0.00470661 0)
(-0.00498721 -0.00575057 0)
(-0.00370849 -0.00657207 0)
(-0.00228471 -0.00713856 0)
(-0.000771481 -0.00742755 0)
(0.000771992 -0.00742753 0)
(0.00228522 -0.00713851 0)
(0.00370898 -0.00657198 0)
(0.00498769 -0.00575045 0)
(0.00607164 -0.00470646 0)
(0.006919 -0.00348121 0)
(0.00749739 -0.00212284 0)
(0.00778512 -0.000684473 0)
(0.00777192 0.00077794 0)
(0.00745923 0.00220772 0)
(0.00686002 0.00354952 0)
(0.00599826 0.00475107 0)
(0.00490801 0.00576433 0)
(0.00363286 0.00654543 0)
(0.00222682 0.0070524 0)
(0.000744644 0.00723974 0)
(-0.000896558 0.00886413 0)
(-0.00268119 0.00863514 0)
(-0.00437445 0.00801523 0)
(-0.00591055 0.00705995 0)
(-0.0072245 0.00582046 0)
(-0.00826379 0.00435022 0)
(-0.00898727 0.00270783 0)
(-0.00936585 0.000957095 0)
(-0.00938362 -0.000834277 0)
(-0.00903857 -0.00259688 0)
(-0.0083428 -0.00426206 0)
(-0.00732224 -0.00576458 0)
(-0.00601578 -0.00704521 0)
(-0.00447385 -0.00805319 0)
(-0.00275647 -0.00874841 0)
(-0.000930841 -0.0091031 0)
(0.000931385 -0.00910308 0)
(0.00275701 -0.00874835 0)
(0.00447438 -0.00805308 0)
(0.00601629 -0.00704506 0)
(0.00732273 -0.0057644 0)
(0.00834326 -0.00426185 0)
(0.00903901 -0.00259664 0)
(0.00938402 -0.000834007 0)
(0.00936621 0.000957385 0)
(0.0089876 0.00270813 0)
(0.00826408 0.00435053 0)
(0.00722474 0.00582076 0)
(0.00591074 0.00706024 0)
(0.0043746 0.00801549 0)
(0.00268129 0.00863534 0)
(0.000896594 0.00886428 0)
(-0.00108202 0.0108227 0)
(-0.00323594 0.0105438 0)
(-0.00528001 0.00978818 0)
(-0.007135 0.0086235 0)
(-0.00872261 0.00711185 0)
(-0.00997939 0.00531814 0)
(-0.0108555 0.00331358 0)
(-0.0113154 0.00117583 0)
(-0.0113397 -0.00101257 0)
(-0.0109253 -0.00316684 0)
(-0.0100866 -0.00520298 0)
(-0.00885452 -0.00704099 0)
(-0.00727594 -0.00860814 0)
(-0.00541176 -0.00984202 0)
(-0.00333467 -0.0106932 0)
(-0.00112618 -0.0111276 0)
(0.00112676 -0.0111276 0)
(0.00333525 -0.0106932 0)
(0.00541233 -0.00984191 0)
(0.00727649 -0.00860798 0)
(0.00885504 -0.00704079 0)
(0.0100871 -0.00520274 0)
(0.0109258 -0.00316657 0)
(0.0113401 -0.00101226 0)
(0.0113158 0.00117616 0)
(0.0108558 0.00331392 0)
(0.00997969 0.00531849 0)
(0.00872287 0.0071122 0)
(0.00713521 0.00862383 0)
(0.00528017 0.00978848 0)
(0.00323605 0.010544 0)
(0.00108206 0.0108229 0)
(-0.0013078 0.0131884 0)
(-0.00391134 0.0128495 0)
(-0.00638269 0.0119307 0)
(-0.0086264 0.0105139 0)
(-0.010548 0.0086743 0)
(-0.0120706 0.00649055 0)
(-0.0131337 0.00404888 0)
(-0.0136941 0.00144357 0)
(-0.0137274 -0.00122498 0)
(-0.0132296 -0.00385343 0)
(-0.0122173 -0.0063391 0)
(-0.0107276 -0.00858405 0)
(-0.00881694 -0.010499 0)
(-0.00655903 -0.0120073 0)
(-0.00404207 -0.0130481 0)
(-0.00136518 -0.0135793 0)
(0.00136582 -0.0135793 0)
(0.0040427 -0.013048 0)
(0.00655964 -0.0120072 0)
(0.00881753 -0.0104988 0)
(0.0107282 -0.00858382 0)
(0.0122178 -0.00633883 0)
(0.0132301 -0.00385312 0)
(0.0137279 -0.00122464 0)
(0.0136945 0.00144394 0)
(0.0131341 0.00404926 0)
(0.0120709 0.00649094 0)
(0.0105482 0.00867469 0)
(0.00862662 0.0105142 0)
(0.00638285 0.011931 0)
(0.00391144 0.0128498 0)
(0.00130784 0.0131887 0)
(-0.00158211 0.0160494 0)
(-0.00473196 0.0156384 0)
(-0.00772278 0.014523 0)
(-0.0104395 0.0128024 0)
(-0.0127679 0.0105675 0)
(-0.0146152 0.00791306 0)
(-0.0159075 0.00494331 0)
(-0.0165918 0.00177247 0)
(-0.016638 -0.00147758 0)
(-0.0160401 -0.00468099 0)
(-0.0148176 -0.00771242 0)
(-0.0130147 -0.0104519 0)
(-0.0106993 -0.0127901 0)
(-0.00796095 -0.0146325 0)
(-0.0049067 -0.0159042 0)
(-0.00165735 -0.0165534 0)
(0.00165804 -0.0165534 0)
(0.00490738 -0.0159041 0)
(0.00796161 -0.0146323 0)
(0.0107 -0.0127899 0)
(0.0130153 -0.0104517 0)
(0.0148182 -0.00771211 0)
(0.0160407 -0.00468065 0)
(0.0166385 -0.0014772 0)
(0.0165923 0.00177288 0)
(0.0159079 0.00494374 0)
(0.0146155 0.0079135 0)
(0.0127682 0.010568 0)
(0.0104397 0.0128029 0)
(0.00772295 0.0145234 0)
(0.00473207 0.0156388 0)
(0.00158215 0.0160497 0)
(-0.00191483 0.0195116 0)
(-0.00572744 0.019014 0)
(-0.00934883 0.017662 0)
(-0.0126403 0.0155756 0)
(-0.015464 0.012864 0)
(-0.0177074 0.00964132 0)
(-0.0192804 0.0060333 0)
(-0.0201181 0.00217793 0)
(-0.0201825 -0.00177702 0)
(-0.0194653 -0.00567845 0)
(-0.0179887 -0.00937338 0)
(-0.0158055 -0.012715 0)
(-0.0129976 -0.0155688 0)
(-0.00967329 -0.0178188 0)
(-0.00596308 -0.0193725 0)
(-0.00201437 -0.0201658 0)
(0.00201512 -0.0201658 0)
(0.00596383 -0.0193724 0)
(0.00967402 -0.0178186 0)
(0.0129983 -0.0155686 0)
(0.0158062 -0.0127147 0)
(0.0179894 -0.00937304 0)
(0.0194659 -0.00567806 0)
(0.020183 -0.0017766 0)
(0.0201185 0.00217838 0)
(0.0192808 0.00603378 0)
(0.0177077 0.00964181 0)
(0.0154644 0.0128645 0)
(0.0126406 0.015576 0)
(0.00934901 0.0176625 0)
(0.00572755 0.0190144 0)
(0.00191487 0.019512 0)
(-0.00231781 0.0237025 0)
(-0.00693331 0.0231011 0)
(-0.0113192 0.0214646 0)
(-0.0153084 0.0189377 0)
(-0.0187346 0.0156516 0)
(-0.021461 0.0117433 0)
(-0.0233783 0.00736377 0)
(-0.0244059 0.00267958 0)
(-0.0244963 -0.00213038 0)
(-0.0236376 -0.00688 0)
(-0.0218548 -0.0113826 0)
(-0.0192105 -0.0154582 0)
(-0.0158034 -0.0189417 0)
(-0.0117648 -0.0216898 0)
(-0.00725381 -0.0235885 0)
(-0.00245067 -0.0245582 0)
(0.00245149 -0.0245581 0)
(0.00725462 -0.0235884 0)
(0.0117656 -0.0216896 0)
(0.0158041 -0.0189414 0)
(0.0192112 -0.0154579 0)
(0.0218554 -0.0113822 0)
(0.0236382 -0.00687956 0)
(0.0244969 -0.00212991 0)
(0.0244064 0.00268009 0)
(0.0233787 0.00736431 0)
(0.0214614 0.0117438 0)
(0.0187349 0.0156522 0)
(0.0153087 0.0189382 0)
(0.0113194 0.0214651 0)
(0.00693343 0.0231015 0)
(0.00231785 0.023703 0)
(-0.00280525 0.0287757 0)
(-0.00839211 0.0280499 0)
(-0.0137037 0.0260718 0)
(-0.0185392 0.0230152 0)
(-0.0226977 0.0190374 0)
(-0.0260136 0.0143021 0)
(-0.0283531 0.00899042 0)
(-0.0296167 0.00330266 0)
(-0.0297444 -0.0025448 0)
(-0.0287188 -0.00832586 0)
(-0.0265677 -0.0138126 0)
(-0.0233651 -0.0187845 0)
(-0.0192295 -0.0230379 0)
(-0.0143202 -0.0263961 0)
(-0.00883152 -0.0287175 0)
(-0.00298409 -0.0299035 0)
(0.002985 -0.0299035 0)
(0.00883241 -0.0287174 0)
(0.0143211 -0.0263958 0)
(0.0192303 -0.0230376 0)
(0.0233659 -0.0187841 0)
(0.0265684 -0.0138122 0)
(0.0287195 -0.00832537 0)
(0.029745 -0.00254427 0)
(0.0296173 0.00330323 0)
(0.0283536 0.00899101 0)
(0.026014 0.0143027 0)
(0.022698 0.0190381 0)
(0.0185394 0.0230158 0)
(0.0137039 0.0260723 0)
(0.00839223 0.0280504 0)
(0.00280529 0.0287762 0)
(-0.00339399 0.0349153 0)
(-0.0101544 0.034041 0)
(-0.0165857 0.0316534 0)
(-0.0224466 0.0279611 0)
(-0.0274951 0.0231516 0)
(-0.0315303 0.0174199 0)
(-0.0343886 0.0109825 0)
(-0.0359465 0.00407987 0)
(-0.0361277 -0.00302683 0)
(-0.0349069 -0.010063 0)
(-0.0323142 -0.0167503 0)
(-0.0284363 -0.0228179 0)
(-0.0234153 -0.0280146 0)
(-0.0174446 -0.0321214 0)
(-0.0107614 -0.0349622 0)
(-0.00363676 -0.0364142 0)
(0.00363776 -0.0364141 0)
(0.0107624 -0.034962 0)
(0.0174456 -0.0321211 0)
(0.0234162 -0.0280143 0)
(0.0284372 -0.0228175 0)
(0.032315 -0.0167498 0)
(0.0349077 -0.0100625 0)
(0.0361283 -0.00302623 0)
(0.0359471 0.0040805 0)
(0.0343891 0.0109832 0)
(0.0315308 0.0174206 0)
(0.0274954 0.0231523 0)
(0.0224469 0.0279618 0)
(0.0165859 0.031654 0)
(0.0101546 0.0340416 0)
(0.00339404 0.0349159 0)
(-0.00410402 0.0423424 0)
(-0.0122803 0.0412914 0)
(-0.0200641 0.0384141 0)
(-0.0271665 0.0339603 0)
(-0.0332961 0.0281525 0)
(-0.0382096 0.0212221 0)
(-0.0417062 0.0134266 0)
(-0.0436326 0.00505386 0)
(-0.0438907 -0.00358133 0)
(-0.0424442 -0.0121458 0)
(-0.0393237 -0.0202993 0)
(-0.0346301 -0.0277087 0)
(-0.0285334 -0.0340633 0)
(-0.0212681 -0.0390906 0)
(-0.0131246 -0.0425711 0)
(-0.0044362 -0.044351 0)
(0.00443731 -0.0443509 0)
(0.0131257 -0.0425709 0)
(0.0212692 -0.0390903 0)
(0.0285344 -0.0340629 0)
(0.034631 -0.0277082 0)
(0.0393246 -0.0202987 0)
(0.042445 -0.0121452 0)
(0.0438914 -0.00358065 0)
(0.0436333 0.00505458 0)
(0.0417067 0.0134273 0)
(0.03821 0.0212228 0)
(0.0332964 0.0281532 0)
(0.0271668 0.033961 0)
(0.0200643 0.0384148 0)
(0.0122804 0.0412921 0)
(0.00410407 0.0423431 0)
(-0.00495882 0.0513212 0)
(-0.0148403 0.0500607 0)
(-0.0242557 0.0465998 0)
(-0.0328596 0.0412363 0)
(-0.0403022 0.0342331 0)
(-0.0462886 0.0258632 0)
(-0.0505725 0.0164313 0)
(-0.0529624 0.00628082 0)
(-0.0533314 -0.00420971 0)
(-0.0516272 -0.0146362 0)
(-0.0478785 -0.0245825 0)
(-0.0422011 -0.0336379 0)
(-0.0347978 -0.0414169 0)
(-0.0259528 -0.0475793 0)
(-0.0160221 -0.0518499 0)
(-0.00541678 -0.0540351 0)
(0.00541802 -0.054035 0)
(0.0160233 -0.0518497 0)
(0.025954 -0.0475789 0)
(0.0347989 -0.0414164 0)
(0.0422022 -0.0336374 0)
(0.0478794 -0.0245818 0)
(0.051628 -0.0146355 0)
(0.0533322 -0.00420894 0)
(0.052963 0.00628162 0)
(0.0505731 0.0164321 0)
(0.046289 0.025864 0)
(0.0403026 0.034234 0)
(0.0328599 0.0412371 0)
(0.0242559 0.0466006 0)
(0.0148404 0.0500615 0)
(0.00495886 0.0513219 0)
(-0.00598583 0.0621667 0)
(-0.017917 0.0606594 0)
(-0.0292974 0.0565056 0)
(-0.0397155 0.0500591 0)
(-0.0487521 0.0416288 0)
(-0.0560503 0.031534 0)
(-0.0613074 0.0201336 0)
(-0.0642831 0.00783528 0)
(-0.0648126 -0.00490705 0)
(-0.0628197 -0.0176037 0)
(-0.0583271 -0.0297451 0)
(-0.0514656 -0.0408238 0)
(-0.0424755 -0.0503595 0)
(-0.0317016 -0.0579256 0)
(-0.0195807 -0.0631752 0)
(-0.00662165 -0.0658632 0)
(0.00662304 -0.0658631 0)
(0.0195821 -0.063175 0)
(0.0317029 -0.0579252 0)
(0.0424767 -0.050359 0)
(0.0514667 -0.0408232 0)
(0.0583281 -0.0297444 0)
(0.0628207 -0.0176029 0)
(0.0648135 -0.00490618 0)
(0.0642838 0.00783618 0)
(0.061308 0.0201345 0)
(0.0560508 0.0315349 0)
(0.0487525 0.0416297 0)
(0.0397158 0.05006 0)
(0.0292976 0.0565064 0)
(0.0179171 0.0606602 0)
(0.00598587 0.0621675 0)
(-0.00721677 0.0752533 0)
(-0.0216062 0.0734569 0)
(-0.0353484 0.0684844 0)
(-0.0479556 0.0607543 0)
(-0.0589268 0.0506263 0)
(-0.0678304 0.038471 0)
(-0.0742939 0.0247074 0)
(-0.0780145 0.009817 0)
(-0.0787763 -0.00565774 0)
(-0.0764686 -0.0211241 0)
(-0.0711007 -0.0359574 0)
(-0.062817 -0.0495288 0)
(-0.0519006 -0.0612375 0)
(-0.0387693 -0.0705455 0)
(-0.0239602 -0.0770128 0)
(-0.00810523 -0.080327 0)
(0.00810679 -0.0803269 0)
(0.0239618 -0.0770125 0)
(0.0387708 -0.0705451 0)
(0.051902 -0.0612369 0)
(0.0628182 -0.0495281 0)
(0.0711018 -0.0359566 0)
(0.0764696 -0.0211232 0)
(0.0787772 -0.00565675 0)
(0.0780152 0.00981802 0)
(0.0742945 0.0247085 0)
(0.0678309 0.038472 0)
(0.0589272 0.0506273 0)
(0.0479559 0.0607553 0)
(0.0353486 0.0684853 0)
(0.0216063 0.0734578 0)
(0.00721681 0.0752541 0)
(-0.00868792 0.0910232 0)
(-0.0260173 0.0888912 0)
(-0.042592 0.0829573 0)
(-0.0578365 0.0737138 0)
(-0.0711546 0.0615755 0)
(-0.0820249 0.0469676 0)
(-0.0899886 0.0303745 0)
(-0.0946621 0.0123605 0)
(-0.0957609 -0.0064286 0)
(-0.0931236 -0.0252768 0)
(-0.0867345 -0.0434172 0)
(-0.0767475 -0.060068 0)
(-0.0634936 -0.0744737 0)
(-0.047478 -0.0859519 0)
(-0.0293631 -0.0939402 0)
(-0.00993666 -0.0980381 0)
(0.00993842 -0.098038 0)
(0.0293648 -0.0939399 0)
(0.0474796 -0.0859513 0)
(0.0634951 -0.074473 0)
(0.0767489 -0.0600671 0)
(0.0867357 -0.0434162 0)
(0.0931246 -0.0252757 0)
(0.0957617 -0.00642747 0)
(0.0946628 0.0123617 0)
(0.0899892 0.0303757 0)
(0.0820254 0.0469687 0)
(0.071155 0.0615766 0)
(0.0578368 0.0737149 0)
(0.0425921 0.0829584 0)
(0.0260174 0.0888922 0)
(0.00868796 0.0910241 0)
(-0.0104401 0.109996 0)
(-0.0312739 0.107479 0)
(-0.051236 0.100425 0)
(-0.069652 0.0894087 0)
(-0.0858155 0.0749034 0)
(-0.099098 0.0573894 0)
(-0.108933 0.0374195 0)
(-0.114834 0.0156488 0)
(-0.116422 -0.00715857 0)
(-0.113462 -0.0301394 0)
(-0.105895 -0.0523511 0)
(-0.093876 -0.0728178 0)
(-0.0777865 -0.0905844 0)
(-0.0582375 -0.104779 0)
(-0.0360478 -0.114677 0)
(-0.0122043 -0.11976 0)
(0.0122063 -0.11976 0)
(0.0360498 -0.114676 0)
(0.0582393 -0.104778 0)
(0.0777883 -0.0905835 0)
(0.0938776 -0.0728168 0)
(0.105897 -0.0523499 0)
(0.113463 -0.0301382 0)
(0.116423 -0.00715727 0)
(0.114835 0.0156501 0)
(0.108934 0.0374208 0)
(0.0990985 0.0573906 0)
(0.0858158 0.0749046 0)
(0.0696523 0.0894098 0)
(0.0512362 0.100426 0)
(0.031274 0.10748 0)
(0.0104401 0.109997 0)
(-0.0125181 0.132779 0)
(-0.0375127 0.129825 0)
(-0.0615121 0.121478 0)
(-0.0837331 0.108403 0)
(-0.103343 0.0911309 0)
(-0.119588 0.0701931 0)
(-0.131768 0.0462098 0)
(-0.13926 0.019932 0)
(-0.141559 -0.00774293 0)
(-0.138322 -0.0357787 0)
(-0.129417 -0.0630143 0)
(-0.114984 -0.0882269 0)
(-0.0954575 -0.110201 0)
(-0.071573 -0.127813 0)
(-0.0443469 -0.140122 0)
(-0.0150221 -0.146453 0)
(0.0150244 -0.146453 0)
(0.0443491 -0.140122 0)
(0.0715751 -0.127812 0)
(0.0954594 -0.1102 0)
(0.114986 -0.0882256 0)
(0.129419 -0.0630129 0)
(0.138324 -0.0357772 0)
(0.14156 -0.00774143 0)
(0.139261 0.0199335 0)
(0.131769 0.0462113 0)
(0.119589 0.0701945 0)
(0.103344 0.0911322 0)
(0.0837333 0.108404 0)
(0.0615122 0.121479 0)
(0.0375127 0.129826 0)
(0.0125181 0.13278 0)
(-0.0149701 0.160072 0)
(-0.0448802 0.156632 0)
(-0.073672 0.14681 0)
(-0.100445 0.131371 0)
(-0.124227 0.110893 0)
(-0.144113 0.0859511 0)
(-0.159241 0.0572229 0)
(-0.168811 0.025555 0)
(-0.172145 -0.00800963 0)
(-0.168742 -0.0422344 0)
(-0.15835 -0.0756864 0)
(-0.141068 -0.106826 0)
(-0.117377 -0.134095 0)
(-0.088163 -0.156033 0)
(-0.0546916 -0.171407 0)
(-0.018538 -0.179327 0)
(0.0185407 -0.179327 0)
(0.0546942 -0.171407 0)
(0.0881654 -0.156032 0)
(0.117379 -0.134094 0)
(0.14107 -0.106825 0)
(0.158351 -0.0756847 0)
(0.168743 -0.0422327 0)
(0.172146 -0.00800787 0)
(0.168812 0.0255567 0)
(0.159242 0.0572246 0)
(0.144114 0.0859526 0)
(0.124227 0.110895 0)
(0.100445 0.131372 0)
(0.073672 0.146812 0)
(0.0448802 0.156633 0)
(0.0149701 0.160073 0)
(-0.0178453 0.192675 0)
(-0.053528 0.188708 0)
(-0.0879796 0.177232 0)
(-0.120179 0.159112 0)
(-0.149001 0.134964 0)
(-0.17337 0.105382 0)
(-0.19222 0.0710826 0)
(-0.204522 0.0329955 0)
(-0.209363 -0.00768327 0)
(-0.20601 -0.0494936 0)
(-0.194018 -0.0906613 0)
(-0.173401 -0.129239 0)
(-0.144672 -0.163213 0)
(-0.108892 -0.190664 0)
(-0.0676464 -0.209962 0)
(-0.0229464 -0.21992 0)
(0.0229495 -0.21992 0)
(0.0676494 -0.209962 0)
(0.108895 -0.190663 0)
(0.144674 -0.163211 0)
(0.173403 -0.129238 0)
(0.194019 -0.0906594 0)
(0.206011 -0.0494916 0)
(0.209364 -0.00768121 0)
(0.204523 0.0329975 0)
(0.19222 0.0710844 0)
(0.17337 0.105384 0)
(0.149001 0.134966 0)
(0.120179 0.159113 0)
(0.0879796 0.177233 0)
(0.053528 0.188709 0)
(0.0178453 0.192676 0)
(-0.021191 0.231488 0)
(-0.0636032 0.226969 0)
(-0.104697 0.213676 0)
(-0.143336 0.192571 0)
(-0.178236 0.164285 0)
(-0.208128 0.129392 0)
(-0.231695 0.0886081 0)
(-0.247614 0.0429179 0)
(-0.254652 -0.00633385 0)
(-0.251734 -0.0574496 0)
(-0.238108 -0.108227 0)
(-0.213631 -0.156192 0)
(-0.178814 -0.198713 0)
(-0.134924 -0.233247 0)
(-0.0839572 -0.257608 0)
(-0.0285042 -0.270202 0)
(0.0285079 -0.270202 0)
(0.0839607 -0.257607 0)
(0.134928 -0.233246 0)
(0.178817 -0.198712 0)
(0.213634 -0.15619 0)
(0.23811 -0.108224 0)
(0.251735 -0.0574471 0)
(0.254653 -0.00633143 0)
(0.247615 0.0429202 0)
(0.231696 0.0886101 0)
(0.208128 0.129394 0)
(0.178236 0.164287 0)
(0.143336 0.192573 0)
(0.104697 0.213677 0)
(0.0636031 0.22697 0)
(0.021191 0.231489 0)
(-0.0250475 0.277503 0)
(-0.0752337 0.272435 0)
(-0.124064 0.257202 0)
(-0.170301 0.232855 0)
(-0.212509 0.199996 0)
(-0.249205 0.159123 0)
(-0.278777 0.11088 0)
(-0.299511 0.0562416 0)
(-0.309753 -0.00335157 0)
(-0.307922 -0.0658432 0)
(-0.29278 -0.128626 0)
(-0.263908 -0.188513 0)
(-0.221748 -0.242022 0)
(-0.167807 -0.28573 0)
(-0.104618 -0.316677 0)
(-0.0355549 -0.33271 0)
(0.0355594 -0.332709 0)
(0.104623 -0.316676 0)
(0.16781 -0.285728 0)
(0.221752 -0.24202 0)
(0.263911 -0.18851 0)
(0.292782 -0.128623 0)
(0.307924 -0.0658402 0)
(0.309754 -0.0033488 0)
(0.299512 0.0562442 0)
(0.278777 0.110882 0)
(0.249204 0.159125 0)
(0.212508 0.199998 0)
(0.170301 0.232857 0)
(0.124063 0.257203 0)
(0.0752335 0.272436 0)
(0.0250474 0.277503 0)
(-0.0294407 0.331784 0)
(-0.0885063 0.326217 0)
(-0.146258 0.308995 0)
(-0.201396 0.281243 0)
(-0.252353 0.243472 0)
(-0.297431 0.196013 0)
(-0.334679 0.139334 0)
(-0.361907 0.074289 0)
(-0.376772 0.00234847 0)
(-0.37704 -0.0741159 0)
(-0.360811 -0.151982 0)
(-0.327064 -0.22713 0)
(-0.27607 -0.294892 0)
(-0.209617 -0.350593 0)
(-0.13097 -0.390188 0)
(-0.0445618 -0.410741 0)
(0.0445672 -0.41074 0)
(0.130975 -0.390186 0)
(0.209622 -0.350591 0)
(0.276073 -0.294889 0)
(0.327066 -0.227127 0)
(0.360813 -0.151979 0)
(0.377041 -0.0741123 0)
(0.376772 0.0023518 0)
(0.361907 0.074292 0)
(0.334679 0.139337 0)
(0.297431 0.196016 0)
(0.252353 0.243474 0)
(0.201396 0.281244 0)
(0.146257 0.308996 0)
(0.088506 0.326218 0)
(0.0294406 0.331785 0)
(-0.034372 0.395434 0)
(-0.103437 0.389483 0)
(-0.17135 0.370346 0)
(-0.236817 0.33919 0)
(-0.298188 0.296355 0)
(-0.353569 0.241874 0)
(-0.400635 0.175878 0)
(-0.436584 0.0989285 0)
(-0.458223 0.0123855 0)
(-0.462309 -0.0812607 0)
(-0.445851 -0.178187 0)
(-0.406883 -0.273045 0)
(-0.345286 -0.359488 0)
(-0.263178 -0.431028 0)
(-0.164832 -0.482072 0)
(-0.056156 -0.508616 0)
(0.0561626 -0.508615 0)
(0.164838 -0.48207 0)
(0.263183 -0.431024 0)
(0.345291 -0.359484 0)
(0.406887 -0.27304 0)
(0.445853 -0.178182 0)
(0.46231 -0.0812562 0)
(0.458223 0.0123896 0)
(0.436584 0.098932 0)
(0.400634 0.175881 0)
(0.353568 0.241877 0)
(0.298187 0.296357 0)
(0.236816 0.339192 0)
(0.171349 0.370346 0)
(0.103436 0.389484 0)
(0.0343719 0.395434 0)
(-0.0398046 0.469526 0)
(-0.119927 0.463405 0)
(-0.199235 0.44261 0)
(-0.276537 0.408315 0)
(-0.350197 0.360576 0)
(-0.418188 0.298959 0)
(-0.477807 0.223018 0)
(-0.525538 0.132735 0)
(-0.557081 0.0290442 0)
(-0.567707 -0.085599 0)
(-0.552692 -0.20671 0)
(-0.508482 -0.327275 0)
(-0.434195 -0.438504 0)
(-0.332365 -0.531183 0)
(-0.208716 -0.597508 0)
(-0.0712104 -0.632038 0)
(0.0712186 -0.632037 0)
(0.208724 -0.597506 0)
(0.332371 -0.531179 0)
(0.434201 -0.438499 0)
(0.508486 -0.327269 0)
(0.552694 -0.206704 0)
(0.567707 -0.0855935 0)
(0.557081 0.0290491 0)
(0.525537 0.132739 0)
(0.477805 0.223021 0)
(0.418186 0.298962 0)
(0.350195 0.360578 0)
(0.276535 0.408316 0)
(0.199234 0.44261 0)
(0.119926 0.463406 0)
(0.0398044 0.469526 0)
(-0.0456467 0.555022 0)
(-0.137716 0.549073 0)
(-0.229538 0.527136 0)
(-0.320176 0.49035 0)
(-0.408165 0.43836 0)
(-0.491481 0.370045 0)
(-0.567118 0.284053 0)
(-0.630787 0.17934 0)
(-0.676769 0.0558978 0)
(-0.698208 -0.0842772 0)
(-0.687665 -0.236252 0)
(-0.638834 -0.3908 0)
(-0.549423 -0.535444 0)
(-0.422542 -0.656605 0)
(-0.26607 -0.743426 0)
(-0.0909168 -0.788668 0)
(0.0909273 -0.788667 0)
(0.26608 -0.743422 0)
(0.42255 -0.656599 0)
(0.549429 -0.535437 0)
(0.638838 -0.390793 0)
(0.687667 -0.236245 0)
(0.698208 -0.0842704 0)
(0.676768 0.0559036 0)
(0.630784 0.179345 0)
(0.567116 0.284057 0)
(0.491478 0.370047 0)
(0.408163 0.438362 0)
(0.320174 0.49035 0)
(0.229536 0.527137 0)
(0.137715 0.549073 0)
(0.0456464 0.555021 0)
(-0.0517319 0.652637 0)
(-0.156315 0.647366 0)
(-0.261509 0.62515 0)
(-0.366836 0.587052 0)
(-0.471243 0.532183 0)
(-0.57296 0.458484 0)
(-0.668901 0.363282 0)
(-0.754072 0.243849 0)
(-0.821046 0.0983509 0)
(-0.859987 -0.0725971 0)
(-0.859169 -0.264244 0)
(-0.807482 -0.464455 0)
(-0.699973 -0.654681 0)
(-0.540577 -0.814466 0)
(-0.34095 -0.929192 0)
(-0.116604 -0.989112 0)
(0.116618 -0.98911 0)
(0.340962 -0.929187 0)
(0.540588 -0.814458 0)
(0.699981 -0.654672 0)
(0.807486 -0.464445 0)
(0.85917 -0.264234 0)
(0.859986 -0.0725887 0)
(0.821043 0.0983578 0)
(0.754069 0.243854 0)
(0.668897 0.363286 0)
(0.572956 0.458486 0)
(0.47124 0.532184 0)
(0.366833 0.587052 0)
(0.261507 0.625149 0)
(0.156314 0.647365 0)
(0.0517315 0.652635 0)
(-0.0577998 0.762674 0)
(-0.174949 0.758781 0)
(-0.293899 0.737574 0)
(-0.414894 0.700034 0)
(-0.537635 0.644644 0)
(-0.661021 0.568182 0)
(-0.782361 0.46618 0)
(-0.896323 0.333314 0)
(-0.993608 0.164366 0)
(-1.0603 -0.0434235 0)
(-1.07761 -0.285746 0)
(-1.02556 -0.547499 0)
(-0.893773 -0.800538 0)
(-0.688988 -1.01411 0)
(-0.432885 -1.16667 0)
(-0.147661 -1.24567 0)
(0.147679 -1.24567 0)
(0.432902 -1.16667 0)
(0.689002 -1.0141 0)
(0.893783 -0.800524 0)
(1.02556 -0.547485 0)
(1.07761 -0.285733 0)
(1.0603 -0.0434132 0)
(0.993604 0.164374 0)
(0.896318 0.33332 0)
(0.782355 0.466184 0)
(0.661015 0.568184 0)
(0.53763 0.644645 0)
(0.41489 0.700034 0)
(0.293897 0.737572 0)
(0.174947 0.758779 0)
(0.0577993 0.762671 0)
(-0.0634806 0.884814 0)
(-0.192497 0.883205 0)
(-0.324843 0.864777 0)
(-0.461785 0.830487 0)
(-0.604221 0.778198 0)
(-0.752339 0.703408 0)
(-0.904708 0.59943 0)
(-1.05664 0.457187 0)
(-1.19712 0.265638 0)
(-1.30508 0.0152498 0)
(-1.34894 -0.292963 0)
(-1.29122 -0.64183 0)
(-1.10986 -0.991053 0)
(-0.834417 -1.27429 0)
(-0.513186 -1.46561 0)
(-0.172606 -1.5631 0)
(0.172627 -1.56309 0)
(0.513207 -1.4656 0)
(0.834437 -1.27427 0)
(1.10988 -0.991036 0)
(1.29123 -0.641811 0)
(1.34894 -0.292945 0)
(1.30508 0.0152639 0)
(1.19712 0.265648 0)
(1.05663 0.457194 0)
(0.9047 0.599434 0)
(0.752332 0.703409 0)
(0.604215 0.778198 0)
(0.46178 0.830486 0)
(0.32484 0.864774 0)
(0.192495 0.883202 0)
(0.0634799 0.88481 0)
(-0.0682918 1.01789 0)
(-0.207478 1.01965 0)
(-0.351794 1.00624 0)
(-0.503822 0.978761 0)
(-0.666166 0.934658 0)
(-0.841122 0.868306 0)
(-1.02985 0.770639 0)
(-1.22975 0.627417 0)
(-1.42696 0.417185 0)
(-1.58512 0.114119 0)
(-1.64106 -0.2942 0)
(-1.51839 -0.782087 0)
(-1.21788 -1.25528 0)
(-0.856423 -1.61211 0)
(-0.49708 -1.8387 0)
(-0.161598 -1.94279 0)