/*--------------------------------*- C++ -*----------------------------------*\
  =========                 |
  \\      /  F ield         | OpenFOAM: The Open Source CFD Toolbox
   \\    /   O peration     | Website:  https://openfoam.org
    \\  /    A nd           | Version:  9
     \\/     M anipulation  |
\*---------------------------------------------------------------------------*/
FoamFile
{
    format      ascii;
    class       surfaceScalarField;
    location    "0.06";
    object      alphaPhi0.phase1;
}
// * * * * * * * * * * * * * * * * * * * * * * * * * * * * * * * * * * * * * //

dimensions      [0 3 -1 0 0 0 0];

internalField   nonuniform List<scalar> 
19800
(
-1.4824732e-126
2.6792816e-129
-3.890071e-126
7.4854863e-127
-1.4948345e-123
3.2817167e-124
-5.9695214e-121
1.0694178e-121
-1.8351538e-118
2.7778427e-119
-4.5756533e-116
5.9974676e-117
-9.5827989e-114
1.1074697e-114
-1.7284838e-111
1.785785e-112
-2.7362426e-109
2.5545286e-110
-3.8579511e-107
3.2819241e-108
-4.9022309e-105
3.8248343e-106
-5.6685446e-103
4.0766995e-104
-6.0137264e-101
4.0012308e-102
-5.8943456e-99
3.6376963e-100
-5.3701319e-97
3.0793089e-98
-4.5724687e-95
2.4368184e-96
-3.6564859e-93
1.8101607e-94
-2.7583743e-91
1.2664076e-92
-1.9711781e-89
8.3688074e-91
-1.3396637e-87
5.2371218e-89
-8.691391e-86
3.109776e-87
-5.402197e-84
1.7548365e-85
-3.2283812e-82
9.4175365e-84
-1.8614928e-80
4.8044872e-82
-1.0392541e-78
2.3249579e-80
-5.6375685e-77
1.0614818e-78
-2.9821086e-75
4.5189846e-77
-1.5433682e-73
1.7461448e-75
-7.8506238e-72
5.6931541e-74
-4.0058902e-70
1.1450118e-72
-2.0503407e-68
-8.8379765e-71
-9.8661397e-67
-1.5813693e-68
-4.3540054e-65
-1.226991e-66
-1.7536884e-63
-7.2457659e-65
-6.3959825e-62
-3.5614296e-63
-2.092783e-60
-1.4967042e-61
-6.0776666e-59
-5.4196107e-60
-1.5451771e-57
-1.6892427e-58
-3.4299367e-56
-4.5079327e-57
-6.8688847e-55
-2.1075542e-55
-1.1472553e-53
-6.6190494e-54
-1.5635216e-52
-1.5409679e-52
-1.7028011e-51
-2.7612272e-51
-1.4500586e-50
-3.8398065e-50
-9.3827063e-50
-4.1329292e-49
-4.3493206e-49
-3.3894813e-48
-1.3428364e-48
-2.1407921e-47
-2.1220717e-48
-9.7530015e-47
-1.5572195e-48
-2.9131594e-46
-1.646114e-51
-5.3252859e-46
1.5526111e-48
-5.3203083e-46
2.1087829e-48
-2.9051629e-46
1.3029272e-48
-9.598422e-47
4.0996966e-49
-1.9689831e-47
8.0824118e-50
-2.6019482e-48
1.197715e-50
-2.4532698e-49
1.151165e-51
-2.8109636e-50
8.5209925e-53
-2.5488512e-51
5.9970288e-54
-1.671249e-52
3.280132e-55
-9.8402038e-54
1.1317603e-56
-4.0270673e-55
2.7820284e-58
-1.0377792e-56
5.7185751e-60
-2.0065559e-58
1.0622263e-61
-3.3186742e-60
1.8408875e-63
-4.9410467e-62
3.0116004e-65
-6.6969978e-64
4.6292332e-67
-8.1474248e-66
6.4973387e-69
-8.4700463e-68
7.6315572e-71
-6.5433269e-70
4.6426618e-73
-1.8694632e-72
4.6247926e-75
9.5467751e-76
9.5689098e-77
3.4452392e-77
1.8049324e-78
1.0568974e-78
3.4073033e-80
2.7327701e-80
6.2764268e-82
6.4140601e-82
1.1233808e-83
1.4037953e-83
1.9468989e-85
2.8988281e-85
3.2556747e-87
5.6781923e-87
5.2346777e-89
1.0573547e-88
8.0638884e-91
1.8726344e-90
1.1858847e-92
3.151908e-92
1.6586522e-94
5.0340435e-94
2.1977061e-96
7.6140623e-96
2.7471362e-98
1.0878165e-97
3.2251851e-100
1.4637685e-99
3.5388548e-102
1.8489361e-101
3.6095053e-104
2.1835761e-103
3.4015354e-106
2.4009879e-105
2.9411702e-108
2.4455519e-107
2.3143787e-110
2.2939306e-109
1.6414051e-112
1.967949e-111
1.0369172e-114
1.5315609e-113
5.7496398e-117
1.070582e-115
2.7463358e-119
6.6391881e-118
1.1021311e-121
3.595703e-120
3.5886789e-124
1.6657599e-122
9.0014322e-127
6.415455e-125
2.3544678e-129
1.9702634e-127
8.9676313e-130
4.5045781e-130
1.5826542e-132
-3.2039638e-126
1.4902358e-126
-1.2837443e-123
9.8864877e-124
-6.5199729e-121
4.3294869e-121
-2.6077757e-118
1.4138281e-118
-8.0342766e-116
3.6835557e-116
-2.0074965e-113
7.9737575e-114
-4.2127333e-111
1.4760304e-111
-7.6136935e-109
2.3860889e-109
-1.2076556e-106
3.4224029e-107
-1.7057573e-104
4.408748e-105
-2.170719e-102
5.1475271e-103
-2.5134216e-100
5.5002699e-101
-2.6690794e-98
5.4083136e-99
-2.6177562e-96
4.9241427e-97
-2.3858797e-94
4.1739216e-95
-2.0316459e-92
3.3086203e-93
-1.6239978e-90
2.4587752e-91
-1.2241879e-88
1.7211596e-89
-8.7385037e-87
1.1380349e-87
-5.9293729e-85
7.1240985e-86
-3.8384833e-83
4.2265343e-84
-2.3795837e-81
2.384638e-82
-1.4175586e-79
1.2791138e-80
-8.1429356e-78
6.5227143e-79
-4.5260427e-76
3.1550331e-77
-2.4428181e-74
1.4406581e-75
-1.2848884e-72
6.1534545e-74
-6.6088035e-71
2.3970357e-72
-3.3369829e-69
7.9982305e-71
-1.6784409e-67
1.8180012e-69
-8.5735656e-66
-2.8237884e-68
-4.1429255e-64
-8.144352e-66
-1.8311198e-62
-6.7888035e-64
-7.355889e-61
-4.1080152e-62
-2.6654908e-59
-2.033176e-60
-8.6357273e-58
-8.5272677e-59
-2.4764004e-56
-3.0632152e-57
-6.2144834e-55
-9.4298897e-56
-1.3468264e-53
-2.475503e-54
-2.484961e-52
-5.492222e-53
-3.8349718e-51
-1.0187771e-51
-4.8550938e-50
-1.5568116e-50
-4.937776e-49
-1.9300071e-49
-3.9575146e-48
-1.9077246e-48
-2.4368484e-47
-1.4737436e-47
-1.0866646e-46
-8.5911723e-47
-3.1490767e-46
-3.5357548e-46
-4.1833925e-46
-9.3149897e-46
-2.2964191e-46
-1.4995287e-45
-2.7543008e-49
-1.7717777e-45
2.2902155e-46
-1.7710562e-45
4.1763283e-46
-1.4982616e-45
3.1444016e-46
-9.3122693e-46
1.1132666e-46
-3.5140705e-46
3.1547218e-47
-8.5429724e-47
4.8022328e-48
-1.6893802e-47
4.1795414e-49
-4.6809746e-48
3.021159e-50
-6.6361702e-49
2.1523148e-51
-5.1647985e-50
1.2347406e-52
-3.4654637e-51
4.5087646e-54
-1.554456e-52
1.1638868e-55
-4.2751894e-54
2.4876767e-57
-8.673964e-56
4.7663759e-59
-1.4883858e-57
8.4567496e-61
-2.278553e-59
1.404432e-62
-3.1452698e-61
2.1673629e-64
-3.8457488e-63
2.9910989e-66
-3.9194723e-65
3.2444175e-68
-2.772722e-67
1.5664325e-70
-4.3978303e-70
2.5187148e-72
1.3798764e-72
4.795088e-74
5.6770212e-74
9.1171014e-76
1.7018552e-75
1.7304152e-77
4.363851e-77
3.2040071e-79
1.0208811e-78
5.7602898e-81
2.2340691e-80
1.002091e-82
4.6154045e-82
1.681081e-84
9.0446132e-84
2.7101203e-86
1.6850909e-85
4.1840566e-88
2.9849622e-87
6.1631815e-90
5.0286935e-89
8.6300383e-92
8.0291181e-91
1.1443647e-93
1.2137283e-92
1.4310679e-95
1.7331154e-94
1.6799958e-97
2.3312083e-96
1.8426976e-99
2.9396875e-98
1.8783285e-101
3.467115e-100
1.7684098e-103
3.8069494e-102
1.5270384e-105
3.8706892e-104
1.1998179e-107
3.6216618e-106
8.4940505e-110
3.1013592e-108
5.3553783e-112
2.4069296e-110
2.9636192e-114
1.6781684e-112
1.4125401e-116
1.0382148e-114
5.655423e-119
5.6079277e-117
1.8368141e-121
2.591158e-119
4.5952116e-124
9.9510956e-122
9.0758312e-127
3.0469491e-124
2.1114589e-129
6.9649584e-127
1.050456e-129
-9.9295193e-124
6.2809722e-124
-5.0849878e-121
4.1669748e-121
-2.4364542e-118
1.8271968e-118
-8.6487422e-116
5.9765577e-116
-2.536388e-113
1.5592125e-113
-6.3488969e-111
3.3824306e-111
-1.3348093e-108
6.2753529e-109
-2.4164541e-106
1.0165214e-106
-3.8378825e-104
1.4603384e-104
-5.4267912e-102
1.883656e-102
-6.912354e-100
2.202914e-100
-8.0071206e-98
2.3553277e-98
-8.5047268e-96
2.3177634e-96
-8.34e-94
2.1113901e-94
-7.5958458e-92
1.7895029e-92
-6.4600241e-90
1.4170852e-90
-5.1555919e-88
1.0525503e-88
-3.877702e-86
7.3572122e-87
-2.7599142e-84
4.8541147e-85
-1.8661405e-82
3.0302267e-83
-1.2031838e-80
1.7934663e-81
-7.4227498e-79
1.0081039e-79
-4.3971838e-77
5.3860083e-78
-2.5099568e-75
2.7348433e-76
-1.3853026e-73
1.3174944e-74
-7.4183449e-72
5.9948494e-73
-3.8679266e-70
2.5526823e-71
-1.9707012e-68
9.9467707e-70
-9.8441899e-67
3.3644421e-68
-4.8716011e-65
8.1776321e-67
-2.4728055e-63
-4.0783887e-66
-1.1909587e-61
-2.7007707e-63
-5.2328836e-60
-2.3607472e-61
-2.0837495e-58
-1.4441268e-59
-7.4627897e-57
-7.1353541e-58
-2.3828702e-55
-2.9669791e-56
-6.716526e-54
-1.0516942e-54
-1.6525663e-52
-3.1833294e-53
-3.5039774e-51
-8.1923636e-52
-6.309537e-50
-1.777806e-50
-9.4855931e-49
-3.2175408e-49
-1.1680798e-47
-4.7907675e-48
-1.1548607e-46
-5.7822774e-47
-9.0003059e-46
-5.5670975e-46
-5.3966665e-45
-4.1938286e-45
-2.3481841e-44
-2.3888259e-44
-6.6617101e-44
-9.6315974e-44
-8.6858837e-44
-2.4929317e-43
-4.3625491e-44
-3.6658582e-43
-4.4483136e-47
-3.6933131e-43
4.3529123e-44
-3.6929952e-43
8.6737247e-44
-3.6644737e-43
6.6518799e-44
-2.4921907e-43
2.3034104e-44
-9.574075e-44
6.5784761e-45
-2.2756932e-44
1.0684748e-45
-4.5348221e-45
9.5877623e-47
-1.0381988e-45
7.0921248e-48
-1.5061196e-46
5.1955272e-49
-1.1996989e-47
3.1156508e-50
-8.3987016e-49
1.2025599e-51
-4.005218e-50
3.2659261e-53
-1.1685624e-51
7.2906917e-55
-2.4901453e-53
1.4491604e-56
-4.4489052e-55
2.6513884e-58
-7.0388475e-57
4.5113663e-60
-9.9660065e-59
7.0758474e-62
-1.2375389e-60
9.7959986e-64
-1.2592099e-62
1.0278832e-65
-8.4838014e-65
4.2604911e-68
-5.6567571e-68
9.7221611e-70
6.9439031e-70
1.7035385e-71
2.8898983e-71
3.3151804e-73
8.5366851e-73
6.3513859e-75
2.1885407e-74
1.1851109e-76
5.1351569e-76
2.1455552e-78
1.1276321e-77
3.7560291e-80
2.3389116e-79
6.336116e-82
4.6029085e-81
1.0263983e-83
8.6094408e-83
1.5910134e-85
1.5307103e-84
2.3517521e-87
2.5848015e-86
3.3026176e-89
4.1383692e-88
4.389008e-91
6.2693278e-90
5.4972334e-93
8.9649731e-92
6.4613778e-95
1.2064858e-93
7.0920502e-97
1.5229137e-95
7.2300816e-99
1.7962775e-97
6.805493e-101
1.9712761e-99
5.8739541e-103
2.0027027e-101
4.6109663e-105
1.8726771e-103
3.2607181e-107
1.6009434e-105
2.0530068e-109
1.240992e-107
1.1341041e-111
8.6376534e-110
5.3952284e-114
5.3324311e-112
2.1559493e-116
2.8741896e-114
7.0591566e-119
1.3250476e-116
2.0803934e-121
5.0786774e-119
4.340648e-124
1.5536386e-121
8.0587584e-127
3.5451015e-124
5.3453668e-127
-3.0627187e-121
1.9690072e-121
-1.5352687e-118
1.3076832e-118
-7.26125e-116
5.7459965e-116
-2.5508096e-113
1.8841099e-113
-7.1085452e-111
4.9269913e-111
-1.6014981e-108
1.0707184e-108
-3.3746827e-106
1.9914833e-106
-6.1221714e-104
3.2335495e-104
-9.7417982e-102
4.6551222e-102
-1.3796035e-99
6.014788e-100
-1.7592414e-97
7.0445409e-98
-2.0393527e-95
7.5391957e-96
-2.166471e-93
7.4227376e-94
-2.1236727e-91
6.7618095e-92
-1.9323994e-89
5.7275485e-90
-1.6409293e-87
4.5307711e-88
-1.3065544e-85
3.3591445e-86
-9.7972456e-84
2.3422519e-84
-6.9466139e-82
1.5403996e-82
-4.6751792e-80
9.5779931e-81
-2.9975515e-78
5.6429519e-79
-1.8373706e-76
3.1549765e-77
-1.0803988e-74
1.6754942e-75
-6.1152013e-73
8.4517119e-74
-3.343182e-71
4.0434044e-72
-1.7714228e-69
1.8272555e-70
-9.1289278e-68
7.7312866e-69
-4.5921792e-66
3.0030212e-67
-2.26135e-64
1.0217182e-65
-1.0985559e-62
2.6031157e-64
-5.4999352e-61
5.0375227e-64
-2.6246946e-59
-6.447987e-61
-1.1416059e-57
-5.9129454e-59
-4.4888995e-56
-3.6427041e-57
-1.5833187e-54
-1.7905817e-55
-4.9666182e-53
-7.3566871e-54
-1.3720369e-51
-2.5655196e-52
-3.301162e-50
-7.6144452e-51
-6.8304953e-49
-1.916295e-49
-1.1978783e-47
-4.0575459e-48
-1.7510584e-46
-7.151404e-47
-2.0934698e-45
-1.0357383e-45
-2.0081894e-44
-1.2150178e-44
-1.519758e-43
-1.1375048e-43
-8.8683232e-43
-8.3466407e-43
-3.7634902e-42
-4.6425941e-42
-1.044535e-41
-1.8325186e-41
-1.3249981e-41
-4.6561864e-41
-6.5968441e-42
-6.742443e-41
-6.5722664e-45
-6.7328141e-41
6.5825382e-42
-6.7322452e-41
1.3231655e-41
-6.7399119e-41
1.0430365e-41
-4.6548048e-41
3.6940245e-42
-1.821838e-41
1.0315834e-42
-4.4293729e-42
1.765481e-43
-8.626092e-43
1.6385051e-44
-1.6980036e-43
1.2419785e-45
-2.5382246e-44
9.363243e-47
-2.0676017e-45
5.867343e-48
-1.5080106e-46
2.3949882e-49
-7.6455057e-48
6.8610544e-51
-2.3706775e-49
1.6046342e-52
-5.3217156e-51
3.320412e-54
-9.9318479e-53
6.2879754e-56
-1.6296241e-54
1.100893e-57
-2.3754144e-56
1.7618328e-59
-3.0065781e-58
2.4567783e-61
-3.0641046e-60
2.4890729e-63
-1.9621474e-62
1.0719252e-65
9.2867077e-67
2.8452167e-67
2.7109679e-67
4.8052292e-69
1.0684261e-68
9.5124946e-71
3.1352036e-70
1.8445964e-72
8.063349e-72
3.4783444e-74
1.9039977e-73
6.3573081e-76
4.2096812e-75
1.1223304e-77
8.7923022e-77
1.9073529e-79
1.7417105e-78
3.1097258e-81
3.2773672e-80
4.8472666e-83
5.8580548e-82
7.1983893e-85
9.9372177e-84
1.0147303e-86
1.5973035e-85
1.3526259e-88
2.4275633e-87
1.6981002e-90
3.4798823e-89
1.9990161e-92
4.6916254e-91
2.1961776e-94
5.9288461e-93
2.2398034e-96
6.997067e-95
2.1078966e-98
7.6786831e-97
1.8180293e-100
7.7971208e-99
1.4255119e-102
7.2839243e-101
1.0065009e-104
6.2180422e-103
6.325086e-107
4.8116416e-105
3.486736e-109
3.3419197e-107
1.6548051e-111
2.0584269e-109
7.0471445e-114
1.1066034e-111
2.6487846e-116
5.0901499e-114
7.5387393e-119
1.9475412e-116
1.5924374e-121
5.94064e-119
3.0143028e-124
1.352422e-121
2.0362234e-124
-7.6434933e-119
4.9930288e-119
-3.796906e-116
3.3217971e-116
-1.7814338e-113
1.4638044e-113
-6.2182223e-111
4.8153598e-111
-1.7252943e-108
1.2633916e-108
-3.9643289e-106
2.7555242e-106
-7.4219592e-104
5.1367096e-104
-1.3146156e-101
8.3626565e-102
-2.0970492e-99
1.2070882e-99
-2.975768e-97
1.5629689e-97
-3.8004123e-95
1.8337483e-95
-4.4098269e-93
1.9648175e-93
-4.6863299e-91
1.9355773e-91
-4.5922031e-89
1.7630856e-89
-4.1740182e-87
1.4922202e-87
-3.5375885e-85
1.1785023e-85
-2.8088699e-83
8.7167217e-84
-2.0984331e-81
6.0582153e-82
-1.4809053e-79
3.967829e-80
-9.9095649e-78
2.4544343e-78
-6.3102439e-76
1.4374298e-76
-3.8370516e-74
7.9809054e-75
-2.2355401e-72
4.2052056e-73
-1.2521639e-70
2.1029665e-71
-6.7654292e-69
9.9682683e-70
-3.5380205e-67
4.4623198e-68
-1.7970661e-65
1.8712414e-66
-8.8969862e-64
7.2229628e-65
-4.305834e-62
2.4604119e-63
-2.0520851e-60
6.5038496e-62
-1.0016724e-58
4.6213875e-61
-4.7045134e-57
-1.1768871e-58
-2.0193331e-55
-1.1468354e-56
-7.8173714e-54
-7.1178778e-55
-2.70849e-52
-3.4744514e-53
-8.3264459e-51
-1.4080253e-51
-2.2492521e-49
-4.8216565e-50
-5.2808783e-48
-1.4005498e-48
-1.0641931e-46
-3.4406623e-47
-1.8144728e-45
-7.0962273e-46
-2.5745381e-44
-1.2162147e-44
-2.9841935e-43
-1.7106906e-43
-2.7739905e-42
-1.9481571e-42
-2.0363587e-41
-1.7716154e-41
-1.1556078e-40
-1.2651855e-40
-4.7809923e-40
-6.8683309e-40
-1.2977751e-39
-2.652965e-39
-1.6005344e-39
-6.6148325e-39
-7.8951649e-40
-9.4286398e-39
-7.6289286e-43
-9.3271373e-39
7.8784844e-40
-9.3263471e-39
1.5983544e-39
-9.4250711e-39
1.2959705e-39
-6.6128342e-39
4.6956853e-40
-2.6378652e-39
1.2909001e-40
-6.563021e-40
2.3122644e-41
-1.2575406e-40
2.2270552e-42
-2.1709624e-41
1.7318297e-43
-3.3883184e-42
1.34414e-44
-2.8211796e-43
8.801101e-46
-2.1407143e-44
3.8010437e-47
-1.1538646e-45
1.1508125e-48
-3.8075966e-47
2.827083e-50
-9.0242982e-49
6.107068e-52
-1.7636906e-50
1.2005552e-53
-3.0083445e-52
2.1683748e-55
-4.5234659e-54
3.5517799e-57
-5.844813e-56
4.990219e-59
-5.9593016e-58
4.8047038e-61
-3.565169e-60
2.4588588e-63
1.0506577e-63
6.510351e-65
8.2876697e-65
1.1375402e-66
3.1460254e-66
2.288339e-68
9.2183398e-68
4.5027106e-70
2.3857619e-69
8.60285e-72
5.6839939e-71
1.5909594e-73
1.2686395e-72
2.8382893e-75
2.6742841e-74
4.8682504e-77
5.3437081e-76
8.0010361e-79
1.0134639e-77
1.2557467e-80
1.8241617e-79
1.8756123e-82
3.1129192e-81
2.65644e-84
5.0296266e-83
3.5542205e-86
7.6756816e-85
4.4745213e-88
1.1039063e-86
5.2776028e-90
1.4918652e-88
5.8045297e-92
1.8883151e-90
5.9219069e-94
2.2303475e-92
5.5712488e-96
2.4478467e-94
4.8004574e-98
2.4841903e-96
3.7582897e-100
2.3180047e-98
2.6481934e-102
1.975408e-100
1.6600377e-104
1.5252996e-102
9.1242821e-107
1.0566387e-104
4.7751671e-109
6.4879114e-107
2.1917002e-111
3.4794312e-109
7.8934778e-114
1.5961805e-111
2.2592407e-116
6.0834335e-114
4.8113155e-119
1.8495037e-116
9.1793671e-122
4.197951e-119
6.3069727e-122
-1.6081242e-116
1.0629196e-116
-7.9473174e-114
7.0922965e-114
-3.7126805e-111
3.1376121e-111
-1.2919157e-108
1.0365199e-108
-3.5752002e-106
2.7308952e-106
-8.2040144e-104
5.9797243e-104
-1.605446e-101
1.1192779e-101
-2.6176165e-99
1.8271298e-99
-3.9228552e-97
2.6438552e-97
-5.5824591e-95
3.4340112e-95
-7.1446978e-93
4.0378509e-93
-8.3022874e-91
4.3332496e-91
-8.8288154e-89
4.2723555e-89
-8.6501603e-87
3.8918535e-87
-7.854129e-85
3.2912367e-85
-6.6431176e-83
2.5947182e-83
-5.2585077e-81
1.9139989e-81
-3.9119641e-79
1.3251704e-79
-2.7459267e-77
8.6362715e-78
-1.8253819e-75
5.3112966e-76
-1.1531444e-73
3.0881342e-74
-6.9464971e-72
1.7003431e-72
-4.0036052e-70
8.874951e-71
-2.2150147e-68
4.3920304e-69
-1.1802662e-66
2.0584941e-67
-6.0773806e-65
9.1074842e-66
-3.0344108e-63
3.7760406e-64
-1.4742779e-61
1.4443866e-62
-6.9905904e-60
4.9131311e-61
-3.2563744e-58
1.3356106e-59
-1.5423922e-56
1.4976595e-58
-7.1089835e-55
-1.6845067e-56
-3.0044889e-53
-1.7968468e-54
-1.1425367e-51
-1.1273666e-52
-3.8798555e-50
-5.464781e-51
-1.1665262e-48
-2.1821401e-49
-3.0754203e-47
-7.3282933e-48
-7.0333682e-46
-2.0803644e-46
-1.3780592e-44
-4.9818168e-45
-2.2807795e-43
-9.9944826e-44
-3.1369606e-42
-1.6635357e-42
-3.5207067e-41
-2.2699164e-41
-3.1676849e-40
-2.5067959e-40
-2.2536055e-39
-2.2123182e-39
-1.2429898e-38
-1.5366512e-38
-5.0115181e-38
-8.1383186e-38
-1.3301229e-37
-3.0750977e-37
-1.5937944e-37
-7.5215123e-37
-7.7850489e-38
-1.0548729e-36
-7.2510416e-41
-1.0332042e-36
7.7691264e-38
-1.0331135e-36
1.5916635e-37
-1.0544653e-36
1.3283363e-37
-7.5191555e-37
4.9252103e-38
-3.0580168e-37
1.340112e-38
-7.7884192e-38
2.5012135e-39
-1.4764721e-38
2.5046629e-40
-2.2810695e-39
2.0009363e-41
-3.7293753e-40
1.5994683e-42
-3.1714848e-41
1.0938719e-43
-2.4999699e-42
5.0000292e-45
-1.432093e-43
1.6024574e-46
-5.0345887e-45
4.1441103e-48
-1.2621628e-46
9.3681965e-50
-2.5883714e-48
1.9162295e-51
-4.5976943e-50
3.5783668e-53
-7.1394885e-52
6.00564e-55
-9.4130581e-54
8.4825117e-57
-9.5499151e-56
7.557305e-59
-5.1450124e-58
4.8503976e-61
4.1647945e-61
1.2842887e-62
2.1043854e-62
2.3293169e-64
7.7662694e-64
4.7753016e-66
2.2787489e-65
9.558821e-68
5.9512612e-67
1.854834e-69
1.4340684e-68
3.4782277e-71
3.238528e-70
6.282258e-73
6.9042895e-72
1.0892771e-74
1.3941197e-73
1.8071212e-76
2.669168e-75
2.8589825e-78
4.8446641e-77
4.2985516e-80
8.327564e-79
6.121034e-82
1.3533584e-80
8.2244746e-84
2.0756364e-82
1.03861e-85
2.9966471e-84
1.227524e-87
4.0608336e-86
1.3515267e-89
5.1491106e-88
1.3790819e-91
6.0868615e-90
1.2965537e-93
6.6801763e-92
1.115592e-95
6.7736805e-94
8.7155618e-98
6.310741e-96
6.1244067e-100
5.365992e-98
3.8752823e-102
4.1312254e-100
2.374632e-104
2.8529141e-102
1.2709076e-106
1.7472868e-104
5.6125883e-109
9.3378141e-107
2.0265611e-111
4.264961e-109
5.8197862e-114
1.618827e-111
1.2448109e-116
4.9008284e-114
2.3807288e-119
1.1079763e-116
1.6597252e-119
-2.9218258e-114
1.9489336e-114
-1.4399661e-111
1.3049129e-111
-6.7197743e-109
5.8046529e-109
-2.3371841e-106
1.9278219e-106
-6.4682401e-104
5.1064093e-104
-1.4844759e-101
1.1239662e-101
-2.9066698e-99
2.114232e-99
-4.934979e-97
3.4684899e-97
-7.1527184e-95
5.0368779e-95
-9.306834e-93
6.5570486e-93
-1.1922843e-90
7.7328273e-91
-1.3884155e-88
8.3176619e-89
-1.478267e-86
8.2115171e-87
-1.448732e-84
7.4835206e-85
-1.3143753e-82
6.3248847e-83
-1.1095632e-80
4.9779316e-81
-8.7551987e-79
3.6614213e-79
-6.4843176e-77
2.5246982e-77
-4.5248596e-75
1.6365238e-75
-2.9857561e-73
9.9963447e-74
-1.869446e-71
5.7652719e-72
-1.1143623e-69
3.1444922e-70
-6.344728e-68
1.6236762e-68
-3.4616016e-66
7.9391145e-67
-1.8156438e-64
3.672634e-65
-9.1855606e-63
1.602746e-63
-4.4974707e-61
6.5556518e-62
-2.138609e-59
2.4783914e-60
-9.9065794e-58
8.3955808e-59
-4.496091e-56
2.3295243e-57
-2.0575489e-54
3.4117105e-56
-9.2778733e-53
-1.8993856e-54
-3.8526228e-51
-2.3358142e-52
-1.4363168e-49
-1.4904898e-50
-4.7715677e-48
-7.1826807e-49
-1.4005614e-46
-2.8250552e-47
-3.5979601e-45
-9.2954243e-46
-8.0016217e-44
-2.5766941e-44
-1.5220025e-42
-6.0073869e-43
-2.4418125e-41
-1.1710019e-41
-3.25129e-40
-1.8908097e-40
-3.5290063e-39
-2.5003482e-39
-3.0699484e-38
-2.6752129e-38
-2.1149168e-37
-2.2894192e-37
-1.1331581e-36
-1.5457929e-36
-4.4508237e-36
-7.9838968e-36
-1.1548088e-35
-2.9501885e-35
-1.3433729e-35
-7.0763601e-35
-6.493498e-36
-9.7606268e-35
-5.7847067e-39
-9.4600194e-35
6.4807294e-36
-9.4591501e-35
1.3416139e-35
-9.7567727e-35
1.1533104e-35
-7.0740569e-35
4.3769683e-36
-2.9342141e-35
1.1823315e-36
-7.6522608e-36
2.2750087e-37
-1.4397803e-36
2.3928124e-38
-2.1166718e-37
1.9663319e-39
-3.4745791e-38
1.6190437e-40
-3.0154347e-39
1.1562111e-41
-2.4652009e-40
5.5940523e-43
-1.500163e-41
1.9001739e-44
-5.6229426e-43
5.1844525e-46
-1.4934315e-44
1.2288876e-47
-3.2190424e-46
2.6205353e-49
-5.9615405e-48
5.0667291e-51
-9.5627585e-50
8.7127213e-53
-1.2838959e-51
1.2308125e-54
-1.2844332e-53
9.7081687e-57
-5.8556806e-56
8.4317225e-59
1.1409077e-58
2.2515424e-60
4.5928249e-60
4.2257983e-62
1.6603414e-61
8.8522463e-64
4.8916023e-63
1.8070529e-65
1.2925975e-64
3.5690148e-67
3.1573495e-66
6.7993074e-69
7.2288713e-68
1.2453654e-70
1.5614526e-69
2.1859045e-72
3.1911511e-71
3.6649052e-74
6.1760744e-73
5.8501899e-76
1.1316813e-74
8.8614979e-78
1.9611282e-76
1.2693305e-79
3.2089829e-78
1.7131829e-81
4.9483236e-80
2.170373e-83
7.173362e-82
2.5701851e-85
9.7490976e-84
2.8321212e-87
1.2383072e-85
2.8891703e-89
1.4647241e-87
2.7129846e-91
1.6068204e-89
2.3293673e-93
1.6271653e-91
1.8145911e-95
1.512493e-93
1.3231029e-97
1.2822327e-95
9.117271e-100
9.8412007e-98
5.5680837e-102
6.7745048e-100
2.9164295e-104
4.1303444e-102
1.2699771e-106
2.1961713e-104
4.5853417e-109
9.9770663e-107
1.3175768e-111
3.7666038e-109
2.8215795e-114
1.1342189e-111
5.3957371e-117
2.5503607e-114
3.8063576e-117
-4.6533298e-112
3.122499e-112
-2.2896804e-109
2.1007498e-109
-1.0692443e-106
9.4000234e-107
-3.725756e-104
3.1427971e-104
-1.0335647e-101
8.3811763e-102
-2.3780374e-99
1.8569247e-99
-4.667289e-97
3.5148484e-97
-7.9755513e-95
5.7998752e-95
-1.19627e-92
8.4700713e-93
-1.5611637e-90
1.1075889e-90
-1.8441178e-88
1.3097229e-88
-2.0854836e-86
1.4123178e-86
-2.2252016e-84
1.3975954e-84
-2.1828063e-82
1.2750039e-82
-1.9798232e-80
1.0774804e-80
-1.6686678e-78
8.4685355e-79
-1.3127549e-76
6.2119333e-77
-9.6788901e-75
4.2657567e-75
-6.7129675e-73
2.7495061e-73
-4.3952703e-71
1.6674675e-71
-2.7258134e-69
9.5333967e-70
-1.6063938e-67
5.1460888e-68
-9.0249313e-66
2.6258456e-66
-4.848905e-64
1.2669028e-64
-2.4993945e-62
5.775666e-63
-1.2400064e-60
2.4817786e-61
-5.9409403e-59
9.9941927e-60
-2.7580702e-57
3.7262926e-58
-1.2446897e-55
1.2518148e-56
-5.4872483e-54
3.5282832e-55
-2.4160563e-52
6.1388734e-54
-1.063115e-50
-1.6089297e-52
-4.3299622e-49
-2.5583149e-50
-1.5799233e-47
-1.6774273e-48
-5.1263634e-46
-8.0544083e-47
-1.466723e-44
-3.1213775e-45
-3.6653952e-43
-1.0059613e-43
-7.9160755e-42
-2.7200846e-42
-1.4597907e-40
-6.1691116e-41
-2.2672941e-39
-1.1672816e-39
-2.9190519e-38
-1.8267162e-38
-3.0606835e-37
-2.3388217e-37
-2.5716419e-36
-2.422303e-36
-1.7141717e-35
-2.0086915e-35
-8.9176816e-35
-1.3176942e-34
-3.4112607e-34
-6.6350311e-34
-8.6506345e-34
-2.3969815e-33
-9.7613776e-34
-5.6362474e-33
-4.6658084e-34
-7.6421872e-33
-3.9702265e-37
-7.3243074e-33
4.656994e-34
-7.3236007e-33
9.7489183e-34
-7.6390909e-33
8.6398381e-34
-5.6343558e-33
3.3568465e-34
-2.3843618e-33
9.0244871e-35
-6.3691827e-34
1.7728176e-35
-1.1924509e-34
1.977595e-36
-1.7865292e-35
1.6737453e-37
-2.7906824e-36
1.4193155e-38
-2.4694368e-37
1.0582144e-39
-2.0901021e-38
5.4190413e-41
-1.3504606e-39
1.9530625e-42
-5.3998075e-41
5.6312477e-44
-1.5212917e-42
1.4026633e-45
-3.4515095e-44
3.122908e-47
-6.6704636e-46
6.2564969e-49
-1.1046466e-47
1.1009598e-50
-1.5047514e-49
1.5408412e-52
-1.463124e-51
9.8190916e-55
-4.9624731e-54
1.3118906e-56
1.8964486e-56
3.5224104e-58
8.8024211e-58
6.8933703e-60
3.1325386e-59
1.4791147e-61
9.3054406e-61
3.0859626e-63
2.4933764e-62
6.215565e-65
6.1863719e-64
1.2049851e-66
1.4385724e-65
2.2412979e-68
3.1532293e-67
3.9870328e-70
6.5311432e-69
6.7617616e-72
1.279166e-70
1.0897654e-73
2.3684405e-72
1.6636628e-75
4.1404258e-74
2.3977309e-77
6.8240219e-76
3.2508861e-79
1.0582862e-77
4.1309326e-81
1.5405358e-79
4.8998437e-83
2.0994739e-81
5.4008576e-85
2.670444e-83
5.5046029e-87
3.1591663e-85
5.1583075e-89
3.4621028e-87
4.4157075e-91
3.4981162e-89
3.6489228e-93
3.2416216e-91
2.7938201e-95
2.7395846e-93
1.9167329e-97
2.0942972e-95
1.161899e-99
1.4341611e-97
5.9122724e-102
8.6936295e-100
2.5674553e-104
4.5923807e-102
9.2496365e-107
2.0725473e-104
2.652908e-109
7.7715923e-107
5.6767512e-112
2.3244575e-109
1.0839689e-114
5.1950104e-112
7.7142861e-115
-6.5380062e-110
4.3964983e-110
-3.2107907e-107
2.9763744e-107
-1.5048017e-104
1.3424734e-104
-5.2665477e-102
4.526299e-102
-1.4681313e-99
1.2174924e-99
-3.3940499e-97
2.7196129e-97
-6.6929964e-95
5.1890849e-95
-1.1486871e-92
8.6263949e-93
-1.7421627e-90
1.268473e-90
-2.3419333e-88
1.6690829e-88
-2.7776236e-86
1.9835235e-86
-3.0004312e-84
2.1460999e-84
-3.031696e-82
2.1280168e-82
-2.9795434e-80
1.9453262e-80
-2.7038865e-78
1.6450616e-78
-2.276765e-76
1.2919678e-76
-1.7865887e-74
9.4553078e-75
-1.3116765e-72
6.4677024e-73
-9.0427994e-71
4.1458748e-71
-5.8738444e-69
2.4958014e-69
-3.6068182e-67
1.4139874e-67
-2.1002602e-65
7.5503947e-66
-1.1633184e-63
3.8038753e-64
-6.148232e-62
1.8090058e-62
-3.1101582e-60
8.116841e-61
-1.5106886e-58
3.42886e-59
-7.0688163e-57
1.3570075e-57
-3.197155e-55
4.9787471e-56
-1.4023657e-53
1.6547451e-54
-5.987853e-52
4.7013743e-53
-2.5270921e-50
9.2107024e-52
-1.0824846e-48
-8.19699e-51
-4.3174845e-47
-2.3770231e-48
-1.5395318e-45
-1.6280319e-46
-4.8721173e-44
-7.8184573e-45
-1.3568567e-42
-2.9886147e-43
-3.2942555e-41
-9.4324843e-42
-6.8994226e-40
-2.4868252e-40
-1.2318615e-38
-5.4824256e-39
-1.8499438e-37
-1.0060931e-37
-2.3002427e-36
-1.5246328e-36
-2.327242e-35
-1.8883876e-35
-1.8866565e-34
-1.8916281e-34
-1.2158418e-33
-1.5188949e-33
-6.1387616e-33
-9.6759998e-33
-2.2862974e-32
-4.7486299e-32
-5.6657299e-32
-1.6767134e-31
-6.1955188e-32
-3.8635872e-31
-2.9258971e-32
-5.14681e-31
-2.3416751e-35
-4.8739884e-31
2.9206175e-32
-4.8735066e-31
6.1878547e-32
-5.1446787e-31
5.6589719e-32
-3.8622572e-31
2.2513307e-32
-1.6681547e-31
6.0423533e-33
-4.5654772e-32
1.2141012e-33
-8.5327305e-33
1.4320885e-34
-1.3049472e-33
1.2504184e-35
-1.9559715e-34
1.0914093e-36
-1.764731e-35
8.4950432e-38
-1.5435539e-36
4.6034341e-39
-1.0582385e-37
1.7618158e-40
-4.5151997e-39
5.3774388e-42
-1.3507045e-40
1.4098824e-43
-3.2292338e-42
3.282007e-45
-6.5157028e-44
6.813447e-47
-1.1125018e-45
1.2234992e-48
-1.5287453e-47
1.6724978e-50
-1.4128946e-49
9.5389119e-53
-2.4924388e-52
1.9339752e-54
2.8734048e-54
4.5633942e-56
1.5024898e-55
1.0211303e-57
5.2955881e-57
2.252233e-59
1.5910459e-58
4.8106119e-61
4.3327109e-60
9.8974266e-63
1.0939389e-61
1.9553048e-64
2.5877333e-63
3.6975034e-66
5.7634739e-65
6.6718984e-68
1.2111709e-66
1.1452077e-69
2.402735e-68
1.8641803e-71
4.4972923e-70
2.8687677e-73
7.9343637e-72
4.1596692e-75
1.317482e-73
5.6639029e-77
2.0545157e-75
7.2158377e-79
3.0025382e-77
8.5673776e-81
4.1014455e-79
9.4387155e-83
5.2210079e-81
9.6021652e-85
6.1725532e-83
8.9756063e-87
6.7509993e-85
8.2964747e-89
6.7998144e-87
6.9930982e-91
6.2819389e-89
5.324461e-93
5.2840168e-91
3.6293821e-95
4.0154635e-93
2.1307237e-97
2.731425e-95
1.0797212e-99
1.6430035e-97
4.6672976e-102
8.609992e-100
1.6734273e-104
3.8537911e-102
4.7788442e-107
1.4327354e-104
1.0189587e-109
4.2493167e-107
1.9423895e-112
9.4212107e-110
1.3899341e-112
-8.1442754e-108
5.4748039e-108
-3.9947297e-105
3.7357547e-105
-1.8842189e-102
1.7021094e-102
-6.6403393e-100
5.798439e-100
-1.8641994e-97
1.5756575e-97
-4.3414857e-95
3.5563355e-95
-8.6215606e-93
6.8521164e-93
-1.489436e-90
1.1496788e-90
-2.2726771e-88
1.7051162e-88
-3.0988374e-86
2.2613685e-86
-3.7728977e-84
2.7062548e-84
-4.0963996e-82
2.9441196e-82
-4.0699299e-80
2.9310238e-80
-3.7280453e-78
2.6841027e-78
-3.3723802e-76
2.2734823e-76
-2.8397422e-74
1.7858573e-74
-2.2244814e-72
1.3050077e-72
-1.6272345e-70
8.8971112e-71
-1.1155011e-68
5.6735858e-69
-7.1897933e-67
3.3909699e-67
-4.3708697e-65
1.9035843e-65
-2.5138939e-63
1.005091e-63
-1.3720311e-61
4.99709e-62
-7.1272376e-60
2.3406886e-60
-3.5345822e-58
1.0326253e-58
-1.6786629e-56
4.2830908e-57
-7.6593282e-55
1.6632561e-55
-3.3687584e-53
5.9932068e-54
-1.4331281e-51
1.9653561e-52
-5.9124148e-50
5.5952098e-51
-2.3876118e-48
1.1843618e-49
-9.895734e-47
2.1711564e-49
-3.8533581e-45
-1.8663882e-46
-1.3412677e-43
-1.3729247e-44
-4.1345548e-42
-6.638063e-43
-1.1193905e-40
-2.5068971e-41
-2.636955e-39
-7.7516647e-40
-5.3489449e-38
-1.9921514e-38
-9.2349498e-37
-4.2666142e-37
-1.339308e-35
-7.588243e-36
-1.6064603e-34
-1.1126273e-34
-1.5665107e-33
-1.3320384e-33
-1.2239892e-32
-1.2895055e-32
-7.6200798e-32
-1.0018748e-31
-3.732472e-31
-6.195122e-31
-1.353069e-30
-2.9625128e-30
-3.2761495e-30
-1.0221266e-29
-3.4678744e-30
-2.3071236e-29
-1.6165108e-30
-3.0176391e-29
-1.1902366e-33
-2.8211343e-29
1.6137617e-30
-2.820854e-29
3.4637362e-30
-3.016373e-29
3.2724352e-30
-2.3063084e-29
1.3332946e-30
-1.0170825e-29
3.5812028e-31
-2.8527958e-30
7.3707647e-32
-5.3357014e-31
9.1268426e-33
-8.3405695e-32
8.27909e-34
-1.1843437e-32
7.4306233e-35
-1.1111454e-33
6.0380781e-36
-1.0024886e-34
3.4609842e-37
-7.2861847e-36
1.407254e-38
-3.3170753e-37
4.5533815e-40
-1.0542428e-38
1.2586569e-41
-2.6580228e-40
3.0663736e-43
-5.5991443e-42
6.594649e-45
-9.8347953e-44
1.2016735e-46
-1.3512859e-45
1.5598176e-48
-1.1439484e-47
9.117382e-51
1.5157075e-51
2.7165347e-52
4.8697918e-52
5.9360886e-54
2.3159559e-53
1.3892715e-55
8.1287658e-55
3.1560637e-57
2.4766389e-56
6.9130823e-59
6.8682639e-58
1.4548265e-60
1.7675184e-59
2.9320355e-62
4.2588291e-61
5.6415364e-64
9.6482104e-63
1.033197e-65
2.0587066e-64
1.7956712e-67
4.1387968e-66
2.9526544e-69
7.8352088e-68
4.5794891e-71
1.3951809e-69
6.678255e-73
2.3335052e-71
9.1268158e-75
3.6581383e-73
1.1648265e-76
5.3641184e-75
1.3830069e-78
7.3387359e-77
1.5211622e-80
9.3404313e-79
1.5739403e-82
1.1023062e-80
1.5814428e-84
1.2021154e-82
1.4560017e-86
1.2068861e-84
1.2190974e-88
1.1088307e-86
9.216641e-91
9.2642027e-89
6.1368522e-93
6.9866645e-91
3.5501074e-95
4.7112852e-93
1.7865841e-97
2.8074844e-95
7.6675168e-100
1.4569208e-97
2.729764e-102
6.4542989e-100
7.7420111e-105
2.3749239e-102
1.6403495e-107
6.9710851e-105
3.118832e-110
1.5299699e-107
2.2388261e-110
-9.0769242e-106
6.0977913e-106
-4.4600348e-103
4.2029997e-103
-2.122311e-100
1.9381016e-100
-7.5526011e-98
6.6869401e-98
-2.1417797e-95
1.8406272e-95
-5.0382238e-93
4.2072163e-93
-1.0102979e-90
8.2055756e-91
-1.7615869e-88
1.3927937e-88
-2.7108506e-86
2.0880307e-86
-3.7250029e-84
2.7965402e-84
-4.6123677e-82
3.3768978e-82
-5.1153285e-80
3.7019964e-80
-5.1123541e-78
3.7078446e-78
-4.693982e-76
3.4108351e-76
-3.9833767e-74
2.8941592e-74