/*--------------------------------*- C++ -*----------------------------------*\
  =========                 |
  \\      /  F ield         | OpenFOAM: The Open Source CFD Toolbox
   \\    /   O peration     | Website:  https://openfoam.org
    \\  /    A nd           | Version:  9
     \\/     M anipulation  |
\*---------------------------------------------------------------------------*/
FoamFile
{
    format      ascii;
    class       surfaceScalarField;
    location    "0.5";
    object      alphaPhi0.phase1;
}
// * * * * * * * * * * * * * * * * * * * * * * * * * * * * * * * * * * * * * //

dimensions      [0 3 -1 0 0 0 0];

internalField   nonuniform List<scalar> 
8032
(
-1.26842e-238
1.78913e-244
-8.7972e-233
1.24969e-238
-3.11327e-227
4.12353e-233
-7.35544e-222
8.70578e-228
-1.32599e-216
1.32473e-222
-1.96908e-211
1.51158e-217
-2.53805e-206
1.25439e-212
-2.95395e-201
5.38084e-208
-2.62163e-196
-5.84287e-197
-1.28294e-191
-1.44592e-191
-2.78813e-187
-1.03772e-186
-1.72366e-183
-2.73108e-182
-2.37169e-180
-1.84817e-178
-2.45133e-178
-3.02534e-175
-1.92652e-177
-4.17449e-173
2.83593e-180
-6.41126e-172
1.93277e-177
-6.4127e-172
2.45756e-178
-4.17817e-173
2.18322e-180
-2.791e-175
9.46162e-184
-1.00494e-178
4.72212e-188
-4.01749e-183
1.14903e-192
-7.31189e-188
1.74467e-197
-7.16612e-193
1.79247e-202
-2.59193e-198
1.50171e-207
3.18597e-209
1.14275e-212
7.28058e-214
7.57255e-218
8.62931e-219
4.14947e-223
7.45834e-224
1.74316e-228
4.85199e-229
4.93252e-234
2.27162e-234
6.96263e-240
6.81185e-240
9.72478e-246
-2.6613e-232
7.81568e-238
-1.74381e-226
5.09731e-232
-5.69265e-221
1.57403e-226
-1.24201e-215
3.09537e-221
-2.05915e-210
4.35161e-216
-2.79718e-205
4.56945e-211
-3.27536e-200
3.46863e-206
-3.43257e-195
1.35123e-201
-2.67498e-190
-6.41083e-191
-1.10315e-185
-1.3382e-185
-1.93416e-181
-7.80002e-181
-9.11732e-178
-1.59658e-176
-1.02667e-174
-7.89496e-173
-8.98697e-173
-1.0396e-169
-6.76196e-172
-1.1887e-167
5.15385e-175
-1.72892e-166
6.77384e-172
-1.72922e-166
9.00168e-173
-1.18956e-167
9.47601e-175
-9.62672e-170
4.95917e-178
-4.25375e-173
2.84583e-182
-2.01843e-177
7.77398e-187
-4.20315e-182
1.32591e-191
-4.74152e-187
1.52357e-196
-1.98193e-192
1.40965e-201
5.82259e-203
1.17398e-206
1.45647e-207
8.46186e-212
1.87774e-212
5.01935e-217
1.75685e-217
2.27393e-222
1.23256e-222
6.91719e-228
6.20472e-228
1.04672e-233
1.9953e-233
3.04642e-239
-3.49674e-226
1.62209e-231
-2.07885e-220
9.61873e-226
-6.10632e-215
2.6879e-220
-1.19377e-209
4.76417e-215
-1.76443e-204
6.00705e-210
-2.1221e-199
5.62504e-205
-2.18055e-194
3.78055e-200
-1.98211e-189
1.29183e-195
-1.3036e-184
-3.31623e-185
-4.36653e-180
-5.58442e-180
-5.95471e-176
-2.54179e-175
-2.05121e-172
-3.88184e-171
-1.8582e-169
-1.34856e-167
-1.34809e-167
-1.44202e-164
-9.61049e-167
-1.46392e-162
-1.99362e-170
-1.95822e-161
9.60813e-167
-1.95844e-161
1.34873e-167
-1.46474e-162
1.72032e-169
-1.33822e-164
1.10493e-172
-7.193e-168
7.5262e-177
-4.14281e-172
2.35234e-181
-1.00034e-176
4.61794e-186
-1.33221e-181
6.13104e-191
-6.66511e-187
6.48616e-196
3.8507e-197
6.10697e-201
1.08913e-201
4.93793e-206
1.57521e-206
3.26639e-211
1.64355e-211
1.6426e-216
1.27996e-216
5.52637e-222
7.12628e-222
9.22255e-228
2.52714e-227
4.24467e-233
-3.74582e-220
2.47468e-225
-1.95545e-214
1.29377e-219
-5.01751e-209
3.17627e-214
-8.5182e-204
4.91952e-209
-1.08565e-198
5.38871e-204
-1.11576e-193
4.35187e-199
-9.68134e-189
2.49934e-194
-7.31454e-184
7.21027e-190
-3.88299e-179
-1.02533e-179
-1.01578e-174
-1.32611e-174
-1.03361e-170
-4.53348e-170
-2.50151e-167
-5.00063e-166
-1.84031e-164
-1.32377e-162
-1.18543e-162
-1.34087e-159
-7.7747e-162
-1.75937e-157
-6.08823e-165
-2.04201e-156
7.76333e-162
-2.04212e-156
1.18511e-162
-1.76012e-157
1.70679e-164
-1.23512e-159
1.33355e-167
-7.01007e-163
1.10256e-171
-4.39361e-167
3.9959e-176
-1.19505e-171
9.26052e-181
-1.93049e-176
1.4713e-185
-1.20043e-181
1.84974e-190
1.38102e-191
2.03995e-195
4.57558e-196
1.91284e-200
7.67451e-201
1.45654e-205
9.21765e-206
8.38433e-211
8.21704e-211
3.21488e-216
5.21393e-216
6.09371e-222
2.1e-221
3.99524e-227
-3.49046e-214
3.12625e-219
-1.55595e-208
1.40281e-213
-3.38694e-203
2.94049e-208
-4.84221e-198
3.86501e-203
-5.1488e-193
3.56607e-198
-4.36128e-188
2.40294e-193
-3.06872e-183
1.13745e-188
-1.83892e-178
2.661e-184
-7.49984e-174
-1.99299e-174
-1.4737e-169
-1.87534e-169
-1.08313e-165
-4.73691e-165
-1.99754e-162
-4.16175e-161
-1.38689e-159
-1.42226e-157
-1.0425e-158
-9.64671e-156
-3.53209e-157
-1.13177e-155
-3.81564e-160
-1.34822e-154
3.52481e-157
-1.34828e-154
1.15021e-158
-1.13221e-155
1.27878e-159
-1.07757e-155
1.0571e-162
-7.65182e-158
9.51099e-167
-3.08087e-162
3.88288e-171
-6.8594e-167
1.09149e-175
-1.3846e-171
2.15515e-180
-1.12599e-176
3.35121e-185
2.91291e-186
4.48269e-190
1.17059e-190
5.03076e-195
2.34989e-195
4.5412e-200
3.34587e-200
3.07729e-205
3.51122e-205
1.38181e-210
2.60912e-210
3.05522e-216
1.22579e-215
2.71205e-221
-2.83064e-208
3.35302e-213
-1.04975e-202
1.25983e-207
-1.88636e-197
2.19759e-202
-2.20473e-192
2.3851e-197
-1.8924e-187
1.79931e-192
-1.2723e-182
9.78803e-188
-6.944e-178
3.67774e-183
-3.12721e-173
6.67506e-179
-9.2791e-169
-2.37006e-169
-1.34722e-164
-1.56851e-164
-7.88679e-161
-3.41112e-160
-1.67029e-157
-3.70837e-156
-7.48857e-157
-8.51124e-156
-1.19281e-153
-1.30626e-152
-7.54087e-152
-2.17938e-150
-8.9884e-155
-2.49581e-149
7.52349e-152
-2.49591e-149
1.18551e-153
-2.18018e-150
1.50519e-156
-1.17218e-152
1.00274e-157
-6.8311e-155
5.83515e-162
-3.18454e-157
1.94997e-166
-1.78963e-162
6.84935e-171
-3.91803e-167
1.76866e-175
-4.65195e-172
3.56234e-180
3.4314e-181
6.00143e-185
1.73662e-185
8.32554e-190
4.30928e-190
9.17108e-195
7.48748e-195
7.51526e-200
9.50189e-200
4.05434e-205
8.4828e-205
1.07187e-210
4.76539e-210
1.25633e-215
-1.94379e-202
3.01427e-207
-5.8538e-197
9.2733e-202
-8.45359e-192
1.31373e-196
-7.8342e-187
1.14603e-191
-5.23703e-182
6.85595e-187
-2.67584e-177
2.90487e-182
-1.07323e-172
8.29565e-178
-3.4047e-168
1.10684e-173
-7.10365e-164
-1.64233e-164
-8.87923e-160
-9.50431e-160
-2.60061e-156
-1.42454e-155
-1.82588e-155
-2.30237e-154
-1.55614e-151
-1.57477e-150
-2.18535e-148
-2.12973e-147
-1.27391e-146
-3.27445e-145
-1.50348e-149
-3.60476e-144
1.27099e-146
-3.60488e-144
2.17155e-148
-3.27561e-145
4.00977e-151
-1.91126e-147
4.6279e-153
-1.55755e-149
5.5403e-157
-1.5049e-152
4.65681e-162
-1.79418e-157
1.77412e-166
-9.6029e-163
6.68903e-171
-1.33369e-167
1.86758e-175
1.92913e-176
4.17942e-180
1.29674e-180
7.48454e-185
4.15368e-185
1.044e-189
9.13876e-190
1.06897e-194
1.4491e-194
7.13808e-200
1.6013e-199
2.32007e-205
1.10592e-204
3.56668e-210
-1.08534e-196
2.20339e-201
-2.58776e-191
5.42796e-196
-2.91557e-186
6.08898e-191
-2.06685e-181
4.14458e-186
-1.02863e-176
1.89681e-181
-3.76963e-172
5.98381e-177
-1.03579e-167
1.22579e-172
-2.22458e-163
1.12094e-168
-4.05654e-159
-9.9892e-160
-3.49643e-156
-5.68277e-156
-4.16064e-154
-2.08038e-153
-3.62756e-150
-3.98467e-149
-2.5991e-146
-2.31601e-145
-3.21483e-143
-2.76063e-142
-1.72787e-141
-3.91176e-140
-1.89004e-144
-4.13981e-139
1.72421e-141
-4.13995e-139
3.1942e-143
-3.91312e-140
6.58462e-146
-2.47764e-142
8.00385e-148
-2.38077e-144
8.28124e-152
-2.62074e-147
4.4076e-157
-2.79375e-152
4.0985e-162
-9.24137e-158
1.80783e-166
-4.69188e-163
7.40341e-171
8.02086e-172
2.32894e-175
7.5773e-176
5.61522e-180
3.26764e-180
1.02241e-184
9.38431e-185
1.33602e-189
1.89905e-189
1.11931e-194
2.63285e-194
4.50411e-200
2.25123e-199
8.89414e-205
-4.69636e-191
1.25863e-195
-8.61971e-186
2.42545e-190
-7.31473e-181
2.09461e-185
-3.78893e-176
1.07394e-180
-1.32113e-171
3.5916e-176
-3.22787e-167
7.93877e-172
-5.98657e-163
1.08437e-167
-1.30065e-158
6.69972e-164
-8.41349e-157
-2.63014e-157
-5.1536e-153
-8.03419e-153
-7.04327e-149
-3.46442e-148
-5.83743e-145
-5.54497e-144
-3.51719e-141
-2.7397e-140
-3.83161e-138
-2.87936e-137
-1.89866e-136
-3.76059e-135
-1.84379e-139
-3.82604e-134
1.8951e-136
-3.82616e-134
3.80678e-138
-3.7619e-135
8.79048e-141
-2.58445e-137
1.1277e-142
-2.94726e-139
1.3811e-146
-3.68947e-142
6.73743e-152
-4.82644e-147
3.78719e-157
-1.42865e-152
6.11361e-162
-4.36653e-158
3.08408e-166
3.45213e-167
1.43815e-170
4.8329e-171
4.96328e-175
2.98302e-175
1.24198e-179
1.17734e-179
2.16011e-184
3.17105e-184
2.35019e-189
5.70927e-189
1.20457e-194
6.2178e-194
3.0798e-199
-1.58368e-185
5.64988e-190
-2.18387e-180
8.3594e-185
-1.35068e-175
5.42433e-180
-4.88841e-171
2.02708e-175
-1.137e-166
4.73703e-171
-1.94254e-162
6.98503e-167
-4.20404e-158
6.68156e-163
-6.73153e-157
5.09822e-159
-3.29749e-152
-1.01375e-152
-8.43269e-148
-1.30564e-147
-9.74226e-144
-4.67551e-143
-7.64878e-140
-6.25136e-139
-3.87749e-136
-2.62711e-135
-3.7203e-133
-2.43552e-132
-1.69955e-131
-2.93226e-130
-1.42534e-134
-2.86811e-129
1.69682e-131
-2.8682e-129
3.69598e-133
-2.93327e-130
9.58182e-136
-2.1863e-132
1.29914e-137
-2.97105e-134
1.8769e-141
-4.22391e-137
1.14331e-146
-6.76903e-142
4.59106e-152
-2.44983e-147
5.50596e-157
-5.31405e-153
1.69729e-161
1.96442e-162
1.02571e-165
3.52379e-166
5.17525e-170
3.17957e-170
1.84029e-174
1.78324e-174
4.3762e-179
6.56676e-179
6.31488e-184
1.56806e-183
4.19607e-189
2.21397e-188
1.39731e-193
-4.18148e-180
2.01037e-184
-4.21648e-175
2.24021e-179
-1.83102e-170
1.06301e-174
-4.46367e-166
2.78933e-170
-7.51412e-162
4.39082e-166
-1.60964e-157
4.70908e-162
-2.38583e-156
5.74568e-158
-1.29549e-151
1.06885e-153
-5.29083e-147
-1.62002e-147
-1.13014e-142
-1.72901e-142
-1.10512e-138
-5.13731e-138
-8.18781e-135
-5.73832e-134
-3.49443e-131
-2.05262e-130
-2.95289e-128
-1.67944e-127
-1.2436e-126
-1.86417e-125
-8.86328e-130
-1.75307e-124
1.24191e-126
-1.75312e-124
2.93339e-128
-1.86481e-125
8.55043e-131
-1.50775e-127
1.22643e-132
-2.44722e-129
2.08483e-136
-3.94722e-132
1.58708e-141
-7.73948e-137
7.76952e-147
-3.4347e-142
2.86259e-152
-9.01593e-148
1.48108e-156
3.13147e-157
7.07445e-161
2.56564e-161
4.62247e-165
2.88287e-165
2.38282e-169
2.34373e-169
7.98784e-174
1.21666e-173
1.56674e-178
3.94887e-178
1.376e-183
7.36917e-183
6.02315e-188
-8.47476e-175
5.6174e-179
-6.01836e-170
4.58632e-174
-1.77081e-165
1.53273e-169
-3.17612e-161
2.72522e-165
-6.75971e-157
3.21882e-161
-9.53977e-156
4.36932e-157
-4.572e-151
1.29043e-152
-2.05692e-146
2.05869e-148
-6.96645e-142
-2.11738e-142
-1.24307e-137
-1.8706e-137
-1.03064e-133
-4.60974e-133
-7.17558e-130
-4.30312e-129
-2.58003e-126
-1.31131e-125
-1.92021e-123
-9.47442e-123
-7.45495e-122
-9.69749e-121
-4.48239e-125
-8.76823e-120
7.44648e-122
-8.7685e-120
1.90736e-123
-9.70081e-121
6.25683e-126
-8.50692e-123
9.49995e-128
-1.65065e-124
1.89644e-131
-3.01808e-127
1.80522e-136
-7.23382e-132
1.08064e-141
-3.94532e-137
4.80657e-147
-1.25581e-142
8.11822e-155
6.37552e-152
5.50435e-156
2.29506e-156
3.13923e-160
2.27228e-160
2.10368e-164
2.09043e-164
1.02803e-168
1.58185e-168
2.85838e-173
7.27795e-173
3.43027e-178
1.85583e-177
2.01492e-182
-1.2388e-169
1.17646e-173
-5.95295e-165
6.75035e-169
-1.2916e-160
1.5266e-164
-2.78797e-156
2.16382e-160
-4.12331e-155
3.04658e-156
-1.82338e-150
1.00114e-151
-7.22419e-146
2.46454e-147
-2.68489e-141
3.25018e-143
-7.5338e-137
-2.26609e-137
-1.12376e-132
-1.6562e-132
-7.91619e-129
-3.38487e-128
-5.15508e-125
-2.64218e-124
-1.56282e-121
-6.86624e-121
-1.02448e-118
-4.38363e-118
-3.66648e-117
-4.13817e-116
-1.85842e-120
-3.59771e-115
3.66299e-117
-3.59782e-115
1.01751e-118
-4.13956e-116
3.75845e-121
-3.93649e-118
6.04276e-123
-9.12965e-120
1.41439e-126
-1.89103e-122
1.68428e-131
-5.53688e-127
1.23587e-136
-3.71792e-132
6.64882e-142
-1.43711e-137
1.36642e-149
1.07162e-146
3.46951e-154
4.66463e-151
1.53058e-155
1.89509e-155
1.31646e-159
1.88257e-159
8.38899e-164
1.29992e-163
3.44584e-168
8.83485e-168
5.94008e-173
3.23599e-172
4.8557e-177
-1.18813e-164
1.68845e-168
-4.19826e-160
6.50492e-164
-9.0858e-156
1.372e-159
-1.82139e-154
1.97959e-155
-7.86547e-150
6.99991e-151
-2.87276e-145
1.90183e-146
-9.39576e-141
3.86347e-142
-2.88135e-136
4.20737e-138
-6.69577e-132
-1.98732e-132
-8.35882e-128
-1.20139e-127
-5.0142e-124
-2.03681e-123
-3.03855e-120
-1.33049e-119
-7.77372e-117
-2.95182e-116
-4.48865e-114
-1.6664e-113
-1.48082e-112
-1.45116e-111
-6.35155e-116
-1.21319e-110
1.47963e-112
-1.21322e-110
4.45751e-114
-1.45164e-111
1.85459e-116
-1.49662e-113
3.15788e-118
-4.14442e-115
8.65543e-122
-9.71906e-118
1.28982e-126
-3.47457e-122
1.16246e-131
-2.87684e-127
7.57383e-137
-1.35179e-132
1.90373e-144
1.48557e-141
5.85543e-149
7.83301e-146
1.59482e-153
3.85579e-150
1.58536e-155
1.41901e-154
4.37342e-159
9.71133e-159
2.25548e-163
5.81153e-163
5.90542e-168
3.23244e-167
7.21056e-172
-7.62691e-160
1.47201e-163
-1.65265e-155
6.36947e-159
-7.58755e-154
1.13901e-154
-3.46688e-149
4.54067e-150
-1.2363e-144
1.32436e-145
-3.72689e-140
2.96682e-141
-1.00556e-135
4.96976e-137
-2.54256e-131
4.46642e-133
-4.89312e-127
-1.42877e-127
-5.12015e-123
-7.14525e-123
-2.82556e-119
-1.00536e-118
-1.47019e-115
-5.50095e-115
-3.17716e-112
-1.0432e-111
-1.61605e-109
-5.21151e-109
-4.91436e-108
-4.18768e-107
-1.79579e-111
-3.36679e-106
4.91102e-108
-3.36687e-106
1.60459e-109
-4.18903e-107
7.52083e-112
-4.68122e-109
1.35621e-113
-1.545e-110
4.34814e-117
-4.1e-113
8.11029e-122
-1.78891e-117
8.99422e-127
-1.8288e-122
7.10282e-132
-1.04545e-127
2.19367e-139
1.69782e-136
8.17876e-144
1.08485e-140
2.699e-148
6.47624e-145
7.56785e-153
2.89064e-149
3.18338e-156
9.90985e-154
1.1749e-158
3.60283e-158
3.21502e-163
1.76633e-162
5.99063e-167
-1.65323e-155
1.39271e-158
-2.60604e-153
5.14554e-154
-1.43984e-148
2.60515e-149
-5.43422e-144
8.55945e-145
-1.59989e-139
2.05743e-140
-3.97959e-135
3.79841e-136
-8.85445e-131
5.24425e-132
-1.84506e-126
3.88829e-128
-2.94142e-122
-8.42315e-123
-2.58461e-118
-3.48616e-118
-1.35957e-114
-4.07351e-114
-5.841e-111
-1.86902e-110
-1.06734e-107
-3.0337e-107
-4.78289e-105
-1.34229e-104
-1.34066e-103
-9.95522e-103
-4.20786e-107
-7.69772e-102
1.33988e-103
-7.69789e-102
4.7482e-105
-9.95836e-103
2.50717e-107
-1.20589e-104
4.78746e-109
-4.73149e-106
1.79366e-112
-1.42018e-108
4.18817e-117
-7.55998e-113
5.72473e-122
-9.55417e-118
5.48267e-127
-6.64858e-123
2.08989e-134
1.59929e-131
9.44868e-139
1.23856e-135
3.77895e-143
8.97093e-140
1.28344e-147
4.85869e-144
3.40033e-152
2.02119e-148
6.18272e-157
6.15119e-153
2.34871e-158
1.37444e-157
3.75576e-162
-5.43747e-153
1.35221e-153
-4.92292e-148
1.17286e-148
-2.24817e-143
4.89239e-144
-7.00973e-139
1.32435e-139
-1.70388e-134
2.62269e-135
-3.49688e-130
3.98927e-131
-6.41484e-126
4.53829e-127
-1.10126e-121
2.77575e-123
-1.45509e-117
-4.07254e-118
-1.07583e-113
-1.39585e-113
-5.36483e-110
-1.35559e-109
-1.90581e-106
-5.22213e-106
-2.94799e-103
-7.26542e-103
-1.16396e-100
-2.84977e-100
-3.00726e-99
-1.9514e-98
-8.1773e-103
-1.45134e-97
3.00574e-99
-1.45137e-97
1.15531e-100
-1.952e-98
6.87188e-103
-2.56062e-100
1.3892e-104
-1.19059e-101
6.07674e-108
-4.0402e-104
1.77635e-112
-2.62305e-108
2.99749e-117
-4.1027e-113
3.48268e-122
-3.47698e-118
1.64604e-129
1.24149e-126
9.02607e-134
1.16526e-130
4.37536e-138
1.02429e-134
1.79985e-142
6.73353e-139
5.7721e-147
3.39991e-143
1.26386e-151
1.2559e-147
1.39772e-156
3.01055e-152
3.67757e-157
-1.02042e-147
3.06978e-148
-7.64367e-143
2.19338e-143
-2.88658e-138
7.53696e-139
-7.43799e-134
1.68067e-134
-1.49305e-129
2.74173e-130
-2.52842e-125
3.43537e-126
-3.82403e-121
3.21984e-122
-5.40768e-117
1.6247e-118
-5.92593e-113
-1.61498e-113
-3.69452e-109
-4.588e-109
-1.73602e-105
-3.70684e-105
-5.10716e-102
-1.20061e-101
-6.69523e-99
-1.43397e-98
-2.32951e-96
-4.99109e-96
-5.54743e-95
-3.15658e-94
-1.31765e-98
-2.2584e-93
5.54498e-95
-2.25843e-93
2.31178e-96
-3.15752e-94
1.54876e-98
-4.48551e-96
3.31379e-100
-2.46182e-97
1.69095e-103
-9.4408e-100
6.18798e-108
-7.47296e-104
1.29108e-112
-1.44817e-108
1.82019e-117
-1.49522e-113
1.07201e-124
7.94179e-122
7.1299e-129
9.0321e-126
4.18862e-133
9.63676e-130
2.08648e-137
7.69042e-134
8.09683e-142
4.71389e-138
2.14391e-146
2.1138e-142
2.86194e-151
6.15108e-147
8.60829e-152
-1.57178e-142
5.71331e-143
-9.74902e-138
3.36259e-138
-3.04656e-133
9.51794e-134
-6.4909e-129
1.74829e-129
-1.07638e-124
2.34927e-125
-1.50443e-120
2.42472e-121
-1.87604e-116
1.8723e-117
-2.18517e-112
7.796e-114
-1.9876e-108
-5.25279e-109
-1.0472e-104
-1.23827e-104
-4.6064e-101
-8.33246e-101
-1.12404e-97
-2.27258e-97
-1.2504e-94
-2.33399e-94
-3.83455e-92
-7.21647e-92
-8.41634e-91
-4.21694e-90
-1.75933e-94
-2.90264e-89
8.41304e-91
-2.90267e-89
3.80465e-92
-4.21816e-90
2.87032e-94
-6.48678e-92
6.49794e-96
-4.18305e-93
3.86481e-99
-1.81206e-95
1.77035e-103
-1.74819e-99
4.57412e-108
-4.20179e-104
7.82564e-113
-5.28674e-109
5.77501e-120
4.18667e-117
4.65835e-124
5.76723e-121
3.31586e-128
7.46891e-125
1.99941e-132
7.23599e-129
9.38378e-137
5.38459e-133
3.00265e-141
2.93127e-137
4.84076e-146
1.03552e-141
1.75934e-146
-1.98588e-137
8.71025e-138
-1.02098e-132
4.22288e-133
-2.64242e-128
9.84646e-129
-4.65815e-124
1.48987e-124
-6.38452e-120
1.64914e-120
-7.36725e-116
1.40211e-116
-7.57608e-112
8.92018e-113
-7.26849e-108
3.06615e-109
-5.49254e-104
-1.4013e-104
-2.47018e-100
-2.745e-100
-1.00211e-96
-1.54032e-96
-2.03171e-93
-3.54354e-93
-1.92039e-90
-3.13487e-90
-5.19166e-88
-8.62003e-88
-1.05023e-86
-4.65598e-86
-1.94444e-90
-3.08372e-85
1.04986e-86
-3.08375e-85
5.15021e-88
-4.65729e-86
4.37435e-90
-7.75018e-88
1.04737e-91
-5.84056e-89
7.2553e-95
-2.85683e-91
4.15919e-99
-3.35792e-95
1.33283e-103
-1.002e-99
2.76713e-108
-1.53665e-104
2.57464e-115
1.81901e-112
2.51838e-119
3.03341e-116
2.17131e-123
4.76806e-120
1.58406e-127
5.60777e-124
8.98536e-132
5.06591e-128
3.47159e-136
3.34784e-132
6.75216e-141
1.43572e-136
2.9612e-141
-2.05696e-132
1.08694e-132
-8.77676e-128
4.34129e-128
-1.88322e-123
8.33942e-124
-2.74902e-119
1.03955e-119
-3.11608e-115
9.47956e-116
-2.96983e-111
6.63971e-112
-2.51906e-107
3.48082e-108
-1.99075e-103
9.88205e-105
-1.25102e-99
-3.06593e-100
-5.34107e-96
-4.99898e-96
-1.78708e-92
-2.34259e-92
-3.01564e-89
-4.55398e-89
-2.42536e-86
-3.47681e-86
-5.78157e-84
-8.51246e-84
-1.07791e-82
-4.25183e-82
-1.77701e-86
-2.70997e-81
1.07757e-82
-2.70999e-81
5.73434e-84
-4.25299e-82
5.48177e-86
-7.6554e-84
1.38762e-87
-6.70042e-85
1.11864e-90
-3.69917e-87
8.02304e-95
-5.29531e-91
3.19363e-99
-1.96361e-95
8.0453e-104
-3.67077e-100
9.50488e-111
6.51443e-108
1.12714e-114
1.31425e-111
1.17662e-118
2.50697e-115
1.03794e-122
3.579e-119
7.11008e-127
3.92463e-123
3.31349e-131
3.14823e-127
7.76532e-136
1.63881e-131
4.10292e-136
-1.74578e-127
1.10937e-127
-6.19149e-123
3.65086e-123
-1.10272e-118
5.77869e-119
-1.33416e-114
5.93544e-115
-1.25156e-110
4.45959e-111
-9.85664e-107
2.57373e-107
-6.89804e-103
1.11205e-103
-4.4908e-99
2.60928e-100
-2.34908e-95
-5.50124e-96
-9.45521e-92
-7.48058e-92
-2.61186e-88
-2.93228e-88
-3.67517e-85
-4.82638e-85
-2.51877e-82
-3.18611e-82
-5.29576e-80
-6.95449e-80
-9.09927e-79
-3.21367e-78
-1.34129e-82
-1.97137e-77
9.09668e-79
-1.97138e-77
5.25153e-80
-3.21452e-78
5.64841e-82
-6.25606e-80
1.51094e-83
-6.31512e-81
1.41646e-86
-3.93354e-83
1.27049e-90
-6.85462e-87
6.29155e-95
-3.16151e-91
1.92278e-99
-7.2043e-96
2.90754e-106
1.92343e-103
4.17889e-110
4.69048e-107
5.27922e-114
1.08557e-110
5.62727e-118
1.8809e-114
4.65087e-122
2.50325e-118
2.61124e-126
2.43704e-122
7.36249e-131
1.53961e-126
4.67813e-131
-1.21352e-122
9.25345e-123
-3.58351e-118
2.50972e-118
-5.30483e-114
3.27397e-114
-5.32512e-110
2.77145e-110
-4.13729e-106
1.71611e-106
-2.69386e-102
8.16238e-103
-1.55597e-98
2.90755e-99
-8.34597e-95
5.64287e-96
-3.63717e-91
-8.09476e-92
-1.36983e-87
-9.20049e-88
-3.12776e-84
-3.02222e-84
-3.67696e-81
-4.22053e-81
-2.15078e-78
-2.41396e-78
-3.98968e-76
-4.70358e-76
-6.31746e-75
-2.01176e-74
-8.35341e-79
-1.18789e-73
6.31582e-75
-1.18789e-73
3.95564e-76
-2.01228e-74
4.78516e-78
-4.23256e-76
1.35203e-79
-4.88903e-77
1.47282e-82
-3.43442e-79
1.65127e-86
-7.28218e-83
1.01881e-90
-4.18091e-87
3.77604e-95
-1.16118e-91
7.37476e-102
4.68311e-99
1.28425e-105
1.37902e-102
1.96236e-109
3.87134e-106
2.52562e-113
8.13895e-110
2.51589e-117
1.31436e-113
1.69947e-121
1.55262e-117
5.75494e-126
1.19015e-121
4.38799e-126
-6.90574e-118
6.30287e-118
-1.70135e-113
1.40924e-113
-2.09654e-109
1.51557e-109
-1.74808e-105
1.05765e-105
-1.12576e-101
5.3988e-102
-6.06361e-98
2.11687e-98
-2.89163e-94
6.21879e-95
-1.27813e-90
9.99252e-92
-4.76384e-87
-9.76745e-88
-1.62347e-83
-9.30292e-84
-3.06815e-80
-2.56589e-80
-3.01951e-77
-3.04692e-77
-1.50995e-74
-1.51304e-74
-2.47201e-72
-2.6352e-72
-3.60713e-71
-1.04367e-70
-4.28812e-75
-5.93256e-70
3.60627e-71
-5.93256e-70
2.4505e-72
-1.04394e-70
3.33262e-74
-2.37216e-72
9.94084e-76
-3.10841e-73
1.25742e-78
-2.46168e-75
1.76107e-82
-6.34781e-79
1.3557e-86
-4.53977e-83
6.09072e-91
-1.5362e-87
1.55205e-97
9.40523e-95
3.27354e-101
3.34016e-98
6.04676e-105
1.13699e-101
9.38897e-109
2.89961e-105
1.12602e-112
5.68029e-109
9.13742e-117
8.1394e-113
3.70877e-121
7.56818e-117
3.38482e-121
-3.58563e-113
3.50317e-113
-6.62472e-109
6.45845e-109
-6.80665e-105
5.72808e-105
-4.7196e-101
3.29658e-101
-2.52146e-97
1.38768e-97
-1.12415e-93
4.4871e-94
-4.42778e-90
1.08759e-90
-1.61322e-86
1.44854e-87
-5.60096e-83
-9.66179e-84
-1.57333e-79
-7.73499e-80
-2.46461e-76
-1.79522e-76
-2.03485e-73
-1.81684e-73
-8.71441e-71
-7.84956e-71
-1.2596e-68
-1.22364e-68
-1.69367e-67
-4.48941e-67
-1.81287e-71
-2.45684e-66
1.6933e-67
-2.45684e-66
1.24844e-68
-4.49052e-67
1.90783e-70
-1.10194e-68
6.00476e-72
-1.62264e-69
8.81332e-75
-1.44817e-71
1.54078e-78
-4.53886e-75
1.4819e-82
-4.04579e-79
8.06454e-87
-1.66704e-83
2.71186e-93
1.55856e-90
6.92512e-97
6.66571e-94
1.54542e-100
2.7501e-97
2.89255e-104
8.5046e-101
4.17156e-108
2.02031e-104
4.05999e-112
3.51039e-108
2.19267e-116
3.95792e-112
2.14679e-116
-1.62751e-108
1.58724e-108
-2.48717e-104
2.41388e-104
-1.81493e-100
1.76601e-100
-1.04779e-96
8.38528e-97
-4.64794e-93
2.91203e-93
-1.71626e-89
7.76858e-90
-5.58558e-86
1.55438e-86
-1.67784e-82
1.71834e-83
-5.37851e-79
-7.83212e-80
-1.24622e-75
-5.2895e-76
-1.62071e-72
-1.0354e-72
-1.12507e-69
-8.95187e-70
-4.13395e-67
-3.37215e-67
-5.27772e-65
-4.71115e-65
-6.53874e-64
-1.60189e-63
-6.3064e-68
-8.44043e-63
6.53742e-64
-8.44039e-63
5.23015e-65
-1.60228e-63
8.97622e-67
-4.24456e-65
2.97938e-68
-6.95266e-66
5.07066e-71
-6.99045e-68
1.10557e-74
-2.66123e-71
1.3301e-78
-2.95775e-75
8.75859e-83
-1.48252e-79
3.93607e-89
2.13187e-86
1.21646e-92
1.09611e-89
3.27769e-96
5.47823e-93
7.38865e-100
2.05343e-96
1.27981e-103
5.9128e-100
1.74842e-107
1.24527e-103
1.14445e-111
1.70207e-107
1.11917e-111
-6.00637e-104
5.8556e-104
-7.58105e-100
7.34968e-100
-4.6109e-96
4.43808e-96
-1.91221e-92
1.73912e-92
-7.04919e-89
4.98529e-89
-2.15713e-85
1.09782e-85
-5.80332e-82
1.81442e-82
-1.46342e-78
1.66756e-79
-4.21527e-75
-5.20025e-76
-8.06395e-72
-2.97526e-72
-8.72154e-69
-4.92402e-69
-5.10227e-66
-3.64569e-66
-1.61149e-63
-1.2e-63
-1.81815e-61
-1.51262e-61
-2.07569e-60
-4.97554e-60
-1.80404e-64
-2.57745e-59
2.0753e-60
-2.57744e-59
1.80151e-61
-4.97673e-60
3.4703e-63
-1.36288e-61
1.21401e-64
-2.44443e-62
2.39429e-67
-2.76792e-64
6.50393e-71
-1.27903e-67
9.79818e-75
-1.77279e-71
7.79492e-79
-1.07927e-75
4.74721e-85
2.40789e-82
1.77488e-88
1.48528e-85
5.77058e-92
8.98681e-89
1.56533e-95
4.08086e-92
3.75942e-99
1.42361e-95
6.18273e-103
3.63284e-99
4.90163e-107
6.01604e-103
4.79298e-107
-1.8025e-99
1.75681e-99
-1.87887e-95
1.82098e-95
-9.44891e-92
9.08136e-92
-3.08094e-88
2.93882e-88
-8.79204e-85
6.95713e-85
-2.23106e-81
1.26545e-81
-5.00578e-78
1.72892e-78
-1.13787e-74
1.32368e-75
-2.69432e-71
-2.82588e-72
-4.2603e-68
-1.3765e-68
-3.839e-65
-1.93104e-65
-1.89742e-62
-1.22746e-62
-5.16304e-60
-3.72322e-60
-5.14999e-58
-4.4398e-58
-5.41658e-57
-1.34912e-56
-4.24003e-61
-6.71614e-56
5.41565e-57
-6.7161e-56
5.10221e-58
-1.34943e-56
1.10135e-59
-4.00283e-58
4.0615e-61
-7.04997e-59
9.2766e-64
-8.98692e-61
3.13595e-67
-5.03694e-64
5.92065e-71
-8.70558e-68
5.67794e-75
-6.42307e-72
4.75828e-81
2.2465e-78
2.15124e-84
1.65852e-81
8.43434e-88
1.21395e-84
2.94182e-91
6.6739e-88
9.02053e-95
2.81914e-91
1.79525e-98
8.71137e-95
1.72328e-102
1.74676e-98
1.68517e-102
-4.393e-95
4.28098e-95
-3.78475e-91
3.66705e-91
-1.57347e-87
1.51147e-87
-4.26194e-84
4.04251e-84
-9.57832e-81
7.90895e-81
-2.07908e-77
1.18916e-77
-3.86583e-74
1.34417e-74
-7.20878e-71
8.58932e-72
-1.40345e-67
-1.25532e-68
-1.83645e-64
-5.2369e-65
-1.38188e-61
-6.24852e-62
-5.78557e-59
-3.71382e-59
-1.35895e-56
-1.00424e-56
-1.19894e-54
-1.07089e-54
-1.16156e-53
-3.00602e-53
-8.18019e-58
-1.43784e-52
1.16137e-53
-1.43783e-52
1.18769e-54
-3.00672e-53
2.86787e-56
-9.66117e-55
1.11518e-57
-1.66727e-55
2.94853e-60
-2.39181e-57
1.23881e-63
-1.62454e-60
2.93278e-67
-3.49984e-64
3.37981e-71
-3.11937e-68
3.96348e-77
1.73204e-74
2.3718e-80
1.52618e-77
1.08775e-83
1.35049e-80
4.80749e-87
8.98177e-84
1.77739e-90
4.59079e-87
4.27952e-94
1.71644e-90
4.97082e-98
4.16426e-94
4.86134e-98
-8.68063e-91
8.45759e-91
-6.18586e-87
5.99219e-87
-2.12771e-83
2.04309e-83
-4.76833e-80
4.52031e-80
-8.83182e-77
7.31533e-77
-1.58361e-73
9.09941e-74
-2.43046e-70
8.51838e-71
-3.71692e-67
4.55424e-68
-5.95222e-64
-4.55069e-65
-6.45652e-61
-1.6683e-61
-4.06567e-58
-1.85284e-58
-1.44561e-55
-9.4183e-56
-2.9376e-53
-2.22192e-53
-2.29353e-51
-2.1211e-51
-2.04641e-50
-5.50129e-50
-1.29431e-54
-2.52804e-49
2.04611e-50
-2.52802e-49
2.27182e-51
-5.50254e-50
6.13093e-53
-1.91511e-51
2.51228e-54
-3.23112e-52
7.68618e-57
-5.21548e-54
4.00779e-60
-4.2889e-57
1.19004e-63
-1.15082e-60
1.64071e-67
-1.23343e-64
2.94523e-73
1.10402e-70
2.16414e-76
1.15762e-73
1.20058e-79
1.23697e-76
6.43535e-83
9.94427e-80
2.87563e-86
6.14469e-83
8.36976e-90
2.77723e-86
1.17541e-93
8.14518e-90
1.14962e-93
-1.38804e-86
1.35205e-86
-8.18977e-83
7.93121e-83
-2.33291e-79
2.23942e-79
-4.32958e-76
4.10282e-76
-6.6131e-73
5.49791e-73
-9.80417e-70
5.66368e-70
-1.24289e-66
4.39663e-67
-1.55808e-63
1.97216e-64
-2.05389e-60
-1.38719e-61
-1.84978e-57
-4.76605e-58
-9.7704e-55
-4.48326e-55
-2.95869e-52
-1.95353e-52
-5.2137e-50
-4.02989e-50
-3.60425e-48
-3.44868e-48
-2.96104e-47
-8.26625e-47
-1.67804e-51
-3.649e-46
2.96064e-47
-3.64896e-46
3.56993e-48
-8.26811e-47
1.07562e-49
-3.11671e-48
4.64226e-51
-5.12805e-49
1.64277e-53
-9.31249e-51
1.0614e-56
-9.26282e-54
3.95227e-60
-3.09187e-57
6.4781e-64
-3.95904e-61
1.83421e-69
5.82026e-67
1.62495e-72
7.23675e-70
1.08897e-75
9.32578e-73
7.07408e-79
9.05262e-76
3.81738e-82
6.75539e-79
1.34174e-85
3.68718e-82
2.27587e-89
1.30584e-85
2.22604e-89
-1.79209e-82
1.74513e-82
-8.76616e-79
8.48659e-79
-2.0704e-75
1.98678e-75
-3.18619e-72
3.0179e-72
-4.01546e-69
3.35282e-69
-4.92664e-66
2.8641e-66
-5.16273e-63
1.84643e-63
-5.30386e-60
6.97072e-61
-5.7596e-57
-3.6938e-58
-4.31491e-54
-1.10614e-54
-1.91668e-51
-8.83926e-52
-4.95793e-49
-3.31155e-49
-7.59493e-47
-5.9884e-47
-4.65147e-45
-4.60078e-45
-3.51744e-44
-1.01937e-43
-1.78061e-48
-4.32187e-43
3.517e-44
-4.32182e-43
4.60704e-45
-1.0196e-43
1.54793e-46
-4.16244e-45
7.03309e-48
-6.66023e-46
2.8778e-50
-1.36071e-47
2.29988e-53
-1.63529e-50
1.07327e-56
-6.7784e-54
2.07276e-60
-1.0274e-57
9.40684e-66
2.53885e-63
1.00324e-68
3.72801e-66
8.11138e-72
5.7853e-69
6.3823e-75
6.77227e-72
4.15414e-78
6.09565e-75
1.76111e-81
4.01287e-78
3.60344e-85
1.71407e-81
3.52464e-85
-1.86359e-78
1.81415e-78
-7.56872e-75
7.32442e-75
-1.48436e-71
1.42381e-71
-1.89704e-68
1.79582e-68
-1.97371e-65
1.65652e-65
-2.00639e-62
1.17521e-62
-1.73963e-59
6.30294e-60
-1.46428e-56
2.00969e-57
-1.31109e-53
-7.85653e-55
-8.18803e-51
-2.08128e-51
-3.06731e-48
-1.41855e-48
-6.79895e-46
-4.58427e-46
-9.07744e-44
-7.28654e-44
-4.92794e-42
-5.03353e-42
-3.42876e-41
-1.03111e-40
-1.5444e-45
-4.19786e-40
3.42836e-41
-4.1978e-40
4.88089e-42
-1.03133e-40
1.82629e-43
-4.55964e-42
8.73183e-45
-7.07262e-43
4.13048e-47
-1.62584e-44
4.07513e-50
-2.35791e-47
2.38034e-53
-1.2108e-50
5.34698e-57
-2.14338e-54
3.97175e-62
9.16652e-60
5.09047e-65
1.58234e-62
4.95776e-68
2.95188e-65
4.72187e-71
4.16067e-68
3.70168e-74
4.5104e-71
1.89001e-77
3.57597e-74
4.65804e-81
1.83952e-77
4.55612e-81
-1.55653e-74
1.51461e-74
-5.25756e-71
5.08547e-71
-8.57734e-68
8.22321e-68
-9.11948e-65
8.62723e-65
-7.83831e-62
6.61912e-62
-6.61127e-59
3.90702e-59
-4.74822e-56
1.74685e-56
-3.27397e-53
4.72228e-54
-2.41979e-50
-1.32358e-51
-1.26279e-47
-3.16894e-48
-4.00148e-45
-1.85075e-45
-7.62576e-43
-5.17776e-43
-8.89771e-41
-7.25463e-41
-4.28392e-39
-4.51339e-39
-2.7411e-38
-8.5495e-38
-1.09298e-42
-3.34147e-37
2.7408e-38
-3.34142e-37
4.24319e-39
-8.55134e-38
1.7654e-40
-4.09437e-39
8.87894e-42
-6.13437e-40
4.85516e-44
-1.58719e-41
5.90078e-47
-2.77396e-44
4.30551e-50
-1.75895e-47
1.10371e-53
-3.56515e-51
1.38004e-58
2.73976e-56
2.12132e-61
5.53226e-59
2.48399e-64
1.2381e-61
2.86162e-67
2.09743e-64
2.69717e-70
2.73364e-67
1.65563e-73
2.60554e-70
4.90648e-77
1.6113e-73
4.79882e-77
-1.04073e-70
1.01219e-70
-2.92963e-67
2.83209e-67
-3.98427e-64
3.81731e-64
-3.53112e-61
3.33825e-61
-2.50963e-58
2.13475e-58
-1.75927e-55
1.05064e-55
-1.04803e-52
3.92552e-53
-5.91928e-50
9.0348e-51
-3.61611e-47
-1.74415e-48
-1.58111e-44
-3.89565e-45
-4.25184e-42
-1.96019e-42
-6.99119e-40
-4.76632e-40
-7.14909e-38
-5.90508e-38
-3.05409e-36
-3.31432e-36
-1.79593e-35
-5.80627e-35
-6.29694e-40
-2.17786e-34
1.79575e-35
-2.17783e-34
3.0253e-36
-5.8075e-35
1.39718e-37
-3.01163e-36
7.38979e-39
-4.34018e-37
4.67149e-41
-1.26471e-38
6.97739e-44
-2.65949e-41
6.33997e-47
-2.07336e-44
1.80116e-50
-4.66635e-48
3.94413e-55
6.77877e-53
7.25422e-58
1.59268e-55
1.01896e-60
4.26573e-58
1.41866e-63
8.66658e-61
1.60424e-66
1.35519e-63
1.18141e-69
1.5496e-66
4.20132e-73
1.14962e-69
4.10862e-73
-5.54919e-67
5.39357e-67
-1.305e-63
1.26064e-63
-1.48319e-60
1.4199e-60
-1.09848e-57
1.0376e-57
-6.46172e-55
5.54404e-55
-3.77239e-52
2.28092e-52
-1.8671e-49
7.14188e-50
-8.63874e-47
1.40573e-47
-4.36899e-44
-1.75883e-45
-1.60532e-41
-3.85596e-42
-3.67634e-39
-1.68246e-39
-5.23523e-37
-3.5714e-37
-4.70576e-35
-3.92568e-35
-1.78442e-33
-1.99137e-33
-9.63517e-33
-3.22667e-32
-2.9442e-37
-1.16105e-31
9.63429e-33
-1.16103e-31
1.76784e-33
-3.22735e-32
9.04513e-35
-1.81301e-33
5.03021e-36
-2.50108e-34
3.67711e-38
-8.2159e-36
6.73198e-41
-2.07497e-38
7.58282e-44
-1.97736e-41
2.2749e-47
-4.69708e-45
9.26482e-52
1.38749e-49