/*--------------------------------*- C++ -*----------------------------------*\
  =========                 |
  \\      /  F ield         | OpenFOAM: The Open Source CFD Toolbox
   \\    /   O peration     | Website:  https://openfoam.org
    \\  /    A nd           | Version:  9
     \\/     M anipulation  |
\*---------------------------------------------------------------------------*/
FoamFile
{
    format      ascii;
    class       volScalarField;
    location    "0.5";
    object      p;
}
// * * * * * * * * * * * * * * * * * * * * * * * * * * * * * * * * * * * * * //

dimensions      [1 -1 -2 0 0 0 0];

internalField   nonuniform List<scalar> 
4096
(
-1.6419e-06
0
3.93084e-06
9.35078e-06
1.5816e-05
2.30724e-05
3.09477e-05
3.92057e-05
4.75713e-05
5.57484e-05
6.34383e-05
7.03558e-05
7.62422e-05
8.08767e-05
8.40858e-05
8.575e-05
8.58091e-05
8.42641e-05
8.1178e-05
7.66725e-05
7.09244e-05
6.41577e-05
5.66361e-05
4.86517e-05
4.05145e-05
3.25401e-05
2.50377e-05
1.82979e-05
1.25814e-05
8.11123e-06
5.06563e-06
3.52478e-06
-0.0519343
-0.0519325
-0.0519287
-0.0519233
-0.0519167
-0.0519093
-0.0519012
-0.0518926
-0.051884
-0.0518755
-0.0518675
-0.0518604
-0.0518543
-0.0518495
-0.0518461
-0.0518444
-0.0518444
-0.051846
-0.0518492
-0.0518538
-0.0518598
-0.0518668
-0.0518746
-0.0518829
-0.0518913
-0.0518996
-0.0519074
-0.0519144
-0.0519203
-0.0519249
-0.0519281
-0.0519297
-0.103868
-0.103866
-0.103863
-0.103857
-0.10385
-0.103842
-0.103834
-0.103825
-0.103815
-0.103806
-0.103798
-0.10379
-0.103784
-0.103778
-0.103775
-0.103773
-0.103773
-0.103775
-0.103778
-0.103783
-0.103789
-0.103797
-0.103805
-0.103814
-0.103823
-0.103832
-0.103841
-0.103848
-0.103854
-0.103859
-0.103863
-0.103864
-0.155804
-0.155802
-0.155798
-0.155792
-0.155785
-0.155776
-0.155767
-0.155757
-0.155746
-0.155736
-0.155727
-0.155719
-0.155711
-0.155706
-0.155702
-0.1557
-0.1557
-0.155702
-0.155705
-0.155711
-0.155718
-0.155726
-0.155736
-0.155745
-0.155756
-0.155765
-0.155775
-0.155783
-0.15579
-0.155795
-0.155799
-0.155801
-0.207742
-0.20774
-0.207736
-0.207729
-0.207721
-0.207711
-0.2077
-0.207689
-0.207677
-0.207666
-0.207656
-0.207646
-0.207638
-0.207631
-0.207627
-0.207625
-0.207625
-0.207627
-0.207631
-0.207637
-0.207645
-0.207655
-0.207665
-0.207677
-0.207688
-0.207699
-0.207709
-0.207719
-0.207727
-0.207733
-0.207737
-0.207739
-0.259683
-0.25968
-0.259675
-0.259668
-0.259658
-0.259647
-0.259635
-0.259622
-0.259608
-0.259595
-0.259583
-0.259572
-0.259562
-0.259555
-0.25955
-0.259547
-0.259547
-0.25955
-0.259555
-0.259562
-0.259571
-0.259582
-0.259594
-0.259607
-0.25962
-0.259633
-0.259645
-0.259656
-0.259666
-0.259673
-0.259678
-0.25968
-0.311626
-0.311623
-0.311617
-0.311608
-0.311597
-0.311584
-0.31157
-0.311554
-0.311539
-0.311524
-0.311509
-0.311496
-0.311485
-0.311476
-0.31147
-0.311467
-0.311467
-0.31147
-0.311476
-0.311485
-0.311496
-0.311509
-0.311523
-0.311538
-0.311553
-0.311568
-0.311583
-0.311595
-0.311606
-0.311615
-0.31162
-0.311623
-0.363571
-0.363568
-0.363561
-0.363551
-0.363538
-0.363523
-0.363505
-0.363487
-0.363469
-0.363451
-0.363434
-0.363419
-0.363406
-0.363395
-0.363388
-0.363385
-0.363384
-0.363388
-0.363395
-0.363405
-0.363418
-0.363433
-0.36345
-0.363468
-0.363486
-0.363504
-0.363521
-0.363536
-0.363549
-0.363559
-0.363566
-0.36357
-0.415521
-0.415517
-0.415508
-0.415496
-0.415481
-0.415463
-0.415442
-0.415421
-0.415399
-0.415377
-0.415357
-0.415339
-0.415323
-0.415311
-0.415302
-0.415298
-0.415298
-0.415302
-0.415311
-0.415323
-0.415338
-0.415357
-0.415377
-0.415398
-0.41542
-0.415441
-0.415462
-0.41548
-0.415495
-0.415507
-0.415515
-0.415519
-0.467475
-0.46747
-0.46746
-0.467445
-0.467427
-0.467405
-0.467381
-0.467355
-0.467328
-0.467303
-0.467278
-0.467256
-0.467238
-0.467223
-0.467213
-0.467208
-0.467207
-0.467213
-0.467223
-0.467237
-0.467256
-0.467278
-0.467302
-0.467328
-0.467354
-0.46738
-0.467404
-0.467426
-0.467444
-0.467458
-0.467468
-0.467473
-0.519433
-0.519427
-0.519416
-0.519398
-0.519376
-0.51935
-0.51932
-0.519289
-0.519258
-0.519226
-0.519197
-0.519171
-0.519148
-0.51913
-0.519118
-0.519112
-0.519112
-0.519118
-0.51913
-0.519148
-0.51917
-0.519197
-0.519226
-0.519257
-0.519288
-0.519319
-0.519349
-0.519375
-0.519397
-0.519414
-0.519426
-0.519432
-0.571398
-0.571391
-0.571377
-0.571356
-0.571329
-0.571297
-0.571262
-0.571224
-0.571186
-0.571148
-0.571113
-0.571081
-0.571054
-0.571032
-0.571018
-0.57101
-0.57101
-0.571017
-0.571032
-0.571053
-0.571081
-0.571112
-0.571148
-0.571185
-0.571224
-0.571261
-0.571296
-0.571328
-0.571355
-0.571376
-0.57139
-0.571397
-0.623371
-0.623362
-0.623345
-0.623319
-0.623287
-0.623248
-0.623206
-0.62316
-0.623114
-0.623068
-0.623025
-0.622987
-0.622954
-0.622928
-0.62291
-0.622901
-0.622901
-0.62291
-0.622928
-0.622954
-0.622986
-0.623025
-0.623068
-0.623113
-0.62316
-0.623205
-0.623247
-0.623286
-0.623318
-0.623343
-0.623361
-0.62337
-0.675352
-0.675341
-0.67532
-0.675289
-0.67525
-0.675204
-0.675152
-0.675097
-0.675041
-0.674986
-0.674934
-0.674887
-0.674847
-0.674816
-0.674794
-0.674783
-0.674783
-0.674794
-0.674815
-0.674847
-0.674886
-0.674933
-0.674985
-0.67504
-0.675096
-0.675151
-0.675203
-0.675249
-0.675289
-0.675319
-0.67534
-0.675351
-0.727344
-0.727331
-0.727306
-0.727268
-0.727221
-0.727164
-0.727102
-0.727035
-0.726967
-0.7269
-0.726837
-0.72678
-0.726732
-0.726694
-0.726667
-0.726654
-0.726654
-0.726667
-0.726693
-0.726731
-0.72678
-0.726836
-0.726899
-0.726966
-0.727034
-0.727101
-0.727164
-0.72722
-0.727267
-0.727305
-0.72733
-0.727343
-0.779349
-0.779333
-0.779303
-0.779257
-0.779199
-0.779131
-0.779055
-0.778974
-0.778892
-0.77881
-0.778734
-0.778665
-0.778606
-0.77856
-0.778528
-0.778512
-0.778512
-0.778528
-0.77856
-0.778606
-0.778665
-0.778734
-0.77881
-0.778891
-0.778974
-0.779055
-0.779131
-0.779199
-0.779257
-0.779302
-0.779332
-0.779348
-0.83137
-0.831351
-0.831314
-0.831259
-0.831189
-0.831106
-0.831014
-0.830915
-0.830815
-0.830717
-0.830624
-0.83054
-0.830468
-0.830412
-0.830374
-0.830354
-0.830354
-0.830374
-0.830412
-0.830468
-0.830539
-0.830623
-0.830716
-0.830815
-0.830915
-0.831013
-0.831105
-0.831188
-0.831258
-0.831313
-0.83135
-0.831369
-0.88341
-0.883387
-0.883342
-0.883275
-0.88319
-0.88309
-0.882978
-0.882859
-0.882737
-0.882617
-0.882504
-0.882402
-0.882316
-0.882247
-0.8822
-0.882176
-0.882176
-0.8822
-0.882247
-0.882315
-0.882402
-0.882504
-0.882617
-0.882736
-0.882858
-0.882977
-0.883089
-0.88319
-0.883275
-0.883341
-0.883386
-0.883409
-0.935474
-0.935446
-0.935391
-0.93531
-0.935207
-0.935085
-0.934949
-0.934804
-0.934656
-0.934511
-0.934374
-0.93425
-0.934145
-0.934062
-0.934005
-0.933976
-0.933976
-0.934005
-0.934062
-0.934145
-0.93425
-0.934374
-0.934511
-0.934656
-0.934804
-0.934949
-0.935084
-0.935206
-0.93531
-0.93539
-0.935445
-0.935473
-0.987566
-0.987532
-0.987465
-0.987367
-0.987242
-0.987094
-0.986929
-0.986753
-0.986574
-0.986397
-0.98623
-0.98608
-0.985952
-0.985851
-0.985782
-0.985746
-0.985746
-0.985781
-0.985851
-0.985952
-0.98608
-0.98623
-0.986397
-0.986573
-0.986753
-0.986929
-0.987094
-0.987242
-0.987367
-0.987465
-0.987531
-0.987565
-1.03969
-1.03965
-1.03957
-1.03945
-1.0393
-1.03912
-1.03892
-1.03871
-1.03849
-1.03827
-1.03807
-1.03789
-1.03773
-1.03761
-1.03752
-1.03748
-1.03748
-1.03752
-1.03761
-1.03773
-1.03789
-1.03807
-1.03827
-1.03849
-1.03871
-1.03892
-1.03912
-1.0393
-1.03945
-1.03957
-1.03965
-1.03969
-1.09186
-1.09181
-1.09171
-1.09157
-1.09138
-1.09117
-1.09092
-1.09066
-1.0904
-1.09014
-1.08989
-1.08967
-1.08948
-1.08933
-1.08923
-1.08918
-1.08918
-1.08923
-1.08933
-1.08948
-1.08967
-1.08989
-1.09014
-1.0904
-1.09066
-1.09092
-1.09117
-1.09138
-1.09157
-1.09171
-1.09181
-1.09186
-1.14408
-1.14402
-1.1439
-1.14373
-1.1435
-1.14324
-1.14294
-1.14263
-1.14231
-1.14199
-1.14169
-1.14142
-1.14119
-1.14101
-1.14088
-1.14082
-1.14082
-1.14088
-1.14101
-1.14119
-1.14142
-1.14169
-1.14199
-1.14231
-1.14263
-1.14294
-1.14324
-1.1435
-1.14373
-1.1439
-1.14402
-1.14408
-1.19636
-1.19629
-1.19614
-1.19593
-1.19566
-1.19534
-1.19498
-1.1946
-1.19421
-1.19382
-1.19346
-1.19313
-1.19285
-1.19263
-1.19247
-1.1924
-1.1924
-1.19247
-1.19263
-1.19285
-1.19313
-1.19346
-1.19382
-1.19421
-1.1946
-1.19498
-1.19534
-1.19566
-1.19593
-1.19614
-1.19629
-1.19636
-1.24871
-1.24863
-1.24845
-1.2482
-1.24787
-1.24748
-1.24704
-1.24658
-1.24611
-1.24564
-1.24519
-1.24479
-1.24445
-1.24418
-1.24399
-1.2439
-1.2439
-1.24399
-1.24418
-1.24445
-1.24479
-1.24519
-1.24564
-1.2461
-1.24658
-1.24704
-1.24748
-1.24787
-1.2482
-1.24845
-1.24863
-1.24871
-1.30116
-1.30105
-1.30084
-1.30053
-1.30013
-1.29966
-1.29914
-1.29857
-1.298
-1.29743
-1.29689
-1.2964
-1.29598
-1.29565
-1.29543
-1.29531
-1.29531
-1.29543
-1.29565
-1.29598
-1.2964
-1.29689
-1.29743
-1.298
-1.29857
-1.29914
-1.29966
-1.30013
-1.30053
-1.30084
-1.30105
-1.30116
-1.35371
-1.35359
-1.35333
-1.35296
-1.35247
-1.3519
-1.35126
-1.35058
-1.34988
-1.34919
-1.34853
-1.34794
-1.34743
-1.34703
-1.34675
-1.34661
-1.34661
-1.34675
-1.34703
-1.34743
-1.34794
-1.34853
-1.34919
-1.34988
-1.35058
-1.35126
-1.3519
-1.35247
-1.35295
-1.35333
-1.35358
-1.35371
-1.4064
-1.40625
-1.40594
-1.40548
-1.4049
-1.40421
-1.40344
-1.40261
-1.40176
-1.40091
-1.40011
-1.39939
-1.39877
-1.39828
-1.39794
-1.39777
-1.39777
-1.39794
-1.39828
-1.39877
-1.39939
-1.40011
-1.40091
-1.40176
-1.40261
-1.40344
-1.40421
-1.4049
-1.40548
-1.40594
-1.40625
-1.4064
-1.45925
-1.45906
-1.45869
-1.45814
-1.45744
-1.4566
-1.45567
-1.45466
-1.45363
-1.4526
-1.45163
-1.45074
-1.44998
-1.44938
-1.44897
-1.44876
-1.44876
-1.44897
-1.44938
-1.44998
-1.45074
-1.45163
-1.4526
-1.45363
-1.45466
-1.45566
-1.4566
-1.45744
-1.45814
-1.45869
-1.45906
-1.45925
-1.51229
-1.51206
-1.51162
-1.51096
-1.51011
-1.5091
-1.50796
-1.50674
-1.50549
-1.50424
-1.50305
-1.50197
-1.50105
-1.50031
-1.4998
-1.49954
-1.49954
-1.4998
-1.50031
-1.50105
-1.50197
-1.50305
-1.50424
-1.50549
-1.50674
-1.50796
-1.5091
-1.51011
-1.51096
-1.51162
-1.51206
-1.51229
-1.56557
-1.5653
-1.56476
-1.56396
-1.56294
-1.56172
-1.56035
-1.55887
-1.55734
-1.55583
-1.55438
-1.55306
-1.55192
-1.55102
-1.5504
-1.55008
-1.55008
-1.5504
-1.55102
-1.55192
-1.55306
-1.55438
-1.55583
-1.55734
-1.55887
-1.56035
-1.56172
-1.56294
-1.56396
-1.56476
-1.56529
-1.56557
-1.61913
-1.6188
-1.61815
-1.6172
-1.61597
-1.6145
-1.61284
-1.61105
-1.6092
-1.60735
-1.60558
-1.60397
-1.60258
-1.60147
-1.6007
-1.60031
-1.60031
-1.6007
-1.60147
-1.60258
-1.60397
-1.60558
-1.60735
-1.6092
-1.61105
-1.61284
-1.61449
-1.61596
-1.6172
-1.61815
-1.6188
-1.61913
-1.67303
-1.67264
-1.67186
-1.67072
-1.66924
-1.66747
-1.66547
-1.6633
-1.66105
-1.6588
-1.65664
-1.65467
-1.65296
-1.6516
-1.65065
-1.65016
-1.65016
-1.65065
-1.6516
-1.65296
-1.65467
-1.65664
-1.6588
-1.66105
-1.6633
-1.66547
-1.66747
-1.66923
-1.67072
-1.67186
-1.67264
-1.67303
-1.72734
-1.72687
-1.72595
-1.72458
-1.7228
-1.72068
-1.71827
-1.71565
-1.71292
-1.71018
-1.70754
-1.70511
-1.70301
-1.70133
-1.70016
-1.69956
-1.69956
-1.70016
-1.70133
-1.70301
-1.70511
-1.70754
-1.71018
-1.71292
-1.71565
-1.71827
-1.72068
-1.7228
-1.72458
-1.72595
-1.72687
-1.72734
-1.78214
-1.78159
-1.78049
-1.77885
-1.77673
-1.77419
-1.77129
-1.76813
-1.76482
-1.76148
-1.75825
-1.75526
-1.75267
-1.75059
-1.74913
-1.74839
-1.74839
-1.74913
-1.75059
-1.75267
-1.75526
-1.75825
-1.76148
-1.76482
-1.76813
-1.77129
-1.77419
-1.77673
-1.77885
-1.78048
-1.78159
-1.78214
-1.83753
-1.83688
-1.83557
-1.83364
-1.83111
-1.82807
-1.82459
-1.82078
-1.81677
-1.8127
-1.80874
-1.80507
-1.80185
-1.79927
-1.79745
-1.79652
-1.79652
-1.79745
-1.79927
-1.80185
-1.80507
-1.80874
-1.8127
-1.81677
-1.82078
-1.82459
-1.82807
-1.83111
-1.83363
-1.83557
-1.83688
-1.83753
-1.89363
-1.89286
-1.89132
-1.88903
-1.88604
-1.88242
-1.87826
-1.87367
-1.86882
-1.86386
-1.859
-1.85446
-1.85047
-1.84724
-1.84497
-1.84379
-1.84379
-1.84497
-1.84724
-1.85047
-1.85446
-1.859
-1.86386
-1.86882
-1.87367
-1.87826
-1.88242
-1.88604
-1.88903
-1.89132
-1.89286
-1.89363
-1.95057
-1.94967
-1.94787
-1.94518
-1.94165
-1.93735
-1.93239
-1.92689
-1.92103
-1.91498
-1.90902
-1.9034
-1.89841
-1.89436
-1.89149
-1.89001
-1.89001
-1.89149
-1.89436
-1.89841
-1.9034
-1.90902
-1.91498
-1.92103
-1.92689
-1.93239
-1.93735
-1.94165
-1.94518
-1.94787
-1.94967
-1.95057
-2.00851
-2.00746
-2.00537
-2.00223
-1.99809
-1.99303
-1.98714
-1.98057
-1.97349
-1.96613
-1.95879
-1.95181
-1.94556
-1.94044
-1.9368
-1.9349
-1.9349
-1.9368
-1.94044
-1.94556
-1.95181
-1.95879
-1.96613
-1.97349
-1.98057
-1.98714
-1.99303
-1.99809
-2.00223
-2.00537
-2.00746
-2.00851
-2.06763
-2.06642
-2.06401
-2.06037
-2.05556
-2.04963
-2.04269
-2.03486
-2.02633
-2.01739
-2.00836
-1.99966
-1.99179
-1.98527
-1.9806
-1.97816
-1.97816
-1.9806
-1.98527
-1.99179
-1.99966
-2.00835
-2.01739
-2.02633
-2.03486
-2.04269
-2.04963
-2.05556
-2.06037
-2.064
-2.06642
-2.06763
-2.12813
-2.12676
-2.124
-2.11983
-2.11429
-2.10741
-2.09928
-2.09001
-2.07981
-2.06894
-2.05782
-2.04695
-2.03698
-2.02861
-2.02255
-2.01937
-2.01937
-2.02255
-2.02861
-2.03698
-2.04695
-2.05782
-2.06894
-2.07981
-2.09001
-2.09928
-2.10741
-2.11429
-2.11983
-2.124
-2.12676
-2.12813
-2.19024
-2.1887
-2.18559
-2.18088
-2.17457
-2.16668
-2.15725
-2.14637
-2.13421
-2.12106
-2.10736
-2.09374
-2.08101
-2.07017
-2.06223
-2.05804
-2.05804
-2.06223
-2.07017
-2.08101
-2.09374
-2.10736
-2.12106
-2.13421
-2.14637
-2.15725
-2.16668
-2.17457
-2.18088
-2.18559
-2.1887
-2.19024
-2.25421
-2.25251
-2.24907
-2.24382
-2.23674
-2.22781
-2.217
-2.20436
-2.19001
-2.17418
-2.15734
-2.14023
-2.12389
-2.10969
-2.09913
-2.09352
-2.09352
-2.09914
-2.10969
-2.12389
-2.14023
-2.15734
-2.17418
-2.19001
-2.20436
-2.217
-2.22781
-2.23674
-2.24382
-2.24907
-2.25251
-2.25421
-2.32031
-2.31848
-2.31473
-2.309
-2.30121
-2.29127
-2.27909
-2.26462
-2.24787
-2.229
-2.20839
-2.18687
-2.16574
-2.14692
-2.13268
-2.12505
-2.12505
-2.13268
-2.14692
-2.16574
-2.18687
-2.20839
-2.229
-2.24787
-2.26462
-2.27909
-2.29127
-2.30121
-2.309
-2.31473
-2.31847
-2.32031
-2.38881
-2.38687
-2.38291
-2.37679
-2.36842
-2.35761
-2.34419
-2.32794
-2.30873
-2.28655
-2.26155
-2.23455
-2.2071
-2.18184
-2.16232
-2.1518
-2.1518
-2.16232
-2.18184
-2.2071
-2.23455
-2.26155
-2.28655
-2.30873
-2.32794
-2.34419
-2.35761
-2.36842
-2.37679
-2.3829
-2.38687
-2.38881
-2.45997
-2.45799
-2.45391
-2.4476
-2.43887
-2.42748
-2.41311
-2.39538
-2.37389
-2.34831
-2.31857
-2.28497
-2.2492
-2.21484
-2.1876
-2.17301
-2.17301
-2.1876
-2.21484
-2.2492
-2.28497
-2.31857
-2.34831
-2.37389
-2.39538
-2.4131
-2.42748
-2.43887
-2.44759
-2.45391
-2.45799
-2.45997
-2.53402
-2.53208
-2.52805
-2.52179
-2.51306
-2.50153
-2.48677
-2.46819
-2.44509
-2.4167
-2.38232
-2.3412
-2.29457
-2.24693
-2.2084
-2.18819
-2.18819
-2.2084
-2.24693
-2.29457
-2.3412
-2.38232
-2.4167
-2.44509
-2.46819
-2.48677
-2.50153
-2.51306
-2.52179
-2.52805
-2.53207
-2.53402
-2.61114
-2.60933
-2.60557
-2.59969
-2.59144
-2.58044
-2.56614
-2.5478
-2.52442
-2.49472
-2.45732
-2.4087
-2.34867
-2.28164
-2.2267
-2.19819
-2.19819
-2.2267
-2.28164
-2.34867
-2.4087
-2.45732
-2.49472
-2.52441
-2.5478
-2.56614
-2.58044
-2.59144
-2.59969
-2.60557
-2.60932
-2.61113
-2.69139
-2.68984
-2.68659
-2.6815
-2.67433
-2.6647
-2.65206
-2.6356
-2.61412
-2.58591
-2.54816
-2.49751
-2.42454
-2.3309
-2.25086
-2.20996
-2.20996
-2.25086
-2.3309
-2.42455
-2.49751
-2.54816
-2.58591
-2.61412
-2.6356
-2.65206
-2.6647
-2.67433
-2.6815
-2.68659
-2.68984
-2.69139
-2.77476
-2.77358
-2.7711
-2.76723
-2.76179
-2.75451
-2.74498
-2.73254
-2.71623
-2.69482
-2.66618
-2.62104
-2.5383
-2.42822
-2.31676
-2.25775
-2.25775
-2.31676
-2.42822
-2.5383
-2.62104
-2.66618
-2.69482
-2.71622
-2.73254
-2.74498
-2.75451
-2.76179
-2.76723
-2.7711
-2.77358
-2.77476
-2.86106
-2.86036
-2.85888
-2.85662
-2.85352
-2.84953
-2.84452
-2.83828
-2.83068
-2.82213
-2.81093
-2.78063
-2.69791
-2.57001
-2.44984
-2.39101
-2.39101
-2.44984
-2.57001
-2.69791
-2.78063
-2.81093
-2.82213
-2.83068
-2.83828
-2.84451
-2.84952
-2.85352
-2.85662
-2.85888
-2.86035
-2.86106
-2.94996
-2.94981
-2.94951
-2.94912
-2.94878
-2.94867
-2.9491
-2.95056
-2.95432
-2.96242
-2.97027
-2.9531
-2.91404
-2.78902
-2.67519
-2.62889
-2.62889
-2.67519
-2.78902
-2.91404
-2.9531
-2.97026
-2.96242
-2.95432
-2.95056
-2.9491
-2.94867
-2.94877
-2.94912
-2.9495
-2.94981
-2.94996
-3.04101
-3.04144
-3.04236
-3.04391
-3.04639
-3.05022
-3.05609
-3.06538
-3.08046
-3.10362
-3.12998
-3.1372
-3.11713
-3.03498
-2.91796
-2.874
-2.874
-2.91796
-3.03498
-3.11713
-3.1372
-3.12997
-3.10361
-3.08045
-3.06537
-3.05609
-3.05021
-3.04639
-3.04391
-3.04235
-3.04144
-3.04101
-3.13367
-3.13466
-3.13671
-3.14005
-3.14502
-3.15219
-3.16253
-3.17772
-3.19959
-3.2296
-3.26724
-3.30892
-3.28431
-3.21799
-3.10795
-3.06371
-3.06371
-3.10795
-3.21799
-3.28431
-3.30891
-3.26723
-3.2296
-3.19958
-3.17771
-3.16253
-3.15219
-3.14502
-3.14005
-3.13671
-3.13466
-3.13367
-3.22739
-3.22886
-3.23189
-3.23669
-3.24359
-3.25307
-3.26604
-3.28334
-3.3053
-3.33233
-3.36529
-3.40945
-3.41499
-3.3401
-3.24848
-3.20531
-3.20531
-3.24848
-3.3401
-3.41498
-3.40943
-3.36528
-3.33232
-3.30529
-3.28333
-3.26604
-3.25306
-3.24359
-3.23669
-3.23188
-3.22886
-3.22738
-3.32164
-3.32352
-3.32735
-3.33327
-3.34147
-3.35223
-3.36582
-3.38167
-3.39899
-3.41709
-3.43494
-3.45506
-3.51931
-3.42752
-3.35089
-3.31688
-3.31688
-3.35089
-3.42752
-3.5193
-3.45505
-3.43493
-3.41708
-3.39898
-3.38166
-3.36581
-3.35222
-3.34146
-3.33327
-3.32734
-3.32352
-3.32164
-3.41599
-3.41823
-3.42272
-3.42953
-3.43864
-3.45001
-3.46296
-3.47596
-3.48747
-3.49666
-3.50198
-3.50452
-3.57662
-3.48832
-3.42612
-3.40131
-3.40131
-3.42612
-3.48832
-3.57661
-3.50451
-3.50198
-3.49665
-3.48746
-3.47596
-3.46295
-3.45
-3.43864
-3.42953
-3.42272
-3.41822
-3.41598
-3.51005
-3.51262
-3.51776
-3.52542
-3.53543
-3.54729
-3.55947
-3.56988
-3.57614
-3.57494
-3.56417
-3.5939
-3.60747
-3.53617
-3.48648
-3.46517
-3.46517
-3.48648
-3.53616
-3.60746
-3.59389
-3.56416
-3.57493
-3.57613
-3.56988
-3.55946
-3.54728
-3.53543
-3.52541
-3.51776
-3.51262
-3.51004
-3.6034
-3.60636
-3.61223
-3.62093
-3.63215
-3.64493
-3.65725
-3.66644
-3.66894
-3.65861
-3.63348
-3.66787
-3.63777
-3.58282
-3.54293
-3.52376
-3.52376
-3.54293
-3.58281
-3.63776
-3.66786
-3.63347
-3.6586
-3.66894
-3.66644
-3.65725
-3.64493
-3.63215
-3.62092
-3.61223
-3.60635
-3.6034
-3.69558
-3.69899
-3.70578
-3.71588
-3.72887
-3.74349
-3.7575
-3.76792
-3.7671
-3.73798
-3.7504
-3.73989
-3.68703
-3.63494
-3.5995
-3.58229
-3.58229
-3.5995
-3.63494
-3.68702
-3.73989
-3.75039
-3.73798
-3.7671
-3.76791
-3.75749
-3.74348
-3.72887
-3.71587
-3.70578
-3.69899
-3.69557
-3.78595
-3.78991
-3.79785
-3.80976
-3.8252
-3.84269
-3.85998
-3.87359
-3.87323
-3.83736
-3.84689
-3.79941
-3.74236
-3.69213
-3.65858
-3.64244
-3.64244
-3.65858
-3.69213
-3.74235
-3.7994
-3.84689
-3.83736
-3.87322
-3.87359
-3.85997
-3.84268
-3.82519
-3.80976
-3.79784
-3.78991
-3.78595
-3.87374
-3.87831
-3.88757
-3.90164
-3.92002
-3.94111
-3.96271
-3.97916
-3.96825
-3.96
-3.92822
-3.86425
-3.80212
-3.75338
-3.72144
-3.70575
-3.70575
-3.72144
-3.75338
-3.80212
-3.86424
-3.92821
-3.95999
-3.96825
-3.97915
-3.9627
-3.9411
-3.92001
-3.90164
-3.88756
-3.8783
-3.87374
-3.95799
-3.96317
-3.97384
-3.99021
-4.01159
-4.03633
-4.06183
-4.08375
-4.05436
-4.08736
-4.00667
-3.92994
-3.86537
-3.81802
-3.78742
-3.77238
-3.77238
-3.78742
-3.81802
-3.86537
-3.92994
-4.00666
-4.08735
-4.05435
-4.08374
-4.06182
-4.03632
-4.01159
-3.9902
-3.97383
-3.96316
-3.95798
-4.03765
-4.04341
-4.05543
-4.07379
-4.09788
-4.12633
-4.15571
-4.18249
-4.15984
-4.15985
-4.07426
-3.99261
-3.92999
-3.88581
-3.85724
-3.84328
-3.84328
-3.85724
-3.88581
-3.92998
-3.99261
-4.07425
-4.15985
-4.15983
-4.18249
-4.1557
-4.12632
-4.09787
-4.07378
-4.05542
-4.0434
-4.03765
-4.11171
-4.11803
-4.13104
-4.15055
-4.17624
-4.20723
-4.23926
-4.26732
-4.28322
-4.22401
-4.13343
-4.05459
-3.99742
-3.95781
-3.93247
-3.92011
-3.92011
-3.93246
-3.95781
-3.99742
-4.05459
-4.13342
-4.224
-4.28322
-4.26732
-4.23926
-4.20723
-4.17624
-4.15054
-4.13103
-4.11803
-4.11171
-4.17979
-4.18637
-4.19968
-4.21935
-4.24526
-4.27567
-4.30501
-4.32591
-4.3712
-4.28348
-4.18769
-4.11782
-4.06968
-4.03643
-4.01533
-4.00513
-4.00513
-4.01533
-4.03643
-4.06968
-4.11782
-4.18769
-4.28348
-4.37119
-4.3259
-4.30501
-4.27566
-4.24526
-4.21934
-4.19967
-4.18637
-4.17979
-4.24154
-4.24793
-4.2608
-4.28006
-4.30505
-4.33346
-4.35888
-4.36143
-4.39795
-4.32509
-4.24238
-4.18672
-4.14997
-4.12467
-4.10877
-4.10113
-4.10113
-4.10877
-4.12467
-4.14997
-4.18672
-4.24238
-4.32508
-4.39794
-4.36142
-4.35887
-4.33346
-4.30505
-4.28005
-4.26079
-4.24792
-4.24154
-4.29651
-4.30262
-4.31491
-4.33324
-4.3566
-4.38251
-4.40563
-4.41039
-4.43699
-4.37179
-4.30717
-4.26769
-4.2428
-4.2261
-4.21592
-4.21111
-4.21111
-4.21592
-4.2261
-4.2428
-4.26769
-4.30717
-4.37178
-4.43698
-4.41039
-4.40563
-4.38251
-4.3566
-4.33323
-4.3149
-4.30261
-4.29651
-4.34565
-4.35139
-4.36292
-4.37997
-4.40138
-4.42487
-4.4496
-4.47607
-4.48573
-4.42724
-4.3852
-4.36379
-4.3515
-4.3441
-4.34001
-4.33818
-4.33818
-4.34001
-4.3441
-4.3515
-4.36379
-4.3852
-4.42723
-4.48572
-4.47608
-4.4496
-4.42487
-4.40137
-4.37997
-4.36292
-4.35139
-4.34564
-4.39031
-4.39563
-4.40624
-4.42173
-4.44048
-4.45813
-4.47089
-4.54493
-4.53602
-4.4976
-4.48218
-4.47954
-4.48034
-4.48227
-4.48412
-4.48518
-4.48518
-4.48412
-4.48227
-4.48034
-4.47954
-4.48218
-4.4976
-4.53602
-4.54493
-4.47089
-4.45813
-4.44048
-4.42172
-4.40624
-4.39563
-4.39031
-4.43227
-4.43714
-4.44676
-4.46081
-4.47805
-4.4937
-4.50542
-4.59227
-4.59934
-4.59535
-4.60588
-4.62018
-4.63306
-4.64339
-4.65053
-4.65415
-4.65415
-4.65053
-4.64339
-4.63306
-4.62018
-4.60588
-4.59535
-4.59934
-4.59227
-4.50542
-4.4937
-4.47805
-4.46081
-4.44676
-4.43713
-4.43226
-4.47377
-4.47818
-4.4867
-4.49924
-4.51547
-4.52853
-4.59786
-4.6715
-4.70147
-4.73015
-4.76142
-4.78939
-4.81207
-4.82914
-4.8405
-4.84616
-4.84616
-4.8405
-4.82914
-4.81207
-4.78939
-4.76142
-4.73015
-4.70147
-4.6715
-4.59786
-4.52853
-4.51547
-4.49924
-4.48669
-4.47818
-4.47377
-4.51811
-4.52187
-4.52903
-4.53816
-4.55507
-4.61743
-4.72018
-4.79692
-4.8544
-4.90594
-4.95121
-4.98865
-5.01811
-5.03987
-5.0542
-5.0613
-5.0613
-5.0542
-5.03987
-5.01811
-4.98865
-4.95121
-4.90594
-4.8544
-4.79693
-4.72018
-4.61743
-4.55507
-4.53816
-4.52902
-4.52187
-4.51811
-4.55878
-4.56461
-4.58051
-4.62248
-4.69409
-4.7958
-4.89992
-4.98641
-5.0598
-5.12234
-5.17463
-5.21712
-5.25032
-5.27473
-5.29076
-5.2987
-5.2987
-5.29076
-5.27473
-5.25032
-5.21712
-5.17463
-5.12234
-5.0598
-4.98641
-4.89992
-4.7958
-4.69409
-4.62248
-4.58051
-4.56461
-4.55878
-4.71995
-4.74107
-4.78533
-4.85013
-4.9421
-5.04785
-5.146
-5.23406
-5.3101
-5.37463
-5.42848
-5.4723
-5.50662
-5.5319
-5.54853
-5.55677
-5.55677
-5.54853
-5.5319
-5.50662
-5.47231
-5.42848
-5.37463
-5.3101
-5.23406
-5.146
-5.04785
-4.9421
-4.85013
-4.78533
-4.74107
-4.71994
-5.05902
-5.08135
-5.12567
-5.18882
-5.26875
-5.35817
-5.44511
-5.52439
-5.5952
-5.6565
-5.70825
-5.75072
-5.7842
-5.80899
-5.82535
-5.83347
-5.83347
-5.82535
-5.80899
-5.7842
-5.75072
-5.70825
-5.6565
-5.5952
-5.52439
-5.44511
-5.35817
-5.26875
-5.18882
-5.12567
-5.08135
-5.05901
-5.45945
-5.47743
-5.51294
-5.56451
-5.62974
-5.70176
-5.77436
-5.84322
-5.90611
-5.96162
-6.00918
-6.04862
-6.07998
-6.10335
-6.11884
-6.12655
-6.12655
-6.11884
-6.10335
-6.07998
-6.04862
-6.00918
-5.96162
-5.90612
-5.84322
-5.77436
-5.70176
-5.62974
-5.5645
-5.51294
-5.47742
-5.45944
-5.86761
-5.88235
-5.91128
-5.9531
-6.00508
-6.06317
-6.12318
-6.18145
-6.23575
-6.28453
-6.32692
-6.36248
-6.39099
-6.41238
-6.42662
-6.43373
-6.43373
-6.42662
-6.41238
-6.391
-6.36248
-6.32692
-6.28453
-6.23575
-6.18145
-6.12318
-6.06317
-6.00508
-5.9531
-5.91128
-5.88235
-5.86761
-6.27736
-6.28928
-6.31258
-6.3461
-6.38777
-6.43477
-6.484
-6.53266
-6.57875
-6.62078
-6.65778
-6.68915
-6.71452
-6.73366
-6.74646
-6.75287
-6.75287
-6.74646
-6.73366
-6.71452
-6.68915
-6.65778
-6.62078
-6.57875
-6.53266
-6.484
-6.43477
-6.38777
-6.3461
-6.31258
-6.28928
-6.27736
-6.68517
-6.69476
-6.71347
-6.74038
-6.7739
-6.81192
-6.85216
-6.89248
-6.93119
-6.96695
-6.99878
-7.02601
-7.0482
-7.06504
-7.07635
-7.08202
-7.08202
-7.07635
-7.06504
-7.0482
-7.02601
-6.99878
-6.96695
-6.93119
-6.89248
-6.85216
-6.81192
-6.7739
-6.74038
-6.71347
-6.69476
-6.68517
-7.08971
-7.09742
-7.11246
-7.1341
-7.16109
-7.19188
-7.22473
-7.25802
-7.2903
-7.32044
-7.34753
-7.3709
-7.39006
-7.40468
-7.41454
-7.41949
-7.41949
-7.41454
-7.40468
-7.39006
-7.3709
-7.34753
-7.32044
-7.2903
-7.25802
-7.22474
-7.19188
-7.16109
-7.1341
-7.11246
-7.09742
-7.08971
-7.49057
-7.49677
-7.50888
-7.52631
-7.5481
-7.57306
-7.59989
-7.62731
-7.65411
-7.67936
-7.70224
-7.72211
-7.73849
-7.75105
-7.75955
-7.76383
-7.76383
-7.75955
-7.75105
-7.73849
-7.72211
-7.70224
-7.67936
-7.65411
-7.62731
-7.59989
-7.57306
-7.5481
-7.52631
-7.50888
-7.49677
-7.49057
-7.88783
-7.89283
-7.9026
-7.91666
-7.93429
-7.95456
-7.97648
-7.99903
-8.02123
-8.04228
-8.06149
-8.07827
-8.09218
-8.10288
-8.11014
-8.11381
-8.11381
-8.11014
-8.10288
-8.09218
-8.07827
-8.06149
-8.04228
-8.02123
-7.99903
-7.97648
-7.95456
-7.93429
-7.91666
-7.9026
-7.89283
-7.88783
-8.28178
-8.28582
-8.29372
-8.3051
-8.31938
-8.33588
-8.35379
-8.37231
-8.39067
-8.40818
-8.42424
-8.43834
-8.45007
-8.45914
-8.4653
-8.46841
-8.46841
-8.4653
-8.45914
-8.45007
-8.43834
-8.42424
-8.40818
-8.39067
-8.37232
-8.35379
-8.33588
-8.31938
-8.3051
-8.29372
-8.28582
-8.28178
-8.67281
-8.67608
-8.68247
-8.6917
-8.70331
-8.71674
-8.73139
-8.74662
-8.76177
-8.7763
-8.78968
-8.80148
-8.81134
-8.81897
-8.82417
-8.8268
-8.8268
-8.82417
-8.81897
-8.81134
-8.80148
-8.78968
-8.7763
-8.76177
-8.74662
-8.73139
-8.71674
-8.70331
-8.6917
-8.68247
-8.67608
-8.67281
-9.0613
-9.06396
-9.06915
-9.07664
-9.08609
-9.09705
-9.10904
-9.12155
-9.13405
-9.14609
-9.15721
-9.16705
-9.1753
-9.1817
-9.18607
-9.18828
-9.18828
-9.18607
-9.1817
-9.1753
-9.16705
-9.15721
-9.14609
-9.13405
-9.12155
-9.10904
-9.09705
-9.08609
-9.07664
-9.06915
-9.06396
-9.0613
-9.44764
-9.4498
-9.45402
-9.46012
-9.46782
-9.47678
-9.4866
-9.49687
-9.50718
-9.51713
-9.52637
-9.53456
-9.54144
-9.54679
-9.55044
-9.5523
-9.5523
-9.55044
-9.54679
-9.54144
-9.53456
-9.52637
-9.51713
-9.50718
-9.49687
-9.4866
-9.47678
-9.46782
-9.46012
-9.45402
-9.4498
-9.44764
-9.83215
-9.83391
-9.83734
-9.84232
-9.8486
-9.85593
-9.86398
-9.87243
-9.88092
-9.88915
-9.89679
-9.9036
-9.90932
-9.91378
-9.91683
-9.91838
-9.91838
-9.91683
-9.91378
-9.90932
-9.9036
-9.89679
-9.88915
-9.88092
-9.87243
-9.86398
-9.85593
-9.8486
-9.84232
-9.83734
-9.83391
-9.83215
-10.2151
-10.2166
-10.2194
-10.2234
-10.2286
-10.2346
-10.2412
-10.2481
-10.2551
-10.2619
-10.2682
-10.2739
-10.2786
-10.2823
-10.2849
-10.2862
-10.2862
-10.2849
-10.2823
-10.2786
-10.2739
-10.2682
-10.2619
-10.2551
-10.2481
-10.2412
-10.2346
-10.2286
-10.2234
-10.2194
-10.2166
-10.2151
-10.5968
-10.598
-10.6003
-10.6036
-10.6078
-10.6127
-10.6181
-10.6239
-10.6296
-10.6352
-10.6405
-10.6451
-10.6491
-10.6521
-10.6543
-10.6553
-10.6553
-10.6543
-10.6521
-10.6491
-10.6451
-10.6405
-10.6352
-10.6296
-10.6239
-10.6181
-10.6127
-10.6078
-10.6036
-10.6003
-10.598
-10.5968
-10.9774
-10.9784
-10.9803
-10.983
-10.9864
-10.9905
-10.9949
-10.9996
-11.0044
-11.009
-11.0133
-11.0172
-11.0204
-11.023
-11.0247
-11.0256
-11.0256
-11.0247
-11.023
-11.0204
-11.0172
-11.0133
-11.009
-11.0044
-10.9996
-10.9949
-10.9905
-10.9864
-10.983
-10.9803
-10.9784
-10.9774
-11.3572
-11.358
-11.3595
-11.3617
-11.3646
-11.3679
-11.3715
-11.3754
-11.3793
-11.3831
-11.3867
-11.3899
-11.3926
-11.3947
-11.3961
-11.3969
-11.3969
-11.3961
-11.3947
-11.3926
-11.3899
-11.3867
-11.3831
-11.3793
-11.3754
-11.3715
-11.3679
-11.3646
-11.3617
-11.3595
-11.358
-11.3572
-11.7362
-11.7368
-11.7381
-11.7399
-11.7422
-11.745
-11.748
-11.7511
-11.7544
-11.7575
-11.7604
-11.7631
-11.7653
-11.7671
-11.7683
-11.7689
-11.7689
-11.7683
-11.7671
-11.7653
-11.7631
-11.7604
-11.7575
-11.7544
-11.7511
-11.748
-11.745
-11.7422
-11.7399
-11.7381
-11.7368
-11.7362
-12.1146
-12.1151
-12.1162
-12.1177
-12.1196
-12.1218
-12.1243
-12.1269
-12.1295
-12.1321
-12.1345
-12.1367
-12.1386
-12.14
-12.141
-12.1415
-12.1415
-12.141
-12.14
-12.1386
-12.1367
-12.1345
-12.1321
-12.1295
-12.1269
-12.1243
-12.1218
-12.1196
-12.1177
-12.1162
-12.1151
-12.1146
-12.4925
-12.4929
-12.4938
-12.495
-12.4966
-12.4984
-12.5004
-12.5026
-12.5048
-12.5069
-12.5089
-12.5107
-12.5122
-12.5134
-12.5142
-12.5147
-12.5147
-12.5142
-12.5134
-12.5122
-12.5107
-12.5089
-12.5069
-12.5048
-12.5026
-12.5004
-12.4984
-12.4966
-12.495
-12.4938
-12.4929
-12.4925
-12.87
-12.8703
-12.871
-12.8721
-12.8733
-12.8748
-12.8765
-12.8783
-12.8801
-12.8818
-12.8835
-12.885
-12.8862
-12.8872
-12.8879
-12.8882
-12.8882
-12.8879
-12.8872
-12.8862
-12.885
-12.8835
-12.8818
-12.8801
-12.8783
-12.8765
-12.8748
-12.8733
-12.8721
-12.871
-12.8703
-12.87
-13.2471
-13.2474
-13.248
-13.2488
-13.2499
-13.2511
-13.2525
-13.254
-13.2554
-13.2569
-13.2582
-13.2595
-13.2605
-13.2613
-13.2619
-13.2622
-13.2622
-13.2619
-13.2613
-13.2605
-13.2595
-13.2582
-13.2569
-13.2554
-13.254
-13.2525
-13.2511
-13.2499
-13.2488
-13.248
-13.2474
-13.2471
-13.624
-13.6242
-13.6247
-13.6254
-13.6263
-13.6273
-13.6284
-13.6296
-13.6308
-13.632
-13.6331
-13.6341
-13.635
-13.6357
-13.6361
-13.6364
-13.6364
-13.6361
-13.6357
-13.635
-13.6341
-13.6331
-13.632
-13.6308
-13.6296
-13.6284
-13.6273
-13.6263
-13.6254
-13.6247
-13.6242
-13.624
-14.0006
-14.0008
-14.0012
-14.0018
-14.0025
-14.0033
-14.0042
-14.0052
-14.0062
-14.0072
-14.0081
-14.009
-14.0097
-14.0102
-14.0106
-14.0108
-14.0108
-14.0106
-14.0102
-14.0097
-14.009
-14.0081
-14.0072
-14.0062
-14.0052
-14.0042
-14.0033
-14.0025
-14.0018
-14.0012
-14.0008
-14.0006
-14.3771
-14.3772
-14.3775
-14.378
-14.3786
-14.3793
-14.38
-14.3809
-14.3817
-14.3825
-14.3833
-14.3839
-14.3845
-14.385
-14.3853
-14.3854
-14.3854
-14.3853
-14.385
-14.3845
-14.3839
-14.3833
-14.3825
-14.3817
-14.3809
-14.38
-14.3793
-14.3786
-14.378
-14.3775
-14.3772
-14.3771
-14.7533
-14.7535
-14.7537
-14.7541
-14.7546
-14.7552
-14.7558
-14.7565
-14.7571
-14.7578
-14.7584
-14.759
-14.7595
-14.7599
-14.7601
-14.7602
-14.7602
-14.7601
-14.7599
-14.7595
-14.759
-14.7584
-14.7578