/*--------------------------------*- C++ -*----------------------------------*\
  =========                 |
  \\      /  F ield         | OpenFOAM: The Open Source CFD Toolbox
   \\    /   O peration     | Website:  https://openfoam.org
    \\  /    A nd           | Version:  9
     \\/     M anipulation  |
\*---------------------------------------------------------------------------*/
FoamFile
{
    format      ascii;
    class       volScalarField;
    location    "0.5";
    object      p_rgh;
}
// * * * * * * * * * * * * * * * * * * * * * * * * * * * * * * * * * * * * * //

dimensions      [1 -1 -2 0 0 0 0];

internalField   nonuniform List<scalar> 
4096
(
-3.29766
-3.29766
-3.29766
-3.29765
-3.29765
-3.29764
-3.29763
-3.29762
-3.29761
-3.29761
-3.2976
-3.29759
-3.29759
-3.29758
-3.29758
-3.29758
-3.29758
-3.29758
-3.29758
-3.29759
-3.29759
-3.2976
-3.29761
-3.29761
-3.29762
-3.29763
-3.29764
-3.29764
-3.29765
-3.29765
-3.29766
-3.29766
-3.29766
-3.29766
-3.29766
-3.29765
-3.29765
-3.29764
-3.29763
-3.29762
-3.29761
-3.29761
-3.2976
-3.29759
-3.29758
-3.29758
-3.29758
-3.29757
-3.29757
-3.29758
-3.29758
-3.29758
-3.29759
-3.2976
-3.29761
-3.29761
-3.29762
-3.29763
-3.29764
-3.29764
-3.29765
-3.29766
-3.29766
-3.29766
-3.29767
-3.29767
-3.29766
-3.29766
-3.29765
-3.29764
-3.29763
-3.29762
-3.29761
-3.29761
-3.2976
-3.29759
-3.29758
-3.29758
-3.29757
-3.29757
-3.29757
-3.29757
-3.29758
-3.29758
-3.29759
-3.2976
-3.2976
-3.29761
-3.29762
-3.29763
-3.29764
-3.29765
-3.29765
-3.29766
-3.29766
-3.29766
-3.29767
-3.29767
-3.29767
-3.29766
-3.29765
-3.29764
-3.29763
-3.29762
-3.29761
-3.2976
-3.29759
-3.29759
-3.29758
-3.29757
-3.29757
-3.29757
-3.29757
-3.29757
-3.29757
-3.29758
-3.29759
-3.29759
-3.2976
-3.29761
-3.29762
-3.29763
-3.29764
-3.29765
-3.29766
-3.29766
-3.29767
-3.29767
-3.29768
-3.29768
-3.29767
-3.29766
-3.29766
-3.29765
-3.29764
-3.29762
-3.29761
-3.2976
-3.29759
-3.29758
-3.29757
-3.29757
-3.29756
-3.29756
-3.29756
-3.29756
-3.29757
-3.29757
-3.29758
-3.29759
-3.2976
-3.29761
-3.29762
-3.29763
-3.29764
-3.29765
-3.29766
-3.29767
-3.29767
-3.29767
-3.29769
-3.29768
-3.29768
-3.29767
-3.29766
-3.29765
-3.29764
-3.29763
-3.29761
-3.2976
-3.29759
-3.29758
-3.29757
-3.29756
-3.29755
-3.29755
-3.29755
-3.29755
-3.29756
-3.29757
-3.29758
-3.29759
-3.2976
-3.29761
-3.29762
-3.29764
-3.29765
-3.29766
-3.29767
-3.29768
-3.29768
-3.29768
-3.2977
-3.29769
-3.29769
-3.29768
-3.29767
-3.29766
-3.29764
-3.29763
-3.29761
-3.2976
-3.29758
-3.29757
-3.29756
-3.29755
-3.29754
-3.29754
-3.29754
-3.29754
-3.29755
-3.29756
-3.29757
-3.29758
-3.29759
-3.29761
-3.29763
-3.29764
-3.29765
-3.29767
-3.29768
-3.29769
-3.29769
-3.2977
-3.29771
-3.29771
-3.2977
-3.29769
-3.29768
-3.29766
-3.29765
-3.29763
-3.29761
-3.29759
-3.29757
-3.29756
-3.29755
-3.29754
-3.29753
-3.29752
-3.29752
-3.29753
-3.29754
-3.29755
-3.29756
-3.29757
-3.29759
-3.29761
-3.29763
-3.29764
-3.29766
-3.29768
-3.29769
-3.2977
-3.29771
-3.29771
-3.29773
-3.29773
-3.29772
-3.29771
-3.29769
-3.29767
-3.29765
-3.29763
-3.29761
-3.29759
-3.29757
-3.29755
-3.29753
-3.29752
-3.29751
-3.29751
-3.29751
-3.29751
-3.29752
-3.29753
-3.29755
-3.29757
-3.29759
-3.29761
-3.29763
-3.29765
-3.29767
-3.29769
-3.2977
-3.29772
-3.29772
-3.29773
-3.29775
-3.29775
-3.29774
-3.29772
-3.2977
-3.29768
-3.29766
-3.29763
-3.29761
-3.29758
-3.29756
-3.29753
-3.29751
-3.2975
-3.29749
-3.29748
-3.29748
-3.29749
-3.2975
-3.29751
-3.29753
-3.29755
-3.29758
-3.2976
-3.29763
-3.29766
-3.29768
-3.2977
-3.29772
-3.29774
-3.29775
-3.29775
-3.29778
-3.29777
-3.29776
-3.29774
-3.29772
-3.29769
-3.29767
-3.29763
-3.2976
-3.29757
-3.29754
-3.29752
-3.29749
-3.29748
-3.29746
-3.29746
-3.29746
-3.29746
-3.29748
-3.29749
-3.29752
-3.29754
-3.29757
-3.2976
-3.29763
-3.29766
-3.29769
-3.29772
-3.29774
-3.29776
-3.29777
-3.29778
-3.29781
-3.2978
-3.29779
-3.29777
-3.29774
-3.29771
-3.29768
-3.29764
-3.2976
-3.29756
-3.29753
-3.29749
-3.29747
-3.29745
-3.29743
-3.29742
-3.29742
-3.29743
-3.29745
-3.29747
-3.29749
-3.29753
-3.29756
-3.2976
-3.29764
-3.29767
-3.29771
-3.29774
-3.29777
-3.29779
-3.2978
-3.29781
-3.29785
-3.29784
-3.29783
-3.2978
-3.29777
-3.29773
-3.29769
-3.29764
-3.2976
-3.29755
-3.29751
-3.29747
-3.29744
-3.29741
-3.29739
-3.29738
-3.29738
-3.29739
-3.29741
-3.29744
-3.29747
-3.29751
-3.29755
-3.2976
-3.29764
-3.29769
-3.29773
-3.29777
-3.2978
-3.29783
-3.29784
-3.29785
-3.2979
-3.29789
-3.29787
-3.29784
-3.2978
-3.29775
-3.2977
-3.29765
-3.29759
-3.29754
-3.29748
-3.29744
-3.2974
-3.29737
-3.29734
-3.29733
-3.29733
-3.29734
-3.29737
-3.2974
-3.29744
-3.29748
-3.29754
-3.29759
-3.29765
-3.2977
-3.29775
-3.2978
-3.29784
-3.29787
-3.29789
-3.2979
-3.29796
-3.29795
-3.29792
-3.29789
-3.29784
-3.29778
-3.29772
-3.29765
-3.29759
-3.29752
-3.29746
-3.2974
-3.29735
-3.29731
-3.29729
-3.29727
-3.29727
-3.29729
-3.29731
-3.29735
-3.2974
-3.29746
-3.29752
-3.29758
-3.29765
-3.29772
-3.29778
-3.29784
-3.29789
-3.29792
-3.29795
-3.29796
-3.29804
-3.29802
-3.29799
-3.29794
-3.29789
-3.29782
-3.29774
-3.29766
-3.29758
-3.2975
-3.29742
-3.29735
-3.29729
-3.29725
-3.29721
-3.2972
-3.2972
-3.29721
-3.29725
-3.29729
-3.29735
-3.29742
-3.2975
-3.29758
-3.29766
-3.29774
-3.29782
-3.29789
-3.29794
-3.29799
-3.29802
-3.29803
-3.29813
-3.29811
-3.29807
-3.29801
-3.29794
-3.29786
-3.29777
-3.29767
-3.29757
-3.29747
-3.29738
-3.29729
-3.29722
-3.29717
-3.29713
-3.29711
-3.29711
-3.29713
-3.29717
-3.29722
-3.29729
-3.29738
-3.29747
-3.29757
-3.29767
-3.29777
-3.29786
-3.29794
-3.29801
-3.29807
-3.29811
-3.29812
-3.29823
-3.29821
-3.29817
-3.2981
-3.29801
-3.29791
-3.2978
-3.29768
-3.29756
-3.29744
-3.29733
-3.29723
-3.29714
-3.29707
-3.29702
-3.297
-3.297
-3.29702
-3.29707
-3.29714
-3.29723
-3.29733
-3.29744
-3.29756
-3.29768
-3.2978
-3.29791
-3.29801
-3.2981
-3.29816
-3.29821
-3.29823
-3.29837
-3.29834
-3.29828
-3.2982
-3.2981
-3.29798
-3.29784
-3.2977
-3.29755
-3.2974
-3.29727
-3.29714
-3.29704
-3.29695
-3.2969
-3.29687
-3.29687
-3.2969
-3.29695
-3.29704
-3.29714
-3.29727
-3.2974
-3.29755
-3.2977
-3.29784
-3.29798
-3.2981
-3.2982
-3.29828
-3.29834
-3.29836
-3.29853
-3.29849
-3.29843
-3.29833
-3.2982
-3.29805
-3.29789
-3.29771
-3.29753
-3.29736
-3.29719
-3.29704
-3.29691
-3.29681
-3.29674
-3.29671
-3.29671
-3.29674
-3.29681
-3.29691
-3.29704
-3.29719
-3.29736
-3.29753
-3.29771
-3.29789
-3.29805
-3.2982
-3.29833
-3.29842
-3.29849
-3.29853
-3.29872
-3.29868
-3.2986
-3.29848
-3.29833
-3.29815
-3.29795
-3.29773
-3.29752
-3.2973
-3.2971
-3.29692
-3.29676
-3.29664
-3.29655
-3.29651
-3.29651
-3.29655
-3.29664
-3.29676
-3.29692
-3.2971
-3.2973
-3.29752
-3.29773
-3.29795
-3.29815
-3.29833
-3.29848
-3.2986
-3.29868
-3.29872
-3.29896
-3.29891
-3.29881
-3.29867
-3.29848
-3.29826
-3.29802
-3.29776
-3.2975
-3.29723
-3.29699
-3.29677
-3.29658
-3.29643
-3.29632
-3.29627
-3.29627
-3.29632
-3.29643
-3.29658
-3.29677
-3.29699
-3.29723
-3.2975
-3.29776
-3.29802
-3.29826
-3.29848
-3.29866
-3.29881
-3.29891
-3.29896
-3.29924
-3.29918
-3.29907
-3.29889
-3.29867
-3.2984
-3.29811
-3.29779
-3.29747
-3.29715
-3.29685
-3.29658
-3.29635
-3.29617
-3.29605
-3.29598
-3.29598
-3.29605
-3.29617
-3.29635
-3.29658
-3.29685
-3.29715
-3.29747
-3.29779
-3.29811
-3.2984
-3.29867
-3.29889
-3.29906
-3.29918
-3.29924
-3.29959
-3.29952
-3.29938
-3.29916
-3.29889
-3.29857
-3.29821
-3.29783
-3.29744
-3.29706
-3.29669
-3.29636
-3.29608
-3.29586
-3.29571
-3.29563
-3.29563
-3.29571
-3.29586
-3.29608
-3.29636
-3.29669
-3.29706
-3.29744
-3.29783
-3.29821
-3.29857
-3.29889
-3.29916
-3.29938
-3.29952
-3.29959
-3.30002
-3.29993
-3.29975
-3.2995
-3.29917
-3.29878
-3.29835
-3.29788
-3.29741
-3.29694
-3.29649
-3.29609
-3.29575
-3.29548
-3.2953
-3.2952
-3.2952
-3.2953
-3.29548
-3.29575
-3.29609
-3.29649
-3.29694
-3.29741
-3.29788
-3.29835
-3.29878
-3.29917
-3.2995
-3.29975
-3.29993
-3.30002
-3.30053
-3.30042
-3.30021
-3.2999
-3.2995
-3.29903
-3.29851
-3.29794
-3.29737
-3.2968
-3.29626
-3.29577
-3.29535
-3.29502
-3.2948
-3.29468
-3.29468
-3.2948
-3.29502
-3.29535
-3.29577
-3.29626
-3.2968
-3.29737
-3.29794
-3.29851
-3.29903
-3.2995
-3.2999
-3.30021
-3.30042
-3.30053
-3.30115
-3.30102
-3.30077
-3.30039
-3.29991
-3.29934
-3.2987
-3.29802
-3.29732
-3.29663
-3.29597
-3.29537
-3.29487
-3.29446
-3.29419
-3.29405
-3.29405
-3.29419
-3.29446
-3.29487
-3.29537
-3.29597
-3.29663
-3.29732
-3.29802
-3.2987
-3.29934
-3.29991
-3.30039
-3.30077
-3.30102
-3.30115
-3.30191
-3.30175
-3.30144
-3.30099
-3.30041
-3.29972
-3.29894
-3.29811
-3.29726
-3.29642
-3.29562
-3.2949
-3.29428
-3.29379
-3.29345
-3.29327
-3.29327
-3.29345
-3.29379
-3.29428
-3.2949
-3.29562
-3.29642
-3.29726
-3.29811
-3.29894
-3.29972
-3.30041
-3.30099
-3.30144
-3.30175
-3.30191
-3.30282
-3.30264
-3.30226
-3.30172
-3.30101
-3.30018
-3.29924
-3.29824
-3.2972
-3.29618
-3.2952
-3.29432
-3.29356
-3.29296
-3.29255
-3.29233
-3.29233
-3.29254
-3.29296
-3.29356
-3.29432
-3.2952
-3.29618
-3.2972
-3.29823
-3.29924
-3.30018
-3.30101
-3.30172
-3.30226
-3.30264
-3.30282
-3.30393
-3.30371
-3.30326
-3.3026
-3.30175
-3.30074
-3.29961
-3.29839
-3.29713
-3.29588
-3.2947
-3.29362
-3.29269
-3.29196
-3.29145
-3.29119
-3.29119
-3.29145
-3.29196
-3.29269
-3.29362
-3.2947
-3.29588
-3.29713
-3.29839
-3.29961
-3.30074
-3.30175
-3.3026
-3.30326
-3.30371
-3.30393
-3.30528
-3.30501
-3.30447
-3.30367
-3.30265
-3.30143
-3.30006
-3.29858
-3.29706
-3.29554
-3.29409
-3.29277
-3.29163
-3.29073
-3.29011
-3.28979
-3.28979
-3.29011
-3.29073
-3.29163
-3.29277
-3.29409
-3.29554
-3.29705
-3.29858
-3.30006
-3.30143
-3.30265
-3.30367
-3.30447
-3.30501
-3.30528
-3.30691
-3.30658
-3.30593
-3.30498
-3.30374
-3.30228
-3.30062
-3.29883
-3.29698
-3.29513
-3.29336
-3.29175
-3.29035
-3.28925
-3.28848
-3.28809
-3.28809
-3.28848
-3.28925
-3.29035
-3.29175
-3.29336
-3.29513
-3.29698
-3.29883
-3.30062
-3.30227
-3.30374
-3.30498
-3.30593
-3.30658
-3.30691
-3.30887
-3.30848
-3.30771
-3.30656
-3.30508
-3.30331
-3.30131
-3.29915
-3.2969
-3.29465
-3.29249
-3.29051
-3.2888
-3.28744
-3.2865
-3.28601
-3.28601
-3.2865
-3.28744
-3.2888
-3.29051
-3.29249
-3.29465
-3.2969
-3.29915
-3.30131
-3.30331
-3.30508
-3.30656
-3.30771
-3.30848
-3.30887
-3.31125
-3.31079
-3.30986
-3.30849
-3.30672
-3.30459
-3.30218
-3.29957
-3.29684
-3.2941
-3.29146
-3.28903
-3.28693
-3.28525
-3.28408
-3.28347
-3.28347
-3.28408
-3.28525
-3.28693
-3.28903
-3.29146
-3.2941
-3.29684
-3.29957
-3.30218
-3.30459
-3.30672
-3.30849
-3.30986
-3.31079
-3.31125
-3.31412
-3.31357
-3.31247
-3.31084
-3.30872
-3.30617
-3.30327
-3.30011
-3.2968
-3.29347
-3.29023
-3.28725
-3.28465
-3.28257
-3.28112
-3.28037
-3.28037
-3.28112
-3.28257
-3.28465
-3.28725
-3.29023
-3.29347
-3.2968
-3.30011
-3.30327
-3.30617
-3.30872
-3.31084
-3.31247
-3.31357
-3.31412
-3.31759
-3.31693
-3.31563
-3.31369
-3.31116
-3.30812
-3.30464
-3.30084
-3.29682
-3.29276
-3.2888
-3.28512
-3.28191
-3.27932
-3.27751
-3.27657
-3.27657
-3.27751
-3.27932
-3.28191
-3.28512
-3.2888
-3.29276
-3.29682
-3.30083
-3.30464
-3.30812
-3.31116
-3.31369
-3.31563
-3.31693
-3.31759
-3.32175
-3.32098
-3.31945
-3.31715
-3.31416
-3.31054
-3.30638
-3.3018
-3.29694
-3.29198
-3.28712
-3.28259
-3.27859
-3.27536
-3.27309
-3.27191
-3.27191
-3.27309
-3.27536
-3.27859
-3.28259
-3.28712
-3.29198
-3.29694
-3.3018
-3.30638
-3.31054
-3.31416
-3.31715
-3.31944
-3.32098
-3.32175
-3.32676
-3.32586
-3.32406
-3.32137
-3.31784
-3.31354
-3.30858
-3.30308
-3.29722
-3.29117
-3.28521
-3.27959
-3.2746
-3.27055
-3.26768
-3.2662
-3.2662
-3.26768
-3.27055
-3.2746
-3.27959
-3.28521
-3.29117
-3.29722
-3.30308
-3.30858
-3.31354
-3.31784
-3.32137
-3.32406
-3.32586
-3.32676
-3.33277
-3.33172
-3.32963
-3.32648
-3.32235
-3.31729
-3.3114
-3.30482
-3.29775
-3.29039
-3.28305
-3.27607
-3.26982
-3.2647
-3.26106
-3.25916
-3.25916
-3.26106
-3.2647
-3.26982
-3.27607
-3.28305
-3.29038
-3.29775
-3.30482
-3.3114
-3.31728
-3.32235
-3.32648
-3.32963
-3.33172
-3.33277
-3.33995
-3.33875
-3.33633
-3.3327
-3.32788
-3.32196
-3.31501
-3.30718
-3.29866
-3.28971
-3.28068
-3.27199
-3.26412
-3.2576
-3.25293
-3.25049
-3.25049
-3.25293
-3.2576
-3.26412
-3.27199
-3.28068
-3.28971
-3.29866
-3.30718
-3.31501
-3.32196
-3.32788
-3.3327
-3.33633
-3.33875
-3.33995
-3.34852
-3.34715
-3.34439
-3.34023
-3.33468
-3.32781
-3.31968
-3.31041
-3.3002
-3.28934
-3.27821
-3.26734
-3.25737
-3.24901
-3.24295
-3.23977
-3.23977
-3.24295
-3.24901
-3.25737
-3.26734
-3.27821
-3.28934
-3.3002
-3.31041
-3.31968
-3.32781
-3.33468
-3.34023
-3.34439
-3.34715
-3.34852
-3.3587
-3.35716
-3.35406
-3.34934
-3.34303
-3.33514
-3.32571
-3.31483
-3.30267
-3.28952
-3.27582
-3.2622
-3.24948
-3.23864
-3.2307
-3.2265
-3.2265
-3.2307
-3.23864
-3.24948
-3.2622
-3.27582
-3.28952
-3.30267
-3.31483
-3.32571
-3.33514
-3.34303
-3.34934
-3.35406
-3.35716
-3.3587
-3.37074
-3.36905
-3.3656
-3.36035
-3.35328
-3.34434
-3.33354
-3.3209
-3.30654
-3.29072
-3.27388
-3.25676
-3.24042
-3.22622
-3.21567
-3.21005
-3.21005
-3.21567
-3.22622
-3.24042
-3.25676
-3.27388
-3.29072
-3.30654
-3.32089
-3.33353
-3.34434
-3.35327
-3.36035
-3.3656
-3.36904
-3.37074
-3.38491
-3.38308
-3.37933
-3.3736
-3.36581
-3.35587
-3.34369
-3.32922
-3.31247
-3.2936
-3.27299
-3.25147
-3.23034
-3.21152
-3.19728
-3.18965
-3.18965
-3.19728
-3.21152
-3.23034
-3.25147
-3.27299
-3.2936
-3.31247
-3.32922
-3.34369
-3.35587
-3.36581
-3.3736
-3.37933
-3.38307
-3.38491
-3.40148
-3.39954
-3.39557
-3.38946
-3.38109
-3.37028
-3.35686
-3.34061
-3.3214
-3.29922
-3.27422
-3.24722
-3.21977
-3.19451
-3.17498
-3.16447
-3.16447
-3.17498
-3.19451
-3.21977
-3.24722
-3.27422
-3.29922
-3.3214
-3.34061
-3.35686
-3.37028
-3.38108
-3.38946
-3.39557
-3.39954
-3.40148
-3.42071
-3.41873
-3.41465
-3.40833
-3.3996
-3.38821
-3.37384
-3.35611
-3.33463
-3.30905
-3.2793
-3.24571
-3.20994
-3.17558
-3.14834
-3.13375
-3.13375
-3.14834
-3.17558
-3.20994
-3.24571
-3.2793
-3.30905
-3.33463
-3.35611
-3.37384
-3.38821
-3.3996
-3.40833
-3.41465
-3.41872
-3.42071
-3.44283
-3.44088
-3.43686
-3.43059
-3.42186
-3.41034
-3.39557
-3.37699
-3.3539
-3.3255
-3.29113
-3.25
-3.20338
-3.15574
-3.11721
-3.097
-3.097
-3.11721
-3.15574
-3.20338
-3.25
-3.29113
-3.3255
-3.3539
-3.37699
-3.39557
-3.41034
-3.42186
-3.43059
-3.43686
-3.44088
-3.44283
-3.46801
-3.4662
-3.46244
-3.45656
-3.44831
-3.43731
-3.42302
-3.40468
-3.38129
-3.35159
-3.3142
-3.26557
-3.20555
-3.13859
-3.08365
-3.05521
-3.05521
-3.08366
-3.13859
-3.20555
-3.26557
-3.3142
-3.35159
-3.38129
-3.40468
-3.42301
-3.43731
-3.44831
-3.45656
-3.46244
-3.4662
-3.46801
-3.49634
-3.49478
-3.49153
-3.48644
-3.47927
-3.46964
-3.45701
-3.44054
-3.41907
-3.39085
-3.3531
-3.30245
-3.2299
-3.13846
-3.05821
-3.01884
-3.01884
-3.05822
-3.13846
-3.22989
-3.30245
-3.3531
-3.39085
-3.41906
-3.44054
-3.457
-3.46964
-3.47927
-3.48644
-3.49153
-3.49478
-3.49633
-3.52777
-3.52659
-3.52411
-3.52024
-3.5148
-3.50752
-3.49799
-3.48555
-3.46923
-3.44783
-3.41919
-3.37408
-3.2948
-3.41722
-4.28608
-4.61523
-4.61523
-4.28606
-3.4172
-3.29479
-3.37408
-3.41919
-3.44783
-3.46923
-3.48555
-3.49799
-3.50752
-3.5148
-3.52024
-3.52411
-3.52659
-3.52777
-3.56214
-3.56143
-3.55996
-3.5577
-3.5546
-3.5506
-3.54559
-3.53936
-3.53176
-3.52321
-3.51203
-3.48212
-3.61727
-6.11326
-7.29359
-7.40688
-7.40688
-7.29358
-6.11315
-3.61722
-3.48212
-3.51203
-3.52321
-3.53176
-3.53936
-3.54559
-3.5506
-3.5546
-3.55769
-3.55996
-3.56143
-3.56214
-3.59911
-3.59896
-3.59865
-3.59826
-3.59792
-3.59782
-3.59824
-3.59971
-3.60346
-3.61157
-3.61948
-3.61037
-5.19601
-7.48325
-7.36943
-7.32312
-7.32313
-7.36943
-7.48326
-5.19586
-3.61036
-3.61948
-3.61157
-3.60346
-3.5997
-3.59824
-3.59782
-3.59792
-3.59826
-3.59865
-3.59896
-3.5991
-3.63822
-3.63866
-3.63957
-3.64113
-3.6436
-3.64743
-3.65331
-3.66259
-3.67767
-3.70084
-3.7274
-3.96492
-6.55793
-7.35368
-7.23666
-7.1927
-7.1927
-7.23666
-7.35368
-6.55775
-3.96484
-3.7274
-3.70083
-3.67766
-3.66259
-3.6533
-3.64743
-3.6436
-3.64112
-3.63957
-3.63866
-3.63822
-3.67895
-3.67994
-3.68199
-3.68533
-3.69031
-3.69748
-3.70781
-3.723
-3.74487
-3.77489
-3.81282
-4.30007
-6.9163
-7.16114
-7.0511
-7.00687
-7.00687
-7.0511
-7.16115
-6.91619
-4.29996
-3.81282
-3.77488
-3.74486
-3.723
-3.70781
-3.69747
-3.6903
-3.68533
-3.68199
-3.67994
-3.67895
-3.72074
-3.72221
-3.72524
-3.73004
-3.73694
-3.74642
-3.75939
-3.77669
-3.79865
-3.82569
-3.85907
-4.29176
-6.77949
-6.9076
-6.81609
-6.77293
-6.77293
-6.81609
-6.9076
-6.77944
-4.29169
-3.85906
-3.82569
-3.79864
-3.77668
-3.75939
-3.74641
-3.73694
-3.73004
-3.72523
-3.72221
-3.72073
-3.76306
-3.76494
-3.76877
-3.77469
-3.78289
-3.79365
-3.80724
-3.82309
-3.84041
-3.85853
-3.8767
-4.10789
-6.51905
-6.61949
-6.54297
-6.50896
-6.50896
-6.54297
-6.61949
-6.51903
-4.10785
-3.87669
-3.85852
-3.8404
-3.82308
-3.80723
-3.79364
-3.78288
-3.77469
-3.76876
-3.76493
-3.76305
-3.80548
-3.80771
-3.81221
-3.81902
-3.82813
-3.8395
-3.85244
-3.86545
-3.87695
-3.88615
-3.89175
-4.35365
-6.25601
-6.30486
-6.24266
-6.21785
-6.21785
-6.24266
-6.30486
-6.256
-4.35358
-3.89174
-3.88615
-3.87695
-3.86545
-3.85244
-3.83949
-3.82813
-3.81901
-3.81221
-3.80771
-3.80547
-3.8476
-3.85018
-3.85532
-3.86297
-3.87299
-3.88484
-3.89703
-3.90744
-3.91369
-3.9125
-3.90176
-5.52314
-6.03984
-5.97717
-5.92748
-5.90617
-5.90617
-5.92748
-5.97717
-6.03983
-5.52309
-3.90176
-3.91249
-3.91369
-3.90743
-3.89702
-3.88484
-3.87298
-3.86297
-3.85531
-3.85017
-3.8476
-3.88902
-3.89198
-3.89786
-3.90655
-3.91778
-3.93056
-3.94288
-3.95207
-3.95457
-3.94424
-4.19893
-5.69226
-5.70323
-5.64828
-5.6084
-5.58923
-5.58923
-5.6084
-5.64828
-5.70323
-5.69226
-4.19891
-3.94424
-3.95456
-3.95206
-3.94287
-3.93055
-3.91777
-3.90655
-3.89785
-3.89198
-3.88902
-3.92927
-3.93268
-3.93947
-3.94957
-3.96257
-3.97718
-3.99119
-4.00161
-4.0008
-3.97358
-5.13266
-5.4298
-5.37695
-5.32487
-5.28943
-5.27222
-5.27222
-5.28943
-5.32486
-5.37695
-5.42979
-5.13265
-3.97358
-4.00079
-4.00161
-3.99118
-3.97718
-3.96256
-3.94957
-3.93947
-3.93268
-3.92926
-3.96772
-3.97167
-3.97961
-3.99152
-4.00696
-4.02445
-4.04174
-4.05535
-4.055
-4.41214
-5.15457
-5.11379
-5.05674
-5.00652
-4.97297
-4.95683
-4.95683
-4.97296
-5.00651
-5.05674
-5.11379
-5.15456
-4.41213
-4.05499
-4.05535
-4.04173
-4.02445
-4.00696
-3.99152
-3.9796
-3.97167
-3.96771
-4.00357
-4.00814
-4.0174
-4.03147
-4.04985
-4.07094
-4.09254
-4.10899
-4.09809
-4.7905
-4.86705
-4.8031
-4.74097
-4.69223
-4.66029
-4.6446
-4.6446
-4.66029
-4.69223
-4.74097
-4.80309
-4.86705
-4.79049
-4.09808
-4.10898
-4.09253
-4.07093
-4.04984
-4.03147
-4.01739
-4.00813
-4.00357
-4.03588
-4.04106
-4.05174
-4.0681
-4.08949
-4.11423
-4.13972
-4.16164
-4.2426
-4.63224
-4.56997
-4.49325
-4.42868
-4.38133
-4.35073
-4.33569
-4.33569
-4.35073
-4.38133
-4.42868
-4.49325
-4.56997
-4.63223
-4.2426
-4.16164
-4.13972
-4.11422
-4.08948
-4.0681
-4.05173
-4.04106
-4.03588
-4.06362
-4.06937
-4.08139
-4.09975
-4.12384
-4.15229
-4.18167
-4.20846
-4.2737
-4.34728
-4.26203
-4.18038
-4.11776
-4.07358
-4.04501
-4.03105
-4.03105
-4.04501
-4.07358
-4.11775
-4.18038
-4.26202
-4.34728
-4.27369
-4.20845
-4.18167
-4.15229
-4.12384
-4.09975
-4.08139
-4.06937
-4.06361
-4.08574
-4.09207
-4.10507
-4.12458
-4.15027
-4.18127
-4.2133
-4.24136
-4.13964
-4.03625
-3.94566
-3.86682
-3.80965
-3.77004
-3.7447
-3.73234
-3.73234
-3.7447
-3.77004
-3.80965
-3.86682
-3.94565
-4.03625
-4.13963
-4.24135
-4.21329
-4.18126
-4.15027
-4.12458
-4.10507
-4.09206
-4.08574
-4.1019
-4.10848
-4.12178
-4.14145
-4.16736
-4.19776
-4.22712
-4.19108
-3.87646
-3.72021
-3.62439
-3.55451
-3.50637
-3.47312
-3.45202
-3.44182
-3.44182
-3.45202
-3.47312
-3.50637
-3.55451
-3.62438
-3.72021
-3.87645
-4.19107
-4.22711
-4.19776
-4.16736
-4.14145
-4.12178
-4.10847
-4.10189
-4.11171
-4.1181
-4.13097
-4.15023
-4.17519
-4.20362
-4.22905
-4.05919
-3.52467
-3.38628
-3.30353
-3.24788
-3.21112
-3.18583
-3.16993
-3.16228
-3.16228
-3.16992
-3.18582
-3.21112
-3.24787
-3.30353
-3.38628
-3.52466
-4.05917
-4.22904
-4.20362
-4.17519
-4.15022
-4.13096
-4.11809
-4.11171
-4.11475
-4.12085
-4.13315
-4.15145
-4.1748
-4.20074
-4.22387
-3.92713
-3.18227
-3.05745
-2.99278
-2.9533
-2.92841
-2.91171
-2.90154
-2.89673
-2.89673
-2.90154
-2.91171
-2.92841
-2.9533
-2.99278
-3.05744
-3.18225
-3.9271
-4.22387
-4.20074
-4.1748
-4.15144
-4.13314
-4.12085
-4.11474
-4.11195
-4.1177
-4.12923
-4.14622
-4.16763
-4.19117
-4.21591
-3.66623
-2.82175
-2.73734
-2.69528
-2.67387
-2.66157
-2.65417
-2.65008
-2.64826
-2.64826
-2.65008
-2.65417
-2.66157
-2.67387
-2.69528
-2.73734
-2.82174
-3.6662
-4.21591
-4.19117
-4.16762
-4.14622
-4.12923
-4.11769
-4.11195
-4.10469
-4.11001
-4.12061
-4.13609
-4.15485
-4.17251
-4.17637
-3.06282
-2.47103
-2.43214
-2.41672
-2.41407
-2.41488
-2.4168
-2.41866
-2.41972
-2.41972
-2.41866
-2.4168
-2.41488
-2.41407
-2.41672
-2.43214
-2.47103
-3.06278
-4.17635
-4.1725
-4.15485
-4.13608
-4.12061
-4.11
-4.10468
-4.09471
-4.09958
-4.1092
-4.12326
-4.1405
-4.15614
-3.73072
-2.34032
-2.15851
-2.15435
-2.16487
-2.17918
-2.19206
-2.20239
-2.20953
-2.21314
-2.21314
-2.20953
-2.20239
-2.19206
-2.17918
-2.16487
-2.15435
-2.15851
-2.3403
-3.73069
-4.15614
-4.1405
-4.12326
-4.1092
-4.09958
-4.09471
-4.08428
-4.0887
-4.09721
-4.10975
-4.12598
-4.05324
-2.49379
-1.85535
-1.88495
-1.91361
-1.94488
-1.97285
-1.99553
-2.01259
-2.02396
-2.02962
-2.02962
-2.02396
-2.01259
-1.99553
-1.97285
-1.94488
-1.91361
-1.88495
-1.85535
-2.49375
-4.05322
-4.12598
-4.10975
-4.09721
-4.0887
-4.08428
-4.07669
-4.08045
-4.08761
-4.09674
-4.05471
-2.50534
-1.53283
-1.60486
-1.66232
-1.71386
-1.75913
-1.79656
-1.82603
-1.84779
-1.86212
-1.86922
-1.86922
-1.86212
-1.84779
-1.82603
-1.79656
-1.75913
-1.71386
-1.66232
-1.60486
-1.53283
-2.50529
-4.0547
-4.09674
-4.0876
-4.08045
-4.07669
-4.06113
-4.02589
-3.9059
-3.44998
-2.04667
-1.24103
-1.33232
-1.41879
-1.49218
-1.55472
-1.607
-1.6495
-1.6827
-1.70711
-1.72314
-1.73108
-1.73108
-1.72314
-1.70711
-1.6827
-1.6495
-1.60701
-1.55472
-1.49218
-1.41879
-1.33232
-1.24103
-2.04663
-3.44997
-3.90589
-4.02589
-4.06113
-1.98244
-1.86387
-1.57174
-1.15463
-1.00781
-1.1048
-1.20284
-1.2909
-1.36694
-1.43147
-1.48532
-1.52914
-1.56346
-1.58874
-1.60537
-1.61361
-1.61361
-1.60537
-1.58874
-1.56346
-1.52915
-1.48532
-1.43147
-1.36694
-1.2909
-1.20284
-1.10481
-1.00781
-1.15463
-1.57174
-1.86388
-1.98244
-0.74098
-0.763174
-0.807562
-0.870759
-0.95021
-1.03947
-1.12641
-1.20569
-1.2765
-1.3378
-1.38955
-1.43202
-1.4655
-1.49029
-1.50665
-1.51478
-1.51478
-1.50665
-1.49029
-1.4655
-1.43202
-1.38955
-1.3378
-1.2765
-1.20569
-1.12641
-1.03947
-0.95021
-0.870759
-0.807561
-0.763173
-0.740978
-0.765219
-0.783196
-0.818712
-0.870277
-0.935499
-1.00752
-1.08012
-1.14898
-1.21188
-1.26738
-1.31494
-1.35439
-1.38575
-1.40911
-1.4246
-1.43231
-1.43231
-1.4246
-1.40911
-1.38575
-1.35439
-1.31494
-1.26739
-1.21188
-1.14898
-1.08012
-1.00752
-0.935499
-0.870276
-0.818711
-0.783195
-0.765217
-0.797833
-0.812571
-0.841503
-0.883327
-0.935307
-0.993393
-1.0534
-1.11167
-1.16597
-1.21475
-1.25714
-1.2927
-1.32122
-1.3426
-1.35685
-1.36395
-1.36395
-1.35685
-1.3426
-1.32122
-1.2927
-1.25714
-1.21475
-1.16597
-1.11167
-1.0534
-0.993393
-0.935307
-0.883327
-0.841503
-0.81257
-0.797832
-0.832047
-0.843964
-0.867263
-0.90078
-0.94245
-0.989454
-1.03868
-1.08734
-1.13343
-1.17546
-1.21247
-1.24384
-1.2692
-1.28834
-1.30114
-1.30755
-1.30755
-1.30115
-1.28834
-1.2692
-1.24384
-1.21247
-1.17546
-1.13343
-1.08735
-1.03868
-0.989455
-0.94245
-0.90078
-0.867262
-0.843963
-0.832047
-0.864316
-0.873901
-0.892614
-0.919524
-0.953041
-0.991061
-1.0313
-1.07163
-1.11034
-1.14609
-1.17792
-1.20515
-1.22734
-1.24418
-1.25549
-1.26116
-1.26116
-1.25549
-1.24418
-1.22734
-1.20515
-1.17792
-1.14609
-1.11034
-1.07163
-1.0313
-0.991061
-0.953041
-0.919523
-0.892613
-0.873901
-0.864316
-0.893313
-0.901021
-0.916063
-0.937702
-0.964699
-0.995481
-1.02834
-1.06163
-1.09391
-1.12405
-1.15114
-1.17451
-1.19367
-1.20829
-1.21814
-1.2231
-1.2231
-1.21814
-1.20829
-1.19367
-1.17451
-1.15114
-1.12405
-1.09391
-1.06163
-1.02834
-0.995481
-0.964699
-0.937702
-0.916063
-0.901021
-0.893312
-0.918635
-0.924841
-0.93695
-0.954378
-0.976166
-1.00113
-1.02796
-1.05538
-1.08218
-1.10743
-1.1303
-1.15017
-1.16656
-1.17912
-1.18762
-1.19189
-1.19189
-1.18762
-1.17912
-1.16656
-1.15017
-1.1303
-1.10743
-1.08218
-1.05538
-1.02796
-1.00113
-0.976167
-0.954378
-0.93695
-0.924841
-0.918635
-0.940355
-0.94536
-0.955125
-0.969191
-0.986817
-1.00709
-1.029
-1.05155
-1.07375
-1.09481
-1.11402
-1.1308
-1.14471
-1.15541
-1.16267
-1.16633
-1.16633
-1.16267
-1.15541
-1.14471
-1.1308
-1.11402
-1.09481
-1.07375
-1.05155
-1.029
-1.00709
-0.986817
-0.969191
-0.955125
-0.94536
-0.940355
-0.95877
-0.962813
-0.970705
-0.982084
-0.996373
-1.01286
-1.03077
-1.0493
-1.06766
-1.08517
-1.10123
-1.11533
-1.12706
-1.13612
-1.14228
-1.1454
-1.1454
-1.14229
-1.13612
-1.12706
-1.11533
-1.10123
-1.08517
-1.06766
-1.0493
-1.03077
-1.01286
-0.996373
-0.982084
-0.970705
-0.962813
-0.95877
-0.974259
-0.977532
-0.983924
-0.993149
-1.00476
-1.01819
-1.03284
-1.04806
-1.06322
-1.07775
-1.09113
-1.10293
-1.11279
-1.12042
-1.12562
-1.12825
-1.12825
-1.12562
-1.12042
-1.11279
-1.10293
-1.09113
-1.07775
-1.06322
-1.04806
-1.03284
-1.01819
-1.00476
-0.993149
-0.983924
-0.977532
-0.974259
-0.987215
-0.989871
-0.995058
-1.00255
-1.012
-1.02296
-1.03495
-1.04746
-1.05996
-1.072
-1.08312
-1.09296
-1.10121
-1.10761
-1.11198
-1.11419
-1.11419
-1.11198
-1.10761
-1.10121
-1.09296
-1.08312
-1.072
-1.05996
-1.04746
-1.03495
-1.02296
-1.012
-1.00255
-0.995058
-0.989871
-0.987215
-0.99801
-1.00017
-1.00439
-1.01049
-1.01819
-1.02715
-1.03697
-1.04724
-1.05755
-1.06751
-1.07674
-1.08493
-1.09181
-1.09716
-1.10081
-1.10267
-1.10267
-1.10081
-1.09716
-1.09181
-1.08493
-1.07674
-1.06751
-1.05755
-1.04724
-1.03697
-1.02715
-1.01819
-1.01049
-1.00439
-1.00017
-0.99801
-1.00698
-1.00874
-1.01217
-1.01715
-1.02344
-1.03076
-1.03881
-1.04726
-1.05575
-1.06398
-1.07163
-1.07843
-1.08415
-1.08861
-1.09167
-1.09322
-1.09322
-1.09167
-1.08861
-1.08415
-1.07843
-1.07163
-1.06398
-1.05575
-1.04726
-1.03881
-1.03076
-1.02344
-1.01715
-1.01217
-1.00874
-1.00698
-1.01442
-1.01585
-1.01865
-1.02271
-1.02786
-1.03385
-1.04046
-1.0474
-1.0544
-1.06119
-1.06752
-1.07316
-1.07791
-1.08162
-1.08417
-1.08546
-1.08546
-1.08417
-1.08162
-1.07791
-1.07316
-1.06752
-1.06119
-1.0544
-1.0474
-1.04046
-1.03385
-1.02786
-1.02272
-1.01865
-1.01585
-1.01442
-1.02057
-1.02174
-1.02403
-1.02735
-1.03156
-1.03648
-1.0419
-1.0476
-1.05337
-1.05897
-1.06421
-1.06888
-1.07282
-1.0759
-1.07801
-1.07909
-1.07909
-1.07801
-1.0759
-1.07282
-1.06888
-1.06421
-1.05897
-1.05337
-1.0476
-1.0419
-1.03648
-1.03156
-1.02735
-1.02403
-1.02174
-1.02057
-1.02566
-1.02662
-1.02849
-1.03121
-1.03466
-1.03869
-1.04314
-1.04783
-1.05258
-1.0572
-1.06153
-1.06539
-1.06866
-1.07121
-1.07296
-1.07386
-1.07386
-1.07296
-1.07121
-1.06866
-1.06539
-1.06153
-1.0572
-1.05258
-1.04783
-1.04314
-1.03869
-1.03466
-1.03121
-1.02849
-1.02662
-1.02566
-1.02987
-1.03065
-1.03218
-1.03441
-1.03724
-1.04054
-1.0442
-1.04806
-1.05197
-1.05578
-1.05935
-1.06255
-1.06525
-1.06736
-1.06882
-1.06956
-1.06956
-1.06882
-1.06737
-1.06525
-1.06255
-1.05935
-1.05578
-1.05197
-1.04806
-1.0442
-1.04054
-1.03724
-1.03441
-1.03219
-1.03065
-1.02987
-1.03334
-1.03398
-1.03524
-1.03706
-1.03938
-1.0421
-1.0451
-1.04828
-1.0515
-1.05464
-1.05759
-1.06022
-1.06246
-1.06421
-1.06541
-1.06602
-1.06602
-1.06541
-1.06421
-1.06246
-1.06022
-1.05759
-1.05464
-1.0515
-1.04828
-1.0451
-1.0421
-1.03938
-1.03706
-1.03524
-1.03398
-1.03334
-1.0362
-1.03673
-1.03776
-1.03926
-1.04116
-1.04339
-1.04586
-1.04847
-1.05113
-1.05372
-1.05614
-1.05832
-1.06017
-1.06162
-1.06261
-1.06312
-1.06312
-1.06261
-1.06162
-1.06017
-1.05832
-1.05615
-1.05372
-1.05113
-1.04847
-1.04586
-1.04339
-1.04116
-1.03926
-1.03776
-1.03673
-1.0362
-1.03856
-1.03899
-1.03984
-1.04107
-1.04263
-1.04447
-1.0465
-1.04865
-1.05083
-1.05297
-1.05497
-1.05677
-1.05829
-1.05949
-1.06031
-1.06073
-1.06073
-1.06031
-1.05949
-1.05829
-1.05677
-1.05497
-1.05297
-1.05083
-1.04865
-1.0465
-1.04447
-1.04263
-1.04107
-1.03984
-1.03899
-1.03856
-1.04051
-1.04086
-1.04156
-1.04257
-1.04385
-1.04536
-1.04703
-1.0488
-1.0506
-1.05236
-1.05401
-1.05549
-1.05675
-1.05774
-1.05841
-1.05876
-1.05876
-1.05841
-1.05774
-1.05675
-1.05549
-1.05401
-1.05236
-1.0506
-1.0488
-1.04703
-1.04536
-1.04385
-1.04257
-1.04156
-1.04086
-1.04051
-1.04211
-1.04241
-1.04298
-1.04381
-1.04486
-1.0461
-1.04748
-1.04893
-1.05041
-1.05186
-1.05322
-1.05444
-1.05548
-1.0563
-1.05686
-1.05714
-1.05714
-1.05686
-1.0563
-1.05548
-1.05444
-1.05322
-1.05186
-1.05041
-1.04893
-1.04748
-1.0461
-1.04486
-1.04381
-1.04298
-1.04241
-1.04211
-1.04344
-1.04368
-1.04415
-1.04483
-1.0457
-1.04671
-1.04785
-1.04904
-1.05026
-1.05146
-1.05258
-1.05359
-1.05444
-1.05511
-1.05558
-1.05581
-1.05581
-1.05558
-1.05511
-1.05444
-1.05359
-1.05258
-1.05146
-1.05026
-1.04904
-1.04785
-1.04671
-1.0457
-1.04483
-1.04415
-1.04368
-1.04344
-1.04453
-1.04472
-1.04511
-1.04567
-1.04638
-1.04722
-1.04815
-1.04914
-1.05014
-1.05112
-1.05205
-1.05288
-1.05359
-1.05414
-1.05452
-1.05471
-1.05471
-1.05452
-1.05414
-1.05359
-1.05288
-1.05205
-1.05113
-1.05014
-1.04914
-1.04815
-1.04722
-1.04638
-1.04567
-1.04511
-1.04472
-1.04453
-1.04542
-1.04559
-1.0459
-1.04636
-1.04695
-1.04764
-1.04841
-1.04922
-1.05004
-1.05085
-1.05162
-1.0523
-1.05288
-1.05334
-1.05365
-1.05381
-1.05381
-1.05365
-1.05334
-1.05288
-1.0523
-1.05162
-1.05085
-1.05004
-1.04922
-1.04841
-1.04764
-1.04695
-1.04636
-1.0459
-1.04559
-1.04542
-1.04616
-1.0463
-1.04656
-1.04694
-1.04742
-1.04799
-1.04862
-1.04928
-1.04997
-1.05063
-1.05126
-1.05182
-1.0523
-1.05268
-1.05294
-1.05307
-1.05307
-1.05294
-1.05268
-1.0523
-1.05182
-1.05126
-1.05063
-1.04997
-1.04929
-1.04862
-1.04799
-1.04742
-1.04694
-1.04656
-1.0463
-1.04616
-1.04677
-1.04688
-1.0471
-1.04741
-1.04781
-1.04827
-1.04879
-1.04934
-1.0499
-1.05045
-1.05097
-1.05143
-1.05183
-1.05214
-1.05235
-1.05246
-1.05246
-1.05235
-1.05214
-1.05183
-1.05143
-1.05097
-1.05045
-1.0499
-1.04934
-1.04879
-1.04827
-1.04781
-1.04741
-1.0471
-1.04688
-1.04677
-1.04727
-1.04736
-1.04754
-1.0478
-1.04812
-1.04851
-1.04893
-1.04939
-1.04985
-1.0503
-1.05073
-1.05111
-1.05144
-1.05169
-1.05187
-1.05196
-1.05196
-1.05187
-1.05169
-1.05144
-1.05111
-1.05073
-1.0503