/*--------------------------------*- C++ -*----------------------------------*\
  =========                 |
  \\      /  F ield         | OpenFOAM: The Open Source CFD Toolbox
   \\    /   O peration     | Website:  https://openfoam.org
    \\  /    A nd           | Version:  9
     \\/     M anipulation  |
\*---------------------------------------------------------------------------*/
FoamFile
{
    format      ascii;
    class       surfaceScalarField;
    location    "0.5";
    object      phi;
}
// * * * * * * * * * * * * * * * * * * * * * * * * * * * * * * * * * * * * * //

dimensions      [0 3 -1 0 0 0 0];

internalField   nonuniform List<scalar> 
8032
(
-6.82478e-08
6.79384e-08
-1.32805e-07
6.70957e-08
-1.94903e-07
6.19097e-08
-2.49501e-07
5.43567e-08
-2.94581e-07
4.48796e-08
-3.28278e-07
3.35568e-08
-3.49266e-07
2.09002e-08
-3.56719e-07
7.39797e-09
-3.50339e-07
-6.41475e-09
-3.30366e-07
-1.99956e-08
-2.97571e-07
-3.28111e-08
-2.53222e-07
-4.43605e-08
-1.99038e-07
-5.4192e-08
-1.37122e-07
-6.19226e-08
-6.98753e-08
-6.72506e-08
9.0918e-11
-6.99689e-08
7.00609e-08
-6.99712e-08
1.37318e-07
-6.72577e-08
1.99252e-07
-6.19336e-08
2.5346e-07
-5.42063e-08
2.97838e-07
-4.43761e-08
3.30665e-07
-3.28258e-08
3.50673e-07
-2.00051e-08
3.57089e-07
-6.41425e-09
3.49677e-07
7.41535e-09
3.28739e-07
2.09405e-08
2.95117e-07
3.36255e-08
2.50161e-07
4.49593e-08
1.95698e-07
5.44658e-08
1.33996e-07
6.17047e-08
6.77367e-08
6.62638e-08
6.77381e-08
-7.1401e-08
1.39476e-07
-1.40848e-07
1.36542e-07
-2.05916e-07
1.26843e-07
-2.63533e-07
1.11794e-07
-3.11063e-07
9.22479e-08
-3.46611e-07
6.89868e-08
-3.68751e-07
4.29606e-08
-3.76606e-07
1.52012e-08
-3.6986e-07
-1.31948e-08
-3.48768e-07
-4.111e-08
-3.14144e-07
-6.74513e-08
-2.67327e-07
-9.11883e-08
-2.10133e-07
-1.11395e-07
-1.44779e-07
-1.27283e-07
-7.38011e-08
-1.38233e-07
4.61344e-11
-1.43818e-07
7.38962e-08
-1.43823e-07
1.44883e-07
-1.38244e-07
2.10251e-07
-1.27301e-07
2.67464e-07
-1.11418e-07
3.14303e-07
-9.12131e-08
3.48952e-07
-6.74728e-08
3.70071e-07
-4.11218e-08
3.76848e-07
-1.31878e-08
3.69029e-07
1.52369e-08
3.46937e-07
4.30358e-08
3.11458e-07
6.91082e-08
2.64017e-07
9.24037e-08
2.0654e-07
1.11947e-07
1.4141e-07
1.26838e-07
7.14611e-08
1.36215e-07
1.39202e-07
-7.72125e-08
2.1682e-07
-1.52753e-07
2.12143e-07
-2.23195e-07
1.97245e-07
-2.85466e-07
1.73966e-07
-3.36871e-07
1.43548e-07
-3.75314e-07
1.07342e-07
-3.99251e-07
6.68341e-08
-4.07731e-07
2.36366e-08
-4.00412e-07
-2.05442e-08
-3.7757e-07
-6.39736e-08
-3.40085e-07
-1.04951e-07
-2.89408e-07
-1.41877e-07
-2.27501e-07
-1.73309e-07
-1.56767e-07
-1.98023e-07
-7.9948e-08
-2.15055e-07
-2.5557e-11
-2.23743e-07
7.98986e-08
-2.23748e-07
1.56723e-07
-2.15069e-07
2.27466e-07
-1.98043e-07
2.89383e-07
-1.73333e-07
3.40072e-07
-1.41901e-07
3.77571e-07
-1.04969e-07
4.00428e-07
-6.39759e-08
4.07764e-07
-2.05209e-08
3.99306e-07
2.36971e-08
3.75404e-07
6.69415e-08
3.37016e-07
1.075e-07
2.85684e-07
1.43739e-07
2.23491e-07
1.74142e-07
1.53021e-07
1.97312e-07
7.73362e-08
2.11905e-07
2.16539e-07
-8.58222e-08
3.02737e-07
-1.6976e-07
2.96146e-07
-2.48046e-07
2.75525e-07
-3.17177e-07
2.43045e-07
-3.74245e-07
2.00549e-07
-4.16922e-07
1.49957e-07
-4.43494e-07
9.33567e-08
-4.52902e-07
3.30082e-08
-4.44766e-07
-2.87073e-08
-4.19391e-07
-8.93681e-08
-3.77755e-07
-1.46602e-07
-3.21468e-07
-1.98174e-07
-2.52713e-07
-2.42073e-07
-1.74153e-07
-2.76588e-07
-8.88384e-08
-3.00374e-07
-7.78276e-11
-3.12506e-07
8.86836e-08
-3.1251e-07
1.74001e-07
-3.00386e-07
2.52564e-07
-2.76605e-07
3.21324e-07
-2.42092e-07
3.77615e-07
-1.9819e-07
4.19257e-07
-1.46608e-07
4.44638e-07
-8.9355e-08
4.52784e-07
-2.86641e-08
4.43393e-07
3.30915e-08
4.16851e-07
9.34867e-08
3.74224e-07
1.5013e-07
3.17225e-07
2.00741e-07
2.48167e-07
2.43203e-07
1.69919e-07
2.75564e-07
8.58803e-08
2.95946e-07
3.02423e-07
-9.75156e-08
4.00361e-07
-1.92963e-07
3.91655e-07
-2.81898e-07
3.64474e-07
-3.6042e-07
3.21545e-07
-4.25243e-07
2.65333e-07
-4.73722e-07
1.98396e-07
-5.0391e-07
1.23509e-07
-5.146e-07
4.3669e-08
-5.05357e-07
-3.79725e-08
-4.76528e-07
-1.18214e-07
-4.29223e-07
-1.93919e-07
-3.65272e-07
-2.62134e-07
-2.87154e-07
-3.20198e-07
-1.97897e-07
-3.6585e-07
-1.00964e-07
-3.97311e-07
-1.1663e-10
-4.13355e-07
1.00731e-07
-4.13359e-07
1.97665e-07
-3.9732e-07
2.86922e-07
-3.65862e-07
3.65042e-07
-3.2021e-07
4.28993e-07
-2.6214e-07
4.76299e-07
-1.93912e-07
5.05132e-07
-1.18185e-07
5.14383e-07
-3.79124e-08
5.0371e-07
4.37669e-08
4.73555e-07
1.23646e-07
4.25127e-07
1.98561e-07
3.60373e-07
2.65499e-07
2.81921e-07
3.21658e-07
1.9303e-07
3.64459e-07
9.75638e-08
3.91419e-07
3.99988e-07
-1.12878e-07
5.13283e-07
-2.23353e-07
5.02173e-07
-3.26263e-07
4.67401e-07
-4.17115e-07
4.1239e-07
-4.92118e-07
3.40314e-07
-5.48217e-07
2.54468e-07
-5.83155e-07
1.58421e-07
-5.95533e-07
5.60247e-08
-5.84844e-07
-4.86792e-08
-5.51488e-07
-1.51585e-07
-4.96749e-07
-2.4867e-07
-4.22743e-07
-3.36148e-07
-3.32339e-07
-4.10609e-07
-2.29041e-07
-4.69152e-07
-1.16859e-07
-5.09496e-07
-1.46237e-10
-5.3007e-07
1.16566e-07
-5.30072e-07
2.28748e-07
-5.09502e-07
3.32046e-07
-4.69158e-07
4.2245e-07
-4.10613e-07
4.96456e-07
-3.36144e-07
5.51196e-07
-2.48651e-07
5.84557e-07
-1.51543e-07
5.95256e-07
-4.86088e-08
5.82899e-07
5.61267e-08
5.47997e-07
1.58551e-07
4.91952e-07
2.5461e-07
4.17016e-07
3.40438e-07
3.26232e-07
4.12445e-07
2.23369e-07
4.67325e-07
1.12896e-07
5.01893e-07
5.12887e-07
-1.32491e-07
6.45835e-07
-2.62162e-07
6.31882e-07
-3.82936e-07
5.88193e-07
-4.89551e-07
5.19006e-07
-5.7757e-07
4.28323e-07
-6.4341e-07
3.20292e-07
-6.84423e-07
1.99417e-07
-6.98963e-07
7.05477e-08
-6.86431e-07
-6.12253e-08
-6.47293e-07
-1.90735e-07
-5.83053e-07
-3.12919e-07
-4.96197e-07
-4.23013e-07
-3.90087e-07
-5.16724e-07
-2.68842e-07
-5.90402e-07
-1.37165e-07
-6.41176e-07
-1.68292e-10
-6.67068e-07
1.36828e-07
-6.67069e-07
2.68505e-07
-6.41178e-07
3.89751e-07
-5.90403e-07
4.9586e-07
-5.16721e-07
5.82719e-07
-4.23001e-07
6.46962e-07
-3.12892e-07
6.86108e-07
-1.90687e-07
6.98656e-07
-6.11536e-08
6.84142e-07
7.06429e-08
6.43169e-07
1.99527e-07
5.77383e-07
3.20399e-07
4.89429e-07
4.28395e-07
3.82877e-07
5.19e-07
2.62151e-07
5.88053e-07
1.32499e-07
6.31552e-07
6.45386e-07
-1.57136e-07
8.02991e-07
-3.10913e-07
7.85685e-07
-4.54131e-07
7.31427e-07
-5.80557e-07
6.45438e-07
-6.84934e-07
5.32696e-07
-7.63019e-07
3.98368e-07
-8.11669e-07
2.48055e-07
-8.28928e-07
8.77947e-08
-8.14083e-07
-7.60813e-08
-7.67682e-07
-2.37145e-07
-6.91507e-07
-3.89103e-07
-5.88502e-07
-5.26025e-07
-4.62657e-07
-6.42574e-07
-3.18854e-07
-7.34209e-07
-1.62674e-07
-7.97358e-07
-1.83896e-10
-8.2956e-07
1.62307e-07
-8.29561e-07
3.18487e-07
-7.97358e-07
4.62291e-07
-7.34207e-07
5.88139e-07
-6.42567e-07
6.91149e-07
-5.26009e-07
7.67332e-07
-3.89073e-07
8.13747e-07
-2.37099e-07
8.28613e-07
-7.60169e-08
8.11385e-07
8.78734e-08
7.62778e-07
2.48137e-07
6.84747e-07
3.98433e-07
5.8043e-07
5.32715e-07
4.54062e-07
6.45372e-07
3.10889e-07
7.3123e-07
1.57129e-07
7.85312e-07
8.02519e-07
-1.87745e-07
9.90774e-07
-3.71478e-07
9.69443e-07
-5.42589e-07
9.02553e-07
-6.93637e-07
7.96493e-07
-8.18348e-07
6.57407e-07
-9.11652e-07
4.91668e-07
-9.69797e-07
3.06192e-07
-9.90439e-07
1.08429e-07
-9.72724e-07
-9.38046e-08
-9.17301e-07
-2.92576e-07
-8.26295e-07
-4.80115e-07
-7.03222e-07
-6.49104e-07
-5.52849e-07
-7.92952e-07
-3.81009e-07
-9.06052e-07
-1.94374e-07
-9.83995e-07
-1.9432e-10
-1.02374e-06
1.93986e-07
-1.02374e-06
3.80623e-07
-9.83995e-07
5.52466e-07
-9.0605e-07
7.02845e-07
-7.92945e-07
8.25927e-07
-6.49089e-07
9.16946e-07
-4.8009e-07
9.72388e-07
-2.92539e-07
9.90129e-07
-9.37559e-08
9.69522e-07
1.08484e-07
9.11423e-07
3.0624e-07
8.1817e-07
4.91688e-07
6.93517e-07
6.57372e-07
5.4252e-07
7.96369e-07
3.71451e-07
9.02302e-07
1.8774e-07
9.69029e-07
9.90259e-07
-2.25502e-07
1.21629e-06
-4.4618e-07
1.19014e-06
-6.51696e-07
1.10808e-06
-8.3312e-07
9.77926e-07
-9.82918e-07
8.07208e-07
-1.095e-06
6.03754e-07
-1.16487e-06
3.76051e-07
-1.18969e-06
1.33248e-07
-1.16844e-06
-1.1506e-07
-1.10189e-06
-3.5913e-07
-9.92595e-07
-5.89419e-07
-8.44766e-07
-7.96938e-07
-6.64131e-07
-9.73591e-07
-4.57698e-07
-1.11249e-06
-2.33484e-07
-1.20821e-06
-2.01025e-10
-1.25703e-06
2.33083e-07
-1.25703e-06
4.573e-07
-1.20821e-06
6.63739e-07
-1.11249e-06
8.44383e-07
-9.73588e-07
9.92225e-07
-7.9693e-07
1.10154e-06
-5.89404e-07
1.16811e-06
-3.59108e-07
1.18939e-06
-1.15034e-07
1.16461e-06
1.33272e-07
1.09479e-06
3.76059e-07
9.82755e-07
6.03727e-07
8.33009e-07
8.0712e-07
6.51632e-07
9.77749e-07
4.46154e-07
1.10778e-06
2.25492e-07
1.18969e-06
1.21576e-06
-2.71837e-07
1.48815e-06
-5.37863e-07
1.45618e-06
-7.85612e-07
1.35584e-06
-1.00433e-06
1.19665e-06
-1.18493e-06
9.87813e-07
-1.32008e-06
7.38906e-07
-1.40434e-06
4.60309e-07
-1.4343e-06
1.63213e-07
-1.40873e-06
-1.40642e-07
-1.32853e-06
-4.3933e-07
-1.19678e-06
-7.21172e-07
-1.01856e-06
-9.75161e-07
-8.00773e-07
-1.19138e-06
-5.51864e-07
-1.3614e-06
-2.81505e-07
-1.47857e-06
-2.05513e-10
-1.53833e-06
2.81095e-07
-1.53833e-06
5.51459e-07
-1.47858e-06
8.00376e-07
-1.3614e-06
1.01818e-06
-1.19139e-06
1.19641e-06
-9.75164e-07
1.32818e-06
-7.21173e-07
1.40841e-06
-4.3933e-07
1.43402e-06
-1.40643e-07
1.40409e-06
1.63201e-07
1.31988e-06
4.60275e-07
1.18478e-06
7.38831e-07
1.00423e-06
9.87675e-07
7.85554e-07
1.19642e-06
5.37837e-07
1.3555e-06
2.71832e-07
1.4557e-06
1.48759e-06
-3.28521e-07
1.81668e-06
-6.50017e-07
1.77769e-06
-9.49433e-07
1.65527e-06
-1.21377e-06
1.461e-06
-1.43207e-06
1.20611e-06
-1.59545e-06
9.02292e-07
-1.69734e-06
5.62199e-07
-1.73362e-06
1.99491e-07
-1.70277e-06
-1.715e-07
-1.60588e-06
-5.36215e-07
-1.44667e-06
-8.80386e-07
-1.23127e-06
-1.19057e-06
-9.68014e-07
-1.45464e-06
-6.67121e-07
-1.66229e-06
-3.40282e-07
-1.80541e-06
-2.09147e-10
-1.8784e-06
3.39865e-07
-1.8784e-06
6.6671e-07
-1.80542e-06
9.67614e-07
-1.66231e-06
1.23088e-06
-1.45466e-06
1.44631e-06
-1.19058e-06
1.60554e-06
-8.80407e-07
1.70245e-06
-5.3624e-07
1.73335e-06
-1.71534e-07
1.69711e-06
1.99441e-07
1.59526e-06
5.62122e-07
1.43193e-06
9.0217e-07
1.21368e-06
1.20593e-06
9.49379e-07
1.46073e-06
6.49993e-07
1.65489e-06
3.28511e-07
1.77718e-06
1.8161e-06
-3.97698e-07
2.2144e-06
-7.869e-07
2.16691e-06
-1.14938e-06
2.01777e-06
-1.46943e-06
1.78105e-06
-1.73375e-06
1.47044e-06
-1.93162e-06
1.10016e-06
-2.05506e-06
6.85639e-07
-2.09907e-06
2.43502e-07
-2.0618e-06
-2.08777e-07
-1.94456e-06
-6.53449e-07
-1.75184e-06
-1.07311e-06
-1.49104e-06
-1.45136e-06
-1.17227e-06
-1.77342e-06
-8.07891e-07
-2.02667e-06
-4.12071e-07
-2.20123e-06
-2.13064e-10
-2.29026e-06
4.11647e-07
-2.29026e-06
8.07473e-07
-2.20125e-06
1.17186e-06
-2.0267e-06
1.49065e-06
-1.77345e-06
1.75147e-06
-1.4514e-06
1.94422e-06
-1.07316e-06
2.06149e-06
-6.53503e-07
2.0988e-06
-2.08844e-07
2.05483e-06
2.43413e-07
1.93144e-06
6.85517e-07
1.73361e-06
1.09999e-06
1.46933e-06
1.47021e-06
1.14933e-06
1.78073e-06
7.86873e-07
2.01735e-06
3.97691e-07
2.16637e-06
2.21379e-06
-4.81997e-07
2.6964e-06
-9.53703e-07
2.63862e-06
-1.39305e-06
2.45713e-06
-1.78099e-06
2.169e-06
-2.10144e-06
1.79089e-06
-2.34137e-06
1.3401e-06
-2.49111e-06
8.35382e-07
-2.54459e-06
2.96981e-07
-2.49953e-06
-2.53837e-07
-2.35753e-06
-7.95456e-07
-2.12397e-06
-1.30667e-06
-1.80784e-06
-1.76749e-06
-1.42138e-06
-2.15988e-06
-9.7958e-07
-2.46847e-06
-4.9963e-07
-2.68118e-06
-2.18129e-10
-2.78967e-06
4.99196e-07
-2.78967e-06
9.79153e-07
-2.6812e-06
1.42096e-06
-2.46851e-06
1.80744e-06
-2.15992e-06
2.12359e-06
-1.76755e-06
2.35718e-06
-1.30674e-06
2.49922e-06
-7.95541e-07
2.54432e-06
-2.53941e-07
2.49088e-06
2.96851e-07
2.34119e-06
8.35215e-07
2.1013e-06
1.33988e-06
1.7809e-06
1.79061e-06
1.39299e-06
2.16864e-06
9.53675e-07
2.45667e-06
4.81984e-07
2.63806e-06
2.69578e-06
-5.84604e-07
3.28102e-06
-1.15674e-06
3.21077e-06
-1.68967e-06
2.99006e-06
-2.16029e-06
2.63963e-06
-2.5491e-06
2.1797e-06
-2.84029e-06
1.6313e-06
-3.02212e-06
1.01721e-06
-3.08718e-06
3.62049e-07
-3.0327e-06
-3.08318e-07
-2.86057e-06
-9.67584e-07
-2.57732e-06
-1.58993e-06
-2.19382e-06
-2.15099e-06
-1.72491e-06
-2.62879e-06
-1.18879e-06
-3.00459e-06
-6.06327e-07
-3.26364e-06
-2.24986e-10
-3.39577e-06
6.0588e-07
-3.39578e-06
1.18835e-06
-3.26367e-06
1.72448e-06
-3.00464e-06
2.19341e-06
-2.62885e-06
2.57694e-06
-2.15107e-06
2.86022e-06
-1.59003e-06
3.03238e-06
-9.67703e-07
3.08691e-06
-3.08461e-07
3.02188e-06
3.61876e-07
2.8401e-06
1.017e-06
2.54895e-06
1.63104e-06
2.16019e-06
2.17938e-06
1.6896e-06
2.63922e-06
1.15671e-06
2.98957e-06
5.84591e-07
3.21018e-06
3.28037e-06
-7.094e-07
3.99042e-06
-1.4037e-06
3.90508e-06
-2.05046e-06
3.63683e-06
-2.62169e-06
3.21086e-06
-3.09371e-06
2.65173e-06
-3.44734e-06
1.98493e-06
-3.66828e-06
1.23816e-06
-3.74754e-06
4.41308e-07
-3.68168e-06
-3.74178e-07
-3.47297e-06
-1.1763e-06
-3.12928e-06
-1.93362e-06
-2.6638e-06
-2.61647e-06
-2.09453e-06
-3.19807e-06
-1.44357e-06
-3.65555e-06
-7.36271e-07
-3.97094e-06
-2.34082e-10
-4.13181e-06
7.35806e-07
-4.13182e-06
1.44311e-06
-3.97097e-06
2.09408e-06
-3.65561e-06
2.66338e-06
-3.19815e-06
3.12888e-06
-2.61658e-06
3.4726e-06
-1.93375e-06
3.68135e-06
-1.17645e-06
3.74725e-06
-3.7436e-07
3.66804e-06
4.41091e-07
3.44714e-06
1.2379e-06
3.09355e-06
1.98462e-06
2.62158e-06
2.65136e-06
2.05039e-06
3.21042e-06
1.40366e-06
3.6363e-06
7.0938e-07
3.90446e-06
3.98975e-06
-8.6109e-07
4.85152e-06
-1.70389e-06
4.74788e-06
-2.48906e-06
4.42201e-06
-3.18265e-06
3.90445e-06
-3.75592e-06
3.225e-06
-4.18557e-06
2.41458e-06
-4.45421e-06
1.5068e-06
-4.55085e-06
5.37956e-07
-4.47128e-06
-4.53751e-07
-4.21817e-06
-1.4294e-06
-3.80104e-06
-2.35075e-06
-3.23586e-06
-3.18165e-06
-2.54448e-06
-3.88945e-06
-1.75374e-06
-4.44629e-06
-8.94477e-07
-4.8302e-06
-2.45756e-10
-5.02604e-06
8.93988e-07
-5.02605e-06
1.75326e-06
-4.83025e-06
2.54401e-06
-4.44636e-06
3.23542e-06
-3.88955e-06
3.80062e-06
-3.18178e-06
4.21779e-06
-2.35091e-06
4.47093e-06
-1.42959e-06
4.55055e-06
-4.53974e-07
4.45394e-06
5.37695e-07
4.18535e-06
1.5065e-06
3.75574e-06
2.41423e-06
3.18252e-06
3.22458e-06
2.48897e-06
3.90396e-06
1.70383e-06
4.42144e-06
8.61069e-07
4.74723e-06
4.85082e-06
-1.04539e-06
5.89691e-06
-2.06861e-06
5.77111e-06
-3.022e-06
5.37541e-06
-3.86435e-06
4.74681e-06
-4.56078e-06
3.92144e-06
-5.08298e-06
2.93679e-06
-5.40978e-06
1.83361e-06
-5.52776e-06
6.55937e-07
-5.4317e-06
-5.49814e-07
-5.12476e-06
-1.73634e-06
-4.61843e-06
-2.85709e-06
-3.93205e-06
-3.86803e-06
-3.09212e-06
-4.72937e-06
-2.1313e-06
-5.40711e-06
-1.08706e-06
-5.87444e-06
-2.60243e-10
-6.11284e-06
1.08654e-06
-6.11286e-06
2.13079e-06
-5.87449e-06
3.09163e-06
-5.4072e-06
3.93157e-06
-4.7295e-06
4.61798e-06
-3.86819e-06
5.12435e-06
-2.85728e-06
5.43132e-06
-1.73656e-06
5.52743e-06
-5.50079e-07
5.4095e-06
6.5563e-07
5.08274e-06
1.83325e-06
4.56059e-06
2.93638e-06
3.86421e-06
3.92097e-06
3.0219e-06
4.74627e-06
2.06855e-06
5.3748e-06
1.04536e-06
5.77042e-06
5.89618e-06
-1.2692e-06
7.16612e-06
-2.51158e-06
7.0135e-06
-3.66934e-06
6.53317e-06
-4.69249e-06
5.76997e-06
-5.53872e-06
4.76766e-06
-6.17359e-06
3.57167e-06
-6.57133e-06
2.23135e-06
-6.71552e-06
8.00128e-07
-6.59968e-06
-6.6565e-07
-6.22754e-06
-2.10848e-06
-5.61291e-06
-3.47172e-06
-4.77922e-06
-4.70172e-06
-3.75864e-06
-5.74995e-06
-2.59086e-06
-6.57489e-06
-1.32149e-06
-7.14381e-06
-2.7776e-10
-7.43405e-06
1.32094e-06
-7.43407e-06
2.59032e-06
-7.14387e-06
3.75812e-06
-6.575e-06
4.77871e-06
-5.75009e-06
5.61243e-06
-4.70191e-06
6.2271e-06
-3.47194e-06
6.59928e-06
-2.10875e-06
6.71516e-06
-6.6596e-07
6.57102e-06
7.99773e-07
6.17333e-06
2.23094e-06
5.5385e-06
3.57121e-06
4.69233e-06
4.76714e-06
3.66922e-06
5.76938e-06
2.51151e-06
6.53251e-06
1.26917e-06
7.01277e-06
7.16534e-06
-1.54091e-06
8.70703e-06
-3.04938e-06
8.52197e-06
-4.45534e-06
7.93914e-06
-5.69822e-06
7.01284e-06
-6.72661e-06
5.79606e-06
-7.49867e-06
4.34374e-06
-7.98298e-06
2.71566e-06
-8.15943e-06
9.76578e-07
-8.01995e-06
-8.05122e-07
-7.56888e-06
-2.55955e-06
-6.82283e-06
-4.21777e-06
-5.81015e-06
-5.7144e-06
-4.56989e-06
-6.99021e-06
-3.15029e-06
-7.99449e-06
-1.60689e-06
-8.68721e-06
-2.98476e-10
-9.04065e-06
1.6063e-06
-9.04067e-06
3.14971e-06
-8.68728e-06
4.56933e-06
-7.99461e-06
5.80961e-06
-6.99038e-06
6.82232e-06
-5.71462e-06
7.5684e-06
-4.21803e-06
8.01952e-06
-2.55986e-06
8.15904e-06
-8.05478e-07
7.98264e-06
9.76172e-07
7.49838e-06
2.7152e-06
6.72637e-06
4.34322e-06
5.69803e-06
5.79548e-06
4.45521e-06
7.0122e-06
3.0493e-06
7.93843e-06
1.54087e-06
8.52119e-06
8.70622e-06
-1.87064e-06
1.05777e-05
-3.70207e-06
1.03534e-05
-5.40941e-06
9.64649e-06
-6.91923e-06
8.52266e-06
-8.16915e-06
7.04598e-06
-9.10829e-06
5.28288e-06
-9.6983e-06
3.30568e-06
-9.91454e-06
1.19282e-06
-9.74693e-06
-9.72735e-07
-9.20042e-06
-3.10605e-06
-8.29497e-06
-5.12322e-06
-7.06485e-06
-6.94452e-06
-5.55744e-06
-8.49762e-06
-3.83141e-06
-9.72053e-06
-1.95441e-06
-1.05642e-05
-3.22587e-10
-1.09947e-05
1.95377e-06
-1.09948e-05
3.83078e-06
-1.05643e-05
5.55683e-06
-9.72066e-06
7.06426e-06
-8.49781e-06
8.29441e-06
-6.94477e-06
9.1999e-06
-5.12352e-06
9.74645e-06
-3.1064e-06
9.91411e-06
-9.7314e-07
9.69793e-06
1.19236e-06
9.10796e-06
3.30516e-06
8.16888e-06
5.2823e-06
6.91902e-06
7.04534e-06
5.40926e-06
8.52196e-06
3.70197e-06
9.64572e-06
1.87059e-06
1.03526e-05
1.05768e-05
-2.27061e-06
1.28483e-05
-4.49389e-06
1.25767e-05
-6.56706e-06
1.17197e-05
-8.40115e-06
1.03567e-05
-9.92047e-06
8.5653e-06
-1.10631e-05
6.42554e-06
-1.17823e-05
4.02488e-06
-1.20478e-05
1.45827e-06
-1.18468e-05
-1.17369e-06
-1.11851e-05
-3.76781e-06
-1.00864e-05
-6.2219e-06
-8.59216e-06
-8.43874e-06
-6.75987e-06
-1.03299e-05
-4.6609e-06
-1.18195e-05
-2.37767e-06
-1.28474e-05
-3.50261e-10
-1.33721e-05
2.37698e-06
-1.33721e-05
4.66021e-06
-1.28475e-05
6.7592e-06
-1.18197e-05
8.59151e-06
-1.03301e-05
1.00858e-05
-8.43902e-06
1.11845e-05
-6.22224e-06
1.18463e-05
-3.76821e-06
1.20473e-05
-1.17415e-06
1.17819e-05
1.45775e-06
1.10628e-05
4.02431e-06
9.92017e-06
6.4249e-06
8.40091e-06
8.5646e-06
6.56689e-06
1.0356e-05
4.49377e-06
1.17188e-05
2.27055e-06
1.25758e-05
1.28474e-05
-2.75558e-06
1.56039e-05
-5.45408e-06
1.52752e-05
-7.97118e-06
1.42368e-05
-1.01991e-05
1.25847e-05
-1.20461e-05
1.04123e-05
-1.34367e-05
7.81623e-06
-1.4314e-05
4.90212e-06
-1.46405e-05
1.78476e-06
-1.44003e-05
-1.41392e-06
-1.35995e-05
-4.56855e-06
-1.22667e-05
-7.55471e-06
-1.04518e-05
-1.02537e-05
-8.2244e-06
-1.25573e-05
-5.67143e-06
-1.43725e-05
-2.8934e-06
-1.56255e-05
-3.81714e-10
-1.62651e-05
2.89264e-06
-1.62651e-05
5.67068e-06
-1.56256e-05
8.22367e-06
-1.43726e-05
1.04511e-05
-1.25575e-05
1.2266e-05
-1.0254e-05
1.35989e-05
-7.55509e-06
1.43997e-05
-4.569e-06
1.464e-05
-1.41444e-06
1.43135e-05
1.78419e-06
1.34363e-05
4.90148e-06
1.20457e-05
7.81552e-06
1.01988e-05
1.04115e-05
7.97099e-06
1.25838e-05
5.45395e-06
1.42359e-05
2.75552e-06
1.52742e-05
1.56029e-05
-3.3433e-06
1.89472e-05
-6.61789e-06
1.85498e-05
-9.67349e-06
1.72924e-05
-1.23797e-05
1.52909e-05
-1.46251e-05
1.26577e-05
-1.63182e-05
9.50931e-06
-1.7389e-05
5.97292e-06
-1.77914e-05
2.18725e-06
-1.75053e-05
-1.70004e-06
-1.65372e-05
-5.53663e-06
-1.4921e-05
-9.17096e-06
-1.27167e-05
-1.2458e-05
-1.00088e-05
-1.52651e-05
-6.90307e-06
-1.74782e-05
-3.52208e-06
-1.90065e-05
-4.17139e-10
-1.97867e-05
3.52125e-06
-1.97868e-05
6.90226e-06
-1.90066e-05
1.0008e-05
-1.74784e-05
1.27159e-05
-1.52654e-05
1.49203e-05
-1.24583e-05
1.65366e-05
-9.17138e-06
1.75047e-05
-5.53713e-06
1.77909e-05
-1.70061e-06
1.73884e-05
2.18661e-06
1.63177e-05
5.97221e-06
1.46247e-05
9.50853e-06
1.23794e-05
1.26568e-05
9.67326e-06
1.52899e-05
6.61775e-06
1.72914e-05
3.34322e-06
1.85488e-05
1.89461e-05
-4.05511e-06
2.30023e-05
-8.02768e-06
2.25224e-05
-1.17362e-05
2.10009e-05
-1.5023e-05
1.85777e-05
-1.77531e-05
1.53878e-05
-1.98151e-05
1.15713e-05
-2.11233e-05
7.28112e-06
-2.16207e-05
2.68471e-06
-2.12815e-05
-2.03923e-06
-2.01124e-05
-6.70573e-06
-1.81533e-05
-1.11301e-05
-1.54765e-05
-1.51348e-05
-1.21842e-05
-1.85575e-05
-8.40503e-06
-2.12574e-05
-4.2889e-06
-2.31226e-05
-4.56775e-10
-2.40752e-05
4.288e-06
-2.40752e-05
8.40413e-06
-2.31227e-05
1.21833e-05
-2.12576e-05
1.54756e-05
-1.85578e-05
1.81525e-05
-1.51352e-05
2.01117e-05
-1.11305e-05
2.12808e-05
-6.70629e-06
2.16201e-05
-2.03987e-06
2.11227e-05
2.684e-06
1.98146e-05
7.28033e-06
1.77527e-05
1.15704e-05
1.50227e-05
1.53869e-05
1.1736e-05
1.85767e-05
8.02752e-06
2.09998e-05
4.05503e-06
2.25212e-05
2.30011e-05
-4.91661e-06
2.79189e-05
-9.73429e-06
2.73401e-05
-1.42341e-05
2.55007e-05
-1.82257e-05
2.25692e-05
-2.15454e-05
1.87075e-05
-2.40577e-05
1.40835e-05
-2.56575e-05
8.88097e-06
-2.62742e-05
3.30143e-06
-2.58745e-05
-2.43899e-06
-2.44645e-05
-8.11569e-06
-2.20911e-05
-1.35034e-05
-1.88408e-05
-1.83851e-05
-1.48376e-05
-2.25607e-05
-1.02379e-05
-2.58571e-05
-5.2249e-06
-2.81355e-05
-5.00831e-10
-2.92996e-05
5.2239e-06
-2.92996e-05
1.02369e-05
-2.81357e-05
1.48366e-05
-2.58573e-05
1.88399e-05
-2.25611e-05
2.20902e-05
-1.83855e-05
2.44637e-05
-1.3504e-05
2.58737e-05
-8.11631e-06
2.62735e-05
-2.4397e-06
2.56569e-05
3.30064e-06
2.40571e-05
8.8801e-06
2.15449e-05
1.40826e-05
1.82253e-05
1.87065e-05
1.42339e-05
2.25681e-05
9.7341e-06
2.54996e-05
4.91651e-06
2.73388e-05
2.79176e-05
-5.95838e-06
3.38773e-05
-1.17985e-05
3.31802e-05
-1.72568e-05
3.0959e-05
-2.21035e-05
2.74158e-05
-2.61406e-05
2.27446e-05
-2.9203e-05
1.71459e-05
-3.11618e-05
1.08398e-05
-3.1929e-05
4.06865e-06
-3.14614e-05
-2.9066e-06
-2.97638e-05
-9.81332e-06
-2.68904e-05
-1.63768e-05
-2.29448e-05
-2.23308e-05
-1.80765e-05
-2.7429e-05
-1.24763e-05
-3.14572e-05
-6.3684e-06
-3.42434e-05
-5.49546e-10
-3.56674e-05
6.3673e-06
-3.56675e-05
1.24752e-05
-3.42436e-05
1.80754e-05
-3.14575e-05
2.29437e-05
-2.74294e-05
2.68895e-05
-2.23312e-05
2.97629e-05
-1.63774e-05
3.14605e-05
-9.814e-06
3.19282e-05
-2.90737e-06
3.11611e-05
4.06778e-06
2.92023e-05
1.08388e-05
2.61401e-05
1.71449e-05
2.21031e-05
2.27435e-05
1.72565e-05
2.74146e-05
1.17983e-05
3.09578e-05
5.95828e-06
3.31789e-05
3.38759e-05
-7.21689e-06
4.10942e-05
-1.4293e-05
4.02563e-05
-2.09114e-05
3.75774e-05
-2.67953e-05
3.32997e-05
-3.17053e-05
2.76546e-05
-3.54403e-05
2.0881e-05
-3.7842e-05
1.32415e-05
-3.88003e-05
5.02689e-06
-3.82586e-05
-3.44822e-06
-3.62189e-05
-1.18531e-05
-3.27432e-05
-1.98525e-05
-2.79545e-05
-2.71194e-05
-2.20336e-05
-3.335e-05
-1.52128e-05
-3.8278e-05
-7.76687e-06
-4.16893e-05
-6.03096e-10
-4.34337e-05
7.76567e-06
-4.34338e-05
1.52116e-05
-4.16895e-05
2.20324e-05
-3.82783e-05
2.79534e-05
-3.33504e-05
3.27421e-05
-2.71199e-05
3.62178e-05
-1.98531e-05
3.82577e-05
-1.18538e-05
3.87994e-05
-3.44908e-06
3.78412e-05
5.02593e-06
3.54396e-05
1.32404e-05
3.17047e-05
2.08798e-05
2.67948e-05
2.76534e-05
2.0911e-05
3.32984e-05
1.42928e-05
3.7576e-05
7.21677e-06
4.02549e-05
4.10927e-05
-8.73541e-06
4.98296e-05
-1.73039e-05
4.88248e-05
-2.53252e-05
4.55988e-05
-3.24667e-05
4.04412e-05
-3.84391e-05
3.3627e-05
-4.29975e-05
2.54394e-05
-4.59469e-05
1.61909e-05
-4.71491e-05
6.22908e-06
-4.65298e-05
-4.06746e-06
-4.40852e-05
-1.42977e-05
-3.98853e-05
-2.40524e-05
-3.40753e-05
-3.29293e-05
-2.68733e-05
-4.05521e-05
-1.85622e-05
-4.65891e-05
-9.47937e-06
-5.07721e-05
-6.6167e-10
-5.29124e-05
9.47806e-06
-5.29125e-05
1.85609e-05
-5.07723e-05
2.6872e-05
-4.65894e-05
3.40741e-05
-4.05525e-05
3.98841e-05
-3.29299e-05
4.40841e-05
-2.40531e-05
4.65288e-05
-1.42986e-05
4.71481e-05
-4.0684e-06
4.5946e-05
6.22802e-06
4.29967e-05
1.61897e-05
3.84384e-05
2.54381e-05
3.24662e-05
3.36256e-05
2.53248e-05
4.04398e-05
1.73036e-05
4.55972e-05
8.73527e-06
4.88232e-05
4.9828e-05
-1.0565e-05
6.03946e-05
-2.09331e-05
5.91929e-05
-3.06494e-05
5.53151e-05
-3.93148e-05
4.91066e-05
-4.65803e-05
4.08925e-05
-5.21477e-05
3.10068e-05
-5.57765e-05
1.98197e-05
-5.72923e-05
7.74492e-06
-5.65968e-05
-4.76294e-06
-5.36763e-05
-1.72182e-05
-4.86078e-05
-2.91209e-05
-4.15618e-05
-3.99754e-05
-3.28e-05
-4.93138e-05
-2.26677e-05
-5.67214e-05
-1.15797e-05
-6.18602e-05
-7.25348e-10
-6.44914e-05
1.15782e-05
-6.44914e-05
2.26663e-05
-6.18604e-05
3.27986e-05
-5.67217e-05
4.15604e-05
-4.93143e-05
4.86065e-05
-3.9976e-05
5.36751e-05
-2.91217e-05
5.65957e-05
-1.72191e-05
5.72912e-05
-4.76398e-06
5.57755e-05
7.74375e-06
5.21468e-05
1.98184e-05
4.65795e-05
3.10054e-05
3.93142e-05
4.0891e-05
3.06489e-05
4.9105e-05
2.09328e-05
5.53134e-05
1.05649e-05
5.91911e-05
6.03928e-05
-1.27656e-05
7.31602e-05
-2.53004e-05
7.17276e-05
-3.7062e-05
6.70767e-05
-4.75728e-05
5.96174e-05
-5.64125e-05
4.97321e-05
-6.32181e-05
3.78125e-05
-6.76923e-05
2.42938e-05
-6.96142e-05
9.66684e-06
-6.88525e-05
-5.52462e-06
-6.53776e-05
-2.06932e-05
-5.92708e-05
-3.52277e-05
-5.07301e-05
-4.8516e-05
-4.00692e-05
-5.99747e-05
-2.77089e-05
-6.90817e-05
-1.41605e-05
-7.54086e-05
-7.94186e-10
-7.86511e-05
1.41589e-05
-7.86511e-05
2.77073e-05
-7.54088e-05
4.00677e-05
-6.9082e-05
5.07286e-05
-5.99753e-05
5.92693e-05
-4.85167e-05
6.53762e-05
-3.52285e-05
6.88512e-05
-2.06942e-05
6.9613e-05
-5.52576e-06
6.76912e-05
9.66556e-06
6.32172e-05
2.42924e-05
5.64116e-05
3.78109e-05
4.75721e-05
4.97305e-05
3.70615e-05
5.96157e-05
2.53001e-05
6.70748e-05
1.27655e-05
7.17257e-05
7.31583e-05
-1.54071e-05
8.85673e-05
-3.05457e-05
8.68663e-05
-4.47716e-05
8.13026e-05
-5.75153e-05
7.23611e-05
-6.82715e-05
6.04884e-05
-7.65988e-05
4.61398e-05
-8.21287e-05
2.98237e-05
-8.45803e-05
1.21184e-05
-8.37769e-05
-6.328e-06
-7.96634e-05
-2.48067e-05
-7.23207e-05
-4.25704e-05
-6.19754e-05
-5.88613e-05
-4.90016e-05
-7.29486e-05
-3.39121e-05
-8.41711e-05
-1.73389e-05
-9.19818e-05
-8.68034e-10
-9.59891e-05
1.73372e-05
-9.59892e-05
3.39104e-05
-9.1982e-05
4.89999e-05
-8.41715e-05
6.19738e-05
-7.29492e-05
7.23191e-05
-5.8862e-05
7.96618e-05
-4.25713e-05
8.37754e-05
-2.48078e-05
8.45789e-05
-6.32924e-06
8.21275e-05
1.2117e-05
7.65977e-05
2.98221e-05
6.82706e-05
4.61381e-05
5.75145e-05
6.04865e-05
4.4771e-05
7.23592e-05
3.05453e-05
8.13005e-05
1.54069e-05
8.68641e-05
8.85651e-05
-1.85699e-05
0.000107137
-3.68307e-05
0.000105127
-5.40205e-05
9.84924e-05
-6.94631e-05
8.78037e-05
-8.25529e-05
7.35781e-05
-9.2753e-05
5.63399e-05
-9.96064e-05
3.66771e-05
-0.000102754
1.5266e-05
-0.000101957
-7.1253e-06
-9.71194e-05
-2.9644e-05
-8.83137e-05
-5.13761e-05
-7.57936e-05
-7.13814e-05
-6.00022e-05
-8.874e-05
-4.15647e-05
-0.000102609
-2.12641e-05
-0.000112282
-9.46517e-10
-0.000117252
2.12622e-05
-0.000117252
4.15628e-05
-0.000112283
6.00004e-05
-0.000102609
7.57918e-05
-8.87406e-05
8.83119e-05
-7.13822e-05
9.71176e-05
-5.1377e-05
0.000101955
-2.96451e-05
0.000102752
-7.12665e-06
9.9605e-05
1.52644e-05
9.27517e-05
3.66754e-05
8.25518e-05
5.6338e-05
6.94623e-05
7.35761e-05
5.40199e-05
8.78015e-05
3.68303e-05
9.84901e-05
1.85697e-05
0.000105125
0.000107135
-2.2346e-05
0.000129483
-4.43403e-05
0.000127121
-6.50873e-05
0.000119239
-8.37878e-05
0.000106504
-9.97184e-05
8.95087e-05
-0.000112227
6.88489e-05
-0.000120747
4.51966e-05
-0.000124816
1.93349e-05
-0.000124109
-7.83212e-06
-0.00011847
-3.52833e-05
-0.000107945
-6.19009e-05
-9.28104e-05
-8.65159e-05
-7.35866e-05
-0.000107964
-5.10344e-05
-0.000125161
-2.61278e-05
-0.000137189
-1.02876e-09
-0.000143379
2.61257e-05
-0.000143379
5.10323e-05
-0.000137189
7.35846e-05
-0.000125161
9.28084e-05
-0.000107964
0.000107943
-8.65167e-05
0.000118468
-6.19019e-05
0.000124107
-3.52845e-05
0.000124814
-7.83359e-06
0.000120745
1.93332e-05
0.000112226
4.51947e-05
9.97172e-05
6.88468e-05
8.37868e-05
8.95065e-05
6.50865e-05
0.000106502
4.43398e-05
0.000119237
2.23457e-05
0.000127119
0.000129481
-2.68383e-05
0.000156322
-5.3283e-05
0.000153566
-7.82879e-05
0.000144244
-0.000100915
0.000129131
-0.000120303
0.000108897
-0.000135663
8.4209e-05
-0.000146289
5.58225e-05
-0.000151587
2.46323e-05
-0.000151111
-8.3073e-06
-0.000144612
-4.17822e-05
-0.000132087
-7.44259e-05
-0.000113821
-0.000104782
-9.0416e-05
-0.000131369
-6.27965e-05
-0.00015278
-3.21785e-05
-0.000167807
-1.11313e-09
-0.000175556
3.21763e-05
-0.000175556
6.27942e-05
-0.000167807
9.04138e-05
-0.000152781
0.000113819
-0.00013137
0.000132085
-0.000104783
0.00014461
-7.4427e-05
0.000151109
-4.17836e-05
0.000151585
-8.3089e-06
0.000146287
2.46305e-05
0.000135662
5.58204e-05
0.000120302
8.42067e-05
0.000100914
0.000108895
7.82871e-05
0.000129128
5.32824e-05
0.000144242
2.6838e-05
0.000153563
0.000156319
-3.21606e-05
0.000188482
-6.38894e-05
0.000185295
-9.39752e-05
0.00017433
-0.000121324
0.00015648
-0.000144919
0.000132492
-0.000163805
0.000103095
-0.000177105
6.91228e-05
-0.000184052
3.15786e-05
-0.000184036
-8.32296e-06
-0.000176664
-4.91543e-05
-0.000161844
-8.92461e-05
-0.000139844
-0.000126782
-0.000111347
-0.000159866
-7.74716e-05
-0.000186655
-3.97429e-05
-0.000205536
-1.19684e-09
-0.000215298
3.97405e-05
-0.000215298
7.74692e-05
-0.000205536
0.000111344
-0.000186656
0.000139841
-0.000159867
0.000161841
-0.000126783
0.000176662
-8.92472e-05
0.000184034
-4.91557e-05
0.00018405
-8.32468e-06
0.000177103
3.15766e-05
0.000163803
6.91205e-05
0.000144917
0.000103093
0.000121323
0.000132489
9.39743e-05
0.000156477
6.38888e-05
0.000174327
3.21603e-05
0.000185292
0.000188479
-3.84347e-05
0.000226917
-7.64089e-05
0.000223269
-0.000112534
0.000210455
-0.000145547
0.000189493
-0.000174254
0.000161199
-0.000197507
0.000126349
-0.000214217
8.58327e-05
-0.00022339
4.07511e-05
-0.000224193
-7.51971e-06
-0.000216015
-5.73319e-05
-0.000198614
-0.000106648
-0.000172192
-0.000153204
-0.000137499
-0.000194559
-9.58808e-05
-0.000228274
-4.92558e-05
-0.000252161
-1.27604e-09
-0.000264553
4.92532e-05
-0.000264553
9.58782e-05
-0.000252161
0.000137497
-0.000228274
0.00017219
-0.000194559
0.000198611
-0.000153205
0.000216013
-0.000106649
0.00022419
-5.73334e-05
0.000223387
-7.52157e-06
0.000214215
4.07489e-05
0.000197505
8.58301e-05
0.000174252
0.000126346
0.000145545
0.000161196
0.000112533
0.000189489
7.64081e-05
0.000210452
3.84344e-05
0.000223265
0.000226913
-4.5787e-05
0.000272704
-9.11014e-05
0.000268583
-0.000134371
0.000253725
-0.000174156
0.000229277
-0.000209068
0.00019611
-0.000237735
0.000155016
-0.000258807
0.000106905
-0.000270999
5.29431e-05
-0.000273179
-5.33951e-06
-0.000264404
-6.61076e-05
-0.000244185
-0.000126866
-0.000212579
-0.00018481
-0.000170359
-0.000236779
-0.000119125
-0.000279508
-6.13046e-05
-0.000309981
-1.34446e-09
-0.000325856
6.13019e-05