/*--------------------------------*- C++ -*----------------------------------*\
  =========                 |
  \\      /  F ield         | OpenFOAM: The Open Source CFD Toolbox
   \\    /   O peration     | Website:  https://openfoam.org
    \\  /    A nd           | Version:  9
     \\/     M anipulation  |
\*---------------------------------------------------------------------------*/
FoamFile
{
    format      ascii;
    class       volVectorField;
    location    "0.5";
    object      U;
}
// * * * * * * * * * * * * * * * * * * * * * * * * * * * * * * * * * * * * * //

dimensions      [0 1 -1 0 0 0 0];

internalField   nonuniform List<vector> 
4096
(
(-1.08852e-05 1.07344e-05 0)
(-3.24371e-05 1.05436e-05 0)
(-5.28437e-05 9.79106e-06 0)
(-7.16638e-05 8.57177e-06 0)
(-8.78094e-05 7.07781e-06 0)
(-0.000100522 5.29193e-06 0)
(-0.000109353 3.29626e-06 0)
(-0.000113943 1.16704e-06 0)
(-0.000114116 -1.01129e-06 0)
(-0.000109863 -3.15322e-06 0)
(-0.000101347 -5.17449e-06 0)
(-8.88966e-05 -6.99612e-06 0)
(-7.29939e-05 -8.54678e-06 0)
(-5.42557e-05 -9.76612e-06 0)
(-3.34093e-05 -1.06065e-05 0)
(-1.12636e-05 -1.10353e-05 0)
(1.13216e-05 -1.10357e-05 0)
(3.34696e-05 -1.06077e-05 0)
(5.43207e-05 -9.76803e-06 0)
(7.30655e-05 -8.5493e-06 0)
(8.89766e-05 -6.99889e-06 0)
(0.000101437 -5.17718e-06 0)
(0.000109964 -3.1551e-06 0)
(0.000114228 -1.01155e-06 0)
(0.000114066 1.16964e-06 0)
(0.000109489 3.30283e-06 0)
(0.000100681 5.3035e-06 0)
(8.79937e-05 7.09103e-06 0)
(7.19379e-05 8.59024e-06 0)
(5.31714e-05 9.73191e-06 0)
(3.25256e-05 1.04509e-05 0)
(1.08408e-05 1.06746e-05 0)
(-1.14786e-05 3.2903e-05 0)
(-3.42131e-05 3.23229e-05 0)
(-5.58673e-05 2.99516e-05 0)
(-7.57224e-05 2.63452e-05 0)
(-9.26876e-05 2.1742e-05 0)
(-0.000106103 1.62581e-05 0)
(-0.000115416 1.01256e-05 0)
(-0.000120256 3.58447e-06 0)
(-0.000120435 -3.10708e-06 0)
(-0.000115944 -9.68583e-06 0)
(-0.000106955 -1.58938e-05 0)
(-9.38157e-05 -2.14883e-05 0)
(-7.70346e-05 -2.62507e-05 0)
(-5.72625e-05 -2.99953e-05 0)
(-3.52665e-05 -3.25761e-05 0)
(-1.19002e-05 -3.38928e-05 0)
(1.19296e-05 -3.38939e-05 0)
(3.52977e-05 -3.25795e-05 0)
(5.72974e-05 -3.00006e-05 0)
(7.70748e-05 -2.62575e-05 0)
(9.38626e-05 -2.14958e-05 0)
(0.00010701 -1.59009e-05 0)
(0.000116007 -9.69066e-06 0)
(0.000120507 -3.10735e-06 0)
(0.000120338 3.59164e-06 0)
(0.00011551 1.01432e-05 0)
(0.000106219 1.62878e-05 0)
(9.28352e-05 2.1778e-05 0)
(7.58967e-05 2.63836e-05 0)
(5.60993e-05 2.98921e-05 0)
(3.43189e-05 3.21019e-05 0)
(1.14392e-05 3.27919e-05 0)
(-1.23629e-05 5.64934e-05 0)
(-3.70677e-05 5.53335e-05 0)
(-6.061e-05 5.13953e-05 0)
(-8.20375e-05 4.53293e-05 0)
(-0.000100392 3.74017e-05 0)
(-0.000114898 2.79686e-05 0)
(-0.000124967 1.74154e-05 0)
(-0.000130199 6.1611e-06 0)
(-0.000130387 -5.35012e-06 0)
(-0.000125521 -1.6666e-05 0)
(-0.000115788 -2.73434e-05 0)
(-0.000101564 -3.69651e-05 0)
(-8.33999e-05 -4.51555e-05 0)
(-6.19992e-05 -5.15954e-05 0)
(-3.81925e-05 -5.60338e-05 0)
(-1.29033e-05 -5.82978e-05 0)
(1.28869e-05 -5.82993e-05 0)
(3.81772e-05 -5.6038e-05 0)
(6.19861e-05 -5.16021e-05 0)
(8.33898e-05 -4.51638e-05 0)
(0.000101558 -3.69738e-05 0)
(0.000115786 -2.73507e-05 0)
(0.000125524 -1.66694e-05 0)
(0.000130394 -5.34643e-06 0)
(0.000130212 6.17538e-06 0)
(0.000124989 1.74436e-05 0)
(0.000114936 2.80119e-05 0)
(0.000100455 3.74549e-05 0)
(8.21265e-05 4.5377e-05 0)
(6.07052e-05 5.14142e-05 0)
(3.71386e-05 5.52169e-05 0)
(1.238e-05 5.64057e-05 0)
(-1.37393e-05 8.24212e-05 0)
(-4.11988e-05 8.06429e-05 0)
(-6.73611e-05 7.50197e-05 0)
(-9.11644e-05 6.61699e-05 0)
(-0.00011154 5.4599e-05 0)
(-0.000127641 4.08261e-05 0)
(-0.000138818 2.54178e-05 0)
(-0.000144625 8.98831e-06 0)
(-0.000144831 -7.81394e-06 0)
(-0.000139425 -2.43296e-05 0)
(-0.000128614 -3.99124e-05 0)
(-0.000112815 -5.3954e-05 0)
(-9.26405e-05 -6.59066e-05 0)
(-6.88722e-05 -7.53043e-05 0)
(-4.24321e-05 -8.1781e-05 0)
(-1.4346e-05 -8.50844e-05 0)
(1.42961e-05 -8.50859e-05 0)
(4.23828e-05 -8.17852e-05 0)
(6.88239e-05 -7.53108e-05 0)
(9.25935e-05 -6.59142e-05 0)
(0.00011277 -5.39613e-05 0)
(0.00012857 -3.99171e-05 0)
(0.000139383 -2.43287e-05 0)
(0.000144792 -7.80422e-06 0)
(0.00014459 9.01036e-06 0)
(0.00013879 2.54547e-05 0)
(0.000127626 4.08776e-05 0)
(0.000111546 5.46582e-05 0)
(9.11943e-05 6.622e-05 0)
(6.74087e-05 7.50315e-05 0)
(4.12408e-05 8.05819e-05 0)
(1.37477e-05 8.23182e-05 0)
(-1.56105e-05 0.000111539 0)
(-4.68264e-05 0.000109149 0)
(-7.65613e-05 0.000101562 0)
(-0.000103601 8.9594e-05 0)
(-0.000126744 7.39301e-05 0)
(-0.000145032 5.52795e-05 0)
(-0.000157729 3.44139e-05 0)
(-0.000164327 1.21676e-05 0)
(-0.000164562 -1.05813e-05 0)
(-0.00015842 -3.29408e-05 0)
(-0.000146137 -5.40364e-05 0)
(-0.000128187 -7.30449e-05 0)
(-0.000105265 -8.92251e-05 0)
(-7.826e-05 -0.000101947 0)
(-4.82193e-05 -0.000110714 0)
(-1.63085e-05 -0.000115185 0)
(1.62339e-05 -0.000115186 0)
(4.81448e-05 -0.000110717 0)
(7.81858e-05 -0.000101952 0)
(0.000105191 -8.92306e-05 0)
(0.000128113 -7.3049e-05 0)
(0.000146064 -5.40368e-05 0)
(0.000158347 -3.29345e-05 0)
(0.000164491 -1.05653e-05 0)
(0.00016426 1.21961e-05 0)
(0.00015767 3.44561e-05 0)
(0.000144987 5.53332e-05 0)
(0.000126719 7.39872e-05 0)
(0.000103598 8.96377e-05 0)
(7.65771e-05 0.000101566 0)
(4.68506e-05 0.00010908 0)
(1.56183e-05 0.000111431 0)
(-1.80699e-05 0.000144945 0)
(-5.42039e-05 0.000141848 0)
(-8.86141e-05 0.000132015 0)
(-0.000119902 0.000116471 0)
(-0.000146679 9.61127e-05 0)
(-0.00016784 7.18665e-05 0)
(-0.000182533 4.474e-05 0)
(-0.00019017 1.582e-05 0)
(-0.000190445 -1.3752e-05 0)
(-0.000183339 -4.28163e-05 0)
(-0.000169126 -7.0237e-05 0)
(-0.000148355 -9.49444e-05 0)
(-0.000121828 -0.000115975 0)
(-9.05754e-05 -0.00013251 0)
(-5.58089e-05 -0.000143905 0)
(-1.88778e-05 -0.000149716 0)
(1.87843e-05 -0.000149717 0)
(5.57153e-05 -0.000143907 0)
(9.04817e-05 -0.000132513 0)
(0.000121734 -0.000115978 0)
(0.000148261 -9.49448e-05 0)
(0.000169033 -7.02329e-05 0)
(0.000183247 -4.28051e-05 0)
(0.000190354 -1.37312e-05 0)
(0.000190085 1.58519e-05 0)
(0.000182457 4.47827e-05 0)
(0.000167778 7.19159e-05 0)
(0.000146637 9.61594e-05 0)
(0.000119881 0.0001165 0)
(8.8613e-05 0.000132002 0)
(5.42137e-05 0.000141768 0)
(1.80725e-05 0.000144825 0)
(-2.12098e-05 0.000183894 0)
(-6.36238e-05 0.000179977 0)
(-0.000104009 0.000167522 0)
(-0.000140726 0.000147811 0)
(-0.00017215 0.00012198 0)
(-0.000196984 9.1212e-05 0)
(-0.00021423 5.67866e-05 0)
(-0.000223196 2.00852e-05 0)
(-0.000223523 -1.74431e-05 0)
(-0.000215187 -5.43265e-05 0)
(-0.000198509 -8.91237e-05 0)
(-0.000174131 -0.000120477 0)
(-0.000142997 -0.000147166 0)
(-0.000106315 -0.000168148 0)
(-6.55068e-05 -0.000182608 0)
(-2.21576e-05 -0.000189982 0)
(2.20499e-05 -0.000189982 0)
(6.53991e-05 -0.000182609 0)
(0.000106207 -0.000168149 0)
(0.000142889 -0.000147166 0)
(0.000174024 -0.000120475 0)
(0.000198402 -8.91162e-05 0)
(0.000215083 -5.4312e-05 0)
(0.000223422 -1.74201e-05 0)
(0.000223102 2.0117e-05 0)
(0.000214146 5.68254e-05 0)
(0.000196915 9.12522e-05 0)
(0.000172101 0.000122012 0)
(0.000140698 0.000147819 0)
(0.000103999 0.000167489 0)
(6.36267e-05 0.00017988 0)
(2.12109e-05 0.00018376 0)
(-2.5155e-05 0.000229859 0)
(-7.54573e-05 0.000224973 0)
(-0.000123348 0.000209426 0)
(-0.000166888 0.000184797 0)
(-0.000204152 0.000152512 0)
(-0.000233603 0.000114049 0)
(-0.000254057 7.10113e-05 0)
(-0.000264695 2.51265e-05 0)
(-0.000265087 -2.17925e-05 0)
(-0.000255207 -6.79059e-05 0)
(-0.000235432 -0.000111411 0)
(-0.000206523 -0.000150612 0)
(-0.000169599 -0.000183979 0)
(-0.000126093 -0.000210214 0)
(-7.76921e-05 -0.000228292 0)
(-2.6276e-05 -0.000237512 0)
(2.61584e-05 -0.000237512 0)
(7.75746e-05 -0.000228293 0)
(0.000125976 -0.000210213 0)
(0.000169483 -0.000183978 0)
(0.000206407 -0.000150607 0)
(0.000235318 -0.000111402 0)
(0.000255098 -6.78905e-05 0)
(0.000264983 -2.17704e-05 0)
(0.000264599 2.51548e-05 0)
(0.000253972 7.10426e-05 0)
(0.000233534 0.000114077 0)
(0.000204101 0.000152527 0)
(0.000166857 0.000184786 0)
(0.000123334 0.000209372 0)
(7.54552e-05 0.000224861 0)
(2.51536e-05 0.000229712 0)
(-3.00549e-05 0.000284585 0)
(-9.01568e-05 0.000278547 0)
(-0.000147374 0.000259316 0)
(-0.000199395 0.000228836 0)
(-0.000243916 0.000188869 0)
(-0.000279106 0.000141247 0)
(-0.000303549 8.79562e-05 0)
(-0.000316266 3.11377e-05 0)
(-0.000316742 -2.69637e-05 0)
(-0.000304944 -8.40689e-05 0)
(-0.00028132 -0.000137946 0)
(-0.00024678 -0.000186493 0)
(-0.000202661 -0.000227817 0)
(-0.000150674 -0.000260307 0)
(-9.28354e-05 -0.000282698 0)
(-3.13924e-05 -0.000294116 0)
(3.12682e-05 -0.000294116 0)
(9.27116e-05 -0.000282698 0)
(0.000150551 -0.000260307 0)
(0.00020254 -0.000227815 0)
(0.000246661 -0.000186488 0)
(0.000281204 -0.000137937 0)
(0.000304833 -8.40551e-05 0)
(0.000316638 -2.69452e-05 0)
(0.000316172 3.11594e-05 0)
(0.000303468 8.79774e-05 0)
(0.00027904 0.000141261 0)
(0.000243868 0.000188866 0)
(0.000199365 0.000228805 0)
(0.00014736 0.000259245 0)
(9.01541e-05 0.000278421 0)
(3.00542e-05 0.000284427 0)
(-3.60992e-05 0.000350156 0)
(-0.000108288 0.000342736 0)
(-0.00017701 0.000319093 0)
(-0.00023949 0.000281602 0)
(-0.000292966 0.000232434 0)
(-0.000335237 0.000173841 0)
(-0.000364603 0.000108269 0)
(-0.000379886 3.83503e-05 0)
(-0.000380468 -3.31505e-05 0)
(-0.000366305 -0.000103429 0)
(-0.000337935 -0.000169737 0)
(-0.00029645 -0.000229487 0)
(-0.000243454 -0.000280349 0)
(-0.000181003 -0.00032034 0)
(-0.000111519 -0.0003479 0)
(-3.77038e-05 -0.000361954 0)
(3.75753e-05 -0.000361954 0)
(0.000111392 -0.0003479 0)
(0.000180876 -0.000320339 0)
(0.00024333 -0.000280347 0)
(0.000296329 -0.000229483 0)
(0.000337819 -0.00016973 0)
(0.000366196 -0.000103419 0)
(0.000380367 -3.31381e-05 0)
(0.000379797 3.83631e-05 0)
(0.000364526 0.000108278 0)
(0.000335176 0.00017384 0)
(0.000292922 0.000232414 0)
(0.000239463 0.000281554 0)
(0.000176997 0.000319005 0)
(0.000108284 0.000342598 0)
(3.60973e-05 0.000349989 0)
(-4.35166e-05 0.000429067 0)
(-0.000130539 0.000419984 0)
(-0.000213383 0.000391032 0)
(-0.000288703 0.000345108 0)
(-0.000353173 0.000284869 0)
(-0.000404138 0.000213077 0)
(-0.000439551 0.000132726 0)
(-0.000457989 4.70432e-05 0)
(-0.000458703 -4.05848e-05 0)
(-0.000441641 -0.00012672 0)
(-0.000407447 -0.000207993 0)
(-0.000357437 -0.000281233 0)
(-0.000293543 -0.00034358 0)
(-0.000218244 -0.000392602 0)
(-0.000134461 -0.000426388 0)
(-4.54528e-05 -0.000443617 0)
(4.53215e-05 -0.000443617 0)
(0.000134331 -0.000426388 0)
(0.000218115 -0.000392603 0)
(0.000293418 -0.00034358 0)
(0.000357316 -0.000281232 0)
(0.000407332 -0.000207991 0)
(0.000441534 -0.000126716 0)
(0.000458605 -4.05805e-05 0)
(0.000457903 4.70455e-05 0)
(0.000439479 0.000132722 0)
(0.000404082 0.000213061 0)
(0.000353133 0.000284833 0)
(0.000288679 0.000345043 0)
(0.00021337 0.00039093 0)
(0.000130536 0.000419836 0)
(4.35159e-05 0.000428892 0)
(-5.25906e-05 0.000524322 0)
(-0.000157759 0.000513232 0)
(-0.000257877 0.000477873 0)
(-0.000348908 0.000421772 0)
(-0.00042683 0.000348176 0)
(-0.000488437 0.000260454 0)
(-0.000531252 0.000162266 0)
(-0.000553555 5.75541e-05 0)
(-0.000554437 -4.95436e-05 0)
(-0.000533833 -0.000154824 0)
(-0.000492517 -0.000254171 0)
(-0.000432077 -0.000343701 0)
(-0.000354848 -0.000419922 0)
(-0.000263825 -0.000479855 0)
(-0.000162542 -0.000521161 0)
(-5.49372e-05 -0.000542226 0)
(5.48035e-05 -0.000542227 0)
(0.00016241 -0.000521163 0)
(0.000263695 -0.000479858 0)
(0.000354722 -0.000419925 0)
(0.000431956 -0.000343705 0)
(0.000492403 -0.000254174 0)
(0.000533727 -0.000154828 0)
(0.000554343 -4.95489e-05 0)
(0.000553473 5.75447e-05 0)
(0.000531184 0.000162249 0)
(0.000488384 0.000260423 0)
(0.000426792 0.000348124 0)
(0.000348885 0.000421692 0)
(0.000257866 0.000477758 0)
(0.000157755 0.000513074 0)
(5.25888e-05 0.00052414 0)
(-6.36646e-05 0.000639545 0)
(-0.000190979 0.000626029 0)
(-0.000312184 0.000582923 0)
(-0.000422392 0.000514518 0)
(-0.000516738 0.000424769 0)
(-0.000591341 0.000317785 0)
(-0.0006432 0.000198024 0)
(-0.00067023 7.02934e-05 0)
(-0.000671327 -6.03593e-05 0)
(-0.000646405 -0.000188807 0)
(-0.0005964 -0.000310025 0)
(-0.00052323 -0.000419275 0)
(-0.00042972 -0.000512289 0)
(-0.000319496 -0.000585432 0)
(-0.000196839 -0.000635844 0)
(-6.65212e-05 -0.000661554 0)
(6.6385e-05 -0.000661555 0)
(0.000196704 -0.000635848 0)
(0.000319364 -0.000585438 0)
(0.000429592 -0.000512296 0)
(0.000523108 -0.000419284 0)
(0.000596286 -0.000310035 0)
(0.000646301 -0.00018882 0)
(0.000671234 -6.03752e-05 0)
(0.00067015 7.02715e-05 0)
(0.000643134 0.000197992 0)
(0.00059129 0.000317738 0)
(0.000516702 0.000424701 0)
(0.00042237 0.000514423 0)
(0.000312172 0.000582796 0)
(0.000190975 0.000625862 0)
(6.36636e-05 0.000639355 0)
(-7.71591e-05 0.000779117 0)
(-0.000231461 0.000762665 0)
(-0.000378362 0.000710181 0)
(-0.000511945 0.000626879 0)
(-0.000626314 0.000517573 0)
(-0.000716765 0.000387263 0)
(-0.000779659 0.000241375 0)
(-0.000812464 8.57614e-05 0)
(-0.000813835 -7.34298e-05 0)
(-0.000783663 -0.000229952 0)
(-0.000723074 -0.000377678 0)
(-0.000634388 -0.000510833 0)
(-0.00052103 -0.000624209 0)
(-0.000387393 -0.00071337 0)
(-0.00023867 -0.000774825 0)
(-8.06502e-05 -0.000806167 0)
(8.05107e-05 -0.000806169 0)
(0.000238532 -0.00077483 0)
(0.000387258 -0.000713378 0)
(0.0005209 -0.000624221 0)
(0.000634265 -0.000510848 0)
(0.000722959 -0.000377697 0)
(0.000783558 -0.000229974 0)
(0.000813742 -7.34572e-05 0)
(0.000812384 8.57264e-05 0)
(0.000779593 0.000241329 0)
(0.000716713 0.000387201 0)
(0.000626277 0.000517491 0)
(0.000511921 0.000626771 0)
(0.000378349 0.000710042 0)
(0.000231455 0.00076249 0)
(7.71568e-05 0.000778921 0)
(-9.35844e-05 0.000948344 0)
(-0.000280735 0.000928335 0)
(-0.000458918 0.000864489 0)
(-0.000620961 0.000763137 0)
(-0.000759715 0.000630132 0)
(-0.000869475 0.000471551 0)
(-0.000945822 0.00029399 0)
(-0.000985678 0.000104569 0)
(-0.000987403 -8.92325e-05 0)
(-0.000950854 -0.000279809 0)
(-0.000877389 -0.0004597 0)
(-0.000769816 -0.000621864 0)
(-0.000632285 -0.000759955 0)
(-0.000470126 -0.00086856 0)
(-0.000289643 -0.000943423 0)
(-9.78676e-05 -0.000981605 0)
(9.77238e-05 -0.000981607 0)
(0.000289501 -0.00094343 0)
(0.000469987 -0.000868572 0)
(0.000632151 -0.000759972 0)
(0.000769689 -0.000621886 0)
(0.000877271 -0.000459727 0)
(0.000950746 -0.000279842 0)
(0.000987307 -8.92719e-05 0)
(0.000985596 0.000104521 0)
(0.000945754 0.00029393 0)
(0.000869421 0.000471474 0)
(0.000759676 0.000630035 0)
(0.000620935 0.000763016 0)
(0.000458903 0.000864338 0)
(0.000280728 0.000928151 0)
(9.35825e-05 0.000948141 0)
(-0.000113561 0.00115365 0)
(-0.000340665 0.00112933 0)
(-0.0005569 0.00105172 0)
(-0.000753569 0.000928484 0)
(-0.000922 0.000766745 0)
(-0.00105527 0.000573881 0)
(-0.00114801 0.000357904 0)
(-0.00119647 0.000127466 0)
(-0.00119866 -0.000108339 0)
(-0.00115437 -0.000340255 0)
(-0.00106526 -0.0005592 0)
(-0.000934711 -0.000756598 0)
(-0.00076776 -0.000924711 0)
(-0.000570878 -0.00105694 0)
(-0.000351722 -0.0011481 0)
(-0.000118837 -0.00119459 0)
(0.000118687 -0.00119459 0)
(0.000351574 -0.00114811 0)
(0.000570733 -0.00105696 0)
(0.000767621 -0.000924734 0)
(0.000934579 -0.000756627 0)
(0.00106514 -0.000559236 0)
(0.00115426 -0.000340298 0)
(0.00119856 -0.00010839 0)
(0.00119639 0.000127404 0)
(0.00114794 0.000357829 0)
(0.00105521 0.000573789 0)
(0.000921957 0.000766634 0)
(0.000753539 0.000928348 0)
(0.000556882 0.00105155 0)
(0.000340656 0.00112914 0)
(0.000113558 0.00115344 0)
(-0.000137844 0.00140283 0)
(-0.000413512 0.00137329 0)
(-0.000676006 0.00127898 0)
(-0.00091478 0.00112922 0)
(-0.00111931 0.000932632 0)
(-0.0012812 0.000698182 0)
(-0.00139391 0.000435593 0)
(-0.00145288 0.00015537 0)
(-0.00145567 -0.00013143 0)
(-0.00140201 -0.000413555 0)
(-0.00129389 -0.000679948 0)
(-0.00113541 -0.000920164 0)
(-0.000932671 -0.00112477 0)
(-0.000693532 -0.00128573 0)
(-0.000427301 -0.0013967 0)
(-0.000144367 -0.0014533 0)
(0.00014421 -0.0014533 0)
(0.000427145 -0.00139671 0)
(0.00069338 -0.00128575 0)
(0.000932525 -0.0011248 0)
(0.00113527 -0.000920201 0)
(0.00129376 -0.000679993 0)
(0.00140189 -0.00041361 0)
(0.00145556 -0.000131495 0)
(0.00145279 0.000155294 0)
(0.00139383 0.000435503 0)
(0.00128113 0.000698075 0)
(0.00111926 0.000932506 0)
(0.000914746 0.00112907 0)
(0.000675985 0.0012788 0)
(0.000413501 0.00137308 0)
(0.00013784 0.00140261 0)
(-0.000167344 0.00170531 0)
(-0.000502017 0.00166945 0)
(-0.000820725 0.0015549 0)
(-0.00111068 0.00137298 0)
(-0.00135911 0.00113413 0)
(-0.00155582 0.000849233 0)
(-0.00169286 0.000530076 0)
(-0.00176467 0.000189415 0)
(-0.00176824 -0.00015932 0)
(-0.00170325 -0.000502447 0)
(-0.00157206 -0.00082651 0)
(-0.00137964 -0.00111879 0)
(-0.00113338 -0.00136778 0)
(-0.000842826 -0.00156369 0)
(-0.000519302 -0.00169876 0)
(-0.000175446 -0.00176767 0)
(0.00017528 -0.00176767 0)
(0.000519137 -0.00169878 0)
(0.000842665 -0.00156371 0)
(0.00113322 -0.00136782 0)
(0.00137949 -0.00111883 0)
(0.00157192 -0.000826565 0)
(0.00170313 -0.000502513 0)
(0.00176813 -0.000159398 0)
(0.00176457 0.000189325 0)
(0.00169277 0.000529971 0)
(0.00155575 0.000849111 0)
(0.00135906 0.00113399 0)
(0.00111064 0.00137281 0)
(0.0008207 0.00155471 0)
(0.000502003 0.00166924 0)
(0.000167339 0.00170508 0)
(-0.000203171 0.00207255 0)
(-0.000609503 0.00202904 0)
(-0.000996495 0.00188996 0)
(-0.00134864 0.00166904 0)
(-0.00165045 0.00137895 0)
(-0.00188952 0.00103285 0)
(-0.0020562 0.000645041 0)
(-0.0021437 0.000230998 0)
(-0.00214833 -0.000192973 0)
(-0.00206964 -0.000610236 0)
(-0.00191047 -0.00100442 0)
(-0.00167681 -0.00136002 0)
(-0.00137763 -0.00166303 0)
(-0.00102454 -0.00190148 0)
(-0.000631292 -0.0020659 0)
(-0.00021328 -0.00214978 0)
(0.000213102 -0.00214979 0)
(0.000631116 -0.00206592 0)
(0.00102437 -0.00190151 0)
(0.00137747 -0.00166308 0)
(0.00167665 -0.00136008 0)
(0.00191032 -0.00100448 0)
(0.00206951 -0.000610315 0)
(0.00214821 -0.000193065 0)
(0.00214359 0.000230892 0)
(0.00205611 0.00064492 0)
(0.00188944 0.00103271 0)
(0.00165039 0.00137879 0)
(0.00134859 0.00166886 0)
(0.000996465 0.00188976 0)
(0.000609487 0.00202881 0)
(0.000203166 0.00207231 0)
(-0.000246663 0.00251842 0)
(-0.000739992 0.00246564 0)
(-0.0012099 0.00229686 0)
(-0.0016376 0.00202867 0)
(-0.00200429 0.00167645 0)
(-0.00229491 0.00125611 0)
(-0.00249772 0.000784993 0)
(-0.00260441 0.000281848 0)
(-0.00261046 -0.000233525 0)
(-0.00251524 -0.000740908 0)
(-0.00232214 -0.00122038 0)
(-0.0020384 -0.00165304 0)
(-0.0016749 -0.00202181 0)
(-0.00124573 -0.00231206 0)
(-0.000767626 -0.00251225 0)
(-0.00025934 -0.00261438 0)
(0.000259149 -0.00261439 0)
(0.000767437 -0.00251227 0)
(0.00124554 -0.0023121 0)
(0.00167473 -0.00202186 0)
(0.00203823 -0.00165311 0)
(0.00232198 -0.00122045 0)
(0.00251509 -0.000741 0)
(0.00261032 -0.000233632 0)
(0.0026043 0.000281726 0)
(0.00249762 0.000784855 0)
(0.00229483 0.00125596 0)
(0.00200422 0.00167627 0)
(0.00163755 0.00202848 0)
(0.00120987 0.00229664 0)
(0.000739972 0.0024654 0)
(0.000246656 0.00251817 0)
(-0.00029944 0.00305973 0)
(-0.000898347 0.00299574 0)
(-0.00146892 0.00279098 0)
(-0.00198837 0.00246555 0)
(-0.00243392 0.00203801 0)
(-0.00278728 0.00152766 0)
(-0.00303413 0.000955446 0)
(-0.00316433 0.000344117 0)
(-0.00317228 -0.000282311 0)
(-0.00305715 -0.000899265 0)
(-0.00282295 -0.00148249 0)
(-0.00247843 -0.00200898 0)
(-0.00203674 -0.00245785 0)
(-0.00151501 -0.00281123 0)
(-0.000933627 -0.003055 0)
(-0.000315427 -0.00317939 0)
(0.00031522 -0.0031794 0)
(0.000933423 -0.00305503 0)
(0.00151482 -0.00281127 0)
(0.00203655 -0.00245791 0)
(0.00247824 -0.00200905 0)
(0.00282278 -0.00148258 0)
(0.00305699 -0.000899371 0)
(0.00317213 -0.000282432 0)
(0.0031642 0.000343979 0)
(0.00303401 0.000955291 0)
(0.00278719 0.00152748 0)
(0.00243385 0.00203782 0)
(0.00198831 0.00246533 0)
(0.00146888 0.00279074 0)
(0.000898325 0.00299549 0)
(0.000299433 0.00305946 0)
(-0.00036346 0.00371683 0)
(-0.00109044 0.00363931 0)
(-0.00178316 0.00339101 0)
(-0.00241404 0.00299625 0)
(-0.00295544 0.00247749 0)
(-0.00338514 0.001858 0)
(-0.0036857 0.00116316 0)
(-0.00384473 0.000420487 0)
(-0.00385528 -0.000340878 0)
(-0.00371622 -0.00109108 0)
(-0.00343228 -0.00180059 0)
(-0.00301398 -0.00244134 0)
(-0.00247727 -0.00298783 0)
(-0.00184294 -0.00341819 0)
(-0.00113581 -0.00371514 0)
(-0.000383742 -0.00386668 0)
(0.000383518 -0.00386669 0)
(0.00113559 -0.00371517 0)
(0.00184272 -0.00341824 0)
(0.00247706 -0.00298789 0)
(0.00301378 -0.00244142 0)
(0.00343209 -0.00180069 0)
(0.00371604 -0.0010912 0)
(0.00385512 -0.000341015 0)
(0.00384459 0.000420331 0)
(0.00368558 0.00116298 0)
(0.00338503 0.00185781 0)
(0.00295535 0.00247727 0)
(0.00241397 0.00299602 0)
(0.00178312 0.00339075 0)
(0.00109042 0.00363904 0)
(0.000363451 0.00371655 0)
(-0.000441081 0.00451437 0)
(-0.00132337 0.00442053 0)
(-0.00216427 0.00411957 0)
(-0.00293039 0.00364093 0)
(-0.00358827 0.0030117 0)
(-0.0041109 0.00225999 0)
(-0.00447704 0.00141643 0)
(-0.00467147 0.000514321 0)
(-0.0046856 -0.000411002 0)
(-0.00451783 -0.00132327 0)
(-0.00417373 -0.00218652 0)
(-0.00366594 -0.0029665 0)
(-0.00301374 -0.00363205 0)
(-0.00224239 -0.00415636 0)
(-0.00138214 -0.00451823 0)
(-0.000466986 -0.00470293 0)
(0.000466742 -0.00470294 0)
(0.0013819 -0.00451826 0)
(0.00224216 -0.00415642 0)
(0.00301351 -0.00363212 0)
(0.00366572 -0.0029666 0)
(0.00417352 -0.00218663 0)
(0.00451764 -0.0013234 0)
(0.00468542 -0.000411157 0)
(0.00467132 0.000514146 0)
(0.0044769 0.00141623 0)
(0.00411079 0.00225978 0)
(0.00358818 0.00301147 0)
(0.00293032 0.00364068 0)
(0.00216422 0.0041193 0)
(0.00132334 0.00442023 0)
(0.000441071 0.00451407 0)
(-0.000535143 0.00548215 0)
(-0.00160565 0.00536864 0)
(-0.00262623 0.00500408 0)
(-0.0035565 0.00442403 0)
(-0.00435592 0.00366115 0)
(-0.0049917 0.00274931 0)
(-0.00543793 0.00172545 0)
(-0.00567594 0.000629853 0)
(-0.00569501 -0.000494691 0)
(-0.00549291 -0.00160411 0)
(-0.00507615 -0.00265461 0)
(-0.00445983 -0.00360436 0)
(-0.00366729 -0.0044152 0)
(-0.0027292 -0.00505427 0)
(-0.00168241 -0.00549547 0)
(-0.000568468 -0.00572072 0)
(0.000568201 -0.00572073 0)
(0.00168215 -0.00549551 0)
(0.00272894 -0.00505433 0)
(0.00366704 -0.00441529 0)
(0.00445959 -0.00360447 0)
(0.00507592 -0.00265474 0)
(0.0054927 -0.00160426 0)
(0.00569481 -0.000494864 0)
(0.00567576 0.000629658 0)
(0.00543778 0.00172524 0)
(0.00499157 0.00274907 0)
(0.00435581 0.0036609 0)
(0.00355642 0.00442375 0)
(0.00262617 0.00500378 0)
(0.00160562 0.00536832 0)
(0.000535132 0.00548182 0)
(-0.000649061 0.00665619 0)
(-0.00194756 0.00651902 0)
(-0.0031859 0.00607773 0)
(-0.00431531 0.0053752 0)
(-0.00528671 0.00445076 0)
(-0.0060603 0.00334512 0)
(-0.00660445 0.00210282 0)
(-0.0068962 0.000772447 0)
(-0.00692215 -0.000594157 0)
(-0.00667918 -0.00194347 0)
(-0.00617475 -0.00322214 0)
(-0.00542693 -0.00437902 0)
(-0.00446384 -0.00536734 0)
(-0.00332276 -0.0061467 0)
(-0.00204864 -0.00668499 0)
(-0.000692259 -0.00695986 0)
(0.000691967 -0.00695987 0)
(0.00204835 -0.00668503 0)
(0.00332248 -0.00614677 0)
(0.00446357 -0.00536743 0)
(0.00542666 -0.00437914 0)
(0.0061745 -0.00322228 0)
(0.00667895 -0.00194364 0)
(0.00692194 -0.000594349 0)
(0.00689601 0.000772231 0)
(0.00660428 0.00210258 0)
(0.00606015 0.00334486 0)
(0.00528659 0.00445047 0)
(0.00431521 0.0053749 0)
(0.00318583 0.0060774 0)
(0.00194752 0.00651867 0)
(0.000649048 0.00665584 0)
(-0.000786925 0.00807997 0)
(-0.00236138 0.0079144 0)
(-0.00386349 0.00738066 0)
(-0.0052344 0.0065304 0)
(-0.00641477 0.00541085 0)
(-0.00735626 0.00407089 0)
(-0.00802026 0.00256405 0)
(-0.00837847 0.000948937 0)
(-0.00841407 -0.000711763 0)
(-0.00812263 -0.00235305 0)
(-0.00751263 -0.00390987 0)
(-0.00660552 -0.00531968 0)
(-0.00543522 -0.00652501 0)
(-0.00404697 -0.00747613 0)
(-0.00249563 -0.00813336 0)
(-0.000843376 -0.00846908 0)
(0.000843056 -0.00846909 0)
(0.00249531 -0.00813341 0)
(0.00404666 -0.0074762 0)
(0.00543492 -0.00652511 0)
(0.00660523 -0.00531981 0)
(0.00751235 -0.00391003 0)
(0.00812237 -0.00235324 0)
(0.00841383 -0.000711977 0)
(0.00837825 0.000948697 0)
(0.00802007 0.00256379 0)
(0.00735609 0.0040706 0)
(0.00641463 0.00541053 0)
(0.0052343 0.00653007 0)
(0.00386342 0.0073803 0)
(0.00236133 0.00791403 0)
(0.00078691 0.00807958 0)
(-0.000953626 0.00980588 0)
(-0.00286183 0.00960633 0)
(-0.00468322 0.0089614 0)
(-0.00634688 0.00793321 0)
(-0.0077811 0.00657835 0)
(-0.00892724 0.00495536 0)
(-0.00973811 0.00312843 0)
(-0.0101788 0.00116809 0)
(-0.010228 -0.000849902 0)
(-0.0098794 -0.00284663 0)
(-0.00914251 -0.00474279 0)
(-0.00804265 -0.00646171 0)
(-0.0066206 -0.00793273 0)
(-0.00493127 -0.00909442 0)
(-0.00304166 -0.00989764 0)
(-0.00102802 -0.0103081 0)
(0.00102766 -0.0103081 0)
(0.00304131 -0.00989769 0)
(0.00493092 -0.0090945 0)
(0.00662026 -0.00793284 0)
(0.00804233 -0.00646185 0)
(0.00914221 -0.00474296 0)
(0.00987911 -0.00284684 0)
(0.0102277 -0.000850138 0)
(0.0101785 0.00116782 0)
(0.0097379 0.00312814 0)
(0.00892705 0.00495504 0)
(0.00778095 0.00657801 0)
(0.00634676 0.00793284 0)
(0.00468313 0.00896101 0)
(0.00286178 0.00960593 0)
(0.000953609 0.00980546 0)
(-0.00115499 0.011897 0)
(-0.00346644 0.0116569 0)
(-0.00567398 0.0108785 0)
(-0.0076923 0.00963642 0)
(-0.00943488 0.00799822 0)
(-0.0108306 0.00603379 0)
(-0.0118217 0.00381989 0)
(-0.012365 0.00144122 0)
(-0.0124334 -0.00101078 0)
(-0.0120181 -0.00344037 0)
(-0.0111291 -0.00575075 0)
(-0.00979618 -0.00784791 0)
(-0.0080683 -0.00964469 0)
(-0.00601206 -0.011065 0)
(-0.00370937 -0.0120477 0)
(-0.00125386 -0.0125501 0)
(0.00125347 -0.0125501 0)
(0.00370898 -0.0120478 0)
(0.00601169 -0.0110651 0)
(0.00806793 -0.00964481 0)
(0.00979583 -0.00784807 0)
(0.0111287 -0.00575095 0)
(0.0120177 -0.00344059 0)
(0.0124331 -0.00101104 0)
(0.0123647 0.00144093 0)
(0.0118215 0.00381957 0)
(0.0108304 0.00603344 0)
(0.00943471 0.00799784 0)
(0.00769217 0.00963601 0)
(0.00567388 0.0108781 0)
(0.00346638 0.0116565 0)
(0.00115497 0.0118965 0)
(-0.00139793 0.0144291 0)
(-0.00419603 0.0141408 0)
(-0.00687012 0.0132026 0)
(-0.00931784 0.0117039 0)
(-0.0114349 0.00972522 0)
(-0.0131351 0.0073495 0)
(-0.0143479 0.00466831 0)
(-0.0150193 0.00178307 0)
(-0.0151151 -0.00119605 0)
(-0.0146225 -0.00415293 0)
(-0.0135517 -0.00696944 0)
(-0.0119375 -0.00953001 0)
(-0.00983813 -0.0117269 0)
(-0.00733455 -0.0134655 0)
(-0.0045269 -0.0146695 0)
(-0.00153047 -0.0152854 0)
(0.00153005 -0.0152854 0)
(0.00452648 -0.0146696 0)
(0.00733413 -0.0134656 0)
(0.00983773 -0.011727 0)
(0.0119371 -0.00953018 0)
(0.0135514 -0.00696965 0)
(0.0146221 -0.00415318 0)
(0.0151148 -0.00119633 0)
(0.015019 0.00178274 0)
(0.0143476 0.00466795 0)
(0.0131349 0.00734911 0)
(0.0114347 0.0097248 0)
(0.00931769 0.0117035 0)
(0.00687002 0.0132022 0)
(0.00419596 0.0141403 0)
(0.00139791 0.0144286 0)
(-0.00169061 0.0174929 0)
(-0.00507516 0.0171476 0)
(-0.00831231 0.0160188 0)
(-0.0112795 0.0142131 0)
(-0.0138513 0.011826 0)
(-0.0159233 0.00895583 0)
(-0.0174089 0.00571111 0)
(-0.0182413 0.00221294 0)
(-0.0183762 -0.00140621 0)
(-0.0177952 -0.00500569 0)
(-0.0165082 -0.00844117 0)
(-0.0145547 -0.0115704 0)
(-0.0120044 -0.0142598 0)
(-0.008955 -0.0163911 0)
(-0.0055294 -0.0178687 0)
(-0.00186979 -0.018625 0)
(0.00186933 -0.018625 0)
(0.00552894 -0.0178688 0)
(0.00895455 -0.0163912 0)
(0.0120039 -0.0142599 0)
(0.0145543 -0.0115706 0)
(0.0165078 -0.00844141 0)
(0.0177948 -0.00500597 0)
(0.0183758 -0.00140653 0)
(0.018241 0.00221259 0)
(0.0174086 0.00571071 0)
(0.015923 0.0089554 0)
(0.0138511 0.0118256 0)
(0.0112793 0.0142126 0)
(0.00831219 0.0160183 0)
(0.00507509 0.0171471 0)
(0.00169058 0.0174924 0)
(-0.00204258 0.0211969 0)
(-0.00613271 0.0207846 0)
(-0.0100484 0.019429 0)
(-0.0136433 0.0172572 0)
(-0.0167671 0.0143819 0)
(-0.0192933 0.0109185 0)
(-0.0211159 0.00699537 0)
(-0.0221511 0.00275638 0)
(-0.0223419 -0.00163969 0)
(-0.021662 -0.00602258 0)
(-0.0201189 -0.0102159 0)
(-0.0177573 -0.0140443 0)
(-0.0146595 -0.0173413 0)
(-0.0109439 -0.0199587 0)
(-0.00676098 -0.0217757 0)
(-0.00228686 -0.0227064 0)
(0.00228635 -0.0227065 0)
(0.00676047 -0.0217758 0)
(0.0109434 -0.0199588 0)
(0.014659 -0.0173414 0)
(0.0177569 -0.0140445 0)
(0.0201184 -0.0102162 0)
(0.0216615 -0.00602288 0)
(0.0223415 -0.00164003 0)
(0.0221507 0.00275599 0)
(0.0211155 0.00699494 0)
(0.019293 0.010918 0)
(0.0167669 0.0143814 0)
(0.0136432 0.0172567 0)
(0.0100483 0.0194284 0)
(0.00613263 0.020784 0)
(0.00204255 0.0211963 0)
(-0.00246498 0.0256703 0)
(-0.00740229 0.0251796 0)
(-0.0121343 0.0235556 0)
(-0.016487 0.020949 0)
(-0.0202805 0.0174917 0)
(-0.023362 0.0133188 0)
(-0.0256014 0.00858063 0)
(-0.0268938 0.00344735 0)
(-0.027165 -0.00189132 0)
(-0.0263769 -0.00722972 0)
(-0.0245328 -0.0123522 0)
(-0.0216816 -0.0170419 0)
(-0.0179196 -0.0210908 0)
(-0.0133899 -0.0243121 0)
(-0.00827736 -0.0265518 0)
(-0.00280068 -0.0277002 0)
(0.00280012 -0.0277003 0)
(0.0082768 -0.0265519 0)
(0.0133894 -0.0243122 0)
(0.0179191 -0.021091 0)
(0.0216811 -0.0170421 0)
(0.0245323 -0.0123525 0)
(0.0263765 -0.00723005 0)
(0.0271645 -0.0018917 0)
(0.0268934 0.00344692 0)
(0.025601 0.00858015 0)
(0.0233617 0.0133183 0)
(0.0202803 0.0174912 0)
(0.0164868 0.0209484 0)
(0.0121341 0.023555 0)
(0.0074022 0.025179 0)
(0.00246495 0.0256696 0)
(-0.00297066 0.0310661 0)
(-0.00892271 0.0304848 0)
(-0.0146348 0.0285448 0)
(-0.0199009 0.0254241 0)
(-0.0245066 0.0212761 0)
(-0.0282674 0.0162573 0)
(-0.0310239 0.0105424 0)
(-0.0326441 0.00433144 0)
(-0.0330309 -0.00215014 0)
(-0.0321295 -0.00865442 0)
(-0.0299347 -0.0149178 0)
(-0.0264979 -0.0206713 0)
(-0.0219308 -0.0256541 0)
(-0.0164054 -0.0296285 0)
(-0.0101494 -0.0323974 0)
(-0.00343548 -0.0338189 0)
(0.00343487 -0.033819 0)
(0.0101488 -0.0323975 0)
(0.0164048 -0.0296287 0)
(0.0219302 -0.0256542 0)
(0.0264973 -0.0206716 0)
(0.0299341 -0.0149181 0)
(0.032129 -0.00865478 0)
(0.0330304 -0.00215055 0)
(0.0326436 0.00433097 0)
(0.0310235 0.0105419 0)
(0.0282671 0.0162567 0)
(0.0245062 0.0212755 0)
(0.0199007 0.0254234 0)
(0.0146346 0.0285442 0)
(0.0089226 0.0304841 0)
(0.00297062 0.0310654 0)
(-0.00357423 0.0375651 0)
(-0.0107382 0.03688 0)
(-0.017624 0.0345705 0)
(-0.0239892 0.0308454 0)
(-0.0295789 0.0258818 0)
(-0.0341716 0.0198587 0)