/*--------------------------------*- C++ -*----------------------------------*\
  =========                 |
  \\      /  F ield         | OpenFOAM: The Open Source CFD Toolbox
   \\    /   O peration     | Website:  https://openfoam.org
    \\  /    A nd           | Version:  9
     \\/     M anipulation  |
\*---------------------------------------------------------------------------*/
FoamFile
{
    format      ascii;
    class       volScalarField;
    location    "43";
    object      p;
}
// * * * * * * * * * * * * * * * * * * * * * * * * * * * * * * * * * * * * * //

dimensions      [0 2 -2 0 0 0 0];

internalField   nonuniform List<scalar> 
400
(
2.1737889e-09
-0.00067287359
-0.0013853513
-0.0019427096
-0.0022200031
-0.0021564997
-0.0017277947
-0.0009262044
0.00023541431
0.0017073968
0.003387276
0.0051121848
0.0066734657
0.0078490912
0.0084583848
0.0084236905
0.0078134113
0.0068445316
0.0058613087
0.0052989511
0.00065784103
-4.0526301e-05
-0.00056965986
-0.00094062544
-0.0011108635
-0.0010399218
-0.00070579101
-9.5545287e-05
0.00078909775
0.0019161816
0.0032095775
0.0045546952
0.0057819547
0.00671625
0.0072144201
0.0072145288
0.0067699569
0.0060527702
0.0053105294
0.0047384893
0.0014236985
0.00044064867
-0.00011660128
-0.00045324399
-0.00061480881
-0.00058481179
-0.00034658135
0.00011974225
0.00082845959
0.0017699063
0.0028942887
0.004098159
0.0052282313
0.0061109612
0.0065938528
0.0065976453
0.0061557176
0.0054214945
0.0045937382
0.0037482326
0.0020141932
0.00068168321
1.6766509e-05
-0.00035885591
-0.00057155133
-0.00062656146
-0.00051008537
-0.00019063439
0.00036849935
0.0011843857
0.0022299138
0.0034174241
0.0045913573
0.0055569282
0.0061235388
0.006166542
0.0056835991
0.0048170329
0.0037472844
0.002473596
0.0021672635
0.00049611283
-0.00029626386
-0.00074871035
-0.0010582582
-0.0012452752
-0.0012927545
-0.0011513109
-0.0007550614
-5.310933e-05
0.00095702086
0.0022102816
0.0035447077
0.0047326617
0.0055218412
0.0057098765
0.0052292724
0.0042015901
0.0028061754
0.00098395569
0.0016539539
-0.00031448608
-0.0012387935
-0.001799307
-0.0022526692
-0.0026279176
-0.0028986304
-0.002991095
-0.002802555
-0.0022376973
-0.0012511098
0.00013088792
0.0017446486
0.0033271149
0.0045416467
0.0050657743
0.0047174829
0.0035661839
0.0017895817
-0.00072593193
0.00028701624
-0.0019195791
-0.0029730058
-0.003671388
-0.0043203022
-0.004953208
-0.0055301296
-0.0059479647
-0.0060590202
-0.0057074061
-0.0047757413
-0.003258714
-0.0012665189
0.00090717336
0.0028231222
0.0039868266
0.0040250793
0.0028876921
0.0007153652
-0.0026805133
-0.0020764379
-0.0044512012
-0.0056268133
-0.0064923294
-0.0073929235
-0.0083657656
-0.0093569261
-0.010231789
-0.01079098
-0.010804863
-0.010063394
-0.0084617954
-0.0060407931
-0.0030832341
-0.00012632015
0.0021126075
0.0029638087
0.0021355637
-0.00036604973
-0.0048726253
-0.0055241756
-0.0079921227
-0.0092779321
-0.0103338
-0.011538005
-0.012935417
-0.014462709
-0.015956323
-0.01716247
-0.017766047
-0.017438109
-0.015919511
-0.013122992
-0.0092517826
-0.0048990249
-0.0010300326
0.0012693911
0.0012777449
-0.0013339753
-0.007201694
-0.010076922
-0.012565104
-0.013936676
-0.01518402
-0.016718398
-0.018602634
-0.020774202
-0.023048769
-0.025121694
-0.026586361
-0.026969367
-0.025812969
-0.022845708
-0.018074475
-0.012051112
-0.0059519714
-0.0013707578
0.00030057517
-0.001947221
-0.0093822425
-0.015684999
-0.018132424
-0.019537566
-0.020926824
-0.022757769
-0.025129907
-0.027997023
-0.031166413
-0.034291484
-0.036876864
-0.03829419
-0.037844302
-0.035065883
-0.029601496
-0.021822521
-0.012985598
-0.0051849952
-0.00071576935
-0.0017642175
-0.010792273
-0.022243613
-0.024613053
-0.025945602
-0.027334965
-0.029324188
-0.032079276
-0.03558898
-0.039664675
-0.043927296
-0.047801328
-0.050530214
-0.051236507
-0.048956906
-0.043143574
-0.033769041
-0.021926366
-0.010036904
-0.0014154631
-9.8849166e-06
-0.010225637
-0.029641232
-0.031923916
-0.03297876
-0.034079872
-0.035939519
-0.038831557
-0.042795668
-0.047651629
-0.052990568
-0.058163619
-0.06228428
-0.064265565
-0.062875189
-0.057112215
-0.046476767
-0.03164911
-0.015037883
-0.00086440846
0.0046467462
-0.0055215539
-0.037866026
-0.040048531
-0.040440157
-0.040752531
-0.042015044
-0.044653078
-0.048758235
-0.05414411
-0.060356076
-0.06666538
-0.072060718
-0.075268313
-0.074811393
-0.069269295
-0.057628332
-0.03996153
-0.018247991
0.0027890211
0.014445142
0.006907533
-0.047230623
-0.049134369
-0.04814059
-0.046882332
-0.04690551
-0.048798684
-0.052668303
-0.058276051
-0.065076144
-0.072232033
-0.078595798
-0.082712349
-0.082880237
-0.077309418
-0.064523963
-0.043934976
-0.016748006
0.012502932
0.032938771
0.032408941
-0.058896849
-0.059639903
-0.055883894
-0.051941089
-0.04997236
-0.050629888
-0.053928651
-0.05949536
-0.066611891
-0.07428533
-0.081191199
-0.085679434
-0.085831825
-0.07952222
-0.064876123
-0.040689287
-0.0072409364
0.032139359
0.064981439
0.077749171
-0.076226578
-0.072613801
-0.063516155
-0.05543538
-0.050725064
-0.04978164
-0.052312369
-0.057664389
-0.064891847
-0.072775001
-0.079779398
-0.084036778
-0.083391684
-0.075348988
-0.057602697
-0.02837516
0.012933314
0.065396465
0.1155515
0.15150622
-0.10809225
-0.089556477
-0.07123388
-0.057232993
-0.049072133
-0.046330239
-0.048077296
-0.053202637
-0.060434652
-0.068295894
-0.075027424
-0.078526945
-0.076389037
-0.065809703
-0.043865504
-0.0078184675
0.044393655
0.11299814
0.18838042
0.27186076
-0.17684546
-0.1082898
-0.076202604
-0.054651296
-0.042992403
-0.03899805
-0.040570538
-0.045928075
-0.05344157
-0.06143839
-0.068027617
-0.07096259
-0.067551164
-0.054739863
-0.029148839
0.013563581
0.078146942
0.17006435
0.28949545
0.47421821
-0.37208341
-0.12470845
-0.054973096
-0.031962556
-0.022063589
-0.020300549
-0.024359485
-0.031958031
-0.041261592
-0.050640919
-0.058316933
-0.062187496
-0.059782585
-0.048056839
-0.022658554
0.021474186
0.092818705
0.21015276
0.40288841
0.77640928
)
;

boundaryField
{
    movingWall
    {
        type            zeroGradient;
    }
    fixedWalls
    {
        type            zeroGradient;
    }
    frontAndBack
    {
        type            empty;
    }
}


// ************************************************************************* //
