/*--------------------------------*- C++ -*----------------------------------*\
  =========                 |
  \\      /  F ield         | OpenFOAM: The Open Source CFD Toolbox
   \\    /   O peration     | Website:  https://openfoam.org
    \\  /    A nd           | Version:  9
     \\/     M anipulation  |
\*---------------------------------------------------------------------------*/
FoamFile
{
    format      ascii;
    class       surfaceScalarField;
    location    "43";
    object      phi;
}
// * * * * * * * * * * * * * * * * * * * * * * * * * * * * * * * * * * * * * //

dimensions      [0 3 -1 0 0 0 0];

internalField   nonuniform List<scalar> 
760
(
1.2703165e-05
-1.270319e-05
-2.872302e-05
4.1426185e-05
-0.00012229196
9.356894e-05
-0.0002503969
0.00012810494
-0.00039607664
0.00014567973
-0.00054539381
0.00014931717
-0.00068627532
0.00014088152
-0.00080689675
0.00012062144
-0.00089495766
8.8060897e-05
-0.00093839592
4.3438237e-05
-0.00092727946
-1.1116463e-05
-0.00085686601
-7.0413458e-05
-0.00073043215
-0.00012643389
-0.00056134342
-0.00016908876
-0.00037276109
-0.00018858233
-0.00019447418
-0.00017828684
-5.6521812e-05
-0.00013795226
1.96146e-05
-7.6136346e-05
3.0411387e-05
-1.079679e-05
3.0411368e-05
-4.3182782e-05
3.0479592e-05
-0.00020456657
0.00020280997
-0.00046832586
0.00035732823
-0.00080071022
0.00046048931
-0.0011673542
0.0005123237
-0.0015364544
0.00051841733
-0.0018782336
0.0004826607
-0.0021636888
0.00040607671
-0.0023645513
0.00028892333
-0.0024553581
0.00013424508
-0.0024181507
-4.8323934e-05
-0.0022453653
-0.00024319882
-0.001947562
-0.00042423716
-0.0015544729
-0.00056217781
-0.0011143234
-0.00062873181
-0.00068747565
-0.00060513459
-0.00033452578
-0.00049090209
-0.00010089665
-0.00030976546
-1.5518677e-06
-0.00011014158
2.8859488e-05
-0.00011002745
0.00014050704
-0.00040303342
0.00049581594
-0.00083139247
0.00078568729
-0.0013456245
0.00097472136
-0.0018986088
0.001065308
-0.0024465936
0.0010664021
-0.0029480473
0.00098411438
-0.0033626349
0.00082066429
-0.0036519072
0.00057819573
-0.0037823337
0.00026467159
-0.0037298381
-0.00010081953
-0.0034858241
-0.0004872128
-0.003063283
-0.00084677832
-0.002499999
-0.0011254618
-0.0018582376
-0.0012704933
-0.0012181457
-0.0012452266
-0.00066373727
-0.0010453107
-0.00026308979
-0.000710413
-4.7956343e-05
-0.00032527504
-1.9096827e-05
-0.00017344051
0.00031394756
-0.00059329586
0.0009156713
-0.0011777026
0.001370094
-0.0018583817
0.0016554005
-0.0025769248
0.0017838511
-0.0032813276
0.001770805
-0.0039228156
0.0016256024
-0.0044541592
0.0013520079
-0.0048302824
0.00095431888
-0.0050112548
0.00044564411
-0.0049672713
-0.00014480304
-0.0046844458
-0.00077003822
-0.0041723586
-0.0013588656
-0.003469133
-0.0018286874
-0.0026440133
-0.0020956131
-0.001793203
-0.0020960369
-0.0010258516
-0.0018126622
-0.00044021533
-0.0012960493
-9.6723938e-05
-0.00066876639
-0.00011582073
-0.00022979691
0.00054374446
-0.00076507935
0.0014509538
-0.0014914945
0.0020965091
-0.0023225616
0.0024864676
-0.0031901593
0.0026514488
-0.0040368453
0.0026174909
-0.0048100625
0.0023988196
-0.0054589921
0.0020009376
-0.0059342094
0.0014295361
-0.0061898396
0.00070127435
-0.0061884189
-0.00014622375
-0.0059055877
-0.0010528694
-0.0053404226
-0.0019240307
-0.0045231203
-0.0026459897
-0.0035229795
-0.0030957538
-0.0024498067
-0.0031692097
-0.0014425404
-0.0028199285
-0.00064123167
-0.0020973581
-0.000148837
-0.0011611611
-0.0002646577
-0.00027729945
0.00082104391
-0.00091155226
0.0020852066
-0.0017607402
0.0029456971
-0.0027228235
0.0034485508
-0.0037222306
0.003650856
-0.0046987179
0.0035939782
-0.0055989172
0.0032990189
-0.0063712187
0.0027732391
-0.0069637566
0.0020220739
-0.0073248639
0.0010623816
-0.0074074851
-6.3602549e-05
-0.007171715
-0.0012886393
-0.0065989027
-0.002496843
-0.0057016891
-0.0035432032
-0.0045400247
-0.0042574182
-0.0032318454
-0.0044773889
-0.0019490222
-0.0041027517
-0.00088728822
-0.0031590921
-0.00021159433
-0.0018368549
-0.00047625204
-0.00031411698
0.0011351609
-0.0010263422
0.0027974318
-0.0019735138
0.0038928686
-0.0030417629
0.0045168
-0.004150728
0.0047598211
-0.0052399573
0.0046832074
-0.0062580884
0.0043171499
-0.0071555417
0.0036706924
-0.0078803837
0.0027469159
-0.0083768583
0.0015588561
-0.0085854044
0.00014494354
-0.0084513331
-0.0014227107
-0.0079295105
-0.0030186655
-0.0070049723
-0.0044677414
-0.0057150496
-0.0055473408
-0.0041735848
-0.0060188537
-0.0025818464
-0.0056944901
-0.0012041054
-0.0045368331
-0.00029450419
-0.0027464562
-0.00077075623
-0.00033824893
0.0014734098
-0.0011031704
0.0035623533
-0.0021176364
0.0049073346
-0.0032598928
0.0056590565
-0.0044474109
0.0059473391
-0.0056219661
0.0058577627
-0.0067369531
0.0054321369
-0.0077479708
0.0046817102
-0.008606378
0.0036053231
-0.0092552538
0.0022077319
-0.0096270171
0.00051670674
-0.0096492082
-0.0014005197
-0.0092489827
-0.003418891
-0.0083739453
-0.0053427788
-0.0070220745
-0.0068992116
-0.0052818154
-0.0077591129
-0.0033676679
-0.0076086375
-0.0016173639
-0.0062871371
-0.00040826909
-0.003955551
-0.0011790253
-0.00034815636
0.0018215662
-0.0011372155
0.0043514125
-0.0021827895
0.0059529085
-0.0033586213
0.0068348882
-0.0045822442
0.0071709621
-0.0057998239
0.0070753425
-0.0069721964
0.0066045094
-0.0080636696
0.0057731833
-0.0090334431
0.0045750966
-0.0098289949
0.0030032838
-0.010381276
0.0010689873
-0.010604527
-0.0011772685
-0.010400779
-0.0036226391
-0.0096748969
-0.0060686608
-0.0083686765
-0.008205432
-0.006515687
-0.0096121024
-0.0043098859
-0.0098144386
-0.0021483241
-0.008448699
-0.00056492554
-0.0055389496
-0.0017439508
-0.00034393492
0.0021655011
-0.0011278599
0.0051353376
-0.0021647104
0.006989759
-0.003325903
0.0079960808
-0.0045308038
0.0083758628
-0.0057319458
0.0082764845
-0.0069002227
0.0077727865
-0.0080123826
0.0068853432
-0.0090408271
0.005603541
-0.0099449676
0.0039074245
-0.010663395
0.0017874151
-0.011106746
-0.00073391769
-0.011163421
-0.0035659644
-0.010697129
-0.006534953
-0.0095826002
-0.0093199604
-0.0077667782
-0.011427924
-0.0053715022
-0.012209715
-0.0028071794
-0.011013022
-0.0007783692
-0.0075677598
-0.0025223201
-0.00032890794
0.002494409
-0.0010824215
0.0058888512
-0.0020707773
0.0079781148
-0.0031636131
0.0090889166
-0.0042839024
0.0094961518
-0.005392854
0.009385436
-0.0064741409
0.0088540736
-0.0075205484
0.0079317508
-0.0085229182
0.0066059107
-0.0094603448
0.004844851
-0.010291332
0.0026184024
-0.010933227
-9.2022638e-05
-0.011283212
-0.0032159793
-0.011173633
-0.0066445316
-0.010415714
-0.01007788
-0.0088467368
-0.012996902
-0.0064557546
-0.014600697
-0.0035815275
-0.013887249
-0.0010642231
-0.010085064
-0.0035865431
-0.00031178405
0.0028061931
-0.0010206788
0.0065977459
-0.0019260998
0.0088835359
-0.0028949487
0.010057766
-0.0038568826
0.010458086
-0.0047855634
0.010314117
-0.0056807663
0.0097492765
-0.0065544554
0.0088054401
-0.0074198889
0.0074713443
-0.0082818244
0.0057067865
-0.0091251548
0.0034617328
-0.0099086389
0.00069146147
-0.010527256
-0.0025973623
-0.010827013
-0.0063447743
-0.010573628
-0.010331265
-0.0094932085
-0.014077321
-0.0073911391
-0.016702766
-0.0044189149
-0.016859473
-0.0014372118
-0.013066767
-0.0050237549
-0.00031004252
0.0031162357
-0.00098036415
0.0072680673
-0.0017790479
0.0096822196
-0.0025693648
0.010848083
-0.0032945941
0.011183315
-0.0039478951
0.010967417
-0.0045499686
0.01035135
-0.0051347837
0.0093902552
-0.005739918
0.0080764788
-0.0063985222
0.0063653907
-0.0071301247
0.0041933352
-0.0079302567
0.0014915934
-0.0087388035
-0.0017888155
-0.0094303568
-0.0056532209
-0.0097685795
-0.0099930424
-0.0094003426
-0.014445558
-0.007930579
-0.01817253
-0.0052061613
-0.019583891
-0.0019026121
-0.016370317
-0.006926367
-0.0003560398
0.0034722755
-0.001023996
0.0079360235
-0.0017042284
0.010362452
-0.0022607961
0.01140465
-0.0026657184
0.011588238
-0.0029440058
0.011245705
-0.0031442448
0.010551588
-0.0033248624
0.0095708725
-0.0035471876
0.008298804
-0.0038710404
0.0066892435
-0.0043491656
0.0046714605
-0.0050183753
0.0021608031
-0.0058766085
-0.00093058232
-0.0068578315
-0.0046719979
-0.0077762853
-0.0090745886
-0.0082658332
-0.01395601
-0.0077687388
-0.018669624
-0.005751099
-0.021601531
-0.0024366711
-0.019684744
-0.0093630381
-0.00050826074
0.0039805362
-0.0012456299
0.008673393
-0.0017958811
0.010912703
-0.0020479958
0.011656765
-0.0020325018
0.011572744
-0.0018254209
0.011038624
-0.0015121869
0.010238355
-0.0011778546
0.00923654
-0.00090470814
0.0080256573
-0.00077371567
0.006558251
-0.00086348615
0.004761231
-0.0012473542
0.0025446712
-0.0019828289
-0.00019510765
-0.0030818655
-0.0035729613
-0.0044600292
-0.0076964248
-0.0058274849
-0.012588554
-0.0065661622
-0.017930947
-0.005768446
-0.022399247
-0.0029512247
-0.022501966
-0.012314263
-0.00086855305
0.0048490889
-0.0017629817
0.009567822
-0.0021213511
0.011271073
-0.0019368391
0.011472252
-0.0013509134
0.010986818
-0.00051618205
0.010203893
0.00043705331
0.0092851196
0.0013996266
0.008273967
0.00227239
0.0071528939
0.0029609282
0.0058697128
0.0033691624
0.0043529968
0.0033968098
0.0025170238
0.0029385543
0.00026314785
0.001909618
-0.002544025
0.00026969034
-0.0060564972
-0.0018541592
-0.010464705
-0.003951593
-0.015833513
-0.0048608327
-0.021490007
-0.0032547029
-0.024108096
-0.015568966
-0.0015910835
0.0064401721
-0.0026108517
0.01058759
-0.0025131322
0.011173355
-0.0015898993
0.010549019
-0.00017216105
0.009569079
0.0014928125
0.0085389192
0.0032329106
0.0075450214
0.0049232508
0.0065836269
0.0064630097
0.005613135
0.0077575135
0.004575209
0.008707518
0.0034029922
0.0092015047
0.0020230371
0.0091033481
0.00036130444
0.0082750957
-0.0017157725
0.0065654643
-0.0043468658
0.0039042379
-0.0078034782
0.0005589562
-0.012488231
-0.0024680531
-0.018462998
-0.0030273162
-0.023548832
-0.018596282
-0.0027183586
0.0091585311
-0.0031498652
0.011019094
-0.0018029963
0.0098264864
0.00046670634
0.0082793178
0.0030894306
0.0069463552
0.0057738197
0.00585453
0.0083629079
0.0049559331
0.010760406
0.0041861286
0.012893501
0.0034800397
0.014690669
0.0027780414
0.016068353
0.0020253083
0.01692329
0.0011680995
0.017119717
0.00016487742
0.016490832
-0.0010868876
0.014816842
-0.0026728755
0.011846659
-0.0048332947
0.0074354936
-0.0080770663
0.0022629302
-0.013290435
-0.001272466
-0.020013436
-0.019868748
-0.0024132783
0.011571811
2.8056918e-05
0.0085777572
0.0042551382
0.0055994034
0.0084161234
0.0041183322
0.012231487
0.003130992
0.015656267
0.0024297503
0.018686551
0.0019256492
0.021329194
0.001543485
0.023583495
0.0012257394
0.025429229
0.00093230678
0.026820172
0.00063436561
0.027677182
0.00031108898
0.027900206
-5.8145928e-05
0.027347226
-0.00053390764
0.025771633
-0.0010972823
0.022843048
-0.0019047096
0.018054771
-0.0032887893
0.011113587
-0.0063492511
0.0033886755
-0.012288525
-0.016480072
0.011571812
0.02014957
0.025748974
0.029867306
0.032998298
0.035428048
0.037353697
0.038897182
0.040122922
0.041055228
0.041689594
0.042000683
0.041942537
0.041408629
0.040311347
0.038406637
0.035117848
0.028768597
0.016480072
)
;

boundaryField
{
    movingWall
    {
        type            calculated;
        value           uniform 0;
    }
    fixedWalls
    {
        type            calculated;
        value           uniform 0;
    }
    frontAndBack
    {
        type            empty;
        value           nonuniform List<scalar> 0();
    }
}


// ************************************************************************* //
