/*--------------------------------*- C++ -*----------------------------------*\
  =========                 |
  \\      /  F ield         | OpenFOAM: The Open Source CFD Toolbox
   \\    /   O peration     | Website:  https://openfoam.org
    \\  /    A nd           | Version:  9
     \\/     M anipulation  |
\*---------------------------------------------------------------------------*/
FoamFile
{
    format      ascii;
    class       volScalarField;
    location    "7";
    object      p;
}
// * * * * * * * * * * * * * * * * * * * * * * * * * * * * * * * * * * * * * //

dimensions      [0 2 -2 0 0 0 0];

internalField   nonuniform List<scalar> 
918
(
0.41030889
1.6577103
0.013110237
0.36272201
0.0028976132
1.6283223
-1.1150934
1.1516868
0.45075369
-0.17935859
0.024428991
0.74440381
1.4998008
1.2613097
-0.93604764
0.023659253
1.0529414
-1.0720278
0.42237731
0.010902247
1.3372281
0.37961579
0.41375445
0.36425688
0.86148177
1.2726725
1.362361
-0.0028671369
-0.00020659845
-0.0034411394
0.0061322666
-0.0012117907
0.0063533541
1.5045977
1.5586047
1.5823338
0.69977322
0.18325951
-0.86382283
-0.99837115
-0.92288464
-1.2257633
1.122526
1.1285444
-0.52177976
1.1466735
1.1772703
0.61901218
0.4508955
0.45135103
0.37463753
0.42182256
0.43039273
0.38711284
-0.21036449
-0.30786928
-0.11674196
-0.085508465
0.11171715
0.018970357
0.019559581
0.030094164
0.036868577
0.636985
0.73702076
0.73276912
0.75517671
0.76991133
1.5948065
1.5582173
1.5852323
1.5320639
1.5223628
1.4797571
1.4428763
1.2990717
1.3062323
1.2595566
1.2252408
-1.4908134
-2.5750134
-0.33608653
-0.013060812
0.0032677342
0.030508444
0.037746839
1.019635
1.0307665
1.0412071
1.0703424
1.0374935
-0.94667928
-1.2983682
0.44616626
0.50062785
0.41048035
0.38712592
0.42438959
0.47191774
0.017207306
0.023715304
-0.010818198
0.010406598
0.0086739611
1.2915113
1.2721474
0.39173021
0.46354939
0.78376696
0.82399636
0.80271738
0.3614087
0.88910936
0.93838105
1.019117
1.2362741
1.2623095
1.2356644
1.3482069
1.3031254
1.4092025
1.4348659
0.010605257
-0.00016151773
0.021557761
0.0095728429
0.01977573
0.69470487
0.69212687
0.7235428
0.69658686
0.70068913
0.1972823
0.081975637
0.18580322
0.10714134
-0.70201267
-0.80842888
-1.0428755
-1.006109
-1.3041945
0.94308629
1.0996467
1.1098229
-0.53252639
-0.38461284
-0.64940828
-0.29790235
-0.40876194
0.68562614
0.62867287
0.68753531
0.43788107
0.55234801
0.54048541
0.4021209
0.42201164
0.42586871
0.43006594
0.50847675
0.33657258
0.29379176
-0.6212933
-0.34424687
-0.61853195
-0.057359056
-0.03420221
0.13002877
0.14682352
0.10549269
0.095136375
-0.016906255
0.0072959021
0.00076221409
0.031852878
0.034209625
0.62549138
0.61011906
0.65063775
0.66262632
0.7244587
0.72358719
0.72692456
0.72574689
1.3689138
1.3924295
1.4371511
1.4001766
-4.0407005
-6.8472913
0.3289423
0.52094499
0.0068017444
0.0052757408
0.0013073248
0.0022341331
0.0052797207
0.0034706156
0.061863426
0.054459848
0.042096286
0.049726582
0.99566824
1.0064853
1.0132475
1.1112002
0.90420147
0.90144799
0.69338117
0.64244203
0.54236977
0.64027664
0.029961035
0.024084134
0.030950685
1.1810753
1.2309857
1.2190433
0.27242817
0.12570454
0.44040996
0.49190361
0.9764087
0.9526055
0.98448084
1.0969708
1.1351237
1.424737
1.4366175
1.4745157
1.4712719
1.5193774
1.5116182
1.4699459
0.67084062
0.68844833
0.68067826
0.70298697
0.71649052
0.71914098
0.72419881
0.72052523
0.72430133
-0.05805173
-0.39977049
0.35227185
0.17754125
0.072014243
0.10176197
0.96698961
1.1117628
1.0596471
1.0806823
1.0917515
-0.16067226
-0.27363157
0.25268507
0.22834637
0.53385951
0.5899718
0.56061023
1.3430861
1.3435452
1.3897141
1.3521547
1.2937739
1.3162704
-0.41549755
-1.6229285
-0.99206942
0.94711263
0.71402373
0.82634754
0.083974041
0.06956048
0.07090836
1.0942965
1.1810268
0.56218257
0.75040068
0.72953953
1.1906756
1.2148566
1.2831545
1.2055381
1.2341559
1.2623599
1.2457909
0.73596288
0.47018284
0.67693306
1.0847031
1.181935
0.056849035
-0.03820253
-0.11725328
0.1609432
0.19900298
0.1783193
1.1435573
1.1458841
1.2156519
0.40475229
0.38921268
0.010880175
0.01634988
0.42843613
0.39276909
0.0050993582
0.0099787929
0.7932434
-0.68473909
0.11080248
0.57710368
0.6668127
0.45621412
-0.14993978
0.37903428
0.033492368
0.11463362
0.074762775
0.73577896
0.65318811
0.60068926
0.0076390274
0.030492515
0.021829377
-0.46078991
0.46644834
0.46053028
0.45474314
0.41857218
0.45061698
0.0061541964
0.0097180779
0.011792036
0.021667787
0.0083745949
0.013476922
0.69255613
0.72103834
-0.36408538
0.45680864
0.42369405
0.44294828
0.47948648
0.44079635
0.42755913
0.025673461
0.015891021
0.022443909
0.33280052
0.50634324
1.1257269
1.3469409
1.0937561
0.73222504
0.40769264
0.9826348
1.0885022
0.93706763
1.1448426
1.0536166
1.1031854
0.18189013
-0.046361434
0.20410001
0.15063852
0.55525353
0.65808341
0.62849555
0.69300436
0.5225467
0.54377247
0.48713627
0.52548296
0.46918142
0.46647197
-0.077858358
-0.096391993
-0.15999044
-0.26764447
0.40840731
0.52862517
0.31820005
0.31991289
0.18998089
0.040684646
0.039599618
0.030961837
0.026885382
0.082086637
0.082703741
0.10184919
0.098472159
0.065280426
0.065100752
0.086992878
0.080312189
0.096058536
0.72955152
0.72738625
0.73547569
0.74630384
0.66004867
0.6716767
0.61813772
0.65073184
0.62886651
0.53014201
0.59498565
0.55550315
0.0098391393
0.010703937
0.0076126631
0.036472034
0.041652623
0.023757933
0.015323191
0.023639438
0.016372289
0.015336739
0.025207944
0.029356041
-0.39052177
-0.56925452
0.98608526
0.79173097
0.42624407
0.60350064
0.51597073
0.5692419
0.50867559
0.4727085
0.46501962
0.49058941
0.51621326
0.71523259
0.72278101
0.70394732
0.72217206
-0.30282328
-0.50040452
-0.28607437
-0.33327605
0.022717134
0.93062062
0.51593608
0.39392524
0.3950217
0.76363612
1.208044
1.1075697
1.3046575
1.3239245
-0.31289508
0.21071569
-0.1026746
0.60483185
0.82500292
1.1079938
1.1756062
1.1814826
1.150329
1.0750441
-0.26089584
0.73971803
-0.19717324
-0.17869742
0.13307044
-0.02989705
1.1709807
1.0287955
1.0391445
1.0928174
1.1355396
1.0390293
0.99088369
0.99778985
1.0779237
1.0795677
0.70912178
0.37449494
0.25248246
0.24785153
0.99212388
0.77469514
0.86794147
0.71319721
0.69187564
0.654422
0.70475178
0.6872515
0.67354595
0.70187894
0.69013542
0.70710538
0.58506119
0.52600519
0.65011729
0.61318627
-0.057885024
-0.039644047
-0.046627536
-0.31586294
-0.28558146
-0.3996553
-0.17391748
0.16558592
0.13922304
0.42657534
0.54879171
0.095826674
-0.17769612
-0.10403761
-0.016252067
0.21912847
0.21608867
0.15423601
0.20645477
0.22485407
0.18479518
0.26759064
0.24648591
0.059535682
0.070798669
0.043111932
0.04032184
0.12535606
0.15323207
0.15305309
0.06749491
0.066606967
0.042723543
0.037450748
0.11027694
0.065248618
0.080989324
0.089163388
0.034810255
0.039380678
0.040388663
0.059753221
0.056630301
0.060490023
0.71683072
0.72232817
0.7210849
0.7437153
0.75830505
0.77781679
0.73840271
0.67744184
0.67589978
0.68732572
0.64494235
0.66501653
0.6595849
0.6691783
0.70404366
0.71434425
0.71496191
0.70796522
0.69294671
0.69544476
0.67514452
0.67803844
0.65611567
0.62397312
0.59397525
0.025034615
0.023193907
0.027163267
0.020643128
0.021674855
0.023285573
0.057798734
0.048224879
0.053763405
0.047219201
0.0526074
0.027204121
0.028068294
-0.18435611
0.017863098
-0.44568601
-0.46383169
-0.57594521
0.96175613
1.0757161
0.80723383
0.68332069
0.72074394
0.85795141
0.91661175
0.56782618
0.67431395
0.68231168
0.86323641
1.1128831
0.53951211
0.53949848
0.58139368
0.58130507
0.58548911
-0.15042433
0.038059775
-0.059529867
0.13294813
0.082672844
0.0739013
0.039855781
0.3903372
0.60162602
0.4413721
0.92724741
0.95222114
0.85322723
0.90403518
0.90834099
0.59868214
0.73233687
0.83727456
0.74815855
0.82918862
0.8550221
0.79776898
0.83909384
0.77098802
0.68773833
0.68753078
0.60340648
0.61559208
0.59258516
0.55314969
0.72087489
0.6821451
0.70133211
0.68804443
0.72828686
0.77720687
0.76408182
0.78827231
0.82315699
0.70123792
0.6443776
0.6506832
0.70157535
0.63880351
0.65998715
0.68310168
-0.12225318
-0.21767073
-0.1386903
-0.15266229
-0.092671385
-0.15904751
-0.18739882
-0.25246163
0.028186108
-0.50257172
-0.43954045
-0.79739322
0.61125752
1.2671927
1.1235608
1.0985206
1.1400159
1.0989705
1.0952182
1.1725871
1.175027
0.97977215
1.0185716
1.0194432
0.92148566
0.96380364
1.0662393
1.047033
0.70880537
0.46147361
0.40576461
0.40419652
0.17547082
0.24568382
0.61362609
0.47699673
0.34867467
0.35648845
0.68058611
0.47839785
0.58544878
0.66654657
0.5434973
0.47234782
0.80292309
0.92303002
0.90443521
0.86374798
0.69591194
0.73249383
0.79256523
0.86342766
0.89625628
0.96250927
0.66238116
0.66609065
0.62365934
0.61664097
0.72625637
0.6893661
0.6953557
0.68171182
0.6478642
0.61535372
0.66383034
0.01568418
0.030427859
-0.011548087
-0.0021387636
0.017256338
-0.010055756
0.093677829
0.05542956
0.054465283
0.059799602
0.016585844
-0.016883347
0.023327493
0.044500207
0.21996423
0.26543802
0.24074425
0.18106288
0.33021586
0.47924287
0.55984335
0.48564735
0.283505
0.31144586
0.36813861
0.12295734
0.12005367
0.10517447
0.14111262
0.14356151
0.042722329
0.050274268
0.053178618
0.054636134
0.057388512
0.042133364
0.032869635
0.032514986
0.029032527
0.033843093
0.035940087
0.68723309
0.68369834
0.69185848
0.67709417
0.67154728
0.70267767
0.69604371
0.70042655
0.70975032
0.71471117
0.70008498
0.70886885
0.71292419
0.04077073
0.032175617
0.033683527
0.035680184
0.033504472
0.02868743
0.026979537
0.3185541
0.16481432
0.30489009
0.051802826
-0.27214537
-0.1238493
0.49347787
0.7328002
0.57636034
0.96284599
0.73849458
0.58445202
0.78015278
0.99266217
0.54100158
0.74037347
0.60924459
1.0278542
1.002545
1.1074002
0.82983751
0.076191647
0.36422496
0.47984296
-0.010395647
0.1769553
0.30972175
0.16156956
0.24361812
0.20786003
0.38105582
0.034410793
0.013740072
-0.21536759
-0.14556318
0.10530786
0.19813237
0.03143779
0.019224096
-0.02681425
-0.14653217
-0.075609893
0.91672178
0.94913413
0.97835583
0.92978027
0.97624953
0.83564011
0.82358514
0.85421232
0.87482218
0.85535866
-0.63434962
-0.74510571
-1.0752453
-0.51001481
0.13238563
0.67101169
0.54209107
1.1121525
0.89311226
1.1161504
1.0651569
1.0005116
0.9187976
0.90162012
0.98198361
0.49240064
0.6532572
0.62608639
0.61813193
0.45575242
0.36183412
0.87941521
0.86415113
0.93031809
0.96232794
0.90650721
0.97857251
0.72664769
0.71744712
0.66189999
0.69131179
0.67474809
0.67880088
0.13319967
0.092650942
0.17360493
0.14849634
0.09397193
0.060925524
0.052480129
0.046566725
0.041964732
0.037948517
0.04615447
0.054126435
0.1294715
0.13725645
0.069974092
0.21343586
-0.15729476
-0.16672303
-0.25753742
-0.041631061
0.05940238
-0.022700927
0.63552598
0.88331102
0.75669574
0.79518892
0.63532212
0.66876816
0.4277665
0.12012131
0.207316
0.2950188
0.39426639
0.39931952
-0.46496904
-0.07991235
1.1646856
1.0900121
0.7446632
0.63997186
0.5624034
0.89693978
0.75918472
0.62594807
0.72428542
0.84834829
0.84095139
0.065836432
0.010067963
0.47786918
0.55479452
-0.03807519
0.018848378
-0.040838185
0.14654796
0.11327387
)
;

boundaryField
{
    wall-4
    {
        type            zeroGradient;
    }
    velocity-inlet-5
    {
        type            zeroGradient;
    }
    velocity-inlet-6
    {
        type            zeroGradient;
    }
    pressure-outlet-7
    {
        type            fixedValue;
        value           uniform 0;
    }
    wall-8
    {
        type            zeroGradient;
    }
    frontAndBackPlanes
    {
        type            empty;
    }
}


// ************************************************************************* //
