/*--------------------------------*- C++ -*----------------------------------*\
  =========                 |
  \\      /  F ield         | OpenFOAM: The Open Source CFD Toolbox
   \\    /   O peration     | Website:  https://openfoam.org
    \\  /    A nd           | Version:  9
     \\/     M anipulation  |
\*---------------------------------------------------------------------------*/
FoamFile
{
    format      ascii;
    class       surfaceScalarField;
    location    "7";
    object      phi;
}
// * * * * * * * * * * * * * * * * * * * * * * * * * * * * * * * * * * * * * //

dimensions      [0 3 -1 0 0 0 0];

internalField   nonuniform List<scalar> 
1300
(
1.7582594
5.6264299
-7.6677449
1.7582594
-7.518897
5.6264299
-6.4675521
6.4675521
-2.0991427
2.0991427
3.7276113
3.657078
-6.2310118
6.2310118
-6.3358289
6.3358289
-3.9856774
3.9856774
-5.2376239
5.2376239
-5.0560681
5.0560681
4.8028987
-4.8028987
-6.1437636
6.1437636
-2.7393752
2.7393752
-6.9224191
6.9224191
1.5220225
-1.5220225
-6.408296
6.408296
-0.76145486
0.76145486
-0.58731599
5.1587903
1.1709434
1.1709434
-3.6423365
3.6423365
-4.8254913
4.8254913
6.2142765
-6.2142765
11.563585
-11.563585
-3.8958403
-4.0302428
1.6017451
-9.6573899
-5.9171518
-5.9171518
-8.4383037
8.4383037
-2.8118737
2.8145563
3.9330528
-3.9330528
-1.615909
1.615909
-6.2847926
-0.18275946
-6.2847927
6.6890576
-0.22150555
6.6890577
-2.3289916
0.22984887
-2.3289916
5.6976071
-5.6976071
1.8380938
0.2610489
1.8380938
2.5923042
-2.5923042
-3.7275826
7.455194
3.6571067
-3.0680825
8.2268728
-3.3788684
7.0359464
-5.8049526
5.8049526
-6.3914271
0.16041535
-6.3914271
6.1561926
0.074819191
6.1561926
-6.3913756
6.3913756
-6.2925989
-0.043230003
-6.2925989
6.3740205
-0.038191622
6.3740205
4.249486
-4.249486
-4.0228614
0.037183979
-4.0228614
3.8899037
0.095773774
3.8899037
0.35897912
5.2674508
-5.9854091
8.7999654
-5.2674507
0.029826747
5.1999008
0.037723156
5.1999008
-5.0931814
0.037113252
-5.0931814
5.0120318
0.044036264
5.0120318
4.919669
-0.11677036
4.919669
-4.8924974
0.089598748
-4.8924975
-3.9661328
-3.922999
-6.2290397
0.085276103
-6.2290397
-2.7753217
0.035946505
-2.7753217
2.7021569
0.037218283
2.7021569
-4.6210339
4.6210339
-7.1233494
0.20093033
-7.1233494
1.8568323
-0.33480975
1.8568323
1.9993234
2.5721509
3.7575827
-3.7575827
2.2355602
-6.4034912
-0.0048048111
-6.4034912
-6.429004
-5.1345812
6.429004
-0.020707966
-1.2163896
0.45493471
-1.2163896
1.4887239
-0.31778055
1.4887239
3.7780091
0.1118946
-3.778009
0.13567252
4.7900559
-4.7900559
2.8162808
0.82605575
2.8162808
-5.5864084
5.5864084
4.9444796
0.067552259
-4.9444795
0.11898815
6.1545508
0.059725681
6.1545508
-6.192511
-0.021765531
-6.192511
4.0067716
-8.0370145
-3.9474516
6.0399803
0.10378331
-6.0399803
0.12282847
4.072309
-0.13925625
4.072309
-3.8876414
3.8876414
-3.6332472
-0.2998056
-3.6332472
-2.0931035
0.47719455
-2.0931035
1.2227312
0.39317792
1.222731
-6.0312754
-0.25351725
-6.0312754
-6.9529597
-0.17038976
6.9529597
-0.26390207
2.2027971
-2.2027971
-2.499784
0.17079235
-2.499784
-5.8374008
-0.19387459
5.8374008
-0.13979372
-5.5791406
-0.1184665
-5.5791406
-3.1751835
-0.45806369
3.1751835
-0.58287938
1.9816696
-0.49294566
-1.9816695
-0.61063463
-3.0738033
5.6459543
-3.3731477
7.0302543
-5.604304
-0.20064857
-5.604304
5.988772
-0.18381938
5.988772
6.7005784
0.22184071
-6.7005784
0.30915128
6.1616159
-0.0054233074
6.1616159
-6.3716529
-0.019722743
-6.3716529
6.402028
-0.010652328
6.4020279
6.224734
-0.063118188
-6.224734
-0.067864853
6.3980337
-0.024013216
6.3980337
4.3136695
-0.064183536
4.3136695
-4.200177
-0.049308925
-4.200177
4.0341108
-4.0341108
4.0259881
0.0081227579
-4.0259881
0.0031266795
-11.14916
11.127395
-0.035852766
-11.113308
5.164048
5.164048
4.1521561
0.76751308
4.1521561
-5.0735517
0.18105426
-5.0735518
3.9588608
-7.9063124
3.8645742
-7.8307071
3.9821373
-13.639527
4.0111726
-7.9341715
6.3476767
-6.3476767
6.2932612
0.05441551
-6.2932612
0.064221465
-2.7908801
0.015558335
-2.79088
-4.3524851
-0.26854869
-4.3524851
4.9415218
-0.32048786
4.9415219
-3.0970462
3.0970462
-2.5038341
-0.59321211
2.5038341
-0.64700181
6.4014545
-0.0034207738
-6.4014545
-0.0020366954
1.5526839
0.28540986
-1.5526839
0.33629429
5.0811979
-0.29114202
5.0811979
-4.5347041
-0.25535178
-4.5347041
-2.820541
0.029660965
2.820541
-0.0042602129
-5.8269032
0.24049477
-5.8269032
-11.213745
0.10043744
-11.176022
-6.0920735
-6.0920735
2.34623
11.146195
-4.1487067
-0.051470307
4.1487067
-0.076397668
3.5753502
-0.47830407
-3.5753502
-0.31229125
-4.0125314
-0.021579423
4.0125314
-0.12488994
-2.5942892
0.50118566
-2.594289
-1.2347334
1.2347334
-1.0533976
-0.18133582
1.0533976
0.1693334
2.7586848
-0.55588764
2.7586848
2.6272697
0.074887271
-2.6272697
0.1274857
-5.4274584
-0.1516822
-5.4274584
6.1793534
-0.1905814
6.1793534
-4.3916859
-0.14301824
4.3916859
-0.078016403
-0.035272463
11.162667
-5.1287755
0.035594143
5.1287755
-11.222393
11.257987
-3.2006866
0.60639758
3.2006866
0.95146949
5.3257143
0.26069403
-5.3257143
0.25216249
6.3850298
0.016998101
-6.3850299
0.037353208
-4.0598563
-0.29262882
-4.0598562
-5.2915015
-0.31280253
5.2915014
-0.34997954
-11.475067
-0.19171656
11.666784
-11.431031
6.0186198
0.13593101
-6.0186198
11.393918
-1.6827013
-0.52009579
1.6827013
-0.44796779
3.2361792
-0.47749446
3.2361792
5.3107174
-0.22951954
-5.3107174
-0.11674097
-6.3159379
-0.055715015
6.3159379
-0.13658449
-3.6929335
-0.36692277
3.6929333
-0.45675409
-5.4973961
5.1796155
2.7294768
-3.9866657
-4.0503487
-9.1212469
2.6429388
3.0030155
4.8784991
-8.3885532
-5.250974
-8.2657247
7.2894987
-7.0373363
-9.5723087
9.4555384
9.9444141
-10.062881
-7.4856644
6.8386626
7.6580087
-8.2408881
3.7234849
3.7317091
12.810642
-12.650227
-12.344556
12.143907
12.291345
-12.334575
12.717981
-12.737704
-14.726549
14.743547
-7.6594748
7.6966588
-8.838135
8.7888261
-9.0631871
8.9851707
-3.9998854
-3.8308216
10.775903
-10.690627
14.034716
-14.03952
-13.222482
13.423413
4.1652746
1.0143408
3.672329
-3.5826231
7.306108
-3.4533233
6.1828001
3.9328301
-7.9327155
3.9734823
-8.023831
7.2230927
6.811623
-7.2023847
-1.9188622
-7.8606646
7.7214083
-7.8276446
7.7027547
11.563811
-11.746571
-3.542496
7.2742051
-3.4877583
6.4907738
-3.5207798
-3.9648846
3.8555896
1.0229095
6.637388
4.138515
-6.7411713
-1.5245534
-10.05319
9.8236708
-10.518129
10.262777
-0.49413539
5.8113121
-5.3171768
4.3313559
-1.4671413
7.2784534
5.8223574
6.0034116
5.8711333
-5.6104393
1.1662031
-6.4833799
-6.3643917
-3.5417136
3.712506
3.4870746
-3.2260257
7.8814401
2.062974
7.7416464
-7.1988957
-2.863985
-7.3505778
4.8174339
2.0212287
4.2242218
5.2390947
2.418914
4.781031
5.7134963
-5.7484632
0.034966876
-5.0745405
10.788037
1.5257419
-9.0394252
-8.0165157
8.2866418
4.5240005
8.361461
-8.6866303
-3.9635967
-8.377479
-7.4685589
-4.8759967
-7.7813613
7.8610283
4.2828788
7.6772089
-9.4494049
9.3128204
8.1762794
4.1150654
8.1380878
-8.16657
-4.1680049
-8.2344348
12.412277
-3.2385315
-9.1737452
-8.2305626
-6.4959858
8.241215
4.476766
8.9673464
5.7762002
9.0046996
4.269163
8.1431136
-8.745929
2.2499431
-5.1165496
-2.5429252
-5.1134229
4.9855398
2.7111189
5.0813136
-5.5361546
-3.3019804
-5.5876249
-5.6317734
-3.4314137
5.6959569
3.0928692
-5.7426792
-4.7754499
5.8856974
3.0994733
3.5521416
-8.8031155
4.3820299
-8.2128515
-7.5008515
-3.1897754
-7.43663
4.836658
3.1638191
-8.0004771
-3.0960576
13.038751
-6.2271278
11.119889
-8.7590668
-5.2804537
-8.7611035
-9.7713693
-3.451113
-9.9417591
-7.0601245
6.7674957
-7.1110967
6.7906089
12.779566
-6.4140288
-6.3655368
-4.2777087
-3.9631794
4.8883434
-1.2160144
-7.0400657
7.0750326
0.26604225
6.4488423
7.4631831
6.2471687
-4.7858555
-3.0417891
-5.0981468
5.1463883
2.5563663
5.1248089
9.1377218
2.4260892
8.9162162
-8.3308798
-3.4156907
-8.5843971
9.8780245
-9.4008299
3.9524319
-3.9227709
6.8714841
3.3912932
-6.5803421
-3.4728483
7.9516211
-3.9918479
-3.9597732
-12.148124
10.698568
1.449556
-4.8696711
-0.53831526
0.22313961
-5.6000161
-3.9722926
5.5104175
0.49299418
11.191563
7.2192699
-5.519402
5.7598967
6.147382
6.2149343
-0.14945743
6.2124577
-5.6060602
7.0920678
-3.0308728
-4.061195
6.9781898
-7.1720644
-1.6062073
-7.0132254
5.4070182
0.56958199
2.4563834
-2.0014487
-2.8552829
-0.68643075
-2.7277972
2.0703601
1.4167144
2.35577
1.3469
2.3656059
-3.8041601
0.63057095
3.1735892
-2.4572601
-2.5954548
-4.7581151
-1.2797702
6.0378853
7.1841302
2.6395406
-7.0673892
-0.28318861
3.705228
-3.6680097
-1.1715522
-3.5865629
2.5701733
-3.7417255
-4.5250627
-2.5099547
7.0350174
-3.8161493
-1.2819975
4.2944534
-0.070231655
-4.7204144
-3.1402502
5.02022
-0.23918898
-4.0382456
8.4205379
-4.3822923
-7.0800347
4.6977733
6.0902636
6.719002
-8.2667294
4.0714394
4.19529
-2.1764659
7.1604292
1.2010318
7.1550059
-11.069184
7.1055869
9.167791
4.2556218
-9.3896317
1.0121527
-10.057031
11.479706
-9.8295313
-1.6501751
6.0523365
5.4273699
6.1810312
6.5985345
-4.7684767
10.949508
-1.0997708
-8.7297605
11.156802
-6.9011799
6.3012838
-13.202464
-12.899818
4.1700579
-8.1755659
10.116731
-1.9411646
-2.9733987
-6.4760061
11.148965
-1.0106214
-10.138343
6.6665875
-6.3458087
-6.3338535
12.679662
-9.5843401
10.501858
-3.1533326
-7.3485257
-7.9440315
-4.7936722
7.9997465
1.3130739
-11.789045
14.038988
-3.6459312
7.1039403
1.0341476
7.0799271
4.649612
-7.1872251
2.537613
4.9347281
-8.0880608
3.0289726
-10.216198
-5.7455412
11.238186
-5.4926452
-8.9353165
-7.970179
-0.96513759
2.4296222
11.609366
-8.2058224
6.3476938
1.8581287
4.4468879
0.67792101
-4.4550107
-0.65841225
0.44493373
5.937303
-6.3822368
5.5262474
5.638142
4.430497
1.5068061
5.1325501
2.5888582
-5.0561524
-0.53147244
-5.3685329
1.9371191
-2.2756637
-4.5923703
6.5294894
-5.2148465
0.62247622
-3.5131518
-4.5984373
8.111589
-6.0560769
4.2276419
4.192896
6.7840083
-6.4087221
1.8102848
-3.1665614
-3.2421607
3.4045617
-5.6802254
2.4538508
4.0756387
5.5533241
0.77787422
5.6914377
5.5467487
-8.8552568
0.64240528
9.6852637
-8.1607103
1.9858072
7.0188924
-8.333501
0.36332207
-7.0733079
1.3584133
-7.5855411
-6.6420638
6.6647694
-10.115882
-6.5376943
8.7438462
0.17237004
-8.4799443
-1.4618147
-4.8003737
-2.2597507
-5.1672964
-2.1449126
-4.9661841
-6.9133892
-1.5327631
-5.3806262
5.2347327
-5.2649695
-2.5163918
5.614949
1.17566
-6.9812926
6.4611968
-6.2236105
5.7461161
0.41966718
6.6553654
6.6668359
2.7036564
-4.4788995
7.182556
-6.3039452
8.7300344
-10.203902
3.8999568
5.1929186
-8.6086093
-5.0109833
5.4802823
4.3977422
5.8734604
8.8021104
-12.63147
3.8293598
-11.43509
11.088313
0.34677662
-16.740705
5.3056157
-7.9385948
3.5981858
0.3542461
3.6137441
0.86050599
3.1114882
-3.9719942
-3.0622649
-3.0665251
-2.9061978
-4.3962009
7.3023987
1.4551245
-4.3188919
2.8637673
-4.5461997
6.0013242
-0.013613149
-4.3052787
6.8373698
-3.7258816
7.1916159
-4.5598128
2.6318031
4.2257395
7.2114766
-2.9857371
5.593395
-2.2021019
2.2756542
-5.2613913
-2.1205467
-3.9468549
6.6579738
-4.1647342
4.7872104
-0.27573703
5.0629475
-5.2830524
1.2912045
-0.8525554
4.7855866
4.9212591
5.54497
-4.038164
3.6761945
-5.8782964
-1.5851968
-5.1004222
-1.0247835
-0.35963284
-4.9995109
5.3591436
7.2759905
-7.6356233
-5.7051929
10.464134
-4.7589413
8.392379
-5.6583586
-2.7340203
-4.6683455
-4.7324845
4.1671597
2.045298
10.437677
0.28584947
-5.944208
-5.3202106
-4.3687411
4.2819787
2.8100891
-2.5570261
4.006582
2.3338865
0.12249695
0.84345085
1.5123191
2.4584159
-1.614965
0.15283531
2.3055806
-1.8486134
2.7736725
0.93155548
-2.8485598
0.12076255
-1.9031258
4.4732991
1.2704633
-2.6871777
1.0722127
1.5065809
-4.5374537
6.2983348
-3.1932403
-3.1050945
7.8049156
1.4083851
-4.6016254
5.6048403
-5.0352583
2.9952623
-4.2750325
-1.6063631
-6.6416215
-4.5786475
-3.1790653
6.0428326
-4.1233334
6.762874
1.5177699
-6.4796854
7.9974553
-4.5466343
2.0366796
-4.0681739
4.9997294
-1.4546898
-2.613484
3.477298
3.5577194
-3.7490531
0.16249027
-0.27175513
2.9184705
-3.1902256
-0.82325505
-3.2805151
-6.6996941
6.4605051
-2.9017759
6.9732153
4.2807801
-2.4820281
9.4552434
3.0981656
-5.5801937
-3.9818691
-5.2638666
-1.3849037
5.3340983
-1.2043215
-7.0301133
-8.5528473
7.0932315
0.06177444
-11.002715
12.349129
-1.3464138
-6.478715
-0.62687183
6.6792083
-8.992233
0.90417225
-5.9632604
6.3858688
7.5869006
7.6486751
-10.015062
-0.12328109
-5.7321834
1.520479
-7.2526625
6.947849
-3.6322578
7.8023157
-8.4929102
5.9765184
-7.3172501
6.1521407
-1.1005218
6.6367738
-4.0991608
2.5369714
-7.3306436
-6.0175697
8.3486094
-4.233544
9.382757
-4.8001869
14.182944
-8.4461181
8.2325207
5.9504232
-1.6266712
-7.1344322
-8.1745948
6.5479236
0.057925948
7.137853
6.5098628
-3.9210046
5.9783904
3.0038154
-6.1703768
-2.67641
-8.6650973
2.4947206
-4.4722014
-2.4766839
4.9714045
4.3073243
4.9852454
1.7292438
-4.3268331
7.8353249
-8.8004625
-2.3426797
-4.2993841
8.0671126
-1.5191891
4.7988821
-9.0982661
-2.786659
7.0547171
-2.1917793
-4.8629378
-0.6406882
-5.897006
3.6831181
-9.5801242
6.4327643
-7.8945791
2.1472547
-10.08585
-4.8340379
-5.2820056
-1.9585742
-4.2650363
-6.9458886
4.9873144
-1.640273
4.8209239
-8.3994593
6.2076799
-2.6888536
7.6761678
-4.2582554
-0.90904101
4.7150096
1.0311066
8.7072744
0.92987089
-5.9408541
-2.9444492
5.4772433
-2.5327942
1.3375296
-4.0696399
1.4076035
3.2330783
4.5718373
-8.6400965
0.031487316
-5.9093669
-4.1657614
8.5635038
6.298373
13.574364
0.94289334
9.8655289
-1.3020251
10.808422
4.5714353
4.7407688
-3.4944187
7.3237785
1.8647249
5.7646818
-1.1192297
3.7510328
2.4945144
2.530461
1.1375487
2.9753143
1.9459447
4.2665189
0.29452466
-2.7720005
4.7386202
-9.1073613
-1.2055877
-8.3398482
1.1156901
5.86475
-4.7490599
4.4156923
-1.6056033
1.8828983
0.32429266
-2.632024
2.3077312
-3.7369022
-2.5095271
-0.20394655
-1.9997683
3.071981
2.4735308
-2.8680344
-0.86886773
0.32004084
-4.8986883
3.9549916
-3.7925014
-0.23478203
7.7626733
-3.4735262
0.28330059
-1.4368466
-2.9972146
-3.6836453
3.5628828
8.7694282
0.68581514
4.3871359
7.1463202
4.0060701
0.085065446
5.2477647
-7.1889294
-4.968433
-7.3122105
-0.36436146
6.3148468
2.400062
9.2093037
8.3504852
6.8312961
-2.26697
-11.067432
7.910866
-0.58708768
8.2576426
-3.3947047
-6.1854195
6.5823781
2.1476564
-6.7547479
-1.1398312
-7.3252505
-7.9123382
-0.8040118
7.011692
-7.9032627
6.9942218
4.734471
0.64615506
-4.4462222
-0.83578348
4.6275579
0.11321082
10.921633
-1.0930081
-7.1789201
8.2719279
-4.7717421
3.5661544
1.1671489
2.839433
3.4748801
1.8692768
-5.3096432
-10.058703
-2.4520833
-2.0853705
-5.5571778
0.48070749
-2.9542382
6.5298388
-2.9636843
3.7958184
5.3082439
7.1911424
-2.0621374
-5.5734858
6.8210788
-3.0252604
4.1658822
)
;

boundaryField
{
    wall-4
    {
        type            calculated;
        value           uniform 0;
    }
    velocity-inlet-5
    {
        type            calculated;
        value           nonuniform List<scalar> 8(-1.7582594 -1.7582594 -7.3846893 -4.5714743 -7.3846893 -6.446951 -4.5714743 -6.446951);
    }
    velocity-inlet-6
    {
        type            calculated;
        value           uniform -5.6264299;
    }
    pressure-outlet-7
    {
        type            calculated;
        value           nonuniform List<scalar> 8(7.6677449 7.518897 7.9260832 8.0556448 7.8891318 7.9542232 7.823435 7.9933098);
    }
    wall-8
    {
        type            calculated;
        value           uniform 0;
    }
    frontAndBackPlanes
    {
        type            empty;
        value           nonuniform List<scalar> 0();
    }
}


// ************************************************************************* //
