/*--------------------------------*- C++ -*----------------------------------*\
  =========                 |
  \\      /  F ield         | OpenFOAM: The Open Source CFD Toolbox
   \\    /   O peration     | Website:  https://openfoam.org
    \\  /    A nd           | Version:  9
     \\/     M anipulation  |
\*---------------------------------------------------------------------------*/
FoamFile
{
    format      ascii;
    class       volVectorField;
    location    "7";
    object      U;
}
// * * * * * * * * * * * * * * * * * * * * * * * * * * * * * * * * * * * * * //

dimensions      [0 1 -1 0 0 0 0];

internalField   nonuniform List<vector> 
918
(
(0.42976539 -0.0086291833 0)
(0.0090451376 2.9576165 0)
(-0.0006374636 2.0380801 0)
(0.28826588 -0.0092200333 0)
(-0.0062725845 2.0031589 -1.654519e-21)
(-0.011746616 2.9485596 -3.1903701e-18)
(1.1294992 1.7681954 9.2629416e-19)
(0.68712463 0.39403478 -2.4065415e-20)
(1.9887394 0.0048194313 0)
(0.016032096 1.8622174 0)
(-0.0081275445 1.9076478 0)
(1.2011115 0.0077438501 0)
(0.012871548 2.9162523 0)
(0.013731339 2.7903056 0)
(0.10759212 3.2128471 5.1292865e-19)
(0.0012653685 1.9495293 -2.3014937e-20)
(0.85955701 0.20608011 1.5516681e-18)
(0.25960558 2.1916594 7.9901353e-19)
(0.37305054 -0.018476486 0)
(-0.0025822249 1.9353714 0)
(0.23772038 0.38795858 -1.2997176e-18)
(1.0309058 -0.024149471 0)
(0.51005832 -0.031430868 0)
(0.23437045 0.025661988 0)
(1.0977449 0.0081729724 0)
(0.028577509 2.5971262 0)
(-0.0098826198 2.9060548 1.1656832e-18)
(-0.010131507 2.0478904 0)
(-0.0096769366 2.1142208 0)
(-0.0075937698 2.0575011 0)
(-0.0012384873 2.1461427 0)
(-0.0038802688 2.0236949 1.2970134e-21)
(-0.0033054473 1.9552739 0)
(-0.018143956 2.9813525 -1.1837821e-22)
(-0.018365259 3.0070386 2.4769624e-18)
(0.00087129106 3.0016028 0)
(1.181295 0.023929322 0)
(0.34093494 0.79413031 1.1973186e-19)
(1.1893251 1.7066094 -1.094164e-18)
(1.278387 1.5769349 1.1745389e-18)
(1.0182928 1.8920135 -2.1215658e-19)
(0.94238236 1.9603933 1.2439171e-18)
(0.78122871 0.42913348 2.3378163e-20)
(0.74720879 0.36979501 0)
(1.6122047 0.91132885 0)
(0.71316623 0.44701803 1.0770004e-19)
(0.6241149 0.39920828 -1.123057e-19)
(0.73323787 0.08288345 0)
(1.9870714 8.651915e-05 0)
(1.9883234 -0.0047931267 0)
(1.3793482 -0.0015779704 0)
(1.8643899 0.0087935234 0)
(1.7357939 0.0057115386 0)
(0.0076424027 1.8775481 -6.8388451e-19)
(0.030405498 1.9918236 0)
(0.040782328 1.9158409 0)
(0.010842934 1.9655923 0)
(0.0038805849 1.8319914 0)
(-0.0029369766 1.9566066 0)
(-0.0095152706 1.9862779 0)
(-0.0080093315 1.8927606 0)
(-0.010199983 2.0018021 0)
(-0.0061843944 1.9168469 0)
(1.2806094 0.0064642559 0)
(1.2596233 0.005820992 0)
(1.2127236 0.0012103037 0)
(1.2409908 0.016956928 0)
(1.170926 0.01475538 0)
(0.016739233 3.0145297 1.2193606e-18)
(0.012400185 3.0112838 0)
(0.007734733 3.0036362 0)
(0.013359875 3.0005018 1.29704e-23)
(0.010549562 2.9476221 -1.7414644e-18)
(0.016872625 2.9848642 0)
(0.013434796 2.8936865 0)
(0.017741978 2.9234854 2.7685887e-24)
(0.013796755 2.8179888 0)
(0.01803006 2.9094655 0)
(0.011273961 2.7526466 0)
(0.26306025 3.6911597 0)
(0.18687933 3.6292331 0)
(0.14301864 3.3469525 -4.8022246e-19)
(0.055127288 3.0297777 0)
(0.007735746 2.1026883 0)
(0.00070225486 2.018823 2.2707368e-20)
(0.00055151218 1.9490943 -3.304507e-20)
(0.95070284 0.20903521 -5.3423915e-19)
(0.88948871 0.16009278 -5.175437e-19)
(0.92383447 0.25437 -1.6031194e-18)
(0.84130115 0.24848138 -1.0666764e-18)
(0.19119822 1.5776966 0)
(0.38184943 2.2800788 -8.6919259e-19)
(0.49167348 2.2496626 1.455488e-18)
(0.61234472 -0.072319922 0)
(0.4672491 -0.062934761 0)
(1.2168741 -0.00072173993 0)
(0.73812383 -0.02700777 0)
(0.65343777 0.0049529552 -2.1690992e-18)
(0.64187609 -0.019393447 1.7158773e-18)
(-0.0012504343 2.0075307 0)
(-0.00079097788 1.9347803 0)
(-0.012243932 2.0570764 0)
(-0.0046458598 2.0146973 0)
(-0.0030634106 1.9412598 0)
(0.37048049 0.44436701 3.9380935e-19)
(0.42563427 0.38325767 0)
(0.55573338 0.10731079 0)
(0.3078639 0.058993567 0)
(1.2027743 0.020716886 0)
(1.1659795 0.016364551 0)
(1.1407942 0.0095325432 0)
(1.4314521 0.044204065 0)
(1.1224944 0.03080203 0)
(1.0215394 0.040220775 2.1879915e-18)
(0.0040908516 2.868268 9.7120997e-19)
(0.02321331 2.8971481 0)
(0.041708803 2.8678689 0)
(0.016931521 2.6968079 0)
(-0.010160388 2.9857082 1.122668e-18)
(-0.0088423519 2.8914947 0)
(-0.011689177 2.9906205 -3.4560836e-18)
(-0.0096055279 2.9158549 1.1836945e-18)
(-0.0079726592 2.1460414 0)
(0.0051084827 2.1227348 0)
(0.0017920801 2.0218419 -5.9408782e-22)
(-0.00036513105 2.0179547 0)
(-8.3286504e-05 1.9495592 0)
(1.2650377 0.022643737 0)
(1.2235054 0.010325709 0)
(1.1675057 -0.026112296 0)
(1.2016634 0.049911762 0)
(1.0840872 0.043977874 0)
(0.46158329 1.1019549 -1.4235357e-19)
(0.51545954 1.1322921 0)
(0.3592472 0.86199526 1.6010903e-20)
(0.21083203 0.42825174 0)
(1.3202764 1.4821055 -3.3130762e-19)
(1.3956617 1.335533 6.5976693e-19)
(0.59528354 2.2273001 0)
(0.81374842 2.0802182 0)
(0.72740687 2.1380688 0)
(0.37351419 0.68221109 -4.1597264e-19)
(0.83278328 0.39122403 0)
(0.78709624 0.33547249 3.0353443e-19)
(1.4530379 1.2519818 0)
(1.5647138 1.039481 0)
(1.514556 1.1149653 -5.3855081e-19)
(1.6440557 0.83212423 0)
(1.679234 0.70716068 1.0173851e-19)
(1.0907581 0.07420354 0)
(0.94946084 0.11766632 0)
(0.9281204 0.063328993 0)
(0.65397763 0.11133158 0)
(0.7734481 0.12652937 0)
(0.51913274 0.067573438 0)
(1.5078054 -0.0048582535 0)
(1.8677732 -0.008674619 0)
(1.7302359 -0.0041384718 0)
(0.013653869 1.938379 3.6981732e-19)
(0.022015829 1.8525088 0)
(0.010213506 1.9605405 5.9897144e-19)
(0.011461397 1.9047559 -5.0433791e-19)
(0.17626969 2.1729401 -6.5469617e-19)
(0.064542917 2.045864 0)
(0.10261656 2.0444227 0)
(-0.0027933051 1.9548121 0)
(-0.0051678938 1.8375434 0)
(-0.0053966265 2.0239502 -1.5521495e-21)
(-0.0034960754 1.9609039 0)
(-0.0021477965 2.0240707 -7.9408636e-20)
(-0.0022274787 1.9559621 1.4996166e-19)
(-0.012146562 1.9622334 0)
(-0.013110685 1.975566 0)
(-0.0080424012 1.8631874 0)
(-0.0058685238 2.0106887 0)
(-0.002352684 1.9266298 0)
(1.3464378 0.011191945 0)
(1.3005757 0.0063981947 0)
(1.3268633 0.0081578801 0)
(1.2656542 0.0051868665 0)
(1.211718 0.00051102254 0)
(1.2698857 0.0020495381 0)
(1.2664181 -1.8864059e-05 0)
(1.2107027 0.0007647479 0)
(0.0038500703 3.0718692 -1.0385545e-20)
(0.010882503 3.0619897 0)
(0.01617895 2.9687263 0)
(0.013240939 2.8675616 0)
(0.75329869 4.2994654 0)
(1.2644475 3.3627305 9.6637542e-19)
(0.077814389 3.1564301 0)
(0.032734227 2.9257244 0)
(0.0066321634 2.1013238 0)
(0.017743384 2.08293 0)
(0.011318839 2.0863988 0)
(0.0028253219 2.130761 3.0146218e-21)
(0.0137118 2.1186586 0)
(0.0034518329 2.1302574 0)
(-0.00025931886 1.9461792 6.0368779e-21)
(-0.00037405285 2.0214953 4.613581e-20)
(0.0010498157 2.0196933 3.3777069e-20)
(0.00027924243 1.9451526 0)
(0.97870248 0.16007952 8.0010538e-19)
(0.9219705 0.12059654 -7.7999842e-19)
(0.2475208 1.703955 0)
(0.26562227 1.515696 -3.1972405e-19)
(0.16995343 1.7503374 -9.1283279e-19)
(0.12105393 1.6574738 9.1492246e-19)
(0.90571819 -0.060757222 0)
(0.92457224 -0.10661782 0)
(0.76605107 -0.1383885 0)
(0.69043133 -0.077924082 0)
(-0.0020573978 2.0121501 0)
(-0.0013382833 2.009129 0)
(-0.00097056758 1.9305669 0)
(0.64098964 0.4558511 9.8789197e-19)
(0.54094179 0.45832 -1.2018634e-18)
(0.54134016 0.39583983 0)
(1.594399 0.10991194 3.1840513e-20)
(1.584696 0.1180805 0)
(1.46809 0.05122524 0)
(1.3621058 0.02456452 0)
(1.0136239 0.12335046 0)
(1.0586334 0.075316357 -3.520495e-18)
(0.96667997 0.084836502 1.3386701e-18)
(0.0051859202 2.9890043 9.9207811e-19)
(-0.0019880405 2.8701434 4.9617333e-20)
(0.0038869571 3.0536593 -2.1790855e-20)
(0.012803451 3.0476285 7.8433554e-19)
(-0.0094454986 2.9950859 3.8524268e-20)
(-0.0084751362 2.9361476 -1.5472777e-22)
(-0.013166456 3.0201711 -7.2732365e-19)
(0.0011774526 3.0233088 5.2423449e-19)
(0.0067112625 3.0396541 -7.8490127e-19)
(1.3144574 0.0084016809 0)
(1.2970345 0.01185075 0)
(1.2468808 0.0065930286 0)
(1.0701456 -0.076113894 0)
(1.1857264 -0.053487408 0)
(1.0659271 -0.046261898 0)
(1.2703644 -0.0036544534 0)
(1.2500048 -0.022091138 0)
(1.2058233 -0.0072546332 0)
(0.69532403 1.4171552 1.0006066e-19)
(0.78037781 1.5020727 0)
(0.18981107 0.22773644 5.5532682e-20)
(0.49447186 0.75060332 2.1446332e-19)
(0.38556322 0.74390993 -8.2309152e-20)
(0.16545489 0.20898356 1.1425054e-19)
(0.57497911 1.165011 2.1011677e-18)
(0.41694598 0.94531884 4.9195318e-19)
(0.90310452 0.301883 1.1412612e-18)
(0.87124539 0.35005539 2.8287774e-19)
(0.81695823 0.2940249 5.7504014e-19)
(1.6817879 0.61200282 2.3092308e-19)
(1.7086633 0.48103409 2.3165883e-19)
(0.016702311 1.9907291 2.3054084e-19)
(0.011072756 1.9398644 0)
(1.4029075 0.028594646 0)
(1.3649263 0.013174722 0)
(1.3237872 0.012701228 0)
(0.010159059 3.0772699 0)
(0.016968435 2.938465 1.5241784e-18)
(0.016536409 2.9535427 0)
(0.013473006 2.8432115 -1.5214776e-18)
(0.0098015388 3.0917993 3.4793025e-19)
(0.0040876582 3.0886362 0)
(0.88477236 1.8054826 -1.5042165e-19)
(1.1643008 2.4215618 2.1525739e-19)
(0.87024178 1.9195142 -9.9835814e-19)
(0.017745017 3.0063944 -8.9122138e-19)
(0.039932896 3.0528732 0)
(0.015053696 2.8853239 0)
(-0.0032170628 2.0206771 -9.3356326e-21)
(-0.0012575114 2.0223228 -1.0857718e-19)
(-0.0011493193 1.9531689 -5.7051181e-21)
(0.32775918 1.6430078 1.0154411e-18)
(0.33317524 1.4412076 -7.0188616e-19)
(0.039822696 1.9012732 6.1059488e-19)
(0.10121189 1.8261383 -7.4800664e-19)
(0.056142753 1.7580062 9.3121349e-20)
(0.015942546 3.1129197 -2.2931313e-18)
(0.017995921 3.1193357 2.5956859e-18)
(-0.0079123892 2.980635 1.0662691e-18)
(-0.0038058914 2.9787509 -1.0372261e-18)
(-0.0069440264 2.878324 -1.0861343e-18)
(0.0054559545 3.1052803 -2.7036966e-18)
(0.010339467 3.1042832 2.6843203e-18)
(0.59134934 1.0095028 0)
(0.57438865 0.8514443 -1.1890708e-18)
(0.2932082 0.42206165 5.5229072e-19)
(0.53748884 1.310003 1.3182088e-18)
(0.4257482 1.1464521 -2.0543314e-18)
(1.6976585 0.22349639 5.73706e-20)
(1.6985646 0.39205582 0)
(1.696331 0.26882529 4.9326008e-20)
(-0.00097161619 2.0285475 -1.9830398e-21)
(0.0099203872 2.0169716 0)
(0.0029885135 1.9606638 0)
(0.41339167 1.5666619 -3.636597e-19)
(0.49229253 1.4531498 -8.5923303e-19)
(0.39110798 1.3150213 1.5692423e-18)
(1.249946 0.044901359 0)
(1.3189666 0.012526906 3.6557669e-19)
(-0.010463431 2.1420249 0)
(-0.013651842 2.1530154 0)
(1.5214731 -0.010726868 -1.5461288e-20)
(1.1472049 -0.0014597997 7.6066029e-19)
(0.0050678502 2.1318143 -3.9415495e-21)
(0.0023772027 2.1285295 0)
(0.073018426 3.1908733 6.7176892e-19)
(0.56380006 3.5811593 0)
(1.4617282 0.90833662 -5.9543291e-20)
(1.2526943 -0.20178357 3.860039e-20)
(1.248823 0.20222958 0)
(1.989814 -0.00052853896 1.0465338e-21)
(0.060882794 2.2166189 0)
(0.042662324 2.0512693 0)
(-0.012315661 2.1581006 0)
(0.0014585848 2.1219934 1.0306438e-19)
(0.0014906593 2.1323473 5.0779861e-20)
(1.3332523 0.017453383 2.9360212e-21)
(1.3949949 0.023266081 0)
(1.424085 0.035539469 0)
(0.017835403 2.0960587 0)
(0.0025968346 2.1304644 0)
(-0.00084434811 2.1421141 0)
(0.26047848 2.2838862 -3.3975566e-19)
(1.2496218 0.067270325 0)
(1.1078214 0.13389624 0)
(1.9522723 0.0040631575 5.1397529e-19)
(1.6329022 0.038703045 -5.4769553e-19)
(1.9030711 0.019060166 0)
(0.0090020883 2.1037812 0)
(-0.0081101354 2.1368221 0)
(0.0027936513 2.1141743 0)
(-0.0017605406 2.1416215 0)
(-0.0054687972 2.1381845 0)
(-0.0060320166 2.1433556 0)
(1.3573501 0.061137166 0)
(1.3478665 -0.04997597 -5.5870249e-21)
(0.95402788 1.7008684 5.435368e-19)
(1.941033 -0.0076439004 -5.1542938e-19)
(1.7090383 -0.025100545 5.7116339e-19)
(1.8918299 -0.022284489 0)
(1.2911869 -0.14576082 5.8883501e-19)
(1.1960436 -0.059508733 -5.767558e-19)
(0.98888374 -0.11342837 0)
(0.0017595701 2.1337089 0)
(0.002577567 2.1300327 2.1496531e-20)
(0.00096304786 2.1308956 -1.5659848e-20)
(1.5446161 0.34526914 7.8742105e-19)
(1.4748846 0.097437134 0)
(0.10550831 3.0585193 -1.3361093e-18)
(0.057454348 2.8319462 -9.8073847e-20)
(0.19486504 3.20193 1.9266651e-18)
(0.17428523 3.25732 -2.9522808e-19)
(0.17085557 3.3035376 0)
(0.036718348 3.1374244 3.7255204e-19)
(0.095751653 3.1783548 1.3182818e-18)
(0.092659665 3.2089792 -6.9655918e-19)
(0.061488994 3.1073498 0)
(0.92126634 0.46534864 0)
(0.79271585 0.55348022 0)
(1.4132296 0.94412248 1.0425072e-19)
(1.4334302 1.1309215 -3.6033684e-20)
(1.4792878 0.75059764 0)
(1.5391063 0.72864413 0)
(1.2256247 -0.20188579 -1.2808559e-18)
(1.1683684 -0.19818894 1.7470718e-18)
(1.2514081 0.19737689 0)
(1.2323686 0.16916121 0)
(1.9357599 -0.0088301927 0)
(1.8015032 -0.042698554 0)
(1.91794 -0.027973537 0)
(1.6814326 -0.080656216 0)
(1.6744929 -0.060892351 0)
(1.790344 -0.03170222 0)
(0.052627747 2.2050016 0)
(0.027233747 2.1989122 0)
(0.08915039 2.2402771 0)
(0.088754667 2.2517696 0)
(0.056231637 2.0415596 0)
(0.066372621 2.0480662 -4.0585456e-19)
(0.036019513 2.0681915 0)
(0.031702483 2.0637133 1.9914437e-19)
(0.026350993 2.1080365 -1.9904715e-19)
(-0.0099857039 2.1616382 0)
(-0.0087992253 2.1598033 0)
(-0.014393769 2.1621273 0)
(-0.020156631 2.1740412 0)
(0.010913732 2.118627 -6.5633389e-20)
(0.0044053036 2.1316537 7.4153781e-20)
(0.0034612373 2.1257177 9.8997153e-20)
(0.0021728689 2.1315322 0)
(1.3958535e-05 2.1363263 -1.1711994e-19)
(-0.001761783 2.1337592 -7.3385531e-20)
(0.013836385 2.1169359 5.0962601e-20)
(0.0089754046 2.1235307 -9.6414525e-20)
(0.011054108 2.1230667 -1.2378317e-19)
(1.3468057 0.012783555 1.5759712e-18)
(1.3485709 0.0022209531 -1.9937507e-18)
(1.3404949 0.027639454 -1.5930725e-18)
(1.3234033 0.033329937 2.0496603e-18)
(1.3888404 0.024331207 0)
(1.3970709 0.019177213 0)
(1.425439 0.038979741 0)
(1.397616 0.028052729 0)
(1.4210256 0.025391501 0)
(1.4670926 0.091745605 0)
(1.4386064 0.048057 0)
(1.4582356 0.047738276 0)
(0.0093948777 2.1243815 -2.3872241e-21)
(0.01915394 2.0968057 0)
(0.017578738 2.1116943 0)
(0.0027311693 2.1333019 2.2536707e-20)
(0.0027130381 2.1349575 -9.6099527e-22)
(0.0016783355 2.1058855 2.1392292e-20)
(-0.00097460373 2.1202849 -2.1487789e-20)
(-0.0023111524 2.1378851 0)
(-0.0037972465 2.1385519 0)
(-0.0059155983 2.1369871 0)
(0.0016935274 2.1430928 0)
(0.00098803957 2.145794 0)
(0.38449339 2.2346648 5.7936108e-19)
(0.40377074 2.2554663 2.7800877e-19)
(0.38112769 1.9540202 -2.4165558e-19)
(0.18404457 1.9974501 5.8782692e-19)
(0.28003495 2.0730408 1.530771e-19)
(1.2591672 0.1871549 0)
(1.2458411 0.1495135 0)
(1.0892496 0.1889109 0)
(1.921499 0.02096824 0)
(1.9281858 0.019160686 0)
(1.699953 0.035351216 0)
(1.5786905 0.056799159 0)
(1.5683037 0.077905227 0)
(1.3419476 -0.09399965 1.5481803e-18)
(1.2869341 -0.11101757 -1.9572027e-18)
(1.3583971 -0.031020664 -1.5375853e-18)
(1.3506279 -0.00716231 1.9661329e-18)
(0.89579627 1.7077372 0)
(0.79446336 1.9272563 5.0495688e-19)
(1.0740547 1.554648 2.4819535e-19)
(1.1411654 1.5767591 -3.3040562e-19)
(1.2324739 2.827946 -2.4168901e-20)
(1.1084728 0.18351924 8.3281349e-19)
(1.4737591 0.13279495 0)
(1.5230664 0.2321644 -6.0699991e-19)
(1.5459462 0.21322736 -2.2835361e-20)
(1.290923 0.16999487 0)
(0.25264769 2.9574907 7.8486931e-19)
(0.14579058 2.8396443 -1.8808606e-18)
(0.081420248 2.3318319 1.2447901e-18)
(0.14643507 0.24737778 -6.2212984e-19)
(0.39264697 3.4881913 -9.2738041e-20)
(0.24956931 3.3846624 0)
(0.26181849 3.4591061 1.3090649e-19)
(0.29283186 3.0927733 -1.9715786e-18)
(0.42891782 3.1769007 0)
(0.016161417 3.1177978 6.9336253e-20)
(0.020461174 3.1321723 -7.539934e-19)
(0.036851214 3.1170299 1.1717798e-18)
(0.045196077 3.1488107 0)
(0.043495688 3.1594494 0)
(1.3691089 2.8526804 0)
(0.71365379 1.0904339 -6.8205458e-19)
(1.3445994 1.3426284 -7.3941597e-20)
(1.2484518 1.3776227 0)
(1.0946159 1.239037 -9.2069678e-20)
(1.3812669 1.1628865 4.3573759e-20)
(0.51112404 0.61417212 -1.4656688e-18)
(0.96931412 0.45469975 -3.9974399e-20)
(0.96551639 0.40947104 6.0706365e-19)
(0.79084767 0.5870434 4.5678546e-20)
(0.71754136 0.56297534 -1.9012398e-18)
(0.92025483 0.50708772 0)
(0.89620215 0.57635109 1.0034641e-18)
(0.92331871 0.54609042 0)
(0.84170025 0.55985827 0)
(0.85924075 0.50887775 0)
(1.0072542 0.79229111 5.4980649e-19)
(1.5212561 0.36183663 -6.6150262e-19)
(1.5313822 0.54726882 0)
(1.5654721 0.51674578 0)
(1.0408156 0.30694403 9.1314509e-19)
(1.0135763 0.71715337 -5.551474e-19)
(0.93677462 0.67386331 9.7810399e-19)
(1.1811805 0.52343904 -1.0151257e-18)
(1.2866492 -0.15692849 1.0336367e-18)
(1.2242523 -0.20352151 -9.6988466e-19)
(1.2058332 -0.16964446 0)
(1.3427079 0.098705776 0)
(1.2869047 0.15541776 -9.7630063e-19)
(1.2954653 0.10756907 9.66825e-19)
(1.4175971 -0.031699633 0)
(1.4035767 -0.10137182 0)
(1.7802916 -0.067351395 0)
(1.5428556 -0.17481435 0)
(1.7194213 -0.040647699 0)
(1.7857689 -0.027271299 0)
(0.020446969 2.1907189 0)
(0.00083327402 2.1806294 0)
(0.1278645 2.2126059 -5.7765656e-21)
(0.25562402 2.2742192 1.7402538e-19)
(0.14165489 2.2826918 3.8528008e-19)
(0.15463189 2.2941774 -6.2134388e-19)
(0.1630186 2.2442546 0)
(0.10749123 2.1182973 -1.3141851e-19)
(0.10523853 2.1258834 0)
(0.24157623 2.0533936 -2.1273017e-19)
(0.21999262 2.0087197 7.2249812e-19)
(0.13697886 2.133697 1.1813085e-19)
(0.24279847 2.2096979 6.9830934e-20)
(0.19028456 2.2132331 -5.7028295e-20)
(0.23932863 2.1156044 -8.5471201e-20)
(0.18014084 2.0801178 0)
(0.1916709 2.0810671 9.4604442e-20)
(0.032667358 2.1105066 -5.9260555e-20)
(0.041549115 2.0995913 0)
(0.05758301 2.0967082 2.2745363e-19)
(0.053175243 2.1058462 0)
(0.034685997 2.080188 -2.2109125e-19)
(0.035480618 2.0887465 0)
(-0.0018821963 2.1146924 -4.6340646e-20)
(0.0077610539 2.1232935 0)
(-0.0088150206 2.137848 0)
(-0.0097481627 2.123648 5.2477122e-20)
(0.0019996316 2.1176452 1.878747e-21)
(0.016120433 2.1132311 2.3772774e-19)
(0.0011962085 2.1200792 1.6693861e-21)
(0.00023309032 2.1051959 4.3506443e-20)
(0.0056109707 2.1050584 2.7709952e-20)
(-0.0079173263 2.1590776 0)
(-0.0058133393 2.1579771 0)
(0.019855231 2.1272944 1.4176665e-19)
(0.0080414434 2.1266946 9.2848536e-20)
(0.0060700272 2.1259499 -1.3252727e-19)
(0.033734488 2.1359617 0)
(-0.0067405894 2.102205 -7.7596155e-20)
(-0.00087206892 2.1239436 3.603387e-20)
(-0.0012660842 2.123799 -1.0983517e-20)
(-0.00077671574 2.107328 -5.1505554e-20)
(-0.001647311 2.1277106 -1.8038348e-20)
(-0.002773091 2.1275018 8.2316998e-20)
(1.3567723 0.0011070978 -1.0517501e-18)
(1.356005 0.0042320655 1.0597749e-18)
(1.3524004 0.0023847024 0)
(1.3288368 0.067944055 1.5051006e-18)
(1.3245519 0.049875899 -1.6757696e-18)
(1.2927556 0.042574955 1.8685549e-18)
(1.3335856 0.11765693 -2.0329834e-19)
(1.365655 0.050416467 0)
(1.38089 0.026157232 9.6353722e-19)
(1.3810811 0.028904625 -9.5628267e-19)
(1.3791891 0.051314873 -5.6305923e-20)
(1.378163 0.039881252 4.8854743e-19)
(1.3502818 0.045925285 0)
(1.3406 0.042748883 -1.7640451e-19)
(1.3464278 0.032396395 0)
(1.3494514 0.027096385 0)
(1.391387 -0.016949054 0)
(1.3715943 -0.016450491 0)
(1.3505582 0.035948495 3.5913736e-19)
(1.3571905 0.027123442 -7.8820783e-19)
(1.3524996 0.045926207 -3.8532505e-19)
(1.3493447 0.04229074 -4.2252742e-19)
(1.3412852 0.054149082 8.1697316e-19)
(1.3953932 0.054311331 0)
(1.3966939 0.10306947 0)
(-0.0061808587 2.1004399 -2.7298025e-20)
(0.011720667 2.0982859 -3.3581553e-21)
(-0.00031523274 2.098134 0)
(-0.0040886543 2.1140196 2.8215194e-20)
(0.0068370736 2.1107475 5.5034044e-21)
(-0.00051739706 2.1146406 -5.3573168e-21)
(-0.0023078823 2.13605 6.4289549e-20)
(0.00057702983 2.1312228 -3.829187e-21)
(-0.00054723128 2.1288195 1.8316229e-20)
(0.00039194771 2.1351267 -3.2441118e-20)
(-0.0012281626 2.1352131 3.9228673e-20)
(-0.0034844211 2.1339466 1.2093919e-22)
(-0.0032975516 2.1117592 3.3016925e-20)
(0.32559631 2.1104493 -2.5288479e-19)
(0.26878096 2.0956496 8.0091057e-20)
(0.74299926 1.9457792 -4.9067281e-19)
(0.55853412 2.1341458 -2.6808304e-19)
(0.60814718 2.1259195 0)
(0.46422724 1.9487334 2.4443052e-19)
(0.50112244 1.9074866 3.6246652e-19)
(0.23843756 1.987348 6.0337721e-20)
(0.24227596 1.9771855 -8.2628015e-19)
(0.31710184 1.9803518 6.6818187e-19)
(0.34455145 1.9856687 0)
(0.26028733 1.9921018 -5.2717338e-19)
(0.10012688 2.0210323 1.0373806e-18)
(0.16452813 2.0135665 -4.9650468e-20)
(0.10990842 2.0283778 -1.4103199e-18)
(0.98017062 2.0921258 1.006865e-18)
(0.72783137 1.8956612 0)
(1.8722542 0.037615954 2.4339882e-20)
(1.5586756 0.10037931 -2.0860067e-20)
(1.5425226 0.11659535 -3.997905e-19)
(1.726958 0.09344564 4.0210398e-19)
(1.8603133 0.046584279 0)
(0.73947464 1.5787458 0)
(0.75332687 1.3936099 0)
(0.97566222 1.4202267 0)
(0.86148416 1.3105535 0)
(1.2369645 2.8541424 3.8784488e-21)
(1.1277436 2.6451086 0)
(0.7238932 2.7562469 -9.5840128e-22)
(0.53313917 2.5166255 0)
(0.70889934 2.6053314 -6.131334e-19)
(0.75759077 2.6657315 4.1840835e-19)
(1.1225433 0.20655484 0)
(1.08098 0.22030989 2.3220638e-19)
(1.1889218 0.16514592 1.2929091e-18)
(1.1452659 0.15958426 -4.8223285e-19)
(1.1346443 0.1196301 -1.5155921e-18)
(1.3524689 0.25591387 -1.180176e-18)
(1.2378848 0.36280766 -2.0298279e-20)
(1.1867551 0.33715671 1.2093892e-18)
(1.2716362 0.25787927 1.005745e-18)
(1.227331 0.19095511 -1.7105445e-18)
(1.2028094 0.21039729 2.150585e-19)
(1.2431368 0.26661716 -4.6185378e-19)
(1.216972 0.25102842 0)
(1.2862751 0.19775009 8.4184884e-19)
(1.3178179 0.21177476 0)
(1.3097348 0.24281196 0)
(1.3966726 0.14757871 3.9017983e-19)
(1.3473906 0.20554525 -1.8859885e-20)
(1.3583496 0.25860715 -2.1128465e-19)
(1.4137806 0.22830704 0)
(1.3392945 0.030503848 8.1589114e-19)
(1.3452419 0.040073751 1.0163424e-18)
(1.3449314 0.035050713 -7.8542046e-19)
(1.3456146 0.058170118 -6.8836581e-19)
(1.3336034 0.064193477 -1.0789745e-18)
(1.2742352 0.15284806 0)
(1.3070289 0.11903232 0)
(1.2840478 0.064273066 -6.74522e-19)
(1.2276842 0.062516576 2.6818725e-19)
(1.3411921 0.11995497 9.5905682e-19)
(1.3363788 0.14988449 -1.1202772e-18)
(1.3481452 0.17636466 9.9667536e-19)
(1.3401814 0.17656166 0)
(1.347572 0.12160536 0)
(1.334434 0.087061083 -4.6426536e-19)
(1.3460192 0.10049249 -7.9189985e-19)
(0.77531554 1.4573209 -8.7080479e-20)
(0.91973514 2.0300802 1.3742548e-19)
(1.2492513 2.9989841 4.7207431e-20)
(1.3769566 3.2400501 -1.3671517e-20)
(1.3345978 2.924326 8.2712463e-20)
(1.416181 2.9810025 -1.1506402e-19)
(1.2369994 2.6121991 3.6722729e-20)
(1.3792763 3.1796456 1.0505668e-19)
(1.3755589 3.223619 -1.1372381e-19)
(1.3491582 3.4068497 -1.6383907e-19)
(1.4733478 3.1721054 1.6934058e-19)
(1.4895457 3.0786408 0)
(0.73422452 1.1645636 -5.2215798e-20)
(0.27126274 1.4398663 7.295807e-19)
(0.61724102 0.80966923 9.7033258e-19)
(0.37438817 0.43903238 1.1390414e-18)
(0.70709189 0.59591942 1.0603185e-18)
(0.72166188 0.65834461 -1.7486609e-18)
(0.69470315 0.68835907 1.4209088e-18)
(0.63666874 0.6463359 -5.6276794e-19)
(0.6162133 0.56616365 1.2760925e-18)
(1.0547481 0.33893927 -5.1019519e-19)
(1.0071747 0.39271004 0)
(1.0017675 0.35969983 2.2258879e-20)
(0.88994575 0.68080343 5.3582277e-19)
(0.86555843 0.65307812 -1.9475436e-18)
(0.75702452 0.67684485 3.6155242e-20)
(0.80379978 0.63795105 0)
(0.82990697 1.0057384 5.2273996e-19)
(1.0460253 0.98391025 4.1257245e-19)
(0.98227665 1.1173102 -4.8154891e-19)
(1.0972348 0.99971562 -1.8372196e-19)
(1.2274165 1.0819321 -3.4464852e-20)
(1.1890279 1.075906 3.4839332e-20)
(1.0604908 0.82388826 -9.2400648e-19)
(1.1256593 0.91640184 1.723361e-19)
(1.2415931 0.91884378 0)
(1.2567325 0.88587131 -2.4892409e-19)
(1.2578904 0.38772596 3.0432717e-19)
(1.42762 0.36057887 3.9135843e-19)
(1.3392168 0.31918948 4.9144611e-19)
(1.2424951 0.462672 -6.1313526e-19)
(1.3254107 0.51301392 0)
(1.3732282 0.49750558 0)
(1.135035 0.4677964 1.3449314e-20)
(1.1135158 0.36315637 0)
(1.1384464 0.34877672 5.8934674e-19)
(1.1628775 0.35276566 -1.5809452e-20)
(1.1678861 0.56132605 2.6690133e-18)
(1.0940421 0.65586569 7.3196687e-19)
(1.0917044 0.59011518 -8.2105409e-19)
(1.024896 0.57679918 8.8540224e-19)
(0.98675406 0.58382864 5.3383854e-19)
(0.94444792 0.54757578 -5.2277308e-19)
(1.3949668 0.15666482 7.5744245e-19)
(1.6367749 0.063401122 0)
(1.6647813 0.12909615 4.881865e-19)
(1.4519444 0.17147582 -1.1171912e-18)
(1.5242615 -0.002520118 5.9583434e-19)
(1.5253042 -0.1179755 -1.2448011e-18)
(1.4346471 -0.14051443 0)
(1.3872416 -0.16787042 -2.4562142e-19)
(1.6016001 -0.11847312 5.9487575e-19)
(1.4908673 -0.18192833 -2.993538e-19)
(1.4091892 -0.17657531 2.3160538e-19)
(-0.020321731 2.1724 0)
(-0.012138172 2.1500258 0)
(-0.010885287 2.175943 0)
(-0.019445724 2.1762542 0)
(0.060443208 2.177418 1.8610166e-20)
(0.063648169 2.1937485 9.4512302e-21)
(0.097233735 2.1521349 -5.0685939e-20)
(0.096425903 2.1843527 -4.4195208e-21)
(0.016107868 2.1463178 -8.014738e-20)
(0.026641627 2.1494607 6.0618408e-20)
(0.049390273 2.1763271 -2.0267911e-20)
(0.028511457 2.18238 4.109621e-21)
(0.0032784135 2.1623339 -5.9094117e-22)
(-0.0046754293 2.150561 -8.3360214e-21)
(0.061577483 2.0935882 -2.4390187e-19)
(0.058426095 2.0747013 0)
(0.082927336 2.0709565 1.4279364e-19)
(0.09287179 2.1067064 9.4513557e-20)
(0.13820512 2.0466234 -1.0624274e-19)
(0.12062081 2.0022321 0)
(0.14534078 1.9939709 -7.3512616e-19)
(0.17353238 2.0064555 5.2409896e-19)
(0.12413877 2.061116 -2.8610285e-19)
(0.090816127 2.0441287 1.6577115e-19)
(0.069402659 2.0090954 0)
(0.016348029 2.1127066 -1.8036641e-19)
(0.0089398484 2.1047019 -2.1018104e-19)
(0.013493078 2.1168497 0)
(0.013017191 2.1045679 -5.5564659e-21)
(0.022620276 2.1057251 8.9864207e-20)
(-0.002771391 2.1323253 7.7630645e-21)
(-0.0023285031 2.1385048 -1.3883049e-19)
(-0.00022374767 2.1179575 3.8853542e-20)
(-0.0010428809 2.0951745 5.0650484e-20)
(0.00095639096 2.1112682 0)
(-0.00015022266 2.124386 0)
(0.0026567675 2.1483771 3.4416203e-20)
(0.0038539815 2.1321493 -1.0570307e-20)
(0.0028946499 2.1316172 0)
(-0.00029682267 2.1553446 2.6202796e-20)
(0.00084522882 2.151799 -5.2364009e-20)
(1.3513482 0.03900112 0)
(1.3559872 0.030346164 -8.8878362e-20)
(1.3664436 0.026807393 -6.5072303e-19)
(1.3589223 0.03772115 0)
(1.3500629 0.033887061 0)
(1.3739513 0.014715212 -3.5802298e-21)
(1.3874367 0.016274047 1.0115471e-18)
(1.3688658 0.0046173975 1.2626032e-18)
(1.3680626 -0.004718331 0)
(1.3639733 -0.0002146053 0)
(1.3609771 0.015119505 6.4621108e-19)
(1.3624603 0.012967932 0)
(1.3662852 0.0051732224 0)
(-0.0076309252 2.0973931 0)
(-0.0065432329 2.1008908 1.8133199e-21)
(-0.0088473257 2.0884316 1.8425023e-20)
(0.0008046997 2.129099 0)
(-0.0066171545 2.1202578 2.1811545e-20)
(-0.0037712353 2.1315469 -1.0849239e-20)
(0.002044609 2.1370077 0)
(0.27140003 2.1655687 0)
(0.22838776 2.0602578 -2.0993538e-19)
(0.23619936 2.0905881 0)
(0.29226957 2.018252 8.308376e-20)
(0.42379236 2.0088564 0)
(0.357685 2.046065 2.5560105e-20)
(0.97486463 2.7146835 -1.8900786e-20)
(0.99500163 2.1871313 -1.1660362e-18)
(1.063361 2.1286014 9.2647861e-19)
(0.77089314 1.9754225 3.4627204e-19)
(0.71091057 2.2603405 0)
(0.78592382 2.3525712 0)
(0.92051478 2.0814551 0)
(0.86703913 1.910079 -1.2351073e-18)
(0.41913317 2.3393291 -6.4970725e-19)
(0.63186685 2.2636484 -1.5634132e-19)
(0.52573264 2.4320678 1.2436503e-19)
(0.58244005 1.9091928 0)
(0.69291198 1.9239871 0)
(0.62562985 1.8726594 -4.2176871e-19)
(0.63239127 2.1192607 0)
(0.87090991 1.2805286 0)
(0.80903429 1.1991653 -3.258574e-19)
(0.78326508 1.1936232 -2.3198672e-20)
(0.84005111 1.1811842 0)
(0.84505217 1.2282209 4.846282e-19)
(1.0003157 1.1598262 -1.1316903e-19)
(1.023186 1.2796084 0)
(1.0196091 1.2420633 1.6117212e-19)
(0.85422784 1.314249 0)
(0.87069492 1.1944295 0)
(1.2173548 3.0260846 -4.3882062e-20)
(1.2293263 3.1025296 3.9189437e-20)
(1.0142843 2.71724 -1.7164816e-19)
(0.91014352 2.7575036 -1.4725824e-20)
(1.1947666 2.9378389 0)
(1.0845513 2.9196188 2.1733048e-20)
(1.1479013 2.7002273 -1.4077643e-20)
(1.1051798 2.5161547 -1.1396774e-20)
(0.38921625 2.1375471 0)
(0.53752302 1.3838341 7.6640318e-20)
(0.58184846 1.4396828 0)
(1.1457842 0.26682879 0)
(1.0909756 0.2381063 0)
(1.039882 0.25878427 0)
(1.1375632 0.28883521 -9.1377835e-19)
(1.0694032 0.28646996 5.3844034e-19)
(1.2211057 0.065691994 -5.2696766e-19)
(1.2212905 0.11946621 0)
(1.1948896 0.12683283 2.371938e-19)
(1.1743988 0.089579549 9.6362155e-19)
(1.1811569 0.065613742 -6.0882704e-19)
(1.378056 3.5108264 -4.1782701e-19)
(1.3634623 3.4556308 0)
(1.3963316 3.4573426 -9.055232e-19)
(0.56373005 3.5425347 8.7286566e-19)
(0.81659285 3.0534098 -2.2153928e-19)
(0.68076735 1.2201217 7.2844901e-19)
(0.72009782 1.1671843 0)
(0.53616874 0.83416534 -2.2650352e-19)
(0.60316765 1.0093847 1.1267202e-18)
(0.60359757 0.78421066 -3.224003e-19)
(0.64486144 0.76445554 3.5551731e-19)
(0.79700388 0.70931549 7.4054799e-19)
(0.85780419 0.7213246 0)
(0.77115835 0.8453952 0)
(0.72922478 0.80278209 0)
(1.2108329 0.77229183 9.0112716e-20)
(1.1177936 0.70515681 -6.9789762e-19)
(1.1278795 0.75395591 5.2654021e-19)
(1.1711622 0.66684483 -5.4285806e-19)
(1.3207449 0.64330431 0)
(1.3400394 0.71490838 -1.2519697e-19)
(1.0447141 0.51889255 -1.2174307e-18)
(1.0701007 0.49978574 -1.4604223e-18)
(1.0140037 0.5090543 9.4835893e-19)
(1.0142786 0.47421973 -9.7836277e-19)
(1.0934138 0.41114959 -7.5527155e-19)
(1.0409587 0.41716423 9.3737976e-19)
(1.4669008 0.020120339 -6.5172741e-19)
(1.4582569 0.014420385 1.3173253e-18)
(1.3954381 0.12293383 7.7323531e-19)
(1.3777106 0.10635684 -9.2257409e-19)
(1.3594001 0.055299769 0)
(1.4154817 0.033350667 -1.6335162e-18)
(0.058089074 2.1255693 3.4016958e-20)
(0.049680138 2.1400335 0)
(0.082346363 2.1122545 3.1052323e-19)
(0.086812289 2.1210029 -2.7681143e-19)
(0.088613599 2.1475623 8.93838e-20)
(0.078560879 2.1557404 0)
(-0.0047549177 2.1002551 0)
(-0.0056854426 2.1121868 -1.344183e-20)
(-0.0056835921 2.1184042 1.2172874e-20)
(-0.0070132784 2.1157192 3.4864726e-21)
(-0.0077081948 2.1005206 -2.1963006e-20)
(-0.0055270666 2.1030768 1.4501504e-20)
(0.32680454 2.1154365 -2.5325997e-19)
(0.2795857 2.1439314 2.6106845e-19)
(0.27981533 1.9790225 -1.8763757e-20)
(0.26733928 2.1377759 1.6282773e-20)
(0.61904886 1.6514159 0)
(0.47114764 1.875586 2.5522289e-19)
(0.59065897 1.8161303 -2.5082358e-19)
(0.32750001 1.8284483 1.8760813e-20)
(0.3698108 1.7538969 0)
(0.49351078 1.5582125 0)
(0.433488 2.1821473 9.6999269e-19)
(0.54677878 2.0043655 1.6390752e-18)
(0.56988853 2.0948745 -1.1602977e-18)
(0.47465013 2.0081133 -2.1097507e-19)
(0.37678148 2.0941692 3.5547347e-19)