/*--------------------------------*- C++ -*----------------------------------*\
  =========                 |
  \\      /  F ield         | OpenFOAM: The Open Source CFD Toolbox
   \\    /   O peration     | Website:  https://openfoam.org
    \\  /    A nd           | Version:  9
     \\/     M anipulation  |
\*---------------------------------------------------------------------------*/
FoamFile
{
    format      ascii;
    class       volScalarField;
    location    "0.001";
    object      mag(U);
}
// * * * * * * * * * * * * * * * * * * * * * * * * * * * * * * * * * * * * * //

dimensions      [0 1 -1 0 0 0 0];

internalField   nonuniform List<scalar> 
100
(
3.85105e-13
8.75238e-15
2.47984e-13
1.45873e-13
0
3.85105e-13
8.75238e-15
3.93857e-13
2.59753e-34
0
1.45873e-13
1.45873e-13
0
5.1431e-32
0
0
5.1431e-32
0
1.45873e-13
3.14236e-29
2.72735e-29
1.45873e-13
0
1.45873e-13
1.45873e-13
0
0
0
1.69213e-13
7.38117e-13
7.74586e-12
9.48743e-11
9.68929e-10
1.06383e-08
9.74117e-08
9.50491e-07
7.70492e-06
6.54653e-05
0.000460997
0.00331759
0.0197661
0.115691
0.559098
2.48636
8.55052
23.6469
51.6439
94.6801
148.864
195.585
235.906
275.941
309.074
317.548
282.87
180.83
48.6112
7.10298
0.985596
0.1298
0.016407
0.00195997
0.000221197
2.3413e-05
2.34705e-06
2.20944e-07
1.98408e-08
1.67759e-09
1.36308e-10
1.04314e-11
7.42495e-13
1.45873e-14
1.06499e-32
0
0
0
0
0
0
0
0
0
0
0
0
0
0
0
0
0
0
1.2598e-32
0
0
0
0
1.2598e-32
0
0
0
)
;

boundaryField
{
    sides
    {
        type            calculated;
        value           nonuniform List<scalar> 2(0 3.85105e-13);
    }
    empty
    {
        type            empty;
    }
}


// ************************************************************************* //
