/*--------------------------------*- C++ -*----------------------------------*\
  =========                 |
  \\      /  F ield         | OpenFOAM: The Open Source CFD Toolbox
   \\    /   O peration     | Website:  https://openfoam.org
    \\  /    A nd           | Version:  9
     \\/     M anipulation  |
\*---------------------------------------------------------------------------*/
FoamFile
{
    format      ascii;
    class       surfaceScalarField;
    location    "0.001";
    object      phi;
}
// * * * * * * * * * * * * * * * * * * * * * * * * * * * * * * * * * * * * * //

dimensions      [1 0 -1 0 0 0 0];

internalField   nonuniform List<scalar> 
99
(
9.30811e-13
-5.8975e-13
-7.31859e-13
-2.62901e-13
6.89226e-13
9.30811e-13
-9.09495e-13
-7.17648e-13
0
2.62901e-13
7.10543e-15
-2.84217e-13
7.10543e-15
-7.10543e-15
0
7.10543e-15
-7.10543e-15
2.84217e-13
2.62901e-13
-7.10543e-15
-2.41585e-13
-3.19744e-13
2.84217e-13
0
-2.84217e-13
0
0
2.84217e-13
1.3074e-12
1.25482e-11
1.50557e-10
1.59348e-09
1.7413e-08
1.65509e-07
1.6092e-06
1.35893e-05
0.000115348
0.000849707
0.00613907
0.0384578
0.228193
1.16943
5.39752
21.0213
66.4719
149.207
268.081
385.434
470.409
493.852
478.684
454.474
408.53
378.471
323.58
68.0277
12.3032
1.67592
0.22435
0.0292132
0.00364008
0.000428144
4.74973e-05
4.949e-06
4.87898e-07
4.52816e-08
4.00335e-09
3.34268e-10
2.67644e-11
2.02016e-12
1.30562e-13
2.66454e-15
0
0
0
0
0
0
0
0
0
0
0
0
0
0
0
0
0
0
8.88178e-16
0
0
0
0
0
-8.88178e-16
0
0
)
;

boundaryField
{
    sides
    {
        type            calculated;
        value           nonuniform List<scalar> 2(0 -1.38531e-12);
    }
    empty
    {
        type            empty;
        value           nonuniform List<scalar> 0();
    }
}


// ************************************************************************* //
