/*--------------------------------*- C++ -*----------------------------------*\
  =========                 |
  \\      /  F ield         | OpenFOAM: The Open Source CFD Toolbox
   \\    /   O peration     | Website:  https://openfoam.org
    \\  /    A nd           | Version:  9
     \\/     M anipulation  |
\*---------------------------------------------------------------------------*/
FoamFile
{
    format      ascii;
    class       volVectorField;
    location    "0.001";
    object      U;
}
// * * * * * * * * * * * * * * * * * * * * * * * * * * * * * * * * * * * * * //

dimensions      [0 1 -1 0 0 0 0];

internalField   nonuniform List<vector> 
100
(
(3.85105e-13 0 0)
(8.75238e-15 0 0)
(-2.47984e-13 0 0)
(-1.45873e-13 0 0)
(0 0 0)
(3.85105e-13 0 0)
(8.75238e-15 0 0)
(-3.93857e-13 0 0)
(2.59753e-34 0 0)
(0 0 0)
(1.45873e-13 0 0)
(-1.45873e-13 0 0)
(0 0 0)
(-5.1431e-32 0 0)
(0 0 0)
(0 0 0)
(5.1431e-32 0 0)
(0 0 0)
(1.45873e-13 0 0)
(3.14236e-29 0 0)
(-2.72735e-29 0 0)
(-1.45873e-13 0 0)
(0 0 0)
(1.45873e-13 0 0)
(-1.45873e-13 0 0)
(0 0 0)
(0 0 0)
(0 0 0)
(1.69213e-13 0 0)
(7.38117e-13 0 0)
(7.74586e-12 0 0)
(9.48743e-11 0 0)
(9.68929e-10 0 0)
(1.06383e-08 0 0)
(9.74117e-08 0 0)
(9.50491e-07 0 0)
(7.70492e-06 0 0)
(6.54653e-05 0 0)
(0.000460997 0 0)
(0.00331759 0 0)
(0.0197661 0 0)
(0.115691 0 0)
(0.559098 0 0)
(2.48636 0 0)
(8.55052 0 0)
(23.6469 0 0)
(51.6439 0 0)
(94.6801 0 0)
(148.864 0 0)
(195.585 0 0)
(235.906 0 0)
(275.941 0 0)
(309.074 0 0)
(317.548 0 0)
(282.87 0 0)
(180.83 0 0)
(48.6112 0 0)
(7.10298 0 0)
(0.985596 0 0)
(0.1298 0 0)
(0.016407 0 0)
(0.00195997 0 0)
(0.000221197 0 0)
(2.3413e-05 0 0)
(2.34705e-06 0 0)
(2.20944e-07 0 0)
(1.98408e-08 0 0)
(1.67759e-09 0 0)
(1.36308e-10 0 0)
(1.04314e-11 0 0)
(7.42495e-13 0 0)
(1.45873e-14 0 0)
(1.06499e-32 0 0)
(0 0 0)
(0 0 0)
(0 0 0)
(0 0 0)
(0 0 0)
(0 0 0)
(0 0 0)
(0 0 0)
(0 0 0)
(0 0 0)
(0 0 0)
(0 0 0)
(0 0 0)
(0 0 0)
(0 0 0)
(0 0 0)
(0 0 0)
(0 0 0)
(-1.2598e-32 0 0)
(0 0 0)
(0 0 0)
(0 0 0)
(0 0 0)
(1.2598e-32 0 0)
(0 0 0)
(0 0 0)
(0 0 0)
)
;

boundaryField
{
    sides
    {
        type            zeroGradient;
    }
    empty
    {
        type            empty;
    }
}


// ************************************************************************* //
