/*--------------------------------*- C++ -*----------------------------------*\
  =========                 |
  \\      /  F ield         | OpenFOAM: The Open Source CFD Toolbox
   \\    /   O peration     | Website:  https://openfoam.org
    \\  /    A nd           | Version:  9
     \\/     M anipulation  |
\*---------------------------------------------------------------------------*/
FoamFile
{
    format      ascii;
    class       volScalarField;
    location    "31";
    object      p;
}
// * * * * * * * * * * * * * * * * * * * * * * * * * * * * * * * * * * * * * //

dimensions      [0 2 -2 0 0 0 0];

internalField   nonuniform List<scalar> 
918
(
0.55443099
1.8207119
0.015181568
0.52236943
-0.005078657
1.7913749
-0.92339048
1.3404391
0.57750026
-0.14987953
-0.028232693
0.76530994
1.6627636
1.4221491
-0.67582468
-0.0049025937
1.1840617
-0.74481353
0.57843465
-0.024396944
1.4402598
0.52497331
0.55177277
0.52591982
0.93895117
1.3961599
1.5257368
0.015865272
-0.00042975794
-0.0085481392
0.0023364884
-0.036731673
-0.020087525
1.6676506
1.721672
1.7453599
0.55018695
0.57627439
-0.69025485
-0.78780668
-0.76178149
-1.0087161
1.3228071
1.3169783
-0.29476045
1.3486652
1.365295
0.53800773
0.57280106
0.58400091
0.52069626
0.55173159
0.56756314
0.49871146
-0.16403861
-0.22374903
-0.1093131
-0.088696194
0.083518074
-0.022232479
-0.025623267
-0.017374207
-0.014129023
0.5806626
0.73294082
0.70967723
0.78277313
0.81996781
1.757808
1.7212511
1.7482297
1.695052
1.6853572
1.6426069
1.6057563
1.4609742
1.4683825
1.4195319
1.3831116
-1.2094336
-2.2574971
-0.093493307
0.21512092
-0.00055055878
0.01372434
0.027498518
1.1585042
1.1448123
1.2023665
1.2264092
1.3125752
-0.68249729
-0.95441117
0.58153853
0.5759714
0.56451384
0.54621441
0.59279073
0.63799283
-0.020044401
-0.015276331
-0.038359505
-0.021254864
-0.016698825
1.4219069
1.4131551
0.54033255
0.54467188
0.83804974
0.89698889
0.87700118
0.41625612
0.95538513
0.98037487
1.1975341
1.3911035
1.4006998
1.3826847
1.5119678
1.4673667
1.5723979
1.5979767
0.02357574
0.0027094607
0.013941154
-0.0078007924
0.017522209
0.56045365
0.56255442
0.58931156
0.54908207
0.55326784
0.5210499
0.38138647
0.66256344
0.6796041
-0.52433327
-0.58500002
-0.8048976
-0.82547154
-1.0340363
0.92505716
1.2985035
1.2897812
-0.36201776
-0.23004014
-0.41905021
-0.14692817
-0.19495714
0.54780928
0.54981758
0.54675535
0.53986381
0.54139193
0.54245124
0.55983486
0.55958596
0.5749469
0.57048363
0.71026656
0.44671829
0.38993109
-0.44411481
-0.25051877
-0.4242962
-0.070215043
-0.059317519
0.10873781
0.15621198
0.087697586
0.083575107
-0.047323477
-0.031688615
-0.038589649
-0.01544115
-0.01471241
0.57110419
0.56935293
0.57707502
0.58243812
0.64152244
0.6506926
0.68608108
0.66971705
1.531726
1.5553923
1.6000806
1.563012
-3.6557858
-6.3468589
0.54502143
0.72762528
-0.0032395417
0.0001012802
0.0050413185
0.010066604
0.0068094658
-0.0029260467
0.044724371
0.036480318
0.030106705
0.038489975
1.1099102
1.0943136
1.260521
1.2979104
1.1779621
1.1680106
0.585782
0.58292888
0.58984947
0.58112143
-0.017186542
-0.018323452
-0.016182171
1.372845
1.3993665
1.3898909
0.33250024
0.24019285
0.456545
0.49810562
1.0615173
1.0125998
1.0440057
1.2724832
1.3066014
1.5874603
1.5994833
1.6373562
1.6341226
1.682415
1.6747357
1.6332102
0.57321477
0.56489112
0.57718646
0.58329979
0.58779252
0.58696807
0.6224638
0.60578562
0.61151987
0.21604877
-0.12143161
0.74608475
0.74109685
0.72393993
0.71576497
1.0004555
1.0918019
1.2376768
1.2689092
1.2586296
-0.042312772
-0.070604733
0.32141005
0.29444894
0.52099409
0.55305459
0.54660654
1.5058299
1.5061288
1.5525449
1.514793
1.4561241
1.4789007
-0.14773554
-1.3144189
-0.69761243
1.1310064
0.91092845
1.0154839
0.045621747
0.044489382
0.024027107
1.2703428
1.3317959
0.76966241
1.018776
1.020428
1.3540056
1.376649
1.448402
1.3742575
1.4005385
1.4247543
1.4077411
0.87113131
0.77967423
0.80159889
1.1390789
1.1923992
0.16813114
0.063426153
0.050968864
0.16893948
0.2265442
0.1923941
1.2982176
1.2364277
1.3075154
0.55147957
0.54363693
0.018098981
0.032350416
0.58532837
0.56000852
-0.0098250224
0.012569846
0.99180323
-0.42254651
0.20010726
0.59022957
0.56265736
0.56663637
-0.14153425
0.46080528
-0.016591888
0.081353172
0.021834295
0.7462688
0.60044535
0.57513385
0.011606237
-0.0041228397
-0.0030673234
-0.35390768
0.55840096
0.53734349
0.55577996
0.53955812
0.57277659
-0.001327014
0.010548663
0.0098633045
-0.0054136341
0.0051290274
-0.0050125807
0.5689149
0.61302348
-0.251201
0.57188706
0.56003348
0.57615684
0.53927046
0.59657179
0.5504772
0.018725369
0.013125268
0.020811416
0.36438691
0.51530021
1.3095707
1.4567252
1.3324609
0.94259419
0.61081751
1.1656553
1.2630313
1.1281207
1.303739
1.2790292
1.3311033
0.27464291
0.06974344
0.30507092
0.20408378
0.58624955
0.58882528
0.5585028
0.55193975
0.57415491
0.54614525
0.57611506
0.57990452
0.57798756
0.59359055
-0.068156275
-0.10712696
-0.13297934
-0.22130371
0.47473003
0.74985115
0.37471992
0.41284099
0.20950622
-0.011049234
-0.015313368
-0.014834097
-0.028351125
0.049195502
-0.0099373647
0.1031346
0.10273223
0.078138659
0.028784542
0.01598751
-0.0096069361
0.029552357
0.70079743
0.67915098
0.74025669
0.79162521
0.59435012
0.58148286
0.57994786
0.59717398
0.58084193
0.52380401
0.57556982
0.54016812
0.0064564254
0.015383067
0.00083060988
0.010838038
0.027350036
0.029388078
0.01640253
0.0055395099
0.008739491
0.0094187474
-0.002451354
-0.012574536
-0.3042852
-0.46520256
1.2153623
1.0739779
0.26617427
0.53415929
0.53573096
0.52152654
0.56338001
0.5516733
0.55535114
0.55531323
0.55165396
0.56492621
0.56431358
0.61242334
0.62677242
-0.17714693
-0.3965631
-0.15043741
-0.20780849
0.44364273
1.0660349
0.52299565
0.43095176
0.43117958
0.8703456
1.5366354
1.3975363
1.4019713
1.4298982
-0.063611704
0.41784901
0.1322556
0.81110341
1.0378073
1.279085
1.3365445
1.3407558
1.3106968
1.2478657
0.020155434
1.035326
-0.065368591
-0.044032295
0.31155756
0.10747337
1.3499669
1.2461643
1.2441193
1.3187508
1.3536656
1.2724855
1.2210619
1.2403474
1.3030817
1.3010915
0.94306332
0.40401388
0.30846607
0.27738404
1.1844352
1.0124716
1.1103284
0.90216584
0.57340385
0.59412614
0.57728791
0.53906208
0.55625486
0.53553104
0.58514706
0.61100009
0.58906874
0.56360064
0.59051777
0.56454207
-0.064301495
-0.065331227
-0.017143322
-0.225788
-0.21010569
-0.32605365
-0.099275396
0.13249335
0.096153296
0.31742738
0.44684202
0.088270237
-0.11186373
-0.053468941
0.0082656142
0.23192363
0.28856
0.14733148
0.20821397
0.19630705
0.17227302
0.31500081
0.31980931
0.01314638
0.018813107
-0.0034412296
-0.0015909457
0.068224031
0.17732347
0.17990042
0.03823142
0.025507909
-0.010413995
-0.013015232
0.036080406
0.0045882783
0.025367144
0.044948941
0.017341976
0.045921962
0.037229675
0.023449048
0.050037053
0.041726577
0.64784504
0.65985545
0.64776646
0.81936101
0.81402018
0.8499641
0.82217203
0.57276674
0.57902662
0.5709868
0.62096641
0.59491103
0.63057806
0.65173918
0.69370506
0.70607609
0.62245257
0.60070323
0.675435
0.63214035
0.62325813
0.63597681
0.65163047
0.58858522
0.60398995
0.012942364
0.027170352
0.053473354
-0.03106044
0.039350102
0.018272116
0.030860422
0.065672238
0.020035096
0.042409367
0.03195934
0.0097739021
0.025663623
-0.12572171
0.039308737
-0.35835443
-0.3910225
-0.48852147
1.1080067
1.2652567
1.0083778
0.73130065
0.76393938
1.0468236
1.1885476
0.70237426
0.83510652
0.94781195
0.88805068
1.1279185
0.55788474
0.54975907
0.56200128
0.53796109
0.56879326
0.014433149
0.2205503
0.14271474
0.32701145
0.55912767
0.60880638
0.41382758
0.35408117
0.51571527
0.41244284
1.0657584
1.1012896
0.96186526
1.023609
1.0137832
0.67516866
0.89915783
1.0315099
0.9047066
0.96964872
1.0088034
0.94840825
1.0096693
0.907773
0.78804746
0.8172944
0.60979001
0.68888766
0.64152947
0.597807
0.72811689
0.68348236
0.72564073
0.70892948
0.77521553
0.87599128
0.85643682
0.86785373
0.91922321
0.76453923
0.68493992
0.70958701
0.7845557
0.65556215
0.67658685
0.71884007
0.41933112
0.42972162
0.3105633
0.21772022
0.29996492
0.14265584
0.12037241
0.15190241
0.46250417
-0.16335535
-0.14935928
-0.51857134
0.89474724
1.5583572
1.275401
1.2674246
1.3555839
1.3201417
1.3119605
1.3708442
1.3758209
1.1769297
1.2291708
1.2237771
1.1569353
1.201256
1.2988741
1.2774532
0.98813533
0.68644857
0.65271093
0.60450548
0.33493585
0.42157843
0.81937413
0.66251658
0.51101937
0.49337314
0.80976362
0.54813142
0.68037703
0.81812114
0.64459764
0.54276529
0.99118311
1.122894
1.1107561
1.0574747
0.89292
0.94105093
1.0215859
1.0939096
1.133266
1.2078718
0.56059769
0.57319531
0.56730955
0.54840908
0.57445799
0.58293671
0.58177771
0.57036036
0.57632823
0.57932852
0.59031408
-0.02809765
-0.015482337
-0.038282601
-0.045802848
0.0081161376
-0.010972323
0.067384745
0.040540807
0.016468183
0.024235477
-0.012899184
-0.030996443
-0.010236132
0.0065035662
0.1815875
0.21862885
0.164532
0.15035291
0.35560533
0.49203023
0.54690323
0.46673961
0.28404003
0.30808683
0.37614272
0.060156
0.076545522
0.088982096
0.11097025
0.11519013
-0.0057307367
-0.0063398008
0.00017274522
-0.0013169558
0.013772046
-0.003694225
-0.0084443916
0.0011820688
-0.00077925109
-0.0089954856
-0.01522918
0.57348941
0.59054983
0.63964502
0.60258547
0.60088565
0.62902617
0.60385113
0.62040564
0.62526769
0.65243116
0.63668607
0.67206902
0.66341193
0.012234295
0.011970316
-0.0081559285
0.0039331508
0.012402492
0.011947142
0.0050976905
0.26820336
0.12720337
0.1624221
0.039336033
-0.20003873
-0.09197532
0.63795718
0.76710481
0.76394464
0.9963745
0.7834242
0.73079983
0.87525023
0.99944623
0.4358589
0.66361763
0.47575775
1.1293709
1.0333373
1.2072552
0.75340305
0.4321194
0.67601206
0.75930704
0.44895949
0.56350492
0.55577092
0.38244171
0.45456004
0.47981037
0.6367185
0.44205987
0.49395451
0.42171437
0.44282945
0.50431771
0.52316032
0.62420222
0.68366286
0.36531862
0.33285443
0.26384289
1.0876373
1.1044752
1.1417109
1.1271125
1.1566287
0.9370291
0.92783345
0.96860917
0.96917629
0.94015826
-0.34894724
-0.44695956
-0.7866839
-0.2374096
0.37482492
0.93802252
0.81438274
1.4020319
1.1271425
1.354592
1.2999282
1.2436613
1.1512036
1.140764
1.2269451
0.64088469
0.83775865
0.8154967
0.77133143
0.57552687
0.48267621
1.0923416
1.0675758
1.1463646
1.1782696
1.1156384
1.1985957
0.58189654
0.60009543
0.57904028
0.59286327
0.57692023
0.58606995
0.1044309
0.048254793
0.16439098
0.14496533
0.066356843
0.037913625
0.015591589
0.020458803
0.0048212361
0.011620165
0.026301054
0.030538017
0.28820545
0.24781974
0.05501807
0.16808911
-0.0082738668
-0.10608589
-0.16718277
0.020568051
0.14994392
0.16634189
0.56608141
0.84939933
0.69337675
0.80551672
0.63247601
0.74230422
0.71416997
0.67601317
0.71293781
0.59386663
0.61023
0.61984948
-0.17077344
0.1640255
1.4486454
1.3819058
0.9831171
0.83405315
0.77858793
1.1130235
1.0246385
0.85776618
0.96780783
1.0904478
1.0747429
0.39704311
0.3736165
0.73127897
0.86583243
0.4999428
0.38461617
0.34900397
0.5176986
0.56614548
)
;

boundaryField
{
    wall-4
    {
        type            zeroGradient;
    }
    velocity-inlet-5
    {
        type            zeroGradient;
    }
    velocity-inlet-6
    {
        type            zeroGradient;
    }
    pressure-outlet-7
    {
        type            fixedValue;
        value           uniform 0;
    }
    wall-8
    {
        type            zeroGradient;
    }
    frontAndBackPlanes
    {
        type            empty;
    }
}


// ************************************************************************* //
