/*--------------------------------*- C++ -*----------------------------------*\
  =========                 |
  \\      /  F ield         | OpenFOAM: The Open Source CFD Toolbox
   \\    /   O peration     | Website:  https://openfoam.org
    \\  /    A nd           | Version:  9
     \\/     M anipulation  |
\*---------------------------------------------------------------------------*/
FoamFile
{
    format      ascii;
    class       surfaceScalarField;
    location    "31";
    object      phi;
}
// * * * * * * * * * * * * * * * * * * * * * * * * * * * * * * * * * * * * * //

dimensions      [0 3 -1 0 0 0 0];

internalField   nonuniform List<scalar> 
1300
(
1.7582594
5.6264299
-5.1629304
1.7582594
-8.3910689
5.6264299
-6.01226
6.01226
-1.2571844
1.2571844
3.7336488
3.6510405
-4.2570117
4.2570117
-3.7080216
3.7080216
-1.451374
1.451374
-5.2377147
5.2377147
-5.0570851
5.0570851
4.7531665
-4.7531665
-6.9152111
6.9152111
-1.5345953
1.5345953
-5.4383507
5.4383507
1.4920237
-1.4920237
-3.7385254
3.7385254
-0.25939297
0.25939297
-0.5729434
5.1444177
1.185316
1.185316
-1.570621
1.570621
-4.8533735
4.8533735
6.2142354
-6.2142354
7.936873
-7.936873
-2.7739426
-3.1905174
1.8468667
-12.373905
-6.5442023
-6.5442023
-8.4382662
8.4382662
-2.8118362
2.8145937
1.463324
-1.463324
-1.7729719
1.7729719
-5.8806224
-0.13163756
-5.8806224
6.0939966
-0.081736623
6.0939966
-1.4018407
0.14465633
-1.4018407
4.8574017
-4.8574017
1.0784452
0.1787392
1.0784452
1.2514254
-1.2514254
-3.738139
7.4717879
3.6465503
-3.0528268
8.1972445
-3.3941242
7.0451647
-6.5436603
6.5436603
-4.5450619
0.28805017
-4.5450619
4.0521152
0.20489645
4.0521152
-7.4589058
7.4589058
-3.7558058
0.047784215
-3.7558058
3.6751052
0.032916351
3.6751052
2.1930271
-2.1930271
-1.3614376
-0.08993638
-1.3614376
1.5258466
-0.074472592
1.5258466
0.35898286
5.2674471
-5.9854129
8.8000067
-5.2674471
0.029732315
5.2000751
0.037639643
5.2000751
-5.0936141
0.036528975
-5.0936141
5.0143016
0.04278346
5.0143016
4.8506935
-0.097527059
4.8506935
-4.8539939
0.10082734
-4.8539938
-4.2106635
-4.5576596
-7.0761872
0.16097608
-7.0761872
-1.4652255
-0.069369799
-1.4652255
1.5880043
-0.053408998
1.5880043
-4.1112734
4.1112734
-5.8763529
0.43800217
-5.8763529
1.3630518
0.12897185
1.3630518
2.0098291
2.5616452
3.7680885
-3.7680885
2.2760648
-3.6808145
-0.057710851
-3.6808145
-3.8258353
-4.1110377
3.8258353
-0.08730994
-0.64321976
0.38382678
-0.64321977
1.2363679
-0.051051976
1.2363679
1.5766238
-0.050777147
-1.5766238
0.0060028217
3.4165261
-3.4165261
1.1083124
0.46230861
1.1083124
-5.5749199
5.5749199
4.9537414
0.06056018
-4.9537414
0.10036786
6.1537236
0.060511859
6.1537236
-6.1926957
-0.021539755
-6.1926957
3.4320365
-6.6225539
-3.295087
6.7413571
0.17385406
-6.741357
0.19715473
1.6043943
-0.14107037
1.6043943
-1.1540638
1.1540638
-1.4073608
-0.055963148
-1.4073608
-2.1079299
0.33495809
-2.1079299
1.5001432
0.27282866
1.5001432
-5.5504966
-0.33012577
-5.5504966
-6.0673333
0.19098043
6.0673333
0.026663277
1.396697
-1.396697
-1.5181237
0.11628296
-1.5181237
-5.1638539
-0.38664276
5.1638538
-0.30645215
-4.6613155
-0.19608618
-4.6613155
-1.3172756
-0.09008524
1.3172756
-0.065850185
1.2619185
-0.025550567
-1.2619185
0.010493127
-3.0516539
5.6132991
-3.3952971
7.0418474
-6.161765
-0.38189532
-6.161765
6.8853693
-0.34170905
6.8853692
5.0125637
0.42578693
-5.0125637
0.46750178
3.9102873
0.14182789
3.9102873
-7.4258901
-0.033015707
-7.4258901
7.4666204
-0.0077146147
7.4666204
3.8186009
0.09168641
-3.8186008
0.062795023
3.6489989
0.026106309
3.6489989
2.412447
-0.21941985
2.412447
-1.9848226
-0.20820457
-1.9848226
1.225305
-1.225305
1.2924803
-0.067175304
-1.2924803
-0.068957349
-11.148728
11.127188
-0.035778519
-11.112949
5.1642966
5.1642966
4.0621977
0.78849584
4.0621977
-5.0440793
0.19008546
-5.0440793
3.6744254
-6.9695124
3.7376281
-7.9482916
5.1342509
-17.508156
4.7412156
-9.2988752
7.3157823
-7.3157823
7.2009962
0.1147862
-7.2009962
0.12480897
-1.378417
-0.086808479
-1.378417
-3.4924222
-0.6188512
-3.4924222
4.7753769
-0.66410349
4.7753769
-1.2987884
1.2987884
-1.3143427
0.015554304
1.3143427
0.04870917
3.6463398
0.0026590808
-3.6463398
-0.034474707
0.87522889
0.20321629
-0.87522888
0.23200911
3.8347719
-0.41824578
3.8347719
-2.9757509
-0.44077523
-2.9757509
-1.2543017
-0.12411531
1.2543016
-0.14598926
-5.8200177
0.2450978
-5.8200177
-11.213437
0.10048804
-11.175797
-6.0922077
-6.0922077
2.3460585
11.146065
-1.7871279
-0.19769468
1.7871279
-0.18273356
1.2601536
0.038634798
-1.2601536
0.10608974
-1.1672862
-0.05801883
1.1672862
-0.013222324
-2.5355025
0.42757259
-2.5355025
-1.2110818
1.2110818
-1.3063357
0.095253863
1.3063357
0.19380752
1.7045667
-0.3078698
1.7045667
1.5795139
0.0084903764
-1.5795139
0.061390225
-4.4217445
-0.23957101
-4.4217445
7.151017
-0.26564779
7.151017
-2.6807321
-0.29501884
2.6807321
-0.26828506
-0.035213641
11.162401
-5.129083
0.035468889
5.129083
-11.222913
11.258382
-3.1148231
0.57932056
3.1148231
0.94737457
5.307149
0.26777092
-5.307149
0.26306967
7.4028067
0.063813734
-7.4028067
0.087024372
-2.9828882
-0.50953403
-2.9828882
-5.5208703
-0.64089472
5.5208703
-0.74549338
-11.475563
-0.19583698
11.6714
-11.43278
6.0158547
0.13786886
-6.0158547
11.396251
-1.229205
-0.16749196
1.229205
-0.018123181
2.0538336
-0.34926684
2.0538336
4.1861453
-0.3513734
-4.1861453
-0.23559922
-7.3130029
-0.11288719
7.3130029
-0.16198588
-2.4970723
-0.48581586
2.4970723
-0.44323872
-5.336478
5.285426
2.8607666
-3.3395546
-3.2829993
-7.4505923
2.5450269
3.0682723
4.8210917
-10.999759
-6.508397
-10.802604
7.2729742
-7.0099045
-9.4985557
9.4010287
9.9342074
-10.130294
-7.320845
7.3695542
8.7196511
-8.7855013
3.7834865
3.6883014
10.908985
-10.620935
-16.775118
16.393222
10.264941
-10.217157
17.035185
-17.068201
-19.272334
19.336148
-7.3644919
7.2745555
-9.1790165
8.9708119
-9.4148335
9.1465484
-3.8840391
-4.0642525
14.179171
-14.018195
11.66099
-11.718701
-11.548911
11.986913
4.0434313
1.2419947
4.0178808
-3.6166308
7.4001173
-3.4285339
6.2893005
3.4446696
-7.3287086
3.5248428
-6.807842
5.9354963
5.7254937
-5.8481864
-1.6024059
-8.1574411
8.0163708
-7.5322072
7.5189849
11.902709
-12.034346
-3.6062541
7.2945555
-3.4355933
6.5038656
-3.6948369
-3.6260081
3.565865
1.2552267
8.7453373
5.4338336
-8.9191914
-1.883413
-10.603247
10.251873
-11.197938
10.757163
-0.45162384
5.7869163
-5.3352925
4.4017496
-1.4721179
7.2590342
5.8008563
5.9909417
5.8675936
-5.5998226
1.142311
-6.4776034
-6.3772356
-3.1704848
3.2867677
3.1998936
-3.0211544
7.7634843
2.1707231
7.4570322
-7.17639
-2.9539035
-7.415961
4.4247953
2.9447589
4.4403496
5.2572448
3.4624063
5.1671595
5.8631675
-5.95851
0.095342572
-5.4691296
11.332297
1.3360454
-9.0951377
-7.839911
6.9151513
3.9938338
7.1200477
-7.5465024
-3.0744325
-7.0790007
-10.209572
-6.5655455
-10.850467
10.955632
5.4375907
10.613923
-12.892407
12.730421
6.7052244
3.5597164
6.7381407
-6.8176597
-3.3994969
-6.7548647
13.249255
-3.1737318
-10.075524
-11.1545
-8.1178342
11.162214
5.8729709
11.862887
7.4732608
11.949911
4.860723
8.3885323
-10.733694
2.6158597
-4.5075689
-2.856923
-4.5765262
4.5263733
2.7481822
4.4519007
-5.4002745
-3.778742
-5.5979692
-5.3791349
-4.0356986
5.5985547
3.3722572
-5.5640384
-5.6338997
5.8590573
3.2874911
4.3871091
-10.895506
4.9117661
-8.9760186
-9.9431081
-4.0750868
-9.8182991
4.4904227
3.1577112
-7.6481339
-2.838286
11.248534
-5.5230404
9.6461281
-7.2254613
-4.4932395
-7.259936
-9.1578706
-2.3910405
-8.9668901
-9.5039979
8.9944638
-9.8905369
9.2264334
13.859419
-6.7285082
-7.130911
-4.8814852
-3.904016
4.8709921
-0.85311132
-7.210895
7.3062376
0.18922228
6.4785228
7.7205174
6.8674061
-4.5122373
-3.0199699
-4.4061476
4.6248686
2.8941162
4.5668498
9.1141328
2.7885759
9.0323962
-8.3659988
-3.6683475
-8.6961245
9.5484148
-9.2134567
3.0703821
-3.1944974
7.0296725
3.7274904
-6.6114267
-3.9918199
9.2877706
-4.3268797
-4.9608909
-12.068047
10.645725
1.4223227
-4.8090132
-0.40726353
-0.1478706
-5.5756625
-3.9228933
5.4748352
0.51610653
11.161831
7.2389378
-5.5170901
5.7621879
6.1543102
6.2148704
-0.16236523
6.0817964
-5.5024758
7.2834903
-3.3203729
-3.9631175
6.7630687
-7.1497114
-1.9330558
-7.334382
5.4013262
0.30732075
2.2118643
-1.8280375
-2.3761853
-0.79429944
-2.3147951
1.9031731
1.2967205
2.1063894
1.1647182
2.1220496
-3.8800687
0.75444847
3.1256202
-2.7153505
-2.2667059
-5.0649203
-1.7606542
6.8255745
7.3938411
2.8580321
-7.1582418
-0.25771915
2.9873617
-3.0407707
-0.77564249
-4.2892779
3.0573818
-3.8330243
-5.7789786
-2.3579837
8.1369623
-3.7306246
-0.67552304
3.6919898
0.74835986
-4.7899974
-3.3674438
4.8459605
0.32119902
-5.3643227
11.012445
-5.6481224
-8.3842926
4.5143026
6.8179945
7.4590614
-9.1656547
4.7678535
4.3978012
-2.3476602
5.9306848
1.1893629
6.0725127
-9.1992739
6.1248413
7.8778801
4.1090331
-8.303667
1.2246663
-7.9746077
10.592589
-9.2617235
-1.3308655
5.2300692
5.3625198
7.5595353
6.299884
-6.0179695
13.577505
-1.5020144
-7.7597091
9.4766221
-5.367589
6.1564147
-11.524004
-12.456299
4.6965895
-9.8242096
11.912573
-2.0883634
-3.8661469
-9.0262601
13.690357
-1.3220146
-12.368342
9.2919079
-5.5253272
-5.5868284
11.112156
-8.699059
8.9863254
-2.5786867
-6.4076386
-10.876723
-6.1914779
10.98961
1.7408107
-11.748923
14.364783
-3.3603907
5.8108391
0.92730162
5.8369454
4.1544318
-6.7680496
2.6136178
4.5446272
-7.123314
2.5925136
-9.3605632
-7.1744023
13.163393
-5.9889907
-11.249489
-10.22966
-1.019829
2.7594879
11.605295
-10.232749
7.9832614
2.2494874
3.8789421
0.68790774
-3.8117667
-0.7647595
0.60795722
6.7138643
-7.3218216
5.0598579
5.0090808
5.0778295
1.6360349
5.109966
2.9064047
-4.9272325
-0.67073674
-6.3566368
2.3209382
-2.9843796
-6.2992145
8.6201527
-7.0396997
0.74048519
-4.2554575
-6.1534427
10.4089
-7.1123805
5.289758
5.7226872
8.1838742
-8.6542978
2.5008551
-4.3881674
-4.2661304
4.5388446
-7.5232242
3.2686394
5.3515133
6.5561305
0.92223078
6.4717463
6.6916467
-9.6294574
0.65343882
12.12548
-10.242067
2.6705961
9.2793153
-10.653858
0.42419754
-9.3941015
1.2523079
-6.7753482
-6.395826
6.7435362
-9.1345766
-4.7804675
8.3084251
0.72397112
-8.3350884
-0.63180167
-6.4833283
-3.0206696
-6.9691441
-3.2907203
-6.5998166
-9.3086898
-1.7757961
-7.5328938
7.2186678
-7.1974687
-3.6529983
7.9429621
1.2834713
-7.9870624
7.8195704
-8.0271379
7.6778711
0.2712191
7.0350185
7.1386252
3.2346092
-4.6873583
7.9219675
-6.8836062
9.672182
-11.500727
4.6171205
5.409452
-9.0777995
-6.0912746
5.4547161
4.0936987
5.7275447
9.3658706
-10.848035
1.4821644
-11.051665
12.59441
-1.5427453
-17.099394
6.0477291
-7.7335235
2.916753
0.15362909
2.8299446
0.86666898
2.8878553
-3.7545243
-2.3278284
-2.4738177
-3.5941119
-5.424938
9.0190499
1.863744
-5.1631816
3.2994376
-4.7354797
6.5992236
0.12413151
-5.2873131
7.1295675
-4.2417121
7.2831966
-4.6113482
2.6718484
5.0460585
8.881425
-3.8353664
6.5383752
-2.8108848
2.8783828
-6.7137492
-2.5465552
-4.9060457
7.6542279
-5.5028544
6.2433396
-0.33240633
6.5757459
-5.7718345
1.4449547
-0.69400498
4.3150758
4.3210786
6.8261655
-5.1901306
4.8484746
-7.6593594
-1.8652746
-6.7371286
-1.3856153
-0.50722592
-5.1077193
5.6149452
6.7136766
-7.2209025
-5.3664824
9.7627627
-4.3962803
8.0705701
-5.5430659
-2.5275042
-4.5554016
-4.6580551
4.127829
1.9539674
10.024537
0.27359869
-5.8166646
-5.2288771
-4.2815026
4.4820967
2.8013936
-2.3259949
3.7483176
2.4738656
-0.26200129
0.75806755
1.3483218
2.4804543
-1.7223867
0.24770662
2.2327477
-1.5803309
2.2683869
0.71897481
-2.2768772
-0.037917923
-1.7107087
4.7680904
1.4149115
-2.7116319
0.98924518
1.5890555
-4.9094284
6.7377022
-3.3878854
-3.3498168
8.3267577
1.640541
-5.0284265
5.693841
-5.3865202
3.2372453
-4.9978996
-1.7911812
-7.1777013
-5.0069783
-4.1099279
7.4093655
-4.909122
7.7671541
1.6303869
-7.509435
9.1398218
-4.806955
2.4489713
-4.1839211
4.9028959
-1.7922686
-2.3916525
4.2011727
3.9357896
-4.1724478
-0.11683013
0.028724936
3.2144524
-3.1857275
-0.61857187
-3.3339223
-7.5562757
7.8774747
-3.8280981
8.5959515
4.0938694
-3.5454068
12.141358
3.2313545
-6.7767613
-5.1529382
-5.8284612
-2.3789601
5.0801013
-0.83199534
-5.9228694
-7.239634
5.831183
0.24132962
-9.2725695
10.339742
-1.0671724
-5.2787358
-0.84610548
6.0761746
-7.7619984
0.63868438
-5.1694848
5.1702571
6.35962
6.6009496
-12.126409
-0.24193332
-6.688818
1.3193381
-8.0081561
6.6818579
-3.78738
8.4839695
-11.073596
7.4205977
-9.7901248
7.1531039
-0.85505219
7.1388648
-4.525247
2.9366587
-9.1281367
-7.387326
7.1866392
-3.6269228
8.1139408
-4.1248421
12.238783
-7.4852328
6.9950855
5.2436973
-1.3820951
-5.877841
-6.956849
5.5747539
0.038236534
5.8751819
7.8003091
-4.8939043
7.1295723
4.1723938
-8.5605613
-3.3508304
-11.83205
3.2714884
-6.1093625
-3.1274063
6.3988948
5.0564679
5.7443756
2.1327644
-4.9796161
8.3358618
-9.3556908
-2.3468711
-4.048955
6.9006301
-1.3258762
4.3679577
-8.4169126
-2.4073906
5.7343565
-0.70771621
-5.0266403
0.99415167
-5.7746192
2.3259034
-8.1005225
6.8086733
-7.440475
2.3406785
-10.074202
-5.6463839
-5.6645071
-2.4155693
-5.6115686
-7.9478611
5.5322919
-1.900132
5.9194384
-8.8930566
8.1853404
-3.7013537
9.2336456
-5.8331595
-1.1359846
6.2763982
1.4014729
10.635118
0.31956975
-6.4108443
-2.7215367
5.5400901
-2.8185534
1.76056
-4.7881496
0.75194052
3.495873
4.8308846
-8.8971992
-0.1806003
-6.5914446
-4.1548702
8.248569
5.6078924
12.321569
1.473534
9.4089923
-1.1604233
10.882526
4.5671214
4.7609289
-4.0850826
5.5672469
1.5298626
6.146983
-0.87482274
3.5466711
1.9551218
1.8857521
1.1550186
2.652986
1.6680927
4.0979407
0.34341636
-2.1304013
4.7030766
-8.9845791
-1.1135881
-8.1960833
1.2049453
5.879716
-4.6747707
4.3182117
-1.5168181
1.4996583
-0.0025760884
-2.3287175
2.3312936
-3.9656937
-2.5907188
-0.35797109
-2.2060297
3.1952749
2.5620608
-2.8373037
-1.12839
0.58068739
-5.5876657
4.4172122
-4.5340423
-0.59825272
8.5415691
-3.7310929
0.54536539
-1.2821216
-2.788557
-3.5828564
3.6207743
11.538211
0.60314777
5.8900881
8.4806225
5.1131787
0.21927437
4.7964549
-6.8848183
-4.5641084
-7.1267517
-0.44489378
5.6312808
2.2318624
9.3734324
7.4755597
6.1496836
-2.2672291
-11.62292
8.194197
-2.6269501
6.6514517
-1.6248114
-6.4757111
6.6509592
3.0212228
-7.3749303
-0.065544699
-6.5412558
-9.1682059
-0.50129415
8.6866346
-10.133824
8.9978398
5.9771702
1.5557236
-4.8084362
-0.85607092
4.7131823
0.047746582
10.930273
-1.1982908
-7.1269603
8.3252511
-4.6814252
3.5678372
0.94035182
2.8079658
3.2716455
1.7548274
-5.3721329
-10.046904
-2.8062266
-2.1032018
-6.1560434
0.66953112
-3.2315919
6.2960366
-2.7281994
3.7685324
5.5970516
7.0967099
-2.0527211
-5.1681814
6.4490014
-2.680469
4.4162409
)
;

boundaryField
{
    wall-4
    {
        type            calculated;
        value           uniform 0;
    }
    velocity-inlet-5
    {
        type            calculated;
        value           nonuniform List<scalar> 8(-1.7582594 -1.7582594 -7.3846893 -4.5714743 -7.3846893 -6.446951 -4.5714743 -6.446951);
    }
    velocity-inlet-6
    {
        type            calculated;
        value           uniform -5.6264299;
    }
    pressure-outlet-7
    {
        type            calculated;
        value           nonuniform List<scalar> 8(5.1629305 8.3910689 5.9644599 10.527039 8.7683231 6.7271235 7.4120534 9.8754665);
    }
    wall-8
    {
        type            calculated;
        value           uniform 0;
    }
    frontAndBackPlanes
    {
        type            empty;
        value           nonuniform List<scalar> 0();
    }
}


// ************************************************************************* //
