/*--------------------------------*- C++ -*----------------------------------*\
  =========                 |
  \\      /  F ield         | OpenFOAM: The Open Source CFD Toolbox
   \\    /   O peration     | Website:  https://openfoam.org
    \\  /    A nd           | Version:  9
     \\/     M anipulation  |
\*---------------------------------------------------------------------------*/
FoamFile
{
    format      ascii;
    class       volVectorField;
    location    "31";
    object      U;
}
// * * * * * * * * * * * * * * * * * * * * * * * * * * * * * * * * * * * * * //

dimensions      [0 1 -1 0 0 0 0];

internalField   nonuniform List<vector> 
918
(
(0.40909145 -0.00017086288 0)
(0.0090456331 2.9576279 0)
(-0.011818827 1.3654818 0)
(0.29006047 -0.0085372538 0)
(-0.0348689 2.232826 2.7555321e-20)
(-0.01174404 2.9485781 -3.5160822e-18)
(1.0441724 1.6283815 7.7238921e-19)
(0.38845037 0.23305653 -2.8769805e-20)
(1.9883778 0.0034822763 0)
(0.025280968 1.2102026 0)
(0.0033131752 1.0250547 0)
(0.32288517 -0.013840851 0)
(0.012837823 2.9163503 0)
(0.013758649 2.7908553 0)
(0.10133642 3.1822685 3.1485234e-19)
(-0.0063354005 2.12399 -3.6525827e-21)
(0.43420704 0.098241554 1.8025362e-18)
(0.22683658 1.702679 5.7247762e-19)
(0.367004 0.0047181561 0)
(-0.017010812 1.0405071 0)
(0.048617225 0.2284119 -1.4399281e-18)
(1.0475968 -0.022075316 0)
(0.5428015 -0.028520483 0)
(0.24769233 -0.0073552721 0)
(0.42129147 -0.0080992546 0)
(0.023578824 2.6170183 0)
(-0.0099611321 2.9058982 1.2998277e-18)
(-0.020496579 1.4079155 0)
(-0.020992113 1.5930633 0)
(-0.017545253 1.3886518 0)
(-0.038207269 2.8080391 0)
(-0.020738863 2.3199248 -2.1654519e-20)
(-0.012489483 2.0979381 0)
(-0.018161879 2.9813223 -1.3120696e-22)
(-0.01837541 3.0070228 2.7298443e-18)
(0.00085963859 3.0015935 0)
(0.28873855 0.0021954585 0)
(0.4319861 0.91344249 3.3334628e-19)
(1.12741 1.6034165 -8.5941675e-19)
(1.1817431 1.462138 9.265251e-19)
(0.96168208 1.7559726 -1.7632155e-19)
(0.86328291 1.7629124 1.0332563e-18)
(0.48797872 0.27926443 2.7989622e-20)
(0.41649278 0.21291611 0)
(1.3331441 0.78247588 0)
(0.43379192 0.28243008 1.2864598e-19)
(0.3487462 0.23453431 -1.3396809e-19)
(0.24452651 -0.013672577 0)
(1.9896137 0.00035534933 0)
(1.9886992 -0.0023182128 0)
(1.3550425 0.0010107731 0)
(1.8675967 0.0051104659 0)
(1.7380969 0.0030253551 0)
(0.026547594 2.0236213 -8.8370454e-19)
(0.049282522 1.4415841 0)
(0.050465826 1.3125015 0)
(0.02952344 1.3892174 0)
(0.017931705 1.129477 0)
(-0.0024212646 2.2305817 0)
(0.0096171467 1.2590251 0)
(0.0092897604 1.0434219 0)
(0.0033713083 1.260605 0)
(0.0029096764 1.0052778 0)
(0.54906811 0.027832635 0)
(0.56304042 -0.024315037 0)
(0.28330418 -0.0073868769 0)
(0.57421913 -0.020829071 0)
(0.36534885 -0.0095672503 0)
(0.016738832 3.0145159 1.3475048e-18)
(0.012390954 3.011381 0)
(0.0077279849 3.0035766 0)
(0.013327294 3.0004891 1.436947e-23)
(0.010556702 2.9476306 -1.9244775e-18)
(0.016841737 2.984892 0)
(0.013435619 2.8938397 0)
(0.017668965 2.9239243 3.1182846e-24)
(0.01385644 2.8181735 0)
(0.017648047 2.9103317 0)
(0.011194365 2.7541425 0)
(0.25209425 3.6430788 0)
(0.17944072 3.5802788 0)
(0.13512035 3.3154625 -2.9453757e-19)
(0.049923556 3.0053371 0)
(-0.0044794982 2.3387796 0)
(-0.011876484 2.3479449 3.6002584e-21)
(-0.0075327152 2.1485402 -2.3545832e-20)
(0.56637299 0.11655149 -6.1811869e-19)
(0.41615678 0.06510807 -5.8872965e-19)
(0.58042506 0.15294913 -1.8847913e-18)
(0.44662375 0.13180634 -1.2595916e-18)
(0.17862432 1.1528764 0)
(0.34916146 1.8487939 -6.4522738e-19)
(0.43701738 1.8315204 1.0847675e-18)
(0.545578 0.038838163 0)
(0.31033992 0.025523169 0)
(1.21886 -0.0014099326 0)
(0.73775639 -0.035304138 0)
(0.64868587 0.01704605 -3.0019005e-18)
(0.64873396 -0.026201865 2.353219e-18)
(-0.015689572 1.2458072 0)
(-0.0086373434 1.0274871 0)
(-0.032527474 1.4286629 0)
(-0.026044402 1.2816364 0)
(-0.018244097 1.0584752 0)
(0.11938883 0.2711013 4.3947648e-19)
(0.21022044 0.21509148 0)
(0.50312053 0.018680728 0)
(0.24473702 0.013513363 0)
(0.57009867 -0.015574714 0)
(0.55474021 -0.015042647 0)
(0.40675159 -0.0059698724 0)
(0.96264262 0.052722382 0)
(0.52493119 0.012266908 0)
(0.32261128 0.0057026683 2.3943604e-18)
(0.0020121476 2.861138 1.1509037e-18)
(0.021417555 2.8993234 0)
(0.035753762 2.874486 0)
(0.015793846 2.7033134 0)
(-0.010423078 2.9857588 1.2581663e-18)
(-0.0090890431 2.8907847 0)
(-0.011758439 2.9907579 -3.859664e-18)
(-0.0095923731 2.9158666 1.3194902e-18)
(0.012583995 1.7761831 0)
(0.029286676 1.7952031 0)
(-0.0048480426 2.3431955 -4.6272506e-22)
(-0.010393551 2.3104798 0)
(-0.0089391295 2.1002604 0)
(0.63499769 0.030405349 0)
(0.32501817 0.019873805 0)
(0.22688522 0.019635193 0)
(0.59892031 0.0081519308 0)
(0.27881765 0.016009468 0)
(0.51912336 1.0933068 -4.0864959e-19)
(0.55333178 1.1307512 0)
(0.40825878 0.89616909 5.3238067e-20)
(0.31740264 0.68705591 0)
(1.2295455 1.4083428 -2.5735245e-19)
(1.2531604 1.2266938 4.8080007e-19)
(0.55988198 1.9003648 0)
(0.77206294 1.8652952 0)
(0.65938536 1.8391852 0)
(0.14844241 0.24904391 -4.3037743e-19)
(0.53346673 0.26009336 0)
(0.43594826 0.19262049 3.6163651e-19)
(1.3039371 1.1841961 0)
(1.357832 0.95822775 0)
(1.2979756 0.99459339 -3.5101495e-19)
(1.4040081 0.74833089 0)
(1.3607276 0.59645981 6.3484297e-20)
(0.5736057 0.024032128 0)
(0.53573611 0.013046786 0)
(0.2553059 0.012033704 0)
(0.52068769 0.0068226587 0)
(0.5275789 -0.014728935 0)
(0.25343844 0.0066898524 0)
(1.4987323 -0.0019968526 0)
(1.8698404 -0.0021760726 0)
(1.7318322 0.00028156355 0)
(0.041291735 2.2457782 4.7816654e-19)
(0.050496543 1.9471714 0)
(0.033606452 2.3367479 7.7728672e-19)
(0.020312385 2.0866384 -6.5439343e-19)
(0.16825503 1.6916587 -4.6917797e-19)
(0.081335695 1.532428 0)
(0.10136378 1.496412 0)
(0.021466249 1.3424568 0)
(0.012354821 1.0835619 0)
(-0.0046653003 2.4142361 -1.2164935e-21)
(0.0018486321 2.2270627 0)
(0.0010074525 2.416684 -6.6775491e-20)
(-0.0016695341 2.2298449 1.168803e-19)
(0.014831969 1.3092733 0)
(0.011242234 1.2819702 0)
(0.010095133 1.0559602 0)
(0.0040213252 1.2502284 0)
(0.0021747878 1.0028361 0)
(0.83327669 0.047668771 0)
(0.61959107 0.028424578 0)
(0.77376017 0.04462203 0)
(0.47038023 0.019472901 0)
(0.23538898 -0.014403464 0)
(0.52694542 -0.016614654 0)
(0.54642918 -0.013219245 0)
(0.25964738 -0.011452992 0)
(0.0037145971 3.0719896 -1.1600052e-20)
(0.010792191 3.0616341 0)
(0.01616858 2.9688066 0)
(0.013254044 2.8677236 0)
(0.73236883 4.2314421 0)
(1.2329461 3.2962851 8.8005316e-19)
(0.072639749 3.1364847 0)
(0.030161604 2.9075043 0)
(0.039338584 1.8413358 0)
(0.026593456 2.1147146 0)
(0.027283151 1.973528 0)
(-0.034539223 2.7472348 -1.0332592e-21)
(-0.0091110763 2.491885 0)
(-0.035858364 2.6346166 0)
(-0.0028786385 2.1721964 3.1684403e-21)
(-0.0068824997 2.3929645 3.1796007e-20)
(-0.0072488533 2.3714552 2.401323e-20)
(-0.00559646 2.1552639 0)
(0.56170273 0.073634575 8.9490909e-19)
(0.39571369 0.031944379 -8.85799e-19)
(0.30431192 1.6941692 0)
(0.20624615 0.9318441 -3.8023159e-19)
(0.22559651 1.8358597 -1.1884155e-18)
(0.13755681 1.3942315 1.1924115e-18)
(0.27588864 -0.0041269779 0)
(0.52686191 -0.0019084222 0)
(0.52245009 0.014355422 0)
(0.28347739 0.0040355367 0)
(-7.3645688e-05 1.2387632 0)
(-0.0082856325 1.2360566 0)
(-0.0025853163 1.00911 0)
(0.37190824 0.28085159 1.1900885e-18)
(0.29013843 0.27165438 -1.4217565e-18)
(0.28992194 0.22992129 0)
(1.2179752 0.12978896 3.7432836e-20)
(1.1527845 0.11630564 0)
(1.0804561 0.088502088 0)
(0.80843642 0.037214567 0)
(0.54339547 0.035306939 0)
(0.51947169 0.0097370088 -3.8523707e-18)
(0.3589085 0.013183701 1.4664787e-18)
(0.0030818677 2.9855724 1.1465708e-18)
(-0.0033392565 2.8655448 4.6522028e-20)
(0.0038437181 3.0539424 -2.4226681e-20)
(0.012752801 3.0472566 8.7234746e-19)
(-0.0093912994 2.9952589 4.2830076e-20)
(-0.0083898765 2.9361787 -1.718533e-22)
(-0.01315809 3.0201635 -8.0555249e-19)
(0.0012157498 3.0231464 5.806203e-19)
(0.0066758746 3.0398178 -8.7297522e-19)
(0.73129358 0.039948966 0)
(0.68998604 0.0416898 0)
(0.38872736 0.019601491 0)
(0.51714724 0.0094008833 0)
(0.49895978 0.032211495 0)
(0.26658735 0.0015015932 0)
(0.50930617 -0.022243959 0)
(0.4846022 -0.0041231397 0)
(0.22190169 -0.0098147026 0)
(0.70715811 1.380266 -1.3351128e-19)
(0.77525868 1.4619236 0)
(0.16120883 0.34707432 1.0332975e-19)
(0.3285443 0.75798301 7.8900064e-19)
(0.34948089 0.79033892 -4.6642355e-19)
(0.22641325 0.48355831 9.1043024e-19)
(0.41793971 0.95766215 2.19889e-18)
(0.16547441 0.33408842 4.9179313e-19)
(0.57851818 0.19405828 1.3354309e-18)
(0.5660719 0.23303205 3.4820222e-19)
(0.44927161 0.16052231 6.7188717e-19)
(1.4177323 0.55521548 9.8118124e-20)
(1.337236 0.40467248 6.0704809e-20)
(0.023792789 2.3942365 2.9578547e-19)
(0.011010673 2.1605527 0)
(0.97855492 0.061605426 0)
(0.9002574 0.054698465 0)
(0.71404977 0.033173681 0)
(0.010032962 3.0770189 0)
(0.016981764 2.9387168 1.7080417e-18)
(0.016543854 2.9537011 0)
(0.013506768 2.8433681 -1.7050152e-18)
(0.0095364384 3.0917477 3.9208609e-19)
(0.0037750199 3.0887675 0)
(0.86592516 1.7514777 -9.1263257e-20)
(1.1317122 2.3627133 4.0613727e-20)
(0.84544523 1.867988 -8.003524e-19)
(0.01497669 2.999199 -1.055441e-18)
(0.036481829 3.0399971 0)
(0.012807722 2.874361 0)
(-0.010027829 2.3990643 -2.3087831e-20)
(-0.0046802126 2.4035283 -6.2097278e-20)
(-0.0019863473 2.2098252 -4.1811221e-22)
(0.34359288 1.5313022 1.1989283e-18)
(0.21078311 0.74863424 -8.2245852e-19)
(0.088678063 2.1557298 8.3827859e-19)
(0.16684546 2.0160934 -1.0260168e-18)
(0.082834568 1.6826814 1.2248922e-19)
(0.014296704 3.1141792 -2.6025109e-18)
(0.016893097 3.119611 2.9460556e-18)
(-0.0085857404 2.98033 1.2068011e-18)
(-0.0051819225 2.9774967 -1.1881766e-18)
(-0.007548113 2.8763085 -1.2293601e-18)
(0.0047053691 3.1054931 -3.0525901e-18)
(0.0095985873 3.1047747 3.0314514e-18)
(0.37649215 0.82671613 0)
(0.32788372 0.76536437 -1.7536759e-18)
(0.13267957 0.27325734 7.7883347e-19)
(0.41275634 1.078868 1.409514e-18)
(0.19016056 0.42788647 -2.1886264e-18)
(1.3499605 0.21704746 9.2739946e-20)
(1.4056687 0.37259496 0)
(1.286196 0.23866635 -2.1813407e-20)
(0.0074163183 2.42234 -2.1596738e-21)
(0.0082475073 2.4087027 0)
(0.0045612771 2.1993741 0)
(0.39185771 1.3947238 -4.3117885e-19)
(0.42203777 1.2490382 -9.6646559e-19)
(0.20030498 0.5688883 1.7409168e-18)
(1.1921999 0.0055421121 0)
(1.3365916 0.0016533026 4.8635431e-19)
(0.0085153469 1.7622869 0)
(-0.017588087 1.7753223 0)
(1.5130563 -0.0011826276 3.1654521e-21)
(1.101684 0.01558893 1.0701737e-18)
(-0.028044917 2.7543714 1.3401079e-21)
(-0.020747034 2.7935463 0)
(0.063472476 3.1806092 8.5314411e-19)
(0.54090099 3.555651 0)
(1.4581484 0.87680386 -9.6438803e-20)
(1.2794245 0.0093280321 2.3860081e-20)
(1.3720697 0.023779239 0)
(1.9989027 0.0074503738 8.159903e-21)
(0.11572386 1.8753878 0)
(0.12271383 2.748685 0)
(0.016810345 1.7925414 0)
(0.0033272701 2.8257677 6.10252e-20)
(-0.021220613 2.7732588 3.7619446e-20)
(1.2738236 -0.016063472 1.9609233e-20)
(1.4152823 0.067131203 0)
(1.4525724 0.095140678 0)
(0.021252325 2.1201303 0)
(-0.011584475 2.7857315 0)
(-0.011068766 1.7837168 0)
(0.35002981 1.9930694 -2.6548316e-19)
(1.2987258 0.0093638631 0)
(1.0942889 0.0082464271 0)
(1.9709606 0.010371858 6.3208521e-19)
(1.6576068 0.015572842 -7.2753303e-19)
(1.9058623 0.010021513 0)
(0.026257652 1.9343204 0)
(0.019812858 1.8026655 0)
(0.031811004 1.8686011 0)
(-0.010650232 1.7769332 0)
(-0.010028579 1.7392365 0)
(-0.017481102 1.7443054 0)
(1.4062607 0.046612546 0)
(1.3093915 -0.00067260722 2.3571157e-20)
(0.99376325 1.7194128 4.232948e-19)
(1.9566723 0.00094266385 -6.4288915e-19)
(1.7071356 -0.004901894 7.668964e-19)
(1.8971451 -0.0063565873 0)
(1.3091645 0.0019953588 6.3398133e-19)
(1.1834598 0.0017333988 -7.9659303e-19)
(0.92967488 0.020848435 0)
(-0.015955272 2.8230519 0)
(-0.019362204 2.7977601 1.78869e-20)
(-0.016759243 2.8155122 -1.3517242e-20)
(1.5986182 0.36411287 8.4283285e-19)
(1.5500704 0.16517086 0)
(0.080242588 3.0544774 -1.5624054e-18)
(0.045331324 2.8450494 -1.0942882e-19)
(0.18437862 3.1802309 2.3656799e-18)
(0.16866593 3.2460649 -3.8597262e-19)
(0.16670451 3.2934392 0)
(0.032341157 3.135075 4.4566779e-19)
(0.086509433 3.1739748 1.536661e-18)
(0.082915819 3.201558 -8.294895e-19)
(0.050853595 3.1085043 0)
(0.8115563 0.38769774 0)
(0.73241239 0.4750966 0)
(1.4152572 0.95041965 2.3005494e-19)
(1.3746091 1.1094483 -2.2052362e-19)
(1.5178383 0.76227105 0)
(1.5200776 0.70227484 0)
(1.2782658 0.015712818 -1.2720749e-18)
(1.0947525 0.012188832 1.6316167e-18)
(1.3899808 0.022019632 0)
(1.2371691 0.022761849 0)
(2.0040876 0.01258777 0)
(1.8778518 0.0027849524 0)
(1.9370865 0.0081212344 0)
(1.728753 -0.0068743332 0)
(1.6671185 -0.0021458397 0)
(1.7984632 -0.0020785867 0)
(0.10129192 1.8637726 0)
(0.075705832 1.8529505 0)
(0.14647749 1.9055845 0)
(0.15746916 1.9318061 0)
(0.1436799 2.7767617 0)
(0.18244823 2.8541504 -5.1295595e-19)
(0.10075897 2.849093 0)
(0.08275457 2.8658735 2.3645913e-19)
(0.029873831 2.8846692 -2.165056e-19)
(0.015294315 1.7981647 0)
(0.013721579 1.769202 0)
(0.021259179 1.8037112 0)
(0.022429931 1.789337 0)
(0.0068689785 2.2587544 -2.2362991e-20)
(-0.019775617 2.8217388 -8.5683728e-21)
(-0.0030527664 2.8714985 6.0435161e-20)
(-0.0083470696 2.9041971 0)
(-0.019994739 2.8262762 -9.3822766e-20)
(-0.018911554 2.8219717 -3.4713546e-20)
(0.008532038 2.2536831 2.1629105e-20)
(-0.014082071 2.5860953 1.1316162e-20)
(-0.019629556 2.6234564 -7.6790406e-20)
(1.3026797 -0.014912065 1.5257868e-18)
(1.1183656 -0.024599432 -1.8756243e-18)
(1.2556408 -0.0086924398 -1.6372454e-18)
(1.1548954 -0.013255833 2.1706406e-18)
(1.4509221 0.059719378 0)
(1.3248928 0.063898226 0)
(1.481199 0.086131038 0)
(1.454751 0.068853995 0)
(1.3001551 0.06833593 0)
(1.5554181 0.14963755 0)
(1.4940841 0.10450012 0)
(1.3593401 0.094876475 0)
(-0.023615311 2.624105 -3.3542318e-21)
(0.0089706512 2.2938933 0)
(-0.0059181117 2.4687682 0)
(-0.011775626 2.8134286 1.6561347e-20)
(-0.012601981 2.8260517 -6.4007296e-22)
(0.0025444111 2.0031009 2.5148375e-20)
(0.012786564 1.9467308 -2.5323725e-20)
(-0.0099374252 1.8466976 0)
(0.0048879309 1.8439679 0)
(0.011097529 1.8395358 0)
(-0.0079355417 1.7888212 0)
(-0.0090924644 1.763578 0)
(0.48570805 2.0007578 4.4716282e-19)
(0.50282934 2.0236623 2.3214443e-19)
(0.59083719 2.6294521 -2.7636332e-19)
(0.38102333 2.7606488 7.3018753e-19)
(0.40128109 2.2464238 1.0565636e-19)
(1.4048194 0.022421939 0)
(1.3335836 0.022172311 0)
(1.1446793 0.01372168 0)
(1.9814139 0.016204654 0)
(1.961071 0.011620894 0)
(1.7245612 0.017529132 0)
(1.6312481 0.01608305 0)
(1.6468617 0.020621878 0)
(1.3471473 0.00038957316 1.2437004e-18)
(1.0568071 0.017910321 -1.5670484e-18)
(1.3041268 0.0024953815 -1.3322195e-18)
(1.1570907 -0.0057571428 1.7366813e-18)
(0.95585755 1.7405407 0)
(0.85180464 1.8818584 4.0302413e-19)
(1.0880583 1.6079657 1.4494567e-19)
(1.1290777 1.5933421 -1.9314373e-19)
(1.2710005 2.7113333 8.4223337e-19)
(0.87289157 0.081519293 9.5995131e-19)
(1.5629022 0.18695466 0)
(1.6072031 0.27682398 -6.6158037e-19)
(1.5172546 0.22949526 -2.6329604e-20)
(1.5140766 0.15863156 0)
(0.22691219 2.9272151 1.0515974e-18)
(0.10981096 2.8172343 -2.2578167e-18)
(0.038842287 2.3791553 1.4182764e-18)
(0.078007937 -0.013672593 -7.1607873e-19)
(0.37251047 3.4695963 2.2582047e-20)
(0.23987666 3.3748118 0)
(0.25246792 3.4379483 -3.1831389e-20)
(0.27230266 3.0902454 -2.5724501e-18)
(0.40707192 3.1788076 0)
(0.014356053 3.1193246 8.0221321e-20)
(0.017416485 3.1324647 -8.5618156e-19)
(0.032066623 3.1178063 1.3307382e-18)
(0.039151998 3.1486196 0)
(0.037151127 3.157078 0)
(1.3563552 2.8074118 0)
(0.76352138 1.0980756 -8.9093326e-19)
(1.2819676 1.3449918 8.9908064e-21)
(1.2050025 1.4210293 0)
(1.0913814 1.3361095 -1.8660724e-19)
(1.3226899 1.1910556 3.9540934e-20)
(0.44488223 0.50092889 -1.6849078e-18)
(0.87906823 0.37672013 -3.3919206e-20)
(0.78886231 0.30434678 7.4993394e-19)
(0.758686 0.52566943 5.5118205e-20)
(0.64092353 0.47424282 -2.2671321e-18)
(0.85043222 0.43243601 0)
(0.94623621 0.53972548 1.2416025e-18)
(0.9535863 0.49683652 0)
(0.80903817 0.48292145 0)
(0.74500307 0.40533613 0)
(1.1609454 0.84354568 7.3426566e-19)
(1.6049666 0.39502724 -7.273339e-19)
(1.5825604 0.56373465 0)
(1.5711732 0.50398051 0)
(0.8425345 0.20129388 1.0980546e-18)
(1.2008762 0.7128266 -7.0464791e-19)
(1.0373315 0.65101663 1.2627497e-18)
(1.4198217 0.52657941 -1.2875312e-18)
(1.2652721 0.003700623 8.3982912e-19)
(1.2416312 0.0094543068 -8.7273554e-19)
(1.0131831 0.0092878935 0)
(1.4343601 0.043088931 0)
(1.3822643 0.032376718 -7.7654536e-19)
(1.2016958 0.026363695 7.6748663e-19)
(1.8246344 0.010755988 0)
(1.7056072 -0.0040054885 0)
(1.9108189 0.0014144533 0)
(1.6769007 0.0050991123 0)
(1.9546078 0.014338168 0)
(1.9407249 0.012218447 0)
(0.066084289 1.8461389 0)
(0.05133734 1.8238209 0)
(0.17659684 1.8307364 -1.2532624e-20)
(0.32858414 1.9833643 1.3674298e-19)
(0.20525211 1.9700788 3.0528024e-19)
(0.23072343 1.9906343 -4.9095965e-19)
(0.21888668 1.8687449 0)
(0.17853532 1.9782343 -1.1138107e-19)
(0.16001664 1.9661775 0)
(0.37307429 2.203704 -1.4642745e-19)
(0.35854284 2.5013975 6.9336291e-19)
(0.23693468 1.9152084 9.978702e-20)
(0.31900784 1.8661108 4.1999577e-20)
(0.26577896 1.8518267 -3.4206131e-20)
(0.34653758 1.7899673 -1.3613612e-19)
(0.27213284 1.9517834 0)
(0.31959611 1.9668438 1.3936848e-19)
(0.044345392 2.4753094 -5.0473081e-20)
(0.036439744 2.874639 0)
(0.06949977 2.5798715 1.8870674e-19)
(0.060751463 2.5860214 0)
(0.060968442 2.8863259 -2.6291928e-19)
(0.046624518 2.9280454 0)
(0.023541961 1.8501532 -5.0868405e-21)
(0.030677201 1.8981911 0)
(0.034012684 1.8335983 0)
(0.026133034 1.8212909 5.7678108e-21)
(0.0067766233 2.857454 -1.14856e-21)
(0.017055556 2.8887085 2.5203176e-19)
(0.0093210613 2.9274859 1.7807403e-21)
(0.0011998582 2.1508661 2.0693995e-20)
(0.001991074 2.0541918 6.8022799e-21)
(0.012351783 1.7879448 0)
(0.0099402702 1.7617161 0)
(0.050479414 1.9764744 5.3200147e-20)
(0.038785105 1.8713605 1.8830106e-20)
(0.041234615 1.9311382 -3.3410863e-20)
(0.058520646 1.9961773 0)
(-0.036332906 2.4645956 -4.0339978e-20)
(-0.02990483 2.7173936 3.5743685e-20)
(-0.031759861 2.6386143 -1.1297415e-20)
(-0.0028198677 2.152364 -2.4489681e-20)
(-0.027631519 2.6718054 -1.3111227e-20)
(-0.027974045 2.6439405 7.2832389e-20)
(1.2649178 -0.010471757 -9.3915877e-19)
(1.273842 -0.020188915 9.8543955e-19)
(1.0773893 -0.020217148 0)
(1.4908632 0.059431814 1.6221853e-18)
(1.1979132 -0.002467599 -1.8100767e-18)
(1.1548386 -0.0061439983 2.0495047e-18)
(1.5158714 0.092521241 -2.2268555e-19)
(1.4163658 0.047245886 0)
(1.4227639 0.05593348 8.1387514e-19)
(1.3118337 0.053450949 -8.062658e-19)
(1.6515632 0.091074878 -5.1687914e-20)
(1.6329777 0.075514102 4.3967729e-19)
(1.7576191 0.094580887 0)
(1.8250764 0.088952434 -1.7152404e-19)
(1.7194233 0.028546065 0)
(1.5964693 0.010648178 0)
(1.8499312 0.0097424589 0)
(1.658701 -0.0019022653 0)
(1.8421545 0.043970463 3.3587686e-19)
(1.8310536 0.025433592 -7.0063887e-19)
(1.8101456 0.075871866 -3.4334573e-19)
(1.8186711 0.07077643 -3.9552271e-19)
(1.779992 0.1154703 8.0373056e-19)
(1.6395482 0.11740263 0)
(1.6828668 0.16075403 0)
(-0.028874241 2.4611196 1.0849808e-20)
(0.0013987737 2.2894559 -4.9176494e-21)
(-0.0089135661 2.2697478 0)
(-0.02643511 2.6520975 -1.1144146e-20)
(-0.019882548 2.6074121 7.8667859e-21)
(-0.021847523 2.6484015 -4.2055135e-21)
(-0.020392855 2.8362243 3.0861893e-20)
(-0.019047683 2.748767 -4.1623071e-21)
(-0.022916868 2.7155688 8.168502e-21)
(-0.01271701 2.826675 -2.1727405e-20)
(-0.019874962 2.8287738 2.812033e-20)
(-0.0083943297 1.9153227 -2.6325758e-21)
(0.0019800175 2.0187173 2.174905e-20)
(0.4863847 1.9024147 -1.904628e-19)
(0.44519717 1.8213392 8.1265139e-20)
(0.824324 1.9003225 -3.910969e-19)
(0.66310774 1.9886004 -2.2419768e-19)
(0.68666129 1.9884512 0)
(0.64111903 2.592556 2.5518586e-19)
(0.6971024 2.6061255 4.0166582e-19)
(0.44694812 2.6907328 1.1127571e-19)
(0.45678747 2.6967832 -7.2045482e-19)
(0.54255462 2.6273593 6.9219095e-19)
(0.55233462 2.6465834 0)
(0.48373132 2.7041098 -6.4456868e-19)
(0.22836007 2.7760135 1.3074235e-18)
(0.33445432 2.760719 -4.9741722e-20)
(0.26998125 2.851425 -1.7836502e-18)
(1.0212839 2.5389111 1.0206947e-18)
(0.89125263 2.5500026 0)
(1.9542832 0.022403052 2.4926177e-20)
(1.6590609 0.022301041 -2.1313676e-20)
(1.6785203 0.022478493 -3.7593862e-19)
(1.8784873 0.027823864 3.7682395e-19)
(1.9890111 0.027607731 0)
(0.86464635 1.7035475 0)
(0.84569337 1.5971549 0)
(1.0107563 1.5133383 0)
(0.87085151 1.5225665 0)
(1.2778469 2.7466188 -1.2834059e-21)
(1.1874318 2.570363 0)
(0.93294362 2.2828127 6.2146276e-21)
(0.87612824 2.5408487 0)
(0.99342698 2.6126778 -5.3833742e-19)
(1.0209472 2.6015509 3.6788108e-19)
(0.90297678 0.11889912 0)
(0.85913063 0.12956289 2.665439e-19)
(1.1011473 0.11269041 1.4775867e-18)
(0.93122467 0.077452386 -5.6728983e-19)
(0.86782399 0.025328157 -1.7238301e-18)
(1.6686079 0.32202632 -1.3047026e-18)
(1.5446598 0.39424113 -2.7250235e-20)
(1.2801606 0.31754183 1.4748897e-18)
(1.5205582 0.28070754 1.2018215e-18)
(1.2937578 0.16228547 -1.9853783e-18)
(1.2447443 0.17610347 2.5233142e-19)
(1.286625 0.25014152 -5.5283325e-19)
(1.2658734 0.21782263 0)
(1.51238 0.20244163 9.7517083e-19)
(1.6277437 0.2406033 0)
(1.6239833 0.28945057 0)
(1.6493815 0.20186459 4.0024179e-19)
(1.7361174 0.24749022 -2.2746884e-20)
(1.6835928 0.32500358 -2.2887652e-19)
(1.6570825 0.28593973 0)
(1.5498183 0.015562403 8.2538133e-19)
(1.7878551 0.067677057 1.0105781e-18)
(1.7462093 0.040296269 -7.8479119e-19)
(1.737371 0.086924504 -6.8925637e-19)
(1.5413873 0.053451296 -1.1643305e-18)
(1.3986804 0.12427418 0)
(1.4204327 0.10963419 0)
(1.1479519 0.0210841 -7.430061e-19)
(1.0708964 0.024167707 3.0242901e-19)
(1.6599256 0.11812603 1.021912e-18)
(1.7538447 0.18673899 -1.1691308e-18)
(1.7306365 0.20315277 1.0680724e-18)
(1.6777391 0.18389747 0)
(1.7463931 0.1540016 0)
(1.7829004 0.13463858 -4.5598656e-19)
(1.7562477 0.12080716 -8.3421204e-19)
(0.73371411 1.4978367 2.4651412e-19)
(0.81768175 1.8372424 -2.7152171e-19)
(1.1806979 2.785418 -3.0532357e-19)
(1.3004289 3.1362041 5.8243205e-20)
(1.3418634 2.826719 -6.5384269e-19)
(1.3977676 2.8956004 8.7383112e-20)
(1.2682712 2.5682257 2.6850015e-20)
(1.3319509 3.0600773 -2.2682197e-19)
(1.3389566 3.0779799 4.3385259e-19)
(1.3193282 3.3428179 -5.4760594e-20)
(1.4362357 3.1094191 5.6524646e-20)
(1.4535592 3.0373067 0)
(0.76652369 1.1782446 -7.8664986e-20)
(0.2645072 1.3476251 9.1459665e-19)
(0.65512749 0.70511114 1.1121432e-18)
(0.43050256 0.27711533 1.2748052e-18)
(0.67176939 0.53054454 1.2728458e-18)
(0.73870838 0.64240764 -2.1045201e-18)
(0.72249627 0.65946985 1.7068291e-18)
(0.62319748 0.55778737 -6.5754968e-19)
(0.5174994 0.44373066 1.4879714e-18)
(0.89190286 0.25216783 -6.1789305e-19)
(0.86661039 0.30271727 0)
(0.78640556 0.2531489 1.7182772e-20)
(0.98407973 0.66631671 6.6751376e-19)
(0.94361647 0.62631054 -2.4252131e-18)
(0.79953196 0.65157036 2.79878e-20)
(0.82844876 0.60706452 0)
(0.89735247 1.0483852 7.1087929e-19)
(1.1294385 1.079072 6.4464402e-19)
(1.0288261 1.2062268 -7.3965747e-19)
(1.178853 1.1092811 -2.6282803e-19)
(1.2418524 1.172753 -6.1799533e-20)
(1.216394 1.1742064 6.2296123e-20)
(1.2403778 0.88145969 -1.2205285e-18)
(1.2540951 0.99723713 2.4663632e-19)
(1.3336996 1.0023885 0)
(1.3692818 0.94807966 -3.2860139e-19)
(1.5798619 0.42444088 3.6149832e-19)
(1.6467325 0.42313964 4.3369942e-19)
(1.6559627 0.3843642 5.5266659e-19)
(1.5527615 0.51299394 -7.3242033e-19)
(1.5438479 0.57770531 0)
(1.5689219 0.55054781 0)
(1.2659894 0.44331762 2.1602745e-20)
(1.1068417 0.30826046 0)
(1.1592378 0.28549593 7.1700987e-19)
(1.2617632 0.32782475 -1.8772773e-20)
(1.4079093 0.57638548 3.3526943e-18)
(1.3128095 0.67380074 9.3109243e-19)
(1.3009976 0.58410798 -1.0402169e-18)
(1.1266634 0.53249247 1.1302094e-18)
(1.0798485 0.53642695 6.7111813e-19)
(1.0118248 0.49353249 -6.5771647e-19)
(1.6658183 0.037211869 6.4551495e-19)
(1.9470426 0.029731778 0)
(1.9118243 0.036839795 4.3652618e-19)
(1.6846984 0.03558869 -9.7838341e-19)
(1.9278322 0.023845779 4.8138177e-19)
(1.8737625 0.0055854163 -1.0202934e-18)
(1.6931373 0.0024338527 0)
(1.580584 0.0084316483 -2.1010619e-19)
(1.8413705 0.0064519461 5.256264e-19)
(1.6710499 0.008305589 -2.7111112e-19)
(1.6091033 0.011862459 1.983728e-19)
(0.029053584 1.8111566 0)
(0.036234133 1.8163423 0)
(0.043064738 1.8220143 0)
(0.031395182 1.8056149 0)
(0.088193979 1.8365648 -5.2228643e-21)
(0.1030766 1.8212502 1.076038e-20)
(0.14357698 1.9091508 -3.623725e-20)
(0.12721188 1.8101381 6.7423368e-21)
(0.047055628 1.8806775 -2.7725286e-20)
(0.050984012 1.8761796 2.1400616e-20)
(0.079791671 1.8257401 -2.1758101e-20)
(0.069773193 1.8318636 2.9673961e-20)
(0.050603959 1.8134734 3.7154966e-21)
(0.043021989 1.82042 -1.9782119e-21)
(0.097085011 2.5188153 -2.0300783e-19)
(0.099957701 2.5524593 0)
(0.16757252 2.260814 1.1998747e-19)
(0.1553124 2.0545622 7.0859592e-20)
(0.27046361 2.2262182 -1.0991427e-19)
(0.23534704 2.5983757 0)
(0.27792974 2.5848856 -6.9131023e-19)
(0.32688972 2.4844743 4.9712241e-19)
(0.23421489 2.1894039 -2.7800583e-19)
(0.18257714 2.3508173 1.8909073e-19)
(0.17167769 2.4863999 0)
(0.024279065 2.2117389 -9.6859508e-20)
(0.02082041 2.5933912 -1.2748763e-19)
(0.01719007 2.3594674 0)
(0.019664786 2.6516542 -1.6078905e-20)
(0.039333288 2.4839566 5.8453452e-20)
(0.010656463 1.8393776 -1.0224782e-21)
(0.0078603221 1.8337917 1.097774e-20)
(0.010206614 1.8360734 -5.7189835e-21)
(0.015130856 1.8277669 -5.8785716e-22)
(0.022578133 1.8570818 0)
(0.0041884505 1.8160721 0)
(-0.00087992384 1.786335 -9.5796786e-21)
(-0.00084362654 1.8114237 1.237383e-21)
(0.0018168608 1.8149427 0)
(0.0070907523 1.7836937 -9.2599143e-21)
(0.0013222961 1.7626741 1.852575e-20)
(1.625761 0.046486355 0)
(1.619565 0.048407808 -7.5508601e-20)
(1.9118459 0.043981289 -5.8066942e-19)
(1.7818733 0.055536445 0)
(1.6225801 0.049952185 0)
(1.8866618 0.034166117 9.0890637e-21)
(1.890713 0.035571733 8.5720605e-19)
(1.7675889 0.01038918 1.1041825e-18)
(1.6510213 0.0012086719 0)
(1.5735864 0.0011539183 0)
(1.7505857 0.021918434 5.810284e-19)
(1.5934856 0.010152191 0)
(1.5709118 -0.0056177374 0)
(-0.025717264 2.2703476 0)
(-0.0080211779 2.0444664 -1.0257394e-20)
(-0.020132287 2.1510447 3.9564265e-21)
(-0.0024344768 1.8250276 0)
(-0.016477806 1.9632347 7.437006e-21)
(-0.011280643 1.8938409 -4.2682e-21)
(-0.0028580487 1.8261036 0)
(0.49205686 1.9068799 0)
(0.44321059 1.7096674 -1.7467654e-19)
(0.40453658 1.7178294 0)
(0.53478501 1.747017 6.6415034e-20)
(0.62850049 1.9146297 0)
(0.56637935 1.8590072 1.9026332e-20)
(1.1110982 2.8024642 -2.1124495e-20)
(1.041765 2.5592359 -1.1745079e-18)
(1.0356145 2.4494405 1.3527211e-18)
(0.91766421 2.537882 3.373593e-19)
(0.90890759 2.6020894 0)
(0.97361365 2.5836954 0)
(0.99544001 2.5423553 0)
(0.97637512 2.537359 -1.2183118e-18)
(0.73249669 2.5484787 -5.5597042e-19)
(0.85779808 2.5742444 -1.2949822e-19)
(0.85701921 2.5296836 1.0360795e-19)
(0.74693681 2.569543 0)
(0.84754241 2.5621708 0)
(0.80271079 2.5796154 -4.3891777e-19)
(0.80354864 2.5934723 0)
(0.82292331 1.4769673 0)
(0.70865407 1.2854017 -7.9866475e-19)
(0.79157114 1.3120044 -4.8710682e-20)
(0.74126611 1.4020855 0)
(0.73375055 1.3714351 1.2154436e-18)
(1.0407371 1.2510106 -2.0411336e-19)
(1.0233096 1.378708 0)
(1.037554 1.3120763 3.1192292e-19)
(0.86298591 1.4376786 0)
(0.89356535 1.322502 0)
(1.2480726 2.8252338 -3.6859627e-19)
(1.2084596 2.864865 -2.6393681e-19)
(0.99889775 2.3751706 4.5659066e-19)
(0.99836225 2.4054428 -1.5570289e-19)
(1.2169481 2.8136612 0)
(1.1739292 2.7686421 1.9772893e-19)
(1.2008827 2.6441258 -3.6700353e-19)
(1.1102126 2.4831095 -2.8924922e-20)
(0.67525729 1.693894 0)
(0.68466017 1.4880797 -2.1702149e-19)
(0.73041046 1.5602245 0)
(1.1001127 0.22448425 0)
(0.87459335 0.14671302 0)
(0.76615635 0.14404318 0)
(1.0810039 0.23339447 -1.117331e-18)
(0.8931719 0.18877208 6.4814472e-19)
(1.0705743 0.022789848 -5.9828672e-19)
(1.1647118 0.08419757 0)
(1.1408826 0.10428453 2.6627657e-19)
(0.95724492 0.03190544 1.0806418e-18)
(0.89480889 0.0085757428 -6.8303049e-19)
(1.3288676 3.4669985 -2.6821114e-19)
(1.3107378 3.3990554 0)
(1.3496296 3.4211152 -6.1275485e-19)
(0.53622654 3.5207261 5.8202734e-19)
(0.78405893 3.0521669 -3.859071e-19)
(0.65802652 1.1719564 9.863978e-19)
(0.62738378 1.1948739 0)
(0.55767409 0.72903771 -2.8035722e-19)
(0.66904606 1.0214673 1.4754592e-18)
(0.6878444 0.67854916 -3.8763469e-19)
(0.67149916 0.73272787 4.3528774e-19)
(0.862456 0.70702516 9.0813948e-19)
(0.94722889 0.72687727 0)
(0.87433616 0.84815929 0)
(0.79912609 0.79694635 0)
(1.4083436 0.82904059 1.2773549e-19)
(1.3343982 0.74218469 -8.8656566e-19)
(1.3270771 0.79635236 6.773685e-19)
(1.4096302 0.69451501 -6.7993092e-19)
(1.5077082 0.68948195 0)
(1.5062672 0.76076822 -1.6294823e-19)
(1.1289743 0.47133405 -1.4989566e-18)
(1.1569396 0.46186552 -1.7945587e-18)
(1.0620381 0.44510708 1.1719815e-18)
(1.0424448 0.41154601 -1.1929976e-18)
(1.1101422 0.34806455 -9.2823501e-19)
(1.0193732 0.33596749 1.151725e-18)
(1.9096589 0.024785822 -5.2379504e-19)
(1.9369423 0.027018981 1.0605557e-18)
(1.6662902 0.037290731 6.5990791e-19)
(1.6808703 0.04403163 -7.8529832e-19)
(1.7706634 0.047340267 0)
(1.9288732 0.040592292 -1.3880456e-18)
(0.078913006 2.036689 2.8239097e-20)
(0.073304587 1.9785892 0)
(0.11407421 2.0308118 2.9447934e-19)
(0.12718305 2.0220456 -2.6694946e-19)
(0.10992287 1.9368739 6.4193734e-20)
(0.099137484 1.9282778 0)
(-0.0011034122 2.06211 0)
(-0.0044165427 1.9028909 -3.9938432e-21)
(-0.0059701084 1.8748244 3.6135254e-21)
(-0.016658093 1.9604867 3.7364064e-21)
(-0.015920983 2.1938138 -9.8259075e-21)
(-0.014604939 2.2169832 1.0734378e-20)
(0.65497327 1.6983437 -5.0556283e-19)
(0.61684668 1.7312391 5.3316263e-19)
(0.57233376 1.7200066 -4.8525384e-20)
(0.57343062 1.6714719 1.8301064e-20)
(0.80573123 1.7362102 0)
(0.69013356 1.8339527 1.652285e-19)
(0.75685009 1.8446273 -1.6049919e-19)
(0.60598203 1.7408585 4.8144718e-20)
(0.67618716 1.6680844 0)
(0.7254884 1.6429627 0)
(0.71005634 2.5171802 8.141923e-19)
(0.71280141 2.5809303 1.4891613e-18)
(0.75848846 2.5831181 -1.0698854e-18)
(0.63153371 2.5885418 -2.2325111e-19)
(0.61846792 2.648222 3.7046177e-19)
(0.57285556 2.6178057 -9.3128614e-19)