/*--------------------------------*- C++ -*----------------------------------*\
  =========                 |
  \\      /  F ield         | OpenFOAM: The Open Source CFD Toolbox
   \\    /   O peration     | Website:  https://openfoam.org
    \\  /    A nd           | Version:  9
     \\/     M anipulation  |
\*---------------------------------------------------------------------------*/
FoamFile
{
    format      ascii;
    class       volScalarField;
    location    "0.74";
    object      p;
}
// * * * * * * * * * * * * * * * * * * * * * * * * * * * * * * * * * * * * * //

dimensions      [1 -1 -2 0 0 0 0];

internalField   nonuniform List<scalar> 
10000
(
0
-0.008805741
-0.026834861
-0.05153699
-0.083885933
-0.12402929
-0.17220394
-0.22872402
-0.29398003
-0.36835426
-0.45233854
-0.54643776
-0.65124117
-0.76741421
-0.89566944
-1.0367981
-1.1916699
-1.3612245
-1.5464709
-1.7484883
-1.9684098
-2.2073988
-2.4666395
-2.7473181
-3.0505843
-3.3775177
-3.7290886
-4.1060961
-4.5090874
-4.9382351
-5.3932733
-5.8734472
-6.3774829
-6.9035549
-7.4491807
-8.0111419
-8.585349
-9.1666091
-9.7464714
-10.32797
-10.895542
-11.442363
-11.961372
-12.446016
-12.89112
-13.293854
-13.654586
-13.978372
-14.276435
-14.565206
-14.863973
-15.203199
-15.588705
-16.026626
-16.51781
-17.054026
-17.604156
-18.128334
-18.595622
-18.975165
-19.242669
-19.403135
-19.480468
-19.496666
-19.47102
-19.419959
-19.356307
-19.289636
-19.226652
-19.17143
-19.126165
-19.091848
-19.068676
-19.056367
-19.05423
-19.061371
-19.076804
-19.099494
-19.128314
-19.162186
-19.200055
-19.240934
-19.283874
-19.327985
-19.372456
-19.416581
-19.459706
-19.501333
-19.540953
-19.578142
-19.612615
-19.644084
-19.672307
-19.69719
-19.718664
-19.736594
-19.750818
-19.761653
-19.767492
-19.770237
0.0026144405
-0.0062694341
-0.024491148
-0.048961258
-0.081107939
-0.12095071
-0.16877049
-0.2249047
-0.28967579
-0.36352526
-0.44689631
-0.54030773
-0.64435995
-0.75969439
-0.88702936
-1.0271641
-1.1809701
-1.3493934
-1.5334496
-1.734219
-1.9528381
-2.1904932
-2.448409
-2.7278161
-3.0299158
-3.3558511
-3.7066612
-4.0832189
-4.4861693
-4.9158411
-5.3721559
-5.8545538
-6.3619135
-6.8924685
-7.4437425
-8.0124794
-8.5946246
-9.1855484
-9.7811034
-10.366928
-10.941198
-11.495717
-12.022379
-12.51358
-12.962888
-13.366062
-13.722407
-14.036582
-14.320883
-14.59609
-14.87964
-15.215509
-15.599305
-16.040483
-16.542568
-17.115699
-17.704593
-18.256216
-18.752071
-19.164331
-19.449809
-19.598128
-19.660552
-19.662984
-19.622034
-19.554833
-19.475914
-19.395196
-19.319258
-19.252264
-19.196482
-19.152917
-19.121662
-19.102339
-19.09419
-19.096186
-19.107198
-19.126075
-19.151636
-19.182715
-19.218174
-19.256949
-19.298076
-19.340604
-19.383697
-19.426633
-19.468723
-19.509426
-19.548267
-19.584827
-19.618761
-19.649759
-19.677614
-19.70214
-19.723208
-19.740689
-19.754444
-19.765019
-19.770515
-19.772805
0.015555134
0.0067985139
-0.011058547
-0.035162004
-0.066818316
-0.10605464
-0.15319785
-0.20851137
-0.27237085
-0.34516497
-0.42734866
-0.51945439
-0.62205459
-0.73579152
-0.8613902
-0.99964634
-1.1514319
-1.3177007
-1.4994777
-1.6978501
-1.9139825
-2.1491143
-2.404528
-2.6815231
-2.9813922
-3.3053874
-3.6546706
-4.0302708
-4.433021
-4.8634586
-5.3217246
-5.8074815
-6.3198192
-6.857155
-7.4171522
-7.9966191
-8.5914647
-9.1967128
-9.8063034
-10.411518
-11.0043
-11.577094
-12.121076
-12.627578
-13.088801
-13.498767
-13.854873
-14.160519
-14.428511
-14.682675
-14.954028
-15.292114
-15.686693
-16.143258
-16.662084
-17.303783
-17.950571
-18.518762
-19.045904
-19.483233
-19.752955
-19.870921
-19.8967
-19.861518
-19.785014
-19.686948
-19.582504
-19.48098
-19.388183
-19.307669
-19.241089
-19.188913
-19.1508
-19.125997
-19.113501
-19.112099
-19.120495
-19.137351
-19.161383
-19.191337
-19.226024
-19.264273
-19.305025
-19.347301
-19.390247
-19.433112
-19.475192
-19.5159
-19.554745
-19.591317
-19.625255
-19.656223
-19.684044
-19.708489
-19.729432
-19.746748
-19.760267
-19.770814
-19.77617
-19.778145
0.033265712
0.02491526
0.0074830979
-0.016036363
-0.046989179
-0.085417654
-0.13156903
-0.18575033
-0.24829473
-0.31958599
-0.40008638
-0.49030485
-0.59080801
-0.70223816
-0.82531201
-0.96082303
-1.1096458
-1.2727339
-1.4511149
-1.645903
-1.8583102
-2.0896333
-2.3412281
-2.6144873
-2.9108239
-3.2316359
-3.5782788
-3.9520163
-4.3539399
-4.7848644
-5.245235
-5.7350414
-6.2537078
-6.7999643
-7.3717108
-7.9658882
-8.578357
-9.2037633
-9.835357
-10.464785
-11.085053
-11.685417
-12.256089
-12.786955
-13.268295
-13.691671
-14.051469
-14.348309
-14.595149
-14.819074
-15.057131
-15.415188
-15.842485
-16.32072
-16.879484
-17.640392
-18.354159
-18.895086
-19.479842
-20.020526
-20.242236
-20.260252
-20.220436
-20.133146
-20.003932
-19.859316
-19.716543
-19.583801
-19.4662
-19.366471
-19.285288
-19.222177
-19.17602
-19.145428
-19.128821
-19.12458
-19.131084
-19.146773
-19.170168
-19.199872
-19.234531
-19.272933
-19.313926
-19.356515
-19.399816
-19.443004
-19.485379
-19.526367
-19.56543
-19.602156
-19.636218
-19.667279
-19.695107
-19.719538
-19.740427
-19.757648
-19.770894
-19.781349
-19.786829
-19.788373
0.056994281
0.048948714
0.032050011
0.0092875409
-0.02079134
-0.058122132
-0.10299475
-0.15567362
-0.21647976
-0.28580812
-0.36409229
-0.45182191
-0.5495616
-0.65794178
-0.77766453
-0.90951757
-1.0543718
-1.2131762
-1.386974
-1.5769207
-1.7842784
-2.0104026
-2.2567335
-2.5247848
-2.8161229
-3.1323514
-3.4750872
-3.8458925
-4.2461857
-4.6771551
-5.1396692
-5.6341777
-6.1605665
-6.7179894
-7.3046962
-7.9178525
-8.5533695
-9.2057707
-9.8681567
-10.532366
-11.18873
-11.826854
-12.435272
-13.001856
-13.514466
-13.961545
-14.332518
-14.622558
-14.845236
-15.029681
-15.237943
-15.635155
-16.161288
-16.693588
-17.335027
-18.444388
-19.025377
-18.916754
-19.699481
-20.757915
-20.917426
-20.847917
-20.683489
-20.500529
-20.289915
-20.079495
-19.883932
-19.70944
-19.559631
-19.435461
-19.336014
-19.259468
-19.2036
-19.166155
-19.144852
-19.137507
-19.142095
-19.15675
-19.179734
-19.20947
-19.244444
-19.283324
-19.324916
-19.368131
-19.412033
-19.455796
-19.49869
-19.540133
-19.579584
-19.616607
-19.650855
-19.682063
-19.709967
-19.734423
-19.755252
-19.77243
-19.785701
-19.795559
-19.801117
-19.802328
0.086806241
0.079152069
0.062864977
0.040956584
0.011976246
-0.024034337
-0.067327605
-0.11815064
-0.17683211
-0.24374318
-0.31929557
-0.40396598
-0.49829954
-0.60290529
-0.71846851
-0.84576205
-0.98564478
-1.1390698
-1.3071063
-1.4909448
-1.6918886
-1.9113568
-2.1508871
-2.4121318
-2.6968506
-3.006901
-3.3442072
-3.7106829
-4.1081552
-4.5382993
-5.0025386
-5.5019196
-6.0369446
-6.607349
-7.211879
-7.8480648
-8.5120171
-9.1982725
-9.8997119
-10.607588
-11.311665
-11.999893
-12.659371
-13.275774
-13.834409
-14.320314
-14.7174
-15.013101
-15.212331
-15.35633
-15.545507
-16.176956
-16.569047
-17.244479
-18.442202
-18.207625
-17.22834
-18.501209
-19.545968
-20.272315
-21.151954
-21.456472
-21.168009
-20.91043
-20.625789
-20.34043
-20.077257
-19.849166
-19.659313
-19.505838
-19.385215
-19.293592
-19.22723
-19.182677
-19.156798
-19.146719
-19.149958
-19.164217
-19.187475
-19.217916
-19.25389
-19.293894
-19.336658
-19.381051
-19.426064
-19.470826
-19.514624
-19.556846
-19.596921
-19.634449
-19.669082
-19.700548
-19.728599
-19.753153
-19.773955
-19.791048
-19.804301
-19.813838
-19.819269
-19.820312
0.12245626
0.11524266
0.099601199
0.078705908
0.05097495
0.016514023
-0.024917672
-0.073575132
-0.12976276
-0.19382603
-0.26616198
-0.3472252
-0.43752826
-0.53765217
-0.64825772
-0.77009273
-0.90400531
-1.0509586
-1.2120368
-1.3884466
-1.5815276
-1.7927687
-2.0238145
-2.2764702
-2.5527123
-2.8546845
-3.1846593
-3.5449651
-3.9379308
-4.3658398
-4.8308171
-5.3346693
-5.8786993
-6.4634356
-7.0883413
-7.7515368
-8.4495097
-9.1768887
-9.9263409
-10.68858
-11.452351
-12.205108
-12.931313
-13.614536
-14.237504
-14.784145
-15.23732
-15.554435
-15.7211
-15.788529
-15.949141
-15.894626
-16.666767
-17.905289
-19.90369
-22.920447
-24.550451
-25.641579
-25.995985
-24.361706
-23.589646
-22.697737
-22.172172
-21.539219
-21.065004
-20.656095
-20.296625
-19.99908
-19.760101
-19.572365
-19.428138
-19.320467
-19.243475
-19.192232
-19.162524
-19.150629
-19.153455
-19.168327
-19.192843
-19.224917
-19.262717
-19.304644
-19.349303
-19.395488
-19.44216
-19.48841
-19.533492
-19.576782
-19.61774
-19.655958
-19.691105
-19.722924
-19.751202
-19.775835
-19.796665
-19.813654
-19.826795
-19.836097
-19.841363
-19.84239
0.16361073
0.15687019
0.14198793
0.12219945
0.095894127
0.063204548
0.023878742
-0.022314946
-0.075653765
-0.13646752
-0.2051285
-0.28205481
-0.36772122
-0.4626731
-0.56753647
-0.68303144
-0.80999434
-0.94938254
-1.1022694
-1.2698661
-1.4535486
-1.6548709
-1.8755803
-2.1176463
-2.3832771
-2.6749159
-2.9952178
-3.3469965
-3.7331788
-4.1567732
-4.6207603
-5.1279111
-5.6805583
-6.2802945
-6.9276049
-7.6214694
-8.358976
-9.1350241
-9.9421199
-10.770419
-11.607957
-12.440611
-13.251457
-14.020951
-14.730446
-15.369569
-15.921515
-16.271132
-16.35986
-16.008051
-16.328705
-17.866237
-19.711823
-21.848184
-24.265777
-26.761228
-29.143084
-30.670769
-30.823253
-29.720973
-28.330014
-24.821696
-23.73966
-22.614034
-21.689382
-21.020721
-20.530356
-20.151157
-19.855668
-19.630092
-19.461039
-19.337363
-19.250437
-19.193534
-19.161152
-19.148716
-19.152401
-19.16907
-19.195972
-19.230736
-19.271319
-19.316017
-19.363299
-19.411885
-19.460742
-19.508925
-19.555659
-19.600299
-19.642346
-19.681389
-19.717158
-19.749387
-19.777935
-19.802644
-19.823448
-19.840348
-19.85335
-19.862428
-19.867456
-19.868461
0.20997086
0.20378633
0.18971159
0.17116257
0.14644785
0.11571257
0.078724437
0.035276302
-0.014890614
-0.072081264
-0.13663381
-0.20892468
-0.28938477
-0.37851104
-0.47688635
-0.58520153
-0.70426346
-0.83499147
-0.97843057
-1.1357894
-1.3084648
-1.498056
-1.7064064
-1.9356493
-2.188223
-2.466876
-2.7746746
-3.1149759
-3.4913904
-3.9077657
-4.3681101
-4.8763918
-5.4362555
-6.0506945
-6.7216217
-7.4493087
-8.2317742
-9.0643191
-9.9392526
-10.846141
-11.772457
-12.702765
-13.617956
-14.494749
-15.316117
-16.082381
-16.772333
-17.09326
-16.856362
-17.02238
-19.321307
-20.02107
-21.79735
-24.230915
-27.694347
-31.553213
-34.918415
-36.898924
-36.933422
-35.241802
-32.186817
-28.456492
-24.258021
-24.010747
-22.374188
-21.398364
-20.756287
-20.28827
-19.934572
-19.670779
-19.477838
-19.339788
-19.244815
-19.184151
-19.150956
-19.139725
-19.145972
-19.165976
-19.196637
-19.235326
-19.279784
-19.328156
-19.378862
-19.430547
-19.482132
-19.532678
-19.581459
-19.627692
-19.671013
-19.711043
-19.747508
-19.780188
-19.808984
-19.833765
-19.854504
-19.871235
-19.884017
-19.892813
-19.897608
-19.898438
0.26123188
0.25563095
0.24246018
0.2252718
0.20227465
0.17366533
0.13923057
0.098778032
0.052072564
-0.0011547126
-0.061203784
-0.1284065
-0.20313889
-0.2858411
-0.37704548
-0.47739272
-0.58762803
-0.70860993
-0.84134424
-0.98701581
-1.147009
-1.3229453
-1.5167496
-1.7306974
-1.9674356
-2.2300164
-2.5219363
-2.8471338
-3.2099693
-3.6152366
-4.0681271
-4.574055
-5.1383507
-5.7658642
-6.4605177
-7.2245105
-8.0571391
-8.9541086
-9.9076085
-10.906628
-11.937985
-12.985012
-14.025026
-15.031058
-15.994548
-16.946983
-17.746989
-17.794137
-17.210913
-19.822323
-20.649866
-21.952631
-24.254822
-27.146104
-31.666381
-36.857266
-41.288764
-43.790814
-43.75453
-41.347256
-37.131975
-32.512717
-25.777046
-24.883803
-22.938258
-21.708147
-20.930138
-20.385254
-19.980647
-19.68355
-19.470874
-19.322143
-19.222452
-19.161079
-19.129848
-19.122297
-19.133283
-19.158569
-19.194674
-19.238708
-19.288292
-19.34142
-19.39641
-19.451906
-19.506821
-19.560092
-19.611349
-19.659415
-19.70417
-19.745297
-19.782491
-19.81562
-19.844613
-19.869376
-19.889975
-19.906444
-19.918887
-19.927311
-19.931796
-19.932285
0.31701549
0.31206802
0.29987445
0.28413706
0.26297657
0.23664811
0.20494966
0.16770935
0.12472126
0.07575217
0.020546274
-0.041172628
-0.10971701
-0.18546638
-0.26888492
-0.36052743
-0.46105151
-0.57124262
-0.6920406
-0.82456385
-0.97015071
-1.1304222
-1.3073468
-1.503297
-1.7210957
-1.964077
-2.2361606
-2.5418822
-2.8863845
-3.2754694
-3.7156434
-4.2140496
-4.7781851
-5.4153682
-6.1322093
-6.9335796
-7.8206874
-8.7903052
-9.8350194
-10.941605
-12.095124
-13.280492
-14.468153
-15.617799
-16.720614
-17.802867
-18.829302
-17.767765
-19.970921
-21.138115
-22.25581
-24.003116
-26.040764
-29.834907
-35.252711
-41.384907
-46.513503
-49.416618
-49.408853
-46.489794
-41.515806
-35.914164
-27.027833
-25.639796
-23.393588
-21.929409
-21.031099
-20.422314
-19.977934
-19.657155
-19.432128
-19.278699
-19.179283
-19.121475
-19.095886
-19.095184
-19.113614
-19.146487
-19.190015
-19.241123
-19.297265
-19.356308
-19.416565
-19.476607
-19.53544
-19.592005
-19.645742
-19.695961
-19.742301
-19.784552
-19.822513
-19.856023
-19.885116
-19.909767
-19.930083
-19.946161
-19.958094
-19.966019
-19.97004
-19.970005
0.37696979
0.37272144
0.36154471
0.3473438
0.32812689
0.30420266
0.27538929
0.24154034
0.20247807
0.1580053
0.10792174
0.052016173
-0.0099569768
-0.078301157
-0.1533837
-0.23565072
-0.32565709
-0.42408709
-0.53176811
-0.64970784
-0.77916277
-0.9217112
-1.0793091
-1.2543626
-1.449817
-1.669242
-1.9169427
-2.1980329
-2.518427
-2.8849285
-3.3054316
-3.789069
-4.3460745
-4.9870845
-5.7223775
-6.5608663
-7.5073181
-8.5594236
-9.7070193
-10.932655
-12.226746
-13.583356
-14.951334
-16.266921
-17.478355
-18.664711
-19.34484
-20.503379
-21.825124
-22.676806
-23.902884
-25.297975
-27.690727
-31.52316
-37.334841
-43.671036
-48.933716
-51.987266
-51.9072
-49.133864
-43.995255
-37.875287
-28.194369
-25.675577
-23.659218
-22.01866
-21.033158
-20.378333
-19.910367
-19.580481
-19.353891
-19.204018
-19.111556
-19.062833
-19.047497
-19.057501
-19.086601
-19.129797
-19.18302
-19.243041
-19.307409
-19.373551
-19.440058
-19.505453
-19.568723
-19.628979
-19.685594
-19.738075
-19.786093
-19.829422
-19.868036
-19.90183
-19.930864
-19.955222
-19.975053
-19.990532
-20.001757
-20.009002
-20.012375
-20.011493
0.44067271
0.43715988
0.42704449
0.41445109
0.39725753
0.37583303
0.35001978
0.31969302
0.28470539
0.2449073
0.20016165
0.15032282
0.095221505
0.034654825
-0.031627949
-0.10395416
-0.18275091
-0.2685526
-0.36202592
-0.46403068
-0.57569232
-0.69846969
-0.83422574
-0.98533032
-1.15478
-1.3463011
-1.5644989
-1.814988
-2.1043737
-2.4403665
-2.8322219
-3.2912289
-3.8309689
-4.4665574
-5.2133296
-6.0859726
-7.0942579
-8.2359725
-9.5030282
-10.881971
-12.346928
-13.896747
-15.489763
-17.028367
-18.270594
-19.520537
-20.465879
-21.982043
-23.102721
-23.929411
-25.135911
-26.640244
-28.640887
-32.37942
-37.566407
-43.321055
-48.226562
-51.153437
-51.378506
-48.815448
-44.124347
-38.054536
-28.505294
-25.76873
-23.560824
-21.887399
-20.885066
-20.224714
-19.759007
-19.44358
-19.22953
-19.093528
-19.016221
-18.9832
-18.983516
-19.008735
-19.052255
-19.108909
-19.174318
-19.245135
-19.319766
-19.394168
-19.467842
-19.539358
-19.607676
-19.672003
-19.731756
-19.786564
-19.836201
-19.880561
-19.919653
-19.953503
-19.982255
-20.006063
-20.025163
-20.039747
-20.050003
-20.056329
-20.058817
-20.056728
0.50768185
0.50494896
0.49592666
0.48499243
0.46987953
0.45102349
0.42828343
0.40155694
0.37073795
0.3357316
0.29646267
0.25285825
0.20484217
0.15232396
0.095174487
0.03320622
-0.033835524
-0.106287
-0.18461479
-0.26948368
-0.36181407
-0.4628464
-0.5742511
-0.6982772
-0.83788272
-0.99684055
-1.1799344
-1.3931497
-1.6436371
-1.939846
-2.2921274
-2.713596
-3.2213943
-3.8368155
-4.5830449
-5.483254
-6.5575522
-7.8076335
-9.2120543
-10.750521
-12.377169
-14.109758
-16.07368
-17.774122
-19.273564
-20.539671
-21.948786
-23.125821
-24.441356
-24.949995
-26.071155
-27.396547
-29.053132
-32.202606
-36.373356
-41.12419
-44.981144
-47.499681
-47.793096
-45.836885
-41.812783
-36.515459
-27.729498
-25.417252
-23.016469
-21.471251
-20.549874
-19.938401
-19.506666
-19.244643
-19.054748
-18.943916
-18.891161
-18.881403
-18.903546
-18.949031
-19.011066
-19.084746
-19.165055
-19.249239
-19.334775
-19.419222
-19.501238
-19.579617
-19.653473
-19.722147
-19.785173
-19.84231
-19.893466
-19.938664
-19.978011
-20.011632
-20.039784
-20.062702
-20.080712
-20.094054
-20.103015
-20.108128
-20.109459
-20.105784
0.57755698
0.57563955
0.5677372
0.55849847
0.54550696
0.52925468
0.50961634
0.48652142
0.45991177
0.42974364
0.39600393
0.35870622
0.31787528
0.27353174
0.22568135
0.17431361
0.11938913
0.060801952
-0.0016727011
-0.068426491
-0.14007304
-0.21753395
-0.30218444
-0.39603729
-0.50187758
-0.62337861
-0.76538029
-0.93408912
-1.1368774
-1.3824955
-1.6820226
-2.0498915
-2.506326
-3.081023
-3.8102706
-4.7276803
-5.8631673
-7.2372831
-8.7757764
-10.670232
-12.417863
-14.484849
-16.874362
-19.203644
-20.870165
-22.430602
-23.547517
-25.179711
-26.027374
-25.571599
-27.123882
-27.779937
-29.303751
-31.601856
-34.637075
-37.410945
-38.566374
-41.770597
-42.198951
-40.825568
-37.595669
-33.470157
-26.470591
-23.926487
-22.329325
-20.879038
-20.08002
-19.548993
-19.190073
-18.962745
-18.823229
-18.75317
-18.735635
-18.757433
-18.808152
-18.879268
-18.964381
-19.058179
-19.156458
-19.256194
-19.354892
-19.450551
-19.541844
-19.627739
-19.707512
-19.780673
-19.847014
-19.90639
-19.958874
-20.00461
-20.043835
-20.076851
-20.103979
-20.125575
-20.142033
-20.153708
-20.16097
-20.164526
-20.164347
-20.158723
0.6498382
0.64878193
0.64202775
0.63452137
0.62366421
0.61001749
0.59347388
0.57399753
0.55157147
0.52620573
0.49795658
0.46692393
0.43322876
0.39700944
0.35843572
0.31770674
0.27502065
0.23053286
0.18432413
0.13637087
0.086473616
0.034140094
-0.021582187
-0.082323665
-0.1505364
-0.22962505
-0.32437931
-0.4411527
-0.58717199
-0.77082571
-1.0028515
-1.296866
-1.6735868
-2.1715125
-2.8506335
-3.764106
-4.9711444
-6.550678
-7.4100558
-10.44399
-13.249893
-15.011788
-17.942109
-21.129885
-23.391501
-24.901556
-25.573767
-27.384063
-20.381702
-18.74224
-26.943598
-28.194935
-29.05954
-30.869041
-32.804196
-34.623036
-33.723553
-35.356826
-36.223753
-35.780908
-33.504842
-29.367014
-24.360459
-22.238346
-21.307391
-20.1542
-19.496908
-19.068403
-18.792637
-18.628264
-18.545761
-18.525645
-18.552241
-18.613328
-18.699008
-18.801284
-18.913892
-19.03172
-19.150846
-19.268326
-19.381972
-19.49007
-19.591477
-19.685391
-19.771357
-19.849114
-19.918624
-19.980002
-20.033452
-20.079335
-20.117992
-20.149887
-20.17544
-20.195153
-20.20952
-20.218996
-20.224065
-20.225648
-20.22357
-20.215583
0.72408313
0.72395042
0.71838481
0.71261001
0.70388502
0.69282362
0.67933481
0.6634111
0.64507149
0.62438581
0.60148105
0.57653263
0.54975748
0.52143092
0.49190615
0.46160202
0.43097022
0.40047457
0.37058016
0.34172067
0.31421137
0.28812661
0.26311934
0.23812897
0.21120242
0.17940445
0.13809539
0.080514098
-0.00019558431
-0.11057688
-0.25941233
-0.45889226
-0.72588239
-1.0957994
-1.6600125
-2.4853462
-3.6271881
-3.9307991
-2.9763198
-7.3353109
-12.432554
-14.430536
-18.088896
-22.488681
-25.133006
-26.831644
-27.610633
-29.035486
-24.22118
-20.106983
-28.168303
-28.583975
-29.097148
-30.290258
-31.364578
-32.522528
-31.620155
-31.042861
-30.798339
-29.20155
-27.010466
-24.543963
-21.981914
-21.181202
-20.081016
-19.29102
-18.814409
-18.510802
-18.329709
-18.241941
-18.225923
-18.264596
-18.343591
-18.451452
-18.578719
-18.717742
-18.862428
-19.008007
-19.150864
-19.288325
-19.418532
-19.540123
-19.652323
-19.754644
-19.846882
-19.929143
-20.001563
-20.064535
-20.118465
-20.163902
-20.20138
-20.231497
-20.254826
-20.271984
-20.283619
-20.29025
-20.292559
-20.29168
-20.287223
-20.276425
0.79982459
0.80072205
0.79638102
0.7923391
0.78572793
0.77720668
0.76668833
0.75419085
0.73977305
0.72355792
0.70573047
0.6865394
0.66630681
0.64545522
0.62451767
0.6041279
0.58501484
0.56800339
0.55400683
0.54399171
0.53890381
0.53956401
0.54647247
0.55939336
0.5770875
0.59731822
0.61564971
0.6241603
0.61599124
0.58722072
0.53522526
0.45302858
0.33338732
0.1335295
-0.26951314
-0.92515685
-1.9396422
-2.4442495
-1.7542093
-5.6154744
-8.1988635
-9.9767908
-16.884502
-22.42606
-25.983955
-28.14528
-29.439083
-30.781752
-30.686296
-23.506458
-28.868527
-29.085355
-29.620692
-30.364376
-30.38651
-30.163485
-29.32053
-28.320035
-26.544341
-24.785368
-22.83814
-21.11105
-20.307518
-19.581564
-18.847305
-18.376024
-18.075419
-17.896519
-17.813637
-17.809567
-17.867929
-17.973541
-18.113018
-18.275167
-18.450694
-18.632104
-18.813501
-18.990512
-19.159868
-19.319348
-19.467527
-19.603529
-19.726999
-19.837841
-19.936263
-20.022649
-20.097522
-20.161484
-20.215227
-20.2595
-20.295027
-20.322562
-20.342861
-20.356693
-20.364836
-20.367888
-20.366761
-20.36284
-20.355426
-20.341237
0.87636937
0.87857162
0.87562709
0.87330806
0.86877205
0.86270711
0.85502837
0.84577858
0.83504897
0.82300309
0.80987434
0.79598604
0.78176421
0.76776489
0.75468695
0.74337931
0.73486496
0.7303535
0.73123912
0.73909368
0.75563203
0.78263642
0.82176416
0.87401503
0.93928339
1.016378
1.1009581
1.1816853
1.250584
1.3036221
1.3526722
1.4086702
1.4459901
1.4591059
1.2665286
0.82704909
0.020833743
-1.1825434
-0.75706003
-3.7423157
-7.1006963
-8.6750311
-14.863297
-21.382215
-25.789682
-28.986378
-31.411982
-33.245602
-34.531275
-32.518074
-31.883118
-31.438744
-31.696049
-31.663634
-30.862203
-29.289841
-26.965512
-24.964385
-23.429006
-21.837975
-20.580323
-19.641705
-18.764638
-18.226391
-17.769167
-17.485284
-17.316931
-17.244308
-17.25508
-17.337361
-17.476187
-17.656462
-17.864546
-18.088734
-18.319363
-18.548861
-18.77159
-18.983542
-19.181979
-19.365269
-19.532533
-19.683516
-19.818427
-19.937621
-20.041822
-20.131774
-20.208372
-20.272534
-20.325206
-20.367395
-20.400041
-20.424061
-20.440377
-20.449977
-20.453738
-20.452367
-20.447032
-20.439373
-20.428304
-20.410016
0.95412389
0.95732469
0.95580133
0.955147
0.95260507
0.94887418
0.94386704
0.93764303
0.93030424
0.92204521
0.91314756
0.90399498
0.89509434
0.88710984
0.88089138
0.87749877
0.87823411
0.88466997
0.89868722
0.92251832
0.95876953
1.0104181
1.0806588
1.1723087
1.2872859
1.426427
1.5853425
1.7423687
1.895141
2.0170795
2.1515926
2.3373859
2.5784031
2.8647716
2.9185941
2.8013227
2.3899315
1.5852348
-0.2660795
-3.4042239
-7.5509965
-10.618725
-14.48396
-19.844499
-24.949025
-29.718623
-34.630633
-38.127894
-38.593453
-34.62244
-35.278672
-35.764279
-35.462207
-34.43364
-32.548952
-29.145483
-24.985285
-21.451845
-19.460519
-18.738808
-18.224003
-17.732622
-17.344067
-17.06557
-16.80291
-16.629407
-16.549157
-16.560878
-16.658292
-16.828403
-17.053959
-17.317424
-17.603061
-17.897573
-18.19043
-18.473855
-18.742408
-18.992549
-19.222257
-19.430698
-19.617724
-19.783866
-19.929949
-20.056987
-20.16619
-20.258844
-20.336161
-20.399457
-20.449978
-20.488983
-20.517632
-20.53703
-20.548291
-20.5526
-20.550954
-20.544168
-20.533728
-20.521528
-20.505956
-20.482777
1.0323452
1.0369301
1.036676
1.0374754
1.0368201
1.0352859
1.032757
1.0292972
1.0250098
1.0201032
1.0148937
1.0097986
1.0053751
1.0023707
1.0017616
1.0047772
1.012938
1.0281217
1.0526649
1.0894542
1.1420381
1.2147981
1.3128171
1.4415297
1.6073084
1.8162161
2.0673961
2.3378424
2.5554218
2.7162748
2.9002538
3.2208656
3.7198766
4.2981235
4.7395223
5.0277886
5.0792469
4.635075
3.7391079
2.1922476
-1.1811636
-5.7907759
-12.628879
-18.834581
-23.516343
-29.767297
-40.495637
-48.041419
-48.424896
-43.341535
-39.605832
-39.126196
-39.444903
-38.808429
-34.886013
-29.32587
-22.203836
-17.189001
-15.660282
-15.999965
-16.382972
-16.444917
-16.293979
-16.111314
-15.918182
-15.789625
-15.760343
-15.839331
-16.019409
-16.281721
-16.603093
-16.9606
-17.334393
-17.708562
-18.071272
-18.414434
-18.732976
-19.024107
-19.286748
-19.521092
-19.727974
-19.908847
-20.065335
-20.199219
-20.312291
-20.406357
-20.483122
-20.54423
-20.591267
-20.625764
-20.649123
-20.66264
-20.667657
-20.665508
-20.657267
-20.643896
-20.627298
-20.609626
-20.588545
-20.559524
1.1113495
1.1167925
1.1177075
1.1198923
1.1210345
1.1215591
1.1213062
1.1203319
1.118737
1.1167169
1.1145857
1.1127692
1.1118528
1.1126371
1.1161686
1.1237582
1.137046
1.1581199
1.1896547
1.2350419
1.2986804
1.3863893
1.505008
1.6626749
1.8723663
2.1495454
2.5043036
2.8792887
3.1722802
3.3501626
3.5232435
3.976515
4.8268566
5.7420795
6.9731098
7.4179917
7.8152752
7.8452647
7.1855778
5.379589
3.8614672
1.2907903
-11.11665
-19.605504
-22.391559
-25.316316
-50.921955
-67.466949
-63.702109
-48.046211
-43.195499
-42.657066
-46.820243
-46.276657
-40.542697
-31.912526
-18.260842
-9.6049736
-10.132178
-13.975014
-15.560034
-15.889854
-15.709176
-15.379242
-15.101065
-14.940551
-14.926837
-15.061871
-15.327525
-15.693099
-16.124805
-16.591129
-17.066228
-17.530717
-17.971369
-18.379946
-18.752114
-19.086224
-19.382605
-19.642744
-19.86878
-20.063262
-20.228759
-20.367911
-20.483233
-20.577035
-20.651593
-20.708915
-20.750909
-20.779376
-20.795964
-20.80218
-20.799571
-20.789635
-20.773469
-20.752211
-20.728274
-20.704058
-20.67628
-20.640284
1.1906348
1.1962042
1.198883
1.2020712
1.2048996
1.2073496
1.209185
1.2104343
1.2111685
1.2115434
1.2118392
1.2124679
1.2140151
1.2172846
1.2233068
1.2333668
1.249098
1.2726348
1.3067309
1.3549131
1.4220684
1.5151792
1.6420609
1.8118421
2.0461943
2.3753748
2.7957233
3.197166
3.4813331
3.6279568
3.7925157
4.5047845
5.7878466
7.347181
9.1462552
10.054289
12.236001
12.858762
12.53496
11.063841
8.7900052
14.613772
-3.6010024
-20.70082
-21.558492
-18.557661
-55.597733
-76.935682
-84.448333
-74.903032
-51.769882
-42.68059
-42.872619
-57.751038
-54.690661
-39.947672
-8.4352978
9.8288007
-1.8180819
-14.49247
-16.25382
-16.102375
-15.396352
-14.740541
-14.270642
-14.02326
-14.004809
-14.198277
-14.565847
-15.056708
-15.621481
-16.216849
-16.809532
-17.376441
-17.903279
-18.382306
-18.810674
-19.188555
-19.518195
-19.802866
-20.046299
-20.252371
-20.424741
-20.566986
-20.682365
-20.773837
-20.844147
-20.895741
-20.930859
-20.95156
-20.959727
-20.957083
-20.945336
-20.926104
-20.900531
-20.86997
-20.83738
-20.80537
-20.7695
-20.725204
1.2697992
1.2752311
1.2792484
1.2835906
1.2880318
1.2923454
1.2961266
1.2993706
1.3020852
1.304367
1.3064443
1.3086901
1.3116456
1.3160421
1.3228027
1.3330848
1.3483622
1.3705587
1.4021054
1.4460071
1.506781
1.5919632
1.707746
1.8527503
2.0517272
2.3799178
2.881249
3.3191475
3.5999018
3.2586305
2.9541609
4.0794815
6.5380807
9.1022916
11.461664
13.409537
17.425702
17.25962
15.007115
13.276407
9.8811072
24.313383
30.700531
20.147572
10.935845
118.0521
-220.69067
977.60428
2996.3703
3282.867
2203.4188
921.48367
189.24856
-76.091298
-58.316815
-71.480372
60.775712
78.238094
3.6404709
-24.061598
-20.316633
-16.969348
-15.151469
-14.015133
-13.298059
-12.944736
-12.929258
-13.206778
-13.714
-14.368418
-15.099876
-15.85112
-16.580868
-17.263064
-17.883595
-18.436621
-18.921894
-19.342454
-19.703184
-20.009591
-20.267383
-20.481908
-20.658132
-20.800571
-20.913235
-20.999794
-21.063432
-21.107038
-21.133179
-21.144173
-21.142097
-21.12885
-21.106334
-21.076227
-21.039665
-20.998254
-20.955549
-20.914347
-20.868695
-20.814524
1.3482909
1.3532724
1.358459
1.3640471
1.369957
1.3763295
1.3819127
1.3869676
1.3913651
1.3951245
1.3984014
1.4014896
1.4048388
1.4090345
1.4148177
1.4231204
1.4350808
1.4521065
1.4758183
1.5078051
1.5511524
1.6123268
1.684953
1.741194
1.852914
2.2338073
2.6311788
2.9591367
3.1762987
2.5321564
1.6006519
2.6840927
6.7679092
10.58747
13.992829
17.035593
21.698407
22.441004
22.113579
19.407618
12.043257
27.573309
170.98022
741.54897
1192.2328
978.3712
3512.0937
6869.8384
8310.1811
7652.3964
6648.6811
6318.5896
5761.9938
4680.6726
2638.8049
1168.3954
390.11427
243.79636
-41.340016
-11.43353
-22.313591
-16.41949
-14.329488
-12.914162
-12.029665
-11.607201
-11.624506
-12.039618
-12.756911
-13.632661
-14.576468
-15.516635
-16.405028
-17.214655
-17.934163
-18.561807
-19.101747
-19.561163
-19.948433
-20.271849
-20.539342
-20.757951
-20.933983
-21.072909
-21.179505
-21.258052
-21.312221
-21.345268
-21.360061
-21.359178
-21.344878
-21.319206
-21.284232
-21.241568
-21.192338
-21.138397
-21.083957
-21.031979
-20.974582
-20.908581
1.4253302
1.4297405
1.4359128
1.4429441
1.4506421
1.4586596
1.4663258
1.4730931
1.4789951
1.4839197
1.4879208
1.4911805
1.4940091
1.4968056
1.5000845
1.504466
1.5106004
1.5191255
1.5304159
1.5439375
1.5600542
1.5791041
1.5725101
1.4858381
1.4384849
1.7432581
1.9008559
1.3033872
0.86048051
1.6976411
1.3471729
2.9085649
6.997619
11.539759
16.073131
20.577173
23.622757
25.39014
29.107133
33.635864
-18.896825
-87.700014
616.37669
2301.92
5404.6219
6159.4164
6076.9412
6598.7196
7066.6769
6886.1673
6522.5364
6341.9684
6329.792
6665.6144
6701.2693
3697.1998
277.70163
133.02099
-277.24045
-22.92689
-12.569767
-13.236516
-12.659748
-11.36509
-10.390531
-9.9200004
-10.037587
-10.647013
-11.704121
-12.870456
-14.083002
-15.249584
-16.318817
-17.264328
-18.083181
-18.781084
-19.368966
-19.859652
-20.265814
-20.599119
-20.869805
-21.086729
-21.257448
-21.388325
-21.484876
-21.551851
-21.593363
-21.612965
-21.613796
-21.598681
-21.570047
-21.530035
-21.480803
-21.423886
-21.360296
-21.292067
-21.22417
-21.159613
-21.088235
-21.008071
1.4999828
1.5035103
1.5107079
1.5195221
1.5292468
1.53943
1.5491599
1.557733
1.5650836
1.5710148
1.5754097
1.5783285
1.5799032
1.5803331
1.5798884
1.5788371
1.5772898
1.5750323
1.5710809
1.5627748
1.5470768
1.5154699
1.4201899
1.1921744
0.94305266
0.83335514
0.6201502
1.1553016
14.027927
10.541973
3.2285241
4.264485
7.5269602
11.263188
15.935192
24.160935
31.790142
32.058017
25.910955
16.829597
22.141765
742.87606
3386.2749
5456.2801
5843.779
5915.8973
6028.9539
6249.2438
6427.7465
6390.3384
6256.2182
6151.3456
6117.6632
6127.9551
5931.9651
5218.8637
5146.1672
4468.3516
422.40456
103.47427
14.659206
-12.221111
-12.234768
-10.118163
-8.5896427
-7.9064379
-8.1349699
-9.1214902
-10.547767
-12.129221
-13.682279
-15.112631
-16.374964
-17.456205
-18.365932
-19.121953
-19.744691
-20.25405
-20.667762
-21.001013
-21.266409
-21.474379
-21.63359
-21.751122
-21.833037
-21.884433
-21.909717
-21.912675
-21.896742
-21.8649
-21.819703
-21.763342
-21.698081
-21.625269
-21.545646
-21.46134
-21.378157
-21.299092
-21.211189
-21.114241
1.5706842
1.5731792
1.581636