/*--------------------------------*- C++ -*----------------------------------*\
  =========                 |
  \\      /  F ield         | OpenFOAM: The Open Source CFD Toolbox
   \\    /   O peration     | Website:  https://openfoam.org
    \\  /    A nd           | Version:  9
     \\/     M anipulation  |
\*---------------------------------------------------------------------------*/
FoamFile
{
    format      ascii;
    class       surfaceScalarField;
    location    "0.74";
    object      phi;
}
// * * * * * * * * * * * * * * * * * * * * * * * * * * * * * * * * * * * * * //

dimensions      [0 3 -1 0 0 0 0];

internalField   nonuniform List<scalar> 
19800
(
-9.5747594e-05
0.00015850123
-0.00015528603
0.00015875863
-0.00021481814
0.00015955546
-0.00027420935
0.00016027013
-0.00033346853
0.0001610973
-0.00039252286
0.00016191777
-0.00045132055
0.00016272996
-0.00050980386
0.00016347726
-0.00056787629
0.00016410869
-0.00062546429
0.00016459449
-0.00068247842
0.00016488768
-0.00073878799
0.00016494615
-0.00079430241
0.00016475422
-0.00084890729
0.0001642349
-0.00090250038
0.00016338604
-0.0009549737
0.00016217605
-0.0010062429
0.00016061904
-0.0010562413
0.00015870836
-0.001104908
0.00015645299
-0.0011522061
0.00015385535
-0.0011981382
0.0001509138
-0.0012427279
0.00014768463
-0.0012860256
0.00014422627
-0.0013281245
0.00014054559
-0.0013691571
0.00013666864
-0.001409271
0.00013258539
-0.0014486307
0.00012828964
-0.0014874224
0.00012370235
-0.0015258378
0.00011871679
-0.0015640415
0.00011319418
-0.0016021195
0.00010700167
-0.0016400263
0.00010000126
-0.0016774572
9.1957148e-05
-0.0017137212
8.2643984e-05
-0.001747737
7.1860634e-05
-0.0017780115
5.9020939e-05
-0.0018025725
4.3378005e-05
-0.0018184815
2.3667356e-05
-0.0018255818
-1.5469913e-06
-0.0018205872
-2.7511371e-05
-0.0017984308
-6.2372105e-05
-0.0017548233
-0.00010546441
-0.001684579
-0.00015835474
-0.0015812494
-0.00022318653
-0.0014367991
-0.00030255617
-0.0012414557
-0.00039936565
-0.00098401792
-0.00051586504
-0.00065260053
-0.00065258714
-0.00023643855
-0.00080784828
0.00026781836
-0.0009703831
0.00086334149
-0.0011403449
0.0015222541
-0.0012710064
0.0022259767
-0.0013707999
0.0029504792
-0.0014254575
0.0036668514
-0.0014226743
0.0043307815
-0.0013365457
0.0048944679
-0.0011605637
0.0053121171
-0.00090000522
0.0055496879
-0.00058156602
0.005613069
-0.00026750812
0.005548161
-1.7662624e-05
0.0053922506
0.00020051504
0.0051672503
0.00038277647
0.004895198
0.00053781332
0.0045945875
0.00066316142
0.0042814556
0.00075730987
0.0039678931
0.00082260518
0.0036623235
0.00086278834
0.0033701707
0.00088153279
0.0030943329
0.00088213758
0.0028357401
0.00086753482
0.0025940284
0.00084044806
0.0023682288
0.00080364629
0.0021572148
0.00075998628
0.0019599516
0.00071218707
0.0017755909
0.00066258276
0.0016034625
0.00061294061
0.0014429942
0.00056445571
0.0012936895
0.0005178277
0.0011550757
0.00047359527
0.0010267555
0.0004318982
0.00090832689
0.0003927927
0.00079936664
0.00035630015
0.00069946232
0.00032232358
0.00060821788
0.00029076657
0.00052521673
0.0002615734
0.00045009399
0.00023461357
0.00038243914
0.00020972919
0.00032182393
0.00018680164
0.00026781019
0.00016576954
0.00021997442
0.00014663839
0.00017797338
0.00012936378
0.00014146979
0.00011375787
0.00011013784
9.9813553e-05
8.3345625e-05
8.7386212e-05
6.0424255e-05
7.6341297e-05
4.0766767e-05
6.6746516e-05
2.3708247e-05
5.8947004e-05
8.9587035e-06
5.2494086e-05
4.6878843e-05
-9.506211e-05
0.0002177481
-0.00015434942
0.00021806914
-0.00021361879
0.00021881631
-0.00027286219
0.0002195229
-0.00033204696
0.00022027579
-0.00039108163
0.00022095847
-0.00044991804
0.00022156106
-0.00050848687
0.00022205031
-0.00056671816
0.00022234189
-0.00062450741
0.00022238351
-0.00068176152
0.00022214802
-0.00073837449
0.00022155916
-0.00079421608
0.00022059874
-0.00084917882
0.00021920275
-0.0009031552
0.00021736215
-0.00095603705
0.00021505994
-0.0010077262
0.00021231082
-0.0010581314
0.00020911157
-0.0011071981
0.00020551881
-0.0011548847
0.00020154248
-0.0012011992
0.00019722542
-0.00124619
0.00019267181
-0.0012899162
0.00018795047
-0.0013324831
0.00018310827
-0.0013740317
0.0001782119
-0.0014147402
0.00017329185
-0.0014548067
0.00016835591
-0.0014944466
0.00016334001
-0.0015338656
0.0001581329
-0.0015732432
0.00015257053
-0.0016126619
0.00014641997
-0.001652023
0.00013936242
-0.001691018
0.00013095394
-0.001729086
0.00012071404
-0.0017653203
0.00010809382
-0.0017984128
9.2111738e-05
-0.0018268037
7.1771655e-05
-0.0018489533
4.5821439e-05
-0.0018637151
1.3215033e-05
-0.0018647287
-2.6500285e-05
-0.00185048
-7.662246e-05
-0.0018170347
-0.00013891129
-0.0017594959
-0.00021589664
-0.0016717571
-0.00031092878
-0.0015458347
-0.00042848244
-0.0013713445
-0.00057385961
-0.0011352315
-0.00075197996
-0.00082136311
-0.00096645749
-0.00041327516
-0.0012159395
9.9953817e-05
-0.0014836121
0.00071480111
-0.0017551911
0.001385612
-0.0019418225
0.0021071669
-0.0020923615
0.0028695757
-0.0021878693
0.0036669787
-0.0022200803
0.0044315856
-0.0021011553
0.0050985116
-0.0018274869
0.005595032
-0.0013965255
0.0058667025
-0.00085324091
0.0059216459
-0.00032245252
0.0058167385
8.7251592e-05
0.0056278233
0.00038943239
0.0053696394
0.00064095632
0.0050596744
0.0008477819
0.0047191386
0.0010037048
0.0043671526
0.0011092949
0.0040182484
0.0011715013
0.0036825518
0.0011984754
0.0033662244
0.0011978604
0.0030720465
0.0011763175
0.0028002795
0.0011393055
0.0025496167
0.001091108
0.0023181053
0.0010351552
0.0021037694
0.00097432211
0.0019049224
0.00091103491
0.0017202619
0.00084724131
0.0015487963
0.00078440255
0.0013897268
0.00072351861
0.0012423538
0.00066519619
0.0011060625
0.00060988217
0.00098029361
0.00055766433
0.00086452676
0.00050856402
0.00075826279
0.00046256266
0.00066102635
0.00041956062
0.0005723738
0.00037942014
0.0004918823
0.00034206197
0.00041917984
0.00030731919
0.00035384114
0.00027507463
0.00029544767
0.0002451987
0.00024362293
0.00021759911
0.00019798786
0.00019227747
0.00015822057
0.00016913695
0.00012380834
0.00014817164
9.4380557e-05
0.00012924134
6.9451083e-05
0.00011231197
4.8413827e-05
9.7380447e-05
3.0766971e-05
8.4394757e-05
1.5806633e-05
7.3913507e-05
3.1942375e-06
6.5114139e-05
5.7168694e-05
-9.4588089e-05
0.00027690793
-0.00015387678
0.00027734947
-0.00021314981
0.00027809852
-0.00027239418
0.00027876117
-0.00033148062
0.00027936952
-0.00039053701
0.00028001185
-0.00044948074
0.00028050894
-0.00050823341
0.00028080484
-0.00056666339
0.00028077056
-0.00062472084
0.0002804465
-0.00068229672
0.00027972447
-0.00073925244
0.0002785166
-0.00079549131
0.00027684141
-0.00085088648
0.00027459606
-0.00090529387
0.00027176886
-0.00095863198
0.00026839948
-0.0010107427
0.00026441954
-0.0010615639
0.00025993148
-0.0011110023
0.00025495834
-0.0011590057
0.00024954455
-0.0012055701
0.0002437872
-0.0012507085
0.00023780926
-0.0012945078
0.0002317473
-0.001337066
0.000225662
-0.0013785613
0.0002197044
-0.0014191848
0.00021391469
-0.001459184
0.00020835372
-0.001498812
0.00020296579
-0.0015383261
0.00019764592
-0.0015779484
0.0001921929
-0.0016178041
0.00018627621
-0.0016578918
0.00017945061
-0.0016980896
0.0001711519
-0.0017380238
0.0001606482
-0.0017768931
0.00014696248
-0.001813894
0.00012911239
-0.0018475135
0.00010539308
-0.0018764591
7.4769667e-05
-0.0018987797
3.5535727e-05
-0.0019101141
-1.5167579e-05
-0.0019083545
-7.8382641e-05
-0.0018902169
-0.00015704969
-0.0018515457
-0.00025457066
-0.0017870102
-0.00037546647
-0.0016892984
-0.00052619507
-0.0015476923
-0.00071546771
-0.0013455297
-0.00095414413
-0.0010602455
-0.0012517415
-0.00067201594
-0.0016041702
-0.00017105357
-0.0019845761
0.00043484586
-0.0023610895
0.0011056016
-0.0026125797
0.0018982235
-0.0028849873
0.0027927332
-0.0030823792
0.0037900167
-0.0032173621
0.0047125734
-0.003023714
0.0054916329
-0.0026065464
0.0060354065
-0.0019402972
0.0062619887
-0.0010798213
0.0062376206
-0.00029808677
0.0060911207
0.00023375018
0.0058670654
0.00061349057
0.0055690229
0.00093900122
0.005214712
0.0012020901
0.0048313576
0.0013870548
0.0044407513
0.0014998991
0.0040582937
0.0015539607
0.0036942561
0.0015625139
0.0033544608
0.0015376561
0.0030412651
0.0014895108
0.0027546399
0.0014259337
0.00249305
0.0013526986
0.0022542253
0.0012739771
0.0020357358
0.0011928102
0.0018353332
0.0011114335
0.0016511188
0.0010314515
0.0014815245
0.00095399201
0.0013252783
0.00087976168
0.001181287
0.00080918592
0.001048695
0.00074248165
0.00092668978
0.00067966968
0.00081464865
0.00062060967
0.00071198611
0.00056522239
0.00061819412
0.00051335272
0.00053279263
0.00046482134
0.00045538618
0.00041946706
0.00038556581
0.00037714074
0.00032299934
0.00033764856
0.00026731804
0.00030088616
0.00021805811
0.00026685813
0.00017484299
0.00023548887
0.00013728153
0.00020669973
0.00010503963
0.00018041411
7.7661941e-05
0.00015661686
5.4700468e-05
0.00013527623
3.5626773e-05
0.00011645788
2.0193153e-05
9.9834249e-05
7.4174432e-06
8.669758e-05
-2.9772579e-06
7.5513371e-05
6.525411e-05
-9.417061e-05
0.00033594404
-0.00015329557
0.00033648371
-0.00021246169
0.00033725818
-0.0002716874
0.00033799249
-0.00033097029
0.00033864916
-0.00039019287
0.0003392384
-0.00044931306
0.00033963209
-0.00050826328
0.00033975356
-0.00056703189
0.00033954354
-0.00062545642
0.00033887162
-0.00068343603
0.00033770492
-0.0007408747
0.00033595872
-0.00079762163
0.00033358643
-0.00085353453
0.00033050666
-0.00090848756
0.00032672229
-0.00096232441
0.00032223431
-0.0010149362
0.00031702943
-0.0010661745
0.00031117088
-0.0011159409
0.00030472426
-0.0011642088
0.00029781059
-0.0012109545
0.00029053261
-0.0012561998
0.00028305389
-0.0012999645
0.00027550907
-0.0013424411
0.00026813611
-0.0013837761
0.00026103885
-0.0014242451
0.0002543827
-0.001464139
0.00024824633
-0.0015038072
0.00024263437
-0.0015435734
0.00023741303
-0.0015837774
0.00023239698
-0.0016247117
0.00022721062
-0.0016665899
0.0002213291
-0.001709421
0.00021398184
-0.0017529379
0.0002041636
-0.0017966574
0.00019068234
-0.0018396103
0.00017206618
-0.0018807308
0.00014651383
-0.0019181831
0.00011222238
-0.0019498525
6.7205615e-05
-0.001974053
9.0324329e-06
-0.0019879649
-6.447169e-05
-0.0019888522
-0.00015616334
-0.0019738799
-0.00026954445
-0.0019395526
-0.00040979426
-0.0018804746
-0.00058527198
-0.0017859965
-0.00080994628
-0.001637829
-0.0011023132
-0.0014180214
-0.0014715479
-0.0011165639
-0.0019056258
-0.00068016727
-0.0024209739
3.8497451e-05
-0.0030797548
0.00099670968
-0.0035707915
0.0022095053
-0.0040977832
0.0035849997
-0.0044578729
0.0050343515
-0.0046667122
0.0061471291
-0.0041364928
0.0069160212
-0.0033754373
0.007343334
-0.0023676094
0.0072354057
-0.00097189259
0.0067693069
0.00016801077
0.0064334411
0.00056961003
0.0061572262
0.00088970169
0.0058195748
0.0012766552
0.005400827
0.0016208435
0.0049477874
0.0018400935
0.0044978698
0.0019498118
0.0040705734
0.0019812572
0.0036743053
0.0019587851
0.0033118615
0.0019001045
0.0029830219
0.0018183455
0.0026858987
0.0017230529
0.0024177242
0.0016208672
0.0021754119
0.0015162916
0.0019558929
0.0014123289
0.001756373
0.0013109552
0.0015744153
0.0012134096
0.0014079846
0.0011204246
0.0012554209
0.0010323273
0.0011153375
0.00094927001
0.00098664059
0.0008711772
0.00086852181
0.00079779318
0.00076019933
0.00072893096
0.00066105938
0.00066436364
0.00057062283
0.00060379244
0.00048837379
0.00054706977
0.00041395855
0.00049388397
0.00034702296
0.00044407885
0.00028715292
0.00039751601
0.00023396849
0.00035407096
0.00018714797
0.00031368065
0.00014636618
0.00027626569
0.00011126849
0.00024179456
8.1460793e-05
0.00021022754
5.6509716e-05
0.00018156624
3.600188e-05
0.00015578616
1.933695e-05
0.00013312698
6.2928939e-06
0.00011288005
-3.1490092e-06
9.613902e-05
-1.1295183e-05
8.3660747e-05
7.0083891e-05
-9.3583846e-05
0.00039485862
-0.00015265083
0.00039554292
-0.00021183189
0.00039644485
-0.00027109002
0.0003972462
-0.00033040768
0.00039796895
-0.00038979339
0.000398626
-0.00044915845
0.00039899504
-0.00050848777
0.00039908668
-0.00056765193
0.00039870872
-0.00062657429
0.00039779459
-0.00068511696
0.00039625102
-0.00074316888
0.00039400918
-0.0008005566
0.00039097112
-0.00085713646
0.00038708644
-0.00091275704
0.00038234128
-0.00096723684
0.0003767121
-0.001020438
0.00037023155
-0.0010722251
0.00036295851
-0.0011224561
0.00035495406
-0.001171055
0.00034640989
-0.0012179807
0.00033745944
-0.0012632243
0.00032829664
-0.0013069028
0.00031918636
-0.0013490992
0.0003103332
-0.001390078
0.00030201814
-0.0014301292
0.00029443351
-0.0014695926
0.00028771058
-0.0015088562
0.00028190059
-0.0015484137
0.00027697212
-0.0015887436
0.00027272591
-0.0016303124
0.00026877843
-0.0016734667
0.00026448337
-0.0017184867
0.00025900071
-0.0017654054
0.00025108036
-0.0018140051
0.00023928203
-0.0018636918
0.00022175381
-0.0019133439
0.00019616523
-0.0019614701
0.00016034744
-0.0020062791
0.00011201429
-0.002046053
4.8805384e-05
-0.0020783562
-3.2170198e-05
-0.0021017232
-0.00013279655
-0.0021150791
-0.00025618755
-0.0021175353
-0.00040733661
-0.0021064301
-0.00059637521
-0.0020765181
-0.00083985736
-0.0020269498
-0.001151882
-0.0019557434
-0.0015427531
-0.0017601577
-0.0021012082
-0.0010949295
-0.003086202
0.00030918243
-0.0044838677
0.0020932736
-0.0053548814
0.003927913
-0.0059324213
0.0058336395
-0.0063636006
0.0078251584
-0.0066582328
0.0090640218
-0.005375359
0.0098175204
-0.0041289326
0.01012318
-0.002673268
0.0095927726
-0.00044149127
0.0082386637
0.0015221177
0.0071813656
0.0016269078
0.0065260796
0.0015449856
0.0060612552
0.0017414769
0.0055854511
0.0020966504
0.00506529
0.0023602569
0.0045419789
0.002473121
0.0040559778
0.0024672567
0.003620237
0.0023945256
0.0032333262
0.0022870192
0.002890338
0.0021613324
0.0025859993
0.0020273927
0.0023152071
0.0018916539
0.0020732945
0.0017582028
0.0018561335
0.0016294876
0.0016602077
0.0015068843
0.0014825648
0.0013910517
0.001320817
0.0012821716
0.0011730264
0.0011801177
0.0010376884
0.0010846155
0.00091363376
0.00099523309
0.00079991123
0.00091151756
0.00069576758
0.00083307397
0.00060059368
0.00075953452
0.00051384571
0.00069054075
0.00043515457
0.00062576446
0.00036409543
0.00056494291
0.00030036413
0.00050781212
0.00024358741
0.00045429389
0.00019344213
0.00040421403
0.00014963436
0.00035748888
0.0001118172
0.00031408837
7.965273e-05
0.00027396
5.2768709e-05
0.00023711462
3.0761526e-05
0.00020357982
1.3247523e-05
0.00017330209
-9.1936821e-08
0.00014646483
-1.0575854e-05
0.00012336542
-1.7074885e-05
0.00010263607
-2.197224e-05
8.8559547e-05
7.1215836e-05
-9.2883807e-05
0.00045361077
-0.00015185743
0.00045451906
-0.00021097222
0.0004555535
-0.00027025686
0.00045653239
-0.00032977937
0.00045749207
-0.00038938732
0.0004582301
-0.00044910664
0.00045871658
-0.00050882348
0.00045880436
-0.00056850057
0.00045838673
-0.00062801776
0.00045731611
-0.000687249
0.00045548222
-0.00074603912
0.00045279669
-0.00080422924
0.00044916126
-0.00086165445
0.00044451072
-0.00091811815
0.0004388031
-0.00097341258
0.00043200741
-0.0010273748
0.00042419501
-0.0010798087
0.00041539194
-0.001130583
0.00040572918
-0.0011795386
0.00039536786
-0.0012266375
0.00038455945
-0.0012718517
0.0003735115
-0.0013152477
0.00036258458
-0.0013569942
0.00035208195
-0.0013972919
0.00034231689
-0.0014364682
0.00033361139
-0.0014749931
0.00032623847
-0.0015134236
0.00032033359
-0.001552342
0.00031589107
-0.0015923972
0.00031277982
-0.0016342884
0.00031066811
-0.0016786797
0.0003088745
-0.0017260995
0.00030642049
-0.0017769383
0.00030191793
-0.001831192
0.00029353445
-0.0018885492
0.00027911041
-0.0019481488
0.00025576337
-0.002008602
0.00022079846
-0.0020681579
0.00017156847
-0.0021249546
0.00010560078
-0.002177608
2.0482225e-05
-0.0022249711
-8.5432235e-05
-0.0022676062
-0.00021354984
-0.0023071793
-0.0003677617
-0.0023492069
-0.00055434585
-0.0024171199
-0.00077194144
-0.0025437334
-0.0010252656
-0.0026092117
-0.0014772733
-0.0021067306
-0.002603688
-0.00050887759
-0.0046840548
0.0018286661
-0.0068214116
0.0041714147
-0.0076976301
0.0063321114
-0.0080931187
0.0084901112
-0.0085216014
0.010164611
-0.0083327326
0.011903714
-0.007114467
0.013203968
-0.0054291905
0.013806432
-0.0032757299
0.013567778
-0.00020284084
0.012414121
0.0026757711
0.010263604
0.0037774268
0.0082709235
0.0035376691
0.0067607919
0.0032516072
0.0058201019
0.0030373403
0.0051427653
0.00303759
0.0045433959
0.0030724886
0.0039989293
0.003011723
0.0035227348
0.0028707201
0.0031131481
0.0026966027
0.0027596888
0.0025147878
0.0024523839
0.0023346919
0.0021832115
0.0021608225
0.0019456133
0.0019957998
0.0017342314
0.0018408673
0.0015447578
0.001696355
0.0013737763
0.0015620407
0.0012185947
0.001437353
0.0010771322
0.0013215835
0.0009477933
0.0012139579
0.00082937154
0.0011136596
0.00072091387
0.0010199721
0.00062165404
0.00093233609
0.0005310256
0.00085016453
0.00044856454
0.00077299939
0.00037387706
0.00070044682
0.0003066325
0.0006321898
0.00024649738
0.00056794855
0.00019322285
0.00050756152
0.00014656165
0.00045087552
0.00010613122
0.00039791696
7.1654925e-05
0.00034856317
4.2791836e-05
0.00030282864
1.9217145e-05
0.00026068887
6.3103252e-07
0.00022216385
-1.3578809e-05
0.00018751052
-2.3730878e-05
0.00015661711
-3.0250823e-05
0.00012988474
-3.3454482e-05
0.00010584011
-3.4643339e-05
8.9748727e-05
6.8653506e-05
-9.2038468e-05
0.00051220022
-0.00015091125
0.0005133819
-0.0002100482
0.00051469089
-0.00026941086
0.00051589489
-0.00032903797
0.00051711484
-0.00038890915
0.00051810245
-0.00044900102
0.00051880827
-0.0005092288
0.00051903266
-0.00056952441
0.00051868717
-0.00062976189
0.00051755489
-0.00068981175
0.00051553034
-0.00074950684
0.00051249229
-0.00080867316
0.00050832735
-0.00086709616
0.00050293195
-0.00092456269
0.00049627013
-0.00098083824
0.00048828431
-0.0010357173
0.00047907404
-0.001088951
0.00046862663
-0.0011403518
0.00045713304
-0.0011897551
0.00044477328
-0.0012370085
0.00043181444
-0.0012820961
0.00041860258
-0.0013250587
0.00040555132
-0.0013660379
0.00039306317
-0.0014053018
0.00038158238
-0.0014432633
0.00037157604
-0.0014804311
0.00036340935
-0.0015174524
0.00035735559
-0.0015550625
0.00035350069
-0.0015941698
0.00035188676
-0.0016357102
0.00035220807
-0.0016807035
0.00035386767
-0.0017301007
0.00035581847
-0.0017847082
0.00035652538
-0.0018450398
0.00035386405
-0.0019110016
0.00034506966
-0.001981923
0.00032668217
-0.002056271
0.00029514361
-0.0021323269
0.00024762233
-0.0022081967
0.00018146997
-0.0022817329
9.4019359e-05
-0.0023515981
-1.5564122e-05
-0.0024181069
-0.00014703766
-0.0024883581
-0.00029750888
-0.0025969185
-0.00044578394
-0.0028183876
-0.00055046862
-0.0031106909
-0.00073295718
-0.0029312446
-0.0016567169
-0.0013780309
-0.004156901
0.0011050008
-0.0071670865
0.0032947011
-0.0090111121
0.0055041607
-0.0099070907
0.0076431249
-0.010232085
0.0097126006
-0.01059108
0.011846796
-0.010466925
0.013619339
-0.0088870114
0.01470571
-0.0065155668
0.014929627
-0.0034996473
0.014778554
-5.1769591e-05
0.01419348
0.003260842
0.012569901
0.0054010051
0.010229346
0.0058782242
0.0078529081
0.005628046
0.0061969132
0.0046933338
0.0051678899
0.0040666086
0.00445545
0.0037849251
0.0038668829
0.00360029
0.003363355
0.0033742495
0.0029398506
0.0031201096
0.0025839654
0.0028706705
0.0022811102
0.0026375474
0.002019826
0.0024221025
0.0017916811
0.0022239389
0.0015902603
0.0020422862
0.0014106114
0.0018759951
0.0012489743
0.0017236809
0.0011024943
0.0015838365
0.00096902118
0.0014550567
0.00084700165
0.0013359799
0.00073524726
0.0012254165
0.00063283878
0.0011223792
0.00053910061
0.0010260769
0.00045350907
0.00093575873
0.00037569477
0.00085081776
0.00030534745
0.00077079307
0.00024221251
0.00069532627
0.00018600055
0.00062416451
0.0001365187
0.0005570413
9.3545018e-05
0.00049385119
5.6730244e-05
0.00043473417
2.5919762e-05
0.00037937453
7.8534429e-07
0.00032796376
-1.9050112e-05
0.00028052582
-3.4036756e-05
0.00023714711
-4.4370004e-05
0.00019784508
-5.0621868e-05
0.00016287022
-5.314168e-05
0.00013240468
-5.2539995e-05
0.00010524241
-4.9424338e-05
8.6634442e-05
6.2348419e-05
-9.1000963e-05
0.00057056469
-0.00014973321
0.00057211424
-0.0002087601
0.00057371623
-0.00026822971
0.00057535968
-0.00032803325
0.00057691948
-0.0003882198
0.00057828828
-0.00044874094
0.00057932942
-0.0005095599
0.00057985637
-0.00057058426
0.00057971333
-0.00063167882
0.00057864809
-0.00069270605
0.0005765582
-0.00075348155
0.00057326781
-0.00081379788
0.00056864172
-0.0008734429
0.00056257669
-0.00093213537
0.00055496342
-0.00098963207
0.00054578073
-0.0010456249
0.00053506771
-0.0010998509
0.0005228557
-0.0011520422
0.0005093266
-0.0012019616
0.00049469419
-0.0012494339
0.00047929013
-0.0012943572
0.00046353067
-0.0013367434
0.0004479407
-0.001376709
0.00043302988
-0.0014145617
0.00041943668
-0.0014507389
0.00040775585
-0.0014858612
0.00039853301
-0.0015206805
0.00039217449
-0.0015561581
0.00038897804
-0.0015933524
0.00038908231
-0.0016336034
0.00039246022
-0.0016783436
0.00039860848
-0.0017289922
0.00040646799
-0.0017869551
0.00041448826
-0.0018533374
0.00042024366
-0.0019284971
0.00042022575
-0.0020118549
0.00041003755
-0.0021017961
0.00038508313
-0.0021962666
0.00034209174
-0.0022925185
0.0002777223
-0.0023867223
0.00018822506
-0.0024740693
7.1786524e-05
-0.0025547508
-6.6351978e-05
-0.0026556884
-0.00019656811
-0.0028614343
-0.00024003566
-0.0032219526
-0.00018994772
-0.0033821854
-0.00057272106
-0.0024123837
-0.0026265159
-1.1536907e-05
-0.0065577458
0.0020102086
-0.0091888306
0.0038620251
-0.010862927
0.0055949053
-0.011639969
0.0075030766
-0.012140257
0.0095651961
-0.012653204
0.011568351
-0.012470081
0.013509295
-0.010827954
0.014822976
-0.0078292484
0.015316587
-0.0039932582
0.015104386
0.00016043019
0.014296241
0.0040689876
0.012794311
0.0069029399
0.010521374
0.0081511556
0.0085222726
0.007627142
0.0065546794
0.0066609224
0.0051391719
0.005482113
0.0042480281
0.004676063
0.0036252258
0.0042230951
0.0031202904
0.003879182
0.0027011386
0.0035392664
0.0023559814
0.0032158236
0.0020681332
0.002925396
0.0018231173
0.0026671158
0.0016109032
0.0024361577
0.0014243918
0.0022288003
0.0012583532
0.0020420324
0.0011089342
0.001873093
0.00097333128
0.0017194414
0.00084951708
0.0015788719
0.00073606028
0.0014494371
0.00063187837
0.0013295952
0.00053617419
0.0012180836
0.00044843286
0.0011138116
0.0003682867
0.0010159026
0.00029545537
0.0009236522
0.00022971313
0.00083653236
0.00017088454
0.00075415032
0.00011881432
0.00067623169
7.3359112e-05
0.0006024937
3.4254393e-05
0.00053295518
1.4107789e-06
0.00046757501
-2.5473146e-05
0.00040625741
-4.6646481e-05
0.0003491358
-6.2426087e-05
0.00029630323
-7.3166123e-05
0.00024788239
-7.9343937e-05
0.00020402349
-8.1239897e-05
0.00016476983
-7.9202785e-05
0.00013037238
-7.4671467e-05
0.00010071192
-6.640427e-05
7.8370159e-05
5.2107398e-05
-8.9686196e-05
0.0006286399
-0.00014821667
0.00063064353
-0.00020717417
0.00063266918
-0.00026666737
0.00063485379
-0.00032664049
0.00063689092
-0.00038716951
0.00063881688
-0.00044820401
0.00064036833
-0.00050969849
0.0006413525
-0.00057155527
0.00064156866
-0.00063365782
0.00064075101
-0.00069582952
0.00063872971
-0.00075789003
0.00063532593
-0.00081959693
0.00063034735
-0.00088068576
0.00062366529
-0.00094087514
0.00061515168
-0.00099984304
0.00060474875
-0.001057236
0.00059246326
-0.0011127069
0.00057832862
-0.0011658998
0.0005625201
-0.0012164971
0.00054529375
-0.001264267
0.00052706442
-0.0013090176
0.00050828438
-0.0013506625
0.00048958643
-0.0013893485
0.00047171626
-0.0014253393
0.0004554281
-0.0014591216
0.00044153854
-0.001491407
0.00043081847
-0.0015231321
0.0004238998
-0.0015553601
0.00042120692
-0.0015894303
0.00042315434
-0.0016270109
0.00043004333
-0.0016699811
0.0004415806
-0.0017205509
0.00045703818
-0.0017808663
0.0004748019
-0.0018528393
0.00049221309
-0.0019376361
0.00050501952
-0.0020347139
0.00050711459
-0.0021422365
0.00049260613
-0.0022575787
0.00045743494
-0.002376624
0.0003967699
-0.0024908479
0.00030245176
-0.0025913908
0.00017233202
-0.0026868116
2.9071801e-05
-0.0028376746
-4.5701979e-05
-0.0031239804
4.627318e-05
-0.0033728883
5.8962417e-05
-0.0028888765
-0.0010567309
-0.0010821164
-0.0044332741
0.0010461668
-0.0086860268
0.0020210959
-0.010163756
0.0030598415
-0.011901668
0.004295516
-0.012875638
0.006058315
-0.013903051
0.0083125705
-0.014907461
0.010615832
-0.014773347
0.012600927
-0.01281305
0.013960769
-0.0091890922
0.014512091
-0.0045445798
0.014388572
0.00028394591
0.013648148
0.0048094127
0.012387672
0.0081634233
0.010423389
0.010115438
0.0083507964
0.0096997281
0.0064036264
0.0086080864
0.004858434
0.0070273034
0.0038710336
0.0056634632
0.0032417235
0.0048524007
0.0027702223
0.0043506767
0.002385859
0.0039236282
0.0020712689
0.0035304113
0.0018118518
0.0031848162
0.0015929311
0.0028860355
0.0014039028
0.0026251836
0.0012376385
0.0023950631
0.0010891195
0.0021905513
0.00095480372
0.0020074103
0.00083218045
0.0018420649
0.00071953797
0.0016915197
0.0006157188
0.001553261
0.0005198598
0.0014254515
0.0004314301
0.0013065173
0.0003501123
0.0011951341
0.00027568393
0.0010903328
0.00020803634
0.0009912996
0.00014706733
0.00089750083
9.275906e-05
0.00080845729
4.4983158e-05
0.00072400235
3.7106617e-06
0.00064376054
-3.1205248e-05
0.00056786979
-5.9872332e-05
0.00049623936
-8.2632133e-05
0.00042901423
-9.9527112e-05
0.00036603422
-0.0001109173
0.00030769245
-0.00011714335
0.00025410842
-0.00011855759
0.00020544323
-0.0001156385
0.00016185346
-0.00010878749
0.00012352531
-9.9170241e-05
9.1093336e-05
-8.5574913e-05
6.4774834e-05
3.7059606e-05
-8.8036148e-05
0.00068631507
-0.00014626922
0.00068887312
-0.00020506264
0.00069146424
-0.00026450679
0.00069429494
-0.00032469465
0.00069707736
-0.00038560435
0.00069973034
-0.00044721948
0.00070198461
-0.00050948374
0.00070361509
-0.00057230532
0.00070439042
-0.00063555496
0.00070400042
-0.00069906891
0.00070224123
-0.00076261871
0.00069887401
-0.00082596308
0.00069369066
-0.00088880109
0.00068650113
-0.00095078812
0.00067713775
-0.0010115512
0.00066551377
-0.0010706744
0.00065158792
-0.0011277093
0.00063536308
-0.0011822202
0.00061703154
-0.0012337723
0.00059684912
-0.0012819762
0.00057527121
-0.0013265767
0.00055288526
-0.0013674108
0.0005304198
-0.0014044799
0.00050878493
-0.0014380824
0.00048902993
-0.0014687735
0.00047222857
-0.0014973176
0.00045936287
-0.0015247884
0.00045137235
-0.0015524318
0.0004488519
-0.0015817592
0.0004524833
-0.0016147469
0.00046303344
-0.0016539672
0.00048080263
-0.0017023157
0.0005053857
-0.0017630612
0.00053554441
-0.0018395809
0.00056872967
-0.0019343631
0.00059980015
-0.0020469553
0.00061970706
-0.0021743121
0.00061996404
-0.0023142708
0.00059739638
-0.0024607342
0.00054323853
-0.0025989362
0.0004406583
-0.0027201219
0.00029351929
-0.0028558536
0.00016480348
-0.003064576
0.00016302019
-0.0032591222
0.00024082021
-0.0029903434
-0.00020981446
-0.0017658383
-0.0022812332
0.00029121561
-0.0064903248
0.00058216994
-0.0089769772
0.00087166085
-0.010453242
0.0016462112
-0.012676213
0.002902703
-0.014132126
0.0045000234
-0.015500368
0.0064844914
-0.016891927
0.0084749252
-0.016763779
0.010110722
-0.014448847
0.011282221
-0.010360597
0.011909722
-0.0051720779
0.011976309
0.00021735589
0.011452615
0.0053331056
0.010425062
0.0091909776
0.0087742726
0.011766226
0.0071852066
0.011288787
0.0056060578
0.010187232
0.0042474202
0.0083859349
0.0032965698
0.0066143148
0.0027081236
0.0054408494
0.0023083733
0.0047504245
0.0019916645
0.004240334
0.0017304424
0.0037916303
0.0015144554
0.0034007976
0.0013319809
0.0030685087
0.0011734773
0.0027836818
0.0010326324
0.002535904
0.00090528252
0.0023178984
0.00078863113
0.0021240637
0.00068078549
0.0019499109
0.00058058761
0.0017917155
0.00048720546
0.001646638
0.00040024861
0.0015124056
0.000319469
0.0013872975
0.00024479152
0.0012698111
0.00017622359
0.0011589063
0.00011389096
0.001053638
5.7720658e-05
0.00095367018
7.9277772e-06
0.00085824818
-3.5363921e-05
0.00076729048
-7.2313096e-05
0.00068070899
-0.00010292535
0.00059848342
-0.00012732106
0.00052063226
-0.00014553828
0.00044723006
-0.00015786685
0.00037835949
-0.00016453931
0.00031436485
-0.00016582769
0.00025539965
-0.00016213734
0.00020175937
-0.00015389926
0.00015362013
-0.00014159897
0.00011122807
-0.00012599206
7.5488087e-05
-0.00010677102
4.5549527e-05
1.6301162e-05
-8.5958992e-05
0.00074344307
-0.00014376903
0.00074668433
-0.00020232637
0.0007500173
-0.00026173128
0.00075369771
-0.00032206931
0.00075741813
-0.00038334685
0.00076100819
-0.0004455786
0.00076421467
-0.00050870386
0.0007667408
-0.00057260992
0.00076829673
-0.00063719067
0.00076857959
-0.00070223923
0.00076728889
-0.00076754003
0.00076417402
-0.00083281735
0.00075896541
-0.00089772424
0.0007514062
-0.00096188589
0.00074130048
-0.001024843
0.00072847189
-0.0010860988
0.00071284241
-0.0011451299
0.00069439325
-0.0012013472
0.00067325056
-0.001254194
0.00064969832
-0.001303114
0.0006241918
-0.0013476669
0.00059743748
-0.0013875768
0.00057032904
-0.001422794
0.00054400126
-0.0014535468
0.0005197816
-0.0014803063
0.0004989878
-0.0015040425
0.00048310047
-0.0015259555
0.00047328755
-0.0015474507
0.00047034881
-0.0015701232
0.00047515679
-0.0015961513
0.00048906209
-0.0016286266
0.00051327697
-0.001671746
0.00054850232
-0.001730679
0.00059447483
-0.0018103258
0.00064837525
-0.001914241
0.00070371496
-0.002042559
0.00074802577
-0.002193245
0.00077065211
-0.0023669182
0.00077107226
-0.0025523078
0.00072863219
-0.0027229198
0.00061127455
-0.0028904746
0.00046107547
-0.0031019186
0.00037624607
-0.0032932488
0.00035434802
-0.0031329613
8.0531454e-05
-0.0022210176
-0.0011217579
-0.00068491956
-0.0038173293
-5.7995527e-05
-0.0071172443
-0.00065461494
-0.0083803515
-0.00041890251
-0.010688947
0.00035511174
-0.013450221
0.0013810942
-0.015158106
0.0023429492
-0.016462224
0.0036482375
-0.018197215
0.0048775349
-0.017993078
0.005865174
-0.015436487
0.0067325734
-0.011227997
0.0074457736
-0.0058852768
0.0078073332
-0.00014420484
0.007803081
0.0053373532
0.007375061
0.0096189977
0.0065521672
0.012589118
0.0050562456
0.012784709
0.004090504
0.01115297
0.0031529151
0.0093235238
0.0024474644
0.0073197612
0.002020069
0.0058682432
0.0017454917
0.0050250027
0.0015269941
0.0044588318
0.0013409533