/*--------------------------------*- C++ -*----------------------------------*\
  =========                 |
  \\      /  F ield         | OpenFOAM: The Open Source CFD Toolbox
   \\    /   O peration     | Website:  https://openfoam.org
    \\  /    A nd           | Version:  9
     \\/     M anipulation  |
\*---------------------------------------------------------------------------*/
FoamFile
{
    format      ascii;
    class       volVectorField;
    location    "0.74";
    object      U;
}
// * * * * * * * * * * * * * * * * * * * * * * * * * * * * * * * * * * * * * //

dimensions      [0 1 -1 0 0 0 0];

internalField   nonuniform List<vector> 
10000
(
(-0.0048050622 0.010195065 0)
(-0.013704053 0.010227178 0)
(-0.018152751 0.010303052 0)
(-0.024505401 0.010382332 0)
(-0.030348435 0.010469062 0)
(-0.036283822 0.010562118 0)
(-0.042185296 0.010655947 0)
(-0.04804818 0.010748346 0)
(-0.053875084 0.01083533 0)
(-0.059658441 0.01091325 0)
(-0.065390753 0.010978017 0)
(-0.071062128 0.011028995 0)
(-0.076655729 0.011061891 0)
(-0.082161502 0.011070016 0)
(-0.087573217 0.011052652 0)
(-0.092879742 0.011007651 0)
(-0.098069563 0.010933601 0)
(-0.10313791 0.010829136 0)
(-0.10807499 0.010695597 0)
(-0.11287032 0.01053194 0)
(-0.11753079 0.010335943 0)
(-0.12206228 0.010112732 0)
(-0.12646128 0.0098673048 0)
(-0.13073587 0.009598716 0)
(-0.1348986 0.0093086796 0)
(-0.13896354 0.0089969711 0)
(-0.14294658 0.0086640341 0)
(-0.14686378 0.0083025287 0)
(-0.15073603 0.0079025721 0)
(-0.15458316 0.0074509673 0)
(-0.15841664 0.0069381974 0)
(-0.16223187 0.0063584196 0)
(-0.16601744 0.0057046998 0)
(-0.16974818 0.0049810894 0)
(-0.17332933 0.0041953675 0)
(-0.17660663 0.0033150813 0)
(-0.17939669 0.0022902921 0)
(-0.18147162 0.0010458881 0)
(-0.18268399 -0.00054147833 0)
(-0.18284135 -0.0025616483 0)
(-0.18152457 -0.004953073 0)
(-0.17827461 -0.007827212 0)
(-0.17262621 -0.011312296 0)
(-0.16397554 -0.015541052 0)
(-0.15157004 -0.020661371 0)
(-0.13459443 -0.026842845 0)
(-0.11206779 -0.034206927 0)
(-0.082745989 -0.042740036 0)
(-0.045720503 -0.052367027 0)
(0.00030139596 -0.062504934 0)
(0.055818232 -0.073120238 0)
(0.11872744 -0.082011591 0)
(0.18682611 -0.089203691 0)
(0.25823081 -0.093505942 0)
(0.33049389 -0.093929619 0)
(0.40012852 -0.088974157 0)
(0.4625537 -0.078452134 0)
(0.51288599 -0.062908986 0)
(0.54666722 -0.04423216 0)
(0.56199925 -0.025284046 0)
(0.56145891 -0.0080502519 0)
(0.54981767 0.0065964787 0)
(0.53022099 0.019391202 0)
(0.50473913 0.030869675 0)
(0.47553052 0.040870285 0)
(0.44441245 0.049134845 0)
(0.41272431 0.055595809 0)
(0.3814831 0.060303663 0)
(0.35140762 0.063344359 0)
(0.32290416 0.064811682 0)
(0.29613576 0.064816185 0)
(0.27110857 0.063515659 0)
(0.24773771 0.061137379 0)
(0.22590553 0.057961465 0)
(0.20550086 0.054276329 0)
(0.18642862 0.050339564 0)
(0.16861242 0.046347355 0)
(0.15199316 0.042431568 0)
(0.13650673 0.038668724 0)
(0.12211426 0.035115339 0)
(0.10879161 0.031790644 0)
(0.096475435 0.028699788 0)
(0.085126227 0.025841824 0)
(0.074704946 0.023206716 0)
(0.065164576 0.020785146 0)
(0.056468906 0.018569022 0)
(0.048581327 0.016547621 0)
(0.041464403 0.014701883 0)
(0.035074189 0.013016052 0)
(0.029355199 0.011481045 0)
(0.024265844 0.010097854 0)
(0.019783271 0.0088646531 0)
(0.015873984 0.0077554089 0)
(0.012497765 0.0067776865 0)
(0.0095898809 0.0059177668 0)
(0.0070976711 0.0051558656 0)
(0.0050818896 0.004498672 0)
(0.0028116854 0.0039711726 0)
(0.0022140733 0.0035466823 0)
(-0.00041650884 0.0031823417 0)
(-0.0047651916 0.020058117 0)
(-0.013621719 0.020084075 0)
(-0.01803246 0.02016349 0)
(-0.024378445 0.020233467 0)
(-0.030209579 0.020315168 0)
(-0.036139804 0.020390185 0)
(-0.042042255 0.020462004 0)
(-0.047911991 0.020523247 0)
(-0.05375167 0.020567099 0)
(-0.059554094 0.020591847 0)
(-0.065308336 0.020592728 0)
(-0.071004217 0.020561744 0)
(-0.07663005 0.020500417 0)
(-0.082172564 0.020400246 0)
(-0.087621729 0.020261392 0)
(-0.09296703 0.020080212 0)
(-0.09819773 0.019860089 0)
(-0.10330625 0.019600935 0)
(-0.10828189 0.01930393 0)
(-0.1131194 0.018969677 0)
(-0.11782267 0.018599748 0)
(-0.12239172 0.018201159 0)
(-0.12682887 0.017780275 0)
(-0.13114589 0.017338659 0)
(-0.13535621 0.016879374 0)
(-0.13947476 0.016400755 0)
(-0.14352148 0.0159003 0)
(-0.14751599 0.015368889 0)
(-0.15148018 0.014794162 0)
(-0.15543467 0.014159975 0)
(-0.1593914 0.013446746 0)
(-0.16335303 0.012628794 0)
(-0.16730368 0.011667044 0)
(-0.17119742 0.010523989 0)
(-0.17496009 0.0091655254 0)
(-0.17848213 0.0075260597 0)
(-0.18161713 0.0055219189 0)
(-0.18420355 0.0030408909 0)
(-0.18610207 -8.3390669e-05 0)
(-0.18693985 -0.003940069 0)
(-0.18632142 -0.0085788698 0)
(-0.18397873 -0.01418441 0)
(-0.17947875 -0.02099202 0)
(-0.17225093 -0.029297445 0)
(-0.16157669 -0.03947382 0)
(-0.14660425 -0.051918973 0)
(-0.12619243 -0.066934669 0)
(-0.098841419 -0.084649062 0)
(-0.06307065 -0.10485771 0)
(-0.017535601 -0.12623055 0)
(0.039549944 -0.14861026 0)
(0.10462685 -0.16559077 0)
(0.17384791 -0.1782461 0)
(0.24766841 -0.18485291 0)
(0.32566631 -0.18445917 0)
(0.40464499 -0.17301972 0)
(0.47799487 -0.14997224 0)
(0.53816695 -0.1152812 0)
(0.5778162 -0.072050866 0)
(0.59413865 -0.030547666 0)
(0.5908787 0.0028477259 0)
(0.57515251 0.029664252 0)
(0.55201876 0.052012991 0)
(0.5231015 0.070482604 0)
(0.49000732 0.084790914 0)
(0.45483569 0.094897219 0)
(0.41936673 0.10125332 0)
(0.38484044 0.10451264 0)
(0.35205838 0.10530167 0)
(0.32144544 0.10415719 0)
(0.29312467 0.10152149 0)
(0.26701703 0.097750911 0)
(0.2429372 0.093148335 0)
(0.22067287 0.087987634 0)
(0.2000369 0.082511679 0)
(0.18088035 0.076922572 0)
(0.1630891 0.071373238 0)
(0.14657671 0.065967337 0)
(0.13126303 0.06076625 0)
(0.11709231 0.055819588 0)
(0.10401393 0.051136568 0)
(0.091959637 0.046722083 0)
(0.080878629 0.042579964 0)
(0.070721595 0.038700977 0)
(0.061442817 0.035074173 0)
(0.053006678 0.031696238 0)
(0.045367285 0.028552473 0)
(0.03848068 0.025630324 0)
(0.032308767 0.022919782 0)
(0.026808504 0.020416598 0)
(0.021951551 0.018123005 0)
(0.017689339 0.016033303 0)
(0.013990461 0.01413641 0)
(0.010824784 0.012427868 0)
(0.0081005419 0.010899207 0)
(0.0057857397 0.0095438844 0)
(0.0039777641 0.0083641671 0)
(0.0019135297 0.0074026447 0)
(0.0014841283 0.0066034643 0)
(-0.00078887544 0.0058960995 0)
(-0.0047186419 0.024702285 0)
(-0.013572628 0.024731795 0)
(-0.017979061 0.024801838 0)
(-0.024322208 0.02486566 0)
(-0.030149777 0.024928263 0)
(-0.036084184 0.024984942 0)
(-0.041991745 0.02502879 0)
(-0.047876876 0.025059437 0)
(-0.053735002 0.025068294 0)
(-0.05955735 0.025045714 0)
(-0.065343058 0.024990336 0)
(-0.071073921 0.02489536 0)
(-0.076736614 0.0247557 0)
(-0.082320656 0.024565945 0)
(-0.087815159 0.024324538 0)
(-0.093205827 0.02403075 0)
(-0.098478148 0.023685682 0)
(-0.10362778 0.023289362 0)
(-0.10864433 0.022849106 0)
(-0.11351794 0.022367196 0)
(-0.11824815 0.021851239 0)
(-0.12283584 0.021313418 0)
(-0.12728444 0.020760862 0)
(-0.1316042 0.020201202 0)
(-0.13580997 0.019644635 0)
(-0.13992005 0.019096914 0)
(-0.14395683 0.018562212 0)
(-0.14794485 0.018036475 0)
(-0.15191166 0.017509086 0)
(-0.1558833 0.016962859 0)
(-0.15987546 0.016371536 0)
(-0.16389533 0.015701792 0)
(-0.16793849 0.014911245 0)
(-0.17197898 0.013942173 0)
(-0.17596636 0.012711105 0)
(-0.17981537 0.011114054 0)
(-0.18340248 0.0090209386 0)
(-0.18659054 0.0062823735 0)
(-0.18920942 0.0027604073 0)
(-0.19094486 -0.0016310446 0)
(-0.191471 -0.0072044755 0)
(-0.19051323 -0.014200053 0)
(-0.1877085 -0.022903866 0)
(-0.18258568 -0.033713321 0)
(-0.17451494 -0.047173177 0)
(-0.16263699 -0.063948804 0)
(-0.14563233 -0.084736905 0)
(-0.12146433 -0.1101774 0)
(-0.087835571 -0.14027904 0)
(-0.04390805 -0.17323227 0)
(0.011729012 -0.20606512 0)
(0.075608421 -0.22622513 0)
(0.14747 -0.24301906 0)
(0.2317326 -0.2553834 0)
(0.32772716 -0.26122005 0)
(0.42560763 -0.24747311 0)
(0.51325843 -0.21591057 0)
(0.58175827 -0.16539887 0)
(0.62103242 -0.097846113 0)
(0.6301136 -0.030662645 0)
(0.62024106 0.016289832 0)
(0.60081182 0.049941422 0)
(0.57409464 0.078375378 0)
(0.54088342 0.10181094 0)
(0.50330675 0.11893461 0)
(0.46397117 0.13006816 0)
(0.42487357 0.13618078 0)
(0.38727251 0.13825987 0)
(0.35191815 0.13724074 0)
(0.31919119 0.13394596 0)
(0.28918554 0.1290459 0)
(0.26179836 0.12305661 0)
(0.23681846 0.11636836 0)
(0.21399596 0.1092824 0)
(0.19309065 0.1020356 0)
(0.17389385 0.094807864 0)
(0.15623356 0.08773248 0)
(0.13996589 0.080901427 0)
(0.12497158 0.074370861 0)
(0.11116501 0.06817992 0)
(0.0984613 0.062335638 0)
(0.08678319 0.05683877 0)
(0.076070245 0.051683427 0)
(0.0662638 0.046860414 0)
(0.05732035 0.042354761 0)
(0.049200369 0.038155785 0)
(0.041855382 0.034246582 0)
(0.035254594 0.030617063 0)
(0.029360352 0.027256058 0)
(0.024129618 0.02415423 0)
(0.01952175 0.02130394 0)
(0.015493372 0.018690201 0)
(0.012014684 0.01632338 0)
(0.009049647 0.014178402 0)
(0.0065307597 0.012258427 0)
(0.0044236243 0.010569498 0)
(0.0028263182 0.0090953667 0)
(0.00095919059 0.0079134188 0)
(0.00068322344 0.0069162359 0)
(-0.0012250735 0.0060141907 0)
(-0.0046788645 0.030520198 0)
(-0.013527078 0.030560041 0)
(-0.017904307 0.030636973 0)
(-0.024261145 0.03071346 0)
(-0.030096928 0.030776608 0)
(-0.036041013 0.030837097 0)
(-0.041965592 0.030877661 0)
(-0.047866875 0.030898655 0)
(-0.053754617 0.03089003 0)
(-0.059615517 0.03083957 0)
(-0.06543744 0.030742485 0)
(-0.071211009 0.030599707 0)
(-0.076924286 0.030398214 0)
(-0.082560984 0.03013379 0)
(-0.088106975 0.029805787 0)
(-0.093548716 0.029415883 0)
(-0.098873922 0.028961968 0)
(-0.10406878 0.0284466 0)
(-0.10912172 0.027880008 0)
(-0.11402633 0.027268408 0)
(-0.11877671 0.026622081 0)
(-0.12337447 0.025955425 0)
(-0.12782621 0.025280752 0)
(-0.13214026 0.024612172 0)
(-0.1363332 0.023963168 0)
(-0.14042619 0.023344825 0)
(-0.14444799 0.022762293 0)
(-0.14843104 0.022210318 0)
(-0.15240907 0.021678025 0)
(-0.156419 0.021145213 0)
(-0.16049202 0.02057579 0)
(-0.16465262 0.019918794 0)
(-0.16891442 0.019103921 0)
(-0.17327024 0.018042283 0)
(-0.17767903 0.016624238 0)
(-0.1820657 0.014718393 0)
(-0.1863292 0.01217164 0)
(-0.19031723 0.0088201519 0)
(-0.19382855 0.0045090423 0)
(-0.19667333 -0.000932658 0)
(-0.1986221 -0.0077982845 0)
(-0.19938951 -0.016362251 0)
(-0.1987015 -0.026976391 0)
(-0.196255 -0.040134996 0)
(-0.19163324 -0.05656864 0)
(-0.18409757 -0.077355673 0)
(-0.17214266 -0.10401655 0)
(-0.15351505 -0.13793996 0)
(-0.12712197 -0.17832792 0)
(-0.092757856 -0.22176041 0)
(-0.038175157 -0.26490807 0)
(0.045403062 -0.29366721 0)
(0.15567429 -0.32832654 0)
(0.28621171 -0.35616209 0)
(0.43330716 -0.37720697 0)
(0.56484067 -0.34215606 0)
(0.66180527 -0.28987007 0)
(0.72294118 -0.21129761 0)
(0.73725965 -0.11360353 0)
(0.70431783 -0.028471372 0)
(0.66007369 0.032108596 0)
(0.6299814 0.076059143 0)
(0.60151507 0.1113945 0)
(0.56339643 0.13960767 0)
(0.51832697 0.15914481 0)
(0.47221154 0.17045653 0)
(0.42795305 0.17510305 0)
(0.38658911 0.17474939 0)
(0.34855966 0.17084463 0)
(0.3139715 0.16455712 0)
(0.28269813 0.15676963 0)
(0.25448372 0.14811391 0)
(0.22901942 0.13903362 0)
(0.20598848 0.12983841 0)
(0.18509283 0.1207448 0)
(0.16606801 0.11189932 0)
(0.14869203 0.10339843 0)
(0.13277575 0.095297635 0)
(0.11816899 0.087628257 0)
(0.10476179 0.080399743 0)
(0.092451338 0.073602607 0)
(0.081151203 0.067222005 0)
(0.07079997 0.061240473 0)
(0.061338975 0.05563793 0)
(0.052721534 0.050397604 0)
(0.044910973 0.045496814 0)
(0.037861188 0.040919948 0)
(0.031538145 0.036650869 0)
(0.025902341 0.032674629 0)
(0.02091615 0.028976238 0)
(0.016547701 0.025548025 0)
(0.012766701 0.022390296 0)
(0.0095347038 0.019503714 0)
(0.0068095347 0.016883573 0)
(0.0045359233 0.014535861 0)
(0.0026673126 0.012460794 0)
(0.0013520361 0.010617846 0)
(-0.0002477582 0.0091328955 0)
(-0.00033573511 0.0079488067 0)
(-0.0017758899 0.0067687934 0)
(-0.0046190847 0.036570432 0)
(-0.013471475 0.036628964 0)
(-0.017826351 0.03671182 0)
(-0.024192052 0.036787722 0)
(-0.030036043 0.036855822 0)
(-0.035990743 0.036914668 0)
(-0.041936648 0.036953001 0)
(-0.047868671 0.03696096 0)
(-0.053794648 0.036928862 0)
(-0.059702344 0.036849178 0)
(-0.065575988 0.036711764 0)
(-0.071406169 0.036510841 0)
(-0.077183833 0.036238423 0)
(-0.082887272 0.035890742 0)
(-0.088499266 0.035464582 0)
(-0.094007366 0.034959225 0)
(-0.099396043 0.034376096 0)
(-0.10464816 0.033721202 0)
(-0.10975072 0.033002015 0)
(-0.11469425 0.032230048 0)
(-0.11947074 0.031419159 0)
(-0.12408002 0.03058622 0)
(-0.12852619 0.029752195 0)
(-0.13281893 0.028940011 0)
(-0.13697676 0.028166727 0)
(-0.14102517 0.027447412 0)
(-0.14500043 0.026793404 0)
(-0.1489403 0.026207755 0)
(-0.15288591 0.025682606 0)
(-0.15688901 0.025198742 0)
(-0.16099671 0.024717188 0)
(-0.16525062 0.024181404 0)
(-0.16968419 0.023509934 0)
(-0.17431309 0.022595229 0)
(-0.17913297 0.021306601 0)
(-0.1841034 0.01947432 0)
(-0.18913265 0.016904677 0)
(-0.1940836 0.013392222 0)
(-0.19878896 0.0087085767 0)
(-0.20306914 0.0026130141 0)
(-0.20670798 -0.0051158817 0)
(-0.20950194 -0.014764811 0)
(-0.21132057 -0.026682416 0)
(-0.21209036 -0.041381508 0)
(-0.21169682 -0.059779615 0)
(-0.20967397 -0.08356596 0)
(-0.20519792 -0.1149437 0)
(-0.19853083 -0.15440482 0)
(-0.18961008 -0.20060875 0)
(-0.15802801 -0.2602074 0)
(-0.051804911 -0.34693248 0)
(0.11369713 -0.41455049 0)
(0.30097238 -0.47707496 0)
(0.48934165 -0.52023392 0)
(0.68813759 -0.55132521 0)
(0.85199012 -0.45934107 0)
(0.95953064 -0.3589614 0)
(1.0158039 -0.23487038 0)
(1.0030658 -0.051859661 0)
(0.89898554 0.076779562 0)
(0.76494052 0.080057925 0)
(0.67676765 0.095784067 0)
(0.62810659 0.14125616 0)
(0.58484563 0.18370805 0)
(0.53387051 0.20879774 0)
(0.47998713 0.2194462 0)
(0.42886086 0.22085827 0)
(0.38267039 0.21651837 0)
(0.34157492 0.20856435 0)
(0.30515906 0.19843655 0)
(0.2728922 0.18714126 0)
(0.24423771 0.17536013 0)
(0.21869791 0.16354035 0)
(0.19582989 0.15196608 0)
(0.17525051 0.1408121 0)
(0.15663569 0.13017831 0)
(0.13972007 0.12011438 0)
(0.12428366 0.11063 0)
(0.1101618 0.10172134 0)
(0.097229106 0.093364101 0)
(0.085370456 0.085523472 0)
(0.074499106 0.078168463 0)
(0.064554195 0.071272843 0)
(0.055477946 0.064801075 0)
(0.047225843 0.058732153 0)
(0.039757778 0.053036666 0)
(0.033034587 0.04769346 0)
(0.027026058 0.042689715 0)
(0.021695389 0.038012032 0)
(0.017009101 0.033652642 0)
(0.012941352 0.029610309 0)
(0.0094553763 0.025882455 0)
(0.0065146284 0.022461057 0)
(0.0040863421 0.019351788 0)
(0.002110308 0.016556401 0)
(0.00051490265 0.014080228 0)
(-0.00050264977 0.011912257 0)
(-0.0017168938 0.010041068 0)
(-0.0016032174 0.0087111199 0)
(-0.0025263635 0.0071670307 0)
(-0.0045472161 0.042443967 0)
(-0.013402894 0.042521909 0)
(-0.017734435 0.042619672 0)
(-0.02411386 0.042706647 0)
(-0.029966989 0.042789165 0)
(-0.035937214 0.042855374 0)
(-0.041911283 0.0428977 0)
(-0.047881091 0.042902429 0)
(-0.053852094 0.042859933 0)
(-0.059814165 0.042759035 0)
(-0.065753731 0.042589221 0)
(-0.071657733 0.042339524 0)
(-0.077511729 0.042003082 0)
(-0.083295974 0.041576429 0)
(-0.088993192 0.04105203 0)
(-0.094585099 0.040430254 0)
(-0.10005201 0.039715154 0)
(-0.10537483 0.038911846 0)
(-0.11053652 0.038029603 0)
(-0.11552465 0.037083988 0)
(-0.12032885 0.036093712 0)
(-0.12494416 0.035082216 0)
(-0.12937125 0.034076979 0)
(-0.13362244 0.033106144 0)
(-0.13772109 0.032196403 0)
(-0.14169319 0.031373036 0)
(-0.14557795 0.030656563 0)
(-0.14942476 0.030056824 0)
(-0.15328843 0.029569971 0)
(-0.1572381 0.029180047 0)
(-0.16134288 0.028847167 0)
(-0.16566959 0.028508134 0)
(-0.1702834 0.028070005 0)
(-0.17522866 0.027399684 0)
(-0.18052732 0.026338707 0)
(-0.18616496 0.024689084 0)
(-0.19207715 0.022206677 0)
(-0.19814988 0.018634276 0)
(-0.20421855 0.013730281 0)
(-0.21009056 0.0072469977 0)
(-0.21559328 -0.0010533982 0)
(-0.22058418 -0.011394948 0)
(-0.22503311 -0.02400689 0)
(-0.2290776 -0.039351184 0)
(-0.23294987 -0.0585075 0)
(-0.23753478 -0.083004469 0)
(-0.24621772 -0.11326854 0)
(-0.26145275 -0.15140139 0)
(-0.25737581 -0.21705325 0)
(-0.15701473 -0.349902 0)
(0.06555131 -0.53893352 0)
(0.30004741 -0.63660921 0)
(0.52774767 -0.69634689 0)
(0.74282723 -0.7440981 0)
(0.93856084 -0.74833819 0)
(1.1120151 -0.62374085 0)
(1.2669878 -0.47485697 0)
(1.3631933 -0.299355 0)
(1.3878534 -0.028509359 0)
(1.3249015 0.22342554 0)
(1.1534055 0.2793656 0)
(0.91937543 0.23585225 0)
(0.73354383 0.22307233 0)
(0.61977472 0.24090086 0)
(0.54598815 0.26505956 0)
(0.48355233 0.27577444 0)
(0.425676 0.27270369 0)
(0.3743598 0.26228491 0)
(0.33023334 0.24862267 0)
(0.29231705 0.23355347 0)
(0.25947977 0.21803899 0)
(0.23082291 0.20267538 0)
(0.20562499 0.18782367 0)
(0.18329234 0.17368388 0)
(0.16334452 0.16035166 0)
(0.14539933 0.14785582 0)
(0.12915332 0.13618156 0)
(0.11436688 0.12528693 0)
(0.10086949 0.11512445 0)
(0.088522059 0.10563278 0)
(0.077206161 0.096751746 0)
(0.066844139 0.088435449 0)
(0.057372971 0.080638788 0)
(0.048737845 0.073318086 0)
(0.040899599 0.066440943 0)
(0.033817215 0.059975299 0)
(0.02746292 0.053894872 0)
(0.021812435 0.048189114 0)
(0.01682888 0.04284397 0)
(0.012487647 0.037854186 0)
(0.008757981 0.033210493 0)
(0.005602022 0.028914838 0)
(0.0029913337 0.024965634 0)
(0.00089350762 0.02135586 0)
(-0.0007451615 0.018107383 0)
(-0.0019772877 0.0152184 0)
(-0.0026989133 0.012726003 0)
(-0.0034630058 0.010482328 0)
(-0.0031215539 0.0089748843 0)
(-0.0034782152 0.0070492336 0)
(-0.0044585218 0.048298847 0)
(-0.013321601 0.048401593 0)
(-0.017625883 0.04851743 0)
(-0.024016204 0.048625369 0)
(-0.029882162 0.048731986 0)
(-0.035873388 0.048815824 0)
(-0.041879673 0.04887196 0)
(-0.0478934 0.048886019 0)
(-0.053920163 0.048844543 0)
(-0.059949998 0.048733205 0)
(-0.06596705 0.048537776 0)
(-0.071957791 0.048248609 0)
(-0.07790529 0.047856623 0)
(-0.083789346 0.047354693 0)
(-0.089588586 0.04673507 0)
(-0.095279101 0.045997465 0)
(-0.10084073 0.045144961 0)
(-0.10625045 0.04418473 0)
(-0.11148489 0.043127973 0)
(-0.11652667 0.041994552 0)
(-0.12135995 0.040807634 0)
(-0.12597571 0.039596158 0)
(-0.13037412 0.038395385 0)
(-0.13456612 0.037242401 0)
(-0.138573 0.036175494 0)
(-0.14242546 0.035234414 0)
(-0.14617313 0.034449373 0)
(-0.14987575 0.033837293 0)
(-0.1535984 0.033403181 0)
(-0.1574297 0.033140025 0)
(-0.16146502 0.033016774 0)
(-0.16579834 0.032969659 0)
(-0.17053459 0.032898941 0)
(-0.17576168 0.032658673 0)
(-0.18154508 0.03205394 0)
(-0.18792078 0.03083855 0)
(-0.19484768 0.028709345 0)
(-0.20219312 0.02535464 0)
(-0.20978869 0.020497183 0)
(-0.21745418 0.013875862 0)
(-0.22496956 0.0052666941 0)
(-0.2321428 -0.0054365297 0)
(-0.23891817 -0.018324948 0)
(-0.245446 -0.033708305 0)
(-0.25302883 -0.051686896 0)
(-0.26744834 -0.070196273 0)
(-0.29800929 -0.089648398 0)
(-0.3246331 -0.14161596 0)
(-0.25121961 -0.3018027 0)
(-0.015531589 -0.58098737 0)
(0.22580931 -0.8015414 0)
(0.44415236 -0.8976757 0)
(0.65930743 -0.92841744 0)
(0.86821794 -0.96032115 0)
(1.0772262 -0.94155666 0)
(1.2774387 -0.80131121 0)
(1.4305794 -0.60004711 0)
(1.5031238 -0.34528132 0)
(1.5004768 -0.019971795 0)
(1.4649433 0.29152287 0)
(1.3674579 0.46134513 0)
(1.1589637 0.47266298 0)
(0.89070278 0.43602293 0)
(0.67867627 0.37300908 0)
(0.55599681 0.34411255 0)
(0.47745709 0.33858508 0)
(0.41402932 0.32940639 0)
(0.35932747 0.3116097 0)
(0.31312716 0.29041498 0)
(0.27453596 0.26912041 0)
(0.24193231 0.24864363 0)
(0.21396788 0.22927301 0)
(0.18968261 0.21116093 0)
(0.16835074 0.19435348 0)
(0.14941146 0.1788193 0)
(0.13243767 0.16448393 0)
(0.11710044 0.1512467 0)
(0.10315416 0.1390058 0)
(0.09042872 0.12765798 0)
(0.078779974 0.1171013 0)
(0.068097843 0.10725146 0)
(0.058314554 0.098042255 0)
(0.049370784 0.089405989 0)
(0.041222181 0.08129126 0)
(0.033833389 0.073654186 0)
(0.027170115 0.066461286 0)
(0.021216479 0.059685281 0)
(0.015952281 0.053308083 0)
(0.011341832 0.047319473 0)
(0.0073641557 0.041709468 0)
(0.0039965799 0.036467319 0)
(0.0012093595 0.031606597 0)
(-0.0010414637 0.027127553 0)
(-0.0027684052 0.023029206 0)
(-0.0040209027 0.019330799 0)
(-0.0048502128 0.01603524 0)
(-0.0052388094 0.013174075 0)
(-0.0054699664 0.010613098 0)
(-0.004917585 0.0088856196 0)
(-0.0046374528 0.0066039687 0)
(-0.0043506719 0.054155231 0)
(-0.01321952 0.054289589 0)
(-0.017492899 0.054432739 0)
(-0.023891089 0.054571887 0)
(-0.029770269 0.054709827 0)
(-0.035787036 0.054824234 0)
(-0.041829468 0.054907171 0)
(-0.047894285 0.054943017 0)
(-0.053986108 0.054912787 0)
(-0.060096321 0.054802251 0)
(-0.066206244 0.054593736 0)
(-0.072299513 0.05427418 0)
(-0.078358626 0.05383225 0)
(-0.084361625 0.053257927 0)
(-0.090284239 0.052544255 0)
(-0.096098494 0.051687752 0)
(-0.1017775 0.050689526 0)
(-0.10729345 0.049559033 0)
(-0.11261653 0.048309429 0)
(-0.11772322 0.046963603 0)
(-0.12259392 0.045549499 0)
(-0.12721236 0.044103815 0)
(-0.13157231 0.042671771 0)
(-0.13568317 0.041301704 0)
(-0.13956512 0.040044675 0)
(-0.143252 0.03895335 0)
(-0.14680334 0.038073521 0)
(-0.15029025 0.037437399 0)
(-0.15379014 0.037062852 0)
(-0.15740974 0.036957305 0)
(-0.16127506 0.037104977 0)
(-0.16551975 0.037445647 0)
(-0.17029311 0.037877508 0)
(-0.17574293 0.038245085 0)
(-0.18199742 0.038317472 0)
(-0.18914126 0.037797433 0)
(-0.19716159 0.036314408 0)
(-0.20592754 0.03347394 0)
(-0.21524592 0.028933087 0)
(-0.22488074 0.022402028 0)
(-0.23450606 0.0136445 0)
(-0.24368938 0.002554328 0)
(-0.25196736 -0.010809166 0)
(-0.25975967 -0.025545268 0)
(-0.27202176 -0.037167459 0)
(-0.30152781 -0.039241053 0)
(-0.34778793 -0.055781651 0)
(-0.33251784 -0.18852632 0)
(-0.13182151 -0.52698699 0)
(0.12789468 -0.85533907 0)
(0.29688291 -1.0279555 0)
(0.47015924 -1.0997048 0)
(0.64879949 -1.1267172 0)
(0.8464365 -1.1584047 0)
(1.0547359 -1.1375573 0)
(1.2586849 -0.97866901 0)
(1.4284452 -0.7114945 0)
(1.5247645 -0.36983201 0)
(1.5386737 0.0098840218 0)
(1.4893327 0.36660498 0)
(1.3822626 0.61674166 0)
(1.1877652 0.70609654 0)
(0.94963563 0.6635839 0)
(0.73568439 0.56365548 0)
(0.56545122 0.46934211 0)
(0.45830644 0.41827524 0)
(0.38965305 0.38991859 0)
(0.33480891 0.3625251 0)
(0.28870426 0.332972 0)
(0.25089977 0.3044367 0)
(0.21970926 0.27836336 0)
(0.19339356 0.25472313 0)
(0.17076139 0.23327428 0)
(0.15099487 0.21381433 0)
(0.13349576 0.19614431 0)
(0.11782182 0.18006148 0)
(0.10364363 0.16536468 0)
(0.090730056 0.15187839 0)
(0.078917321 0.13943718 0)
(0.068070979 0.12790131 0)
(0.058102306 0.1171593 0)
(0.048956128 0.10711904 0)
(0.040583376 0.097697707 0)
(0.032954177 0.08883068 0)
(0.026041891 0.080466785 0)
(0.019824811 0.072569356 0)
(0.014294895 0.06511354 0)
(0.0094356796 0.058071375 0)
(0.0052194863 0.051438914 0)
(0.001628433 0.045206087 0)
(-0.0013480497 0.039370105 0)
(-0.003737793 0.033942192 0)
(-0.0055830139 0.028926409 0)
(-0.0069015351 0.024337734 0)
(-0.0077355329 0.020178413 0)
(-0.0081207746 0.016466007 0)
(-0.0081247415 0.01322317 0)
(-0.0077564377 0.010379515 0)
(-0.0069919548 0.0083390847 0)
(-0.0060008165 0.0057930838 0)
(-0.0042164305 0.059981472 0)
(-0.013087911 0.060156178 0)
(-0.017323228 0.060335665 0)
(-0.023728285 0.060522976 0)
(-0.029620626 0.060699645 0)
(-0.035662504 0.060861696 0)
(-0.041745738 0.060987532 0)
(-0.047870704 0.061059649 0)
(-0.054038862 0.061055755 0)
(-0.060240253 0.06095897 0)
(-0.066458188 0.060751474 0)
(-0.072674089 0.060413124 0)
(-0.07886763 0.059930561 0)
(-0.085013366 0.059290316 0)
(-0.091083523 0.058483875 0)
(-0.097046901 0.057506304 0)
(-0.10287047 0.056356078 0)
(-0.10851908 0.055041811 0)
(-0.11395542 0.053578857 0)
(-0.11914819 0.051990355 0)
(-0.12406863 0.050311449 0)
(-0.12869081 0.048589222 0)
(-0.13300324 0.046879208 0)
(-0.1370113 0.045241544 0)
(-0.14073244 0.043746025 0)
(-0.14420205 0.042463282 0)
(-0.14748685 0.041455927 0)
(-0.15067108 0.040776398 0)
(-0.1538443 0.04046057 0)
(-0.15713019 0.04053516 0)
(-0.16069113 0.04100669 0)
(-0.16470392 0.041834792 0)
(-0.16936907 0.042927844 0)
(-0.17491524 0.044131046 0)
(-0.1815617 0.045198431 0)
(-0.18947677 0.045753007 0)
(-0.19869509 0.045276107 0)
(-0.20905994 0.043258789 0)
(-0.22031771 0.039338564 0)
(-0.2321762 0.033115512 0)
(-0.24410078 0.024065668 0)
(-0.25505768 0.011934419 0)
(-0.26413717 -0.0023262461 0)
(-0.27378267 -0.013783914 0)
(-0.29364881 -0.011230114 0)
(-0.3323966 0.00052015307 0)
(-0.35236745 -0.061487228 0)
(-0.23147072 -0.34255014 0)
(0.040238824 -0.80519619 0)
(0.16625715 -0.99245763 0)
(0.2475606 -1.1482819 0)
(0.35693037 -1.2277483 0)
(0.50938278 -1.3050061 0)
(0.70800459 -1.3801869 0)
(0.94146953 -1.3667231 0)
(1.1636202 -1.191153 0)
(1.3383153 -0.86359011 0)
(1.4412056 -0.43827569 0)
(1.465733 0.016787268 0)
(1.4227782 0.43544609 0)
(1.326018 0.75072761 0)
(1.1631229 0.91507931 0)
(0.94449034 0.87119605 0)
(0.72519613 0.76460292 0)
(0.54230229 0.62398429 0)
(0.42071741 0.51442207 0)
(0.34869737 0.45290682 0)
(0.29760331 0.41193559 0)
(0.25541636 0.37380809 0)
(0.22076151 0.33787876 0)
(0.19254987 0.30602782 0)
(0.16903221 0.27813967 0)
(0.14889808 0.25350217 0)
(0.13131476 0.23157829 0)
(0.11571114 0.21196747 0)
(0.10167126 0.19432237 0)
(0.088896963 0.17833736 0)
(0.077192969 0.16375331 0)
(0.066418145 0.15034363 0)
(0.056465779 0.13793827 0)
(0.047275895 0.12639701 0)
(0.038813589 0.11559911 0)
(0.031045706 0.10545154 0)
(0.023958774 0.095877259 0)
(0.017542502 0.086822797 0)
(0.011791169 0.078244528 0)
(0.0067005133 0.070122533 0)
(0.0022616322 0.062423415 0)
(-0.0015376091 0.055147511 0)
(-0.0047164362 0.048293671 0)
(-0.0072757062 0.04186518 0)
(-0.0092399933 0.035859039 0)
(-0.010647005 0.030298517 0)
(-0.011517172 0.025197729 0)
(-0.011890431 0.020570431 0)
(-0.011796116 0.016427656 0)
(-0.011327071 0.012793082 0)
(-0.010363778 0.0096856217 0)
(-0.00932913 0.0072551639 0)
(-0.0075009169 0.0045481606 0)
(-0.0040512311 0.065771718 0)
(-0.012920024 0.065995391 0)
(-0.01710331 0.066223482 0)
(-0.023515319 0.066472153 0)
(-0.029419645 0.066706868 0)
(-0.035482766 0.066932572 0)
(-0.041613476 0.06711904 0)
(-0.047805918 0.067245384 0)
(-0.054061556 0.067288592 0)
(-0.060367866 0.067223404 0)
(-0.066710861 0.067031342 0)
(-0.073069641 0.06668902 0)
(-0.079420707 0.066178961 0)
(-0.085736882 0.065483126 0)
(-0.091984517 0.064588402 0)
(-0.098128721 0.063487221 0)
(-0.10413039 0.062177328 0)
(-0.10994493 0.060664222 0)
(-0.1155274 0.058962226 0)
(-0.12083488 0.057097845 0)
(-0.12582474 0.055113149 0)
(-0.13046045 0.053061872 0)
(-0.13472287 0.051009996 0)
(-0.13860735 0.049039588 0)
(-0.14212468 0.04724103 0)
(-0.14531522 0.045704404 0)
(-0.14825251 0.04451769 0)
(-0.15103047 0.043757298 0)
(-0.15375155 0.043476914 0)
(-0.15655428 0.043727031 0)
(-0.15963302 0.044550622 0)
(-0.16321499 0.045953161 0)
(-0.1675612 0.047875764 0)
(-0.17298274 0.050170074 0)
(-0.17984675 0.052558405 0)
(-0.18851742 0.054566901 0)
(-0.19909024 0.055522957 0)
(-0.21124219 0.054819175 0)
(-0.22467533 0.052027579 0)
(-0.23926882 0.04630761 0)
(-0.25403375 0.036507838 0)
(-0.26688074 0.022686239 0)
(-0.27808724 0.0084614151 0)
(-0.29334129 0.0046856804 0)
(-0.3179375 0.019308949 0)
(-0.33669835 0.0089582304 0)
(-0.27396211 -0.15335695 0)
(-0.041399244 -0.56458662 0)
(0.082572642 -0.912602 0)
(0.057096484 -1.0266326 0)
(0.11385661 -1.2218019 0)
(0.22230698 -1.3517599 0)
(0.36878998 -1.4833504 0)
(0.53940194 -1.6099531 0)
(0.74066803 -1.6042458 0)
(0.92589655 -1.3942875 0)
(1.0704712 -1.0074226 0)
(1.1704468 -0.51050378 0)
(1.2162957 0.018101093 0)
(1.1964794 0.49599764 0)
(1.1198345 0.86392171 0)
(0.98518738 1.0947228 0)
(0.8027329 1.0569039 0)
(0.63026766 0.94620219 0)
(0.47633002 0.77646842 0)
(0.36010548 0.61575276 0)
(0.29035075 0.51573822 0)
(0.24722299 0.4565355 0)
(0.21284824 0.40957446 0)
(0.18409424 0.36717049 0)
(0.16064459 0.33013509 0)
(0.14115083 0.29844066 0)
(0.1243791 0.27104438 0)
(0.10959007 0.24705521 0)
(0.096312496 0.22585191 0)
(0.084208923 0.2069401 0)
(0.073053825 0.18991478 0)
(0.062706094 0.17443741 0)
(0.053068657 0.16023311 0)
(0.044081078 0.14710226 0)
(0.03571487 0.13487805 0)
(0.027963578 0.12341568 0)
(0.020818183 0.1126151 0)
(0.014286156 0.10238752 0)
(0.0083743227 0.092689651 0)
(0.0030968379 0.083460835 0)
(-0.0015480084 0.074685203 0)
(-0.0055600929 0.066345343 0)
(-0.0089271737 0.05843502 0)
(-0.011667589 0.050957526 0)
(-0.013792551 0.04392406 0)
(-0.015309588 0.037329135 0)
(-0.016243739 0.03121186 0)
(-0.01662877 0.025584729 0)
(-0.016499779 0.020469617 0)
(-0.015887449 0.015882508 0)
(-0.014856851 0.011846045 0)
(-0.013310417 0.0084375703 0)
(-0.011904236 0.0056330392 0)
(-0.0091197758 0.0027754478 0)
(-0.0038487951 0.071515701 0)
(-0.012703741 0.071801052 0)
(-0.016822282 0.072094223 0)
(-0.023233472 0.072416293 0)
(-0.029146738 0.072735736 0)
(-0.035232269 0.073042917 0)
(-0.041413395 0.073311317 0)
(-0.047678214 0.073513709 0)
(-0.054032496 0.073624853 0)
(-0.060461369 0.073613038 0)
(-0.066947423 0.073456478 0)
(-0.073470634 0.073128632 0)
(-0.080006246 0.072605449 0)
(-0.086524555 0.071865468 0)
(-0.092986464 0.070890375 0)
(-0.099349776 0.069667582 0)
(-0.10556913 0.068191133 0)
(-0.11159279 0.066462213 0)
(-0.11736301 0.064494052 0)
(-0.12282113 0.062316014 0)
(-0.1279114 0.059972982 0)
(-0.13258421 0.057526808 0)
(-0.13680006 0.055057539 0)
(-0.14054038 0.052670009 0)
(-0.1438149 0.050479251 0)
(-0.14666079 0.048601763 0)
(-0.14915394 0.047159487 0)
(-0.15140779 0.046256722 0)
(-0.15353757 0.045966122 0)
(-0.15568322 0.04636957 0)
(-0.15805545 0.047564322 0)
(-0.16092681 0.049604192 0)
(-0.16464234 0.052483118 0)
(-0.16965788 0.056125928 0)
(-0.17655068 0.060320094 0)
(-0.18588823 0.064565342 0)
(-0.19777086 0.067859839 0)
(-0.21180722 0.069120666 0)
(-0.22815982 0.067703348 0)
(-0.24674959 0.06231758 0)
(-0.26484651 0.051238016 0)
(-0.28075877 0.036151414 0)
(-0.29901807 0.025328488 0)
(-0.32177382 0.028633275 0)
(-0.33395752 0.028256392 0)
(-0.2941266 -0.052967532 0)
(-0.14745854 -0.31200907 0)
(0.021133214 -0.71218887 0)
(-0.040893572 -0.86842991 0)
(-0.071273018 -1.0615888 0)
(-0.0094880928 -1.3193533 0)
(0.086987048 -1.4805812 0)
(0.19658365 -1.6184191 0)
(0.29094109 -1.7852857 0)
(0.41386931 -1.7734388 0)