/*--------------------------------*- C++ -*----------------------------------*\
  =========                 |
  \\      /  F ield         | OpenFOAM: The Open Source CFD Toolbox
   \\    /   O peration     | Website:  https://openfoam.org
    \\  /    A nd           | Version:  9
     \\/     M anipulation  |
\*---------------------------------------------------------------------------*/
FoamFile
{
    format      ascii;
    class       volScalarField;
    location    "400";
    object      p;
}
// * * * * * * * * * * * * * * * * * * * * * * * * * * * * * * * * * * * * * //

dimensions      [0 2 -2 0 0 0 0];

internalField   nonuniform List<scalar> 
257864
(
-1.04942653e-07
-2.04989603e-06
3.86646802e-05
7.83329403e-06
-3.10588903e-05
-3.99218298e-05
-7.34260013e-05
-7.46067266e-05
-8.85324134e-05
4.76645197e-05
-1.19353605e-06
-6.6787138e-05
-5.9990824e-05
5.59389858e-05
2.13043097e-05
-3.26014315e-05
8.68330949e-05
7.02578004e-05
-1.87464752e-05
4.69070431e-05
-2.02779247e-05
7.2131971e-05
2.21342715e-05
-3.88411825e-05
6.20180502e-05
7.81425371e-06
4.830295e-05
-1.64642412e-06
-1.51548059e-06
-1.13133499e-08
-8.43830063e-05
1.74151024e-05
-6.94377275e-05
-6.8435063e-05
-1.66236444e-05
-0.000139316537
-5.04281011e-05
-1.72459459e-06
-0.000168666073
-4.03329621e-05
1.35311578e-05
-5.56456484e-05
-3.02705717e-06
-0.000147644587
-3.59848549e-05
-6.45009875e-05
-7.53481571e-05
1.11809558e-08
-7.70418063e-05
-4.76660421e-06
-8.82198077e-05
7.78686416e-05
8.85703247e-05
9.9883593e-05
1.4565993e-05
-4.90019216e-05
-0.000112449869
-0.000158037936
-0.000164863981
-0.000168128287
5.43871049e-05
-4.33050698e-05
-0.000160862097
-0.000183243359
7.36254675e-05
-4.60200983e-05
-0.000156594407
0.000151745783
-1.20589477e-05
-0.00015205863
3.16986772e-05
-0.000116351577
0.000193122147
-2.99758427e-05
-0.000193991974
0.000182697719
-5.85308343e-05
0.000161042914
-6.72330734e-05
-4.65661978e-05
-7.04642546e-06
-0.000213070107
9.65847796e-07
-0.000160166333
-0.000132119221
-4.34573124e-05
-0.000284430672
-0.000142197156
5.45526764e-05
-0.000325540104
-0.000117955971
0.000208251366
-0.000153982904
5.15358466e-05
-0.000292373982
-7.10383379e-05
-0.000118895503
-0.000161549863
0.000123287673
-0.000173108956
9.1638281e-05
-0.000172836733
2.74743743e-05
3.22273072e-05
5.15790622e-05
-1.77846976e-05
-7.29066245e-05
-0.000128331135
-0.000161678399
-0.000163517573
-0.000167644688
2.13432714e-05
-6.10838951e-05
-0.000169286535
-0.000139457747
3.30917514e-05
-4.98711698e-05
-0.000122646672
0.000109245184
-1.14825619e-05
-0.000118231218
3.89903137e-06
-0.000112997449
0.000124156879
-4.39033687e-05
-0.000162432826
0.000112882923
-7.07976971e-05
9.4553833e-05
-8.05291683e-05
-6.07733382e-05
-3.75573844e-05
-0.000190715557
-1.94833401e-05
-0.000152953987
-0.000143188069
-6.85396577e-05
-0.000256126145
-0.000147191208
9.88308706e-06
-0.00029042975
-0.000130621149
0.000123682184
-0.000146890315
4.20404729e-06
-0.000259821459
-9.08875529e-05
-0.000129724614
-0.000171605724
5.78149403e-05
-0.00017800085
3.34596388e-05
-0.000174907546
-1.7064256e-06
-3.33925024e-06
3.11696692e-05
4.58961383e-06
-2.28476944e-05
-5.54641854e-05
-7.79458142e-05
-7.08649749e-05
-7.15560182e-05
3.6818155e-05
-6.88572776e-07
-8.28181524e-05
-1.27770074e-05
5.08864334e-05
3.0109247e-05
4.22379388e-07
8.45961e-05
6.06703186e-05
1.2432867e-05
4.48613673e-05
-8.54162374e-06
6.97501505e-05
2.74639077e-05
-1.29695196e-05
5.89735652e-05
1.14899643e-05
4.63666643e-05
9.29607123e-07
5.42802282e-06
4.29014511e-07
-5.9215052e-05
1.35765764e-05
-3.89556851e-05
-5.2257251e-05
-2.04794647e-05
-0.000109907008
-5.4866868e-05
-7.13511753e-08
-0.000133306558
-4.31526411e-05
2.25475286e-05
-2.64211203e-05
-7.64118171e-07
-0.000110296035
-3.13045737e-05
-4.22772345e-05
-6.72219142e-05
9.09602535e-08
-7.53031499e-05
-4.28617778e-06
-7.53005939e-05
7.42163989e-05
8.43726854e-05
9.47576979e-05
9.64200972e-06
-5.35790539e-05
-0.000116927546
-0.000159826968
-0.000166808583
-0.000169961352
5.00983485e-05
-4.70904598e-05
-0.000164849986
-0.000181804329
6.88856356e-05
-4.75453357e-05
-0.000155429768
0.000148462343
-1.18346502e-05
-0.000151376762
2.93916817e-05
-0.000117887392
0.000189415946
-3.11452644e-05
-0.000194991912
0.000178968741
-6.06319625e-05
0.000157685252
-6.90631493e-05
-4.76134457e-05
-9.36195191e-06
-0.000212175601
-1.15353501e-06
-0.000159948849
-0.000134514904
-4.65724448e-05
-0.000284474996
-0.000144738051
5.15803363e-05
-0.000326404316
-0.000121216842
0.00020533021
-0.000156206796
4.96501405e-05
-0.000291981252
-7.21985335e-05
-0.000121673838
-0.000165846122
0.000119428577
-0.000177155982
8.81932438e-05
-0.000175417986
2.98521679e-05
3.48844898e-05
5.35868204e-05
-1.73472399e-05
-7.32720318e-05
-0.000129296302
-0.000163068839
-0.000165131472
-0.000169171385
2.22535845e-05
-6.20526857e-05
-0.000171137392
-0.000144142762
3.45014954e-05
-5.1600601e-05
-0.000126729055
0.000112003314
-1.2961681e-05
-0.000122326134
4.69338788e-06
-0.000114972539
0.000128719078
-4.42942839e-05
-0.000166234696
0.000117476153
-7.14945853e-05
9.88326531e-05
-8.10613346e-05
-6.09868544e-05
-3.67701666e-05
-0.000193491858
-1.91973919e-05
-0.0001548229
-0.000143864676
-6.83385517e-05
-0.000259367514
-0.000148212798
1.15964141e-05
-0.00029431476
-0.000131149862
0.000128280999
-0.000148334109
6.12867135e-06
-0.000263080964
-9.06332091e-05
-0.000130051063
-0.00017234229
6.12662813e-05
-0.000179
3.62806183e-05
-0.000176080398
3.06310296e-05
4.94768678e-05
2.35123173e-05
1.35482996e-05
4.37996016e-05
-1.11471229e-05
-1.37720169e-06
-6.99386589e-06
-1.81651651e-05
-3.1737421e-05
-1.80710901e-05
-3.03836294e-05
-7.04153007e-05
-8.18095514e-05
3.55448072e-06
-4.49809431e-05
-5.52007553e-05
2.70519917e-05
-0.000108864829
-0.000130041237
1.75936489e-07
-6.10856171e-05
-7.58256226e-05
2.98886531e-05
3.94453247e-05
-0.000138042043
-0.000136378792
-5.64321671e-06
-7.03975129e-05
-7.04068643e-05
3.43263879e-05
2.63473949e-05
-0.000139996319
-0.000144571259
6.67235365e-05
0.000136422458
5.4737074e-05
3.19512953e-05
4.96810092e-05
1.81300591e-05
4.76775783e-05
2.84230136e-05
-4.0939944e-06
0.000118324243
9.7318471e-06
-6.18510587e-05
2.2202883e-05
-1.35237051e-05
-7.50193655e-05
5.63298706e-05
1.30936729e-06
-9.96410282e-05
-0.000173736871
-9.22179436e-06
-1.72193402e-05
-0.000101011595
-1.1220814e-05
-5.85493188e-05
-5.77879012e-05
-0.000197848482
-4.50392991e-05
-0.000115353923
-6.67781833e-05
-0.000114837047
-0.000213350253
-5.02070988e-05
-0.000122046722
-0.000127841084
-6.85293765e-05
-0.000159557191
-0.000151194194
-9.81703052e-05
-0.000161278187
-0.000162607243
-8.77176463e-05
-0.000166573326
-0.000172332672
6.89967798e-05
7.26582085e-05
7.48580603e-05
3.01065257e-05
0.000104023238
-6.52722307e-06
6.36713542e-05
3.23964041e-05
-5.23655895e-05
8.54396798e-05
-1.22942113e-05
-0.000127878078
1.26250808e-05
1.39116037e-05
-2.35317548e-05
2.67567377e-05
-3.26734614e-05
-5.85190849e-05
-0.000105065168
-3.79033545e-05
-5.74284725e-05
-0.000109122222
-0.000129778334
-0.000164938432
-0.000254379811
-0.000142130884
8.72050523e-05
5.98032391e-05
0.000144621612
4.37682765e-05
6.12573188e-05
6.37900622e-05
-2.94498048e-05
4.5715807e-05
1.95012624e-05
-0.000119106723
1.01439607e-06
1.47150457e-06
3.86804107e-05
-7.00747685e-05
-6.67132392e-05
-0.000119181744
-5.04166005e-05
-0.000222843979
-0.000124622068
8.34937625e-05
0.000102369501
7.59970244e-05
7.17872443e-05
1.95311782e-05
7.44576168e-05
6.87875982e-05
-6.80518317e-05
2.41875748e-05
9.75568093e-07
-3.82866594e-05
0.000111163326
-3.46548926e-05
-8.03730197e-05
-0.000147500092
-8.17036803e-05
-1.38724125e-05
-0.000201818718
-0.00011849477
6.19460203e-05
3.89796252e-05
6.50460416e-05
4.70512499e-05
-1.95901416e-05
2.71518286e-05
1.17552213e-05
-0.000123616102
-2.05657333e-05
-1.60216475e-05
7.45919584e-06
-0.000123594887
-0.000113025851
-0.000111577084
5.0060515e-05
2.32791386e-05
3.70613404e-05
2.84708835e-05
-3.20560346e-05
0.000124027219
-1.43511573e-05
-2.7685793e-05
-0.000125866094
-9.00873889e-05
-3.7044627e-05
-4.13429717e-05
-0.000219812722
-0.000139005473
-0.000156650641
3.93366741e-05
1.18808331e-05
2.53836314e-05
1.86291813e-05
-4.33175496e-05
0.000112285268
-2.91519905e-05
-3.58685281e-05
-0.000143286858
-5.45938138e-05
-6.68296044e-05
-6.63483026e-05
-0.000164505944
-0.000179105386
2.91896272e-05
1.18799867e-05
1.53144733e-05
1.330204e-05
-5.12958896e-05
9.39435715e-05
-4.17145384e-05
-3.1322251e-05
-0.000144701647
-4.64685732e-05
-5.67609996e-05
-7.70173647e-05
-0.00015112333
-0.000159664771
3.05886165e-05
4.30482094e-05
8.43681016e-06
1.96596752e-05
-3.60652802e-05
-2.31087927e-05
1.55980573e-06
-0.000149211714
-7.06719176e-05
-2.35391578e-05
-5.85564616e-05
-0.000176168558
-0.000120898539
2.31977057e-05
3.29199683e-05
-2.49317377e-05
4.1141333e-05
0.000143797681
-9.89933167e-05
-6.39764499e-05
-3.89559896e-05
-3.44254932e-05
-0.000156928149
-0.000144490647
-0.000186877101
1.88225508e-05
-6.04643628e-06
4.35183698e-05
-6.12784442e-05
-3.9028742e-05
-2.39003005e-05
-9.95151579e-05
-1.49108652e-05
-0.000129630819
-0.000101557653
-0.000196934427
-0.000154302502
1.52712538e-05
0.000108240433
-2.68890432e-05
1.77304726e-06
-5.14974504e-05
-7.40044734e-05
1.81679862e-05
-0.000165434946
-5.56050822e-05
-0.000139471569
-0.000148071015
5.85574126e-06
-1.87093795e-05
-1.88248949e-05
-5.70819895e-05
-9.79942511e-05
-4.81203235e-05
-6.3670733e-05
-0.000206141669
-0.000120484023
-0.000249765647
2.88149492e-06
3.31498875e-05
-4.01572133e-05
2.8915299e-06
-2.27662914e-05
-9.73279671e-05
-3.35403914e-05
-0.00015836344
-4.33924689e-05
-0.000144210313
-0.000137656276
1.54220531e-05
-3.1436072e-06
0.000115229848
-1.60443461e-05
-0.000139761713
-3.8031967e-05
-0.000142159501
1.23492804e-05
-0.000245136991
-0.00010174496
-0.000251993804
-0.000282802164
-1.76687492e-05
3.17882011e-06
-4.06126033e-05
-8.42289318e-05
1.64817817e-05
-0.000122135422
-2.92871518e-05
-0.000125964599
-0.000144779544
9.53531652e-06
9.20053532e-05
-7.60581219e-05
-3.94685492e-06
-4.77600498e-05
0.000120401784
-0.000135095325
1.8324292e-05
-0.000139103594
-8.55476643e-05
-0.000146001352
-0.000163660862
1.69298505e-05
-2.95548475e-06
0.000108241743
1.62703791e-05
-0.000120208865
-3.1047694e-05
-7.83485161e-05
5.717888e-06
-0.000225934135
-7.74842795e-05
-0.000169573738
-0.000257338798
-2.91103635e-06
-2.17987023e-05
-3.75823134e-06
-0.000103523365
-8.14987201e-05
-4.77397081e-05
-8.83825846e-05
-0.000166768513
-0.000141042591
-3.70025626e-05
-5.32415757e-05
-8.31268791e-05
-0.000112623455
-8.19737023e-05
-0.000125738832
-0.000175748689
-5.32614538e-05
-2.3038384e-06
-6.73430571e-05
-0.000116047946
7.77200705e-05
-0.000149673328
-8.41311509e-05
-0.000166414821
-0.000171927368
-6.15464687e-05
-4.3438523e-06
-6.61682387e-05
5.84786901e-05
-0.000150939785
3.2932277e-05
-0.000145715912
-8.39949789e-05
-0.00017295899
-0.000171420837
-7.06077714e-05
-3.49033674e-06
-7.00731122e-05
3.45227126e-05
-0.000145551895
3.90170121e-05
-0.000145151996
-8.87637807e-05
-0.000172302821
-0.000172731939
9.27909234e-05
9.13600126e-05
8.68039621e-05
1.62600218e-05
8.49873235e-05
1.50003906e-05
1.04401287e-05
-3.80114906e-06
8.75519368e-06
-4.92438275e-06
-5.06624643e-05
-6.55211753e-05
-5.22365052e-05
-6.62713787e-05
7.14107563e-05
-9.38378076e-05
-0.000121744749
7.19774348e-05
-9.57715581e-05
-0.000123535532
9.49770322e-05
-0.000131385462
-0.000125642789
7.81025327e-05
9.51800225e-05
-0.000133342643
-0.000127547828
7.96425185e-05
-0.000129828397
-0.000135093948
8.87555934e-05
8.0083076e-05
-0.000131652362
-0.000137191436
0.000206555642
0.000205918868
8.39847635e-05
4.95318394e-05
8.27478452e-05
4.75716649e-05
0.000190485452
3.88344756e-05
-4.61357779e-05
0.000189508745
3.71268955e-05
-4.78066926e-05
3.0074634e-05
-9.00860019e-05
-0.000170093691
9.85448886e-05
2.85799152e-05
-9.25546851e-05
-0.000172183108
-3.90255398e-05
-6.51006073e-05
-0.000221874356
1.26986688e-05
-4.08626474e-05
-6.48520418e-05
-0.000223979331
-0.000101944657
-0.000234879044
-5.10163951e-05
-0.000104083027
-0.0002365912
-0.000125079504
-0.000115212185
-0.00012464115
-0.000153791787
-0.000159178646
-0.000155058507
-0.000163643533
-0.000166471247
-0.000165185035
-0.000173894196
-0.000169569843
-0.000175753121
0.000112258693
0.00011150393
0.000143959536
1.23771347e-05
0.000143099132
1.19113411e-05
0.000118483996
7.32075057e-06
-0.000123115832
0.000117149898
6.64270383e-06
-0.000123590572
-1.58879236e-05
-6.33262488e-05
-0.000139237543
5.31702343e-05
-1.78207504e-05
-6.26892842e-05
-0.000140078003
-0.000105740052
-4.46986663e-05
-0.000106719811
-0.000274935604
-0.000163456399
-0.000277059099
-0.000183522491
0.000215235296
7.33964251e-05
0.000216104902
7.31331942e-05
7.62413255e-05
3.84102433e-05
-0.000118250777
7.54956937e-05
3.88675327e-05
-0.000119291568
-6.32519613e-05
-7.20983256e-05
7.25237804e-05
-6.42075159e-05
-7.19335564e-05
-0.000238964438
-4.63510477e-05
-0.00023910269
-0.000156592678
0.00014023998
0.000141155543
0.000114625588
0.000108304325
-5.66814726e-05
0.000114936632
0.000109617868
-5.73223504e-05
-2.37205078e-05
-7.55417188e-05
-0.000183972939
0.000151152624
-2.46785415e-05
-7.67989723e-05
-0.000185910564
-0.000220859262
-1.10330968e-05
-0.000221760445
-0.000152583596
7.1189489e-05
7.24823061e-05
5.26610398e-05
3.68056941e-05
-0.000118644097
5.3200152e-05
3.82217063e-05
-0.000119687256
-0.000118758439
-0.000118960107
3.23031347e-05
-0.000119410242
-0.000121180294
-0.000117704963
5.45025568e-05
5.56754328e-05
6.86532488e-06
-8.15261713e-06
-0.000128484477
0.000194932628
8.0810129e-06
-7.5767968e-06
-0.00012758622
-0.000236295286
-0.000166101675
-2.97356616e-05
-0.000237363621
-0.000166807479
-0.000196748731
4.50365091e-05
4.52089984e-05
-8.56373474e-06
-1.28837466e-05
-0.00015130384
0.000185076803
-7.91548419e-06
-1.19487328e-05
-0.000153957274
-0.000200448608
-0.000217220551
-5.89188831e-05
-0.000201075149
-0.00021855263
4.93919694e-05
4.97208035e-05
-2.08993257e-05
-7.02399327e-06
-0.000146539839
0.00016321175
-2.05199945e-05
-5.64842243e-06
-0.00014705771
-0.000180705164
-0.0001894418
-6.73921691e-05
-0.000182863562
-0.00019081385
8.76448959e-05
8.98091105e-05
5.63738058e-06
3.57898822e-05
-0.000154726645
8.27774737e-06
3.74716101e-05
-0.00015593273
-0.000208526083
-0.000145357592
-4.62048556e-05
-0.000209730947
-0.000145683743
9.31569787e-05
0.00023704628
-9.32257063e-05
9.54517729e-05
0.000239147431
-9.38785618e-05
-0.000160658005
-0.000150312556
-6.11765722e-06
-0.000160286283
-0.000150832151
-0.000213698774
9.83534172e-05
-3.97373557e-05
0.000100252659
-3.84667289e-05
-0.000132623267
-8.96728274e-05
-0.000223757506
2.63445682e-06
-0.000134081321
-8.99946407e-05
-0.000224067415
-0.000160108522
0.0001903435
0.000193179047
-5.29468223e-05
6.7207047e-05
-0.000174472742
-5.23829739e-05
6.89815801e-05
-0.000176610234
-0.000170903856
-0.000133018469
-0.000171396373
8.19526077e-06
-2.79006456e-05
8.85263707e-06
-2.76716454e-05
-0.000210483078
-0.000109486066
-4.31462108e-05
-0.000210625999
-0.000111708124
-0.000286103463
9.49304828e-05
9.70457311e-05
-8.19136255e-05
-1.10259651e-05
-0.000170074281
-8.18894039e-05
-1.03114384e-05
-0.000172933563
-0.000161753597
-0.000143630727
-0.000162116642
0.000194272601
1.83484234e-05
0.000197295404
2.00825714e-05
-0.000251133834
-8.65440062e-05
-0.000283888485
5.63113991e-05
-0.000252465615
-8.69682123e-05
-0.000286172044
-0.000328311354
-7.11651836e-05
7.23434756e-05
-0.000114391335
-7.0671489e-05
7.4421196e-05
-0.000115402565
-0.000149013721
-0.000119380421
-0.00015051328
0.000171659134
0.000175556318
-0.000128657274
6.52607156e-05
-0.000149067314
0.000212376789
-0.000131313672
6.83403472e-05
-0.000150556899
-0.000188776014
-0.000156196407
-0.000187494341
0.000190085591
5.79566885e-05
0.000194447884
6.0929366e-05
-0.000230484532
-6.24171496e-05
-0.000185708292
5.42613849e-05
-0.000231070458
-6.13412129e-05
-0.000184416788
-0.000293416166
3.84184832e-05
-9.56186365e-05
4.18149624e-05
-9.53861767e-05
-0.000187642606
-0.000131736083
-6.97870911e-05
-0.00018619001
-0.000133575598
-7.00463446e-05
-9.59931904e-05
-6.90052098e-05
-9.62145452e-05
-0.000173182275
-0.000120174553
-0.000176085779
-9.77921532e-05
0.000152658907
-0.000139188654
-9.90260401e-05
0.000154264545
-0.000142281399
-0.000170856093
-0.000164599983
-0.000174010153
-0.000140259319
8.92946998e-05
-0.000135062092
0.000124760977
-0.00014339143
9.06231745e-05
-0.000137193954
-0.000171744174
-0.000176226978
-0.000173800194
-0.000135168231
9.7296003e-05
-0.000135492216
9.28407626e-05
-0.000137219688
9.80045133e-05
-0.000137558695
-0.000175022766
-0.000174767247
-0.000176815232
4.45699569e-05
2.29479134e-05
3.86231784e-05
-1.7330002e-05
1.80707092e-05
2.60344381e-06
-2.47230224e-05
-3.72771506e-05
-3.08460412e-06
-9.94990355e-06
-7.72878461e-05
-8.57198745e-05
-2.77082152e-05
-3.23108478e-05
2.50549141e-05
-0.000115307066
-0.000134945194
2.41228412e-06
-5.04285064e-05
-5.75399197e-05
3.73211454e-05
-0.000142996857
-0.000140473816
-1.70493769e-06
-1.34005662e-06
-6.37922309e-05
-6.25623685e-05
2.4488711e-05
-0.000143950582
-0.000149470746
-3.34327215e-06
-6.64808314e-06
-6.42481962e-05
-6.77838997e-05
0.000134196583
6.51011708e-05
4.5112672e-05
1.16660292e-05
4.59793479e-05
2.70485758e-05
0.000116113986
4.36567229e-06
-6.52262175e-05
4.72025462e-05
2.46427778e-05
-5.12846726e-06
-5.00795157e-06
-0.000105022245
-0.000178169838
3.12183532e-05
1.19124231e-05
-3.50814858e-05
-9.28837148e-05
-6.52229446e-05
-5.14567747e-05
-0.000199597036
4.36457277e-06
-2.06729381e-05
2.30604829e-05
-8.35097873e-05
-0.000121008625
-0.000216224358
-2.32644329e-05
-5.13928946e-05
-0.000101102061
-0.000126762364
-5.61843299e-05
-4.94898785e-05
-0.000152606719
-7.87613074e-05
-6.3212675e-05
-0.000163928908
-7.17089484e-05
-7.08245359e-05
-0.00017453421
-7.24176371e-05
-7.7114185e-05
6.85699183e-05
6.18362342e-05
0.000100504719
-1.03793876e-05
7.47969274e-05
2.62119318e-05
8.1171598e-05
-1.56367129e-05
-0.000129202632
6.24272221e-05
3.4167084e-05
-4.1031965e-05
-3.75689284e-05
-5.37445622e-05
-0.000103736977
3.66999871e-05
1.29520129e-05
2.58591963e-05
1.54230933e-05
-0.000107344316
-1.19211665e-06
-2.27050988e-05
-0.000260644673
-8.35448706e-05
-0.000141055685
-1.35598048e-05
0.000144395009
3.94414949e-05
8.4951216e-05
5.71228558e-05
4.02529925e-05
1.73509928e-05
-0.000121631542
5.18879728e-05
5.72367119e-05
-2.98398866e-05
-7.34149031e-05
-6.37947782e-05
5.07041217e-05
-3.73807746e-06
2.71294948e-05
-0.000224625365
2.95279721e-05
-0.00010090303
-3.03253056e-07
9.99687164e-05
8.33134553e-05
7.16273346e-05
6.58990213e-05
-7.24375541e-05
7.09454195e-05
6.6398603e-05
9.01459517e-06
-3.89775395e-05
-8.34430106e-05
-0.000152044935
8.46763786e-05
2.61197548e-05
5.374284e-06
-1.12790608e-05
-0.000204478305
6.01681467e-05
-7.73391347e-05
1.15456034e-05
3.5958216e-05
5.66002964e-05
2.23060229e-05
8.5870143e-06
-0.000127000114
5.6185366e-05
4.56435598e-05
-2.75922503e-05
-0.000126134197
-0.000115956526
4.44624526e-05
-2.82120808e-05
-8.45865517e-06
-9.53206673e-06
1.94210965e-05
4.392767e-05
-1.7856331e-05
-3.22534683e-05
-0.000124903886
6.99791125e-05
3.44688881e-05
2.50292241e-05
-1.36492256e-05
-0.000224638855
-0.000140413568
2.65321956e-05
-9.25780263e-05
-3.19924188e-06
-1.41870432e-05
1.00361062e-05
3.33627218e-05
-3.37859677e-05
-3.87579232e-05
-0.000143578414
5.91781285e-05
2.22860305e-05
1.57217676e-05
-2.76670349e-05
-0.000167247315
-0.000181691568
1.05046607e-05
-1.71488869e-05
-2.7770617e-05
1.08052775e-05
2.44392227e-05
-4.54313865e-05
-3.38861488e-05
-0.000144629963
4.65264332e-05
1.13512375e-05
1.05516929e-05
-3.46308072e-05
-0.000154468992
-0.000164139142
1.80916877e-07
-1.62150779e-05
-2.51657691e-05
4.19692292e-05
2.94954113e-05
-2.65468463e-05
-1.37160212e-06
-0.000152817728
8.50218398e-06
1.49427706e-05
-3.22712735e-05
-0.00017863794
-0.000121990152
4.94685717e-06
-3.41832829e-05
1.32729978e-05
3.89918651e-05
0.000147002274
-0.000101600704
2.24004872e-05
3.7259667e-05
-1.62950398e-05
-0.00015604153
-0.000145798195
-1.11571996e-07
-4.25656461e-05
-2.67443505e-05
-6.04698339e-05
4.20853685e-05
-6.53793124e-05
1.326461e-05
-1.38078357e-05
-0.000132225171
-0.000105689788
-0.000198616067
1.33216043e-05
-2.84170883e-05
-3.27700413e-05
-6.56429146e-05
-4.01596288e-05
0.00010941824
1.90660338e-05
-7.77623752e-05
1.58585009e-05
-0.00016915285
-2.54127958e-05
1.10050858e-06
-4.06002013e-05
-0.000147978884
-5.33357599e-05
-1.14273435e-05
-2.18979179e-05
-6.17281321e-05
1.43218896e-06
-1.99289662e-05
-0.00020800839
-0.000126115144
-2.10269277e-05
-8.72027403e-05
-4.01523983e-05
-0.000111227102
3.34849891e-05
-8.16798113e-07
-0.000100907348
-3.66787675e-05
-0.000161760736
-4.00303302e-05
-2.17492768e-06
-3.79599322e-05
-0.000135500859
-5.58472214e-05
-1.49447772e-06
0.000116714879
-1.89580417e-05
2.06962352e-05
-6.41723261e-06
-0.000250033997
-0.00010642931
-0.000258854382
-2.11302479e-07
-0.000122126397
-4.14893887e-05
-0.000116140328
-0.000134570401
-8.87437343e-05
1.6042511e-05
-0.000125813905
-2.29581439e-05
-2.2630743e-06
-4.32546784e-05
-0.000147280692
-4.40827891e-05
-3.88009112e-05
9.45743078e-05
1.68765148e-05
-0.000140083984
1.76241866e-05
-0.000137764358
2.29388418e-05
-4.72573546e-05
3.84284802e-06
-1.87131639e-05
-0.000159174861
-2.76695655e-05
-2.60996485e-05
0.00011182553
1.53775583e-05
2.39662548e-05
5.80625585e-06
-0.000226731928
-8.0842719e-05
-0.000167945875
-1.04077736e-06
-0.000106828976
-2.07392714e-05
-4.15276377e-05
-0.000111502929
-4.43588039e-06
-0.000109232816
-1.06753138e-06
-3.10395926e-05
-0.000161784846
-0.000147703663
-3.21199584e-05
-3.383875e-05
-5.73295074e-05
-8.67496649e-05
-0.000116611465
-2.5447634e-05
-4.87948944e-05
-0.000181429268
-4.31813012e-05
-7.35871843e-05
-0.000120784637
7.71453685e-05
-0.000157256288
-5.04989199e-05
2.45948822e-07
-6.82450286e-05
-0.00017681581
-6.83885765e-05
-7.72327185e-05
-0.000158597338
3.20669624e-05
-0.000150997669
1.64211501e-07
-6.82219264e-05
-4.08662565e-06
-6.70568588e-05
-0.000174289664
-7.63672555e-05
-7.53142059e-05
-0.000150685957
3.74146761e-05
-0.000150126562
-4.2934599e-06
-6.73750525e-05
-3.98799744e-06
-6.7186767e-05
-0.000174911822
-7.6271046e-05
-7.53857946e-05
2.2888602e-05
4.24692822e-05
1.80549644e-05
2.83396944e-06
3.65386208e-05
-1.84532978e-05
-2.81333209e-06
-9.64966917e-06
-2.57770142e-05
-3.80252277e-05
-2.72449285e-05
-3.18055059e-05
-7.75988067e-05
-8.56467119e-05
2.40732444e-06
-4.98043598e-05
-5.67902554e-05
2.31073317e-05
-0.000115115615
-0.000134285572
-1.36538038e-06
-6.30037528e-05
-6.17915643e-05
2.52948416e-05
3.47069482e-05
-0.000142284643
-0.000139850663
-6.60644973e-06
-6.34602787e-05
-6.69479344e-05
2.96565052e-05
2.19863513e-05
-0.00014326537
-0.00014869466
6.4797333e-05
0.000130900507
4.60084588e-05
2.72097771e-05
4.34874549e-05
1.0366837e-05
4.6924385e-05
2.4844665e-05
-4.57954815e-06
0.000112770247
3.26754977e-06
-6.56903049e-05
1.21001011e-05
-3.45042924e-05
-9.22683752e-05
4.94688154e-05
-6.22736557e-06
-0.000105119248
-0.000177779486
-2.02357865e-05
2.36151456e-05
-8.27500056e-05
-1.87646756e-05
-6.57362212e-05
-5.07734227e-05
-0.000197875921
-5.06819678e-05
-0.000100249722
-7.31865312e-05
-0.000120827749
-0.0002146178
-4.88786778e-05
-0.000127987181
-0.000125819876
-6.23685325e-05
-0.000160762017
-0.000151452747
-6.99926106e-05
-0.000162282231
-0.000162673585
-7.61919911e-05
-0.000166319652
-0.000173115959
6.18255923e-05
6.66618194e-05
7.46098686e-05
2.64882761e-05
9.857602e-05
-1.09099821e-05
6.22824359e-05
3.4526043e-05
-4.034301e-05
7.9616786e-05
-1.59826406e-05
-0.000128662337
1.33193658e-05
2.63476697e-05
1.61389261e-05
2.01448478e-05
-3.7975943e-05
-5.29624047e-05
-0.000101865732
-2.16857631e-05
-6.12668193e-05
-0.000107498255
-0.000140240925
-0.00016904037
-0.000259260893
-0.000137254952
8.46874339e-05
5.72809281e-05
0.000140611216
3.82957859e-05
5.19833866e-05
5.75554494e-05
-2.90490862e-05
3.89448782e-05
1.68739345e-05
-0.000120841854
-3.15281031e-06
2.78045678e-05
3.17565359e-05
-7.31544699e-05
-6.27731009e-05
-0.000100032745
-4.92993588e-05
-0.000223145895
-0.000120654582
8.31051937e-05
9.80754197e-05
7.08035776e-05
6.646804e-05
9.89884424e-06
6.98517958e-05
6.40940928e-05
-7.20349456e-05
2.66801283e-05
6.2290871e-06
-1.01941819e-05
0.00010643664
-3.88341186e-05
-8.25610532e-05
-0.000149255894
-7.63333093e-05
-1.07802838e-05
-0.000202693446
-0.000115942576
5.67636571e-05
3.47762217e-05
5.64549164e-05
4.60484682e-05
-2.66605622e-05
2.15009251e-05
8.97423109e-06
-0.000126129238
-2.71629903e-05
-7.44913186e-06
3.37363005e-06
-0.000125110723
-0.00011448721
-0.000111536346
4.42009735e-05
1.80306647e-05
3.47901818e-05
2.55759758e-05
-1.25169331e-05
0.000120260303
-1.80497044e-05
-3.22779216e-05
-0.000123585977
-9.1434671e-05
-1.62482307e-06
-4.25596161e-05
-0.000222348066
-0.000138348812
-0.000159353418
3.38477987e-05
7.05792525e-06
2.26941276e-05
1.65076749e-05
-2.48283616e-05
0.000108468458
-3.36497931e-05
-4.07088604e-05
-0.000141769312
-1.59060716e-05
-2.59544158e-05
-6.94115836e-05
-0.000163984699
-0.00017865173
2.49557984e-05
7.72157317e-06
1.23064819e-05
1.13900476e-05
-3.3178826e-05
9.06075028e-05
-4.59702815e-05
-3.43520252e-05
-0.000142555005
-1.47703672e-05
-2.41080476e-05
-7.99138414e-05
-0.000151615308
-0.000159872635
2.96071355e-05
3.96130089e-05
8.84546098e-06
1.52129436e-05
-3.06912365e-05
-2.6791503e-05
-2.70042026e-06
-0.000150707631
-3.26460444e-05
1.46641627e-05
-5.92340419e-05
-0.000174827716
-0.000118563869
2.25384352e-05
3.68569081e-05
-1.54194284e-05
3.66603021e-05
0.000139896138
-0.000100402243
-4.141045e-05
-2.54220187e-05
-3.80807858e-05
-0.000153730172
-0.00014344664
-0.000187236866
1.33927648e-05
-1.32364131e-05
3.89684278e-05
-6.54911013e-05
-2.72386639e-05
-3.18988103e-05
-6.43639178e-05
-1.91855713e-05
-0.000130158352
-0.000104933505
-0.000195004504
-0.000150496673
1.86686924e-05
0.000104329262
-2.4770376e-05
1.26435295e-06
-3.92471511e-05
-7.76970412e-05
1.34652193e-05
-0.000166510285
-1.01164535e-05
-0.000141848095
-0.000144607136
1.77921522e-06
-1.93217022e-05
-2.28144252e-05
-6.2168128e-05
-8.5842878e-05
-3.91333372e-05
-6.87134374e-05
-0.00020570539
-0.000124972745
-0.000252388926
-6.49145322e-07
2.99543708e-05
-3.92678194e-05
-1.71904285e-06
-3.67956375e-05
-0.000100611325
-3.72761899e-05
-0.000159214536
-3.11701152e-07
-0.000145671647
-0.000132172655
2.02358096e-05
-6.04438051e-06
0.000111727904
-2.02250113e-05
-0.000120741976
-4.06170683e-05
-0.0001148729
7.88794998e-06
-0.000247780505
-0.000106101489
-0.000255476014
-0.000286383806
-2.22376108e-05
-1.94073338e-06
-4.24274722e-05
-8.81608802e-05
1.31108135e-05
-0.000124647572
-3.82043113e-05
-0.000129266722
-0.000144826714
1.66752679e-05
8.98182372e-05
-4.62182685e-05
4.02399085e-06
-1.74378172e-05
0.000118403036
-0.000138718362
1.54136327e-05
-0.000135413269
-2.49165956e-05
-0.000144512018
-0.000155912048
2.36344734e-05
5.98694282e-06
0.00010707419
1.34763963e-05
-0.000105683449
-2.00159234e-05
-4.03000552e-05
2.31254387e-06
-0.000224559186
-8.03396141e-05
-0.000165104739
-0.000256173271
-7.22551528e-07
-3.02033488e-05
-6.02938385e-06
-0.000108291608
-3.27145128e-05
-5.6321218e-05
-9.05097528e-05
-0.000158681553
-0.00014665033
-2.47304292e-05
-4.7917563e-05
-8.60883778e-05
-0.000116082169
-7.23504811e-05
-0.000128454163
-0.000179828706
-4.96383531e-05
7.66762763e-08
-6.72945494e-05
-0.000120380477
7.26724868e-05
-0.000156492617
-7.61839039e-05
-0.000170197203
-0.00017553611
-6.72371129e-05
-4.06137693e-06
-6.61560287e-05
5.41613919e-05
-0.000157802868
2.93502365e-05
-0.000150353215
-7.43252748e-05
-0.000176687772
-0.000172929821
-6.6492437e-05
-4.00737539e-06
-6.63148878e-05
3.07012019e-05
-0.000149949534
3.45734364e-05
-0.00014932963
-7.44254005e-05
-0.000173494289
-0.000173426766
8.75877633e-05
9.50565099e-05
8.12978008e-05
1.18602803e-05
8.86667412e-05
1.77956206e-05
5.53915899e-06
-8.00824565e-06
1.17322778e-05
-1.87983164e-06
-5.49130718e-05
-6.82743111e-05
-4.98657302e-05
-6.4292345e-05
6.82637361e-05
-9.78276929e-05
-0.000124901245
7.57024467e-05
-9.3764826e-05
-0.000122247251
9.07203333e-05
-0.000134564332
-0.00012898779
8.20934324e-05
9.95971313e-05
-0.00013221843
-0.000126063966
7.57578628e-05
-0.000133051531
-0.000138608322
9.30323036e-05
8.42625199e-05
-0.000130148918
-0.000135487715
0.000200964761
0.000212013452
7.94061468e-05
4.41285465e-05
8.5938731e-05
5.0765248e-05
0.000184362022
3.39077589e-05
-5.01827888e-05
0.000195430415
4.00613571e-05
-4.63429735e-05
2.53357789e-05
-9.46041753e-05
-0.000173686852
0.000102258443
3.14767322e-05
-9.15721977e-05
-0.000171963363
-4.36573292e-05
-6.46941551e-05
-0.000223490511
1.53422762e-05
-3.86291427e-05
-6.68287899e-05
-0.000226340111
-0.000106068668
-0.000236284692
-4.9037557e-05
-0.000102437656
-0.000238639226
-0.000125200198
-0.00011400129
-0.000124224789
-0.000155420352
-0.000158694101
-0.000154900598
-0.000165628912
-0.000166329139
-0.000164814178
-0.000176200306
-0.000169168199
-0.000175048366
0.00010795337
0.000115463704
0.000139668204
9.47294119e-06
0.000147117066
1.44349477e-05
0.000114108093
4.126143e-06
-0.000124832627
0.000120433384
9.03073057e-06
-0.000123188884
-2.03772461e-05
-6.3119256e-05
-0.000139061061
5.61639333e-05
-1.61790956e-05
-6.41084321e-05
-0.000143853918
-0.000107538427
-4.34404543e-05
-0.000107006586
-0.000277159382
-0.000163296981
-0.000278787889
-0.000187877442
0.000210888603
7.00025068e-05
0.000222838437
7.69614123e-05
7.22722433e-05
3.6484567e-05
-0.00012034087
7.9089154e-05
4.14117462e-05
-0.00011908829
-6.57324413e-05
-7.23558759e-05
7.65333338e-05
-6.31508232e-05
-7.29874777e-05
-0.000239140528
-4.60000168e-05
-0.000240274833
-0.000159744434
0.000137708641
0.000145621762
0.00011165895
0.000105795398
-5.90151608e-05
0.000119303906
0.000114481116
-5.52853585e-05
-2.65733052e-05
-7.79451233e-05
-0.000184282727
0.000155678857
-2.26330939e-05
-7.57165113e-05
-0.000188294578
-0.000221658894
-1.06278578e-05
-0.000222995006
-0.000155420242
6.90592176e-05
7.68045161e-05
5.00664198e-05
3.51651169e-05
-0.000120726137
5.69723216e-05
4.19672375e-05
-0.000118597123
-0.000120245972
-0.000121035986