/*--------------------------------*- C++ -*----------------------------------*\
  =========                 |
  \\      /  F ield         | OpenFOAM: The Open Source CFD Toolbox
   \\    /   O peration     | Website:  https://openfoam.org
    \\  /    A nd           | Version:  9
     \\/     M anipulation  |
\*---------------------------------------------------------------------------*/
FoamFile
{
    format      ascii;
    class       surfaceScalarField;
    location    "0.3";
    object      alphaPhi0.phase1;
}
// * * * * * * * * * * * * * * * * * * * * * * * * * * * * * * * * * * * * * //

dimensions      [0 3 -1 0 0 0 0];

internalField   nonuniform List<scalar> 
8032
(
-3.94026e-289
1.31851e-295
-1.1453e-282
3.95535e-289
-1.78408e-276
5.58518e-283
-1.85493e-270
5.26668e-277
-1.47601e-264
3.52764e-271
-9.77859e-259
1.79892e-265
-5.72352e-253
6.82678e-260
-3.10611e-247
1.47607e-254
-1.37545e-241
-2.57212e-242
-3.42983e-236
-3.88142e-236
-3.89109e-231
-1.54008e-230
-1.26717e-226
-2.31048e-225
-5.43219e-223
-9.36998e-221
-1.79338e-220
-5.19217e-217
-2.28538e-219
-2.49207e-214
3.955e-221
-6.28214e-213
2.36998e-219
-6.29285e-213
1.83757e-220
-2.50627e-214
4.54441e-223
-4.27715e-217
4.9438e-227
-3.58162e-221
7.01776e-232
-3.81792e-226
4.49294e-237
-1.77856e-231
1.61351e-242
-3.98563e-237
3.63042e-248
-2.85708e-243
6.75899e-254
1.5716e-255
1.17676e-259
7.812e-261
1.82241e-265
2.14193e-266
2.36693e-271
4.36934e-272
2.37459e-277
6.76786e-278
1.60755e-283
7.55416e-284
5.41465e-290
5.37611e-290
1.80751e-296
-4.45552e-282
3.13045e-288
-1.22101e-275
8.50743e-282
-1.69947e-269
1.11405e-275
-1.59596e-263
9.44579e-270
-1.15613e-257
5.76476e-264
-7.00504e-252
2.6746e-258
-3.76654e-246
9.25381e-253
-1.88617e-240
1.80865e-247
-7.59921e-235
-1.59191e-235
-1.68578e-229
-2.0791e-229
-1.66682e-224
-7.21842e-224
-4.68209e-220
-9.36053e-219
-1.77802e-216
-3.27177e-214
-5.39372e-214
-1.61559e-210
-6.61068e-213
-7.08154e-208
9.73148e-215
-1.72247e-206
6.8154e-213
-1.72439e-206
5.49921e-214
-7.10859e-208
1.47634e-216
-1.3248e-210
1.79683e-220
-1.23604e-214
2.75359e-225
-1.41847e-219
1.93325e-230
-7.26426e-225
7.62758e-236
-1.80818e-230
1.8628e-241
-1.43256e-236
3.74039e-247
1.68261e-248
7.03586e-253
9.04209e-254
1.17822e-258
2.68096e-259
1.65526e-264
5.91529e-265
1.79637e-270
9.91165e-271
1.31534e-276
1.19675e-276
4.78889e-283
9.21064e-283
3.34597e-289
-2.96552e-275
3.29867e-281
-7.33265e-269
8.05827e-275
-9.09353e-263
9.46039e-269
-7.6204e-257
7.12745e-263
-4.94212e-251
3.88349e-257
-2.69118e-245
1.61195e-251
-1.30568e-239
4.99589e-246
-5.92632e-234
8.67269e-241
-2.13724e-228
-4.93455e-229
-4.16742e-223
-5.53229e-223
-3.567e-218
-1.66584e-217
-8.64177e-214
-1.85681e-212
-2.926e-210
-5.58363e-208
-8.11258e-208
-2.46783e-204
-9.61625e-207
-9.81222e-202
9.5737e-209
-2.31375e-200
9.81532e-207
-2.31527e-200
8.21586e-208
-9.83558e-202
2.41042e-210
-2.01676e-204
3.26977e-214
-2.09167e-208
5.39538e-219
-2.58024e-213
4.16458e-224
-1.45287e-218
1.82496e-229
-4.04992e-224
4.92103e-235
-3.60475e-230
1.08616e-240
6.99283e-242
2.25135e-246
4.14397e-247
4.15956e-252
1.35576e-252
6.45102e-258
3.30232e-258
7.72981e-264
6.10909e-264
6.24886e-270
8.14363e-270
2.51185e-276
6.91949e-276
2.77409e-282
-1.4819e-268
2.33221e-274
-3.25566e-262
5.08674e-268
-3.55647e-256
5.25705e-262
-2.62791e-250
3.48296e-256
-1.50498e-244
1.6709e-250
-7.25495e-239
6.11364e-245
-3.12678e-233
1.67193e-239
-1.26623e-227
2.54562e-234
-4.03558e-222
-1.00493e-222
-6.85499e-217
-9.65402e-217
-5.05162e-212
-2.50488e-211
-1.05383e-207
-2.38595e-206
-3.19587e-204
-6.1425e-202
-8.04511e-202
-2.43301e-198
-9.26787e-201
-8.70878e-196
4.66258e-203
-1.99879e-194
9.3636e-201
-1.99946e-194
8.09615e-202
-8.72074e-196
2.61544e-204
-1.984e-198
3.94535e-208
-2.28807e-202
6.99924e-213
-3.03817e-207
5.94051e-218
-1.87854e-212
2.91494e-223
-5.89279e-218
8.82009e-229
-5.97003e-224
2.18198e-234
1.76306e-235
5.08669e-240
1.17605e-240
1.05907e-245
4.33646e-246
1.85281e-251
1.19154e-251
2.50533e-257
2.48758e-257
2.28571e-263
3.74217e-263
1.03678e-269
3.58755e-269
1.62296e-275
-6.14007e-262
1.29246e-267
-1.17535e-255
2.46344e-261
-1.1183e-249
2.21724e-255
-7.19756e-244
1.27721e-249
-3.59361e-238
5.32672e-244
-1.51368e-232
1.69578e-238
-5.72005e-227
4.04086e-233
-2.0401e-221
5.3469e-228
-5.68938e-216
-1.49719e-216
-8.3573e-211
-1.23159e-210
-5.27058e-206
-2.73556e-205
-9.42079e-202
-2.20873e-200
-2.56201e-198
-4.82316e-196
-5.81073e-196
-1.70797e-192
-6.5282e-195
-5.45477e-190
8.11866e-198
-1.22167e-188
6.54433e-195
-1.22183e-188
5.82051e-196
-5.45878e-190
2.08753e-198
-1.3914e-192
3.50258e-202
-1.79013e-196
6.68947e-207
-2.57272e-201
6.23476e-212
-1.74486e-206
3.44229e-217
-6.1744e-212
1.18401e-222
-7.18669e-218
3.33872e-228
3.13851e-229
8.91275e-234
2.39931e-234
2.13114e-239
1.01619e-239
4.28914e-245
3.21233e-245
6.67766e-251
7.72141e-251
7.0164e-257
1.3378e-256
3.66543e-263
1.47719e-262
7.69411e-269
-2.1974e-255
5.99008e-261
-3.60832e-249
9.8061e-255
-2.94998e-243
7.58202e-249
-1.63317e-237
3.75025e-243
-7.02671e-232
1.34363e-237
-2.55819e-226
3.68058e-232
-8.38933e-221
7.56577e-227
-2.60813e-215
8.64191e-222
-6.31121e-210
-1.72622e-210
-7.956e-205
-1.21261e-204
-4.25781e-200
-2.28539e-199
-6.45953e-196
-1.5459e-194
-1.5713e-192
-2.82263e-190
-3.1815e-190
-8.88352e-187
-3.49222e-189
-2.5014e-184
-3.58221e-192
-5.47109e-183
3.48456e-189
-5.47116e-183
3.17829e-190
-2.50234e-184
1.27763e-192
-7.23809e-187
2.3919e-196
-1.04518e-190
4.94478e-201
-1.64227e-195
5.05514e-206
-1.22231e-200
3.14792e-211
-4.8872e-206
1.24238e-216
-6.57897e-212
4.04496e-222
4.21279e-223
1.25388e-227
3.74261e-228
3.49568e-233
1.8484e-233
8.22444e-239
6.83082e-239
1.49906e-244
1.92234e-244
1.8454e-250
3.90208e-250
1.12967e-256
5.04881e-256
3.08198e-262
-6.8634e-249
2.37487e-254
-9.5508e-243
3.29502e-248
-6.63052e-237
2.16122e-242
-3.12458e-231
9.07694e-237
-1.14801e-225
2.76661e-231
-3.58369e-220
6.46641e-226
-1.01211e-214
1.13849e-220
-2.71925e-209
1.11697e-215
-5.66044e-204
-1.58927e-204
-6.0639e-199
-9.4691e-199
-2.72073e-194
-1.49534e-193
-3.45284e-190
-8.33828e-189
-7.46725e-187
-1.24743e-184
-1.33346e-184
-3.45764e-181
-1.4303e-183
-8.42543e-179
-2.92605e-186
-1.79802e-177
1.42419e-183
-1.79795e-177
1.33056e-184
-8.42715e-179
6.07084e-187
-2.821e-181
1.27574e-190
-4.61234e-185
2.88352e-195
-8.04263e-190
3.23494e-200
-6.58692e-195
2.27576e-205
-2.98302e-200
1.03754e-210
-4.67208e-206
3.93599e-216
4.39496e-217
1.43051e-221
4.58083e-222
4.7001e-227
2.66663e-227
1.30807e-232
1.16577e-232
2.82697e-238
3.88985e-238
4.13165e-244
9.37447e-244
3.00478e-250
1.44108e-249
1.04519e-255
-1.86262e-242
8.07542e-248
-2.17593e-236
9.39451e-242
-1.27215e-230
5.17764e-236
-5.06785e-225
1.83189e-230
-1.58107e-219
4.71969e-225
-4.21022e-214
9.3641e-220
-1.01793e-208
1.40569e-214
-2.3437e-203
1.17952e-209
-4.1521e-198
-1.18607e-198
-3.73001e-193
-5.92298e-193
-1.38019e-188
-7.70443e-188
-1.43554e-184
-3.46583e-183
-2.73475e-181
-4.12662e-179
-4.22686e-179
-9.94622e-176
-4.42452e-178
-2.02785e-173
-1.01067e-180
-4.21137e-172
4.4036e-178
-4.21111e-172
4.21675e-179
-2.02816e-173
2.2267e-181
-8.13799e-176
5.29829e-185
-1.52524e-179
1.32899e-189
-3.01545e-184
1.64055e-194
-2.73075e-189
1.307e-199
-1.40632e-194
6.92564e-205
-2.58171e-200
3.08199e-210
3.6079e-211
1.32134e-215
4.43852e-216
5.15123e-221
3.06608e-221
1.70912e-226
1.598e-226
4.41805e-232
6.37803e-232
7.73963e-238
1.84238e-237
6.75421e-244
3.39851e-243
2.95995e-249
-4.34313e-236
2.33666e-241
-4.23701e-230
2.2645e-235
-2.07728e-224
1.0429e-229
-6.97329e-219
3.09537e-224
-1.8423e-213
6.7212e-219
-4.17005e-208
1.12924e-213
-8.57896e-203
1.44076e-208
-1.67538e-197
1.02865e-203
-2.49045e-192
-7.19245e-193
-1.84347e-187
-2.95826e-187
-5.5041e-183
-3.09909e-182
-4.55693e-179
-1.09134e-177
-7.54941e-176
-9.87735e-174
-9.76347e-174
-2.03134e-170
-9.9455e-173
-3.22336e-168
-2.1169e-175
-6.48168e-167
9.90195e-173
-6.4813e-167
9.7425e-174
-3.2239e-168
6.16654e-176
-1.67066e-170
1.68195e-179
-3.65821e-174
4.78327e-184
-8.48558e-179
6.52858e-189
-8.55885e-184
5.91389e-194
-5.03981e-189
3.6698e-199
-1.09542e-194
1.9288e-204
2.3313e-205
9.79762e-210
3.39967e-210
4.5502e-215
2.79791e-215
1.80797e-220
1.7464e-220
5.62048e-226
8.38237e-226
1.18752e-231
2.92046e-231
1.25225e-237
6.50996e-237
6.8578e-243
-8.61295e-230
5.70507e-235
-7.00417e-224
4.59077e-229
-2.87745e-218
1.76336e-223
-8.13644e-213
4.38733e-218
-1.81784e-207
8.02635e-213
-3.48337e-202
1.14053e-207
-6.04671e-197
1.23199e-202
-9.87877e-192
7.42437e-198
-1.20939e-186
-3.51447e-187
-7.21035e-182
-1.16249e-181
-1.68538e-177
-9.51216e-177
-1.06073e-173
-2.50111e-172
-1.49947e-170
-1.57701e-168
-1.5093e-168
-2.67675e-165
-1.48847e-167
-2.68075e-163
-2.71335e-170
-5.14855e-162
1.48292e-167
-5.14832e-162
1.50668e-168
-2.6813e-163
1.23159e-170
-2.22269e-165
3.92452e-174
-5.89284e-169
1.30944e-178
-1.71536e-173
1.99051e-183
-1.95217e-178
2.0614e-188
-1.32407e-183
1.51342e-193
-3.45026e-189
9.48342e-199
1.17125e-199
5.73742e-204
2.03504e-204
3.18457e-209
2.00182e-209
1.51951e-214
1.50048e-214
5.69822e-220
8.68806e-220
1.45756e-225
3.66458e-225
1.86535e-231
9.91391e-231
1.2697e-236
-1.44204e-223
1.16688e-228
-9.7899e-218
7.79986e-223
-3.37561e-212
2.50203e-217
-8.04384e-207
5.22647e-212
-1.51607e-201
8.05954e-207
-2.44223e-196
9.6628e-202
-3.5326e-191
8.77594e-197
-4.73972e-186
4.40892e-192
-4.66391e-181
-1.35786e-181
-2.17175e-176
-3.4936e-176
-3.79039e-172
-2.13069e-171
-1.66193e-168
-3.82091e-167
-1.93901e-165
-1.33716e-163
-1.23175e-163
-1.72998e-160
-1.16006e-162
-8.48253e-160
-1.73416e-165
-1.81824e-159
1.15653e-162
-1.81822e-159
1.23013e-163
-8.4823e-160
1.60844e-165
-1.46582e-160
6.20554e-169
-5.18134e-164
2.59827e-173
-2.2704e-168
4.45626e-178
-3.0116e-173
5.31523e-183
-2.39066e-178
4.67555e-188
-7.58356e-184
3.5402e-193
4.43632e-194
2.57253e-198
9.26102e-199
1.71527e-203
1.09439e-203
9.86034e-209
9.88322e-209
4.47244e-214
6.92152e-214
1.3888e-219
3.54428e-219
2.164e-225
1.16749e-224
1.82409e-230
-2.03253e-217
1.99355e-222
-1.15562e-211
1.11009e-216
-3.35075e-206
2.98306e-211
-6.72055e-201
5.24135e-206
-1.06214e-195
6.80428e-201
-1.42161e-190
6.84169e-196
-1.68326e-185
5.1636e-191
-1.80953e-180
2.12443e-186
-1.38409e-175
-4.01453e-176
-4.80332e-171
-7.6247e-171
-5.71738e-167
-3.17548e-166
-1.39136e-163
-3.04395e-162
-1.23691e-160
-7.92985e-160
-3.19732e-160
-2.73354e-158
-3.29695e-160
-4.41704e-159
-3.95442e-163
-6.10496e-158
3.28901e-160
-6.10494e-158
3.26854e-160
-4.41701e-159
1.04743e-160
-1.4711e-158
5.38837e-164
-6.93437e-160
3.3961e-168
-1.53457e-163
6.78868e-173
-2.66682e-168
9.47606e-178
-2.638e-173
1.01426e-182
-1.05478e-178
9.42646e-188
1.19286e-188
8.32233e-193
3.02617e-193
6.72232e-198
4.3324e-198
4.6858e-203
4.74417e-203
2.5842e-208
4.03985e-208
9.78704e-214
2.52302e-213
1.8647e-219
1.01625e-218
1.94545e-224
-2.41202e-211
2.84547e-216
-1.152e-205
1.32591e-210
-2.80772e-200
2.99355e-205
-4.71385e-195
4.42195e-200
-6.1761e-190
4.80595e-195
-6.7483e-185
4.00663e-190
-6.38167e-180
2.46894e-185
-5.30824e-175
8.11582e-181
-2.9954e-170
-8.55761e-171
-7.09785e-166
-1.08572e-165
-4.51593e-162
-2.44461e-161
-8.10546e-160
-1.42448e-159
-7.39836e-160
-2.64254e-159
-1.96751e-157
-2.64303e-156
-2.61227e-155
-5.41403e-154
-2.49178e-158
-8.9385e-153
2.60732e-155
-8.93859e-153
1.89857e-157
-5.41391e-154
5.87463e-160
-1.23235e-156
7.1485e-160
-8.67217e-160
2.27608e-163
-3.58001e-160
5.96062e-168
-7.99873e-164
1.03673e-172
-1.38822e-168
1.39819e-177
-7.94345e-174
1.63338e-182
2.08061e-183
1.78225e-187
6.52454e-188
1.76671e-192
1.14636e-192
1.50864e-197
1.53786e-197
1.02012e-202
1.60561e-202
4.74494e-208
1.23159e-207
1.11214e-213
6.10295e-213
1.4389e-218
-2.41275e-205
3.40392e-210
-9.67898e-200
1.33201e-204
-1.97201e-194
2.52626e-199
-2.73919e-189
3.11992e-194
-2.922e-184
2.80576e-189
-2.54133e-179
1.90465e-184
-1.85152e-174
9.3432e-180
-1.12574e-169
2.36688e-175
-4.24129e-165
-1.15139e-165
-5.43294e-161
-7.48755e-161
-1.94016e-159
-5.54758e-159
-4.06442e-159
-4.10888e-158
-2.22005e-155
-2.73025e-154
-3.23103e-152
-3.72163e-151
-3.85491e-150
-6.99372e-149
-2.92386e-153
-1.09301e-147
3.8492e-150
-1.09303e-147
3.1098e-152
-6.9932e-149
4.27242e-156
-1.65708e-151
2.03555e-158
-3.72048e-156
5.28029e-160
-6.0686e-158
1.77757e-163
-1.1423e-160
5.42422e-168
-3.58605e-164
1.04661e-172
-3.85161e-169
1.62293e-177
2.07653e-178
2.26514e-182
8.33022e-183
2.81876e-187
1.83739e-187
2.99377e-192
3.06575e-192
2.50775e-197
3.96526e-197
1.4432e-202
3.76324e-202
4.18483e-208
2.30714e-207
6.73246e-213
-2.02968e-199
3.42075e-204
-6.79646e-194
1.12375e-198
-1.14281e-188
1.77914e-193
-1.28787e-183
1.81351e-188
-1.08835e-178
1.32328e-183
-7.24521e-174
7.11692e-179
-3.82146e-169
2.67248e-174
-1.50955e-164
4.90248e-170
-2.91391e-160
-6.12564e-161
-8.93954e-159
-1.30724e-158
-6.63943e-158
-3.23374e-157
-5.6123e-154
-6.23492e-153
-3.40347e-150
-3.59514e-149
-4.38604e-147
-4.32166e-146
-4.67847e-145
-7.44513e-144
-2.839e-148
-1.09938e-142
4.67304e-145
-1.09941e-142
4.21154e-147
-7.44393e-144
5.96143e-151
-1.83245e-146
9.25025e-154
-5.40728e-151
2.50777e-157
-2.90504e-153
2.52902e-160
-2.57972e-157
1.39574e-163
-7.7942e-161
5.05424e-168
-1.48801e-164
1.12099e-172
1.43867e-173
2.03624e-177
7.51161e-178
3.13934e-182
2.0527e-182
4.02652e-187
4.13613e-187
4.03307e-192
6.39684e-192
2.77599e-197
7.2612e-197
9.68154e-203
5.35448e-202
1.89312e-207
-1.41617e-193
2.87416e-198
-3.8942e-188
7.85582e-193
-5.27526e-183
1.02141e-187
-4.66359e-178
8.38828e-183
-2.97361e-173
4.80185e-178
-1.40055e-168
1.94869e-173
-4.60006e-164
5.17762e-169
-8.01345e-160
5.91612e-165
-2.53345e-158
-7.21052e-159
-7.49685e-157
-1.15162e-156
-1.02629e-152
-4.91425e-152
-8.39373e-149
-7.98221e-148
-4.30645e-145
-3.9055e-144
-4.91858e-142
-4.14276e-141
-4.67316e-140
-6.54024e-139
-2.29323e-143
-9.10685e-138
4.66886e-140
-9.10712e-138
4.71111e-142
-6.53837e-139
6.82498e-146
-1.66781e-141
1.31974e-148
-6.50853e-146
1.9758e-152
-4.2442e-148
5.87515e-157
-2.04534e-152
3.02563e-160
-2.38085e-157
1.94738e-163
-4.41628e-161
8.29043e-168
1.06625e-168
2.23032e-172
8.24492e-173
4.5278e-177
2.96679e-177
7.12656e-182
7.33589e-182
8.38033e-187
1.33201e-186
6.60838e-192
1.73222e-191
2.61786e-197
1.45094e-196
5.84505e-202
-7.92859e-188
1.97719e-192
-1.73886e-182
4.40387e-187
-1.82284e-177
4.56687e-182
-1.19141e-172
2.90246e-177
-5.18862e-168
1.22845e-172
-1.40941e-163
3.40521e-168
-1.57055e-159
5.21907e-164
-1.51589e-158
3.94094e-160
-4.58496e-156
-1.30296e-156
-1.14931e-151
-1.7412e-151
-1.33805e-147
-6.17158e-147
-1.0355e-143
-8.43296e-143
-4.5009e-140
-3.50407e-139
-4.56068e-137
-3.28214e-136
-3.84438e-135
-4.74662e-134
-1.54706e-138
-6.21968e-133
3.84154e-135
-6.21988e-133
4.35698e-137
-4.74448e-134
6.4199e-141
-1.25149e-136
1.57692e-143
-6.49034e-141
2.92282e-147
-5.17321e-143
6.853e-152
-3.03501e-147
7.3931e-157
-2.78029e-152
5.76849e-160
-9.21163e-158
5.29587e-163
6.82476e-164
2.73512e-167
1.01258e-167
8.21183e-172
5.38845e-172
1.71662e-176
1.76958e-176
2.5226e-181
4.01524e-181
2.38844e-186
6.26975e-186
1.10607e-191
6.13949e-191
2.8459e-196
-3.42771e-182
1.07926e-186
-5.77511e-177
1.90556e-181
-4.42653e-172
1.5181e-176
-1.93075e-167
7.05477e-172
-4.51131e-163
1.9927e-167
-2.38504e-159
2.96482e-163
-2.85782e-159
1.76224e-159
-1.74439e-155
1.66171e-157
-6.96372e-151
-1.96234e-151
-1.4582e-146
-2.17143e-146
-1.44466e-142
-6.39864e-142
-1.05447e-138
-7.35905e-138
-3.88845e-135
-2.59925e-134
-3.49937e-132
-2.15133e-131
-2.60638e-130
-2.84917e-129
-8.73794e-134
-3.50605e-128
2.60481e-130
-3.50617e-128
3.33425e-132
-2.84729e-129
4.97191e-136
-7.7571e-132
1.57987e-138
-5.36488e-136
3.57553e-142
-5.26494e-138
1.01492e-146
-3.71654e-142
1.01695e-151
-4.11927e-147
5.43285e-157
-1.26828e-152
1.32895e-159
2.79454e-160
2.18075e-162
8.09529e-163
1.23111e-166
8.0864e-167
3.78766e-171
3.90834e-171
7.46175e-176
1.18886e-175
9.01735e-181
2.36943e-180
5.16852e-186
2.87181e-185
1.61384e-190
-1.1288e-176
4.6152e-181
-1.39609e-171
6.27916e-176
-7.152e-167
3.67214e-171
-1.63504e-162
1.14057e-166
-2.97201e-159
1.69092e-162
-4.56677e-159
3.87397e-159
-6.12549e-155
1.89204e-156
-2.63974e-150
3.02355e-152
-8.73488e-146
-2.43693e-146
-1.53098e-141
-2.23547e-141
-1.29315e-137
-5.48617e-137
-8.86947e-134
-5.30932e-133
-2.77868e-130
-1.59558e-129
-2.22349e-127
-1.16779e-126
-1.45729e-125
-1.41595e-124
-4.13705e-129
-1.63307e-123
1.45656e-125
-1.63313e-123
2.113e-127
-1.41466e-124
3.17858e-131
-3.98022e-127
1.32738e-133
-3.67706e-131
3.61689e-137
-4.47343e-133
1.23882e-141
-3.7556e-137
1.50511e-146
-5.02798e-142
6.88756e-152
-1.87806e-147
5.04221e-159
1.24352e-156
3.51434e-159
2.58654e-159
9.8116e-162
6.49367e-162
5.70596e-166
5.89186e-166
1.66083e-170
2.64796e-170
2.70384e-175
7.10964e-175
1.99139e-180
1.10729e-179
7.77139e-185
-2.8029e-171
1.5501e-175
-2.33567e-166
1.55983e-170
-6.28499e-162
6.14619e-166
-3.38716e-159
1.00829e-161
-9.33061e-159
6.77524e-159
-2.43007e-154
1.43355e-155
-9.25218e-150
3.42717e-151
-3.29808e-145
4.52917e-147
-9.05805e-141
-2.49738e-141
-1.33251e-136
-1.90208e-136
-9.60891e-133
-3.89984e-132
-6.16617e-129
-3.16954e-128
-1.64343e-125
-8.11289e-125
-1.17068e-122
-5.25465e-122
-6.72495e-121
-5.83209e-120
-1.64207e-124
-6.29297e-119
6.7221e-121
-6.29316e-119
1.10965e-122
-5.82505e-120
1.68312e-126
-1.69488e-122
9.34662e-129
-2.09007e-126
3.02499e-132
-3.1706e-128
1.24612e-136
-3.13137e-132
1.83531e-141
-5.05521e-137
1.01928e-146
-2.29049e-142
2.62748e-154
2.2323e-151
1.15144e-155
2.38992e-155
5.09092e-159
6.42539e-159
4.49472e-161
4.78486e-161
2.494e-165
3.97833e-165
6.01495e-170
1.58239e-169
5.96898e-175
3.32067e-174
2.99027e-179
-4.81405e-166
3.94741e-170
-2.10513e-161
2.67989e-165
-4.20969e-159
5.66417e-161
-2.84963e-158
1.20682e-158
-1.03661e-153
9.77352e-155
-3.65787e-149
2.58123e-150
-1.15366e-144
5.1082e-146
-3.40522e-140
5.59083e-142
-7.77535e-136
-2.1133e-136
-9.63885e-132
-1.33865e-131
-5.93632e-128
-2.31153e-127
-3.5453e-124
-1.5669e-123
-8.04923e-121
-3.4198e-120
-5.10997e-118
-1.96169e-117
-2.56355e-116
-1.99291e-115
-5.46073e-120
-2.00886e-114
2.56261e-116
-2.00891e-114
4.83184e-118
-1.98983e-115
7.41216e-122
-6.00656e-118
5.50826e-124
-9.85258e-122
2.09134e-127
-1.87192e-123
1.03282e-131
-2.15396e-127
1.84334e-136
-4.1859e-132
1.24251e-141
-2.30015e-137
3.94011e-149
3.30485e-146
1.8125e-150
3.91813e-150
1.36305e-157
3.30888e-154
1.02846e-158
1.84144e-158
1.89617e-160
3.42491e-160
8.90077e-165
2.34247e-164
1.3237e-169
7.36691e-169
8.99807e-174
-4.29736e-161
6.78409e-165
-6.55283e-159
2.56754e-160
-1.0353e-157
2.7917e-158
-4.46715e-153
6.11305e-154
-1.55143e-148
1.74592e-149
-4.54272e-144
3.82194e-145
-1.18832e-139
6.26938e-141
-2.90759e-135
5.68975e-137
-5.52972e-131
-1.47697e-131
-5.8245e-127
-7.79144e-127
-3.3438e-123
-1.13503e-122
-1.68676e-119
-6.41944e-119
-3.26628e-116
-1.19607e-115
-1.84987e-113
-6.08135e-113
-8.0804e-112
-5.65565e-111
-1.51992e-115
-5.32021e-110
8.07781e-112
-5.32036e-110
1.74526e-113
-5.64478e-111
2.72771e-117
-1.77708e-113
2.71184e-119
-3.85161e-117
1.1949e-122
-9.1897e-119
7.05283e-127
-1.22213e-122
1.52463e-131
-2.85417e-127
1.24721e-136
-1.90142e-132
4.88011e-144
4.03269e-141
2.35017e-145
5.31133e-145
2.13936e-152
5.30731e-149
5.5663e-157
2.1575e-153
2.31779e-158
8.64585e-158
5.66925e-160
2.14441e-159
1.77568e-164
9.88555e-164
1.88467e-168
-9.30348e-159
6.77974e-160
-3.29936e-157
8.13653e-158
-1.78387e-152
3.3219e-153
-6.62557e-148
1.08028e-148
-1.91361e-143
2.56139e-144
-4.65651e-139
4.6544e-140
-1.01158e-134
6.33685e-136
-2.05398e-130
4.77473e-132
-3.25828e-126
-8.53395e-127
-2.92252e-122
-3.75437e-122
-1.60118e-118
-4.6179e-118
-6.6441e-115
-2.18103e-114
-1.09855e-111
-3.47363e-111
-5.55509e-109
-1.56679e-108
-2.1084e-107
-1.33428e-106
-3.53707e-111
-1.17087e-105
2.1078e-107
-1.1709e-105
5.23041e-109
-1.33117e-106
8.43171e-113
-4.40295e-109
1.11288e-114
-1.24848e-112
5.6405e-118
-3.74379e-114
3.96778e-122
-5.71869e-118
1.03827e-126
-1.60238e-122
1.03058e-131
-1.29357e-127
4.99251e-139
4.05468e-136
2.51003e-140
5.95493e-140
2.86421e-147
7.02517e-144
8.91287e-152
3.43905e-148
2.4665e-156
1.49055e-152
2.45596e-158
4.73993e-157
7.75474e-160
7.89975e-159
2.11975e-163
-6.37019e-157
1.7922e-157
-5.73808e-152
1.38375e-152
-2.61096e-147
5.78536e-148
-8.08814e-143
1.5651e-143
-1.94666e-138
3.08676e-139
-3.94343e-134
4.66407e-135
-7.12468e-130
5.27836e-131
-1.2019e-125
3.30674e-127
-1.59268e-121
-4.08224e-122
-1.21844e-117
-1.49987e-117
-6.34177e-114
-1.5574e-113
-2.16761e-110
-6.14897e-110
-3.06329e-107
-8.38301e-107
-1.38377e-104
-3.35736e-104
-4.55986e-103
-2.61943e-102
-6.87593e-107
-2.14514e-101
4.55869e-103
-2.14519e-101
1.30063e-104
-2.61223e-102
2.20039e-108
-9.16263e-105
3.79803e-110
-3.35506e-108
2.19907e-113
-1.26308e-109
1.83892e-117
-2.20643e-113
5.82084e-122
-7.40655e-118
7.00813e-127
-7.24126e-123
4.21932e-134
3.35834e-131
2.20851e-135
5.52312e-135
3.17212e-142
7.6764e-139
1.18651e-146
4.51888e-143
3.92425e-151
2.34937e-147
8.78363e-156
8.84817e-152
1.37129e-159
2.14904e-156
1.43051e-158
-1.08905e-151
3.2614e-152
-8.23884e-147
2.36248e-147
-3.13849e-142
8.23785e-143
-8.1317e-138
1.85895e-138
-1.63484e-133
3.0569e-134
-2.7625e-129
3.84858e-130
-4.15774e-125
3.62673e-126
-5.83507e-121
1.8921e-122
-6.46914e-117
-1.61984e-117
-4.22444e-113
-4.97881e-113
-2.07792e-109
-4.35547e-109
-5.859e-106
-1.43931e-105
-7.08328e-103
-1.68228e-102
-2.85866e-100
-5.98796e-100
-8.18515e-99
-4.2833e-98
-1.11597e-102
-3.27786e-97
8.18325e-99
-3.27793e-97
2.68305e-100
-4.26971e-98
4.86864e-104
-1.60544e-100
1.07543e-105
-7.47362e-104
7.07829e-109
-3.52222e-105
7.02112e-113
-7.01796e-109
2.68644e-117
-2.81858e-113
3.92114e-122
-3.33498e-118
2.94651e-129
2.29091e-126
1.60129e-130
4.23825e-130
2.89208e-137
6.88666e-134
1.30194e-141
4.88325e-138
5.14025e-146
3.04036e-142
1.37279e-150
1.37154e-146
1.839e-155
3.98729e-151
5.58143e-156
-1.521e-146
5.41816e-147
-9.67984e-142
3.28312e-142
-3.0995e-137
9.5855e-138
-6.7398e-133
1.81056e-133
-1.13506e-128
2.48968e-129
-1.6036e-124
2.61798e-125
-2.01436e-120
2.05844e-121
-2.35555e-116
8.96e-118
-2.18876e-112
-5.34446e-113
-1.21933e-108
-1.38419e-108
-5.63265e-105
-1.01032e-104
-1.31234e-101
-2.79849e-101
-1.3583e-98
-2.80894e-98
-4.89557e-96
-8.89492e-96
-1.22128e-94
-5.83919e-94
-1.51192e-98
-4.18552e-93
1.22103e-94
-4.18559e-93
4.58957e-96
-5.81831e-94
9.15899e-100
-2.37234e-96
2.52284e-101
-1.37979e-99
1.88016e-104
-8.1017e-101
2.20844e-108
-1.83978e-104
1.02072e-112
-8.83136e-109
1.8049e-117
-1.2636e-113
1.70088e-124
1.28689e-121
9.5701e-126
2.69106e-125
2.1588e-132
5.0402e-129
1.17459e-136
4.32751e-133
5.52489e-141
3.22207e-137
1.75564e-145
1.73691e-141
2.79629e-150
6.03321e-146
1.00678e-150
-1.72729e-141
7.27071e-142
-9.30298e-137
3.70719e-137
-2.51654e-132
9.11098e-133
-4.61145e-128
1.44686e-128
-6.5271e-124
1.66958e-124
-7.7302e-120
1.47044e-120
-8.12175e-116
9.66877e-117
-7.92775e-112
3.51884e-113
-6.21446e-108
-1.46435e-108
-2.94068e-104
-3.216e-104
-1.26304e-100
-1.94424e-100
-2.43603e-97
-4.52143e-97
-2.16e-94
-3.90451e-94
-6.94581e-92
-1.10117e-91
-1.51695e-90
-6.64194e-90
-1.71014e-94
-4.47459e-89
1.51665e-90
-4.47466e-89
6.5061e-92
-6.61577e-90
1.46606e-95
-2.95847e-92
4.8899e-97
-2.11108e-95
4.11928e-100
-1.53495e-96
5.72271e-104
-3.97413e-100
3.19321e-108
-2.2785e-104
6.83451e-113
-3.93898e-109
8.11993e-120
5.95246e-117
4.71619e-121
1.41389e-120
1.34032e-127
3.05869e-124
8.774e-132
3.167e-128
4.89614e-136
2.80962e-132
1.84174e-140
1.80175e-136
3.4673e-145
7.43786e-141
1.47598e-145
-1.58993e-136
7.83581e-137
-7.30311e-132
3.39068e-132
-1.67912e-127
7.06427e-128
-2.60482e-123
9.48234e-124
-3.10904e-119
9.21769e-120
-3.09414e-115
6.81819e-116
-2.72365e-111
3.75663e-112
-2.22176e-107
1.14496e-108
-1.47623e-103
-3.32462e-104
-6.66105e-100
-6.19442e-100
-2.34229e-96
-3.1042e-96
-3.74708e-93
-6.07233e-93
-2.84807e-90
-4.52038e-90
-8.15861e-88
-1.13672e-87
-1.57077e-86
-6.30868e-86
-1.61555e-90
-4.01205e-85
1.57049e-86
-4.01211e-85
7.63756e-88
-6.28192e-86
1.99396e-91
-3.11275e-88
7.81516e-93
-2.67656e-91
7.43968e-96
-2.39193e-92
1.22165e-99
-7.07146e-96
8.22691e-104
-4.84109e-100
2.12924e-108
-1.01039e-104
3.2079e-115
2.26724e-112
1.9172e-116
6.1473e-116
6.92251e-123
1.53891e-119
5.42707e-127
1.91385e-123
3.57557e-131
2.01479e-127
1.58209e-135
1.52841e-131
3.49255e-140
7.44377e-136
1.74144e-140
-1.1805e-131
6.72061e-132
-4.67264e-127
2.50049e-127
-9.199e-123
4.45925e-123
-1.21423e-118
5.09241e-119
-1.22621e-114
4.18755e-115
-1.02761e-110
2.60809e-111
-7.58737e-107
1.20591e-107
-5.17458e-103
3.08118e-104
-2.91207e-99
-6.26028e-100
-1.24633e-95
-9.8823e-96
-3.59099e-92
-4.11227e-92
-4.77522e-89
-6.78075e-89
-3.11305e-86
-4.36061e-86
-7.92801e-84
-9.78936e-84
-1.35768e-82
-5.00701e-82
-1.27526e-86
-3.0217e-81
1.35746e-82
-3.02174e-81
7.41892e-84
-4.98469e-82
2.29692e-87
-2.76022e-84
1.02814e-88
-2.81202e-87
1.10689e-91
-3.06173e-88
2.14817e-95
-1.03608e-91
1.74596e-99
-8.47124e-96
5.45907e-104
-2.13319e-100
1.04959e-110
7.1127e-108
6.43183e-112
2.21183e-111
2.97476e-118
6.41862e-115
2.77973e-122
9.55013e-119
2.15011e-126
1.18742e-122
1.11006e-130
1.0579e-126
2.84176e-135
6.01536e-131
1.63628e-135
-7.02628e-127
4.52181e-127
-2.43203e-122
1.47853e-122
-4.13874e-118
2.28872e-118
-4.67597e-114
2.24215e-114
-4.00994e-110
1.56705e-110
-2.83584e-106
8.23947e-107
-1.7583e-102
3.20167e-103
-1.00302e-98
6.86474e-100
-4.77181e-95
-9.91237e-96
-1.92417e-91
-1.30553e-91
-4.5491e-88
-4.5201e-88
-5.04013e-85
-6.29708e-85
-2.81986e-82
-3.50617e-82
-6.36913e-80
-7.03635e-80
-9.80533e-79
-3.32252e-78
-8.41472e-83
-1.91393e-77
9.80385e-79
-1.91395e-77
5.95903e-80
-3.30733e-78
2.23105e-83
-2.05956e-80
1.11163e-84
-2.44807e-83
1.35563e-87
-3.21512e-84
3.11081e-91
-1.24928e-87
3.05271e-95
-1.22078e-91
1.15232e-99
-3.70784e-96
2.84681e-106
1.83858e-103
1.7816e-107
6.5868e-107
1.06381e-113
2.21928e-110
1.17896e-117
3.93519e-114
1.06341e-121
5.74724e-118
6.3377e-126
5.95659e-122
1.85078e-130
3.89231e-126
1.20169e-130
-3.32835e-122
2.32937e-122
-1.03e-117
6.96997e-118
-1.53426e-113
9.5652e-114
-1.49444e-109
8.12508e-110
-1.09295e-105
4.85314e-106
-6.54011e-102
2.16074e-102
-3.41126e-98
7.06926e-99
-1.63953e-94
1.2741e-95
-6.53099e-91
-1.30873e-91
-2.44913e-87
-1.42783e-87
-4.75904e-84
-4.12233e-84
-4.40406e-81
-4.86424e-81
-2.11602e-78
-2.35049e-78
-4.22803e-76
-4.22269e-76
-5.92093e-75
-1.84421e-74
-4.64222e-79
-1.02032e-73
5.9201e-75
-1.02033e-73
3.95566e-76
-1.83578e-74
1.81822e-79
-1.29076e-76
9.86306e-81
-1.76597e-79
1.36547e-83
-2.76625e-80
3.70832e-87
-1.23879e-83
4.39664e-91
-1.44831e-87
2.00336e-95
-5.30603e-92
6.37575e-102
3.91869e-99
3.794e-103
1.62393e-102
3.16233e-109
6.35122e-106
4.1371e-113
1.33817e-109
4.31568e-117
2.28107e-113
2.92507e-121
2.71487e-117
9.48774e-126
1.98697e-121
6.63054e-126
-1.35166e-117
1.17351e-117
-3.56599e-113
2.78708e-113
-4.67582e-109
3.24342e-109
-3.95669e-105
2.41981e-105
-2.47694e-101
1.24163e-101
-1.25625e-97
4.69035e-98
-5.51557e-94
1.29293e-94
-2.23673e-90
1.95974e-91
-8.35339e-87
-1.42734e-87
-2.56776e-83
-1.29248e-83
-4.10873e-80
-3.11922e-80
-3.18425e-77
-3.1258e-77
-1.31489e-74
-1.31406e-74
-2.31847e-72
-2.11642e-72
-2.99002e-71
-8.56556e-71
-2.14095e-75
-4.58365e-70
2.98963e-71
-4.58369e-70
2.16932e-72
-8.52754e-71
1.23714e-75
-6.78216e-73
7.17101e-77
-1.05549e-75
1.13005e-79
-1.94742e-76
3.63662e-83
-1.00916e-79
5.21202e-87
-1.41316e-83
2.86593e-91
-6.24274e-88
1.18197e-97
6.89497e-95
6.40157e-99
3.31627e-98
7.74541e-105
1.48861e-101
1.19479e-108
3.73694e-105
1.42645e-112
7.38066e-109
1.08776e-116
9.9017e-113
4.10235e-121
8.45762e-117
3.56711e-121
-5.03359e-113
5.24388e-113
-1.08303e-108
1.02132e-108
-1.18601e-104
9.5296e-105
-8.6598e-101
5.91199e-101
-4.6558e-97
2.61863e-97
-2.00338e-93
8.40285e-94
-7.40277e-90
1.95132e-90
-2.52626e-86
2.48671e-87
-8.81278e-83
-1.28354e-83
-2.21542e-79
-9.68067e-80
-2.92537e-76
-1.95805e-76
-1.90396e-73
-1.67113e-73
-6.76329e-71
-6.12724e-71
-1.04859e-68
-8.87636e-69
-1.26415e-67
-3.34208e-67
-8.26159e-72
-1.74273e-66
1.264e-67
-1.74274e-66
9.81197e-69
-3.32823e-67
6.99653e-72
-2.99312e-69
4.26888e-73
-5.22566e-72
7.67747e-76
-1.12099e-72
2.93201e-79
-6.74751e-76
5.08088e-83
-1.13288e-79
3.36677e-87
-6.02624e-84
1.82028e-93
1.00184e-90
8.96105e-95
5.60915e-94
1.58423e-100
2.90139e-97
2.85705e-104
8.63081e-101
3.91584e-108
1.9555e-104
3.55482e-112
3.12627e-108
1.65678e-116
3.36056e-112
1.73108e-116
-1.6075e-108
2.00098e-108
-2.88603e-104
3.19974e-104
-2.57128e-100
2.452e-100
-1.58504e-96
1.21457e-96
-7.30253e-93
4.58033e-93
-2.66908e-89
1.24958e-89
-8.33987e-86
2.44468e-86
-2.37614e-82
2.64027e-83
-7.63199e-79
-9.51068e-80
-1.57141e-75
-5.99766e-76
-1.71636e-72
-1.01958e-72
-9.3894e-70
-7.43806e-70
-2.8769e-67
-2.39011e-67
-3.93041e-65
-3.11154e-65
-4.50221e-64
-1.08947e-63
-2.68336e-68
-5.58555e-63
4.50172e-64
-5.58558e-63
3.67888e-65
-1.08541e-63
3.28867e-68
-1.10385e-65
2.0798e-69
-2.14221e-68
4.27883e-72
-5.27553e-69
1.94275e-75
-3.70166e-72
4.07206e-79
-7.45981e-76
3.2446e-83
-4.7696e-80
2.32701e-89
1.20054e-86
1.04181e-90
7.84883e-90
2.7025e-96
4.69687e-93
5.67506e-100
1.64708e-96
9.12557e-104
4.30552e-100
1.02854e-107
8.73003e-104
5.75472e-112
1.14479e-107
7.19697e-112
-4.44455e-104
6.5753e-104
-6.68488e-100
8.64935e-100
-4.96811e-96
5.45354e-96
-2.507e-92
2.22284e-92
-9.72927e-89
6.7565e-89
-3.01303e-85
1.57081e-85
-7.88128e-82
2.56938e-82
-2.01632e-78
2.32551e-79
-5.41885e-75
-5.80191e-76
-9.14633e-72
-3.07232e-72
-8.27448e-69
-4.40757e-69
-3.85491e-66
-2.75865e-66
-1.01768e-63
-7.76346e-64
-1.21642e-61
-9.59855e-62
-1.31923e-60
-3.24782e-60
-7.16405e-65
-1.63538e-59
1.3191e-60
-1.63539e-59
1.13911e-61
-3.23641e-60
1.27504e-64
-3.49004e-62
8.28688e-66
-7.28219e-65
1.95492e-68
-2.02952e-65
1.05759e-71
-1.66573e-68
2.68352e-75
-4.03533e-72
2.56481e-79
-3.0957e-76
2.46807e-85
1.18534e-82
1.00842e-86
9.07637e-86
3.91271e-92
6.43478e-89
9.76663e-96
2.63938e-92
1.92938e-99
8.61604e-96
2.61141e-103
2.12706e-99
1.74697e-107
3.39642e-103
2.60091e-107
-1.04496e-99
1.8271e-99
-1.3217e-95
1.98039e-95
-8.21603e-92
1.02902e-91
-3.44858e-88
3.45659e-88
-1.11197e-84
8.65313e-85
-2.93567e-81
1.66091e-81
-6.48712e-78