/*--------------------------------*- C++ -*----------------------------------*\
  =========                 |
  \\      /  F ield         | OpenFOAM: The Open Source CFD Toolbox
   \\    /   O peration     | Website:  https://openfoam.org
    \\  /    A nd           | Version:  9
     \\/     M anipulation  |
\*---------------------------------------------------------------------------*/
FoamFile
{
    format      ascii;
    class       volScalarField;
    location    "0.3";
    object      p_rgh;
}
// * * * * * * * * * * * * * * * * * * * * * * * * * * * * * * * * * * * * * //

dimensions      [1 -1 -2 0 0 0 0];

internalField   nonuniform List<scalar> 
4096
(
-3.29766
-3.29766
-3.29766
-3.29766
-3.29766
-3.29766
-3.29766
-3.29766
-3.29766
-3.29766
-3.29765
-3.29765
-3.29765
-3.29765
-3.29765
-3.29765
-3.29765
-3.29765
-3.29765
-3.29765
-3.29765
-3.29765
-3.29765
-3.29766
-3.29766
-3.29766
-3.29766
-3.29766
-3.29766
-3.29766
-3.29766
-3.29766
-3.29766
-3.29766
-3.29766
-3.29766
-3.29766
-3.29766
-3.29766
-3.29766
-3.29766
-3.29766
-3.29765
-3.29765
-3.29765
-3.29765
-3.29765
-3.29765
-3.29765
-3.29765
-3.29765
-3.29765
-3.29765
-3.29765
-3.29765
-3.29766
-3.29766
-3.29766
-3.29766
-3.29766
-3.29766
-3.29766
-3.29766
-3.29766
-3.29766
-3.29766
-3.29766
-3.29766
-3.29766
-3.29766
-3.29766
-3.29766
-3.29766
-3.29766
-3.29765
-3.29765
-3.29765
-3.29765
-3.29765
-3.29765
-3.29765
-3.29765
-3.29765
-3.29765
-3.29765
-3.29765
-3.29765
-3.29766
-3.29766
-3.29766
-3.29766
-3.29766
-3.29766
-3.29766
-3.29766
-3.29766
-3.29766
-3.29766
-3.29766
-3.29766
-3.29766
-3.29766
-3.29766
-3.29766
-3.29766
-3.29766
-3.29765
-3.29765
-3.29765
-3.29765
-3.29765
-3.29765
-3.29765
-3.29765
-3.29765
-3.29765
-3.29765
-3.29765
-3.29765
-3.29766
-3.29766
-3.29766
-3.29766
-3.29766
-3.29766
-3.29766
-3.29766
-3.29766
-3.29766
-3.29766
-3.29766
-3.29766
-3.29766
-3.29766
-3.29766
-3.29766
-3.29766
-3.29765
-3.29765
-3.29765
-3.29765
-3.29765
-3.29765
-3.29765
-3.29765
-3.29765
-3.29765
-3.29765
-3.29765
-3.29765
-3.29765
-3.29766
-3.29766
-3.29766
-3.29766
-3.29766
-3.29766
-3.29766
-3.29766
-3.29766
-3.29766
-3.29766
-3.29766
-3.29766
-3.29766
-3.29766
-3.29766
-3.29766
-3.29766
-3.29765
-3.29765
-3.29765
-3.29765
-3.29765
-3.29765
-3.29765
-3.29765
-3.29765
-3.29765
-3.29765
-3.29765
-3.29765
-3.29765
-3.29766
-3.29766
-3.29766
-3.29766
-3.29766
-3.29766
-3.29766
-3.29766
-3.29766
-3.29766
-3.29766
-3.29766
-3.29766
-3.29766
-3.29766
-3.29766
-3.29766
-3.29766
-3.29765
-3.29765
-3.29765
-3.29765
-3.29765
-3.29765
-3.29765
-3.29765
-3.29765
-3.29765
-3.29765
-3.29765
-3.29765
-3.29765
-3.29766
-3.29766
-3.29766
-3.29766
-3.29766
-3.29766
-3.29766
-3.29766
-3.29766
-3.29766
-3.29766
-3.29766
-3.29766
-3.29766
-3.29766
-3.29766
-3.29766
-3.29766
-3.29765
-3.29765
-3.29765
-3.29765
-3.29765
-3.29765
-3.29765
-3.29765
-3.29765
-3.29765
-3.29765
-3.29765
-3.29765
-3.29765
-3.29766
-3.29766
-3.29766
-3.29766
-3.29766
-3.29766
-3.29766
-3.29766
-3.29766
-3.29767
-3.29767
-3.29766
-3.29766
-3.29766
-3.29766
-3.29766
-3.29766
-3.29766
-3.29765
-3.29765
-3.29765
-3.29765
-3.29765
-3.29765
-3.29765
-3.29765
-3.29765
-3.29765
-3.29765
-3.29765
-3.29765
-3.29765
-3.29765
-3.29766
-3.29766
-3.29766
-3.29766
-3.29766
-3.29766
-3.29766
-3.29766
-3.29767
-3.29767
-3.29767
-3.29767
-3.29766
-3.29766
-3.29766
-3.29766
-3.29766
-3.29765
-3.29765
-3.29765
-3.29765
-3.29765
-3.29765
-3.29765
-3.29764
-3.29765
-3.29765
-3.29765
-3.29765
-3.29765
-3.29765
-3.29765
-3.29766
-3.29766
-3.29766
-3.29766
-3.29766
-3.29767
-3.29767
-3.29767
-3.29767
-3.29767
-3.29767
-3.29767
-3.29766
-3.29766
-3.29766
-3.29766
-3.29765
-3.29765
-3.29765
-3.29765
-3.29765
-3.29764
-3.29764
-3.29764
-3.29764
-3.29764
-3.29764
-3.29765
-3.29765
-3.29765
-3.29765
-3.29765
-3.29766
-3.29766
-3.29766
-3.29766
-3.29767
-3.29767
-3.29767
-3.29767
-3.29767
-3.29767
-3.29767
-3.29767
-3.29767
-3.29766
-3.29766
-3.29766
-3.29765
-3.29765
-3.29765
-3.29765
-3.29764
-3.29764
-3.29764
-3.29764
-3.29764
-3.29764
-3.29764
-3.29764
-3.29765
-3.29765
-3.29765
-3.29765
-3.29766
-3.29766
-3.29766
-3.29767
-3.29767
-3.29767
-3.29767
-3.29767
-3.29768
-3.29767
-3.29767
-3.29767
-3.29767
-3.29767
-3.29766
-3.29766
-3.29765
-3.29765
-3.29765
-3.29764
-3.29764
-3.29764
-3.29764
-3.29764
-3.29764
-3.29764
-3.29764
-3.29764
-3.29764
-3.29765
-3.29765
-3.29765
-3.29766
-3.29766
-3.29766
-3.29767
-3.29767
-3.29767
-3.29767
-3.29767
-3.29768
-3.29768
-3.29768
-3.29767
-3.29767
-3.29767
-3.29766
-3.29766
-3.29765
-3.29765
-3.29764
-3.29764
-3.29764
-3.29764
-3.29763
-3.29763
-3.29763
-3.29763
-3.29764
-3.29764
-3.29764
-3.29764
-3.29765
-3.29765
-3.29766
-3.29766
-3.29767
-3.29767
-3.29767
-3.29768
-3.29768
-3.29768
-3.29768
-3.29768
-3.29768
-3.29768
-3.29767
-3.29767
-3.29766
-3.29766
-3.29765
-3.29765
-3.29764
-3.29764
-3.29763
-3.29763
-3.29763
-3.29763
-3.29763
-3.29763
-3.29763
-3.29763
-3.29764
-3.29764
-3.29765
-3.29765
-3.29766
-3.29766
-3.29767
-3.29767
-3.29768
-3.29768
-3.29768
-3.29768
-3.29769
-3.29769
-3.29769
-3.29768
-3.29768
-3.29767
-3.29767
-3.29766
-3.29765
-3.29765
-3.29764
-3.29763
-3.29763
-3.29763
-3.29762
-3.29762
-3.29762
-3.29762
-3.29763
-3.29763
-3.29763
-3.29764
-3.29765
-3.29765
-3.29766
-3.29767
-3.29767
-3.29768
-3.29768
-3.29769
-3.29769
-3.29769
-3.2977
-3.2977
-3.29769
-3.29769
-3.29768
-3.29768
-3.29767
-3.29766
-3.29765
-3.29764
-3.29764
-3.29763
-3.29762
-3.29762
-3.29762
-3.29761
-3.29761
-3.29762
-3.29762
-3.29762
-3.29763
-3.29764
-3.29764
-3.29765
-3.29766
-3.29767
-3.29768
-3.29768
-3.29769
-3.29769
-3.2977
-3.2977
-3.29771
-3.2977
-3.2977
-3.2977
-3.29769
-3.29768
-3.29767
-3.29766
-3.29765
-3.29764
-3.29763
-3.29762
-3.29762
-3.29761
-3.29761
-3.2976
-3.2976
-3.29761
-3.29761
-3.29762
-3.29762
-3.29763
-3.29764
-3.29765
-3.29766
-3.29767
-3.29768
-3.29769
-3.2977
-3.2977
-3.2977
-3.29771
-3.29772
-3.29772
-3.29771
-3.2977
-3.2977
-3.29769
-3.29767
-3.29766
-3.29765
-3.29764
-3.29763
-3.29762
-3.29761
-3.2976
-3.2976
-3.29759
-3.29759
-3.2976
-3.2976
-3.29761
-3.29762
-3.29763
-3.29764
-3.29765
-3.29766
-3.29767
-3.29769
-3.2977
-3.2977
-3.29771
-3.29771
-3.29772
-3.29773
-3.29773
-3.29772
-3.29771
-3.2977
-3.29769
-3.29768
-3.29766
-3.29765
-3.29763
-3.29762
-3.29761
-3.2976
-3.29759
-3.29758
-3.29758
-3.29758
-3.29758
-3.29759
-3.2976
-3.29761
-3.29762
-3.29763
-3.29765
-3.29766
-3.29768
-3.29769
-3.2977
-3.29771
-3.29772
-3.29773
-3.29773
-3.29775
-3.29774
-3.29774
-3.29773
-3.29771
-3.2977
-3.29768
-3.29767
-3.29765
-3.29763
-3.29761
-3.2976
-3.29759
-3.29757
-3.29757
-3.29756
-3.29756
-3.29757
-3.29757
-3.29758
-3.2976
-3.29761
-3.29763
-3.29765
-3.29766
-3.29768
-3.2977
-3.29771
-3.29773
-3.29774
-3.29774
-3.29775
-3.29777
-3.29776
-3.29775
-3.29774
-3.29773
-3.29771
-3.29769
-3.29767
-3.29765
-3.29762
-3.2976
-3.29759
-3.29757
-3.29756
-3.29755
-3.29754
-3.29754
-3.29755
-3.29756
-3.29757
-3.29759
-3.2976
-3.29762
-3.29765
-3.29767
-3.29769
-3.29771
-3.29773
-3.29774
-3.29775
-3.29776
-3.29777
-3.29779
-3.29778
-3.29778
-3.29776
-3.29774
-3.29772
-3.2977
-3.29767
-3.29764
-3.29762
-3.29759
-3.29757
-3.29755
-3.29754
-3.29753
-3.29752
-3.29752
-3.29753
-3.29754
-3.29755
-3.29757
-3.29759
-3.29762
-3.29764
-3.29767
-3.2977
-3.29772
-3.29774
-3.29776
-3.29777
-3.29778
-3.29779
-3.29782
-3.29781
-3.2978
-3.29778
-3.29776
-3.29773
-3.2977
-3.29767
-3.29764
-3.29761
-3.29758
-3.29755
-3.29753
-3.29751
-3.2975
-3.29749
-3.29749
-3.2975
-3.29751
-3.29753
-3.29755
-3.29758
-3.29761
-3.29764
-3.29767
-3.2977
-3.29773
-3.29776
-3.29778
-3.2978
-3.29781
-3.29782
-3.29785
-3.29785
-3.29783
-3.29781
-3.29778
-3.29775
-3.29771
-3.29768
-3.29764
-3.2976
-3.29756
-3.29753
-3.2975
-3.29748
-3.29746
-3.29746
-3.29746
-3.29746
-3.29748
-3.2975
-3.29753
-3.29756
-3.2976
-3.29764
-3.29768
-3.29771
-3.29775
-3.29778
-3.29781
-3.29783
-3.29785
-3.29785
-3.2979
-3.29789
-3.29787
-3.29784
-3.29781
-3.29777
-3.29773
-3.29768
-3.29763
-3.29759
-3.29754
-3.2975
-3.29747
-3.29744
-3.29742
-3.29741
-3.29741
-3.29742
-3.29744
-3.29747
-3.2975
-3.29754
-3.29759
-3.29763
-3.29768
-3.29773
-3.29777
-3.29781
-3.29784
-3.29787
-3.29789
-3.2979
-3.29795
-3.29794
-3.29792
-3.29788
-3.29784
-3.2978
-3.29774
-3.29769
-3.29763
-3.29757
-3.29752
-3.29747
-3.29743
-3.2974
-3.29737
-3.29736
-3.29736
-3.29737
-3.2974
-3.29743
-3.29747
-3.29752
-3.29757
-3.29763
-3.29769
-3.29774
-3.2978
-3.29784
-3.29788
-3.29792
-3.29794
-3.29795
-3.29801
-3.298
-3.29797
-3.29793
-3.29788
-3.29783
-3.29776
-3.29769
-3.29762
-3.29755
-3.29749
-3.29743
-3.29738
-3.29734
-3.29731
-3.2973
-3.2973
-3.29731
-3.29734
-3.29738
-3.29743
-3.29749
-3.29755
-3.29762
-3.29769
-3.29776
-3.29783
-3.29788
-3.29793
-3.29797
-3.298
-3.29801
-3.29809
-3.29807
-3.29804
-3.29799
-3.29793
-3.29786
-3.29779
-3.2977
-3.29762
-3.29753
-3.29745
-3.29738
-3.29732
-3.29727
-3.29724
-3.29722
-3.29722
-3.29724
-3.29727
-3.29732
-3.29738
-3.29745
-3.29753
-3.29762
-3.2977
-3.29779
-3.29786
-3.29793
-3.29799
-3.29804
-3.29807
-3.29809
-3.29818
-3.29816
-3.29812
-3.29807
-3.29799
-3.29791
-3.29781
-3.29771
-3.29761
-3.29751
-3.29741
-3.29732
-3.29725
-3.29719
-3.29715
-3.29713
-3.29713
-3.29715
-3.29719
-3.29725
-3.29732
-3.29741
-3.29751
-3.29761
-3.29771
-3.29781
-3.29791
-3.29799
-3.29807
-3.29812
-3.29816
-3.29818
-3.29829
-3.29827
-3.29822
-3.29816
-3.29807
-3.29796
-3.29785
-3.29772
-3.2976
-3.29747
-3.29736
-3.29725
-3.29716
-3.29709
-3.29704
-3.29702
-3.29702
-3.29704
-3.29709
-3.29716
-3.29725
-3.29736
-3.29747
-3.2976
-3.29772
-3.29785
-3.29796
-3.29807
-3.29816
-3.29822
-3.29827
-3.29829
-3.29843
-3.2984
-3.29835
-3.29826
-3.29816
-3.29803
-3.29789
-3.29774
-3.29759
-3.29744
-3.29729
-3.29716
-3.29705
-3.29697
-3.29691
-3.29688
-3.29688
-3.29691
-3.29697
-3.29705
-3.29716
-3.29729
-3.29744
-3.29759
-3.29774
-3.29789
-3.29803
-3.29816
-3.29826
-3.29835
-3.2984
-3.29843
-3.2986
-3.29856
-3.29849
-3.29839
-3.29827
-3.29811
-3.29794
-3.29776
-3.29757
-3.29739
-3.29722
-3.29706
-3.29692
-3.29682
-3.29675
-3.29671
-3.29671
-3.29675
-3.29682
-3.29692
-3.29706
-3.29722
-3.29739
-3.29757
-3.29776
-3.29794
-3.29811
-3.29827
-3.29839
-3.29849
-3.29856
-3.2986
-3.2988
-3.29876
-3.29868
-3.29855
-3.2984
-3.29821
-3.298
-3.29778
-3.29756
-3.29733
-3.29712
-3.29693
-3.29677
-3.29664
-3.29655
-3.29651
-3.29651
-3.29655
-3.29664
-3.29677
-3.29693
-3.29712
-3.29733
-3.29756
-3.29778
-3.298
-3.29821
-3.2984
-3.29855
-3.29867
-3.29876
-3.2988
-3.29904
-3.29899
-3.29889
-3.29875
-3.29856
-3.29833
-3.29808
-3.29781
-3.29754
-3.29727
-3.29701
-3.29678
-3.29658
-3.29642
-3.29631
-3.29626
-3.29626
-3.29631
-3.29642
-3.29658
-3.29678
-3.29701
-3.29727
-3.29754
-3.29781
-3.29808
-3.29833
-3.29856
-3.29875
-3.29889
-3.29899
-3.29904
-3.29934
-3.29928
-3.29916
-3.29898
-3.29875
-3.29848
-3.29818
-3.29785
-3.29752
-3.29719
-3.29687
-3.29659
-3.29635
-3.29615
-3.29602
-3.29595
-3.29595
-3.29602
-3.29615
-3.29635
-3.29659
-3.29687
-3.29719
-3.29752
-3.29785
-3.29818
-3.29848
-3.29875
-3.29898
-3.29916
-3.29928
-3.29934
-3.2997
-3.29963
-3.29948
-3.29927
-3.29899
-3.29866
-3.29829
-3.2979
-3.29749
-3.29709
-3.29671
-3.29636
-3.29607
-3.29583
-3.29567
-3.29559
-3.29559
-3.29567
-3.29583
-3.29607
-3.29636
-3.29671
-3.29709
-3.29749
-3.2979
-3.29829
-3.29866
-3.29899
-3.29927
-3.29948
-3.29963
-3.2997
-3.30014
-3.30005
-3.29988
-3.29962
-3.29928
-3.29888
-3.29844
-3.29796
-3.29746
-3.29697
-3.29651
-3.29609
-3.29572
-3.29544
-3.29524
-3.29514
-3.29514
-3.29524
-3.29544
-3.29572
-3.29609
-3.29651
-3.29697
-3.29746
-3.29796
-3.29844
-3.29888
-3.29928
-3.29962
-3.29988
-3.30005
-3.30014
-3.30067
-3.30057
-3.30035
-3.30004
-3.29963
-3.29915
-3.29861
-3.29803
-3.29743
-3.29683
-3.29627
-3.29575
-3.29531
-3.29496
-3.29472
-3.29459
-3.29459
-3.29472
-3.29496
-3.29531
-3.29575
-3.29627
-3.29683
-3.29743
-3.29803
-3.29861
-3.29915
-3.29963
-3.30004
-3.30035
-3.30057
-3.30067
-3.30132
-3.30119
-3.30093
-3.30056
-3.30007
-3.29948
-3.29883
-3.29812
-3.29739
-3.29667
-3.29598
-3.29535
-3.29481
-3.29438
-3.29408
-3.29393
-3.29393
-3.29408
-3.29438
-3.29481
-3.29535
-3.29598
-3.29667
-3.29739
-3.29812
-3.29883
-3.29948
-3.30007
-3.30056
-3.30093
-3.30119
-3.30132
-3.3021
-3.30194
-3.30164
-3.30118
-3.30059
-3.29989
-3.2991
-3.29824
-3.29736
-3.29648
-3.29563
-3.29486
-3.2942
-3.29367
-3.29331
-3.29312
-3.29312
-3.29331
-3.29367
-3.2942
-3.29486
-3.29563
-3.29648
-3.29736
-3.29824
-3.2991
-3.29989
-3.30059
-3.30118
-3.30164
-3.30194
-3.3021
-3.30304
-3.30286
-3.30249
-3.30194
-3.30124
-3.30039
-3.29943
-3.2984
-3.29732
-3.29625
-3.29522
-3.29428
-3.29346
-3.29282
-3.29237
-3.29213
-3.29213
-3.29237
-3.29282
-3.29346
-3.29428
-3.29522
-3.29625
-3.29732
-3.2984
-3.29943
-3.30039
-3.30124
-3.30194
-3.30249
-3.30286
-3.30304
-3.30419
-3.30397
-3.30353
-3.30287
-3.30202
-3.301
-3.29985
-3.2986
-3.2973
-3.29599
-3.29473
-3.29358
-3.29257
-3.29177
-3.29122
-3.29093
-3.29093
-3.29122
-3.29177
-3.29257
-3.29358
-3.29473
-3.29599
-3.2973
-3.2986
-3.29985
-3.301
-3.30202
-3.30287
-3.30353
-3.30397
-3.30419
-3.30557
-3.30531
-3.30478
-3.304
-3.30298
-3.30176
-3.30037
-3.29886
-3.29728
-3.29569
-3.29415
-3.29273
-3.2915
-3.29051
-3.28981
-3.28946
-3.28946
-3.28981
-3.29051
-3.2915
-3.29273
-3.29415
-3.29569
-3.29728
-3.29886
-3.30037
-3.30176
-3.30298
-3.304
-3.30478
-3.30531
-3.30557
-3.30724
-3.30693
-3.30631
-3.30538
-3.30416
-3.3027
-3.30103
-3.29921
-3.2973
-3.29536
-3.29347
-3.29173
-3.2902
-3.28897
-3.2881
-3.28766
-3.28766
-3.2881
-3.28897
-3.2902
-3.29173
-3.29347
-3.29536
-3.2973
-3.29921
-3.30103
-3.3027
-3.30416
-3.30537
-3.30631
-3.30693
-3.30724
-3.30926
-3.30889
-3.30815
-3.30705
-3.3056
-3.30386
-3.30186
-3.29967
-3.29735
-3.295
-3.29269
-3.29053
-3.28863
-3.2871
-3.28601
-3.28545
-3.28545
-3.28601
-3.2871
-3.28863
-3.29053
-3.29269
-3.295
-3.29735
-3.29967
-3.30186
-3.30386
-3.3056
-3.30705
-3.30815
-3.30889
-3.30926
-3.31169
-3.31126
-3.31039
-3.30908
-3.30738
-3.3053
-3.30292
-3.30029
-3.29749
-3.29462
-3.29179
-3.28912
-3.28676
-3.28483
-3.28346
-3.28275
-3.28275
-3.28346
-3.28483
-3.28676
-3.28912
-3.29179
-3.29462
-3.29749
-3.30029
-3.30292
-3.3053
-3.30738
-3.30908
-3.31039
-3.31126
-3.31169
-3.31462
-3.31411
-3.31309
-3.31156
-3.30955
-3.3071
-3.30427
-3.30112
-3.29775
-3.29425
-3.29078
-3.28748
-3.28452
-3.28208
-3.28034
-3.27943
-3.27943
-3.28034
-3.28208
-3.28452
-3.28748
-3.29078
-3.29425
-3.29775
-3.30112
-3.30427
-3.3071
-3.30955
-3.31156
-3.31309
-3.31411
-3.31462
-3.31813
-3.31755
-3.31636
-3.31458
-3.31223
-3.30935
-3.306
-3.30225
-3.29819
-3.29395
-3.28969
-3.28558
-3.28186
-3.27876
-3.27652
-3.27535
-3.27535
-3.27652
-3.27876
-3.28186
-3.28558
-3.28969
-3.29395
-3.29819
-3.30225
-3.306
-3.30935
-3.31223
-3.31458
-3.31636
-3.31755
-3.31813
-3.32235
-3.32168
-3.32031
-3.31825
-3.31552
-3.31216
-3.30823
-3.30378
-3.29893
-3.2938
-3.28856
-3.28345
-3.27874
-3.27476
-3.27185
-3.2703
-3.2703
-3.27185
-3.27476
-3.27874
-3.28345
-3.28856
-3.2938
-3.29893
-3.30378
-3.30823
-3.31216
-3.31552
-3.31825
-3.32031
-3.32168
-3.32235
-3.32739
-3.32663
-3.32507
-3.32271
-3.31957
-3.31569
-3.3111
-3.30588
-3.3001
-3.29391
-3.2875
-3.28113
-3.27514
-3.26998
-3.26613
-3.26406
-3.26406
-3.26613
-3.26998
-3.27514
-3.28113
-3.2875
-3.29391
-3.3001
-3.30588
-3.3111
-3.31569
-3.31957
-3.32271
-3.32507
-3.32663
-3.32739
-3.33341
-3.33255
-3.33079
-3.32812
-3.32456
-3.32012
-3.31483
-3.30873
-3.30192
-3.2945
-3.28668
-3.27874
-3.27109
-3.26433
-3.25915
-3.25632
-3.25632
-3.25915
-3.26433
-3.27109
-3.27873
-3.28668
-3.2945
-3.30192
-3.30873
-3.31483
-3.32012
-3.32456
-3.32812
-3.33079
-3.33255
-3.33341
-3.34057
-3.33961
-3.33766
-3.33468
-3.33068
-3.32567
-3.31964
-3.31263
-3.30468
-3.29588
-3.2864
-3.27652
-3.26673
-3.25777
-3.25067
-3.2467
-3.2467
-3.25067
-3.25777
-3.26673
-3.27652
-3.2864
-3.29588
-3.30468
-3.31263
-3.31964
-3.32566
-3.33068
-3.33468
-3.33766
-3.33961
-3.34057
-3.34905
-3.34801
-3.34587
-3.3426
-3.33818
-3.33261
-3.32585
-3.31791
-3.30877
-3.29848
-3.28713
-3.27494
-3.2624
-3.25043
-3.24047
-3.23471
-3.23471
-3.24047
-3.25043
-3.2624
-3.27494
-3.28713
-3.29848
-3.30877
-3.31791
-3.32585
-3.33261
-3.33818
-3.3426
-3.34587
-3.34801
-3.34905
-3.35906
-3.35794
-3.35565
-3.35212
-3.34734
-3.34126
-3.33384
-3.325
-3.31472
-3.30293
-3.28959
-3.27477
-3.25879
-3.24265
-3.22828
-3.21964
-3.21964
-3.22828
-3.24265
-3.25879
-3.27477
-3.28959
-3.30293
-3.31472
-3.325
-3.33383
-3.34126
-3.34734
-3.35212
-3.35565
-3.35794
-3.35906
-3.37082
-3.36966
-3.36725
-3.36353
-3.35846
-3.35198
-3.34399
-3.33441
-3.32313
-3.31
-3.29481
-3.27726
-3.25723
-3.23545
-3.21429
-3.20098
-3.20098
-3.21429
-3.23545
-3.25723
-3.27726
-3.29481
-3.31
-3.32313
-3.33441
-3.34399
-3.35197
-3.35846
-3.36353
-3.36725
-3.36966
-3.37082
-3.38458
-3.38339
-3.38093
-3.3771
-3.37186
-3.36511
-3.35673
-3.34662
-3.33465
-3.32064
-3.30413
-3.28435
-3.26034
-3.23224
-3.2017
-3.18066
-3.18066
-3.2017
-3.23224
-3.26034
-3.28435
-3.30413
-3.32064
-3.33465
-3.34662
-3.35673
-3.3651
-3.37186
-3.3771
-3.38092
-3.38339
-3.38458
-3.40056
-3.3994
-3.39696
-3.39314
-3.38785
-3.38098
-3.3724
-3.36198
-3.34967
-3.33543
-3.31857
-3.29759
-3.27062
-3.24134
-3.26831
-3.44277
-3.44277
-3.2683
-3.24134
-3.27062
-3.29759
-3.31857
-3.33542
-3.34967
-3.36198
-3.3724
-3.38098
-3.38785
-3.39314
-3.39696
-3.3994
-3.40056
-3.41904
-3.41795
-3.41563
-3.41194
-3.40672
-3.39985
-3.39116
-3.38051
-3.36799
-3.35398
-3.33771
-3.31718
-3.28818
-3.32691
-4.29852
-4.67264
-4.67264
-4.29849
-3.3269
-3.28818
-3.31718
-3.33771
-3.35398
-3.36799
-3.3805
-3.39116
-3.39985
-3.40672
-3.41194
-3.41563
-3.41795
-3.41904
-3.44027
-3.43931
-3.43723
-3.43377
-3.4287
-3.42183
-3.41296
-3.40178
-3.38858
-3.37478
-3.35993
-3.34204
-3.37208
-3.96579
-4.71902
-4.68705
-4.68705
-4.71902
-3.96575
-3.37206
-3.34203
-3.35993
-3.37478
-3.38857
-3.40178
-3.41296
-3.42183
-3.42869
-3.43377
-3.43723
-3.43931
-3.44026
-3.46447
-3.46374
-3.46203
-3.45891
-3.45395
-3.44695
-3.43757
-3.42484
-3.40928
-3.39506
-3.38048
-3.39992
-4.03961
-4.45591
-4.4831
-4.46201
-4.46201
-4.4831
-4.45591
-4.03959
-3.39991
-3.38048
-3.39506
-3.40928
-3.42483
-3.43757
-3.44695
-3.45395
-3.45891
-3.46203
-3.46374
-3.46446
-3.49183
-3.49145
-3.4903
-3.48761
-3.48258
-3.47518
-3.46462
-3.44851
-3.42714
-3.41209
-3.46089
-3.84737
-4.25573
-4.2631
-4.2492
-4.24009
-4.24009
-4.2492
-4.2631
-4.25572
-3.84735
-3.46088
-3.41209
-3.42713
-3.4485
-3.46462
-3.47518
-3.48258
-3.4876
-3.4903
-3.49144
-3.49183
-3.52242
-3.52252
-3.52218
-3.52003
-3.51461
-3.50609
-3.49401
-3.47392
-3.46474
-3.50572
-3.79098
-4.00355
-4.02593
-4.02924
-4.02704
-4.025
-4.025
-4.02704
-4.02924
-4.02592
-4.00355
-3.79098
-3.50572
-3.46474
-3.47392
-3.49401
-3.50609
-3.51461
-3.52003
-3.52218
-3.52252
-3.52242
-3.55592
-3.55676
-3.55774
-3.55629
-3.54936
-3.53833
-3.52554
-3.52341
-3.61429
-3.6941
-3.75748
-3.79097
-3.81258
-3.82301
-3.82636
-3.82754
-3.82754
-3.82636
-3.823
-3.81258
-3.79097
-3.75748
-3.6941
-3.61429
-3.52341
-3.52554
-3.53833
-3.54935
-3.55629
-3.55773
-3.55676
-3.55592
-3.59139
-3.5935
-3.59656
-3.59593
-3.58413
-3.56601
-3.54423
-3.46127
-3.47497
-3.52126
-3.56743
-3.60254
-3.62687
-3.64115
-3.64861
-3.65203
-3.65203
-3.6486
-3.64115
-3.62687
-3.60254
-3.56743
-3.52126
-3.47497
-3.46126
-3.54423
-3.56601
-3.58413
-3.59593
-3.59656
-3.59349
-3.59139
-3.62709
-3.63138
-3.63733
-3.63849
-3.6069
-3.50115
-3.28701
-3.26079
-3.31403
-3.3592
-3.40232
-3.43796
-3.46335
-3.48048
-3.49104
-3.49608
-3.49608
-3.49104
-3.48048
-3.46335
-3.43796
-3.40232
-3.3592
-3.31403
-3.26079
-3.28701
-3.50115
-3.60689
-3.63849
-3.63733
-3.63137
-3.62709
-3.66073
-3.66766
-3.67716
-3.67913
-3.31044
-2.95328
-3.02549
-3.10191
-3.16029
-3.21178
-3.25649
-3.29268
-3.32013
-3.33969
-3.35217
-3.35823
-3.35823
-3.35217
-3.33969
-3.32013
-3.29268
-3.25649
-3.21178
-3.16029
-3.10191
-3.02549
-2.95328
-3.31043
-3.67913
-3.67716
-3.66766
-3.66073
-3.68907
-3.69777
-3.71257
-3.44069
-2.7696
-2.79285
-2.8835
-2.96035
-3.0259
-3.08151
-3.12821
-3.16613
-3.19543
-3.2166
-3.2303
-3.237
-3.237
-3.2303
-3.2166
-3.19543
-3.16613
-3.12821
-3.08151
-3.0259
-2.96035
-2.8835
-2.79285
-2.76959
-3.44067
-3.71257
-3.69777
-3.68907
-3.70772
-3.71884
-3.57737
-2.68053
-2.56334
-2.67227
-2.7633
-2.84368
-2.91257
-2.97042
-3.01848
-3.05739
-3.08759
-3.10961
-3.12396
-3.13102
-3.13102
-3.12396
-3.10961
-3.08759
-3.05739
-3.01848
-2.97042
-2.91257
-2.84368
-2.7633
-2.67227
-2.56334
-2.68051
-3.57735
-3.71884
-3.70771
-3.04641
-3.00687
-2.52063
-2.34661
-2.46973
-2.57687
-2.67035
-2.75138
-2.82031
-2.87817
-2.92611
-2.96491
-2.99514
-3.01728
-3.03179
-3.03895
-3.03895
-3.03179
-3.01728
-2.99514
-2.96491
-2.92611
-2.87817
-2.82031
-2.75138
-2.67035
-2.57687
-2.46973
-2.34661
-2.52062
-3.00687
-3.0464
-2.07083
-2.10593
-2.18733
-2.30476
-2.41718
-2.51756
-2.60554
-2.68215
-2.74784
-2.80339
-2.84963
-2.88719
-2.91658
-2.93822
-2.95243
-2.95947
-2.95947
-2.95243
-2.93822
-2.91658
-2.88719
-2.84963
-2.80339
-2.74784
-2.68215
-2.60554
-2.51756
-2.41718
-2.30476
-2.18733
-2.10593
-2.07084
-2.12464
-2.15613
-2.22105
-2.30944
-2.40043
-2.48584
-2.56317
-2.63222
-2.6924
-2.74392
-2.78717
-2.82255
-2.85039
-2.87098
-2.88456
-2.8913
-2.8913
-2.88456
-2.87098
-2.85039
-2.82255
-2.78717
-2.74392
-2.6924
-2.63222
-2.56317
-2.48584
-2.40043
-2.30944
-2.22105
-2.15613
-2.12464
-2.19175
-2.21626
-2.26513
-2.33037
-2.40126
-2.4714
-2.53743
-2.59741
-2.65083
-2.69728
-2.73671
-2.76924
-2.79501
-2.81417
-2.82685
-2.83316
-2.83316
-2.82685
-2.81417
-2.79501
-2.76924
-2.73671
-2.69728
-2.65083
-2.59741
-2.53743
-2.47141
-2.40127
-2.33038
-2.26513
-2.21626
-2.19175
-2.25152
-2.27024
-2.30653
-2.35545
-2.41071
-2.46743
-2.52243
-2.57363
-2.62006
-2.66104
-2.69625
-2.72556
-2.74895
-2.76643
-2.77805
-2.78384
-2.78384
-2.77805
-2.76643
-2.74895
-2.72556
-2.69625
-2.66104
-2.62006
-2.57363
-2.52243
-2.46743
-2.41071
-2.35545
-2.30653
-2.27024
-2.25152
-2.30216
-2.31633
-2.34353
-2.38072
-2.42386
-2.4694
-2.51466
-2.55774
-2.59747
-2.63304
-2.66396
-2.68994
-2.71081
-2.7265
-2.73697
-2.7422
-2.7422
-2.73697
-2.7265
-2.71081
-2.68994
-2.66396
-2.63304
-2.59747
-2.55774
-2.51466
-2.4694
-2.42387
-2.38073
-2.34353
-2.31633
-2.30216
-2.34414
-2.35492
-2.37559
-2.40417
-2.43797
-2.47444
-2.51146
-2.54736
-2.58097
-2.61146
-2.63826
-2.66097
-2.67934
-2.69323
-2.70252
-2.70718
-2.70718
-2.70252
-2.69323
-2.67934
-2.66097
-2.63826
-2.61146
-2.58097
-2.54736
-2.51146
-2.47444
-2.43797
-2.40417
-2.37559
-2.35492
-2.34414
-2.37863
-2.3869
-2.40279
-2.42496
-2.45159
-2.48083
-2.511
-2.54072
-2.56893
-2.59483
-2.61781
-2.63745
-2.65344
-2.66558
-2.67373
-2.67783
-2.67783
-2.67373
-2.66558
-2.65344
-2.63745
-2.61781
-2.59483
-2.56894
-2.54072
-2.511
-2.48083
-2.45159
-2.42496
-2.40279
-2.3869
-2.37863
-2.40685
-2.41326
-2.4256
-2.44296
-2.46406
-2.48753
-2.51209
-2.53661
-2.56016
-2.58199
-2.60154
-2.61836
-2.63214
-2.64265
-2.64974
-2.6533
-2.6533
-2.64974
-2.64265
-2.63214
-2.61836
-2.60154
-2.58199
-2.56016
-2.53661
-2.51209
-2.48753
-2.46406
-2.44296
-2.4256
-2.41326
-2.40685
-2.42991
-2.43492
-2.44459
-2.4583
-2.4751
-2.494
-2.514
-2.53418
-2.55374
-2.57205
-2.58857
-2.60288
-2.61466
-2.62368
-2.62978
-2.63286
-2.63286
-2.62978
-2.62368
-2.61466
-2.60288
-2.58857
-2.57205
-2.55374
-2.53418
-2.514
-2.494
-2.4751
-2.4583
-2.44459
-2.43492
-2.42991
-2.44876
-2.4527
-2.46035
-2.47124
-2.48469
-2.49994
-2.51623
-2.53282
-2.54903
-2.56432
-2.57821
-2.5903
-2.60031
-2.608
-2.61322
-2.61585
-2.61585
-2.61322
-2.60801
-2.60031
-2.5903
-2.57821
-2.56432
-2.54904
-2.53282
-2.51623
-2.49994
-2.48469
-2.47124
-2.46035
-2.4527
-2.44876
-2.46416
-2.4673
-2.47338
-2.48208
-2.49289
-2.50524
-2.51852
-2.53214
-2.54555
-2.55828
-2.5699
-2.58008
-2.58854
-2.59506
-2.59949
-2.60173
-2.60173
-2.59949
-2.59506
-2.58854
-2.58008
-2.5699
-2.55828
-2.54556
-2.53214
-2.51852
-2.50524
-2.49289
-2.48208
-2.47338
-2.4673
-2.46416
-2.47677
-2.47927
-2.48414
-2.49113
-2.49985
-2.50987
-2.5207
-2.53189
-2.54297
-2.55353
-2.56324
-2.57177
-2.57888
-2.58438
-2.58812
-2.59002
-2.59002
-2.58812
-2.58438
-2.57888
-2.57177
-2.56324
-2.55353
-2.54297
-2.53189
-2.52071
-2.50987
-2.49985
-2.49113
-2.48414
-2.47927
-2.47677
-2.48709
-2.4891
-2.49301
-2.49865
-2.50571
-2.51385
-2.52271
-2.53189
-2.54103
-2.54979
-2.55786
-2.56499
-2.57095
-2.57557
-2.57872
-2.58032
-2.58032
-2.57872
-2.57557
-2.57095
-2.56499
-2.55786
-2.54979
-2.54103
-2.53189
-2.52271
-2.51385
-2.50571
-2.49865
-2.49301
-2.4891
-2.48709
-2.49554
-2.49716
-2.50033
-2.50488
-2.51062
-2.51725
-2.52449
-2.53203
-2.53957
-2.54682
-2.55352
-2.55946
-2.56444
-2.56831
-2.57095
-2.57229
-2.57229
-2.57095
-2.56831
-2.56444
-2.55946
-2.55352
-2.54682
-2.53957
-2.53203
-2.52449
-2.51725
-2.51062
-2.50489
-2.50033
-2.49716
-2.49554
-2.50248
-2.50379
-2.50635
-2.51005
-2.51471
-2.52012
-2.52605
-2.53224
-2.53845
-2.54445
-2.55001
-2.55495
-2.5591
-2.56233
-2.56453
-2.56566
-2.56566
-2.56453
-2.56233
-2.5591
-2.55495
-2.55001
-2.54445
-2.53845
-2.53224
-2.52605
-2.52012
-2.51471
-2.51005
-2.50635
-2.50379
-2.50248
-2.50816
-2.50923
-2.51131
-2.51432
-2.51812
-2.52254
-2.5274
-2.53248
-2.5376
-2.54255
-2.54716
-2.55126
-2.55471
-2.5574
-2.55924
-2.56017
-2.56017
-2.55924
-2.5574
-2.55471
-2.55126
-2.54716
-2.54255
-2.5376
-2.53248
-2.5274
-2.52254
-2.51812
-2.51432
-2.51131
-2.50923
-2.50816
-2.51283
-2.5137
-2.51539
-2.51785
-2.52095
-2.52457
-2.52855
-2.53273
-2.53694
-2.54103
-2.54484
-2.54824
-2.5511
-2.55334
-2.55487
-2.55565
-2.55565
-2.55487
-2.55334
-2.5511
-2.54824
-2.54484
-2.54103
-2.53694
-2.53273
-2.52855
-2.52457
-2.52095
-2.51785
-2.51539
-2.5137
-2.51283
-2.51667
-2.51737
-2.51875
-2.52076
-2.52329
-2.52626
-2.52952
-2.53296
-2.53643
-2.5398
-2.54295
-2.54576
-2.54814
-2.54999
-2.55126
-2.55191
-2.55191
-2.55126
-2.54999
-2.54814
-2.54576
-2.54295
-2.5398
-2.53643
-2.53296
-2.52952
-2.52626
-2.52329
-2.52076
-2.51875
-2.51737
-2.51667
-2.51982
-2.52039
-2.52152
-2.52316
-2.52524
-2.52766
-2.53034
-2.53317
-2.53603
-2.53881
-2.54141
-2.54373
-2.5457
-2.54724
-2.54829
-2.54883
-2.54883
-2.54829
-2.54724
-2.5457
-2.54373
-2.54141
-2.53881
-2.53603
-2.53317
-2.53034
-2.52766
-2.52524
-2.52316
-2.52152
-2.52039
-2.51982
-2.5224
-2.52288
-2.5238
-2.52514
-2.52684
-2.52883
-2.53103
-2.53336
-2.53571
-2.538
-2.54015
-2.54207
-2.5437
-2.54497
-2.54584
-2.54629
-2.54629
-2.54584
-2.54497
-2.5437
-2.54207
-2.54015
-2.538
-2.53571
-2.53336
-2.53103
-2.52883
-2.52684
-2.52514
-2.5238
-2.52288
-2.5224
-2.52453
-2.52492
-2.52567
-2.52677
-2.52817
-2.5298
-2.53161
-2.53352
-2.53546
-2.53735
-2.53912
-2.5407
-2.54205
-2.5431
-2.54382
-2.54419
-2.54419
-2.54382
-2.5431
-2.54205
-2.5407
-2.53912
-2.53735
-2.53546
-2.53352
-2.53161
-2.5298
-2.52817
-2.52677
-2.52567
-2.52492
-2.52453
-2.52628
-2.5266
-2.52722
-2.52812
-2.52926
-2.5306
-2.53209
-2.53366
-2.53526
-2.53681
-2.53827
-2.53958
-2.54069
-2.54156
-2.54216
-2.54247
-2.54247
-2.54216
-2.54156
-2.54069
-2.53958
-2.53827
-2.53681
-2.53526
-2.53366
-2.53209
-2.5306
-2.52926
-2.52812
-2.52722
-2.5266
-2.52628
-2.52772
-2.52798
-2.52849
-2.52923
-2.53017
-2.53127
-2.53249
-2.53378
-2.53509
-2.53638
-2.53758
-2.53866
-2.53958
-2.5403
-2.54079
-2.54104
-2.54104
-2.54079
-2.5403
-2.53958
-2.53866
-2.53758
-2.53638
-2.53509
-2.53378
-2.53249
-2.53127
-2.53017
-2.52923
-2.52849
-2.52798
-2.52772
-2.5289
-2.52912
-2.52953
-2.53014
-2.53091
-2.53182
-2.53282
-2.53388
-2.53496
-2.53602
-2.53701
-2.53791
-2.53866
-2.53925
-2.53966
-2.53987
-2.53987
-2.53966
-2.53925
-2.53866
-2.53791
-2.53701
-2.53602
-2.53497
-2.53388
-2.53282
-2.53182
-2.53091
-2.53014
-2.52953
-2.52912
-2.5289
-2.52988
-2.53005
-2.53039
-2.53089
-2.53153
-2.53227
-2.5331
-2.53397
-2.53486
-2.53573
-2.53655
-2.53728
-2.53791
-2.5384
-2.53873
-2.5389
-2.5389
-2.53873
-2.5384
-2.53791
-2.53728
-2.53655
-2.53573
-2.53486
-2.53397
-2.5331
-2.53227
-2.53153
-2.53089
-2.53039
-2.53005
-2.52988
-2.53068
-2.53082
-2.5311
-2.53151
-2.53203
-2.53264
-2.53332
-2.53404
-2.53478
-2.53549
-2.53617
-2.53677
-2.53729
-2.53769
-2.53797
-2.53811
-2.53811
-2.53797
-2.53769
-2.53729
-2.53677
-2.53617
-2.53549
-2.53478
-2.53404
-2.53332
-2.53264
-2.53203
-2.53151
-2.5311
-2.53082
-2.53068
-2.53134
-2.53145
-2.53168
-2.53202
-2.53245
-2.53295
-2.53351
-2.5341
-2.53471
-2.5353
-2.53585
-2.53635
-2.53678
-2.53711
-2.53734
-2.53745
-2.53745
-2.53734
-2.53711
-2.53678
-2.53635
-2.53585
-2.5353
-2.53471
-2.5341
-2.53351
-2.53295
-2.53245
-2.53202
-2.53168
-2.53145
-2.53134
-2.53188
-2.53197
-2.53216
-2.53244
-2.53279
-2.53321
-2.53367
-2.53415
-2.53465
-2.53514
-2.53559
-2.53601
-2.53635
-2.53663
-2.53682
-2.53691
-2.53691
-2.53682
-2.53663
-2.53635
-2.53601
-2.53559
-2.53514
-2.53465
-2.53415
-2.53367
-2.53321
-2.53279
-2.53244
-2.53216
-2.53197
-2.53188
-2.53232
-2.5324
-2.53256
-2.53279
-2.53308
-2.53342
-2.5338
-2.5342
-2.53461
-2.53501
-2.53538
-2.53572
-2.53601
-2.53623
-2.53639
-2.53647
-2.53647
-2.53639
-2.53623
-2.53601
-2.53572
-2.53538
-2.53501
-2.53461
-2.5342
-2.5338
-2.53342
-2.53308
-2.53279
-2.53256
-2.5324
-2.53232
-2.53269
-2.53276
-2.53288
-2.53307
-2.53331
-2.53359
-2.5339
-2.53423
-2.53457
-2.5349
-2.53521
-2.53549
-2.53572
-2.53591
-2.53604
-2.5361
-2.5361
-2.53604
-2.53591
-2.53572
-2.53549
-2.53521
-2.5349
-2.53457
-2.53423
-2.5339
-2.53359
-2.53331
-2.53307
-2.53288
-2.53276
-2.53269
-2.53299
-2.53305
-2.53315
-2.53331
-2.5335
-2.53373
-2.53399
-2.53426
-2.53454
-2.53481
-2.53506
-2.53529
-2.53549
-2.53564
-2.53575
-2.5358
-2.5358
-2.53575
-2.53564
-2.53549
-2.53529
-2.53506
-2.53481
-2.53454
-2.53426
-2.53399
-2.53373
-2.5335
-2.53331
-2.53315
-2.53305
-2.53299
-2.53324
-2.53329
-2.53337
-2.5335
-2.53366
-2.53385
-2.53406
-2.53428
-2.53451
-2.53474
-2.53495
-2.53514
-2.5353
-2.53542
-2.53551
-2.53555
-2.53555
-2.53551
-2.53542
-2.5353
-2.53514
-2.53495
-2.53474
-2.53451
-2.53428
-2.53406
-2.53385
-2.53366
-2.5335
-2.53337
-2.53329
-2.53324
-2.53345
-2.53348
-2.53355
-2.53366
-2.53379
-2.53395
-2.53412
-2.5343
-2.53449
-2.53468
-2.53485
-2.535
-2.53514
-2.53524
-2.53531
-2.53535
-2.53535
-2.53531
-2.53524
-2.53514
-2.535
-2.53485
-2.53468
-2.53449
-2.5343
-2.53412
-2.53395
-2.53379
-2.53366
-2.53355
-2.53348