/*--------------------------------*- C++ -*----------------------------------*\
  =========                 |
  \\      /  F ield         | OpenFOAM: The Open Source CFD Toolbox
   \\    /   O peration     | Website:  https://openfoam.org
    \\  /    A nd           | Version:  9
     \\/     M anipulation  |
\*---------------------------------------------------------------------------*/
FoamFile
{
    format      ascii;
    class       surfaceScalarField;
    location    "0.3";
    object      phi;
}
// * * * * * * * * * * * * * * * * * * * * * * * * * * * * * * * * * * * * * //

dimensions      [0 3 -1 0 0 0 0];

internalField   nonuniform List<scalar> 
8032
(
-7.72809e-09
7.85357e-09
-1.62725e-08
7.389e-09
-2.33715e-08
7.17533e-09
-2.98764e-08
6.60295e-09
-3.53574e-08
5.5628e-09
-3.95582e-08
4.25815e-09
-4.22598e-08
2.7383e-09
-4.33163e-08
1.07967e-09
-4.26647e-08
-6.36885e-10
-4.0321e-08
-2.33354e-09
-3.63749e-08
-3.93899e-09
-3.09819e-08
-5.38759e-09
-2.4356e-08
-6.62185e-09
-1.67594e-08
-7.59325e-09
-8.49272e-09
-8.26416e-09
1.1791e-10
-8.60861e-09
8.733e-09
-8.6136e-09
1.70134e-08
-8.2792e-09
2.4633e-08
-7.61885e-09
3.12922e-08
-6.65865e-09
3.6729e-08
-5.43648e-09
4.07296e-08
-4.00042e-09
4.31368e-08
-2.40714e-09
4.38564e-08
-7.19652e-10
4.28617e-08
9.9468e-10
4.01955e-08
2.66623e-09
3.59704e-08
4.22513e-09
3.03678e-08
5.60273e-09
2.36351e-08
6.7324e-09
1.60822e-08
7.55272e-09
8.07364e-09
8.01048e-09
8.07369e-09
-8.67075e-09
1.64703e-08
-1.73441e-08
1.60645e-08
-2.52789e-08
1.51664e-08
-3.22815e-08
1.368e-08
-3.81298e-08
1.14781e-08
-4.25576e-08
8.73523e-09
-4.53679e-08
5.58236e-09
-4.64276e-08
2.16134e-09
-4.56764e-08
-1.37308e-09
-4.31328e-08
-4.86695e-09
-3.88904e-08
-8.17372e-09
-3.31136e-08
-1.11588e-08
-2.60282e-08
-1.37027e-08
-1.79129e-08
-1.57051e-08
-9.08655e-09
-1.70876e-08
1.03644e-10
-1.77966e-08
9.29661e-09
-1.78048e-08
1.8131e-08
-1.71123e-08
2.62597e-08
-1.57466e-08
3.33635e-08
-1.37618e-08
3.91634e-08
-1.12358e-08
4.34315e-08
-8.26825e-09
4.60004e-08
-4.97593e-09
4.677e-08
-1.48914e-09
4.57118e-08
2.05302e-09
4.28714e-08
5.50683e-09
3.83688e-08
8.72794e-09
3.2397e-08
1.15746e-08
2.52186e-08
1.3911e-08
1.71619e-08
1.56098e-08
8.61313e-09
1.6559e-08
1.66884e-08
-9.58945e-09
2.60079e-08
-1.90279e-08
2.54791e-08
-2.78314e-08
2.39873e-08
-3.55619e-08
2.14518e-08
-4.19603e-08
1.79203e-08
-4.677e-08
1.35815e-08
-4.97922e-08
8.63123e-09
-5.08965e-08
3.2846e-09
-5.00279e-08
-2.22834e-09
-4.72108e-08
-7.67443e-09
-4.25487e-08
-1.28287e-08
-3.62201e-08
-1.74818e-08
-2.84705e-08
-2.14479e-08
-1.96025e-08
-2.45697e-08
-9.96296e-09
-2.67244e-08
7.03934e-11
-2.78278e-08
1.01044e-08
-2.78371e-08
1.97455e-08
-2.67521e-08
2.86158e-08
-2.46159e-08
3.63673e-08
-2.15125e-08
4.2696e-08
-1.75641e-08
4.73539e-08
-1.29258e-08
5.01585e-08
-7.78036e-09
5.10007e-08
-2.33121e-09
4.98495e-08
3.20428e-09
4.67549e-08
8.60167e-09
4.18475e-08
1.36356e-08
3.53375e-08
1.80849e-08
2.7511e-08
2.17371e-08
1.87251e-08
2.43955e-08
9.40092e-09
2.58862e-08
2.60889e-08
-1.06731e-08
3.66453e-08
-2.12711e-08
3.6052e-08
-3.11455e-08
3.38653e-08
-3.98407e-08
3.01693e-08
-4.70207e-08
2.51285e-08
-5.24006e-08
1.89871e-08
-5.5765e-08
1.20163e-08
-5.69769e-08
4.51196e-09
-5.59823e-08
-3.21147e-09
-5.28133e-08
-1.08348e-08
-4.75884e-08
-1.80469e-08
-4.05078e-08
-2.45574e-08
-3.18454e-08
-3.01061e-08
-2.19384e-08
-3.44733e-08
-1.11735e-08
-3.74867e-08
2.85967e-11
-3.90278e-08
1.12295e-08
-3.90364e-08
2.19909e-08
-3.75122e-08
3.18912e-08
-3.45152e-08
4.05427e-08
-3.01634e-08
4.76066e-08
-2.46275e-08
5.28061e-08
-1.81251e-08
5.5938e-08
-1.09121e-08
5.68807e-08
-3.27382e-09
5.55998e-08
4.48531e-09
5.21509e-08
1.20508e-08
4.66798e-08
1.91069e-08
3.94208e-08
2.53438e-08
3.06925e-08
3.04656e-08
2.08938e-08
3.41952e-08
1.04914e-08
3.62873e-08
3.65824e-08
-1.21137e-08
4.87151e-08
-2.41446e-08
4.80583e-08
-3.54054e-08
4.51211e-08
-4.5358e-08
4.01316e-08
-5.35833e-08
3.337e-08
-5.97454e-08
2.51661e-08
-6.35969e-08
1.58827e-08
-6.49841e-08
5.91127e-09
-6.38495e-08
-4.33653e-09
-6.02338e-08
-1.44429e-08
-5.42747e-08
-2.40001e-08
-4.62019e-08
-3.26254e-08
-3.63285e-08
-3.99757e-08
-2.50388e-08
-4.57599e-08
-1.27732e-08
-4.97498e-08
-1.07567e-11
-5.17883e-08
1.27495e-08
-5.1795e-08
2.50083e-08
-4.97698e-08
3.62862e-08
-4.57922e-08
4.61415e-08
-4.0018e-08
5.41886e-08
-3.26741e-08
6.01125e-08
-2.40487e-08
6.36819e-08
-1.44814e-08
6.47583e-08
-4.3502e-09
6.33028e-08
5.94099e-09
5.93785e-08
1.59752e-08
5.31516e-08
2.5334e-08
4.48886e-08
3.36072e-08
3.49524e-08
4.04012e-08
2.37952e-08
4.53518e-08
1.19503e-08
4.8136e-08
4.85319e-08
-1.39765e-08
6.2677e-08
-2.78494e-08
6.19153e-08
-4.08788e-08
5.81447e-08
-5.24337e-08
5.16901e-08
-6.20016e-08
4.29473e-08
-6.9179e-08
3.23548e-08
-7.36727e-08
2.03872e-08
-7.53022e-08
7.55008e-09
-7.40015e-08
-5.62938e-09
-6.98198e-08
-1.86183e-08
-6.29185e-08
-3.08961e-08
-5.35657e-08
-4.1974e-08
-4.21252e-08
-5.14127e-08
-2.90431e-08
-5.88393e-08
-1.48299e-08
-6.39607e-08
-4.12033e-11
-6.65752e-08
1.4745e-08
-6.65797e-08
2.89502e-08
-6.39739e-08
4.20187e-08
-5.88597e-08
5.3439e-08
-5.14377e-08
6.27642e-08
-4.19989e-08
6.96297e-08
-3.09139e-08
7.37673e-08
-1.86189e-08
7.50168e-08
-5.59961e-09
7.33329e-08
7.625e-09
6.8789e-08
2.05193e-08
6.15775e-08
3.25458e-08
5.2007e-08
4.31775e-08
4.04973e-08
5.19113e-08
2.75732e-08
5.82773e-08
1.38482e-08
6.18588e-08
6.23826e-08
-1.63595e-08
7.90107e-08
-3.25883e-08
7.81288e-08
-4.78589e-08
7.34086e-08
-6.14303e-08
6.5262e-08
-7.26884e-08
5.42103e-08
-8.11475e-08
4.0821e-08
-8.64553e-08
2.57023e-08
-8.8395e-08
9.49684e-09
-8.68877e-08
-7.13047e-09
-8.19911e-08
-2.35095e-08
-7.38958e-08
-3.89869e-08
-6.29176e-08
-5.29485e-08
-4.94849e-08
-6.48423e-08
-3.41223e-08
-7.41993e-08
-1.74302e-08
-8.06506e-08
-6.12474e-11
-8.39424e-08
1.73052e-08
-8.39448e-08
3.39896e-08
-8.06573e-08
4.93392e-08
-7.42085e-08
6.27532e-08
-6.48511e-08
7.37067e-08
-5.2952e-08
8.17713e-08
-3.89783e-08
8.66324e-08
-2.34797e-08
8.81015e-08
-7.06867e-09
8.61256e-08
9.601e-09
8.07909e-08
2.58542e-08
7.23232e-08
4.10137e-08
6.10849e-08
5.44161e-08
4.75693e-08
6.54262e-08
3.23897e-08
7.34559e-08
1.62695e-08
7.79837e-08
7.86507e-08
-1.9366e-08
9.83724e-08
-3.85732e-08
9.73276e-08
-5.66583e-08
9.14884e-08
-7.27508e-08
8.13534e-08
-8.61166e-08
6.75785e-08
-9.61724e-08
5.08811e-08
-1.02493e-07
3.20285e-08
-1.04818e-07
1.18266e-08
-1.03049e-07
-8.89403e-09
-9.72554e-08
-2.92992e-08
-8.76619e-08
-4.85765e-08
-7.46441e-08
-6.5963e-08
-5.8711e-08
-8.07726e-08
-4.04857e-08
-9.24222e-08
-2.06813e-08
-1.00453e-07
-7.25117e-11
-1.0455e-07
2.05341e-08
-1.0455e-07
4.0332e-08
-1.00454e-07
5.85463e-08
-9.2422e-08
7.4464e-08
-8.07682e-08
8.74623e-08
-6.59498e-08
9.70327e-08
-4.85485e-08
1.02802e-07
-2.92487e-08
1.04546e-07
-8.81292e-09
1.02203e-07
1.19446e-08
9.58736e-08
3.21834e-08
8.58272e-08
5.10604e-08
7.24932e-08
6.77499e-08
5.64556e-08
8.14643e-08
3.84441e-08
9.14693e-08
1.93113e-08
9.71134e-08
9.79649e-08
-2.31246e-08
1.2148e-07
-4.60504e-08
1.20244e-07
-6.76418e-08
1.13074e-07
-8.68641e-08
1.00574e-07
-1.02841e-07
8.35557e-08
-1.14871e-07
6.29137e-08
-1.22442e-07
3.96031e-08
-1.25238e-07
1.46261e-08
-1.2314e-07
-1.09882e-08
-1.16227e-07
-3.62083e-08
-1.04769e-07
-6.0031e-08
-8.92151e-08
-8.15144e-08
-7.01731e-08
-9.98123e-08
-4.83886e-08
-1.14205e-07
-2.47145e-08
-1.24125e-07
-7.75374e-11
-1.29185e-07
2.45577e-08
-1.29184e-07
4.82268e-08
-1.24122e-07
7.0003e-08
-1.14197e-07
8.90337e-08
-9.97984e-08
1.04574e-07
-8.14899e-08
1.16017e-07
-5.99906e-08
1.22914e-07
-3.61463e-08
1.25e-07
-1.08988e-08
1.22199e-07
1.47458e-08
1.14633e-07
3.97495e-08
1.02623e-07
6.30709e-08
8.66819e-08
8.36913e-08
6.75091e-08
1.00636e-07
4.59726e-08
1.13004e-07
2.30958e-08
1.19996e-07
1.21059e-07
-2.77791e-08
1.49259e-07
-5.53118e-08
1.47771e-07
-8.12394e-08
1.38998e-07
-1.04327e-07
1.23659e-07
-1.23522e-07
1.02751e-07
-1.37983e-07
7.73753e-08
-1.4709e-07
4.87126e-08
-1.50461e-07
1.79996e-08
-1.47951e-07
-1.34954e-08
-1.39653e-07
-4.45031e-08
-1.25891e-07
-7.37902e-08
-1.07204e-07
-1.002e-07
-8.43218e-08
-1.22692e-07
-5.81421e-08
-1.40383e-07
-2.96896e-08
-1.52576e-07
-7.8639e-11
-1.58795e-07
2.95311e-08
-1.58793e-07
5.79801e-08
-1.5257e-07
8.41542e-08
-1.40371e-07
1.07029e-07
-1.22672e-07
1.25708e-07
-1.00169e-07
1.39461e-07
-7.37439e-08
1.47752e-07
-4.4437e-08
1.5026e-07
-1.34061e-08
1.46893e-07
1.81126e-08
1.37799e-07
4.88434e-08
1.23364e-07
7.75067e-08
1.04204e-07
1.02851e-07
8.11577e-08
1.23683e-07
5.52715e-08
1.38893e-07
2.7768e-08
1.47495e-07
1.4883e-07
-3.35113e-08
1.82757e-07
-6.67144e-08
1.80967e-07
-9.79779e-08
1.70257e-07
-1.25816e-07
1.51495e-07
-1.48965e-07
1.25899e-07
-1.66407e-07
9.48181e-08
-1.77397e-07
5.97034e-08
-1.81469e-07
2.20737e-08
-1.78448e-07
-1.65142e-08
-1.68445e-07
-5.45039e-08
-1.51849e-07
-9.03841e-08
-1.29309e-07
-1.22738e-07
-1.01708e-07
-1.50292e-07
-7.01259e-08
-1.71963e-07
-3.5801e-08
-1.869e-07
-7.75165e-11
-1.94517e-07
3.56453e-08
-1.94515e-07
6.99681e-08
-1.86892e-07
1.01546e-07
-1.71949e-07
1.29144e-07
-1.50269e-07
1.5168e-07
-1.22705e-07
1.68273e-07
-9.03368e-08
1.78275e-07
-5.44394e-08
1.813e-07
-1.64308e-08
1.77238e-07
2.21748e-08
1.66267e-07
5.98149e-08
1.48851e-07
9.49229e-08
1.25735e-07
1.25967e-07
9.79308e-08
1.51486e-07
6.66961e-08
1.70125e-07
3.35109e-08
1.80687e-07
1.82339e-07
-4.05377e-08
2.23296e-07
-8.0694e-08
2.2112e-07
-1.18498e-07
2.08057e-07
-1.52158e-07
1.85153e-07
-1.80148e-07
1.53888e-07
-2.01241e-07
1.1591e-07
-2.14532e-07
7.29955e-08
-2.1946e-07
2.70027e-08
-2.1581e-07
-2.01626e-08
-2.03716e-07
-6.65966e-08
-1.83646e-07
-1.10452e-07
-1.56386e-07
-1.49996e-07
-1.23003e-07
-1.83673e-07
-8.48042e-08
-2.1016e-07
-4.3286e-08
-2.28417e-07
-7.52928e-11
-2.37727e-07
4.31351e-08
-2.37724e-07
8.46523e-08
-2.28409e-07
1.2285e-07
-2.10146e-07
1.56232e-07
-1.83651e-07
1.83491e-07
-1.49964e-07
2.03562e-07
-1.10407e-07
2.1566e-07
-6.65377e-08
2.19318e-07
-2.00887e-08
2.14404e-07
2.70891e-08
2.01133e-07
7.30865e-08
1.80066e-07
1.1599e-07
1.52105e-07
1.53928e-07
1.18472e-07
1.85119e-07
8.06908e-08
2.0791e-07
4.0543e-08
2.2083e-07
2.22886e-07
-4.91295e-08
2.72414e-07
-9.77864e-08
2.69771e-07
-1.43587e-07
2.53853e-07
-1.84364e-07
2.25928e-07
-2.18272e-07
1.87794e-07
-2.43824e-07
1.41462e-07
-2.59927e-07
8.90987e-08
-2.65898e-07
3.29749e-08
-2.61478e-07
-2.4582e-08
-2.46826e-07
-8.12476e-08
-2.2251e-07
-1.34766e-07
-1.8948e-07
-1.83024e-07
-1.4903e-07
-2.24122e-07
-1.02744e-07
-2.56446e-07
-5.2434e-08
-2.78726e-07
-7.26706e-11
-2.90087e-07
5.22886e-08
-2.90085e-07
1.02598e-07
-2.78718e-07
1.48885e-07
-2.56432e-07
1.89336e-07
-2.24102e-07
2.22368e-07
-1.82995e-07
2.46688e-07
-1.34727e-07
2.61347e-07
-8.11967e-08
2.65778e-07
-2.452e-08
2.59822e-07
3.30452e-08
2.43739e-07
8.91694e-08
2.18211e-07
1.41518e-07
1.84329e-07
1.87811e-07
1.43575e-07
2.25873e-07
9.77892e-08
2.53693e-07
4.91377e-08
2.69488e-07
2.72021e-07
-5.96135e-08
3.3203e-07
-1.18646e-07
3.28802e-07
-1.74206e-07
3.0941e-07
-2.23669e-07
2.75389e-07
-2.64798e-07
2.28922e-07
-2.95793e-07
1.72456e-07
-3.15327e-07
1.08632e-07
-3.22571e-07
4.02195e-08
-3.17209e-07
-2.9943e-08
-2.99435e-07
-9.90208e-08
-2.69937e-07
-1.64264e-07
-2.29866e-07
-2.23094e-07
-1.80792e-07
-2.73196e-07
-1.24636e-07
-3.12601e-07
-6.35979e-08
-3.39763e-07
-7.00939e-11
-3.53614e-07
6.34579e-08
-3.53612e-07
1.24497e-07
-3.39756e-07
1.80654e-07
-3.12589e-07
2.29731e-07
-2.73178e-07
2.69805e-07
-2.23069e-07
2.9931e-07
-1.64231e-07
3.17092e-07
-9.89795e-08
3.22466e-07
-2.98938e-08
3.15238e-07
4.02734e-08
2.95724e-07
1.08683e-07
2.64752e-07
1.7249e-07
2.23646e-07
2.28917e-07
1.74201e-07
2.75318e-07
1.18654e-07
3.09243e-07
5.96223e-08
3.28514e-07
3.31647e-07
-7.23942e-08
4.04415e-07
-1.44074e-07
4.00477e-07
-2.11532e-07
3.76865e-07
-2.71584e-07
3.3544e-07
-3.21517e-07
2.78854e-07
-3.59146e-07
2.10085e-07
-3.82862e-07
1.32347e-07
-3.91658e-07
4.90156e-08
-3.85149e-07
-3.64514e-08
-3.63569e-07
-1.206e-07
-3.27754e-07
-2.00078e-07
-2.791e-07
-2.71746e-07
-2.19513e-07
-3.32782e-07
-1.51325e-07
-3.80788e-07
-7.72084e-08
-4.13878e-07
-6.78428e-11
-4.30754e-07
7.70731e-08
-4.30752e-07
1.51191e-07
-4.13873e-07
2.19381e-07
-3.80779e-07
2.78972e-07
-3.32769e-07
3.27631e-07
-2.71727e-07
3.63454e-07
-2.00054e-07
3.85043e-07
-1.20569e-07
3.91565e-07
-3.64156e-08
3.82785e-07
4.90534e-08
3.59089e-07
1.3238e-07
3.2148e-07
2.10099e-07
2.71566e-07
2.78831e-07
2.11531e-07
3.35353e-07
1.44081e-07
3.76689e-07
7.24031e-08
4.002e-07
4.04047e-07
-8.796e-08
4.92378e-07
-1.75045e-07
4.87561e-07
-2.56995e-07
4.58813e-07
-3.29947e-07
4.0839e-07
-3.90606e-07
3.39511e-07
-4.36318e-07
2.55797e-07
-4.65129e-07
1.61158e-07
-4.75817e-07
5.97032e-08
-4.67912e-07
-4.43562e-08
-4.41698e-07
-1.46814e-07
-3.98188e-07
-2.43588e-07
-3.39079e-07
-3.30854e-07
-2.66685e-07
-4.05176e-07
-1.8384e-07
-4.63633e-07
-9.37902e-08
-5.03927e-07
-6.61064e-11
-5.24478e-07
9.36585e-08
-5.24477e-07
1.8371e-07
-5.03924e-07
2.66558e-07
-4.63627e-07
3.38957e-07
-4.05167e-07
3.98071e-07
-3.30842e-07
4.4159e-07
-2.43572e-07
4.67814e-07
-1.46794e-07
4.75732e-07
-4.43338e-08
4.65061e-07
5.97251e-08
4.36267e-07
1.61173e-07
3.90574e-07
2.55793e-07
3.29933e-07
3.39471e-07
2.56995e-07
4.08292e-07
1.75054e-07
4.58633e-07
8.79677e-08
4.8728e-07
4.92019e-07
-1.0691e-07
5.9928e-07
-2.1275e-07
5.93397e-07
-3.12345e-07
5.58405e-07
-4.01002e-07
4.97045e-07
-4.7472e-07
4.13227e-07
-5.30276e-07
3.11352e-07
-5.65293e-07
1.96175e-07
-5.78286e-07
7.26961e-08
-5.68684e-07
-5.39586e-08
-5.36828e-07
-1.78668e-07
-4.83951e-07
-2.96465e-07
-4.12113e-07
-4.02691e-07
-3.24125e-07
-4.93164e-07
-2.23433e-07
-5.64324e-07
-1.13983e-07
-6.13377e-07
-6.50077e-11
-6.38395e-07
1.13853e-07
-6.38394e-07
2.23306e-07
-6.13376e-07
3.24001e-07
-5.64322e-07
4.11994e-07
-4.9316e-07
4.83839e-07
-4.02686e-07
5.36725e-07
-2.96458e-07
5.68591e-07
-1.7866e-07
5.78207e-07
-5.39495e-08
5.65229e-07
7.27028e-08
5.30229e-07
1.96173e-07
4.7469e-07
3.11331e-07
4.00989e-07
4.13173e-07
3.12345e-07
4.96934e-07
2.12756e-07
5.58219e-07
1.06918e-07
5.93127e-07
5.98933e-07
-1.29971e-07
7.29255e-07
-2.58635e-07
7.22061e-07
-3.79704e-07
6.79472e-07
-4.87476e-07
6.04816e-07
-5.7709e-07
5.0284e-07
-6.44629e-07
3.7889e-07
-6.87204e-07
2.38749e-07
-7.03007e-07
8.84989e-08
-6.91342e-07
-6.56236e-08
-6.52625e-07
-2.17386e-07
-5.88347e-07
-3.60742e-07
-5.01017e-07
-4.90022e-07
-3.94049e-07
-6.00132e-07
-2.71632e-07
-6.86741e-07
-1.38564e-07
-7.46444e-07
-6.46371e-11
-7.76894e-07
1.38436e-07
-7.76895e-07
2.71505e-07
-7.46445e-07
3.93926e-07
-6.86743e-07
5.009e-07
-6.00134e-07
5.88238e-07
-4.90024e-07
6.52524e-07
-3.60744e-07
6.91253e-07
-2.17389e-07
7.02931e-07
-6.56277e-08
6.87143e-07
8.84907e-08
6.44584e-07
2.38732e-07
5.77062e-07
3.78854e-07
4.87463e-07
5.0277e-07
3.79702e-07
6.04696e-07
2.58641e-07
6.79283e-07
1.29977e-07
7.21784e-07
7.28914e-07
-1.58029e-07
8.87276e-07
-3.14462e-07
8.78491e-07
-4.61659e-07
8.26667e-07
-5.92691e-07
7.35847e-07
-7.0165e-07
6.11797e-07
-7.83775e-07
4.61014e-07
-8.35551e-07
2.90525e-07
-8.54779e-07
1.07727e-07
-8.4061e-07
-7.97928e-08
-7.93545e-07
-2.64451e-07
-7.154e-07
-4.38888e-07
-6.09218e-07
-5.96204e-07
-4.79151e-07
-7.30198e-07
-3.30295e-07
-8.35597e-07
-1.68484e-07
-9.08255e-07
-6.50534e-11
-9.45313e-07
1.68355e-07
-9.45314e-07
3.30168e-07
-9.08258e-07
4.79028e-07
-8.35603e-07
6.091e-07
-7.30206e-07
7.1529e-07
-5.96214e-07
7.93445e-07
-4.389e-07
8.40521e-07
-2.64465e-07
8.54703e-07
-7.981e-08
8.3549e-07
1.07704e-07
7.8373e-07
2.90492e-07
7.01621e-07
4.60962e-07
5.92677e-07
6.11715e-07
4.61656e-07
7.35716e-07
3.14465e-07
8.26471e-07
1.58034e-07
8.78224e-07
8.86944e-07
-1.92158e-07
1.07944e-06
-3.82372e-07
1.0687e-06
-5.61354e-07
1.00565e-06
-7.20685e-07
8.95177e-07
-8.53183e-07
7.44294e-07
-9.53058e-07
5.60888e-07
-1.01604e-06
3.53502e-07
-1.03944e-06
1.31129e-07
-1.02223e-06
-9.70007e-08
-9.65019e-07
-3.21663e-07
-8.70004e-07
-5.33903e-07
-7.40887e-07
-7.25321e-07
-5.82716e-07
-8.88369e-07
-4.01686e-07
-1.01663e-06
-2.04896e-07
-1.10504e-06
-6.63059e-11
-1.15014e-06
2.04764e-07
-1.15014e-06
4.01557e-07
-1.10505e-06
5.82591e-07
-1.01664e-06
7.40768e-07
-8.88383e-07
8.69893e-07
-7.25339e-07
9.64918e-07
-5.33924e-07
1.02214e-06
-3.21689e-07
1.03936e-06
-9.70309e-08
1.01597e-06
1.31092e-07
9.53011e-07
3.53454e-07
8.53152e-07
5.60821e-07
7.20669e-07
7.44197e-07
5.61348e-07
8.95037e-07
3.82374e-07
1.00545e-06
1.92161e-07
1.06843e-06
1.07911e-06
-2.33669e-07
1.3131e-06
-4.64969e-07
1.3e-06
-6.82613e-07
1.22329e-06
-8.7637e-07
1.08893e-06
-1.03751e-06
9.05429e-07
-1.15898e-06
6.82363e-07
-1.2356e-06
4.30117e-07
-1.26409e-06
1.59624e-07
-1.2432e-06
-1.17893e-07
-1.17365e-06
-3.91211e-07
-1.05812e-06
-6.49434e-07
-9.01105e-07
-8.82338e-07
-7.0874e-07
-1.08073e-06
-4.88562e-07
-1.2368e-06
-2.49207e-07
-1.3444e-06
-6.84292e-11
-1.39928e-06
2.49071e-07
-1.39928e-06
4.88429e-07
-1.34441e-06
7.08611e-07
-1.23682e-06
9.00983e-07
-1.08076e-06
1.05801e-06
-8.82364e-07
1.17355e-06
-6.49465e-07
1.24311e-06
-3.91249e-07
1.26401e-06
-1.17937e-07
1.23553e-06
1.59572e-07
1.15893e-06
4.30054e-07
1.03747e-06
6.82282e-07
8.76349e-07
9.0532e-07
6.82605e-07
1.08878e-06
4.64967e-07
1.22308e-06
2.33671e-07
1.29973e-06
1.31278e-06
-2.8415e-07
1.59725e-06
-5.65417e-07
1.58127e-06
-8.30083e-07
1.48796e-06
-1.06571e-06
1.32456e-06
-1.26169e-06
1.10141e-06
-1.40945e-06
8.30126e-07
-1.50268e-06
5.23337e-07
-1.53738e-06
1.94329e-07
-1.51203e-06
-1.43251e-07
-1.42749e-06
-4.75751e-07
-1.28701e-06
-7.89912e-07
-1.09606e-06
-1.07329e-06
-8.6209e-07
-1.3147e-06
-5.94279e-07
-1.50462e-06
-3.03128e-07
-1.63555e-06
-7.14609e-11
-1.70234e-06
3.02986e-07
-1.70234e-06
5.9414e-07
-1.63556e-06
8.61956e-07
-1.50464e-06
1.09593e-06
-1.31473e-06
1.28689e-06
-1.07333e-06
1.42738e-06
-7.89953e-07
1.51193e-06
-4.758e-07
1.5373e-06
-1.43307e-07
1.50261e-06
1.94263e-07
1.4094e-06
5.23259e-07
1.26165e-06
8.3003e-07
1.06569e-06
1.10128e-06
8.30071e-07
1.3244e-06
5.65414e-07
1.48774e-06
2.84151e-07
1.58099e-06
1.59693e-06
-3.45535e-07
1.94278e-06
-6.87562e-07
1.92329e-06
-1.00941e-06
1.80981e-06
-1.29597e-06
1.61112e-06
-1.53434e-06
1.33977e-06
-1.71409e-06
1.00988e-06
-1.82753e-06
6.36778e-07
-1.86982e-06
2.36615e-07
-1.83906e-06
-1.74013e-07
-1.73631e-06
-5.78504e-07
-1.5655e-06
-9.60721e-07
-1.33327e-06
-1.30552e-06
-1.04869e-06
-1.59927e-06
-7.22925e-07
-1.83039e-06
-3.68747e-07
-1.98973e-06
-7.54326e-11
-2.07101e-06
3.68597e-07
-2.07101e-06
7.22778e-07
-1.98974e-06
1.04855e-06
-1.83041e-06
1.33313e-06
-1.59931e-06
1.56537e-06
-1.30556e-06
1.73619e-06
-9.60773e-07
1.83895e-06
-5.78565e-07
1.86973e-06
-1.74084e-07
1.82746e-06
2.36535e-07
1.71403e-06
6.36684e-07
1.53429e-06
1.00977e-06
1.29595e-06
1.33963e-06
1.0094e-06
1.61094e-06
6.87555e-07
1.80958e-06
3.45534e-07
1.92302e-06
1.94246e-06
-4.20169e-07
2.36296e-06
-8.36075e-07
2.3392e-06
-1.22746e-06
2.20119e-06
-1.57597e-06
1.95962e-06
-1.8659e-06
1.6297e-06
-2.08458e-06
1.22856e-06
-2.22265e-06
7.74844e-07
-2.2742e-06
2.8816e-07
-2.2369e-06
-2.11314e-07
-2.11202e-06
-7.0338e-07
-1.90434e-06
-1.1684e-06
-1.62191e-06
-1.58795e-06
-1.27577e-06
-1.94542e-06
-8.7948e-07
-2.22668e-06
-4.48603e-07
-2.42061e-06
-8.03848e-11
-2.51953e-06
4.48444e-07
-2.51954e-06
8.79323e-07
-2.42062e-06
1.27562e-06
-2.22671e-06
1.62177e-06
-1.94546e-06
1.9042e-06
-1.588e-06
2.1119e-06
-1.16847e-06
2.23678e-06
-7.03453e-07
2.2741e-06
-2.11398e-07
2.22257e-06
2.88063e-07
2.08452e-06
7.74734e-07
1.86585e-06
1.22844e-06
1.57594e-06
1.62954e-06
1.22744e-06
1.95944e-06
8.36066e-07
2.20096e-06
4.20167e-07
2.33891e-06
2.36263e-06
-5.10904e-07
2.87385e-06
-1.01663e-06
2.84492e-06
-1.49257e-06
2.67713e-06
-1.91641e-06
2.38346e-06
-2.26907e-06
1.98235e-06
-2.53514e-06
1.49464e-06
-2.7032e-06
9.42909e-07
-2.76606e-06
3.51019e-07
-2.72087e-06
-2.56511e-07
-2.56913e-06
-8.55118e-07
-2.31663e-06
-1.42091e-06
-1.97315e-06
-1.93142e-06
-1.55211e-06
-2.36646e-06
-1.07001e-06
-2.70878e-06
-5.45794e-07
-2.94482e-06
-8.63582e-11
-3.06524e-06
5.45622e-07
-3.06525e-06
1.06984e-06
-2.94485e-06
1.55195e-06
-2.70881e-06
1.973e-06
-2.3665e-06
2.31648e-06
-1.93149e-06
2.56899e-06
-1.42098e-06
2.72074e-06
-8.55204e-07
2.76596e-06
-2.5661e-07
2.70311e-06
3.50907e-07
2.53506e-06
9.42781e-07
2.26901e-06
1.49449e-06
1.91637e-06
1.98218e-06
1.49255e-06
2.38326e-06
1.01661e-06
2.67689e-06
5.109e-07
2.84463e-06
2.87353e-06
-6.21198e-07
3.49505e-06
-1.23611e-06
3.45983e-06
-1.81485e-06
3.25587e-06
-2.3303e-06
2.89891e-06
-2.75927e-06
2.41132e-06
-3.08302e-06
1.81838e-06
-3.28764e-06
1.14753e-06
-3.36434e-06
4.2772e-07
-3.30962e-06
-3.11234e-07
-3.12528e-06
-1.03946e-06
-2.81831e-06
-1.72788e-06
-2.4006e-06
-2.34914e-06
-1.88844e-06
-2.87862e-06
-1.30192e-06
-3.2953e-06
-6.64094e-07
-3.58265e-06
-9.34057e-11
-3.72924e-06
6.63908e-07
-3.72925e-06
1.30173e-06
-3.58267e-06
1.88826e-06
-3.29534e-06
2.40043e-06
-2.87867e-06
2.81815e-06
-2.34921e-06
3.12513e-06
-1.72796e-06
3.30949e-06
-1.03956e-06
3.36423e-06
-3.11349e-07
3.28754e-06
4.27591e-07
3.08294e-06
1.14738e-06
2.75921e-06
1.81822e-06
2.33025e-06
2.41113e-06
1.81482e-06
2.89869e-06
1.23609e-06
3.25562e-06
6.21191e-07
3.45952e-06
3.49472e-06
-7.55247e-07
4.25029e-06
-1.50287e-06
4.20745e-06
-2.20659e-06
3.95959e-06
-2.83344e-06
3.52576e-06
-3.35525e-06
2.93313e-06
-3.74922e-06
2.21235e-06
-3.99839e-06
1.3967e-06
-4.09205e-06
5.21373e-07
-4.02586e-06
-3.77426e-07
-3.80196e-06
-1.26336e-06
-3.42881e-06
-2.10103e-06
-2.92082e-06
-2.85713e-06
-2.29781e-06
-3.50163e-06
-1.58421e-06
-4.0089e-06
-8.08106e-07
-4.35875e-06
-1.01584e-10
-4.53725e-06
8.07904e-07
-4.53726e-06
1.58401e-06
-4.35878e-06
2.29762e-06
-4.00894e-06
2.92064e-06
-3.50169e-06
3.42863e-06
-2.85721e-06
3.8018e-06
-2.10113e-06
4.02571e-06
-1.26347e-06
4.09192e-06
-3.77557e-07
3.99828e-06
5.21226e-07
3.74912e-06
1.39654e-06
3.35518e-06
2.21216e-06
2.83339e-06
2.93293e-06
2.20655e-06
3.52553e-06
1.50285e-06
3.95931e-06
7.55239e-07
4.20714e-06
4.24996e-06
-9.18143e-07
5.16844e-06
-1.82705e-06
5.11636e-06
-2.68267e-06
4.8152e-06
-3.44499e-06
4.28808e-06
-4.07975e-06
3.56789e-06
-4.55921e-06
2.69181e-06
-4.86272e-06
1.70021e-06
-4.97716e-06
6.35812e-07
-4.8972e-06
-4.57395e-07
-4.62534e-06
-1.53522e-06
-4.17179e-06
-2.55458e-06
-3.55404e-06
-3.47488e-06
-2.79616e-06
-4.2595e-06
-1.9279e-06
-4.87716e-06
-9.83447e-07
-5.30321e-06
-1.10962e-10
-5.52058e-06
9.83226e-07
-5.52059e-06
1.92768e-06
-5.30324e-06
2.79595e-06
-4.87722e-06
3.55383e-06
-4.25957e-06
4.1716e-06
-3.47497e-06
4.62516e-06
-2.55469e-06
4.89703e-06
-1.53535e-06
4.97702e-06
-4.57543e-07
4.8626e-06
6.35646e-07
4.55911e-06
1.70003e-06
4.07967e-06
2.6916e-06
3.44493e-06
3.56766e-06
2.68263e-06
4.28782e-06
1.82703e-06
4.81492e-06
9.18132e-07
5.11603e-06
5.16809e-06
-1.11605e-06
6.28449e-06
-2.22094e-06
6.22124e-06
-3.26118e-06
5.85545e-06
-4.18821e-06
5.2151e-06
-4.96038e-06
4.34007e-06
-5.54396e-06
3.27538e-06
-5.91376e-06
2.07001e-06
-6.05373e-06
7.75781e-07
-5.95726e-06
-5.53869e-07
-5.62727e-06
-1.8652e-06
-5.07609e-06
-3.10576e-06
-4.32489e-06
-4.22608e-06
-3.40293e-06
-5.18146e-06
-2.3464e-06
-5.93369e-06
-1.19697e-06
-6.45263e-06
-1.21618e-10
-6.71744e-06
1.19673e-06
-6.71745e-06
2.34617e-06
-6.45267e-06
3.4027e-06
-5.93375e-06
4.32467e-06
-5.18154e-06
5.07588e-06
-4.22619e-06
5.62708e-06
-3.10589e-06
5.95708e-06
-1.86535e-06
6.05357e-06
-5.54035e-07
5.91362e-06
7.75594e-07
5.54384e-06
2.06981e-06
4.96029e-06
3.27515e-06
4.18813e-06
4.33982e-06
3.26113e-06
5.21482e-06
2.22091e-06
5.85514e-06
1.11604e-06
6.2209e-06
6.28413e-06
-1.35645e-06
7.64094e-06
-2.6994e-06
7.56419e-06
-3.964e-06
7.12004e-06
-5.09127e-06
6.34237e-06
-6.03064e-06
5.27943e-06
-6.74103e-06
3.98578e-06
-7.19176e-06
2.52074e-06
-7.36314e-06
9.4716e-07
-7.24696e-06
-6.70049e-07
-6.84661e-06
-2.26556e-06
-6.17689e-06
-3.77549e-06
-5.26346e-06
-5.13951e-06
-4.14186e-06
-6.30306e-06
-2.85613e-06
-7.21942e-06
-1.45707e-06
-7.8517e-06
-1.33643e-10
-8.17437e-06
1.4568e-06
-8.17439e-06
2.85587e-06
-7.85174e-06
4.1416e-06
-7.21948e-06
5.26321e-06
-6.30315e-06
6.17665e-06
-5.13963e-06
6.84639e-06
-3.77563e-06
7.24676e-06
-2.26572e-06
7.36296e-06
-6.70236e-07
7.1916e-06
9.46952e-07
6.7409e-06
2.52051e-06
6.03053e-06
3.98552e-06
5.09119e-06
5.27916e-06
3.96394e-06
6.34207e-06
2.69937e-06
7.11972e-06
1.35643e-06
7.56383e-06
7.64057e-06
-1.64837e-06
9.2893e-06
-3.28046e-06
9.19628e-06
-4.81763e-06
8.65721e-06
-6.18833e-06
7.71306e-06
-7.33112e-06
6.42222e-06
-8.19604e-06
4.85069e-06
-8.74562e-06
3.07032e-06
-8.95573e-06
1.15727e-06
-8.81612e-06
-8.09657e-07
-8.33065e-06
-2.75103e-06
-7.51708e-06
-4.58906e-06
-6.40646e-06
-6.25014e-06
-5.04194e-06
-7.66757e-06
-3.47714e-06
-8.78422e-06
-1.77398e-06
-9.55487e-06
-1.47139e-10
-9.9482e-06
1.77368e-06
-9.94822e-06
3.47685e-06
-9.55491e-06
5.04166e-06
-8.78429e-06
6.40619e-06
-7.66768e-06
7.51682e-06
-6.25026e-06
8.33041e-06
-4.58921e-06
8.8159e-06
-2.75121e-06
8.95553e-06
-8.09865e-07
8.74544e-06
1.15704e-06
8.19589e-06
3.07006e-06
7.331e-06
4.85041e-06
6.18823e-06
6.42192e-06
4.81756e-06
7.71273e-06
3.28042e-06
8.65685e-06
1.64835e-06
9.1959e-06
9.28891e-06
-2.00274e-06
1.1292e-05
-3.98588e-06
1.11794e-05
-5.85413e-06
1.05255e-05
-7.52071e-06
9.37964e-06
-8.91104e-06
7.81255e-06
-9.96429e-06
5.90394e-06
-1.06347e-05
3.74076e-06
-1.08927e-05
1.41525e-06
-1.07254e-05
-9.76966e-07
-1.01371e-05
-3.33934e-06
-9.14905e-06
-5.5771e-06
-7.79878e-06
-7.60041e-06
-6.13866e-06
-9.32769e-06
-4.23398e-06
-1.06889e-05
-2.16025e-06
-1.16286e-05
-1.62226e-10
-1.21083e-05
2.15992e-06
-1.21083e-05
4.23366e-06
-1.16286e-05
6.13835e-06
-1.0689e-05
7.79848e-06
-9.3278e-06
9.14877e-06
-7.60056e-06
1.01368e-05
-5.57728e-06
1.07252e-05
-3.33955e-06
1.08925e-05
-9.77198e-07
1.06345e-05
1.415e-06
9.96412e-06
3.74047e-06
8.9109e-06
5.90364e-06
7.5206e-06
7.81221e-06
5.85405e-06
9.37928e-06
3.98583e-06
1.05251e-05
2.00271e-06
1.1179e-05
1.12916e-05
-2.43274e-06
1.37248e-05
-4.84195e-06
1.35886e-05
-7.11223e-06
1.27957e-05
-9.13842e-06
1.14058e-05
-1.083e-05
9.50408e-06
-1.21128e-05
7.18683e-06
-1.29312e-05
4.55911e-06
-1.32485e-05
1.73259e-06
-1.30487e-05
-1.17681e-06
-1.23363e-05
-4.05171e-06
-1.11368e-05
-6.77665e-06
-9.49529e-06
-9.24189e-06
-7.47545e-06
-1.13475e-05
-5.15672e-06
-1.30076e-05
-2.63127e-06
-1.4154e-05
-1.79033e-10
-1.47394e-05
2.63091e-06
-1.47394e-05
5.15636e-06
-1.41541e-05
7.47511e-06
-1.30077e-05
9.49496e-06
-1.13477e-05
1.11365e-05
-9.24205e-06
1.2336e-05
-6.77685e-06
1.30484e-05
-4.05194e-06
1.32483e-05
-1.17706e-06
1.2931e-05
1.7323e-06
1.21126e-05
4.5588e-06
1.08298e-05
7.18649e-06
9.13829e-06
9.50372e-06
7.11214e-06
1.14054e-05
4.84189e-06
1.27953e-05
2.43271e-06
1.35882e-05
1.37243e-05
-2.95428e-06
1.66791e-05
-5.88038e-06
1.65147e-05
-8.63869e-06
1.5554e-05
-1.11018e-05
1.38689e-05
-1.31599e-05
1.15622e-05
-1.47229e-05
8.74983e-06
-1.57225e-05
5.55869e-06
-1.61136e-05
2.12375e-06
-1.58759e-05
-1.41451e-06
-1.50142e-05
-4.91347e-06
-1.35585e-05
-8.23239e-06
-1.15632e-05
-1.12371e-05
-9.10557e-06
-1.38052e-05
-6.28228e-06
-1.58309e-05
-3.20593e-06
-1.72304e-05
-1.9771e-10
-1.79451e-05
3.20553e-06
-1.79451e-05
6.28189e-06
-1.72305e-05
9.1052e-06
-1.5831e-05
1.15629e-05
-1.38053e-05
1.35581e-05
-1.12373e-05
1.50139e-05
-8.23261e-06
1.58756e-05
-4.91372e-06
1.61134e-05
-1.4148e-06
1.57222e-05
2.12343e-06
1.47227e-05
5.55834e-06
1.31597e-05
8.74945e-06
1.11017e-05
1.15618e-05
8.63858e-06
1.38685e-05
5.88032e-06
1.55536e-05
2.95425e-06
1.65143e-05
1.66786e-05
-3.58647e-06
2.02655e-05
-7.13932e-06
2.00676e-05
-1.04898e-05
1.89045e-05
-1.34837e-05
1.68629e-05
-1.5988e-05
1.40664e-05
-1.78928e-05
1.06547e-05
-1.91147e-05
6.7806e-06
-1.95981e-05
2.60708e-06
-1.93168e-05
-1.69577e-06
-1.82756e-05
-5.95471e-06
-1.65098e-05
-9.99816e-06
-1.4085e-05
-1.3662e-05
-1.10944e-05
-1.67957e-05
-7.65606e-06
-1.92693e-05
-3.90748e-06
-2.0979e-05
-2.18422e-10
-2.18524e-05
3.90705e-06
-2.18524e-05
7.65563e-06
-2.0979e-05
1.1094e-05
-1.92694e-05
1.40846e-05
-1.67959e-05
1.65094e-05
-1.36622e-05
1.82752e-05
-9.9984e-06
1.93165e-05
-5.95499e-06
1.95978e-05
-1.69608e-06
1.91145e-05
2.60673e-06
1.78926e-05
6.78021e-06
1.59878e-05
1.06543e-05
1.34836e-05
1.40659e-05
1.04897e-05
1.68624e-05
7.13924e-06
1.8904e-05
3.58643e-06
2.00671e-05
2.0265e-05
-4.35228e-06
2.46178e-05
-8.6646e-06
2.43799e-05
-1.27332e-05
2.29732e-05
-1.63719e-05
2.05015e-05
-1.94191e-05
1.71136e-05
-2.17414e-05
1.29771e-05
-2.32365e-05
8.27571e-06
-2.38355e-05
3.20602e-06
-2.35049e-05
-2.02634e-06
-2.22486e-05
-7.21098e-06
-2.01081e-05
-1.21387e-05
-1.71618e-05
-1.66083e-05
-1.35225e-05
-2.0435e-05
-9.33401e-06
-2.34578e-05
-4.76461e-06
-2.55484e-05
-2.41349e-10
-2.66167e-05
4.76413e-06
-2.66168e-05
9.33353e-06
-2.55484e-05
1.35221e-05
-2.3458e-05
1.71613e-05
-2.04351e-05
2.01077e-05
-1.66085e-05
2.22482e-05
-1.21389e-05
2.35045e-05
-7.21128e-06
2.38351e-05
-2.02668e-06
2.32362e-05
3.20563e-06
2.17412e-05
8.27529e-06
1.94189e-05
1.29766e-05
1.63717e-05
1.71131e-05
1.27331e-05
2.0501e-05
8.66451e-06
2.29726e-05
4.35224e-06
2.43793e-05
2.46172e-05
-5.27918e-06
2.9897e-05
-1.05111e-05
2.96118e-05
-1.54503e-05
2.79123e-05
-1.98716e-05
2.49229e-05
-2.35797e-05
2.08217e-05
-2.64123e-05
1.58096e-05
-2.82437e-05
1.01071e-05
-2.89883e-05
3.95062e-06
-2.86031e-05
-2.41151e-06
-2.70901e-05
-8.72396e-06
-2.44973e-05
-1.47315e-05
-2.09181e-05
-2.01875e-05
-1.64891e-05
-2.48639e-05
-1.13853e-05
-2.85617e-05
-5.81279e-06
-3.11208e-05
-2.66695e-10
-3.24293e-05
5.81226e-06
-3.24293e-05
1.13847e-05
-3.11209e-05
1.64886e-05
-2.85618e-05
2.09176e-05
-2.48641e-05
2.44968e-05
-2.01878e-05
2.70897e-05
-1.47318e-05
2.86027e-05
-8.72429e-06
2.89879e-05
-2.41189e-06
2.82433e-05
3.95019e-06
2.6412e-05
1.01067e-05
2.35795e-05
1.58091e-05
1.98714e-05
2.08211e-05
1.54501e-05
2.49224e-05
1.0511e-05
2.79117e-05
5.27913e-06
2.96112e-05
2.98964e-05
-6.39999e-06
3.6297e-05
-1.27445e-05
3.59563e-05
-1.8738e-05
3.39058e-05
-2.41093e-05
3.02942e-05
-2.86219e-05
2.53343e-05
-3.20784e-05
1.92661e-05
-3.43246e-05
1.23534e-05
-3.52538e-05
4.87978e-06
-3.48101e-05
-2.85521e-06
-3.2992e-05
-1.0542e-05
-2.98542e-05
-1.78693e-05
-2.55077e-05
-2.45341e-05
-2.0117e-05
-3.02546e-05
-1.38955e-05
-3.47832e-05
-7.09608e-06
-3.79203e-05
-2.94684e-10
-3.95251e-05
7.0955e-06
-3.95251e-05
1.38949e-05