/*--------------------------------*- C++ -*----------------------------------*\
  =========                 |
  \\      /  F ield         | OpenFOAM: The Open Source CFD Toolbox
   \\    /   O peration     | Website:  https://openfoam.org
    \\  /    A nd           | Version:  9
     \\/     M anipulation  |
\*---------------------------------------------------------------------------*/
FoamFile
{
    format      ascii;
    class       volVectorField;
    location    "0.3";
    object      U;
}
// * * * * * * * * * * * * * * * * * * * * * * * * * * * * * * * * * * * * * //

dimensions      [0 1 -1 0 0 0 0];

internalField   nonuniform List<vector> 
4096
(
(-1.23797e-06 1.2038e-06 0)
(-3.85596e-06 1.15448e-06 0)
(-6.42748e-06 1.09749e-06 0)
(-8.61915e-06 1.0261e-06 0)
(-1.05084e-05 8.71843e-07 0)
(-1.20826e-05 6.69859e-07 0)
(-1.32051e-05 4.31969e-07 0)
(-1.38155e-05 1.7137e-07 0)
(-1.38828e-05 -9.85646e-08 0)
(-1.34001e-05 -3.65515e-07 0)
(-1.23848e-05 -6.1804e-07 0)
(-1.08769e-05 -8.45877e-07 0)
(-8.93614e-06 -1.03995e-06 0)
(-6.63957e-06 -1.19271e-06 0)
(-4.07809e-06 -1.2982e-06 0)
(-1.3529e-06 -1.35241e-06 0)
(1.42853e-06 -1.35326e-06 0)
(4.15662e-06 -1.30079e-06 0)
(6.72396e-06 -1.19711e-06 0)
(9.02954e-06 -1.04633e-06 0)
(1.09826e-05 -8.54391e-07 0)
(1.25065e-05 -6.28857e-07 0)
(1.35411e-05 -3.78613e-07 0)
(1.40459e-05 -1.13575e-07 0)
(1.40012e-05 1.55683e-07 0)
(1.34097e-05 4.18227e-07 0)
(1.22962e-05 6.63077e-07 0)
(1.07078e-05 8.79422e-07 0)
(8.71285e-06 1.05681e-06 0)
(6.40155e-06 1.18565e-06 0)
(3.88814e-06 1.25708e-06 0)
(1.28567e-06 1.26575e-06 0)
(-1.34752e-06 3.79401e-06 0)
(-4.19449e-06 3.64276e-06 0)
(-6.93857e-06 3.47709e-06 0)
(-9.30254e-06 3.18761e-06 0)
(-1.135e-05 2.69284e-06 0)
(-1.30111e-05 2.0595e-06 0)
(-1.4185e-05 1.32229e-06 0)
(-1.48134e-05 5.18551e-07 0)
(-1.48656e-05 -3.13077e-07 0)
(-1.43352e-05 -1.1354e-06 0)
(-1.32405e-05 -1.91359e-06 0)
(-1.16235e-05 -2.6159e-06 0)
(-9.5473e-06 -3.21433e-06 0)
(-7.09357e-06 -3.68535e-06 0)
(-4.35876e-06 -4.01063e-06 0)
(-1.45044e-06 -4.17759e-06 0)
(1.51707e-06 -4.17987e-06 0)
(4.42714e-06 -4.01752e-06 0)
(7.16541e-06 -3.69705e-06 0)
(9.62433e-06 -3.23111e-06 0)
(1.17073e-05 -2.63808e-06 0)
(1.33325e-05 -1.94129e-06 0)
(1.44361e-05 -1.16822e-06 0)
(1.49749e-05 -3.49451e-07 0)
(1.49281e-05 4.8233e-07 0)
(1.42983e-05 1.29338e-06 0)
(1.31121e-05 2.04978e-06 0)
(1.14196e-05 2.71823e-06 0)
(9.29352e-06 3.26666e-06 0)
(6.8296e-06 3.66513e-06 0)
(4.1497e-06 3.88787e-06 0)
(1.37309e-06 3.91576e-06 0)
(-1.51503e-06 6.72416e-06 0)
(-4.62085e-06 6.54536e-06 0)
(-7.59312e-06 6.19186e-06 0)
(-1.02412e-05 5.56023e-06 0)
(-1.25076e-05 4.65627e-06 0)
(-1.43149e-05 3.53769e-06 0)
(-1.55808e-05 2.25563e-06 0)
(-1.62489e-05 8.67118e-07 0)
(-1.62888e-05 -5.66386e-07 0)
(-1.56951e-05 -1.98318e-06 0)
(-1.44886e-05 -3.3242e-06 0)
(-1.27149e-05 -4.53481e-06 0)
(-1.04425e-05 -5.56662e-06 0)
(-7.76018e-06 -6.37881e-06 0)
(-4.77266e-06 -6.93952e-06 0)
(-1.59701e-06 -7.2269e-06 0)
(1.64235e-06 -7.22986e-06 0)
(4.81842e-06 -6.94842e-06 0)
(7.80663e-06 -6.39378e-06 0)
(1.04898e-05 -5.58779e-06 0)
(1.27627e-05 -4.56219e-06 0)
(1.45362e-05 -3.35731e-06 0)
(1.57408e-05 -2.02062e-06 0)
(1.63293e-05 -6.04996e-07 0)
(1.62792e-05 8.3309e-07 0)
(1.55933e-05 2.23531e-06 0)
(1.43006e-05 3.54309e-06 0)
(1.24557e-05 4.69893e-06 0)
(1.01376e-05 5.64764e-06 0)
(7.45144e-06 6.33795e-06 0)
(4.52851e-06 6.72425e-06 0)
(1.49847e-06 6.77494e-06 0)
(-1.69706e-06 9.93674e-06 0)
(-5.15481e-06 9.76745e-06 0)
(-8.47198e-06 9.17797e-06 0)
(-1.14643e-05 8.18368e-06 0)
(-1.40197e-05 6.82357e-06 0)
(-1.60443e-05 5.16322e-06 0)
(-1.74556e-05 3.27456e-06 0)
(-1.81952e-05 1.23798e-06 0)
(-1.82314e-05 -8.60193e-07 0)
(-1.75603e-05 -2.93225e-06 0)
(-1.6206e-05 -4.89303e-06 0)
(-1.42201e-05 -6.66321e-06 0)
(-1.16791e-05 -8.17199e-06 0)
(-8.68169e-06 -9.35958e-06 0)
(-5.34485e-06 -1.01792e-05 0)
(-1.79892e-06 -1.05986e-05 0)
(1.81746e-06 -1.06016e-05 0)
(5.36273e-06 -1.01881e-05 0)
(8.69805e-06 -9.37434e-06 0)
(1.16928e-05 -8.19245e-06 0)
(1.42296e-05 -6.68883e-06 0)
(1.62092e-05 -4.9226e-06 0)
(1.75541e-05 -2.96329e-06 0)
(1.82116e-05 -8.88388e-07 0)
(1.81567e-05 1.21938e-06 0)
(1.73926e-05 3.27456e-06 0)
(1.59516e-05 5.19136e-06 0)
(1.38945e-05 6.88562e-06 0)
(1.13099e-05 8.27671e-06 0)
(8.31355e-06 9.28944e-06 0)
(5.05337e-06 9.85762e-06 0)
(1.67295e-06 9.93384e-06 0)
(-1.92859e-06 1.35383e-05 0)
(-5.84581e-06 1.33471e-05 0)
(-9.6132e-06 1.25293e-05 0)
(-1.30389e-05 1.11477e-05 0)
(-1.59708e-05 9.27492e-06 0)
(-1.82913e-05 7.0005e-06 0)
(-1.99071e-05 4.4237e-06 0)
(-2.0753e-05 1.65306e-06 0)
(-2.07944e-05 -1.19644e-06 0)
(-2.00282e-05 -4.0079e-06 0)
(-1.84831e-05 -6.66727e-06 0)
(-1.62184e-05 -9.06768e-06 0)
(-1.33217e-05 -1.11134e-05 0)
(-9.90563e-06 -1.27235e-05 0)
(-6.10334e-06 -1.38343e-05 0)
(-2.0633e-06 -1.44021e-05 0)
(2.05665e-06 -1.44046e-05 0)
(6.09537e-06 -1.38418e-05 0)
(9.89478e-06 -1.27357e-05 0)
(1.33062e-05 -1.11299e-05 0)
(1.61961e-05 -9.08727e-06 0)
(1.84513e-05 -6.68815e-06 0)
(1.99837e-05 -4.02696e-06 0)
(2.07335e-05 -1.20887e-06 0)
(2.06719e-05 1.65377e-06 0)
(1.98027e-05 4.44497e-06 0)
(1.81628e-05 7.04826e-06 0)
(1.58214e-05 9.34948e-06 0)
(1.28788e-05 1.12393e-05 0)
(9.46816e-06 1.2616e-05 0)
(5.75564e-06 1.33893e-05 0)
(1.90501e-06 1.34955e-05 0)
(-2.22659e-06 1.76677e-05 0)
(-6.73938e-06 1.74475e-05 0)
(-1.10866e-05 1.63806e-05 0)
(-1.50604e-05 1.45628e-05 0)
(-1.84713e-05 1.21025e-05 0)
(-2.1174e-05 9.12123e-06 0)
(-2.30576e-05 5.7511e-06 0)
(-2.40461e-05 2.13409e-06 0)
(-2.40994e-05 -1.58113e-06 0)
(-2.32147e-05 -5.24386e-06 0)
(-2.1426e-05 -8.70685e-06 0)
(-1.88024e-05 -1.18318e-05 0)
(-1.54461e-05 -1.44947e-05 0)
(-1.14877e-05 -1.659e-05 0)
(-7.08164e-06 -1.80352e-05 0)
(-2.4001e-06 -1.87732e-05 0)
(2.374e-06 -1.87751e-05 0)
(7.05394e-06 -1.80406e-05 0)
(1.14566e-05 -1.65986e-05 0)
(1.54097e-05 -1.45056e-05 0)
(1.87585e-05 -1.18437e-05 0)
(2.13721e-05 -8.71742e-06 0)
(2.31481e-05 -5.24984e-06 0)
(2.40175e-05 -1.57795e-06 0)
(2.3947e-05 2.15191e-06 0)
(2.29408e-05 5.78865e-06 0)
(2.10417e-05 9.1806e-06 0)
(1.83299e-05 1.21792e-05 0)
(1.49219e-05 1.46421e-05 0)
(1.09703e-05 1.64371e-05 0)
(6.66953e-06 1.7447e-05 0)
(2.20842e-06 1.75881e-05 0)
(-2.60644e-06 2.24732e-05 0)
(-7.88372e-06 2.22178e-05 0)
(-1.29717e-05 2.08688e-05 0)
(-1.76351e-05 1.85506e-05 0)
(-2.16472e-05 1.54095e-05 0)
(-2.48312e-05 1.16051e-05 0)
(-2.70537e-05 7.30885e-06 0)
(-2.82237e-05 2.70255e-06 0)
(-2.82937e-05 -2.02488e-06 0)
(-2.72601e-05 -6.68276e-06 0)
(-2.5163e-05 -1.10849e-05 0)
(-2.20843e-05 -1.50564e-05 0)
(-1.81438e-05 -1.844e-05 0)
(-1.34957e-05 -2.1102e-05 0)
(-8.3213e-06 -2.29376e-05 0)
(-2.82303e-06 -2.38745e-05 0)
(2.78411e-06 -2.38756e-05 0)
(8.28079e-06 -2.29408e-05 0)
(1.34519e-05 -2.11067e-05 0)
(1.80951e-05 -1.84452e-05 0)
(2.20286e-05 -1.50607e-05 0)
(2.50985e-05 -1.1086e-05 0)
(2.71849e-05 -6.67744e-06 0)
(2.82065e-05 -2.00927e-06 0)
(2.81242e-05 2.7325e-06 0)
(2.69431e-05 7.35585e-06 0)
(2.47133e-05 1.16681e-05 0)
(2.15291e-05 1.54804e-05 0)
(1.75267e-05 1.86122e-05 0)
(1.28869e-05 2.08958e-05 0)
(7.83516e-06 2.2182e-05 0)
(2.59371e-06 2.23653e-05 0)
(-3.08644e-06 2.8134e-05 0)
(-9.33024e-06 2.78352e-05 0)
(-1.53517e-05 2.61585e-05 0)
(-2.08788e-05 2.32568e-05 0)
(-2.56403e-05 1.93175e-05 0)
(-2.94237e-05 1.45445e-05 0)
(-3.20683e-05 9.15579e-06 0)
(-3.34643e-05 3.38097e-06 0)
(-3.35542e-05 -2.5429e-06 0)
(-3.23335e-05 -8.37732e-06 0)
(-2.98496e-05 -1.38898e-05 0)
(-2.61996e-05 -1.88621e-05 0)
(-2.15263e-05 -2.30976e-05 0)
(-1.60123e-05 -2.64295e-05 0)
(-9.87338e-06 -2.87267e-05 0)
(-3.34968e-06 -2.98985e-05 0)
(3.30354e-06 -2.9899e-05 0)
(9.82587e-06 -2.87278e-05 0)
(1.5962e-05 -2.64308e-05 0)
(2.14718e-05 -2.30981e-05 0)
(2.61396e-05 -1.88601e-05 0)
(2.97827e-05 -1.38834e-05 0)
(3.22587e-05 -8.36372e-06 0)
(3.34713e-05 -2.51906e-06 0)
(3.33739e-05 3.41768e-06 0)
(3.19728e-05 9.20611e-06 0)
(2.93273e-05 1.4605e-05 0)
(2.55492e-05 1.93784e-05 0)
(2.08009e-05 2.33003e-05 0)
(1.52945e-05 2.6161e-05 0)
(9.2998e-06 2.77749e-05 0)
(3.07979e-06 2.80084e-05 0)
(-3.68567e-06 3.48685e-05 0)
(-1.11385e-05 3.45153e-05 0)
(-1.83256e-05 3.24505e-05 0)
(-2.49258e-05 2.88586e-05 0)
(-3.0616e-05 2.3973e-05 0)
(-3.51408e-05 1.80495e-05 0)
(-3.83067e-05 1.13612e-05 0)
(-3.9981e-05 4.19479e-06 0)
(-4.00939e-05 -3.15478e-06 0)
(-3.86395e-05 -1.03917e-05 0)
(-3.5674e-05 -1.72281e-05 0)
(-3.13136e-05 -2.33935e-05 0)
(-2.57289e-05 -2.86449e-05 0)
(-1.91385e-05 -3.27755e-05 0)
(-1.18003e-05 -3.5623e-05 0)
(-4.0016e-06 -3.70753e-05 0)
(3.95223e-06 -3.70752e-05 0)
(1.17498e-05 -3.56226e-05 0)
(1.90859e-05 -3.27742e-05 0)
(2.56732e-05 -2.86417e-05 0)
(3.12539e-05 -2.33871e-05 0)
(3.56095e-05 -1.72166e-05 0)
(3.85699e-05 -1.0373e-05 0)
(4.00197e-05 -3.12667e-06 0)
(3.99035e-05 4.23373e-06 0)
(3.82286e-05 1.14102e-05 0)
(3.50661e-05 1.81039e-05 0)
(3.05495e-05 2.40222e-05 0)
(2.48722e-05 2.88856e-05 0)
(1.829e-05 3.24347e-05 0)
(1.11217e-05 3.44391e-05 0)
(3.68229e-06 3.4734e-05 0)
(-4.4285e-06 4.29379e-05 0)
(-1.3379e-05 4.25165e-05 0)
(-2.20086e-05 3.99865e-05 0)
(-2.99352e-05 3.55694e-05 0)
(-3.67709e-05 2.95525e-05 0)
(-4.2209e-05 2.22524e-05 0)
(-4.6016e-05 1.4008e-05 0)
(-4.80315e-05 5.1742e-06 0)
(-4.81709e-05 -3.88454e-06 0)
(-4.64265e-05 -1.28034e-05 0)
(-4.28655e-05 -2.12276e-05 0)
(-3.76273e-05 -2.88243e-05 0)
(-3.09169e-05 -3.52943e-05 0)
(-2.29971e-05 -4.03832e-05 0)
(-1.4178e-05 -4.3891e-05 0)
(-4.80496e-06 -4.56799e-05 0)
(4.75486e-06 -4.56794e-05 0)
(1.41271e-05 -4.38894e-05 0)
(2.29447e-05 -4.038e-05 0)
(3.08625e-05 -3.52887e-05 0)
(3.75703e-05 -2.88151e-05 0)
(4.28057e-05 -2.12132e-05 0)
(4.6364e-05 -1.27823e-05 0)
(4.81067e-05 -3.85531e-06 0)
(4.7967e-05 5.21208e-06 0)
(4.5954e-05 1.40528e-05 0)
(4.21528e-05 2.22989e-05 0)
(3.67239e-05 2.959e-05 0)
(2.99009e-05 3.55825e-05 0)
(2.19878e-05 3.99572e-05 0)
(1.33713e-05 4.24312e-05 0)
(4.42864e-06 4.28006e-05 0)
(-5.34258e-06 5.26551e-05 0)
(-1.61379e-05 5.21485e-05 0)
(-2.65438e-05 4.90569e-05 0)
(-3.61012e-05 4.36468e-05 0)
(-4.43442e-05 3.62693e-05 0)
(-5.09032e-05 2.73135e-05 0)
(-5.54961e-05 1.71966e-05 0)
(-5.79291e-05 6.35574e-06 0)
(-5.80996e-05 -4.76096e-06 0)
(-5.59975e-05 -1.57054e-05 0)
(-5.17038e-05 -2.60422e-05 0)
(-4.53862e-05 -3.53632e-05 0)
(-3.7292e-05 -4.33015e-05 0)
(-2.77383e-05 -4.9545e-05 0)
(-1.70991e-05 -5.38485e-05 0)
(-5.7914e-06 -5.6043e-05 0)
(5.742e-06 -5.60423e-05 0)
(1.70493e-05 -5.38462e-05 0)
(2.76875e-05 -4.95407e-05 0)
(3.72401e-05 -4.32945e-05 0)
(4.53329e-05 -3.53527e-05 0)
(5.16493e-05 -2.60269e-05 0)
(5.59422e-05 -1.56841e-05 0)
(5.80446e-05 -4.73288e-06 0)
(5.78761e-05 6.39042e-06 0)
(5.54473e-05 1.72356e-05 0)
(5.08612e-05 2.73513e-05 0)
(4.43117e-05 3.6296e-05 0)
(3.60792e-05 4.36485e-05 0)
(2.65333e-05 4.90182e-05 0)
(1.61361e-05 5.20583e-05 0)
(5.34326e-06 5.2519e-05 0)
(-6.46369e-06 6.43962e-05 0)
(-1.95206e-05 6.37833e-05 0)
(-3.21037e-05 6.00112e-05 0)
(-4.366e-05 5.34012e-05 0)
(-5.36271e-05 4.43808e-05 0)
(-6.15583e-05 3.34261e-05 0)
(-6.7113e-05 2.10485e-05 0)
(-7.00563e-05 7.78396e-06 0)
(-7.02636e-05 -5.81844e-06 0)
(-6.77225e-05 -1.92099e-05 0)
(-6.25306e-05 -3.18576e-05 0)
(-5.48904e-05 -4.32621e-05 0)
(-4.51009e-05 -5.29745e-05 0)
(-3.35455e-05 -6.06133e-05 0)
(-2.0677e-05 -6.58785e-05 0)
(-6.99939e-06 -6.85634e-05 0)
(6.95139e-06 -6.85625e-05 0)
(2.06288e-05 -6.58759e-05 0)
(3.3497e-05 -6.06085e-05 0)
(4.50518e-05 -5.29671e-05 0)
(5.4841e-05 -4.32513e-05 0)
(6.24811e-05 -3.18426e-05 0)
(6.76737e-05 -1.91898e-05 0)
(7.02166e-05 -5.79298e-06 0)
(7.00125e-05 7.81419e-06 0)
(6.70744e-05 2.1081e-05 0)
(6.1527e-05 3.34555e-05 0)
(5.36045e-05 4.4398e-05 0)
(4.36473e-05 5.33938e-05 0)
(3.20988e-05 5.99659e-05 0)
(1.95219e-05 6.36914e-05 0)
(6.46621e-06 6.42632e-05 0)
(-7.83384e-06 7.86146e-05 0)
(-2.36565e-05 7.78698e-05 0)
(-3.89022e-05 7.32716e-05 0)
(-5.29021e-05 6.5208e-05 0)
(-6.49762e-05 5.41989e-05 0)
(-7.45844e-05 4.0825e-05 0)
(-8.13139e-05 2.57113e-05 0)
(-8.48801e-05 9.51317e-06 0)
(-8.51319e-05 -7.09815e-06 0)
(-8.20536e-05 -2.3452e-05 0)
(-7.57634e-05 -3.88976e-05 0)
(-6.65064e-05 -5.28248e-05 0)
(-5.46448e-05 -6.46856e-05 0)
(-4.06431e-05 -7.40141e-05 0)
(-2.50497e-05 -8.0444e-05 0)
(-8.47575e-06 -8.37228e-05 0)
(8.42942e-06 -8.3722e-05 0)
(2.50034e-05 -8.04414e-05 0)
(4.05967e-05 -7.40095e-05 0)
(5.45986e-05 -6.46785e-05 0)
(6.64606e-05 -5.28147e-05 0)
(7.57185e-05 -3.88839e-05 0)
(8.20103e-05 -2.34342e-05 0)
(8.50912e-05 -7.07622e-06 0)
(8.48435e-05 9.53837e-06 0)
(8.12828e-05 2.57372e-05 0)
(7.45605e-05 4.08465e-05 0)
(6.49605e-05 5.42077e-05 0)
(5.28938e-05 6.51933e-05 0)
(3.89013e-05 7.32219e-05 0)
(2.36596e-05 7.77776e-05 0)
(7.83545e-06 7.84858e-05 0)
(-9.50638e-06 9.58585e-05 0)
(-2.8704e-05 9.49509e-05 0)
(-4.7199e-05 8.93487e-05 0)
(-6.41815e-05 7.95216e-05 0)
(-7.88272e-05 6.6101e-05 0)
(-9.04818e-05 4.97944e-05 0)
(-9.86449e-05 3.1364e-05 0)
(-0.000102971 1.16096e-05 0)
(-0.000103277 -8.64959e-06 0)
(-9.95427e-05 -2.85952e-05 0)
(-9.19121e-05 -4.74333e-05 0)
(-8.0682e-05 -6.44197e-05 0)
(-6.62916e-05 -7.88858e-05 0)
(-4.93045e-05 -9.02634e-05 0)
(-3.0386e-05 -9.81057e-05 0)
(-1.02776e-05 -0.000102105 0)
(1.02329e-05 -0.000102104 0)
(3.03415e-05 -9.81034e-05 0)
(4.92602e-05 -9.02592e-05 0)
(6.6248e-05 -7.88795e-05 0)
(8.06393e-05 -6.44109e-05 0)
(9.18709e-05 -4.74216e-05 0)
(9.95038e-05 -2.85803e-05 0)
(0.000103241 -8.63168e-06 0)
(0.00010294 1.16295e-05 0)
(9.86192e-05 3.13835e-05 0)
(9.0463e-05 4.98087e-05 0)
(7.88156e-05 6.61026e-05 0)
(6.41772e-05 7.95009e-05 0)
(4.71994e-05 8.92957e-05 0)
(2.87075e-05 9.48595e-05 0)
(9.50929e-06 9.5734e-05 0)
(-1.15446e-05 0.000116792 0)
(-3.48568e-05 0.000115684 0)
(-5.73133e-05 0.000108861 0)
(-7.79315e-05 9.68926e-05 0)
(-9.57123e-05 8.0545e-05 0)
(-0.000109862 6.06794e-05 0)
(-0.000119772 3.82241e-05 0)
(-0.000125025 1.41539e-05 0)
(-0.000125396 -1.05325e-05 0)
(-0.000120863 -3.48374e-05 0)
(-0.000111598 -5.77932e-05 0)
(-9.79631e-05 -7.84929e-05 0)
(-8.04901e-05 -9.61216e-05 0)
(-5.98636e-05 -0.000109987 0)
(-3.68916e-05 -0.000119544 0)
(-1.24744e-05 -0.000124418 0)
(1.24311e-05 -0.000124417 0)
(3.68486e-05 -0.000119542 0)
(5.98212e-05 -0.000109983 0)
(8.04486e-05 -9.61165e-05 0)
(9.7923e-05 -7.84858e-05 0)
(0.00011156 -5.7784e-05 0)
(0.000120828 -3.48258e-05 0)
(0.000125364 -1.05188e-05 0)
(0.000124997 1.41686e-05 0)
(0.00011975 3.82374e-05 0)
(0.000109846 6.06871e-05 0)
(9.57036e-05 8.05404e-05 0)
(7.79281e-05 9.68671e-05 0)
(5.73151e-05 0.000108806 0)
(3.48606e-05 0.000115594 0)
(1.1546e-05 0.000116672 0)
(-1.40276e-05 0.000142222 0)
(-4.2351e-05 0.000140868 0)
(-6.96324e-05 0.00013256 0)
(-9.46799e-05 0.00011799 0)
(-0.00011628 9.80869e-05 0)
(-0.000133468 7.38989e-05 0)
(-0.000145508 4.65557e-05 0)
(-0.00015189 1.72442e-05 0)
(-0.000152342 -1.28189e-05 0)
(-0.000146835 -4.24186e-05 0)
(-0.000135581 -7.03759e-05 0)
(-0.000119016 -9.55861e-05 0)
(-9.77874e-05 -0.000117057 0)
(-7.27274e-05 -0.000133943 0)
(-4.48173e-05 -0.000145584 0)
(-1.51509e-05 -0.00015152 0)
(1.51087e-05 -0.00015152 0)
(4.47754e-05 -0.000145582 0)
(7.26863e-05 -0.000133941 0)
(9.77475e-05 -0.000117053 0)
(0.000118977 -9.5581e-05 0)
(0.000135545 -7.03693e-05 0)
(0.000146802 -4.24104e-05 0)
(0.000152312 -1.28096e-05 0)
(0.000151865 1.72538e-05 0)
(0.000145489 4.65632e-05 0)
(0.000133455 7.39006e-05 0)
(0.000116272 9.80767e-05 0)
(9.46782e-05 0.00011796 0)
(6.96338e-05 0.000132503 0)
(4.23544e-05 0.000140779 0)
(1.40303e-05 0.000142105 0)
(-1.70498e-05 0.000173125 0)
(-5.14742e-05 0.00017147 0)
(-8.46304e-05 0.000161357 0)
(-0.00011507 0.000143624 0)
(-0.00014132 0.000119401 0)
(-0.00016221 8.99619e-05 0)
(-0.000176842 5.66799e-05 0)
(-0.000184599 2.10001e-05 0)
(-0.00018515 -1.55963e-05 0)
(-0.000178459 -5.16298e-05 0)
(-0.000164782 -8.56651e-05 0)
(-0.00014465 -0.000116357 0)
(-0.00011885 -0.000142496 0)
(-8.83917e-05 -0.000163056 0)
(-5.44686e-05 -0.000177228 0)
(-1.84105e-05 -0.000184456 0)
(1.8369e-05 -0.000184456 0)
(5.44275e-05 -0.000177228 0)
(8.83514e-05 -0.000163055 0)
(0.000118811 -0.000142494 0)
(0.000144613 -0.000116354 0)
(0.000164748 -8.56614e-05 0)
(0.000178428 -5.16252e-05 0)
(0.000185122 -1.55912e-05 0)
(0.000184576 2.10047e-05 0)
(0.000176824 5.6682e-05 0)
(0.000162197 8.9958e-05 0)
(0.000141314 0.000119386 0)
(0.000115068 0.000143591 0)
(8.46323e-05 0.000161299 0)
(5.14775e-05 0.000171382 0)
(1.70507e-05 0.000173012 0)
(-2.07282e-05 0.000210692 0)
(-6.25768e-05 0.000208669 0)
(-0.000102882 0.00019636 0)
(-0.000139885 0.000174782 0)
(-0.000171795 0.000145309 0)
(-0.000197189 0.000109487 0)
(-0.000214979 6.89871e-05 0)
(-0.000224411 2.55673e-05 0)
(-0.000225084 -1.89702e-05 0)
(-0.000216953 -6.28246e-05 0)
(-0.000200328 -0.000104249 0)
(-0.000175855 -0.000141604 0)
(-0.00014449 -0.00017342 0)
(-0.00010746 -0.000198446 0)
(-6.62177e-05 -0.000215696 0)
(-2.23787e-05 -0.000224494 0)
(2.23374e-05 -0.000224494 0)
(6.61769e-05 -0.000215696 0)
(0.00010742 -0.000198446 0)
(0.000144451 -0.00017342 0)
(0.000175818 -0.000141604 0)
(0.000200294 -0.000104248 0)
(0.000216922 -6.28236e-05 0)
(0.000225057 -1.89694e-05 0)
(0.000224389 2.5567e-05 0)
(0.000214962 6.8984e-05 0)
(0.000197178 0.000109478 0)
(0.000171788 0.000145289 0)
(0.000139883 0.000174745 0)
(0.000102883 0.000196299 0)
(6.25793e-05 0.000208581 0)
(2.07305e-05 0.000210582 0)
(-2.5203e-05 0.000256365 0)
(-7.60848e-05 0.000253893 0)
(-0.000125089 0.000238913 0)
(-0.000170077 0.000212661 0)
(-0.000208875 0.000176807 0)
(-0.000239752 0.000133226 0)
(-0.000261385 8.39524e-05 0)
(-0.000272857 3.11231e-05 0)
(-0.000273679 -2.30688e-05 0)
(-0.000263797 -7.64321e-05 0)
(-0.000243587 -0.00012684 0)
(-0.000213832 -0.0001723 0)
(-0.000175695 -0.000211019 0)
(-0.000130669 -0.000241475 0)
(-8.05178e-05 -0.00026247 0)
(-2.72088e-05 -0.000273178 0)
(2.71672e-05 -0.000273178 0)
(8.04768e-05 -0.00026247 0)
(0.000130629 -0.000241476 0)
(0.000175656 -0.000211021 0)
(0.000213795 -0.000172302 0)
(0.000243553 -0.000126843 0)
(0.000263767 -7.64347e-05 0)
(0.000273652 -2.30722e-05 0)
(0.000272835 3.11182e-05 0)
(0.000261368 8.39443e-05 0)
(0.00023974 0.000133212 0)
(0.000208868 0.000176782 0)
(0.000170074 0.000212621 0)
(0.00012509 0.000238851 0)
(7.60871e-05 0.000253806 0)
(2.52032e-05 0.000256257 0)
(-3.06468e-05 0.000311901 0)
(-9.25163e-05 0.00030888 0)
(-0.000152102 0.000290653 0)
(-0.000206805 0.00025872 0)
(-0.000253983 0.000215106 0)
(-0.000291532 0.000162094 0)
(-0.000317843 0.000102154 0)
(-0.000331799 3.78843e-05 0)
(-0.000332806 -2.80468e-05 0)
(-0.000320797 -9.29735e-05 0)
(-0.000296225 -0.000154308 0)
(-0.000260045 -0.000209623 0)
(-0.000213669 -0.00025674 0)
(-0.000158912 -0.000293801 0)
(-9.79208e-05 -0.000319351 0)
(-3.30871e-05 -0.000332382 0)
(3.30447e-05 -0.000332382 0)
(9.7879e-05 -0.000319352 0)
(0.000158872 -0.000293804 0)
(0.00021363 -0.000256743 0)
(0.000260008 -0.000209628 0)
(0.000296191 -0.000154313 0)
(0.000320766 -9.29798e-05 0)
(0.00033278 -2.80544e-05 0)
(0.000331777 3.78747e-05 0)
(0.000317825 0.000102141 0)
(0.00029152 0.000162076 0)
(0.000253975 0.000215078 0)
(0.000206802 0.000258676 0)
(0.000152101 0.000290589 0)
(9.25177e-05 0.000308794 0)
(3.06487e-05 0.000311795 0)
(-3.72672e-05 0.000379433 0)
(-0.000112501 0.000375744 0)
(-0.000184957 0.000353568 0)
(-0.000251479 0.000314728 0)
(-0.000308851 0.000261683 0)
(-0.000354519 0.000197205 0)
(-0.000386523 0.000124295 0)
(-0.000403506 4.61149e-05 0)
(-0.000404742 -3.40918e-05 0)
(-0.000390147 -0.000113082 0)
(-0.000360273 -0.000187706 0)
(-0.000316278 -0.000255011 0)
(-0.000259878 -0.000312342 0)
(-0.000193282 -0.000357441 0)
(-0.000119099 -0.000388531 0)
(-4.02407e-05 -0.000404389 0)
(4.0197e-05 -0.00040439 0)
(0.000119056 -0.000388534 0)
(0.00019324 -0.000357445 0)
(0.000259838 -0.000312347 0)
(0.00031624 -0.000255018 0)
(0.000360238 -0.000187714 0)
(0.000390115 -0.000113092 0)
(0.000404714 -3.41035e-05 0)
(0.000403482 4.61008e-05 0)
(0.000386504 0.000124277 0)
(0.000354505 0.000197181 0)
(0.000308843 0.00026165 0)
(0.000251474 0.000314681 0)
(0.000184957 0.000353503 0)
(0.000112502 0.000375658 0)
(3.72668e-05 0.000379329 0)
(-4.5319e-05 0.000461554 0)
(-0.000136805 0.000457052 0)
(-0.000224914 0.000430075 0)
(-0.000305809 0.000382838 0)
(-0.000375583 0.000318328 0)
(-0.000431129 0.000239911 0)
(-0.000470063 0.000151233 0)
(-0.000490733 5.61378e-05 0)
(-0.000492253 -4.143e-05 0)
(-0.00047452 -0.000137525 0)
(-0.000438199 -0.000228315 0)
(-0.000384699 -0.000310206 0)
(-0.000316106 -0.000379966 0)
(-0.000235104 -0.000434845 0)
(-0.00014487 -0.000472679 0)
(-4.89461e-05 -0.000491977 0)
(4.89004e-05 -0.000491978 0)
(0.000144825 -0.000472682 0)
(0.00023506 -0.000434851 0)
(0.000316064 -0.000379974 0)
(0.000384659 -0.000310216 0)
(0.000438163 -0.000228327 0)
(0.000474486 -0.000137539 0)
(0.000492224 -4.14459e-05 0)
(0.000490708 5.6119e-05 0)
(0.000470043 0.00015121 0)
(0.000431114 0.000239882 0)
(0.000375573 0.000318291 0)
(0.000305804 0.000382788 0)
(0.000224911 0.000430007 0)
(0.000136805 0.000456965 0)
(4.53205e-05 0.000461451 0)
(-5.51091e-05 0.000561418 0)
(-0.000166358 0.000555925 0)
(-0.000273502 0.000523112 0)
(-0.000371879 0.00046567 0)
(-0.000456739 0.000387223 0)
(-0.000524303 0.00029186 0)
(-0.000571672 0.000184011 0)
(-0.000596835 6.83475e-05 0)
(-0.000598709 -5.03346e-05 0)
(-0.000577165 -0.000167236 0)
(-0.00053301 -0.000277694 0)
(-0.000467951 -0.000377333 0)
(-0.000384525 -0.000462217 0)
(-0.000285997 -0.000528998 0)
(-0.000176232 -0.000575039 0)
(-5.95401e-05 -0.000598524 0)
(5.94919e-05 -0.000598526 0)
(0.000176184 -0.000575044 0)
(0.000285951 -0.000529005 0)
(0.00038448 -0.000462227 0)
(0.000467909 -0.000377345 0)
(0.000532971 -0.000277709 0)
(0.00057713 -0.000167253 0)
(0.000598678 -5.03549e-05 0)
(0.000596808 6.8324e-05 0)
(0.000571651 0.000183984 0)
(0.000524287 0.000291827 0)
(0.000456727 0.000387182 0)
(0.000371871 0.000465616 0)
(0.0002735 0.000523042 0)
(0.000166358 0.000555837 0)
(5.51082e-05 0.000561315 0)
(-6.70132e-05 0.000682853 0)
(-0.000202291 0.000676156 0)
(-0.00033258 0.000636252 0)
(-0.000452216 0.000566407 0)
(-0.000555425 0.000471021 0)
(-0.000637614 0.000355059 0)
(-0.000695252 0.000223902 0)
(-0.000725891 8.32269e-05 0)
(-0.000728208 -6.11349e-05 0)
(-0.00070204 -0.000203346 0)
(-0.000648363 -0.000337733 0)
(-0.000569249 -0.000458969 0)
(-0.000467781 -0.000562261 0)
(-0.00034793 -0.000643529 0)
(-0.000214398 -0.000699562 0)
(-7.24329e-05 -0.000728144 0)
(7.23815e-05 -0.000728146 0)
(0.000214347 -0.000699567 0)
(0.00034788 -0.000643538 0)
(0.000467734 -0.000562273 0)
(0.000569204 -0.000458984 0)
(0.000648321 -0.000337751 0)
(0.000702002 -0.000203367 0)
(0.000728174 -6.11596e-05 0)
(0.000725861 8.31987e-05 0)
(0.000695228 0.00022387 0)
(0.000637595 0.000355021 0)
(0.000555412 0.000470975 0)
(0.000452208 0.000566349 0)
(0.000332575 0.000636179 0)
(0.00020229 0.000676067 0)
(6.70143e-05 0.00068275 0)
(-8.14844e-05 0.000830516 0)
(-0.000245975 0.000822356 0)
(-0.000404405 0.000773835 0)
(-0.000549892 0.000688919 0)
(-0.000675421 0.000572949 0)
(-0.000775404 0.000431949 0)
(-0.000845545 0.000272456 0)
(-0.00088286 0.000101368 0)
(-0.000885735 -7.42266e-05 0)
(-0.00085396 -0.000247228 0)
(-0.000788714 -0.000410731 0)
(-0.000692511 -0.000558251 0)
(-0.000569097 -0.000683951 0)
(-0.000423302 -0.000782857 0)
(-0.000260848 -0.000851054 0)
(-8.81246e-05 -0.000885844 0)
(8.80694e-05 -0.000885846 0)
(0.000260794 -0.000851061 0)
(0.000423249 -0.000782867 0)
(0.000569046 -0.000683965 0)
(0.000692463 -0.000558269 0)
(0.000788668 -0.000410753 0)
(0.000853918 -0.000247253 0)
(0.000885698 -7.42559e-05 0)
(0.000882828 0.000101335 0)
(0.000845519 0.000272419 0)
(0.000775383 0.000431905 0)
(0.000675406 0.000572897 0)
(0.000549881 0.000688857 0)
(0.0004044 0.000773759 0)
(0.000245973 0.000822264 0)
(8.14827e-05 0.000830413 0)
(-9.90757e-05 0.00101006 0)
(-0.000299075 0.00100013 0)
(-0.000491717 0.000941138 0)
(-0.000668638 0.000837914 0)
(-0.000821313 0.000696931 0)
(-0.000942949 0.000525503 0)
(-0.00102832 0.000331565 0)
(-0.00107378 0.000123497 0)
(-0.00107736 -9.00844e-05 0)
(-0.00103878 -0.000300544 0)
(-0.000959486 -0.000499479 0)
(-0.000842508 -0.000678993 0)
(-0.000692401 -0.000831973 0)
(-0.000515039 -0.000952357 0)
(-0.000317387 -0.00103537 0)
(-0.000107225 -0.00107772 0)
(0.000107165 -0.00107772 0)
(0.000317328 -0.00103538 0)
(0.000514981 -0.000952369 0)
(0.000692346 -0.00083199 0)
(0.000842455 -0.000679015 0)
(0.000959436 -0.000499505 0)
(0.00103874 -0.000300574 0)
(0.00107731 -9.01185e-05 0)
(0.00107374 0.000123459 0)
(0.00102829 0.000331522 0)
(0.000942925 0.000525453 0)
(0.000821296 0.000696874 0)
(0.000668626 0.000837846 0)
(0.000491709 0.000941058 0)
(0.000299072 0.00100003 0)
(9.90763e-05 0.00100996 0)
(-0.000120455 0.00122836 0)
(-0.000363614 0.00121627 0)
(-0.000597841 0.00114457 0)
(-0.00081298 0.00101911 0)
(-0.000998674 0.000847744 0)
(-0.00114666 0.000639341 0)
(-0.00125057 0.000403537 0)
(-0.00130597 0.000150507 0)
(-0.00131045 -0.000109276 0)
(-0.00126365 -0.00036531 0)
(-0.00116728 -0.000607368 0)
(-0.00102505 -0.000825831 0)
(-0.000842479 -0.00101203 0)
(-0.000626706 -0.00115857 0)
(-0.000386213 -0.00125964 0)
(-0.000130477 -0.0013112 0)
(0.000130412 -0.0013112 0)
(0.000386149 -0.00125965 0)
(0.000626643 -0.00115859 0)
(0.000842418 -0.00101205 0)
(0.001025 -0.000825856 0)
(0.00116723 -0.000607397 0)
(0.0012636 -0.000365344 0)
(0.0013104 -0.000109315 0)
(0.00130594 0.000150463 0)
(0.00125054 0.000403488 0)
(0.00114663 0.000639286 0)
(0.000998654 0.000847681 0)
(0.000812965 0.00101904 0)
(0.000597833 0.00114449 0)
(0.00036361 0.00121617 0)
(0.000120453 0.00122826 0)
(-0.000146436 0.00149376 0)
(-0.000442041 0.00147906 0)
(-0.00072681 0.00139193 0)
(-0.000988413 0.00123947 0)
(-0.00121426 0.0010312 0)
(-0.00139432 0.000777876 0)
(-0.00152083 0.000491191 0)
(-0.00158837 0.000183498 0)
(-0.00159399 -0.000132477 0)
(-0.00153723 -0.000443962 0)
(-0.00142015 -0.000738509 0)
(-0.00124723 -0.0010044 0)
(-0.00102517 -0.00123106 0)
(-0.000762653 -0.00140948 0)
(-0.000470011 -0.00153254 0)
(-0.000158787 -0.00159532 0)
(0.000158716 -0.00159532 0)
(0.000469941 -0.00153254 0)
(0.000762584 -0.00140949 0)
(0.0010251 -0.00123108 0)
(0.00124717 -0.00100443 0)
(0.0014201 -0.000738542 0)
(0.00153718 -0.000444001 0)
(0.00159394 -0.000132522 0)
(0.00158833 0.000183448 0)
(0.00152079 0.000491136 0)
(0.00139429 0.000777814 0)
(0.00121424 0.00103113 0)
(0.000988397 0.00123939 0)
(0.000726799 0.00139184 0)
(0.000442035 0.00147895 0)
(0.000146436 0.00149365 0)
(-0.000178 0.00181639 0)
(-0.000537326 0.00179852 0)
(-0.000883515 0.00169268 0)
(-0.0012016 0.00150745 0)
(-0.00147629 0.00125437 0)
(-0.00169537 0.000946484 0)
(-0.00184942 0.000597973 0)
(-0.00193181 0.000223828 0)
(-0.0019389 -0.00016049 0)
(-0.00187011 -0.000539448 0)
(-0.0017279 -0.000897895 0)
(-0.00151768 -0.00122155 0)
(-0.00124759 -0.00149751 0)
(-0.000928188 -0.00171477 0)
(-0.000572057 -0.00186464 0)
(-0.000193265 -0.00194111 0)
(0.000193187 -0.00194112 0)
(0.00057198 -0.00186465 0)
(0.000928112 -0.00171479 0)
(0.00124751 -0.00149754 0)
(0.00151761 -0.00122158 0)
(0.00172784 -0.000897932 0)
(0.00187005 -0.000539492 0)
(0.00193885 -0.00016054 0)
(0.00193176 0.000223772 0)
(0.00184938 0.00059791 0)
(0.00169534 0.000946415 0)
(0.00147626 0.00125429 0)
(0.00120158 0.00150736 0)
(0.000883503 0.00169258 0)
(0.00053732 0.00179841 0)
(0.000177996 0.00181627 0)
(-0.00021634 0.00220853 0)
(-0.000653067 0.00218684 0)
(-0.00107388 0.00205831 0)
(-0.00146061 0.00183332 0)
(-0.0017947 0.00152585 0)
(-0.0020613 0.00115172 0)
(-0.00224892 0.000728096 0)
(-0.00234947 0.000273179 0)
(-0.00235847 -0.000194257 0)
(-0.00227516 -0.000655325 0)
(-0.00210247 -0.00109158 0)
(-0.00184693 -0.0014856 0)
(-0.00151843 -0.00182165 0)
(-0.00112979 -0.00208628 0)
(-0.000696354 -0.00226885 0)
(-0.000235263 -0.00236201 0)
(0.000235177 -0.00236202 0)
(0.000696269 -0.00226886 0)
(0.00112971 -0.0020863 0)
(0.00151834 -0.00182168 0)
(0.00184686 -0.00148563 0)
(0.0021024 -0.00109162 0)
(0.0022751 -0.000655375 0)
(0.00235841 -0.000194314 0)
(0.00234941 0.000273116 0)
(0.00224887 0.000728027 0)
(0.00206126 0.00115164 0)
(0.00179467 0.00152577 0)
(0.00146059 0.00183322 0)
(0.00107386 0.00205821 0)
(0.000653059 0.00218673 0)
(0.000216339 0.00220842 0)
(-0.000262896 0.00268512 0)
(-0.000793616 0.00265881 0)
(-0.00130507 0.00250277 0)
(-0.00177522 0.00222957 0)
(-0.00218155 0.00185612 0)
(-0.002506 0.00140157 0)
(-0.00273456 0.000886724 0)
(-0.00285736 0.00033364 0)
(-0.00286887 -0.000234883 0)
(-0.00276807 -0.000795881 0)
(-0.00255844 -0.00132688 0)
(-0.00224786 -0.00180666 0)
(-0.0018483 -0.00221598 0)
(-0.0013754 -0.00253839 0)
(-0.000847798 -0.00276087 0)
(-0.000286436 -0.00287441 0)
(0.000286342 -0.00287442 0)
(0.000847705 -0.00276088 0)
(0.00137531 -0.00253841 0)
(0.00184822 -0.00221601 0)
(0.00224777 -0.0018067 0)
(0.00255836 -0.00132693 0)
(0.00276799 -0.000795936 0)
(0.00286881 -0.000234946 0)
(0.0028573 0.00033357 0)
(0.00273451 0.000886646 0)
(0.00250595 0.00140149 0)
(0.00218151 0.00185603 0)
(0.0017752 0.00222947 0)
(0.00130505 0.00250266 0)
(0.000793607 0.0026587 0)
(0.000262891 0.002685 0)
(-0.000319411 0.00326422 0)
(-0.000964235 0.00323236 0)
(-0.00158576 0.00304301 0)
(-0.00215727 0.00271137 0)
(-0.00265144 0.00225793 0)
(-0.00304633 0.0017058 0)
(-0.00332487 0.00108019 0)
(-0.00347497 0.000407815 0)
(-0.00348978 -0.000283642 0)
(-0.00336794 -0.00096627 0)
(-0.00311357 -0.0016127 0)
(-0.00273616 -0.00219702 0)
(-0.0022502 -0.00269573 0)
(-0.0016747 -0.00308866 0)
(-0.00103238 -0.00335988 0)
(-0.000348814 -0.00349831 0)
(0.00034871 -0.00349832 0)
(0.00103228 -0.00335989 0)
(0.0016746 -0.00308869 0)
(0.0022501 -0.00269576 0)
(0.00273606 -0.00219706 0)
(0.00311349 -0.00161275 0)
(0.00336786 -0.000966332 0)
(0.0034897 -0.000283713 0)
(0.0034749 0.000407737 0)
(0.00332481 0.0010801 0)
(0.00304628 0.00170571 0)
(0.0026514 0.00225783 0)
(0.00215724 0.00271126 0)
(0.00158574 0.00304289 0)
(0.000964224 0.00323223 0)
(0.000319409 0.00326409 0)
(-0.000387985 0.00396776 0)
(-0.00117127 0.00392921 0)
(-0.00192642 0.00369956 0)
(-0.00262106 0.00329717 0)
(-0.00322205 0.00274677 0)