/*--------------------------------*- C++ -*----------------------------------*\
  =========                 |
  \\      /  F ield         | OpenFOAM: The Open Source CFD Toolbox
   \\    /   O peration     | Website:  https://openfoam.org
    \\  /    A nd           | Version:  9
     \\/     M anipulation  |
\*---------------------------------------------------------------------------*/
FoamFile
{
    format      ascii;
    class       volScalarField;
    location    "45";
    object      p;
}
// * * * * * * * * * * * * * * * * * * * * * * * * * * * * * * * * * * * * * //

dimensions      [0 2 -2 0 0 0 0];

internalField   nonuniform List<scalar> 
918
(
0.55566082
1.725447
0.012052494
0.54128421
-0.008984422
1.6961222
-0.94038119
1.2178896
0.58590375
-0.21946014
-0.058606021
0.68031991
1.5674886
1.3257295
-0.67517371
-0.029140151
1.0524663
-0.7288709
0.60168677
-0.078749604
1.2811374
0.52691382
0.55297841
0.52635714
0.80656605
1.2829208
1.4306919
0.0081795308
0.0026219892
-0.010792685
-0.0058715928
-0.054765269
-0.03766428
1.5723989
1.6264198
1.6501024
0.53258401
0.59662061
-0.75261788
-0.83466522
-0.82013951
-0.99137328
1.2043854
1.196288
-0.46285478
1.2280322
1.2373362
0.53732463
0.5835221
0.597059
0.52343545
0.55830739
0.57226525
0.46883523
-0.24377536
-0.30171455
-0.1795909
-0.14924844
0.048103651
-0.052029594
-0.058193098
-0.046496693
-0.046406014
0.49931782
0.66687985
0.65093978
0.69245023
0.71353815
1.6625426
1.6259901
1.6529658
1.5997824
1.5900889
1.5473189
1.5104569
1.3650417
1.3726595
1.3225607
1.2850164
-1.1870968
-2.197607
-0.11655092
0.17678742
-0.0046361316
-0.015640824
-0.0020662816
1.0345526
1.0159206
1.0785087
1.1025139
1.3029651
-0.70326383
-0.90220177
0.60511124
0.60256089
0.58277521
0.5649264
0.61129961
0.65686594
-0.058753727
-0.055473534
-0.091095101
-0.071938845
-0.07667035
1.2570083
1.2645792
0.54136763
0.5463272
0.72880154
0.76836942
0.75391535
0.29210753
0.80390008
0.81436983
1.1107229
1.2915302
1.2943516
1.2799064
1.417072
1.3727067
1.4772788
1.5028078
0.029891192
0.0022514697
-0.014132799
-0.030876023
-0.012359118
0.53929034
0.53220452
0.61112454
0.5361779
0.54400412
0.54312455
0.40637087
0.68571748
0.69757546
-0.6323834
-0.68948691
-0.82005809
-0.8593524
-0.98869809
0.9696635
1.1808461
1.1668581
-0.51181757
-0.40068854
-0.56626716
-0.31274511
-0.35883039
0.54249573
0.54839433
0.54340447
0.54102968
0.54147063
0.54329687
0.57780534
0.57445322
0.59139084
0.54306585
0.68412292
0.41530686
0.35626275
-0.50592925
-0.33890401
-0.47659938
-0.12746771
-0.10660544
0.073679845
0.12079244
0.052530361
0.050155396
-0.09075082
-0.065898365
-0.075528201
-0.046637626
-0.0472177
0.48718022
0.47676351
0.50813805
0.51623392
0.63154742
0.63184611
0.64455656
0.64106075
1.4364385
1.4600957
1.5047689
1.467672
-3.5372861
-6.1455608
0.49047474
0.66309231
-0.0094347225
-0.0076872209
0.0045867864
-0.0010360468
0.0016293524
-0.0091014357
0.01200157
0.0042662481
-0.0010046249
0.0066766931
0.98806918
0.9734501
1.2543131
1.2944889
1.1652844
1.1523055
0.61089116
0.60783407
0.61364065
0.60511874
-0.048440322
-0.051535846
-0.048151386
1.2446006
1.2568112
1.2523072
0.20361007
0.1095042
0.33922445
0.38650804
0.93024451
0.86166872
0.9090608
1.1832004
1.2154123
1.4921911
1.5042119
1.5421551
1.5388938
1.5871687
1.5794707
1.5379556
0.51829045
0.53016924
0.52837691
0.60808178
0.61283836
0.61222144
0.62352899
0.62258996
0.61937692
0.24638094
-0.080954577
0.77871934
0.76632424
0.74184432
0.73822778
1.0414802
1.1287806
1.1167506
1.1496177
1.135767
-0.21182916
-0.23373842
0.28755246
0.25902503
0.41466075
0.45713275
0.44180672
1.4104953
1.4105966
1.4571715
1.4193429
1.3606819
1.3835846
-0.10669027
-1.2410991
-0.63952531
1.0471678
0.83696587
0.93636351
0.012387955
0.011155631
-0.0097112112
1.2721503
1.3361837
0.74616126
1.0011151
0.99961677
1.2592919
1.2811923
1.3541317
1.2815688
1.3068548
1.3294074
1.3121796
0.91598744
0.81898816
0.84697873
1.168268
1.2146536
0.022736536
-0.098926958
-0.10292465
0.13360211
0.19178017
0.15669407
1.3039735
1.2529311
1.3189463
0.5531953
0.54608214
3.1780744e-05
0.0025821591
0.60370427
0.58067805
-0.025385042
-0.0061987599
0.9134659
-0.41805318
0.032804764
0.6164679
0.56205865
0.57728854
-0.20485807
0.42949366
-0.05083888
0.046446202
-0.010142115
0.66673547
0.52408118
0.47281344
-0.0073850877
-0.033762203
-0.05060705
-0.42761393
0.56116914
0.53909366
0.56415027
0.54369951
0.57931942
-0.022550902
-0.016804894
-0.0061392626
-0.053357627
-0.046004459
-0.060716047
0.54572437
0.62444872
-0.3539508
0.5850907
0.57727484
0.59105059
0.56412854
0.61855608
0.57470866
-0.011488605
-0.012507758
-0.006293406
0.22268563
0.39726746
1.2127443
1.3385744
1.2460137
0.86982683
0.552005
1.0796075
1.1696441
1.045309
1.2052291
1.1884007
1.2290678
0.14594953
-0.098809556
0.15821555
0.033065088
0.60917085
0.61386827
0.55650596
0.54877199
0.58628677
0.56034466
0.58967202
0.59862203
0.59728008
0.61117014
-0.13884162
-0.16180369
-0.19618222
-0.30999679
0.44674027
0.72382227
0.33858391
0.37812096
0.1731715
-0.047637037
-0.047765962
-0.053013029
-0.062752135
0.010476012
-0.039716676
0.067087811
0.068854164
0.044859667
-0.0044857974
-0.016473586
-0.040765317
-0.0058290651
0.61671897
0.62428997
0.66300895
0.68972279
0.52258847
0.51840432
0.48435523
0.52289567
0.49408235
0.40647591
0.47599636
0.43173784
-0.011530771
-0.01141464
-0.013043239
-0.020896567
-0.0049773024
-0.018623279
-0.024319041
-0.022626345
-0.025046768
-0.030851574
-0.049800302
-0.053778933
-0.36571638
-0.5484327
1.2116862
1.0560378
0.27261552
0.5355524
0.5371401
0.52161222
0.57261415
0.55975175
0.55928934
0.55855571
0.55518503
0.57842198
0.58751358
0.61964014
0.6271408
-0.24537866
-0.49349597
-0.23068081
-0.34928347
0.46938583
0.95253369
0.40675564
0.29726801
0.30286561
0.7649119
1.4705669
1.3125642
1.2718425
1.2490602
-0.076673014
0.36862881
0.10147583
0.76038954
1.0009586
1.1877214
1.2405212
1.2434324
1.2142029
1.1573087
0.05823127
1.0648113
-0.22632306
-0.15782781
0.25697529
-0.018748821
1.2044398
1.1528261
1.141753
1.2161349
1.2434786
1.1821962
1.1575249
1.1634845
1.1990994
1.1956026
0.91308138
0.27715228
0.16535844
0.12056445
1.0814093
0.96599178
1.0519016
0.82885734
0.59813122
0.6178135
0.60260077
0.52083689
0.54898438
0.52208018
0.58097057
0.61825872
0.60300614
0.5810075
0.59847103
0.57225075
-0.11661745
-0.11463016
-0.075806919
-0.29223414
-0.28073165
-0.40225944
-0.14635953
0.083366761
0.044153137
0.29159097
0.44736748
0.033456424
-0.15871981
-0.10201855
-0.0098519508
0.20698727
0.24989237
0.10171836
0.17322767
0.15744567
0.13060071
0.27812193
0.28317971
-0.020011612
-0.015241936
-0.045711847
-0.037550231
0.034801663
0.13926712
0.1431376
0.0051530258
-0.0098272539
-0.043909705
-0.046040429
-0.0039547111
-0.041091483
-0.015080997
-0.0027792424
-0.022704413
0.0085451195
0.0039975798
-0.0058205318
0.016011878
0.008218022
0.6377114
0.62632384
0.62660988
0.72126147
0.70539593
0.73116421
0.72004094
0.54405076
0.53270446
0.53618154
0.53917751
0.52599172
0.54231913
0.57103165
0.6301173
0.64770847
0.61096317
0.59101607
0.61388989
0.57754288
0.5640895
0.57188426
0.56339922
0.4971904
0.50058871
-0.026752742
-0.0033819893
0.012501802
-0.062421815
0.00065901987
-0.01955467
-0.0015519591
0.032855051
-0.01234273
0.0097571151
-0.00082483962
-0.020861189
-0.012399352
-0.15703096
0.010842111
-0.41291958
-0.44704805
-0.57162916
1.1087975
1.2704694
0.99489137
0.72369719
0.76345291
1.0444929
1.1809134
0.67902396
0.81754551
0.92921654
0.93379106
1.154692
0.56419764
0.55370444
0.56516282
0.53942401
0.57457262
-0.013172965
0.2390702
0.11148275
0.33254761
0.58870196
0.63349711
0.45639385
0.40345571
0.54884325
0.44231914
0.96360682
0.9964434
0.84905306
0.90717511
0.86636097
0.57624952
0.80929058
0.94677643
0.82309087
0.85896252
0.90015871
0.86035413
0.91604799
0.80720714
0.69503364
0.73077613
0.50731449
0.59274478
0.54087868
0.48215079
0.64959254
0.60505245
0.65340082
0.6220979
0.68454063
0.76883802
0.75257347
0.75144754
0.78878739
0.6621395
0.58936146
0.60886869
0.68176619
0.55803466
0.58353803
0.62533062
0.48287621
0.49282817
0.36551416
0.27613074
0.32788253
0.1828352
0.15335404
0.2055248
0.51299503
-0.10041207
-0.10276887
-0.4683915
0.95005952
1.4787451
1.0861153
1.0575009
1.2416415
1.2159521
1.2069903
1.2505415
1.2501664
1.0844059
1.1270974
1.116124
1.0942856
1.1384733
1.2043839
1.1866323
1.001573
0.66611264
0.64178902
0.56026117
0.24736704
0.35747964
0.77057113
0.60791964
0.43594711
0.40583311
0.71973978
0.45050064
0.58828278
0.74379268
0.55401132
0.44474524
0.9132536
1.0318607
1.0231919
0.97503274
0.82453521
0.88471141
0.96642913
1.0334109
1.0662143
1.1386209
0.55015286
0.57291967
0.56408212
0.54154328
0.5698135
0.58912191
0.59101574
0.5831519
0.58778173
0.5967823
0.60775309
-0.064512096
-0.05575704
-0.087432475
-0.082992645
-0.048400184
-0.076379183
0.0082266447
-0.022413301
-0.032277369
-0.029943092
-0.061962594
-0.081103712
-0.067915352
-0.04564172
0.13979366
0.18488379
0.12836809
0.1089212
0.34201819
0.46881583
0.52616506
0.44736195
0.25982388
0.28621586
0.35486829
0.018082373
0.040147962
0.051348173
0.073780076
0.073484285
-0.039486397
-0.043831659
-0.038983906
-0.039574838
-0.017897644
-0.039690951
-0.046173614
-0.03405469
-0.034240604
-0.040909128
-0.050535848
0.53964539
0.54641732
0.58910997
0.54599086
0.54735264
0.59562039
0.57762109
0.59596786
0.60709073
0.62844755
0.59753345
0.62532747
0.62539297
-0.020916065
-0.024734359
-0.041911512
-0.033380205
-0.026439815
-0.024131799
-0.032312524
0.292246
0.13946683
0.18502499
0.033749688
-0.23454509
-0.12317453
0.67076265
0.81157075
0.8072291
1.024162
0.80657803
0.76544361
0.91736377
1.0385571
0.45179892
0.68261108
0.50192145
1.1377808
1.0530785
1.220001
0.7713966
0.48664556
0.7326677
0.81517501
0.5256461
0.63265974
0.55524758
0.3599786
0.42717857
0.50319428
0.68062978
0.48587694
0.54639419
0.47224864
0.48947432
0.54287626
0.5631961
0.64693077
0.70438607
0.40676748
0.37975706
0.30936347
0.97979813
1.000576
1.0273475
1.0333375
1.0464328
0.8134646
0.80691557
0.84705023
0.82388535
0.79762841
-0.28750153
-0.37086531
-0.73990529
-0.22041636
0.40377152
1.0012123
0.89054127
1.3913799
1.1276781
1.2764565
1.215054
1.1834121
1.1024101
1.118977
1.1796998
0.56904078
0.77191235
0.75586063
0.69273218
0.47959321
0.3802784
1.0208883
0.99416975
1.0708796
1.1030634
1.0361463
1.1109491
0.57211294
0.58978863
0.56618946
0.57803682
0.5546028
0.56764245
0.057111159
-0.0018640675
0.12155286
0.1014836
0.013012503
-0.018030997
-0.012500258
-0.010676032
-0.030623548
-0.023672041
-0.007457681
-0.0055245948
0.34011567
0.27839963
0.055543798
0.17801272
-0.032063035
-0.1401528
-0.20767851
0.01373764
0.18897783
0.18694648
0.57887713
0.85659721
0.70671515
0.81309942
0.63486483
0.74695208
0.75316043
0.70346497
0.74440525
0.62939193
0.64332254
0.70769499
-0.090980517
0.22960656
1.432543
1.3947237
1.008636
0.87406697
0.80817233
1.0746765
1.0183177
0.85176409
0.95711506
1.0678332
1.0480816
0.46480815
0.43053421
0.84787763
0.98546503
0.56863126
0.4390778
0.40935855
0.5931074
0.65227558
)
;

boundaryField
{
    wall-4
    {
        type            zeroGradient;
    }
    velocity-inlet-5
    {
        type            zeroGradient;
    }
    velocity-inlet-6
    {
        type            zeroGradient;
    }
    pressure-outlet-7
    {
        type            fixedValue;
        value           uniform 0;
    }
    wall-8
    {
        type            zeroGradient;
    }
    frontAndBackPlanes
    {
        type            empty;
    }
}


// ************************************************************************* //
