/*--------------------------------*- C++ -*----------------------------------*\
  =========                 |
  \\      /  F ield         | OpenFOAM: The Open Source CFD Toolbox
   \\    /   O peration     | Website:  https://openfoam.org
    \\  /    A nd           | Version:  9
     \\/     M anipulation  |
\*---------------------------------------------------------------------------*/
FoamFile
{
    format      ascii;
    class       surfaceScalarField;
    location    "45";
    object      phi;
}
// * * * * * * * * * * * * * * * * * * * * * * * * * * * * * * * * * * * * * //

dimensions      [0 3 -1 0 0 0 0];

internalField   nonuniform List<scalar> 
1300
(
1.7582594
5.6264299
-5.0189065
1.7582594
-8.5000161
5.6264299
-5.3616998
5.3616998
-0.62146403
0.62146403
3.7307627
3.6539266
-3.7292753
3.7292753
-3.5111322
3.5111322
-0.5332002
0.5332002
-5.2377242
5.2377242
-5.0578126
5.0578126
4.7133173
-4.7133173
-6.8759039
6.8759039
-0.43611756
0.43611756
-4.6851467
4.6851467
1.5031511
-1.5031511
-3.4094224
3.4094224
0.076053025
-0.076053024
-0.56826526
5.1397396
1.1899941
1.1899941
-0.32635651
0.32635651
-4.8660104
4.8660104
6.2140784
-6.2140784
7.8061196
-7.8061196
-2.787213
-3.3895685
1.9805486
-12.521067
-6.5194675
-6.5194675
-8.4382636
8.4382636
-2.8118337
2.8145963
1.4994739
-1.4994739
-1.7362351
1.7362351
-5.3169813
-0.044718517
-5.3169814
5.3766168
-0.014917049
5.3766168
-0.64755757
0.026093521
-0.64755758
4.7468049
-4.7468049
0.55450386
0.066960166
0.55450385
1.2884672
-1.2884672
-3.7411041
7.4718668
3.6435852
-3.0557192
8.1954589
-3.3912318
7.0451583
-6.5665965
6.5665965
-3.9118041
0.18252875
-3.9118041
3.6387025
0.090572844
3.6387025
-7.4470203
7.4470203
-3.5515876
0.040455358
-3.5515876
3.4741628
0.036969472
3.4741628
2.085009
-2.085009
-0.61462488
0.081424683
-0.61462487
0.44623398
0.086966218
0.44623398
0.35898171
5.2674483
-5.9854116
8.8000079
-5.2674482
0.02972391
5.2000942
0.037629952
5.2000942
-5.0938863
0.036073644
-5.0938862
5.0160194
0.0417933
5.0160194
4.7947358
-0.081418498
4.7947358
-4.8255727
0.11225523
-4.8255727
-4.0282315
-4.5108404
-7.0445455
0.16864164
-7.0445455
-0.38354376
-0.052573799
-0.38354377
0.54714922
-0.11103167
0.54714922
-4.1412808
4.1412808
-5.0778064
0.39265972
-5.0778064
1.3704942
0.13265696
1.3704942
2.0088268
2.5626475
3.7670862
-3.7670862
2.2639351
-3.3958113
-0.013611128
-3.3958113
-3.4832356
-4.3228839
3.4832357
-0.073813263
-0.32789614
0.40394918
-0.32789619
1.2509846
-0.060990409
1.2509846
0.37321807
0.073015915
-0.37321805
0.046861526
3.3550865
-3.3550865
-0.043859415
0.37021595
-0.043859414
-5.569438
5.569438
4.9586177
0.057401696
-4.9586177
0.092607282
6.1532717
0.060806727
6.1532717
-6.1926374
-0.021440966
-6.1926374
3.4403103
-6.8298788
-3.5095579
6.6997474
0.17615645
-6.6997474
0.18027992
1.6119249
-0.1124511
1.6119249
-1.0269243
1.0269243
-1.4558569
-0.043616905
-1.455857
-2.0628618
0.3266267
-2.0628618
1.4760284
0.26020673
1.4760284
-5.1489612
-0.16802018
-5.1489613
-5.2944625
0.21665609
5.2944626
0.082154202
1.4492528
-1.4492528
-0.64499041
-0.0025671699
-0.64499039
-4.9290515
-0.21990976
4.9290516
-0.18224665
-4.6227778
-0.12402717
-4.6227778
-1.3629938
-0.092863164
1.3629938
-0.074526592
1.2857573
-0.034772713
-1.2857573
-0.002709883
-3.0489139
5.6115614
-3.3980371
7.0416223
-6.1855778
-0.38101869
-6.1855778
6.903596
-0.33699958
6.903596
4.2969849
0.38816177
-4.2969849
0.38518085
3.6007832
0.037919316
3.6007832
-7.4203779
-0.026642344
-7.4203779
7.4492048
-0.0021845308
7.4492048
3.5807258
0.02005739
-3.5807258
0.029138167
3.4362243
0.037938452
3.4362243
2.2852917
-0.20028275
2.2852917
-1.9020513
-0.18295765
-1.9020513
0.87814452
-0.87814452
0.78528251
0.092862016
-0.78528247
0.1706576
-11.148741
11.1273
-0.035753461
-11.112988
5.1643407
5.1643407
3.9992773
0.7954584
3.9992774
-5.0268046
0.20123188
-5.0268046
3.5010467
-7.0106046
3.843354
-7.8715855
5.0511811
-17.572248
4.7077217
-9.2185621
7.2941749
-7.2941749
7.1757842
0.11839062
-7.1757842
0.13123871
-0.30165261
-0.081891162
-0.30165262
-3.5268861
-0.61439473
-3.5268861
4.8025687
-0.66128789
4.8025687
-1.2661462
1.2661462
-1.3014849
0.035338675
1.3014849
0.069009303
3.4084829
0.027741402
-3.4084829
0.012671651
0.4690911
0.085412752
-0.46909106
0.14119487
3.8203274
-0.46524087
3.8203274
-2.8745462
-0.48054037
-2.8745462
-0.14354352
-0.15810909
0.14354354
-0.18740296
-5.8171066
0.24766867
-5.8171066
-11.21344
0.10045238
-11.17581
-6.0921851
-6.0921851
2.3460784
11.146086
-1.754914
-0.14713733
1.754914
-0.14298909
1.1997539
0.066392329
-1.1997539
0.17282953
-0.93837225
0.060227712
0.93837225
0.088552098
-2.484029
0.42116717
-2.484029
-1.2274461
1.2274461
-1.299744
0.072297864
1.2997441
0.17628431
1.7616399
-0.31238716
1.7616399
0.60925741
-0.062108189
-0.60925744
-0.035732954
-4.4387458
-0.18403194
-4.4387459
7.1614727
-0.2578767
7.1614727
-2.5589413
-0.31560489
2.5589413
-0.27364955
-0.035149961
11.16245
-5.1291908
0.035304592
5.1291908
-11.223257
11.258561
-3.0576351
0.5736061
3.057635
0.94164246
5.2973894
0.27204862
-5.2973894
0.27058481
7.3833167
0.065888099
-7.3833167
0.089141834
-3.0252195
-0.50166661
-3.0252195
-5.5465837
-0.6389941
5.5465838
-0.74401508
-11.475035
-0.19755897
11.672594
-11.433241
6.0146656
0.13860612
-6.0146656
11.397168
-1.2692342
-0.18001862
1.2692343
-0.041788132
2.1087245
-0.34708455
2.1087245
4.2064512
-0.38612379
-4.2064511
-0.23229474
-7.3153183
-0.10505965
7.3153183
-0.15384557
-2.5453075
-0.47991196
2.5453075
-0.43658305
-5.3426569
5.2816665
2.852802
-3.3179513
-3.5119275
-7.6408353
2.5349095
3.0766519
4.7988447
-11.021929
-6.5503194
-10.841649
7.26435
-6.9937652
-9.4227025
9.3412838
10.888587
-11.012614
-7.2521128
7.3211221
8.7556264
-8.830153
3.8065086
3.6653582
10.624188
-10.44166
-16.848167
16.467148
10.134912
-10.094457
17.121443
-17.148085
-19.356883
19.422771
-7.0933227
7.1747473
-9.5904058
9.4074481
-10.028946
9.7552961
-3.6421057
-4.2294798
14.245962
-14.07732
11.737337
-11.750948
-11.508862
11.901521
4.0522676
1.2293989
4.0174949
-3.6063928
7.4129014
-3.4387656
6.2915676
3.6090189
-7.2511246
3.4015857
-6.9135132
6.0263033
5.7110333
-5.95249
-1.6883452
-8.272003
8.1595519
-7.2991716
7.3877237
12.364538
-12.409256
-3.616046
7.2814042
-3.4255764
6.5022282
-3.6680437
-3.5840691
3.5353867
1.263458
8.7786366
5.4673253
-8.954793
-1.8868557
-11.507521
11.121397
-12.055276
11.574736
-0.43783978
5.7863945
-5.3485547
4.4281707
-1.4888669
7.2752614
5.7754832
5.9767151
5.8658431
-5.5937945
1.1279221
-6.4764768
-6.3838695
-2.4729549
2.4703878
2.3986482
-2.331688
8.2953098
2.5932772
8.1130632
-7.8906018
-3.1220123
-8.0746337
4.3507788
2.9703434
4.3861174
5.2783456
3.4772808
5.1854824
5.8337978
-5.9772002
0.14340245
-5.4858211
11.319619
1.304204
-9.0698902
-7.8064323
6.7680103
3.8561784
6.8585831
-7.2972037
-3.144456
-6.9120229
-10.245422
-6.6027448
-10.884416
10.995273
5.4718755
10.658273
-12.950225
12.796379
6.6185296
3.5163826
6.655499
-6.6576937
-3.4367632
-6.6285555
13.424954
-3.1651447
-10.25981
-11.197516
-8.1593671
11.199701
5.9217421
11.909862
7.5129092
11.999004
4.8969792
8.5279752
-10.818721
2.6593542
-4.3853749
-2.7079478
-4.2147173
4.2355453
2.9392021
4.3225115
-5.605179
-3.9852268
-5.7523163
-5.7042018
-4.3247439
5.9044845
3.5029636
-5.9932862
-6.0619903
6.3088911
3.4464051
4.3979683
-10.948288
4.8205938
-9.0500737
-9.9875009
-4.0898194
-9.8562622
4.5792876
3.1030231
-7.6823106
-2.671837
11.273696
-5.5626622
9.5853503
-7.2201958
-4.530752
-7.2075242
-9.1317544
-2.3771072
-8.9150983
-9.4975712
8.9959046
-9.9068929
9.245605
13.960844
-6.9433783
-7.0174659
-4.8904546
-3.9396983
4.8931645
-0.87566959
-7.1942527
7.3376552
0.21864873
6.5102164
7.7396153
6.8639457
-4.4136632
-2.8855084
-4.2408337
4.3649937
3.02273
4.4252214
9.202639
3.1618986
9.187722
-8.8258672
-3.5833889
-8.9938875
9.4346124
-9.1079857
2.5668685
-2.7249776
7.6280379
3.9466982
-7.1627971
-4.3447234
9.542403
-4.4975166
-5.0448864
-12.075026
10.576925
1.4981016
-4.7997647
-0.37159397
-0.44764701
-5.5501169
-3.8725855
5.4378615
0.53885354
11.115778
7.2431927
-5.5151887
5.7628574
6.1574048
6.2148066
-0.16906294
5.9981579
-5.4245518
6.9096365
-3.6155453
-3.2940913
7.2570352
-7.4769449
-1.7368523
-7.9749981
6.2381458
0.63611819
1.8193337
-1.4153845
-1.7166056
-0.75634932
-1.7523385
1.4147314
0.98391681
1.5001441
0.89379999
1.5765878
-3.4638265
0.72900666
2.7348198
-2.5700265
-1.6026814
-5.2000926
-2.0415875
7.24168
8.0507359
3.0706608
-7.8184412
-0.25619248
2.4012041
-2.5122358
-0.71427488
-4.4858177
2.9993486
-3.7136235
-6.0257993
-2.5015358
8.5273351
-3.6518954
-0.5889383
3.5855031
0.80061438
-4.8330948
-3.4389082
4.8767117
0.30877072
-5.4563019
11.056888
-5.6005857
-8.3418103
4.4583407
6.8612782
7.428684
-9.1672277
4.8273759
4.3398518
-2.3059495
5.807439
1.0511441
5.8453584
-9.4283868
6.2839307
7.7201865
4.1813347
-8.1083482
1.1963254
-8.2320614
11.002108
-9.6706932
-1.3314143
5.4363515
5.565756
7.5917817
6.3690625
-5.9793174
13.571099
-1.5868991
-8.0837941
9.8189606
-5.6376259
6.6158383
-12.253464
-12.984901
4.9011068
-9.9711369
12.084165
-2.1130283
-3.884223
-9.0660016
13.85536
-1.334395
-12.520965
9.3238783
-5.6427793
-5.546226
11.189005
-8.807924
8.9829893
-2.6770399
-6.3059493
-10.925066
-6.2230191
11.030126
1.7662534
-11.866482
14.525837
-3.3385072
5.7353615
0.9201375
5.7733
4.2992789
-6.9316891
2.6324102
4.5086451
-7.185685
2.7450959
-9.676785
-7.2362851
13.314869
-6.0785838
-11.326104
-10.286633
-1.0394717
2.7783851
11.747451
-10.291294
8.0255007
2.2657935
3.5659678
0.85925361
-3.6588298
-0.5558875
0.43499555
6.8562435
-7.291239
4.7575071
4.830523
5.029899
1.8263445
5.1908221
2.9687299
-5.047833
-0.70448333
-6.6897981
2.3650541
-3.1868344
-6.6800838
9.0451379
-7.2843462
0.60426236
-4.5007995
-6.1503636
10.651163
-7.2087473
5.1889961
5.8678915
8.2117261
-8.838333
2.6879693
-4.3605817
-4.4777513
4.5963768
-7.7832113
3.5064634
5.5386746
6.9528684
0.89087812
6.5664655
6.7484034
-9.6694885
0.61941482
12.215729
-10.328873
2.6840381
9.3149656
-10.709539
0.42290601
-9.4333562
1.2400353
-6.8026976
-6.4422754
7.1751361
-9.5522433
-5.0783281
8.2824606
0.90526138
-8.3646148
-0.55048345
-6.4839735
-3.0135977
-6.9638854
-3.2941048
-6.6127881
-9.2734222
-1.7687218
-7.5047004
7.2271828
-7.2207977
-3.6636186
7.9648127
1.2807923
-7.9412592
7.7612406
-7.9992128
7.6521282
0.29925426
7.0384009
7.1632
3.2235017
-4.7324514
7.9559531
-7.1425627
10.304461
-12.296931
5.1543678
6.1172659
-9.7006549
-6.1796647
5.4058866
4.0287259
5.6660934
9.2473399
-10.600178
1.3528381
-10.836852
12.452838
-1.6159867
-16.830841
5.9939889
-7.5835007
2.397326
0.16954249
2.3154348
0.77098772
2.8676023
-3.63859
-1.9539899
-2.1413929
-3.8172324
-5.7505434
9.5677759
1.846521
-5.3574904
3.5109693
-4.7370378
6.5835588
0.055676885
-5.4131672
7.1454361
-4.2778338
7.3149786
-4.6813609
2.6336178
5.2645691
9.2303997
-3.9658306
6.9894235
-3.0427252
3.1058434
-7.0716739
-2.6447
-4.8896462
7.8288482
-5.761517
6.3657793
-0.5376092
6.9033885
-5.864848
1.3673314
-0.83494902
3.995574
4.0424356
7.1091256
-5.2827811
5.0074348
-8.05016
-2.0642392
-7.1592819
-1.6206073
-0.38628284
-5.0248444
5.4111272
6.5989299
-6.9852127
-5.2880701
9.6243946
-4.3363245
7.9767309
-5.4821855
-2.4945454
-4.4921064
-4.6158794
4.0709393
1.9272186
9.9039494
0.26401053
-5.7461961
-5.1605414
-4.2188989
4.1748258
2.7348106
-2.0417393
3.539841
2.4893862
-0.67005254
0.52845428
0.97168985
2.0787549
-1.5503006
0.30249982
1.7762551
-1.1128847
1.7500756
0.65112855
-1.6879674
-0.064371101
-1.4286288
4.4279775
1.3061911
-2.2901079
0.73980723
1.3939937
-5.009539
7.415905
-4.012753
-3.403152
8.8098986
1.5483335
-5.5610864
6.4266647
-5.7905466
3.3763812
-5.4179686
-2.1847052
-7.9752518
-5.3819746
-4.2836208
7.7945901
-5.284155
8.3548158
1.7687908
-8.0986233
9.8674142
-4.8432533
2.3417175
-4.1245485
4.775677
-1.7403055
-2.384243
4.3527669
4.1745681
-4.365791
-0.12002673
-0.013024041
3.1203166
-3.1333406
-0.59330694
-3.1633335
-7.6653256
7.9740963
-3.7679084
8.5952843
4.1880448
-3.6384016
12.233686
3.1507261
-6.7891277
-5.1910842
-5.7800225
-2.4492759
4.9794082
-0.90448337
-5.7240721
-7.2104326
5.7040147
0.14134365
-9.2996003
10.458534
-1.1589336
-5.443422
-0.84050864
6.2768601
-7.911564
0.72587897
-5.166468
5.2920659
6.34321
6.4845536
-12.282509
-0.23845589
-6.8106337
1.3445867
-8.1552203
6.9103427
-3.763276
8.6643828
-11.088615
7.4249968
-9.8078231
7.3329684
-0.82225193
7.257891
-4.6254807
3.0019188
-9.2249379
-7.4586845
7.1908807
-3.6744981
8.1110182
-4.1760002
12.287018
-7.5145074
7.0224458
5.2645725
-1.3762282
-5.831296
-6.9921912
5.6159631
0.030254564
5.8035546
8.0532612
-5.0845313
7.3487779
4.4196603
-8.780242
-3.363551
-11.951648
3.1714064
-6.0837569
-3.27
6.4414064
4.9417261
5.8009797
1.9636551
-5.2450922
8.440703
-9.4801747
-2.3621191
-4.0801562
6.9468708
-1.3309077
4.3865787
-8.466735
-2.4161188
5.7486025
-0.612364
-5.1362385
1.1947757
-6.2731039
2.3711202
-8.6442241
7.1811231
-7.7316065
2.3397177
-9.9232184
-5.6015415
-5.6433297
-2.4132069
-5.5860059
-7.8568365
5.4436296
-1.8628476
5.898393
-8.7606449
8.1482809
-3.6921935
9.1358231
-5.829488
-1.1343974
6.2660711
1.3860572
10.52188
0.52474523
-6.7044099
-2.8178054
5.2652533
-2.4474479
1.3570203
-4.5000991
0.76515421
3.5615378
5.2483608
-9.7996837
0.099028882
-6.605381
-4.1236935
8.1524194
5.5007011
12.099631
1.499453
9.2782701
-1.1258507
10.777723
4.5402427
4.716527
-4.0863378
5.4391759
1.3247894
6.4791573
-0.81775188
3.4513696
1.4976829
1.4451091
1.0671267
2.5779221
1.4645134
3.9452535
0.30666349
-1.8347294
4.6609578
-8.8798567
-1.0852382
-8.0843983
1.2568853
5.8231684
-4.5662831
3.8768931
-1.1420825
1.4294452
-0.2439714
-1.5649136
1.8088851
-3.5380624
-2.2349662
-0.45871112
-2.0550668
2.7948741
2.3729106
-2.3361629
-1.2018995
0.70899616
-6.0909708
4.7089724
-4.8289992
-0.65443106
9.2129831
-3.6353845
0.50204384
-1.2936669
-2.6612896
-3.417639
3.4820101
11.579848
0.65383741
5.9792627
8.6279337
5.1890255
0.10449413
4.9985239
-7.1115523
-4.6782611
-7.3500081
-0.43966543
5.8371947
2.2549876
9.4924639
7.5195601
6.1886523
-2.2780826
-11.758257
8.3581312
-2.9189553
6.7421445
-1.605906
-7.0383181
6.9119091
3.3925522
-7.8171705
0.085563924
-6.9527542
-9.8717095
-0.4588042
8.6070852
-10.063076
8.9286788
5.9150811
1.5896193
-4.7675397
-0.87578996
4.6952418
0.021285257
10.799008
-1.206268
-6.883553
8.0898212
-4.6169003
3.5316622
0.89614884
2.6436921
2.7050337
1.5629511
-5.320602
-9.886885
-3.0716105
-1.9379285
-6.4747625
0.76691748
-3.1398281
6.1996199
-2.6679576
3.7050744
5.4218635
6.8513087
-1.9834649
-5.0017478
6.3197895
-2.6147151
4.2365936
)
;

boundaryField
{
    wall-4
    {
        type            calculated;
        value           uniform 0;
    }
    velocity-inlet-5
    {
        type            calculated;
        value           nonuniform List<scalar> 8(-1.7582594 -1.7582594 -7.3846893 -4.5714743 -7.3846893 -6.446951 -4.5714743 -6.446951);
    }
    velocity-inlet-6
    {
        type            calculated;
        value           uniform -5.6264299;
    }
    pressure-outlet-7
    {
        type            calculated;
        value           nonuniform List<scalar> 8(5.0189065 8.5000161 6.1767816 10.540518 8.5390719 6.9498682 7.3444008 9.7589028);
    }
    wall-8
    {
        type            calculated;
        value           uniform 0;
    }
    frontAndBackPlanes
    {
        type            empty;
        value           nonuniform List<scalar> 0();
    }
}


// ************************************************************************* //
