/*--------------------------------*- C++ -*----------------------------------*\
  =========                 |
  \\      /  F ield         | OpenFOAM: The Open Source CFD Toolbox
   \\    /   O peration     | Website:  https://openfoam.org
    \\  /    A nd           | Version:  9
     \\/     M anipulation  |
\*---------------------------------------------------------------------------*/
FoamFile
{
    format      ascii;
    class       volVectorField;
    location    "45";
    object      U;
}
// * * * * * * * * * * * * * * * * * * * * * * * * * * * * * * * * * * * * * //

dimensions      [0 1 -1 0 0 0 0];

internalField   nonuniform List<vector> 
918
(
(0.4084677 -0.00022958781 0)
(0.009045707 2.9576277 0)
(-0.0058021162 1.3277168 0)
(0.29040426 -0.0084074355 0)
(-0.010906631 2.2595807 4.21908e-20)
(-0.011743953 2.9485787 -3.3258146e-18)
(0.9116507 1.4234166 7.9442744e-19)
(0.17433566 0.10651652 -2.6587388e-20)
(1.9883174 0.0042094128 0)
(0.008895935 1.0304724 0)
(0.004428766 0.9555963 0)
(0.096495168 0.0024538014 0)
(0.012835643 2.9163568 0)
(0.013656959 2.7912908 0)
(0.096904913 3.1574072 3.2406326e-19)
(-0.0091994105 2.1147529 1.8873225e-20)
(0.062805439 0.0092175421 1.6414569e-18)
(0.19160695 1.4540376 5.9550638e-19)
(0.37750524 0.007528838 0)
(-0.0089476292 0.90524118 0)
(-0.040593697 0.086028329 -1.2841371e-18)
(1.0480385 -0.021475161 0)
(0.54475029 -0.027253089 0)
(0.24738797 -0.0061504734 0)
(0.093848878 0.034077562 0)
(0.020827438 2.6243476 0)
(-0.0099911953 2.9057979 1.2214927e-18)
(-0.019589279 1.3851315 0)
(-0.03563241 1.6484872 0)
(-0.015178646 1.3582966 0)
(-0.0066432951 2.8132615 0)
(-0.0019078655 2.3139675 -3.3166912e-20)
(-0.0045283946 2.0958686 0)
(-0.018162111 2.9813195 -1.2371277e-22)
(-0.018376373 3.0070219 2.5821229e-18)
(0.00085863746 3.0015932 0)
(0.3008245 -0.0026576947 0)
(0.42324691 0.89168729 3.4712172e-19)
(1.0347745 1.4663843 -9.8779392e-19)
(1.0548145 1.2874406 1.005546e-18)
(0.86799671 1.5951857 -1.8202364e-19)
(0.74239722 1.5246295 1.0339982e-18)
(0.25862707 0.14133051 2.5930789e-20)
(0.1723437 0.073064615 0)
(1.2819749 0.74481597 0)
(0.23339001 0.14536533 1.1892297e-19)
(0.16869124 0.11242527 -1.2353394e-19)
(0.25417862 -0.013179631 0)
(1.9896585 0.0013270209 0)
(1.9887452 -0.0015860092 0)
(1.3549372 0.0026095344 0)
(1.8676059 0.0062646828 0)
(1.7381039 0.0035723888 0)
(0.025735903 2.0300847 -8.3144238e-19)
(0.026005781 1.2796881 0)
(0.033985965 1.1010797 0)
(0.0061298466 1.2603386 0)
(0.0028618416 0.98819122 0)
(-0.0028565 2.2239346 0)
(0.010171038 1.2056331 0)
(0.00856922 0.97380705 0)
(0.0052629399 1.2095691 0)
(0.0033182399 0.93071502 0)
(0.48880325 0.022255909 0)
(0.24177405 0.013473833 0)
(0.12077341 0.024589792 0)
(0.21821235 0.011314758 0)
(0.075258934 0.008979913 0)
(0.016738408 3.0145163 1.2726083e-18)
(0.012390064 3.011385 0)
(0.0077271715 3.0035752 0)
(0.013324321 3.0004918 1.3552181e-23)
(0.01055605 2.9476307 -1.8175118e-18)
(0.016837757 2.9848975 0)
(0.013431628 2.8938527 0)
(0.017535857 2.9241787 2.9112994e-24)
(0.01382113 2.8183251 0)
(0.01727633 2.910935 0)
(0.010886018 2.7551757 0)
(0.24389653 3.6049715 0)
(0.17368701 3.5397675 0)
(0.12902108 3.2909615 -3.0292464e-19)
(0.046787501 2.9882121 0)
(-0.019848723 2.2778436 0)
(-0.014199928 2.3368422 -1.8600595e-20)
(-0.0094177857 2.1361668 1.2584998e-21)
(0.21079262 0.046926726 -5.6248347e-19)
(0.046172071 -0.0015920281 -5.3315064e-19)
(0.24788733 0.039750848 -1.7244645e-18)
(0.10053341 0.01524999 -1.1566945e-18)
(0.17924947 1.1643307 0)
(0.30063562 1.6151542 -6.3911825e-19)
(0.37349106 1.5566288 1.0615524e-18)
(0.53758072 0.040911744 0)
(0.32961664 0.031270868 0)
(1.2189887 -0.0012895356 0)
(0.73682153 -0.035138204 0)
(0.64557091 0.017455144 -3.0965909e-18)
(0.64934095 -0.025625416 2.4245749e-18)
(-0.0022731638 1.1771266 0)
(0.0038597641 0.91577137 0)
(-0.044165968 1.4174197 0)
(-0.021307314 1.2188941 0)
(-0.015356203 0.9059636 0)
(-0.067963426 0.18954984 3.9395877e-19)
(0.11485298 0.10297929 0)
(0.50864092 0.021306352 0)
(0.24677347 0.014608269 0)
(0.18035057 0.0093863088 0)
(0.13715711 -0.010337041 0)
(0.074282315 0.018063734 0)
(0.91226342 0.053939528 0)
(0.056407966 0.041011235 0)
(-0.095056005 -0.061820269 2.0636823e-18)
(0.0011541148 2.8580299 1.0667411e-18)
(0.020392078 2.9009099 0)
(0.033072815 2.8785747 0)
(0.014959844 2.7062507 0)
(-0.010521604 2.985669 1.1795006e-18)
(-0.0091707573 2.8905059 0)
(-0.01179613 2.9907286 -3.6245635e-18)
(-0.0096034968 2.9158251 1.2402978e-18)
(-0.021664396 1.8423008 0)
(-0.0079327537 1.8543318 0)
(-0.0070897691 2.321739 2.7393518e-22)
(-0.0059208642 2.2911792 0)
(-0.0077223479 2.0950848 0)
(0.64155275 0.020086301 0)
(0.32537504 0.011936832 0)
(0.23345819 0.03063368 0)
(0.61260593 0.0035153544 0)
(0.29469987 0.015795756 0)
(0.5082359 1.0706324 -4.2552399e-19)
(0.54053658 1.1065428 0)
(0.40678771 0.88336946 5.5207016e-20)
(0.31122909 0.66004618 0)
(1.1632181 1.3114619 -2.8943268e-19)
(1.1427179 1.1056072 5.701094e-19)
(0.49363707 1.6836623 0)
(0.68782766 1.674732 0)
(0.56231604 1.5740139 0)
(0.15643951 0.26954462 -4.4877284e-19)
(0.27062382 0.10825417 0)
(0.15199779 0.065916016 3.3333199e-19)
(1.2657492 1.1312642 0)
(1.346699 0.93751811 0)
(1.2168819 0.92322795 -4.7605214e-19)
(1.411012 0.74223345 0)
(1.329118 0.5733053 6.1176629e-20)
(0.58756547 0.023464664 0)
(0.54992722 0.013888098 0)
(0.26892622 0.0107438 0)
(0.52897053 0.0091931019 0)
(0.53913407 -0.012519383 0)
(0.25837656 0.0078971561 0)
(1.498377 -0.0012093155 0)
(1.8698378 -0.0010162714 0)
(1.7318228 0.00083941145 0)
(0.04046561 2.2547498 4.5240896e-19)
(0.049897051 1.9541223 0)
(0.032084203 2.3446104 7.219534e-19)
(0.019185666 2.0913787 -5.9822008e-19)
(0.13803423 1.4688956 -4.9144295e-19)
(0.060015992 1.3404398 0)
(0.078826003 1.2621947 0)
(0.0016833735 1.2449901 0)
(0.0019569403 0.97752179 0)
(-0.0057883323 2.4141704 -7.8738441e-22)
(0.00089341445 2.2225936 0)
(0.00063193773 2.4152496 -4.0044759e-20)
(-0.0019848753 2.2214751 6.4284163e-20)
(0.0019086251 1.2350439 0)
(0.0066791968 1.2214179 0)
(0.0047042828 0.97573233 0)
(0.0055142186 1.202709 0)
(0.0031112824 0.91850625 0)
(0.82776959 0.043726294 0)
(0.54733684 0.023993916 0)
(0.7673969 0.036400257 0)
(0.42366468 0.01111391 0)
(0.18157785 0.00061164822 0)
(0.34025697 0.020573458 0)
(0.29026734 0.049595979 0)
(0.16545662 0.0083877915 0)
(0.0036682501 3.0720137 -1.0891146e-20)
(0.010773337 3.0616282 0)
(0.016160009 2.9688229 0)
(0.013247132 2.867748 0)
(0.71884921 4.1787773 0)
(1.2112049 3.2485017 8.5212894e-19)
(0.068193738 3.1219182 0)
(0.028053738 2.8977812 0)
(-0.014936391 1.8532191 0)
(-0.020947776 2.0892735 0)
(-0.018187492 1.9536223 0)
(-0.020168741 2.7549389 -1.136298e-20)
(-0.016042727 2.4615094 0)
(-0.017829578 2.6049643 0)
(-0.0033693832 2.1617787 2.7278965e-21)
(-0.0077375511 2.3893815 6.4255297e-21)
(-0.0089417413 2.3657725 -1.3174814e-21)
(-0.0066747324 2.143737 0)
(0.20597127 0.014799802 8.1136917e-19)
(0.0031932122 -0.0081737935 -8.0509207e-19)
(0.3040678 1.7050714 0)
(0.20719307 0.94614732 -3.7895675e-19)
(0.224932 1.8458881 -1.1735724e-18)
(0.13713731 1.4034972 1.1774576e-18)
(0.29857922 0.00037372857 0)
(0.48952404 0.0029295796 0)
(0.49751861 0.021055638 0)
(0.30832474 0.00875809 0)
(0.004954378 1.191951 0)
(0.0042792103 1.179291 0)
(0.0042758898 0.91339581 0)
(0.20594348 0.14989531 1.1040476e-18)
(0.14849975 0.15226369 -1.3042191e-18)
(0.14901804 0.12105575 0)
(1.2380986 0.14182104 2.4550081e-20)
(1.1208288 0.11698936 0)
(1.0876614 0.095597994 0)
(0.74167187 0.035107564 0)
(0.18983959 -0.024779068 0)
(0.13765682 -0.053963395 -3.3452473e-18)
(-0.070173051 -0.0095310882 1.294622e-18)
(0.0021019132 2.9837914 1.0665044e-18)
(-0.0038141634 2.8637914 4.4950931e-20)
(0.0038296661 3.0539664 -2.2801962e-20)
(0.012748039 3.0472394 8.2093365e-19)
(-0.0094035312 2.9952508 4.0311407e-20)
(-0.0083927513 2.9361629 -1.6183863e-22)
(-0.01316236 3.0201634 -7.5985727e-19)
(0.0012120421 3.0231383 5.4768426e-19)
(0.0066716757 3.0398359 -8.2152427e-19)
(0.73133333 0.028647636 0)
(0.69189138 0.031492699 0)
(0.3674942 0.016491717 0)
(0.46717564 0.015535931 0)
(0.42845901 0.047086662 0)
(0.28878001 0.0085494639 0)
(0.36997255 0.0042027085 0)
(0.38166615 0.020046403 0)
(0.20135564 0.0065525567 0)
(0.69146905 1.3523104 -1.5941742e-19)
(0.75851872 1.432957 0)
(0.1630995 0.34343287 1.0812718e-19)
(0.34134174 0.76921538 8.2054493e-19)
(0.35803866 0.79425357 -4.8010819e-19)
(0.22119068 0.46421472 9.3635041e-19)
(0.42595589 0.98139281 2.2823431e-18)
(0.17289727 0.35822142 5.0271166e-19)
(0.26661178 0.071970156 1.222667e-18)
(0.27252461 0.10274933 3.2623056e-19)
(0.12902258 0.03477031 6.1776992e-19)
(1.4455111 0.56044595 2.3340459e-19)
(1.3175887 0.39848527 2.0091809e-19)
(0.021954298 2.4003769 2.6768771e-19)
(0.0097549542 2.1620388 0)
(0.98090013 0.065471322 0)
(0.89545946 0.053944497 0)
(0.64100677 0.030622494 0)
(0.0099811321 3.0770336 0)
(0.016934175 2.9388213 1.6000524e-18)
(0.016524474 2.953743 0)
(0.013491309 2.8434265 -1.5972172e-18)
(0.0093986688 3.091813 3.6613999e-19)
(0.0036466761 3.0887873 0)
(0.84759151 1.718683 -8.0949335e-20)
(1.1100607 2.32367 1.3142496e-20)
(0.82701471 1.834461 -7.5600728e-19)
(0.013365481 2.9952545 -9.7836629e-19)
(0.033653115 3.0321175 0)
(0.011507629 2.8690893 0)
(-0.010282718 2.3960223 -2.3317898e-20)
(-0.0049584206 2.4006715 -9.6955466e-21)
(-0.0020926792 2.2006862 -4.5676111e-22)
(0.34298028 1.5432356 1.1997608e-18)
(0.21349286 0.76858942 -8.2363254e-19)
(0.087877559 2.165058 8.1724877e-19)
(0.1662693 2.0255665 -1.0062351e-18)
(0.082604489 1.6908883 1.2518922e-19)
(0.013435003 3.1145761 -2.4212737e-18)
(0.016259246 3.1195842 2.7409903e-18)
(-0.0088398262 2.9800666 1.1271895e-18)
(-0.0057295687 2.9767869 -1.1067006e-18)
(-0.007754892 2.8755753 -1.148287e-18)
(0.0043776889 3.1054979 -2.8471291e-18)
(0.0092408073 3.1049946 2.8270137e-18)
(0.3882049 0.84990828 0)
(0.34409803 0.78355671 -1.8439763e-18)
(0.13933204 0.2834651 8.1929056e-19)
(0.4172577 1.1006538 1.4352101e-18)
(0.19641456 0.45180969 -2.2310998e-18)
(1.3758527 0.22876584 3.4826449e-20)
(1.4389227 0.3854958 0)
(1.2685879 0.23936022 4.4036468e-20)
(0.0059773752 2.4244745 -1.7130111e-21)
(0.0065778065 2.4128513 0)
(0.0035327317 2.1976745 0)
(0.39267993 1.4106028 -4.3258359e-19)
(0.42452836 1.2692122 -9.7337408e-19)
(0.20373451 0.58874707 1.7580934e-18)
(1.1922793 0.0081198618 0)
(1.3374675 0.0037539886 4.8947641e-19)
(-0.02770075 1.8099155 0)
(-0.042098972 1.8352865 0)
(1.5122355 0.00091790004 5.0887485e-21)
(1.0979801 0.015705295 1.1086477e-18)
(-0.017641107 2.7601821 1.473555e-20)
(-0.016678081 2.8025436 0)
(0.058029719 3.1743482 7.8677028e-19)
(0.51974545 3.5296763 0)
(1.6037511 0.91592723 -3.6279524e-20)
(1.2672211 0.015201984 2.2920691e-20)
(1.3762319 0.029017439 0)
(1.9988414 0.011297556 1.0608475e-20)
(0.084791441 1.8323001 0)
(0.12380032 2.7629548 0)
(0.0095628615 1.7692723 0)
(0.0004134239 2.8397795 3.2899361e-20)
(-0.02241386 2.7859276 1.4420303e-20)
(1.2373622 0.040271555 2.3039447e-20)
(1.4832076 0.067400747 0)
(1.5520304 0.10416427 0)
(-0.022563089 2.1082063 0)
(-0.01402665 2.7983504 0)
(-0.007660252 1.7940267 0)
(0.36226877 1.9766941 -3.2018579e-19)
(1.2999499 0.012565615 0)
(1.094753 0.010938431 0)
(1.9714319 0.014517747 6.4257839e-19)
(1.6588375 0.018298894 -7.3217245e-19)
(1.9059191 0.012466506 0)
(-0.018176571 1.928624 0)
(-0.020416454 1.8266826 0)
(-0.017408572 1.877929 0)
(-0.011640054 1.7864742 0)
(-0.0152042 1.7707827 0)
(-0.019127315 1.7784784 0)
(1.4252036 0.046180423 0)
(1.2718343 0.031728467 2.0479365e-20)
(1.077061 1.7301337 4.8076161e-19)
(1.9564446 0.0049265002 -6.566058e-19)
(1.706287 -0.0021774095 7.9074734e-19)
(1.8969106 -0.0039663125 0)
(1.3003634 0.0071626287 6.6318492e-19)
(1.1761391 0.0033123563 -8.2619285e-19)
(0.92015563 0.020870633 0)
(-0.01798648 2.8348945 0)
(-0.019706838 2.8079377 -1.2226511e-20)
(-0.016976526 2.8270894 7.2351254e-21)
(1.734677 0.38979833 5.6060125e-19)
(1.6687498 0.18364042 0)
(0.0705009 3.0560217 -1.4481388e-18)
(0.041806229 2.8537404 -1.0085158e-19)
(0.17367403 3.1784088 2.2169427e-18)
(0.16030674 3.24055 -3.5132304e-19)
(0.15719391 3.2807125 0)
(0.029793154 3.1338141 4.1293542e-19)
(0.080238362 3.1730268 1.4231718e-18)
(0.076711207 3.1973211 -7.6882758e-19)
(0.046531823 3.109918 0)
(0.62133274 0.26406715 0)
(0.5679985 0.32963637 0)
(1.5750076 0.99324536 4.2798271e-20)
(1.5094945 1.1300853 2.4595207e-20)
(1.6774372 0.80691719 0)
(1.6715194 0.73312687 0)
(1.2681958 0.023453589 -1.3252058e-18)
(1.0748733 0.018545944 1.6997956e-18)
(1.4007754 0.026217684 0)
(1.2365976 0.024473053 0)
(2.0037251 0.020711984 0)
(1.8757197 0.011757966 0)
(1.9361121 0.013963654 0)
(1.7246267 0.0015477492 0)
(1.6640972 0.0036502883 0)
(1.7966328 0.0031168793 0)
(0.070688107 1.8210119 0)
(0.041754645 1.7956691 0)
(0.12560532 1.8697361 0)
(0.13672408 1.8673871 0)
(0.14565171 2.7871418 0)
(0.1821835 2.8642415 -4.9533374e-19)
(0.10114918 2.8597092 0)
(0.081726477 2.8768662 2.1274502e-19)
(0.027037253 2.8978371 -1.7481023e-19)
(0.0095274634 1.7780142 0)
(0.013274224 1.7420985 0)
(0.0065359069 1.7784075 0)
(0.0084950698 1.7447868 0)
(-0.0014813411 2.2927917 4.4401734e-21)
(-0.02157592 2.8337548 -3.5382333e-20)
(-0.0057440419 2.8842411 2.5958105e-20)
(-0.010243503 2.9136896 0)
(-0.021136916 2.8380636 -3.7197315e-20)
(-0.019764944 2.8335091 3.4246163e-21)
(0.00016331942 2.2885952 1.3533077e-21)
(-0.017770327 2.6072469 4.6719085e-20)
(-0.023190796 2.6442268 -3.2976861e-20)
(1.2891362 0.037774525 1.367276e-18)
(1.0155144 0.035423757 -1.725525e-18)
(1.2263454 0.044346117 -1.4553455e-18)
(1.0771915 0.039449176 1.9047438e-18)
(1.5150435 0.06287865 0)
(1.363728 0.053008978 0)
(1.572075 0.096564676 0)
(1.5287194 0.072571568 0)
(1.3757794 0.064549867 0)
(1.6715844 0.16919645 0)
(1.5952574 0.11656959 0)
(1.4703716 0.10362345 0)
(-0.018480006 2.630448 8.4309678e-22)
(-0.019895151 2.2929868 0)
(-0.017572847 2.458637 0)
(-0.014175372 2.825755 -3.2899786e-21)
(-0.014097835 2.8375352 6.4164053e-23)
(-0.011266033 2.0105506 -2.3596371e-20)
(-0.018277795 1.9518615 2.3787262e-20)
(-0.020617026 1.8470877 0)
(-0.023503448 1.8551772 0)
(-0.023251512 1.8536413 0)
(-0.0053906001 1.79358 0)
(0.0012720139 1.7521843 0)
(0.50685974 2.0039823 5.4112887e-19)
(0.53188342 1.9933192 2.7005951e-19)
(0.58923353 2.6308127 -2.7625847e-19)
(0.38165508 2.7671912 7.1601071e-19)
(0.42558736 2.2546229 1.0109421e-19)
(1.411144 0.027809351 0)
(1.3368452 0.026515867 0)
(1.1475588 0.017741274 0)
(1.9820048 0.023593186 0)
(1.9617058 0.017254941 0)
(1.7260363 0.022538765 0)
(1.6352651 0.021346029 0)
(1.6494435 0.026399941 0)
(1.3215376 0.026863238 1.2805842e-18)
(1.0081945 0.037627791 -1.6283342e-18)
(1.2777419 0.039300144 -1.3474705e-18)
(1.0854616 0.031344492 1.7387124e-18)
(1.0351963 1.7725277 0)
(0.9111697 1.8664107 4.8381437e-19)
(1.1948986 1.6495486 2.354625e-19)
(1.2333506 1.5959374 -3.1371229e-19)
(1.2622266 2.6797418 9.011094e-19)
(0.74007279 0.058843019 8.6071465e-19)
(1.6847283 0.20734533 0)
(1.7393176 0.30558254 -4.3100805e-19)
(1.6494551 0.24964934 -1.7159674e-20)
(1.5550732 0.18328593 0)
(0.20274311 2.9276289 9.9382581e-19)
(0.091196251 2.8158599 -2.1007724e-18)
(0.017332158 2.3940687 1.3038472e-18)
(0.087893192 -0.20144945 -5.971041e-19)
(0.35585818 3.4498043 1.1553476e-20)
(0.22866101 3.3621004 0)
(0.24194572 3.4171977 -1.6263222e-20)
(0.25092426 3.0820538 -2.4403426e-18)
(0.38202925 3.1710138 0)
(0.013038305 3.1197533 7.4538165e-20)
(0.016122497 3.1323613 -7.9426901e-19)
(0.030157455 3.1184934 1.2345461e-18)
(0.036180054 3.1483469 0)
(0.033592505 3.1554425 0)
(1.3353022 2.7693039 0)
(0.77208341 0.99281817 -9.0275107e-19)
(1.3980547 1.3500937 -8.015729e-20)
(1.3291237 1.4585976 0)
(1.2372362 1.3956196 -1.6577323e-19)
(1.4688004 1.2289117 3.784345e-20)
(0.30401919 0.39260041 -1.4805632e-18)
(0.70438923 0.27957579 -1.96612e-20)
(0.55107779 0.1756309 7.075528e-19)
(0.58841811 0.37303783 5.1704944e-20)
(0.46590848 0.31069477 -2.1116173e-18)
(0.66369121 0.30259697 0)
(0.86195273 0.46009589 1.1860161e-18)
(0.85955903 0.42834526 0)
(0.64283638 0.3426649 0)
(0.51997413 0.24161186 0)
(1.2446609 0.85796733 7.0572772e-19)
(1.7448175 0.42653212 -5.1704688e-19)
(1.7320354 0.60492812 0)
(1.7153524 0.53180766 0)
(0.6842963 0.14879991 1.0140807e-18)
(1.2472308 0.72201363 -6.6336567e-19)
(1.0106698 0.62562874 1.2018956e-18)
(1.4740944 0.56571679 -1.1840476e-18)
(1.2411987 0.020351947 8.7716763e-19)
(1.2242521 0.020866227 -9.093035e-19)
(0.97775599 0.017825519 0)
(1.4550138 0.045732663 0)
(1.3939613 0.034843555 -7.6171456e-19)
(1.2054863 0.024350288 7.523717e-19)
(1.8298655 0.037936497 0)
(1.6987727 0.025257403 0)
(1.9094044 0.012413958 0)
(1.6706357 0.01897491 0)
(1.9573506 0.028271259 0)
(1.9413165 0.024193932 0)
(0.032207768 1.7945719 0)
(0.018409321 1.764723 0)
(0.16519538 1.87862 4.8248061e-20)
(0.33955796 1.9637842 1.7185517e-19)
(0.20055718 1.9287841 3.8920672e-19)
(0.23393632 1.9377365 -6.2321902e-19)
(0.21376565 1.9103946 0)
(0.19613752 2.0578224 -5.9596211e-20)
(0.17023211 2.0429566 0)
(0.39295462 2.2147414 -1.4006889e-19)
(0.36353006 2.4967284 6.8836966e-19)
(0.25935191 1.9987228 5.341356e-20)
(0.32663608 1.931766 6.5084191e-20)
(0.26741737 1.9225814 -5.3036518e-20)
(0.38813751 1.9172978 -1.0273372e-19)
(0.30636755 2.0389288 0)
(0.36156107 2.0443065 1.1307119e-19)
(0.040410168 2.5119092 -3.1371921e-20)
(0.033897055 2.8884182 0)
(0.070030914 2.6099982 1.4815392e-19)
(0.059319225 2.6166411 0)
(0.059547346 2.8978126 -2.3675981e-19)
(0.044445652 2.9383919 0)
(0.0082770533 1.8632169 2.7846897e-20)
(0.01450503 1.9274048 0)
(0.01341191 1.8331154 0)
(0.0079152498 1.8184901 -3.1596466e-20)
(0.0035065048 2.8710683 -2.1904835e-21)
(0.014190142 2.9026571 2.0057017e-19)
(0.0066261446 2.9383484 1.4116591e-21)
(-0.0044786631 2.1762688 -5.7867928e-22)
(-0.0068729728 2.0831551 -4.8862451e-21)
(0.01314465 1.7712018 0)
(0.013930553 1.7348633 0)
(0.039266272 2.0327738 -9.7114559e-22)
(0.017989559 1.8864523 -3.8394368e-20)
(0.023978393 1.9623414 3.6169118e-20)
(0.047776534 2.0507743 0)
(-0.035991473 2.4926978 4.0136192e-20)
(-0.031113229 2.7349897 -1.7277478e-21)
(-0.031210126 2.6562418 -1.7378639e-21)
(-0.0062172171 2.1780034 6.8469581e-22)
(-0.027674482 2.6867289 -2.0196874e-21)
(-0.027831752 2.6591724 2.9798324e-20)
(1.2237461 0.03353485 -9.3345253e-19)
(1.2310695 0.027245724 9.2532318e-19)
(0.97852187 0.026884288 0)
(1.5233455 0.093103022 1.4300122e-18)
(1.1701493 0.042718313 -1.5724406e-18)
(1.0922673 0.035867948 1.7728941e-18)
(1.5482444 0.12443462 -1.9399267e-19)
(1.4470855 0.04605182 0)
(1.4629953 0.053221239 7.5487697e-19)
(1.3302725 0.043860947 -7.4905018e-19)
(1.7433721 0.11567005 -4.5084462e-20)
(1.7090493 0.094238783 3.9074757e-19)
(1.8381964 0.12274697 0)
(1.8915682 0.11979596 -1.5079126e-19)
(1.7556461 0.069193583 0)
(1.6245246 0.055244557 0)
(1.8595314 0.038906673 0)
(1.6604588 0.039207855 0)
(1.8844919 0.079531689 3.0305132e-19)
(1.8632246 0.0616845 -6.4802765e-19)
(1.8794986 0.10329287 -3.06205e-19)
(1.879508 0.09807775 -3.5652529e-19)
(1.8639068 0.14535789 6.9094733e-19)
(1.7352866 0.13887385 0)
(1.7849117 0.18910626 0)
(-0.029574352 2.4893232 5.2359394e-20)
(-0.021330344 2.3044441 2.0739966e-22)
(-0.022533564 2.299579 0)
(-0.02763493 2.671717 -5.3813646e-20)
(-0.02020517 2.6314084 -9.9503954e-22)
(-0.024235223 2.664107 4.254875e-21)
(-0.021076317 2.847404 -1.5955445e-21)
(-0.019784182 2.7624507 -1.6019426e-21)
(-0.023312879 2.7299738 -2.1741958e-21)
(-0.01377321 2.8382022 -1.2726537e-21)
(-0.020702934 2.8399706 3.2680738e-21)
(-0.01427139 1.9236223 -2.26219e-21)
(-0.0033526713 2.0324588 -1.9772852e-20)
(0.52370938 1.9863547 -2.3047422e-19)
(0.48408462 1.9351667 6.6625259e-20)
(0.87289006 1.9131739 -4.6922157e-19)
(0.69063443 1.9907738 -2.6087203e-19)
(0.72932434 1.9561837 0)
(0.63981891 2.589227 2.5623845e-19)
(0.69522329 2.6080853 4.034262e-19)
(0.44811718 2.6933602 1.1142968e-19)
(0.46005035 2.6862508 -7.1757997e-19)
(0.54417913 2.6158288 6.9399071e-19)
(0.55172293 2.64699 0)
(0.48283468 2.7107011 -6.384076e-19)
(0.22876083 2.7839489 1.2688048e-18)
(0.33541422 2.7671829 -5.0064016e-20)
(0.26967151 2.8605287 -1.7428837e-18)
(1.0224639 2.5197792 1.0777571e-18)
(0.88883835 2.5408951 0)
(1.9569106 0.03099628 2.5151249e-20)
(1.6639202 0.028782692 -2.1509016e-20)
(1.684657 0.028715412 -3.7740114e-19)
(1.8850584 0.036755332 3.7824541e-19)
(1.9917088 0.038237931 0)
(0.95774635 1.7794753 0)
(0.96142654 1.685924 0)
(1.1490737 1.5910256 0)
(0.98975159 1.5835699 0)
(1.2686996 2.7102917 5.3268253e-21)
(1.1831412 2.5441492 0)
(0.9278892 2.2235365 6.87715e-21)
(0.87569045 2.4974705 0)
(0.99027558 2.568664 -5.7598178e-19)
(1.0174777 2.5569964 3.9326596e-19)
(0.74712602 0.10054396 0)
(0.70203132 0.10139412 2.4130627e-19)
(1.0598986 0.11765205 1.3091296e-18)
(0.78982091 0.064888503 -5.2914824e-19)
(0.74153851 0.011933132 -1.5020161e-18)
(1.7605169 0.35605934 -1.10776e-18)
(1.5929855 0.42431096 -3.0035476e-20)
(1.2806639 0.33171889 1.3564285e-18)
(1.5580567 0.30367945 1.0880085e-18)
(1.3017429 0.17515724 -1.7599023e-18)
(1.2385199 0.18861875 2.2422419e-19)
(1.272857 0.2596405 -5.022457e-19)
(1.2756764 0.22869625 0)
(1.5516949 0.22347536 8.6328415e-19)
(1.6893666 0.26675903 0)
(1.6835023 0.31727541 0)
(1.75944 0.22797129 3.3711562e-19)
(1.8238528 0.28092727 -2.2856385e-20)
(1.7970075 0.35474094 -1.9516851e-19)
(1.771982 0.32597268 0)
(1.576793 0.061680716 7.3841961e-19)
(1.8437886 0.10510585 8.8971731e-19)
(1.7898474 0.079233276 -7.0170309e-19)
(1.7890056 0.12298604 -6.0590697e-19)
(1.5674651 0.093032154 -1.0250661e-18)
(1.4190404 0.14223296 0)
(1.4419148 0.13237201 0)
(1.1189111 0.052352552 -6.4179483e-19)
(0.99379568 0.045445912 2.6243181e-19)
(1.7127068 0.1510456 8.8492049e-19)
(1.8434874 0.21989627 -9.9589011e-19)
(1.8115732 0.23195592 9.1484783e-19)
(1.7392011 0.21469724 0)
(1.8363999 0.18515759 0)
(1.8626876 0.16541729 -3.9200991e-19)
(1.8208253 0.15570604 -7.2170932e-19)
(0.73638212 1.435182 2.8346778e-19)
(0.80423848 1.7696943 -3.08297e-19)
(1.1697756 2.740564 -3.5064868e-19)
(1.2846638 3.1001441 6.9747847e-20)
(1.3295214 2.790926 -7.0556754e-19)
(1.378868 2.8563107 1.1212549e-19)
(1.2504267 2.5300529 2.3325697e-20)
(1.3177744 3.0219367 -2.6952482e-19)
(1.3286012 3.0416217 5.0224341e-19)
(1.3000052 3.3049286 -3.5729882e-20)
(1.4135021 3.0707552 3.6899154e-20)
(1.4269252 2.9985008 0)
(0.77404704 1.0722747 -8.4335144e-20)
(0.2032816 1.2939471 8.748055e-19)
(0.66005915 0.54805908 9.8725771e-19)
(0.44543549 0.13102571 1.0887224e-18)
(0.50974051 0.37142728 1.1918726e-18)
(0.6409884 0.50613813 -1.9636407e-18)
(0.62661925 0.50297341 1.5943629e-18)
(0.51979373 0.39696209 -6.0232564e-19)
(0.3499522 0.28948692 1.3691893e-18)
(0.72390053 0.19875694 -5.7414544e-19)
(0.69143984 0.22205971 0)
(0.56512517 0.15914118 9.2737725e-21)
(0.9367672 0.60855223 6.3438465e-19)
(0.86999348 0.52954634 -2.3143966e-18)
(0.70260204 0.51151142 1.2087436e-20)
(0.71535783 0.49287272 0)
(0.95752433 1.0193689 7.109428e-19)
(1.2667646 1.1193567 6.2436154e-19)
(1.1621562 1.2376454 -7.1890153e-19)
(1.333911 1.156311 -2.4043758e-19)
(1.3919325 1.2294214 -4.9035678e-20)
(1.3718705 1.2240303 4.9480467e-20)
(1.3549918 0.92855251 -1.1554974e-18)
(1.3958072 1.0399482 2.2573592e-19)
(1.4898298 1.0499842 0)
(1.5180902 0.99938022 -2.8251157e-19)
(1.6504497 0.45909006 3.2501761e-19)
(1.7620652 0.45804779 3.3069078e-19)
(1.7571129 0.42410726 4.7183137e-19)
(1.6370732 0.55172802 -6.5621665e-19)
(1.6600203 0.6198279 0)
(1.6927291 0.59614532 0)
(1.256836 0.46015071 2.7150098e-20)
(1.0805448 0.31015461 0)
(1.1538527 0.28994625 6.5901099e-19)
(1.2627868 0.34191092 -1.5208776e-20)
(1.4711274 0.61314041 3.0679696e-18)
(1.3778557 0.71208886 8.6484506e-19)
(1.3426898 0.61287856 -9.8043416e-19)
(1.094203 0.53322436 1.0700582e-18)
(1.0436704 0.52607598 6.3361083e-19)
(0.97102487 0.46082783 -6.2158154e-19)
(1.6862503 0.044601979 6.3471286e-19)
(1.9531885 0.042912314 0)
(1.9209412 0.04873788 4.3238367e-19)
(1.7049109 0.044551831 -9.652622e-19)
(1.9376939 0.042939263 4.8283588e-19)
(1.8735146 0.02687366 -1.0261922e-18)
(1.6871651 0.027963398 0)
(1.5711196 0.030678527 -2.1569148e-19)
(1.8389788 0.023080147 5.3667532e-19)
(1.6645275 0.02408885 -2.7777922e-19)
(1.6007402 0.030413167 2.03639e-19)
(0.0073628845 1.7709684 0)
(0.012006178 1.8052272 0)
(0.014658262 1.7756735 0)
(0.0086543503 1.7474213 0)
(0.061375568 1.8526012 -1.1869733e-19)
(0.074190732 1.8362294 4.6639508e-20)
(0.14432424 1.9818832 -6.1479517e-21)
(0.12443577 1.8849641 -2.441645e-20)
(0.026404733 1.9009238 4.3375199e-20)
(0.029875463 1.9000719 -3.3757498e-20)
(0.052211996 1.8355182 -1.8549969e-20)
(0.038183946 1.8248574 9.1390663e-20)
(0.025227016 1.8038606 1.3474565e-20)
(0.016543816 1.818704 6.6383023e-21)
(0.099075648 2.5529292 -1.5920206e-19)
(0.10426794 2.582861 0)
(0.17592138 2.3097382 1.0937482e-19)
(0.16296416 2.1266869 5.3201633e-20)
(0.29344067 2.2645829 -1.0326445e-19)
(0.23835765 2.60059 0)
(0.28268972 2.5875884 -6.6403027e-19)
(0.33585223 2.4774777 4.7761712e-19)
(0.25184129 2.2375965 -2.53431e-19)
(0.19460616 2.3853027 1.8113046e-19)
(0.17772903 2.495333 0)
(0.016952303 2.2574837 -3.7225178e-20)
(0.015625943 2.6203433 -6.8828845e-20)
(0.010427943 2.3991995 0)
(0.015688804 2.6771393 -1.5792059e-20)
(0.034696693 2.5191959 3.0732976e-20)
(0.0027374252 1.8413718 -7.057112e-21)
(0.004393161 1.8341457 1.1570849e-19)
(0.0060570858 1.8448709 -3.6040277e-20)
(0.0064932199 1.84453 -3.7184168e-20)
(0.0091102837 1.8706471 0)
(0.0023619774 1.822862 0)
(0.0032278182 1.7782531 -4.7350613e-20)
(-0.0002987403 1.8230258 1.3207686e-20)
(0.0023530414 1.8218612 0)
(0.010019157 1.76936 -3.4974117e-20)
(0.008514537 1.7376873 7.2384311e-20)
(1.6755684 0.061634605 0)
(1.6674907 0.063447212 -6.9486313e-20)
(1.9512169 0.072126709 -5.4098491e-19)
(1.8399018 0.079607659 0)
(1.6945991 0.069339612 0)
(1.9152995 0.060201922 -2.9898227e-21)
(1.9168379 0.059655223 8.2498385e-19)
(1.7838157 0.046404579 1.0532823e-18)
(1.6555778 0.042646116 0)
(1.5769473 0.050207876 0)
(1.7733475 0.059720619 5.3360673e-19)
(1.6134052 0.060304521 0)
(1.5742839 0.0478803 0)
(-0.021863078 2.2990458 0)
(-0.0064853054 2.0609045 -8.9706843e-21)
(-0.016637118 2.1843111 -1.5950138e-20)
(-0.0021652936 1.8361232 0)
(-0.013695183 1.9719434 -1.5529409e-20)
(-0.012758905 1.9035615 8.8350485e-21)
(-0.0070977449 1.8410491 0)
(0.50672603 1.89578 0)
(0.49918389 1.8412321 -1.7040523e-19)
(0.43797886 1.7651245 0)
(0.60385882 1.8689857 4.7802033e-20)
(0.66825353 1.9824538 0)
(0.61955683 1.9532247 3.6532816e-20)
(1.1075619 2.7646606 -2.2359531e-20)
(1.0424666 2.5360963 -1.2403685e-18)
(1.0418365 2.4342915 1.4274275e-18)
(0.91966606 2.5254726 3.4904737e-19)
(0.90565233 2.5700937 0)
(0.97136498 2.549355 0)
(0.99685053 2.5242951 0)
(0.97631981 2.5274639 -1.2653887e-18)
(0.73742393 2.5133313 -5.7187078e-19)
(0.85654948 2.5383216 -1.3467174e-19)
(0.85867308 2.4902179 1.0777372e-19)
(0.74504702 2.5662417 0)
(0.84561148 2.5540338 0)
(0.8006617 2.5792218 -4.4425524e-19)
(0.80157902 2.5668155 0)
(0.92238205 1.5126003 0)
(0.70694232 1.1845032 -8.866416e-19)
(0.81849708 1.2439262 -5.3573691e-20)
(0.75766655 1.3501593 0)
(0.72921067 1.2834163 1.3534986e-18)
(1.1787986 1.2853792 -1.9861569e-19)
(1.1587657 1.4345785 0)
(1.1779346 1.3816088 2.8725548e-19)
(0.9833084 1.4600342 0)
(0.99552831 1.3288392 0)
(1.2407318 2.7850697 -3.9586825e-19)
(1.2006134 2.8229014 -2.9397862e-19)
(0.99182416 2.3216927 5.1494112e-19)
(0.99366749 2.3554649 -1.6986841e-19)
(1.2135986 2.7737349 0)
(1.1719262 2.7278813 2.1535281e-19)
(1.1964771 2.6129188 -3.8011775e-19)
(1.1130756 2.4650813 -2.758752e-20)
(0.67969708 1.6458317 0)
(0.70335993 1.465318 -2.4948339e-19)
(0.81955042 1.6277788 0)
(1.0739069 0.22837955 0)
(0.71761359 0.12165606 0)
(0.53564038 0.09109262 0)
(1.0554102 0.23247936 -1.0279976e-18)
(0.7549282 0.15658637 5.9515163e-19)
(1.0147858 0.041811184 -5.2082267e-19)
(1.131062 0.10189354 0)
(1.1115316 0.11002296 2.2984734e-19)
(0.83811923 0.031272669 9.2401924e-19)
(0.74252627 0.019656579 -5.8452879e-19)
(1.3033014 3.4287576 -2.3944195e-19)
(1.2896459 3.3613734 0)
(1.3216582 3.3854486 -5.8536476e-19)
(0.518971 3.4925007 5.4681437e-19)
(0.7550332 3.0266021 -4.0724838e-19)
(0.64896734 1.0102579 1.0375519e-18)
(0.60459662 1.0495918 0)
(0.4552147 0.45990333 -2.7195896e-19)
(0.61588549 0.85145395 1.4987448e-18)
(0.66144002 0.43875978 -3.5649469e-19)
(0.59353926 0.59453875 4.1714416e-19)
(0.79107501 0.59859255 8.6179442e-19)
(0.88944915 0.65142779 0)
(0.83634446 0.72499693 0)
(0.73091022 0.64544263 0)
(1.5452535 0.87655197 7.9152454e-20)
(1.423405 0.78774142 -8.2117883e-19)
(1.4342906 0.83898446 6.1213844e-19)
(1.4991575 0.73966302 -6.1706669e-19)
(1.637133 0.74066738 0)
(1.6438762 0.81096007 -1.3847763e-19)
(1.0916023 0.47568372 -1.4027989e-18)
(1.1277427 0.47139045 -1.6666154e-18)
(1.0092006 0.42008696 1.0986326e-18)
(1.0022593 0.38474602 -1.1130205e-18)
(1.0785925 0.34437333 -8.6269578e-19)
(0.97311381 0.32375035 1.0711137e-18)
(1.9199762 0.044127924 -5.1449673e-19)
(1.9504955 0.047054605 1.039882e-18)
(1.6918981 0.045366445 6.4327118e-19)
(1.709128 0.051899763 -7.6528315e-19)
(1.8042415 0.062497334 0)
(1.9522379 0.061158827 -1.3410185e-18)
(0.075117147 2.1026851 1.5169237e-20)
(0.06407021 2.0388567 0)
(0.11239676 2.0963309 2.0946945e-19)
(0.12822364 2.0895172 -1.9140452e-19)
(0.10487072 2.003748 1.087472e-20)
(0.088103409 1.9920601 0)
(-0.0025748743 2.0867791 0)
(-0.0049443104 1.9148666 6.1450832e-21)
(-0.0048308807 1.8838108 -5.5601647e-21)
(-0.013920407 1.9718866 5.1816652e-21)
(-0.013230511 2.2219318 8.1210255e-21)
(-0.013068129 2.2439424 1.6525624e-21)
(0.68981905 1.6997657 -5.8194829e-19)
(0.64485224 1.7241695 6.144319e-19)
(0.63932493 1.8368293 -4.4293373e-20)
(0.61229588 1.7122777 1.9951631e-20)
(0.89218915 1.8243953 0)
(0.75886954 1.9271459 2.0955143e-19)
(0.81606305 1.91786 -2.0343811e-19)
(0.69756799 1.8758368 4.3971035e-20)
(0.7551443 1.7591243 0)
(0.82021992 1.7323212 0)
(0.71592788 2.4867171 8.3734289e-19)
(0.71149579 2.5610832 1.5093093e-18)
(0.75818603 2.5565573 -1.0845607e-18)
(0.63083258 2.5693354 -2.2440139e-19)
(0.62125815 2.6166415 3.7268196e-19)