/*--------------------------------*- C++ -*----------------------------------*\
  =========                 |
  \\      /  F ield         | OpenFOAM: The Open Source CFD Toolbox
   \\    /   O peration     | Website:  https://openfoam.org
    \\  /    A nd           | Version:  9
     \\/     M anipulation  |
\*---------------------------------------------------------------------------*/
FoamFile
{
    format      ascii;
    class       surfaceScalarField;
    location    "0.73";
    object      alphaPhi0.phase1;
}
// * * * * * * * * * * * * * * * * * * * * * * * * * * * * * * * * * * * * * //

dimensions      [0 3 -1 0 0 0 0];

internalField   nonuniform List<scalar> 
19800
(
-1.099686e-87
7.8827362e-88
-1.7186532e-86
1.6718669e-87
-7.7893723e-85
1.030058e-85
-1.5174864e-84
6.8026037e-85
-1.1097481e-84
8.4749069e-85
-2.6021876e-85
3.4432225e-85
-2.59837e-85
9.5613321e-86
-1.8384151e-84
8.9250823e-86
-3.5179084e-84
3.2644032e-85
-2.953501e-82
3.5206158e-83
-3.366282e-80
3.7122558e-81
-3.4391143e-78
3.5259731e-79
-3.1984135e-76
3.0549139e-77
-2.7259121e-74
2.4363089e-75
-2.1368243e-72
1.7936022e-73
-1.5476268e-70
1.2229655e-71
-1.04032e-68
7.7537418e-70
-6.5162203e-67
4.586919e-68
-3.8163497e-65
2.5397748e-66
-2.0961602e-63
1.3195888e-64
-1.0825553e-61
6.4469141e-63
-5.2690066e-60
2.9678777e-61
-2.4213086e-58
1.2896322e-59
-1.0500864e-56
5.2927969e-58
-4.2903806e-55
2.0518994e-56
-1.6778204e-53
7.5318247e-55
-6.5583783e-52
2.6453376e-53
-2.4375317e-50
8.8473339e-52
-6.8603624e-49
2.5696258e-50
-1.5530954e-47
5.9572103e-49
-4.0796258e-46
1.3548954e-47
-1.3234247e-44
3.7312782e-46
-4.5768864e-43
1.1124724e-44
-1.5701751e-41
3.1990605e-43
-5.289824e-40
8.5032749e-42
-1.7530088e-38
1.9698285e-40
-5.7264376e-37
3.2112674e-39
-1.8677204e-35
-3.4990333e-38
-5.9418636e-34
-1.1024664e-35
-1.8297147e-32
-7.529325e-34
-5.4305706e-31
-3.8067413e-32
-1.5373745e-29
-1.6430157e-30
-4.1112929e-28
-6.3829293e-29
-1.0290937e-26
-2.2866299e-27
-2.3806643e-25
-7.6378131e-26
-4.9779617e-24
-2.387772e-24
-8.9414675e-23
-6.9538783e-23
-1.1773146e-21
-1.8596255e-21
-7.3016516e-21
-4.6446922e-20
2.9330004e-19
-1.1446592e-18
8.433045e-18
-2.2570889e-17
1.0406412e-16
-2.3989653e-16
7.8403024e-16
-1.5744915e-15
3.4466086e-15
-7.7698091e-15
1.078783e-14
-1.8877753e-14
2.1383435e-14
-4.013244e-14
2.6024718e-14
-3.7174431e-14
8.4531631e-15
-4.5945713e-17
2.2161021e-15
0
4.0319795e-16
0
3.9996455e-17
-1.5361642e-18
2.9816292e-18
5.8249314e-19
2.2863299e-19
9.636228e-20
1.7111261e-20
1.1481625e-20
1.1774804e-21
1.1179624e-21
7.3460931e-23
9.2590029e-23
4.1542316e-24
6.6691924e-24
2.1303532e-25
4.2328957e-25
9.9064333e-27
2.3848517e-26
4.1762316e-28
1.1978625e-27
1.5952793e-29
5.3774586e-29
5.5164424e-31
2.1609443e-30
1.7242789e-32
7.7808783e-32
4.8620992e-34
2.5117543e-33
1.233871e-35
7.2701932e-35
2.8103734e-37
1.8860829e-36
5.7279944e-39
4.3807718e-38
1.0412598e-40
9.0943299e-40
1.6821808e-42
1.683321e-41
2.4056371e-44
2.770842e-43
3.0323694e-46
4.0417386e-45
3.3536819e-48
5.2044957e-47
3.2377339e-50
5.8914493e-49
2.7133585e-52
5.8344879e-51
1.9617667e-54
5.0284355e-53
1.215326e-56
3.750386e-55
6.4028637e-59
2.4050073e-57
2.844776e-61
1.3164445e-59
1.0557465e-63
6.1019902e-62
3.2363985e-66
2.3744217e-64
8.0888241e-69
7.6837352e-67
1.6236088e-71
2.045022e-69
2.5705699e-74
4.4154735e-72
3.1419665e-77
7.62597e-75
2.8824442e-80
1.0353946e-77
1.9443778e-83
1.0802285e-80
3.1473161e-85
8.8523341e-84
1.8850025e-85
4.1552576e-85
7.8723786e-86
3.7039923e-85
3.3731318e-85
-8.223205e-88
1.3083781e-87
-1.9359817e-85
6.1483421e-86
-6.4437967e-84
2.784691e-84
-1.5834333e-83
1.6637413e-83
-1.7893688e-83
2.354722e-83
-1.4257337e-83
1.9494975e-83
-5.5654428e-84
1.1812559e-83
-6.6417105e-84
5.1832672e-84
-1.1814521e-82
4.2435949e-83
-1.5606256e-80
5.093185e-81
-1.8428918e-78
5.538618e-79
-1.9545489e-76
5.4424291e-77
-1.8784911e-74
4.8697669e-75
-1.6482479e-72
3.9932305e-73
-1.3287102e-70
3.0180035e-71
-9.8947735e-69
2.1123764e-69
-6.8392616e-67
1.3751343e-67
-4.4059728e-65
8.3568576e-66
-2.6552476e-63
4.7573687e-64
-1.501779e-61
2.5440991e-62
-7.9947358e-60
1.281349e-60
-4.0163283e-58
6.0932949e-59
-1.9072702e-56
2.7410592e-57
-8.5636236e-55
1.1679198e-55
-3.6516107e-53
4.7216331e-54
-1.5046143e-51
1.8199873e-52
-5.9935254e-50
6.7158085e-51
-2.146779e-48
2.3202146e-49
-6.7559801e-47
7.2001738e-48
-2.132023e-45
2.1033182e-46
-7.2127614e-44
6.3845403e-45
-2.4979546e-42
1.9875776e-43
-8.4976564e-41
5.993923e-42
-2.8145166e-39
1.7023794e-40
-9.1005577e-38
4.4638656e-39
-2.8767397e-36
1.0312053e-37
-8.8271684e-35
1.8191173e-36
-2.6526833e-33
6.8275124e-36
-7.7743472e-32
-1.5021848e-33
-2.259696e-30
-1.1015219e-31
-6.5051762e-29
-5.7054541e-30
-1.8117949e-27
-2.4833615e-28
-4.788855e-26
-9.6086423e-27
-1.1874736e-24
-3.406041e-25
-2.7290784e-23
-1.1211893e-23
-5.7012062e-22
-3.4411488e-22
-1.0543922e-20
-9.9212321e-21
-1.5952462e-19
-2.829827e-19
-1.8266275e-18
-6.6952189e-18
1.4768946e-17
-9.0956269e-17
4.8075552e-16
-6.0125565e-16
5.478239e-15
-6.0274641e-15
3.681344e-14
-3.74182e-14
1.3424138e-13
-1.1526026e-13
3.475478e-13
-2.5837561e-13
6.0585885e-13
-3.5493653e-13
8.0972899e-13
-2.9586748e-13
5.2270148e-13
0
2.4524387e-13
0
6.0732041e-14
0
6.0921615e-15
0
4.0672151e-16
5.3305368e-16
3.0058511e-17
4.4009087e-17
2.1494483e-18
4.4974381e-18
1.3960899e-19
4.031095e-19
8.1678957e-21
3.0818919e-20
4.3111148e-22
2.0448561e-21
2.0563135e-23
1.1929828e-22
8.8762401e-25
6.1719702e-24
3.4708417e-26
2.8479957e-25
1.2299462e-27
1.1767555e-26
3.9485708e-29
4.3647412e-28
1.147081e-30
1.4553376e-29
3.0096776e-32
4.3642413e-31
7.1143048e-34
1.1766704e-32
1.5106483e-35
2.8494029e-34
2.872142e-37
6.1870009e-36
4.8722223e-39
1.2018841e-37
7.3458659e-41
2.0830031e-39
9.8018473e-43
3.2107386e-41
1.1521619e-44
4.3845428e-43
1.1869891e-46
5.2821421e-45
1.065808e-48
5.5875189e-47
8.2893226e-51
5.1624011e-49
5.5459252e-53
4.1412522e-51
3.1674915e-55
2.8659683e-53
1.5313357e-57
1.6984513e-55
6.2068865e-60
8.5503434e-58
2.0861848e-62
3.6231003e-60
5.7419629e-65
1.27898e-62
1.2755277e-67
3.7195621e-65
2.2492158e-70
8.7941664e-68
3.0828831e-73
1.6660404e-70
3.199691e-76
2.4825943e-73
2.4292055e-79
2.8472255e-76
1.3160457e-82
2.4433523e-79
1.5098774e-84
1.7066016e-82
2.4134148e-85
5.8283805e-84
4.5720341e-86
5.5575779e-85
4.6955136e-85
-1.0696542e-84
2.6215721e-84
-2.8038442e-82
1.2238268e-82
-5.6270111e-81
4.0128713e-81
-1.082088e-80
1.7523329e-80
-1.1873284e-80
2.1668221e-80
-8.9244857e-81
1.6557313e-80
-3.3285006e-81
9.4289173e-81
-3.9434859e-81
4.0592892e-81
-6.1995264e-80
2.8736837e-80
-8.2757663e-78
3.47343e-78
-9.870938e-76
3.8094112e-76
-1.0559806e-73
3.7692057e-74
-1.0223112e-71
3.3917785e-72
-9.0230922e-70
2.7934144e-70
-7.3065092e-68
2.1173699e-68
-5.4576375e-66
1.4844793e-66
-3.7777687e-64
9.6638762e-65
-2.4331358e-62
5.8645296e-63
-1.4631752e-60
3.3276298e-61
-8.2397641e-59
1.7701608e-59
-4.3565846e-57
8.8487254e-58
-2.167499e-55
4.1646516e-56
-1.0153708e-53
1.8480493e-54
-4.4655044e-52
7.7313884e-53
-1.8543286e-50
3.0519556e-51
-7.6044415e-49
1.1461179e-49
-3.1529723e-47
4.1392427e-48
-1.0588074e-45
1.3506789e-46
-2.3269474e-44
3.3524903e-45
-4.6783477e-43
6.5947048e-44
-1.2332085e-41
1.4754515e-42
-3.9371721e-40
4.1335664e-41
-1.2873854e-38
1.2054966e-39
-4.1000335e-37
3.3410999e-38
-1.2681314e-35
8.5400439e-37
-3.8169619e-34
1.9405329e-35
-1.0971426e-32
3.5055734e-34
-2.9107941e-31
2.9587388e-33
-7.2292664e-30
-1.2697361e-31
-1.8421949e-28
-9.6100038e-30
-4.9631404e-27
-4.9023073e-28
-1.3448917e-25
-2.1424576e-26
-3.5025624e-24
-8.2321642e-25
-8.5957798e-23
-2.8746497e-23
-1.9590704e-21
-9.2605792e-22
-4.077376e-20
-2.7836792e-20
-8.2696219e-19
-8.395806e-19
-1.7033263e-17
-2.8275858e-17
-1.4590303e-16
-3.150738e-16
9.2305159e-17
-1.3290361e-15
1.9420916e-14
-2.840161e-14
2.2468898e-13
-2.5710636e-13
1.4477568e-12
-1.5184082e-12
5.2230669e-12
-4.3374623e-12
1.4094917e-11
-1.028127e-11
2.7059351e-11
-1.5627063e-11
4.0921588e-11
-1.6281834e-11
3.1567191e-11
0
1.6063683e-11
0
4.2433818e-12
0
3.1210231e-13
4.8531261e-13
1.4422379e-14
2.0138591e-13
1.5153505e-15
7.7542017e-15
1.3497861e-16
3.6850394e-16
8.6848762e-18
3.2185205e-17
5.0197829e-19
2.462429e-18
2.6336188e-20
1.6206962e-19
1.2431446e-21
9.3306429e-21
5.2757274e-23
4.7400299e-22
2.0158193e-24
2.1373076e-23
6.9410262e-26
8.591704e-25
2.1541928e-27
3.0882792e-26
6.0229216e-29
9.9442923e-28
1.5151389e-30
2.8709138e-29
3.4229049e-32
7.4311658e-31
6.9273645e-34
1.7232271e-32
1.2522491e-35
3.5747113e-34
2.015059e-37
6.6194354e-36
2.8751831e-39
1.0912241e-37
3.6219545e-41
1.5961974e-39
4.0086425e-43
2.063771e-41
3.8767954e-45
2.3476719e-43
3.2564481e-47
2.3379868e-45
2.3598221e-49
2.0266662e-47
1.4641168e-51
1.5193148e-49
7.7118743e-54
9.7786113e-52
3.4157194e-56
5.3597248e-54
1.2587231e-58
2.4784353e-56
3.8132209e-61
9.5704583e-59
9.3606721e-64
3.051506e-61
1.8304485e-66
7.9252881e-64
2.7936281e-69
1.6501542e-66
3.2475118e-72
2.702588e-69
2.786265e-75
3.406178e-72
1.6955339e-78
3.2170673e-75
4.6549764e-81
2.4374554e-78
1.3724868e-81
2.082005e-80
3.6250897e-82
9.4993962e-81
3.5363941e-84
2.1952411e-81
1.3917888e-81
-9.2224369e-82
1.6706984e-81
-2.2654309e-79
1.2519455e-79
-2.9908881e-78
3.1273778e-78
-4.9901731e-78
1.0644289e-77
-5.4299535e-78
1.2224802e-77
-3.9832398e-78
9.1715699e-78
-1.4527301e-78
5.0987224e-78
-1.7217488e-78
2.1603629e-78
-2.716836e-77
1.5333258e-77
-3.6772468e-75
1.8769321e-75
-4.4435661e-73
2.0836235e-73
-4.8111576e-71
2.0848219e-71
-4.7093488e-69
1.8951286e-69
-4.1989209e-67
1.575277e-67
-3.4320136e-65
1.2042322e-65
-2.5856283e-63
8.5081502e-64
-1.8039962e-61
5.5788362e-62
-1.1703533e-59
3.4076745e-60
-7.0852219e-58
1.9453461e-58
-4.0149528e-56
1.0409581e-56
-2.1351968e-54
5.2331839e-55
-1.0681391e-52
2.4766986e-53
-5.0291085e-51
1.1048454e-51
-2.2194921e-49
4.6476166e-50
-9.2237822e-48
1.8442616e-48
-3.8437578e-46
6.9795923e-47
-1.7319474e-44
2.5727951e-45
-6.3237708e-43
8.5929763e-44
-1.167402e-41
1.9418789e-42
-1.3975046e-40
2.7006728e-41
-2.2279847e-39
3.65008e-40
-5.8148562e-38
7.8110657e-39
-1.7998748e-36
2.13362e-37
-5.5626134e-35
5.7968496e-36
-1.6692482e-33
1.4641689e-34
-4.8875838e-32
3.3078532e-33
-1.3689629e-30
6.141136e-32
-3.2539153e-29
6.7508607e-31
-6.3149904e-28
-7.0579374e-30
-1.2286129e-26
-6.3302019e-28
-2.8362481e-25
-2.8285388e-26
-7.2569999e-24
-1.2107075e-24
-1.8446682e-22
-4.6340682e-23
-4.455423e-21
-1.5923259e-21
-1.0137849e-19
-5.0549992e-20
-2.2481684e-18
-1.6304807e-18
-4.4330452e-17
-5.5575024e-17
-5.7751175e-16
-6.1997776e-16
-7.9874294e-15
-5.3379189e-16
-3.8111897e-14
-2.3625175e-14
2.8375913e-13
-7.595489e-13
5.7229725e-12
-7.6470623e-12
4.3039873e-11
-4.9199153e-11
1.6487056e-10
-1.4277444e-10
4.6697343e-10
-3.5540853e-10
9.6222216e-10
-6.0213014e-10
1.6071596e-09
-7.5540387e-10
1.5515019e-09
0
8.9596327e-10
0
2.5699241e-10
0
1.2486017e-11
3.0450925e-11
8.0980361e-13
1.1688683e-11
4.8928753e-14
7.379729e-13
2.9221582e-15
4.5490717e-14
4.701868e-16
1.5423751e-15
2.4629499e-17
1.2248853e-16
9.6378319e-19
7.6942093e-18
4.295857e-20
4.1450812e-19
1.7744874e-21
2.0204452e-20
6.535331e-23
8.7559043e-22
2.1568247e-24
3.3732982e-23
6.3953158e-26
1.1590638e-24
1.703326e-27
3.5593931e-26
4.0705241e-29
9.7786491e-28
8.7134308e-31
2.4035577e-29
1.6668954e-32
5.2818619e-31
2.8414247e-34
1.0361804e-32
4.3007746e-36
1.8106152e-34
5.7561237e-38
2.8100651e-36
6.7797568e-40
3.8593906e-38
6.990541e-42
4.6699089e-40
6.2719057e-44
4.9539589e-42
4.8629671e-46
4.5809493e-44
3.2337668e-48
3.6679069e-46
1.8281648e-50
2.5244668e-48
8.7008209e-53
1.480466e-50
3.4478218e-55
7.3265369e-53
1.1229571e-57
3.0259437e-55
2.960704e-60
1.0295003e-57
6.208112e-63
2.8416262e-60
1.0143927e-65
6.2504121e-63
1.2620999e-68
1.0740242e-65
1.1672326e-71
1.4168216e-68
7.8639959e-75
1.4384054e-71
6.9797061e-78
1.2114852e-74
1.9788205e-78
2.8567424e-77
7.6391014e-79
1.7763911e-77
4.0239825e-80
8.62001e-78
-5.3544522e-80
2.2095407e-78
1.0765176e-78
-4.6207924e-79
7.6518233e-79
-1.0814545e-76
7.0810986e-77
-1.1599779e-75
1.5663934e-75
-1.7698553e-75
4.682229e-75
-1.918623e-75
5.1317942e-75
-1.3876479e-75
3.8173713e-75
-5.0728411e-76
2.0910345e-75
-5.863606e-76
8.7874528e-76
-9.8586444e-75
6.5578296e-75
-1.3559625e-72
8.1532098e-73
-1.6625045e-70
9.1772821e-71
-1.8239526e-68
9.2986532e-69
-1.8069919e-66
8.5486841e-67
-1.6289894e-64
7.179442e-65
-1.3449636e-62
5.5402109e-63
-1.0226983e-60
3.9478147e-61
-7.1966123e-59
2.6090921e-59
-4.7060751e-57
1.6054294e-57
-2.8700847e-55
9.2275492e-56
-1.6376017e-53
4.9697259e-54
-8.7660445e-52
2.5142628e-52
-4.4131632e-50
1.1974704e-50
-2.0911618e-48
5.3781752e-49
-9.2887215e-47
2.2784641e-47
-3.8812566e-45
9.1142807e-46
-1.6243749e-43
3.4808153e-44
-7.5401804e-42
1.3008736e-42
-3.0195694e-40
4.4778753e-41
-5.8638766e-39
1.0276839e-39
-5.6601792e-38
1.2784622e-38
-5.2952793e-37
1.1780366e-37
-8.758792e-36
1.5443318e-36
-2.2950449e-34
3.4049396e-35
-6.7569343e-33
8.7702508e-34
-1.9847955e-31
2.2037146e-32
-5.7781101e-30
5.052131e-31
-1.6595928e-28
9.8518826e-30
-3.8563322e-27
1.3039174e-28
-6.0147011e-26
1.1196588e-28
-7.8047778e-25
-3.7057441e-26
-1.3128544e-23
-1.2593822e-24
-2.9635119e-22
-4.7646382e-23
-7.2046156e-21
-1.8040962e-21
-1.7086885e-19
-6.1337299e-20
-4.2022756e-18
-2.0553134e-18
-1.1464151e-16
-6.4364566e-17
-1.0600891e-15
-9.3386548e-16
-2.7100371e-15
-3.2577461e-15
-2.0854431e-13
0
-2.5745591e-12
0
-2.3837154e-13
-1.7313692e-11
2.0047322e-10
-2.6925231e-10
1.5331088e-09
-1.6616895e-09
6.8789006e-09
-1.3802281e-08
2.6938425e-08
-4.6465141e-08
6.9368742e-08
-1.0097209e-07
1.5670404e-07
-1.523039e-07
1.442888e-07
-9.6129922e-08
6.7543919e-08
-2.2033177e-08
6.0587616e-09
1.0129952e-08
5.5372924e-10
2.9410574e-09
3.6481295e-11
5.2013613e-10
3.1008403e-12
3.338097e-11
1.8858674e-13
2.9206179e-12
4.6436098e-15
1.7964594e-13
3.3874989e-16
4.8686508e-15
2.5773847e-17
1.9508533e-16
9.3169666e-19
1.0883921e-17
3.4653686e-20
4.9996827e-19
1.2177099e-21
2.0562626e-20
3.8371331e-23
7.5477844e-22
1.0793812e-24
2.4635831e-23
2.717145e-26
7.1630702e-25
6.1184632e-28
1.8579685e-26
1.2303092e-29
4.3001333e-28
2.2038347e-31
8.8737233e-30
3.5057947e-33
1.6300338e-31
4.9335546e-35
2.6587719e-33
6.1138032e-37
3.838147e-35
6.6368431e-39
4.8832657e-37
6.2730535e-41
5.4487163e-39
5.1267924e-43
5.3009572e-41
3.594402e-45
4.4664185e-43
2.1421462e-47
3.233809e-45
1.074112e-49
1.9936027e-47
4.4777665e-52
1.0355423e-49
1.5310653e-54
4.4758792e-52
4.2266112e-57
1.5870016e-54
9.2534174e-60
4.5372171e-57
1.5767237e-62
1.0264231e-59
2.0559192e-65
1.8085296e-62
2.042972e-68
2.5105647e-65
1.600607e-71
3.0030862e-68
1.1690061e-74
3.2388661e-71
9.830991e-76
4.4484041e-74
2.9272038e-76
1.4171651e-74
-1.6904762e-76
1.1666573e-74
-1.292585e-76
5.4666578e-75
-6.9148036e-77
1.447904e-75
5.9632196e-76
-1.6065273e-76
2.7052586e-76
-3.6768861e-74
2.7701033e-74
-3.5318761e-73
5.772248e-73
-5.0893982e-73
1.6058189e-72
-5.5127133e-73
1.7085402e-72
-3.958939e-73
1.2658037e-72
-1.5253762e-73
6.8776389e-73
-1.548468e-73
2.870751e-73
-2.9934883e-72
2.2933393e-72
-4.1912112e-70
2.9015981e-70
-5.2209189e-68
3.3167248e-68
-5.8099653e-66
3.4067868e-66
-5.8298631e-64
3.1702577e-64
-5.3158225e-62
2.6913077e-62
-4.4337446e-60
2.0965951e-60
-3.4018616e-58
1.5064162e-58
-2.4129505e-56
1.0028743e-56
-1.5889519e-54
6.2100179e-55
-9.7502067e-53
3.5893232e-53
-5.5929898e-51
1.9423678e-51
-3.007902e-49
9.8691925e-50
-1.5204031e-47
4.7185934e-48
-7.2287321e-46
2.1268127e-46
-3.2210771e-44
9.0418838e-45
-1.351177e-42
3.6298219e-43
-5.6523574e-41
1.3912057e-41
-2.5728283e-39
5.2030915e-40
-1.0345238e-37
1.7933376e-38
-2.2356524e-36
4.2673415e-37
-2.4301233e-35
5.648436e-36
-1.9378724e-34
4.9589378e-35
-1.8449263e-33
4.3940131e-34
-2.995729e-32
5.8414745e-33
-7.4609295e-31
1.2029922e-31
-2.1159784e-29
2.9208278e-30
-6.148843e-28
6.8367885e-29
-1.8403381e-26
1.412741e-27
-4.5552137e-25
2.1727087e-26
-6.275473e-24
1.2736613e-25
-5.4282098e-23
-1.7170249e-24
-5.5731025e-22
-5.2754878e-23
-9.5760363e-21
-1.480435e-21
-2.1326393e-19
-5.1239517e-20
-5.2855411e-18
-1.7341747e-18
-1.4961397e-16
-5.7063123e-17
-1.4034998e-15
-1.002453e-15
-2.9579146e-15
-2.2409316e-15
-1.0230735e-13
-8.1493516e-14
-9.2499272e-12
0
-6.7561146e-11
-9.1526387e-12
8.0803713e-10
-1.2244361e-09
1.6455205e-08
-4.12862e-08
1.044608e-07
-2.2882795e-07
2.530364e-07
-2.1214272e-07
4.5597709e-07
-1.7085198e-07
5.5355511e-07
-3.7965564e-07
6.1815155e-07
-1.9849641e-07
6.3102925e-07
-9.5986707e-08
6.2202954e-07
-1.343045e-09
2.8331946e-07
9.1333946e-08
2.7681227e-08
4.8465299e-08
1.2491491e-09
2.667184e-08
1.0140842e-10
1.1640231e-09
6.8598685e-12
9.5884133e-11
3.4040984e-13
6.6069644e-12
9.0097827e-15
3.2545387e-13
4.2838482e-16
8.1142478e-15
2.1292658e-17
3.0376052e-16
7.3191359e-19
1.3465103e-17
2.3035878e-20
5.1022062e-19
6.6590088e-22
1.7184971e-20
1.723953e-23
5.15769e-22
3.9847662e-25
1.3783711e-23
8.2207497e-27
3.2822717e-25
1.5109975e-28
6.9646833e-27
2.467343e-30
1.3154172e-28
3.5663225e-32
2.2066583e-30
4.5423476e-34
3.2778366e-32
5.0710847e-36
4.2942049e-34
4.9318821e-38
4.9372428e-36
4.1480601e-40
4.9521967e-38
2.9916498e-42
4.3029619e-40
1.8322166e-44
3.2117152e-42
9.4219426e-47
2.0393432e-44
4.0149924e-49
1.088938e-46
1.3962538e-51
4.8244206e-49
3.8955097e-54
1.7447623e-51
8.5689003e-57
5.062064e-54
1.4623542e-59
1.1563457e-56
1.9309983e-62
2.0636437e-59
2.0510809e-65
2.9986806e-62
1.9343762e-68
4.1558389e-65
1.6106615e-71
5.9307279e-68
1.9073416e-73
9.2766568e-71
-1.2614214e-73
7.6736456e-72
-3.6921607e-73
7.2235228e-72
-3.891017e-73
5.9126149e-72
-1.4429919e-73
2.6126151e-72
-5.0412097e-74
6.9086975e-73
2.5163258e-73
-4.3116415e-74
7.7968936e-74
-9.8033363e-72
8.3452237e-72
-8.8602822e-71
1.688189e-70
-1.2307543e-70
4.5039297e-70
-1.3332027e-70
4.7014845e-70
-9.5564617e-71
3.4787384e-70
-3.897412e-71
1.8841612e-70
-3.3396032e-71
7.8106052e-71
-7.734117e-70
6.7077416e-70
-1.1045173e-67
8.6530235e-68
-1.4005524e-65
1.0064873e-65
-1.5832999e-63
1.0497144e-63
-1.6109442e-61
9.8996917e-62
-1.4869471e-59
8.5022093e-60
-1.2535793e-57
6.6904571e-58
-9.7085392e-56
4.8489115e-56
-6.9421329e-54
3.2520834e-54
-4.6031085e-52
2.0262522e-52
-2.8410874e-50
1.1772089e-50
-1.6376471e-48
6.3976152e-49
-8.8417757e-47
3.2615344e-47
-4.4830977e-45
1.5637227e-45
-2.1360873e-43
7.0640708e-44
-9.5329614e-42
3.0087847e-42
-4.0122031e-40
1.2101932e-40
-1.6829498e-38
4.6490021e-39
-7.4465059e-37
1.7351428e-37
-2.8194725e-35
5.8936111e-36
-6.4528747e-34
1.4260152e-34
-9.1001903e-33
2.1295527e-33
-8.9450026e-32
2.2095237e-32
-6.3830207e-31
1.813791e-31
-5.0602157e-30
1.3906877e-30
-7.8961079e-29
1.6393308e-29
-2.0272598e-27
3.4448516e-28
-5.8707144e-26
8.163581e-27
-1.8291591e-24
1.781546e-25
-4.811756e-23
3.067751e-24
-6.2239866e-22
2.6126316e-23
-4.1238608e-21
-1.2728459e-23
-2.4943375e-20
-2.3256356e-21
-2.6418394e-19
-4.3536043e-20
-5.129216e-18
-1.1532998e-18
-1.2188922e-16
-3.5661162e-17
-1.4455176e-15
-6.7768675e-16
-1.6626784e-15
-8.5694967e-15
-1.0742967e-13
-4.219941e-14
-2.5554561e-12
-1.175688e-12
-1.8069808e-10
0
8.5476173e-10
-4.4363441e-08
7.1713879e-08
-2.6142036e-07
1.3606205e-07
-2.4483851e-07
2.4209624e-07
-3.207248e-07
2.8080395e-07
-2.266996e-07
3.0143336e-07
-1.3819778e-07
2.8197966e-07
-4.2797654e-08
4.1148591e-07
-9.24965e-09
7.1108187e-07
-2.0770175e-09
7.1208292e-07
1.0063009e-08
6.7272446e-07
1.4652269e-07
4.789322e-07
2.5974055e-07
5.7971786e-08
1.943123e-07
1.5683169e-09
4.0863335e-08
1.0182354e-10
1.4624972e-09
5.769204e-12
9.5578556e-11
2.7361512e-13
5.3768993e-12
1.1417328e-14
2.4320559e-13
4.926593e-16
9.7987073e-15
1.8485048e-17
4.0995555e-16
5.5061807e-19
1.4839187e-17
1.4380453e-20
4.591556e-19
3.3916228e-22
1.2573084e-20
7.1347514e-24
3.0586804e-22
1.3359996e-25
6.6102513e-24
2.2329752e-27
1.2704814e-25
3.3182758e-29
2.1670869e-27
4.336849e-31
3.2697512e-29
4.9551866e-33
4.3457876e-31
4.9141281e-35
5.0611388e-33
4.1913402e-37
5.131193e-35
3.0394951e-39
4.4927716e-37
1.850481e-41
3.3647447e-39
9.5509524e-44
2.130054e-41
4.0543744e-46
1.1229763e-43
1.3923931e-48
4.8398391e-46
3.8104454e-51
1.6639099e-48
8.1018722e-54
4.3397616e-51
1.3048002e-56
1.0283957e-53
1.5900076e-59
1.9744246e-56
1.5724516e-62
3.1166699e-59
1.3685987e-65
4.5128136e-62
7.5869153e-69
7.4332087e-65
-5.3999161e-71
1.353757e-67
-1.4354268e-70
2.7079104e-69
-3.1940578e-70
2.3210121e-69
-3.8059916e-70
2.9754562e-69
-2.8639703e-70
2.3880973e-69
-9.1326178e-71
9.8154653e-70
-2.6610787e-71
2.5349222e-70
8.3532635e-71
-9.4364599e-72
1.906566e-71
-2.1537708e-69
2.0454069e-69
-1.8875451e-68
4.0915837e-68
-2.5631016e-68
1.067311e-67
-2.7814531e-68
1.1007502e-67
-1.9990807e-68
8.1554089e-68
-8.6378356e-69
4.4198503e-68
-5.792903e-69
1.814932e-68
-1.6860593e-67
1.6334964e-67
-2.4616712e-65
2.1526548e-65
-3.1854363e-63
2.5548069e-63
-3.665721e-61
2.7113475e-61
-3.7882216e-59
2.5958107e-59
-3.5445365e-57
2.2585884e-57
-3.0236639e-55
1.797124e-55
-2.3656042e-53
1.3148393e-53
-1.7061888e-51
8.8878662e-52
-1.1395797e-49
5.5738385e-50
-7.0761615e-48
3.2553558e-48
-4.0990218e-46
1.7765769e-46
-2.2219639e-44
9.0872706e-45
-1.1301413e-42
4.3682853e-43
-5.396843e-41
1.9776093e-41
-2.4125061e-39
8.4388751e-40
-1.0188878e-37
3.4017754e-38
-4.2902967e-36
1.310718e-36
-1.8540027e-34
4.8910514e-35
-6.579886e-33
1.6413457e-33
-1.5513152e-31
4.0267037e-32
-2.8784877e-30
6.8345917e-31
-3.8924623e-29
8.9140882e-30
-2.6358684e-28
7.8397078e-29
-1.1968672e-27
4.3529165e-28
-9.1562308e-27
2.6032767e-27
-1.8403702e-25
3.8612696e-26
-5.2935064e-24
9.0649816e-25
-1.7503168e-22
2.0951216e-23
-4.8515286e-21
3.9650727e-22
-6.0077497e-20
3.9114142e-21
-3.102655e-19
1.0361692e-20
-1.1171739e-18
-6.3296073e-20
-6.4335729e-18
-8.995429e-19
-1.0003597e-16
-1.6537825e-17
-1.1677118e-15
-3.6030524e-16
-1.4778777e-15
-5.4345104e-15
-6.4771019e-14
-1.9739789e-14
-1.7384837e-12
-2.8576363e-13
-3.6677524e-11
-1.2609388e-11
-9.2963394e-09
-1.4327308e-08
5.118058e-08
-3.1326571e-07
1.4331244e-07
-3.7467275e-07
1.8164531e-07
-2.9166419e-07
1.3380923e-07
-2.2026819e-07
5.6677223e-08
-3.9731428e-08
5.1234892e-08
-9.8107412e-09
1.2355414e-08
-3.8211407e-09
5.9329824e-09
-2.6324872e-09
5.1946402e-09
-1.2077016e-09
1.5249072e-08
1.6356454e-10
4.9027203e-07
7.4658441e-08
5.1302989e-07
2.5184368e-07
4.1065198e-07
3.3684154e-07
1.1934747e-08
3.0996201e-07
6.79568e-10
1.1662204e-08
3.6154885e-11
6.6751805e-10
1.6953133e-12
3.6041823e-11
6.8387085e-14
1.695654e-12
2.442847e-15
6.8626733e-14
1.0912624e-16
2.5337892e-15
3.4555788e-18
9.0735483e-17
8.2085006e-20
2.7192953e-18
1.7853138e-21
6.94834e-20
3.4801281e-23
1.5694072e-21
6.0106058e-25
3.137891e-23
9.1708636e-27
5.5495164e-25
1.2315596e-28
8.669975e-27
1.4486462e-30
1.1910624e-28
1.4835455e-32
1.4303283e-30
1.3128732e-34
1.4910896e-32
9.9505422e-37
1.3372597e-34
6.3933715e-39
1.0186016e-36
3.4399476e-41
6.4557195e-39
1.5193521e-43
3.5547734e-41
5.3853066e-46
1.7143451e-43
1.5000267e-48
6.7846133e-46
3.1422266e-51
2.1505269e-48
4.8753537e-54
5.3505003e-51
5.7812544e-57
9.391093e-54
5.4728709e-60
1.7220273e-56
3.0508491e-63
3.1258178e-59
-8.2005729e-66
6.000036e-62
-6.2285383e-68
1.2534826e-64
-4.7817949e-68
6.8770973e-67
-9.8878694e-68
4.5807515e-67
-2.1245217e-67
8.6429784e-67
-2.1926333e-67
1.0247049e-66
-1.4135078e-67
7.8478321e-67
-4.226184e-68
2.977797e-67
-1.1064092e-68
7.3197292e-68
2.1964603e-68
-1.7478434e-69
4.088808e-69
-4.029802e-67
4.2297993e-67
-3.4964806e-66
8.4734786e-66
-4.6840942e-66
2.1883873e-65
-5.0994166e-66
2.2406953e-65
-3.6870048e-66
1.6662559e-65
-1.6286802e-66
9.059802e-66
-9.3095211e-67
3.6816059e-66
-3.159962e-65
3.2794946e-65
-4.5023616e-63
4.3502907e-63
-5.9388516e-61
5.2429796e-61
-6.9703079e-59
5.6735829e-59
-7.326963e-57
5.5225565e-57
-6.9568591e-55
4.873307e-55
-6.0095623e-53
3.9241116e-53
-4.7520063e-51
2.8996507e-51
-3.4580766e-49
1.9760173e-49
-2.3266746e-47
1.2472847e-47
-1.45331e-45
7.3214737e-46
-8.4581925e-44
4.0109442e-44
-4.6017845e-42
2.0575976e-42
-2.3470963e-40
9.9126134e-41
-1.1230891e-38
4.4954539e-39
-5.0299454e-37
1.9218896e-37
-2.1309823e-35
7.7663069e-36
-8.9757263e-34
3.0019045e-34
-3.7890136e-32
1.1208149e-32
-1.2931579e-30
3.7533129e-31
-3.2331092e-29
9.5404333e-30
-7.7253671e-28
1.8571647e-28
-1.3366423e-26
2.9671584e-27
-8.9783125e-26
2.7786091e-26
-2.9628528e-25
1.2953097e-25
-1.2558047e-24
4.8530447e-25
-1.7624682e-23
4.5994581e-24
-5.1622127e-22
1.0571751e-22
-1.9989407e-20
2.6611198e-21
-5.7119711e-19
5.486384e-20
-5.3447814e-18
5.1104369e-19
-1.6926543e-17
1.4295221e-18
-3.5038473e-17
2.5493642e-19
-1.109038e-16
-6.31499e-18
-8.6129523e-16
-9.7577921e-17
-1.3164859e-15
-2.4267648e-15
-1.3105896e-15
-4.0058401e-14
-1.7678066e-13
-5.9243481e-13
-5.9346091e-13
-1.7676447e-11
-3.3597747e-09
-1.7064224e-09
7.2172197e-09
-2.7574698e-07
8.2680194e-08
-3.5092181e-07
7.5637808e-08
-3.2365157e-07
2.4403384e-08
-3.7751151e-08
2.3603681e-08
-2.8959081e-08
5.9358314e-09
-2.1242607e-08
4.0650176e-09
-7.8072003e-09
4.3365749e-09
-3.9827998e-09
4.6241417e-09
-2.7899572e-09
4.8782045e-09
-1.3059169e-09
5.0257673e-09
1.4857571e-10
7.4663804e-08
4.9991938e-09
4.2094462e-07
1.4409703e-07
4.118206e-07
3.807932e-07
9.2664574e-08
3.9480585e-07
1.3150393e-09
5.1677796e-08
5.9574331e-11
1.7682653e-09
2.3101065e-12
8.571012e-11
7.6666965e-14
3.6176655e-12
2.0436137e-15
1.3310634e-13
1.8648825e-16
4.331702e-15
8.4007043e-18
1.716282e-16
1.670197e-19
5.6035051e-18
3.3366903e-21
1.3581712e-19
6.2632098e-23
2.9112121e-21
1.041887e-24
5.5049017e-23
1.5258129e-26
9.0797414e-25
1.9542694e-28
1.316418e-26
2.1486846e-30
1.7508829e-28
2.0187736e-32
2.0226605e-30
1.6111924e-34
2.0147761e-32
1.0795644e-36
1.7180433e-34
5.9823396e-39
1.2427983e-36
2.698065e-41
7.5365388e-39
9.7950088e-44
3.5644059e-41
2.8339468e-46
1.3756308e-43
6.4994947e-49
4.6334548e-46
1.2086071e-51
1.4680646e-48
1.7171453e-54
4.3457882e-51
1.2133022e-57
1.0875825e-53
-4.282814e-60
2.6993571e-56
-2.6044721e-62
7.2907819e-59
-7.5083089e-65
1.6082339e-61
-1.4338949e-65
3.4154206e-64
-2.0869696e-65
1.0000083e-64
-5.5920935e-65
1.6135202e-64
-9.5791459e-65
2.759583e-64
-9.2955902e-65
2.9403523e-64
-5.3960602e-65
2.1266876e-64
-1.5354627e-65
7.3448212e-65
-3.7822279e-66
1.6718842e-65
4.4196247e-66
-2.8122419e-67
7.9228837e-67
-6.5575669e-65
7.5632554e-65
-5.7252292e-64
1.5311681e-63
-7.6184404e-64
3.9539351e-63
-8.3358524e-64
4.0337773e-63
-6.0736801e-64
3.0163454e-63
-2.6137692e-64
1.6433127e-63
-1.3971146e-64
6.4873536e-64
-2.6982387e-63
2.9957909e-63
-3.6701951e-61
3.9313756e-61
-4.8347447e-59
4.7033989e-59
-5.722621e-57
5.1218841e-57
-6.1070468e-55
5.0449288e-55
-5.8979493e-53
4.5234286e-53
-5.1765987e-51
3.6979204e-51
-4.1540068e-49
2.7706837e-49
-3.0647789e-47
1.9125581e-47
-2.0892995e-45
1.2220057e-45
-1.3219722e-43
7.2590874e-44
-7.7950671e-42
4.0252956e-42
-4.2995121e-40
2.091867e-40
-2.2260343e-38
1.022686e-38
-1.0850356e-36
4.7203594e-37
-4.991154e-35
2.0639575e-35
-2.1731448e-33
8.5779238e-34
-8.976376e-32
3.4011594e-32
-3.5090069e-30
1.2907046e-30
-1.3544445e-28
4.712762e-29
-6.2493351e-27
1.6973571e-27
-3.0985755e-25
5.9744223e-26
-6.1674615e-24
1.3495225e-24
-3.2520886e-23
1.1420922e-23
-7.4587864e-23
3.9260472e-23
-1.8779761e-22
9.4849346e-23
-1.7313878e-21
5.5435609e-22
-5.5922513e-20
1.2511765e-20
-2.6490155e-18
3.5064842e-19
-5.7171805e-17
6.8646036e-18
-2.8960543e-16
4.562789e-17
-5.24593e-16
9.5147448e-17
-7.0039597e-16
6.82267e-17
-1.2540081e-15
0
-4.3111862e-15
0
-1.3553361e-14
-7.7331752e-16
0
-4.268385e-13
0
-1.5839292e-11
0
-7.4507455e-10
-2.919375e-08
-8.8592557e-08
4.2906697e-08
-3.3016985e-07
3.8264452e-08
-3.0335959e-07
1.947289e-08
-1.9693575e-08
3.0918405e-09
-2.7830262e-08
3.1573965e-09
-3.4151032e-08
4.0132466e-09
-2.8873174e-08
3.1474766e-09
-6.8067573e-09
3.6233808e-09
-4.3138571e-09
4.0660067e-09
-3.1100995e-09
4.4061467e-09
-1.4904612e-09
4.5081627e-09
1.8171306e-10
7.6849556e-09
1.9283268e-09
1.3308545e-07
1.9022227e-08
5.1815288e-07
2.0306164e-07
3.0333563e-07
6.0886968e-07
2.2741606e-09
1.6316369e-07
7.438196e-11
3.7021668e-09
1.7924906e-12
1.4712505e-10
4.5724159e-14
4.9974498e-12
1.1344739e-15
1.6826083e-13
1.921371e-16
5.0678958e-15
1.3148447e-17
2.1401768e-16
2.1987453e-19
7.5929671e-18
3.7260597e-21
1.7228616e-19
6.5386088e-23
3.495224e-21
1.0063843e-24
6.3779618e-23
1.3371427e-26
1.0210734e-24
1.5456258e-28
1.3965074e-26
1.5703929e-30
1.6240721e-28
1.3686931e-32
1.6756167e-30
1.0077e-34
1.5141079e-32
6.2100734e-37
1.1890554e-34
3.17896e-39
8.1002958e-37
1.3451567e-41
4.8093895e-39
4.7677656e-44
2.521242e-41
1.398824e-46
1.2117143e-43
2.9780315e-49
5.477956e-46
3.0232721e-52
2.0209514e-48
-1.4299126e-54
7.4037187e-51
-1.1859296e-56
2.663697e-53
-4.9904585e-59
7.9599689e-56
-1.4712984e-61
1.8649105e-58
-5.6365077e-63
4.5772532e-61
-6.2066759e-63
3.1644594e-62
-9.7778466e-63
2.9453033e-62
-2.3460562e-62
4.8897789e-62
-3.3836419e-62
7.4265551e-62
-3.1617168e-62
7.1066872e-62
-1.6809074e-62
4.7596843e-62
-4.5917376e-63
1.459228e-62
-1.0912425e-63
2.9189932e-63
5.867712e-64
-4.0176729e-65
1.4266971e-64
-9.4304217e-63
1.1915716e-62
-8.3952376e-62
2.4540598e-61
-1.115842e-61
6.3859829e-61
-1.2275144e-61
6.507518e-61
-9.014092e-62
4.8969963e-61
-3.943273e-62
2.6841515e-61
-2.0522616e-62
1.0678204e-61
-5.9306485e-61
6.1177528e-61
-7.7707086e-59
8.1755617e-59
-9.4061712e-57
9.8009478e-57
-1.0862726e-54
1.065336e-54
-1.18649e-52
1.0697061e-52
-1.1709932e-50
9.8024934e-51
-1.0456587e-48
8.1465902e-49
-8.5056685e-47
6.1808526e-47
-6.3399152e-45
4.3052041e-45
-4.3528833e-43
2.7667167e-43
-2.7656026e-41
1.6478572e-41
-1.6328063e-39
9.1348166e-40
-8.9925554e-38
4.7320838e-38
-4.6367341e-36
2.2999322e-36
-2.2440154e-34
1.0527193e-34
-1.0202992e-32
4.5527084e-33
-4.3831751e-31
1.867574e-31
-1.8099617e-29
7.3214239e-30
-7.1753177e-28
2.761603e-28
-2.6578408e-26
9.8562927e-27
-1.0437457e-24
3.2403608e-25
-4.3969971e-23
9.7746661e-24
-8.5165778e-22
2.0154839e-22
-4.4954211e-21
1.6761716e-21
-9.4798775e-21
5.533393e-21
-1.8234189e-20
1.1415953e-20
-9.8245687e-20
3.9924775e-20
-3.0350234e-18
7.4866087e-19
-1.418651e-16
2.1270134e-17
-2.2483309e-15
3.7091933e-16
-7.6238875e-15
3.1638445e-15
-1.5861345e-14
1.7517915e-14
-2.9667674e-14
2.741667e-14
-4.380274e-14
1.6903067e-14
-4.4667382e-14