/*--------------------------------*- C++ -*----------------------------------*\
  =========                 |
  \\      /  F ield         | OpenFOAM: The Open Source CFD Toolbox
   \\    /   O peration     | Website:  https://openfoam.org
    \\  /    A nd           | Version:  9
     \\/     M anipulation  |
\*---------------------------------------------------------------------------*/
FoamFile
{
    format      ascii;
    class       volScalarField;
    location    "0.73";
    object      p_rgh;
}
// * * * * * * * * * * * * * * * * * * * * * * * * * * * * * * * * * * * * * //

dimensions      [1 -1 -2 0 0 0 0];

internalField   nonuniform List<scalar> 
10000
(
0
0.0011693687
0.0018088726
0.0048600606
0.0093000552
0.015200512
0.02263923
0.031566676
0.042177947
0.054372045
0.068343264
0.084110985
0.10174065
0.12143902
0.14323516
0.16723962
0.19360631
0.2223995
0.25377293
0.28790353
0.32489258
0.36490658
0.40816551
0.4548369
0.50511175
0.55925744
0.61755998
0.6803435
0.7480365
0.82115582
0.90028046
0.98608882
1.0793359
1.1807815
1.2912461
1.4117601
1.5436567
1.6892603
1.8469342
2.0214331
2.2142471
2.4264597
2.6587617
2.911336
3.1834663
3.4725502
3.7732646
4.0766225
4.3688182
4.6334941
4.8487449
4.9930806
5.0571699
5.0365017
4.9359664
4.7712151
4.5693356
4.3666698
4.2078874
4.1303318
4.1412822
4.2207902
4.3478874
4.5074304
4.6852291
4.8706826
5.0557097
5.2341436
5.4018787
5.5566373
5.6974925
5.8242435
5.9371965
6.0369664
6.1243616
6.2003067
6.265815
6.3219639
6.3697941
6.4102637
6.4443406
6.4729503
6.4968859
6.516873
6.5335796
6.5476061
6.5594301
6.5694824
6.578113
6.5856614
6.5923406
6.5983274
6.6037034
6.6085449
6.6127305
6.6163465
6.6195027
6.6219631
6.6252968
6.6272678
-0.0074490084
-0.0063697275
-0.0058043643
-0.0027882986
0.0015476291
0.0074423495
0.014755129
0.023712408
0.034175063
0.046351743
0.060267287
0.075934595
0.093573626
0.11321482
0.13494814
0.15894014
0.18524069
0.21397699
0.24533215
0.27939495
0.31629498
0.3562389
0.39938
0.44586356
0.49590559
0.5497333
0.60757878
0.66976004
0.73667654
0.80877963
0.88660148
0.97076107
1.0619569
1.1610061
1.2688532
1.3865775
1.5152772
1.6556462
1.8130343
1.9862906
2.1772892
2.387714
2.6189479
2.8719485
3.1466663
3.4412825
3.7513016
4.0680813
4.3770566
4.658083
4.8887241
5.0373036
5.1006945
5.0695823
4.9496437
4.7543743
4.5137646
4.2666279
4.0732944
3.9821737
3.9909462
4.079801
4.2113689
4.3734249
4.5563081
4.7491533
4.9426907
5.1302826
5.307581
5.4719946
5.6221838
5.7576637
5.8786076
5.9855756
6.0794123
6.1611013
6.2316974
6.2923283
6.3441042
6.3880637
6.4252396
6.4565819
6.4829227
6.5050317
6.52362
6.5392846
6.5525393
6.5638316
6.5735456
6.5820072
6.5894649
6.5960868
6.601996
6.6072989
6.6119918
6.6161358
6.6198261
6.6226901
6.6266277
6.6292716
-0.011889122
-0.011047057
-0.010625225
-0.0076869054
-0.0033491718
0.0024137349
0.0097713108
0.018588826
0.029028368
0.041142658
0.054914272
0.070538019
0.088069227
0.10757713
0.12922276
0.15306671
0.1792109
0.20782726
0.23900594
0.27284956
0.30953677
0.34921131
0.39198922
0.43803815
0.48753653
0.54064287
0.59757597
0.65863681
0.72416006
0.79453859
0.87027763
0.95195984
1.0402382
1.1359321
1.2400375
1.3536562
1.4779652
1.6144281
1.7655957
1.9334052
2.1192279
2.3248997
2.5522073
2.8026804
3.0772028
3.375387
3.6944179
4.0269234
4.3577721
4.6611861
4.908971
5.0543188
5.1088605
5.04467
4.8818848
4.6335217
4.3451262
4.0340884
3.7984297
3.7309786
3.7892402
3.9014854
4.0511609
4.2309017
4.4319868
4.6420174
4.8508942
5.0521037
5.2413988
5.4162397
5.5754253
5.7186438
5.8462185
5.9588403
6.0574535
6.143159
6.2171233
6.2805645
6.3346789
6.3805683
6.4193246
6.4519715
6.4794157
6.5024276
6.5217622
6.5380464
6.5518459
6.5635939
6.5737244
6.5825354
6.590324
6.5972219
6.6034069
6.6089664
6.6139527
6.6184161
6.6224753
6.625466
6.6298019
6.6334015
-0.019619137
-0.018933461
-0.018773536
-0.015902734
-0.011765559
-0.0060415613
0.0011039706
0.0098054238
0.020116001
0.032002239
0.045629273
0.061058285
0.078342402
0.097640361
0.11902733
0.14258594
0.16848264
0.19682147
0.22768121
0.26121333
0.29756002
0.33681776
0.37911357
0.42459429
0.47337208
0.5255791
0.58141499
0.64112566
0.70498611
0.77333801
0.84661883
0.92534715
1.0101346
1.101761
1.2012183
1.3096487
1.4283765
1.5590913
1.7038522
1.8643834
2.0428482
2.2413484
2.4620755
2.7072701
2.9790385
3.2789567
3.6068893
3.9581981
4.3190308
4.6615347
4.9423276
5.0712868
5.1108377
4.9973916
4.7520335
4.4014009
4.0707241
3.6938917
3.3642699
3.3359761
3.5031169
3.6619014
3.8281047
4.0332189
4.2647569
4.5027757
4.7363308
4.9591438
5.1668933
5.3570732
5.5287331
5.6819617
5.8174602
5.9363031
6.0397777
6.1292634
6.2061666
6.2718774
6.3277414
6.3750132
6.4148539
6.4483519
6.4764657
6.5000327
6.5198295
6.5365241
6.5506863
6.5627769
6.5732197
6.5823414
6.5904105
6.5976136
6.6040821
6.6099241
6.6152178
6.6200155
6.624537
6.6276233
6.6326724
6.6361858
-0.030051476
-0.029406108
-0.029341633
-0.026668357
-0.022586203
-0.017084292
-0.010099594
-0.0015652865
0.0084721176
0.020146074
0.033525437
0.048648024
0.065653365
0.084627257
0.1056463
0.12886975
0.15441822
0.18236983
0.21285614
0.24601076
0.28192351
0.32069738
0.36244846
0.40725302
0.45518067
0.50634708
0.56089451
0.61899103
0.68085633
0.74675524
0.81701165
0.89205878
0.97247298
1.0589843
1.1525213
1.2542424
1.3655476
1.4881108
1.6237066
1.7748633
1.9433219
2.1314723
2.3418787
2.5774913
2.8417429
3.1385652
3.4718706
3.8430118
4.2422486
4.6437565
5.0010717
5.0486555
5.0271352
4.8793696
4.4784668
3.8097429
3.5214681
3.2643803
2.7881263
2.7957458
3.044762
3.3029247
3.5124425
3.7648665
4.0420811
4.3208256
4.5898776
4.8430712
5.0760633
5.2866583
5.4745713
5.6405692
5.7859787
5.912438
6.021699
6.1155558
6.1957608
6.2639491
6.3216406
6.3702772
6.4111276
6.4453663
6.4740402
6.4980582
6.5182261
6.5352624
6.5497116
6.5621065
6.5728328
6.5822703
6.5906297
6.5981384
6.6049224
6.6111034
6.6167442
6.6218657
6.6268169
6.6308415
6.6353104
6.6393834
-0.042737968
-0.041985283
-0.042096237
-0.03943552
-0.035569908
-0.030231142
-0.023426517
-0.015195347
-0.0054201303
0.0059564552
0.018962993
0.033730323
0.050342353
0.068863537
0.089448315
0.11223431
0.13730625
0.16479057
0.19482498
0.22749691
0.26289414
0.30111894
0.34223046
0.38624952
0.43322216
0.48322193
0.53631243
0.59257919
0.65216321
0.71522438
0.78196375
0.85271461
0.92797389
1.0083891
1.0948176
1.1884294
1.2906832
1.403274
1.5281652
1.6667802
1.8221395
1.9962885
2.1918297
2.4121029
2.6615051
2.9461542
3.2756296
3.6606582
4.0990957
4.5728423
4.9768798
5.0090034
4.6124756
4.4085976
4.0203485
4.6745491
5.9702018
5.3424833
4.3259654
3.5422475
2.8370959
2.9582733
3.1273281
3.4215229
3.7537794
4.0907211
4.4119366
4.708142
4.9750188
5.2117702
5.4196975
5.6008672
5.7576403
5.892509
6.0079269
6.1062188
6.1895667
6.2599346
6.3190872
6.3686572
6.4101115
6.4446947
6.4735534
6.4976714
6.5179004
6.5349869
6.5495182
6.5620249
6.5729121
6.5825332
6.591142
6.5989249
6.6060239
6.6125645
6.6186046
6.6241427
6.6293457
6.6339585
6.6385178
6.6428476
-0.057588584
-0.056819764
-0.056898637
-0.054396357
-0.050680777
-0.045521104
-0.039030498
-0.031093877
-0.021656825
-0.010705661
0.0018779484
0.016179502
0.032253305
0.050239603
0.070287941
0.092499709
0.1170028
0.14394406
0.17342613
0.20553567
0.24037002
0.27798543
0.31838643
0.36157474
0.40756263
0.4563462
0.50790039
0.56221639
0.61931915
0.67924358
0.74206471
0.8079745
0.87732086
0.95064058
1.0287204
1.11268
1.2039779
1.304335
1.4155993
1.5393956
1.6787748
1.8350577
2.0106417
2.2086929
2.4336582
2.6924451
2.9982249
3.3752986
3.8476018
4.3747247
4.6833152
4.8316224
5.2273512
4.5233042
3.0990036
0.97681176
-0.060289147
-0.78335687
0.081553897
0.4939431
0.94019459
1.9462251
2.3662197
2.9072434
3.3658061
3.7998353
4.1983204
4.5541477
4.8656122
5.1352061
5.3671394
5.5657313
5.7350122
5.8787279
6.0002782
6.1026836
6.1886741
6.2606106
6.3205873
6.3704765
6.4119313
6.4463275
6.4749035
6.4987104
6.5186704
6.535518
6.5499049
6.5623281
6.5732555
6.5829956
6.5918087
6.5998531
6.6072863
6.6141829
6.6206127
6.62659
6.6321508
6.6372458
6.6420828
6.6465297
-0.074644176
-0.073693395
-0.073908928
-0.071463317
-0.067897635
-0.063039235
-0.056845336
-0.049266952
-0.040291206
-0.029815015
-0.017756599
-0.0040678919
0.011378578
0.028732343
0.048104688
0.06963643
0.093490963
0.11978944
0.14863648
0.18014243
0.21437439
0.25133995
0.29103049
0.33342657
0.37847042
0.42606725
0.47609946
0.52843927
0.58296585
0.63957442
0.6981905
0.7588062
0.82156306
0.88683497
0.95527909
1.0279282
1.1062703
1.1921682
1.2876924
1.3948946
1.5144432
1.6489734
1.7996065
1.9686827
2.1591495
2.3739791
2.6203552
2.951174
3.4477973
4.2792794
5.4257898
5.0124675
3.4561511
1.3673458
-0.6373296
-2.5238202
-4.3840414
-5.6028185
-5.8614439
-6.0636998
-1.3477993
0.091656576
1.1698764
2.1364272
2.8716988
3.4471861
3.9489393
4.3830266
4.7507509
5.0599585
5.3194655
5.5371833
5.7196023
5.8721383
5.9993921
6.1052767
6.193149
6.2658949
6.3259656
6.3754886
6.4162986
6.4499355
6.4777323
6.5008222
6.5201614
6.5365158
6.5505444
6.5627773
6.5736419
6.5834504
6.5924483
6.600775
6.6085567
6.6158727
6.6227442
6.6292011
6.6352327
6.6407882
6.6460147
6.6506289
-0.093678999
-0.092703967
-0.092938862
-0.090553674
-0.087242522
-0.082648608
-0.076803419
-0.069697702
-0.061226711
-0.051318755
-0.039935872
-0.026960545
-0.012245901
0.0043257961
0.022901259
0.043660867
0.066753052
0.092304927
0.12045698
0.15131354
0.18490701
0.22123877
0.26029324
0.30199821
0.34621241
0.39274837
0.44137508
0.4918244
0.54382096
0.59709238
0.65135656
0.70635383
0.76196244
0.81830399
0.87579358
0.93528949
0.99835211
1.0671992
1.1443397
1.2318279
1.3298495
1.4398354
1.5620538
1.6972757
1.8457447
1.9983534
2.1437692
2.3567843
2.7629075
4.5788311
4.4130164
2.2780902
1.1571959
-0.93055324
-3.8252809
-7.1369116
-10.009449
-11.665315
-11.763377
-10.519982
-8.0675995
-2.6561769
-0.64133891
0.85639327
2.1006323
2.9987419
3.6722102
4.2048934
4.6392189
4.993282
5.2823789
5.5195689
5.7146535
5.8751333
6.0069979
6.1152154
6.2038627
6.2763629
6.3355769
6.3838675
6.4232589
6.4554674
6.4819215
6.5038442
6.5221933
6.537792
6.5512631
6.5631482
6.5738669
6.5837106
6.5928809
6.6015343
6.6097398
6.617549
6.6249779
6.6319993
6.6385961
6.6447037
6.6503271
6.655251
-0.11475307
-0.11362018
-0.11391549
-0.1116831
-0.1085688
-0.10428481
-0.098889032
-0.09228458
-0.084402853
-0.075211449
-0.064608744
-0.052455867
-0.038633976
-0.022989458
-0.0053268386
0.01452549
0.03672217
0.061438438
0.088829434
0.1189822
0.15193843
0.18771458
0.22626065
0.26743732
0.3110327
0.35675547
0.40422656
0.45302132
0.50270547
0.55280338
0.60277663
0.65205848
0.70015314
0.74679031
0.79195582
0.83612847
0.8810476
0.92982145
0.9859224
1.0520824
1.1284258
1.210675
1.3029452
1.4029895
1.5111856
1.5980043
1.6655906
1.8273791
4.230261
3.6204737
1.9912534
0.86089478
-0.80720248
-3.6070609
-7.6705967
-12.399567
-16.416397
-18.54489
-18.33596
-16.038983
-11.912165
-7.2336284
-1.2846869
-0.86106625
1.2932037
2.5727178
3.4170671
4.047617
4.5483103
4.9465253
5.2638706
5.5186765
5.7243961
5.8907628
6.0253082
6.1340715
6.2218871
6.2926984
6.34975
6.3956871
6.4327269
6.4627426
6.4872401
6.5074807
6.524449
6.5389665
6.5516915
6.5631142
6.5736413
6.5835159
6.5928989
6.6019304
6.6106669
6.61911
6.6272191
6.6349462
6.6422097
6.6489777
6.6551209
6.6605209
-0.13767142
-0.13640552
-0.13684208
-0.1346774
-0.13180812
-0.12792087
-0.12298632
-0.11695342
-0.10979788
-0.10142643
-0.091715484
-0.080553325
-0.067785155
-0.053207057
-0.03662475
-0.017854035
0.0033150416
0.027091101
0.053631437
0.083047318
0.11541724
0.15075342
0.18896746
0.22986931
0.27316976
0.31845744
0.36518923
0.41275451
0.46053977
0.50786162
0.55390139
0.59769623
0.6382022
0.67455436
0.70611105
0.73267586
0.75606932
0.78060889
0.81129453
0.85340016
0.9079585
0.96153254
1.0256489
1.092845
1.1720464
1.2188634
1.3159484
2.6033143
3.646595
1.7610713
0.81433035
-0.63144767
-2.8587745
-6.321491
-11.565439
-17.538078
-22.464537
-24.959594
-24.559187
-21.472042
-16.445507
-10.982175
-2.5571263
-1.8349225
0.69212793
2.2340003
3.2191914
3.9388542
4.4969653
4.932678
5.2729557
5.5408423
5.7533144
5.9222127
6.0565238
6.1632961
6.2480801
6.3153314
6.3686243
6.4108804
6.4444866
6.4714265
6.4932697
6.511277
6.5264425
6.5396098
6.5513968
6.5622506
6.5725431
6.5824888
6.5921924
6.6017469
6.6111531
6.620384
6.6293328
6.6379274
6.6460674
6.6536399
6.6604371
6.6665728
-0.16239537
-0.16103375
-0.16151559
-0.15947004
-0.15691181
-0.15341254
-0.14899976
-0.14366196
-0.1373215
-0.12987616
-0.12122821
-0.11123031
-0.099675687
-0.086358611
-0.071071634
-0.053567897
-0.033586802
-0.01090021
0.014689709
0.043355475
0.075206711
0.11024798
0.14837408
0.18935657
0.23281291
0.27820113
0.32480723
0.37178387
0.41828533
0.46345105
0.50622341
0.54519417
0.5785582
0.60448887
0.62128952
0.62721736
0.62297191
0.61469976
0.61432481
0.63631368
0.68007129
0.71679313
0.73260264
0.7592199
0.82159933
0.85793397
0.8601576
2.3975169
0.51363574
0.2846905
-0.57485076
-2.263747
-4.1799306
-8.3832745
-14.280111
-20.927023
-26.253892
-28.896284
-28.315265
-24.965353
-19.601654
-13.540423
-3.8051558
-2.0112225
0.308477
2.0140141
3.1206529
3.9075871
4.5056127
4.9658153
5.3191228
5.5926173
5.8058837
5.9724573
6.1025438
6.204007
6.2830183
6.34443
6.3921037
6.429156
6.4580729
6.4809652
6.4993569
6.5145812
6.527585
6.5391399
6.5498269
6.5600584
6.5701436
6.5802438
6.5904314
6.6006954
6.6109858
6.6211931
6.6312238
6.6408997
6.6501098
6.6586535
6.6661849
6.6725682
-0.18885231
-0.18728278
-0.18788222
-0.18599378
-0.18371088
-0.18064722
-0.17686049
-0.1722895
-0.16686039
-0.16050619
-0.15309519
-0.14443196
-0.13430923
-0.12250662
-0.10875084
-0.09273511
-0.074165557
-0.052758421
-0.028231356
-0.00034637359
0.031041353
0.065965294
0.10432923
0.14585933
0.19007158
0.23629206
0.28361776
0.33090192
0.37701042
0.42096595
0.46159821
0.49709746
0.52463947
0.54083027
0.54234554
0.52475542
0.48595783
0.43587901
0.39497113
0.37796241
0.39736007
0.41431227
0.37943365
0.38942784
0.49017563
0.5122479
0.52804183
-0.16843768
-0.59107208
-0.92818735
-1.7833277
-3.123438
-5.1404152
-9.1969963
-14.969329
-21.469109
-26.646536
-29.215419
-28.918318
-25.431183
-20.369333
-14.252552
-4.4551227
-2.2250379
0.3443461
2.0624156
3.1926282
3.9893872
4.5963132
5.0595244
5.4111187
5.6798069
5.8859206
6.0439401
6.1648462
6.2570188
6.3270187
6.3799169
6.4198214
6.4499872
6.4727464
6.4905871
6.5048138
6.5166629
6.5270999
6.5368064
6.5463267
6.5559605
6.5659555
6.576349
6.5871958
6.5983888
6.6098399
6.6213354
6.6327106
6.6437483
6.6543045
6.6641304
6.6724117
6.6803864
-0.21685523
-0.21512426
-0.21585079
-0.21404847
-0.21207678
-0.20952581
-0.20640804
-0.20268368
-0.19831915
-0.19322187
-0.18721999
-0.18012127
-0.17170865
-0.16169868
-0.1497551
-0.13552913
-0.11866196
-0.098768924
-0.075470096
-0.048449267
-0.017486053
0.017524811
0.056519088
0.099187675
0.14494566
0.19295963
0.24208004
0.29079246
0.33761
0.38143336
0.42121576
0.45527289
0.47992863
0.48922173
0.47662332
0.43308566
0.34854367
0.227608
0.10651851
0.080624432
0.16595548
0.30638293
0.014579379
-0.039884928
0.081113712
0.1327877
-0.0055823518
-0.57884876
-1.2027722
-1.5944493
-2.4814883
-3.6925683
-5.2717616
-8.6657418
-13.630662
-19.195878
-23.787726
-26.143627
-25.855266
-23.131638
-18.608658
-12.887283
-4.3325096
-1.668539
0.6520103
2.3451241
3.4219157
4.1927421
4.7785935
5.2211054
5.554418
5.8061754
5.9959495
6.1382992
6.2443157
6.3226368
6.3799107
6.4212275
6.4509485
6.4723337
6.4877936
6.4993959
6.508608
6.5165398
6.524064
6.5317609
6.540075
6.5491938
6.5592523
6.5702001
6.5819933
6.5944507
6.607367
6.6205105
6.633591
6.6463313
6.6584688
6.6693361
6.6794908
6.6892188
-0.24637253
-0.24443821
-0.24519435
-0.24349378
-0.24187261
-0.23984007
-0.23744823
-0.23470444
-0.23155088
-0.22787025
-0.22350813
-0.21826514
-0.21186789
-0.20397625
-0.19421411
-0.18216562
-0.16736155
-0.149301
-0.12749393
-0.10149603
-0.070953009
-0.035651607
0.0044142061
0.048945359
0.097270377
0.14835002
0.20067592
0.25223505
0.30116499
0.34633292
0.38694304
0.42198917
0.44791289
0.45506543
0.4299365
0.35759101
0.21903251
0.0054821957
-0.21620472
-0.34582072
-0.13238518
-0.41501116
-0.86907165
-1.0217014
-0.69984184
-0.40947373
-0.5526206
-0.97847651
-1.7838311
-1.9903623
-2.8401712
-3.6341806
-4.8525203
-7.3298528
-10.893311
-15.187773
-18.54753
-20.331048
-20.15088
-18.116112
-14.479708
-10.507831
-3.3504634
0.53005199
1.1567142
2.7971553
3.8046871
4.5167896
5.0504567
5.451074
5.7504217
5.9727599
6.1369249
6.2560017
6.3407572
6.4003113
6.4407723
6.467445
6.4845329
6.4951537
6.5016845
6.5060037
6.5094502
6.5130118
6.5173714
6.5230093
6.5301636
6.5389354
6.5493082
6.561149
6.574264
6.5884005
6.6032423
6.6184498
6.6336431
6.6485378
6.66274
6.6756578
6.6873909
6.6991436
-0.27729537
-0.27500942
-0.27577925
-0.27415294
-0.27284412
-0.27135744
-0.26979573
-0.2681491
-0.26634751
-0.26429929
-0.26185815
-0.25878167
-0.25475034
-0.24939389
-0.24227682
-0.23287982
-0.22061149
-0.20483811
-0.18491164
-0.16020391
-0.13017289
-0.094428744
-0.052811851
-0.0055540853
0.046600474
0.10238299
0.15975665
0.21586693
0.26827917
0.31583512
0.35829963
0.39752628
0.43367674
0.45374996
0.42984015
0.34776839
0.17321637
-0.23512491
1.1441304
2.304156
-1.4307678
-1.3281838
-1.9390097
-2.5043428
-2.3726885
-1.8380697
-1.310678
-2.0095199
0.85237728
0.08788681
-3.1027576
-3.4250669
-4.2492642
-5.7735356
-7.9334086
-10.872334
-12.588845
-12.328408
-12.733119
-12.077463
-10.01485
-6.3410002
-1.4148242
1.6328068
2.1207931
3.4522307
4.3183667
4.9389608
5.4006724
5.7440655
5.996641
6.1789138
6.3076989
6.3957728
6.4533136
6.4886763
6.5081784
6.5168913
6.5187506
6.5166596
6.5127959
6.5088106
6.5058509
6.5046712
6.5057453
6.5093531
6.5155437
6.5242527
6.5353027
6.5484499
6.5633775
6.5796748
6.5969624
6.614784
6.6326346
6.6501902
6.6669827
6.6821886
6.6959893
6.7101879
-0.30954936
-0.30674211
-0.30738913
-0.30574837
-0.30473792
-0.30385951
-0.30320053
-0.30275336
-0.30249055
-0.30233175
-0.30210329
-0.30154056
-0.3003096
-0.29799524
-0.29407633
-0.28792682
-0.27882677
-0.26596984
-0.24849346
-0.22553205
-0.19627892
-0.16005112
-0.11641169
-0.06543877
-0.0079051571
0.054738397
0.11976267
0.18264331
0.23956605
0.29000388
0.33495605
0.37854494
0.42779165
0.47974373
0.47382246
0.39242885
0.22012407
0.5213086
2.9767131
1.1678544
-1.0578734
-0.96883941
-2.4161136
-3.6510336
-3.6642994
-2.7816208
-1.7417569
-2.2893664
6.8072689
6.5422404
-2.5198247
-2.9965237
-3.1935708
-4.2425716
-5.7569998
-7.0967795
-7.9110578
-6.3833456
-6.5913887
-5.6867349
-4.0375809
-1.7294658
0.87286012
2.129154
3.2757868
4.2597447
4.9443459
5.4474132
5.8218933
6.0957919
6.289998
6.4219313
6.5065089
6.5558266
6.5795675
6.5855065
6.5798177
6.5672163
6.5512877
6.5346214
6.5190457
6.5059046
6.4960225
6.4898613
6.4876593
6.4893989
6.4949279
6.5039952
6.516246
6.5312663
6.5485805
6.5676701
6.5880186
6.6090553
6.6302071
6.6510413
6.6709536
6.6889073
6.7052641
6.7223553
-0.34338228
-0.33940668
-0.33968435
-0.33799364
-0.33730485
-0.33705605
-0.3373575
-0.33824909
-0.33972663
-0.34170199
-0.34400412
-0.34637576
-0.34845959
-0.3497771
-0.34972778
-0.34758447
-0.34247258
-0.333378
-0.31918823
-0.2987284
-0.27080238
-0.23428053
-0.18827344
-0.13252105
-0.067687051
0.0047250975
0.081233397
0.15444162
0.21706861
0.26893287
0.3137276
0.36062091
0.42020918
0.51942747
0.51014712
0.43663579
0.20325891
0.32394213
2.5871992
1.1335305
1.0060153
2.1800779
-2.0068327
-3.5613156
-3.604867
-2.4727276
-1.428044
-2.0539221
-0.69156705
6.199216
-3.2177467
-2.1981939
-2.0866263
-2.7747818
-3.389081
-4.2589875
-4.7791868
-4.385731
-2.9475847
-1.8519187
-0.13043541
1.7004394
2.629223
3.5821706
4.4625442
5.1351298
5.6420411
6.0238867
6.3046098
6.5001669
6.6263238
6.6985362
6.7303547
6.7332373
6.716575
6.6877949
6.6526568
6.6154528
6.5792937
6.5463264
6.5179031
6.4949481
6.4778241
6.466663
6.4613494
6.4615889
6.4669491
6.4769628
6.4910427
6.5086306
6.5290601
6.5516813
6.5758373
6.6008169
6.6259725
6.6507866
6.6744596
6.6957179
6.7151837
6.7357309
-0.37724495
-0.37235989
-0.37228042
-0.37059606
-0.37022138
-0.37061751
-0.37196143
-0.37432103
-0.37770889
-0.38206952
-0.38727044
-0.39305363
-0.39902861
-0.40467223
-0.40931721
-0.41212266
-0.41204539
-0.40785467
-0.39814972
-0.38135403
-0.35575215
-0.31959249
-0.27125343
-0.2097534
-0.13530241
-0.049143123
0.044724815
0.13440186
0.20379767
0.25076905
0.28485453
0.32821743
0.36394141
0.55627615
0.47031257
0.47253921
0.1583884
-0.13637239
0.61676566
1.0664662
1.4966114
3.631134
-0.7603048
-2.1968859
-2.1652208
-0.79548124
0.26798234
-0.38147944
-2.0225054
0.91582957
-4.3675206
-1.9230051
-1.702608
-1.8374795
-1.9892308
-2.3101293
-1.6326117
-1.0269717
-0.43139848
0.53865574
1.7827518
2.9312964
4.0754699
4.8724989
5.5176974
6.0067185
6.3784594
6.6524284
6.8396815
6.9512359
7.0012648
7.0047646
6.9751662
6.9238511
6.8601678
6.7913632
6.7226782
6.657822
6.5992854
6.5485709
6.5064625
6.4732683
6.4488613
6.4329252
6.4249129
6.4242204
6.4300872
6.4417909
6.4585278
6.4794882
6.5038846
6.5309144
6.5597492
6.589532
6.619523
6.6491152
6.6772732
6.7024848
6.7257192
6.7503904
-0.41123005
-0.40512151
-0.4048934
-0.40323147
-0.40316243
-0.40423015
-0.40666159
-0.41055912
-0.41601424
-0.42304029
-0.43153122
-0.44123237
-0.45174804
-0.46253117
-0.47284712
-0.4817449
-0.48803556
-0.49027126
-0.48671147
-0.47531035
-0.45374112
-0.41940987
-0.36956351
-0.30195652
-0.21556787
-0.11049287
0.0093934986
0.12683219
0.20915407
0.2420691
0.2325493
0.28474883
0.36564466
0.52334188
0.47085121
0.38848851
0.22200033
0.20804697
0.28201881
-0.88893648
-0.77615794
1.2265741
0.99500265
0.047046478
0.17993575
1.9948741
3.2590207
2.0065497
-1.3757897
-5.5553185
-6.9530941
-4.6009783
-2.7268245
-1.1627129
-1.1413421
-0.72491089
-0.30686507
1.2069066
2.1764087
3.1040986
3.9929683
4.8167692
5.5249948
6.0526301
6.5063361
6.8721992
7.1446866
7.3261965
7.4223254
7.4451659
7.4109109
7.3361559
7.2358181
7.122196
7.004872
6.8908159
6.7847195
6.6895353
6.6068851
6.5374235
6.4811937
6.437737
6.4063742
6.3862114
6.3762181
6.3753898
6.3826696
6.3970012
6.4173769
6.4427342
6.4720849
6.504502
6.5389955
6.5745598
6.6103447
6.6456507
6.6791332
6.7090364
6.7368317
6.7663848
-0.44421934
-0.4380932
-0.43719882
-0.43565225
-0.43585924
-0.43754449
-0.44102456
-0.44649937
-0.45417182
-0.46412845
-0.4762935
-0.49045168
-0.50623242
-0.52307015
-0.54017776
-0.55653674
-0.5708487
-0.58145696
-0.58628341
-0.58281592
-0.56804979
-0.53830083
-0.48927428
-0.41680693
-0.31681439
-0.18527056
-0.025754334
0.13618265
0.24390488
0.26678713
0.23772163
0.22299663
0.30136809
0.44837336
0.44477788
0.33085415
0.15999463
0.014967908
0.52302821
0.70151096
1.5343869
2.9822919
3.6692402
2.7755826
2.800705
5.5735998
8.1691577
4.9271453
-3.2733066
-12.191796
-10.0994
-7.0664222
-2.2893539
0.57220465
0.33312171
-0.057648208
1.1079009
1.9741507
3.1774727
4.6177961
5.4930057
6.1735077
6.6942972
7.1068545
7.4638577
7.7540077
7.9524748
8.0509324
8.0549469
7.9814544
7.8519528
7.6874653
7.5059302
7.3213344
7.1436302
6.9794162
6.8325447
6.7048968
6.5969628
6.5083564
6.4381043
6.3848989
6.3473151
6.3238215
6.3128996
6.3130684
6.3228884
6.3410207
6.366165
6.3970867
6.4325597
6.4714859
6.5127443
6.5551559
6.5978261
6.6399202
6.6797006
6.7151549
6.7484314
6.7837664
-0.47656792
-0.47050128
-0.46919727
-0.46769481
-0.46802296
-0.47016511
-0.47459393
-0.48164445
-0.4916261
-0.50472099
-0.52093426
-0.54011413
-0.56192205
-0.58580134
-0.61096876
-0.63639025
-0.66069131
-0.68206212
-0.69820044
-0.706239
-0.70250882
-0.68210892
-0.63905409
-0.56700779
-0.45681741
-0.29749101
-0.090792231
0.14578112
0.2900183
0.25339787
0.11784975
0.073251923
0.19412865
0.36713292
0.70234559
0.22955801
-0.082640402
0.26355727
-0.52919554
-1.0800274
1.7887706
6.6124458
7.3618439
4.0835192
4.1572232
9.9213426
17.439368
11.25485
-6.2481201
-22.379926
-20.414316
-10.403608
0.36019175
4.8801879
1.6180499
-0.18409058
1.6012163
3.2039457
4.4367677
5.4576649
6.4114047
7.1115299
7.6361251
8.0511752
8.4032541
8.6713211
8.820894
8.8412669
8.7457939
8.5620279
8.321278
8.0521819
7.7771312
7.5121717
7.2674458
7.0487024
6.8584814
6.6971237
6.5636262
6.456237
6.3727612
6.3109004
6.2683613
6.2429016
6.2324373
6.2350201
6.2487873
6.2721118
6.3033989
6.3411884
6.3840719
6.4307508
6.4800222
6.5305126
6.5812751
6.6313392
6.6785052
6.7205113
6.760398
6.8025607
-0.5083368
-0.50272456
-0.50054691
-0.49912382
-0.49934469
-0.50171988
-0.50691396
-0.5154197
-0.52770216
-0.5440851
-0.56468746
-0.58942725
-0.61802339
-0.64998477
-0.68459603
-0.72085295
-0.7573824
-0.79236579
-0.82347435
-0.84773472
-0.86108361
-0.8576094
-0.82992521
-0.76996159
-0.66149433
-0.47291598
-0.2037002
0.044013309
0.13756934
0.084309847
-0.12611473
-0.17331879
0.17012605
0.50975551
0.96077497
0.27481983
1.2596736
0.99066747
0.17366608
-1.8624788
0.28968173
13.030646
14.133904
2.3659208
1.0304868
15.175413
37.687596
27.777713
-8.2826896
-41.361584
-41.212703
-16.094465
5.3205173
14.486351
0.92686963
-3.2598456
0.30048639
4.2491373
5.0508649
7.0885147
8.3828711
8.2948339
8.5474609
8.9672377
9.3708512
9.6663958
9.7876396
9.7245987
9.5090395
9.1898169
8.81399
8.420749
8.0377379
7.6825525
7.3646796
7.0881351
6.8532675
6.6582371
6.5000609
6.3752676
6.2802502
6.2115424
6.1659138
6.1403589
6.1321703
6.1388927
6.1583151
6.1884434
6.2274322
6.2735668
6.3252859
6.3810569
6.4397546
6.4996623
6.5598571
6.6191902
6.6749626
6.7246895
6.7725086
6.8227467
-0.53959041
-0.53458633
-0.53166102
-0.52983265
-0.52964349
-0.5318791
-0.53747357
-0.54714299
-0.56160868
-0.58134616
-0.60658806
-0.63735328
-0.67347218
-0.71457446
-0.76004776
-0.80898165
-0.8601547
-0.91196141
-0.96231272
-1.0085803
-1.0470418
-1.0715466
-1.0746677
-1.0532424
-0.99489817
-0.83155808
-0.53114871
-0.33056052
-0.44205716
-0.82773222
-1.4095358
-1.0844121
-0.080330192
0.91700006
1.3683138
1.4500709
2.242114
-0.04217057
-5.2606222
-7.3197237
-10.366545
20.992155
50.65967
38.804699
-16.404812
12.549968
84.748597
101.08185
136.50626
367.2609
293.93692
81.535549
84.280967
41.871344
-14.145105
-10.036807
10.189917
9.1787618
4.539483
8.8551759
9.7725964
9.540889
9.4274876
9.8454929
10.412895
10.809411
10.914972
10.74122
10.36288
9.8656334
9.3202198
8.7779577
8.2708454
7.8160667
7.4205343
7.0848777
6.8060271
6.5791467
6.3987037
6.259186
6.1553563
6.0824566
6.0362492
6.0129643
6.0092847
6.0222436
6.0492866
6.0880817
6.1365129
6.1926522
6.2548231
6.32152
6.3907732
6.4614541
6.5325046
6.6025373
6.6682943
6.7271009
6.7844215
6.8442717
-0.57072694
-0.56643239
-0.56261899
-0.55989572
-0.55881777
-0.56025954
-0.56568682
-0.57601768
-0.59241045
-0.61543078
-0.64543003
-0.68258972
-0.72689431
-0.77812604
-0.83581741
-0.89925204
-0.96751261
-1.0394219
-1.1134781
-1.1881031
-1.2609599
-1.3266241
-1.3837515
-1.4531391
-1.5155763
-1.3827214
-1.0605643
-0.98047596
-1.1433124
-1.7740181
-3.6268746
-3.3439488
-0.88187203
1.4529045
2.5176876
2.4865154
3.4343668
-0.9489286
-2.5124359
-12.131453
-16.784469
-27.01393
148.73051
205.43355
620.71547
608.68815
138.12356
1166.5127
4910.2559
8362.313
7709.2568
3897.2718
704.25792
-64.888788
335.20649
99.989399
79.310616
6.325826
7.7233099
13.597826
11.677045
10.269883
9.8186292
10.585758
11.600599
12.220564
12.299695
11.943972
11.322378
10.58063
9.8190808
9.0989157
8.4519945
7.8908296
7.4163983
7.0235396
6.7042544
6.4497302
6.251364
6.1013069
5.9925576
5.9190331
5.8754898
5.857406
5.8608986
5.8825745
5.9194754
5.9689942
6.0287721
6.0967036
6.1709323
6.2498001
6.3314346
6.4144595
6.4979058
6.5801906
6.6574626
6.7269002
6.7956124
6.8669826
-0.60244288
-0.59889002
-0.59397978
-0.58956216
-0.58667615
-0.58667226
-0.59097171
-0.60108388
-0.61899475
-0.64505166
-0.67978036
-0.72356057
-0.77655769
-0.83873538
-0.90984328
-0.9894615
-1.0770618
-1.172029
-1.2737922
-1.3824876
-1.4980059
-1.6185476
-1.7598415
-1.9736287
-2.2120782
-2.1149801
-1.9919928
-2.49735
-3.2153341
-3.7405094
-5.0045182
-4.715987
-0.98284126
2.8184724
5.1620146
4.7087684
2.5762978
-2.6998584
-4.0784572
-2.9285863
-135.04203
-308.23476
-304.28896
464.74579
5593.8873
7914.9516
5906.3442
5147.9679
6391.5863
7836.9475
7590.4922
6141.2798
5268.4276
6064.4119
5842.4815
2266.7424
490.18049
-66.891899
-5.1170998
33.052092
19.936092
12.165532
9.7783552
11.192136
13.147913
14.13338
14.087174
13.388882
12.384907
11.303832
10.270318
9.3441502
8.5466498
7.8784035
7.3295725
6.8863083
6.5340314
6.2590976
6.0494491
5.8947415
5.7862505
5.7166406
5.6797477
5.67038
5.6841405
5.7172941
5.76655
5.8290497
5.9022449
5.9838818
6.0719595
6.1646882
6.260175
6.357067
6.4544952
6.5506851
6.6411391
6.7229349
6.805247
6.8904614
-0.63615328
-0.63342673
-0.62674317
-0.61936703
-0.61330951
-0.6104453
-0.61333262
-0.6208638
-0.64009844
-0.66875362
-0.70797123
-0.75837651
-0.82034554
-0.89406036
-0.97953763
-1.0766918
-1.1854088
-1.3056854
-1.4379885
-1.5842613
-1.7470402
-1.9307054
-2.1700265
-2.5401201
-2.9642457
-3.1319161
-2.9265792
-4.6209623
-5.3151861
-4.9640186
-5.9396054
-3.7586072
-0.41301674
5.0695045
9.7120024
10.602651
7.4519521
-2.522672
-25.364227
-64.15399
-193.74164
447.24282
2410.4362
4350.3579
6280.8665
6791.4731
6119.3549
5887.4715
6296.2754
6773.9122
6682.0427
6176.0376
5841.4691
6121.5366
6536.1718
5508.3522
3137.3647
1374.6679
225.56759
92.42986
13.341864
1.4418722
4.4453282
10.856216
15.518532
16.963108
16.45973
15.097887
13.497072
11.961421
10.604459
9.4550445
8.5086762
7.7436808
7.1338173
6.653682
6.28077
5.9961816
5.7844078
5.6327794
5.5310256
5.4708076
5.445221
5.44857
5.4760817
5.5237378
5.5880593
5.6659955
5.7548256
5.8521911
5.9560778
6.0642913
6.1751399
6.2873734
6.4003389
6.5121378
6.617562
6.7136367
6.8120505
6.9138402
-0.67406462
-0.67205404
-0.66249053
-0.65025449
-0.63892968
-0.63105405
-0.62952334
-0.63635532
-0.65464202
-0.68494996
-0.72805745
-0.78479325
-0.85573619
-0.94131008
-1.0417969
-1.1574023
-1.2883916
-1.435312
-1.5993977
-1.7836371
-1.9925806
-2.2368609
-2.5596195
-3.0234347
-3.5629392
-3.9718799
-4.1507828
-6.1633641
-0.11317338
9.5005947
0.93496206
-0.73742381
1.5866689
7.6104506
16.146356
20.246278
19.667086
13.489068
-8.9908196
-113.87627
1316.5298
3946.6824
5528.6149
5733.7664
5985.3417
6140.9975
5984.207
5926.0544
6073.93
6234.6954