/*--------------------------------*- C++ -*----------------------------------*\
  =========                 |
  \\      /  F ield         | OpenFOAM: The Open Source CFD Toolbox
   \\    /   O peration     | Website:  https://openfoam.org
    \\  /    A nd           | Version:  9
     \\/     M anipulation  |
\*---------------------------------------------------------------------------*/
FoamFile
{
    format      ascii;
    class       volScalarField;
    location    "8";
    object      p;
}
// * * * * * * * * * * * * * * * * * * * * * * * * * * * * * * * * * * * * * //

dimensions      [0 2 -2 0 0 0 0];

internalField   nonuniform List<scalar> 
400
(
4.6686452e-07
-0.00065260036
-0.0013360366
-0.0018632508
-0.0021121795
-0.0020243189
-0.0015771927
-0.00076488743
0.00039862692
0.0018640541
0.0035313768
0.0052424165
0.0067942877
0.0079705228
0.0085937731
0.0085858051
0.0080103915
0.0070779068
0.0061185077
0.0055645637
0.00064091767
-3.7010398e-05
-0.00054342665
-0.00088986139
-0.0010346923
-0.00093893039
-0.00058238705
4.5761715e-05
0.00094203004
0.002073893
0.0033663347
0.0047077334
0.0059329976
0.0068715587
0.0073831312
0.0074055936
0.006988841
0.0062990727
0.0055759992
0.0050130197
0.0013766617
0.00042414287
-0.00010952888
-0.00042227495
-0.00055735568
-0.00049901901
-0.00023252309
0.00025922752
0.00098777222
0.0019416609
0.0030711288
0.0042755103
0.0054055187
0.0062924181
0.0067872121
0.0068112524
0.006395189
0.0056871622
0.0048798765
0.0040460926
0.0019386045
0.00064779547
9.8417613e-06
-0.0003395497
-0.00052146667
-0.00054140171
-0.00038793557
-3.3402516e-05
0.00055478566
0.0013905721
0.0024458486
0.0036353758
0.0048076609
0.0057737152
0.0063478031
0.0064073969
0.0059485905
0.0051089032
0.0040633488
0.0028094938
0.0020753816
0.00045570995
-0.00030569637
-0.00072749261
-0.00099894897
-0.0011406676
-0.0011389342
-0.00094964141
-0.0005127102
0.00021788472
0.0012421132
0.0024976301
0.0038259296
0.0050064677
0.0057938376
0.0059902733
0.0055288759
0.0045274121
0.0031601252
0.0013672864
0.0015682377
-0.00034241607
-0.0012318015
-0.0017553721
-0.0021603862
-0.0024765981
-0.0026822276
-0.0027106745
-0.0024670505
-0.0018632173
-0.00085907052
0.00052657341
0.0021274521
0.0036898992
0.0048869942
0.005404471
0.0050645111
0.0039348865
0.0021887697
-0.0002873278
0.00023716677
-0.001910172
-0.0029252691
-0.0035788968
-0.004166685
-0.0047237104
-0.005216293
-0.005550554
-0.0055889747
-0.0051838707
-0.0042212321
-0.0027063848
-0.00073713939
0.0013995469
0.0032756817
0.0044092598
0.0044364892
0.0033095301
0.001166262
-0.0021810069
-0.002057793
-0.0043773451
-0.0055122038
-0.0063242812
-0.0071493686
-0.0080274503
-0.0089127094
-0.0096819079
-0.010148195
-0.010093068
-0.0093141899
-0.007710385
-0.0053203586
-0.0024184957
0.00047137385
0.0026487782
0.0034598491
0.0026215702
0.00014124197
-0.0043101401
-0.0054066033
-0.0078290161
-0.0090731904
-0.010067173
-0.011181454
-0.012465053
-0.013864576
-0.015229962
-0.016322265
-0.016840149
-0.016464656
-0.01494087
-0.012181171
-0.0083823513
-0.0041242575
-0.00035223881
0.0018699826
0.0018378329
-0.0007690842
-0.0065802184
-0.0098374036
-0.012295003
-0.013626417
-0.014805375
-0.016237694
-0.017991604
-0.020016251
-0.022142878
-0.024084046
-0.025449329
-0.0257757
-0.02460757
-0.021682946
-0.016997117
-0.011090599
-0.005120233
-0.0006545678
0.00093907183
-0.0013296961
-0.0087152235
-0.015312398
-0.017748652
-0.019118548
-0.020437118
-0.022158985
-0.024389953
-0.027097077
-0.03010536
-0.033087587
-0.035566121
-0.036920422
-0.036441808
-0.033728201
-0.028361116
-0.020711156
-0.01202187
-0.0043651128
-8.23024e-06
-0.0011090557
-0.010106197
-0.021741509
-0.024122349
-0.02542915
-0.02675212
-0.02863308
-0.031244404
-0.034589577
-0.038500168
-0.042618576
-0.046387994
-0.049068733
-0.04980256
-0.047557791
-0.041839908
-0.032595228
-0.020900963
-0.0091627266
-0.00067240933
0.0006531543
-0.0095622387
-0.02902872
-0.031346684
-0.032390791
-0.033438323
-0.035199931
-0.037954515
-0.041757724
-0.046452522
-0.051654651
-0.056735837
-0.060823037
-0.062833651
-0.061521142
-0.055871719
-0.045367289
-0.030676611
-0.014200817
-0.00015083694
0.0052690522
-0.0049361392
-0.037176778
-0.039417392
-0.039819263
-0.040100144
-0.041283718
-0.043797453
-0.047750159
-0.052982652
-0.059069196
-0.065305241
-0.070693141
-0.073959438
-0.073612862
-0.068209828
-0.056710274
-0.039170327
-0.017564246
0.0033812714
0.014959613
0.0073543982
-0.046511572
-0.048492464
-0.047535544
-0.046275907
-0.04624473
-0.048028566
-0.051752613
-0.05721251
-0.063894846
-0.070992243
-0.07737172
-0.081578104
-0.081892216
-0.076495628
-0.06387663
-0.043418684
-0.016319484
0.012878687
0.033271386
0.032667073
-0.058207378
-0.059040331
-0.055351875
-0.051441411
-0.049441901
-0.049999456
-0.053149834
-0.058567663
-0.06556331
-0.073183032
-0.080119301
-0.084721176
-0.085051199
-0.078950612
-0.064504933
-0.04046941
-0.0071141457
0.032244117
0.065079698
0.07779508
-0.075635288
-0.072117436
-0.06311785
-0.055098487
-0.050371639
-0.049323916
-0.051698263
-0.056884281
-0.063980795
-0.071805218
-0.07884198
-0.083222315
-0.082770966
-0.074962909
-0.057445377
-0.028402113
0.012787271
0.065261638
0.11541925
0.15134589
-0.10765138
-0.089210371
-0.071007827
-0.057083012
-0.048904049
-0.046046776
-0.047619507
-0.0525611
-0.059648151
-0.0674398
-0.074196379
-0.07781501
-0.075869078
-0.06552835
-0.043825784
-0.0079798618
0.044104919
0.11267733
0.18807546
0.27153953
-0.17654834
-0.10806156
-0.076122663
-0.054647218
-0.042963888
-0.038845775
-0.040233701
-0.045397126
-0.052754498
-0.060668886
-0.067269134
-0.070311226
-0.067092399
-0.054489159
-0.029127266
0.013383095
0.077829223
0.16968396
0.28910926
0.47384566
-0.37178934
-0.1245121
-0.054923056
-0.032008883
-0.022102526
-0.020228981
-0.024110487
-0.031513746
-0.040650831
-0.049928541
-0.057588112
-0.061528834
-0.05926816
-0.047765787
-0.022591831
0.02134578
0.09254605
0.20980613
0.40252572
0.77605419
)
;

boundaryField
{
    movingWall
    {
        type            zeroGradient;
    }
    fixedWalls
    {
        type            zeroGradient;
    }
    frontAndBack
    {
        type            empty;
    }
}


// ************************************************************************* //
