/*--------------------------------*- C++ -*----------------------------------*\
  =========                 |
  \\      /  F ield         | OpenFOAM: The Open Source CFD Toolbox
   \\    /   O peration     | Website:  https://openfoam.org
    \\  /    A nd           | Version:  9
     \\/     M anipulation  |
\*---------------------------------------------------------------------------*/
FoamFile
{
    format      ascii;
    class       surfaceScalarField;
    location    "8";
    object      phi;
}
// * * * * * * * * * * * * * * * * * * * * * * * * * * * * * * * * * * * * * //

dimensions      [0 3 -1 0 0 0 0];

internalField   nonuniform List<scalar> 
760
(
1.1883256e-05
-1.1888947e-05
-2.8982809e-05
4.0866151e-05
-0.00012054274
9.1560064e-05
-0.00024561094
0.00012506825
-0.00038769597
0.000142085
-0.00053326127
0.00014556547
-0.00067060458
0.00013734343
-0.00078829133
0.00011768676
-0.00087442857
8.6137208e-05
-0.00091731849
4.2889899e-05
-0.00090726503
-1.0053444e-05
-0.000839512
-6.7753012e-05
-0.00071703945
-0.00012247254
-0.0005526211
-0.00016441836
-0.00036862101
-0.00018400012
-0.00019399845
-0.00017462259
-5.8169336e-05
-0.00013582915
1.754561e-05
-7.5715004e-05
2.9278681e-05
-1.1733171e-05
2.9278557e-05
-4.2469114e-05
3.0580267e-05
-0.0002000289
0.00019842599
-0.00045698053
0.00034851167
-0.00078057794
0.00044866584
-0.0011375073
0.00049901449
-0.0014969618
0.00050502006
-0.0018301227
0.00047050438
-0.0021089193
0.00039648332
-0.0023059341
0.00028315198
-0.0023963358
0.00013329168
-0.0023624325
-4.3956725e-05
-0.0021964461
-0.00023373946
-0.0019081721
-0.0004107466
-0.0015260922
-0.00054649823
-0.0010968666
-0.00061322574
-0.00067926952
-0.00059221979
-0.0003326586
-0.00048244023
-0.00010191604
-0.00030645779
-2.5549559e-06
-0.00011109453
2.6723594e-05
-0.00010707617
0.00013765644
-0.00039186084
0.00048321084
-0.0008081557
0.00076480663
-0.0013080695
0.0009485797
-0.0018460118
0.0010369568
-0.0023796554
0.0010386638
-0.002868807
0.00095965606
-0.0032743582
0.00080203452
-0.003558871
0.00056766478
-0.0036894652
0.00026388585
-0.0036422453
-9.1176669e-05
-0.0034081335
-0.00046785124
-0.0029991112
-0.00081976893
-0.0024514223
-0.0010941871
-0.0018254416
-0.0012392064
-0.0011993514
-0.00121831
-0.00065551369
-0.001026278
-0.00026112568
-0.00070084592
-4.8229643e-05
-0.00032399064
-2.1505978e-05
-0.00016814498
0.00030580144
-0.00057543252
0.00089049844
-0.0011428026
0.0013321768
-0.0018042986
0.0016100758
-0.0025034673
0.0017361255
-0.0031900075
0.0017252041
-0.0038166614
0.00158631
-0.0043374996
0.0013228727
-0.0047084228
0.00093858794
-0.004890039
0.00044550205
-0.0048525845
-0.00012863127
-0.0045815539
-0.00073888188
-0.0040854952
-0.0013158276
-0.0034009998
-0.0017786826
-0.0025953907
-0.0020448155
-0.001762734
-0.0020509667
-0.0010101536
-0.0017788585
-0.00043449203
-0.0012765075
-9.588989e-05
-0.00066259273
-0.00011739577
-0.00022251775
0.00052831926
-0.00074163622
0.001409617
-0.0014470618
0.0020376025
-0.0022552948
0.0024183089
-0.0031004999
0.0025813306
-0.0039270765
0.0025517807
-0.0046839912
0.0023432247
-0.0053216253
0.0019605069
-0.0057913566
0.0014083192
-0.0060476695
0.00070181483
-0.0060530992
-0.00012320164
-0.0057825568
-0.0010094242
-0.0052343229
-0.0018640615
-0.0044373291
-0.0025756763
-0.0034591721
-0.0030229724
-0.0024075296
-0.0031026093
-0.0014189741
-0.002767414
-0.00063146004
-0.0020640215
-0.00014682051
-0.0011472321
-0.00026421624
-0.00026872701
0.00079704625
-0.0008845571
0.0020254471
-0.0017104087
0.0028634541
-0.0026476801
0.0033555803
-0.0036232824
0.0035569329
-0.0045788274
0.0035073258
-0.0054623463
0.0032267436
-0.0062232094
0.0027213701
-0.0068100959
0.0019952056
-0.0071713863
0.0010631052
-0.0072603845
-3.4203483e-05
-0.0070358733
-0.0012339354
-0.0064791733
-0.0024207616
-0.0056020216
-0.003452828
-0.0044631324
-0.0041618617
-0.0031785831
-0.0043871586
-0.001917697
-0.0040283001
-0.00087337115
-0.0031083474
-0.000208351
-0.0018122522
-0.00047256732
-0.00030517781
0.0011022241
-0.00099847903
0.0027187484
-0.0019219916
0.0037869668
-0.0029654577
0.0043990464
-0.004051047
0.0046425222
-0.0051200811
0.0045763598
-0.006122394
0.0042290565
-0.0070090994
0.0036080756
-0.0077285151
0.0027146213
-0.0082248997
0.0015594898
-0.0084376907
0.00017858746
-0.0083130257
-0.0013586005
-0.0078048409
-0.0029289463
-0.0068980205
-0.0043596484
-0.0056293977
-0.0054304844
-0.004111606
-0.0059049504
-0.0025435697
-0.0055963364
-0.0011861399
-0.0044657771
-0.00028998021
-0.0027084118
-0.00076254768
-0.00033000425
0.0014322284
-0.0010774858
0.0034662301
-0.0020702168
0.0047796979
-0.0031899027
0.0055187324
-0.0043564497
0.0058090693
-0.0055132573
0.0057331674
-0.0066146738
0.0053304731
-0.007616678
0.0046100798
-0.0084705457
0.003568489
-0.0091189421
0.0022078861
-0.0094937702
0.00055341546
-0.0095222979
-0.0013300728
-0.0091317075
-0.0033195368
-0.0082698402
-0.0052215157
-0.0069350332
-0.0067652914
-0.0052155762
-0.0076244074
-0.0033244371
-0.0074874755
-0.001595854
-0.0061943602
-0.00040244947
-0.0039018165
-0.0011649973
-0.00034167708
0.0017739055
-0.0011167793
0.0042413324
-0.0021447937
0.0058077123
-0.0033024404
0.0066763792
-0.0045094566
0.0070160857
-0.005713446
0.0069371567
-0.0068759621
0.0064929892
-0.0079613971
0.0056955149
-0.0089285415
0.0045356334
-0.0097241617
0.0030035063
-0.010278423
0.0011076769
-0.010505002
-0.0011034945
-0.010306027
-0.0035185109
-0.0095870002
-0.0059405432
-0.0082908759
-0.0080614157
-0.0064523857
-0.0094628976
-0.0042654654
-0.0096743957
-0.0021245182
-0.0083353075
-0.0005579304
-0.0054684045
-0.0017229278
-0.00034016105
0.0021140666
-0.0011153958
0.0050165672
-0.0021408826
0.0068331991
-0.0032902159
0.0078257126
-0.0044845996
0.0082104695
-0.0056777905
0.0081303476
-0.0068411966
0.0076563953
-0.0079514162
0.0068057345
-0.0089801763
0.0055643935
-0.0098859144
0.0039092444
-0.010606113
0.0018278755
-0.011049838
-0.00065976971
-0.011106569
-0.0034617801
-0.010640136
-0.0064069758
-0.0095268655
-0.009174686
-0.0077161327
-0.01127363
-0.0053317378
-0.01205879
-0.0027834213
-0.010883624
-0.00077058165
-0.0074812443
-0.0024935094
-0.00032851867
0.0024425853
-0.0010799566
0.0057680051
-0.0020647004
0.0078179429
-0.0031534781
0.0089144904
-0.00427058
0.0093275715
-0.005378173
0.0092379405
-0.0064602684
0.0087384907
-0.0075093591
0.0078548252
-0.0085154606
0.006570495
-0.0094565226
0.0048503064
-0.010290494
0.0026618466
-0.010929108
-2.1155685e-05
-0.011276213
-0.0031146752
-0.011160084
-0.0065231052
-0.010394314
-0.009940455
-0.0088193878
-0.012848557
-0.0064281276
-0.014450051
-0.0035614196
-0.013750332
-0.0010564256
-0.0099862382
-0.0035499349
-0.0003151092
0.0027576945
-0.0010292773
0.0064821731
-0.0019397299
0.0087283954
-0.0029131357
0.0098878963
-0.0038797602
0.010294196
-0.0048138461
0.010172026
-0.0057153071
0.0096399517
-0.0065957229
0.0087352411
-0.0074675333
0.0074423055
-0.0083343381
0.0057171113
-0.0091789311
0.0035064396
-0.009963697
0.00076361012
-0.010574705
-0.0025036673
-0.010862867
-0.0062349427
-0.010594211
-0.010209111
-0.0094976235
-0.013945145
-0.0073831155
-0.016564558
-0.0044069715
-0.016726476
-0.0014306734
-0.012962536
-0.0049806083
-0.0003170289
0.0030747233
-0.00099997899
0.0071651231
-0.0018124307
0.009540847
-0.0026159643
0.01069143
-0.003353557
0.011031789
-0.0040184195
0.010836889
-0.004631162
0.010252694
-0.0052254004
0.0093294796
-0.0058381113
0.0080550165
-0.0065016838
0.0063806836
-0.0072349019
0.0042396577
-0.0080327805
0.0015614888
-0.0088334645
-0.0017029833
-0.0095113716
-0.0055570356
-0.0098303883
-0.0098900938
-0.0094391902
-0.014336342
-0.0079469193
-0.018056829
-0.0052066652
-0.019466731
-0.0018990131
-0.016270188
-0.0068796214
-0.00036623399
0.0034409573
-0.0010533692
0.0078522582
-0.0017553084
0.010242786
-0.002332978
0.011269099
-0.0027570145
0.011455825
-0.0030517764
0.011131651
-0.0032654524
0.01046637
-0.0034562263
0.0095202536
-0.0036851886
0.008283979
-0.0040120331
0.0067075283
-0.0044894333
0.0047170581
-0.0051540325
0.0022260881
-0.0060032223
-0.00085379344
-0.0069704556
-0.0045898023
-0.0078692552
-0.0089912941
-0.0083337707
-0.013871827
-0.0078088276
-0.018581772
-0.0057662672
-0.021509291
-0.0024376994
-0.019598756
-0.009317321
-0.00052070398
0.0039616612
-0.0012820237
0.0086135779
-0.001860091
0.010820853
-0.0021395146
0.011548523
-0.0021483106
0.011464621
-0.0019610455
0.010944386
-0.0016622759
0.010167601
-0.0013371207
0.0091950985
-0.0010678283
0.0080146867
-0.00093601887
0.0065757189
-0.0010211805
0.0048022198
-0.0013973475
0.0026022552
-0.002122109
-0.00012903193
-0.0032072762
-0.0035046351
-0.0045675134
-0.0076310571
-0.005911957
-0.012527383
-0.0066230622
-0.017870667
-0.005796674
-0.022335679
-0.0029577353
-0.022437694
-0.012275056
-0.00088141683
0.004843078
-0.0018014468
0.0095336078
-0.0021905413
0.011209948
-0.0020367293
0.011394711
-0.0014780524
0.010905945
-0.00066480325
0.010131137
0.00027336156
0.009229436
0.0012282682
0.008240192
0.0020997779
0.0071431769
0.0027925885
0.0058829083
0.0032093892
0.0043854189
0.0032485512
0.0025630931
0.0028036267
0.00031589245
0.0017892551
-0.0024902635
0.00016562066
-0.0060074228
-0.0019394341
-0.010422328
-0.0040141897
-0.015795911
-0.0048961128
-0.021453756
-0.0032655823
-0.024068225
-0.015540639
-0.0016010422
0.0064441202
-0.0026433423
0.010575908
-0.0025742983
0.011140904
-0.0016809945
0.010501407
-0.00029045717
0.0095154074
0.0013524285
0.008488251
0.0030775347
0.0075043298
0.0047601559
0.0065575708
0.0062993912
0.0056039415
0.0075996093
0.00458269
0.008560167
0.003424861
0.0090679244
0.0020553356
0.0089853437
0.00039847317
0.0081726673
-0.001677587
0.0064784414
-0.0043131967
0.0038332963
-0.0077771831
0.00050692743
-0.012469542
-0.0025015882
-0.01844524
-0.0030399304
-0.023529883
-0.018580569
-0.0027221482
0.0091662685
-0.003166597
0.011020356
-0.0018407843
0.0098150918
0.00040420136
0.0082564214
0.0030023169
0.0069172918
0.0056653727
0.0058251952
0.0082384799
0.0049312227
0.010626591
0.0041694597
0.012757287
0.0034732456
0.014558644
0.0027813331
0.015946017
0.0020374881
0.016814439
0.0011869136
0.017026714
0.00018619902
0.016413863
-0.0010647361
0.014754808
-0.0026541417
0.011797551
-0.0048199264
0.0073975659
-0.0080695573
0.002237976
-0.01328565
-0.0012839274
-0.02000798
-0.019864496
-0.0024100495
0.011576318
2.9046984e-05
0.0085812592
0.0042465236
0.005597615
0.0083913531
0.0041115919
0.012187504
0.0031211408
0.015593487
0.0024192125
0.018608149
0.0019165602
0.021240245
0.0015373636
0.023490101
0.0012233896
0.025337638
0.00093379693
0.026736055
0.00063907095
0.027605162
0.0003178063
0.027840112
-4.875082e-05
0.027301954
-0.00052657745
0.025739191
-0.001091379
0.022820346
-0.0019010812
0.018038747
-0.0032879589
0.011102981
-0.0063498834
0.0033841943
-0.012289193
-0.016480302
0.011576318
0.020157578
0.025755193
0.029866784
0.032987925
0.035407138
0.037323698
0.038861062
0.040084452
0.041018249
0.041657319
0.041975126
0.041926375
0.041399797
0.040308419
0.038407337
0.035119378
0.028769495
0.016480302
)
;

boundaryField
{
    movingWall
    {
        type            calculated;
        value           uniform 0;
    }
    fixedWalls
    {
        type            calculated;
        value           uniform 0;
    }
    frontAndBack
    {
        type            empty;
        value           nonuniform List<scalar> 0();
    }
}


// ************************************************************************* //
