/*--------------------------------*- C++ -*----------------------------------*\
  =========                 |
  \\      /  F ield         | OpenFOAM: The Open Source CFD Toolbox
   \\    /   O peration     | Website:  https://openfoam.org
    \\  /    A nd           | Version:  9
     \\/     M anipulation  |
\*---------------------------------------------------------------------------*/
FoamFile
{
    format      ascii;
    class       surfaceScalarField;
    location    "8";
    object      phi_0;
}
// * * * * * * * * * * * * * * * * * * * * * * * * * * * * * * * * * * * * * //

dimensions      [0 3 -1 0 0 0 0];

internalField   nonuniform List<scalar> 
760
(
1.1885547e-05
-1.187805e-05
-2.8980251e-05
4.0865725e-05
-0.00012053078
9.1550486e-05
-0.00024558327
0.00012505266
-0.00038764949
0.00014206611
-0.00053319509
0.00014554552
-0.00067051962
0.00013732454
-0.00078819065
0.00011767107
-0.00087431759
8.6126934e-05
-0.0009172046
4.2886998e-05
-0.00090715694
-1.00477e-05
-0.0008394183
-6.7738679e-05
-0.00071696716
-0.00012245119
-0.00055257404
-0.00016439317
-0.00036859871
-0.00018397537
-0.00019399595
-0.00017460279
-5.81783e-05
-0.00013581766
1.7534416e-05
-7.5712686e-05
2.9272617e-05
-1.1738142e-05
2.9272673e-05
-4.2462634e-05
3.0584671e-05
-0.00020000207
0.00019840509
-0.00045691784
0.00034846604
-0.00078046855
0.0004486034
-0.0011373462
0.00049894364
-0.0014967491
0.00050494842
-0.0018298638
0.00047043919
-0.0021086245
0.00039643175
-0.0023056184
0.00028312084
-0.0023960179
0.00013328641
-0.0023621323
-4.393335e-05
-0.0021961824
-0.00023368861
-0.0019079597
-0.00041067395
-0.0015259392
-0.00054641367
-0.0010967726
-0.00061314204
-0.00067922537
-0.00059215
-0.00033264861
-0.00048239439
-0.00010192154
-0.00030643969
-2.5602936e-06
-0.00011109933
2.6712348e-05
-0.00010705925
0.00013764383
-0.00039179967
0.00048314561
-0.00080803017
0.00076469648
-0.0013078674
0.0009484407
-0.0018457291
0.0010368053
-0.0023792958
0.001038515
-0.0028683811
0.0009595245
-0.0032738833
0.00080193395
-0.0035583701
0.00056760756
-0.0036889648
0.00026388101
-0.003641773
-9.1125272e-05
-0.0034077144
-0.00046774734
-0.0029987649
-0.00081962357
-0.0024511601
-0.0010940185
-0.0018252646
-0.0012390376
-0.00119925
-0.0012181646
-0.00065546933
-0.0010261751
-0.00026111502
-0.000700794
-4.8230993e-05
-0.00032398342
-2.1518748e-05
-0.00016811614
0.00030575983
-0.00057533623
0.00089036567
-0.0011426152
0.0013319753
-0.0018040084
0.0016098339
-0.002503073
0.0017358698
-0.003189517
0.001724959
-0.0038160907
0.0015860981
-0.0043368717
0.001322715
-0.0047077662
0.00093850203
-0.0048893853
0.00044550007
-0.0048519654
-0.00012854512
-0.0045809981
-0.00073871467
-0.0040850259
-0.0013155959
-0.0034006316
-0.0017784129
-0.002595128
-0.0020445413
-0.0017625694
-0.0020507232
-0.0010100688
-0.0017786758
-0.00043446104
-0.0012764018
-9.5885339e-05
-0.00066255928
-0.00011740423
-0.00022247854
0.00052823838
-0.00074151041
0.0014093975
-0.0014468236
0.0020372884
-0.002254934
0.0024179443
-0.0031000185
0.0025809542
-0.0039264865
0.0025514268
-0.0046833127
0.0023429242
-0.0053208851
0.0019602873
-0.0057905858
0.0014082027
-0.0060469015
0.00070181565
-0.0060523677
-0.00012307907
-0.0057818914
-0.0010091911
-0.0052337488
-0.0018637386
-0.0044368648
-0.002575297
-0.0034588269
-0.0030225793
-0.0024073009
-0.0031022493
-0.0014188466
-0.0027671302
-0.00063140718
-0.0020638414
-0.00014680968
-0.001147157
-0.00026421403
-0.00026868095
0.00079691933
-0.00088441237
0.0020251289
-0.0017101388
0.0028630148
-0.0026472768
0.0033550822
-0.0036227506
0.003556428
-0.0045781822
0.0035068583
-0.0054616102
0.0032263521
-0.0062224105
0.0027210875
-0.0068092653
0.0019950574
-0.0071705555
0.0010631057
-0.0072595883
-3.4046393e-05
-0.0070351373
-0.0012336422
-0.0064785243
-0.0024203516
-0.0056014814
-0.00345234
-0.0044627158
-0.0041613451
-0.0031782946
-0.0043866706
-0.0019175274
-0.0040278974
-0.00087329591
-0.003108073
-0.00020833362
-0.0018121194
-0.00047254768
-0.00030512978
0.001102049
-0.00099832955
0.0027183286
-0.0019217151
0.0037864003
-0.0029650477
0.0043984147
-0.0040505106
0.0046418909
-0.0051194349
0.0045757825
-0.0061216613
0.0042285784
-0.0070083076
0.0036077336
-0.0077276927
0.0027144425
-0.0082240761
0.001559489
-0.0084368885
0.00017876597
-0.0083122743
-0.0013582565
-0.0078041636
-0.0029284625
-0.0068974395
-0.0043590641
-0.0056289327
-0.005429852
-0.0041112697
-0.0059043336
-0.0025433622
-0.005595805
-0.0011860428
-0.0044653926
-0.0002899559
-0.0027082063
-0.00076250352
-0.00032995988
0.0014320088
-0.0010773478
0.0034657164
-0.0020699618
0.0047790143
-0.003189526
0.0055179787
-0.0043559593
0.0058083241
-0.0055126701
0.0057324932
-0.0066140121
0.0053299204
-0.0076159664
0.0046096877
-0.0084698083
0.0035682843
-0.009118201
0.0022078816
-0.0094930447
0.00055360958
-0.0095216064
-0.0013296949
-0.0091310684
-0.0033190005
-0.0082692731
-0.0052208594
-0.0069345595
-0.0067645657
-0.0052152161
-0.0076236772
-0.0033242025
-0.0074868187
-0.0015957376
-0.0061938577
-0.00040241805
-0.0039015258
-0.0011649215
-0.00034164209
0.0017736508
-0.0011166692
0.0042407434
-0.0021445888
0.0058069338
-0.0033021373
0.006675527
-0.0045090633
0.0070152501
-0.0057129782
0.0069364081
-0.0068754398
0.0064923819
-0.007960841
0.0056950887
-0.0089279699
0.0045354131
-0.0097235895
0.0030035013
-0.010277861
0.0011078809
-0.010504457
-0.0011030991
-0.010305509
-0.0035179486
-0.0095865194
-0.0059398489
-0.0082904509
-0.0080606342
-0.0064520405
-0.0094620876
-0.0042652237
-0.0096736356
-0.002124389
-0.0083346925
-0.0005578924
-0.0054680222
-0.0017228139
-0.00034014051
0.0021137913
-0.0011153282
0.0050159311
-0.0021407534
0.0068323591
-0.0032900226
0.007824796
-0.004484349
0.0082095765
-0.005677496
0.0081295551
-0.0068408747
0.0076557606
-0.0079510828
0.0068052967
-0.0089798438
0.0055641741
-0.0098855901
0.0039092475
-0.010605798
0.001828089
-0.011049522
-0.00065937502
-0.011106254
-0.003461217
-0.010639821
-0.0064062814
-0.0095265591
-0.0091738966
-0.0077158553
-0.011272792
-0.0053315208
-0.01205797
-0.002783292
-0.010882921
-0.00077053913
-0.0074807748
-0.0024933532
-0.00032851627
0.0024423075
-0.0010799426
0.0057673574
-0.0020646665
0.0078170831
-0.0031534222
0.0089135516
-0.0042705065
0.009326661
-0.0053780915
0.0092371402
-0.0064601907
0.0087378598
-0.0075092955
0.0078544015
-0.0085154171
0.0065702956
-0.0094564991
0.0048503295
-0.010290491
0.0026620807
-0.010929075
-2.0791353e-05
-0.011276169
-0.0031141232
-0.011160005
-0.0065224453
-0.010394194
-0.0099397074
-0.0088192364
-0.012847749
-0.0064279759
-0.014449231
-0.0035613097
-0.013749588
-0.0010563829
-0.0099857013
-0.0035497364
-0.00031512679
0.0027574344
-0.0010293229
0.0064815535
-0.0019398021
0.0087275625
-0.0029132326
0.009886982
-0.0038798822
0.010293311
-0.004813997
0.010171255
-0.0057154917
0.0096393545
-0.0065959437
0.0087348535
-0.0074677883
0.0074421402
-0.0083346189
0.0057171601
-0.0091792141
0.0035066761
-0.0099639993
0.00076399391
-0.010574961
-0.0025031618
-0.010863059
-0.0062343469
-0.01059432
-0.010208446
-0.0094976448
-0.013944425
-0.0073830702
-0.016563806
-0.0044069056
-0.016725752
-0.0014306375
-0.012961969
-0.0049803742
-0.00031706625
0.0030745007
-0.001000084
0.0071645714
-0.0018126096
0.0095400883
-0.0026162146
0.010690587
-0.0033538743
0.011030971
-0.0040187996
0.01083618
-0.0046316001
0.010252155
-0.00522589
0.0093291433
-0.0058386423
0.0080548925
-0.0065022415
0.0063807593
-0.0072354684
0.0042399027
-0.0080333371
0.0015618627
-0.0088339782
-0.0017025207
-0.0095118106
-0.0055565145
-0.0098307225
-0.0098895343
-0.0094393995
-0.014335748
-0.0079470067
-0.018056199
-0.0052066668
-0.019466092
-0.0018989932
-0.016269643
-0.0068793675
-0.00036628868
0.0034407895
-0.0010535269
0.0078518097
-0.0017555829
0.010242144
-0.0023333666
0.011268371
-0.0027575069
0.011455111
-0.0030523585
0.011131032
-0.0032661082
0.010465905
-0.0034569382
0.0095199733
-0.0036859375
0.0082838916
-0.0040127989
0.0067076207
-0.0044901957
0.0047172996
-0.0051547705
0.0022264376
-0.0060039113
-0.00085337986
-0.0069710683
-0.0045893574
-0.0078697606
-0.0089908419
-0.0083341395
-0.013871369
-0.0078090448
-0.018581293
-0.0057663489
-0.021508788
-0.0024377049
-0.019598287
-0.0093170722
-0.00052077082
0.0039615604
-0.0012822192
0.0086132581
-0.0018604363
0.010820362
-0.0021400075
0.011547942
-0.0021489353
0.011464039
-0.0019617784
0.010943875
-0.0016630882
0.010167215
-0.0013379845
0.0091948696
-0.0010687145
0.0080146216
-0.00093690178
0.0065758078
-0.0010220391
0.004802437
-0.001398165
0.0026025635
-0.0021228682
-0.00012867665
-0.00320796
-0.0035042656
-0.0045680991
-0.0076307025
-0.0059124169
-0.012527051
-0.0066233717
-0.017870339
-0.0057968273
-0.022335332
-0.0029577707
-0.022437344
-0.012274843
-0.00088148584
0.0048430464
-0.0018016532
0.0095334256
-0.002190913
0.011209622
-0.0020372666
0.011394295
-0.0014787373
0.01090551
-0.00066560561
0.010130744
0.00027247578
0.0092291333
0.0012273398
0.0082400056
0.0020988413
0.0071431201
0.0027916737
0.0058829754
0.00320852
0.0043855907
0.0032477439
0.0025633396
0.0028028909
0.00031617632
0.0017885986
-0.0024899733
0.00016505338
-0.0060071572
-0.0019398989
-0.010422098
-0.0040145308
-0.015795706
-0.0048963049
-0.021453558
-0.0032656415
-0.024068007
-0.015540484
-0.0016010954
0.0064441419
-0.0026435162
0.010575846
-0.002574626
0.011140732
-0.0016814833
0.010501153
-0.00029109317
0.0095151194
0.0013516728
0.0084879778
0.003076697
0.0075041091
0.0047592746
0.006557428
0.0062985055
0.0056038893
0.0075987533
0.0045827279
0.0085593671
0.0034249771
0.0090671984
0.0020555086
0.0089847015
0.00039867325
0.0081721094
-0.0016773811
0.006477967
-0.0043130148
0.0038329096
-0.0077770409
0.00050664427
-0.012469441
-0.002501771
-0.018445143
-0.003039999
-0.023529779
-0.018580483
-0.0027221681
0.0091663101
-0.003166686
0.011020363
-0.0018409857
0.0098150316
0.0004038676
0.0082562995
0.0030018509
0.0069171363
0.0056647914
0.0058250375
0.0082378114
0.0049310892
0.010625871
0.004169369
0.012756552
0.0034732077
0.014557931
0.0027813496
0.015945355
0.0020375527
0.016813849
0.0011870142
0.017026209
0.00018631377
0.016413444
-0.001064617
0.01475447
-0.0026540407
0.011797283
-0.0048198543
0.0073973589
-0.0080695167
0.0022378398
-0.013285624
-0.0012839899
-0.02000795
-0.019864473
-0.0024100319
0.011576342
2.905306e-05
0.0085812783
0.0042464789
0.0055976058
0.0083912224
0.0041115561
0.012187271
0.0031210882
0.015593152
0.002419156
0.01860773
0.0019165113
0.021239768
0.0015373303
0.023489599
0.0012233765
0.025337144
0.00093380449
0.026735601
0.00063909583
0.027604773
0.00031784209
0.027839787
-4.869997e-05
0.027301708
-0.00052653808
0.025739015
-0.0010913471
0.022820222
-0.0019010615
0.01803866
-0.0032879543
0.011102923
-0.0063498867
0.0033841697
-0.012289197
-0.016480303
0.011576343
0.020157621
0.025755227
0.029866783
0.032987871
0.035407027
0.037323539
0.038860869
0.040084245
0.04101805
0.041657145
0.041974987
0.041926288
0.04139975
0.040308402
0.038407341
0.035119387
0.0287695
0.016480303
)
;

boundaryField
{
    movingWall
    {
        type            calculated;
        value           uniform 0;
    }
    fixedWalls
    {
        type            calculated;
        value           uniform 0;
    }
    frontAndBack
    {
        type            empty;
        value           nonuniform List<scalar> 0();
    }
}


// ************************************************************************* //
