/*--------------------------------*- C++ -*----------------------------------*\
  =========                 |
  \\      /  F ield         | OpenFOAM: The Open Source CFD Toolbox
   \\    /   O peration     | Website:  https://openfoam.org
    \\  /    A nd           | Version:  9
     \\/     M anipulation  |
\*---------------------------------------------------------------------------*/
FoamFile
{
    format      ascii;
    class       volVectorField;
    location    "8";
    object      U_0;
}
// * * * * * * * * * * * * * * * * * * * * * * * * * * * * * * * * * * * * * //

dimensions      [0 1 -1 0 0 0 0];

internalField   nonuniform List<vector> 
400
(
(0.0002730296 -0.00026976087 0)
(9.3199581e-05 8.3723415e-05 0)
(-0.0013178431 0.00047105661 0)
(-0.0035594193 0.00072115984 0)
(-0.0062924955 0.00084816912 0)
(-0.0092246312 0.00088573356 0)
(-0.012106077 0.00085321234 0)
(-0.014707702 0.00075213481 0)
(-0.016795424 0.0005742057 0)
(-0.018127838 0.00031382931 0)
(-0.018482572 -2.0810771e-05 0)
(-0.017704394 -0.00040332496 0)
(-0.015766685 -0.00077547263 0)
(-0.012825343 -0.0010636274 0)
(-0.0092389983 -0.0011924918 0)
(-0.0055362609 -0.0011078637 0)
(-0.0023197301 -0.00080306659 0)
(-0.00012658611 -0.000340821 0)
(0.00072509424 0.00013926411 0)
(0.00039709258 0.00037735172 0)
(-8.8433808e-05 -0.00010544849 0)
(-0.0018336985 0.0017576392 0)
(-0.0061592889 0.0035440659 0)
(-0.012143055 0.0047434293 0)
(-0.019099845 0.005359412 0)
(-0.026406542 0.005476663 0)
(-0.033470113 0.0051514286 0)
(-0.039722202 0.0043939659 0)
(-0.044602481 0.0031949744 0)
(-0.047575622 0.0015705933 0)
(-0.048195873 -0.0003946554 0)
(-0.046187379 -0.0025186075 0)
(-0.041554606 -0.0045176134 0)
(-0.034677095 -0.0060462282 0)
(-0.02632187 -0.0067676904 0)
(-0.017579922 -0.0064546369 0)
(-0.0096893501 -0.0050966898 0)
(-0.0037531085 -0.0029777865 0)
(-0.00042227296 -0.00069340079 0)
(0.00027370718 0.00074849246 0)
(-0.00057355585 0.001416379 0)
(-0.0041270255 0.0062274624 0)
(-0.011429462 0.010367391 0)
(-0.02086496 0.013127905 0)
(-0.031459564 0.014503418 0)
(-0.042378761 0.014623732 0)
(-0.052803666 0.013582351 0)
(-0.061938706 0.011408136 0)
(-0.069009429 0.008118041 0)
(-0.073294338 0.0038052267 0)
(-0.074201659 -0.0012770722 0)
(-0.071376608 -0.0066629186 0)
(-0.06482738 -0.011685656 0)
(-0.055030845 -0.01555217 0)
(-0.042966646 -0.017497825 0)
(-0.030062972 -0.017004823 0)
(-0.017997865 -0.014036552 0)
(-0.00833643 -0.0092012602 0)
(-0.0021518689 -0.003770461 0)
(-1.216496e-05 0.00026692821 0)
(-0.0010203703 0.0041986807 0)
(-0.006316123 0.013204145 0)
(-0.016487875 0.020293879 0)
(-0.029142306 0.024862506 0)
(-0.043014617 0.027013154 0)
(-0.057115384 0.026962863 0)
(-0.070482468 0.024854166 0)
(-0.082181391 0.020740994 0)
(-0.091302108 0.01467982 0)
(-0.09699096 0.0068648246 0)
(-0.098531373 -0.0022492093 0)
(-0.095453091 -0.011880137 0)
(-0.087669567 -0.020913527 0)
(-0.075616268 -0.028023127 0)
(-0.060332866 -0.031899618 0)
(-0.043469764 -0.03159758 0)
(-0.027117876 -0.026936705 0)
(-0.013391492 -0.018807664 0)
(-0.003985402 -0.0092096216 0)
(-0.00027090424 -0.001153757 0)
(-0.0014076561 0.0081344943 0)
(-0.0082804207 0.022525748 0)
(-0.021084008 0.033092709 0)
(-0.036672999 0.039634891 0)
(-0.053511521 0.04252659 0)
(-0.07049771 0.042146021 0)
(-0.086589143 0.03871037 0)
(-0.10078069 0.032302434 0)
(-0.11208331 0.023012021 0)
(-0.11954003 0.011119968 0)
(-0.1222972 -0.0027373999 0)
(-0.11969891 -0.017471235 0)
(-0.11143985 -0.031509702 0)
(-0.097757936 -0.04293009 0)
(-0.07959396 -0.049735756 0)
(-0.058717428 -0.050335433 0)
(-0.037647594 -0.044165973 0)
(-0.019213169 -0.032243574 0)
(-0.0060062871 -0.017304294 0)
(-0.00050703832 -0.0035390058 0)
(-0.0017304842 0.013082248 0)
(-0.0099559764 0.033950584 0)
(-0.025048169 0.048495617 0)
(-0.043206203 0.05717917 0)
(-0.062666306 0.060811124 0)
(-0.082257208 0.060018942 0)
(-0.10091145 0.055129037 0)
(-0.11761192 0.046252758 0)
(-0.13133929 0.033486589 0)
(-0.14105621 0.017146837 0)
(-0.14575453 -0.0020148185 0)
(-0.14452528 -0.022643643 0)
(-0.13672275 -0.042768465 0)
(-0.12221563 -0.05982282 0)
(-0.101649 -0.070951491 0)
(-0.076749234 -0.073605916 0)
(-0.050424735 -0.066445416 0)
(-0.026383105 -0.05029651 0)
(-0.0084791059 -0.028592545 0)
(-0.00077560102 -0.007016303 0)
(-0.0019804796 0.018863341 0)
(-0.011280016 0.047134881 0)
(-0.028216756 0.066103238 0)
(-0.048471302 0.077102535 0)
(-0.070108697 0.081527743 0)
(-0.091932594 0.08034576 0)
(-0.11290311 0.074031502 0)
(-0.13204877 0.062722205 0)
(-0.14837535 0.046481127 0)
(-0.16080339 0.025586076 0)
(-0.16815596 0.0007987731 0)
(-0.16925894 -0.026400919 0)
(-0.16305374 -0.053711109 0)
(-0.14884769 -0.077932422 0)
(-0.12675197 -0.095202165 0)
(-0.098180309 -0.10164119 0)
(-0.066240698 -0.094555725 0)
(-0.035579234 -0.074007842 0)
(-0.011747773 -0.043922451 0)
(-0.0011508127 -0.011887332 0)
(-0.002144839 0.025263291 0)
(-0.012185076 0.061651245 0)
(-0.030422244 0.085403045 0)
(-0.052171357 0.098881304 0)
(-0.075384678 0.10419355 0)
(-0.098882079 0.10273387 0)
(-0.12170123 0.095169861 0)
(-0.14297525 0.081665284 0)
(-0.16179912 0.062206816 0)
(-0.17711904 0.036946123 0)
(-0.18767202 0.0065194147 0)
(-0.19202565 -0.02765718 0)
(-0.18866805 -0.063086996 0)
(-0.17625031 -0.096051304 0)
(-0.15408853 -0.12162369 0)
(-0.12289106 -0.1342385 0)
(-0.085542309 -0.12911222 0)
(-0.047430382 -0.10458712 0)
(-0.016199378 -0.064478493 0)
(-0.0017236578 -0.018659419 0)
(-0.0022126144 0.032031228 0)
(-0.012618229 0.076996201 0)
(-0.031526278 0.10576908 0)
(-0.054031506 0.12183671 0)
(-0.078023315 0.12812394 0)
(-0.10237227 0.12653818 0)
(-0.12623997 0.11799267 0)
(-0.14892585 0.1026904 0)
(-0.16969473 0.080508232 0)
(-0.18762212 0.051384974 0)
(-0.20148008 0.015688476 0)
(-0.20968907 -0.025401895 0)
(-0.21036668 -0.069448795 0)
(-0.20149451 -0.11247107 0)
(-0.1813842 -0.14860069 0)
(-0.14958159 -0.17038244 0)
(-0.10806692 -0.17016065 0)
(-0.06234413 -0.14315502 0)
(-0.02225386 -0.091727993 0)
(-0.0026171051 -0.02807237 0)
(-0.0021859655 0.038896145 0)
(-0.012579337 0.092617175 0)
(-0.031488162 0.12647529 0)
(-0.053895183 0.14512127 0)
(-0.077663068 0.15238739 0)
(-0.10174232 0.15078355 0)
(-0.12546217 0.14153505 0)
(-0.14835096 0.12491833 0)
(-0.16993421 0.10069518 0)
(-0.18954654 0.068537991 0)
(-0.20615995 0.028431238 0)
(-0.21823469 -0.018884067 0)
(-0.22374953 -0.071328724 0)
(-0.22016547 -0.1250604 0)
(-0.20471599 -0.17364734 0)
(-0.17538921 -0.20787235 0)
(-0.13241212 -0.21662774 0)
(-0.080246109 -0.19027385 0)
(-0.030347729 -0.12725933 0)
(-0.0040158749 -0.041135015 0)
(-0.0020959086 0.045610896 0)
(-0.012174187 0.10797824 0)
(-0.030458601 0.14674437 0)
(-0.051852653 0.16774009 0)
(-0.074218268 0.17580209 0)
(-0.096622228 0.17414132 0)
(-0.11860987 0.1643757 0)
(-0.1400003 0.14691344 0)
(-0.16066686 0.12143416 0)
(-0.18033351 0.087345348 0)
(-0.19836519 0.044205382 0)
(-0.21350148 -0.0078429629 0)
(-0.22392437 -0.067578175 0)
(-0.22689164 -0.13158038 0)
(-0.21874389 -0.19354985 0)
(-0.19576524 -0.2431355 0)
(-0.15563744 -0.26575188 0)
(-0.10019401 -0.24524879 0)
(-0.040862918 -0.17243966 0)
(-0.006205974 -0.059169843 0)
(-0.002025999 0.052033837 0)
(-0.01168427 0.1226731 0)
(-0.028889132 0.16583501 0)
(-0.048377217 0.18860835 0)
(-0.068045106 0.19697932 0)
(-0.08714764 0.19497298 0)
(-0.1055165 0.18468466 0)
(-0.12332415 0.16672493 0)
(-0.14085695 0.14075301 0)
(-0.15830985 0.10595585 0)
(-0.17560264 0.061462432 0)
(-0.19220336 0.006734095 0)
(-0.20666086 -0.057949245 0)
(-0.21637205 -0.13026096 0)
(-0.21748701 -0.20488049 0)
(-0.20482959 -0.27144083 0)
(-0.1731143 -0.31274097 0)
(-0.11992645 -0.30529277 0)
(-0.053927383 -0.22779283 0)
(-0.0096063185 -0.083838195 0)
(-0.0021552761 0.058265163 0)
(-0.0116662 0.13658669 0)
(-0.027649528 0.18315304 0)
(-0.044433706 0.20662546 0)
(-0.060043079 0.21439645 0)
(-0.074076807 0.21143034 0)
(-0.086772225 0.20036432 0)
(-0.098728524 0.1820667 0)
(-0.11069259 0.15624343 0)
(-0.12338693 0.12194079 0)
(-0.13736345 0.07792534 0)
(-0.1528161 0.023035045 0)
(-0.16913992 -0.043309885 0)
(-0.18454076 -0.12044999 0)
(-0.19551818 -0.20486027 0)
(-0.19626035 -0.28766754 0)
(-0.17883663 -0.35098798 0)
(-0.13553036 -0.36485949 0)
(-0.068995018 -0.29204041 0)
(-0.014735659 -0.117061 0)
(-0.0028452921 0.064876439 0)
(-0.013108441 0.15009486 0)
(-0.028137165 0.19833917 0)
(-0.041493376 0.2207115 0)
(-0.051580876 0.22644604 0)
(-0.058651369 0.22155608 0)
(-0.063541071 0.2092186 0)
(-0.067363794 0.19055733 0)
(-0.071341136 0.16535744 0)
(-0.076696663 0.1326155 0)
(-0.084577272 0.090886535 0)
(-0.095921545 0.038554067 0)
(-0.1111378 -0.025850312 0)
(-0.12965361 -0.10320396 0)
(-0.1491545 -0.19237459 0)
(-0.1644444 -0.28756233 0)
(-0.16617843 -0.37305204 0)
(-0.14142197 -0.41559148 0)
(-0.08414745 -0.3608951 0)
(-0.021981069 -0.16062125 0)
(-0.0048110076 0.073324787 0)
(-0.017671304 0.16426803 0)
(-0.032291583 0.21122978 0)
(-0.041262912 0.22969801 0)
(-0.043984474 0.23136091 0)
(-0.041894903 0.22328312 0)
(-0.036701276 0.20903587 0)
(-0.030129182 0.18988519 0)
(-0.023856261 0.16564586 0)
(-0.019515394 0.13530986 0)
(-0.018724814 0.097352431 0)
(-0.02304958 0.049931328 0)
(-0.033854432 -0.0089730392 0)
(-0.051923767 -0.081426464 0)
(-0.076770331 -0.16868378 0)
(-0.10523195 -0.26908501 0)
(-0.12868859 -0.37224356 0)
(-0.13057028 -0.44713855 0)
(-0.095192026 -0.42598029 0)
(-0.030948213 -0.21525355 0)
(-0.0093897748 0.086706755 0)
(-0.027899245 0.18091129 0)
(-0.042058137 0.22149094 0)
(-0.044395394 0.23191012 0)
(-0.03670877 0.22688756 0)
(-0.022417965 0.21423124 0)
(-0.0043959386 0.19750064 0)
(0.01496149 0.17780675 0)
(0.033592729 0.15487991 0)
(0.049607639 0.12767674 0)
(0.061104221 0.094685899 0)
(0.06611699 0.05406741 0)
(0.062553756 0.0036705312 0)
(0.048465257 -0.059118514 0)
(0.02236644 -0.13724937 0)
(-0.015624068 -0.23317312 0)
(-0.06025492 -0.34424473 0)
(-0.094486908 -0.44858587 0)
(-0.094879233 -0.47456426 0)
(-0.039284792 -0.27979338 0)
(-0.01864182 0.11086814 0)
(-0.046420416 0.2013342 0)
(-0.056164696 0.22700206 0)
(-0.045527937 0.2237585 0)
(-0.021497585 0.20925082 0)
(0.0097102447 0.19102566 0)
(0.043998478 0.17180176 0)
(0.078529431 0.15204051 0)
(0.11112841 0.13115438 0)
(0.13989626 0.108 0)
(0.16292522 0.081139284 0)
(0.17813669 0.048906692 0)
(0.18303209 0.0093719469 0)
(0.17493694 -0.039891282 0)
(0.15084615 -0.10235122 0)
(0.1078896 -0.18324053 0)
(0.045946822 -0.28803326 0)
(-0.022342064 -0.41002095 0)
(-0.072674574 -0.49047106 0)
(-0.041240919 -0.35010879 0)
(-0.033354654 0.15575864 0)
(-0.06876809 0.22032842 0)
(-0.055725712 0.21687812 0)
(-0.01708464 0.19463009 0)
(0.033005939 0.17009474 0)
(0.086533948 0.14768412 0)
(0.13941288 0.12794257 0)
(0.18935202 0.11013104 0)
(0.23480036 0.093118473 0)
(0.27439581 0.075666156 0)
(0.30663381 0.056509842 0)
(0.32969566 0.034328647 0)
(0.3411304 0.0076338749 0)
(0.33810763 -0.025306085 0)
(0.31673185 -0.067217389 0)
(0.27216265 -0.12371929 0)
(0.19957315 -0.20560873 0)
(0.10150821 -0.32488856 0)
(-0.012713816 -0.45437585 0)
(-0.023840146 -0.40846652 0)
(-0.033036894 0.23921614 0)
(-0.042571068 0.21801548 0)
(0.04216179 0.16418741 0)
(0.12728642 0.12758898 0)
(0.20702094 0.1010865 0)
(0.27921412 0.081288089 0)
(0.3434486 0.066327391 0)
(0.39988526 0.054482286 0)
(0.44869456 0.044306703 0)
(0.48973377 0.034679774 0)
(0.52236731 0.02470635 0)
(0.54539157 0.013619401 0)
(0.55687683 0.00067150702 0)
(0.55464207 -0.01486317 0)
(0.53474325 -0.034733455 0)
(0.49190179 -0.062326024 0)
(0.41759875 -0.10687003 0)
(0.30384697 -0.19315 0)
(0.12298767 -0.33690277 0)
(0.052325033 -0.39436407 0)
(0.24304975 0.15262419 0)
(0.30543282 0.11861201 0)
(0.4549662 0.076136068 0)
(0.56008196 0.050820134 0)
(0.63213954 0.035069467 0)
(0.68624427 0.024739803 0)
(0.72892747 0.017892656 0)
(0.76312484 0.013209735 0)
(0.79051695 0.0097466197 0)
(0.81197742 0.0068714498 0)
(0.82769925 0.0041629581 0)
(0.83735195 0.0013381015 0)
(0.8401377 -0.0017918227 0)
(0.83471909 -0.0052713885 0)
(0.81875306 -0.0097802576 0)
(0.78941405 -0.016202806 0)
(0.73787643 -0.026926986 0)
(0.65320111 -0.051292512 0)
(0.45611142 -0.11375797 0)
(0.31789022 -0.17207021 0)
)
;

boundaryField
{
    movingWall
    {
        type            fixedValue;
        value           uniform (1 0 0);
    }
    fixedWalls
    {
        type            fixedValue;
        value           uniform (0 0 0);
    }
    frontAndBack
    {
        type            empty;
    }
}


// ************************************************************************* //
