/*--------------------------------*- C++ -*----------------------------------*\
  =========                 |
  \\      /  F ield         | OpenFOAM: The Open Source CFD Toolbox
   \\    /   O peration     | Website:  https://openfoam.org
    \\  /    A nd           | Version:  9
     \\/     M anipulation  |
\*---------------------------------------------------------------------------*/
FoamFile
{
    format      ascii;
    class       volScalarField;
    location    "1";
    object      divGradT;
}
// * * * * * * * * * * * * * * * * * * * * * * * * * * * * * * * * * * * * * //

dimensions      [0 -2 0 1 0 0 0];

internalField   nonuniform List<scalar> 10(-0.0020687844 -0.0054787503 -0.016206498 0.0068745813 0.026819896 0.015437809 1.5542767 6.3948173 -1.5614255 -260.68446);

boundaryField
{
    inlet
    {
        type            extrapolatedCalculated;
        value           uniform -0.0020687844;
    }
    outlet
    {
        type            extrapolatedCalculated;
        value           uniform -260.68446;
    }
    bottom
    {
        type            extrapolatedCalculated;
        value           nonuniform List<scalar> 10(-0.0020687844 -0.0054787503 -0.016206498 0.0068745813 0.026819896 0.015437809 1.5542767 6.3948173 -1.5614255 -260.68446);
    }
    top
    {
        type            extrapolatedCalculated;
        value           nonuniform List<scalar> 10(-0.0020687844 -0.0054787503 -0.016206498 0.0068745813 0.026819896 0.015437809 1.5542767 6.3948173 -1.5614255 -260.68446);
    }
    frontAndBack
    {
        type            empty;
    }
}


// ************************************************************************* //
