/*--------------------------------*- C++ -*----------------------------------*\
  =========                 |
  \\      /  F ield         | OpenFOAM: The Open Source CFD Toolbox
   \\    /   O peration     | Website:  https://openfoam.org
    \\  /    A nd           | Version:  9
     \\/     M anipulation  |
\*---------------------------------------------------------------------------*/
FoamFile
{
    format      ascii;
    class       volScalarField;
    location    "0.006";
    object      p;
}
// * * * * * * * * * * * * * * * * * * * * * * * * * * * * * * * * * * * * * //

dimensions      [1 -1 -2 0 0 0 0];

internalField   nonuniform List<scalar> 
1000
(
100000
100000
100000
100000
100000
100000
100000
100000
100000
100000
100000
100000
100000
100000
100000
100000
100000
100000
100000
100000
100000
100000
100000
100000
100000
100000
100000
100000
100000
100000
100000
100000
100000
100000
100000
100000
100000
100000
100000
100000
100000
100000
100000
100000
100000
100000
100000
100000
100000
100000
100000
100000
100000
100000
100000
100000
100000
100000
100000
100000
100000
100000
100000
100000
100000
100000
100000
100000
100000
100000
100000
100000
100000
100000
100000
100000
100000
100000
100000
100000
100000
100000
100000
100000
100000
100000
100000
100000
100000
100000
100000
100000
100000
100000
100000
100000
100000
100000
100000
100000
100000
100000
100000
100000
100000
100000
100000
100000
100000
100000
100000
100000
100000
100000
100000
100000
100000
100000
100000
100000
100000
100000
100000
100000
100000
100000
100000
100000
100000
100000
100000
100000
100000
100000
100000
100000
100000
100000
100000
100000
100000
100000
100000
100000
100000
100000
100000
100000
100000
100000
100000
100000
100000
100000
100000
100000
100000
100000
100000
100000
100000
100000
100000
100000
100000
100000
100000
100000
100000
100000
100000
100000
100000
100000
100000
100000
100000
100000
100000
100000
100000
100000
100000
100000
100000
100000
100000
100000
100000
100000
100000
100000
100000
100000
100000
100000
100000
100000
100000
100000
100000
100000
100000
100000
100000
100000
100000
100000
100000
100000
100000
100000
100000
100000
100000
100000
100000
100000
100000
100000
100000
100000
100000
100000
100000
100000
100000
100000
99999.9
99999.9
99999.9
99999.8
99999.7
99999.6
99999.4
99999.2
99998.9
99998.4
99997.7
99996.9
99995.7
99994.1
99992
99989.2
99985.5
99980.7
99974.5
99966.6
99956.5
99943.8
99927.9
99908.2
99884.1
99854.7
99819.2
99776.8
99726.6
99667.5
99598.8
99519.4
99428.4
99325.2
99208.9
99079
98934.9
98776.3
98603
98414.9
98211.9
97994.4
97762.5
97516.7
97257.4
96985.3
96700.8
96404.7
96097.5
95780.2
95453.2
95117.3
94773.1
94421.4
94062.7
93697.7
93326.8
92950.6
92569.7
92184.4
91795.3
91402.7
91007
90608.5
90207.5
89804.4
89399.4
88992.8
88584.7
88175.5
87765.2
87354.1
86942.3
86530
86117.4
85704.5
85291.4
84878.4
84465.4
84052.6
83640.1
83228
82816.2
82405
81994.4
81584.4
81175.2
80766.7
80359
79952.2
79546.2
79141.3
78737.3
78334.4
77932.6
77531.9
77132.3
76733.9
76336.7
75940.7
75546
75152.6
74760.4
74369.6
73980.1
73592
73205.3
72819.9
72436
72053.4
71672.3
71292.6
70914.4
70537.6
70162.3
69788.5
69416.2
69045.3
68676
68308.1
67941.8
67576.9
67213.6
66851.8
66491.5
66132.8
65775.5
65419.8
65065.7
64713
64361.9
64012.3
63664.3
63317.7
62972.8
62629.3
62287.4
61947
61608.1
61270.8
60935
60600.7
60268
59936.8
59607.1
59278.9
58952.2
58627.1
58303.4
57981.3
57660.7
57341.6
57024
56707.8
56393.2
56080.1
55768.5
55458.4
55149.7
54842.5
54536.8
54232.6
53929.9
53628.6
53328.8
53030.5
52733.6
52438.2
52144.3
51851.7
51560.7
51271.1
50982.9
50696.2
50410.9
50127
49844.6
49563.6
49284
49005.9
48729.1
48453.8
48179.9
47907.4
47636.3
47366.6
47098.3
46831.5
46566
46301.9
46039.3
45778
45518.1
45259.6
45002.5
44746.8
44492.5
44239.6
43988
43737.9
43489.1
43241.8
42995.8
42751.3
42508.1
42266.3
42026
41787
41549.4
41313.3
41078.6
40845.3
40613.4
40383
40154
39926.4
39700.4
39475.8
39252.6
39031
38810.9
38592.3
38375.2
38159.7
37945.8
37733.4
37522.7
37313.6
37106.2
36900.4
36696.4
36494.2
36293.7
36095.1
35898.3
35703.5
35510.6
35319.8
35131
34944.4
34759.9
34577.8
34398
34220.6
34045.8
33873.6
33704.1
33537.4
33373.7
33213
33055.5
32901.3
32750.6
32603.5
32460.1
32320.7
32185.3
32054.2
31927.5
31805.3
31687.9
31575.4
31467.9
31365.6
31268.6
31177
31090.9
31010.3
30935.3
30865.9
30802
30743.5
30690.4
30642.5
30599.6
30561.5
30527.9
30498.5
30473
30451.1
30432.5
30416.9
30403.8
30393
30384.2
30377.1
30371.4
30366.9
30363.3
30360.6
30358.5
30356.9
30355.7
30354.8
30354.1
30353.5
30353.2
30352.8
30352.6
30352.4
30352.3
30352.1
30352
30351.9
30351.8
30351.8
30351.7
30351.7
30351.7
30351.6
30351.6
30351.5
30351.5
30351.5
30351.4
30351.4
30351.3
30351.3
30351.2
30351.2
30351.1
30351.1
30351
30351
30350.9
30350.9
30350.8
30350.8
30350.7
30350.7
30350.7
30350.6
30350.6
30350.6
30350.5
30350.5
30350.5
30350.4
30350.4
30350.4
30350.3
30350.3
30350.3
30350.3
30350.2
30350.2
30350.2
30350.2
30350.1
30350.1
30350.1
30350.1
30350
30350
30350
30350
30349.9
30349.9
30349.9
30349.9
30349.9
30349.9
30349.8
30349.8
30349.8
30349.7
30349.7
30349.7
30349.6
30349.6
30349.6
30349.6
30349.6
30349.6
30349.6
30349.6
30349.6
30349.6
30349.6
30349.7
30349.7
30349.8
30349.8
30349.8
30349.9
30349.9
30349.9
30350
30350
30350
30350
30350
30350
30350
30350
30349.9
30349.9
30349.9
30349.9
30349.9
30349.9
30349.9
30349.8
30349.8
30349.8
30349.8
30349.8
30349.8
30349.8
30349.7
30349.7
30349.7
30349.7
30349.7
30349.7
30349.7
30349.7
30349.7
30349.6
30349.6
30349.6
30349.6
30349.6
30349.6
30349.6
30349.6
30349.6
30349.5
30349.5
30349.5
30349.4
30349.4
30349.3
30349.2
30349.1
30349
30348.8
30348.7
30348.5
30348.4
30348.3
30348.3
30348.3
30348.4
30348.5
30348.6
30348.8
30348.9
30349.1
30349.3
30349.4
30349.5
30349.6
30349.6
30349.6
30349.6
30349.6
30349.5
30349.5
30349.4
30349.3
30349.3
30349.2
30349.2
30349.2
30349.1
30349.1
30349.1
30349.1
30349
30349
30349
30349
30349
30349
30349
30349
30348.9
30348.9
30348.9
30348.9
30348.8
30348.8
30348.8
30348.8
30348.8
30348.8
30348.8
30348.8
30348.8
30348.8
30348.7
30348.7
30348.7
30348.7
30348.7
30348.7
30348.7
30348.6
30348.6
30348.6
30348.5
30348.5
30348.5
30348.5
30348.4
30348.4
30348.4
30348.4
30348.4
30348.4
30348.4
30348.4
30348.4
30348.4
30348.3
30348.3
30348.3
30348.3
30348.2
30348.2
30348.1
30348.1
30348.1
30348
30348
30348
30347.9
30347.9
30347.9
30347.9
30347.9
30347.9
30347.9
30347.9
30347.9
30347.9
30347.9
30347.9
30347.8
30347.8
30347.7
30347.6
30347.6
30347.5
30347.4
30347.4
30347.4
30347.4
30347.4
30347.4
30347.4
30347.4
30347.4
30347.4
30347.3
30347.3
30347.3
30347.2
30347.2
30347.1
30347
30347
30346.9
30346.8
30346.8
30346.7
30346.7
30346.6
30346.6
30346.5
30346.5
30346.5
30346.5
30346.4
30346.4
30346.4
30346.4
30346.3
30346.3
30346.2
30346.1
30346
30345.9
30345.8
30345.7
30345.6
30345.4
30345.1
30344.7
30344.3
30343.3
30341.6
30338.3
30331.4
30317.4
30288.7
30227.3
30100.9
29811.7
29167.2
27676.1
24531.3
19701.3
15103.8
12061
10657.7
10179.8
10045.9
10011.5
10002.9
10000.7
10000.2
10000
10000
10000
10000
10000
10000
10000
10000
10000
10000
10000
10000
10000
10000
10000
10000
10000
10000
10000
10000
10000
10000
10000
10000
10000
10000
10000
10000
10000
10000
10000
10000
10000
10000
10000
10000
10000
10000
10000
10000
10000
10000
10000
10000
10000
10000
10000
10000
10000
10000
10000
10000
10000
10000
10000
10000
10000
10000
10000
10000
10000
10000
10000
10000
10000
10000
10000
10000
10000
10000
10000
10000
10000
10000
10000
10000
10000
10000
10000
10000
10000
10000
10000
10000
10000
10000
10000
10000
10000
10000
10000
10000
10000
10000
10000
10000
10000
10000
10000
10000
10000
10000
10000
10000
10000
10000
10000
10000
10000
10000
10000
10000
10000
10000
10000
10000
10000
10000
10000
10000
10000
10000
10000
10000
10000
10000
10000
10000
10000
10000
10000
10000
10000
10000
10000
10000
10000
10000
10000
10000
10000
10000
10000
10000
10000
10000
10000
10000
10000
10000
10000
10000
10000
10000
10000
10000
10000
10000
10000
)
;

boundaryField
{
    sides
    {
        type            zeroGradient;
    }
    empty
    {
        type            empty;
    }
}


// ************************************************************************* //
