/*--------------------------------*- C++ -*----------------------------------*\
  =========                 |
  \\      /  F ield         | OpenFOAM: The Open Source CFD Toolbox
   \\    /   O peration     | Website:  https://openfoam.org
    \\  /    A nd           | Version:  9
     \\/     M anipulation  |
\*---------------------------------------------------------------------------*/
FoamFile
{
    format      ascii;
    class       volScalarField;
    location    "0.33";
    object      alpha.phase1;
}
// * * * * * * * * * * * * * * * * * * * * * * * * * * * * * * * * * * * * * //

dimensions      [0 0 0 0 0 0 0];

internalField   nonuniform List<scalar> 
10000
(
5.8126586e-98
5.8126586e-98
8.0004836e-98
4.1066746e-96
4.390419e-94
4.3214362e-92
3.8952784e-90
3.229909e-88
2.3148706e-86
1.7676253e-84
2.6876261e-82
1.5966455e-79
4.1458671e-77
9.2994225e-76
6.1127236e-75
2.262366e-74
5.2596983e-74
1.8313235e-73
2.2825847e-73
2.4219824e-73
2.5403723e-73
2.6307262e-73
2.6691764e-73
7.0239013e-72
7.0487081e-70
6.1416581e-68
6.7081638e-66
9.0273843e-64
1.8348107e-61
1.0959471e-58
4.5989663e-57
1.8189e-56
2.172008e-55
1.0703975e-54
1.2377306e-53
3.7782343e-52
1.1963812e-50
3.4657469e-49
9.0578805e-48
2.1032424e-46
4.24165e-45
7.2868597e-44
1.0630209e-42
1.3137598e-41
1.3227882e-40
1.0334835e-39
6.3088997e-39
3.0551243e-38
1.1100278e-37
2.8631694e-37
2.9175785e-37
1.1711289e-37
3.1566668e-38
6.2004644e-39
9.0352076e-40
9.202076e-41
5.6719699e-42
1.8162573e-43
2.6910105e-45
1.6983517e-47
6.9613307e-50
6.0529521e-53
3.7330348e-56
4.5039107e-57
1.0732528e-56
4.0348178e-56
5.3304547e-56
4.4817318e-56
1.2284516e-56
9.0237651e-58
3.472005e-59
6.6013116e-62
8.0615777e-64
8.6496636e-66
6.6019101e-68
5.0967628e-70
8.0621562e-72
3.5155522e-72
1.8578677e-72
1.1175705e-72
8.6649188e-73
6.0997832e-73
3.1389875e-73
1.0266026e-73
4.5897659e-74
1.5285884e-74
4.0622516e-75
8.2230402e-76
4.2736686e-77
3.6910801e-79
1.527132e-81
5.8950946e-84
1.798531e-86
4.9129951e-89
1.8389945e-91
1.1343234e-93
7.6663951e-96
1.2894185e-97
9.1842388e-98
9.1842388e-98
5.896882e-98
1.6354006e-96
7.1191911e-96
4.0647794e-95
1.953989e-93
1.0128867e-91
6.3918941e-90
5.0149601e-88
5.666109e-86
1.5276584e-83
4.2014542e-81
3.3617054e-79
4.2343065e-77
9.3597523e-76
6.0539953e-75
2.5409789e-74
6.3288573e-74
1.760679e-73
6.7679973e-73
2.6901773e-72
3.3893766e-72
1.920135e-72
4.2229744e-73
7.3988072e-72
1.0561641e-69
1.5088782e-69
2.2881862e-68
6.277356e-66
7.8181315e-63
1.5644507e-58
4.4800783e-57
2.6210438e-56
1.9525795e-53
1.73704e-52
3.0630094e-51
9.1512608e-50
2.6654111e-48
7.0689502e-47
1.6835573e-45
3.551527e-44
6.5178136e-43
1.0216346e-41
1.3499706e-40
1.4844609e-39
1.2978295e-38
8.1490195e-38
3.2913042e-37
8.5696826e-37
1.8744431e-36
3.4346891e-36
3.4793818e-36
1.9399317e-36
8.7583193e-37
3.2587054e-37
7.4801533e-38
9.4602353e-39
6.3917118e-40
2.3077107e-41
4.0499476e-43
3.4881865e-45
1.3016579e-47
1.3746305e-50
5.8133617e-54
1.6287929e-54
9.1896105e-54
1.4574473e-53
1.3344726e-53
3.128018e-54
7.7226639e-57
1.0974642e-57
4.5222922e-59
3.4307606e-61
9.7100013e-66
5.6390745e-68
1.2754674e-69
6.8801355e-70
1.0349243e-70
3.5805754e-71
5.3130459e-72
2.9068742e-72
8.4284988e-72
5.6331246e-72
1.0011247e-72
1.4743204e-73
8.0497751e-74
1.851301e-74
4.6866165e-75
8.5266717e-76
4.7095008e-77
6.8912699e-79
6.3139413e-81
3.4282351e-83
1.1762249e-85
3.7569236e-88
2.9525405e-90
2.8668407e-92
3.2929377e-94
1.9390513e-95
2.859498e-96
9.2810434e-98
4.7974192e-95
1.6411551e-93
1.107406e-91
8.2462106e-91
3.0119033e-90
5.7935996e-89
2.5789937e-87
2.2909106e-85
5.7318173e-83
1.899552e-80
4.9361562e-78
2.5937523e-76
2.1172277e-75
8.7209295e-75
6.3788947e-75
2.9668351e-72
7.5066053e-72
2.8799871e-72
3.4125665e-70
1.3701699e-69
1.5984696e-69
5.8612262e-70
1.0049103e-70
3.9694798e-70
1.9338535e-68
4.6202732e-69
5.9325893e-67
7.0728113e-60
1.4090768e-57
7.4563083e-56
5.4173333e-55
1.5251774e-53
2.3765157e-50
1.1970619e-49
7.7423176e-49
1.7400966e-47
4.8084652e-46
1.2212377e-44
2.7815023e-43
5.6049578e-42
9.8251058e-41
1.4735308e-39
1.8677657e-38
1.9773017e-37
1.6798209e-36
1.043351e-35
4.2506337e-35
1.1174059e-34
2.4048793e-34
4.481467e-34
4.5420487e-34
2.4835845e-34
1.137241e-34
4.1926787e-35
9.5375862e-36
1.2238033e-36
8.6825134e-38
3.4321684e-39
6.9558758e-41
7.216221e-43
3.3474603e-45
5.3157839e-48
4.5490258e-51
1.9669487e-51
9.2205781e-51
1.3461134e-50
1.1631804e-50
2.5095995e-51
7.0768049e-55
1.6315213e-55
1.2035621e-56
4.58378e-58
2.8440373e-60
2.2103361e-66
9.4532044e-69
7.0773919e-68
1.0601561e-67
2.5142683e-68
2.7993925e-69
8.3402611e-70
4.072168e-69
3.5700549e-69
5.6067493e-70
3.3746791e-71
2.7979866e-71
3.7933283e-72
7.0648548e-73
7.8703467e-74
6.7751106e-75
4.4349955e-76
7.6921042e-78
5.6707881e-80
3.124604e-82
1.4178117e-84
6.9379726e-87
7.6945979e-89
3.1274217e-90
2.3445987e-91
3.0544591e-93
7.1152309e-95
1.6558438e-92
7.8746815e-91
7.0476276e-89
4.4131255e-87
9.1655809e-86
2.2677128e-85
2.6165659e-84
2.7256486e-82
6.162877e-80
1.7392265e-77
3.9703281e-75
2.1607415e-73
1.9481574e-72
9.1510079e-72
1.987775e-73
4.5521548e-69
4.3932264e-69
1.6017357e-69
1.5546535e-67
5.1215723e-67
5.5750126e-67
1.5440489e-67
5.552536e-68
5.0751126e-67
2.4679871e-65
4.2078849e-66
8.7850463e-60
1.2671052e-56
1.2620091e-54
4.155003e-53
3.2841436e-52
1.8284454e-50
2.444378e-47
9.1970084e-47
2.3620245e-46
2.6587218e-45
6.7090142e-44
1.6261597e-42
3.5339813e-41
6.7931953e-40
1.1364031e-38
1.6272199e-37
1.9726011e-36
2.0052811e-35
1.6507238e-34
1.009035e-33
4.116242e-33
1.0874193e-32
2.3102309e-32
4.3632935e-32
4.4246292e-32
2.3820036e-32
1.1023109e-32
4.0431651e-33
9.1763209e-34
1.2001915e-34
8.9649349e-36
3.883033e-37
9.0779592e-39
1.1237199e-40
6.1646248e-43
1.5962387e-45
3.1324058e-48
2.1279445e-48
7.4677029e-48
9.654507e-48
7.1302343e-48
1.2466902e-48
5.4295276e-52
1.0178064e-52
6.9509463e-54
3.0238769e-55
2.6522977e-57
1.4600939e-59
1.4331118e-65
4.0258301e-65
6.4231937e-65
1.5263472e-65
1.7376156e-66
2.1714786e-67
1.2000752e-66
1.6979878e-66
3.0040195e-67
1.8995655e-68
1.5785621e-68
2.553451e-69
5.0646613e-70
7.6270995e-71
6.1055575e-72
3.5557484e-73
6.524813e-75
6.09688e-77
4.5105639e-79
3.308628e-81
2.5889654e-83
3.0620303e-85
1.1432234e-86
1.7052478e-88
1.4493531e-90
2.3731633e-92
4.4372676e-90
2.5487308e-88
2.6043246e-86
2.0412494e-84
1.2007212e-82
2.910753e-81
1.1308889e-80
3.2607094e-79
5.2550966e-77
1.1100219e-74
2.257939e-72
1.206207e-70
1.2272697e-69
6.7795865e-69
3.8152846e-68
2.2057248e-66
1.7690915e-66
2.2766295e-66
5.4910375e-65
1.5634545e-64
1.5880079e-64
3.8491345e-65
2.7272541e-65
2.1833307e-64
8.4970145e-63
4.1008981e-60
1.6260733e-56
9.8082429e-54
6.7967768e-52
1.6584594e-50
1.5117908e-49
9.45615e-48
1.0904025e-44
4.6736311e-44
8.6482014e-44
3.7858128e-43
7.5602481e-42
1.7328152e-40
3.5793945e-39
6.5384992e-38
1.040135e-36
1.4181018e-35
1.6398702e-34
1.595972e-33
1.2696811e-32
7.6206737e-32
3.1020502e-31
8.1984319e-31
1.7150898e-30
3.257808e-30
3.3054278e-30
1.7660471e-30
8.2769176e-31
3.0327914e-31
6.8874331e-32
9.1904599e-33
7.225927e-34
3.4323204e-35
9.2107547e-37
1.3429159e-38
9.3486586e-41
3.3401092e-43
1.9463561e-45
1.8901661e-45
4.9936642e-45
5.7039703e-45
3.0228026e-45
3.4791788e-46
3.4829712e-49
4.9157933e-50
2.8080371e-51
1.2766749e-52
1.1985716e-54
8.5542947e-57
3.483268e-59
1.2791828e-61
2.7516125e-62
7.8961072e-63
9.3418446e-64
7.0693631e-65
2.3485852e-64
6.3474057e-64
1.1114867e-64
8.3661671e-66
6.7753305e-66
1.287464e-66
2.5958625e-67
4.6208449e-68
3.5650491e-69
2.0421349e-70
3.812798e-72
4.0728201e-74
3.6931046e-76
2.8649961e-78
2.3204197e-80
3.7522996e-82
6.6358467e-84
6.4942129e-86
4.5958743e-88
6.1434798e-90
9.6861062e-88
6.3135479e-86
7.0945671e-84
6.1069574e-82
4.3604765e-80
2.3713263e-78
5.0752981e-77
3.4839441e-76
3.385542e-74
5.3113956e-72
9.7696234e-70
5.5003369e-68
5.6449646e-67
3.7044775e-66
5.5444203e-65
7.6304914e-64
5.8154615e-64
7.8909974e-64
1.5802179e-62
4.0941402e-62
3.8081813e-62
8.1943217e-63
1.1820821e-62
5.847719e-62
4.920357e-60
1.8760894e-56
1.2028348e-53
2.9287114e-51
8.501561e-50
6.3959059e-48
5.8538383e-47
3.012844e-45
1.7068488e-42
1.4684448e-41
3.2146368e-41
6.8507117e-41
7.3073021e-40
1.5269796e-38
2.9814099e-37
5.1538719e-36
7.7654772e-35
1.0038744e-33
1.1025129e-32
1.0230873e-31
7.834821e-31
4.6018449e-30
1.8646856e-29
4.921156e-29
1.0127826e-28
1.9263452e-28
1.9558881e-28
1.0416612e-28
4.9479171e-29
1.8143256e-29
4.1286823e-30
5.6267751e-31
4.6624775e-32
2.4332209e-33
7.4825714e-35
1.2703233e-36
1.1164457e-38
5.3089964e-41
8.3901744e-43
1.3297307e-42
2.734611e-42
2.804489e-42
1.0445332e-42
7.8188672e-44
1.85157e-46
1.8560211e-47
7.4346164e-49
3.843898e-50
3.6880011e-52
2.7882435e-54
3.7691088e-56
1.5845733e-58
1.2243997e-59
3.3789136e-60
4.1446982e-61
3.3083897e-62
6.5985677e-62
1.9583697e-61
3.3608043e-62
3.0119037e-63
2.3906829e-63
5.0535245e-64
1.0239258e-64
2.0752232e-65
1.6255533e-66
8.8052391e-68
1.6792047e-69
1.9960589e-71
1.8474354e-73
1.1749733e-75
1.1477853e-77
2.1415244e-79
2.1409555e-81
1.7505358e-83
1.1125243e-85
1.2937527e-87
1.7787563e-85
1.2734973e-83
1.5200374e-81
1.4259982e-79
1.0973732e-77
7.182011e-76
3.5370267e-74
2.8889087e-73
1.4222549e-71
2.0853911e-69
3.5182603e-67
1.8682924e-65
2.114824e-64
1.707583e-63
3.1646698e-62
2.1322401e-61
1.6003305e-61
2.151135e-61
3.9412089e-60
9.5132121e-60
7.4938344e-60
1.471657e-60
4.6448399e-60
2.1401964e-59
2.09987e-57
5.7282908e-54
1.1992652e-51
1.3920654e-49
1.7869023e-48
6.1992474e-46
1.4195814e-44
1.2681635e-42
7.0546555e-41
4.2412196e-39
1.2332879e-38
1.782876e-38
6.8489331e-38
1.1406671e-36
2.0860231e-35
3.3950857e-34
4.8226344e-33
5.8880748e-32
6.1149347e-31
5.3841578e-30
3.9500408e-29
2.2617065e-28
9.0994171e-28
2.3948716e-27
4.8453691e-27
9.1940407e-27
9.3428669e-27
4.9781797e-27
2.3976831e-27
8.8056273e-28
2.009655e-28
2.8011581e-29
2.4520871e-30
1.4084401e-31
4.9326054e-33
9.6053474e-35
1.0282926e-36
6.7196997e-39
3.18549e-40
7.5731322e-40
1.2209979e-39
1.1214863e-39
3.0830912e-40
1.7050373e-41
7.9617842e-44
5.4603718e-45
8.4888726e-47
1.2832261e-47
8.3480768e-50
9.8599234e-52
1.4568365e-53
2.9744201e-56
5.4902027e-57
1.2262702e-57
1.5880849e-58
1.1199318e-59
1.643486e-59
5.1555631e-59
8.7862751e-60
9.0936213e-61
7.0001578e-61
1.6213344e-61
3.3880202e-62
7.5129389e-63
6.044391e-64
2.9619276e-65
5.9610697e-67
7.5936165e-69
5.6536131e-71
4.3085481e-73
6.6183948e-75
6.3123125e-77
5.1027487e-79
3.7005403e-81
2.187455e-83
2.2875836e-85
2.8122719e-83
2.1697504e-81
2.7052819e-79
2.7046143e-77
2.2468042e-75
1.5834959e-73
9.5250975e-72
3.8304427e-70
4.7564403e-69
6.0734896e-67
9.3785044e-65
5.4137584e-63
7.0188904e-62
6.4392808e-61
1.0024881e-59
5.0086778e-59
3.7956004e-59
5.0983493e-59
8.8583533e-58
2.0063316e-57
1.0760947e-57
2.2227942e-58
1.6027315e-57
9.7727252e-57
4.6054612e-55
2.9176581e-52
2.0740401e-50
8.3676528e-49
5.1168023e-46
5.8012238e-45
3.1453879e-42
7.100988e-40
5.9218071e-39
1.1172311e-36
4.6635666e-36
5.8060971e-36
8.7036793e-36
7.4918916e-35
1.243246e-33
1.8943998e-32
2.5241057e-31
2.8954544e-30
2.829676e-29
2.3520448e-28
1.6442928e-27
9.1398424e-27
3.6432063e-26
9.5535703e-26
1.8987153e-25
3.5802636e-25
3.6414611e-25
1.9483681e-25
9.5189441e-26
3.5018915e-26
8.0200518e-27
1.1455156e-27
1.0619402e-28
6.694714e-30
2.637333e-31
5.8418266e-33
7.6189271e-35
7.510993e-37
1.3158516e-37
3.4112972e-37
4.5416173e-37
3.3973003e-37
6.6486895e-38
3.269065e-39
2.7510561e-41
1.4002974e-42
1.7069612e-44
1.0606328e-44
2.6290706e-47
3.7273016e-49
6.5905952e-52
4.860354e-54
2.2334479e-54
4.0280652e-55
5.2424553e-56
2.979487e-57
3.6883471e-57
1.1759564e-56
2.0174445e-57
2.3579109e-58
1.7624452e-58
4.4428518e-59
9.4140126e-60
2.2679777e-60
1.8286379e-61
8.7514649e-63
1.8135165e-64
2.1993754e-66
1.5073791e-68
1.8965991e-70
1.9226101e-72
1.3836911e-74
9.7277078e-77
6.4849548e-79
3.6243382e-81
3.4745522e-83
3.8946829e-81
3.1997619e-79
4.1290691e-77
4.3256345e-75
3.8466978e-73
2.918172e-71
1.9416853e-69
1.0540024e-67
1.7277033e-66
1.3273537e-64
1.7925638e-62
1.3691566e-60
2.0366034e-59
2.1523511e-58
2.4695547e-57
1.0237834e-56
7.912345e-57
1.1134182e-56
1.8211188e-55
3.8804461e-55
1.3797821e-55
4.5593594e-56
5.4092545e-55
3.3915788e-54
7.1017836e-53
4.5984509e-51
5.2632759e-49
1.1649725e-46
1.6370644e-44
6.5884255e-43
6.8537391e-40
2.2684771e-37
1.4468901e-36
1.5739516e-34
1.230589e-33
1.7894003e-33
1.8436759e-33
5.0319672e-33
6.4056026e-32
9.0414853e-31
1.1240803e-29
1.2054482e-28
1.1025217e-27
8.5949885e-27
5.6864823e-26
3.0510647e-25
1.2012297e-24
3.1324171e-24
6.0974851e-24
1.1383366e-23
1.1589202e-23
6.246289e-24
3.1028578e-24
1.1449566e-24
2.6343533e-25
3.8661501e-26
3.8125202e-27
2.637607e-28
1.1603326e-29
2.9194441e-31
4.7177553e-33
9.2264341e-35
5.5139526e-35
1.2007313e-34
1.3232125e-34
6.0679205e-35
6.5437088e-36
3.3059637e-37
7.9220005e-39
2.9245593e-40
1.1528592e-42
4.3812633e-43
1.011161e-44
2.082098e-47
7.4586258e-51
1.764488e-51
6.7551382e-52
1.1906239e-52
1.43646e-53
7.8651201e-55
7.5086343e-55
2.3581249e-54
4.1113723e-55
5.3473656e-56
3.9262875e-56
1.0553368e-56
2.3095013e-57
6.0839242e-58
4.7772675e-59
2.2701134e-60
4.8092537e-62
4.5856187e-64
4.6143612e-66
5.7841012e-68
4.0083288e-70
2.4617139e-72
1.5626009e-74
9.7315475e-77
5.1862745e-79
4.6116888e-81
4.7878532e-79
4.1564412e-77
5.5204222e-75
6.0039287e-73
5.6169381e-71
4.5865937e-69
3.3102126e-67
2.0896698e-65
9.3377911e-64
2.3128883e-62
2.8420345e-60
2.9681824e-58
5.42997e-57
7.397492e-56
5.1591593e-55
1.8542805e-54
1.4684922e-54
2.2971611e-54
3.380882e-53
6.9236215e-53
2.3648168e-53
1.0756427e-53
1.48514e-52
9.9562219e-52
1.348789e-50
6.8314068e-49
1.2280342e-46
5.9306576e-44
8.0991615e-44
1.5578258e-40
1.0746942e-37
2.5202104e-35
2.3802091e-34
1.6594292e-32
2.4260926e-31
5.1002564e-31
4.5017834e-31
5.1645934e-31
2.9817605e-30
3.7295474e-29
4.296221e-28
4.2811367e-27
3.6431965e-26
2.6440222e-25
1.6397276e-24
8.4187974e-24
3.2575705e-23
8.4155695e-23
1.5950246e-22
2.9496941e-22
3.0072852e-22
1.6298195e-22
8.2729738e-23
3.071375e-23
7.1167537e-24
1.079272e-24
1.1409072e-25
8.6760118e-27
4.2470598e-28
1.2224946e-29
2.5839272e-31
1.6725281e-32
2.0446969e-32
3.5180099e-32
3.1997744e-32
7.5458094e-33
9.9517956e-35
2.0895237e-35
2.4981766e-36
4.8333658e-38
4.8800739e-41
2.836892e-42
3.6950629e-43
2.0145906e-46
1.4532535e-48
5.9776219e-49
1.8932274e-49
3.1453066e-50
3.126562e-51
1.8416861e-52
1.39704e-52
4.2359192e-52
7.5157585e-53
1.0767043e-53
7.9739198e-54
2.2788608e-54
5.0123521e-55
1.4102013e-55
1.1121364e-56
5.1217869e-58
1.0655395e-59
1.0183704e-61
1.4502163e-63
1.1692981e-65
6.8007048e-68
3.734488e-70
2.1791661e-72
1.277939e-74
6.5240075e-77
5.4203742e-79
5.2799753e-77
4.8187922e-75
6.5638652e-73
7.3695253e-71
7.1852339e-69
6.2055104e-67
4.8450001e-65
3.4056039e-63
2.0898407e-61
4.6660128e-60
4.173847e-58
5.9974236e-56
1.3580498e-54
1.6665477e-53
9.1731145e-53
3.0098823e-52
2.4481389e-52
4.4601674e-52
5.5199546e-51
1.1333981e-50
3.7361181e-51
2.4104096e-51
3.8303837e-50
2.9257868e-49
1.1284616e-48
1.0568913e-46
3.9759792e-44
8.745027e-42
6.3119627e-42
7.7653984e-39
1.4232372e-35
4.5259377e-34
3.408415e-32
3.9579388e-31
3.3001291e-29
1.1560009e-28
1.1413401e-28
8.406887e-29
1.5472737e-28
1.3445732e-27
1.4153626e-26
1.3030149e-25
1.0254838e-24
6.8780092e-24
3.949165e-23
1.9168228e-22
7.2744942e-22
1.8836196e-21
3.5288759e-21
6.5291004e-21
6.6691019e-21
3.5979397e-21
1.8365314e-21
6.7663919e-22
1.5743791e-22
2.4901794e-23
2.8557869e-24
2.3948514e-25
1.3039665e-26
4.3872259e-28
1.406593e-29
3.3595789e-30
7.2293317e-30
1.0703018e-29
8.9210929e-30
1.8300815e-30
6.6574402e-33
3.1419326e-33
8.4903878e-34
6.3713336e-36
2.7108674e-39
1.8827948e-40
1.1457678e-42
1.3080476e-44
2.6135439e-46
1.9737493e-46
4.6982459e-47
7.4591089e-48
6.4490324e-49
3.8333761e-50
2.3771567e-50
6.8759876e-50
1.25001e-50
1.9555484e-51
1.5613721e-51
4.9488989e-52
1.010211e-52
2.9140103e-53
2.3038844e-54
1.0406046e-55
1.8759123e-57
2.6014268e-59
2.8960213e-61
1.9002289e-63
9.8876228e-66
4.9716894e-68
2.6913287e-70
1.4918429e-72
7.3121602e-75
5.7015657e-77
5.2678555e-75
5.0376499e-73
7.0207066e-71
8.1080708e-69
8.1917687e-67
7.4083805e-65
6.1661217e-63
4.7593372e-61
3.4893293e-59
2.079084e-57
6.2761582e-56
1.1082119e-53
3.1489122e-52
2.9883969e-51
1.4265905e-50
4.4134201e-50
3.6906935e-50
8.0039048e-50
8.2422563e-49
1.6990707e-48
5.4855437e-49
4.5264835e-49
8.0599099e-48
6.9158516e-47
3.4347687e-46
2.9921119e-45
1.107937e-42
1.2350876e-40
1.1385366e-40
8.7192132e-37
3.1427489e-33
2.5852848e-32
7.3990557e-30
2.6208085e-29
5.6572486e-27
2.5204121e-26
2.8285588e-26
1.8310294e-26
1.3791101e-26
4.5533065e-26
4.0581367e-25
3.4285019e-24
2.4778254e-23
1.5260163e-22
8.0477038e-22
3.655929e-21
1.3717193e-20
3.8066043e-20
7.798786e-20
1.4264928e-19
1.4518445e-19
7.9897468e-20
3.7210883e-20
1.2593973e-20
2.892096e-21
4.8047068e-22
6.0155044e-23
5.5658022e-24
3.3974294e-25
1.4084407e-26
9.9308389e-28
7.6325464e-28
2.0005366e-27
2.6259899e-27
1.9900857e-27
3.6425323e-28
7.7766835e-31
3.3150895e-31
1.6673024e-31
6.9014856e-34
1.2771881e-38
7.0282591e-39
2.8778399e-40
3.7300042e-43
7.0200493e-44
4.9176482e-44
1.0297589e-44
1.5883655e-45
1.1676091e-46
7.6665951e-48
3.8350419e-48
1.0116162e-47
1.9218471e-48
3.1839757e-49
2.7565797e-49
9.079353e-50
2.0033773e-50
5.2314612e-51
4.4292795e-52
1.9207478e-53
3.3473784e-55
5.3372978e-57
4.5273649e-59
2.6432542e-61
1.268353e-63
5.9177495e-66
2.9865352e-68
1.5669928e-70
7.3800508e-73
5.4135813e-75
4.7883387e-73
4.7882265e-71
6.8158036e-69
8.0777861e-67
8.4255436e-65
7.9311991e-63
6.9603839e-61
5.8135032e-59
4.8740519e-57
4.2925759e-55
1.858301e-53
2.0597452e-51
6.0520608e-50
4.5471747e-49
1.9746639e-48
5.8739011e-48
5.1680666e-48
1.3193231e-47
1.1448329e-46
2.3343046e-46
7.494017e-47
7.4410019e-47
1.5075138e-45
1.5840007e-44
8.4529088e-44
2.9925472e-43
1.1699475e-42
7.7731333e-41
1.9624546e-40
1.4392804e-34
2.2848573e-31
1.079472e-30
3.082836e-29
2.1246513e-27
8.0625014e-25
4.3468262e-24
5.6261609e-24
4.2185339e-24
1.723342e-24
1.988755e-24
1.0361737e-23
7.8648783e-23
5.190626e-22
2.9237452e-21
1.4362268e-20
6.1749952e-20
2.2942058e-19
6.909252e-19
1.5861208e-18
2.7231162e-18
2.7392863e-18
1.6351436e-18
6.8317665e-19
2.0780536e-19
4.6886405e-20
8.113347e-21
1.0846951e-21
1.1059053e-22
7.7827926e-24
4.5831224e-25
1.0916744e-25
1.8647068e-25
4.3020571e-25
5.0691324e-25
3.3480136e-25
5.3316943e-26
1.1097891e-28
3.8119095e-29
1.6095716e-29
8.2790532e-32
4.52919e-38
2.6503398e-38
1.7132409e-38
1.5917119e-41
2.682017e-41
9.8572832e-42
2.0168908e-42
2.67506e-43
1.908816e-44
1.4125573e-45
5.4915491e-46
1.35437e-45
2.775711e-46
4.6175108e-47
4.1399525e-47
1.3782132e-47
3.2460047e-48
8.0103742e-49
7.643858e-50
3.2220374e-51
6.6437179e-53
8.1356067e-55
6.0219958e-57
3.2484531e-59
1.4617644e-61
6.3824364e-64
3.0114219e-66
1.4953764e-68
6.7658179e-71
4.6730794e-73
3.9887645e-71
4.1659748e-69
6.0495491e-67
7.3458443e-65
7.8899827e-63
7.7003408e-61
7.0794112e-59
6.3181294e-57
5.9168434e-55
6.4725846e-53
7.0406094e-51
4.085459e-49
9.1895787e-48
6.016279e-47
2.4590291e-46
7.1000459e-46
7.0990698e-46
2.0028835e-45
1.4776326e-44
2.9386864e-44
9.4980784e-45
1.1190073e-44
2.5200156e-43
3.0487491e-42
1.6892084e-41
9.3469459e-41
9.5560733e-41
1.1535691e-40
7.5648257e-39
5.8911598e-33
1.4066408e-29
1.2650277e-28
7.2016162e-28
2.8939607e-25
9.8901239e-23
6.1479053e-22
9.3184067e-22
7.570816e-22
3.2284801e-22
1.3141407e-22
2.688751e-22
1.6127963e-21
9.7931784e-21
5.0123777e-20
2.2664179e-19
9.0908821e-19
3.1213256e-18
8.7412533e-18
1.9490778e-17
3.108217e-17
3.1215572e-17
1.9825755e-17
8.5375757e-18
2.7310564e-18
6.5425002e-19
1.1982541e-19
1.7284218e-20
2.0004269e-21
1.7267485e-22
2.0212719e-23
1.4120226e-23
4.1068345e-23
7.447951e-23
7.9955701e-23
4.3936414e-23
5.8746676e-24
1.320223e-26
3.8904368e-27
9.0499678e-28
3.1687633e-30
8.7336472e-36
1.5185362e-37
1.2069137e-38
4.4959366e-39
6.5681033e-39
2.0010657e-39
3.5933676e-40
4.0966015e-41
2.7827261e-42
2.1759272e-43
7.4366532e-44
1.6682777e-43
3.7642131e-44
6.0377334e-45
5.4389839e-45
1.8013571e-45
4.3483207e-46
1.0431057e-46
1.1717719e-47
4.9657393e-49
1.0020012e-50
1.0411185e-52
7.0681628e-55
3.5937951e-57
1.5327737e-59
6.3013507e-62
2.784543e-64
1.3071076e-66
5.6752952e-69
3.6896531e-71
3.0603689e-69
3.3366374e-67
4.938475e-65
6.1367838e-63
6.7751492e-61
6.8371609e-59
6.5579126e-57
6.2097323e-55
6.3854875e-53
8.1541957e-51
1.1896877e-48
7.5092142e-47
1.1853115e-45
7.0714521e-45
2.7762112e-44
7.6952951e-44
8.9740726e-44
2.7686814e-43
1.7719825e-42
3.3842447e-42
1.1021996e-42
1.5909039e-42
4.0851818e-41
5.5897058e-40
3.3491061e-39
1.7069121e-38
2.7699371e-38
1.5323355e-38
7.6065093e-37
5.5818748e-32
6.3037688e-28
2.6187867e-26
4.1318337e-26
5.545757e-23
1.3866859e-20
8.6894706e-20
1.6141429e-19
1.1148475e-19
5.6312828e-20
1.2591205e-20
9.9897891e-21
3.2048072e-20
1.7540771e-19
8.0256231e-19
3.0768422e-18
1.0260945e-17
3.0167396e-17
7.7931918e-17
1.5861499e-16
2.4514922e-16
2.3918089e-16
1.6202418e-16
7.4215103e-17
2.534019e-17
6.8579146e-18
1.448318e-18
2.5371239e-19
3.6396915e-20
4.4413419e-21
1.4338673e-21
2.2216709e-21
7.0174058e-21
1.0730138e-20
1.0744053e-20
5.0975022e-21
6.0222643e-22
1.1795253e-24
1.2341793e-25
4.6318795e-26
1.7892489e-29
3.1932232e-33
5.3871415e-36
5.4479281e-37
1.3904592e-36
1.4132547e-36
3.689346e-37
5.8386283e-38
6.1552441e-39
3.8645841e-40
3.1902457e-41
8.9762304e-42
1.9013274e-41
4.7785164e-42
7.1871726e-43
6.339173e-43
2.0790641e-43
5.0466976e-44
1.1844147e-44
1.5026901e-45
6.8575519e-47
1.2400695e-48
1.1705611e-50
7.4713399e-53
3.6243099e-55
1.4761565e-57
5.741843e-60
2.3792709e-62
1.0539051e-64
4.3832577e-67
2.678653e-69
2.1720612e-67
2.4719929e-65
3.7266194e-63
4.7346061e-61
5.3657984e-59
5.5882868e-57
5.5767258e-55
5.5795043e-53
6.2421764e-51
9.0067802e-49
1.5449997e-46
1.0143839e-44
1.336305e-43
7.4854861e-43
2.8570357e-42
7.6780011e-42
1.0303885e-41
3.4610505e-41
1.9749305e-40
3.5475514e-40
1.1919573e-40
2.1650487e-40
5.8077227e-39
8.4618801e-38
5.7180033e-37
2.938649e-36
6.4061096e-36
4.5090625e-36
4.6545304e-34
3.549071e-31
2.4227069e-27
1.8436335e-24
1.2516053e-23
2.4358269e-20
3.4259792e-18
1.7320223e-17
4.7954341e-17
7.5351249e-18
8.1212091e-18
1.6333035e-18
4.3326307e-19
7.0008717e-19
2.7861192e-18
1.1145123e-17
3.3689601e-17
8.8929345e-17
2.1793834e-16
4.2886132e-16
8.0100461e-16
1.2608949e-15
1.2942133e-15
8.600296e-16
3.9948599e-16
1.5797025e-16
4.7275775e-17
1.3049593e-17
3.169871e-18
5.7927399e-19
1.3636431e-19
1.0431026e-19
3.4019468e-19
9.9185328e-19
1.5441724e-18
1.9198912e-18
6.8040147e-19
7.2983489e-20
1.7586148e-22
2.3780219e-24
9.1771532e-25
3.0228861e-28
1.1857222e-30
1.8107546e-34
1.6068092e-34
3.3155149e-34
2.5442213e-34
6.149572e-35
8.7678393e-36
8.3939975e-37
5.1534196e-38
3.8437867e-39
9.8105095e-40
2.0110967e-39
5.6353017e-40
7.9923016e-41
6.6079386e-41
2.1496312e-41
5.1950315e-42
1.1950061e-42
1.6426984e-43
7.8494763e-45
1.3380818e-46
1.183702e-48
7.206051e-51
3.3625459e-53
1.3154034e-55
4.8615934e-58
1.8911781e-60
7.8877297e-63
3.1346353e-65
1.7964583e-67
1.4314707e-65
1.7011932e-63
2.6108012e-61
3.3887194e-59
3.9381045e-57
4.2266493e-55
4.3803061e-53
4.6196012e-51
5.5938706e-49
8.9512903e-47
1.7096995e-44
1.1445219e-42
1.3464576e-41
7.1992383e-41
2.6919129e-40
7.1125323e-40
1.0840815e-39
3.923784e-39
2.0442933e-38
3.3937364e-38
1.206716e-38
2.8738174e-38
6.9170146e-37
1.1762979e-35
8.7943459e-35
4.7143056e-34
1.2454987e-33
1.0241972e-33
1.3062575e-31
4.4896837e-28
8.8003991e-24
4.8214215e-22
1.2195895e-21
2.3557016e-18
3.6092942e-16
2.9038209e-15
1.2739842e-14
2.3249008e-15
7.7156917e-16
2.3607536e-16
6.8294155e-17
1.7334459e-17
3.5218949e-17
1.0700086e-16
2.9110087e-16
6.1763833e-16
1.0717734e-15
1.9275388e-15
2.6480586e-15
4.1577885e-15
4.3778291e-15
2.6257031e-15
1.4973429e-15
7.4708258e-16
3.0600347e-16
9.6364412e-17
2.2085558e-17
6.3626268e-18
4.1448859e-18
9.747671e-18
4.2970257e-17
8.8182686e-17
3.1456578e-16
2.8081488e-16
1.6010396e-16
1.3700911e-17
3.1517862e-20
4.7620102e-22
7.8075309e-23
1.8697607e-26
1.9031975e-28
4.025848e-32
3.9308512e-32
7.2193444e-32
3.8562245e-32
9.2037745e-33
1.1582661e-33
1.0721803e-34
6.2401645e-36
4.0870059e-37
1.0003121e-37
1.9796573e-37
6.173295e-38
8.8679494e-39
6.1807743e-39
2.0092056e-39
4.8072819e-40
1.0856004e-40
1.5837849e-41
7.8477957e-43
1.2944295e-44
1.09201e-46
6.4004739e-49
2.8903186e-51
1.0911242e-53
3.8468295e-56
1.4067457e-58
5.5117295e-61
2.0864698e-63
1.1176982e-65
8.789785e-64
1.0915261e-61
1.7045707e-59
2.2588223e-57
2.6892447e-55
2.9710721e-53
3.1936914e-51
3.5462636e-49
4.634685e-47
8.1283882e-45
1.6793393e-42
1.1334922e-40
1.2287413e-39
6.328185e-39
2.3303924e-38
6.1089042e-38
1.0488677e-37
4.0513763e-37
1.965431e-36
2.9669522e-36
1.1380398e-36
3.5431291e-36
7.6273787e-35
1.5275307e-33
1.2829148e-32
7.1779324e-32
1.8726857e-31
2.0774264e-31
8.8294397e-29
2.7508117e-23
1.1667094e-20
3.3798912e-20
3.1305917e-20
-9.88414e-19
2.8878872e-16
1.9499111e-13
2.5669503e-12
7.496755e-13
3.0559805e-14
3.229052e-14
5.7177912e-15
4.220971e-16
4.0792499e-16
1.179007e-15
6.4023084e-15
1.0428145e-14
1.2602558e-14
7.1415025e-14
3.1535475e-14
1.4539134e-14
1.2789872e-14
4.1611719e-14
9.4889967e-15
5.5807201e-15
6.157049e-15
4.4391398e-15
6.6598697e-16
1.3325081e-16
1.2185509e-16
1.1409409e-15
3.1827191e-15
6.5962482e-15
6.3874713e-14
5.841805e-16
7.923106e-17
1.2210679e-17
1.0363634e-19
4.5684207e-20
2.2595717e-20
5.5966131e-22
5.9226651e-25
9.8268737e-30
7.9671444e-30
1.3077628e-29
5.5609557e-30
1.3036721e-30
1.4175305e-31
1.2829221e-32
6.4210225e-34
3.9265579e-35
9.3343094e-36
1.8133222e-35
6.2555682e-36
1.0190093e-36
5.2462875e-37
1.7073982e-37
4.032904e-38
8.9560823e-39
1.3726432e-39
7.035507e-41
1.1407213e-42
9.2800104e-45
5.2718262e-47
2.3148439e-49
8.4677554e-52
2.8587335e-54
9.8455683e-57
3.6158954e-59
1.2990583e-61
6.4768822e-64
5.0442538e-62
6.5513157e-60
1.0405779e-57
1.4070123e-55
1.7147193e-53
1.9482017e-51
2.1703926e-49
2.5368095e-47
3.5734181e-45
6.8124665e-43
1.4953261e-40
1.0091457e-38
1.0242558e-37
5.1059973e-37
1.8586442e-36
4.8638254e-36
9.3484877e-36
3.8214819e-35
1.7493083e-34
2.3801413e-34
1.0038186e-34
3.9796004e-34
7.6878864e-33
1.7951065e-31
1.6852166e-30
9.0315701e-30
2.5931509e-29
4.5285863e-29
2.2375342e-24
4.1036065e-20
9.3425776e-19
1.2444501e-18
1.2524293e-18
4.5828679e-18
8.3693078e-14
5.2261287e-11
3.9125551e-10
1.4434688e-10
4.7539304e-11
7.7757021e-12
5.8283863e-15
1.3230991e-14
1.6469579e-14
3.5269418e-14
5.9178836e-14
8.7057706e-14
2.0656256e-13
2.9130124e-13
2.8617363e-13
1.6542423e-13
9.6708665e-14
1.7912135e-13
1.3365213e-13
7.9607753e-14
5.1236675e-14
2.9262761e-14
8.7465708e-15
6.3304826e-15
5.0356273e-15
1.3196863e-15
3.6937393e-14
3.6800244e-12
1.1994809e-11
8.7259165e-13
1.6579805e-16
8.2466398e-18
1.6103552e-19
1.7648582e-19
1.4760338e-18
4.4986634e-19
2.3731737e-20
5.1919835e-27
2.1003269e-27
1.6842433e-27
7.6497406e-28
1.6871509e-28
1.6650143e-29
1.2473683e-30
5.8848908e-32
3.4949772e-33
7.910411e-34
1.5416172e-33
5.7035123e-34
1.0031366e-34
4.1220346e-35
1.3239528e-35
3.084547e-36
6.7475004e-37
1.0814868e-37
5.7402615e-39
9.2531037e-41
7.3158877e-43
4.0487428e-45
1.7355501e-47
6.1748566e-50
2.0039876e-52
6.5157174e-55
2.2389993e-57
7.6028991e-60
3.5093585e-62
2.7131687e-60
3.6894122e-58
5.9578184e-56
8.2148787e-54
1.0239977e-51
1.1954817e-49
1.3796977e-47
1.6983215e-45
2.5773719e-43
5.3079923e-41
1.2224524e-38
8.1886278e-37
7.8439874e-36
3.7940349e-35
1.368525e-34
3.5903931e-34
7.6830116e-34
3.2981542e-33
1.4368599e-32
1.7584524e-32
8.1211105e-33
4.0918212e-32
7.2448168e-31
1.859572e-29
2.0927582e-28
8.0463307e-28
3.7110914e-26
7.1695116e-26
1.2145958e-19
5.1666483e-18
2.3133639e-17
1.0685307e-17
6.2305822e-16
4.3617668e-14
6.7863917e-11
1.7223018e-08
4.2552379e-08
1.6063687e-08
1.1881566e-08
7.5012126e-10
1.8581573e-14
2.7368416e-14
1.2019548e-13
4.1804908e-14
1.0128732e-13
1.9408648e-13
2.6660918e-13
2.1307718e-13
3.3845415e-14
7.8842558e-15
1.7065933e-13
1.9593178e-13
1.9982577e-13
1.9136284e-13
1.6173492e-13
7.5190749e-14
2.1645896e-14
6.4261836e-15
5.0460368e-15
1.3480041e-13
5.1519116e-12
6.3901781e-10
2.2782342e-10
6.6432702e-10
8.6055865e-14
1.5326429e-15
5.0335622e-12
2.7545893e-13
1.0776656e-16
2.2314215e-17
1.3050246e-18
2.5858039e-23
4.2040159e-25
1.9218801e-25
9.2089818e-26
1.941937e-26
1.7455583e-27
1.0756888e-28
4.7277855e-30
2.8483492e-31
6.1475511e-32
1.2135427e-31
4.6888826e-32
8.677996e-33
2.9804867e-33
9.3966244e-34
2.1591096e-34
4.6594558e-35
7.8016726e-36
4.3024895e-37
6.9591875e-39
5.3793592e-41
2.9122107e-43
1.2230044e-45
4.2471189e-48
1.3302861e-50
4.0960838e-53
1.3156138e-55
4.2040909e-58
1.7849817e-60
1.3715085e-58
1.9550391e-56
3.208145e-54
4.5079923e-52
5.7429259e-50
6.884388e-48
8.2298793e-46
1.068103e-43
1.7466175e-41
3.8662097e-39
9.2546033e-37
6.109985e-35
5.5408162e-34
2.6020943e-33
9.3158178e-33
2.4573809e-32
5.8232702e-32
2.6078453e-31
1.0833176e-30
1.2039819e-30
5.9148853e-31
3.6471513e-30
6.3465467e-29
1.6841867e-27
2.2933566e-26
8.798726e-26
2.1491882e-24
1.3425276e-21
1.7857112e-17
3.2733022e-16
1.0924576e-15
3.2857149e-15
2.0664968e-13
1.2672418e-11
3.2707969e-08
2.5509571e-07
1.3018364e-05
3.7820723e-05
2.6336683e-06
7.2176959e-12
5.7066453e-14
5.670856e-14
6.1764372e-12
5.013015e-10
2.3703067e-13
7.6867617e-13
3.1080887e-13
2.6576213e-13
-1.1750166e-12
-7.8959216e-13
-1.3622703e-14
-2.2114056e-13
-2.1018946e-14
1.5495992e-13
1.2537129e-13
4.5440492e-14
9.912895e-15
6.4467623e-15
6.7424733e-15
6.1911999e-12
5.0482543e-09
3.1843759e-06
4.5803124e-06
2.6923733e-06
5.2818253e-07
7.6959669e-13
5.2095172e-12
1.0075105e-13
2.4669701e-16
2.4142113e-16
4.4251074e-17
1.3662234e-18
2.0734081e-23
2.7945877e-23
9.2246823e-24
2.0588977e-24
1.6008751e-25
6.9052567e-27
3.6498841e-28
1.9735974e-29
4.2462216e-30
8.7962622e-30
3.4811072e-30
6.6924679e-31
1.9801529e-31
6.1153116e-32
1.3864874e-32
2.9555988e-33
5.176828e-34
2.9811813e-35
4.8788595e-37
3.7050549e-39
1.9691604e-41
8.1283917e-44
2.7646485e-46
8.3914466e-49
2.4563507e-51
7.374478e-54
2.2082954e-56
8.5593954e-59
6.5332033e-57
9.7749605e-55
1.6290481e-52
2.3311167e-50
3.0323432e-48
3.7298928e-46
4.6195309e-44
6.3323308e-42
1.1162531e-39