/*--------------------------------*- C++ -*----------------------------------*\
  =========                 |
  \\      /  F ield         | OpenFOAM: The Open Source CFD Toolbox
   \\    /   O peration     | Website:  https://openfoam.org
    \\  /    A nd           | Version:  9
     \\/     M anipulation  |
\*---------------------------------------------------------------------------*/
FoamFile
{
    format      ascii;
    class       surfaceScalarField;
    location    "0.33";
    object      alphaPhi0.phase1;
}
// * * * * * * * * * * * * * * * * * * * * * * * * * * * * * * * * * * * * * //

dimensions      [0 3 -1 0 0 0 0];

internalField   nonuniform List<scalar> 
19800
(
6.7392683e-102
-1.9036106e-101
8.7237302e-102
-2.0296902e-101
8.9291591e-101
-6.4008313e-101
5.2213305e-99
-3.0084644e-99
3.2806279e-97
-1.4697044e-97
2.2031898e-95
-7.2180121e-96
1.6997231e-93
-4.2881845e-94
1.3837252e-91
-3.0042906e-92
1.0234681e-89
-2.0408742e-90
8.1596424e-88
-1.5284993e-88
1.2766978e-85
-2.2314981e-86
7.4859304e-83
-1.168677e-83
1.8964802e-80
-2.7960826e-81
3.908657e-79
-5.7244536e-80
2.2736089e-78
-3.348212e-79
7.2536976e-78
-1.0994603e-78
1.5956942e-77
-2.1870257e-78
4.1987152e-77
-6.0310857e-78
4.2433718e-77
-6.0503196e-78
3.9469592e-77
-4.5338143e-78
3.5624551e-77
-2.6119204e-78
3.0652884e-77
-5.6365162e-79
2.5467272e-77
1.5121204e-78
9.8760297e-76
1.0718643e-76
7.0079796e-74
1.63239e-74
3.2361446e-72
1.773163e-72
2.2891521e-71
2.2417741e-70
-3.20776e-68
3.4855727e-68
-1.4194824e-64
8.6987103e-66
-9.0822696e-62
4.8887808e-63
-5.3746478e-61
2.1768665e-61
-6.6658851e-60
9.3046528e-61
-3.8219617e-59
1.1840381e-59
-2.1897056e-58
6.2657297e-59
-4.019642e-57
7.8581022e-58
-1.3816849e-55
2.552383e-56
-4.5361228e-54
8.5556925e-55
-1.3350201e-52
2.6341038e-53
-3.4985158e-51
7.475848e-52
-7.9528962e-50
1.8636083e-50
-1.5173529e-48
4.0212358e-49
-2.4012209e-47
7.4618707e-48
-3.1820828e-46
1.174601e-46
-3.4411986e-45
1.5690439e-45
-2.7745583e-44
1.6952368e-44
-1.5942054e-43
1.4117107e-43
-6.427636e-43
9.079155e-43
-1.4257771e-42
4.583599e-42
5.9748568e-43
1.7210028e-41
9.5231898e-42
4.5378313e-41
1.7810748e-41
4.678374e-41
5.2653048e-42
1.8804494e-41
1.3634244e-42
5.0282049e-42
2.4791637e-43
9.709297e-43
3.1169942e-44
1.3772686e-43
2.4040048e-45
1.3609799e-44
9.4424038e-47
8.0854395e-46
1.6451802e-48
2.517455e-47
1.2090496e-50
3.7022747e-49
4.3557661e-53
2.4547781e-51
1.0908135e-55
1.0941535e-53
1.1531733e-58
1.9523832e-56
8.6208199e-59
3.2669141e-59
5.8918354e-61
4.5531074e-61
1.7055573e-60
1.0422416e-60
4.0151443e-60
3.6937025e-60
2.7605344e-60
4.6393787e-60
7.583795e-61
3.6527726e-60
-2.4053039e-62
9.3870945e-61
-3.3457174e-63
6.4141861e-62
-1.1084702e-65
2.2774361e-63
-1.9043678e-67
3.9453395e-66
-2.6260001e-69
4.3116392e-68
-2.4243086e-71
4.0344915e-70
-2.1581093e-73
2.5814053e-72
-3.0129954e-75
1.5557595e-74
-1.2431593e-75
1.6146753e-76
-6.7447757e-76
2.4263695e-77
-4.0037716e-76
-7.1816937e-78
-3.2518537e-76
-1.6774758e-77
-2.5740424e-76
-2.3070837e-77
-1.5610985e-76
-2.2770647e-77
-5.3912668e-77
-1.4710277e-77
-2.4414576e-77
-5.7411378e-78
-8.7622831e-78
-2.9635545e-78
-2.4420572e-78
-1.1075669e-78
-5.3200565e-79
-3.2415281e-79
-2.978692e-80
-7.1140636e-80
-2.5682844e-82
-3.9605934e-81
-1.0493967e-84
-3.6571778e-83
-4.1545934e-87
-1.6729463e-85
-1.5068792e-89
-7.795028e-88
-6.855795e-92
-3.7076832e-90
-4.9184485e-94
-2.3834411e-92
-4.7571719e-96
-2.1794661e-94
-5.3148274e-98
-2.4806038e-96
-5.6745646e-100
-3.2331733e-98
-1.9316504e-101
-4.0433259e-100
-1.2485318e-101
-5.3161553e-101
-4.7563629e-101
1.4182738e-101
-4.0898866e-101
1.1041566e-99
-1.3298368e-99
6.7532827e-98
-8.1425178e-98
3.5592519e-96
-2.7936033e-96
1.6086884e-94
-1.1003362e-94
5.3527756e-93
-3.3080436e-93
1.2964069e-91
-7.3034214e-92
2.3364551e-90
-1.1535899e-90
1.1864675e-88
-5.3325305e-89
2.2528302e-86
-9.7279475e-87
4.7555386e-84
-1.927099e-84
2.7879281e-82
-9.0751177e-83
2.0604341e-80
-3.2711914e-81
4.0674102e-79
-5.6629914e-80
2.3710644e-78
-3.0578351e-79
9.0109904e-78
-1.2249572e-78
2.0138098e-77
-2.4835404e-78
5.4525152e-77
-3.8845425e-78
2.0860118e-76
-1.5935372e-77
5.4608667e-76
-4.7266612e-78
5.1120305e-76
6.0119262e-77
1.5256765e-76
6.8807417e-77
4.4867888e-77
1.6799768e-77
1.1866284e-75
3.0006839e-76
8.0953204e-74
6.577472e-74
6.6620138e-74
8.1058377e-74
3.751697e-73
1.3514534e-72
-6.3909653e-70
8.9225818e-70
-2.3934053e-64
2.948899e-66
-4.8365953e-62
1.4042939e-62
-4.1286763e-61
3.1636607e-61
-2.4671119e-58
3.9849301e-60
-3.5538443e-57
2.8315247e-57
-3.8969253e-56
2.5636137e-56
-9.6198781e-55
4.6006267e-55
-3.1332733e-53
1.3864795e-53
-9.4337967e-52
4.0649449e-52
-2.5322204e-50
1.0946279e-50
-5.958441e-49
2.680625e-49
-1.2163275e-47
5.8559064e-48
-2.1193337e-46
1.1281045e-46
-3.0623441e-45
1.8470593e-45
-3.6675643e-44
2.5685508e-44
-3.5870134e-43
2.9901863e-43
-2.6016764e-42
2.7628324e-42
-1.1269696e-41
1.8277911e-41
-2.3144035e-41
7.741112e-41
-2.4214055e-41
2.0785117e-40
1.915032e-41
4.6480819e-40
1.2068657e-40
8.6335373e-40
2.1249752e-40
8.9097288e-40
1.1289337e-40
5.0853638e-40
5.606828e-41
2.3354421e-40
1.9872574e-41
8.7678238e-41
3.3674105e-42
2.0034372e-41
2.7227835e-43
2.5117159e-42
1.0950574e-44
1.6794976e-43
2.2056703e-46
6.0812225e-45
2.0282322e-48
1.0799447e-46
9.1277499e-51
9.7802076e-49
1.8149284e-53
4.2168336e-51
1.9137476e-56
8.0986858e-54
2.5030354e-58
1.2372391e-56
2.0516609e-58
4.0994288e-58
1.2070364e-57
2.1986059e-57
1.0413424e-57
3.4354409e-57
5.1788899e-58
3.0952852e-57
7.544094e-60
7.0531338e-58
-4.7422539e-62
8.6634001e-61
-5.1772805e-63
1.37152e-61
-6.43458e-65
5.6303033e-63
-2.5026628e-69
5.8860262e-65
-1.8170248e-71
8.5081459e-70
-3.6347488e-73
4.4635945e-72
-2.2177079e-73
8.8408541e-74
-4.1657143e-74
5.0318904e-74
-1.5863267e-74
9.0161159e-75
-2.2891772e-75
2.1261669e-75
-9.4171988e-76
1.4750634e-76
-2.9638774e-75
1.2941783e-77
-2.7911333e-75
-2.5109561e-76
-7.2535349e-76
-3.5846255e-76
-8.3280636e-77
-9.1063681e-77
-4.9446788e-77
-1.2078414e-77
-1.3309871e-77
-1.0320909e-77
-3.417726e-78
-2.3105378e-78
-6.7704328e-79
-6.359354e-79
-4.6053037e-80
-1.2408509e-79
-1.4683894e-81
-1.0000088e-80
-2.8577539e-83
-4.9385736e-82
-3.5196339e-85
-1.1346634e-83
-3.5344991e-87
-1.5245072e-85
-3.292361e-89
-1.6803176e-87
-3.1153336e-91
-1.7252249e-89
-3.2533013e-93
-1.976434e-91
-3.7843771e-95
-2.3575038e-93
-4.0419511e-97
-2.998769e-95
-3.7327623e-99
-4.0808747e-97
-3.2689192e-101
-4.4000984e-99
-9.5917778e-101
8.3569138e-99
-2.2217591e-98
7.5693237e-97
-9.2353416e-97
6.6963462e-95
-7.5405582e-95
2.9387507e-93
-3.7983418e-93
1.3159139e-91
-1.147224e-91
4.5072441e-90
-3.0891731e-90
1.1232497e-88
-6.9466785e-89
2.007445e-87
-1.1085383e-87
1.0413882e-85
-5.2144655e-86
2.0620546e-83
-9.6106819e-84
4.3220629e-81
-1.8186551e-81
1.9951341e-79
-8.0217574e-80
1.4189238e-78
-5.473221e-79
3.7620489e-78
-1.8130226e-78
4.0511615e-78
-1.0399428e-78
1.3922416e-75
-4.9210331e-76
1.8215776e-75
-4.2278095e-76
6.3291055e-76
-3.7240716e-77
1.184189e-73
2.7594344e-75
2.8111631e-73
4.7347766e-74
2.5667881e-73
9.3115742e-74
3.5737996e-74
4.8236143e-74
1.1578739e-74
1.0583813e-74
6.2083089e-74
4.9876305e-74
1.2476267e-72
2.7293915e-72
1.7610936e-73
6.1940604e-73
1.336009e-71
9.9967392e-71
-5.3068615e-64
1.2959027e-63
-4.636423e-61
2.6393122e-61
-5.7326629e-60
1.4015306e-59
-5.4167215e-59
1.0480094e-58
-5.3040862e-55
5.0248522e-57
-4.6816219e-54
4.3203492e-54
-2.112252e-53
2.1170599e-53
-2.1644761e-52
1.3395614e-52
-5.9145124e-51
2.9131119e-51
-1.6911165e-49
7.7536128e-50
-4.3144143e-48
1.9069019e-48
-9.650043e-47
4.2485616e-47
-1.8630281e-45
8.4709442e-46
-3.0350207e-44
1.4924481e-44
-4.1273313e-43
2.281818e-43
-4.6520382e-42
2.9697221e-42
-4.279179e-41
3.2549773e-41
-2.9600921e-40
2.8957608e-40
-1.2591037e-39
1.8872984e-39
-2.4775419e-39
8.0166137e-39
-2.0440728e-39
2.2030509e-38
3.973191e-39
4.9140801e-38
1.7014159e-38
9.4624795e-38
2.8111373e-38
9.8728406e-38
1.4165882e-38
5.5451524e-38
7.0950706e-39
2.5941693e-38
2.4560372e-39
9.7355493e-39
4.1445409e-40
2.2472939e-39
3.4836959e-41
2.9259004e-40
1.5245608e-42
2.112457e-41
3.5323288e-44
8.570961e-43
3.9206954e-46
1.8069136e-44
2.1713311e-48
2.0053552e-46
5.2191349e-51
1.0749402e-48
6.3820147e-54
2.6021874e-51
2.8050624e-55
4.5466276e-54
2.3898847e-55
5.5495075e-55
1.1580651e-54
2.6276198e-54
9.5085434e-55
3.8939606e-54
4.1263255e-55
3.3944566e-54
4.4575656e-57
7.328856e-55
-7.5136796e-60
2.2987248e-58
-1.4199565e-60
4.617847e-59
-8.8644449e-62
3.3040272e-60
-7.6660062e-64
1.2020568e-61
-7.5277081e-70
6.9992796e-64
-1.9371775e-72
4.9344565e-70
-1.1415804e-71
1.7866076e-72
-2.8118433e-71
1.2305444e-71
-1.2472016e-71
1.5291532e-71
-1.4593158e-72
2.7887028e-72
-2.8201302e-73
2.1577288e-73
-1.4508596e-72
3.4886859e-74
-1.4935609e-72
2.637476e-74
-4.2218379e-73
-1.2064156e-73
-1.726346e-74
-4.6811617e-74
-1.5458998e-74
-4.2943202e-75
-3.75072e-75
-5.124142e-75
-7.9894043e-76
-1.0076602e-75
-1.3573013e-76
-2.5782306e-76
-1.3760824e-77
-4.932664e-77
-9.6153789e-79
-5.3233169e-78
-2.151292e-80
-3.9638085e-79
-2.6140678e-82
-9.6370441e-81
-2.5342047e-84
-1.298587e-82
-2.2594061e-86
-1.395181e-84
-2.0578541e-88
-1.3933205e-86
-2.0969319e-90
-1.4216653e-88
-2.4341489e-92
-1.6390523e-90
-2.8906012e-94
-2.4653957e-92
-2.2423494e-96
-3.2718607e-94
-1.7032245e-98
-2.8544638e-96
-4.9755779e-98
2.7644313e-96
-8.0570813e-96
3.2217529e-94
-4.16742e-94
3.4567592e-92
-3.9392446e-92
2.6295169e-90
-2.7743216e-90
1.0813484e-88
-1.2902221e-88
3.4127331e-87
-3.2059945e-87
8.8360443e-86
-6.0267176e-86
1.652915e-84
-9.8766759e-85
8.4012805e-83
-4.549882e-83
1.5469984e-80
-7.4553946e-81
3.0568476e-78
-1.2984637e-78
1.4843835e-76
-5.611053e-77
1.1852714e-75
-4.293637e-76
4.0611393e-75
-1.5793925e-75
6.2168357e-75
-2.6292939e-75
1.2164216e-72
-3.1784422e-73
9.9337432e-73
-1.1954988e-73
3.611492e-73
1.1200444e-74
5.5337886e-71
5.9519041e-72
1.0654619e-70
3.5489155e-71
9.6164861e-71
5.5131313e-71
1.1243992e-71
1.9668602e-71
6.9701492e-72
8.5660639e-72
9.46111e-71
9.0644886e-71
1.7876159e-69
4.906367e-69
1.8691404e-70
9.0983894e-70
2.800042e-64
2.0095976e-63
-6.3643851e-61
3.0229691e-60
-2.4122815e-58
3.0572493e-58
-3.0243696e-57
1.0017429e-56
-3.5597959e-56
8.2530385e-56
-7.4148797e-52
6.8016815e-54
-6.0842366e-51
5.3646103e-51
-1.4868061e-50
1.9088477e-50
-5.2634323e-50
4.6194396e-50
-8.9727545e-49
4.8632549e-49
-2.3934046e-47
1.1353502e-47
-5.8065314e-46
2.5413767e-46
-1.2348111e-44
5.1302501e-45
-2.2666103e-43
9.25687e-44
-3.5121681e-42
1.476176e-42
-4.5131462e-41
2.056132e-41
-4.8087135e-40
2.4784321e-40
-4.2156291e-39
2.5519717e-39
-2.7946396e-38
2.1536712e-38
-1.153037e-37
1.3640164e-37
-2.2080688e-37
5.7765408e-37
-1.3738843e-37
1.601162e-36
4.9386043e-37
3.5675982e-36
1.797462e-36
7.0651329e-36
2.8496207e-36
7.5110133e-36
1.3902911e-36
4.2313946e-36
7.0454153e-37
2.0478105e-36
2.402529e-37
7.8290353e-37
4.0736453e-38
1.8545739e-37
3.5728603e-39
2.5415009e-38
1.7068963e-40
1.9940387e-39
4.5179753e-42
9.1409593e-41
6.0263527e-44
2.2932496e-42
4.012273e-46
3.1108356e-44
1.1697329e-48
2.0085777e-46
2.1967848e-51
6.8730417e-49
3.0669638e-52
1.7909997e-51
2.6391859e-52
6.7897899e-52
9.0178327e-52
2.4818732e-51
6.9695524e-52
3.3282483e-51
2.1980284e-52
2.5241044e-51
1.4916655e-54
4.4873698e-52
-5.3413615e-57
2.1070583e-55
-8.8601913e-58
3.6555173e-56
-6.2253247e-59
2.441597e-57
-7.5781503e-61
1.0230971e-58
-5.2766655e-63
8.4964134e-61
-3.107398e-69
4.3385791e-63
-6.9469896e-69
3.8566046e-69
-1.8030289e-68
9.5161318e-69
-7.9903507e-69
1.2840687e-68
-1.0376394e-69
2.459497e-69
-7.7337106e-71
2.0795975e-70
-3.2200489e-70
1.6906558e-71
-6.6224722e-70
4.1727694e-71
-2.230447e-70
-1.4288714e-71
-9.6993996e-72
-1.7209579e-71
-8.5873549e-72
-2.1129953e-72
-2.3447999e-72
-2.655332e-72
-5.0939306e-73
-6.3715499e-73
-9.979715e-74
-1.6906789e-73
-9.5323731e-75
-3.7426112e-74
-6.0995322e-76
-3.8150637e-75
-1.3395373e-77
-2.7148467e-76
-1.644424e-79
-6.5278846e-78
-1.5697905e-81
-8.9879225e-80
-1.3689857e-83
-9.7883544e-82
-1.2090187e-85
-9.6581965e-84
-1.201945e-87
-9.4645093e-86
-1.4789722e-89
-1.1207895e-87
-1.3866388e-91
-1.6219752e-89
-8.8728471e-94
-1.6725044e-91
-5.3506733e-96
-1.2380311e-93
-1.759046e-95
7.2842074e-94
-2.3096204e-93
9.9936141e-92
-1.3816655e-91
1.1949235e-89
-1.4486128e-89
1.073194e-87
-1.1462445e-87
7.331818e-86
-7.2553139e-86
2.7862257e-84
-3.050983e-84
6.4428866e-83
-5.8976415e-83
1.2362014e-81
-7.9911441e-82
5.7777996e-80
-3.3941288e-80
9.0370862e-78
-4.4441508e-78
1.6597881e-75
-7.0670593e-76
8.1806154e-74
-3.2007727e-74
7.3833046e-73
-2.4506268e-73
3.8843976e-72
-1.0124211e-72
2.6123665e-71
-6.5737997e-72
6.0423065e-70
-1.0742833e-70
4.5105362e-70
-1.0767287e-71
6.6898773e-70
7.205596e-71
2.0262874e-68
3.7723344e-69
3.2988706e-68
1.6537819e-68
2.9671808e-68
2.232981e-68
4.6139996e-69
6.7012168e-69
3.7535124e-69
5.6098926e-69
4.4624881e-68
5.0920985e-68
1.354927e-66
2.1863214e-66
4.1622953e-64
1.1337667e-63
6.5495291e-61
4.713458e-60
-3.842139e-58
2.9298332e-57
-9.122818e-56
2.0440626e-55
-1.2475091e-54
4.9418072e-54
-1.7505553e-53
4.6740913e-53
-3.0246911e-49
4.1269143e-51
-3.8526687e-48
2.8209063e-48
-7.9554551e-48
1.1202857e-47
-1.6410746e-47
1.8933051e-47
-1.2042711e-46
7.4851139e-47
-2.7709839e-45
1.3323799e-45
-6.3470326e-44
2.6845259e-44
-1.2759962e-42
4.861472e-43
-2.2137315e-41
7.8158806e-42
-3.2478065e-40
1.1071816e-40
-3.9584788e-39
1.3735009e-39
-3.9885835e-38
1.4878255e-38
-3.2999273e-37
1.3979473e-37
-2.0894604e-36
1.1035853e-36
-8.4023648e-36
6.7456274e-36
-1.5595812e-35
2.8374584e-35
-7.022714e-36
7.9302558e-35
4.4027364e-35
1.7810894e-34
1.4697574e-34
3.6405643e-34
2.2789962e-34
3.998998e-34
1.0885654e-34
2.3239644e-34
5.5710819e-35
1.1846033e-34
1.8764009e-35
4.6965312e-35
3.1929873e-36
1.1593295e-35
2.9157115e-37
1.6916746e-36
1.5156358e-38
1.4531445e-37
4.584361e-40
7.5651115e-39
7.273031e-42
2.2582077e-40
5.8693929e-44
3.7141658e-42
2.2405539e-46
3.061517e-44
7.2524744e-49
1.391924e-46
2.8505627e-49
8.2110888e-49
2.4659542e-49
6.7834968e-49
5.8888453e-49
1.9057204e-48
4.3633788e-49
2.2985179e-48
7.3370923e-50
1.2680775e-48
2.987624e-52
1.5027932e-49
-2.7949533e-54
1.5851109e-52
-3.8171121e-55
2.1594843e-53
-2.7918992e-56
1.2145687e-54
-3.6423299e-58
5.355405e-56
-3.2826157e-60
4.7858218e-58
-1.6028883e-62
3.187194e-60
-6.0792985e-65
1.1862287e-62
-1.3140967e-65
3.8652075e-65
-4.2863979e-66
7.1329689e-66
-6.0413198e-67
1.6796544e-66
-2.6716053e-68
1.5341688e-67
-4.6752517e-68
8.071303e-69
-2.5930928e-67
1.4754382e-68
-8.4895137e-68
7.9616531e-69
-4.4517295e-69
-4.5760003e-69
-3.8158113e-69
-8.5087183e-70
-1.1526941e-69
-1.1264515e-69
-2.5088828e-70
-3.1539629e-70
-5.475451e-71
-8.4777324e-71
-5.095121e-72
-2.1359471e-71
-3.106431e-73
-2.1528127e-72
-6.7366797e-75
-1.4700334e-73
-8.4167534e-77
-3.5174514e-75
-8.0883134e-79
-5.0030811e-77
-6.873344e-81
-5.5446555e-79
-5.9029101e-83
-5.0143723e-81
-5.9600922e-85
-4.8886391e-83
-6.0489626e-87
-6.393945e-85
-4.6005214e-89
-6.9227664e-87
-2.6078809e-91
-5.9972859e-89
-1.3426321e-93
-3.9836037e-91
-4.8985659e-93
1.5859519e-91
-5.439748e-91
2.4482032e-89
-3.6191178e-89
3.1809299e-87
-4.0768257e-87
3.116666e-85
-3.5220697e-85
2.484159e-83
-2.469108e-83
1.5267405e-81
-1.4072562e-81
4.9615552e-80
-5.1103752e-80
8.2816503e-79
-5.5885173e-79
3.2597232e-77
-1.8831765e-77
4.19302e-75
-2.216945e-75
7.153657e-73
-3.2833707e-73
3.7193634e-71
-1.3838977e-71
3.5233984e-70
-1.0957183e-70
2.2853962e-69
-5.4275524e-70
3.3435948e-68
-6.1686259e-69
2.197039e-67
-2.5995116e-68
1.5831548e-67
7.2213578e-69
2.5852262e-67
4.4248075e-68
6.1615848e-66
1.5782656e-66
9.2387173e-66
5.8492667e-66
7.2305225e-66
7.0161986e-66
1.4668809e-66
1.8320874e-66
2.3017961e-66
3.0780597e-66
1.2760019e-65
1.710513e-65
8.8525972e-64
1.5748395e-63
2.1645238e-60
6.4063833e-60
5.8348982e-58
4.2699278e-57
-3.63157e-56
1.0576391e-54
-3.0862086e-53
3.076974e-53
-5.2191656e-52
2.2933225e-51
-7.2064049e-51
2.1188919e-50
-2.551e-47
1.3248665e-48
-1.0701352e-45
5.1187886e-46
-3.3489784e-45
4.0209599e-45
-6.0244318e-45
7.7796115e-45
-1.824594e-44
1.4584389e-44
-2.7626101e-43
1.3296443e-43
-5.8454836e-42
2.3106699e-42
-1.1034692e-40
3.6900683e-41
-1.7984917e-39
5.148251e-40
-2.479276e-38
6.2140325e-39
-2.8379261e-37
6.471528e-38
-2.6833008e-36
5.8613482e-37
-2.0878511e-35
4.6727999e-36
-1.2555456e-34
3.2441439e-35
-4.8506884e-34
1.8275452e-34
-8.6250951e-34
7.8572669e-34
-1.9315186e-34
2.2337691e-33
3.1325255e-33
5.2822015e-33
9.6061181e-33
1.167486e-32
1.4501136e-32
1.3972162e-32
6.8447901e-33
8.8052215e-33
3.5419416e-33
4.9259072e-33
1.1805423e-33
2.0988942e-33
2.0185848e-34
5.5355992e-34
1.9261352e-35
8.7172424e-35
1.0927862e-36
8.3258233e-36
3.7901519e-38
4.95576e-37
7.1222844e-40
1.7690902e-38
6.9062893e-42
3.5078537e-40
3.4793276e-44
3.674376e-42
2.2654821e-46
2.2074516e-44
1.4933377e-46
3.3357326e-46
2.3317436e-46
5.3267937e-46
3.237749e-46
1.1854484e-45
2.3774085e-46
1.3023625e-45
2.0849159e-47
5.1135013e-46
6.3540831e-50
3.9896287e-47
-1.0839352e-51
9.8943926e-50
-1.0635135e-52
9.7617617e-51
-8.8870998e-54
3.8619521e-52
-1.1949662e-55
1.950879e-53
-1.1394088e-57
1.7877494e-55
-1.850316e-59
1.2672155e-57
-8.6940246e-62
1.5702874e-59
-6.6082745e-63
5.8868492e-62
-1.9709056e-63
3.9364888e-63
-2.8548838e-64
9.0294648e-64
-1.3310889e-65
8.6986302e-65
-1.6700999e-65
4.9978904e-66
-8.4955084e-65
5.9775898e-66
-2.6790549e-65
6.2385916e-66
-1.6908975e-66
-9.7865236e-67
-1.4106935e-66
-2.9000731e-67
-4.5649468e-67
-3.9908721e-67
-9.9400712e-68
-1.2636922e-67
-2.3863284e-68
-3.5215151e-68
-2.2426173e-69
-9.7927107e-69
-1.2858405e-70
-1.0037274e-69
-2.7878588e-72
-6.3060705e-71
-3.5434357e-74
-1.5468962e-72
-3.3273227e-76
-2.27892e-74
-2.6937801e-78
-2.313865e-76
-2.3332259e-80
-2.1058536e-78
-2.2687502e-82
-2.3919408e-80
-1.753406e-84
-2.4682641e-82
-1.1714208e-86
-2.1446006e-84
-6.1002028e-89
-1.6481983e-86
-2.7847204e-91
-1.0145374e-88
-1.116266e-90
2.9323283e-89
-1.0827658e-88
4.9659614e-87
-7.8304258e-87
6.8378619e-85
-9.2756576e-85
7.2573983e-83
-8.6202997e-83
6.2375567e-81
-6.5147972e-81
4.4826553e-79
-4.1207969e-79
2.4288871e-77
-2.0931978e-77
4.8928971e-76
-5.363731e-76
1.4220668e-74
-8.0643121e-75
1.6083509e-72
-8.6411123e-73
2.5584008e-70
-1.2125838e-70
1.3212606e-68
-4.9062428e-69
1.4109435e-67
-4.2953981e-68
1.1157077e-66
-2.3975972e-67
1.8728337e-65
-2.6344212e-66
6.5391497e-65
-4.6967525e-66
4.7071132e-65
4.7414911e-66
7.5993995e-65
1.7307091e-65
1.6440243e-63
5.177497e-64
2.344669e-63
1.7299573e-63
1.3372209e-63
1.7215423e-63
2.9060473e-64
4.0632872e-64
1.2265273e-63
1.4839848e-63
5.1577816e-63
7.6366891e-63
4.2339072e-61
8.1492044e-61
7.4663585e-58
2.3452758e-57
6.7935702e-56
4.9928032e-55
-1.2127621e-54
5.571631e-53
-1.2452367e-51
8.2814232e-52
-6.1743748e-50
2.5563361e-49
-4.2537928e-48
6.1283754e-48
-3.5136628e-46
5.0559897e-46
-2.4135168e-43
2.5119478e-44
-1.6322895e-42
1.3178269e-42
-2.4875494e-42
3.2982878e-42
-4.0548428e-42
4.0351644e-42
-2.5521649e-41
1.2712571e-41
-4.6448365e-40
1.6520813e-40
-8.1678213e-39
2.2570363e-39
-1.2432151e-37
2.5965493e-38
-1.6026804e-36
2.398779e-37
-1.71553e-35
1.6720662e-36
-1.5140278e-34
7.4393571e-36
-1.1025267e-33
3.8262351e-36
-6.2739478e-33
-2.9208599e-34
-2.3427647e-32
-2.7206929e-33
-3.8239546e-32
-1.0850368e-32
2.8329877e-33
-1.9247506e-32
1.7912384e-31
-5.3727198e-33
5.0990897e-31
7.550126e-32
7.505995e-31
1.945777e-31
3.5178797e-31
1.8082811e-31
1.8429078e-31
1.3030353e-31
6.1029277e-32
6.6020936e-32
1.0512326e-32
1.9808669e-32
1.0528486e-33
3.446807e-33
6.5596475e-35
3.7561956e-34
2.6012187e-36
2.6118187e-35
5.7334878e-38
1.1080593e-36
6.5748832e-40
2.6180056e-38
4.2914402e-42
3.4299023e-40
7.4493759e-44
2.810691e-42
5.8699113e-44
1.3003834e-43
1.5479855e-43
3.3476919e-43
1.5879163e-43
5.9695733e-43
1.0049394e-43
5.9391001e-43
5.5195512e-45
1.7449681e-43
1.6637525e-47
1.0163894e-44
-3.0998362e-49
4.9761304e-47
-1.2095443e-50
3.3926381e-48
-2.9910604e-51
5.2309506e-50
-2.8937971e-53
7.7623092e-51
-4.3216884e-55
4.8319812e-53
-7.7084055e-57
5.3625663e-55
-1.6634434e-59
7.2046646e-57
-3.1531884e-60
1.3251972e-59
-7.8919925e-61
2.1326603e-60
-1.1777856e-61
3.9774282e-61
-4.8356947e-63
4.0913392e-62
-5.348873e-63
2.1080711e-63
-2.3905276e-62
1.943657e-63
-7.370097e-63
2.5480194e-63
-5.4792022e-64
-1.7125559e-64
-4.4121407e-64
-8.6216965e-65
-1.50727e-64
-1.2111473e-64
-3.3576273e-65
-4.2980259e-65
-8.6859702e-66
-1.2278278e-65
-8.3046614e-67
-3.716707e-66
-4.4349389e-68
-3.8546529e-67
-9.7602962e-70
-2.3127696e-68
-1.2389075e-71
-5.7750484e-70
-1.0835106e-73
-8.504934e-72
-9.3014612e-76
-7.8823848e-74
-8.4560236e-78
-8.5378536e-76
-6.0517917e-80
-8.7827533e-78
-4.0077459e-82
-6.9279245e-80
-2.4262022e-84
-5.2239996e-82
-1.1844226e-86
-3.6720692e-84
-4.9002515e-89
-2.1311961e-86
-2.1404202e-88
4.6987831e-87
-1.8602366e-86
8.5975526e-85
-1.4416667e-84
1.2385415e-82
-1.7753372e-82
1.3989497e-80
-1.7424643e-80
1.2962015e-78
-1.4182958e-78
1.0055206e-76
-9.6467682e-77
6.5936887e-75
-5.5998593e-75
2.9970837e-73
-2.4096539e-73
5.4089272e-72
-3.224732e-72
4.7849334e-70
-2.5058744e-70
6.9511658e-68
-3.1158197e-68
4.0663129e-66
-1.5289237e-66
5.0289163e-65
-1.4802864e-65
4.4937113e-64
-8.9337484e-65
6.1088747e-63
-7.6894131e-64
1.6521569e-62
-6.240568e-64
1.2131222e-62
1.7464073e-63
1.9639187e-62
5.3306774e-63
3.975925e-61
1.451303e-61
5.4387934e-61
4.450852e-61
1.556479e-61
2.9905278e-61
4.8665733e-62
7.410812e-62
5.2009156e-61
6.1340047e-61
2.6968691e-60
4.1762368e-60
1.0358573e-58
2.1303175e-58
4.2808272e-56
1.3825687e-55
1.333974e-54
1.0146516e-53
-3.1855016e-52
4.1062409e-52
-2.600168e-50
2.6258525e-49
-2.2654304e-48
3.7481804e-48
-9.8402432e-45
1.7153224e-45
-1.1597781e-43
3.1805166e-43
-4.9078965e-41
2.6985193e-42
-7.5901942e-40
3.8916072e-40
-1.0671767e-39
1.3801482e-39
-1.3124275e-39
1.3923481e-39
-2.7529362e-39
1.6204378e-39
-3.2448729e-38
1.0059471e-38
-5.2102242e-37
1.0859473e-37
-7.3500549e-36
9.0877331e-37
-8.8319422e-35
3.9233691e-36
-8.8399006e-34
-3.5491515e-35
-7.2732068e-33
-1.0122246e-33
-4.9342421e-32
-1.2315315e-32
-2.6424638e-31
-1.0528101e-31
-9.4684768e-31
-6.5263975e-31
-1.4641873e-30
-2.6675355e-30
5.5755343e-31
-6.7144128e-30
8.261852e-30
-1.1990071e-29
2.2258805e-29
-1.8527045e-29
3.2208767e-29
-1.3021491e-29
1.5042621e-29
-2.9704625e-30
7.9530305e-30
6.8941256e-31
2.6193324e-30
1.1249032e-30
4.5738993e-31
4.7797058e-31
4.8002186e-32
1.0248208e-31
3.2799315e-33
1.3298683e-32
1.4753251e-34
1.1034309e-33
3.7585912e-36
5.4998789e-35
5.0763102e-38
1.555529e-36
4.5028898e-40
2.5666785e-38
3.0367293e-41
3.1202722e-40
2.6954898e-41
5.6538667e-41
7.4863918e-41
1.6617273e-40
6.874924e-41
2.4842828e-40
2.9845822e-41
2.041467e-40
1.0992026e-42
4.3182121e-41
4.7467344e-45
2.2563296e-42
-7.0148613e-47
1.9994797e-44
-1.8644698e-48
1.0188892e-45
-1.9557907e-48
1.2326931e-47
-9.7938021e-51
7.4760668e-48
-1.7752457e-52
1.7973073e-50
-3.7958745e-55
2.3761092e-52
-2.500802e-57
3.6922838e-55
-1.2433414e-57
2.563252e-57
-2.8665898e-58
1.0264436e-57
-4.2322569e-59
1.5510254e-58
-1.3892964e-60
1.6123291e-59
-1.4736844e-60
6.7385014e-61
-5.8596048e-60
5.3566201e-61
-1.7948351e-60
7.7179657e-61
-1.5351583e-61
-2.5804122e-62
-1.1966701e-61
-2.2973339e-62
-4.3146842e-62
-3.2438081e-62
-9.7411344e-63
-1.2580004e-62
-2.7057372e-63
-3.7456774e-63
-2.6018666e-64
-1.2415591e-63
-1.3525678e-65
-1.2626803e-64
-2.9722756e-67
-7.4764745e-66
-3.5911515e-69
-1.8822977e-67
-3.1732662e-71
-2.420965e-69
-2.9983479e-73
-2.5636814e-71
-2.1739234e-75
-2.9871837e-73
-1.2857626e-77
-2.3305095e-75
-7.577745e-80
-1.5530696e-77
-4.2458277e-82
-1.051503e-79
-1.9629937e-84
-6.880275e-82
-7.4593952e-87
-3.7994014e-84
-3.5268347e-86
6.6268484e-85
-2.8035597e-84
1.2974839e-82
-2.3070578e-82
1.9412938e-80
-2.9337741e-80
2.3020884e-78
-3.0052934e-78
2.2806355e-76
-2.596333e-76
1.9073717e-74
-1.9091453e-74
1.3819374e-72
-1.210706e-72
8.1187098e-71
-6.3852854e-71
2.0909346e-69
-1.8167797e-69
1.142626e-67
-5.4482239e-68
1.4164197e-65
-6.0530689e-66
1.1020665e-63
-4.0478396e-64
1.5915175e-62
-4.6485684e-63
1.6195035e-61
-3.9430735e-62
1.5710294e-60
-1.9061355e-61
3.6588866e-60
-5.3054424e-62
2.7630109e-60
4.8190904e-61
4.8270151e-60
1.4285583e-60
8.8391717e-59
3.5907127e-59
1.1617795e-58
1.0238774e-58
1.9308396e-59
4.5442997e-59
1.1126374e-59
1.7969464e-59
2.0113599e-58
2.4459738e-58
1.0440525e-57
1.7088613e-57
1.7649727e-56
3.8806519e-56
7.6088728e-55
2.5870676e-54
3.9066024e-53
3.1201741e-52
-3.8162159e-51
7.1913085e-50
-1.0407719e-48
9.567811e-48
-4.3331114e-46
7.1060606e-46
-4.6773961e-42
4.6693557e-43
-4.2334807e-41
1.174864e-40
-4.4044707e-39
7.3378133e-40
-1.9665356e-37
6.1828771e-38
-4.2007844e-37
3.9791356e-37
-4.436466e-37
4.4993897e-37
-4.9465616e-37
3.3309021e-37
-2.1451535e-36
5.9279138e-37
-2.8888201e-35
3.9427544e-36
-3.7646494e-34
1.281702e-35
-4.1963907e-33
-2.9387823e-34
-3.903866e-32
-7.2102324e-33
-2.9679348e-31
-9.9304892e-32
-1.8623737e-30
-9.4497006e-31
-9.3181425e-30
-7.1119964e-30
-3.1905062e-29
-4.118449e-29
-4.607685e-29
-1.6597523e-28
3.2682544e-29
-4.2293622e-28
3.0703909e-28
-7.6878443e-28
7.9444832e-28
-1.289933e-27
1.1349563e-27
-1.1104286e-27
5.3320406e-28
-4.5004757e-28
2.8445269e-28
-1.4108463e-28
9.3112756e-29
-1.7331503e-29
1.6464461e-29
4.6437341e-30
1.8195613e-30
2.0857812e-30
1.3754725e-31
3.5116552e-31
7.0171505e-33
3.6648899e-32
2.030105e-34
2.2220254e-33
3.2814414e-36
7.3891484e-35
4.665231e-38
1.5780387e-36
1.3706985e-38
3.7840399e-38
1.2868045e-38
2.5020451e-38
2.7319511e-38
6.4107298e-38
2.3586406e-38
8.0595448e-38
4.1035551e-39
4.1288232e-38
8.9111851e-41
4.7260746e-39
9.171238e-43
2.6256619e-40
-1.1392142e-44
6.637116e-42
-1.5001246e-46
2.4784597e-43
-1.000285e-46
9.6396053e-46
-4.0432479e-48
3.3446887e-46
-1.0844656e-50
7.9923096e-48
-4.1475249e-54
1.4770168e-50
-9.7860546e-55
4.9215403e-54
-4.2799005e-55
1.0894998e-54
-9.2997265e-56
3.6245123e-55
-1.2705745e-56
5.3548306e-56
-4.1631265e-58
5.1559602e-57
-3.9458636e-58
2.0827707e-58
-1.2694667e-57
1.2872496e-58
-3.9046534e-58
1.882537e-58
-3.7574637e-59
-3.8826211e-60
-2.87764e-59
-5.5933292e-60
-1.089947e-59
-7.8446496e-60
-2.5207396e-60
-3.2516464e-60
-7.4912456e-61
-1.0087729e-60
-7.1744236e-62
-3.6205349e-61
-3.6561793e-63
-3.6677189e-62
-7.9297307e-65
-2.1137636e-63
-8.7441304e-67
-5.3110657e-65
-8.8849142e-69
-6.3399314e-67
-7.6688498e-71
-8.3515779e-69
-4.4070071e-73
-7.7080345e-71
-2.2905322e-75
-4.9396079e-73
-1.2286585e-77
-2.9206074e-75
-6.4359459e-80
-1.8094431e-77
-2.8330757e-82
-1.1116672e-79
-9.9700986e-85
-5.8693629e-82
-5.0755565e-84
8.3246252e-83
-3.7537478e-82
1.7332641e-80
-3.2600654e-80
2.6817181e-78
-4.2636425e-78
3.3129406e-76
-4.5271055e-76
3.4595904e-74
-4.1008545e-74
3.1116419e-72
-3.2212642e-72
2.4504112e-70
-2.2227081e-70
1.6757042e-68
-1.3300352e-68
8.4926142e-67
-6.2086487e-67
2.4831767e-65
-1.1879859e-65
2.5059135e-63
-1.033478e-63
2.6162357e-61
-9.8031666e-62
4.6763026e-60
-1.3904915e-60
5.697813e-59
-1.2864403e-59
3.4244921e-58
-4.1469402e-59
7.2265056e-58
-1.2321771e-60
5.6257625e-58
1.0904049e-58
1.1546029e-57
3.4826731e-58
1.7929086e-56
7.7819942e-57
2.3032562e-56
2.1313593e-56
4.1550297e-57
9.0866626e-57
2.9377717e-57
4.9413728e-57
6.272467e-56
7.8419897e-56
3.4374433e-55
5.8647762e-55
3.7462667e-54
8.601073e-54
1.2845342e-52
4.639348e-52
1.0446413e-50
8.7017516e-50
-6.4663087e-49
4.2691989e-47
-4.5841165e-47
1.3927272e-46
-1.0445366e-43
1.7261363e-43
-4.2672836e-40
8.3464581e-41
-5.8585902e-39
1.4850342e-38
-3.2809124e-37
1.3536523e-37
-3.1493195e-35
7.2829001e-36
-1.4112309e-34
8.5216635e-35
-1.2666063e-34
1.3290035e-34
-1.2571082e-34
7.8263516e-35
-1.8353362e-34
4.9157364e-35
-1.4531922e-33
8.2253086e-35
-1.7039611e-32
-1.0764922e-33
-1.7387763e-31
-3.3619184e-32
-1.4789439e-30
-4.9879781e-31
-1.0381825e-29
-5.4063136e-30
-5.9614834e-29
-4.5674471e-29
-2.7564915e-28
-3.1137334e-28
-8.94483e-28
-1.6958878e-27
-1.1874661e-27
-6.6721195e-27
1.3227764e-27
-1.6560242e-26
9.3536953e-27
-2.868456e-26
2.3261302e-26
-4.9524652e-26
3.253148e-26
-4.4701913e-26
1.5427341e-26
-1.9929071e-26
8.4594585e-27
-8.225673e-27
2.757704e-27
-2.0817467e-27
4.9303259e-28
-2.0786095e-28
5.8056918e-29
1.4909514e-29
4.8449365e-30
6.5529772e-30
2.7938591e-31
9.2636292e-31
9.2700765e-33
7.0682252e-32
1.8321682e-34
2.9139439e-33
6.5004565e-36
8.3367981e-35
4.8828735e-36
6.6765514e-36
6.2392727e-36
9.8722548e-36
8.7070678e-36
2.0334848e-35
6.2165128e-36
2.1697431e-35
3.118784e-37
5.7937464e-36
2.5364569e-39
8.6201449e-38
3.221052e-40
1.9045183e-38
-1.0831118e-42
2.4128205e-39
-7.628765e-45
4.7561649e-41
-7.7929172e-46
4.7460433e-44
-1.5144941e-46
2.5316672e-45
-1.1443994e-49
2.870532e-46
-7.9818254e-52
1.6637862e-49
-3.5110674e-52
1.1608795e-51
-1.3664958e-52
4.2752664e-52
-2.733564e-53
1.1738935e-52
-3.0554848e-54
1.6309429e-53
-1.262256e-55
1.2896583e-54
-7.9958828e-56
5.5959548e-56
-2.4754968e-55
2.7404922e-56
-7.6680707e-56
3.8667894e-56
-8.0759757e-57
-7.6638821e-58
-6.2691558e-57
-1.275408e-57
-2.5442129e-57
-1.8743208e-57
-5.9008071e-58
-8.6666046e-58
-1.8174944e-58
-2.4759023e-58
-1.7731382e-59
-9.4015583e-59
-8.7674191e-61
-9.4689148e-60
-1.829302e-62
-5.3324189e-61
-2.0863927e-64
-1.2216134e-62
-2.2483781e-66
-1.7274151e-64
-1.5014633e-68
-2.1179974e-66
-7.5295828e-71
-1.5622715e-68
-3.5398006e-73
-8.8484232e-71
-1.7479447e-75
-4.7580176e-73
-8.6008928e-78
-2.7233684e-75
-3.6140719e-80
-1.5774301e-77
-1.1837408e-82
-7.9818285e-80
-6.4616369e-82
9.4031042e-81
-4.5103757e-80
2.0736811e-78
-4.1177671e-78
3.3086563e-76
-5.5243195e-76
4.238155e-74
-6.0542045e-74
4.6278503e-72
-5.7107255e-72
4.4110093e-70
-4.7312823e-70
3.758889e-68
-3.5161435e-68
2.8651794e-66
-2.3357321e-66
1.9130911e-64
-1.3776066e-64
6.5433941e-63
-4.9687216e-63
4.4840902e-61
-1.7319781e-61
5.8270954e-59
-2.1582147e-59
1.2680036e-57
-4.0887685e-58
1.3497355e-56
-3.0935672e-57
6.4729948e-56
-8.1068791e-57
1.2861975e-55
1.3771653e-58
1.0330958e-55
2.0888825e-56
2.632486e-55
7.7443994e-56
3.2471276e-54
1.4544271e-54
4.208054e-54
4.0044101e-54
8.9330554e-55
1.6515791e-54
7.4097551e-55
1.2759175e-54
1.8535145e-53
2.3415398e-53
1.0641946e-52
1.9990426e-52
3.2466137e-52
8.3779991e-52
2.2882651e-50
8.2556651e-50