/*--------------------------------*- C++ -*----------------------------------*\
  =========                 |
  \\      /  F ield         | OpenFOAM: The Open Source CFD Toolbox
   \\    /   O peration     | Website:  https://openfoam.org
    \\  /    A nd           | Version:  9
     \\/     M anipulation  |
\*---------------------------------------------------------------------------*/
FoamFile
{
    format      ascii;
    class       surfaceScalarField;
    location    "0.33";
    object      phi;
}
// * * * * * * * * * * * * * * * * * * * * * * * * * * * * * * * * * * * * * //

dimensions      [0 3 -1 0 0 0 0];

internalField   nonuniform List<scalar> 
19800
(
0.00011193546
-9.9218274e-05
0.00012628709
-9.8001869e-05
0.00013998337
-9.6988811e-05
0.00015278085
-9.5501814e-05
0.00016449055
-9.3557973e-05
0.00017495926
-9.1251905e-05
0.00018401142
-8.8537638e-05
0.00019146953
-8.5360107e-05
0.00019716196
-8.1719396e-05
0.00020092708
-7.7614415e-05
0.00020261331
-7.3042987e-05
0.00020208477
-6.801019e-05
0.00019921748
-6.2530706e-05
0.00019390256
-5.6625359e-05
0.00018605349
-5.031668e-05
0.00017559673
-4.3629427e-05
0.00016246236
-3.6580091e-05
0.00014660545
-2.9166142e-05
0.00012809177
-2.1417653e-05
0.00010727003
-1.3496218e-05
8.4483497e-05
-5.177494e-06
6.2179972e-05
1.9762398e-06
3.9597386e-05
1.1074885e-05
1.6842752e-05
1.9718499e-05
-6.147401e-06
2.6509159e-05
-3.1026512e-05
3.1349628e-05
-5.6730575e-05
3.5210526e-05
-8.2881709e-05
3.8664591e-05
-0.0001086837
4.1495905e-05
-0.00013361805
4.4233037e-05
-0.0001568779
4.6907889e-05
-0.00017751916
4.9969541e-05
-0.00019465799
5.288613e-05
-0.00020858776
5.586367e-05
-0.00021937251
5.8940795e-05
-0.00022679611
6.205443e-05
-0.00023063155
6.5358974e-05
-0.00023078037
6.9286036e-05
-0.00022781561
7.5305992e-05
-0.0002209584
8.0997135e-05
-0.00020979801
8.6899046e-05
-0.00019466235
9.4250618e-05
-0.00017553167
0.00010214956
-0.00015292382
0.00011096165
-0.0001270701
0.00011961038
-9.8430682e-05
0.00012796651
-6.736599e-05
0.00013519336
-3.453548e-05
0.00014124504
-8.8799598e-07
0.00014619039
3.271489e-05
0.00014961863
6.5635103e-05
0.00015150886
9.7308955e-05
0.0001518478
0.00012698487
0.00015059329
0.00015384762
0.00014794742
0.00017730628
0.00014382252
0.00019651066
0.00013920354
0.00021134786
0.00013335804
0.00022128814
0.00012774557
0.00022634718
0.00012203035
0.00022682266
0.00011597211
0.00022195517
0.000111728
0.00021296073
0.00010619762
0.00019919009
0.00010250785
0.00018201696
9.7551413e-05
0.00016061163
9.4194443e-05
0.00013627284
8.931949e-05
0.00010817512
8.5412497e-05
7.7350266e-05
8.042828e-05
4.3880975e-05
7.5924353e-05
9.0270123e-06
7.1047568e-05
-2.6410688e-05
6.6082322e-05
-6.1660746e-05
6.0788157e-05
-9.6003201e-05
5.5040308e-05
-0.00012874984
4.8738377e-05
-0.00015921894
4.1767837e-05
-0.00018658277
3.3899843e-05
-0.00021033469
2.4568499e-05
-0.00023355889
1.2369411e-05
-0.00025596619
-6.3876701e-08
-0.00027805994
-9.9906632e-06
-0.00029693995
-2.1176463e-05
-0.00031205484
-3.1880523e-05
-0.00032338372
-4.1857812e-05
-0.00033104653
-5.1136953e-05
-0.00033520689
-5.9774286e-05
-0.00033604203
-6.7795189e-05
-0.00033372656
-7.5199688e-05
-0.00032843939
-8.1977894e-05
-0.00032037033
-8.8129096e-05
-0.00030971676
-9.3660967e-05
-0.00029668565
-9.8583543e-05
-0.00028149081
-0.0001029128
-0.00026434817
-0.00010667214
-0.00024547541
-0.00010988243
-0.00022509472
-0.00011256451
-0.00020341448
-0.00011478663
-0.00018062019
-0.00011662355
-0.00015692004
-0.00011799009
-0.00013255662
-0.00011879758
-0.00011973034
0.00011256062
-0.00011443334
0.00012726638
-0.00011271018
0.00014135084
-0.00011107283
0.00015458674
-0.00010873898
0.00016677212
-0.00010574282
0.00017773824
-0.00010221862
0.00018730799
-9.8105285e-05
0.00019529613
-9.3348697e-05
0.00020152972
-8.7952084e-05
0.00020584032
-8.1925815e-05
0.00020807302
-7.5277018e-05
0.00020808749
-6.8024177e-05
0.00020575658
-6.0200156e-05
0.00020097537
-5.1844302e-05
0.00019366491
-4.3006076e-05
0.00018377931
-3.3744469e-05
0.00017130289
-2.4102601e-05
0.00015622595
-1.408595e-05
0.00013860104
-3.7900196e-06
0.00011966196
5.4442083e-06
9.8445615e-05
1.6038763e-05
7.4921837e-05
2.5497996e-05
5.0822839e-05
3.5171429e-05
2.6531911e-05
4.4008535e-05
1.604789e-06
5.1436337e-05
-2.430839e-05
5.7262453e-05
-5.0805159e-05
6.1706677e-05
-7.715115e-05
6.5009866e-05
-0.00010289949
6.724329e-05
-0.00012737873
6.871174e-05
-0.00014995851
6.9487414e-05
-0.00016981625
6.9826634e-05
-0.00018684071
6.9910547e-05
-0.0002004651
6.9488262e-05
-0.00021048765
6.8962446e-05
-0.00021706694
6.8633843e-05
-0.00022003421
6.8327415e-05
-0.00021950735
6.8757901e-05
-0.00021450129
7.0298253e-05
-0.0002060457
7.2542657e-05
-0.00019523841
7.6092766e-05
-0.00018052228
7.953456e-05
-0.00016228358
8.3911757e-05
-0.00014055126
8.9229541e-05
-0.00011573346
9.4792976e-05
-8.819591e-05
0.00010042839
-5.9025471e-05
0.0001060207
-2.8330213e-05
0.00011054966
3.1599567e-06
0.00011469924
3.4756147e-05
0.00011801967
6.5706369e-05
0.00012055433
9.5313453e-05
0.00012223917
0.00012285426
0.00012305163
0.00014742542
0.00012337513
0.00016868054
0.00012256528
0.00018653619
0.00012134664
0.00020027863
0.00011961575
0.00020921125
0.00011881262
0.00021414547
0.00011709613
0.00021397414
0.00011614247
0.00021053773
0.00011516252
0.00020204634
0.00011468856
0.00018954282
0.00011500928
0.0001723552
0.00011473898
0.00015174987
0.00011479897
0.00012695248
0.00011411887
9.9135698e-05
0.0001132307
6.8094811e-05
0.00011146904
3.4893224e-05
0.00010912706
1.2837364e-07
0.00010581352
-3.5356395e-05
0.00010156698
-7.0829844e-05
9.6262233e-05
-0.00010559462
8.9807662e-05
-0.00013900486
8.2149952e-05
-0.0001704275
7.3189068e-05
-0.00019937661
6.2848069e-05
-0.00022574653
5.0938725e-05
-0.00025084467
3.7467199e-05
-0.00027395703
2.3048908e-05
-0.00029328726
9.3434182e-06
-0.00031018411
-4.2752652e-06
-0.00032382087
-1.8243224e-05
-0.00033404179
-3.1636737e-05
-0.00034081664
-4.4360562e-05
-0.00034419213
-5.6396101e-05
-0.0003442787
-6.7708148e-05
-0.00034122245
-7.8257083e-05
-0.00033519374
-8.8008274e-05
-0.0003263873
-9.6936521e-05
-0.00031501185
-0.00010503437
-0.00030128556
-0.00011230682
-0.00028543019
-0.00011876785
-0.00026766545
-0.00012443814
-0.00024820992
-0.00012933877
-0.00022728513
-0.00013349212
-0.00020509657
-0.00013697613
-0.0001818324
-0.0001398877
-0.000157707
-0.00014211417
-0.00013295724
-0.0001435412
-0.00014502085
0.00011413249
-0.00013017164
0.00012933881
-0.00012791601
0.00014394432
-0.00012568158
0.00015772523
-0.0001225208
0.00017049417
-0.00011851229
0.00018207038
-0.00011379195
0.00019225677
-0.00010829128
0.00020086573
-0.00010195634
0.00020771514
-9.4801516e-05
0.00021263099
-8.6842425e-05
0.00021544846
-7.8093595e-05
0.00021601442
-6.8589899e-05
0.00021419489
-5.8380299e-05
0.00020988166
-4.7530208e-05
0.00020300178
-3.6126219e-05
0.00019351691
-2.425871e-05
0.00018146869
-1.2051453e-05
0.00016687667
5.0909364e-07
0.00014957193
1.3517096e-05
0.00012914618
2.5871686e-05
0.0001075426
3.7642297e-05
8.3792643e-05
4.9246214e-05
5.8890115e-05
6.0072086e-05
3.2907377e-05
6.9989679e-05
6.1791923e-06
7.8162717e-05
-2.1211449e-05
8.4651709e-05
-4.8814709e-05
8.9309848e-05
-7.6198104e-05
9.239366e-05
-0.00010281627
9.3861274e-05
-0.00012799135
9.3886931e-05
-0.00015109304
9.2589977e-05
-0.00017147412
9.0207915e-05
-0.00018857452
8.7011419e-05
-0.00020222372
8.3139273e-05
-0.0002121668
7.8905483e-05
-0.00021813666
7.4601433e-05
-0.00022028955
7.0479276e-05
-0.00021849271
6.6960217e-05
-0.00021255496
6.4358595e-05
-0.00020272165
6.2708972e-05
-0.00018893501
6.2306332e-05
-0.00017245326
6.3051963e-05
-0.00015302304
6.44814e-05
-0.00013053931
6.6745214e-05
-0.00010591344
7.0166961e-05
-7.9497431e-05
7.4012736e-05
-5.0986572e-05
7.750773e-05
-2.1940969e-05
8.1502418e-05
7.8312831e-06
8.4925896e-05
3.7571605e-05
8.8279019e-05
6.666203e-05
9.1461743e-05
9.4265249e-05
9.4634104e-05
0.00012000768
9.7308236e-05
0.00014363723
9.9745632e-05
0.00016432092
0.00010188312
0.0001817433
0.00010392498
0.00019533478
0.00010602506
0.00020553321
0.00010861282
0.00021131217
0.00011131538
0.00021288402
0.0001145672
0.00020966535
0.00011837989
0.00020179226
0.00012255951
0.00018977796
0.00012702527
0.00017299691
0.00013151891
0.00015211081
0.00013568555
0.0001270602
0.00013916666
9.8567856e-05
0.00014172343
6.6954261e-05
0.0001430845
3.2992877e-05
0.00014308935
-2.6376033e-06
0.00014144408
-3.920546e-05
0.00013813543
-7.5851537e-05
0.00013291057
-0.00011190986
0.00012586822
-0.00014665273
0.00011689306
-0.00017948358
0.00010601904
-0.00021009776
9.346356e-05
-0.00023829919
7.9144486e-05
-0.00026395206
6.3125163e-05
-0.00028752747
4.6625978e-05
-0.00030759985
2.9414563e-05
-0.00032446152
1.258773e-05
-0.00033732815
-5.37479e-06
-0.00034684137
-2.2123321e-05
-0.00035292195
-3.8280485e-05
-0.00035557088
-5.3746028e-05
-0.0003548953
-6.8383406e-05
-0.0003510481
-8.2103289e-05
-0.00034421785
-9.483488e-05
-0.00033460753
-0.00010654492
-0.00032243182
-0.00011720956
-0.00030791611
-0.00012682257
-0.00029129067
-0.00013539386
-0.00027278369
-0.000142946
-0.00025261954
-0.0001495041
-0.00023101785
-0.0001550955
-0.00020819222
-0.00015980147
-0.000184353
-0.00016373178
-0.00015969991
-0.00016677065
-0.00013444623
-0.00016879202
-0.00017084757
0.00011566108
-0.00014653204
0.00013158993
-0.00014384605
0.00014694071
-0.00014103322
0.0001614788
-0.0001370608
0.00017502939
-0.00013206103
0.00018740111
-0.00012616284
0.00019839298
-0.00011928083
0.00020780803
-0.00011137005
0.00021545574
-0.00010244921
0.00022115118
-9.2536663e-05
0.00022471396
-8.1655692e-05
0.00022597563
-6.9850837e-05
0.00022478425
-5.7187373e-05
0.00022100405
-4.3749289e-05
0.00021451837
-2.9639734e-05
0.00020523711
-1.4975141e-05
0.00019309512
9.3218082e-08
0.00017829222
1.5314544e-05
0.00016110165
3.0710405e-05
0.00014131353
4.5661502e-05
0.0001189723
5.9983054e-05
9.455102e-05
7.3665523e-05
6.8531689e-05
8.6088674e-05
4.1210856e-05
9.7307437e-05
1.3014635e-05
0.00010635674
-1.6022918e-05
0.00011368884
-4.5301111e-05
0.00011858883
-7.4314934e-05
0.00012140821
-0.00010234612
0.00012189238
-0.00012877837
0.00012031928
-0.00015298027
0.00011679337
-0.00017448774
0.00011171665
-0.00019240974
0.00010493339
-0.00020662932
9.7359111e-05
-0.00021683997
8.9115145e-05
-0.00022262907
8.0386718e-05
-0.00022437755
7.2225107e-05
-0.00022195568
6.453794e-05
-0.0002154139
5.7815065e-05
-0.00020495103
5.2243881e-05
-0.00019063951
4.7993913e-05
-0.00017280886
4.5220835e-05
-0.00015226911
4.3942413e-05
-0.00012946234
4.39382e-05
-0.00010415948
4.4862679e-05
-7.6792973e-05
4.6646109e-05
-4.8028367e-05
4.8742334e-05
-1.8360708e-05
5.1834203e-05
1.1388306e-05
5.5175587e-05
4.0790121e-05
5.8876579e-05
6.9351176e-05
6.2899597e-05
9.6866217e-05
6.7118063e-05
0.00012263526
7.1539744e-05
0.00014639038
7.5990849e-05
0.0001674578
8.0817565e-05
0.00018521115
8.6171554e-05
0.0001994421
9.1792394e-05
0.00020998753
9.8064256e-05
0.0002162266
0.00010507504
0.00021815852
0.00011263392
0.00021510275
0.000121438
0.00020731545
0.00013034403
0.00019497988
0.00013935938
0.00017772787
0.0001487669
0.00015599283
0.00015742186
0.00012986568
0.00016529782
9.9957815e-05
0.00017162946
6.6741453e-05
0.00017630032
3.1053642e-05
0.00017877856
-6.4256816e-06
0.00017892626
-4.4808081e-05
0.00017652162
-8.3370865e-05
0.00017147256
-0.00012131219
0.00016380874
-0.00015783174
0.00015341561
-0.00019239764
0.00014058573
-0.00022463231
0.00012569805
-0.00025407077
0.0001085849
-0.00028086858
8.9925313e-05
-0.00030410627
6.986491e-05
-0.00032424434
4.9553182e-05
-0.00034034719
2.8693456e-05
-0.00035333383
7.6148683e-06
-0.00036256302
-1.2891749e-05
-0.00036804328
-3.2798399e-05
-0.00036992907
-5.1857865e-05
-0.00036837573
-6.993449e-05
-0.00036356978
-8.6907074e-05
-0.0003557196
-0.00010268172
-0.00034506257
-0.00011720205
-0.00033183642
-0.00013043773
-0.00031628302
-0.00014237735
-0.00029864335
-0.0001530325
-0.00027915495
-0.00016243448
-0.00025804733
-0.00017061091
-0.00023554571
-0.00017759864
-0.00021186675
-0.00018348144
-0.00018721797
-0.00018838378
-0.00016179715
-0.00019219369
-0.00013580595
-0.00019478101
-0.00019725132
0.00011778826
-0.00016376866
0.00013461671
-0.00016067388
0.00015088553
-0.00015730257
0.00016638484
-0.00015255835
0.00018092075
-0.00014659689
0.00019429085
-0.00013953108
0.00020628668
-0.0001312748
0.00021670907
-0.00012179161
0.00022535284
-0.00011109129
0.0002320164
-9.9199322e-05
0.00023650174
-8.6140526e-05
0.00023862313
-7.1970867e-05
0.00023820589
-5.6769359e-05
0.00023509539
-4.0638357e-05
0.00022916689
-2.3709775e-05
0.00022034226
-6.1486992e-06
0.0002085577
1.1879647e-05
0.00019376784
3.0107147e-05
0.00017624907
4.8231846e-05
0.00015565987
6.62515e-05
0.00013261993
8.3021777e-05
0.0001072535
9.9029404e-05
7.9732522e-05
0.0001136063
5.0738269e-05
0.00012629891
2.0137653e-05
0.00013695656
-1.0983616e-05
0.00014481059
-4.2474969e-05
0.00015008033
-7.356909e-05
0.00015250211
-0.00010367796
0.00015200105
-0.00013200794
0.00014864905
-0.00015791832
0.00014270433
-0.00018066612
0.00013446506
-0.00019957545
0.0001238411
-0.00021440876
0.00011219015
-0.00022485491
9.9559944e-05
-0.00023040066
8.5929873e-05
-0.00023161997
7.3441269e-05
-0.00022838372
6.1300199e-05
-0.00022085668
5.0286303e-05
-0.00020933188
4.0717229e-05
-0.0001941311
3.2793156e-05
-0.00017559769
2.6687627e-05
-0.0001540603
2.2405276e-05
-0.00012985836
1.9735603e-05
-0.0001034963
1.8499155e-05
-7.5396241e-05
1.8546811e-05
-4.6071487e-05
1.9418567e-05
-1.5845885e-05
2.160916e-05
1.4553113e-05
2.4774738e-05
4.4701104e-05
2.8726171e-05
7.4095647e-05
3.3504213e-05
0.00010206976
3.9144085e-05
0.00012823747
4.5373299e-05
0.00015231963
5.1907141e-05
0.00017371362
5.9421065e-05
0.00019182581
6.8057981e-05
0.00020644963
7.7168159e-05
0.00021750986
8.7005351e-05
0.00022417434
9.8410718e-05
0.00022629613
0.00011051015
0.00022391251
0.00012381935
0.0002164151
0.00013784153
0.00020386104
0.00015191546
0.00018598013
0.00016665097
0.00016329361
0.00018010567
0.00013577949
0.00019281133
0.00010416302
0.00020324572
6.8911488e-05
0.00021155282
3.0932022e-05
0.00021675934
-9.0253483e-06
0.00021888404
-5.0014263e-05
0.00021751188
-9.1221547e-05
0.00021267958
-0.00013164985
0.00020423591
-0.00017063151
0.00019239848
-0.00020757432
0.00017753024
-0.00024169305
0.00015981796
-0.00027297897
0.0001398701
-0.00030066296
0.00011760813
-0.00032497846
9.4181766e-05
-0.00034524463
6.9819355e-05
-0.00036154676
4.4993652e-05
-0.00037406442
2.0130709e-05
-0.00038253487
-4.4206088e-06
-0.00038714094
-2.8191048e-05
-0.00038801393
-5.0983487e-05
-0.00038533708
-7.2608452e-05
-0.00037933135
-9.2912317e-05
-0.00037023124
-0.00011178163
-0.00035829086
-0.00012914229
-0.00034377193
-0.0001449562
-0.00032693422
-0.00015921465
-0.00030803715
-0.00017193096
-0.00028733211
-0.00018314384
-0.00026504959
-0.00019289163
-0.00024142342
-0.00020122157
-0.00021667814
-0.00020822593
-0.00019101561
-0.00021404554
-0.00016464592
-0.00021856771
-0.00013775257
-0.0002216715
-0.00022450223
0.00012028181
-0.00018205746
0.00013820486
-0.00017859746
0.00015559011
-0.00017468507
0.00017224414
-0.00016921198
0.00018795873
-0.00016231007
0.00020252958
-0.00015410064
0.0002157429
-0.00014448746
0.00022738025
-0.0001334271
0.00023722515
-0.00012093501
0.00024505166
-0.0001070255
0.00025065052
-9.1738555e-05
0.00025380926
-7.512938e-05
0.00025432673
-5.728723e-05
0.0002520208
-3.8332109e-05
0.00024673186
-1.8420148e-05
0.00023832977
2.2542207e-06
0.00022673638
2.3475073e-05
0.00021192947
4.4916863e-05
0.00019384715
6.6315761e-05
0.00017284673
8.7251613e-05
0.00014867683
0.00010719002
0.000121777
0.00012592686
9.2499458e-05
0.00014288162
6.1116829e-05
0.00015768047
2.8314352e-05
0.00016975899
-5.6348635e-06
0.00017875941
-3.9979157e-05
0.00018442327
-7.3988196e-05
0.00018651014
-0.0001068941
0.00018490675
-0.00013783869
0.00017959257
-0.00016595559
0.00017081941
-0.00019015008
0.00015865856
-0.00021101151
0.00014470124
-0.00022677606
0.00012795284
-0.00023676916
0.00010955251
-0.0002428066
9.1966283e-05
-0.00024330951
7.3940816e-05
-0.00023886567
5.6853539e-05
-0.00022986926
4.12888e-05
-0.00021673055
2.7578264e-05
-0.00019985415
1.5917192e-05
-0.00017965942
6.4917713e-06
-0.00015654895
-7.0672217e-07
-0.00013087743
-5.9360443e-06
-0.0001032245
-9.1529056e-06
-7.3740553e-05
-1.0934965e-05
-4.3840282e-05
-1.0481523e-05
-1.285235e-05
-9.3798324e-06
1.8504185e-05
-6.5827002e-06
4.9451942e-05
-2.2221057e-06
7.953957e-05
3.4161545e-06
0.00010832877
1.0352339e-05
0.00013525936
1.8439386e-05
0.0001598185
2.7345314e-05
0.00018169516
3.754278e-05
0.00020074999
4.9004621e-05
0.00021616867
6.1750135e-05
0.00022827931
7.4896901e-05
0.00023582138
9.0867971e-05
0.00023847858
0.00010785534
0.00023724406
0.00012505311
0.00023019557
0.00014489119
0.00021763261
0.00016447782
0.00019912376
0.00018515903
0.00017514031
0.00020409056
0.00014602811
0.00022192127
0.00011213446
0.00023713806
7.405154e-05
0.00024963844
3.2877383e-05
0.00025793386
-1.0470422e-05
0.00026223002
-5.4981578e-05
0.00026202246
-9.963506e-05
0.0002573317
-0.00014348355
0.00024808195
-0.00018568782
0.00023460098
-0.00022529798
0.00021713929
-0.00026193478
0.00019645623
-0.00029488174
0.00017281966
-0.00032420251
0.00014693046
-0.00034922935
0.00011920999
-0.00037008446
9.0673727e-05
-0.00038640329
6.1311428e-05
-0.00039859111
3.2318597e-05
-0.00040632106
3.3100465e-06
-0.00040995774
-2.4554441e-05
-0.0004096601
-5.1282636e-05
-0.00040565428
-7.6614552e-05
-0.00039820547
-0.00010036273
-0.00038759068
-0.00012239603
-0.00037409747
-0.00014263311
-0.000358018
-0.00016103365
-0.00033963835
-0.00017759417
-0.00031923096
-0.00019233959
-0.00029705867
-0.00020531585
-0.0002733689
-0.00021658066
-0.00024840375
-0.00022618757
-0.00022238155
-0.00023424914
-0.00019551042
-0.00024091411
-0.00016799055
-0.00024608588
-0.00014000395
-0.00024965831
-0.00025278318
0.00012311047
-0.0002015955
0.00014233069
-0.00019781558
0.00016103987
-0.00019339432
0.00017905547
-0.00018722628
0.00019616226
-0.00017941613
0.00021214656
-0.00017008489
0.00022678947
-0.00015912893
0.00023985779
-0.00014649433
0.0002511189
-0.00013219589
0.00026033478
-0.00011624084
0.00026725919
-9.8663127e-05
0.00027165417
-7.9525412e-05
0.00027329021
-5.8923847e-05
0.0002719462
-3.6988334e-05
0.00026742332
-1.389737e-05
0.00025954961
1.0129196e-05
0.0002481975
3.482971e-05
0.00023328556
5.9830664e-05
0.00021488352
8.4718024e-05
0.00019278454
0.00010934974
0.00016740608
0.00013256722
0.00013882876
0.00015450309
0.00010721804
0.00017449188
7.3317194e-05
0.00019158098
3.7433187e-05
0.00020564188
1.1524184e-07
0.00021607565
-3.774887e-05
0.00022228586
-7.5400552e-05
0.00022416086
-0.00011197111
0.00022147649
-0.0001463916
0.00021401102
-0.00017776724
0.00020219225
-0.00020517433
0.00018606515
-0.00022745964
0.00016698821
-0.00024457794
0.0001450717
-0.00025556981
0.00012054374
-0.00026065554
9.7050794e-05
-0.00026006639
7.3348928e-05
-0.00025406703
5.0851738e-05
-0.00024316665
3.0387445e-05
-0.00022795475
1.2365123e-05
-0.00020891263
-3.1265756e-06
-0.00018661377
-1.5809559e-05
-0.00016155701
-2.5764785e-05
-0.00013379007
-3.3701538e-05
-0.00010448786
-3.8453211e-05
-7.3703797e-05
-4.171718e-05
-4.1619344e-05
-4.2565979e-05
-9.3952714e-06
-4.1605333e-05
2.3187324e-05
-3.9165827e-05
5.5047879e-05
-3.4082962e-05
8.6010451e-05
-2.7548e-05
0.00011576086
-1.9401341e-05
0.00014392177
-9.7246453e-06
0.00016958078
1.6857542e-06
0.00019238937
1.4735343e-05
0.00021307592
2.8318561e-05
0.00023015551
4.466908e-05
0.0002432331
6.1821456e-05
0.0002525191
8.1584315e-05
0.00025709857
0.00010328012
0.00025614716
0.00012600649
0.00024954051
0.00015149392
0.00023601399
0.00017800245
0.00021768045
0.00020348929
0.00019196269
0.00022980852
0.00016089797
0.00025298653
0.00012374397
0.00027429089
8.2182351e-05
0.00029119918
3.6874936e-05
0.00030324213
-1.0936483e-05
0.00031004207
-5.9988816e-05
0.0003110747
-0.00010903202
0.00030637445
-0.00015706085
0.00029610755
-0.00020296288
0.00028049776
-0.00024604709
0.00026022199
-0.00028550273
0.00023591618
-0.00032099461
0.00020831546
-0.00035180004
0.00017773624
-0.00037805901
0.00014546877
-0.00039927428
0.00011188756
-0.00041574871
7.7784444e-05
-0.00042722048
4.3791176e-05
-0.0004342227
1.0313819e-05
-0.00043672332
-2.205242e-05
-0.00043502736
-5.2978846e-05
-0.00042943327
-8.2207026e-05
-0.00042026177
-0.00010953144
-0.00040784358
-0.00013481171
-0.00039251076
-0.00015796391
-0.00037458792
-0.00017895553
-0.00035438669
-0.00019779312
-0.00033220335
-0.00021451791
-0.00030831722
-0.00022919826
-0.00028298562
-0.00024190795
-0.0002564557
-0.00025271877
-0.00022894636
-0.00026175773
-0.00020066399
-0.00026919376
-0.00017180543
-0.00027494426
-0.00014253669
-0.00027892492
-0.00028227221
0.00012624781
-0.00022257508
0.00014695966
-0.00021852806
0.00016719771
-0.00021363195
0.00018678262
-0.00020681144
0.00020549414
-0.0001981284
0.00022311599
-0.00018770581
0.00023941834
-0.00017543045
0.00025415859
-0.00016123442
0.00026707988
-0.00014511669
0.00027792103
-0.00012708214
0.00028641248
-0.00010715567
0.0002922811
-8.539481e-05
0.00029525279
-6.1896058e-05
0.00029506834
-3.6804408e-05
0.00029148215
-1.0310414e-05
0.00028426535
1.7348321e-05
0.00027318126
4.591582e-05
0.00025825781
7.4754486e-05
0.00023919768
0.00010377743
0.00021640123
0.00013214529
0.00018940617
0.00015956171
0.00015855459
0.00018535462
0.0001246876
0.00020835877
8.7399449e-05
0.00022886791
4.7858471e-05
0.00024518075
6.585113e-06
0.00025734763
-3.5753988e-05
0.00026462458
-7.7984342e-05
0.00026639027
-0.00011907458
0.00026256491
-0.0001579225
0.00025285741
-0.00019345119
0.00023772059
-0.00022409184
0.00021670758
-0.00024891186
0.00019181168
-0.00026666492
0.00016282641
-0.000279184
0.00013306162
-0.00028391553
0.00010178075
-0.00028198007
7.1411846e-05
-0.00027377793
4.2647536e-05
-0.00026007262
1.6679697e-05
-0.00024207792
-5.6329934e-06
-0.00022075262
-2.4454625e-05
-0.00019618712
-4.0376757e-05
-0.00016851074
-5.3441815e-05
-0.00013907545
-6.3135991e-05
-0.00010752489
-7.0003015e-05
-7.4615141e-05
-7.4625503e-05
-4.0723277e-05
-7.6455526e-05
-6.4269042e-06
-7.5901374e-05
2.7470837e-05
-7.3065361e-05
6.1257526e-05
-6.7872173e-05
9.403029e-05
-6.0322099e-05
0.00012524547
-5.0616632e-05
0.00015498358
-3.9461387e-05
0.00018208977
-2.5421833e-05
0.00020699824
-1.0172953e-05
0.00022887498
6.4419917e-06
0.00024753392
2.6012261e-05
0.00026205543
4.7301009e-05
0.00027373951
6.9902217e-05
0.00027994834
9.7067476e-05
0.00027996251
0.00012599044
0.00027535179
0.00015610448
0.00026310528
0.00019024619
0.00024301523
0.00022358104
0.00021596533
0.00025686116
0.00018153691
0.00028741396
0.00014014552
0.00031568037
9.3920709e-05
0.00033742301
4.3342429e-05
0.00035382252
-1.0104585e-05
0.00036349127
-6.4878563e-05
0.00036584805
-0.0001194762
0.00036096946
-0.00017270125
0.00034932945
-0.00022331136
0.00033110631
-0.00027048301
0.00030739408
-0.00031334874
0.00027878208
-0.00035131114
0.00024627666
-0.00038411037
0.00021053421
-0.00041167904
0.0001730369
-0.00043344403
0.00013365152
-0.0004497595
9.4098544e-05
-0.00046072664
5.4757433e-05
-0.00046663755
1.6223419e-05
-0.0004677141
-2.097451e-05
-0.00046431403
-5.6376168e-05
-0.00045681011
-8.9707794e-05
-0.00044558945
-0.0001207498
-0.00043103963
-0.0001493593
-0.00041353744
-0.00017546065
-0.00039345379
-0.00019903761
-0.0003711332
-0.00022011572
-0.00034689415
-0.00023875829
-0.00032103043
-0.00025506114
-0.00029381465
-0.00026912267
-0.0002654919
-0.00028103888
-0.00023628878
-0.00029096374
-0.00020639884
-0.00029908062
-0.0001760165
-0.00030532415
-0.00014529719
-0.00030964364
-0.00031313765
0.0001296537
-0.00024518756
0.00015205307
-0.00024092693
0.00017402086
-0.00023560104
0.00019538668
-0.00022817902
0.00021592452
-0.00021866605
0.00023541858
-0.00020719944
0.00025362507
-0.00019363681
0.00027028813
-0.00017789683
0.00028513345
-0.00015996188
0.00029787239
-0.00013982177
0.00030820417
-0.00011748777
0.00031581701
-9.3007774e-05
0.00032039219
-6.647162e-05
0.00032161552
-3.8027143e-05
0.00031918209
-7.8747918e-06
0.00031272844
2.3804144e-05
0.00030223116
5.6413655e-05
0.0002873218
8.9662942e-05
0.00026762472
0.00012347304
0.00024359739
0.00015617138
0.00021500677
0.00018815174
0.00018211109
0.00021824995
0.00014486215
0.00024560667
0.00010421604
0.0002695122
6.0076889e-05
0.00028931845
1.3950764e-05
0.00030347356
-3.3772916e-05
0.00031234836
-8.1593842e-05
0.00031421012
-0.00012841691
0.00030938655
-0.00017275712
0.00029719814
-0.00021292925
0.00027789511
-0.0002484956
0.00025227627
-0.00027679131
0.00022010952
-0.00029784883
0.00018388576
-0.00030994357
0.00014515667
-0.0003135424
0.00010537882
-0.00030848952
6.6357073e-05
-0.0002971534
3.1308251e-05
-0.00028074278
2.6592018e-07
-0.00025979681
-2.6581852e-05
-0.00023532764
-4.8925543e-05
-0.00020833349
-6.7371887e-05
-0.0001778685
-8.3907972e-05
-0.00014565554
-9.5349211e-05
-0.00011161953
-0.00010403855
-7.6336684e-05
-0.00010990775
-4.0210432e-05
-0.00011257981
-3.6467444e-06
-0.00011246405
3.2692771e-05
-0.00010940448
6.8664045e-05
-0.00010384367
0.00010373971
-9.5397017e-05
0.00013669702
-8.3575416e-05
0.00016729527
-7.0058418e-05
0.00019666731
-5.4794955e-05
0.00022364408
-3.7149202e-05
0.00024693184
-1.6849036e-05
0.0002685286
4.4177958e-06
0.00028598559
2.9844123e-05
0.00029847086
5.741814e-05
0.00030825648
8.728099e-05
0.0003111701
0.0001230698
0.00030618613
0.00016108877
0.00029584352
0.00020059045
0.00027495888
0.00024446732
0.00024594613
0.00028587472
0.00020704413
0.00032631637
0.00016207862
0.00036064428
0.00010979161
0.00038970824
5.2452626e-05
0.00041116367
-8.1100327e-06
0.00042405621
-6.9879355e-05
0.00042761856
-0.00013129805
0.0004223903
-0.00019075422
0.00040878825
-0.00024707887
0.00038743325
-0.00029909393
0.00035941001
-0.00034595249
0.00032563796
-0.00038702019
0.00028733993
-0.00042207814
0.00024558926
-0.00045067822
0.00020163571
-0.00047304283
0.00015601652
-0.00048917285
0.00011022941
-0.00049933216
6.4918504e-05
-0.00050388929
2.078238e-05
-0.00050320469
-2.1656603e-05
-0.0004977335
-6.184444e-05
-0.00048793366
-9.950511e-05
-0.00047427318
-0.00013440934
-0.00045720581
-0.00016642503
-0.00043717154
-0.00019549415
-0.00041458018
-0.00022162713
-0.0003898152
-0.00024487828
-0.0003632197
-0.00026535064
-0.00033510788
-0.00028317035
-0.0003057592
-0.00029847009
-0.00027542102
-0.00031137561
-0.00024431671
-0.0003220657
-0.00021263265
-0.00033076227
-0.00018055477
-0.00033740145
-0.00014822053
-0.00034197608
-0.00034553725
0.00013328525
-0.00026961361
0.00015755675
-0.00026519986
0.0001814609
-0.00025950729
0.00020481524
-0.00025153366
0.00022740899
-0.00024125994
0.00024901335
-0.0002288038
0.00026938439
-0.00021400707
0.00028824707
-0.00019675916
0.0003053077
-0.00017702277
0.00032025123
-0.00015476498
0.00033273957
-0.00012997548
0.00034241174
-0.00010267979
0.0003489051
-7.2964352e-05
0.00035184941
-4.0969481e-05
0.00035088802
-6.9112719e-06
0.00034543109
2.9261813e-05
0.00033556562
6.6278249e-05
0.00032069558
0.000104531
0.00030091507
0.00014325109
0.00027564604
0.00018143833
0.00024517123
0.00021862519
0.00020953782
0.00025388221
0.00016881041
0.00028633275
0.00012364843
0.00031467318
7.4785557e-05
0.00033818102
2.2654743e-05
0.00035560426
-3.1393122e-05
0.00036639583
-8.6149692e-05
0.00036896642
-0.00014021274
0.00036345012
-0.00019164928
0.00034863611
-0.00023878938
0.00032503694
-0.00027979412
0.00029328204
-0.00031231658
0.00025263304
-0.00033583169
0.00020740351
-0.0003482856
0.00015761292
-0.0003505451
0.00010763814
-0.00034440884
6.0218472e-05
-0.00032997028
1.6866867e-05
-0.00030917852
-2.0527341e-05
-0.00028367826
-5.2083243e-05
-0.00025445557
-7.8150024e-05
-0.00022262059
-9.9208573e-05
-0.00018956579
-0.00011696361
-0.00015399619
-0.00013091818
-0.00011692841
-0.00014110495
-7.8731179e-05
-0.00014810542
-3.9758074e-05
-0.00015155172
-3.1402516e-07
-0.00015190702
3.8959801e-05
-0.00014867696
7.737316e-05
-0.00014225745
0.00011409904
-0.0001321222
0.00014954009
-0.00011901726
0.00018343843
-0.00010395635
0.00021449138
-8.5849859e-05
0.00024313383
-6.5790645e-05
0.00026943324
-4.3152362e-05
0.00029227501
-1.8425958e-05
0.00031326308
8.8582129e-06
0.00033004673
4.0634547e-05
0.0003409635
7.6361568e-05
0.00034830363
0.00011573034
0.00034734065
0.00016205265
0.00033582435
0.00021210736
0.0003164186
0.00026387413
0.00028420677
0.00031808759
0.00024250634
0.00036801856
0.00019032762
0.00041282248
0.00013054205
0.0004494916
6.4643176e-05
0.00047706082
-4.7707605e-06
0.00049346911
-7.5316668e-05
0.00049816571
-0.00014505519
0.00049213101
-0.00021212041
0.00047585412
-0.00027519153
0.00045050355
-0.00033285463
0.00041707313
-0.00038429233
0.00037707626
-0.00042884678
0.00033189482
-0.00046622688
0.00028296892
-0.00049617233
0.00023157892
-0.00051889832
0.0001787422
-0.00053457719
0.00012590975
-0.00054358594
7.3930436e-05
-0.00054639071
2.3590486e-05
-0.0005435128
-2.4533133e-05
-0.0005355105
-6.9844971e-05
-0.00052295028
-0.00011206232
-0.0005063904
-0.00015096754
-0.00048636613
-0.00018644577
-0.00046338205
-0.00021847751
-0.00043790111
-0.00024710515
-0.00041034182
-0.00027243674
-0.00038107418
-0.00029461474
-0.00035042971
-0.00031381255
-0.00031869477
-0.00033020409
-0.00028612107
-0.00034395143
-0.0002529195
-0.00035526633
-0.00021927095
-0.00036440513
-0.00018533203
-0.00037133796
-0.00015123988
-0.00037606666
-0.0003796061
0.00013708916
-0.00029602741
0.00016341466
-0.00029152735
0.00018945669
-0.00028554945
0.00021500947
-0.00027708677
0.00023988492
-0.0002661355
0.00026385527
-0.00025277337
0.00028666205
-0.0002368135
0.0003080192
-0.00021811655
0.00032761483
-0.00019661789
0.00034510201
-0.00017225106
0.0003600998
-0.00014497255
0.00037220695
-0.00011478605
0.00038099309
-8.1748745e-05
0.00038600745
-4.5982083e-05
0.00038679767
-7.7008322e-06
0.00038290414
3.3154753e-05
0.00037392883
7.5251773e-05
0.00035945865
0.00011899829
0.00033925727
0.00016344922
0.00031293933
0.00020775369
0.00028052011
0.00025104278
0.00024202471
0.00029237668
0.00019725611
0.00033110099
0.00014721208
0.00036471715
9.2332136e-05
0.00039306063
3.331939e-05