/*--------------------------------*- C++ -*----------------------------------*\
  =========                 |
  \\      /  F ield         | OpenFOAM: The Open Source CFD Toolbox
   \\    /   O peration     | Website:  https://openfoam.org
    \\  /    A nd           | Version:  9
     \\/     M anipulation  |
\*---------------------------------------------------------------------------*/
FoamFile
{
    format      ascii;
    class       volVectorField;
    location    "0.33";
    object      U;
}
// * * * * * * * * * * * * * * * * * * * * * * * * * * * * * * * * * * * * * //

dimensions      [0 1 -1 0 0 0 0];

internalField   nonuniform List<vector> 
10000
(
(0.0084524122 -0.0072316931 0)
(0.013207249 -0.0071856741 0)
(0.01314202 -0.0071461157 0)
(0.014419919 -0.0070792448 0)
(0.015856516 -0.0069840079 0)
(0.017008887 -0.0068673975 0)
(0.017958817 -0.006727311 0)
(0.018777578 -0.006559784 0)
(0.019441014 -0.0063646328 0)
(0.019917303 -0.0061421642 0)
(0.020191889 -0.0058919757 0)
(0.020252707 -0.005614005 0)
(0.020086365 -0.0053090552 0)
(0.019680756 -0.0049777647 0)
(0.019026642 -0.0046202018 0)
(0.018116433 -0.0042367733 0)
(0.016942534 -0.0038272895 0)
(0.015498844 -0.0033874775 0)
(0.013786212 -0.0029102328 0)
(0.011825548 -0.0023895263 0)
(0.0096521616 -0.001776797 0)
(0.0074056117 -0.001088057 0)
(0.0051704122 -0.00046304182 0)
(0.0029111591 8.3916519e-05 0)
(0.00062780858 0.00055480852 0)
(-0.0017620786 0.00093077482 0)
(-0.0043082726 0.0012547696 0)
(-0.006900963 0.0015601732 0)
(-0.0094865051 0.0018458581 0)
(-0.012024959 0.002145897 0)
(-0.014426126 0.0024653842 0)
(-0.016636493 0.0028310465 0)
(-0.018512724 0.0032130453 0)
(-0.020042256 0.0036173162 0)
(-0.021306129 0.0040505644 0)
(-0.022209536 0.0045156722 0)
(-0.022739452 0.0050264969 0)
(-0.023033979 0.0056131546 0)
(-0.022906382 0.0063635253 0)
(-0.022321847 0.0071463317 0)
(-0.021422995 0.0079862125 0)
(-0.020141356 0.0089464741 0)
(-0.018513704 0.0099664842 0)
(-0.016484783 0.011039324 0)
(-0.014056716 0.012085649 0)
(-0.011292121 0.013074211 0)
(-0.0082546499 0.013930899 0)
(-0.0050530306 0.014627373 0)
(-0.0017316233 0.015147818 0)
(0.0016249407 0.015461574 0)
(0.0049304641 0.015583132 0)
(0.0081550842 0.015517944 0)
(0.011209316 0.015245267 0)
(0.014041672 0.014778353 0)
(0.016534313 0.014128173 0)
(0.018664203 0.013368607 0)
(0.020360703 0.012489555 0)
(0.021566544 0.011598413 0)
(0.022316769 0.010708233 0)
(0.022578131 0.0098160641 0)
(0.022381543 0.009056723 0)
(0.02167317 0.0082688921 0)
(0.020575896 0.0076314811 0)
(0.019026624 0.0069753831 0)
(0.017099778 0.0064481622 0)
(0.014813206 0.0058700867 0)
(0.012133837 0.0053731751 0)
(0.0091913127 0.0048497437 0)
(0.0059400761 0.0043719445 0)
(0.0025267944 0.0038905286 0)
(-0.00099296918 0.0034276761 0)
(-0.0045234425 0.0029692425 0)
(-0.0080017332 0.0025064875 0)
(-0.011356395 0.0020296843 0)
(-0.01451453 0.0015253724 0)
(-0.017401633 0.00097479121 0)
(-0.019952626 0.0003461388 0)
(-0.022293556 -0.00041331494 0)
(-0.024565364 -0.0012687936 0)
(-0.026780301 -0.0021618427 0)
(-0.028819184 -0.0029207094 0)
(-0.030511153 -0.0035834963 0)
(-0.031826534 -0.0041727969 0)
(-0.032768975 -0.0047066031 0)
(-0.03335287 -0.005197613 0)
(-0.033596211 -0.0056515426 0)
(-0.033516984 -0.0060692957 0)
(-0.033132364 -0.0064500509 0)
(-0.032460248 -0.0067939913 0)
(-0.031520465 -0.0071013837 0)
(-0.030333542 -0.0073725187 0)
(-0.028918354 -0.0076082755 0)
(-0.027295416 -0.0078100014 0)
(-0.025502135 -0.0079787355 0)
(-0.023566568 -0.0081160111 0)
(-0.021415545 -0.00822639 0)
(-0.018969553 -0.008314542 0)
(-0.016737313 -0.0083743446 0)
(-0.015837041 -0.0083990624 0)
(-0.0096485219 -0.0084239076 0)
(0.0084897221 -0.01225785 0)
(0.01329194 -0.012095658 0)
(0.013249054 -0.011957068 0)
(0.014581164 -0.011758923 0)
(0.016066079 -0.011502112 0)
(0.017262797 -0.011199681 0)
(0.018262206 -0.0108456 0)
(0.019134466 -0.010433679 0)
(0.019851679 -0.0099640176 0)
(0.020382001 -0.0094368608 0)
(0.020711445 -0.0088524412 0)
(0.020826885 -0.0082116115 0)
(0.020714424 -0.0075160561 0)
(0.020362616 -0.0067679558 0)
(0.019762467 -0.005969896 0)
(0.018907474 -0.0051238744 0)
(0.01779449 -0.0042287204 0)
(0.016422485 -0.0032782232 0)
(0.014793595 -0.002264181 0)
(0.012971694 -0.0011903214 0)
(0.010970576 -9.6497966e-05 0)
(0.0087405784 0.0010567868 0)
(0.0063665412 0.0021370941 0)
(0.0039535056 0.0030997732 0)
(0.0014973234 0.003900435 0)
(-0.0010422361 0.0045146247 0)
(-0.0036629275 0.00500211 0)
(-0.0063014673 0.0054108902 0)
(-0.0089036408 0.0057376048 0)
(-0.011421102 0.0060250368 0)
(-0.013768506 0.0062801661 0)
(-0.015925229 0.0065410239 0)
(-0.017768586 0.0067899519 0)
(-0.019249839 0.0070246705 0)
(-0.02045686 0.0072665325 0)
(-0.021296779 0.0075230137 0)
(-0.02173831 0.0077844453 0)
(-0.0218498 0.0081046891 0)
(-0.021602706 0.0085715195 0)
(-0.021018366 0.009038592 0)
(-0.020042805 0.0095670143 0)
(-0.018687598 0.010130616 0)
(-0.01704365 0.010751735 0)
(-0.015056155 0.011448403 0)
(-0.01273971 0.012130552 0)
(-0.010143588 0.0127914 0)
(-0.0073233275 0.013396769 0)
(-0.0043306244 0.013884939 0)
(-0.0012216569 0.014309205 0)
(0.0019222566 0.014626884 0)
(0.0050389867 0.014847514 0)
(0.0080568257 0.014965345 0)
(0.010888332 0.014974977 0)
(0.013488487 0.014902563 0)
(0.015786978 0.014699434 0)
(0.017731681 0.014450414 0)
(0.019284422 0.014106434 0)
(0.020424072 0.01381441 0)
(0.021094117 0.013446481 0)
(0.021394563 0.013083259 0)
(0.021206113 0.012787445 0)
(0.020526671 0.012432477 0)
(0.019481297 0.012194153 0)
(0.017981761 0.011840484 0)
(0.016094823 0.011574409 0)
(0.013818649 0.011183987 0)
(0.01118395 0.010835303 0)
(0.0082512965 0.010391126 0)
(0.0050301914 0.0099449826 0)
(0.0016190895 0.0094353695 0)
(-0.0018906873 0.008881105 0)
(-0.0054348151 0.0082591232 0)
(-0.0089433684 0.0075582364 0)
(-0.012347836 0.0067699654 0)
(-0.015584201 0.0058834889 0)
(-0.018598059 0.0048771923 0)
(-0.021358998 0.0037075738 0)
(-0.023925606 0.0023155113 0)
(-0.026327488 0.00080141747 0)
(-0.028440834 -0.00077202029 0)
(-0.030244262 -0.0022455915 0)
(-0.031763212 -0.0036178011 0)
(-0.032948245 -0.0048784021 0)
(-0.033790819 -0.0060489751 0)
(-0.034291912 -0.0071399546 0)
(-0.034459016 -0.0081548974 0)
(-0.034304854 -0.0090944904 0)
(-0.033845606 -0.0099584012 0)
(-0.033099569 -0.010745954 0)
(-0.032086834 -0.01145708 0)
(-0.030829002 -0.0120927 0)
(-0.029346159 -0.012654481 0)
(-0.02765888 -0.013144889 0)
(-0.025804263 -0.013566327 0)
(-0.023813012 -0.013921073 0)
(-0.021614349 -0.014217321 0)
(-0.01911921 -0.014464359 0)
(-0.016828219 -0.014650758 0)
(-0.015893969 -0.014766658 0)
(-0.0096752323 -0.014898252 0)
(0.0085986346 -0.011553488 0)
(0.013483842 -0.011345091 0)
(0.013473125 -0.011143878 0)
(0.014869788 -0.01086176 0)
(0.016413834 -0.010504277 0)
(0.017666016 -0.010085241 0)
(0.018725928 -0.0095982663 0)
(0.019660804 -0.0090381136 0)
(0.020440087 -0.0084057852 0)
(0.02103164 -0.0077026292 0)
(0.021420378 -0.006930022 0)
(0.021592562 -0.0060908755 0)
(0.0215337 -0.0051894791 0)
(0.021231027 -0.0042314098 0)
(0.020675115 -0.0032238038 0)
(0.019861619 -0.0021756969 0)
(0.018791103 -0.0010984912 0)
(0.017465129 -6.1073303e-06 0)
(0.01587562 0.0010981065 0)
(0.01399478 0.0022225131 0)
(0.011900148 0.0033032985 0)
(0.009639177 0.004324943 0)
(0.007212992 0.0052992083 0)
(0.0046747081 0.0061747146 0)
(0.0020440137 0.0068972503 0)
(-0.00065789239 0.0074553057 0)
(-0.0034073519 0.0078569132 0)
(-0.0061555501 0.0081194214 0)
(-0.0088528008 0.0082443602 0)
(-0.011448712 0.0082618607 0)
(-0.01385836 0.0081796556 0)
(-0.01605255 0.0080237718 0)
(-0.017926356 0.0078111153 0)
(-0.019425301 0.0075371773 0)
(-0.020616927 0.0072377514 0)
(-0.021435672 0.0069461814 0)
(-0.021821183 0.0066732032 0)
(-0.021813442 0.0064828769 0)
(-0.021430766 0.0064045741 0)
(-0.020676307 0.0064304179 0)
(-0.019580239 0.0066063566 0)
(-0.018121211 0.0068354923 0)
(-0.016308437 0.0071595481 0)
(-0.014208409 0.0075852247 0)
(-0.011848433 0.008091281 0)
(-0.0092375248 0.0086267234 0)
(-0.0064948046 0.0091493846 0)
(-0.0036325345 0.0096372272 0)
(-0.00066248112 0.010074757 0)
(0.0022990193 0.01045518 0)
(0.0052200961 0.010752997 0)
(0.0080437978 0.010963399 0)
(0.010723172 0.011089474 0)
(0.013175575 0.011176355 0)
(0.015354325 0.01118309 0)
(0.017246304 0.011162461 0)
(0.018849048 0.011124044 0)
(0.020028336 0.011168938 0)
(0.020744714 0.011173866 0)
(0.021146597 0.011263453 0)
(0.02104917 0.011382881 0)
(0.02050113 0.011569363 0)
(0.019510207 0.011821836 0)
(0.018029297 0.012061654 0)
(0.016147632 0.012312418 0)
(0.013845562 0.012504404 0)
(0.01116713 0.01264271 0)
(0.0081691567 0.012673596 0)
(0.004884724 0.012611779 0)
(0.0013891202 0.012422846 0)
(-0.002222416 0.012101226 0)
(-0.0058830785 0.011636712 0)
(-0.0095157104 0.01101994 0)
(-0.013048794 0.010247222 0)
(-0.016421173 0.0093184132 0)
(-0.019589318 0.0082299546 0)
(-0.022524362 0.0069770709 0)
(-0.025208713 0.0055699224 0)
(-0.027661851 0.0040749671 0)
(-0.02983649 0.0025713187 0)
(-0.031674139 0.0010247445 0)
(-0.033152383 -0.00048417124 0)
(-0.034265248 -0.0019611992 0)
(-0.035038196 -0.0033896841 0)
(-0.035467085 -0.0047548862 0)
(-0.035558839 -0.0060466953 0)
(-0.035327333 -0.0072576604 0)
(-0.034788979 -0.008381851 0)
(-0.033962457 -0.0094153754 0)
(-0.032869312 -0.010356484 0)
(-0.031532024 -0.011204949 0)
(-0.029971184 -0.01196186 0)
(-0.028208111 -0.01262921 0)
(-0.026280109 -0.013209093 0)
(-0.024220159 -0.013703783 0)
(-0.021960372 -0.014121187 0)
(-0.019403034 -0.014471636 0)
(-0.017043505 -0.014743461 0)
(-0.016075478 -0.01492469 0)
(-0.0097822735 -0.015115324 0)
(0.0086983119 -0.01391433 0)
(0.013677171 -0.013678799 0)
(0.013728056 -0.013432397 0)
(0.015210365 -0.013081201 0)
(0.016832218 -0.012636082 0)
(0.01815912 -0.012110716 0)
(0.019298733 -0.011497322 0)
(0.020315105 -0.010790746 0)
(0.021174657 -0.0099926851 0)
(0.021844942 -0.0091051075 0)
(0.022309986 -0.0081297902 0)
(0.022554347 -0.0070708065 0)
(0.022561577 -0.005934144 0)
(0.022317039 -0.0047275379 0)
(0.02180842 -0.0034610219 0)
(0.02102525 -0.0021469217 0)
(0.01995916 -0.00080059158 0)
(0.01861693 0.00055826706 0)
(0.017023276 0.0019069002 0)
(0.015181565 0.0032449058 0)
(0.013081695 0.0045739305 0)
(0.010749469 0.0058298076 0)
(0.0082334008 0.0070043866 0)
(0.0055722459 0.0080472127 0)
(0.0028017244 0.0089395936 0)
(-5.6033316e-05 0.0096383378 0)
(-0.0029709005 0.010150144 0)
(-0.0058871145 0.010469901 0)
(-0.0087376334 0.010597767 0)
(-0.01146787 0.010554411 0)
(-0.01399649 0.010348254 0)
(-0.016293041 0.010002088 0)
(-0.018264108 0.0095244517 0)
(-0.019841548 0.0089659017 0)
(-0.02107493 0.0083428789 0)
(-0.021898676 0.0076820905 0)
(-0.0222539 0.0070534319 0)
(-0.022189257 0.006471112 0)
(-0.021741085 0.0059743528 0)
(-0.020906518 0.0055766166 0)
(-0.019714959 0.0053004935 0)
(-0.018182782 0.005155199 0)
(-0.016301456 0.0051164146 0)
(-0.014085206 0.0051848182 0)
(-0.011614424 0.0053678318 0)
(-0.0089654801 0.0056259519 0)
(-0.0061736923 0.0058915523 0)
(-0.0032722179 0.0062441583 0)
(-0.00030269009 0.0065887026 0)
(0.0026458985 0.006954129 0)
(0.0055224318 0.0073155725 0)
(0.0083098477 0.0076696838 0)
(0.010977214 0.0080132493 0)
(0.013440145 0.0083554703 0)
(0.01563832 0.0087109 0)
(0.017565736 0.0090965693 0)
(0.019224695 0.009509547 0)
(0.020453158 0.0099882504 0)
(0.021209848 0.010517574 0)
(0.021657483 0.011103206 0)
(0.021584829 0.011778487 0)
(0.021041518 0.012472275 0)
(0.020040832 0.013179026 0)
(0.018526237 0.013901947 0)
(0.016580064 0.014563593 0)
(0.014182936 0.015146013 0)
(0.01137768 0.015593385 0)
(0.0082331664 0.01588433 0)
(0.004781009 0.015994543 0)
(0.0011001195 0.015894731 0)
(-0.0026943168 0.015577013 0)
(-0.0065400301 0.015035118 0)
(-0.010360511 0.014266116 0)
(-0.01407813 0.013278631 0)
(-0.017629105 0.012075586 0)
(-0.020964231 0.010668309 0)
(-0.024040248 0.0090872771 0)
(-0.026844655 0.0073519036 0)
(-0.029338587 0.0055141612 0)
(-0.031498848 0.003639686 0)
(-0.033302991 0.0017553463 0)
(-0.03474914 -0.00010253464 0)
(-0.03585144 -0.0019429075 0)
(-0.036579911 -0.0037312038 0)
(-0.036941774 -0.0054463967 0)
(-0.036952102 -0.0070735101 0)
(-0.036628328 -0.0086012907 0)
(-0.035990225 -0.01002117 0)
(-0.035060248 -0.01132775 0)
(-0.03386228 -0.012517924 0)
(-0.032420622 -0.013590805 0)
(-0.030757339 -0.014547412 0)
(-0.028894328 -0.015390203 0)
(-0.026869119 -0.016121801 0)
(-0.024717367 -0.01674554 0)
(-0.022374421 -0.017269585 0)
(-0.01973423 -0.017705722 0)
(-0.017282785 -0.018042776 0)
(-0.016250249 -0.018266659 0)
(-0.0098745158 -0.018480824 0)
(0.0088373605 -0.015501305 0)
(0.013941819 -0.015209262 0)
(0.014069625 -0.014898862 0)
(0.015656754 -0.014461412 0)
(0.017375106 -0.013911577 0)
(0.018796524 -0.013261674 0)
(0.020036485 -0.012502672 0)
(0.021154898 -0.011630555 0)
(0.02211468 -0.010647007 0)
(0.022882936 -0.0095541132 0)
(0.023442702 -0.0083543738 0)
(0.023776327 -0.0070526881 0)
(0.023865309 -0.0056564027 0)
(0.023693182 -0.0041749887 0)
(0.02324594 -0.0026203546 0)
(0.022513193 -0.0010066279 0)
(0.021488019 0.0006502626 0)
(0.020165174 0.0023340621 0)
(0.018556186 0.0040167082 0)
(0.016657221 0.0056532007 0)
(0.014481874 0.0072271828 0)
(0.012067701 0.0087086306 0)
(0.009429358 0.010064904 0)
(0.0066093618 0.011256718 0)
(0.003634905 0.012243667 0)
(0.00055210006 0.01299873 0)
(-0.0025769315 0.013508084 0)
(-0.0057092537 0.013763755 0)
(-0.0087685781 0.013764583 0)
(-0.011695914 0.01352239 0)
(-0.014404964 0.013056143 0)
(-0.016868042 0.012391561 0)
(-0.01895127 0.011524545 0)
(-0.020590206 0.010574279 0)
(-0.021875225 0.0095400862 0)
(-0.02269097 0.0084252495 0)
(-0.022997764 0.0073931687 0)
(-0.022871426 0.006394719 0)
(-0.02232889 0.0054948895 0)
(-0.021385181 0.0047208711 0)
(-0.020070351 0.0040895893 0)
(-0.018406611 0.0036190149 0)
(-0.016408219 0.0033139781 0)
(-0.01410697 0.0031493787 0)
(-0.011566744 0.003096719 0)
(-0.0088690586 0.0031486329 0)
(-0.006012371 0.0032579943 0)
(-0.0030386193 0.0034872182 0)
(-1.6167475e-05 0.003782531 0)
(0.0030014531 0.0041445395 0)
(0.0059460141 0.0045790625 0)
(0.0087958486 0.0050824417 0)
(0.011505082 0.0056390718 0)
(0.014002911 0.0062193164 0)
(0.016248762 0.0068729858 0)
(0.0182081 0.0076119772 0)
(0.019898917 0.0083873104 0)
(0.021177139 0.0092285803 0)
(0.021974102 0.010180009 0)
(0.022489526 0.011188563 0)
(0.022465491 0.012318035 0)
(0.021915577 0.013481999 0)
(0.020926012 0.014648022 0)
(0.019383765 0.015860407 0)
(0.017359081 0.016965853 0)
(0.014848527 0.017993953 0)
(0.011885645 0.01882626 0)
(0.0085551722 0.01946645 0)
(0.0048828251 0.01984589 0)
(0.00096187925 0.019955768 0)
(-0.0030877964 0.019768504 0)
(-0.0071956242 0.019274379 0)
(-0.011271839 0.018475019 0)
(-0.015238796 0.017376283 0)
(-0.019031133 0.015993367 0)
(-0.022577378 0.014358764 0)
(-0.025840624 0.012502777 0)
(-0.028781748 0.010469076 0)
(-0.031373661 0.0083081731 0)
(-0.033594075 0.0060563781 0)
(-0.035414089 0.0037672163 0)
(-0.036846894 0.001466347 0)
(-0.037888173 -0.00079632537 0)
(-0.038534271 -0.0029852588 0)
(-0.038800915 -0.0050824577 0)
(-0.038704183 -0.0070713543 0)
(-0.03826429 -0.008938447 0)
(-0.037503656 -0.010674239 0)
(-0.036446824 -0.012272292 0)
(-0.035120018 -0.013728686 0)
(-0.033549696 -0.015042359 0)
(-0.031759323 -0.016214523 0)
(-0.029771976 -0.017248573 0)
(-0.02762621 -0.018148032 0)
(-0.02536015 -0.018916346 0)
(-0.022912244 -0.019563079 0)
(-0.020168159 -0.020101327 0)
(-0.017605967 -0.020519666 0)
(-0.016495467 -0.020805929 0)
(-0.010004131 -0.021072844 0)
(0.0089987538 -0.01728654 0)
(0.014253349 -0.016956697 0)
(0.01447757 -0.016591777 0)
(0.016188605 -0.016079693 0)
(0.018023321 -0.015435158 0)
(0.019560264 -0.014669903 0)
(0.020921048 -0.013774572 0)
(0.022161192 -0.012745336 0)
(0.023241112 -0.011583628 0)
(0.024127485 -0.010291274 0)
(0.024801552 -0.0088714787 0)
(0.025242873 -0.007329895 0)
(0.025430531 -0.0056750062 0)
(0.025345494 -0.0039179203 0)
(0.024970612 -0.0020731031 0)
(0.024291255 -0.00015868949 0)
(0.023297252 0.0018025597 0)
(0.021983311 0.0037844593 0)
(0.020345058 0.0057594549 0)
(0.018397347 0.0076888484 0)
(0.016145443 0.0095415034 0)
(0.013598721 0.011275963 0)
(0.010796052 0.012849093 0)
(0.0077682912 0.01421672 0)
(0.0045633637 0.015337355 0)
(0.0012300986 0.016193068 0)
(-0.002182397 0.016738873 0)
(-0.0056055761 0.016964937 0)
(-0.0089527264 0.016860724 0)
(-0.01214923 0.016431663 0)
(-0.015099127 0.015702734 0)
(-0.017794564 0.01469224 0)
(-0.020047101 0.013473013 0)
(-0.021784839 0.012061143 0)
(-0.02317041 0.010515587 0)
(-0.023971643 0.0089543073 0)
(-0.02418825 0.0074294833 0)
(-0.023976549 0.0059689424 0)
(-0.023299708 0.00463868 0)
(-0.022200254 0.0034715929 0)
(-0.020713504 0.002486573 0)
(-0.018867677 0.0017009685 0)
(-0.016698466 0.0011170508 0)
(-0.01425281 0.00071116242 0)
(-0.011590104 0.00047684126 0)
(-0.0088015948 0.00037614232 0)
(-0.0058489666 0.00042929077 0)
(-0.0027676569 0.00058215379 0)
(0.00033999443 0.00087466846 0)
(0.0034367183 0.0012916632 0)
(0.0064643117 0.0018110055 0)
(0.009389612 0.0024344667 0)
(0.012143187 0.0031518835 0)
(0.014700502 0.0039305452 0)
(0.017043812 0.0048281705 0)
(0.019070941 0.0058495166 0)
(0.020806617 0.0069578745 0)
(0.022186307 0.0081192744 0)
(0.023088287 0.009499025 0)
(0.023696947 0.010960879 0)
(0.023768781 0.012492189 0)
(0.023256536 0.014186693 0)
(0.022306837 0.015868039 0)
(0.020745309 0.017635591 0)
(0.018635099 0.019250703 0)
(0.01598352 0.020775891 0)
(0.012802166 0.022053077 0)
(0.0092106852 0.023087316 0)
(0.0052314103 0.02375689 0)
(0.00098608549 0.024071885 0)
(-0.0034102915 0.023989393 0)
(-0.0078663595 0.023503768 0)
(-0.012289895 0.022622697 0)
(-0.016589013 0.021360004 0)
(-0.020673484 0.019752456 0)
(-0.024479212 0.017836706 0)
(-0.027951614 0.0156528 0)
(-0.03105768 0.013258751 0)
(-0.033766182 0.010707357 0)
(-0.03605113 0.0080576365 0)
(-0.037900772 0.0053600722 0)
(-0.039317179 0.0026530232 0)
(-0.040304639 -2.8456944e-06 0)
(-0.040864867 -0.0025862141 0)
(-0.041024073 -0.0050654704 0)
(-0.040801892 -0.0074173285 0)
(-0.040223071 -0.009624175 0)
(-0.039314528 -0.011673472 0)
(-0.038104259 -0.013557371 0)
(-0.036621598 -0.015271959 0)
(-0.034895945 -0.016816528 0)
(-0.032953315 -0.018192906 0)
(-0.03081774 -0.019405446 0)
(-0.028527475 -0.020459125 0)
(-0.026123814 -0.021358117 0)
(-0.023549684 -0.02211335 0)
(-0.020681408 -0.022739289 0)
(-0.017989001 -0.023225506 0)
(-0.016781137 -0.023560746 0)
(-0.010151106 -0.02385925 0)
(0.0091787272 -0.019176801 0)
(0.014608969 -0.018812962 0)
(0.014949979 -0.018395396 0)
(0.016804993 -0.017811821 0)
(0.018776676 -0.017074192 0)
(0.020449957 -0.01619519 0)
(0.021952939 -0.015164588 0)
(0.023336738 -0.013977536 0)
(0.024559353 -0.012635054 0)
(0.025585931 -0.01113878 0)
(0.026395355 -0.0094921971 0)
(0.026964747 -0.0077015118 0)
(0.027270385 -0.0057759554 0)
(0.027289606 -0.0037280914 0)
(0.027001347 -0.0015748049 0)
(0.026387087 0.00066269436 0)
(0.025431829 0.0029587134 0)
(0.024125258 0.0052790738 0)
(0.02246632 0.0075927258 0)
(0.020447915 0.0098561288 0)
(0.018080821 0.012028501 0)
(0.015390017 0.014058263 0)
(0.012387246 0.015888819 0)
(0.0091167544 0.017488718 0)
(0.0056321642 0.018792767 0)
(0.0019759388 0.019758128 0)
(-0.0017819492 0.020355708 0)
(-0.005563556 0.020552805 0)
(-0.0092775948 0.02033511 0)
(-0.012829454 0.019705796 0)
(-0.016120057 0.018687897 0)
(-0.019073133 0.017281606 0)
(-0.0215555 0.015643614 0)
(-0.023517603 0.01372056 0)
(-0.024946111 0.011582324 0)
(-0.025726547 0.0095309482 0)
(-0.025911931 0.0074415557 0)
(-0.025574276 0.0054533394 0)
(-0.024729498 0.003636036 0)
(-0.023435501 0.0020304472 0)
(-0.021733887 0.00065286595 0)
(-0.019663577 -0.00047019115 0)
(-0.017282318 -0.0013414682 0)
(-0.014633033 -0.0019728287 0)
(-0.011794531 -0.0024160823 0)
(-0.008820415 -0.0026849689 0)
(-0.0057254194 -0.0027105954 0)
(-0.0025294745 -0.0025955058 0)
(0.00073891507 -0.0022882205 0)
(0.0039567355 -0.0018536728 0)
(0.0070737312 -0.0012567072 0)
(0.010100124 -0.00052182849 0)
(0.012947903 0.00035631557 0)
(0.015608828 0.001370033 0)
(0.018080224 0.0025378974 0)
(0.020236177 0.0037987938 0)
(0.022056534 0.0052676222 0)
(0.023600811 0.0067985997 0)
(0.024697469 0.0086057344 0)
(0.025366798 0.010557892 0)
(0.025579607 0.012571135 0)
(0.025184792 0.014851857 0)
(0.024277774 0.017166926 0)
(0.022687362 0.019480748 0)
(0.020440094 0.021744426 0)
(0.017606029 0.02379318 0)
(0.014159121 0.025611024 0)
(0.010223596 0.027074575 0)
(0.0058333459 0.028086438 0)
(0.0011619228 0.028635261 0)
(-0.0036864695 0.02867352 0)
(-0.0085913104 0.028195981 0)
(-0.013443419 0.027217981 0)
(-0.018136009 0.025771373 0)
(-0.022580573 0.023901579 0)
(-0.026701916 0.021652173 0)
(-0.030441408 0.019090358 0)
(-0.0337474 0.01627758 0)
(-0.03659202 0.013289608 0)
(-0.038955538 0.010173703 0)
(-0.040829743 0.0070117211 0)
(-0.042217569 0.0038483948 0)
(-0.04313191 0.00074508033 0)
(-0.043598108 -0.002268305 0)
(-0.043630224 -0.0051549336 0)
(-0.043258372 -0.0078874659 0)
(-0.0425136 -0.010445935 0)
(-0.041428391 -0.012816487 0)
(-0.040035783 -0.014990819 0)
(-0.038369084 -0.016965299 0)
(-0.036460376 -0.018739892 0)
(-0.034338019 -0.02031776 0)
(-0.032027985 -0.021704521 0)
(-0.029569177 -0.022906736 0)
(-0.027005277 -0.023930682 0)
(-0.024283046 -0.024788367 0)
(-0.021270199 -0.025495777 0)
(-0.018428861 -0.026043811 0)
(-0.017104578 -0.026423098 0)
(-0.010313384 -0.026748202 0)
(0.0093754728 -0.021200995 0)
(0.015005705 -0.020808008 0)
(0.015483024 -0.020340683 0)
(0.017501782 -0.019689566 0)
(0.019632006 -0.018862886 0)
(0.021463305 -0.017872776 0)
(0.023131021 -0.016708539 0)
(0.024682118 -0.015364167 0)
(0.026071312 -0.013839837 0)
(0.02726211 -0.012136733 0)
(0.028231105 -0.010257638 0)
(0.028952399 -0.0082088213 0)
(0.029398651 -0.0059996467 0)
(0.029543027 -0.0036441005 0)
(0.029359917 -0.0011610805 0)
(0.028825791 0.0014253018 0)
(0.027917352 0.0040818871 0)
(0.026624042 0.006780128 0)
(0.024932115 0.0094772333 0)
(0.022846707 0.0121083 0)
(0.020364956 0.014641397 0)
(0.017479877 0.017013094 0)
(0.014250232 0.019167058 0)
(0.010698711 0.021037566 0)
(0.0068616492 0.022570164 0)
(0.0028237564 0.023688123 0)
(-0.0013554754 0.024363302 0)
(-0.0055924555 0.024544943 0)
(-0.0097647567 0.024213379 0)
(-0.013760417 0.023364712 0)
(-0.017487496 0.022025654 0)
(-0.020803158 0.020180372 0)
(-0.023570308 0.017999417 0)
(-0.025804259 0.015469293 0)
(-0.027310992 0.012770015 0)
(-0.028047154 0.01003885 0)
(-0.028176918 0.0073335704 0)
(-0.027675694 0.0047610444 0)
(-0.026612337 0.0024233336 0)
(-0.025077226 0.00038452864 0)
(-0.023112866 -0.0013571591 0)
(-0.020764066 -0.0028136651 0)
(-0.018105343 -0.003987402 0)
(-0.015233332 -0.0048471608 0)
(-0.01221035 -0.0054784211 0)
(-0.0090079613 -0.0058929143 0)
(-0.0056787538 -0.0060414981 0)
(-0.0022753016 -0.0059645822 0)
(0.001134682 -0.0056689078 0)
(0.0044884159 -0.0052048651 0)
(0.0077711216 -0.0045149951 0)
(0.01095115 -0.0036196411 0)
(0.013968118 -0.0025623759 0)
(0.016802503 -0.001315583 0)
(0.019383348 0.00010977021 0)
(0.021705697 0.0016348838 0)
(0.023707466 0.0034578339 0)
(0.025422803 0.0054063757 0)
(0.026743362 0.0075522563 0)
(0.027554157 0.010023057 0)
(0.027948863 0.012629329 0)
(0.027734712 0.015426967 0)
(0.026823035 0.018471302 0)
(0.0252278 0.021415309 0)
(0.022872753 0.024392929 0)
(0.019789666 0.027071045 0)
(0.016030445 0.029537654 0)
(0.011636639 0.031459817 0)
(0.0067449345 0.032872874 0)
(0.0015278978 0.033684334 0)
(-0.0038933272 0.033850787 0)
(-0.0093644587 0.033376255 0)
(-0.014755028 0.032281416 0)
(-0.019943778 0.030611824 0)
(-0.024828932 0.028418751 0)
(-0.029324034 0.025778013 0)
(-0.033356686 0.022767534 0)
(-0.036885636 0.019475887 0)
(-0.0398936 0.015971487 0)
(-0.042348819 0.012349181 0)
(-0.044241773 0.0086677692 0)
(-0.045595131 0.0050027888 0)
(-0.046428454 0.0014024743 0)
(-0.046768081 -0.002076926 0)
(-0.046642997 -0.005398242 0)
(-0.046089899 -0.0085318181 0)
(-0.045146776 -0.011456011 0)
(-0.043852217 -0.01415654 0)
(-0.042244508 -0.016625303 0)
(-0.040361333 -0.018859561 0)
(-0.038238595 -0.020860824 0)
(-0.035907737 -0.022634286 0)
(-0.033396232 -0.024188225 0)
(-0.030743611 -0.025530905 0)
(-0.027996129 -0.026670964 0)
(-0.025104069 -0.027622362 0)
(-0.021926329 -0.028402581 0)
(-0.018917532 -0.029004313 0)
(-0.017459078 -0.029421037 0)
(-0.010487745 -0.029764867 0)
(0.0095865182 -0.02337997 0)
(0.015439062 -0.022962852 0)
(0.016072623 -0.022450124 0)
(0.018274798 -0.02173592 0)
(0.020585563 -0.020824348 0)
(0.022597792 -0.019726766 0)
(0.024454061 -0.018431529 0)
(0.026197265 -0.016931079 0)
(0.027778702 -0.015224461 0)
(0.029160481 -0.0133115 0)
(0.030316394 -0.011193904 0)
(0.031217053 -0.0088771249 0)
(0.031830926 -0.0063706226 0)
(0.032126115 -0.0036888056 0)
(0.032071348 -0.00085155018 0)
(0.031633484 0.0021158811 0)
(0.030793176 0.0051700298 0)
(0.029530755 0.0082839024 0)
(0.027808716 0.011399148 0)
(0.025630736 0.014477074 0)
(0.023008546 0.017429838 0)
(0.019942457 0.02020684 0)
(0.016442286 0.022743965 0)
(0.012553632 0.02493695 0)
(0.0083195952 0.026733489 0)
(0.0038088851 0.028062808 0)
(-0.00088336698 0.028847265 0)
(-0.0056698888 0.029042665 0)
(-0.010412561 0.028611363 0)
(-0.014970745 0.027519427 0)
(-0.01925846 0.025797923 0)
(-0.023053431 0.023486097 0)
(-0.026218874 0.02065772 0)
(-0.028695326 0.017419482 0)
(-0.030318846 0.014016666 0)
(-0.031089254 0.010477036 0)
(-0.031087628 0.0070071451 0)
(-0.030356011 0.0038078807 0)
(-0.028965013 0.00093569238 0)
(-0.027075294 -0.0015500882 0)
(-0.024798644 -0.0036350836 0)
(-0.022170115 -0.0053778423 0)
(-0.019201761 -0.0068452603 0)
(-0.016018826 -0.0079664713 0)
(-0.012744068 -0.0087680025 0)
(-0.0092961211 -0.00931085 0)
(-0.0057199364 -0.00955343 0)
(-0.0020913108 -0.0095366892 0)
(0.0015484803 -0.0092492566 0)
(0.0051268373 -0.0086883916 0)
(0.0086292139 -0.0078715124 0)
(0.011999204 -0.0068372351 0)
(0.015185778 -0.0055843356 0)
(0.018202101 -0.004126994 0)
(0.020941076 -0.0024794572 0)
(0.023484594 -0.00062158735 0)
(0.025718539 0.0014456136 0)
(0.027576221 0.0038138855 0)
(0.029185802 0.0063522901 0)
(0.0303057 0.0092340537 0)
(0.030835872 0.012497406 0)
(0.030876308 0.015924042 0)
(0.03012711 0.019617595 0)
(0.028495472 0.023479331 0)
(0.026009003 0.027204908 0)
(0.022678944 0.030738008 0)
(0.018482364 0.03384925 0)
(0.013497225 0.036374044 0)
(0.0079996956 0.038254784 0)
(0.0020840215 0.039367947 0)
(-0.0040490145 0.039666328 0)
(-0.010213835 0.03916887 0)
(-0.016258827 0.03791219 0)
(-0.022047457 0.03595865 0)
(-0.027460199 0.033380018 0)
(-0.032395786 0.03027634 0)
(-0.036782369 0.026742254 0)
(-0.040577732 0.02287756 0)
(-0.043748132 0.018783148 0)
(-0.046283967 0.014569086 0)
(-0.04819594 0.01030566 0)
(-0.049497542 0.0060732997 0)
(-0.050221473 0.0019374593 0)
(-0.050404291 -0.0020442696 0)
(-0.050086709 -0.005829578 0)
(-0.049314602 -0.0093860259 0)
(-0.048134249 -0.01269072 0)
(-0.046591539 -0.015729383 0)
(-0.044731147 -0.018495026 0)
(-0.042595996 -0.020987301 0)
(-0.040225746 -0.023210394 0)
(-0.037655149 -0.025172064 0)
(-0.034913655 -0.026883757 0)
(-0.032041225 -0.028356777 0)
(-0.029086741 -0.029602233 0)
(-0.026003424 -0.030636775 0)
(-0.022640997 -0.031480198 0)
(-0.019447496 -0.032126925 0)
(-0.017837569 -0.032573635 0)
(-0.010669488 -0.032928114 0)
(0.0098091294 -0.025731524 0)
(0.015903704 -0.025295876 0)
(0.016713336 -0.024742963 0)
(0.019119268 -0.023971208 0)
(0.02163279 -0.022979388 0)
(0.02384945 -0.021779698 0)
(0.025919291 -0.020358015 0)
(0.027881033 -0.018704335 0)
(0.029682928 -0.016816119 0)
(0.031285422 -0.014691125 0)
(0.032659204 -0.01232955 0)
(0.033770699 -0.0097348945 0)
(0.034583826 -0.0069166154 0)
(0.035061458 -0.0038889334 0)
(0.035166929 -0.00067261287 0)
(0.03485302 0.0027037533 0)
(0.03409494 0.0062065131 0)
(0.032867137 0.009784021 0)
(0.031144032 0.013381943 0)
(0.028901454 0.01695319 0)
(0.026124077 0.020408442 0)
(0.02282818 0.023670278 0)
(0.019018936 0.026651715 0)
(0.014731186 0.029255785 0)
(0.01003454 0.03138687 0)
(0.0049884539 0.032979076 0)
(-0.00032184374 0.033924614 0)
(-0.00577172 0.034166812 0)
(-0.01122888 0.033644025 0)
(-0.016513138 0.032293735 0)
(-0.021460054 0.030155183 0)
(-0.025882809 0.027307085 0)
(-0.029575881 0.02369145 0)
(-0.032380131 0.019652782 0)
(-0.034183867 0.015257407 0)
(-0.034973841 0.0107962 0)
(-0.034731906 0.0064820885 0)
(-0.033594433 0.0025533899 0)
(-0.03179251 -0.00089705193 0)
(-0.029465862 -0.0038548044 0)
(-0.026766927 -0.0063077747 0)
(-0.023811348 -0.0083160094 0)
(-0.020540156 -0.010023447 0)
(-0.017011914 -0.011360037 0)
(-0.013424225 -0.012328058 0)
(-0.0096789584 -0.012991223 0)
(-0.0058070047 -0.013315278 0)
(-0.0018915461 -0.013344011 0)
(0.0020418218 -0.013040495 0)
(0.0058834338 -0.012422121 0)
(0.0095858959 -0.011472066 0)
(0.013174009 -0.010263859 0)
(0.016598023 -0.0088019907 0)
(0.019809519 -0.0071589499 0)
(0.022775 -0.0052652007 0)
(0.025501136 -0.003083572 0)
(0.027998524 -0.00078074917 0)
(0.030171894 0.0018877575 0)
(0.031993867 0.0048930071 0)
(0.033517357 0.0082085285 0)
(0.034447518 0.012001187 0)
(0.034666068 0.016244975 0)
(0.034213088 0.020734421 0)
(0.032686025 0.025511128 0)
(0.030032866 0.030275747 0)
(0.026348983 0.034768183 0)
(0.021585484 0.038697764 0)
(0.015965004 0.041964383 0)
(0.0096650477 0.044402055 0)
(0.0028675826 0.045858568 0)
(-0.0041627924 0.046283015 0)
(-0.01118657 0.045730213 0)
(-0.018030358 0.044250466 0)
(-0.024537665 0.041929847 0)
(-0.030569085 0.038871953 0)
(-0.036015477 0.035201861 0)
(-0.04080403 0.031039692 0)
(-0.044887436 0.026510483 0)
(-0.048238785 0.021743294 0)
(-0.050857189 0.016840508 0)
(-0.052762393 0.01191358 0)
(-0.053982137 0.0070489254 0)
(-0.054559135 0.0023209354 0)
(-0.054543026 -0.0022070197 0)
(-0.053988177 -0.006489344 0)
(-0.052950812 -0.010491652 0)
(-0.051486975 -0.014191085 0)
(-0.049651007 -0.017574685 0)
(-0.047495056 -0.020638174 0)
(-0.045068068 -0.023384482 0)
(-0.042413829 -0.025821425 0)
(-0.039570317 -0.027961103 0)
(-0.036569047 -0.029818432 0)
(-0.033450271 -0.031408729 0)
(-0.030264988 -0.032746283 0)
(-0.026969691 -0.033850848 0)
(-0.023404301 -0.034746222 0)