/*--------------------------------*- C++ -*----------------------------------*\
  =========                 |
  \\      /  F ield         | OpenFOAM: The Open Source CFD Toolbox
   \\    /   O peration     | Website:  https://openfoam.org
    \\  /    A nd           | Version:  9
     \\/     M anipulation  |
\*---------------------------------------------------------------------------*/
FoamFile
{
    format      ascii;
    class       volScalarField;
    location    "9";
    object      p;
}
// * * * * * * * * * * * * * * * * * * * * * * * * * * * * * * * * * * * * * //

dimensions      [0 2 -2 0 0 0 0];

internalField   nonuniform List<scalar> 
1000
(
1.675502
1.5544241
1.4584437
1.3947876
1.346278
1.303806
1.2662708
1.234099
1.2066986
1.1828611
1.1614668
1.1417029
1.1230258
1.1050862
1.0876709
1.0706567
1.0539758
1.0375917
1.0214835
1.0056376
0.99004257
0.97468746
0.95956075
0.94465051
0.92994451
0.91543051
0.90109655
0.88693105
0.872923
0.859062
0.84533828
0.83174272
0.81826682
0.80490264
0.7916428
0.77848043
0.76540914
0.75242294
0.73951628
0.72668397
0.71392116
0.70122334
0.68858628
0.67600605
0.66347896
0.65100157
0.63857064
0.62618317
0.61383633
0.60152748
0.58925415
0.57701404
0.56480499
0.55262498
0.54047214
0.5283447
0.51624101
0.50415952
0.49209878
0.48005743
0.46803421
0.45602795
0.44403754
0.43206197
0.4201003
0.40815162
0.39621511
0.38428998
0.3723755
0.36047098
0.3485758
0.33668938
0.32481119
0.31294072
0.30107753
0.28922118
0.27737123
0.26552728
0.25368896
0.2418559
0.23002778
0.2182043
0.20638518
0.19457016
0.18275896
0.17095132
0.15914696
0.14734563
0.13554706
0.12375104
0.11195735
0.10016581
0.088376224
0.076588429
0.064802239
0.0530175
0.041234039
0.029451704
0.017670335
0.0058896706
1.5582823
1.5033533
1.4424008
1.3908331
1.347563
1.3085947
1.2730085
1.2412358
1.2132749
1.1884971
1.1660952
1.1453938
1.1259122
1.1073242
1.0894106
1.0720258
1.055074
1.0384926
1.0222399
1.0062864
0.99060939
0.97518984
0.96001099
0.94505732
0.93031426
0.91576804
0.90140564
0.88721477
0.87318394
0.85930236
0.84555999
0.83194748
0.81845611
0.80507782
0.79180506
0.77863085
0.76554868
0.75255249
0.73963662
0.72679582
0.71402518
0.70132011
0.68867635
0.6760899
0.66355705
0.65107432
0.63863843
0.62624636
0.61389524
0.60158241
0.58930539
0.57706183
0.56484957
0.55266657
0.54051095
0.52838091
0.5162748
0.50419105
0.49212821
0.4800849
0.46805985
0.45605188
0.44405987
0.4320828
0.42011972
0.40816973
0.39623198
0.3843057
0.37239014
0.3604846
0.34858846
0.33670113
0.32482207
0.31295078
0.30108682
0.28922972
0.27737908
0.26553449
0.25369556
0.24186193
0.23003326
0.21820926
0.20638964
0.19457415
0.18276251
0.17095447
0.15914976
0.1473481
0.13554925
0.12375295
0.11195901
0.10016723
0.088377429
0.076589443
0.064803083
0.053018198
0.041234619
0.029452156
0.017670733
0.0058898198
1.4974611
1.471286
1.4328892
1.3917563
1.352671
1.3160802
1.2817825
1.250065
1.2212089
1.1951078
1.1713538
1.1494638
1.129014
1.1096731
1.0911929
1.0733919
1.05614
1.0393445
1.0229384
1.0068733
0.99111289
0.9756292
0.96039932
0.94540382
0.93062554
0.91604905
0.90166023
0.88744606
0.87339452
0.85949446
0.84573554
0.83210816
0.81860341
0.80521304
0.79192938
0.77874529
0.76565416
0.75264982
0.73972654
0.72687897
0.71410213
0.7013914
0.68874243
0.67615121
0.66361396
0.65112716
0.63868754
0.62629201
0.6139377
0.60162193
0.58934217
0.57709608
0.56488146
0.55269629
0.54053863
0.5284067
0.51629884
0.50421346
0.49214911
0.4801044
0.46807804
0.45606885
0.4440757
0.43209757
0.42013348
0.40818256
0.39624394
0.38431685
0.37240053
0.3604943
0.3485975
0.33670954
0.32482989
0.31295804
0.30109354
0.28923594
0.27738482
0.26553979
0.25370046
0.24186644
0.23003741
0.21821306
0.2063931
0.19457727
0.18276532
0.17095699
0.15915202
0.14735013
0.13555107
0.12375458
0.11196045
0.1001685
0.08837852
0.076590375
0.064803861
0.053018849
0.041235137
0.02945256
0.017670981
0.0058899489
1.4680526
1.4525545
1.4256846
1.3917607
1.3559597
1.3210084
1.2877064
1.2563534
1.2272227
1.2004312
1.1758437
1.1531515
1.1319996
1.1120709
1.0931127
1.074933
1.0573872
1.0403662
1.0237876
1.0075896
0.99172564
0.97615988
0.96086391
0.94581423
0.93099079
0.91637605
0.90195442
0.88771179
0.87363534
0.85971334
0.84593497
0.83229026
0.81877004
0.80536577
0.79206961
0.77887424
0.76577289
0.7527593
0.73982759
0.72697235
0.71418851
0.70147137
0.68881653
0.67621991
0.6636777
0.65118634
0.63874251
0.62634309
0.6139852
0.60166611
0.58938328
0.57713435
0.56491711
0.55272948
0.54056955
0.52843551
0.51632569
0.50423849
0.49217244
0.48012616
0.46809835
0.4560878
0.44409339
0.43211407
0.42014889
0.40819694
0.39625737
0.38432939
0.37241225
0.36050526
0.34860776
0.33671914
0.32483887
0.31296643
0.30110137
0.28924325
0.27739165
0.26554617
0.25370641
0.24187201
0.23004261
0.2182179
0.20639759
0.19458142
0.18276914
0.17096049
0.15915522
0.14735307
0.13555375
0.12375705
0.11196269
0.10017053
0.088380327
0.076591978
0.064805253
0.053020067
0.041236145
0.029453435
0.017671569
0.0058904567
1.455321
1.4433677
1.4211333
1.3908457
1.3569846
1.322989
1.2902914
1.2592858
1.2301885
1.2031766
1.1782495
1.1552
1.1337184
1.1135008
1.0942972
1.075915
1.0582061
1.0410556
1.0243748
1.0080957
0.99216667
0.97654811
0.96120859
0.94612242
0.93126795
0.91662647
0.90218149
0.8879183
0.87382362
0.85988533
0.84609237
0.83243454
0.81890246
0.80548748
0.7921816
0.77897741
0.76586805
0.75284714
0.73990876
0.72704742
0.71425799
0.70153572
0.68887618
0.67627524
0.66372904
0.65123401
0.63878679
0.62638425
0.61402346
0.6017017
0.5894164
0.57716518
0.56494581
0.55275621
0.54059445
0.52845871
0.5163473
0.50425864
0.49219123
0.48014369
0.4681147
0.45610306
0.44410763
0.43212737
0.4201613
0.40820853
0.3962682
0.38433951
0.37242172
0.36051412
0.34861606
0.33672692
0.32484616
0.31297327
0.30110778
0.28924925
0.27739727
0.26555144
0.25371136
0.24187665
0.23004696
0.21822198
0.2064014
0.19458496
0.18277242
0.17096353
0.15915802
0.14735565
0.13555614
0.12375924
0.1119647
0.10017236
0.088381976
0.076593459
0.064806551
0.053021223
0.041237113
0.029454307
0.017672187
0.0058910126
1.455321
1.4433677
1.4211333
1.3908457
1.3569846
1.322989
1.2902914
1.2592858
1.2301885
1.2031766
1.1782495
1.1552
1.1337184
1.1135008
1.0942972
1.075915
1.0582061
1.0410556
1.0243748
1.0080957
0.99216667
0.97654811
0.96120858
0.94612242
0.93126795
0.91662646
0.90218149
0.8879183
0.87382362
0.85988533
0.84609237
0.83243454
0.81890246
0.80548748
0.7921816
0.77897741
0.76586805
0.75284713
0.73990876
0.72704742
0.71425799
0.70153573
0.68887618
0.67627523
0.66372904
0.651234
0.63878678
0.62638425
0.61402346
0.6017017
0.58941641
0.57716518
0.56494581
0.55275621
0.54059445
0.52845871
0.5163473
0.50425864
0.49219123
0.48014369
0.4681147
0.45610306
0.44410763
0.43212737
0.4201613
0.40820853
0.3962682
0.38433951
0.37242173
0.36051413
0.34861607
0.33672693
0.32484617
0.31297327
0.30110778
0.28924925
0.27739728
0.26555145
0.25371137
0.24187666
0.23004698
0.21822199
0.2064014
0.19458496
0.18277242
0.17096352
0.15915802
0.14735565
0.13555614
0.12375924
0.11196471
0.10017236
0.088381973
0.076593451
0.064806538
0.053021211
0.0412371
0.0294543
0.017672183
0.0058910111
1.4680526
1.4525545
1.4256846
1.3917607
1.3559597
1.3210084
1.2877064
1.2563534
1.2272227
1.2004312
1.1758437
1.1531515
1.1319996
1.1120709
1.0931127
1.074933
1.0573872
1.0403662
1.0237876
1.0075896
0.99172564
0.97615988
0.96086391
0.94581422
0.93099078
0.91637605
0.90195441
0.88771179
0.87363535
0.85971334
0.84593497
0.83229027
0.81877003
0.80536577
0.7920696
0.77887423
0.76577289
0.75275929
0.73982759
0.72697236
0.71418852
0.70147137
0.68881653
0.67621991
0.6636777
0.65118633
0.6387425
0.62634309
0.6139852
0.60166612
0.58938329
0.57713436
0.56491711
0.55272948
0.54056955
0.52843551
0.51632568
0.50423849
0.49217245
0.48012617
0.46809836
0.45608781
0.44409339
0.43211408
0.42014889
0.40819694
0.39625737
0.3843294
0.37241227
0.36050529
0.34860779
0.33671917
0.32483889
0.31296644
0.30110138
0.28924325
0.27739166
0.26554619
0.25370645
0.24187205
0.23004265
0.21821793
0.2063976
0.19458141
0.18276912
0.17096047
0.15915521
0.14735306
0.13555376
0.12375706
0.11196271
0.10017053
0.088380313
0.07659195
0.064805214
0.053020026
0.041236111
0.029453412
0.017671558
0.0058904542
1.4974611
1.471286
1.4328892
1.3917563
1.352671
1.3160802
1.2817825
1.250065
1.2212089
1.1951078
1.1713538
1.1494638
1.129014
1.1096731
1.0911929
1.0733919
1.05614
1.0393445
1.0229384
1.0068733
0.99111289
0.9756292
0.96039932
0.94540381
0.93062554
0.91604905
0.90166023
0.88744606
0.87339453
0.85949447
0.84573554
0.83210816
0.81860341
0.80521303
0.79192937
0.77874528
0.76565415
0.75264982
0.73972654
0.72687898
0.71410214
0.7013914
0.68874243
0.6761512
0.66361395
0.65112715
0.63868753
0.62629201
0.61393771
0.60162194
0.58934218
0.57709609
0.56488147
0.55269628
0.54053862
0.5284067
0.51629884
0.50421347
0.49214912
0.48010442
0.46807806
0.45606886
0.4440757
0.43209756
0.42013348
0.40818256
0.39624395
0.38431687
0.37240057
0.36049434
0.34859754
0.33670957
0.3248299
0.31295804
0.30109353
0.28923594
0.27738484
0.26553983
0.25370051
0.2418665
0.23003746
0.21821308
0.20639309
0.19457724
0.18276528
0.17095696
0.159152
0.14735013
0.13555108
0.1237546
0.11196046
0.10016848
0.088378481
0.076590319
0.064803797
0.05301879
0.041235094
0.029452536
0.017670972
0.0058899476
1.5582823
1.5033533
1.4424008
1.3908331
1.347563
1.3085947
1.2730085
1.2412358
1.2132749
1.1884971
1.1660952
1.1453938
1.1259122
1.1073242
1.0894106
1.0720258
1.055074
1.0384926
1.0222399
1.0062864
0.99060939
0.97518984
0.96001098
0.94505731
0.93031426
0.91576804
0.90140564
0.88721478
0.87318395
0.85930237
0.84555999
0.83194747
0.81845611
0.80507781
0.79180505
0.77863085
0.76554868
0.75255249
0.73963663
0.72679583
0.71402518
0.70132011
0.68867634
0.67608989
0.66355704
0.65107431
0.63863843
0.62624636
0.61389525
0.60158243
0.5893054
0.57706183
0.56484957
0.55266657
0.54051094
0.5283809
0.5162748
0.50419106
0.49212823
0.48008492
0.46805987
0.45605188
0.44405986
0.43208279
0.42011971
0.40816973
0.396232
0.38430573
0.37239018
0.36048464
0.34858849
0.33670114
0.32482206
0.31295077
0.3010868
0.28922972
0.2773791
0.26553453
0.2536956
0.24186196
0.23003327
0.21820924
0.2063896
0.19457409
0.18276246
0.17095444
0.15914974
0.1473481
0.13554925
0.12375295
0.11195899
0.10016719
0.088377367
0.076589369
0.06480301
0.053018142
0.041234589
0.029452147
0.017670729
0.0058898173
1.675502
1.5544241
1.4584437
1.3947876
1.346278
1.303806
1.2662708
1.234099
1.2066986
1.1828611
1.1614667
1.1417029
1.1230258
1.1050862
1.0876709
1.0706567
1.0539758
1.0375917
1.0214835
1.0056376
0.99004257
0.97468745
0.95956075
0.94465051
0.9299445
0.91543051
0.90109655
0.88693106
0.872923
0.859062
0.84533828
0.83174272
0.81826681
0.80490263
0.79164279
0.77848043
0.76540914
0.75242295
0.73951629
0.72668398
0.71392117
0.70122334
0.68858628
0.67600604
0.66347895
0.65100156
0.63857065
0.62618318
0.61383634
0.60152749
0.58925416
0.57701404
0.56480498
0.55262498
0.54047214
0.5283447
0.51624102
0.50415953
0.49209879
0.48005744
0.46803422
0.45602794
0.44403753
0.43206196
0.42010029
0.40815163
0.39621514
0.38429002
0.37237553
0.36047101
0.34857581
0.33668937
0.32481117
0.3129407
0.30107753
0.28922118
0.27737125
0.26552732
0.25368899
0.24185592
0.23002777
0.21820427
0.20638513
0.1945701
0.18275891
0.17095129
0.15914695
0.14734563
0.13554706
0.12375103
0.11195732
0.10016576
0.088376161
0.07658836
0.064802178
0.053017461
0.041234025
0.029451695
0.01767032
0.0058896618
)
;

boundaryField
{
    top
    {
        type            zeroGradient;
    }
    inlet
    {
        type            zeroGradient;
    }
    outlet
    {
        type            fixedValue;
        value           uniform 0;
    }
    bottom
    {
        type            zeroGradient;
    }
    back
    {
        type            empty;
    }
    front
    {
        type            empty;
    }
}


// ************************************************************************* //
