/*--------------------------------*- C++ -*----------------------------------*\
  =========                 |
  \\      /  F ield         | OpenFOAM: The Open Source CFD Toolbox
   \\    /   O peration     | Website:  https://openfoam.org
    \\  /    A nd           | Version:  9
     \\/     M anipulation  |
\*---------------------------------------------------------------------------*/
FoamFile
{
    format      ascii;
    class       surfaceScalarField;
    location    "9";
    object      phi;
}
// * * * * * * * * * * * * * * * * * * * * * * * * * * * * * * * * * * * * * //

dimensions      [0 3 -1 0 0 0 0];

internalField   nonuniform List<scalar> 
1890
(
0.0093061957
0.00069380425
0.0082843931
0.0010218027
0.0073298986
0.00095449449
0.0064869553
0.00084294334
0.0057695845
0.0007173708
0.00518986
0.00057972444
0.004738168
0.00045169205
0.00439519
0.00034297801
0.0041390268
0.00025616318
0.003949107
0.00018991983
0.003807888
0.00014121897
0.0037013782
0.00010650979
0.003619058
8.2320217e-05
0.0035534117
6.5646242e-05
0.0034992845
5.4127254e-05
0.0034532444
4.6040051e-05
0.0034130501
4.0194297e-05
0.0033772574
3.5792761e-05
0.0033449386
3.2318761e-05
0.0033154894
2.9449278e-05
0.0032885008
2.6988569e-05
0.0032636805
2.4820291e-05
0.003240805
2.2875473e-05
0.0032196926
2.1112416e-05
0.0032001879
1.9504662e-05
0.0031821539
1.8034031e-05
0.0031654671
1.6686745e-05
0.0031500158
1.545138e-05
0.0031356979
1.4317871e-05
0.0031224209
1.3277069e-05
0.0031101003
1.2320578e-05
0.0030986596
1.1440702e-05
0.0030880291
1.0630418e-05
0.0030781458
9.8833583e-06
0.003068952
9.1937787e-06
0.0030603955
8.5565175e-06
0.0030524285
7.9669496e-06
0.0030450076
7.4209351e-06
0.0030380928
6.9147686e-06
0.0030316477
6.4451311e-06
0.0030256387
6.0090421e-06
0.0030200349
5.60382e-06
0.0030148078
5.2270431e-06
0.0030099313
4.8765178e-06
0.003005381
4.5502519e-06
0.0030011346
4.2464292e-06
0.0029971712
3.9633932e-06
0.0029934715
3.6996285e-06
0.0029900178
3.4537474e-06
0.0029867934
3.2244783e-06
0.0029837827
3.0106516e-06
0.0029809715
2.8111914e-06
0.0029783464
2.6251026e-06
0.0029758949
2.4514635e-06
0.0029736055
2.2894178e-06
0.0029714673
2.1381677e-06
0.0029694703
1.996972e-06
0.0029676052
1.865141e-06
0.0029658632
1.7420343e-06
0.0029642362
1.6270603e-06
0.0029627165
1.5196664e-06
0.0029612972
1.419342e-06
0.0029599716
1.3256036e-06
0.0029587335
1.2379978e-06
0.0029575774
1.1560904e-06
0.0029564979
1.0794722e-06
0.0029554902
1.0077512e-06
0.0029545497
9.4056767e-07
0.0029536722
8.775788e-07
0.0029528539
8.1848339e-07
0.002952091
7.6299022e-07
0.0029513803
7.1084725e-07
0.0029507185
6.6180184e-07
0.0029501029
6.1562951e-07
0.0029495309
5.7210209e-07
0.0029490001
5.3102008e-07
0.0029485081
4.921879e-07
0.002948053
4.5545429e-07
0.0029476327
4.2067733e-07
0.0029472453
3.8776646e-07
0.002946889
3.566335e-07
0.0029465621
3.2721883e-07
0.0029462629
2.9945936e-07
0.0029459898
2.7328594e-07
0.0029457415
2.4864415e-07
0.0029455165
2.2545227e-07
0.0029453133
2.0369093e-07
0.0029451305
1.8328135e-07
0.0029449668
1.6428134e-07
0.0029448206
1.4657502e-07
0.0029446907
1.3032158e-07
0.0029445757
1.1524938e-07
0.0029444743
1.0167837e-07
0.0029443855
8.9039613e-08
0.0029443077
7.8014113e-08
0.0029442404
6.7547339e-08
0.0029441817
5.8963257e-08
0.0029441319
5.0399191e-08
0.0029440881
4.43448e-08
3.8445085e-08
0.010339525
0.00035427932
0.010570754
0.00079057335
0.010606301
0.00091894821
0.010547572
0.00090167137
0.010422317
0.00084262624
0.010244356
0.00075768559
0.010039421
0.00065662744
0.0098287427
0.00055365586
0.009625135
0.00045977083
0.0094353013
0.00037975354
0.0092624277
0.00031409258
0.0091075332
0.00026140425
0.008970154
0.00021969948
0.0088489024
0.00018689786
0.0087419716
0.00016105802
0.0086474927
0.00014051895
0.008563694
0.00012399297
0.0084890107
0.00011047601
0.0084221096
9.9219871e-05
0.0083618775
8.9681398e-05
0.0083073955
8.1470657e-05
0.0082579079
7.4307834e-05
0.0082127929
6.7990487e-05
0.0081715353
6.2369989e-05
0.0081337049
5.7335025e-05
0.0080989388
5.2800205e-05
0.0080669272
4.8698292e-05
0.0080374036
4.4974979e-05
0.0080101361
4.1585406e-05
0.0079849213
3.8491849e-05
0.0079615798
3.5662144e-05
0.0079399519
3.3068592e-05
0.0079198952
3.0687154e-05
0.0079012817
2.8496843e-05
0.0078839962
2.6479253e-05
0.0078679345
2.4618177e-05
0.0078530021
2.2899292e-05
0.0078391132
2.1309899e-05
0.0078261892
1.9838706e-05
0.0078141588
1.8475635e-05
0.0078029562
1.7211668e-05
0.0077925213
1.6038708e-05
0.0077827989
1.4949458e-05
0.0077737381
1.3937326e-05
0.0077652919
1.2996336e-05
0.0077574173
1.2121057e-05
0.0077500741
1.1306537e-05
0.0077432255
1.0548259e-05
0.0077368371
9.8420877e-06
0.0077308774
9.1842357e-06
0.0077253169
8.5712272e-06
0.0077201283
7.9998655e-06
0.0077152862
7.4672056e-06
0.0077107671
6.9705289e-06
0.0077065491
6.507318e-06
0.007702612
6.0752411e-06
0.0076989368
5.6721312e-06
0.0076955059
5.295977e-06
0.007692303
4.9449095e-06
0.007689313
4.6171914e-06
0.0076865215
4.3112097e-06
0.0076839154
4.0254598e-06
0.0076814824
3.7585382e-06
0.0076792112
3.5091285e-06
0.0076770911
3.2759907e-06
0.0076751125
3.057957e-06
0.0076732662
2.8539258e-06
0.0076715438
2.6628613e-06
0.0076699375
2.4838009e-06
0.0076684402
2.3158443e-06
0.007667045
2.1581698e-06
0.0076657457
2.0100099e-06
0.0076645367
1.8706654e-06
0.0076634125
1.7394805e-06
0.0076623685
1.6158534e-06
0.0076613999
1.4992215e-06
0.0076605028
1.3890837e-06
0.0076596731
1.2849804e-06
0.0076589072
1.1865372e-06
0.0076582016
1.0934171e-06
0.0076575528
1.005375e-06
0.0076569577
9.221768e-07
0.0076564132
8.4366382e-07
0.0076559165
7.6964111e-07
0.0076554649
7.0000082e-07
0.0076550556
6.3453177e-07
0.007654686
5.7320878e-07
0.0076543536
5.1576883e-07
0.0076540557
4.6236263e-07
0.0076537898
4.125729e-07
0.0076535534
3.6686173e-07
0.0076533442
3.2436715e-07
0.0076531597
2.8616538e-07
0.0076529983
2.5036267e-07
0.0076528567
2.1948999e-07
0.0076527347
1.8940127e-07
0.0076526276
1.6610208e-07
0.0076525381
1.4019734e-07
0.007652457
1.2604414e-07
1.0047201e-07
0.010188704
0.00016557515
0.010530487
0.000448791
0.010851453
0.00059798177
0.011124174
0.00062895025
0.011350581
0.00061621887
0.011524486
0.00058378055
0.01164633
0.00053478421
0.011724155
0.00047583049
0.011767999
0.00041592665
0.011786639
0.000361114
0.011787114
0.00031361712
0.011775058
0.00027346026
0.011754861
0.00023989719
0.011729768
0.00021199031
0.011702054
0.00018877261
0.011673239
0.00016933388
0.011644339
0.00015289296
0.011616003
0.00013881183
0.011588629
0.00012659379
0.011562446
0.00011586445
0.011537572
0.00010634494
0.011514052
9.7826997e-05
0.01149189
9.015336e-05
0.011471056
8.3203368e-05
0.011451509
7.6882621e-05
0.011433193
7.1115575e-05
0.011416051
6.5840311e-05
0.011400021
6.1004928e-05
0.011385041
5.6565086e-05
0.011371051
5.2482348e-05
0.01135799
4.872303e-05
0.011345801
4.5257386e-05
0.01133443
4.2058992e-05
0.011323822
3.9104276e-05
0.011313929
3.6372137e-05
0.011304704
3.3843636e-05
0.011296101
3.1501732e-05
0.01128808
2.9331062e-05
0.011280601
2.7317744e-05
0.011273627
2.5449213e-05
0.011267125
2.3714074e-05
0.011261062
2.210197e-05
0.011255408
2.0603471e-05
0.011250135
1.9209972e-05
0.011245218
1.7913609e-05
0.011240632
1.6707177e-05
0.011236354
1.5584071e-05
0.011232364
1.4538222e-05
0.011228642
1.3564049e-05
0.01122517
1.2656415e-05
0.011221931
1.1810586e-05
0.011218909
1.1022195e-05
0.011216089
1.0287209e-05
0.011213457
9.6018941e-06
0.011211002
8.9627943e-06
0.01120871
8.3666997e-06
0.011206572
7.8106304e-06
0.011204576
7.291813e-06
0.011202713
6.8076702e-06
0.011200974
6.3558027e-06
0.011199352
5.9339777e-06
0.011197837
5.5401163e-06
0.011196423
5.1722766e-06
0.011195104
4.828643e-06
0.011193872
4.5075114e-06
0.011192723
4.2072781e-06
0.01119165
3.9264363e-06
0.011190649
3.6635676e-06
0.011189715
3.4173455e-06
0.011188845
3.1865345e-06
0.011188033
2.9699853e-06
0.011187276
2.766641e-06
0.011186571
2.5755192e-06
0.011185915
2.3957191e-06
0.011185304
2.2264037e-06
0.011184736
2.066804e-06
0.011184208
1.9162172e-06
0.011183719
1.7740099e-06
0.011183266
1.6396269e-06
0.011182847
1.5125887e-06
0.011182459
1.3925011e-06
0.011182103
1.27902e-06
0.011181774
1.171892e-06
0.011181473
1.0708345e-06
0.011181197
9.7570413e-07
0.011180945
8.8619153e-07
0.011180716
8.0229414e-07
0.011180508
7.2358379e-07
0.01118032
6.5034519e-07
0.011180151
5.818249e-07
0.011179999
5.1891276e-07
0.011179864
4.5998515e-07
0.011179743
4.0725392e-07
0.011179636
3.5700068e-07
0.011179541
3.1451761e-07
0.011179459
2.7134399e-07
0.011179385
2.3989551e-07
0.011179325
2.0112754e-07
0.011179268
1.8323887e-07
1.4551904e-07
0.010097182
6.8393556e-05
0.010346961
0.00019901112
0.010662469
0.00028247387
0.010982753
0.00030866649
0.011290229
0.00030874342
0.011575251
0.00029875788
0.011829022
0.00028101346
0.012047865
0.00025698755
0.012233272
0.00023051982
0.01238924
0.0002051459
0.012520295
0.00018256236
0.012630755
0.00016299957
0.012724428
0.00014622491
0.012804515
0.00013190312
0.012873613
0.00011967426
0.012933772
0.00010917461
0.012986596
0.00010006907
0.013033332
9.2076367e-05
0.01307495
8.4975255e-05
0.013112216
7.8598617e-05
0.013145739
7.2822307e-05
0.013176012
6.7553941e-05
0.013203441
6.2723927e-05
0.013228366
5.82789e-05
0.013251071
5.4176993e-05
0.013271802
5.0384441e-05
0.01329077
4.6873176e-05
0.013308155
4.3619194e-05
0.013324119
4.0601476e-05
0.0133388
3.7801295e-05
0.013352321
3.5201766e-05
0.013364791
3.2787542e-05
0.013376306
3.0544606e-05
0.01338695
2.8460106e-05
0.0133968
2.6522244e-05
0.013405923
2.4720165e-05
0.013414381
2.3043877e-05
0.013422228
2.1484182e-05
0.013429513
2.0032598e-05
0.013436281
1.8681307e-05
0.013442572
1.7423097e-05
0.013448422
1.6251311e-05
0.013453866
1.5159799e-05
0.013458933
1.4142874e-05
0.013463652
1.3195278e-05
0.013468047
1.2312142e-05
0.013472142
1.1488953e-05
0.013475958
1.0721533e-05
0.013479516
1.0006007e-05
0.013482834
9.3387831e-06
0.013485928
8.7165296e-06
0.013488814
8.1361535e-06
0.013491507
7.5947853e-06
0.013494019
7.0897554e-06
0.013496363
6.6185815e-06
0.013498551
6.1789525e-06
0.013500593
5.7687125e-06
0.013502498
5.3858552e-06
0.013504278
5.0285071e-06
0.013505938
4.6949232e-06
0.013507489
4.383478e-06
0.013508937
4.0926507e-06
0.013510288
3.8210249e-06
0.013511549
3.5672698e-06
0.013512726
3.3301382e-06
0.013513825
3.1084575e-06
0.01351485
2.9011224e-06
0.013515807
2.7070972e-06
0.013516698
2.5254116e-06
0.01351753
2.3551557e-06
0.013518304
2.1954934e-06
0.013519025
2.0456352e-06
0.013519696
1.9048661e-06
0.013520319
1.7725087e-06
0.013520897
1.6479485e-06
0.013521433
1.5306076e-06
0.013521929
1.419966e-06
0.013522387
1.3155413e-06
0.01352281
1.216925e-06
0.013523199
1.1237337e-06
0.013523556
1.0356829e-06
0.013523882
9.5247854e-07
0.01352418
8.739409e-07
0.013524451
7.9982327e-07
0.013524697
7.3002992e-07
0.013524918
6.6429425e-07
0.013525118
6.0264657e-07
0.013525297
5.4470144e-07
0.013525456
4.9076512e-07
0.013525598
4.401201e-07
0.013525724
3.9366746e-07
0.013525834
3.4983916e-07
0.013525931
3.1083218e-07
0.013526015
2.7307721e-07
0.013526088
2.4170644e-07
0.01352615
2.0872891e-07
0.013526204
1.8573214e-07
0.01352625
1.5543175e-07
0.013526291
1.4273776e-07
1.1391304e-07
0.010068394
-9.2614904e-14
0.010267405
-4.7548645e-16
0.010549879
9.2137343e-14
0.010858545
2.5081367e-13
0.011167288
4.2911061e-13
0.011466046
5.5819608e-13
0.01174706
5.9140974e-13
0.012004047
4.8782276e-13
0.012234567
2.917699e-13
0.012439713
1.7085777e-13
0.012622275
1.607335e-13
0.012785275
4.8005888e-13
0.0129315
1.0576168e-12
0.013063403
1.7755389e-12
0.013183077
2.4722744e-12
0.013292252
2.7446336e-12
0.013392321
2.5398279e-12
0.013484397
1.8185571e-12
0.013569373
7.8979684e-13
0.013647971
2.2195264e-13
0.013720794
3.2228252e-13
0.013788347
1.775285e-12
0.013851071
4.3333645e-12
0.01390935
7.4084758e-12
0.013963527
1.0399485e-11
0.014013912
1.20833e-11
0.014060785
1.2272763e-11
0.014104404
1.095686e-11
0.014145005
8.7336691e-12
0.014182807
7.2374571e-12
0.014218009
7.0659409e-12
0.014250796
9.6150955e-12
0.014281341
1.4526096e-11
0.014309801
2.1074848e-11
0.014336323
2.8137226e-11
0.014361043
3.3515451e-11
0.014384087
3.6612591e-11
0.014405571
3.6618886e-11
0.014425604
3.4368333e-11
0.014444285
3.1988294e-11
0.014461708
3.0780316e-11
0.014477959
3.3211937e-11
0.014493119
3.9191195e-11
0.014507262
4.8043249e-11
0.014520457
5.8121523e-11
0.014532769
6.6308766e-11
0.014544258
7.142838e-11
0.014554979
7.2039955e-11
0.014564985
6.8876928e-11
0.014574324
6.4271428e-11
0.014583041
5.9822238e-11
0.014591177
5.8700538e-11
0.014598771
6.1041404e-11
0.014605861
6.6390475e-11
0.01461248
7.2839252e-11
0.014618659
7.6209745e-11
0.014624427
7.4797754e-11
0.014629813
6.6236921e-11
0.014634841
5.163703e-11
0.014639536
3.4188676e-11
0.01464392
1.6515548e-11
0.014648012
3.4639488e-12
0.014651833
-4.5709239e-12
0.014655401
-1.3687321e-11
0.014658731
-2.1836929e-11
0.014661839
-3.7863155e-11
0.01466474
-6.2135788e-11
0.014667447
-9.6890778e-11
0.014669973
-1.3792208e-10
0.014672328
-1.7906929e-10
0.014674524
-2.145865e-10
0.01467657
-2.3962329e-10
0.014678475
-2.5226856e-10
0.014680248
-2.5823168e-10
0.014681896
-2.5971894e-10
0.014683427
-2.6774214e-10
0.014684847
-2.8273178e-10
0.014686163
-3.0618149e-10
0.01468738
-3.3248121e-10
0.014688504
-3.5057571e-10
0.01468954
-3.5415955e-10
0.014690493
-3.3562207e-10
0.014691367
-2.9636944e-10
0.014692168
-2.4523309e-10
0.014692898
-1.9011683e-10
0.014693562
-1.4484692e-10
0.014694165
-1.1261422e-10
0.014694709
-9.2958901e-11
0.0146952
-8.0128572e-11
0.01469564
-6.4140844e-11
0.014696034
-3.4102304e-11
0.014696384
7.3183665e-12
0.014696695
6.550917e-11
0.014696968
1.1782625e-10
0.01469721
1.8029898e-10
0.014697418
2.1041464e-10
0.014697603
2.4965262e-10
0.014697758
2.4574295e-10
0.014697901
2.4229519e-10
2.4851796e-10
0.010068394
-6.8393556e-05
0.010267405
-0.00019901112
0.010549879
-0.00028247387
0.010858545
-0.00030866649
0.011167288
-0.00030874342
0.011466046
-0.00029875788
0.01174706
-0.00028101346
0.012004047
-0.00025698755
0.012234567
-0.00023051982
0.012439713
-0.0002051459
0.012622275
-0.00018256236
0.012785275
-0.00016299957
0.0129315
-0.00014622491
0.013063403
-0.00013190312
0.013183077
-0.00011967426
0.013292252
-0.0001091746
0.013392321
-0.00010006906
0.013484397
-9.2076364e-05
0.013569373
-8.4975255e-05
0.013647971
-7.8598617e-05
0.013720794
-7.2822306e-05
0.013788347
-6.7553937e-05
0.013851071
-6.2723917e-05
0.01390935
-5.8278884e-05
0.013963527
-5.4176972e-05
0.014013912
-5.0384418e-05
0.014060785
-4.6873154e-05
0.014104404
-4.3619175e-05
0.014145005
-4.0601462e-05
0.014182807
-3.7801283e-05
0.014218009
-3.5201753e-05
0.014250796
-3.2787523e-05
0.014281341
-3.0544575e-05
0.014309801
-2.8460063e-05
0.014336323
-2.6522189e-05
0.014361043
-2.4720101e-05
0.014384087
-2.3043811e-05
0.014405571
-2.1484118e-05
0.014425604
-2.0032538e-05
0.014444285
-1.8681252e-05
0.014461708
-1.7423042e-05
0.014477959
-1.6251249e-05
0.014493119
-1.5159723e-05
0.014507262
-1.4142781e-05
0.014520457
-1.3195167e-05
0.014532769
-1.2312017e-05
0.014544258
-1.1488822e-05
0.01455498
-1.0721404e-05
0.014564985
-1.0005886e-05
0.014574324
-9.3386718e-06
0.014583041
-8.7164244e-06
0.014591177
-8.1360475e-06
0.014598772
-7.5946719e-06
0.014605861
-7.0896297e-06
0.01461248
-6.6184452e-06
0.014618659
-6.1788123e-06
0.014624427
-5.7685804e-06
0.014629813
-5.3857433e-06
0.014634842
-5.0284253e-06
0.014639536
-4.6948739e-06
0.01464392
-4.3834586e-06
0.014648013
-4.0926515e-06
0.014651834
-3.8210407e-06
0.014655401
-3.5672962e-06
0.014658731
-3.3301843e-06
0.01466184
-3.1085354e-06
0.014664741
-2.9012544e-06
0.014667448
-2.7072967e-06
0.014669973
-2.5256905e-06
0.014672328
-2.3555049e-06
0.014674524
-2.1959027e-06
0.01467657
-2.0460769e-06
0.014678475
-1.9053274e-06
0.014680248
-1.7729717e-06
0.014681896
-1.6484219e-06
0.014683427
-1.5310974e-06
0.014684847
-1.4204957e-06
0.014686162
-1.3161155e-06
0.01468738
-1.2175483e-06
0.014688504
-1.1243792e-06
0.01468954
-1.0363235e-06
0.014690493
-9.5306659e-07
0.014691367
-8.7445012e-07
0.014692167
-8.0023056e-07
0.014692897
-7.3034471e-07
0.014693561
-6.6453296e-07
0.014694164
-6.0283869e-07
0.014694709
-5.4486542e-07
0.014695199
-4.9090741e-07
0.01469564
-4.402275e-07
0.014696034
-3.9371231e-07
0.014696384
-3.4979404e-07
0.014696694
-3.1068028e-07
0.014696967
-2.728153e-07
0.014697209
-2.413529e-07
0.014697417
-2.083029e-07
0.014697603
-1.8529126e-07
0.014697758
-1.5497229e-07
0.014697901
-1.4228963e-07
-1.1347205e-07
0.010097182
-0.00016557515
0.010346961
-0.000448791
0.010662469
-0.00059798177
0.010982753
-0.00062895025
0.011290229
-0.00061621886
0.011575251
-0.00058378055
0.011829022
-0.0005347842
0.012047865
-0.00047583049
0.012233272
-0.00041592665
0.01238924
-0.000361114
0.012520295
-0.00031361712
0.012630755
-0.00027346026
0.012724428
-0.00023989718
0.012804515
-0.00021199031
0.012873613
-0.0001887726
0.012933772
-0.00016933388
0.012986596
-0.00015289296
0.013033332
-0.00013881183
0.01307495
-0.00012659379
0.013112216
-0.00011586445
0.013145739
-0.00010634493
0.013176012
-9.782699e-05
0.013203441
-9.0153347e-05
0.013228366
-8.3203351e-05
0.013251071
-7.6882602e-05
0.013271803
-7.1115558e-05
0.01329077
-6.5840299e-05
0.013308155
-6.1004921e-05
0.013324119
-5.6565082e-05
0.0133388
-5.2482342e-05
0.013352321
-4.8723018e-05
0.013364791
-4.5257364e-05
0.013376306
-4.2058958e-05
0.01338695
-3.9104232e-05
0.0133968
-3.6372088e-05
0.013405923
-3.3843587e-05
0.013414381
-3.1501688e-05
0.013422228
-2.9331024e-05
0.013429513
-2.731771e-05
0.013436281
-2.544918e-05
0.013442572
-2.3714033e-05
0.013448423
-2.2101916e-05
0.013453866
-2.06034e-05
0.013458934
-1.9209885e-05
0.013463652
-1.7913512e-05
0.013468047
-1.6707079e-05
0.013472142
-1.5583979e-05
0.013475959
-1.453814e-05
0.013479517
-1.3563976e-05
0.013482834
-1.2656347e-05
0.013485929
-1.1810515e-05
0.013488815
-1.1022114e-05
0.013491507
-1.0287113e-05
0.013494019
-9.6017866e-06
0.013496364
-8.9626839e-06
0.013498551
-8.3665978e-06
0.013500593
-7.8105492e-06
0.013502499
-7.2917598e-06
0.013504278
-6.807644e-06
0.013505939
-6.3557984e-06
0.01350749
-5.9339821e-06
0.013508937
-5.540123e-06
0.013510289
-5.1722818e-06
0.01351155
-4.8286553e-06
0.013512727
-4.5075467e-06
0.013513826
-4.207356e-06
0.013514851
-3.9265714e-06
0.013515807
-3.6637678e-06
0.013516699
-3.4175976e-06
0.01351753
-3.1868255e-06
0.013518305
-2.9702848e-06
0.013519026
-2.7669382e-06
0.013519696
-2.5758031e-06
0.013520319
-2.3960032e-06
0.013520897
-2.2267043e-06
0.013521433
-2.0671456e-06
0.013521929
-1.9166057e-06
0.013522387
-1.7744464e-06
0.013522809
-1.6400777e-06
0.013523198
-1.5130291e-06
0.013523555
-1.392884e-06
0.013523881
-1.2793311e-06
0.013524179
-1.1721194e-06
0.01352445
-1.0709989e-06
0.013524695
-9.7582891e-07
0.013524917
-8.8630522e-07
0.013525116
-8.0240665e-07
0.013525295
-7.2369456e-07
0.013525455
-6.504275e-07
0.013525596
-5.8185714e-07
0.013525722
-5.188653e-07
0.013525832
-4.598534e-07
0.013525929
-4.0704202e-07
0.013526013
-3.5672686e-07
0.013526086
-3.142075e-07
0.013526148
-2.7102483e-07
0.013526203
-2.3958549e-07
0.013526248
-2.0085148e-07
0.01352629
-1.8296116e-07
-1.4521438e-07
0.010188704
-0.00035427932
0.010530487
-0.00079057335
0.010851453
-0.00091894821
0.011124174
-0.00090167137
0.011350581
-0.00084262623
0.011524486
-0.00075768559
0.01164633
-0.00065662744
0.011724155
-0.00055365586
0.011767999
-0.00045977083
0.011786639
-0.00037975354
0.011787114
-0.00031409258
0.011775058
-0.00026140425
0.011754861
-0.00021969948
0.011729768
-0.00018689786
0.011702054
-0.00016105802
0.011673239
-0.00014051895
0.011644339
-0.00012399297
0.011616003
-0.00011047601
0.011588629
-9.9219874e-05
0.011562446
-8.9681397e-05
0.011537572
-8.1470651e-05
0.011514052
-7.4307823e-05
0.01149189
-6.7990473e-05
0.011471056
-6.2369976e-05
0.011451509
-5.7335016e-05
0.011433193
-5.2800201e-05
0.011416051
-4.8698294e-05
0.011400021
-4.4974983e-05
0.011385042
-4.1585408e-05
0.011371051
-3.8491843e-05
0.01135799
-3.5662129e-05
0.011345801
-3.3068567e-05
0.01133443
-3.0687121e-05
0.011323822
-2.8496809e-05
0.011313929
-2.6479224e-05
0.011304704
-2.4618157e-05
0.011296101
-2.289928e-05
0.01128808
-2.1309893e-05
0.011280601
-1.9838698e-05
0.011273628
-1.8475618e-05
0.011267125
-1.7211638e-05
0.011261062
-1.6038661e-05
0.011255408
-1.4949399e-05
0.011250136
-1.3937263e-05
0.011245218
-1.2996277e-05
0.011240632
-1.2121009e-05
0.011236355
-1.1306503e-05
0.011232365
-1.0548235e-05
0.011228643
-9.8420671e-06
0.011225171
-9.1842082e-06
0.011221931
-8.571185e-06
0.011218909
-7.9998065e-06
0.011216089
-7.4671344e-06
0.011213458
-6.9704563e-06
0.011211002
-6.507257e-06
0.011208711
-6.0752022e-06
0.011206572
-5.6721184e-06
0.011204576
-5.2959859e-06
0.011202714
-4.9449281e-06
0.011200975
-4.6172067e-06
0.011199353
-4.3112103e-06
0.011197838
-4.0254467e-06
0.011196424
-3.7585194e-06
0.011195105
-3.5091243e-06
0.011193873
-3.2760181e-06
0.011192723
-3.0580314e-06
0.011191651
-2.854044e-06
0.01119065
-2.6630124e-06
0.011189716
-2.4839558e-06
0.011188845
-2.3159839e-06
0.011188033
-2.1582728e-06
0.011187276
-2.0100853e-06
0.011186571
-1.8707239e-06
0.011185915
-1.7395576e-06
0.011185303
-1.6159666e-06
0.011184735
-1.4993889e-06
0.011184207
-1.3892857e-06
0.011183718
-1.2851959e-06
0.011183265
-1.186719e-06
0.011182845
-1.0935423e-06
0.011182458
-1.0054218e-06
0.011182101
-9.2216435e-07
0.011181772
-8.4361593e-07
0.011181471
-7.6960104e-07
0.011181195
-6.9999148e-07
0.011180942
-6.3456407e-07
0.011180713
-5.7326333e-07
0.011180505
-5.1581627e-07
0.011180317
-4.6236777e-07
0.011180149
-4.125158e-07
0.011179997
-3.6674069e-07
0.011179862
-3.2419805e-07
0.011179741
-2.8597187e-07
0.011179634
-2.5017079e-07
0.011179539
-2.1932536e-07
0.011179457
-1.8929575e-07
0.011179383
-1.6604979e-07
0.011179323
-1.4014795e-07
0.011179267
-1.2594321e-07
-1.0030962e-07
0.010339525
-0.00069380425
0.010570754
-0.0010218027
0.010606301
-0.00095449449
0.010547572
-0.00084294334
0.010422317
-0.0007173708
0.010244356
-0.00057972444
0.010039421
-0.00045169205
0.0098287427
-0.00034297801
0.009625135
-0.00025616318
0.0094353013
-0.00018991983
0.0092624277
-0.00014121897
0.0091075332
-0.00010650979
0.008970154
-8.2320215e-05
0.0088489024
-6.5646241e-05
0.0087419716
-5.4127255e-05
0.0086474927
-4.6040054e-05
0.008563694
-4.0194301e-05
0.0084890107
-3.5792763e-05
0.0084221097
-3.231876e-05
0.0083618776
-2.9449273e-05
0.0083073955
-2.6988561e-05
0.008257908
-2.4820283e-05
0.0082127929
-2.2875467e-05
0.0081715353
-2.1112414e-05
0.008133705
-1.9504665e-05
0.0080989388
-1.8034038e-05
0.0080669272
-1.6686752e-05
0.0080374036
-1.5451384e-05
0.0080101361
-1.4317869e-05
0.0079849214
-1.3277059e-05
0.0079615799
-1.2320564e-05
0.007939952
-1.1440685e-05
0.0079198953
-1.0630404e-05
0.0079012818
-9.88335e-06
0.0078839963
-9.1937776e-06
0.0078679346
-8.556523e-06
0.0078530022
-7.9669574e-06
0.0078391133
-7.4209401e-06
0.0078261894
-6.9147664e-06
0.007814159
-6.4451185e-06
0.0078029564
-6.0090206e-06
0.0077925216
-5.603793e-06
0.0077827992
-5.2270169e-06
0.0077737384
-4.8764985e-06
0.0077652923
-4.5502423e-06
0.0077574176
-4.24643e-06
0.0077500745
-3.9633995e-06
0.0077432259
-3.6996339e-06
0.0077368376
-3.4537454e-06
0.0077308779
-3.2244639e-06
0.0077253175
-3.0106263e-06
0.0077201289
-2.8111594e-06
0.0077152868
-2.6250729e-06
0.0077107677
-2.4514444e-06
0.0077065498
-2.2894141e-06
0.0077026126
-2.1381797e-06
0.0076989374
-1.9969931e-06
0.0076955066
-1.8651607e-06
0.0076923038
-1.7420444e-06
0.0076893137
-1.6270528e-06
0.0076865223
-1.5196472e-06
0.0076839162
-1.4193171e-06
0.0076814832
-1.3255901e-06
0.0076792118
-1.238005e-06
0.0076770917
-1.1561265e-06
0.0076751129
-1.0795284e-06
0.0076732665
-1.007818e-06
0.0076715441
-9.4061927e-07
0.0076699377
-8.7760978e-07
0.0076684403
-8.184771e-07
0.007667045
-7.6296802e-07
0.0076657456
-7.1081474e-07
0.0076645364
-6.6179364e-07
0.007663412
-6.1564942e-07
0.0076623677
-5.7216311e-07
0.0076613989
-5.3109585e-07
0.0076605016
-4.9226693e-07
0.0076596718
-4.5549468e-07
0.0076589058
-4.2068086e-07
0.0076582001
-3.8771558e-07
0.0076575512
-3.5656433e-07
0.007656956
-3.2714454e-07
0.0076564114
-2.9941842e-07
0.0076559146
-2.7328299e-07
0.0076554627
-2.4868061e-07
0.0076550533
-2.255018e-07
0.0076546837
-2.0373228e-07
0.0076543514
-1.8328761e-07
0.0076540536
-1.6425168e-07
0.0076537879
-1.4651368e-07
0.0076535516
-1.3024918e-07
0.0076533425
-1.15183e-07
0.0076531581
-1.0162968e-07
0.0076529967
-8.9023513e-08
0.0076528551
-7.8047346e-08
0.0076527332
-6.7616641e-08
0.0076526262
-5.9042935e-08
0.007652537
-5.039468e-08
0.0076524561
-4.4263402e-08
-3.8369394e-08
0.0093061957
0.0082843931
0.0073298986
0.0064869553
0.0057695845
0.00518986
0.004738168
0.00439519
0.0041390268
0.003949107
0.003807888
0.0037013782
0.003619058
0.0035534117
0.0034992845
0.0034532444
0.0034130501
0.0033772574
0.0033449386
0.0033154894
0.0032885008
0.0032636805
0.003240805
0.0032196926
0.0032001879
0.0031821539
0.0031654671
0.0031500158
0.0031356979
0.0031224209
0.0031101003
0.0030986596
0.0030880292
0.0030781458
0.003068952
0.0030603955
0.0030524285
0.0030450076
0.0030380929
0.0030316478
0.0030256388
0.003020035
0.003014808
0.0030099314
0.0030053811
0.0030011347
0.0029971713
0.0029934717
0.002990018
0.0029867936
0.002983783
0.0029809718
0.0029783467
0.0029758952
0.0029736057
0.0029714675
0.0029694705
0.0029676054
0.0029658634
0.0029642365
0.0029627168
0.0029612975
0.0029599718
0.0029587337
0.0029575775
0.002956498
0.0029554902
0.0029545497
0.0029536722
0.0029528539
0.002952091
0.0029513801
0.0029507183
0.0029501026
0.0029495305
0.0029489995
0.0029485075
0.0029480524
0.0029476321
0.0029472448
0.0029468884
0.0029465614
0.0029462621
0.002945989
0.0029457406
0.0029455156
0.0029453124
0.0029451297
0.0029449661
0.00294482
0.0029446901
0.0029445752
0.0029444737
0.0029443849
0.0029443071
0.0029442398
0.0029441813
0.0029441316
0.0029440878
)
;

boundaryField
{
    top
    {
        type            calculated;
        value           uniform 0;
    }
    inlet
    {
        type            calculated;
        value           nonuniform List<scalar> 10(-0.01 -0.01 -0.01 -0.01 -0.01 -0.01 -0.01 -0.01 -0.01 -0.01);
    }
    outlet
    {
        type            calculated;
        value           nonuniform List<scalar> 10(0.0029440502 0.0076523956 0.011179224 0.013526323 0.014698015 0.014698015 0.013526322 0.011179223 0.0076523948 0.0029440499);
    }
    bottom
    {
        type            calculated;
        value           uniform 0;
    }
    back
    {
        type            empty;
        value           nonuniform List<scalar> 0();
    }
    front
    {
        type            empty;
        value           nonuniform List<scalar> 0();
    }
}


// ************************************************************************* //
