/*--------------------------------*- C++ -*----------------------------------*\
  =========                 |
  \\      /  F ield         | OpenFOAM: The Open Source CFD Toolbox
   \\    /   O peration     | Website:  https://openfoam.org
    \\  /    A nd           | Version:  9
     \\/     M anipulation  |
\*---------------------------------------------------------------------------*/
FoamFile
{
    format      ascii;
    class       volVectorField;
    location    "9";
    object      U;
}
// * * * * * * * * * * * * * * * * * * * * * * * * * * * * * * * * * * * * * //

dimensions      [0 1 -1 0 0 0 0];

internalField   nonuniform List<vector> 
1000
(
(0.91890839 0.035821913 0)
(0.86271384 0.062195638 0)
(0.7870597 0.06251009 0)
(0.69536033 0.054550395 0)
(0.61089745 0.044531651 0)
(0.54411592 0.034015971 0)
(0.49343012 0.024187539 0)
(0.45479413 0.01614423 0)
(0.42544582 0.010265786 0)
(0.40347313 0.0063041453 0)
(0.38715767 0.0037976295 0)
(0.3749622 0.0023103381 0)
(0.36566193 0.0014930148 0)
(0.35836272 0.0010851182 0)
(0.35244268 0.00090607234 0)
(0.34748201 0.00084105189 0)
(0.34320348 0.00082372439 0)
(0.33942726 0.00081931064 0)
(0.33603793 0.00081185208 0)
(0.33296114 0.00079580111 0)
(0.33014778 0.00077081116 0)
(0.32756384 0.0007387091 0)
(0.3251842 0.000701889 0)
(0.32298902 0.00066256559 0)
(0.32096172 0.00062249983 0)
(0.31908785 0.00058295801 0)
(0.31735449 0.00054477229 0)
(0.31574995 0.00050843479 0)
(0.3142636 0.00047419192 0)
(0.31288574 0.00044212449 0)
(0.31160755 0.00041220892 0)
(0.31042101 0.00038436084 0)
(0.30931883 0.00035846422 0)
(0.30829438 0.00033438989 0)
(0.30734165 0.00031200681 0)
(0.30645515 0.00029118829 0)
(0.30562991 0.00027181536 0)
(0.30486136 0.00025377796 0)
(0.30414535 0.00023697527 0)
(0.30347806 0.00022131525 0)
(0.302856 0.00020671397 0)
(0.30227596 0.00019309483 0)
(0.30173496 0.00018038771 0)
(0.30123029 0.00016852824 0)
(0.30075941 0.0001574572 0)
(0.30032001 0.00014711993 0)
(0.29990992 0.00013746599 0)
(0.29952714 0.00012844875 0)
(0.29916981 0.00012002512 0)
(0.29883622 0.00011215532 0)
(0.29852476 0.00010480248 0)
(0.29823394 9.7932448e-05 0)
(0.29796238 9.151343e-05 0)
(0.29770879 8.5515721e-05 0)
(0.29747196 7.9911509e-05 0)
(0.29725078 7.467463e-05 0)
(0.29704421 6.9780599e-05 0)
(0.29685129 6.5206496e-05 0)
(0.2966711 6.0930933e-05 0)
(0.2965028 5.6934173e-05 0)
(0.29634561 5.3197715e-05 0)
(0.29619879 4.9704521e-05 0)
(0.29606167 4.6438342e-05 0)
(0.2959336 4.33839e-05 0)
(0.29581399 4.0526366e-05 0)
(0.29570231 3.7851657e-05 0)
(0.29559804 3.534609e-05 0)
(0.29550071 3.2997168e-05 0)
(0.29540989 3.0792868e-05 0)
(0.29532518 2.8722934e-05 0)
(0.29524618 2.677737e-05 0)
(0.29517256 2.4947863e-05 0)
(0.29510399 2.3225851e-05 0)
(0.29504018 2.1603852e-05 0)
(0.29498085 2.0073869e-05 0)
(0.29492575 1.8628946e-05 0)
(0.29487466 1.7261946e-05 0)
(0.29482735 1.5967609e-05 0)
(0.29478362 1.4740884e-05 0)
(0.29474327 1.3579101e-05 0)
(0.29470612 1.2479558e-05 0)
(0.29467199 1.1440881e-05 0)
(0.29464072 1.0461243e-05 0)
(0.29461214 9.5384433e-06 0)
(0.2945861 8.6704226e-06 0)
(0.29456247 7.8539639e-06 0)
(0.29454109 7.0880093e-06 0)
(0.29452182 6.3696008e-06 0)
(0.29450452 5.7009073e-06 0)
(0.29448906 5.0782288e-06 0)
(0.29447527 4.5076588e-06 0)
(0.29446306 3.9801688e-06 0)
(0.29445226 3.5066097e-06 0)
(0.29444278 3.0684544e-06 0)
(0.29443447 2.6860895e-06 0)
(0.29442723 2.3305066e-06 0)
(0.29442098 2.0321575e-06 0)
(0.29441549 1.7605135e-06 0)
(0.29441109 1.5429856e-06 0)
(0.29440609 1.4215983e-06 0)
(1.0016583 0.05381943 0)
(1.0359761 0.10128444 0)
(1.0597199 0.11073663 0)
(1.0628947 0.10592202 0)
(1.0515569 0.096228728 0)
(1.0340529 0.083934061 0)
(1.0142795 0.070327063 0)
(0.99360703 0.056981333 0)
(0.97292577 0.045107479 0)
(0.9531074 0.03523675 0)
(0.93479538 0.02740165 0)
(0.91829012 0.021387227 0)
(0.90362379 0.016884499 0)
(0.89068067 0.013569709 0)
(0.87928175 0.011147749 0)
(0.86923242 0.0093736593 0)
(0.86034423 0.0080569289 0)
(0.85244667 0.0070571281 0)
(0.84539241 0.0062752387 0)
(0.83905793 0.0056438283 0)
(0.83334126 0.0051180902 0)
(0.82815884 0.0046686711 0)
(0.82344212 0.0042764162 0)
(0.81913467 0.0039287381 0)
(0.81518962 0.0036172037 0)
(0.81156765 0.0033359714 0)
(0.80823544 0.0030808056 0)
(0.8051644 0.0028484705 0)
(0.80232979 0.0026363703 0)
(0.79970999 0.0024423386 0)
(0.79728597 0.0022645179 0)
(0.79504086 0.0021012883 0)
(0.79295963 0.0019512238 0)
(0.7910288 0.0018130623 0)
(0.78923627 0.0016856841 0)
(0.7875711 0.0015680945 0)
(0.78602337 0.0014594088 0)
(0.78458411 0.0013588392 0)
(0.7832451 0.0012656832 0)
(0.78199888 0.0011793132 0)
(0.7808386 0.0010991672 0)
(0.77975798 0.0010247401 0)
(0.77875127 0.00095557717 0)
(0.77781317 0.00089126733 0)
(0.7769388 0.00083143785 0)
(0.77612366 0.00077574986 0)
(0.7753636 0.00072389449 0)
(0.77465478 0.00067558961 0)
(0.77399364 0.00063057705 0)
(0.7733769 0.00058862019 0)
(0.7728015 0.00054950173 0)
(0.7722646 0.00051302174 0)
(0.77176359 0.00047899581 0)
(0.77129602 0.00044725341 0)
(0.77085962 0.00041763642 0)
(0.77045228 0.00038999805 0)
(0.77007205 0.00036420169 0)
(0.76971711 0.0003401204 0)
(0.76938576 0.00031763602 0)
(0.76907643 0.00029663886 0)
(0.76878764 0.00027702676 0)
(0.76851803 0.00025870464 0)
(0.76826633 0.00024158335 0)
(0.76803135 0.00022557923 0)
(0.767812 0.00021061306 0)
(0.76760727 0.00019661015 0)
(0.7674162 0.00018349966 0)
(0.76723794 0.00017121541 0)
(0.76707167 0.00015969544 0)
(0.76691663 0.0001488828 0)
(0.76677214 0.00013872483 0)
(0.76663754 0.0001291735 0)
(0.76651224 0.00012018412 0)
(0.76639569 0.00011171552 0)
(0.76628738 0.00010372907 0)
(0.76618684 9.6189373e-05 0)
(0.76609365 8.9064145e-05 0)
(0.76600739 8.2325227e-05 0)
(0.76592769 7.5948919e-05 0)
(0.76585419 6.9915864e-05 0)
(0.76578654 6.4211172e-05 0)
(0.76572441 5.8821985e-05 0)
(0.7656675 5.3738693e-05 0)
(0.76561551 4.8949812e-05 0)
(0.76556815 4.4448052e-05 0)
(0.76552516 4.0220355e-05 0)
(0.76548627 3.6263975e-05 0)
(0.76545124 3.2563752e-05 0)
(0.76541977 2.9127307e-05 0)
(0.76539165 2.5932197e-05 0)
(0.76536657 2.3002234e-05 0)
(0.76534437 2.0291857e-05 0)
(0.7653247 1.7852717e-05 0)
(0.76530747 1.5590388e-05 0)
(0.76529236 1.3619911e-05 0)
(0.76527917 1.1752127e-05 0)
(0.76526796 1.024533e-05 0)
(0.76525763 8.6949198e-06 0)
(0.76525047 7.725029e-06 0)
(0.76524044 6.3669278e-06 0)
(1.0014244 0.026824855 0)
(1.0291272 0.062791352 0)
(1.0654292 0.077736553 0)
(1.098962 0.0805972 0)
(1.1253149 0.078285171 0)
(1.145053 0.0731539 0)
(1.1594858 0.066111278 0)
(1.1694287 0.058162063 0)
(1.1755354 0.050296754 0)
(1.1785738 0.043150708 0)
(1.1793571 0.036972825 0)
(1.1785949 0.031771632 0)
(1.1768304 0.027451839 0)
(1.1744518 0.023886768 0)
(1.1717287 0.02094762 0)
(1.1688444 0.018515781 0)
(1.1659195 0.016488085 0)
(1.1630317 0.014779503 0)
(1.1602295 0.013322985 0)
(1.1575415 0.012067132 0)
(1.1549828 0.010973 0)
(1.1525601 0.010011061 0)
(1.1502747 0.0091587461 0)
(1.1481246 0.0083986039 0)
(1.1461059 0.0077169509 0)
(1.1442134 0.0071028893 0)
(1.1424414 0.0065475935 0)
(1.1407838 0.0060437972 0)
(1.1392344 0.0055854276 0)
(1.1377869 0.0051673454 0)
(1.1364353 0.004785157 0)
(1.1351738 0.0044350756 0)
(1.1339968 0.0041138161 0)
(1.1328987 0.0038185128 0)
(1.1318746 0.0035466541 0)
(1.1309195 0.0032960296 0)
(1.1300289 0.0030646868 0)
(1.1291985 0.0028508948 0)
(1.1284242 0.0026531142 0)
(1.1277022 0.0024699715 0)
(1.1270291 0.0023002372 0)
(1.1264014 0.0021428076 0)
(1.1258161 0.0019966885 0)
(1.1252702 0.0018609819 0)
(1.1247612 0.0017348742 0)
(1.1242865 0.0016176265 0)
(1.1238437 0.0015085659 0)
(1.1234307 0.0014070784 0)
(1.1230455 0.0013126029 0)
(1.1226861 0.0012246253 0)
(1.1223508 0.0011426742 0)
(1.1220381 0.0010663165 0)
(1.1217462 0.00099515338 0)
(1.1214739 0.00092881707 0)
(1.1212198 0.00086696769 0)
(1.1209826 0.00080929063 0)
(1.1207613 0.00075549419 0)
(1.1205548 0.00070530762 0)
(1.120362 0.0006584796 0)
(1.1201821 0.00061477653 0)
(1.1200142 0.00057398131 0)
(1.1198575 0.00053589175 0)
(1.1197112 0.00050031914 0)
(1.1195747 0.00046708691 0)
(1.1194472 0.00043602926 0)
(1.1193282 0.0004069902 0)
(1.1192172 0.0003798231 0)
(1.1191136 0.00035439008 0)
(1.119017 0.00033056247 0)
(1.1189269 0.00030822015 0)
(1.1188428 0.00028725209 0)
(1.1187644 0.00026755545 0)
(1.1186914 0.0002490354 0)
(1.1186234 0.00023160424 0)
(1.1185601 0.00021518117 0)
(1.1185012 0.00019969174 0)
(1.1184465 0.00018506879 0)
(1.1183957 0.00017125169 0)
(1.1183486 0.00015818871 0)
(1.118305 0.00014583455 0)
(1.1182647 0.0001341534 0)
(1.1182276 0.00012311313 0)
(1.1181933 0.00011269049 0)
(1.1181619 0.00010285963 0)
(1.118133 9.3606469e-05 0)
(1.1181067 8.4904018e-05 0)
(1.1180826 7.6749962e-05 0)
(1.1180608 6.9109288e-05 0)
(1.118041 6.2002469e-05 0)
(1.1180233 5.5370509e-05 0)
(1.1180072 4.9278736e-05 0)
(1.1179929 4.3602187e-05 0)
(1.11798 3.8503029e-05 0)
(1.1179688 3.3697138e-05 0)
(1.1179586 2.9580553e-05 0)
(1.1179498 2.5501347e-05 0)
(1.1179422 2.2421495e-05 0)
(1.117935 1.8826195e-05 0)
(1.1179303 1.7003633e-05 0)
(1.117923 1.3499589e-05 0)
(1.0007347 0.011814722 0)
(1.0178472 0.030860927 0)
(1.0462163 0.041434441 0)
(1.0799018 0.04519357 0)
(1.1132664 0.045502351 0)
(1.143782 0.044080308 0)
(1.1708941 0.041439982 0)
(1.1945687 0.037973678 0)
(1.2148582 0.034195729 0)
(1.2319652 0.030536887 0)
(1.2462683 0.027222045 0)
(1.2582339 0.02431392 0)
(1.2683135 0.021797888 0)
(1.2768875 0.01963366 0)
(1.2842554 0.017773827 0)
(1.2906479 0.016169652 0)
(1.296243 0.01477559 0)
(1.3011791 0.013552298 0)
(1.3055645 0.012467864 0)
(1.3094838 0.011497466 0)
(1.3130042 0.010622161 0)
(1.3161792 0.009827513 0)
(1.3190526 0.0091024109 0)
(1.3216607 0.0084381769 0)
(1.3240343 0.0078279045 0)
(1.3261995 0.0072659756 0)
(1.3281786 0.0067477103 0)
(1.3299913 0.0062691184 0)
(1.3316544 0.005826729 0)
(1.3331829 0.0054174744 0)
(1.3345896 0.0050386129 0)
(1.3358862 0.004687674 0)
(1.3370827 0.0043624197 0)
(1.3381883 0.0040608154 0)
(1.3392108 0.003781006 0)
(1.3401576 0.0035212979 0)
(1.3410349 0.0032801423 0)
(1.3418486 0.0030561219 0)
(1.3426038 0.0028479383 0)
(1.3433051 0.0026544013 0)
(1.3439569 0.002474419 0)
(1.3445629 0.0023069886 0)
(1.3451267 0.0021511883 0)
(1.3456513 0.0020061701 0)
(1.3461398 0.0018711528 0)
(1.3465947 0.0017454163 0)
(1.3470185 0.0016282964 0)
(1.3474135 0.0015191794 0)
(1.3477816 0.0014174988 0)
(1.3481248 0.0013227307 0)
(1.3484449 0.0012343906 0)
(1.3487435 0.0011520301 0)
(1.349022 0.0010752337 0)
(1.3492818 0.0010036162 0)
(1.3495242 0.00093682014 0)
(1.3497505 0.00087451309 0)
(1.3499616 0.00081638597 0)
(1.3501587 0.00076215115 0)
(1.3503427 0.00071154087 0)
(1.3505144 0.00066430577 0)
(1.3506748 0.00062021368 0)
(1.3508244 0.00057904796 0)
(1.3509642 0.00054060644 0)
(1.3510946 0.00050469976 0)
(1.3512164 0.00047115034 0)
(1.35133 0.00043979131 0)
(1.351436 0.00041046575 0)
(1.351535 0.00038302626 0)
(1.3516272 0.00035733483 0)
(1.3517133 0.00033326244 0)
(1.3517934 0.00031068929 0)
(1.3518681 0.00028950386 0)
(1.3519376 0.0002696032 0)
(1.3520022 0.00025089153 0)
(1.3520622 0.00023328064 0)
(1.3521178 0.00021668874 0)
(1.3521693 0.00020104158 0)
(1.352217 0.00018627138 0)
(1.352261 0.00017231938 0)
(1.3523015 0.0001591327 0)
(1.3523387 0.0001466692 0)
(1.3523728 0.00013488911 0)
(1.352404 0.00012376496 0)
(1.3524324 0.00011326379 0)
(1.3524582 0.00010337073 0)
(1.3524815 9.4050747e-05 0)
(1.3525025 8.5306446e-05 0)
(1.3525214 7.7088402e-05 0)
(1.3525382 6.9434412e-05 0)
(1.3525534 6.2253392e-05 0)
(1.3525666 5.5657858e-05 0)
(1.3525785 4.9448423e-05 0)
(1.3525885 4.390222e-05 0)
(1.3525979 3.8563866e-05 0)
(1.3526052 3.4085999e-05 0)
(1.3526126 2.9446302e-05 0)
(1.3526174 2.6127802e-05 0)
(1.3526238 2.1906601e-05 0)
(1.3526262 1.9986492e-05 0)
(1.3526324 1.5778217e-05 0)
(1.0005903 0.0034629159 0)
(1.0136865 0.0093660197 0)
(1.0370283 0.013046806 0)
(1.0674202 0.014563261 0)
(1.1000315 0.014854525 0)
(1.1316428 0.014564991 0)
(1.1610745 0.013888338 0)
(1.1880674 0.012919245 0)
(1.2125205 0.011806506 0)
(1.2343939 0.010696427 0)
(1.2538077 0.0096727421 0)
(1.2710339 0.0087628222 0)
(1.286401 0.0079659738 0)
(1.3002112 0.0072722149 0)
(1.3127102 0.0066688088 0)
(1.3240903 0.0061419255 0)
(1.3345036 0.0056780724 0)
(1.3440716 0.0052653211 0)
(1.3528927 0.0048939352 0)
(1.3610463 0.0045563958 0)
(1.3685975 0.0042470698 0)
(1.3756004 0.003961776 0)
(1.3821012 0.003697398 0)
(1.3881402 0.0034515832 0)
(1.3937533 0.0032225195 0)
(1.3989728 0.003008771 0)
(1.403828 0.0028091592 0)
(1.4083456 0.0026226804 0)
(1.4125503 0.0024484506 0)
(1.4164646 0.0022856714 0)
(1.4201094 0.002133608 0)
(1.423504 0.0019915768 0)
(1.4266661 0.0018589373 0)
(1.4296121 0.0017350876 0)
(1.4323573 0.0016194613 0)
(1.4349159 0.0015115249 0)
(1.4373007 0.001410777 0)
(1.4395241 0.0013167462 0)
(1.441597 0.0012289902 0)
(1.4435301 0.0011470942 0)
(1.4453328 0.0010706697 0)
(1.4470143 0.00099935313 0)
(1.4485827 0.00093280413 0)
(1.4500459 0.00087070443 0)
(1.451411 0.0008127565 0)
(1.4526846 0.00075868223 0)
(1.4538731 0.0007082219 0)
(1.4549822 0.00066113308 0)
(1.4560172 0.00061718952 0)
(1.4569831 0.00057618027 0)
(1.4578847 0.00053790858 0)
(1.4587262 0.00050219092 0)
(1.4595117 0.00046885612 0)
(1.460245 0.00043774427 0)
(1.4609295 0.00040870611 0)
(1.4615685 0.00038160213 0)
(1.4621651 0.00035630201 0)
(1.4627221 0.00033268411 0)
(1.4632422 0.00031063485 0)
(1.4637277 0.00029004827 0)
(1.464181 0.00027082551 0)
(1.4646043 0.00025287403 0)
(1.4649995 0.00023610732 0)
(1.4653684 0.00022044387 0)
(1.4657129 0.00020580725 0)
(1.4660344 0.0001921253 0)
(1.4663345 0.00017933037 0)
(1.4666145 0.00016735887 0)
(1.4668758 0.00015615153 0)
(1.4671196 0.00014565279 0)
(1.4673468 0.00013581133 0)
(1.4675587 0.00012657871 0)
(1.467756 0.00011791059 0)
(1.4679397 0.00010976464 0)
(1.4681105 0.00010210239 0)
(1.4682693 9.4887249e-05 0)
(1.4684166 8.808669e-05 0)
(1.4685533 8.1670408e-05 0)
(1.4686797 7.5612871e-05 0)
(1.4687967 6.9890345e-05 0)
(1.4689045 6.4484672e-05 0)
(1.4690039 5.9377174e-05 0)
(1.4690951 5.4555851e-05 0)
(1.4691787 5.0003938e-05 0)
(1.4692551 4.5715108e-05 0)
(1.4693248 4.1670825e-05 0)
(1.469388 3.7874305e-05 0)
(1.4694453 3.4299161e-05 0)
(1.4694968 3.0968576e-05 0)
(1.4695435 2.783291e-05 0)
(1.4695848 2.4956751e-05 0)
(1.4696223 2.2230748e-05 0)
(1.4696547 1.980898e-05 0)
(1.4696846 1.7445569e-05 0)
(1.4697091 1.5491065e-05 0)
(1.4697332 1.3410129e-05 0)
(1.4697502 1.1966439e-05 0)
(1.469771 1.0044644e-05 0)
(1.4697803 9.213051e-06 0)
(1.4698011 7.2839198e-06 0)
(1.0005903 -0.0034629159 0)
(1.0136865 -0.0093660197 0)
(1.0370283 -0.013046806 0)
(1.0674202 -0.014563261 0)
(1.1000315 -0.014854525 0)
(1.1316428 -0.014564991 0)
(1.1610745 -0.013888338 0)
(1.1880674 -0.012919245 0)
(1.2125205 -0.011806506 0)
(1.2343939 -0.010696427 0)
(1.2538077 -0.0096727421 0)
(1.2710339 -0.0087628221 0)
(1.286401 -0.0079659736 0)
(1.3002112 -0.0072722145 0)
(1.3127102 -0.0066688083 0)
(1.3240903 -0.006141925 0)
(1.3345036 -0.0056780719 0)
(1.3440716 -0.0052653208 0)
(1.3528927 -0.004893935 0)
(1.3610463 -0.0045563958 0)
(1.3685975 -0.0042470697 0)
(1.3756004 -0.0039617756 0)
(1.3821012 -0.0036973971 0)
(1.3881402 -0.0034515816 0)
(1.3937533 -0.0032225174 0)
(1.3989728 -0.0030087687 0)
(1.403828 -0.0028091569 0)
(1.4083456 -0.0026226783 0)
(1.4125503 -0.002448449 0)
(1.4164646 -0.0022856701 0)
(1.4201094 -0.0021336066 0)
(1.423504 -0.0019915748 0)
(1.4266661 -0.0018589343 0)
(1.4296121 -0.0017350833 0)
(1.4323573 -0.0016194556 0)
(1.4349159 -0.0015115183 0)
(1.4373007 -0.0014107699 0)
(1.4395241 -0.0013167392 0)
(1.441597 -0.0012289836 0)
(1.4435301 -0.001147088 0)
(1.4453328 -0.0010706637 0)
(1.4470143 -0.00099934645 0)
(1.4485827 -0.00093279614 0)
(1.4500459 -0.00087069461 0)
(1.451411 -0.00081274474 0)
(1.4526847 -0.00075866895 0)
(1.4538731 -0.00070820777 0)
(1.4549822 -0.00066111896 0)
(1.4560172 -0.00061717606 0)
(1.4569831 -0.00057616769 0)
(1.4578847 -0.0005378967 0)
(1.4587262 -0.00050217906 0)
(1.4595117 -0.00046884359 0)
(1.460245 -0.00043773055 0)
(1.4609295 -0.00040869118 0)
(1.4615686 -0.00038158663 0)
(1.4621652 -0.00035628702 0)
(1.4627222 -0.00033267096 0)
(1.4632422 -0.00031062464 0)
(1.4637277 -0.00029004145 0)
(1.4641811 -0.00027082198 0)
(1.4646043 -0.00025287296 0)
(1.4649995 -0.00023610798 0)
(1.4653685 -0.00022044588 0)
(1.4657129 -0.00020581112 0)
(1.4660344 -0.00019213247 0)
(1.4663345 -0.00017934278 0)
(1.4666146 -0.00016737829 0)
(1.4668758 -0.0001561792 0)
(1.4671196 -0.00014568832 0)
(1.4673469 -0.0001358537 0)
(1.4675587 -0.00012662554 0)
(1.467756 -0.00011796004 0)
(1.4679397 -0.00010981513 0)
(1.4681105 -0.00010215394 0)
(1.4682693 -9.4940759e-05 0)
(1.4684166 -8.8144016e-05 0)
(1.4685532 -8.1732556e-05 0)
(1.4686797 -7.568033e-05 0)
(1.4687966 -6.9960889e-05 0)
(1.4689045 -6.4555468e-05 0)
(1.4690038 -5.9443571e-05 0)
(1.4690951 -5.4614425e-05 0)
(1.4691787 -5.0052238e-05 0)
(1.4692551 -4.5753131e-05 0)
(1.4693247 -4.1700273e-05 0)
(1.4693879 -3.7897856e-05 0)
(1.4694452 -3.4319004e-05 0)
(1.4694968 -3.0985578e-05 0)
(1.4695434 -2.784597e-05 0)
(1.4695848 -2.4963462e-05 0)
(1.4696222 -2.2228552e-05 0)
(1.4696546 -1.9795247e-05 0)
(1.4696846 -1.74207e-05 0)
(1.469709 -1.5454924e-05 0)
(1.4697332 -1.3366899e-05 0)
(1.4697502 -1.1918136e-05 0)
(1.4697709 -9.9952337e-06 0)
(1.4697802 -9.1642016e-06 0)
(1.4698011 -7.2346974e-06 0)
(1.0007347 -0.011814722 0)
(1.0178472 -0.030860927 0)
(1.0462163 -0.041434441 0)
(1.0799018 -0.04519357 0)
(1.1132664 -0.045502351 0)
(1.143782 -0.044080308 0)
(1.1708941 -0.041439982 0)
(1.1945687 -0.037973678 0)
(1.2148582 -0.034195729 0)
(1.2319652 -0.030536887 0)
(1.2462683 -0.027222045 0)
(1.2582339 -0.02431392 0)
(1.2683135 -0.021797888 0)
(1.2768875 -0.019633659 0)
(1.2842554 -0.017773826 0)
(1.2906479 -0.016169651 0)
(1.296243 -0.01477559 0)
(1.3011791 -0.013552298 0)
(1.3055645 -0.012467864 0)
(1.3094838 -0.011497466 0)
(1.3130042 -0.010622161 0)
(1.3161792 -0.0098275124 0)
(1.3190526 -0.0091024097 0)
(1.3216607 -0.0084381752 0)
(1.3240343 -0.0078279025 0)
(1.3261995 -0.0072659736 0)
(1.3281786 -0.0067477085 0)
(1.3299913 -0.0062691171 0)
(1.3316544 -0.005826728 0)
(1.3331829 -0.0054174735 0)
(1.3345896 -0.0050386116 0)
(1.3358862 -0.0046876718 0)
(1.3370827 -0.0043624164 0)
(1.3381883 -0.0040608109 0)
(1.3392108 -0.0037810007 0)
(1.3401576 -0.0035212921 0)
(1.3410349 -0.0032801366 0)
(1.3418486 -0.0030561166 0)
(1.3426038 -0.0028479335 0)
(1.3433051 -0.0026543967 0)
(1.3439569 -0.002474414 0)
(1.3445629 -0.0023069825 0)
(1.3451267 -0.0021511807 0)
(1.3456514 -0.0020061608 0)
(1.3461398 -0.0018711421 0)
(1.3465947 -0.0017454048 0)
(1.3470185 -0.0016282848 0)
(1.3474135 -0.0015191685 0)
(1.3477816 -0.0014174887 0)
(1.3481249 -0.0013227213 0)
(1.348445 -0.0012343813 0)
(1.3487435 -0.0011520201 0)
(1.349022 -0.0010752227 0)
(1.3492818 -0.001003604 0)
(1.3495243 -0.00093680724 0)
(1.3497505 -0.00087450043 0)
(1.3499617 -0.00081637477 0)
(1.3501588 -0.00076214239 0)
(1.3503428 -0.000711535 0)
(1.3505145 -0.00066430267 0)
(1.3506748 -0.00062021256 0)
(1.3508245 -0.00057904802 0)
(1.3509642 -0.00054060724 0)
(1.3510947 -0.00050470154 0)
(1.3512164 -0.00047115441 0)
(1.3513301 -0.00043979929 0)
(1.3514361 -0.00041047947 0)
(1.351535 -0.00038304681 0)
(1.3516273 -0.00035736213 0)
(1.3517133 -0.00033329539 0)
(1.3517935 -0.00031072587 0)
(1.3518682 -0.00028954216 0)
(1.3519376 -0.00026964201 0)
(1.3520022 -0.00025093065 0)
(1.3520622 -0.00023332127 0)
(1.3521178 -0.00021673239 0)
(1.3521693 -0.00020108964 0)
(1.3522169 -0.00018632412 0)
(1.3522609 -0.00017237525 0)
(1.3523014 -0.00015918912 0)
(1.3523386 -0.00014672239 0)
(1.3523727 -0.00013493599 0)
(1.3524039 -0.00012380359 0)
(1.3524323 -0.00011329403 0)
(1.3524581 -0.00010339418 0)
(1.3524814 -9.406966e-05 0)
(1.3525023 -8.5322707e-05 0)
(1.3525212 -7.7102938e-05 0)
(1.352538 -6.9446124e-05 0)
(1.3525532 -6.2260587e-05 0)
(1.3525664 -5.5657699e-05 0)
(1.3525783 -4.9439277e-05 0)
(1.3525884 -4.3883487e-05 0)
(1.3525977 -3.8536375e-05 0)
(1.352605 -3.4051934e-05 0)
(1.3526125 -2.9408044e-05 0)
(1.3526173 -2.6088869e-05 0)
(1.3526236 -2.1868287e-05 0)
(1.3526261 -1.9948718e-05 0)
(1.3526323 -1.5739304e-05 0)
(1.0014244 -0.026824855 0)
(1.0291272 -0.062791352 0)
(1.0654292 -0.077736553 0)
(1.098962 -0.0805972 0)
(1.1253149 -0.078285171 0)
(1.145053 -0.073153899 0)
(1.1594858 -0.066111278 0)
(1.1694287 -0.058162063 0)
(1.1755354 -0.050296754 0)
(1.1785738 -0.043150708 0)
(1.1793571 -0.036972825 0)
(1.1785949 -0.031771632 0)
(1.1768304 -0.027451839 0)
(1.1744518 -0.023886767 0)
(1.1717287 -0.02094762 0)
(1.1688444 -0.018515781 0)
(1.1659195 -0.016488085 0)
(1.1630317 -0.014779503 0)
(1.1602295 -0.013322986 0)
(1.1575415 -0.012067132 0)
(1.1549828 -0.010973 0)
(1.1525601 -0.01001106 0)
(1.1502747 -0.0091587447 0)
(1.1481246 -0.0083986024 0)
(1.1461059 -0.0077169495 0)
(1.1442134 -0.0071028883 0)
(1.1424414 -0.006547593 0)
(1.1407838 -0.006043797 0)
(1.1392344 -0.0055854274 0)
(1.1377869 -0.0051673448 0)
(1.1364353 -0.0047851555 0)
(1.1351738 -0.0044350732 0)
(1.1339968 -0.0041138127 0)
(1.1328987 -0.0038185089 0)
(1.1318746 -0.0035466502 0)
(1.1309195 -0.0032960261 0)
(1.1300289 -0.003064684 0)
(1.1291985 -0.0028508925 0)
(1.1284242 -0.0026531121 0)
(1.1277022 -0.0024699689 0)
(1.1270291 -0.0023002335 0)
(1.1264014 -0.0021428025 0)
(1.1258161 -0.0019966819 0)
(1.1252703 -0.0018609743 0)
(1.1247612 -0.0017348664 0)
(1.1242865 -0.0016176191 0)
(1.1238437 -0.0015085595 0)
(1.1234308 -0.001407073 0)
(1.1230455 -0.0013125981 0)
(1.1226862 -0.0012246204 0)
(1.1223509 -0.0011426685 0)
(1.1220381 -0.0010663094 0)
(1.1217463 -0.00099514497 0)
(1.121474 -0.00092880806 0)
(1.1212199 -0.00086695917 0)
(1.1209827 -0.00080928371 0)
(1.1207614 -0.00075548967 0)
(1.1205549 -0.00070530565 0)
(1.1203621 -0.00065847953 0)
(1.1201822 -0.00061477745 0)
(1.1200143 -0.00057398202 0)
(1.1198576 -0.00053589199 0)
(1.1197113 -0.00050031915 0)
(1.1195748 -0.00046708813 0)
(1.1194473 -0.00043603332 0)
(1.1193283 -0.00040699886 0)
(1.1192173 -0.00037983689 0)
(1.1191137 -0.00035440883 0)
(1.1190171 -0.00033058403 0)
(1.1189269 -0.0003082429 0)
(1.1188428 -0.00028727344 0)
(1.1187645 -0.00026757528 0)
(1.1186914 -0.00024905365 0)
(1.1186234 -0.00023162337 0)
(1.1185601 -0.0002152028 0)
(1.1185011 -0.00019971795 0)
(1.1184464 -0.00018509887 0)
(1.1183956 -0.0001712846 0)
(1.1183485 -0.0001582204 0)
(1.1183049 -0.00014586265 0)
(1.1182646 -0.00013417448 0)
(1.1182274 -0.00012312747 0)
(1.1181932 -0.00011269873 0)
(1.1181617 -0.00010286499 0)
(1.1181328 -9.3611273e-05 0)
(1.1181064 -8.4910261e-05 0)
(1.1180824 -7.6757158e-05 0)
(1.1180606 -6.9115934e-05 0)
(1.1180408 -6.2005487e-05 0)
(1.118023 -5.5367859e-05 0)
(1.118007 -4.9268919e-05 0)
(1.1179927 -4.3585845e-05 0)
(1.1179798 -3.8481669e-05 0)
(1.1179686 -3.3672939e-05 0)
(1.1179584 -2.9556082e-05 0)
(1.1179496 -2.5479407e-05 0)
(1.117942 -2.2402856e-05 0)
(1.1179348 -1.880971e-05 0)
(1.1179301 -1.6984683e-05 0)
(1.1179229 -1.347648e-05 0)
(1.0016583 -0.05381943 0)
(1.0359761 -0.10128444 0)
(1.0597199 -0.11073663 0)
(1.0628947 -0.10592202 0)
(1.0515569 -0.096228728 0)
(1.0340529 -0.083934061 0)
(1.0142795 -0.070327063 0)
(0.99360703 -0.056981333 0)
(0.97292577 -0.045107479 0)
(0.9531074 -0.03523675 0)
(0.93479538 -0.02740165 0)
(0.91829012 -0.021387227 0)
(0.90362379 -0.016884498 0)
(0.89068067 -0.013569709 0)
(0.87928175 -0.011147749 0)
(0.86923242 -0.0093736594 0)
(0.86034423 -0.0080569291 0)
(0.85244667 -0.0070571284 0)
(0.84539241 -0.0062752387 0)
(0.83905793 -0.005643828 0)
(0.83334127 -0.0051180895 0)
(0.82815884 -0.0046686702 0)
(0.82344213 -0.0042764152 0)
(0.81913467 -0.0039287373 0)
(0.81518962 -0.0036172033 0)
(0.81156765 -0.0033359716 0)
(0.80823544 -0.003080806 0)
(0.8051644 -0.0028484709 0)
(0.80232979 -0.0026363703 0)
(0.79970999 -0.0024423379 0)
(0.79728598 -0.0022645164 0)
(0.79504087 -0.0021012862 0)
(0.79295964 -0.0019512215 0)
(0.79102881 -0.0018130602 0)
(0.78923628 -0.0016856826 0)
(0.78757111 -0.0015680938 0)
(0.78602338 -0.0014594087 0)
(0.78458412 -0.0013588392 0)
(0.78324512 -0.0012656829 0)
(0.7819989 -0.001179312 0)
(0.78083862 -0.0010991647 0)
(0.77975801 -0.0010247366 0)
(0.7787513 -0.00095557312 0)
(0.7778132 -0.00089126338 0)
(0.77693883 -0.0008314346 0)
(0.77612369 -0.00077574774 0)
(0.77536363 -0.0007238934 0)
(0.77465482 -0.00067558909 0)
(0.77399368 -0.00063057638 0)
(0.77337695 -0.00058861862 0)
(0.77280155 -0.00054949892 0)
(0.77226466 -0.00051301779 0)
(0.77176365 -0.00047899136 0)
(0.77129608 -0.00044724943 0)
(0.77085968 -0.00041763382 0)
(0.77045235 -0.00038999738 0)
(0.77007212 -0.00036420286 0)
(0.76971718 -0.00034012264 0)
(0.76938584 -0.00031763834 0)
(0.7690765 -0.00029664016 0)
(0.76878772 -0.00027702672 0)
(0.76851811 -0.00025870354 0)
(0.76826641 -0.0002415824 0)
(0.76803142 -0.00022557989 0)
(0.76781206 -0.0002106166 0)
(0.76760732 -0.00019661692 0)
(0.76741624 -0.00018350905 0)
(0.76723797 -0.00017122554 0)
(0.76707169 -0.00015970455 0)
(0.76691665 -0.00014888902 0)
(0.76677215 -0.00013872809 0)
(0.76663754 -0.00012917447 0)
(0.76651222 -0.00012018504 0)
(0.76639565 -0.00011171841 0)
(0.76628731 -0.00010373553 0)
(0.76618675 -9.6199059e-05 0)
(0.76609354 -8.9075615e-05 0)
(0.76600727 -8.2335357e-05 0)
(0.76592756 -7.5955461e-05 0)
(0.76585405 -6.9916771e-05 0)
(0.76578639 -6.4207131e-05 0)
(0.76572425 -5.8814626e-05 0)
(0.76566733 -5.3731174e-05 0)
(0.76561532 -4.8944628e-05 0)
(0.76556794 -4.4446557e-05 0)
(0.76552495 -4.0221884e-05 0)
(0.76548605 -3.6266601e-05 0)
(0.76545102 -3.2564675e-05 0)
(0.76541956 -2.9124738e-05 0)
(0.76539145 -2.5925287e-05 0)
(0.76536638 -2.2991882e-05 0)
(0.76534419 -2.0279654e-05 0)
(0.76532453 -1.7840398e-05 0)
(0.76530731 -1.5579962e-05 0)
(0.7652922 -1.3613659e-05 0)
(0.76527902 -1.1751075e-05 0)
(0.76526782 -1.0248204e-05 0)
(0.76525751 -8.6941906e-06 0)
(0.76525036 -7.7178944e-06 0)
(0.76524036 -6.3569797e-06 0)
(0.91890839 -0.035821913 0)
(0.86271384 -0.062195638 0)
(0.7870597 -0.06251009 0)
(0.69536033 -0.054550395 0)
(0.61089745 -0.044531651 0)
(0.54411592 -0.034015971 0)
(0.49343012 -0.024187539 0)
(0.45479413 -0.01614423 0)
(0.42544582 -0.010265786 0)
(0.40347313 -0.0063041453 0)
(0.38715767 -0.0037976294 0)
(0.3749622 -0.002310338 0)
(0.36566193 -0.0014930147 0)
(0.35836272 -0.0010851181 0)
(0.35244268 -0.00090607239 0)
(0.34748201 -0.00084105204 0)
(0.34320348 -0.00082372456 0)
(0.33942726 -0.00081931075 0)
(0.33603793 -0.00081185205 0)
(0.33296114 -0.00079580088 0)
(0.33014779 -0.0007708108 0)
(0.32756385 -0.00073870868 0)
(0.3251842 -0.00070188867 0)
(0.32298902 -0.00066256547 0)
(0.32096172 -0.00062249995 0)
(0.31908785 -0.00058295832 0)
(0.31735449 -0.00054477266 0)
(0.31574995 -0.00050843503 0)
(0.3142636 -0.0004741919 0)
(0.31288575 -0.0004421241 0)
(0.31160756 -0.00041220825 0)
(0.31042102 -0.00038436004 0)
(0.30931884 -0.00035846351 0)
(0.30829439 -0.00033438949 0)
(0.30734165 -0.00031200678 0)
(0.30645515 -0.00029118864 0)
(0.30562991 -0.00027181587 0)
(0.30486136 -0.0002537784 0)
(0.30414535 -0.00023697538 0)
(0.30347807 -0.00022131486 0)
(0.30285601 -0.00020671313 0)
(0.30227597 -0.00019309369 0)
(0.30173498 -0.00018038658 0)
(0.3012303 -0.00016852744 0)
(0.30075943 -0.00015745692 0)
(0.30032002 -0.00014712022 0)
(0.29990993 -0.00013746663 0)
(0.29952715 -0.00012844943 0)
(0.29916983 -0.00012002549 0)
(0.29883624 -0.0001121551 0)
(0.29852478 -0.0001048017 0)
(0.29823397 -9.793129e-05 0)
(0.29796241 -9.1512332e-05 0)
(0.29770881 -8.5515113e-05 0)
(0.29747199 -7.9911659e-05 0)
(0.29725081 -7.4675583e-05 0)
(0.29704424 -6.9782048e-05 0)
(0.29685131 -6.5207903e-05 0)
(0.29667112 -6.0931852e-05 0)
(0.29650283 -5.6934137e-05 0)
(0.29634564 -5.3196939e-05 0)
(0.29619882 -4.9703258e-05 0)
(0.29606169 -4.6437427e-05 0)
(0.29593362 -4.3383832e-05 0)
(0.29581401 -4.0527591e-05 0)
(0.29570232 -3.7853804e-05 0)
(0.29559804 -3.5348708e-05 0)
(0.29550072 -3.2998955e-05 0)
(0.2954099 -3.079348e-05 0)
(0.29532518 -2.8721476e-05 0)
(0.29524618 -2.677481e-05 0)
(0.29517256 -2.4944489e-05 0)
(0.29510398 -2.3223403e-05 0)
(0.29504015 -2.1602655e-05 0)
(0.29498081 -2.007469e-05 0)
(0.2949257 -1.8630619e-05 0)
(0.2948746 -1.7263942e-05 0)
(0.29482729 -1.5967856e-05 0)
(0.29478356 -1.4739367e-05 0)
(0.29474321 -1.3574881e-05 0)
(0.29470606 -1.247433e-05 0)
(0.29467193 -1.1435342e-05 0)
(0.29464065 -1.0457371e-05 0)
(0.29461206 -9.5366431e-06 0)
(0.29458602 -8.6709008e-06 0)
(0.29456238 -7.855514e-06 0)
(0.294541 -7.0895744e-06 0)
(0.29452174 -6.3697692e-06 0)
(0.29450445 -5.6995028e-06 0)
(0.29448899 -5.0753423e-06 0)
(0.29447521 -4.504242e-06 0)
(0.294463 -3.9770754e-06 0)
(0.2944522 -3.5045104e-06 0)
(0.29444273 -3.0682212e-06 0)
(0.29443441 -2.6886587e-06 0)
(0.29442718 -2.3352321e-06 0)
(0.29442093 -2.0375384e-06 0)
(0.29441545 -1.761603e-06 0)
(0.29441107 -1.5400911e-06 0)
(0.29440607 -1.4186688e-06 0)
)
;

boundaryField
{
    top
    {
        type            fixedValue;
        value           uniform (0 0 0);
    }
    inlet
    {
        type            fixedValue;
        value           uniform (1 0 0);
    }
    outlet
    {
        type            zeroGradient;
    }
    bottom
    {
        type            fixedValue;
        value           uniform (0 0 0);
    }
    back
    {
        type            empty;
    }
    front
    {
        type            empty;
    }
}


// ************************************************************************* //
