/*--------------------------------*- C++ -*----------------------------------*\
  =========                 |
  \\      /  F ield         | OpenFOAM: The Open Source CFD Toolbox
   \\    /   O peration     | Website:  https://openfoam.org
    \\  /    A nd           | Version:  9
     \\/     M anipulation  |
\*---------------------------------------------------------------------------*/
FoamFile
{
    format      ascii;
    class       volScalarField;
    location    "0.2";
    object      p_rgh;
}
// * * * * * * * * * * * * * * * * * * * * * * * * * * * * * * * * * * * * * //

dimensions      [1 -1 -2 0 0 0 0];

internalField   nonuniform List<scalar> 
10000
(
0
-0.034079112
-0.073516597
-0.12654493
-0.19255862
-0.27138271
-0.36308523
-0.4678933
-0.58589331
-0.71726919
-0.86216889
-1.0207177
-1.1930896
-1.3793994
-1.5797217
-1.7941211
-2.0226216
-2.2651936
-2.5217424
-2.7920809
-3.0759348
-3.3729107
-3.6824855
-4.0039687
-4.3365128
-4.6790955
-5.0304729
-5.389201
-5.7536541
-6.1219606
-6.4919405
-6.861106
-7.2263678
-7.5859106
-7.9394031
-8.286851
-8.6234069
-8.9448257
-9.2490072
-9.5342243
-9.7990177
-10.042235
-10.262961
-10.460579
-10.634765
-10.785427
-10.912641
-11.016602
-11.09751
-11.155479
-11.190592
-11.20298
-11.192715
-11.159717
-11.103852
-11.024916
-10.922832
-10.797656
-10.649635
-10.479168
-10.286978
-10.074103
-9.8418223
-9.5916108
-9.3251322
-9.0452578
-8.7580671
-8.4634206
-8.161187
-7.8527777
-7.5410739
-7.2283978
-6.9167793
-6.6080056
-6.3036641
-6.0051232
-5.7136303
-5.4302827
-5.155986
-4.8915238
-4.6375196
-4.3944902
-4.1628427
-3.9428654
-3.7348206
-3.5388805
-3.3551624
-3.1836701
-3.0244495
-2.8775244
-2.7428833
-2.6204911
-2.5102143
-2.4120298
-2.3258158
-2.2514962
-2.1889747
-2.1385442
-2.1006551
-2.0670352
0.031812313
-0.0020105583
-0.041170401
-0.093882634
-0.15957274
-0.23802846
-0.32937733
-0.43375632
-0.55134812
-0.68230539
-0.8267561
-0.98491177
-1.1569381
-1.3429507
-1.543066
-1.7573717
-1.9858966
-2.2286348
-2.4855283
-2.7564485
-3.04113
-3.3392377
-3.6502543
-3.9735357
-4.3082779
-4.6534921
-5.0079848
-5.3702956
-5.7387668
-6.1116398
-6.4868187
-6.8619328
-7.2345559
-7.6027921
-7.9642902
-8.318233
-8.6608168
-8.9891314
-9.3007138
-9.5935524
-9.8659759
-10.116559
-10.344222
-10.548267
-10.728209
-10.883798
-11.014998
-11.121914
-11.204701
-11.263525
-11.298723
-11.310435
-11.298499
-11.262747
-11.203078
-11.11938
-11.011698
-10.8802
-10.725288
-10.54756
-10.347903
-10.127505
-9.8878793
-9.6307013
-9.3580833
-9.0726872
-8.7779042
-8.4744793
-8.1648451
-7.8505688
-7.5337453
-7.2165001
-6.9008292
-6.5884411
-6.2808882
-5.9795925
-5.6857767
-5.4004992
-5.1246048
-4.8588614
-4.6038801
-4.3600925
-4.1279309
-3.9076636
-3.6994826
-3.5035073
-3.319861
-3.148545
-2.9895888
-2.8429738
-2.7086688
-2.5866384
-2.4767531
-2.378904
-2.2930471
-2.2190208
-2.156778
-2.1066154
-2.0689743
-2.0354997
0.068116408
0.034321697
-0.0045933444
-0.05701681
-0.12237844
-0.20051501
-0.29145967
-0.39545041
-0.5126456
-0.64317518
-0.78725576
-0.94508428
-1.1168162
-1.3026122
-1.5026041
-1.7168846
-1.9455469
-2.1886366
-2.4461198
-2.7178738
-3.0037117
-3.3033017
-3.616203
-3.9417991
-4.279316
-4.6278149
-4.9861304
-5.352862
-5.7264011
-6.1049355
-6.4864066
-6.8685325
-7.248941
-7.6252487
-7.9949265
-8.3562292
-8.7062575
-9.0421846
-9.3615001
-9.6620047
-9.9418627
-10.199571
-10.433953
-10.644138
-10.829571
-10.989963
-11.125193
-11.235279
-11.320302
-11.380352
-11.415626
-11.426249
-11.41222
-11.373453
-11.309904
-11.221545
-11.108498
-10.970998
-10.809549
-10.624882
-10.418036
-10.190288
-9.9432327
-9.6787645
-9.3990779
-9.1067869
-8.8043604
-8.493479
-8.1764721
-7.8554672
-7.5325701
-7.2098288
-6.8892115
-6.5724039
-6.2609546
-5.9562645
-5.6595134
-5.3717098
-5.0937086
-4.8262296
-4.5698293
-4.3249432
-4.091917
-3.871017
-3.66243
-3.466212
-3.2824503
-3.1111503
-2.952314
-2.8058623
-2.6717884
-2.5499737
-2.4403933
-2.342788
-2.2572065
-2.1834215
-2.1213224
-2.0713499
-2.0338564
-2.000451
0.11709246
0.083457273
0.044864533
-0.0071591347
-0.072105731
-0.14971079
-0.24010921
-0.34353071
-0.46010175
-0.59003437
-0.73355381
-0.8908538
-1.0621282
-1.2475527
-1.4472861
-1.661486
-1.8902834
-2.1337564
-2.3919192
-2.6647159
-2.9520085
-3.2535332
-3.5688973
-3.8975637
-4.2388301
-4.5917944
-4.9553368
-5.3281288
-5.7085906
-6.0948595
-6.484875
-6.8763732
-7.2668943
-7.653856
-8.0348373
-8.4071793
-8.7681031
-9.1148762
-9.4448949
-9.755779
-10.045532
-10.312532
-10.555467
-10.773344
-10.9655
-11.131576
-11.271413
-11.384991
-11.472363
-11.533604
-11.568934
-11.578475
-11.562212
-11.520081
-11.452059
-11.358159
-11.238571
-11.093607
-10.923872
-10.730233
-10.513886
-10.276238
-10.019039
-9.7443523
-9.4544621
-9.1518195
-8.8388552
-8.5180938
-8.1916364
-7.861759
-7.5307002
-7.2005323
-6.8731745
-6.5503602
-6.2336324
-5.9243503
-5.6236308
-5.3324577
-5.0516574
-4.7818809
-4.523643
-4.2773186
-4.0432156
-3.8215148
-3.6123848
-3.4158793
-3.2320119
-3.0607591
-2.9020957
-2.7559285
-2.6221944
-2.5007436
-2.3915127
-2.2943299
-2.2090799
-2.1356509
-2.0738548
-2.0240865
-1.9868771
-1.9536513
0.17755004
0.14414791
0.10595235
0.054363001
-0.010008883
-0.086979473
-0.17669425
-0.27934826
-0.39514258
-0.5243136
-0.66708427
-0.82368368
-0.994331
-1.1792332
-1.3786039
-1.5926487
-1.821541
-2.0654146
-2.3243534
-2.5983744
-2.8874076
-3.1912675
-3.5096458
-3.8420994
-4.188005
-4.5465255
-4.9166022
-5.2969673
-5.6860871
-6.0820931
-6.4828793
-6.8861709
-7.2894384
-7.6899216
-8.0846922
-8.4710265
-8.8460748
-9.2068994
-9.5506552
-9.8748274
-10.177256
-10.45612
-10.709952
-10.93764
-11.13839
-11.311732
-11.457441
-11.575452
-11.665791
-11.728512
-11.763896
-11.772077
-11.752973
-11.706524
-11.632744
-11.531711
-11.403717
-11.249202
-11.068894
-10.863821
-10.635351
-10.385085
-10.114924
-9.8271153
-9.5241379
-9.2084803
-8.8827695
-8.5494901
-8.2111842
-7.870246
-7.5289938
-7.1895257
-6.8537596
-6.5234635
-6.2001566
-5.8851452
-5.579513
-5.2841875
-4.9999294
-4.7273197
-4.4668139
-4.2187237
-3.9832879
-3.7606345
-3.5508518
-3.3539895
-3.1700079
-2.9988601
-2.8404199
-2.6946189
-2.5612594
-2.440291
-2.331516
-2.2348226
-2.1500335
-2.0770081
-2.0156706
-1.9662031
-1.9292503
-1.8962248
0.24936054
0.21625937
0.17847717
0.12746069
0.063746265
-0.012472428
-0.10131452
-0.20304581
-0.31789744
-0.44610685
-0.58793104
-0.74362665
-0.91344555
-1.0976517
-1.2965115
-1.5102758
-1.7391765
-1.9834217
-2.2431777
-2.5185443
-2.8095351
-3.116067
-3.4379488
-3.7748348
-4.126188
-4.49127
-4.8691241
-5.2585328
-5.6580105
-6.065739
-6.479572
-6.8971307
-7.3157681
-7.7325219
-8.144182
-8.5477944
-8.9402439
-9.3183426
-9.6789892
-10.019467
-10.337403
-10.630759
-10.897878
-11.137492
-11.348707
-11.530947
-11.683873
-11.807343
-11.90136
-11.965954
-12.001401
-12.007835
-11.985159
-11.933352
-11.852475
-11.742671
-11.60434
-11.438116
-11.244895
-11.02587
-10.782587
-10.51689
-10.230883
-9.9270481
-9.6080216
-9.2764577
-8.9351646
-8.5869324
-8.2344385
-7.880231
-7.5267318
-7.1761001
-6.8303098
-6.4911133
-6.1599697
-5.8381455
-5.5267037
-5.2264934
-4.9381738
-4.6622433
-4.3990892
-4.1489594
-3.9119843
-3.6882466
-3.477757
-3.2805264
-3.0964458
-2.9254299
-2.7672857
-2.6219028
-2.4890835
-2.3686587
-2.2604819
-2.1643783
-2.0801505
-2.0076373
-1.946736
-1.8976861
-1.8611067
-1.8283299
0.33242014
0.29964375
0.26240622
0.21203036
0.14908224
0.073799352
-0.014010894
-0.11464496
-0.22833688
-0.35535776
-0.49599491
-0.65053734
-0.81929288
-1.0025803
-1.2007147
-1.4140071
-1.6427658
-1.887283
-2.1478146
-2.4245588
-2.7176422
-3.02711
-3.352892
-3.6947542
-4.0522816
-4.4248798
-4.811728
-5.2116849
-5.6232975
-6.044831
-6.4741261
-6.9086586
-7.3456381
-7.7819143
-8.2139721
-8.6383632
-9.0517928
-9.4507333
-9.831769
-10.19189
-10.528439
-10.839166
-11.122216
-11.37614
-11.599891
-11.792745
-11.95426
-12.084225
-12.182622
-12.249443
-12.284943
-12.289263
-12.262303
-12.204079
-12.114679
-11.994332
-11.843564
-11.663232
-11.454458
-11.218651
-10.957572
-10.67336
-10.368339
-10.045212
-9.7068675
-9.3562134
-8.9964301
-8.6303737
-8.2610314
-7.8911326
-7.5231829
-7.1594371
-6.8019148
-6.4523318
-6.1120974
-5.7824312
-5.4643282
-5.158532
-4.8656099
-4.5859595
-4.3198485
-4.0674447
-3.8287902
-3.6038979
-3.3927251
-3.1951686
-3.011081
-2.8402566
-2.6825531
-2.5376971
-2.4055573
-2.2858724
-2.1783965
-2.0829908
-1.9994363
-1.9275705
-1.8672349
-1.8186751
-1.7824815
-1.7500075
0.42654625
0.39421966
0.35757374
0.30793735
0.24593026
0.1717363
0.085131769
-0.014181612
-0.12647212
-0.25204166
-0.39120944
-0.5443193
-0.71173385
-0.89381984
-1.0909517
-1.3035178
-1.5319137
-1.776525
-2.0377067
-2.3157754
-2.6109998
-2.9235663
-3.2535336
-3.6008137
-3.9651652
-4.3461683
-4.7431549
-5.1551205
-5.5807022
-6.0182049
-6.4654843
-6.9199068
-7.3784879
-7.8378307
-8.294074
-8.7432847
-9.1818143
-9.6056869
-10.011087
-10.394648
-10.753423
-11.084891
-11.38696
-11.658012
-11.896779
-12.102326
-12.274102
-12.411825
-12.515418
-12.584846
-12.620399
-12.622226
-12.59016
-12.524211
-12.424519
-12.291458
-12.125717
-11.928381
-11.700893
-11.444998
-11.162693
-10.85635
-10.52867
-10.182587
-9.821331
-9.4482342
-9.0665034
-8.6794613
-8.2903685
-7.902171
-7.5174689
-7.1385915
-6.7675702
-6.4061048
-6.0555765
-5.717079
-5.391495
-5.0794883
-4.7814984
-4.4977734
-4.2284635
-3.9736372
-3.7332699
-3.5072242
-3.2953998
-3.0975752
-2.9136069
-2.7431694
-2.586028
-2.4419295
-2.3105817
-2.1918087
-2.0852377
-1.9907073
-1.9079734
-1.8368135
-1.7771369
-1.7291705
-1.6934436
-1.6613258
0.53160515
0.49976559
0.46380446
0.41506704
0.35413914
0.28120411
0.19602953
0.098284365
-0.012329864
-0.1361457
-0.27353375
-0.42489129
-0.5906245
-0.77115683
-0.96694002
-1.1784524
-1.4061826
-1.6506151
-1.9122233
-2.1914678
-2.4887657
-2.8044512
-3.1387493
-3.4917691
-3.8634877
-4.2536874
-4.6618833
-5.0872683
-5.5286429
-5.9843726
-6.4523389
-6.929846
-7.4136692
-7.9000622
-8.3847745
-8.8633978
-9.3317476
-9.7852041
-10.219492
-10.630836
-11.01594
-11.371996
-11.696701
-11.988204
-12.244962
-12.465767
-12.649878
-12.796888
-12.906668
-12.979209
-13.014856
-13.013737
-12.975568
-12.90033
-12.788204
-12.639717
-12.455839
-12.23801
-11.988095
-11.708176
-11.400633
-11.068115
-10.713631
-10.340454
-9.9521993
-9.5526205
-9.1452382
-8.7337386
-8.3217312
-7.9123988
-7.5084537
-7.1123102
-6.7260099
-6.3512037
-5.9892023
-5.6409492
-5.3071705
-4.9883908
-4.6849048
-4.3968284
-4.1241932
-3.8669098
-3.6248408
-3.3977352
-3.1853804
-2.9874941
-2.8037725
-2.633931
-2.4776129
-2.3344873
-2.2041802
-2.0864664
-1.9809701
-1.8874542
-1.8056993
-1.7354345
-1.6765563
-1.629265
-1.5941109
-1.562437
0.6473436
0.61607534
0.58094362
0.53321759
0.47352725
0.4020691
0.31856931
0.22266956
0.11404283
-0.0076911698
-0.14295026
-0.29217246
-0.45581657
-0.63437675
-0.82839448
-1.0384433
-1.2651085
-1.5089846
-1.7706858
-2.0508281
-2.3499824
-2.6686507
-3.0072716
-3.3662049
-3.7456789
-4.1457188
-4.5660892
-5.0062415
-5.465217
-5.9415193
-6.4330705
-6.9371387
-7.4502862
-7.96835
-8.4865517
-8.9996203
-9.5033275
-9.9917867
-10.460211
-10.904311
-11.32045
-11.705644
-12.057374
-12.373405
-12.651815
-12.891047
-13.090009
-13.248132
-13.365321
-13.441605
-13.477414
-13.472848
-13.427442
-13.341061
-13.213857
-13.04656
-12.840596
-12.597895
-12.320933
-12.012318
-11.674825
-11.311437
-10.925365
-10.520314
-10.100384
-9.6697638
-9.2324837
-8.7926658
-8.3542218
-7.9206066
-7.4947634
-7.0791387
-6.6757519
-6.2861705
-5.9115534
-5.5526964
-5.2101034
-4.8840979
-4.5748371
-4.2822773
-4.0062471
-3.7465424
-3.5028584
-3.2748955
-3.0621944
-2.8644652
-2.6813219
-2.5122978
-2.3570813
-2.2151532
-2.0861563
-1.9697443
-1.8655658
-1.7733313
-1.6927485
-1.6235563
-1.5655983
-1.5190772
-1.4845826
-1.4534196
0.77352489
0.742962
0.70874257
0.6621668
0.60391887
0.53417089
0.45261474
0.35886821
0.25256121
0.13327168
0.00054937963
-0.14608782
-0.30717038
-0.4832772
-0.67503869
-0.88312064
-1.1082134
-1.3510431
-1.6123731
-1.8929716
-2.1935824
-2.514925
-2.8576952
-3.2225294
-3.6099388
-4.0202615
-4.4536092
-4.9097796
-5.3881259
-5.887393
-6.4056234
-6.9400846
-7.4871512
-8.0422257
-8.5998914
-9.1544323
-9.699138
-10.228688
-10.737154
-11.219752
-11.672598
-12.092508
-12.47667
-12.822383
-13.127142
-13.38881
-13.605734
-13.777178
-13.90317
-13.983902
-14.020013
-14.011528
-13.957614
-13.857862
-13.712296
-13.521833
-13.288523
-13.015351
-12.705592
-12.3625
-11.989415
-11.58964
-11.166508
-10.724055
-10.266982
-9.8001488
-9.3281
-8.8554935
-8.3866494
-7.9253706
-7.4747938
-7.0373916
-6.6151073
-6.2093513
-5.8210448
-5.4507871
-5.0988583
-4.765347
-4.4501681
-4.1531038
-3.8737588
-3.6118023
-3.3667095
-3.1380989
-2.9254257
-2.7281918
-2.5459259
-2.3780909
-2.2242757
-2.0839402
-1.9565478
-1.8417281
-1.7391043
-1.6483498
-1.569175
-1.5012511
-1.4443445
-1.3987186
-1.3650074
-1.3344536
0.90990769
0.88013981
0.84694551
0.80169904
0.74510464
0.67732042
0.59800148
0.50673073
0.40310561
0.28667746
0.15695937
0.013410129
-0.14458099
-0.31768348
-0.50660915
-0.71211612
-0.93501798
-1.1761832
-1.4365174
-1.7169484
-2.0184319
-2.3419514
-2.6884812
-3.0589544
-3.4542291
-3.8750387
-4.3219418
-4.7951874
-5.294548
-5.8191545
-6.3673576
-6.9364769
-7.5226428
-8.1207939
-8.7246972
-9.3273678
-9.9212939
-10.499413
-11.055175
-11.583241
-12.079513
-12.540817
-12.964217
-13.346477
-13.684026
-13.973445
-14.212203
-14.399539
-14.535858
-14.621838
-14.658465
-14.645638
-14.581928
-14.466238
-14.298018
-14.078481
-13.810821
-13.499609
-13.149576
-12.764923
-12.349407
-11.906581
-11.440031
-10.953914
-10.453492
-9.9443194
-9.4318426
-8.9213084
-8.41761
-7.9249288
-7.4465875
-6.9850509
-6.5420666
-6.1187883
-5.7158562
-5.3335887
-4.9719422
-4.6307442
-4.3096395
-4.008202
-3.7258157
-3.4618542
-3.2157471
-2.9869028
-2.7746329
-2.5783476
-2.3973536
-2.2311563
-2.0790712
-1.9406171
-1.8152033
-1.702292
-1.6015495
-1.5125531
-1.4350229
-1.3685927
-1.3129524
-1.268361
-1.2355349
-1.2057387
1.0561687
1.0273205
0.99529474
0.95155692
0.89684244
0.83129006
0.75451084
0.66606437
0.56553224
0.45243716
0.32623841
0.18632419
0.032011634
-0.13744877
-0.32285668
-0.52507528
-0.74504622
-0.9837738
-1.2423097
-1.5217722
-1.823361
-2.1483336
-2.4979565
-2.8735051
-3.2762719
-3.7074776
-4.1682036
-4.6592871
-5.1811058
-5.7333819
-6.3149382
-6.9233348
-7.5545711
-8.2029902
-8.861344
-9.5210662
-10.172967
-10.808665
-11.420494
-12.002175
-12.549755
-13.060734
-13.532365
-13.960569
-14.340011
-14.664728
-14.930441
-15.1364
-15.284278
-15.376186
-15.413687
-15.396483
-15.322065
-15.187623
-14.991199
-14.734259
-14.422251
-14.062493
-13.662066
-13.226855
-12.760852
-12.267179
-11.749474
-11.212401
-10.66145
-10.102891
-9.5433122
-8.9889447
-8.445386
-7.9172098
-7.4078747
-6.919745
-6.4542789
-6.0122656
-5.5939294
-5.1991966
-4.827663
-4.4788003
-4.1519609
-3.846378
-3.5613311
-3.2958697
-3.0492165
-2.8206179
-2.6092769
-2.4144314
-2.2352493
-2.071121
-1.9213409
-1.7851803
-1.6621491
-1.5515748
-1.4530522
-1.3661105
-1.2904914
-1.2257883
-1.1716384
-1.1282477
-1.0963976
-1.0674728
1.211983
1.184202
1.1534556
1.1114356
1.0588402
0.99578898
0.92187338
0.83664474
0.73966375
0.63041369
0.50829102
0.37261472
0.22263941
0.057549387
-0.12355677
-0.32166171
-0.53782266
-0.77317218
-1.0289349
-1.3064488
-1.6071608
-1.9325971
-2.2843488
-2.6640869
-3.0735953
-3.5146863
-3.9890746
-4.498353
-5.0437447
-5.6258304
-6.244186
-6.8968811
-7.5799692
-8.2871538
-9.0098321
-9.7374456
-10.458554
-11.162568
-11.840443
-12.485128
-13.093481
-13.664791
-14.197061
-14.685088
-15.120255
-15.491285
-15.790179
-16.016942
-16.176875
-16.274919
-16.313966
-16.293182
-16.207971
-16.052365
-15.820926
-15.514669
-15.143129
-14.719335
-14.254464
-13.756698
-13.230369
-12.677213
-12.099688
-11.502828
-10.892819
-10.276576
-9.6620966
-9.0570006
-8.4678215
-7.8996031
-7.3558223
-6.8386089
-6.3489754
-5.8871713
-5.4528574
-5.0454325
-4.664108
-4.3078438
-3.9756541
-3.6664517
-3.3792538
-3.1128931
-2.8663863
-2.638727
-2.4289861
-2.2361937
-2.059442
-1.8979391
-1.7509692
-1.6176582
-1.497428
-1.3895769
-1.2936673
-1.2091475
-1.1357318
-1.073011
-1.0205757
-0.97860172
-0.94781704
-0.91987558
1.3769853
1.350371
1.3210773
1.2809653
1.2307282
1.1704738
1.0997864
1.018209
0.92527046
0.82040705
0.70296376
0.572203
0.42731292
0.26740375
0.09147609
-0.10156343
-0.31288308
-0.54375851
-0.79561033
-1.0699999
-1.3686026
-1.6932237
-2.0458229
-2.4285178
-2.8435975
-3.2935159
-3.7808151
-4.3080518
-4.8776046
-5.4912439
-6.1497539
-6.8521689
-7.5948895
-8.3710001
-9.1700424
-9.9787137
-10.78254
-11.567629
-12.323293
-13.042251
-13.722879
-14.368232
-14.978947
-15.548672
-16.062647
-16.497678
-16.837011
-17.08315
-17.250885
-17.35321
-17.394891
-17.374048
-17.282872
-17.107035
-16.832355
-16.45775
-16.001686
-15.489683
-14.940156
-14.364055
-13.765064
-13.142176
-12.49556
-11.829254
-11.15004
-10.466281
-9.7876579
-9.1236427
-8.4821304
-7.8687373
-7.2868754
-6.7381647
-6.2228683
-5.7404841
-5.289961
-4.8699638
-4.4791222
-4.1159738
-3.7790707
-3.4669727
-3.1783792
-2.9119537
-2.6663993
-2.4404881
-2.2330803
-2.0431472
-1.8695144
-1.7113447
-1.5677871
-1.4379137
-1.3210533
-1.2164305
-1.1235455
-1.0418577
-0.97097693
-0.91052218
-0.86004963
-0.81968301
-0.79011938
-0.76327167
1.5507144
1.5253976
1.4977187
1.4597032
1.4120872
1.3549657
1.287906
1.2104385
1.122059
1.0221615
0.91005615
0.78495944
0.64598389
0.49214871
0.32237799
0.13548753
-0.069817595
-0.2949783
-0.54160769
-0.81147292
-1.1064756
-1.4287175
-1.7805455
-2.1645351
-2.5835082
-3.0406199
-3.5393792
-4.0835155
-4.67695
-5.3232028
-6.0248679
-6.782705
-7.5940581
-8.4513987
-9.3417088
-10.247643
-11.150286
-12.031987
-12.878927
-13.684831
-14.45189
-15.190606
-15.908057
-16.596579
-17.225471
-17.745151
-18.127502
-18.387477
-18.559299
-18.663548
-18.709655
-18.694269
-18.60191
-18.410275
-18.08734
-17.621059
-17.041819
-16.401323
-15.734909
-15.058316
-14.371907
-13.668114
-12.942152
-12.195966
-11.436374
-10.673398
-9.919265
-9.1863438
-8.4845699
-7.8203139
-7.1966754
-6.6142344
-6.0722004
-5.5689664
-5.1023603
-4.6702224
-4.2705148
-3.9012757
-3.5605253
-3.2465145
-2.957548
-2.6920003
-2.4483938
-2.2252233
-2.0211343
-1.8349056
-1.6652678
-1.5112327
-1.3718233
-1.2460545
-1.1331316
-1.0322651
-0.94287803
-0.86444664
-0.79648427
-0.73858792
-0.69034386
-0.65176995
-0.62362096
-0.59800683
1.7326634
1.7087921
1.6828591
1.6471726
1.6024703
1.5488374
1.4858241
1.4129426
1.3296669
1.2353661
1.1293164
1.0106809
0.87850542
0.7317331
0.56921687
0.38968142
0.19168988
-0.026363822
-0.26626352
-0.52996761
-0.81962845
-1.1376513
-1.4867406
-1.8699024
-2.2905188
-2.7525032
-3.2604283
-3.8194473
-4.4352866
-5.1140196
-5.8610606
-6.6799376
-7.5700005
-8.523513
-9.5239242
-10.54736
-11.567746
-12.562926
-13.516704
-14.423381
-15.291833
-16.149517
-17.015474
-17.893901
-18.728754
-19.391359
-19.809333
-20.036248
-20.165963
-20.253263
-20.306967
-20.319881
-20.272564
-20.108538
-19.740975
-19.123321
-18.328799
-17.484992
-16.653503
-15.846324
-15.055353
-14.259471
-13.444188
-12.607782
-11.755789
-10.899598
-10.055759
-9.2416409
-8.4703555
-7.7490569
-7.0800208
-6.462164
-5.8929072
-5.3689739
-4.8869146
-4.4435543
-4.0360194
-3.6617972
-3.3184427
-3.0037254
-2.7156508
-2.4522197
-2.2117352
-1.9924035
-1.7927524
-1.611247
-1.4465603
-1.2975477
-1.1630634
-1.0420985
-0.93378185
-0.83724469
-0.75189933
-0.67716433
-0.61255495
-0.55757792
-0.51180178
-0.47524132
-0.448663
-0.42440743
1.9222791
1.8999646
1.8759724
1.8428598
1.8013744
1.7515938
1.6930509
1.6252531
1.5476635
1.4596327
1.3603952
1.2490639
1.1246389
0.98601427
0.83196075
0.66109581
0.47184965
0.26246969
0.03101056
-0.2246866
-0.5070286
-0.81870297
-1.162724
-1.5424957
-1.9619519
-2.4257633
-2.9395522
-3.5101308
-4.1454757
-4.8549466
-5.6483421
-6.5337062
-7.513912
-8.5813791
-9.7145731
-10.880068
-12.040171
-13.166164
-14.243391
-15.267488
-16.266098
-17.290347
-18.369228
-19.534709
-20.676193
-21.529797
-21.953904
-22.080107
-22.127511
-22.197834
-22.26547
-22.316433
-22.355911
-22.280071
-21.886835
-21.064294
-19.951838
-18.803947
-17.728816
-16.736366
-15.812392
-14.913982
-14.003109
-13.068942
-12.113045
-11.14804
-10.197219
-9.2864331
-8.434351
-7.6490681
-6.9311593
-6.2768018
-5.6804993
-5.1367055
-4.6403564
-4.1870818
-3.7732178
-3.3955111
-3.0510036
-2.7371243
-2.4513972
-2.1915854
-1.9556003
-1.7414861
-1.5474881
-1.3719074
-1.2132682
-1.0702684
-0.94164167
-0.82625472
-0.72322319
-0.6316552
-0.55092043
-0.48035632
-0.41947881
-0.3678009
-0.32477354
-0.29047729
-0.26566074
-0.24289206
2.118941
2.0983401
2.0764582
2.0461683
2.008215
1.9626551
1.9090199
1.8468284
1.7755374
1.6944706
1.6028279
1.4996974
1.3840541
1.2547451
1.1104532
0.94968547
0.77076373
0.57180097
0.35068022
0.10502739
-0.16779358
-0.47070546
-0.80699656
-1.1804403
-1.5954437
-2.0573239
-2.5726627
-3.1498553
-3.7995907
-4.5355222
-5.3740006
-6.3314224
-7.4181208
-8.625841
-9.921385
-11.254151
-12.571897
-13.844174
-15.058211
-16.20676
-17.354744
-18.656747
-20.103882
-21.880672
-23.676689
-24.779388
-24.970414
-24.766204
-24.61687
-24.612423
-24.705286
-24.867564
-25.106513
-25.325659
-25.116839
-24.022757
-22.247313
-20.475381
-18.966024
-17.691482
-16.615915
-15.620062
-14.615145
-13.58536
-12.523172
-11.433869
-10.351378
-9.319898
-8.3706138
-7.5128442
-6.7431449
-6.0522397
-5.4302189
-4.8683169
-4.3594823
-3.8981275
-3.4796966
-3.1003144
-2.7564889
-2.4452267
-2.1636263
-1.9091273
-1.6793297
-1.4720027
-1.2851135
-1.1167842
-0.96538858
-0.82948823
-0.70769515
-0.59879507
-0.50182256
-0.41593017
-0.34036355
-0.27449779
-0.21776998
-0.16969419
-0.12972786
-0.097939789
-0.075024168
-0.053918009
2.3220016
2.3032438
2.2836736
2.2564403
2.2223241
2.1813615
2.1330928
2.0770467
2.0126708
1.9392743
1.8560483
1.7620755
1.6563101
1.5375451
1.4043953
1.2552757
1.0884094
0.90176468
0.69304006
0.45967507
0.19882318
-0.092662417
-0.41832382
-0.78224469
-1.1891619
-1.6448091
-2.1565113
-2.7338263
-3.3900253
-4.1435869
-5.0193278
-6.0480116
-7.2580558
-8.6435565
-10.153645
-11.694327
-13.174064
-14.585035
-15.95252
-17.266513
-18.542034
-20.007554
-22.034023
-25.153458
-28.563307
-30.134524
-29.565514
-28.312369
-27.489221
-27.36431
-27.509207
-27.854459
-28.76214
-29.95217
-30.387012
-28.802548
-25.474764
-22.446405
-20.223621
-18.673491
-17.44671
-16.346254
-15.270825
-14.174192
-13.013254
-11.772899
-10.517529
-9.3310879
-8.2655829
-7.3287702
-6.5075134
-5.7824555
-5.137495
-4.5600985
-4.041177
-3.5739572
-3.15309
-2.7741149
-2.4331178
-2.1265593
-1.851188
-1.6039793
-1.3822751
-1.183502
-1.0053529
-0.84579702
-0.70299064
-0.57539931
-0.46151547
-0.36005094
-0.26997518
-0.19046968
-0.120693
-0.060038524
-0.0079195399
0.036196389
0.072802908
0.10187704
0.12270513
0.14204636
2.5307465
2.5139762
2.4968768
2.4729375
2.4429635
2.4069853
2.3645472
2.3151825
2.2583394
2.1933409
2.1193912
2.0355719
1.9408195
1.8338846
1.7133434
1.5775439
1.4245943
1.2523177
1.0582393
0.83962877
0.5934286
0.31622757
0.0042319164
-0.34684305
-0.74190915
-1.1868488
-1.6891992
-2.2592917
-2.9125419
-3.6720205
-4.5725153
-5.6634892
-7.0043341
-8.6019678
-10.396632
-12.212633
-13.85804
-15.357265
-16.841202
-18.416595
-20.240664
-22.617711
-25.298242
-30.133941
-36.227936
-37.866666
-35.174625
-31.877608
-30.380065
-30.473986
-30.721391
-30.993148
-32.55799
-35.621404
-37.848616
-36.02466
-30.065141
-24.91808
-22.150176
-19.894912
-18.254521
-17.016896
-15.945476
-14.836575
-13.60369
-12.184025
-10.694993
-9.3090933
-8.108866
-7.0895336
-6.2188984
-5.4631053
-4.7985741
-4.2087607
-3.6824543
-3.2118252
-2.7908597
-2.4147081
-2.0789376
-1.7795894
-1.5128735
-1.2753472
-1.0638893
-0.87569478
-0.70816375
-0.55904917
-0.4263321
-0.308329
-0.20346501
-0.11042357
-0.028162683
0.044239494
0.10756046
0.16245315
0.20952871
0.24927532
0.28223234
0.3083993
0.326985
0.34440335
2.7443891
2.7297443
2.7152794
2.6948776
2.6693503
2.6387312
2.6025696
2.5604109
2.511726
2.4558689
2.3920651
2.3194043
2.2368255
2.1430737
2.0366889
1.9159736
1.7789213
1.623225
1.4462699
1.2451242
1.0164762
0.75660148
0.46141846
0.12648511
-0.25312452
-0.68311536
-1.1704884
-1.7255564
-2.365216
-3.1183796
-4.0376905
-5.2034188
-6.7457289
-8.6914402
-10.903726
-13.011191
-14.687093
-16.081936
-17.723529
-19.447363
-22.426217
-27.606476
-34.737916
-44.560185
-56.528416
-55.929663
-46.063867
-37.179306
-34.313316
-34.753512
-35.18555
-35.470682
-38.373307
-46.496625
-55.234547
-55.35356
-44.272466
-34.028209
-26.171813
-21.324676
-18.762742
-17.520315
-16.468893
-15.662439
-14.57529
-12.951951
-11.059125
-9.3318202
-7.9236218
-6.7994139
-5.8748752
-5.0907323
-4.4103355
-3.8114492
-3.2805164
-2.8089649
-2.3905237
-2.019881
-1.692176
-1.4029043
-1.1476938
-0.92254171
-0.72389193
-0.5485449
-0.39368225
-0.256825
-0.13579951
-0.028801729
0.065829905
0.14943481
0.22302264
0.28754468
0.34376497
0.39235248
0.43392692
0.46892911
0.49792446
0.52093892
0.53714739
0.55249614
2.9621044
2.9497198
2.9380541
2.9214146
2.900633
2.8757259
2.846263
2.8118249
2.7719149
2.7259257
2.6731196
2.6126185
2.5433945
2.4642189
2.3736029
2.2698127
2.1507725
2.0140714
1.8569467
1.6762103
1.4682542
1.2289847
0.95389742
0.63822479
0.27706149
-0.13466286
-0.60273988
-1.1350569
-1.7464918
-2.4699827
-3.376885
-4.6266073
-6.5514567
-9.2271224
-12.240982
-14.770589
-16.024487
-17.127222
-19.270516
-21.891213
-24.591518
-28.765117
-35.624301
-62.288853
-81.918055
-84.812453
-63.275214
-39.089542
-32.724502
-37.255255
-38.277362
-34.941013
-40.900589
-63.905596
-83.73352
-80.252322
-61.991748
-36.514517
-26.360071
-22.16185
-19.754032
-18.359542
-17.443709
-17.264897
-16.608959
-14.54344
-11.91039
-9.5125022
-7.7075375
-6.4359793
-5.4611996
-4.6585612
-3.9701629
-3.3663073
-2.83308
-2.3627654
-1.949351
-1.5872177
-1.2708758
-0.99503854
-0.75464834
-0.54499776
-0.36205572
-0.20217891
-0.06225596
0.060389411
0.16801489
0.26254205
0.34565226
0.41870394
0.48276144
0.53866475
0.58718877
0.62897935
0.66459935
0.69450855
0.71922419
0.73883063
0.75247273
0.76566103
3.1830572
3.1730375
3.1643228
3.151651
3.1358836
3.1170168
3.0946525
3.0684199
3.0378639
3.002426
2.9614333
2.9140781
2.8593892
2.7961812
2.7229832
2.638043
2.53928
2.4242099
2.2898783
2.1328007
1.9489964
1.733911
1.4823715
1.1889167
0.84825004
0.45569665
0.0069269587
-0.5008413
-1.0773961
-1.7407273
-2.550721
-3.8235229
-6.0581099
-9.4468262
-13.35622
-17.112019
-17.653078
-17.671476
-21.928125
-28.196077
-27.252125
-23.227255
-19.112718
-30.853436
-62.910484
-112.2163
-94.154997
-34.532778
151.32169
435.43746
451.36052
171.62631
-34.118557
-92.444917
-110.13092
-62.787641
-31.805568
-19.258121
-18.613086
-22.109021
-24.469289
-21.245819
-18.073899
-19.020898
-19.077634
-16.160483
-12.864923
-9.6158561
-7.3497553
-5.9463538
-4.9709506
-4.1718869
-3.4822647
-2.874177
-2.3383044
-1.8702176
-1.4641553
-1.1138961
-0.8128157
-0.5545392
-0.33288565
-0.14238774
0.02156662
0.16309015
0.28555871
0.39183398
0.48423572
0.56475843
0.63507814
0.69653769
0.75016117
0.79671769
0.83694268
0.87142246
0.90069141
0.92518622
0.94537426
0.96135653
0.97224811
0.98314109
3.4063574
3.3987964
3.3931416
3.3846276
3.3741147
3.3615806
3.346671
3.3290706
3.308384
3.284127
3.2557181
3.222452
3.1834424
3.1375696
3.0834457
3.0193629
2.9432627
2.8526309
2.7443594
2.6146496
2.4590045
2.2721644
2.0480482
1.7800111
1.4613502
1.0861528
0.64970059
0.15548928
-0.41302255
-1.0167432
-1.72019
-2.9536554
-4.7084489
-7.8336646
-10.860524
-16.053474
-17.895953
-15.733457
-20.910295
-27.164287
-33.313838
-26.968901
6.558947
85.380978
-2.8843944
306.02984
2382.7594
4247.1853
5149.2596
5936.2605
6060.775
5415.3092
4465.543
2457.6565
293.4687
-7.3907687
65.601736
5.3066891
-12.54075
-21.729745
-26.153528
-24.069118
-16.952518
-19.054759
-17.816676
-15.206382
-12.632814
-9.0777468
-6.7740088
-5.3919975
-4.4506946
-3.663569
-2.9587687
-2.3366829
-1.792871
-1.3267127
-0.93071261
-0.59659957
-0.31573956
-0.079959028
0.11821905
0.28526554
0.42648268
0.54644196
0.64877588
0.73641581
0.81177083
0.8767569
0.93302078
0.98186218
1.0241657
1.0606585
1.0920113
1.118727
1.1413088
1.1601054
1.1755352
1.1876676
1.1956919
1.2041613
3.6310472
3.6260287
3.623524
3.6193243
3.6142743
3.6083133
3.6011471
3.5925342
3.5821601
3.5696454
3.5545219
3.5362093
3.5139427
3.486721
3.4533003
3.4121081
3.3611459
3.2979191
3.2192697
3.1211365
2.998438
2.8449577
2.6533087
2.4149636
2.1206914
1.7609456
1.3233789
0.84083639
0.26735955
-0.35018652
-1.1235984
-1.9298144
-2.9702679
-5.1658496
-10.35662
-11.692458
-17.550306
-13.075003
-17.557313
-28.743832
-31.735538
-89.161631
-75.524624
-254.44647
821.84066
4424.5786
6601.4441
6725.0512
6407.2348
6385.0393
6441.8579
6528.1697
6829.0693
6661.0646
4482.9283
907.39269
-190.43639
-89.408264
-54.092445
-13.022519
-7.1165938
-18.661173
-13.481604
-22.217007
-18.861172
-13.771864
-10.60306
-7.9892677
-5.8565822
-4.9240873
-3.9752327
-3.1505142
-2.3981445
-1.7490851
-1.188189
-0.72499062
-0.34325122
-0.031252698
0.22283374
0.42979614
0.59883564
0.73745928
0.85176591
0.94666613
1.025995
1.0926669
1.1490909
1.197054
1.2380923
1.2733496
1.3035777
1.3293869
1.3513395
1.3698998
1.3854649
1.3983143
1.40876
1.4168986
1.4219223
1.4279034
3.8561337
3.8537106
3.854445
3.8546781
3.8552346
3.8560274
3.8568278
3.8574836
3.8577823
3.8574688
3.8562198
3.8536043
3.8490199
3.8416554
3.8304788
3.8141365
3.7908095
3.7581202
3.7129712
3.6511509
3.5669972
3.4535181
3.3015152
3.0997072
2.835547
2.4961107
2.063433
1.5467436
0.94534693
0.19387689
-0.67023089
-0.61206076
-2.2478553
-5.661745
-13.676897
-22.558103
-22.146201
-19.11331
-30.655674
-68.245484
9.0618257
237.6939
3081.7956
5164.7707
5272.8146
5461.0537
5963.9668
6184.2064
6188.6861
6196.9983
6220.8512
6243.2723
6239.7631
6006.2378
5497.4397
5296.3345
4986.7257
2621.9811
157.68916
14.37744
-55.918649
-25.715507
-20.033604
-26.751626
-28.437265
-19.496181
-12.624252
-8.1356971
-5.0701693
-4.6880072
-3.6068541
-2.6149145
-1.7829931
-1.0845703
-0.50612982
-0.054470775
0.30604885
0.58719589
0.80558397
0.97551461
1.1084733
1.2129554
1.2957211
1.3618885
1.4153069
1.4587612
1.4944302
1.5239822
1.5487014
1.5695246
1.5870342
1.6016369
1.6137514
1.6238064
1.6320792
1.6387599
1.6440576
1.6481119