/*--------------------------------*- C++ -*----------------------------------*\
  =========                 |
  \\      /  F ield         | OpenFOAM: The Open Source CFD Toolbox
   \\    /   O peration     | Website:  https://openfoam.org
    \\  /    A nd           | Version:  9
     \\/     M anipulation  |
\*---------------------------------------------------------------------------*/
FoamFile
{
    format      ascii;
    class       volScalarField;
    location    "9.5";
    object      gradTx;
}
// * * * * * * * * * * * * * * * * * * * * * * * * * * * * * * * * * * * * * //

dimensions      [0 -1 0 1 0 0 0];

internalField   nonuniform List<scalar> 10(5.7544206e-07 0 -0 0.00025739223 0.00076183801 0.0057150925 0.024027814 0.069486544 1.2271932 -0);

boundaryField
{
    inlet
    {
        type            calculated;
        value           uniform 5.7544206e-07;
    }
    outlet
    {
        type            calculated;
        value           uniform -25.01163;
    }
    bottom
    {
        type            calculated;
        value           nonuniform List<scalar> 10(5.7544206e-07 0 0 0.00025739223 0.00076183801 0.0057150925 0.024027814 0.069486544 1.2271932 0);
    }
    top
    {
        type            calculated;
        value           nonuniform List<scalar> 10(5.7544206e-07 0 0 0.00025739223 0.00076183801 0.0057150925 0.024027814 0.069486544 1.2271932 0);
    }
    frontAndBack
    {
        type            empty;
    }
}


// ************************************************************************* //
