/*--------------------------------*- C++ -*----------------------------------*\
  =========                 |
  \\      /  F ield         | OpenFOAM: The Open Source CFD Toolbox
   \\    /   O peration     | Website:  https://openfoam.org
    \\  /    A nd           | Version:  9
     \\/     M anipulation  |
\*---------------------------------------------------------------------------*/
FoamFile
{
    format      ascii;
    class       volScalarField;
    location    "46";
    object      p;
}
// * * * * * * * * * * * * * * * * * * * * * * * * * * * * * * * * * * * * * //

dimensions      [0 2 -2 0 0 0 0];

internalField   nonuniform List<scalar> 
918
(
0.55865735
1.7237381
0.011903188
0.54562624
-0.0091688937
1.6944131
-0.9425647
1.2131158
0.5894583
-0.22630786
-0.059791184
0.67963641
1.5657787
1.3239964
-0.67380088
-0.030307543
1.0458916
-0.72661548
0.6064086
-0.080155933
1.2781139
0.52995634
0.55596833
0.52927314
0.80059673
1.2810181
1.4289826
0.0080233556
0.0026934727
-0.010934936
-0.006205719
-0.055545273
-0.038628395
1.5706899
1.6247108
1.6483934
0.53509939
0.59790569
-0.75502562
-0.83766106
-0.82194059
-0.99219399
1.199693
1.1914116
-0.46985387
1.2234133
1.2326878
0.54026322
0.58725124
0.6009663
0.52654496
0.56172343
0.57552858
0.46867649
-0.24967164
-0.30611533
-0.18830217
-0.1577135
0.045959745
-0.055006638
-0.061615978
-0.047325803
-0.046516909
0.49900261
0.66712462
0.65197973
0.69068123
0.7101544
1.6608336
1.624281
1.6512568
1.5980732
1.5883801
1.545609
1.5087463
1.3633154
1.3709376
1.3208186
1.2832596
-1.1848254
-2.1937458
-0.11615914
0.1766095
-0.0049170875
-0.016959898
-0.0035347009
1.0285617
1.0100547
1.0726746
1.0972784
1.3040835
-0.70124735
-0.8981737
0.6097314
0.60730262
0.58707138
0.56926096
0.61558485
0.66121264
-0.059257173
-0.056010556
-0.092730589
-0.07339546
-0.078541149
1.2523289
1.2599533
0.54435253
0.5494022
0.72453354
0.76219625
0.74843883
0.28734455
0.79289272
0.80370827
1.1091334
1.2897532
1.2925012
1.2780926
1.4153639
1.3710006
1.4755692
1.5010979
0.029828167
0.0021058347
-0.015361917
-0.031846208
-0.01373597
0.54165543
0.53434459
0.6159925
0.5387916
0.54673455
0.54488552
0.40865262
0.68658175
0.69773969
-0.63604806
-0.69389768
-0.81874563
-0.85989903
-0.98748178
0.97125008
1.1756628
1.161073
-0.51690661
-0.4068947
-0.57211696
-0.31959173
-0.36628002
0.54534083
0.55133913
0.546327
0.54407288
0.544423
0.54632815
0.58208505
0.57850216
0.59555832
0.54318867
0.68410996
0.41479786
0.35541274
-0.50571388
-0.34167755
-0.47656328
-0.13673239
-0.1143986
0.072110731
0.11923825
0.051064478
0.04844377
-0.098616874
-0.071309291
-0.081359703
-0.046278512
-0.046809694
0.48651384
0.47533122
0.50854599
0.51704108
0.6357241
0.63552236
0.64720233
0.64430674
1.4347268
1.4583847
1.5030572
1.4659591
-3.530672
-6.1349237
0.4897143
0.66202456
-0.0098339773
-0.0080122979
0.0044931424
-0.001316487
0.0013677236
-0.0092318502
0.010105102
0.0026364171
-0.0025323607
0.0049384795
0.9819907
0.96854407
1.2559267
1.2967203
1.1661845
1.1530137
0.61556938
0.61256428
0.6183293
0.60981202
-0.047865927
-0.051392324
-0.048054809
1.2399606
1.2520611
1.2477596
0.19830713
0.10353219
0.33518179
0.38295843
0.92222209
0.85349595
0.90134838
1.1815655
1.2137507
1.490481
1.5025025
1.5404455
1.5371846
1.5854597
1.5777615
1.5362451
0.51967764
0.53199321
0.53003453
0.61280045
0.61759356
0.61693525
0.62794359
0.62729856
0.62398509
0.24920281
-0.077378651
0.77773841
0.76510733
0.74138697
0.7374535
1.0434366
1.1314616
1.1115771
1.1445978
1.1305101
-0.21911602
-0.241387
0.28664903
0.25760554
0.41172311
0.45528782
0.43922246
1.4087822
1.408878
1.4554572
1.4176267
1.3589657
1.381871
-0.10301638
-1.2359407
-0.63493496
1.0456298
0.83564495
0.93492918
0.010758439
0.009528372
-0.01179515
1.2747821
1.3386718
0.7463189
1.0017079
0.9996685
1.2575834
1.2794748
1.3524301
1.2798866
1.3051597
1.3276921
1.3104595
0.91655416
0.81860538
0.84707351
1.1707179
1.2171343
0.016099728
-0.10617182
-0.1103511
0.13207261
0.1904339
0.1548991
1.3057643
1.2552683
1.3213999
0.5562185
0.54915889
-0.0005685844
0.0012734451
0.60801733
0.58515427
-0.025801595
-0.0072108042
0.91191407
-0.41685016
0.027535148
0.62123596
0.56505208
0.58101355
-0.21150863
0.43003173
-0.051899312
0.043815868
-0.013033003
0.66612844
0.52409437
0.47051555
-0.0080077729
-0.035236995
-0.052402669
-0.42848734
0.5643133
0.54218886
0.56771095
0.54694589
0.58274377
-0.023339924
-0.017670789
-0.0067628117
-0.05500129
-0.047574914
-0.062597234
0.54811838
0.6290737
-0.3550394
0.58902292
0.58150102
0.59510447
0.56880397
0.62315286
0.57944233
-0.012815973
-0.013532527
-0.0076816196
0.21683988
0.39310011
1.2107691
1.3366718
1.2436833
0.86831794
0.55105646
1.0779871
1.1678954
1.0437022
1.2034627
1.1843854
1.2253326
0.14260149
-0.10380178
0.15343631
0.026846536
0.61373366
0.61859149
0.55952547
0.55169488
0.59019329
0.56446748
0.59364371
0.60294683
0.6016433
0.61541776
-0.14461617
-0.1695144
-0.20115425
-0.31552046
0.44732617
0.72391666
0.33912132
0.37721401
0.17116668
-0.05028021
-0.047727649
-0.055694513
-0.066360489
0.0061654352
-0.042073732
0.063595673
0.065880128
0.04122733
-0.0069040556
-0.01863891
-0.043104216
-0.008042197
0.61611874
0.62650126
0.66329085
0.68761114
0.52293227
0.51955744
0.48266107
0.52266481
0.49333591
0.40257407
0.47357314
0.42868872
-0.012333168
-0.012132326
-0.013774369
-0.022478937
-0.0068211208
-0.020055694
-0.025402791
-0.023259481
-0.025928121
-0.032020021
-0.051623365
-0.054687183
-0.36518276
-0.54942794
1.2138851
1.0559372
0.27697121
0.53858658
0.54024398
0.5246531
0.57628944
0.56331836
0.56255193
0.56178483
0.55845374
0.58312743
0.59233272
0.6241138
0.63165624
-0.24426108
-0.494843
-0.23124075
-0.35212997
0.47096412
0.94603572
0.40242944
0.29183322
0.29791898
0.75961603
1.4679724
1.3097554
1.2697945
1.2439001
-0.076138992
0.36796228
0.10147762
0.75952518
1.0006084
1.1860491
1.2387952
1.2416915
1.2124725
1.1556383
0.061534653
1.0668254
-0.23042756
-0.16000718
0.25785037
-0.021821865
1.2009279
1.1482619
1.1367562
1.2126926
1.2399493
1.178926
1.1551525
1.1606226
1.1950452
1.191505
0.91278382
0.27196771
0.15988633
0.11423657
1.075808
0.96481223
1.0500199
0.82643486
0.60292992
0.62245921
0.60733029
0.5234338
0.55183325
0.52474269
0.58457625
0.62237416
0.60713978
0.58530456
0.60231418
0.57602244
-0.12336532
-0.12299317
-0.079767111
-0.29061793
-0.28137815
-0.40522909
-0.14674981
0.084190146
0.044036519
0.29497706
0.45244847
0.034278243
-0.15654432
-0.1010597
-0.0067232454
0.2103021
0.25318445
0.10017414
0.17166809
0.15599131
0.128746
0.27691821
0.28200882
-0.021772714
-0.017120424
-0.049195377
-0.039728261
0.032455651
0.13703488
0.14046036
0.0026864553
-0.013780014
-0.044585026
-0.045280383
-0.0055097507
-0.044998258
-0.017775109
-0.006658281
-0.024617286
0.0066175793
0.0019172713
-0.007468219
0.013059926
0.0048333549
0.64197739
0.62961111
0.63045145
0.7173591
0.70118592
0.72615278
0.71565728
0.54628487
0.53442756
0.53825077
0.53808813
0.5257334
0.54053048
0.56979036
0.63017648
0.64849428
0.61426332
0.59453024
0.61410625
0.57839748
0.56436986
0.57170614
0.56125142
0.49504618
0.49745375
-0.028123178
-0.0045260872
0.01109236
-0.063757195
-0.00048194543
-0.02070696
-0.0039495583
0.030706757
-0.014600443
0.0077775988
-0.0029139584
-0.021777395
-0.013806763
-0.15424208
0.013355294
-0.41221881
-0.44637148
-0.57252204
1.1109869
1.2725189
0.99584549
0.72685282
0.76668923
1.0466153
1.1823227
0.67910698
0.81781842
0.9297196
0.9345652
1.1573295
0.56768877
0.55700271
0.56841718
0.54272966
0.57810545
-0.0097581451
0.24262044
0.11283076
0.33521871
0.59025481
0.63449262
0.45921696
0.40631169
0.55200856
0.44530556
0.95842308
0.99147187
0.84258339
0.90044715
0.85825241
0.57230566
0.80522595
0.9425829
0.81926375
0.8527154
0.89441015
0.85593833
0.91148237
0.80227958
0.69092579
0.72711287
0.5036625
0.58884253
0.53687068
0.47748497
0.64803832
0.60378065
0.65245699
0.62002394
0.681571
0.76389191
0.74774629
0.74538251
0.78110473
0.65803989
0.58592826
0.60480209
0.67725856
0.55480879
0.58068386
0.62224817
0.48663314
0.49581378
0.3682818
0.27941404
0.32984652
0.18599245
0.15599922
0.20864364
0.51602216
-0.09667777
-0.09906285
-0.4645131
0.95332457
1.4751833
1.0810704
1.0520166
1.2382865
1.2127665
1.2041313
1.2471308
1.2463763
1.0801789
1.122378
1.1112106
1.0924569
1.1364735
1.2015116
1.1836125
1.0029164
0.66707297
0.6434429
0.56047296
0.24637395
0.35748898
0.76985178
0.60743109
0.43506766
0.40432129
0.71590345
0.44683109
0.58442809
0.74095188
0.55062073
0.44128629
0.91000873
1.0278247
1.0191305
0.97127796
0.82222686
0.88297889
0.96483022
1.0310115
1.0636718
1.1358617
0.55305494
0.57640287
0.56726754
0.54454538
0.57315626
0.59303829
0.59521157
0.58741414
0.59186606
0.60115545
0.61216877
-0.068651217
-0.059396972
-0.09413035
-0.088527119
-0.051222605
-0.079371653
0.0073948899
-0.024874087
-0.036564821
-0.033917425
-0.06523068
-0.085360692
-0.074106817
-0.050808139
0.14012473
0.1874636
0.13048873
0.10952648
0.34676182
0.47058356
0.52771159
0.45107328
0.26342818
0.28960228
0.35778672
0.016476712
0.03780683
0.048143765
0.071992929
0.071097408
-0.043431768
-0.047003468
-0.041245543
-0.043734646
-0.020252459
-0.040385363
-0.046883482
-0.035208133
-0.034770851
-0.04099527
-0.050426165
0.5416307
0.54792652
0.59046736
0.54690563
0.54845977
0.5978877
0.58008085
0.59881955
0.61039523
0.6315447
0.59963417
0.62691138
0.62756439
-0.022542778
-0.026467581
-0.043612798
-0.03513465
-0.028048817
-0.02512994
-0.033377699
0.29604735
0.14439873
0.18958131
0.037553688
-0.23149508
-0.11984506
0.67305478
0.81243909
0.80719029
1.0265072
0.80891646
0.76723962
0.918686
1.0406567
0.45463424
0.68544335
0.50493234
1.1398829
1.0555416
1.2222573
0.77445483
0.49086145
0.73601435
0.81847961
0.52983772
0.63641099
0.55732648
0.36156063
0.4288692
0.50681178
0.6841473
0.48785404
0.54908354
0.47416909
0.49145269
0.54447982
0.56508559
0.64741686
0.70405983
0.41012607
0.38313106
0.31256302
0.97435984
0.99534443
1.0213596
1.0289103
1.0402775
0.80556873
0.80018594
0.84001569
0.81527094
0.78784727
-0.28322837
-0.36632348
-0.73667003
-0.2189925
0.40570805
1.004759
0.89502698
1.3910418
1.1287476
1.2746156
1.2135006
1.1818555
1.1012022
1.1191165
1.1790361
0.56753701
0.77000598
0.75473043
0.69009515
0.47637377
0.37727343
1.0180277
0.99101536
1.067686
1.0995784
1.0325694
1.1069908
0.57527649
0.59302927
0.5690206
0.5807625
0.55707555
0.57030583
0.0553571
-0.0052191798
0.12073421
0.10058363
0.011262495
-0.021002663
-0.014138817
-0.012359265
-0.03275448
-0.025850653
-0.0093746536
-0.0086560357
0.34458757
0.28135856
0.058833629
0.18140267
-0.028719025
-0.13803117
-0.20573887
0.016886342
0.19385276
0.19119325
0.58229361
0.85956129
0.7100254
0.81648046
0.63862175
0.75038295
0.75312433
0.70320216
0.74364693
0.63094035
0.64532907
0.71252717
-0.086499031
0.23346591
1.431036
1.3948946
1.0102147
0.87670856
0.8104113
1.0736078
1.0190042
0.85255839
0.95763709
1.0679064
1.0477591
0.46837901
0.43366583
0.85392688
0.99148896
0.57207723
0.44188497
0.41260129
0.59657098
0.65601124
)
;

boundaryField
{
    wall-4
    {
        type            zeroGradient;
    }
    velocity-inlet-5
    {
        type            zeroGradient;
    }
    velocity-inlet-6
    {
        type            zeroGradient;
    }
    pressure-outlet-7
    {
        type            fixedValue;
        value           uniform 0;
    }
    wall-8
    {
        type            zeroGradient;
    }
    frontAndBackPlanes
    {
        type            empty;
    }
}


// ************************************************************************* //
