/*--------------------------------*- C++ -*----------------------------------*\
  =========                 |
  \\      /  F ield         | OpenFOAM: The Open Source CFD Toolbox
   \\    /   O peration     | Website:  https://openfoam.org
    \\  /    A nd           | Version:  9
     \\/     M anipulation  |
\*---------------------------------------------------------------------------*/
FoamFile
{
    format      ascii;
    class       surfaceScalarField;
    location    "46";
    object      phi;
}
// * * * * * * * * * * * * * * * * * * * * * * * * * * * * * * * * * * * * * //

dimensions      [0 3 -1 0 0 0 0];

internalField   nonuniform List<scalar> 
1300
(
1.7582594
5.6264299
-5.008407
1.7582594
-8.4900975
5.6264299
-5.3618821
5.3618821
-0.57968656
0.57968656
3.7305403
3.654149
-3.6435775
3.6435775
-3.487443
3.487443
-0.48940445
0.48940445
-5.2377242
5.2377242
-5.0578265
5.0578265
4.7119923
-4.7119923
-6.8719681
6.8719681
-0.37370337
0.37370337
-4.651057
4.651057
1.5039723
-1.5039723
-3.3946596
3.3946596
0.085511369
-0.085511367
-0.56795156
5.1394259
1.1903078
1.1903078
-0.25341466
0.25341466
-4.8661833
4.8661833
6.2140754
-6.2140754
7.7901008
-7.7901008
-2.7816938
-3.3914139
1.9787093
-12.523029
-6.5113882
-6.5113882
-8.4382637
8.4382637
-2.8118338
2.8145962
1.5072963
-1.5072963
-1.7308988
1.7308988
-5.3185766
-0.043305555
-5.3185766
5.3742104
-0.012328299
5.3742104
-0.60007596
0.020389384
-0.60007596
4.7548544
-4.7548544
0.52082029
0.058866282
0.52082028
1.2915993
-1.2915993
-3.7413355
7.4718758
3.6433538
-3.0559627
8.1953886
-3.3909883
7.0451373
-6.5693106
6.5693106
-3.8371476
0.19357006
-3.8371476
3.5517839
0.091793676
3.5517839
-7.4543213
7.4543213
-3.5110662
0.02362326
-3.5110662
3.4625004
0.024942593
3.4625004
2.0943191
-2.0943191
-0.58142535
0.09202091
-0.58142535
0.38981817
0.099586272
0.38981817
0.35898165
5.2674483
-5.9854116
8.8000077
-5.2674482
0.029723953
5.2000946
0.037629595
5.2000946
-5.093892
0.036065549
-5.093892
5.0160504
0.041776076
5.0160504
4.7925871
-0.080594803
4.7925871
-4.8247698
0.11277739
-4.8247698
-4.026765
-4.5206772
-7.0429562
0.17098806
-7.0429562
-0.32568296
-0.0480204
-0.32568296
0.48841981
-0.11471645
0.48841982
-4.1451909
4.1451909
-5.0572027
0.40614566
-5.0572027
1.370875
0.13309731
1.370875
2.0087658
2.5627085
3.7670252
-3.7670251
2.2630528
-3.384188
-0.010471598
-3.384188
-3.4668338
-4.323267
3.4668338
-0.072174167
-0.31402365
0.39953503
-0.31402369
1.2521717
-0.061863851
1.2521717
0.30588732
0.083930847
-0.3058873
0.052472634
3.3644944
-3.3644944
-0.10742722
0.36084191
-0.10742722
-5.5693417
5.5693417
4.9586977
0.057352779
-4.9586977
0.092514357
6.153264
0.060811473
6.153264
-6.1926363
-0.021439126
-6.1926363
3.4364774
-6.8278913
-3.5143575
6.693351
0.1786171
-6.6933509
0.18196272
1.6212554
-0.11395911
1.6212554
-1.0211761
1.0211761
-1.4620741
-0.045222258
-1.4620741
-2.0584309
0.32753212
-2.0584309
1.4700022
0.26089658
1.4700022
-5.1527065
-0.16587012
-5.1527066
-5.2856985
0.22849582
5.2856985
0.088511846
1.4478247
-1.4478247
-0.58907373
-0.011002228
-0.58907371
-4.93509
-0.21761662
4.93509
-0.1802356
-4.6326285
-0.12222597
-4.6326285
-1.3676872
-0.094386901
1.3676872
-0.076087892
1.2878711
-0.035699385
-1.2878711
-0.0037282039
-3.048703
5.6114115
-3.398248
7.0416018
-6.1870856
-0.38222503
-6.1870856
6.9079574
-0.33864682
6.9079573
4.2423527
0.40870438
-4.2423526
0.40520506
3.5229556
0.028828305
3.5229556
-7.4279568
-0.026364481
-7.4279568
7.4556594
-0.0013380077
7.4556594
3.5198619
0.003093661
-3.5198619
0.0087956924
3.429477
0.033023411
3.429477
2.2935689
-0.19924978
2.2935689
-1.9120469
-0.18227224
-1.9120469
0.86508113
-0.86508113
0.76564698
0.099434147
-0.76564694
0.18422159
-11.148741
11.127302
-0.035752844
-11.112988
5.1643418
5.1643418
3.9962417
0.79634524
3.9962419
-5.0264204
0.20165063
-5.0264204
3.4976391
-7.0119966
3.8522556
-7.8790207
5.0573915
-17.580421
4.706974
-9.2276512
7.2973293
-7.2973293
7.1766973
0.12063199
-7.1766973
0.13374116
-0.24480142
-0.080881541
-0.24480142
-3.5315632
-0.61362765
-3.5315632
4.8054464
-0.66025557
4.8054464
-1.2638643
1.2638643
-1.3005359
0.036671647
1.3005359
0.070339113
3.4009617
0.028515312
-3.4009617
0.016773662
0.44578553
0.075034746
-0.44578551
0.13176182
3.831272
-0.46677758
3.831272
-2.8827594
-0.48173504
-2.8827594
-0.081671146
-0.16313027
0.081671151
-0.18909837
-5.8170603
0.24771855
-5.8170603
-11.21344
0.10045139
-11.17581
-6.0921849
-6.0921849
2.3460787
11.146086
-1.7653507
-0.14669613
1.7653508
-0.14409535
1.1961794
0.067684839
-1.1961794
0.1750033
-0.92917344
0.064092297
0.92917345
0.092002644
-2.4802462
0.42181531
-2.4802462
-1.2216639
1.2216639
-1.2934071
0.071743219
1.2934071
0.17659509
1.7627415
-0.31491686
1.7627415
0.55203295
-0.063613128
-0.55203299
-0.037040721
-4.4499266
-0.1827019
-4.4499266
7.1673166
-0.25935924
7.1673166
-2.5669063
-0.31585305
2.5669063
-0.27333745
-0.035148573
11.162451
-5.1291932
0.035301293
5.1291932
-11.223262
11.258564
-3.0542823
0.57403615
3.0542822
0.94195965
5.2971996
0.27214215
-5.2971996
0.27077918
7.3883171
0.067342273
-7.3883171
0.090987837
-3.0302829
-0.50128025
-3.0302829
-5.5486671
-0.63841843
5.5486672
-0.74322076
-11.475023
-0.19758622
11.672609
-11.433247
6.0146465
0.13861756
-6.0146465
11.397181
-1.2652315
-0.18259319
1.2652315
-0.043567646
2.1115102
-0.34876866
2.1115102
4.2180443
-0.3867723
-4.2180443
-0.23188234
-7.3223406
-0.1056162
7.3223406
-0.15502405
-2.5494566
-0.48082638
2.5494565
-0.43794636
-5.3433626
5.2814987
2.852026
-3.3130404
-3.5148509
-7.6363074
2.5341236
3.0772879
4.7971765
-11.029363
-6.5510576
-10.847401
7.2643005
-6.9935213
-9.4204703
9.3398753
10.933687
-11.055913
-7.2473542
7.3176934
8.7582274
-8.8343153
3.8082567
3.6636191
10.64189
-10.44832
-16.822762
16.440537
10.091148
-10.067524
17.126945
-17.15331
-19.374277
19.441619
-7.0621431
7.154164
-9.6121094
9.4298371
-10.062892
9.7895546
-3.6360548
-4.2429659
14.259538
-14.08855
11.723752
-11.734224
-11.5415
11.947645
4.0532718
1.228227
4.0175724
-3.605571
7.4138278
-3.4395664
6.2915924
3.6144519
-7.2505067
3.3975447
-6.9123956
6.0196377
5.7041143
-5.9474635
-1.6888439
-8.2810076
8.1670485
-7.2831671
7.3751698
12.402563
-12.445868
-3.6167882
7.2804072
-3.4248137
6.5021015
-3.6661395
-3.5812147
3.5330422
1.2641343
8.7837833
5.4757546
-8.9624004
-1.8850002
-11.558337
11.171565
-12.104806
11.623071
-0.43787118
5.786687
-5.3488158
4.4283122
-1.4894525
7.2761395
5.774848
5.9764986
5.8658544
-5.5937122
1.1276669
-6.4764827
-6.3839683
-2.4494386
2.4384364
2.3665422
-2.3076759
8.3258972
2.6077895
8.1456616
-7.9272938
-3.1286188
-8.1099956
4.3459972
2.9716961
4.3826689
5.2819085
3.4763189
5.1875216
5.8314075
-5.9785462
0.14713871
-5.4868822
11.31829
1.3018611
-9.0680969
-7.8039626
6.7572248
3.8846658
6.8490185
-7.3142444
-3.1340759
-6.9090394
-10.229111
-6.5936506
-10.86753
10.983087
5.45745
10.64444
-12.944046
12.789022
6.5977293
3.4934184
6.6226719
-6.6191695
-3.448355
-6.6103738
13.461701
-3.1832462
-10.278454
-11.202623
-8.171654
11.203961
5.9229844
11.920101
7.5215175
12.011089
4.9111928
8.5505078
-10.834177
2.6625233
-4.3685378
-2.6936053
-4.1843162
4.2010496
2.9531144
4.3006359
-5.6151425
-3.9969669
-5.7618387
-5.7220039
-4.3408881
5.9212537
3.5085834
-6.0184264
-6.0863794
6.3342794
3.4552752
4.4075736
-10.958631
4.8200776
-9.0630435
-9.9978215
-4.0907284
-9.8640804
4.5852272
3.0985284
-7.6837556
-2.6652795
11.266519
-5.5624046
9.5776751
-7.2067724
-4.5274512
-7.1899987
-9.1698453
-2.3716543
-8.9413495
-9.482681
8.9814008
-9.8927451
9.2324896
13.927357
-6.9222728
-7.0050845
-4.8915015
-3.9428138
4.8952297
-0.8776573
-7.1928328
7.3399715
0.22099496
6.5125874
7.7408143
6.863157
-4.4061632
-2.8770039
-4.2311599
4.3475331
3.0276366
4.4116254
9.2311561
3.1714067
9.2188278
-8.8554376
-3.5904308
-9.0213077
9.4281384
-9.1006063
2.5234606
-2.6865909
7.6622567
3.9608141
-7.1954791
-4.3628581
9.5593997
-4.5079766
-5.0514231
-12.076589
10.57552
1.5010684
-4.8004489
-0.37213677
-0.45764814
-5.5495224
-3.8709478
5.4367449
0.53975379
11.115274
7.2443262
-5.515158
5.7628766
6.1574512
6.214804
-0.16916432
5.9940461
-5.42001
6.8924017
-3.6221755
-3.2702262
7.2842457
-7.5018623
-1.7370621
-7.9956105
6.2585484
0.64379923
1.7952595
-1.3957245
-1.6902853
-0.75915327
-1.727326
1.396019
0.97052319
1.4710538
0.88269447
1.555742
-3.4522761
0.73154454
2.7207316
-2.5695817
-1.5761314
-5.1981358
-2.0532885
7.2514243
8.0874836
3.0840813
-7.8556013
-0.25439439
2.3674932
-2.4822096
-0.70294009
-4.4951957
3.0026721
-3.7056121
-6.0437875
-2.4974644
8.5412519
-3.6469528
-0.58420718
3.5792679
0.80340093
-4.8363482
-3.4446594
4.8815705
0.3059511
-5.4597683
11.055215
-5.5954467
-8.3367723
4.4543356
6.8639541
7.4260317
-9.1666134
4.8311988
4.3354146
-2.3026593
5.7947122
1.0543063
5.8235405
-9.4840598
6.3499838
7.731331
4.2163143
-8.1400354
1.230996
-8.2530638
11.036128
-9.7136319
-1.3224956
5.4433064
5.5928211
7.567444
6.3599133
-5.9647926
13.532237
-1.6145659
-8.099066
9.8676297
-5.6513155
6.6483656
-12.299681
-13.008279
4.9092129
-9.95901
12.092049
-2.1330385
-3.8869416
-9.0571042
13.845952
-1.3279768
-12.517975
9.3164634
-5.6631729
-5.543739
11.206912
-8.8464191
8.992094
-2.6875784
-6.3045156
-10.923486
-6.2298239
11.029102
1.7599197
-11.888047
14.55057
-3.337539
5.7162989
0.90637294
5.7493224
4.3177007
-6.9740107
2.65631
4.5287184
-7.2162968
2.7445443
-9.718555
-7.2478522
13.332392
-6.0845397
-11.338581
-10.300382
-1.0381987
2.7819015
11.768668
-10.303419
8.032741
2.2706781
3.5431286
0.86849679
-3.6425628
-0.54175349
0.41984345
6.8657261
-7.2855695
4.7204794
4.8044102
5.0263917
1.8393344
5.1973812
2.9696673
-5.0532858
-0.70855287
-6.7072415
2.3663533
-3.198658
-6.7024192
9.0687726
-7.2963488
0.59392954
-4.5147226
-6.1452935
10.660016
-7.2083279
5.1803238
5.8748912
8.2079604
-8.8449012
2.6996077
-4.3556887
-4.4892125
4.5967411
-7.7953992
3.520422
5.5483506
6.9756972
0.88931778
6.5791118
6.7532802
-9.6776402
0.61459668
12.229035
-10.344035
2.6883413
9.322748
-10.721082
0.42070048
-9.44338
1.2360263
-6.7984309
-6.4477293
7.2108137
-9.5824681
-5.0888673
8.3074323
0.9113956
-8.3959441
-0.54540534
-6.4733202
-3.0093608
-6.9541465
-3.2899489
-6.6027962
-9.2547415
-1.7649769
-7.4897646
7.2164239
-7.2108491
-3.6566807
7.9540699
1.2784197
-7.9336683
7.7510751
-7.9891991
7.6404305
0.30160715
7.0383644
7.1647642
3.2219504
-4.7357051
7.9576555
-7.1550549
10.326462
-12.308351
5.1532963
6.1288993
-9.7193302
-6.1794519
5.4004891
4.0276493
5.6613858
9.236833
-10.591196
1.3543635
-10.825169
12.435252
-1.6100824
-16.814212
5.9890428
-7.5773791
2.3562276
0.16723298
2.2753461
0.76444125
2.8604506
-3.6248918
-1.9221496
-2.111248
-3.8278198
-5.7694786
9.5972984
1.851724
-5.367664
3.51594
-4.7344011
6.586125
0.056908839
-5.4245728
7.1430052
-4.2825546
7.3102382
-4.6774922
2.632746
5.2768451
9.2523926
-3.9755475
7.0157373
-3.0549232
3.1165993
-7.0921468
-2.6528792
-4.8846077
7.8377221
-5.7754084
6.3693379
-0.55215256
6.9214904
-5.870334
1.3623574
-0.84394231
3.9604679
4.0129406
7.1259293
-5.2865949
5.0176407
-8.0725639
-2.0745062
-7.1832461
-1.6348955
-0.38520433
-5.0029921
5.3881965
6.5877408
-6.9729452
-5.2880224
9.6206971
-4.3326747
7.9727673
-5.4809744
-2.4917929
-4.4884446
-4.6121617
4.0666294
1.9274167
9.900184
0.26246878
-5.7434432
-5.1575413
-4.2155817
4.1622969
2.7301047
-2.0272698
3.5283382
2.4849179
-0.68965835
0.51535513
0.95569864
2.0631381
-1.547783
0.30826404
1.7548741
-1.0874604
1.7229941
0.64449911
-1.659381
-0.067945007
-1.4144473
4.4171194
1.3062843
-2.2768075
0.72902447
1.3869554
-5.0091309
7.4279026
-4.0279948
-3.3999078
8.814858
1.5464521
-5.5744468
6.4491585
-5.8053593
3.3775001
-5.4307886
-2.1969467
-8.002306
-5.3945165
-4.2981302
7.8140702
-5.2991681
8.3832494
1.7702828
-8.128855
9.8991378
-4.8409183
2.3434539
-4.1230688
4.767568
-1.7452068
-2.377862
4.3616087
4.1796432
-4.3703386
-0.12485712
-0.0087298142
3.118212
-3.1269418
-0.58740017
-3.1569818
-7.6716733
7.9776244
-3.7623011
8.5934999
4.1953544
-3.6438677
12.237368
3.1450761
-6.7889439
-5.1916961
-5.7759033
-2.4535293
4.9725024
-0.91870452
-5.6916693
-7.22322
5.6885755
0.13496497
-9.3556037
10.505701
-1.1500974
-5.4709379
-0.87904592
6.3223524
-7.9452506
0.72895382
-5.2007062
5.3049948
6.3593011
6.4942661
-12.267822
-0.25015257
-6.8103724
1.33667
-8.1470424
6.9294911
-3.7502419
8.6594548
-11.060415
7.4037338
-9.7819948
7.3369592
-0.81008321
7.2810721
-4.624762
2.9973824
-9.2272062
-7.4672865
7.1798006
-3.6863822
8.0861736
-4.1829908
12.269164
-7.5205298
7.0163549
5.2528095
-1.376082
-5.8139167
-6.9802758
5.6041938
0.036079018
5.7854014
8.0662851
-5.0966178
7.3577323
4.4346338
-8.7903225
-3.3607654
-11.953159
3.1628367
-6.078268
-3.2768054
6.4396422
4.931155
5.7996518
1.9504296
-5.2578983
8.4560192
-9.494218
-2.3714795
-4.0762498
6.9377969
-1.3336031
4.3880852
-8.464335
-2.4103457
5.729276
-0.6153819
-5.1138941
1.1929967
-6.281864
2.374485
-8.656349
7.207983
-7.7533884
2.3392694
-9.9166485
-5.5943989
-5.6379666
-2.4119059
-5.5772932
-7.8479079
5.436002
-1.8588651
5.89221
-8.7481766
8.1327948
-3.6870753
9.1230772
-5.8201292
-1.1340173
6.2580755
1.3823549
10.505432
0.52151444
-6.7009664
-2.8154067
5.243611
-2.4282043
1.3468902
-4.4814777
0.76213336
3.5629717
5.2518863
-9.8215202
0.10218998
-6.5987764
-4.1206504
8.1482997
5.5000467
12.087788
1.4965911
9.2742949
-1.1259953
10.770886
4.5353906
4.7119857
-4.0658297
5.4201932
1.3223668
6.4756632
-0.81057517
3.4433212
1.4647709
1.4167505
1.0654591
2.5671907
1.4457499
3.9295481
0.30465622
-1.8065918
4.6604115
-8.8759932
-1.0830316
-8.0796478
1.2602273
5.8215244
-4.5612971
3.8527396
-1.1226349
1.4245353
-0.25422179
-1.5292972
1.783519
-3.5244478
-2.2189556
-0.4640815
-2.052844
2.7818685
2.3642753
-2.317787
-1.2066608
0.7151637
-6.1096802
4.7156248
-4.8404819
-0.66083878
9.238299
-3.6320628
0.50512098
-1.2886088
-2.6518609
-3.4110141
3.4789591
11.579156
0.65821169
5.9837092
8.6358361
5.1911767
0.094558846
5.0022979
-7.1353365
-4.716257
-7.385489
-0.45599794
5.8663544
2.2606463
9.5080222
7.5134558
6.1798527
-2.2844823
-11.7787
8.3311043
-2.910911
6.721022
-1.6071279
-7.0492211
6.9306221
3.3958396
-7.8420177
0.088629359
-6.9605917
-9.8715027
-0.4584414
8.5912362
-10.046991
8.9129736
5.9036128
1.5861517
-4.7621721
-0.87579443
4.6904288
0.021556896
10.792443
-1.2072488
-6.8722514
8.0795003
-4.6142756
3.531244
0.89227479
2.6360634
2.6757936
1.5531587
-5.3190928
-9.8803899
-3.0787561
-1.9303747
-6.478664
0.77276028
-3.1370356
6.1960407
-2.6647967
3.7042477
5.4147036
6.8392389
-1.9825481
-4.990397
6.3152229
-2.6109752
4.2282636
)
;

boundaryField
{
    wall-4
    {
        type            calculated;
        value           uniform 0;
    }
    velocity-inlet-5
    {
        type            calculated;
        value           nonuniform List<scalar> 8(-1.7582594 -1.7582594 -7.3846893 -4.5714743 -7.3846893 -6.446951 -4.5714743 -6.446951);
    }
    velocity-inlet-6
    {
        type            calculated;
        value           uniform -5.6264299;
    }
    pressure-outlet-7
    {
        type            calculated;
        value           nonuniform List<scalar> 8(5.008407 8.4900975 6.1731078 10.54432 8.5474422 6.9508349 7.3498947 9.7643655);
    }
    wall-8
    {
        type            calculated;
        value           uniform 0;
    }
    frontAndBackPlanes
    {
        type            empty;
        value           nonuniform List<scalar> 0();
    }
}


// ************************************************************************* //
