/*--------------------------------*- C++ -*----------------------------------*\
  =========                 |
  \\      /  F ield         | OpenFOAM: The Open Source CFD Toolbox
   \\    /   O peration     | Website:  https://openfoam.org
    \\  /    A nd           | Version:  9
     \\/     M anipulation  |
\*---------------------------------------------------------------------------*/
FoamFile
{
    format      ascii;
    class       volScalarField;
    location    "3";
    object      p;
}
// * * * * * * * * * * * * * * * * * * * * * * * * * * * * * * * * * * * * * //

dimensions      [0 2 -2 0 0 0 0];

internalField   nonuniform List<scalar> 
918
(
0.55536392
1.5415646
0.014564327
0.54345624
0.0051101089
1.5127526
-1.2012378
1.1048283
0.62058719
-0.17842422
0.022759164
0.8653841
1.3833467
1.1533802
-0.96836308
0.025774019
1.1228823
-1.2030147
0.77719274
0.01280938
1.3756776
0.53124539
0.55212607
0.57913437
0.95698244
1.27671
1.2464458
-0.004552656
0.011586182
0.0051775651
0.014997876
0.011853392
0.0077567292
1.3899358
1.443105
1.4668695
0.83587114
0.2691763
-0.83716258
-0.99719034
-0.95254985
-1.3809045
1.0994721
1.1152461
-0.37155297
1.0896363
1.1086773
0.85489432
0.62652998
0.6085509
0.56533125
0.5765583
0.56818899
0.36241228
-0.2216342
-0.31607045
-0.12327862
-0.079968844
0.10304582
0.022907586
0.020136011
0.029787647
0.025277908
0.76029379
0.86050851
0.85462505
0.88112281
0.87773599
1.4790609
1.4428237
1.4702683
1.4151709
1.4069114
1.3626397
1.3265429
1.1777108
1.1908316
1.1532978
1.1282587
-1.4328637
-2.3020931
-0.47711232
-0.18089309
-0.0011829572
0.030352296
0.042280179
1.0979224
1.1102883
1.1034393
1.129142
0.93870672
-1.0465199
-1.478735
0.81278383
0.83896707
0.55810426
0.57512778
0.5993112
0.6623395
0.01546637
0.016084473
-0.0060752752
0.01630168
0.011187711
1.1992121
1.1717531
0.62938951
0.85509192
0.88556913
0.91774485
0.90372103
0.49164684
0.98194235
1.0134542
0.87718033
1.1487882
1.2228148
1.1675805
1.2332754
1.1876143
1.2915093
1.3163167
0.012416968
0.0049393502
0.014765081
0.0093984009
0.019729471
0.81751701
0.8111792
0.85595789
0.83064369
0.84084876
0.12771354
-0.015854487
0.39413435
0.61914815
-0.5963657
-0.715578
-1.1619277
-1.1172268
-1.4991475
1.0736203
1.0983146
1.1276732
-0.36838434
-0.23387025
-0.49354988
-0.1709076
-0.2661866
0.85193433
0.84703876
0.85092174
0.79761339
0.83632873
0.84939201
0.53701146
0.56654588
0.58024936
0.40413738
0.48350727
0.31762303
0.27472683
-0.68244213
-0.36346047
-0.66779399
-0.057934656
-0.032137116
0.11633105
0.13197124
0.095949508
0.080966367
-0.01994378
0.010669774
0.0073432637
0.036300559
0.031099431
0.74623335
0.73109474
0.7683796
0.78859057
0.8436109
0.84772095
0.85004918
0.85424611
1.2588367
1.2826342
1.3164652
1.2824485
-3.3563178
-5.4869794
0.1408453
0.33487736
0.0094491253
0.0095837548
0.0018887352
2.2518115e-05
0.0088155672
0.0016136098
0.065778219
0.05053508
0.042612769
0.038967148
1.0776983
1.0919294
0.90522178
0.9932662
0.82417721
0.82850971
0.86320967
0.86525175
0.851237
0.87175685
0.01756886
0.015990716
0.020224898
1.0938243
1.1116628
1.1120224
0.39809201
0.25114479
0.56007247
0.60728386
1.0611939
1.0429389
1.0713784
0.963008
1.0071589
1.3118895
1.325063
1.3543954
1.3537351
1.4039911
1.3974705
1.3558716
0.78215241
0.80660041
0.80377442
0.85992891
0.84738525
0.86590628
0.8497234
0.84471781
0.84588397
-0.13379771
-0.39789383
0.99374641
0.88089384
0.68604037
0.85760484
1.0328987
1.0925608
1.1107792
1.1062269
1.1255195
-0.036236774
-0.14765826
0.24085247
0.20963205
0.6518491
0.70581999
0.68242436
1.2335926
1.2157285
1.2640139
1.2339969
1.18196
1.2080319
-0.41711542
-1.3012852
-0.80408821
0.79651391
0.53816409
0.66466014
0.070910056
0.070838299
0.063612756
0.96566656
1.0391005
0.53038583
0.68350709
0.66829516
1.0811171
1.1043252
1.1709167
1.0892791
1.1162172
1.1562921
1.1310402
1.0120261
0.97300825
1.0539707
1.029987
1.0732274
0.19359826
0.10254411
0.0078243438
0.15215157
0.1859463
0.16824875
0.99625073
1.0159116
1.0668325
0.67090236
0.59344154
0.0038784686
0.011171098
0.53016962
0.56647603
0.0025000405
0.0050548707
0.60433989
-0.83669853
0.29552371
0.85292156
0.86077626
0.66940166
-0.14692404
0.35749581
0.030547344
0.11407532
0.083313323
0.85866238
0.77101605
0.72769033
0.037337538
0.019517144
0.01638974
-0.46399538
0.74883133
0.8086973
0.68450498
0.57507169
0.60127178
0.019893381
0.010950955
0.021796845
0.0085829804
0.0055470062
0.018059101
0.81913553
0.83757032
-0.24462235
0.68485956
0.5958812
0.58750748
0.79796745
0.73700574
0.82187898
0.022801755
0.0083324818
0.0055856028
0.45616825
0.63504121
0.95229287
1.3868553
0.78048484
0.52166005
0.22266439
0.82421648
0.94691509
0.75716088
1.0531141
1.0504221
1.0512073
0.36936927
0.15782669
0.36775656
0.28151905
0.81190947
0.87474934
0.83108432
0.84625121
0.7895136
0.83418223
0.74436578
0.80657204
0.74496877
0.71049945
-0.05274602
-0.11003595
-0.16103121
-0.25683751
0.38361091
0.49898812
0.29115405
0.29605189
0.16959939
0.043262269
0.04707634
0.031089467
0.024949669
0.096696659
0.083112251
0.095549009
0.099687683
0.06399235
0.065583014
0.091385378
0.069335861
0.078236787
0.84829796
0.83630818
0.85036375
0.88878409
0.79327513
0.78684077
0.74769736
0.77545124
0.75684706
0.66908944
0.72572926
0.68334792
0.019443243
0.02707157
0.017198301
0.035466331
0.035837368
0.019009353
0.018849181
-0.0026477869
0.0072843614
0.026198975
0.018362604
0.022524364
-0.40048753
-0.57969585
0.84362435
0.71285942
0.39881892
0.8778282
0.80892389
0.86045932
0.80042
0.74841682
0.69967926
0.74764856
0.77773062
0.84680089
0.84427993
0.83858257
0.84929439
-0.14445607
-0.41328148
-0.11148116
-0.16481344
0.28663065
1.0102358
0.64014806
0.53329444
0.53031929
0.8524619
0.68448698
0.62121187
1.367289
1.406387
-0.48047764
0.029785719
-0.27568253
0.1962547
0.19565423
0.97582445
1.0664739
1.0855478
1.0459382
0.92917677
-0.22861806
0.74574209
-0.00044511497
0.0017243279
0.37433862
0.18865406
0.9717526
1.0526393
1.0703032
1.0305167
1.0476406
1.0312358
0.98742013
0.99266859
1.0475955
1.064371
0.80680425
0.49328528
0.39359211
0.39042999
1.0499054
0.84102756
0.93520829
0.79610707
0.85045689
0.84393479
0.85406554
0.84251116
0.83284009
0.84368335
0.84239033
0.84790653
0.85919418
0.82634963
0.85949866
0.83492701
-0.068000821
-0.037768345
-0.028779999
-0.30700767
-0.27815749
-0.39219224
-0.17497333
0.13246587
0.098207833
0.37025945
0.50726456
0.073657769
-0.19819077
-0.11920935
-0.0044432243
0.20859623
0.20478113
0.15905833
0.19422489
0.22579786
0.18040192
0.25165525
0.22981187
0.044048223
0.071967229
0.030453087
0.030324477
0.11958213
0.14273824
0.1469953
0.068652128
0.082505268
0.043110176
0.04622273
0.10647685
0.064030813
0.088984915
0.095749069
0.028819275
0.041495876
0.065032907
0.049403984
0.065973902
0.053164962
0.83050111
0.83903294
0.83912305
0.8548203
0.87713534
0.90138956
0.85091311
0.81637906
0.807371
0.80940766
0.77110881
0.79862474
0.77818518
0.79341432
0.81906329
0.82820252
0.83502415
0.83939489
0.8219838
0.81388768
0.81386779
0.81254464
0.76826254
0.74725058
0.71765269
0.036040269
0.010517926
0.014036143
0.044397883
0.018351974
0.029084215
0.051275008
0.06231449
0.061892611
0.042811904
0.054369176
0.0011786049
0.016287847
-0.16062271
0.057875108
-0.41821275
-0.47441321
-0.56155311
0.83476297
0.91139054
0.72126505
0.61999994
0.65950909
0.76034342
0.80417199
0.52846152
0.63743406
0.61592709
0.95363964
0.94186986
0.79037549
0.73561431
0.83436375
0.79479437
0.81609235
0.074330622
0.26658846
0.23677635
0.44599063
0.41832325
0.4710946
0.60369075
0.57135201
0.70766462
0.6916081
1.00902
1.0360151
0.94122889
0.98406521
0.99416847
0.70546259
0.85581087
0.92137481
0.88547692
0.91843688
0.9461815
0.89224685
0.92043115
0.88141843
0.8371766
0.83689479
0.71370129
0.74758713
0.71193505
0.6792441
0.82198858
0.8152152
0.81589696
0.8139654
0.85018025
0.89701644
0.88451711
0.91538565
0.91431071
0.81302421
0.75804402
0.7736528
0.81633807
0.76228836
0.77474695
0.7927457
0.56248273
0.69181207
0.3847387
0.15746213
0.17005316
-0.10723738
-0.14852449
0.18374066
0.39776549
-0.28454924
-0.35959053
-0.6844301
0.7078538
0.56622641
0.77481038
0.69696769
1.0252975
0.97512274
0.93214506
1.0057758
1.0539885
1.0292015
1.0582184
1.0681758
0.93847605
0.96355459
0.97296593
1.0063026
0.8348462
0.69245992
0.64299218
0.63853993
0.41924819
0.48330054
0.77161195
0.66116665
0.54362142
0.52673569
0.78633521
0.60640262
0.66808426
0.7829953
0.68186122
0.63220257
0.86728409
0.99262489
0.9685759
0.9100839
0.80469623
0.82756376
0.87056594
0.93184195
0.96250668
0.99120259
0.83960298
0.824287
0.82867097
0.84181661
0.83684375
0.83187833
0.82897883
0.84942332
0.8341769
0.85877803
0.86110969
0.016233933
0.021838434
-0.0040706595
-0.00057303325
0.039961755
0.028593163
0.040781712
0.044289662
0.06011542
0.06687946
0.0064033516
-0.027531303
0.027302805
0.050773757
0.2186252
0.25664816
0.23307544
0.16833699
0.3298526
0.43400312
0.5365637
0.45633765
0.26620737
0.28544332
0.30735684
0.10947323
0.1071936
0.10051378
0.13397666
0.13754561
0.031387776
0.024972597
0.030203934
0.058927039
0.037331137
0.028354373
0.029938902
0.031474479
0.039749433
0.040728364
0.024655325
0.82564575
0.80964543
0.77040082
0.76912614
0.77301243
0.80098106
0.8187033
0.82770888
0.83844606
0.82834368
0.82817312
0.82942068
0.84221755
0.006157869
0.013212152
-0.0034620589
0.021048442
0.036324033
0.0066334917
0.016087754
0.39925187
0.23626549
0.35361479
0.096951232
-0.25018926
-0.095418517
0.71769561
0.90150216
0.95673687
0.92208651
0.80360872
0.81556285
0.90725352
0.95934085
0.54082649
0.71668651
0.64207198
0.88656264
0.88517518
0.93223491
0.75325113
0.60309032
0.69778155
0.83132671
0.62420659
0.68626557
0.59614295
0.44375785
0.50382331
0.53469216
0.72211481
0.43039188
0.51458749
0.65032506
0.63158604
0.56674587
0.67361879
0.60199372
0.73674992
0.47037679
0.48007386
0.39224014
0.99622807
1.0290674
1.0570079
0.99884026
1.0433339
0.94117775
0.9480562
0.95423952
0.96980449
0.95935697
-0.54385615
-0.57825864
-1.0221287
-0.7993592
-0.26745254
0.54566609
0.59476574
0.7953983
0.75518726
0.85258014
0.87457701
0.93081285
0.90077987
0.85558404
0.8940284
0.66139444
0.78994546
0.79076266
0.75516052
0.58751322
0.51468252
0.95180606
0.94945764
0.97319318
1.0048019
0.97657387
1.0162676
0.82147385
0.83253194
0.82429077
0.83155394
0.80848137
0.80493008
0.13655159
0.099856262
0.17171644
0.14986431
0.11137275
0.090776588
0.032922449
0.017084741
0.027528628
0.056782411
0.013997261
0.041315349
0.44305788
0.43835016
0.13852999
0.33115451
0.029679668
-0.1109564
-0.1994066
0.081905104
0.24279647
0.28682949
0.61164846
0.77356162
0.69567499
0.70341534
0.57528616
0.62937209
0.87542432
0.78248424
0.89158929
0.69955474
0.70646405
0.24863959
-0.41770506
-0.25117738
0.3717261
0.5724543
0.38802961
0.2508722
0.079355527
0.16594179
0.84217315
0.74625685
0.79159736
0.84319653
0.84624548
0.17065979
0.27456912
0.46815388
0.74222552
0.60146818
0.33184808
0.37930719
0.50715009
0.74287252
)
;

boundaryField
{
    wall-4
    {
        type            zeroGradient;
    }
    velocity-inlet-5
    {
        type            zeroGradient;
    }
    velocity-inlet-6
    {
        type            zeroGradient;
    }
    pressure-outlet-7
    {
        type            fixedValue;
        value           uniform 0;
    }
    wall-8
    {
        type            zeroGradient;
    }
    frontAndBackPlanes
    {
        type            empty;
    }
}


// ************************************************************************* //
