/*--------------------------------*- C++ -*----------------------------------*\
  =========                 |
  \\      /  F ield         | OpenFOAM: The Open Source CFD Toolbox
   \\    /   O peration     | Website:  https://openfoam.org
    \\  /    A nd           | Version:  9
     \\/     M anipulation  |
\*---------------------------------------------------------------------------*/
FoamFile
{
    format      ascii;
    class       surfaceScalarField;
    location    "3";
    object      phi;
}
// * * * * * * * * * * * * * * * * * * * * * * * * * * * * * * * * * * * * * //

dimensions      [0 3 -1 0 0 0 0];

internalField   nonuniform List<scalar> 
1300
(
1.7582594
5.6264299
-7.8254541
1.7582594
-7.6590509
5.6264299
-7.4190607
7.4190607
-2.2176182
2.2176182
3.7298975
3.6547918
-6.8433878
6.8433878
-6.6278897
6.6278897
-4.0681087
4.0681087
-5.2394783
5.2394783
-5.1349797
5.1349797
4.7016414
-4.7016414
-6.2950438
6.2950438
-2.9382772
2.9382772
-7.4700797
7.4700797
2.6642588
-2.6642588
-6.6935844
6.6935844
-0.9952618
0.9952618
-0.15817899
4.7296533
1.6000803
1.6000803
-3.7761498
3.7761498
-4.8483533
4.8483533
6.2151551
-6.2151551
11.745467
-11.745467
-3.9200134
-3.9397032
1.6080133
-9.6807004
-6.0510376
-6.0510376
-8.4385312
8.4385312
-2.8121012
2.8143287
4.2411481
-4.2411481
-1.8974981
1.8974981
-7.1176352
-0.30142557
-7.1176352
7.6780962
-0.25903544
7.6780962
-2.3798826
0.16226438
-2.3798826
5.9707319
-5.9707319
1.9789177
0.23870052
1.9789176
3.9120462
-3.9120462
-3.7176518
7.4475493
3.6670375
-3.0680581
7.7977114
-3.3788928
7.0336846
-5.9519938
5.9519938
-6.9407173
0.097329472
-6.9407173
6.7466625
0.096725262
6.7466625
-6.5139096
6.5139096
-6.6755367
0.047646987
-6.6755367
6.6479868
-0.020097118
6.6479868
4.3429459
-4.3429459
-4.110579
0.042470273
-4.110579
4.060742
0.0073666556
4.060742
0.35791728
5.2685127
-5.9843472
8.7986759
-5.2685126
0.029034284
5.2063173
0.033160982
5.2063173
-5.158265
0.02328528
-5.158265
5.0926489
0.042330658
5.092649
4.6399284
0.061713149
4.6399284
-4.8888434
0.18720201
-4.8888434
-3.8885055
-3.8814992
-6.4295746
0.13453076
-6.4295746
-2.9356708
-0.0026064825
-2.9356708
2.864933
0.073344248
2.8649329
-4.637948
4.637948
-7.8260521
0.3559725
-7.8260521
3.4102897
-0.74603092
3.4102897
2.0000871
2.5713872
3.7583465
-3.7583465
1.0940877
-6.6954882
0.0019038403
-6.6954882
-6.6863652
-5.0591023
6.6863652
0.0072192347
-1.481966
0.48670417
-1.481966
2.7394134
-1.139333
2.7394133
4.0101668
0.050575176
-4.0101668
0.23401698
4.9478739
-4.9478739
2.8652386
0.91091127
2.8652386
-5.5693119
5.5693119
5.0124153
0.080233633
-5.0124155
0.16406224
6.1444192
0.070735985
6.1444191
-6.1967701
-0.018384925
-6.1967701
3.9728338
-7.912537
-3.9602302
6.1590367
0.13600707
-6.1590368
0.10799915
4.293132
-0.051983922
4.293132
-4.1685595
4.1685595
-4.2185184
-0.022629678
-4.2185185
-1.8085688
-0.088929244
-1.8085688
2.2050595
-0.30756131
2.2050595
-6.6751793
-0.44245591
-6.6751793
-7.835467
0.0094148671
7.835467
-0.15737079
3.5274917
-3.5274917
-2.5860207
0.20613809
-2.5860207
-6.3115295
-0.36364974
6.3115294
-0.34079754
-5.6966638
-0.27406811
-5.6966638
-4.1006991
-0.11781939
4.1006991
-0.18865293
3.5214906
-0.78207724
-3.5214906
-0.39055563
-3.066109
5.6374961
-3.380842
7.0478794
-5.7096839
-0.24230991
-5.7096839
6.0638527
-0.11185897
6.0638527
7.1828197
0.28726005
-7.1828197
0.24210244
6.7120161
0.03464637
6.7120161
-6.4555542
-0.058355383
-6.4555542
6.559239
-0.045329404
6.559239
6.7176401
-0.0056239488
-6.71764
0.042103385
6.6294777
0.018509066
6.6294777
4.4263061
-0.083360183
4.426306
-4.3311677
-0.011778213
-4.3311677
4.2260631
-4.2260631
4.1908243
0.035238775
-4.1908243
0.080245334
-11.126413
11.108028
-0.023780343
-11.102632
5.182537
5.182537
3.5547829
1.0851456
3.5547828
-5.097591
0.20874756
-5.097591
3.8904107
-7.8506409
3.9204322
-7.8089377
3.9753231
-13.656024
3.922325
-7.8038242
6.5459499
-6.5459499
6.5184912
0.027458736
-6.5184912
0.088916576
-2.9398933
0.0042225046
-2.9398932
-4.4622932
-0.17565477
-4.4622932
4.9168609
-0.27891291
4.9168609
-4.0833798
4.0833798
-3.8330058
-0.25037394
3.8330058
-0.42271616
6.6398274
-0.01034968
-6.6398274
-0.055660857
1.747165
0.23175268
-1.7471649
0.26519897
5.194625
-0.24675112
5.194625
-4.6987486
-0.24912524
-4.6987486
-2.92079
-0.019103216
2.92079
-0.05555139
-5.8032384
0.23392654
-5.8032383
-11.204296
0.10166416
-11.171135
-6.0951059
-6.0951059
2.3434252
11.142101
-4.313069
-0.018098702
4.3130691
-0.019937047
4.1833618
-0.0999821
-4.1833618
0.014802311
-4.1838539
-0.042209245
4.1838539
-0.015294366
-2.0240346
0.2154658
-2.0240347
-3.0073386
3.0073386
-2.6165768
-0.39076187
2.6165769
-0.41151736
3.668484
-0.14099227
3.668484
2.7722052
0.092727715
-2.7722052
0.18618449
-5.5774929
-0.1191709
-5.5774929
6.2566177
-0.19276501
6.2566177
-4.5296312
-0.16911734
4.5296313
-0.10332522
-0.013138965
11.121167
-5.169398
0.011132971
5.169398
-11.191903
11.203036
-2.5515258
0.52749104
2.5515258
1.003257
5.3294716
0.23984038
-5.3294714
0.23188039
6.594196
-0.034957015
-6.594196
0.048246054
-4.2520445
-0.21024872
-4.2520445
-5.3019359
-0.40774801
5.3019359
-0.38507507
-11.416235
-0.19359742
11.609832
-11.373904
5.9968357
0.1475834
-5.9968357
11.350619
-3.3090947
-0.21839695
3.3090947
-0.30175619
3.8400086
-0.17152456
3.8400087
5.388033
-0.19340804
-5.3880331
-0.18945985
-6.3940959
-0.061458325
6.3940958
-0.13747813
-4.0421385
-0.20990599
4.0421384
-0.20212972
-5.5971218
4.4577888
2.2005896
-3.9368108
-3.9757263
-8.9959131
3.3055927
2.3319034
4.3996804
-8.3474175
-5.3086061
-8.2394184
7.2859425
-7.0540621
-9.3223925
9.3841054
9.8566768
-10.130745
-7.8213985
7.3986824
8.4474217
-8.6360746
3.7240478
3.7235015
12.907989
-12.81066
-12.120051
11.877742
12.24008
-12.192433
12.634639
-12.692995
-14.586917
14.55196
-7.6352116
7.6776819
-8.9146549
8.9028767
-9.0088662
8.905541
-3.8424676
-3.9664701
10.791801
-10.65727
13.977432
-13.975528
-13.532424
13.888397
4.4239218
0.033866937
3.6418446
-3.379835
7.1038827
-3.6538496
5.8544392
3.9599037
-7.8023713
3.8907372
-7.8664634
7.1634635
6.8139682
-7.1706827
-1.8252304
-7.9277713
7.8757874
-7.7787517
7.7634573
13.118614
-13.420039
-3.3587749
7.0822764
-3.6891045
6.0210079
-3.5754245
-4.2459741
4.3214554
0.078224965
6.5938814
4.1979196
-6.7298885
-1.5095299
-10.074854
9.881446
-10.439319
10.190193
-0.60025418
5.8740872
-5.2738331
4.2480992
-1.5103101
7.3843973
5.7756324
5.98438
5.858582
-5.6187417
1.19548
-6.469313
-6.3052508
-3.4194158
3.6255539
3.4383104
-3.1996099
8.0004668
1.85621
7.6596692
-7.3831813
-2.7475636
-7.5023522
5.1936459
2.2050364
4.943272
5.5354916
2.91193
5.4176722
4.9625668
-4.959231
-0.0033357959
-3.9763042
8.9388709
2.1230455
-8.2222783
-8.1440533
8.4469739
4.4610156
8.5436991
-8.7760405
-4.0346194
-8.533938
-7.1720008
-4.9480507
-7.5797488
7.6898003
4.1879412
7.5779413
-9.3993115
9.2618334
8.0467466
4.1933337
8.0266494
-8.2105482
-3.9818852
-8.1684448
12.129292
-3.1270088
-9.0022832
-8.1474417
-6.4394755
8.1927711
4.4418681
8.8702211
5.6817391
8.9184671
4.1878697
7.9414223
-8.6297378
2.1902623
-5.1528501
-2.4823616
-5.0726048
4.906025
2.7716569
4.9133916
-5.6283252
-3.2863298
-5.6464239
-5.6553881
-3.3534782
5.7387483
3.1641283
-5.6958694
-4.7434493
5.8649868
3.0405542
3.5037045
-8.8123105
4.3001197
-8.2665898
-7.4810415
-3.1762287
-7.392125
4.6881322
3.0384475
-7.7265798
-3.114239
12.805933
-5.9919647
10.980702
-8.6283146
-5.3472132
-8.6839755
-10.424072
-3.108352
-10.414657
-6.4554891
6.2452404
-6.517904
6.2389911
12.383098
-6.909914
-5.4731841
-4.811972
-3.8241026
5.2025276
-1.560683
-6.102025
6.0986892
1.0018577
6.8562969
6.8901638
5.3294808
-5.1553055
-2.6234462
-5.1405032
5.1572479
2.6062094
5.1150387
10.453968
2.6646457
10.194932
-9.0153478
-4.4046913
-9.4578037
7.1503061
-7.2392353
3.967106
-3.9862092
6.8019743
3.3882192
-6.5552232
-3.5196308
7.9686528
-3.9532009
-4.0154519
-12.562202
11.13539
1.426812
-5.1778043
-0.9297051
0.065556741
-5.5545377
-3.7678546
5.3673359
0.61704413
11.752434
7.9845792
-5.5013518
5.7352784
6.1084807
6.1887142
-0.11653666
4.9975778
-4.4700867
5.6112103
-1.9790949
-3.6321154
7.2294075
-7.5930572
-2.2283963
-7.0554736
4.8270773
0.066611965
2.6184546
-2.1317503
-2.8234865
-0.59592921
-2.6373021
2.1167569
1.3215534
2.3485097
1.2963956
2.3291583
-3.7461235
0.70818736
3.0379362
-2.449728
-2.4914226
-4.6683507
-1.1906227
5.8589735
7.3600157
2.5214303
-7.1705559
-0.33179629
3.7206114
-3.6472672
-1.1104324
-3.5579184
2.4817185
-3.5921508
-4.3064276
-2.6027229
6.9091505
-4.4251259
-0.7153773
4.525108
0.418164
-5.0715992
-2.8561721
5.0942289
0.32344331
-4.0230651
8.1883222
-4.1652571
-6.6465113
4.0097032
4.9291677
6.2147396
-6.6208709
3.2989925
3.3218783
-1.6917032
7.2569949
1.2867042
7.2916413
-10.896341
6.8617211
9.2833847
4.6050119
-9.5706448
1.0367068
-9.8596337
11.351647
-9.8804157
-1.4712309
5.9078687
5.443778
6.2505721
6.1325261
-4.4188182
10.66939
-1.414861
-8.4655547
11.274495
-6.6694827
6.8427418
-13.512225
-12.975268
4.5097133
-7.9467613
9.9865947
-2.0398334
-2.985987
-6.4133245
10.932748
-0.9718518
-9.9608965
6.6060895
-6.3418404
-6.3408174
12.682658
-9.4688492
10.322703
-2.9916797
-7.3310229
-7.8949071
-4.7980876
7.9563654
1.305468
-11.574092
13.764354
-3.6326698
6.959842
1.0668074
6.9783511
4.5453785
-7.0536865
2.5083081
4.9234708
-7.9151505
2.8512409
-9.9049274
-5.6984886
11.352063
-5.6535745
-8.8747173
-7.7506092
-1.1241081
2.3740102
11.390344
-8.0557493
6.1968083
1.8589409
4.4540939
0.66094481
-4.4893326
-0.58327219
0.43473174
5.8225628
-6.2572946
5.3481233
5.3986985
4.5218548
1.300708
5.1558999
2.7198875
-5.1359628
-0.51046112
-5.2437681
1.8902899
-2.0796398
-4.6008652
6.4911551
-5.0792184
0.47835324
-3.5610425
-4.6112321
8.1722746
-6.0434041
4.0757699
4.1125523
6.6819793
-6.3533497
1.7421176
-3.2489327
-3.104417
3.3371009
-5.4167407
2.5199113
3.9712438
5.5604655
0.81701619
5.8025623
5.5495007
-8.8410099
0.57442005
9.7474203
-8.2378905
1.9798115
6.9386556
-8.1766198
0.4260106
-6.9661144
1.362215
-7.3541796
-6.3643648
7.4292001
-10.537552
-6.0830245
9.5700997
0.6248327
-9.4127289
-1.0019283
-4.5043557
-1.9511334
-4.7142616
-1.9228299
-4.5950741
-6.3416481
-1.4745116
-4.8671365
4.7707289
-4.8785345
-2.7012144
5.2636096
0.9753815
-5.6261511
5.4077541
-5.5036263
5.3321019
0.70750538
5.3911838
6.0369861
2.2128835
-3.6994806
5.9123641
-7.9896403
10.654286
-12.285488
4.2958477
4.902306
-9.3069972
-7.383182
4.3808512
2.7694549
4.0732899
7.1851174
-8.8831682
1.6980508
-7.7910944
8.926921
-1.1358267
-11.930243
4.1391483
-4.7451251
3.6488778
0.3182283
3.6531003
0.96417618
3.0705202
-4.0346964
-3.022033
-3.0775843
-2.9935187
-4.246153
7.2396717
1.3852742
-4.3189923
2.9337181
-4.3260344
5.7113086
-0.2542285
-4.0647637
6.8418325
-3.7713122
7.1600609
-4.5802629
2.579798
4.1973406
7.0582824
-2.8609418
5.5366005
-2.1483812
2.2291832
-5.090125
-2.0169697
-3.900889
6.6725459
-4.2713855
4.7497388
-0.4152513
5.16499
-5.2784644
1.3252635
-0.75660961
4.6420889
4.8761059
5.4100519
-4.1093438
3.695525
-5.8439062
-1.3946
-5.02689
-1.0556462
-1.7932442
-5.6485212
7.4417653
5.9093383
-7.7025824
-4.4054379
7.6063968
-3.2009589
6.4316299
-5.0819403
-1.3496896
-3.5686705
-3.6705649
3.3532047
1.6443731
8.0760029
-0.071484769
-5.0104555
-4.5415715
-3.5383144
4.2243821
1.3868282
-3.319736
4.7465481
3.2541792
-0.63572468
0.75095409
1.5975556
2.3624965
-1.6115424
0.26899583
2.0935008
-1.8627547
2.7304382
0.99017319
-2.8231659
0.18586378
-1.767898
4.2496165
1.2700381
-2.5915915
0.98004907
2.0026009
-3.9816957
5.9358267
-2.56683
-3.3689967
7.9384276
1.8596728
-4.4265027
5.1958008
-5.1291888
3.0340626
-4.2246853
-1.3924401
-6.521629
-4.6654189
-3.0604051
5.9941232
-4.1792667
6.700697
1.6876956
-6.3689007
8.0565963
-4.5320084
1.9292856
-3.7623248
4.752498
-1.1793002
-2.5830247
3.4161564
3.4929941
-3.6459957
0.088077359
-0.22983925
2.8426778
-3.072517
-0.74947302
-3.199201
-6.0205593
6.3440026
-2.8037348
6.1027273
3.1086293
-2.5928932
8.6956205
2.4603978
-5.053291
-4.1861136
-4.9014909
-1.7314127
4.4833269
-1.0474405
-7.1210043
-8.3784634
7.1266283
0.16501296
-10.69522
11.990656
-1.2954359
-6.2342046
-0.62751655
6.5353852
-8.680306
0.7651555
-5.8290652
6.1615908
7.448295
7.6133079
-9.7634672
-0.19742939
-5.575526
1.458463
-7.033989
6.9022409
-3.2403869
7.7501002
-8.4043848
5.7031704
-7.4290033
6.2788693
-0.75511964
6.5187592
-4.0104512
2.483524
-7.2816115
-5.9761436
8.4058991
-4.2125653
9.4727065
-4.8374227
14.310129
-8.4700925
8.2481019
6.0620272
-1.682491
-7.0014845
-8.2146188
6.5321278
0.033483101
7.0118342
6.4169518
-3.6970643
5.9064907
2.7965798
-6.0455126
-2.6201609
-8.4336818
2.3881692
-4.3211295
-2.4741925
4.8623617
4.2077868
4.8687316
1.7579447
-4.2854594
7.8076623
-8.9317704
-2.1540878
-4.210277
8.0842042
-1.5520764
4.6171886
-8.8274656
-2.736991
6.2403406
-0.95346233
-5.2868782
0.66957341
-6.7525979
2.9786759
-9.7312737
7.5588761
-8.5608044
1.6981418
-6.4432669
-3.9280093
-4.2297655
-1.5723627
-3.9312635
-5.4746468
3.9022841
-1.3354984
4.0722557
-6.4437809
5.4903186
-2.4831402
6.3854243
-4.0578901
-0.65637151
4.2600197
1.0720822
7.4575066
-0.84581269
-6.5373693
-1.1455205
5.550251
-4.4047306
3.0788615
-6.4943339
-0.94408278
3.6776012
4.2608264
-8.5046785
-0.80231868
-7.3396879
-3.2482687
6.0177237
4.3581281
10.267466
1.3842983
6.3878631
-0.37013944
7.7721614
3.7031505
3.291633
-4.550217
6.2482678
2.8915484
7.1873961
-1.1107462
3.6905442
2.5423541
2.5397476
1.1075195
3.0284447
1.8476612
4.3537082
0.31901184
-2.7585725
4.7018902
-8.2402046
-0.30856529
-7.1550591
2.2290465
6.1894464
-3.9603999
4.1469759
-2.7601476
-0.25775448
0.40634435
-1.9699519
1.5636075
-3.2257709
-2.6056766
-0.51217588
-1.8813704
2.8614195
2.3682461
-2.3492437
-0.87652722
0.39651474
-5.0619337
3.8281706
-3.7400932
-0.24709912
7.8094972
-3.3443623
0.27184519
-1.4150767
-2.9273558
-3.523285
3.3374213
8.2486551
0.44696545
4.083398
6.790968
3.9347959
0.23773157
5.1081053
-7.1479388
-4.7968221
-7.3453682
-0.44312724
6.092258
2.3005838
9.0897605
8.362611
6.8105346
-2.016931
-10.948701
8.7007599
-2.4524921
7.5649334
-2.2780552
-7.4532185
7.6418509
3.0124352
-8.2666836
-0.29412075
-7.7473393
-10.199831
-0.55958404
6.0499027
-6.8979226
6.2415512
4.2904179
0.57671862
-3.3195508
-0.91021474
3.7103127
-0.4186797
7.3534817
-1.9579831
-7.574187
9.5321701
-4.2314633
3.922898
1.9438003
2.8027476
3.5074079
0.74726019
-6.8269269
-10.787327
-2.101536
-1.8801597
-5.4705326
0.3884408
-2.7566869
5.5954853
-1.6725874
4.2457957
7.8595828
7.6018283
-2.5953753
-5.1072071
5.796334
-1.5505383
6.05129
)
;

boundaryField
{
    wall-4
    {
        type            calculated;
        value           uniform 0;
    }
    velocity-inlet-5
    {
        type            calculated;
        value           nonuniform List<scalar> 8(-1.7582594 -1.7582594 -7.3846893 -4.5714743 -7.3846893 -6.446951 -4.5714743 -6.446951);
    }
    velocity-inlet-6
    {
        type            calculated;
        value           uniform -5.6264299;
    }
    pressure-outlet-7
    {
        type            calculated;
        value           nonuniform List<scalar> 8(7.8254541 7.6590509 7.8597166 8.0726872 7.7700047 7.9330641 7.8108429 7.8976481);
    }
    wall-8
    {
        type            calculated;
        value           uniform 0;
    }
    frontAndBackPlanes
    {
        type            empty;
        value           nonuniform List<scalar> 0();
    }
}


// ************************************************************************* //
