/*--------------------------------*- C++ -*----------------------------------*\
  =========                 |
  \\      /  F ield         | OpenFOAM: The Open Source CFD Toolbox
   \\    /   O peration     | Website:  https://openfoam.org
    \\  /    A nd           | Version:  9
     \\/     M anipulation  |
\*---------------------------------------------------------------------------*/
FoamFile
{
    format      ascii;
    class       volVectorField;
    location    "3";
    object      U;
}
// * * * * * * * * * * * * * * * * * * * * * * * * * * * * * * * * * * * * * //

dimensions      [0 1 -1 0 0 0 0];

internalField   nonuniform List<vector> 
918
(
(0.40041588 -0.084060829 0)
(0.0089814955 2.9584965 0)
(-0.033910722 2.075006 0)
(0.27362665 0.049678303 0)
(-0.013637348 2.0442438 -1.1887532e-20)
(-0.011742424 2.9486578 -2.9595811e-18)
(1.3056473 2.0432191 9.8381069e-19)
(0.74154038 0.41627935 -2.3255702e-20)
(1.9894368 0.0062938638 0)
(0.0038701657 2.0791519 0)
(0.0078628979 2.0170443 0)
(1.2374151 0.015904964 0)
(0.011864279 2.9192377 0)
(0.010902762 2.8461089 0)
(0.073675136 3.1836741 5.8332893e-19)
(0.00083696929 2.0074201 -2.3800398e-20)
(0.93695109 0.22684984 1.6480723e-18)
(0.29296236 2.372397 8.8385333e-19)
(0.7508175 -0.07589946 0)
(0.0034043751 2.0425499 0)
(0.41375039 0.37106891 -1.3144866e-18)
(1.0384787 0.028133813 0)
(0.46159233 0.046662275 0)
(0.42972479 0.14830637 0)
(1.1397197 0.04549773 0)
(0.036234331 2.6099627 0)
(-0.012160996 2.9088108 1.068406e-18)
(-0.0026090713 2.0852778 0)
(0.0012813273 2.0929583 0)
(0.0058043577 2.0854776 0)
(0.0033932545 2.1441813 0)
(-0.0073608372 2.0562256 9.322641e-21)
(-0.0070459979 2.0101396 0)
(-0.018217821 2.981886 -1.0935632e-22)
(-0.018250676 3.0069476 2.2977665e-18)
(0.0010091072 3.001677 0)
(1.2861769 0.011297589 0)
(0.56766721 0.76568467 1.0866456e-19)
(1.346795 1.9331277 -9.9123668e-19)
(1.4492296 1.7991103 1.1381283e-18)
(1.1658423 2.1532658 -2.2753134e-19)
(1.0926101 2.2649101 1.3722983e-18)
(0.80136386 0.43190208 2.2630202e-20)
(0.76851915 0.39105775 0)
(1.6734856 0.99090283 0)
(0.76200219 0.46101727 1.0154982e-19)
(0.67876963 0.43434011 -1.0581699e-19)
(1.1791239 0.032588682 0)
(1.9861506 -0.0020953923 0)
(1.9879273 -0.0077982703 0)
(1.3390899 0.07481977 0)
(1.8729055 0.0038616377 0)
(1.7319445 -0.0023781175 0)
(0.00056864893 1.9378271 -6.4053515e-19)
(0.010690012 2.1445447 0)
(0.023931875 2.1103691 0)
(0.0098031467 2.1249134 0)
(0.0058161123 2.0406937 0)
(-0.0018843672 2.0057161 0)
(0.010816688 2.0711793 0)
(0.010616567 2.0290184 0)
(-0.00034012834 2.0626725 0)
(0.00040563314 2.0262107 0)
(1.3159132 0.0060207207 0)
(1.2772404 0.013055818 0)
(1.2444381 0.015469279 0)
(1.2586962 0.008134598 0)
(1.2393488 -0.0013080497 0)
(0.016423146 3.0136638 1.1285042e-18)
(0.011915344 3.0100115 0)
(0.0076802857 3.0037302 0)
(0.013021589 2.9996056 1.1974881e-23)
(0.010252912 2.9492849 -1.6116318e-18)
(0.015117177 2.984403 0)
(0.01004389 2.9002889 0)
(0.010870647 2.9551527 2.5041105e-24)
(0.005428158 2.8638346 0)
(0.017369173 2.9424135 0)
(0.011373994 2.8115899 0)
(0.175694 3.5155229 0)
(0.12639174 3.4452145 0)
(0.10077627 3.2833702 -5.4289772e-19)
(0.042077523 3.0549205 0)
(-0.0029135751 2.0722364 0)
(-0.0044630154 2.0653376 2.3465519e-20)
(0.00077527535 2.0231532 -3.5041113e-20)
(1.0002463 0.21555851 -5.7078607e-19)
(0.95676186 0.17400413 -5.5585324e-19)
(0.97304776 0.27438702 -1.6958696e-18)
(0.90107338 0.28163045 -1.1183987e-18)
(0.18591298 1.6154863 0)
(0.43830904 2.4708207 -9.6880603e-19)
(0.5616545 2.4739043 1.6284437e-18)
(0.97888768 -0.11736279 0)
(1.0223551 -0.069297816 0)
(1.2146376 0.0082772417 0)
(0.71407577 -0.070577507 0)
(0.83366241 -0.1624577 -3.0660692e-18)
(0.68617103 -0.16595049 2.4145804e-18)
(0.0016084606 2.0798125 0)
(-0.0020285379 2.042834 0)
(-0.0028959882 2.0901008 0)
(0.002825706 2.0774339 0)
(-0.0001208176 2.0409443 0)
(0.45245138 0.52099206 3.8200011e-19)
(0.56778379 0.42779469 0)
(0.76132709 0.28839321 0)
(0.75709171 0.15331558 0)
(1.2585947 -0.00035650425 0)
(1.2261639 0.025463106 0)
(1.2216118 0.0052716731 0)
(1.4931193 0.042917817 0)
(1.1330117 0.066701011 0)
(1.0506689 0.05325786 2.3773128e-18)
(0.0059898573 2.8619354 8.2695261e-19)
(0.026574713 2.9260077 0)
(0.053400184 2.8907511 0)
(0.017047433 2.746842 0)
(-0.013295066 2.981673 1.0270457e-18)
(-0.013268289 2.8887356 0)
(-0.01166436 2.9897973 -3.1661629e-18)
(-0.0095505417 2.9204609 1.0852297e-18)
(0.00065342341 2.1156556 0)
(0.0033782482 2.1143049 0)
(-0.0017371064 2.0567768 -2.7559367e-22)
(0.0014196815 2.0496755 0)
(-0.0014428744 1.9976777 0)
(1.3281041 0.011869963 0)
(1.3046294 0.012072621 0)
(1.2613613 -0.003063551 0)
(1.3245652 0.01504129 0)
(1.2778213 0.012860489 0)
(0.71132558 1.0295003 -1.4758148e-19)
(0.51749254 0.82271411 0)
(0.78981168 1.0851569 2.7810381e-20)
(0.61071227 0.87621378 0)
(1.457 1.6623407 -3.0769886e-19)
(1.545526 1.487057 5.7847219e-19)
(0.68857973 2.4600999 0)
(0.94238236 2.3432857 0)
(0.8394545 2.4218443 0)
(0.5951505 1.4194853 -4.4076437e-19)
(0.84114814 0.40427609 0)
(0.82044765 0.35767708 3.0904016e-19)
(1.5720475 1.3807327 0)
(1.638057 1.1439838 0)
(1.629805 1.2241022 -4.0636301e-19)
(1.6734184 0.89252664 0)
(1.7075436 0.73246581 9.4128681e-20)
(1.3024014 0.01629492 0)
(1.2573746 0.0305786 0)
(1.2441837 0.014921363 0)
(1.02894 0.14123015 0)
(1.1795332 0.073195555 0)
(1.0531146 0.074132348 0)
(1.5022733 -0.00024388537 0)
(1.8805527 -0.006650846 0)
(1.7328478 -0.0071789479 0)
(0.022565123 1.9724229 3.4608456e-19)
(0.035038063 1.9007529 0)
(-0.0062133409 1.9881148 5.6216825e-19)
(0.00079740598 1.9360808 -4.7426696e-19)
(0.19483295 2.3215111 -7.237677e-19)
(0.051919658 2.1842986 0)
(0.10260095 2.2058495 0)
(0.0014449043 2.1021012 0)
(-0.0082273028 2.0351855 0)
(0.0030799021 2.0479413 -1.4359838e-21)
(-0.0014845986 1.9963908 0)
(0.00066570532 2.0530744 -6.9866226e-20)
(0.00013943189 2.0181816 1.2955032e-19)
(-0.010979446 2.0996084 0)
(0.0048384316 2.0893331 0)
(-0.00097700565 2.0390719 0)
(0.0020390467 2.0678159 0)
(0.00054269231 2.0178388 0)
(1.3689847 0.015854542 0)
(1.341887 0.016498967 0)
(1.3549852 0.0079180517 0)
(1.3099384 0.010730504 0)
(1.2828656 -0.0068834038 0)
(1.3231093 0.00058715934 0)
(1.2974843 0.016127555 0)
(1.268381 0.0053833632 0)
(-0.00085812802 3.0612465 -9.5338627e-21)
(0.0062985999 3.0611608 0)
(0.011030565 2.9710177 0)
(0.0057809421 2.8829534 0)
(0.57986494 3.9628424 0)
(1.0158609 2.9583743 8.0661462e-19)
(0.064057272 3.1429193 0)
(0.028017416 2.9558048 0)
(-0.013551247 2.0909668 0)
(-0.0025090122 2.0802871 0)
(-0.0041739186 2.0838617 0)
(0.011830446 2.1356855 1.1234629e-21)
(0.0066901657 2.0732162 0)
(-0.0066298954 2.1072332 0)
(-0.0028055097 2.0213679 8.1067561e-21)
(0.0013112247 2.0705993 4.6001786e-20)
(0.00089066181 2.0766645 3.5672094e-20)
(0.0042541107 2.0329046 0)
(1.0168068 0.16589959 8.6422606e-19)
(0.98155445 0.1339428 -8.4255582e-19)
(0.22864558 1.6947411 0)
(0.26354171 1.5946391 -2.8514657e-19)
(0.1628205 1.7222815 -8.362302e-19)
(0.12238686 1.670603 8.3764554e-19)
(1.2377372 -0.031648073 0)
(1.2404701 -0.036807361 0)
(1.1555251 -0.072940207 0)
(1.1500811 -0.033191289 0)
(-0.0036547218 2.0606508 0)
(-0.010723898 2.0724859 0)
(-0.0066651873 2.0247866 0)
(0.6963803 0.48243839 9.0937104e-19)
(0.62943775 0.49022142 -1.0741707e-18)
(0.62866875 0.44201914 0)
(1.6207359 0.10414942 4.4530984e-20)
(1.6370047 0.11781609 0)
(1.5096148 0.052808547 0)
(1.4224722 0.028774952 0)
(1.0544253 0.11775748 0)
(1.0783088 0.069231009 -3.8257593e-18)
(1.0108197 0.07670446 1.4574485e-18)
(0.006150058 2.9760119 8.7650923e-19)
(-0.002652435 2.8600649 5.7716598e-20)
(0.0026062248 3.0480792 -2.0036748e-20)
(0.010775406 3.0479811 7.2359701e-19)
(-0.0085244453 2.9951097 3.5412018e-20)
(-0.0082463049 2.9386649 -1.4235238e-22)
(-0.012801208 3.019119 -6.7221565e-19)
(0.0019751784 3.0252338 4.8454267e-19)
(0.0067208856 3.0369654 -7.2404666e-19)
(1.3572405 0.015853643 0)
(1.3478558 0.01098411 0)
(1.3022944 0.016550825 0)
(1.3025211 -0.02668851 0)
(1.3093813 -0.0064444638 0)
(1.2643497 -0.016078262 0)
(1.3089311 -0.0015443346 0)
(1.304187 -0.0020313827 0)
(1.2705925 0.0022329128 0)
(0.66675867 1.1310442 1.1688457e-19)
(0.63088307 1.1266766 0)
(0.68071244 1.246078 1.2443051e-19)
(0.79100088 1.3338414 8.9996861e-19)
(0.80510105 1.1989338 -4.9584507e-19)
(0.66876258 1.0736201 9.2569622e-19)
(0.59327508 1.5501153 2.1185059e-18)
(0.52266363 1.4371175 4.3173875e-19)
(0.93416584 0.32262766 1.1915617e-18)
(0.90121578 0.36357803 2.9180349e-19)
(0.87690104 0.32020487 5.8645878e-19)
(1.7235489 0.62991374 1.2362764e-19)
(1.754232 0.50939515 1.2472115e-19)
(0.013167847 2.0048251 2.1723207e-19)
(0.012121981 1.9731034 0)
(1.4391666 0.0304807 0)
(1.4002033 0.023199333 0)
(1.3720847 0.014101439 0)
(0.0024625329 3.0728076 0)
(0.005337569 2.9606468 1.3826286e-18)
(0.0064859252 2.9636742 0)
(0.003116781 2.8732724 -1.380183e-18)
(0.0020752011 3.0829418 3.1859484e-19)
(-0.0031730264 3.0719709 0)
(0.68973543 1.421882 -1.3568144e-19)
(0.89977939 2.0315186 1.8369384e-19)
(0.64429335 1.5374099 -8.2834092e-19)
(0.021618249 2.9988932 -7.6024986e-19)
(0.040892707 3.0507578 0)
(0.015781035 2.8935648 0)
(0.0059911982 2.0637118 -6.6153215e-21)
(-0.0024425051 2.0724983 -1.0793674e-19)
(0.0032724883 2.0351818 -1.9891268e-23)
(0.31569288 1.6649797 8.8945657e-19)
(0.34069614 1.5590366 -6.1581467e-19)
(0.050661409 1.9091703 5.6545525e-19)
(0.10823171 1.8021329 -6.8297931e-19)
(0.066551036 1.7751433 7.5988731e-20)
(0.01758178 3.0977603 -2.0854401e-18)
(0.017558138 3.1034529 2.3609529e-18)
(-0.01237133 2.9708839 9.6906988e-19)
(-0.0062014829 2.9651692 -9.2955853e-19)
(-0.010974577 2.8694119 -9.874927e-19)
(-0.00049346546 3.0855045 -2.4676856e-18)
(0.0063057402 3.0911432 2.4499459e-18)
(0.67468478 1.5111807 0)
(0.74293669 1.4415013 -2.0577505e-18)
(0.65471067 1.3611752 9.2845267e-19)
(0.52683393 1.5592355 1.1886442e-18)
(0.47333539 1.4702252 -1.86591e-18)
(1.7162491 0.21114277 1.0958346e-19)
(1.7284833 0.4099748 0)
(1.7254892 0.27575573 -3.2876169e-21)
(-0.003158187 2.0425223 -1.8856858e-21)
(0.010607095 2.0356151 0)
(-0.0013092073 1.9928907 0)
(0.39234665 1.628311 -3.1113807e-19)
(0.46794598 1.5957351 -7.5242854e-19)
(0.40407776 1.5108026 1.3730034e-18)
(1.1867478 0.28261569 0)
(1.2793501 0.16557789 5.2514227e-19)
(-0.0124221 2.1054075 0)
(-0.0059481415 2.1176174 0)
(1.5034854 -0.11068566 -2.3525304e-20)
(1.2062514 -0.26083322 1.1935774e-18)
(0.023671441 2.1274342 -1.4688487e-21)
(0.011906002 2.1242216 0)
(0.096230712 3.1989657 4.9481683e-19)
(0.37563089 3.504194 0)
(1.4619874 0.93133563 -1.3498405e-19)
(1.3062808 -0.17411952 7.4556879e-21)
(1.3460554 0.081016578 0)
(1.9779408 0.00072382064 1.796654e-22)
(0.054604859 2.2364246 0)
(0.059883949 1.9987052 0)
(0.015575104 2.1432799 0)
(0.012762761 2.1083701 1.0000694e-19)
(0.021727661 2.1050562 5.3115138e-20)
(1.3332902 0.0083248868 1.0239891e-21)
(1.4001256 -0.0075154291 0)
(1.4162146 0.03226997 0)
(-0.0091321136 2.0847299 0)
(-0.022971259 2.1282397 0)
(-0.0013620401 2.1276826 0)
(0.31939197 2.3493364 -3.4393342e-19)
(1.1813585 0.3174987 0)
(1.1373007 0.2554482 0)
(1.9106886 0.03805593 7.6667627e-19)
(1.6510337 0.15009523 -7.8720078e-19)
(1.876578 0.041688268 0)
(-0.016334535 2.090846 0)
(-0.00061324812 2.0989893 0)
(-0.014765338 2.0916969 0)
(7.8068309e-05 2.1348567 0)
(0.0049542537 2.1186069 0)
(0.0016705435 2.1294028 0)
(1.3725721 0.015146715 0)
(1.3591117 -0.0078520003 -4.0702412e-21)
(1.0173872 1.9839804 4.9319435e-19)
(1.8933451 -0.045228602 -7.6706194e-19)
(1.6719414 -0.19223613 7.618971e-19)
(1.8727245 -0.033926998 0)
(1.3026465 -0.25435066 9.2316794e-19)
(1.1517407 -0.3242774 -9.2054915e-19)
(1.1117298 -0.26690462 0)
(-0.020924681 2.1276752 0)
(-0.0026774473 2.1209944 1.1528939e-20)
(-0.011462266 2.1244075 -5.5099452e-21)
(1.5567783 0.3553004 1.051099e-18)
(1.4710665 0.085642154 0)
(0.1756317 3.0868595 -1.1217019e-18)
(0.073677279 2.8568374 -9.3013939e-20)
(0.18387421 3.2438993 1.2618044e-18)
(0.15808449 3.2572896 -2.2795347e-19)
(0.1480194 3.2750356 0)
(0.052735428 3.1387881 3.0526131e-19)
(0.10654036 3.161153 1.1261551e-18)
(0.10590714 3.2044233 -5.7797986e-19)
(0.091192925 3.1037723 0)
(0.90137813 0.47254905 0)
(0.79563755 0.54769494 0)
(1.3667626 0.98990174 3.4521692e-19)
(1.4222229 1.1777996 -3.6484336e-19)
(1.5138503 0.73179448 0)
(1.5849831 0.71619463 0)
(1.3406242 -0.13437925 -1.8141328e-18)
(1.3280303 -0.091621793 2.3380623e-18)
(1.360006 0.072215243 0)
(1.358269 0.051772771 0)
(1.6248858 -0.041684661 0)
(1.5054391 -0.11604237 0)
(1.7905044 -0.1060484 0)
(1.4863949 -0.24705216 0)
(1.5113319 -0.24016183 0)
(1.6461561 -0.21729708 0)
(0.047146378 2.2320329 0)
(0.03944111 2.2467007 0)
(0.058814951 2.2590373 0)
(0.069039718 2.2945246 0)
(0.10181386 1.9927912 0)
(0.11720663 1.9842669 -3.8102039e-19)
(0.027297137 2.0296703 0)
(0.0093323197 2.0269445 1.8608895e-19)
(0.028492789 2.0941283 -1.8119791e-19)
(0.013585689 2.1435768 0)
(-0.0092947116 2.1268346 0)
(0.026711673 2.149094 0)
(0.020669448 2.171959 0)
(0.00071620146 2.0803487 -7.2291701e-20)
(0.017323373 2.1096159 6.8819172e-20)
(0.007460523 2.1132186 8.6368537e-20)
(0.017110405 2.1173516 0)
(0.013087417 2.1133579 -1.1573524e-19)
(-0.0069414508 2.1099771 -6.9521535e-20)
(0.0052044703 2.0629579 5.5759008e-20)
(0.012040751 2.0961066 -8.9486922e-20)
(0.011288103 2.0998938 -1.0805232e-19)
(1.3478898 0.028132551 1.8287631e-18)
(1.3545698 0.024266657 -2.3031194e-18)
(1.3304266 0.019203989 -1.8617666e-18)
(1.2953764 -0.0040802233 2.4148125e-18)
(1.4042226 -0.0060338649 0)
(1.4137703 -0.010290905 0)
(1.4128473 0.03727984 0)
(1.4196415 0.011348304 0)
(1.4345508 0.027473294 0)
(1.4457029 0.08954846 0)
(1.4259734 0.044560318 0)
(1.457762 0.059480876 0)
(0.023957814 2.1226787 -2.8999994e-21)
(-0.0081423763 2.0795564 0)
(0.018167794 2.0874357 0)
(-0.012672857 2.1267629 2.2901176e-20)
(-0.0090522859 2.1251888 -9.0413866e-22)
(0.00074273683 2.034782 2.0787785e-20)
(0.0038379834 2.0745675 -2.0849979e-20)
(0.029307879 2.1038244 0)
(0.023829801 2.0958201 0)
(0.014282991 2.0946509 0)
(-0.014465448 2.1311382 0)
(-0.018913679 2.1144275 0)
(0.47843727 2.3143738 5.7711385e-19)
(0.49237124 2.3593976 2.8237765e-19)
(0.32253812 1.8023949 -2.1270271e-19)
(0.16092261 1.8317071 5.4798796e-19)
(0.37959772 1.9475553 1.3743959e-19)
(1.3212305 0.11307048 0)
(1.2550786 0.16630717 0)
(1.2553589 0.13034432 0)
(1.6607114 0.051085612 0)
(1.779833 0.10694244 0)
(1.5794286 0.22591705 0)
(1.4268421 0.27071343 0)
(1.4306427 0.25731214 0)
(1.3547121 0.0077351063 1.8190661e-18)
(1.3606126 0.017230009 -2.3215842e-18)
(1.3594213 -0.021571443 -1.8136094e-18)
(1.3562958 -0.020847427 2.3095584e-18)
(1.0027073 1.9929356 0)
(0.88799128 2.1904706 4.3784269e-19)
(1.1161431 1.7915383 1.1118328e-19)
(1.1915204 1.7917671 -1.4853397e-19)
(1.1217622 2.0149088 5.7989245e-19)
(1.1232264 0.16381608 9.0488032e-19)
(1.4626447 0.12953347 0)
(1.5059759 0.23445551 -8.2600771e-19)
(1.5406038 0.19413391 -3.2010088e-20)
(1.2980316 0.16998757 0)
(0.27653193 3.1459461 3.3538479e-19)
(0.24832378 2.9437183 -1.3836293e-18)
(0.22963936 2.2757151 1.0898513e-18)
(0.32651506 0.41923673 -4.7794056e-19)
(0.27119264 3.4451612 -1.759993e-19)
(0.18146771 3.3642226 0)
(0.17760984 3.3784728 2.4670246e-19)
(0.26029583 3.2334465 -8.8551791e-19)
(0.33512868 3.3284138 0)
(0.020254622 3.1036806 6.1026286e-20)
(0.025814684 3.1154181 -6.9012004e-19)
(0.046338474 3.1081076 1.0721602e-18)
(0.057366292 3.1284748 0)
(0.059274612 3.1511315 0)
(1.0628681 2.3581644 0)
(0.46613386 0.98046322 -6.2052432e-19)
(1.3711695 1.471932 5.3436409e-20)
(1.2632707 1.5238563 0)
(1.017068 1.3731953 -2.1434791e-19)
(1.3308397 1.2480441 4.5992928e-20)
(0.5915775 0.68511588 -1.099953e-18)
(0.92287705 0.47064931 -3.4648123e-20)
(0.93212645 0.43414835 6.2368777e-19)
(0.78825552 0.55768392 4.2607573e-20)
(0.75400251 0.53980614 -1.7453611e-18)
(0.90194335 0.47750477 0)
(0.90615213 0.54083594 1.0026809e-18)
(0.92507855 0.53482803 0)
(0.83120471 0.51925895 0)
(0.85237306 0.46461784 0)
(0.94287065 0.84332251 6.6685012e-19)
(1.5376958 0.40013377 -8.6765237e-19)
(1.5615623 0.55721315 0)
(1.5909891 0.55546942 0)
(1.0396114 0.32240443 9.6020102e-19)
(0.98489868 0.68570825 -5.9057525e-19)
(0.92247746 0.63307804 1.0593512e-18)
(1.1579649 0.54847888 -1.1620697e-18)
(1.3561845 0.011420748 1.2387485e-18)
(1.3466325 -0.077731177 -1.2585372e-18)
(1.3525263 -0.024786905 0)
(1.373166 0.0076337003 0)
(1.3799814 0.005955524 -1.1871518e-18)
(1.3747066 -0.0068785129 1.1765262e-18)
(1.356178 -0.017349779 0)
(1.3440196 -0.0086241547 0)
(1.4705937 -0.090228212 0)
(1.4099601 -0.10492326 0)
(1.3921146 -0.017848708 0)
(1.4285009 -0.010018822 0)
(0.032168946 2.2337018 0)
(0.019448167 2.2159719 0)
(0.11170534 2.1647208 -8.677992e-21)
(0.30818876 2.3233004 1.6946643e-19)
(0.13570416 2.3086526 3.7630468e-19)
(0.18497875 2.3379125 -6.0664661e-19)
(0.18093294 2.2313983 0)
(0.14689158 2.0938987 -1.038639e-19)
(0.12781769 2.1112274 0)
(0.35303337 2.0006821 -1.9117734e-19)
(0.26851426 1.9300448 6.6137495e-19)
(0.20340474 2.1201507 9.3226668e-20)
(0.32255039 2.2388833 7.8492272e-20)
(0.25494038 2.215688 -6.4112515e-20)
(0.3661987 2.1359179 -9.5310098e-20)
(0.2781483 2.0569124 0)
(0.32879319 2.0622963 9.4186475e-20)
(0.048184102 2.0817406 -6.0823459e-20)
(0.052105058 2.0839429 0)
(0.077478216 2.0605261 2.2767977e-19)
(0.069276726 2.0668242 0)
(0.029277773 2.0499341 -2.0644693e-19)
(0.043569225 2.0762099 0)
(0.0046584996 2.1065059 -3.4526679e-20)
(-0.011475648 2.1134573 0)
(0.018804944 2.0994838 0)
(0.02436715 2.0937936 3.9168227e-20)
(0.011084802 2.1089397 -4.8579089e-21)
(0.0087492789 2.1072161 2.1771185e-19)
(0.0064691484 2.1073042 1.5902309e-21)
(0.010958069 2.0630941 4.0046547e-20)
(0.0008427574 2.0589723 3.076462e-20)
(-0.006052276 2.1295552 0)
(0.0090608601 2.1118416 0)
(0.020248119 2.089128 1.3714351e-19)
(0.034552845 2.0864306 9.7187054e-20)
(0.012033567 2.0883191 -1.3710753e-19)
(0.041035736 2.082125 0)
(0.0076371245 2.1228793 -5.3132061e-20)
(0.019197809 2.1100732 3.7579454e-20)
(0.025397585 2.0972159 -1.4430355e-20)
(0.00086881369 2.0672351 -4.7424507e-20)
(-0.023691403 2.0904071 -1.7881918e-20)
(-0.0078220318 2.0929599 7.6042643e-20)
(1.3569378 -0.018543988 -1.2276336e-18)
(1.3508029 0.036635783 1.2255801e-18)
(1.3521757 0.017722325 0)
(1.3039145 0.071806408 1.7428657e-18)
(1.2672717 0.040123088 -1.9585313e-18)
(1.2447059 0.035828361 2.1710352e-18)
(1.2969994 0.064959532 -2.3504233e-19)
(1.389651 0.012857497 0)
(1.3964005 -0.0046370354 1.1419733e-18)
(1.3935977 -0.0015331944 -1.133382e-18)
(1.3470146 0.040176788 -6.7573325e-20)
(1.3519395 0.016995875 5.8836878e-19)
(1.3291438 0.068367168 0)
(1.3205635 0.061314714 -2.1030927e-19)
(1.3562672 0.04868718 0)
(1.3503515 0.04125273 0)
(1.3606204 0.0063311581 0)
(1.3571121 0.0073752808 0)
(1.3564113 0.036963603 4.2855787e-19)
(1.3396946 -0.006963749 -9.2813824e-19)
(1.2596849 0.0085514995 -4.6486141e-19)
(1.2948375 0.021659786 -5.046923e-19)
(1.3271267 0.083713398 9.580225e-19)
(1.3965531 0.075270051 0)
(1.3973383 0.10398017 0)
(-0.011784681 2.1243233 -4.8097716e-20)
(-0.032720437 2.1199238 -2.1490319e-21)
(-0.029794008 2.1148065 0)
(-0.019986448 2.1231135 4.9743376e-20)
(0.011573177 2.1242076 4.8170263e-21)
(-0.0096081905 2.1258534 -4.8320744e-21)
(-0.0051224562 2.1102686 5.9706523e-20)
(0.017826959 2.0884647 -4.173602e-21)
(-0.012553786 2.0950541 1.8554496e-20)
(0.016869285 2.1139613 -3.1150204e-20)
(0.011075729 2.1086677 3.8305384e-20)
(0.017096691 2.0659612 -1.8297047e-21)
(0.01155478 2.0261489 1.4672507e-20)
(0.47394859 2.1780345 -2.4632018e-19)
(0.42166726 2.1375639 1.3636953e-19)
(0.88949227 2.1860844 -4.2573352e-19)
(0.6949833 2.2816116 -2.723677e-19)
(0.71401702 2.3031552 0)
(0.38989677 1.7957317 2.1641008e-19)
(0.40637134 1.7924728 3.1484186e-19)
(0.19747968 1.8297331 4.8038843e-20)
(0.21108589 1.818463 -7.6627351e-19)
(0.27222926 1.8122679 6.2400699e-19)
(0.2868694 1.8264316 0)
(0.20690014 1.8306934 -4.7097247e-19)
(0.15863143 1.9308117 9.6198396e-19)
(0.16548358 1.8653265 -4.59096e-20)
(0.12946896 1.8881624 -1.3043065e-18)
(0.72514124 1.7436849 1.2137954e-18)
(0.55422998 1.7655372 0)
(1.5554943 0.065564012 3.49843e-20)
(1.4535919 0.23801416 -2.9802362e-20)
(1.3832872 0.17717887 -5.6450066e-19)
(1.414894 0.086687212 5.7234416e-19)
(1.4868486 0.058683653 0)
(0.85701478 1.9227707 0)
(0.74721258 1.8106991 0)
(0.91885804 1.6278648 0)
(0.7443324 1.7151654 0)
(1.1161672 1.9750698 5.5734044e-20)
(1.160699 1.8651023 0)
(0.76273884 1.9216011 9.0965981e-21)
(0.60835598 1.8480143 0)
(0.69019694 1.8034368 -8.3858231e-19)
(0.73839242 1.8191565 5.6310513e-19)
(1.1387835 0.20298074 0)
(1.1015713 0.21863997 2.517828e-19)
(1.2049944 0.13360778 1.4227207e-18)
(1.1495428 0.12921021 -5.2306602e-19)
(1.1364145 0.089748139 -1.659321e-18)
(1.3168968 0.29642609 -1.3829092e-18)
(1.2383769 0.36529553 -3.0157146e-20)
(1.1254881 0.35365447 1.3134858e-18)
(1.2285961 0.29545317 1.1701954e-18)
(1.2389675 0.16847234 -1.9084685e-18)
(1.2080661 0.19418151 2.3817715e-19)
(1.1373262 0.31751012 -5.3178791e-19)
(1.1901821 0.25847375 0)
(1.2895977 0.2167638 9.4579021e-19)
(1.2814442 0.21759499 0)
(1.2814023 0.28102544 0)
(1.3969847 0.15043825 4.6055743e-19)
(1.2970126 0.20883938 -2.0690219e-20)
(1.3168413 0.24966878 -2.5985163e-19)
(1.3942406 0.2559791 0)
(1.3508684 0.063871598 9.3937806e-19)
(1.348427 0.070859602 1.2097073e-18)
(1.3563414 0.07199158 -9.0386818e-19)
(1.3485314 0.081351769 -8.1810709e-19)
(1.3311408 0.094149975 -1.2481392e-18)
(1.2956145 0.11739176 0)
(1.2720832 0.057513597 0)
(1.2366086 0.090283081 -7.8380731e-19)
(1.2264732 0.10318884 3.0086866e-19)
(1.3428407 0.088566883 1.1132082e-18)
(1.324027 0.12235946 -1.3240111e-18)
(1.3217953 0.14145694 1.1873148e-18)
(1.3155304 0.14535099 0)
(1.3363678 0.097167097 0)
(1.3279231 0.095253842 -5.453663e-19)
(1.3537174 0.10734348 -9.1889493e-19)
(0.66015127 1.9087023 3.3378545e-19)
(0.66737306 2.0754 -4.2511916e-19)
(0.86056868 2.2910367 -3.3156502e-19)
(0.86296062 2.7874991 4.4672784e-20)
(1.0982747 2.1695797 -4.2453557e-19)
(1.0890345 2.3268751 -9.0561371e-20)
(1.1020593 2.0542841 -1.029163e-20)
(0.96937736 2.5266141 -2.3290895e-19)
(1.0051744 2.425502 4.4696257e-19)
(0.93507427 2.9766366 -1.1761707e-19)
(1.0684502 2.6930498 1.2296599e-19)
(1.1022494 2.6815763 0)
(0.40332773 1.1169991 -7.3737435e-20)
(0.42891252 1.6123279 3.5546813e-19)
(0.80229071 0.61076797 7.7752459e-19)
(0.6392077 0.45568662 9.3994836e-19)
(0.72610774 0.57065327 9.6527665e-19)
(0.72749837 0.61390641 -1.5499251e-18)
(0.67371603 0.61528568 1.2240231e-18)
(0.67398194 0.58099167 -4.7327812e-19)
(0.67926288 0.57124504 1.1481471e-18)
(1.0414831 0.3513394 -5.4029829e-19)
(0.98034191 0.40131042 0)
(0.99533565 0.3592988 2.2742618e-20)
(0.83586128 0.66675441 5.4041025e-19)
(0.84976565 0.5990883 -1.9564577e-18)
(0.72752791 0.62290218 1.6078986e-20)
(0.7905466 0.6024899 0)
(0.63385711 1.0221084 5.9757846e-19)
(0.96468451 1.0713494 6.5666172e-19)
(0.84496825 1.1874615 -7.4029414e-19)
(1.0004576 1.1030862 -2.7231491e-19)
(1.1497324 1.1672876 -7.4110474e-20)
(1.0980771 1.1697644 7.4508652e-20)
(1.0685032 0.8011969 -1.1172172e-18)
(1.0995339 0.93758009 2.5539631e-19)
(1.1920517 0.97718218 0)
(1.2531119 0.92567089 -3.4521402e-19)
(1.2529486 0.40305543 3.5497885e-19)
(1.428719 0.38034221 5.045889e-19)
(1.3303574 0.34400137 5.7341426e-19)
(1.2012288 0.50687905 -7.144037e-19)
(1.3029686 0.51501972 0)
(1.3441188 0.50718786 0)
(1.1517709 0.47734732 3.7796831e-20)
(1.0425807 0.39449424 0)
(1.0664245 0.37621807 6.3462792e-19)
(1.1340247 0.35578242 -2.8142154e-20)
(1.1386285 0.56046188 3.0804055e-18)
(1.0833833 0.63052685 8.5376405e-19)
(1.0689601 0.58391997 -8.9503232e-19)
(1.0034155 0.53321701 9.6560801e-19)
(0.96728102 0.53135316 5.6303762e-19)
(0.93185463 0.54763729 -5.5055411e-19)
(1.3356333 0.033729084 9.9055623e-19)
(1.3700575 -0.012234757 0)
(1.3909389 0.035488307 6.6399479e-19)
(1.3377697 0.038228204 -1.4926328e-18)
(1.3711902 -0.0063934579 7.1053519e-19)
(1.3866001 0.025502444 -1.4996006e-18)
(1.3556575 -0.0046363994 0)
(1.3301879 -0.03892023 -3.1355501e-19)
(1.3812663 -0.0094126116 7.788128e-19)
(1.3778525 -0.047834167 -4.0075917e-19)
(1.3388169 -0.047750456 2.9584109e-19)
(0.018893867 2.1759664 0)
(0.025620614 2.1062908 0)
(0.0084446218 2.2022715 0)
(0.0089270954 2.1926453 0)
(0.068436584 2.1120389 5.5160034e-20)
(0.066791363 2.1250991 -1.9013884e-20)
(0.11185973 2.1170734 -4.689226e-20)
(0.078528475 2.100052 -9.795598e-21)
(0.049215096 2.0923095 -8.8565701e-20)
(0.047314122 2.0899813 6.7510079e-20)
(0.069695122 2.1175124 -3.7213001e-20)
(0.057643992 2.1599355 1.834238e-20)
(0.04034434 2.1146981 -2.4146564e-24)
(0.029827171 2.1048753 -9.3574057e-21)
(0.071713927 2.0487924 -2.4401855e-19)
(0.058532144 2.0175615 0)
(0.086415896 2.0069354 1.3524514e-19)
(0.10888816 2.0987862 9.000583e-20)
(0.23986617 2.0168632 -1.033536e-19)
(0.22436438 1.9747275 0)
(0.23188363 1.9268489 -7.0001695e-19)
(0.26091415 1.9606309 4.9973341e-19)
(0.17353226 2.0369404 -2.6154295e-19)
(0.12579048 2.0070119 1.5182146e-19)
(0.13830218 1.9793487 0)
(0.021578757 2.0817614 -1.6705431e-19)
(0.016201447 2.1017946 -1.9398308e-19)
(0.013205102 2.073034 0)
(0.021232562 2.085075 -6.0176523e-21)
(0.034691899 2.0752123 8.3618326e-20)
(0.011799336 2.147068 4.7181563e-21)
(0.011693296 2.1507567 -7.3412117e-20)
(0.0026888697 2.1385296 6.7039339e-21)
(-0.0011580127 2.0991859 4.2713126e-20)
(0.01520302 2.1178766 0)
(2.3486799e-05 2.1382407 0)
(-0.016049333 2.1227646 2.8810385e-20)
(-0.0076605515 2.1461042 -9.914774e-21)
(-0.0031428526 2.1361769 0)
(0.018823973 2.1206927 2.4572525e-20)
(-0.0014897198 2.1132797 -4.5241057e-20)
(1.3288751 0.012901854 0)
(1.3436313 0.065428636 -1.0583968e-19)
(1.3686521 -0.0089112329 -7.3368694e-19)
(1.3437665 0.013817908 0)
(1.3578831 0.060014383 0)
(1.3450109 0.001109349 -2.7878435e-20)
(1.3297807 0.01830229 1.1969423e-18)
(1.3312028 0.01504825 1.4784779e-18)
(1.3467352 0.02588545 0)
(1.3395018 0.0090061843 0)
(1.3268711 -0.00063454344 7.6027154e-19)
(1.3433808 0.0034248804 0)
(1.3382229 0.012611848 0)
(0.055388742 2.1133024 0)
(0.01435763 2.0317723 -5.6834814e-21)
(0.027186956 2.1342755 1.101753e-20)
(-0.01496614 2.1285827 0)
(0.018539321 2.0261169 2.8201205e-20)
(-0.0024690259 2.0727776 -1.5330276e-21)
(-0.016139851 2.1439457 0)
(0.45988023 1.9551883 0)
(0.43433908 2.096884 -3.2789173e-19)
(0.43403811 2.0085773 0)
(0.5796746 2.0950918 1.9361977e-19)
(0.6416263 2.1769103 0)
(0.58428799 2.1557217 -1.3198834e-20)
(0.7645509 1.7716787 -2.6079011e-20)
(0.79526018 1.7578637 -1.4100396e-18)
(0.85560807 1.7369633 1.7657851e-18)
(0.59034432 1.7773694 3.3937397e-19)
(0.60409706 1.7953062 0)
(0.65473657 1.7817888 0)
(0.68916429 1.7748749 0)
(0.61594592 1.7665991 -1.2599212e-18)
(0.45308104 1.8475402 -6.4604388e-19)
(0.55222203 1.811705 -1.600622e-19)
(0.5709454 1.8248077 1.2825374e-19)
(0.45942795 1.7835409 0)
(0.54024105 1.7843452 0)
(0.48745046 1.7729462 -3.6867462e-19)
(0.53171767 1.8111829 0)
(0.63532131 1.6898889 0)
(0.31507601 1.4933773 -9.0091181e-19)
(0.45263944 1.2984476 -6.1926982e-20)
(0.55301602 1.8010701 0)
(0.41562845 1.7967187 1.3765687e-18)
(0.87401423 1.2628719 -2.2245182e-19)
(0.91445254 1.4882255 0)
(0.92684203 1.3471365 3.5084155e-19)
(0.6847829 1.5512909 0)
(0.66467006 1.3755609 0)
(1.0271255 2.0207316 -3.2821828e-19)
(0.9061712 2.1438294 -3.336138e-19)
(0.81921564 2.0167251 6.7684571e-19)
(0.83574892 1.9447757 -2.1435518e-19)
(1.0233783 1.905715 0)
(0.94941837 1.8545661 2.7769116e-19)
(1.1291831 1.8255764 -4.0307524e-19)
(1.1092048 1.7671066 -2.6494623e-20)
(0.71432881 1.9050991 0)
(0.69009103 1.9183877 -2.9458243e-19)
(0.6785626 1.8716996 0)
(1.1318651 0.27114071 0)
(1.1031732 0.22592538 0)
(1.0582763 0.24597023 0)
(1.1162837 0.28688264 -9.8162782e-19)
(1.0617181 0.29111578 5.7315074e-19)
(1.2128238 0.11332564 -5.914645e-19)
(1.2415072 0.13455071 0)
(1.2227945 0.12944771 2.6334578e-19)
(1.1614423 0.072813426 1.0664667e-18)
(1.1693297 0.09113865 -6.7904851e-19)
(0.94196741 3.2171201 -3.908455e-19)
(0.85771467 3.1765773 0)
(0.98119453 3.2114903 -1.0786436e-18)
(0.32003368 3.4798103 9.640143e-19)
(0.43572825 3.2105944 8.6578693e-20)
(0.22923215 1.2321328 4.6795551e-19)
(0.12807798 1.5345561 0)
(0.36081928 0.61935569 -1.7035168e-19)
(0.45496097 0.79533567 1.0187559e-18)
(0.69317951 0.57679848 -2.7210614e-19)
(0.70943499 0.67335654 2.6524547e-19)
(0.75107185 0.66582746 6.8597813e-19)
(0.80614466 0.68969799 0)
(0.75018226 0.72748607 0)
(0.74714382 0.66487575 0)
(1.2678256 0.76135567 1.6499477e-19)
(1.0973449 0.66290529 -8.1677265e-19)
(1.1038557 0.73169023 6.8379609e-19)
(1.1524602 0.65844369 -6.4512877e-19)
(1.3573601 0.64153496 0)
(1.3885708 0.69681892 -1.7121849e-19)
(1.0093031 0.49545428 -1.3049184e-18)
(1.0261257 0.49556306 -1.5996226e-18)
(0.97067562 0.5024919 1.0106284e-18)
(0.97225501 0.46115431 -1.0132713e-18)
(1.0197382 0.41178875 -7.9978626e-19)
(0.98552454 0.41818469 9.9189095e-19)
(1.3702923 -0.011014917 -7.5257167e-19)
(1.3735188 -0.0081717411 1.5304764e-18)
(1.3344601 0.043565061 9.4797252e-19)
(1.3344748 0.055561167 -1.1318412e-18)
(1.3114222 0.035875398 0)
(1.3201511 -0.00157013 -1.9289113e-18)
(0.083668535 2.1272279 3.6093729e-20)
(0.056565195 2.0859601 0)
(0.109706 2.1028222 3.1017581e-19)
(0.11538758 2.1037778 -2.7641785e-19)
(0.10395287 2.0954518 8.2785893e-20)
(0.074264769 2.0587895 0)
(0.018371361 2.0665695 0)
(0.017618326 2.1328574 -6.6685145e-21)
(0.00036074051 2.1067779 6.0390283e-21)
(0.027758503 2.0691503 -5.5745219e-21)
(0.054458247 2.0973615 -1.8619056e-20)
(0.0084818213 2.0767651 1.436598e-20)
(0.65068191 1.898796 -8.3018539e-19)
(0.60918834 1.8982362 8.7241026e-19)
(0.59445632 2.0468955 -1.3851653e-19)
(0.55972883 1.9630805 3.3790761e-20)
(0.83062166 1.9789349 0)
(0.74691458 2.110382 1.8520005e-19)
(0.81913154 2.0941614 -1.8038739e-19)
(0.64916605 2.0474264 1.3810573e-19)
(0.68782359 1.9277243 0)
(0.72312535 1.9121304 0)
(0.43418897 1.8220326 9.5960783e-19)
(0.44901525 1.7863979 1.487926e-18)
(0.48790347 1.8067957 -1.0508844e-18)
(0.39233186 1.7976868 -1.8692866e-19)
(0.3535775 1.8233928 3.3200925e-19)
(0.29913694 1.7987099 -8.3128995e-19)