/*--------------------------------*- C++ -*----------------------------------*\
  =========                 |
  \\      /  F ield         | OpenFOAM: The Open Source CFD Toolbox
   \\    /   O peration     | Website:  https://openfoam.org
    \\  /    A nd           | Version:  9
     \\/     M anipulation  |
\*---------------------------------------------------------------------------*/
FoamFile
{
    format      ascii;
    class       surfaceScalarField;
    location    "0.57";
    object      alphaPhi0.phase1;
}
// * * * * * * * * * * * * * * * * * * * * * * * * * * * * * * * * * * * * * //

dimensions      [0 3 -1 0 0 0 0];

internalField   nonuniform List<scalar> 
19800
(
4.4710057e-88
-1.249436e-87
6.1248659e-88
-1.301926e-87
2.5909202e-86
-5.2983278e-87
8.6501667e-85
-1.8732261e-85
1.1300904e-84
-2.8311266e-85
3.6976037e-85
-1.3852789e-85
9.372558e-86
-4.201019e-86
5.740754e-86
-1.2311268e-86
5.9824986e-86
-2.9404032e-86
6.2480818e-86
-2.9316759e-86
3.6821572e-84
-1.6728779e-85
1.0652858e-81
-3.4067213e-83
5.6214681e-80
-1.90222e-81
7.0763597e-79
-2.3901117e-80
3.8260623e-78
-1.3131922e-79
1.3662649e-77
-4.1271765e-79
3.7337426e-77
-9.4245008e-79
6.9229917e-77
-1.4683395e-78
9.3054708e-77
-1.434602e-78
1.905091e-75
-1.0122372e-77
2.0231402e-73
-8.5845433e-77
1.897207e-71
9.8040008e-74
1.4996654e-69
1.6571606e-71
1.0285555e-67
1.7494686e-69
6.6571236e-66
1.5480831e-67
4.5787372e-64
1.3761238e-65
3.0844764e-62
1.162975e-63
2.3457089e-60
1.0868607e-61
3.5314811e-58
2.0057738e-59
1.429557e-56
1.0087117e-57
2.4793563e-55
2.1008146e-56
3.4145724e-51
3.4215329e-52
1.2119685e-47
1.9232748e-48
2.124035e-47
4.4052862e-48
4.5361475e-47
1.7067288e-47
3.5279713e-47
1.7177877e-47
7.0951802e-48
8.4503278e-48
3.2312215e-49
1.2231467e-48
1.1180758e-49
1.3519425e-49
7.5469058e-50
1.1756113e-49
2.9978699e-49
2.9649335e-49
5.528995e-48
3.4673917e-48
1.0472999e-46
3.9438468e-47
1.715597e-45
3.4483272e-46
2.2051597e-44
1.9873416e-45
2.14094e-43
4.0999679e-45
1.5809388e-42
-5.3461701e-44
9.1764547e-42
-7.6808177e-43
4.08758e-41
-4.6981794e-42
1.3542615e-40
-2.1340153e-41
2.4742936e-40
-4.7039298e-41
7.2538905e-39
-8.6921923e-39
9.7501633e-37
-1.3007991e-36
6.2351922e-35
-9.8522227e-35
1.0020017e-33
-2.9030243e-33
2.5530531e-33
-3.6043064e-32
1.1546108e-32
-5.9752259e-32
1.376355e-33
-2.036653e-33
9.5830966e-35
-9.1297145e-35
5.1929108e-36
-1.0467283e-35
2.6839949e-38
-1.4911902e-36
2.6424224e-39
9.648638e-41
1.3428112e-39
8.9311246e-41
4.9753019e-40
6.5228581e-41
8.8854185e-41
2.5571365e-41
5.3374505e-42
4.043019e-42
1.6933823e-43
2.9791552e-43
3.0730153e-45
1.1772074e-44
3.0172853e-47
2.302784e-46
2.7532655e-49
3.1077074e-48
2.4212649e-51
3.7224265e-50
1.7622719e-53
3.7857252e-52
1.0280395e-55
3.1563285e-54
4.9246013e-58
2.184465e-56
1.8450814e-60
1.2774824e-58
4.3611134e-63
5.5464029e-61
7.0987609e-66
1.7698146e-63
8.6915117e-69
4.9002651e-66
-2.0631951e-71
1.6137283e-68
-4.1974573e-73
7.2565296e-71
-3.6212098e-75
3.4756242e-73
-1.6193727e-76
1.6412971e-75
-7.0056821e-77
5.8581371e-77
-2.8758971e-77
1.9506775e-77
-1.064538e-77
5.6981332e-78
-3.3108211e-78
1.5024162e-78
-7.5522465e-79
3.1517077e-79
-8.1485904e-80
4.3569557e-80
-2.1741644e-81
2.3171484e-81
-9.6003834e-84
1.2521928e-83
-1.1470751e-86
-1.359608e-85
-1.2713659e-86
-3.5370454e-86
-1.424333e-86
-3.5294333e-86
-2.1317162e-86
-4.532722e-86
-8.350715e-86
-2.9928712e-86
-7.977623e-86
-1.0110424e-84
-3.3875657e-86
-3.0856925e-84
-7.1876958e-87
-9.5941109e-85
-2.6141015e-87
-5.6338044e-85
-5.5929309e-85
1.4291332e-87
-3.0051081e-87
9.336987e-86
-7.4338165e-86
3.7454395e-84
-2.5878692e-84
2.1114195e-83
-1.7700218e-83
2.6365522e-83
-2.3175716e-83
2.0587706e-83
-1.7782849e-83
1.3173181e-83
-1.1335018e-83
4.3151023e-84
-4.7240071e-84
4.4233045e-85
-8.696094e-85
1.7046928e-85
-6.8129159e-86
2.9808563e-84
-2.5533086e-85
6.876577e-82
-4.3578174e-83
4.3307334e-80
-2.4352081e-81
5.7993627e-79
-2.3535549e-80
3.6574126e-78
-1.4494746e-79
1.3260014e-77
-6.1472557e-79
3.4842752e-77
-1.366978e-78
6.3706318e-77
-2.0452917e-78
9.7081339e-77
-7.0074231e-78
2.7092381e-74
-7.7239947e-76
3.4215703e-72
1.512384e-74
2.8507999e-70
5.8456311e-72
1.9015262e-68
7.0730581e-70
1.153464e-66
6.31334e-68
6.725913e-65
4.9291446e-66
5.1974624e-63
4.8997837e-64
5.7395251e-61
6.8500438e-62
6.1960043e-59
9.1623913e-60
4.4754034e-57
7.8558413e-58
3.9703348e-55
8.5373307e-56
2.6725124e-52
7.0156204e-53
5.9238764e-50
1.8159755e-50
3.5766978e-46
2.6895718e-46
2.0776016e-46
2.2337856e-46
8.3958577e-47
6.8929927e-47
1.3486421e-44
1.8110704e-44
1.0486894e-44
1.8725682e-44
1.0992157e-45
6.5134706e-45
1.3031501e-47
3.5065533e-46
5.2944519e-48
1.7782782e-47
5.7413275e-47
1.0023504e-46
8.9014873e-46
9.9571115e-46
1.385122e-44
7.0492235e-45
1.9286639e-43
1.8139407e-44
2.0954995e-42
-3.6529857e-43
1.5964062e-41
-5.8429625e-42
8.166233e-41
-4.0612098e-41
2.9301004e-40
-1.7758966e-40
8.7557908e-40
-5.8289015e-40
2.5971691e-39
-1.7495797e-39
2.0674497e-38
-1.0950291e-38
3.6457112e-36
-3.9288028e-36
4.4738309e-34
-4.8112123e-34
2.6396141e-32
-2.7915935e-32
3.7228188e-31
-3.7666702e-31
5.9294577e-31
-3.2242354e-31
4.3926621e-30
-4.2046522e-30
7.6998438e-31
-7.6172359e-31
4.1074663e-32
-7.2503432e-32
1.0131199e-33
-2.8566906e-33
3.5761851e-35
-4.2877764e-35
2.5469296e-36
4.1291296e-37
2.906028e-37
1.1437669e-37
1.23851e-37
5.4264687e-38
3.7388844e-38
2.6337825e-38
4.1325483e-39
6.3947852e-39
2.1379044e-40
7.5270911e-40
5.0960293e-42
4.3509598e-41
4.66362e-44
9.9758575e-43
3.5954689e-46
1.2570794e-44
2.9780253e-48
1.4192742e-46
2.0825374e-50
1.3873752e-48
1.1499303e-52
1.1086021e-50
5.1458054e-55
7.2058248e-53
1.9303698e-57
4.0499751e-55
4.2441786e-60
1.7469541e-57
5.2646237e-63
4.920652e-60
4.482532e-66
1.1974889e-62
-3.4259789e-68
3.9173038e-65
-4.5777016e-70
1.8343439e-67
-3.4752446e-72
8.5899887e-70
-2.16738e-74
3.7347566e-72
-3.0681965e-76
1.5433241e-74
-4.5386527e-77
1.4067636e-76
-1.360359e-77
1.2617917e-77
-3.861188e-78
2.5733931e-78
-8.0731978e-79
4.5373647e-79
-8.2232821e-80
5.0583609e-80
-2.291321e-81
2.1602151e-81
-1.4331836e-83
-8.6590543e-84
-3.3059973e-85
-8.228427e-85
-8.9747389e-85
-8.73571e-86
-4.7122826e-84
-1.079205e-84
-1.8496825e-83
-5.4719052e-84
-6.390802e-83
-2.1314358e-83
-6.6018057e-83
-5.5189106e-83
-3.3200054e-83
-6.5754151e-83
-5.9376427e-84
-3.1252805e-83
-4.5476562e-85
-6.9231283e-84
-1.3731472e-84
1.2709055e-84
-3.0169414e-84
9.3297286e-83
-9.5023832e-83
3.7706366e-81
-3.3983749e-81
1.6692967e-80
-1.8152912e-80
1.9828824e-80
-2.1362697e-80
1.4776276e-80
-1.6129456e-80
9.0041097e-81
-9.9684718e-81
2.9312944e-81
-4.0675598e-81
3.3932552e-82
-7.608967e-82
5.1907917e-83
-8.2893614e-83
4.604714e-83
-2.2523509e-83
8.9158875e-82
-1.2559238e-82
4.4324502e-80
-4.4290975e-81
1.0250346e-78
-1.3332052e-79
6.2226661e-77
-1.8831683e-77
4.1151867e-76
-1.8969622e-76
3.046581e-76
-8.5411674e-77
7.5311975e-77
-5.5499506e-78
9.2532616e-76
-1.5904367e-77
4.6645218e-71
-1.8961246e-71
4.3076358e-69
4.2182805e-71
3.5800386e-67
1.120456e-68
2.3591186e-65
1.2874452e-66
1.414687e-63
1.1227112e-64
8.2848554e-62
8.7975117e-63
6.6966316e-60
9.0625656e-61
8.0796396e-58
1.3579022e-58
8.5650667e-56
1.7651004e-56
5.9359561e-54
1.4799709e-54
5.8103901e-52
1.7339506e-52
2.107277e-49
7.5336186e-50
9.828181e-47
4.2129927e-47
3.2359976e-43
3.3509101e-43
1.7269779e-43
2.7305345e-43
3.0126755e-44
4.6633254e-44
1.5064758e-41
2.6667687e-41
1.1548244e-41
2.8506956e-41
1.3542494e-42
1.0448507e-41
1.1999541e-44
6.2616201e-43
1.6367349e-45
8.3482247e-45
6.9691468e-45
2.0580115e-44
9.9965904e-44
1.5376456e-43
1.5410744e-42
5.9039323e-43
2.2122396e-41
-7.0918329e-42
2.5259358e-40
-1.7348087e-40
2.0134922e-39
-1.7835241e-39
1.0785191e-38
-1.0946208e-38
4.0406665e-38
-4.4694549e-38
1.242594e-37
-1.396111e-37
4.0121596e-37
-4.1826386e-37
5.8738948e-36
-4.5158875e-36
1.0131686e-33
-1.175612e-33
1.1325459e-31
-1.2947865e-31
6.2980522e-30
-7.0441116e-30
8.5986782e-29
-9.4043714e-29
1.4373589e-28
-9.8487483e-29
1.1552796e-27
-1.1598148e-27
2.272742e-28
-2.9426721e-28
1.2541657e-29
-3.0657183e-29
5.1707856e-31
-1.2922909e-30
3.2042533e-32
-3.4324519e-32
2.5738446e-33
4.9516007e-34
3.6621295e-34
1.9705401e-34
1.2689897e-34
8.8721074e-35
2.6779951e-35
3.2347728e-35
2.3804761e-36
6.0151214e-36
1.3124396e-37
6.4659823e-37
3.7143383e-39
4.0003503e-38
3.6172016e-41
9.977177e-40
2.6080617e-43
1.2488081e-41
2.0633826e-45
1.3648184e-43
1.3833825e-47
1.2952399e-45
7.2473365e-50
9.9753355e-48
3.0146403e-52
6.1969729e-50
1.0297666e-54
3.2531669e-52
2.0596258e-57
1.3087524e-54
2.4257e-60
3.6201243e-57
5.4617769e-64
9.7328831e-60
-4.4895747e-65
3.8127155e-62
-4.5990767e-67
1.8991387e-64
-3.2372061e-69
8.8355477e-67
-1.9097226e-71
3.7985261e-69
-1.8184082e-73
1.5285225e-71
-1.281339e-74
1.070164e-73
-2.5708466e-75
5.9365914e-75
-4.8139689e-76
8.7901932e-76
-5.8869791e-77
1.0648599e-76
-4.8948387e-78
7.2498507e-78
-3.1798232e-79
2.109955e-79
-9.5496895e-81
-1.0779347e-80
-6.8090962e-82
-1.0730022e-81
-1.7301718e-81
-2.3507157e-82
-7.2407403e-81
-2.2920095e-81
-2.3443724e-80
-9.5932752e-81
-7.2837481e-80
-3.1945432e-80
-6.3544682e-80
-7.4301944e-80
-3.0132205e-80
-8.0645835e-80
-5.0694186e-81
-3.1256689e-80
-3.6331546e-82
-6.2672196e-81
-1.0666573e-81
6.8175046e-82
-1.9382099e-81
6.3284908e-80
-7.4482726e-80
2.5533086e-78
-2.7129096e-78
8.8856358e-78
-1.2123249e-77
1.0301304e-77
-1.3290695e-77
7.5994842e-78
-9.9938179e-78
4.5167955e-78
-6.0738692e-78
1.4537581e-78
-2.4453717e-78
1.895313e-79
-4.5802695e-79
5.2828734e-80
-6.9577258e-80
4.8370631e-80
-2.6875106e-80
4.3685825e-79
-3.1439855e-79
1.2803776e-77
-1.0864909e-77
1.3114493e-75
-1.2327862e-75
1.8856856e-73
-3.4245129e-74
9.017681e-73
-2.4018492e-73
1.6120518e-73
-8.4899801e-74
1.1852468e-74
-2.8677639e-75
3.5466559e-74
-9.0554437e-75
1.8045064e-68
-3.292922e-70
3.3793207e-66
4.3857325e-68
2.9705549e-64
1.1883163e-65
2.0288157e-62
1.3961218e-63
1.2460121e-60
1.243665e-61
7.4107949e-59
9.8694494e-60
6.0740811e-57
1.029804e-57
7.4096827e-55
1.5600562e-55
8.3233344e-53
2.1496886e-53
5.6539007e-51
1.7701492e-51
5.6992395e-49
2.1369795e-49
1.6457818e-46
7.3924481e-47
1.0952505e-43
5.9261902e-44
2.143631e-40
2.8138216e-40
1.0801764e-40
2.2408079e-40
1.698234e-41
3.4246413e-41
1.191528e-38
2.6688263e-38
8.8065294e-39
3.0509715e-38
1.0973124e-39
1.2080498e-38
8.8359233e-42
8.3169627e-40
3.3531201e-43
6.4435871e-42
4.8635331e-44
4.1652616e-42
1.4346982e-43
2.0060048e-41
3.8661868e-41
2.9992457e-41
1.0724796e-39
-1.7260012e-39
1.6031357e-38
-2.9997548e-38
1.4884678e-37
-2.8170022e-37
8.898349e-37
-1.6848462e-36
3.6035401e-36
-6.7883734e-36
1.1808716e-35
-2.1030872e-35
4.3329885e-35
-6.4475082e-35
1.1414921e-33
-1.2385459e-33
1.8582777e-31
-2.3338701e-31
1.9180838e-29
-2.3413028e-29
1.0184988e-27
-1.2046373e-27
1.3843848e-26
-1.615296e-26
2.3837459e-26
-2.1283736e-26
2.0881532e-25
-2.2234529e-25
4.6455597e-26
-7.345485e-26
3.0674462e-27
-8.4213542e-27
1.8871576e-28
-4.4492688e-28
1.904992e-29
-1.7317189e-29
2.0151243e-30
3.8859265e-31
3.3631989e-31
2.1949674e-31
9.9862141e-32
9.7806152e-32
1.5117653e-32
2.8441874e-32
1.061041e-33
4.0803569e-33
6.0574456e-35
3.9519419e-34
1.9965964e-36
2.577139e-35
2.0984457e-38
7.0030512e-37
1.4136518e-40
8.7779357e-39
1.0531951e-42
9.2277222e-41
6.6497652e-45
8.4339498e-43
3.2315949e-47
6.184719e-45
1.2351034e-49
3.6242959e-47
4.0961182e-52
1.8030352e-49
6.8521867e-55
6.8374943e-52
6.7276767e-58
1.8622349e-54
-2.1793302e-60
5.9897594e-57
-4.1812116e-62
2.856288e-59
-3.5567068e-64
1.4227529e-61
-2.3206706e-66
6.5595587e-64
-1.296343e-68
2.782848e-66
-1.0085918e-70
1.0886522e-68
-6.3951824e-72
6.2906215e-71
-1.3950129e-72
3.1905093e-72
-2.9182175e-73
5.1555797e-73
-4.4818145e-74
6.8720377e-74
-4.4275839e-75
5.554198e-75
-2.667287e-76
1.392955e-76
-6.6848493e-78
-1.5094812e-77
-9.6058435e-79
-1.0422615e-78
-2.3063947e-78
-4.1469564e-79
-7.9472658e-78
-3.2457156e-78
-2.1519388e-77
-1.1407377e-77
-5.6071186e-77
-3.2753272e-77
-4.830646e-77
-6.8803599e-77
-2.0110637e-77
-6.8265822e-77
-3.1865125e-78
-2.4663382e-77
-2.1522074e-79
-4.6843321e-78
-7.5709865e-79
2.860893e-79
-9.4204408e-79
2.9951319e-77
-4.0215902e-77
1.2027981e-75
-1.4768094e-75
3.6406276e-75
-5.9597608e-75
4.1717429e-75
-6.2345959e-75
3.0669769e-75
-4.6832185e-75
1.7927882e-75
-2.8166933e-75
5.724874e-76
-1.1221787e-75
8.2998173e-77
-2.117934e-76
3.8452651e-77
-4.0770435e-77
5.5507418e-77
-3.2269003e-77
4.8602692e-76
-3.5216664e-76
1.5678603e-74
-1.3479422e-74
1.8179357e-72
-1.7108777e-72
1.3523729e-70
-2.7743008e-71
4.7100722e-70
-1.3803966e-70
6.8716496e-71
-3.4570509e-71
2.2031378e-71
-3.7345519e-72
2.3477484e-70
-1.6461249e-70
1.0032558e-67
-7.3579039e-70
1.5692678e-63
2.3815905e-65
1.7236341e-61
8.1179121e-63
1.258455e-59
1.0245262e-60
8.0553257e-58
9.5043558e-59
4.8627844e-56
7.6630385e-57
3.8585148e-54
7.7430222e-55
4.8710917e-52
1.2142697e-52
5.7378301e-50
1.7563244e-50
3.9300503e-48
1.4586562e-48
3.9893048e-46
1.7776291e-46
1.0100148e-43
5.4110637e-44
8.2006853e-41
5.3142182e-41
1.1313891e-37
1.7931318e-37
5.4436295e-38
1.4057136e-37
8.2750481e-39
2.0851826e-38
7.1991673e-36
1.9411138e-35
5.1200077e-36
2.4887181e-35
6.379385e-37
1.0786076e-35
3.2058523e-39
8.8617137e-37
-5.6578193e-41
8.0397082e-39
-1.6793987e-40
7.6417948e-40
-1.4888289e-39
2.2434071e-39
-1.3297419e-38
1.5573377e-39
-7.3214776e-38
-1.9697269e-37
5.3126629e-38
-3.1740044e-36
4.4454902e-36
-2.902918e-35
3.9790835e-35
-1.7342165e-34
1.9748616e-34
-7.0812718e-34
7.3787462e-34
-2.2068522e-33
3.4156094e-33
-7.2453325e-33
1.6014655e-31
-2.49864e-31
2.4397297e-29
-3.3765211e-29
2.3510619e-27
-3.098617e-27
1.1988047e-25
-1.5074238e-25
1.6247758e-24
-2.1729723e-24
2.8883572e-24
-3.2616553e-24
2.7809296e-23
-3.3697345e-23
6.9587855e-24
-1.2951192e-23
5.5907663e-25
-1.6445855e-24
5.1835727e-26
-1.0978929e-25
8.0443827e-27
-6.123806e-27
1.1493346e-27
2.3932349e-28
2.2968793e-28
1.6956649e-28
6.1882839e-29
7.7337701e-29
7.1469421e-30
1.92793e-29
3.8820034e-31
2.179761e-30
2.1804045e-32
1.8501745e-31
8.1691686e-34
1.2418014e-32
9.3834497e-36
3.6643961e-34
5.8876111e-38
4.6235003e-36
4.0447383e-40
4.6183201e-38
2.7898436e-42
4.0037874e-40
1.0346655e-44
2.7598855e-42
3.5926797e-47
1.4921377e-44
1.4457494e-49
7.1418475e-47
1.5937216e-52
2.6428642e-49
3.667915e-56
7.6598067e-52
-2.7407958e-57
3.1405055e-54
-2.9939094e-59
1.6839928e-56
-2.2255221e-61
8.3366789e-59
-1.3526523e-63
3.7978194e-61
-7.1187086e-66
1.5797641e-63
-4.4543553e-68
5.9758937e-66
-2.3589464e-69
2.8068699e-68
-5.8236718e-70
1.215348e-69
-1.3366265e-70
2.2260226e-70
-2.316142e-71
3.1606574e-71
-2.4880276e-72
2.6742722e-72
-1.4776889e-73
3.654312e-74
-3.1908944e-75
-1.2209082e-74
-1.043894e-75
-6.9858459e-76
-2.3314812e-75
-5.4147845e-76
-6.6610186e-75
-3.3690712e-75
-1.5261942e-74
-1.005141e-74
-3.3619412e-74
-2.5025792e-74
-2.8244478e-74
-4.7634122e-74
-1.0520728e-74
-4.3407765e-74
-1.5727335e-75
-1.4649637e-74
-1.0039432e-76
-2.6373034e-75
-4.0508476e-76
9.9199082e-77
-3.6912449e-76
1.098896e-74
-1.6550748e-74
4.3752895e-73
-6.0799229e-73
1.214561e-72
-2.3039876e-72
1.3836511e-72
-2.3366449e-72
1.0170502e-72
-1.7557021e-72
5.8777377e-73
-1.0483967e-72
1.8717491e-73
-4.1572955e-73
2.9512778e-74
-7.9247374e-74
1.703006e-74
-1.7703278e-74
6.1741168e-74
-4.1979673e-74
4.4832467e-73
-3.1929331e-73
1.6033454e-71
-1.4015039e-71
2.9003627e-69
-9.5327995e-70
6.3504223e-68
-1.5458881e-68
1.7382941e-67
-5.8184278e-68
3.0571269e-68
-6.6899588e-69
9.1120629e-68
-5.058835e-68
6.0223489e-67
-3.6832997e-67
5.0888893e-67
-4.8190635e-68
8.6213051e-62
7.2919757e-64
7.467903e-59
3.8794198e-60
9.2444273e-57
8.4724505e-58
4.0233127e-55
5.3887612e-56
2.5658079e-53
4.5840933e-54
1.9030249e-51
4.339703e-52
2.4620179e-49
6.9780446e-50
2.9297986e-47
1.0207513e-47
2.1142092e-45
8.9517159e-46
2.0612126e-43
1.0508157e-43
5.6265442e-41
3.458044e-41
5.5218834e-38
4.1379213e-38
4.9349428e-35
9.1310531e-35
2.2907455e-35
7.1100261e-35
3.3798226e-36
1.0410136e-35
3.3262389e-33
1.0770632e-32
2.2343735e-33
1.5970124e-32
2.1313485e-34
7.6342946e-33
-8.8035329e-37
7.5986021e-34
-2.4775278e-38
8.9161799e-36
-4.5057214e-38
1.232243e-37
-2.7999686e-37
2.3952817e-37
-2.5679844e-36
2.2271487e-37
-1.9689762e-35
-1.4972338e-35
-1.1170825e-34
-2.3543523e-34
-3.5500027e-34
-2.1507052e-33
-1.5459293e-34
-1.2755916e-32
4.065945e-33
-5.2831435e-32
2.5237691e-32
-1.6357162e-31
1.9230281e-31
-6.5767915e-31
1.6115358e-29
-3.9212645e-29
2.3550548e-27
-4.6415331e-27
2.1542353e-25
-3.5433047e-25
1.0636663e-23
-1.4987224e-23
1.4443001e-22
-2.4696186e-22
2.6443545e-22
-3.7317983e-22
2.8254393e-21
-4.1724697e-21
7.9381264e-22
-1.6923387e-21
7.8681299e-23
-2.3852755e-22
1.1015339e-23
-2.0416721e-23
2.5576362e-24
-1.5859433e-24
4.9778396e-25
1.1420765e-25
1.1761117e-25
9.5557693e-26
3.018199e-26
4.5206808e-26
2.9327599e-27
1.042016e-26
1.2358141e-28
9.7732382e-28
6.326503e-30
7.0165085e-29
2.5968547e-31
4.668049e-30
3.3303215e-33
1.4915663e-31
1.9473234e-35
1.9141596e-33
1.4835237e-37
1.7840888e-35
9.5856957e-40
1.4596687e-37
2.4610539e-42
9.4380879e-40
7.3796639e-45
4.5477617e-42
5.3991529e-47
2.21863e-44
2.0518709e-50
8.2808867e-47
-1.2153847e-52
2.8045712e-49
-1.9538999e-54
1.494012e-51
-1.6794721e-56
7.9818573e-54
-1.1276252e-58
3.9105811e-56
-6.3839459e-61
1.749314e-58
-3.1396944e-63
7.0675977e-61
-1.638899e-65
2.5537832e-63
-7.1180996e-67
1.0071462e-65
-1.9588181e-67
3.6593865e-67
-4.7721969e-68
7.4436877e-68
-8.9714542e-69
1.0853658e-68
-1.0462892e-69
9.0254901e-70
-6.1582379e-71
-7.1583888e-72
-1.2240149e-72
-6.6789532e-72
-6.6911277e-73
-3.4845727e-73
-1.8571147e-72
-5.5000077e-73
-4.4431765e-72
-2.6995594e-72
-8.7013978e-72
-6.9038165e-72
-1.6330493e-71
-1.500506e-71
-1.3290594e-71
-2.5934183e-71
-4.4777208e-72
-2.1807431e-71
-6.3357396e-73
-6.884883e-72
-3.8178814e-74
-1.1776021e-72
-1.7180529e-73
2.9543203e-74
-1.2186885e-73
3.3140252e-72
-5.5111225e-72
1.3043659e-70
-2.0131885e-70
3.4216057e-70
-7.3227944e-70
3.8884416e-70
-7.2726474e-70
2.8601511e-70
-5.4687672e-70
1.6431972e-70
-3.2545273e-70
5.2338819e-71
-1.2877703e-70
8.700459e-72
-2.4880621e-71
6.213022e-72
-5.9109476e-72
5.2465157e-71
-3.8839218e-71
3.5523366e-70
-2.5610251e-70
1.395899e-68
-1.2439734e-68
1.9511094e-66
-5.576954e-67
2.2185643e-65
-5.9184389e-66
5.1106462e-65
-1.8382617e-65
1.1425172e-65
-4.530376e-66
2.6618979e-64
-2.3736512e-64
3.494656e-63
-2.8742856e-63
6.8149234e-63
-1.0022414e-63
8.7187139e-62
7.6414213e-64
6.2500131e-57
1.9602888e-58
1.6091735e-54
8.0881306e-56
1.8690067e-52
2.711465e-53
1.0951404e-50
2.1492587e-51
7.2626353e-49
1.8240699e-49
9.7686232e-47
3.0505087e-47
1.2403197e-44
4.7700783e-45
8.9792849e-43
4.2070729e-43
8.2720855e-41
4.6840952e-41
1.4792591e-38
9.2767454e-39
2.844015e-35
2.3881418e-35
1.8362089e-32
3.8526945e-32
7.8140284e-33
2.9046922e-32
1.0575062e-33
3.894293e-33
1.2148605e-30
4.7512128e-30
7.2502497e-31
8.1817161e-30
-2.619408e-33
4.3403349e-30
-1.9478296e-33
5.2403604e-31
-9.2962909e-36
8.0705565e-33
-1.2979401e-35
3.0206404e-35
-3.4295417e-35
2.7085074e-35
-2.5496917e-34
3.1685658e-35
-1.9779177e-33
-7.794649e-34
-1.260927e-32
-1.2742194e-32
-6.0017909e-32
-1.1429109e-31
-1.8303849e-31
-6.7785565e-31
-2.7871837e-31
-2.7750682e-30
-1.3914862e-31
-8.2860665e-30
5.1228659e-30
-5.9131505e-29
1.0150099e-27
-5.0017837e-27
1.6073418e-25
-5.1394775e-25
1.4749741e-23
-3.4956711e-23
7.2391947e-22
-1.3682025e-21
9.838455e-21
-2.1672541e-20
1.8606755e-20
-3.2754207e-20
2.2154831e-19
-3.9931979e-19
6.9930916e-20
-1.6938338e-19
8.7027302e-21
-2.6979781e-20
1.8583473e-21
-3.3211077e-21
6.3825585e-22
-4.0505188e-22
1.714267e-22
4.5215857e-23
4.5756829e-23
4.1297955e-23
1.1233554e-23
1.9834546e-23
1.0015761e-24
4.4099857e-24
3.4382787e-26
3.6687665e-25
1.5103145e-27
2.199014e-26
6.4926134e-29
1.3975232e-27
9.3988327e-31
4.7974739e-29
5.1228911e-33
6.3223407e-31
4.2111199e-35
5.3580699e-33
2.4257753e-37
4.1573545e-35
4.1093203e-40
2.4126067e-37
1.1058189e-42
1.0124319e-39
7.5802021e-45
5.5617222e-42
-3.0669578e-48
2.2502446e-44
-9.9343226e-50
9.9639352e-47
-1.0051417e-51
5.7762365e-49
-7.4737375e-54
3.0636732e-51
-4.5900666e-56
1.4767437e-53
-2.3991586e-58
6.4114112e-56
-1.0748186e-60
2.4691565e-58
-4.710692e-63
8.2871985e-61
-1.7860911e-64
2.7592485e-63
-5.3933635e-65
8.9252891e-65
-1.3939748e-65
1.973281e-65
-2.832635e-66
2.9288159e-66
-3.5630736e-67
2.2716405e-67
-2.0124442e-68
-1.1526613e-68
-4.2453044e-70
-2.732367e-69
-3.6716268e-70
-1.5567159e-70
-1.1949379e-69
-4.4087848e-70
-2.4181172e-69
-1.7279975e-69
-4.0873452e-69
-3.8163755e-69
-6.5928797e-69
-7.2922357e-69
-5.1709259e-69
-1.1484531e-68
-1.5911756e-69
-8.9322494e-69
-2.1369354e-70
-2.6450623e-69
-1.2169333e-71
-4.3069973e-70
-5.9676264e-71
7.7761501e-72
-3.5038279e-71
8.5319911e-70
-1.5445288e-69
3.3066173e-68
-5.5783942e-68
8.3544798e-68
-1.9735193e-67
9.4710934e-68
-1.9318519e-67
6.9891516e-68
-1.455588e-67
4.0040591e-68
-8.6524341e-68
1.2789027e-68
-3.4221344e-68
2.1773085e-69
-6.7247327e-69
1.5559961e-69
-1.5481489e-69
2.3016814e-68
-1.3767485e-68
2.4853221e-67
-1.9838688e-67
1.1710752e-65
-5.6168048e-66
6.8530473e-64
-2.1401812e-64
5.8558369e-63
-1.7393515e-63
1.4355114e-62
-4.5979511e-63
2.0879878e-62
-7.8483122e-63
5.6417449e-61
-5.0479945e-61
1.3959738e-59
-1.2513734e-59
4.2428681e-59
-2.041587e-59
3.4739046e-60
6.5187439e-62
7.4267041e-57
2.3905931e-58
1.7165308e-54
9.0558912e-56
2.6879795e-50
2.2765204e-51
3.5807326e-48
7.4197745e-49
3.4012773e-46
9.1459536e-47
2.96329e-44
9.9557121e-45
4.3200103e-42
1.7890692e-42
2.9593148e-40
1.4946684e-40
2.7600979e-38
2.012595e-38
7.6263903e-38
6.1764174e-38
1.2681615e-32
1.1621264e-32
5.9872962e-30
1.3805141e-29
2.265992e-30
9.9397781e-30
2.9582246e-31
1.2671689e-30
3.6560583e-28
1.7362409e-27
1.6964501e-28
3.3829227e-27
-2.6166522e-29
1.9919467e-27
-2.026151e-30
2.8945066e-28
-1.3002979e-32
5.7143236e-30
-2.4997459e-33
1.9478718e-32
-3.5396692e-33
2.9697883e-33
-1.7879585e-32
2.9725431e-33
-1.2886866e-31
-2.5414143e-32
-8.2413518e-31
-4.979701e-31
-4.2065484e-30
-4.3450548e-30
-1.4551665e-29
-2.5576449e-29
-2.9662182e-29
-1.0300127e-28
-6.3187335e-29
-3.1887268e-28
-8.5610532e-28
-6.0250813e-27
-1.0762363e-27
-5.8535892e-25
6.0309224e-24
-4.7625897e-23
7.071753e-22
-2.7772125e-21
3.7070049e-20
-9.9150947e-20
5.1250507e-19
-1.5160587e-18
1.0087586e-18
-2.2924089e-18
1.3480649e-17
-2.8242433e-17
4.79696e-18
-1.377737e-17
7.6632532e-19
-2.4795741e-18
2.5136658e-19
-3.9962221e-19
1.2612967e-19
-8.8821546e-20
4.7203112e-20
1.4512336e-20
1.4057942e-20
1.4213852e-20
3.1853415e-21
6.7047257e-21
2.6626862e-22
1.4300421e-21
8.0436893e-24
1.1084657e-22
2.9881502e-25
5.6776324e-24
1.2855255e-26
3.355601e-25
2.0988832e-28
1.2252502e-26
1.2639436e-30
1.6750677e-28
8.9979081e-33
1.2613931e-30
4.3436205e-35
8.9525064e-33
4.4829123e-38
4.4166283e-35
1.7102328e-40
1.6671149e-37
1.904097e-44
1.1990092e-39
-3.8948943e-45
5.5053469e-42
-4.7074807e-47
3.161005e-44
-3.9082183e-49
1.806736e-46
-2.6089673e-51
9.4502358e-49
-1.456086e-53
4.423333e-51
-6.7938825e-56
1.8220441e-53
-2.5779364e-58
6.4151604e-56
-8.4524523e-61
1.8434859e-58
-3.6837201e-62
4.6210196e-61
-1.2606081e-62
1.7676973e-62
-3.4287862e-63
4.3393889e-63
-7.4349197e-64
6.3605116e-64
-9.8515783e-65
4.081087e-65
-5.431647e-66
-5.9942794e-66
-1.4120529e-67
-9.0249528e-67
-2.0468784e-67
-6.9681024e-68
-6.333436e-67
-2.8329506e-67
-1.092138e-66
-9.0492101e-67
-1.6086836e-66
-1.7365731e-66
-2.2506766e-66
-2.936607e-66
-1.6970421e-66
-4.2301949e-66
-4.8025055e-67
-3.0531638e-66
-6.1403324e-68
-8.494541e-67
-3.3082629e-69
-1.3197853e-67
-1.736329e-68
1.8502602e-69
-8.9929128e-69
1.9254739e-67
-3.7491841e-67
7.3097509e-66
-1.3296379e-65
1.8100786e-65
-4.6136938e-65
2.0264679e-65
-4.4730403e-65
1.5108992e-65
-3.3798174e-65
8.6416654e-66
-2.0086933e-65
2.7738794e-66
-7.957065e-66
4.7578032e-67
-1.5901249e-66
3.3366507e-67
-3.4841829e-67
6.3126801e-66
-2.849271e-66
1.7806497e-64
-9.6362847e-65
8.668329e-63
-3.8583762e-63
1.9444982e-61
-7.0555433e-62
1.2948867e-60
-4.2640027e-61
3.9115182e-60
-1.1005648e-60
2.5500635e-59
-6.0575547e-60
1.6564507e-57
-2.9531199e-58
5.3173964e-56
-1.1119862e-56
2.9922589e-55
-1.9651601e-55
4.2363583e-56
6.1889832e-58
2.387657e-54
1.4057937e-55
3.7884817e-53
4.0398422e-54
3.1644215e-50
2.7675327e-51
2.8552228e-46
4.6706639e-47
6.6220151e-44
1.3640311e-44
9.0971669e-42
3.2066676e-42
1.1809838e-39
5.1542987e-40
7.8457026e-38
4.1772328e-38
6.4399614e-36
8.2659912e-36
3.5647836e-36
5.5616925e-36
5.747754e-30
5.5848421e-30
1.7270761e-27
4.2547531e-27
5.665035e-28
2.7383467e-27
2.3576372e-28
1.1298912e-27
9.7815744e-26
5.5701006e-25
2.6231453e-26
1.1426371e-24
-1.8709906e-26
7.3292957e-25
-1.3952319e-27
1.261415e-25
-1.1765023e-29
3.1670782e-27
-2.6141077e-31
1.3462289e-29
-3.2473507e-31
2.7942258e-31
-9.9259132e-31
2.0025672e-31
-5.9758529e-30
-5.3804672e-31
-3.6270739e-29
-1.327494e-29
-1.8649553e-28
-1.1861856e-28
-6.6157534e-28
-7.147388e-28
-1.5259389e-27
-3.074393e-27
-5.9573954e-27
-1.2669549e-26
-2.5039193e-25
-5.5347278e-25
-1.362124e-23
-5.3580253e-23
-2.7917904e-22
-3.8095248e-21
1.700564e-20
-1.8592417e-19
1.3396121e-18
-5.9124945e-18
1.998605e-17
-8.088122e-17
4.1686269e-17
-1.2569615e-16
6.2065464e-16
-1.0355422e-15
2.4709298e-16
-5.88515e-16
4.6396673e-17
-1.225652e-16
1.7907299e-17
-1.7381355e-17
1.1819847e-17
-2.8225077e-18
6.9439448e-18
2.4082698e-18
2.3260926e-18
2.5085946e-18
6.450564e-19
1.3739837e-18
7.2213306e-20
3.7095738e-19
2.0806586e-21
3.2973062e-20
5.1200877e-23
1.3804356e-21
1.8998047e-24
6.6273087e-23
3.5211966e-26
2.4494048e-24
2.3348014e-28
3.5197062e-26
1.3894561e-30
2.3315081e-28
5.2863681e-33
1.4140378e-30
3.0313309e-36
5.4399435e-33
2.9420698e-38
2.4655409e-35
-1.2209688e-40
2.553821e-37
-1.7037836e-42
1.3311555e-39
-1.578153e-44
7.9345067e-42
-1.1535502e-46
4.5105452e-44
-6.9085284e-49
2.2912941e-46
-3.359268e-51
1.0131921e-48
-1.2548502e-53
3.7494917e-51
-2.6313873e-56
1.055189e-53
-4.3113457e-59
1.7022724e-56
-5.8369863e-60
2.2975733e-59
-2.5418284e-60
2.7629555e-60
-7.3426169e-61
8.1767205e-61
-1.7151813e-61
1.145469e-61
-2.3674333e-62
4.4668682e-63
-1.2492683e-63
-2.1556349e-63
-5.5680843e-65
-2.4523975e-64
-9.9235711e-65
-3.1754671e-65
-2.8048641e-64
-1.4809894e-64
-4.1544838e-64
-3.9450867e-64
-5.3764238e-64
-6.6097158e-64
-6.5796521e-64
-9.9629236e-64
-4.765045e-64
-1.3170973e-63
-1.2466969e-64
-8.8585546e-64
-1.5222352e-65
-2.3180794e-64
-7.7654814e-67
-3.4454239e-65
-4.3023604e-66
4.0431745e-67
-2.0987149e-66
3.887574e-65
-8.0581385e-65
1.4348661e-63
-2.7822636e-63
3.5057449e-63
-9.5248751e-63
3.893409e-63
-9.1748002e-63
2.9289531e-63
-6.9551135e-63
1.6742097e-63
-4.1364073e-63
5.404937e-64
-1.6429573e-63
9.513323e-65
-3.3224811e-64
6.7253746e-65
-7.689187e-65
1.2631348e-63
-6.1918156e-64
9.3019417e-62
-4.6406209e-62
3.3201274e-60
-1.4537218e-60
4.69348e-59
-1.8062913e-59
2.5050589e-58
-8.8971181e-59
7.754625e-58
-2.4584817e-58
1.0143257e-56
-2.5203196e-57
1.0554306e-54
-1.8433629e-55
9.112954e-53
-1.0053577e-53
5.9731142e-51
-3.3261214e-52
1.4871237e-49
1.6323812e-51
2.4996898e-50
2.6641622e-51
6.9610051e-49
7.6298121e-50
2.3852964e-47
3.9465676e-48
6.1053019e-46
1.0423641e-46
1.3179121e-43
2.7836468e-44
1.6541612e-39
4.8473909e-40
2.6997584e-37
1.2142355e-37
2.1203779e-35
1.1657023e-35
1.7426014e-33
2.2302057e-33
8.935176e-34
1.4501812e-33
1.8744132e-27
1.8524316e-27
4.4949703e-25
1.1465779e-24
1.8060844e-25
6.1664622e-25
9.9652229e-24
2.7353335e-23
2.7649712e-23
2.0081885e-22
2.0908672e-24
3.232731e-22
-7.6831641e-24
2.1611875e-22
-6.524842e-25
4.2263276e-23
-6.9117327e-27
1.3144079e-24
-5.2251697e-29
6.9486892e-27
-4.108703e-29
4.3565859e-29
-6.3055698e-29
1.2858059e-29
-2.2210383e-28
-1.2047556e-29
-1.117018e-27
-1.998088e-28
-5.7141313e-27
-2.2107627e-27
-2.0952457e-26
-1.4042758e-26
-6.0303362e-26
-6.9365705e-26
-5.1901738e-25
-5.2649152e-25
-3.3820822e-23
-3.8185971e-23
-2.1087632e-21
-3.5785906e-21
-7.9153502e-20
-2.3757005e-19
-1.2059391e-18
-1.0738043e-17
2.5733743e-17
-2.4721015e-16
5.2667811e-16
-2.0885865e-15
1.1988818e-15
-3.0958767e-15
2.1453635e-14
-3.1553437e-14
8.2272333e-15
-1.7713894e-15
1.7967166e-15
-8.0650278e-16
4.9252609e-16
-3.9294885e-17
3.3000485e-16
0
6.2496798e-16
2.80827e-16
1.893056e-16
1.9912161e-16
4.4042596e-17
1.3262984e-16
7.8595681e-18
4.1797144e-17
3.6757934e-19
5.0559323e-18
7.7519632e-21
2.4294508e-19
2.3640643e-22
1.0502682e-20
4.6210119e-24
3.9236233e-22
3.1312854e-26
5.9143397e-24
1.4865024e-28
3.2215202e-26
3.6465258e-31
1.5289737e-28
9.2884899e-35
3.8114315e-31
-3.2613283e-36
4.1756935e-33
-4.8070679e-38
4.5808979e-35
-4.8262922e-40
2.6065807e-37
-3.8699564e-42
1.5686917e-39
-2.5014939e-44
8.7107998e-42
-1.2737912e-46
4.1708054e-44
-5.8799893e-49
1.6254849e-46
-3.1360205e-52
4.0300225e-49
-8.3000537e-55
2.3589686e-52
-3.8801714e-57
4.9013807e-55
-5.7268472e-58
1.9462955e-57
-4.3763885e-58
2.9882759e-58
-1.4193599e-58
1.4694407e-58
-3.4352738e-59
1.7170175e-59
-4.8443533e-60
-2.0419386e-61
-2.4460294e-61
-5.8473791e-61
-2.1759736e-62
-5.5633318e-62
-4.3334674e-62
-1.3994131e-62
-1.0528948e-61
-6.3951747e-62
-1.339151e-61
-1.4521814e-61
-1.544447e-61
-2.1285206e-61
-1.662724e-61
-2.8835796e-61
-1.1566715e-61
-3.508555e-61
-2.8118535e-62
-2.2091129e-61
-3.2865149e-63
-5.4444133e-62
-1.5882106e-64
-7.7577696e-63
-9.1953354e-64
8.2110052e-65
-4.5097761e-64
7.1356629e-63
-1.5607942e-62
2.5369418e-61
-5.1924205e-61
6.1417628e-61
-1.7603829e-60
6.7866991e-61
-1.688799e-60
5.1471962e-61
-1.2849189e-60
2.941919e-61
-7.6482931e-61
9.5606341e-62
-3.0490967e-61
1.7999873e-62
-6.2036767e-62
1.3518714e-62
-1.7310984e-62
3.0542336e-61
-1.6562678e-61
2.956626e-59
-1.5130411e-59
8.4692665e-58
-3.9414363e-58
9.0092556e-57
-3.7722835e-57
4.2124874e-56
-1.6701288e-56
1.2384142e-55
-3.8906059e-56
2.2974096e-54
-4.641258e-55
3.3852689e-52
-6.218821e-53
3.6932379e-50
-4.6004081e-51
3.2128629e-48
-1.9438514e-49
2.4383168e-46
-5.38862e-49
1.7481869e-44
8.3972661e-46
1.1187724e-42
1.1439159e-43
5.7755078e-41
9.3948107e-42
6.2877296e-40
2.7734126e-40
2.4274834e-40
1.4074769e-40
4.3536597e-39
1.3615516e-39
4.5764098e-35
2.0354552e-35
3.3604204e-33
1.7899865e-33
4.9237579e-32
3.3052324e-32
2.694991e-28
2.2801251e-28
6.6320604e-26