/*--------------------------------*- C++ -*----------------------------------*\
  =========                 |
  \\      /  F ield         | OpenFOAM: The Open Source CFD Toolbox
   \\    /   O peration     | Website:  https://openfoam.org
    \\  /    A nd           | Version:  9
     \\/     M anipulation  |
\*---------------------------------------------------------------------------*/
FoamFile
{
    format      ascii;
    class       volScalarField;
    location    "0.57";
    object      p_rgh;
}
// * * * * * * * * * * * * * * * * * * * * * * * * * * * * * * * * * * * * * //

dimensions      [1 -1 -2 0 0 0 0];

internalField   nonuniform List<scalar> 
10000
(
0
0.0053151067
0.020867007
0.042848462
0.071490754
0.10697743
0.14920392
0.19812282
0.25349093
0.31534209
0.38335767
0.45752962
0.53765243
0.62350491
0.71504378
0.81201538
0.91429735
1.0219109
1.1348059
1.2533564
1.3773244
1.5022362
1.631592
1.7660563
1.9057761
2.0507725
2.2012532
2.3574211
2.5194285
2.6874776
2.8617709
3.0423357
3.2290396
3.4216402
3.6196568
3.8222512
4.0282745
4.2362247
4.4441798
4.6499893
4.8498191
5.0408143
5.2185279
5.377775
5.5140635
5.6224045
5.721962
5.7926365
5.8349065
5.8562674
5.8451159
5.7879223
5.6855697
5.5408298
5.3573794
5.1405021
4.8972325
4.6361162
4.3667588
4.0991133
3.8424866
3.6070252
3.3966226
3.2143949
3.062062
2.9395307
2.8453849
2.77735
2.7324583
2.7077794
2.7003441
2.7072809
2.7259554
2.7540311
2.789442
2.8303795
2.8752763
2.922765
2.9717011
3.0212524
3.07071
3.1194063
3.1667949
3.2125007
3.2562787
3.2980414
3.3376422
3.3748399
3.4095814
3.4418536
3.4716352
3.4987486
3.5232329
3.5450411
3.5640824
3.5803879
3.5939343
3.6045747
3.6119745
3.619196
-0.013549107
-0.0080260169
0.0074424497
0.029373733
0.058186982
0.093851386
0.13639235
0.1855112
0.24130382
0.30341371
0.37184871
0.44641801
0.52684102
0.61308564
0.70485939
0.80194258
0.90429334
1.0116865
1.123966
1.241092
1.3626441
1.4894378
1.6196483
1.7542581
1.8936861
2.0382229
2.1881466
2.3436829
2.5050793
2.6726634
2.8466791
3.0272251
3.2143071
3.4078092
3.60733
3.8121128
4.0211157
4.2329394
4.4457062
4.6571705
4.86453
5.0648074
5.2534371
5.4259652
5.5823366
5.7185905
5.817299
5.8945948
5.9440182
5.9625861
5.9431866
5.8797397
5.7709609
5.6179558
5.4238372
5.1937431
4.9349688
4.656781
4.3697597
4.0850043
3.8131063
3.5633508
3.3416189
3.1514779
2.9944858
2.8702353
2.776843
2.7114859
2.6708331
2.651377
2.6497147
2.6626777
2.6873489
2.7212087
2.7620469
2.8079342
2.857232
2.9085649
2.9608977
3.0133461
3.0652389
3.1159948
3.165136
3.2123067
3.2572795
3.2999229
3.3401022
3.3776906
3.4126523
3.444982
3.4747132
3.5017708
3.5261168
3.5477356
3.5666078
3.5827621
3.5962257
3.6068167
3.6141638
3.6214078
-0.034576374
-0.028880686
-0.013434175
0.0085152278
0.037432606
0.073427972
0.11620317
0.16582244
0.22196506
0.28460665
0.35360043
0.4286507
0.50970372
0.59649956
0.68875391
0.78637785
0.8891383
0.99679924
1.1092617
1.2263529
1.3482568
1.474455
1.6046719
1.7391216
1.8781657
2.0221595
2.1713734
2.3261066
2.4867829
2.6537933
2.8274414
3.0080022
3.1956833
3.3904703
3.5921084
3.8000408
4.0133779
4.230811
4.4505679
4.6705146
4.888286
5.1021795
5.3061898
5.4942638
5.6614553
5.8076727
5.9245702
6.0128421
6.0688693
6.0883644
6.0663513
5.9983672
5.8822103
5.718151
5.5088183
5.2593994
4.9778441
4.6746267
4.3620438
4.0529212
3.7594369
3.4922117
3.2578943
3.0601695
2.9002755
2.7770293
2.687801
2.6287591
2.5957909
2.5848008
2.5918077
2.6132338
2.6459318
2.6872021
2.7347604
2.7866118
2.8411108
2.8968822
2.9530956
3.008741
3.0632717
3.1161338
3.1669455
3.2154213
3.2613814
3.3047029
3.3452891
3.3830638
3.4180188
3.4502295
3.4797083
3.5065128
3.5306323
3.5519987
3.5706556
3.5866266
3.5999221
3.6103804
3.6176523
3.6249936
-0.06222534
-0.056504088
-0.040896728
-0.01884313
0.010382456
0.046636111
0.089962391
0.14004067
0.1968206
0.26018177
0.32982742
0.40568428
0.48752494
0.57503815
0.66808707
0.76643042
0.86977902
0.97799851
1.0909207
1.2083082
1.3298066
1.4555531
1.5853476
1.7192758
1.8576267
2.0006916
2.1487724
2.3023182
2.4618608
2.6278693
2.8008076
2.9811978
3.1694499
3.365744
3.5700409
3.7820528
4.0010791
4.2259469
4.4549861
4.6858984
4.9153277
5.1476565
5.3715433
5.5753941
5.7600889
5.9252655
6.0600525
6.1629627
6.2294743
6.2548248
6.2341061
6.1629602
6.0385224
5.8601428
5.6299106
5.3530715
5.038513
4.6985978
4.3483542
4.0037346
3.6796419
3.3878936
3.1363056
2.9290446
2.766527
2.6462439
2.5641331
2.515118
2.4938365
2.495223
2.5146386
2.548008
2.5918768
2.6433104
2.6999196
2.7597555
2.8211778
2.8828472
2.9439022
3.0036834
3.061555
3.1170831
3.169988
3.2200616
3.2672019
3.3113514
3.3524983
3.3906585
3.4258543
3.4581376
3.487558
3.5141805
3.5380632
3.5591898
3.577615
3.5933837
3.6064939
3.6168124
3.6240012
3.6314563
-0.097198206
-0.091427709
-0.07568204
-0.053309938
-0.023844171
0.012950258
0.056768711
0.1075252
0.16511968
0.22926156
0.29985661
0.37670019
0.45947502
0.54800836
0.64204889
0.74125959
0.84543266
0.95435154
1.0677144
1.1852868
1.3068685
1.4323794
1.5616954
1.6949326
1.8322982
1.974048
2.1205919
2.2724856
2.4303332
2.5947753
2.7665349
2.9463686
3.1349395
3.3327299
3.5400304
3.7568516
3.9827818
4.2169898
4.4583069
4.7060076
4.955424
5.202811
5.4427983
5.6697374
5.8763708
6.0721144
6.2259552
6.3478865
6.4289872
6.4642981
6.4482087
6.3755998
6.2422037
6.0461795
5.788813
5.4752368
5.1155574
4.724846
4.3221936
3.9280732
3.561582
3.2382773
2.9662784
2.7492025
2.5859997
2.4723749
2.4020482
2.368037
2.3634496
2.3820006
2.4181757
2.46735
2.5257423
2.5902495
2.6584167
2.7283084
2.798307
2.8673004
2.9344168
2.9992076
3.0611444
3.1199108
3.17533
3.2273187
3.2758873
3.3210361
3.3628104
3.4013161
3.4366429
3.4688917
3.4981368
3.5245142
3.5480914
3.5689083
3.587049
3.6025746
3.6154973
3.6256439
3.6327011
3.6402859
-0.13959935
-0.13382433
-0.11779163
-0.095181992
-0.065185013
-0.0278914
0.016622699
0.068246198
0.12670673
0.19190515
0.26365328
0.34163399
0.42565652
0.51546713
0.61069814
0.71108101
0.8163572
0.92617113
1.0402233
1.1582797
1.2800253
1.405304
1.5340946
1.666452
1.8024914
1.9425118
2.0870242
2.2366378
2.3920659
2.5542067
2.7240742
2.902682
3.0910291
3.2900278
3.5003745
3.7224494
3.9562032
4.2013906
4.4591365
4.7246826
4.9941314
5.2649182
5.5314432
5.7860344
6.0237513
6.2399171
6.4211919
6.5715723
6.6717653
6.7217003
6.7141779
6.6428563
6.5006135
6.2839921
5.9927017
5.6313659
5.2112974
4.7514268
4.2771342
3.8163128
3.3945988
3.0314541
2.7358396
2.5100339
2.3503399
2.2492272
2.1974184
2.1852582
2.2037633
2.2452282
2.3032157
2.3725567
2.4491697
2.5297839
2.6119864
2.6940143
2.7742472
2.851649
2.9258589
2.9964096
3.0629467
3.1253323
3.1835429
3.2376137
3.2876557
3.3337859
3.3761537
3.4149391
3.4502919
3.4823959
3.5113819
3.5374108
3.5606181
3.58107
3.5988568
3.6140759
3.6267639
3.6367275
3.6436188
3.6513656
-0.18960113
-0.18371427
-0.1675296
-0.14441909
-0.11395738
-0.07598022
-0.030582601
0.021955022
0.081545544
0.14801992
0.22106648
0.30048956
0.38604713
0.47735907
0.57411132
0.67600561
0.78263992
0.89363872
1.0086846
1.1274119
1.2494642
1.3746476
1.5028921
1.6341615
1.7685516
1.9064076
2.0482671
2.1948038
2.3469154
2.5057686
2.6726739
2.8490004
3.0362029
3.2357135
3.4487282
3.6760713
3.9180454
4.1741564
4.4530337
4.7367765
5.0310358
5.3307163
5.6293268
5.9186547
6.1918947
6.4410295
6.6571452
6.8340323
6.9608914
7.0316134
7.0376107
6.9725077
6.8223436
6.5825536
6.2498456
5.8271095
5.3265949
4.7727071
4.2007154
3.6501328
3.1565905
2.7457566
2.4254206
2.1951687
2.0468288
1.967851
1.944355
1.9632242
2.0130546
2.0845173
2.1702797
2.2646868
2.3634161
2.4632307
2.5619304
2.6583756
2.7500779
2.8371339
2.919249
2.9961258
3.0676643
3.1339347
3.1950834
3.251294
3.3028048
3.3498627
3.3927196
3.4316462
3.466901
3.4987215
3.527314
3.5528782
3.5755909
3.5955708
3.6129155
3.6277611
3.6401631
3.6499104
3.6566373
3.6645268
-0.24729329
-0.24142916
-0.22484469
-0.20134384
-0.17024478
-0.13141771
-0.085108238
-0.031410253
0.029527984
0.097417438
0.17206305
0.25323609
0.34056911
0.43372981
0.53239189
0.63611506
0.74445509
0.85702837
0.97339831
1.0930775
1.2156878
1.3409198
1.4685883
1.5985863
1.7310303
1.8662256
2.004682
2.1471864
2.2948562
2.4491018
2.6115705
2.7841232
2.9687829
3.1675949
3.3823832
3.6146563
3.8656056
4.1364008
4.4290096
4.7379655
5.0622508
5.3970456
5.7349253
6.0665737
6.382972
6.674201
6.9307751
7.1437465
7.3035096
7.4005528
7.4233732
7.3755574
7.2187472
6.9543816
6.5722589
6.0711331
5.4629791
4.7798212
4.0730512
3.4013873
2.8157606
2.3503598
2.0082878
1.7833956
1.6599228
1.6176483
1.6363806
1.6985819
1.7901504
1.9002007
2.0206072
2.1454445
2.2704487
2.3925935
2.5096943
2.6233994
2.7274818
2.8250914
2.915765
2.9994087
3.0762092
3.1464764
3.2105691
3.2688664
3.321732
3.3695435
3.4127069
3.4515868
3.4865527
3.5179226
3.5459474
3.5708808
3.592953
3.6123349
3.6291421
3.6435231
3.6555622
3.6650241
3.6716023
3.6796674
-0.31300476
-0.30695158
-0.29012543
-0.26606597
-0.2341931
-0.19450808
-0.1470563
-0.09199512
-0.029587301
0.039997552
0.11655092
0.19972371
0.28918773
0.38461406
0.48554416
0.59148553
0.70199551
0.81657124
0.93463757
1.055686
1.1792653
1.3046724
1.4317812
1.5604348
1.6906496
1.8226233
1.9568406
2.094205
2.2360194
2.3839444
2.5400477
2.706793
2.8868785
3.08308
3.298026
3.5340096
3.7930281
4.0767721
4.3873905
4.7233746
5.0824677
5.4593295
5.8452355
6.228817
6.5979852
6.9407575
7.2460105
7.5036601
7.7037708
7.8360662
7.8890811
7.851116
7.70031
7.41423
6.9751545
6.3734439
5.6188787
4.7546315
3.8591075
3.022944
2.3199572
1.7980889
1.4454996
1.2454659
1.1698933
1.1866647
1.2670975
1.3887897
1.5350329
1.6937296
1.8564513
2.0175016
2.1730934
2.3209192
2.4599668
2.5891946
2.7080178
2.8171495
2.9168613
3.0075142
3.0896546
3.1638807
3.2307696
3.2909109
3.3448629
3.393169
3.4363621
3.4749385
3.509358
3.5400055
3.5672375
3.5913534
3.6126015
3.6312259
3.6473836
3.661204
3.6727842
3.6819394
3.6883336
3.6965782
-0.386778
-0.38071256
-0.36347407
-0.33877059
-0.30614279
-0.26538584
-0.21661783
-0.16009575
-0.095959207
-0.02438449
0.054314621
0.1398344
0.23185917
0.3299356
0.43355215
0.54222953
0.655427
0.77249192
0.89278769
1.0157442
1.1407692
1.2665569
1.3933029
1.5206372
1.6483552
1.7765302
1.9056205
2.0365694
2.1708016
2.3102683
2.4575299
2.6157343
2.7883739
2.9792128
3.1919392
3.4296725
3.6950374
3.9894924
4.3195073
4.6848525
5.0839671
5.5113593
5.9565211
6.4044001
6.8382942
7.2433611
7.6065541
7.9171211
8.1653078
8.3408062
8.430845
8.4183959
8.2777254
7.9783431
7.4757959
6.7421872
5.7805004
4.6528055
3.4884678
2.4321383
1.5848257
1.0173131
0.6812898
0.54320984
0.55346393
0.66229533
0.83106482
1.0329491
1.2494588
1.468208
1.6814756
1.884611
2.0749233
2.2514153
2.4131045
2.5606299
2.6944792
2.8154059
2.9242429
3.0218531
3.1091478
3.1870467
3.2563872
3.3179843
3.3726152
3.421033
3.4639072
3.5018284
3.5353714
3.5649806
3.5911194
3.6141549
3.634383
3.6520663
3.6674212
3.6805803
3.6916125
3.7003846
3.7066366
3.7150554
-0.4690325
-0.46279707
-0.44512605
-0.41983155
-0.38624914
-0.34428896
-0.2941435
-0.23593198
-0.16980104
-0.096020538
-0.014849641
0.073435359
0.16840631
0.26956364
0.37642478
0.48842727
0.60488012
0.72506014
0.84823749
0.97365553
1.1007403
1.2273454
1.3541684
1.4803283
1.6053863
1.7292546
1.8522922
1.9753744
2.1000011
2.228414
2.3636799
2.5096985
2.6709736
2.852667
3.0599186
3.2966592
3.5666324
3.8653452
4.2150567
4.6110664
5.0555197
5.5440073
6.0634704
6.5922722
7.1064675
7.5865178
8.0171264
8.3878278
8.6907347
8.9165259
9.0527048
9.0786431
8.9628572
8.6560329
8.0934371
7.1951798
5.9372983
4.4104069
2.8449414
1.4849615
0.47249057
-0.10136712
-0.3646396
-0.37404093
-0.21655504
0.032473217
0.32524566
0.63305918
0.93786972
1.2290115
1.5011487
1.7519601
1.980758
2.1874617
2.3735319
2.5403572
2.6894066
2.8220576
2.9397443
3.0439128
3.1358813
3.2169052
3.2881391
3.3506401
3.4054256
3.4534271
3.4954555
3.5322773
3.5645284
3.5927567
3.6175031
3.6391535
3.6581079
3.6746699
3.6890482
3.7013801
3.7118126
3.7201513
3.7262141
3.7348607
-0.55988133
-0.55349934
-0.53547929
-0.50941149
-0.47479953
-0.43161087
-0.37989333
-0.31977308
-0.2514734
-0.1751952
-0.091164118
0.00024773674
0.098583686
0.20338865
0.31411765
0.43007881
0.5505087
0.67459402
0.80138638
0.92977555
1.0584387
1.18784
1.3155477
1.4409173
1.5633418
1.6825368
1.798614
1.9122701
2.0249972
2.1392592
2.2585458
2.3876893
2.5322602
2.6996338
2.896944
3.1283794
3.3975015
3.698427
4.0619498
4.4862035
4.9804615
5.5432692
6.1587741
6.79178
7.4078007
7.9780407
8.4852601
8.9195415
9.2803036
9.5597264
9.7488895
9.824232
9.750533
9.4597336
8.8291513
7.761055
6.0534824
3.9193204
1.7470608
-0.043030956
-1.1450193
-1.7375682
-1.810401
-1.5661052
-1.1652521
-0.71012316
-0.24822448
0.19598765
0.60884895
0.98468743
1.3232645
1.6264177
1.8957828
2.1344511
2.3454832
2.5317239
2.6955895
2.8393933
2.9652786
3.0752381
3.1710817
3.2544112
3.3267537
3.3894248
3.4436457
3.4905844
3.5311639
3.5662992
3.5967564
3.6231604
3.6461171
3.6661057
3.6835217
3.6987271
3.7119569
3.7233534
3.7330798
3.7409422
3.7467404
3.7556837
-0.65965082
-0.65320751
-0.63468616
-0.60783462
-0.57220725
-0.52762778
-0.47417449
-0.4120238
-0.34131121
-0.26219644
-0.17498998
-0.080071679
0.022169735
0.13124104
0.24648625
0.36715975
0.49244929
0.62138482
0.7528159
0.88549834
1.0181695
1.1499703
1.2790469
1.4041399
1.5242518
1.6386284
1.7469575
1.8496379
1.947971
2.0444769
2.142932
2.2492561
2.3697937
2.5155012
2.697486
2.9184079
3.1792789
3.4789092
3.8423686
4.2861705
4.8324943
5.4863251
6.232544
7.0070799
7.752277
8.4316523
9.0250943
9.5297301
9.9404233
10.257516
10.498197
10.623596
10.600007
10.342313
9.6500635
8.2356971
5.6657329
2.448455
-0.63751836
-2.8793867
-4.04865
-4.2725234
-3.8358225
-3.1074829
-2.316334
-1.563396
-0.87646282
-0.26243857
0.27716115
0.74776278
1.1582644
1.5158401
1.8271352
2.0979695
2.3335509
2.5383807
2.7160323
2.8698605
3.0028005
3.1174025
3.2159777
3.3005372
3.3729208
3.4347603
3.487541
3.5326011
3.5710165
3.6038244
3.6319007
3.6560048
3.6767386
3.6946866
3.7102872
3.7239024
3.7357641
3.7460922
3.7550509
3.7623759
3.7678322
3.7771632
-0.76869078
-0.76205883
-0.74310643
-0.71551091
-0.67874042
-0.63267023
-0.57741807
-0.51304683
-0.43965238
-0.35745625
-0.26675435
-0.16784536
-0.061128865
0.05281654
0.17330855
0.29958751
0.43072298
0.56557273
0.70284677
0.84115488
0.97894928
1.1146983
1.2462914
1.3721104
1.4905978
1.6003499
1.7004559
1.7907747
1.8721581
1.9469476
2.0188814
2.095058
2.1811504
2.2941794
2.4551029
2.6619459
2.9102425
3.1927593
3.5325786
3.9735503
4.5683873
5.3328206
6.2688841
7.2445683
8.1601807
8.9655392
9.6417291
10.204456
10.658874
11.017232
11.258078
11.398243
11.389186
11.143678
10.281309
7.9218723
3.4006064
-2.1399293
-6.7262323
-9.2314958
-9.7128329
-8.5942525
-6.7509031
-5.0750897
-3.6609647
-2.5033769
-1.5360828
-0.71736067
-0.036442028
0.53420426
1.0181685
1.4303019
1.7824448
2.0839983
2.3425442
2.564186
2.7538929
2.9160212
3.0543061
3.1719623
3.2717587
3.3561259
3.4272723
3.4871047
3.5373574
3.5795585
3.6149649
3.6446914
3.6697317
3.6909381
3.7090072
3.7245294
3.7379788
3.7497551
3.7600779
3.7691784
3.7772986
3.7840391
3.7890908
3.7989148
-0.88716909
-0.880477
-0.86113014
-0.83269519
-0.79475775
-0.74719193
-0.69000493
-0.62321835
-0.54698234
-0.46147389
-0.36687599
-0.26348897
-0.15177296
-0.03229412
0.094285913
0.22713297
0.36519062
0.50720956
0.65176998
0.79722729
0.94171141
1.0833281
1.2190597
1.3472266
1.4653203
1.5711999
1.6631225
1.7401225
1.8022177
1.8512669
1.8903755
1.9279927
1.9646975
2.0263651
2.1619229
2.3571093
2.5924239
2.8231419
3.0901253
3.4761763
4.1045528
5.032896
6.2371064
7.5174677
8.6626283
9.6122139
10.344756
10.94224
11.400105
11.741806
11.95746
11.996906
11.871123
11.529612
10.158458
5.7187343
-2.2409752
-10.961063
-17.416252
-20.158357
-19.358813
-15.77808
-11.359718
-7.6261986
-5.1881153
-3.4580048
-2.1656945
-1.1196024
-0.30239493
0.36402006
0.91712946
1.380011
1.7695276
2.0986893
2.3773357
2.613074
2.812266
2.9803344
3.1217675
3.2404017
3.3395193
3.4219915
3.4903462
3.5467767
3.5932301
3.6313809
3.6627714
3.6885703
3.709859
3.7275727
3.7424512
3.755139
3.7661117
3.7757771
3.7843532
3.7921032
3.7993195
3.8054264
3.8100698
3.8205048
-1.0155021
-1.0088651
-0.98900266
-0.95977859
-0.9207349
-0.87158838
-0.81235359
-0.74308577
-0.66385855
-0.57473468
-0.47587645
-0.36760809
-0.2503479
-0.12460279
0.0089407806
0.14936632
0.29556292
0.44621404
0.59971743
0.75413715
0.90721759
1.0563642
1.1991698
1.3320284
1.4517887
1.5553923
1.6400218
1.7034304
1.7444239
1.763986
1.7635473
1.7548156
1.7206343
1.686101
1.7972065
1.9607196
2.2132545
2.359686
2.4682142
2.6699777
3.2669608
4.4026198
6.0366202
7.8268089
9.278017
10.373492
11.170433
11.721776
12.117429
12.376924
12.455161
12.219665
11.722784
11.007444
8.6203536
1.3312483
-10.355127
-21.551574
-29.263359
-32.553405
-30.947286
-25.018173
-17.417348
-10.139259
-5.9202074
-4.2597955
-2.6647184
-1.4137752
-0.48267601
0.25781728
0.8683677
1.3745899
1.7959606
2.1481523
2.4427219
2.688845
2.8941989
3.0651729
3.2069839
3.3240787
3.4202199
3.4987204
3.5624334
3.6137873
3.6549916
3.6878256
3.714128
3.735063
3.7517979
3.7653682
3.7765278
3.7859323
3.7940594
3.8013387
3.8079935
3.8142865
3.8205206
3.8259367
3.8302001
3.8413932
-1.1540474
-1.1474902
-1.1271756
-1.097248
-1.0570674
-1.0063109
-0.94505169
-0.87324985
-0.79083861
-0.69785427
-0.59446581
-0.48091967
-0.35753521
-0.22480364
-0.08343593
0.065663133
0.22137148
0.38227846
0.54661392
0.7122188
0.87652538
1.0365229
1.1889111
1.3294324
1.4538937
1.5578921
1.6371919
1.6879052
1.7071683
1.6940725
1.6504313
1.5900678
1.468493
1.247685
2.0048063
3.1413064
1.8470394
1.7425196
1.5781209
1.2848905
1.6073078
3.0755233
5.3814048
8.0766759
10.028268
11.288827
12.047855
12.478411
12.712506
12.795318
12.605939
11.900043
10.791653
9.78954
6.9843659
-3.8790546
-17.577177
-29.727736
-38.169392
-41.564913
-39.925762
-32.927515
-22.944021
-13.444406
-7.1321735
-4.8436549
-2.9227821
-1.5561341
-0.56956435
0.22493343
0.88088718
1.4220872
1.8686152
2.2379799
2.5432363
2.7951338
3.0025406
3.1727365
3.3116038
3.4241497
3.5146645
3.5867922
3.6437069
3.6881213
3.7224432
3.7487671
3.7685824
3.7835744
3.7949153
3.8036134
3.8104737
3.8161469
3.821109
3.8257463
3.8303025
3.8350599
3.8402547
3.8449665
3.848867
3.8609633
-1.3030968
-1.2968238
-1.2761445
-1.2454892
-1.2042221
-1.151969
-1.088711
-1.0142891
-0.92859057
-0.83162547
-0.72346072
-0.6042266
-0.47419022
-0.33381291
-0.18373767
-0.024800026
0.14187097
0.3147947
0.49210454
0.67147476
0.85002476
1.0242259
1.1899313
1.3423949
1.4757928
1.5842853
1.6616952
1.7020274
1.7002331
1.649962
1.5635426
1.44838
1.2967555
2.3388303
5.2456141
4.9854749
2.2118509
1.2011448
0.433098
-1.1951182
-2.0888604
-0.38512874
4.1843362
8.1342556
10.808596
12.211843
12.837549
13.0279
13.009978
12.83354
12.310618
11.177928
9.8625202
13.547715
11.526601
-7.650913
-22.145797
-34.37843
-43.192693
-46.965234
-45.250441
-37.552657
-26.32046
-15.51879
-8.2345737
-5.0117598
-2.9774743
-1.5481227
-0.55200436
0.28460285
0.96436391
1.5311879
1.9942621
2.3735307
2.6831016
2.9352455
3.1398499
3.3049035
3.4369725
3.5415302
3.6233102
3.6863606
3.7340982
3.7694666
3.7950424
3.8130989
3.8253313
3.8333067
3.838357
3.8414558
3.8434187
3.8449065
3.8463706
3.8481747
3.8504932
3.8536328
3.8577818
3.8617801
3.8653637
3.8785053
-1.4631044
-1.4572916
-1.4362543
-1.4049733
-1.3628013
-1.3091541
-1.2439121
-1.1668933
-1.0779308
-0.97690512
-0.86374435
-0.7384994
-0.60137802
-0.45272601
-0.29304979
-0.12311681
0.055984597
0.24280624
0.43545752
0.63148271
0.82773533
1.0202452
1.2041579
1.3735971
1.5217916
1.6404816
1.7211422
1.7549525
1.7335188
1.6406381
1.5151177
1.3694535
1.2086436
2.3637599
4.1200586
4.0841165
3.1270266
0.36877369
-1.0551103
-4.6157376
-7.3990679
-5.5755748
2.7352804
16.054967
13.304744
12.926404
13.217403
13.063298
12.749786
12.276994
11.435366
9.828151
8.2106222
13.400701
7.8277128
-9.7912545
-23.711497
-35.334126
-44.099947
-48.07744
-46.421376
-38.421587
-26.865836
-15.646372
-8.4479784
-4.866327
-2.5805728
-1.4061631
-0.43044414
0.40879284
1.1268038
1.7096925
2.1789059
2.5594857
2.86592
3.1119486
3.3082115
3.4632467
3.5841331
3.6768471
3.7464764
3.7973814
3.8332632
3.8573019
3.872194
3.8803115
3.883457
3.8832798
3.8810682
3.8778272
3.8743084
3.8712072
3.8688977
3.8676669
3.8676676
3.8691511
3.8722778
3.8755848
3.8789574
3.8933404
-1.6344295
-1.6291771
-1.6079537
-1.5762673
-1.5333473
-1.4784203
-1.4113484
-1.3318893
-1.2397229
-1.1345951
-1.0163442
-0.88490959
-0.74034022
-0.58282467
-0.4127406
-0.23072714
-0.03773508
0.16491677
0.37539923
0.59121369
0.80906846
1.024687
1.2325759
1.4258424
1.5960673
1.7331688
1.8245612
1.8586011
1.818748
1.6845023
1.5049863
1.3244313
1.1493088
1.033137
2.7167408
3.3891553
3.1010079
-0.7199978
-2.9578748
-7.1950944
-11.027316
-8.9926925
-1.1106295
15.739959
19.764163
12.925882
12.52121
12.168464
11.619588
10.865586
9.7780957
7.7077567
6.1118724
7.6248122
4.0909007
-10.387527
-22.583748
-32.774032
-40.599318
-44.557567
-43.016113
-35.320491
-24.090534
-13.857437
-7.7216956
-4.3725048
-2.1661218
-1.181667
-0.17673614
0.61185172
1.3718379
1.9605414
2.4254767
2.7985935
3.0941613
3.3273962
3.5093039
3.6489524
3.7538823
3.8304601
3.8841247
3.9195482
3.9406229
3.9507502
3.9529609
3.9492547
3.9417976
3.932223
3.9217757
3.911437
3.9019053
3.8938134
3.887508
3.883126
3.8807614
3.8806639
3.8828439
3.8855552
3.8888405
3.9046671
-1.8173397
-1.8129096
-1.7917531
-1.7598411
-1.7163795
-1.6604449
-1.5918169
-1.5101207
-1.4148896
-1.3057622
-1.1824632
-1.0447597
-0.89249629
-0.72568255
-0.54452855
-0.34945505
-0.14117918
0.079183502
0.30999078
0.54889083
0.79261129
1.0367292
1.2752845
1.5004617
1.7022925
1.867974
1.982215
2.0277233
1.9747478
1.7972459
1.5427495
1.2788261
0.99395929
0.70759066
0.9997771
2.4481262
3.4294442
-1.3705589
-4.1956733
-7.8965937
-11.284746
-9.6358766
-2.7649476
5.3082524
17.032954
11.522485
9.2212243
9.6126115
9.2954108
8.4277081
7.1996567
4.684483
1.9242473
2.3535515
0.2301345
-9.2108121
-19.040551
-27.528347
-33.699303
-36.628143
-34.468722
-28.283288
-19.084691
-10.893633
-6.4512304
-3.441222
-1.9111623
-0.5500692
0.4682651
0.86959038
1.6856703
2.2798597
2.733854
3.0917694
3.369147
3.5829138
3.7442831
3.8628683
3.9466547
4.0024007
4.0359258
4.0521892
4.055277
4.0486753
4.0356953
4.0184045
3.9988394
3.9785823
3.9589097
3.9407415
3.9247393
3.9113736
3.9008975
3.8933722
3.8886907
3.8871037
3.8884897
3.8907458
3.8941338
3.9116066
-2.012221
-2.0089399
-1.9880555
-1.9561753
-1.9125422
-1.8559801
-1.7861152
-1.7024736
-1.6044821
-1.4916319
-1.3634483
-1.2195028
-1.0594693
-0.88314056
-0.69045349
-0.48152972
-0.25677322
-0.016979604
0.23654018
0.50180927
0.77583427
1.0542702
1.3310043
1.5976004
1.8427733
2.0514726
2.2040874
2.2768116
2.2253917
2.0055858
1.6510869
1.2246678
0.72854894
0.25904418
-0.0099131785
-0.691529
-1.6968936
-2.7579636
-4.3256631
-6.6512656
-8.520329
-7.7420746
-2.0068264
6.7004974
11.455309
13.649105
3.5057116
5.6455977
5.9494497
5.2535772
4.0050723
1.3410212
-2.4611829
-3.2578149
-3.0614105
-8.7572883
-15.522113
-21.789804
-25.840243
-27.337336
-25.300879
-20.409027
-14.104776
-8.7389346
-5.065873
-2.6231932
-1.5629538
-0.085931362
0.91186977
1.283812
2.084021
2.6668528
3.1035829
3.4392621
3.6919173
3.8796159
4.0141006
4.1056048
4.1626727
4.1924833
4.2012546
4.1942818
4.175908
4.1500439
4.1190682
4.0859911
4.0526275
4.0204412
3.9905972
3.9639553
3.9410613
3.9222209
3.9075331
3.896926
3.8901533
3.8872917
3.888134
3.890179
3.8939612
3.913315
-2.2194298
-2.2175976
-2.1973107
-2.1658741
-2.1225133
-2.0657437
-1.9950807
-1.9099675
-1.809669
-1.693477
-1.5607224
-1.410783
-1.2431163
-1.0572532
-0.85281409
-0.62955228
-0.38745941
-0.12686495
0.15145641
0.44612295
0.75475725
1.0734763
1.3964362
1.7151353
2.0173149
2.2857159
2.4966864
2.6193952
2.5978228
2.361268
1.8979029
1.286049
0.53682503
-0.25528035
-0.93438203
-1.7107562
-2.7204748
-3.798601
-4.654087
-5.7720602
-6.6627993
-6.03677
-1.2379903
6.1881634
9.4624906
11.839255
0.26040719
2.1429292
2.6322601
2.1286505
0.87132962
-1.5384381
-5.718749
-8.1141347
-7.3030855
-8.8247549
-15.094423
-17.067149
-19.120146
-19.611539
-17.801116
-14.124
-9.8666841
-6.3369256
-3.8999793
-2.3338962
-0.70776788
0.41882629
0.97378112
1.7977732
2.5731797
3.1256309
3.5361182
3.84217
4.0637907
4.2187608
4.3197527
4.3777229
4.401897
4.4001282
4.3790926
4.3443191
4.3004381
4.2516852
4.2006179
4.1497085
4.1008853
4.0555297
4.0146201
3.9789315
3.948841
3.9244475
3.9056977
3.8922533
3.8837093
3.8799963
3.8806631
3.8828336
3.8874116
3.9089697
-2.4392295
-2.4392792
-2.4200616
-2.3895126
-2.3469194
-2.2905042
-2.2196596
-2.1336938
-2.0316649
-1.9126628
-1.7758424
-1.6203779
-1.4454512
-1.2502943
-1.0341967
-0.79650858
-0.53670427
-0.25448062
0.050131081
0.37661033
0.72359968
1.0882285
1.4655713
1.8476818
2.2220898
2.5697973
2.8629549
3.0633342
3.1066611
2.9013306
2.3790185
1.5722249
0.53999792
-0.61833815
-1.7493287
-2.8913404
-4.1922522
-5.4082175
-5.9866992
-6.3389969
-6.8416788
-6.4245542
-2.3747123
2.5739195
8.8860723
9.5079895
-0.97833131
-0.14246846
0.13599526
-0.30504303
-1.4988688
-3.624446
-7.3864939
-11.05108
-12.375981
-10.505045
-11.9768
-13.218553
-14.563356
-14.851555
-13.498667
-10.776937
-7.6891715
-5.1383552
-3.3212319
-1.8704045
-0.77121663
0.29538883
1.3986994
2.3900709
3.1281447
3.648667
4.0296706
4.3018034
4.4866284
4.602057
4.6623314
4.6795483
4.6639891
4.6243635
4.5678806
4.500423
4.4267666
4.3518269
4.2777305
4.2067657
4.1407818
4.0810136
4.0282769
3.9831241
3.9456991
3.9159118
3.8934349
3.8776336
3.8678385
3.8638613
3.8649211
3.8676834
3.8735067
3.8976379
-2.671957
-2.6744349
-2.6567644
-2.6276073
-2.5864394
-2.5311269
-2.460851
-2.3747668
-2.2717529
-2.1506984
-2.010536
-1.8502028
-1.6686285
-1.4647533
-1.2375079
-0.98580423
-0.7085332
-0.40461215
-0.073116359
0.28658952
0.67458196
1.0897214
1.5287428
1.9852413
2.4478049
2.8967137
3.2998466
3.6109837
3.7503918
3.5989232
3.0214705
2.0313494
0.72081701
-0.79922737
-2.4395328
-4.1804041
-6.1176234
-7.878275
-8.8150686
-9.2863751
-9.6471051
-10.116735
-8.0273536
-6.3785095
-1.5737353
-1.3578854
-2.826619
-1.7914362
-1.5262826
-1.8877856
-2.8917468
-4.6040665
-7.4948491
-10.913371
-12.690539
-12.458126
-8.5489475
-12.616102
-12.082141
-12.600199
-11.92294
-9.9722763
-7.5058414
-5.2212299
-3.4066592
-1.9377383
-0.51448987
0.85544061
2.0592183
3.0245367
3.7296046
4.2296483
4.5844807
4.8211052
4.9633931
5.0318437
5.0432104
5.0114202
4.9482723
4.8636478
4.7654751
4.6600508
4.5520679
4.4473303
4.3470921
4.2537466
4.1689018
4.0935706
4.0283672
3.9735195
3.928894
3.8941314
3.8685531
3.8511434
3.840926
3.8375057
3.8397269
3.8437101
3.8513236
3.8784481
-2.9178991
-2.9233825
-2.907837
-2.8807595
-2.8418459
-2.7885022
-2.7196771
-2.6344024
-2.531365
-2.4092059
-2.2666137
-2.1023038
-1.9149885
-1.7033291
-1.4658958
-1.2011558
-0.9073921
-0.5826789
-0.22493985
0.16789557
0.59784475
1.0661484
1.5721445
2.1122319
2.6781856
3.2518017
3.7970941
4.2600952
4.5287645
4.4479622
3.7690425
2.5499144
0.93987273
-0.92518438
-3.1271623
-5.5027562
-8.2695794
-11.239293
-13.18398
-13.516698
-13.103785
-12.405247
19.677576
-8.0214271
-8.0056057
-5.4309415
-4.1762671
-2.8838966
-2.5329624
-2.7755987
-3.5332834
-4.8155252
-6.8193367
-9.477186
-11.692299
-13.437229
-7.5276754
-8.0793499
-9.3519036
-11.520395
-12.034812
-10.659
-8.5045381
-6.1629186
-3.9490186
-1.9249906
-0.11549415
1.4318136
2.6973176
3.6720285
4.3790167
4.8761474
5.2083207
5.4069212
5.4990528
5.5111922
5.4638472
5.3732527
5.2533907
5.1155876
4.9687644
4.8197412
4.6737894
4.5341099
4.4043917
4.286326
4.1810109
4.0891434
4.0110521
3.9465459
3.8951787
3.8562466
3.8285589
3.8106668
3.8011976
3.7994682
3.8038733
3.8099527
3.8200712
3.8507189
-3.1771641
-3.1863957
-3.1737796
-3.1496226
-3.1139114
-3.0635685
-2.9973044
-2.913999
-2.8120821
-2.6899239
-2.5460005
-2.3788461
-2.1869738
-1.9687959
-1.7225786
-1.4463855
-1.1379179
-0.79436234
-0.41263655
0.011208545
0.48158646
1.0027491
1.5774461
2.2062503
2.8879765
3.6101321
4.3340152
5.0051076
5.4582507
5.5172613
4.7564643
3.3205769
1.3687186
-0.75077336
-3.5162496
-6.6945845
-10.835317
-15.490797
-18.938099
-18.87539
-15.691501
-6.4129457
19.939756
-16.158288
-13.285131
-9.0085373
-5.3398466
-3.553396
-3.0733967
-3.21746
-3.7645775
-4.6995878
-6.0290031
-7.7883546
-9.7227663
-11.175738
-11.309996
-2.4243488
-7.8639984
-10.561944
-13.190582
-12.497942
-10.442009
-7.7731727
-4.9320149
-2.1943637
0.11781299
1.9109691
3.2958627
4.3384052
5.0879885
5.5981203
5.9128023
6.0696673
6.1034764
6.0436816
5.9253039
5.7639652
5.5765954
5.3762931
5.1729869
4.9738536
4.7843119
4.6060935
4.4439965
4.2990396
4.1718632
4.062772
3.9716456
3.8979266
3.8407316
3.7989034
3.7706395
3.7538884
3.7467937
3.748282
3.7562398
3.7655824
3.779143
3.8139962
-3.4498942
-3.463859
-3.4551119
-3.4348163
-3.403451
-3.3574295
-3.2951091
-3.2151339
-3.1156535
-2.9947883
-2.8508243
-2.6821259
-2.4870532
-2.2639037
-2.0107022
-1.7252269
-1.4046729
-1.0454991
-0.64307112
-0.19233957
0.31225913
0.88230345
1.5225312
2.2364663
3.0399388
3.9303734
4.87192
5.8419692
6.5799517
6.8770488
6.1444342
4.5092297
2.4826465
0.46658885
-2.815703
-6.8748008
-13.029562
-21.178223
-27.386482
-28.369198
-25.670886
-8.1092788
8.7595876
-18.859027
-14.395399
-9.3733384
-5.4820897
-3.5161323
-3.2707253
-3.4274504
-3.8289359
-4.4511498
-5.2388611
-6.2158661
-7.7207325
-9.3196716
-9.5106549
-0.81405079
-5.3750629
-10.279591
-16.876552
-17.07988
-14.361884
-10.571719
-6.5396049
-2.7237636
0.23344732
2.3417864
3.9099609
5.0721605
5.8922695
6.4259864
6.720091
6.8228482
6.7803994
6.6330233
6.4275579
6.1804597
5.912942
5.639888
5.3717008
5.1155615
4.8762482
4.6562463
4.4589823
4.2851498
4.1349649
4.008248
3.9043812
3.8224152
3.7610216
3.7182369
3.6915903
3.678291
3.6758537
3.6826077
3.6959039
3.7099902
3.7281357
3.7680441
-3.7362966
-3.7561633
-3.75234
-3.7370729
-3.7115047
-3.6714121
-3.6146561
-3.5396048
-3.4441204
-3.3260486
-3.1834598
-3.0145891
-2.8177643
-2.591403
-2.3332639
-2.0413101
-1.7123663
-1.342289
-0.92553852
-0.45489754
0.079608672
0.68694604
1.3855369
2.1617791
3.111262
4.1959973
5.411633
6.7357785
7.9846645
8.6307016
9.5363083
10.852647
4.0860283
2.0537448