/*--------------------------------*- C++ -*----------------------------------*\
  =========                 |
  \\      /  F ield         | OpenFOAM: The Open Source CFD Toolbox
   \\    /   O peration     | Website:  https://openfoam.org
    \\  /    A nd           | Version:  9
     \\/     M anipulation  |
\*---------------------------------------------------------------------------*/
FoamFile
{
    format      ascii;
    class       surfaceScalarField;
    location    "0.57";
    object      phi;
}
// * * * * * * * * * * * * * * * * * * * * * * * * * * * * * * * * * * * * * //

dimensions      [0 3 -1 0 0 0 0];

internalField   nonuniform List<scalar> 
19800
(
9.7452074e-05
-5.0826966e-05
0.00012153978
-4.9680728e-05
0.00014513578
-4.871572e-05
0.0001679927
-4.7229916e-05
0.0001900596
-4.5655966e-05
0.00021121955
-4.3757295e-05
0.00023136737
-4.1686858e-05
0.00025041564
-3.9399184e-05
0.00026825927
-3.6960722e-05
0.00028484793
-3.4362403e-05
0.00030006367
-3.1613478e-05
0.00031387152
-2.8781003e-05
0.00032615018
-2.5753333e-05
0.00033683828
-2.2716061e-05
0.00034584402
-1.9570263e-05
0.00035308258
-1.6354726e-05
0.00035844796
-1.3062474e-05
0.00036182984
-9.6827942e-06
0.00036305826
-6.225249e-06
0.00036194636
-2.652566e-06
0.00035952709
7.9053818e-07
0.00035552604
5.2287345e-06
0.00034898918
9.2926686e-06
0.0003399765
1.3254622e-05
0.00032854224
1.7182757e-05
0.00031469448
2.1099935e-05
0.00029845142
2.5044423e-05
0.00027989817
2.9000399e-05
0.00025915718
3.288034e-05
0.00023641195
3.6657184e-05
0.00021190933
4.0254467e-05
0.00018601572
4.3517981e-05
0.00015912593
4.6310768e-05
0.00013176905
4.853368e-05
0.00010457144
5.0115043e-05
7.8278216e-05
5.0914457e-05
5.3834748e-05
5.0953284e-05
3.2406108e-05
5.0465666e-05
1.5657473e-05
4.9670452e-05
7.1106221e-06
4.8693304e-05
7.0783525e-06
4.6274032e-05
1.6620247e-05
4.1919428e-05
3.7263152e-05
3.5298515e-05
7.0286733e-05
2.6132906e-05
0.00011685621
1.3490951e-05
0.00017410146
-3.233033e-07
0.00024306413
-2.1136929e-05
0.00032467423
-4.7349467e-05
0.0004172301
-7.6913644e-05
0.00051826413
-0.00010757417
0.00063417507
-0.00013520981
0.00076314363
-0.00016010671
0.00090190595
-0.00018108613
0.0010462577
-0.00019615397
0.0011909972
-0.00020328957
0.0013300267
-0.00020059599
0.0014567822
-0.00018696169
0.0015648703
-0.00016224384
0.0016485791
-0.0001273819
0.001703254
-8.425673e-05
0.0017246275
-3.513038e-05
0.0017171164
1.6383557e-05
0.0016793535
6.8247107e-05
0.0016152715
0.00011645755
0.001528892
0.00015942137
0.0014246713
0.00019578444
0.001307202
0.00022482293
0.0011808233
0.0002464093
0.0010494927
0.00026081308
0.00091668065
0.00026868877
0.00078525398
0.00027085743
0.00065755417
0.00026813919
0.00053541834
0.00026143545
0.00042023822
0.00025162528
0.00031295029
0.00023942584
0.00021415167
0.00022528491
0.00012414636
0.00020975945
4.3155454e-05
0.00019317563
-2.888365e-05
0.00017607778
-9.2236188e-05
0.00015926598
-0.00014697542
0.00014193325
-0.00019352187
0.00012478162
-0.00023217413
0.00010797405
-0.00026321171
9.165619e-05
-0.00028683283
7.5855064e-05
-0.00030336783
6.0539191e-05
-0.00031301513
4.5291898e-05
-0.00031688584
3.0415228e-05
-0.00031648937
1.6316444e-05
-0.00031288466
3.146497e-06
-0.00030542959
-9.1073644e-06
-0.00029269469
-1.9718884e-05
-0.00027536524
-2.8926591e-05
-0.00025401733
-3.7036888e-05
-0.0002291503
-4.411958e-05
-0.00020124028
-5.0279856e-05
-0.00017071516
-5.5424626e-05
-0.00013798026
-5.9736328e-05
-0.00010349183
-6.310148e-05
-6.6267157e-05
9.8446254e-05
-7.5912291e-05
0.00012293717
-7.4184331e-05
0.00014683639
-7.2614293e-05
0.00017000874
-7.0408094e-05
0.00019234724
-6.7994113e-05
0.00021374723
-6.5167593e-05
0.00023412652
-6.205432e-05
0.00025337583
-5.8660129e-05
0.0002714
-5.4967187e-05
0.00028811161
-5.1077016e-05
0.00030345513
-4.6953483e-05
0.00031734174
-4.2654395e-05
0.00032969942
-3.8116452e-05
0.0003404663
-3.3477504e-05
0.00034955859
-2.865849e-05
0.00035691005
-2.3716058e-05
0.00036244068
-1.8593596e-05
0.00036606975
-1.3310912e-05
0.00036770941
-7.870633e-06
0.00036731351
-2.2535929e-06
0.00036462927
3.4804936e-06
0.00036012299
9.7316329e-06
0.00035343204
1.598156e-05
0.00034440574
2.2282347e-05
0.00033296241
2.8620655e-05
0.0003190691
3.498668e-05
0.00030282257
4.1293242e-05
0.00028423127
4.7594923e-05
0.00026341948
5.3687901e-05
0.00024056316
5.9509013e-05
0.00021592401
6.4895126e-05
0.00018983903
6.9604262e-05
0.00016272086
7.3425791e-05
0.00013506658
7.6187481e-05
0.00010761776
7.7569429e-05
8.1174896e-05
7.7358689e-05
5.6757016e-05
7.5364034e-05
3.5632593e-05
7.1587156e-05
1.9321325e-05
6.5985459e-05
9.6217487e-06
5.8390615e-05
7.6418992e-06
4.8248434e-05
1.4580002e-05
3.4979504e-05
3.1435913e-05
1.8442271e-05
5.8563839e-05
-9.9309494e-07
9.6624532e-05
-2.4572956e-05
0.00014891645
-5.2616162e-05
0.00021366334
-8.587635e-05
0.00029101947
-0.00012470416
0.0003817106
-0.00016760588
0.00048552536
-0.00021139391
0.00060465087
-0.00025433448
0.00073840417
-0.00029385801
0.00088373955
-0.00032642216
0.0010367532
-0.00034917198
0.0011919237
-0.00035846316
0.0013424592
-0.00035113021
0.0014809976
-0.00032549697
0.0015997936
-0.00028103787
0.0016922853
-0.00021987705
0.0017532988
-0.00014527138
0.0017802199
-6.2043955e-05
0.0017718268
2.4780512e-05
0.0017314752
0.0001086057
0.0016626094
0.00018532489
0.0015697706
0.00025226379
0.0014581578
0.0003074136
0.0013329314
0.00035005662
0.0011990687
0.00038027502
0.0010607285
0.00039916072
0.0009216187
0.00040779963
0.00078478274
0.0004076911
0.00065247041
0.00040045501
0.000526495
0.0003874131
0.00040811707
0.00037000337
0.00029831317
0.00034923081
0.00019760117
0.00032599922
0.00010620194
0.00030116232
2.4346896e-05
0.00027503172
-4.8177711e-05
0.00024860094
-0.00011160141
0.00022268903
-0.00016627907
0.00019661135
-0.00021259437
0.00017109995
-0.00025083122
0.00014621554
-0.00028135687
0.00012218588
-0.00030457885
9.9078182e-05
-0.00032088025
7.6842941e-05
-0.00033104638
5.546529e-05
-0.00033564096
3.5014168e-05
-0.0003349793
1.5653831e-05
-0.00032899255
-2.8400039e-06
-0.00031875369
-1.9343744e-05
-0.00030417288
-3.4293769e-05
-0.00028541451
-4.7678439e-05
-0.00026284543
-5.9601516e-05
-0.00023682696
-7.0136245e-05
-0.0002077788
-7.9327891e-05
-0.00017604303
-8.7160897e-05
-0.00014211429
-9.3664721e-05
-0.00010650207
-9.8711353e-05
-0.00010356084
9.9790062e-05
-0.0001013714
0.00012460695
-9.9001322e-05
0.00014885835
-9.6863609e-05
0.0001723914
-9.3935877e-05
0.00019506653
-9.0680745e-05
0.00021680546
-8.6896537e-05
0.00023749696
-8.276262e-05
0.00025701052
-7.8165855e-05
0.00027531541
-7.328269e-05
0.00029227369
-6.8043978e-05
0.00030785506
-6.2530175e-05
0.00032193085
-5.6739033e-05
0.00033453785
-5.0720369e-05
0.0003455126
-4.4443542e-05
0.00035481671
-3.7965724e-05
0.00036235035
-3.1246488e-05
0.00036806313
-2.4301182e-05
0.00037189146
-1.7143146e-05
0.0003737912
-9.7696397e-06
0.00037367864
-2.1362778e-06
0.00037111736
6.0389246e-06
0.00036667237
1.4174016e-05
0.00036000944
2.2647118e-05
0.00035105591
3.123367e-05
0.00033967042
4.0000476e-05
0.0003258259
4.8831591e-05
0.00030950003
5.7620441e-05
0.00029077338
6.6316216e-05
0.00026971731
7.4738246e-05
0.00024644804
8.2777665e-05
0.00022107307
9.0270154e-05
0.00019415117
9.652533e-05
0.00016580303
0.00010177482
0.0001368862
0.00010510502
0.00010791001
0.0001065446
7.9840494e-05
0.00010542735
5.3760953e-05
0.00010144277
3.0994224e-05
9.4354965e-05
1.3036645e-05
8.3946204e-05
1.2335997e-06
7.0191207e-05
-3.3716714e-06
5.2849639e-05
6.1404366e-07
3.0994628e-05
1.410249e-05
4.9531416e-06
3.7863882e-05
-2.4752748e-05
7.2502966e-05
-5.9210918e-05
0.00011938802
-9.9502168e-05
0.0001791323
-0.00014561739
0.00025262226
-0.00019819729
0.00034068067
-0.00025566708
0.00044547083
-0.00031618762
0.00056749558
-0.00037635912
0.00070688839
-0.00043325104
0.00086150817
-0.00048104382
0.0010274046
-0.0005150702
0.0011984488
-0.00052950647
0.001366701
-0.00051938019
0.0015229142
-0.00048171079
0.0016576087
-0.00041573642
0.0017627352
-0.00032500287
0.0018321627
-0.00021469979
0.0018623604
-9.2240174e-05
0.0018510663
3.6076658e-05
0.0018043553
0.00015531816
0.0017261579
0.0002635245
0.0016221948
0.00035623658
0.0014985986
0.00043100398
0.001361651
0.00048702229
0.0012165731
0.00052535492
0.0010683479
0.00054737857
0.0009207442
0.00055540858
0.00077681087
0.00055163012
0.00063889567
0.00053837271
0.00050863887
0.00051766574
0.00038716447
0.0004914716
0.00027506594
0.00046133052
0.00017279896
0.00042826792
8.0464303e-05
0.00039349751
-1.7809403e-06
0.00035727773
-7.4658582e-05
0.00032147816
-0.00013789627
0.0002859281
-0.00019218687
0.00025090529
-0.00023773838
0.00021665536
-0.00027515665
0.00018363576
-0.00030476856
0.00015179969
-0.00032706727
0.00012137979
-0.00034250136
9.2280136e-05
-0.00035154318
6.4509818e-05
-0.00035466305
3.8135598e-05
-0.00035211801
1.3111045e-05
-0.00034492489
-1.0028359e-05
-0.00033318652
-3.1079691e-05
-0.000317098
-5.0379708e-05
-0.00029686742
-6.7904797e-05
-0.00027291551
-8.3550631e-05
-0.00024552685
-9.7522221e-05
-0.00021526693
-0.00010958613
-0.00018236319
-0.00012006041
-0.00014723214
-0.00012879402
-0.00011032719
-0.00013561325
-0.0001421676
0.00010151022
-0.00012739262
0.00012686929
-0.00012436755
0.00015163209
-0.00012162147
0.00017563364
-0.00011794501
0.00019875764
-0.00011379285
0.00022087303
-0.00010902142
0.00024189516
-0.00010377178
0.00026180632
-9.8078336e-05
0.00028037804
-9.1857763e-05
0.0002976575
-8.5315046e-05
0.00031349061
-7.8369947e-05
0.00032785631
-7.1105911e-05
0.00034067263
-6.3530536e-05
0.00035189155
-5.5666401e-05
0.00036143199
-4.7505233e-05
0.00036919934
-3.9007584e-05
0.00037516423
-3.0267925e-05
0.0003792491
-2.1228307e-05
0.00038133179
-1.1847309e-05
0.00038134631
-2.151665e-06
0.00037948046
7.9024124e-06
0.00037533035
1.8328044e-05
0.0003689043
2.9074577e-05
0.00036004157
4.0091762e-05
0.00034873551
5.1305576e-05
0.00033490184
6.2667348e-05
0.00031846717
7.4050172e-05
0.00029944964
8.5325022e-05
0.00027781442
9.6371822e-05
0.00025380242
0.00010679228
0.00022761827
0.00011645265
0.00019929693
0.00012484462
0.00016938841
0.0001316863
0.00013825362
0.00013624076
0.00010665734
0.00013813714
7.5551131e-05
0.00013653513
4.6123718e-05
0.00013087669
1.9605242e-05
0.00012087497
-2.2743237e-06
0.00010582354
-1.7618141e-05
8.5531987e-05
-2.4884955e-05
6.0116218e-05
-2.4863896e-05
3.0978475e-05
-1.6560619e-05
-3.3511444e-06
1.9100637e-06
-4.3225598e-05
3.0742625e-05
-8.8042572e-05
7.185569e-05
-0.00014061794
0.00012624326
-0.00020000615
0.00019486261
-0.00026682234
0.00028059461
-0.00034140113
0.00038567953
-0.00042127278
0.00051233161
-0.00050301054
0.00066076168
-0.00058168193
0.00082982145
-0.00065010481
0.0010158152
-0.00070106375
0.001211817
-0.00072550723
0.0014076871
-0.00071525027
0.0015917128
-0.00066573572
0.0017518091
-0.00057583853
0.0018756302
-0.00044882504
0.0019552124
-0.00029427912
0.0019866927
-0.00012372031
0.0019714301
5.1340486e-05
0.0019131963
0.00021355474
0.0018190997
0.00035761596
0.0016969986
0.00047835147
0.0015548699
0.0005731308
0.0014001005
0.00064178953
0.0012390672
0.00068639691
0.0010768365
0.00070961403
0.00091746073
0.00071478033
0.00076395486
0.00070513263
0.00061835906
0.00068396968
0.00048217707
0.00065385176
0.00035640135
0.00061724854
0.00024156761
0.00057616162
0.0001376771
0.00053215596
4.484761e-05
0.00048632958
-3.7558718e-05
0.0004396868
-0.00011011177
0.0003940316
-0.00017274667
0.00034856589
-0.00022591963
0.00030408015
-0.00027045055
0.00026118673
-0.00030657001
0.00021975656
-0.00033475687
0.00017998944
-0.00035555243
0.00014217704
-0.00036943115
0.00010615788
-0.00037691656
7.1995403e-05
-0.00037855124
3.9772842e-05
-0.0003749033
9.4646328e-06
-0.00036622628
-1.870517e-05
-0.000352685
-4.4620161e-05
-0.00033471697
-6.8346631e-05
-0.00031269899
-8.9918811e-05
-0.00028694854
-0.00010929646
-0.00025778538
-0.00012668269
-0.00022565794
-0.00014171256
-0.00019096822
-0.00015475088
-0.00015410299
-0.00016565776
-0.00011547433
-0.0001742361
-0.00018253066
0.0001037616
-0.00015408034
0.00012973834
-0.00015034524
0.00015514699
-0.00014704195
0.00017973408
-0.00014252037
0.00020341779
-0.00013749021
0.00022605255
-0.00013164645
0.000247634
-0.00012535554
0.00026787732
-0.00011832747
0.00028690147
-0.00011087362
0.0003045149
-0.00010293202
0.00032072269
-9.4578368e-05
0.00033542675
-8.5802065e-05
0.0003485028
-7.6607849e-05
0.00036002611
-6.7189068e-05
0.0003698567
-5.7328946e-05
0.00037797453
-4.7125879e-05
0.00038435621
-3.6651338e-05
0.0003887836
-2.5651726e-05
0.00039124326
-1.4306682e-05
0.00039170297
-2.6134796e-06
0.00039011816
9.4916227e-06
0.00038634605
2.2104842e-05
0.00038014747
3.5271267e-05
0.00037152455
4.8713398e-05
0.00036034797
6.2484675e-05
0.00034653708
7.647679e-05
0.00033001104
9.056946e-05
0.00031072531
0.0001046068
0.00028874376
0.00011835495
0.00026398724
0.00013155027
0.00023657018
0.00014386791
0.00020674235
0.00015467151
0.00017471537
0.0001637164
0.00014096014
0.00016999834
0.00010610508
0.00017299114
7.1186712e-05
0.00017145629
3.7191974e-05
0.00016487735
5.9132568e-06
0.00015215256
-2.0936805e-05
0.00013267011
-4.2036675e-05
0.00010663265
-5.5420404e-05
7.3501436e-05
-5.9650568e-05
3.521052e-05
-5.561755e-05
-7.3885766e-06
-4.2850163e-05
-5.5998363e-05
-1.9664861e-05
-0.00011122598
1.2548332e-05
-0.00017283232
5.8504779e-05
-0.00024596511
0.00012063563
-0.00032895983
0.00020133973
-0.00042210759
0.00030523252
-0.00052516356
0.00043570426
-0.00063347966
0.00059476884
-0.00074074563
0.00078266296
-0.00083799825
0.00099537303
-0.00091377113
0.0012248674
-0.00095499908
0.0014591982
-0.00094958339
0.0016823213
-0.00088886167
0.0018767133
-0.00077023308
0.0020270838
-0.00059919535
0.0021219737
-0.000389166
0.0021568039
-0.00015854597
0.0021306018
7.754404e-05
0.0020543913
0.00028976631
0.0019371584
0.00047485419
0.0017896906
0.00062581389
0.0016223543
0.00074047286
0.0014440481
0.00082010001
0.0012621493
0.00086829068
0.0010822302
0.00088953219
0.00090828578
0.00088873186
0.00074323432
0.00087019149
0.00058890641
0.00083829851
0.00044626426
0.00079649073
0.00031589362
0.00074761338
0.00019794037
0.0006941116
9.2223084e-05
0.00063787247
-1.3278532e-06
0.00057988068
-8.4094855e-05
0.00052245468
-0.00015569593
0.00046563416
-0.00021718279
0.00041005554
-0.0002690624
0.00035596144
-0.00031183361
0.00030396037
-0.00034600566
0.0002539303
-0.00037250944
0.00020649229
-0.00039150311
0.00016117147
-0.00040359718
0.00011825459
-0.000409134
7.7534997e-05
-0.00040875154
3.939157e-05
-0.00040291239
3.6264923e-06
-0.00039199672
-2.9618961e-05
-0.0003763263
-6.0288963e-05
-0.00035621365
-8.8456279e-05
-0.00033201336
-0.0001141151
-0.00030408407
-0.00013722559
-0.00027287205
-0.00015789361
-0.00023859386
-0.00017599136
-0.0002018587
-0.00019148644
-0.00016282012
-0.000204699
-0.00012222335
-0.00021482554
-0.00022508446
0.0001065437
-0.00018161168
0.00013334232
-0.00017715497
0.00015949497
-0.00017318484
0.00018476316
-0.00016779835
0.00020907299
-0.00016179051
0.00023237766
-0.00015495188
0.00025442522
-0.00014740862
0.00027529722
-0.00013919276
0.00029478109
-0.00013036189
0.00031286074
-0.00012101481
0.00032943035
-0.00011114146
0.00034449249
-0.00010086491
0.00035801859
-9.0133866e-05
0.00036988264
-7.9045909e-05
0.00038010159
-6.7546933e-05
0.00038863335
-5.5660094e-05
0.00039531868
-4.3333785e-05
0.00040020768
-3.0539945e-05
0.00040318443
-1.7285835e-05
0.00040411368
-3.5389914e-06
0.00040297938
1.063192e-05
0.0003996713
2.5412472e-05
0.00039393932
4.1001986e-05
0.0003856745
5.6981893e-05
0.00037477512
7.3385612e-05
0.00036106947
9.0178468e-05
0.00034452191
0.00010711495
0.00032501427
0.00012411617
0.00030245763
0.00014091112
0.0002768006
0.00015720504
0.00024809134
0.000172578
0.00021631057
0.00018645476
0.00018173859
0.00019829009
0.00014457349
0.00020716546
0.00010551787
0.00021204794
6.5269407e-05
0.00021170542
2.5336742e-05
0.00020481134
-1.2692713e-05
0.00019018065
-4.6276321e-05
0.00016625367
-7.2576079e-05
0.00013293634
-9.1970292e-05
9.289396e-05
-0.00010361741
4.6852867e-05
-0.00010517764
-5.832737e-06
-9.836932e-05
-6.2809177e-05
-8.3746904e-05
-0.00012584554
-5.754565e-05
-0.00019903604
-2.1805433e-05
-0.00028170914
2.8771203e-05
-0.00037953917
9.9866178e-05
-0.00049320026
0.00019880462
-0.00062409753
0.00033064315
-0.00076531707
0.00050061192
-0.00091071565
0.00071043255
-0.0010478192
0.00095758875
-0.0011609227
0.0012336821
-0.0012310895
0.0015223424
-0.0012382413
0.0018018664
-0.0011683886
0.0020469425
-0.001015311
0.0022343629
-0.00078660933
0.0023483894
-0.00050319075
0.0023824938
-0.00019264913
0.0023411224
0.00011892124
0.0022372026
0.00039367738
0.0020861212
0.00062594331
0.0019028838
0.00080905344
0.0017012347
0.00094211225
0.0014920909
0.0010292436
0.001283673
0.0010767212
0.0010817854
0.0010914257
0.00089052385
0.0010799953
0.00071204302
0.0010486723
0.00054769578
0.0010026416
0.0003980289
0.00094615835
0.00026300076
0.00088264448
0.00014224027
0.00081487403
3.5133283e-05
0.00074498031
-5.8474026e-05
0.0006734878
-0.00014057067
0.00060454954
-0.00021116885
0.00053623055
-0.00027104806
0.00046993603
-0.00032093404
0.00040584883
-0.00036165366
0.00034468085
-0.00039372708
0.00028600532
-0.00041770923
0.0002304754
-0.00043426334
0.0001777254
-0.00044387928
0.00012786862
-0.00044717631
8.0829903e-05
-0.00044442698
3.664111e-05
-0.00043601258
-4.788756e-06
-0.00042261891
-4.3010918e-05
-0.00040443309
-7.8474095e-05
-0.00038181914
-0.00011106891
-0.00035507435
-0.00014085809
-0.00032464914
-0.0001676524
-0.00029092385
-0.00019161682
-0.00025424568
-0.00021266914
-0.00021484869
-0.00023088044
-0.00017327052
-0.00024627656
-0.00013012558
-0.00025797051
-0.00027022472
0.00010988114
-0.00021013679
0.00013761404
-0.00020487674
0.00016462159
-0.00020020962
0.00019074846
-0.00019391286
0.00021583755
-0.00018688256
0.00023982144
-0.00017894181
0.00026255034
-0.00017013007
0.00028400276
-0.00016064892
0.00030400147
-0.00015036463
0.00032259301
-0.00013960079
0.00033964024
-0.00012818976
0.00035518326
-0.00011640969
0.00036909558
-0.00010404042
0.00038140461
-9.135394e-05
0.00039206775
-7.8213618e-05
0.0004010138
-6.4604773e-05
0.00040824223
-5.0561575e-05
0.00041365804
-3.5959024e-05
0.00041718204
-2.0808057e-05
0.00041871346
-5.0647399e-06
0.00041819285
1.1152406e-05
0.00041543084
2.8171587e-05
0.0004103494
4.608611e-05
0.00040262545
6.4710196e-05
0.00039212684
8.3883303e-05
0.0003786916
0.00010361167
0.00036219525
0.00012361355
0.00034251827
0.00014379477
0.00031947775
0.00016394781
0.00029296414
0.00018371567
0.00026283239
0.00020271313
0.00022906677
0.00022022333
0.00019146793
0.00023588674
0.00015040154
0.00024823109
0.00010604763
0.00025640405
5.9301294e-05
0.00025845224
1.161057e-05
0.00025250248
-3.427208e-05
0.00023606401
-7.6562562e-05
0.00020854444
-0.00011230946
0.00016868414
-0.00013876503
0.00011934543
-0.00015474644
6.2830063e-05
-0.00016237134
1.7938829e-06
-0.00016243611
-6.2742843e-05
-0.00015546597
-0.00013281589
-0.00014295207
-0.00021155608
-0.00012092833
-0.00030373686
-8.3703516e-05
-0.00041676149
-2.5299679e-05
-0.0005515988
6.1789988e-05
-0.0007111832
0.00018941068
-0.00089293835
0.00036843646
-0.0010897403
0.00060298197
-0.0012823643
0.00089407642
-0.0014520109
0.0012324138
-0.0015694289
0.0015973367
-0.0016031645
0.0019572156
-0.0015282651
0.0022740646
-0.0013321605
0.0025130903
-0.0010256296
0.0026512454
-0.00064134509
0.0026813773
-0.00022278464
0.0026120951
0.0001882049
0.0024664932
0.00053928521
0.0022667831
0.00082565065
0.0020348648
0.0010409734
0.0017880996
0.0011888772
0.0015399945
0.0012773483
0.0012992587
0.0013174642
0.0010715289
0.0013191628
0.00086031143
0.0012912159
0.00066700672
0.0012419733
0.0004920632
0.0011775807
0.00033524081
0.001102982
0.00019584413
0.0010220431
7.2727837e-05
0.00093799386
-3.4333537e-05
0.00085204683
-0.00012836756
0.00076752459
-0.00020882913
0.00068501237
-0.00027728337
0.0006046872
-0.00033473665
0.00052739077
-0.000381985
0.00045309518
-0.00041972423
0.00038241962
-0.00044911139
0.00031539568
-0.00047032827
0.00025169499
-0.00048406338
0.00019146255
-0.00049075698
0.00013456602
-0.00049115642
8.1230895e-05
-0.00048553751
3.1023365e-05
-0.00047426095
-1.6064851e-05
-0.00045795332
-5.9318652e-05
-0.00043689733
-9.953076e-05
-0.0004114014
-0.00013656442
-0.00038186571
-0.00017039209
-0.00034853089
-0.00020098633
-0.00031189316
-0.00022825536
-0.00027231451
-0.00025224787
-0.00023010655
-0.00027308289
-0.00018556579
-0.0002908103
-0.00013950296
-0.00030403317
-0.00031835988
0.00011381051
-0.00023981852
0.00014260526
-0.00023368414
0.00017065653
-0.00022825372
0.0001977594
-0.00022101793
0.00022371574
-0.00021284602
0.00024850265
-0.0002037234
0.00027202492
-0.00019365687
0.00029412085
-0.00018274944
0.00031472633
-0.00017096499
0.00033386433
-0.00015873967
0.00035146384
-0.0001457919
0.00036743164
-0.00013237309
0.00038187466
-0.00011848299
0.00039457853
-0.00010406237
0.00040571347
-8.9348478e-05
0.00041521984
-7.4110951e-05
0.00042295535
-5.8301545e-05
0.00042900951
-4.2014022e-05
0.00043314968
-2.4944335e-05
0.00043539986
-7.315667e-06
0.00043569387
1.0853903e-05
0.00043373839
3.0127493e-05
0.00042925723
5.0571006e-05
0.00042229372
7.1674149e-05
0.0004123745
9.3801584e-05
0.00039940678
0.00011658111
0.00038320831
0.00013981347
0.00036345922
0.00016354172
0.00034009267
0.00018731108
0.00031290807
0.0002108995
0.00028145851
0.00023416366
0.00024560325
0.00025607696
0.0002052949
0.00027619058
0.00015974423
0.00029378115
0.00010920851
0.00030694364
5.4232454e-05
0.00031342995
-3.5774256e-06
0.00031031329
-6.1771256e-05
0.00029426049
-0.00011476218
0.00026153537
-0.00016021999
0.00021414
-0.00019424494
0.00015336732
-0.00021524428
8.3827991e-05
-0.0002278765
1.4429231e-05
-0.00023367387
-5.6944217e-05
-0.00023623375
-0.00013025659
-0.00023748667
-0.0002103047
-0.00023376073
-0.00030746255
-0.00022004511
-0.00043047468
-0.0001848481
-0.00058679697
-0.00011555797
-0.000780473
4.3341791e-06
-0.0010128303
0.00018423615
-0.0012696341
0.00044329396
-0.0015414206
0.00078846806
-0.0017971817
0.0012101199
-0.0019910823
0.001682248
-0.0020752956
0.0021581812
-0.0020041984
0.0025791469
-0.0017531247
0.0028903917
-0.0013368704
0.0030577703
-0.00080872337
0.0030737378
-0.00023874482
0.002959017
0.00030291959
0.002749136
0.00074916378
0.002479887
0.0010949022
0.0021819167
0.001338946
0.0018775284
0.0014932641
0.0015815142
0.0015733685
0.0013026434
0.0015963448
0.0010458602
0.0015759509
0.0008127837
0.0015242937
0.00060404597
0.001450709
0.00041873856
0.0013628871
0.00025549716
0.0012662262
0.00011272948
0.0011648153
-1.1012155e-05
0.0010617391
-0.00011819983
0.00095923652
-0.00021077969
0.00086010687
-0.00028886125
0.00076309852
-0.00035439261
0.0006702243
-0.00040845207
0.00058145401
-0.00045243725
0.00049708059
-0.00048692714
0.00041690815
-0.00051264611
0.0003411131
-0.00053036788
0.00026941595
-0.00054072353
0.0002018199
-0.00054415273
0.00013799963
-0.00054115059
7.8230696e-05
-0.00053215658
2.2027436e-05
-0.00051785447
-3.0368666e-05
-0.00049823915
-7.8930992e-05
-0.00047382721
-0.00012394062
-0.00044498071
-0.00016541186
-0.0004121784
-0.00020319706
-0.00037567247
-0.00023749168
-0.00033580402
-0.00026812607
-0.00029296187
-0.0002950915
-0.00024758084
-0.00031845892
-0.00019974763
-0.00033864668
-0.00015040505
-0.00035337364
-0.0003698091
0.00011840192
-0.00027085117
0.00014840739
-0.00026367283
0.00017765612
-0.00025751351
0.00020580078
-0.00024916697
0.00023278237
-0.00023982124
0.00025849556
-0.0002294429
0.00028281428
-0.00021798048
0.00030568759
-0.00020561751
0.00032701089
-0.00019228894
0.00034668931
-0.000178421
0.00036484909
-0.00016394793
0.00038130768
-0.00014883135
0.00039617129
-0.00013335137
0.00040948431
-0.00011737554
0.00042110009
-0.0001009636
0.00043106403
-8.4079777e-05
0.00043942961
-6.6670243e-05
0.00044612048
-4.8702878e-05
0.0004511613
-2.998656e-05
0.00045436864
-1.052889e-05
0.00045546961
9.7512842e-06
0.00045439307
3.1206743e-05
0.00045096246
5.400115e-05
0.00044485628
7.7777646e-05
0.00043583742
0.00010282198
0.00042360524
0.00012881672
0.00040780334
0.00015561409
0.00038830303
0.00018303831
0.00036483361
0.00021077949
0.00033713632
0.00023859554
0.00030487964
0.00026641545
0.00026749752
0.00029345458
0.00022416926
0.00031951866
0.00017399025
0.00034396375
0.00011696563
0.00036397191
5.2540682e-05
0.00037785483
-1.8448365e-05
0.00038130214
-9.1983712e-05
0.00036779985
-0.00016141919
0.00033097375
-0.00021921173
0.00027193144
-0.00026141626
0.00019557006
-0.00028668963
0.00010910057
-0.00029918961
2.6929901e-05
-0.00030873004
-4.7404025e-05
-0.00032051947
-0.00011846672
-0.00033747153
-0.00019334912
-0.00035870978
-0.00028622059
-0.00037717736
-0.00041200243
-0.00037872822
-0.00058524951
-0.00034524496
-0.00081395684
-0.00025424301
-0.0011038341
-7.7084229e-05
-0.0014467872
0.00020886845
-0.0018273713
0.00061452639
-0.0022028419
0.001146947
-0.0025235072
0.0017723625
-0.0027007066
0.0024192505
-0.0026510843
0.0029927296
-0.0023265981
0.0034062426
-0.001750378
0.0036084667
-0.0010109518
0.0035909557
-0.00022123455
0.003399512
0.0004943668
0.0030916538
0.0010570185
0.0027235007
0.0014630582
0.0023375887
0.0017248645
0.0019608183
0.0018700382
0.0016077487
0.0019264394
0.0012855522
0.0019185432
0.00099705988
0.0018644475
0.00074207008
0.0017792859
0.00051844374
0.0016743351
0.00032387252
0.0015574605
0.00015563163
0.0014344704
1.1062417e-05
0.0013093888
-0.0001123497
0.0011851539
-0.00021779567
0.0010646826
-0.00030660605
0.00094891667
-0.00038129442
0.00083778758
-0.0004427844
0.00073171566
-0.00049268424
0.00063135377
-0.00053233879
0.00053673575
-0.00056252665
0.00044709749
-0.00058411027
0.0003626988
-0.00059778407
0.00028309449
-0.00060404911
0.00020809134
-0.00060378295
0.00013773483
-0.00059709096
7.1536747e-05
-0.0005844015
9.3349651e-06
-0.00056637917
-4.8394081e-05
-0.00054317617
-0.00010213515
-0.0005151855
-0.00015193144
-0.00048281169
-0.00019778426
-0.00044636302
-0.00023964676
-0.00040622978
-0.00027762404
-0.00036273146
-0.00031162193
-0.00031624607
-0.00034157712
-0.00026722571
-0.00036747718
-0.00021583256
-0.00039003895
-0.00016280012
-0.00040640819
-0.00042487673
0.00012368972
-0.00030337057
0.00015507002
-0.00029505625
0.00018564449
-0.00028809685
0.00021504125
-0.00027855669
0.00024316164
-0.0002679474
0.00026987343
-0.00025615928
0.00029510414
-0.00024320542
0.00031872641
-0.00022923955
0.00034078004
-0.0002143448
0.00036113023
-0.00019876749
0.00037979726
-0.00018261457
0.00039683239
-0.00016587086
0.00041219753
-0.0001487159
0.00042593354
-0.00013110941
0.00043805606
-0.00011309015
0.00044866033
-9.4688166e-05
0.00045765536
-7.56646e-05
0.00046509639
-5.6145473e-05
0.00047099471
-3.5890944e-05
0.00047510818
-1.4645304e-05
0.0004773918
7.4691491e-06
0.00047755695
3.1040514e-05
0.00047548887
5.6064918e-05
0.00047052763
8.2737714e-05
0.00046262107
0.00011073153
0.00045128454
0.00014015503
0.00043628318
0.0001706138
0.00041735259
0.00020196703
0.00039412397
0.00023400678
0.00036650867
0.00026620614
0.00033389323
0.00029902399
0.00029568715
0.00033165923
0.00025005919
0.00036515168
0.00019628596
0.00039774158
0.00013247134
0.00042778787
5.6629435e-05
0.00045369723
-3.0889542e-05
0.00046882276
-0.00012524731
0.0004621602
-0.00021658155
0.00042230866
-0.00029163497
0.0003469825
-0.00034090345
0.0002448385
-0.00036691441
0.00013511579
-0.00037572113
3.5740259e-05
-0.00038171308
-4.1411573e-05
-0.0003992528
-0.00010092818
-0.00043471125
-0.00015788779
-0.00048840279
-0.00023252721
-0.00055254179
-0.00034785691
-0.00060919494
-0.00052859876
-0.00063227769
-0.00079087642
-0.00059234475
-0.0011437688
-0.00044565399
-0.0015934773
-0.00015073966
-0.0021222852
0.00033371924
-0.0026872972
0.0010120937
-0.0032018884
0.0018535163
-0.0035421213
0.0027500433
-0.0035476086
0.0035461021
-0.0031226532
0.0041035008
-0.0023077794
0.0043500835
-0.0012575409
0.0042730103
-0.00014416054
0.0039568859
0.00081049506
0.0034987719
0.0015151316
0.0029890477
0.0019727806
0.002488529
0.0022253794
0.0020241982
0.0023343676
0.0016060894
0.0023445498
0.0012371223
0.0022875156
0.00091651581
0.0021850595
0.00064057868
0.0020552261
0.00040441969
0.0019104981
0.00020326316
0.0017586218
3.2678718e-05
0.0016050572
-0.00011105808
0.0014531296
-0.00023181326
0.0013059134
-0.00033357646
0.0011664485
-0.0004175559
0.001032898
-0.00048629876
0.0009065317
-0.00054264882
0.00078806607
-0.00058723492
0.00067593705
-0.00062153263
0.00057103205
-0.0006467094
0.00047227602
-0.00066344048
0.00037943369
-0.00067251629
0.00029217402
-0.00067449141
0.00021006724
-0.00066977827
0.0001330211
-0.00065886786
6.0628977e-05
-0.00064210546
-7.4236281e-06
-0.00061992376
-7.0572893e-05
-0.00059279636
-0.00012926699
-0.00056090629
-0.00018382543
-0.00052459911
-0.0002340936
-0.00048420194
-0.00028004488
-0.00044008161
-0.00032174883
-0.00039265083
-0.0003590516
-0.00034220402
-0.0003920183
-0.0002890829
-0.00042059851
-0.00023383192
-0.00044528879
-0.00017658978
-0.00046364949
-0.00048381731
0.00012976229
-0.00033755897
0.00016268754
-0.00032797768
0.00019473186
-0.00032013737
0.00022550139
-0.00030933497
0.00025485605
-0.00029730467
0.00028273471
-0.00028403178
0.00030896726
-0.00026943787
0.00033351115
-0.00025378479
0.0003562985
-0.00023712794
0.0003772484
-0.00021971707
0.00039651408
-0.00020188453
0.00041395698
-0.00018331246
0.00042979495
-0.0001645502
0.00044401365
-0.00014533078
0.00045659841
-0.00012567901
0.00046774383
-0.00010583336
0.00047751217
-8.5434254e-05
0.00048581338
-6.4452577e-05
0.00049263303
-4.271405e-05
0.0004979138
-1.9925125e-05
0.0005016139
3.7673346e-06
0.00050328297
2.9365705e-05
0.00050256204
5.6783114e-05
0.00049943043
8.5871272e-05
0.00049298469
0.00011717813
0.00048304585
0.00015009224
0.00046906148
0.00018459775
0.00045083954
0.00022018913
0.00042827898
0.00025656429
0.00040117008
0.00029330967
0.00036936791
0.0003308235
0.00033176013
0.00036926909
0.00028561382
0.0004113009
0.00022880902
0.00045454685
0.00016006155
0.00049653665
7.2614187e-05
0.0005411502
-3.8341591e-05
0.00057978379
-0.00016389685
0.0005877139
-0.0002860247
0.00054443245
-0.00038450739