/*--------------------------------*- C++ -*----------------------------------*\
  =========                 |
  \\      /  F ield         | OpenFOAM: The Open Source CFD Toolbox
   \\    /   O peration     | Website:  https://openfoam.org
    \\  /    A nd           | Version:  9
     \\/     M anipulation  |
\*---------------------------------------------------------------------------*/
FoamFile
{
    format      ascii;
    class       volScalarField;
    location    "34";
    object      p;
}
// * * * * * * * * * * * * * * * * * * * * * * * * * * * * * * * * * * * * * //

dimensions      [0 2 -2 0 0 0 0];

internalField   nonuniform List<scalar> 
400
(
3.3321725e-08
-0.00067283858
-0.001385316
-0.0019426741
-0.0022199674
-0.002156464
-0.0017277591
-0.00092616826
0.00023545188
0.0017074362
0.003387317
0.0051122279
0.0066735109
0.0078491364
0.0084584247
0.0084237196
0.0078134313
0.0068445491
0.0058613273
0.005298969
0.00065787605
-4.0490836e-05
-0.00056962451
-0.00094059018
-0.0011108281
-0.0010398862
-0.00070575539
-9.5509775e-05
0.00078913349
0.0019162181
0.0032096152
0.0045547341
0.0057819942
0.0067162904
0.007214459
0.0072145637
0.0067699893
0.0060528015
0.0053105566
0.0047385132
0.0014237338
0.00044068419
-0.00011656566
-0.00045320859
-0.00061477372
-0.00058477677
-0.00034654648
0.00011977595
0.00082849073
0.0017699348
0.0028943165
0.0040981873
0.005228264
0.0061110016
0.0065939011
0.0065976994
0.006155774
0.0054215449
0.0045937752
0.0037482607
0.0020142285
0.00068171868
1.6802322e-05
-0.00035882006
-0.00057151589
-0.00062652642
-0.00051005038
-0.00019059988
0.0003685317
0.0011844144
0.0022299387
0.0034174488
0.0045913873
0.0055569659
0.0061235844
0.006166596
0.0056836574
0.0048170842
0.003747321
0.0024736256
0.002167299
0.00049614823
-0.00029622822
-0.00074867425
-0.0010582218
-0.0012452387
-0.0012927172
-0.0011512714
-0.00075502009
-5.3070227e-05
0.00095705314
0.0022103079
0.0035447312
0.0047326844
0.0055218674
0.0057099121
0.0052293168
0.0042016331
0.0028062103
0.00098398725
0.0016539896
-0.00031445048
-0.0012387582
-0.0017992714
-0.0022526325
-0.00262788
-0.0028985914
-0.0029910524
-0.0028025069
-0.0022376474
-0.0012510665
0.0001309194
0.0017446685
0.003327128
0.0045416612
0.0050657992
0.0047175189
0.0035662229
0.0017896171
-0.00072589801
0.00028705207
-0.001919543
-0.0029729705
-0.0036713535
-0.0043202677
-0.0049531728
-0.0055300939
-0.0059479269
-0.0060589759
-0.0057073536
-0.0047756877
-0.0032586692
-0.0012664865
0.00090719627
0.0028231439
0.0039868555
0.0040251162
0.0028877307
0.00071540133
-0.0026804783
-0.0020764022
-0.004451165
-0.0056267771
-0.0064922949
-0.0073928914
-0.0083657352
-0.0093568972
-0.01023176
-0.010790947
-0.010804817
-0.010063336
-0.0084617354
-0.0060407418
-0.0030831951
-0.00012628743
0.0021126423
0.0029638472
0.0021356022
-0.00036601344
-0.0048725899
-0.0055241401
-0.0079920868
-0.0092778945
-0.010333763
-0.01153797
-0.012935388
-0.014462684
-0.015956302
-0.017162447
-0.017766014
-0.01743806
-0.015919451
-0.013122936
-0.0092517378
-0.0048989882
-0.0010299967
0.001269429
0.001277783
-0.0013339385
-0.0072016578
-0.010076886
-0.012565069
-0.013936638
-0.015183979
-0.016718354
-0.018602595
-0.020774174
-0.023048748
-0.025121675
-0.02658634
-0.026969336
-0.025812927
-0.022845662
-0.018074433
-0.012051075
-0.0059519356
-0.0013707207
0.00030061279
-0.0019471838
-0.0093822055
-0.015684963
-0.018132388
-0.019537531
-0.020926784
-0.022757716
-0.025129854
-0.027996984
-0.031166387
-0.034291461
-0.036876845
-0.038294168
-0.037844271
-0.035065846
-0.029601458
-0.021822484
-0.012985561
-0.0051849582
-0.00071573214
-0.0017641803
-0.010792236
-0.022243578
-0.024613017
-0.025945572
-0.027334934
-0.029324138
-0.03207921
-0.035588925
-0.039664635
-0.043927263
-0.047801299
-0.050530185
-0.051236475
-0.04895687
-0.043143538
-0.033769005
-0.021926329
-0.010036867
-0.0014154261
-9.8480254e-06
-0.0102256
-0.029641197
-0.031923878
-0.032978733
-0.034079851
-0.035939486
-0.038831499
-0.042795603
-0.047651573
-0.052990524
-0.058163581
-0.062284242
-0.064265526
-0.06287515
-0.057112177
-0.046476731
-0.031649074
-0.015037846
-0.00086437162
0.004646783
-0.0055215173
-0.037865987
-0.040048496
-0.040440129
-0.040752508
-0.042015027
-0.044653048
-0.048758183
-0.054144051
-0.060356025
-0.066665339
-0.072060681
-0.075268274
-0.074811353
-0.069269256
-0.057628295
-0.039961494
-0.018247954
0.0027890578
0.014445178
0.0069075694
-0.047230574
-0.049134338
-0.048140565
-0.046882295
-0.046905491
-0.048798678
-0.052668279
-0.058276007
-0.065076097
-0.072231991
-0.078595761
-0.082712312
-0.082880199
-0.07730938
-0.064523926
-0.043934939
-0.016747969
0.012502969
0.032938807
0.032408977
-0.058896785
-0.059639867
-0.055883878
-0.051941044
-0.049972318
-0.05062987
-0.053928636
-0.059495332
-0.066611854
-0.074285292
-0.081191163
-0.085679397
-0.085831788
-0.079522184
-0.064876087
-0.040689251
-0.0072409006
0.032139395
0.064981475
0.077749207
-0.076226515
-0.072613742
-0.063516134
-0.055435343
-0.050725011
-0.049781594
-0.052312334
-0.057664356
-0.064891813
-0.072774966
-0.079779362
-0.084036742
-0.083391648
-0.075348953
-0.057602662
-0.028375124
0.012933349
0.0653965
0.11555154
0.15150625
-0.10809222
-0.089556392
-0.071233824
-0.057232964
-0.049072102
-0.046330201
-0.048077255
-0.053202598
-0.060434615
-0.068295859
-0.075027389
-0.078526909
-0.076389001
-0.065809668
-0.043865469
-0.0078184326
0.04439369
0.11299818
0.18838045
0.27186079
-0.17684549
-0.10828974
-0.076202525
-0.054651245
-0.042992369
-0.038998017
-0.040570501
-0.045928036
-0.053441531
-0.061438352
-0.06802758
-0.070962553
-0.067551127
-0.054739828
-0.029148804
0.013563616
0.078146977
0.17006438
0.28949549
0.47421824
-0.37208348
-0.12470848
-0.054973073
-0.031962517
-0.022063551
-0.020300513
-0.024359448
-0.031957992
-0.041261553
-0.05064088
-0.058316895
-0.062187459
-0.059782549
-0.048056803
-0.022658519
0.021474222
0.09281874
0.21015279
0.40288845
0.77640931
)
;

boundaryField
{
    movingWall
    {
        type            zeroGradient;
    }
    fixedWalls
    {
        type            zeroGradient;
    }
    frontAndBack
    {
        type            empty;
    }
}


// ************************************************************************* //
