/*--------------------------------*- C++ -*----------------------------------*\
  =========                 |
  \\      /  F ield         | OpenFOAM: The Open Source CFD Toolbox
   \\    /   O peration     | Website:  https://openfoam.org
    \\  /    A nd           | Version:  9
     \\/     M anipulation  |
\*---------------------------------------------------------------------------*/
FoamFile
{
    format      ascii;
    class       volScalarField;
    location    "0.39";
    object      alpha.phase1;
}
// * * * * * * * * * * * * * * * * * * * * * * * * * * * * * * * * * * * * * //

dimensions      [0 0 0 0 0 0 0];

internalField   nonuniform List<scalar> 
10000
(
5.8991571e-98
5.8994203e-98
7.9286954e-98
4.2891411e-96
4.8200791e-94
4.979488e-92
4.8228089e-90
4.6132401e-88
4.8194206e-86
7.0252881e-84
2.0475242e-81
9.5164002e-79
8.9446922e-77
1.469102e-75
8.4542901e-75
2.9195337e-74
8.6336218e-74
2.0005277e-73
2.525627e-73
1.7390873e-72
1.2553443e-70
9.9827284e-69
7.5911676e-67
5.536144e-65
3.8909447e-63
2.6486929e-61
1.7554557e-59
1.1371942e-57
7.3642296e-56
5.204106e-54
3.4903045e-52
1.9263674e-50
8.719086e-49
2.9246925e-47
4.4552425e-46
3.3494703e-45
1.2982073e-44
1.5096858e-45
1.5096858e-45
1.5098185e-45
1.0357256e-44
1.645301e-43
2.1454786e-42
2.3545639e-41
2.072825e-40
1.4253105e-39
7.8014661e-39
3.4274328e-38
1.1580969e-37
2.8625637e-37
2.9251893e-37
1.4228627e-37
4.1231301e-38
8.918243e-39
1.4836937e-39
1.7937161e-40
1.3954222e-41
6.1076022e-43
1.4156672e-44
1.9639509e-46
1.9055341e-46
1.748818e-46
3.9223417e-47
5.4620598e-48
2.6139075e-49
1.7073276e-51
7.2127243e-54
6.1333523e-55
3.7171433e-56
4.4122289e-57
2.3798569e-58
3.9157946e-60
3.5462635e-62
4.3587498e-64
6.1706974e-66
8.4142278e-68
1.087173e-69
1.7188067e-71
2.2444149e-72
1.2152685e-72
9.1708495e-73
6.7019726e-73
3.7638787e-73
1.3344174e-73
5.2275687e-74
1.821384e-74
4.8918271e-75
9.9228175e-76
6.6702423e-77
7.7260557e-79
2.4178196e-81
7.7481408e-84
2.3114011e-86
5.9534517e-89
1.9172105e-91
1.0293454e-93
6.0820035e-96
1.1569957e-97
9.4988785e-98
9.498856e-98
6.2504781e-98
1.6163807e-96
8.4193001e-96
2.6200179e-95
1.1950077e-93
7.6779958e-92
6.5319142e-90
7.0333201e-88
1.1121654e-85
3.0172903e-83
6.8844428e-81
1.1346641e-78
8.8264481e-77
1.4472184e-75
8.7125899e-75
3.0683812e-74
7.8752338e-74
4.2415776e-73
1.8824524e-71
1.6118068e-69
1.3710168e-67
1.1081441e-65
8.5372071e-64
6.3015267e-62
4.478115e-60
3.0798241e-58
2.0600962e-56
1.3452307e-54
8.7909976e-53
6.2848905e-51
4.1359446e-49
2.2201836e-47
1.0111309e-45
4.0559387e-44
5.7150998e-43
1.3502381e-42
2.7726684e-44
4.2399082e-45
5.181758e-45
1.2062926e-43
2.021004e-42
2.7748683e-41
3.2629074e-40
3.2062203e-39
2.4423435e-38
1.2888751e-37
4.4308789e-37
1.0637312e-36
2.1983652e-36
3.9110005e-36
3.9521347e-36
2.5084586e-36
1.1851356e-36
4.7800236e-37
1.3540949e-37
2.2405291e-38
1.9832925e-39
9.4660138e-41
2.6000141e-42
4.6613636e-44
3.8381599e-46
3.6513384e-46
1.2374884e-44
1.1725168e-44
9.9745539e-46
4.7273908e-48
1.3196766e-50
3.4426004e-52
3.4501634e-53
4.969133e-55
6.2605677e-57
9.4727951e-59
1.3957182e-60
1.9795566e-62
2.7019852e-64
3.5240091e-66
4.375808e-68
5.5292205e-70
1.2546303e-71
2.8791587e-72
6.5584933e-72
5.7978112e-72
1.8480369e-72
2.2050293e-73
8.4713829e-74
2.3883615e-74
5.5183459e-75
1.0219743e-75
6.8846443e-77
1.0900761e-78
7.5176475e-81
3.4719959e-83
7.6323574e-86
1.342902e-88
8.6435117e-91
9.2908612e-93
1.4473025e-94
2.2708467e-95
2.8478947e-96
9.7773158e-98
4.6554289e-95
1.7497852e-93
1.1054762e-91
8.5213129e-91
2.7795632e-90
2.7420901e-89
2.0802474e-87
3.3720499e-85
1.0733262e-82
5.6602865e-80
1.1478862e-77
3.3233745e-76
2.2422684e-75
1.1526187e-74
3.0163411e-73
3.3468859e-72
8.6515762e-72
1.6646149e-70
1.4317076e-68
1.2563916e-66
1.0741046e-64
8.703565e-63
6.7120873e-61
4.9508278e-59
3.5100918e-57
2.4044589e-55
1.5992525e-53
1.0363205e-51
6.7132113e-50
4.7524431e-48
3.0708221e-46
1.6192426e-44
7.2853408e-43
2.7666467e-41
3.5487611e-40
7.9999522e-40
2.2113206e-41
2.3118083e-42
9.8314141e-43
2.1355533e-41
3.510287e-40
4.5748087e-39
5.1418244e-38
4.8558486e-37
3.6053661e-36
1.8941402e-35
6.5783145e-35
1.5885457e-34
3.2370093e-34
5.8706258e-34
5.9284183e-34
3.7145174e-34
1.7607175e-34
7.0683277e-35
1.9844651e-35
3.3022521e-36
3.037539e-37
1.5752017e-38
4.9238066e-40
9.6146542e-42
2.944557e-43
2.8901418e-43
9.2237687e-42
1.0717082e-41
1.0757115e-42
6.211524e-45
1.9154064e-47
1.9984562e-49
2.6995687e-50
1.2285071e-51
1.0060148e-53
1.2323826e-55
1.835744e-57
2.6160103e-59
3.5612374e-61
4.6278799e-63
5.7160526e-65
6.9394256e-67
1.0935495e-68
8.1969291e-70
2.8807109e-69
3.1215347e-69
1.1175135e-69
7.6226626e-71
2.6599042e-71
5.6219267e-72
7.9463919e-73
8.8563585e-74
7.4591904e-75
4.7762626e-76
9.7473672e-78
6.5012185e-80
3.0261286e-82
1.2006882e-84
4.8563721e-87
5.8530356e-89
3.1949882e-90
2.2916014e-91
2.9704671e-93
7.3595351e-95
1.561825e-92
7.2698437e-91
7.1456648e-89
5.2926068e-87
8.5966976e-86
2.1819552e-85
2.1308135e-84
3.3048791e-82
9.3497726e-80
4.2204474e-77
8.2417324e-75
2.50936e-73
1.9746439e-72
2.3828861e-71
7.9123984e-70
3.8785001e-69
4.3909207e-69
9.1554372e-68
8.0918207e-66
7.2220492e-64
6.2074772e-62
5.0432564e-60
3.8906469e-58
2.8638687e-56
2.0224128e-54
1.3770057e-52
9.084599e-51
5.8256367e-49
3.7296722e-47
2.6050044e-45
1.6580547e-43
8.6267804e-42
3.8343503e-40
1.375503e-38
1.5951465e-37
3.3987165e-37
2.9074847e-38
1.0840851e-39
1.9612418e-40
3.0698254e-39
4.6838164e-38
5.7517015e-37
6.1706494e-36
5.5946236e-35
4.0384993e-34
2.0988016e-33
7.3072942e-33
1.7673338e-32
3.555325e-32
6.5353561e-32
6.5967251e-32
4.0960289e-32
1.9472792e-32
7.8086529e-33
2.1886798e-33
3.6850477e-34
3.5281085e-35
1.9809536e-36
6.9681281e-38
1.3731729e-39
5.8092598e-41
2.0563744e-40
4.8444166e-39
6.6064415e-39
7.5544504e-40
5.2854134e-42
1.7736455e-44
1.4756122e-46
2.1926732e-47
9.7359241e-49
8.1824342e-51
1.029807e-52
1.5439642e-54
2.2106034e-56
3.0130973e-58
3.9097415e-60
4.8093909e-62
5.7247896e-64
8.2014119e-66
2.5097597e-67
7.7484848e-67
1.3279055e-66
5.2338471e-67
4.0265771e-68
1.4321931e-68
3.3436483e-69
5.3953925e-70
7.9470764e-71
6.7870147e-72
3.7654645e-73
7.6629007e-75
6.5832531e-77
4.4658146e-79
3.1728323e-81
2.4408714e-83
2.9278971e-85
1.0936056e-86
1.6411355e-88
1.3685744e-90
2.4121812e-92
4.0771392e-90
2.2750078e-88
2.3822374e-86
2.0408635e-84
1.3702414e-82
2.6404563e-81
1.0419344e-80
3.3346906e-79
6.4920951e-77
2.21624e-74
4.1174226e-72
1.3438242e-70
1.1953694e-69
1.438428e-68
3.878292e-67
1.7371234e-66
1.7492611e-66
4.246903e-65
3.7454698e-63
3.3961603e-61
2.9345858e-59
2.3890003e-57
1.8412432e-55
1.3503164e-53
9.4716776e-52
6.3881446e-50
4.1629032e-48
2.6298505e-46
1.6538763e-44
1.1310667e-42
7.0728178e-41
3.6234559e-39
1.5914936e-37
5.3732559e-36
5.5957139e-35
1.1181032e-34
1.5503783e-35
3.4824576e-37
4.874425e-38
3.7472299e-37
5.0173132e-36
5.6853745e-35
5.7973633e-34
5.0313872e-33
3.522071e-32
1.806569e-31
6.2852968e-31
1.5183387e-30
3.0104561e-30
5.5680455e-30
5.6192036e-30
3.4777985e-30
1.6632172e-30
6.6839841e-31
1.8758394e-31
3.1982113e-32
3.1838468e-33
1.9310592e-34
7.6072802e-36
1.5766937e-37
8.2164889e-39
1.0318184e-37
1.9422533e-36
3.0593394e-36
3.9525525e-37
3.3218991e-39
1.2111829e-41
9.5247393e-44
1.360933e-44
5.3916612e-46
4.9594674e-48
6.6046441e-50
9.9977633e-52
1.441548e-53
1.9736693e-55
2.5627864e-57
3.1408353e-59
3.6842616e-61
4.9734552e-63
1.0536818e-64
1.5368637e-64
4.3446304e-64
1.7849273e-64
1.5034698e-65
5.8445548e-66
1.5179097e-66
2.6414579e-67
4.5244746e-68
3.9035184e-69
2.0825756e-70
4.2440262e-72
4.1660735e-74
3.5563441e-76
2.7019949e-78
2.1562729e-80
3.5311066e-82
6.2202754e-84
6.0781897e-86
4.2541298e-88
6.1526692e-90
8.6813857e-88
5.4648965e-86
6.2528237e-84
5.5347423e-82
4.3131628e-80
2.3581656e-78
4.4680385e-77
3.1900713e-76
3.5787983e-74
9.1250527e-72
1.6635335e-69
5.6476744e-68
5.366473e-67
7.7857245e-66
1.5399025e-64
5.6831583e-64
5.6828281e-64
1.603911e-62
1.473401e-60
1.3567484e-58
1.1793234e-56
9.6190808e-55
7.3994021e-53
5.3958186e-51
3.7504404e-49
2.497863e-47
1.6022141e-45
9.9300301e-44
6.1032345e-42
4.0557663e-40
2.4843324e-38
1.2509437e-36
5.4255564e-35
1.7206125e-33
1.6018821e-32
2.9805415e-32
5.5572809e-33
8.5312502e-35
1.0440898e-35
4.1882853e-35
4.557077e-34
4.5730052e-33
4.397467e-32
3.6356477e-31
2.457347e-30
1.2397678e-29
4.2989825e-29
1.0357694e-28
2.0238176e-28
3.7509031e-28
3.7850625e-28
2.3427848e-28
1.1291323e-28
4.5550353e-29
1.2816552e-29
2.216242e-30
2.2983351e-31
1.5072632e-32
6.6424489e-34
1.5565514e-35
6.296436e-37
3.9325113e-35
6.2529902e-34
1.1291865e-33
1.642959e-34
1.6415225e-36
6.5400192e-39
5.356028e-41
6.8443941e-42
2.5587379e-43
2.5383661e-45
3.5079952e-47
5.3768786e-49
7.828152e-51
1.0786988e-52
1.4032784e-54
1.7144367e-56
1.9843687e-58
2.5202632e-60
5.0064743e-62
4.5019752e-62
1.2543176e-61
5.0915961e-62
4.5637429e-63
1.9581566e-63
5.4802004e-64
9.9403519e-65
1.9139156e-65
1.7198647e-66
8.6735432e-68
1.7553945e-69
1.9357901e-71
1.7191922e-73
1.0826843e-75
1.0549597e-77
1.9540065e-79
1.9785594e-81
1.5997707e-83
1.0116291e-85
1.2794193e-87
1.5575111e-85
1.0693387e-83
1.2967955e-81
1.2339974e-79
9.9426229e-78
7.8134677e-76
2.9945511e-74
2.5242018e-73
1.3785939e-71
3.0786641e-69
5.1230188e-67
1.7968861e-65
2.0027772e-64
3.5061191e-63
5.0416543e-62
1.5096927e-61
1.5651352e-61
5.2279283e-60
5.0105335e-58
4.6908911e-56
4.1086266e-54
3.3595403e-52
2.5784198e-50
1.8679471e-48
1.2841079e-46
8.4250499e-45
5.3018041e-43
3.2119161e-41
1.9203283e-39
1.231176e-37
7.3715098e-36
3.6500098e-34
1.5613502e-32
4.6313404e-31
3.8530052e-30
6.626013e-30
1.5221763e-30
1.5901565e-32
1.8777156e-33
4.6704232e-33
3.7139924e-32
3.0713775e-31
2.7476891e-30
2.1531207e-29
1.3985617e-28
6.9170471e-28
2.3838558e-27
5.7131861e-27
1.0983478e-26
2.0294069e-26
2.0483081e-26
1.2734598e-26
6.2037395e-27
2.5165144e-27
7.1131098e-28
1.2505981e-28
1.3535941e-29
9.6066859e-31
4.7276304e-32
1.2127098e-33
1.618203e-34
1.1953586e-32
1.6874493e-31
3.4328618e-31
5.6101942e-32
6.8916954e-34
2.9353629e-36
2.6183768e-38
2.8957079e-39
1.0563225e-40
1.1183299e-42
1.5929486e-44
2.4808747e-46
3.6544221e-48
5.0694306e-50
6.6033512e-52
8.0322362e-54
9.1632139e-56
1.0991357e-57
1.8920181e-59
1.1383544e-59
3.1063917e-59
1.2428875e-59
1.1872772e-60
5.4489749e-61
1.6164708e-61
3.1130651e-62
6.5582064e-63
6.1055087e-64
2.8232171e-65
5.7927665e-67
7.0176475e-69
5.1313894e-71
3.8329433e-73
5.8698962e-75
5.7005601e-77
4.5809874e-79
3.315983e-81
1.9568828e-83
2.2385255e-85
2.4099153e-83
1.7697535e-81
2.2354565e-79
2.2638752e-77
1.9079012e-75
1.4028658e-73
8.9467341e-72
3.1138036e-70
4.1981675e-69
7.578059e-67
1.2454017e-64
4.9958626e-63
6.518095e-62
1.1067953e-60
1.2561452e-59
3.3806033e-59
3.7505282e-59
1.4895312e-57
1.4888631e-55
1.4224158e-53
1.2593377e-51
1.0341459e-49
7.9258493e-48
5.7001183e-46
3.8700909e-44
2.4948016e-42
1.5351506e-40
9.0552511e-39
5.2414143e-37
3.2204898e-35
1.8769978e-33
9.1381459e-32
3.854646e-30
1.0656188e-28
7.9099516e-28
1.2542441e-27
3.3790956e-28
2.5243169e-30
2.9623813e-31
5.3066886e-31
2.882728e-30
1.7709721e-29
1.4296176e-28
1.0561906e-27
6.5557684e-27
3.1636519e-26
1.0781737e-25
2.547978e-25
4.7738665e-25
8.7578104e-25
8.8508974e-25
5.5480678e-25
2.7540748e-25
1.1331088e-25
3.2376173e-26
5.8023698e-27
6.5658041e-28
5.0505046e-29
2.7706771e-30
7.5820844e-32
3.5241126e-32
2.9878629e-30
3.8996273e-29
8.8091182e-29
1.6143896e-29
2.510643e-31
1.124229e-33
1.0950224e-35
1.0580655e-36
3.8581886e-38
4.3277651e-40
6.3427616e-42
1.0113791e-43
1.5105153e-45
2.1024671e-47
2.7355479e-49
3.3041662e-51
3.7035296e-53
4.1912704e-55
5.996264e-57
2.5011754e-57
6.7013154e-57
2.6361755e-57
2.6879864e-58
1.3029112e-58
4.0751771e-59
8.1938588e-60
1.8722106e-60
1.7623921e-61
7.9370628e-63
1.6604371e-64
1.9423389e-66
1.3169926e-68
1.6274445e-70
1.6783428e-72
1.2145645e-74
8.5397978e-77
5.7092996e-79
3.1945157e-81
3.3718008e-83
3.2728055e-81
2.5392326e-79
3.3074174e-77
3.4979418e-75
3.1360648e-73
2.4397941e-71
1.7682851e-69
8.2783636e-68
1.3951528e-66
1.365995e-64
2.3340107e-62
1.214913e-60
1.8624123e-59
2.9197162e-58
2.6193097e-57
6.5819774e-57
7.869135e-57
3.6749666e-55
3.8528337e-53
3.7835432e-51
3.402831e-49
2.8155038e-47
2.1578411e-45
1.5415291e-43
1.0329702e-41
6.533908e-40
3.9226547e-38
2.2459078e-36
1.2529645e-34
7.3321243e-33
4.1491271e-31
1.9843922e-29
8.2466572e-28
2.1190796e-26
1.4010033e-25
2.0561357e-25
6.2249793e-26
2.9736004e-28
4.0037484e-29
5.9346305e-29
2.2306696e-28
9.1716651e-28
6.2426548e-27
4.3150022e-26
2.5330449e-25
1.182398e-24
3.9599332e-24
9.1526473e-24
1.6528959e-23
3.0194644e-23
3.0596769e-23
1.9322182e-23
9.8306071e-24
4.1407212e-24
1.2034679e-24
2.2075587e-25
2.6316319e-26
2.2106734e-27
1.3531285e-28
3.9954767e-30
6.0867121e-30
6.2797663e-28
7.8047394e-27
1.9356195e-26
3.9807627e-27
8.0477253e-29
3.7355438e-31
4.079492e-33
3.4149031e-34
1.1376958e-35
1.4518564e-37
2.2307835e-39
3.6057661e-41
5.454599e-43
7.6649374e-45
9.9625036e-47
1.1888088e-48
1.2991803e-50
1.3826109e-52
1.7562214e-54
4.8596611e-55
1.2758481e-54
4.9162138e-55
5.3639533e-56
2.7517041e-56
8.9594313e-57
1.8936206e-57
4.7450345e-58
4.4048431e-59
1.9434999e-60
4.1530997e-62
3.9254466e-64
3.8328696e-66
4.8312236e-68
3.4247917e-70
2.1034035e-72
1.3455803e-74
8.4332188e-77
4.5113667e-79
4.4487819e-81
3.9545674e-79
3.2148391e-77
4.2943113e-75
4.6950945e-73
4.4126058e-71
3.6289487e-69
2.6817054e-67
1.6981612e-65
6.9681431e-64
2.007101e-62
3.4997483e-60
2.5575855e-58
5.1873572e-57
7.4826154e-56
4.7609954e-55
1.1321309e-54
1.4273174e-54
7.6747856e-53
8.5872774e-51
8.7820082e-49
8.0983069e-47
6.789342e-45
5.2201521e-43
3.7094756e-41
2.4535632e-39
1.5211759e-37
8.8939852e-36
4.9294627e-34
2.6399307e-32
1.4624126e-30
8.0073754e-29
3.7606526e-27
1.5393229e-25
3.6650547e-24
2.1617426e-23
2.9342103e-23
9.788884e-24
3.0079683e-26
4.7198213e-27
6.1076495e-27
1.7395396e-26
4.5767268e-26
2.3096001e-25
1.4680206e-24
8.0659255e-24
3.6140061e-23
1.2022657e-22
2.8048974e-22
5.0099788e-22
9.1503717e-22
9.2790324e-22
5.9040429e-22
3.005852e-22
1.2557755e-22
3.6402077e-23
6.8488562e-24
8.7274847e-25
8.0889547e-26
5.53112e-27
1.816194e-28
4.6409317e-28
1.062733e-25
1.371612e-24
3.6786044e-24
8.5141083e-25
2.2146665e-26
1.0786983e-28
1.3654933e-30
9.9454908e-32
2.7350985e-33
4.2455657e-35
7.007493e-37
1.1539024e-38
1.7675075e-40
2.4940415e-42
3.2190759e-44
3.7637183e-46
3.956944e-48
3.869445e-50
4.2326136e-52
8.4027224e-53
2.1856519e-52
8.1464917e-53
9.541017e-54
5.2862467e-54
1.7969538e-54
3.8822296e-55
1.040019e-55
9.6515396e-57
4.144481e-58
8.666477e-60
8.3074774e-62
1.1547163e-63
9.5934683e-66
5.619953e-68
3.1205383e-70
1.8443013e-72
1.0913428e-74
5.6117621e-77
5.2116177e-79
4.2971867e-77
3.6410719e-75
4.9693333e-73
5.5842667e-71
5.4413589e-69
4.6957751e-67
3.7021402e-65
2.7528479e-63
1.4903536e-61
3.4902595e-60
5.0030542e-58
5.1557873e-56
1.2109344e-54
1.4347664e-53
7.5747342e-53
1.7366241e-52
2.1377073e-52
1.2836513e-50
1.5997965e-48
1.7473176e-46
1.6771167e-44
1.438013e-42
1.1153966e-40
7.9105601e-39
5.1720726e-37
3.1426715e-35
1.7873368e-33
9.5683174e-32
4.9004483e-30
2.5551986e-28
1.3512686e-26
6.2315441e-25
2.5094393e-23
5.5048032e-22
2.9085045e-21
3.6936268e-21
1.3259526e-21
2.6190897e-24
4.8263029e-25
5.5656445e-25
1.3460942e-24
2.3582521e-24
7.4738036e-24
4.1586912e-23
2.1482019e-22
9.3564908e-22
3.211978e-21
8.208554e-21
1.5994498e-20
2.8422153e-20
2.8476003e-20
1.8690748e-20
9.036211e-21
3.4270704e-21
9.368505e-22
1.780029e-22
2.420882e-23
2.4705933e-24
1.8889332e-25
7.2490925e-27
1.9943379e-26
1.3658931e-23
2.1284567e-22
6.1079755e-22
1.584091e-22
5.2835037e-24
2.8902141e-26
4.0258106e-28
2.6321892e-29
6.3645e-31
1.1147204e-32
1.9694112e-34
3.3087664e-36
5.1172483e-38
7.2148477e-40
9.1692385e-42
1.0351429e-43
1.0202831e-45
8.8190839e-48
7.8926266e-50
1.319509e-50
3.3799974e-50
1.203202e-50
1.5332239e-51
9.768278e-52
3.6184868e-52
7.4818085e-53
2.0324746e-53
1.8590155e-54
7.9156039e-56
1.4506737e-57
1.9883874e-59
2.2469443e-61
1.5068012e-63
7.9570767e-66
4.0748216e-68
2.2418045e-70
1.2583544e-72
6.2341418e-75
5.479761e-77
4.2353599e-75
3.727043e-73
5.1849292e-71
5.9668024e-69
5.9936095e-67
5.3836404e-65
4.4491087e-63
3.4512367e-61
2.5262754e-59
1.3918247e-57
7.0599287e-56
9.7726039e-54
2.4729083e-52
2.2704356e-51
1.0737156e-50
2.3831276e-50
2.3352963e-50
1.4871578e-48
2.3362778e-46
2.8844726e-44
2.9641119e-42
2.6403473e-40
2.0855604e-38
1.4839748e-36
9.6200195e-35
5.7357812e-33
3.1726612e-31
1.6383727e-29
7.9974134e-28
3.9025805e-26
1.9887237e-24
9.0164199e-23
3.5588505e-21
7.1809905e-20
3.4469071e-19
4.223479e-19
1.662216e-19
1.9630997e-22
4.2754236e-23
4.4493826e-23
9.9547303e-23
1.2641349e-22
2.3384941e-22
1.0019356e-21
4.8587411e-21
2.0938462e-20
7.4526708e-20
2.0640765e-19
4.7250219e-19
8.0408597e-19
7.9280453e-19
5.3542781e-19
2.491144e-19
8.5779388e-20
2.1816586e-20
4.0655138e-21
5.7099002e-22
6.3426744e-23
5.4987966e-24
2.9471815e-25
9.0614469e-25
1.4537572e-21
3.0565367e-20
8.8792298e-20
2.5680326e-20
1.0839364e-21
7.3410957e-24
1.1733014e-25
6.0731266e-27
1.4601937e-28
2.7293515e-30
5.0079261e-32
8.5795989e-34
1.3362573e-35
1.8681272e-37
2.3050275e-39
2.4456091e-41
2.1352129e-43
1.4134025e-45
7.439765e-48
1.889207e-48
4.7257461e-48
1.6140481e-48
2.236286e-49
1.6282138e-49
6.2329392e-50
1.3771901e-50
3.4770627e-51
3.2449691e-52
1.3761654e-53
2.452735e-55
3.8926744e-57
3.4050089e-59
2.0293744e-61
9.9773144e-64
4.7636775e-66
2.4520778e-68
1.3086918e-70
6.2531231e-73
5.2174414e-75
3.8149891e-73
3.4762781e-71
4.9221568e-69
5.7873927e-67
5.9701967e-65
5.5463446e-63
4.78823e-61
3.9414746e-59
3.356666e-57
2.7508929e-55
1.6098304e-53
1.7602141e-51
4.2072028e-50
3.0935957e-49
1.3501354e-48
2.9200009e-48
1.1631165e-48
1.3723997e-46
2.3794933e-44
3.6848203e-42
4.3218582e-40
4.1181754e-38
3.3648573e-36
2.4230772e-34
1.5652061e-32
9.1804603e-31
4.9427613e-29
2.4609201e-27
1.1423607e-25
5.1915051e-24
2.5372224e-22
1.1334262e-20
4.3549332e-19
7.9830247e-18
3.6294667e-17
5.1023763e-17
1.9771519e-17
1.2804612e-20
4.0182067e-21
3.1618083e-21
6.4784808e-21
7.0378468e-21
8.2650968e-21
2.1945077e-20
9.150311e-20
3.6611681e-19
1.236946e-18
3.2560005e-18
8.112926e-18
1.4165737e-17
1.4302402e-17
9.2187584e-18
4.3509928e-18
1.5525017e-18
4.0307757e-19
7.5574726e-20
1.1203733e-20
1.4160259e-21
1.4652083e-22
2.1525774e-23
4.5026362e-23
1.3300841e-19
4.2029574e-18
1.1427735e-17
3.6102798e-18
1.8868659e-19
1.5602462e-21
3.4801961e-23
1.2790212e-24
2.9954793e-26
5.9828743e-28
1.1376929e-29
1.9812463e-31
3.0864499e-33
4.223462e-35
4.9302686e-37
4.6358311e-39
2.9948627e-41
1.8004581e-43
1.8954153e-45
2.1324966e-46
5.9618155e-46
1.9970391e-46
2.9574063e-47
2.3138364e-47
8.8285011e-48
2.0702164e-48
5.0496782e-49
5.119875e-50
2.1747713e-51
4.5593508e-53
5.7151846e-55
4.3592121e-57
2.4263711e-59
1.1252706e-61
5.0519552e-64
2.4435068e-66
1.2399271e-68
5.7144956e-71
4.5319787e-73
3.1604397e-71
2.9749487e-69
4.2836819e-67
5.1376218e-65
5.4290304e-63
5.1976622e-61
4.6657644e-59
4.0416243e-57
3.6964928e-55
4.1843429e-53
4.9655114e-51
3.0162217e-49
5.7649018e-48
3.692221e-47
1.5236593e-46
3.3166354e-46
1.9241371e-46
2.0929111e-44
2.1556287e-42
3.3522484e-40
4.9054144e-38
5.3425393e-36
4.6492937e-34
3.4406288e-32
2.2336493e-30
1.2953467e-28
6.8062975e-27
3.2703216e-25
1.4475059e-23
6.1540747e-22
2.7924306e-20
1.2271092e-18
4.7476098e-17
7.9626612e-16
2.8907737e-15
2.8165486e-15
1.0544336e-15
7.349942e-19
5.2490423e-19
2.1033685e-19
3.8820227e-19
3.9982839e-19
3.2621691e-19
5.0309099e-19
1.4843113e-18
4.7389934e-18
1.4025368e-17
3.3996761e-17
7.4113864e-17
1.332061e-16
1.4128961e-16
8.8638477e-17
4.3533581e-17
1.6794346e-17
4.7691215e-18
1.00564e-18
1.8091206e-19
2.8543198e-20
4.1114219e-21
1.9011288e-21
1.7237362e-21
1.1162614e-17
3.2054762e-16
1.179347e-15
4.236887e-16
2.7683804e-17
3.0951093e-19
7.5377046e-21
2.2491341e-22
5.3369104e-24
1.13609e-25
2.2273383e-27
3.9153187e-29
6.0301588e-31
7.8907347e-33
8.2588767e-35
5.7939534e-37
3.9638722e-39
4.6416301e-41
4.9481833e-43
1.5082959e-44
6.8702415e-44
2.3013542e-44
3.560874e-45
2.8772564e-45
1.0684976e-45
2.5805647e-46
6.2202064e-47
7.236248e-48
3.1485301e-49
6.5042892e-51
7.0044429e-53
4.945731e-55
2.6134993e-57
1.1564546e-59
4.9176871e-62
2.2398723e-64
1.0795963e-66
4.7963464e-69
3.6141109e-71
2.4211301e-69
2.3517878e-67
3.4350773e-65
4.1999178e-63
4.538383e-61
4.4671645e-59
4.1576185e-57
3.789571e-55
3.7397218e-53
4.9846674e-51
8.1144188e-49
4.7196637e-47
6.7680597e-46
3.9221384e-45
1.5202604e-44
3.3509061e-44
3.0203619e-44
3.3810805e-42
3.2946107e-40
2.9607945e-38
3.9242709e-36
5.261085e-34
5.1829387e-32
4.0481566e-30
2.6776488e-28
1.547503e-26
7.97175e-25
3.7061055e-23
1.5680892e-21
6.2394572e-20
2.5872839e-18
1.1550325e-16
4.4309948e-15
5.3787223e-14
1.285387e-13
2.1664749e-14
1.4024088e-14
1.8104903e-17
1.0603768e-17
1.2018064e-17
2.3163573e-17
2.3467989e-17
1.5423555e-17
1.4918966e-17
2.7659169e-17
6.1296264e-17
1.6967615e-16
4.6419617e-16
5.5482352e-16
8.0386475e-16
8.2477231e-16
6.6314425e-16
3.6061585e-16
1.3657501e-16
4.1261429e-17
1.1226614e-17
2.8502354e-18
5.4132027e-19
1.7301925e-19
2.9248575e-20
3.2922373e-20
6.0734685e-16
1.0387044e-14
6.9222042e-14
3.4925887e-14
3.3877884e-15
6.0713192e-17
1.204908e-18
3.3555773e-20
8.4614222e-22
1.8938514e-23
3.7940568e-25
6.6649799e-27
9.9462391e-29
1.18927e-30
9.6344585e-33
6.7931644e-35
8.8523649e-37
1.0582985e-38
1.0980399e-40
1.1491489e-42
7.2686441e-42
2.472427e-42
3.9155468e-43
3.1707635e-43
1.1331912e-43
2.7891976e-44
6.6699177e-45
8.648091e-46
4.0568093e-47
7.6319363e-49
7.5589927e-51
5.0623829e-53
2.5725585e-55
1.0948145e-57
4.4330164e-60
1.9041103e-62
8.7034898e-65
3.7211441e-67
2.6607442e-69
1.7233678e-67
1.7264394e-65
2.5549e-63
3.1758417e-61
3.5070479e-59
3.542387e-57
3.4115783e-55
3.2687907e-53
3.4745577e-51
5.1096263e-49
9.6918322e-47
5.6535198e-45
6.9537161e-44
3.770855e-43
1.3861548e-42
3.0862773e-42
3.9406413e-42
4.0802794e-40
4.5586022e-38
3.9917754e-36
3.1669058e-34
3.5908079e-32
4.2308655e-30
3.6744397e-28
2.5319573e-26
1.4755407e-24
7.5031305e-23
3.3893434e-21
1.3734972e-19
5.1187058e-18
1.9427415e-16
8.324258e-15
2.733415e-13
3.1284847e-12
7.9114979e-12
1.333816e-12
8.2878664e-13
1.7030519e-16
2.5677491e-17
5.0983596e-16
1.3697995e-15
1.375357e-15
8.4217121e-16
6.1356974e-16
8.9059693e-16
1.4296062e-15
3.6875073e-15
1.0190935e-14
6.4382543e-15
4.6652205e-15
3.9502035e-15
5.9750754e-15
3.9386299e-15
1.4346181e-15
4.4641884e-16
1.7129945e-16
5.8877691e-17
1.0904853e-17
8.6743071e-18
2.9787759e-19
3.6226555e-19
1.6570633e-14
7.843304e-13
4.6585326e-12
2.6199765e-12
2.9475852e-13
7.976887e-15
1.5984152e-16
4.3453232e-18
1.1515671e-19
2.6792004e-21
5.4316491e-23
9.3785744e-25
1.3080754e-26
1.2774258e-28
9.0101198e-31
1.3074896e-32
1.76846e-34
2.0658343e-36
2.0835571e-38
1.8160345e-40
7.1230062e-40
2.4730196e-40
3.9916559e-41
3.1115587e-41
1.0701228e-41
2.6759676e-42
6.3480723e-43
8.862933e-44
4.3726045e-45
7.8468185e-47
7.3542903e-49
4.7408794e-51
2.3371635e-53
9.6260932e-56
3.7286946e-58
1.5121937e-60
6.5420326e-63
2.6846322e-65
1.8175215e-67
1.1446491e-65
1.1824055e-63
1.7713041e-61
2.234817e-59
2.513647e-57
2.6019581e-55
2.5895288e-53
2.6043802e-51
2.9813571e-49
4.6886558e-47
9.5521739e-45
5.7155636e-43
6.3799318e-42
3.2981735e-41
1.171744e-40
2.6453304e-40
3.9716056e-40
2.8829691e-38
3.6568172e-36
3.9386273e-34
3.462653e-32
2.4514241e-30
2.345375e-28
2.3277173e-26
1.7400749e-24
1.0407948e-22
5.2733436e-21
2.327934e-19
9.1030224e-18
3.1851569e-16
1.0042215e-14
3.1211879e-13
1.2350671e-11
1.7512236e-10
4.5086243e-10
8.1809113e-11
4.4592923e-11
2.7324752e-15
1.9559123e-16
1.1958711e-14
3.1124619e-14
3.0130893e-14
1.7061332e-14
1.7137438e-14
2.1956932e-14
2.8002113e-14
4.5715662e-14
8.8340171e-14
5.6423383e-14
3.0877763e-14
2.6110079e-14
5.1442513e-14
3.9310797e-14
1.7216201e-14
6.8157902e-15
3.3945793e-15
1.2566979e-15
2.5232418e-16
1.8019995e-16
1.9991444e-18
2.4263836e-18
7.6646783e-13
4.7005758e-11
2.8069976e-10
1.8008556e-10
2.2219837e-11
5.77894e-13
1.4288813e-14
4.456895e-16
1.2439269e-17
2.9597369e-19
5.9843743e-21
9.883348e-23
1.1932123e-24
8.8145855e-27
1.4295203e-28
2.204617e-30
2.9250087e-32
3.3419618e-34
2.8180409e-36
2.5979129e-38
6.4960606e-38
2.3103831e-38
3.9577259e-39
2.7108845e-39
9.1327456e-40
2.3101115e-40
5.4386828e-41
8.0552432e-42
4.1358464e-43
7.2470208e-45
6.5462942e-47
4.1031213e-49
1.9756091e-51
7.9151315e-54
2.9448612e-56
1.1292983e-58
4.6137593e-61
1.8117496e-63
1.1571074e-65
7.1209485e-64
7.5916168e-62
1.1499521e-59
1.4708769e-57
1.6820695e-55
1.7772934e-53
1.8199578e-51
1.9187901e-49
2.3664282e-47
3.942249e-45
8.2089841e-43
5.0855825e-41
5.2965827e-40
2.6372007e-39
9.206271e-39
2.1204694e-38
2.7383028e-38
1.2350491e-36
1.6875328e-34
1.9302029e-32
1.8458343e-30
1.4969695e-28
1.1237814e-26
9.5820528e-25
7.634699e-23
4.8174388e-21
2.457564e-19
1.0920551e-17
4.6735042e-16
1.3748437e-14
1.4568239e-13
1.0096275e-12
2.8614621e-10
8.3521074e-09
2.0710528e-08
3.9796973e-09
1.8901929e-09
2.1914833e-13
5.6494512e-15
1.1958884e-13
1.6352758e-13
1.4804085e-13
7.8786736e-14
1.460614e-13
1.5158184e-13
1.5404307e-13
1.5811936e-13
2.5661737e-13
2.1356371e-13
1.5935564e-13
1.8836223e-13
2.7321063e-13
2.3164768e-13
1.2751083e-13
7.0095049e-14
4.3103975e-14
1.7432715e-14
5.0777375e-15
1.5762591e-15
1.1599262e-17
1.8559028e-17
4.4174765e-11
2.0976368e-09
1.3054611e-08
1.0321712e-08
1.4866719e-09
1.1355287e-12
4.9255064e-14
1.8636415e-14
1.2124703e-15
2.2349411e-17
3.8116997e-19
5.6975201e-21
5.732273e-23
1.0493291e-24
1.853533e-26
2.7126024e-28
2.8623293e-30
2.4085949e-32
1.5961508e-34
2.7456246e-36
5.526193e-36
2.0218174e-36
3.9280031e-37
2.1153497e-37
7.1470649e-38
1.8125451e-38
4.2415202e-39
6.5982776e-40
3.5159136e-41
6.1164687e-43
5.390449e-45
3.3095633e-47
1.5638759e-49
6.1219288e-52
2.1965178e-54
7.9807732e-57
3.0719432e-59
1.1500097e-61
6.8945535e-64
4.1639725e-62
4.5846536e-60
7.0173761e-58
9.0916126e-56
1.0558495e-53
1.1369293e-51
1.1947672e-49
1.3113292e-47
1.7266082e-45
3.0730538e-43
6.3828694e-41
4.0776978e-39
4.0130793e-38
1.9327428e-37
6.6874877e-37
1.5583557e-36
1.2149375e-36
3.3089879e-35
4.9841721e-33
6.1952115e-31
6.274316e-29
5.2630613e-27
3.7699061e-25
2.8783492e-23
2.3083531e-21
1.5143491e-19
8.2998813e-18
4.1258726e-16
1.1375193e-14
1.0664951e-13
1.2859473e-12
2.7521958e-11
7.681858e-10
1.7672117e-07
1.9260684e-06
7.0027419e-06
4.2915726e-06
1.4863938e-13
7.3168823e-15
3.458662e-12
4.7356952e-12
5.0647484e-12
2.5428106e-12
4.5964586e-13
2.9505607e-13
2.2174999e-13
1.7687072e-13
4.0380118e-13
5.2807934e-13
5.7750418e-13
8.2825085e-13
9.87208e-13
7.831936e-13
5.8321222e-13
4.114425e-13
2.6373408e-13
1.5507402e-13
8.2674759e-14
1.7095826e-14
1.8577576e-17
1.1507111e-16
6.9852727e-07
6.7429107e-06
5.2189505e-06
8.5848629e-07
2.0125645e-08
4.3361477e-11
1.4207367e-12
1.3306342e-13
2.1160105e-14
1.0551321e-15
1.847878e-17
2.0417278e-19
3.7987993e-21
6.8367494e-23
1.0113826e-24
1.2301587e-26
1.2024341e-28
9.1034964e-31
5.170946e-33
1.6024025e-34
4.3425615e-34
1.6007112e-34
3.367956e-35
1.523159e-35
5.1392052e-36
1.2997081e-36
3.0345787e-37
4.9342348e-38
2.7310842e-39
4.7752097e-41
4.1404958e-43
2.5040377e-45
1.1663736e-47
4.4789613e-50
1.5556249e-52
5.3681979e-55
1.9427341e-57
6.904857e-60
3.8608969e-62
2.2964127e-60
2.6145792e-58
4.0407515e-56
5.297379e-54
6.2402221e-52
6.8406046e-50
7.3659532e-48
8.4151438e-46
1.1781544e-43
2.2317189e-41
4.7366392e-39
2.9897336e-37
2.7952744e-36
1.3024286e-35
4.4099139e-35
1.0621083e-34
1.4849447e-34
6.5641295e-34
9.2360075e-32
1.2873771e-29
1.4130353e-27
1.2545882e-25
9.174963e-24
5.9197553e-22
4.5184757e-20
3.2178095e-18
1.9924231e-16
6.3121726e-15
6.9491441e-14
1.4494271e-12
3.2276195e-11
7.3385279e-10
2.0595532e-08
4.9258575e-06
4.9342641e-05
7.6418603e-05
6.1874022e-05
1.3174384e-05
1.5163893e-13
5.6955625e-11
1.4958885e-10
1.8752465e-10
9.9091001e-11
1.4650141e-11
1.2561278e-11
4.0555127e-12
6.5709794e-13
5.0798991e-13
1.8734702e-12
9.0685488e-12
1.9589838e-11
2.0527409e-11
1.2841033e-11
6.0356278e-12
2.2872693e-12
8.6537519e-13
1.0700987e-12
1.4822292e-12
4.4185172e-13
1.2189383e-16
-1.0273189e-14
1.6419393e-05
2.2574821e-05
2.2539235e-05
1.5064814e-05
7.3549506e-07
1.9165926e-09
1.0042336e-10
4.7666065e-12
2.1954241e-13
1.2466283e-14
3.638786e-16
5.3211505e-18
1.0138315e-19
1.7642199e-21
2.5110892e-23
2.87489e-25
2.5501808e-27
1.6578751e-29
8.6555692e-32
1.2555396e-32
3.1500954e-32
1.144757e-32
2.5529373e-33
1.0076658e-33
3.3897814e-34
8.5640134e-35
2.0035624e-35
3.4011555e-36
1.9608552e-37
3.4804958e-39
2.988961e-41
1.7886075e-43
8.2407145e-46
3.1142245e-48
1.0514433e-50
3.4559407e-53
1.1744974e-55
3.9436201e-58
2.0406197e-60
1.1981605e-58
1.4131235e-56
2.2033841e-54
2.9207369e-52
3.4853759e-50
3.8857796e-48
4.2853021e-46
5.0951732e-44
7.5772774e-42
1.518491e-39
3.2948985e-37
2.0292692e-35
1.7994671e-34
8.1059832e-34
2.7102556e-33
6.6191065e-33
1.3317106e-32
1.6873543e-32
7.6245991e-31
1.2258716e-28
1.4954146e-26
1.4119674e-24
1.089825e-22
9.3120223e-21
7.9243528e-19
5.5593438e-17
2.5404036e-15
5.0118195e-14
6.1788382e-13
1.4459295e-11
3.3357495e-10
7.0766701e-09
7.8416878e-07
4.7513391e-05
7.6418603e-05
7.6418603e-05
7.6418603e-05
6.1294716e-05
1.029627e-11
1.7586678e-09
4.6389537e-09
5.820122e-09
3.4912886e-09
7.8777978e-09
1.8328529e-08
1.355773e-08
1.508844e-12
6.3442605e-13
4.5830769e-11
4.1116621e-10
4.9013426e-10
4.586868e-10
2.9710479e-10
1.4634213e-10
5.8328814e-11
1.7729268e-11
4.7243973e-11
6.1034608e-11
1.3754522e-11
2.4697154e-15
9.857085e-06
2.2606514e-05
2.2590667e-05
2.2574821e-05
2.2477218e-05
1.5209226e-05
3.7335657e-07
1.8910241e-09
8.9056608e-11
3.507839e-12
1.3604773e-13
7.1152214e-15
1.598328e-16
1.9446446e-18
3.0543261e-20
4.1868611e-22
4.4325281e-24
3.4626544e-26
1.7786918e-28
1.7559873e-30
1.2122734e-30
2.0899645e-30
7.4080196e-31
1.7264529e-31
6.1408817e-32
2.0600112e-32
5.2115833e-33
1.2277824e-33
2.1767626e-34
1.3129322e-35
2.3880829e-37
2.0412698e-39
1.2124991e-41
5.5431117e-44
2.0679323e-46
6.813267e-49
2.140271e-51
6.8271465e-54
2.1554559e-56
1.0226389e-58
5.9327251e-57
7.2633103e-55
1.141807e-52
1.5287821e-50
1.8462533e-48
2.0909168e-46
2.3624029e-44
2.9271189e-42
4.6216266e-40