/*--------------------------------*- C++ -*----------------------------------*\
  =========                 |
  \\      /  F ield         | OpenFOAM: The Open Source CFD Toolbox
   \\    /   O peration     | Website:  https://openfoam.org
    \\  /    A nd           | Version:  9
     \\/     M anipulation  |
\*---------------------------------------------------------------------------*/
FoamFile
{
    format      ascii;
    class       surfaceScalarField;
    location    "0.39";
    object      alphaPhi0.phase1;
}
// * * * * * * * * * * * * * * * * * * * * * * * * * * * * * * * * * * * * * //

dimensions      [0 3 -1 0 0 0 0];

internalField   nonuniform List<scalar> 
19800
(
-2.2107193e-102
3.1115754e-102
-4.1870867e-102
3.2032292e-102
-1.2541372e-101
4.5033946e-102
-1.3129187e-99
2.6211983e-100
-1.8389457e-97
3.0713932e-98
-2.224214e-95
3.334867e-96
-2.4152954e-93
3.4460716e-94
-2.6895885e-91
3.7112265e-92
-4.0761724e-89
5.0103328e-90
-1.050465e-86
1.0126388e-87
-6.8161845e-84
2.8004308e-85
-2.9514114e-81
8.2755654e-83
-1.5643367e-79
7.1324285e-81
-1.7187009e-78
1.1780959e-79
-8.0248344e-78
6.8689932e-79
-2.9695947e-77
2.3928705e-78
-1.0581075e-76
7.0771364e-78
-1.4068324e-76
1.6294847e-77
-2.0946978e-76
2.0776892e-77
-3.495173e-75
1.8287316e-76
-2.8849515e-73
1.3148382e-74
-2.3778022e-71
9.851325e-73
-1.8631008e-69
6.9359352e-71
-1.3933937e-67
4.5695913e-69
-9.9935813e-66
2.8214708e-67
-6.9082797e-64
1.6233449e-65
-4.6116608e-62
8.5870321e-64
-2.9892153e-60
4.0021663e-62
-2.0714584e-58
1.4298684e-60
-1.5605481e-56
1.482889e-59
-1.059663e-54
-1.282227e-56
-6.1958617e-53
-1.5733647e-54
-3.6616007e-51
-1.1101441e-52
-1.2433045e-49
-5.3852708e-51
-1.3279109e-48
-1.0110282e-49
-1.1069539e-47
-4.5373394e-49
-1.2219441e-48
-9.6479605e-49
-1.1517496e-48
-7.2676475e-49
-1.177246e-48
-6.325142e-49
-1.5337121e-48
-3.1041009e-49
-1.424578e-47
-2.4103191e-48
-1.9261522e-46
-3.693364e-47
-2.1695466e-45
-4.6908278e-46
-1.9547215e-44
-4.9262068e-45
-1.300215e-43
-4.0424726e-44
-6.2159544e-43
-2.4392654e-43
-2.0654589e-42
-1.108312e-42
-3.4483619e-42
-4.1213079e-42
5.2649687e-42
-1.2684284e-41
3.4683763e-41
-2.9689922e-41
6.0366647e-41
-2.9889771e-41
2.4070548e-41
-1.4765255e-41
6.4168694e-42
-4.548248e-42
1.3632893e-42
-1.1245126e-42
2.1200913e-43
-2.2312692e-43
2.1409959e-44
-3.0393448e-44
1.2063002e-45
-2.4371057e-45
3.4641947e-47
-1.0602083e-46
5.5481193e-49
-2.5583338e-48
1.652126e-49
-4.0784868e-50
1.6476192e-49
-1.1986766e-50
1.525167e-49
-9.5508348e-51
1.5007466e-50
-2.9405574e-51
1.9022116e-51
-8.9032028e-52
2.7498174e-53
-3.8411885e-53
8.9371234e-56
-1.6567655e-55
1.1541598e-57
7.4486869e-59
7.5228614e-59
1.1761577e-59
6.5118184e-60
1.0698325e-60
7.4224037e-61
1.717236e-61
1.8869877e-62
1.2046414e-62
1.4835504e-64
2.7068871e-64
1.3113766e-66
3.5361633e-66
1.6896185e-68
4.892096e-68
2.2492481e-70
7.1082073e-70
2.7961072e-72
1.0037753e-71
3.591215e-74
1.3450064e-73
2.058601e-75
2.033408e-75
9.5538378e-76
2.0665938e-76
6.9103414e-76
1.0931971e-76
5.1425663e-76
8.2064404e-77
3.2784841e-76
5.9157549e-77
1.3773699e-76
3.2500788e-77
3.7840513e-77
1.1193371e-77
1.3477253e-77
4.2278515e-78
3.7402151e-78
1.4098022e-78
7.336494e-79
3.6036359e-79
8.5804211e-80
6.9179649e-80
1.6481457e-81
4.4180729e-81
3.7385278e-84
5.1541894e-83
5.7549858e-87
1.8810142e-85
1.4439023e-89
5.9780349e-88
3.1254972e-92
1.6652615e-90
6.3331591e-95
3.9523236e-93
1.9609149e-97
1.0535901e-95
9.0732126e-100
4.556935e-98
7.5122032e-102
2.3973784e-100
2.1728115e-102
4.0807604e-102
-2.8372362e-103
3.1593915e-102
2.8732936e-102
-1.2725036e-101
5.6376336e-102
-2.3901897e-100
2.7697039e-100
-8.9271038e-100
1.494239e-99
-6.1337091e-99
4.5039191e-99
-3.6750545e-97
1.8693902e-97
-2.9743847e-95
1.0912884e-95
-3.0897864e-93
9.8040314e-94
-4.680521e-91
1.3904995e-91
-1.2733778e-88
3.0306785e-89
-3.8340496e-86
8.1986577e-87
-1.0692354e-83
1.5919673e-84
-2.9731119e-81
1.7004873e-82
-1.4856609e-79
1.082829e-80
-1.7239533e-78
1.7795112e-79
-8.8796985e-78
1.1126511e-78
-2.2050366e-77
4.0149751e-78
-5.6936364e-77
9.9261704e-78
-5.5844611e-76
1.0001809e-76
-3.9061208e-74
6.3622623e-75
-3.6167122e-72
5.3677761e-73
-3.206126e-70
4.3574799e-71
-2.6846796e-68
3.3080871e-69
-2.1328403e-66
2.3506494e-67
-1.6154402e-64
1.5618101e-65
-1.1723933e-62
9.6966122e-64
-8.196433e-61
5.591579e-62
-5.5276491e-59
2.9462821e-60
-3.6187368e-57
1.3613371e-58
-2.548251e-55
4.831165e-57
-1.9099717e-53
3.2599421e-56
-1.2516221e-51
-2.267048e-53
-6.9011339e-50
-2.6171844e-51
-4.8724571e-48
-1.8131314e-49
-2.9881793e-46
-8.8297009e-48
-1.6550703e-45
-1.5306689e-46
-1.2510533e-46
-4.4951786e-46
-5.9067422e-48
-1.9872469e-47
-4.5411696e-48
-1.9376465e-48
-1.0151061e-47
-1.7387183e-48
-1.9354885e-46
-4.7445793e-47
-2.7979906e-45
-8.5536255e-46
-3.3771736e-44
-1.2200542e-44
-3.4781115e-43
-1.4709354e-43
-2.918239e-42
-1.468465e-42
-1.7192322e-41
-1.132697e-41
-5.8630568e-41
-6.0581101e-41
-1.0394715e-40
-2.1098581e-40
-9.2334673e-41
-5.1009462e-40
1.0387944e-40
-1.0508111e-39
5.2934613e-40
-1.8724957e-39
9.158534e-40
-1.8755375e-39
5.940357e-40
-1.1689787e-39
3.0491486e-40
-5.4274872e-40
1.2626166e-40
-2.1284158e-40
3.0134391e-41
-5.8232078e-41
3.5089161e-42
-9.2833593e-42
2.0086253e-43
-7.9712414e-43
6.3389744e-45
-3.7320795e-44
1.2787115e-46
-1.0318812e-45
1.8102963e-48
-1.9351979e-47
6.0719851e-49
-3.2563183e-49
6.3483969e-49
-1.4684895e-49
1.7061955e-47
-3.3659266e-48
1.5071376e-47
-2.5160843e-48
1.2151573e-49
-1.4885549e-49
2.3995332e-52
-8.2168035e-52
1.8474837e-54
-1.6196051e-54
5.4811736e-56
2.442353e-56
3.1295312e-57
2.4976704e-57
2.0833728e-59
6.3342954e-59
2.769057e-61
1.1777847e-60
4.125444e-63
2.1514517e-62
5.7405673e-65
3.6855011e-64
7.6228306e-67
5.8949157e-66
9.6422999e-69
8.8308741e-68
1.1539544e-70
1.2385001e-69
1.3331153e-72
1.6243484e-71
1.9862828e-74
2.0830587e-73
2.3342192e-75
3.8433253e-75
2.0508552e-75
6.2945934e-76
4.2999193e-75
1.6628413e-75
3.1391859e-75
1.4762567e-75
3.9120062e-76
4.4085388e-76
4.9351098e-77
4.0408884e-77
2.008392e-77
1.4755757e-77
4.1879366e-78
3.5851725e-78
7.3650024e-79
7.1480684e-79
8.1535303e-80
1.1666707e-79
1.7516212e-81
7.5336918e-81
7.3928382e-84
1.4617662e-82
2.4713485e-86
1.3075192e-84
6.3212902e-89
6.4990244e-87
8.4410279e-92
1.5608685e-89
1.9073455e-94
2.7345031e-92
1.4949619e-96
1.2857109e-94
1.7715401e-98
1.2501554e-96
1.1400968e-99
1.8628226e-98
1.1475586e-100
2.7762172e-99
-4.7160957e-103
3.2841825e-100
5.4736402e-102
-2.5464724e-99
1.0893866e-98
-1.0539577e-96
4.2377895e-97
-3.1653527e-95
2.7064109e-95
-1.3193426e-94
2.1453504e-94
-5.1837458e-94
7.2411335e-94
-8.904516e-93
8.0165108e-93
-1.1732493e-90
7.9367088e-91
-3.5373135e-88
1.8116444e-88
-2.0658569e-85
6.0093874e-86
-1.7496932e-82
2.1648122e-83
-2.3282613e-80
3.6851814e-81
-2.8768864e-79
1.0637156e-79
-1.2456759e-78
7.1924515e-79
-1.9883256e-77
3.7350775e-78
-7.6787409e-76
1.0061828e-76
-2.1618764e-75
1.1241121e-75
-7.7111805e-75
3.1086503e-75
-3.1992029e-73
7.6604559e-74
-3.0462155e-71
6.6234211e-72
-2.8614945e-69
5.6757573e-70
-2.5507652e-67
4.623537e-68
-2.1438772e-65
3.5181218e-66
-1.7067016e-63
2.5002131e-64
-1.2932738e-61
1.6601366e-62
-9.3740866e-60
1.0270746e-60
-6.5342979e-58
5.8865019e-59
-4.3847411e-56
3.074164e-57
-2.8513982e-54
1.4061652e-55
-1.9927504e-52
4.9527669e-54
-1.4708437e-50
1.9985682e-53
-9.4629729e-49
-2.21208e-50
-5.203883e-47
-2.5012934e-48
-3.6381841e-45
-1.6970739e-46
-1.9801258e-43
-7.8789894e-45
-9.9341758e-43
-1.2502597e-43
-1.168186e-43
-3.4952799e-43
-4.9446427e-45
-3.1175356e-44
-1.0291051e-45
-1.6001329e-45
-1.9918073e-45
-4.8858287e-46
-3.5639847e-44
-1.1584693e-44
-4.896328e-43
-2.0452593e-43
-5.5949272e-42
-2.8022261e-42
-5.4687984e-41
-3.2539851e-41
-4.3854086e-40
-3.1476847e-40
-2.525515e-39
-2.3835142e-39
-8.6597471e-39
-1.2744354e-38
-1.547866e-38
-4.503168e-38
-1.3148341e-38
-1.0988543e-37
1.6422823e-38
-2.2470349e-37
8.1352936e-38
-4.0968622e-37
1.3970514e-37
-4.1093215e-37
8.8782579e-38
-2.5308422e-37
4.5940474e-38
-1.17712e-37
1.8847858e-38
-4.5901895e-38
4.4661257e-39
-1.2448728e-38
5.3322313e-40
-1.9986296e-39
3.2841994e-41
-1.7765092e-40
1.1732e-42
-8.9942024e-42
2.6953697e-44
-2.7838677e-43
5.8305864e-46
-5.3512646e-45
3.6523629e-46
-1.5026493e-46
7.2619995e-46
-1.9322919e-46
1.4471637e-44
-3.5443582e-45
1.5097753e-44
-3.1848926e-45
1.5394734e-46
-2.2260914e-46
3.1259577e-49
-1.4540368e-48
2.1870819e-51
-4.3288226e-51
4.5936093e-53
2.1763619e-53
3.652624e-54
2.4607389e-54
7.4902315e-56
1.6510164e-55
4.037262e-58
2.5677165e-57
5.5089843e-60
4.1306636e-59
7.8334655e-62
6.8539635e-61
1.0318986e-63
1.0804698e-62
1.2938085e-65
1.6048236e-64
1.5362941e-67
2.2391013e-66
1.739163e-69
2.9215503e-68
2.1324647e-71
3.6449379e-70
7.9133782e-73
5.3435405e-72
6.0931889e-73
3.1817231e-73
2.0282161e-72
1.0609207e-72
1.8950852e-72
1.1416911e-72
2.4167858e-73
4.0255987e-73
1.489189e-74
2.7283759e-74
5.5090418e-75
9.121703e-75
7.2106367e-76
1.8612769e-75
6.8491155e-77
2.5273594e-76
5.4158777e-78
2.6920855e-77
3.1284194e-79
2.1642243e-78
1.0468002e-80
1.3212367e-79
6.4016082e-83
2.6225901e-81
1.6916211e-85
1.7850441e-83
5.0344338e-88
8.2097143e-86
1.4476238e-90
3.1003349e-88
8.1061635e-93
1.1461848e-90
2.6774584e-94
1.1736064e-92
1.6387027e-95
5.8710313e-94
3.3498747e-97
3.997845e-95
-5.4131699e-100
4.9830351e-97
1.1528152e-98
-7.4394805e-97
4.624452e-96
-1.1133608e-94
2.2497213e-94
-3.8122917e-92
2.2636183e-92
-4.6504771e-90
1.6918623e-90
-1.537461e-89
2.821727e-89
-4.6727581e-89
7.458326e-89
-1.1131434e-87
9.7516727e-88
-3.0123914e-85
2.013954e-85
-1.570868e-82
6.0999275e-83
-1.1973633e-79
2.0238119e-80
-1.5220855e-77
3.3551928e-78
-1.6597724e-76
1.0196675e-76
-1.2909243e-75
8.2798393e-76
-9.313508e-74
1.0440197e-74
-1.8327137e-72
3.3483979e-73
-2.3904619e-72
1.6506482e-72
-4.0163425e-72
2.0227026e-72
-1.8016933e-70
5.4159262e-71
-1.7599431e-68
4.7995058e-69
-1.6736446e-66
4.1689879e-67
-1.5018733e-64
3.4177329e-65
-1.2674529e-62
2.6085592e-63
-1.0104848e-60
1.8545492e-61
-7.6512308e-59
1.2299359e-59
-5.5294955e-57
7.5795679e-58
-3.8352117e-55
4.3230848e-56
-2.5543482e-53
2.2411366e-54
-1.6453819e-51
1.0158967e-52
-1.1364591e-49
3.5386825e-51
-8.2721134e-48
2.0095937e-50
-5.2505983e-46
-1.4735215e-47
-2.8923029e-44
-1.6516806e-45
-2.0040285e-42
-1.1069055e-43
-9.6370034e-41
-4.8724848e-42
-4.3106278e-40
-7.0239687e-41
-9.4867801e-41
-1.85484e-40
-2.4742247e-42
-2.8368084e-41
-2.3248741e-43
-8.6213488e-43
-3.7553278e-43
-1.5923665e-43
-5.2236312e-42
-2.0951491e-42
-6.6136576e-41
-3.434087e-41
-7.1369847e-40
-4.4789828e-40
-6.6323466e-39
-4.9907233e-39
-5.0968853e-38
-4.6525428e-38
-2.8673888e-37
-3.4396796e-37
-9.8322137e-37
-1.8270271e-36
-1.7772534e-36
-6.4887251e-36
-1.4880393e-36
-1.5904328e-35
1.8101924e-36
-3.2143792e-35
9.172455e-36
-5.9339613e-35
1.5788295e-35
-5.9591552e-35
9.9298025e-36
-3.6471967e-35
5.1863652e-36
-1.704268e-35
2.1253693e-36
-6.6486165e-36
5.0492127e-37
-1.800181e-36
6.202027e-38
-2.9186577e-37
4.099351e-39
-2.6917373e-38
1.6404202e-40
-1.4673262e-39
4.1694799e-42
-5.0604627e-41
1.021249e-43
-9.8710106e-43
7.1434172e-44
-3.8638918e-44
6.7494847e-43
-1.6523192e-43
8.7246083e-42
-2.4168961e-42
9.5375933e-42
-2.5318486e-42
1.2531941e-43
-2.0279797e-43
2.6914596e-46
-1.5131188e-45
1.8623681e-48
-5.1091884e-48
3.8214767e-50
1.6366604e-50
3.1444039e-51
2.3687609e-51
5.9966595e-53
1.6095598e-52
3.4240751e-55
2.6049738e-54
4.7479001e-57
4.3231161e-56
6.7650785e-59
7.2924884e-58
8.9235188e-61
1.1608298e-59
1.1160482e-62
1.7316815e-61
1.3181005e-64
2.4185826e-63
1.4737687e-66
3.1456269e-65
1.709651e-68
3.8695653e-67
3.2620389e-70
5.2555846e-69
2.0336705e-70
1.3486409e-70
6.761744e-70
3.6232053e-70
8.021076e-70
6.1687482e-70
1.2301318e-70
2.3921944e-70
7.9872173e-72
1.8280105e-71
3.0366494e-72
6.2458358e-72
4.6390438e-73
1.407638e-72
5.4169681e-74
2.1881926e-73
5.5766959e-75
3.0835483e-74
2.6533533e-76
2.5173604e-75
7.2330629e-78
1.3319232e-76
5.1512514e-80
2.628662e-78
2.1052491e-82
2.2423828e-80
1.044127e-84
1.4603983e-82
6.0754281e-87
9.6112621e-85
4.5865461e-89
6.812531e-87
9.3661663e-91
7.4837129e-89
2.1806379e-92
2.5923678e-90
5.3504849e-95
3.7154086e-92
-2.4997921e-97
2.9653684e-94
4.9059394e-96
-1.8327016e-94
1.4541972e-93
-3.1200884e-92
8.4915602e-92
-5.1720858e-90
9.1476857e-90
-1.1456384e-87
8.057201e-88
-1.1588977e-85
5.4635988e-86
-5.4755038e-85
1.0814195e-84
-3.0025422e-84
4.5997027e-84
-2.2655358e-82
2.0193926e-82
-8.6542949e-80
4.5238251e-80
-5.6132032e-77
1.2718198e-77
-7.2532735e-75
2.0367271e-75
-9.3364511e-74
6.6316492e-74
-8.1471779e-73
6.0777632e-73
-4.9923199e-71
7.5745568e-72
-9.0390203e-70
1.9922794e-70
-1.0701638e-69
8.9917941e-70
-1.6867993e-69
9.9632834e-70
-8.4174287e-68
3.0828302e-68
-8.3447019e-66
2.7446125e-66
-8.038823e-64
2.4200657e-64
-7.2627827e-62
1.9955266e-62
-6.1514728e-60
1.5277208e-60
-4.9087432e-58
1.0870684e-58
-3.7083458e-56
7.18971e-57
-2.6664163e-54
4.4134474e-55
-1.834129e-52
2.4969225e-53
-1.2081031e-50
1.2829016e-51
-7.6740129e-49
5.7606514e-50
-5.2012304e-47
2.0015711e-48
-3.7090108e-45
1.5773354e-47
-2.3165445e-43
-7.3850848e-45
-1.2788946e-41
-8.3035254e-43
-8.7812426e-40
-5.4988348e-41
-3.7097544e-38
-2.2963273e-39
-1.4583198e-37
-2.9868315e-38
-4.4922953e-38
-7.3835739e-38
-8.0495507e-40
-1.568293e-38
-5.9138452e-41
-3.2579685e-40
-7.504684e-41
-4.9011099e-41
-6.4296865e-40
-3.1190616e-40
-7.1244316e-39
-4.4242895e-39
-7.1502732e-38
-5.3728525e-38
-6.2950808e-37
-5.7102294e-37
-4.6222537e-36
-5.1045488e-36
-2.5343515e-35
-3.6662027e-35
-8.6684473e-35
-1.9252024e-34
-1.5819591e-34
-6.8418937e-34
-1.3293087e-34
-1.6796433e-33
1.4802878e-34
-3.3560251e-33
7.8793681e-34
-6.2446869e-33
1.3671842e-33
-6.2793429e-33
8.5960232e-34
-3.8313958e-33
4.5329128e-34
-1.7991089e-33
1.860559e-34
-7.0414451e-34
4.4434987e-35
-1.9093294e-34
5.6124603e-36
-3.1297819e-35
3.9724905e-37
-3.0004509e-36
1.7753092e-38
-1.7623337e-37
5.0422692e-40
-6.7682967e-39
1.3991813e-41
-1.4563805e-40
1.0338213e-41
-4.1529462e-42
3.571798e-40
-9.7741725e-41
3.9097769e-39
-1.2026074e-39
4.5569441e-39
-1.4526846e-39
7.5955606e-41
-1.3186641e-40
1.7533929e-43
-1.1007046e-42
1.2185906e-45
-4.0563511e-45
2.4745142e-47
1.0564274e-47
1.9125643e-48
1.7665449e-48
3.2524084e-50
1.101244e-49
2.2123573e-52
1.9106101e-51
3.1624103e-54
3.3361286e-53
4.5243893e-56
5.7624749e-55
5.9950479e-58
9.3067802e-57
7.497867e-60
1.3999804e-58
8.8174244e-62
1.957265e-60
9.7469393e-64
2.5412159e-62
1.0895194e-65
3.0883734e-64
1.6344687e-67
3.9990747e-66
9.1241178e-68
7.3970506e-68
1.1399687e-67
8.7850572e-68
2.6107689e-67
2.4632038e-67
4.3305054e-68
9.9516185e-68
3.190645e-69
8.2997671e-69
1.3131692e-69
3.1021408e-69
2.2331535e-70
7.7767899e-70
2.8470041e-71
1.3021582e-70
3.3938717e-72
2.1315638e-71
1.4663277e-73
1.7581765e-72
3.7528803e-75
8.9505211e-74
2.8338589e-77
1.7663433e-75
1.4704621e-79
1.698851e-77
8.8904177e-82
1.374312e-79
5.0904401e-84
9.7981475e-82
4.5995037e-86
7.2557787e-84
7.010487e-88
1.0856318e-85
5.7317729e-90
1.8024586e-87
9.5731204e-93
1.6790798e-89
-8.7606359e-95
1.1210592e-91
1.5314563e-93
-3.4426721e-92
3.6107569e-91
-7.139283e-90
2.3795573e-89
-1.1974667e-87
2.8017407e-87
-1.6551528e-85
2.5654477e-85
-2.5551283e-83
2.0500539e-83
-1.3823854e-81
1.1386197e-81
-1.0634604e-80
2.2239452e-80
-1.5771655e-79
1.9335061e-79
-3.7452183e-77
2.6374402e-77
-2.1620377e-74
6.1140451e-75
-2.8303703e-72
9.6941055e-73
-3.7577915e-71
3.287286e-71
-4.305465e-70
3.2288654e-70
-2.3886664e-68
4.7892834e-69
-2.9331178e-67
9.3572354e-68
-3.5036592e-67
3.4860741e-67
-5.7904095e-67
3.9146822e-67
-3.3003428e-65
1.4127225e-65
-3.3714134e-63
1.3032288e-63
-3.2921812e-61
1.1658729e-61
-2.9979718e-59
9.6878257e-60
-2.5491022e-57
7.4424319e-58
-2.0338388e-55
5.2948935e-56
-1.5306912e-53
3.4909353e-54
-1.0922465e-51
2.1278927e-52
-7.4318259e-50
1.1938392e-50
-4.8254341e-48
6.065893e-49
-3.0110075e-46
2.6957496e-47
-1.9885887e-44
9.3702156e-46
-1.380981e-42
9.4707325e-45
-8.4684131e-41
-2.9341465e-42
-4.6823668e-39
-3.3546772e-40
-3.1829299e-37
-2.1919634e-38
-1.1796598e-35
-8.6670759e-37
-4.0241724e-35
-1.0173473e-35
-1.5390711e-35
-2.3296317e-35
-1.9873939e-37
-6.2175729e-36
-1.2991817e-38
-8.8573204e-38
-1.4293985e-38
-1.2305955e-38
-7.2073897e-38
-4.347187e-38
-6.4331457e-37
-4.7198221e-37
-5.8377525e-36
-5.0665862e-36
-4.8320907e-35
-5.1199143e-35
-3.3724687e-34
-4.3625688e-34
-1.7948448e-33
-3.0282869e-33
-6.0997364e-33
-1.5667578e-32
-1.1215362e-32
-5.5555383e-32
-9.4282711e-33
-1.3655718e-31
9.6382468e-33
-2.7021592e-31
5.3451457e-32
-5.0373172e-31
9.3177732e-32
-5.0668953e-31
5.899234e-32
-3.0995812e-31
3.1551495e-32
-1.4650935e-31
1.3003435e-32
-5.7440521e-32
3.1250174e-33
-1.5591008e-32
4.0716652e-34
-2.5943457e-33
3.0919079e-35
-2.5898175e-34
1.5436282e-36
-1.6411943e-35
4.9800691e-38
-7.0153539e-37
1.5199126e-39
-1.674968e-38
1.1220097e-39
-7.9345363e-40
1.3901592e-37
-4.3368356e-38
1.3928533e-36
-4.7084023e-37
1.7465936e-36
-6.4610148e-37
3.6667489e-38
-6.5933666e-38
9.2402937e-41
-6.2226287e-40
6.5172165e-43
-2.4439566e-42
1.3170351e-44
6.2976167e-45
9.3346904e-46
1.0789475e-45
1.5772621e-47
6.4010958e-47
1.2081985e-49
1.1737196e-48
1.7618264e-51
2.1235155e-50
2.5376722e-53
3.7398228e-52
3.3803043e-55
6.1152218e-54
4.2317736e-57
9.2622918e-56
4.9533899e-59
1.2982056e-57
5.4133004e-61
1.6796236e-59
5.8314928e-63
2.0184759e-61
8.0558874e-65
2.4882029e-63
3.186556e-65
4.2841967e-65
2.9332136e-65
3.0665582e-65
7.4834422e-65
8.4556864e-65
1.2145156e-65
3.3684656e-65
1.0387534e-66
2.9833533e-66
4.6214542e-67
1.2295534e-66
8.2806212e-68
3.3174792e-67
1.1114213e-68
5.7823562e-68
1.5079554e-69
1.0620268e-68
6.23215e-71
9.116024e-70
1.4305697e-72
4.385779e-71
1.1412619e-74
8.5765331e-73
6.8426414e-77
9.1595305e-75
3.7634381e-79
7.7161551e-77
1.9312982e-81
4.6339109e-79
2.3201512e-83
4.1042353e-81
2.8672292e-85
6.9980909e-83
9.9641733e-88
6.7452132e-85
9.2110144e-91
5.1707855e-87
-2.3803227e-92
3.113154e-89
3.74216e-91
-5.1362141e-90
7.3684722e-89
-1.2525927e-87
5.2944126e-87
-2.3431049e-85
6.6201638e-85
-2.9310371e-83
6.5249545e-83
-4.5315841e-81
5.4615212e-81
-7.1995141e-79
4.3542249e-79
-7.2558634e-78
1.7042491e-77
-9.1784282e-77
1.5981784e-76
-1.3029031e-74
1.1069152e-74
-6.4133609e-72
2.324368e-72
-7.7883509e-70
3.4435275e-70
-1.1869096e-68
1.2095068e-68
-2.0130189e-67
1.3983406e-67
-9.5040217e-66
2.475305e-66
-7.4142558e-65
3.5557907e-65
-9.3062171e-65
1.0766669e-64
-1.7066517e-64
1.2883076e-64
-1.1200038e-62
5.5023746e-63
-1.1807484e-60
5.2663873e-61
-1.1718009e-58
4.7911317e-59
-1.0771969e-56
4.0165381e-57
-9.1999342e-55
3.0991351e-55
-7.3396133e-53
2.205225e-53
-5.4972345e-51
1.4475559e-51
-3.8877334e-49
8.7619711e-50
-2.6099185e-47
4.861235e-48
-1.6658589e-45
2.4417625e-46
-1.0175566e-43
1.0716211e-44
-6.5069727e-42
3.7228633e-43
-4.3776147e-40
4.7320344e-42
-2.6348552e-38
-9.4695708e-40
-1.4605366e-36
-1.1214979e-37
-9.7764473e-35
-7.258556e-36
-3.1800581e-33
-2.7098579e-34
-9.3330756e-33
-2.8600947e-33
-4.1552285e-33
-6.0494181e-33
-3.7975947e-35
-1.9179224e-33
-2.4285445e-36
-1.9868857e-35
-2.492278e-36
-2.6171524e-36
-7.9708196e-36
-6.0826726e-36
-5.1105707e-35
-4.5157668e-35
-3.9758801e-34
-3.8720913e-34
-3.065334e-33
-3.6920613e-33
-2.0227709e-32
-2.9868109e-32
-1.0411595e-31
-1.9954884e-31
-3.5131527e-31
-1.0137605e-30
-6.4838101e-31
-3.5741629e-30
-5.4947842e-31
-8.7187665e-30
4.8780655e-31
-1.6961299e-29
2.8928954e-30
-3.1445165e-29
5.0994041e-30
-3.1679477e-29
3.2754632e-30
-1.9537263e-29
1.7819127e-30
-9.3739818e-30
7.3943518e-31
-3.7076926e-30
1.79413e-31
-1.0128636e-30
2.4182245e-32
-1.715302e-31
1.9736559e-33
-1.782182e-32
1.1002235e-34
-1.2168904e-33
3.9934372e-36
-5.784029e-35
2.8189323e-37
-1.479729e-36
2.6580577e-37
-2.2683114e-37
4.291552e-35
-1.5166612e-35
4.1220448e-34
-1.518389e-34
5.5523323e-34
-2.3293566e-34
1.4626123e-35
-2.6564739e-35
4.2101841e-38
-2.9051238e-37
2.9728925e-40
-1.1820163e-39
5.9913295e-42
3.5126923e-42
3.8494762e-43
5.6052358e-43
6.8194329e-45
3.2224773e-44
5.7080251e-47
6.1840922e-46
8.4682395e-49
1.1512854e-47
1.2312591e-50
2.0649105e-49
1.6491463e-52
3.4164698e-51
2.0638362e-54
5.2085554e-53
2.401012e-56
7.3064128e-55
2.5883752e-58
9.4080975e-57
2.6893096e-60
1.1152369e-58
3.3141977e-62
1.3128301e-60
8.13837e-63
1.9782184e-62
7.4011606e-63
9.0847777e-63
1.8363254e-62
2.4414248e-62
2.9026246e-63
9.5736587e-63
2.8128515e-64
9.0118616e-64
1.3160834e-64
3.966805e-64
2.4822116e-65
1.13228e-64
3.5683241e-66
2.0910182e-65
5.2809754e-67
4.1954843e-66
2.0899846e-68
3.7218978e-67
4.1451986e-70
1.6423083e-68
3.6368414e-72
3.2391454e-70
2.2206373e-74
3.7653604e-72
1.0000579e-76
2.6512663e-74
8.4169797e-79
1.8410265e-76
9.8719945e-81
2.5527943e-78
4.4396739e-83
2.3458589e-80
1.4007935e-85
1.7793002e-82
-9.1061258e-89
1.2168258e-84
-5.2765821e-90
6.8291871e-87
7.4654955e-89
-5.9824383e-88
1.2711086e-86
-1.7891475e-85
9.7666458e-85
-3.7158927e-83
1.275341e-82
-5.2227348e-81
1.3386267e-80
-5.8290938e-79
1.1712846e-78
-6.9013404e-77
8.9242931e-77
-5.7528781e-75
5.8186941e-75
-8.3916931e-74
2.0889485e-73
-3.3013396e-72
3.5956893e-72
-1.3725136e-69
6.4349661e-70
-1.8359511e-67
9.5392524e-68
-3.5138538e-66
3.8295613e-66
-7.1667851e-65
5.1711006e-65
-2.6125703e-63
8.8751014e-64
-1.5408237e-62
1.0132621e-62
-2.0824079e-62
2.7646146e-62
-4.4182723e-62
3.6611582e-62
-3.3266464e-60
1.8533874e-60
-3.6292368e-58
1.8424373e-58
-3.6742952e-56
1.7098693e-56
-3.4205102e-54
1.4514469e-54
-2.9405658e-52
1.1270796e-52
-2.3468511e-50
8.0233946e-51
-1.7491813e-48
5.24806e-49
-1.2240755e-46
3.1481679e-47
-8.0894773e-45
1.7254603e-45
-5.0590559e-43
8.5367633e-44
-3.0139509e-41
3.693365e-42
-1.8554978e-39
1.279263e-40
-1.2014732e-37
1.9545801e-39
-7.0790226e-36
-2.5491301e-37
-3.9385444e-34
-3.1633447e-35
-2.5860939e-32
-2.0377716e-33
-7.3572424e-31
-7.1747503e-32
-1.8544314e-30
-6.7867465e-31
-9.2362735e-31
-1.3291855e-30
-6.0656188e-33
-4.7837067e-31
-3.9646595e-34
-3.2924432e-33
-3.9176721e-34
-4.7035446e-34
-9.0090089e-34
-8.4733308e-34
-3.7851621e-33
-4.1699776e-33
-2.3034646e-32
-2.4887038e-32
-1.6231064e-31
-2.1720243e-31
-1.0077949e-30
-1.6643254e-30
-4.9943058e-30
-1.0612624e-29
-1.6686586e-29
-5.2514836e-29
-3.0864076e-29
-1.8158433e-28
-2.6310731e-29
-4.2862473e-28
1.8684393e-29
-7.9723022e-28
1.2465113e-28
-1.4716963e-27
2.2346299e-28
-1.489681e-27
1.4683396e-28
-9.2616552e-28
8.2081537e-29
-4.5992735e-28
3.4542851e-29
-1.8842851e-28
8.507894e-30
-5.2805311e-29
1.186513e-30
-9.1340968e-30
1.0427002e-31
-9.9086198e-31
6.4965168e-33
-7.3250423e-32
2.6335159e-34
-3.8745047e-33
5.114171e-35
-1.051348e-34
5.3534678e-35
-6.5133797e-35
1.0973782e-32
-4.3649696e-33
1.0422577e-31
-4.1450829e-32
1.4987431e-31
-6.9939095e-32
4.9541733e-33
-8.9163952e-33
1.7026476e-35
-1.1636854e-34
1.1812189e-37
-4.7790961e-37
2.3838819e-39
1.8047018e-39
1.4033615e-40
2.5404716e-40
2.6558539e-42
1.4320416e-41
2.3850893e-44
2.8586507e-43
3.6057647e-46
5.4612059e-45
5.3205734e-48
1.0003478e-46
7.1562202e-50
1.6770616e-48
8.9167061e-52
2.5669657e-50
1.0280292e-53
3.5943751e-52
1.0896593e-55
4.5920544e-54
1.0891432e-57
5.3529602e-56
1.1827175e-59
6.0098743e-58
1.8133585e-60
7.7200194e-60
1.6218591e-60
2.310665e-60
3.9112967e-60
6.0583196e-60
5.9949793e-61
2.3300779e-60
6.5242098e-62
2.3338915e-61
3.1728436e-62
1.083189e-61
6.2585068e-63
3.2522058e-62
9.4297658e-64
6.2554535e-63
1.5072632e-64
1.3579167e-63
5.6372992e-66
1.2150065e-64
1.0647262e-67
5.2090472e-66
9.4891491e-70
1.0425398e-67
5.2597451e-72
1.1670474e-69
2.8681292e-74
7.6141914e-72
3.0001836e-76
8.4923686e-74
1.6875371e-78
8.185131e-76
5.8301304e-81
5.5862324e-78
1.3301683e-83
3.6823274e-80
-5.9304567e-86
2.3216929e-82
-9.8050094e-88
1.2390768e-84
1.2523675e-86
-4.8450772e-86
1.8912985e-84
-2.1165287e-83
1.5379297e-82
-4.8132755e-81
2.0750025e-80
-7.3556038e-79
2.2801487e-78
-8.5360766e-77
2.1257732e-76
-1.0234501e-74
1.7237911e-74
-1.2036579e-72
1.2833056e-72
-2.2699249e-71
6.1623443e-71
-7.2544791e-70
1.2039243e-69
-2.0533295e-67
1.3014288e-67
-3.6561143e-65
2.0265706e-65
-9.3430729e-64
1.0475467e-63
-2.1775543e-62
1.657673e-62
-5.8014112e-61
2.6329145e-61
-2.7868786e-60
2.3902008e-60
-4.0450612e-60
6.106702e-60
-1.0037384e-59
9.0620611e-60
-8.5999253e-58
5.3837963e-58
-9.7787698e-56
5.5900659e-56
-1.0165194e-53
5.3265258e-54
-9.6241252e-52
4.5966829e-52
-8.3489066e-50
3.6019599e-50
-6.6780081e-48
2.5715361e-48
-4.9538456e-46
1.6758088e-46
-3.4297615e-44
9.9706587e-45
-2.2285262e-42
5.3915601e-43
-1.3630317e-40
2.6245639e-41
-7.8959897e-39
1.1170547e-39
-4.6552161e-37
3.8484421e-38
-2.8865526e-35
6.7605479e-37
-1.6619797e-33
-5.7288755e-35
-9.2766577e-32
-7.6491961e-33
-5.9491016e-30
-4.9210855e-31
-1.4729227e-28
-1.630659e-29
-3.208687e-28
-1.3864204e-28
-1.7309826e-28
-2.5068135e-28
-7.4716227e-31
-9.9796293e-29
-5.5794573e-32
-4.4053544e-31
-5.3893884e-32
-7.2315132e-32
-1.0228167e-31
-1.1043163e-31
-2.7823414e-31
-3.8571576e-31
-1.168739e-30
-1.4448424e-30
-7.2353662e-30
-1.0435909e-29
-4.1818642e-29
-7.5966796e-29
-1.9759022e-28
-4.5482941e-28
-6.5110662e-28
-2.156367e-27
-1.2069656e-27
-7.2689166e-27
-1.035486e-27
-1.6605164e-26
5.3579634e-28
-2.920112e-26
4.3166067e-27
-5.4451559e-26
7.9146992e-27
-5.5552343e-26
5.3309385e-27
-3.4558739e-26
3.0752713e-27
-1.7664463e-26
1.3226926e-27
-7.5186303e-27
3.3146537e-28
-2.1670877e-27
4.8080589e-29
-3.8672186e-28
4.5974931e-30
-4.4652635e-29
3.217486e-31
-3.6256118e-30
1.459109e-32
-2.1350722e-31
5.5771451e-33
-6.1656466e-33
1.070554e-32
-9.1777451e-33
2.3617376e-30
-1.0305991e-30
2.2887312e-29
-9.7916162e-30
3.4859417e-29
-1.7864058e-29
1.4487442e-30
-2.5502421e-30
6.1999108e-33
-3.9991267e-32
4.1550166e-35
-1.6336791e-34
8.4872363e-37
8.4686625e-37
4.4353431e-38
1.026691e-37
8.2395959e-40
5.2371666e-39
8.8076008e-42
1.130532e-40
1.3577438e-43
2.25266e-42
2.0165678e-45
4.2107299e-44
2.731221e-47
7.1555197e-46
3.4025805e-49
1.1038857e-47
3.8767571e-51
1.5439699e-49
4.0139333e-53
1.9510163e-51
3.8369738e-55
2.2239272e-53
3.7794077e-57
2.3729959e-55
3.6029689e-58
2.7378053e-57
3.1428046e-58
5.159258e-58
7.3253289e-58
1.3128896e-57
1.0812134e-58
4.9321017e-58
1.3271681e-59
5.2676621e-59
6.6885176e-60
2.5822182e-59
1.3547342e-60
8.0483258e-60
2.1778009e-61
1.6223517e-60
3.7799795e-62
3.8508223e-61
1.2750071e-63
3.3881347e-62
2.3401291e-65
1.4185026e-63
1.9954014e-67
2.8833701e-65
9.5770727e-70
2.6225617e-67
8.0596002e-72
2.3782147e-69
6.3842759e-74
2.7522825e-71
2.0087468e-76
1.8414487e-73
5.7866634e-79
1.0560244e-75
3.7267872e-82
6.2978291e-78
-1.5388233e-83
3.7345978e-80
-1.5661457e-85
1.909741e-82
1.8053353e-84
-7.2134217e-85
2.462123e-82
-2.0407823e-81
2.1142588e-80
-5.2653268e-79
2.9235224e-78
-8.6781163e-77
3.3267172e-76
-1.0993839e-74
3.2592265e-74
-1.1945859e-72
2.7991799e-72
-1.2553699e-70
2.1550803e-70
-8.3652243e-69
1.4100814e-68
-2.2384498e-67
6.0616454e-67
-2.3641378e-65
2.1223152e-65
-5.6545627e-63
3.4436208e-63
-2.3355444e-61
2.4639209e-61
-6.9031875e-60
5.1283792e-60
-1.1211743e-58
7.5166712e-59
-4.5397829e-58
4.8705587e-58
-6.9222638e-58
1.1818823e-57
-1.964867e-57
1.9341105e-57
-1.9085112e-55
1.3308908e-55
-2.2930739e-53
1.4629447e-53
-2.4739522e-51
1.4471231e-51
-2.4001222e-49
1.2794502e-49
-2.1111671e-47
1.016706e-47
-1.6967592e-45
7.2986803e-46
-1.2545438e-43
4.7471908e-44
-8.591507e-42
2.8005159e-42
-5.4849561e-40
1.4944625e-40
-3.2759453e-38
7.1488234e-39
-1.8408045e-36
2.9891063e-37
-1.034548e-34
1.0215879e-35
-6.1099111e-33
1.9976263e-34
-3.4290192e-31
-1.0729717e-32
-1.9208386e-29
-1.5957512e-30
-1.1953388e-27
-1.0308979e-28
-2.5742061e-26
-3.2097452e-27
-4.8652125e-26
-2.4543948e-26
-2.7881228e-26
-4.1095247e-26
-8.0915198e-29
-1.7528666e-26
-6.8808971e-30
-5.0775054e-29
-6.4948012e-30
-9.5811572e-30
-1.1155571e-29
-1.2790505e-29
-2.1023147e-29
-3.5661384e-29
-5.4746664e-29
-8.3659112e-29
-2.7273319e-28
-4.0893445e-28
-1.4451655e-27
-2.8185649e-27
-6.4117854e-27
-1.5898326e-26
-2.0793797e-26
-7.2527622e-26
-3.9991108e-26
-2.4868768e-25
-3.6272339e-26
-6.0697383e-25
1.1786251e-26
-1.0900456e-24
1.312918e-25
-2.0169031e-24
2.4764958e-25
-2.0499203e-24
1.7128149e-25
-1.3072416e-24
9.8139593e-26
-6.453016e-25
4.1494012e-26
-2.5788785e-25
1.0469305e-26
-7.1897445e-26
1.6067213e-27
-1.3177104e-26
1.699783e-28
-1.6435317e-27
1.3419029e-29
-1.4755036e-28
6.8690099e-31
-9.6222996e-30
2.6483131e-31
-2.9047092e-31
1.0376093e-30
-5.6783979e-31
4.2437028e-28
-1.9116121e-28
4.4329298e-27
-2.0165675e-27
7.0626847e-27
-3.9581308e-27
3.6967306e-28
-6.2988039e-28
1.9943751e-30
-1.1940122e-29
1.2977911e-32
-4.7757609e-32
2.7419704e-34
3.578118e-34
1.2463285e-35
3.7568551e-35
2.1014633e-37
1.6090105e-36
2.9036121e-39
3.8768769e-38
4.5993079e-41
8.1976648e-40
6.8832543e-43
1.5762683e-41
9.3683753e-45
2.7226363e-43
1.1604091e-46
4.2241283e-45
1.2983594e-48
5.877685e-47
1.300765e-50
7.3000379e-49
1.1717334e-52
8.0553176e-51
1.024073e-54
8.0421835e-53
6.3855743e-56
8.149362e-55
5.4156513e-56
1.0201849e-55
1.228133e-55
2.5390512e-55
1.7074525e-56
9.1965373e-56
2.4272659e-57
1.0503695e-56
1.284208e-57
5.5475603e-57
2.6252301e-58
1.7997637e-57
4.2979887e-59
3.6952935e-58
7.9289397e-60
9.3437884e-59
2.4853619e-61
8.1876613e-60
4.2771565e-63
3.3233505e-61
3.5201074e-65
6.5749817e-63
2.0157896e-67
6.0182289e-65
1.8911281e-69
7.6482319e-67
6.9113881e-72
5.9515843e-69
1.8268241e-74
3.2578084e-71
3.0223447e-77
1.6769182e-73
-2.0742996e-79
9.2240352e-76
-2.9128894e-81
5.1818466e-78
-2.1841168e-83
2.5490234e-80
2.2711402e-82
2.5404719e-82
2.8749704e-80
-1.5248965e-79
2.5622993e-78
-4.8468561e-77
3.6275878e-76
-8.7187416e-75
4.2507007e-74
-1.17772e-72
4.328017e-72
-1.3209202e-70
3.9139678e-70
-1.5012206e-68
3.2395826e-68
-1.6974914e-66
2.4992321e-66
-4.3387629e-65
1.3991529e-64
-2.8097271e-63
3.9213032e-63
-9.1551536e-61
5.5677607e-61
-5.5870512e-59
5.4870096e-59
-1.5171368e-57
1.3175717e-57
-1.830261e-56
1.5958013e-56
-6.8779763e-56
8.6218049e-56
-1.0511409e-55
2.025037e-55
-3.1568738e-55
3.4183846e-55
-3.5150917e-53
2.7003177e-53
-4.5881009e-51
3.2380789e-51
-5.2266222e-49
3.3871483e-49
-5.2538309e-47
3.1041826e-47
-4.7192642e-45
2.5203231e-45
-3.8291393e-43
1.8281631e-43
-2.8296846e-41
1.1901967e-41
-1.9194488e-39
6.9738746e-40
-1.2039626e-37
3.6732751e-38