/*--------------------------------*- C++ -*----------------------------------*\
  =========                 |
  \\      /  F ield         | OpenFOAM: The Open Source CFD Toolbox
   \\    /   O peration     | Website:  https://openfoam.org
    \\  /    A nd           | Version:  9
     \\/     M anipulation  |
\*---------------------------------------------------------------------------*/
FoamFile
{
    format      ascii;
    class       volScalarField;
    location    "0.39";
    object      p_rgh;
}
// * * * * * * * * * * * * * * * * * * * * * * * * * * * * * * * * * * * * * //

dimensions      [1 -1 -2 0 0 0 0];

internalField   nonuniform List<scalar> 
10000
(
0
0.014215906
0.019868161
0.030292109
0.041729939
0.053858314
0.066410631
0.079267024
0.092202761
0.1050381
0.11756498
0.12954412
0.1408458
0.15123203
0.16049976
0.16850943
0.17507541
0.18006033
0.18335776
0.18485572
0.18451125
0.18236147
0.17846587
0.17294381
0.16600706
0.15786931
0.14864026
0.13915408
0.13018748
0.12179723
0.11424936
0.10733866
0.10172932
0.097910585
0.096353945
0.097502088
0.1016235
0.10891834
0.11962417
0.13382802
0.15151654
0.17257528
0.19671238
0.22357606
0.25273291
0.28359801
0.31545055
0.34751025
0.37891636
0.40880874
0.4363711
0.4608601
0.48164623
0.49798671
0.50903731
0.51387102
0.51168325
0.50185728
0.48392577
0.45755153
0.42252918
0.37879145
0.32641465
0.26559602
0.19658537
0.11939301
0.036615934
-0.04971636
-0.14077224
-0.23708487
-0.33780991
-0.44256573
-0.5510618
-0.66238312
-0.77586768
-0.89082252
-1.0066326
-1.1226485
-1.2382678
-1.3529292
-1.4660691
-1.5771491
-1.6856526
-1.7910797
-1.8929791
-1.9909623
-2.0846319
-2.1736373
-2.2576852
-2.3365001
-2.4098897
-2.4776614
-2.5396437
-2.5957642
-2.64597
-2.6902229
-2.7286012
-2.7607372
-2.783352
-2.8212484
-0.012783353
0.0020689604
0.0082327614
0.019004989
0.03075198
0.04306038
0.055839204
0.068863495
0.081975238
0.095024034
0.10776136
0.12007332
0.13173382
0.14250946
0.15224908
0.16075477
0.16787334
0.17348152
0.17741293
0.17956726
0.17995669
0.17854353
0.17537034
0.17060118
0.16441554
0.1570019
0.14866527
0.13994798
0.13130437
0.1232387
0.1155178
0.10866224
0.10313753
0.099445782
0.098023912
0.099316915
0.10364273
0.11125608
0.12235896
0.13707763
0.15544241
0.17733761
0.20249595
0.23053136
0.26097093
0.29323894
0.32665714
0.36043262
0.3936569
0.42535089
0.45464474
0.48077959
0.50290385
0.52019039
0.53178338
0.536902
0.53479095
0.52482812
0.50658965
0.47974624
0.44412053
0.39968731
0.34647865
0.28478278
0.21497441
0.13774371
0.054776036
-0.034980401
-0.12995381
-0.22933905
-0.33297143
-0.44040347
-0.55117688
-0.66461671
-0.78009309
-0.89694776
-1.0145017
-1.1321306
-1.2492583
-1.3652799
-1.479634
-1.5917751
-1.701197
-1.8074234
-1.9100107
-2.0085252
-2.1025994
-2.1919251
-2.2762133
-2.3552064
-2.4286873
-2.4964942
-2.5585052
-2.6145999
-2.6647474
-2.7089206
-2.7471757
-2.7791875
-2.8020812
-2.8378842
-0.01836007
-0.0019881483
0.0050583547
0.016589688
0.028821834
0.041576552
0.05472562
0.0681241
0.081655596
0.095062738
0.10822119
0.12095125
0.13302099
0.14427034
0.15449068
0.16348602
0.17109317
0.17711142
0.18138903
0.18387357
0.18448031
0.18317948
0.18004117
0.17519
0.16874254
0.16090598
0.15202176
0.14249561
0.13269128
0.1228512
0.11353702
0.10513829
0.098144784
0.09301869
0.090257882
0.09028773
0.093478215
0.10014342
0.11054417
0.12479246
0.14286033
0.16466766
0.19004208
0.21860645
0.24986485
0.28325448
0.31807712
0.35351718
0.38871818
0.42269718
0.45448551
0.48317787
0.50789
0.52770835
0.5416626
0.54886385
0.54860599
0.54028354
0.52337577
0.49750931
0.46253774
0.41842265
0.36530369
0.30347522
0.23342585
0.15581407
0.071638843
-0.018637744
-0.114936
-0.21628916
-0.3220897
-0.43172974
-0.54458648
-0.66003938
-0.77741426
-0.89608646
-1.0154081
-1.1347291
-1.2534463
-1.3709664
-1.4867152
-1.6001598
-1.710755
-1.8180394
-1.9215203
-2.0208136
-2.1155557
-2.205433
-2.2901584
-2.3694597
-2.4431363
-2.5110369
-2.5730554
-2.6290908
-2.6791056
-2.7230846
-2.7611317
-2.792791
-2.8157201
-2.8492038
-0.0298277
-0.010685866
-0.0023463584
0.0099676375
0.022863927
0.036157686
0.049825825
0.063769053
0.077794032
0.091770849
0.10554787
0.11890364
0.13167067
0.143615
0.15452936
0.16424507
0.17253531
0.17917508
0.18402997
0.18699509
0.18795326
0.18688708
0.18383891
0.17886222
0.17206895
0.16370734
0.15409647
0.14356659
0.13247242
0.1212963
0.110591
0.10069287
0.09214786
0.085512254
0.081275493
0.079948362
0.082020575
0.087847052
0.097693779
0.11174366
0.1300138
0.15241478
0.17876793
0.20871241
0.24174436
0.27727962
0.31462036
0.35292122
0.39121417
0.42849776
0.4637611
0.49599476
0.52414348
0.54716313
0.56403089
0.57380576
0.57570771
0.56911481
0.5534748
0.5283866
0.49373
0.44947167
0.39578928
0.33298907
0.26161004
0.18225825
0.095679878
0.0023494587
-0.096503094
-0.20058776
-0.30925897
-0.42180704
-0.53756255
-0.65581501
-0.77592981
-0.89725859
-1.0191177
-1.140864
-1.2618733
-1.3815387
-1.4993037
-1.6146213
-1.7269223
-1.8357067
-1.9405431
-2.0410321
-2.1367828
-2.2275156
-2.3129338
-2.3927701
-2.4668494
-2.5350194
-2.5971745
-2.6532499
-2.7032074
-2.7470139
-2.7848026
-2.8160612
-2.8390644
-2.870354
-0.04094599
-0.019818822
-0.010670373
0.0023648367
0.015896488
0.029797189
0.044096019
0.058630396
0.073304028
0.088013407
0.10256065
0.1167671
0.13040975
0.14326658
0.15514325
0.16578786
0.17493217
0.18238318
0.18797858
0.19153847
0.19295182
0.1921847
0.18919969
0.18400659
0.17675693
0.16770132
0.15712405
0.14532817
0.13271325
0.11978845
0.10699292
0.094922953
0.084197992
0.075407364
0.069089269
0.065867585
0.066339886
0.070920551
0.079908627
0.093550281
0.11196257
0.13506656
0.16263282
0.19431607
0.22964039
0.26798887
0.30861041
0.35061423
0.39295109
0.43456041
0.474351
0.51117779
0.5438285
0.57109773
0.59187471
0.60514773
0.61003661
0.60583563
0.59196589
0.56799906
0.53382611
0.48944922
0.43500564
0.37087303
0.29763062
0.21594269
0.12658253
0.030220742
-0.072277924
-0.18009029
-0.29250451
-0.40878075
-0.528206
-0.65007376
-0.77369735
-0.8983928
-1.0234969
-1.1483539
-1.2723156
-1.3947715
-1.5151359
-1.6328258
-1.7473047
-1.8580749
-1.964666
-2.0666875
-2.1637835
-2.2556262
-2.3419265
-2.4224612
-2.4970483
-2.5655614
-2.6279294
-2.6840654
-2.7339214
-2.7775267
-2.8150568
-2.8458567
-2.8688201
-2.8980456
-0.048540789
-0.02828236
-0.019050827
-0.0056027968
0.0084870805
0.023027135
0.037943106
0.053192636
0.068684792
0.084262447
0.099774615
0.11501349
0.12974163
0.14376415
0.15681833
0.16859536
0.17883175
0.187306
0.19378551
0.19807734
0.20005918
0.1996051
0.19661479
0.19111392
0.18325547
0.17324363
0.16131585
0.14779456
0.13311123
0.11778971
0.10240428
0.087553495
0.073964821
0.062308384
0.053245965
0.047541348
0.045865873
0.048739164
0.05656862
0.069658918
0.088175595
0.11206527
0.14110052
0.174951
0.21314074
0.2549995
0.29971367
0.34635457
0.39382159
0.44091956
0.48641964
0.52901726
0.56733626
0.60000591
0.62578383
0.64354192
0.65225302
0.6510999
0.6394699
0.61693759
0.58333342
0.53871582
0.48319681
0.41726025
0.34155679
0.25682917
0.16390083
0.063665137
-0.043017127
-0.15522075
-0.27206666
-0.39279226
-0.51661952
-0.64279488
-0.77061363
-0.89938292
-1.028431
-1.1570672
-1.2846172
-1.4104404
-1.5339435
-1.654537
-1.7716859
-1.8848759
-1.993625
-2.0975247
-2.1962229
-2.2894082
-2.3767881
-2.4581573
-2.5333661
-2.6022985
-2.6648748
-2.7210467
-2.7708191
-2.8141862
-2.851381
-2.8816101
-2.9045591
-2.9317821
-0.057265776
-0.037249589
-0.028032414
-0.014208368
0.00043769499
0.015556932
0.031178927
0.047259925
0.063676504
0.080302595
0.096959254
0.1134223
0.12948974
0.14490674
0.15934909
0.17250676
0.18409496
0.19380388
0.20136474
0.20657165
0.20921916
0.20910158
0.2061012
0.20023736
0.19161035
0.18034965
0.1667058
0.15103544
0.13378827
0.11550618
0.096864649
0.078550128
0.061338989
0.046026171
0.033481475
0.024580656
0.02009619
0.020724143
0.027015139
0.039334291
0.057881209
0.082651754
0.11343691
0.14988461
0.19148637
0.23756135
0.28725546
0.3395556
0.39329041
0.44712312
0.49964728
0.54936503
0.59470234
0.63409962
0.66611428
0.6894329
0.70288031
0.70551289
0.69666421
0.67591583
0.64296866
0.59792653
0.54101103
0.47275483
0.39391565
0.30535674
0.20804001
0.10300973
-0.0086926395
-0.12608075
-0.2482152
-0.37419033
-0.50318037
-0.63441943
-0.76715413
-0.90070668
-1.0343767
-1.1674343
-1.2991856
-1.4289943
-1.5562215
-1.6802648
-1.8005786
-1.9166241
-2.0279112
-2.1340211
-2.2345858
-2.3293195
-2.4179659
-2.5003023
-2.5762058
-2.6455997
-2.7084108
-2.7646353
-2.8142775
-2.8573679
-2.8941499
-2.9236367
-2.9467504
-2.9719172
-0.067473725
-0.047305653
-0.037938205
-0.023632125
-0.0084753941
0.0072909262
0.023701034
0.040681277
0.058161159
0.07598458
0.093950115
0.11187455
0.12951714
0.14655534
0.16265867
0.17749806
0.19070147
0.20190686
0.21081923
0.2171543
0.22060979
0.22093335
0.21799218
0.21173397
0.20216269
0.18939783
0.17369241
0.15542192
0.13505609
0.11317118
0.090499364
0.067895832
0.046193224
0.026319811
0.0093766662
-0.0036015313
-0.011667373
-0.013916242
-0.0096220959
0.001672034
0.020189361
0.045947283
0.078748812
0.11821094
0.16381377
0.21486224
0.2704588
0.32951999
0.39075979
0.45273401
0.51378346
0.57217947
0.62609791
0.67374275
0.71339317
0.74348977
0.76271313
0.76998536
0.76448716
0.74578185
0.7135715
0.66789966
0.60917893
0.53796707
0.45519212
0.36188777
0.25924295
0.1484822
0.030762333
-0.092771363
-0.22104286
-0.3530863
-0.48806397
-0.62515293
-0.76358242
-0.90263993
-1.0416044
-1.1797573
-1.3163901
-1.4508247
-1.5823783
-1.710427
-1.8343885
-1.9537093
-2.0679133
-2.1765583
-2.2792681
-2.3757638
-2.4658033
-2.5492017
-2.625852
-2.6957288
-2.7587756
-2.8150114
-2.8644668
-2.9072181
-2.9435451
-2.9722839
-2.9953417
-3.0186493
-0.078987336
-0.058544666
-0.048801427
-0.034014496
-0.018282357
-0.0018325562
0.015392998
0.033375238
0.052023034
0.07117164
0.090653278
0.11026341
0.12970467
0.14864762
0.1667454
0.1835805
0.19871674
0.21176639
0.22234658
0.23005598
0.23453385
0.23548649
0.23269155
0.22598565
0.21531863
0.20079835
0.18266606
0.16127926
0.13715376
0.1109243
0.083401095
0.055548594
0.028331885
0.0028523267
-0.019616785
-0.037780077
-0.050376624
-0.056240855
-0.054443698
-0.044425792
-0.025987721
0.00084451013
0.035903873
0.078837589
0.12907601
0.18589461
0.24838205
0.31539341
0.38552538
0.45723869
0.52851355
0.59738417
0.66170566
0.71934008
0.76824934
0.80658841
0.83279102
0.84561847
0.84410089
0.82767426
0.79618968
0.74964329
0.6885304
0.61363137
0.52597165
0.42681222
0.31765224
0.19997116
0.075139506
-0.055542135
-0.19087446
-0.32984344
-0.47160242
-0.61530661
-0.7601755
-0.90546449
-1.0504561
-1.1944124
-1.3365892
-1.4762813
-1.6127636
-1.7453682
-1.8734909
-1.9965626
-2.1140655
-2.2255391
-2.3306393
-2.4290799
-2.5206232
-2.6051593
-2.6825947
-2.7529276
-2.8161711
-2.8723462
-2.921551
-2.9638577
-2.9996508
-3.0276567
-3.0504284
-3.0719429
-0.091864081
-0.070680484
-0.060509145
-0.045295167
-0.029062635
-0.011971525
0.0061105974
0.025151253
0.045046724
0.065680765
0.086879695
0.10838254
0.12989732
0.15108842
0.17152508
0.19072012
0.20819693
0.22349604
0.23611146
0.2455439
0.25136085
0.25317367
0.25061918
0.2434422
0.23155885
0.21503544
0.19406618
0.16900694
0.14042094
0.10903768
0.075727027
0.04151371
0.0075504135
-0.02484648
-0.054214759
-0.078904509
-0.097197575
-0.10755727
-0.10882949
-0.1003808
-0.082071184
-0.054007233
-0.016359222
0.030520727
0.086017387
0.14941891
0.21985308
0.29611666
0.37668175
0.45995575
0.54337919
0.62480586
0.70166384
0.77137354
0.8314846
0.87978282
0.91435449
0.93371985
0.93685962
0.92306961
0.89218717
0.84440445
0.78015434
0.70050082
0.60673204
0.50038633
0.38329053
0.25731574
0.12415224
-0.014755498
-0.15812374
-0.30492053
-0.4542472
-0.6052849
-0.75730517
-0.9095546
-1.0612891
-1.2117544
-1.3601754
-1.5057789
-1.6478144
-1.7855713
-1.9183954
-2.0456763
-2.1668561
-2.2814609
-2.3891702
-2.4897032
-2.5828606
-2.6685649
-2.7467812
-2.8175274
-2.880863
-2.9368864
-2.9857552
-3.0276199
-3.0629804
-3.0893645
-3.1119184
-3.1318418
-0.10677585
-0.082546165
-0.072588113
-0.057537247
-0.040986748
-0.023302133
-0.0043757891
0.015742445
0.036996511
0.059270211
0.082359114
0.10600918
0.12992787
0.15371532
0.17687012
0.19887523
0.21918508
0.23719886
0.25230247
0.26391231
0.27146416
0.27441074
0.27226065
0.26467204
0.25148405
0.23268193
0.20842841
0.17910109
0.14530392
0.10783304
0.067593531
0.025727562
-0.016403725
-0.057311768
-0.095256045
-0.12812037
-0.15357984
-0.16952374
-0.17451864
-0.16793079
-0.14971694
-0.12013062
-0.079486585
-0.028198656
0.033189596
0.10402369
0.18346941
0.27030293
0.36290745
0.45997179
0.55772756
0.65415139
0.74609575
0.8304115
0.90406887
0.96434325
1.008958
1.0360756
1.0445238
1.0336501
1.0032321
0.95355449
0.88525279
0.7995121
0.69797971
0.58270504
0.45599316
0.32019634
0.17733092
0.029035034
-0.12337129
-0.27883794
-0.43649998
-0.59559976
-0.75544844
-0.91533692
-1.0745276
-1.2322123
-1.3875933
-1.5398451
-1.6881211
-1.8316367
-1.9697027
-2.1016447
-2.2268613
-2.3449043
-2.4554421
-2.5581913
-2.6530075
-2.7398602
-2.8187776
-2.8898099
-2.9530839
-3.0088005
-3.0571426
-3.0983867
-3.1327775
-3.1582913
-3.1801545
-3.1983632
-0.11989758
-0.096953993
-0.085961639
-0.071157695
-0.054326464
-0.036107564
-0.016373757
0.0048734403
0.02758646
0.051621441
0.076804564
0.10289894
0.12954964
0.15630344
0.18264299
0.2079866
0.23166995
0.25296111
0.27113486
0.28546895
0.29521452
0.29965788
0.29818836
0.29033163
0.27577564
0.25442222
0.22642131
0.1921698
0.15227636
0.10755899
0.059076843
0.0081554722
-0.043774879
-0.095113632
-0.1437727
-0.18697566
-0.22145855
-0.24427892
-0.25364432
-0.24901354
-0.23065228
-0.19917592
-0.15513772
-0.09894955
-0.031020032
0.048072843
0.13758291
0.23638225
0.34282136
0.4556197
0.57051565
0.68495866
0.79510064
0.89709393
0.98719148
1.0619439
1.1185637
1.15486
1.1693935
1.1615036
1.1312131
1.0788597
1.0051938
0.91156652
0.80015265
0.67367589
0.53523666
0.38779616
0.23372746
0.074831756
-0.087530542
-0.25240278
-0.41904362
-0.58682279
-0.75513223
-0.92332323
-1.0906658
-1.2563273
-1.4194237
-1.5790543
-1.7342778
-1.8842102
-2.0280722
-2.1651494
-2.2948104
-2.4165718
-2.5300784
-2.6351339
-2.7316263
-2.8195409
-2.8990044
-2.9701035
-3.0331014
-3.0882436
-3.1358325
-3.1761847
-3.2095121
-3.2341622
-3.2551493
-3.2715295
-0.13315518
-0.11266742
-0.10101709
-0.086472339
-0.069382606
-0.050714197
-0.030187371
-0.0077831948
0.016446261
0.042388734
0.069900305
0.09871046
0.12842729
0.15859519
0.18865776
0.21792409
0.24560709
0.27086062
0.29280622
0.31051785
0.32304181
0.32949526
0.32909541
0.32116391
0.30521612
0.28106803
0.24882319
0.2088553
0.16179766
0.1085469
0.050309422
-0.011307257
-0.074905324
-0.13892419
-0.20101961
-0.25744495
-0.30341412
-0.33464616
-0.34880474
-0.34579359
-0.32674573
-0.29288128
-0.24497472
-0.1833838
-0.10837974
-0.020341538
0.080199624
0.19236079
0.31461083
0.44501934
0.58031024
0.71641073
0.84863993
0.97217321
1.0823066
1.1747354
1.2458435
1.2929178
1.3142931
1.309398
1.2785297
1.2223412
1.1415606
1.037605
0.91337627
0.77279947
0.6199996
0.45873981
0.29184784
0.12123156
-0.051851873
-0.22665925
-0.40270661
-0.57961642
-0.75692136
-0.9340441
-1.1102483
-1.2846532
-1.4562652
-1.6240558
-1.7869698
-1.9440316
-2.0943289
-2.2370442
-2.3715061
-2.4972304
-2.6138645
-2.7212526
-2.8193275
-2.9081524
-2.9879064
-3.0588033
-3.1212409
-3.1754151
-3.221956
-3.2611495
-3.293171
-3.3168554
-3.336789
-3.3513134
-0.14794086
-0.13030079
-0.11762392
-0.10355326
-0.086457687
-0.067441566
-0.046170426
-0.022635088
0.0031762695
0.031174416
0.061201422
0.09299039
0.12616609
0.16025773
0.1946232
0.22847312
0.26091683
0.29095538
0.31748995
0.33937169
0.35545226
0.36460664
0.36578052
0.35804983
0.34075577
0.31358042
0.2765112
0.22986975
0.17437363
0.11110864
0.041404364
-0.032847497
-0.11030616
-0.1895576
-0.26844136
-0.34206129
-0.40299299
-0.44438371
-0.46319513
-0.46077308
-0.44002306
-0.40298742
-0.35062698
-0.28317396
-0.2006922
-0.10324679
0.0089549051
0.13548574
0.2751608
0.42603108
0.5853457
0.74729994
0.90632815
1.0563469
1.1912837
1.3055204
1.3942684
1.454051
1.48294
1.4806923
1.4481844
1.3865946
1.2962216
1.1784564
1.0373895
0.8787087
0.70817318
0.53072567
0.34945093
0.16622533
-0.01799865
-0.20291654
-0.38848633
-0.57472603
-0.7613974
-0.94799275
-1.1337445
-1.3176971
-1.4987076
-1.6755589
-1.8470384
-2.0120208
-2.1694037
-2.3182879
-2.4579624
-2.5878769
-2.7077121
-2.8173682
-2.9168567
-3.0063343
-3.0860275
-3.156334
-3.2177079
-3.2706439
-3.3156993
-3.3533608
-3.3838003
-3.406238
-3.4249376
-3.4375233
-0.16461553
-0.14932278
-0.13624969
-0.12326366
-0.10609493
-0.086706851
-0.064751754
-0.040108218
-0.012687055
0.017447028
0.050138423
0.085199277
0.12227324
0.16081204
0.20011667
0.23933387
0.27743519
0.31320955
0.34532174
0.37239002
0.39301067
0.4057343
0.40915482
0.40205776
0.38355145
0.35309141
0.31049759
0.25606095
0.19063533
0.11551562
0.032242622
-0.057166933
-0.15084966
-0.2480099
-0.34796675
-0.44460837
-0.52541138
-0.57887837
-0.60104959
-0.59677112
-0.57245712
-0.53112089
-0.47366474
-0.39987357
-0.30956428
-0.20255682
-0.078676382
0.062481363
0.22071719
0.39465785
0.58267221
0.77556112
0.96734605
1.1502595
1.3163248
1.4579511
1.5685156
1.6434228
1.680394
1.6798056
1.6437273
1.5744709
1.4710192
1.3344111
1.1708706
0.98863369
0.79565155
0.59984902
0.4030417
0.2069541
0.011863639
-0.18271709
-0.37747474
-0.57292058
-0.76909273
-0.96558407
-1.1615885
-1.3559661
-1.547389
-1.7343795
-1.9154472
-2.0892284
-2.2544382
-2.4100594
-2.5552992
-2.6896192
-2.8126808
-2.9244632
-3.0251068
-3.11482
-3.1938629
-3.2630622
-3.3229451
-3.3740967
-3.4171901
-3.4528299
-3.4813053
-3.5021357
-3.5193577
-3.530026
-0.18348684
-0.17051022
-0.15773182
-0.14523377
-0.12832433
-0.10884983
-0.086357664
-0.060683578
-0.031727931
0.00054498017
0.036063779
0.074687866
0.11606728
0.15961005
0.20458415
0.25006586
0.29484617
0.33747611
0.37639331
0.40993706
0.43633065
0.45371649
0.46030079
0.45448664
0.43500572
0.40098412
0.35204329
0.28844746
0.21117938
0.12174711
0.02200993
-0.085697728
-0.19832086
-0.31626552
-0.44241448
-0.57027492
-0.67781536
-0.74573011
-0.76734911
-0.75598571
-0.72526004
-0.67844098
-0.61549577
-0.53483062
-0.43624872
-0.31986123
-0.18521112
-0.030496305
0.14636065
0.34495226
0.56736301
0.79754255
1.0298686
1.2542134
1.4600698
1.6368492
1.7751294
1.8683468
1.9137148
1.9127028
1.8698328
1.7896802
1.6671189
1.5034549
1.3098019
1.0976065
0.87726514
0.66046573
0.447636
0.23956932
0.035026405
-0.16785249
-0.37074251
-0.5747694
-0.78034751
-0.98712471
-1.1941592
-1.4000527
-1.6031109
-1.8014668
-1.9932942
-2.1769081
-2.3507796
-2.5137396
-2.6649211
-2.8037808
-2.9300146
-3.0436227
-3.1449271
-3.2342362
-3.3121919
-3.3796229
-3.4373099
-3.4859712
-3.5264608
-3.559476
-3.5854844
-3.6043212
-3.6196874
-3.6284425
-0.2048568
-0.19413916
-0.18198475
-0.1699713
-0.15362134
-0.13417405
-0.11138986
-0.084959682
-0.054640655
-0.02026624
0.018196004
0.060614122
0.10667079
0.15581478
0.20727379
0.26000762
0.31263725
0.3635009
0.41074473
0.45234226
0.48605939
0.50954927
0.52053654
0.51690394
0.49682773
0.45899494
0.40273765
0.32814516
0.23622076
0.12886189
0.0083995795
-0.12217807
-0.25769997
-0.39776075
-0.5526686
-0.72771633
-0.87442849
-0.95692388
-0.96522179
-0.93826178
-0.89851918
-0.8460144
-0.77794223
-0.68917384
-0.58110079
-0.45603434
-0.31335949
-0.14872669
0.044846959
0.27076189
0.52895718
0.80677126
1.0901601
1.367588
1.6256441
1.8489303
2.0234118
2.1392443
2.1926322
2.1868308
2.1319745
2.0395941
1.8873451
1.6828039
1.4458607
1.1942935
0.94358869
0.70271488
0.47545032
0.25864418
0.048048606
-0.1602136
-0.36913009
-0.58056827
-0.79521719
-1.0127067
-1.2317675
-1.4504928
-1.6666578
-1.8778886
-2.0818992
-2.276547
-2.4600586
-2.6310432
-2.7885196
-2.9320104
-3.0612056
-3.1760814
-3.2773844
-3.3656589
-3.441714
-3.5065465
-3.5611304
-3.6064297
-3.643469
-3.6731503
-3.6960551
-3.7123746
-3.7254885
-3.7324048
-0.22888326
-0.22028975
-0.2090822
-0.19776988
-0.18220472
-0.16316311
-0.14044848
-0.11362443
-0.082166315
-0.045813496
-0.0044489083
0.041905441
0.093001212
0.14835029
0.20715258
0.26824343
0.33010363
0.39086264
0.44827092
0.49985945
0.5428746
0.57439086
0.59144756
0.59121173
0.57116859
0.52939102
0.46470097
0.37682687
0.26676908
0.13671972
-0.010703125
-0.17295049
-0.3386045
-0.50149316
-0.68747347
-0.94042644
-1.1415233
-1.2302708
-1.1953962
-1.142835
-1.0915148
-1.0343757
-0.96340223
-0.86336285
-0.74220766
-0.60956674
-0.46472642
-0.29895997
-0.096276481
0.15513929
0.45758143
0.79378411
1.1401308
1.4864698
1.815316
2.1026097
2.3261831
2.4710332
2.5314076
2.5103962
2.4312249
2.3256243
2.1255072
1.8606133
1.5646194
1.2564014
0.96885069
0.71070461
0.47672078
0.2581456
0.047548555
-0.16126521
-0.37290459
-0.58999141
-0.81325916
-1.0419978
-1.274331
-1.5076174
-1.7388572
-1.9649154
-2.1828488
-2.3900326
-2.5843276
-2.7640818
-2.9280443
-3.0761004
-3.2077544
-3.3234841
-3.424011
-3.5102521
-3.5832997
-3.6443927
-3.6947327
-3.7356152
-3.7681985
-3.7936187
-3.812705
-3.8258561
-3.8362584
-3.8411692
-0.25557357
-0.24898613
-0.23906428
-0.22877954
-0.21439831
-0.1962949
-0.17414368
-0.14727127
-0.11509121
-0.077136298
-0.033091732
0.017249132
0.073680904
0.13583529
0.20287782
0.27357205
0.34628861
0.41887355
0.48865319
0.5526346
0.60746627
0.64950244
0.67486211
0.67976525
0.66082502
0.61519535
0.54077719
0.43650327
0.30285831
0.14190808
-0.042855591
-0.24713937
-0.46385028
-0.66223881
-0.87389204
-1.2247408
-1.4435243
-1.5943644
-1.4628487
-1.368309
-1.3025225
-1.2463511
-1.1818319
-1.0615239
-0.9131753
-0.77243573
-0.63626113
-0.48866417
-0.2953924
-0.024816839
0.3314626
0.74378646
1.1654066
1.6020065
2.0300565
2.4084185
2.7006698
2.8845786
2.9523537
2.8957484
2.7724857
2.6238003
2.4387763
2.0260152
1.6001549
1.2412022
0.9220475
0.65968888
0.43579967
0.23010102
0.030408415
-0.17148982
-0.3812109
-0.60166073
-0.8331177
-1.0740232
-1.3214815
-1.5717462
-1.8206981
-2.0641128
-2.2982034
-2.5197442
-2.7261588
-2.9156046
-3.0857843
-3.2382463
-3.3719716
-3.4876529
-3.5862909
-3.6691917
-3.7378396
-3.7937472
-3.8384764
-3.8735748
-3.9005248
-3.920632
-3.9349133
-3.9441184
-3.9512937
-3.9538029
-0.28480729
-0.28006465
-0.27183909
-0.26310372
-0.25051869
-0.23400928
-0.21305082
-0.1868079
-0.15446642
-0.11538819
-0.069030057
-0.014946496
0.047044116
0.11648941
0.1927202
0.27442886
0.35980894
0.44644058
0.53127129
0.6106634
0.68049757
0.73621607
0.77288976
0.78554199
0.76953415
0.72068874
0.63554258
0.5117533
0.34912856
0.14788778
-0.096417739
-0.38583415
-0.69175106
-0.80732032
0.19531138
1.553289
0.22712668
-1.6937514
-1.7550001
-1.6030931
-1.5313736
-1.496891
-1.4690428
-1.2974266
-1.0744491
-0.92545963
-0.82262979
-0.73427357
-0.58922413
-0.31259956
0.11773902
0.62904113
1.1409444
1.699675
2.273523
2.7830526
3.1704701
3.4067043
3.4824351
3.3441253
3.1725371
3.332742
3.2681803
2.7659059
1.7825838
1.0401242
0.72502536
0.52045101
0.34336361
0.17208797
-0.0029681166
-0.18860153
-0.39086794
-0.61237242
-0.85213634
-1.1070388
-1.3725542
-1.6432699
-1.9134382
-2.1774897
-2.4305941
-2.6686525
-2.8885843
-3.0877657
-3.2654921
-3.421633
-3.5563809
-3.6706789
-3.7658985
-3.8437829
-3.9062434
-3.9551908
-3.9926038
-4.0203631
-4.0401855
-4.05371
-4.0620796
-4.0663833
-4.0695877
-4.0691744
-0.3159908
-0.31334342
-0.30731236
-0.30084046
-0.29079125
-0.27669759
-0.25781174
-0.23310069
-0.2015331
-0.1621304
-0.1139601
-0.056359341
0.011018815
0.08804863
0.17443119
0.26864885
0.36871305
0.47198908
0.57507318
0.67358162
0.76245953
0.83600336
0.88806526
0.91223821
0.90215793
0.85177834
0.75557722
0.60896586
0.40942767
0.14894926
-0.19389702
-0.61226103
-1.0492469
0.33121386
1.8005005
1.1491839
1.0976429
0.086802116
-1.9636401
-1.7867159
-1.746423
-1.7466183
-1.878359
-1.5969151
-1.1801175
-1.0392343
-1.0331657
-1.0793083
-1.0561883
-0.81267867
-0.25425139
0.36611328
0.97281887
1.7129416
2.5304793
3.2445725
3.7626387
4.0652904
4.1390445
3.783554
3.4826224
3.5081083
3.1391943
2.7387229
2.2099344
1.1485655
0.33287857
0.23835566
0.17736978
0.081917677
-0.048292273
-0.20626809
-0.39541262
-0.61657266
-0.86610722
-1.1383903
-1.4264704
-1.7225515
-2.0187205
-2.3077408
-2.5834651
-2.8406074
-3.0753248
-3.285606
-3.4703012
-3.6294796
-3.7638984
-3.87502
-3.9647764
-4.0354416
-4.0894776
-4.1293481
-4.1573871
-4.1758721
-4.1868861
-4.1922733
-4.1934037
-4.1916673
-4.1898359
-4.1854948
-0.34847006
-0.34849511
-0.34532329
-0.34195277
-0.335363
-0.32474747
-0.30913052
-0.28723457
-0.25764421
-0.21898666
-0.16998225
-0.10956719
-0.037008571
0.047984016
0.14511377
0.25333455
0.37028866
0.49316734
0.61832835
0.74047918
0.85345141
0.95027353
1.0233295
1.0644174
1.0650078
1.0166985
0.91116282
0.74041743
0.49952461
0.17351558
-0.27956549
-0.82806092
-1.3324214
0.54867521
1.0996796
0.18605794
-0.21836424
-2.2134412
-1.9587432
-1.9073803
-1.8999635
-1.8875454
-2.3743081
-1.9628311
-1.2833171
-1.100868
-1.2680033
-1.577942
-1.8116263
-1.7760898
-0.99023642
-0.22728611
0.47988639
1.5072088
2.7569189
3.7992469
4.4996434
4.8857185
4.911741
4.3150133
3.9721051
3.5723066
2.4515617
1.527608
1.1540338
0.61871563
-0.22640025
-0.14326512
-0.035030209
-0.021957296
-0.089946824
-0.21099765
-0.383772
-0.60559592
-0.86877715
-1.1642632
-1.4817097
-1.8101468
-2.1389437
-2.4585415
-2.7614464
-3.0404764
-3.2920113
-3.5137785
-3.7049292
-3.8658584
-3.9979966
-4.1035318
-4.1851308
-4.2458138
-4.2886728
-4.3167394
-4.3329534
-4.3399215
-4.340104
-4.3355678
-4.3279626
-4.3188778
-4.3107167
-4.300667
-0.38155241
-0.38495589
-0.38551723
-0.38626662
-0.38433051
-0.37856693
-0.36776157
-0.35027247
-0.32427107
-0.2879345
-0.23949656
-0.17739072
-0.10034511
-0.0075472612
0.10112846
0.22489609
0.36085303
0.50652718
0.65840776
0.80969122
0.9530552
1.0801643
1.1816753
1.2473014
1.2659609
1.2263453
1.1167077
0.92501371
0.64258988
0.24806434
-0.29774285
-0.90497011
-1.4797035
-2.1231338
-2.2829419
-1.5829967
-3.7643777
-3.4624047
-2.9044167
-3.3359745
-2.1413671
-1.5807438
-0.88714776
-2.724336
-1.4568759
-0.78379181
-1.3409439
-2.2926737
-3.0034253
-3.521478
-2.5042546
-1.2253001
-0.39222168
1.0637855
3.0850957
4.5422711
5.4201487
5.9489804
6.0809854
5.3671478
4.7976736
4.2734079
2.2653533
0.8220633
-0.53664466
-1.170598
-0.94369673
-0.58560838
-0.25763297
-0.11588438
-0.10517175
-0.1825623
-0.33975703
-0.56719529
-0.85177528
-1.1799168
-1.5367127
-1.9073246
-2.2778477
-2.6347906
-2.9710869
-3.275062
-3.5450522
-3.7785319
-3.9750572
-4.1356998
-4.2628028
-4.3595203
-4.4294572
-4.4765727
-4.5047747
-4.5178197
-4.5192068
-4.5120526
-4.4991076
-4.4827073
-4.4646462
-4.4468802
-4.4312713
-4.4141929
-0.41357712
-0.42193369
-0.42740416
-0.43350915
-0.43771248
-0.43849945
-0.43436553
-0.42329626
-0.40300724
-0.37113472
-0.32529913
-0.26327303
-0.18303772
-0.083116007
0.037229877
0.17771174
0.33701333
0.50676309
0.69135439
0.87838903
1.0599571
1.2262009
1.3658539
1.4663993
1.5140044
1.4938957
1.3903707
1.1867353
0.86912706
0.41504011
-0.20582233
-0.89757086
-1.5433689
-2.2973788
-3.2725863
-4.0660515
-4.4278925
-5.8511369
-6.3380954
-4.833138
-2.2034201
-2.8860471
-4.3479486
-5.3346792
-2.1628682
0.45956474
-0.66973313
-2.6552576
-5.0744592
-5.5788565
-4.3732428
-2.713688
-1.9716078
0.2241622
3.8124848
5.7849133
6.5399243
7.0884372
7.6042006
7.29166
6.5178283
5.4842472
1.9954204
0.018175615
-1.6369893
-2.298929
-1.8723935
-1.0763722
-0.46670539
-0.16088422
-0.058387456
-0.092334272
-0.24122578
-0.48541174
-0.8048769
-1.1800561
-1.5903289
-2.0164955
-2.4416994
-2.8461146
-3.2189867
-3.5526983
-3.8429162
-4.0877923
-4.2877272
-4.444982
-4.5631617
-4.6466488
-4.7003701
-4.7294157
-4.738728
-4.7328733
-4.7159471
-4.6915778
-4.6628702
-4.6324895
-4.6020337
-4.5745827
-4.5506366
-4.525928
-0.44465583
-0.45904806
-0.4704699
-0.48337673
-0.49538622
-0.50469658
-0.50948835
-0.5073572
-0.49551543
-0.47096558
-0.43060009
-0.37125724
-0.28997231
-0.18437924
-0.052861869
0.10491587
0.28760681
0.49120309
0.712254
0.94225419
1.1713823
1.3876153
1.5777089
1.7268685
1.818408
1.8337605
1.7525807
1.5522606
1.2109144
0.70166452
-0.010836465
-0.86358926
-1.7036887
-2.57281
-3.4770884
-4.3544597
-5.6543063
-7.6162441
-5.1012284
-4.8465422
-3.1263919
-4.7263368
-7.9621291
-10.321166
-3.2093498
5.1418032
1.3181762
-3.9281662
-5.8354389
-6.7142608
-4.9660836
-4.9222933
-5.8353375
-1.9911567
5.7838629
8.5048497
7.6781156
8.2660213
9.974278
10.749548
8.8611623
5.5231802
1.6453067
-0.69281349
-2.2391667
-2.6357318
-2.0711523
-1.1679083
-0.45166132
-0.049674815
0.1148216
0.10205316
-0.059208111
-0.34102787
-0.71664619
-1.1596924
-1.6427868
-2.140977
-2.6405592
-3.1013266
-3.5187116
-3.8854421
-4.1967624
-4.4515948
-4.6517021
-4.8009997
-4.904743
-4.9691305
-5.0007756
-5.0061221
-4.9912927
-4.9617712
-4.922426
-4.8773467
-4.8301182
-4.7839407
-4.740491
-4.7005949
-4.6670364
-4.6339188
-0.4743072
-0.49558881
-0.51404652
-0.53521494
-0.55694753
-0.57709568
-0.59354151
-0.60347386
-0.6035592
-0.5900852
-0.55900086
-0.5059995
-0.42699636
-0.3182549
-0.1768828
-0.0014210268
0.20762045
0.44727542
0.71228806
0.99433276
1.282205
1.5614997
1.8171673
2.032264
2.1873298
2.2600786
2.2248804
2.0516245
1.7070411
1.1537604
0.34429015
-0.70873665
-1.8695625
-3.0059759
-4.0605113
-4.9722383
-6.1620466
-8.1519723
-9.4810037
-7.2108383
0.1043768
-0.67099322
-14.223928
-18.825825
-3.8828114
20.044549
6.9843653
-6.6866467
-9.7641709
-9.4300432
-6.9204086
-8.6665428
-13.320599
-6.4364617
11.415618
14.415056
8.1104891
8.1157307
12.758382
16.908561
11.619875
4.4026371
0.11963345
-2.0195342
-2.7943643
-2.6417
-1.848719
-0.88338052
-0.14891889
0.28767724
0.47083105
0.44284076
0.23615216
-0.11464943
-0.5767623
-1.1167289
-1.697919
-2.2818968
-2.8956146
-3.4163614
-3.8854647
-4.288675
-4.6209596
-4.882687
-5.0777607
-5.2124083
-5.2942115
-5.3316428
-5.3335196
-5.3080792
-5.2627763
-5.2040549
-5.1374857
-5.0678222
-4.99941
-4.9340764
-4.87446
-4.8220752
-4.7785121
-4.736535
-0.50130724
-0.53035727
-0.55699159
-0.5880639
-0.62161961
-0.65531429
-0.68666261
-0.7124882
-0.72885148
-0.73122078
-0.71443199
-0.67296484
-0.60109764
-0.49327586
-0.34484478
-0.1526228
0.084345538
0.36387682
0.68024079
1.0240826
1.3843344
1.7419153
2.0810215
2.3829327
2.6259657
2.7846669