/*--------------------------------*- C++ -*----------------------------------*\
  =========                 |
  \\      /  F ield         | OpenFOAM: The Open Source CFD Toolbox
   \\    /   O peration     | Website:  https://openfoam.org
    \\  /    A nd           | Version:  9
     \\/     M anipulation  |
\*---------------------------------------------------------------------------*/
FoamFile
{
    format      ascii;
    class       surfaceScalarField;
    location    "0.8";
    object      alphaPhi0.phase1;
}
// * * * * * * * * * * * * * * * * * * * * * * * * * * * * * * * * * * * * * //

dimensions      [0 3 -1 0 0 0 0];

internalField   nonuniform List<scalar> 
8032
(
-6.22986e-128
7.19502e-132
-4.12662e-127
3.02578e-128
-5.04165e-123
3.20733e-124
-4.18145e-119
2.21609e-120
-2.68671e-115
1.12335e-116
-1.44801e-111
4.38003e-113
-6.92903e-108
1.27608e-109
-3.0818e-104
1.96356e-106
-1.15734e-100
-1.77388e-101
-4.2387e-97
-1.83723e-97
-1.10371e-93
-5.97294e-94
-1.40599e-90
-7.68879e-91
-3.5562e-88
-4.062e-88
-1.88496e-86
-2.52823e-85
-1.97289e-85
-2.15676e-83
1.21525e-88
-4.25637e-82
1.97415e-85
-4.2531e-82
1.87281e-86
-2.10927e-83
4.58793e-88
-2.13872e-85
5.82867e-90
-1.39801e-87
1.11e-91
-4.48126e-89
7.75295e-95
-1.41956e-91
4.76713e-99
-1.57315e-95
2.22764e-103
-4.64563e-100
8.8632e-110
5.02257e-108
1.85667e-113
1.63382e-111
3.44018e-117
5.60812e-115
5.35485e-121
1.43842e-118
6.45763e-125
2.83794e-122
5.28725e-129
4.10769e-126
7.981e-130
3.87534e-130
8.79156e-134
-1.07739e-126
3.58145e-127
-2.5107e-122
7.48308e-123
-2.93669e-118
7.57545e-119
-2.33066e-114
4.999e-115
-1.43224e-110
2.42013e-111
-7.37911e-107
9.01226e-108
-3.37394e-103
2.50772e-104
-1.43318e-99
3.68735e-101
-5.1315e-96
-8.64721e-97
-1.86308e-92
-8.22684e-93
-4.37685e-89
-2.38885e-89
-4.75747e-86
-2.68608e-86
-1.02131e-83
-8.80468e-84
-4.82619e-82
-6.13882e-82
-3.34059e-81
-1.06098e-80
1.95705e-84
-4.18156e-80
3.34388e-81
-4.18118e-80
4.81553e-82
-1.06075e-80
1.89423e-83
-6.00658e-82
1.6662e-85
-2.16921e-83
3.49012e-87
-1.30511e-84
3.189e-90
-5.14312e-87
2.15636e-94
-6.86831e-91
1.03793e-98
-2.19388e-95
3.89738e-105
7.7173e-103
8.71282e-109
2.89989e-106
1.65634e-112
1.04222e-109
2.69561e-116
2.7989e-113
3.397e-120
5.7819e-117
2.90469e-124
8.76275e-121
1.24652e-128
8.65688e-125
4.14356e-129
-4.52534e-122
2.31795e-122
-9.83872e-118
4.49423e-118
-1.07242e-113
4.22198e-114
-7.92375e-110
2.5854e-110
-4.52931e-106
1.16148e-106
-2.16884e-102
4.01359e-103
-9.20951e-99
1.03639e-99
-3.63057e-95
1.41521e-96
-1.29131e-91
-2.17659e-92
-4.27496e-88
-1.85919e-88
-8.8438e-85
-4.73916e-85
-8.06083e-82
-4.60571e-82
-1.4631e-79
-1.30043e-79
-6.09138e-78
-8.05702e-78
-3.89158e-77
-1.29115e-76
2.09424e-80
-4.90586e-76
3.89507e-77
-4.90543e-76
6.07766e-78
-1.2909e-76
2.67287e-79
-7.88492e-78
2.46476e-81
-2.64049e-79
5.58695e-83
-1.91021e-80
6.67835e-86
-9.28785e-83
5.16796e-90
-1.53278e-86
2.65519e-94
-5.46298e-91
9.88586e-101
2.72624e-98
2.35794e-104
1.11369e-101
4.8672e-108
4.31306e-105
8.51561e-112
1.2482e-108
1.15264e-115
2.77863e-112
1.05758e-119
4.53791e-116
4.86477e-124
4.83097e-120
2.49185e-124
-1.62547e-117
1.14892e-117
-3.21548e-113
2.01105e-113
-3.18362e-109
1.7056e-109
-2.13353e-105
9.42926e-106
-1.1047e-101
3.82421e-102
-4.78607e-98
1.19297e-98
-1.83675e-94
2.7811e-95
-6.53771e-91
3.43201e-92
-2.27495e-87
-3.6956e-88
-6.69195e-84
-2.78071e-84
-1.19593e-80
-6.13891e-81
-9.06508e-78
-5.11652e-78
-1.38919e-75
-1.24106e-75
-5.09422e-74
-6.82891e-74
-3.00405e-73
-1.01442e-72
1.46069e-76
-3.71529e-72
3.00647e-73
-3.71498e-72
5.08251e-74
-1.01423e-72
2.47363e-75
-6.68429e-74
2.47917e-77
-1.99117e-75
6.00746e-79
-1.84707e-76
9.35401e-82
-1.10156e-78
8.54559e-86
-2.28329e-82
4.83825e-90
-9.31362e-87
1.892e-96
6.29076e-94
4.97942e-100
2.8678e-97
1.13912e-103
1.23017e-100
2.20014e-107
3.94358e-104
3.28329e-111
9.72419e-108
3.31644e-115
1.75908e-111
1.67665e-119
2.07427e-115
1.18514e-119
-5.31321e-113
4.89239e-113
-9.36593e-109
7.55174e-109
-8.24362e-105
5.64808e-105
-4.90132e-101
2.75355e-101
-2.24764e-97
9.8477e-98
-8.61114e-94
2.70888e-94
-2.91824e-90
5.56907e-91
-9.16104e-87
6.06883e-88
-3.07082e-83
-4.66472e-84
-7.85935e-80
-3.0469e-80
-1.19602e-76
-5.76799e-77
-7.49564e-74
-4.10047e-74
-9.68882e-72
-8.52948e-72
-3.12884e-70
-4.16697e-70
-1.70329e-69
-5.73704e-69
7.41702e-73
-2.02514e-68
1.7045e-69
-2.02498e-68
3.12152e-70
-5.73605e-69
1.6131e-71
-4.07951e-70
1.86964e-73
-1.28149e-71
4.80437e-75
-1.3075e-72
9.68628e-78
-9.52006e-75
1.06935e-81
-2.50355e-78
6.84803e-86
-1.19226e-82
2.97456e-92
1.09317e-89
8.85476e-96
5.68249e-93
2.29331e-99
2.76403e-96
5.00121e-103
1.00485e-99
8.41226e-107
2.80984e-103
9.55828e-111
5.76394e-107
5.42278e-115
7.70723e-111
4.99354e-115
-1.89034e-108
1.83856e-108
-2.53629e-104
2.45589e-104
-1.88717e-100
1.58983e-100
-9.78334e-97
6.70866e-97
-3.90338e-93
2.07659e-93
-1.29868e-89
4.94388e-90
-3.81553e-86
8.7979e-87
-1.03686e-82
8.31322e-84
-3.2973e-79
-4.58147e-80
-7.22696e-76
-2.5704e-76
-9.26885e-73
-4.14344e-73
-4.78414e-70
-2.50333e-70
-5.2128e-68
-4.46079e-68
-1.48229e-66
-1.93459e-66
-7.45027e-66
-2.46848e-65
2.89107e-69
-8.39789e-65
7.45494e-66
-8.39726e-65
1.47877e-66
-2.46809e-65
8.15399e-68
-1.89437e-66
1.10488e-69
-6.3068e-68
2.9949e-71
-7.11383e-69
7.77075e-74
-6.30396e-71
1.0547e-77
-2.11682e-74
7.79431e-82
-1.1948e-78
3.95255e-88
1.51392e-85
1.35641e-91
9.12326e-89
4.04749e-95
5.12666e-92
1.01451e-98
2.15341e-95
1.9571e-102
6.9572e-99
2.63203e-106
1.64885e-102
1.96122e-110
2.54725e-106
1.90709e-110
-6.2253e-104
6.07499e-104
-7.1295e-100
6.92444e-100
-3.96615e-96
3.8246e-96
-1.69367e-92
1.3773e-92
-5.80135e-89
3.63835e-89
-1.65343e-85
7.39212e-86
-4.15358e-82
1.1228e-82
-1.03569e-78
9.07637e-80
-2.86403e-75
-3.58674e-76
-5.31417e-72
-1.71606e-72
-5.70342e-69
-2.34453e-69
-2.41831e-66
-1.20104e-66
-2.22034e-64
-1.83227e-64
-5.5591e-63
-7.05452e-63
-2.58041e-62
-8.43312e-62
8.90162e-66
-2.82428e-61
2.58183e-62
-2.82408e-61
5.54574e-63
-8.43184e-62
3.27173e-64
-6.90934e-63
5.23047e-66
-2.44436e-64
1.48997e-67
-3.05192e-65
4.94783e-70
-3.28589e-67
8.36292e-74
-1.4151e-70
7.23776e-78
-9.5728e-75
4.46985e-84
1.71066e-81
1.79363e-87
1.20961e-84
6.24947e-91
7.96355e-88
1.82461e-94
3.91968e-91
4.27185e-98
1.48388e-94
7.67948e-102
4.12085e-98
6.70621e-106
7.46125e-102
6.54637e-106
-1.78093e-99
1.74187e-99
-1.72241e-95
1.67691e-95
-8.09164e-92
7.82312e-92
-2.52224e-88
2.37914e-88
-7.34594e-85
5.30909e-85
-1.80485e-81
9.11186e-82
-3.87785e-78
1.16937e-78
-8.67777e-75
8.00946e-76
-2.02786e-71
-2.26922e-72
-3.15974e-68
-9.21673e-69
-2.82437e-65
-1.06409e-65
-9.8207e-63
-4.6157e-63
-7.59758e-61
-6.1065e-61
-1.67535e-59
-2.23068e-59
-7.18281e-59
-2.54567e-58
2.20164e-62
-8.19871e-58
7.18627e-59
-8.19815e-58
1.6713e-59
-2.54531e-58
1.05327e-60
-2.18498e-59
2.0069e-62
-7.66468e-61
5.99021e-64
-1.04708e-61
2.53369e-66
-1.36909e-63
5.38563e-70
-7.58735e-67
5.51606e-74
-6.20216e-71
4.2969e-80
1.59236e-77
2.0701e-83
1.33224e-80
8.36886e-87
1.03812e-83
2.87363e-90
6.04884e-87
9.21168e-94
2.7108e-90
1.96125e-97
8.91416e-94
2.02821e-101
1.91088e-97
1.98501e-101
-4.36357e-95
4.27446e-95
-3.53831e-91
3.45058e-91
-1.39361e-87
1.34988e-87
-3.59202e-84
3.44237e-84
-8.48813e-81
6.4419e-81
-1.77652e-77
9.27237e-78
-3.19872e-74
9.98176e-75
-5.99681e-71
5.75393e-72
-1.1745e-67
-1.16974e-68
-1.52839e-64
-4.02324e-65
-1.13429e-61
-3.91851e-62
-3.23304e-59
-1.48956e-59
-2.10705e-57
-1.81102e-57
-4.09135e-56
-5.83525e-56
-1.62043e-55
-6.1449e-55
4.41727e-59
-1.90302e-54
1.62112e-55
-1.9029e-54
4.08141e-56
-6.14413e-55
2.67016e-57
-5.71713e-56
6.27894e-59
-2.08204e-57
1.95957e-60
-2.89601e-58
1.05133e-62
-4.60125e-60
2.83231e-66
-3.29095e-63
3.45802e-70
-3.2702e-67
3.49836e-76
1.22557e-73
2.18469e-79
1.21987e-76
1.03753e-82
1.13344e-79
4.38402e-86
7.87468e-83
1.70159e-89
4.20825e-86
4.32147e-93
1.65028e-89
5.3305e-97
4.21864e-93
5.22616e-97
-9.04247e-91
8.8672e-91
-6.11742e-87
5.97262e-87
-2.01023e-83
1.94968e-83
-4.32254e-80
4.14887e-80
-8.34408e-77
6.47859e-77
-1.45656e-73
7.78182e-74
-2.18667e-70
6.99285e-71
-3.41423e-67
3.37832e-68
-5.57286e-64
-4.93746e-65
-6.03544e-61
-1.43674e-61
-3.71387e-58
-1.23784e-58
-8.66932e-56
-4.20228e-56
-4.75907e-54
-4.33583e-54
-8.13838e-53
-1.23196e-52
-2.97837e-52
-1.19714e-51
7.23408e-56
-3.56501e-51
2.97947e-52
-3.5648e-51
8.1186e-53
-1.197e-51
5.53248e-54
-1.20736e-52
1.60672e-55
-4.58e-54
5.23621e-57
-6.48643e-55
3.55018e-59
-1.25412e-56
1.22005e-62
-1.16075e-59
1.78421e-66
-1.40826e-63
2.52568e-72
7.80955e-70
1.94622e-75
9.27982e-73
1.10772e-78
1.03307e-75
5.72737e-82
8.6008e-79
2.66488e-85
5.50821e-82
8.11237e-89
2.58857e-85
1.19942e-92
7.93006e-89
1.17738e-92
-1.56931e-86
1.54003e-86
-8.82886e-83
8.62681e-83
-2.41282e-79
2.3423e-79
-4.31428e-76
4.14556e-76
-6.82426e-73
5.38413e-73
-9.90301e-70
5.37936e-70
-1.23548e-66
4.02235e-67
-1.59953e-63
1.6247e-64
-2.16773e-60
-1.71167e-61
-1.95013e-57
-4.46518e-58
-9.93854e-55
-3.38323e-55
-1.89929e-52
-9.62937e-53
-8.78203e-51
-8.42744e-51
-1.32287e-49
-2.1119e-49
-4.47454e-49
-1.89396e-48
9.70693e-53
-5.42358e-48
4.47601e-49
-5.42328e-48
1.31967e-49
-1.89377e-48
9.24727e-51
-2.07036e-49
3.37453e-52
-8.07895e-51
1.14538e-53
-1.17862e-51
9.78124e-56
-2.7813e-53
4.31206e-59
-3.33982e-56
7.57604e-63
-4.96304e-60
1.56649e-68
4.12162e-66
1.45424e-71
5.85758e-69
9.94328e-75
7.83739e-72
6.27178e-78
7.84448e-75
3.50957e-81
6.04021e-78
1.28469e-84
3.4129e-81
2.28411e-88
1.25703e-84
2.24409e-88
-2.26395e-82
2.22288e-82
-1.05709e-78
1.03348e-78
-2.39762e-75
2.32906e-75
-3.55778e-72
3.42141e-72
-4.62156e-69
3.68839e-69
-5.56312e-66
3.05906e-66
-5.75457e-63
1.89961e-63
-6.15925e-60
6.40832e-61
-6.91436e-57
-5.20738e-58
-5.1609e-54
-1.19134e-54
-2.1776e-51
-7.53951e-52
-3.40622e-49
-1.79842e-49
-1.32658e-47
-1.33513e-47
-1.76065e-46
-2.9514e-46
-5.50574e-46
-2.44308e-45
1.06962e-49
-6.72761e-45
5.50733e-46
-6.72726e-45
1.75642e-46
-2.44286e-45
1.24503e-47
-2.8943e-46
5.82459e-49
-1.143e-47
2.05454e-50
-1.73818e-48
2.20187e-52
-5.02761e-50
1.25161e-55
-7.85434e-53
2.64647e-59
-1.43292e-56
8.09005e-65
1.80188e-62
9.06639e-68
3.0643e-65
7.4601e-71
4.93747e-68
5.72837e-74
5.95331e-71
3.86279e-77
5.52263e-74
1.70377e-80
3.7595e-77
3.64998e-84
1.66826e-80
3.5883e-84
-2.69963e-78
2.65166e-78
-1.04496e-74
1.02203e-74
-1.96482e-71
1.90951e-71
-2.41685e-68
2.32558e-68
-2.5822e-65
2.07857e-65
-2.57503e-62
1.42942e-62
-2.20547e-59
7.36394e-60
-1.94748e-56
2.07473e-57
-1.80818e-53
-1.34872e-54
-1.11944e-50
-2.59623e-51
-3.91109e-48
-1.37247e-48
-5.00659e-46
-2.7446e-46
-1.64222e-44
-1.72851e-44
-1.92098e-43
-3.37105e-43
-5.55534e-43
-2.5761e-42
9.69148e-47
-6.82187e-42
5.55676e-43
-6.82154e-42
1.91642e-43
-2.5759e-42
1.54299e-44
-3.30706e-43
8.26445e-46
-1.486e-44
3.02546e-47
-2.07908e-45
4.05304e-49
-7.41427e-47
2.98486e-52
-1.51115e-49
7.60156e-56
-3.39064e-53
3.47079e-61
6.52753e-59
4.70175e-64
1.32768e-61
4.65944e-67
2.57902e-64
4.3489e-70
3.75024e-67
3.53788e-73
4.19609e-70
1.8824e-76
3.44543e-73
4.86462e-80
1.84413e-76
4.78471e-80
-2.6495e-74
2.60312e-74
-8.49721e-71
8.31307e-71
-1.32388e-67
1.28703e-67
-1.34928e-64
1.29887e-64
-1.18709e-61
9.62042e-62
-9.80079e-59
5.48323e-59
-6.94499e-56
2.3426e-56
-5.05173e-53
5.5165e-54
-3.8762e-50
-2.84739e-51
-1.99108e-47
-4.62417e-48
-5.76235e-45
-2.04394e-45
-6.03518e-43
-3.42821e-43
-1.66708e-41
-1.83161e-41
-1.71931e-40
-3.15188e-40
-4.59974e-40
-2.22402e-39
7.22527e-44
-5.6638e-39
4.60079e-40
-5.66355e-39
1.7153e-40
-2.22386e-39
1.56846e-41
-3.09334e-40
9.64116e-43
-1.58192e-41
3.66078e-44
-2.01296e-42
6.10244e-46
-8.92219e-44
5.84895e-49
-2.37933e-46
1.79422e-52
-6.57429e-50
1.23518e-57
1.96046e-55
2.02431e-60
4.76316e-58
2.41619e-63
1.11589e-60
2.73792e-66
1.95783e-63
2.68831e-69
2.64341e-66
1.72628e-72
2.61933e-69
5.38439e-76
1.69187e-72
5.29795e-76
-2.13276e-70
2.09584e-70
-5.66738e-67
5.54559e-67
-7.31687e-64
7.11471e-64
-6.17921e-61
5.95001e-61
-4.48089e-58
3.65222e-58
-3.0624e-55
1.72534e-55
-1.79487e-52
6.11391e-53
-1.07426e-49
1.20512e-50
-6.81011e-47
-4.89464e-48
-2.9048e-44
-6.73517e-45
-6.96761e-42
-2.49254e-42
-5.9684e-40
-3.50829e-40
-1.38808e-38
-1.59005e-38
-1.2627e-37
-2.41452e-37
-3.12625e-37
-1.57348e-36
4.4334e-41
-3.85368e-36
3.12689e-37
-3.85351e-36
1.25982e-37
-1.57338e-36
1.30806e-38
-2.37079e-37
9.24671e-40
-1.38044e-38
3.64292e-41
-1.57207e-39
7.51574e-43
-8.75911e-41
9.4151e-46
-3.06515e-43
3.47715e-49
-1.0438e-46
3.64357e-54
4.88526e-52
7.22794e-57
1.41507e-54
1.03845e-59
3.99782e-57
1.42727e-62
8.46231e-60
1.69133e-65
1.37869e-62
1.3107e-68
1.64856e-65
4.9341e-72
1.28499e-68
4.85639e-72
-1.40409e-66
1.37997e-66
-3.09285e-63
3.02672e-63
-3.3104e-60
3.21932e-60
-2.31767e-57
2.23207e-57
-1.38642e-54
1.13597e-54
-7.84558e-52
4.45017e-52
-3.80347e-49
1.30878e-49
-1.87153e-46
2.16374e-47
-9.80368e-44
-6.84193e-45
-3.47673e-41
-8.02358e-42
-6.91627e-39
-2.49035e-39
-4.84254e-37
-2.94309e-37
-9.47943e-36
-1.13136e-35
-7.60965e-35
-1.51608e-34
-1.74422e-34
-9.12673e-34
2.23893e-38
-2.14977e-33
1.74454e-34
-2.14968e-33
7.59279e-35
-9.12622e-34
8.95006e-36
-1.4894e-34
7.28877e-37
-9.87927e-36
2.98443e-38
-9.84899e-37
7.57023e-40
-7.01027e-38
1.2442e-42
-3.22832e-40
5.52508e-46
-1.35494e-43
8.90803e-51
1.01119e-48
2.13956e-53
3.48307e-51
3.69571e-56
1.186e-53
6.15546e-59
3.02721e-56
8.79919e-62
5.94841e-59
8.22527e-65
8.57933e-62
3.73542e-68
8.06605e-65
3.67756e-68
-7.54053e-63
7.41166e-63
-1.37802e-59
1.34861e-59
-1.22386e-56
1.19023e-56
-7.10958e-54
6.84742e-54
-3.51116e-51
2.89184e-51
-1.64616e-48
9.40302e-49
-6.60332e-46
2.29741e-46
-2.66952e-43
3.19386e-44
-1.15612e-40
-7.76178e-42
-3.4144e-38
-7.81728e-39
-5.63673e-36
-2.03909e-36
-3.22311e-34
-2.02438e-34
-5.3081e-33
-6.59831e-33
-3.7623e-32
-7.80272e-32
-7.987e-32
-4.34032e-31
9.30417e-36
-9.83286e-31
7.98829e-32
-9.83249e-31
3.75426e-32
-4.3401e-31
5.02281e-33
-7.67005e-32
4.71921e-34
-5.79861e-33
2.01542e-35
-4.90682e-34
6.23419e-37
-4.5689e-35
1.34836e-39
-2.77609e-37
7.16949e-43
-1.43258e-40
1.8067e-47
1.74196e-45
5.25331e-50
7.11095e-48
1.089e-52
2.91561e-50
2.19612e-55
8.96558e-53
3.78374e-58
2.12298e-55
4.26272e-61
3.69013e-58
2.33344e-64
4.18113e-61
2.29784e-64
-3.29521e-59
3.23904e-59
-5.00209e-56
4.89525e-56
-3.69084e-53
3.58925e-53
-1.78122e-50
1.71547e-50
-7.26855e-48
6.01938e-48
-2.82595e-45
1.62661e-45
-9.38553e-43
3.30625e-43
-3.11572e-40
3.87675e-41
-1.11659e-37
-7.12564e-39
-2.75169e-35
-6.22693e-36
-3.77197e-33
-1.36834e-33
-1.75922e-31
-1.14169e-31
-2.43593e-30
-3.15366e-30
-1.52538e-29
-3.29058e-29
-3.00053e-29
-1.69187e-28
3.18051e-33
-3.68663e-28
3.00097e-29
-3.6865e-28
1.52227e-29
-1.69179e-28
2.31091e-30
-3.23685e-29
2.50774e-31
-2.79097e-30
1.12384e-32
-1.91564e-31
4.19669e-34
-2.42103e-32
1.19732e-36
-1.94616e-34
7.55396e-40
-1.22716e-37
3.03782e-44
2.49814e-42
1.06898e-46
1.20365e-44
2.65296e-49
5.93507e-47
6.47215e-52
2.19582e-49
1.34232e-54
6.25806e-52
1.82027e-57
1.30933e-54
1.1996e-60
1.7857e-57
1.18153e-60
-1.16873e-55
1.14881e-55
-1.47603e-52
1.44438e-52
-9.06319e-50
8.81253e-50
-3.63966e-47
3.50481e-47
-1.22831e-44
1.02342e-44
-3.96531e-42
2.30222e-42
-1.09132e-39
3.89992e-40
-2.97378e-37
3.87035e-38
-8.82961e-35
-5.27173e-36
-1.82e-32
-4.05319e-33
-2.0724e-30
-7.52459e-31
-7.87018e-29
-5.27798e-29
-9.15463e-28
-1.23459e-27
-5.06824e-27
-1.1363e-26
-9.24222e-27
-5.40094e-26
8.93873e-31
-1.13207e-25
9.24344e-27
-1.13204e-25
5.05843e-27
-5.40073e-26
8.71033e-28
-1.11861e-26
1.05267e-28
-1.10126e-27
5.18685e-30
-5.81721e-29
2.3093e-31
-1.04076e-29
8.71257e-34
-1.11111e-31
6.43308e-37
-8.47623e-35
4.22062e-41
2.97497e-39
1.79726e-43
1.68477e-41
5.32377e-46
9.97435e-44
1.56975e-48
4.43226e-46
3.91255e-51
1.5179e-48
6.37581e-54
3.81647e-51
5.05043e-57
6.255e-54
4.9749e-57
-3.35478e-52
3.29744e-52
-3.53215e-49
3.45586e-49
-1.80859e-46
1.75816e-46
-6.05624e-44
5.83035e-44
-1.69207e-41
1.41965e-41
-4.54312e-39
2.66416e-39
-1.03729e-36
3.76943e-37
-2.31952e-34
3.17848e-35
-5.71527e-32
-3.12331e-33
-9.88027e-30
-2.15429e-30
-9.34715e-28
-3.38979e-28
-2.8837e-26
-1.99906e-26
-2.81471e-25
-3.95471e-25
-1.37874e-24
-3.20787e-24
-2.33208e-24
-1.40945e-23
2.06412e-28
-2.84396e-23
2.33236e-24
-2.84387e-23
1.37624e-24
-1.40939e-23
2.68713e-25
-3.16062e-24
3.31813e-26
-3.55861e-25
1.98566e-27
-1.89571e-26
1.03847e-28
-3.62063e-27
5.19806e-31
-5.16222e-29
4.40338e-34
-4.69392e-32
4.83476e-38
2.93743e-36
2.49183e-40
1.94698e-38
8.77701e-43
1.38124e-40
3.1244e-45
7.35567e-43
9.33931e-48
3.02089e-45
1.82506e-50
9.10904e-48
1.7341e-53
1.7904e-50
1.70826e-53
-7.76784e-49
7.63433e-49
-6.8355e-46
6.68627e-46
-2.92621e-43
2.84367e-43
-8.1915e-41
7.88294e-41
-1.897e-38
1.60455e-38
-4.24501e-36
2.51857e-36
-8.05227e-34
2.98427e-34
-1.47743e-31
2.14719e-32
-3.02721e-29
-1.46696e-30
-4.40261e-27
-9.3404e-28
-3.45974e-25
-1.25022e-25
-8.64387e-24
-6.19792e-24
-7.06901e-23
-1.03818e-22
-3.06949e-22
-7.47878e-22
-4.81896e-22
-3.08294e-21
3.91596e-26
-5.9809e-21
4.81949e-22
-5.98073e-21
3.06437e-22
-3.08283e-21
6.77435e-23
-7.37859e-22
8.60052e-24
-9.43245e-23
6.32304e-25
-5.08204e-24
3.81543e-26
-1.01641e-24
2.54507e-28
-1.9503e-26
2.38904e-31
-2.05862e-29
4.57066e-35
2.40811e-33
2.85131e-37
1.85957e-35
1.18866e-39
1.5771e-37
5.10115e-42
1.00376e-39
1.824e-44
4.93116e-42
4.26336e-47
1.7787e-44
4.8468e-50
4.18195e-47
4.77466e-50
-1.44513e-45
1.42005e-45
-1.06616e-42
1.04253e-42
-3.82795e-40
3.71826e-40
-8.98625e-38
8.64323e-38
-1.72741e-35
1.47513e-35
-3.23007e-33
1.94291e-33
-5.09928e-31
1.93417e-31
-7.67775e-29
1.19287e-29
-1.3115e-26
-5.36556e-28
-1.61003e-24
-3.29838e-25
-1.04991e-22
-3.77385e-23
-2.11507e-21
-1.58324e-21
-1.44758e-20
-2.31854e-20
-5.62494e-20
-1.54998e-19
-8.17351e-20
-6.06025e-19
6.12137e-24
-1.05842e-18
8.17434e-20
-1.05839e-18
5.61677e-20
-6.06044e-19
1.39346e-20
-1.54047e-19
1.82949e-21
-2.1413e-20
1.68283e-22
-1.12813e-21
1.14684e-23
-2.28955e-22
1.02823e-25
-6.0061e-24
1.01982e-28
-7.08743e-27
3.54688e-32
1.63015e-30
2.68026e-34
1.46206e-32
1.3155e-36
1.47833e-34
6.79512e-39
1.12065e-36
2.89725e-41
6.56558e-39
8.07403e-44
2.82415e-41
1.09481e-46
7.91768e-44
1.07841e-46
-2.14942e-42
2.11161e-42
-1.33455e-39
1.30438e-39
-4.03431e-37
3.91632e-37
-7.97243e-35
7.66286e-35
-1.27426e-32
1.10058e-32
-1.99751e-30
1.22115e-30
-2.63019e-28
1.02526e-28
-3.25109e-26
5.44599e-27
-4.64291e-24
-1.47278e-25
-4.83105e-22
-9.48539e-23
-2.62344e-20
-9.50694e-21
-4.25024e-19
-3.31462e-19
-2.41378e-18
-3.60059e-18
-8.08889e-18
-1.81341e-17
-1.08851e-17
-5.35691e-17
7.54526e-22
-8.21296e-17
1.08862e-17
-8.21284e-17
8.07846e-18
-5.35672e-17
2.33436e-18
-1.79309e-17
3.55562e-19
-3.34699e-18
3.74824e-20
-2.33627e-19
2.81701e-21
-4.02733e-20
3.44665e-23
-1.50777e-21
3.45169e-26
-1.89948e-24
2.25991e-29
9.04511e-28
2.07229e-31
9.48439e-30
1.19072e-33
1.13977e-31
7.38653e-36
1.02475e-33
3.7412e-38
7.13347e-36
1.23828e-40
3.6452e-38
1.99509e-43
1.21393e-40
1.96498e-43
-2.53932e-39
2.49377e-39
-1.33304e-36
1.30213e-36
-3.40887e-34
3.30655e-34
-5.69707e-32
5.47107e-32
-7.58677e-30
6.64175e-30
-1.00104e-27
6.23795e-28
-1.10232e-25
4.4372e-26
-1.11941e-23
2.04009e-24
-1.34196e-21
-2.75082e-23
-1.20552e-19
-2.24135e-20
-5.67256e-18
-1.77652e-18
-6.72978e-17
-3.42079e-17
-3.0215e-16
-2.04616e-17
-9.036e-16
-4.5223e-17
-1.16401e-15
-9.12154e-16
7.50987e-20
-3.17511e-15
1.16411e-15
-3.17502e-15
9.02205e-16
-9.10699e-16
2.93495e-16
-4.15481e-17
5.77495e-17
-1.44688e-17
6.98332e-18
-2.59365e-17
5.58423e-19
-5.26693e-18
9.43121e-21
-3.01875e-19
8.39898e-24
-3.54801e-22
1.22875e-26
3.88524e-25
1.37249e-28
5.26025e-27
9.12198e-31
7.48808e-29
6.76924e-33
7.94233e-31
4.05469e-35
6.53945e-33
1.58662e-37
3.95135e-35
3.02366e-40
1.55575e-37
2.97904e-40
-2.36261e-36
2.31906e-36
-1.05457e-33
1.02931e-33
-2.29436e-31
2.22323e-31
-3.26106e-29
3.12828e-29
-3.62708e-27
3.22676e-27
-4.04835e-25
2.58041e-25
-3.74014e-23
1.56361e-23
-3.1333e-21
6.25517e-22
-3.23461e-19
-2.48798e-21
-2.38857e-17
-4.08535e-18
-8.46088e-16
-1.96814e-17
-8.5986e-15
0
-3.35915e-14
0
-9.10832e-14
0
-1.08943e-13
-8.38893e-14
6.60773e-18
-2.80362e-13
1.08951e-13
-2.80353e-13
9.09761e-14
-8.37763e-14
3.28277e-14
0
7.63058e-15
0
1.13138e-15
0
8.90326e-17
-4.06367e-16
2.06683e-18
-4.70304e-17
9.6729e-22
-2.92288e-20
5.76107e-24
9.5564e-23
7.85824e-26
2.52013e-24
5.96561e-28
4.23393e-26
5.27452e-30
5.26256e-28
3.71538e-32
5.09734e-30
1.70901e-34
3.62138e-32
3.83058e-37
1.67615e-34
3.7755e-37
-1.73341e-33
1.70068e-33
-6.62378e-31
6.46035e-31
-1.23452e-28
1.1951e-28
-1.5023e-26
1.43981e-26
-1.40027e-24
1.26977e-24
-1.33017e-22
8.70774e-23
-1.0382e-20
4.5258e-21
-7.28229e-19
1.59364e-19
-5.8043e-17
5.84162e-19
-3.54354e-15
-3.70233e-17
-1.06782e-13
0
-9.08252e-13
0
-3.04395e-12
0
-7.50277e-12
0
-8.34559e-12
-7.00195e-12
4.78446e-16
-2.10021e-11
8.34613e-12
-2.10015e-11
7.49573e-12
-6.99454e-12
2.99129e-12
0
8.30365e-13
0
1.35351e-13
0
1.14397e-14
-1.56357e-14
3.47186e-16
-5.36802e-15
1.27296e-19
1.98219e-19
3.00676e-21
3.70043e-20
3.26793e-23
1.09698e-21
3.35466e-25
2.0926e-23
3.57291e-27
3.04982e-25
2.93974e-29
3.45547e-27
1.5786e-31
2.86671e-29
4.13316e-34
1.54899e-31
4.07625e-34
-9.35562e-31
9.1613e-31
-3.08652e-28
3.00304e-28
-4.97081e-26
4.7976e-26
-5.22329e-24
4.98946e-24
-4.08836e-22
3.78973e-22
-3.3452e-20
2.25043e-20
-2.2575e-18
1.02245e-18
-1.15902e-16
4.41348e-17
-2.52773e-15
1.97829e-15
-1.90888e-13
0
-1.15876e-11
0
-8.28474e-11
0
-2.32702e-10
0
-5.09626e-10
0
-5.22231e-10
-4.80351e-10
2.85007e-14
-1.28318e-09
5.22264e-10
-1.28314e-09
5.09308e-10
-4.80003e-10
2.30104e-10
0
7.8364e-11
0
1.21283e-11
0
1.01949e-12
0
4.35704e-14
-5.45873e-13
3.58827e-17
1.25731e-15
9.75002e-19
1.75134e-17
1.30457e-20
3.90706e-19
1.53812e-22
8.50023e-21
1.94647e-24
1.42989e-22
1.8547e-26
1.88009e-24
1.15264e-28
1.80644e-26
3.4955e-31
1.13002e-28
3.44551e-31
-3.65087e-28
3.5686e-28
-1.05064e-25
1.01961e-25
-1.47626e-23
1.42117e-23
-1.35278e-21
1.28874e-21
-9.75178e-20
8.52843e-20
-6.01794e-18
4.58347e-18
-3.44211e-16
3.78922e-16
-6.02659e-14
6.02464e-14
-9.63714e-13
8.62413e-13
-2.23894e-11
0
-1.13275e-09
0
-6.20471e-09
0
-1.44153e-08
0
-2.7841e-08
0
-2.61828e-08
-2.68427e-08
1.37769e-12
-6.33486e-08
2.61846e-08
-6.33471e-08
2.78333e-08
-2.68326e-08
1.43366e-08
0
6.05116e-09
0
9.96337e-10
0
7.01542e-11
0
4.61317e-12
-2.87733e-11
4.43862e-14
7.82798e-13
2.5295e-16
4.39028e-14
3.40727e-18
2.54323e-16
5.64681e-20
2.6343e-18
7.62173e-22
4.8715e-20
8.31909e-24
7.3301e-22
5.92211e-26
8.07541e-24
2.05886e-28
5.78945e-26
2.02485e-28
-1.23866e-25
1.21229e-25
-3.14549e-23
3.05767e-23
-3.90557e-21
3.76577e-21
-3.16452e-19
3.02052e-19
-1.99356e-17
1.88458e-17
-2.52761e-15
2.47885e-15
-3.31112e-13
3.27493e-13
-1.01099e-11
9.77173e-12
-1.22856e-10
1.09451e-10
-2.66669e-09
0
-8.78748e-08
0
-3.62523e-07
0
-6.90745e-07
0
-1.16042e-06
0
-9.91033e-07
-1.21369e-06
5.04328e-11
-2.46393e-06
9.91109e-07
-2.46389e-06
1.16041e-06
-1.21357e-06
6.90558e-07
0
3.6171e-07
0
8.64139e-08
0
2.07288e-09
0
2.76546e-10
0
9.18132e-12
9.97963e-11
2.95061e-13
8.88882e-12
2.24882e-15
2.92143e-13
1.55732e-17
2.22278e-15
2.43454e-19
1.48598e-17
3.00458e-21
2.34089e-19
2.42007e-23
2.9149e-21
9.53e-26
2.36514e-23
9.37151e-26
-3.11292e-23
3.04048e-23
-7.04083e-21
6.86573e-21
-7.90104e-19
7.59937e-19
-6.11881e-17
5.84385e-17
-9.33425e-15
9.14958e-15
-1.06184e-12
1.05053e-12
-3.60065e-11
3.50838e-11
-8.25633e-10
7.92408e-10
-9.82504e-09
8.82404e-09
-2.16204e-07
0
-4.90104e-06
0
-1.4535e-05
0
-2.46817e-05
0
-4.68571e-05
-0.000459577
-4.00605e-05
-0.00116887
1.93284e-09
-0.00151995
4.00635e-05
-0.00151994
4.68573e-05
-0.00116884
2.46809e-05
-0.000459535
1.45335e-05
0
4.89823e-06
0
2.12693e-07
0
1.03796e-08
0
8.17967e-10
8.77011e-09
3.55667e-11
7.85569e-10
1.04687e-12
3.46583e-11
9.18691e-15
1.03628e-12
5.90302e-17
9.0277e-15
7.6058e-19
5.66786e-17
6.82053e-21
7.35023e-19
2.9969e-23
6.64263e-21
2.93823e-23
-4.85534e-21
4.71637e-21
-9.8866e-19
9.6937e-19
-1.05968e-16
1.01444e-16
-1.56508e-14
1.52857e-14
-2.01465e-12
1.99482e-12
-8.00597e-11
7.8616e-11
-2.20649e-09
2.14414e-09
-4.46275e-08
4.26682e-08
-4.67216e-07
4.15981e-07
-2.38548e-06
0
-0.000154244
-0.000177533
-0.000564037
-0.0025303
-0.000854083
-0.00471038
-0.000796344
-0.00701739
-0.000457808
-0.00732959
1.95819e-08
-0.00746691
0.000457844
-0.00746691
0.00079637
-0.00732958
0.000854088
-0.00701736
0.000564024
-0.00471029
0.000154227
-0.00253016
2.38167e-06
-0.000177465
4.67193e-07
0
4.46045e-08
4.16049e-07
2.20493e-09
4.26453e-08
7.99856e-11
2.14241e-09
2.01203e-12
7.85362e-11
1.56231e-14
1.99232e-12
1.05616e-16
1.52614e-14
9.86041e-19
1.01142e-16
4.8379e-21
9.66595e-19
4.70105e-21
-4.71664e-19
4.55994e-19
-8.8495e-17
8.71755e-17
-1.03104e-14
9.9806e-15
-1.47582e-12
1.45543e-12
-7.75701e-11
7.71873e-11
-2.7249e-09
2.69302e-09
-6.88544e-08
6.72414e-08
-1.18151e-06
1.16933e-06
-8.23662e-06
6.79647e-06
-0.000681055
-0.000670454
-0.00220728
-0.00491744
-0.00247697
-0.0064805
-0.00189449
-0.00726595
-0.001199
-0.00771288
-0.000582994
-0.0079456
2.13182e-08
-0.00804993
0.000583038
-0.00804992
0.00119905
-0.00794559
0.00189455
-0.00771287
0.00247701
-0.00726591
0.00220725
-0.00648043
0.000680959
-0.00491671
8.23849e-06
-0.000670275
1.18128e-06
6.79899e-06
6.88381e-08
1.16902e-06
2.72419e-09
6.72249e-08
7.7547e-11
2.69229e-09
1.47528e-12
7.71634e-11
1.03062e-14
1.45492e-12
8.84596e-17
9.97641e-15
4.7142e-19
8.71395e-17
4.55775e-19
-2.37198e-17
2.24354e-17
-4.04146e-15
4.02841e-15
-4.69562e-13
4.62389e-13
-3.39657e-11
3.38186e-11
-1.57923e-09
1.55788e-09
-5.28481e-08
5.12699e-08
-1.21848e-06
1.15027e-06
-2.20218e-05
2.07507e-05
-0.00137188
-0.000206618
-0.00390122
-0.00437656
-0.00307848
-0.00611685
-0.00241431
-0.00714467
-0.00177121
-0.00790904
-0.00115263
-0.00833146
-0.00056986
-0.00852837
1.83901e-08
-0.00861981
0.000569897
-0.0086198
0.00115268
-0.00852837
0.00177126
-0.00833145
0.00241436
-0.007909
0.00307852
-0.0071446
0.00390097
-0.00611676
0.00137165
-0.00437641
2.20162e-05
-0.000206517
1.21826e-06
2.07453e-05
5.28378e-08
1.15006e-06
1.5789e-09
5.12597e-08
3.39586e-11
1.55758e-09
4.69441e-13
3.38123e-11
4.04011e-15
4.62285e-13
2.37112e-17
4.02727e-15
2.24284e-17
-3.99882e-16
3.48824e-16
-5.5824e-14
5.85349e-14
-5.59216e-12
5.84376e-12
-3.48408e-10
3.63303e-10
-1.54453e-08
1.59141e-08
-4.91724e-07
4.9797e-07
-1.05065e-05
1.02545e-05
-0.000924311
0.000195519
-0.0043477
-0.00227621
-0.00340641
-0.00531694
-0.00296758
-0.00655464
-0.00253918
-0.00757306
-0.00190633
-0.00854189
-0.00124336
-0.00899443
-0.000614207
-0.00915752
1.64115e-08
-0.00923403
0.000614242
-0.00923403
0.0012434
-0.00915752
0.00190638
-0.00899443
0.00253922
-0.00854184
0.00296759
-0.00757296
0.00340644
-0.00655456
0.00434777
-0.00531682
0.000924024
-0.00227587
1.05036e-05
0.000195508
4.91566e-07
1.02522e-05
1.54401e-08
4.97856e-07
3.48288e-10
1.59111e-08
5.59011e-12
3.63251e-10
5.58003e-14
5.84314e-12
3.99697e-16
5.85301e-14
3.48778e-16
-3.29251e-15
2.73206e-15
-3.7575e-13
4.27002e-13
-3.60769e-11
4.08427e-11
-2.26928e-09
2.53747e-09
-1.00054e-07
1.1047e-07
-3.10803e-06
3.37754e-06
-7.32207e-05
7.94477e-05
-0.00355456
0.000202715
-0.00363375
-0.00376448
-0.00320486
-0.00574505
-0.00310387
-0.00665462
-0.00274668
-0.0079302
-0.00204914
-0.00923944
-0.00131813
-0.00972544
-0.000643982
-0.00983166
1.20245e-08
-0.00987802
0.000644009
-0.00987803
0.00131816
-0.00983168
0.00204918
-0.00972544
0.00274671
-0.00923938
0.00310386
-0.00793006
0.00320484
-0.00665454
0.00363377
-0.00574497
0.00355439
-0.00376427
7.32022e-05
0.000202917
3.10651e-06
7.9432e-05
9.99792e-08
3.37714e-06
2.26701e-09
1.10471e-07
3.60279e-11
2.53797e-09
3.70084e-13
4.08613e-11
3.29089e-15
4.21307e-13
2.73647e-15
-1.06974e-14
9.29492e-15
-6.25499e-13
1.01672e-12
-7.32995e-11
1.10169e-10
-5.58799e-09
7.77412e-09
-2.86637e-07
3.75568e-07
-1.01435e-05
1.25504e-05
-0.00128517
0.000472348
-0.00391382
-0.000484453
-0.00323286
-0.00442299
-0.00297834
-0.00597598
-0.00307028
-0.00561349
-0.00278998
-0.00782019
-0.00204649
-0.00998293
-0.00130244
-0.0104695
-0.00062894
-0.0105052
4.71247e-09
-0.010507
0.000628954
-0.010507
0.00130246
-0.0105052
0.00204652
-0.0104695
0.00279
-0.00998286
0.00307021
-0.00781955
0.00297828
-0.0056132
0.00323285
-0.00597594
0.00391385
-0.00442281
0.00128483
-0.000484128
1.01306e-05
0.000472221
2.85794e-07
1.25478e-05
5.56108e-09
3.75676e-07
7.27725e-11
7.78558e-09
5.99829e-13
1.10564e-10
1.07428e-14
9.95462e-13
9.44995e-15
-1.35355e-14
1.35243e-14
-2.01702e-13
1.09512e-12
-2.88055e-11
1.30359e-10
-2.86728e-09
1.01347e-08
-1.90976e-07
5.44523e-07
-1.0698e-05
2.22686e-05
-0.00203722
0.00100006
-0.00318185
-0.0010179
-0.00281244
-0.00477033
-0.00143839
-0.00348104
-0.00119675
-0.000227982
-0.00236755
-0.00310862
-0.00181566
-0.0105348
-0.00116044
-0.0111247
-0.000558071
-0.0111075
-5.0954e-09
-0.011065
0.000558064
-0.011065
0.00116043
-0.0111076
0.00181567
-0.0111247
0.0023674
-0.0105346
0.00119656
-0.00310783
0.00143834
-0.000227924
0.00281237
-0.00348126
0.00318181
-0.00477018
0.00203691
-0.00101749
1.06829e-05
0.000999923
1.85384e-07
2.22644e-05
2.61208e-09
5.45144e-07
2.26506e-11
1.01751e-08
1.49112e-13
1.31282e-10
1.93905e-14
1.10608e-12
1.45143e-14
0
6.1356e-15
0
5.77151e-13
0
7.38809e-11
0
6.82884e-09
0
4.47272e-07
-1.55228e-06
2.33557e-05
-0.00187587
0.0010885
-0.00270381
-0.00110358
-0.00216927
-0.00477845
-6.77602e-05
-0.00203546
-0.000265849
-1.27078e-05
-0.00135187
-0.000889592
-0.00135646
-0.0100725
-0.000894609
-0.0115866
-0.000434827
-0.0115673
-1.62765e-08
-0.0114998
0.000434795
-0.0114999
0.000894574
-0.0115673
0.00135642
-0.0115866
0.00135169
-0.0100717
0.000265774
-0.000889281
6.77613e-05
-1.27192e-05
0.0021694
-0.00203579
0.00270373
-0.00477834
0.00187558
-0.00110315
1.5553e-06
0.00108838
0
2.33527e-05
0
4.53218e-07
0
7.32969e-09
0
8.75465e-11
0
7.07346e-13
7.63726e-15
0
3.07907e-15
0
1.9803e-13
0
3.44714e-11
0
3.84892e-09
0
2.9681e-07
0
1.49044e-05
-0.00117268
0.0010237
-0.00215241
-0.000733586
-0.00173626
-0.00458723
-7.05079e-05
-0.00196074
-5.98565e-05
-7.32271e-06
-0.000518591
-0.000342032
-0.000824366
-0.00951515
-0.000578041
-0.0118329
-0.000289233
-0.0118561
-2.72522e-08
-0.0117891
0.000289176
-0.0117891
0.000577977
-0.0118561
0.00082429
-0.0118329
0.000518432