/*--------------------------------*- C++ -*----------------------------------*\
  =========                 |
  \\      /  F ield         | OpenFOAM: The Open Source CFD Toolbox
   \\    /   O peration     | Website:  https://openfoam.org
    \\  /    A nd           | Version:  9
     \\/     M anipulation  |
\*---------------------------------------------------------------------------*/
FoamFile
{
    format      ascii;
    class       volScalarField;
    location    "0.8";
    object      p;
}
// * * * * * * * * * * * * * * * * * * * * * * * * * * * * * * * * * * * * * //

dimensions      [1 -1 -2 0 0 0 0];

internalField   nonuniform List<scalar> 
4096
(
-0.000181305
0
0.0003536
0.000871202
0.00153278
0.00231303
0.00318211
0.00410677
0.00505141
0.00597957
0.0068553
0.0076446
0.00831669
0.00884525
0.00920956
0.00939529
0.00939513
0.00920908
0.00884445
0.00831557
0.00764317
0.00685354
0.00597748
0.00504899
0.00410399
0.00317891
0.00230934
0.00152841
0.00086587
0.000346947
-8.36453e-06
-0.000189182
-0.0522916
-0.0521042
-0.0517368
-0.0511997
-0.0505135
-0.0497043
-0.048803
-0.0478441
-0.0468644
-0.0459018
-0.0449936
-0.044175
-0.043478
-0.0429298
-0.0425519
-0.0423593
-0.0423595
-0.0425524
-0.0429306
-0.0434791
-0.0441765
-0.0449954
-0.045904
-0.0468669
-0.0478469
-0.0488062
-0.049708
-0.0505178
-0.0512049
-0.051743
-0.0521114
-0.0522989
-0.10459
-0.104389
-0.103995
-0.103418
-0.102681
-0.101812
-0.100845
-0.0998154
-0.0987637
-0.0977302
-0.0967551
-0.0958762
-0.0951278
-0.0945392
-0.0941335
-0.0939266
-0.0939268
-0.094134
-0.09454
-0.095129
-0.0958777
-0.0967569
-0.0977324
-0.0987662
-0.0998183
-0.100848
-0.101816
-0.102685
-0.103423
-0.104
-0.104396
-0.104597
-0.157092
-0.15687
-0.156433
-0.155795
-0.15498
-0.154018
-0.152948
-0.151809
-0.150645
-0.149502
-0.148423
-0.14745
-0.146622
-0.14597
-0.145521
-0.145292
-0.145292
-0.145522
-0.145971
-0.146623
-0.147451
-0.148425
-0.149504
-0.150648
-0.151812
-0.152951
-0.154022
-0.154984
-0.1558
-0.156439
-0.156876
-0.157099
-0.209819
-0.209567
-0.209071
-0.208348
-0.207423
-0.206333
-0.205119
-0.203828
-0.202508
-0.201211
-0.199987
-0.198883
-0.197943
-0.197204
-0.196695
-0.196435
-0.196435
-0.196695
-0.197205
-0.197945
-0.198885
-0.199989
-0.201213
-0.202511
-0.203831
-0.205123
-0.206337
-0.207428
-0.208353
-0.209077
-0.209573
-0.209825
-0.262801
-0.26251
-0.261937
-0.2611
-0.260032
-0.258772
-0.257369
-0.255876
-0.25435
-0.25285
-0.251434
-0.250158
-0.249071
-0.248215
-0.247626
-0.247325
-0.247325
-0.247626
-0.248216
-0.249072
-0.250159
-0.251436
-0.252852
-0.254353
-0.255879
-0.257373
-0.258776
-0.260037
-0.261105
-0.261942
-0.262515
-0.262807
-0.316079
-0.315737
-0.315066
-0.314085
-0.312833
-0.311356
-0.30971
-0.307959
-0.306169
-0.304409
-0.302748
-0.30125
-0.299973
-0.298969
-0.298277
-0.297924
-0.297925
-0.298278
-0.298971
-0.299975
-0.301251
-0.30275
-0.304412
-0.306172
-0.307962
-0.309714
-0.31136
-0.312837
-0.31409
-0.315071
-0.315742
-0.316084
-0.369703
-0.369299
-0.368504
-0.367343
-0.365859
-0.36411
-0.36216
-0.360085
-0.357963
-0.355876
-0.353906
-0.352129
-0.350614
-0.349423
-0.348601
-0.348182
-0.348183
-0.348602
-0.349424
-0.350616
-0.352131
-0.353908
-0.355879
-0.357966
-0.360088
-0.362164
-0.364114
-0.365864
-0.367348
-0.368509
-0.369304
-0.369709
-0.42374
-0.423258
-0.42231
-0.420925
-0.419156
-0.417068
-0.414741
-0.412263
-0.409729
-0.407236
-0.404881
-0.402757
-0.400946
-0.399521
-0.398539
-0.398037
-0.398038
-0.398539
-0.399522
-0.400948
-0.402759
-0.404884
-0.407239
-0.409732
-0.412267
-0.414746
-0.417073
-0.419161
-0.42093
-0.422315
-0.423264
-0.423746
-0.478271
-0.477693
-0.476557
-0.474898
-0.472776
-0.470273
-0.467482
-0.464508
-0.461465
-0.458471
-0.455642
-0.453088
-0.450911
-0.449197
-0.448015
-0.447412
-0.447412
-0.448016
-0.449198
-0.450913
-0.45309
-0.455644
-0.458474
-0.461469
-0.464512
-0.467486
-0.470278
-0.472782
-0.474903
-0.476563
-0.477699
-0.478277
-0.533396
-0.532702
-0.531337
-0.529341
-0.52679
-0.523778
-0.520418
-0.516837
-0.513171
-0.509561
-0.506148
-0.503066
-0.500438
-0.498369
-0.496941
-0.496213
-0.496213
-0.496942
-0.49837
-0.50044
-0.503069
-0.506151
-0.509564
-0.513175
-0.516841
-0.520423
-0.523783
-0.526796
-0.529347
-0.531343
-0.532708
-0.533403
-0.589241
-0.588405
-0.58676
-0.584357
-0.581282
-0.577651
-0.573597
-0.569274
-0.564845
-0.560482
-0.556354
-0.552625
-0.549443
-0.546936
-0.545207
-0.544324
-0.544324
-0.545207
-0.546938
-0.549445
-0.552627
-0.556357
-0.560485
-0.564849
-0.569279
-0.573602
-0.577656
-0.581288
-0.584363
-0.586767
-0.588411
-0.589248
-0.645958
-0.64495
-0.642967
-0.640069
-0.636359
-0.631975
-0.627078
-0.621851
-0.616492
-0.611208
-0.606206
-0.601684
-0.597823
-0.59478
-0.59268
-0.591608
-0.591608
-0.592681
-0.594782
-0.597825
-0.601687
-0.606209
-0.611212
-0.616497
-0.621856
-0.627084
-0.631981
-0.636366
-0.640075
-0.642974
-0.644957
-0.645965
-0.703735
-0.70252
-0.70013
-0.696633
-0.692155
-0.686859
-0.680938
-0.674612
-0.66812
-0.661713
-0.655642
-0.650149
-0.645457
-0.641757
-0.639201
-0.637897
-0.637897
-0.639202
-0.641759
-0.64546
-0.650153
-0.655646
-0.661717
-0.668125
-0.674617
-0.680944
-0.686865
-0.692162
-0.69664
-0.700137
-0.702527
-0.703742
-0.762804
-0.76134
-0.758459
-0.754241
-0.748836
-0.742438
-0.735276
-0.727616
-0.719746
-0.71197
-0.704594
-0.697914
-0.692202
-0.687695
-0.684582
-0.682992
-0.682992
-0.684583
-0.687697
-0.692205
-0.697917
-0.704598
-0.711975
-0.719752
-0.727622
-0.735283
-0.742445
-0.748844
-0.754248
-0.758467
-0.761348
-0.762812
-0.823451
-0.821688
-0.818218
-0.813134
-0.806613
-0.798885
-0.790224
-0.780946
-0.771401
-0.761956
-0.752986
-0.744852
-0.737892
-0.732395
-0.728595
-0.726655
-0.726655
-0.728596
-0.732397
-0.737895
-0.744856
-0.75299
-0.761961
-0.771407
-0.780953
-0.790231
-0.798892
-0.806621
-0.813142
-0.818226
-0.821697
-0.82346
-0.886028
-0.883908
-0.879733
-0.873611
-0.865751
-0.856422
-0.845951
-0.834716
-0.823135
-0.811657
-0.800739
-0.790826
-0.782333
-0.77562
-0.770976
-0.768604
-0.768605
-0.770978
-0.775622
-0.782336
-0.790831
-0.800744
-0.811663
-0.823142
-0.834723
-0.845959
-0.85643
-0.86576
-0.87362
-0.879742
-0.883917
-0.886037
-0.950967
-0.948423
-0.943408
-0.936049
-0.926587
-0.915338
-0.902687
-0.889084
-0.875034
-0.861078
-0.847779
-0.835685
-0.825309
-0.817099
-0.811416
-0.808512
-0.808513
-0.811418
-0.817102
-0.825313
-0.83569
-0.847785
-0.861085
-0.875041
-0.889092
-0.902695
-0.915347
-0.926597
-0.936059
-0.943418
-0.948433
-0.950977
-1.0188
-1.01576
-1.00975
-1.00092
-0.989552
-0.976006
-0.960736
-0.944275
-0.927228
-0.910255
-0.894044
-0.879273
-0.86658
-0.856525
-0.84956
-0.846
-0.846
-0.849562
-0.856529
-0.866584
-0.879278
-0.89405
-0.910262
-0.927236
-0.944283
-0.960745
-0.976016
-0.989562
-1.00093
-1.00976
-1.01577
-1.01881
-1.0902
-1.08657
-1.07939
-1.06883
-1.0552
-1.03892
-1.02051
-1.00061
-0.979929
-0.959277
-0.939501
-0.921441
-0.905893
-0.893561
-0.88501
-0.880638
-0.880639
-0.885012
-0.893564
-0.905898
-0.921447
-0.939508
-0.959285
-0.979938
-1.00061
-1.02052
-1.03893
-1.05521
-1.06884
-1.0794
-1.08658
-1.09021
-1.16598
-1.16166
-1.15312
-1.14053
-1.12424
-1.10472
-1.08257
-1.05853
-1.03346
-1.00832
-0.984179
-0.96207
-0.942999
-0.927848
-0.917334
-0.911955
-0.911956
-0.917336
-0.927852
-0.943004
-0.962077
-0.984187
-1.00833
-1.03347
-1.05854
-1.08258
-1.10473
-1.12425
-1.14054
-1.15313
-1.16167
-1.16599
-1.24715
-1.24204
-1.23193
-1.21699
-1.19759
-1.17427
-1.14768
-1.11869
-1.08831
-1.05772
-1.02821
-1.00111
-0.977682
-0.959038
-0.946086
-0.939459
-0.939459
-0.946089
-0.959042
-0.977688
-1.00112
-1.02822
-1.05773
-1.08832
-1.1187
-1.14769
-1.17428
-1.19761
-1.217
-1.23194
-1.24206
-1.24716
-1.33496
-1.32897
-1.31707
-1.29944
-1.27647
-1.24871
-1.2169
-1.18201
-1.14525
-1.108
-1.07192
-1.03866
-1.00982
-0.986838
-0.970856
-0.962676
-0.962677
-0.970859
-0.986843
-1.00983
-1.03866
-1.07193
-1.10801
-1.14526
-1.18202
-1.21692
-1.24873
-1.27649
-1.29946
-1.31709
-1.32899
-1.33498
-1.43097
-1.42399
-1.41011
-1.38947
-1.36245
-1.32961
-1.29171
-1.24984
-1.20541
-1.16007
-1.11591
-1.07503
-1.03948
-1.01111
-0.99135
-0.981235
-0.981237
-0.991354
-1.01111
-1.03949
-1.07504
-1.11592
-1.16009
-1.20543
-1.24985
-1.29172
-1.32962
-1.36247
-1.38949
-1.41013
-1.42401
-1.43098
-1.53704
-1.52902
-1.513
-1.48908
-1.45759
-1.41902
-1.37414
-1.32411
-1.27058
-1.2154
-1.16131
-1.11098
-1.06711
-1.03201
-1.00755
-0.995018
-0.99502
-1.00755
-1.03202
-1.06712
-1.11099
-1.16132
-1.21542
-1.2706
-1.32413
-1.37416
-1.41904
-1.45761
-1.4891
-1.51301
-1.52904
-1.53706
-1.65547
-1.64638
-1.62816
-1.60082
-1.56457
-1.51977
-1.46708
-1.40764
-1.34323
-1.27631
-1.21006
-1.14802
-1.09377
-1.05028
-1.01995
-1.00444
-1.00444
-1.01996
-1.05029
-1.09378
-1.14804
-1.21008
-1.27633
-1.34324
-1.40766
-1.4671
-1.51979
-1.56459
-1.60084
-1.62818
-1.6464
-1.65549
-1.78898
-1.77889
-1.75858
-1.72792
-1.6869
-1.63565
-1.57457
-1.50463
-1.42764
-1.34661
-1.2654
-1.18856
-1.12124
-1.0674
-1.02992
-1.01074
-1.01074
-1.02992
-1.06741
-1.12126
-1.18857
-1.26542
-1.34663
-1.42766
-1.50465
-1.57459
-1.63567
-1.68692
-1.72794
-1.7586
-1.77891
-1.789
-1.94071
-1.92983
-1.90782
-1.87433
-1.82908
-1.77175
-1.70227
-1.62114
-1.53002
-1.4322
-1.33235
-1.23669
-1.15364
-1.08706
-1.04
-1.01563
-1.01563
-1.04001
-1.08708
-1.15366
-1.23671
-1.33237
-1.43222
-1.53004
-1.62116
-1.70229
-1.77177
-1.8291
-1.87436
-1.90784
-1.92986
-1.94073
-2.11419
-2.10294
-2.08003
-2.04488
-1.99679
-1.93483
-1.85808
-1.76609
-1.65981
-1.54273
-1.42054
-1.30324
-1.20223
-1.11764
-1.0564
-1.02497
-1.02497
-1.0564
-1.11766
-1.20225
-1.30326
-1.42056
-1.54276
-1.65984
-1.76612
-1.85811
-1.93486
-1.99682
-2.04491
-2.08005
-2.10297
-2.11421
-2.3131
-2.3022
-2.2798
-2.24512
-2.197
-2.13372
-2.05303
-1.95298
-1.83297
-1.69503
-1.54637
-1.39604
-1.27404
-1.17934
-1.1103
-1.07242
-1.07242
-1.11031
-1.17936
-1.27407
-1.39607
-1.5464
-1.69507
-1.833
-1.95301
-2.05306
-2.13374
-2.19702
-2.24514
-2.27983
-2.30222
-2.31313
-2.54094
-2.53147
-2.51182
-2.48107
-2.43777
-2.37942
-2.3022
-2.20139
-2.06759
-1.89601
-1.73266
-1.56753
-1.40934
-1.31819
-1.26712
-1.24168
-1.24169
-1.26713
-1.3182
-1.40937
-1.56756
-1.7327
-1.89605
-2.06763
-2.20143
-2.30223
-2.37945
-2.43779
-2.48109
-2.51184
-2.53149
-2.54096
-2.80032
-2.79382
-2.78013
-2.75847
-2.72757
-2.68527
-2.62656
-2.53073
-2.36716
-2.1857
-2.00049
-1.86932
-1.7205
-1.63159
-1.57642
-1.55254
-1.55255
-1.57643
-1.63161
-1.72053
-1.86937
-2.00053
-2.18574
-2.3672
-2.53077
-2.62659
-2.6853
-2.72759
-2.75849
-2.78015
-2.79385
-2.80034
-3.09211
-3.09056
-3.08704
-3.08143
-3.07416
-3.06772
-3.04885
-2.94542
-2.77439
-2.61615
-2.51552
-2.36877
-2.21623
-2.12121
-2.05413
-2.02222
-2.02223
-2.05415
-2.12124
-2.21627
-2.36881
-2.51555
-2.61619
-2.77444
-2.94546
-3.04888
-3.06775
-3.07419
-3.08145
-3.08706
-3.09058
-3.09213
-3.41423
-3.41992
-3.43145
-3.4502
-3.48196
-3.53498
-3.56059
-3.44619
-3.38035
-3.32758
-3.23479
-3.03699
-2.82324
-2.6808
-2.58319
-2.53525
-2.53526
-2.5832
-2.68083
-2.82328
-3.03704
-3.23482
-3.32761
-3.38038
-3.44622
-3.56061
-3.535
-3.48198
-3.45021
-3.43146
-3.41993
-3.41425
-3.75966
-3.77501
-3.80683
-3.85933
-3.94747
-4.0704
-4.11165
-4.11074
-4.13987
-4.14212
-4.06193
-3.8101
-3.50282
-3.28944
-3.1535
-3.08667
-3.08667
-3.15352
-3.28947
-3.50287
-3.81016
-4.06198
-4.14216
-4.13991
-4.11077
-4.11169
-4.07042
-3.94748
-3.85934
-3.80685
-3.77502
-3.75967
-4.11653
-4.14326
-4.19935
-4.29444
-4.45476
-4.66062
-4.75047
-4.97185
-5.00578
-4.97866
-5.05319
-4.77467
-4.30133
-3.97561
-3.78648
-3.69058
-3.69059
-3.7865
-3.97564
-4.30139
-4.77474
-5.05324
-4.9787
-5.00582
-4.97187
-4.7505
-4.66062
-4.45476
-4.29444
-4.19935
-4.14327
-4.11653
-4.46906
-4.50722
-4.5882
-4.72882
-4.95991
-5.24886
-5.47965
-5.76623
-5.77114
-5.76969
-5.83921
-5.65328
-5.1514
-4.67323
-4.4321
-4.3024
-4.3024
-4.43212
-4.67327
-5.15147
-5.65331
-5.83924
-5.76971
-5.77119
-5.76627
-5.47964
-5.24885
-4.9599
-4.72882
-4.58819
-4.50722
-4.46905
-4.7984
-4.84638
-4.94943
-5.12876
-5.41152
-5.76021
-6.14614
-6.46227
-6.33717
-6.25057
-6.13802
-6.11921
-5.80486
-5.2637
-5.01078
-4.86309
-4.8631
-5.01079
-5.26374
-5.80492
-6.11921
-6.13803
-6.25061
-6.33723
-6.46232
-6.14613
-5.76019
-5.4115
-5.12874
-4.94941
-4.84637
-4.79839
-5.0866
-5.1415
-5.25971
-5.46182
-5.77171
-6.15211
-6.64653
-6.98412
-6.81246
-6.58847
-6.39925
-6.42387
-6.24941
-5.71855
-5.47762
-5.33023
-5.33024
-5.47763
-5.71858
-6.24944
-6.42386
-6.39925
-6.58851
-6.81252
-6.98421
-6.64651
-6.15208
-5.77167
-5.4618
-5.25969
-5.14148
-5.08658
-5.32201
-5.37944
-5.50183
-5.70329
-6.01726
-6.39418
-6.8939
-7.29927
-7.12137
-6.83415
-6.59025
-6.58651
-6.50049
-6.01734
-5.81429
-5.67691
-5.67691
-5.81429
-6.01733
-6.50049
-6.58649
-6.59024
-6.83418
-7.12146
-7.29951
-6.89386
-6.39414
-6.01722
-5.70325
-5.5018
-5.37941
-5.32199
-5.4986
-5.55385
-5.66752
-5.85257
-6.13008
-6.47903
-6.87118
-7.18563
-7.14408
-6.89159
-6.68311
-6.65527
-6.61364
-6.15819
-6.02249
-5.89743
-5.89743
-6.02247
-6.15808
-6.61367
-6.65524
-6.68308
-6.89156
-7.14404
-7.18537
-6.87106
-6.47895
-6.13001
-5.85252
-5.66747
-5.55382
-5.49857
-5.62064
-5.667
-5.76275
-5.91591
-6.13709
-6.4163
-6.6976
-6.90581
-6.92304
-6.78792
-6.66087
-6.62982
-6.5738
-6.24576
-6.11494
-6.02376
-6.02376
-6.11491
-6.24571
-6.57378
-6.62976
-6.66083
-6.78787
-6.92296
-6.90568
-6.69749
-6.41621
-6.13702
-5.91586
-5.76271
-5.66696
-5.6206
-5.69576
-5.73211
-5.80714
-5.92424
-6.08686
-6.28757
-6.48965
-6.62795
-6.65776
-6.6068
-6.5474
-6.53042
-6.45239
-6.24554
-6.14041
-6.0831
-6.0831
-6.14039
-6.24551
-6.45236
-6.53036
-6.54735
-6.60674
-6.65768
-6.62786
-6.48956
-6.28749
-6.08679
-5.92419
-5.80709
-5.73206
-5.69572
-5.73775
-5.76514
-5.82086
-5.90582
-6.01949
-6.15605
-6.29596
-6.39491
-6.42914
-6.40853
-6.37692
-6.35433
-6.29796
-6.19033
-6.12121
-6.08731
-6.08731
-6.12119
-6.1903
-6.29792
-6.35428
-6.37686
-6.40847
-6.42907
-6.39483
-6.29588
-6.15598
-6.01943
-5.90577
-5.82082
-5.7651
-5.73771
-5.76003
-5.77968
-5.8192
-5.87814
-5.95419
-6.04222
-6.13024
-6.1957
-6.22137
-6.21367
-6.19949
-6.16937
-6.16159
-6.11493
-6.07553
-6.05582
-6.05581
-6.07551
-6.1149
-6.16154
-6.16931
-6.19943
-6.21361
-6.2213
-6.19563
-6.13017
-6.04216
-5.95414
-5.8781
-5.81915
-5.77964
-5.75999
-5.772
-5.78547
-5.81221
-5.85096
-5.89898
-5.95194
-6.00265
-6.04083
-6.05799
-6.05882
-6.05465
-6.02562
-6.05559
-6.04255
-6.02384
-6.01429
-6.01429
-6.02382
-6.04252
-6.05555
-6.02556
-6.05459
-6.05876
-6.05793
-6.04077
-6.00259
-5.95189
-5.89893
-5.85091
-5.81217
-5.78543
-5.77197
-5.78001
-5.78877
-5.80582
-5.82973
-5.85801
-5.88745
-5.91392
-5.9336
-5.94493
-5.95143
-5.95674
-5.93178
-5.97655
-5.98192
-5.97515
-5.97143
-5.97142
-5.97514
-5.9819
-5.97651
-5.93173
-5.95668
-5.95138
-5.94488
-5.93355
-5.91387
-5.88741
-5.85797
-5.82969
-5.80578
-5.78874
-5.77997
-5.78768
-5.79299
-5.80317
-5.81691
-5.83221
-5.84689
-5.85902
-5.8681
-5.87598
-5.88725
-5.90388
-5.89208
-5.923
-5.93437
-5.93343
-5.9322
-5.9322
-5.93342
-5.93435
-5.92297
-5.89204
-5.90383
-5.8872
-5.87594
-5.86806
-5.85897
-5.84685
-5.83217
-5.81687
-5.80313
-5.79296
-5.78765
-5.79699
-5.79999
-5.8056
-5.81282
-5.82016
-5.82627
-5.83062
-5.83437
-5.84063
-5.85375
-5.87148
-5.87367
-5.88579
-5.89792
-5.89986
-5.90032
-5.90032
-5.89985
-5.8979
-5.88576
-5.87363
-5.87145
-5.85371
-5.84059
-5.83434
-5.83059
-5.82623
-5.82012
-5.81279
-5.80557
-5.79995
-5.79696
-5.80904
-5.81056
-5.81332
-5.81659
-5.81939
-5.82103
-5.82178
-5.82347
-5.8294
-5.84165
-5.85496
-5.85024
-5.85689
-5.87423
-5.87625
-5.87732
-5.87732
-5.87624
-5.87421
-5.85687
-5.85022
-5.85494
-5.84162
-5.82937
-5.82344
-5.82175
-5.821
-5.81936
-5.81656
-5.8133
-5.81053
-5.80902
-5.82419
-5.82479
-5.82584
-5.82684
-5.82725
-5.82687
-5.82639
-5.82787
-5.83434
-5.84601
-5.84883
-5.8582
-5.84329
-5.86655
-5.86432
-5.86375
-5.86375
-5.86431
-5.86654
-5.84327
-5.85818
-5.84881
-5.84599
-5.83432
-5.82785
-5.82636
-5.82685
-5.82723
-5.82682
-5.82581
-5.82477
-5.82416
-5.84231
-5.84237
-5.8424
-5.84212
-5.84131
-5.84007
-5.83924
-5.84061
-5.84638
-5.85572
-5.85756
-5.89355
-5.86103
-5.87314
-5.86209
-5.85772
-5.85772
-5.86208
-5.87313
-5.86101
-5.89354
-5.85754
-5.8557
-5.84636
-5.84059
-5.83921
-5.84005
-5.84129
-5.8421
-5.84237
-5.84235
-5.84229
-5.86314
-5.86286
-5.86226
-5.86122
-5.85967
-5.85787
-5.85659
-5.85706
-5.86032
-5.86468
-5.86522
-5.8761
-5.88486
-5.88258
-5.86418
-5.85619
-5.85619
-5.86417
-5.88257
-5.88485
-5.87608
-5.86521
-5.86467
-5.8603
-5.85704
-5.85657
-5.85785
-5.85965
-5.8612
-5.86224
-5.86284
-5.86312
-5.88637
-5.88587
-5.88487
-5.88329
-5.88116
-5.87875
-5.87669
-5.87585
-5.87678
-5.87831
-5.87839
-5.87742
-5.89427
-5.88866
-5.8672
-5.85743
-5.85743
-5.86719
-5.88865
-5.89426
-5.87741
-5.87838
-5.8783
-5.87676
-5.87584
-5.87668
-5.87873
-5.88115
-5.88328
-5.88485
-5.88585
-5.88635
-5.91175
-5.91111
-5.90984
-5.90789
-5.9053
-5.90231
-5.89943
-5.89738
-5.89663
-5.89672
-5.89696
-5.89739
-5.90485
-5.89548
-5.8719
-5.86142
-5.86142
-5.87189
-5.89547
-5.90484
-5.89737
-5.89694
-5.8967
-5.89662
-5.89736
-5.89941
-5.90229
-5.90528
-5.90787
-5.90982
-5.91109
-5.91174
-5.93909
-5.93836
-5.93691
-5.93473
-5.93184
-5.92846
-5.925
-5.92206
-5.92008
-5.91901
-5.91863
-5.91881
-5.92022
-5.9065
-5.88029
-5.86881
-5.86881
-5.88028
-5.90649
-5.92021
-5.9188
-5.91862
-5.919
-5.92006
-5.92205
-5.92499
-5.92844
-5.93182
-5.93471
-5.9369
-5.93835
-5.93908
-5.96822
-5.96745
-5.96591
-5.9636
-5.96056
-5.95698
-5.9532
-5.94969
-5.94685
-5.94478
-5.94334
-5.94245
-5.9394
-5.92199
-5.89317
-5.88009
-5.88009
-5.89317
-5.92198
-5.93939
-5.94244
-5.94333
-5.94477
-5.94684
-5.94968
-5.95318
-5.95697
-5.96055
-5.96358
-5.96589
-5.96743
-5.96821
-5.99899
-5.99821
-5.99665
-5.99432
-5.99126
-5.98764
-5.98374
-5.97995
-5.97664
-5.97394
-5.97172
-5.96981
-5.9648
-5.94237
-5.90993
-5.89509
-5.89509
-5.90992
-5.94236
-5.96479
-5.96979
-5.97171
-5.97393
-5.97663
-5.97994
-5.98372
-5.98762
-5.99125
-5.99431
-5.99664
-5.99819
-5.99898
-6.03127
-6.03051
-6.02899
-6.02672
-6.02376
-6.02023
-6.0164
-6.0126
-6.00919
-6.00639
-6.00415
-6.00195
-5.99505
-5.96624
-5.92966
-5.91317
-5.91317
-5.92966
-5.96623
-5.99504
-6.00193
-6.00414
-6.00638
-6.00918
-6.01259
-6.01639
-6.02022
-6.02375
-6.02671
-6.02898
-6.03049
-6.03126
-6.06492
-6.06421
-6.06278
-6.06066
-6.05788
-6.05458
-6.05098
-6.04737
-6.04413
-6.04161
-6.04006
-6.03899
-6.0305
-5.99199
-5.95199
-5.93379
-5.93379
-5.95198
-5.99199
-6.03049
-6.03898
-6.04005
-6.0416
-6.04412
-6.04736
-6.05097
-6.05457
-6.05787
-6.06064
-6.06277
-6.06419
-6.06491
-6.09983
-6.09917
-6.09788
-6.09596
-6.09347
-6.0905
-6.08724
-6.08394
-6.08091
-6.07865
-6.07793
-6.07889
-6.07132
-6.02072
-5.97641
-5.9561
-5.95609
-5.97641
-6.02071
-6.07131
-6.07888
-6.07792
-6.07864
-6.0809
-6.08392
-6.08723
-6.09049
-6.09345
-6.09595
-6.09787
-6.09916
-6.09981
-6.13585
-6.13528
-6.13415
-6.13248
-6.13032
-6.12775
-6.12491
-6.12193
-6.11902
-6.11663
-6.11608
-6.1182
-6.1142
-6.05046
-6.00118
-5.97874
-5.97874
-6.00118
-6.05045
-6.11419
-6.11819
-6.11607
-6.11662
-6.11901
-6.12192
-6.1249
-6.12774
-6.13031
-6.13247
-6.13414
-6.13526
-6.13584
-6.17287
-6.17238
-6.17144
-6.17005
-6.16825
-6.16613
-6.16373
-6.16107
-6.15811
-6.15503
-6.15283
-6.15041
-6.14954
-6.07724
-6.02456
-6.00063
-6.00063
-6.02456
-6.07723
-6.14953
-6.1504
-6.15282
-6.15502
-6.1581
-6.16105
-6.16372
-6.16612
-6.16824
-6.17003
-6.17143
-6.17237
-6.17285
-6.21076
-6.21038
-6.20963
-6.20853
-6.20713
-6.20546
-6.20351
-6.20115
-6.19808
-6.19406
-6.18912
-6.17768
-6.18001
-6.10193
-6.04654
-6.02144
-6.02144
-6.04654
-6.10193
-6.18
-6.17767
-6.18911
-6.19405
-6.19807
-6.20114
-6.2035
-6.20545
-6.20712
-6.20852
-6.20962
-6.21037
-6.21075
-6.24946
-6.24917
-6.24862
-6.24782
-6.24681
-6.24559
-6.24408
-6.24203
-6.23893
-6.2342
-6.22732
-6.20804
-6.21201
-6.12586
-6.0674
-6.04111
-6.04111
-6.06739
-6.12585
-6.212
-6.20803
-6.22731
-6.23419
-6.23892
-6.24202
-6.24407
-6.24558
-6.2468
-6.24781
-6.24861
-6.24916
-6.24945
-6.28887
-6.28867
-6.28831
-6.28778
-6.28713
-6.28632
-6.28523
-6.28352
-6.28056
-6.27558
-6.26775
-6.24207
-6.24061
-6.14787
-6.08702
-6.05974
-6.05974
-6.08702
-6.14786
-6.2406
-6.24206
-6.26775
-6.27557
-6.28055
-6.28351
-6.28522
-6.28631
-6.28712
-6.28777
-6.28829
-6.28866
-6.28886
-6.32889
-6.32878
-6.32858
-6.3283
-6.32796
-6.32752
-6.32681
-6.32545
-6.32282
-6.31812
-6.31024
-6.28113
-6.26579
-6.16831
-6.10612
-6.07803
-6.07803
-6.10611
-6.16831
-6.26578
-6.28112
-6.31023
-6.31811
-6.32281
-6.32544
-6.3268
-6.32751
-6.32795
-6.32829
-6.32857
-6.32877
-6.32888
-6.36946
-6.36943
-6.36938
-6.36933
-6.36926
-6.36913
-6.36873
-6.36771
-6.36554
-6.36167
-6.35479
-6.32678
-6.28939
-6.18811
-6.12564
-6.09703
-6.09703
-6.12564
-6.18811
-6.28938
-6.32677
-6.35478
-6.36166
-6.36553
-6.3677
-6.36872
-6.36912
-6.36926
-6.36932
-6.36937
-6.36942
-6.36945
-6.41057
-6.41061
-6.4107
-6.41084
-6.41102
-6.41113
-6.41097
-6.41018
-6.40843
-6.40578
-6.40143
-6.38071
-6.31342
-6.20889
-6.14688
-6.11805
-6.11805
-6.14688
-6.20888
-6.31341
-6.38071
-6.40143
-6.40578
-6.40842
-6.41017
-6.41096
-6.41112
-6.41101
-6.41083
-6.41069
-6.4106
-6.41056
-6.45219
-6.4523
-6.45253
-6.45285
-6.45323
-6.45353
-6.45349
-6.45273
-6.45094
-6.44878
-6.44671
-6.44357
-6.33863
-6.23165
-6.17122
-6.14282
-6.14282
-6.17122
-6.23164
-6.33863
-6.44357
-6.4467
-6.44878
-6.45094
-6.45272
-6.45348
-6.45352
-6.45322
-6.45284
-6.45252
-6.45229
-6.45218
-6.49433
-6.49451
-6.49487
-6.49537
-6.49594
-6.4964
-6.49639
-6.4954
-6.49273
-6.48704
-6.4711
-6.49347
-6.36182
-6.25718
-6.20059
-6.17385
-6.17385
-6.20058
-6.25718
-6.36182
-6.49346
-6.47109
-6.48703
-6.49272
-6.49539
-6.49638
-6.49639
-6.49593
-6.49536
-6.49486
-6.4945
-6.49432
-6.537
-6.53726
-6.53776
-6.53844
-6.53921
-6.53985
-6.53992
-6.53885
-6.53583
-6.52832
-6.49861
-6.51022
-6.38225
-6.28893
-6.23869
-6.21478
-6.21478
-6.23869
-6.28893
-6.38224
-6.51021
-6.4986
-6.52831
-6.53582
-6.53884
-6.53991
-6.53984
-6.53921
-6.53843
-6.53775
-6.53725
-6.53699
-6.58025
-6.58058
-6.58122
-6.5821
-6.58309
-6.58391
-6.58413
-6.58312
-6.58038
-6.57408
-6.55754
-6.52166
-6.40902
-6.33268
-6.29018
-6.26984
-6.26984
-6.29018
-6.33267
-6.40902
-6.52165
-6.55753
-6.57408
-6.58037
-6.58311
-6.58412
-6.58391
-6.58308
-6.5821
-6.58122
-6.58058
-6.58024
-6.62412
-6.62453
-6.62532
-6.6264
-6.6276
-6.62859
-6.62884
-6.62749
-6.62257
-6.61015
-6.63125
-6.54875
-6.45236
-6.3936
-6.35983
-6.34366
-6.34366
-6.35983
-6.3936
-6.45236
-6.54874
-6.63125
-6.61014
-6.62256
-6.62748
-6.62884
-6.62858
-6.62759
-6.62639
-6.62531
-6.62453
-6.62411
-6.66869
-6.66919
-6.67013
-6.67141
-6.67284
-6.67406
-6.67442
-6.67293
-6.66773
-6.65934
-6.6802
-6.5904
-6.51766
-6.47639
-6.45229
-6.44077
-6.44077
-6.45228
-6.47639
-6.51765
-6.59039
-6.68019
-6.65933
-6.66772
-6.67292
-6.67442
-6.67405
-6.67283
-6.6714
-6.67012
-6.66918
-6.66868
-6.71408
-6.71465
-6.71573
-6.7172
-6.71884
-6.72033
-6.72084
-6.71837
-6.70901
-6.73206
-6.71762
-6.65411
-6.61046
-6.586
-6.57149
-6.56461
-6.56461
-6.57149
-6.58599
-6.61046
-6.6541
-6.71762
-6.73205
-6.709
-6.71836
-6.72083
-6.72032
-6.71883
-6.71719
-6.71572
-6.71464
-6.71407
-6.76046
-6.76108
-6.76227
-6.7639
-6.76574
-6.76753
-6.76873
-6.76748
-6.77593
-6.81381
-6.78798
-6.755
-6.73618
-6.72594
-6.72005
-6.71732
-6.71732
-6.72005
-6.72594
-6.73618
-6.755
-6.78797
-6.8138
-6.77592
-6.76747
-6.76872
-6.76752
-6.76574
-6.7639
-6.76226
-6.76107
-6.76045
-6.80804
-6.8087
-6.80998
-6.81181
-6.81385
-6.81586
-6.81803
-6.82761
-6.88099
-6.9068
-6.9004
-6.89621
-6.89645
-6.8977
-6.89887
-6.89951
-6.89951
-6.89886
-6.8977
-6.89644
-6.89621
-6.90039
-6.90679
-6.88099
-6.82761
-6.81802
-6.81585
-6.81384
-6.8118
-6.80997
-6.80869
-6.80803
-6.85725
-6.8579
-6.8593
-6.86156
-6.86359
-6.86539
-6.88764
-6.94705
-7.01038
-7.04277
-7.06179
-7.07807
-7.09116
-7.1008
-7.10715
-7.11028
-7.11028
-7.10715
-7.1008
-7.09115
-7.07806
-7.06178
-7.04277
-7.01037
-6.94704
-6.88763
-6.86539
-6.86358
-6.86155
-6.85929
-6.85789
-6.85725
-6.90845
-6.90909
-6.91016
-6.91309
-6.9335
-6.98516
-7.04763
-7.12636
-7.1903
-7.23529
-7.27018
-7.29749
-7.31821
-7.33315
-7.34283
-7.34758
-7.34758
-7.34283
-7.33315
-7.3182
-7.29748
-7.27018
-7.23529
-7.19029
-7.12635
-7.04762
-6.98515
-6.93349
-6.91308
-6.91015
-6.90909
-6.90844
-7.00907
-7.01822
-7.04191
-7.0833
-7.13346
-7.20194
-7.28369
-7.3617
-7.42595
-7.47708
-7.51765
-7.54952
-7.57389
-7.59153
-7.60299
-7.60862
-7.60862
-7.60299
-7.59153
-7.57389
-7.54952
-7.51764
-7.47707
-7.42595
-7.36169
-7.28368
-7.20193
-7.13345
-7.08329
-7.0419
-7.01821
-7.00906
-7.27647
-7.29408
-7.32897
-7.37987
-7.44002
-7.50805
-7.57983
-7.64697
-7.70588
-7.75543
-7.79605
-7.82861
-7.85383
-7.87225
-7.88429
-7.89023
-7.89023
-7.88429
-7.87225
-7.85383
-7.82861
-7.79604
-7.75542
-7.70587
-7.64696
-7.57982
-7.50804
-7.44001
-7.37986
-7.32896
-7.29407
-7.27645
-7.66204
-7.67635
-7.70414
-7.74378
-7.7932
-7.84978
-7.9082
-7.96434
-8.01572
-8.06058
-8.09843
-8.12937
-8.15368
-8.17162
-8.18342
-8.18927
-8.18927
-8.18342
-8.17162
-8.15368
-8.12937
-8.09842
-8.06058
-8.01572
-7.96434
-7.9082
-7.84977
-7.79319
-7.74377
-7.70413
-7.67634
-7.66203
-8.05717
-8.06857
-8.09086
-8.12295
-8.16296
-8.20811
-8.25533
-8.30169
-8.34581
-8.38511
-8.41897
-8.44713
-8.46953
-8.48623
-8.49729
-8.50279
-8.50279
-8.49729
-8.48623
-8.46953
-8.44712
-8.41896
-8.3851
-8.34581
-8.30168
-8.25532
-8.2081
-8.16295
-8.12294
-8.09085
-8.06856
-8.05716
-8.45464
-8.46384
-8.4818
-8.50756
-8.53959
-8.57597
-8.61466
-8.65368
-8.6901
-8.72362
-8.75311
-8.77802
-8.79806
-8.81313
-8.82318
-8.82819
-8.82819
-8.82318
-8.81313
-8.79806
-8.77801
-8.75311
-8.72362
-8.69009
-8.65367
-8.61465
-8.57596
-8.53958
-8.50755
-8.48179
-8.46383
-8.45463
-8.85184
-8.85923
-8.87363
-8.89431
-8.92009
-8.94956
-8.98108
-9.013
-9.04364
-9.07205
-9.09735
-9.11897
-9.13654
-9.14985
-9.15877
-9.16324
-9.16324
-9.15877
-9.14985
-9.13654
-9.11897
-9.09735
-9.07204
-9.04363
-9.01299
-8.98107
-8.94955
-8.92008
-8.8943
-8.87362
-8.85922
-8.85183
-9.24746
-9.2534
-9.26498
-9.28163
-9.30246
-9.32634
-9.35203
-9.37825
-9.40374
-9.42761
-9.4491
-9.46763
-9.48281
-9.49438
-9.50217
-9.50608
-9.50608
-9.50217
-9.49438
-9.48281
-9.46762
-9.44909
-9.42761
-9.40374
-9.37825
-9.35202
-9.32633
-9.30245
-9.28163
-9.26497
-9.25339
-9.24745
-9.64096
-9.64575
-9.65509
-9.66853
-9.68538
-9.70477
-9.72572
-9.74726
-9.76839
-9.78834
-9.80644
-9.82217
-9.83515
-9.84509
-9.85181
-9.8552
-9.85519
-9.85181
-9.84509
-9.83515
-9.82217
-9.80644
-9.78833
-9.76838
-9.74725
-9.72572
-9.70476
-9.68537
-9.66853
-9.65508
-9.64574
-9.64095
-10.0322
-10.0361
-10.0436
-10.0545
-10.0682
-10.0839
-10.101
-10.1187
-10.1362
-10.1528
-10.168
-10.1812
-10.1922
-10.2007
-10.2065
-10.2093
-10.2093
-10.2065
-10.2007
-10.1922
-10.1812
-10.168
-10.1528
-10.1362
-10.1187
-10.101
-10.0839
-10.0681
-10.0545
-10.0436
-10.0361
-10.0322
-10.4213
-10.4244
-10.4305
-10.4393
-10.4504
-10.4633
-10.4772
-10.4918
-10.5062
-10.52
-10.5327
-10.5438
-10.5531
-10.5602
-10.5651
-10.5676
-10.5676
-10.5651
-10.5602
-10.5531
-10.5438
-10.5326
-10.52
-10.5062
-10.4918
-10.4772
-10.4632
-10.4504
-10.4393
-10.4305
-10.4244
-10.4213
-10.8083
-10.8109
-10.8158
-10.823
-10.832
-10.8425
-10.8539
-10.8658
-10.8777
-10.8892
-10.8997
-10.909
-10.9168
-10.9228
-10.9269
-10.929
-10.929
-10.9269
-10.9228
-10.9168
-10.909
-10.8997
-10.8892
-10.8777
-10.8658
-10.8539
-10.8425
-10.832
-10.823
-10.8158
-10.8108
-10.8083
-11.1936
-11.1956
-11.1997
-11.2055
-11.2129
-11.2214
-11.2308
-11.2406
-11.2504
-11.2598
-11.2686
-11.2764
-11.2829
-11.2879
-11.2914
-11.2931
-11.2931
-11.2914
-11.2879
-11.2829
-11.2764
-11.2686
-11.2598
-11.2504
-11.2406
-11.2308
-11.2214
-11.2128
-11.2055
-11.1997
-11.1956
-11.1936
-11.5773
-11.579
-11.5822
-11.587
-11.593
-11.6
-11.6077
-11.6157
-11.6238
-11.6316
-11.6389
-11.6453
-11.6508
-11.655
-11.6579
-11.6593
-11.6593
-11.6579
-11.655
-11.6508
-11.6453
-11.6389
-11.6316
-11.6238
-11.6157
-11.6077
-11.6
-11.593
-11.587
-11.5822
-11.579
-11.5773
-11.9596
-11.961
-11.9637
-11.9676
-11.9725
-11.9782
-11.9845
-11.9911
-11.9978
-12.0042
-12.0103
-12.0156
-12.0201
-12.0236
-12.026
-12.0273
-12.0273
-12.026
-12.0236
-12.0201
-12.0156
-12.0103
-12.0042
-11.9978
-11.9911
-11.9845
-11.9782
-11.9725
-11.9676
-11.9637
-11.961
-11.9596
-12.3409
-12.342
-12.3442
-12.3474
-12.3514
-12.3561
-12.3612
-12.3667
-12.3722
-12.3775
-12.3825
-12.3869
-12.3906
-12.3936
-12.3956
-12.3966
-12.3966
-12.3956
-12.3936
-12.3906
-12.3869
-12.3825
-12.3775
-12.3722
-12.3667
-12.3612
-12.3561
-12.3514
-12.3473
-12.3442
-12.342
-12.3409
-12.7211
-12.7221
-12.7238
-12.7264
-12.7297
-12.7336
-12.7378
-12.7423
-12.7468
-12.7512
-12.7553
-12.759
-12.7621
-12.7645
-12.7662
-12.767
-12.767
-12.7662
-12.7645
-12.7621
-12.759
-12.7553
-12.7512
-12.7468
-12.7423
-12.7378
-12.7336
-12.7297
-12.7264
-12.7238
-12.7221
-12.7211
-13.1006
-13.1014
-13.1028
-13.1049
-13.1076
-13.1108
-13.1143
-13.118
-13.1217
-13.1253
-13.1287
-13.1317
-13.1343
-13.1363
-13.1377
-13.1384
-13.1384
-13.1377
-13.1363
-13.1343
-13.1317
-13.1287
-13.1253
-13.1217
-13.118
-13.1143
-13.1108
-13.1076
-13.1049
-13.1028
-13.1014
-13.1006
-13.4794
-13.48
-13.4812
-13.483
-13.4852
-13.4878
-13.4906
-13.4936
-13.4967
-13.4997
-13.5025
-13.505
-13.5071
-13.5088
-13.5099
-13.5105
-13.5105
-13.5099
-13.5088
-13.5071
-13.505
-13.5025
-13.4997
-13.4967
-13.4936
-13.4906
-13.4878
-13.4852
-13.483
-13.4812
-13.48
-13.4794
-13.8576
-13.8581
-13.8591
-13.8605
-13.8624
-13.8645
-13.8668
-13.8693
-13.8719
-13.8743
-13.8766
-13.8787
-13.8805
-13.8818
-13.8828
-13.8833
-13.8833
-13.8828
-13.8818
-13.8805
-13.8787
-13.8766
-13.8743
-13.8719
-13.8693
-13.8668
-13.8645
-13.8624
-13.8605
-13.8591
-13.8581
-13.8576
-14.2354
-14.2358
-14.2366
-14.2378
-14.2393
-14.241
-14.243
-14.245
-14.2471
-14.2491
-14.251
-14.2527
-14.2542
-14.2553
-14.2561
-14.2565
-14.2565
-14.2561
-14.2553
-14.2542
-14.2527
-14.251
-14.2491
-14.2471
-14.245
-14.243
-14.241
-14.2393
-14.2378
-14.2366
-14.2358
-14.2354
-14.6128
-14.6131
-14.6138
-14.6147
-14.616
-14.6174
-14.619
-14.6207
-14.6224
-14.6241
-14.6256
-14.6271
-14.6282
-14.6292
-14.6298
-14.6302
-14.6302