/*--------------------------------*- C++ -*----------------------------------*\
  =========                 |
  \\      /  F ield         | OpenFOAM: The Open Source CFD Toolbox
   \\    /   O peration     | Website:  https://openfoam.org
    \\  /    A nd           | Version:  9
     \\/     M anipulation  |
\*---------------------------------------------------------------------------*/
FoamFile
{
    format      ascii;
    class       volScalarField;
    location    "0.8";
    object      p_rgh;
}
// * * * * * * * * * * * * * * * * * * * * * * * * * * * * * * * * * * * * * //

dimensions      [1 -1 -2 0 0 0 0];

internalField   nonuniform List<scalar> 
4096
(
-3.29784
-3.29766
-3.29731
-3.29679
-3.29613
-3.29535
-3.29448
-3.29356
-3.29261
-3.29168
-3.29081
-3.29002
-3.28935
-3.28882
-3.28845
-3.28827
-3.28827
-3.28845
-3.28882
-3.28935
-3.29002
-3.29081
-3.29168
-3.29261
-3.29356
-3.29448
-3.29535
-3.29613
-3.2968
-3.29732
-3.29767
-3.29785
-3.29802
-3.29783
-3.29747
-3.29693
-3.29624
-3.29543
-3.29453
-3.29357
-3.29259
-3.29163
-3.29072
-3.28991
-3.28921
-3.28866
-3.28828
-3.28809
-3.28809
-3.28828
-3.28866
-3.28921
-3.28991
-3.29073
-3.29163
-3.2926
-3.29358
-3.29454
-3.29544
-3.29625
-3.29694
-3.29747
-3.29784
-3.29803
-3.29839
-3.29819
-3.29779
-3.29722
-3.29648
-3.29561
-3.29464
-3.29361
-3.29256
-3.29153
-3.29055
-3.28967
-3.28893
-3.28834
-3.28793
-3.28773
-3.28773
-3.28793
-3.28834
-3.28893
-3.28968
-3.29056
-3.29153
-3.29256
-3.29362
-3.29465
-3.29561
-3.29648
-3.29722
-3.2978
-3.29819
-3.2984
-3.29896
-3.29874
-3.2983
-3.29766
-3.29685
-3.29589
-3.29482
-3.29368
-3.29251
-3.29137
-3.29029
-3.28932
-3.28849
-3.28784
-3.28739
-3.28716
-3.28716
-3.28739
-3.28784
-3.28849
-3.28932
-3.29029
-3.29137
-3.29252
-3.29368
-3.29482
-3.29589
-3.29685
-3.29767
-3.29831
-3.29874
-3.29897
-3.29975
-3.2995
-3.29901
-3.29828
-3.29736
-3.29627
-3.29505
-3.29376
-3.29244
-3.29115
-3.28992
-3.28882
-3.28788
-3.28714
-3.28663
-3.28637
-3.28637
-3.28663
-3.28714
-3.28788
-3.28882
-3.28992
-3.29115
-3.29245
-3.29377
-3.29506
-3.29627
-3.29736
-3.29829
-3.29901
-3.29951
-3.29976
-3.3008
-3.30051
-3.29994
-3.2991
-3.29804
-3.29678
-3.29537
-3.29388
-3.29235
-3.29085
-3.28944
-3.28816
-3.28707
-3.28622
-3.28563
-3.28533
-3.28533
-3.28563
-3.28622
-3.28708
-3.28816
-3.28944
-3.29086
-3.29236
-3.29388
-3.29538
-3.29678
-3.29804
-3.29911
-3.29995
-3.30052
-3.30081
-3.30215
-3.30181
-3.30114
-3.30016
-3.2989
-3.29743
-3.29578
-3.29403
-3.29224
-3.29048
-3.28882
-3.28732
-3.28605
-3.28504
-3.28435
-3.284
-3.284
-3.28435
-3.28504
-3.28605
-3.28732
-3.28882
-3.29048
-3.29224
-3.29403
-3.29579
-3.29743
-3.29891
-3.30016
-3.30114
-3.30181
-3.30216
-3.30384
-3.30344
-3.30264
-3.30148
-3.3
-3.29825
-3.2963
-3.29423
-3.2921
-3.29002
-3.28805
-3.28627
-3.28475
-3.28356
-3.28274
-3.28232
-3.28232
-3.28274
-3.28356
-3.28476
-3.28627
-3.28805
-3.29002
-3.29211
-3.29423
-3.2963
-3.29825
-3.3
-3.30149
-3.30265
-3.30344
-3.30385
-3.30595
-3.30547
-3.30452
-3.30313
-3.30136
-3.29928
-3.29695
-3.29447
-3.29194
-3.28944
-3.28709
-3.28497
-3.28315
-3.28173
-3.28075
-3.28025
-3.28025
-3.28075
-3.28173
-3.28316
-3.28497
-3.28709
-3.28945
-3.29194
-3.29448
-3.29695
-3.29928
-3.30137
-3.30314
-3.30452
-3.30547
-3.30595
-3.30855
-3.30797
-3.30683
-3.30517
-3.30305
-3.30055
-3.29776
-3.29479
-3.29174
-3.28875
-3.28592
-3.28336
-3.28119
-3.27947
-3.27829
-3.27769
-3.27769
-3.27829
-3.27948
-3.28119
-3.28337
-3.28592
-3.28875
-3.29175
-3.29479
-3.29776
-3.30056
-3.30306
-3.30518
-3.30684
-3.30798
-3.30855
-3.31174
-3.31105
-3.30968
-3.30769
-3.30514
-3.30212
-3.29876
-3.29518
-3.29152
-3.28791
-3.28449
-3.28141
-3.27878
-3.27671
-3.27529
-3.27456
-3.27456
-3.27529
-3.27672
-3.27879
-3.28141
-3.2845
-3.28791
-3.29152
-3.29519
-3.29877
-3.30213
-3.30514
-3.30769
-3.30969
-3.31105
-3.31175
-3.31565
-3.31482
-3.31317
-3.31077
-3.3077
-3.30406
-3.30001
-3.29569
-3.29126
-3.2869
-3.28277
-3.27904
-3.27586
-3.27335
-3.27162
-3.27074
-3.27074
-3.27162
-3.27335
-3.27586
-3.27904
-3.28277
-3.2869
-3.29126
-3.29569
-3.30002
-3.30407
-3.3077
-3.31078
-3.31318
-3.31482
-3.31566
-3.32044
-3.31943
-3.31745
-3.31455
-3.31084
-3.30646
-3.30156
-3.29633
-3.29097
-3.28569
-3.28069
-3.27617
-3.2723
-3.26926
-3.26716
-3.26609
-3.26609
-3.26716
-3.26926
-3.27231
-3.27617
-3.28069
-3.28569
-3.29098
-3.29634
-3.30157
-3.30646
-3.31085
-3.31456
-3.31746
-3.31944
-3.32045
-3.32628
-3.32507
-3.32268
-3.31918
-3.31471
-3.30941
-3.30349
-3.29716
-3.29067
-3.28426
-3.27819
-3.2727
-3.26801
-3.26431
-3.26175
-3.26045
-3.26045
-3.26175
-3.26431
-3.26801
-3.2727
-3.2782
-3.28427
-3.29068
-3.29717
-3.30349
-3.30942
-3.31471
-3.31919
-3.32269
-3.32508
-3.32629
-3.33342
-3.33196
-3.32908
-3.32486
-3.31945
-3.31306
-3.30589
-3.29823
-3.29036
-3.28259
-3.27521
-3.26853
-3.26282
-3.25831
-3.2552
-3.25361
-3.25361
-3.2552
-3.25832
-3.26282
-3.26854
-3.27522
-3.28259
-3.29037
-3.29824
-3.3059
-3.31306
-3.31946
-3.32487
-3.32909
-3.33197
-3.33343
-3.34214
-3.34038
-3.3369
-3.33182
-3.3253
-3.31757
-3.30891
-3.29963
-3.29009
-3.28064
-3.27167
-3.26354
-3.25658
-3.25108
-3.24728
-3.24534
-3.24534
-3.24728
-3.25108
-3.25658
-3.26354
-3.27168
-3.28065
-3.29009
-3.29964
-3.30892
-3.31758
-3.32531
-3.33183
-3.33691
-3.34038
-3.34215
-3.35278
-3.35066
-3.34649
-3.34037
-3.33251
-3.32318
-3.31271
-3.30147
-3.28989
-3.27841
-3.26749
-3.25758
-3.24909
-3.24237
-3.23773
-3.23536
-3.23536
-3.23773
-3.24238
-3.24909
-3.25759
-3.2675
-3.27842
-3.2899
-3.30148
-3.31271
-3.32319
-3.33251
-3.34037
-3.3465
-3.35067
-3.35279
-3.36579
-3.36325
-3.35823
-3.35087
-3.34141
-3.33016
-3.31751
-3.30391
-3.28986
-3.2759
-3.2626
-3.25051
-3.24013
-3.23192
-3.22624
-3.22334
-3.22334
-3.22624
-3.23193
-3.24014
-3.25051
-3.26261
-3.27591
-3.28986
-3.30392
-3.31752
-3.33017
-3.34142
-3.35088
-3.35824
-3.36326
-3.3658
-3.3817
-3.37865
-3.37264
-3.36381
-3.35244
-3.3389
-3.32363
-3.30717
-3.29012
-3.27315
-3.25694
-3.24216
-3.22947
-3.21942
-3.21245
-3.20889
-3.20889
-3.21245
-3.21942
-3.22948
-3.24217
-3.25694
-3.27315
-3.29013
-3.30718
-3.32364
-3.33891
-3.35245
-3.36382
-3.37265
-3.37866
-3.38171
-3.40116
-3.39753
-3.39035
-3.37979
-3.36616
-3.34988
-3.33147
-3.31157
-3.29089
-3.27024
-3.25046
-3.2324
-3.21685
-3.20452
-3.19597
-3.1916
-3.1916
-3.19597
-3.20452
-3.21686
-3.23241
-3.25047
-3.27025
-3.2909
-3.31158
-3.33148
-3.34989
-3.36617
-3.3798
-3.39036
-3.39754
-3.40117
-3.42501
-3.42069
-3.41215
-3.39956
-3.38327
-3.36375
-3.3416
-3.31756
-3.29249
-3.26735
-3.24321
-3.2211
-3.20203
-3.18688
-3.17636
-3.17098
-3.17098
-3.17636
-3.18688
-3.20203
-3.22111
-3.24321
-3.26736
-3.2925
-3.31757
-3.34161
-3.36376
-3.38328
-3.39957
-3.41216
-3.4207
-3.42502
-3.45425
-3.44914
-3.43903
-3.42408
-3.40469
-3.38136
-3.35478
-3.32578
-3.29541
-3.26481
-3.23531
-3.20821
-3.18478
-3.16613
-3.15318
-3.14656
-3.14656
-3.15319
-3.16614
-3.18478
-3.20822
-3.23532
-3.26482
-3.29542
-3.32579
-3.35479
-3.38138
-3.4047
-3.4241
-3.43904
-3.44915
-3.45426
-3.49013
-3.48414
-3.47224
-3.45461
-3.43164
-3.40388
-3.37207
-3.33717
-3.30041
-3.26316
-3.22708
-3.19382
-3.16499
-3.142
-3.12602
-3.11784
-3.11784
-3.12602
-3.14201
-3.16499
-3.19383
-3.22709
-3.26318
-3.30042
-3.33719
-3.37208
-3.40389
-3.43165
-3.45462
-3.47225
-3.48415
-3.49014
-3.5342
-3.52723
-3.51334
-3.4927
-3.46569
-3.43284
-3.39494
-3.35307
-3.30865
-3.26331
-3.21914
-3.17826
-3.14272
-3.11434
-3.09458
-3.08447
-3.08447
-3.09459
-3.11435
-3.14272
-3.17827
-3.21916
-3.26332
-3.30866
-3.35309
-3.39496
-3.43285
-3.4657
-3.49272
-3.51336
-3.52724
-3.53422
-3.58834
-3.58032
-3.5643
-3.54038
-3.50889
-3.47032
-3.42544
-3.37541
-3.32188
-3.26671
-3.21261
-3.16229
-3.11841
-3.08332
-3.05885
-3.04632
-3.04632
-3.05885
-3.08332
-3.11842
-3.1623
-3.21262
-3.26672
-3.3219
-3.37543
-3.42546
-3.47034
-3.50891
-3.5404
-3.56432
-3.58034
-3.58836
-3.65484
-3.64575
-3.62753
-3.60019
-3.56394
-3.51914
-3.46645
-3.40701
-3.3426
-3.27568
-3.20943
-3.14739
-3.09314
-3.04965
-3.01932
-3.00381
-3.00381
-3.01933
-3.04966
-3.09315
-3.14741
-3.20945
-3.2757
-3.34261
-3.40703
-3.46647
-3.51916
-3.56396
-3.60021
-3.62755
-3.64577
-3.65486
-3.73642
-3.72633
-3.70602
-3.67535
-3.63434
-3.58309
-3.52201
-3.45207
-3.37508
-3.29405
-3.21284
-3.136
-3.06868
-3.01484
-2.97735
-2.95818
-2.95818
-2.97736
-3.01485
-3.06869
-3.13601
-3.21286
-3.29407
-3.3751
-3.45209
-3.52203
-3.58311
-3.63436
-3.67537
-3.70604
-3.72635
-3.73644
-3.83622
-3.82534
-3.80332
-3.76984
-3.72459
-3.66726
-3.59777
-3.51665
-3.42552
-3.32771
-3.22786
-3.1322
-3.04916
-2.98258
-2.93552
-2.91115
-2.91115
-2.93553
-2.98259
-3.04917
-3.13222
-3.22788
-3.32773
-3.42555
-3.51667
-3.5978
-3.66728
-3.72461
-3.76986
-3.80334
-3.82536
-3.83624
-3.95776
-3.94652
-3.9236
-3.88846
-3.84037
-3.77841
-3.70166
-3.60967
-3.50339
-3.38631
-3.26415
-3.14697
-3.04603
-2.96142
-2.90037
-2.86909
-2.86909
-2.90038
-2.96143
-3.04604
-3.14699
-3.26417
-3.38633
-3.50341
-3.6097
-3.70168
-3.77843
-3.84039
-3.88848
-3.92363
-3.94654
-3.95779
-4.10475
-4.09384
-4.07145
-4.03676
-3.98864
-3.92536
-3.84468
-3.74462
-3.62461
-3.48676
-3.33979
-3.1936
-3.07255
-3.03986
-3.16301
-3.24905
-3.24905
-3.16301
-3.03987
-3.07257
-3.19362
-3.33981
-3.48678
-3.62464
-3.74465
-3.84471
-3.92538
-3.98866
-4.03679
-4.07147
-4.09387
-4.10477
-4.28065
-4.27118
-4.25153
-4.22078
-4.17748
-4.11914
-4.04192
-3.94111
-3.80731
-3.63849
-3.54917
-4.59332
-6.63127
-8.68893
-9.90274
-10.3469
-10.3469
-9.90271
-8.68886
-6.63118
-4.59325
-3.54919
-3.63851
-3.80734
-3.94114
-4.04194
-4.11916
-4.1775
-4.22081
-4.25155
-4.2712
-4.28067
-4.4881
-4.4816
-4.46791
-4.44625
-4.41535
-4.37305
-4.31434
-4.21853
-4.05524
-4.2588
-8.3396
-12.3473
-13.6939
-13.8366
-13.7814
-13.7576
-13.7576
-13.7814
-13.8366
-13.6939
-12.3473
-8.33934
-4.25872
-4.05528
-4.21856
-4.31437
-4.37308
-4.41537
-4.44627
-4.46793
-4.48163
-4.48812
-4.72795
-4.72641
-4.72289
-4.71728
-4.71001
-4.70357
-4.68473
-4.58175
-4.86413
-10.7984
-14.345
-14.1982
-14.0457
-13.9507
-13.8836
-13.8517
-13.8517
-13.8836
-13.9507
-14.0457
-14.1983
-14.345
-10.798
-4.86403
-4.5818
-4.68476
-4.7036
-4.71004
-4.7173
-4.72291
-4.72643
-4.72797
-4.99815
-5.00383
-5.01536
-5.03411
-5.06587
-5.11891
-5.1449
-5.17477
-10.5628
-14.7809
-14.6884
-14.4909
-14.2772
-14.1347
-14.0371
-13.9892
-13.9892
-14.0371
-14.1348
-14.2772
-14.491
-14.6885
-14.781
-10.5624
-5.17472
-5.14493
-5.11893
-5.06589
-5.03413
-5.01538
-5.00385
-4.99816
-5.29164
-5.30699
-5.33882
-5.39132
-5.47945
-5.60249
-5.64599
-8.33131
-15.0102
-15.2199
-15.1399
-14.8885
-14.5812
-14.3678
-14.2319
-14.1651
-14.1651
-14.2319
-14.3679
-14.5813
-14.8885
-15.14
-15.2199
-15.01
-8.33088
-5.64603
-5.60251
-5.47947
-5.39133
-5.33883
-5.30701
-5.29165
-5.59658
-5.62332
-5.6794
-5.77449
-5.93482
-6.14105
-6.57219
-12.8144
-15.6992
-15.675
-15.5909
-15.4213
-15.0042
-14.6785
-14.4893
-14.3934
-14.3935
-14.4894
-14.6785
-15.0043
-15.4213
-15.5909
-15.675
-15.6992
-12.8139
-6.57207
-6.14105
-5.93482
-5.7745
-5.67941
-5.62332
-5.59658
-5.89718
-5.93534
-6.01632
-6.15695
-6.38805
-6.67773
-8.09471
-15.0232
-16.0879
-14.0748
-10.7744
-12.2156
-15.4787
-15.0006
-14.7594
-14.6297
-14.6297
-14.7594
-15.0006
-15.4788
-12.2148
-10.7742
-14.075
-16.0879
-15.0229
-8.09438
-6.67772
-6.38804
-6.15694
-6.01632
-5.93534
-5.89718
-6.17459
-6.22257
-6.32562
-6.50495
-6.78774
-7.13704
-9.44436
-15.8067
-16.1507
-10.5538
-7.52479
-8.59624
-15.5274
-15.2155
-14.9626
-14.8149
-14.8149
-14.9626
-15.2155
-15.5271
-8.59586
-7.52482
-10.5543
-16.1509
-15.8064
-9.4439
-7.13702
-6.78772
-6.50493
-6.3256
-6.22256
-6.17458
-6.41086
-6.46576
-6.58397
-6.78608
-7.09611
-7.48157
-9.78815
-15.7388
-16.0571
-10.0202
-7.73084
-8.13915
-14.6064
-15.2948
-15.0539
-14.9065
-14.9065
-15.0539
-15.2948
-14.6059
-8.13901
-7.73086
-10.0207
-16.0573
-15.7386
-9.7876
-7.48155
-7.09608
-6.78606
-6.58394
-6.46574
-6.41084
-6.59434
-6.65177
-6.77416
-6.97562
-7.28972
-7.67276
-9.32448
-14.61
-15.9573
-10.3243
-7.86864
-8.0376
-14.2249
-15.218
-15.015
-14.8776
-14.8776
-15.015
-15.218
-14.2244
-8.03748
-7.86864
-10.3248
-15.9575
-14.6098
-9.32406
-7.67272
-7.28968
-6.97558
-6.77413
-6.65174
-6.59431
-6.719
-6.77425
-6.88791
-7.07296
-7.35055
-7.69944
-8.30592
-12.1409
-13.8749
-9.43773
-7.9086
-7.94289
-14.3207
-14.9834
-14.8477
-14.7226
-14.7226
-14.8476
-14.9832
-14.3204
-7.94276
-7.90858
-9.43796
-13.8745
-12.1402
-8.30563
-7.69937
-7.35049
-7.07291
-6.88787
-6.77421
-6.71896
-6.78911
-6.83546
-6.93122
-7.08438
-7.30556
-7.58477
-7.86608
-9.26057
-9.40537
-8.10974
-7.83373
-8.09168
-14.511
-14.6954
-14.5646
-14.4734
-14.4734
-14.5645
-14.6953
-14.5108
-8.09121
-7.8337
-8.10967
-9.40521
-9.26012
-7.86597
-7.58469
-7.30549
-7.08432
-6.93117
-6.83542
-6.78907
-6.81229
-6.84864
-6.92367
-7.04078
-7.20339
-7.40415
-7.60619
-7.75075
-7.92105
-7.73184
-7.66421
-9.2873
-14.3032
-14.3196
-14.2145
-14.1572
-14.1572
-14.2145
-14.3196
-14.3031
-9.28648
-7.66416
-7.73178
-7.921
-7.75062
-7.6061
-7.40407
-7.20332
-7.04072
-6.92362
-6.8486
-6.81225
-6.80235
-6.82974
-6.88546
-6.97042
-7.08409
-7.22071
-7.36056
-7.45951
-7.56837
-7.50956
-7.44163
-10.3035
-13.9378
-13.8889
-13.8198
-13.7859
-13.7859
-13.8197
-13.8888
-13.9377
-10.3032
-7.44158
-7.5095
-7.56831
-7.45943
-7.36048
-7.22064
-7.08403
-6.97037
-6.88542
-6.8297
-6.80231
-6.77269
-6.79235
-6.83187
-6.89081
-6.96686
-7.0549
-7.14291
-7.20837
-7.25228
-7.23488
-7.21221
-10.5071
-13.475
-13.4379
-13.3985
-13.3788
-13.3788
-13.3985
-13.4379
-13.475
-10.507
-7.21216
-7.23482
-7.25222
-7.2083
-7.14284
-7.05484
-6.9668
-6.89076
-6.83182
-6.7923
-6.77265
-6.73274
-6.74621
-6.77295
-6.81169
-6.85971
-6.91268
-6.96339
-7.00161
-7.01876
-7.0196
-7.01543
-10.5082
-13.0028
-12.99
-12.9713
-12.9618
-12.9618
-12.9713
-12.99
-13.0028
-10.5081
-7.01538
-7.01954
-7.01871
-7.00155
-6.96333
-6.91263
-6.85967
-6.81165
-6.7729
-6.74617
-6.7327
-6.68881
-6.69758
-6.71463
-6.73853
-6.76682
-6.79626
-6.82273
-6.84241
-6.85386
-6.86036
-6.86558
-10.7397
-12.5485
-12.5539
-12.5471
-12.5434
-12.5434
-12.5471
-12.5538
-12.5484
-10.7396
-6.86553
-6.86031
-6.85381
-6.84236
-6.82268
-6.79621
-6.76678
-6.73849
-6.71459
-6.69754
-6.68878
-6.64456
-6.64987
-6.66004
-6.67378
-6.68908
-6.70377
-6.71589
-6.72497
-6.73297
-6.74415
-6.76079
-10.9471
-12.1194
-12.1308
-12.1298
-12.1286
-12.1286
-12.1298
-12.1307
-12.1193
-10.947
-6.76074
-6.74411
-6.73293
-6.72493
-6.71585
-6.70373
-6.68905
-6.67374
-6.66
-6.64983
-6.64452
-6.60193
-6.60493
-6.61054
-6.61776
-6.6251
-6.63121
-6.63556
-6.63933
-6.64567
-6.65869
-6.68356
-10.9458
-11.7062
-11.7187
-11.7207
-11.7212
-11.7212
-11.7207
-11.7187
-11.7062
-10.9457
-6.6835
-6.65865
-6.64564
-6.63929
-6.63553
-6.63117
-6.62506
-6.61773
-6.61051
-6.6049
-6.6019
-6.56205
-6.56357
-6.56633
-6.5696
-6.5724
-6.57404
-6.57479
-6.57652
-6.58245
-6.59466
-7.0938
-10.7277
-11.3002
-11.3184
-11.3216
-11.3226
-11.3226
-11.3215
-11.3184
-11.3001
-10.7277
-7.09372
-6.59463
-6.58242
-6.57649
-6.57476
-6.57401
-6.57237
-6.56957
-6.5663
-6.56354
-6.56203
-6.52527
-6.52587
-6.52692
-6.52792
-6.52833
-6.52795
-6.52746
-6.52898
-6.53543
-6.54709
-7.15512
-9.99549
-10.8732
-10.9333
-10.9341
-10.9335
-10.9335
-10.9341
-10.9332
-10.8732
-9.99557
-7.15511
-6.54706
-6.5354
-6.52896
-6.52744
-6.52792
-6.5283
-6.52789
-6.52689
-6.52585
-6.52524
-6.49146
-6.49152
-6.49154
-6.49127
-6.49046
-6.48922
-6.48838
-6.48976
-6.49553
-6.50487
-6.70797
-7.72292
-10.1476
-10.5634
-10.5563
-10.552
-10.552
-10.5563
-10.5634
-10.1477
-7.72306
-6.708
-6.50485
-6.49551
-6.48974
-6.48836
-6.4892
-6.49043
-6.49125
-6.49152
-6.49149
-6.49144
-6.46035
-6.46007
-6.45948
-6.45843
-6.45688
-6.45509
-6.45381
-6.45427
-6.45753
-6.4619
-6.46244
-6.54807
-9.17275
-10.1976
-10.1829
-10.1749
-10.1749
-10.1829
-10.1976
-9.17281
-6.54809
-6.46242
-6.46188
-6.45751
-6.45425
-6.45379
-6.45507
-6.45686
-6.45841
-6.45946
-6.46005
-6.46033
-6.43165
-6.43115
-6.43015
-6.42858
-6.42645
-6.42404
-6.42198
-6.42114
-6.42206
-6.42359
-6.42368
-6.42271
-8.43406
-9.82889
-9.81035
-9.80059
-9.80059
-9.81034
-9.82888
-8.43411
-6.42269
-6.42366
-6.42358
-6.42205
-6.42112
-6.42196
-6.42402
-6.42643
-6.42856
-6.43013
-6.43113
-6.43163
-6.4051
-6.40446
-6.40319
-6.40124
-6.39865
-6.39566
-6.39278
-6.39073
-6.38999
-6.39007
-6.39031
-6.39074
-8.02531
-9.45854
-9.43951
-9.42905
-9.42904
-9.43951
-9.45854
-8.02534
-6.39072
-6.3903
-6.39006
-6.38998
-6.39072
-6.39277
-6.39565
-6.39863
-6.40122
-6.40317
-6.40445
-6.40509
-6.38051
-6.37978
-6.37833
-6.37614
-6.37326
-6.36988
-6.36642
-6.36348
-6.36151
-6.36044
-6.36005
-6.36023
-7.77204
-9.09298
-9.07237
-9.0609
-9.06089
-9.07236
-9.09298
-7.77206
-6.36022
-6.36004
-6.36042
-6.36149
-6.36346
-6.36641
-6.36986
-6.37324
-6.37613
-6.37832
-6.37977
-6.3805
-6.35771
-6.35694
-6.3554
-6.35309
-6.35005
-6.34647
-6.34269
-6.33918
-6.33635
-6.33427
-6.33283
-6.33194
-7.55549
-8.73287
-8.70971
-8.69664
-8.69664
-8.70971
-8.73286
-7.55551
-6.33193
-6.33282
-6.33426
-6.33633
-6.33916
-6.34267
-6.34645
-6.35004
-6.35307
-6.35538
-6.35692
-6.35769
-6.33655
-6.33577
-6.33421
-6.33188
-6.32882
-6.32519
-6.32129
-6.31751
-6.3142
-6.3115
-6.30928
-6.30736
-7.35597
-8.37825
-8.35093
-8.33609
-8.33609
-8.35093
-8.37825
-7.35598
-6.30735
-6.30926
-6.31148
-6.31419
-6.3175
-6.32128
-6.32518
-6.32881
-6.33186
-6.33419
-6.33575
-6.33653
-6.3169
-6.31613
-6.31461
-6.31235
-6.30938
-6.30586
-6.30202
-6.29823
-6.29481
-6.29202
-6.28977
-6.28757
-7.18787
-8.02855
-7.99513
-7.97864
-7.97864
-7.99512
-8.02854
-7.18788
-6.28756
-6.28976
-6.29201
-6.2948
-6.29821
-6.30201
-6.30584
-6.30937
-6.31233
-6.3146
-6.31612
-6.31688
-6.29862
-6.2979
-6.29647
-6.29435
-6.29158
-6.28828
-6.28467
-6.28107
-6.27782
-6.27531
-6.27375
-6.27268
-7.09241
-7.68148
-7.64191
-7.62372
-7.62372
-7.64191
-7.68147
-7.09241
-6.27267
-6.27374
-6.27529
-6.27781
-6.28105
-6.28466
-6.28826
-6.29156
-6.29434
-6.29646
-6.29788
-6.2986
-6.28159
-6.28093
-6.27964
-6.27772
-6.27523
-6.27226
-6.269
-6.2657
-6.26268
-6.26041
-6.25969
-6.26065
-6.96854
-7.3351
-7.2908
-7.27048
-7.27048
-7.2908
-7.33509
-6.96855
-6.26064
-6.25968
-6.2604
-6.26266
-6.26569
-6.26899
-6.27225
-6.27521
-6.27771
-6.27963
-6.28092
-6.28157
-6.26568
-6.26511
-6.26398
-6.26231
-6.26015
-6.25758
-6.25474
-6.25176
-6.24885
-6.24646
-6.24591
-6.24803
-6.7959
-6.9893
-6.94003
-6.91758
-6.91758
-6.94003
-6.98929
-6.7959
-6.24802
-6.2459
-6.24645
-6.24884
-6.25175
-6.25473
-6.25757
-6.26014
-6.2623
-6.26397
-6.26509
-6.26566
-6.25076
-6.25028
-6.24934
-6.24794
-6.24615
-6.24403
-6.24162
-6.23896
-6.23601
-6.23293
-6.23073
-6.23375
-6.58178
-6.64054
-6.58787
-6.56394
-6.56394
-6.58787
-6.64054
-6.58177
-6.23374
-6.23072
-6.23292
-6.236
-6.23895
-6.24161
-6.24402
-6.24614
-6.24793
-6.24932
-6.25027
-6.25075
-6.23673
-6.23634
-6.23559
-6.2345
-6.2331
-6.23143
-6.22948
-6.22711
-6.22405
-6.22002
-6.21508
-6.20939
-6.33231
-6.2897
-6.23431
-6.20921
-6.20921
-6.23431
-6.2897
-6.3323
-6.20938
-6.21507
-6.22001
-6.22404
-6.2271
-6.22947
-6.23142
-6.23309
-6.23449
-6.23558
-6.23633
-6.23672
-6.22349
-6.22321
-6.22265
-6.22186
-6.22085
-6.21963
-6.21812
-6.21606
-6.21296
-6.20823
-6.20136
-6.17045
-6.05092
-5.93809
-5.87963
-5.85334
-5.85334
-5.87962
-5.93808
-6.05091
-6.17044
-6.20135
-6.20822
-6.21295
-6.21605
-6.21811
-6.21962
-6.22084
-6.22185
-6.22264
-6.2232
-6.22348
-6.21097
-6.21078
-6.21041
-6.20988
-6.20923
-6.20842
-6.20733
-6.20562
-6.20267
-6.19768
-6.18986
-6.10297
-5.73243
-5.58456
-5.52371
-5.49643
-5.49643
-5.52371
-5.58455
-5.73241
-6.10296
-6.18985
-6.19767
-6.20266
-6.20561
-6.20732
-6.20841
-6.20922
-6.20987
-6.2104
-6.21077
-6.21096
-6.19906
-6.19895
-6.19875
-6.19847
-6.19813
-6.19769
-6.19698
-6.19562
-6.19299
-6.18829
-6.18041
-5.98798
-5.38186
-5.22947
-5.16727
-5.13918
-5.13918
-5.16726
-5.22946
-5.38185
-5.98797
-6.1804
-6.18828
-6.19299
-6.19561
-6.19697
-6.19768
-6.19812
-6.19846
-6.19874
-6.19894
-6.19905
-6.1877
-6.18767
-6.18762
-6.18757
-6.1875
-6.18737
-6.18697
-6.18595
-6.18378
-6.17991
-6.17303
-5.79696
-5.01076
-4.87373
-4.81125
-4.78264
-4.78264
-4.81125
-4.87372
-5.01075
-5.79694
-6.17302
-6.1799
-6.18377
-6.18594
-6.18696
-6.18736
-6.18749
-6.18756
-6.18761
-6.18766
-6.18769
-6.17688
-6.17692
-6.17701
-6.17715
-6.17732
-6.17744
-6.17727
-6.17649
-6.17474
-6.17209
-6.16774
-5.49679
-4.63625
-4.51896
-4.45696
-4.42813
-4.42813
-4.45695
-4.51896
-4.63624
-5.49677
-6.16773
-6.17208
-6.17473
-6.17648
-6.17726
-6.17743
-6.17731
-6.17714
-6.177
-6.17691
-6.17687
-6.16656
-6.16668
-6.1669
-6.16723
-6.1676
-6.16791
-6.16787
-6.16711
-6.16532
-6.16316
-6.16108
-5.06661
-4.2732
-4.16618
-4.10576
-4.07736
-4.07736
-4.10575
-4.16618
-4.27319
-5.06658
-6.16107
-6.16315
-6.16531
-6.1671
-6.16786
-6.1679
-6.16759
-6.16722
-6.16689
-6.16667
-6.16655
-6.15677
-6.15695
-6.15731
-6.15781
-6.15838
-6.15884
-6.15883
-6.15784
-6.15517
-6.14948
-6.1277
-4.50366
-3.92085
-3.81618
-3.75958
-3.73284
-3.73284
-3.75958
-3.81617
-3.92084
-4.50363
-6.12768
-6.14948
-6.15516
-6.15783
-6.15883
-6.15883
-6.15838
-6.1578
-6.1573
-6.15695
-6.15676
-6.14751
-6.14777
-6.14827
-6.14895
-6.14973
-6.15036
-6.15043
-6.14936
-6.14634
-6.13883
-5.71625
-3.91149
-3.56572
-3.47239
-3.42215
-3.39824
-3.39824
-3.42215
-3.47238
-3.56572
-3.91147
-5.71622
-6.13882
-6.14633
-6.14936
-6.15043
-6.15035
-6.14972
-6.14895
-6.14826
-6.14776
-6.14751
-6.13883
-6.13916
-6.13981
-6.14068
-6.14167
-6.1425
-6.14271
-6.14169
-6.13896
-6.13266
-5.00233
-3.3796
-3.21695
-3.14059
-3.0981
-3.07776
-3.07775
-3.09809
-3.14059
-3.21694
-3.37959
-5.0023
-6.13266
-6.13895
-6.14169
-6.1427
-6.14249
-6.14166
-6.14068
-6.1398
-6.13916
-6.13882
-6.13077
-6.13118
-6.13197
-6.13305
-6.13424
-6.13524
-6.13548
-6.13413
-6.12922
-6.1168
-3.99365
-2.98119
-2.88474
-2.82598
-2.79221
-2.77604
-2.77604
-2.7922
-2.82598
-2.88474
-2.98118
-3.99362
-6.11679
-6.12921
-6.13413
-6.13547
-6.13523
-6.13424
-6.13304
-6.13196
-6.13117
-6.13076
-6.12341
-6.1239
-6.12484
-6.12612
-6.12755
-6.12876
-6.12912
-6.12764
-6.12245
-5.41381
-2.99835
-2.64726
-2.5745
-2.53323
-2.50913
-2.49761
-2.49761
-2.50912
-2.53323
-2.57449
-2.64726
-2.99834
-5.41378
-6.12244
-6.12764
-6.12911
-6.12876
-6.12754
-6.12611
-6.12483
-6.1239
-6.1234
-6.11687
-6.11744
-6.11851
-6.11998
-6.12162
-6.12309
-6.12361
-6.12115
-6.11179
-3.77054
-2.39904
-2.33541
-2.29177
-2.2673
-2.25279
-2.24591
-2.24591
-2.25279
-2.26729
-2.29176
-2.33541
-2.39904
-3.77051
-6.11178
-6.12114
-6.1236
-6.12308
-6.12161
-6.11997
-6.1185
-6.11743
-6.11686
-6.11131
-6.11194
-6.11312
-6.11476
-6.11659
-6.11837
-6.11958
-6.11834
-4.89645
-2.29428
-2.09376
-2.06076
-2.04194
-2.0317
-2.02582
-2.02308
-2.02308
-2.02581
-2.0317
-2.04194
-2.06076
-2.09375
-2.29427
-4.89643
-6.11833
-6.11957
-6.11836
-6.11659
-6.11475
-6.11311
-6.11193
-6.1113
-6.10696
-6.10762
-6.10891
-6.11073
-6.11277
-6.11478
-6.11695
-5.36993
-2.31864
-1.83707
-1.83062
-1.82643
-1.82667
-1.82792
-1.82909
-1.82973
-1.82973
-1.82909
-1.82792
-1.82666
-1.82643
-1.83062
-1.83707
-2.31864
-5.36993
-6.11695
-6.11477
-6.11276
-6.11073
-6.1089
-6.10762
-6.10695
-6.10424
-6.10489
-6.10629
-6.10855
-6.11058
-6.11238
-5.17609
-2.01199
-1.56509
-1.59746
-1.61647
-1.63275
-1.64584
-1.65549
-1.66184
-1.66496
-1.66496
-1.66183
-1.65549
-1.64584
-1.63274
-1.61646
-1.59745
-1.56508
-2.012
-5.1761
-6.11238
-6.11057
-6.10854
-6.10628
-6.10489
-6.10424
-6.10351
-6.10415
-6.10522
-6.10815
-5.61719
-3.78627
-1.50627
-1.30551
-1.36944
-1.41444
-1.44933
-1.47663
-1.49735
-1.51229
-1.52198
-1.52673
-1.52673
-1.52198
-1.51229
-1.49735
-1.47663
-1.44932
-1.41443
-1.36944
-1.3055
-1.50627
-3.7863
-5.61721
-6.10814
-6.10521
-6.10414
-6.1035
-4.7023
-4.51845
-3.98046
-2.89981
-1.70587
-1.05539
-1.08736
-1.1653
-1.22956
-1.28068
-1.32125
-1.35313
-1.3775
-1.39513
-1.40659
-1.41222
-1.41222
-1.40659
-1.39513
-1.37749
-1.35313
-1.32125
-1.28068
-1.22955
-1.1653
-1.08735
-1.05538
-1.70589
-2.89987
-3.98052
-4.5185
-4.70235
-0.971078
-0.917507
-0.826081
-0.809858
-0.868974
-0.936318
-1.00789
-1.07503
-1.13395
-1.1835
-1.22411
-1.25668
-1.2819
-1.30032
-1.31236
-1.3183
-1.3183
-1.31236
-1.30032
-1.28189
-1.25667
-1.22411
-1.18349
-1.13394
-1.07503
-1.00789
-0.936308
-0.868963
-0.809846
-0.82608
-0.917515
-0.97109
-0.714587
-0.728894
-0.756686
-0.796319
-0.845733
-0.90231
-0.960732
-1.01687
-1.06825
-1.11311
-1.15095
-1.1819
-1.20621
-1.22414
-1.23595
-1.2418
-1.2418
-1.23595
-1.22414
-1.20621
-1.1819
-1.15095
-1.1131
-1.06824
-1.01686
-0.960724
-0.902301
-0.845723
-0.796308
-0.756675
-0.728883
-0.714575
-0.734157
-0.745556
-0.767847
-0.799942
-0.839952
-0.885094
-0.932316
-0.978676
-1.0228
-1.0621
-1.09596
-1.12412
-1.14652
-1.16322
-1.17428
-1.17978
-1.17978
-1.17428
-1.16321
-1.14652
-1.12411
-1.09595
-1.06209
-1.0228
-0.978672
-0.932309
-0.885086
-0.839943
-0.799932
-0.767837
-0.745545
-0.734146
-0.75609
-0.765292
-0.78325
-0.80901
-0.841037
-0.877419
-0.916112
-0.955127
-0.991547
-1.02507
-1.05456
-1.07947
-1.09951
-1.11458
-1.12463
-1.12964
-1.12964
-1.12463
-1.11458
-1.09951
-1.07946
-1.05456
-1.02506
-0.99154
-0.955118
-0.916103
-0.877411
-0.841028
-0.809001
-0.78324
-0.765282
-0.756079
-0.777746
-0.785136
-0.799542
-0.820215
-0.846003
-0.875471
-0.90699
-0.938906
-0.969548
-0.997956
-1.02326
-1.04488
-1.06245
-1.07576
-1.08468
-1.08915
-1.08915
-1.08468
-1.07576
-1.06245
-1.04488
-1.02326
-0.99795
-0.969541
-0.938898
-0.906982
-0.875463
-0.845994
-0.820207
-0.799533
-0.785127
-0.777736
-0.797827
-0.803769
-0.815354
-0.832005
-0.852829
-0.876712
-0.902401
-0.928626
-0.954115
-0.977986
-0.999469
-1.018
-1.03318
-1.04475
-1.05254
-1.05645
-1.05645
-1.05254
-1.04475
-1.03318
-1.01799
-0.999465
-0.977981
-0.95411
-0.928619
-0.902394
-0.876705
-0.852821
-0.831997
-0.815345
-0.803761
-0.797818
-0.815794
-0.820583
-0.829924
-0.843366
-0.860212
-0.879598
-0.900555
-0.92209
-0.943219
-0.963169
-0.981272
-0.997006
-1.00998
-1.01992
-1.02664
-1.03003
-1.03003
-1.02664
-1.01992
-1.00998
-0.997003
-0.981268
-0.963164
-0.943214
-0.922084
-0.900549
-0.879591
-0.860205
-0.843358
-0.829916
-0.820575
-0.815786
-0.8315
-0.83537
-0.842918
-0.853791
-0.867446
-0.883209
-0.900324
-0.918007
-0.935481
-0.95209
-0.967263
-0.980533
-0.991536
-1
-1.00574
-1.00864
-1.00864
-1.00574
-1
-0.991534
-0.98053
-0.96726
-0.952086
-0.935476
-0.918002
-0.900318
-0.883203
-0.86744
-0.853785
-0.842911
-0.835363
-0.831492
-0.845017
-0.84815
-0.854264
-0.863079
-0.874169
-0.887006
-0.900996
-0.915517
-0.929947
-0.943738
-0.956406
-0.96754
-0.976814
-0.983976
-0.988846
-0.991307
-0.991307
-0.988845
-0.983974
-0.976812
-0.967537
-0.956402
-0.943734
-0.929942
-0.915512
-0.900991
-0.887001
-0.874163
-0.863073
-0.854257
-0.848144
-0.845011
-0.856525
-0.859067
-0.864028
-0.871189
-0.880213
-0.890683
-0.902129
-0.914055
-0.92596
-0.937389
-0.947934
-0.957241
-0.965021
-0.971047
-0.975154
-0.977232
-0.977232
-0.975153
-0.971046
-0.965019
-0.957238
-0.947931
-0.937386
-0.925956
-0.914051
-0.902125
-0.890678
-0.880208
-0.871184
-0.864022
-0.859062
-0.856519
-0.866246
-0.868313
-0.872347
-0.878174
-0.885529
-0.89408
-0.903453
-0.91325
-0.923065
-0.932524
-0.941281
-0.949037
-0.95554
-0.96059
-0.964038
-0.965785
-0.965784
-0.964037
-0.960589
-0.955539
-0.949035
-0.941278
-0.93252
-0.923062
-0.913246
-0.903448
-0.894075
-0.885524
-0.878169
-0.872341
-0.868307
-0.866241
-0.874411
-0.876093
-0.879379
-0.88413
-0.890133
-0.897125
-0.904806
-0.912856
-0.920945
-0.928764
-0.936025
-0.942474
-0.947895
-0.952112
-0.954996
-0.956458
-0.956458
-0.954995
-0.952111
-0.947893
-0.942472
-0.936023
-0.928761
-0.920942
-0.912852
-0.904802
-0.897121
-0.890128
-0.884125
-0.879374
-0.876089
-0.874406
-0.881239
-0.882611
-0.885291
-0.889169
-0.894076
-0.899799
-0.906098
-0.912714
-0.919379
-0.925838
-0.93185
-0.937202
-0.94171
-0.945223
-0.947628
-0.948849
-0.948849
-0.947627
-0.945222
-0.941708
-0.9372
-0.931848
-0.925835
-0.919376
-0.912711
-0.906094
-0.899795
-0.894072
-0.889165
-0.885287
-0.882606
-0.881234
-0.886929
-0.88805
-0.89024
-0.89341
-0.897425
-0.902114
-0.907283
-0.912721
-0.918212
-0.923543
-0.928517
-0.932952
-0.936694
-0.939614
-0.941615
-0.942632
-0.942632
-0.941615
-0.939613
-0.936692
-0.93295
-0.928514
-0.923541
-0.918209
-0.912718
-0.907279
-0.90211
-0.897421
-0.893406
-0.890236
-0.888046
-0.886925
-0.891661
-0.892578
-0.894369
-0.896963
-0.900251
-0.904096
-0.90834
-0.912811
-0.917334
-0.921733
-0.925843
-0.929514
-0.932616
-0.935039
-0.936702
-0.937547
-0.937546
-0.936701
-0.935039
-0.932615
-0.929513
-0.925841
-0.921731
-0.917332
-0.912809
-0.908337
-0.904093
-0.900248
-0.896959
-0.894365
-0.892573
-0.891658
-0.895588
-0.896338
-0.897804
-0.899929
-0.902625
-0.905779
-0.909265
-0.912943
-0.916668
-0.920296
-0.92369
-0.926727
-0.929294
-0.931303
-0.932681
-0.933382
-0.933382
-0.932681
-0.931302
-0.929293
-0.926725
-0.923689
-0.920294
-0.916665
-0.91294
-0.909262
-0.905776
-0.902622
-0.899926
-0.897801
-0.896335
-0.895584
-0.898841
-0.899456
-0.900657
-0.902399
-0.904611
-0.9072
-0.910065
-0.91309
-0.916158
-0.919149
-0.921951
-0.92446
-0.926584
-0.928246
-0.929388
-0.929969
-0.929969
-0.929388
-0.928246
-0.926583
-0.924459
-0.92195
-0.919147
-0.916156
-0.913088
-0.910062
-0.907198
-0.904608
-0.902396
-0.900654
-0.899452
-0.898838
-0.901533
-0.902037
-0.903022
-0.904452
-0.906267
-0.908394
-0.910749
-0.913238
-0.915764
-0.91823
-0.920542
-0.922614
-0.924369
-0.925744
-0.926689
-0.927169
-0.927169
-0.926688
-0.925743
-0.924368
-0.922612
-0.92054
-0.918228
-0.915762
-0.913235
-0.910746
-0.908392
-0.906264
-0.904449
-0.90302
-0.902034
-0.90153
-0.903759
-0.904172
-0.904981
-0.906154
-0.907645
-0.909393
-0.911329
-0.913377
-0.915457
-0.91749
-0.919397
-0.921107
-0.922557
-0.923693
-0.924474
-0.924871
-0.924871
-0.924474
-0.923692
-0.922556
-0.921106
-0.919395
-0.917488
-0.915456
-0.913375
-0.911327
-0.909391
-0.907643
-0.906152
-0.904979
-0.904169
-0.903756
-0.905598
-0.905937
-0.906601
-0.907565
-0.90879
-0.910226
-0.911819
-0.913504
-0.915217
-0.916892
-0.918464
-0.919875
-0.921072
-0.922011
-0.922656
-0.922984
-0.922984
-0.922655
-0.92201
-0.921071
-0.919874
-0.918463
-0.91689
-0.915215
-0.913502
-0.911817
-0.910224
-0.908787
-0.907563
-0.906599
-0.905935
-0.905595
-0.907116
-0.907395