/*--------------------------------*- C++ -*----------------------------------*\
  =========                 |
  \\      /  F ield         | OpenFOAM: The Open Source CFD Toolbox
   \\    /   O peration     | Website:  https://openfoam.org
    \\  /    A nd           | Version:  9
     \\/     M anipulation  |
\*---------------------------------------------------------------------------*/
FoamFile
{
    format      ascii;
    class       volVectorField;
    location    "0.8";
    object      U;
}
// * * * * * * * * * * * * * * * * * * * * * * * * * * * * * * * * * * * * * //

dimensions      [0 1 -1 0 0 0 0];

internalField   nonuniform List<vector> 
4096
(
(-0.00111556 0.00109861 0)
(-0.00332703 0.00106686 0)
(-0.00542048 0.000988284 0)
(-0.0073156 0.000869338 0)
(-0.00893233 0.000715729 0)
(-0.0102068 0.000533919 0)
(-0.011089 0.000331141 0)
(-0.0115442 0.000115215 0)
(-0.0115546 -0.000105113 0)
(-0.0111193 -0.000321834 0)
(-0.0102543 -0.000526363 0)
(-0.00899287 -0.000710703 0)
(-0.00738334 -0.000867668 0)
(-0.00548782 -0.000991119 0)
(-0.00337961 -0.00107622 0)
(-0.00114036 -0.00111961 0)
(0.00114315 -0.00111961 0)
(0.00338237 -0.0010762 0)
(0.00549054 -0.000991091 0)
(0.00738599 -0.000867629 0)
(0.00899544 -0.000710655 0)
(0.0102568 -0.000526305 0)
(0.0111216 -0.000321767 0)
(0.0115568 -0.000105038 0)
(0.0115463 0.000115296 0)
(0.0110909 0.000331227 0)
(0.0102085 0.000534005 0)
(0.00893392 0.000715805 0)
(0.00731709 0.000869388 0)
(0.00542202 0.000988224 0)
(0.00332765 0.00106649 0)
(0.0011154 0.00109849 0)
(-0.00116755 0.00335603 0)
(-0.00348283 0.00325853 0)
(-0.00567461 0.00301898 0)
(-0.0076582 0.00265573 0)
(-0.00935072 0.00218653 0)
(-0.0106851 0.00163119 0)
(-0.011609 0.0010118 0)
(-0.012086 0.000352421 0)
(-0.0120972 -0.000321194 0)
(-0.0116417 -0.000983162 0)
(-0.0107364 -0.00160796 0)
(-0.00941592 -0.00217116 0)
(-0.00773086 -0.00265075 0)
(-0.00574624 -0.00302796 0)
(-0.00353883 -0.00328798 0)
(-0.00119414 -0.00342059 0)
(0.00119692 -0.00342057 0)
(0.00354158 -0.00328793 0)
(0.00574895 -0.00302787 0)
(0.00773349 -0.00265063 0)
(0.00941846 -0.00217101 0)
(0.0107389 -0.00160778 0)
(0.011644 -0.000982955 0)
(0.0120994 -0.000320962 0)
(0.012088 0.000352675 0)
(0.0116108 0.00101207 0)
(0.0106867 0.00163147 0)
(0.00935218 0.00218679 0)
(0.00765946 0.00265594 0)
(0.00567567 0.00301902 0)
(0.00348339 0.00325812 0)
(0.00116763 0.0033559 0)
(-0.00125832 0.00575396 0)
(-0.0037538 0.00558635 0)
(-0.00611623 0.00517629 0)
(-0.00825426 0.00455372 0)
(-0.0100789 0.00374942 0)
(-0.0115177 0.00279743 0)
(-0.0125143 0.00173555 0)
(-0.0130294 0.000605055 0)
(-0.0130424 -0.000550142 0)
(-0.012552 -0.0016854 0)
(-0.0115767 -0.00275689 0)
(-0.0101534 -0.00372284 0)
(-0.00833676 -0.00454549 0)
(-0.00619687 -0.00519255 0)
(-0.00381649 -0.00563861 0)
(-0.00128793 -0.0058661 0)
(0.00129069 -0.00586607 0)
(0.00381922 -0.00563852 0)
(0.00619954 -0.0051924 0)
(0.00833936 -0.00454528 0)
(0.0101559 -0.00372259 0)
(0.0115791 -0.00275658 0)
(0.0125543 -0.00168504 0)
(0.0130445 -0.000549742 0)
(0.0130313 0.000605494 0)
(0.012516 0.00173602 0)
(0.0115192 0.00279792 0)
(0.0100802 0.00374991 0)
(0.00825536 0.00455416 0)
(0.00611706 0.00517664 0)
(0.00375429 0.00558649 0)
(0.00125846 0.0057541 0)
(-0.00139405 0.00837611 0)
(-0.00415877 0.00813219 0)
(-0.00677623 0.0075357 0)
(-0.00914537 0.00662981 0)
(-0.0111677 0.00545938 0)
(-0.0127629 0.00407386 0)
(-0.0138685 0.00252823 0)
(-0.0144408 0.000882527 0)
(-0.0144566 -0.000799475 0)
(-0.0139145 -0.00245269 0)
(-0.0128345 -0.00401317 0)
(-0.0112575 -0.00542011 0)
(-0.00924399 -0.00661846 0)
(-0.00687165 -0.00756114 0)
(-0.00423229 -0.00821103 0)
(-0.00142838 -0.00854249 0)
(0.00143114 -0.00854245 0)
(0.00423502 -0.0082109 0)
(0.00687433 -0.00756093 0)
(0.00924659 -0.00661817 0)
(0.01126 -0.00541974 0)
(0.0128368 -0.00401272 0)
(0.0139168 -0.00245218 0)
(0.0144587 -0.0007989 0)
(0.0144427 0.000883158 0)
(0.0138702 0.00252891 0)
(0.0127644 0.00407457 0)
(0.011169 0.0054601 0)
(0.00914639 0.00663051 0)
(0.00677698 0.00753633 0)
(0.00415923 0.00813269 0)
(0.0013942 0.00837651 0)
(-0.00158114 0.0113168 0)
(-0.00471698 0.0109876 0)
(-0.0076861 0.0101823 0)
(-0.010374 0.00895905 0)
(-0.0126692 0.00737846 0)
(-0.0144805 0.0055071 0)
(-0.0157367 0.00341915 0)
(-0.0163881 0.00119561 0)
(-0.0164083 -0.00107749 0)
(-0.0157951 -0.00331217 0)
(-0.0145709 -0.00542184 0)
(-0.012782 -0.00732425 0)
(-0.0104968 -0.00894485 0)
(-0.00780357 -0.0102199 0)
(-0.00480658 -0.011099 0)
(-0.00162235 -0.0115474 0)
(0.00162516 -0.0115473 0)
(0.00480936 -0.0110988 0)
(0.0078063 -0.0102196 0)
(0.0104995 -0.00894447 0)
(0.0127845 -0.00732376 0)
(0.0145733 -0.00542125 0)
(0.0157974 -0.0033115 0)
(0.0164104 -0.00107673 0)
(0.01639 0.00119644 0)
(0.0157384 0.00342004 0)
(0.0144819 0.00550804 0)
(0.0126704 0.00737942 0)
(0.010375 0.00896 0)
(0.00768683 0.0101831 0)
(0.00471743 0.0109883 0)
(0.0015813 0.0113175 0)
(-0.00182718 0.0146853 0)
(-0.00545109 0.0142586 0)
(-0.00888278 0.0132146 0)
(-0.0119902 0.0116285 0)
(-0.0146446 0.00957876 0)
(-0.0167405 0.00715142 0)
(-0.0181955 0.00444253 0)
(-0.0189518 0.00155702 0)
(-0.0189783 -0.00139361 0)
(-0.018272 -0.00429518 0)
(-0.0168584 -0.0070351 0)
(-0.0147907 -0.00950638 0)
(-0.0121479 -0.011612 0)
(-0.00903187 -0.0132689 0)
(-0.00556356 -0.0144114 0)
(-0.00187803 -0.0149942 0)
(0.00188093 -0.0149942 0)
(0.00556643 -0.0144112 0)
(0.00903468 -0.0132686 0)
(0.0121506 -0.0116115 0)
(0.0147933 -0.00950577 0)
(0.0168609 -0.00703437 0)
(0.0182743 -0.00429434 0)
(0.0189804 -0.00139267 0)
(0.0189537 0.00155806 0)
(0.0181972 0.00444365 0)
(0.016742 0.0071526 0)
(0.0146458 0.00957996 0)
(0.0119912 0.0116297 0)
(0.00888352 0.0132157 0)
(0.00545154 0.0142597 0)
(0.00182733 0.0146863 0)
(-0.00214154 0.0186078 0)
(-0.00638909 0.0180679 0)
(-0.010412 0.0167465 0)
(-0.0140559 0.0147389 0)
(-0.0171698 0.0121437 0)
(-0.0196303 0.00906975 0)
(-0.0213403 0.00563823 0)
(-0.0222316 0.00198182 0)
(-0.0222671 -0.00175838 0)
(-0.0214427 -0.00543768 0)
(-0.0197875 -0.0089131 0)
(-0.0173634 -0.0120487 0)
(-0.014263 -0.014721 0)
(-0.0106056 -0.0168242 0)
(-0.00653355 -0.0182748 0)
(-0.00220568 -0.0190148 0)
(0.00220871 -0.0190147 0)
(0.00653655 -0.0182745 0)
(0.0106086 -0.0168238 0)
(0.0142658 -0.0147204 0)
(0.0173661 -0.0120479 0)
(0.01979 -0.00891221 0)
(0.0214451 -0.00543666 0)
(0.0222693 -0.00175724 0)
(0.0222337 0.00198307 0)
(0.0213421 0.00563957 0)
(0.0196318 0.00907117 0)
(0.0171711 0.0121452 0)
(0.0140569 0.0147404 0)
(0.0104128 0.016748 0)
(0.00638955 0.0180692 0)
(0.0021417 0.0186091 0)
(-0.00253591 0.0232309 0)
(-0.00756589 0.022558 0)
(-0.0123308 0.0209108 0)
(-0.0166483 0.0184076 0)
(-0.0203398 0.0151709 0)
(-0.023259 0.0113359 0)
(-0.0252906 0.00705324 0)
(-0.026353 0.00248811 0)
(-0.0264014 -0.0021836 0)
(-0.0254298 -0.00678122 0)
(-0.023472 -0.0111258 0)
(-0.0206007 -0.015047 0)
(-0.0169251 -0.0183899 0)
(-0.0125868 -0.0210217 0)
(-0.00775483 -0.0228371 0)
(-0.00261823 -0.0237633 0)
(0.00262143 -0.0237632 0)
(0.007758 -0.0228368 0)
(0.0125899 -0.0210212 0)
(0.0169281 -0.0183892 0)
(0.0206036 -0.0150461 0)
(0.0234747 -0.0111248 0)
(0.0254323 -0.00678001 0)
(0.0264037 -0.00218225 0)
(0.0263551 0.00248959 0)
(0.0252925 0.00705483 0)
(0.0232606 0.0113376 0)
(0.0203411 0.0151726 0)
(0.0166493 0.0184093 0)
(0.0123316 0.0209125 0)
(0.00756637 0.0225597 0)
(0.00253607 0.0232325 0)
(-0.00302477 0.0287273 0)
(-0.00902476 0.0278971 0)
(-0.0147099 0.0258638 0)
(-0.0198633 0.0227731 0)
(-0.0242724 0.0187756 0)
(-0.0277624 0.0140374 0)
(-0.0301952 0.00874369 0)
(-0.0314723 0.00309802 0)
(-0.031539 -0.00268246 0)
(-0.0303868 -0.00837423 0)
(-0.0280548 -0.0137554 0)
(-0.0246287 -0.0186145 0)
(-0.0202384 -0.0227585 0)
(-0.0150533 -0.026022 0)
(-0.00927553 -0.0282737 0)
(-0.00313198 -0.0294228 0)
(0.00313538 -0.0294227 0)
(0.0092789 -0.0282734 0)
(0.0150566 -0.0260214 0)
(0.0202416 -0.0227577 0)
(0.0246317 -0.0186134 0)
(0.0280577 -0.0137542 0)
(0.0303895 -0.00837283 0)
(0.0315414 -0.00268088 0)
(0.0314745 0.00309974 0)
(0.0301972 0.00874553 0)
(0.0277641 0.0140393 0)
(0.0242738 0.0187776 0)
(0.0198644 0.0227751 0)
(0.0147107 0.0258658 0)
(0.00902525 0.027899 0)
(0.00302494 0.0287292 0)
(-0.00362592 0.0353016 0)
(-0.0108188 0.0342841 0)
(-0.0176362 0.031791 0)
(-0.023819 0.0280002 0)
(-0.0291128 0.0230955 0)
(-0.033308 0.0172791 0)
(-0.0362379 0.0107773 0)
(-0.037783 0.00383894 0)
(-0.0378759 -0.00326958 0)
(-0.0365043 -0.0102735 0)
(-0.0337133 -0.0168993 0)
(-0.0296045 -0.0228854 0)
(-0.0243331 -0.0279932 0)
(-0.0181024 -0.0320172 0)
(-0.0111558 -0.0347945 0)
(-0.00376727 -0.0362119 0)
(0.00377092 -0.0362118 0)
(0.0111594 -0.0347941 0)
(0.0181059 -0.0320165 0)
(0.0243365 -0.0279922 0)
(0.0296078 -0.0228842 0)
(0.0337164 -0.0168979 0)
(0.0365072 -0.0102719 0)
(0.0378785 -0.00326777 0)
(0.0377854 0.00384092 0)
(0.03624 0.0107794 0)
(0.0333098 0.0172814 0)
(0.0291143 0.0230978 0)
(0.0238201 0.0280025 0)
(0.0176371 0.0317933 0)
(0.0108193 0.0342864 0)
(0.00362609 0.0353038 0)
(-0.00436101 0.0431974 0)
(-0.0130128 0.0419563 0)
(-0.0212157 0.0389138 0)
(-0.0286595 0.034286 0)
(-0.0350387 0.0282956 0)
(-0.0401011 0.0211875 0)
(-0.0436447 0.0132364 0)
(-0.0455235 0.00474522 0)
(-0.0456537 -0.00396098 0)
(-0.044018 -0.0125457 0)
(-0.0406676 -0.020673 0)
(-0.0357232 -0.0280205 0)
(-0.0293706 -0.0342936 0)
(-0.0218548 -0.0392381 0)
(-0.0134704 -0.0426518 0)
(-0.00454944 -0.0443944 0)
(0.00455337 -0.0443943 0)
(0.0134743 -0.0426513 0)
(0.0218587 -0.0392373 0)
(0.0293743 -0.0342926 0)
(0.0357267 -0.0280192 0)
(0.040671 -0.0206713 0)
(0.044021 -0.0125439 0)
(0.0456565 -0.00395891 0)
(0.0455261 0.00474747 0)
(0.0436469 0.0132388 0)
(0.040103 0.0211901 0)
(0.0350403 0.0282982 0)
(0.0286607 0.0342887 0)
(0.0212166 0.0389165 0)
(0.0130134 0.041959 0)
(0.0043612 0.0432 0)
(-0.00525626 0.0527058 0)
(-0.0156852 0.0511977 0)
(-0.025577 0.0474976 0)
(-0.0345596 0.0418672 0)
(-0.0422662 0.0345749 0)
(-0.0483918 0.0259159 0)
(-0.0526914 0.016222 0)
(-0.0549856 0.0058603 0)
(-0.0551694 -0.00477376 0)
(-0.0532179 -0.0152693 0)
(-0.0491891 -0.0252144 0)
(-0.0432259 -0.0342127 0)
(-0.0355511 -0.0419005 0)
(-0.0264607 -0.0479635 0)
(-0.0163123 -0.0521512 0)
(-0.00550994 -0.0542895 0)
(0.00551421 -0.0542893 0)
(0.0163165 -0.0521506 0)
(0.0264649 -0.0479626 0)
(0.0355551 -0.0418993 0)
(0.0432296 -0.0342111 0)
(0.0491927 -0.0252125 0)
(0.0532212 -0.0152672 0)
(0.0551725 -0.00477141 0)
(0.0549883 0.00586286 0)
(0.0526938 0.0162247 0)
(0.0483939 0.0259188 0)
(0.0422679 0.0345779 0)
(0.0345609 0.0418703 0)
(0.0255779 0.0475006 0)
(0.0156858 0.0512007 0)
(0.00525646 0.0527088 0)
(-0.00634318 0.0641754 0)
(-0.0189301 0.0623479 0)
(-0.0308746 0.0578606 0)
(-0.0417304 0.0510287 0)
(-0.0510563 0.0421741 0)
(-0.0584837 0.0316511 0)
(-0.0637137 0.0198584 0)
(-0.0665255 0.00723977 0)
(-0.0667864 -0.00572539 0)
(-0.0644604 -0.0185362 0)
(-0.0596122 -0.0306881 0)
(-0.0524101 -0.0416938 0)
(-0.043122 -0.0511047 0)
(-0.0321058 -0.0585316 0)
(-0.0197966 -0.0636639 0)
(-0.00668783 -0.0662853 0)
(0.00669248 -0.0662851 0)
(0.0198012 -0.0636632 0)
(0.0321103 -0.0585305 0)
(0.0431263 -0.0511033 0)
(0.0524142 -0.041692 0)
(0.059616 -0.030686 0)
(0.0644639 -0.0185338 0)
(0.0667897 -0.00572273 0)
(0.0665284 0.00724265 0)
(0.0637163 0.0198615 0)
(0.0584859 0.0316543 0)
(0.0510581 0.0421775 0)
(0.0417318 0.0510321 0)
(0.0308756 0.057864 0)
(0.0189307 0.0623513 0)
(0.00634338 0.0641787 0)
(-0.00765937 0.0780231 0)
(-0.0228602 0.0758144 0)
(-0.0372936 0.0703852 0)
(-0.050425 0.062114 0)
(-0.0617236 0.0513852 0)
(-0.0707431 0.0386213 0)
(-0.0771188 0.0243 0)
(-0.0805768 0.00895532 0)
(-0.080949 -0.00683245 0)
(-0.0781827 -0.0224536 0)
(-0.0723482 -0.0372904 0)
(-0.0636434 -0.0507436 0)
(-0.0523895 -0.0622588 0)
(-0.0390204 -0.0713537 0)
(-0.0240664 -0.0776423 0)
(-0.00813155 -0.0808555 0)
(0.00813665 -0.0808553 0)
(0.0240714 -0.0776416 0)
(0.0390253 -0.0713525 0)
(0.0523942 -0.0622571 0)
(0.0636479 -0.0507415 0)
(0.0723524 -0.037288 0)
(0.0781865 -0.0224508 0)
(0.0809525 -0.00682944 0)
(0.08058 0.00895857 0)
(0.0771215 0.0243035 0)
(0.0707455 0.0386249 0)
(0.0617255 0.0513889 0)
(0.0504265 0.0621178 0)
(0.0372947 0.070389 0)
(0.0228609 0.0758183 0)
(0.00765959 0.0780269 0)
(-0.00924951 0.0947479 0)
(-0.0276093 0.0920851 0)
(-0.0450546 0.0855307 0)
(-0.0609458 0.0755378 0)
(-0.0746448 0.0625626 0)
(-0.0856115 0.0471066 0)
(-0.0933989 0.029739 0)
(-0.0976668 0.0111004 0)
(-0.0981996 -0.00810839 0)
(-0.0949209 -0.0271457 0)
(-0.0879039 -0.0452553 0)
(-0.0773797 -0.061699 0)
(-0.063733 -0.0757907 0)
(-0.0474901 -0.0869313 0)
(-0.0292991 -0.0946398 0)
(-0.00990139 -0.0985801 0)
(0.00990699 -0.0985798 0)
(0.0293046 -0.094639 0)
(0.0474955 -0.08693 0)
(0.0637382 -0.0757889 0)
(0.0773846 -0.0616967 0)
(0.0879084 -0.0452526 0)
(0.0949251 -0.0271427 0)
(0.0982034 -0.008105 0)
(0.0976702 0.011104 0)
(0.0934019 0.0297429 0)
(0.0856139 0.0471106 0)
(0.0746468 0.0625668 0)
(0.0609474 0.0755421 0)
(0.0450558 0.085535 0)
(0.02761 0.0920893 0)
(0.00924974 0.0947521 0)
(-0.0111662 0.114945 0)
(-0.0333352 0.111743 0)
(-0.0544181 0.103849 0)
(-0.0736514 0.0918008 0)
(-0.0902693 0.076138 0)
(-0.103618 0.0574516 0)
(-0.113148 0.0364165 0)
(-0.118435 0.0137977 0)
(-0.1192 -0.00955988 0)
(-0.115333 -0.0327551 0)
(-0.106904 -0.0548609 0)
(-0.0941805 -0.0749667 0)
(-0.0776232 -0.0922211 0)
(-0.0578705 -0.105877 0)
(-0.035716 -0.115334 0)
(-0.0120725 -0.120171 0)
(0.0120787 -0.12017 0)
(0.0357221 -0.115333 0)
(0.0578764 -0.105876 0)
(0.0776288 -0.092219 0)
(0.0941859 -0.0749641 0)
(0.106909 -0.0548579 0)
(0.115337 -0.0327516 0)
(0.119204 -0.00955605 0)
(0.118439 0.0138018 0)
(0.113151 0.0364208 0)
(0.10362 0.0574561 0)
(0.0902715 0.0761427 0)
(0.0736531 0.0918055 0)
(0.0544193 0.103853 0)
(0.0333359 0.111748 0)
(0.0111665 0.11495 0)
(-0.0134709 0.139325 0)
(-0.0402225 0.135486 0)
(-0.06569 0.126 0)
(-0.088965 0.111507 0)
(-0.10913 0.0926372 0)
(-0.125394 0.0700821 0)
(-0.13708 0.0446363 0)
(-0.143656 0.0172101 0)
(-0.144758 -0.0111809 0)
(-0.140226 -0.0394423 0)
(-0.130118 -0.0664365 0)
(-0.114742 -0.0910368 0)
(-0.0946458 -0.112184 0)
(-0.070605 -0.128943 0)
(-0.0435937 -0.140559 0)
(-0.0147388 -0.146503 0)
(0.0147456 -0.146503 0)
(0.0436004 -0.140558 0)
(0.0706115 -0.128941 0)
(0.094652 -0.112181 0)
(0.114748 -0.0910338 0)
(0.130124 -0.066433 0)
(0.140231 -0.0394384 0)
(0.144763 -0.0111766 0)
(0.14366 0.0172147 0)
(0.137084 0.0446412 0)
(0.125396 0.0700871 0)
(0.109133 0.0926423 0)
(0.0889668 0.111512 0)
(0.0656913 0.126005 0)
(0.0402233 0.135491 0)
(0.0134712 0.139331 0)
(-0.0162347 0.16873 0)
(-0.0484849 0.16414 0)
(-0.0792259 0.152775 0)
(-0.107381 0.135385 0)
(-0.131856 0.112702 0)
(-0.15169 0.0855253 0)
(-0.166052 0.0547844 0)
(-0.174267 0.0215555 0)
(-0.17586 -0.0129437 0)
(-0.170593 -0.0473851 0)
(-0.158502 -0.0803698 0)
(-0.139931 -0.1105 0)
(-0.115532 -0.136451 0)
(-0.0862489 -0.15705 0)
(-0.0532788 -0.171343 0)
(-0.0180183 -0.178661 0)
(0.0180259 -0.17866 0)
(0.0532863 -0.171341 0)
(0.0862561 -0.157048 0)
(0.115539 -0.136449 0)
(0.139938 -0.110497 0)
(0.158508 -0.0803658 0)
(0.170598 -0.0473806 0)
(0.175865 -0.0129389 0)
(0.174271 0.0215607 0)
(0.166056 0.0547898 0)
(0.151693 0.0855309 0)
(0.131858 0.112707 0)
(0.107383 0.135391 0)
(0.0792272 0.15278 0)
(0.0484857 0.164146 0)
(0.016235 0.168735 0)
(-0.0195385 0.204153 0)
(-0.0583665 0.198689 0)
(-0.0954342 0.185116 0)
(-0.129474 0.164312 0)
(-0.159181 0.137115 0)
(-0.183395 0.104437 0)
(-0.201089 0.0673537 0)
(-0.211402 0.0271283 0)
(-0.213708 -0.0147845 0)
(-0.207658 -0.0567735 0)
(-0.193239 -0.0971149 0)
(-0.170829 -0.134068 0)
(-0.1412 -0.165968 0)
(-0.1055 -0.191332 0)
(-0.0652082 -0.208954 0)
(-0.0220599 -0.217982 0)
(0.0220684 -0.217982 0)
(0.0652166 -0.208952 0)
(0.105508 -0.19133 0)
(0.141208 -0.165964 0)
(0.170836 -0.134064 0)
(0.193245 -0.0971104 0)
(0.207664 -0.0567684 0)
(0.213713 -0.0147789 0)
(0.211407 0.0271341 0)
(0.201092 0.0673597 0)
(0.183398 0.104444 0)
(0.159183 0.137121 0)
(0.129476 0.164319 0)
(0.0954356 0.185122 0)
(0.0583673 0.198695 0)
(0.0195388 0.204159 0)
(-0.023473 0.246761 0)
(-0.0701416 0.240288 0)
(-0.114777 0.224144 0)
(-0.155897 0.199345 0)
(-0.191955 0.166834 0)
(-0.221551 0.127637 0)
(-0.243407 0.0829784 0)
(-0.256428 0.0343289 0)
(-0.259772 -0.0165815 0)
(-0.252932 -0.0678013 0)
(-0.235804 -0.117198 0)
(-0.208792 -0.162594 0)
(-0.172805 -0.201887 0)
(-0.129242 -0.233191 0)
(-0.0799349 -0.254968 0)
(-0.0270519 -0.266134 0)
(0.0270615 -0.266134 0)
(0.0799443 -0.254966 0)
(0.129251 -0.233188 0)
(0.172813 -0.201883 0)
(0.2088 -0.16259 0)
(0.235811 -0.117193 0)
(0.252938 -0.0677954 0)
(0.259778 -0.0165752 0)
(0.256432 0.0343355 0)
(0.243411 0.0829852 0)
(0.221554 0.127644 0)
(0.191958 0.166841 0)
(0.155899 0.199352 0)
(0.114779 0.22415 0)
(0.0701424 0.240295 0)
(0.0234732 0.246768 0)
(-0.028137 0.297913 0)
(-0.0841108 0.29029 0)
(-0.137767 0.271181 0)
(-0.187387 0.241749 0)
(-0.23115 0.203031 0)
(-0.267367 0.156153 0)
(-0.294452 0.102481 0)
(-0.31099 0.0437079 0)
(-0.315851 -0.0181221 0)
(-0.308287 -0.0806489 0)
(-0.288044 -0.141225 0)
(-0.25553 -0.197107 0)
(-0.211809 -0.245622 0)
(-0.158594 -0.284359 0)
(-0.098162 -0.311347 0)
(-0.0332344 -0.325195 0)
(0.0332451 -0.325195 0)
(0.0981726 -0.311345 0)
(0.158604 -0.284356 0)
(0.211819 -0.245618 0)
(0.255539 -0.197102 0)
(0.288052 -0.141219 0)
(0.308294 -0.0806422 0)
(0.315857 -0.0181149 0)
(0.310995 0.0437153 0)
(0.294456 0.102489 0)
(0.267371 0.156161 0)
(0.231153 0.203039 0)
(0.187389 0.241756 0)
(0.137768 0.271188 0)
(0.0841115 0.290297 0)
(0.0281373 0.297921 0)
(-0.0336349 0.359175 0)
(-0.100593 0.350264 0)
(-0.164955 0.327782 0)
(-0.22475 0.293039 0)
(-0.277855 0.247142 0)
(-0.322238 0.19128 0)
(-0.355919 0.126937 0)
(-0.377066 0.0560269 0)
(-0.384145 -0.0190522 0)
(-0.376052 -0.0954558 0)
(-0.352282 -0.169876 0)
(-0.313211 -0.238838 0)
(-0.260079 -0.298913 0)
(-0.194987 -0.346994 0)
(-0.120788 -0.380541 0)
(-0.040914 -0.397768 0)
(0.0409262 -0.397767 0)
(0.1208 -0.380539 0)
(0.194998 -0.34699 0)
(0.26009 -0.298908 0)
(0.313221 -0.238832 0)
(0.35229 -0.169869 0)
(0.37606 -0.095448 0)
(0.384151 -0.0190441 0)
(0.377071 0.0560353 0)
(0.355923 0.126945 0)
(0.322241 0.191288 0)
(0.277858 0.24715 0)
(0.224752 0.293047 0)
(0.164956 0.32779 0)
(0.100594 0.350271 0)
(0.0336351 0.359183 0)
(-0.0400706 0.432326 0)
(-0.11991 0.422005 0)
(-0.196907 0.395756 0)
(-0.268843 0.355021 0)
(-0.333263 0.300924 0)
(-0.387734 0.234656 0)
(-0.429786 0.15776 0)
(-0.457025 0.0723484 0)
(-0.467355 -0.0188002 0)
(-0.459138 -0.112272 0)
(-0.431459 -0.203908 0)
(-0.384605 -0.289266 0)
(-0.320005 -0.363904 0)
(-0.240259 -0.423787 0)
(-0.148967 -0.465627 0)
(-0.0504847 -0.487127 0)
(0.0504986 -0.487126 0)
(0.14898 -0.465624 0)
(0.240271 -0.423782 0)
(0.320017 -0.363898 0)
(0.384616 -0.289258 0)
(0.431469 -0.2039 0)
(0.459146 -0.112263 0)
(0.467361 -0.0187908 0)
(0.45703 0.072358 0)
(0.429791 0.15777 0)
(0.387737 0.234665 0)
(0.333265 0.300933 0)
(0.268844 0.355029 0)
(0.196908 0.395765 0)
(0.11991 0.422014 0)
(0.0400708 0.432334 0)
(-0.0475386 0.519351 0)
(-0.142358 0.507543 0)
(-0.234169 0.477187 0)
(-0.320523 0.42983 0)
(-0.398628 0.366531 0)
(-0.465594 0.288366 0)
(-0.51833 0.196832 0)
(-0.553692 0.0941658 0)
(-0.568794 -0.0164644 0)
(-0.561202 -0.130983 0)
(-0.529332 -0.244128 0)
(-0.473276 -0.350157 0)
(-0.394675 -0.443249 0)
(-0.296783 -0.518114 0)
(-0.18419 -0.570483 0)
(-0.0624572 -0.597403 0)
(0.0624732 -0.597402 0)
(0.184206 -0.57048 0)
(0.296798 -0.518108 0)
(0.394689 -0.443241 0)
(0.473288 -0.350149 0)
(0.529342 -0.244118 0)
(0.561211 -0.130973 0)
(0.568801 -0.0164535 0)
(0.553697 0.0941766 0)
(0.518334 0.196843 0)
(0.465597 0.288377 0)
(0.39863 0.366541 0)
(0.320524 0.429839 0)
(0.234169 0.477196 0)
(0.142359 0.507552 0)
(0.0475387 0.51936 0)
(-0.0561095 0.622416 0)
(-0.168171 0.609116 0)
(-0.277198 0.574438 0)
(-0.380577 0.519978 0)
(-0.4752 0.446596 0)
(-0.557669 0.355076 0)
(-0.624126 0.246674 0)
(-0.670417 0.123589 0)
(-0.692544 -0.0106973 0)
(-0.68687 -0.15119 0)
(-0.650734 -0.291352 0)
(-0.583855 -0.423635 0)
(-0.488118 -0.540278 0)
(-0.367673 -0.634259 0)
(-0.228425 -0.700028 0)
(-0.0775066 -0.733836 0)
(0.0775251 -0.733834 0)
(0.228443 -0.700024 0)
(0.36769 -0.634253 0)
(0.488133 -0.540269 0)
(0.583868 -0.423624 0)
(0.650745 -0.29134 0)
(0.686879 -0.151178 0)
(0.692551 -0.010685 0)
(0.670422 0.123602 0)
(0.62413 0.246686 0)
(0.557671 0.355087 0)
(0.475201 0.446606 0)
(0.380578 0.519988 0)
(0.277198 0.574448 0)
(0.168171 0.609125 0)
(0.0561096 0.622425 0)
(-0.065809 0.743799 0)
(-0.19745 0.729127 0)
(-0.326267 0.690134 0)
(-0.449596 0.628379 0)
(-0.564085 0.544326 0)
(-0.665816 0.438191 0)
(-0.750016 0.310671 0)
(-0.811201 0.163608 0)
(-0.843641 0.000654228 0)
(-0.841964 -0.171987 0)
(-0.801928 -0.346376 0)
(-0.72243 -0.512378 0)
(-0.605692 -0.659301 0)
(-0.457076 -0.77773 0)
(-0.284263 -0.860589 0)
(-0.0965159 -0.903191 0)
(0.0965376 -0.903189 0)
(0.284284 -0.860584 0)
(0.457095 -0.777721 0)
(0.605709 -0.65929 0)
(0.722445 -0.512365 0)
(0.80194 -0.346361 0)
(0.841973 -0.171972 0)
(0.843648 0.000668975 0)
(0.811206 0.163623 0)
(0.750019 0.310684 0)
(0.665818 0.438203 0)
(0.564086 0.544337 0)
(0.449596 0.628389 0)
(0.326267 0.690144 0)
(0.19745 0.729136 0)
(0.0658089 0.743807 0)
(-0.076588 0.885779 0)
(-0.230085 0.870046 0)
(-0.381324 0.827107 0)
(-0.527788 0.758362 0)
(-0.666051 0.663612 0)
(-0.791733 0.542102 0)
(-0.899027 0.393466 0)
(-0.980637 0.218709 0)
(-1.02825 0.0213545 0)
(-1.03396 -0.191578 0)
(-0.991134 -0.409867 0)
(-0.89703 -0.619421 0)
(-0.754144 -0.805272 0)
(-0.569681 -0.955264 0)
(-0.354323 -1.06038 0)
(-0.120316 -1.11451 0)
(0.120342 -1.11451 0)
(0.354348 -1.06037 0)
(0.569704 -0.955254 0)
(0.754165 -0.805258 0)
(0.897047 -0.619405 0)
(0.991147 -0.40985 0)
(1.03397 -0.19156 0)
(1.02826 0.0213722 0)
(0.980641 0.218725 0)
(0.899028 0.393481 0)
(0.791733 0.542115 0)
(0.66605 0.663624 0)
(0.527787 0.758372 0)
(0.381323 0.827116 0)
(0.230084 0.870055 0)
(0.0765878 0.885787 0)
(-0.0882831 1.05045 0)
(-0.265627 1.03425 0)
(-0.441781 0.988272 0)
(-0.614696 0.913628 0)
(-0.78117 0.809105 0)
(-0.936552 0.672411 0)
(-1.07391 0.501334 0)
(-1.1836 0.295173 0)
(-1.25378 0.0565418 0)
(-1.27213 -0.206853 0)
(-1.22761 -0.481102 0)
(-1.11438 -0.747043 0)
(-0.935048 -0.984383 0)
(-0.703077 -1.17601 0)
(-0.435371 -1.30926 0)
(-0.147405 -1.37723 0)
(0.147436 -1.37723 0)
(0.4354 -1.30925 0)
(0.703105 -1.176 0)
(0.935072 -0.984366 0)
(1.1144 -0.747023 0)
(1.22763 -0.48108 0)
(1.27214 -0.206831 0)
(1.25379 0.0565624 0)
(1.18361 0.295192 0)
(1.07391 0.501351 0)
(0.93655 0.672426 0)
(0.781168 0.809117 0)
(0.614694 0.913639 0)
(0.441779 0.988281 0)
(0.265625 1.03425 0)
(0.0882826 1.05046 0)
(-0.100568 1.23947 0)
(-0.30314 1.22375 0)
(-0.506265 1.17642 0)
(-0.708819 1.09812 0)
(-0.908348 0.986244 0)
(-1.10038 0.836195 0)
(-1.2769 0.642681 0)
(-1.42502 0.401766 0)
(-1.52678 0.113735 0)
(-1.56135 -0.21356 0)
(-1.50818 -0.562588 0)
(-1.3534 -0.910761 0)
(-1.1104 -1.2182 0)
(-0.815526 -1.45377 0)
(-0.495384 -1.6112 0)
(-0.165653 -1.69114 0)
(0.165686 -1.69114 0)
(0.495418 -1.61119 0)
(0.815558 -1.45376 0)
(1.11043 -1.21818 0)
(1.35343 -0.910736 0)
(1.5082 -0.56256 0)
(1.56136 -0.213533 0)
(1.52679 0.11376 0)
(1.42502 0.401788 0)
(1.27689 0.6427 0)
(1.10038 0.836211 0)
(0.908344 0.986257 0)
(0.708815 1.09813 0)
(0.506262 1.17643 0)
(0.303138 1.22375 0)
(0.100567 1.23948 0)
(-0.112899 1.45365 0)
(-0.34103 1.43985 0)
(-0.572282 1.39386 0)
(-0.807093 1.31577 0)
(-1.04459 1.20117 0)
(-1.28133 1.04222 0)
(-1.50806 0.828471 0)
(-1.70546 0.549204 0)
(-1.8412 0.196762 0)
(-1.87193 -0.224763 0)
(-1.75425 -0.689003 0)
(-1.48625 -1.14022 0)
(-1.14539 -1.51888 0)
(-0.793494 -1.79496 0)
(-0.4587 -1.9692 0)
(-0.149468 -2.04766 0)
(0.149497 -2.04766 0)
(0.458731 -1.96919 0)
(0.793527 -1.79494 0)
(1.14543 -1.51885 0)
(1.48629 -1.14019 0)
(1.75428 -0.688967 0)
(1.87194 -0.224727 0)
(1.84121 0.196795 0)
(1.70546 0.549231 0)
(1.50805 0.828492 0)
(1.28132 1.04223 0)
(1.04459 1.20118 0)
(0.807086 1.31578 0)
(0.572277 1.39387 0)
(0.341026 1.43985 0)
(0.112897 1.45365 0)
(-0.12446 1.69248 0)
(-0.376863 1.6826 0)
(-0.635871 1.64189 0)
(-0.904287 1.56993 0)
(-1.18406 1.46033 0)
(-1.47391 1.30059 0)
(-1.7613 1.06979 0)
(-2.01037 0.737595 0)
(-2.14892 0.278398 0)
(-2.07413 -0.295531 0)
(-1.75408 -0.952354 0)
(-1.2998 -1.56403 0)
(-0.910984 -1.9402 0)
(-0.598253 -2.14892 0)
(-0.339225 -2.2604 0)
(-0.109703 -2.3089 0)
(0.109722 -2.3089 0)
(0.339245 -2.26039 0)
(0.598277 -2.14891 0)
(0.911013 -1.94019 0)
(1.29984 -1.56399 0)
(1.75412 -0.952307 0)
(2.07415 -0.295483 0)
(2.14893 0.278441 0)
(2.01037 0.737629 0)
(1.76129 1.06981 0)
(1.4739 1.3006 0)
(1.18405 1.46034 0)
(0.904277 1.56994 0)
(0.635864 1.6419 0)
(0.376859 1.68261 0)
(0.124458 1.69248 0)
(-0.134136 1.95357 0)
(-0.407251 1.95018 0)
(-0.691317 1.92004 0)
(-0.992418 1.8626 0)
(-1.31682 1.76959 0)
(-1.66617 1.62006 0)
(-2.01811 1.36494 0)
(-2.28663 0.929924 0)
(-2.29764 0.276088 0)
(-1.9169 -0.641628 0)
(-1.37625 -1.48711 0)
(-0.998678 -1.95683 0)
(-0.719583 -2.21976 0)
(-0.483904 -2.37164 0)
(-0.279945 -2.45445 0)
(-0.0917361 -2.49136 0)
(0.0917497 -2.49136 0)
(0.27996 -2.45445 0)
(0.483921 -2.37163 0)
(0.719603 -2.21975 0)
(0.998701 -1.95681 0)
(1.37628 -1.48707 0)
(1.91694 -0.641559 0)
(2.29766 0.276145 0)
(2.28663 0.929969 0)
(2.01809 1.36497 0)
(1.66616 1.62008 0)
(1.3168 1.7696 0)
(0.992405 1.86261 0)
(0.691307 1.92005 0)
(0.407246 1.95018 0)
(0.134134 1.95356 0)
(-0.140522 2.232 0)
(-0.427864 2.23812 0)
(-0.731066 2.22509 0)
(-1.06022 2.19318 0)
(-1.42693 2.13157 0)
(-1.83606 1.99605 0)
(-2.22846 1.6743 0)
(-2.38868 1.02839 0)
(-2.05405 -0.0812317 0)
(-1.46463 -1.23708 0)
(-1.09256 -1.86764 0)
(-0.866686 -2.21631 0)
(-0.67118 -2.44463 0)
(-0.465347 -2.57772 0)
(-0.274607 -2.64451 0)
(-0.0914808 -2.67532 0)
(0.0914926 -2.67532 0)
(0.27462 -2.64451 0)
(0.465363 -2.57771 0)
(0.671196 -2.44461 0)
(0.8667 -2.21629 0)
(1.09258 -1.86761 0)
(1.46466 -1.23703 0)
(2.0541 -0.0811319 0)
(2.38869 1.02846 0)
(2.22844 1.67434 0)
(1.83603 1.99607 0)
(1.42691 2.13158 0)
(1.06021 2.19318 0)
(0.731053 2.22509 0)
(0.427856 2.23811 0)
(0.14052 2.23199 0)
(-0.14205 2.51941 0)
(-0.433743 2.53831 0)
(-0.745993 2.54989 0)
(-1.09268 2.55641 0)
(-1.4919 2.53835 0)
(-1.943 2.39538 0)
(-2.28358 1.92496 0)
(-2.17081 0.836758 0)
(-1.58421 -0.716841 0)
(-1.17965 -1.62263 0)
(-0.999367 -2.06934 0)
(-0.899549 -2.36939 0)
(-0.724301 -2.63643 0)
(-0.503489 -2.77567 0)
(-0.29543 -2.83407 0)
(-0.0994362 -2.86147 0)
(0.0994467 -2.86147 0)
(0.295441 -2.83407 0)
(0.503504 -2.77567 0)
(0.724317 -2.63641 0)
(0.899557 -2.36937 0)
(0.999369 -2.06932 0)
(1.17966 -1.62258 0)
(1.58424 -0.716761 0)
(2.17084 0.836878 0)
(2.28356 1.92502 0)
(1.94296 2.3954 0)
(1.49187 2.53835 0)
(1.09266 2.55641 0)
(0.745978 2.54988 0)
(0.433734 2.5383 0)
(0.142047 2.5194 0)
(-0.137016 2.80559 0)
(-0.419486 2.83958 0)
(-0.725674 2.88174 0)
(-1.07134 2.93649 0)
(-1.48123 2.95621 0)
(-1.91563 2.74888 0)
(-2.11582 2.00754 0)
(-1.72961 0.24351 0)
(-1.28904 -1.10026 0)
(-1.04426 -1.81346 0)
(-1.015 -2.12945 0)
(-0.972608 -2.48422 0)
(-0.778987 -2.84809 0)
(-0.537926 -2.99977 0)
(-0.307934 -3.04466 0)
(-0.105131 -3.06607 0)
(0.105139 -3.06607 0)
(0.307944 -3.04467 0)
(0.537939 -2.99977 0)
(0.779001 -2.84808 0)
(0.97261 -2.48418 0)
(1.01499 -2.12942 0)
(1.04426 -1.81343 0)
(1.28905 -1.10018 0)
(1.72963 0.243629 0)
(2.11581 2.00762 0)
(1.91559 2.7489 0)
(1.48119 2.95621 0)
(1.07131 2.93647 0)
(0.725655 2.88173 0)
(0.419476 2.83956 0)
(0.137012 2.80557 0)
(-0.124192 3.07477 0)
(-0.380917 3.12571 0)
(-0.661066 3.20273 0)
(-0.980547 3.30531 0)
(-1.36534 3.33569 0)
(-1.72277 3.03596 0)
(-1.73903 1.84044 0)
(-1.41395 -0.118107 0)
(-1.09372 -1.36674 0)
(-0.970584 -1.89314 0)
(-1.00874 -2.13702 0)
(-0.992041 -2.60837 0)
(-0.771587 -3.08983 0)
(-0.537924 -3.24912 0)
(-0.29757 -3.26985 0)
(-0.10426 -3.27729 0)
(0.104263 -3.2773 0)
(0.297576 -3.26985 0)
(0.537931 -3.24913 0)
(0.771596 -3.08981 0)
(0.992042 -2.60832 0)
(1.00873 -2.13699 0)
(0.970571 -1.89313 0)
(1.09372 -1.36668 0)
(1.41396 -0.117991 0)
(1.73903 1.8406 0)
(1.72273 3.036 0)
(1.3653 3.33568 0)
(0.980517 3.30529 0)
(0.661047 3.2027 0)
(0.380906 3.12568 0)
(0.124189 3.07475 0)
(-0.103398 3.3107 0)
(-0.317025 3.37734 0)
(-0.549004 3.48627 0)
(-0.815208 3.62521 0)
(-1.12989 3.6448 0)
(-1.38603 3.22905 0)
(-1.34593 1.57399 0)
(-1.17238 -0.334307 0)
(-0.960696 -1.52187 0)
(-0.899144 -1.94211 0)
(-0.957742 -2.10222 0)
(-0.925212 -2.73077 0)
(-0.661026 -3.34157 0)
(-0.486968 -3.48267 0)
(-0.259485 -3.48022 0)
(-0.0944869 -3.47153 0)
(0.0944831 -3.47153 0)
(0.259485 -3.48023 0)
(0.486964 -3.48268 0)
(0.661028 -3.34155 0)
(0.925219 -2.7307 0)
(0.957726 -2.10219 0)
(0.899131 -1.94211 0)
(0.960691 -1.52181 0)
(1.17238 -0.334189 0)
(1.3459 1.57418 0)
(1.38598 3.22909 0)
(1.12985 3.64478 0)
(0.815178 3.62518 0)
(0.548984 3.48624 0)
(0.317013 3.37731 0)
(0.103395 3.31067 0)
(-0.0754748 3.49746 0)
(-0.230507 3.57559 0)
(-0.395518 3.70711 0)
(-0.583581 3.86461 0)
(-0.793198 3.87166 0)
(-0.940875 3.36185 0)
(-0.984748 1.4799 0)
(-0.963736 -0.425396 0)
(-0.864108 -1.6003 0)
(-0.862368 -1.98699 0)
(-0.828009 -2.02326 0)
(-0.692894 -2.87674 0)
(-0.447973 -3.5542 0)
(-0.38195 -3.66175 0)
(-0.196957 -3.65186 0)
(-0.0755958 -3.63175 0)
(0.0755846 -3.63175 0)
(0.196948 -3.65186 0)
(0.381934 -3.66176 0)
(0.447962 -3.55419 0)
(0.692896 -2.87666 0)
(0.828007 -2.02323 0)
(0.862354 -1.98699 0)
(0.86409 -1.60024 0)
(0.963721 -0.425264 0)
(0.984707 1.48009 0)
(0.940828 3.36189 0)
(0.793155 3.87163 0)
(0.583553 3.86457 0)
(0.3955 3.70706 0)
(0.230497 3.57555 0)
(0.0754715 3.49742 0)
(-0.0424319 3.62171 0)
(-0.129136 3.70473 0)
(-0.216228 3.8454 0)
(-0.308187 4.00276 0)
(-0.399411 4.00174 0)
(-0.428926 3.44597 0)
(-0.563822 1.54328 0)
(-0.727658 -0.376885 0)
(-0.743949 -1.58915 0)
(-0.802268 -2.08204 0)
(-0.665391 -2.20643 0)
(-0.395276 -3.01329 0)
(-0.232054 -3.67137 0)
(-0.250804 -3.76883 0)
(-0.126347 -3.76809 0)
(-0.0521615 -3.74538 0)
(0.0521432 -3.74539 0)
(0.12633 -3.7681 0)
(0.250778 -3.76883 0)
(0.232029 -3.67136 0)
(0.395262 -3.01322 0)
(0.6654 -2.2064 0)
(0.80225 -2.08202 0)