/*--------------------------------*- C++ -*----------------------------------*\
  =========                 |
  \\      /  F ield         | OpenFOAM: The Open Source CFD Toolbox
   \\    /   O peration     | Website:  https://openfoam.org
    \\  /    A nd           | Version:  9
     \\/     M anipulation  |
\*---------------------------------------------------------------------------*/
FoamFile
{
    format      ascii;
    class       volScalarField;
    location    "27";
    object      p;
}
// * * * * * * * * * * * * * * * * * * * * * * * * * * * * * * * * * * * * * //

dimensions      [0 2 -2 0 0 0 0];

internalField   nonuniform List<scalar> 
400
(
2.5614831e-07
-0.00067258646
-0.0013850594
-0.0019424152
-0.0022197069
-0.0021562024
-0.0017274968
-0.00092590627
0.00023571257
0.0017076958
0.0033875773
0.0051124916
0.0066737783
0.0078494064
0.0084586948
0.0084239871
0.007813696
0.0068448147
0.0058615971
0.0052992441
0.00065812665
-4.0236235e-05
-0.00056936849
-0.00094033254
-0.0011105691
-0.0010396261
-0.00070549417
-9.5247499e-05
0.00078939578
0.001916479
0.0032098751
0.0045549951
0.0057822584
0.0067165572
0.0072147257
0.0072148283
0.0067702529
0.0060530674
0.005310826
0.0047387856
0.0014239861
0.00044093814
-0.00011631047
-0.00045295156
-0.00061451449
-0.00058451569
-0.00034628375
0.00012004051
0.00082875631
0.0017701983
0.0028945745
0.0040984401
0.0052285175
0.0061112611
0.0065941645
0.0065979617
0.0061560346
0.0054218077
0.0045940418
0.0037485277
0.0020144812
0.00068197264
1.7057019e-05
-0.000358564
-0.00057125734
-0.00062626528
-0.00050978725
-0.00019033488
0.0003687988
0.0011846815
0.0022302004
0.0034177027
0.0045916409
0.005557227
0.0061238515
0.0061668627
0.0056839218
0.0048173491
0.0037475868
0.0024738903
0.0021675517
0.00049640274
-0.00029597326
-0.000748419
-0.0010579653
-0.0012449799
-0.0012924555
-0.0011510061
-0.00075474977
-5.2795471e-05
0.00095732641
0.0022105753
0.0035449964
0.0047329535
0.0055221409
0.0057101862
0.0052295897
0.0042019045
0.0028064785
0.00098425368
0.0016542429
-0.00031419504
-0.0012385017
-0.0017990148
-0.0022523763
-0.0026276226
-0.0028983305
-0.0029907851
-0.0028022312
-0.0022373649
-0.0012507833
0.00013119948
0.0017449441
0.0033274021
0.0045419365
0.0050660767
0.0047177983
0.0035665003
0.0017898896
-0.0007256268
0.00028730736
-0.0019192859
-0.0029727109
-0.0036710922
-0.0043200062
-0.0049529122
-0.0055298321
-0.0059476584
-0.0060586967
-0.0057070675
-0.0047754011
-0.0032583859
-0.0012662074
0.00090747208
0.0028234185
0.0039871328
0.0040253973
0.0028880113
0.00071567819
-0.0026802016
-0.0020761434
-0.0044509047
-0.005626514
-0.0064920276
-0.0073926204
-0.0083654652
-0.0093566317
-0.010231492
-0.010790666
-0.010804527
-0.010063046
-0.0084614498
-0.0060404582
-0.0030829141
-0.00012600941
0.0021129208
0.0029641282
0.0021358833
-0.00036573389
-0.0048723092
-0.0055238772
-0.0079918222
-0.0092776282
-0.010333492
-0.01153769
-0.012935104
-0.014462408
-0.015956029
-0.017162162
-0.017765714
-0.017437758
-0.015919152
-0.01312264
-0.0092514468
-0.0048987023
-0.001029713
0.0012697119
0.0012780647
-0.0013336575
-0.0072013749
-0.01007662
-0.012564799
-0.013936369
-0.015183707
-0.01671807
-0.0186023
-0.020773881
-0.023048461
-0.02512138
-0.026586029
-0.026969016
-0.025812608
-0.022845349
-0.01807413
-0.012050779
-0.0059516444
-0.0013704328
0.00030089741
-0.0019469011
-0.0093819212
-0.015684691
-0.018132115
-0.019537259
-0.020926509
-0.02275743
-0.025129555
-0.027996677
-0.03116608
-0.034291155
-0.03687653
-0.038293843
-0.037843941
-0.035065521
-0.029601144
-0.02182218
-0.012985263
-0.005184665
-0.0007154439
-0.0017638955
-0.01079195
-0.022243297
-0.024612741
-0.0259453
-0.027334654
-0.029323848
-0.032078916
-0.035588619
-0.039664319
-0.043926947
-0.047800985
-0.050529866
-0.051236149
-0.048956544
-0.043143219
-0.033768695
-0.021926027
-0.010036571
-0.0014151361
-9.5621397e-06
-0.010225314
-0.029640903
-0.031923599
-0.032978465
-0.034079569
-0.035939187
-0.038831207
-0.042795309
-0.047651263
-0.052990205
-0.058163264
-0.062283927
-0.064265208
-0.062874832
-0.057111863
-0.046476424
-0.031648774
-0.015037552
-0.00086408317
0.0046470674
-0.0055212343
-0.037865683
-0.040048206
-0.040439864
-0.040752237
-0.042014726
-0.044652746
-0.04875789
-0.05414375
-0.060355711
-0.066665022
-0.072060364
-0.075267961
-0.074811044
-0.069268953
-0.057627999
-0.039961203
-0.018247668
0.0027893404
0.014445458
0.0069078463
-0.047230271
-0.049134036
-0.048140286
-0.046882038
-0.046905206
-0.04879837
-0.052667972
-0.058275702
-0.065075788
-0.072231679
-0.078595449
-0.082712004
-0.082879899
-0.077309088
-0.064523642
-0.043934661
-0.016747695
0.012503242
0.032939079
0.032409245
-0.058896501
-0.059639569
-0.055883572
-0.051940782
-0.049972061
-0.050629585
-0.053928329
-0.05949502
-0.066611544
-0.074284985
-0.081190858
-0.085679097
-0.085831496
-0.079521902
-0.064875815
-0.040688986
-0.0072406394
0.032139655
0.064981736
0.077749465
-0.076226248
-0.072613484
-0.063515818
-0.05543505
-0.050724758
-0.049781341
-0.052312058
-0.057664061
-0.06489151
-0.072774664
-0.079779063
-0.084036448
-0.083391363
-0.075348679
-0.057602399
-0.02837487
0.012933598
0.06539675
0.11555179
0.1515065
-0.10809195
-0.089556184
-0.071233556
-0.057232666
-0.049071823
-0.046329938
-0.048076988
-0.053202317
-0.060434323
-0.068295563
-0.075027094
-0.078526621
-0.076388722
-0.065809399
-0.043865211
-0.0078181844
0.044393933
0.11299842
0.18838069
0.27186103
-0.17684516
-0.10828952
-0.076202325
-0.054651004
-0.042992107
-0.038997751
-0.040570231
-0.045927758
-0.053441245
-0.061438061
-0.068027289
-0.070962268
-0.067550851
-0.054739561
-0.029148548
0.013563863
0.078147218
0.17006462
0.28949573
0.47421848
-0.37208311
-0.12470816
-0.054972815
-0.031962273
-0.0220633
-0.020300253
-0.02435918
-0.031957716
-0.04126127
-0.050640592
-0.058316607
-0.062187174
-0.059782271
-0.048056536
-0.022658261
0.02147447
0.092818983
0.21015303
0.40288869
0.77640955
)
;

boundaryField
{
    movingWall
    {
        type            zeroGradient;
    }
    fixedWalls
    {
        type            zeroGradient;
    }
    frontAndBack
    {
        type            empty;
    }
}


// ************************************************************************* //
