/*--------------------------------*- C++ -*----------------------------------*\
  =========                 |
  \\      /  F ield         | OpenFOAM: The Open Source CFD Toolbox
   \\    /   O peration     | Website:  https://openfoam.org
    \\  /    A nd           | Version:  9
     \\/     M anipulation  |
\*---------------------------------------------------------------------------*/
FoamFile
{
    format      ascii;
    class       surfaceScalarField;
    location    "27";
    object      phi_0;
}
// * * * * * * * * * * * * * * * * * * * * * * * * * * * * * * * * * * * * * //

dimensions      [0 3 -1 0 0 0 0];

internalField   nonuniform List<scalar> 
760
(
1.270166e-05
-1.2704632e-05
-2.872379e-05
4.1425456e-05
-0.00012229227
9.3568478e-05
-0.00025039688
0.00012810462
-0.00039607635
0.00014567948
-0.0005453933
0.00014931695
-0.00068627463
0.00014088133
-0.00080689592
0.0001206213
-0.00089495672
8.806083e-05
-0.00093839493
4.3438234e-05
-0.00092727849
-1.111641e-05
-0.00085686516
-7.0413354e-05
-0.00073043148
-0.00012643373
-0.00056134298
-0.00016908859
-0.0003727609
-0.0001885822
-0.00019447421
-0.00017828677
-5.6521971e-05
-0.00013795223
1.9614443e-05
-7.6136344e-05
3.0411324e-05
-1.0796823e-05
3.0411328e-05
-4.3183429e-05
3.0478803e-05
-0.00020456702
0.00020280906
-0.00046832584
0.0003573273
-0.00080070964
0.00046048842
-0.001167353
0.00051232288
-0.0015364527
0.0005184166
-0.0018782314
0.00048266008
-0.0021636863
0.00040607623
-0.0023645486
0.00028892307
-0.0024553554
0.00013424506
-0.0024181481
-4.8323738e-05
-0.002245363
-0.00024319847
-0.0019475602
-0.00042423667
-0.0015544716
-0.00056217721
-0.0011143227
-0.00062873119
-0.0006874753
-0.00060513405
-0.00033452572
-0.00049090173
-0.00010089672
-0.00030976532
-1.5519251e-06
-0.00011014161
2.8859388e-05
-0.00011002767
0.00014050648
-0.00040303337
0.00049581477
-0.00083139184
0.00078568578
-0.0013456231
0.00097471971
-0.0018986066
0.0010653064
-0.0024465907
0.0010664006
-0.0029480437
0.00098411311
-0.0033626308
0.00082066332
-0.003651903
0.00057819517
-0.0037823295
0.00026467154
-0.0037298341
-0.00010081906
-0.0034858205
-0.00048721188
-0.0030632799
-0.00084677705
-0.0024999967
-0.0011254603
-0.0018582361
-0.0012704918
-0.0012181449
-0.0012452252
-0.00066373688
-0.0010453097
-0.00026308971
-0.00071041252
-4.795637e-05
-0.00032527497
-1.9096937e-05
-0.00017344045
0.00031394693
-0.00059329535
0.00091566967
-0.0011777013
0.0013700917
-0.0018583795
0.001655398
-0.0025769216
0.0017838485
-0.0032813235
0.0017708025
-0.0039228108
0.0016256003
-0.0044541538
0.0013520064
-0.0048302767
0.00095431804
-0.0050112492
0.00044564408
-0.004967266
-0.0001448022
-0.0046844411
-0.0007700366
-0.0041723545
-0.0013588634
-0.0034691298
-0.0018286849
-0.002644011
-0.0020956106
-0.0017932016
-0.0020960347
-0.0010258508
-0.0018126605
-0.00044021508
-0.0012960483
-9.6723919e-05
-0.00066876609
-0.0001158208
-0.00022979665
0.00054374358
-0.00076507845
0.0014509515
-0.0014914927
0.002096506
-0.0023225587
0.002486464
-0.0031901554
0.0026514452
-0.0040368404
0.0026174875
-0.0048100567
0.0023988167
-0.0054589858
0.0020009355
-0.0059342027
0.001429535
-0.006189833
0.00070127431
-0.0061884126
-0.00014622267
-0.005905582
-0.0010528672
-0.0053404176
-0.0019240278
-0.0045231163
-0.0026459863
-0.0035229765
-0.0030957504
-0.0024498047
-0.0031692065
-0.0014425394
-0.0028199259
-0.00064123126
-0.0020973564
-0.00014883692
-0.0011611604
-0.00026465767
-0.00027729909
0.00082104268
-0.00091155111
0.0020852035
-0.001760738
0.0029456929
-0.0027228202
0.0034485461
-0.0037222262
0.0036508512
-0.0046987124
0.0035939738
-0.0055989109
0.0032990152
-0.0063712118
0.0027732364
-0.0069637494
0.0020220725
-0.0073248567
0.0010623815
-0.0074074782
-6.3601326e-05
-0.0071717087
-0.0012886369
-0.0065988971
-0.0024968395
-0.0057016844
-0.0035431989
-0.004540021
-0.0042574137
-0.0032318429
-0.0044773846
-0.0019490208
-0.0041027481
-0.00088728762
-0.0031590896
-0.0002115942
-0.0018368537
-0.00047625184
-0.00031411659
0.0011351593
-0.001026341
0.0027974279
-0.0019735115
0.0038928634
-0.0030417595
0.0045167941
-0.0041507235
0.0047598153
-0.0052399519
0.0046832022
-0.0062580821
0.0043171456
-0.0071555349
0.0036706892
-0.0078803766
0.0027469142
-0.0083768512
0.001558856
-0.0085853975
0.00014494492
-0.0084513266
-0.0014227078
-0.0079295047
-0.0030186614
-0.0070049673
-0.0044677363
-0.0057150456
-0.0055473352
-0.0041735818
-0.0060188483
-0.0025818446
-0.0056944854
-0.0012041046
-0.0045368297
-0.00029450399
-0.0027464543
-0.00077075583
-0.00033824857
0.0014734078
-0.0011031693
0.0035623486
-0.0021176342
0.0049073283
-0.0032598896
0.0056590495
-0.0044474068
0.0059473324
-0.0056219612
0.0058577566
-0.0067369475
0.005432132
-0.0077479647
0.0046817066
-0.0086063716
0.0036053212
-0.0092552474
0.0022077318
-0.0096270109
0.00051670842
-0.0096492022
-0.0014005164
-0.0092489772
-0.0034188864
-0.0083739404
-0.0053427731
-0.0070220704
-0.0068992052
-0.0052818122
-0.0077591065
-0.0033676659
-0.0076086317
-0.0016173629
-0.0062871327
-0.00040826882
-0.0039555484
-0.0011790246
-0.00034815607
0.0018215639
-0.0011372146
0.0043514072
-0.0021827878
0.0059529015
-0.0033586187
0.0068348805
-0.0045822409
0.0071709545
-0.0057998201
0.0070753358
-0.0069721921
0.0066045041
-0.0080636648
0.0057731796
-0.0090334381
0.0045750946
-0.00982899
0.0030032837
-0.010381271
0.0010689892
-0.010604522
-0.001177265
-0.010400775
-0.0036226341
-0.0096748928
-0.0060686548
-0.0083686728
-0.0082054252
-0.006515684
-0.0096120953
-0.0043098838
-0.0098144319
-0.002148323
-0.0084486936
-0.00056492522
-0.0055389462
-0.0017439499
-0.00034393472
0.0021654986
-0.0011278594
0.0051353319
-0.0021647094
0.0069897514
-0.0033259014
0.0079960725
-0.0045308016
0.0083758547
-0.0057319433
0.0082764773
-0.0069002202
0.0077727809
-0.0080123799
0.0068853394
-0.0090408242
0.0056035391
-0.0099449648
0.0039074244
-0.010663393
0.0017874169
-0.011106744
-0.00073391421
-0.011163418
-0.0035659595
-0.010697126
-0.006534947
-0.0095825975
-0.0093199536
-0.0077667758
-0.011427917
-0.0053715003
-0.012209707
-0.0028071783
-0.011013016
-0.00077836884
-0.0075677556
-0.0025223187
-0.0003289079
0.0024944066
-0.0010824214
0.0058888453
-0.0020707771
0.007978107
-0.0031636127
0.0090889083
-0.0042839017
0.0094961437
-0.0053928532
0.0093854287
-0.0064741404
0.0088540678
-0.007520548
0.0079317471
-0.0085229179
0.006605909
-0.0094603446
0.0048448511
-0.010291332
0.0026184042
-0.010933227
-9.2019372e-05
-0.011283212
-0.0032159746
-0.011173633
-0.0066445259
-0.010415713
-0.010077873
-0.0088467355
-0.012996895
-0.0064557533
-0.01460069
-0.0035815266
-0.013887242
-0.0010642227
-0.010085059
-0.0035865414
-0.00031178427
0.0028061909
-0.0010206793
0.0065977403
-0.0019261004
0.0088835283
-0.0028949497
0.010057758
-0.0038568838
0.010458078
-0.0047855647
0.01031411
-0.0056807679
0.0097492709
-0.0065544575
0.0088054364
-0.0074198913
0.0074713428
-0.0082818269
0.0057067869
-0.0091251573
0.0034617348
-0.0099086415
0.00069146475
-0.010527258
-0.002597358
-0.010827015
-0.0063447691
-0.010573629
-0.010331259
-0.0094932088
-0.014077315
-0.0073911387
-0.01670276
-0.0044189144
-0.016859467
-0.0014372115
-0.013066762
-0.0050237528
-0.00031004302
0.0031162338
-0.0009803652
0.0072680626
-0.0017790493
0.0096822127
-0.0025693669
0.010848075
-0.0032945973
0.011183308
-0.0039478985
0.010967411
-0.0045499723
0.010351345
-0.0051347879
0.009390252
-0.0057399228
0.0080764775
-0.0063985272
0.0063653913
-0.0071301297
0.0041933374
-0.0079302615
0.0014915967
-0.008738808
-0.0017888115
-0.0094303607
-0.0056532164
-0.0097685825
-0.0099930375
-0.0094003445
-0.014445553
-0.0079305798
-0.018172524
-0.0052061613
-0.019583885
-0.0019026119
-0.016370312
-0.0069263648
-0.00035604039
0.003472274
-0.0010239977
0.0079360197
-0.0017042308
0.010362446
-0.0022607991
0.011404644
-0.0026657229
0.011588231
-0.0029440112
0.011245699
-0.0031442505
0.010551585
-0.0033248685
0.0095708701
-0.0035471941
0.0082988031
-0.0038710471
0.0066892442
-0.0043491723
0.0046714626
-0.0050183817
0.0021608061
-0.0058766145
-0.0009305787
-0.0068578369
-0.004671994
-0.0077762897
-0.0090745846
-0.0082658364
-0.013956006
-0.0077687407
-0.01866962
-0.0057510997
-0.021601526
-0.0024366711
-0.01968474
-0.0093630359
-0.00050826115
0.003980535
-0.0012456319
0.0086733901
-0.0017958845
0.010912699
-0.0020479998
0.01165676
-0.002032507
0.011572738
-0.0018254274
0.011038619
-0.0015121942
0.010238351
-0.0011778622
0.0092365382
-0.00090471585
0.0080256569
-0.00077372336
0.0065582518
-0.00086349368
0.0047612329
-0.0012473614
0.0025446738
-0.0019828356
-0.00019510454
-0.0030818714
-0.0035729581
-0.0044600343
-0.0076964217
-0.0058274889
-0.012588551
-0.0065661649
-0.017930944
-0.0057684474
-0.022399244
-0.002951225
-0.022501963
-0.012314261
-0.00086855329
0.0048490885
-0.0017629831
0.0095678197
-0.0021213552
0.011271071
-0.001936844
0.011472249
-0.001350919
0.010986814
-0.00051618886
0.010203889
0.00043704545
0.0092851165
0.0013996182
0.0082739652
0.0022723817
0.0071528933
0.0029609202
0.0058697134
0.0033691548
0.0043529983
0.0033968027
0.0025170259
0.0029385479
0.00026315032
0.0019096122
-0.0025440224
0.00026968537
-0.0060564949
-0.0018541633
-0.010464703
-0.003951596
-0.015833511
-0.0048608344
-0.021490005
-0.0032547034
-0.024108094
-0.015568964
-0.0015910841
0.0064401727
-0.002610852
0.010587588
-0.0025131354
0.011173353
-0.0015899043
0.010549017
-0.00017216673
0.009569077
0.001492806
0.008538917
0.0032329033
0.0075450194
0.004923243
0.0065836254
0.0064630018
0.0056131345
0.0077575059
0.0045752093
0.0087075109
0.0034029932
0.0092014983
0.0020230386
0.0091033424
0.00036130618
0.0082750908
-0.0017157707
0.0065654601
-0.0043468642
0.0039042345
-0.0078034769
0.00055895371
-0.01248823
-0.0024680547
-0.018462997
-0.0030273168
-0.023548831
-0.018596281
-0.0027183602
0.0091585325
-0.0031498647
0.011019095
-0.0018029974
0.0098264848
0.00046670308
0.0082793157
0.0030894261
0.0069463536
0.0057738145
0.0058545287
0.008362902
0.004955932
0.0107604
0.0041861278
0.012893495
0.0034800394
0.014690663
0.0027780415
0.016068347
0.0020253089
0.016923285
0.0011681004
0.017119713
0.00016487842
0.016490829
-0.0010868866
0.014816839
-0.0026728746
0.011846656
-0.0048332941
0.0074354917
-0.0080770659
0.002262929
-0.013290434
-0.0012724666
-0.020013436
-0.019868748
-0.0024132802
0.011571812
2.8056717e-05
0.0085777594
0.0042551386
0.0055994045
0.0084161226
0.0041183321
0.012231485
0.0031309914
0.015656264
0.0024297497
0.018686547
0.0019256487
0.02132919
0.0015434847
0.02358349
0.0012257393
0.025429225
0.00093230684
0.026820168
0.00063436581
0.027677179
0.00031108929
0.027900203
-5.8145491e-05
0.027347224
-0.00053390729
0.025771631
-0.001097282
0.022843046
-0.0019047094
0.01805477
-0.0032887893
0.011113586
-0.0063492511
0.0033886753
-0.012288525
-0.016480072
0.011571811
0.020149569
0.025748974
0.029867306
0.032998297
0.035428047
0.037353696
0.03889718
0.04012292
0.041055227
0.041689592
0.042000682
0.041942536
0.041408629
0.040311347
0.038406637
0.035117848
0.028768597
0.016480072
)
;

boundaryField
{
    movingWall
    {
        type            calculated;
        value           uniform 0;
    }
    fixedWalls
    {
        type            calculated;
        value           uniform 0;
    }
    frontAndBack
    {
        type            empty;
        value           nonuniform List<scalar> 0();
    }
}


// ************************************************************************* //
