/*--------------------------------*- C++ -*----------------------------------*\
  =========                 |
  \\      /  F ield         | OpenFOAM: The Open Source CFD Toolbox
   \\    /   O peration     | Website:  https://openfoam.org
    \\  /    A nd           | Version:  9
     \\/     M anipulation  |
\*---------------------------------------------------------------------------*/
FoamFile
{
    format      ascii;
    class       volVectorField;
    location    "27";
    object      U_0;
}
// * * * * * * * * * * * * * * * * * * * * * * * * * * * * * * * * * * * * * //

dimensions      [0 1 -1 0 0 0 0];

internalField   nonuniform List<vector> 
400
(
(0.00028443217 -0.00028140748 0)
(0.00011067906 7.9960954e-05 0)
(-0.0013272011 0.00047803108 0)
(-0.003621908 0.0007359322 0)
(-0.0064236723 0.00086752449 0)
(-0.0094315146 0.00090727401 0)
(-0.012388054 0.00087487172 0)
(-0.015056514 0.00077153545 0)
(-0.017194632 0.00058849286 0)
(-0.018552941 0.00032008547 0)
(-0.018902706 -2.481304e-05 0)
(-0.018086218 -0.00041826992 0)
(-0.016079947 -0.00079972613 0)
(-0.013048976 -0.0010930869 0)
(-0.0093664072 -0.0012212154 0)
(-0.0055776643 -0.0011294826 0)
(-0.002300341 -0.00081287165 0)
(-8.2952717e-05 -0.0003379825 0)
(0.00076015085 0.00015229449 0)
(0.00040944162 0.0003893385 0)
(-8.6067392e-05 -0.00012360012 0)
(-0.0018692722 0.0017872513 0)
(-0.0063065491 0.003626069 0)
(-0.012452739 0.0048625187 0)
(-0.019600744 0.0054985576 0)
(-0.027107095 0.005620701 0)
(-0.034359081 0.0052860579 0)
(-0.040769102 0.0045044002 0)
(-0.045758421 0.0032662309 0)
(-0.048776163 0.0015896533 0)
(-0.049366916 -0.00043547841 0)
(-0.047254087 -0.0026182084 0)
(-0.042452217 -0.0046645687 0)
(-0.035361657 -0.0062189517 0)
(-0.026778721 -0.0069376218 0)
(-0.017827319 -0.0065922961 0)
(-0.0097755571 -0.0051797963 0)
(-0.0037462998 -0.0029994419 0)
(-0.00038875248 -0.00066553658 0)
(0.00028989496 0.00078354816 0)
(-0.00058808319 0.0014336263 0)
(-0.0042428237 0.0063775373 0)
(-0.011758625 0.010640641 0)
(-0.021468818 0.013483687 0)
(-0.032366392 0.01489839 0)
(-0.04358828 0.015017468 0)
(-0.054287744 0.01393623 0)
(-0.063642936 0.011684286 0)
(-0.07085626 0.0082813829 0)
(-0.0751888 0.0038286511 0)
(-0.076039979 -0.0014059317 0)
(-0.07305815 -0.0069356995 0)
(-0.066266984 -0.01207182 0)
(-0.056169587 -0.01600034 0)
(-0.04378097 -0.01794283 0)
(-0.030569279 -0.017380024 0)
(-0.018250698 -0.014290022 0)
(-0.0084179864 -0.0093123217 0)
(-0.0021511239 -0.0037618391 0)
(-1.9706963e-06 0.00031696706 0)
(-0.0010530692 0.0043003931 0)
(-0.0065148889 0.013565796 0)
(-0.016999212 0.020864195 0)
(-0.030031063 0.025561372 0)
(-0.044300843 0.027761593 0)
(-0.05878464 0.027688082 0)
(-0.072487953 0.025487734 0)
(-0.084447387 0.021218484 0)
(-0.09372943 0.014945147 0)
(-0.09946471 0.0068783784 0)
(-0.10093061 -0.0025013123 0)
(-0.097663242 -0.012378503 0)
(-0.08959339 -0.021605508 0)
(-0.077182452 -0.028824909 0)
(-0.061505242 -0.032706191 0)
(-0.044253735 -0.03230003 0)
(-0.027562268 -0.027445974 0)
(-0.013581778 -0.019080742 0)
(-0.0040263571 -0.0092707082 0)
(-0.00026772102 -0.0011081911 0)
(-0.0014558688 0.0083650511 0)
(-0.0085490883 0.0231813 0)
(-0.021746288 0.034051755 0)
(-0.037792569 0.040763188 0)
(-0.055097064 0.043701858 0)
(-0.072519772 0.043259119 0)
(-0.088984653 0.039661543 0)
(-0.10345871 0.0330014 0)
(-0.11493249 0.023384257 0)
(-0.12243717 0.011116751 0)
(-0.12511556 -0.0031289591 0)
(-0.1223201 -0.018219422 0)
(-0.1137617 -0.032541682 0)
(-0.099698391 -0.044132713 0)
(-0.081100598 -0.050966379 0)
(-0.059776395 -0.051441317 0)
(-0.038291223 -0.045013704 0)
(-0.019520473 -0.032755587 0)
(-0.0060923465 -0.017491868 0)
(-0.0005110229 -0.0035220295 0)
(-0.0017889374 0.013475474 0)
(-0.010269736 0.034960922 0)
(-0.025805557 0.049908724 0)
(-0.044466848 0.0587949 0)
(-0.064427838 0.06245847 0)
(-0.084477707 0.061550989 0)
(-0.10351676 0.056416111 0)
(-0.12050373 0.047182253 0)
(-0.13440418 0.033970373 0)
(-0.14417415 0.017132369 0)
(-0.14880368 -0.0025359338 0)
(-0.1473935 -0.02363646 0)
(-0.13931131 -0.044142704 0)
(-0.12443572 -0.061442245 0)
(-0.10343175 -0.072642448 0)
(-0.078055987 -0.075174043 0)
(-0.051260974 -0.067706851 0)
(-0.026809478 -0.051124242 0)
(-0.0086123092 -0.028965685 0)
(-0.00078707381 -0.0070521573 0)
(-0.0020420374 0.019436548 0)
(-0.011605666 0.048528989 0)
(-0.028995832 0.067998433 0)
(-0.049757789 0.079226127 0)
(-0.071891711 0.083657502 0)
(-0.094162178 0.082297824 0)
(-0.11550015 0.075649757 0)
(-0.13491513 0.063876948 0)
(-0.15140339 0.047076005 0)
(-0.16388487 0.025567775 0)
(-0.17119249 0.0001630251 0)
(-0.17215467 -0.027610655 0)
(-0.16571578 -0.055396372 0)
(-0.15119208 -0.079945803 0)
(-0.12870068 -0.097351273 0)
(-0.099670076 -0.10369866 0)
(-0.067241883 -0.096286193 0)
(-0.03611915 -0.075220276 0)
(-0.011929741 -0.044539855 0)
(-0.0011708185 -0.012001493 0)
(-0.0022012894 0.026013393 0)
(-0.01248473 0.063419637 0)
(-0.031139942 0.087764533 0)
(-0.053354613 0.10149033 0)
(-0.077017783 0.10677719 0)
(-0.10091213 0.10507381 0)
(-0.12405015 0.097088222 0)
(-0.14555182 0.083021397 0)
(-0.16450968 0.062902201 0)
(-0.17987599 0.036930819 0)
(-0.19039928 0.0057955227 0)
(-0.19465572 -0.029033425 0)
(-0.19113634 -0.065018118 0)
(-0.17848981 -0.098391124 0)
(-0.15602496 -0.12417754 0)
(-0.12444496 -0.13676288 0)
(-0.086646658 -0.13132916 0)
(-0.048063776 -0.1062329 0)
(-0.016429373 -0.065393269 0)
(-0.0017537936 -0.018878427 0)
(-0.002255709 0.032933269 0)
(-0.012853718 0.07908852 0)
(-0.032098937 0.10853504 0)
(-0.054981865 0.1248643 0)
(-0.079334896 0.13109291 0)
(-0.10399424 0.1291993 0)
(-0.12810036 0.12015135 0)
(-0.1509451 0.10420147 0)
(-0.17179732 0.081278341 0)
(-0.18974471 0.051375579 0)
(-0.20357623 0.014915413 0)
(-0.21172907 -0.026876105 0)
(-0.21232516 -0.071532347 0)
(-0.20333816 -0.11502608 0)
(-0.18306281 -0.15144711 0)
(-0.15101791 -0.17328511 0)
(-0.1091656 -0.17282191 0)
(-0.063026378 -0.14524387 0)
(-0.022524974 -0.092978089 0)
(-0.0026589626 -0.028422196 0)
(-0.0022086327 0.039904511 0)
(-0.01271708 0.094944221 0)
(-0.031841297 0.12954016 0)
(-0.054496818 0.1484585 0)
(-0.078500077 0.15563546 0)
(-0.10277099 0.15366641 0)
(-0.12662142 0.14384601 0)
(-0.14957657 0.12651335 0)
(-0.17117089 0.10149249 0)
(-0.19075572 0.068517122 0)
(-0.20732706 0.027627568 0)
(-0.21937768 -0.020394241 0)
(-0.22488775 -0.073461924 0)
(-0.22130654 -0.12768878 0)
(-0.20585476 -0.17662057 0)
(-0.17647623 -0.210992 0)
(-0.13334654 -0.21961312 0)
(-0.080899155 -0.19275391 0)
(-0.030641891 -0.12885259 0)
(-0.0040700718 -0.04163704 0)
(-0.002093349 0.046663275 0)
(-0.012189726 0.11041853 0)
(-0.030536212 0.14996576 0)
(-0.05201759 0.17124296 0)
(-0.074464999 0.17919247 0)
(-0.096919908 0.17712105 0)
(-0.11891405 0.16672975 0)
(-0.14026651 0.14850274 0)
(-0.16086208 0.12219245 0)
(-0.18044322 0.087272645 0)
(-0.19840291 0.043352611 0)
(-0.21353681 -0.0093896418 0)
(-0.2240146 -0.069676646 0)
(-0.22708287 -0.13413344 0)
(-0.21908958 -0.19645329 0)
(-0.19626647 -0.24625218 0)
(-0.15621926 -0.26886029 0)
(-0.10070623 -0.24798806 0)
(-0.041146009 -0.174335 0)
(-0.0062706186 -0.059833928 0)
(-0.0019963303 0.053057454 0)
(-0.011565507 0.12508347 0)
(-0.028660963 0.16904513 0)
(-0.048056627 0.19210909 0)
(-0.067638453 0.20035662 0)
(-0.086643905 0.19791279 0)
(-0.10489592 0.18696721 0)
(-0.12256945 0.16821858 0)
(-0.13996402 0.1414091 0)
(-0.15729761 0.10579907 0)
(-0.17451561 0.060571825 0)
(-0.19108371 0.0052257756 0)
(-0.20560161 -0.059922404 0)
(-0.21550588 -0.13260788 0)
(-0.21690137 -0.20752787 0)
(-0.20457805 -0.27431813 0)
(-0.17317489 -0.3157178 0)
(-0.12017097 -0.3080798 0)
(-0.054147481 -0.22988374 0)
(-0.0096749026 -0.084653147 0)
(-0.0020996048 0.059184265 0)
(-0.01141487 0.13881585 0)
(-0.027115388 0.18617335 0)
(-0.043624863 0.20994707 0)
(-0.05898125 0.21760152 0)
(-0.07277785 0.21419774 0)
(-0.085249987 0.20247361 0)
(-0.097001189 0.18339415 0)
(-0.10878863 0.15675621 0)
(-0.12135034 0.12168631 0)
(-0.135254 0.077015458 0)
(-0.1507028 0.02161825 0)
(-0.1671221 -0.045110724 0)
(-0.18274007 -0.12251605 0)
(-0.19405359 -0.20712616 0)
(-0.19523507 -0.29011473 0)
(-0.17829427 -0.35358509 0)
(-0.13540547 -0.36743809 0)
(-0.069089018 -0.29415294 0)
(-0.014795026 -0.11798446 0)
(-0.0027676992 0.065619952 0)
(-0.012741001 0.15199855 0)
(-0.027329985 0.20099725 0)
(-0.040244518 0.22368365 0)
(-0.049928565 0.22933085 0)
(-0.05664337 0.22403751 0)
(-0.061232498 0.21108059 0)
(-0.064815893 0.19168177 0)
(-0.068620572 0.16572045 0)
(-0.073874864 0.13227356 0)
(-0.08172806 0.08996029 0)
(-0.093119971 0.03720017 0)
(-0.10846916 -0.027479055 0)
(-0.12721373 -0.10497637 0)
(-0.14705418 -0.19422074 0)
(-0.16280344 -0.28948643 0)
(-0.16509074 -0.37509937 0)
(-0.14090148 -0.41772694 0)
(-0.084061566 -0.36281399 0)
(-0.022011633 -0.16157406 0)
(-0.0047195853 0.073834758 0)
(-0.017222422 0.16572639 0)
(-0.031284315 0.21337833 0)
(-0.039683131 0.23217421 0)
(-0.041883351 0.23380248 0)
(-0.03935092 0.22539465 0)
(-0.033812358 0.21061254 0)
(-0.027000164 0.19081083 0)
(-0.020591805 0.16589802 0)
(-0.016215219 0.13493928 0)
(-0.015476169 0.096470924 0)
(-0.019925388 0.04869004 0)
(-0.030918479 -0.010412695 0)
(-0.049234152 -0.082920475 0)
(-0.074399005 -0.17014314 0)
(-0.10327658 -0.27050255 0)
(-0.12725453 -0.37369533 0)
(-0.12973496 -0.44868777 0)
(-0.094914808 -0.42750694 0)
(-0.030930663 -0.21612803 0)
(-0.0093000009 0.086952151 0)
(-0.027432082 0.18185341 0)
(-0.040981579 0.2230336 0)
(-0.04267932 0.23378968 0)
(-0.034405168 0.22880239 0)
(-0.019622288 0.21592309 0)
(-0.0012380215 0.19878014 0)
(0.018345983 0.17856483 0)
(0.037071976 0.15508363 0)
(0.053056185 0.1273594 0)
(0.064422059 0.093936277 0)
(0.069231388 0.053014546 0)
(0.06541546 0.0024625584 0)
(0.051047708 -0.060339396 0)
(0.024643171 -0.13837667 0)
(-0.013701832 -0.23417146 0)
(-0.058753751 -0.34517035 0)
(-0.093510911 -0.44953998 0)
(-0.094469914 -0.47558825 0)
(-0.039216117 -0.28048283 0)
(-0.018580317 0.11087148 0)
(-0.046039628 0.20177655 0)
(-0.055229955 0.2279317 0)
(-0.04398465 0.22501775 0)
(-0.019372159 0.21061306 0)
(0.012333824 0.19228016 0)
(0.046993611 0.17278506 0)
(0.081754737 0.15265406 0)
(0.11443847 0.13135288 0)
(0.14315378 0.10779555 0)
(0.16601731 0.080591586 0)
(0.18098156 0.048112103 0)
(0.18557638 0.0084491947 0)
(0.17716592 -0.04081761 0)
(0.1527596 -0.10317632 0)
(0.10948888 -0.18390631 0)
(0.047240574 -0.28855474 0)
(-0.021439261 -0.41051045 0)
(-0.072252943 -0.49101705 0)
(-0.041147486 -0.35054297 0)
(-0.033352253 0.15561544 0)
(-0.068601632 0.22040442 0)
(-0.055187267 0.21729225 0)
(-0.016078532 0.19532446 0)
(0.03451134 0.17092356 0)
(0.08850805 0.14849473 0)
(0.14176889 0.12861269 0)
(0.19196938 0.11057765 0)
(0.23754106 0.093297636 0)
(0.27712053 0.07557509 0)
(0.30921849 0.056181455 0)
(0.3320436 0.033823269 0)
(0.3431759 0.007027203 0)
(0.33982902 -0.025910547 0)
(0.3181326 -0.067741834 0)
(0.27327731 -0.12410801 0)
(0.20044729 -0.20584716 0)
(0.10213981 -0.32506915 0)
(-0.012387267 -0.45457171 0)
(-0.023756655 -0.40864072 0)
(-0.033081131 0.23907317 0)
(-0.042647169 0.21792011 0)
(0.042207228 0.16426629 0)
(0.12760462 0.1278358 0)
(0.20769803 0.10143552 0)
(0.28028169 0.081658191 0)
(0.34487322 0.066648161 0)
(0.40158316 0.05470307 0)
(0.45055079 0.044399492 0)
(0.49162055 0.034639938 0)
(0.52416199 0.024550592 0)
(0.54698617 0.0133817 0)
(0.55822244 0.0003997336 0)
(0.55570947 -0.015137343 0)
(0.53552625 -0.034969194 0)
(0.4924466 -0.062488202 0)
(0.41797272 -0.10694763 0)
(0.30410594 -0.19317544 0)
(0.12313782 -0.33691905 0)
(0.052374206 -0.39437913 0)
(0.24299926 0.1525748 0)
(0.30529617 0.11854288 0)
(0.45481215 0.076108147 0)
(0.56000885 0.050840197 0)
(0.63223323 0.035126089 0)
(0.68654919 0.024812312 0)
(0.72943832 0.017960103 0)
(0.76379639 0.01325593 0)
(0.79127937 0.0097622047 0)
(0.81275154 0.0068543626 0)
(0.82841144 0.0041185195 0)
(0.83794402 0.0012768564 0)
(0.84057077 -0.0018442 0)
(0.83497558 -0.0053262596 0)
(0.81886698 -0.0098289646 0)
(0.78942866 -0.016232749 0)
(0.73784287 -0.026935706 0)
(0.65316763 -0.05128655 0)
(0.45609767 -0.11374603 0)
(0.31788988 -0.17206002 0)
)
;

boundaryField
{
    movingWall
    {
        type            fixedValue;
        value           uniform (1 0 0);
    }
    fixedWalls
    {
        type            fixedValue;
        value           uniform (0 0 0);
    }
    frontAndBack
    {
        type            empty;
    }
}


// ************************************************************************* //
