/*--------------------------------*- C++ -*----------------------------------*\
  =========                 |
  \\      /  F ield         | OpenFOAM: The Open Source CFD Toolbox
   \\    /   O peration     | Website:  https://openfoam.org
    \\  /    A nd           | Version:  9
     \\/     M anipulation  |
\*---------------------------------------------------------------------------*/
FoamFile
{
    format      ascii;
    class       surfaceScalarField;
    location    "0.53";
    object      alphaPhi0.phase1;
}
// * * * * * * * * * * * * * * * * * * * * * * * * * * * * * * * * * * * * * //

dimensions      [0 3 -1 0 0 0 0];

internalField   nonuniform List<scalar> 
19800
(
3.3511646e-88
-1.0148319e-87
5.1958171e-88
-1.0630843e-87
4.2739416e-86
-9.9153235e-87
1.3588172e-84
-3.4398196e-85
1.7656026e-84
-4.8484527e-85
4.4536111e-85
-2.0049382e-85
1.3041395e-85
-6.1118255e-86
8.0103013e-86
-1.9077602e-86
8.232287e-86
-3.503959e-86
8.8640992e-86
-3.8918777e-86
9.3480454e-84
-5.9106831e-85
2.8227441e-81
-1.1472388e-82
1.5172477e-79
-6.3570397e-81
1.8797735e-78
-8.2317044e-80
9.842386e-78
-5.077153e-79
3.4548288e-77
-1.7495963e-78
9.2303483e-77
-4.4813974e-78
1.6236515e-76
-9.1920637e-78
2.1543906e-76
-1.1189672e-77
7.1200085e-75
-2.2132405e-76
7.848275e-73
-2.1672315e-74
7.5900357e-71
-1.9258484e-72
6.2342724e-69
-1.4677024e-70
4.4677118e-67
-9.8182425e-69
3.0383793e-65
-6.2370089e-67
2.2099421e-63
-4.2493484e-65
1.5848672e-61
-2.8595141e-63
1.293878e-59
-2.165097e-61
2.0914045e-57
-3.1636219e-59
9.0737152e-56
-1.2659868e-57
1.9191973e-54
-5.2201315e-56
2.7173065e-50
-2.5081691e-52
9.0379823e-47
-8.5126758e-49
1.531963e-46
-7.1367047e-49
4.0868628e-46
3.8750857e-49
2.792997e-46
3.8271209e-48
4.6072307e-47
2.6524315e-48
3.1116872e-48
4.1886961e-49
2.3310183e-48
1.207421e-49
2.153667e-48
1.5392128e-49
1.1647549e-47
6.5374046e-49
1.6848976e-46
1.072314e-47
2.0393478e-45
1.6113437e-46
2.0560719e-44
1.9822863e-45
1.6592161e-43
1.9155666e-44
1.054088e-42
1.4270717e-43
5.3808927e-42
8.3424017e-43
2.226134e-41
3.8705677e-42
7.2736479e-41
1.3755075e-41
1.6335346e-40
3.9790723e-41
1.6872602e-40
4.6819483e-41
9.4627534e-41
3.079753e-41
2.3041893e-41
1.021282e-41
3.8314072e-42
1.8870992e-42
5.921549e-43
2.5009843e-43
7.237344e-44
2.3302634e-44
3.5306971e-44
1.0575117e-45
3.4401173e-45
-7.7561035e-45
4.1597948e-44
-7.7600214e-44
2.2422065e-41
-5.1109413e-43
7.529507e-40
-2.1748263e-41
9.6089926e-40
-3.4255414e-41
6.6220057e-40
-2.0158741e-41
1.2048496e-40
-1.2729465e-42
1.1171836e-41
9.781506e-43
6.5055054e-43
2.1338316e-43
2.3881159e-44
2.1839794e-44
1.9300302e-46
7.3233697e-46
3.4387688e-49
5.0546785e-48
1.2414614e-51
2.5805585e-50
6.0781443e-54
1.4703729e-52
4.1438099e-56
9.1000194e-55
1.2683858e-57
9.0583861e-57
5.7945167e-59
4.8713558e-58
2.4868532e-61
8.9422232e-60
4.1998498e-64
5.3495927e-62
7.3888597e-67
2.9738479e-64
-5.4590563e-69
1.7902661e-66
-8.884402e-71
1.0541714e-68
-7.8584655e-73
5.9144564e-71
-5.6696755e-75
3.0733292e-73
-2.2006598e-76
1.5537281e-75
-9.07336e-77
5.5048407e-77
-3.6435695e-77
1.9248354e-77
-1.3372407e-77
5.9584066e-78
-4.1853108e-78
1.6632232e-78
-9.8290465e-79
3.746242e-79
-1.0929366e-79
5.7000814e-80
-2.9246062e-81
3.4204551e-81
-1.2702828e-83
2.9378759e-83
-1.6356564e-86
-1.1316523e-85
-3.4698897e-87
-5.7895361e-88
-3.2545237e-87
-1.4065877e-86
-8.0651743e-87
-9.0886013e-87
-6.7440355e-87
-1.3991192e-87
-6.6390917e-88
-1.2213772e-87
-3.6799559e-89
-1.0319854e-88
-2.3522511e-90
-7.7524358e-90
-1.6311088e-90
-6.0075435e-90
-6.0305664e-90
9.0071183e-88
-2.7133121e-87
9.2895967e-86
-9.2842638e-86
4.5483645e-84
-3.7690004e-84
2.1851163e-83
-2.2931574e-83
2.7626393e-83
-2.8804101e-83
1.9503543e-83
-2.0375547e-83
1.3961645e-83
-1.3878226e-83
3.0737246e-84
-4.8737952e-84
2.6528145e-85
-6.3199915e-85
1.8671578e-85
-7.9667528e-86
1.360092e-83
-1.9676042e-84
2.0160837e-81
-1.9969385e-82
1.1917232e-79
-1.0219562e-80
1.5889601e-78
-1.3205304e-79
1.000511e-77
-8.5700824e-79
3.473681e-77
-3.0602105e-78
9.1810222e-77
-7.1491684e-78
3.2209433e-76
-2.8239685e-77
8.8659695e-75
-1.0099348e-75
6.2006985e-73
-6.5467416e-74
4.1584421e-71
-4.0457289e-72
2.5637241e-69
-2.3000385e-70
1.500996e-67
-1.2370647e-68
8.5131198e-66
-6.4427626e-67
4.8351235e-64
-3.3729292e-65
3.7739424e-62
-2.4649257e-63
4.3593897e-60
-2.6923588e-61
4.8002635e-58
-2.6169063e-59
3.5060754e-56
-1.6906166e-57
3.3228593e-54
-1.4354797e-55
2.1343785e-51
-6.2624139e-53
5.6176772e-49
-1.5681179e-50
2.7062751e-45
-9.4907717e-47
8.8212337e-46
-1.8637156e-47
5.3719326e-46
3.4123626e-48
1.5802212e-43
5.7710988e-45
1.0662274e-43
8.582002e-45
5.1483018e-45
2.5033309e-45
1.5351029e-46
8.6222781e-47
1.4093469e-46
2.6693124e-47
2.4344621e-45
3.2377201e-46
3.0369279e-44
4.9930452e-45
3.2136693e-43
6.4903427e-44
2.8461646e-42
6.9548559e-43
1.9373195e-41
5.6862357e-42
9.1920873e-41
3.2354364e-41
2.9272646e-40
1.2247071e-40
6.7155273e-40
3.1968921e-40
1.3203099e-39
6.6683138e-40
2.1426078e-39
1.2614087e-39
2.150732e-39
1.3530481e-39
1.5181576e-39
9.7888376e-40
6.8062115e-40
4.5727359e-40
2.5763926e-40
1.4984751e-40
7.7715843e-41
3.3259845e-41
1.3979504e-41
3.1579062e-42
1.6711328e-42
-2.3662284e-43
1.0754985e-42
-1.7768187e-43
2.7268023e-40
-3.3241351e-41
5.0360662e-39
-7.5143552e-40
1.5727973e-38
-2.2473649e-39
7.1053034e-38
-6.7830951e-39
1.9841753e-37
-2.0431511e-38
4.9317121e-38
-1.4065166e-39
7.5183446e-39
1.4687996e-39
6.7903952e-40
4.7546989e-40
4.1387413e-41
7.7684662e-41
4.6706236e-43
3.8718143e-42
7.3104041e-46
3.1555123e-44
2.2357051e-48
1.4880455e-46
9.9229006e-51
7.9655346e-49
5.5383914e-53
4.4680116e-51
1.2192179e-54
3.4413378e-53
5.4659592e-56
1.3981006e-54
5.7719008e-58
4.1624906e-56
6.7117498e-61
2.806067e-58
6.4120394e-64
1.1080366e-60
-6.9229671e-66
5.8169737e-63
-1.0157995e-67
3.3273805e-65
-8.5675866e-70
1.7968412e-67
-5.7447791e-72
8.9556802e-70
-3.3994909e-74
4.1130132e-72
-4.4343585e-76
1.7774144e-74
-5.9345177e-77
1.62237e-76
-1.7255418e-77
1.3936325e-77
-4.9122975e-78
2.8584407e-78
-1.0539107e-78
5.2314703e-79
-1.1046807e-79
6.1286088e-80
-3.095856e-81
2.6623977e-81
-1.8926202e-83
-8.2593385e-84
-4.0635074e-86
-1.0278316e-84
-1.1448217e-85
-1.2935771e-86
-8.6471906e-86
-4.7684261e-86
-9.3006496e-86
-4.2622479e-86
-7.243017e-86
-6.4169129e-86
-1.9605171e-86
-5.3341098e-86
-1.3861509e-87
-1.3124056e-86
-7.9481711e-89
-1.0889925e-87
-5.3633667e-90
-8.5064594e-89
-1.6076866e-89
6.9426285e-85
-2.5067097e-84
8.1564273e-83
-1.1283453e-82
3.9718973e-81
-4.601709e-81
1.6146685e-80
-2.2430195e-80
1.9551575e-80
-2.5436536e-80
1.3295021e-80
-1.798021e-80
8.792749e-81
-1.1721674e-80
2.028483e-81
-4.0845859e-81
2.0319291e-82
-5.6508586e-82
1.3852514e-82
-1.0370386e-82
4.0262593e-81
-1.2809863e-81
1.3680162e-79
-3.9257244e-80
1.8331329e-78
-4.6709614e-79
3.0224391e-77
-6.9012094e-78
6.206309e-76
-2.2086554e-76
1.9751505e-75
-1.2266422e-75
1.0501794e-75
-3.5186056e-76
1.3809543e-73
-2.1721874e-74
1.0818833e-71
-1.5608993e-72
7.6648315e-70
-1.018537e-70
5.1091688e-68
-6.2501638e-69
3.1030187e-66
-3.5047094e-67
1.7968632e-64
-1.8720516e-65
1.0075672e-62
-9.666952e-64
5.7052678e-61
-5.053999e-62
4.5536812e-59
-3.7902278e-60
5.6278448e-57
-4.2580018e-58
6.2397389e-55
-4.2945634e-56
4.4525624e-53
-2.6872907e-54
4.6087826e-51
-2.4259905e-52
1.7266411e-48
-6.7776076e-50
9.0561238e-46
-3.0944821e-47
2.4485155e-42
-1.0069347e-43
5.9691388e-43
-1.812085e-44
7.6664107e-44
1.1125139e-45
1.7681207e-40
8.1457569e-42
1.3294522e-40
1.2624613e-41
7.4105852e-42
4.035867e-42
6.7762725e-44
1.6234366e-43
4.1877348e-44
9.7370527e-45
4.4147157e-43
7.3567267e-44
5.2407787e-42
1.0474264e-42
5.2545512e-41
1.2864258e-41
4.4432897e-40
1.3132718e-40
2.9393979e-39
1.0423812e-39
1.3842796e-38
5.8905728e-39
4.4266238e-38
2.2494607e-38
1.0118199e-37
5.9325069e-38
1.9504328e-37
1.2283222e-37
3.1828348e-37
2.3539671e-37
3.1626943e-37
2.5114907e-37
2.2017413e-37
1.7540862e-37
9.8207677e-38
7.722595e-38
3.7507096e-38
2.2878672e-38
1.1351435e-38
3.8757111e-39
2.0733379e-39
-1.014288e-40
6.2403336e-40
-1.5505071e-40
6.638343e-39
-1.2377747e-39
6.9640491e-37
-1.401983e-37
1.0603979e-35
-2.4843204e-36
3.2459183e-35
-7.1673739e-36
1.2476893e-34
-2.1883172e-35
2.9412433e-34
-4.7389771e-35
3.8460751e-35
-3.3588554e-36
4.9301545e-36
1.4494918e-36
4.6716801e-37
4.557947e-37
3.1075528e-38
7.5632114e-38
4.3465993e-40
4.3115706e-39
7.3557181e-43
3.9848353e-41
2.1353748e-45
1.8882544e-43
9.3792131e-48
1.0168648e-45
5.3158377e-50
5.6788261e-48
1.0663844e-51
4.5416273e-50
3.8432982e-53
1.5970105e-51
3.1801968e-55
3.7676199e-53
4.8583708e-58
2.6858426e-55
3.5796497e-61
1.2359671e-57
-7.8573143e-63
6.6662631e-60
-9.9948203e-65
3.8115121e-62
-8.0779531e-67
2.0355224e-64
-5.2792025e-69
1.0004692e-66
-3.010669e-71
4.4956485e-69
-2.7625313e-73
1.8728218e-71
-1.8265657e-74
1.3203804e-73
-3.5610404e-75
7.0981842e-75
-6.6574532e-76
1.0477752e-75
-8.1254474e-77
1.2865365e-76
-6.670384e-78
8.7129995e-78
-4.2879818e-79
2.2784155e-79
-1.2765581e-80
-1.8433342e-80
-7.499887e-83
-1.4671441e-81
-1.8681185e-82
-2.6563246e-83
-1.1958077e-82
-9.6605883e-83
-1.2426738e-82
-8.2391467e-83
-9.9757093e-83
-1.098437e-82
-2.5649786e-83
-8.7539845e-83
-1.6427174e-84
-2.102968e-83
-9.4539344e-86
-1.6124933e-84
-5.5994286e-87
-1.350873e-85
-2.0467808e-86
3.3409419e-82
-1.4670296e-81
5.1725739e-80
-8.3905099e-80
2.4691358e-78
-3.4540169e-78
7.8321581e-78
-1.3955195e-77
9.3156841e-78
-1.480374e-77
6.389381e-78
-1.0581942e-77
4.0498935e-78
-6.7309117e-78
9.450859e-79
-2.3321553e-78
1.2983794e-79
-3.3197858e-79
1.0984014e-79
-9.5917718e-80
2.6933429e-78
-1.0340488e-78
8.9511202e-77
-3.1217564e-77
1.2680394e-75
-4.0292632e-76
2.7186444e-74
-7.5880817e-75
8.885499e-73
-2.7466684e-73
2.5974541e-72
-1.285443e-72
8.7507783e-73
-3.588945e-73
1.2290881e-70
-2.3413856e-71
9.7351574e-69
-1.6932318e-69
6.8233315e-67
-1.0861554e-67
4.5236052e-65
-6.5921475e-66
2.7122911e-63
-3.6312204e-64
1.5658967e-61
-1.9218945e-62
8.7615082e-60
-9.8638457e-61
4.9332775e-58
-5.0757013e-59
3.8837668e-56
-3.722605e-57
4.8579366e-54
-4.3317063e-55
5.7089511e-52
-4.6649712e-53
4.0583421e-50
-2.8946856e-51
4.3411562e-48
-2.720234e-49
1.3730055e-45
-6.0362483e-47
9.8976735e-43
-3.6349539e-44
1.6292567e-39
-8.2646883e-41
3.5989802e-40
-1.5695968e-41
3.3529686e-41
4.5471488e-43
1.4265526e-37
7.2422835e-39
1.2431563e-37
1.2479636e-38
8.2768847e-39
4.5964585e-39
5.0822435e-41
2.1872835e-40
1.4253425e-41
3.8518744e-42
6.01895e-41
1.3031872e-41
6.8364173e-40
1.6082923e-40
6.4948703e-39
1.8728041e-39
5.2274552e-38
1.8291321e-38
3.3427175e-37
1.4108972e-37
1.5481959e-36
7.8910919e-37
4.924437e-36
3.0220569e-36
1.1163291e-35
8.0077697e-36
2.1105195e-35
1.6430897e-35
3.4366846e-35
3.1649387e-35
3.3631319e-35
3.3594052e-35
2.2916416e-35
2.2821153e-35
1.0141569e-35
9.5629475e-36
3.9363985e-36
2.5629386e-36
1.2138921e-36
2.6874389e-37
2.3127439e-37
-1.07914e-37
1.1159126e-37
-2.4237629e-38
1.2641784e-35
-3.5119294e-36
9.2224878e-34
-2.8103258e-34
1.2581497e-32
-4.2476279e-33
4.0925034e-32
-1.2682149e-32
1.6224426e-31
-4.4185236e-32
2.7479451e-31
-6.3775361e-32
2.2831949e-32
-4.6144142e-33
2.3955101e-33
8.9358204e-34
2.4212031e-34
2.9416242e-34
1.7380596e-35
5.0466245e-35
2.940726e-37
3.2353929e-36
5.6934531e-40
3.4814601e-38
1.593138e-42
1.7055279e-40
7.1565276e-45
9.3662214e-43
4.4473067e-47
5.543834e-45
8.0919515e-49
4.8242022e-47
2.3590917e-50
1.4664927e-48
1.7133405e-52
3.0202652e-50
2.57423e-55
2.0770406e-52
1.041827e-59
1.0049108e-54
-7.0236005e-60
5.5406853e-57
-7.7881945e-62
3.1803399e-59
-5.9876283e-64
1.6790619e-61
-3.7712584e-66
8.1101586e-64
-2.0701234e-68
3.5684028e-66
-1.5623477e-70
1.4315984e-68
-9.2110041e-72
8.2387856e-71
-1.9458996e-72
3.954286e-72
-4.0435712e-73
6.2665419e-73
-6.208051e-74
8.2981809e-74
-6.0916926e-75
6.460651e-75
-3.6209037e-76
1.0662054e-76
-9.3350541e-78
-2.5579791e-77
-7.1075756e-80
-1.4505104e-78
-1.9046184e-79
-3.0961238e-80
-1.3275826e-79
-1.2202829e-79
-1.1633947e-79
-1.0841957e-79
-8.6734736e-80
-1.2036726e-79
-2.1429968e-80
-8.9010724e-80
-1.2957975e-81
-2.0925233e-80
-8.0541147e-83
-1.4894444e-81
-3.7531966e-84
-1.3446672e-82
-1.6433194e-83
1.2284227e-79
-6.3243912e-79
2.24065e-77
-4.1963504e-77
1.0616956e-75
-1.745743e-75
2.9088266e-75
-6.3314584e-75
3.4352315e-75
-6.4239015e-75
2.3872539e-75
-4.6479508e-75
1.4679427e-75
-2.9092939e-75
3.4560546e-76
-1.0030696e-75
6.0759344e-77
-1.4751586e-76
5.7059619e-77
-5.8722803e-77
1.4215609e-75
-6.2284262e-76
4.6534504e-74
-1.896977e-74
7.5776051e-73
-2.787432e-73
2.0678123e-71
-8.7601813e-72
5.0421193e-70
-1.8285732e-70
1.2478716e-69
-6.9932403e-70
6.1125529e-70
-2.9465794e-70
9.0104713e-68
-2.0178021e-68
7.2047308e-66
-1.4733525e-66
4.9584728e-64
-9.228295e-65
3.2480089e-62
-5.5016925e-63
1.8974312e-60
-2.9272335e-61
1.0836268e-58
-1.5208715e-59
6.0021415e-57
-7.6804057e-58
3.2898214e-55
-3.8527452e-56
2.4093823e-53
-2.6123365e-54
3.0478133e-51
-3.137905e-52
3.7500014e-49
-3.4344777e-50
2.7175462e-47
-2.2674873e-48
2.9360442e-45
-2.1020152e-46
9.4929905e-43
-4.9561398e-44
7.4750443e-40
-3.6015413e-41
8.6302045e-37
-5.5857744e-38
1.7664027e-37
-1.2673838e-38
1.588843e-38
1.1666994e-40
9.0482877e-35
4.2999316e-36
9.0244357e-35
8.9216094e-36
7.6718435e-36
3.9526867e-36
5.2851147e-38
2.3310287e-37
5.6455843e-39
2.9337441e-39
5.4673732e-39
2.1153619e-39
6.8575338e-38
1.8639512e-38
6.200263e-37
2.0531795e-37
4.729982e-36
1.9185988e-36
2.9112314e-35
1.4394606e-35
1.3209377e-34
7.9803894e-35
4.1581038e-34
3.0713044e-34
9.3040184e-34
8.2016963e-34
1.7153139e-33
1.6762e-33
2.74939e-33
3.2406226e-33
2.624473e-33
3.4308222e-33
1.7353095e-33
2.2826998e-33
7.5941813e-34
9.1651083e-34
2.9981732e-34
2.210108e-34
9.4377222e-35
5.2070437e-36
3.2713809e-35
-1.840872e-35
3.0033012e-35
-1.979188e-35
1.2552015e-32
-5.2998831e-33
7.4337835e-31
-3.3204462e-31
9.5509985e-30
-4.4867664e-30
3.4239423e-29
-1.4399916e-29
1.3117773e-28
-5.2586877e-29
1.7330474e-28
-5.5818097e-29
1.080399e-29
-4.2090445e-30
9.1326067e-31
3.9035723e-31
9.8596664e-32
1.3994797e-31
7.6113637e-33
2.5058945e-32
1.5264075e-34
1.7897002e-33
3.5382347e-37
2.2819184e-35
9.6353519e-40
1.1820201e-37
4.4193779e-42
6.6711751e-40
2.8506002e-44
4.1735088e-42
4.7177175e-46
3.6569804e-44
1.2199295e-47
1.0293084e-45
7.796462e-50
1.9372369e-47
1.0550599e-52
1.3054771e-49
-1.7440847e-55
6.5096065e-52
-5.1620688e-57
3.6802169e-54
-5.066881e-59
2.0974846e-56
-3.6823183e-61
1.0929177e-58
-2.2227739e-63
5.1754282e-61
-1.1625204e-65
2.2134983e-63
-7.097205e-68
8.5094853e-66
-3.4313301e-69
3.9514911e-68
-8.192441e-70
1.5703604e-69
-1.8656607e-70
2.7900562e-70
-3.2376388e-71
3.8843427e-71
-3.4719806e-72
3.0777152e-72
-2.0281649e-73
-6.050494e-75
-4.9132125e-75
-2.0173352e-74
-5.4102331e-77
-9.4408075e-76
-1.4861686e-76
-2.8935007e-77
-1.1600659e-76
-1.1238091e-76
-8.7635127e-77
-1.0287467e-76
-5.6840489e-77
-9.4908345e-77
-1.3304241e-77
-6.5800817e-77
-7.7144645e-79
-1.4774938e-77
-4.8329663e-80
-1.0590165e-78
-1.9028151e-81
-9.0802661e-80
-9.5446047e-81
3.6434997e-77
-2.1414307e-76
7.4080508e-75
-1.573037e-74
3.4991588e-73
-6.6061104e-73
8.8072254e-73
-2.2424832e-72
1.0229836e-72
-2.2065004e-72
7.2738017e-73
-1.6173734e-72
4.3738537e-73
-1.0014082e-72
1.0389722e-73
-3.4469514e-73
2.2168645e-74
-5.2290011e-74
2.2005407e-74
-2.5795141e-74
6.4539276e-73
-3.5841523e-73
2.0439511e-71
-9.4026956e-72
3.9431348e-70
-1.5917793e-70
1.594933e-68
-7.3761194e-69
2.0198254e-67
-8.7855371e-68
4.7389436e-67
-2.7784231e-67
4.2704578e-67
-2.0275271e-67
5.8644242e-65
-1.4954978e-65
4.7651267e-63
-1.1128488e-63
3.2266172e-61
-6.9035545e-62
2.0862982e-59
-4.053125e-60
1.1749139e-57
-2.063132e-58
6.6027226e-56
-1.0478334e-56
3.5833279e-54
-5.1398634e-55
1.8886922e-52
-2.4515265e-53
1.2178815e-50
-1.3616915e-51
1.4797982e-48
-1.6999485e-49
1.8525119e-46
-1.9460058e-47
1.4078016e-44
-1.3454407e-45
1.4854982e-42
-1.1254436e-43
7.5071327e-40
-1.0909459e-40
4.998902e-37
-2.6846899e-38
3.7682246e-34
-3.1443071e-35
7.2446848e-35
-8.0774883e-36
6.4796158e-36
-2.7184721e-38
4.8258762e-32
1.7253859e-33
4.9242587e-32
4.7239473e-33
5.7155044e-33
2.5888019e-33
5.2048181e-35
1.973071e-34
8.3982682e-37
2.8493368e-36
7.3343027e-37
3.0891102e-37
5.560721e-36
1.7364707e-36
4.7238091e-35
1.7578695e-35
3.3952382e-34
1.5670429e-34
1.9990494e-33
1.1412956e-33
8.8408844e-33
6.2712655e-33
2.7379415e-32
2.4259831e-32
6.0048886e-32
6.5348728e-32
1.0697519e-31
1.3352963e-31
1.6582785e-31
2.5907862e-31
1.5150909e-31
2.745178e-31
9.5214713e-32
1.79646e-31
4.0638055e-32
6.9888634e-32
1.6287806e-32
1.5349012e-32
5.3096623e-33
-1.2300461e-33
2.4440708e-33
-1.641341e-33
4.3432021e-32
-2.585349e-32
7.9280839e-30
-4.958721e-30
3.9971081e-28
-2.4970343e-28
5.0053932e-27
-3.0734026e-27
2.0250669e-26
-1.2451224e-26
6.6603055e-26
-3.9307313e-26
7.7866907e-26
-3.3315322e-26
4.1673847e-27
-2.6382576e-27
2.9005263e-28
1.3006241e-28
3.2507939e-29
5.2268855e-29
2.6920177e-30
9.7446838e-30
6.3755297e-32
7.7048286e-31
1.9300324e-34
1.2195223e-32
5.1322536e-37
6.9057919e-35
2.3508857e-39
4.0252094e-37
1.5833525e-41
2.5892854e-39
2.5202433e-43
2.4709614e-41
5.3447747e-45
6.2606401e-43
2.8751895e-47
1.0514462e-44
2.8510534e-50
6.6429649e-47
-1.8648894e-52
3.3923389e-49
-3.1047338e-54
1.9900983e-51
-2.753048e-56
1.1242795e-53
-1.8854394e-58
5.7519694e-56
-1.0784915e-60
2.6522849e-58
-5.3103039e-63
1.0924607e-60
-2.7147969e-65
3.9772971e-63
-1.0500421e-66
1.5386662e-65
-2.7940291e-67
4.9603993e-67
-6.7469001e-68
9.7171765e-68
-1.2701124e-68
1.3777649e-68
-1.4931631e-69
1.0413478e-69
-8.5884282e-71
-3.7344055e-71
-1.9408908e-72
-1.0847485e-71
-3.6818689e-74
-4.279476e-73
-9.2715589e-74
-2.3393329e-74
-7.6259013e-74
-7.9980538e-74
-5.025134e-74
-7.459735e-74
-2.9494489e-74
-5.7466052e-74
-6.5276446e-75
-3.7432874e-74
-3.8222158e-76
-8.0286592e-75
-2.2021071e-77
-5.8726065e-76
-7.6417779e-79
-4.5476376e-77
-4.2699854e-78
9.0366826e-75
-5.9388259e-74
1.9861419e-72
-4.7025667e-72
9.3846168e-71
-1.9933347e-70
2.2533925e-70
-6.4816868e-70
2.5495836e-70
-6.2441472e-70
1.8664261e-70
-4.6366733e-70
1.1053133e-70
-2.8539509e-70
2.6479203e-71
-9.8258136e-71
6.3748231e-72
-1.5338015e-71
6.4837072e-72
-8.3764038e-72
2.7964853e-70
-1.8936721e-70
7.9611011e-69
-3.9636372e-69
1.8462791e-67
-9.2822711e-68
7.3822643e-66
-3.4621102e-66
6.2880653e-65
-3.067141e-65
1.5830804e-64
-8.6730258e-65
3.3454688e-64
-1.4964072e-64
3.5214238e-62
-1.0079981e-62
2.9356492e-60
-7.5890769e-61
1.9839585e-58
-4.7044263e-59
1.2815942e-56
-2.7861377e-57
6.9896617e-55
-1.3845973e-55
3.8810038e-53
-6.9453822e-54
2.0582411e-51
-3.3163175e-52
1.0177192e-49
-1.4666031e-50
5.505055e-48
-7.0675275e-49
5.7778554e-46
-6.7035505e-47
7.5579859e-44
-8.8232958e-45
5.777876e-42
-5.831707e-43
6.0880946e-40
-5.0277246e-41
8.787711e-37
-6.8914694e-38
2.6581313e-34
-1.5935727e-35
1.3940617e-31
-1.4994214e-32
2.2741244e-32
-4.170176e-33
1.9374705e-33
-4.8012607e-35
2.0405468e-29
4.0222056e-31
2.1771908e-29
1.8452892e-30
3.4096669e-30
1.2898961e-30
4.1498506e-32
1.2854534e-31
2.1920121e-34
2.2564412e-33
1.2833532e-34
5.723406e-35
3.8538759e-34
1.4966154e-34
2.9035532e-33
1.2011206e-33
1.9704462e-32
1.0177859e-32
1.1016337e-31
7.1676971e-32
4.7119804e-31
3.8920806e-31
1.4199626e-30
1.5071114e-30
2.9941864e-30
4.0606626e-30
5.0337359e-30
8.2148566e-30
7.3521489e-30
1.5925905e-29
6.2164897e-30
1.6972873e-29
3.542575e-30
1.098644e-29
1.4277884e-30
4.2218375e-30
5.807481e-31
8.7247711e-31
2.0983584e-31
-1.6027452e-31
1.5494468e-31
-1.2659361e-31
2.4495955e-29
-2.399771e-29
3.3652186e-27
-3.3755576e-27
1.5050336e-25
-1.4167681e-25
1.8791456e-24
-1.7646792e-24
9.153385e-24
-8.1884523e-24
2.4098645e-23
-2.5079789e-23
2.4485918e-23
-1.4947296e-23
1.3052613e-24
-1.197718e-24
7.7655409e-26
3.3868129e-26
8.8035656e-27
1.5848778e-26
7.8177413e-28
3.0525801e-27
2.1812908e-29
2.6579881e-28
8.9891665e-32
5.3087888e-30
2.3869487e-34
3.4159052e-32
1.0798209e-36
2.0473397e-34
7.6056226e-39
1.3666374e-36
1.124578e-40
1.4129367e-38
1.8279473e-42
3.0883404e-40
7.9952653e-45
4.5251314e-42
2.8672787e-48
2.7925675e-44
-1.2570077e-49
1.4704676e-46
-1.5501147e-51
8.8595129e-49
-1.2467633e-53
4.9361248e-51
-7.9666951e-56
2.4633494e-53
-4.2416418e-58
1.0925379e-55
-1.9070603e-60
4.2493467e-58
-8.1844697e-63
1.4251742e-60
-2.6850528e-64
4.6120342e-63
-7.8305675e-65
1.2763934e-64
-2.0024432e-65
2.7012414e-65
-4.0765483e-66
3.8771624e-66
-5.1662229e-67
2.649629e-67
-2.8624362e-68
-2.5068085e-68
-6.0170325e-70
-4.3879699e-69
-2.2124425e-71
-1.5620493e-70
-4.7518986e-71
-1.6099471e-71
-4.0119695e-71
-4.5577357e-71
-2.3169917e-71
-4.2926937e-71
-1.2485842e-71
-2.7826368e-71
-2.6532786e-72
-1.7032711e-71
-1.5197824e-73
-3.6581504e-72
-8.0200675e-75
-2.5243479e-73
-2.518909e-76
-1.7869117e-74
-1.5314437e-75
1.9218526e-72
-1.3894111e-71
4.4825687e-70
-1.1661267e-69
2.1242375e-68
-4.9903952e-68
4.9627378e-68
-1.5767525e-67
5.4748144e-68
-1.4968833e-67
4.1299873e-68
-1.1265595e-67
2.4216497e-68
-6.9192647e-68
5.8503408e-69
-2.3855117e-68
1.4773604e-69
-3.8274155e-69
1.5087565e-69
-2.0427137e-69
9.7178512e-68
-6.4530675e-68
2.9088495e-66
-1.7380331e-66
8.6310665e-65
-5.1069709e-65
2.2481934e-63
-1.1648466e-63
1.5441484e-62
-8.4071155e-63
4.3208668e-62
-2.2784934e-62
2.2507731e-61
-1.1285216e-61
1.9839386e-59
-8.3895262e-60
1.713859e-57
-5.7788576e-58
1.1734742e-55
-3.1154661e-56
7.7264742e-54
-1.834091e-54
4.1817017e-52
-8.8562221e-53
2.3398472e-50
-4.5615362e-51
1.2346135e-48
-2.2065161e-49
5.7253876e-47
-9.2173899e-48
2.8149175e-45
-4.0358604e-46
1.9271619e-43
-2.2604508e-44
2.5695245e-41
-3.0499517e-42
1.9259113e-39
-1.9132618e-40
2.4650268e-37
-2.2819525e-38
1.2831377e-33
-1.2433673e-34
1.369671e-31
-1.051348e-32
4.4640658e-29
-6.1084543e-30
7.3409354e-30
-1.6504592e-30
3.6844855e-30
-3.031207e-31
6.9851466e-27
-5.1459241e-30
7.8289511e-27
4.9637066e-28
1.6152111e-27
4.8049646e-28
2.5591027e-29
6.276568e-29
1.1139634e-31
1.3559744e-30
2.2527853e-32
2.1892521e-32
2.1657627e-32
1.3014062e-32
1.4498043e-31
6.7017646e-32
9.3057953e-31
5.2911019e-31
4.8934102e-30
3.5801375e-30
1.9994051e-29
1.9041873e-29
5.781816e-29
7.3300286e-29
1.145477e-28
1.9551887e-28
1.7507458e-28
3.84894e-28
2.3186587e-28
7.4309078e-28
1.6769979e-28
8.0243757e-28
7.3918648e-29
5.1739632e-28
2.2788989e-29
2.0149014e-28
8.5429352e-30
4.0427688e-29
5.697529e-30
-8.8477254e-30
1.8449889e-29
-4.294592e-29
8.6605575e-27
-1.5804674e-26
1.0329742e-24
-1.6396325e-24
4.3249764e-23
-6.2545557e-23
5.6701112e-22
-8.07359e-22
2.7204878e-21
-4.6299045e-21
6.3358742e-21
-1.3692177e-20
5.7426111e-21
-5.3857187e-21
3.3308541e-22
-4.518293e-22
1.7562271e-23
7.5051123e-24
1.9774519e-24
3.9630874e-24
1.876922e-25
7.844184e-25
6.1672073e-27
7.4760113e-26
3.5488813e-29
1.8946355e-27
9.8063704e-32
1.4424491e-29
4.3388329e-34
8.9869446e-32
3.1070212e-36
6.1764512e-34
4.2181604e-38
6.8278618e-36
4.9142696e-40
1.2594428e-37
1.5473412e-42
1.5317605e-39
-1.8344031e-45
9.4820553e-42
-6.1207647e-47
5.3595535e-44
-6.2726299e-49
3.2397067e-46
-4.5957968e-51
1.7633837e-48
-2.6861958e-53
8.4612303e-51
-1.2792119e-55
3.527346e-53
-4.8641907e-58
1.2421073e-55
-1.5469372e-60
3.5313846e-58
-5.6187016e-62
8.461729e-61
-1.8658598e-62
2.6578783e-62
-5.0221777e-63
6.2654424e-63
-1.0916668e-63
8.8716057e-64
-1.458546e-64
4.8147011e-65
-7.9123819e-66
-1.0949105e-65
-1.6090576e-67
-1.4445447e-66
-1.1390004e-68
-4.9109308e-68
-2.0401023e-68
-9.1833638e-69
-1.7415761e-68
-2.1357991e-68
-8.8404239e-69
-2.0100575e-68
-4.400992e-69
-1.1061961e-68
-9.2547804e-70
-6.3594154e-69
-4.9108408e-71
-1.3651007e-69
-2.410692e-72
-8.6875282e-71
-6.9685298e-74
-5.7127241e-72
-4.5247178e-73
3.5731211e-70
-2.801869e-69
8.7338982e-68
-2.4648504e-67
4.1589259e-66
-1.0652502e-65
9.5464782e-66
-3.3013003e-65
1.0341096e-65
-3.1040583e-65
8.0225768e-66
-2.3688995e-65
4.6741491e-66
-1.455559e-65
1.1388587e-66
-5.0320648e-66
2.8837195e-67
-8.3013106e-67
2.9239146e-67
-4.1102411e-67
2.3401774e-65
-1.5146112e-65
1.0802029e-63
-7.4341294e-64
3.3904607e-62
-2.2174715e-62
5.6093467e-61
-3.3842351e-61
3.2090346e-60
-1.9337394e-60
9.5655242e-60
-5.2893561e-60
1.193934e-58
-5.708911e-59
1.2739796e-56
-5.4064357e-57
1.0741076e-54
-4.4212899e-55
6.72674e-53
-2.7991805e-53
4.5740077e-51
-1.524989e-51
2.5189706e-49
-6.2070782e-50
1.4614121e-47
-3.1136747e-48
7.9309228e-46
-1.5061513e-46
3.584334e-44
-6.0005783e-45
1.6425877e-42
-2.5695944e-43
7.1736832e-41
-9.8687562e-42
7.553367e-39
-8.6304854e-40
6.1813599e-37
-6.7786663e-38
1.159816e-34
-1.3550019e-35
1.8224903e-30
-1.47817e-30
8.656997e-29
-8.4683597e-30
1.2487647e-26
-2.1169142e-27
2.8252095e-27
-4.6516153e-28
2.8305096e-26
-4.3235614e-26
2.0258909e-24
-7.2640907e-26
2.2912211e-24
7.2341919e-26
5.8857048e-25
1.264967e-25
1.2549152e-26
2.2742266e-26
6.2240367e-29
6.3682226e-28
2.1367912e-30
1.1075081e-29
1.8171828e-30
1.1112362e-30
6.1595206e-30
3.2913193e-30
3.5469208e-29
2.1916793e-29
1.7513952e-28
1.4158517e-28
6.786993e-28
7.3423132e-28
1.8991226e-27
2.8363619e-27
3.5983395e-27
7.711324e-27
4.9492902e-27
1.5096748e-26
5.4827237e-27
2.9142487e-26
2.5536623e-27
3.1874761e-26
-7.8076348e-29
2.0803813e-26
-6.8964435e-28
8.3994941e-27
-2.7888909e-28
1.6680656e-27
-2.1962837e-28
-3.3095504e-28
8.6476982e-28
-3.179686e-26
1.6060151e-24
-7.0786671e-24
2.0508105e-22
-5.608211e-22
8.7294002e-21
-2.3699129e-20
1.0702476e-19
-1.6748052e-19
4.2439871e-19
-3.5570799e-19
9.2735926e-19
-6.7255102e-19
1.0252947e-18
-6.5138617e-19
7.1531183e-20
-8.6387183e-20
3.556435e-21
1.6170867e-21
3.787069e-22
8.6010912e-22
3.7002078e-23
1.6833618e-22
1.4320333e-24
1.7258073e-23
1.1870179e-26
5.5956118e-25
3.5682469e-29
5.2331974e-27
1.4911526e-31
3.3856115e-29
1.0476925e-33
2.3482705e-31
1.3353297e-35
2.7274194e-33
1.1034359e-37
4.4157672e-35
1.8332816e-40
4.3101791e-37
-1.4075174e-42
2.6465548e-39
-2.2745574e-44
1.611665e-41
-2.017763e-46
9.5978746e-44
-1.3240176e-48
5.0169685e-46
-6.7326436e-51
2.2490784e-48
-2.5400825e-53
8.3302292e-51
-5.321689e-56
2.308688e-53
-8.0307374e-59
3.652635e-56
-8.7420024e-60
4.3971661e-59
-3.7960992e-60
4.232423e-60
-1.0961411e-60
1.2438004e-60
-2.5742496e-61
1.7005962e-61
-3.5941487e-62
5.1568287e-63
-1.8775864e-63
-3.685429e-63
-3.7010628e-65
-3.9545693e-64
-4.9425137e-66
-1.3616614e-65
-7.4583319e-66
-4.3332154e-66
-6.3609495e-66
-8.2200939e-66
-2.8436805e-66
-7.8868953e-66
-1.3137761e-66
-3.6817601e-66
-2.6875377e-67
-1.9854709e-66
-1.3228836e-68
-4.1855661e-67
-6.1123157e-70
-2.4642278e-68
-1.6429502e-71
-1.5226919e-69
-1.1231668e-70
5.8885259e-68
-4.950352e-67
1.4963617e-65
-4.530583e-65
7.1661189e-64
-1.9774295e-63
1.6263853e-63
-6.0529913e-63
1.742272e-63
-5.656973e-63
1.386724e-63
-4.379307e-63
8.0545208e-64
-2.6987047e-63
1.9784769e-64
-9.3643884e-64
5.2230788e-65
-1.5828263e-64
5.3125298e-65
-8.2171764e-65
4.8465432e-63
-3.4591417e-63
3.5130526e-61
-2.531262e-61
1.0032649e-59
-6.8350651e-60
1.2082885e-58
-7.8701014e-59
5.7749899e-58
-3.7989883e-58
1.7497803e-57
-1.1010369e-57
3.7673458e-56
-1.901277e-56
4.9155957e-54
-2.2061337e-54
5.3160101e-52
-2.1336696e-52
4.6111421e-50
-1.7126412e-50
3.1586597e-48
-1.1496054e-48
1.5790557e-46
-6.3692647e-47
9.290588e-45
-3.4269813e-45
5.3046944e-43
-1.6022441e-43
2.4557591e-41
-5.1212368e-42
1.1133991e-39
-1.84765e-40
3.866309e-38
-5.4656743e-39
2.4666392e-36
-3.2000533e-37
2.7688402e-34
-3.5020469e-35
7.9440746e-32
-9.6641243e-33
2.2432926e-27
-2.138596e-27
6.6166833e-26
-8.0674975e-27
3.1050343e-24
-7.0805007e-25
6.8783818e-25
-1.3932131e-25
1.3355365e-22
-1.3115174e-22
5.1910724e-22
-8.7243023e-23
5.5186605e-22
-9.0043679e-24
1.6029043e-22
2.1164917e-23
4.6556775e-24
5.7321111e-24
2.7902661e-26
2.1677761e-25
3.8588684e-28
4.3836731e-27
1.9469028e-28
1.4494718e-28
2.2069003e-28
1.6730247e-28
1.0676176e-27
7.2451222e-28
5.0452954e-27
4.4092845e-27
1.8953208e-26
2.2734557e-26
5.3383896e-26
9.1232666e-26
1.0478054e-25
2.7146628e-25
1.4052286e-25
6.0172719e-25
1.0641115e-25
1.192597e-24
-2.5921771e-26
1.2928971e-24
-9.4864743e-26
8.7103929e-25
-6.6506953e-26
3.4707135e-25
-4.3903818e-26
6.6126197e-26
-8.5126102e-26
-3.0369033e-26
-7.9888264e-24
-1.4976896e-23
-4.0030052e-23
-2.3244548e-21
2.3624108e-20
-1.5827163e-19
1.0270003e-18
-2.0980276e-18
9.9408237e-18
-1.4921497e-17
2.9488281e-17
-1.5445853e-17
6.1566051e-17
-8.1294003e-18
8.3799115e-17
-1.7770498e-17
1.033916e-17
-6.4906473e-18
6.1236871e-19
3.0878146e-19
6.3297025e-20
1.5523806e-19
6.2320406e-21
3.0496649e-20
2.767613e-22
3.3345875e-21
3.1962947e-24
1.3446565e-22
1.1114059e-26
1.5820207e-24
4.2972191e-29
1.0741489e-26
2.7639869e-31
7.4058802e-29
3.1052426e-33
8.3814513e-31
1.8487468e-35
1.2090796e-32
-8.1997486e-40
1.0105154e-34
-5.5045015e-40
6.1116959e-37
-6.4805341e-42
3.8858963e-39
-4.9264416e-44
2.2308122e-41
-2.7213419e-46
1.0859451e-43
-1.1134701e-48
4.2293423e-46
-6.8497026e-52
8.3580511e-49
-1.8130141e-54
5.8213992e-52
-7.8897989e-57
1.1820148e-54
-7.0726667e-58
4.1319119e-57
-5.965723e-58
4.1488189e-58
-2.1640282e-58
2.2465275e-58
-5.2961184e-59
2.7803674e-59
-7.5747216e-60
-4.0360379e-61
-3.8266581e-61
-9.819777e-61
-7.1386205e-63
-8.985167e-62
-1.8200969e-63
-2.8606266e-63
-2.3532664e-63
-1.7409402e-63
-1.9713398e-63
-2.8641053e-63
-7.8052286e-64
-2.4761718e-63
-3.3591923e-64
-1.040823e-63
-6.6178332e-65
-5.2614393e-64
-3.0272007e-66
-1.0781984e-64
-1.3279134e-67
-5.8871578e-66
-3.3363353e-69
-3.4459964e-67
-2.3778793e-68
8.7027662e-66
-7.7608465e-65
2.2853017e-63
-7.3509959e-63
1.1014267e-61
-3.2401157e-61
2.4821527e-61
-9.8484514e-61
2.6430678e-61
-9.1737476e-61
2.15595e-61
-7.20807e-61
1.2521012e-61
-4.4639337e-61
3.0995807e-62
-1.5563541e-61
9.609033e-63
-2.6807763e-62
1.0067838e-62
-1.8618376e-62
1.0580171e-60
-8.1599926e-61
8.9334714e-59
-6.8549624e-59
2.2174931e-57
-1.6335518e-57
2.1175565e-56
-1.5088357e-56
9.017001e-56
-6.5488387e-56
2.6384281e-55
-1.6944417e-55
8.098308e-54
-3.6771757e-54
1.2824964e-51
-6.082794e-52
1.6201167e-49
-7.0432475e-50
1.6696618e-47
-6.3986641e-48
1.4629461e-45
-5.0563439e-46
1.1296171e-43
-3.601461e-44
7.8300153e-42
-2.3485964e-42
4.7151966e-40
-1.3949781e-40
1.9866106e-38
-7.0323985e-39
8.2726468e-37
-3.0046177e-37
2.6513792e-35
-4.7621669e-36
1.306678e-33
-1.7925573e-34
1.8353388e-31
-2.4761798e-32
6.4769603e-29
-9.0379965e-30