/*--------------------------------*- C++ -*----------------------------------*\
  =========                 |
  \\      /  F ield         | OpenFOAM: The Open Source CFD Toolbox
   \\    /   O peration     | Website:  https://openfoam.org
    \\  /    A nd           | Version:  9
     \\/     M anipulation  |
\*---------------------------------------------------------------------------*/
FoamFile
{
    format      ascii;
    class       volScalarField;
    location    "0.53";
    object      p_rgh;
}
// * * * * * * * * * * * * * * * * * * * * * * * * * * * * * * * * * * * * * //

dimensions      [1 -1 -2 0 0 0 0];

internalField   nonuniform List<scalar> 
10000
(
0
-0.019584964
-0.03613908
-0.056972321
-0.081420577
-0.10905934
-0.13956267
-0.17252936
-0.20759898
-0.2442414
-0.28193314
-0.32007084
-0.35802314
-0.39507398
-0.43040982
-0.46320899
-0.49255174
-0.51744363
-0.53687545
-0.5497616
-0.55495947
-0.55133924
-0.53773505
-0.5129007
-0.47560224
-0.42467996
-0.35899593
-0.27741096
-0.17886746
-0.062427923
0.072723476
0.22736055
0.40252558
0.59903485
0.81237233
1.03353
1.2756968
1.5330353
1.8024666
2.0820944
2.3697778
2.6625829
2.9568289
3.2482479
3.5324355
3.8052804
4.0628726
4.3014848
4.517608
4.7080671
4.870205
5.0020537
5.102423
5.1710591
5.2086978
5.2171617
5.199227
5.1583735
5.0992696
5.0281973
4.9420435
4.8490307
4.755984
4.6695766
4.5681722
4.4916343
4.4312021
4.3870994
4.3594415
4.3479769
4.3519462
4.3701423
4.4010706
4.4432054
4.4951908
4.5557933
4.6237257
4.6978425
4.7755438
4.8560232
4.9384847
5.0221011
5.1062672
5.1906042
5.2742416
5.356014
5.4355252
5.5122878
5.5857144
5.6564498
5.7280135
5.7990698
5.862993
5.9210003
5.9733844
6.0202086
6.0614371
6.0968615
6.1266329
6.1572982
0.012843285
-0.0070918041
-0.024030655
-0.045213784
-0.070179797
-0.098520416
-0.12975518
-0.1636288
-0.19966809
-0.23742681
-0.27636848
-0.31590809
-0.35539527
-0.39410159
-0.43126256
-0.46602439
-0.49744567
-0.52456908
-0.54633563
-0.56161912
-0.56930219
-0.56822782
-0.55711883
-0.53469135
-0.49971206
-0.4509648
-0.3872419
-0.30739202
-0.21037938
-0.09527277
0.038700972
0.19207887
0.36509822
0.5575195
0.7697959
0.99966788
1.2457844
1.5069517
1.7809794
2.0655249
2.3579477
2.6551448
2.9535018
3.2490057
3.5375341
3.8150627
4.0776814
4.3216427
4.5434012
4.7397422
4.9078604
5.0455221
5.1511249
5.2239332
5.2640908
5.2727176
5.2522904
5.205801
5.1372271
5.0512289
4.9514232
4.8435546
4.7328974
4.6234042
4.5269365
4.4427205
4.3750574
4.3255227
4.294628
4.2819578
4.2865636
4.307067
4.3417794
4.3889476
4.4466772
4.5132143
4.5871381
4.6676794
4.7511602
4.8370571
4.9246712
5.0131695
5.1017641
5.1898713
5.2768311
5.3619385
5.4447021
5.5248556
5.6026417
5.6783212
5.7495278
5.8185932
5.882581
5.9411574
5.9942191
6.0417369
6.0836232
6.1196
6.1498262
6.1808994
0.024990654
0.0045411596
-0.012895033
-0.034710428
-0.060488509
-0.089685469
-0.12204067
-0.15717261
-0.19465407
-0.23400608
-0.27472282
-0.31623222
-0.35785725
-0.39888947
-0.43856191
-0.47599756
-0.51029064
-0.54044558
-0.56537906
-0.58397304
-0.59508289
-0.59747283
-0.58983885
-0.57086022
-0.53923523
-0.49366846
-0.43287761
-0.35564733
-0.26083977
-0.14742081
-0.014529367
0.13842843
0.31175473
0.50548299
0.72038038
0.95393191
1.2050427
1.4722416
1.7533742
2.045905
2.3468541
2.6528383
2.9600937
3.2645898
3.5622462
3.8489929
4.1208464
4.3739407
4.6045981
4.8093922
4.9852314
5.1294788
5.2400649
5.3156635
5.3557614
5.3607127
5.3325448
5.2746428
5.1911339
5.0870593
4.968281
4.8413741
4.7129249
4.5891739
4.4793989
4.3848993
4.3093539
4.2547615
4.2213694
4.2086547
4.2153538
4.2395997
4.2793155
4.33231
4.3963567
4.4693997
4.5498259
4.6387751
4.7282458
4.8198931
4.9130011
5.0066288
5.0999636
5.1923396
5.2831163
5.3717221
5.4578023
5.5411075
5.6214035
5.6968498
5.7691796
5.8381233
5.9024705
5.9616732
6.0154379
6.0636513
6.1061299
6.142648
6.173346
6.2049828
0.041456861
0.02056688
0.0025207546
-0.020166945
-0.046882884
-0.077269316
-0.11099552
-0.14773528
-0.18704485
-0.22846165
-0.27148908
-0.315529
-0.35994402
-0.40403398
-0.44699895
-0.48799472
-0.52610692
-0.56029135
-0.58946079
-0.61251481
-0.62825302
-0.63536307
-0.63250188
-0.61830593
-0.59138193
-0.55032108
-0.49373562
-0.42028495
-0.32868384
-0.21776536
-0.086509161
0.065901725
0.2399943
0.43598899
0.65275407
0.89058032
1.148023
1.4231949
1.7137682
2.0169337
2.329446
2.6476389
2.96754
3.2849743
3.5957321
3.8956298
4.1805499
4.4464694
4.6894863
4.9058697
5.0920971
5.2450026
5.3618832
5.440779
5.48065
5.4801499
5.4416678
5.3685069
5.2652838
5.1379979
4.9941538
4.8420742
4.6903471
4.5470964
4.4174692
4.3083802
4.2228584
4.1623075
4.1267503
4.1151057
4.1254471
4.1553622
4.2021805
4.2631399
4.3355827
4.4168492
4.5037388
4.6066368
4.701523
4.7998217
4.8993565
4.9989084
5.0975776
5.1946697
5.2896107
5.381877
5.4710749
5.5567997
5.6387939
5.7175807
5.7920298
5.8620983
5.9273798
5.9874578
6.0420842
6.0910764
6.1342681
6.1714518
6.2027078
6.2350081
0.06176562
0.040308719
0.021488979
-0.0021263325
-0.030092612
-0.061942781
-0.097386262
-0.13610377
-0.17768207
-0.2216774
-0.26756308
-0.31477428
-0.36268411
-0.41057334
-0.45767668
-0.50315767
-0.54605037
-0.58531167
-0.6198733
-0.64859181
-0.6701961
-0.68332885
-0.68660567
-0.67858367
-0.65774997
-0.62258115
-0.57156456
-0.50319053
-0.41599287
-0.30862076
-0.17987941
-0.028788588
0.14533667
0.34280406
0.56347606
0.80722705
1.0728482
1.3583117
1.6611086
1.9781617
2.3058549
2.6401156
2.9766533
3.3110682
3.6389682
3.9560188
4.2579448
4.5405252
4.7995887
5.0310374
5.2308513
5.3951495
5.5202465
5.6029358
5.6408988
5.6346463
5.5837358
5.4910126
5.3617422
5.2037054
5.0264355
4.8406766
4.6570891
4.4852918
4.3332236
4.2070366
4.1101111
4.0436146
4.0069098
3.9981192
4.0144394
4.0526153
4.1092265
4.1809058
4.2645295
4.3573621
4.4573555
4.5640342
4.6703972
4.7777243
4.8851201
4.9916597
5.0965423
5.1991308
5.2989311
5.3954755
5.4884074
5.5774375
5.6623645
5.7433173
5.819622
5.8911266
5.9575719
6.0187118
6.0742881
6.1241548
6.1681647
6.2060485
6.2379174
6.2710169
0.086125215
0.063934412
0.04430641
0.019530182
-0.0098790422
-0.043477077
-0.080963192
-0.12204286
-0.16633679
-0.21338477
-0.26268938
-0.31370093
-0.36577686
-0.41823388
-0.47033152
-0.52119551
-0.56984787
-0.61527479
-0.6563968
-0.69200141
-0.72076434
-0.74130258
-0.75215733
-0.75177916
-0.73854636
-0.7107969
-0.66683812
-0.60496287
-0.5234942
-0.42085404
-0.29560878
-0.14652011
0.027371318
0.22668169
0.45140063
0.70227709
0.97790166
1.2761189
1.5941937
1.9286855
2.2754721
2.6299783
2.9874643
3.3431995
3.6925452
4.0309824
4.3540757
4.657439
4.9366546
5.1872372
5.4045877
5.583951
5.7204783
5.8097734
5.8483511
5.8342504
5.7669145
5.648857
5.4859655
5.2877079
5.0664094
4.8362302
4.6110605
4.4032125
4.2227193
4.0759402
3.9661627
3.8939904
3.8577991
3.8543853
3.8797785
3.929599
3.9994001
4.0850082
4.1827413
4.289471
4.4032978
4.5198649
4.6372993
4.7547045
4.8710564
4.9855191
5.0973981
5.2061282
5.3112827
5.4125032
5.5095231
5.6021351
5.6901777
5.7734268
5.8517516
5.9249489
5.9928326
6.0552199
6.1119
6.1627237
6.2076291
6.2463037
6.2788567
6.3129098
0.11480307
0.091864776
0.071191012
0.045104448
0.01403704
-0.02156146
-0.061408511
-0.10523731
-0.15265533
-0.20323611
-0.25651223
-0.31191709
-0.36884412
-0.42665078
-0.48456985
-0.54171681
-0.5971501
-0.64985601
-0.69871213
-0.7424634
-0.77975465
-0.80915307
-0.82911313
-0.83797124
-0.83399035
-0.81534128
-0.78011056
-0.72636901
-0.65219694
-0.55573053
-0.43522398
-0.28909084
-0.11596884
0.085114409
0.3147029
0.57251189
0.86017904
1.1738278
1.51057
1.8664884
2.2367625
2.6161217
2.9992171
3.3808462
3.7560784
4.1202421
4.4688314
4.7973875
5.1012823
5.3756292
5.6151843
5.8141814
5.9663366
6.065636
6.1065607
6.084691
5.998017
5.8484926
5.6424257
5.3917581
5.1128334
4.8246171
4.545804
4.2923153
4.0765505
3.9062867
3.7830269
3.7065979
3.6738106
3.6796772
3.7185073
3.7843421
3.8714691
3.9748194
4.0900401
4.213176
4.3438124
4.4732562
4.603026
4.7316224
4.857943
4.9811772
5.10071
5.2161221
5.3270722
5.4333059
5.534664
5.6310003
5.7221524
5.8080841
5.8886517
5.9637407
6.0332201
6.0969884
6.1548728
6.2068051
6.2526641
6.2922377
6.3255536
6.3605949
0.14817528
0.12433199
0.1025174
0.074934064
0.042010814
0.00416351
-0.038359428
-0.085275465
-0.13622608
-0.19081275
-0.2485623
-0.30895444
-0.3714333
-0.43533721
-0.49988534
-0.56423735
-0.62748369
-0.68858415
-0.74637155
-0.79958308
-0.84683607
-0.88662797
-0.91732289
-0.93715333
-0.94422694
-0.93652903
-0.91192579
-0.86823307
-0.80322888
-0.71469797
-0.60050258
-0.45862128
-0.28723633
-0.08491562
0.14907426
0.41329896
0.71626387
1.0483027
1.407521
1.7894409
2.1882429
2.5976187
3.0113241
3.4235649
3.8291424
4.2233441
4.6017687
4.9600169
5.2934024
5.5967161
5.8640973
6.0885648
6.2622375
6.3770273
6.424378
6.3964736
6.2883243
6.1004297
5.8388979
5.5192197
5.1641497
4.7999624
4.452027
4.1413444
3.8831601
3.6864698
3.5503458
3.4727639
3.4481351
3.4690449
3.5272305
3.6147605
3.7244357
3.850128
3.9870721
4.1317891
4.2784375
4.4242209
4.5682806
4.7094062
4.8466749
4.979445
5.1072414
5.229797
5.3468934
5.4584013
5.5642761
5.6644702
5.7589173
5.8476411
5.930585
6.007683
6.0788901
6.144133
6.2033295
6.2564187
6.3033288
6.3438364
6.3780272
6.4140712
0.1864709
0.16169702
0.13861933
0.10938634
0.074407051
0.034060172
-0.011402536
-0.06173498
-0.11661022
-0.17562608
-0.23835118
-0.30433238
-0.37301281
-0.44371902
-0.51571606
-0.58820855
-0.66028108
-0.73088264
-0.79884624
-0.86288727
-0.92159122
-0.97339777
-1.0165801
-1.0492519
-1.0693621
-1.0746955
-1.0628917
-1.0314663
-0.97783766
-0.89938497
-0.7935084
-0.65767262
-0.48947001
-0.28665221
-0.04709782
0.23185345
0.54325337
0.89539426
1.2813793
1.694828
2.1281998
2.5735308
3.0233074
3.4710535
3.9113954
4.3398018
4.7522106
5.1445763
5.5124149
5.8504636
6.1523453
6.4096635
6.6131603
6.7513284
6.8120626
6.7823232
6.651797
6.4186808
6.0853319
5.6739359
5.2168751
4.75221
4.3152356
3.9337542
3.6269723
3.4014088
3.2547901
3.1818196
3.1728656
3.2168296
3.3024016
3.4190632
3.557703
3.7108863
3.8733314
4.0451082
4.2112514
4.3746573
4.5344285
4.689279
4.8383996
4.9813817
5.1179488
5.2479851
5.371447
5.4883947
5.5989032
5.7030406
5.8008315
5.8923976
5.9777801
6.056971
6.1299901
6.1967645
6.2573206
6.3116251
6.3596422
6.4011522
6.4362889
6.4733316
0.2300791
0.2043
0.17986638
0.14884658
0.11161873
0.068568111
0.019908145
-0.034149636
-0.093281017
-0.15713511
-0.22534615
-0.29746578
-0.37293762
-0.45113994
-0.5314039
-0.61294829
-0.6948449
-0.77606947
-0.85548292
-0.93177712
-1.0034919
-1.0690106
-1.12653
-1.1740597
-1.2093906
-1.2300949
-1.2335567
-1.2169506
-1.177303
-1.1115353
-1.0165148
-0.88911803
-0.72633473
-0.52517886
-0.28285049
0.0027308698
0.33037365
0.70848573
1.1272681
1.5794231
2.0548684
2.5431683
3.0350488
3.5232217
4.002384
4.4685928
4.9185928
5.3491224
5.756293
6.1351285
6.4791676
6.7792077
7.0230629
7.196215
7.2811959
7.2569235
7.1036389
6.8242439
6.3952854
5.8599128
5.263709
4.6644893
4.1127616
3.6446262
3.2840223
3.0295563
2.8788383
2.8202692
2.8384319
2.9170583
3.040785
3.196058
3.3715763
3.5581552
3.7473624
3.9584369
4.1435073
4.3261529
4.5030098
4.6726775
4.8344491
4.9881495
5.1337948
5.2715079
5.4014674
5.5239027
5.6390366
5.7470432
5.8482457
5.9426905
6.0304814
6.1117664
6.1865721
6.254942
6.316893
6.3724584
6.42161
6.4641618
6.5003365
6.5384404
0.27935588
0.2525447
0.22665494
0.19371783
0.15411
0.1081617
0.056065272
-0.0019679252
-0.065670996
-0.134769
-0.20891077
-0.28764567
-0.37047963
-0.45686941
-0.54617504
-0.63763191
-0.73035628
-0.82335518
-0.91550833
-1.0055048
-1.091842
-1.1728543
-1.2466818
-1.3112434
-1.3641703
-1.4028312
-1.4243484
-1.4255243
-1.4029327
-1.3529704
-1.2719179
-1.156004
-1.0016302
-0.80495373
-0.56204172
-0.2688623
0.078906028
0.48069478
0.93919219
1.4394705
1.9667106
2.5065321
3.0470907
3.5802601
4.1013924
4.607915
5.0980478
5.5698637
6.0206145
6.4461204
6.8409979
7.1940896
7.4923771
7.7168804
7.8440806
7.8430894
7.6800656
7.3310037
6.7849729
6.0799974
5.2897196
4.5081604
3.8085069
3.2360421
2.8179693
2.5411862
2.3996364
2.3714723
2.4339087
2.5635196
2.7397116
2.9455772
3.1679255
3.3972648
3.6287489
3.8579388
4.0738619
4.2799241
4.4758583
4.6613144
4.8362841
5.0009948
5.1558372
5.3012653
5.4376781
5.5655155
5.6852134
5.7970564
5.9015086
5.9987078
6.0888726
6.1721857
6.2487729
6.3187184
6.3820916
6.4389009
6.4891931
6.5328493
6.5700341
6.6092253
0.33470877
0.30686604
0.27941041
0.24447303
0.20235685
0.1533455
0.097637353
0.035392774
-0.033194745
-0.10787306
-0.18830398
-0.27410265
-0.36485638
-0.4600694
-0.55913956
-0.66135207
-0.76589035
-0.87181034
-0.97800276
-1.0831592
-1.1857693
-1.2841408
-1.3763627
-1.46027
-1.5333719
-1.5928409
-1.6355321
-1.6578815
-1.6559568
-1.6255141
-1.5621758
-1.461444
-1.3193779
-1.1312125
-0.892182
-0.5960496
-0.2341714
0.19941058
0.70882861
1.2706924
1.8629611
2.4649808
3.0611081
3.6427794
4.2073058
4.7547414
5.2856919
5.8002696
6.2975706
6.7750896
7.2279826
7.6466496
8.0161557
8.3138951
8.5083776
8.5577874
8.4023008
7.9855849
7.2825545
6.3348892
5.2667033
4.2338053
3.3464268
2.652423
2.179662
1.8982954
1.7882428
1.8167292
1.9484604
2.150929
2.3976937
2.6685946
2.9487853
3.2277371
3.5043336
3.7639483
4.0091164
4.2395813
4.4554654
4.6572171
4.8455561
5.0212688
5.1851795
5.338114
5.4807521
5.6138075
5.7378491
5.8533331
5.9608433
6.0606285
6.1530718
6.2383224
6.3166206
6.3880568
6.4528207
6.510915
6.5623468
6.6071003
6.6453815
6.6857806
0.39655105
0.36772452
0.33862345
0.30159322
0.25686239
0.2046849
0.14520343
0.078521217
0.004812264
-0.075692015
-0.16273763
-0.25602452
-0.35519334
-0.45979762
-0.56930743
-0.68310096
-0.80042514
-0.92037587
-1.041877
-1.163655
-1.2842161
-1.401864
-1.5146603
-1.6203644
-1.7163915
-1.7997853
-1.8671408
-1.9145247
-1.9374646
-1.9309036
-1.8897122
-1.8084123
-1.6833922
-1.5084787
-1.2796769
-0.98921294
-0.618679
-0.14641976
0.42674684
1.0689099
1.7447002
2.422556
3.0808103
3.7119157
4.3179888
4.9038717
5.4736368
6.0299237
6.5741935
7.1063639
7.6240387
8.1198431
8.5789062
8.975825
9.2711345
9.4175847
9.3087291
8.8349268
7.9285725
6.621457
5.1380175
3.745416
2.632802
1.8099454
1.3003773
1.0461504
1.0105786
1.1356583
1.3719116
1.6757439
2.015566
2.3689104
2.719679
3.058609
3.3787408
3.6767135
3.9530374
4.208523
4.4445477
4.6625542
4.8640093
5.0503506
5.2229153
5.3828983
5.5313737
5.6692498
5.7972838
5.9161157
6.0264332
6.1286322
6.2231283
6.3101774
6.390056
6.4629538
6.5290099
6.5883394
6.6410011
6.6868692
6.7261698
6.7679845
0.4653417
0.43561329
0.40477076
0.36557957
0.31818277
0.26274067
0.19933687
0.12807137
0.049088639
-0.037450914
-0.13139923
-0.23252526
-0.34051574
-0.45501894
-0.57561127
-0.70175617
-0.83277233
-0.96781909
-1.1058777
-1.2457219
-1.3859228
-1.5247936
-1.6603847
-1.7904257
-1.9123073
-2.022982
-2.1188577
-2.1956645
-2.2483808
-2.2709159
-2.2570672
-2.1999199
-2.0966384
-1.9386791
-1.7277828
-1.4562897
-1.0946285
-0.59085797
0.075316898
0.82858873
1.6159772
2.3879273
3.1127143
3.7884446
4.4286384
5.0462326
5.6493601
6.2429265
6.8310593
7.4167213
8.0017454
8.5830344
9.148937
9.674918
10.113801
10.424658
10.432759
9.9407719
8.791618
6.9433458
4.820533
2.9220292
1.535038
0.5549711
0.064574371
-0.095481969
0.023682176
0.30903933
0.69764522
1.1381222
1.5982861
2.0537021
2.487276
2.8936363
3.2636837
3.6018115
3.9098846
4.1903518
4.4460141
4.6795685
4.8933564
5.0895334
5.27003
5.4364169
5.5900963
5.7322255
5.8637458
5.9856042
6.098402
6.2027123
6.2990126
6.3877201
6.4690617
6.5433012
6.6106044
6.6711056
6.7249191
6.7719426
6.812252
6.8557084
0.54159139
0.51094853
0.478364
0.4369749
0.38684715
0.32805528
0.26066745
0.18476415
0.10039438
0.0076328155
-0.093422628
-0.20262653
-0.31976914
-0.44460831
-0.57684224
-0.71602438
-0.86155607
-1.0126985
-1.1685207
-1.3278753
-1.4893909
-1.6514353
-1.8120757
-1.9690603
-2.1198081
-2.2612852
-2.3898434
-2.5010338
-2.5893431
-2.647354
-2.6675143
-2.6394553
-2.5645795
-2.422234
-2.2475134
-2.0346804
-1.7037308
-1.191173
-0.36419789
0.54645192
1.4876737
2.3774103
3.1659754
3.8702347
4.5280303
5.1654615
5.7934126
6.4165285
7.0407044
7.6722793
8.3193573
8.9855833
9.6664544
10.346855
10.997585
11.534308
11.773604
11.362835
9.9281511
7.3366785
4.7169383
2.6084437
0.3429764
-1.1749894
-1.6302983
-1.5894608
-1.2179344
-0.68141604
-0.07450535
0.54589759
1.1571652
1.7359493
2.2657819
2.7414953
3.166077
3.545333
3.8845054
4.1887888
4.4627408
4.7103983
4.9351878
5.1400259
5.3273636
5.4992173
5.6573309
5.8030723
5.9375334
6.0618164
6.1766825
6.282795
6.3806733
6.4707429
6.5533757
6.6288413
6.6972902
6.7589332
6.8139345
6.862107
6.9034152
6.9487776
0.62579236
0.59416653
0.5599321
0.51629071
0.46337002
0.40123054
0.32986983
0.24930075
0.15948495
0.060425284
-0.047845117
-0.16528318
-0.29181631
-0.42733142
-0.57163707
-0.72442205
-0.88521304
-1.0533785
-1.2281131
-1.4083772
-1.5928683
-1.7800183
-1.9679689
-2.1545408
-2.337215
-2.5130343
-2.678574
-2.829679
-2.9603736
-3.0619
-3.1246165
-3.1309301
-3.0953822
-2.9461865
-2.8261656
-2.7585119
-2.4286309
-1.7259511
-0.88015206
0.21034573
1.3796812
2.421984
3.2512022
3.9428229
4.5898886
5.2329679
5.8766699
6.519197
7.1666927
7.8285364
8.519436
9.2524134
10.032639
10.852949
11.708524
12.5318
13.192736
12.934946
10.783059
6.6568988
2.9531302
-0.36044896
-2.5757434
-2.9920498
-3.1642019
-3.3312271
-2.7757633
-1.8050575
-0.93445984
-0.086290734
0.71151941
1.4342273
2.0685621
2.6173415
3.0957616
3.5142249
3.8820366
4.207539
4.4973361
4.7569436
4.990864
5.2027392
5.39555
5.5717308
5.7332921
5.8818959
6.0185541
6.1446994
6.2611821
6.3686794
6.4678291
6.5590544
6.6427711
6.7193087
6.7888487
6.8515421
6.9077074
6.9569654
6.9993075
7.0469188
0.71846689
0.6857479
0.64992157
0.60401863
0.54832651
0.48289613
0.40759449
0.32237084
0.22714506
0.12183996
0.006364397
-0.11936842
-0.25541907
-0.40181534
-0.55849979
-0.72531823
-0.90199362
-1.0880318
-1.28275
-1.485238
-1.6943139
-1.9084975
-2.1260265
-2.3448115
-2.5624153
-2.7760368
-2.9826724
-3.1798166
-3.3595922
-3.5128423
-3.6238888
-3.6738729
-3.6784188
-3.4302264
-2.6704701
-1.1867069
-2.8413012
-2.79703
-1.7878391
-0.30112017
1.2888055
2.5450768
3.3729269
3.9608898
4.5547949
5.1966799
5.8550279
6.5100192
7.1664547
7.8341976
8.5322681
9.2851126
10.109762
10.982363
11.90601
12.870461
14.212878
13.805859
9.6730609
2.3581466
-4.1486136
-7.998573
-8.6502948
-8.0114594
-6.9029424
-5.4672706
-4.3632208
-3.1154637
-1.8546
-0.71486962
0.29479394
1.1777711
1.9140863
2.5345756
3.0624677
3.5152028
3.9071318
4.2497929
4.5520336
4.8206843
5.0613264
5.2782618
5.4749023
5.6540253
5.8178989
5.9686663
6.1065679
6.2339981
6.3515837
6.4601014
6.5601892
6.6523337
6.736949
6.8143585
6.8848359
6.9485284
7.0058229
7.0561549
7.0995249
7.149663
0.82011639
0.78614092
0.74875409
0.70067363
0.64227939
0.57362075
0.49446135
0.4047029
0.30421678
0.19280834
0.070251048
-0.06369196
-0.20923214
-0.3665479
-0.5357707
-0.71693307
-0.90997689
-1.1146024
-1.3302621
-1.5562043
-1.7914092
-2.0345288
-2.2838844
-2.5374865
-2.7930844
-3.0479951
-3.2985981
-3.5498156
-3.789773
-4.0168826
-4.1897133
-4.3234224
-4.3287771
-2.3077882
-1.6823409
-1.2928304
-1.2556795
-4.0302398
-3.1645664
-1.0041122
1.3334651
2.8144552
3.4103702
3.7416121
4.2777412
4.9677704
5.6715592
6.345858
6.9979571
7.6383437
8.284835
8.9725859
9.7236223
10.421988
11.091498
12.4774
13.759567
12.343492
5.1291558
-6.0335016
-14.762789
-19.266943
-19.64177
-16.748693
-12.687847
-9.1513009
-6.4870712
-4.0888575
-2.4640742
-1.3117243
-0.064771001
0.99294717
1.824244
2.5065263
3.0749038
3.5539555
3.9634134
4.3179136
4.6282353
4.9024906
5.1470344
5.3667283
5.5653386
5.7458546
5.9106432
6.0614
6.2009403
6.3292317
6.4474971
6.5566487
6.6573279
6.7501
6.8354047
6.9135707
6.9848347
7.0494608
7.1078058
7.1591916
7.2035725
7.2564321
0.93117402
0.89576536
0.85688699
0.80671426
0.74569442
0.67392037
0.5910961
0.49704573
0.39154015
0.27426809
0.14488742
0.0030017531
-0.15179482
-0.31989534
-0.50163083
-0.69728706
-0.90701695
-1.1307594
-1.3681923
-1.6187408
-1.8815499
-2.155441
-2.438821
-2.7298625
-3.0267225
-3.3281548
-3.635114
-3.9384901
-4.2493276
-4.5705942
-4.8423308
-5.1323063
-5.0410615
-2.0268779
-2.1889989
-2.5362989
-3.0628352
-6.0971425
-5.0111503
-2.4022879
1.6537647
3.3611735
3.1470017
3.0123733
3.5615897
4.4415588
5.2616525
5.9881831
6.6392433
7.2169514
7.7309081
8.216334
8.6779945
8.758326
8.2323449
8.4893256
9.4250033
7.1689303
-2.6219401
-15.783178
-26.169218
-31.52301
-31.496958
-27.215243
-19.663189
-12.769415
-8.287111
-5.2313372
-3.0348565
-1.8386899
-0.35366441
0.88783111
1.811426
2.5429412
3.1392536
3.6341911
4.0530255
4.4129777
4.7263819
5.00239
5.2477962
5.467822
5.6664707
5.8468994
6.0116447
6.1626025
6.3017111
6.429953
6.5483251
6.6576798
6.7586564
6.8518233
6.937631
7.0163833
7.0883064
7.1537833
7.2131422
7.2655502
7.3109293
7.3665904
1.0519905
1.0150149
0.97469095
0.92249056
0.85897578
0.78430324
0.69809397
0.60007503
0.48991985
0.36719286
0.23140113
0.082012181
-0.081601893
-0.26011576
-0.45412971
-0.66417753
-0.89068643
-1.1338944
-1.3937616
-1.6699624
-1.9618203
-2.2682609
-2.5877771
-2.9185781
-3.258794
-3.6072738
-3.9644659
-4.3305886
-4.7220738
-5.1316388
-5.5114068
-5.8964877
-6.0163853
-3.7145432
-3.5708978
-4.2676945
-7.3219762
-9.1168407
-9.0472489
-6.7544038
-0.048798065
2.2256026
0.82811236
0.063787112
1.6430033
3.3531249
4.5365419
5.4243023
6.1188977
6.6095389
6.8973446
7.0035816
6.9077452
5.8629752
2.9657436
0.30191118
-0.21481657
-2.5380434
-11.926292
-25.073472
-35.195091
-40.744376
-41.783596
-36.797624
-26.656675
-16.366547
-9.8521182
-6.3114769
-3.4794463
-1.8300479
-0.45808962
0.92060319
1.8959472
2.6520608
3.2588272
3.757104
4.1760264
4.5345067
4.8458242
5.1195755
5.3627713
5.580702
5.7774418
5.9562479
6.1196408
6.2695686
6.4077356
6.5353354
6.6533354
6.7625188
6.8635019
6.9568201
7.0429417
7.1221353
7.1946436
7.2608718
7.3211966
7.3745767
7.4209442
7.4794548
1.1828038
1.1441531
1.1024161
1.0483095
0.98250243
0.90521634
0.81597103
0.71439601
0.60009453
0.47251381
0.33096878
0.17470594
0.0028878936
-0.18542022
-0.39117276
-0.61520224
-0.8582865
-1.1210676
-1.4038541
-1.7066067
-2.0288926
-2.3697651
-2.7277184
-3.1007007
-3.4866128
-3.8840986
-4.2921974
-4.717485
-5.1869516
-5.6729892
-6.1090935
-6.4961924
-7.0050511
-7.0643396
-7.5761224
-8.2051342
-10.792885
-14.473756
-17.108151
-15.69501
-8.1919205
-5.2003077
-6.5821412
-6.1304692
-2.2111518
1.3641453
3.480308
4.7603583
5.569131
5.9628919
5.9439422
5.5112259
4.6456087
2.1423995
-3.9509513
-10.939268
-12.757147
-14.956313
-22.111453
-32.620737
-40.976623
-45.673452
-46.770121
-42.667355
-31.048372
-18.554472
-10.672466
-6.6914819
-3.1831498
-1.4094317
-0.29011119
1.1083135
2.0846349
2.8352163
3.4324251
3.9206965
4.3302645
4.6805211
4.9848193
5.2525229
5.4905371
5.7040395
5.8970316
6.0727333
6.2334673
6.3814256
6.5179935
6.6444136
6.7615822
6.8702578
6.9710041
7.0643208
7.1505866
7.2301056
7.303121
7.3700369
7.4312876
7.4855826
7.5328856
7.5942422
1.3237513
1.2833133
1.2402557
1.184426
1.1165621
1.0369746
0.9451267
0.8405563
0.72277151
0.59108944
0.44465934
0.28245863
0.10335465
-0.093862158
-0.31045757
-0.54772424
-0.80684476
-1.0889549
-1.3948804
-1.724935
-2.0790132
-2.4564064
-2.8555402
-3.2739507
-3.708576
-4.1570515
-4.6181654
-5.1009065
-5.6365266
-6.1987995
-6.6722527
-7.0796772
-7.543964
-7.7263669
-8.253366
-9.5706197
-13.20069
-19.958109
-25.248822
-24.388641
-18.090594
3.3040419
-10.354036
-15.155807
-7.2366269
-1.2250532
2.3573285
4.2827691
5.2469699
5.5331763
5.1906355
4.1606478
2.5481638
-1.2390101
-10.146027
-22.380923
-22.184531
-18.15544
-31.00372
-36.729957
-42.290761
-45.1726
-45.938538
-42.077645
-31.38382
-18.761988
-10.470116
-6.1240807
-2.6871187
-1.0935385
0.013757512
1.4136849
2.3653788
3.0845841
3.6539424
4.1198717
4.5116655
4.8477845
5.1406938
5.3990104
5.629191
5.8361274
6.0236411
6.1948882
6.35186
6.4968488
6.6311763
6.7559391
6.8719787
6.9799226
7.0802469
7.1734121
7.2597237
7.3394871
7.4129192
7.4804811
7.5426004
7.5977227
7.6459112
7.7101503
1.4748953
1.4325814
1.3883198
1.3309398
1.2612746
1.1797704
1.0858517
0.97897959
0.85856267
0.72375534
0.57351174
0.40658166
0.22152238
0.016733363
-0.20943127
-0.45875103
-0.73298047
-1.0337851
-1.3626886
-1.7205767
-2.1077865
-2.5240094
-2.9678068
-3.4362894
-3.9252882
-4.4303972
-4.9490074
-5.487194
-6.077844
-6.7184351
-7.290779
-7.7395995
-8.1089606
-8.1644561
-8.2728301
-9.6136215
-13.749942
-20.898285
-25.440215
-23.798108
-16.853576
15.176157
7.0551136
-20.258346
-11.202879
-3.2721456
1.9464675
4.4782062
5.4974839
5.6340932
5.0053524
3.5860267
1.3686095
-3.3923925
-13.937081
-28.87917
-36.020941
-22.903418
-35.499076
-34.952837
-38.061482
-39.507581
-39.291817
-35.320794
-26.450429
-15.926679
-8.8014004
-4.9987175
-2.7559082
-0.96993696
0.61777421
1.8744684
2.7365821
3.3908939
3.9142972
4.3471909
4.7145666
5.0320997
5.3102826
5.5565637
5.7766809
5.9750987
6.1553995
6.3204585
6.4729652
6.6142566
6.7458244
6.8685936
6.9832541
7.0902967
7.1901474
7.2830948
7.3694345
7.4494025
7.5231871
7.5913569
7.6543047
7.7101788
7.7592405
7.8263535
1.6362534
1.5919525
1.5465256
1.4877664
1.4165848
1.3336315
1.2382864
1.1299246
1.0078778
0.87116271
0.71851107
0.5484102
0.35909975
0.14856068
-0.085403355
-0.34509229
-0.63293184
-0.951281
-1.3024708
-1.6883079
-2.1098465
-2.5674366
-3.0601364
-3.5851304
-4.1372691
-4.7094367
-5.2946224
-5.8928479
-6.5261925
-7.2064133
-7.8435661
-8.3067607
-8.5553812
-8.4499839
-8.1844057
-8.9752316
-11.801851
-16.422303
-19.737842
-17.93231
-9.7245805
16.909009
6.690929
-18.465449
-11.664398
-2.8826794
3.3250805
5.9170605
6.6859937
6.5246324
5.5681175
3.8331791
1.5962582
-3.5716793
-14.906416
-28.806428
-36.088777
-26.243681
-29.245725
-30.620273
-31.380859
-30.376839
-28.061962
-24.116968
-17.75794
-10.6829
-5.8800151
-3.225528
-1.4873652
0.060830015
1.4340809
2.4452243
3.1680657
3.7335669
4.199031
4.5927376
4.9322944
5.2289326
5.4904419
5.7228178
5.9310152
6.1191276
6.2905513
6.4484905
6.5950668
6.731896
6.8601574
6.9806825
7.0938945
7.2000619
7.2994605
7.3922442
7.4786705
7.5588648
7.6330006
7.7017598
7.7655183
7.8221012
7.8720252
7.9418965
1.8076811
1.7611999
1.7146222
1.654666
1.5822803
1.4983697
1.4023068
1.2933958
1.1708991
1.0337195
0.88038957
0.70910513
0.51771117
0.30371294
0.064319539
-0.20342678
-0.502696
-0.83670293
-1.2087346
-1.6218692
-2.0783651
-2.5797579
-3.1263886
-3.7163065
-4.34416
-5.0002449
-5.670184
-6.336893
-7.0015676
-7.6732615
-8.289726
-8.742162
-8.8709311
-8.5906741
-8.0760632
-7.9488811
-8.8022123
-11.63293
-16.196971
-19.287646
-19.198009
-11.527004
-5.4495857
-22.167525
-2.899691
2.485698
7.6889245
9.0619761
9.0418742
8.2846003
6.920025
4.9326862
3.1377116
-3.8936149
-18.552966
-32.519031
-33.420359
-24.341002
-21.060297
-36.767203
-26.235619
-20.742156
-16.136158
-12.562441
-8.6401104
-4.9260064
-2.4421925
-0.99906884
0.15858323
1.296652
2.2933692
3.0381862
3.608178
4.0812898
4.4890652
4.8451296
5.1581984
5.434363
5.6786825
5.8958625
6.0903656
6.266329
6.4274383
6.5764171
6.7159267
6.8475566
6.9722016
7.0903493
7.2021573
7.3076612
7.4068162
7.4996462
7.5862971
7.6668278
7.7414038
7.8107748
7.8753079
7.9325281
7.9832617
8.0557327
1.9888638
1.9399162
1.8921802
1.8311942
1.7579024
1.6735292
1.5774993
1.4690888
1.3475188
1.2115917
1.0596325
0.88952799
0.69869996
0.48414334
0.24240017
-0.030251878
-0.33785737
-0.68466647
-1.0751815
-1.513891
-2.0048551
-2.5516782
-3.157061
-3.8215064
-4.541706
-5.3079793
-6.1018322
-6.892888
-7.6599793
-8.3971807
-9.0495958
-9.4194774
-9.2979862
-8.6918509
-7.7645678
-6.6223603
-5.548177
-8.0734321
-15.979651
-31.785407
-38.616311
-33.052563
-24.542492
-49.028935
-27.775688
-3.5608892
13.650577
13.458728
12.482182
10.683786
8.7849562
6.4047644
3.5247664
-18.390932
-52.694184
-69.956824
-50.869558
-31.240943
20.401595
-43.41551
-18.144001
-9.325584
-5.0991853
-2.8594245
-1.1624233
0.045094542
0.79407514
1.2893683
1.8366435
2.4726122
3.0680949
3.5665801
4.0026383
4.4013238
4.7658644
5.0946814
5.3876726
5.6464446
5.8741664
6.0750235
6.253752
6.4150875
6.5633402
6.7017515
6.833
6.9586697
7.0794556
7.195376
7.3061482
7.4113971
7.5107164
7.6039404
7.6910834
7.7721667
7.8473301
7.9173891
7.9827007
8.0404786
8.0919673
8.1668591
2.1794604
2.1276124
2.0785939
2.0166469
1.9426683
1.8583059
1.7630943
1.6563232
1.5372244
1.4045338
1.2563635
1.0902646
0.90323624
0.6916941
0.45153824
0.17806585
-0.13377455
-0.4893935
-0.89466261
-1.3558484
-1.8791575
-2.4709998
-3.1379281
-3.8852393
-4.7153159
-5.6235312
-6.5942438
-7.588251
-8.567397
-9.501295
-10.327447
-10.764228
-10.40891
-9.4124731
-7.7304692
-4.7406666
-2.7014079
-4.4387161
-10.05334
-37.561295
19.589713
-28.307877
4.7747214
39.491531
27.958957
10.678238
29.142222
22.782339
17.23862
13.1544
10.682167
10.089623
9.4220117
-16.596136
-53.25345
-57.452165
9.2900286
69.912027
41.015638
-13.670431
3.6964341
7.3010842
5.7654484
5.2423951
4.8750373
4.2876956
3.6892145
3.306157
3.2130043
3.3581388
3.6235103
3.9458
4.3014933
4.6663663
5.0166291
5.3369957
5.6206376
5.8667943
6.0785758
6.2612538
6.4209848
6.5644502
6.6965028
6.8217267
6.943089
7.0621563
7.1790634
7.2932138
7.4036489
7.5093455
7.6094667
7.7036116
7.7916897
7.8736472
7.9496226
8.0205472
8.0867342
8.1450796
8.1973204
8.2744101
2.3789619
2.3236312
2.2730388
2.21005
2.1354576
2.0514597
1.9578138
1.8538805
1.7389449
1.6117306
1.4701773
1.3114988
1.1322257
0.92811359
0.69424815
0.4249945
0.11410905
-0.24511127
-0.65990071
-1.1384853
-1.6895593
-2.3226798
-3.0495994
-3.8830066
-4.8348459
-5.9117281
-7.1130862
-8.3933932
-9.690375
-10.91746
-12.016537
-12.355592
-11.650748
-9.9428536
-8.2403712
-5.6380702
-2.9983531
-1.3655007
3.0920196
-18.72697
-24.935033
-3.1568086
-34.362277
29.588935
57.359023
51.768897
43.210972
30.519974
19.99811
13.785344
11.562695
8.330711
10.534033
22.285407
21.172411
24.04949
1.448087
4.4412935
13.338428
14.889536
29.185871
23.524023
16.220049
12.842669
10.428429
8.1750595
6.1988736
4.7853809
4.0264451
3.7695109
3.8364706
4.1000825
4.4652248
4.8608229
5.2392629
5.5765876
5.8638789
6.1019746
6.2969458
6.4575534
6.5934717
6.713104
6.8243815
6.9330231
7.0424117
7.1540191
7.2673176
7.3806681
7.4919576
7.5992272
7.7011258
7.7970259
7.8866875
7.9699766