/*--------------------------------*- C++ -*----------------------------------*\
  =========                 |
  \\      /  F ield         | OpenFOAM: The Open Source CFD Toolbox
   \\    /   O peration     | Website:  https://openfoam.org
    \\  /    A nd           | Version:  9
     \\/     M anipulation  |
\*---------------------------------------------------------------------------*/
FoamFile
{
    format      ascii;
    class       surfaceScalarField;
    location    "0.53";
    object      phi;
}
// * * * * * * * * * * * * * * * * * * * * * * * * * * * * * * * * * * * * * //

dimensions      [0 3 -1 0 0 0 0];

internalField   nonuniform List<scalar> 
19800
(
0.00011586685
-8.6306982e-05
0.0001637151
-8.5372438e-05
0.00021118995
-8.4607926e-05
0.00025802394
-8.3317373e-05
0.00030419667
-8.2022934e-05
0.00034957498
-8.0395348e-05
0.00039406945
-7.8633406e-05
0.00043757367
-7.6674984e-05
0.00048000978
-7.4585101e-05
0.00052129979
-7.2367756e-05
0.00056134061
-7.0010203e-05
0.00060009899
-6.7602591e-05
0.00063744022
-6.5016235e-05
0.00067333639
-6.24938e-05
0.0007076936
-5.9897442e-05
0.00074046831
-5.7320236e-05
0.00077158932
-5.4750059e-05
0.00080099884
-5.2211376e-05
0.00082867469
-4.9744531e-05
0.00085456981
-4.7349077e-05
0.00087863179
-4.5058541e-05
0.00090081631
-4.2841216e-05
0.00092113293
-4.0702392e-05
0.00093957865
-3.8674699e-05
0.00095611102
-3.6670882e-05
0.00097071502
-3.4671627e-05
0.00098337073
-3.2546842e-05
0.00099405716
-3.0202847e-05
0.0010027346
-2.7594977e-05
0.0010092654
-2.4524459e-05
0.0010134244
-2.0855499e-05
0.001014834
-1.6418261e-05
0.0010129692
-1.0977296e-05
0.00100784
-4.274382e-06
0.0010016833
3.1840583e-06
0.00099197316
1.3640724e-05
0.00097767319
2.4536041e-05
0.00095887768
3.6990959e-05
0.00093591345
5.1287636e-05
0.00090913912
6.7202502e-05
0.00087893001
8.4445827e-05
0.00084586082
0.00010251253
0.00081060236
0.00012065353
0.00077395166
0.00013800707
0.00073681414
0.00015344888
0.00070022292
0.00016592767
0.00066532622
0.00017446958
0.00063349508
0.00017825399
0.00060603397
0.00017681036
0.00058425663
0.00016986964
0.00056928928
0.00015742235
0.00056201888
0.00013995737
0.00056289235
0.00011820792
0.00057187838
9.3336799e-05
0.00058845616
6.6738136e-05
0.00061140399
4.0260293e-05
0.00063898659
1.5595827e-05
0.00066920488
-5.7499903e-06
0.00069890458
-2.1958728e-05
0.00072515219
-3.0172706e-05
0.00074829983
-3.1260646e-05
0.00076521111
-2.6177784e-05
0.00077157269
-1.5449393e-05
0.00077043219
-1.2755098e-06
0.00075903218
1.8052185e-05
0.00073512168
3.8644409e-05
0.00069948068
5.9023373e-05
0.0006530535
7.8537183e-05
0.00059731836
9.6402194e-05
0.00053387527
0.00011204814
0.00046449259
0.00012507841
0.00039108928
0.00013521076
0.00031553983
0.00014243135
0.00023974875
0.00014680627
0.00016525403
0.0001484908
9.3203891e-05
0.00014760353
2.461076e-05
0.00014436735
-3.9525479e-05
0.00013902486
-9.8433867e-05
0.00013184165
-0.00015176399
0.00012369928
-0.00019894338
0.00011416585
-0.00023968847
0.00010382348
-0.00027368547
9.3149333e-05
-0.00029972537
8.2402508e-05
-0.00031828647
7.1018295e-05
-0.00033050236
5.8724423e-05
-0.00033674065
4.5745083e-05
-0.00033717164
3.2178604e-05
-0.00033225763
1.8452471e-05
-0.00032365946
5.4339018e-06
-0.0003135267
-6.9716847e-06
-0.0002988172
-1.8925758e-05
-0.00027904193
-2.8745025e-05
-0.00025495475
-3.7228788e-05
-0.00022714067
-4.4544466e-05
-0.0001961502
-5.0845069e-05
-0.00016247766
-5.5992649e-05
-0.00012656189
-6.0268514e-05
-8.8915725e-05
-6.3524101e-05
-6.6250135e-05
0.00011669065
-0.00013497122
0.00016490351
-0.00013357975
0.00021262055
-0.00013233227
0.00025973425
-0.00013042174
0.00030612851
-0.0001284145
0.00035170793
-0.00012597471
0.00039638103
-0.00012331349
0.00044007103
-0.0001203672
0.00048262554
-0.00011714036
0.00052400049
-0.00011374807
0.00056412566
-0.00011013309
0.00060289492
-0.00010637521
0.00064024388
-0.00010237148
0.0006761206
-9.8366446e-05
0.00071044089
-9.421507e-05
0.00074315496
-9.0035462e-05
0.00077417565
-8.5767096e-05
0.00080347753
-8.1511428e-05
0.00083099166
-7.7261755e-05
0.00085669897
-7.3055684e-05
0.00088056567
-6.8921741e-05
0.000902611
-6.4887154e-05
0.00092279448
-6.0888111e-05
0.00094112165
-5.7001988e-05
0.0009576302
-5.3179912e-05
0.00097231942
-4.9362009e-05
0.00098524019
-4.5466434e-05
0.00099636796
-4.1328774e-05
0.0010056538
-3.688186e-05
0.0010130369
-3.190894e-05
0.0010183817
-2.6198119e-05
0.0010215353
-1.9570817e-05
0.0010222766
-1.1722364e-05
0.0010203179
-2.319424e-06
0.0010147249
8.7757231e-06
0.0010064482
2.1914405e-05
0.00099430869
3.6671847e-05
0.00097794359
5.3354366e-05
0.00095718374
7.2047277e-05
0.0009319902
9.2396687e-05
0.00090248151
0.00011395265
0.0008690538
0.00013593907
0.00083223735
0.00015747203
0.00079276095
0.00017748282
0.00075164321
0.00019456781
0.0007101107
0.00020746114
0.00066955712
0.00021502136
0.00063157772
0.00021623432
0.00059784434
0.00021054333
0.00056995878
0.00019775618
0.00054935318
0.00017802803
0.00053724393
0.00015206632
0.00053456032
0.00012089271
0.00054151286
8.6387153e-05
0.00055774251
5.0510835e-05
0.00058225144
1.5752142e-05
0.00061328237
-1.5434264e-05
0.00064818327
-4.0649355e-05
0.00068429825
-5.8072456e-05
0.00071936053
-6.5233332e-05
0.0007504299
-6.2329912e-05
0.00077426957
-5.0016629e-05
0.00078836432
-2.9545803e-05
0.00078991452
-2.8247981e-06
0.00077940325
2.8559642e-05
0.00075620511
6.1843227e-05
0.00072018498
9.5043967e-05
0.00067287384
0.00012584559
0.00061522064
0.00015405283
0.00054933367
0.00017793409
0.0004774235
0.0001969875
0.00040121465
0.0002114173
0.00032285889
0.00022078622
0.00024393147
0.00022573363
0.00016626014
0.00022616253
9.1263521e-05
0.00022260158
2.0154481e-05
0.00021547715
-4.5908562e-05
0.00020508708
-0.00010675258
0.00019268598
-0.00016137458
0.00017832245
-0.00020944316
0.00016223476
-0.00025089786
0.00014527866
-0.00028524586
0.00012749751
-0.00031217223
0.00010932882
-0.0003319411
9.0787935e-05
-0.00034505064
7.1835084e-05
-0.00035195434
5.2650244e-05
-0.00035321856
3.3444545e-05
-0.00034932412
1.4560261e-05
-0.00034097385
-2.9141087e-06
-0.00032779847
-2.0146401e-05
-0.00031064952
-3.6075632e-05
-0.0002892128
-5.0182866e-05
-0.00026381941
-6.2621716e-05
-0.00023480591
-7.355757e-05
-0.0002026089
-8.3040835e-05
-0.00016761438
-9.0983945e-05
-0.00013037573
-9.750483e-05
-9.1617984e-05
-0.00010228185
-0.00010652937
0.00011774926
-0.00018394333
0.00016622952
-0.00018206792
0.00021425308
-0.00018035421
0.00026167695
-0.00017784586
0.00030838134
-0.00017511349
0.00035426841
-0.00017186116
0.00039924978
-0.00016829357
0.00044315375
-0.00016427135
0.000486001
-0.00015999369
0.00052761287
-0.00015535725
0.00056795047
-0.00015047057
0.00060688202
-0.00014531177
0.0006444729
-0.00013995964
0.00068049571
-0.00013438694
0.00071495508
-0.00012867636
0.00074773026
-0.00012280765
0.00077880329
-0.0001168366
0.00080810032
-0.00011081026
0.00083563249
-0.00010479432
0.000861385
-9.8805247e-05
0.00088524929
-9.2785478e-05
0.00090717204
-8.6811093e-05
0.00092736969
-8.108512e-05
0.00094575551
-7.5387134e-05
0.0009622998
-6.9724804e-05
0.00097708012
-6.4141694e-05
0.00099021775
-5.8601877e-05
0.0010016756
-5.2785299e-05
0.001011512
-4.6718355e-05
0.0010196214
-4.0018001e-05
0.0010258898
-3.2465323e-05
0.0010302539
-2.3935629e-05
0.0010324814
-1.3954034e-05
0.0010321893
-2.0300329e-06
0.0010285965
1.2369144e-05
0.0010221096
2.8399377e-05
0.0010120406
4.6736238e-05
0.00099785082
6.7542216e-05
0.00097929202
9.0606423e-05
0.00095583286
0.00011585726
0.00092738669
0.00014239782
0.0008939817
0.00016934236
0.00085591871
0.00019553807
0.0008138961
0.0002195055
0.00076874527
0.00023971685
0.00072168547
0.00025452063
0.00067440838
0.00026229701
0.00062875453
0.0002618895
0.00058686376
0.000252434
0.00055103178
0.00023358882
0.00052318687
0.00020587446
0.00050509534
0.00017015968
0.00049804665
0.00012794223
0.0005030553
8.1377972e-05
0.00052004654
3.3519839e-05
0.00054801184
-1.2211304e-05
0.00058506765
-5.2487185e-05
0.00062786953
-8.3449098e-05
0.0006735881
-0.00010379074
0.00071897198
-0.00011062077
0.00075973349
-0.00010309385
0.00079204376
-8.232895e-05
0.00081283922
-5.0336678e-05
0.00081940013
-9.3869366e-06
0.00081068071
3.7279282e-05
0.00078697982
8.5536695e-05
0.00074948149
0.00013253819
0.00069856244
0.00017676867
0.00063701217
0.00021560536
0.00056668307
0.00024825873
0.00048986159
0.00027380714
0.00040901603
0.00029226233
0.00032619926
0.00030360325
0.00024342153
0.00030851477
0.00016213194
0.00030745349
8.3882225e-05
0.00030084998
9.7142058e-06
0.00028964594
-5.8861817e-05
0.00027366446
-0.00012146849
0.0002552926
-0.00017749086
0.00023434473
-0.00022684172
0.00021158499
-0.00026878019
0.00018721705
-0.00030352358
0.0001622412
-0.00033086031
0.00013666545
-0.00035103083
0.00011095903
-0.00036439688
8.5201096e-05
-0.00037140015
5.9654299e-05
-0.00037263563
3.4682895e-05
-0.00036831789
1.0245843e-05
-0.0003578028
-1.3427949e-05
-0.00034307413
-3.4875245e-05
-0.00032424783
-5.4901892e-05
-0.00030117456
-7.3255835e-05
-0.00027423891
-8.9557021e-05
-0.00024364133
-0.00010415437
-0.00021013693
-0.00011654372
-0.00017390639
-0.0001272144
-0.00013540636
-0.00013600502
-9.5071017e-05
-0.00014261692
-0.00014828045
0.00011912161
-0.00023343082
0.0001680938
-0.00023103191
0.00021658548
-0.00022884659
0.00026444736
-0.00022570648
0.00031155137
-0.00022221797
0.00035779249
-0.00021809877
0.00040306173
-0.0002135596
0.00044737883
-0.00020859326
0.00049046726
-0.00020308038
0.00053238771
-0.00019727633
0.00057296773
-0.00019105459
0.00061218138
-0.00018452308
0.00064992464
-0.0001776997
0.0006861497
-0.00017061382
0.00072076367
-0.00016328845
0.00075365515
-0.0001556948
0.00078482712
-0.00014800919
0.00081422963
-0.00014021419
0.00084176831
-0.00013233116
0.00086744984
-0.00012448575
0.00089124384
-0.00011657989
0.00091323844
-0.0001088043
0.00093333776
-0.00010118281
0.00095159788
-9.3647574e-05
0.00096817082
-8.6297262e-05
0.00098308484
-7.9053104e-05
0.0009963623
-7.187753e-05
0.001008169
-6.4591408e-05
0.0010184624
-5.7010388e-05
0.0010273323
-4.8887264e-05
0.0010347865
-3.9921227e-05
0.0010404905
-2.9641354e-05
0.0010441555
-1.7619805e-05
0.0010455876
-3.4631564e-06
0.0010445116
1.3444086e-05
0.0010402079
3.2700159e-05
0.0010322128
5.4727327e-05
0.0010197386
8.0015917e-05
0.0010024852
0.00010786066
0.00098009241
0.00013825122
0.0009519489
0.00017054162
0.00091782821
0.00020346105
0.0008777688
0.00023559917
0.00083211105
0.00026516383
0.00078178918
0.00029003598
0.00072811948
0.00030818925
0.0006730572
0.00031735811
0.00061883158
0.00031611704
0.00056802743
0.00030324023
0.0005233754
0.00027824307
0.00048764238
0.00024160853
0.00046344076
0.00019436078
0.00045290311
0.00013847935
0.00045733958
7.6940842e-05
0.00047699527
1.3864676e-05
0.00051161093
-4.6824838e-05
0.00055787871
-9.8752911e-05
0.00061362454
-0.00013919632
0.00067210066
-0.0001622683
0.00072988005
-0.00016840296
0.00078248218
-0.00015569367
0.00082501721
-0.00012486649
0.00085340096
-7.871594e-05
0.00086509943
-2.1089472e-05
0.00085884354
4.3534627e-05
0.00083443626
0.00010994508
0.00079332552
0.00017364819
0.00073758869
0.00023250345
0.00066960075
0.00028359108
0.00059219259
0.00032566673
0.0005081535
0.00035784594
0.00041996502
0.00038045271
0.00033017318
0.00039339892
0.00024107905
0.00039760912
0.00015453202
0.00039399987
7.1892077e-05
0.00038349111
-5.3563059e-06
0.0003668949
-7.7362684e-05
0.00034567011
-0.00014249552
0.00032042503
-0.00020050382
0.00029235363
-0.00025080416
0.00026188416
-0.00029380778
0.0002302202
-0.00032900488
0.00019743871
-0.00035647066
0.00016412977
-0.00037654021
0.00013102724
-0.00038951718
9.8178394e-05
-0.00039582028
6.5958953e-05
-0.00039583006
3.4693735e-05
-0.00039014016
4.5565671e-06
-0.00037927177
-2.4295938e-05
-0.00036326643
-5.0881062e-05
-0.0003425864
-7.5581451e-05
-0.00031767176
-9.8168613e-05
-0.0002887721
-0.00011845568
-0.0002562951
-0.00013663049
-0.00022067684
-0.00015215998
-0.00018241956
-0.00016547231
-0.00014194916
-0.00017647599
-9.973149e-05
-0.0001848346
-0.00019201256
0.00012092904
-0.00028351242
0.00017042931
-0.00028053061
0.00021953797
-0.00027795028
0.00026792105
-0.0002740901
0.00031556575
-0.00026986097
0.00036228569
-0.00026481617
0.00040811896
-0.00025939736
0.00045273444
-0.00025320717
0.00049627891
-0.00024662259
0.00053853245
-0.00023953367
0.00057949383
-0.00023201503
0.00061903266
-0.00022405917
0.00065698766
-0.00021565704
0.00069346195
-0.00020708767
0.00072826672
-0.00019808862
0.00076139114
-0.00018881847
0.00079282683
-0.0001794466
0.00082231568
-0.00016970222
0.00084988711
-0.00015990158
0.0008755491
-0.00015014797
0.00089935032
-0.00014037965
0.00092124311
-0.00013069471
0.00094113691
-0.00012107646
0.00095927769
-0.00011178878
0.00097570141
-0.00010271884
0.00099056428
-9.391305e-05
0.0010039866
-8.5299211e-05
0.0010161344
-7.6739439e-05
0.0010271161
-6.7990449e-05
0.001036982
-5.8752765e-05
0.0010456972
-4.8638791e-05
0.0010532108
-3.7155682e-05
0.0010591953
-2.3602514e-05
0.0010633883
-7.6574616e-06
0.0010649915
1.1836721e-05
0.0010637919
3.3896623e-05
0.0010585239
5.9994254e-05
0.0010489974
8.9543974e-05
0.0010340296
0.00012282878
0.0010129355
0.00015934432
0.00098503262
0.00019844556
0.00094965125
0.00023884218
0.00090653855
0.00027871231
0.00085599264
0.00031570971
0.00079875634
0.00034726957
0.00073636708
0.0003705784
0.00067089806
0.00038282837
0.00060522312
0.00038179475
0.00054264814
0.00036581655
0.00048668431
0.00033420717
0.00044095544
0.00028733693
0.00040871244
0.00022660194
0.00039345918
0.00015373179
0.00039699835
7.3402179e-05
0.00041983877
-8.9753491e-06
0.00046094515
-8.7931774e-05
0.00051860575
-0.00015641361
0.00058819367
-0.00020878336
0.00066532614
-0.0002393987
0.00074199788
-0.00024507436
0.00081225211
-0.00022594797
0.0008697917
-0.00018240754
0.00090941287
-0.00011833742
0.00092779669
-3.9467969e-05
0.0009230993
4.8234785e-05
0.00089683129
0.0001362106
0.00085056778
0.00021990938
0.00078738776
0.00029568427
0.00071066292
0.00036031534
0.00062366215
0.00041266758
0.00053000365
0.00045150625
0.00043277244
0.0004776852
0.00033445392
0.00049171703
0.0002375292
0.00049453326
0.00014394132
0.00048758852
5.5275072e-05
0.00047215704
-2.7392775e-05
0.00044956149
-0.00010298107
0.00042125802
-0.00017095114
0.0003883937
-0.00023106308
0.00035246442
-0.00028302336
0.00031384373
-0.00032661751
0.0002738139
-0.00036187741
0.00023269782
-0.00038952784
0.00019177999
-0.00040931745
0.00015081823
-0.00042174578
0.00011060875
-0.00042701436
7.1229155e-05
-0.00042579183
3.3472522e-05
-0.00041854797
-2.6860678e-06
-0.00040588439
-3.6958352e-05
-0.00038791785
-6.8846148e-05
-0.00036512447
-9.8374097e-05
-0.00033791644
-0.00012537897
-0.00030667413
-0.00014969981
-0.00027192808
-0.00017137703
-0.00023389432
-0.00019019116
-0.00019334516
-0.00020602022
-0.00015037772
-0.00021944479
-0.00010595385
-0.00022925794
-0.00023827144
0.00012316386
-0.00033436028
0.00017342826
-0.00033079539
0.00022318716
-0.00032770855
0.0002721995
-0.00032309889
0.00032040808
-0.00031806708
0.00036778818
-0.0003122021
0.000414058
-0.00030566732
0.00045932415
-0.00029847126
0.00050333491
-0.00029063672
0.00054607408
-0.0002822724
0.00058739233
-0.00027333078
0.00062729241
-0.00026396226
0.00066571565
-0.00025408177
0.00070247644
-0.00024384469
0.00073759488
-0.00023320543
0.00077101044
-0.00022223539
0.00080250601
-0.00021094172
0.00083218354
-0.0001993786
0.00085993839
-0.00018765641
0.00088566755
-0.00017587584
0.0009093379
-0.00016404754
0.00093103453
-0.00015239083
0.00095084048
-0.00014088305
0.00096878486
-0.00012973192
0.00098502851
-0.00011896014
0.00099969979
-0.00010858338
0.0010131443
-9.8744051e-05
0.0010255244
-8.9119491e-05
0.0010370228
-7.9487791e-05
0.0010478172
-6.9546411e-05
0.0010580535
-5.8875929e-05
0.0010674893
-4.6591827e-05
0.0010760859
-3.2198598e-05
0.0010831878
-1.4761977e-05
0.0010884891
6.5310707e-06
0.0010906098
3.1775022e-05
0.0010890715
6.1533776e-05
0.0010828964
9.5719905e-05
0.0010710376
0.00013468661
0.0010523288
0.00017805132
0.0010255906
0.00022518595
0.00098965182
0.00027478309
0.00094374573
0.00032461825
0.00088764406
0.00037181078
0.00082202148
0.0004128909
0.00074860763
0.00044399339
0.00066988841
0.00046154919
0.00058943679
0.00046224701
0.00051124347
0.00044400828
0.00043998245
0.00040546675
0.00038029439
0.00034702574
0.00033703441
0.00026986217
0.00031441314
0.00017635116
0.00031507697
7.2736065e-05
0.00034150807
-3.5406048e-05
0.00039266305
-0.00013908362
0.00046678166
-0.00023053015
0.00055824692
-0.00030024776
0.00065943279
-0.00034058621
0.00076193297
-0.00034757216
0.00085545106
-0.00031946806
0.00093267309
-0.00025962157
0.00098656917
-0.00017223307
0.0010129022
-6.580217e-05
0.0010092427
5.1893827e-05
0.00097881879
0.00016663288
0.00092465288
0.00027407522
0.00085070544
0.00036963092
0.00076144305
0.0004495803
0.00066188429
0.00051222924
0.00055552875
0.00055786039
0.00044615226
0.00058706236
0.00033691947
0.0006009527
0.00023034856
0.00060110413
0.0001284234
0.00058951256
3.2674645e-05
0.00056790572
-5.510591e-05
0.00053734152
-0.00013522989
0.0005013806
-0.00020693472
0.00046009726
-0.00026953912
0.00041506712
-0.00032299868
0.00036730045
-0.00036757571
0.00031838895
-0.00040329311
0.00026841477
-0.00043037449
0.00021886117
-0.0004493556
0.00016979809
-0.00046057891
0.00012182996
-0.00046467163
7.5320126e-05
-0.00046185859
3.0659054e-05
-0.00045267079
-1.1873323e-05
-0.00043775588
-5.1872417e-05
-0.00041741383
-8.9187724e-05
-0.00039211444
-0.00012367375
-0.00036220915
-0.00015528503
-0.00032826177
-0.00018364718
-0.00029072957
-0.00020890689
-0.0002500172
-0.00023090322
-0.00020640786
-0.00024962831
-0.00016054147
-0.00026531166
-0.00011323079
-0.00027657008
-0.00028751561
0.00012584489
-0.00038608684
0.00017693485
-0.00038189176
0.00022747479
-0.0003782467
0.00027727191
-0.00037289271
0.00032621373
-0.00036701356
0.00037424065
-0.00036022926
0.00042117982
-0.00035260532
0.00046703561
-0.00034433095
0.00051158554
-0.00033518659
0.00055487414
-0.0003255582
0.0005967174
-0.00031517681
0.00063714415
-0.00030439159
0.00067595502
-0.00029288984
0.00071316546
-0.00028105322
0.000748677
-0.000268718
0.00078235709
-0.00025591497
0.00081421154
-0.00024279452
0.00084410577
-0.00022927237
0.00087196844
-0.00021551792
0.00089773636
-0.00020164126
0.00092143986
-0.00018775032
0.00094296054
-0.0001739125
0.00096257469
-0.00016049635
0.0009802331
-0.00014738797
0.0009960471
-0.00013477383
0.00101041
-0.00012294753
0.0010235807
-0.00011191455
0.0010359797
-0.00010151728
0.0010478993
-9.1407142e-05
0.0010596468
-8.1293448e-05
0.0010713702
-7.0599014e-05
0.00108318
-5.8402733e-05
0.0010946747
-4.3695093e-05
0.0011054528
-2.554216e-05
0.0011148568
-2.8745985e-06
0.0011214221
2.5210816e-05
0.0011242469
5.8709611e-05
0.0011224871
9.7478218e-05
0.0011148614
0.00014231149
0.0010997075
0.0001932055
0.0010751022
0.00024979354
0.0010392357
0.00031065191
0.00099050379
0.00037335011
0.00092821438
0.00043410031
0.00085275338
0.00048835177
0.00076583141
0.00053091458
0.00067062305
0.00055675584
0.00057125566
0.00056161312
0.00047308399
0.00054217953
0.00038180955
0.00049674124
0.00030354008
0.00042529546
0.00024495855
0.00032844372
0.00021161665
0.00020969352
0.00020796001
7.6393364e-05
0.00023805616
-6.5500654e-05
0.00030220969
-0.00020323601
0.0003982128
-0.00032653462
0.00051842271
-0.00042045834
0.00065298601
-0.00047515094
0.00078958386
-0.00048416289
0.00091561484
-0.00044549863
0.0010186722
-0.00036268115
0.0010906687
-0.00024423056
0.0011258064
-0.00010093786
0.0011225822
5.5120511e-05
0.0010841145
0.0002051011
0.0010179088
0.00034028234
0.00092889402
0.00045864687
0.00082293533
0.00055553858
0.00070643416
0.00062872892
0.0005838339
0.00068046138
0.0004594065
0.00071149192
0.00033668155
0.0007236779
0.00021843177
0.00071935292
0.00010660981
0.00070133374
2.6443363e-06
0.00067187012
-9.2117326e-05
0.00063210246
-0.0001770273
0.00058628963
-0.00025201238
0.00053508094
-0.00031700135
0.00048005444
-0.00037191771
0.00042221647
-0.00041684503
0.00036331721
-0.00045278126
0.00030435156
-0.00047941213
0.00024549184
-0.00049736131
0.00018774663
-0.00050698908
0.00013145661
-0.00050917811
7.7509166e-05
-0.00050422757
2.5709452e-05
-0.00049257015
-2.3530797e-05
-0.00047492856
-6.9514285e-05
-0.00045177449
-0.0001123429
-0.00042349595
-0.00015195286
-0.00039062391
-0.00018815621
-0.00035346365
-0.00022080583
-0.00031265439
-0.00024971508
-0.00026863905
-0.00027491692
-0.00022183247
-0.00029643631
-0.00017254908
-0.00031459589
-0.00012189387
-0.00032722452
-0.00034020749
0.00012897592
-0.00043885345
0.00018101919
-0.00043393582
0.00023249221
-0.00042971917
0.00028320017
-0.00042360541
0.00033295388
-0.00041676583
0.00038174475
-0.00040901799
0.00042949618
-0.00040036036
0.00047601181
-0.00039084653
0.0005212059
-0.0003803775
0.0005651067
-0.00036946118
0.00060759576
-0.00035766871
0.00064850753
-0.00034530118
0.00068794269
-0.00033232311
0.00072554771
-0.00031865923
0.00076150626
-0.00030467615
0.00079568249
-0.00029008919
0.00082783076
-0.0002749419
0.00085807054
-0.0002595112
0.00088605235
-0.0002434975
0.00091190772
-0.00022749566
0.00093557591
-0.00021141948
0.0009571143
-0.00019545075
0.00097622699
-0.00017960695
0.00099332953
-0.00016448959
0.0010085887
-0.00015003452
0.0010223054
-0.00013666529
0.0010350359
-0.00012464356
0.0010470681
-0.00011354817
0.001059143
-0.00010348303
0.0010717157
-9.3866806e-05
0.0010850931
-8.3975528e-05
0.0010993962
-7.2706556e-05
0.0011143754
-5.8676292e-05
0.0011295181
-4.0685452e-05
0.0011440429
-1.7399066e-05
0.0011558956
1.33587e-05
0.0011647643
4.984052e-05
0.0011686298
9.3610497e-05
0.0011665916
0.00014434942
0.0011565991
0.00020320016
0.0011359725
0.00027042207
0.0011015078
0.00034511747
0.0010504886
0.0004243687
0.00098140277
0.00050318501
0.00089414067
0.00057561262
0.0007908671
0.00063418613
0.0006750722
0.00067254943
0.00055202979
0.00068465604
0.0004279754
0.00066623499
0.00031055713
0.00061415976
0.00020758448
0.00052826795
0.00012768591
0.00040834239
7.9428236e-05
0.00025795374
7.0376883e-05
8.5446494e-05
0.00010367311
-9.8797085e-05
0.00018321137
-0.00028277684
0.00030666061
-0.00044998613
0.00046548909
-0.0005792856
0.00064499005
-0.00065464717
0.00082835755
-0.00066753179
0.0009972276
-0.00061436659
0.0011354109
-0.00050086481
0.0012305288
-0.00033935015
0.0012749887
-0.0001453963
0.0012685583
6.1552227e-05
0.0012181015
0.00025556075
0.0011334854
0.00042489867
0.001023126
0.0005690047
0.00089562992
0.00068303561
0.00075679148
0.0007675698
0.000613821
0.00082343367
0.00047111488
0.00085419806
0.00033235016
0.00086244167
0.0002002925
0.00085140944
7.7096033e-05
0.00082452852
-3.5306443e-05
0.00078427157
-0.00013786225
0.000734658
-0.00022827453
0.00067670058
-0.00030705468
0.00061385937
-0.00037423188
0.00054723062
-0.00043068089
0.00047866585
-0.00047632556
0.00040896194
-0.00051153099
0.00033955462
-0.00053704358
0.00027100156
-0.0005534406
0.00020414214
-0.00056118374
0.00013919886
-0.00056087667
7.7202026e-05
-0.00055315354
1.7986927e-05
-0.00053868854
-3.7994147e-05
-0.00051788139
-9.0319876e-05
-0.00049127414
-0.00013894995
-0.00045940615
-0.00018382255
-0.00042294914
-0.00022461458
-0.00038224855
-0.00026150572
-0.00033777018
-0.00029419311
-0.00029000536
-0.00032268211
-0.00023956624
-0.00034687373
-0.00018646065
-0.00036770178
-0.00013202621
-0.00038165803
-0.00039674072
0.00013265589
-0.00049281135
0.00018573189
-0.00048701083
0.00023830851
-0.00048230112
0.00028994951
-0.00047524455
0.00034066584
-0.00046747972
0.00039036088
-0.00045871576
0.0004389084
-0.00044890686
0.00048625093
-0.00043818523
0.00053225575
-0.00042638379
0.00057678141
-0.00041398948
0.00061995681
-0.00040084232
0.00066148471
-0.00038682761
0.00070144457
-0.00037228449
0.00073981051
-0.00035702545
0.00077627938
-0.00034114334
0.00081083699
-0.0003246461
0.00084346504
-0.00030756961
0.00087399738
-0.00029004198
0.00090246656
-0.00027196593
0.00092861192
-0.00025364209
0.00095223712
-0.0002350449
0.00097330118
-0.00021651321
0.00099195952
-0.00019826454
0.001008408
-0.00018093909
0.0010227888
-0.00016441586
0.0010355802
-0.00014945567
0.0010471675
-0.0001362301
0.0010584719
-0.0001248533
0.00107025
-0.00011526264
0.0010833292
-0.00010694584
0.0010983014
-9.8945894e-05
0.0011154402
-8.984511e-05
0.0011344383
-7.7675892e-05
0.0011546474
-6.0894438e-05
0.0011750992
-3.7850189e-05
0.0011947664
-6.3091381e-06
0.0012101059
3.4500062e-05
0.0012210793
8.26358e-05
0.0012265781
0.00013884967
0.0012244852
0.00020529473
0.0012106779
0.00028423091
0.0011800323
0.00037576232
0.0011282574
0.00047614163
0.0010521663
0.00057927343
0.00095148925
0.00067628902
0.00082810146
0.00075757419
0.00068658192
0.00081406977
0.0005333338
0.00083790518
0.00037642449
0.00082314476
0.00022479934
0.0007657849
8.9140852e-05
0.00066392797
-1.9052233e-05
0.00051653648
-9.1795286e-05
0.00033069629
-0.00011462871
0.00010827853
-7.86247e-05
-0.00013480161
2.2495012e-05
-0.00038389573
0.00018162806
-0.0006091166
0.00039296274
-0.00079062564
0.00063509504
-0.00089677521
0.00088223003
-0.00091466365
0.0011095639
-0.00084169989
0.0012944931
-0.00068579551
0.0014189616
-0.00046381876
0.0014724751
-0.00019890703
0.0014567088
7.7320873e-05
0.0013859069
0.00032636172
0.0012746386
0.00053616523
0.0011347842
0.00070886086
0.00097766885
0.0008401518
0.00081208881
0.0009331498
0.0006439557
0.00099156811
0.00047902421
0.00101913
0.00032129527
0.0010201689
0.00017346274
0.0009992405
3.7113405e-05
0.00096087718
-8.5085589e-05
0.00090647018
-0.00019436203
0.00084393319
-0.00029089521
0.00077323173
-0.00037345464
0.00069641837
-0.00044294419
0.00061672063
-0.00050020988
0.00053593068
-0.00054563383
0.00045438451
-0.0005799079
0.00037382774
-0.00060377366
0.00029486665
-0.00061776321
0.00021813048
-0.00062311918
0.00014455344
-0.00061993369
7.4016077e-05
-0.00060893288
6.9868506e-06
-0.0005909391
-5.598733e-05
-0.00056646411
-0.00011479582
-0.00053605725
-0.00016935593
-0.00050032634
-0.00021955417
-0.00045975075
-0.00026518971
-0.00041490258
-0.00030635607
-0.00036623713
-0.00034285767
-0.00031423399
-0.00037468479
-0.00025956669
-0.00040154183
-0.00020226354
-0.00042500498
-0.00014361649
-0.00044030606
-0.00045749608
0.00013687093
-0.00054809061
0.00019114331
-0.00054128696
0.00024490045
-0.0005360549
0.00029768221
-0.00052802462
0.00034947202
-0.00051927272
0.00040012558
-0.00050936765
0.0004495895
-0.00049836649
0.00049772127
-0.00048631812
0.0005445709
-0.00047323577
0.00058993201
-0.000459349
0.00063378029
-0.00044468975
0.00067611382
-0.00042916369
0.00071678299
-0.00041295522
0.00075572971
-0.00039597149
0.00079284128
-0.00037825503
0.00082811566
-0.0003599213
0.00086127749
-0.00034073102
0.00089231007
-0.00032107424
0.00092116899
-0.00030082608
0.00094744488
-0.00027991879
0.0009710842
-0.00025868319
0.00099207842
-0.0002375068
0.0010103374
-0.00021652472
0.001025719
-0.00019632108
0.001038758
-0.00017745309
0.0010498388
-0.00016053556
0.0010598187
-0.00014621221
0.0010696833
-0.00013472018
0.0010804555
-0.0001260341
0.0010935691
-0.00012005689
0.0011100253
-0.0001154006
0.0011302852
-0.00011010576
0.0011538741
-0.0001012664
0.0011802681
-8.7288139e-05
0.0012086546
-6.6235297e-05
0.0012363901
-3.4046101e-05
0.0012602019
1.0686317e-05
0.0012793561
6.3481688e-05
0.0012950214
0.00012318322
0.0013045824
0.00019573284
0.0013021461
0.00028666695
0.0012796629
0.000398244
0.001229628
0.00052617616
0.001147111
0.00066179022
0.0010307009
0.00079270025
0.00088290704
0.00090536873
0.00070944364
0.00098753329
0.00051832152
0.001029028
0.00031921353
0.0010222539
0.00012345313
0.00096154476
-5.6233336e-05
0.00084361247
-0.00020803339
0.00066833723
-0.00031273037
0.00043539487
-0.00035569055
0.00015124127
-0.00032296846
-0.00016752261
-0.00020271029
-0.00050415829
8.3345106e-06
-0.00082016195
0.00029197424
-0.0010742624
0.00062124271
-0.001226042
0.00095813309
-0.0012515536
0.0012646987
-0.0011482641
0.0015116544
-0.00093275163
0.0016737698
-0.00062593365
0.0017337391
-0.00025887749
0.0016981681
0.00011289107
0.0015947986
0.00042973146
0.001444393
0.0006865726
0.0012638497
0.0008894059
0.0010686627
0.001035339
0.00086889489
0.0011329183
0.0006709659
0.0011894979
0.00048010205
0.0012099933
0.00030067252
0.0011995982
0.00013540656
0.0011645074
-1.3469117e-05
0.0011097531
-0.00014856599
0.001041567
-0.0002658944
0.00096126247
-0.00036643633
0.00087377502
-0.0004527638
0.00078274641
-0.00052399274
0.00068794959
-0.00058133713
0.00059327469
-0.0006260217
0.00049906796
-0.00065865378
0.0004064579
-0.00068025356
0.00031646458
-0.0006916452
0.00022952136
-0.00069349234
0.00014640029
-0.00068671333
6.723591e-05
-0.00067166844
-8.0587032e-06
-0.00064948649
-7.8170531e-05
-0.00062084907
-0.00014343334
-0.00058613107
-0.00020407517
-0.00054593453
-0.00025975096
-0.00050080491
-0.00031031959
-0.00045129259
-0.0003558684
-0.00039801789
-0.00039613456
-0.0003413873
-0.00043131549
-0.00028192944
-0.00046100009
-0.00022014808
-0.00048678699
-0.00015650531
-0.00050394759
-0.0005227591
0.00014172173
-0.00060481467
0.00019729053
-0.00059685222
0.00025234026
-0.00059110394
0.00030636467
-0.00058205267
0.00035928851
-0.00057219489
0.00041108121
-0.00056115657
0.00046156717
-0.00054885389
0.00051072442
-0.00053547756
0.00055844408
-0.00052095391
0.0006045898
-0.00050549444
0.00064931254
-0.00048941601
0.00069230296
-0.00047215693
0.00073376271
-0.00045441544
0.00077350913
-0.00043571893
0.00081132804
-0.00041607579
0.00084731123
-0.00039590517
0.00088134201
-0.000374762
0.00091307898
-0.00035281234
0.00094237932
-0.0003301272
0.00096912931
-0.00030666821
0.00099297202
-0.00028252582
0.0010137142
-0.00025825036
0.0010312502
-0.00023406131
0.0010456293
-0.00021069852
0.0010569924
-0.00018881505
0.0010659065
-0.00016945175
0.0010731494
-0.00015345882
0.0010801923
-0.00014176367
0.0010889353
-0.0001347742
0.0011011988
-0.00013231811
0.0011187184
-0.00013292127
0.001142645
-0.00013403439
0.0011716394
-0.00013026158
0.001205712
-0.00012136045
0.0012440439
-0.00010456583
0.0012816892
-7.1692199e-05
0.0013144997
-2.2126886e-05
0.0013421828
3.5799439e-05