/*--------------------------------*- C++ -*----------------------------------*\
  =========                 |
  \\      /  F ield         | OpenFOAM: The Open Source CFD Toolbox
   \\    /   O peration     | Website:  https://openfoam.org
    \\  /    A nd           | Version:  9
     \\/     M anipulation  |
\*---------------------------------------------------------------------------*/
FoamFile
{
    format      ascii;
    class       surfaceScalarField;
    location    "0.21";
    object      alphaPhi0.phase1;
}
// * * * * * * * * * * * * * * * * * * * * * * * * * * * * * * * * * * * * * //

dimensions      [0 3 -1 0 0 0 0];

internalField   nonuniform List<scalar> 
19800
(
1.4377736e-114
-6.1761343e-112
8.1047507e-112
-1.5312041e-111
3.9429976e-109
-5.629969e-109
1.3521636e-106
-1.9182971e-106
3.6965865e-104
-5.1754156e-104
8.5351488e-102
-1.178794e-101
1.7187476e-99
-2.3446803e-99
3.081678e-97
-4.1583877e-97
5.0845317e-95
-6.7674847e-95
7.640972e-93
-1.0090759e-92
1.0655748e-90
-1.3941921e-90
1.350427e-88
-1.7618412e-88
1.4528812e-86
-1.9205724e-86
7.3776938e-85
-1.1744022e-84
1.2866959e-83
-3.1997444e-83
8.4086361e-83
-3.8332295e-82
3.6380999e-82
-2.0695566e-81
1.4982867e-81
-7.9773083e-81
7.1221658e-81
-2.3776718e-81
3.5652339e-79
-3.7415419e-80
3.0992838e-77
-3.1291394e-78
4.6989183e-75
-4.479483e-75
8.5865118e-73
-8.7224901e-73
1.3735761e-70
-1.3895519e-70
2.164271e-68
-2.1708994e-68
3.9095271e-66
-3.9011053e-66
7.0291017e-64
-6.9559666e-64
1.2714155e-61
-1.2485253e-61
9.8969882e-60
-9.2303034e-60
9.3875378e-59
-2.6817743e-59
4.4135162e-58
-1.4451226e-59
4.1174543e-57
-1.6779555e-58
1.1752555e-56
-1.7119635e-58
2.9938948e-56
-2.0283652e-58
1.0631415e-54
3.8991362e-57
3.2891037e-53
3.5759964e-55
9.0137805e-52
1.6923046e-53
2.1866552e-50
6.0655399e-52
4.6389328e-49
1.7679032e-50
8.4506322e-48
4.2486653e-49
1.2887071e-46
8.371714e-48
1.6149506e-45
1.3421048e-46
1.6612469e-44
1.7615543e-45
1.388234e-43
1.8946484e-44
8.9131618e-43
1.6014142e-43
4.1878202e-42
1.0247328e-42
1.4544846e-41
5.1198024e-42
3.5812418e-41
2.0371201e-41
5.0028189e-41
6.1151067e-41
3.8544515e-42
1.3390013e-40
-4.4770149e-41
1.3347952e-40
-3.3199233e-41
6.0856396e-41
-1.3262052e-41
1.986803e-41
-3.5397757e-42
4.8104002e-42
-6.3914043e-43
8.7928654e-43
-6.7484538e-44
1.1486578e-43
-3.4590318e-45
9.0558318e-45
-7.5952835e-47
3.5613511e-46
-6.6087782e-49
6.1182048e-48
-3.6218612e-51
4.1959905e-50
-3.9123909e-54
1.796904e-52
-2.9531943e-57
1.4850327e-55
-8.758537e-61
8.2691578e-59
-2.9957721e-61
2.2544028e-62
-1.3175845e-60
6.9401915e-63
-4.1122584e-60
9.1177087e-63
-8.4982538e-59
-1.7342107e-61
-3.5542024e-58
-4.4707946e-60
-1.8169251e-58
-1.4350683e-59
-3.283787e-59
-6.7964794e-60
-3.1602516e-60
-4.7290658e-60
-7.3744705e-62
-2.6787067e-60
-9.2476339e-64
-6.9497612e-62
-7.325448e-66
-9.0841201e-64
-3.5963444e-68
-7.3498742e-66
-1.5409676e-70
-3.6360709e-68
-8.5439971e-73
-1.5673527e-70
-4.248873e-75
-8.7511955e-73
-2.0495853e-77
-4.3796186e-75
-1.0523856e-79
-2.136123e-77
-4.7153878e-81
-1.7555088e-79
-1.814076e-81
-3.751956e-80
-4.7390429e-82
-1.0364774e-80
-1.0768092e-82
-2.6738358e-81
-1.6514813e-83
-4.9477115e-82
-9.8314586e-85
-4.2162624e-83
-2.0715972e-86
-1.605677e-84
-2.0313314e-88
-2.7744973e-86
-1.6092771e-90
-2.654482e-88
-1.121303e-92
-2.0935866e-90
-6.7680311e-95
-1.4497208e-92
-3.6559175e-97
-8.7701505e-95
-1.7647681e-99
-4.7602044e-97
-7.6151521e-102
-2.3182457e-99
-2.8892753e-104
-1.0115553e-101
-9.3074954e-107
-3.8840508e-104
-2.4185702e-109
-1.2684397e-106
-4.5195059e-112
-3.3313056e-109
-8.4115227e-115
-8.3984843e-112
-3.3022076e-112
3.1747089e-112
-1.6555862e-111
5.218833e-109
-6.5525567e-109
2.5285198e-106
-2.9983389e-106
8.6202843e-104
-9.8786021e-104
2.342254e-101
-2.6227478e-101
5.3675671e-99
-5.9109067e-99
1.0715583e-96
-1.1652032e-96
1.9028537e-94
-2.0486432e-94
3.1070215e-92
-3.3186156e-92
4.6167191e-90
-4.8981499e-90
6.3622709e-88
-6.7121079e-88
7.9626007e-86
-8.3573729e-86
8.4513607e-84
-8.8238436e-84
4.1944615e-82
-4.3180581e-82
6.9093601e-81
-6.8337577e-81
3.9518051e-80
-3.4783051e-80
1.5402441e-79
-1.2343577e-79
6.1291278e-79
-4.6287814e-79
2.503595e-78
-5.0626696e-79
1.1034902e-76
-1.9969205e-77
1.3561223e-74
-8.8818733e-75
2.5762336e-72
-2.5541949e-72
4.7862823e-70
-4.7662034e-70
7.7988653e-68
-7.7451825e-68
1.2649752e-65
-1.2538053e-65
2.384633e-63
-2.3608366e-63
4.5301901e-61
-4.4778291e-61
8.8416454e-59
-8.7400569e-59
7.4899446e-57
-7.3520677e-57
6.1673765e-56
-5.3216436e-56
1.8693502e-55
-1.2165378e-55
3.5087692e-54
-3.2595935e-54
2.6172335e-54
-9.9358694e-56
1.0551722e-53
-5.6516998e-56
3.6449306e-52
5.1924753e-54
1.1025601e-50
3.8941835e-52
2.9531413e-49
1.7441037e-50
6.9924234e-48
6.0145256e-49
1.4425694e-46
1.6909168e-47
2.5484555e-45
3.9223449e-46
3.7725621e-44
7.4738978e-45
4.584288e-43
1.1584627e-43
4.5015012e-42
1.451164e-42
3.4850871e-41
1.450681e-41
1.9668511e-40
1.0932942e-40
7.0102971e-40
5.5460783e-40
1.4415055e-39
1.7471426e-39
1.9177733e-39
3.7577293e-39
1.8278235e-39
7.4390856e-39
1.2030764e-40
1.2199791e-38
-1.6426875e-39
1.2212803e-38
-1.8224165e-39
7.4702735e-39
-1.3652913e-39
3.7681218e-39
-6.4347928e-40
1.7080914e-39
-1.5630748e-40
5.1752808e-40
-1.794595e-41
8.6439152e-41
-9.9382628e-43
7.2963904e-42
-2.4496979e-44
3.1009525e-43
-2.7766134e-46
5.9920602e-45
-1.2941903e-48
5.3609438e-47
-1.6245781e-51
1.9576911e-49
-7.0932325e-55
1.8918393e-52
-2.4048796e-58
6.1348198e-56
-1.0414075e-58
2.0690589e-59
-4.1077861e-58
7.7666917e-60
-9.0552417e-57
1.0219418e-58
-8.2344809e-56
-1.3996308e-58
-2.3480643e-55
-5.7053776e-57
-1.0936083e-55
-1.2237732e-55
-2.284605e-56
-8.465569e-56
-2.3546137e-57
-2.0153768e-56
-5.073255e-59
-2.2810677e-57
-5.9380442e-61
-4.9752166e-59
-4.4666254e-63
-5.8576879e-61
-2.1041514e-65
-4.4285529e-63
-8.7147564e-68
-2.0922765e-65
-4.73479e-70
-8.6719903e-68
-2.3236282e-72
-4.7254978e-70
-1.11281e-74
-2.3246669e-72
-5.5258174e-77
-1.1156822e-74
-1.5451989e-78
-5.4412372e-77
-7.1363868e-79
-9.4125315e-79
-1.999627e-79
-5.5693149e-79
-5.0138961e-80
-1.6155541e-79
-8.7455321e-81
-4.4196968e-80
-5.5133871e-82
-8.6396617e-81
-1.1898507e-83
-5.6738501e-82
-1.1834776e-85
-1.2426886e-83
-9.4981586e-88
-1.2431658e-85
-6.7008132e-90
-1.0030675e-87
-4.0914018e-92
-7.118318e-90
-2.2337933e-94
-4.3740523e-92
-1.0888284e-96
-2.40585e-94
-4.739764e-99
-1.1832764e-96
-1.8121865e-101
-5.2100293e-99
-5.8750956e-104
-2.0223909e-101
-1.5349895e-106
-6.6962088e-104
-2.8816255e-109
-1.8054534e-106
-1.6965398e-112
-3.5747577e-109
-8.7724697e-112
1.2968114e-109
-6.2048933e-109
2.1269266e-106
-3.2586693e-106
1.0271051e-103
-1.3283076e-103
3.486112e-101
-4.2917959e-101
9.4244108e-99
-1.1214421e-98
2.1461772e-96
-2.4917106e-96
4.253343e-94
-4.8465015e-94
7.4913036e-92
-8.4107513e-92
1.2122501e-89
-1.3450261e-89
1.7840905e-87
-1.9598614e-87
2.4342607e-85
-2.651675e-85
3.0155926e-83
-3.26011e-83
3.1676406e-81
-3.3989399e-81
1.555781e-79
-1.6412038e-79
2.5355555e-78
-2.561543e-78
1.4342079e-77
-1.2795473e-77
5.540475e-77
-4.4667568e-77
2.1523376e-76
-1.6927412e-76
7.3138541e-76
-2.014133e-76
3.1981186e-74
-6.8645241e-75
4.8031223e-72
-4.5210986e-72
9.3869061e-70
-9.364362e-70
1.7734728e-67
-1.7668564e-67
2.9608038e-65
-2.9383132e-65
4.9681418e-63
-4.9168961e-63
9.810677e-61
-9.6905474e-61
1.9827621e-58
-1.9543668e-58
4.2010899e-56
-4.1424171e-56
3.9991422e-54
-3.9201831e-54
3.9131415e-53
-3.4326015e-53
1.4465764e-52
-1.0203483e-52
3.5922692e-51
-3.3723267e-51
1.9819255e-51
-1.3618364e-52
2.489694e-51
-1.8996836e-53
8.2387636e-50
1.5972451e-51
2.4538398e-48
1.1506074e-49
6.450075e-47
5.0399588e-48
1.4943419e-45
1.6993265e-46
3.0102064e-44
4.6618623e-45
5.1827268e-43
1.053581e-43
7.4680586e-42
1.9540492e-42
8.8299184e-41
2.9471193e-41
8.4387267e-40
3.5913535e-40
6.3732719e-39
3.4999204e-39
3.5427782e-38
2.5939911e-38
1.2680858e-37
1.3170096e-37
2.6620884e-37
4.230756e-37
3.5926193e-37
9.2938914e-37
3.4339789e-37
1.8401277e-36
2.3665042e-38
3.1388025e-36
-3.0789229e-37
3.1414783e-36
-3.4055361e-37
1.8464459e-36
-2.5181488e-37
9.3035646e-37
-1.1646301e-37
4.1338199e-37
-2.8360547e-38
1.2303827e-37
-3.3880466e-39
2.0679037e-38
-2.038478e-40
1.8196526e-39
-5.7543287e-42
8.404724e-41
-7.7677852e-44
1.8589544e-42
-4.4344106e-46
1.9795479e-44
-8.2468232e-49
8.8537194e-47
-6.6322172e-52
1.2681308e-49
-3.5333293e-55
7.5955221e-53
-2.4226203e-55
4.7249435e-56
-1.1519018e-54
2.5130005e-56
-1.4429593e-53
2.6223699e-55
-7.7276538e-53
-1.8266368e-55
-2.5058117e-52
-6.7371847e-54
-8.8648451e-53
-1.5770871e-52
-1.4571794e-53
-7.224683e-53
-1.2705769e-54
-1.3024865e-53
-2.4269503e-56
-1.2291338e-54
-2.6038716e-58
-2.3742119e-56
-1.8361616e-60
-2.5623004e-58
-8.2413102e-63
-1.8171358e-60
-3.2927099e-65
-8.1870759e-63
-1.7430078e-67
-3.276365e-65
-8.4055292e-70
-1.7413655e-67
-3.9825319e-72
-8.4267923e-70
-1.9649643e-74
-4.0054928e-72
-5.4299659e-76
-1.9420855e-74
-2.5181493e-76
-3.225701e-76
-7.116746e-77
-1.9845213e-76
-1.7993695e-77
-5.7888927e-77
-3.1732577e-78
-1.6084474e-77
-2.0223648e-79
-3.2029724e-78
-4.4102428e-81
-2.1333428e-79
-4.4330549e-83
-4.7351787e-81
-3.5953985e-85
-4.798123e-83
-2.562623e-87
-3.9219346e-85
-1.580003e-89
-2.8195455e-87
-8.7055947e-92
-1.7548561e-89
-4.2793345e-94
-9.7756558e-92
-1.8770009e-96
-4.8697729e-94
-7.2239042e-99
-2.172359e-96
-2.3546366e-101
-8.5499502e-99
-6.1790909e-104
-2.8742571e-101
-1.1645695e-106
-7.8931268e-104
-6.8710819e-110
-1.7835736e-106
-3.2844467e-109
3.8670328e-107
-2.2936688e-106
6.3437629e-104
-1.2046364e-103
3.052857e-101
-4.2699745e-101
1.0319855e-98
-1.3582594e-98
2.7761771e-96
-3.5008248e-96
6.28377e-94
-7.6755223e-94
1.2366315e-91
-1.4743433e-91
2.1610593e-89
-2.5274611e-89
3.4673465e-87
-3.9930901e-87
5.0568844e-85
-5.7484269e-85
6.8348577e-83
-7.6845389e-83
8.3858699e-81
-9.3358546e-81
8.7242663e-79
-9.6203557e-79
4.2433891e-77
-4.5902114e-77
6.8436875e-76
-7.0849833e-76
3.8322902e-75
-3.5062311e-75
1.4694325e-74
-1.2156327e-74
5.6168481e-74
-4.5943686e-74
1.7071293e-73
-5.9851267e-74
7.4719007e-72
-2.0276379e-72
1.2785468e-69
-1.2635165e-69
2.5322328e-67
-2.5329426e-67
4.8702401e-65
-4.8551275e-65
8.3338714e-63
-8.267941e-63
1.4484913e-60
-1.4320675e-60
2.9991636e-58
-2.9570412e-58
6.4574836e-56
-6.350426e-56
1.4881454e-53
-1.4645143e-53
1.5927427e-51
-1.5600292e-51
1.8483775e-50
-1.6433222e-50
8.3798718e-50
-6.2923253e-50
2.7852694e-48
-2.63453e-48
1.2579917e-48
-1.4856731e-49
7.139085e-49
-1.0580908e-50
1.4688247e-47
3.2526718e-49
4.3127538e-46
2.4004141e-47
1.1099633e-44
1.0424737e-45
2.5106291e-43
3.4531676e-44
4.9271394e-42
9.2640433e-43
8.2514864e-41
2.0415525e-41
1.1549514e-39
3.683308e-40
1.3246078e-38
5.3935572e-39
1.2277015e-37
6.3800572e-38
9.0156771e-37
6.0480349e-37
4.9154079e-36
4.3926451e-36
1.751431e-35
2.2156127e-35
3.7002549e-35
7.158336e-35
4.992683e-35
1.5771375e-34
4.7300046e-35
3.081178e-34
3.3709584e-36
5.3471202e-34
-4.2310843e-35
5.3516153e-34
-4.7225028e-35
3.0906252e-34
-3.495922e-35
1.5771538e-34
-1.6089248e-35
6.9935365e-35
-3.9603891e-36
2.0726506e-35
-4.9394041e-37
3.5293137e-36
-3.2318269e-38
3.2449513e-37
-1.0449942e-39
1.628929e-38
-1.6691135e-41
4.1211478e-40
-1.1077908e-43
5.1822429e-42
-3.3116525e-46
2.6913349e-44
-5.0067274e-49
6.1851409e-47
-8.920252e-52
6.9442287e-50
-4.0600454e-52
1.2431527e-52
-2.1318678e-51
4.7778756e-53
-2.2848222e-50
4.3468856e-52
-5.6957484e-50
-4.1285858e-52
-2.0308498e-49
-6.2278694e-51
-5.3515575e-50
-1.4582134e-49
-6.9358166e-51
-4.5300871e-50
-5.1144667e-52
-6.2651462e-51
-8.6519342e-54
-4.9427075e-52
-8.504902e-56
-8.4478691e-54
-5.6128546e-58
-8.3533644e-56
-2.3970785e-60
-5.5476489e-58
-9.2267176e-63
-2.3803524e-60
-4.758687e-65
-9.1839326e-63
-2.2517332e-67
-4.7607807e-65
-1.0542827e-69
-2.2628573e-67
-5.1677894e-72
-1.0639729e-69
-1.4096224e-73
-5.1359417e-72
-6.5795972e-74
-8.6153839e-74
-1.8690037e-74
-5.339919e-74
-4.7577241e-75
-1.5606074e-74
-8.4729736e-76
-4.363184e-75
-5.4549218e-77
-8.7680905e-76
-1.2017989e-78
-5.9031227e-77
-1.2200397e-80
-1.3264552e-78
-9.9927381e-83
-1.3602745e-80
-7.1913798e-85
-1.1254072e-82
-4.4752826e-87
-8.1897389e-85
-2.4874881e-89
-5.1592873e-87
-1.2326409e-91
-2.9088041e-89
-5.445754e-94
-1.4665832e-91
-2.1090317e-96
-6.6231806e-94
-6.909573e-99
-2.6396851e-96
-1.8207503e-101
-8.9422731e-99
-3.4444349e-104
-2.546549e-101
-2.0312009e-107
-6.5380142e-104
-1.2035536e-106
9.0910991e-105
-6.4464858e-104
1.4919685e-101
-3.3862453e-101
7.1621616e-99
-1.1972081e-98
2.409543e-96
-3.266351e-96
6.4528183e-94
-8.5925488e-94
1.4519076e-91
-1.8620997e-91
2.8376644e-89
-3.5337368e-89
4.9209866e-87
-5.9868718e-87
7.8296641e-85
-9.3483138e-85
1.1317445e-82
-1.3300501e-82
1.515504e-80
-1.7573076e-80
1.8418533e-78
-2.1102501e-78
1.8980078e-76
-2.1497912e-76
9.1431176e-75
-1.0137939e-74
1.4600165e-73
-1.5483602e-73
8.0962998e-73
-7.5941177e-73
3.0815097e-72
-2.6151881e-72
1.163517e-71
-9.8075645e-72
3.3031275e-71
-1.4085009e-71
1.4902734e-69
-1.0949868e-69
2.6954957e-67
-2.6975331e-67
5.4001513e-65
-5.413329e-65
1.0565689e-62
-1.0543506e-62
1.8533639e-60
-1.8388244e-60
3.3343524e-58
-3.2945926e-58
7.2338797e-56
-7.1238336e-56
1.6577049e-53
-1.6275886e-53
4.1493438e-51
-4.0781663e-51
4.9779164e-49
-4.8743788e-49
6.802159e-48
-6.1137767e-48
3.7670803e-47
-2.9659811e-47
1.67159e-45
-1.5902339e-45
8.6835411e-46
-1.3200057e-46
3.7225522e-46
-1.081383e-47
2.1505389e-45
5.1876965e-47
6.2321564e-44
3.8030745e-45
1.5681645e-42
1.6569665e-43
3.4547588e-41
5.4112857e-42
6.5912864e-40
1.4206408e-40
1.071346e-38
3.0509976e-39
1.4532899e-37
5.3497286e-38
1.6129906e-36
7.5983705e-37
1.4459769e-35
8.7063566e-36
1.0291737e-34
8.0065651e-35
5.4841033e-34
5.6836742e-34
1.9363324e-33
2.8375281e-33
4.0907638e-33
9.1684958e-33
5.4883096e-33
2.0148395e-32
5.1361735e-33
3.875726e-32
3.7751865e-34
6.7886982e-32
-4.5822189e-33
6.7945816e-32
-5.1795436e-33
3.886487e-32
-3.8590902e-33
2.0127779e-32
-1.778172e-33
8.9534262e-33
-4.4409987e-34
2.656004e-33
-5.7855004e-35
4.595055e-34
-4.1239236e-36
4.414651e-35
-1.5220836e-37
2.4120251e-36
-2.8339642e-39
6.9500124e-38
-2.3538207e-41
1.0160692e-39
-9.4663179e-44
6.5845262e-42
-3.021407e-46
2.0283247e-44
-1.8581825e-48
4.7889987e-47
-4.331718e-49
2.4835016e-49
-2.3595439e-48
5.6139869e-50
-2.8588653e-47
4.5350072e-49
-4.0790517e-47
-8.5207208e-49
-1.2739758e-46
-4.9068711e-48
-2.496013e-47
-1.0002747e-46
-2.576134e-48
-2.1726368e-47
-1.6151324e-49
-2.3473979e-48
-2.4275653e-51
-1.5600669e-49
-2.1893156e-53
-2.3672435e-51
-1.3534122e-55
-2.1474176e-53
-5.4999218e-58
-1.3446954e-55
-2.0434121e-60
-5.4914848e-58
-1.0264849e-62
-2.0356735e-60
-4.7689106e-65
-1.0304215e-62
-2.2066729e-67
-4.8175787e-65
-1.0742995e-69
-2.2378942e-67
-2.8947037e-71
-1.0736777e-69
-1.3592751e-71
-1.8204908e-71
-3.8804239e-72
-1.1358222e-71
-9.9486641e-73
-3.3248833e-72
-1.7888791e-73
-9.3569615e-73
-1.1630457e-74
-1.8971243e-73
-2.5873986e-76
-1.2905591e-74
-2.6523989e-78
-2.9341618e-76
-2.193637e-80
-3.0443867e-78
-1.5937941e-82
-2.5487282e-80
-1.0009654e-84
-1.8768975e-82
-5.6117209e-87
-1.1963936e-84
-2.8030347e-89
-6.824928e-87
-1.2471603e-91
-3.4811821e-89
-4.8587885e-94
-1.5900019e-91
-1.5995889e-96
-6.271431e-94
-4.2367554e-99
-2.1203829e-96
-8.0345771e-102
-7.0815167e-99
-4.7350864e-105
-1.8228643e-101
-3.3541409e-104
1.7658109e-102
-1.4593433e-101
2.8987377e-99
-7.6669538e-99
1.388027e-96
-2.7036337e-96
4.6540413e-94
-7.1871883e-94
1.2388188e-91
-1.6782475e-91
2.7720292e-89
-3.7230874e-89
5.381079e-87
-6.9894536e-87
9.2604947e-85
-1.1706539e-84
1.461168e-82
-1.8069292e-82
2.093163e-80
-2.5411418e-80
2.7769058e-78
-3.3187116e-78
3.3428505e-76
-3.9394517e-76
3.4118598e-74
-3.9676683e-74
1.6276197e-72
-1.8492364e-72
2.5729513e-71
-2.7944298e-71
1.4123986e-70
-1.3577875e-70
5.3341093e-70
-4.6425094e-70
1.9933792e-69
-1.7271578e-69
5.4163623e-69
-2.7230114e-69
2.5435594e-67
-2.2464685e-67
4.6814827e-65
-4.7188151e-65
9.4670004e-63
-9.5443986e-63
1.882453e-60
-1.8906198e-60
3.3817642e-58
-3.3624619e-58
6.2869421e-56
-6.2221424e-56
1.4250001e-53
-1.4133845e-53
3.4661877e-51
-3.4263804e-51
9.3935927e-49
-9.2699017e-49
1.2580683e-46
-1.2322447e-46
2.0039678e-45
-1.8169629e-45
1.3442491e-44
-1.0968107e-44
7.874325e-43
-7.5247457e-43
5.6422747e-43
-8.5338867e-44
2.2862079e-43
-1.460285e-44
2.7454948e-43
7.99323e-45
7.5949131e-42
4.77868e-43
1.8736619e-40
2.1137398e-41
4.0089802e-39
6.829162e-40
7.4150437e-38
1.7555812e-38
1.1669923e-36
3.6725247e-37
1.5302931e-35
6.2510228e-36
1.6389518e-34
8.5918989e-35
1.4161558e-33
9.512054e-34
9.736003e-33
8.4621359e-33
5.052993e-32
5.8521991e-32
1.7611706e-31
2.8824196e-31
3.7049411e-31
9.2810872e-31
4.9267254e-31
2.0273252e-30
4.545454e-31
3.8342128e-30
3.4231991e-32
6.7444879e-30
-4.0458478e-31
6.7505833e-30
-4.6394068e-31
3.8436834e-30
-3.489739e-31
2.0229669e-30
-1.6161447e-31
9.0579835e-31
-4.1057948e-32
2.6986093e-31
-5.5916885e-33
4.7529927e-32
-4.3486197e-34
4.7744362e-33
-1.8306851e-35
2.8430066e-34
-3.9213686e-37
9.3135357e-36
-4.0474531e-39
1.5604871e-37
-2.1071945e-41
1.251833e-39
-9.9282422e-44
4.9654762e-42
-9.8684087e-46
1.7193095e-44
-4.1650089e-46
1.6272577e-46
-2.1508888e-45
5.5671419e-47
-2.3868918e-44
3.2772104e-46
-2.5195434e-44
-1.1926866e-45
-6.2588567e-44
-3.623684e-45
-9.2033037e-45
-5.2233045e-44
-7.668414e-46
-8.1771494e-45
-4.1207141e-47
-7.0377777e-46
-5.5324512e-49
-3.979864e-47
-4.5924438e-51
-5.3911222e-49
-2.6647506e-53
-4.5017559e-51
-1.0340781e-55
-2.654562e-53
-3.7103535e-58
-1.0343561e-55
-1.8176043e-60
-3.7248586e-58
-8.3014331e-63
-1.833625e-60
-3.8006774e-65
-8.4147397e-63
-1.8403562e-67
-3.8852859e-65
-4.9017857e-69
-1.8498281e-67
-2.3169901e-69
-3.1698996e-69
-6.6503354e-70
-1.9926871e-69
-1.7178381e-70
-5.845229e-70
-3.1198482e-71
-1.6564595e-70
-2.0489758e-72
-3.3897331e-71
-4.6034681e-74
-2.330517e-72
-4.7655258e-76
-5.3612515e-74
-3.9799376e-78
-5.627793e-76
-2.9194468e-80
-4.7673286e-78
-1.8504584e-82
-3.5523856e-80
-1.0463844e-84
-2.2912509e-82
-5.2676975e-87
-1.3217101e-84
-2.3595933e-89
-6.7646534e-87
-9.2481645e-92
-3.0418453e-89
-3.064735e-94
-1.1977871e-91
-8.1447575e-97
-4.7340596e-94
-1.5482099e-99
-1.5865062e-96
-9.1189139e-103
-4.0942622e-99
-7.5304924e-102
2.9232376e-100
-2.7649133e-99
4.8005427e-97
-1.4527861e-96
2.2930842e-94
-5.1097884e-94
7.6641035e-92
-1.353915e-91
2.0296639e-89
-2.9757463e-89
4.5102429e-87
-6.0943177e-87
8.6983873e-85
-1.1674178e-84
1.4855071e-82
-1.9491223e-82
2.3240501e-80
-2.9749386e-80
3.2993672e-78
-4.1351866e-78
4.3357276e-76
-5.3377556e-76
5.1686595e-74
-6.2626081e-74
5.2235498e-72
-6.2346936e-72
2.4667943e-70
-2.8711353e-70
3.8584331e-69
-4.2908527e-69
2.0953749e-68
-2.0640817e-68
7.8475441e-68
-7.0027863e-68
2.9036383e-67
-2.5840316e-67
7.6405989e-67
-4.4382993e-67
3.7049674e-65
-3.5002894e-65
6.8752485e-63
-6.9395588e-63
1.4028986e-60
-1.416342e-60
2.8289114e-58
-2.8456319e-58
5.1889929e-56
-5.1947677e-56
9.9424214e-54
-9.9044016e-54
2.3507932e-51
-2.3377602e-51
6.0459895e-49
-5.9952519e-49
1.7661738e-46
-1.7491675e-46
2.6221434e-44
-2.5702534e-44
4.8149656e-43
-4.3966188e-43
3.8673426e-42
-3.2412749e-42
3.0598843e-40
-2.9395309e-40
3.2621361e-40
-5.543386e-41
1.1215151e-40
-1.388536e-41
5.3587009e-41
9.5622709e-43
7.9750268e-40
4.9237863e-41
1.9306109e-38
2.2210867e-39
4.000625e-37
7.1337505e-38
7.1522194e-36
1.796361e-36
1.0865874e-34
3.657973e-35
1.3734229e-33
6.0352099e-34
1.4152776e-32
8.0132929e-33
1.1743066e-31
8.5457932e-32
7.7667103e-31
7.3279663e-31
3.9111134e-30
4.9210164e-30
1.3413415e-29
2.384372e-29
2.8016253e-29
7.6300958e-29
3.684252e-29
1.6529927e-28
3.346122e-29
3.0704941e-28
2.5780783e-30
5.4033011e-28
-2.9708303e-29
5.4086396e-28
-3.4613669e-29
3.0772515e-28
-2.634513e-29
1.6475242e-28
-1.2293108e-29
7.4412846e-29
-3.1822498e-30
2.2311223e-29
-4.536927e-31
4.0058131e-30
-3.8556756e-32
4.2117145e-31
-1.8411937e-33
2.7356752e-32
-4.4665256e-35
1.0127556e-33
-5.50407e-37
1.9125116e-35
-3.7794649e-39
1.8221511e-37
-2.480562e-41
9.469287e-40
-3.5286801e-43
4.5363843e-42
-3.2275463e-43
8.0066864e-44
-1.7695043e-42
4.6980425e-44
-1.5146503e-41
1.5362852e-43
-1.3499814e-41
-1.1582537e-42
-2.4299267e-41
-2.4009882e-42
-2.7257483e-42
-2.1158048e-41
-1.861899e-43
-2.4592239e-42
-8.6655502e-45
-1.7188893e-43
-1.0460526e-46
-8.3723706e-45
-8.0271597e-49
-1.0191139e-46
-4.3955801e-51
-7.9378054e-49
-1.6335152e-53
-4.3888457e-51
-5.6693437e-56
-1.6369379e-53
-2.7164995e-58
-5.7014064e-56
-1.221946e-60
-2.7442785e-58
-5.5415686e-63
-1.24008e-60
-2.6714302e-65
-5.6706052e-63
-7.039656e-67
-2.7010703e-65
-3.3529698e-67
-4.6788546e-67
-9.685604e-68
-2.9670267e-67
-2.5223647e-68
-8.7301918e-68
-4.629907e-69
-2.4930367e-68
-3.0732398e-70
-5.1526811e-69
-6.9758572e-72
-3.582098e-70
-7.2945011e-74
-8.340532e-72
-6.1532211e-76
-8.859377e-74
-4.5578869e-78
-7.5946708e-76
-2.9159841e-80
-5.7271821e-78
-1.6629167e-82
-3.7358011e-80
-8.436609e-85
-2.132314e-82
-3.8064785e-87
-1.0857603e-84
-1.5033599e-89
-4.9257686e-87
-5.0056457e-92
-2.2053392e-89
-1.3347124e-94
-8.8467445e-92
-2.5430625e-97
-2.9749623e-94
-1.4968406e-100
-7.6967797e-97
-1.4151725e-99
4.2196743e-98
-4.5055605e-97
6.9320408e-95
-2.3674795e-94
3.3033599e-92
-8.3055791e-92
1.1004562e-89
-2.1933194e-89
2.9012772e-87
-4.7986338e-87
6.4041253e-85
-9.0696995e-85
1.2255308e-82
-1.6518677e-82
2.0770076e-80
-2.7823878e-80
3.2221553e-78
-4.2648189e-78
4.5320222e-76
-5.8614509e-76
5.8976638e-74
-7.4773161e-74
6.9601994e-72
-8.6681302e-72
6.9619367e-70
-8.526916e-70
3.2528149e-68
-3.8779628e-68
5.0306887e-67
-5.7279234e-67
2.7004633e-66
-2.7254712e-66
1.0019598e-65
-9.1655545e-66
3.6693798e-65
-3.3531602e-65
9.4040539e-65
-6.2207993e-65
4.6789059e-63
-4.5287969e-63
8.7228113e-61
-8.8266852e-61
1.7925096e-58
-1.8123333e-58
3.6572013e-56
-3.6848041e-56
6.8301969e-54
-6.8516795e-54
1.3444785e-51
-1.3425539e-51
3.3045007e-49
-3.2945849e-49
8.9478323e-47
-8.899041e-47
2.8006168e-44
-2.7827914e-44
4.5683649e-42
-4.4841461e-42
9.5578605e-41
-8.7784455e-41
9.0683344e-40
-7.7558955e-40
1.1389512e-37
-1.1061652e-37
1.3333578e-37
-2.7862471e-38
5.1601287e-38
-9.3198907e-39
1.6223946e-38
-8.2570622e-41
7.2979739e-38
4.4690237e-39
1.7377425e-36
1.9515052e-37
3.4806868e-35
6.272915e-36
5.9957456e-34
1.550265e-34
8.7674079e-33
3.071302e-33
1.0648918e-31
4.9034861e-32
1.0516976e-30
6.273602e-31
8.3455358e-30
6.4241817e-30
5.2856818e-29
5.2898823e-29
2.5715408e-28
3.4362467e-28
8.6523947e-28
1.6334802e-27
1.7899428e-27
5.1846067e-27
2.3226236e-27
1.1117524e-26
2.0727824e-27
2.0256218e-26
1.6279093e-28
3.5530272e-26
-1.8358043e-27
3.5569902e-26
-2.1769412e-27
2.0294626e-26
-1.679783e-27
1.1066279e-26
-7.9124717e-28
5.0506063e-27
-2.0911291e-28
1.52606e-27
-3.1284734e-29
2.7973193e-28
-2.9003902e-30
3.0847253e-29
-1.5514648e-31
2.1802017e-30
-4.2162548e-33
8.9965556e-32
-6.1739787e-35
1.892547e-33
-5.7723535e-37
2.1298575e-35
-5.3226914e-39
1.4937316e-37
-1.816293e-40
1.0076859e-39
-1.9385674e-40
4.2458291e-41
-1.4016944e-39
4.1027629e-41
-7.8623865e-39
2.5125945e-41
-6.2570444e-39
-8.2564939e-40
-7.5088226e-39
-1.2810812e-39
-6.5586834e-40
-6.7452931e-39
-3.7338791e-41
-5.9867993e-40
-1.5218756e-42
-3.4643629e-41
-1.6647983e-44
-1.4715708e-42
-1.1874062e-46
-1.6228582e-44
-6.1750058e-49
-1.1784729e-46
-2.2057286e-51
-6.1795729e-49
-7.4303606e-54
-2.2144629e-51
-3.4909369e-56
-7.4856495e-54
-1.5504666e-58
-3.5318388e-56
-6.978916e-61
-1.5754694e-58
-3.3515364e-63
-7.1489789e-61
-8.7543572e-65
-3.409962e-63
-4.2057869e-65
-6.1695169e-65
-1.2240266e-65
-3.8278023e-65
-3.216925e-66
-1.1312083e-65
-5.9731405e-67
-3.258514e-66
-4.0102398e-68
-6.8084801e-67
-9.2018611e-70
-4.7893304e-68
-9.724015e-72
-1.1292556e-69
-8.2878487e-74
-1.2142274e-71
-6.2006297e-76
-1.0538265e-73
-4.0035915e-78
-7.9926215e-76
-2.3036246e-80
-5.1524747e-78
-1.1784084e-82
-2.9649834e-80
-5.3621847e-85
-1.5229374e-82
-2.1312354e-87
-7.6010211e-85
-7.1286546e-90
-3.5278937e-87
-1.9071898e-92
-1.4218366e-89
-3.6421059e-95
-4.7979104e-92
-2.1424605e-98
-1.2444075e-94
-2.2874814e-97
5.4038292e-96
-6.4450723e-95
8.8799765e-93
-3.3863185e-92
4.2216688e-90
-1.1849644e-89
1.4016003e-87
-3.1183356e-87
3.6783232e-85
-6.7907126e-85
8.0733693e-83
-1.2761179e-82
1.5323891e-80
-2.1215573e-80
2.5747538e-78
-3.4651621e-78
3.9586489e-76
-5.2745361e-76
5.5167065e-74
-7.3139671e-74
7.1074318e-72
-9.2757852e-72
8.2999519e-70
-1.0624144e-69
8.21282e-68
-1.0321011e-67
3.7938796e-66
-4.6327387e-66
5.7964257e-65
-6.7573665e-65
3.0723282e-64
-3.1768896e-64
1.128098e-63
-1.057679e-63
4.0839238e-63
-3.8305251e-63
1.0213154e-62
-7.6094759e-63
5.1912378e-61
-5.0832364e-61
9.7026447e-59
-9.8394591e-59
2.0034268e-56
-2.0286974e-56
4.1243142e-54
-4.1625677e-54
7.8175149e-52
-7.8582765e-52
1.5751686e-49
-1.5766708e-49
4.0063129e-47
-4.0043448e-47
1.1360526e-44
-1.1330658e-44
3.7860843e-42
-3.7735164e-42
6.7104319e-40
-6.62863e-40
1.5818751e-38
-1.460135e-38
1.7470923e-37
-1.5174869e-37
3.0825589e-35
-3.0126016e-35
4.2342581e-35
-1.1174804e-35
2.0441955e-35
-4.7904637e-36
5.7172178e-36
-2.9936732e-37
6.1059665e-36
4.431277e-37
1.37238e-34
1.4466052e-35
2.6675069e-33
4.6946972e-34
4.4119179e-32
1.1418832e-32
6.1895168e-31
2.2007678e-31
7.2027167e-30
3.3973542e-30
6.7932935e-29
4.1786148e-29
5.1295953e-28
4.0930599e-28
3.0923396e-27
3.2199195e-27
1.4455485e-26
2.0130579e-26
4.7518218e-26
9.3542842e-26
9.7007229e-26
2.9364768e-25
1.2365921e-25
6.2080812e-25
1.0804561e-25
1.1054306e-24
8.618731e-27
1.9284607e-24
-9.5495327e-26
1.9309575e-24
-1.1562409e-25
1.1071795e-24
-9.0823433e-26
6.1698179e-25
-4.3324426e-26
2.855915e-25
-1.1720338e-26
8.7165713e-26
-1.8477888e-27
1.6348243e-26
-1.8711049e-28
1.8977582e-27
-1.1130625e-29
1.4599412e-28
-3.3702764e-31
6.659311e-30
-5.9105652e-33
1.550539e-31
-7.7562245e-35
2.0751135e-33
-1.0211648e-36
2.0207567e-35
-7.7031461e-38
1.9733786e-37
-1.1720323e-37
1.6844822e-38
-1.0010875e-36
2.9181799e-38
-3.2550473e-36
-3.767827e-38
-2.2785284e-36
-4.5141138e-37
-2.0273371e-36
-5.308974e-37
-1.29304e-37
-1.8790333e-36
-6.2390738e-39
-1.1911356e-37
-2.2537607e-40
-5.8139962e-39
-2.2519022e-42
-2.1818137e-40
-1.5062339e-44
-2.218762e-42
-7.4775773e-47
-1.4999909e-44
-2.5787922e-49
-7.4999969e-47
-8.464101e-52
-2.5939159e-49
-3.9120072e-54
-8.5428263e-52
-1.7199729e-56
-3.9640416e-54
-7.7029065e-59
-1.7501088e-56
-3.6890242e-61
-7.8997533e-59
-9.5851315e-63
-3.7788002e-61
-4.644825e-63
-7.578819e-63
-1.363691e-63
-4.3450664e-63
-3.6210417e-64
-1.2920255e-63
-6.8087511e-65
-3.7588482e-64
-4.6278243e-66
-7.9489208e-65
-1.0742451e-67
-5.662791e-66
-1.1478476e-69
-1.3529969e-67
-9.8896032e-72
-1.4735984e-69
-7.472917e-74
-1.2942865e-71
-4.8735898e-76
-9.678039e-74
-2.8304958e-78
-6.2995714e-76
-1.4616705e-80
-3.6601938e-78
-6.7029858e-83
-2.026337e-80
-2.6797245e-85
-1.0608297e-82
-9.0051482e-88
-4.9529298e-85
-2.417484e-90
-2.0056732e-87
-4.6269427e-93
-6.7921186e-90
-2.7203798e-96
-1.7659983e-92
-3.2458931e-95
6.223449e-94
-8.2224579e-93
1.0228179e-90
-4.3192768e-90
4.8514301e-88
-1.5076211e-87
1.6049181e-85
-3.9529548e-85
4.1924636e-83
-8.5674325e-83
9.1476511e-81
-1.600465e-80
1.724405e-78
-2.6424663e-78
2.8697319e-76
-3.9185526e-76
4.3703579e-74
-5.8524971e-74
6.0293883e-72
-8.0402956e-72
7.6874578e-70
-1.0175765e-69
8.8811518e-68
-1.1680916e-67
8.6879094e-66
-1.1202349e-65
3.9649066e-64
-4.9594048e-64
5.9778624e-63
-7.1362914e-63
3.1249955e-62
-3.3109001e-62
1.1340225e-61
-1.0895309e-61
4.0507013e-61
-3.9014456e-61
9.8722921e-61
-8.2213708e-61
5.1165497e-59
-5.0386612e-59
9.5734541e-57
-9.7283228e-57
1.9806024e-54
-2.0088396e-54
4.1011763e-52
-4.1466813e-52
7.8610116e-50
-7.9188241e-50
1.6145058e-47
-1.6199394e-47
4.228238e-45
-4.2366963e-45
1.248283e-42
-1.2484176e-42
4.3979998e-40
-4.3960782e-40
8.3902536e-38
-8.3278113e-38
2.1976189e-36
-2.037147e-36
2.7835871e-35
-2.4468045e-35
6.4318929e-33
-6.2720267e-33
1.0818846e-32
-4.2077174e-33
6.8306964e-33
-1.8694487e-33
1.6639691e-33
-2.8243568e-34
9.2997557e-34
3.9364571e-35
9.6472317e-33
9.2374879e-34
1.8148993e-31
3.0101742e-32
2.8736758e-30
7.2411405e-31
3.855516e-29
1.3587552e-29
4.2817046e-28
2.0252633e-28
3.840337e-27
2.3891964e-27
2.7440724e-26
2.2297336e-26
1.5618983e-25
1.6644689e-25
6.9538284e-25
9.9349316e-25
2.2207436e-24
4.4890914e-24
4.4555685e-24
1.3897888e-23
5.5495754e-24
2.8843818e-23
4.7333984e-24
4.9995326e-23
3.8415451e-25
8.7173936e-23
-4.1769449e-24
8.7308129e-23
-5.1759486e-24
5.0055717e-23
-4.1595144e-24
2.8607931e-23
-2.0165005e-24
1.3484234e-23
-5.6076435e-25
4.1665393e-24
-9.3944429e-26
8.0262072e-25
-1.0435601e-26
9.8850283e-26
-6.8757536e-28
8.3018653e-27
-2.3178612e-29
4.1627321e-28
-4.995574e-31
1.0708552e-29
-1.0018714e-32
1.748254e-31
-1.7886193e-34
2.5646752e-33
-2.7415234e-35
3.5127131e-35
-5.9511847e-35
5.2922263e-36
-4.6364034e-34
1.0171687e-35
-1.0995529e-33
-4.8158673e-35
-6.756965e-34
-2.029878e-34
-4.8042852e-34
-1.7124074e-34
-2.1022602e-35
-4.5836795e-34
-8.747077e-37
-1.9509956e-35
-2.8350204e-38
-8.1834876e-37
-2.6123813e-40
-2.7499986e-38
-1.6523506e-42
-2.5866874e-40
-7.8767863e-45
-1.6508366e-42
-2.6363693e-47
-7.918226e-45
-8.4660908e-50
-2.6569833e-47
-3.8635289e-52
-8.5612676e-50
-1.686869e-54
-3.921432e-52
-7.5369719e-57
-1.7189646e-54
-3.6051577e-59
-7.7393083e-57
-9.3279456e-61
-3.7198361e-59
-4.5706589e-61
-8.2230559e-61
-1.3560918e-61
-4.4267501e-61
-3.6429115e-62
-1.3165686e-61
-6.9452796e-63
-3.8757156e-62
-4.784221e-64
-8.3058387e-63
-1.1244007e-65
-5.9985985e-64
-1.2156511e-67
-1.4534548e-65
-1.0588325e-69
-1.6041139e-67
-8.0901486e-72
-1.3932349e-69
-5.3312881e-74
-1.0531129e-71
-3.1289303e-76
-6.9274592e-74
-1.6306055e-78
-4.2807713e-76
-7.5309484e-81
-2.5031078e-78
-3.0289278e-83
-1.3198238e-80
-1.0226927e-85
-6.199788e-83
-2.7553346e-88
-2.5227967e-85
-5.2852683e-91
-8.5749528e-88
-3.1061566e-94
-2.235016e-90
-4.1079362e-93
6.5170526e-92
-9.4750335e-91
1.0711227e-88
-4.9758954e-88
5.0685473e-86
-1.7323498e-85
1.6705174e-83
-4.5249025e-83
4.3427176e-81
-9.7590709e-81
9.4184953e-79
-1.8120273e-78
1.7628512e-76
-2.970452e-76
2.9099914e-74
-4.3693038e-74
4.3837151e-72
-5.9454766e-72
5.9835008e-70
-8.0244077e-70
7.5439855e-68
-1.0049372e-67
8.6147799e-66
-1.1467891e-65
8.328858e-64
-1.1023458e-63
3.751705e-62
-4.8079052e-62
5.5759366e-61