/*--------------------------------*- C++ -*----------------------------------*\
  =========                 |
  \\      /  F ield         | OpenFOAM: The Open Source CFD Toolbox
   \\    /   O peration     | Website:  https://openfoam.org
    \\  /    A nd           | Version:  9
     \\/     M anipulation  |
\*---------------------------------------------------------------------------*/
FoamFile
{
    format      ascii;
    class       volScalarField;
    location    "0.21";
    object      alpha.phase1;
}
// * * * * * * * * * * * * * * * * * * * * * * * * * * * * * * * * * * * * * //

dimensions      [0 0 0 0 0 0 0];

internalField   nonuniform List<scalar> 
10000
(
1.1279274e-110
1.1279274e-110
2.4026498e-108
8.5817291e-106
2.3247631e-103
5.2506726e-101
1.0323945e-98
1.8096129e-96
2.8714839e-94
4.2468443e-92
5.7832414e-90
7.3749311e-88
8.6239869e-86
8.6929884e-84
4.3031916e-82
7.5311536e-81
4.7776433e-80
1.9489108e-79
1.1324906e-78
5.5889862e-77
1.9283706e-75
2.0232392e-74
2.6221044e-72
4.6426804e-70
7.3377192e-68
1.1452889e-65
2.0673771e-63
3.7201117e-61
6.6488367e-59
5.332723e-57
6.9673679e-56
2.0850287e-55
3.270783e-54
8.2153466e-54
2.4080706e-52
7.5642895e-51
2.1290532e-49
5.3559455e-48
1.1916286e-46
2.3072108e-45
3.7993381e-44
5.2348966e-43
6.0489197e-42
5.8473916e-41
4.5244614e-40
2.6948893e-39
1.272832e-38
4.8585532e-38
1.4189004e-37
3.0627446e-37
3.0495215e-37
1.4072371e-37
4.7112765e-38
1.1860273e-38
2.2869498e-39
3.1998739e-40
2.7465068e-41
1.1973576e-42
2.326252e-44
1.8462023e-46
9.4143777e-49
9.6053142e-52
6.9421799e-55
2.6740586e-58
1.3479842e-58
3.0997789e-58
8.8906392e-57
5.3207565e-56
8.5119644e-56
2.2258939e-56
1.7619001e-57
3.9095057e-59
4.8499056e-61
3.8058002e-63
1.8610945e-65
8.0307054e-68
4.4945223e-70
2.270272e-72
1.1181321e-74
5.8122513e-77
2.2449038e-78
9.6129752e-79
2.5060555e-79
6.0109026e-80
9.5031054e-81
5.6465712e-82
1.2221193e-83
1.2776282e-85
1.0971091e-87
8.3726696e-90
5.5984441e-92
3.392383e-94
1.8625411e-96
9.2963083e-99
4.1692514e-101
1.6363395e-103
5.4126866e-106
1.3839649e-108
6.5406192e-111
6.5406192e-111
1.5677597e-110
2.4142927e-108
8.6385298e-106
2.3405472e-103
5.2869606e-101
1.0396446e-98
1.8225161e-96
2.8922451e-94
4.2780136e-92
5.8262958e-90
7.4306833e-88
8.6903283e-86
8.7618651e-84
4.3376614e-82
7.5897928e-81
4.8115435e-80
1.9595683e-79
1.1447989e-78
1.9912814e-76
9.2387835e-75
7.424282e-74
2.8171056e-72
4.6917269e-70
7.3933929e-68
1.1534449e-65
2.0813764e-63
3.7436443e-61
6.688396e-59
5.3636993e-57
5.5947105e-56
2.0785676e-55
3.1130087e-54
4.7090093e-52
2.6847027e-51
8.1300938e-50
2.4958974e-48
6.8568591e-47
1.6814076e-45
3.6333241e-44
6.8136773e-43
1.0878673e-41
1.4527678e-40
1.604337e-39
1.4427282e-38
9.9613636e-38
4.7088853e-37
1.4049787e-36
2.9083671e-36
5.6221333e-36
9.1282063e-36
9.1273145e-36
5.6269369e-36
2.8998448e-36
1.3626156e-36
4.34742e-37
7.7687622e-38
7.1346612e-39
3.3583101e-40
7.3295008e-42
7.5755707e-44
3.2867294e-46
3.9037929e-49
1.634454e-52
7.6246217e-56
2.755901e-56
1.2314262e-54
1.1872101e-53
3.4661495e-53
2.5902985e-55
1.0004841e-55
1.8918385e-56
1.7715773e-57
3.9325933e-59
4.8814172e-61
3.8320706e-63
1.8742558e-65
8.0889658e-68
4.5288509e-70
2.2878018e-72
1.1268476e-74
5.8495584e-77
2.2448936e-78
9.4311929e-79
2.5188384e-79
6.0544469e-80
9.5777833e-81
5.6922253e-82
1.231909e-83
1.287573e-85
1.1054849e-87
8.4355205e-90
5.6397078e-92
3.4169743e-94
1.8758195e-96
9.3615151e-99
4.198004e-101
1.6475051e-103
5.4476101e-106
1.3909167e-108
8.9958654e-111
1.0067508e-107
2.1055601e-105
5.5752968e-103
1.5050565e-100
3.3781448e-98
6.5953711e-96
1.146555e-93
1.8025791e-91
2.6390405e-89
3.5545524e-87
4.4806655e-85
5.1766962e-83
5.1540524e-81
2.5148045e-79
4.3003028e-78
2.5998192e-77
1.00364e-76
4.3661017e-76
3.7257579e-74
1.3590142e-72
1.132239e-71
1.4627176e-69
2.6268612e-67
4.2268415e-65
6.7799258e-63
1.273389e-60
2.4153894e-58
4.6433364e-56
4.0790666e-54
4.4186774e-53
1.4349743e-52
3.8778392e-51
4.2377655e-49
8.3431082e-49
1.8135055e-47
5.4374055e-46
1.4635072e-44
3.5058264e-43
7.385241e-42
1.3476333e-40
2.0912684e-39
2.7139379e-38
2.9133594e-37
2.551628e-36
1.7304622e-35
8.1746502e-35
2.4810026e-34
5.2223115e-34
1.0049167e-33
1.6892964e-33
1.6888825e-33
1.0051415e-33
5.1993761e-34
2.4055392e-34
7.5590351e-35
1.3612742e-35
1.3045082e-36
6.6789938e-38
1.6702063e-39
2.0570737e-41
1.0941495e-43
1.9281741e-46
1.4896128e-49
1.2881852e-52
7.869387e-53
2.4145966e-51
1.4318643e-50
3.0959891e-50
2.5116662e-52
8.2499227e-53
1.5085943e-53
1.3439224e-54
2.7223209e-56
3.1439634e-58
2.3405973e-60
1.1005013e-62
4.6006449e-65
2.5258824e-67
1.260604e-69
6.1716566e-72
3.161486e-74
9.9021574e-76
4.8016492e-76
1.282068e-76
3.2325764e-77
5.3571036e-78
3.2582889e-79
7.1578768e-81
7.5787489e-83
6.5887272e-85
5.0882658e-87
3.4405777e-89
2.1066521e-91
1.1677095e-93
5.8784182e-96
2.6570136e-98
1.0495303e-100
3.483374e-103
1.2485703e-105
5.7904758e-108
3.8454136e-105
1.0678227e-102
2.2965901e-100
6.1145904e-98
1.3695541e-95
2.6547941e-93
4.5808939e-91
7.1419191e-89
1.0360505e-86
1.3818542e-84
1.7241498e-82
1.9711386e-80
1.9417954e-78
9.3771969e-77
1.5872158e-75
9.4931872e-75
3.6294978e-74
1.4294909e-73
5.7185108e-72
1.1630658e-70
3.0057536e-69
5.2693143e-67
9.7071533e-65
1.5968707e-62
2.6438179e-60
5.192735e-58
1.0448341e-55
2.1728407e-53
2.1197572e-51
2.6352483e-50
1.0336979e-49
3.7957347e-48
3.1562846e-46
2.6221844e-46
3.2200345e-45
9.2993549e-44
2.4447829e-42
5.7055374e-41
1.1685528e-39
2.0701469e-38
3.1148369e-37
3.9142004e-36
4.0685426e-35
3.4589434e-34
2.2949318e-33
1.0753445e-32
3.2782907e-32
6.9145832e-32
1.3120201e-31
2.2430151e-31
2.2424164e-31
1.3118127e-31
6.8771015e-32
3.1780555e-32
9.9556516e-33
1.819184e-33
1.8247685e-34
1.0174652e-35
2.9169752e-37
4.2538147e-39
2.6346988e-41
7.4789397e-44
1.0888973e-46
2.7311583e-49
1.2977813e-49
3.5291956e-48
1.4960386e-47
1.8564249e-47
2.5451315e-49
6.1326748e-50
9.1523533e-51
7.0481422e-52
1.2792197e-53
1.3600952e-55
9.5344092e-58
4.2762735e-60
1.7305925e-62
9.2815297e-65
4.5600362e-67
2.2118935e-69
1.1264549e-71
3.4977826e-73
1.7080231e-73
4.5877123e-74
1.1672565e-74
1.9552123e-75
1.2016017e-76
2.6673322e-78
2.8547419e-80
2.5087536e-82
1.9579244e-84
1.3372579e-86
8.2654783e-89
4.6220467e-91
2.3464433e-93
1.0673303e-95
4.1658293e-98
1.4725229e-100
6.2884157e-103
2.1956492e-105
1.1059188e-102
3.5678011e-100
9.1357289e-98
1.6130434e-95
4.0565505e-93
7.8391882e-91
1.3419504e-88
2.0750592e-86
2.9838803e-84
3.942664e-82
4.8713159e-80
5.5135618e-78
5.3773642e-76
2.5714521e-74
4.3091601e-73
2.5519035e-72
9.6739156e-72
3.6986079e-71
7.8374487e-70
9.2146913e-69
7.5410704e-67
1.4129339e-64
2.6518004e-62
4.4662403e-60
7.6399643e-58
1.5661026e-55
3.3455846e-53
7.5363405e-51
8.1837994e-49
1.1695478e-47
5.5685718e-47
2.7950316e-45
1.5271241e-43
1.1187652e-43
5.0856033e-43
1.3008122e-41
3.3286581e-40
7.5462023e-39
1.4985901e-37
2.5700977e-36
3.7389226e-35
4.5374504e-34
4.5526839e-33
3.7433979e-32
2.4211696e-31
1.1206205e-30
3.4111239e-30
7.167043e-30
1.3378634e-29
2.3076295e-29
2.30704e-29
1.3372044e-29
7.120137e-30
3.3047061e-30
1.0378786e-30
1.9308401e-31
2.0288661e-32
1.2348281e-33
4.0453423e-35
6.8856626e-37
5.3473174e-39
2.047953e-41
6.3258393e-44
4.6551908e-46
1.3609662e-46
3.5581342e-45
1.3053279e-44
7.481608e-45
1.9461412e-46
3.4079586e-47
4.1326208e-48
2.7453734e-49
4.4593333e-51
4.3665892e-53
2.7696969e-55
1.0492231e-57
4.8111133e-60
2.4958984e-62
1.2004688e-64
5.8089605e-67
2.9639065e-69
9.1193742e-71
4.483551e-71
1.210807e-71
3.1053304e-72
5.2527656e-73
3.2596946e-74
7.3098387e-76
7.9041277e-78
7.0176837e-80
5.5320823e-82
3.8150153e-84
2.3807918e-86
1.3428194e-88
6.8594128e-91
2.9152404e-93
1.0634002e-95
5.816854e-98
2.0870602e-100
6.2705091e-103
2.5489626e-100
9.0325727e-98
2.5126367e-95
4.8666627e-93
8.3653886e-91
1.8231032e-88
3.1072893e-86
4.7663363e-84
6.7915797e-82
8.8908676e-80
1.0878939e-77
1.2191439e-75
1.1772498e-73
5.5747417e-72
9.2513087e-71
5.4248013e-70
2.0388746e-69
7.6934204e-69
1.019116e-67
1.2579336e-66
1.5478007e-64
2.6659316e-62
5.2018691e-60
9.7585838e-58
1.7212061e-55
3.2069674e-53
7.1564297e-51
1.7136972e-48
2.4705655e-46
4.0473506e-45
2.3310592e-44
1.5861803e-42
4.4214716e-41
6.382634e-41
9.3240391e-41
1.5379818e-39
3.8076876e-38
8.3564898e-37
1.6037887e-35
2.6552059e-34
3.7236611e-33
4.3491744e-32
4.1960927e-31
3.3243533e-30
2.0878386e-29
9.5074659e-29
2.8778367e-28
6.0010117e-28
1.1002108e-27
1.9048419e-27
1.9043754e-27
1.0992618e-27
5.9542978e-28
2.7859251e-28
8.8053271e-29
1.6720645e-29
1.8428696e-30
1.2267986e-31
4.5900382e-33
9.0035179e-35
8.7113651e-37
4.3325075e-39
1.9875422e-41
2.7261445e-43
1.3219475e-43
2.8068526e-42
8.8446373e-42
2.0143914e-42
1.1486912e-43
1.4700048e-44
1.4541036e-45
8.3588981e-47
1.2185205e-48
1.1011586e-50
5.1422847e-53
1.8837495e-55
9.4281558e-58
4.4211785e-60
2.08676e-62
1.048434e-64
6.1597316e-67
1.8793124e-68
9.3056409e-69
2.5267333e-69
6.5345596e-70
1.1162591e-70
6.9945612e-72
1.5841696e-73
1.7304633e-75
1.5520889e-77
1.2359343e-79
8.6113955e-82
5.417036e-84
3.0127435e-86
1.3990073e-88
5.6626718e-91
3.4184941e-93
1.5893813e-95
5.2498669e-98
1.4355484e-100
4.9018529e-98
1.8532893e-95
5.4100789e-93
1.1350385e-90
1.8373247e-88
3.0478842e-86
5.7695702e-84
9.0535365e-82
1.2800224e-79
1.6589221e-77
2.0096722e-75
2.2295804e-73
2.1312937e-71
9.9918602e-70
1.6416554e-68
9.5275487e-68
3.5485544e-67
1.3269787e-66
1.3032475e-65
1.7945236e-64
2.2528682e-62
3.9051789e-60
7.6704893e-58
1.4978168e-55
2.6765049e-53
4.9963586e-51
1.1584035e-48
2.9197916e-46
6.0283125e-44
1.1231921e-42
7.7631097e-42
7.0634175e-40
5.8496006e-39
3.7853306e-38
1.9235291e-38
1.5919092e-37
3.7350933e-36
7.9065586e-35
1.461276e-33
2.3271348e-32
3.1354935e-31
3.5132908e-30
3.246042e-29
2.4667161e-28
1.4980593e-27
6.6881746e-27
2.0067058e-26
4.1421512e-26
7.4491802e-26
1.2894708e-25
1.2892276e-25
7.4401451e-26
4.1045096e-26
1.9408016e-26
6.1889458e-27
1.2018491e-27
1.3919465e-28
1.015583e-29
4.3174801e-31
9.6102561e-33
1.1137156e-34
7.3339926e-37
4.7313073e-39
1.249792e-40
1.182844e-40
1.8075294e-39
4.3523562e-39
4.366442e-40
5.3113073e-41
5.0354443e-42
4.0996687e-43
2.0516663e-44
2.6997743e-46
2.1187595e-48
7.9970132e-51
2.8449474e-53
1.3974289e-55
6.4744401e-58
3.035672e-60
1.5208296e-62
1.0543276e-64
3.1933463e-66
1.5941862e-66
4.3544254e-67
1.1361564e-67
1.9608382e-68
1.2410686e-69
2.8395335e-71
3.1339105e-73
2.8400206e-75
2.285868e-77
1.6056595e-79
9.4432955e-82
4.928338e-84
2.3058531e-86
1.4360141e-88
7.9178217e-91
3.4003237e-93
1.0703432e-95
2.7426792e-98
8.0916682e-96
3.2084854e-93
9.6635689e-91
2.1232708e-88
3.7072046e-86
5.2323312e-84
8.2893709e-82
1.3814075e-79
2.0549755e-77
2.6418649e-75
3.1689036e-73
3.4774802e-71
3.2896148e-69
1.5261772e-67
2.4812439e-66
1.4242863e-65
5.2530957e-65
1.9479468e-64
1.636697e-63
2.4534355e-62
2.8303154e-60
4.9435238e-58
9.7534121e-56
1.9208688e-53
3.4825704e-51
6.6527254e-49
1.5962315e-46
4.2151723e-44
1.2075332e-41
2.5462643e-40
2.0886329e-39
2.490767e-37
1.4449804e-36
1.3932718e-35
5.1818847e-36
1.578579e-35
3.1895506e-34
6.482843e-33
1.1496706e-31
1.7551311e-30
2.2637117e-29
2.422753e-28
2.1340583e-27
1.5479409e-26
9.0477008e-26
3.9470465e-25
1.1708916e-24
2.386794e-24
4.2041264e-24
7.2487478e-24
7.2480781e-24
4.1973553e-24
2.3616218e-24
1.1308342e-24
3.6450297e-25
7.2548553e-26
8.8545867e-27
7.0701849e-28
3.3732967e-29
8.4342784e-31
1.1663832e-32
1.0507731e-34
9.7483083e-37
6.3102984e-38
1.2075137e-37
9.649209e-37
1.524273e-36
9.1920739e-38
1.9366141e-38
1.3902942e-39
9.4283798e-41
4.1437356e-42
4.9466268e-44
2.9148462e-46
1.0623703e-48
3.6837575e-51
1.7807715e-53
8.1732422e-56
3.8153687e-58
1.9077581e-60
1.5287727e-62
4.8506329e-64
2.3189037e-64
6.3822265e-65
1.6813862e-65
2.933781e-66
1.87668e-67
4.3396063e-69
4.8408371e-71
4.4375343e-73
3.5400473e-75
2.2930316e-77
1.3352168e-79
7.0440754e-82
4.572051e-84
2.8759886e-86
1.4714442e-88
6.0355102e-91
1.8414668e-93
4.498575e-96
1.1709955e-93
4.816063e-91
1.482382e-88
3.3548671e-86
6.115188e-84
9.2621403e-82
1.1689959e-79
1.7490762e-77
2.6010633e-75
3.5774145e-73
4.3548963e-71
4.7331073e-69
4.4256473e-67
2.0306586e-65
3.264555e-64
1.8518873e-63
6.7529339e-63
2.480748e-62
1.9636318e-61
3.0199743e-60
3.1315632e-58
5.491494e-56
1.0855134e-53
2.1497816e-51
3.9410154e-49
7.674027e-47
1.8964653e-44
5.2178548e-42
1.6591509e-39
4.7730404e-38
4.5885723e-37
7.0626997e-35
1.3825432e-34
3.7548277e-33
1.7161168e-33
1.9512962e-33
2.4061551e-32
4.6572401e-31
7.8923946e-30
1.1506662e-28
1.4158526e-27
1.4415481e-26
1.2040675e-25
8.2829292e-25
4.631591e-24
1.9654474e-23
5.7451171e-23
1.1515838e-22
1.9790716e-22
3.3908064e-22
3.3909766e-22
1.9750802e-22
1.1374577e-22
5.5377944e-23
1.8094938e-23
3.7020696e-24
4.7837031e-25
4.1863524e-26
2.226197e-27
6.2232996e-29
1.0362677e-30
1.3180939e-32
1.8206802e-34
2.4340269e-35
1.0468544e-34
4.2203415e-34
3.5587673e-34
1.558267e-35
5.6299879e-36
3.1270748e-37
1.7915077e-38
6.989685e-40
6.8069358e-42
3.4555459e-44
1.2218911e-46
4.1464248e-49
1.979606e-51
9.0265544e-54
4.2061371e-56
2.1017967e-58
1.9163351e-60
7.2508978e-62
2.9228746e-62
8.1227366e-63
2.1639694e-63
3.820806e-64
2.4720062e-65
5.7807772e-67
6.5256297e-69
6.0289179e-71
4.3763174e-73
2.8559399e-75
1.6819673e-77
1.1504493e-79
8.0298151e-82
4.71233e-84
2.3099939e-86
9.2011336e-89
2.747232e-91
6.4695203e-94
1.5100265e-91
6.3933612e-89
1.9992155e-86
4.6163637e-84
8.6463634e-82
1.3622595e-79
1.8341847e-77
2.1042174e-75
2.9396198e-73
4.0100718e-71
4.9980345e-69
5.7053252e-67
5.2780998e-65
2.3933289e-63
3.8014046e-62
2.1284664e-61
7.662564e-61
2.7930769e-60
2.1481979e-59
3.3218629e-58
3.084567e-56
5.4182509e-54
1.0698555e-51
2.1236228e-49
3.9214158e-47
7.7490525e-45
1.962115e-42
5.5903353e-40
1.8677723e-37
7.4722174e-36
8.2975048e-35
1.2161981e-32
3.1113506e-32
7.526127e-31
6.0111958e-31
2.7785865e-31
1.6617283e-30
2.9588636e-29
4.7711462e-28
6.6178137e-27
7.7331654e-26
7.4553117e-25
5.8706295e-24
3.7984239e-23
2.013183e-22
8.2583225e-22
2.3696686e-21
4.6469567e-21
7.7565384e-21
1.3268925e-20
1.3272418e-20
7.7373545e-21
4.5798602e-21
2.2779125e-21
7.5689007e-22
1.5993953e-22
2.2075754e-23
2.1265862e-24
1.2556871e-25
3.9258885e-27
8.0945551e-29
1.5842223e-30
3.1849886e-32
7.8738946e-33
5.1602084e-32
1.507584e-31
5.1267142e-32
2.5606809e-33
1.3127708e-33
5.7755725e-35
2.8381313e-36
9.9271195e-38
7.2725497e-40
3.564748e-42
1.2295322e-44
4.1014082e-47
1.9413738e-49
8.8236506e-52
4.1159538e-54
2.0589512e-56
2.1089406e-58
9.2818205e-60
3.4022469e-60
9.1192105e-61
2.4614382e-61
4.4034793e-62
2.8840711e-63
6.8256862e-65
7.7886769e-67
6.6398003e-69
4.8594896e-71
3.2095462e-73
2.3425582e-75
1.7900691e-77
1.1728722e-79
6.6191263e-82
3.1585687e-84
1.2333682e-86
3.6251499e-89
8.2916761e-92
1.7577966e-89
7.6207856e-87
2.4113612e-84
5.6471637e-82
1.0770259e-79
1.7389092e-77
2.4256477e-75
2.9486709e-73
3.1654057e-71
4.083883e-69
5.0422335e-67
5.7909044e-65
5.6572551e-63
2.5318297e-61
3.969277e-60
2.1880844e-59
8.2313327e-59
3.1707113e-58
2.1048802e-57
3.2712184e-56
2.7303571e-54
4.7948626e-52
9.4272094e-50
1.8688173e-47
3.4615218e-45
6.9079423e-43
1.7819725e-40
5.2225349e-38
1.8192303e-35
9.8383968e-34
1.2430717e-32
1.5339772e-30
7.2800426e-30
1.0665389e-28
1.592367e-28
5.6226589e-29
1.1862005e-28
1.6789395e-27
2.5567538e-26
3.3549949e-25
3.7062651e-24
3.3656533e-23
2.4817653e-22
1.4966328e-21
7.4230991e-21
2.9322883e-20
8.3686818e-20
1.646867e-19
2.725568e-19
4.6681728e-19
4.6695079e-19
2.7162707e-19
1.6184611e-19
8.0201659e-20
2.6702135e-20
5.8419674e-21
8.7297846e-22
9.3229902e-23
6.101941e-24
2.1512191e-25
5.7660825e-27
1.792946e-28
5.295774e-30
2.6526095e-30
1.8410866e-29
3.8728874e-29
5.3332464e-30
5.2502333e-31
2.4554626e-31
8.8141422e-33
3.7744688e-34
1.0817161e-35
6.7703803e-38
3.2256602e-40
1.0914468e-42
3.5966246e-45
1.6950359e-47
7.7071032e-50
3.6102583e-52
1.8113851e-54
2.0619147e-56
1.063683e-57
4.1575548e-58
9.6301911e-59
2.5036305e-59
4.5500743e-60
3.0197779e-61
7.2405951e-63
7.8101342e-65
6.6370558e-67
4.9189717e-69
3.880102e-71
3.2532549e-73
2.3503228e-75
1.4870372e-77
8.1919158e-80
3.8400589e-82
1.4787838e-84
4.2958842e-87
9.5947848e-90
1.8669271e-87
8.2553545e-85
2.6359983e-82
6.2350164e-80
1.2040436e-77
1.9749386e-75
2.814654e-73
3.5291649e-71
3.9844667e-69
3.9602897e-67
4.6647016e-65
5.2976634e-63
5.4664061e-61
2.4299211e-59
3.7563218e-58
2.0809515e-57
9.2771505e-57
3.5278509e-56
1.8512027e-55
2.9294077e-54
2.1902705e-52
3.8374456e-50
7.4873542e-48
1.4766033e-45
2.731148e-43
5.4755469e-41
1.4302017e-38
4.2810362e-36
1.5419068e-33
1.0957599e-31
1.5509241e-30
1.6017036e-28
1.3501554e-27
1.2329485e-26
3.1809936e-26
1.2356476e-26
1.075903e-26
8.6584596e-26
1.226587e-24
1.5150906e-23
1.5732377e-22
1.3361507e-21
9.1514506e-21
5.1213186e-20
2.3751817e-19
9.112849e-19
2.7249464e-18
5.9990658e-18
1.0653577e-17
1.6941822e-17
1.6920722e-17
1.059342e-17
5.884525e-18
2.607103e-18
8.2437892e-19
1.8502207e-19
2.9936125e-20
3.5441698e-21
2.5768709e-22
1.0496714e-23
3.8869316e-25
1.8358121e-26
9.992391e-28
1.0038112e-27
4.6839839e-27
7.1655564e-27
6.8026846e-28
9.9681515e-29
3.7096675e-29
1.117708e-30
4.2379643e-32
9.1292893e-34
5.5260542e-36
2.5773249e-38
8.6079439e-41
2.8170283e-43
1.3278606e-45
6.0636283e-48
2.8619919e-50
1.4432892e-52
1.8091983e-54
1.0661267e-55
4.4508408e-56
1.0822472e-56
2.3599583e-57
4.2600759e-58
2.8682084e-59
6.9701363e-61
7.0774525e-63
6.0933791e-65
5.26774e-67
4.837481e-69
3.8641637e-71
2.7080703e-73
1.6777091e-75
9.1005446e-78
4.2143455e-80
1.6071675e-82
4.6272345e-85
1.0131604e-87
1.8252405e-85
8.2084739e-83
2.638999e-80
6.2871041e-78
1.2246548e-75
2.0295354e-73
2.9311799e-71
3.7427303e-69
4.3376977e-67
4.4988917e-65
4.2104811e-63
4.4784271e-61
4.5805117e-59
2.134855e-57
3.2456748e-56
2.0896275e-55
9.1557214e-55
3.3848051e-54
1.4892398e-53
2.3913388e-52
1.6010695e-50
2.7976919e-48
5.3981237e-46
1.0547694e-43
1.9388709e-41
3.8834367e-39
1.0204265e-36
3.0961063e-34
1.1429034e-31
1.0370778e-29
1.6191643e-28
1.4015695e-26
1.991356e-25
1.7473335e-24
4.619834e-24
2.4377823e-24
1.0045427e-24
4.2789738e-24
5.3355257e-23
6.1523696e-22
5.967023e-21
4.7122468e-20
2.9836955e-19
1.5647407e-18
7.0451519e-18
2.6282588e-17
8.0612114e-17
1.9270182e-16
3.5307198e-16
4.8322833e-16
4.8138346e-16
3.5019073e-16
1.8910691e-16
7.7104864e-17
2.364499e-17
5.4821758e-18
9.2252169e-19
1.1918043e-19
9.7188817e-21
4.7961219e-22
2.5983339e-23
1.7115501e-24
1.7948561e-25
3.4379427e-25
8.9158629e-25
9.7113687e-25
7.3770653e-26
1.4965746e-26
4.5780621e-27
1.1833746e-28
4.038013e-30
6.7326864e-32
3.9758309e-34
1.8290391e-36
6.069208e-39
1.9836149e-41
9.3968766e-44
4.3272834e-46
2.0653091e-48
1.0492238e-50
1.4380068e-52
9.5386065e-54
4.1492322e-54
1.0615498e-54
2.3579033e-55
3.6397748e-56
2.493464e-57
6.016988e-59
5.9307473e-61
5.7030867e-63
5.9222935e-65
5.2234827e-67
4.0676187e-69
2.8007476e-71
1.7129171e-73
9.1996901e-76
4.2248218e-78
1.5999592e-80
4.5757483e-83
9.8501142e-86
1.6552184e-83
7.553499e-81
2.441096e-78
5.8470514e-76
1.1454524e-73
1.9106547e-71
2.7817248e-69
3.5895972e-67
4.2218022e-65
4.4724074e-63
4.3327984e-61
3.7486899e-59
3.5522807e-57
1.7292054e-55
2.5888699e-54
1.9255361e-53
7.9894873e-53
2.8788378e-52
1.1107603e-51
2.0941724e-50
1.0712332e-48
1.861684e-46
3.555717e-44
6.854642e-42
1.2459989e-39
2.47865e-37
6.5076142e-35
1.985527e-32
7.4427726e-30
8.3780712e-28
1.4205797e-26
1.0349458e-24
2.3515843e-23
2.1396503e-22
5.2621531e-22
3.5023056e-22
1.0947415e-22
2.2745689e-22
2.1471513e-21
2.2841683e-20
2.0726169e-19
1.5407436e-18
8.9892841e-18
4.2726442e-17
1.7928862e-16
5.911849e-16
1.5191579e-15
3.0699824e-15
5.0768062e-15
6.4818228e-15
6.4635427e-15
5.0277397e-15
3.0059352e-15
1.4427435e-15
5.2617438e-16
1.3882173e-16
2.5422195e-17
3.7381703e-18
3.5423494e-19
2.2225322e-20
1.7391907e-21
1.4430544e-22
2.8005771e-23
7.6425525e-23
1.3639075e-22
1.0191062e-22
9.2330402e-24
1.7873377e-24
4.6473329e-25
1.0506735e-26
3.2791816e-28
4.3584008e-30
2.5341039e-32
1.1590802e-34
3.84739e-37
1.2632549e-39
6.0445925e-42
2.8191664e-44
1.3652586e-46
6.9482337e-49
1.0389694e-50
7.6750744e-52
3.4424545e-52
9.1879946e-53
2.1520393e-53
2.8785592e-54
1.9972189e-55
4.6187089e-57
5.0105139e-59
5.8046077e-61
5.8350798e-63
5.0436401e-65
3.8728228e-67
2.6400384e-69
1.6024278e-71
8.5535161e-74
3.9069398e-76
1.4719703e-78
4.188498e-81
8.88469e-84
1.401557e-81
6.4785375e-79
2.1020609e-76
5.054749e-74
9.9371277e-72
1.6637847e-69
2.433001e-67
3.1573271e-65
3.7417846e-63
4.0071493e-61
3.944545e-59
3.5047148e-57
2.6826022e-55
1.3004913e-53
2.1049704e-52
1.5881449e-51
6.281058e-51
2.2071677e-50
7.6630138e-50
2.0100098e-48
7.9688293e-47
1.1409651e-44
2.1235521e-42
4.0480431e-40
7.2903617e-38
1.4317353e-35
3.7291952e-33
1.1346179e-30
4.2772369e-28
5.7982661e-26
1.0513872e-24
6.4709592e-23
2.2392024e-21
2.1618987e-20
4.8788034e-20
3.7540759e-20
1.2734156e-20
1.4065619e-20
8.2921393e-20
8.1305409e-19
7.0884826e-18
4.8346387e-17
2.4602996e-16
9.2820752e-16
2.9347601e-15
7.5676758e-15
1.5284927e-14
2.4012513e-14
3.4734921e-14
4.5618875e-14
4.5129284e-14
3.5127925e-14
2.3430499e-14
1.4275784e-14
6.572514e-15
2.1828536e-15
5.4899245e-16
1.0799976e-16
1.3196069e-17
1.1772141e-18
1.1559145e-19
1.1366514e-20
4.0491205e-21
1.1409978e-20
1.6213717e-20
9.1562672e-21
1.014563e-21
1.7128461e-22
3.8905793e-23
7.8550505e-25
2.2788371e-26
2.4874915e-28
1.4378106e-30
6.5932159e-33
2.2049788e-35
7.317058e-38
3.5369592e-40
1.6643281e-42
8.2000901e-45
4.2976315e-47
6.859305e-49
5.6483168e-50
2.5818329e-50
7.1544261e-51
1.7571208e-51
2.3741385e-52
1.4869192e-53
3.3938662e-55
4.6295177e-57
5.2336119e-59
5.1837337e-61
4.4355407e-63
3.382201e-65
2.2939198e-67
1.3868675e-69
7.3780095e-72
3.3592228e-74
1.2609555e-76
3.5743714e-79
7.484682e-82
1.1145887e-79
5.210868e-77
1.6958239e-74
4.0882512e-72
8.0542145e-70
1.3508019e-67
1.9787491e-65
2.5732723e-63
3.0588924e-61
3.2911518e-59
3.2629424e-57
2.9297526e-55
2.2790377e-53
9.5837318e-52
1.6979894e-50
1.1907631e-49
4.5094039e-49
1.5451361e-48
4.9009345e-48
1.6485097e-46
1.4368496e-44
9.4117874e-43
1.2177036e-40
2.2051984e-38
3.8368314e-36
7.3960427e-34
1.9201528e-31
5.8063379e-29
2.1789174e-26
3.4422147e-24
6.5876868e-23
3.4358072e-21
1.7307021e-19
1.8753498e-18
3.7841019e-18
3.1527358e-18
1.3067983e-18
8.7310049e-19
3.3880455e-18
2.9467921e-17
2.2862765e-16
1.172977e-15
4.6608945e-15
1.3755139e-14
2.9374192e-14
6.1061876e-14
8.0150254e-14
9.1619536e-14
1.182815e-13
1.4213212e-13
1.4705676e-13
1.1092385e-13
8.708514e-14
7.4820762e-14
4.8284567e-14
2.0289112e-14
7.9713784e-15
2.0300053e-15
3.3569949e-16
5.1278269e-17
6.9317031e-18
9.3903681e-19
4.8359436e-19
1.207632e-18
1.5156117e-18
8.1417419e-19
8.3203649e-20
1.3257421e-20
2.4734989e-21
4.9686064e-23
1.3611922e-24
1.257209e-26
7.2976222e-29
3.3816982e-31
1.1287864e-33
3.8019447e-36
1.8942485e-38
9.3712528e-41
4.8728584e-43
4.6491412e-45
4.5008764e-47
3.8023793e-48
1.7709349e-48
5.081627e-49
1.3030211e-49
1.8882443e-50
1.113673e-51
2.8314795e-53
3.8293332e-55
4.2882289e-57
4.221733e-59
3.5986022e-61
2.7375126e-63
1.8537698e-65
1.1193421e-67
5.9471675e-70
2.7029303e-72
1.0122791e-74
2.8613179e-77
5.9234838e-80
8.3677478e-78
3.9516997e-75
1.288758e-72
3.1121596e-70
6.1364857e-68
1.0292722e-65
1.5073093e-63
1.9594306e-61
2.3285753e-59
2.5060387e-57
2.4881117e-55
2.2409853e-53
1.7492762e-51
7.3207221e-50
1.2443851e-48
8.214394e-48
2.9872411e-47
9.979187e-47
2.9398546e-46
1.2121181e-44
1.4193664e-42
1.7389874e-40
2.0297287e-38
1.805372e-36
1.9922303e-34
3.6565976e-32
8.889563e-30
2.6084649e-27
9.6924422e-25
1.744324e-22
3.5052453e-21
1.5531231e-19
1.0921551e-17
1.5836141e-16
2.6041432e-16
2.1813406e-16
1.0160694e-16
5.6763401e-17
1.51411e-16
9.1824446e-16
4.6819132e-15
1.645153e-14
5.4077742e-14
1.9450571e-13
3.0034519e-13
3.0462409e-13
8.0791312e-13
6.6915324e-13
3.0982984e-13
6.8320159e-13
4.5202695e-13
3.911413e-13
7.6535612e-13
4.5447361e-13
3.4708803e-13
3.4742214e-13
1.4271461e-13
2.585147e-14
3.6348028e-15
9.4038232e-16
2.5028668e-16
5.8227955e-17
4.4003876e-17
9.760308e-17
1.1647093e-16
7.2590395e-17
6.2521835e-18
8.3094721e-19
1.1805214e-19
2.6713589e-21
6.9243107e-23
5.5798319e-25
3.257386e-27
1.5396531e-29
5.5016114e-32
1.9853549e-34
1.3625827e-36
1.4127669e-38
1.0157488e-40
6.6880607e-43
4.4905359e-45
2.3577437e-46
1.1209762e-46
3.3269662e-47
8.8842637e-48
1.3652029e-48
8.3881874e-50
2.1474897e-51
2.8985742e-53
3.2400105e-55
3.1884169e-57
2.7191169e-59
2.0704707e-61
1.4034542e-63
8.4810727e-66
4.5075556e-68
2.0475839e-70
7.6575493e-73
2.1602744e-75
4.4270265e-78
5.9580964e-76
2.8395773e-73
9.2755285e-71
2.2413558e-68
4.4180883e-66
7.4023864e-64
1.0820525e-61
1.4032582e-59
1.663165e-57
1.7849184e-55
1.7676718e-53
1.5888835e-51
1.2372119e-49
5.123499e-48
8.4079678e-47
5.2642872e-46
1.8410831e-45
5.9969921e-45
1.6814185e-44
8.2098653e-43
1.1015106e-40
1.5486399e-38
2.2221392e-36
3.0457452e-34
4.1415255e-32
6.2486503e-30
6.0584864e-28
1.2316753e-25
4.0017974e-23
7.4429773e-21
1.588094e-19
5.9899635e-18
5.663791e-16
6.5976726e-15
1.2966449e-14
1.1244459e-14
5.6610907e-15
2.6985203e-15
4.1895481e-15
1.7609363e-14
5.0589503e-14
1.7908749e-13
9.4759447e-13
2.2414456e-12
3.1427014e-12
6.0882372e-12
7.7915544e-12
7.7915544e-12
5.6711562e-12
1.2187246e-12
2.4026717e-12
3.4734253e-12
4.4858837e-12
4.1424954e-12
1.8784599e-12
1.541091e-12
1.5086963e-12
1.0698975e-12
1.7127436e-13
1.4553274e-14
4.7308593e-15
1.6878138e-15
3.1396397e-15
5.8458659e-15
6.8130004e-15
4.2428751e-15
4.3235746e-16
4.3259925e-17
4.6369877e-18
1.1561435e-19
2.8023061e-21
2.2325976e-23
1.4142668e-25
7.566418e-28
9.1129814e-30
5.3711425e-32
2.6581801e-34
1.621203e-36
9.4367503e-39
5.5908589e-41
3.4523277e-43
1.3570992e-44
6.5978086e-45
2.0245666e-45
5.6237764e-46
9.1022295e-47
5.7957335e-48
1.5017897e-49
2.0346963e-51
2.2813582e-53
2.2528648e-55
1.9281614e-57
1.4732008e-59
1.0016027e-61
6.0669403e-64
3.2294201e-66
1.4679608e-68
5.4877956e-71
1.5459554e-73
3.1391291e-76
4.0406074e-74
1.941656e-71
6.3479153e-69
1.5342056e-66
3.0207603e-64
5.0502833e-62
7.3590041e-60
9.5060985e-58
1.1215316e-55
1.1975245e-53
1.1796028e-51
1.0544421e-49
8.1571341e-48
3.33352e-46
5.2946575e-45
3.1586891e-44
1.0631659e-43
3.3778597e-43
9.3366054e-43
5.2302148e-41
7.4665774e-39
1.0946576e-36
1.6294474e-34
2.3658475e-32
3.6483865e-30
7.3769504e-28
1.7700449e-25
4.2931093e-23
4.8939248e-21
3.4238546e-19
6.1449536e-18
1.974053e-16
2.4644761e-14
5.9303461e-14
2.5469677e-13
3.1315208e-13
1.730463e-13
9.1845316e-14
1.1642718e-13
1.2226155e-13
4.9240522e-12
6.8094643e-12
2.3368558e-12
2.3142757e-12
2.6168866e-12
3.7041875e-12
8.0961334e-14
4.6544027e-15
2.8947406e-12
1.2416737e-12
2.4338129e-12
2.9914477e-12
1.4578416e-12
2.3301705e-12
1.4137994e-12
7.9967239e-13
5.7021937e-13
4.6989638e-13
2.1303743e-13
1.6137811e-12
7.9398653e-14
4.5866725e-14
1.250784e-13
1.9405629e-13
2.1179161e-13
7.6466843e-14
1.5728291e-14
2.0202758e-15
1.5416643e-16
4.1076479e-18
1.0400127e-19
1.6027508e-21
2.4455944e-23
2.0317368e-25
1.166494e-27
4.8390692e-30
2.0536979e-32
1.1570018e-34
6.495035e-37
3.7772133e-39
2.2731028e-41
7.2985132e-43
3.6351699e-43
1.1533158e-43
3.3311554e-44
5.6561419e-45
3.7235909e-46
9.7918709e-48
1.3371403e-49
1.5091552e-51
1.4997664e-53
1.2912227e-55
9.9181809e-58
6.7741209e-60
4.1184831e-62
2.1980133e-64
1.0006361e-66
3.7411661e-69
1.0532073e-71
2.1209025e-74
2.6200357e-72
1.2685563e-69
4.1495576e-67
1.0023388e-64
1.9698418e-62
3.2829716e-60
4.7637141e-58
6.1217496e-56
7.1784899e-54
7.6124122e-52
7.4423089e-50
6.5989878e-48
5.0570085e-46
2.0353822e-44
3.1333666e-43
1.7864187e-42
5.7885647e-42
1.7941538e-41
5.0215847e-41
3.1801648e-39
4.5988086e-37
6.8033527e-35
1.0037823e-32
1.4409278e-30
2.2297201e-28
4.6484422e-26
1.2008124e-23
3.510272e-21
6.1398988e-19
4.5853839e-17
2.0673385e-16
5.5570194e-15
8.3400588e-13
1.6968617e-12
3.9119644e-12
5.8528412e-12
2.7962777e-12
2.8997686e-12
2.5727654e-12
2.2292582e-13
7.0069461e-13
-1.9823948e-11
5.8545351e-13
4.8350078e-13
-1.4364679e-16
-1.5010336e-10
-4.1616469e-10
-4.329928e-10
-1.7459015e-10
2.1848529e-09
4.9015099e-11
-5.843624e-11
-1.5008909e-10
-1.4120448e-10
-4.2982569e-11
-1.8206372e-18
8.1748765e-14
2.6453278e-13
1.8461341e-13
7.4655214e-13
2.85177e-13
2.2762201e-12
2.8028985e-12
3.5183685e-12
3.6572163e-12
6.7209712e-13
6.0881392e-13
6.3030577e-14
4.4089917e-15
2.6681081e-16
1.6163162e-17
2.3025191e-19
2.0816087e-21
1.3962201e-23
7.278949e-26
2.9078252e-28
1.2100651e-30
6.7532999e-33
3.8387171e-35
2.2561686e-37
1.357883e-39
3.7169093e-41
1.8867141e-41
6.1892233e-42
1.8587847e-42
3.3033226e-43
2.2458318e-44
6.0049941e-46
8.2884619e-48
9.4409737e-50
9.4623422e-52
8.2097851e-54
6.3496955e-56
4.3623437e-58
2.6648856e-60
1.4273927e-62
6.5129062e-65
2.4371107e-67
6.858718e-70
1.3707228e-72
1.6301873e-70
7.9478639e-68
2.599927e-65
6.2734481e-63
1.2299047e-60
2.0418401e-58
2.9476994e-56
3.7642404e-54
4.3818009e-52
4.6081943e-50
4.4638776e-48
3.9183186e-46
2.9682939e-44
1.1748032e-42
1.7544244e-41
9.5793128e-41
2.9887591e-40
9.0391447e-40
2.5093302e-39
1.8141783e-37
2.6159525e-35
3.8511655e-33
5.5610509e-31
7.6908317e-29
1.1395249e-26
2.2788552e-24
5.7850016e-22
1.8014817e-19
3.6014662e-17
1.3520162e-15
5.847631e-15
1.1316321e-13
2.2136101e-11
5.0962946e-11
7.175786e-11
1.7997271e-10
1.0617564e-10
7.6242901e-11
1.5602415e-11
6.2356897e-13
-1.223114e-09
2.7540194e-11
2.5275006e-11
3.4204451e-12
4.8442741e-13
1.6543612e-26
-1.7232795e-10
-6.7075045e-10
-4.8042558e-10
9.9135177e-09
1.6635656e-10
-2.0211712e-10
-2.6950917e-10
-5.8178016e-11
0
8.1866682e-14
5.1455571e-13
8.8706895e-10
-2.9842286e-11
-3.3918554e-10
-5.4705593e-14
3.1415993e-11
9.2983999e-11
1.2110999e-10
1.2188149e-10
2.0817225e-11
1.7823948e-11
1.7024203e-12
1.0516112e-13
6.5787829e-15
1.1932034e-15
1.2397041e-17
1.0241417e-19
6.6471001e-22
3.4885347e-24
1.4597095e-26
6.1165986e-29
3.5599613e-31
2.1117926e-33
1.2951197e-35
8.0942323e-38
1.8470133e-39
9.2791384e-40
3.1471142e-40
9.8291494e-41
1.8249661e-41
1.2805649e-42
3.4874961e-44
4.8758206e-46
5.6163499e-48
5.6869977e-50
4.9798201e-52
3.8830123e-54
2.6864347e-56
1.650487e-58
8.8793307e-61
4.0629356e-63
1.522453e-65
4.285325e-68
8.5048769e-71
9.7652419e-69
4.7917504e-66
1.5668826e-63
3.7749876e-61
7.3782015e-59