/*--------------------------------*- C++ -*----------------------------------*\
  =========                 |
  \\      /  F ield         | OpenFOAM: The Open Source CFD Toolbox
   \\    /   O peration     | Website:  https://openfoam.org
    \\  /    A nd           | Version:  9
     \\/     M anipulation  |
\*---------------------------------------------------------------------------*/
FoamFile
{
    format      ascii;
    class       volScalarField;
    location    "0.21";
    object      p_rgh;
}
// * * * * * * * * * * * * * * * * * * * * * * * * * * * * * * * * * * * * * //

dimensions      [1 -1 -2 0 0 0 0];

internalField   nonuniform List<scalar> 
10000
(
0
-0.017609269
-0.027570879
-0.038130836
-0.048389036
-0.057757227
-0.065875401
-0.072443944
-0.077046073
-0.079195828
-0.078358206
-0.073954798
-0.065366945
-0.051936398
-0.032960648
-0.00772038
0.024491904
0.064383404
0.11265722
0.16998665
0.23698562
0.31420702
0.40212175
0.50110201
0.61138351
0.73306434
0.86613459
1.010432
1.1656029
1.3311751
1.5066857
1.6918643
1.8859888
2.0863116
2.2882686
2.4911721
2.6957771
2.9001566
3.1019079
3.2986109
3.4876406
3.6661707
3.8313789
3.9804365
4.1105323
4.2190072
4.3034541
4.3618372
4.3925675
4.3946156
4.3675979
4.3115892
4.2271924
4.1156298
3.9786831
3.8186357
3.6381113
3.440002
3.2273332
3.0032622
2.7708317
2.5329953
2.2925406
2.0521329
1.8143232
1.5812107
1.3507549
1.1247682
0.90791275
0.70225938
0.50891895
0.3279753
0.15972521
0.0043963077
-0.13784457
-0.26693632
-0.38306899
-0.48656985
-0.57783903
-0.65742063
-0.72593606
-0.78407481
-0.83257602
-0.87219383
-0.90370266
-0.92791379
-0.94564623
-0.95764416
-0.96467248
-0.96748022
-0.96672744
-0.96306093
-0.9570428
-0.94918648
-0.93993427
-0.92965905
-0.91865102
-0.90753066
-0.89721773
-0.87924513
0.014894543
-0.0027869814
-0.01274223
-0.023402673
-0.033834276
-0.043430826
-0.051838834
-0.058775044
-0.063807019
-0.066442934
-0.066152596
-0.062365864
-0.054470176
-0.041789093
-0.023612874
0.0007614454
0.032058654
0.071009228
0.11831561
0.17463839
0.24061862
0.31680452
0.40368793
0.50163231
0.6108677
0.73150013
0.86350742
1.0067463
1.1608937
1.3253896
1.4996174
1.6828155
1.8736994
2.0699425
2.2706056
2.4733355
2.6769687
2.8797779
3.0796635
3.2743017
3.4611612
3.6375708
3.8007865
3.9479809
4.0764029
4.1834766
4.2668373
4.3244678
4.3547639
4.3566189
4.3294738
4.2733801
4.1891171
4.0780089
3.941857
3.7829273
3.6037921
3.4073234
3.196485
2.9743393
2.7438482
2.5078955
2.2691647
2.0302331
1.7932463
1.5598787
1.3308848
1.1092643
0.89568577
0.6923249
0.5004775
0.32081366
0.15378769
-0.00029368937
-0.14126924
-0.26912646
-0.38403024
-0.48630942
-0.57636692
-0.65475299
-0.72211241
-0.77911036
-0.82650835
-0.86506648
-0.89557767
-0.91883046
-0.93566165
-0.9468362
-0.95312787
-0.95527499
-0.95392457
-0.94972691
-0.94325623
-0.93503159
-0.92547931
-0.91495639
-0.90377218
-0.8924839
-0.8820719
-0.86415907
0.021522549
0.0036074896
-0.0066305747
-0.01771004
-0.028699062
-0.038975029
-0.048209484
-0.056101721
-0.062207088
-0.066036603
-0.067066028
-0.064721634
-0.058357265
-0.047274774
-0.03076061
-0.0080823069
0.021497805
0.058720867
0.10432685
0.15903642
0.22350452
0.29833779
0.38402786
0.48097426
0.58945767
0.70962153
0.84145479
0.98477109
1.1392091
1.3042305
1.4791186
1.6629334
1.8544064
2.0519796
2.2543332
2.4592748
2.6651292
2.8701374
3.0721718
3.2688849
3.4577555
3.6360821
3.8010683
3.9498971
4.0797616
4.188011
4.2722452
4.3304223
4.3609293
4.3626821
4.3352765
4.2787807
4.1938113
4.081652
3.9441234
3.7835367
3.6024989
3.4039397
3.1908759
2.966411
2.7335268
2.4951476
2.2540098
2.0126285
1.7731933
1.5374717
1.3070064
1.0842037
0.87021628
0.66656753
0.47441929
0.29455236
0.1275402
-0.026221851
-0.16660925
-0.29364371
-0.40749158
-0.50847034
-0.59703165
-0.67375907
-0.73933073
-0.79445636
-0.83990449
-0.87649049
-0.90508569
-0.92648423
-0.94150546
-0.95094122
-0.955593
-0.95620571
-0.95345332
-0.94797188
-0.94035701
-0.93113861
-0.92072461
-0.90946903
-0.89768444
-0.88598533
-0.87522483
-0.85706969
0.028402393
0.010244345
-0.00036115835
-0.012021431
-0.023780299
-0.035022254
-0.04541507
-0.054644207
-0.062263352
-0.067787699
-0.0706944
-0.070383665
-0.066178
-0.057362234
-0.043202904
-0.022946491
0.0041802863
0.038969574
0.082215947
0.13468716
0.19709324
0.27007527
0.35418362
0.44986911
0.5574717
0.677174
0.80896844
0.95265392
1.1078643
1.274064
1.4504694
1.6360629
1.8296185
2.0297239
2.2345065
2.4424286
2.6516054
2.8600767
3.0656635
3.2659912
3.4585078
3.640464
3.8090047
3.9612461
4.0942952
4.2053937
4.2920132
4.3519948
4.3836505
4.3858219
4.3580461
4.3004044
4.2135532
4.0988443
3.9581803
3.7939988
3.6090299
3.4063237
3.1890059
2.9602768
2.7231865
2.4807107
2.2356329
1.9904724
1.7474718
1.5086984
1.276085
1.0508517
0.83506221
0.63003666
0.43685994
0.25635226
0.089116432
-0.064447658
-0.20423325
-0.33027806
-0.44273128
-0.54194825
-0.62846228
-0.70288647
-0.76594962
-0.81843421
-0.86116496
-0.89500594
-0.92086203
-0.9395859
-0.95202382
-0.95899181
-0.96130648
-0.9597505
-0.95501375
-0.94774713
-0.93850278
-0.92787714
-0.91625585
-0.90396404
-0.89133188
-0.87899962
-0.86790013
-0.84947457
0.034300882
0.015865233
0.0047638136
-0.0076680124
-0.020467528
-0.032998099
-0.044923336
-0.055926756
-0.065566605
-0.073365302
-0.078776701
-0.081164843
-0.079833235
-0.074049028
-0.063048649
-0.046036604
-0.022181912
0.0093725014
0.04948402
0.098986237
0.15866179
0.22922427
0.31130693
0.40544488
0.51203972
0.63131023
0.76328297
0.90778558
1.0644385
1.232658
1.4116132
1.6002117
1.797158
2.0009725
2.2101166
2.4227217
2.6367733
2.8502257
3.0609337
3.2664566
3.4641592
3.6512537
3.8247986
3.9817867
4.1192164
4.2342038
4.3240765
4.3865197
4.4197427
4.4225056
4.3942365
4.3350175
4.2455878
4.1274032
3.982477
3.8133895
3.6230272
3.4145952
3.1913595
2.9566449
2.7136147
2.4653287
2.2145991
1.9640026
1.7158848
1.472378
1.2353978
1.0067958
0.78805792
0.58055975
0.38545015
0.20363485
0.035737063
-0.11787762
-0.25708538
-0.38192561
-0.492621
-0.58959645
-0.67344003
-0.74483887
-0.80459468
-0.85357384
-0.89269364
-0.92289069
-0.94509561
-0.96022228
-0.96918491
-0.97287585
-0.97210193
-0.96765838
-0.96025537
-0.95060443
-0.93922388
-0.92671257
-0.91349955
-0.89983824
-0.88610722
-0.87295334
-0.86134811
-0.84262818
0.039483581
0.020711404
0.0089820681
-0.0044323619
-0.018535946
-0.032673085
-0.046514028
-0.059747838
-0.071942787
-0.082605873
-0.091157716
-0.096941381
-0.099244191
-0.097304889
-0.090315538
-0.077418905
-0.057714201
-0.030273947
0.0058400723
0.051555594
0.1077577
0.17526681
0.25482289
0.34705987
0.45245802
0.57130605
0.70369137
0.8494864
1.0082873
1.1794249
1.3620097
1.5549094
1.7567528
1.9659813
2.1809385
2.3997768
2.620349
2.8405151
3.0580912
3.2705753
3.4752458
3.6692315
3.8494777
4.0128339
4.1561085
4.2762244
4.3703511
4.435997
4.4712189
4.4746958
4.4458058
4.3846345
4.29194
4.1692642
4.018778
3.8432718
3.6458351
3.429831
3.1987154
2.9560195
2.7050485
2.4489764
2.1907222
1.9328668
1.6778978
1.4280943
1.185444
0.95175113
0.72864235
0.51750313
0.31953846
0.13571338
-0.033340793
-0.18723395
-0.32582987
-0.44924545
-0.55779711
-0.65197453
-0.73246584
-0.80004274
-0.85560868
-0.90014343
-0.93467068
-0.96020618
-0.9777619
-0.98835876
-0.99294822
-0.99246772
-0.98778413
-0.97969885
-0.96899852
-0.95634705
-0.94231316
-0.92744551
-0.91219496
-0.89686013
-0.88173915
-0.86757523
-0.85532585
-0.83626109
0.044286442
0.025120726
0.0126176
-0.001974298
-0.017631004
-0.033691877
-0.049841043
-0.065779123
-0.081064257
-0.095177065
-0.10752313
-0.1174342
-0.12417297
-0.12693527
-0.12485378
-0.11700397
-0.10241336
-0.08006373
-0.048904402
-0.0078881224
0.04399695
0.10770743
0.18411914
0.27398695
0.3779077
0.49628092
0.62926482
0.77675453
0.93833963
1.113274
1.3005872
1.4990762
1.7072416
1.9233844
2.1457534
2.372398
2.6011091
2.8296588
3.0557966
3.2769702
3.4903831
3.6930349
3.8817237
4.0531258
4.2038327
4.3305108
4.4300977
4.4998861
4.5377198
4.5421695
4.5125521
4.4489522
4.3521614
4.2238176
4.0662842
3.8826091
3.6761917
3.4506399
3.2096209
2.9568822
2.6959697
2.430167
2.1624704
1.8956224
1.6321532
1.3744139
1.1244871
0.88429163
0.65553306
0.43968043
0.23798692
0.051484102
-0.11912913
-0.27345006
-0.41136932
-0.53306416
-0.63896491
-0.72965889
-0.80596657
-0.86879769
-0.91917237
-0.95821049
-0.98705475
-1.0068483
-1.01872
-1.0237641
-1.0230211
-1.0174784
-1.0080803
-0.99561286
-0.98088817
-0.96460621
-0.94737409
-0.92969418
-0.91201641
-0.89466984
-0.87792175
-0.86252576
-0.84950115
-0.83003456
0.04909318
0.029468438
0.016067125
0.00011485982
-0.017345591
-0.035655073
-0.05451998
-0.073634311
-0.092537073
-0.110702
-0.12753255
-0.14234507
-0.15436589
-0.16273715
-0.16653027
-0.16475553
-0.15635208
-0.1401829
-0.1150612
-0.079796902
-0.03322537
0.025775079
0.098251838
0.18513131
0.28717642
0.40492652
0.53862113
0.68816802
0.85314896
1.0327958
1.2260206
1.4314522
1.6474149
1.8720447
2.1034603
2.3394923
2.5778873
2.8163753
3.052651
3.2841077
3.5078522
3.7207791
3.9195473
4.1005949
4.2602618
4.394917
4.5011725
4.5760482
4.6171464
4.6228745
4.5924385
4.5259138
4.4241838
4.2890171
4.122969
3.9293549
3.7119995
3.4749081
3.2220464
2.9573383
2.6845277
2.4071648
2.1283095
1.8507909
1.5771972
1.3099074
1.0511733
0.80304558
0.56731736
0.34559955
0.13928411
-0.050526315
-0.22307096
-0.37792118
-0.51500759
-0.63457414
-0.73715863
-0.82352191
-0.89464412
-0.951608
-0.99561534
-1.0279537
-1.0499253
-1.0627938
-1.0678336
-1.0662453
-1.0591523
-1.0476198
-1.0326123
-1.0150033
-0.99555395
-0.97504439
-0.95406923
-0.93308271
-0.91257381
-0.89286843
-0.87424423
-0.85742194
-0.84348659
-0.82359654
0.054347717
0.034220462
0.019810085
0.0023130492
-0.017209127
-0.038102921
-0.060082458
-0.082829939
-0.10588674
-0.12873571
-0.15077622
-0.17130058
-0.18949005
-0.20443641
-0.21515937
-0.2205934
-0.21956243
-0.21079096
-0.19294574
-0.16467256
-0.12461422
-0.071440005
-0.0038831683
0.079214007
0.17882219
0.29563977
0.43002239
0.58193953
0.75097333
0.93630333
1.1366725
1.3504604
1.5757676
1.810523
2.0525651
2.2996372
2.549221
2.7991108
3.0469542
3.2901065
3.5256348
3.7503518
3.9607393
4.1529633
4.3230717
4.4670907
4.5812137
4.6621201
4.7071269
4.7144312
4.6831112
4.6132026
4.5056783
4.3624645
4.1863869
3.9810946
3.7508871
3.5002672
3.2335739
2.9550241
2.6685982
2.3779484
2.0862818
1.7965043
1.5112116
1.2328252
0.96378371
0.70626872
0.46221174
0.23346478
0.021617056
-0.17213334
-0.3469217
-0.50231116
-0.63825611
-0.75509723
-0.85352968
-0.9345102
-0.99923562
-1.0490313
-1.0853292
-1.1095917
-1.1233285
-1.127982
-1.124946
-1.1155721
-1.1010401
-1.0824986
-1.0609753
-1.0374125
-1.0125643
-0.98716595
-0.96183988
-0.93707437
-0.91334614
-0.89095555
-0.87021548
-0.8518142
-0.83680834
-0.81640807
0.060580924
0.039921132
0.024388014
0.0051563254
-0.016691234
-0.040491383
-0.065963608
-0.092802831
-0.12057068
-0.14875944
-0.17675733
-0.2038277
-0.22911814
-0.25168274
-0.27048486
-0.28436221
-0.29201194
-0.29201765
-0.28288659
-0.26306734
-0.23096593
-0.18498387
-0.12357168
-0.045295222
0.051068182
0.16643501
0.30134567
0.45589321
0.62965767
0.82169647
1.0305403
1.2542621
1.4906226
1.7372359
1.991644
2.2513471
2.5134494
2.7759441
3.0364796
3.292473
3.541009
3.7787819
4.0020891
4.2068747
4.3888422
4.5435656
4.6667545
4.7546544
4.8042101
4.8133985
4.7811682
4.7074483
4.5932548
4.4407097
4.2530222
4.0342877
3.7893145
3.5232103
3.2408925
2.946838
2.6452352
2.3398599
2.0339991
1.7305546
1.4321111
1.1411808
0.86031163
0.59187981
0.33811389
0.10112117
-0.11725161
-0.31558582
-0.49288785
-0.64867929
-0.78296399
-0.89625875
-0.98945284
-1.0637563
-1.1206436
-1.1617446
-1.1887416
-1.2033622
-1.2073345
-1.2023106
-1.189831
-1.1713606
-1.1482409
-1.1216293
-1.0926376
-1.0622181
-1.0312119
-1.0003269
-0.97009216
-0.94109128
-0.91374043
-0.88834062
-0.8652157
-0.84504362
-0.82891495
-0.80796272
0.068388865
0.047171019
0.030392087
0.0092323313
-0.015181156
-0.04218105
-0.071519768
-0.10292109
-0.13596832
-0.17015907
-0.2048683
-0.23934228
-0.27271871
-0.30401983
-0.33213425
-0.35579658
-0.37358735
-0.38394939
-0.38520262
-0.37555494
-0.35312888
-0.31600761
-0.26230088
-0.19023284
-0.098239334
0.014920682
0.15005159
0.3074025
0.48656081
0.68643382
0.9052718
1.1407319
1.3900612
1.650361
1.918828
2.1929953
2.4683084
2.7443148
3.01843
3.2880533
3.5502795
3.8018144
4.0389256
4.2573684
4.4524119
4.6190514
4.752448
4.8482929
4.9030638
4.9144793
4.8813392
4.8034342
4.6817644
4.5186309
4.3177008
4.083702
3.8222047
3.5389609
3.2394814
2.9286639
2.6107554
2.2895635
1.968471
1.6503
1.3374828
1.032616
0.73839404
0.45747893
0.19247406
-0.054124537
-0.28008273
-0.48363929
-0.66362837
-0.81953003
-0.95143594
-1.0600821
-1.1466339
-1.2126436
-1.2599185
-1.2904691
-1.3063018
-1.3094761
-1.3019694
-1.2856065
-1.2621668
-1.2332075
-1.2002414
-1.1644533
-1.1270146
-1.0888988
-1.0509244
-1.0138564
-0.97818849
-0.94449531
-0.91313889
-0.88444107
-0.85870239
-0.83657064
-0.81917986
-0.79763522
0.078411939
0.056612798
0.038459223
0.015206691
-0.011981317
-0.042463106
-0.076043615
-0.11247587
-0.15136088
-0.19220266
-0.2343798
-0.27714755
-0.31964136
-0.3608496
-0.39958877
-0.43450724
-0.4640807
-0.4865972
-0.50015597
-0.5026891
-0.49199827
-0.46580142
-0.42179202
-0.35774177
-0.27162189
-0.16173913
-0.026928998
0.13327256
0.31850406
0.52751185
0.75812867
1.0074138
1.2719035
1.5478788
1.8316917
2.1197001
2.4109825
2.7014207
2.9893671
3.2725806
3.5484211
3.8137473
4.0648429
4.2973418
4.5061444
4.6856584
4.8303261
4.9350267
4.9956796
5.0097151
4.9757802
4.8934715
4.763625
4.5886545
4.3728859
4.1219764
3.842387
3.5407879
3.2233099
2.8950949
2.5604947
2.2231721
1.8863234
1.5526896
1.2245798
0.90450242
0.595392
0.30031197
0.022360241
-0.23537476
-0.47008292
-0.67953896
-0.86232912
-1.0178745
-1.1464097
-1.2489416
-1.3270368
-1.3827085
-1.4181957
-1.43597
-1.4384779
-1.4280936
-1.4071151
-1.3776129
-1.3415548
-1.3006059
-1.2563854
-1.2102159
-1.163306
-1.1165875
-1.0708935
-1.0269606
-0.98531459
-0.94646656
-0.91077045
-0.87850819
-0.84991888
-0.82568563
-0.8069183
-0.78478381
0.091335626
0.068929977
0.049302675
0.02383196
-0.0063262613
-0.040569649
-0.078753706
-0.12066068
-0.16591167
-0.21403379
-0.26444089
-0.31641454
-0.36908272
-0.42140967
-0.47217726
-0.51996943
-0.56314999
-0.59983669
-0.62789688
-0.64497204
-0.64850648
-0.63577987
-0.60396285
-0.55023791
-0.47197508
-0.36689557
-0.23331001
-0.070401343
0.12158836
0.34121467
0.58577978
0.85147712
1.1337567
1.4278286
1.7291824
2.0340659
2.3399754
2.6442724
2.9450672
3.2407097
3.5289705
3.8068202
4.0707131
4.3165518
4.5390005
4.7317626
4.8883924
5.0028217
5.0702052
5.087392
5.0529336
4.966129
4.827424
4.6394944
4.4075109
4.138274
3.8395536
3.5192292
3.1840394
2.8390573
2.4885053
2.1358332
1.783691
1.4343743
1.0902842
0.75397733
0.42845378
0.11726862
-0.17567147
-0.44637264
-0.69121598
-0.90732163
-1.0929039
-1.2473463
-1.3710973
-1.4655441
-1.532824
-1.5755793
-1.5966277
-1.5989528
-1.5855319
-1.5591512
-1.5224418
-1.4777648
-1.4272473
-1.3726976
-1.3158328
-1.2580515
-1.2006117
-1.1444051
-1.0902208
-1.0387749
-0.99061631
-0.94616605
-0.90579565
-0.86973054
-0.83812728
-0.81165514
-0.79138708
-0.76864686
0.10789814
0.084889889
0.063709909
0.035915868
0.0026054052
-0.035658352
-0.078772861
-0.12655357
-0.17866248
-0.23467746
-0.29406568
-0.35614303
-0.4200526
-0.48476388
-0.54905716
-0.61146797
-0.67024667
-0.72334675
-0.76842005
-0.80280994
-0.82355001
-0.82738904
-0.81086331
-0.77042631
-0.70266497
-0.60452641
-0.47357588
-0.30842022
-0.10904919
0.12290847
0.38406746
0.66942365
0.97284264
1.2879247
1.6088683
1.9311952
2.2519581
2.5689066
2.8805923
3.1861007
3.4835966
3.7702552
4.0432508
4.2995806
4.5341316
4.7398552
4.9090884
5.0341788
5.108867
5.1296719
5.0951368
5.0042241
4.8566709
4.654781
4.4050191
4.1161914
3.7980975
3.4603342
3.1100031
2.7512764
2.3874003
2.0214714
1.6556897
1.2916004
0.93145563
0.57797742
0.23434028
-0.095245857
-0.40571623
-0.69172693
-0.94839338
-1.1719379
-1.3600971
-1.5122514
-1.6292166
-1.7129751
-1.7664463
-1.7930459
-1.7963439
-1.7800104
-1.7476171
-1.7024387
-1.6474412
-1.5853084
-1.5183905
-1.4485728
-1.3775831
-1.3069342
-1.2378637
-1.1712615
-1.1078863
-1.0483466
-0.99316695
-0.94274007
-0.89738966
-0.85727617
-0.82251097
-0.79366454
-0.77181845
-0.74847544
0.12891207
0.10531121
0.082541638
0.05231349
0.015697773
-0.026795942
-0.075113388
-0.12911743
-0.18853915
-0.25302681
-0.32210382
-0.39514492
-0.4713615
-0.54976795
-0.62915235
-0.70801957
-0.78454257
-0.85654971
-0.92149798
-0.97641751
-1.0178722
-1.042004
-1.044622
-1.0213102
-0.96762239
-0.87941033
-0.75322048
-0.58677833
-0.37957475
-0.13329859
0.14780698
0.45705527
0.78602223
1.1258603
1.4688472
1.8094202
2.1442597
2.4717241
2.7909732
3.1013061
3.4014194
3.6891714
3.9632064
4.2231885
4.4648622
4.68055
4.8622466
5.0002984
5.0851585
5.1114082
5.0777859
4.9827252
4.824596
4.6065955
4.3378306
4.0299255
3.6946877
3.3438433
2.9848768
2.6195153
2.2485938
1.8740147
1.4974972
1.1203592
0.74474826
0.37325736
0.0094973824
-0.34139895
-0.67271857
-0.97705123
-1.2476723
-1.4795042
-1.6696984
-1.8177717
-1.9251638
-1.9947633
-2.0304992
-2.0368389
-2.018349
-1.979553
-1.9246301
-1.857411
-1.7812804
-1.6992234
-1.6137345
-1.5268912
-1.4403557
-1.3555578
-1.2738365
-1.1959787
-1.1227329
-1.054551
-0.99191208
-0.9351674
-0.88456622
-0.84021162
-0.80216604
-0.77085337
-0.74736629
-0.72343335
0.15523412
0.13106844
0.10668031
0.073942082
0.033913929
-0.012957197
-0.066688043
-0.12721245
-0.19434358
-0.26781126
-0.34722016
-0.43204648
-0.52161248
-0.61501626
-0.71107629
-0.80830801
-0.90487535
-0.99853406
-1.0865601
-1.165662
-1.2319229
-1.2808432
-1.3074092
-1.3061496
-1.2713093
-1.1972623
-1.0790829
-0.91312404
-0.69791959
-0.43500095
-0.12956925
0.20934477
0.56984947
0.93938256
1.307464
1.6672433
2.0152693
2.3503477
2.6713797
2.9780525
3.2688181
3.5415301
3.7984267
4.0476728
4.2899018
4.5157331
4.712813
4.8661979
4.9615505
4.9939272
4.9630297
4.8662399
4.6993459
4.4632451
4.1709625
3.840368
3.4902909
3.1368883
2.7851668
2.428644
2.0626107
1.6876173
1.3054335
0.91730975
0.52677107
0.1364117
-0.24987752
-0.62586799
-0.98249274
-1.3092553
-1.5966177
-1.8376559
-2.0289147
-2.1702831
-2.264165
-2.3148435
-2.3277141
-2.3086634
-2.2634693
-2.1976037
-2.116048
-2.0232215
-1.9228538
-1.8182
-1.7119037
-1.6061093
-1.5025228
-1.4024074
-1.307042
-1.21712
-1.1333554
-1.0560849
-0.98567742
-0.92234897
-0.86630337
-0.81758994
-0.77613052
-0.74231416
-0.71718248
-0.69267147
0.18774318
0.16306495
0.13703975
0.10177828
0.058289707
0.0069539168
-0.052335585
-0.11960082
-0.19474369
-0.27759796
-0.36789971
-0.46527043
-0.5691642
-0.67879688
-0.79308808
-0.91063883
-1.0296743
-1.1479281
-1.2625286
-1.3699027
-1.4657141
-1.544827
-1.6012947
-1.6283829
-1.6187434
-1.5648268
-1.4595697
-1.2972268
-1.0745457
-0.79237664
-0.45687642
-0.080126799
0.32075074
0.72716093
1.1243364
1.5042157
1.8642882
2.203485
2.520087
2.8104971
3.0722628
3.3009176
3.5050964
3.7095366
3.9246709
4.1491439
4.3723249
4.5590577
4.6774331
4.7244008
4.6996274
4.5986931
4.4151021
4.1450937
3.8160347
3.4670219
3.1212351
2.7919676
2.4789557
2.1611262
1.821073
1.4587057
1.0755362
0.67966681
0.2748121
-0.13537524
-0.54734434
-0.95391301
-1.3424385
-1.6974679
-2.0052054
-2.2563222
-2.4468333
-2.5774368
-2.6522605
-2.6776523
-2.661075
-2.6101702
-2.5322391
-2.4338976
-2.3210022
-2.198516
-2.0705287
-1.9404786
-1.8110806
-1.684496
-1.5623008
-1.4457333
-1.3358303
-1.2332253
-1.1383976
-1.0516233
-0.97315411
-0.90306668
-0.84145389
-0.7883026
-0.74339531
-0.70706917
-0.6803137
-0.65527798
0.22733321
0.20220046
0.1745824
0.13683038
0.089898971
0.034080357
-0.030830416
-0.10494612
-0.1882834
-0.28082049
-0.38246556
-0.4930128
-0.61208328
-0.7390664
-0.87307569
-1.0128862
-1.1568467
-1.3027391
-1.4476454
-1.5878335
-1.7186408
-1.8343294
-1.9279656
-1.9914026
-2.0154005
-1.9899383
-1.9049164
-1.7514254
-1.5232971
-1.2195812
-0.84707481
-0.42172408
0.031770853
0.48586243
0.91961563
1.3229101
1.6952179
2.0381216
2.345481
2.6008421
2.7936732
2.9130608
2.9964467
3.1118004
3.2687196
3.4759509
3.7414675
3.9971251
4.1717034
4.2467042
4.2331113
4.1245489
3.8990228
3.5644139
3.1788171
2.8130575
2.4880766
2.2178316
2.0059735
1.7957905
1.5244888
1.194996
0.81439391
0.40917587
-0.01230814
-0.44581812
-0.88881868
-1.3338593
-1.7635183
-2.1546023
-2.4870881
-2.7485555
-2.934828
-3.048397
-3.0962752
-3.0877787
-3.0331819
-2.9424282
-2.8245624
-2.6874681
-2.5378935
-2.3813593
-2.2221495
-2.0638122
-1.9090518
-1.759888
-1.6177102
-1.4836543
-1.3584641
-1.2426084
-1.1363238
-1.0397795
-0.95305146
-0.87611346
-0.80893311
-0.75131619
-0.70298098
-0.66419063
-0.63586543
-0.61037437
0.2748922
0.24940295
0.22026294
0.18011233
0.12983002
0.069600822
-0.00087847733
-0.081827731
-0.1734117
-0.27578944
-0.38906521
-0.51323628
-0.64814848
-0.79344656
-0.94852022
-1.112404
-1.2836528
-1.4602243
-1.6393315
-1.8172634
-1.9891674
-2.1488109
-2.2883566
-2.3982013
-2.4669091
-2.4813715
-2.4274473
-2.2914269
-2.0623167
-1.7354367
-1.3170706
-0.82846282
-0.30724435
0.20563692
0.68443211
1.1210283
1.5161314
1.8694073
2.1660576
2.3741829
2.4403124
2.3000381
2.0770576
1.9649398
2.0059621
2.2534939
2.6852288
3.0854071
3.3410025
3.4726518
3.4790744
3.348765
3.0696628
2.6110374
2.0559434
1.6016624
1.327036
1.2319267
1.2766584
1.3321082
1.1971603
0.90428148
0.53309905
0.1080467
-0.34232612
-0.80666592
-1.2855654
-1.7770911
-2.2597707
-2.6975584
-3.0602771
-3.3312459
-3.5072009
-3.5941873
-3.603788
-3.5497345
-3.4460355
-3.3055276
-3.1392076
-2.9562237
-2.7641002
-2.568774
-2.3746873
-2.1851828
-2.0028559
-1.8294809
-1.6661927
-1.5137622
-1.372734
-1.2432772
-1.1254002
-1.0190024
-0.92399281
-0.84021336
-0.76751397
-0.70553529
-0.65387291
-0.61270481
-0.58287674
-0.55705095
0.33130383
0.30557101
0.27504762
0.23264288
0.17918099
0.114726
0.038861755
-0.048767504
-0.14850016
-0.26069173
-0.38566769
-0.52368019
-0.67486883
-0.83921264
-1.0164402
-1.2059378
-1.4066094
-1.6167798
-1.8340117
-2.0548228
-2.2744121
-2.486332
-2.6820902
-2.8507223
-2.9784336
-3.0485245
-3.041774
-2.9375842
-2.7170033
-2.3676113
-1.891212
-1.3143301
-0.6957678
-0.10399724
0.42485861
0.89797616
1.3358865
1.7308018
2.0247942
2.1547074
2.0624616
1.3854368
0.53391165
-0.12636366
-0.51823118
-0.20008837
0.72972798
1.5067476
1.9994447
2.3133059
2.3539747
2.1022347
1.6347493
0.8499917
-0.19030771
-0.81727687
-0.79776542
-0.42446097
0.13315403
0.80516745
0.88026223
0.6563085
0.26195035
-0.21942885
-0.7176579
-1.2176702
-1.7354791
-2.2881355
-2.8468669
-3.3497101
-3.7501565
-4.0273266
-4.1821111
-4.2275595
-4.1826401
-4.067447
-3.9006186
-3.6982591
-3.4735409
-3.2367279
-2.9958111
-2.7568576
-2.5242122
-2.3009015
-2.0890641
-1.8901355
-1.7048457
-1.5335256
-1.3763607
-1.2331705
-1.1037241
-0.98759988
-0.88447667
-0.79407331
-0.71602763
-0.64987707
-0.59509218
-0.55168034
-0.52046991
-0.49443867
0.39741806
0.3716053
0.33986698
0.29543504
0.23905654
0.1706779
0.089746014
-0.0042525632
-0.11184436
-0.23359723
-0.37009275
-0.52189288
-0.68949062
-0.87325801
-1.0733366
-1.2895798
-1.5214393
-1.7678181
-2.0268591
-2.2956136
-2.5697243
-2.8429792
-3.1066662
-3.348825
-3.5535358
-3.700377
-3.7641014
-3.7152885
-3.5232799
-3.1620432
-2.6231123
-1.9324259
-1.1746204
-0.47334767
0.12310156
0.65304398
1.1701958
1.6882645
2.067036
2.0978399
1.7125864
-0.099863918
-2.3124308
-4.1751026
-5.3812153
-4.5084186
-2.3938756
-0.89728049
0.17620265
0.92351814
1.0165086
0.43306069
-0.54158668
-1.9270614
-3.9772496
-5.2025977
-4.6789107
-3.2461814
-1.1740457
0.37210848
0.73920424
0.56457458
0.067985239
-0.55162065
-1.1462679
-1.7078879
-2.2680943
-2.9005609
-3.5675528
-4.1572637
-4.5974893
-4.8687417
-4.9818841
-4.9624399
-4.8401184
-4.6431489
-4.3957185
-4.117346
-3.8230288
-3.5238517
-3.2278215
-2.9406348
-2.6661395
-2.4067392
-2.1638807
-1.9384588
-1.7306003
-1.5401587
-1.3668161
-1.2100558
-1.069271
-0.9437713
-0.83293556
-0.73627898
-0.65323844
-0.58324341
-0.5256275
-0.48022275
-0.44779982
-0.42172308
0.47403423
0.44834749
0.41562573
0.36947772
0.31054956
0.23866582
0.15312871
0.053253402
-0.061687518
-0.19249685
-0.34004775
-0.50525125
-0.68899382
-0.8920868
-1.1151993
-1.3587892
-1.6230396
-1.9076485
-2.2116091
-2.5329365
-2.868242
-3.2121355
-3.5563962
-3.8889221
-4.1924886
-4.4434059
-4.6101118
-4.6527036
-4.5243524
-4.1795704
-3.5899608
-2.7754827
-1.8775869
-1.1587996
-0.55831159
0.14614407
0.92521319
1.8229249
2.4390587
2.5159112
0.9113066
-3.9121801
-9.4485024
-14.94324
-17.857244
-13.857154
-7.9195041
-4.4881952
-1.9490105
-0.041061361
0.13752239
-1.4403465
-3.7236218
-6.7350412
-12.141611
-16.62707
-15.063797
-10.325127
-5.1449806
-0.40927945
1.217729
0.85426566
0.092406977
-1.0100514
-1.8883755
-2.5857342
-3.1043159
-3.7358212
-4.5081804
-5.1926878
-5.6581424
-5.8947405
-5.9315173
-5.8121518
-5.58089
-5.2757726
-4.9267786
-4.5563229
-4.1805128
-3.8103008
-3.4530895
-3.1135593
-2.7945308
-2.4973871
-2.2226747
-1.9703814
-1.7399659
-1.5306698
-1.3415769
-1.1717476
-1.0201646
-0.8858296
-0.76787552
-0.66550615
-0.57796568
-0.50456501
-0.44448304
-0.39742729
-0.36404638
-0.33811074
0.56189733
0.53658196
0.50317244
0.45568815
0.39469421
0.31986011
0.23033874
0.12527607
0.0037323276
-0.13535196
-0.29316451
-0.47098651
-0.67012596
-0.89189232
-1.1375951
-1.4084391
-1.7054735
-2.0294195
-2.3804791
-2.7581005
-3.1604401
-3.583702
-4.0212611
-4.4623249
-4.8899983
-5.2788845
-5.592457
-5.7795527
-5.7732344
-5.4995227
-4.8762893
-3.9273606
-2.8625729
-2.266182
-1.7853607
-0.81385161
0.48153836
1.95002
2.8889552
2.7824917
-1.7074303
-10.373943
-20.863927
-30.658364
-39.912643
-30.441654
-18.059686
-10.506939
-4.3655513
0.54458696
0.83753967
-3.4930535
-9.1825048
-15.960752
-27.441028
-37.722194
-31.782611
-23.267831
-12.281659
-3.037629
1.5673159
1.184123
-0.14302386
-1.8837439
-3.1755196
-4.0511616
-4.3852589
-4.8744632
-5.7558549
-6.5377882
-6.9997807
-7.150973
-7.0565712
-6.786909
-6.4047901
-5.9590208
-5.4843535
-5.0046159
-4.5353937
-4.0862209
-3.6626741
-3.2677035
-2.9024655
-2.56692
-2.260335
-1.9815702
-1.729238
-1.5018921
-1.2979586
-1.1159485
-0.95444231
-0.81210148
-0.68778557
-0.58042294
-0.48905472
-0.41280274
-0.35073723
-0.30244437
-0.26843476
-0.24289366
0.66167996
0.63699696
0.60325219
0.55491019
0.49244295
0.41534786
0.32262949
0.21327478
0.086129286
-0.060143496
-0.22705545
-0.41625637
-0.62950503
-0.86867924
-1.1357908
-1.4328982
-1.762045
-2.1252133
-2.5241756
-2.9602347
-3.4337349
-3.9434554
-4.4857874
-5.0531937
-5.6318433
-6.1982201
-6.7152211
-7.124822
-7.3438912
-7.259759
-6.7307746
-5.7238394
-4.2545636
-3.0434294
-2.408263
-1.1983847
0.66296034
2.9877868
4.0377858
2.5718605
-2.6936855
-5.557182
-3.4833495
-54.35877
-61.923722
-46.735178
-32.27734
-20.594031
-6.9625385
4.8675336
5.2388254
-5.6110979
-18.784136
-29.462106
-42.806682
-59.478069
-56.511643
-18.330952
-12.675868
-6.7118633
-0.48279132
1.400449
0.86635802
-2.1077613
-3.9052965
-5.1646806
-5.5666459
-6.3670983
-7.5093909
-8.3849835
-8.72943
-8.6986039
-8.381588
-7.8888958
-7.30203
-6.6777316
-6.0518383
-5.4461819
-4.8731121
-4.3388016
-3.8456313
-3.3937746
-2.9820963
-2.6086844
-2.2711989
-1.9672735
-1.6944353
-1.4504806
-1.2331391
-1.040326
-0.87016634
-0.7209978
-0.59133672
-0.47989396
-0.38551802
-0.30711089
-0.24363934
-0.19457645
-0.16028666
-0.13542348
0.77391036
0.75017149
0.71650276
0.66787755
0.60463117
0.52608736
0.43113084
0.31859683
0.18710908
0.035054076
-0.13939494
-0.33825172
-0.56374976
-0.81837905
-1.1048683
-1.4261804
-1.7855077
-2.1862733
-2.6320391
-3.1263365
-3.6723932
-4.2726574
-4.9280058
-5.6364034
-6.3906676
-7.1745942
-7.9587789
-8.6913779
-9.2861414
-9.6244789
-9.6478669
-8.7988739
-6.8298694
-4.4538743
1.6283227
1.7252398
2.1455513
5.2720053
8.1347818
5.0084793
3.7536726
35.031246
17.51765
-50.698766
-59.956704
-39.445429
-42.90036
-39.757663
-11.438181
17.364712
18.250623
-9.417915
-37.915935
-39.011331
-33.450496
-57.570379
-51.092046
-12.123892
32.999707
-5.8349712
-0.0001257336
4.9788205
3.4424808
-0.96471405
-0.12723416
-3.2139809
-7.0836078
-8.6767487
-10.26072
-11.160644
-10.987202
-10.588789
-9.9113606
-9.0990681
-8.2451773
-7.4036474
-6.6032509
-5.8584186
-5.1746148
-4.5522043
-3.9889061
-3.4811245
-3.0247771
-2.6156385
-2.2495781
-1.9227752
-1.6316999
-1.3732187
-1.1444009
-0.94259444
-0.76545681
-0.61094195
-0.47723712
-0.36285589
-0.26642802
-0.18670017
-0.12251413
-0.073212903
-0.039034416
-0.015163362
0.89895755
0.87655559
0.8434501
0.79517357
0.73192923
0.6528785
0.55681655
0.44242691
0.30811035
0.15200434
-0.028008145
-0.2343073
-0.46960493
-0.73698395
-1.0398907
-1.3822139
-1.7683661
-2.2032742
-2.6923859
-3.2417585
-3.8580383
-4.5481943
-5.3190829
-6.1765617
-7.1236108
-8.1569064
-9.2644156
-10.413753
-11.540255
-12.593379
-13.679646
-13.187174
-11.13603
-7.8816596
-3.4349503
5.129816
5.1461285
5.8361696
13.16683
14.400248
17.095814
60.430204
43.734986
-17.298182
-19.895478
-21.969492
520.28297
1584.6324
1580.1406
947.76375
908.52422
1473.6971
1478.3347
448.77939
-13.015521
-18.955589
-22.773234
32.605073
46.191141
6.907815
9.2209762
11.462566
8.4557187
2.7701847
1.0065159
-4.0263205
-10.474775
-12.491542
-14.329641
-14.959575
-13.958412
-12.80602
-11.592377
-10.361203
-9.1830304
-8.0934631
-7.1027191
-6.2121986
-5.4166729
-4.708085
-4.0779609
-3.5182432
-3.0213563
-2.5804961
-2.189623
-1.8433885
-1.5372188
-1.2670534
-1.0292769
-0.82071138
-0.63859908
-0.48050841
-0.34434737
-0.22837406
-0.13101995
-0.050918441
0.013186355
0.062119532
0.09572229
0.11821604
1.0370723
1.0164626
0.98446422
0.9372108
0.87482495
0.79634408
0.70046941
0.58573505
0.45035219
0.29224534
0.10903274
-0.10202349
-0.3440737
-0.62073568
-0.93616141
-1.2951505
-1.7032423
-2.1667909
-2.6931428
-3.2909771
-3.9705926
-4.7437843
-5.6245635
-6.6288677
-7.7732386
-9.0721423
-10.53849
-12.167746
-13.938674
-15.871703
-17.915872
-17.922309
-16.472411
-13.924613
-8.619017
-3.9701401
4.7001874
8.6173375
16.161434
19.434294
14.768745
91.186418
117.32596
137.041
627.98483
2719.1799
5348.7615
6584.1154
5633.4404
4261.6339
4209.2688
5513.5945
6422.8907
5080.9291
2402.1646
453.16885
115.63659
108.27615
58.152352
5.8248288
16.817062
15.469097