# Region type : patch outlet
# Faces  :      10
# Area   :      1.00000000e-01
# Time          	sum(phi)
0               	0.00000000e+00
0.05            	9.99990723e-02
0.1             	1.00000067e-01
0.15            	1.00000024e-01
0.2             	1.00000002e-01
0.25            	9.99999803e-02
0.3             	1.00000010e-01
0.35            	1.00000011e-01
0.4             	1.00000006e-01
0.45            	1.00000005e-01
0.5             	1.00000005e-01
0.55            	1.00000004e-01
0.6             	1.00000004e-01
0.65            	1.00000003e-01
0.7             	1.00000003e-01
0.75            	1.00000003e-01
0.8             	1.00000003e-01
0.85            	1.00000003e-01
0.9             	1.00000003e-01
0.95            	1.00000002e-01
1               	1.00000011e-01
1.05            	1.00000009e-01
1.1             	1.00000007e-01
1.15            	1.00000006e-01
1.2             	1.00000004e-01
1.25            	1.00000003e-01
1.3             	1.00000002e-01
1.35            	1.00000002e-01
1.4             	1.00000001e-01
1.45            	1.00000001e-01
1.5             	1.00000001e-01
1.55            	1.00000001e-01
1.6             	1.00000001e-01
1.65            	1.00000007e-01
1.7             	1.00000007e-01
1.75            	1.00000006e-01
1.8             	1.00000006e-01
1.85            	1.00000006e-01
1.9             	1.00000005e-01
1.95            	1.00000005e-01
2               	1.00000005e-01
2.05            	1.00000004e-01
2.1             	1.00000004e-01
2.15            	1.00000004e-01
2.2             	1.00000003e-01
2.25            	1.00000003e-01
2.3             	1.00000003e-01
2.35            	1.00000003e-01
2.4             	1.00000003e-01
2.45            	1.00000003e-01
2.5             	1.00000003e-01
2.55            	1.00000002e-01
2.6             	1.00000002e-01
2.65            	1.00000002e-01
2.7             	1.00000002e-01
2.75            	1.00000002e-01
2.8             	1.00000005e-01
2.85            	1.00000005e-01
2.9             	1.00000005e-01
2.95            	1.00000004e-01
3               	1.00000004e-01
3.05            	1.00000004e-01
3.1             	1.00000004e-01
3.15            	1.00000004e-01
3.2             	1.00000003e-01
3.25            	1.00000003e-01
3.3             	1.00000003e-01
3.35            	1.00000003e-01
3.4             	1.00000003e-01
3.45            	1.00000002e-01
3.5             	1.00000003e-01
3.55            	1.00000002e-01
3.6             	1.00000002e-01
3.65            	1.00000002e-01
3.7             	1.00000002e-01
3.75            	1.00000002e-01
3.8             	1.00000002e-01
3.85            	1.00000002e-01
3.9             	1.00000002e-01
3.95            	1.00000002e-01
4               	1.00000002e-01
4.05            	1.00000002e-01
4.1             	1.00000002e-01
4.15            	1.00000002e-01
4.2             	1.00000001e-01
4.25            	1.00000001e-01
4.3             	1.00000001e-01
4.35            	1.00000001e-01
4.4             	1.00000001e-01
4.45            	1.00000001e-01
4.5             	1.00000001e-01
4.55            	1.00000001e-01
4.6             	1.00000001e-01
4.65            	1.00000001e-01
4.7             	1.00000001e-01
4.75            	1.00000001e-01
4.8             	1.00000001e-01
4.85            	1.00000001e-01
4.9             	1.00000001e-01
4.95            	1.00000001e-01
5               	1.00000001e-01
5.05            	1.00000001e-01
5.1             	1.00000001e-01
5.15            	1.00000001e-01
5.2             	1.00000001e-01
5.25            	1.00000001e-01
5.3             	1.00000011e-01
5.35            	1.00000007e-01
5.4             	1.00000010e-01
5.45            	1.00000008e-01
5.5             	1.00000008e-01
5.55            	1.00000008e-01
5.6             	1.00000007e-01
5.65            	1.00000007e-01
5.7             	1.00000007e-01
5.75            	1.00000007e-01
5.8             	1.00000007e-01
5.85            	1.00000006e-01
5.9             	1.00000006e-01
5.95            	1.00000006e-01
6               	1.00000006e-01
6.05            	1.00000006e-01
6.1             	1.00000005e-01
6.15            	1.00000005e-01
6.2             	1.00000005e-01
6.25            	1.00000005e-01
6.3             	1.00000005e-01
6.35            	1.00000005e-01
6.4             	1.00000005e-01
6.45            	1.00000004e-01
6.5             	1.00000004e-01
6.55            	1.00000004e-01
6.6             	1.00000004e-01
6.65            	1.00000004e-01
6.7             	1.00000003e-01
6.75            	1.00000004e-01
6.8             	1.00000003e-01
6.85            	1.00000003e-01
6.9             	1.00000003e-01
6.95            	1.00000002e-01
7               	1.00000004e-01
7.05            	1.00000002e-01
7.1             	1.00000003e-01
7.15            	1.00000003e-01
7.2             	1.00000002e-01
7.25            	1.00000003e-01
7.3             	1.00000001e-01
7.35            	1.00000003e-01
7.4             	1.00000002e-01
7.45            	1.00000002e-01
7.5             	1.00000003e-01
7.55            	1.00000001e-01
7.6             	1.00000004e-01
7.65            	1.00000001e-01
7.7             	1.00000002e-01
7.75            	1.00000003e-01
7.8             	1.00000001e-01
7.85            	1.00000003e-01
7.9             	1.00000001e-01
7.95            	1.00000003e-01
8               	1.00000002e-01
8.05            	1.00000001e-01
8.1             	1.00000002e-01
8.15            	1.00000000e-01
8.2             	1.00000002e-01
8.25            	1.00000001e-01
8.3             	1.00000001e-01
8.35            	1.00000001e-01
8.4             	9.99999998e-02
8.45            	1.00000001e-01
8.5             	9.99999998e-02
8.55            	9.99999999e-02
8.6             	1.00000000e-01
8.65            	9.99999993e-02
8.7             	1.00000008e-01
8.75            	9.99999971e-02
8.8             	9.99999982e-02
8.85            	1.00000011e-01
8.9             	9.99999946e-02
8.95            	1.00000000e-01
9               	1.00000011e-01
9.05            	9.99999939e-02
9.1             	9.99999991e-02
9.15            	1.00000007e-01
9.2             	9.99999946e-02
9.25            	9.99999993e-02
9.3             	1.00000005e-01
9.35            	9.99999945e-02
9.4             	9.99999878e-02
9.45            	9.99999994e-02
9.5             	9.99999961e-02
9.55            	9.99999929e-02
9.6             	9.99999979e-02
9.65            	9.99999999e-02
9.7             	9.99999995e-02
9.75            	9.99999968e-02
9.8             	9.99999941e-02
9.85            	9.99999985e-02
9.9             	9.99999969e-02
9.95            	9.99999938e-02
10              	9.99999977e-02
10.05           	1.00000001e-01
10.1            	9.99999990e-02
10.15           	9.99999920e-02
10.2            	9.99999977e-02
10.25           	1.00000003e-01
10.3            	1.00000001e-01
10.35           	9.99999980e-02
10.4            	9.99999908e-02
10.45           	9.99999979e-02
10.5            	1.00000001e-01
10.55           	9.99999990e-02
10.6            	9.99999987e-02
10.65           	9.99999937e-02
10.7            	9.99999977e-02
10.75           	9.99999999e-02
10.8            	9.99999986e-02
10.85           	9.99999953e-02
10.9            	9.99999982e-02
10.95           	9.99999990e-02
11              	9.99999979e-02
11.05           	9.99999944e-02
11.1            	9.99999889e-02
11.15           	9.99999992e-02
11.2            	1.00000002e-01
11.25           	1.00000002e-01
11.3            	1.00000001e-01
11.35           	9.99999996e-02
11.4            	1.00000001e-01
11.45           	9.99999972e-02
11.5            	9.99999964e-02
11.55           	9.99999986e-02
11.6            	1.00000000e-01
11.65           	1.00000001e-01
11.7            	1.00000000e-01
11.75           	9.99999985e-02
11.8            	9.99999961e-02
11.85           	9.99999933e-02
11.9            	9.99999903e-02
11.95           	9.99999873e-02
12              	9.99999843e-02
12.05           	9.99999817e-02
12.1            	9.99999792e-02
12.15           	9.99999998e-02
12.2            	1.00000001e-01
12.25           	9.99999983e-02
12.3            	9.99999971e-02
12.35           	1.00000004e-01
12.4            	9.99999974e-02
12.45           	9.99999936e-02
12.5            	9.99999903e-02
12.55           	9.99999862e-02
12.6            	9.99999986e-02
12.65           	1.00000002e-01
12.7            	1.00000002e-01
12.75           	1.00000003e-01
12.8            	1.00000002e-01
12.85           	9.99999980e-02
12.9            	9.99999956e-02
12.95           	9.99999924e-02
13              	9.99999894e-02
13.05           	9.99999983e-02
13.1            	1.00000002e-01
13.15           	1.00000004e-01
13.2            	1.00000007e-01
13.25           	1.00000002e-01
13.3            	9.99999975e-02
13.35           	9.99999947e-02
13.4            	9.99999913e-02
13.45           	9.99999977e-02
13.5            	1.00000002e-01
13.55           	1.00000005e-01
13.6            	1.00000008e-01
13.65           	1.00000002e-01
13.7            	9.99999976e-02
13.75           	9.99999948e-02
13.8            	9.99999916e-02
13.85           	9.99999978e-02
13.9            	1.00000002e-01
13.95           	1.00000005e-01
14              	1.00000008e-01
14.05           	1.00000002e-01
14.1            	9.99999980e-02
14.15           	9.99999953e-02
14.2            	9.99999921e-02
14.25           	9.99999980e-02
14.3            	1.00000002e-01
14.35           	1.00000004e-01
14.4            	1.00000008e-01
14.45           	1.00000002e-01
14.5            	9.99999981e-02
14.55           	9.99999969e-02
14.6            	9.99999938e-02
14.65           	9.99999978e-02
14.7            	1.00000002e-01
14.75           	1.00000003e-01
14.8            	1.00000005e-01
14.85           	1.00000002e-01
14.9            	9.99999983e-02
14.95           	9.99999968e-02
15              	9.99999949e-02
15.05           	9.99999917e-02
15.1            	9.99999977e-02
15.15           	1.00000002e-01
15.2            	1.00000004e-01
15.25           	1.00000007e-01
15.3            	1.00000002e-01
15.35           	9.99999984e-02
15.4            	9.99999967e-02
15.45           	9.99999943e-02
15.5            	9.99999979e-02
15.55           	1.00000006e-01
15.6            	1.00000003e-01
15.65           	1.00000001e-01
15.7            	9.99999996e-02
15.75           	9.99999976e-02
15.8            	9.99999989e-02
15.85           	1.00000002e-01
15.9            	9.99999996e-02
15.95           	1.00000000e-01
16              	1.00000000e-01
16.05           	1.00000000e-01
16.1            	1.00000001e-01
16.15           	1.00000001e-01
16.2            	9.99999998e-02
16.25           	9.99999999e-02
16.3            	1.00000000e-01
16.35           	1.00000000e-01
16.4            	1.00000000e-01
16.45           	9.99999999e-02
16.5            	1.00000000e-01
16.55           	1.00000000e-01
16.6            	9.99999994e-02
16.65           	9.99999991e-02
16.7            	1.00000000e-01
16.75           	1.00000000e-01
16.8            	1.00000000e-01
16.85           	1.00000001e-01
16.9            	1.00000000e-01
16.95           	1.00000000e-01
17              	1.00000000e-01
17.05           	1.00000000e-01
17.1            	1.00000000e-01
17.15           	1.00000000e-01
17.2            	1.00000000e-01
17.25           	1.00000000e-01
17.3            	9.99999996e-02
17.35           	9.99999995e-02
17.4            	9.99999998e-02
17.45           	9.99999996e-02
17.5            	1.00000000e-01
17.55           	1.00000001e-01
17.6            	1.00000000e-01
17.65           	1.00000000e-01
17.7            	1.00000000e-01
17.75           	1.00000000e-01
17.8            	1.00000000e-01
17.85           	1.00000000e-01
17.9            	1.00000000e-01
17.95           	9.99999998e-02
18              	9.99999995e-02
18.05           	9.99999996e-02
18.1            	9.99999996e-02
18.15           	1.00000000e-01
18.2            	1.00000000e-01
18.25           	1.00000000e-01
18.3            	1.00000000e-01
18.35           	1.00000000e-01
18.4            	1.00000000e-01
18.45           	1.00000000e-01
18.5            	9.99999999e-02
18.55           	1.00000001e-01
18.6            	1.00000000e-01
18.65           	1.00000000e-01
18.7            	9.99999999e-02
18.75           	9.99999998e-02
18.8            	9.99999998e-02
18.85           	9.99999998e-02
18.9            	9.99999997e-02
18.95           	9.99999998e-02
19              	9.99999999e-02
19.05           	1.00000000e-01
19.1            	1.00000000e-01
19.15           	1.00000000e-01
19.2            	1.00000000e-01
19.25           	1.00000000e-01
19.3            	1.00000000e-01
19.35           	9.99999999e-02
19.4            	9.99999999e-02
19.45           	1.00000001e-01
19.5            	1.00000002e-01
19.55           	1.00000002e-01
19.6            	1.00000001e-01
19.65           	9.99999991e-02
19.7            	9.99999986e-02
19.75           	1.00000001e-01
19.8            	1.00000003e-01
19.85           	1.00000004e-01
19.9            	1.00000003e-01
19.95           	9.99999993e-02
20              	9.99999979e-02
