/*--------------------------------*- C++ -*----------------------------------*\
  =========                 |
  \\      /  F ield         | OpenFOAM: The Open Source CFD Toolbox
   \\    /   O peration     | Website:  https://openfoam.org
    \\  /    A nd           | Version:  9
     \\/     M anipulation  |
\*---------------------------------------------------------------------------*/
FoamFile
{
    format      ascii;
    class       surfaceScalarField;
    location    "4";
    object      phi;
}
// * * * * * * * * * * * * * * * * * * * * * * * * * * * * * * * * * * * * * //

dimensions      [1 0 -1 0 0 0 0];

internalField   nonuniform List<scalar> 
10325
(
0.00840003
1.43461e-10
0.00840001
3.20309e-10
0.00840008
2.53124e-09
0.00839989
3.24521e-09
0.0084003
1.71897e-08
0.00839933
2.38558e-08
0.00840127
1.04684e-07
0.00839682
1.59037e-07
0.00840437
6.29294e-07
0.00838858
1.13741e-06
0.00840756
3.73419e-06
0.00836906
9.24838e-06
0.00836385
3.08386e-05
0.00823891
0.000112147
0.00766885
0.000572355
0.00700265
0.000666958
0.00637094
0.000631436
0.00571952
0.000651057
0.00503632
0.000682807
0.00431332
0.000722803
0.0035412
0.000772082
0.00272095
0.000819868
0.00185929
0.000863038
0.000953057
0.000906831
0.000952109
0.00840003
2.11147e-10
0.0084
9.19684e-10
0.0084001
4.05585e-09
0.00839985
9.11856e-09
0.00840043
2.95868e-08
0.00839907
6.06047e-08
0.00840216
1.9279e-07
0.00839502
3.68195e-07
0.00840898
1.20753e-06
0.00838176
2.40691e-06
0.00841626
7.45473e-06
0.00836119
1.90637e-05
0.008368
6.22029e-05
0.00823545
0.000225154
0.0076802
0.00113112
0.00699885
0.00134915
0.00637527
0.00125482
0.00573334
0.00129263
0.00505466
0.00136111
0.00432427
0.001453
0.00354311
0.00155321
0.00271444
0.00164817
0.00184102
0.00173784
0.000928212
0.00182024
0.00187938
0.00840003
2.10723e-10
0.0084
1.75754e-09
0.00840007
4.55723e-09
0.00839989
1.72133e-08
0.00840034
3.62289e-08
0.00839907
1.05393e-07
0.0084022
2.55918e-07
0.00839465
6.06768e-07
0.00841081
1.67559e-06
0.00837852
3.77916e-06
0.00842082
1.0664e-05
0.00836086
2.85905e-05
0.00837285
9.08137e-05
0.00824853
0.000328325
0.00775654
0.0016269
0.00706431
0.00204212
0.00643867
0.00188038
0.00580118
0.00192979
0.00512705
0.00203488
0.00439446
0.00218533
0.0036076
0.00234011
0.00276794
0.00248751
0.00187887
0.00262817
0.000945801
0.00275396
0.00282449
0.00840002
2.39057e-10
0.00840003
2.19155e-09
0.00839998
5.7736e-09
0.0084001
2.16386e-08
0.00839985
4.28899e-08
0.00840017
1.50523e-07
0.00839966
2.54924e-07
0.00839936
9.76593e-07
0.00839928
1.58162e-06
0.0083981
5.8803e-06
0.00839267
1.17741e-05
0.00839316
3.81661e-05
0.00836178
0.000112011
0.00828546
0.000409087
0.00791461
0.00199691
0.007216
0.00274079
0.00657669
0.00251959
0.00593714
0.00256905
0.00526383
0.00270781
0.00453186
0.00291712
0.00373714
0.0031349
0.00288485
0.00333933
0.00197089
0.00354378
0.000999458
0.00372589
0.00382278
0.00840002
4.27562e-10
0.00840003
1.87784e-09
0.00840001
8.4914e-09
0.00840003
1.82646e-08
0.00839989
6.46e-08
0.00840034
1.17147e-07
0.0083987
4.2692e-07
0.00840294
7.19897e-07
0.00839241
2.66147e-06
0.00841145
4.85172e-06
0.00838125
1.61028e-05
0.00840791
3.92264e-05
0.00836829
0.000128289
0.00834253
0.000448651
0.00818835
0.00214655
0.00748527
0.0034444
0.00680784
0.00319683
0.0061536
0.00322307
0.00547721
0.00338388
0.00474226
0.00365199
0.00394121
0.00393609
0.00306773
0.00421256
0.00211717
0.00449578
0.00108499
0.00475869
0.0049067
0.00840002
2.80639e-10
0.00840003
2.46243e-09
0.0084
6.65155e-09
0.00840006
2.44884e-08
0.00839997
4.8837e-08
0.00839997
1.67628e-07
0.0084002
2.99617e-07
0.00839887
1.05492e-06
0.0084016
1.87826e-06
0.00839707
6.41039e-06
0.00840166
1.3311e-05
0.00840228
4.15008e-05
0.00840595
0.000119454
0.008435
0.000421595
0.00867291
0.0019086
0.00795666
0.00416035
0.00717698
0.0039765
0.00648592
0.00391396
0.00579181
0.00407788
0.00505308
0.00439046
0.00423459
0.0047546
0.00333434
0.00511258
0.00233597
0.00549538
0.00121975
0.0058757
0.00612598
0.00840002
4.19611e-10
0.00840003
1.68144e-09
0.00840001
8.32435e-09
0.00840005
1.6628e-08
0.00839991
6.18368e-08
0.00840037
1.09267e-07
0.00839893
3.9262e-07
0.008403
6.71244e-07
0.00839368
2.37611e-06
0.00841362
4.37737e-06
0.00838451
1.40702e-05
0.00842663
3.29255e-05
0.00841353
0.000103303
0.00851268
0.000339901
0.00894111
0.00147301
0.00839651
0.00470645
0.00755115
0.00482185
0.00685052
0.00461439
0.00617045
0.00475751
0.00543629
0.00512487
0.00461341
0.00557719
0.00368759
0.00603827
0.0026414
0.00654266
0.00142471
0.00709349
0.00755023
0.00840003
2.28593e-10
0.00840002
2.32172e-09
0.00840003
5.57313e-09
0.00840001
2.26246e-08
0.00840008
4.14404e-08
0.00839977
1.49009e-07
0.00840077
2.5999e-07
0.00839774
9.13083e-07
0.00840545
1.62474e-06
0.00839008
5.41688e-06
0.00841603
1.10813e-05
0.008389
3.36434e-05
0.00842177
9.21998e-05
0.00843733
0.000310704
0.00861027
0.00130548
0.00831483
0.00500025
0.00764599
0.00549031
0.00710034
0.00515979
0.00648516
0.00537248
0.00581267
0.00579693
0.00502899
0.00636126
0.00411883
0.00694763
0.00305148
0.00761128
0.00174134
0.00840451
0.00929118
0.00840003
3.98001e-10
0.00840003
1.61291e-09
0.00840001
7.9005e-09
0.00840005
1.58667e-08
0.0083999
5.81444e-08
0.00840037
1.05959e-07
0.00839898
3.61468e-07
0.00840269
6.64487e-07
0.00839385
2.17708e-06
0.00841285
4.24524e-06
0.00838054
1.306e-05
0.00842237
3.05941e-05
0.00838606
9.36401e-05
0.00841705
0.0003005
0.00849756
0.00121647
0.00819811
0.00530074
0.00791695
0.0057713
0.00733211
0.00574449
0.00673661
0.00596773
0.00615632
0.00637671
0.00546521
0.00705253
0.00464263
0.00776974
0.00364861
0.00860568
0.00226515
0.00978935
0.0115561
0.00840003
2.38101e-10
0.00840002
2.28637e-09
0.00840003
5.85156e-09
0.0084
2.23633e-08
0.00840009
4.43839e-08
0.00839973
1.45509e-07
0.00840075
2.87096e-07
0.00839784
8.80082e-07
0.00840521
1.80762e-06
0.00838905
5.27318e-06
0.00841637
1.1837e-05
0.00838041
3.35104e-05
0.00841354
9.17759e-05
0.00838735
0.000301597
0.00845765
0.00115893
0.00830673
0.00544882
0.00789714
0.00618082
0.00747133
0.00617016
0.00702455
0.00641426
0.00652012
0.0068807
0.00598063
0.00759197
0.00533941
0.00841088
0.00444833
0.00949689
0.00314405
0.0110946
0.0147001
0.00840003
3.23393e-10
0.00840004
2.01319e-09
0.0084
7.05578e-09
0.00840009
1.99494e-08
0.00839985
5.25562e-08
0.00840049
1.34555e-07
0.00839891
3.2797e-07
0.00840288
8.35632e-07
0.00839392
2.00418e-06
0.00841339
5.17912e-06
0.00837756
1.26434e-05
0.00842725
3.3847e-05
0.00837035
9.40584e-05
0.00841408
0.00030076
0.00843313
0.00111795
0.00849841
0.0053872
0.0080764
0.00660325
0.00765193
0.00659466
0.00730942
0.00675661
0.00693556
0.00725424
0.00657364
0.00795358
0.00614425
0.00884001
0.00573079
0.00991029
0.00569955
0.0111264
0.0115045
0.00889528
0.00840003
3.51962e-10
0.00840003
1.85371e-09
0.00840001
7.34913e-09
0.00840006
1.83337e-08
0.00839993
5.47669e-08
0.00840028
1.23338e-07
0.00839929
3.51235e-07
0.00840198
7.6602e-07
0.00839532
2.1838e-06
0.00841094
4.79621e-06
0.0083808
1.3564e-05
0.00842635
3.2617e-05
0.00837553
9.47341e-05
0.00842798
0.000290321
0.00846943
0.00105263
0.00890944
0.00495187
0.008452
0.00706132
0.00797697
0.0070701
0.00762683
0.00710632
0.00734023
0.00754068
0.00708192
0.0082117
0.006885
0.00903686
0.00685004
0.00994507
0.00729857
0.0106776
0.0104763
0.00832722
0.00840003
2.91309e-10
0.00840003
1.86508e-09
0.00840001
6.56398e-09
0.00840007
1.82478e-08
0.00839995
4.87325e-08
0.00840022
1.23998e-07
0.00839974
3.01623e-07
0.00840052
7.95923e-07
0.00839942
1.82357e-06
0.00840131
5.03048e-06
0.0083989
1.14943e-05
0.00840859
3.20238e-05
0.00840396
8.38431e-05
0.00845192
0.000258911
0.00859711
0.000898966
0.00965382
0.00389492
0.00907705
0.00763862
0.00847587
0.00767127
0.0080833
0.00749912
0.00781515
0.00780843
0.00763914
0.00838756
0.00760778
0.00906758
0.0078347
0.00971848
0.00837961
0.010133
0.0098462
0.00900936
0.00840003
2.24927e-10
0.00840002
1.6651e-09
0.00840005
5.08595e-09
0.00839999
1.64041e-08
0.00840014
3.85442e-08
0.00839985
1.06853e-07
0.00840062
2.47813e-07
0.00839929
6.41663e-07
0.00840279
1.54075e-06
0.00839695
3.8254e-06
0.00841289
9.61264e-06
0.00839632
2.39688e-05
0.00845134
6.37626e-05
0.00849064
0.000183908
0.00880662
0.000603151
0.0102476
0.00244853
0.00976322
0.00812319
0.0093016
0.00813239
0.00869409
0.00810647
0.00837138
0.00813156
0.00824374
0.00851461
0.00828946
0.00902199
0.0085449
0.00946242
0.00901846
0.00965959
0.00934359
0.00952174
0.00840003
2.24339e-10
0.00840003
1.30827e-09
0.00840002
4.86707e-09
0.00840005
1.28071e-08
0.00839999
3.57648e-08
0.00840018
8.55439e-08
0.00839971
2.20816e-07
0.0084012
5.34846e-07
0.00839786
1.31942e-06
0.00840728
3.28075e-06
0.00839037
7.96952e-06
0.00842667
2.04027e-05
0.00839335
5.22964e-05
0.00847487
0.000148678
0.00856546
0.000475449
0.00919668
0.00183597
0.00990118
0.00741395
0.00957322
0.00845997
0.00915349
0.00852607
0.00887601
0.00840911
0.00877897
0.00861115
0.00885002
0.00895122
0.00908412
0.0092281
0.00946804
0.00927544
0.00893614
0.00987528
0.00840003
1.78775e-10
0.00840003
1.19202e-09
0.00840004
3.92915e-09
0.00840001
1.17164e-08
0.00840007
2.96807e-08
0.00839999
7.68423e-08
0.00840011
1.90343e-07
0.00840016
4.6562e-07
0.00839969
1.1767e-06
0.00840193
2.81802e-06
0.00839777
7.268e-06
0.00840913
1.76775e-05
0.00840383
4.69642e-05
0.00843301
0.000128122
0.00849794
0.000403149
0.00887213
0.00146695
0.00988152
0.0064024
0.00975393
0.0085875
0.00952505
0.00875464
0.00929179
0.00864271
0.00921869
0.00868402
0.00930051
0.00886887
0.00950642
0.00902265
0.00980757
0.00897383
0.00862068
0.0101239
0.00840003
1.73949e-10
0.00840003
9.62813e-10
0.00840002
3.72199e-09
0.00840004
9.45538e-09
0.00840001
2.74241e-08
0.00840012
6.38059e-08
0.00839983
1.71431e-07
0.00840078
4.00915e-07
0.00839857
1.04183e-06
0.00840487
2.49599e-06
0.00839276
6.33631e-06
0.00842029
1.58194e-05
0.00838645
4.06716e-05
0.00845117
0.000110704
0.00847785
0.000335337
0.00879774
0.00116867
0.0103683
0.00482598
0.0102064
0.00874907
0.0099633
0.00899736
0.00969226
0.00891434
0.00961469
0.00876127
0.00967901
0.00880473
0.00984811
0.00885313
0.0100788
0.00874318
0.00838737
0.0103114
0.00840003
1.28789e-10
0.00840003
7.91647e-10
0.00840004
2.77182e-09
0.00840002
7.77772e-09
0.00840008
2.07782e-08
0.00839997
5.08809e-08
0.0084003
1.32067e-07
0.00839978
3.07875e-07
0.00840129
8.06072e-07
0.00839941
1.84955e-06
0.00840525
4.91279e-06
0.00840137
1.12894e-05
0.00842656
3.03049e-05
0.00843779
7.60905e-05
0.00857636
0.000222215
0.00901785
0.000713211
0.0110698
0.00277557
0.0109106
0.0089076
0.0106612
0.00924679
0.0103029
0.00927269
0.0100766
0.00898751
0.0100514
0.00882967
0.0101561
0.00874902
0.0103188
0.00858029
0.00822609
0.01048
0.00840003
9.03527e-11
0.00840003
6.74788e-10
0.00840003
2.0745e-09
0.00840003
6.59189e-09
0.00840004
1.55349e-08
0.00840003
4.31263e-08
0.00840014
9.78378e-08
0.00839987
2.61814e-07
0.008401
5.98041e-07
0.00839872
1.55795e-06
0.0084066
3.65427e-06
0.00839367
9.35261e-06
0.00842924
2.2935e-05
0.00840451
5.97528e-05
0.00850762
0.000164489
0.00866331
0.000518051
0.00952944
0.00193095
0.0109674
0.00746351
0.0109081
0.00930566
0.0106985
0.00948212
0.0104646
0.00922201
0.0103912
0.00890276
0.0104346
0.00870515
0.0105366
0.00847864
0.00812254
0.0106401
0.00840003
8.60079e-11
0.00840003
4.8422e-10
0.00840003
1.84719e-09
0.00840004
4.78385e-09
0.00840001
1.36181e-08
0.0084001
3.23493e-08
0.00839993
8.43506e-08
0.00840043
2.029e-07
0.00839959
5.03278e-07
0.00840203
1.25464e-06
0.0083982
3.01432e-06
0.00840844
7.77851e-06
0.00839684
1.86098e-05
0.00843266
4.97435e-05
0.00842953
0.000131763
0.00857827
0.000403135
0.00907471
0.00141628
0.0110067
0.00553359
0.0111484
0.00916429
0.0110613
0.00956956
0.0108351
0.00944808
0.0107082
0.00903026
0.0106947
0.00871845
0.0107404
0.00843271
0.00806627
0.0107966
0.00840003
6.01926e-11
0.00840003
3.93624e-10
0.00840003
1.31286e-09
0.00840002
3.87604e-09
0.00840005
9.82214e-09
0.0084
2.52498e-08
0.00840016
6.23736e-08
0.00839992
1.51429e-07
0.00840071
3.83466e-07
0.00839966
8.96746e-07
0.0084034
2.32643e-06
0.00839917
5.34918e-06
0.00841683
1.41753e-05
0.00840972
3.35969e-05
0.0084836
9.12446e-05
0.00859681
0.00025493
0.0092033
0.000829707
0.0116335
0.0030973
0.0117201
0.00907743
0.0116255
0.00966451
0.0113704
0.00970357
0.0110893
0.00931185
0.0109806
0.0088272
0.0109625
0.00845063
0.00806102
0.0109675
0.00840003
4.35831e-11
0.00840003
2.94201e-10
0.00840003
9.7871e-10
0.00840004
2.89631e-09
0.00840003
7.27597e-09
0.00840006
1.91609e-08
0.00840003
4.53063e-08
0.00840012
1.1719e-07
0.00840018
2.72784e-07
0.00840017
7.00703e-07
0.00840171
1.64193e-06
0.00839981
4.18329e-06
0.00841095
9.99768e-06
0.00840593
2.54792e-05
0.00845124
6.4315e-05
0.00850946
0.000178114
0.00880829
0.000547366
0.00989207
0.00200331
0.0117319
0.00723764
0.0118401
0.00955675
0.0116915
0.0098525
0.0114076
0.00959586
0.0112768
0.00895839
0.0111984
0.00852879
0.00809983
0.0111597
0.00840003
3.4357e-11
0.00840003
2.15241e-10
0.00840003
7.55136e-10
0.00840004
2.11001e-09
0.00840002
5.62505e-09
0.00840006
1.39102e-08
0.0084
3.52896e-08
0.0084002
8.54441e-08
0.0083999
2.12975e-07
0.0084009
5.18074e-07
0.00839958
1.27643e-06
0.00840387
3.14084e-06
0.00839964
7.73646e-06
0.00841746
1.93687e-05
0.00841265
4.90332e-05
0.00848851
0.000131094
0.00862
0.000386679
0.00930818
0.0013324
0.0117103
0.00482863
0.0119989
0.00926823
0.0120694
0.00978213
0.0119182
0.00974704
0.0115845
0.00929181
0.0114505
0.00866307
0.00818662
0.0113631
0.00840003
2.57767e-11
0.00840003
1.4976e-10
0.00840003
5.57182e-10
0.00840003
1.48062e-09
0.00840003
4.11372e-09
0.00840005
9.86096e-09
0.00840002
2.54797e-08
0.00840014
6.04188e-08
0.00840001
1.51902e-07
0.0084005
3.64123e-07
0.00840036
8.97393e-07
0.00840163
2.19856e-06
0.00840379
5.31699e-06
0.00840943
1.33305e-05
0.00842439
3.27915e-05
0.00847673
8.54004e-05
0.00861594
0.000236222
0.00921185
0.000743676
0.011389
0.00264996
0.0124175
0.0082376
0.0124114
0.00978785
0.0122287
0.00992949
0.0118877
0.0096328
0.0117263
0.00882429
0.00832952
0.0115831
0.00840003
1.65658e-11
0.00840003
1.16195e-10
0.00840003
3.75164e-10
0.00840003
1.13575e-09
0.00840003
2.79775e-09
0.00840003
7.44343e-09
0.00840004
1.74822e-08
0.00840005
4.51645e-08
0.00840014
1.05805e-07
0.00840002
2.69325e-07
0.00840092
6.37036e-07
0.00839966
1.59525e-06
0.00840599
3.85142e-06
0.00839844
9.56693e-06
0.0084301
2.36892e-05
0.00841998
6.01739e-05
0.00853723
0.00016121
0.00875686
0.000484788
0.0097304
0.00169804
0.0121792
0.00578322
0.0125145
0.00945237
0.012588
0.0098556
0.0124447
0.00977572
0.0120518
0.00921777
0.00855242
0.0118286
0.00840003
1.19649e-11
0.00840003
7.68977e-11
0.00840003
2.66283e-10
0.00840003
7.55317e-10
0.00840003
1.97451e-09
0.00840004
4.96067e-09
0.00840002
1.22486e-08
0.00840009
3.02277e-08
0.00840002
7.29545e-08
0.00840032
1.80323e-07
0.00840014
4.31631e-07
0.00840116
1.07236e-06
0.00840185
2.5553e-06
0.00840501
6.37404e-06
0.00841322
1.54073e-05
0.00843584
3.89449e-05
0.00849107
9.96325e-05
0.00870504
0.000280092
0.00950636
0.000890345
0.0122348
0.00305528
0.0129437
0.00874149
0.0129575
0.00984145
0.0127383
0.00999475
0.0123963
0.00955941
0.0088083
0.0121416
0.00840003
8.8624e-12
0.00840003
5.05677e-11
0.00840003
1.91157e-10
0.00840003
4.97064e-10
0.00840003
1.40838e-09
0.00840004
3.29486e-09
0.00840003
8.6706e-09
0.00840007
2.01436e-08
0.00840001
5.1322e-08
0.00840026
1.21528e-07
0.0084
2.99804e-07
0.00840116
7.31387e-07
0.0084004
1.75406e-06
0.00840475
4.41055e-06
0.00840554
1.03746e-05
0.0084244
2.6871e-05
0.00844606
6.55599e-05
0.00856591
0.000179885
0.00890108
0.000535594
0.0100974
0.00187068
0.0126794
0.00615331
0.0129843
0.00953662
0.0131615
0.00981765
0.0128911
0.00983019
0.00917984
0.0125194
0.00840003
5.4012e-12
0.00840003
3.59841e-11
0.00840003
1.20855e-10
0.00840003
3.53228e-10
0.00840003
8.98073e-10
0.00840003
2.31363e-09
0.00840004
5.56986e-09
0.00840002
1.39773e-08
0.0084001
3.32206e-08
0.00840001
8.28557e-08
0.00840042
1.9719e-07
0.0084
4.88757e-07
0.00840212
1.1658e-06
0.00840038
2.88922e-06
0.00841035
6.96085e-06
0.00840721
1.72559e-05
0.0084522
4.28251e-05
0.00848676
0.000110996
0.00874905
0.000310788
0.00959638
0.000998498
0.0124137
0.00334075
0.013286
0.0086633
0.0133624
0.00974146
0.0132223
0.00997077
0.00955956
0.0128422
0.00840003
3.74287e-12
0.00840003
2.40409e-11
0.00840003
8.14681e-11
0.00840003
2.36035e-10
0.00840003
6.03016e-10
0.00840003
1.53278e-09
0.00840004
3.78174e-09
0.00840003
9.15547e-09
0.00840007
2.27929e-08
0.00840004
5.37e-08
0.0084002
1.35818e-07
0.00840023
3.14928e-07
0.00840064
8.06156e-07
0.00840191
1.85242e-06
0.0084025
4.78239e-06
0.00841261
1.10839e-05
0.00841826
2.87122e-05
0.00847178
7.00119e-05
0.00857802
0.000191327
0.00902341
0.000566033
0.010418
0.00193743
0.0130072
0.00607374
0.0133332
0.00941569
0.0135667
0.00973753
0.0097656
0.0133609
0.00840003
2.35073e-12
0.00840003
1.5689e-11
0.00840003
5.2761e-11
0.00840003
1.54095e-10
0.00840003
3.90472e-10
0.00840003
1.00812e-09
0.00840003
2.4113e-09
0.00840003
6.07129e-09
0.00840005
1.43456e-08
0.00840004
3.57829e-08
0.00840017
8.47999e-08
0.00840004
2.0951e-07
0.00840104
5.01311e-07
0.00839982
1.22403e-06
0.0084064
2.96508e-06
0.00839957
7.20862e-06
0.00843431
1.77354e-05
0.00841744
4.38379e-05
0.00855715
0.000113106
0.00874414
0.000314258
0.00971955
0.00100142
0.012552
0.00322897
0.0135944
0.00837212
0.0136615
0.00967087
0.00978336
0.0136442
0.00840003
1.55296e-12
0.00840003
1.00123e-11
0.00840003
3.46302e-11
0.00840003
9.8311e-11
0.00840003
2.55822e-10
0.00840003
6.47886e-10
0.00840003
1.56508e-09
0.00840004
3.92797e-09
0.00840003
9.21574e-09
0.00840005
2.33946e-08
0.00840008
5.39523e-08
0.00840012
1.37735e-07
0.00840045
3.17313e-07
0.0084003
8.09184e-07
0.00840303
1.87289e-06
0.00840092
4.75269e-06
0.00841932
1.12075e-05
0.00840905
2.84044e-05
0.00849639
7.01568e-05
0.00856362
0.000188005
0.00907197
0.000552889
0.0104069
0.00185607
0.0131949
0.00559046
0.0136941
0.00917211
0.0096127
0.0138651
0.00840003
1.03045e-12
0.00840003
6.09013e-12
0.00840003
2.24317e-11
0.00840003
5.99447e-11
0.00840003
1.64876e-10
0.00840003
3.92682e-10
0.00840003
1.01239e-09
0.00840003
2.36111e-09
0.00840003
5.95368e-09
0.00840006
1.39422e-08
0.00840003
3.45963e-08
0.00840021
8.21858e-08
0.00840004
1.99977e-07
0.00840105
4.84158e-07
0.00840031
1.15545e-06
0.00840562
2.84574e-06
0.00840281
6.72519e-06
0.00842885
1.68594e-05
0.00843273
4.04161e-05
0.0085549
0.000105122
0.00877917
0.000283576
0.00977898
0.000885395
0.0126067
0.0027537
0.0139092
0.00786896
0.00956309
0.013959
0.00840003
6.20938e-13
0.00840003
3.95259e-12
0.00840003
1.35758e-11
0.00840003
3.88206e-11
0.00840003
1.00068e-10
0.00840003
2.51783e-10
0.00840003
6.20392e-10
0.00840003
1.49763e-09
0.00840004
3.69308e-09
0.00840003
8.73251e-09
0.00840006
2.17131e-08
0.00840007
5.08163e-08
0.00840014
1.27056e-07
0.0084004
2.96041e-07
0.00840044
7.41759e-07
0.00840273
1.73467e-06
0.00840156
4.32213e-06
0.00841763
1.02697e-05
0.00841114
2.56297e-05
0.00849055
6.32451e-05
0.00855724
0.000166503
0.00901435
0.00047994
0.0101518
0.0015842
0.0132332
0.00479091
0.00878584
0.0140111
0.00840003
3.62198e-13
0.00840003
2.49224e-12
0.00840003
8.16571e-12
0.00840003
2.44503e-11
0.00840003
6.03284e-11
0.00840003
1.58772e-10
0.00840003
3.7123e-10
0.00840003
9.44167e-10
0.00840003
2.19759e-09
0.00840003
5.48834e-09
0.00840006
1.29319e-08
0.00840003
3.16163e-08
0.00840019
7.60678e-08
0.0084001
1.8177e-07
0.00840082
4.46307e-07
0.00840073
1.04631e-06
0.00840353
2.61723e-06
0.0084061
6.06562e-06
0.00841808
1.54153e-05
0.0084406
3.633e-05
0.00852266
9.46603e-05
0.00873895
0.000249177
0.00957179
0.000760116
0.0119795
0.00238418
0.00679683
0.0139641
0.00840003
2.3859e-13
0.00840003
1.44488e-12
0.00840003
5.2444e-12
0.00840003
1.41693e-11
0.00840003
3.85649e-11
0.00840003
9.26231e-11
0.00840003
2.34809e-10
0.00840003
5.58578e-10
0.00840003
1.36674e-09
0.00840004
3.30183e-09
0.00840003
7.87679e-09
0.00840006
1.94276e-08
0.00840008
4.52574e-08
0.00840013
1.1383e-07
0.0084004
2.60979e-07
0.00840042
6.63735e-07
0.00840261
1.51361e-06
0.00840162
3.86034e-06
0.00841653
8.8734e-06
0.00841123
2.26933e-05
0.00848715
5.4064e-05
0.00854174
0.000142962
0.00896345
0.00039533
0.0100389
0.00126985
0.00379256
0.0130502
0.00840003
1.37089e-13
0.00840003
9.1416e-13
0.00840003
3.03422e-12
0.00840003
8.9512e-12
0.00840003
2.23883e-11
0.00840003
5.76537e-11
0.00840003
1.38582e-10
0.00840003
3.40492e-10
0.00840003
8.23798e-10
0.00840003
1.96706e-09
0.00840004
4.83958e-09
0.00840004
1.13201e-08
0.00840006
2.83455e-08
0.00840011
6.51808e-08
0.00840017
1.64972e-07
0.0084006
3.77614e-07
0.00840062
9.5813e-07
0.00840382
2.19416e-06
0.00840286
5.57339e-06
0.00842359
1.29312e-05
0.00842147
3.29225e-05
0.00852194
7.99837e-05
0.00866057
0.000214286
0.0093357
0.000624839
0.00197152
0.0111417
0.00840003
8.38863e-14
0.00840003
5.22955e-13
0.00840003
1.85505e-12
0.00840003
5.13623e-12
0.00840003
1.36061e-11
0.00840003
3.35532e-11
0.00840003
8.2338e-11
0.00840003
2.01218e-10
0.00840003
4.77334e-10
0.00840003
1.18175e-09
0.00840003
2.73935e-09
0.00840004
6.87209e-09
0.00840005
1.57419e-08
0.00840006
3.96975e-08
0.00840019
9.07992e-08
0.00840015
2.27954e-07
0.00840116
5.2534e-07
0.00840051
1.30435e-06
0.00840701
3.04514e-06
0.00840347
7.4957e-06
0.00843913
1.7857e-05
0.00843551
4.41347e-05
0.00860091
0.000110706
0.008854
0.000300224
0.000911767
0.00995997
0.00840003
5.03447e-14
0.00840003
3.08226e-13
0.00840003
1.09248e-12
0.00840003
3.02299e-12
0.00840003
8.00738e-12
0.00840003
1.95195e-11
0.00840003
4.9162e-11
0.00840003
1.14966e-10
0.00840003
2.88925e-10
0.00840003
6.64106e-10
0.00840003
1.67209e-09
0.00840004
3.83758e-09
0.00840004
9.60069e-09
0.00840008
2.22197e-08
0.00840005
5.48809e-08
0.00840031
1.28857e-07
0.00840016
3.13172e-07
0.00840156
7.49232e-07
0.00840106
1.78346e-06
0.00840805
4.36112e-06
0.00840763
1.02533e-05
0.00844107
2.56519e-05
0.00846422
6.15316e-05
0.00864219
0.000161524
0.000451282
0.00905781
0.00840003
2.70342e-14
0.00840003
1.85278e-13
0.00840003
6.09276e-13
0.00840003
1.815e-12
0.00840003
4.48275e-12
0.00840003
1.17138e-11
0.00840003
2.73362e-11
0.00840003
6.92339e-11
0.00840003
1.59869e-10
0.00840003
3.98903e-10
0.00840003
9.28917e-10
0.00840003
2.28095e-09
0.00840004
5.38342e-09
0.00840004
1.30105e-08
0.00840009
3.12564e-08
0.00840008
7.40826e-08
0.00840034
1.8102e-07
0.00840046
4.22529e-07
0.00840137
1.04938e-06
0.00840331
2.41534e-06
0.00840627
6.07907e-06
0.00842077
1.40205e-05
0.00844115
3.56883e-05
0.00852296
8.591e-05
0.000230365
0.00873857
0.00840003
1.63623e-14
0.00840003
1.01498e-13
0.00840003
3.61049e-13
0.00840003
9.9445e-13
0.00840003
2.64407e-12
0.00840003
6.45649e-12
0.00840003
1.60049e-11
0.00840003
3.83213e-11
0.00840003
9.25306e-11
0.00840003
2.22435e-10
0.00840003
5.30049e-10
0.00840003
1.2807e-09
0.00840003
3.02391e-09
0.00840004
7.36532e-09
0.00840005
1.7241e-08
0.00840009
4.21911e-08
0.00840018
9.84163e-08
0.00840028
2.40943e-07
0.00840103
5.63025e-07
0.00840116
1.371e-06
0.0084067
3.22956e-06
0.0084057
7.83461e-06
0.00844012
1.87099e-05
0.00844533
4.59467e-05
0.000114717
0.00861666
0.00840003
9.21781e-15
0.00840003
5.83187e-14
0.00840003
2.01755e-13
0.00840003
5.70658e-13
0.00840003
1.47973e-12
0.00840003
3.66773e-12
0.00840003
9.02478e-12
0.00840003
2.15235e-11
0.00840003
5.26293e-11
0.00840003
1.2384e-10
0.00840003
3.01803e-10
0.00840003
7.10131e-10
0.00840003
1.7245e-09
0.00840004
4.06001e-09
0.00840004
9.83567e-09
0.00840008
2.32544e-08
0.00840007
5.59236e-08
0.00840027
1.33205e-07
0.00840039
3.17922e-07
0.00840105
7.63064e-07
0.00840273
1.80772e-06
0.00840446
4.37591e-06
0.00841814
1.03582e-05
0.00842464
2.53961e-05
6.15466e-05
0.00850425
0.00840003
5.16815e-15
0.00840003
3.14024e-14
0.00840003
1.15522e-13
0.00840003
3.08912e-13
0.00840003
8.42363e-13
0.00840003
2.00332e-12
0.00840003
5.09223e-12
0.00840003
1.18457e-11
0.00840003
2.93786e-11
0.00840003
6.84127e-11
0.00840003
1.67461e-10
0.00840003
3.94157e-10
0.00840003
9.48665e-10
0.00840003
2.26551e-09
0.00840003
5.36952e-09
0.00840005
1.30203e-08
0.00840007
3.03717e-08
0.00840014
7.46628e-08
0.00840028
1.72245e-07
0.00840052
4.27027e-07
0.00840171
9.80865e-07
0.00840233
2.43553e-06
0.00841083
5.62446e-06
0.00841253
1.39883e-05
3.29479e-05
0.00846126
0.00840003
2.82505e-15
0.00840003
1.79073e-14
0.00840003
6.05379e-14
0.00840003
1.76165e-13
0.00840003
4.42534e-13
0.00840003
1.12855e-12
0.00840003
2.68345e-12
0.00840003
6.58129e-12
0.00840003
1.56219e-11
0.00840003
3.74018e-11
0.00840003
8.98175e-11
0.00840003
2.11198e-10
0.00840003
5.13516e-10
0.00840003
1.1925e-09
0.00840003
2.92499e-09
0.00840004
6.73205e-09
0.00840005
1.66037e-08
0.0084001
3.81264e-08
0.00840013
9.37643e-08
0.0084005
2.16309e-07
0.00840047
5.28453e-07
0.00840301
1.23176e-06
0.00840226
2.96862e-06
0.00841761
7.04336e-06
1.68793e-05
0.00841547
0.00840003
1.38436e-15
0.00840003
9.63159e-15
0.00840003
3.1963e-14
0.00840003
9.20259e-14
0.00840003
2.3455e-13
0.00840003
5.85993e-13
0.00840003
1.41353e-12
0.00840003
3.42039e-12
0.00840003
8.09637e-12
0.00840003
1.94615e-11
0.00840003
4.57551e-11
0.00840003
1.09939e-10
0.00840003
2.57266e-10
0.00840003
6.17585e-10
0.00840003
1.44709e-09
0.00840003
3.45512e-09
0.00840005
8.11113e-09
0.00840005
1.92908e-08
0.00840015
4.54291e-08
0.00840014
1.07199e-07
0.00840065
2.53373e-07
0.00840089
5.95227e-07
0.00840286
1.41045e-06
0.00840635
3.29611e-06
7.86862e-06
0.00841378
0.00840003
7.40591e-16
0.00840003
4.47491e-15
0.00840003
1.66589e-14
0.00840003
4.44484e-14
0.00840003
1.20957e-13
0.00840003
2.87357e-13
0.00840003
7.14033e-13
0.00840003
1.68012e-12
0.00840003
3.99341e-12
0.00840003
9.58415e-12
0.00840003
2.19763e-11
0.00840003
5.38228e-11
0.00840003
1.20478e-10
0.00840003
2.99738e-10
0.00840003
6.58859e-10
0.00840003
1.65254e-09
0.00840004
3.60599e-09
0.00840004
8.99159e-09
0.0084001
1.97894e-08
0.00840008
4.83058e-08
0.00840038
1.0803e-07
0.00840042
2.56499e-07
0.00840161
5.89584e-07
0.00840319
1.33974e-06
3.19947e-06
0.00840695
0.00840003
3.36428e-16
0.00840003
2.47702e-15
0.00840003
7.66515e-15
0.00840003
2.34403e-14
0.00840003
5.46519e-14
0.00840003
1.46302e-13
0.00840003
3.25088e-13
0.00840003
8.23218e-13
0.00840003
1.84424e-12
0.00840003
4.46666e-12
0.00840003
1.03221e-11
0.00840003
2.37857e-11
0.00840003
5.75656e-11
0.00840003
1.24901e-10
0.00840003
3.17693e-10
0.00840003
6.50906e-10
0.00840003
1.73004e-09
0.00840004
3.39375e-09
0.00840003
9.18627e-09
0.00840012
1.78069e-08
0.00840002
4.78118e-08
0.0084006
9.32626e-08
0.00839995
2.4293e-07
0.00840309
4.92192e-07
1.19682e-06
0.00839988
0.00840003
1.83772e-16
0.00840003
7.78213e-16
0.00840003
4.02412e-15
0.00840003
9.03224e-15
0.00840003
2.86436e-14
0.00840003
5.83142e-14
0.00840003
1.66216e-13
0.00840003
3.32423e-13
0.00840003
9.00896e-13
0.00840003
1.8481e-12
0.00840003
4.71865e-12
0.00840003
1.03002e-11
0.00840003
2.3988e-11
0.00840003
5.77021e-11
0.00840003
1.18506e-10
0.00840003
3.19968e-10
0.00840003
5.72305e-10
0.00840003
1.74525e-09
0.00840005
2.75754e-09
0.00840001
9.20571e-09
0.00840018
1.32411e-08
0.00839984
4.72785e-08
0.008401
6.40003e-08
0.00839887
2.3401e-07
3.13153e-07
0.00840538
0.00840003
6.56484e-17
0.00840003
5.14806e-16
0.00840003
1.55754e-15
0.00840003
4.49922e-15
0.00840003
1.13252e-14
0.00840003
2.78169e-14
0.00840003
6.58049e-14
0.00840003
1.55407e-13
0.00840003
3.53626e-13
0.00840003
8.32973e-13
0.00840003
1.85869e-12
0.00840003
4.38289e-12
0.00840003
9.69216e-12
0.00840003
2.24942e-11
0.00840003
5.0706e-11
0.00840003
1.14039e-10
0.00840003
2.58374e-10
0.00840003
5.70434e-10
0.00840003
1.29575e-09
0.00840005
2.81128e-09
0.00839999
6.27964e-09
0.00840021
1.35549e-08
0.00839961
2.93307e-08
0.00840142
6.30709e-08
1.30974e-07
0.00839706
0.00840003
4.11184e-17
0.00840003
2.1741e-16
0.00840003
4.29751e-16
0.00840003
2.17578e-15
0.00840003
3.1775e-15
0.00840003
1.29445e-14
0.00840003
2.02815e-14
0.00840003
6.40631e-14
0.00840003
1.28421e-13
0.00840003
3.00166e-13
0.00840003
8.06736e-13
0.00840003
1.30584e-12
0.00840003
4.89713e-12
0.00840003
5.72692e-12
0.00840003
2.84628e-11
0.00840003
2.36972e-11
0.00840003
1.61736e-10
0.00840003
6.5448e-11
0.00840003
8.61386e-10
0.00840004
9.46659e-11
0.00839998
4.22819e-09
0.00840016
3.12862e-10
0.00839957
1.81962e-08
0.0084012
7.10231e-09
6.09375e-08
0.00839682
0.00840003
0.00840003
0.00840003
0.00840003
0.00840003
0.00840003
0.00840003
0.00840003
0.00840003
0.00840003
0.00840003
0.00840003
0.00840003
0.00840003
0.00840003
0.00840003
0.00840003
0.00840002
0.00840005
0.00839999
0.00840011
0.00839987
0.00840024
0.00839965
0.00839973
0.00483763
0.00405756
0.00321641
0.00162109
0.00252204
0.000694233
0.00224457
0.000277246
0.00222703
1.68055e-05
0.0024171
-0.000190422
0.00263648
-0.000219707
0.0027566
-0.000120864
0.00279108
-3.62408e-05
0.00276943
1.95456e-05
0.00273183
3.50956e-05
0.00269677
3.10982e-05
0.00266214
2.67223e-05
0.0026116
3.3314e-05
0.00249554
7.95246e-05
0.0021855
0.000222976
0.00138671
0.000618697
0.000541264
0.000776517
-0.000156381
0.000699786
-0.000788743
0.000627283
-0.00131378
0.000538896
-0.00173876
0.000435059
-0.00207408
0.000337095
-0.00230757
0.000236157
-0.00245208
0.000150575
-0.00255726
0.000111139
-0.00263589
8.48283e-05
-0.00271181
7.99397e-05
-0.00277973
7.00365e-05
-0.00282482
4.74172e-05
-0.00283773
1.42364e-05
-0.00282166
-1.69001e-05
-0.00276218
-6.37698e-05
-0.00262739
-0.000141786
-0.00242516
-0.000210352
-0.00217559
-0.000258327
-0.00188921
-0.000294433
-0.00158472
-0.000311957
-0.00126275
-0.000328644
-0.000938659
-0.000329562
-0.000619142
-0.000323921
-0.000300702
-0.000321795
3.14004e-05
-0.000334815
0.000338268
-0.000308631
0.000619774
-0.000282496
0.000888144
-0.000268686
0.0011432
-0.00025477
0.00138428
-0.000240405
0.00161017
-0.000225168
0.0018242
-0.000213327
0.00203273
-0.000208067
0.00223192
-0.000199112
0.00242061
-0.000188951
0.00259752
-0.000177534
0.00276451
-0.000167545
0.00292146
-0.000157651
0.00306986
-0.000148873
0.00320931
-0.000139963
0.00334086
-0.000131784
0.00346428
-0.000123638
0.00358041
-0.000116152
0.00368937
-0.000108828
0.00379163
-0.000102113
0.00388723
-9.55915e-05
0.00397666
-8.9617e-05
0.00406005
-8.38408e-05
0.00413777
-7.85367e-05
0.00420983
-7.34042e-05
0.00427664