/*--------------------------------*- C++ -*----------------------------------*\
  =========                 |
  \\      /  F ield         | OpenFOAM: The Open Source CFD Toolbox
   \\    /   O peration     | Website:  https://openfoam.org
    \\  /    A nd           | Version:  9
     \\/     M anipulation  |
\*---------------------------------------------------------------------------*/
FoamFile
{
    format      ascii;
    class       volScalarField;
    location    "4";
    object      T;
}
// * * * * * * * * * * * * * * * * * * * * * * * * * * * * * * * * * * * * * //

dimensions      [0 0 0 1 0 0 0];

internalField   nonuniform List<scalar> 
5250
(
1
1.00002
1.00004
1.00012
1.00023
1.00071
1.00144
1.00426
1.00915
1.02532
1.0605
1.16422
1.43606
2.09892
2.64842
2.76088
2.74282
2.73758
2.74896
2.76666
2.77835
2.78757
2.79286
2.79474
2.80012
1
1.00002
1.00004
1.00011
1.00024
1.00069
1.00143
1.00421
1.00892
1.02511
1.05919
1.16165
1.4286
2.08467
2.64355
2.7606
2.74203
2.73645
2.74785
2.7655
2.77714
2.78636
2.79165
2.79351
2.79884
1
1.00001
1.00004
1.0001
1.00024
1.00064
1.00145
1.00394
1.00879
1.02407
1.05728
1.15537
1.41317
2.05217
2.63193
2.75918
2.73953
2.73311
2.74466
2.76194
2.77388
2.78273
2.78816
2.78999
2.79553
1
1.00001
1.00004
1.00008
1.00026
1.00053
1.00154
1.00335
1.00913
1.02127
1.05638
1.14393
1.39146
2.00042
2.61323
2.75632
2.73509
2.72738
2.73848
2.75661
2.76784
2.77769
2.78284
2.78453
2.7893
1
1.00001
1.00003
1.00009
1.00021
1.00056
1.00133
1.00328
1.00825
1.0201
1.05162
1.13366
1.35936
1.9329
2.58635
2.75082
2.72807
2.71874
2.73025
2.74762
2.75986
2.76887
2.77457
2.77688
2.78241
1
1.00001
1.00004
1.00007
1.00022
1.00046
1.00129
1.00288
1.00768
1.01811
1.04732
1.12008
1.32474
1.84656
2.55017
2.74034
2.71683
2.70637
2.71781
2.7362
2.74823
2.75818
2.76324
2.76494
2.77021
1
1.00001
1.00003
1.00008
1.00018
1.00046
1.00111
1.00271
1.00685
1.01648
1.04251
1.10803
1.28924
1.76181
2.5072
2.72674
2.70297
2.69187
2.70298
2.7208
2.73354
2.74228
2.74843
2.74924
2.75284
1
1.00001
1.00003
1.00006
1.00017
1.0004
1.00103
1.00249
1.00608
1.01541
1.03792
1.09844
1.26157
1.69438
2.45912
2.71134
2.69093
2.6809
2.68892
2.7034
2.71577
2.72296
2.72685
2.72568
2.72543
1
1.00001
1.00002
1.00006
1.00015
1.00037
1.00092
1.00221
1.00569
1.01344
1.03518
1.08778
1.23579
1.62823
2.38908
2.68435
2.68128
2.67404
2.67572
2.6858
2.6937
2.69947
2.69954
2.69297
2.67967
1
1.00001
1.00002
1.00005
1.00014
1.00033
1.00082
1.00204
1.00488
1.01262
1.03036
1.07941
1.20848
1.55945
2.29696
2.64786
2.67378
2.66591
2.66226
2.66761
2.67059
2.67026
2.66285
2.64078
2.57969
1
1.00001
1.00002
1.00005
1.00012
1.00028
1.00076
1.00166
1.00468
1.01017
1.02829
1.06717
1.1835
1.48609
2.18115
2.59994
2.66489
2.65588
2.64802
2.64782
2.64632
2.63835
2.61691
2.56605
2.45175
1
1.00001
1.00002
1.00004
1.0001
1.00025
1.00062
1.00149
1.00387
1.00891
1.0239
1.05737
1.15462
1.41058
2.03566
2.53753
2.65168
2.64255
2.6316
2.62715
2.62044
2.60401
2.56893
2.49809
2.3642
1
1
1.00001
1.00003
1.00009
1.00019
1.00056
1.00116
1.00331
1.00731
1.01972
1.04709
1.1259
1.33138
1.8627
2.45685
2.62792
2.62114
2.61122
2.60297
2.59239
2.57024
2.52707
2.45138
2.33051
1
1
1.00001
1.00003
1.00006
1.00018
1.00038
1.00112
1.00227
1.00668
1.01431
1.03961
1.0957
1.25922
1.6731
2.35862
2.59044
2.59203
2.58453
2.57529
2.56173
2.53718
2.49298
2.42267
2.31741
1
1
1.00001
1.00002
1.00006
1.00014
1.00034
1.00081
1.00212
1.00482
1.01298
1.03007
1.08014
1.20648
1.55154
2.24629
2.54727
2.56769
2.55879
2.54718
2.53321
2.5066
2.46423
2.40148
2.31126
1
1
1.00001
1.00002
1.00004
1.00012
1.00025
1.00071
1.00157
1.00418
1.00981
1.02522
1.06268
1.1658
1.43958
2.07561
2.47572
2.54745
2.5395
2.52537
2.50646
2.48073
2.439
2.38346
2.30606
1
1
1.00001
1.00001
1.00004
1.00009
1.00022
1.00052
1.00133
1.00306
1.00818
1.01877
1.04995
1.12537
1.33764
1.86424
2.3794
2.51989
2.51851
2.50507
2.48311
2.45707
2.41801
2.36666
2.30056
1
1
1
1.00001
1.00002
1.00007
1.00015
1.00044
1.00088
1.00259
1.00546
1.01515
1.03483
1.09299
1.23755
1.6257
2.25215
2.47368
2.48855
2.47867
2.45782
2.43281
2.39816
2.35125
2.29325
1
1
1
1.00001
1.00002
1.00005
1.00013
1.0003
1.00074
1.00184
1.00437
1.01127
1.0267
1.06983
1.17886
1.47538
2.1037
2.41856
2.46227
2.45364
2.43507
2.4084
2.37799
2.33714
2.28526
1
1
1
1.00001
1.00002
1.00004
1.0001
1.00021
1.00061
1.00123
1.00365
1.00763
1.02141
1.04965
1.13431
1.34858
1.88632
2.32116
2.4309
2.42977
2.41453
2.38886
2.35775
2.32223
2.27714
1
1
1
1
1.00001
1.00003
1.00006
1.00018
1.00036
1.00108
1.00217
1.00634
1.01355
1.03721
1.0891
1.23825
1.61448
2.18575
2.38223
2.39998
2.39006
2.36789
2.33867
2.30529
2.267
1
1
1
1
1.00001
1.00002
1.00005
1.00011
1.00031
1.00067
1.00179
1.00414
1.01047
1.02558
1.0647
1.1667
1.43886
2.01728
2.32027
2.37155
2.36485
2.34647
2.31968
2.28961
2.25429
1
1
1
1
1.00001
1.00001
1.00004
1.00008
1.00022
1.00045
1.00135
1.00273
1.00789
1.01723
1.04674
1.11432
1.30655
1.77456
2.21237
2.33306
2.33836
2.3267
2.30311
2.2742
2.24185
1
1
1
1
1
1.00001
1.00003
1.00005
1.00015
1.00031
1.0009
1.00192
1.00523
1.01179
1.03092
1.07474
1.19679
1.50851
2.0543
2.2732
2.3075
2.30216
2.28454
2.25773
2.22889
1
1
1
1
1
1.00001
1.00002
1.00004
1.0001
1.00023
1.00058
1.00141
1.00336
1.00854
1.02017
1.05202
1.13051
1.34357
1.8384
2.18451
2.27279
2.27701
2.2663
2.24354
2.21482
1
1
1
1
1
1
1.00001
1.00002
1.00007
1.00014
1.00041
1.00085
1.00239
1.00519
1.01386
1.03217
1.084
1.21102
1.55144
2.04147
2.22245
2.24844
2.24373
2.22624
2.2015
1
1
1
1
1
1
1.00001
1.00002
1.00005
1.0001
1.00028
1.00056
1.00162
1.00336
1.00937
1.02094
1.0555
1.13657
1.36179
1.84738
2.14833
2.21702
2.22032
2.20973
2.18855
1
1
1
1
1
1
1
1.00001
1.00003
1.00007
1.00015
1.00043
1.00087
1.00256
1.00524
1.01477
1.03296
1.088
1.21907
1.56969
2.01354
2.17109
2.19384
2.18917
2.17241
1
1
1
1
1
1
1
1.00001
1.00002
1.00005
1.0001
1.00028
1.00058
1.00158
1.00353
1.00908
1.02156
1.05446
1.13678
1.35711
1.81982
2.09527
2.16073
2.16583
2.15705
1
1
1
1
1
1
1
1
1.00001
1.00003
1.00007
1.00016
1.00038
1.00098
1.00217
1.00584
1.01275
1.03444
1.08063
1.2124
1.53784
1.95988
2.11417
2.13955
2.13734
1
1
1
1
1
1
1
1
1.00001
1.00002
1.00004
1.0001
1.00025
1.00058
1.00142
1.00348
1.00816
1.02097
1.04945
1.12855
1.3279
1.76139
2.03365
2.10605
2.11462
1
1
1
1
1
1
1
1
1
1.00001
1.00003
1.00006
1.00016
1.00033
1.00092
1.00188
1.00541
1.01123
1.03084
1.07093
1.18619
1.46818
1.88848
2.05671
2.08718
1
1
1
1
1
1
1
1
1
1.00001
1.00001
1.00004
1.00008
1.00023
1.00051
1.00128
1.00306
1.00727
1.01835
1.04355
1.11178
1.28402
1.67908
1.97439
2.05663
1
1
1
1
1
1
1
1
1
1
1.00001
1.00002
1.00005
1.00014
1.00028
1.00081
1.00167
1.0046
1.01001
1.02636
1.06173
1.15987
1.40443
1.81365
1.99882
1
1
1
1
1
1
1
1
1
1
1.00001
1.00001
1.00003
1.00007
1.00019
1.00044
1.00108
1.00259
1.00611
1.0154
1.03616
1.09261
1.23212
1.57118
1.89467
1
1
1
1
1
1
1
1
1
1
1
1.00001
1.00002
1.00005
1.0001
1.00027
1.00062
1.00149
1.00363
1.00849
1.02149
1.0508
1.12918
1.32925
1.71111
1
1
1
1
1
1
1
1
1
1
1
1
1.00001
1.00003
1.00006
1.00015
1.00035
1.00087
1.00193
1.0051
1.01103
1.02956
1.06718
1.17512
1.43182
1
1
1
1
1
1
1
1
1
1
1
1
1.00001
1.00001
1.00004
1.00008
1.00022
1.00045
1.00126
1.00254
1.0072
1.01514
1.04083
1.09494
1.24866
1
1
1
1
1
1
1
1
1
1
1
1
1
1.00001
1.00002
1.00005
1.0001
1.00029
1.0006
1.00163
1.00355
1.00916
1.02108
1.0531
1.12918
1
1
1
1
1
1
1
1
1
1
1
1
1
1
1.00001
1.00002
1.00007
1.00014
1.00036
1.00084
1.002
1.00492
1.01122
1.0287
1.06665
1
1
1
1
1
1
1
1
1
1
1
1
1
1
1.00001
1.00001
1.00004
1.00008
1.00021
1.00044
1.00117
1.00261
1.00645
1.01537
1.03713
1
1
1
1
1
1
1
1
1
1
1
1
1
1
1
1.00001
1.00002
1.00004
1.00011
1.00025
1.00062
1.00143
1.00345
1.00832
1.01964
1
1
1
1
1
1
1
1
1
1
1
1
1
1
1
1
1.00001
1.00003
1.00006
1.00014
1.00033
1.00076
1.00192
1.00418
1.01102
1
1
1
1
1
1
1
1
1
1
1
1
1
1
1
1
1.00001
1.00001
1.00003
1.00008
1.00017
1.00047
1.00096
1.00259
1.0056
1
1
1
1
1
1
1
1
1
1
1
1
1
1
1
1
1
1.00001
1.00002
1.00005
1.00011
1.0003
1.00061
1.00167
1.00361
1
1
1
1
1
1
1
1
1
1
1
1
1
1
1
1
1
1.00001
1.00002
1.00004
1.00009
1.0002
1.00055
1.00116
1.00329
1
1
1
1
1
1
1
1
1
1
1
1
1
1
1
1
1
1.00001
1.00001
1.00003
1.00008
1.0002
1.00044
1.00122
1.00258
1
1
1
1
1
1
1
1
1
1
1
1
1
1
1
1
1
1.00001
1.00001
1.00003
1.00007
1.00018
1.00045
1.00108
1.00278
1
1
1
1
1
1
1
1
1
1
1
1
1
1
1
1
1
1.00001
1.00001
1.00003
1.00007
1.00018
1.00044
1.00108
1.00274
1
1
1
1
1
1
1
1
1
1
1
1
1
1
1
1
1
1.00001
1.00001
1.00003
1.00006
1.0002
1.0004
1.00117
1.00251
2.23496
2.06933
2.01751
2.04748
2.1059
2.17704
2.24399
2.27768
2.28574
2.28477
2.28562
2.29171
2.30968
2.35148
2.43706
2.59429
2.77855
2.8803
2.90093
2.91239
2.93803
2.95511
2.94221
2.90943
2.89571
2.88388
2.86905
2.86102
2.85067
2.84587
2.84411
2.84667
2.85646
2.87215
2.89154
2.90966
2.92701
2.94115
2.95044
2.95781
2.9608
2.96196
2.95967
2.95913
2.95411
2.95062
2.94249
2.93804
2.92884
2.92368
2.91268
2.90666
2.89433
2.888
2.87514
2.86777
2.85451
2.84616
2.83332
2.82467
2.81239
2.8037
2.79166
2.78301
2.77126
2.76262
2.75096
2.74228
2.7308
2.72209
2.71082
2.702
2.69095
2.68214
2.6712
2.66257
2.65161
2.64328
2.63228
2.62429
2.61337
2.60566
2.59487
2.5875
2.57673
2.56978
2.55907
2.55238
2.54192
2.53532
2.52516
2.5187
2.5088
2.50265
2.49303
2.48743
2.47861
2.47463
2.46857
2.46849
2.22907
2.13089
2.07688
2.03988
2.00356
1.97533
1.96864
1.97299
1.98782
2.0104
2.02948
2.0422
2.05801
2.09066
2.16306
2.32863
2.57353
2.77031
2.83941
2.86244
2.89614
2.93576
2.95933
2.9771
2.98321
2.98471
2.98492
2.97822
2.9619
2.95569
2.95465
2.95464
2.96041
2.96853
2.97305
2.97571
2.96919
2.96624
2.95532
2.94599
2.92333
2.91331
2.89248
2.88213
2.86329
2.85258
2.83521
2.82359
2.80768
2.79648
2.78043
2.76814
2.75263
2.74035
2.72523
2.71327
2.69899
2.68772
2.67404
2.66324
2.65001
2.63949
2.62661
2.61637
2.60373
2.59375
2.58132
2.57153
2.55927
2.54962
2.53746
2.52799
2.51587
2.50663
2.49452
2.48558
2.47348
2.46483
2.45284
2.44438
2.4326
2.42433
2.41274
2.40473
2.3933
2.38553
2.37433
2.36667
2.35579
2.34818
2.33756
2.32999
2.3196
2.31221
2.30224
2.29547
2.28645
2.28128
2.2751
2.27384
2.22843
2.14085
2.06099
1.98557
1.91638
1.86264
1.83739
1.8359
1.84033
1.85277
1.87125
1.88946
1.90679
1.93272
1.9847
2.11119
2.27542
2.53037
2.6737
2.72973
2.76094
2.78917
2.83643
2.8781
2.91723
2.94928
2.97547
2.9863
2.99276
2.99448
2.99578
2.99849
2.99785
2.99001
2.9757
2.95399
2.92638
2.90342
2.8806
2.86157
2.84247
2.82665
2.80942
2.79637
2.78081
2.76833
2.75328
2.7411
2.72656
2.71526
2.70159
2.68889
2.6745
2.66243
2.64922
2.63796
2.625
2.61383
2.60104
2.58989
2.57743
2.56638
2.55417
2.54334
2.5313
2.52074
2.50892
2.4986
2.48704
2.4769
2.46556
2.45557
2.44437
2.43456
2.42344
2.41385
2.40287
2.39346
2.38272
2.37349
2.363
2.35399
2.34367
2.3349
2.32477
2.31615
2.30626
2.29769
2.28799
2.27946
2.26996
2.26159
2.25231
2.24415
2.23517
2.22745
2.21922
2.21277
2.20704
2.20426
2.22053
2.1338
2.05274
1.97896
1.91383
1.86058
1.81956
1.79046
1.77541
1.77273
1.77496
1.78314
1.79734
1.82026
1.85842
1.93762
2.07726
2.31797
2.484
2.53108
2.57448
2.6436
2.68794
2.70902
2.7499
2.79866
2.83746
2.87533
2.90807
2.92953
2.94228
2.93985
2.92599
2.90183
2.87093
2.84119
2.81141
2.79001
2.76824
2.75379
2.73691
2.7239
2.70774
2.69534
2.68021
2.6682
2.65375
2.64156
2.62797
2.61703
2.60388
2.59156
2.57738
2.56517
2.55214
2.54057
2.52792
2.5166
2.50424
2.49315
2.48111
2.47018
2.45838
2.44762
2.43607
2.42559
2.41434
2.40414
2.39312
2.38314
2.37226
2.36253
2.35177
2.34237
2.33169
2.3226
2.312
2.30309
2.29265
2.28391
2.27373
2.26526
2.25538
2.24716
2.23748
2.22934
2.21976
2.21164
2.20227
2.19424
2.18512
2.17727
2.16843
2.16088
2.15232
2.1453
2.13735
2.13159
2.12586
2.12378
2.21902
2.13437
2.05636
1.98543
1.92162
1.86487
1.81604
1.775
1.74416
1.72457
1.71845
1.71942
1.72412
1.73584
1.76116
1.81398
1.93287
2.09968
2.30052
2.39209
2.45327
2.49285
2.51329
2.5545
2.60979
2.63951
2.67451
2.72032
2.75641
2.78149
2.80742
2.80571
2.79115
2.76199
2.73374
2.70505
2.68321
2.6665
2.65442
2.64426
2.63357
2.62304
2.61177
2.60184
2.59075
2.58104
2.56969
2.55962
2.54821
2.53921
2.52891
2.51924
2.50749
2.49706
2.48603
2.47601
2.46538
2.45574
2.44535
2.43593
2.42553
2.41588
2.40533
2.39531
2.38477
2.37478
2.36452
2.35494
2.34485
2.33559
2.32534
2.31606
2.30562
2.29629
2.28596
2.27676
2.26677
2.25776
2.24793
2.23905
2.22915
2.22034
2.21043
2.20175
2.19221
2.1838
2.17483
2.16655
2.1579
2.14963
2.14101
2.13283
2.12424
2.11635
2.10808
2.1007
2.09316
2.08684
2.08138
2.07858
2.22139
2.14095
2.06583
1.99732
1.93514
1.87827
1.82891
1.78484
1.74928
1.71955
1.69851
1.68596
1.68477
1.68808
1.69935
1.72717
1.79193
1.91815
2.14769
2.26999
2.31769
2.37606
2.41165
2.43112
2.45807
2.5024
2.54754
2.57767
2.61956
2.6558
2.68693
2.68651
2.67266
2.64563
2.61604
2.58649
2.56386
2.54817
2.53894
2.53411
2.5282
2.523
2.51534
2.509
2.50079
2.49337
2.48384
2.4754
2.46548
2.45773
2.44926
2.44162
2.43159
2.42239
2.41236
2.40355
2.39369
2.38474
2.37489
2.36587
2.35625
2.34736
2.33795
2.32905
2.31943
2.31016
2.30031
2.29096
2.28148
2.2726
2.2636
2.25501
2.24585
2.23693
2.22724
2.21798
2.2082
2.19928
2.19005
2.18184
2.17312
2.16518
2.15646
2.14829
2.13924
2.13087
2.12171
2.11367
2.10483
2.09734
2.08892
2.08163
2.07341
2.066
2.05774
2.05051
2.04252
2.03647
2.03041
2.02819
2.22528
2.14945
2.07967
2.01236
1.95235
1.89639
1.84592
1.80117
1.76077
1.72685
1.69752
1.67616
1.66096
1.6581
1.66153
1.67393
1.70641
1.78641
1.92919
2.15152
2.24891
2.27366
2.29793
2.33926
2.36992
2.3941
2.42888
2.46828
2.51709
2.56064
2.59727
2.59816
2.58233
2.55211
2.51693
2.48289
2.45865
2.43902
2.43135
2.4298
2.43151
2.43144
2.43026
2.42777
2.42369
2.41904
2.41332
2.40816
2.40183
2.39663
2.39074
2.38593
2.37883
2.37169
2.36352
2.35624
2.3479
2.34024
2.33158
2.32399
2.31554
2.30811
2.29976
2.29205
2.28345
2.27521
2.26619
2.2575
2.24829
2.2395
2.23048
2.22191
2.21309
2.20469
2.19577
2.18728
2.17819
2.16949
2.16033
2.15162
2.14264
2.13431
2.12551
2.11755
2.10876
2.10077
2.09191
2.0836
2.07485
2.06641
2.058
2.04989
2.04183
2.0343
2.0264
2.0193
2.01166
2.00511
1.99915
1.99569
2.22702
2.1585
2.09118
2.02967
1.9693
1.91648
1.86519
1.82058
1.77922
1.74221
1.7113
1.68302
1.66268
1.64652
1.64309
1.64667
1.66027
1.69718
1.795
1.94294
2.12561
2.21928
2.23793
2.25235
2.28556
2.32218
2.3521
2.38493
2.44481
2.507
2.53947
2.53765
2.51566
2.48409
2.44218
2.40428
2.37784
2.36043
2.3494
2.34562
2.34983
2.35526
2.35961
2.36221
2.36313
2.36206
2.35965
2.35675
2.35205
2.34826
2.34386
2.34056
2.33538
2.32974
2.32207
2.31521
2.30715
2.30004
2.29178
2.28459
2.27644
2.26932
2.26133
2.25381
2.24543
2.23706
2.22803
2.21922
2.20992
2.20133
2.19222
2.18403
2.17529
2.16718
2.15851
2.15014
2.1411
2.13245
2.12306
2.11456
2.10522
2.09709
2.08817
2.0803
2.07187
2.06398
2.05574
2.04773
2.03934
2.03135
2.02275
2.01505
2.00651
1.9992
1.99107
1.98413
1.97668
1.97038
1.96462
1.96154
2.22712
2.16446
2.10326
2.04292
1.98814
1.93436
1.88672
1.84062
1.80027
1.76218
1.72827
1.69915
1.67181
1.65213
1.63548
1.63246
1.63639
1.65148
1.69238
1.80332
1.95035
2.10738
2.18415
2.20762
2.22238
2.25
2.29673
2.34505
2.41542
2.48027
2.50177
2.49623
2.47465
2.43713
2.39047
2.3485
2.31886
2.30176
2.291
2.28453
2.28538
2.29147
2.30049
2.30719
2.31221
2.31451
2.31443
2.31319
2.31049
2.30822
2.30481
2.30273
2.29921
2.29509
2.28853
2.2819
2.27434
2.2671
2.2592
2.25186
2.24398
2.23704
2.22928
2.22251
2.2144
2.20709
2.19829
2.19032
2.18124
2.17308
2.16412
2.15603
2.14715
2.13908
2.13013
2.12185
2.11275
2.10424
2.0951
2.08641
2.07742
2.06885
2.06012
2.05195
2.04345
2.03573
2.02729
2.01981
2.0113
2.00371
1.99516
1.98733
1.97891
1.97101
1.96292
1.95536
1.94782
1.94124
1.93529
1.93225
2.22506
2.16979
2.11229
2.05702
2.00273
1.95348
1.90491
1.86182
1.82025
1.78284
1.74849
1.71627
1.68957
1.66342
1.64471
1.6289
1.6268
1.63133
1.64803
1.69257
1.80783
1.96309
2.08624
2.15103
2.18845
2.21139
2.25217
2.32638
2.41547
2.47874
2.48686
2.4763
2.4485
2.4025
2.35504
2.314
2.28356
2.26215
2.25036
2.24395
2.24095
2.24314
2.25003
2.26034
2.26653
2.27333
2.27602
2.27656
2.27575
2.27387
2.27109
2.26945
2.26688
2.26402
2.25812
2.25163
2.24361
2.23638
2.22825
2.22101
2.21308
2.20602
2.19826
2.19126
2.18323
2.17577
2.16697
2.15886
2.14954
2.14118
2.13195
2.1237
2.11477
2.10658
2.09787
2.08973
2.08117
2.07299
2.06433
2.05607
2.04716
2.03893
2.02987
2.0218
2.01282
2.00497
1.99632
1.98861
1.98036
1.97269
1.96467
1.95703
1.949
1.94145
1.93335
1.9261
1.91823
1.91178
1.90549
1.90233
2.22116
2.17122
2.11968
2.06775
2.01736
1.969
1.92373
1.88017
1.84053
1.80313
1.76806
1.73709
1.70648
1.68184
1.65662
1.6389
1.62395
1.62309
1.62835
1.64702
1.69616
1.81204
1.98219
2.07335
2.13355
2.18947
2.24628
2.34272
2.43854
2.48327
2.48217
2.46617
2.43
2.38314
2.33613
2.29629
2.26431
2.24139
2.22525
2.21595
2.21238
2.21051
2.21194
2.21733
2.22554
2.23119
2.23815
2.23907
2.23964
2.23833
2.23573
2.23388
2.23105
2.22834
2.22302
2.2166
2.2083
2.20069
2.19242
2.18516
2.17714
2.16986
2.16174
2.15437
2.14625
2.13886
2.13065
2.12299
2.11446
2.1065
2.09774
2.08971
2.08084
2.07281
2.06397
2.05609
2.04739
2.03972
2.03117
2.02357
2.01508
2.00736
1.99884
1.99096
1.98248
1.97455
1.96625
1.95848
1.95044
1.94298
1.93513
1.928
1.92019
1.91329
1.90549
1.89874
1.8912
1.88491
1.87885
1.87548
2.21487
2.17015
2.12422
2.07624
2.02971
1.98336
1.94014
1.89789
1.85897
1.82145
1.7879
1.75435
1.72612
1.69708
1.67377
1.64989
1.6332
1.61983
1.62017
1.62695
1.64835
1.70314
1.81936
2.00054
2.07854
2.15612
2.2568
2.38313
2.47267
2.49156
2.48501
2.46147
2.42
2.37193
2.32781
2.29072
2.25913
2.23487
2.21509
2.20219
2.19395
2.18861
2.18533
2.18215
2.18392
2.1881
2.19405
2.19693
2.1986
2.1981
2.1958
2.1932
2.1892
2.18602
2.18127
2.17587
2.16816
2.16079
2.15259
2.14547
2.13763
2.13064
2.12266
2.11538
2.10731
2.10011
2.0923
2.08518
2.07728
2.06981
2.06156
2.05373
2.04535
2.03761
2.02932
2.02166
2.01343
2.00587
1.99777
1.9904
1.98243
1.97516
1.96723
1.95992
1.95195
1.94461
1.93667
1.92944
1.92163
1.91467
1.90702
1.90039
1.89291
1.88655
1.87923
1.87308
1.86611
1.86043
1.85482
1.85191
2.20589
2.16676
2.12474
2.08203
2.03845
1.99645
1.95409
1.91514
1.87603
1.84076
1.80569
1.77455
1.74341
1.71636
1.68956
1.66682
1.64473
1.62818
1.61822
1.61901
1.62793
1.65335
1.71659
1.83983
2.02388
2.14245
2.29007
2.43762
2.50941
2.51028
2.49743
2.46398
2.41588
2.37177
2.33185
2.2986
2.26703
2.23912
2.21482
2.19638
2.18077
2.16889
2.15961
2.15039
2.14432
2.14143
2.14279
2.14636
2.14914
2.14985
2.14905
2.14658
2.14213
2.13836
2.13406
2.13021
2.12443
2.1183
2.11095
2.10433
2.09699
2.09056
2.0833
2.07668
2.06915
2.06223
2.05464
2.04781
2.04041
2.03365
2.02607
2.01907
2.01131
2.00421
1.99646
1.98945
1.98182
1.97487
1.96729
1.96038
1.95287
1.94603
1.93863
1.93183
1.92452
1.9177
1.91044
1.90365
1.89644
1.88983
1.88269
1.87639
1.86939
1.86342
1.85662
1.85096
1.84455
1.83945
1.83434
1.83188
2.19639
2.16154
2.12388
2.08502
2.04448
2.00562
1.96601
1.9284
1.89147
1.85688
1.82291
1.792
1.76134
1.73382
1.70672
1.68336
1.65933
1.64174
1.62385
1.61957
1.62301
1.63552
1.66924
1.74937
1.90004
2.11743
2.34051
2.50614
2.53829
2.53112
2.50832
2.4667
2.42235
2.38203
2.34453
2.30759
2.27278
2.24005
2.21232
2.18671
2.16529
2.14546
2.12817
2.11295
2.10249
2.09306
2.08956
2.08922
2.09133
2.09492
2.09563
2.09536
2.09363
2.09103
2.08752
2.0851
2.08175
2.07809
2.07246
2.06697
2.06042
2.05458
2.04801
2.04224
2.03578
2.02988
2.02322
2.01695
2.01004
2.00356
1.99661
1.99021
1.98322
1.97672
1.96955
1.96294
1.95567
1.94904
1.94178
1.93519
1.92798
1.92149
1.91437
1.90804
1.90101
1.8948
1.88779
1.88164
1.87458
1.86847
1.86138
1.85538
1.84839
1.84261
1.83591
1.83049
1.82434
1.81958
1.81487
1.81253
2.18646
2.15506
2.121
2.08566
2.04869
2.01125
1.97582
1.93863
1.90492
1.86999
1.83879
1.80673
1.77865
1.74917
1.72451
1.69798
1.67654
1.65442
1.63706
1.62611
1.62672
1.63475
1.65722
1.71257
1.83034
2.07439
2.37488
2.55701
2.57458
2.56097
2.52821
2.48318
2.43923
2.39437
2.35028
2.3062
2.26531
2.22872
2.19572
2.16655
2.13962
2.11409
2.09303
2.07408
2.06007
2.05011
2.04265
2.0388
2.03713
2.03923
2.04213
2.04634
2.04787
2.04924
2.04816
2.0469
2.0446
2.04258
2.03871
2.03439
2.02883
2.02364
2.01765
2.0122
2.00618
2.00067
1.99459
1.98887
1.98248
1.97647
1.96992
1.96383
1.95717
1.95108
1.94431
1.93814
1.93119
1.92486
1.91773
1.91124
1.90405
1.89755
1.89039
1.88401
1.87693
1.87075
1.86373
1.85779
1.85088
1.84522
1.83847
1.83313
1.82664
1.82165
1.81557
1.81102
1.80561
1.80177
1.79758
1.79588
2.17427
2.14678
2.11637
2.08352
2.05135
2.015
1.98191
1.94723
1.91454
1.88157
1.85102
1.82007
1.79266
1.76359
1.73959
1.71272
1.69202
1.66859
1.65192
1.63884
1.63923
1.64632
1.66595
1.7138
1.81703
2.04682
2.31714
2.52929
2.55154
2.53344
2.50097
2.45197
2.3975
2.34709
2.30384
2.26592
2.2295
2.19399
2.16099
2.13226
2.10606
2.08297
2.06111
2.04355
2.02917
2.01799
2.00849
2.00233
1.99793
1.99644
1.99788
2.00185
2.00654
2.01006
2.01209
2.01248
2.01114
2.00971
2.00707
2.00405
1.99934
1.99469
1.98916
1.98406
1.97825
1.97278
1.96663
1.96079
1.95448
1.9487
1.94245
1.93672
1.93038
1.92458
1.91813
1.91234
1.90587
1.90012
1.89363
1.88786
1.8813
1.87546
1.86882
1.86301
1.85636
1.85069
1.84406
1.83862
1.83205
1.82684
1.82044
1.8155
1.80943
1.8049
1.79937
1.7955
1.79055
1.78739
1.78392
1.78278
2.16252
2.13483
2.10944
2.07884
2.04918
2.01836
1.98531
1.95366
1.92292
1.89035
1.86263
1.83079
1.8056
1.77612
1.75287
1.72676
1.70535
1.68421
1.66647
1.65819
1.6604
1.66971
1.69253
1.74731
1.84182
2.02514
2.20799
2.40307
2.46449
2.45665
2.43335
2.39234
2.34695
2.30784
2.27159
2.23661
2.20238
2.17118
2.14204
2.11569
2.09078
2.06709
2.04528
2.02562
2.00814
1.99377
1.98181
1.973
1.96598
1.9624
1.96049
1.96064
1.96321
1.96664
1.97078
1.97295
1.97533
1.97511
1.97422
1.97311
1.97077
1.96742
1.96235
1.95755
1.95217
1.9473
1.94182
1.93672
1.93106
1.92583
1.92002
1.91476
1.90884
1.90357
1.89752
1.89215
1.88592
1.88037
1.87395
1.86824
1.86167
1.85592
1.84929
1.84366
1.83706
1.83162
1.82515
1.81995
1.8137
1.80881
1.80288
1.79845
1.79301
1.78927
1.78444
1.78138
1.77722
1.77536
1.77312
1.77295
2.14962
2.12463
2.09873
2.07362
2.04439
2.01668
1.98799
1.95645
1.92905
1.89771
1.87073
1.84182
1.81517
1.78912
1.76371
1.74092
1.7179
1.69998
1.68516
1.68384
1.68996
1.70588
1.74209
1.81888
1.93912
2.032
2.12142
2.24687
2.35131
2.3902
2.38519
2.36939
2.33789
2.29688
2.25859
2.22389
2.19129
2.16085
2.13318
2.10668
2.08131
2.05685
2.03441
2.01363
1.99494
1.97787
1.96369
1.95193
1.94249
1.93476
1.93025
1.92793
1.9276
1.92915
1.93305
1.93706
1.94079
1.94268
1.94349
1.94282
1.94146
1.93983
1.93654
1.93257
1.92746
1.92269
1.9172
1.91236
1.90693
1.90212
1.89664
1.89176
1.8861
1.88109
1.8752
1.87005
1.86396
1.85871
1.8525
1.84719
1.84092
1.83559
1.82933
1.82409
1.81793
1.81291
1.80694
1.80223
1.79656
1.7923
1.78704
1.7835
1.77876
1.77593
1.77163
1.76984
1.76699
1.76661
1.76658
1.76668
2.13804
2.11345
2.08885
2.06477
2.03969
2.0126
1.98654
1.95888
1.93115
1.90369
1.87644
1.84974
1.82416
1.79877
1.77505
1.752
1.73266
1.71547
1.71124
1.71607
1.72879
1.75871
1.82307
1.92697
2.00285
2.04269
2.07178
2.13057
2.21593
2.29172
2.32819
2.32675
2.31483
2.29046
2.25592
2.2202
2.186
2.15507
2.12687
2.09954
2.07374
2.04919
2.02674
2.00512
1.98511
1.96623
1.94989
1.93531
1.92358
1.9134
1.90509
1.89921
1.89628
1.89481
1.89506
1.89734
1.90124
1.90531
1.90808
1.91015
1.91013
1.90949
1.90818
1.90629
1.90249
1.89832
1.89322
1.88873
1.8836
1.87911
1.87389
1.86931
1.86389
1.85923
1.85361
1.84887
1.84307
1.83822
1.83229
1.82734
1.82135
1.81635
1.81039
1.80546
1.79961
1.79498
1.7893
1.78527
1.7799
1.77671
1.77201
1.76951
1.76568
1.76361
1.76146
1.76062
1.76104
1.76212
1.7648
1.7645
2.1223
2.10257
2.07822
2.05664
2.03222
2.00881
1.98314
1.95776
1.93288
1.90605
1.88113
1.85543
1.83071
1.80738
1.78436
1.76401
1.74685
1.73962
1.74297
1.75463
1.78146
1.83727
1.93635
2.01267
2.03942
2.04539
2.0502
2.06677
2.10674
2.16488
2.23416
2.27576
2.28003
2.27011
2.25261
2.22218
2.18692
2.15416
2.124
2.09529
2.06839
2.04369
2.02022
1.99788
1.97645
1.95704
1.93892
1.92291
1.90814
1.89591
1.88509
1.87621
1.86917
1.86544
1.86357
1.86338
1.86469
1.86832
1.87168
1.87577
1.87772
1.87902
1.87861
1.87791
1.87625
1.87378
1.86939
1.86524
1.86031
1.85606
1.85105
1.84684
1.84162
1.83733
1.83189
1.82748
1.82195
1.8174
1.81187
1.80722
1.80165
1.7971
1.79143
1.78725
1.78157
1.77792
1.77267
1.76953
1.76536
1.76274
1.75956
1.75737
1.75549
1.75474
1.75518
1.7562
1.75824
1.76107
1.76788
1.76841
2.1081
2.09161
2.06839
2.04632
2.02498
2.0018
1.97984
1.95495
1.93175
1.90778
1.8834
1.85974
1.83626
1.814
1.79394
1.77634
1.76804
1.77024
1.78123
1.80605
1.85765
1.955
2.03145
2.0568
2.05515
2.04706
2.03574
2.03603
2.04421
2.07177
2.11723
2.18506
2.22656
2.23534
2.22807
2.21483
2.18831
2.15652
2.12385
2.09279
2.06452
2.03885
2.01438
1.9914
1.96957
1.9495
1.93044
1.91254
1.89588
1.88103
1.86805
1.85714
1.84761
1.83999
1.83525
1.83297
1.83229
1.83267
1.8348
1.83908
1.84234
1.84593
1.84735
1.84828
1.84782
1.84688
1.84477
1.84184
1.83727
1.8333
1.82844
1.82442
1.81957
1.81546
1.8105
1.80637
1.80126
1.79724
1.79189
1.78805
1.78255
1.77883
1.77351
1.76987
1.76518
1.76182
1.75811
1.75545
1.75269
1.75064
1.74897
1.74831
1.74882
1.74995
1.75194
1.75501
1.76139
1.76566
1.77469
1.7773
2.08821
2.07753
2.0585
2.0366
2.01541
1.99495
1.97312
1.95198
1.92881
1.90679
1.8844
1.86245
1.8405
1.82091
1.80369
1.79494
1.79664
1.8076
1.83173
1.88188
1.97447
2.05194
2.07752
2.07454
2.06391
2.04332
2.02585
2.01534
2.0155
2.02064
2.03928
2.07707
2.13653
2.17229
2.18868
2.18478
2.17494
2.15454
2.12498
2.09245
2.06288
2.03573
2.00996
1.98544
1.96324
1.94216
1.92236
1.90318
1.88561
1.86916
1.85468
1.84143
1.83015
1.82006
1.81197
1.80613
1.80316
1.80196
1.802
1.80328
1.8064
1.81033
1.81427
1.81656
1.81824
1.81816
1.81769
1.81652
1.81388
1.81054
1.80621
1.80252
1.79784
1.79434
1.78941
1.78602
1.78095
1.77755
1.77258
1.76906
1.76437
1.7608
1.7566
1.75328
1.74992
1.74737
1.74513
1.74323
1.74187
1.7415
1.74212
1.74354
1.74551
1.74915
1.75549
1.76068
1.76914
1.77505
1.78442
1.78586
2.06778
2.06254
2.04741
2.02713
2.00677
1.9868
1.96712
1.94622
1.92621
1.90441
1.884
1.86365
1.84503
1.82843
1.81993
1.82173
1.83309
1.85747
1.90758
1.99761
2.07674
2.10203
2.09855
2.08591
2.06521
2.04064
2.01707
2.00161
1.99372
1.99381
1.99673
2.00977
2.04127
2.08279
2.12027
2.14205
2.14135
2.13339
2.11816
2.09229
2.06449
2.03541
2.00722
1.98148
1.95786
1.93614
1.91503
1.89545
1.87659
1.85972
1.84327
1.82877
1.81526
1.8038
1.79353
1.78491
1.77827
1.77433
1.77236
1.77208
1.77263
1.7747
1.77895
1.78223
1.78624
1.78785
1.78931
1.78916
1.78853
1.78705
1.78376
1.78093
1.77634
1.77326
1.76869
1.76558
1.76121
1.75797
1.75391
1.75062
1.74699
1.74393
1.741
1.7387
1.73686
1.73533
1.73426
1.73427
1.73491
1.73661
1.73884
1.74299
1.74955
1.75503
1.76402
1.76972
1.77934
1.78277
1.78982
1.7893
2.03787
2.04188
2.0345
2.0184
1.99795
1.97837
1.95945
1.9406
1.92122
1.9023
1.88294
1.86531
1.85022
1.84257
1.84497
1.857
1.88244
1.93264
2.02327
2.10289
2.12792
2.12351
2.11071
2.08712
2.05953
2.03507
2.01214
1.99542
1.98095
1.97328
1.9706
1.97144
1.97899
2.00032
2.03072
2.07109
2.09075
2.09576
2.09046
2.08059
2.06234
2.03508
2.00602
1.97932
1.95466
1.93124
1.90894
1.88813
1.86915
1.85085
1.83404
1.81759
1.80319
1.78961
1.77821
1.76741
1.75842
1.75105
1.74635
1.74358
1.74295
1.74304
1.74442
1.74734
1.75205
1.75542
1.75913
1.76014
1.76145
1.76127
1.76042
1.75875
1.75529
1.75249
1.74871
1.74569
1.74216
1.73915
1.73599
1.73326
1.73073
1.72873
1.72729
1.72637
1.7257
1.72598
1.72701
1.7286
1.73177
1.736
1.74337
1.74872
1.75871
1.76427
1.77375
1.77779
1.78332
1.78495
1.78579
1.78502
2.00214
2.02051
2.01899
2.00763
1.99005
1.97053
1.95188
1.93423
1.91642
1.89907
1.8828
1.86879
1.86225
1.86576
1.87884
1.90649
1.95799
2.05005
2.12705
2.15096
2.14592
2.13283
2.10877
2.08012
2.05367
2.03178
2.01002
1.99285
1.97488
1.96006
1.95204
1.9448
1.94484
1.94717
1.95887
1.9837
2.01383
2.03661
2.05094
2.0485
2.04118
2.02788
2.00475
1.9795
1.95355
1.92772
1.90412
1.88231
1.86251
1.84318
1.82511
1.80794
1.79244
1.77796
1.76461
1.75262
1.74162
1.7323
1.7245
1.71912
1.71563
1.71434
1.7144
1.71529
1.71796
1.72166
1.7264
1.72987
1.73277
1.73396
1.73493
1.73473
1.73378
1.73195
1.72917
1.7265
1.72381
1.7214
1.71928
1.71762
1.7166
1.71627
1.71633
1.71687
1.71819
1.72
1.72413
1.72845
1.73639
1.74179
1.75235
1.75854
1.76711
1.77241
1.77638
1.77893
1.77847
1.77757
1.77549
1.77348
1.92842
1.98809
1.99803
1.9941
1.98094
1.96318
1.945
1.92816
1.91191
1.89703
1.88441
1.87965
1.88459
1.89902
1.92954
1.98355
2.07603
2.15286
2.17409
2.16835
2.15455
2.12986
2.10004
2.07364
2.05023
2.0294
2.00946
1.98997
1.97172
1.95269
1.9393
1.92515
1.91893
1.91441
1.9149
1.92018
1.93538
1.95997
1.98683
2.00062
2.0051
2.00074
1.99221
1.97708
1.9519
1.92552
1.90106
1.87884
1.85723
1.83674
1.81711
1.79985
1.78298
1.76794
1.75288
1.73983
1.72737
1.71697
1.70685
1.69911
1.69259
1.68874
1.68675
1.68681
1.6874
1.68922
1.69324
1.69756
1.70238
1.70543
1.70822
1.70919
1.71046
1.71034
1.70966
1.70825
1.70662
1.70526
1.70444
1.70462
1.70519
1.70629
1.70799
1.71038
1.71534
1.72035
1.72896
1.73483
1.74483
1.75272
1.76013
1.76622
1.76972
1.77193
1.77149
1.77047
1.76801
1.76421
1.7601
1.75747
1.79025
1.94163
1.97227
1.97583
1.97002
1.95629
1.93891
1.92235
1.90828
1.89685
1.89399
1.9008
1.91714
1.95052
2.01054
2.10205
2.17604
2.19664
2.19075
2.17519
2.1495
2.1191
2.09291
2.06874
2.04761
2.02745
2.00706
1.98785
1.96762
1.94818
1.93059
1.9132
1.90043
1.89147
1.88316
1.88257
1.88371
1.8917
1.90972
1.93131
1.95051
1.96174
1.95973
1.95353
1.9422
1.9235
1.90083
1.87693
1.85271
1.83041
1.81072
1.79282
1.77554
1.75851
1.74291
1.72809
1.71545
1.7029
1.69244
1.682
1.67406
1.66707
1.6629
1.66009
1.65991
1.66031
1.6618
1.66491
1.67026
1.67469
1.67963
1.68288
1.68584
1.68792
1.68889
1.69037
1.69082
1.69169
1.69282
1.69418
1.69697
1.69995
1.70562
1.7112
1.71976
1.72742
1.73694
1.74565
1.75312
1.75916
1.76252
1.76427
1.7638
1.76267
1.76008
1.75593
1.75134
1.74696
1.7428
1.74055
1.57708
1.85606
1.94246
1.95776
1.95745
1.94878
1.93449
1.91859
1.90682
1.90521
1.91409
1.93271
1.96983
2.03758
2.13022
2.19834
2.21731
2.21083
2.19422
2.16612
2.13664
2.11014
2.08646
2.06551
2.04449
2.02492
2.0043
1.98416
1.96404
1.94312
1.92486
1.90479